/*--------------------------------*- C++ -*----------------------------------*\
  =========                 |
  \\      /  F ield         | OpenFOAM: The Open Source CFD Toolbox
   \\    /   O peration     | Website:  https://openfoam.org
    \\  /    A nd           | Version:  9
     \\/     M anipulation  |
\*---------------------------------------------------------------------------*/
FoamFile
{
    format      ascii;
    class       volScalarField;
    location    "0.071";
    object      nut;
}
// * * * * * * * * * * * * * * * * * * * * * * * * * * * * * * * * * * * * * //

dimensions      [0 2 -1 0 0 0 0];

internalField   nonuniform List<scalar> 
12225
(
0
0
0
0
0
0
0
0
0
0
0
0
0
0
0
1.41658e-10
1.31558e-09
1.99088e-08
0
0
0
0
0
0
0
0
0
0
0
0
0
0
0
3.04339e-10
7.99192e-10
5.48694e-09
0
0
0
0
0
0
0
0
0
0
0
0
1.09459e-10
4.97061e-10
4.35938e-10
9.93404e-10
4.80173e-10
5.91014e-09
0
0
0
2.84605e-09
4.20576e-11
0
0
1.81952e-10
1.48731e-09
1.41823e-09
6.8425e-10
6.70105e-10
8.74797e-10
1.71536e-09
1.09993e-09
3.29609e-09
0
1.54541e-08
3.54579e-07
0
0
0
0
0
0
0
0
0
0
0
0
0
0
0
0
0
5.66689e-08
0
0
0
0
3.48931e-07
0
0
0
0
0
0
0
0
0
0
0
0
0
0
0
0
8.43385e-07
6.41814e-07
0
0
0
0
0
0
0
0
0
0
0
0
0
0
0
0
2.61615e-07
6.28978e-08
0
0
0
0
0
0
0
0
0
0
0
0
0
0
0
0
0
0
0
0
0
0
0
0
0
0
0
0
0
0
2.59556e-07
5.43527e-07
0
0
0
0
0
0
0
0
0
0
0
0
0
0
0
0
1.6647e-07
9.07121e-08
0
0
0
0
0
0
0
0
0
0
0
0
0
0
0
0
1.51595e-07
8.41026e-08
1.62727e-07
0
0
3.2736e-07
0
0
0
0
0
0
0
0
0
0
0
0
5.03667e-07
4.74174e-07
4.56659e-07
0
0
2.3053e-07
0
0
0
0
0
0
0
0
2.45767e-08
1.00154e-07
1.25409e-07
1.09592e-07
8.1686e-07
0
0
0
0
0
4.01807e-07
0
0
0
0
0
0
3.74798e-07
6.09437e-07
6.3044e-07
5.4403e-07
3.97269e-07
0
0
0
0
0
0
2.57079e-07
1.61131e-06
9.86513e-07
0
0
0
0
5.66295e-07
1.16791e-06
1.1954e-06
8.97254e-07
5.76699e-07
0
0
0
0
0
0
0
0
2.9578e-06
3.38721e-06
2.52896e-06
1.92848e-06
1.76858e-06
1.91049e-06
1.5964e-06
9.52901e-07
4.58764e-07
1.57645e-07
0
0
0
7.98725e-08
5.67318e-08
0
0
0
3.19381e-07
7.58884e-07
4.49097e-07
2.39399e-07
2.00572e-07
2.54638e-07
3.00625e-07
2.85657e-07
2.25096e-07
1.27429e-07
0
0
0
8.83181e-07
5.89827e-07
0
0
0
7.30103e-08
2.48324e-07
1.39941e-07
0
0
0
7.98475e-08
1.97957e-07
2.9823e-07
3.42034e-07
0
0
0
0
5.59248e-07
1.10439e-06
2.21293e-07
0
0
0
1.06988e-07
5.99942e-08
6.06923e-08
8.28219e-08
1.1603e-07
1.80707e-07
2.66119e-07
3.21136e-07
5.0456e-07
0
0
0
1.56856e-06
1.29298e-06
4.1693e-07
0
0
0
0
2.30386e-07
2.71743e-07
2.63967e-08
0
0
0
0
1.00599e-07
8.25205e-07
2.80393e-07
5.17446e-07
6.86601e-07
6.23422e-07
2.78208e-07
0
1.28016e-07
5.05362e-07
7.13176e-07
6.50126e-07
5.08795e-07
5.85267e-07
4.62229e-07
7.65751e-08
0
0
0
0
0
5.09654e-07
2.40336e-07
3.31613e-08
0
0
0
9.70818e-08
2.49893e-07
3.00155e-07
2.41901e-07
1.16591e-07
1.43207e-08
0
0
0
0
0
0
5.57146e-07
3.67469e-07
7.18372e-07
1.4802e-06
1.86051e-06
1.3326e-06
3.10215e-07
0
0
0
0
1.64275e-07
2.4441e-07
0
0
9.28764e-07
8.50489e-07
0
0
9.72318e-08
9.74283e-07
1.29615e-06
9.21601e-07
6.66941e-07
8.26209e-07
1.25628e-06
1.16939e-06
8.208e-07
1.03804e-06
1.21531e-06
9.58995e-07
4.45484e-07
5.06545e-08
5.50536e-07
3.64704e-07
3.45116e-07
0
0
7.15105e-07
3.5295e-07
9.27878e-07
1.37653e-06
1.48706e-06
1.44865e-06
1.01408e-06
8.18477e-07
8.85376e-07
8.46411e-07
6.89086e-07
4.90161e-07
3.02582e-07
0
0
6.26081e-07
6.15773e-07
5.499e-07
3.65717e-07
1.56147e-07
1.0574e-06
1.88361e-06
2.02335e-07
0
3.23932e-07
3.01599e-07
2.01284e-08
1.5589e-08
2.00883e-07
4.7247e-07
7.36247e-07
3.21276e-08
1.60518e-08
0
0
0
7.06774e-09
8.60125e-09
1.09188e-09
0
0
0
0
0
0
0
0
0
0
0
0
0
0
0
0
8.73776e-11
0
0
0
0
0
0
0
0
0
0
0
0
0
0
0
0
0
0
0
0
0
0
0
0
0
0
0
0
0
0
0
0
0
0
0
0
0
0
0
0
0
0
0
0
0
0
0
0
1.09788e-05
2.37973e-05
0
0
0
0
1.49839e-06
3.30761e-06
2.1915e-06
3.35036e-07
0
0
0
0
0
0
0
0
0
0
0
0
0
0
0
0
0
7.99564e-08
1.05876e-07
7.42782e-08
1.33787e-07
1.28146e-07
0
0
0
0
0
0
0
1.25459e-06
2.32352e-06
2.06378e-07
0
0
0
0
0
0
1.15041e-06
3.6993e-06
7.81471e-06
1.50509e-05
1.989e-05
2.01317e-05
1.56875e-05
9.59337e-06
5.65449e-06
2.22671e-06
0
0
0
0
0
0
1.01917e-06
1.82982e-06
1.20838e-06
1.0289e-06
7.59761e-07
5.31769e-07
3.28051e-07
1.48178e-07
4.11902e-09
0
0
0
0
0
0
0
0
0
0
0
0
0
0
0
0
0
0
0
0
0
0
0
0
0
0
0
0
0
0
0
0
0
0
0
0
0
0
0
0
0
1.96726e-07
1.50876e-07
0
0
0
0
0
0
0
0
0
0
0
0
0
0
0
0
0
1.25823e-09
3.51717e-09
6.09596e-09
8.07642e-09
9.16885e-09
8.94997e-09
6.77757e-09
2.29562e-09
0
0
0
0
0
0
3.69467e-11
7.81859e-09
1.14861e-08
8.5178e-09
1.32612e-09
0
0
0
0
0
2.83431e-09
1.74571e-08
1.99945e-08
2.31119e-08
2.27317e-08
0
0
0
0
0
0
0
0
0
0
0
0
2.63882e-07
0
0
0
1.61412e-07
0
0
0
0
0
0
0
1.50839e-06
3.72418e-06
3.22074e-06
1.25129e-06
0
0
0
0
0
0
0
0
0
0
0
0
0
0
0
1.00363e-08
1.22449e-07
2.05809e-07
2.1391e-07
8.9634e-08
1.0604e-07
1.80541e-07
0
0
0
0
0
0
0
0
6.12194e-07
2.90576e-07
0
0
0
0
0
7.11062e-08
3.26847e-06
7.75545e-06
1.38256e-05
2.01725e-05
2.33536e-05
2.22322e-05
1.60947e-05
7.65083e-06
1.05252e-06
0
0
0
0
0
0
0
1.09899e-06
2.12098e-06
1.52023e-06
1.51174e-06
1.20248e-06
8.73052e-07
5.46136e-07
2.35416e-07
0
0
0
0
0
0
0
0
0
0
0
0
0
0
0
0
0
0
0
0
0
0
0
0
0
0
0
0
0
0
0
0
0
0
0
0
0
0
0
0
0
0
2.87471e-07
6.56697e-07
3.93051e-07
8.22962e-08
0
0
0
0
0
0
0
0
0
0
0
0
0
0
0
1.45352e-09
1.06843e-08
1.84819e-08
2.39026e-08
2.71986e-08
2.88096e-08
2.8764e-08
2.68666e-08
2.31423e-08
1.80497e-08
1.19018e-08
6.01807e-09
2.72545e-09
1.72526e-09
2.62041e-09
7.08064e-09
1.16675e-08
1.35056e-08
1.2714e-08
6.4078e-09
0
0
0
0
2.23111e-09
1.53134e-08
1.43176e-08
1.4318e-08
3.00191e-08
5.04977e-09
0
0
0
0
0
0
0
0
0
0
0
0
0
0
4.285e-07
1.55068e-06
1.30597e-05
9.93222e-06
7.51549e-06
4.29968e-06
4.22494e-07
0
0
1.0497e-06
2.84657e-06
2.50769e-06
9.01218e-07
0
0
0
0
0
0
0
0
0
0
0
0
0
0
7.83517e-07
1.46823e-06
1.80688e-06
1.83007e-06
1.61465e-06
7.90105e-07
0
0
0
0
0
0
1.19834e-06
9.0656e-06
1.58138e-05
1.70446e-05
1.12106e-05
2.63722e-06
0
0
0
0
4.97195e-06
1.14683e-05
2.21018e-05
3.60825e-05
4.06705e-05
3.07083e-05
1.82086e-05
7.89396e-06
7.20499e-07
0
0
0
0
0
0
0
0
0
1.99852e-06
3.61215e-06
4.0271e-06
5.26242e-06
4.21464e-06
3.01891e-06
1.81636e-06
7.09664e-07
0
0
0
0
0
0
0
0
0
0
0
0
0
0
0
0
0
0
0
0
0
0
0
0
0
0
0
0
0
0
0
0
0
0
0
0
0
0
0
0
0
0
0
0
0
0
0
0
0
0
0
0
0
0
0
0
0
0
0
0
0
0
2.43143e-08
6.09666e-08
8.74481e-08
1.02418e-07
1.07834e-07
1.09515e-07
1.1398e-07
1.22841e-07
1.2992e-07
1.22766e-07
9.6941e-08
6.38149e-08
3.26758e-08
8.52704e-09
2.61905e-09
1.82876e-08
5.28638e-08
9.54556e-08
1.1105e-07
9.13717e-08
7.17954e-08
6.14069e-08
3.1777e-08
6.53489e-09
1.29491e-08
0
0
1.68e-08
2.94385e-07
3.49669e-07
0
0
0
0
0
0
0
0
0
0
0
1.06911e-06
2.23174e-06
3.57852e-06
3.86034e-06
1.08233e-05
6.85383e-06
5.67036e-06
4.46513e-06
2.83725e-06
1.31202e-06
0
0
5.21313e-07
2.68148e-06
4.45326e-06
5.65301e-06
6.38848e-06
6.72923e-06
6.63748e-06
6.0299e-06
4.78498e-06
2.66289e-06
0
0
0
0
0
9.74614e-06
1.32013e-05
7.942e-06
4.45463e-06
2.94386e-06
2.35333e-06
2.35359e-06
2.36499e-06
1.59237e-06
1.95366e-07
0
0
1.8532e-06
7.02282e-06
1.08218e-05
1.05109e-05
7.93546e-06
4.68755e-06
1.63212e-06
0
0
0
8.26065e-06
1.22972e-05
9.01599e-06
6.32031e-06
4.66075e-06
3.51942e-06
1.75052e-06
0
0
0
0
0
0
0
0
0
0
0
0
0
1.00429e-06
4.95982e-06
9.6528e-06
1.56557e-05
1.16998e-05
5.95802e-06
1.62585e-06
4.29688e-07
0
0
0
0
0
0
0
0
0
0
0
0
0
0
0
0
0
0
0
0
0
0
0
0
0
0
0
0
0
0
0
0
0
0
0
0
0
0
0
0
0
0
0
0
0
0
0
0
0
0
0
0
0
0
0
0
0
0
0
0
0
0
0
0
4.39412e-08
1.10257e-07
1.17724e-07
3.40025e-08
0
0
0
0
1.23827e-07
2.71989e-07
2.51386e-07
0
0
6.67303e-07
2.04005e-06
1.17051e-06
1.71998e-07
0
0
0
2.79775e-07
1.64756e-06
2.6283e-06
2.0994e-06
0
0
1.84056e-05
0
0
0
0
0
0
0
0
0
0
8.29786e-08
1.1615e-06
2.57786e-06
5.02569e-06
6.18497e-06
5.04298e-06
8.38043e-06
6.85329e-06
3.8411e-06
2.42342e-06
2.07604e-06
1.14044e-06
3.97467e-06
7.27664e-06
8.82749e-06
9.37456e-06
9.47361e-06
9.18884e-06
8.44851e-06
7.01927e-06
4.65566e-06
1.08129e-06
0
0
0
0
0
0
0
1.66503e-05
1.64416e-05
1.01246e-05
5.13858e-06
2.06284e-06
5.80501e-07
1.18411e-08
1.01942e-07
1.913e-07
0
0
0
0
0
0
1.27653e-06
1.1741e-06
0
0
0
0
0
0
0
0
0
0
0
0
0
0
0
0
0
0
0
0
0
0
0
0
0
3.47663e-06
5.77689e-06
7.35298e-06
1.16316e-05
1.00764e-05
3.70213e-06
3.85269e-07
0
0
0
0
0
0
0
1.87325e-08
5.69375e-08
9.86979e-08
1.49495e-07
1.85288e-07
2.14122e-07
2.25374e-07
2.21337e-07
2.04306e-07
1.72933e-07
1.33548e-07
9.21921e-08
5.13964e-08
1.4235e-08
0
0
0
0
0
0
0
0
0
0
0
0
0
0
0
0
0
0
0
0
0
0
0
0
0
0
0
0
0
0
0
0
0
0
0
0
0
0
0
0
0
0
0
0
0
0
9.01324e-08
1.12305e-07
0
0
0
0
4.68364e-08
3.57376e-07
4.45561e-07
7.31156e-09
0
2.49199e-06
2.65357e-06
1.20633e-06
0
0
0
0
1.27237e-06
3.55447e-06
4.36875e-06
4.58575e-06
0
0
3.54089e-05
5.70284e-06
0
0
0
0
0
0
0
0
0
9.93634e-07
2.37924e-06
4.17652e-06
6.91667e-06
7.73618e-06
5.8435e-06
1.06811e-06
1.80471e-06
2.06315e-06
2.88357e-06
2.61004e-06
5.33766e-06
7.62804e-06
8.65288e-06
8.83024e-06
8.59583e-06
7.88651e-06
6.4026e-06
3.54923e-06
0
0
0
0
0
0
0
0
0
5.74661e-06
1.61377e-05
1.41243e-05
9.46284e-06
5.50537e-06
2.6262e-06
7.70103e-07
0
0
0
0
0
0
0
0
0
1.60107e-06
1.92905e-06
0
0
0
0
8.56303e-06
7.12796e-06
3.24144e-06
1.96393e-06
1.08613e-06
2.26472e-07
0
0
0
0
0
0
0
0
0
0
0
0
0
0
0
3.73796e-06
3.76055e-06
6.00122e-06
1.018e-05
1.65958e-05
6.69083e-06
1.13661e-06
1.63889e-07
0
0
0
0
0
0
0
0
0
0
0
0
0
0
0
0
0
0
0
0
0
0
0
0
0
0
0
0
0
0
0
0
0
0
0
0
0
0
0
0
0
0
0
0
0
0
0
0
0
0
0
0
0
0
0
0
0
0
0
0
0
0
0
0
0
0
0
0
4.34661e-09
0
0
0
0
3.41147e-07
4.15935e-07
2.15308e-09
6.45738e-07
3.56276e-06
3.22607e-06
1.52774e-06
1.22243e-07
0
0
3.42859e-07
2.60209e-06
3.66379e-06
4.47578e-06
3.86947e-06
0
0
1.69128e-05
2.61064e-05
4.13422e-06
0
0
0
0
0
0
0
0
5.54502e-07
4.01973e-06
6.25012e-06
9.15304e-06
9.49974e-06
6.87464e-06
5.69356e-08
2.44805e-07
6.4724e-07
3.26754e-06
5.32292e-06
6.73893e-06
7.39207e-06
7.85813e-06
7.9686e-06
7.38424e-06
5.06605e-06
0
0
0
0
0
0
0
0
0
0
5.77148e-07
1.28472e-05
1.55327e-05
1.20258e-05
8.20761e-06
5.48772e-06
3.28041e-06
1.60356e-06
6.91031e-07
3.7361e-07
2.28107e-07
0
0
0
0
0
1.06597e-06
2.78694e-06
2.05843e-06
1.23547e-06
1.64193e-06
2.88995e-06
4.63082e-06
9.07324e-06
6.621e-06
3.68249e-06
2.3116e-06
1.29171e-06
3.73029e-07
0
0
0
0
0
0
0
0
0
0
0
0
0
0
2.03266e-06
1.51798e-06
1.70617e-06
3.24699e-06
4.04602e-06
9.67205e-06
9.21277e-06
2.33634e-06
1.19948e-06
6.46788e-07
2.30682e-07
0
0
0
0
0
0
0
0
0
0
0
0
0
0
0
0
0
0
0
0
0
0
0
0
0
0
0
0
0
0
0
0
0
0
0
0
0
0
0
0
0
0
0
0
0
0
0
0
0
0
0
0
0
0
0
0
0
0
0
0
0
0
0
0
0
0
0
0
0
0
0
0
1.10379e-07
0
1.80659e-06
4.60446e-06
3.78112e-06
1.75696e-06
3.09943e-07
0
0
1.62736e-06
2.71345e-06
2.94281e-06
3.9352e-06
0
0
0
1.23721e-05
2.75562e-05
1.26287e-05
1.33905e-08
0
0
0
0
0
0
0
0
5.62708e-06
8.72594e-06
1.14392e-05
1.14779e-05
8.48038e-06
0
0
1.83247e-07
5.49936e-06
6.31504e-06
6.626e-06
7.03191e-06
7.3288e-06
6.78553e-06
3.08385e-06
0
0
0
2.01715e-05
1.98379e-05
1.08461e-05
4.19077e-06
1.87527e-07
0
0
0
1.70902e-06
1.22435e-05
1.35512e-05
9.56194e-06
6.23977e-06
3.89001e-06
2.02206e-06
9.9182e-07
9.36309e-07
1.04776e-06
0
0
0
0
0
7.28142e-07
2.9777e-06
3.35646e-06
3.27044e-06
3.69134e-06
4.34357e-06
5.07506e-06
5.56618e-06
9.56105e-06
7.61109e-06
5.09751e-06
3.47435e-06
2.22066e-06
1.02259e-06
0
0
0
0
0
0
0
0
0
0
0
0
0
0
1.90198e-06
0
5.42605e-07
6.8949e-07
0
9.69929e-07
1.24864e-05
5.73827e-06
3.2385e-06
1.98899e-06
1.2037e-06
5.794e-07
0
0
0
0
0
0
0
0
0
0
0
0
0
0
0
0
0
0
0
0
0
0
0
0
0
0
0
0
0
0
0
0
0
0
0
0
0
0
0
0
0
0
0
0
0
0
0
0
0
0
0
0
0
0
0
0
0
0
0
0
0
0
0
0
0
0
0
0
0
0
0
0
4.31759e-07
4.02343e-06
5.77545e-06
4.27782e-06
1.818e-06
5.84372e-07
4.61532e-07
1.07674e-06
2.29644e-06
2.06928e-06
2.20777e-06
2.3773e-06
0
0
0
2.07177e-05
2.61385e-05
1.51637e-05
4.81596e-06
0
0
0
0
0
0
0
0
4.80332e-06
1.09797e-05
1.33872e-05
1.29677e-05
9.3577e-06
0
0
7.14872e-08
5.31097e-06
5.66194e-06
5.84573e-06
5.88473e-06
5.10555e-06
5.82786e-07
0
1.82087e-05
5.52899e-05
5.56534e-05
4.58553e-05
3.13349e-05
1.74138e-05
8.85455e-06
4.82817e-06
2.86299e-06
1.73511e-06
1.61837e-06
7.20308e-06
1.61513e-05
1.5062e-05
1.04569e-05
6.02486e-06
2.38971e-06
6.94489e-07
8.7864e-07
1.62557e-06
2.76416e-07
0
0
0
0
1.44001e-07
2.2643e-06
3.10787e-06
3.61801e-06
4.2534e-06
4.87734e-06
4.9389e-06
3.40255e-06
0
2.72329e-06
5.53e-06
4.43418e-06
3.54328e-06
2.62049e-06
1.47197e-06
1.41866e-07
0
0
0
0
0
0
0
0
0
0
0
0
1.1182e-06
4.64804e-07
0
0
0
0
0
1.56776e-05
8.48575e-06
4.3403e-06
2.55524e-06
1.70448e-06
1.21933e-06
9.2293e-07
1.88513e-07
0
0
0
0
0
0
0
0
0
0
0
0
0
0
0
0
0
0
0
0
0
0
0
0
0
0
0
0
0
0
0
0
0
0
0
0
0
0
0
0
0
0
0
0
0
0
0
0
0
0
0
0
0
0
0
0
0
0
0
0
0
0
0
0
0
0
0
0
0
0
2.53712e-06
5.83168e-06
6.40055e-06
4.70556e-06
1.83358e-06
1.07082e-06
1.34758e-06
2.05665e-06
1.88376e-06
1.29814e-06
1.28931e-06
6.12047e-07
0
0
4.21622e-06
2.54624e-05
2.61716e-05
1.65037e-05
6.86235e-06
0
0
0
0
0
0
0
0
0
1.21335e-05
1.4803e-05
1.39406e-05
9.64215e-06
0
0
1.52266e-08
4.49853e-06
4.18528e-06
3.85382e-06
2.88895e-06
3.3952e-07
9.12566e-06
3.52451e-05
4.36257e-05
4.67376e-05
4.84944e-05
4.38128e-05
2.56224e-05
7.47106e-06
0
0
1.27282e-05
4.43379e-05
7.05661e-05
8.07673e-05
8.76721e-05
5.41374e-05
1.46539e-05
1.56832e-06
0
1.48418e-07
2.1884e-06
1.26076e-06
0
0
0
0
0
1.45653e-06
2.40268e-06
3.16766e-06
3.95977e-06
4.82379e-06
4.75209e-06
2.89173e-06
0
0
0
6.79447e-08
4.43509e-06
5.86482e-06
5.53745e-06
4.11425e-06
2.28287e-06
5.00247e-07
0
0
0
0
0
0
0
0
0
0
0
1.37602e-06
0
0
0
0
0
1.42166e-06
1.38961e-05
6.42145e-06
3.08934e-06
1.67215e-06
1.08936e-06
8.41943e-07
8.81206e-07
8.5713e-07
0
0
0
0
0
3.11812e-08
7.35558e-08
4.0951e-08
0
0
0
0
0
0
0
0
0
0
0
0
0
0
0
0
0
0
0
0
0
0
0
0
0
0
0
0
0
0
0
0
0
0
0
0
0
0
0
0
0
0
0
0
0
0
0
0
0
0
0
0
0
0
0
0
0
0
0
0
0
5.04762e-07
3.87887e-06
5.13297e-06
5.98709e-06
5.06262e-06
2.09387e-06
1.81162e-06
2.44242e-06
2.33193e-06
1.0297e-06
4.56825e-07
1.91055e-07
0
0
2.32619e-06
1.57041e-05
2.81094e-05
2.6634e-05
1.80152e-05
8.23231e-06
0
0
0
0
0
0
1.05516e-07
0
0
1.1273e-05
1.55389e-05
1.43365e-05
9.55848e-06
0
0
0
2.90263e-07
3.91431e-07
0
0
7.29305e-06
1.85266e-05
2.44141e-05
2.93662e-05
3.36218e-05
2.95758e-05
5.64966e-06
0
0
0
0
2.31795e-05
3.41497e-05
3.25783e-05
3.15886e-05
3.3232e-05
3.94081e-05
3.54167e-05
0
1.42311e-07
5.1805e-06
4.24025e-06
0
0
0
0
0
7.32638e-07
1.76389e-06
2.4128e-06
3.22697e-06
3.91679e-06
4.05242e-06
2.73984e-06
0
0
0
0
2.52625e-06
1.03821e-05
1.25092e-05
1.16101e-05
9.14474e-06
6.19723e-06
3.40073e-06
1.16744e-06
0
0
0
0
0
0
0
0
0
0
4.04634e-07
0
0
0
0
0
7.86183e-06
8.46177e-06
3.64811e-06
1.67193e-06
7.86981e-07
3.69302e-07
1.63143e-07
7.20189e-08
0
0
9.14013e-08
4.8702e-07
6.84455e-07
7.30835e-07
6.74546e-07
5.59336e-07
4.27568e-07
2.9981e-07
1.7607e-07
4.46269e-08
0
0
0
0
0
0
0
0
0
0
0
0
0
0
0
0
0
0
0
0
0
0
0
0
0
0
0
0
0
0
0
0
0
0
0
0
0
0
0
0
0
0
0
0
0
0
0
0
0
0
0
0
0
0
0
0
0
0
5.21949e-07
2.59234e-06
3.09089e-06
4.15545e-06
4.53485e-06
3.03968e-06
0
3.2858e-06
2.62506e-06
3.83961e-07
0
0
0
1.68023e-06
1.08201e-05
2.28733e-05
2.96244e-05
2.6535e-05
1.89447e-05
9.10921e-06
1.52428e-07
0
0
0
7.30546e-07
3.21812e-06
4.27855e-06
7.62988e-07
0
8.10755e-06
1.54541e-05
1.42564e-05
9.15627e-06
0
0
0
0
0
0
0
5.30349e-06
9.48257e-06
1.2623e-05
1.40593e-05
9.74276e-06
2.19617e-06
0
0
0
0
0
0
1.60427e-05
2.33067e-05
2.18225e-05
1.86802e-05
1.35439e-05
2.29902e-07
0
1.66951e-05
1.42331e-05
5.76111e-06
0
0
0
0
0
8.56726e-07
1.51169e-06
2.11938e-06
2.74725e-06
2.94087e-06
2.06719e-06
0
0
0
0
0
1.41903e-05
1.97065e-05
1.9762e-05
1.74653e-05
1.38808e-05
1.00173e-05
6.71095e-06
4.35674e-06
2.70194e-06
1.2565e-06
0
0
0
0
0
0
0
0
0
0
0
0
0
0
1.09198e-05
4.85118e-06
2.08083e-06
9.30117e-07
3.24053e-07
0
0
0
3.0866e-07
1.17876e-06
1.00828e-06
2.20463e-07
1.26268e-07
9.75142e-08
0
0
0
0
0
0
0
0
0
0
0
0
0
0
0
0
0
0
0
0
0
0
0
0
0
0
0
0
0
0
0
0
0
0
0
0
0
0
0
0
0
0
0
0
0
0
0
0
0
0
0
0
0
0
0
0
0
0
0
0
0
0
0
0
0
0
0
0
0
0
0
1.51816e-06
2.64539e-06
1.00883e-07
0
0
0
3.09862e-06
1.45013e-05
2.53167e-05
2.88542e-05
2.52687e-05
1.88146e-05
9.18452e-06
4.53006e-08
0
0
0
6.86844e-07
4.44325e-06
7.54519e-06
4.98501e-06
0
3.86084e-06
1.41255e-05
1.37488e-05
8.53987e-06
0
0
0
0
0
0
0
5.76119e-08
1.69143e-06
2.0569e-06
1.04502e-06
5.40405e-07
6.48831e-07
0
0
0
0
0
0
0
0
0
0
0
0
4.98304e-06
1.92016e-05
1.43545e-05
8.56435e-06
8.59829e-07
0
0
0
3.92211e-08
6.15192e-07
1.03062e-06
1.46503e-06
1.70409e-06
1.34429e-06
0
0
0
0
0
1.87521e-06
2.39355e-05
2.32911e-05
2.16783e-05
1.93587e-05
1.59765e-05
1.22289e-05
9.17802e-06
7.25571e-06
5.69857e-06
3.07319e-06
3.87196e-08
0
0
0
0
0
0
0
0
0
0
0
0
0
5.73135e-06
2.4121e-06
1.12851e-06
5.28952e-07
1.61316e-07
0
0
3.73753e-07
1.62643e-06
3.02843e-06
0
0
0
0
0
0
0
0
0
0
0
0
0
0
0
0
0
0
0
0
0
0
0
0
0
0
0
0
0
0
0
0
0
0
0
0
0
0
0
0
0
0
0
0
0
0
0
0
0
0
0
0
0
0
0
0
0
0
0
0
0
0
0
0
0
0
0
0
0
0
0
0
0
0
0
4.43596e-07
1.581e-06
0
0
0
0
1.04253e-06
1.27549e-05
2.22247e-05
2.39898e-05
2.17915e-05
1.72691e-05
8.53201e-06
0
0
0
0
2.92917e-07
3.93093e-06
8.86387e-06
8.80472e-06
1.92757e-06
8.76205e-07
1.13713e-05
1.28349e-05
7.64317e-06
0
0
0
0
0
0
0
0
0
0
0
0
0
0
0
0
0
0
0
0
0
0
0
0
0
7.93581e-06
1.70135e-05
1.6415e-05
1.35258e-05
3.19427e-06
0
0
0
0
2.21102e-07
4.60003e-07
6.19456e-07
5.88866e-07
5.54582e-08
0
0
2.82464e-07
1.93386e-06
7.59247e-06
3.09095e-05
2.20803e-05
1.81467e-05
1.77318e-05
1.74073e-05
1.50134e-05
1.13917e-05
8.23057e-06
6.27396e-06
4.83081e-06
2.88117e-06
1.10159e-06
0
0
0
0
0
0
0
0
0
0
0
0
0
3.03238e-06
1.78219e-06
1.07483e-06
6.55657e-07
3.63605e-07
2.53181e-07
5.31949e-07
1.58863e-06
3.84344e-06
0
0
0
0
0
1.46798e-08
0
0
0
0
0
0
0
0
0
0
0
0
0
0
0
0
0
0
0
0
0
0
0
0
0
0
0
0
0
0
0
0
0
4.02586e-09
3.06502e-08
4.85967e-08
0
0
0
0
0
0
0
0
0
0
0
0
0
0
0
0
0
0
0
0
0
0
0
0
0
0
0
0
0
0
0
0
0
0
2.41788e-07
8.86884e-07
0
0
0
0
0
6.25557e-06
1.36556e-05
1.49916e-05
1.5195e-05
1.33691e-05
7.21949e-06
0
0
0
0
3.58262e-07
2.81832e-06
8.22184e-06
1.16142e-05
5.1958e-06
5.02087e-08
7.20373e-06
1.13229e-05
6.65228e-06
0
0
0
0
0
0
0
0
0
0
0
0
0
0
0
0
0
0
0
0
0
0
0
0
0
1.55464e-06
7.43027e-06
1.0049e-05
9.47407e-06
3.03308e-06
0
0
0
0
1.00849e-08
1.75487e-08
0
0
0
0
5.14058e-07
5.35005e-06
1.60227e-05
4.21889e-05
4.00939e-05
1.59027e-05
7.64048e-06
8.05966e-06
1.0542e-05
1.00552e-05
7.17672e-06
4.49652e-06
3.76648e-06
4.59881e-06
4.20686e-06
3.03451e-06
2.56143e-06
5.99597e-06
1.10434e-06
0
0
0
0
0
0
0
0
0
8.96635e-07
2.32546e-06
1.66568e-06
1.0971e-06
6.41801e-07
3.91381e-07
5.04561e-07
1.23189e-06
2.68756e-06
2.70472e-06
0
0
0
0
2.50768e-07
7.35776e-07
7.91079e-07
5.86098e-07
2.58341e-07
0
0
0
0
0
0
0
0
0
0
0
0
0
0
0
0
0
0
0
0
0
0
0
0
0
0
0
3.39681e-07
2.24149e-07
0
0
0
0
6.43407e-09
0
0
0
0
0
0
0
0
0
0
0
0
0
0
0
0
0
0
0
0
0
0
0
0
0
0
0
0
0
0
0
0
0
2.03878e-07
5.86116e-07
0
0
0
0
0
0
3.00621e-06
4.69417e-06
6.39009e-06
7.37945e-06
4.39491e-06
0
0
0
0
7.51308e-07
1.97962e-06
6.38189e-06
1.271e-05
8.60028e-06
7.45668e-07
2.39935e-06
8.66408e-06
5.3365e-06
0
0
0
0
0
0
0
0
0
0
0
0
0
0
0
3.4108e-09
0
0
0
0
0
0
0
0
7.83558e-09
2.37326e-06
4.10238e-06
4.69947e-06
3.83094e-06
1.65664e-06
0
0
0
1.11784e-07
2.9016e-07
0
0
0
0
0
1.17004e-06
6.11269e-06
1.46167e-05
2.72407e-05
2.92673e-05
1.30744e-05
3.59999e-07
0
4.13904e-07
2.04684e-06
2.07196e-06
2.52811e-06
4.75342e-06
6.64824e-06
6.52904e-06
6.45705e-06
1.33507e-05
9.85494e-06
1.94147e-06
0
0
0
0
0
0
0
0
0
3.13969e-08
1.04631e-06
9.37318e-07
7.16527e-07
4.56695e-07
3.06685e-07
4.50998e-07
9.39477e-07
1.11655e-06
0
0
0
0
0
6.0242e-07
1.16342e-06
1.33467e-06
1.28857e-06
1.07138e-06
7.46389e-07
3.88292e-07
5.90759e-08
0
0
0
0
0
0
0
0
3.91963e-07
1.78878e-07
0
0
0
0
0
0
0
0
0
0
0
0
0
0
6.04904e-07
8.79836e-07
3.97076e-07
9.24986e-08
0
0
0
0
0
0
0
0
0
0
0
0
0
0
0
0
0
0
0
0
0
0
0
0
0
0
0
0
0
0
0
0
0
0
0
0
1.20241e-07
4.72674e-07
0
0
0
0
0
0
0
0
0
0
0
0
0
0
0
9.27283e-07
1.50225e-06
4.16046e-06
1.18363e-05
1.17866e-05
2.46453e-06
0
3.92616e-06
3.41901e-06
0
0
0
0
0
0
0
0
0
0
0
0
0
0
3.56062e-06
6.75161e-06
7.74141e-06
6.58171e-06
5.04396e-06
3.69443e-06
2.59055e-06
1.9344e-06
1.74995e-06
1.99341e-06
2.62979e-06
3.46178e-06
4.02455e-06
3.89612e-06
3.0702e-06
1.7008e-06
0
0
1.18966e-06
1.57923e-06
8.96051e-07
6.08306e-08
0
0
0
0
0
2.15372e-06
5.37883e-06
9.41423e-06
1.26838e-05
9.10123e-06
2.80038e-07
0
0
0
0
1.18673e-06
4.2027e-06
6.36011e-06
7.89106e-06
1.36055e-05
1.68025e-05
6.07472e-06
1.83736e-06
0
0
0
0
0
0
0
0
0
0
6.36316e-07
7.51468e-07
6.36658e-07
3.42669e-07
1.31989e-08
0
0
0
0
0
0
0
0
7.82201e-07
1.08927e-06
1.12714e-06
1.0334e-06
8.93983e-07
7.83578e-07
6.78077e-07
5.267e-07
2.56142e-07
0
0
0
0
0
0
2.3463e-06
5.3497e-06
4.2917e-06
0
0
0
0
0
0
0
9.15932e-08
1.18841e-07
2.94785e-08
0
0
0
0
0
1.06206e-06
8.32262e-07
3.67612e-07
1.42493e-07
3.02123e-08
0
0
0
3.17331e-08
2.61235e-08
0
0
0
0
0
0
0
0
0
0
0
0
0
0
0
0
0
0
0
0
0
0
0
0
0
0
0
0
0
2.84741e-08
3.67642e-07
5.17865e-08
0
0
0
0
0
0
0
0
0
0
0
0
0
0
4.37545e-07
7.68635e-07
1.76659e-06
9.10034e-06
1.3719e-05
5.15634e-06
0
0
3.08057e-07
0
0
0
0
0
0
0
0
0
0
0
4.77605e-07
0
5.13287e-07
3.81743e-06
6.96311e-06
8.5775e-06
7.81719e-06
6.22183e-06
4.93185e-06
3.97948e-06
3.1748e-06
2.70646e-06
2.55631e-06
2.66635e-06
2.9164e-06
3.03408e-06
2.77455e-06
2.1971e-06
1.33881e-06
2.43651e-08
0
2.3488e-06
2.46286e-06
1.02319e-06
3.21507e-08
0
0
0
0
0
0
5.20789e-07
1.39278e-06
2.94948e-06
3.97966e-06
1.30633e-06
0
0
0
0
7.01162e-07
2.7687e-06
5.09424e-06
8.7637e-06
1.23207e-05
8.43684e-06
4.04291e-06
1.57161e-06
1.1299e-07
0
0
0
0
0
0
0
0
6.53055e-08
5.90031e-07
7.87814e-07
6.57254e-07
2.52606e-07
0
0
0
0
0
0
0
0
4.56672e-07
1.32296e-06
1.24262e-06
9.02814e-07
5.43744e-07
2.82276e-07
1.70603e-07
1.607e-07
1.8867e-07
2.10297e-07
2.00421e-07
7.84675e-08
0
0
0
4.10709e-06
8.75943e-06
7.65364e-06
4.87478e-06
0
0
0
0
0
0
2.75766e-07
5.31256e-07
6.11986e-07
5.5794e-07
2.5642e-07
0
0
0
0
1.69926e-07
8.24612e-07
4.51195e-07
2.18237e-07
1.062e-07
2.82662e-08
0
0
1.75617e-08
5.71447e-08
6.23368e-08
2.21541e-08
0
0
0
0
0
0
0
0
0
0
0
0
0
0
0
0
0
0
0
0
0
0
0
0
0
0
0
0
2.28813e-07
1.16548e-07
0
0
0
0
0
0
0
0
0
0
0
4.71813e-06
3.13026e-06
1.27614e-07
0
0
0
4.65531e-06
1.33236e-05
8.45457e-06
0
0
0
0
0
0
0
0
0
0
6.50675e-07
2.51336e-06
4.30291e-06
5.72071e-06
4.62817e-06
0
0
0
8.2999e-07
2.94943e-06
3.8351e-06
3.73232e-06
3.21869e-06
2.92865e-06
2.68871e-06
2.29619e-06
2.03663e-06
1.9434e-06
1.95467e-06
1.93291e-06
1.76578e-06
1.49586e-06
9.88567e-07
0
0
0
1.46829e-06
7.06135e-07
0
0
0
0
0
0
0
0
0
4.41217e-08
1.14937e-06
1.36793e-06
9.96036e-08
0
0
4.86901e-07
1.46361e-06
2.82438e-06
4.60878e-06
6.49368e-06
6.51347e-06
4.58167e-06
2.63187e-06
1.17182e-06
2.6684e-07
0
0
0
0
0
0
0
0
0
4.07082e-07
6.98394e-07
6.68183e-07
3.42833e-07
0
0
0
0
0
0
0
0
1.79195e-06
2.2837e-06
1.67342e-06
8.88549e-07
3.07787e-07
0
0
0
0
0
0
0
0
0
2.56698e-07
3.65219e-06
4.18947e-06
2.48654e-06
1.28174e-07
0
0
0
0
0
0
4.85819e-07
1.02079e-06
9.92286e-07
8.54597e-07
6.14379e-07
1.49219e-07
0
0
0
0
2.67559e-07
3.84065e-07
2.0081e-07
1.24853e-07
8.41268e-08
3.75735e-08
0
0
3.0354e-08
6.22008e-08
7.58469e-08
3.43129e-08
0
0
0
0
0
0
0
0
0
0
0
0
0
0
0
0
0
0
0
0
0
0
0
0
0
0
0
1.83937e-07
1.26505e-07
0
0
0
0
0
0
0
0
0
0
3.3344e-06
1.69086e-05
1.22805e-05
3.27271e-06
0
0
0
0
9.54676e-06
1.05676e-05
0
1.09568e-06
2.1347e-06
0
0
0
0
0
0
7.16191e-07
1.69646e-06
1.76122e-06
1.80225e-06
4.14715e-07
0
0
0
0
0
0
7.60939e-07
8.5402e-07
9.48344e-07
1.2558e-06
1.64167e-06
1.77285e-06
1.59704e-06
1.35232e-06
1.17484e-06
1.10971e-06
1.11077e-06
1.10643e-06
8.22276e-07
0
0
0
4.55775e-07
3.13399e-07
0
0
0
0
0
0
0
0
0
9.65456e-08
4.27789e-07
1.06575e-06
1.06403e-06
6.7627e-07
6.95117e-07
1.03006e-06
1.61202e-06
2.30754e-06
3.00222e-06
3.37435e-06
3.06226e-06
2.31802e-06
1.45651e-06
7.32974e-07
3.43666e-07
1.88975e-07
3.46765e-07
7.37595e-07
7.27874e-07
2.91409e-07
0
0
0
0
1.43849e-07
5.13823e-07
6.29093e-07
5.0196e-07
1.72028e-07
0
0
0
0
0
0
5.21198e-07
4.03035e-06
3.47696e-06
2.00425e-06
8.48842e-07
2.1072e-07
0
0
0
0
0
0
0
0
0
0
3.31697e-07
6.4529e-07
0
0
0
0
0
0
0
1.14307e-07
8.37369e-07
1.33408e-06
1.15463e-06
9.52707e-07
8.48369e-07
5.7937e-07
3.30794e-08
0
0
0
0
2.87202e-07
2.04307e-07
1.25933e-07
1.11073e-07
1.05763e-07
7.16187e-08
3.6956e-08
2.95739e-08
4.18763e-08
6.57148e-08
8.32419e-08
8.26211e-09
0
0
0
0
0
0
0
0
0
0
0
0
0
0
0
0
0
0
0
0
0
8.93534e-10
4.79602e-08
0
0
0
2.52521e-07
2.17403e-07
0
0
0
0
0
0
0
0
0
0
8.80264e-06
3.54431e-05
3.01085e-05
1.02154e-05
0
0
0
0
1.59285e-06
8.8646e-06
0
1.77622e-05
2.4942e-06
0
0
0
0
0
0
1.04141e-08
0
0
0
0
0
0
0
0
0
0
0
1.81934e-07
1.32086e-07
2.09202e-07
4.92774e-07
8.35436e-07
9.67568e-07
8.91264e-07
7.7703e-07
6.75862e-07
6.80993e-07
8.11709e-07
7.7521e-07
0
0
0
0
8.41692e-08
0
5.46357e-09
0
0
0
0
0
0
4.61738e-08
3.88807e-07
5.62425e-07
7.45239e-07
1.04661e-06
1.0346e-06
8.63726e-07
8.04183e-07
8.85661e-07
1.00521e-06
1.10286e-06
1.10061e-06
9.73661e-07
7.65755e-07
5.26378e-07
3.80123e-07
3.54486e-07
3.93454e-07
6.85434e-07
1.13037e-06
1.43629e-06
1.59865e-06
1.38663e-06
4.76745e-07
0
0
0
3.11179e-07
5.19689e-07
5.7702e-07
5.45232e-07
5.31765e-07
5.91358e-07
8.67284e-07
1.01871e-06
1.88412e-07
3.25911e-07
5.424e-06
7.15162e-06
4.40164e-06
2.02659e-06
7.66674e-07
2.0919e-07
0
0
0
0
0
0
0
0
0
0
0
0
0
0
0
0
0
3.77568e-07
7.76306e-07
9.8325e-07
1.43927e-06
1.74131e-06
1.36075e-06
1.04998e-06
9.70841e-07
8.38973e-07
4.98986e-07
0
0
0
0
1.89181e-07
2.04799e-07
1.22743e-07
1.05172e-07
1.27498e-07
1.25027e-07
9.34434e-08
6.76471e-08
5.56794e-08
5.97962e-08
8.03536e-08
8.29981e-08
0
0
0
0
0
3.22328e-08
7.79994e-08
0
0
0
2.24763e-08
0
0
0
0
0
0
0
0
0
0
2.60139e-07
1.63945e-07
6.78324e-08
5.71271e-08
8.12454e-08
3.02943e-07
7.1896e-07
8.31399e-07
5.12197e-07
0
0
0
0
0
0
0
0
1.39405e-05
5.71581e-05
6.0016e-05
2.22778e-05
2.03866e-07
0
0
0
0
2.2083e-06
1.87204e-06
9.95655e-06
0
0
0
0
0
0
0
0
0
0
0
0
0
0
1.95458e-07
0
0
0
2.39531e-07
2.30106e-07
2.64313e-08
0
9.27463e-09
0
0
1.10061e-07
2.81442e-07
4.18221e-07
4.54278e-07
5.89817e-07
7.31579e-07
2.35022e-07
0
0
0
2.73987e-08
0
0
2.02186e-07
1.34192e-07
9.00332e-08
9.63832e-08
5.88936e-08
2.44429e-08
1.77081e-07
3.7983e-07
6.28855e-07
7.07812e-07
7.11243e-07
7.06969e-07
5.41242e-07
2.70787e-07
1.19509e-08
0
0
0
0
0
0
1.66963e-07
2.99234e-07
4.24666e-07
7.48502e-07
1.20812e-06
1.7381e-06
2.34757e-06
2.59652e-06
1.68276e-06
2.51191e-07
0
0
1.39888e-07
3.60275e-07
5.44181e-07
8.1869e-07
1.41381e-06
2.59886e-06
4.30506e-06
5.4561e-06
5.72669e-06
8.72624e-06
1.44596e-05
1.10209e-05
4.57173e-06
1.62552e-06
6.56185e-07
2.71777e-07
1.16611e-07
6.46779e-08
1.259e-08
0
0
0
0
0
0
0
0
1.7928e-07
3.52586e-09
0
0
0
2.92598e-07
1.03689e-06
1.3541e-06
1.49921e-06
1.84343e-06
1.9988e-06
1.50336e-06
1.09571e-06
9.18211e-07
8.07676e-07
6.07195e-07
2.99239e-07
6.8853e-09
0
0
2.19283e-07
2.29819e-07
1.35528e-07
9.60228e-08
1.14966e-07
1.33804e-07
1.17931e-07
9.67909e-08
8.10533e-08
7.31554e-08
7.86065e-08
9.49884e-08
5.35911e-08
0
0
0
0
1.51841e-07
2.44468e-07
4.46805e-08
0
0
0
0
0
0
0
0
1.95661e-07
0
0
0
5.87068e-08
3.56261e-07
2.62027e-07
1.37744e-07
1.1398e-07
2.40396e-08
3.9202e-08
1.67084e-06
3.04048e-06
0
0
0
0
0
0
0
0
0
1.823e-05
7.45301e-05
9.8614e-05
3.87208e-05
5.32943e-06
0
0
0
0
0
0
1.37712e-06
0
0
0
0
0
0
0
7.81426e-08
5.07078e-07
1.07203e-07
0
0
0
0
2.27559e-06
0
0
4.94548e-07
9.34736e-07
6.28933e-07
1.31893e-07
0
0
0
0
0
0
0
3.42375e-07
5.09272e-07
6.85816e-07
4.7541e-07
0
0
0
6.13555e-08
0
0
2.47939e-07
4.1454e-07
4.01951e-07
4.34006e-07
5.0541e-07
4.64222e-07
4.04576e-07
3.93826e-07
4.95336e-07
6.45869e-07
5.77152e-07
3.39858e-07
3.73822e-08
0
0
0
0
0
0
0
0
0
1.94534e-07
4.80334e-07
8.59033e-07
1.3342e-06
1.98534e-06
2.84391e-06
3.47923e-06
2.89574e-06
1.21222e-06
1.38646e-07
0
3.43774e-08
1.98586e-07
4.54141e-07
9.92575e-07
2.16233e-06
4.45424e-06
7.53982e-06
1.01117e-05
1.31981e-05
2.17857e-05
2.69247e-05
1.58169e-05
3.9141e-06
8.62962e-07
5.39711e-07
3.85601e-07
2.52345e-07
2.09576e-07
1.66725e-07
4.45076e-08
0
0
0
0
0
0
0
0
4.57368e-07
0
0
5.07501e-09
9.77113e-07
1.34778e-06
1.50996e-06
1.66415e-06
2.05334e-06
2.15857e-06
1.51784e-06
1.02299e-06
7.44653e-07
6.02194e-07
4.85112e-07
4.10812e-07
2.87616e-07
2.00391e-07
2.25898e-07
3.10685e-07
2.8679e-07
1.80155e-07
1.14537e-07
1.11461e-07
1.2962e-07
1.2133e-07
1.07342e-07
9.77112e-08
8.98147e-08
8.48798e-08
8.75665e-08
8.34477e-08
0
0
0
0
2.46878e-07
3.97854e-07
3.39464e-08
0
0
0
0
0
0
0
0
2.81069e-07
0
0
2.6609e-09
1.01982e-07
3.74687e-07
2.56337e-07
1.11228e-07
0
0
0
3.77436e-07
0
0
0
0
0
0
0
0
0
0
2.16482e-05
8.43932e-05
0.000134332
5.64296e-05
1.01791e-05
0
0
0
0
0
0
0
0
1.32234e-06
8.10187e-07
0
0
0
0
3.94672e-07
1.1051e-06
1.51392e-06
1.32062e-06
1.14016e-06
1.61166e-06
5.75977e-06
4.77964e-06
2.71003e-06
1.31352e-06
1.1293e-06
1.25411e-06
8.19248e-07
2.81606e-07
6.29972e-08
4.02561e-08
8.89264e-08
1.78458e-08
0
0
0
2.01928e-07
5.71361e-07
6.91194e-07
6.34144e-07
0
0
0
9.38126e-08
0
0
1.87282e-07
5.33112e-07
6.68704e-07
6.76403e-07
7.91198e-07
8.49807e-07
7.2707e-07
5.34029e-07
3.64645e-07
3.95639e-07
4.21988e-07
1.8954e-07
0
0
0
0
0
0
0
0
0
0
6.63318e-08
5.56676e-07
1.02051e-06
1.51615e-06
2.18454e-06
3.05812e-06
3.80384e-06
3.59447e-06
2.13758e-06
7.47975e-07
1.50192e-07
1.93706e-08
8.45356e-08
3.70111e-07
1.10418e-06
2.73908e-06
5.83716e-06
9.76298e-06
1.37567e-05
2.06165e-05
3.21778e-05
3.61021e-05
2.05148e-05
2.66437e-06
7.54791e-08
4.42624e-07
5.47856e-07
4.21137e-07
3.32831e-07
3.14866e-07
1.98399e-07
0
0
0
0
0
0
0
0
0
5.82662e-07
6.31606e-07
1.50237e-06
1.80894e-06
1.60746e-06
1.50841e-06
1.62026e-06
2.08858e-06
2.33505e-06
1.59848e-06
9.44183e-07
6.09502e-07
4.46174e-07
3.84449e-07
3.70242e-07
3.88876e-07
3.70068e-07
3.75293e-07
3.87681e-07
3.29792e-07
2.21149e-07
1.39185e-07
1.16641e-07
1.28683e-07
1.2205e-07
1.10475e-07
1.0789e-07
1.06198e-07
1.01202e-07
8.96308e-08
8.13627e-08
4.00637e-08
0
0
0
2.36623e-07
5.5968e-07
0
0
0
0
0
0
0
0
0
1.10003e-08
0
4.55495e-09
2.67408e-08
1.07861e-07
3.48768e-07
2.52067e-08
0
0
0
0
0
0
0
0
0
0
0
0
0
0
0
2.40049e-05
8.87452e-05
0.00015972
7.38686e-05
1.12487e-05
0
0
0
0
0
0
0
0
4.68601e-07
2.63923e-07
0
0
0
0
0
3.7677e-08
5.08029e-07
8.46819e-07
1.4217e-06
2.31765e-06
3.1935e-06
3.98852e-06
3.75387e-06
1.92735e-06
1.43404e-06
1.44757e-06
9.57758e-07
3.59853e-07
1.56141e-07