/*--------------------------------*- C++ -*----------------------------------*\
  =========                 |
  \\      /  F ield         | OpenFOAM: The Open Source CFD Toolbox
   \\    /   O peration     | Website:  https://openfoam.org
    \\  /    A nd           | Version:  9
     \\/     M anipulation  |
\*---------------------------------------------------------------------------*/
FoamFile
{
    format      ascii;
    class       surfaceScalarField;
    location    "0.071";
    object      phi;
}
// * * * * * * * * * * * * * * * * * * * * * * * * * * * * * * * * * * * * * //

dimensions      [0 3 -1 0 0 0 0];

internalField   nonuniform List<scalar> 
24170
(
3.08463e-06
6.02738e-08
2.99086e-06
9.37778e-08
2.8775e-06
1.1336e-07
2.77082e-06
1.06681e-07
2.68108e-06
8.97375e-08
2.60526e-06
7.58218e-08
2.53504e-06
7.02212e-08
2.46722e-06
6.78145e-08
2.40602e-06
6.12025e-08
2.36012e-06
4.58952e-08
2.3289e-06
3.12195e-08
2.30658e-06
2.23232e-08
2.28147e-06
2.5115e-08
2.25231e-06
2.91593e-08
2.22334e-06
2.89708e-08
2.20901e-06
1.43246e-08
2.24848e-06
-3.94664e-08
-7.85187e-08
2.327e-06
3.45373e-06
2.33921e-08
3.4019e-06
1.45608e-07
3.38938e-06
1.25883e-07
3.40859e-06
8.7467e-08
3.42743e-06
7.0897e-08
3.43106e-06
7.21932e-08
3.42507e-06
7.6216e-08
3.4219e-06
7.0978e-08
3.42807e-06
5.50355e-08
3.44206e-06
3.19095e-08
3.45879e-06
1.44853e-08
3.47527e-06
5.84478e-09
3.49206e-06
8.32039e-09
3.51339e-06
7.83667e-09
3.5402e-06
2.15901e-09
3.58454e-06
-3.00147e-08
3.63197e-06
-8.68986e-08
-1.64318e-07
3.71777e-06
3.63346e-06
-5.28138e-08
3.64226e-06
1.36806e-07
3.65392e-06
1.14222e-07
3.69213e-06
4.92606e-08
3.73614e-06
2.68843e-08
3.76651e-06
4.18231e-08
3.77763e-06
6.50936e-08
3.77674e-06
7.18744e-08
3.77444e-06
5.73318e-08
3.77607e-06
3.0283e-08
3.784e-06
6.55309e-09
3.79729e-06
-7.44192e-09
3.81911e-06
-1.34995e-08
3.84808e-06
-2.11313e-08
3.88942e-06
-3.91867e-08
3.93606e-06
-7.66549e-08
3.98837e-06
-1.39205e-07
-2.2131e-07
4.04536e-06
3.88795e-06
5.76791e-08
3.84828e-06
1.76472e-07
3.87406e-06
8.84419e-08
3.91373e-06
9.59756e-09
3.95336e-06
-1.27497e-08
3.98702e-06
8.16239e-09
4.01115e-06
4.09626e-08
4.02593e-06
5.7093e-08
4.03498e-06
4.82809e-08
4.04196e-06
2.33022e-08
4.05108e-06
-2.55975e-09
4.06582e-06
-2.21803e-08
4.08914e-06
-3.68277e-08
4.12218e-06
-5.41678e-08
4.16367e-06
-8.06809e-08
4.20986e-06
-1.22844e-07
4.25342e-06
-1.82759e-07
-2.5742e-07
4.28953e-06
4.12163e-06
9.68992e-08
4.18064e-06
1.17459e-07
4.23563e-06
3.34536e-08
4.26424e-06
-1.90097e-08
4.26229e-06
-1.0807e-08
4.24712e-06
2.33399e-08
4.2382e-06
4.98786e-08
4.24303e-06
5.22649e-08
4.26056e-06
3.07517e-08
4.28666e-06
-2.80429e-09
4.31852e-06
-3.44199e-08
4.354e-06
-5.76603e-08
4.39151e-06
-7.43337e-08
4.42862e-06
-9.1279e-08
4.46364e-06
-1.15695e-07
4.49394e-06
-1.53145e-07
4.51704e-06
-2.05864e-07
-2.71851e-07
4.53147e-06
4.43497e-06
5.78835e-08
4.50763e-06
4.47969e-08
4.53077e-06
1.03177e-08
4.54131e-06
-2.95516e-08
4.55671e-06
-2.62065e-08
4.57141e-06
8.63884e-09
4.57974e-06
4.15509e-08
4.58365e-06
4.83585e-08
4.5902e-06
2.41952e-08
4.6038e-06
-1.63988e-08
4.62459e-06
-5.5217e-08
4.65001e-06
-8.30731e-08
4.67701e-06
-1.01334e-07
4.70348e-06
-1.17757e-07
4.72843e-06
-1.40643e-07
4.75181e-06
-1.76525e-07
4.77268e-06
-2.26734e-07
-2.90304e-07
4.79114e-06
4.85804e-06
3.67352e-08
4.89651e-06
6.32961e-09
4.90424e-06
2.5833e-09
4.90572e-06
-3.10319e-08
4.90801e-06
-2.8493e-08
4.91046e-06
6.19121e-09
4.91527e-06
3.67365e-08
4.92728e-06
3.63458e-08
4.94773e-06
3.75247e-09
4.97221e-06
-4.08827e-08
4.99682e-06
-7.9824e-08
5.02061e-06
-1.06869e-07
5.04525e-06
-1.2597e-07
5.07231e-06
-1.44818e-07
5.10136e-06
-1.69696e-07
5.13001e-06
-2.05172e-07
5.15434e-06
-2.51066e-07
-3.07301e-07
5.17134e-06
5.24719e-06
4.7984e-08
5.20784e-06
4.56784e-08
5.22235e-06
-1.19256e-08
5.24175e-06
-5.04282e-08
5.24354e-06
-3.02837e-08
5.23917e-06
1.05557e-08
5.24451e-06
3.14021e-08
5.26372e-06
1.71386e-08
5.29103e-06
-2.3559e-08
5.31939e-06
-6.92466e-08
5.34543e-06
-1.05865e-07
5.37036e-06
-1.31793e-07
5.39655e-06
-1.5216e-07
5.42459e-06
-1.72866e-07
5.4534e-06
-1.98497e-07
5.47942e-06
-2.31196e-07
5.49963e-06
-2.71281e-07
-3.1784e-07
5.51017e-06
5.61774e-06
-7.9066e-08
5.61524e-06
4.81819e-08
5.6171e-06
-1.37871e-08
5.64452e-06
-7.78557e-08
5.67806e-06
-6.38146e-08
5.70368e-06
-1.50727e-08
5.7161e-06
1.89869e-08
5.71876e-06
1.44734e-08
5.71876e-06
-2.35556e-08
5.72165e-06
-7.21351e-08
5.72891e-06
-1.13125e-07
5.73904e-06
-1.4193e-07
5.74971e-06
-1.62821e-07
5.75956e-06
-1.82717e-07
5.76817e-06
-2.07106e-07
5.77574e-06
-2.3877e-07
5.78252e-06
-2.78062e-07
-3.23329e-07
5.78801e-06
5.96785e-06
-7.2098e-08
5.96703e-06
4.90056e-08
5.97402e-06
-2.07814e-08
5.98788e-06
-9.17094e-08
6.01131e-06
-8.72434e-08
6.03424e-06
-3.80024e-08
6.04263e-06
1.0596e-08
6.0335e-06
2.35957e-08
6.01524e-06
-5.29437e-09
6.00093e-06
-5.78264e-08
6.00158e-06
-1.13768e-07
6.02174e-06
-1.62094e-07
6.05861e-06
-1.99686e-07
6.10546e-06
-2.29568e-07
6.15382e-06
-2.55465e-07
6.19761e-06
-2.82569e-07
6.2317e-06
-3.12145e-07
-3.47137e-07
6.25551e-06
6.37598e-06
-4.23017e-08
6.41419e-06
1.08018e-08
6.445e-06
-5.15963e-08
6.44121e-06
-8.79204e-08
6.43748e-06
-8.35111e-08
6.44895e-06
-4.94675e-08
6.47541e-06
-1.58642e-08
6.51192e-06
-1.29142e-08
6.55157e-06
-4.49445e-08
6.58924e-06
-9.54981e-08
6.62314e-06
-1.47673e-07
6.65402e-06
-1.92972e-07
6.68308e-06
-2.28744e-07
6.70992e-06
-2.56408e-07
6.73246e-06
-2.7801e-07
6.74834e-06
-2.98446e-07
6.75448e-06
-3.18284e-07
-3.42206e-07
6.74955e-06
5.82936e-06
4.22936e-10
5.80209e-06
3.80745e-08
5.79754e-06
-4.70487e-08
5.79058e-06
-8.09601e-08
5.76967e-06
-6.26042e-08
5.74848e-06
-2.82714e-08
5.74661e-06
-1.39976e-08
5.76688e-06
-3.31803e-08
5.79795e-06
-7.60184e-08
5.82802e-06
-1.25567e-07
5.85306e-06
-1.7271e-07
5.87509e-06
-2.15004e-07
5.89726e-06
-2.50919e-07
5.92022e-06
-2.79363e-07
5.94149e-06
-2.99278e-07
5.95651e-06
-3.13469e-07
5.96192e-06
-3.23692e-07
-3.35151e-07
5.95486e-06
7.15906e-06
1.58905e-07
7.06335e-06
1.33779e-07
7.02905e-06
-1.27483e-08
7.0092e-06
-6.1103e-08
6.97169e-06
-2.50992e-08
6.93582e-06
7.6022e-09
6.93273e-06
-1.09126e-08
6.97381e-06
-7.42535e-08
7.04488e-06
-1.47093e-07
7.12169e-06
-2.02375e-07
7.18374e-06
-2.3476e-07
7.22101e-06
-2.52272e-07
7.23328e-06
-2.63189e-07
7.22692e-06
-2.73005e-07
7.21011e-06
-2.82464e-07
7.18977e-06
-2.93134e-07
7.16989e-06
-3.03813e-07
-3.1704e-07
7.15178e-06
8.57912e-06
1.14271e-08
8.65402e-06
5.88798e-08
8.67382e-06
-3.25477e-08
8.6702e-06
-5.74917e-08
8.65439e-06
-9.28327e-09
8.63939e-06
2.25957e-08
8.63719e-06
-8.71101e-09
8.6537e-06
-9.07609e-08
8.68537e-06
-1.7876e-07
8.72128e-06
-2.38292e-07
8.74982e-06
-2.63295e-07
8.76433e-06
-2.66783e-07
8.76517e-06
-2.64034e-07
8.75795e-06
-2.65779e-07
8.74882e-06
-2.7334e-07
8.74111e-06
-2.85419e-07
8.73474e-06
-2.97446e-07
-3.07727e-07
8.72543e-06
1.03589e-05
1.44941e-07
1.03588e-05
5.90011e-08
1.04334e-05
-1.07139e-07
1.05156e-05
-1.39686e-07
1.05675e-05
-6.12131e-08
1.05663e-05
2.38233e-08
1.05203e-05
3.72732e-08
1.04567e-05
-2.72216e-08
1.04005e-05
-1.22553e-07
1.03682e-05
-2.05939e-07
1.03632e-05
-2.5834e-07
1.03788e-05
-2.82375e-07
1.04037e-05
-2.8895e-07
1.04268e-05
-2.88861e-07
1.04415e-05
-2.87985e-07
1.0445e-05
-2.88913e-07
1.04378e-05
-2.90284e-07
-2.92101e-07
1.04222e-05
1.27351e-05
-1.33387e-07
1.29781e-05
-1.84075e-07
1.30257e-05
-1.54691e-07
1.29736e-05
-8.76289e-08
1.29451e-05
-3.2673e-08
1.29706e-05
-1.64842e-09
1.30155e-05
-7.67551e-09
1.30431e-05
-5.48264e-08
1.30473e-05
-1.26688e-07
1.30383e-05
-1.96944e-07
1.30275e-05
-2.47613e-07
1.30163e-05
-2.71161e-07
1.29988e-05
-2.71454e-07
1.29683e-05
-2.58308e-07
1.29215e-05
-2.41184e-07
1.286e-05
-2.27392e-07
1.27874e-05
-2.17744e-07
-2.14228e-07
1.27095e-05
1.55384e-05
-1.89533e-08
1.54792e-05
-1.24891e-07
1.54785e-05
-1.53937e-07
1.55267e-05
-1.35882e-07
1.56253e-05
-1.3121e-07
1.57657e-05
-1.4211e-07
1.58971e-05
-1.39027e-07
1.59669e-05
-1.24662e-07
1.59559e-05
-1.15708e-07
1.58836e-05
-1.24608e-07
1.5786e-05
-1.50072e-07
1.56956e-05
-1.80714e-07
1.56281e-05
-2.03964e-07
1.55829e-05
-2.13119e-07
1.55501e-05
-2.08338e-07
1.55178e-05
-1.9507e-07
1.5478e-05
-1.78022e-07
-1.63693e-07
1.54275e-05
1.88922e-05
2.54615e-07
1.8763e-05
4.2688e-09
1.87135e-05
-1.04435e-07
1.87296e-05
-1.51965e-07
1.87683e-05
-1.69906e-07
1.88118e-05
-1.85673e-07
1.88673e-05
-1.9449e-07
1.89268e-05
-1.84208e-07
1.89668e-05
-1.55647e-07
1.89689e-05
-1.26768e-07
1.89315e-05
-1.12593e-07
1.88655e-05
-1.14753e-07
1.87868e-05
-1.25287e-07
1.87083e-05
-1.34555e-07
1.86379e-05
-1.38018e-07
1.85791e-05
-1.36241e-07
1.85336e-05
-1.32521e-07
-1.31213e-07
1.85011e-05
2.32054e-05
-2.32584e-08
2.3187e-05
2.27174e-08
2.30787e-05
3.87864e-09
2.29799e-05
-5.31751e-08
2.29039e-05
-9.39223e-08
2.28505e-05
-1.32307e-07
2.28307e-05
-1.74706e-07
2.28421e-05
-1.95526e-07
2.28733e-05
-1.86872e-07
2.29069e-05
-1.60378e-07
2.29244e-05
-1.30057e-07
2.2914e-05
-1.0437e-07
2.28747e-05
-8.59743e-08
2.28141e-05
-7.39734e-08
2.27449e-05
-6.88037e-08
2.2679e-05
-7.03521e-08
2.26248e-05
-7.83482e-08
-9.22524e-08
2.25858e-05
1.69821e-05
-1.64336e-08
1.70395e-05
-3.46542e-08
1.71007e-05
-5.73535e-08
1.71149e-05
-6.73673e-08
1.71084e-05
-8.74112e-08
1.70881e-05
-1.11986e-07
1.70376e-05
-1.24165e-07
1.69649e-05
-1.22842e-07
1.68957e-05
-1.17741e-07
1.68519e-05
-1.16568e-07
1.6841e-05
-1.19095e-07
1.68549e-05
-1.18306e-07
1.68772e-05
-1.08255e-07
1.68914e-05
-8.81758e-08
1.68866e-05
-6.4054e-08
1.68598e-05
-4.35576e-08
1.68132e-05
-3.17332e-08
-3.26567e-08
1.67536e-05
1.49615e-05
1.52892e-07
1.48667e-05
6.01838e-08
1.48176e-05
-8.29045e-09
1.48109e-05
-6.0593e-08
1.48403e-05
-1.16849e-07
1.48797e-05
-1.51378e-07
1.49055e-05
-1.49966e-07
1.4906e-05
-1.23316e-07
1.48853e-05
-9.70734e-08
1.48563e-05
-8.75619e-08
1.48298e-05
-9.26463e-08
1.48116e-05
-1.00077e-07
1.48026e-05
-9.92754e-08
1.48005e-05
-8.60072e-08
1.48004e-05
-6.39967e-08
1.47978e-05
-4.10094e-08
1.47895e-05
-2.33778e-08
-1.71962e-08
1.4774e-05
1.27775e-05
-1.12346e-07
1.28657e-05
-2.79781e-08
1.28418e-05
1.56299e-08
1.2826e-05
-4.47726e-08
1.2842e-05
-1.32911e-07
1.28815e-05
-1.90828e-07
1.29223e-05
-1.9079e-07
1.29514e-05
-1.52391e-07
1.296e-05
-1.05714e-07
1.29447e-05
-7.22861e-08
1.29108e-05
-5.86707e-08
1.28695e-05
-5.88335e-08
1.28327e-05
-6.24589e-08
1.2809e-05
-6.23289e-08
1.2802e-05
-5.69868e-08
1.28102e-05
-4.91993e-08
1.28289e-05
-4.20738e-08
-3.81884e-08
1.28499e-05
1.12607e-05
-2.6193e-07
1.12858e-05
-5.30321e-08
1.12555e-05
4.58948e-08
1.1199e-05
1.1688e-08
1.11177e-05
-5.16142e-08
1.10356e-05
-1.08637e-07
1.09795e-05
-1.34761e-07
1.09492e-05
-1.22052e-07
1.09376e-05
-9.41357e-08
1.09402e-05
-7.49003e-08
1.09541e-05
-7.25813e-08
1.09768e-05
-8.14958e-08
1.10059e-05
-9.16035e-08
1.10393e-05
-9.56572e-08
1.10736e-05
-9.12989e-08
1.11048e-05
-8.04571e-08
1.11286e-05
-6.57962e-08
-5.04524e-08
1.11408e-05
9.62449e-06
2.57763e-08
9.60046e-06
-2.90024e-08
9.66604e-06
-1.9682e-08
9.7213e-06
-4.35703e-08
9.74808e-06
-7.83953e-08
9.74113e-06
-1.01688e-07
9.7148e-06
-1.08434e-07
9.69321e-06
-1.00458e-07
9.68593e-06
-8.68564e-08
9.68899e-06
-7.79635e-08
9.69236e-06
-7.59515e-08
9.68646e-06
-7.55941e-08
9.66794e-06
-7.30828e-08
9.64096e-06
-6.86703e-08
9.61361e-06
-6.39486e-08
9.59261e-06
-5.94661e-08
9.5814e-06
-5.45831e-08
-4.76651e-08
9.57861e-06
8.39986e-06
2.32512e-08
8.45746e-06
-8.66102e-08
8.46351e-06
-2.57323e-08
8.45247e-06
-3.25243e-08
8.44906e-06
-7.49866e-08
8.46415e-06
-1.16776e-07
8.49485e-06
-1.39139e-07
8.52733e-06
-1.3294e-07
8.54405e-06
-1.03569e-07
8.53065e-06
-6.457e-08
8.48405e-06
-2.93473e-08
8.41544e-06
-6.9869e-09
8.3431e-06
-7.4136e-10
8.28367e-06
-9.23681e-09
8.24681e-06
-2.70866e-08
8.23354e-06
-4.62011e-08
8.23956e-06
-6.06043e-08
-6.51526e-08
8.25705e-06
7.40663e-06
6.74054e-08
7.25331e-06
6.67047e-08
7.25746e-06
-2.98845e-08
7.33134e-06
-1.06401e-07
7.3897e-06
-1.33346e-07
7.39036e-06
-1.17439e-07
7.34396e-06
-9.27344e-08
7.28868e-06
-7.76639e-08
7.25471e-06
-6.96022e-08
7.25207e-06
-6.19301e-08
7.27591e-06
-5.31851e-08
7.31574e-06
-4.68108e-08
7.36062e-06
-4.5622e-08
7.40141e-06
-5.00302e-08
7.43174e-06
-5.74185e-08
7.44967e-06
-6.41292e-08
7.45623e-06
-6.71606e-08
-6.40551e-08
7.45513e-06
6.50069e-06
-1.79863e-07
6.54608e-06
2.1314e-08
6.52586e-06
-9.66131e-09
6.49016e-06
-7.06993e-08
6.43873e-06
-8.19175e-08
6.38947e-06
-6.81838e-08
6.35668e-06
-5.99373e-08
6.34174e-06
-6.27306e-08
6.34141e-06
-6.92672e-08
6.35443e-06
-7.49527e-08
6.38056e-06
-7.93117e-08
6.41575e-06
-8.20004e-08
6.45155e-06
-8.14229e-08
6.47784e-06
-7.63189e-08
6.48724e-06
-6.68221e-08
6.47811e-06
-5.50016e-08
6.45422e-06
-4.32654e-08
-3.37279e-08
6.42389e-06
5.5816e-06
-8.40338e-08
5.60498e-06
-2.06914e-09
5.63087e-06
-3.5557e-08
5.6323e-06
-7.21246e-08
5.61506e-06
-6.46794e-08
5.59983e-06
-5.29555e-08
5.59981e-06
-5.9916e-08
5.61363e-06
-7.65473e-08
5.63084e-06
-8.64774e-08
5.64117e-06
-8.52857e-08
5.64017e-06
-7.83116e-08
5.62939e-06
-7.12188e-08
5.61341e-06
-6.54397e-08
5.59675e-06
-5.96658e-08
5.58257e-06
-5.26415e-08
5.57246e-06
-4.48889e-08
5.56684e-06
-3.7644e-08
-3.27556e-08
5.56587e-06
4.90514e-06
-1.18278e-07
4.92428e-06
-2.12063e-08
4.95454e-06
-6.58241e-08
4.95281e-06
-7.03947e-08
4.94167e-06
-5.354e-08
4.94184e-06
-5.3118e-08
4.94848e-06
-6.65609e-08
4.94742e-06
-7.54851e-08
4.93322e-06
-7.22749e-08
4.91097e-06
-6.30433e-08
4.88841e-06
-5.57531e-08
4.86994e-06
-5.2741e-08
4.85621e-06
-5.17091e-08
4.84586e-06
-4.93218e-08
4.83735e-06
-4.41328e-08
4.82958e-06
-3.71163e-08
4.82177e-06
-2.98365e-08
-2.50015e-08
4.81402e-06
4.04909e-06
4.02788e-06
3.96206e-06
3.89167e-06
3.83813e-06
3.78501e-06
3.71845e-06
3.64296e-06
3.57069e-06
3.50764e-06
3.45189e-06
3.39915e-06
3.34744e-06
3.29812e-06
3.25399e-06
3.21687e-06
3.18703e-06
3.16203e-06
-5.60759e-07
5.60759e-07
-9.57684e-07
3.96925e-07
-1.20968e-06
2.52e-07
-1.22622e-06
1.65369e-08
-9.51831e-07
-2.7439e-07
-4.35512e-07
-5.16318e-07
2.51816e-07
-6.87328e-07
1.01739e-06
-7.65573e-07
1.79814e-06
-7.80754e-07
2.55148e-06
-7.53341e-07
3.25515e-06
-7.03664e-07
3.90054e-06
-6.45387e-07
4.48706e-06
-5.86525e-07
5.01788e-06
-5.30822e-07
5.49614e-06
-4.78257e-07
5.92476e-06
-4.28616e-07
6.30532e-06
-3.80562e-07
6.63785e-06
-3.32536e-07
6.92334e-06
-2.85486e-07
7.15917e-06
-2.35834e-07
7.34659e-06
-1.87414e-07
7.4841e-06
-1.37508e-07
7.56965e-06
-8.55555e-08
7.60962e-06
-3.99668e-08
7.59295e-06
1.66675e-08
7.52462e-06
6.83284e-08
7.40107e-06
1.23552e-07
7.20202e-06
1.99054e-07
6.95706e-06
2.44955e-07
6.61261e-06
3.44449e-07
6.1551e-06
4.57516e-07
5.64983e-06
5.05268e-07
4.94332e-06
7.0651e-07
4.0172e-06
9.26116e-07
3.16647e-06
8.50737e-07
2.5339e-06
6.32565e-07
2.07302e-06
4.60883e-07
1.76173e-06
3.1129e-07
1.66165e-06
1.00084e-07
1.83954e-06
-1.77898e-07
2.33301e-06
-4.93469e-07
3.09069e-06
-7.57675e-07
3.93943e-06
-8.48741e-07
4.69668e-06
-7.5725e-07
5.27545e-06
-5.78767e-07
5.69064e-06
-4.15198e-07
6.00541e-06
-3.14769e-07
6.22869e-06
-2.23277e-07
6.26172e-06
-3.30321e-08
5.97175e-06
2.89968e-07
5.45241e-06
5.19346e-07
4.8812e-06
5.71207e-07
4.33224e-06
5.4896e-07
3.73236e-06
5.99879e-07
3.00245e-06
7.29912e-07
2.17755e-06
8.24898e-07
1.35362e-06
8.23934e-07
5.95995e-07
7.57623e-07
-6.57924e-08
6.61788e-07
-5.56455e-07
4.90663e-07
-7.86481e-07
2.30026e-07
-7.52146e-07
-3.43351e-08
-1.05859e-06
3.06442e-07
-2.50363e-06
1.44504e-06
-5.29887e-06
2.79524e-06
-8.56618e-06
3.26731e-06
-1.07079e-05
2.14177e-06
-1.24322e-05
1.72428e-06
-1.36903e-05
1.25804e-06
-1.44844e-05
7.94124e-07
-1.50765e-05
5.92143e-07
-1.53731e-05
2.96542e-07
-1.55489e-05
1.75782e-07
-1.55734e-05
2.45508e-08
-1.5517e-05
-5.63856e-08
-1.54005e-05
-1.16507e-07
-1.52259e-05
-1.74599e-07
-1.50203e-05
-2.05618e-07
-1.47789e-05
-2.41401e-07
-1.4517e-05
-2.61902e-07
-1.4235e-05
-2.81956e-07
-1.39365e-05
-2.98531e-07
-1.36255e-05
-3.11058e-07
-1.33008e-05
-3.24627e-07
-1.29654e-05
-3.35408e-07
-1.26186e-05
-3.46815e-07
-1.22606e-05
-3.58052e-07
-1.18914e-05
-3.69179e-07
-1.15102e-05
-3.81189e-07
-1.11168e-05
-3.93346e-07
-1.07106e-05
-4.0627e-07
-1.02906e-05
-4.19959e-07
-9.85679e-06
-4.33818e-07
-9.40895e-06
-4.47838e-07
-8.947e-06
-4.6195e-07
-8.47113e-06
-4.75864e-07
-7.98185e-06
-4.89283e-07
-7.47998e-06
-5.01874e-07
-6.96677e-06
-5.13208e-07
-6.444e-06
-5.22774e-07
-5.91398e-06
-5.30012e-07
-5.37972e-06
-5.34261e-07
-4.84496e-06
-5.34763e-07
-4.31411e-06
-5.30852e-07
-3.79196e-06
-5.22149e-07
-3.28331e-06
-5.08646e-07
-2.79225e-06
-4.91062e-07
-2.32158e-06
-4.70672e-07
-1.87274e-06
-4.48841e-07
-1.44552e-06
-4.2722e-07
-1.03918e-06
-4.06338e-07
-6.50342e-07
-3.88837e-07
-2.78056e-07
-3.72286e-07
8.48707e-08
-3.62927e-07
4.42363e-07
-3.57493e-07
7.94918e-07
-3.52555e-07
1.14077e-06
-3.45851e-07
1.47427e-06
-3.33501e-07
1.78632e-06
-3.12049e-07
2.06579e-06
-2.79473e-07
2.30166e-06
-2.35864e-07
2.48595e-06
-1.84296e-07
2.61608e-06
-1.30125e-07
2.69529e-06
-7.92107e-08
2.73079e-06
-3.5499e-08
2.7306e-06
1.87129e-10
2.70625e-06
2.43481e-08
2.66708e-06
3.91745e-08
2.62167e-06
4.54047e-08
2.57636e-06
4.5315e-08
2.53553e-06
4.08315e-08
2.5022e-06
3.33299e-08
2.4783e-06
2.38997e-08
2.46494e-06
1.33587e-08
2.4628e-06
2.13851e-09
2.47215e-06
-9.34972e-09
2.49295e-06
-2.08018e-08
2.52461e-06
-3.16582e-08
2.56623e-06
-4.16261e-08
2.61678e-06
-5.05441e-08
2.6752e-06
-5.84202e-08
2.74055e-06
-6.53485e-08
2.8114e-06
-7.0856e-08
2.88428e-06
-7.28764e-08
2.95294e-06
-6.86591e-08
3.00978e-06
-5.68424e-08
3.04758e-06
-3.77944e-08
3.06352e-06
-1.59482e-08
3.0654e-06
-1.88067e-09
3.06965e-06
-4.24178e-09
3.09736e-06
-2.7712e-08
3.16919e-06
-7.18366e-08
3.28707e-06
-1.17877e-07
3.4332e-06
-1.46127e-07
3.59933e-06
-1.66128e-07
3.77254e-06
-1.73209e-07
3.90932e-06
-1.36782e-07
3.98863e-06
-7.93109e-08
4.02224e-06
-3.36097e-08
3.99011e-06
3.213e-08
3.90143e-06
8.86773e-08
3.87481e-06
2.66207e-08
3.96464e-06
-8.9834e-08
4.08383e-06
-1.19185e-07
4.33206e-06
-2.48227e-07
4.86905e-06
-5.36996e-07
5.34188e-06
-4.72831e-07
5.67341e-06
-3.31524e-07
6.39071e-06
-7.17301e-07
6.59646e-06
-2.05749e-07
5.11361e-06
1.48285e-06
3.24085e-06
1.87275e-06
2.3416e-06
8.9925e-07
2.26112e-06
8.04862e-08
2.35854e-06
-9.74204e-08
2.28157e-06
7.69641e-08
1.97559e-06
3.05978e-07
1.52037e-06
4.5523e-07
1.01374e-06
5.06623e-07
6.02668e-07
4.11074e-07
1.35194e-07
4.25565e-07
1.68441e-07
3.63677e-07
2.33212e-07
1.87229e-07
4.75904e-07
-2.26155e-07
9.25023e-07
-7.23509e-07
1.50735e-06
-1.09865e-06
2.12365e-06
-1.30362e-06
2.71496e-06
-1.35688e-06
3.26073e-06
-1.32653e-06
3.75896e-06
-1.25157e-06
4.21544e-06
-1.16014e-06
4.63889e-06
-1.06883e-06
5.03608e-06
-9.8372e-07
5.41049e-06
-9.05227e-07
5.763e-06
-8.30767e-07
6.09203e-06
-7.57647e-07
6.39503e-06
-6.83568e-07
6.6686e-06
-6.06103e-07
6.90842e-06
-5.25308e-07
7.11185e-06
-4.39267e-07
7.27502e-06
-3.50579e-07
7.39796e-06
-2.6045e-07
7.48187e-06
-1.69464e-07
7.52858e-06
-8.66756e-08
7.55087e-06
-5.62514e-09
7.54588e-06
7.33202e-08
7.52618e-06
1.43248e-07
7.49656e-06
2.28674e-07
7.44103e-06
3.00484e-07
7.38864e-06
3.96843e-07
7.31405e-06
5.32103e-07
7.17955e-06
6.39764e-07
7.08212e-06
8.0395e-07
7.00884e-06
9.99389e-07
6.7717e-06
1.08787e-06
6.30865e-06
1.09562e-06
5.7133e-06
1.05624e-06
5.12442e-06
9.00164e-07
4.59826e-06
6.26245e-07
4.16983e-06
2.50535e-07
3.96733e-06
-2.90968e-07
4.03564e-06
-8.25984e-07
4.25763e-06
-1.07074e-06
4.49121e-06
-9.90827e-07
4.6706e-06
-7.58163e-07
4.78819e-06
-5.32779e-07
4.83893e-06
-3.65511e-07
4.82562e-06
-2.09967e-07
4.76697e-06
2.56155e-08
4.72334e-06
3.33601e-07
4.58428e-06
6.58404e-07
4.27114e-06
8.84348e-07
3.80183e-06
1.01827e-06
3.26543e-06
1.13628e-06
2.7202e-06
1.27514e-06
2.14608e-06
1.39902e-06
1.50058e-06
1.46944e-06
7.79541e-07
1.47866e-06
3.56694e-08
1.40566e-06
-6.71325e-07
1.19766e-06
-1.3515e-06
9.10196e-07
-2.71326e-06
1.32743e-06
-5.46582e-06
3.05901e-06
-8.87261e-06
4.85183e-06
-1.09747e-05
4.89731e-06
-1.18512e-05
4.14385e-06
-1.28284e-05
3.11898e-06
-1.34682e-05
2.36402e-06
-1.3888e-05
1.67788e-06
-1.42177e-05
1.12383e-06
-1.43834e-05
7.57799e-07
-1.44964e-05
4.09545e-07
-1.45167e-05
1.96071e-07
-1.44843e-05
-7.79464e-09
-1.43947e-05
-1.45985e-07
-1.42529e-05
-2.58323e-07
-1.40764e-05
-3.51066e-07
-1.38666e-05
-4.15437e-07
-1.36333e-05
-4.74702e-07
-1.33795e-05
-5.15723e-07
-1.31089e-05
-5.52594e-07
-1.28242e-05
-5.83164e-07
-1.25266e-05
-6.08646e-07
-1.22176e-05
-6.33627e-07
-1.18974e-05
-6.5566e-07
-1.15663e-05
-6.77877e-07
-1.12243e-05
-7.00117e-07
-1.08708e-05
-7.22598e-07
-1.05056e-05
-7.46416e-07
-1.01278e-05
-7.7111e-07
-9.73711e-06
-7.97006e-07
-9.33291e-06
-8.24158e-07
-8.91471e-06
-8.52017e-07
-8.4823e-06
-8.80251e-07
-8.0357e-06
-9.08551e-07
-7.57509e-06
-9.36474e-07
-7.10089e-06
-9.6348e-07
-6.61386e-06
-9.88904e-07
-6.11518e-06
-1.01188e-06
-5.60658e-06
-1.03137e-06
-5.09039e-06
-1.0462e-06
-4.56969e-06
-1.05497e-06
-4.04846e-06
-1.05599e-06
-3.53165e-06
-1.04767e-06
-3.0248e-06
-1.029e-06
-2.53335e-06
-1.00009e-06
-2.0618e-06
-9.62616e-07
-1.61303e-06
-9.19442e-07
-1.18828e-06
-8.73592e-07
-7.86427e-07
-8.29071e-07
-4.06422e-07
-7.86343e-07
-4.40875e-08
-7.51172e-07
3.07452e-07
-7.23826e-07
6.50406e-07
-7.0588e-07
9.89525e-07
-6.96612e-07
1.32884e-06
-6.91873e-07
1.66934e-06
-6.86351e-07
2.00894e-06
-6.73102e-07
2.34183e-06
-6.44939e-07
2.65831e-06
-5.95948e-07
2.94503e-06
-5.22585e-07
3.18635e-06
-4.25618e-07
3.36842e-06
-3.12194e-07
3.48444e-06
-1.95227e-07
3.53848e-06
-8.95425e-08
3.54495e-06
-6.28113e-09
3.5183e-06
5.10032e-08
3.47278e-06
8.46926e-08
3.41865e-06
9.95283e-08
3.36351e-06
1.00461e-07
3.31267e-06
9.16682e-08
3.26973e-06
7.62737e-08
3.23708e-06
5.65435e-08
3.21625e-06
3.41973e-08
3.20784e-06
1.05488e-08
3.21076e-06
-1.22703e-08
3.2243e-06
-3.43505e-08
3.24749e-06
-5.48401e-08
3.27925e-06
-7.33877e-08
3.31869e-06
-8.99822e-08
3.36581e-06
-1.05548e-07
3.42169e-06
-1.21225e-07
3.4875e-06
-1.36663e-07
3.56299e-06
-1.48365e-07
3.64336e-06
-1.49036e-07
3.71742e-06
-1.309e-07
3.77124e-06
-9.16162e-08
3.79341e-06
-3.81179e-08
3.78363e-06
7.90433e-09
3.762e-06
1.7391e-08
3.76259e-06
-2.83031e-08
3.81112e-06
-1.20374e-07
3.91633e-06
-2.23087e-07
4.07034e-06
-3.00129e-07
4.25191e-06
-3.47699e-07
4.43812e-06
-3.5942e-07
4.60838e-06
-3.07043e-07
4.72148e-06
-1.92414e-07
4.73549e-06
-4.76133e-08
4.66748e-06
1.00135e-07
4.55668e-06
1.99483e-07
4.43243e-06
1.5087e-07
4.39294e-06
-5.03461e-08
4.54308e-06
-2.69329e-07
4.80773e-06
-5.1287e-07
5.16582e-06
-8.95087e-07
5.7868e-06
-1.09382e-06
6.40396e-06
-9.48676e-07
6.75056e-06
-1.0639e-06
7.33337e-06
-7.88562e-07
7.99182e-06
8.24398e-07
7.55631e-06
2.30826e-06
5.92163e-06
2.53393e-06
4.25721e-06
1.74491e-06
3.44212e-06
7.17668e-07
3.1684e-06
3.50685e-07
2.88102e-06
5.93357e-07
2.39652e-06
9.39728e-07
1.7285e-06
1.17465e-06
1.42616e-06
9.05009e-07
1.83738e-07
2.41827e-07
4.94664e-07
5.27509e-08
1.07903e-06
-3.97135e-07
1.77438e-06
-9.2151e-07
2.38703e-06
-1.33615e-06
2.85746e-06
-1.56908e-06
3.19203e-06
-1.6382e-06
3.43927e-06
-1.60412e-06
3.64122e-06
-1.52848e-06
3.83618e-06
-1.44653e-06
4.04986e-06
-1.37382e-06
4.29211e-06
-1.31109e-06
4.56056e-06
-1.25217e-06
4.84616e-06
-1.19083e-06
5.13776e-06
-1.12237e-06
5.42407e-06
-1.04396e-06
5.69537e-06
-9.54867e-07
5.94401e-06
-8.54748e-07
6.16298e-06
-7.44273e-07
6.34713e-06
-6.23423e-07
6.49083e-06
-4.9428e-07
6.58907e-06
-3.58687e-07
6.64048e-06
-2.20872e-07
6.64345e-06
-8.96463e-08
6.60677e-06
3.10584e-08
6.55153e-06
1.28556e-07
6.48664e-06
2.08142e-07
6.43384e-06
2.81467e-07
6.39902e-06
3.35312e-07
6.39245e-06
4.03409e-07
6.43081e-06
4.93747e-07
6.4995e-06
5.71075e-07
6.60673e-06
6.96719e-07
6.74024e-06
8.65878e-07
6.83e-06
9.98109e-07
6.82499e-06
1.10063e-06
6.7397e-06
1.14153e-06
6.56985e-06
1.07001e-06
6.27336e-06
9.22736e-07
5.91788e-06
6.0601e-07
5.54667e-06
8.02458e-08
5.15267e-06
-4.31989e-07
4.70785e-06
-6.2591e-07
4.30561e-06
-5.88593e-07
4.01078e-06
-4.6333e-07
3.80943e-06
-3.31425e-07
3.64802e-06
-2.04108e-07
3.49243e-06
-5.43694e-08
3.37112e-06
1.46919e-07
3.27744e-06
4.27285e-07
3.18989e-06
7.45959e-07
3.03803e-06
1.0362e-06
2.77753e-06
1.27877e-06
2.41893e-06
1.49488e-06
1.98993e-06
1.70413e-06
1.49189e-06
1.89706e-06
9.05236e-07
2.0561e-06
2.05707e-07
2.17819e-06
-6.27909e-07
2.23928e-06
-1.61129e-06
2.18103e-06
-3.20877e-06
2.50768e-06
-6.03385e-06
4.15251e-06
-9.03022e-06
6.05538e-06
-1.06281e-05
6.44969e-06
-1.12553e-05
5.52452e-06
-1.15238e-05
4.41232e-06
-1.18709e-05
3.46612e-06
-1.21398e-05
2.63297e-06
-1.24055e-05
1.94357e-06
-1.26409e-05
1.35921e-06
-1.27831e-05
9.00016e-07
-1.28774e-05
5.03789e-07
-1.289e-05
2.08714e-07
-1.28512e-05
-4.66273e-08
-1.27635e-05
-2.337e-07
-1.26341e-05
-3.87678e-07
-1.24737e-05
-5.11535e-07
-1.22852e-05
-6.03923e-07
-1.20769e-05
-6.82995e-07
-1.18505e-05
-7.42065e-07
-1.16099e-05
-7.93267e-07
-1.13564e-05
-8.36587e-07
-1.10913e-05
-8.73824e-07
-1.08157e-05
-9.09227e-07
-1.05296e-05
-9.41766e-07
-1.02334e-05
-9.74044e-07
-9.9268e-06
-1.0067e-06
-9.60913e-06
-1.04027e-06
-9.27971e-06
-1.07583e-06
-8.93741e-06
-1.11341e-06
-8.58128e-06
-1.15314e-06
-8.21064e-06
-1.1948e-06
-7.82489e-06
-1.23777e-06
-7.42366e-06
-1.28149e-06
-7.00682e-06
-1.32539e-06
-6.57446e-06
-1.36883e-06
-6.12688e-06
-1.41106e-06
-5.6646e-06
-1.45118e-06
-5.18852e-06
-1.48796e-06
-4.70002e-06
-1.51988e-06
-4.20097e-06
-1.54525e-06
-3.69385e-06
-1.56208e-06
-3.18209e-06
-1.56776e-06
-2.67051e-06
-1.55925e-06
-2.16571e-06
-1.5338e-06
-1.67554e-06
-1.49026e-06
-1.20774e-06
-1.43042e-06
-7.68457e-07
-1.35872e-06
-3.61058e-07
-1.28099e-06
1.38873e-08
-1.20402e-06
3.64917e-07
-1.13737e-06
6.90987e-07
-1.07724e-06
9.98565e-07
-1.0314e-06
1.29356e-06
-1.00088e-06
1.58142e-06
-9.84475e-07
1.86678e-06
-9.77232e-07
2.15176e-06
-9.71329e-07
2.43603e-06
-9.57375e-07
2.7178e-06
-9.26704e-07
2.99522e-06
-8.73372e-07
3.26669e-06
-7.94054e-07
3.52801e-06
-6.86939e-07
3.76844e-06
-5.52622e-07
3.9705e-06
-3.97282e-07
4.11633e-06
-2.35372e-07
4.19708e-06
-8.70354e-08
4.2185e-06
2.95841e-08
4.19524e-06
1.07949e-07
4.14469e-06
1.50082e-07
4.08157e-06
1.63576e-07
4.01647e-06
1.56769e-07
3.95616e-06
1.36588e-07
3.9046e-06
1.08102e-07
3.864e-06
7.48e-08
3.83544e-06
3.91092e-08
3.81978e-06
3.39008e-09
3.81662e-06
-3.1198e-08
3.82345e-06
-6.16637e-08
3.83676e-06
-8.66974e-08
3.8525e-06
-1.0573e-07
3.86762e-06
-1.20665e-07
3.88201e-06
-1.35614e-07
3.89923e-06
-1.53884e-07
3.92376e-06
-1.72895e-07
3.95597e-06
-1.81248e-07
3.9881e-06
-1.63025e-07
4.00482e-06
-1.08337e-07
3.99029e-06
-2.35951e-08
3.94125e-06
5.69529e-08
3.88222e-06
7.64206e-08
3.85929e-06
-5.37638e-09
3.9083e-06
-1.69387e-07
4.0332e-06
-3.47989e-07
4.21218e-06
-4.79101e-07
4.42276e-06
-5.58282e-07
4.64674e-06
-5.834e-07
4.8504e-06
-5.10705e-07
4.98523e-06
-3.27238e-07
5.0061e-06
-6.84901e-08
4.88829e-06
2.17943e-07
4.6812e-06
4.06577e-07
4.50744e-06
3.24628e-07
4.45119e-06
5.90179e-09
4.55939e-06
-3.77528e-07
4.86052e-06
-8.14001e-07
5.26791e-06
-1.30247e-06
5.78142e-06
-1.60732e-06
6.48947e-06
-1.65673e-06
7.06281e-06
-1.63725e-06
7.44963e-06
-1.17538e-06
8.19359e-06
8.04343e-08
8.90709e-06
1.59477e-06
8.56477e-06
2.87625e-06
7.02145e-06
3.28822e-06
5.27145e-06
2.46767e-06
4.19256e-06
1.42958e-06
3.63667e-06
1.14924e-06
3.07401e-06
1.50239e-06
2.26849e-06
1.98017e-06
2.41215e-06
1.2825e-06
3.46593e-08
2.07168e-07
6.73253e-07
-5.85842e-07
1.51505e-06
-1.23893e-06
2.18e-06
-1.58646e-06
2.57319e-06
-1.72935e-06
2.75285e-06
-1.74874e-06
2.83287e-06
-1.71822e-06
2.90852e-06
-1.67977e-06
3.03627e-06
-1.65622e-06
3.23664e-06
-1.6469e-06
3.50293e-06
-1.64012e-06
3.81434e-06
-1.62249e-06
4.1462e-06
-1.58403e-06
4.47785e-06
-1.52248e-06
4.79549e-06
-1.44001e-06
5.08955e-06
-1.33802e-06
5.35468e-06
-1.21999e-06
5.58789e-06
-1.08796e-06
5.78594e-06
-9.42324e-07
5.9455e-06
-7.82985e-07
6.06181e-06
-6.10589e-07
6.13054e-06
-4.27409e-07
6.15158e-06
-2.41911e-07
6.12684e-06
-6.49129e-08
6.05342e-06
1.04478e-07
5.94137e-06
2.40609e-07
5.80578e-06
3.43727e-07
5.67455e-06
4.12697e-07
5.5583e-06
4.51569e-07
5.4775e-06
4.84203e-07
5.4565e-06
5.14748e-07
5.47765e-06
5.49928e-07
5.56126e-06
6.13105e-07
5.71412e-06
7.1302e-07
5.86709e-06
8.45136e-07
6.00103e-06
9.66692e-07
6.10495e-06
1.03762e-06
6.06055e-06
1.11441e-06
5.87608e-06
1.1072e-06
5.69947e-06
7.82617e-07
5.52129e-06
2.5843e-07
5.18504e-06
-9.57367e-08
4.76784e-06
-2.08719e-07
4.40677e-06
-2.27521e-07
4.17402e-06
-2.30574e-07
4.04439e-06
-2.01795e-07
3.95276e-06
-1.12477e-07
3.8445e-06
5.38829e-08
3.68085e-06
3.10577e-07
3.47699e-06
6.31139e-07
3.23898e-06
9.83965e-07
2.94808e-06
1.32711e-06
2.58235e-06
1.6445e-06
2.13225e-06
1.94498e-06
1.60205e-06
2.23433e-06
9.89028e-07
2.51009e-06
2.70832e-07
2.77429e-06
-5.96368e-07
3.04539e-06
-1.62722e-06
3.27013e-06
-3.05315e-06
3.60696e-06
-5.40376e-06
4.8583e-06
-8.11298e-06
6.86173e-06
-9.8174e-06
7.7598e-06
-1.02789e-05
6.91122e-06
-1.04228e-05
5.66842e-06
-1.06726e-05
4.66203e-06
-1.08986e-05
3.69214e-06
-1.11162e-05
2.85056e-06
-1.13136e-05
2.14101e-06
-1.14716e-05
1.5172e-06
-1.15791e-05
1.00752e-06
-1.16426e-05
5.67258e-07
-1.16522e-05
2.18354e-07
-1.16236e-05
-7.52331e-08
-1.15557e-05
-3.01622e-07
-1.14567e-05
-4.86682e-07
-1.13304e-05
-6.37776e-07
-1.11804e-05
-7.54004e-07
-1.10125e-05
-8.50882e-07
-1.08272e-05
-9.2737e-07
-1.0628e-05
-9.92464e-07
-1.04154e-05
-1.04919e-06
-1.01902e-05
-1.099e-06
-9.95393e-06
-1.14549e-06
-9.7065e-06
-1.18919e-06
-9.44857e-06
-1.23197e-06
-9.18008e-06
-1.27519e-06
-8.90025e-06
-1.3201e-06
-8.60802e-06
-1.36807e-06
-8.30188e-06
-1.41955e-06
-7.98047e-06
-1.47454e-06
-7.6427e-06
-1.53257e-06
-7.2877e-06
-1.59276e-06
-6.91496e-06
-1.65423e-06
-6.52424e-06
-1.7161e-06
-6.11562e-06
-1.77745e-06
-5.68941e-06
-1.83727e-06
-5.24629e-06
-1.8943e-06
-4.78738e-06
-1.94687e-06
-4.31431e-06
-1.99295e-06
-3.82904e-06
-2.03052e-06
-3.33366e-06
-2.05746e-06
-2.83036e-06
-2.07106e-06
-2.32192e-06
-2.06768e-06
-1.81286e-06
-2.04285e-06
-1.31052e-06
-1.9926e-06
-8.24896e-07
-1.91604e-06
-3.6707e-07
-1.81655e-06
5.57125e-08
-1.70377e-06
4.42527e-07
-1.59083e-06
7.91887e-07
-1.48673e-06
1.11263e-06
-1.39799e-06
1.4128e-06
-1.33158e-06
1.70168e-06
-1.28975e-06
1.98729e-06
-1.27009e-06
2.27429e-06
-1.26424e-06
2.56231e-06
-1.25935e-06
2.84565e-06
-1.24071e-06
3.11474e-06