/*--------------------------------*- C++ -*----------------------------------*\
  =========                 |
  \\      /  F ield         | OpenFOAM: The Open Source CFD Toolbox
   \\    /   O peration     | Website:  https://openfoam.org
    \\  /    A nd           | Version:  9
     \\/     M anipulation  |
\*---------------------------------------------------------------------------*/
FoamFile
{
    format      ascii;
    class       surfaceScalarField;
    location    "0.071";
    object      phi_0;
}
// * * * * * * * * * * * * * * * * * * * * * * * * * * * * * * * * * * * * * //

dimensions      [0 3 -1 0 0 0 0];

internalField   nonuniform List<scalar> 
24170
(
3.09303e-06
6.64975e-08
2.99834e-06
9.469e-08
2.885e-06
1.13339e-07
2.77924e-06
1.05761e-07
2.69034e-06
8.88971e-08
2.61484e-06
7.55011e-08
2.54449e-06
7.03577e-08
2.4765e-06
6.79812e-08
2.41551e-06
6.09936e-08
2.37013e-06
4.53804e-08
2.33924e-06
3.08872e-08
2.31666e-06
2.25781e-08
2.29075e-06
2.59097e-08
2.26065e-06
3.01078e-08
2.23125e-06
2.93922e-08
2.21729e-06
1.39668e-08
2.25773e-06
-4.0437e-08
-8.40527e-08
2.34178e-06
3.45895e-06
7.0304e-08
3.4069e-06
1.46739e-07
3.39827e-06
1.21969e-07
3.41943e-06
8.46061e-08
3.43806e-06
7.02642e-08
3.44086e-06
7.27056e-08
3.43462e-06
7.65963e-08
3.43196e-06
7.0636e-08
3.43885e-06
5.41104e-08
3.45323e-06
3.1002e-08
3.46993e-06
1.41874e-08
3.48618e-06
6.32711e-09
3.50286e-06
9.22181e-09
3.52437e-06
8.60483e-09
3.55171e-06
2.04799e-09
3.59673e-06
-3.1054e-08
3.64561e-06
-8.93111e-08
-1.71272e-07
3.73283e-06
3.6436e-06
-5.10972e-08
3.65078e-06
1.39555e-07
3.66515e-06
1.07598e-07
3.70517e-06
4.45926e-08
3.74913e-06
2.6303e-08
3.77821e-06
4.36224e-08
3.78793e-06
6.68814e-08
3.78629e-06
7.22734e-08
3.78395e-06
5.64452e-08
3.7859e-06
2.90578e-08
3.79423e-06
5.85941e-09
3.80794e-06
-7.38502e-09
3.83027e-06
-1.31071e-08
3.85989e-06
-2.10181e-08
3.90189e-06
-3.99558e-08
3.94941e-06
-7.8568e-08
4.00288e-06
-1.42778e-07
-2.28475e-07
4.06008e-06
3.88928e-06
1.14275e-07
3.85706e-06
1.71771e-07
3.88648e-06
7.81795e-08
3.92721e-06
3.86052e-09
3.96688e-06
-1.33668e-08
3.99996e-06
1.0542e-08
4.02325e-06
4.35946e-08
4.03727e-06
5.82466e-08
4.04586e-06
4.78606e-08
4.05271e-06
2.22072e-08
4.06201e-06
-3.44578e-09
4.07723e-06
-2.25995e-08
4.10121e-06
-3.70879e-08
4.13495e-06
-5.47563e-08
4.17701e-06
-8.20136e-08
4.22363e-06
-1.25196e-07
4.26743e-06
-1.86572e-07
-2.63807e-07
4.30276e-06
4.12643e-06
1.1614e-07
4.19436e-06
1.03834e-07
4.24978e-06
2.27646e-08
4.2768e-06
-2.31614e-08
4.27319e-06
-9.75927e-09
4.2576e-06
2.61384e-08
4.24933e-06
5.186e-08
4.25512e-06
5.24594e-08
4.27345e-06
2.95282e-08
4.30013e-06
-4.4693e-09
4.33235e-06
-3.56652e-08
4.36797e-06
-5.82236e-08
4.40537e-06
-7.44831e-08
4.44213e-06
-9.15179e-08
4.47666e-06
-1.16546e-07
4.50653e-06
-1.55063e-07
4.52931e-06
-2.09359e-07
-2.7745e-07
4.54296e-06
4.44261e-06
-1.67402e-08
4.52115e-06
2.52905e-08
4.54397e-06
-4.77131e-11
4.55485e-06
-3.40409e-08
4.57044e-06
-2.53575e-08
4.58476e-06
1.18183e-08
4.59247e-06
4.4155e-08
4.5961e-06
4.88289e-08
4.60288e-06
2.27517e-08
4.61694e-06
-1.85294e-08
4.63811e-06
-5.68345e-08
4.66361e-06
-8.37286e-08
4.69041e-06
-1.01285e-07
4.71655e-06
-1.1766e-07
4.74123e-06
-1.41223e-07
4.76453e-06
-1.78358e-07
4.78541e-06
-2.30242e-07
-2.95576e-07
4.80354e-06
4.86699e-06
4.86453e-09
4.91032e-06
-1.8033e-08
4.91823e-06
-7.96206e-09
4.91975e-06
-3.55631e-08
4.92191e-06
-2.75158e-08
4.92417e-06
9.56221e-09
4.92915e-06
3.91744e-08
4.94165e-06
3.63269e-08
4.96245e-06
1.9529e-09
4.98695e-06
-4.30305e-08
5.01132e-06
-8.12082e-08
5.03493e-06
-1.07333e-07
5.05956e-06
-1.25914e-07
5.08673e-06
-1.44829e-07
5.11584e-06
-1.70333e-07
5.14431e-06
-2.06829e-07
5.16804e-06
-2.53979e-07
-3.11404e-07
5.18387e-06
5.25983e-06
-1.56916e-08
5.22182e-06
1.99679e-08
5.2388e-06
-2.49355e-08
5.25756e-06
-5.43265e-08
5.25813e-06
-2.80896e-08
5.25363e-06
1.40639e-08
5.2597e-06
3.3107e-08
5.27962e-06
1.64052e-08
5.30715e-06
-2.55755e-08
5.33526e-06
-7.1138e-08
5.36099e-06
-1.06936e-07
5.38579e-06
-1.3214e-07
5.41207e-06
-1.52187e-07
5.44025e-06
-1.73014e-07
5.46905e-06
-1.99135e-07
5.49478e-06
-2.32559e-07
5.51428e-06
-2.73481e-07
-3.20771e-07
5.52365e-06
5.64136e-06
-1.479e-07
5.63322e-06
2.8102e-08
5.63569e-06
-2.74024e-08
5.66355e-06
-8.21854e-08
5.6966e-06
-6.11389e-08
5.72094e-06
-1.02813e-08
5.73201e-06
2.20429e-08
5.73381e-06
1.46013e-08
5.73358e-06
-2.53417e-08
5.73662e-06
-7.41861e-08
5.74408e-06
-1.14391e-07
5.7542e-06
-1.42264e-07
5.76465e-06
-1.62634e-07
5.77423e-06
-1.82594e-07
5.78262e-06
-2.07527e-07
5.79007e-06
-2.40011e-07
5.79676e-06
-2.80166e-07
-3.2612e-07
5.80211e-06
5.99348e-06
-1.43419e-07
5.98808e-06
3.35011e-08
5.99351e-06
-3.28278e-08
6.00732e-06
-9.59973e-08
6.03061e-06
-8.44264e-08
6.05238e-06
-3.20567e-08
6.05895e-06
1.54805e-08
6.04823e-06
2.53185e-08
6.02934e-06
-6.4492e-09
6.01556e-06
-6.04104e-08
6.01759e-06
-1.16425e-07
6.03939e-06
-1.64063e-07
6.07757e-06
-2.00807e-07
6.12506e-06
-2.30091e-07
6.17335e-06
-2.55816e-07
6.21648e-06
-2.83137e-07
6.24949e-06
-3.13173e-07
-3.48667e-07
6.27203e-06
6.41051e-06
-5.21174e-08
6.4415e-06
2.5116e-09
6.4675e-06
-5.88258e-08
6.46085e-06
-8.93533e-08
6.45674e-06
-8.03084e-08
6.46884e-06
-4.41656e-08
6.49591e-06
-1.1582e-08
6.53263e-06
-1.14095e-08
6.5721e-06
-4.59136e-08
6.60934e-06
-9.76564e-08
6.64281e-06
-1.49895e-07
6.67339e-06
-1.94639e-07
6.70224e-06
-2.29657e-07
6.72879e-06
-2.56636e-07
6.75079e-06
-2.77824e-07
6.76583e-06
-2.98177e-07
6.77088e-06
-3.18219e-07
-3.42551e-07
6.76476e-06
5.85829e-06
5.81182e-08
5.82444e-06
3.63678e-08
5.81725e-06
-5.16348e-08
5.80787e-06
-7.99747e-08
5.78524e-06
-5.7681e-08
5.76411e-06
-2.30305e-08
5.7635e-06
-1.09774e-08
5.78483e-06
-3.27369e-08
5.81605e-06
-7.71303e-08
5.84561e-06
-1.27223e-07
5.87013e-06
-1.7441e-07
5.89199e-06
-2.16503e-07
5.9143e-06
-2.51962e-07
5.93738e-06
-2.79715e-07
5.95845e-06
-2.98901e-07
5.97281e-06
-3.12538e-07
5.97715e-06
-3.22554e-07
-3.34235e-07
5.96883e-06
7.18213e-06
1.68598e-07
7.08673e-06
1.31767e-07
7.05179e-06
-1.66878e-08
7.02957e-06
-5.77615e-08
6.99003e-06
-1.81361e-08
6.95452e-06
1.24772e-08
6.95391e-06
-1.03656e-08
6.99774e-06
-7.65699e-08
7.07019e-06
-1.4958e-07
7.14648e-06
-2.03513e-07
7.20656e-06
-2.34489e-07
7.24128e-06
-2.5122e-07
7.25126e-06
-2.61946e-07
7.24339e-06
-2.71842e-07
7.2259e-06
-2.81411e-07
7.20555e-06
-2.92191e-07
7.18601e-06
-3.03009e-07
-3.16521e-07
7.16829e-06
8.62509e-06
5.3675e-08
8.69191e-06
6.49483e-08
8.70611e-06
-3.0888e-08
8.69734e-06
-4.8986e-08
8.67924e-06
-4.49402e-11
8.66342e-06
2.83003e-08
8.66156e-06
-8.5059e-09
8.67907e-06
-9.40796e-08
8.71141e-06
-1.81914e-07
8.74711e-06
-2.39217e-07
8.77455e-06
-2.61928e-07
8.78759e-06
-2.64259e-07
8.78723e-06
-2.61587e-07
8.77946e-06
-2.64071e-07
8.7704e-06
-2.7235e-07
8.76302e-06
-2.84818e-07
8.75685e-06
-2.96837e-07
-3.06972e-07
8.7473e-06
1.03939e-05
1.44737e-07
1.04031e-05
5.57762e-08
1.04742e-05
-1.02026e-07
1.05535e-05
-1.2824e-07
1.06003e-05
-4.68036e-08
1.05939e-05
3.46957e-08
1.05443e-05
4.10691e-08
1.04795e-05
-2.92507e-08
1.0424e-05
-1.26499e-07
1.03936e-05
-2.08796e-07
1.03907e-05
-2.59004e-07
1.04077e-05
-2.81235e-07
1.0433e-05
-2.86945e-07
1.04557e-05
-2.86777e-07
1.04696e-05
-2.86195e-07
1.04722e-05
-2.87449e-07
1.04644e-05
-2.8902e-07
-2.9085e-07
1.04483e-05
1.28186e-05
-1.27349e-07
1.30421e-05
-1.67803e-07
1.30722e-05
-1.32092e-07
1.3012e-05
-6.80465e-08
1.29831e-05
-1.79417e-08
1.30095e-05
8.31899e-09
1.30531e-05
-2.51887e-09
1.3078e-05
-5.41054e-08
1.30798e-05
-1.28376e-07
1.30699e-05
-1.98823e-07
1.30589e-05
-2.48062e-07
1.30473e-05
-2.69657e-07
1.30288e-05
-2.68443e-07
1.29967e-05
-2.54652e-07
1.29482e-05
-2.37706e-07
1.28853e-05
-2.24546e-07
1.2812e-05
-2.15681e-07
-2.12828e-07
1.2734e-05
1.56172e-05
1.15032e-07
1.55309e-05
-8.15018e-08
1.5527e-05
-1.28223e-07
1.55761e-05
-1.1716e-07
1.56769e-05
-1.18703e-07
1.5818e-05
-1.32784e-07
1.59461e-05
-1.30631e-07
1.60094e-05
-1.17396e-07
1.59916e-05
-1.106e-07
1.59149e-05
-1.221e-07
1.58163e-05
-1.49451e-07
1.57273e-05
-1.80661e-07
1.56622e-05
-2.0334e-07
1.5619e-05
-2.11416e-07
1.5587e-05
-2.05707e-07
1.55544e-05
-1.91994e-07
1.55138e-05
-1.75092e-07
-1.61392e-07
1.54624e-05
1.88955e-05
2.4475e-07
1.87995e-05
1.44771e-08
1.87596e-05
-8.83951e-08
1.87797e-05
-1.37244e-07
1.88195e-05
-1.58511e-07
1.88636e-05
-1.768e-07
1.89195e-05
-1.86602e-07
1.89783e-05
-1.76217e-07
1.90157e-05
-1.47958e-07
1.90142e-05
-1.20592e-07
1.89733e-05
-1.08603e-07
1.89053e-05
-1.12621e-07
1.8826e-05
-1.24077e-07
1.87481e-05
-1.33425e-07
1.8679e-05
-1.36667e-07
1.86219e-05
-1.34829e-07
1.85782e-05
-1.31475e-07
-1.30853e-07
1.85477e-05
2.33124e-05
1.26134e-07
2.32458e-05
8.11706e-08
2.31261e-05
3.13017e-08
2.3026e-05
-3.71592e-08
2.29507e-05
-8.32896e-08
2.28995e-05
-1.25599e-07
2.28831e-05
-1.70174e-07
2.28974e-05
-1.90533e-07
2.29304e-05
-1.80957e-07
2.2964e-05
-1.54203e-07
2.29799e-05
-1.24449e-07
2.2967e-05
-9.9759e-08
2.29254e-05
-8.24117e-08
2.28634e-05
-7.14332e-08
2.27941e-05
-6.73646e-08
2.27293e-05
-7.00553e-08
2.2677e-05
-7.91927e-08
-9.39082e-08
2.26401e-05
1.69494e-05
-3.77278e-08
1.7053e-05
-2.24403e-08
1.71239e-05
-3.95995e-08
1.71429e-05
-5.62014e-08
1.71396e-05
-7.9927e-08
1.71202e-05
-1.06249e-07
1.70688e-05
-1.18754e-07
1.69961e-05
-1.17808e-07
1.69287e-05
-1.13616e-07
1.68881e-05
-1.1354e-07
1.68803e-05
-1.16702e-07
1.68963e-05
-1.15757e-07
1.69189e-05
-1.05047e-07
1.6932e-05
-8.44463e-08
1.69251e-05
-6.05097e-08
1.6896e-05
-4.0932e-08
1.68474e-05
-3.06027e-08
-3.30762e-08
1.67866e-05
1.49009e-05
4.51646e-08
1.48505e-05
2.80269e-08
1.48249e-05
-1.40151e-08
1.48327e-05
-6.40508e-08
1.48687e-05
-1.15882e-07
1.49103e-05
-1.47844e-07
1.49362e-05
-1.44638e-07
1.49359e-05
-1.17526e-07
1.49148e-05
-9.25146e-08
1.48862e-05
-8.49303e-08
1.48608e-05
-9.12993e-08
1.48438e-05
-9.88294e-08
1.48361e-05
-9.72604e-08
1.48347e-05
-8.30529e-08
1.48348e-05
-6.0637e-08
1.48319e-05
-3.80351e-08
1.48228e-05
-2.15372e-08
-1.68383e-08
1.48066e-05
1.2835e-05
-1.50877e-07
1.28928e-05
-2.97496e-08
1.28632e-05
1.55907e-08
1.28482e-05
-4.91008e-08
1.2868e-05
-1.35683e-07
1.29101e-05
-1.89919e-07
1.29516e-05
-1.86069e-07
1.298e-05
-1.45982e-07
1.29872e-05
-9.97414e-08
1.29704e-05
-6.81038e-08
1.29355e-05
-5.6373e-08
1.28943e-05
-5.76748e-08
1.28586e-05
-6.15509e-08
1.28367e-05
-6.11815e-08
1.28317e-05
-5.5622e-08
1.28416e-05
-4.79213e-08
1.28613e-05
-4.12073e-08
-3.78821e-08
1.28823e-05
1.1309e-05
-1.88e-07
1.13088e-05
-2.95637e-08
1.12733e-05
5.11323e-08
1.12137e-05
1.04869e-08
1.11316e-05
-5.35607e-08
1.10512e-05
-1.09557e-07
1.09981e-05
-1.32947e-07
1.09702e-05
-1.18121e-07
1.09607e-05
-9.02258e-08
1.0965e-05
-7.24298e-08
1.09803e-05
-7.16824e-08
1.10041e-05
-8.14677e-08
1.10342e-05
-9.15942e-08
1.10681e-05
-9.51476e-08
1.11027e-05
-9.01647e-08
1.11336e-05
-7.88545e-08
1.11564e-05
-6.39755e-08
-4.87003e-08
1.11672e-05
9.61586e-06
1.32998e-08
9.61562e-06
-2.93251e-08
9.68667e-06
-1.99168e-08
9.74156e-06
-4.44045e-08
9.76696e-06
-7.89565e-08
9.75851e-06
-1.01105e-07
9.73207e-06
-1.06507e-07
9.71175e-06
-9.7801e-08
9.70596e-06
-8.44405e-08
9.7099e-06
-7.63668e-08
9.71317e-06
-7.49549e-08
9.70644e-06
-7.47321e-08
9.68699e-06
-7.21498e-08
9.65971e-06
-6.78633e-08
9.63283e-06
-6.32896e-08
9.61287e-06
-5.88941e-08
9.60281e-06
-5.39148e-08
-4.68221e-08
9.60093e-06
8.42032e-06
-1.61048e-08
8.47761e-06
-8.6619e-08
8.47964e-06
-2.19405e-08
8.46757e-06
-3.234e-08
8.46517e-06
-7.65515e-08
8.48216e-06
-1.181e-07
8.51422e-06
-1.38561e-07
8.54668e-06
-1.3026e-07
8.56177e-06
-9.95376e-08
8.54568e-06
-6.02757e-08
8.49653e-06
-2.5799e-08
8.42669e-06
-4.89564e-09
8.3547e-06
-1.6185e-10
8.29719e-06
-1.03515e-08
8.26289e-06
-2.89935e-08
8.25213e-06
-4.81307e-08
8.26006e-06
-6.18475e-08
-6.54071e-08
8.27865e-06
7.41093e-06
7.77476e-08
7.26132e-06
6.29972e-08
7.27275e-06
-3.33732e-08
7.34959e-06
-1.09179e-07
7.40586e-06
-1.32827e-07
7.40257e-06
-1.14803e-07
7.35417e-06
-9.01607e-08
7.29976e-06
-7.58581e-08
7.26843e-06
-6.82064e-08
7.26872e-06
-6.05669e-08
7.29487e-06
-5.19409e-08
7.33601e-06
-4.60364e-08
7.38132e-06
-4.54792e-08
7.42154e-06
-5.05708e-08
7.4508e-06
-5.82478e-08
7.46751e-06
-6.48386e-08
7.47303e-06
-6.73675e-08
-6.35983e-08
7.47122e-06
6.52829e-06
-1.27574e-07
6.55788e-06
3.34077e-08
6.53521e-06
-1.07029e-08
6.49849e-06
-7.24562e-08
6.44674e-06
-8.10807e-08
6.39847e-06
-6.6526e-08
6.3673e-06
-5.89925e-08
6.354e-06
-6.25614e-08
6.35516e-06
-6.93693e-08
6.36971e-06
-7.51118e-08
6.39722e-06
-7.94559e-08
6.4332e-06
-8.20127e-08
6.46883e-06
-8.11056e-08
6.49386e-06
-7.56081e-08
6.50138e-06
-6.57653e-08
6.49035e-06
-5.38105e-08
6.46516e-06
-4.21688e-08
-3.28375e-08
6.43439e-06
5.58973e-06
-3.88152e-08
5.61591e-06
7.23082e-09
5.64178e-06
-3.65749e-08
5.64177e-06
-7.24432e-08
5.62415e-06
-6.346e-08
5.60986e-06
-5.22382e-08
5.6113e-06
-6.04296e-08
5.6261e-06
-7.73677e-08
5.64343e-06
-8.67013e-08
5.65316e-06
-8.48422e-08
5.65133e-06
-7.76213e-08
5.63992e-06
-7.06016e-08
5.62372e-06
-6.49119e-08
5.60724e-06
-5.91282e-08
5.59351e-06
-5.20324e-08
5.58398e-06
-4.42787e-08
5.57898e-06
-3.71665e-08
-3.24879e-08
5.57863e-06
4.91167e-06
-6.80708e-08
4.93355e-06
-1.46513e-08
4.96383e-06
-6.68525e-08
4.96106e-06
-6.96775e-08
4.95038e-06
-5.27733e-08
4.95159e-06
-5.34554e-08
4.95847e-06
-6.73074e-08
4.95678e-06
-7.56779e-08
4.94191e-06
-7.18295e-08
4.91953e-06
-6.24631e-08
4.89733e-06
-5.5424e-08
4.87941e-06
-5.26766e-08
4.86618e-06
-5.16881e-08
4.8562e-06
-4.91421e-08
4.84792e-06
-4.37503e-08
4.84026e-06
-3.66258e-08
4.8325e-06
-2.94062e-08
-2.47719e-08
4.82479e-06
4.05114e-06
4.03649e-06
3.96964e-06
3.89996e-06
3.84719e-06
3.79373e-06
3.72642e-06
3.65075e-06
3.57892e-06
3.51645e-06
3.46103e-06
3.40835e-06
3.35667e-06
3.30752e-06
3.26377e-06
3.22715e-06
3.19774e-06
3.17297e-06
-5.60598e-07
5.60598e-07
-9.57404e-07
3.96807e-07
-1.20953e-06
2.52123e-07
-1.22529e-06
1.57589e-08
-9.49476e-07
-2.7581e-07
-4.31492e-07
-5.17984e-07
2.57319e-07
-6.88811e-07
1.02417e-06
-7.66855e-07
1.80592e-06
-7.8175e-07
2.55999e-06
-7.54067e-07
3.26415e-06
-7.04161e-07
3.90983e-06
-6.45683e-07
4.49648e-06
-5.86646e-07
5.02725e-06
-5.30774e-07
5.50528e-06
-4.78026e-07
5.9335e-06
-4.28217e-07
6.31345e-06
-3.79952e-07
6.6452e-06
-3.31755e-07
6.92972e-06
-2.84511e-07
7.16437e-06
-2.34655e-07
7.35056e-06
-1.86189e-07
7.48659e-06
-1.36031e-07
7.57078e-06
-8.41865e-08
7.60932e-06
-3.8538e-08
7.59074e-06
1.85767e-08
7.52102e-06
6.97191e-08
7.39498e-06
1.26035e-07
7.19379e-06
2.01191e-07
6.94678e-06
2.47014e-07
6.59722e-06
3.49556e-07
6.13736e-06
4.59865e-07
5.62857e-06
5.0879e-07
4.91154e-06
7.17028e-07
3.98306e-06
9.28481e-07
3.14173e-06
8.4133e-07
2.51876e-06
6.22971e-07
2.06438e-06
4.54378e-07
1.7603e-06
3.04077e-07
1.67229e-06
8.80114e-08
1.86472e-06
-1.92429e-07
2.37443e-06
-5.09706e-07
3.14381e-06
-7.69386e-07
3.99508e-06
-8.51265e-07
4.74765e-06
-7.52573e-07
5.31995e-06
-5.72302e-07
5.73125e-06
-4.11301e-07
6.04469e-06
-3.1344e-07
6.26351e-06
-2.18815e-07
6.28737e-06
-2.38593e-08
5.98625e-06
3.01115e-07
5.46527e-06
5.20986e-07
4.89979e-06
5.65476e-07
4.35577e-06
5.4402e-07
3.75628e-06
5.9949e-07
3.02538e-06
7.309e-07
2.20132e-06
8.24059e-07
1.37876e-06
8.22562e-07
6.20627e-07
7.58133e-07
-4.38873e-08
6.64515e-07
-5.39741e-07
4.95854e-07
-7.77358e-07
2.37616e-07
-7.48913e-07
-2.8445e-08
-1.03743e-06
2.88515e-07
-2.45763e-06
1.4202e-06
-5.22763e-06
2.77e-06
-8.51584e-06
3.28821e-06
-1.06865e-05
2.17068e-06
-1.24179e-05
1.73141e-06
-1.36948e-05
1.27691e-06
-1.44946e-05
7.99755e-07
-1.50938e-05
5.99259e-07
-1.53942e-05
3.0034e-07
-1.55708e-05
1.76638e-07
-1.55967e-05
2.58555e-08
-1.55389e-05
-5.78155e-08
-1.54213e-05
-1.17606e-07
-1.52443e-05
-1.76914e-07
-1.50362e-05
-2.08115e-07
-1.47921e-05
-2.44127e-07
-1.45272e-05
-2.64944e-07
-1.42424e-05
-2.84796e-07
-1.39409e-05
-3.01459e-07
-1.36272e-05
-3.13736e-07
-1.33001e-05
-3.27115e-07
-1.29624e-05
-3.37683e-07
-1.26136e-05
-3.48797e-07
-1.22537e-05
-3.59824e-07
-1.1883e-05
-3.7071e-07
-1.15005e-05
-3.82529e-07
-1.1106e-05
-3.9453e-07
-1.06987e-05
-4.073e-07
-1.02778e-05
-4.2089e-07
-9.84311e-06
-4.34677e-07
-9.3945e-06
-4.48616e-07
-8.93186e-06
-4.62639e-07
-8.45541e-06
-4.76451e-07
-7.96566e-06
-4.89749e-07
-7.46346e-06
-5.02202e-07
-6.95007e-06
-5.13391e-07
-6.42725e-06
-5.2282e-07
-5.89731e-06
-5.29935e-07
-5.36322e-06
-5.34087e-07
-4.8287e-06
-5.34521e-07
-4.29814e-06
-5.30565e-07
-3.7763e-06
-5.21836e-07
-3.26798e-06
-5.0832e-07
-2.77725e-06
-4.90734e-07
-2.30689e-06
-4.70358e-07
-1.85832e-06
-4.48567e-07
-1.43131e-06
-4.27014e-07
-1.0251e-06
-4.06206e-07
-6.363e-07
-3.88801e-07
-2.63911e-07
-3.72389e-07
9.92053e-08
-3.63117e-07
4.56963e-07
-3.57758e-07
8.09795e-07
-3.52832e-07
1.15584e-06
-3.46049e-07
1.48937e-06
-3.33522e-07
1.80118e-06
-3.11814e-07
2.08012e-06
-2.78945e-07
2.3152e-06
-2.35073e-07
2.49854e-06
-1.83347e-07
2.62771e-06
-1.29162e-07
2.70606e-06
-7.83575e-08
2.74088e-06
-3.48136e-08
2.7403e-06
5.78401e-10
2.71573e-06
2.45729e-08
2.67653e-06
3.91962e-08
2.63125e-06
4.52779e-08
2.58616e-06
4.50887e-08
2.54562e-06
4.05407e-08
2.51262e-06
3.30016e-08
2.48907e-06
2.35544e-08
2.47606e-06
1.30099e-08
2.47427e-06
1.78578e-09
2.48396e-06
-9.68505e-09
2.50507e-06
-2.11187e-08
2.53702e-06
-3.19447e-08
2.5789e-06
-4.18775e-08
2.62966e-06
-5.07598e-08
2.68826e-06
-5.86037e-08
2.75376e-06
-6.54977e-08
2.8247e-06
-7.0937e-08
2.89752e-06
-7.28226e-08
2.96592e-06
-6.8403e-08
3.02229e-06
-5.63685e-08
3.05947e-06
-3.71777e-08
3.07487e-06
-1.54023e-08
3.07657e-06
-1.70265e-09
3.08119e-06
-4.61608e-09
3.10982e-06
-2.86308e-08
3.18282e-06
-7.2998e-08
3.30153e-06
-1.18709e-07
3.44794e-06
-1.46418e-07
3.61392e-06
-1.65977e-07
3.78614e-06
-1.72224e-07
3.92092e-06
-1.3477e-07
3.99808e-06
-7.71602e-08
4.02981e-06
-3.17351e-08
3.99616e-06
3.36501e-08
3.90809e-06
8.80713e-08
3.88534e-06
2.27482e-08
3.9799e-06
-9.45557e-08
4.1043e-06
-1.24403e-07
4.36163e-06
-2.57327e-07
4.90615e-06
-5.44518e-07
5.37833e-06
-4.72183e-07
5.71511e-06
-3.36782e-07
6.43512e-06
-7.20006e-07
6.61094e-06
-1.75826e-07
5.09772e-06
1.51323e-06
3.2305e-06
1.86721e-06
2.3495e-06
8.81e-07
2.27637e-06
7.31344e-08
2.37214e-06
-9.57664e-08
2.28998e-06
8.21564e-08
1.97792e-06
3.1206e-07
1.51663e-06
4.61288e-07
1.00425e-06
5.12379e-07
6.06971e-07
3.97281e-07
1.3555e-07
4.25047e-07
1.68869e-07
3.63488e-07
2.34012e-07
1.8698e-07
4.77599e-07
-2.27829e-07
9.2793e-07
-7.26141e-07
1.51145e-06
-1.10151e-06
2.12881e-06
-1.30616e-06
2.72086e-06
-1.35891e-06
3.26727e-06
-1.32816e-06
3.76601e-06
-1.25281e-06
4.22291e-06
-1.16106e-06
4.6467e-06
-1.06947e-06
5.04413e-06
-9.84073e-07
5.41864e-06
-9.05282e-07
5.77109e-06
-8.30486e-07
6.0999e-06
-7.57017e-07
6.40249e-06
-6.82546e-07
6.67542e-06
-6.04684e-07
6.9144e-06
-5.23494e-07
7.11682e-06
-4.37069e-07
7.27881e-06
-3.48183e-07
7.40064e-06
-2.57866e-07
7.48346e-06
-1.67003e-07
7.52936e-06
-8.44373e-08
7.55121e-06
-3.27036e-09
7.54575e-06
7.5171e-08
7.5262e-06
1.45588e-07
7.4961e-06
2.31298e-07
7.44016e-06
3.0295e-07
7.38809e-06
4.01622e-07
7.31108e-06
5.36879e-07
7.1755e-06
6.44372e-07
7.08028e-06
8.12248e-07
7.00386e-06
1.0049e-06
6.75673e-06
1.08846e-06
6.285e-06
1.09471e-06
5.68726e-06
1.05211e-06
5.10209e-06
8.89246e-07
4.57993e-06
6.10174e-07
4.15947e-06
2.28034e-07
3.97248e-06
-3.22723e-07
4.05458e-06
-8.51482e-07
4.2829e-06
-1.07959e-06
4.5172e-06
-9.86879e-07
4.69571e-06
-7.50811e-07
4.81203e-06
-5.27616e-07
4.86105e-06
-3.62464e-07
4.84744e-06
-2.05205e-07
4.79053e-06
3.3055e-08
4.74788e-06
3.43762e-07
4.60472e-06
6.64141e-07
4.28641e-06
8.83785e-07
3.81564e-06
1.0148e-06
3.28215e-06
1.13298e-06
2.74087e-06
1.27217e-06
2.1692e-06
1.39574e-06
1.52478e-06
1.46698e-06
8.04104e-07
1.47881e-06
5.89386e-08
1.40968e-06
-6.5176e-07
1.20655e-06
-1.33074e-06
9.16596e-07
-2.66826e-06
1.30908e-06
-5.39778e-06
3.01803e-06
-8.81733e-06
4.83975e-06
-1.09687e-05
4.92134e-06
-1.18552e-05
4.17479e-06
-1.28334e-05
3.14881e-06
-1.3485e-05
2.383e-06
-1.39052e-05
1.69716e-06
-1.42389e-05
1.13347e-06
-1.44058e-05
7.66075e-07
-1.4519e-05
4.13549e-07
-1.45397e-05
1.97328e-07
-1.4506e-05
-7.84273e-09
-1.44152e-05
-1.48598e-07
-1.42713e-05
-2.61492e-07
-1.40924e-05
-3.55805e-07
-1.38798e-05
-4.20671e-07
-1.36435e-05
-4.80438e-07
-1.33867e-05
-5.21773e-07
-1.3113e-05
-5.58456e-07
-1.28255e-05
-5.88957e-07
-1.25253e-05
-6.14005e-07
-1.22138e-05
-6.38554e-07
-1.18914e-05
-6.60107e-07
-1.15584e-05
-6.81768e-07
-1.12147e-05
-7.03534e-07
-1.08599e-05
-7.25548e-07
-1.04934e-05
-7.48971e-07
-1.01146e-05
-7.73353e-07
-9.72294e-06
-7.98982e-07
-9.31789e-06
-8.25936e-07
-8.89893e-06
-8.53644e-07
-8.46581e-06
-8.81729e-07
-8.01859e-06
-9.09859e-07
-7.55747e-06
-9.37574e-07
-7.08289e-06
-9.64327e-07
-6.59564e-06
-9.8946e-07
-6.09689e-06
-1.01213e-06
-5.58839e-06
-1.03133e-06
-5.07243e-06
-1.04589e-06
-4.55206e-06
-1.05445e-06
-4.03125e-06
-1.05533e-06
-3.5149e-06
-1.04692e-06
-3.00854e-06
-1.02819e-06
-2.5176e-06
-9.99266e-07
-2.04654e-06
-9.61793e-07
-1.59824e-06
-9.18659e-07
-1.17391e-06
-8.72899e-07
-7.72366e-07
-8.28554e-07
-3.92592e-07
-7.8598e-07
-3.03276e-08
-7.51066e-07
3.21229e-07
-7.23946e-07
6.64376e-07
-7.06263e-07
1.00382e-06
-6.97202e-07
1.34355e-06
-6.92559e-07
1.68447e-06
-6.86973e-07
2.02442e-06
-6.73474e-07
2.35749e-06
-6.44876e-07
2.67383e-06
-5.95289e-07
2.96e-06
-5.21245e-07
3.20032e-06
-4.23664e-07
3.38104e-06
-3.09887e-07
3.49565e-06
-1.92962e-07
3.54853e-06
-8.76972e-08
3.55418e-06
-5.06493e-09
3.52712e-06
5.16274e-08
3.48149e-06
8.48252e-08
3.42747e-06
9.93001e-08
3.37257e-06
9.99912e-08
3.32206e-06
9.10448e-08
3.2795e-06
7.55607e-08
3.24727e-06
5.57869e-08
3.22685e-06
3.3434e-08
3.21884e-06
9.79765e-09
3.22209e-06
-1.29352e-08
3.23594e-06
-3.49713e-08
3.25939e-06
-5.53929e-08
3.29138e-06
-7.38667e-08
3.33102e-06
-9.04019e-08
3.37835e-06
-1.05938e-07
3.43445e-06
-1.216e-07
3.50049e-06
-1.36972e-07
3.57612e-06
-1.48456e-07
3.65641e-06
-1.48689e-07
3.73001e-06
-1.29972e-07
3.78303e-06
-9.01939e-08
3.80426e-06
-3.66382e-08
3.7939e-06
8.65767e-09
3.77252e-06
1.67649e-08
3.77421e-06
-3.03194e-08
3.82424e-06
-1.23026e-07
3.93073e-06
-2.25195e-07
4.08541e-06
-3.01106e-07
4.26689e-06
-3.47456e-07
4.4522e-06
-3.57529e-07
4.62057e-06
-3.03145e-07
4.73063e-06
-1.8722e-07
4.74138e-06
-4.24882e-08
4.67147e-06
1.03567e-07
4.56073e-06
1.9881e-07
4.43924e-06
1.44235e-07
4.40602e-06
-6.13338e-08
4.56398e-06
-2.82362e-07
4.83524e-06
-5.28594e-07
5.20198e-06
-9.11249e-07
5.83072e-06
-1.10093e-06
6.44488e-06
-9.50947e-07
6.79093e-06
-1.06605e-06
7.37975e-06
-7.64649e-07
8.02463e-06
8.68353e-07
7.55537e-06
2.33646e-06
5.90179e-06
2.53458e-06
4.24709e-06
1.72783e-06
3.44679e-06
7.04537e-07
3.1754e-06
3.5354e-07
2.8824e-06
6.05064e-07
2.39084e-06
9.52846e-07
1.71632e-06
1.1869e-06
1.43476e-06
8.88533e-07
1.84439e-07
2.40608e-07
4.96389e-07
5.1538e-08
1.0822e-06
-3.98832e-07
1.77853e-06
-9.2416e-07
2.39172e-06
-1.33933e-06
2.86232e-06
-1.57211e-06
3.19696e-06
-1.6408e-06
3.44434e-06
-1.60629e-06
3.64648e-06
-1.5303e-06
3.84172e-06
-1.44805e-06
4.05572e-06
-1.37506e-06
4.29824e-06
-1.31199e-06
4.56687e-06
-1.2527e-06
4.85253e-06
-1.19094e-06
5.14405e-06
-1.12201e-06
5.43014e-06
-1.04311e-06
5.70106e-06
-9.5347e-07
5.94914e-06
-8.52755e-07
6.16729e-06
-7.41649e-07
6.35038e-06
-6.20163e-07
6.49271e-06
-4.90504e-07
6.58939e-06
-3.5455e-07
6.63918e-06
-2.16789e-07
6.64059e-06
-8.58491e-08
6.60344e-06
3.38813e-08
6.54809e-06
1.30517e-07
6.48392e-06
2.09756e-07
6.43248e-06
2.82739e-07
6.39897e-06
3.36464e-07
6.39437e-06
4.06218e-07
6.43449e-06
4.96756e-07
6.50422e-06
5.7465e-07
6.61306e-06
7.03404e-07
6.74579e-06
8.72167e-07
6.8317e-06
1.00255e-06
6.82227e-06
1.10414e-06
6.73428e-06
1.1401e-06
6.55934e-06
1.06418e-06
6.25718e-06
9.12338e-07
5.90268e-06
5.82539e-07
5.53286e-06
4.70948e-08
5.13724e-06
-4.55865e-07
4.69353e-06
-6.35873e-07
4.29767e-06
-5.91023e-07
4.01096e-06
-4.64095e-07
3.81617e-06
-3.32823e-07
3.65942e-06
-2.0572e-07
3.50847e-06
-5.42555e-08
3.39162e-06
1.49908e-07
3.30331e-06
4.3207e-07
3.21833e-06
7.49125e-07
3.06593e-06
1.03619e-06
2.80406e-06
1.27667e-06
2.44481e-06
1.49224e-06
2.01559e-06
1.70138e-06
1.51699e-06
1.89434e-06
9.29721e-07
2.05425e-06
2.29839e-07
2.17869e-06
-6.04229e-07
2.24375e-06
-1.58525e-06
2.18758e-06
-3.16453e-06
2.49587e-06
-5.97302e-06
4.11757e-06
-8.99587e-06
6.04088e-06
-1.06285e-05
6.47236e-06
-1.12718e-05
5.56461e-06
-1.15424e-05
4.44539e-06
-1.18882e-05
3.49461e-06
-1.21598e-05
2.65466e-06
-1.24237e-05
1.96105e-06
-1.26608e-05
1.37057e-06
-1.28028e-05
9.08091e-07
-1.28969e-05
5.07612e-07
-1.2909e-05
2.09449e-07
-1.28686e-05
-4.82655e-08
-1.27792e-05
-2.37962e-07
-1.26475e-05
-3.93255e-07
-1.24843e-05
-5.18929e-07
-1.22928e-05
-6.12167e-07
-1.20814e-05
-6.91921e-07
-1.18518e-05
-7.51311e-07
-1.1608e-05
-8.02296e-07
-1.13516e-05
-8.45343e-07
-1.10837e-05
-8.81941e-07
-1.08056e-05
-9.16625e-07
-1.05173e-05
-9.48383e-07
-1.02193e-05
-9.79816e-07
-9.91109e-06
-1.0117e-06
-9.59209e-06
-1.04455e-06
-9.26157e-06
-1.07949e-06
-8.91834e-06
-1.11658e-06
-8.5614e-06
-1.15592e-06
-8.19003e-06
-1.19731e-06
-7.80361e-06
-1.24007e-06
-7.40175e-06
-1.28359e-06
-6.98436e-06
-1.32725e-06
-6.55157e-06
-1.37037e-06
-6.10368e-06
-1.41221e-06
-5.64128e-06
-1.45186e-06
-5.16528e-06
-1.48814e-06
-4.67704e-06
-1.51956e-06
-4.17843e-06
-1.54451e-06
-3.67187e-06
-1.561e-06
-3.16077e-06
-1.56644e-06
-2.64991e-06
-1.55777e-06
-2.14588e-06
-1.53223e-06
-1.65653e-06
-1.48862e-06
-1.18957e-06
-1.42875e-06
-7.51132e-07
-1.35709e-06
-3.44569e-07
-1.27946e-06
2.96249e-08
-1.20275e-06
3.80095e-07
-1.13645e-06
7.05714e-07
-1.07668e-06
1.01302e-06
-1.03125e-06
1.30789e-06
-1.00114e-06
1.59576e-06
-9.85076e-07
1.88122e-06
-9.78018e-07
2.16634e-06
-9.72092e-07
2.45077e-06
-9.57903e-07
2.73272e-06
-9.26823e-07
3.01038e-06
-8.72951e-07
3.2821e-06
-7.92966e-07
3.5435e-06
-6.85061e-07
3.78355e-06
-5.49938e-07
3.98461e-06
-3.94028e-07
4.12898e-06
-2.32062e-07
4.20817e-06
-8.4262e-08
4.22837e-06
3.14312e-08
4.20436e-06
1.08835e-07
4.1535e-06
1.5016e-07
4.09041e-06
1.63086e-07
4.02553e-06
1.55922e-07
3.96555e-06
1.35541e-07
3.91438e-06
1.0696e-07
3.87418e-06
7.36323e-08
3.84601e-06
3.79636e-08
3.83076e-06
2.31274e-09
3.82795e-06
-3.21575e-08
3.83503e-06
-6.24733e-08
3.84849e-06
-8.7321e-08
3.86427e-06
-1.06184e-07
3.87936e-06
-1.21027e-07
3.89375e-06
-1.3599e-07
3.91106e-06
-1.54289e-07
3.93574e-06
-1.73131e-07
3.96797e-06
-1.80922e-07
3.99977e-06
-1.61768e-07
4.01571e-06
-1.06135e-07
4.00017e-06
-2.10985e-08
3.95048e-06
5.83462e-08
3.89197e-06
7.52803e-08
3.87061e-06
-8.96758e-09
3.92172e-06
-1.74136e-07
4.04819e-06
-3.51657e-07
4.22792e-06
-4.80836e-07
4.43857e-06
-5.58114e-07
4.66173e-06
-5.80689e-07
4.86323e-06
-5.04637e-07
4.99456e-06
-3.18559e-07
5.01121e-06
-5.913e-08
4.88986e-06
2.24916e-07
4.68261e-06
4.06061e-07
4.51291e-06
3.13934e-07
4.46307e-06
-1.14917e-08
4.57961e-06
-3.98906e-07
4.88923e-06
-8.38216e-07
5.30346e-06
-1.32548e-06
5.82484e-06
-1.62231e-06
6.537e-06
-1.66311e-06
7.10416e-06
-1.63321e-06
7.49128e-06
-1.15177e-06
8.24092e-06
1.18711e-07
8.93845e-06
1.63894e-06
8.56298e-06
2.91005e-06
6.99864e-06
3.29217e-06
5.25429e-06
2.44889e-06
4.18909e-06
1.41874e-06
3.63605e-06
1.15811e-06
3.0669e-06
1.52199e-06
2.25355e-06
2.00025e-06
2.42513e-06
1.26318e-06
3.57655e-08
2.04843e-07
6.76287e-07
-5.88984e-07
1.51949e-06
-1.24204e-06
2.18477e-06
-1.58944e-06
2.57759e-06
-1.73215e-06
2.75682e-06
-1.75134e-06
2.83659e-06
-1.72057e-06
2.91223e-06
-1.68192e-06
3.04008e-06
-1.65815e-06
3.24058e-06
-1.64856e-06
3.50697e-06
-1.64145e-06
3.8184e-06
-1.62342e-06
4.15023e-06
-1.58453e-06
4.48185e-06
-1.52256e-06
4.79947e-06
-1.43964e-06
5.09353e-06
-1.33716e-06
5.35862e-06
-1.21856e-06
5.59168e-06
-1.08581e-06
5.78931e-06
-9.39285e-07
5.94811e-06
-7.78956e-07
6.0632e-06
-6.05596e-07
6.13036e-06
-4.21714e-07
6.14966e-06
-2.36083e-07
6.12352e-06
-5.97104e-08
6.04829e-06
1.09107e-07
5.9352e-06
2.43611e-07
5.79957e-06
3.4538e-07
5.66931e-06
4.13007e-07
5.55433e-06
4.51442e-07
5.47602e-06
4.84522e-07
5.45739e-06
5.15395e-07
5.48039e-06
5.51647e-07
5.56719e-06
6.16605e-07
5.72119e-06
7.18167e-07
5.87244e-06
8.51296e-07
6.00567e-06
9.70916e-07
6.10525e-06
1.04052e-06
6.05168e-06
1.11775e-06
5.86492e-06
1.0991e-06
5.69189e-06
7.55573e-07
5.51054e-06
2.28436e-07
5.16784e-06
-1.1316e-07
4.75103e-06
-2.19064e-07
4.39736e-06
-2.37351e-07
4.174e-06
-2.40743e-07
4.05185e-06
-2.1067e-07
3.96504e-06
-1.18909e-07
3.86077e-06
5.00112e-08
3.70112e-06
3.0956e-07
3.50151e-06
6.31685e-07
3.26645e-06
9.84179e-07
2.97657e-06
1.32607e-06
2.61044e-06
1.6428e-06
2.15924e-06
1.94343e-06
1.62753e-06
2.23309e-06
1.01271e-06
2.50916e-06
2.92834e-07
2.77413e-06
-5.75258e-07
3.04678e-06
-1.60485e-06
3.27334e-06
-3.0202e-06
3.60293e-06
-5.35833e-06
4.834e-06
-8.08238e-06
6.84162e-06
-9.81885e-06
7.77735e-06
-1.03005e-05
6.95401e-06
-1.04422e-05
5.70635e-06
-1.06908e-05
4.69401e-06
-1.09165e-05
3.72021e-06
-1.11335e-05
2.87172e-06
-1.13299e-05
2.15749e-06
-1.14876e-05
1.52824e-06
-1.1594e-05
1.01444e-06
-1.16564e-05
5.70024e-07
-1.16645e-05
2.17588e-07
-1.1634e-05
-7.8768e-08
-1.1564e-05
-3.07994e-07
-1.14624e-05
-4.94887e-07
-1.13333e-05
-6.47951e-07
-1.11801e-05
-7.65405e-07
-1.1009e-05
-8.63053e-07
-1.08204e-05
-9.39857e-07
-1.06181e-05
-1.00465e-06
-1.04026e-05
-1.06083e-06
-1.01747e-05
-1.10977e-06
-9.93616e-06
-1.15521e-06
-9.68675e-06
-1.19779e-06
-9.42715e-06
-1.23941e-06
-9.15733e-06
-1.28153e-06
-8.87645e-06
-1.32543e-06
-8.5834e-06
-1.37254e-06
-8.27663e-06
-1.42335e-06
-7.95468e-06
-1.47787e-06
-7.61641e-06
-1.53558e-06
-7.26091e-06
-1.59556e-06
-6.88768e-06
-1.65682e-06
-6.4965e-06
-1.71843e-06
-6.0875e-06
-1.77937e-06
-5.66108e-06
-1.83863e-06
-5.21795e-06
-1.89499e-06
-4.75927e-06
-1.94682e-06
-4.28664e-06
-1.99219e-06
-3.80199e-06
-2.02916e-06
-3.30736e-06
-2.05563e-06
-2.80486e-06
-2.06894e-06
-2.29725e-06
-2.06538e-06
-1.78904e-06
-2.04044e-06
-1.28757e-06
-1.99009e-06
-8.02905e-07
-1.91342e-06
-3.46104e-07
-1.81389e-06
7.56784e-08
-1.70124e-06
4.61526e-07
-1.5886e-06
8.10055e-07
-1.48498e-06
1.13021e-06
-1.39684e-06
1.43005e-06
-1.33109e-06
1.71883e-06
-1.28992e-06
2.0045e-06
-1.27075e-06
2.29157e-06
-1.26509e-06
2.57949e-06
-1.26001e-06
2.86243e-06
-1.24084e-06
3.13079e-06
-1.19519e-06