/*--------------------------------*- C++ -*----------------------------------*\
  =========                 |
  \\      /  F ield         | OpenFOAM: The Open Source CFD Toolbox
   \\    /   O peration     | Website:  https://openfoam.org
    \\  /    A nd           | Version:  9
     \\/     M anipulation  |
\*---------------------------------------------------------------------------*/
FoamFile
{
    format      ascii;
    class       volVectorField;
    location    "0.071";
    object      U_0;
}
// * * * * * * * * * * * * * * * * * * * * * * * * * * * * * * * * * * * * * //

dimensions      [0 1 -1 0 0 0 0];

internalField   nonuniform List<vector> 
12225
(
(9.74661 0.0451666 0)
(9.58146 0.0739782 0)
(9.24214 0.0903938 0)
(8.87502 0.0826596 0)
(8.56835 0.0644955 0)
(8.31637 0.050605 0)
(8.0913 0.0487365 0)
(7.87266 0.0528157 0)
(7.6674 0.0506261 0)
(7.49377 0.0388137 0)
(7.38639 0.0261606 0)
(7.29719 0.024947 0)
(7.24928 0.031938 0)
(7.12358 0.0482977 0)
(7.08466 0.0404346 0)
(6.90689 0.0494151 0)
(7.07957 -0.0494134 0)
(6.95201 0.00916227 0)
(10.157 0.0452572 0)
(10.0157 0.0454831 0)
(9.92805 0.0642998 0)
(9.96745 0.0692081 0)
(10.0465 0.0671987 0)
(10.0785 0.0646887 0)
(10.0614 0.0633647 0)
(10.0395 0.0614388 0)
(10.0476 0.0573739 0)
(10.0829 0.0456844 0)
(10.1354 0.0341036 0)
(10.1801 0.0217357 0)
(10.2319 0.0215284 0)
(10.2743 0.0159309 0)
(10.358 0.0196786 0)
(10.4371 -0.014665 0)
(10.6 -0.0521269 0)
(10.7324 -0.17728 0)
(9.89156 -0.0129893 0)
(9.96085 0.139889 0)
(9.96655 0.103764 0)
(10.0491 0.049172 0)
(10.1829 0.035947 0)
(10.2921 0.0498376 0)
(10.3405 0.0633733 0)
(10.3434 0.059561 0)
(10.3343 0.0382528 0)
(10.3333 0.0101349 0)
(10.3479 -0.00914891 0)
(10.3768 -0.0120886 0)
(10.4245 -0.00559408 0)
(10.494 0.00102342 0)
(10.5909 -0.0138831 0)
(10.7119 -0.053332 0)
(10.8488 -0.144728 0)
(10.9876 -0.268519 0)
(9.93374 -0.0153181 0)
(9.80657 0.0642164 0)
(9.85566 0.0463914 0)
(9.94845 0.0170426 0)
(10.058 0.00258704 0)
(10.1553 0.0138592 0)
(10.2258 0.0398597 0)
(10.2717 0.0597565 0)
(10.2997 0.0613492 0)
(10.318 0.0449892 0)
(10.3363 0.0219847 0)
(10.3653 -0.00135089 0)
(10.4132 -0.0209628 0)
(10.4858 -0.0455543 0)
(10.5824 -0.0787194 0)
(10.6967 -0.132224 0)
(10.8125 -0.211825 0)
(10.9123 -0.321307 0)
(9.70986 0.120773 0)
(9.88071 0.140445 0)
(10.0464 0.0505997 0)
(10.1519 -0.0136949 0)
(10.1768 -0.0247397 0)
(10.1413 0.00380943 0)
(10.1023 0.0339588 0)
(10.0985 0.0402257 0)
(10.1309 0.0216189 0)
(10.1871 -0.00685858 0)
(10.2585 -0.0307198 0)
(10.3401 -0.0451118 0)
(10.4275 -0.0557794 0)
(10.5159 -0.0720514 0)
(10.6006 -0.103003 0)
(10.6767 -0.156846 0)
(10.7379 -0.236361 0)
(10.7809 -0.341489 0)
(9.73541 -0.00865846 0)
(9.97361 0.00759851 0)
(10.0566 -0.0134493 0)
(10.0835 -0.0141461 0)
(10.1178 0.0123586 0)
(10.1576 0.035755 0)
(10.1808 0.0468133 0)
(10.1896 0.0451248 0)
(10.1983 0.0285385 0)
(10.2206 -0.00128593 0)
(10.2606 -0.0369251 0)
(10.3143 -0.0706017 0)
(10.3734 -0.0991126 0)
(10.4319 -0.125997 0)
(10.4869 -0.159116 0)
(10.5383 -0.206703 0)
(10.5872 -0.275349 0)
(10.6287 -0.367793 0)
(9.98912 0.00342912 0)
(10.1411 0.0173874 0)
(10.1691 0.0112311 0)
(10.1709 -0.040512 0)
(10.1832 -0.0545825 0)
(10.1892 -0.0183764 0)
(10.192 0.0264829 0)
(10.2082 0.0396048 0)
(10.2445 0.0126119 0)
(10.2939 -0.0329294 0)
(10.3458 -0.0719355 0)
(10.3951 -0.0951738 0)
(10.4432 -0.108189 0)
(10.4952 -0.123846 0)
(10.5535 -0.153315 0)
(10.6131 -0.205226 0)
(10.6698 -0.280651 0)
(10.7096 -0.378529 0)
(10.1828 -0.0435454 0)
(10.0755 -0.0379659 0)
(10.0892 -0.0177098 0)
(10.1388 -0.0032843 0)
(10.1584 0.0191312 0)
(10.1458 0.0352367 0)
(10.1421 0.0353818 0)
(10.1694 0.0190532 0)
(10.219 -0.010453 0)
(10.2741 -0.046486 0)
(10.3267 -0.0827745 0)
(10.3745 -0.118135 0)
(10.4227 -0.153315 0)
(10.4741 -0.189967 0)
(10.5293 -0.230504 0)
(10.5831 -0.278881 0)
(10.6277 -0.337161 0)
(10.6575 -0.40802 0)
(10.143 0.023135 0)
(10.1552 0.0505307 0)
(10.1396 -0.0280193 0)
(10.1658 -0.0837401 0)
(10.2312 -0.0658238 0)
(10.289 -0.0152125 0)
(10.3222 0.0175216 0)
(10.3321 0.00853695 0)
(10.329 -0.0333903 0)
(10.3283 -0.0823022 0)
(10.3387 -0.119048 0)
(10.3563 -0.14113 0)
(10.3754 -0.156996 0)
(10.392 -0.177029 0)
(10.4079 -0.209692 0)
(10.4207 -0.257892 0)
(10.4344 -0.322441 0)
(10.4434 -0.400527 0)
(9.96158 -0.152049 0)
(10.073 0.0124479 0)
(10.0791 0.00354101 0)
(10.0774 -0.0241149 0)
(10.1116 -0.0212537 0)
(10.157 -0.000386591 0)
(10.1873 0.0187523 0)
(10.184 0.0168014 0)
(10.1514 -0.010949 0)
(10.1163 -0.0541648 0)
(10.1037 -0.100363 0)
(10.1244 -0.143023 0)
(10.1767 -0.181213 0)
(10.2503 -0.218484 0)
(10.3339 -0.258528 0)
(10.4112 -0.305827 0)
(10.4792 -0.361927 0)
(10.5213 -0.427751 0)
(9.93628 -0.054896 0)
(10.0789 0.0184348 0)
(10.1384 -0.0599073 0)
(10.1423 -0.121476 0)
(10.1241 -0.108865 0)
(10.1245 -0.0504278 0)
(10.1606 0.00675629 0)
(10.2161 0.0256702 0)
(10.2755 0.000333096 0)
(10.3349 -0.0541121 0)
(10.3911 -0.118288 0)
(10.442 -0.179252 0)
(10.4875 -0.23073 0)
(10.5306 -0.273531 0)
(10.5688 -0.310929 0)
(10.5994 -0.350135 0)
(10.6157 -0.393637 0)
(10.615 -0.44749 0)
(10.1847 -0.0299938 0)
(10.1605 -0.0156331 0)
(10.133 -0.0141157 0)
(10.1358 -0.00780089 0)
(10.1022 -0.0148149 0)
(10.0492 -0.0209136 0)
(10.0296 -0.0244651 0)
(10.0535 -0.0407654 0)
(10.1024 -0.0748737 0)
(10.1567 -0.118611 0)
(10.2046 -0.162794 0)
(10.2444 -0.203869 0)
(10.2814 -0.241635 0)
(10.3205 -0.277299 0)
(10.3597 -0.310952 0)
(10.3932 -0.345407 0)
(10.4101 -0.379903 0)
(10.4087 -0.41981 0)
(10.2868 0.136244 0)
(10.1613 0.0860407 0)
(10.0959 -0.0674936 0)
(10.0737 -0.123929 0)
(10.0196 -0.0797294 0)
(9.95107 -0.0143432 0)
(9.92225 0.0107733 0)
(9.95607 -0.0119541 0)
(10.0438 -0.0601463 0)
(10.1573 -0.115035 0)
(10.2617 -0.171139 0)
(10.332 -0.228086 0)
(10.3618 -0.282084 0)
(10.3591 -0.327576 0)
(10.3384 -0.361009 0)
(10.3091 -0.38508 0)
(10.2804 -0.404001 0)
(10.2527 -0.426482 0)
(10.0687 -0.00655001 0)
(10.157 0.0394421 0)
(10.2034 0.0462117 0)
(10.2097 0.0617872 0)
(10.1812 0.0693766 0)
(10.1584 0.0405145 0)
(10.1515 -0.0311163 0)
(10.1603 -0.12777 0)
(10.1882 -0.216117 0)
(10.231 -0.269251 0)
(10.2727 -0.282004 0)
(10.2978 -0.269068 0)
(10.3032 -0.250725 0)
(10.2955 -0.244551 0)
(10.284 -0.255882 0)
(10.274 -0.284715 0)
(10.2668 -0.32342 0)
(10.2591 -0.367879 0)
(9.93457 0.106772 0)
(9.96244 0.0832738 0)
(10.0432 -0.0823063 0)
(10.1184 -0.143463 0)
(10.1776 -0.083191 0)
(10.2003 -0.00422328 0)
(10.1749 0.0197186 0)
(10.1114 -0.0197319 0)
(10.044 -0.0890769 0)
(10.0004 -0.155871 0)
(9.98704 -0.209512 0)
(9.99635 -0.254168 0)
(10.0184 -0.294746 0)
(10.0431 -0.332783 0)
(10.0617 -0.365348 0)
(10.0705 -0.390142 0)
(10.0673 -0.405804 0)
(10.0553 -0.413828 0)
(10.0348 -0.00714931 0)
(10.2374 -0.0525765 0)
(10.3249 -0.096498 0)
(10.2917 -0.0505547 0)
(10.2312 0.0217211 0)
(10.2405 0.0692064 0)
(10.2847 0.0529066 0)
(10.3129 -0.0286035 0)
(10.3186 -0.138155 0)
(10.3136 -0.233247 0)
(10.3059 -0.289649 0)
(10.2974 -0.3053 0)
(10.2861 -0.293771 0)
(10.2669 -0.273976 0)
(10.2358 -0.261376 0)
(10.1911 -0.264758 0)
(10.1369 -0.282276 0)
(10.0748 -0.312309 0)
(10.0789 -0.0868568 0)
(10.0578 -0.0961543 0)
(10.0497 -0.0371655 0)
(10.0527 -0.0244708 0)
(10.0955 -0.0492894 0)
(10.1894 -0.0692649 0)
(10.2884 -0.0704233 0)
(10.3513 -0.0668688 0)
(10.3639 -0.0787308 0)
(10.3302 -0.114745 0)
(10.2684 -0.166883 0)
(10.2028 -0.218643 0)
(10.1511 -0.256392 0)
(10.1173 -0.274709 0)
(10.0958 -0.274404 0)
(10.0765 -0.261714 0)
(10.0539 -0.241228 0)
(10.0234 -0.221716 0)
(9.9915 0.203362 0)
(9.99855 -0.0384557 0)
(9.96647 -0.178016 0)
(9.96058 -0.17753 0)
(9.97447 -0.149586 0)
(10.0002 -0.142564 0)
(10.0294 -0.143875 0)
(10.0594 -0.133486 0)
(10.0865 -0.114414 0)
(10.099 -0.102716 0)
(10.0882 -0.108103 0)
(10.0567 -0.127309 0)
(10.0148 -0.149936 0)
(9.97173 -0.166517 0)
(9.9325 -0.174471 0)
(9.89895 -0.17664 0)
(9.87181 -0.178034 0)
(9.85222 -0.184595 0)
(10.1619 0.0391382 0)
(10.1269 0.0626992 0)
(10.0989 0.0686856 0)
(10.0503 0.00661994 0)
(10.0046 -0.0640483 0)
(9.98074 -0.119831 0)
(9.96681 -0.158029 0)
(9.96425 -0.16913 0)
(9.97592 -0.152618 0)
(9.99404 -0.123751 0)
(10.0069 -0.101777 0)
(10.0074 -0.0964692 0)
(9.9948 -0.105509 0)
(9.97124 -0.119682 0)
(9.94156 -0.131608 0)
(9.91114 -0.138814 0)
(9.88518 -0.143151 0)
(9.86542 -0.149316 0)
(10.0382 0.0768537 0)
(10.1149 0.053089 0)
(10.1731 -0.0119221 0)
(10.1914 -0.0586737 0)
(10.202 -0.074868 0)
(10.1968 -0.0955164 0)
(10.1717 -0.126954 0)
(10.1311 -0.152295 0)
(10.0871 -0.159654 0)
(10.0536 -0.14946 0)
(10.0392 -0.126999 0)
(10.0432 -0.097842 0)
(10.0574 -0.0679956 0)
(10.0704 -0.0437081 0)
(10.0736 -0.0327923 0)
(10.0625 -0.0386636 0)
(10.0394 -0.0612466 0)
(10.0045 -0.0966794 0)
(10.1288 -0.0310675 0)
(10.1547 -0.0406675 0)
(10.1388 -0.0262467 0)
(10.1253 -0.0113497 0)
(10.143 -0.029989 0)
(10.1776 -0.0554998 0)
(10.2028 -0.0608195 0)
(10.2097 -0.0518302 0)
(10.2004 -0.0497188 0)
(10.182 -0.0678801 0)
(10.1624 -0.101638 0)
(10.1473 -0.133387 0)
(10.1388 -0.146678 0)
(10.1361 -0.134019 0)
(10.1369 -0.0999858 0)
(10.1365 -0.0573787 0)
(10.1335 -0.0181201 0)
(10.1239 0.00349669 0)
(10.0695 0.00116964 0)
(10.0999 0.0273061 0)
(10.1143 -0.0148482 0)
(10.087 -0.0932412 0)
(10.0837 -0.155707 0)
(10.1132 -0.183683 0)
(10.151 -0.173505 0)
(10.1805 -0.140213 0)
(10.1952 -0.105548 0)
(10.1914 -0.0816473 0)
(10.1697 -0.069214 0)
(10.1376 -0.0629462 0)
(10.1053 -0.0569689 0)
(10.0811 -0.0483433 0)
(10.0705 -0.0387047 0)
(10.0731 -0.0322589 0)
(10.0862 -0.0327292 0)
(10.1037 -0.0420568 0)
(10.1537 -0.110438 0)
(10.1789 -0.0395601 0)
(10.193 0.0387425 0)
(10.1577 0.0313819 0)
(10.0737 -0.0302738 0)
(9.99259 -0.0962127 0)
(9.93634 -0.124428 0)
(9.90129 -0.109595 0)
(9.88319 -0.0751534 0)
(9.88087 -0.0488305 0)
(9.89091 -0.0434662 0)
(9.90938 -0.0548531 0)
(9.93388 -0.0712051 0)
(9.96311 -0.082512 0)
(9.9949 -0.084307 0)
(10.0255 -0.0779707 0)
(10.0512 -0.0665918 0)
(10.0669 -0.0545361 0)
(9.88358 -0.0285795 0)
(9.93199 0.0138944 0)
(10.0011 0.0292529 0)
(10.0667 -0.0174833 0)
(10.1122 -0.0630599 0)
(10.1181 -0.0887831 0)
(10.0948 -0.0939285 0)
(10.066 -0.0857985 0)
(10.0513 -0.0768313 0)
(10.0527 -0.07655 0)
(10.0599 -0.0868265 0)
(10.0602 -0.101894 0)
(10.0463 -0.11378 0)
(10.0201 -0.118002 0)
(9.98985 -0.113653 0)
(9.96444 -0.102597 0)
(9.94837 -0.0864984 0)
(9.94358 -0.0676144 0)
(10.0001 -0.0240444 0)
(10.052 -0.0785959 0)
(10.0855 -0.0470849 0)
(10.0781 -0.0341281 0)
(10.0695 -0.0417008 0)
(10.0767 -0.0601466 0)
(10.1072 -0.0787756 0)
(10.1505 -0.0840216 0)
(10.1847 -0.0775548 0)
(10.1877 -0.0676798 0)
(10.1474 -0.0578826 0)
(10.0711 -0.0483679 0)
(9.98083 -0.0398119 0)
(9.89976 -0.0348969 0)
(9.84424 -0.0354887 0)
(9.81784 -0.0407455 0)
(9.81828 -0.0477169 0)
(9.836 -0.0514581 0)
(10.1022 0.0737925 0)
(9.98531 0.0031556 0)
(9.91605 0.00893731 0)
(9.97919 -0.0216768 0)
(10.0985 -0.0812098 0)
(10.1435 -0.124141 0)
(10.0937 -0.138173 0)
(10.008 -0.12561 0)
(9.94355 -0.0899769 0)
(9.92323 -0.0411446 0)
(9.9443 0.00471873 0)
(9.9935 0.0323981 0)
(10.0559 0.0337121 0)
(10.1175 0.00981611 0)
(10.1667 -0.0285445 0)
(10.1982 -0.068241 0)
(10.2127 -0.098517 0)
(10.2133 -0.110542 0)
(10.1699 -0.0431363 0)
(10.2982 0.0557529 0)
(10.285 -0.042879 0)
(10.2347 -0.112537 0)
(10.1649 -0.102234 0)
(10.0804 -0.0543353 0)
(10.013 -0.0182113 0)
(9.97803 -0.0144718 0)
(9.97016 -0.0365883 0)
(9.983 -0.0676334 0)
(10.0163 -0.0945017 0)
(10.068 -0.110744 0)
(10.1282 -0.114889 0)
(10.1803 -0.109324 0)
(10.208 -0.0972848 0)
(10.2051 -0.0826099 0)
(10.1738 -0.0679405 0)
(10.1264 -0.0547414 0)
(10.1068 -0.0847355 0)
(10.0729 -0.00187281 0)
(10.152 0.0197181 0)
(10.1832 -0.0105108 0)
(10.1634 -0.0332222 0)
(10.1258 -0.05167 0)
(10.1088 -0.0707303 0)
(10.1261 -0.0821906 0)
(10.162 -0.080175 0)
(10.1911 -0.0702339 0)
(10.1984 -0.0615182 0)
(10.1839 -0.0582349 0)
(10.1565 -0.0582245 0)
(10.1257 -0.0570465 0)
(10.0979 -0.0520185 0)
(10.0767 -0.0438728 0)
(10.0633 -0.0350666 0)
(10.0585 -0.0289735 0)
(10.1386 0.0261986 0)
(10.174 0.00931294 0)
(10.2633 -0.0595106 0)
(10.2881 -0.0779116 0)
(10.2632 -0.0525704 0)
(10.2505 -0.0298013 0)
(10.2646 -0.032862 0)
(10.2752 -0.0539947 0)
(10.2584 -0.0740312 0)
(10.2166 -0.0828361 0)
(10.1666 -0.0821457 0)
(10.1232 -0.0777347 0)
(10.091 -0.0733305 0)
(10.0684 -0.0694303 0)
(10.0505 -0.0650276 0)
(10.0349 -0.0601659 0)
(10.0189 -0.055239 0)
(10.0031 -0.0517113 0)
(9.62157 -0.086349 0)
(9.65919 -0.0283766 0)
(9.53622 -0.0370395 0)
(9.34901 -0.0318029 0)
(9.21384 -0.0312191 0)
(9.10155 -0.0500709 0)
(8.95671 -0.0688033 0)
(8.77758 -0.0678849 0)
(8.59725 -0.0512851 0)
(8.43842 -0.0346896 0)
(8.30038 -0.0282514 0)
(8.17294 -0.0312865 0)
(8.04831 -0.0370366 0)
(7.92717 -0.0390305 0)
(7.81535 -0.0351896 0)
(7.71951 -0.0274608 0)
(7.64087 -0.0186268 0)
(7.57967 -0.0134358 0)
(-0.318588 0.645842 7.71543e-20)
(-0.713748 0.355202 -7.64426e-20)
(-1.0349 0.103785 0)
(-1.16525 -0.142105 0)
(-0.988772 -0.44645 0)
(-0.641861 -0.628747 7.43082e-20)
(-0.0834728 -0.778203 0)
(0.570886 -0.831187 0)
(1.25565 -0.830118 0)
(1.93097 -0.790225 0)
(2.58213 -0.72854 -7.10973e-20)
(3.18885 -0.657145 0)
(3.74295 -0.585232 0)
(4.24549 -0.517791 0)
(4.6995 -0.45439 0)
(5.10713 -0.39593 -6.69883e-20)
(5.47184 -0.340387 0)
(5.79257 -0.285925 0)
(6.0722 -0.235244 0)
(6.30835 -0.180747 0)
(6.49977 -0.13189 0)
(6.65084 -0.0805047 0)
(6.75005 -0.0275402 0)
(6.8135 0.012495 -6.1312e-20)
(6.82645 0.0750638 6.07387e-20)
(6.78796 0.114789 -6.01878e-20)
(6.71373 0.171783 -5.96659e-20)
(6.56219 0.260141 0)
(6.37691 0.275045 0)
(6.12824 0.414185 5.82468e-20)
(5.74571 0.528271 5.78122e-20)
(5.3533 0.494339 0)
(4.8138 0.843851 0)
(3.96605 1.12154 5.65326e-20)
(3.1197 0.65914 0)
(2.48662 0.0533685 0)
(2.01134 -0.203349 -5.49584e-20)
(1.67197 -0.265647 0)
(1.50737 -0.341548 -5.39006e-20)
(1.56679 -0.488632 -1.06754e-19)
(1.88657 -0.67929 0)
(2.45748 -0.81542 0)
(3.20216 -0.808295 0)
(3.96151 -0.662317 0)
(4.58716 -0.453978 0)
(5.03115 -0.282428 -1.00782e-19)
(5.34221 -0.215134 -9.98125e-20)
(5.60647 -0.172532 -9.89087e-20)
(5.78063 0.0224249 0)
(5.66727 0.320699 9.74724e-20)
(5.24496 0.45903 0)
(4.70951 0.321104 -9.66478e-20)
(4.21997 0.140772 -9.62948e-20)
(3.7399 0.181188 0)
(3.14449 0.402716 0)
(2.41254 0.566982 0)
(1.64024 0.569611 -9.50798e-20)
(0.910038 0.490864 0)
(0.240475 0.38795 0)
(-0.323042 0.255359 0)
(-0.674276 0.0635726 0)
(-0.739292 -0.159237 0)
(-0.727887 -0.525016 0)
(-1.30715 -0.893457 0)
(-2.81732 1.02842 0)
(-6.55726 2.86365 8.61179e-20)
(-9.39337 1.40917 0)
(-10.7247 1.181 0)
(-12.2993 0.892181 -7.69998e-20)
(-13.0693 0.476664 -7.43768e-20)
(-13.7103 0.423602 0)
(-14.1239 0.174557 7.02254e-20)
(-14.3023 0.136041 -6.86234e-20)
(-14.436 0.0309884 0)
(-14.3961 -0.0171052 6.61308e-20)
(-14.3454 -0.0494101 0)
(-14.207 -0.088249 0)
(-14.0449 -0.0977886 -6.36563e-20)
(-13.8457 -0.120843 0)
(-13.6187 -0.127305 6.25759e-20)
(-13.3779 -0.137525 0)
(-13.1133 -0.144622 -6.18064e-20)
(-12.8409 -0.148755 -6.15118e-20)
(-12.5519 -0.15501 -6.12667e-20)
(-12.2536 -0.158296 -1.22127e-19)
(-11.9445 -0.162946 1.21791e-19)
(-11.6235 -0.167109 0)
(-11.2931 -0.171063 0)
(-10.9506 -0.175724 0)
(-10.5964 -0.180083 1.20953e-19)
(-10.2302 -0.185031 1.2083e-19)
(-9.85047 -0.190361 -1.20729e-19)
(-9.45713 -0.195386 0)
(-9.05007 -0.200351 1.20569e-19)
(-8.62906 -0.205326 1.20498e-19)
(-8.1942 -0.210088 1.20423e-19)
(-7.74582 -0.214486 0)
(-7.2845 -0.218386 0)
(-6.81115 -0.221598 0)
(-6.32714 -0.223894 1.19888e-19)
(-5.83434 -0.225025 0)
(-5.33532 -0.224702 0)
(-4.83346 -0.222628 -1.18932e-19)
(-4.33278 -0.218607 0)
(-3.83764 -0.212643 0)
(-3.35234 -0.20493 -1.17218e-19)
(-2.88078 -0.195789 0)
(-2.42603 -0.185647 0)
(-1.99011 -0.174997 1.14685e-19)
(-1.57369 -0.164383 1.13682e-19)
(-1.17638 -0.154012 0)
(-0.795934 -0.14486 -1.11498e-19)
(-0.431618 -0.135741 0)
(-0.0781571 -0.129754 1.09134e-19)
(0.268581 -0.126379 0)
(0.610052 -0.122469 1.06533e-19)
(0.947524 -0.117696 1.05198e-19)
(1.27724 -0.110776 0)
(1.59183 -0.100964 0)
(1.88144 -0.0882326 0)
(2.13472 -0.0731022 0)
(2.34179 -0.0568004 0)
(2.49689 -0.0406547 0)
(2.60008 -0.0255531 0)
(2.65743 -0.0115006 9.43549e-20)
(2.67547 0.00163515 -9.30212e-20)
(2.66375 0.0128125 0)
(2.63412 0.0187927 0)
(2.59487 0.0203582 0)
(2.55296 0.0193272 0)
(2.51364 0.0168188 -1.73091e-19)
(2.48047 0.0135626 0)
(2.45576 0.01006 1.68116e-19)
(2.44097 0.00660326 -1.65673e-19)
(2.4369 0.00331347 0)
(2.44403 0.000288287 0)
(2.46266 -0.00269524 0)
(2.49242 -0.00557541 1.5617e-19)
(2.53258 -0.00826985 1.53855e-19)
(2.58222 -0.010706 0)
(2.64036 -0.0126802 1.49286e-19)
(2.70605 -0.0140472 1.47028e-19)
(2.77831 -0.0146618 -1.44787e-19)
(2.85493 -0.0138592 0)
(2.93075 -0.0117258 0)
(2.9985 -0.00896276 -1.38133e-19)
(3.05064 -0.00509292 0)
(3.08064 -0.00185363 0)
(3.09149 -0.00282242 0)
(3.09725 -0.00695654 0)
(3.11524 -0.0151743 1.27091e-19)
(3.1691 -0.0297516 1.24941e-19)
(3.27376 -0.0404181 0)
(3.41467 -0.0426757 1.20733e-19)
(3.57738 -0.0499794 0)
(3.76159 -0.0526787 0)
(3.93177 -0.0319508 1.14321e-19)
(4.03979 -0.0200633 0)
(4.10225 -0.025208 1.09765e-19)
(4.11703 0.00283045 0)
(4.04425 0.0242205 0)
(3.96588 -0.0276086 1.0273e-19)
(4.02808 -0.0515696 0)
(4.17047 -0.00784565 9.86738e-20)
(4.30577 -0.0860286 0)
(4.73569 -0.198647 0)
(5.42896 -0.0424909 0)
(5.68009 -0.0387014 -9.35556e-20)
(6.17505 -0.355528 0)
(7.40902 0.0915127 9.17227e-20)
(6.50423 0.795069 0)
(3.93977 0.364948 0)
(2.66503 -0.222872 0)
(2.37772 -0.220229 0)
(2.4917 -0.049559 0)
(2.54493 0.0436108 0)
(2.31976 0.0914822 0)
(1.86347 0.1021 -1.55068e-19)
(1.32261 0.0799911 0)
(0.765382 0.082981 0)
(0.00252922 1.32497 -2.31503e-19)
(0.218263 1.00523 2.29803e-19)
(0.0801404 0.734491 0)
(0.298326 0.175813 -1.50851e-19)
(0.588527 -0.659976 0)
(1.10542 -1.37179 -7.40925e-20)
(1.64864 -1.82888 1.46656e-19)
(2.17122 -2.03874 1.45295e-19)
(2.66086 -2.07074 0)
(3.11976 -1.99003 1.42482e-19)
(3.54716 -1.85214 7.07937e-20)
(3.94368 -1.69406 0)
(4.31339 -1.53588 0)
(4.66032 -1.38661 0)
(4.98764 -1.24727 0)
(5.29489 -1.1167 6.68936e-20)
(5.58049 -0.99227 0)
(5.84207 -0.870577 -1.30408e-19)
(6.07494 -0.7517 0)
(6.27794 -0.630918 0)
(6.44559 -0.511656 1.26173e-19)
(6.57691 -0.392069 0)
(6.67388 -0.270717 -1.23625e-19)
(6.73139 -0.158467 6.13213e-20)
(6.76478 -0.0396324 -6.07501e-20)
(6.77562 0.0689652 6.01861e-20)
(6.76934 0.17445 5.96473e-20)
(6.74866 0.305671 0)
(6.71839 0.417652 0)
(6.67423 0.57007 -5.81374e-20)
(6.61417 0.770456 5.73861e-20)
(6.56441 0.924981 0)
(6.42625 1.16742 0)
(6.26004 1.47899 -5.61497e-20)
(6.22975 1.64044 0)
(5.99698 1.61063 0)
(5.39269 1.41916 5.44662e-20)
(4.80232 1.07899 0)
(4.35016 0.563255 -5.36243e-20)
(3.93493 -0.12243 1.06155e-19)
(3.65911 -0.869427 0)
(3.5975 -1.46569 0)
(3.72986 -1.67465 2.07103e-19)
(3.96362 -1.51551 2.05273e-19)
(4.17595 -1.2001 2.03365e-19)
(4.31675 -0.909399 -1.00595e-19)
(4.38795 -0.695676 9.99963e-20)
(4.3976 -0.471767 2.97177e-19)
(4.38135 -0.106378 -1.96513e-19)
(4.37035 0.37315 -9.76949e-20)
(4.29693 0.795061 0)
(4.08359 1.04698 9.66927e-20)
(3.71345 1.16341 -9.57485e-20)
(3.25181 1.24598 0)
(2.76918 1.34109 0)
(2.27031 1.40854 0)
(1.72128 1.41426 9.49571e-20)
(1.09269 1.37772 0)
(0.400378 1.27646 -1.87926e-19)
(-0.284617 1.00189 0)
(-0.920019 0.555204 -1.85088e-19)
(-1.54707 0.117047 0)
(-3.17082 1.31227 1.79246e-19)
(-6.9869 4.31144 0)
(-9.2219 5.07259 -1.69894e-19)
(-10.4892 4.3199 8.04511e-20)
(-11.705 3.14744 0)
(-12.1331 2.43401 1.55474e-19)
(-12.7678 1.73138 7.68082e-20)
(-12.9739 1.14977 7.43106e-20)
(-13.258 0.795032 0)
(-13.3527 0.430088 6.89726e-20)
(-13.4287 0.226515 6.87211e-20)
(-13.4329 0.0338506 0)
(-13.3758 -0.0979228 -6.6243e-20)
(-13.2902 -0.193001 1.30006e-19)
(-13.1387 -0.27505 0)
(-12.9765 -0.32468 6.37532e-20)
(-12.7726 -0.371453 0)
(-12.5571 -0.401486 -1.87678e-19)
(-12.3204 -0.426816 0)
(-12.0691 -0.447918 1.85401e-19)
(-11.8074 -0.463305 6.15894e-20)
(-11.5316 -0.478993 -6.11205e-20)
(-11.247 -0.491775 -1.21863e-19)
(-10.9512 -0.504466 1.21551e-19)
(-10.6449 -0.517318 0)
(-10.3283 -0.529926 0)
(-10.0001 -0.543439 0)
(-9.66006 -0.55727 -3.62895e-19)
(-9.30745 -0.571625 -1.20937e-19)
(-8.94173 -0.58674 1.20831e-19)
(-8.5624 -0.602086 0)
(-8.16908 -0.617352 1.20384e-19)
(-7.76175 -0.632354 -1.20583e-19)
(-7.34052 -0.646785 -1.20503e-19)
(-6.9057 -0.660271 0)
(-6.45782 -0.672382 0)
(-5.99771 -0.682577 0)
(-5.52665 -0.690199 -1.19948e-19)
(-5.04644 -0.694523 0)
(-4.55964 -0.694716 2.38605e-19)
(-4.06982 -0.689885 3.56814e-19)
(-3.58148 -0.679383 -2.36886e-19)
(-3.0996 -0.663104 0)
(-2.62912 -0.641571 -1.17176e-19)
(-2.17435 -0.615926 0)
(-1.73863 -0.587646 -2.3125e-19)
(-1.32403 -0.55816 1.14666e-19)
(-0.93035 -0.52924 1.13663e-19)
(-0.557353 -0.500714 0)
(-0.200685 -0.477358 3.34549e-19)
(0.140595 -0.456982 -2.20594e-19)
(0.473084 -0.442883 -1.09049e-19)
(0.801492 -0.432987 0)
(1.12863 -0.424269 -1.06422e-19)
(1.45724 -0.413605 -3.15195e-19)
(1.78732 -0.396642 0)
(2.11527 -0.369257 -2.04737e-19)
(2.43379 -0.328944 -2.02031e-19)
(2.73177 -0.27584 -1.99316e-19)
(2.99438 -0.213668 0)
(3.20573 -0.149169 0)
(3.35444 -0.0899454 0)
(3.43761 -0.0416079 9.42486e-20)
(3.46662 -0.00590407 9.29383e-20)
(3.45777 0.0181493 0)
(3.42398 0.0318266 1.80596e-19)
(3.37764 0.0375434 1.7801e-19)
(3.32742 0.0375351 0)
(3.27926 0.0333527 1.72939e-19)
(3.23734 0.0261012 3.40872e-19)
(3.20453 0.0166607 -1.67978e-19)
(3.18274 0.00575801 -1.65528e-19)
(3.17313 -0.00605981 0)
(3.17537 -0.0185579 0)
(3.18836 -0.0309417 0)
(3.21139 -0.0423365 -1.56052e-19)
(3.24348 -0.0524969 1.53732e-19)
(3.28363 -0.0613019 3.02891e-19)
(3.33125 -0.0688438 -1.49176e-19)
(3.38707 -0.0752533 1.46917e-19)
(3.4526 -0.0802892 1.44683e-19)
(3.52833 -0.0825086 0)
(3.61265 -0.0787169 0)
(3.69753 -0.0665713 -1.38039e-19)
(3.76884 -0.0468495 0)
(3.81324 -0.0234255 0)
(3.82339 -0.00569499 2.62801e-19)
(3.80774 -0.00512214 0)
(3.79751 -0.0254594 1.26996e-19)
(3.82776 -0.0627188 -1.24861e-19)
(3.91188 -0.104318 0)
(4.0504 -0.133943 1.20652e-19)
(4.2348 -0.148959 0)
(4.43192 -0.151329 0)
(4.61651 -0.128621 -1.14237e-19)
(4.78032 -0.0761261 2.24039e-19)
(4.85834 -0.0196143 -1.09695e-19)
(4.81469 0.0265935 0)
(4.72562 0.0649335 0)
(4.62363 0.0442948 1.02567e-19)
(4.51208 -0.0547552 0)
(4.56485 -0.129968 9.84078e-20)
(4.85825 -0.198962 0)
(5.16567 -0.382945 0)
(5.62816 -0.454449 0)
(6.43321 -0.322558 9.34723e-20)
(6.92496 -0.422197 0)
(7.3713 -0.295578 -9.16522e-20)
(8.10012 0.653762 0)
(8.41341 1.39213 0)
(7.36658 1.08027 1.7269e-19)
(5.14054 0.297762 -1.69506e-19)
(3.83723 -0.04657 0)
(3.47589 0.028229 0)
(3.25496 0.213193 0)
(2.82997 0.343899 4.64987e-19)
(2.19701 0.411203 0)
(1.39393 0.488801 -2.85839e-19)
(0.0776497 0.417976 -1.74766e-22)
(0.269692 0.490826 -3.065e-19)
(0.629805 0.055152 0)
(1.23922 -0.921012 3.0061e-19)
(1.88452 -1.86532 0)
(2.39467 -2.51877 0)
(2.74025 -2.82554 -2.47208e-22)
(2.97128 -2.85621 -1.44795e-19)
(3.1507 -2.71778 -1.43096e-19)
(3.32074 -2.50701 -1.42275e-19)
(3.50318 -2.2874 0)
(3.70841 -2.08803 0)
(3.93867 -1.91374 1.37588e-19)
(4.18908 -1.7585 2.72234e-19)
(4.4506 -1.61272 -2.69258e-19)
(4.71285 -1.46849 0)
(4.96611 -1.32064 -2.63315e-19)
(5.20253 -1.16511 1.30554e-19)
(5.4157 -1.00208 0)
(5.59991 -0.830182 -2.54803e-19)
(5.75096 -0.654083 -1.26364e-19)
(5.86345 -0.477122 2.49624e-19)
(5.93423 -0.302817 1.23849e-19)
(5.96356 -0.145754 0)
(5.9483 0.00482754 -2.42737e-19)
(5.90235 0.133403 -2.40571e-19)
(5.8486 0.241818 0)
(5.79651 0.363236 -2.36417e-19)
(5.76058 0.459779 0)
(5.74376 0.587798 -2.32322e-19)
(5.75636 0.773463 -1.15269e-19)
(5.82117 0.922343 0)
(5.89061 1.14488 0)
(5.99071 1.44338 0)
(6.15803 1.59694 0)
(6.1995 1.65792 0)
(6.09435 1.67575 0)
(6.00692 1.49297 -2.15694e-19)
(5.82253 1.18907 3.2052e-19)
(5.50435 0.771601 0)
(5.19726 0.0352042 0)
(4.85361 -0.769143 0)
(4.42557 -1.15883 6.11162e-23)
(4.02132 -1.05567 -2.05278e-19)
(3.72521 -0.734653 -4.07002e-19)
(3.52459 -0.434309 4.03502e-19)
(3.37666 -0.216195 1.99943e-19)
(3.23794 -0.033927 -1.98531e-19)
(3.11917 0.205803 1.98959e-22)
(3.04023 0.559459 -1.95181e-19)
(2.982 0.93257 0)
(2.88977 1.22318 -1.92605e-19)
(2.70485 1.43514 6.3438e-22)
(2.41886 1.63897 0)
(2.05983 1.85555 0)
(1.64425 2.03741 1.8937e-19)
(1.15184 2.16446 0)
(0.566267 2.22205 0)
(-0.127653 2.18694 -1.86333e-19)
(-0.952741 1.98521 -3.71245e-19)
(-1.85517 1.75482 1.84263e-19)
(-3.85827 3.09676 0)
(-7.08367 5.73042 -1.77268e-19)
(-9.47463 6.94224 0)
(-10.2201 6.24304 -1.60639e-19)
(-10.4254 4.94869 -1.65424e-19)
(-10.9164 3.85832 3.12388e-19)
(-11.0328 2.87138 1.48431e-19)
(-11.3962 2.06944 0)
(-11.5768 1.42483 -2.88712e-19)
(-11.772 0.946647 0)
(-11.8794 0.534293 -4.1584e-19)
(-11.9221 0.247138 -2.71119e-19)
(-11.9251 -0.0033829 -2.6662e-19)
(-11.8642 -0.182645 2.62602e-19)
(-11.7761 -0.327231 -3.89443e-19)
(-11.6435 -0.440917 0)
(-11.4908 -0.521412 0)
(-11.3118 -0.590392 2.51407e-19)
(-11.1165 -0.637601 3.74816e-19)
(-10.9065 -0.678157 0)
(-10.6823 -0.710265 -1.23742e-19)
(-10.4483 -0.736274 0)
(-10.2029 -0.760643 3.67313e-19)
(-9.94808 -0.781665 6.38383e-22)
(-9.68374 -0.802403 -5.87378e-22)
(-9.40955 -0.822905 -2.42752e-19)
(-9.12523 -0.843581 0)
(-8.82983 -0.865448 2.41965e-19)
(-8.52245 -0.888238 4.63756e-22)
(-8.2019 -0.912176 0)
(-7.86729 -0.937155 0)
(-7.51801 -0.962629 0)
(-7.15366 -0.988211 -2.41269e-19)
(-6.77404 -1.01352 0)
(-6.37922 -1.03807 0)
(-5.96942 -1.06129 0)
(-5.54504 -1.08245 0)
(-5.10666 -1.10062 0)
(-4.65526 -1.1147 -2.39548e-19)
(-4.19219 -1.12343 0)
(-3.71937 -1.12535 -2.38724e-19)
(-3.2398 -1.1187 -2.37945e-19)
(-2.75768 -1.10176 2.36997e-19)
(-2.27827 -1.07354 0)
(-1.80796 -1.03438 2.34555e-19)
(-1.35392 -0.986551 0)
(-0.922726 -0.933517 2.31372e-19)
(-0.519559 -0.878447 -2.2952e-19)
(-0.14442 -0.82609 -6.82318e-19)
(0.20134 -0.779497 0)
(0.520982 -0.738433 -6.68258e-19)
(0.824247 -0.707378 -2.20099e-19)
(1.11452 -0.686303 0)
(1.39614 -0.674652 -4.30082e-19)
(1.67313 -0.668507 -4.24834e-19)
(1.94916 -0.66235 6.29446e-19)
(2.22551 -0.649771 0)
(2.50106 -0.624372 2.0456e-19)
(2.77408 -0.58079 2.01871e-19)
(3.04343 -0.515249 5.97338e-19)
(3.30729 -0.426887 0)
(3.55878 -0.320353 0)
(3.78284 -0.206688 0)
(3.95984 -0.100686 1.88281e-19)
(4.07453 -0.0155397 0)
(4.12527 0.0425632 0)
(4.12435 0.0759273 -1.8044e-19)
(4.08916 0.0893029 -1.77851e-19)
(4.03578 0.0884713 0)
(3.97646 0.0785831 0)
(3.91935 0.0632807 -3.40585e-19)
(3.86938 0.0449698 0)
(3.82933 0.0253848 3.30817e-19)
(3.80064 0.00589864 3.26006e-19)
(3.78436 -0.0126219 0)
(3.78096 -0.0292009 0)
(3.78898 -0.0437679 -3.11884e-19)
(3.80535 -0.056588 -7.6284e-24)
(3.82605 -0.0684902 -6.44735e-24)
(3.8472 -0.0805676 0)
(3.8669 -0.0937932 -5.87353e-19)
(3.88705 -0.107578 0)
(3.91259 -0.118659 0)
(3.94682 -0.120943 0)
(3.98664 -0.107879 2.75974e-19)
(4.01977 -0.0773498 0)
(4.02827 -0.0350145 -5.34382e-19)
(4.0003 0.00239325 -2.62747e-19)
(3.9449 0.0114324 0)
(3.90146 -0.0229248 -2.53982e-19)
(3.91925 -0.0944243 0)
(4.0181 -0.17172 0)
(4.18329 -0.227561 -7.23697e-19)
(4.39153 -0.262785 4.74078e-19)
(4.62379 -0.270358 0)
(4.85367 -0.228988 4.56973e-19)
(5.03881 -0.148569 -2.23959e-19)
(5.13425 -0.0451656 0)
(5.08849 0.0709155 0)
(4.90053 0.138025 0)
(4.6947 0.0975876 -6.15209e-19)
(4.58955 -0.0290614 0)
(4.61153 -0.186141 -1.96991e-19)
(4.8457 -0.37455 0)
(5.289 -0.596403 0)
(5.72682 -0.720252 0)
(6.34108 -0.683868 0)
(7.23347 -0.677541 0)
(7.66408 -0.499077 0)
(8.00953 0.203482 -3.60573e-19)
(9.04429 1.0282 0)
(9.59185 1.49455 -1.72226e-19)
(8.45347 1.37424 5.06417e-19)
(6.33636 0.739701 0)
(4.77355 0.32194 0)
(4.08668 0.376079 -3.19117e-19)
(3.59575 0.579492 -3.0975e-19)
(2.86114 0.738729 2.98993e-19)
(1.86213 0.89166 2.85505e-19)
(-0.185792 0.425396 4.63652e-19)
(0.259792 -0.33003 4.60006e-19)
(0.985333 -1.61456 3.03312e-19)
(1.67062 -2.57727 1.49863e-19)
(2.15213 -3.10612 0)
(2.40611 -3.25221 -2.93697e-19)
(2.50624 -3.1454 1.45259e-19)
(2.55571 -2.93619 0)
(2.63477 -2.73761 1.43257e-19)
(2.77944 -2.59842 0)
(2.99053 -2.51316 -2.80229e-19)
(3.25183 -2.45252 0)
(3.54238 -2.38776 -1.37603e-19)
(3.84227 -2.30136 -2.72219e-19)
(4.13574 -2.1853 2.69225e-19)
(4.4123 -2.0379 0)
(4.66527 -1.86206 2.63319e-19)
(4.89118 -1.66095 0)
(5.08849 -1.43712 0)
(5.25285 -1.19265 2.54941e-19)
(5.381 -0.931978 0)
(5.46961 -0.660117 -6.7407e-22)
(5.51103 -0.390254 0)
(5.50884 -0.138737 0)
(5.46927 0.0854583 4.30599e-22)
(5.38906 0.263247 2.40785e-19)
(5.27132 0.401084 2.3849e-19)
(5.14441 0.503097 2.36751e-19)
(5.03619 0.565472 0)
(4.94295 0.644988 4.65449e-19)
(4.89883 0.726349 0)
(4.90963 0.803444 2.28647e-19)
(4.94651 0.959536 0)
(5.07189 1.13071 0)
(5.24523 1.28322 -2.22206e-19)
(5.35601 1.46955 0)
(5.48344 1.56275 2.18024e-19)
(5.56084 1.55343 -2.61299e-22)
(5.39518 1.44066 -4.28353e-19)
(5.17858 0.91136 4.25521e-19)
(5.07292 0.0794735 0)
(4.86231 -0.466615 0)
(4.47741 -0.597988 2.06709e-19)
(4.10069 -0.569911 0)
(3.84485 -0.523438 2.03452e-19)
(3.70736 -0.451926 -2.01586e-19)
(3.62859 -0.322386 -1.99826e-19)
(3.55111 -0.11271 0)
(3.43693 0.195731 1.96609e-19)
(3.27835 0.599446 1.9512e-19)
(3.08777 1.04741 -3.86264e-19)
(2.86056 1.46107 1.92703e-19)
(2.57224 1.81059 1.9174e-19)
(2.20404 2.11566 0)
(1.75976 2.4066 0)
(1.23731 2.68456 -1.8935e-19)
(0.632868 2.92538 0)
(-0.0844944 3.14422 0)
(-0.944988 3.2969 3.72906e-19)
(-1.90996 3.33775 3.69636e-19)
(-3.48667 4.24956 0)
(-6.21834 6.66343 0)
(-8.70507 8.40157 0)
(-9.52081 7.9199 0)
(-9.50049 6.49374 3.29892e-19)
(-9.69346 5.29254 -3.13317e-19)
(-9.99683 4.18693 -3.12702e-19)
(-10.1203 3.17312 -6.0225e-19)
(-10.389 2.35088 0)
(-10.5307 1.64342 4.69852e-21)
(-10.6613 1.08477 0)
(-10.7475 0.61519 2.76751e-19)
(-10.7731 0.254928 2.79341e-21)
(-10.7768 -0.044838 2.67138e-19)
(-10.7315 -0.274078 -2.63084e-19)
(-10.6628 -0.45533 1.84862e-21)
(-10.5623 -0.599361 0)
(-10.44 -0.705001 -2.52457e-19)
(-10.298 -0.791455 -2.5176e-19)
(-10.139 -0.85537 -4.98462e-19)
(-9.96641 -0.907406 0)
(-9.78038 -0.95058 2.45837e-19)
(-9.58255 -0.986058 0)
(-9.37381 -1.01842 -4.88833e-19)
(-9.15484 -1.04766 2.44102e-19)
(-8.92578 -1.0758 -2.4346e-19)
(-8.68703 -1.10409 2.42926e-19)
(-8.43806 -1.13321 4.83647e-19)
(-8.17768 -1.16417 -2.42101e-19)
(-7.90454 -1.19721 2.41781e-19)
(-7.61709 -1.2323 0)
(-7.31399 -1.2691 -4.81409e-19)