/*--------------------------------*- C++ -*----------------------------------*\
  =========                 |
  \\      /  F ield         | OpenFOAM: The Open Source CFD Toolbox
   \\    /   O peration     | Website:  https://openfoam.org
    \\  /    A nd           | Version:  9
     \\/     M anipulation  |
\*---------------------------------------------------------------------------*/
FoamFile
{
    format      ascii;
    class       volSymmTensorField;
    location    "0.071";
    object      UPrime2Mean;
}
// * * * * * * * * * * * * * * * * * * * * * * * * * * * * * * * * * * * * * //

dimensions      [0 2 -2 0 0 0 0];

internalField   nonuniform List<symmTensor> 
12225
(
(-48.2511 -0.239682 0 0.000984898 0 0)
(-45.3805 -0.303331 0 -0.00104191 0 0)
(-42.5476 -0.283661 0 -0.00121588 0 0)
(-39.7749 -0.266276 0 -0.00124882 0 0)
(-37.1314 -0.253789 0 -0.00128291 0 0)
(-34.6534 -0.242179 0 -0.00129161 0 0)
(-32.3246 -0.23054 0 -0.00127056 0 0)
(-30.1448 -0.220006 0 -0.00124559 0 0)
(-28.0656 -0.210375 0 -0.00119804 0 0)
(-26.1132 -0.203725 0 -0.00119138 0 0)
(-24.1917 -0.198726 0 -0.00113224 0 0)
(-22.3927 -0.198378 0 -0.00120331 0 0)
(-20.505 -0.200544 0 -0.000982847 0 0)
(-18.7752 -0.20958 0 -0.00121562 0 0)
(-16.7207 -0.230674 0 4.27646e-06 0 0)
(-14.9018 -0.257202 0 -0.000975163 0 0)
(-12.2781 -0.351107 0 0.00731481 0 0)
(-9.82223 -0.426938 0 0.00212131 0 0)
(-50.358 -0.250025 0 0.00180882 0 0)
(-50.9378 -0.365053 0 -0.0012061 0 0)
(-51.3153 -0.368032 0 -0.00166051 0 0)
(-51.4454 -0.377061 0 -0.00194614 0 0)
(-51.3916 -0.395511 0 -0.00231228 0 0)
(-51.2215 -0.413672 0 -0.00265495 0 0)
(-50.9534 -0.428984 0 -0.0029528 0 0)
(-50.6085 -0.444801 0 -0.00322213 0 0)
(-50.1657 -0.460979 0 -0.00349951 0 0)
(-49.6533 -0.48153 0 -0.00373037 0 0)
(-49.0257 -0.504826 0 -0.00403554 0 0)
(-48.3409 -0.536701 0 -0.00411866 0 0)
(-47.4994 -0.576474 0 -0.00438134 0 0)
(-46.6086 -0.631288 0 -0.00364233 0 0)
(-45.4684 -0.710881 0 -0.00318549 0 0)
(-44.2574 -0.819236 0 0.00132084 0 0)
(-42.6431 -1.00824 0 0.00783735 0 0)
(-40.8378 -1.26412 0 0.0367769 0 0)
(-50.0763 -0.173693 0 0.00291599 0 0)
(-50.4017 -0.280066 0 0.000165634 0 0)
(-50.6878 -0.292037 0 -0.000538114 0 0)
(-50.8594 -0.304881 0 -0.000846286 0 0)
(-50.9477 -0.331239 0 -0.00123064 0 0)
(-50.9984 -0.359424 0 -0.0016156 0 0)
(-51.0294 -0.3842 0 -0.00191923 0 0)
(-51.0427 -0.409281 0 -0.00218525 0 0)
(-51.0317 -0.43609 0 -0.00238048 0 0)
(-50.9921 -0.469613 0 -0.00261028 0 0)
(-50.9205 -0.508223 0 -0.00264469 0 0)
(-50.8104 -0.558631 0 -0.00269984 0 0)
(-50.664 -0.61899 0 -0.00194523 0 0)
(-50.4627 -0.701736 0 -0.00089924 0 0)
(-50.2281 -0.810808 0 0.00313699 0 0)
(-49.9217 -0.966157 0 0.00994049 0 0)
(-49.629 -1.18749 0 0.0289296 0 0)
(-49.2923 -1.48046 0 0.0698625 0 0)
(-49.9202 -0.140807 0 0.00322704 0 0)
(-50.167 -0.287212 0 0.000304082 0 0)
(-50.4043 -0.31912 0 -0.000723682 0 0)
(-50.5517 -0.332923 0 -0.00110003 0 0)
(-50.619 -0.357892 0 -0.00149509 0 0)
(-50.6456 -0.387449 0 -0.00190946 0 0)
(-50.6542 -0.414651 0 -0.00224849 0 0)
(-50.6475 -0.440622 0 -0.00247569 0 0)
(-50.6229 -0.46837 0 -0.00261943 0 0)
(-50.5769 -0.501788 0 -0.00263993 0 0)
(-50.5111 -0.543088 0 -0.00252616 0 0)
(-50.422 -0.595351 0 -0.0020486 0 0)
(-50.3141 -0.662355 0 -0.000933276 0 0)
(-50.1835 -0.749935 0 0.00156686 0 0)
(-50.0436 -0.867544 0 0.00677739 0 0)
(-49.907 -1.02463 0 0.0176723 0 0)
(-49.8078 -1.229 0 0.0402295 0 0)
(-49.7994 -1.47237 0 0.0852459 0 0)
(-50.1813 -0.120292 0 0.00404631 0 0)
(-50.3677 -0.236248 0 0.00141783 0 0)
(-50.5503 -0.275709 0 0.000198954 0 0)
(-50.6666 -0.295026 0 -0.000203469 0 0)
(-50.7149 -0.322777 0 -0.000538438 0 0)
(-50.7288 -0.35664 0 -0.000888928 0 0)
(-50.7312 -0.38938 0 -0.00116061 0 0)
(-50.7238 -0.421112 0 -0.00131196 0 0)
(-50.6997 -0.454972 0 -0.00130696 0 0)
(-50.6542 -0.494894 0 -0.001126 0 0)
(-50.5849 -0.543075 0 -0.000630373 0 0)
(-50.4929 -0.602284 0 0.000398067 0 0)
(-50.3784 -0.675819 0 0.00247323 0 0)
(-50.2489 -0.76878 0 0.00648294 0 0)
(-50.11 -0.887494 0 0.0140239 0 0)
(-49.9867 -1.03789 0 0.0285099 0 0)
(-49.8921 -1.21816 0 0.0546207 0 0)
(-49.8691 -1.41684 0 0.102356 0 0)
(-50.0047 -0.0926646 0 0.00436477 0 0)
(-50.1554 -0.226123 0 0.00153964 0 0)
(-50.3145 -0.281651 0 0.000107035 0 0)
(-50.4351 -0.307854 0 -0.000468703 0 0)
(-50.5002 -0.335332 0 -0.000820764 0 0)
(-50.5255 -0.368496 0 -0.00110911 0 0)
(-50.5313 -0.40269 0 -0.0013045 0 0)
(-50.5259 -0.436771 0 -0.0013381 0 0)
(-50.5069 -0.473334 0 -0.00116252 0 0)
(-50.4713 -0.516021 0 -0.000701366 0 0)
(-50.4162 -0.567487 0 0.000206523 0 0)
(-50.3436 -0.630533 0 0.00187391 0 0)
(-50.2538 -0.70793 0 0.00487532 0 0)
(-50.1557 -0.803685 0 0.0102945 0 0)
(-50.0537 -0.920885 0 0.019836 0 0)
(-49.9686 -1.06205 0 0.0368175 0 0)
(-49.9051 -1.2216 0 0.0653822 0 0)
(-49.892 -1.39113 0 0.113245 0 0)
(-50.0398 -0.0609518 0 0.00525736 0 0)
(-50.1099 -0.190153 0 0.00288588 0 0)
(-50.215 -0.253019 0 0.00138452 0 0)
(-50.3142 -0.286053 0 0.000742189 0 0)
(-50.3728 -0.31785 0 0.000387245 0 0)
(-50.395 -0.354921 0 0.000127375 0 0)
(-50.3979 -0.393325 0 4.39738e-06 0 0)
(-50.3901 -0.43138 0 0.000115865 0 0)
(-50.3698 -0.471827 0 0.000540038 0 0)
(-50.3338 -0.51884 0 0.00137161 0 0)
(-50.2796 -0.575036 0 0.00280064 0 0)
(-50.2108 -0.642605 0 0.00524894 0 0)
(-50.1291 -0.723239 0 0.0093949 0 0)
(-50.0436 -0.819963 0 0.0164642 0 0)
(-49.9574 -0.933934 0 0.0281478 0 0)
(-49.887 -1.06628 0 0.0475357 0 0)
(-49.8338 -1.21126 0 0.0780333 0 0)
(-49.8198 -1.36314 0 0.125302 0 0)
(-50.0343 -0.0880675 0 0.0041488 0 0)
(-50.0947 -0.184285 0 0.00197121 0 0)
(-50.1866 -0.249294 0 0.000708435 0 0)
(-50.2748 -0.288216 0 0.000145162 0 0)
(-50.3318 -0.320328 0 -9.16689e-05 0 0)
(-50.3581 -0.355739 0 -0.000177368 0 0)
(-50.3656 -0.394874 0 -0.000123875 0 0)
(-50.3617 -0.436453 0 0.000163855 0 0)
(-50.3458 -0.481357 0 0.00081063 0 0)
(-50.3158 -0.532344 0 0.0019829 0 0)
(-50.2705 -0.591888 0 0.00393472 0 0)
(-50.2124 -0.662277 0 0.00714807 0 0)
(-50.1448 -0.74504 0 0.0123326 0 0)
(-50.0743 -0.842092 0 0.0207323 0 0)
(-50.0057 -0.953332 0 0.0339461 0 0)
(-49.9484 -1.07841 0 0.0546853 0 0)
(-49.9063 -1.21213 0 0.0856182 0 0)
(-49.8892 -1.34977 0 0.130935 0 0)
(-50.0793 -0.0503276 0 0.00527788 0 0)
(-50.1256 -0.153513 0 0.00313689 0 0)
(-50.1952 -0.22072 0 0.00186616 0 0)
(-50.2735 -0.268578 0 0.00120046 0 0)
(-50.3286 -0.308674 0 0.00087708 0 0)
(-50.3509 -0.348428 0 0.00081372 0 0)
(-50.3497 -0.390315 0 0.0010053 0 0)
(-50.3361 -0.434852 0 0.00153566 0 0)
(-50.315 -0.48355 0 0.00252247 0 0)
(-50.2862 -0.538717 0 0.00414626 0 0)
(-50.2482 -0.602125 0 0.00669337 0 0)
(-50.2025 -0.675282 0 0.0107038 0 0)
(-50.1518 -0.75901 0 0.0169293 0 0)
(-50.102 -0.854398 0 0.0266003 0 0)
(-50.0569 -0.96096 0 0.0411684 0 0)
(-50.0236 -1.07812 0 0.0629245 0 0)
(-50.003 -1.20156 0 0.0938458 0 0)
(-50.0017 -1.32753 0 0.137036 0 0)
(-49.9576 -0.0659338 0 0.00587765 0 0)
(-49.9711 -0.149471 0 0.00375799 0 0)
(-50.0188 -0.217768 0 0.002114 0 0)
(-50.088 -0.270111 0 0.00137135 0 0)
(-50.1454 -0.311878 0 0.00108871 0 0)
(-50.1774 -0.35198 0 0.00111807 0 0)
(-50.188 -0.39483 0 0.00145223 0 0)
(-50.1868 -0.44105 0 0.00219294 0 0)
(-50.1807 -0.491325 0 0.00349767 0 0)
(-50.1714 -0.547566 0 0.00559135 0 0)
(-50.1571 -0.611609 0 0.00878375 0 0)
(-50.1371 -0.684968 0 0.0136077 0 0)
(-50.1119 -0.76825 0 0.0207624 0 0)
(-50.0853 -0.861815 0 0.0313719 0 0)
(-50.0598 -0.964655 0 0.0466511 0 0)
(-50.0409 -1.07544 0 0.068531 0 0)
(-50.0296 -1.19053 0 0.0983389 0 0)
(-50.0299 -1.30694 0 0.138446 0 0)
(-50.233 -0.0719648 0 0.00619651 0 0)
(-50.2815 -0.130637 0 0.00459895 0 0)
(-50.328 -0.196474 0 0.00331601 0 0)
(-50.38 -0.252696 0 0.00257459 0 0)
(-50.4271 -0.299355 0 0.00223892 0 0)
(-50.4603 -0.343236 0 0.00235168 0 0)
(-50.4765 -0.388296 0 0.00291288 0 0)
(-50.4788 -0.436184 0 0.00397521 0 0)
(-50.4712 -0.488315 0 0.00568703 0 0)
(-50.4558 -0.546588 0 0.00830161 0 0)
(-50.4324 -0.612588 0 0.0121361 0 0)
(-50.4027 -0.68746 0 0.0176924 0 0)
(-50.369 -0.771344 0 0.0255967 0 0)
(-50.3361 -0.864061 0 0.0368421 0 0)
(-50.3055 -0.96411 0 0.052396 0 0)
(-50.2829 -1.07023 0 0.0738195 0 0)
(-50.2665 -1.17921 0 0.101921 0 0)
(-50.2632 -1.28913 0 0.138506 0 0)
(-49.809 -0.0384298 0 0.00624857 0 0)
(-49.8493 -0.124309 0 0.00413241 0 0)
(-49.8915 -0.192046 0 0.00262108 0 0)
(-49.9402 -0.245924 0 0.00200321 0 0)
(-49.9905 -0.292592 0 0.00195555 0 0)
(-50.0361 -0.337956 0 0.0023226 0 0)
(-50.0717 -0.385181 0 0.00310358 0 0)
(-50.0971 -0.435996 0 0.00439948 0 0)
(-50.1144 -0.491527 0 0.0063739 0 0)
(-50.1251 -0.552836 0 0.00928931 0 0)
(-50.1297 -0.620648 0 0.013485 0 0)
(-50.1298 -0.695841 0 0.0194644 0 0)
(-50.127 -0.778355 0 0.0278019 0 0)
(-50.1248 -0.868245 0 0.0393584 0 0)
(-50.1242 -0.963909 0 0.0548867 0 0)
(-50.1292 -1.06464 0 0.0755923 0 0)
(-50.1378 -1.16722 0 0.10195 0 0)
(-50.1554 -1.27103 0 0.135307 0 0)
(-49.9642 -0.0569627 0 0.00745357 0 0)
(-49.9631 -0.11767 0 0.00619374 0 0)
(-49.988 -0.174348 0 0.0043561 0 0)
(-50.031 -0.229536 0 0.00363818 0 0)
(-50.0808 -0.279977 0 0.00361731 0 0)
(-50.13 -0.32645 0 0.0041303 0 0)
(-50.1734 -0.37284 0 0.00512532 0 0)
(-50.2087 -0.42293 0 0.00669579 0 0)
(-50.2351 -0.478565 0 0.00903614 0 0)
(-50.2521 -0.540417 0 0.0124233 0 0)
(-50.2601 -0.608631 0 0.0171634 0 0)
(-50.2622 -0.683803 0 0.0236911 0 0)
(-50.2625 -0.765796 0 0.032456 0 0)
(-50.265 -0.85446 0 0.0441742 0 0)
(-50.2723 -0.948048 0 0.0593933 0 0)
(-50.2858 -1.04558 0 0.079148 0 0)
(-50.3062 -1.14405 0 0.103571 0 0)
(-50.3323 -1.24337 0 0.133802 0 0)
(-50.0651 -0.0623392 0 0.00818382 0 0)
(-50.0848 -0.118276 0 0.00683485 0 0)
(-50.1093 -0.177555 0 0.00520737 0 0)
(-50.1407 -0.230585 0 0.00443119 0 0)
(-50.1775 -0.276316 0 0.00441673 0 0)
(-50.2146 -0.319985 0 0.00507162 0 0)
(-50.2465 -0.366914 0 0.00629384 0 0)
(-50.2725 -0.420389 0 0.00806778 0 0)
(-50.2941 -0.48107 0 0.0104726 0 0)
(-50.3122 -0.54813 0 0.0137507 0 0)
(-50.327 -0.620065 0 0.0182751 0 0)
(-50.3402 -0.696326 0 0.0245508 0 0)
(-50.3538 -0.776212 0 0.0330351 0 0)
(-50.3705 -0.860044 0 0.0443261 0 0)
(-50.3908 -0.94674 0 0.0587579 0 0)
(-50.4169 -1.03676 0 0.0770318 0 0)
(-50.4461 -1.12764 0 0.0990025 0 0)
(-50.4818 -1.22029 0 0.125487 0 0)
(-49.7745 -0.0276768 0 0.00924707 0 0)
(-49.8307 -0.0925845 0 0.00849324 0 0)
(-49.8708 -0.150123 0 0.00707457 0 0)
(-49.9058 -0.20538 0 0.00637574 0 0)
(-49.9419 -0.256855 0 0.00651152 0 0)
(-49.9773 -0.304781 0 0.00738358 0 0)
(-50.0102 -0.35208 0 0.00884039 0 0)
(-50.0434 -0.402575 0 0.0109226 0 0)
(-50.0798 -0.458463 0 0.0137915 0 0)
(-50.1196 -0.5204 0 0.0176801 0 0)
(-50.1615 -0.587904 0 0.0228357 0 0)
(-50.204 -0.660865 0 0.0295877 0 0)
(-50.2473 -0.738524 0 0.0381923 0 0)
(-50.2908 -0.820801 0 0.0490766 0 0)
(-50.3363 -0.906039 0 0.0623394 0 0)
(-50.3829 -0.994272 0 0.0785655 0 0)
(-50.434 -1.08266 0 0.0974093 0 0)
(-50.4857 -1.17256 0 0.1196 0 0)
(-50.4989 -0.0231588 0 0.010708 0 0)
(-50.481 -0.0958132 0 0.00901811 0 0)
(-50.4695 -0.149444 0 0.00649825 0 0)
(-50.4823 -0.196807 0 0.0056455 0 0)
(-50.5172 -0.242942 0 0.00593772 0 0)
(-50.559 -0.288578 0 0.00690312 0 0)
(-50.5962 -0.335102 0 0.00840587 0 0)
(-50.6282 -0.385476 0 0.0105424 0 0)
(-50.6588 -0.441848 0 0.0134209 0 0)
(-50.6907 -0.504778 0 0.0171619 0 0)
(-50.7251 -0.573196 0 0.0219279 0 0)
(-50.7627 -0.645955 0 0.028017 0 0)
(-50.8035 -0.72128 0 0.0356774 0 0)
(-50.8482 -0.798821 0 0.0452496 0 0)
(-50.8971 -0.877095 0 0.05676 0 0)
(-50.9511 -0.957248 0 0.0705408 0 0)
(-51.0099 -1.0371 0 0.086174 0 0)
(-51.0747 -1.11941 0 0.104125 0 0)
(-49.8457 -0.0596823 0 0.0107234 0 0)
(-49.8187 -0.10217 0 0.0089307 0 0)
(-49.8152 -0.145253 0 0.00597769 0 0)
(-49.849 -0.18849 0 0.00533238 0 0)
(-49.9025 -0.233032 0 0.00593648 0 0)
(-49.9552 -0.278792 0 0.0071518 0 0)
(-50 -0.32575 0 0.00884169 0 0)
(-50.0403 -0.374672 0 0.0111076 0 0)
(-50.0805 -0.426481 0 0.0141102 0 0)
(-50.1251 -0.482244 0 0.018006 0 0)
(-50.1757 -0.542214 0 0.0228784 0 0)
(-50.2348 -0.606682 0 0.0288311 0 0)
(-50.2999 -0.674539 0 0.0358974 0 0)
(-50.3725 -0.745611 0 0.0442668 0 0)
(-50.4474 -0.817838 0 0.0538883 0 0)
(-50.5303 -0.891943 0 0.065056 0 0)
(-50.6118 -0.964965 0 0.0774083 0 0)
(-50.7052 -1.03972 0 0.091378 0 0)
(-49.6424 -0.0631193 0 0.0107454 0 0)
(-49.6623 -0.0676684 0 0.0101796 0 0)
(-49.6956 -0.099638 0 0.00814388 0 0)
(-49.7476 -0.142258 0 0.00733252 0 0)
(-49.8102 -0.186035 0 0.00739411 0 0)
(-49.8765 -0.230181 0 0.00814156 0 0)
(-49.9439 -0.276079 0 0.00944936 0 0)
(-50.0124 -0.324307 0 0.0112898 0 0)
(-50.0822 -0.374424 0 0.0137402 0 0)
(-50.1535 -0.426501 0 0.0169155 0 0)
(-50.2277 -0.480511 0 0.0208794 0 0)
(-50.3063 -0.537151 0 0.0256892 0 0)
(-50.3906 -0.595901 0 0.0313281 0 0)
(-50.4803 -0.657286 0 0.0378752 0 0)
(-50.5756 -0.719627 0 0.0452113 0 0)
(-50.6749 -0.784138 0 0.0535127 0 0)
(-50.779 -0.847946 0 0.0624584 0 0)
(-50.8853 -0.914333 0 0.0722829 0 0)
(-49.937 -0.0416797 0 0.0113466 0 0)
(-49.9881 -0.0606898 0 0.010487 0 0)
(-50.0494 -0.0832154 0 0.00798368 0 0)
(-50.1158 -0.110266 0 0.00713781 0 0)
(-50.1886 -0.141715 0 0.0074039 0 0)
(-50.2672 -0.177095 0 0.0083576 0 0)
(-50.3506 -0.216448 0 0.00976074 0 0)
(-50.4386 -0.259225 0 0.0115349 0 0)
(-50.5303 -0.303913 0 0.0137307 0 0)
(-50.6246 -0.349613 0 0.0164437 0 0)
(-50.7215 -0.395964 0 0.0197182 0 0)
(-50.8215 -0.443671 0 0.023576 0 0)
(-50.9256 -0.492645 0 0.0279713 0 0)
(-51.0336 -0.543637 0 0.0329216 0 0)
(-51.1464 -0.5954 0 0.0383093 0 0)
(-51.2629 -0.649093 0 0.0442326 0 0)
(-51.3843 -0.70217 0 0.0504688 0 0)
(-51.5077 -0.757622 0 0.0571819 0 0)
(-50.0301 -0.00661874 0 0.0132859 0 0)
(-50.0766 -0.0174926 0 0.0115661 0 0)
(-50.1225 -0.031964 0 0.00840428 0 0)
(-50.1768 -0.0520232 0 0.00713462 0 0)
(-50.2392 -0.0768501 0 0.00705288 0 0)
(-50.3102 -0.105586 0 0.00764756 0 0)
(-50.3899 -0.138017 0 0.00866528 0 0)
(-50.4771 -0.17359 0 0.00996442 0 0)
(-50.5712 -0.211307 0 0.0115052 0 0)
(-50.6717 -0.250511 0 0.0133289 0 0)
(-50.7779 -0.29053 0 0.0154864 0 0)
(-50.8889 -0.331296 0 0.0180227 0 0)
(-51.0029 -0.372139 0 0.0209332 0 0)
(-51.1196 -0.413552 0 0.0242289 0 0)
(-51.2385 -0.454683 0 0.0278144 0 0)
(-51.3606 -0.49711 0 0.0317431 0 0)
(-51.4855 -0.539053 0 0.0358529 0 0)
(-51.6147 -0.583715 0 0.040163 0 0)
(-50.1695 0.00979832 0 0.0112756 0 0)
(-50.2232 -0.00821473 0 0.0104769 0 0)
(-50.2915 -0.0193882 0 0.00782594 0 0)
(-50.3718 -0.0299908 0 0.00678742 0 0)
(-50.4575 -0.044906 0 0.00669096 0 0)
(-50.5447 -0.0653479 0 0.00713956 0 0)
(-50.6334 -0.0892136 0 0.00792065 0 0)
(-50.7253 -0.114664 0 0.00894205 0 0)
(-50.8219 -0.141217 0 0.0101829 0 0)
(-50.9242 -0.16959 0 0.0116539 0 0)
(-51.0324 -0.200246 0 0.0133478 0 0)
(-51.146 -0.233403 0 0.015252 0 0)
(-51.2641 -0.268128 0 0.0173447 0 0)
(-51.3863 -0.304006 0 0.0196498 0 0)
(-51.5115 -0.339476 0 0.022136 0 0)
(-51.6397 -0.375062 0 0.024877 0 0)
(-51.7704 -0.409064 0 0.0277673 0 0)
(-51.9041 -0.443819 0 0.0308275 0 0)
(-50.0586 0.0368197 0 0.0115446 0 0)
(-50.0679 0.0385209 0 0.0103551 0 0)
(-50.1055 0.0346315 0 0.00762665 0 0)
(-50.1789 0.0241032 0 0.00624738 0 0)
(-50.2733 0.00712174 0 0.00578634 0 0)
(-50.3738 -0.0150929 0 0.00587096 0 0)
(-50.4743 -0.0398381 0 0.00627322 0 0)
(-50.5755 -0.0649766 0 0.00689391 0 0)
(-50.6801 -0.0899066 0 0.00770032 0 0)
(-50.7899 -0.115175 0 0.00868158 0 0)
(-50.9056 -0.141077 0 0.0098345 0 0)
(-51.0275 -0.167935 0 0.0111604 0 0)
(-51.155 -0.195309 0 0.0126481 0 0)
(-51.2878 -0.223363 0 0.0142945 0 0)
(-51.4243 -0.251282 0 0.0160499 0 0)
(-51.5643 -0.279881 0 0.0179646 0 0)
(-51.7056 -0.307864 0 0.0199593 0 0)
(-51.8491 -0.337222 0 0.0220246 0 0)
(-49.8866 -0.0123773 0 0.00882287 0 0)
(-49.9573 0.0232385 0 0.00731122 0 0)
(-50.0343 0.0412318 0 0.00537427 0 0)
(-50.1205 0.046014 0 0.00466246 0 0)
(-50.2204 0.0417414 0 0.00462436 0 0)
(-50.3305 0.0314313 0 0.00487979 0 0)
(-50.4463 0.0172712 0 0.00524262 0 0)
(-50.5674 0.00114041 0 0.00569178 0 0)
(-50.6952 -0.0157721 0 0.0062681 0 0)
(-50.829 -0.0333362 0 0.00699025 0 0)
(-50.9671 -0.0517369 0 0.00785077 0 0)
(-51.1076 -0.0714518 0 0.00883982 0 0)
(-51.2498 -0.0923381 0 0.00993597 0 0)
(-51.393 -0.114581 0 0.0111356 0 0)
(-51.5373 -0.137337 0 0.0123991 0 0)
(-51.6821 -0.160935 0 0.0137663 0 0)
(-51.8278 -0.18404 0 0.015186 0 0)
(-51.9742 -0.207911 0 0.016665 0 0)
(-49.9598 0.0801587 0 0.00814959 0 0)
(-50.0588 0.0768473 0 0.00584216 0 0)
(-50.1674 0.0887042 0 0.00374528 0 0)
(-50.2807 0.091534 0 0.00300128 0 0)
(-50.3915 0.0833756 0 0.00290984 0 0)
(-50.4992 0.0711041 0 0.00307788 0 0)
(-50.6079 0.0583132 0 0.00334229 0 0)
(-50.7221 0.0450964 0 0.00366893 0 0)
(-50.8436 0.0308899 0 0.00407113 0 0)
(-50.9712 0.0153693 0 0.00456467 0 0)
(-51.1028 -0.00135911 0 0.00514839 0 0)
(-51.2374 -0.0193424 0 0.00581409 0 0)
(-51.375 -0.0382128 0 0.00654829 0 0)
(-51.5168 -0.0579004 0 0.00734462 0 0)
(-51.6623 -0.0776192 0 0.00818293 0 0)
(-51.8122 -0.0976555 0 0.009091 0 0)
(-51.9643 -0.116943 0 0.0100344 0 0)
(-52.1196 -0.136574 0 0.0110148 0 0)
(-49.7854 0.0521755 0 0.00776627 0 0)
(-49.8157 0.0975571 0 0.00555712 0 0)
(-49.8996 0.123388 0 0.00362061 0 0)
(-50.0194 0.13109 0 0.00280638 0 0)
(-50.142 0.128564 0 0.00255218 0 0)
(-50.2569 0.123659 0 0.002588 0 0)
(-50.3684 0.118265 0 0.00276341 0 0)
(-50.4821 0.111309 0 0.00300081 0 0)
(-50.6 0.102386 0 0.00328268 0 0)
(-50.7222 0.0919897 0 0.00361831 0 0)
(-50.8497 0.0807786 0 0.00401673 0 0)
(-50.9841 0.0690075 0 0.00447971 0 0)
(-51.1269 0.056995 0 0.00500178 0 0)
(-51.2776 0.0445746 0 0.005581 0 0)
(-51.435 0.0319826 0 0.00619183 0 0)
(-51.5965 0.0187332 0 0.00686116 0 0)
(-51.7608 0.00547794 0 0.0075565 0 0)
(-51.9253 -0.0086737 0 0.00825915 0 0)
(-50.1296 0.060414 0 0.00750151 0 0)
(-50.2355 0.120097 0 0.00567464 0 0)
(-50.3876 0.136341 0 0.00385118 0 0)
(-50.5464 0.135293 0 0.00309268 0 0)
(-50.6801 0.13107 0 0.00285637 0 0)
(-50.7929 0.127213 0 0.00279617 0 0)
(-50.9053 0.122431 0 0.00277972 0 0)
(-51.0303 0.115592 0 0.00280036 0 0)
(-51.168 0.107409 0 0.00288275 0 0)
(-51.3135 0.0993649 0 0.00303337 0 0)
(-51.462 0.0922544 0 0.00323718 0 0)
(-51.6109 0.0857825 0 0.00347633 0 0)
(-51.7591 0.0793068 0 0.00374972 0 0)
(-51.9064 0.0718921 0 0.00406951 0 0)
(-52.0533 0.0632845 0 0.00442235 0 0)
(-52.2002 0.0531958 0 0.00482562 0 0)
(-52.3481 0.0423052 0 0.00525011 0 0)
(-52.4972 0.0304614 0 0.00566755 0 0)
(-50.037 0.104457 0 0.00574766 0 0)
(-50.1383 0.195694 0 0.00320359 0 0)
(-50.2648 0.216129 0 0.0017409 0 0)
(-50.3902 0.209346 0 0.0012896 0 0)
(-50.5016 0.204639 0 0.00110673 0 0)
(-50.6105 0.205314 0 0.00103866 0 0)
(-50.7296 0.206449 0 0.00102513 0 0)
(-50.8609 0.205374 0 0.00104413 0 0)
(-51.0002 0.201974 0 0.00110359 0 0)
(-51.143 0.196764 0 0.00120717 0 0)
(-51.2869 0.190233 0 0.00134892 0 0)
(-51.4308 0.182645 0 0.00152383 0 0)
(-51.5743 0.174405 0 0.00172813 0 0)
(-51.7174 0.165829 0 0.0019602 0 0)
(-51.8608 0.157441 0 0.00220833 0 0)
(-52.0058 0.149245 0 0.00248809 0 0)
(-52.1535 0.141606 0 0.00278251 0 0)
(-52.3049 0.134012 0 0.0030818 0 0)
(-50.11 0.069754 0 0.00472725 0 0)
(-50.3236 0.137181 0 0.00243038 0 0)
(-50.5369 0.156184 0 0.00136186 0 0)
(-50.6963 0.158324 0 0.000992278 0 0)
(-50.8195 0.164159 0 0.000824338 0 0)
(-50.9392 0.171926 0 0.000722288 0 0)
(-51.0696 0.176453 0 0.000664482 0 0)
(-51.2084 0.177212 0 0.000641505 0 0)
(-51.3495 0.176091 0 0.000643782 0 0)
(-51.4904 0.174504 0 0.00066786 0 0)
(-51.6322 0.172717 0 0.000712057 0 0)
(-51.7764 0.170652 0 0.000774258 0 0)
(-51.9246 0.168075 0 0.000855493 0 0)
(-52.0761 0.165138 0 0.000954798 0 0)
(-52.2317 0.16187 0 0.0010684 0 0)
(-52.3888 0.158599 0 0.00120607 0 0)
(-52.5494 0.155358 0 0.00135961 0 0)
(-52.7091 0.152255 0 0.00151521 0 0)
(-50.2897 0.222535 0 0.00262848 0 0)
(-50.6395 0.300585 0 8.04274e-05 0 0)
(-50.9452 0.287068 0 -0.000412308 0 0)
(-51.1546 0.277524 0 -0.000517053 0 0)
(-51.2998 0.279601 0 -0.000629316 0 0)
(-51.4159 0.283439 0 -0.000722498 0 0)
(-51.5142 0.284947 0 -0.000778771 0 0)
(-51.5957 0.284128 0 -0.000794893 0 0)
(-51.6611 0.281809 0 -0.000780446 0 0)
(-51.7151 0.278839 0 -0.000748656 0 0)
(-51.7604 0.275534 0 -0.000704725 0 0)
(-51.801 0.272179 0 -0.000651756 0 0)
(-51.8359 0.268593 0 -0.000587177 0 0)
(-51.8688 0.265039 0 -0.000513541 0 0)
(-51.8956 0.261262 0 -0.000430984 0 0)
(-51.9238 0.257797 0 -0.000339333 0 0)
(-51.9444 0.254383 0 -0.000240207 0 0)
(-51.9725 0.251744 0 -0.000148428 0 0)
(-49.054 0.102785 0 0.00246776 0 0)
(-47.4942 0.197251 0 0.000418246 0 0)
(-45.9136 0.192775 0 0.000117038 0 0)
(-44.3399 0.187193 0 -1.27835e-06 0 0)
(-42.829 0.187147 0 -0.000124382 0 0)
(-41.4053 0.185557 0 -0.000202544 0 0)
(-40.0734 0.181014 0 -0.000233834 0 0)
(-38.8315 0.175057 0 -0.000241745 0 0)
(-37.6734 0.169142 0 -0.000240951 0 0)
(-36.5937 0.163864 0 -0.000238255 0 0)
(-35.5848 0.159031 0 -0.000233813 0 0)
(-34.6441 0.154365 0 -0.000225278 0 0)
(-33.7639 0.149594 0 -0.000210369 0 0)
(-32.9456 0.144896 0 -0.00019283 0 0)
(-32.177 0.140309 0 -0.000174049 0 0)
(-31.466 0.136216 0 -0.000151869 0 0)
(-30.7897 0.132478 0 -0.00013226 0 0)
(-30.1715 0.129545 0 -0.000125811 0 0)
(-0.0133461 0.0353639 -2.43379e-22 -0.0789699 4.95507e-22 4.1717e-39)
(-0.0516822 0.00300858 5.9348e-22 0.0209341 -2.63948e-22 4.10553e-39)
(0.0837462 -0.113021 0 0.0467389 0 0)
(0.430076 -0.191973 0 0.00989895 0 0)
(0.802019 -0.130756 0 -0.0701323 0 0)
(0.964341 0.0414669 -5.23981e-22 -0.124129 -4.10955e-22 3.86045e-39)
(0.784457 0.244599 0 -0.126413 0 0)
(0.270061 0.390577 0 -0.0881764 0 0)
(-0.433126 0.43518 0 -0.0297755 0 0)
(-1.15535 0.382665 0 0.0268911 0 0)
(-1.72539 0.262735 -1.53546e-21 0.0653515 4.82892e-22 3.54712e-39)
(-2.06063 0.139396 0 0.0774182 0 0)
(-2.1595 0.0422734 0 0.0760387 0 0)
(-2.03982 -0.0680723 0 0.0764262 0 0)
(-1.74864 -0.206014 0 0.0758967 0 0)
(-1.28521 -0.377105 -3.11307e-21 0.0736445 1.61321e-22 3.26541e-39)
(-0.591026 -0.335447 0 0.0549739 0 0)
(-0.0748918 -0.059869 0 0.0491653 0 0)
(0.251839 0.0799549 0 0.0667202 0 0)
(0.411589 0.118189 0 0.0874102 0 0)
(0.595461 0.119643 0 0.108797 0 0)
(0.956204 0.118321 0 0.132948 0 0)
(1.55235 0.0642633 0 0.142627 0 0)
(2.25451 -0.1047 -3.60207e-21 0.119625 -8.26723e-23 2.87744e-39)
(3.21058 -0.307579 3.47389e-21 0.119381 1.98543e-22 2.83279e-39)
(4.19696 -0.286023 -3.29901e-21 0.143814 -2.63849e-22 2.78867e-39)
(5.10255 -0.189241 -3.11319e-21 0.209716 -3.00284e-22 2.74499e-39)
(5.97796 -0.098067 0 0.278783 0 0)
(6.71216 -0.0401288 0 0.256288 0 0)
(7.36722 -0.141737 2.61296e-21 0.280875 1.45862e-22 2.61148e-39)
(8.02134 -0.259588 2.5372e-21 0.276396 1.81469e-22 2.56569e-39)
(8.71639 -0.336652 0 0.260921 0 0)
(9.49262 -0.399021 0 0.25276 0 0)
(10.3279 -0.462595 2.5596e-21 0.261373 9.93007e-23 2.43147e-39)
(11.2235 -0.538216 0 0.284341 0 0)
(12.2429 -0.609977 0 0.327264 0 0)
(13.4759 -0.725919 -2.98451e-21 0.398476 6.15904e-23 2.30228e-39)
(15.0091 -0.877871 0 0.430692 0 0)
(16.7788 -1.00261 -3.64113e-21 0.400425 1.70168e-22 2.21985e-39)
(18.4954 -0.96807 -7.93972e-21 0.321944 3.97106e-22 8.7167e-39)
(19.7612 -0.70416 0 0.265327 0 0)
(20.3789 -0.401964 0 0.252266 0 0)
(20.385 -0.184531 0 0.277742 0 0)
(20.1066 -0.333325 0 0.28918 0 0)
(20.4735 -0.514877 0 0.344892 0 0)
(21.0624 -0.507695 -9.77283e-21 0.386436 4.02909e-22 7.79601e-39)
(21.7592 -0.912091 -9.84446e-21 0.404637 4.4223e-22 7.64824e-39)
(22.2532 -1.02527 -9.46662e-21 0.496906 4.59427e-22 7.50213e-39)
(22.6731 -0.343061 0 0.263738 0 0)
(22.2366 -0.129979 8.32008e-21 0.345627 4.16403e-22 7.21381e-39)
(22.2691 -0.254852 0 0.28134 0 0)
(22.4302 -0.302355 -6.97491e-21 0.275052 -1.76661e-22 6.93642e-39)
(22.6532 -0.282249 -6.50051e-21 0.255301 -1.62732e-22 6.80258e-39)
(22.8359 -0.301123 0 0.223196 0 0)
(23.2247 -0.338585 0 0.191563 0 0)
(23.4326 -0.677581 0 0.207397 0 0)
(23.7117 -0.47417 -6.45326e-21 0.198302 3.85977e-22 6.29507e-39)
(23.3999 -0.285594 0 0.297427 0 0)
(23.4834 -0.37203 0 0.240567 0 0)
(23.8626 -0.391488 0 0.211861 0 0)
(24.5047 -0.458679 0 0.175231 0 0)
(25.5131 -0.557757 0 0.145843 0 0)
(26.8353 -0.664422 0 0.12167 0 0)
(28.2416 -0.755698 0 0.109868 0 0)
(29.5215 -0.752791 0 0.102183 0 0)
(30.3412 -0.612969 1.27472e-20 0.168273 -5.07057e-22 5.28317e-39)
(30.8134 -0.575076 0 0.223977 0 0)
(31.1197 -0.556733 0 0.238045 0 0)
(31.2933 -0.533531 -1.34881e-20 0.249121 4.14608e-22 4.97217e-39)
(31.369 -0.501468 -1.33895e-20 0.246573 2.8521e-22 4.87137e-39)
(31.459 -0.480725 0 0.239665 0 0)
(31.6278 -0.457707 1.33597e-20 0.230445 -3.67578e-22 4.67452e-39)
(32.0232 -0.475215 -1.35412e-20 0.225069 4.96403e-22 4.57794e-39)
(32.6677 -0.500624 0 0.220811 0 0)
(33.2802 -0.459455 1.38057e-20 0.209499 -6.70727e-22 4.38569e-39)
(33.6603 -0.345543 0 0.18964 0 0)
(33.6731 -0.194174 0 0.167082 0 0)
(33.1262 -0.00340651 -1.21275e-20 0.149603 1.6642e-22 4.11225e-39)
(31.8155 0.229172 0 0.143877 0 0)
(29.5615 0.474217 1.07194e-20 0.15047 -2.2006e-23 3.94178e-39)
(26.4421 0.650166 0 0.16098 0 0)
(22.6687 0.645274 -9.08442e-21 0.161343 -1.95665e-22 3.78e-39)
(19.1117 0.539166 -8.27928e-21 0.166489 -1.3368e-22 3.70156e-39)
(15.3867 0.323346 -7.49629e-21 0.179851 -9.26066e-24 3.62435e-39)
(12.7493 -0.158191 -1.42835e-20 0.184057 6.05553e-22 1.41916e-38)
(9.76052 -0.4781 1.3392e-20 0.245962 -9.95039e-22 1.3889e-38)
(6.79433 -0.517028 0 0.262541 0 0)
(1.81386 0.329122 0 0.347811 0 0)
(-5.26386 1.90274 0 0.278795 0 0)
(-12.8776 1.76877 3.3576e-21 0.319902 1.4808e-21 1.26949e-38)
(-16.9218 0.979062 2.72643e-22 0.230785 5.31496e-22 1.24061e-38)
(-18.7234 0.416802 9.03917e-22 0.175037 2.23953e-22 1.21272e-38)
(-18.8155 -0.0103276 0 0.129501 0 0)
(-17.6415 -0.310934 2.53148e-21 0.0984622 -1.2142e-21 1.16004e-38)
(-15.5331 -0.525476 6.42442e-21 0.0749616 -1.46273e-21 1.13504e-38)
(-12.7413 -0.671551 1.12e-20 0.0572008 -1.59191e-21 1.11076e-38)
(-9.47129 -0.765146 0 0.0427781 0 0)
(-5.89572 -0.815362 0 0.0308685 0 0)
(-2.16451 -0.829478 0 0.0207085 0 0)
(1.58858 -0.812955 3.18967e-20 0.0120212 -1.3216e-21 1.01836e-38)
(5.24456 -0.772468 0 0.00463057 0 0)
(8.69713 -0.709193 0 -0.00154998 0 0)
(11.8612 -0.629154 -4.16113e-20 -0.0065076 6.79747e-22 9.51717e-39)
(14.663 -0.536369 0 -0.0102625 0 0)
(17.0532 -0.435819 0 -0.0128841 0 0)
(18.9971 -0.331558 -4.2259e-20 -0.0144771 2.72397e-24 8.86749e-39)
(20.4762 -0.227817 0 -0.0151709 0 0)
(21.4901 -0.12822 0 -0.0151159 0 0)
(22.0532 -0.0358698 3.48412e-20 -0.0144821 4.69367e-22 8.24192e-39)
(22.1957 0.0471152 3.12176e-20 -0.0134119 5.63087e-22 8.04034e-39)
(21.9598 0.118966 0 -0.012039 0 0)
(21.395 0.178716 -2.33026e-20 -0.010474 -6.57152e-22 7.64956e-39)
(20.5521 0.226582 0 -0.00878233 0 0)
(19.4812 0.263391 1.55307e-20 -0.00704717 6.50182e-22 7.27572e-39)
(18.2272 0.290212 0 -0.00536961 0 0)
(16.8298 0.308975 8.71382e-21 -0.00372186 5.83912e-22 6.91674e-39)
(15.3256 0.320795 5.7882e-21 -0.00211784 5.38778e-22 6.74291e-39)
(13.7487 0.326219 0 -0.000613631 0 0)
(12.131 0.325654 0 0.000738064 0 0)
(10.5024 0.319443 0 0.00190261 0 0)
(8.89022 0.308209 0 0.00283648 0 0)
(7.31847 0.292806 0 0.00351093 0 0)
(5.80779 0.275115 0 0.00404598 0 0)
(4.3751 0.256315 0 0.00434791 0 0)
(3.02459 0.237038 -6.14456e-21 0.00449549 2.09278e-22 5.47181e-39)
(1.76168 0.216744 6.61022e-21 0.00449614 -1.89307e-22 5.32374e-39)
(0.583861 0.197349 0 0.0043809 0 0)
(-0.511901 0.17939 0 0.00418747 0 0)
(-1.53053 0.162874 0 0.00395622 0 0)
(-2.47809 0.147809 0 0.00372064 0 0)
(-3.36101 0.134164 1.57546e-20 0.00350304 -2.72301e-22 1.85253e-38)
(-4.18549 0.121822 0 0.00331835 0 0)
(-4.95693 0.110597 -1.63635e-20 0.00317551 2.40039e-22 1.75012e-38)
(-5.67986 0.100284 1.6626e-20 0.00307822 -2.21709e-22 1.7006e-38)
(-6.35762 0.0906854 0 0.00302918 0 0)
(-6.99247 0.0816037 0 0.00303282 0 0)
(-7.58523 0.0728571 0 0.00309164 0 0)
(-8.13575 0.0642561 -1.73298e-20 0.00320434 1.30706e-22 1.51309e-38)
(-8.64276 0.0556308 -1.73898e-20 0.00336908 1.03094e-22 1.46873e-38)
(-9.10394 0.0468396 0 0.00358239 0 0)
(-9.51637 0.0377446 -1.7358e-20 0.00384019 5.31678e-23 1.38287e-38)
(-9.87598 0.0282909 -1.72685e-20 0.00413844 2.60572e-23 1.34133e-38)
(-10.1785 0.0184313 1.71296e-20 0.00447458 1.70483e-24 1.30069e-38)
(-10.4193 0.00816412 0 0.00484736 0 0)
(-10.5936 -0.00244931 0 0.00525805 0 0)
(-10.6971 -0.0134645 1.64706e-20 0.00571083 7.53719e-23 1.18398e-38)
(-10.7264 -0.0248451 0 0.00621814 0 0)
(-10.6789 -0.0363776 0 0.00680286 0 0)
(-10.5524 -0.0481406 0 0.00748765 0 0)
(-10.3433 -0.060177 0 0.00829154 0 0)
(-10.0471 -0.0720828 -1.48534e-20 0.00923944 -2.07592e-22 1.00583e-38)
(-9.65665 -0.0839348 -1.4403e-20 0.0103604 -2.31717e-22 9.7253e-39)
(-9.16136 -0.0954529 0 0.011725 0 0)
(-8.54986 -0.105624 -1.32486e-20 0.0135531 -3.0327e-22 9.08187e-39)
(-7.80947 -0.11359 0 0.0162443 0 0)
(-6.92718 -0.116145 0 0.0201664 0 0)
(-5.90114 -0.107296 -1.0259e-20 0.0255298 -3.55912e-22 8.17303e-39)
(-4.74799 -0.0835535 0 0.0317825 0 0)
(-3.50842 -0.0421728 -7.41018e-21 0.0375619 -2.2705e-22 7.60406e-39)
(-2.28464 0.0124665 0 0.0407271 0 0)
(-1.21099 0.0573171 0 0.0389246 0 0)
(-0.393633 0.0591233 -3.79501e-21 0.0333006 4.03989e-23 6.80011e-39)
(0.149691 0.0127176 0 0.0288185 0 0)
(0.609079 -0.0698052 -2.46988e-21 0.0272535 -2.6451e-22 6.29403e-39)
(1.15693 -0.108592 0 0.0250768 0 0)
(1.74677 -0.0993418 0 0.0198771 0 0)
(2.34217 -0.0700803 0 0.01704 0 0)
(2.89817 -0.0215753 -1.26882e-21 0.0174948 1.04889e-22 5.3564e-39)
(3.3041 0.0244128 0 0.0178661 0 0)
(3.4777 0.0501316 2.82147e-21 0.0169988 -6.28931e-23 4.92391e-39)
(3.50088 0.0263944 0 0.0130653 0 0)
(3.59305 0.00219208 0 0.00629798 0 0)
(3.67279 -0.00223997 0 0.00599171 0 0)
(3.70292 -0.0121199 0 0.00458158 0 0)
(3.71581 -0.0161064 0 0.00352608 0 0)
(3.72625 -0.0230888 0 0.00290916 0 0)
(3.74928 -0.0165137 0 0.00197385 0 0)
(3.73503 -0.0124761 -8.65061e-21 0.00116684 9.76819e-23 1.36487e-38)
(3.6443 0.0314267 0 0.000682044 0 0)
(3.34632 0.0964873 0 0.00378023 0 0)
(0.00672583 -0.0112754 2.42033e-23 -0.117348 -3.31661e-21 3.75391e-38)
(0.0342012 -0.121486 -3.95435e-24 0.308464 2.60417e-21 3.70029e-38)
(0.130562 -0.279175 0 0.609955 0 0)
(0.155799 -0.212509 -3.87332e-22 0.423862 -2.20445e-23 1.59227e-38)
(-0.0111278 0.202305 0 -0.188692 0 0)
(-0.460921 0.789282 -6.82967e-22 -0.706771 9.20065e-22 3.83797e-39)