/*--------------------------------*- C++ -*----------------------------------*\
  =========                 |
  \\      /  F ield         | OpenFOAM: The Open Source CFD Toolbox
   \\    /   O peration     | Website:  https://openfoam.org
    \\  /    A nd           | Version:  9
     \\/     M anipulation  |
\*---------------------------------------------------------------------------*/
FoamFile
{
    format      ascii;
    class       volScalarField;
    location    "0.1";
    object      epsilon;
}
// * * * * * * * * * * * * * * * * * * * * * * * * * * * * * * * * * * * * * //

dimensions      [0 2 -3 0 0 0 0];

internalField   nonuniform List<scalar> 
12225
(
278.515
263.66
249.434
236.839
226.739
219.486
215.075
213.273
213.722
216.015
219.749
224.555
230.114
236.164
242.506
248.977
255.639
265.337
61.1164
86.6968
97.9947
107.214
118.477
132.578
149.446
168.667
189.662
211.806
234.512
257.272
279.69
301.478
322.576
342.847
364.105
383.249
25.2776
36.1834
43.3827
48.6233
53.3902
58.3428
63.7815
69.8429
76.5526
83.8634
91.6863
99.914
108.438
117.164
126.036
135.054
144.422
154.183
17.5217
21.2988
24.7149
27.6109
30.1636
32.5428
34.871
37.2346
39.687
42.2552
44.9471
47.7591
50.6813
53.7039
56.822
60.0516
63.4243
66.9878
15.4879
16.752
18.186
19.5893
20.9102
22.1503
23.3283
24.4682
25.5908
26.7114
27.8402
28.9832
30.1435
31.3237
32.5267
33.7602
35.0323
36.3446
14.9084
15.2396
15.7464
16.3342
16.948
17.5595
18.1568
18.737
19.3023
19.8556
20.4005
20.9395
21.4752
22.0096
22.5449
23.0843
23.6306
24.1787
14.7451
14.7391
14.8342
15.0037
15.2217
15.4682
15.729
15.9955
16.263
16.5289
16.7923
17.0529
17.3107
17.5662
17.8202
18.0736
18.3272
18.577
14.7013
14.5825
14.5116
14.4858
14.4982
14.5404
14.6045
14.684
14.7741
14.8715
14.9735
15.0786
15.1857
15.2942
15.4036
15.5139
15.625
15.7342
14.6901
14.5373
14.407
14.3008
14.2182
14.1571
14.1146
14.0876
14.0734
14.0695
14.0739
14.085
14.1015
14.1225
14.1471
14.1749
14.2053
14.2367
14.6874
14.5252
14.3761
14.2411
14.1204
14.0137
13.9203
13.8391
13.7688
13.7084
13.6565
13.6121
13.5743
13.5423
13.5154
13.493
13.4746
13.4594
14.6868
14.5221
14.3677
14.2236
14.0896
13.9655
13.8511
13.7459
13.6494
13.561
13.48
13.406
13.3383
13.2764
13.2198
13.1681
13.1209
13.0779
14.6866
14.5213
14.3656
14.219
14.0812
13.9518
13.8304
13.7168
13.6104
13.511
13.418
13.3312
13.2502
13.1745
13.1039
13.038
12.9765
12.9196
14.6865
14.521
14.3648
14.2175
14.0785
13.9472
13.8234
13.7065
13.5962
13.4921
13.394
13.3014
13.2141
13.1317
13.0541
12.9809
12.9119
12.8475
14.6864
14.5208
14.3645
14.2169
14.0774
13.9456
13.8209
13.7029
13.5912
13.4854
13.3852
13.2903
13.2003
13.1151
13.0343
12.9577
12.8851
12.8171
14.6864
14.5207
14.3643
14.2165
14.0769
13.9449
13.8199
13.7016
13.5895
13.4832
13.3824
13.2867
13.1959
13.1097
13.0278
12.95
12.8762
12.8067
14.6863
14.5206
14.3641
14.2163
14.0766
13.9444
13.8193
13.7009
13.5886
13.4822
13.3812
13.2853
13.1943
13.1078
13.0256
12.9475
12.8732
12.8034
14.6863
14.5205
14.364
14.2161
14.0763
13.9441
13.8189
13.7004
13.5881
13.4815
13.3805
13.2845
13.1934
13.1068
13.0245
12.9463
12.8719
12.8019
14.6863
14.5204
14.3639
14.216
14.0761
13.9439
13.8187
13.7001
13.5877
13.4811
13.38
13.284
13.1928
13.1062
13.0238
12.9455
12.871
12.8009
14.6863
14.5204
14.3639
14.2159
14.0761
13.9438
13.8186
13.7
13.5875
13.4809
13.3798
13.2838
13.1925
13.1059
13.0235
12.9451
12.8706
12.8005
14.6863
14.5205
14.3639
14.216
14.0762
13.9439
13.8187
13.7002
13.5878
13.4812
13.3801
13.2841
13.1929
13.1062
13.0239
12.9455
12.8711
12.801
14.6863
14.5205
14.364
14.2162
14.0764
13.9443
13.8192
13.7008
13.5885
13.4822
13.3813
13.2855
13.1947
13.1084
13.0264
12.9484
12.8744
12.8048
14.6863
14.5206
14.3643
14.2167
14.0774
13.9457
13.8214
13.7039
13.5929
13.4879
13.3887
13.2948
13.206
13.122
13.0424
12.9671
12.8958
12.829
14.6865
14.5212
14.3659
14.2202
14.0837
13.9561
13.8368
13.7256
13.6218
13.5251
13.4348
13.3506
13.2721
13.1987
13.1301
13.066
13.006
12.9506
14.6876
14.5264
14.3794
14.2467
14.1282
14.0231
13.9302
13.8484
13.7762
13.7126
13.6564
13.6067
13.5627
13.5236
13.4888
13.4579
13.4303
13.4062
14.6976
14.5664
14.4707
14.4075
14.3714
14.3568
14.3584
14.3718
14.3939
14.4221
14.4547
14.4903
14.5281
14.5674
14.6077
14.6487
14.6902
14.732
14.7737
14.8186
14.9602
15.1591
15.3862
15.6231
15.8595
16.09
16.3129
16.5277
16.7349
16.9353
17.1298
17.3193
17.5045
17.6859
17.8641
18.0386
15.2587
16.1151
17.0711
17.9725
18.7875
19.5233
20.1937
20.8138
21.3974
21.9555
22.4963
23.0261
23.5492
24.0683
24.5852
25.1008
25.6153
26.1263
18.0414
22.0078
24.9883
27.1528
28.8876
30.4037
31.8107
33.1759
34.5402
35.9263
37.3451
38.8005
40.2916
41.8144
43.3633
44.932
46.5139
48.0962
34.0239
45.6873
51.3759
54.9408
58.0784
61.2941
64.7449
68.4747
72.4675
76.6802
81.0626
85.565
90.1409
94.7486
99.3524
103.924
108.447
112.894
163.308
157.417
151.704
146.261
141.3
136.947
133.249
130.205
127.779
125.916
124.555
123.632
123.087
122.862
122.906
123.174
123.625
124.224
1.64497
1.22045
1.74558
2.17031
2.53439
2.8632
3.18056
3.5167
3.88367
4.29194
4.75205
5.26895
5.84207
6.44828
7.03526
7.57797
8.05216
8.43831
8.72516
8.90934
8.97327
8.79935
8.85572
9.03675
9.04903
9.12916
38.8634
9.09783
39.0365
39.4935
39.6261
39.9908
42.956
46.1455
49.4444
52.834
56.3082
59.8645
63.5029
67.2257
71.0362
74.9393
78.94
83.0442
87.258
91.5875
96.0389
100.618
105.331
110.184
115.181
120.329
125.631
131.091
136.714
142.503
148.46
154.588
160.889
167.364
174.015
180.84
187.841
195.017
202.366
209.887
217.577
225.434
233.455
241.636
249.972
258.46
267.094
275.869
284.778
293.815
302.974
312.246
321.624
331.1
340.665
350.311
360.026
369.803
379.629
389.495
399.388
409.297
419.209
429.112
438.995
448.845
458.655
468.422
478.154
487.878
497.607
507.196
516.64
525.933
535.06
544.006
552.754
561.288
569.591
577.645
585.435
592.943
600.155
607.054
613.626
619.855
625.729
631.234
636.358
641.089
645.417
649.332
652.826
655.89
658.519
660.706
662.448
663.742
664.585
664.978
664.922
664.418
663.471
662.085
660.267
658.023
655.363
652.297
648.835
644.99
640.775
636.204
631.291
626.053
620.504
614.662
608.542
602.162
595.539
588.689
581.628
574.372
566.937
559.337
551.585
543.696
535.681
527.548
519.317
510.98
502.571
494.063
485.535
477.235
471.447
468.825
466.494
464.162
461.789
459.359
456.862
454.288
451.627
448.868
445.995
442.991
439.828
436.466
432.834
428.809
424.112
418.096
408.78
391.992
2.93578
2.02075
2.00152
2.11028
2.26834
2.46604
2.7103
3.00949
3.36888
3.79797
4.30961
4.8918
5.53964
6.23995
6.97411
7.72746
8.49231
9.27163
10.0848
10.9816
12.0657
13.4139
14.393
15.178
16.3077
17.6196
19.7782
20.8379
22.8879
24.4659
26.1775
27.8683
29.439
30.9785
32.5299
34.1086
35.7187
37.3628
39.0439
40.7646
42.5276
44.3354
46.1904
48.0948
50.0506
52.0599
54.1244
56.2457
58.4254
60.6649
62.9653
65.3277
67.7532
70.2423
72.7959
75.4143
78.098
80.8471
83.6617
86.5416
89.4866
92.4963
95.5701
98.7073
101.907
105.169
108.49
111.871
115.31
118.804
122.353
125.954
129.606
133.306
137.052
140.841
144.671
148.539
152.442
156.377
160.34
164.329
168.34
172.369
176.411
180.464
184.523
188.584
192.642
196.694
200.735
204.764
208.78
212.783
216.782
220.785
224.832
228.84
232.794
236.69
240.521
244.281
247.965
251.565
255.075
258.489
261.8
265.002
268.089
271.055
273.894
276.6
279.169
281.594
283.871
285.995
287.962
289.768
291.409
292.883
294.185
295.315
296.269
297.046
297.645
298.066
298.308
298.371
298.257
297.968
297.503
296.867
296.062
295.092
293.959
292.668
291.224
289.632
287.896
286.023
284.018
281.886
279.635
277.27
274.798
272.224
269.555
266.796
263.954
261.035
258.043
254.983
251.862
248.681
245.45
242.166
238.848
235.485
232.141
228.978
226.388
224.307
222.312
220.315
218.3
216.26
214.194
212.101
209.98
207.83
205.65
203.44
201.198
198.921
196.604
194.244
191.825
189.382
186.84
186.363
4.89544
2.97411
2.6989
2.69326
2.7951
2.97386
3.22078
3.53513
3.92236
4.39124
4.94799
5.59195
6.31647
7.10911
7.9541
8.83637
9.74468
10.6734
11.6231
12.6002
13.6147
14.6589
15.6608
16.65
17.6871
18.7652
19.916
21.0775
22.3027
23.5544
24.839
26.1192
27.3783
28.6421
29.928
31.2436
32.5913
33.9722
35.3876
36.8385
38.3263
39.8521
41.4172
43.0228
44.6701
46.3603
48.0944
49.8734
51.6983
53.57
55.4891
57.4564
59.4725
61.5379
63.6529
65.8179
68.0331
70.2985
72.6141
74.9799
77.3956
79.8608
82.3753
84.9383
87.5493
90.2075
92.912
95.662
98.4562
101.294
104.173
107.092
110.051
113.046
116.077
119.142
122.239
125.365
128.519
131.698
134.9
138.123
141.363
144.619
147.887
151.165
154.451
157.741
161.034
164.327
167.619
170.909
174.196
177.482
180.768
184.058
187.335
190.579
193.784
196.942
200.049
203.1
206.09
209.014
211.865
214.64
217.333
219.938
222.452
224.869
227.184
229.393
231.492
233.475
235.34
237.083
238.699
240.187
241.541
242.761
243.843
244.786
245.587
246.246
246.761
247.131
247.357
247.438
247.376
247.17
246.822
246.334
245.708
244.947
244.052
243.028
241.877
240.604
239.213
237.707
236.092
234.371
232.551
230.635
228.629
226.537
224.365
222.118
219.799
217.416
214.971
212.469
209.916
207.31
204.667
201.976
199.264
196.548
193.859
191.269
188.891
186.681
184.515
182.351
180.177
177.989
175.786
173.57
171.34
169.098
166.846
164.585
162.32
160.053
157.793
155.556
153.37
151.337
149.613
149.216
7.34065
4.07979
3.54664
3.45769
3.53611
3.71324
3.9666
4.29693
4.70931
5.20947
5.80061
6.48071
7.24149
8.06897
8.94561
9.85348
10.7773
11.7061
12.6343
13.5606
14.4869
15.4148
16.3436
17.283
18.2458
19.238
20.2662
21.3294
22.4277
23.5567
24.7117
25.8856
27.0759
28.2873
29.5252
30.7928
32.0918
33.4236
34.7889
36.1886
37.6238
39.0954
40.6043
42.1515
43.7381
45.365
47.0332
48.7436
50.4971
52.2946
54.1368
56.0245
57.9583
59.9389
61.9667
64.0421
66.1656
68.3374
70.5576
72.8264
75.1437
77.5094
79.9233
82.3851
84.8943
87.4504
90.0528
92.7007
95.3932
98.1294
100.908
103.728
106.588
109.487
112.423
115.394
118.398
121.435
124.501
127.595
130.714
133.857
137.02
140.203
143.401
146.613
149.837
153.07
156.31
159.554
162.802
166.052
169.302
172.55
175.796
179.029
182.24
185.418
188.558
191.653
194.699
197.691
200.622
203.489
206.285
209.006
211.646
214.201
216.665
219.034
221.302
223.466
225.52
227.462
229.286
230.988
232.566
234.017
235.336
236.521
237.571
238.482
239.254
239.884
240.372
240.716
240.917
240.975
240.89
240.662
240.294
239.787
239.142
238.362
237.449
236.408
235.24
233.95
232.541
231.019
229.386
227.648
225.811
223.877
221.853
219.743
217.554
215.289
212.953
210.553
208.092
205.573
203.008
200.386
197.736
195.057
192.361
189.66
186.977
184.349
181.818
179.36
176.929
174.502
172.071
169.633
167.189
164.739
162.286
159.832
157.379
154.931
152.493
150.074
147.686
145.352
143.117
141.088
139.43
138.673
10.1783
5.3294
4.5058
4.32482
4.3681
4.52844
4.78031
5.11752
5.54057
6.05114
6.64875
7.32857
8.08047
8.88964
9.73867
10.6103
11.4903
12.369
13.2422
14.1107
14.9784
15.8514
16.7364
17.6408
18.5713
19.5324
20.5271
21.556
22.6185
23.7126
24.8367
25.9889
27.169
28.378
29.6174
30.8887
32.193
33.5311
34.9039
36.3122
37.7567
39.2385
40.7584
42.3174
43.9164
45.5566
47.2388
48.9642
50.7338
52.5485
54.4093
56.3171
58.2728
60.2772
62.3311
64.4351
66.59
68.7961
71.054
73.364
75.7263
78.141
80.6083
83.1279
85.6998
88.3235
90.9986
93.7245
96.5004
99.3256
102.199
105.12
108.086
111.097
114.151
117.246
120.38
123.552
126.76
130.001
133.273
136.574
139.902
143.254
146.626
150.018
153.426
156.848
160.28
163.721
167.168
170.618
174.069
177.518
180.957
184.376
187.768
191.125
194.442
197.712
200.93
204.091
207.188
210.216
213.169
216.042
218.829
221.524
224.122
226.619
229.008
231.285
233.445
235.484
237.397
239.181
240.831
242.343
243.716
244.946
246.03
246.966
247.753
248.388
248.871
249.202
249.378
249.402
249.273
248.991
248.56
247.979
247.251
246.379
245.366
244.214
242.927
241.51
239.966
238.299
236.515
234.618
232.615
230.509
228.306
226.012
223.634
221.174
218.638
216.037
213.371
210.641
207.873
205.058
202.21
199.335
196.44
193.538
190.645
187.782
184.966
182.188
179.429
176.675
173.922
171.169
168.417
165.668
162.924
160.188
157.464
154.757
152.074
149.425
146.826
144.305
141.911
139.742
137.931
136.768
13.0608
6.65275
5.51724
5.22555
5.21035
5.3428
5.58096
5.90998
6.32466
6.82236
7.39935
8.04878
8.76004
9.5194
10.3118
11.1233
11.9428
12.764
13.5849
14.4077
15.2373
16.08
16.9421
17.8293
18.7461
19.6958
20.68
21.6995
22.7539
23.8427
24.9653
26.1213
27.3107
28.5338
29.7912
31.0838
32.4122
33.777
35.1791
36.6191
38.0979
39.6164
41.1755
42.7763
44.4198
46.1072
47.8396
49.6182
51.4443
53.319
55.2436
57.2193
59.2472
61.3285
63.4643
65.6555
67.903
70.2078
72.5706
74.9921
77.4728
80.013
82.6132
85.2735
87.9938
90.7741
93.614
96.5131
99.4709
102.486
105.559
108.687
111.87
115.106
118.393
121.73
125.115
128.546
132.02
135.535
139.089
142.679
146.302
149.956
153.637
157.343
161.071
164.816
168.577
172.349
176.129
179.914
183.7
187.482
191.246
194.986
198.694
202.364
205.99
209.564
213.081
216.534
219.917
223.223
226.447
229.581
232.619
235.556
238.385
241.101
243.697
246.169
248.511
250.719
252.786
254.709
256.485
258.108
259.576
260.886
262.035
263.02
263.84
264.492
264.977
265.293
265.439
265.417
265.226
264.868
264.344
263.657
262.808
261.8
260.636
259.32
257.856
256.249
254.502
252.621
250.61
248.476
246.226
243.863
241.393
238.823
236.163
233.415
230.576
227.677
224.712
221.687
218.613
215.494
212.338
209.153
205.946
202.728
199.512
196.31
193.134
189.979
186.839
183.707
180.58
177.461
174.349
171.249
168.163
165.094
162.049
159.032
156.052
153.121
150.257
147.49
144.869
142.478
140.416
138.845
15.7249
7.93638
6.4962
6.07549
5.99905
6.09739
6.31231
6.62054
7.01161
7.47932
8.01779
8.6195
9.27471
9.97205
10.6998
11.4477
12.208
12.9769
13.7539
14.5415
15.3439
16.1664
17.0138
17.8905
18.7997
19.7439
20.7245
21.7421
22.7971
23.8894
25.0191
26.1863
27.3911
28.634
29.9152
31.2354
32.5952
33.9951
35.4359
36.9183
38.4432
40.0116
41.6245
43.283
44.9883
46.7418
48.5449
50.3989
52.3054
54.2658
56.2817
58.3546
60.4861
62.6775
64.9305
67.2463
69.6263
72.0717
74.5836
77.163
79.8108
82.5277
85.3144
88.1712
91.0983
94.096
97.1639
100.302
103.509
106.786
110.13
113.54
117.017
120.556
124.158
127.82
131.54
135.316
139.144
143.023
146.95
150.921
154.933
158.983
163.068
167.184
171.326
175.492
179.677
183.876
188.086
192.302
196.519
200.726
204.909
209.063
213.181
217.255
221.278
225.243
229.144
232.971
236.719
240.38
243.946
247.411
250.768
254.009
257.129
260.119
262.975
265.69
268.258
270.673
272.931
275.026
276.954
278.711
280.294
281.698
282.922
283.963
284.818
285.486
285.967
286.259
286.362
286.277
286.004
285.545
284.901
284.076
283.071
281.891
280.537
279.014
277.326
275.481
273.482
271.334
269.041
266.612
264.056
261.377
258.575
255.663
252.658
249.559
246.371
243.108
239.775
236.379
232.928
229.429
225.89
222.318
218.723
215.114
211.5
207.892
204.298
200.719
197.153
193.598
190.055
186.525
183.011
179.517
176.046
172.603
169.194
165.826
162.509
159.255
156.085
153.028
150.129
147.461
145.09
143.113
18.0834
9.09505
7.35662
6.82157
6.6879
6.75065
6.93743
7.21772
7.57677
8.00588
8.49811
9.04623
9.64214
10.2771
10.9427
11.6317
12.3392
13.0627
13.8025
14.5605
15.3403
16.1455
16.9799
17.8468
18.7488
19.6878
20.6653
21.6821
22.7389
23.8362
24.9745
26.1541
27.3755
28.6393
29.9458
31.2958
32.6897
34.1284
35.6125
37.143
38.7207
40.3468
42.0225
43.749
45.5278
47.3605
49.2486
51.1939
53.1982
55.2633
57.3911
59.5836
61.8427
64.1702
66.5681
69.0382
71.5821
74.2016
76.898
79.673
82.5275
85.4628
88.4797
91.5789
94.7609
98.026
101.374
104.805
108.319
111.914
115.59
119.345
123.178
127.088
131.072
135.128
139.253
143.445
147.701
152.018
156.392
160.82
165.297
169.821
174.387
178.99
183.626
188.29
192.977
197.682
202.4
207.124
211.849
216.552
221.227
225.868
230.465
235.011
239.498
243.918
248.263
252.523
256.691
260.759
264.718
268.561
272.279
275.865
279.311
282.61
285.755
288.739
291.556
294.199
296.662
298.941
301.031
302.928
304.627
306.125
307.42
308.509
309.39
310.06
310.52
310.769
310.807
310.635
310.254
309.665
308.87
307.873
306.678
305.287
303.705
301.934
299.981
297.854
295.558
293.098
290.475
287.701
284.791
281.747
278.574
275.283
271.883
268.382
264.787
261.108
257.352
253.528
249.644
245.708
241.729
237.715
233.675
229.617
225.55
221.486
217.429
213.385
209.354
205.339
201.341
197.364
193.411
189.487
185.596
181.745
177.939
174.187
170.499
166.889
163.378
159.995
156.78
153.793
151.076
148.691
20.0118
10.0352
8.06215
7.43366
7.25035
7.27947
7.43729
7.68757
8.01236
8.40134
8.84721
9.34351
9.88389
10.462
11.0721
11.7093
12.3706
13.0544
13.7611
14.4922
15.2502
16.038
16.8584
17.7139
18.6068
19.5388
20.5115
21.5261
22.5836
23.685
24.831
26.0224
27.26
28.5444
29.8765
31.257
32.6867
34.1664
35.6971
37.2798
38.9157
40.6059
42.3519
44.1554
46.0178
47.9411
49.9273
51.9784
54.0965
56.2839
58.543
60.8761
63.2855
65.7737
68.3429
70.9954
73.7334
76.5589
79.474
82.4804
85.5797
88.7732
92.0623
95.4479
98.9306
102.511
106.189
109.965
113.837
117.807
121.871
126.03
130.28
134.621
139.049
143.563
148.158
152.833
157.582
162.404
167.293
172.246
177.257
182.323
187.438
192.598
197.796
203.027
208.284
213.563
218.855
224.155
229.444
234.704
239.929
245.111
250.242
255.312
260.312
265.232
270.064
274.797
279.422
283.93
288.312
292.56
296.663
300.613
304.403
308.024
311.469
314.73
317.8
320.672
323.34
325.798
328.042
330.067
331.869
333.446
334.793
335.909
336.791
337.439
337.851
338.027
337.969
337.677
337.153
336.398
335.414
334.208
332.783
331.143
329.291
327.231
324.967
322.516
319.881
317.067
314.079
310.928
307.624
304.174
300.586
296.869
293.032
289.086
285.038
280.898
276.675
272.378
268.017
263.6
259.136
254.634
250.104
245.554
240.994
236.432
231.877
227.334
222.807
218.3
213.818
209.363
204.941
200.558
196.219
191.93
187.699
183.536
179.45
175.458
171.579
167.842
164.28
160.943
157.856
155.062
21.4114
10.7524
8.60522
7.90325
7.67838
7.67737
7.80797
8.02958
8.32196
8.67377
9.07765
9.52799
10.0199
10.549
11.1113
11.704
12.325
12.9734
13.6497
14.3551
15.0913
15.8606
16.6652
17.5073
18.3889
19.312
20.2781
21.2889
22.3457
23.45
24.6028
25.8054
27.0589
28.3644
29.7228
31.1354
32.6031
34.127
35.7084
37.3485
39.0488
40.8107
42.6361
44.5267
46.4847
48.5121
50.6113
52.7848
55.0352
57.3651
59.7774
62.2749
64.8605
67.5369
70.3071
73.1737
76.1394
79.2068
82.3781
85.6556
89.0413
92.5368
96.1437
99.863
103.696
107.642
111.703
115.878
120.166
124.567
129.079
133.7
138.429
143.263
148.199
153.233
158.363
163.584
168.892
174.283
179.752
185.294
190.904
196.575
202.303
208.082
213.904
219.762
225.651
231.562
237.486
243.414
249.312
255.174
260.992
266.757
272.459
278.087
283.631
289.08
294.423
299.649
304.748
309.711
314.526
319.185
323.676
327.992
332.122
336.059
339.794
343.32
346.628
349.712
352.563
355.177
357.549
359.674
361.549
363.171
364.536
365.643
366.49
367.076
367.399
367.462
367.265
366.811
366.1
365.135
363.917
362.457
360.757
358.822
356.658
354.269
351.662
348.848
345.833
342.625
339.231
335.66
331.923
328.028
323.985
319.802
315.491
311.062
306.523
301.885
297.159
292.353
287.478
282.545
277.561
272.537
267.483
262.408
257.322
252.234
247.153
242.085
237.037
232.015
227.023
222.068
217.155
212.291
207.481
202.734
198.058
193.462
188.96
184.565
180.298
176.183
172.253
168.545
165.072
161.867
22.4044
11.2754
8.99788
8.23768
7.97797
7.95053
8.05672
8.25273
8.51665
8.83642
9.20473
9.61659
10.0682
10.5566
11.0791
11.634
12.2202
12.8373
13.4856
14.1663
14.8809
15.631
16.4188
17.2463
18.1155
19.0285
19.9873
20.9938
22.0499
23.1572
24.3175
25.5324
26.8035
28.1323
29.5202
30.9687
32.4793
34.0535
35.6928
37.3989
39.1737
41.0189
42.9368
44.9296
46.9997
49.1498
51.3827
53.7012
56.1085
58.6077
61.2022
63.8952
66.6902
69.5905
72.5994
75.7201
78.9557
82.3092
85.7833
89.3805
93.1032
96.9532
100.932
105.042
109.282
113.655
118.159
122.795
127.562
132.458
137.482
142.633
147.906
153.3
158.81
164.432
170.162
175.995
181.927
187.951
194.063
200.256
206.524
212.861
219.26
225.713
232.214
238.755
245.326
251.92
258.527
265.105
271.645
278.137
284.574
290.943
297.234
303.436
309.535
315.518
321.374
327.092
332.66
338.067
343.303
348.355
353.215
357.872
362.317
366.54
370.533
374.288
377.797
381.052
384.045
386.77
389.223
391.401
393.299
394.916
396.248
397.293
398.052
398.522
398.703
398.598
398.208
397.536
396.586
395.36
393.862
392.099
390.076
387.801
385.277
382.513
379.516
376.295
372.859
369.215
365.374
361.344
357.136
352.76
348.225
343.543
338.724
333.779
328.718
323.552
318.293
312.95
307.534
302.056
296.527
290.956
285.354
279.731
274.096
268.461
262.835
257.225
251.639
246.085
240.569
235.098
229.679
224.319
219.025
213.806
208.672
203.632
198.699
193.888
189.219
184.715
180.401
176.31
172.443
168.831
23.04
11.626
9.2568
8.45168
8.16317
8.11295
8.19797
8.37212
8.6123
8.90592
9.24566
9.62691
10.0466
10.5024
10.9929
11.5169
12.0739
12.664
13.2877
13.946
14.6403
15.3723
16.1441
16.9577
17.8155
18.7198
19.6729
20.6771
21.7349
22.8484
24.02
25.2518
26.546
27.9045
29.3294
30.8227
32.3864
34.0225
35.733
37.5203
39.3864
41.334
43.3656
45.484
47.6922
49.9934
52.3907
54.8878
57.4881
60.1954
63.0134
65.946
68.9972
72.1706
75.4702
78.8995
82.4619
86.1609
89.9993
93.9801
98.1054
102.378
106.798
111.368
116.089
120.96
125.982
131.153
136.474
141.941
147.552
153.306
159.198
165.225
171.381
177.663
184.063
190.575
197.195
203.916
210.731
217.633
224.616
231.671
238.792
245.969
253.194
260.459
267.755
275.07
282.361
289.606
296.799
303.929
310.986
317.956
324.83
331.593
338.23
344.727
351.07
357.249
363.251
369.064
374.677
380.078
385.257
390.203
394.906
399.357
403.548
407.47
411.118
414.481
417.547
420.314
422.78
424.94
426.791
428.331
429.558
430.472
431.071
431.356
431.329
430.99
430.343
429.392
428.141
426.594
424.755
422.633
420.233
417.562
414.628
411.439
408.003
404.329
400.427
396.307
391.978
387.45
382.735
377.843
372.785
367.573
362.217
356.729
351.121
345.404
339.589
333.688
327.712
321.672
315.579
309.445
303.28
297.095
290.9
284.707
278.525
272.364
266.233
260.14
254.093
248.099
242.168
236.307
230.524
224.828
219.23
213.741
208.373
203.142
198.066
193.166
188.464
183.986
179.726
175.714
23.3689
11.828
9.40148
8.56377
8.25228
8.18307
8.2504
8.40675
8.6282
8.90178
9.22006
9.5786
9.97465
10.4065
10.8729
11.3735
11.9082
12.4772
13.0812
13.7216
14.3998
15.1177
15.8775
16.6816
17.5326
18.4333
19.3864
20.395
21.462
22.5902
23.7826
25.0421
26.3714
27.7734
29.2507
30.806
32.4421
34.1616
35.9673
37.8621
39.8489
41.931
44.1114
46.3937
48.7815
51.2786
53.8889
56.6163
59.465
62.4389
65.5426
68.7803
72.1563
75.6747
79.3398
83.1554
87.1252
91.2525
95.5405
99.9918
104.609
109.393
114.346
119.469
124.762
130.225
135.856
141.655
147.619
153.746
160.033
166.475
173.069
179.809
186.691
193.707
200.848
208.107
215.478
222.954
230.527
238.189
245.932
253.748
261.628
269.563
277.543
285.558
293.601
301.615
309.576
317.475
325.301
333.042
340.686
348.219
355.63
362.908
370.033
376.984
383.75
390.321
396.684
402.828
408.739
414.406
419.819
424.967
429.839
434.427
438.722
442.716
446.401
449.771
452.816
455.533
457.918
459.968
461.682
463.056
464.09
464.785
465.14
465.157
464.838
464.187
463.206
461.9
460.275
458.336
456.089
453.542
450.702
447.577
444.176
440.508
436.582
432.407
427.995
423.356
418.5
413.438
408.183
402.745
397.135
391.367
385.451
379.401
373.226
366.941
360.556
354.084
347.537
340.925
334.262
327.558
320.825
314.074
307.316
300.564
293.827
287.116
280.441
273.812
267.236
260.725
254.285
247.927
241.659
235.491
229.435
223.501
217.702
212.055
206.576
201.284
196.197
191.338
186.694
182.297
23.4457
11.9064
9.45274
8.59409
8.26569
8.18179
8.23555
8.37878
8.5871
8.84728
9.15175
9.49606
9.87757
10.2947
10.7467
11.2333
11.7546
12.3114
12.9045
13.5356
14.2064
14.9191
15.6763
16.4809
17.336
18.245
19.2114
20.2389
21.3311
22.4918
23.7246
25.0334
26.4219
27.8937
29.4526
31.1021
32.8459
34.6877
36.631
38.6798
40.8377
43.1088
45.4971
48.0068
50.6425
53.4085
56.3096
59.3502
62.5345
65.8669
69.3521
72.9948
76.7995
80.7706
84.9121
89.2278
93.7212
98.3954
103.253
108.296
113.527
118.946
124.554
130.35
136.335
142.507
148.863
155.401
162.117
169.008
176.069
183.294
190.679
198.217
205.905
213.731
221.679
229.744
237.918
246.195
254.565
263.019
271.549
280.145
288.799
297.5
306.236
315.001
323.722
332.378
340.958
349.449
357.841
366.118
374.267
382.275
390.127
397.809
405.305
412.599
419.676
426.524
433.13
439.482
445.569
451.378
456.899
462.121
467.034
471.631
475.902
479.84
483.438
486.69
489.59
492.134
494.318
496.14
497.599
498.694
499.425
499.792
499.799
499.447
498.739
497.679
496.273
494.526
492.444
490.034
487.303
484.259
480.912
477.27
473.343
469.14
464.672
459.949
454.983
449.785
444.366
438.738
432.913
426.903
420.72
414.376
407.885
401.257
394.507
387.645
380.685
373.638
366.518
359.336
352.104
344.834
337.539
330.229
322.917
315.615
308.334
301.086
293.88
286.727
279.638
272.622
265.689
258.848
252.11
245.486
238.985
232.622
226.408
220.358
214.489
208.818
203.362
198.136
193.127
188.365
23.3277
11.8864
9.4315
8.56341
8.22517
8.13233
8.17826
8.31475
8.5173
8.77251
9.0727
9.41334
9.79177
10.2065
10.6568
11.1427
11.6647
12.2235
12.8208
13.4582
14.1381
14.8633
15.6369
16.4625
17.3438
18.2852
19.2913
20.3667
21.5162
22.7442
24.0556
25.4554
26.9486
28.5402
30.2352
32.0384
33.9547
35.989
38.1462
40.431
42.8485
45.4037
48.1014
50.9468
53.9451
57.1015
60.4217
63.912
67.5736
71.4108
75.4289
79.6326
84.0262
88.6134
93.3977
98.382
103.569
108.96
114.557
120.361
126.372
132.589
139.012
145.638
152.464
159.489
166.706
174.113
181.703
189.471
197.409
205.512
213.771
222.178
230.725
239.401
248.195
257.097
266.097
275.187
284.357
293.598
302.901
312.255
321.652
331.086
340.522
349.886
359.169
368.357
377.437
386.395
395.216
403.887
412.393
420.72
428.854
436.78
444.483
451.949
459.162
466.112
472.784
479.168
485.251
491.024
496.474
501.594
506.374
510.806
514.882
518.596
521.943
524.916
527.512
529.726
531.558
533.005
534.068
534.746
535.04
534.954
534.489
533.65
532.44
530.866
528.933
526.648
524.018
521.051
517.756
514.142
510.218
505.994
501.481
496.689
491.63
486.315
480.756
474.963
468.951
462.73
456.313
449.713
442.942
436.013
428.938
421.731
414.403
406.967
399.436
391.823
384.14
376.399
368.613
360.793
352.953
345.104
337.259
329.429
321.627
313.864
306.152
298.502
290.925
283.43
276.03
268.733
261.552
254.496
247.579
240.811
234.206
227.779
221.546
215.52
209.717
204.151
198.804
193.708
23.0614
11.7899
9.35677
8.49189
8.15338
8.06054
8.10806
8.2482
8.45664
8.71997
9.03045
9.3835
9.77646
10.2079
10.6774
11.185
11.7316
12.3187
12.948
13.6222
14.3442
15.1176
15.9466
16.8352
17.7887
18.8127
19.9133
21.0974
22.3723
23.7405
25.2096
26.7867
28.4788
30.2926
32.235
34.3127
36.532
38.8996
41.4218
44.1048
46.9547
49.9775
53.179
56.5648
60.1405
63.9112
67.882
72.0575
76.441
81.0359
85.8458
90.8736
96.1218
101.592
107.287
113.205
119.348
125.715
132.305
139.115
146.144
153.387
160.841
168.501
176.362
184.417
192.66
201.084
209.681
218.442
227.359
236.423
245.623
254.95
264.394
273.943
283.586
293.313
303.114
312.978
322.897
332.861
342.86
352.891
362.933
372.91
382.79
392.558
402.203
411.711
421.068
430.26
439.274
448.094
456.708
465.102
473.261
481.173
488.823
496.198
503.286
510.074
516.552
522.707
528.53
534.01
539.14
543.91
548.313
552.342
555.991
559.254
562.126
564.605
566.687
568.37
569.653
570.535
571.019
571.105
570.796
570.094
569.005
567.534
565.685
563.465
560.882
557.943
554.656
551.031
547.077
542.804
538.222
533.342
528.175
522.733
517.028
511.071
504.874
498.45
491.812
484.971
477.94
470.732
463.36
455.836
448.173
440.384
432.482
424.478
416.386
408.218
399.987
391.704
383.384
375.036
366.675
358.313
349.961
341.632
333.339
325.093
316.907
308.792
300.76
292.821
284.988
277.27
269.679
262.228
254.927
247.79
240.829
234.058
227.492
221.145
215.029
209.156
203.507
198.114
22.7429
11.6567
9.26216
8.41577
8.09234
8.01586
8.08281
8.24625
8.48219
8.77743
9.12438
9.51865
9.95784
10.4409
10.9679
11.5396
12.1575
12.8239
13.5416
14.3142
15.1457
16.042
17.009
18.0494
19.1712
20.3826
21.6917
23.1074
24.6383
26.2926
28.0794
30.0079
32.0876
34.3275
36.7368
39.3241
42.0981
45.0666
48.2375
51.618
55.2146
59.0336
63.0805
67.36
71.8766
76.6335
81.6337
86.8791
92.3706
98.1086
104.093
110.322
116.795
123.51
130.462
137.648
145.065
152.706
160.567
168.641
176.921
185.399
194.069
202.922
211.949
221.141
230.489
239.982
249.612
259.368
269.239
279.215
289.285
299.438
309.665
319.953
330.295
340.677
351.091
361.534
371.988
382.459
392.919
403.294
413.542
423.658
433.629
443.441
453.082
462.54
471.8
480.85
489.679
498.273
506.619
514.706
522.522
530.054
537.291
544.221
550.833
557.117
563.064
568.662
573.905
578.783
583.289
587.416
591.159
594.511
597.468
600.026
602.182
603.934
605.28
606.219
606.752
606.88
606.605
605.929
604.857
603.392
601.541
599.308
596.7
593.726
590.393
586.709
582.684
578.327
573.65
568.661
563.373
557.796
551.942
545.823
539.452
532.839
525.998
518.94
511.679
504.227
496.596
488.8
480.849
472.758
464.538
456.202
447.762
439.231
430.621
421.944
413.212
404.438
395.634
386.812
377.985
369.164
360.362
351.591
342.865
334.194
325.592
317.071
308.642
300.317
292.108
284.026
276.083
268.291
260.662
253.208
245.944
238.881
232.034
225.416
219.036
212.906
207.006
201.367
22.4396
11.5219
9.18312
8.37657
8.09206
8.0583
8.17374
8.39241
8.691
9.05689
9.48318
9.96627
10.5047
11.0987
11.7494
12.4592
13.2313
14.0696
14.979
15.9651
17.0299
18.1823
19.431
20.7845
22.2529
23.847
25.5783
27.4588
29.5005
31.7155
34.116
36.7143
39.5221
42.5511
45.8121
49.3151
53.0693
57.0827
61.3623
65.9138
70.7417
75.8491
81.2378
86.9082
92.8596
99.0898
105.596
112.372
119.415
126.717
134.27
142.068
150.102
158.361
166.839
175.523
184.405
193.473
202.719
212.13
221.697
231.409
241.255
251.224
261.306
271.491
281.768
292.126
302.556
313.049
323.592
334.178
344.797
355.44
366.098
376.76
387.428
398.083
408.715
419.357
429.937
440.387
450.679
460.814
470.779
480.562
490.153
499.542
508.718
517.669
526.385
534.856
543.07
551.017
558.687
566.07
573.155
579.933
586.394
592.528
598.326
603.781
608.883
613.625
618
622.001
625.623
628.86
631.707
634.161
636.217
637.875
639.13
639.984
640.434
640.483
640.13
639.379
638.232