/*--------------------------------*- C++ -*----------------------------------*\
  =========                 |
  \\      /  F ield         | OpenFOAM: The Open Source CFD Toolbox
   \\    /   O peration     | Website:  https://openfoam.org
    \\  /    A nd           | Version:  9
     \\/     M anipulation  |
\*---------------------------------------------------------------------------*/
FoamFile
{
    format      ascii;
    class       volScalarField;
    location    "0.1";
    object      p;
}
// * * * * * * * * * * * * * * * * * * * * * * * * * * * * * * * * * * * * * //

dimensions      [0 2 -2 0 0 0 0];

internalField   nonuniform List<scalar> 
12225
(
-1.10767
-3.39052
-4.55264
-4.86029
-5.02787
-5.18668
-5.31014
-5.39717
-5.46506
-5.52395
-5.57552
-5.61941
-5.65565
-5.68304
-5.69977
-5.69336
-5.67354
-5.53133
-4.57519
-5.27715
-5.36704
-5.23144
-5.19068
-5.25708
-5.33672
-5.40121
-5.45653
-5.50784
-5.55482
-5.59613
-5.63126
-5.65886
-5.67811
-5.6802
-5.68032
-5.64322
-4.77996
-4.67686
-4.83329
-4.95491
-5.06158
-5.18302
-5.29022
-5.37155
-5.43711
-5.49493
-5.5466
-5.59172
-5.63025
-5.66158
-5.68593
-5.69927
-5.71851
-5.74131
-4.64269
-4.56441
-4.84014
-5.01836
-5.11213
-5.20842
-5.30247
-5.37873
-5.44174
-5.49801
-5.54894
-5.59405
-5.63332
-5.6667
-5.6952
-5.71871
-5.75136
-5.80097
-4.6497
-4.66681
-4.90656
-5.05596
-5.13134
-5.21522
-5.30381
-5.37862
-5.44108
-5.49698
-5.54793
-5.59366
-5.63435
-5.67047
-5.70366
-5.7359
-5.77781
-5.83798
-4.71145
-4.75377
-4.93123
-5.06148
-5.13883
-5.22056
-5.30589
-5.37955
-5.44174
-5.49752
-5.54868
-5.59519
-5.63742
-5.67625
-5.71364
-5.75237
-5.80007
-5.86366
-4.77127
-4.81066
-4.94675
-5.06849
-5.15026
-5.22922
-5.30997
-5.38171
-5.44345
-5.49908
-5.55041
-5.59769
-5.64141
-5.68271
-5.72358
-5.76683
-5.81777
-5.881
-4.82453
-4.8593
-4.9693
-5.08148
-5.16345
-5.23864
-5.31472
-5.38436
-5.44556
-5.50102
-5.55251
-5.60052
-5.64563
-5.68904
-5.73261
-5.77875
-5.83101
-5.89193
-4.87446
-4.90607
-4.99658
-5.09696
-5.17649
-5.24829
-5.32024
-5.38766
-5.4481
-5.5033
-5.5549
-5.60352
-5.6498
-5.69486
-5.74031
-5.78803
-5.84024
-5.89808
-4.92199
-4.9505
-5.02541
-5.11392
-5.1898
-5.25859
-5.32679
-5.39177
-5.4512
-5.506
-5.55758
-5.60663
-5.65378
-5.69999
-5.74655
-5.79482
-5.84611
-5.90069
-4.96697
-4.99215
-5.0547
-5.13241
-5.20384
-5.26958
-5.33429
-5.39673
-5.45491
-5.50916
-5.56056
-5.60981
-5.65747
-5.70433
-5.75135
-5.79943
-5.84929
-5.90073
-5.0057
-5.02794
-5.08156
-5.15051
-5.21737
-5.28017
-5.34189
-5.40198
-5.45884
-5.51243
-5.56351
-5.61272
-5.66054
-5.70758
-5.75454
-5.80199
-5.8503
-5.89911
-5.04165
-5.06137
-5.1077
-5.16895
-5.23117
-5.29098
-5.34991
-5.40771
-5.46316
-5.51595
-5.56658
-5.61555
-5.66327
-5.71018
-5.75675
-5.80331
-5.85002
-5.89644
-5.07952
-5.09675
-5.13638
-5.19014
-5.2472
-5.30356
-5.35947
-5.41477
-5.46851
-5.52024
-5.57016
-5.61864
-5.66595
-5.71237
-5.75818
-5.80351
-5.84838
-5.89238
-5.11808
-5.13293
-5.16665
-5.21349
-5.26519
-5.31774
-5.37048
-5.42311
-5.47487
-5.52523
-5.57416
-5.62181
-5.66835
-5.7139
-5.75857
-5.80238
-5.84525
-5.88687
-5.15543
-5.16814
-5.19693
-5.23775
-5.28429
-5.33291
-5.38245
-5.43236
-5.48195
-5.53067
-5.57829
-5.62479
-5.67019
-5.71451
-5.75772
-5.79979
-5.84063
-5.88
-5.1887
-5.1997
-5.22466
-5.26066
-5.30275
-5.34775
-5.39428
-5.4416
-5.48902
-5.53594
-5.58203
-5.62711
-5.67109
-5.7139
-5.75547
-5.79572
-5.83456
-5.87185
-5.21357
-5.22338
-5.24581
-5.27856
-5.31751
-5.35979
-5.40397
-5.4492
-5.49474
-5.54
-5.58456
-5.62815
-5.67063
-5.71188
-5.75178
-5.79028
-5.82729
-5.86273
-5.22305
-5.23245
-5.25402
-5.28572
-5.32362
-5.3649
-5.40806
-5.45226
-5.49678
-5.54099
-5.58444
-5.62686
-5.66807
-5.70796
-5.74643
-5.78344
-5.81893
-5.85288
-5.209
-5.21912
-5.24225
-5.27612
-5.31621
-5.35917
-5.40348
-5.44846
-5.49348
-5.53791
-5.5813
-5.62343
-5.66417
-5.70344
-5.74118
-5.77736
-5.81197
-5.84502
-5.18344
-5.1947
-5.22066
-5.25866
-5.30276
-5.34874
-5.39529
-5.44207
-5.48846
-5.53377
-5.57764
-5.61997
-5.66073
-5.69984
-5.7373
-5.7731
-5.80727
-5.83987
-5.14896
-5.16142
-5.19165
-5.23642
-5.28629
-5.33588
-5.38516
-5.43447
-5.48287
-5.52947
-5.57411
-5.61689
-5.65787
-5.69702
-5.73437
-5.76998
-5.8039
-5.83621
-5.10869
-5.12138
-5.15695
-5.21185
-5.26937
-5.32286
-5.37499
-5.42702
-5.47751
-5.52547
-5.57099
-5.61438
-5.65571
-5.69501
-5.73237
-5.76789
-5.80167
-5.83382
-5.0651
-5.07675
-5.11935
-5.18629
-5.2514
-5.30953
-5.36601
-5.42135
-5.47359
-5.52245
-5.56864
-5.61253
-5.65415
-5.69355
-5.73088
-5.76633
-5.79999
-5.83199
-5.01841
-5.02626
-5.08752
-5.16764
-5.23319
-5.29336
-5.35584
-5.41608
-5.47057
-5.52041
-5.5673
-5.61168
-5.65352
-5.69295
-5.73022
-5.76555
-5.7991
-5.83103
-4.97057
-4.94702
-5.05803
-5.16729
-5.22829
-5.28289
-5.3469
-5.40992
-5.46592
-5.51671
-5.56442
-5.6094
-5.65157
-5.69115
-5.72846
-5.76379
-5.7973
-5.82916
-4.96133
-4.8171
-4.97636
-5.14289
-5.22779
-5.28931
-5.35468
-5.41648
-5.47093
-5.52084
-5.56807
-5.6126
-5.65432
-5.69345
-5.73035
-5.76527
-5.79848
-5.83013
-5.10677
-4.82305
-4.85801
-4.98879
-5.10878
-5.21628
-5.3109
-5.3873
-5.45024
-5.50623
-5.55777
-5.6052
-5.64887
-5.68938
-5.72724
-5.76284
-5.79667
-5.82937
-5.04359
-5.54337
-5.5537
-5.39478
-5.31422
-5.3389
-5.39359
-5.44362
-5.48941
-5.53471
-5.57914
-5.62141
-5.66114
-5.69853
-5.73376
-5.76694
-5.79832
-5.82974
-1.70493
-3.57558
-4.64706
-4.94044
-5.07567
-5.2129
-5.32536
-5.40598
-5.46961
-5.52636
-5.57845
-5.62594
-5.6694
-5.70956
-5.74684
-5.78123
-5.8124
-5.83855
-6.80938
-6.80791
-6.80713
-6.80727
-6.8081
-6.80932
-6.81068
-6.81206
-6.81348
-6.81498
-6.81663
-6.81857
-6.82097
-6.82399
-6.82776
-6.83242
-6.83812
-6.845
-6.85331
-6.86306
-6.87343
-6.88441
-6.89786
-6.91464
-6.93503
-6.96002
-6.98525
-7.00009
-7.01471
-7.03794
-7.06102
-7.08533
-7.11319
-7.14238
-7.1721
-7.20263
-7.23373
-7.26522
-7.29695
-7.32877
-7.3606
-7.39235
-7.42394
-7.45533
-7.48645
-7.51728
-7.54777
-7.57788
-7.60757
-7.63679
-7.6655
-7.69364
-7.72114
-7.74795
-7.77399
-7.79916
-7.8234
-7.8466
-7.86865
-7.88944
-7.90886
-7.92678
-7.94307
-7.95759
-7.9702
-7.98075
-7.98907
-7.99503
-7.99844
-7.99915
-7.99698
-7.99176
-7.98333
-7.97149
-7.95608
-7.93692
-7.91384
-7.88664
-7.85517
-7.81924
-7.77868
-7.73333
-7.68301
-7.62757
-7.56683
-7.50066
-7.42889
-7.35138
-7.26801
-7.17864
-7.08314
-6.98142
-6.87341
-6.75912
-6.63851
-6.51133
-6.37751
-6.23659
-6.08877
-5.93409
-5.77257
-5.60422
-5.42904
-5.24708
-5.05836
-4.86295
-4.66093
-4.45237
-4.23739
-4.01612
-3.78868
-3.55524
-3.31597
-3.07106
-2.8207
-2.56512
-2.30454
-2.0392
-1.76936
-1.49529
-1.21725
-0.935536
-0.650433
-0.36224
-0.0712589
0.222203
0.517838
0.815335
1.11439
1.41469
1.71594
2.01783
2.32009
2.62241
2.92454
3.22621
3.52717
3.82718
4.12602
4.42348
4.71936
5.0135
5.30572
5.59589
5.88387
6.16955
6.45283
6.73363
7.01186
7.28746
7.56039
7.83058
8.098
8.36261
8.62436
8.8832
9.13911
9.39201
9.64186
9.88852
10.1318
10.3713
10.6071
10.8389
11.0666
11.2898
11.5083
11.7217
11.9298
12.1322
12.3285
12.5185
12.7017
12.8782
13.0479
13.2112
13.37
13.527
13.6982
13.8877
-6.81037
-6.8091
-6.80835
-6.8086
-6.80933
-6.80996
-6.81025
-6.81012
-6.80962
-6.80897
-6.80845
-6.8084
-6.809
-6.81039
-6.81262
-6.8157
-6.81962
-6.82442
-6.83013
-6.83648
-6.84368
-6.85316
-6.86521
-6.8787
-6.89301
-6.90694
-6.91845
-6.9379
-6.96532
-6.99046
-7.01863
-7.05219
-7.08573
-7.1172
-7.14861
-7.18024
-7.21201
-7.24385
-7.27569
-7.30748
-7.33915
-7.37068
-7.402
-7.43308
-7.4639
-7.49443
-7.52462
-7.55445
-7.58387
-7.61286
-7.64136
-7.66932
-7.69669
-7.72339
-7.74935
-7.77449
-7.79873
-7.82196
-7.84408
-7.86499
-7.88456
-7.90268
-7.9192
-7.93399
-7.9469
-7.9578
-7.96652
-7.9729
-7.97679
-7.97801
-7.9764
-7.97178
-7.96399
-7.95284
-7.93816
-7.91977
-7.8975
-7.87117
-7.8406
-7.80563
-7.76608
-7.72178
-7.67256
-7.61827
-7.55874
-7.49383
-7.42338
-7.34725
-7.26531
-7.17742
-7.08347
-6.98332
-6.87686
-6.76397
-6.64458
-6.51834
-6.38514
-6.24552
-6.09925
-5.94622
-5.78639
-5.61976
-5.44632
-5.26609
-5.07913
-4.88547
-4.68518
-4.47837
-4.26511
-4.04555
-3.81981
-3.58804
-3.35042
-3.10713
-2.85835
-2.60432
-2.34524
-2.08137
-1.81296
-1.54025
-1.26354
-0.983093
-0.699203
-0.412167
-0.122285
0.170138
0.464794
0.761373
1.05957
1.35907
1.65958
1.9608
2.26243
2.5642
2.86582
3.16703
3.46758
3.76723
4.06575
4.36293
4.65858
4.95251
5.24455
5.53457
5.82243
6.10801
6.3912
6.67193
6.9501
7.22567
7.49856
7.76874
8.03615
8.30076
8.56253
8.82142
9.07739
9.33039
9.58036
9.82719
10.0706
10.3104
10.5464
10.7785
11.0065
11.2302
11.4492
11.6632
11.872
12.0752
12.2724
12.4634
12.6479
12.8259
12.9974
13.1629
13.3244
13.484
13.6561
13.8338
-6.80932
-6.8089
-6.80876
-6.80936
-6.81016
-6.81064
-6.81063
-6.81011
-6.80923
-6.80819
-6.80723
-6.80662
-6.80655
-6.80718
-6.80861
-6.8109
-6.8141
-6.81831
-6.82364
-6.83012
-6.83785
-6.84764
-6.85992
-6.87398
-6.88953
-6.90633
-6.92404
-6.94456
-6.9688
-6.99408
-7.02056
-7.04904
-7.0786
-7.10841
-7.13864
-7.16923
-7.20002
-7.2309
-7.2618
-7.29268
-7.32347
-7.35414
-7.38465
-7.41498
-7.44508
-7.47493
-7.5045
-7.53375
-7.56265
-7.59115
-7.61921
-7.64676
-7.67376
-7.70014
-7.72582
-7.75071
-7.77474
-7.7978
-7.8198
-7.84062
-7.86014
-7.87825
-7.8948
-7.90967
-7.92271
-7.93377
-7.9427
-7.94935
-7.95354
-7.95513
-7.95393
-7.94977
-7.9425
-7.93192
-7.91786
-7.90016
-7.87863
-7.8531
-7.82339
-7.78933
-7.75075
-7.70747
-7.65935
-7.60621
-7.54789
-7.48424
-7.41511
-7.34036
-7.25984
-7.17343
-7.081
-6.98242
-6.87759
-6.76632
-6.64841
-6.52415
-6.39308
-6.25538
-6.11101
-5.95991
-5.80203
-5.63738
-5.46594
-5.28773
-5.10279
-4.91117
-4.71292
-4.50814
-4.29691
-4.07937
-3.85563
-3.62584
-3.39018
-3.14881
-2.90194
-2.64977
-2.39251
-2.13042
-1.86373
-1.59271
-1.31761
-1.03873
-0.756346
-0.470751
-0.182245
0.108869
0.402283
0.69769
0.994783
1.29325
1.5928
1.89312
2.19393
2.49494
2.79586
3.09644
3.39641
3.69554
3.9936
4.29036
4.58564
4.87924
5.171
5.46077
5.7484
6.03378
6.3168
6.59738
6.87542
7.15087
7.42367
7.69376
7.9611
8.22566
8.48739
8.74625
9.00219
9.25515
9.50505
9.75177
9.99518
10.2351
10.4715
10.704
10.9324
11.1566
11.3763
11.5911
11.8007
12.0049
12.2033
12.3956
12.5816
12.7613
12.9348
13.1027
13.267
13.4288
13.6015
13.7625
-6.80491
-6.80601
-6.80718
-6.80852
-6.80957
-6.8101
-6.81005
-6.80949
-6.80855
-6.80743
-6.80634
-6.80553
-6.80518
-6.80548
-6.80658
-6.80859
-6.81162
-6.81581
-6.82128
-6.82819
-6.8367
-6.84706
-6.85953
-6.87401
-6.8903
-6.90828
-6.92792
-6.94943
-6.97297
-6.99804
-7.02431
-7.05163
-7.07975
-7.10844
-7.13757
-7.16702
-7.19668
-7.22647
-7.25634
-7.28622
-7.31607
-7.34585
-7.37554
-7.40509
-7.43448
-7.46367
-7.49264
-7.52134
-7.54975
-7.57781
-7.60547
-7.63268
-7.65938
-7.6855
-7.71096
-7.73568
-7.75958
-7.78255
-7.80449
-7.8253
-7.84484
-7.863
-7.87965
-7.89465
-7.90786
-7.91912
-7.9283
-7.93522
-7.93974
-7.94168
-7.94087
-7.93716
-7.93036
-7.92029
-7.9068
-7.88969
-7.8688
-7.84395
-7.81497
-7.78167
-7.7439
-7.70148
-7.65425
-7.60205
-7.54471
-7.48207
-7.414
-7.34034
-7.26095
-7.17569
-7.08444
-6.98706
-6.88344
-6.77345
-6.65694
-6.53395
-6.40437
-6.26816
-6.12529
-5.9757
-5.81936
-5.65625
-5.48637
-5.30973
-5.12636
-4.93631
-4.73964
-4.53643
-4.32678
-4.11079
-3.8886
-3.66035
-3.4262
-3.18633
-2.94092
-2.69018
-2.43434
-2.17362
-1.90827
-1.63854
-1.36471
-1.08704
-0.805826
-0.521353
-0.23392
0.0561698
0.348611
0.643097
0.93932
1.23697
1.53575
1.83536
2.1355
2.43589
2.73624
3.0363
3.33579
3.63448
3.93214
4.22854
4.52348
4.81678
5.10827
5.39779
5.68519
5.97037
6.25321
6.53361
6.8115
7.0868
7.35947
7.62944
7.89668
8.16113
8.42276
8.68154
8.93741
9.19031
9.44015
9.68679
9.93015
10.1701
10.4066
10.6393
10.868
11.0926
11.3127
11.528
11.7383
11.9432
12.1424
12.3357
12.5229
12.7038
12.8788
13.0482
13.2138
13.3755
13.5448
13.6895
-6.79645
-6.79954
-6.80261
-6.80523
-6.80706
-6.80808
-6.8084
-6.80816
-6.80751
-6.80665
-6.80582
-6.80525
-6.80515
-6.80574
-6.80719
-6.80965
-6.81327
-6.81819
-6.82455
-6.83249
-6.84215
-6.85365
-6.86705
-6.8823
-6.89931
-6.91796
-6.93819
-6.95995
-6.98317
-7.00767
-7.03328
-7.05982
-7.08706
-7.1148
-7.14294
-7.17137
-7.20001
-7.22882
-7.25773
-7.28669
-7.31568
-7.34466
-7.37359
-7.40244
-7.43119
-7.45981
-7.48825
-7.51648
-7.54446
-7.57215
-7.59949
-7.62643
-7.65289
-7.67882
-7.70413
-7.72874
-7.75256
-7.77549
-7.79743
-7.81825
-7.83785
-7.85609
-7.87286
-7.888
-7.90137
-7.91283
-7.92223
-7.92941
-7.9342
-7.93644
-7.93597
-7.93261
-7.92619
-7.91654
-7.90349
-7.88685
-7.86645
-7.84212
-7.81369
-7.78097
-7.7438
-7.70202
-7.65545
-7.60393
-7.54731
-7.48542
-7.41812
-7.34525
-7.26668
-7.18226
-7.09187
-6.99538
-6.89267
-6.78362
-6.66814
-6.54617
-6.41763
-6.28249
-6.14067
-5.99214
-5.83687
-5.67483
-5.50602
-5.33046
-5.14817
-4.9592
-4.76361
-4.56147
-4.35288
-4.13795
-3.91681
-3.6896
-3.45647
-3.2176
-2.97319
-2.72342
-2.46853
-2.20873
-1.94428
-1.67544
-1.40245
-1.1256
-0.845181
-0.56147
-0.274768
0.014622
0.306396
0.600245
0.895864
1.19295
1.49118
1.79028
2.08994
2.38988
2.68981
2.98947
3.28859
3.58694
3.88427
4.18036
4.47502
4.76806
5.05929
5.34858
5.63576
5.92073
6.20336
6.48358
6.76129
7.03642
7.30893
7.57874
7.84583
8.11015
8.37168
8.63035
8.88613
9.13893
9.38867
9.63522
9.87849
10.1184
10.3549
10.5877
10.8166
11.0413
11.2617
11.4773
11.688
11.8935
12.0933
12.2873
12.4752
12.657
12.8328
13.0028
13.1684
13.3284
13.4928
13.6228
-6.7852
-6.79025
-6.7956
-6.79993
-6.80292
-6.80481
-6.80586
-6.80628
-6.80627
-6.80606
-6.8059
-6.80604
-6.8067
-6.80811
-6.81046
-6.81393
-6.81865
-6.82477
-6.83241
-6.84165
-6.85258
-6.86525
-6.87965
-6.89572
-6.91337
-6.9325
-6.95301
-6.9748
-6.99776
-7.02174
-7.04662
-7.07227
-7.09854
-7.1253
-7.15246
-7.17992
-7.20764
-7.23554
-7.26359
-7.29175
-7.31997
-7.34824
-7.37651
-7.40476
-7.43296
-7.46108
-7.48909
-7.51693
-7.54458
-7.57197
-7.59907
-7.6258
-7.65211
-7.67792
-7.70314
-7.7277
-7.7515
-7.77444
-7.79641
-7.8173
-7.83699
-7.85535
-7.87225
-7.88755
-7.9011
-7.91276
-7.92237
-7.92978
-7.93482
-7.93733
-7.93714
-7.93408
-7.92798
-7.91867
-7.90596
-7.88969
-7.86968
-7.84575
-7.81773
-7.78545
-7.74874
-7.70743
-7.66134
-7.61033
-7.55423
-7.49288
-7.42613
-7.35384
-7.27586
-7.19205
-7.10229
-7.00644
-6.90439
-6.79604
-6.68128
-6.56004
-6.43224
-6.29783
-6.15674
-6.00894
-5.85439
-5.69307
-5.52499
-5.35015
-5.16858
-4.98032
-4.78544
-4.58401
-4.37613
-4.1619
-3.94145
-3.71492
-3.48246
-3.24426
-3.00049
-2.75137
-2.4971
-2.23792
-1.97408
-1.70581
-1.4334
-1.1571
-0.877215
-0.594023
-0.307822
-0.0189158
0.272391
0.565792
0.860978
1.15764
1.45548
1.7542
2.05349
2.35308
2.65267
2.952
3.25081
3.54885
3.84588
4.1417
4.43608
4.72885
5.01982
5.30885
5.59579
5.88052
6.16292
6.4429
6.72039
6.99531
7.2676
7.53722
7.80413
8.06828
8.32964
8.58816
8.84378
9.09644
9.34604
9.59248
9.83568
10.0756
10.312
10.5449
10.7739
10.9988
11.2194
11.4354
11.6465
11.8523
12.0527
12.2472
12.4357
12.618
12.7942
12.9643
13.1291
13.2867
13.4462
13.5634
-6.77337
-6.78022
-6.78772
-6.7938
-6.79811
-6.80107
-6.80307
-6.80439
-6.80527
-6.80598
-6.80678
-6.80792
-6.80965
-6.81219
-6.81574
-6.82045
-6.82647
-6.8339
-6.84285
-6.85335
-6.86544
-6.87912
-6.89436
-6.91108
-6.9292
-6.94862
-6.96924
-6.99094
-7.01363
-7.03718
-7.06148
-7.08643
-7.11194
-7.1379
-7.16424
-7.19091
-7.21784
-7.24499
-7.27233
-7.29981
-7.3274
-7.35508
-7.38282
-7.41059
-7.43837
-7.4661
-7.49377
-7.52133
-7.54874
-7.57594
-7.60288
-7.6295
-7.65573
-7.68149
-7.7067
-7.73128
-7.75512
-7.77812
-7.80018
-7.82118
-7.841
-7.8595
-7.87656
-7.89202
-7.90576
-7.91762
-7.92744
-7.93506
-7.94033
-7.94308
-7.94313
-7.94033
-7.93449
-7.92544
-7.91301
-7.89702
-7.8773
-7.85367
-7.82596
-7.79399
-7.7576
-7.71662
-7.67088
-7.62022
-7.56448
-7.50351
-7.43715
-7.36525
-7.28768
-7.20429
-7.11495
-7.01954
-6.91795
-6.81006
-6.69579
-6.57503
-6.44772
-6.31377
-6.17315
-6.02581
-5.87172
-5.71086
-5.54323
-5.36884
-5.18771
-4.9999
-4.80547
-4.60448
-4.39703
-4.18323
-3.96321
-3.73711
-3.50507
-3.26729
-3.02393
-2.77522
-2.52135
-2.26257
-1.99911
-1.73122
-1.45918
-1.18326
-0.903737
-0.6209
-0.335049
-0.0464852
0.244485
0.537555
0.832416
1.12876
1.42629
1.72469
2.02368
2.32296
2.62225
2.92128
3.21979
3.51754
3.81428
4.1098
4.4039
4.69637
4.98706
5.2758
5.56244
5.84688
6.129
6.4087
6.68591
6.96056
7.2326
7.50197
7.76864
8.03257
8.29371
8.55202
8.80746
9.05994
9.3094
9.55573
9.79887
10.0387
10.2752
10.5081
10.7373
10.9624
11.1833
11.3996
11.611
11.8173
12.018
12.213
12.4019
12.5846
12.7609
12.9307
13.0945
13.2494
13.4043
13.5107
-6.76308
-6.77132
-6.78058
-6.7882
-6.79376
-6.79782
-6.80085
-6.80317
-6.80507
-6.80683
-6.80872
-6.811
-6.81392
-6.81769
-6.82249
-6.82847
-6.83576
-6.84445
-6.85457
-6.86617
-6.87924
-6.89376
-6.90967
-6.92689
-6.94535
-6.96494
-6.98557
-7.00715
-7.02957
-7.05275
-7.07659
-7.101
-7.12591
-7.15126
-7.17698
-7.20302
-7.22934
-7.25591
-7.28269
-7.30966
-7.33678
-7.36403
-7.39138
-7.4188
-7.44628
-7.47376
-7.50122
-7.52861
-7.55589
-7.583
-7.60988
-7.63648
-7.66271
-7.68851
-7.71378
-7.73843
-7.76238
-7.7855
-7.80769
-7.82884
-7.84881
-7.86748
-7.88472
-7.90037
-7.91429
-7.92634
-7.93636
-7.94418
-7.94965
-7.95259
-7.95285
-7.95024
-7.9446
-7.93575
-7.92353
-7.90774
-7.88822
-7.8648
-7.83729
-7.80553
-7.76935
-7.72858
-7.68306
-7.63262
-7.57711
-7.51636
-7.45023
-7.37858
-7.30125
-7.21812
-7.12904
-7.03391
-6.93259
-6.82498
-6.71099
-6.59051
-6.46346
-6.32978
-6.18942
-6.04233
-5.88848
-5.72786
-5.56046
-5.38631
-5.20542
-5.01784
-4.82363
-4.62287
-4.41566
-4.20209
-3.9823
-3.75642
-3.52462
-3.28707
-3.04395
-2.79546
-2.54183
-2.28328
-2.02005
-1.75241
-1.48061
-1.20492
-0.925637
-0.643042
-0.357435
-0.069118
0.221603
0.51442
0.809024
1.10511
1.40237
1.70051
1.99922
2.29822
2.59722
2.89596
3.19418
3.49162
3.78806
4.08327
4.37704
4.66919
4.95954
5.24794
5.53426
5.81836
6.10014
6.37952
6.6564
6.93073
7.20246
7.47153
7.73791
8.00156
8.26244
8.52052
8.77574
9.02804
9.27734
9.52358
9.76667
10.0065
10.2431
10.4761
10.7054
10.9307
11.1518
11.3684
11.5802
11.7869
11.9881
12.1834
12.3727
12.5556
12.7319
12.9012
13.0636
13.2158
13.3667
13.4637
-6.75578
-6.76493
-6.77541
-6.78417
-6.79077
-6.79582
-6.79982
-6.80312
-6.80604
-6.80886
-6.81184
-6.81526
-6.81933
-6.82427
-6.83024
-6.83737
-6.84578
-6.85551
-6.86662
-6.8791
-6.89294
-6.90809
-6.92449
-6.94207
-6.96075
-6.98044
-7.00105
-7.0225
-7.0447
-7.06757
-7.09104
-7.11504
-7.13952
-7.1644
-7.18966
-7.21526
-7.24115
-7.2673
-7.2937
-7.32032
-7.34713
-7.3741
-7.40122
-7.42845
-7.45576
-7.48313
-7.51051
-7.53785
-7.56511
-7.59223
-7.61916
-7.64582
-7.67215
-7.69805
-7.72345
-7.74825
-7.77234
-7.79563
-7.81799
-7.83931
-7.85947
-7.87832
-7.89573
-7.91157
-7.92567
-7.93789
-7.94808
-7.95607
-7.9617
-7.9648
-7.9652
-7.96274
-7.95724
-7.94852
-7.93642
-7.92075
-7.90135
-7.87803
-7.85064
-7.81898
-7.78291
-7.74224
-7.69682
-7.64648
-7.59107
-7.53042
-7.4644
-7.39286
-7.31564
-7.23262
-7.14367
-7.04865
-6.94746
-6.83997
-6.72609
-6.60571
-6.47876
-6.34517
-6.20489
-6.05787
-5.9041
-5.74355
-5.57622
-5.40213
-5.2213
-5.03379
-4.83966
-4.63897
-4.43183
-4.21834
-3.99863
-3.77284
-3.54114
-3.30368
-3.06066
-2.81228
-2.55876
-2.30033
-2.03723
-1.76972
-1.49807
-1.22253
-0.943409
-0.660983
-0.375553
-0.0874236
0.2031
0.495709
0.790094
1.08595
1.38297
1.68085
1.9793
2.27802
2.57674
2.87518
3.17308
3.47019
3.76628
4.06114
4.35456
4.64634
4.93632
5.22435
5.51028
5.79399
6.07539
6.35438
6.63088
6.90484
7.1762
7.44493
7.71097
7.97431
8.2349
8.4927
8.74768
8.99978
9.24894
9.49507
9.73812
9.978
10.2146
10.4477
10.6772
10.9027
11.1241
11.3411
11.5532
11.7603
11.9618
12.1576
12.3471
12.5301
12.7062
12.8749
13.0359
13.1855
13.3327
13.4218
-6.75219
-6.76178
-6.7729
-6.78236
-6.7897
-6.79552
-6.80034
-6.80452
-6.80834
-6.81211
-6.81608
-6.8205
-6.82559
-6.83152
-6.83847
-6.84655
-6.85583
-6.86639
-6.87823
-6.89135
-6.90573
-6.92131
-6.93804
-6.95585
-6.97465
-6.99437
-7.01494
-7.03626
-7.05828
-7.08092
-7.10412
-7.12783
-7.152
-7.17658
-7.20154
-7.22685
-7.25248
-7.27839
-7.30458
-7.33101
-7.35767
-7.38453
-7.41157
-7.43875
-7.46605
-7.49343
-7.52085
-7.54826
-7.57562
-7.60286
-7.62992
-7.65673
-7.68322
-7.7093
-7.73488
-7.75986
-7.78415
-7.80763
-7.83018
-7.85169
-7.87203
-7.89106
-7.90864
-7.92464
-7.93889
-7.95126
-7.96157
-7.96968
-7.97542
-7.97861
-7.9791
-7.97671
-7.97127
-7.96261
-7.95055
-7.93492
-7.91554
-7.89224
-7.86486
-7.83321
-7.79714
-7.75647
-7.71104
-7.66069
-7.60527
-7.54462
-7.47859
-7.40703
-7.32982
-7.24679
-7.15784
-7.06282
-6.96162
-6.85411
-6.74019
-6.61977
-6.49277
-6.35913
-6.21879
-6.07172
-5.91788
-5.75727
-5.58987
-5.41572
-5.23484
-5.04728
-4.85309
-4.65236
-4.44518
-4.23167
-4.01194
-3.78614
-3.55443
-3.31698
-3.07397
-2.82562
-2.57214
-2.31376
-2.05073
-1.7833
-1.51173
-1.2363
-0.957289
-0.674995
-0.389712
-0.101745
0.188601
0.481016
0.775191
1.07082
1.36759
1.66521
1.96337
2.26179
2.56019
2.8583
3.15585
3.4526
3.74832
4.04278
4.33579
4.62716
4.91671
5.2043
5.48979
5.77306
6.05402
6.33256
6.60863
6.88216
7.15311
7.42143
7.68709
7.95007
8.21033
8.46784
8.72256
8.97444
9.22343
9.46947
9.71248
9.95237
10.189
10.4223
10.6519
10.8777
11.0994
11.3167
11.5292
11.7367
11.9386
12.1347
12.3245
12.5075
12.6833
12.8512
13.0107
13.1578
13.3018
13.3844
-6.75241
-6.76202
-6.77325
-6.78298
-6.79074
-6.79708
-6.8025
-6.80734
-6.81189
-6.81642
-6.82119
-6.82642
-6.8323
-6.83901
-6.84669
-6.85546
-6.86537
-6.87648
-6.88881
-6.90233
-6.91703
-6.93286
-6.94976
-6.96766
-6.9865
-7.0062
-7.02669
-7.04791
-7.06978
-7.09226
-7.11528
-7.13881
-7.16281
-7.18722
-7.21203
-7.23721
-7.26273
-7.28857
-7.31471
-7.34112
-7.36779
-7.39469
-7.42179
-7.44907
-7.47649
-7.50401
-7.53159
-7.55918
-7.58672
-7.61416
-7.64143
-7.66846
-7.69516
-7.72146
-7.74725
-7.77245
-7.79694
-7.82062
-7.84336
-7.86505
-7.88554
-7.90472
-7.92244
-7.93855
-7.95291
-7.96536
-7.97574
-7.9839
-7.98967
-7.99289
-7.99338
-7.99098
-7.98552
-7.97682
-7.96471
-7.94902
-7.92957
-7.9062
-7.87873
-7.84699
-7.81081
-7.77004
-7.72451
-7.67406
-7.61853
-7.55777
-7.49163
-7.41997
-7.34265
-7.25953
-7.17047
-7.07534
-6.974
-6.86635
-6.75228
-6.6317
-6.50454
-6.37074
-6.23024
-6.083
-5.929
-5.76823
-5.60068
-5.42638
-5.24535
-5.05765
-4.86334
-4.66249
-4.45521
-4.24159
-4.02178
-3.79591
-3.56415
-3.32665
-3.08362
-2.83526
-2.58178
-2.32342
-2.06042
-1.79304
-1.52154
-1.2462
-0.967306
-0.685144
-0.400014
-0.112219
0.177934
0.470137
0.76408
1.05945
1.35595
1.65327
1.95111
2.2492
2.54724
2.84497
3.14212
3.43845
3.73373
4.02775
4.32029
4.61118
4.90024
5.18733
5.47232
5.75508
6.03553
6.31357
6.58914
6.86218
7.13266
7.40052
7.66576
7.92833
8.18822
8.4454
8.69984
8.95148
9.2003
9.44622
9.68917
9.92908
10.1658
10.3992
10.629
10.8551
11.0771
11.2947
11.5076
11.7154
11.9178
12.1141
12.3041
12.4871
12.6626
12.8297
12.9878
13.1325
13.2736
13.3507
-6.75612
-6.76539
-6.7763
-6.78592
-6.79377
-6.80035
-6.80612
-6.81139
-6.81643
-6.8215
-6.82682
-6.83261
-6.83904
-6.84627
-6.85442
-6.86361
-6.87389
-6.8853
-6.89787
-6.91158
-6.9264
-6.9423
-6.95923
-6.97712
-6.9959
-7.01553
-7.03593
-7.05704
-7.07881
-7.10119
-7.12412
-7.14757
-7.1715
-7.19588
-7.22068
-7.24588
-7.27144
-7.29736
-7.3236
-7.35014
-7.37697
-7.40404
-7.43135
-7.45884
-7.48649
-7.51426
-7.54209
-7.56994
-7.59774
-7.62544
-7.65297
-7.68025
-7.70719
-7.73372
-7.75973
-7.78513
-7.80981
-7.83365
-7.85655
-7.87836
-7.89897
-7.91823
-7.93601
-7.95217
-7.96655
-7.979
-7.98936
-7.99748
-8.0032
-8.00634
-8.00674
-8.00423
-7.99864
-7.9898
-7.97754
-7.96169
-7.94208
-7.91853
-7.89088
-7.85895
-7.82259
-7.78163
-7.73591
-7.68526
-7.62954
-7.56859
-7.50227
-7.43042
-7.35292
-7.26961
-7.18035
-7.08499
-6.98342
-6.87553
-6.76122
-6.6404
-6.513
-6.37896
-6.23822
-6.09075
-5.93652
-5.77552
-5.60776
-5.43326
-5.25204
-5.06416
-4.86968
-4.66868
-4.46126
-4.24752
-4.0276
-3.80164
-3.5698
-3.33226
-3.0892
-2.84082
-2.58736
-2.32903
-2.06608
-1.79877
-1.52736
-1.25213
-0.973369
-0.691366
-0.40642
-0.118831
0.171093
0.463042
0.756707
1.05178
1.34795
1.64492
1.94239
2.24007
2.53769
2.83497
3.13166
3.4275
3.72228
4.01577
4.30777
4.59811
4.88661
5.17313
5.45754
5.73972
6.01959
6.29706
6.57207
6.84456
7.11451
7.38187
7.64662
7.90875
8.16822
8.42504
8.67915
8.93054
9.17915
9.42494
9.66784
9.90774
10.1445
10.3781
10.6081
10.8344
11.0567
11.2747
11.488
11.6962
11.8989
12.0955
12.2856
12.4686
12.6438
12.81
12.9667
13.1092
13.2477
13.3203
-6.7627
-6.77138
-6.78166
-6.79086
-6.79851
-6.80507
-6.81092
-6.81635
-6.82163
-6.82696
-6.83257
-6.83865
-6.84535
-6.85283
-6.8612
-6.87055
-6.88094
-6.89242
-6.90501
-6.9187
-6.93347
-6.94929
-6.96611
-6.98388
-7.00255
-7.02206
-7.04235
-7.06338
-7.08508
-7.10741
-7.13032
-7.15379
-7.17777
-7.20223
-7.22715
-7.25249
-7.27824
-7.30436
-7.33083
-7.35764
-7.38474
-7.41211
-7.43972
-7.46753
-7.49549
-7.52357
-7.55171
-7.57986
-7.60796
-7.63594
-7.66373
-7.69125
-7.71842
-7.74514
-7.77133
-7.79687
-7.82167
-7.84561
-7.86857
-7.89043
-7.91105
-7.9303
-7.94804
-7.96413
-7.97843
-7.99076
-8.00099
-8.00896
-8.0145
-8.01744
-8.01764
-8.01491
-8.00909
-8.00001
-7.9875
-7.97139
-7.95151
-7.92769
-7.89977
-7.86758
-7.83095
-7.78972
-7.74373
-7.69282
-7.63684
-7.57564
-7.50908
-7.437
-7.35925
-7.27567
-7.18612
-7.09046
-6.98858
-6.88038
-6.76577
-6.64465
-6.51696
-6.38263
-6.24161
-6.09388
-5.93939
-5.77816
-5.61017
-5.43545
-5.25404
-5.06598
-4.87133
-4.67019
-4.46263
-4.24879
-4.02878
-3.80276
-3.57087
-3.33331
-3.09024
-2.84189
-2.58847
-2.33021
-2.06735
-1.80016
-1.52889
-1.25383
-0.975258
-0.693473
-0.408771
-0.121453
0.168173
0.459798
0.753112
1.04781
1.34357
1.64011
1.93713
2.23433
2.53145
2.8282
3.12434
3.41961
3.7138
4.00669
4.29807
4.58777
4.87563
5.1615
5.44525
5.72679
6.006
6.28283
6.55721
6.82909
7.09844
7.36523
7.62945
7.89108
8.1501
8.40651
8.66027
8.91137
9.15976
9.40539
9.6482
9.8881
10.125
10.3586
10.5888
10.8154
11.038
11.2563
11.47
11.6786
11.8816
12.0785
12.2687
12.4516
12.6264
12.7918
12.9471
13.0877
13.2238
13.2927
-6.77146
-6.77942
-6.78886
-6.79741
-6.80463
-6.8109
-6.81657
-6.82189
-6.82711
-6.83243
-6.83804
-6.84412
-6.85083
-6.85828
-6.86659
-6.87586
-6.88613
-6.89746
-6.90986
-6.92335
-6.9379
-6.9535
-6.97011
-6.98768
-7.00617
-7.02552
-7.0457
-7.06664
-7.0883
-7.11064
-7.13361
-7.15718
-7.1813
-7.20595
-7.23109
-7.25669
-7.28273
-7.30917
-7.33598
-7.36314
-7.3906
-7.41834
-7.44631
-7.47448
-7.50279
-7.53121
-7.55966
-7.5881
-7.61646
-7.64468
-7.67267
-7.70036
-7.72766
-7.75449
-7.78075
-7.80634
-7.83114
-7.85505
-7.87794
-7.89971
-7.9202
-7.9393
-7.95686
-7.97275
-7.98681
-7.9989
-8.00886
-8.01653
-8.02177
-8.0244
-8.02426
-8.0212
-8.01503
-8.0056
-7.99275
-7.97629
-7.95606
-7.93191
-7.90365
-7.87113
-7.83417
-7.79263
-7.74633
-7.69513
-7.63887
-7.57739
-7.51056
-7.4382
-7.36013
-7.27621
-7.18631
-7.09031
-6.98809
-6.87956
-6.76462
-6.64319
-6.5152
-6.38058
-6.23929
-6.0913
-5.93658
-5.77512
-5.60692
-5.43202
-5.25044
-5.06223
-4.86746
-4.66621
-4.45858
-4.24468
-4.02464
-3.7986
-3.56673
-3.32921
-3.08622
-2.83796
-2.58466
-2.32654
-2.06386
-1.79686
-1.52582
-1.25101
-0.972723
-0.691246
-0.406879
-0.119925
0.169309
0.460515
0.753383
1.0476
1.34287
1.63888
1.93535
2.23197
2.52849
2.82462
3.12011
3.41472
3.70823
4.00041
4.29108
4.58006
4.86719
5.15233
5.43535
5.71615
5.99464
6.27075
6.54442
6.81562
7.08431
7.35048
7.61411
7.87519
8.13371
8.38966
8.64304
8.89381
9.14194
9.3874
9.63011
9.86997
10.1069
10.3406
10.571
10.7979
11.0208
11.2394
11.4534
11.6624
11.8657
12.0628
12.2532
12.4359
12.6103
12.7749
12.9289
13.0676
13.2015
13.2676
-6.78178
-6.78899
-6.79751
-6.80527
-6.81185
-6.81758
-6.82278
-6.8277
-6.83255
-6.83754
-6.84285
-6.84863
-6.85504
-6.8622
-6.87019
-6.87912
-6.88905
-6.90001
-6.91204
-6.92515
-6.93934
-6.95459
-6.97088
-6.98816
-7.00641
-7.02558
-7.04563
-7.0665
-7.08815
-7.11054
-7.13362
-7.15735
-7.18169
-7.2066
-7.23205
-7.25799
-7.28438
-7.3112
-7.33841
-7.36595
-7.3938
-7.42192
-7.45024
-7.47874
-7.50736
-7.53604
-7.56473
-7.59336
-7.62188
-7.65021
-7.67827
-7.70599
-7.73328
-7.76006
-7.78622
-7.81168
-7.83631
-7.86002
-7.88268
-7.90417
-7.92438
-7.94316
-7.96038
-7.9759
-7.98959
-8.00128
-8.01083
-8.01809
-8.0229
-8.0251
-8.02453
-8.02103
-8.01444
-8.00459
-7.99131
-7.97444
-7.95382
-7.92928
-7.90065
-7.86777
-7.83047
-7.7886
-7.74199
-7.6905
-7.63395
-7.5722
-7.50507
-7.43236
-7.35393
-7.26964
-7.17938
-7.08303
-6.98048
-6.87163
-6.75639
-6.63468
-6.50642
-6.37155
-6.23004
-6.08184
-5.92693
-5.76531
-5.59698
-5.42196
-5.24029
-5.05202
-4.85721
-4.65594
-4.44832
-4.23446
-4.01449
-3.78854
-3.5568
-3.31942
-3.0766
-2.82855
-2.57548
-2.31762
-2.05522
-1.78854
-1.51784
-1.24341
-0.965519
-0.684469
-0.400558
-0.114087
0.174636
0.465304
0.757606
1.05123
1.34588
1.64125
1.93705
2.23299
2.52879
2.82419
3.11893
3.41277
3.70549
3.99688
4.28674
4.5749
4.86121
5.14552
5.42772
5.7077
5.98538
6.2607
6.53361
6.80406
7.07203
7.33751
7.60049
7.86097
8.11894
8.3744
8.62735
8.87776
9.12561
9.37085
9.61343
9.85324
10.0902
10.324
10.5546
10.7816
11.0048
11.2238
11.4381
11.6474
11.851
12.0484
12.2388
12.4214
12.5953
12.7591
12.9119
13.0489
13.1806
13.2446
-6.79365
-6.80018
-6.80781
-6.81468
-6.8204
-6.8253
-6.8297
-6.83384
-6.83795
-6.84223
-6.84686
-6.852
-6.85777
-6.8643
-6.87168
-6.87999
-6.88929
-6.89964
-6.91107
-6.9236
-6.93724
-6.95198
-6.9678
-6.9847
-7.00262
-7.02154
-7.04141
-7.06219
-7.08383
-7.10628
-7.12949
-7.15342
-7.17801
-7.20322
-7.229
-7.25529
-7.28206
-7.30925
-7.33682
-7.36471
-7.39288
-7.42129
-7.44987
-7.47857
-7.50735
-7.53615
-7.5649
-7.59355
-7.62202
-7.65026
-7.67818
-7.70572
-7.73278
-7.75928
-7.78513
-7.81024
-7.83449
-7.85779
-7.88001
-7.90105
-7.92077
-7.93906
-7.95577
-7.97077
-7.98393
-7.99509
-8.00411
-8.01083
-8.01512
-8.0168
-8.01572
-8.01172
-8.00464
-7.99432
-7.98059
-7.9633
-7.94227
-7.91734
-7.88834
-7.85512
-7.81751
-7.77535
-7.72848
-7.67674
-7.61994
-7.55789
-7.4904
-7.41732
-7.33853
-7.25391
-7.16334
-7.0667
-6.96388
-6.85478
-6.73931
-6.61739
-6.48895
-6.35393
-6.21229
-6.06398
-5.909
-5.74733
-5.57898
-5.40397
-5.22233
-5.03412
-4.8394
-4.63826
-4.43079
-4.2171
-3.99734
-3.77164
-3.54016
-3.30308
-3.06059
-2.81289
-2.56021
-2.30277
-2.04082
-1.77461
-1.50442
-1.23051
-0.953181
-0.672718
-0.38942
-0.10359
0.184466
0.47444
0.766023
1.05891
1.35279
1.64737
1.94236
2.23746
2.53241
2.82694
3.1208
3.41374
3.70556
3.99602
4.28496
4.5722