/*--------------------------------*- C++ -*----------------------------------*\
  =========                 |
  \\      /  F ield         | OpenFOAM: The Open Source CFD Toolbox
   \\    /   O peration     | Website:  https://openfoam.org
    \\  /    A nd           | Version:  9
     \\/     M anipulation  |
\*---------------------------------------------------------------------------*/
FoamFile
{
    format      ascii;
    class       volScalarField;
    location    "0.063";
    object      p;
}
// * * * * * * * * * * * * * * * * * * * * * * * * * * * * * * * * * * * * * //

dimensions      [0 2 -2 0 0 0 0];

internalField   nonuniform List<scalar> 
12225
(
281.54
291.33
296.933
300.281
302.179
303.107
303.347
303.093
302.512
301.71
300.74
299.633
298.417
297.119
295.764
294.329
292.731
290.816
281.727
291.513
297.057
300.351
302.222
303.133
303.364
303.104
302.52
301.715
300.742
299.63
298.409
297.105
295.739
294.304
292.73
290.858
283.13
291.922
297.292
300.505
302.33
303.212
303.426
303.156
302.56
301.739
300.747
299.622
298.397
297.094
295.729
294.294
292.724
290.972
285.392
292.526
297.665
300.771
302.513
303.345
303.527
303.232
302.615
301.776
300.77
299.64
298.414
297.109
295.737
294.298
292.764
291.15
286.999
293.277
298.189
301.154
302.789
303.554
303.693
303.37
302.727
301.86
300.832
299.685
298.447
297.137
295.766
294.342
292.865
291.371
287.552
294.18
298.889
301.685
303.183
303.844
303.909
303.536
302.857
301.962
300.913
299.754
298.509
297.196
295.829
294.424
292.999
291.597
288.723
295.383
299.817
302.369
303.694
304.235
304.217
303.786
303.059
302.123
301.041
299.856
298.594
297.273
295.911
294.528
293.15
291.813
290.097
296.789
300.981
303.238
304.357
304.736
304.599
304.085
303.298
302.318
301.204
299.998
298.722
297.394
296.033
294.664
293.314
292.014
291.043
298.659
302.434
304.308
305.169
305.372
305.111
304.498
303.63
302.587
301.425
300.183
298.883
297.541
296.18
294.822
293.492
292.214
294.357
301.049
304.248
305.651
306.166
306.126
305.687
304.953
304.002
302.897
301.69
300.416
299.092
297.734
296.364
295.005
293.68
292.405
299.947
304.109
306.342
307.159
307.312
307.042
306.436
305.56
304.494
303.3
302.024
300.696
299.335
297.957
296.578
295.217
293.89
292.611
305.834
307.525
308.655
308.896
308.585
308.007
307.184
306.159
304.987
303.718
302.385
301.01
299.611
298.203
296.803
295.427
294.089
292.795
312.987
310.949
310.801
310.527
309.962
309.108
308.082
306.893
305.586
304.214
302.8
301.362
299.916
298.476
297.054
295.66
294.307
292.999
317.225
316.432
314.41
313.061
311.787
310.518
309.196
307.788
306.328
304.846
303.347
301.836
300.329
298.839
297.376
295.949
294.566
293.227
329.663
321.583
317.873
315.736
313.927
312.288
310.662
308.994
307.325
305.685
304.059
302.449
300.867
299.321
297.813
296.348
294.933
293.57
333.532
325.87
321.843
319.053
316.665
314.523
312.476
310.482
308.582
306.754
304.974
303.238
301.554
299.922
298.34
296.812
295.337
293.908
329.544
328.887
325.805
322.656
319.731
317.101
314.645
312.328
310.163
308.106
306.129
304.233
302.419
300.682
299.015
297.414
295.877
294.405
333.237
332.982
330.235
326.805
323.382
320.207
317.289
314.572
312.053
309.715
307.519
305.444
303.479
301.613
299.838
298.146
296.529
294.98
357.792
346.368
338.482
332.686
327.796
323.684
320.126
316.96
314.099
311.48
309.057
306.798
304.678
302.678
300.785
298.989
297.28
295.65
364.387
351.934
342.413
335.593
330.236
325.892
322.075
318.685
315.632
312.841
310.268
307.878
305.642
303.538
301.553
299.677
297.9
296.214
369.04
353.003
343.849
337.024
331.646
327.062
323.131
319.637
316.498
313.639
310.999
308.543
306.245
304.088
302.056
300.136
298.316
296.586
357.751
348.629
342.218
336.632
331.741
327.487
323.669
320.216
317.078
314.196
311.521
309.03
306.687
304.49
302.42
300.464
298.612
296.853
345.415
345.562
340.773
335.923
331.494
327.489
323.856
320.504
317.4
314.521
311.833
309.316
306.965
304.749
302.659
300.685
298.817
297.045
346.621
343.261
339.39
335.265
331.314
327.539
323.995
320.687
317.621
314.759
312.066
309.54
307.173
304.946
302.845
300.857
298.974
297.185
343.951
341.667
338.366
334.631
330.902
327.381
323.985
320.769
317.739
314.866
312.179
309.659
307.284
305.063
302.954
300.958
299.066
297.269
343.629
340.657
337.559
334.191
330.748
327.339
323.992
320.823
317.819
314.973
312.292
309.772
307.407
305.155
303.037
301.034
299.135
297.331
343.121
339.708
336.947
333.807
330.556
327.234
323.981
320.838
317.841
315.007
312.33
309.81
307.438
305.196
303.082
301.081
299.182
297.374
338.664
338.706
336.531
333.624
330.476
327.207
323.973
320.853
317.877
315.052
312.374
309.846
307.465
305.222
303.108
301.108
299.209
297.4
337.3
338.181
336.281
333.459
330.405
327.194
323.979
320.86
317.884
315.06
312.384
309.856
307.474
305.231
303.12
301.125
299.23
297.421
336.59
337.991
336.198
333.414
330.389
327.194
323.984
320.872
317.899
315.072
312.388
309.851
307.466
305.228
303.122
301.133
299.24
297.431
258.101
257.991
258.136
258.551
258.736
258.47
257.68
256.428
254.909
253.313
251.795
250.466
249.386
248.615
248.172
247.973
247.965
248.101
248.168
247.994
247.609
247.205
246.92
246.783
246.799
246.89
246.943
246.913
246.809
246.591
246.226
245.682
244.975
244.133
243.063
241.63
240.029
238.24
236.341
234.381
232.39
230.398
228.43
226.498
224.606
222.742
220.888
219.02
217.128
215.239
213.436
211.844
210.578
209.7
209.246
209.252
209.708
210.563
211.776
213.296
215.066
217.031
219.141
221.345
223.597
225.85
228.058
230.162
232.067
233.624
234.593
234.628
233.359
230.379
225.859
220.649
216.426
214.512
215.096
217.65
220.537
222.026
221.986
221.348
221.206
219.384
220.809
222.46
219.302
210.94
201.283
191.439
182.584
175.147
169.421
165.47
163.278
162.738
163.703
165.952
169.237
173.301
177.893
182.783
187.761
192.649
197.294
201.579
205.413
208.742
211.538
213.799
215.543
216.804
217.626
218.057
218.147
217.944
217.49
216.828
215.991
215.017
213.945
212.819
211.674
210.531
209.386
208.213
206.975
205.644
204.21
202.677
201.055
199.353
197.571
195.704
193.739
191.653
189.415
186.985
184.318
181.376
178.147
174.647
170.929
167.079
163.202
159.421
155.859
152.606
149.812
147.571
145.826
144.784
144.503
144.658
145.584
144.881
139.475
131.646
127.001
124.927
124.628
125.576
126.718
127.348
127.201
126.342
125.033
123.581
122.056
120.302
118.276
116.075
114.079
112.53
111.517
110.824
110.272
109.372
257.425
257.359
257.395
257.549
257.342
256.702
255.646
254.295
252.806
251.314
249.935
248.748
247.789
247.058
246.614
246.439
246.483
246.695
246.935
246.977
246.949
246.999
246.958
246.841
246.81
246.879
246.892
246.863
246.842
246.772
246.551
246.094
245.312
244.276
243.045
241.586
239.906
238.031
236.03
233.954
231.838
229.714
227.607
225.527
223.478
221.458
219.465
217.492
215.544
213.656
211.912
210.428
209.306
208.604
208.329
208.457
208.972
209.869
211.112
212.654
214.443
216.423
218.539
220.737
222.965
225.173
227.31
229.316
231.096
232.503
233.291
233.091
231.48
228.008
222.916
217.293
212.919
210.966
211.761
214.852
218.601
221.122
222.015
221.815
221.536
219.791
217.484
217.358
212.713
204.617
195.687
186.726
178.739
171.997
166.833
163.321
161.512
161.288
162.492
164.925
168.365
172.561
177.271
182.263
187.33
192.293
197.003
201.338
205.213
208.57
211.385
213.657
215.407
216.67
217.49
217.919
218.008
217.803
217.35
216.689
215.852
214.874
213.791
212.654
211.501
210.358
209.225
208.072
206.858
205.549
204.132
202.611
200.998
199.299
197.517
195.646
193.673
191.576
189.326
186.884
184.205
181.255
178.018
174.512
170.788
166.933
163.048
159.255
155.676
152.407
149.543
147.227
145.429
144.208
143.764
143.508
143.809
142.934
137.397
130.795
126.952
124.794
124.242
125.341
126.709
127.422
127.286
126.411
125.079
123.607
122.07
120.335
118.272
116.044
114.018
112.479
111.486
110.816
110.261
109.401
257.673
257.585
257.074
256.263
255.226
253.977
252.581
251.131
249.702
248.353
247.139
246.114
245.319
244.777
244.484
244.413
244.565
244.912
245.328
245.755
246.26
246.741
246.975
247.01
247.014
246.969
246.881
246.817
246.852
246.857
246.615
246.079
245.285
244.226
242.908
241.335
239.512
237.465
235.247
232.915
230.524
228.122
225.745
223.419
221.159
218.974
216.871
214.86
212.958
211.192
209.604
208.264
207.256
206.661
206.49
206.73
207.37
208.387
209.737
211.367
213.221
215.241
217.37
219.552
221.734
223.86
225.871
227.7
229.249
230.366
230.784
230.068
227.672
223.084
216.729
210.39
206.035
204.655
206.474
210.749
215.654
219.874
222.602
223.367
221.846
219.044
214.856
210.23
204.086
196.801
189.019
181.241
174.134
168.053
163.383
160.273
158.792
158.854
160.338
163.046
166.744
171.175
176.095
181.27
186.498
191.599
196.425
200.855
204.801
208.211
211.06
213.351
215.108
216.373
217.193
217.62
217.708
217.506
217.057
216.4
215.564
214.581
213.483
212.323
211.149
210.001
208.882
207.76
206.587
205.321
203.945
202.459
200.874
199.195
197.422
195.549
193.563
191.446
189.169
186.697
183.989
181.011
177.75
174.224
170.484
166.613
162.712
158.897
155.287
151.978
149.072
146.682
144.803
143.443
142.691
142.113
141.564
140.183
136.142
130.985
126.99
124.636
124.345
125.602
126.958
127.582
127.379
126.505
125.199
123.742
122.198
120.411
118.265
115.951
113.864
112.291
111.352
110.736
110.228
109.433
257.559
256.999
255.789
254.402
252.976
251.536
250.127
248.788
247.54
246.405
245.412
244.59
243.961
243.535
243.225
243.162
243.297
243.601
244.12
244.811
245.544
246.163
246.542
246.68
246.703
246.697
246.683
246.671
246.662
246.578
246.295
245.758
244.936
243.794
242.328
240.545
238.469
236.146
233.635
230.996
228.289
225.564
222.865
220.227
217.676
215.236
212.928
210.777
208.815
207.086
205.641
204.524
203.761
203.386
203.463
203.967
204.857
206.086
207.609
209.377
211.34
213.442
215.625
217.832
220.001
222.072
223.975
225.628
226.925
227.692
227.623
226.198
222.673
216.474
208.441
201.378
197.265
196.878
200.19
206.011
212.096
217.495
220.815
221.107
219.305
215.133
209.566
203.386
196.668
189.616
182.385
175.293
168.8
163.264
159.056
156.357
155.239
155.656
157.495
160.551
164.58
169.317
174.51
179.926
185.364
190.646
195.623
200.174
204.213
207.686
210.574
212.884
214.647
215.911
216.727
217.151
217.238
217.042
216.602
215.961
215.141
214.164
213.06
211.876
210.675
209.51
208.397
207.304
206.177
204.966
203.646
202.215
200.677
199.035
197.286
195.42
193.424
191.28
188.965
186.447
183.69
180.664
177.361
173.799
170.03
166.132
162.206
158.361
154.712
151.366
148.404
145.922
143.947
142.431
141.41
140.541
139.515
138.023
135.019
130.855
127.348
125.435
125.227
126.208
127.332
127.823
127.534
126.629
125.333
123.869
122.278
120.422
118.187
115.775
113.615
112.04
111.157
110.62
110.166
109.415
255.959
255.188
253.851
252.511
251.164
249.824
248.559
247.383
246.301
245.333
244.5
243.811
243.252
242.831
242.643
242.654
242.878
243.272
243.762
244.31
244.876
245.362
245.664
245.816
245.895
245.938
245.968
245.994
245.967
245.819
245.46
244.805
243.801
242.429
240.698
238.63
236.267
233.664
230.88
227.971
224.989
221.985
219.006
216.1
213.311
210.68
208.246
206.042
204.098
202.449
201.139
200.215
199.715
199.639
199.931
200.61
201.666
203.066
204.759
206.688
208.795
211.02
213.304
215.586
217.8
219.878
221.738
223.289
224.405
224.896
224.444
222.495
218.177
211.156
202.463
195.551
192.005
192.165
196.194
202.552
208.951
214.262
217.139
217.185
214.479
209.397
203.489
197.138
190.312
183.253
176.171
169.374
163.225
158.065
154.223
151.889
151.137
151.93
154.16
157.61
162.02
167.112
172.623
178.32
184.002
189.494
194.647
199.338
203.479
207.021
209.946
212.27
214.032
215.288
216.096
216.515
216.597
216.407
215.983
215.361
214.568
213.616
212.525
211.339
210.124
208.947
207.834
206.76
205.67
204.512
203.253
201.885
200.407
198.816
197.101
195.249
193.245
191.072
188.711
186.134
183.312
180.222
176.858
173.243
169.428
165.491
161.525
157.639
153.943
150.54
147.511
144.941
142.856
141.201
139.97
138.9
137.692
136.215
133.805
130.459
127.626
126.141
125.986
126.755
127.666
128.022
127.649
126.716
125.432
123.974
122.348
120.401
118.05
115.524
113.287
111.702
110.911
110.478
110.078
109.375
253.971
253.306
252.343
251.31
250.199
249.078
248.023
247.027
246.096
245.257
244.539
243.966
243.538
243.249
243.143
243.154
243.278
243.527
243.827
244.113
244.352
244.519
244.606
244.654
244.707
244.772
244.832
244.846
244.746
244.446
243.855
242.911
241.587
239.894
237.865
235.541
232.967
230.187
227.24
224.167
221.007
217.803
214.608
211.479
208.471
205.639
203.033
200.701
198.688
197.039
195.792
194.98
194.615
194.691
195.213
196.15
197.466
199.113
201.034
203.171
205.463
207.853
210.282
212.69
215.012
217.174
219.09
220.656
221.736
222.143
221.605
219.63
215.401
208.766
201.006
195.201
192.48
192.907
196.593
202.181
207.661
211.83
213.741
213.045
209.5
204.105
198.169
191.741
184.817
177.657
170.532
163.801
157.798
152.845
149.244
147.192
146.762
147.92
150.538
154.392
159.204
164.672
170.525
176.524
182.471
188.192
193.534
198.375
202.623
206.233
209.193
211.524
213.28
214.521
215.318
215.729
215.812
215.626
215.217
214.619
213.856
212.939
211.878
210.709
209.501
208.326
207.22
206.167
205.113
204.004
202.806
201.502
200.084
198.544
196.863
195.024
193.008
190.803
188.39
185.748
182.852
179.685
176.248
172.566
168.691
164.699
160.679
156.736
152.977
149.503
146.399
143.736
141.546
139.78
138.398
137.211
135.952
134.513
132.508
129.893
127.67
126.52
126.447
127.088
127.82
128.081
127.689
126.759
125.494
124.034
122.347
120.288
117.83
115.226
112.946
111.391
110.668
110.325
109.977
109.309
252.862
252.394
251.739
250.987
250.142
249.3
248.517
247.771
247.071
246.441
245.894
245.442
245.081
244.802
244.604
244.459
244.333
244.223
244.129
244.032
243.927
243.815
243.723
243.674
243.661
243.658
243.617
243.468
243.129
242.519
241.581
240.291
238.657
236.713
234.496
232.035
229.353
226.465
223.39
220.15
216.779
213.327
209.851
206.424
203.12
200.019
197.194
194.712
192.63
190.988
189.806
189.098
188.882
189.179
189.969
191.201
192.812
194.735
196.904
199.254
201.725
204.266
206.825
209.354
211.797
214.086
216.138
217.845
219.068
219.645
219.381
217.915
214.617
209.443
203.641
199.673
198.067
198.668
201.468
205.461
209.138
211.611
212.192
210.327
205.904
200.29
194.186
187.475
180.299
172.924
165.64
158.845
152.855
147.987
144.52
142.662
142.48
143.935
146.894
151.116
156.306
162.14
168.327
174.626
180.838
186.787
192.319
197.307
201.66
205.33
208.316
210.641
212.387
213.617
214.404
214.814
214.903
214.731
214.343
213.773
213.044
212.164
211.14
210.002
208.817
207.658
206.568
205.538
204.522
203.466
202.328
201.084
199.721
198.222
196.566
194.73
192.697
190.456
187.991
185.283
182.311
179.063
175.546
171.787
167.838
163.772
159.679
155.658
151.815
148.254
145.06
142.304
140.023
138.169
136.687
135.443
134.198
132.838
131.179
129.181
127.466
126.588
126.603
127.163
127.763
127.972
127.603
126.713
125.476
124.007
122.251
120.108
117.594
114.945
112.63
111.085
110.439
110.174
109.858
109.208
252.699
252.373
251.953
251.458
250.876
250.286
249.74
249.201
248.682
248.19
247.727
247.299
246.9
246.512
246.124
245.732
245.348
244.988
244.651
244.334
244.039
243.774
243.545
243.354
243.18
242.978
242.683
242.221
241.527
240.552
239.273
237.691
235.828
233.71
231.351
228.754
225.917
222.837
219.519
215.987
212.288
208.487
204.666
200.914
197.329
194.009
191.042
188.49
186.4
184.799
183.711
183.162
183.162
183.73
184.812
186.345
188.262
190.488
192.945
195.553
198.237
200.933
203.593
206.182
208.676
211.043
213.23
215.144
216.66
217.637
217.944
217.36
215.504
212.382
208.961
206.908
206.429
207.306
209.28
211.613
213.301
213.954
212.972
209.652
204.22
198.212
191.733
184.563
177.007
169.311
161.782
154.849
148.795
143.929
140.513
138.768
138.751
140.415
143.622
148.126
153.616
159.749
166.218
172.774
179.218
185.37
191.07
196.188
200.623
204.332
207.325
209.645
211.371
212.587
213.37
213.786
213.892
213.743
213.386
212.855
212.166
211.327
210.344
209.245
208.093
206.958
205.889
204.885
203.91
202.905
201.824
200.633
199.313
197.843
196.199
194.359
192.308
190.035
187.524
184.756
181.711
178.381
174.778
170.93
166.889
162.727
158.533
154.409
150.459
146.791
143.496
140.646
138.283
136.365
134.833
133.577
132.392
131.168
129.826
128.329
127.04
126.409
126.506
127.016
127.525
127.704
127.377
126.55
125.353
123.879
122.08
119.891
117.353
114.687
112.375
110.875
110.289
110.065
109.748
109.092
253.329
253.093
252.825
252.499
252.097
251.694
251.305
250.903
250.488
250.06
249.612
249.145
248.658
248.163
247.656
247.174
246.716
246.278
245.858
245.451
245.051
244.659
244.272
243.881
243.455
242.947
242.298
241.456
240.381
239.051
237.461
235.619
233.535
231.209
228.63
225.783
222.656
219.245
215.567
211.665
207.611
203.496
199.419
195.471
191.735
188.281
185.176
182.486
180.271
178.591
177.494
177.014
177.152
177.872
179.173
181.012
183.314
185.972
188.87
191.896
194.948
197.944
200.825
203.559
206.136
208.56
210.834
212.932
214.78
216.276
217.318
217.778
217.483
216.48
215.367
215.043
215.505
216.596
217.985
219.022
219.282
218.407
215.847
210.929
204.381
197.808
190.839
183.102
175.116
167.063
159.247
152.139
145.973
141.068
137.667
135.977
136.06
137.843
141.18
145.833
151.487
157.793
164.437
171.163
177.769
184.069
189.894
195.093
199.571
203.288
206.266
208.566
210.27
211.473
212.258
212.688
212.818
212.699
212.381
211.893
211.249
210.455
209.517
208.46
207.342
206.235
205.188
204.215
203.279
202.323
201.288
200.137
198.846
197.394
195.758
193.916
191.856
189.563
187.02
184.2
181.085
177.669
173.967
170.011
165.851
161.561
157.233
152.973
148.887
145.091
141.683
138.738
136.305
134.354
132.816
131.593
130.516
129.478
128.436
127.343
126.419
126.02
126.211
126.703
127.15
127.302
127.018
126.265
125.123
123.665
121.85
119.65
117.134
114.507
112.233
110.79
110.242
110.026
109.673
108.981
254.584
254.368
254.194
253.971
253.684
253.389
253.092
252.764
252.403
252.006
251.573
251.107
250.616
250.115
249.627
249.155
248.697
248.245
247.789
247.316
246.819
246.292
245.723
245.094
244.372
243.518
242.494
241.271
239.829
238.16
236.262
234.132
231.764
229.138
226.237
223.045
219.56
215.799
211.799
207.617
203.324
198.997
194.711
190.534
186.517
182.702
179.145
175.933
173.18
171.025
169.594
168.949
169.118
170.078
171.798
174.193
177.145
180.503
184.108
187.807
191.469
194.991
198.304
201.369
204.181
206.764
209.167
211.435
213.587
215.594
217.394
218.897
220.031
220.853
221.654
222.793
224.128
225.449
226.513
226.723
226.063
224.093
220.15
213.72
206.031
198.839
191.408
183.07
174.669
166.304
158.196
150.916
144.633
139.657
136.243
134.563
134.683
136.512
139.865
144.52
150.185
156.514
163.211
169.986
176.655
183.02
188.895
194.114
198.583
202.269
205.207
207.472
209.151
210.341
211.129
211.576
211.733
211.649
211.372
210.928
210.33
209.58
208.683
207.665
206.58
205.497
204.475
203.533
202.635
201.717
200.714
199.589
198.319
196.882
195.256
193.425
191.373
189.081
186.517
183.65
180.458
176.942
173.119
169.024
164.707
160.249
155.747
151.312
147.059
143.111
139.577
136.541
134.055
132.101
130.602
129.461
128.537
127.725
126.975
126.233
125.635
125.457
125.751
126.256
126.668
126.8
126.55
125.871
124.802
123.383
121.582
119.418
116.975
114.421
112.207
110.823
110.299
110.061
109.649
108.9
256.375
256.22
256.065
255.876
255.636
255.391
255.138
254.853
254.532
254.173
253.774
253.341
252.89
252.438
251.986
251.533
251.075
250.604
250.107
249.568
248.974
248.31
247.555
246.686
245.676
244.499
243.134
241.566
239.789
237.797
235.584
233.139
230.448
227.494
224.266
220.76
216.983
212.954
208.709
204.292
199.748
195.11
190.405
185.66
180.925
176.283
171.862
167.826
164.357
161.641
159.845
159.078
159.374
160.712
163.013
166.158
169.978
174.268
178.81
183.394
187.852
192.062
195.95
199.482
202.66
205.529
208.159
210.644
213.081
215.532
217.999
220.424
222.756
225.003
227.229
229.475
231.581
233.224
234.209
234.186
232.896
230.216
225.159
217.536
208.755
200.967
193.206
184.354
175.596
167.015
158.658
151.222
144.818
139.757
136.317
134.614
134.723
136.511
139.779
144.316
149.848
156.062
162.659
169.374
176.002
182.336
188.169
193.333
197.731
201.342
204.213
206.428
208.078
209.256
210.047
210.512
210.694
210.64
210.399
209.998
209.443
208.733
207.87
206.88
205.816
204.756
203.762
202.853
201.988
201.094
200.11
199.002
197.75
196.332
194.729
192.926
190.901
188.62
186.041
183.12
179.835
176.192
172.216
167.94
163.421
158.746
154.025
149.375
144.922
140.797
137.127
134.006
131.489
129.564
128.152
127.146
126.416
125.857
125.408
125.003
124.712
124.743
125.15
125.696
126.102
126.226
126.005
125.399
124.416
123.06
121.31
119.224
116.879
114.427
112.313
111.001
110.47
110.167
109.671
108.852
258.596
258.46
258.298
258.109
257.889
257.664
257.432
257.173
256.88
256.554
256.195
255.807
255.405
254.985
254.55
254.099
253.628
253.126
252.578
251.967
251.274
250.476
249.549
248.469
247.214
245.768
244.119
242.262
240.193
237.908
235.4
232.66
229.679
226.447
222.958
219.208
215.199
210.935
206.425
201.676
196.693
191.473
186.025
180.384
174.637
168.931
163.468
158.485
154.227
150.922
148.779
147.924
148.383
150.107
153.052
157.072
161.945
167.395
173.118
178.828
184.289
189.346
193.923
197.999
201.587
204.754
207.621
210.337
213.05
215.886
218.9
222.069
225.324
228.601
231.833
234.89
237.556
239.56
240.661
240.63
239.132
236.025
230.305
221.894
212.227
203.871
195.782
186.735
177.72
169.019
160.624
153.05
146.592
141.484
137.99
136.229
136.236
137.886
140.967
145.265
150.536
156.499
162.877
169.418
175.9
182.095
187.784
192.798
197.052
200.535
203.308
205.458
207.072
208.237
209.032
209.514
209.72
209.693
209.485
209.124
208.612
207.934
207.091
206.112
205.061
204.025
203.068
202.193
201.352
200.472
199.499
198.406
197.175
195.785
194.218
192.456
190.465
188.195
185.592
182.602
179.199
175.397
171.224
166.721
161.95
157.009
152.022
147.116
142.425
138.099
134.281
131.079
128.553
126.696
125.423
124.608
124.114
123.837
123.709
123.646
123.654
123.89
124.42
125.035
125.469
125.606
125.419
124.886
123.998
122.725
121.059
119.076
116.849
114.53
112.546
111.308
110.741
110.334
109.733
108.839
260.954
260.84
260.682
260.495
260.29
260.08
259.864
259.63
259.365
259.073
258.754
258.413
258.041
257.642
257.215
256.758
256.264
255.725
255.125
254.443
253.658
252.744
251.674
250.426
248.98
247.323
245.449
243.354
241.04
238.504
235.745
232.76
229.547
226.099
222.409
218.459
214.227
209.688
204.816
199.582
193.958
187.933
181.527
174.813
167.927
161.073
154.505
148.513
143.404
139.452
136.884
135.859
136.46
138.637
142.309
147.291
153.316
160.044
167.098
174.102
180.738
186.788
192.151
196.844
200.929
204.456
207.529
210.366
213.239
216.35
219.78
223.511
227.437
231.403
235.274
238.89
241.991
244.285
245.544
245.603
244.179
240.837
235.005
226.291
216.292
207.196
198.783
189.89
180.84
172.155
163.894
156.362
149.931
144.834
141.285
139.405
139.215
140.61
143.389
147.339
152.238
157.842
163.9
170.164
176.387
182.324
187.75
192.511
196.537
199.837
202.475
204.538
206.106
207.253
208.052
208.551
208.782
208.783
208.608
208.288
207.816
207.166
206.332
205.354
204.319
203.32
202.408
201.57
200.746
199.874
198.911
197.835
196.629
195.273
193.749
192.031
190.069
187.801
185.161
182.081
178.531
174.531
170.115
165.334
160.259
155.003
149.702
144.496
139.529
134.969
130.989
127.709
125.195
123.447
122.372
121.81
121.602
121.644
121.866
122.156
122.459
122.9
123.566
124.279
124.78
124.96
124.823
124.367
123.577
122.404
120.843
118.981
116.886
114.722
112.893
111.728
111.095
110.553
109.831
108.857
263.272
263.186
263.052
262.887
262.704
262.512
262.317
262.111
261.879
261.621
261.35
261.042
260.699
260.325
259.914
259.461
258.959
258.397
257.761
257.029
256.175
255.173
253.996
252.619
251.023
249.198
247.139
244.846
242.323
239.575
236.609
233.428
230.033
226.417
222.559
218.421
213.949
209.084
203.766
197.941
191.572
184.656
177.241
169.436
161.424
153.454
145.837
138.923
133.075
128.616
125.784
124.74
125.504
128.081
132.381
138.194
145.223
153.092
161.36
169.569
177.332
184.373
190.541
195.839
200.409
204.365
207.776
210.765
213.652
216.808
220.424
224.489
228.83
233.232
237.478
241.376
244.767
247.378
248.786
248.862
247.518
244.386
238.764
230.452
220.471
210.8
201.992
193.368
184.632
176.116
168.092
160.783
154.482
149.438
145.85
143.839
143.419
144.494
146.891
150.418
154.876
160.053
165.713
171.601
177.446
182.993
188.031
192.432
196.151
199.213
201.681
203.631
205.135
206.255
207.052
207.567
207.826
207.862
207.723
207.441
207.005
206.38
205.558
204.596
203.6
202.659
201.803
200.998
200.187
199.32
198.367
197.309
196.129
194.809
193.328
191.649
189.707
187.433
184.745
181.55
177.82
173.578
168.865
163.745
158.315
152.696
147.035
141.481
136.191
131.358
127.191
123.834
121.354
119.76
118.946
118.708
118.85
119.258
119.86
120.525
121.134
121.785
122.6
123.44
124.047
124.308
124.239
123.867
123.176
122.111
120.675
118.947
116.99
115.002
113.341
112.233
111.506
110.81
109.959
108.904
265.56
265.488
265.371
265.221
265.05
264.868
264.69
264.51
264.313
264.095
263.85
263.581
263.281
262.95
262.581
262.162
261.686
261.14
260.506
259.76
258.874
257.819
256.564
255.086
253.366
251.395
249.171
246.7
243.993
241.063
237.924
234.586
231.048
227.296
223.296
218.981
214.268
209.065
203.291
196.877
189.79
182.048
173.729
164.978
156.015
147.134
138.696
131.102
124.743
119.953
116.965
115.945
116.795
119.659
124.439
130.905
138.725
147.503
156.742
165.904
174.525
182.322
189.149
194.95
199.923
204.288
208.092
211.383
214.375
217.436
220.933
225.008
229.476
234.021
238.427
242.51
245.964
248.556
250.217
250.715
249.463
246.451
241.384
233.938
224.52
214.622
205.401
196.862
188.535
180.418
172.775
165.838
159.823
154.946
151.381
149.236
148.546
149.262
151.244
154.323
158.324
163.046
168.248
173.658
178.996
184.021
188.558
192.514
195.87
198.654
200.922
202.738
204.157
205.232
206.012
206.533
206.816
206.889
206.79
206.544
206.141
205.548
204.763
203.855
202.933
202.069
201.266
200.486
199.681
198.816
197.871
196.83
195.679
194.396
192.956
191.311
189.382
187.097
184.35
181.012
177.057
172.517
167.439
161.918
156.08
150.056
143.989
138.031
132.361
127.207
122.818
119.373
116.946
115.56
115.081
115.25
115.822
116.652
117.672
118.743
119.689
120.566
121.54
122.534
123.289
123.663
123.68
123.397
122.808
121.863
120.567
118.977
117.171
115.376
113.876
112.791
111.945
111.089
110.114
108.979
267.948
267.869
267.748
267.587
267.4
267.2
267.013
266.84
266.663
266.464
266.248
266.02
265.773
265.506
265.211
264.869
264.468
263.991
263.414
262.707
261.834
260.759
259.453
257.889
256.053
253.939
251.553
248.909
246.028
242.933
239.643
236.173
232.52
228.659
224.545
220.066
215.13
209.631
203.478
196.567
188.894
180.501
171.494
162.045
152.402
142.894
133.913
125.882
119.195
114.167
111.021
109.878
110.915
114.042
119.185
126.104
134.434
143.829
153.703
163.499
172.661
180.9
188.133
194.286
199.509
204.132
208.342
212.083
215.292
218.256
221.45
225.197
229.516
234.046
238.392
242.345
245.804
248.55
250.212
250.613
249.744
247.221
242.822
236.41
228.087
218.633
209.241
200.543
192.445
184.759
177.551
171.031
165.388
160.781
157.338
155.116
154.231
154.657
156.283
158.968
162.538
166.781
171.441
176.245
180.94
185.328
189.283
192.745
195.708
198.195
200.247
201.91
203.226
204.236
204.978
205.483
205.773
205.871
205.804
205.591
205.222
204.679
203.971
203.161
202.337
201.547
200.782
200.011
199.203
198.339
197.403
196.385
195.266
194.024
192.628
191.014
189.096
186.8
183.974
180.443
176.202
171.296
165.784
159.813
153.534
147.077
140.562
134.13
127.991
122.431
117.754
114.187
111.83
110.714
110.661
111.34
112.44
113.769
115.258
116.779
118.107
119.248
120.405
121.575
122.511
123.027
123.146
122.958
122.48
121.669
120.522
119.078
117.444
115.844
114.476
113.371
112.387
111.381
110.29
109.079
270.372
270.271
270.115
269.908
269.665
269.408
269.167
268.96
268.771
268.575
268.367
268.16
267.958
267.761
267.564
267.343
267.076
266.736
266.283
265.68
264.874
263.82
262.488
260.852
258.903
256.647
254.102
251.293
248.249
245.006
241.589
238.012
234.27
230.327
226.118
221.539
216.472
210.796
204.405
197.219
189.229
180.496
171.144
161.365
151.422
141.657
132.472
124.291
117.498
112.399
109.213
108.076
109.12
112.311
117.55
124.614
133.152
142.691
152.712
162.676
171.99
180.302
187.628
194.003
199.389
204.059
208.41
212.519
216.118
219.136
221.999
225.233
229.135
233.46
237.708
241.517
244.716
247.205
248.859
249.446
248.673
246.483
242.753
237.366
230.328
222.003
213.12
204.496
196.5
189.083
182.222
176.051
170.735
166.399
163.142
161.064
160.156
160.42
161.798
164.149
167.28
170.969
174.975
179.064
183.038
186.754
190.126
193.112
195.704
197.909
199.752
201.263
202.47
203.404
204.093
204.562
204.835
204.931
204.872
204.674
204.337
203.855
203.24
202.539
201.806
201.067
200.319
199.547
198.738
197.882
196.965
195.977
194.897
193.698
192.344
190.759
188.851
186.547
183.614
179.823
175.238
169.919
163.947
157.53
150.825
143.93
136.933
129.957
123.257
117.185
112.102
108.318
105.997
105.189
105.65
106.951
108.691
110.611
112.624
114.629
116.386
117.843
119.222
120.589
121.722
122.397
122.633
122.555
122.199
121.533
120.541
119.258
117.81
116.389
115.103
113.937
112.812
111.673
110.483
109.2
272.686
272.554
272.345
272.066
271.737
271.389
271.057
270.784
270.55
270.322
270.09
269.87
269.682
269.538
269.441
269.37
269.288
269.147
268.883
268.432
267.734
266.728
265.381
263.677
261.618
259.214
256.515
253.549
250.359
246.984
243.453
239.782
235.965
231.964
227.71
223.102
218.015
212.318
205.895
198.673
190.647
181.885
172.522
162.757
152.854
143.15
134.037
125.927
119.189
114.125
110.948
109.792
110.763
113.884
119.039
125.984
134.375
143.751
153.552
163.262
172.37
180.472
187.573
193.904
199.444
204.194
208.516
212.718
216.604
219.801
222.494
225.295
228.688
232.626
236.663
240.345
243.373
245.618
247.019
247.475
246.858
244.967
241.686
237.034
231.088
223.993
216.138
208.15
200.518
193.422
186.904
181.063
176.047
171.979
168.955
166.994
166.092
166.243
167.373
169.334
171.943
174.999
178.303
181.676
184.972
188.088
190.956
193.537
195.811
197.772
199.431
200.804
201.913
202.776
203.415
203.848
204.096
204.176