/*--------------------------------*- C++ -*----------------------------------*\
  =========                 |
  \\      /  F ield         | OpenFOAM: The Open Source CFD Toolbox
   \\    /   O peration     | Website:  https://openfoam.org
    \\  /    A nd           | Version:  9
     \\/     M anipulation  |
\*---------------------------------------------------------------------------*/
FoamFile
{
    format      ascii;
    class       volVectorField;
    location    "0.063";
    object      U;
}
// * * * * * * * * * * * * * * * * * * * * * * * * * * * * * * * * * * * * * //

dimensions      [0 1 -1 0 0 0 0];

internalField   nonuniform List<vector> 
12225
(
(9.97311 0.103424 0)
(9.58425 0.106601 0)
(9.19926 0.0569844 0)
(8.89261 0.0204315 0)
(8.64391 0.0170324 0)
(8.38284 0.0306314 0)
(8.08796 0.0412674 0)
(7.78161 0.0431527 0)
(7.48251 0.0432215 0)
(7.19911 0.0494862 0)
(6.90803 0.0617357 0)
(6.60656 0.0744008 0)
(6.28261 0.0805039 0)
(5.96144 0.0793148 0)
(5.64593 0.0737166 0)
(5.31943 0.0695502 0)
(5.01455 0.0811703 0)
(4.68544 0.0852638 0)
(9.82185 -0.0224452 0)
(10.083 0.0727972 0)
(10.1712 0.0969323 0)
(10.0874 0.102834 0)
(10.0033 0.101813 0)
(10.0014 0.103775 0)
(10.0616 0.110725 0)
(10.1197 0.1168 0)
(10.1255 0.118339 0)
(10.0757 0.11768 0)
(9.98982 0.11864 0)
(9.89467 0.121604 0)
(9.80002 0.129215 0)
(9.701 0.135382 0)
(9.58866 0.149671 0)
(9.44207 0.166814 0)
(9.24938 0.182442 0)
(9.04003 0.225931 0)
(9.83934 0.0504439 0)
(9.88964 0.0246482 0)
(10.1218 0.0531157 0)
(10.1761 0.0600588 0)
(10.1442 0.0393833 0)
(10.1273 0.0165113 0)
(10.1503 0.0128595 0)
(10.1791 0.0296537 0)
(10.1781 0.0575699 0)
(10.1444 0.0878559 0)
(10.0993 0.114397 0)
(10.0629 0.133918 0)
(10.0451 0.149172 0)
(10.0374 0.162923 0)
(10.028 0.181849 0)
(10.0045 0.209616 0)
(9.96303 0.245938 0)
(9.90178 0.290554 0)
(10.1661 0.0533128 0)
(10.0034 -0.00391107 0)
(10.0319 0.0342989 0)
(10.1146 0.0991971 0)
(10.1881 0.113967 0)
(10.2212 0.0998904 0)
(10.2123 0.0926981 0)
(10.1713 0.103657 0)
(10.1151 0.126102 0)
(10.0619 0.146214 0)
(10.0204 0.15415 0)
(9.98811 0.149751 0)
(9.95894 0.142589 0)
(9.9291 0.142475 0)
(9.8963 0.158337 0)
(9.86491 0.193773 0)
(9.83406 0.239833 0)
(9.80642 0.291804 0)
(9.89113 0.113742 0)
(9.8571 0.0513693 0)
(9.78311 0.0204871 0)
(9.86186 0.0164937 0)
(10.0323 0.00785139 0)
(10.1669 0.00845731 0)
(10.2008 0.0335506 0)
(10.1457 0.0713684 0)
(10.0639 0.104419 0)
(10.0104 0.125885 0)
(9.997 0.139601 0)
(10 0.152384 0)
(9.99301 0.169187 0)
(9.96144 0.190884 0)
(9.91053 0.217574 0)
(9.85272 0.2502 0)
(9.80407 0.284536 0)
(9.77097 0.321445 0)
(10.0985 -0.029692 0)
(10.1246 0.0116586 0)
(10.0241 0.0330428 0)
(10.0491 0.0359449 0)
(10.1431 0.0236422 0)
(10.1913 0.0411215 0)
(10.1779 0.0914598 0)
(10.1354 0.140694 0)
(10.0952 0.165344 0)
(10.0715 0.166571 0)
(10.061 0.159037 0)
(10.0537 0.155984 0)
(10.0416 0.164253 0)
(10.0213 0.183712 0)
(9.99328 0.210746 0)
(9.96285 0.243218 0)
(9.93578 0.275928 0)
(9.91584 0.309013 0)
(10.1713 -0.035524 0)
(10.061 0.0876059 0)
(10.0502 0.0375118 0)
(10.0709 -0.0241637 0)
(10.0612 -0.0399734 0)
(10.0367 -0.000960305 0)
(10.0409 0.0629281 0)
(10.0767 0.114495 0)
(10.1199 0.138709 0)
(10.1498 0.143268 0)
(10.1574 0.144467 0)
(10.1452 0.154643 0)
(10.1178 0.177415 0)
(10.083 0.209866 0)
(10.0404 0.245309 0)
(9.99615 0.279753 0)
(9.9491 0.309368 0)
(9.90619 0.334628 0)
(9.78429 0.0287374 0)
(9.84515 0.0259356 0)
(9.92008 0.0216299 0)
(9.90794 0.0422635 0)
(9.8764 0.0440195 0)
(9.8543 0.0443282 0)
(9.84682 0.0622232 0)
(9.84869 0.0936394 0)
(9.85437 0.124865 0)
(9.86313 0.148688 0)
(9.87598 0.166264 0)
(9.89367 0.183171 0)
(9.91501 0.203854 0)
(9.93781 0.230438 0)
(9.9576 0.261305 0)
(9.96905 0.29444 0)
(9.97124 0.327416 0)
(9.95943 0.358029 0)
(10.0394 0.073596 0)
(10.0341 0.0355806 0)
(10.0123 0.013289 0)
(10.0631 -0.0132413 0)
(10.1307 -0.0222262 0)
(10.1136 0.0167581 0)
(10.0241 0.0799741 0)
(9.93658 0.127893 0)
(9.89869 0.143508 0)
(9.90891 0.135983 0)
(9.93998 0.124515 0)
(9.96746 0.125248 0)
(9.98119 0.144601 0)
(9.98407 0.180334 0)
(9.98248 0.22542 0)
(9.98098 0.272143 0)
(9.9812 0.316589 0)
(9.98158 0.355889 0)
(9.81372 -0.0712038 0)
(9.96358 0.0145688 0)
(10.1142 0.0228661 0)
(10.1605 0.00163477 0)
(10.1147 0.0279971 0)
(10.0556 0.0825029 0)
(10.0422 0.122161 0)
(10.0823 0.131871 0)
(10.1468 0.125674 0)
(10.1974 0.125028 0)
(10.2095 0.14026 0)
(10.1819 0.168928 0)
(10.13 0.202658 0)
(10.0739 0.235051 0)
(10.0257 0.264433 0)
(9.99266 0.292163 0)
(9.96967 0.321131 0)
(9.95942 0.354009 0)
(9.89933 -0.154214 0)
(9.82659 -0.115079 0)
(9.95515 -0.0704389 0)
(10.0958 -0.0249575 0)
(10.1547 0.0226597 0)
(10.1444 0.0623181 0)
(10.1146 0.0854247 0)
(10.0942 0.0925404 0)
(10.0883 0.0952488 0)
(10.0911 0.106181 0)
(10.0917 0.130739 0)
(10.0802 0.166764 0)
(10.0528 0.207545 0)
(10.0123 0.247846 0)
(9.9655 0.284636 0)
(9.92046 0.318763 0)
(9.88257 0.350648 0)
(9.85748 0.382599 0)
(10.1731 -0.103644 0)
(10.0737 -0.0470285 0)
(9.92795 -0.0741347 0)
(9.82767 -0.0629614 0)
(9.83168 0.00645453 0)
(9.91483 0.0844376 0)
(10.0297 0.124603 0)
(10.131 0.126176 0)
(10.1896 0.116288 0)
(10.2022 0.1203 0)
(10.1839 0.147862 0)
(10.1555 0.193384 0)
(10.1294 0.243707 0)
(10.1118 0.28762 0)
(10.1004 0.319994 0)
(10.0911 0.34197 0)
(10.0817 0.357848 0)
(10.0643 0.372988 0)
(10.0906 -0.111699 0)
(10.251 -0.0372433 0)
(10.1926 0.0157618 0)
(10.0885 0.00957972 0)
(10.0654 -0.015343 0)
(10.1057 -0.0215975 0)
(10.1528 -0.00601695 0)
(10.1704 0.0254572 0)
(10.1522 0.06713 0)
(10.1154 0.112651 0)
(10.0809 0.157705 0)
(10.0622 0.200005 0)
(10.0622 0.238058 0)
(10.0771 0.272785 0)
(10.097 0.307489 0)
(10.1118 0.342859 0)
(10.1126 0.382524 0)
(10.0965 0.420986 0)
(10.1003 -0.235557 0)
(10.0767 -0.0392624 0)
(9.98348 0.0171235 0)
(9.94011 0.00563906 0)
(9.92186 0.00935029 0)
(9.92681 0.0456058 0)
(9.96905 0.0938641 0)
(10.0327 0.132271 0)
(10.0852 0.155178 0)
(10.1081 0.169384 0)
(10.1018 0.184363 0)
(10.0742 0.204128 0)
(10.0364 0.22742 0)
(9.9981 0.252644 0)
(9.96967 0.280952 0)
(9.9555 0.313827 0)
(9.95633 0.351707 0)
(9.97391 0.393629 0)
(9.84575 0.0203997 0)
(9.93936 0.0207667 0)
(9.91045 0.0395843 0)
(9.89669 0.0319139 0)
(9.90583 -0.0137832 0)
(9.93443 -0.0719213 0)
(9.99089 -0.0998804 0)
(10.0595 -0.0745777 0)
(10.1139 -0.00475825 0)
(10.1404 0.0890427 0)
(10.1394 0.184945 0)
(10.1174 0.266098 0)
(10.0851 0.324006 0)
(10.0525 0.358083 0)
(10.0269 0.374223 0)
(10.0098 0.381826 0)
(10.0019 0.387608 0)
(9.99873 0.399522 0)
(10.158 -0.155186 0)
(10.242 -0.0346385 0)
(10.2265 0.0511855 0)
(10.2123 0.0378895 0)
(10.1885 -0.00329727 0)
(10.1306 -0.0120034 0)
(10.0593 0.0150335 0)
(9.99945 0.0567179 0)
(9.96814 0.1026 0)
(9.97331 0.153679 0)
(10.0085 0.204844 0)
(10.0584 0.246361 0)
(10.1104 0.272706 0)
(10.1566 0.287178 0)
(10.195 0.298493 0)
(10.2237 0.314089 0)
(10.2459 0.338119 0)
(10.2606 0.369048 0)
(9.7968 0.0256138 0)
(9.85449 0.0453516 0)
(9.93127 0.0513501 0)
(10.0097 0.0531557 0)
(10.0094 0.0470201 0)
(9.96125 0.0407743 0)
(9.93244 0.0292836 0)
(9.93362 0.0118922 0)
(9.95545 0.00466829 0)
(9.99449 0.023564 0)
(10.0436 0.0708468 0)
(10.0926 0.135287 0)
(10.1319 0.200781 0)
(10.1587 0.256122 0)
(10.1709 0.297352 0)
(10.1741 0.327189 0)
(10.1685 0.350149 0)
(10.1645 0.370873 0)
(9.9696 -0.0311269 0)
(9.97805 -0.205981 0)
(10.0115 -0.170052 0)
(10.0624 -0.0388284 0)
(10.0807 0.0589813 0)
(10.0633 0.0877517 0)
(10.0462 0.0669305 0)
(10.0406 0.0363858 0)
(10.0338 0.0254026 0)
(10.0192 0.0409144 0)
(10.0021 0.075617 0)
(9.99138 0.120472 0)
(9.99256 0.168497 0)
(10.0062 0.217074 0)
(10.028 0.264692 0)
(10.0521 0.309168 0)
(10.0743 0.349029 0)
(10.0916 0.379692 0)
(10.1125 0.172754 0)
(10.0846 0.10075 0)
(10.0363 -0.0027062 0)
(10.0256 0.0114188 0)
(10.0588 0.0565627 0)
(10.0848 0.0666209 0)
(10.0932 0.0451787 0)
(10.091 0.0259127 0)
(10.0864 0.0360838 0)
(10.0876 0.0748976 0)
(10.0969 0.121319 0)
(10.1121 0.156366 0)
(10.1326 0.175503 0)
(10.1577 0.185564 0)
(10.1887 0.198247 0)
(10.2234 0.219718 0)
(10.2618 0.251679 0)
(10.2997 0.290741 0)
(10.0383 0.111608 0)
(10.1196 0.0226069 0)
(10.0842 -0.0994739 0)
(10.101 -0.10746 0)
(10.1129 -0.0345476 0)
(10.1198 0.0335307 0)
(10.1171 0.059987 0)
(10.1006 0.053476 0)
(10.0808 0.0367419 0)
(10.0673 0.0285474 0)
(10.063 0.0358763 0)
(10.0643 0.0547764 0)
(10.0667 0.0773652 0)
(10.0677 0.097993 0)
(10.0683 0.116216 0)
(10.0743 0.136472 0)
(10.0885 0.160808 0)
(10.1185 0.194436 0)
(9.92511 0.0406505 0)
(9.94594 0.0772823 0)
(9.93845 0.0129707 0)
(9.98367 -0.01351 0)
(10.0408 0.0192896 0)
(10.0663 0.0541563 0)
(10.0661 0.0688966 0)
(10.0511 0.0717986 0)
(10.0339 0.0747829 0)
(10.0305 0.0840531 0)
(10.0482 0.100885 0)
(10.0834 0.123067 0)
(10.1253 0.145177 0)
(10.1634 0.162257 0)
(10.1902 0.167921 0)
(10.2056 0.162572 0)
(10.2128 0.146334 0)
(10.2184 0.126019 0)
(10.0088 0.201931 0)
(10.0653 0.0623169 0)
(10.0915 -0.161903 0)
(10.119 -0.211403 0)
(10.1202 -0.118999 0)
(10.115 0.00669717 0)
(10.115 0.0892228 0)
(10.1165 0.105546 0)
(10.1217 0.0730643 0)
(10.1344 0.0228198 0)
(10.1546 -0.0184406 0)
(10.1817 -0.0344171 0)
(10.2144 -0.0216231 0)
(10.251 0.0141084 0)
(10.2875 0.0603303 0)
(10.3197 0.104503 0)
(10.3448 0.138567 0)
(10.3599 0.157364 0)
(10.0071 0.163421 0)
(10.1202 0.000863592 0)
(10.116 -0.0487242 0)
(9.99402 -0.0413446 0)
(9.90431 -0.00435739 0)
(9.92396 0.039971 0)
(10.0122 0.0636471 0)
(10.0984 0.0618993 0)
(10.1491 0.0473566 0)
(10.1638 0.0343882 0)
(10.1533 0.0280967 0)
(10.1309 0.0287395 0)
(10.1098 0.0349834 0)
(10.1004 0.0457707 0)
(10.1077 0.0594539 0)
(10.1307 0.0736766 0)
(10.1666 0.0863612 0)
(10.21 0.0954562 0)
(10.0257 0.0503757 0)
(10.1076 -0.0904039 0)
(10.2092 -0.0521358 0)
(10.2581 -0.00851017 0)
(10.2427 -0.0369581 0)
(10.2003 -0.0653876 0)
(10.1654 -0.0506275 0)
(10.1504 -0.0121511 0)
(10.1631 0.0170301 0)
(10.202 0.0257763 0)
(10.2521 0.0240183 0)
(10.2957 0.0214343 0)
(10.3223 0.0220089 0)
(10.331 0.0251915 0)
(10.3299 0.0293713 0)
(10.3291 0.0328508 0)
(10.3355 0.0343714 0)
(10.3532 0.0366733 0)
(9.88784 -0.00519955 0)
(9.88172 -0.119374 0)
(9.98217 -0.137729 0)
(10.1795 -0.0615183 0)
(10.3136 0.0143439 0)
(10.32 0.0691649 0)
(10.2529 0.0825191 0)
(10.1846 0.0500912 0)
(10.1519 -0.00328939 0)
(10.1584 -0.0455769 0)
(10.1864 -0.0576637 0)
(10.2146 -0.0390122 0)
(10.2332 -0.00372219 0)
(10.243 0.0312993 0)
(10.2481 0.0528321 0)
(10.2534 0.0580883 0)
(10.2627 0.0495976 0)
(10.2777 0.0351874 0)
(10.2351 -0.11936 0)
(10.289 -0.17266 0)
(10.1564 -0.218724 0)
(9.98312 -0.178858 0)
(9.90597 -0.0946992 0)
(9.93219 -0.00115515 0)
(10.0131 0.0578375 0)
(10.1039 0.0640118 0)
(10.1772 0.0343095 0)
(10.2214 -0.000391171 0)
(10.2431 -0.0201585 0)
(10.2596 -0.0184229 0)
(10.2842 -0.00159233 0)
(10.3194 0.0172838 0)
(10.3594 0.0268902 0)
(10.3966 0.0252813 0)
(10.4255 0.0150651 0)
(10.4427 0.0038652 0)
(10.4558 -0.0421655 0)
(10.2921 -0.0913257 0)
(10.2836 -0.00581805 0)
(10.2455 0.0211518 0)
(10.1413 0.0119388 0)
(10.0572 -0.000557171 0)
(10.0448 -0.0197708 0)
(10.0911 -0.0475222 0)
(10.1567 -0.0742101 0)
(10.2115 -0.0886788 0)
(10.2465 -0.0863203 0)
(10.2689 -0.0707756 0)
(10.2905 -0.0491477 0)
(10.318 -0.0279344 0)
(10.3504 -0.0109155 0)
(10.384 0.000595894 0)
(10.4149 0.00645216 0)
(10.4417 0.00720215 0)
(10.1632 -0.0191276 0)
(9.97203 -0.103861 0)
(9.93476 -0.14696 0)
(9.97581 -0.0796357 0)
(10.0518 0.00826836 0)
(10.1431 0.0447697 0)
(10.225 0.0305633 0)
(10.275 -0.00355082 0)
(10.2912 -0.0332721 0)
(10.2887 -0.0496452 0)
(10.282 -0.0523295 0)
(10.2779 -0.0456699 0)
(10.2775 -0.0352152 0)
(10.2818 -0.0263458 0)
(10.2927 -0.0224217 0)
(10.3114 -0.0234757 0)
(10.3373 -0.0282411 0)
(10.367 -0.0337051 0)
(10.2294 0.00992876 0)
(10.1797 -0.00110833 0)
(10.1258 -0.0331754 0)
(10.0472 -0.0529901 0)
(10.0352 -0.0605474 0)
(10.1042 -0.0634994 0)
(10.1995 -0.0686293 0)
(10.2663 -0.0765925 0)
(10.2842 -0.0843629 0)
(10.2652 -0.0873071 0)
(10.2343 -0.0809488 0)
(10.2114 -0.0663126 0)
(10.2029 -0.0490546 0)
(10.2051 -0.0354544 0)
(10.2099 -0.0287379 0)
(10.2133 -0.0284662 0)
(10.2125 -0.0321881 0)
(10.2106 -0.0362175 0)
(9.99376 -0.0649193 0)
(9.87505 -0.0537108 0)
(9.76345 -0.0600057 0)
(9.58588 -0.0380799 0)
(9.43289 -0.0213847 0)
(9.30336 -0.0263354 0)
(9.1581 -0.036906 0)
(8.99541 -0.0379718 0)
(8.83243 -0.0326068 0)
(8.67782 -0.0307263 0)
(8.53311 -0.0340374 0)
(8.40359 -0.0376191 0)
(8.29567 -0.0371432 0)
(8.21219 -0.032751 0)
(8.14642 -0.0279818 0)
(8.09056 -0.025867 0)
(8.03358 -0.0275793 0)
(7.97288 -0.0316074 0)
(-0.15816 0.558396 3.71729e-20)
(-0.494756 0.180618 -3.68884e-20)
(-0.314463 -0.340986 0)
(0.122136 -0.582065 0)
(0.765535 -0.726076 0)
(1.423 -0.762288 3.56608e-20)
(2.07075 -0.723137 0)
(2.67991 -0.638182 0)
(3.21315 -0.517386 0)
(3.64815 -0.399277 0)
(3.99114 -0.313752 -3.32708e-20)
(4.24587 -0.187016 0)
(4.38553 -0.03456 0)
(4.4337 0.0357091 0)
(4.389 0.165561 0)
(4.2029 0.339845 -3.16161e-20)
(3.93113 0.349294 0)
(3.58789 0.497638 0)
(3.06636 0.771394 0)
(2.46067 0.595473 0)
(1.97268 0.165239 0)
(1.63615 -0.028219 0)
(1.42197 -0.052056 0)
(1.33449 -0.126514 -3.00407e-20)
(1.38436 -0.23959 2.98165e-20)
(1.54667 -0.195714 -2.95998e-20)
(1.69427 0.00768356 -2.9386e-20)
(1.69202 0.0707467 0)
(1.56577 0.00609612 0)
(1.37498 0.0598016 2.87281e-20)
(1.19047 0.098024 2.84886e-20)
(1.05161 -0.0414709 0)
(0.886919 -0.0545032 0)
(0.576305 0.213271 2.76771e-20)
(0.173681 0.353237 0)
(-0.193046 0.320804 0)
(-0.531234 0.245471 -2.66534e-20)
(-0.832675 0.19476 0)
(-1.13665 0.214187 -2.58245e-20)
(-1.47106 0.245444 -5.08033e-20)
(-1.83244 0.268932 0)
(-2.22765 0.29983 0)
(-2.66357 0.337452 0)
(-3.14518 0.381281 0)
(-3.67558 0.431939 0)
(-4.25439 0.486496 -4.58819e-20)
(-4.87567 0.537 -4.51033e-20)
(-5.52382 0.566677 -4.43353e-20)
(-6.16944 0.551146 0)
(-6.76994 0.471139 4.28483e-20)
(-7.27934 0.331152 0)
(-7.66539 0.165042 -4.15342e-20)
(-7.92305 0.0174787 -4.09951e-20)
(-8.07265 -0.0822497 0)
(-8.13977 -0.130969 0)
(-8.13791 -0.148502 0)
(-8.07957 -0.164573 -3.97497e-20)
(-7.96727 -0.191454 0)
(-7.79521 -0.218594 0)
(-7.57335 -0.241855 0)
(-7.30624 -0.264346 0)
(-6.99679 -0.284166 0)
(-6.64862 -0.300162 0)
(-6.2638 -0.313919 0)
(-5.84185 -0.327834 0)
(-5.37875 -0.344547 4.04245e-20)
(-4.86579 -0.367141 0)
(-4.28968 -0.398885 0)
(-3.63319 -0.442453 -4.07814e-20)
(-2.87627 -0.499014 -4.08104e-20)
(-1.99942 -0.56654 0)
(-0.991879 -0.636233 4.05124e-20)
(0.155865 -0.686817 -4.00072e-20)
(1.38337 -0.70073 0)
(2.58565 -0.634425 3.79588e-20)
(3.61655 -0.454554 0)
(4.2613 -0.217964 0)
(4.48318 0.0729817 -3.51744e-20)
(4.17039 0.363806 0)
(3.34677 0.607475 3.53053e-20)
(2.13748 0.780957 0)
(0.695308 0.648254 -3.58152e-20)
(-0.25231 0.206845 -3.56795e-20)
(-0.64691 -0.369723 -3.53947e-20)
(0.0880304 -0.795219 -7.02256e-20)
(0.301582 -1.27586 6.92188e-20)
(-0.107468 -0.68636 0)
(-2.17073 1.64464 0)
(-5.43241 1.46202 0)
(-7.19016 1.10552 6.29583e-20)
(-8.98979 0.902445 5.96003e-20)
(-10.1925 0.651935 -5.62991e-20)
(-11.2093 0.498735 0)
(-11.9168 0.341923 5.08797e-20)
(-12.4281 0.232438 4.89259e-20)
(-12.7363 0.127329 4.7507e-20)
(-12.8743 0.0480318 0)
(-12.861 -0.0229064 0)
(-12.7257 -0.0773928 0)
(-12.4867 -0.125146 4.6568e-20)
(-12.1537 -0.162573 0)
(-11.7466 -0.193957 0)
(-11.2738 -0.217862 -4.90794e-20)
(-10.7518 -0.236326 0)
(-10.1885 -0.249219 0)
(-9.59676 -0.257653 -5.22673e-20)
(-8.9836 -0.261868 0)
(-8.35939 -0.262489 0)
(-7.73041 -0.260055 5.47987e-20)
(-7.10454 -0.254944 5.53714e-20)
(-6.48678 -0.247781 0)
(-5.8824 -0.23893 -5.60658e-20)
(-5.29456 -0.229038 0)
(-4.72616 -0.218383 5.61972e-20)
(-4.17863 -0.207319 0)
(-3.65267 -0.196269 5.58615e-20)
(-3.14837 -0.185528 5.55548e-20)
(-2.66582 -0.175042 0)
(-2.20408 -0.165061 0)
(-1.76186 -0.155691 0)
(-1.33869 -0.146702 0)
(-0.932778 -0.138467 0)
(-0.540136 -0.13278 0)
(-0.156605 -0.129813 0)
(0.227287 -0.128971 5.1341e-20)
(0.616145 -0.129555 -5.07083e-20)
(1.01107 -0.129195 0)
(1.40801 -0.126052 0)
(1.79669 -0.119599 0)
(2.16607 -0.111131 0)
(2.50916 -0.103078 -9.50552e-20)
(2.826 -0.097664 0)
(3.12402 -0.0958672 9.23351e-20)
(3.41549 -0.0978065 -9.09405e-20)
(3.71359 -0.103195 0)
(4.03024 -0.111397 0)
(4.37549 -0.121526 0)
(4.75699 -0.132495 8.50949e-20)
(5.1791 -0.143019 8.35284e-20)
(5.64152 -0.151381 0)
(6.13766 -0.1561 8.01728e-20)
(6.65562 -0.15623 7.83547e-20)
(7.17917 -0.150145 -7.64365e-20)
(7.68801 -0.138478 0)
(8.16421 -0.123045 0)
(8.59136 -0.0999175 -7.02607e-20)
(8.94922 -0.0770982 0)
(9.24007 -0.0594641 0)
(9.45485 -0.0220923 0)
(9.55612 0.00165263 0)
(9.60593 0.0124108 6.10126e-20)
(9.55096 0.0801291 5.97181e-20)
(9.30459 0.0956898 0)
(9.07569 0.140644 5.78563e-20)
(8.52111 0.271489 0)
(7.75427 0.26753 0)
(6.98773 0.620997 5.69977e-20)
(4.64697 0.978411 0)
(1.81744 0.401491 5.4077e-20)
(0.226398 -0.173315 0)
(-0.536761 -0.172041 0)
(-0.769837 -0.0697018 4.80115e-20)
(-0.707486 -0.0405071 0)
(-0.443829 -0.0704862 4.76733e-20)
(-0.0785349 -0.0689673 0)
(0.233967 -0.0100528 0)
(0.352815 0.0473903 0)
(0.281679 0.0523535 -4.69026e-20)
(0.154444 0.0165316 0)
(0.0861356 -0.0104532 4.53407e-20)
(0.0818617 -0.0202105 0)
(0.0824611 -0.0127326 0)
(0.0188649 0.00294557 0)
(-0.0947047 0.0155672 0)
(-0.201308 0.0182224 0)
(-0.229161 0.0152063 0)
(-0.16185 0.015955 0)
(-0.0660983 0.0052163 -7.76132e-20)
(0.169247 0.0496625 0)
(0.00832992 -0.0395743 0)
(-0.0581194 0.67828 -1.11355e-19)
(0.129665 0.193541 1.10552e-19)
(0.772966 -0.967552 0)
(1.42356 -1.71913 -7.20661e-20)
(2.04666 -2.04843 0)
(2.60847 -2.09382 -3.54673e-20)
(3.10656 -1.96302 6.93926e-20)
(3.53678 -1.7379 6.84574e-20)
(3.89441 -1.46698 0)
(4.19218 -1.17506 6.66391e-20)
(4.4183 -0.885797 3.3209e-20)
(4.56854 -0.593846 0)
(4.67334 -0.302465 0)
(4.71696 -0.0342953 0)
(4.70162 0.232721 0)
(4.64575 0.506661 3.15615e-20)
(4.52881 0.750255 0)
(4.32902 0.971815 -6.18849e-20)
(4.097 1.17735 0)
(3.86995 1.33969 0)
(3.54329 1.3425 6.08905e-20)
(3.06222 1.04509 0)
(2.60672 0.602173 -6.0293e-20)
(2.34782 0.197932 2.99508e-20)
(2.23883 -0.154746 -2.97504e-20)
(2.14838 -0.371564 2.95487e-20)
(2.05904 -0.251768 2.9351e-20)
(1.9301 0.160242 0)
(1.67351 0.525753 0)
(1.34015 0.583349 -2.87273e-20)
(0.995416 0.456278 2.85639e-20)
(0.49514 0.602537 0)
(-0.0798118 0.896379 0)
(-0.517854 0.958059 -2.76873e-20)
(-0.854505 0.869799 0)
(-1.16641 0.800345 0)
(-1.52007 0.770324 2.6571e-20)
(-1.9095 0.7757 0)
(-2.3183 0.806791 -2.56142e-20)
(-2.74497 0.853495 5.0612e-20)
(-3.19997 0.91683 0)
(-3.68441 0.991988 0)
(-4.19539 1.07502 9.55852e-20)
(-4.72571 1.15986 9.38717e-20)
(-5.26172 1.23682 9.22028e-20)
(-5.78442 1.29424 -4.49045e-20)
(-6.27123 1.31756 4.49198e-20)
(-6.70146 1.29214 1.31694e-19)
(-7.0636 1.20872 -8.60758e-20)
(-7.36002 1.07001 -4.27592e-20)
(-7.60483 0.893929 0)
(-7.81495 0.706737 4.14995e-20)
(-7.99834 0.528715 -4.03267e-20)
(-8.14687 0.366929 0)
(-8.24352 0.220277 0)
(-8.27554 0.0830484 0)
(-8.23214 -0.0502415 3.9734e-20)
(-8.11736 -0.17612 0)
(-7.94808 -0.29053 -7.87971e-20)
(-7.72293 -0.391507 0)
(-7.4498 -0.481597 -7.90255e-20)
(-7.13408 -0.563069 0)
(-6.77823 -0.638362 7.95257e-20)
(-6.38386 -0.711701 0)
(-5.95052 -0.788246 -8.01221e-20)
(-5.47543 -0.874116 4.00251e-20)
(-4.95148 -0.97654 0)
(-4.36675 -1.10377 8.08496e-20)
(-3.70444 -1.26401 4.07254e-20)
(-2.94315 -1.46237 4.07468e-20)
(-2.0589 -1.69516 0)
(-1.03397 -1.93922 3.96409e-20)
(0.14177 -2.13831 3.99168e-20)
(1.41482 -2.19687 0)
(2.64261 -1.99551 -3.788e-20)
(3.64029 -1.44169 7.16417e-20)
(4.26835 -0.677569 0)
(4.43308 0.167873 3.51691e-20)
(4.21499 0.947137 0)
(3.56419 1.53232 -1.04584e-19)
(2.72249 1.89664 0)
(1.61499 1.80515 1.06771e-19)
(0.780496 1.18469 3.56164e-20)
(0.219557 0.121628 -3.57137e-20)
(-0.0920819 -0.341787 -7.0333e-20)
(-2.69583 1.65146 6.8692e-20)
(-5.35605 3.24078 0)
(-6.87832 3.55255 0)
(-8.62174 3.01464 0)
(-9.42541 2.45104 -1.83536e-19)
(-10.4491 1.95034 -5.93611e-20)
(-11.0055 1.48744 5.6151e-20)
(-11.6032 1.12594 0)
(-11.9506 0.795919 4.87626e-20)
(-12.2512 0.523941 -4.89181e-20)
(-12.3859 0.275057 -4.75216e-20)
(-12.4404 0.0637945 0)
(-12.3712 -0.123627 0)
(-12.2045 -0.282474 0)
(-11.9317 -0.419048 -4.65865e-20)
(-11.5798 -0.531163 0)
(-11.1518 -0.622754 9.55944e-20)
(-10.6673 -0.694312 1.46767e-19)
(-10.1329 -0.748768 -9.9892e-20)
(-9.56266 -0.787563 0)
(-8.96391 -0.812699 -5.19861e-20)
(-8.34703 -0.825554 0)
(-7.71934 -0.827556 -1.07972e-19)
(-7.08881 -0.820182 5.46383e-20)
(-6.46191 -0.804896 5.5234e-20)
(-5.84433 -0.783249 0)
(-5.24094 -0.756713 1.68097e-19)
(-4.65492 -0.727089 -1.12294e-19)
(-4.08907 -0.695598 -5.62055e-20)
(-3.545 -0.663167 0)
(-3.02332 -0.631087 -5.58725e-20)
(-2.52361 -0.600233 -1.66589e-19)
(-2.04654 -0.570233 0)
(-1.5909 -0.541694 -1.09382e-19)
(-1.15513 -0.515 -1.084e-19)
(-0.7397 -0.489938 -1.07335e-19)
(-0.34246 -0.466351 0)
(0.0404139 -0.450503 0)
(0.415655 -0.441255 0)
(0.793965 -0.440032 5.11577e-20)
(1.18347 -0.444508 5.06526e-20)
(1.58891 -0.446579 0)
(2.00697 -0.439118 9.87012e-20)
(2.42581 -0.418967 9.74575e-20)
(2.83 -0.388858 0)
(3.20708 -0.356099 9.49472e-20)
(3.55242 -0.32882 1.87104e-19)
(3.87044 -0.312503 -9.22316e-20)
(4.17228 -0.309316 -9.07666e-20)
(4.47203 -0.319023 0)
(4.7837 -0.34 0)
(5.11969 -0.369879 0)
(5.49002 -0.405507 -8.49958e-20)
(5.90121 -0.442601 8.33211e-20)
(6.35446 -0.475796 1.63463e-19)
(6.84547 -0.499524 -8.0075e-20)
(7.36341 -0.509178 7.81009e-20)
(7.8917 -0.501782 7.63434e-20)
(8.4142 -0.476186 0)
(8.91068 -0.434279 0)
(9.36205 -0.379309 -6.99852e-20)
(9.76598 -0.313558 0)
(10.0934 -0.242982 0)
(10.3407 -0.164645 1.28202e-19)
(10.5309 -0.0831914 0)
(10.6029 -0.015237 6.0654e-20)
(10.6272 0.0823047 -5.9652e-20)
(10.5886 0.187568 0)
(10.4324 0.277187 5.72278e-20)
(10.2396 0.459285 0)
(9.84349 0.638215 0)
(9.50044 0.970794 -5.67956e-20)
(8.80329 1.59236 1.10417e-19)
(7.64647 1.87968 -5.37156e-20)
(6.07656 1.44185 0)
(4.0859 0.698013 0)
(2.56697 0.15025 4.77887e-20)
(1.85166 -0.155242 0)
(1.65748 -0.29852 4.76265e-20)
(1.69068 -0.304651 0)
(1.81052 -0.218239 0)
(1.94631 -0.0747748 0)
(2.00143 0.0500027 4.68336e-20)
(1.93932 0.0819321 0)
(1.83067 0.0453139 -4.52735e-20)
(1.72401 0.0172967 0)
(1.60687 0.0386775 0)
(1.43853 0.0795483 8.51599e-20)
(1.21533 0.0888493 -8.30522e-20)
(1.03934 0.0524209 0)
(0.991645 -0.0282322 0)
(1.12808 -0.089294 0)
(1.37735 -0.150246 2.32504e-19)
(1.75986 -0.0944079 0)
(2.01593 -0.111797 -1.51274e-19)
(0.0128589 0.528967 -1.92675e-23)
(0.837886 -1.43612 -1.46789e-19)
(1.62837 -2.73716 0)
(2.21419 -3.24165 1.4308e-19)
(2.61839 -3.2604 0)
(2.91566 -3.02646 0)
(3.1477 -2.67214 -7.52767e-22)
(3.3358 -2.26826 -6.84449e-20)
(3.48954 -1.8584 -6.68594e-20)
(3.61898 -1.46022 -6.67139e-20)
(3.7269 -1.0784 0)
(3.80488 -0.708984 0)
(3.86168 -0.343695 6.39896e-20)
(3.88183 -0.0145551 1.26858e-19)
(3.86211 0.319159 -1.25715e-19)
(3.83523 0.665428 0)
(3.77485 0.945228 -1.23845e-19)
(3.65669 1.23565 6.19437e-20)
(3.54918 1.55677 0)
(3.4815 1.70909 -1.21871e-19)
(3.33723 1.69029 -6.0857e-20)
(3.03928 1.62516 1.2089e-19)
(2.73174 1.28518 6.02264e-20)
(2.53142 0.610046 0)
(2.3558 0.121492 -1.18998e-19)
(2.07222 0.124921 -1.18205e-19)
(1.69701 0.42565 0)
(1.31449 0.781939 -1.16614e-19)
(0.932498 1.02724 0)
(0.484274 1.2031 -1.15107e-19)
(-0.0936375 1.45018 -5.71205e-20)
(-0.662792 1.62563 0)
(-1.09041 1.58288 0)
(-1.46809 1.46733 0)
(-1.88484 1.42671 0)
(-2.34421 1.43308 0)
(-2.83899 1.45251 0)
(-3.35241 1.49361 -1.03585e-19)
(-3.88058 1.55676 1.52801e-19)
(-4.4198 1.63903 0)
(-4.96526 1.73332 0)
(-5.51064 1.82964 0)
(-6.04691 1.91677 -9.94493e-22)
(-6.563 1.98083 -9.33865e-20)
(-7.04725 2.00777 -1.82292e-19)
(-7.48794 1.98486 1.79046e-19)
(-7.87602 1.90305 8.73066e-20)
(-8.20698 1.75968 -8.71692e-20)
(-8.48195 1.5607 1.34672e-21)
(-8.70581 1.3214 -8.31259e-20)
(-8.88189 1.06305 0)
(-9.00671 0.804467 -8.09128e-20)
(-9.06967 0.553999 1.07966e-21)
(-9.06048 0.309883 0)
(-8.98058 0.0694011 0)
(-8.84039 -0.161427 7.83976e-20)
(-8.64676 -0.374681 0)
(-8.40406 -0.56569 0)
(-8.11902 -0.736011 -7.74176e-20)
(-7.79563 -0.886988 -1.56394e-19)
(-7.43844 -1.01905 7.89732e-20)
(-7.05143 -1.13693 0)
(-6.63726 -1.24594 -7.94834e-20)
(-6.19756 -1.35252 0)
(-5.73201 -1.46456 -7.90148e-20)
(-5.23768 -1.59134 -8.03641e-20)
(-4.70886 -1.74396 1.6003e-19)
(-4.13605 -1.93617 7.94877e-20)
(-3.50388 -2.1841 0)
(-2.78874 -2.50272 -1.59977e-19)
(-1.95975 -2.89611 0)
(-0.98656 -3.33536 -2.37374e-19)
(0.149842 -3.71663 -1.54348e-19)
(1.36462 -3.82673 -1.49382e-19)
(2.48119 -3.42679 1.43311e-19)
(3.31591 -2.42345 -2.09448e-19)
(3.76553 -1.10335 0)
(3.82321 0.276992 0)
(3.50451 1.46912 1.33453e-19)
(2.77366 2.28993 2.05168e-19)
(1.96787 2.81382 0)
(1.0479 2.75143 -7.10466e-20)
(0.117139 1.90488 0)
(-0.697535 0.779248 2.12542e-19)
(-2.89663 2.32143 7.02531e-22)
(-5.53473 4.14847 -1.44787e-21)
(-7.20418 4.79594 -1.30544e-19)
(-7.94058 4.54623 0)
(-8.68401 3.87153 1.21433e-19)
(-9.10828 3.18032 4.51562e-21)
(-9.76039 2.55876 0)
(-10.204 2.00101 0)
(-10.722 1.5341 0)
(-11.0567 1.10077 -9.96856e-20)
(-11.3448 0.721075 0)
(-11.4699 0.365997 0)
(-11.502 0.0504309 0)
(-11.4037 -0.240209 0)
(-11.2131 -0.492966 0)
(-10.9217 -0.711941 -9.12102e-20)
(-10.5557 -0.893139 0)
(-10.1204 -1.04081 -9.56687e-20)
(-9.63285 -1.15611 -9.77478e-20)
(-9.10128 -1.2437 9.99559e-20)
(-8.53692 -1.30602 0)
(-7.94816 -1.34637 1.04313e-19)
(-7.34315 -1.36662 0)
(-6.73009 -1.36911 1.08022e-19)
(-6.11565 -1.35579 -1.09489e-19)
(-5.50652 -1.32924 -3.31501e-19)
(-4.90771 -1.29181 0)
(-4.32406 -1.24593 -3.35811e-19)
(-3.75832 -1.19451 -1.11944e-19)
(-3.21233 -1.13995 0)
(-2.68814 -1.08368 -2.23837e-19)
(-2.18633 -1.02788 -2.22965e-19)
(-1.7058 -0.974385 3.32812e-19)
(-1.24862 -0.92286 0)
(-0.813897 -0.874461 1.09428e-19)
(-0.402466 -0.828835 1.08445e-19)
(-0.0158626 -0.786337 3.21718e-19)
(0.343667 -0.74988 0)
(0.677417 -0.722676 0)
(0.996978 -0.710805 0)
(1.31335 -0.716636 1.01935e-19)
(1.6417 -0.733896 0)
(1.9938 -0.748871 0)
(2.37219 -0.74728 -9.86113e-20)
(2.76879 -0.721363 -9.73719e-20)
(3.16841 -0.673717 0)
(3.55479 -0.615816 0)
(3.91652 -0.56235 -1.86954e-19)
(4.25101 -0.525314 0)
(4.56472 -0.510837 1.81464e-19)
(4.87002 -0.519669 1.78535e-19)
(5.18137 -0.54946 0)
(5.51276 -0.596298 0)
(5.87584 -0.654805 -1.69627e-19)
(6.27793 -0.717426 -1.5899e-22)
(6.72054 -0.77463 -1.90984e-22)
(7.19832 -0.816611 0)
(7.69998 -0.83512 -3.12188e-19)
(8.21022 -0.825655 0)
(8.71201 -0.787187 0)
(9.19066 -0.721261 0)
(9.62914 -0.634889 1.40071e-19)
(10.0164 -0.530483 0)
(10.3487 -0.41311 -2.631e-19)
(10.6034 -0.29228 -1.28143e-19)
(10.7926 -0.158613 0)
(10.905 -0.0371882 -1.21573e-19)
(10.9134 0.0888413 0)
(10.8886 0.240309 0)
(10.7729 0.3734 -3.43382e-19)
(10.5764 0.594392 2.25616e-19)
(10.3433 0.833967 0)
(10.0585 1.15341 2.20435e-19)
(9.8626 1.7609 -1.10254e-19)
(9.75705 2.18344 0)
(9.30935 2.07961 0)
(8.24374 1.64753 0)
(6.927 1.05676 -2.86159e-19)
(5.75549 0.451161 0)
(4.79108 0.0308553 -9.49668e-20)
(4.04283 -0.146483 0)
(3.52109 -0.161666 0)
(3.21482 -0.0729705 0)
(3.09556 0.0508619 0)
(3.03881 0.127452 0)
(2.9167 0.111404 0)
(2.67335 0.0809422 -1.77912e-19)
(2.32597 0.119841 0)
(1.92121 0.193813 -8.51027e-20)
(1.51934 0.211794 2.48841e-19)
(1.24045 0.131009 0)
(1.15925 -0.0268802 0)
(1.30163 -0.175902 -1.56546e-19)
(1.58705 -0.288614 -1.54917e-19)
(1.9803 -0.277212 1.53187e-19)
(2.33912 -0.284812 1.51205e-19)
(0.403005 -1.07109 2.21954e-19)
(1.17231 -3.40734 2.18751e-19)
(1.68122 -4.00248 1.43479e-19)
(1.93124 -3.86423 7.02616e-20)
(2.06567 -3.53087 0)
(2.17353 -3.13898 -1.38036e-19)
(2.2664 -2.72306 6.7626e-20)
(2.34505 -2.30903 0)
(2.41426 -1.90437 6.70528e-20)
(2.47601 -1.50651 0)
(2.52642 -1.10903 -1.30342e-19)
(2.55854 -0.73147 0)
(2.58123 -0.361079 -6.42159e-20)
(2.60155 0.0133268 -1.27314e-19)
(2.60771 0.364521 1.26159e-19)
(2.60468 0.748634 0)
(2.6141 1.12396 1.24254e-19)
(2.60198 1.37087 0)
(2.54959 1.53449 0)
(2.45259 1.77425 1.22227e-19)
(2.30554 2.06309 0)
(2.20769 2.03127 -3.38949e-22)
(2.22773 1.49466 0)
(2.19086 0.869183 0)
(1.93351 0.61923 2.69792e-22)
(1.50191 0.780016 1.18283e-19)
(1.0057 1.14045 1.17281e-19)
(0.476581 1.53751 1.1673e-19)
(-0.078137 1.91317 0)
(-0.664434 2.22892 2.29528e-19)
(-1.22422 2.38329 0)
(-1.70122 2.34257 1.12276e-19)
(-2.18396 2.26404 0)
(-2.75182 2.26754 0)
(-3.35906 2.3041 -1.07788e-19)
(-3.9772 2.33278 0)
(-4.59644 2.36558 1.04139e-19)
(-5.20485 2.40852 8.26664e-22)
(-5.79616 2.46176 -2.01303e-19)
(-6.36084 2.52196 1.96312e-19)
(-6.89113 2.58124 0)
(-7.38015 2.62981 0)
(-7.82095 2.65584 9.08089e-20)
(-8.20772 2.64694 0)
(-8.5361 2.59228 9.01797e-20)
(-8.80369 2.48423 -8.85712e-20)
(-9.01065 2.31988 -8.70439e-20)
(-9.15977 2.10142 0)
(-9.25567 1.83546 8.42525e-20)
(-9.30266 1.53211 8.30036e-20)
(-9.30357 1.20383 -1.60402e-19)
(-9.26087 0.864093 8.0869e-20)
(-9.17768 0.525748 8.00184e-20)
(-9.05537 0.199179 0)
(-8.89029 -0.109929 0)
(-8.68371 -0.398522 -7.8389e-20)
(-8.44002 -0.663124 0)
(-8.16245 -0.903345 0)
(-7.85192 -1.11749 1.56127e-19)
(-7.51135 -1.30613 1.56371e-19)
(-7.14206 -1.47186 0)
(-6.74648 -1.61846 0)
(-6.32754 -1.75174 0)
(-5.88807 -1.87947 0)
(-5.4302 -2.01151 1.59043e-19)
(-4.95468 -2.16022 -1.58127e-19)
(-4.46011 -2.3413 -1.59945e-19)
(-3.94182 -2.57511 -3.18777e-19)
(-3.38916 -2.8879 0)
(-2.782 -3.31006 1.90789e-21)
(-2.08862 -3.86136 0)
(-1.27229 -4.50415 1.57102e-19)
(-0.329441 -5.05343 3.24843e-21)
(0.629746 -5.1709 1.49299e-19)
(1.46455 -4.4807 -1.4336e-19)
(2.01857 -3.03054 4.97508e-21)
(2.27628 -1.27434 0)
(2.26365 0.570388 -1.29034e-19)
(2.00532 2.10299 -1.33696e-19)
(1.3589 3.1 -2.69325e-19)
(0.622311 3.68513 0)
(-0.164515 3.63013 1.39075e-19)
(-0.966747 2.84292 0)
(-2.42175 2.94323 -2.79755e-19)
(-4.79186 4.70393 1.38066e-19)
(-6.52453 5.75139 -1.34398e-19)
(-7.21571 5.58395 1.30317e-19)
(-7.59311 5.05498 2.44289e-19)
(-8.06106 4.36153 -1.21443e-19)
(-8.45842 3.69692 1.16348e-19)
(-8.98654 3.06635 0)
(-9.40064 2.4695 -2.04882e-19)
(-9.8322 1.91856 0)
(-10.1227 1.38818 -1.8858e-19)
(-10.3499 0.896576 1.82711e-19)
(-10.4353 0.429194 1.78681e-19)
(-10.4294 0.00139449 -1.76518e-19)
(-10.3042 -0.391381 -1.75961e-19)
(-10.084 -0.734499 0)
(-9.77186 -1.03037 -8.82458e-20)
(-9.38778 -1.27457 0)
(-8.94156 -1.47183 0)
(-8.44791 -1.62523 -1.92222e-19)
(-7.9168 -1.74076 0)
(-7.35731 -1.82265 0)