/*--------------------------------*- C++ -*----------------------------------*\
  =========                 |
  \\      /  F ield         | OpenFOAM: The Open Source CFD Toolbox
   \\    /   O peration     | Website:  https://openfoam.org
    \\  /    A nd           | Version:  9
     \\/     M anipulation  |
\*---------------------------------------------------------------------------*/
FoamFile
{
    format      ascii;
    class       volVectorField;
    location    "0.11";
    object      U;
}
// * * * * * * * * * * * * * * * * * * * * * * * * * * * * * * * * * * * * * //

dimensions      [0 1 -1 0 0 0 0];

internalField   nonuniform List<vector> 
12225
(
(9.86107 -0.874316 0)
(9.67245 -0.700186 0)
(9.45888 -0.387581 0)
(9.2245 -0.188462 0)
(9.00321 -0.0843742 0)
(8.80999 -0.0328507 0)
(8.64454 -0.00751774 0)
(8.50334 0.00506741 0)
(8.3829 0.0113913 0)
(8.27972 0.0145433 0)
(8.19036 0.0160603 0)
(8.11195 0.016761 0)
(8.04202 0.0170939 0)
(7.97873 0.017367 0)
(7.9189 0.0177778 0)
(7.86357 0.0192267 0)
(7.7899 0.0223622 0)
(7.76318 0.0341312 0)
(10.0547 0.263072 0)
(10.1201 0.36075 0)
(10.118 0.273837 0)
(10.0825 0.187114 0)
(10.0404 0.131197 0)
(9.99373 0.0969726 0)
(9.93984 0.0756171 0)
(9.87999 0.0618273 0)
(9.81728 0.0524438 0)
(9.75418 0.0456561 0)
(9.69212 0.0405246 0)
(9.63191 0.036595 0)
(9.5739 0.0336212 0)
(9.51849 0.0316118 0)
(9.46477 0.0304231 0)
(9.41552 0.0320467 0)
(9.36273 0.0338082 0)
(9.33903 0.0572137 0)
(9.99919 0.0460911 0)
(10.0244 0.0342236 0)
(10.0538 0.0149743 0)
(10.0707 0.0218491 0)
(10.0777 0.036725 0)
(10.0781 0.0460775 0)
(10.0719 0.0500378 0)
(10.0599 0.0512537 0)
(10.0434 0.0511922 0)
(10.0238 0.0505177 0)
(10.0021 0.0496059 0)
(9.9788 0.0487112 0)
(9.95432 0.0479952 0)
(9.92912 0.0477251 0)
(9.90308 0.0479966 0)
(9.87734 0.0503488 0)
(9.85091 0.0538819 0)
(9.83091 0.067422 0)
(9.99679 0.00643343 0)
(10.0085 0.025036 0)
(10.0342 0.0389689 0)
(10.0527 0.0503485 0)
(10.0643 0.0571726 0)
(10.0729 0.059251 0)
(10.0787 0.0589662 0)
(10.0812 0.0580799 0)
(10.081 0.0571163 0)
(10.0788 0.0561547 0)
(10.0749 0.0552536 0)
(10.0695 0.0545098 0)
(10.063 0.0540281 0)
(10.0554 0.054036 0)
(10.047 0.0547007 0)
(10.0383 0.0570444 0)
(10.0299 0.0607232 0)
(10.0245 0.0687256 0)
(9.99922 0.00674488 0)
(10.0081 0.0335975 0)
(10.0271 0.0460847 0)
(10.0417 0.050906 0)
(10.0523 0.0539978 0)
(10.062 0.0556139 0)
(10.0705 0.0559939 0)
(10.077 0.0558513 0)
(10.0817 0.0555352 0)
(10.085 0.0551414 0)
(10.0872 0.0547507 0)
(10.0883 0.0544787 0)
(10.0886 0.0544505 0)
(10.0881 0.0548711 0)
(10.0871 0.0559254 0)
(10.086 0.0581958 0)
(10.0856 0.0614979 0)
(10.0874 0.0664585 0)
(10.0002 0.00908372 0)
(10.0078 0.0321547 0)
(10.0225 0.0419629 0)
(10.0349 0.0457409 0)
(10.0447 0.0492287 0)
(10.054 0.0517983 0)
(10.0627 0.0529775 0)
(10.0701 0.0533792 0)
(10.0761 0.0534822 0)
(10.0812 0.0534554 0)
(10.0855 0.0533975 0)
(10.089 0.0534271 0)
(10.0919 0.0536704 0)
(10.0943 0.0542961 0)
(10.0963 0.055456 0)
(10.0986 0.0574434 0)
(10.1015 0.0600943 0)
(10.106 0.0632685 0)
(10.0003 0.00881247 0)
(10.0068 0.0275545 0)
(10.0189 0.0371452 0)
(10.0302 0.0418318 0)
(10.0394 0.0457856 0)
(10.048 0.0486495 0)
(10.0563 0.0501069 0)
(10.0637 0.0507584 0)
(10.07 0.0510934 0)
(10.0757 0.0512893 0)
(10.0807 0.0514397 0)
(10.0852 0.0516547 0)
(10.0891 0.0520494 0)
(10.0928 0.0527535 0)
(10.0963 0.0538696 0)
(10.1 0.055516 0)
(10.1044 0.0575181 0)
(10.1099 0.0595263 0)
(10.0004 0.00785183 0)
(10.0057 0.0237384 0)
(10.016 0.033443 0)
(10.0263 0.0386946 0)
(10.035 0.0426281 0)
(10.0431 0.0454669 0)
(10.0509 0.0470751 0)
(10.0581 0.047921 0)
(10.0644 0.0484332 0)
(10.0702 0.0487901 0)
(10.0755 0.0490858 0)
(10.0803 0.0494209 0)
(10.0848 0.0498951 0)
(10.0891 0.0506016 0)
(10.0933 0.0515973 0)
(10.0977 0.0528997 0)
(10.1027 0.0543301 0)
(10.1084 0.0555402 0)
(10.0004 0.00696826 0)
(10.0049 0.0207586 0)
(10.0136 0.030121 0)
(10.0229 0.0355254 0)
(10.0311 0.0393538 0)
(10.0387 0.0421653 0)
(10.0461 0.0439163 0)
(10.053 0.0449353 0)
(10.0593 0.0455904 0)
(10.065 0.0460679 0)
(10.0704 0.0464655 0)
(10.0754 0.0468735 0)
(10.0801 0.0473745 0)
(10.0847 0.0480315 0)
(10.0893 0.0488661 0)
(10.0941 0.0498443 0)
(10.0992 0.0508005 0)
(10.1048 0.0514586 0)
(10.0004 0.00618396 0)
(10.0042 0.0181805 0)
(10.0115 0.026896 0)
(10.0199 0.0322802 0)
(10.0276 0.0360382 0)
(10.0348 0.0388249 0)
(10.0418 0.0406757 0)
(10.0485 0.041827 0)
(10.0546 0.0425922 0)
(10.0603 0.0431584 0)
(10.0656 0.0436248 0)
(10.0707 0.0440704 0)
(10.0755 0.0445608 0)
(10.0803 0.0451366 0)
(10.085 0.0457966 0)
(10.0899 0.0464866 0)
(10.095 0.0470665 0)
(10.1004 0.0473419 0)
(10.0003 0.00544963 0)
(10.0036 0.0158653 0)
(10.0098 0.0238222 0)
(10.0172 0.0290683 0)
(10.0244 0.0327402 0)
(10.0312 0.0354661 0)
(10.0379 0.0373569 0)
(10.0443 0.0385958 0)
(10.0502 0.0394409 0)
(10.0558 0.0400691 0)
(10.0611 0.0405772 0)
(10.0662 0.0410335 0)
(10.0711 0.041489 0)
(10.0759 0.0419685 0)
(10.0807 0.0424591 0)
(10.0856 0.0429055 0)
(10.0906 0.0431976 0)
(10.0957 0.0432102 0)
(10.0003 0.00479944 0)
(10.0031 0.0139268 0)
(10.0085 0.0211591 0)
(10.0152 0.0261768 0)
(10.0218 0.029726 0)
(10.0283 0.0323621 0)
(10.0346 0.034244 0)
(10.0408 0.0355248 0)
(10.0466 0.0364155 0)
(10.0521 0.0370769 0)
(10.0573 0.0376009 0)
(10.0624 0.0380472 0)
(10.0673 0.0384558 0)
(10.0721 0.0388425 0)
(10.0769 0.0391911 0)
(10.0817 0.0394535 0)
(10.0865 0.0395468 0)
(10.0914 0.0393963 0)
(10.0003 0.00419514 0)
(10.0027 0.0121661 0)
(10.0074 0.0186555 0)
(10.0134 0.0233539 0)
(10.0196 0.0267374 0)
(10.0257 0.0292593 0)
(10.0317 0.0310975 0)
(10.0376 0.0323871 0)
(10.0433 0.0332991 0)
(10.0487 0.0339741 0)
(10.0538 0.0344974 0)
(10.0588 0.0349211 0)
(10.0637 0.0352774 0)
(10.0685 0.0355764 0)
(10.0732 0.0358029 0)
(10.0779 0.0359192 0)
(10.0826 0.0358651 0)
(10.0872 0.035603 0)
(10.0003 0.00356553 0)
(10.0024 0.0103346 0)
(10.0064 0.0159742 0)
(10.0117 0.0202224 0)
(10.0173 0.0233524 0)
(10.0231 0.0257013 0)
(10.0288 0.0274438 0)
(10.0344 0.0286993 0)
(10.0398 0.0296013 0)
(10.0451 0.0302654 0)
(10.0502 0.030767 0)
(10.0551 0.031151 0)
(10.0599 0.0314428 0)
(10.0646 0.0316495 0)
(10.0692 0.0317601 0)
(10.0738 0.0317488 0)
(10.0783 0.031577 0)
(10.0827 0.0312352 0)
(10.0002 0.00290889 0)
(10.002 0.00843087 0)
(10.0055 0.0131249 0)
(10.0101 0.0167877 0)
(10.0152 0.0195544 0)
(10.0205 0.0216522 0)
(10.0259 0.0232316 0)
(10.0312 0.0243944 0)
(10.0365 0.0252406 0)
(10.0416 0.0258591 0)
(10.0465 0.0263118 0)
(10.0513 0.0266362 0)
(10.056 0.0268525 0)
(10.0606 0.026967 0)
(10.0651 0.0269742 0)
(10.0695 0.0268605 0)
(10.0738 0.0266047 0)
(10.078 0.0262166 0)
(10.0002 0.00222528 0)
(10.0017 0.00645494 0)
(10.0047 0.0101113 0)
(10.0087 0.0130493 0)
(10.0134 0.0153236 0)
(10.0183 0.0170709 0)
(10.0233 0.0184028 0)
(10.0283 0.0193985 0)
(10.0333 0.0201286 0)
(10.0382 0.0206558 0)
(10.043 0.0210264 0)
(10.0477 0.0212694 0)
(10.0523 0.021401 0)
(10.0567 0.0214277 0)
(10.0611 0.0213491 0)
(10.0653 0.021161 0)
(10.0693 0.0208547 0)
(10.0733 0.0204504 0)
(10.0002 0.0015112 0)
(10.0015 0.00438903 0)
(10.0041 0.006909 0)
(10.0077 0.00898069 0)
(10.0118 0.0106202 0)
(10.0164 0.0118983 0)
(10.021 0.0128826 0)
(10.0258 0.0136244 0)
(10.0306 0.0141674 0)
(10.0353 0.0145498 0)
(10.0399 0.0148013 0)
(10.0445 0.0149414 0)
(10.0489 0.0149813 0)
(10.0532 0.0149273 0)
(10.0573 0.0147817 0)
(10.0613 0.0145461 0)
(10.0652 0.0142187 0)
(10.0689 0.013823 0)
(10.0001 0.000748434 0)
(10.0013 0.00217559 0)
(10.0037 0.00343605 0)
(10.0069 0.00449015 0)
(10.0108 0.00534151 0)
(10.015 0.00601566 0)
(10.0195 0.00653814 0)
(10.024 0.00692932 0)
(10.0286 0.00720695 0)
(10.0331 0.00738654 0)
(10.0376 0.00748 0)
(10.042 0.00749529 0)
(10.0462 0.00743738 0)
(10.0503 0.00730946 0)
(10.0543 0.00711382 0)
(10.0582 0.00685322 0)
(10.0618 0.00652816 0)
(10.0654 0.00616076 0)
(10.0001 -0.000110428 0)
(10.0013 -0.000319647 0)
(10.0035 -0.00050035 0)
(10.0067 -0.000638658 0)
(10.0104 -0.000731055 0)
(10.0146 -0.000790743 0)
(10.0189 -0.000836606 0)
(10.0233 -0.000882414 0)
(10.0278 -0.000937017 0)
(10.0322 -0.00100802 0)
(10.0366 -0.00110256 0)
(10.0408 -0.00122643 0)
(10.0449 -0.00138377 0)
(10.0489 -0.00157726 0)
(10.0528 -0.00180838 0)
(10.0565 -0.00207687 0)
(10.06 -0.0023835 0)
(10.0634 -0.00271156 0)
(10.0001 -0.000937601 0)
(10.0014 -0.00272971 0)
(10.0038 -0.0043089 0)
(10.0071 -0.00559209 0)
(10.0111 -0.00657226 0)
(10.0154 -0.00731047 0)
(10.0199 -0.00787349 0)
(10.0244 -0.00830658 0)
(10.0289 -0.00864449 0)
(10.0333 -0.00891958 0)
(10.0377 -0.00915889 0)
(10.0419 -0.00938163 0)
(10.046 -0.0096009 0)
(10.0499 -0.00982603 0)
(10.0537 -0.0100635 0)
(10.0573 -0.0103168 0)
(10.0608 -0.0105893 0)
(10.0641 -0.01087 0)
(10.0002 -0.00165491 0)
(10.0015 -0.00484324 0)
(10.0042 -0.00764892 0)
(10.008 -0.00986779 0)
(10.0123 -0.0115147 0)
(10.0169 -0.0127461 0)
(10.0216 -0.0136796 0)
(10.0263 -0.0143745 0)
(10.031 -0.0148854 0)
(10.0355 -0.0152713 0)
(10.0399 -0.0155799 0)
(10.0442 -0.0158417 0)
(10.0483 -0.0160768 0)
(10.0522 -0.0162997 0)
(10.0559 -0.0165206 0)
(10.0595 -0.0167457 0)
(10.063 -0.0169796 0)
(10.0662 -0.017215 0)
(10.0002 -0.00234026 0)
(10.0017 -0.00694213 0)
(10.0049 -0.0110019 0)
(10.0093 -0.014061 0)
(10.0141 -0.0162128 0)
(10.0191 -0.0177948 0)
(10.0241 -0.0189871 0)
(10.0291 -0.019854 0)
(10.0339 -0.020468 0)
(10.0386 -0.0209117 0)
(10.0431 -0.0212471 0)
(10.0474 -0.0215125 0)
(10.0515 -0.0217346 0)
(10.0554 -0.021933 0)
(10.0592 -0.0221212 0)
(10.0628 -0.0223072 0)
(10.0662 -0.0224966 0)
(10.0694 -0.0226845 0)
(10.0002 -0.00297908 0)
(10.0019 -0.00906073 0)
(10.0056 -0.0143998 0)
(10.0109 -0.0182105 0)
(10.0164 -0.0207953 0)
(10.0218 -0.0226542 0)
(10.0271 -0.0239817 0)
(10.0324 -0.0248837 0)
(10.0375 -0.0254978 0)
(10.0423 -0.025936 0)
(10.0469 -0.0262585 0)
(10.0512 -0.0265006 0)
(10.0554 -0.0266913 0)
(10.0593 -0.0268535 0)
(10.0631 -0.0270026 0)
(10.0667 -0.0271469 0)
(10.0701 -0.0272921 0)
(10.0733 -0.027435 0)
(10.0001 -0.00355812 0)
(10.0019 -0.0115004 0)
(10.0065 -0.0178678 0)
(10.0127 -0.0219678 0)
(10.019 -0.024923 0)
(10.0249 -0.0271945 0)
(10.0306 -0.0287068 0)
(10.0361 -0.0295894 0)
(10.0414 -0.0301194 0)
(10.0463 -0.0304749 0)
(10.051 -0.0307221 0)
(10.0555 -0.0308934 0)
(10.0597 -0.0310185 0)
(10.0636 -0.0311209 0)
(10.0674 -0.0312146 0)
(10.0709 -0.0313068 0)
(10.0743 -0.031401 0)
(10.0774 -0.0314934 0)
(9.99997 -0.00368082 0)
(10.0018 -0.0151523 0)
(10.0076 -0.0226037 0)
(10.0148 -0.0259133 0)
(10.0215 -0.028455 0)
(10.0278 -0.0308949 0)
(10.0342 -0.0326503 0)
(10.0402 -0.0336659 0)
(10.0457 -0.0342431 0)
(10.0509 -0.0345907 0)
(10.0557 -0.0347924 0)
(10.0601 -0.0348971 0)
(10.0643 -0.0349471 0)
(10.0682 -0.0349724 0)
(10.0718 -0.0349894 0)
(10.0752 -0.0350066 0)
(10.0784 -0.0350277 0)
(10.0813 -0.0350504 0)
(9.99898 -0.00130253 0)
(10 -0.0179534 0)
(10.0085 -0.0290339 0)
(10.0174 -0.0326424 0)
(10.0245 -0.0340494 0)
(10.0313 -0.0352582 0)
(10.0384 -0.0361871 0)
(10.0451 -0.036811 0)
(10.051 -0.0372428 0)
(10.0562 -0.0375228 0)
(10.061 -0.0376656 0)
(10.0652 -0.0377075 0)
(10.069 -0.0376898 0)
(10.0723 -0.0376422 0)
(10.0753 -0.0375829 0)
(10.0779 -0.0375234 0)
(10.0803 -0.0374672 0)
(10.0823 -0.0374137 0)
(9.99528 0.00387362 0)
(9.99335 -0.0102981 0)
(10.0071 -0.0270803 0)
(10.0213 -0.0388915 0)
(10.0312 -0.0448165 0)
(10.0393 -0.0464094 0)
(10.0467 -0.045912 0)
(10.0532 -0.0449409 0)
(10.0583 -0.0440513 0)
(10.0624 -0.0432644 0)
(10.0655 -0.0425369 0)
(10.0679 -0.0418661 0)
(10.0695 -0.0412583 0)
(10.0705 -0.0407134 0)
(10.071 -0.040229 0)
(10.0711 -0.0398043 0)
(10.0708 -0.0394297 0)
(10.0702 -0.0390785 0)
(9.99144 -0.0172903 0)
(9.99189 0.000375197 0)
(10.01 0.0176818 0)
(10.0296 0.0116123 0)
(10.0442 -0.00507474 0)
(10.0542 -0.0187817 0)
(10.0601 -0.0271197 0)
(10.0624 -0.0319885 0)
(10.0619 -0.0348615 0)
(10.0593 -0.0364583 0)
(10.0552 -0.0372267 0)
(10.0499 -0.0374917 0)
(10.0436 -0.0374664 0)
(10.0367 -0.0372804 0)
(10.0292 -0.0370174 0)
(10.0213 -0.0367387 0)
(10.0133 -0.0364998 0)
(10.0052 -0.0362695 0)
(10.0235 -0.206005 0)
(10.0684 -0.312332 0)
(10.0789 -0.25558 0)
(10.0704 -0.184159 0)
(10.0606 -0.134878 0)
(10.0499 -0.102698 0)
(10.0343 -0.0811321 0)
(10.0131 -0.0665805 0)
(9.988 -0.0565835 0)
(9.96082 -0.0494227 0)
(9.93266 -0.0440604 0)
(9.90422 -0.0399072 0)
(9.876 -0.0366049 0)
(9.84832 -0.0339207 0)
(9.82142 -0.0317066 0)
(9.79542 -0.0298993 0)
(9.77057 -0.0284683 0)
(9.74688 -0.0277303 0)
(9.94226 0.671596 0)
(9.87997 0.567459 0)
(9.77449 0.338474 0)
(9.63246 0.18333 0)
(9.48777 0.0949179 0)
(9.35671 0.0470972 0)
(9.24121 0.0213153 0)
(9.13978 0.00709699 0)
(9.05091 -0.000959312 0)
(8.97301 -0.00559753 0)
(8.90434 -0.00828383 0)
(8.84335 -0.00984331 0)
(8.78882 -0.0107462 0)
(8.73974 -0.0112614 0)
(8.69529 -0.0115496 0)
(8.65476 -0.0117356 0)
(8.61732 -0.0119131 0)
(8.58256 -0.0124435 0)
(0.00464297 -0.00746415 -3.56257e-20)
(0.017432 -0.0168543 3.4552e-20)
(0.0309984 -0.0191348 0)
(0.0426758 -0.0165107 0)
(0.0503339 -0.0108285 0)
(0.0531553 -0.00362235 -3.11964e-20)
(0.0507367 0.00386263 0)
(0.0435846 0.0106003 0)
(0.0323309 0.0160045 0)
(0.0177312 0.0198749 0)
(0.000563958 0.0223239 2.8594e-20)
(-0.0184638 0.0237126 0)
(-0.03887 0.0244761 0)
(-0.0603985 0.0249743 0)
(-0.0829129 0.0254457 0)
(-0.106377 0.0260128 2.50212e-20)
(-0.130807 0.0267058 0)
(-0.156221 0.0274893 0)
(-0.182619 0.0283088 0)
(-0.210004 0.0292048 0)
(-0.238436 0.0304214 0)
(-0.26799 0.0321504 0)
(-0.298648 0.0338834 0)
(-0.330247 0.034595 2.20284e-20)
(-0.362534 0.0345323 -2.17938e-20)
(-0.395728 0.0365402 2.15699e-20)
(-0.429522 0.04748 2.20423e-20)
(-0.46538 0.0497156 0)
(-0.504062 0.0431194 0)
(-0.541005 0.0463422 -2.37394e-20)
(-0.580429 0.0464868 -2.26744e-20)
(-0.620752 0.0613356 0)
(-0.662043 0.0636598 0)
(-0.705272 0.049561 -2.24886e-20)
(-0.743648 0.0401926 0)
(-0.782108 0.03345 0)
(-0.819422 0.0354782 2.16681e-20)
(-0.858149 0.0356681 0)
(-0.896888 0.0355139 2.11566e-20)
(-0.935581 0.0351606 4.18277e-20)
(-0.974099 0.0347094 0)
(-1.01239 0.0342215 0)
(-1.05045 0.0337318 0)
(-1.08827 0.0332595 0)
(-1.12587 0.032814 0)
(-1.16328 0.032399 3.92456e-20)
(-1.20052 0.0320145 3.88606e-20)
(-1.23761 0.0316585 3.84858e-20)
(-1.27457 0.0313275 0)
(-1.31142 0.0310174 -3.77637e-20)
(-1.34816 0.0307235 0)
(-1.38481 0.0304414 3.7073e-20)
(-1.42137 0.0301667 3.67378e-20)
(-1.45784 0.029895 0)
(-1.49421 0.0296223 0)
(-1.53048 0.029345 0)
(-1.56663 0.0290599 3.54514e-20)
(-1.60264 0.0287639 0)
(-1.6385 0.0284544 0)
(-1.67418 0.0281293 0)
(-1.70966 0.0277865 0)
(-1.74491 0.0274246 0)
(-1.7799 0.0270422 0)
(-1.8146 0.0266382 0)
(-1.84898 0.0262119 0)
(-1.88299 0.0257628 -3.27377e-20)
(-1.91661 0.0252904 0)
(-1.9498 0.0247947 0)
(-1.98252 0.0242758 3.18436e-20)
(-2.01473 0.0237336 3.15427e-20)
(-2.0464 0.0231686 0)
(-2.07748 0.0225812 -3.09337e-20)
(-2.10795 0.0219718 3.06246e-20)
(-2.13775 0.0213411 0)
(-2.16685 0.0206896 -2.99953e-20)
(-2.19521 0.0200181 0)
(-2.22279 0.0193271 0)
(-2.24957 0.0186174 2.9016e-20)
(-2.27548 0.0178897 0)
(-2.30051 0.0171444 -2.83344e-20)
(-2.32462 0.016382 0)
(-2.34776 0.0156028 2.76259e-20)
(-2.3699 0.014807 2.72604e-20)
(-2.391 0.0139943 2.68871e-20)
(-2.41103 0.0131642 5.30106e-20)
(-2.42995 0.0123156 -5.22297e-20)
(-2.44772 0.0114469 0)
(-2.46431 0.0105555 0)
(-2.47966 0.00963813 0)
(-2.49375 0.00869071 -4.8918e-20)
(-2.50651 0.0077089 -4.80401e-20)
(-2.51791 0.00668784 4.71411e-20)
(-2.52786 0.00562236 0)
(-2.53631 0.00451108 -4.52787e-20)
(-2.54317 0.00336462 -4.43153e-20)
(-2.54835 0.00221248 -4.33302e-20)
(-2.55172 0.00109715 0)
(-2.5532 7.79722e-05 0)
(-2.55337 -0.000786586 0)
(-2.55207 -0.00161494 -3.91255e-20)
(-2.54935 -0.00242797 0)
(-2.54519 -0.00323549 0)
(-2.53958 -0.00403947 3.56914e-20)
(-2.53251 -0.00484017 0)
(-2.52396 -0.00563706 0)
(-2.51393 -0.00642931 3.20136e-20)
(-2.50239 -0.00721604 0)
(-2.48935 -0.00799628 0)
(-2.4748 -0.0087691 -2.80914e-20)
(-2.45874 -0.00953356 -2.67302e-20)
(-2.44116 -0.0102887 0)
(-2.42206 -0.0110336 2.39286e-20)
(-2.40145 -0.0117674 0)
(-2.37932 -0.0124892 -2.10239e-20)
(-2.35569 -0.013198 0)
(-2.33057 -0.013893 -1.80199e-20)
(-2.30396 -0.0145734 -1.64821e-20)
(-2.27588 -0.0152383 0)
(-2.24635 -0.015887 0)
(-2.21537 -0.0165186 0)
(-2.18297 -0.0171324 0)
(-2.14918 -0.0177279 0)
(-2.114 -0.0183041 0)
(-2.07748 -0.0188606 0)
(-2.03963 -0.0193966 -3.42396e-21)
(-2.00049 -0.0199116 1.71142e-21)
(-1.96008 -0.0204051 0)
(-1.91845 -0.0208764 0)
(-1.87561 -0.0213252 0)
(-1.83162 -0.0217511 0)
(-1.78651 -0.0221538 -1.40777e-20)
(-1.74031 -0.0225329 0)
(-1.69307 -0.0228883 2.12038e-20)
(-1.64483 -0.0232196 -2.47827e-20)
(-1.59564 -0.0235268 0)
(-1.54553 -0.02381 0)
(-1.49455 -0.0240691 0)
(-1.44276 -0.0243042 3.91353e-20)
(-1.39018 -0.0245156 4.27179e-20)
(-1.33688 -0.0247034 0)
(-1.28289 -0.0248681 4.98554e-20)
(-1.22827 -0.0250102 5.34044e-20)
(-1.17306 -0.0251301 -5.69365e-20)
(-1.1173 -0.0252285 0)
(-1.06105 -0.0253061 0)
(-1.00434 -0.0253637 -6.74025e-20)
(-0.947213 -0.0254023 0)
(-0.889718 -0.0254229 0)
(-0.83189 -0.0254264 0)
(-0.773769 -0.0254141 0)
(-0.715388 -0.0253873 8.4256e-20)
(-0.656782 -0.0253471 8.75173e-20)
(-0.597981 -0.0252948 0)
(-0.539012 -0.0252318 9.39148e-20)
(-0.479902 -0.0251593 0)
(-0.420672 -0.0250784 0)
(-0.361343 -0.0249897 1.03175e-19)
(-0.301936 -0.0248939 0)
(-0.242466 -0.0247893 1.09112e-19)
(-0.182953 -0.0246703 0)
(-0.123408 -0.0245333 0)
(-0.0638374 -0.0243744 1.17648e-19)
(-0.00427688 -0.0241489 0)
(0.0552066 -0.0238305 1.21531e-19)
(0.11472 -0.0235067 0)
(0.174294 -0.0232181 0)
(0.233977 -0.0229602 0)
(0.29382 -0.0227249 -1.24966e-19)
(0.353866 -0.0225061 0)
(0.414143 -0.0222979 1.26272e-19)
(0.474667 -0.0220934 0)
(0.535432 -0.0218831 0)
(0.596399 -0.0216512 0)
(0.657461 -0.0213721 0)
(0.718432 -0.0209952 0)
(0.77875 -0.0204232 0)
(0.837982 -0.0193856 0)
(0.891557 -0.0172162 -2.59201e-19)
(0.943724 -0.0118218 0)
(0.94493 0.00703124 0)
(0.00812898 -0.0375938 1.05536e-19)
(0.0199987 -0.0445857 -9.91056e-20)
(0.0255441 -0.0362885 0)
(0.0271541 -0.0240689 5.79102e-20)
(0.0251629 -0.0103633 0)
(0.0199063 0.00356884 2.68751e-20)
(0.011841 0.0168248 -5.23237e-20)
(0.00100134 0.0287155 -5.11366e-20)
(-0.0125282 0.0388107 0)
(-0.0286635 0.0469567 -4.86436e-20)
(-0.047283 0.0532633 -2.37218e-20)
(-0.0682125 0.0580588 0)
(-0.091261 0.0617808 0)
(-0.116253 0.0648381 0)
(-0.143049 0.0675438 0)
(-0.17156 0.0700997 -2.10269e-20)
(-0.201735 0.0726045 0)
(-0.233558 0.0750801 4.04228e-20)
(-0.26704 0.0775141 0)
(-0.302195 0.0799201 0)
(-0.338985 0.0823642 -3.87847e-20)
(-0.377288 0.0848622 0)
(-0.417029 0.087201 3.81256e-20)
(-0.458307 0.0890171 -1.8974e-20)
(-0.501212 0.0902144 1.88293e-20)
(-0.545248 0.0912102 -1.86802e-20)
(-0.58886 0.0927881 -1.8581e-20)
(-0.633099 0.0952794 0)
(-0.677154 0.0964886 0)
(-0.721269 0.0970624 1.83111e-20)
(-0.764978 0.0970398 -1.79918e-20)
(-0.805942 0.0961747 0)
(-0.846502 0.096248 0)
(-0.886181 0.0957226 1.7483e-20)
(-0.927156 0.0950536 0)
(-0.967627 0.094098 0)
(-1.00705 0.0933762 -1.68288e-20)
(-1.04503 0.0923498 0)
(-1.08206 0.0910844 1.63572e-20)
(-1.11845 0.0897166 -3.25024e-20)
(-1.15433 0.0883228 0)
(-1.18979 0.0869509 0)
(-1.22491 0.0856284 -6.2804e-20)
(-1.25974 0.084369 -6.21687e-20)
(-1.29429 0.083177 -6.15533e-20)
(-1.32861 0.0820508 3.03972e-20)
(-1.36271 0.0809849 -3.02692e-20)
(-1.39661 0.0799716 -8.97972e-20)
(-1.43031 0.0790019 5.92586e-20)
(-1.46382 0.0780662 2.94425e-20)
(-1.49713 0.0771549 0)
(-1.53026 0.0762585 -2.89205e-20)
(-1.56319 0.0753682 2.85006e-20)
(-1.5959 0.0744758 0)
(-1.6284 0.0735736 0)
(-1.66066 0.0726549 0)
(-1.69266 0.0717137 -2.7688e-20)
(-1.7244 0.0707445 0)
(-1.75583 0.069743 5.42687e-20)
(-1.78695 0.0687052 0)
(-1.81773 0.0676278 5.33396e-20)
(-1.84814 0.0665084 0)
(-1.87816 0.0653448 -5.2419e-20)
(-1.90776 0.0641356 0)
(-1.93691 0.0628798 5.1501e-20)
(-1.96559 0.0615767 -2.54474e-20)
(-1.99375 0.0602261 0)
(-2.02139 0.0588282 -5.01161e-20)
(-2.04845 0.0573836 -2.48932e-20)
(-2.07492 0.0558928 -2.46562e-20)
(-2.10077 0.0543569 0)
(-2.12595 0.052777 -2.40495e-20)
(-2.15045 0.0511545 -2.39301e-20)
(-2.17424 0.0494908 0)
(-2.19728 0.0477876 2.34298e-20)
(-2.21954 0.0460466 -4.62398e-20)
(-2.24099 0.0442693 0)
(-2.26161 0.0424575 -2.26481e-20)
(-2.28137 0.040613 0)
(-2.30023 0.0387374 6.622e-20)
(-2.31817 0.0368324 0)
(-2.33515 0.0348993 -6.45261e-20)
(-2.35116 0.0329395 -2.12402e-20)
(-2.36617 0.0309542 2.08774e-20)
(-2.38013 0.0289442 4.11538e-20)
(-2.39304 0.0269102 -4.0539e-20)
(-2.40486 0.0248524 0)
(-2.41556 0.0227704 0)
(-2.42512 0.0206634 0)
(-2.43353 0.0185299 1.13881e-19)
(-2.44075 0.016368 3.72683e-20)
(-2.44677 0.0141756 -3.65453e-20)
(-2.45159 0.0119492 0)
(-2.45522 0.00968487 -3.50672e-20)
(-2.45768 0.00738827 3.42732e-20)
(-2.45906 0.00509171 3.34809e-20)
(-2.45944 0.00285205 0)
(-2.45889 0.000694908 0)
(-2.45699 -0.00135868 0)
(-2.45375 -0.00337441 3.00905e-20)
(-2.44913 -0.00536742 0)
(-2.44309 -0.00734634 -5.6702e-20)
(-2.43562 -0.00931224 -8.22043e-20)
(-2.42671 -0.0112641 5.29686e-20)
(-2.41633 -0.0131999 0)
(-2.40448 -0.0151172 2.46444e-20)
(-2.39115 -0.0170136 0)
(-2.37633 -0.0188865 4.5053e-20)
(-2.36001 -0.0207335 -2.16178e-20)
(-2.34219 -0.0225521 -2.05726e-20)
(-2.32287 -0.0243399 0)
(-2.30205 -0.0260948 -5.46857e-20)
(-2.27973 -0.0278144 3.43475e-20)
(-2.25591 -0.0294966 1.5886e-20)
(-2.23061 -0.0311392 0)
(-2.20382 -0.0327401 1.35805e-20)
(-2.17557 -0.0342975 3.75925e-20)
(-2.14586 -0.0358093 0)
(-2.1147 -0.0372738 2.04303e-20)
(-2.08213 -0.0386893 1.80119e-20)
(-2.04814 -0.0400543 1.55687e-20)
(-2.01277 -0.0413673 0)
(-1.97604 -0.0426268 0)
(-1.93797 -0.0438317 0)
(-1.8986 -0.0449806 -3.02768e-21)
(-1.85794 -0.0460725 -1.27316e-21)
(-1.81603 -0.0471063 0)
(-1.7729 -0.0480812 2.0977e-21)
(-1.72859 -0.0489965 4.68176e-21)
(-1.68313 -0.0498517 0)
(-1.63656 -0.0506465 1.04083e-20)
(-1.58892 -0.0513805 2.49683e-20)
(-1.54025 -0.0520536 -1.56399e-20)
(-1.49059 -0.0526658 -1.71579e-20)
(-1.43998 -0.0532172 0)
(-1.38847 -0.0537083 0)
(-1.3361 -0.0541397 0)
(-1.28292 -0.0545121 -2.87072e-20)
(-1.22898 -0.0548263 3.01632e-20)
(-1.17431 -0.0550835 6.66323e-20)
(-1.11897 -0.0552849 -3.64609e-20)
(-1.06301 -0.055432 3.78712e-20)
(-1.00646 -0.0555265 4.15624e-20)
(-0.949375 -0.0555703 0)
(-0.891801 -0.0555652 0)
(-0.83378 -0.0555137 -4.79331e-20)
(-0.775356 -0.0554182 0)
(-0.716569 -0.0552811 0)
(-0.65746 -0.0551052 1.11649e-19)
(-0.598067 -0.0548934 0)
(-0.538424 -0.0546487 6.0015e-20)
(-0.478566 -0.0543743 -6.34625e-20)
(-0.418522 -0.0540731 0)
(-0.358322 -0.0537484 6.69332e-20)
(-0.29799 -0.053403 0)
(-0.237549 -0.0530395 0)
(-0.177019 -0.05266 -7.46353e-20)
(-0.116416 -0.0522645 1.52485e-19)
(-0.0557559 -0.0518532 -7.88718e-20)
(0.00494976 -0.0514252 0)
(0.0656906 -0.0509801 0)
(0.126467 -0.050526 8.21993e-20)
(0.187281 -0.0500712 0)
(0.248149 -0.049605 8.44402e-20)
(0.309121 -0.0491478 0)
(0.370216 -0.0487296 0)
(0.431466 -0.0483544 0)
(0.492906 -0.0480159 8.93819e-20)
(0.554568 -0.0477056 0)
(0.616479 -0.0474134 -9.1089e-20)
(0.678651 -0.0471254 0)
(0.741076 -0.0468208 0)
(0.803715 -0.0464653 1.85827e-19)
(0.866461 -0.0460007 -1.87176e-19)
(0.929125 -0.0453148 0)
(0.991236 -0.0441948 0)
(1.05231 -0.0420804 0)
(1.10959 -0.0378974 5.77885e-19)
(1.16555 -0.0277685 0)
(1.19912 -0.00267954 -3.93778e-19)
(0.0057661 -0.0628688 -4.24136e-23)
(0.00988064 -0.0553256 1.27942e-19)
(0.00767229 -0.0355399 0)
(0.00263301 -0.0153177 -1.07524e-19)
(-0.00505059 0.00439722 0)
(-0.0150171 0.0232407 0)
(-0.0269982 0.0409061 6.52656e-24)
(-0.0409146 0.0570817 4.49114e-20)
(-0.0567855 0.0714875 4.3701e-20)
(-0.0746877 0.0839758 4.26431e-20)
(-0.094704 0.0945876 0)
(-0.116881 0.10355 0)
(-0.141212 0.111211 -3.98116e-20)
(-0.167639 0.117952 -7.79094e-20)
(-0.196072 0.12411 7.62927e-20)
(-0.22641 0.129934 0)
(-0.258545 0.135569 7.33941e-20)
(-0.29237 0.141073 -3.6077e-20)
(-0.327772 0.146443 0)
(-0.364617 0.151659 6.99025e-20)
(-0.402709 0.156688 3.44862e-20)
(-0.44178 0.161426 -6.80521e-20)
(-0.481554 0.165641 -3.36191e-20)
(-0.521839 0.169056 0)
(-0.562465 0.171587 6.55311e-20)
(-0.603107 0.173469 6.46629e-20)
(-0.643169 0.174879 0)
(-0.682379 0.175302 6.3012e-20)
(-0.720939 0.174505 0)
(-0.758915 0.173122 6.13102e-20)
(-0.796055 0.171284 3.02484e-20)
(-0.83204 0.169141 0)
(-0.86688 0.16609 0)
(-0.901176 0.161945 0)
(-0.935502 0.157679 0)
(-0.969647 0.153786 0)
(-1.00334 0.15045 0)
(-1.0364 0.147417 5.50357e-20)
(-1.06896 0.144601 -8.15633e-20)
(-1.10113 0.141965 0)
(-1.13298 0.13949 0)
(-1.16456 0.137164 0)
(-1.19591 0.134977 8.62103e-23)
(-1.22707 0.132919 5.13957e-20)
(-1.25805 0.130977 1.01608e-19)
(-1.28887 0.129136 -1.00547e-19)
(-1.31955 0.127382 -4.9709e-20)
(-1.35008 0.125699 4.93047e-20)
(-1.38047 0.124073 -1.01171e-22)
(-1.41072 0.122487 4.82337e-20)
(-1.44083 0.120927 0)
(-1.47079 0.119381 4.73025e-20)
(-1.50059 0.117835 -1.05856e-22)
(-1.53022 0.116278 0)
(-1.55967 0.114701 0)
(-1.58893 0.113093 -4.55325e-20)
(-1.61797 0.111446 0)
(-1.64678 0.109755 0)
(-1.67535 0.108013 4.41562e-20)
(-1.70364 0.106214 8.76926e-20)
(-1.73163 0.104356 -4.35375e-20)
(-1.75931 0.102435 0)
(-1.78665 0.100447 4.27142e-20)
(-1.81362 0.0983928 0)
(-1.84019 0.0962698 4.16946e-20)
(-1.86635 0.0940778 4.14831e-20)
(-1.89205 0.0918168 -8.19513e-20)
(-1.91728 0.0894874 -4.04708e-20)
(-1.942 0.0870905 0)
(-1.96619 0.0846273 7.9473e-20)
(-1.98982 0.0820993 0)
(-2.01285 0.0795086 1.16773e-19)
(-2.03526 0.0768571 7.6941e-20)
(-2.05702 0.0741471 7.60802e-20)
(-2.0781 0.071381 -7.52091e-20)
(-2.09847 0.0685613 1.11562e-19)
(-2.1181 0.0656906 0)
(-2.13696 0.0627716 0)
(-2.15502 0.0598068 -7.1603e-20)
(-2.17225 0.0567989 -1.06056e-19)
(-2.18863 0.0537503 0)
(-2.20413 0.0506636 3.44198e-20)
(-2.21872 0.0475409 0)
(-2.23236 0.0443846 -1.00163e-19)
(-2.24505 0.0411965 -6.9173e-23)
(-2.25675 0.0379786 5.96099e-23)
(-2.26743 0.0347326 6.36103e-20)
(-2.27707 0.0314603 0)
(-2.28566 0.0281634 -6.14108e-20)
(-2.29316 0.0248445 -1.9131e-23)
(-2.29957 0.0215066 0)
(-2.30488 0.0181547 0)
(-2.30906 0.0147963 0)
(-2.31212 0.011442 5.54791e-20)
(-2.31406 0.00810625 0)
(-2.31485 0.00480803 0)
(-2.31448 0.00156714 0)
(-2.31291 -0.00163566 0)
(-2.31002 -0.00483925 0)
(-2.30581 -0.00803478 4.74962e-20)
(-2.30025 -0.0112181 0)
(-2.29331 -0.0143855 4.44894e-20)
(-2.28499 -0.0175333 4.29939e-20)
(-2.27526 -0.0206574 -4.14718e-20)
(-2.26412 -0.0237537 0)
(-2.25154 -0.0268179 -3.8349e-20)
(-2.23751 -0.029846 0)
(-2.22204 -0.0328337 -3.51234e-20)
(-2.20512 -0.0357771 3.3473e-20)
(-2.18673 -0.0386723 9.58277e-20)
(-2.16689 -0.0415155 0)
(-2.14558 -0.044303 8.56127e-20)
(-2.12282 -0.0470313 2.71356e-20)
(-2.0986 -0.0496968 0)
(-2.07293 -0.0522963 4.67068e-20)
(-2.04582 -0.0548263 4.31139e-20)
(-2.01727 -0.0572838 -5.89288e-20)
(-1.98731 -0.0596658 0)
(-1.95595 -0.0619694 -1.57403e-20)
(-1.92319 -0.0641921 -1.38624e-20)
(-1.88907 -0.0663313 -3.65751e-20)
(-1.8536 -0.0683848 0)
(-1.8168 -0.0703505 0)
(-1.77869 -0.0722263 0)
(-1.73931 -0.0740105 -5.00509e-21)
(-1.69868 -0.0757013 0)
(-1.65682 -0.0772972 0)
(-1.61378 -0.0787969 -1.60122e-21)
(-1.56959 -0.0801995 -3.57016e-21)
(-1.52427 -0.0815043 0)
(-1.47787 -0.0827108 0)
(-1.43042 -0.0838187 -1.89852e-20)
(-1.38197 -0.084828 0)
(-1.33255 -0.0857386 2.68801e-20)
(-1.28221 -0.086551 2.99716e-20)
(-1.23098 -0.087266 0)
(-1.17892 -0.0878848 0)
(-1.12606 -0.0884087 -4.1702e-20)
(-1.07245 -0.0888391 -8.67452e-22)
(-1.01814 -0.0891779 -8.70384e-22)
(-0.963168 -0.0894273 0)
(-0.907584 -0.0895899 -1.15066e-19)
(-0.851432 -0.0896684 0)
(-0.794756 -0.0896659 0)
(-0.737601 -0.0895857 0)
(-0.680009 -0.0894315 7.29339e-20)
(-0.622023 -0.0892074 0)
(-0.563683 -0.0889175 -1.58685e-19)
(-0.505029 -0.0885662 -8.37857e-20)
(-0.446098 -0.0881583 0)
(-0.386924 -0.0876986 -9.08165e-20)
(-0.327541 -0.0871921 0)
(-0.267979 -0.0866439 0)
(-0.208266 -0.0860589 -3.01414e-19)
(-0.148426 -0.0854419 2.07019e-19)
(-0.0884808 -0.0847972 0)
(-0.0284495 -0.0841292 2.19958e-19)
(0.0316525 -0.0834416 -1.13508e-19)
(0.0918126 -0.0827366 0)
(0.152023 -0.0820168 0)
(0.212281 -0.0812865 0)
(0.272594 -0.0805557 -3.64359e-19)
(0.332982 -0.0798428 0)
(0.39349 -0.079164 -1.25842e-19)
(0.45414 -0.0785271 0)
(0.514943 -0.0779424 0)
(0.57592 -0.0774123 0)
(0.637093 -0.0769313 0)
(0.698489 -0.0764897 0)
(0.760129 -0.0760734 0)
(0.822025 -0.0756615 -2.74201e-19)
(0.884167 -0.075221 0)
(0.946516 -0.0746983 -1.40611e-19)
(1.00897 -0.0740026 4.24607e-19)
(1.07137 -0.0729673 0)
(1.13332 -0.0712798 0)
(1.19445 -0.0682507 -2.90515e-19)
(1.25294 -0.0625478 -2.94478e-19)
(1.31143 -0.0507052 2.96851e-19)
(1.35785 -0.0252875 3.02438e-19)
(0.000456874 -0.0692491 -2.06357e-19)
(-0.00349086 -0.0477207 -1.86289e-19)
(-0.0117585 -0.021527 -1.10228e-19)
(-0.0217021 0.00336279 -5.01029e-20)
(-0.0334206 0.0269407 0)
(-0.0467195 0.0492499 8.81858e-20)
(-0.0615057 0.0702031 -4.22469e-20)
(-0.0777865 0.0896423 0)
(-0.0956348 0.107407 -3.97069e-20)
(-0.115158 0.123403 0)
(-0.136468 0.13765 7.56947e-20)
(-0.159646 0.150293 0)
(-0.184723 0.16157 3.6254e-20)
(-0.211669 0.171757 7.10196e-20)
(-0.240397 0.181112 -6.95967e-20)
(-0.270772 0.189828 0)
(-0.302626 0.198012 -6.69585e-20)
(-0.335762 0.205684 0)
(-0.369963 0.212801 0)
(-0.404987 0.219277 -6.35039e-20)
(-0.440565 0.225005 0)
(-0.476411 0.229845 -1.39492e-23)
(-0.512259 0.23363 0)
(-0.547912 0.236222 0)
(-0.583228 0.237606 2.35105e-23)
(-0.618064 0.237912 -5.76238e-20)
(-0.65225 0.237281 -5.67258e-20)
(-0.685693 0.235689 -5.57833e-20)
(-0.71844 0.233183 0)
(-0.750568 0.230041 -1.08129e-19)
(-0.782074 0.226422 0)
(-0.812955 0.222461 -5.2427e-20)
(-0.843306 0.218111 0)
(-0.873311 0.213387 0)
(-0.90314 0.208599 5.01355e-20)
(-0.93282 0.203995 0)
(-0.9623 0.199714 -4.87408e-20)
(-0.991545 0.195738 -1.10192e-23)
(-1.02057 0.192041 9.49378e-20)
(-1.0494 0.188597 -9.37209e-20)
(-1.07806 0.185382 0)
(-1.10656 0.182374 0)
(-1.13494 0.179552 -4.51608e-20)
(-1.1632 0.176894 0)
(-1.19136 0.174379 -4.42126e-20)
(-1.21942 0.171986 4.37291e-20)
(-1.24739 0.169694 4.32589e-20)
(-1.27526 0.167483 0)
(-1.30305 0.165333 -4.23536e-20)
(-1.33074 0.163225 -4.19165e-20)
(-1.35833 0.161141 8.28781e-20)
(-1.3858 0.159065 -4.10685e-20)
(-1.41316 0.156982 -4.0656e-20)
(-1.44039 0.154878 0)
(-1.46748 0.152739 0)
(-1.4944 0.150557 3.94559e-20)