/*--------------------------------*- C++ -*----------------------------------*\
  =========                 |
  \\      /  F ield         | OpenFOAM: The Open Source CFD Toolbox
   \\    /   O peration     | Website:  https://openfoam.org
    \\  /    A nd           | Version:  9
     \\/     M anipulation  |
\*---------------------------------------------------------------------------*/
FoamFile
{
    format      ascii;
    class       volVectorField;
    location    "0.03";
    object      U;
}
// * * * * * * * * * * * * * * * * * * * * * * * * * * * * * * * * * * * * * //

dimensions      [0 1 -1 0 0 0 0];

internalField   nonuniform List<vector> 
12225
(
(9.86047 -0.875594 0)
(9.66985 -0.702012 0)
(9.45291 -0.388713 0)
(9.2136 -0.188706 0)
(8.9856 -0.0838987 0)
(8.78389 -0.0316934 0)
(8.60814 -0.00571339 0)
(8.4547 0.00750239 0)
(8.31994 0.0144833 0)
(8.20004 0.0183663 0)
(8.09124 0.0207425 0)
(7.99014 0.0224875 0)
(7.89362 0.0241253 0)
(7.79874 0.0260563 0)
(7.70139 0.0287471 0)
(7.59955 0.0329773 0)
(7.46962 0.040377 0)
(7.35387 0.0576533 0)
(10.055 0.262697 0)
(10.1201 0.361076 0)
(10.1167 0.275076 0)
(10.0788 0.189155 0)
(10.0332 0.133748 0)
(9.98192 0.100129 0)
(9.92212 0.0795245 0)
(9.85493 0.0666222 0)
(9.7833 0.0582868 0)
(9.70953 0.0527534 0)
(9.63485 0.049148 0)
(9.55979 0.0471014 0)
(9.48443 0.0464984 0)
(9.40859 0.0475148 0)
(9.3312 0.0504667 0)
(9.25348 0.0572148 0)
(9.16793 0.0668686 0)
(9.09975 0.103305 0)
(9.99922 0.0468288 0)
(10.0237 0.0358868 0)
(10.0514 0.0171486 0)
(10.0656 0.0246842 0)
(10.069 0.0403093 0)
(10.0649 0.0506035 0)
(10.0531 0.0557204 0)
(10.0342 0.0583084 0)
(10.0096 0.0598706 0)
(9.98029 0.0611326 0)
(9.94705 0.0625542 0)
(9.91016 0.0645053 0)
(9.86974 0.0673239 0)
(9.82578 0.0715091 0)
(9.7778 0.0776611 0)
(9.72603 0.0875463 0)
(9.66809 0.101733 0)
(9.61089 0.13372 0)
(9.99671 0.00691115 0)
(10.0075 0.0262435 0)
(10.0313 0.0410066 0)
(10.047 0.0534485 0)
(10.0548 0.0615713 0)
(10.0587 0.0651071 0)
(10.0588 0.066477 0)
(10.0546 0.0675012 0)
(10.0463 0.0687748 0)
(10.0347 0.0704656 0)
(10.0198 0.0727453 0)
(10.0017 0.0758635 0)
(9.98031 0.0801457 0)
(9.9556 0.0861201 0)
(9.92732 0.0944972 0)
(9.8956 0.106789 0)
(9.86025 0.12415 0)
(9.82455 0.153072 0)
(9.99912 0.00724217 0)
(10.0071 0.0351924 0)
(10.0241 0.0489561 0)
(10.0358 0.0551707 0)
(10.0426 0.0598398 0)
(10.0475 0.0632222 0)
(10.0503 0.0656285 0)
(10.0501 0.0678459 0)
(10.0468 0.0703024 0)
(10.0408 0.0731945 0)
(10.0323 0.0767358 0)
(10.0212 0.0812192 0)
(10.0074 0.087019 0)
(9.99085 0.0946804 0)
(9.97163 0.104929 0)
(9.95001 0.11895 0)
(9.92652 0.13779 0)
(9.90364 0.164322 0)
(10.0001 0.00973938 0)
(10.0067 0.0342485 0)
(10.0195 0.0456159 0)
(10.029 0.0510717 0)
(10.0349 0.056446 0)
(10.0395 0.0611526 0)
(10.0426 0.0647876 0)
(10.0432 0.0680422 0)
(10.0414 0.0714847 0)
(10.0375 0.0753985 0)
(10.0313 0.0800313 0)
(10.023 0.0856972 0)
(10.0125 0.0927867 0)
(9.9998 0.101823 0)
(9.98504 0.113467 0)
(9.96866 0.128606 0)
(9.95141 0.148018 0)
(9.93528 0.172994 0)
(10.0003 0.00963927 0)
(10.0057 0.0301299 0)
(10.0159 0.0415754 0)
(10.0243 0.0482678 0)
(10.0297 0.0544663 0)
(10.0338 0.0598706 0)
(10.0365 0.0642361 0)
(10.0372 0.0682509 0)
(10.036 0.0725066 0)
(10.0328 0.077307 0)
(10.0278 0.0829064 0)
(10.021 0.0896201 0)
(10.0123 0.0978308 0)
(10.0018 0.108015 0)
(9.98984 0.120731 0)
(9.97681 0.136625 0)
(9.96349 0.156209 0)
(9.95138 0.18002 0)
(10.0003 0.00884436 0)
(10.0047 0.0268015 0)
(10.0131 0.0386904 0)
(10.0206 0.0463034 0)
(10.0256 0.0528608 0)
(10.0292 0.0586568 0)
(10.0316 0.0636372 0)
(10.0323 0.0683678 0)
(10.0313 0.0733895 0)
(10.0287 0.0790157 0)
(10.0244 0.0855072 0)
(10.0186 0.0931721 0)
(10.0112 0.10237 0)
(10.0024 0.113516 0)
(9.99255 0.127059 0)
(9.98205 0.143451 0)
(9.9716 0.162988 0)
(9.96231 0.185841 0)
(10.0003 0.00812847 0)
(10.0039 0.0243284 0)
(10.0108 0.0362222 0)
(10.0174 0.0443548 0)
(10.0221 0.0511984 0)
(10.0254 0.057395 0)
(10.0276 0.0629927 0)
(10.0284 0.068425 0)
(10.0276 0.0741795 0)
(10.0254 0.0805822 0)
(10.0218 0.0878989 0)
(10.0168 0.0964222 0)
(10.0106 0.106477 0)
(10.0033 0.118413 0)
(9.99528 0.132574 0)
(9.98693 0.149261 0)
(9.97883 0.168618 0)
(9.97178 0.190657 0)
(10.0003 0.00751471 0)
(10.0033 0.022269 0)
(10.0089 0.0338709 0)
(10.0147 0.0423561 0)
(10.019 0.0495284 0)
(10.0221 0.056135 0)
(10.0242 0.0623106 0)
(10.0251 0.0684023 0)
(10.0247 0.0748467 0)
(10.023 0.0819722 0)
(10.02 0.0900419 0)
(10.016 0.0993252 0)
(10.0109 0.110106 0)
(10.0051 0.122667 0)
(9.99879 0.137263 0)
(9.99237 0.154081 0)
(9.98634 0.173166 0)
(9.98127 0.194471 0)
(10.0003 0.0069537 0)
(10.0027 0.0204759 0)
(10.0074 0.0316768 0)
(10.0124 0.0403982 0)
(10.0164 0.0478846 0)
(10.0194 0.0548631 0)
(10.0215 0.0615499 0)
(10.0226 0.0682422 0)
(10.0225 0.0753226 0)
(10.0214 0.0831061 0)
(10.0192 0.0918448 0)
(10.0161 0.10178 0)
(10.0123 0.11315 0)
(10.0079 0.126178 0)
(10.0033 0.141041 0)
(9.9987 0.157847 0)
(9.99459 0.176582 0)
(9.99136 0.197181 0)
(10.0002 0.00646084 0)
(10.0023 0.0190203 0)
(10.0062 0.0298236 0)
(10.0107 0.0386568 0)
(10.0145 0.0463816 0)
(10.0174 0.0536575 0)
(10.0196 0.0607524 0)
(10.0209 0.0679346 0)
(10.0212 0.0755377 0)
(10.0206 0.0838544 0)
(10.0192 0.0931199 0)
(10.0171 0.103547 0)
(10.0144 0.115333 0)
(10.0114 0.12865 0)
(10.0083 0.143619 0)
(10.0054 0.160295 0)
(10.0029 0.178631 0)
(10.0013 0.198562 0)
(10.0002 0.00601577 0)
(10.002 0.0177249 0)
(10.0054 0.028102 0)
(10.0093 0.0369433 0)
(10.0129 0.0448471 0)
(10.0158 0.0523743 0)
(10.0181 0.059814 0)
(10.0196 0.0674153 0)
(10.0205 0.0754675 0)
(10.0205 0.0842344 0)
(10.02 0.0939296 0)
(10.0188 0.104736 0)
(10.0173 0.116815 0)
(10.0156 0.130292 0)
(10.014 0.145244 0)
(10.0126 0.161689 0)
(10.0118 0.17956 0)
(10.0118 0.198801 0)
(10.0002 0.00555496 0)
(10.0017 0.0163973 0)
(10.0046 0.0262688 0)
(10.0081 0.035012 0)
(10.0115 0.0430297 0)
(10.0145 0.0507688 0)
(10.017 0.0585142 0)
(10.0189 0.0664961 0)
(10.0203 0.0749586 0)
(10.0212 0.0841275 0)
(10.0216 0.0941877 0)
(10.0217 0.105289 0)
(10.0215 0.117551 0)
(10.0213 0.131059 0)
(10.0213 0.14585 0)
(10.0217 0.161909 0)
(10.0226 0.17916 0)
(10.0243 0.197555 0)
(10.0002 0.00507306 0)
(10.0015 0.0150146 0)
(10.004 0.0242945 0)
(10.0072 0.0328099 0)
(10.0105 0.0408315 0)
(10.0136 0.0486961 0)
(10.0164 0.0566604 0)
(10.0189 0.0649301 0)
(10.0211 0.0737035 0)
(10.0229 0.0831629 0)
(10.0244 0.0934565 0)
(10.0258 0.104697 0)
(10.0272 0.116966 0)
(10.0287 0.130306 0)
(10.0305 0.144725 0)
(10.0327 0.160184 0)
(10.0355 0.1766 0)
(10.0391 0.193936 0)
(10.0001 0.0045551 0)
(10.0013 0.0135297 0)
(10.0036 0.0221018 0)
(10.0067 0.0302193 0)
(10.01 0.0380748 0)
(10.0134 0.0459111 0)
(10.0167 0.0539384 0)
(10.0199 0.0623277 0)
(10.0229 0.0712323 0)
(10.0259 0.0807872 0)
(10.0288 0.091099 0)
(10.0317 0.102242 0)
(10.0347 0.11426 0)
(10.038 0.127165 0)
(10.0417 0.140935 0)
(10.0458 0.15552 0)
(10.0505 0.170832 0)
(10.056 0.186847 0)
(10.0001 0.00397022 0)
(10.0013 0.0118434 0)
(10.0035 0.0195282 0)
(10.0066 0.0270153 0)
(10.0102 0.0344551 0)
(10.014 0.0420171 0)
(10.018 0.0498556 0)
(10.022 0.058098 0)
(10.0262 0.0668514 0)
(10.0304 0.0762036 0)
(10.0348 0.0862184 0)
(10.0393 0.096933 0)
(10.0441 0.108358 0)
(10.0493 0.120479 0)
(10.0549 0.133258 0)
(10.0609 0.146636 0)
(10.0676 0.160525 0)
(10.0748 0.174912 0)
(10.0001 0.00325516 0)
(10.0013 0.0097668 0)
(10.0037 0.0162749 0)
(10.0071 0.0228035 0)
(10.0111 0.0294785 0)
(10.0156 0.0364115 0)
(10.0205 0.0436989 0)
(10.0256 0.0514187 0)
(10.031 0.0596314 0)
(10.0367 0.0683798 0)
(10.0426 0.0776868 0)
(10.0488 0.0875559 0)
(10.0554 0.0979711 0)
(10.0624 0.108899 0)
(10.0699 0.12029 0)
(10.0778 0.132084 0)
(10.0862 0.144197 0)
(10.0952 0.156625 0)
(10.0002 0.00229788 0)
(10.0016 0.00696365 0)
(10.0043 0.0118012 0)
(10.0082 0.0168716 0)
(10.013 0.0222813 0)
(10.0185 0.0280857 0)
(10.0244 0.0343188 0)
(10.0308 0.041006 0)
(10.0376 0.0481625 0)
(10.0448 0.0557899 0)
(10.0523 0.063876 0)
(10.0603 0.0723967 0)
(10.0686 0.0813173 0)
(10.0773 0.0905931 0)
(10.0865 0.100171 0)
(10.096 0.109992 0)
(10.106 0.119985 0)
(10.1165 0.130149 0)
(10.0002 0.0012496 0)
(10.0019 0.00387244 0)
(10.0051 0.00681288 0)
(10.0098 0.0101962 0)
(10.0155 0.0141159 0)
(10.0219 0.0185645 0)
(10.0289 0.0235143 0)
(10.0364 0.0289461 0)
(10.0443 0.0348381 0)
(10.0527 0.0411577 0)
(10.0615 0.0478664 0)
(10.0707 0.0549228 0)
(10.0803 0.0622827 0)
(10.0902 0.069898 0)
(10.1005 0.077717 0)
(10.1112 0.0856873 0)
(10.1222 0.0937478 0)
(10.1336 0.1019 0)
(10.0002 0.000270706 0)
(10.0021 0.000963939 0)
(10.0059 0.00212152 0)
(10.0113 0.00398302 0)
(10.0179 0.00660616 0)
(10.0251 0.00987835 0)
(10.0329 0.0137122 0)
(10.0413 0.0180658 0)
(10.0501 0.0228916 0)
(10.0594 0.0281265 0)
(10.069 0.0337094 0)
(10.079 0.0395879 0)
(10.0893 0.0457133 0)
(10.1 0.0520366 0)
(10.1111 0.058509 0)
(10.1224 0.0650833 0)
(10.1341 0.0717072 0)
(10.146 0.0783814 0)
(10.0003 -0.000692391 0)
(10.0024 -0.00197237 0)
(10.0068 -0.00264335 0)
(10.0131 -0.00221767 0)
(10.0205 -0.000731432 0)
(10.0285 0.0015132 0)
(10.0371 0.00435981 0)
(10.0461 0.00775753 0)
(10.0557 0.0116365 0)
(10.0656 0.0159081 0)
(10.0758 0.0204974 0)
(10.0864 0.0253459 0)
(10.0974 0.030402 0)
(10.1086 0.0356167 0)
(10.1201 0.0409438 0)
(10.1319 0.0463416 0)
(10.144 0.0517656 0)
(10.1563 0.0572158 0)
(10.0002 -0.00160347 0)
(10.0026 -0.00491302 0)
(10.0078 -0.00742514 0)
(10.0151 -0.00832739 0)
(10.0234 -0.007879 0)
(10.0321 -0.00655234 0)
(10.0413 -0.00452354 0)
(10.051 -0.00188908 0)
(10.0611 0.00121421 0)
(10.0715 0.00466893 0)
(10.0822 0.00840304 0)
(10.0933 0.0123641 0)
(10.1046 0.0165019 0)
(10.1162 0.0207691 0)
(10.128 0.0251237 0)
(10.1401 0.0295297 0)
(10.1524 0.0339502 0)
(10.1649 0.0383843 0)
(10.0002 -0.00243822 0)
(10.0027 -0.00812043 0)
(10.0088 -0.0121861 0)
(10.0173 -0.0139201 0)
(10.0264 -0.0144073 0)
(10.0358 -0.0140818 0)
(10.0456 -0.0128568 0)
(10.0558 -0.0108592 0)
(10.0663 -0.0083651 0)
(10.0771 -0.00555715 0)
(10.0881 -0.00251199 0)
(10.0995 0.000723607 0)
(10.1111 0.00410244 0)
(10.1229 0.00758082 0)
(10.1349 0.011123 0)
(10.1472 0.0146997 0)
(10.1596 0.0182823 0)
(10.1722 0.0218717 0)
(10.0001 -0.00280634 0)
(10.0027 -0.012484 0)
(10.01 -0.0181028 0)
(10.0195 -0.0195392 0)
(10.0291 -0.0201342 0)
(10.0391 -0.0205115 0)
(10.0496 -0.0200863 0)
(10.0605 -0.0188069 0)
(10.0714 -0.0169736 0)
(10.0825 -0.014799 0)
(10.0938 -0.0123757 0)
(10.1053 -0.00976491 0)
(10.117 -0.00702356 0)
(10.1288 -0.00419776 0)
(10.1408 -0.00132171 0)
(10.153 0.00157835 0)
(10.1653 0.00447868 0)
(10.1777 0.00737955 0)
(9.99907 -0.000622651 0)
(10.0009 -0.0158976 0)
(10.0109 -0.0255572 0)
(10.0222 -0.0277087 0)
(10.0323 -0.0276145 0)
(10.0427 -0.0272198 0)
(10.0541 -0.0264501 0)
(10.0656 -0.0252871 0)
(10.0769 -0.0238438 0)
(10.0882 -0.0221634 0)
(10.0994 -0.0202673 0)
(10.1107 -0.0182004 0)
(10.122 -0.0160155 0)
(10.1333 -0.013755 0)
(10.1447 -0.0114508 0)
(10.1562 -0.00912843 0)
(10.1677 -0.00680757 0)
(10.1792 -0.00449061 0)
(9.99535 0.00429003 0)
(9.99422 -0.00883216 0)
(10.0095 -0.0245867 0)
(10.026 -0.0353619 0)
(10.0389 -0.0401954 0)
(10.0505 -0.0406031 0)
(10.0622 -0.0388309 0)
(10.0734 -0.036498 0)
(10.0839 -0.034171 0)
(10.0939 -0.0318831 0)
(10.1035 -0.0295991 0)
(10.1129 -0.0273233 0)
(10.122 -0.0250701 0)
(10.131 -0.0228487 0)
(10.1399 -0.0206672 0)
(10.1488 -0.0185348 0)
(10.1577 -0.0164534 0)
(10.1666 -0.0143988 0)
(9.9916 -0.0174171 0)
(9.99283 0.000640527 0)
(10.0123 0.0187556 0)
(10.0339 0.0136798 0)
(10.0513 -0.00180639 0)
(10.0646 -0.0144921 0)
(10.0745 -0.0219081 0)
(10.0814 -0.0258455 0)
(10.086 -0.0277429 0)
(10.0892 -0.0283182 0)
(10.0915 -0.0280237 0)
(10.0931 -0.0271895 0)
(10.0943 -0.0260347 0)
(10.0953 -0.0246959 0)
(10.0963 -0.0232644 0)
(10.0974 -0.0218084 0)
(10.0987 -0.0203919 0)
(10.1003 -0.0189744 0)
(10.0237 -0.205358 0)
(10.069 -0.311426 0)
(10.0804 -0.254584 0)
(10.0736 -0.182802 0)
(10.0659 -0.132961 0)
(10.0581 -0.100136 0)
(10.046 -0.0779194 0)
(10.0291 -0.0627183 0)
(10.0091 -0.0520679 0)
(9.98769 -0.0442484 0)
(9.96596 -0.0382223 0)
(9.94459 -0.0334003 0)
(9.92404 -0.0294265 0)
(9.90461 -0.0260703 0)
(9.88649 -0.0231861 0)
(9.86976 -0.0207133 0)
(9.85462 -0.0186301 0)
(9.84109 -0.0172529 0)
(9.94217 0.672707 0)
(9.88106 0.569584 0)
(9.77836 0.34076 0)
(9.64044 0.185593 0)
(9.50099 0.096902 0)
(9.37614 0.0490332 0)
(9.26781 0.0233849 0)
(9.17447 0.00939587 0)
(9.09455 0.0016205 0)
(9.02639 -0.00270718 0)
(8.96822 -0.00506494 0)
(8.91843 -0.00628428 0)
(8.87573 -0.00684112 0)
(8.83907 -0.00700784 0)
(8.80755 -0.00694755 0)
(8.78041 -0.0067883 0)
(8.75671 -0.00662665 0)
(8.73602 -0.00685321 0)
(0.0513396 -0.0494856 -4.12706e-20)
(0.201239 -0.206313 3.5652e-20)
(0.438448 -0.309111 0)
(0.696038 -0.345989 0)
(0.945755 -0.341098 0)
(1.17349 -0.313824 -2.76354e-20)
(1.37161 -0.275152 0)
(1.53609 -0.230919 0)
(1.66503 -0.184175 0)
(1.75771 -0.136235 0)
(1.81344 -0.0870614 2.66589e-20)
(1.83597 -0.0349654 0)
(1.81394 0.0185976 0)
(1.75177 0.069659 0)
(1.65587 0.113181 0)
(1.53373 0.144393 2.77108e-20)
(1.39533 0.159742 0)
(1.25296 0.157633 0)
(1.11938 0.139338 0)
(1.00517 0.109167 0)
(0.915565 0.0737891 0)
(0.848062 0.0414326 0)
(0.792439 0.0197399 0)
(0.734455 0.0118009 3.13166e-20)
(0.660193 0.0154514 -3.18613e-20)
(0.558033 0.0277785 3.27227e-20)
(0.41922 0.0500266 3.40528e-20)
(0.23556 0.0884101 0)
(-0.000786895 0.145809 0)
(-0.297668 0.215186 -3.48617e-20)
(-0.650187 0.286168 -3.21126e-20)
(-1.04796 0.349193 0)
(-1.47809 0.39798 0)
(-1.92665 0.42968 -2.70311e-20)
(-2.38036 0.444186 0)
(-2.8276 0.443301 0)
(-3.25896 0.429926 2.5824e-20)
(-3.66749 0.407368 0)
(-4.04857 0.378835 2.60765e-20)
(-4.39966 0.347105 5.26638e-20)
(-4.71994 0.314383 0)
(-5.0099 0.282283 0)
(-5.27095 0.251879 0)
(-5.50508 0.223799 0)
(-5.71457 0.198326 0)
(-5.90178 0.175505 5.59211e-20)
(-6.06903 0.155221 5.63053e-20)
(-6.21849 0.137267 5.66291e-20)
(-6.35213 0.121393 0)
(-6.47169 0.107336 -5.70991e-20)
(-6.5787 0.0948428 0)
(-6.67446 0.0836799 5.73442e-20)
(-6.7601 0.0736403 5.73876e-20)
(-6.83656 0.0645443 0)
(-6.90462 0.0562398 0)
(-6.96495 0.0486006 0)
(-7.01807 0.0415256 5.70752e-20)
(-7.06444 0.0349368 0)
(-7.10441 0.0287793 0)
(-7.13826 0.0230243 0)
(-7.16622 0.0176639 0)
(-7.18848 0.0127223 0)
(-7.20516 0.0082547 0)
(-7.21643 0.00430027 0)
(-7.22242 0.000876111 0)
(-7.22423 -0.00212646 -5.36836e-20)
(-7.22192 -0.00498918 0)
(-7.21551 -0.00786637 0)
(-7.2049 -0.0108432 5.15523e-20)
(-7.18989 -0.0139798 5.0709e-20)
(-7.17022 -0.0173291 0)
(-7.14554 -0.0209437 -4.87966e-20)
(-7.11544 -0.0248787 4.77156e-20)
(-7.0794 -0.0291934 0)
(-7.03684 -0.033952 -4.52661e-20)
(-6.98705 -0.0392238 0)
(-6.92921 -0.0450827 0)
(-6.8624 -0.0516071 4.07165e-20)
(-6.78554 -0.0588778 0)
(-6.69745 -0.0669759 -3.69374e-20)
(-6.59677 -0.0759789 0)
(-6.48205 -0.0859562 3.23873e-20)
(-6.35171 -0.096962 2.97649e-20)
(-6.20405 -0.109027 2.68755e-20)
(-6.03738 -0.122147 4.73803e-20)
(-5.84997 -0.136273 -4.03579e-20)
(-5.64022 -0.151299 0)
(-5.40672 -0.167049 0)
(-5.14841 -0.183267 0)
(-4.86469 -0.199617 -4.60895e-21)
(-4.55561 -0.215685 6.47207e-21)
(-4.22196 -0.230992 -1.84593e-20)
(-3.86543 -0.245022 0)
(-3.4886 -0.257258 4.51082e-20)
(-3.09496 -0.267222 5.96981e-20)
(-2.68877 -0.274516 7.50543e-20)
(-2.27486 -0.278859 0)
(-1.85846 -0.280064 0)
(-1.44486 -0.277966 0)
(-1.0392 -0.272321 1.42559e-19)
(-0.646163 -0.262762 0)
(-0.269233 -0.248863 0)
(0.089688 -0.230789 -1.82029e-19)
(0.42967 -0.211151 0)
(0.749685 -0.192223 0)
(1.04812 -0.174393 -1.65092e-19)
(1.32504 -0.157774 0)
(1.58105 -0.142426 0)
(1.81701 -0.128356 1.4974e-19)
(2.03402 -0.115532 1.45132e-19)
(2.23325 -0.103893 0)
(2.4159 -0.0933619 -1.36713e-19)
(2.5832 -0.0838526 0)
(2.7363 -0.0752752 1.29311e-19)
(2.8763 -0.0675414 0)
(3.00423 -0.0605672 1.22837e-19)
(3.12103 -0.0542745 1.19918e-19)
(3.22757 -0.0485926 0)
(3.32466 -0.0434577 0)
(3.41302 -0.0388134 0)
(3.49332 -0.0346099 0)
(3.56618 -0.0308033 0)
(3.63215 -0.0273552 0)
(3.69177 -0.024232 0)
(3.74551 -0.021404 1.02663e-19)
(3.79382 -0.0188448 -1.01119e-19)
(3.83712 -0.0165311 0)
(3.8758 -0.0144416 0)
(3.91024 -0.0125571 0)
(3.94078 -0.0108596 0)
(3.96774 -0.00933201 -1.89778e-19)
(3.99142 -0.00795856 0)
(4.0121 -0.00672415 1.8595e-19)
(4.03005 -0.00560716 -1.84241e-19)
(4.04549 -0.00457126 0)
(4.05857 -0.00362436 0)
(4.06948 -0.00280312 0)
(4.07863 -0.0016592 1.78605e-19)
(4.08452 0.000152666 1.77466e-19)
(4.08616 0.00239171 0)
(4.08376 0.00468523 1.75523e-19)
(4.07781 0.00671719 1.74723e-19)
(4.06881 0.0083612 -1.74017e-19)
(4.05727 0.00961634 0)
(4.04362 0.010518 0)
(4.02826 0.01112 -1.72345e-19)
(4.01152 0.0114744 0)
(3.99371 0.0116237 0)
(3.97507 0.0116006 0)
(3.95587 0.01143 0)
(3.93631 0.0111321 1.70491e-19)
(3.9166 0.0107246 1.70196e-19)
(3.89693 0.0102244 0)
(3.87745 0.00964823 1.69635e-19)
(3.85831 0.00901353 0)
(3.83961 0.00833801 0)
(3.82146 0.00763969 1.68805e-19)
(3.80391 0.00693659 0)
(3.78702 0.00624636 1.68226e-19)
(3.7708 0.00558596 0)
(3.75525 0.00497121 0)
(3.74034 0.00441656 1.67291e-19)
(3.72603 0.00393492 0)
(3.71221 0.00353776 1.6663e-19)
(3.6988 0.0032355 0)
(3.68563 0.00303832 0)
(3.67252 0.00295725 0)
(3.65923 0.003006 -1.6533e-19)
(3.64543 0.00320367 0)
(3.63071 0.00357798 1.64802e-19)
(3.61452 0.00416988 0)
(3.59613 0.00504139 0)
(3.57452 0.00628784 0)
(3.54823 0.00806046 0)
(3.51523 0.0106068 0)
(3.47199 0.0143292 0)
(3.4147 0.0200939 0)
(3.32958 0.0286498 -3.36495e-19)
(3.22478 0.0464557 0)
(2.97343 0.0630898 0)
(0.172414 -0.463109 1.05448e-19)
(0.366393 -0.720706 -8.06129e-20)
(0.602111 -0.793813 0)
(0.820615 -0.77256 4.52871e-20)
(1.00472 -0.70358 0)
(1.15855 -0.611936 2.0479e-20)
(1.28589 -0.510354 -4.28602e-20)
(1.38762 -0.405302 -4.31345e-20)
(1.464 -0.300098 0)
(1.51577 -0.196306 -4.4388e-20)
(1.54399 -0.0943982 -2.19653e-20)
(1.54799 0.00610941 0)
(1.53841 0.103154 0)
(1.51159 0.193361 0)
(1.46363 0.272003 0)
(1.39165 0.333273 -2.3121e-20)
(1.29433 0.370852 0)
(1.17312 0.379535 4.68424e-20)
(1.03241 0.358554 0)
(0.877399 0.315373 0)
(0.710328 0.266792 -4.6577e-20)
(0.528016 0.23454 0)
(0.322726 0.236277 4.78568e-20)
(0.0845605 0.278544 -2.49489e-20)
(-0.197751 0.357961 2.42533e-20)
(-0.533782 0.46803 -2.26081e-20)
(-0.925597 0.600287 -2.10242e-20)
(-1.36747 0.742002 0)
(-1.84456 0.876937 0)
(-2.33808 0.990078 1.72036e-20)
(-2.82984 1.07178 -1.70158e-20)
(-3.30457 1.11771 0)
(-3.75043 1.12835 0)
(-4.15917 1.10779 1.57228e-20)
(-4.52621 1.06221 0)
(-4.85022 0.998546 0)
(-5.13254 0.923476 -1.68789e-20)
(-5.37634 0.842815 0)
(-5.58585 0.761197 1.96607e-20)
(-5.76577 0.682016 -3.74552e-20)
(-5.92068 0.607534 0)
(-6.0548 0.539065 0)
(-6.17176 0.477193 -8.36987e-20)
(-6.27461 0.421974 -8.53991e-20)
(-6.36579 0.373116 -8.6948e-20)
(-6.44726 0.330118 4.47206e-20)
(-6.52051 0.292376 -4.43494e-20)
(-6.58673 0.259258 -1.3573e-19)
(-6.64679 0.230148 9.17483e-20)
(-6.70141 0.204477 4.60397e-20)
(-6.75113 0.181733 0)
(-6.79637 0.161469 -4.68272e-20)
(-6.8375 0.143299 4.75147e-20)
(-6.87481 0.126891 0)
(-6.90855 0.111964 0)
(-6.93893 0.0982808 0)
(-6.96615 0.0856372 -4.78094e-20)
(-6.99038 0.0738617 0)
(-7.01178 0.0628095 9.59722e-20)
(-7.03049 0.0523632 0)
(-7.04665 0.0424351 9.56183e-20)
(-7.06038 0.0329766 0)
(-7.07177 0.0239868 -9.48334e-20)
(-7.08081 0.0154836 0)
(-7.08738 0.00745863 9.35281e-20)
(-7.09034 -0.000211235 -4.64807e-20)
(-7.08938 -0.00775278 0)
(-7.08423 -0.0153381 -9.05602e-20)
(-7.07467 -0.0230996 -4.44722e-20)
(-7.06045 -0.0311527 -4.37665e-20)
(-7.04128 -0.0396096 0)
(-7.01683 -0.0485863 -4.26138e-20)
(-6.98668 -0.0582072 -4.11751e-20)
(-6.95036 -0.068607 0)
(-6.90731 -0.0799323 3.89926e-20)
(-6.85687 -0.0923418 -7.62184e-20)
(-6.79827 -0.106006 0)
(-6.73066 -0.121104 -3.48762e-20)
(-6.65301 -0.137823 0)
(-6.56421 -0.156349 9.54652e-20)
(-6.46299 -0.176859 0)
(-6.34794 -0.19951 -8.34201e-20)
(-6.21754 -0.224422 -2.49953e-20)
(-6.07016 -0.251655 2.41597e-20)
(-5.90414 -0.281188 4.30911e-20)
(-5.71777 -0.312887 -3.73862e-20)
(-5.50944 -0.346474 0)
(-5.27772 -0.3815 0)
(-5.02149 -0.417321 0)
(-4.74008 -0.453092 1.65547e-20)
(-4.43345 -0.487774 -5.07098e-21)
(-4.10229 -0.520177 1.42892e-20)
(-3.7482 -0.549031 0)
(-3.37368 -0.573083 2.7573e-20)
(-2.98215 -0.591218 -4.44297e-20)
(-2.57781 -0.602577 -5.5098e-20)
(-2.16544 -0.606668 0)
(-1.75012 -0.603409 0)
(-1.33692 -0.593101 0)
(-0.930543 -0.576334 -9.91749e-20)
(-0.535043 -0.553861 0)
(-0.153332 -0.526364 2.32751e-19)
(0.211443 -0.494498 3.61568e-19)
(0.556742 -0.460219 -2.38958e-19)
(0.881383 -0.425661 0)
(1.18497 -0.391805 -1.15843e-19)
(1.46769 -0.359267 0)
(1.73007 -0.328448 -2.29523e-19)
(1.97296 -0.299584 1.1171e-19)
(2.19736 -0.272785 1.10042e-19)
(2.4044 -0.248065 0)
(2.59523 -0.225371 3.23406e-19)
(2.77099 -0.204603 -2.11256e-19)
(2.9328 -0.185638 -1.04543e-19)
(3.0817 -0.168338 0)
(3.21867 -0.152563 -1.00881e-19)
(3.34462 -0.138177 -2.96409e-19)
(3.46038 -0.125052 0)
(3.56672 -0.113069 -1.91027e-19)
(3.66435 -0.102124 -1.88136e-19)
(3.75389 -0.0921191 -1.85394e-19)
(3.83596 -0.0829714 0)
(3.91108 -0.0746055 0)
(3.97977 -0.0669555 0)
(4.0425 -0.059963 8.77254e-20)
(4.0997 -0.0535761 8.71308e-20)
(4.15177 -0.0477485 0)
(4.19912 -0.0424386 1.70201e-19)
(4.24209 -0.0376086 1.68552e-19)
(4.28104 -0.0332233 0)
(4.31628 -0.0292498 1.65826e-19)
(4.34813 -0.0256565 3.28544e-19)
(4.37687 -0.022412 -1.6324e-19)
(4.40278 -0.0194812 -1.61751e-19)
(4.42612 -0.0168196 0)
(4.44715 -0.0143957 0)
(4.4661 -0.0121717 0)
(4.48296 -0.00984215 -1.58393e-19)
(4.49914 -0.00720633 1.57402e-19)
(4.51553 -0.00447382 3.13659e-19)
(4.53185 -0.00187163 -1.56291e-19)
(4.54763 0.000526931 1.55457e-19)
(4.56255 0.00263704 1.55065e-19)
(4.57637 0.00447182 0)
(4.58896 0.00604761 0)
(4.60025 0.00738747 -1.53495e-19)
(4.61026 0.00851306 0)
(4.619 0.00944281 0)
(4.6265 0.0101931 3.05049e-19)
(4.6328 0.0107794 0)
(4.63793 0.0112171 1.5197e-19)
(4.6419 0.0115221 -1.51823e-19)
(4.64473 0.0117105 0)
(4.64643 0.0117988 1.51392e-19)
(4.64699 0.0118025 0)
(4.64641 0.0117359 0)
(4.64469 0.011612 -1.51002e-19)
(4.64182 0.0114419 3.01703e-19)
(4.63783 0.0112356 -1.50746e-19)
(4.63273 0.011002 0)
(4.62656 0.0107502 0)
(4.61939 0.0104903 1.50342e-19)
(4.61129 0.0102344 0)
(4.60234 0.0099975 1.50079e-19)
(4.59265 0.00979913 0)
(4.58228 0.00966406 0)
(4.57133 0.00962392 0)
(4.55985 0.00971921 1.49534e-19)
(4.54786 0.0100025 0)
(4.53531 0.0105433 -1.4927e-19)
(4.52212 0.0114354 0)
(4.50807 0.0128099 0)
(4.49286 0.0148587 2.98044e-19)
(4.47598 0.0178676 -2.98107e-19)
(4.4568 0.0223124 0)
(4.43388 0.0288889 0)
(4.40681 0.039257 0)
(4.36863 0.0546696 9.03179e-19)
(4.33065 0.0856158 0)
(4.23952 0.123385 -6.07775e-19)
(0.179406 -1.01407 3.04587e-21)
(0.349584 -1.26936 1.00891e-19)
(0.54353 -1.2347 0)
(0.703683 -1.12299 -8.46334e-20)
(0.828718 -0.986241 0)
(0.929025 -0.84021 0)
(1.0092 -0.691053 -1.51845e-21)
(1.06971 -0.541784 3.96985e-20)
(1.11006 -0.394393 4.1597e-20)
(1.12984 -0.250622 4.12075e-20)
(1.12898 -0.112074 0)
(1.10781 0.0203264 0)
(1.068 0.147734 -4.38143e-20)
(1.01112 0.269891 -8.79328e-20)
(0.938362 0.384005 8.82542e-20)
(0.84943 0.484129 0)
(0.742374 0.562077 8.83026e-20)
(0.613859 0.61088 -4.33451e-20)
(0.459171 0.630925 0)
(0.271902 0.634548 8.6766e-20)
(0.0445224 0.64401 4.22433e-20)
(-0.229893 0.6835 -8.00755e-20)
(-0.555446 0.76791 -3.68576e-20)
(-0.931562 0.89812 0)
(-1.35209 1.06312 6.44576e-20)
(-1.80455 1.24409 6.09774e-20)
(-2.27132 1.41977 0)
(-2.73241 1.57066 5.64701e-20)
(-3.16882 1.68235 0)
(-3.5659 1.74699 5.50822e-20)
(-3.9152 1.76301 2.53692e-20)
(-4.21427 1.73406 0)
(-4.46548 1.66752 0)
(-4.67447 1.57265 0)
(-4.84852 1.45906 0)
(-4.9952 1.33555 0)
(-5.12142 1.20944 0)
(-5.2329 1.08631 6.44709e-20)
(-5.33396 0.96998 -9.7211e-20)
(-5.42765 0.862773 0)
(-5.51594 0.765783 0)
(-5.6 0.679205 0)
(-5.68041 0.60263 -1.63169e-21)
(-5.75744 0.535283 7.07597e-20)
(-5.83113 0.476213 1.4519e-19)
(-5.90145 0.424416 -1.47337e-19)
(-5.96832 0.378917 -7.50609e-20)
(-6.03171 0.338822 7.52382e-20)
(-6.09158 0.303332 5.90826e-22)
(-6.14796 0.271753 7.74602e-20)
(-6.20089 0.243492 0)
(-6.25043 0.218046 7.87665e-20)
(-6.29666 0.194992 3.90866e-22)
(-6.33967 0.173975 0)
(-6.37956 0.154696 0)
(-6.41642 0.136904 -8.06789e-20)
(-6.45032 0.120385 0)
(-6.48133 0.104952 0)
(-6.50949 0.0904418 8.17965e-20)
(-6.53483 0.0766984 1.63191e-19)
(-6.55732 0.0635712 -8.13108e-20)
(-6.57689 0.0509047 0)
(-6.59344 0.0385305 8.11596e-20)
(-6.60681 0.0262807 0)
(-6.6169 0.0140051 8.14031e-20)
(-6.62354 0.00160035 8.00884e-20)
(-6.62662 -0.0109862 -1.5984e-19)
(-6.62596 -0.0238446 -7.96799e-20)
(-6.62133 -0.0371 0)
(-6.61249 -0.0508967 1.54861e-19)
(-6.59912 -0.0653922 0)
(-6.58087 -0.0807585 2.24664e-19)
(-6.55734 -0.0971834 1.4736e-19)
(-6.52804 -0.114873 1.44198e-19)
(-6.49242 -0.134052 -1.40664e-19)
(-6.44983 -0.154965 2.04261e-19)
(-6.39953 -0.177876 0)
(-6.34067 -0.203065 0)
(-6.27226 -0.230821 -1.2216e-19)
(-6.19322 -0.261434 -1.73172e-19)
(-6.1023 -0.295184 0)
(-5.99812 -0.332315 4.98335e-20)
(-5.87915 -0.373016 0)
(-5.74375 -0.417382 -1.27439e-19)
(-5.59019 -0.465376 3.80879e-21)
(-5.41669 -0.516782 -4.11264e-21)
(-5.22151 -0.571149 5.53005e-20)
(-5.00305 -0.627748 0)
(-4.75996 -0.685529 -3.02403e-20)
(-4.49135 -0.743104 5.10157e-21)
(-4.1969 -0.798766 0)
(-3.87712 -0.850547 0)
(-3.53341 -0.896339 0)
(-3.1682 -0.934061 -5.25294e-20)
(-2.78493 -0.961864 0)
(-2.38793 -0.978342 0)
(-1.98217 -0.98271 0)
(-1.57297 -0.974899 0)
(-1.1656 -0.955557 0)
(-0.764918 -0.925989 -1.53545e-19)
(-0.37503 -0.888017 0)
(0.00088053 -0.843543 -1.86459e-19)
(0.359551 -0.794421 -1.89969e-19)
(0.699033 -0.742711 1.91524e-19)
(1.0182 -0.690158 0)
(1.31677 -0.638135 1.91906e-19)
(1.59495 -0.587687 0)
(1.85331 -0.539541 1.89742e-19)
(2.09271 -0.49416 -1.88038e-19)
(2.31418 -0.451786 -5.54485e-19)
(2.51883 -0.412502 0)
(2.70778 -0.376269 -5.41704e-19)
(2.88216 -0.342969 -1.76456e-19)
(3.04302 -0.312434 0)
(3.19137 -0.284472 -3.46528e-19)
(3.32816 -0.25888 -3.41997e-19)
(3.45424 -0.235459 5.07255e-19)
(3.57041 -0.214018 0)
(3.67741 -0.194381 1.65286e-19)
(3.77589 -0.176387 1.63207e-19)
(3.86649 -0.159891 4.82402e-19)
(3.94975 -0.144764 0)
(4.02621 -0.130889 0)
(4.09635 -0.118167 0)
(4.16061 -0.106505 1.53419e-19)
(4.21943 -0.0958238 0)
(4.27318 -0.0860518 0)
(4.32224 -0.0771242 -1.50134e-19)
(4.36696 -0.0689823 -1.4894e-19)
(4.40768 -0.0615724 0)
(4.4447 -0.0548439 0)
(4.47834 -0.0487488 -2.91776e-19)
(4.50888 -0.0432399 0)
(4.53658 -0.0382681 2.88526e-19)
(4.56173 -0.0337828 2.86788e-19)
(4.58458 -0.0297293 0)
(4.60537 -0.0260402 0)
(4.62427 -0.0226981 -2.83521e-19)
(4.64166 -0.0196284 -2.40327e-22)
(4.65802 -0.0167129 -2.22279e-22)
(4.67374 -0.0138997 0)
(4.68904 -0.011153 -5.62099e-19)
(4.70395 -0.00853746 0)
(4.71851 -0.00613913 0)
(4.7327 -0.00396035 0)
(4.74652 -0.00200395 2.79812e-19)
(4.75996 -0.000271809 0)
(4.77303 0.00124489 -5.59009e-19)
(4.78571 0.00256256 -2.79647e-19)
(4.79801 0.00370116 0)
(4.80991 0.00468258 -2.79853e-19)
(4.82137 0.00552982 0)
(4.83236 0.0062661 0)
(4.84283 0.00691375 -8.41286e-19)
(4.85271 0.00749314 5.6134e-19)
(4.86194 0.00802177 0)
(4.87045 0.00851342 5.62461e-19)
(4.87814 0.00897785 -2.81565e-19)
(4.88493 0.00942088 0)
(4.89075 0.0098451 0)
(4.89553 0.0102511 0)
(4.8992 0.0106392 -8.47317e-19)
(4.90171 0.0110116 0)
(4.90304 0.0113746 -2.8274e-19)
(4.90316 0.0117409 0)
(4.90206 0.0121323 0)
(4.89974 0.0125822 0)
(4.89617 0.0131383 0)
(4.89134 0.0138673 0)
(4.8852 0.0148597 0)
(4.87763 0.0162403 -5.65582e-19)
(4.86847 0.0181818 0)
(4.85744 0.0209337 -2.83033e-19)
(4.84412 0.0248572 8.49391e-19)
(4.82796 0.030542 0)
(4.8079 0.0388239 0)
(4.78346 0.0515824 -5.69055e-19)
(4.75113 0.0705844 -5.72485e-19)
(4.71713 0.105004 5.72385e-19)
(4.66375 0.154226 5.7692e-19)
(0.181045 -1.4827 -1.96366e-19)
(0.263789 -1.65927 -1.54029e-19)
(0.392715 -1.52177 -9.31154e-20)
(0.490588 -1.34696 -4.4681e-20)
(0.565733 -1.16644 0)
(0.62592 -0.983068 8.11176e-20)
(0.671793 -0.797484 -4.145e-20)
(0.702131 -0.61076 0)
(0.715545 -0.424561 -4.06656e-20)
(0.710883 -0.241037 0)
(0.687368 -0.0625722 8.70176e-20)
(0.644492 0.108539 0)
(0.582082 0.271116 4.32833e-20)
(0.500618 0.424743 8.70072e-20)
(0.400698 0.568381 -8.73694e-20)
(0.282051 0.699177 0)
(0.142379 0.812928 -8.70523e-20)
(-0.0233097 0.907523 0)
(-0.222987 0.988945 0)
(-0.465297 1.07221 -7.14606e-20)
(-0.757017 1.1754 0)
(-1.09913 1.31146 -1.70601e-21)
(-1.48479 1.48152 0)
(-1.89951 1.67373 0)
(-2.32335 1.86715 2.63912e-21)
(-2.73448 2.03839 -4.8813e-20)
(-3.11334 2.16807 -5.12796e-20)
(-3.44599 2.24465 -4.67376e-20)
(-3.72576 2.26515 0)
(-3.95293 2.2335 -9.87186e-20)
(-4.13304 2.15811 0)
(-4.27474 2.04952 -5.34352e-20)
(-4.38773 1.91857 0)
(-4.48113 1.77515 0)
(-4.56257 1.62741 5.61633e-20)
(-4.63773 1.48156 0)
(-4.71041 1.34193 -5.80075e-20)
(-4.78278 1.21123 2.90396e-21)
(-4.85583 1.09088 1.17135e-19)
(-4.92971 0.981384 -1.21495e-19)
(-5.00407 0.882593 0)
(-5.07829 0.793962 0)
(-5.15169 0.714711 -6.48646e-20)
(-5.22362 0.64396 0)
(-5.2935 0.580801 -6.39193e-20)
(-5.36087 0.524357 6.48395e-20)
(-5.42539 0.473808 6.57076e-20)
(-5.48681 0.42841 0)
(-5.54499 0.387496 -6.72922e-20)
(-5.59983 0.350478 -6.80112e-20)
(-5.65133 0.31684 1.38605e-19)
(-5.6995 0.286134 -6.93086e-20)
(-5.74438 0.257966 -6.98888e-20)
(-5.78605 0.231996 0)
(-5.82457 0.207924 0)
(-5.86003 0.185488 7.13593e-20)
(-5.89249 0.164453 0)
(-5.92202 0.14461 0)
(-5.94867 0.12577 -1.44826e-19)
(-5.97249 0.107759 -1.4533e-19)
(-5.9935 0.0904149 0)
(-6.0117 0.0735826 0)
(-6.02708 0.0571019 0)
(-6.03961 0.0408053 0)
(-6.04926 0.0245224 -1.45997e-19)
(-6.05596 0.00809852 1.46566e-19)
(-6.05964 -0.00860726 1.44806e-19)
(-6.06015 -0.0257442 2.89029e-19)
(-6.05733 -0.0434825 0)
(-6.05096 -0.0620119 1.28557e-21)
(-6.04077 -0.0815413 0)
(-6.02643 -0.102301 -1.38116e-19)
(-6.00758 -0.124543 1.54197e-21)
(-5.98376 -0.148546 -1.3348e-19)
(-5.95447 -0.174616 1.3063e-19)
(-5.91908 -0.203089 1.92662e-21)
(-5.87691 -0.234329 0)
(-5.82713 -0.268724 1.21799e-19)
(-5.76883 -0.306685 1.14831e-19)
(-5.70093 -0.348629 2.21852e-19)
(-5.62223 -0.394965 0)
(-5.53135 -0.446067 -1.00373e-19)
(-5.42679 -0.502241 0)
(-5.30683 -0.563675 1.67465e-19)
(-5.16967 -0.630383 -7.29613e-20)
(-5.01338 -0.702134 6.32465e-20)
(-4.83598 -0.778374 -5.26491e-20)