/*--------------------------------*- C++ -*----------------------------------*\
  =========                 |
  \\      /  F ield         | OpenFOAM: The Open Source CFD Toolbox
   \\    /   O peration     | Website:  https://openfoam.org
    \\  /    A nd           | Version:  9
     \\/     M anipulation  |
\*---------------------------------------------------------------------------*/
FoamFile
{
    format      ascii;
    class       volScalarField;
    location    "0.1";
    object      k;
}
// * * * * * * * * * * * * * * * * * * * * * * * * * * * * * * * * * * * * * //

dimensions      [0 2 -2 0 0 0 0];

internalField   nonuniform List<scalar> 
12225
(
0.353921
0.335043
0.316966
0.300961
0.288127
0.27891
0.273305
0.271015
0.271585
0.274499
0.279244
0.285351
0.292415
0.300102
0.308162
0.316383
0.324848
0.337169
0.436865
0.448981
0.438088
0.433069
0.438803
0.453614
0.474847
0.500052
0.527243
0.554936
0.582104
0.608087
0.632512
0.655214
0.676333
0.695772
0.71596
0.731527
0.395186
0.410873
0.41063
0.405747
0.402013
0.400929
0.402625
0.406826
0.41311
0.421022
0.430129
0.440053
0.450486
0.461193
0.472046
0.482952
0.494284
0.505351
0.379641
0.384839
0.386546
0.38573
0.383905
0.382028
0.38057
0.379744
0.379614
0.38016
0.381321
0.383016
0.385164
0.387694
0.390559
0.393735
0.397265
0.401049
0.374976
0.3759
0.376239
0.37572
0.37457
0.373083
0.371496
0.369967
0.368594
0.367428
0.366489
0.365776
0.365282
0.364991
0.364895
0.364988
0.365272
0.365716
0.373488
0.372554
0.371759
0.370806
0.36963
0.368274
0.366808
0.365299
0.363802
0.362356
0.360989
0.359713
0.358537
0.357465
0.356498
0.355635
0.35488
0.354225
0.373012
0.371296
0.369812
0.368416
0.367025
0.365609
0.364167
0.362709
0.361255
0.35982
0.358421
0.357068
0.355769
0.354528
0.353351
0.352239
0.351196
0.350229
0.372865
0.370838
0.369004
0.36731
0.36571
0.364173
0.362677
0.361214
0.35978
0.358377
0.35701
0.355682
0.354395
0.353153
0.351959
0.350814
0.349722
0.348693
0.37282
0.37068
0.368691
0.366836
0.365094
0.363447
0.361878
0.360373
0.358925
0.357527
0.356177
0.354873
0.353614
0.3524
0.351232
0.350108
0.349032
0.348014
0.372806
0.370628
0.368577
0.366647
0.364828
0.363109
0.361481
0.359932
0.358454
0.357042
0.355689
0.354391
0.353146
0.35195
0.350803
0.349703
0.34865
0.347654
0.372801
0.370609
0.368537
0.366576
0.36472
0.362963
0.361298
0.359717
0.358213
0.356781
0.355416
0.354113
0.352868
0.351677
0.350539
0.349451
0.348412
0.347432
0.372799
0.370602
0.368522
0.366549
0.36468
0.362906
0.361223
0.359625
0.358106
0.356661
0.355285
0.353974
0.352724
0.351531
0.350393
0.349308
0.348272
0.347297
0.372797
0.370599
0.368514
0.366537
0.36466
0.362879
0.361187
0.35958
0.358051
0.356597
0.355213
0.353895
0.35264
0.351443
0.350303
0.349215
0.34818
0.347205
0.372796
0.370596
0.368509
0.366528
0.364649
0.362863
0.361167
0.359554
0.35802
0.356561
0.355172
0.353849
0.352589
0.351388
0.350244
0.349154
0.348115
0.347138
0.372795
0.370593
0.368505
0.366523
0.364641
0.362853
0.361154
0.359538
0.358002
0.356539
0.355147
0.353821
0.352558
0.351355
0.350207
0.349114
0.348073
0.347093
0.372795
0.370592
0.368502
0.366518
0.364634
0.362845
0.361144
0.359527
0.357989
0.356525
0.35513
0.353803
0.352538
0.351332
0.350183
0.349088
0.348044
0.347061
0.372794
0.37059
0.368499
0.366515
0.36463
0.362839
0.361137
0.359519
0.357979
0.356514
0.355118
0.353789
0.352523
0.351316
0.350165
0.349068
0.348023
0.347039
0.372794
0.37059
0.368498
0.366512
0.364627
0.362835
0.361133
0.359513
0.357972
0.356506
0.35511
0.35378
0.352512
0.351304
0.350153
0.349054
0.348007
0.347022
0.372793
0.370589
0.368497
0.366512
0.364626
0.362834
0.361131
0.359511
0.35797
0.356503
0.355106
0.353776
0.352508
0.351299
0.350147
0.349047
0.348
0.347014
0.372794
0.37059
0.368498
0.366513
0.364628
0.362836
0.361134
0.359514
0.357974
0.356507
0.355111
0.35378
0.352513
0.351304
0.350152
0.349053
0.348005
0.347019
0.372794
0.370591
0.3685
0.366516
0.364632
0.362842
0.36114
0.359522
0.357983
0.356518
0.355123
0.353795
0.352529
0.351322
0.350171
0.349073
0.348027
0.347042
0.372795
0.370593
0.368504
0.366522
0.364642
0.362856
0.361159
0.359546
0.358013
0.356554
0.355164
0.353841
0.352581
0.351378
0.350232
0.349138
0.348095
0.347113
0.372796
0.370598
0.368518
0.366547
0.364681
0.362913
0.361235
0.359643
0.358128
0.356686
0.355313
0.354003
0.352753
0.351559
0.350419
0.349328
0.348286
0.347303
0.372804
0.370631
0.368592
0.366676
0.364872
0.363167
0.361548
0.360007
0.358533
0.357122
0.355769
0.354469
0.353221
0.352023
0.350871
0.349765
0.348705
0.347702
0.372856
0.370818
0.368973
0.367264
0.365645
0.364086
0.362568
0.361084
0.359632
0.358215
0.356834
0.355495
0.354199
0.352949
0.351747
0.350593
0.34949
0.348449
0.373166
0.37177
0.370579
0.369371
0.368049
0.366605
0.365072
0.363493
0.361906
0.360343
0.358827
0.357373
0.355992
0.35469
0.353469
0.35233
0.351273
0.350303
0.374797
0.375829
0.376175
0.375401
0.373834
0.371876
0.369792
0.36774
0.365813
0.364066
0.362523
0.361193
0.360073
0.359153
0.35842
0.357857
0.357449
0.357181
0.382729
0.391671
0.392376
0.388806
0.384385
0.380403
0.377246
0.374995
0.373617
0.373031
0.373143
0.373853
0.375067
0.376695
0.378659
0.380891
0.383328
0.385902
0.407499
0.414513
0.405422
0.39599
0.39055
0.389283
0.391442
0.396195
0.402807
0.410687
0.419383
0.428556
0.437951
0.447381
0.456709
0.465842
0.474734
0.4833
0.360554
0.347547
0.334933
0.322917
0.311964
0.302352
0.294189
0.287468
0.282111
0.277998
0.274993
0.272956
0.271752
0.271256
0.271354
0.271945
0.272942
0.274263
0.00566445
0.0192435
0.0275296
0.0342194
0.0399446
0.0451099
0.0500959
0.0553863
0.0611592
0.0675812
0.0748163
0.0829364
0.0919301
0.101384
0.110507
0.118909
0.126222
0.132158
0.136545
0.139284
0.140084
0.138438
0.139405
0.14171
0.142272
0.142826
0.14027
0.141587
0.139841
0.141203
0.142378
0.144922
0.151933
0.159291
0.166726
0.174192
0.181678
0.18918
0.196699
0.204241
0.211814
0.219428
0.227092
0.234816
0.24261
0.250484
0.258446
0.266505
0.274667
0.282939
0.291327
0.299834
0.308465
0.317222
0.326107
0.335121
0.344263
0.353535
0.362934
0.372457
0.382104
0.39187
0.401751
0.411744
0.421843
0.432043
0.442338
0.452721
0.463188
0.473729
0.484339
0.49501
0.505733
0.516501
0.527306
0.538139
0.548991
0.559854
0.570718
0.581575
0.592414
0.603227
0.614004
0.624734
0.635408
0.646016
0.656546
0.666988
0.677331
0.687565
0.697679
0.707665
0.717517
0.727236
0.736831
0.746333
0.755762
0.764971
0.773958
0.78272
0.791249
0.799534
0.807564
0.815325
0.822806
0.829996
0.836883
0.843456
0.849704
0.855617
0.861185
0.8664
0.871251
0.875732
0.879833
0.88355
0.886874
0.889802
0.892327
0.894445
0.896154
0.897451
0.898333
0.8988
0.898853
0.898492
0.897718
0.896536
0.894948
0.892959
0.890574
0.887801
0.884646
0.881118
0.877226
0.87298
0.86839
0.863467
0.858224
0.852672
0.846825
0.840696
0.834298
0.827645
0.820749
0.813626
0.806288
0.798748
0.791019
0.783113
0.775041
0.766814
0.758443
0.749932
0.7413
0.732539
0.723679
0.714696
0.705647
0.696728
0.689798
0.686297
0.683188
0.680088
0.676951
0.673761
0.670507
0.667179
0.663767
0.660259
0.656641
0.652893
0.648988
0.644883
0.640509
0.635741
0.630299
0.623538
0.613474
0.595728
0.010162
0.0298402
0.0422328
0.0515292
0.0593425
0.066445
0.0733764
0.0803154
0.0875349
0.0953325
0.103969
0.113305
0.123258
0.13357
0.143869
0.153802
0.16308
0.171524
0.17909
0.185846
0.191992
0.198084
0.204476
0.210967
0.217884
0.225181
0.23287
0.242302
0.251796
0.262336
0.274133
0.287073
0.299549
0.311647
0.323874
0.336266
0.348796
0.361441
0.374191
0.387044
0.400006
0.413083
0.426288
0.439632
0.453127
0.466788
0.480627
0.494657
0.50889
0.523337
0.538008
0.552912
0.568057
0.58345
0.599096
0.614999
0.631164
0.647591
0.664282
0.681237
0.698454
0.71593
0.733663
0.751649
0.769881
0.788355
0.807062
0.825996
0.845148
0.864509
0.884068
0.903816
0.923742
0.943833
0.964077
0.984463
1.00498
1.0256
1.04633
1.06715
1.08803
1.10897
1.12995
1.15096
1.17198
1.19298
1.21397
1.23491
1.25579
1.27659
1.2973
1.31789
1.33834
1.35864
1.37875
1.39866
1.41809
1.43722
1.45605
1.47458
1.49279
1.51065
1.52814
1.54524
1.56192
1.57815
1.59393
1.60921
1.62398
1.63823
1.65191
1.66503
1.67755
1.68945
1.70073
1.71135
1.72131
1.73058
1.73916
1.74703
1.75418
1.7606
1.76628
1.77122
1.7754
1.77882
1.78148
1.78338
1.78452
1.78491
1.78454
1.78342
1.78157
1.77899
1.77569
1.7717
1.76701
1.76166
1.75565
1.74901
1.74176
1.73393
1.72553
1.71659
1.70713
1.69719
1.68677
1.67592
1.66465
1.65299
1.64096
1.62859
1.61589
1.60287
1.58959
1.57602
1.56222
1.54815
1.53391
1.51973
1.50593
1.49254
1.47912
1.46556
1.45186
1.438
1.42398
1.4098
1.39545
1.38094
1.36626
1.35141
1.33636
1.32112
1.30564
1.2899
1.27377
1.25729
1.23927
1.21724
0.0169692
0.0428476
0.0584089
0.0698519
0.0794498
0.0882337
0.0966412
0.104938
0.11344
0.122445
0.132144
0.142578
0.153659
0.165182
0.176875
0.188461
0.199723
0.210548
0.220938
0.230996
0.240901
0.250888
0.26109
0.271642
0.282719
0.29439
0.306755
0.319958
0.333865
0.348464
0.363669
0.379286
0.395016
0.410803
0.426721
0.442789
0.459001
0.475347
0.491825
0.508437
0.525191
0.542097
0.559169
0.576422
0.593871
0.611533
0.629422
0.647553
0.665941
0.684598
0.703537
0.722767
0.742298
0.762137
0.78229
0.802762
0.823557
0.844675
0.866119
0.887886
0.909974
0.932381
0.9551
0.978128
1.00146
1.02508
1.04898
1.07316
1.0976
1.12229
1.14722
1.17238
1.19774
1.2233
1.24904
1.27495
1.301
1.32719
1.35348
1.37988
1.40635
1.43287
1.45944
1.48602
1.51261
1.53917
1.56569
1.59214
1.61852
1.64478
1.67093
1.69692
1.72275
1.7484
1.77385
1.79894
1.82368
1.84808
1.87212
1.89577
1.91901
1.94182
1.96415
1.98598
2.00728
2.02801
2.04816
2.06768
2.08656
2.10475
2.12224
2.139
2.155
2.17021
2.18462
2.1982
2.21093
2.22278
2.23374
2.2438
2.25294
2.26114
2.26839
2.27468
2.28
2.28436
2.28773
2.29012
2.29154
2.29197
2.29144
2.28994
2.28748
2.28408
2.27974
2.2745
2.26835
2.26134
2.25347
2.24477
2.23526
2.22499
2.21397
2.20224
2.18982
2.17675
2.16306
2.14879
2.13396
2.11862
2.10278
2.08649
2.06978
2.05263
2.03516
2.01729
1.99916
1.98082
1.96232
1.94378
1.92536
1.90701
1.88856
1.86995
1.85117
1.83221
1.81309
1.7938
1.77435
1.75474
1.73497
1.71505
1.69499
1.6748
1.65448
1.63409
1.61366
1.59349
1.57339
1.55395
0.0254599
0.0576189
0.0761007
0.0894584
0.100572
0.110528
0.119846
0.129014
0.138389
0.148241
0.158742
0.169948
0.181799
0.194134
0.206738
0.21939
0.231925
0.24426
0.256412
0.268482
0.280623
0.293011
0.3058
0.319116
0.333058
0.347685
0.363024
0.379073
0.395764
0.413009
0.430706
0.44874
0.466995
0.485411
0.503978
0.522694
0.541558
0.560572
0.57974
0.599069
0.618571
0.638258
0.658145
0.67825
0.698588
0.719176
0.740032
0.761172
0.782609
0.804359
0.826435
0.848847
0.871607
0.894723
0.918201
0.942048
0.966267
0.990861
1.01583
1.04118
1.0669
1.09299
1.11944
1.14625
1.17342
1.20092
1.22876
1.25692
1.28539
1.31415
1.3432
1.37251
1.40207
1.43186
1.46186
1.49206
1.52244
1.55297
1.58363
1.61441
1.64529
1.67623
1.70722
1.73824
1.76926
1.80025
1.83121
1.86209
1.89288
1.92355
1.95409
1.98446
2.01464
2.0446
2.07432
2.10365
2.1326
2.16115
2.18929
2.21698
2.24418
2.27087
2.297
2.32254
2.34746
2.37172
2.39528
2.41811
2.44017
2.46144
2.48187
2.50144
2.52012
2.53788
2.55468
2.57051
2.58534
2.59914
2.61189
2.62357
2.63417
2.64366
2.65204
2.65928
2.66539
2.67034
2.67414
2.67679
2.67827
2.6786
2.67778
2.67581
2.67271
2.66849
2.66316
2.65674
2.64925
2.64072
2.63116
2.62062
2.60911
2.59667
2.58334
2.56914
2.55412
2.53832
2.52176
2.5045
2.48656
2.468
2.44885
2.42913
2.40893
2.38818
2.36707
2.34561
2.32383
2.30179
2.27955
2.25719
2.23481
2.21238
2.18981
2.16708
2.14417
2.12111
2.09788
2.07451
2.05101
2.02739
2.00365
1.97982
1.95593
1.93201
1.90812
1.88438
1.86097
1.83834
1.81673
1.79716
0.035318
0.0731653
0.0940735
0.109085
0.121428
0.13224
0.142307
0.152143
0.162116
0.172491
0.183438
0.195023
0.207215
0.2199
0.232924
0.246129
0.259404
0.272706
0.286069
0.299588
0.313394
0.327623
0.342395
0.357794
0.373872
0.390645
0.408099
0.426191
0.444854
0.464009
0.483573
0.50347
0.523629
0.544007
0.564578
0.585334
0.606272
0.627393
0.648703
0.670211
0.69193
0.713871
0.736052
0.758488
0.781196
0.804194
0.827499
0.851129
0.875098
0.899423
0.924118
0.949195
0.974667
1.00054
1.02683
1.05354
1.08068
1.10824
1.13623
1.16466
1.19351
1.2228
1.2525
1.28263
1.31316
1.34409
1.37541
1.4071
1.43916
1.47157
1.5043
1.53736
1.57071
1.60433
1.63821
1.67233
1.70666
1.74118
1.77586
1.81069
1.84563
1.88066
1.91576
1.9509
1.98605
2.02118
2.05628
2.0913
2.12623
2.16103
2.19568
2.23015
2.26441
2.29843
2.3321
2.36536
2.3982
2.43061
2.46253
2.49394
2.52481
2.55508
2.58472
2.61368
2.64193
2.66943
2.69612
2.72199
2.74698
2.77106
2.79419
2.81633
2.83746
2.85753
2.87652
2.89439
2.91111
2.92667
2.94103
2.95417
2.96607
2.97671
2.98608
2.99416
3.00093
3.0064
3.01054
3.01337
3.01487
3.01504
3.0139
3.01145
3.0077
3.00266
2.99635
2.98879
2.98
2.97001
2.95884
2.94652
2.93308
2.91857
2.90302
2.88647
2.86895
2.85052
2.83122
2.81109
2.79016
2.76853
2.74619
2.72316
2.69964
2.67557
2.65105
2.62611
2.60081
2.57519
2.54932
2.52328
2.49711
2.47083
2.44439
2.41778
2.39102
2.36411
2.33708
2.30994
2.2827
2.2554
2.22806
2.2007
2.17338
2.14616
2.11914
2.09251
2.06653
2.04172
2.01849
1.99765
0.0453136
0.0877586
0.111161
0.127756
0.14107
0.15266
0.163354
0.173687
0.184035
0.194671
0.205773
0.217428
0.229644
0.242364
0.255497
0.268951
0.282665
0.296627
0.310879
0.325497
0.340578
0.356216
0.372485
0.38943
0.407069
0.42539
0.444361
0.46393
0.484038
0.504617
0.525606
0.546948
0.568594
0.590509
0.612671
0.635068
0.657695
0.680553
0.703646
0.726983
0.750574
0.774433
0.798573
0.823013
0.847768
0.872856
0.898295
0.924102
0.950296
0.976891
1.0039
1.03135
1.05924
1.08759
1.11641
1.14571
1.17549
1.20576
1.23652
1.26778
1.29953
1.33177
1.3645
1.39772
1.4314
1.46556
1.50017
1.53521
1.57069
1.60657
1.64285
1.67949
1.71649
1.75382
1.79146
1.82937
1.86754
1.90595
1.94455
1.98333
2.02226
2.0613
2.10043
2.13962
2.17884
2.21805
2.25722
2.29633
2.33533
2.37421
2.41291
2.45142
2.48969
2.52768
2.56525
2.60237
2.63903
2.67519
2.71082
2.74587
2.78031
2.81407
2.84712
2.87942
2.91091
2.94155
2.97129
3.0001
3.02792
3.05471
3.08044
3.10507
3.12855
3.15084
3.17191
3.19174
3.21027
3.2275
3.24339
3.2579
3.27103
3.28275
3.29304
3.30189
3.30928
3.31519
3.31963
3.32259
3.32406
3.32405
3.32256
3.3196
3.31519
3.30932
3.30202
3.29331
3.28322
3.27177
3.25899
3.24491
3.22956
3.21299
3.19525
3.17637
3.15637
3.13534
3.11333
3.09037
3.06645
3.04178
3.01634
2.99017
2.96338
2.93598
2.90805
2.87965
2.85082
2.82162
2.79213
2.7624
2.73248
2.7024
2.67215
2.64175
2.6112
2.58054
2.54979
2.51898
2.48813
2.45728
2.42646
2.39573
2.36515
2.33482
2.30486
2.27551
2.24709
2.22012
2.19499
2.17228
0.05455
0.101083
0.126641
0.144486
0.15876
0.171087
0.182333
0.193054
0.203641
0.214378
0.225463
0.237017
0.249091
0.261686
0.274771
0.28831
0.302283
0.316697
0.331586
0.347006
0.363018
0.379677
0.397019
0.415061
0.433798
0.453206
0.473247
0.493874
0.515034
0.536676
0.558749
0.581211
0.604025
0.627163
0.650606
0.674343
0.698366
0.722676
0.747276
0.772171
0.797373
0.822893
0.848745
0.874944
0.901508
0.928454
0.9558
0.983565
1.01177
1.04042
1.06955
1.09917
1.12929
1.15993
1.19111
1.22282
1.25508
1.2879
1.32128
1.35523
1.38975
1.42483
1.46047
1.49667
1.53341
1.5707
1.60851
1.64684
1.68566
1.72497
1.76473
1.80493
1.84554
1.88654
1.92791
1.96961
2.01161
2.05389
2.09642
2.13915
2.18207
2.22513
2.26831
2.31156
2.35485
2.39815
2.44143
2.48463
2.52773
2.57069
2.61347
2.65602
2.69832
2.74025
2.78171
2.82269
2.86315
2.90306
2.94237
2.98104
3.01901
3.05624
3.09267
3.12825
3.16293
3.19667
3.22941
3.2611
3.29169
3.32115
3.34942
3.37645
3.40222
3.42667
3.44976
3.47146
3.49174
3.51057
3.5279
3.54373
3.55802
3.57075
3.58189
3.59144
3.59938
3.60569
3.61036
3.6134
3.6148
3.61456
3.61268
3.60918
3.60406
3.59734
3.58903
3.57915
3.56774
3.55481
3.54042
3.52457
3.50731
3.48868
3.46875
3.44754
3.42507
3.40143
3.37672
3.35097
3.32419
3.29652
3.26799
3.23865
3.20859
3.17785
3.1465
3.11461
3.08223
3.04944
3.01629
2.98285
2.94918
2.91531
2.88127
2.84708
2.81278
2.77838
2.74395
2.7095
2.67507
2.64073
2.6065
2.57247
2.53871
2.50535
2.47253
2.44053
2.40967
2.38046
2.35318
2.32823
0.0627239
0.112479
0.139699
0.15877
0.173974
0.187003
0.19876
0.209819
0.220587
0.231367
0.242378
0.253776
0.265657
0.278072
0.291043
0.304575
0.318678
0.333368
0.348671
0.364622
0.381253
0.398588
0.41664
0.435405
0.454867
0.474999
0.495762
0.517116
0.539019
0.561428
0.584306
0.607618
0.631336
0.655438
0.679907
0.704733
0.729908
0.755432
0.781307
0.807537
0.834132
0.861101
0.888459
0.916221
0.944402
0.973021
1.0021
1.03165
1.0617
1.09226
1.12336
1.155
1.18722
1.22003
1.25343
1.28745
1.32209
1.35737
1.39328
1.42984
1.46705
1.5049
1.5434
1.58253
1.6223
1.66268
1.70367
1.74526
1.78742
1.83013
1.87338
1.91714
1.96138
2.00607
2.05118
2.09669
2.14255
2.18874
2.23521
2.28194
2.32888
2.37599
2.42325
2.4706
2.518
2.56543
2.61283
2.66016
2.70738
2.75445
2.80131
2.84794
2.89427
2.94012
2.98548
3.0303
3.07456
3.1182
3.16117
3.20342
3.2449
3.28555
3.32531
3.36413
3.40195
3.43872
3.47438
3.50889
3.54218
3.57422
3.60494
3.63431
3.66227
3.68878
3.71381
3.7373
3.75922
3.77955
3.79825
3.81529
3.83064
3.84429
3.8562
3.86637
3.87477
3.8814
3.88623
3.88928
3.89054
3.89001
3.88768
3.88358
3.87772
3.8701
3.86075
3.84967
3.83691
3.8225
3.80647
3.78886
3.76966
3.74896
3.72685
3.70334
3.67847
3.65231
3.62495
3.59642
3.56679
3.53614
3.50453
3.47202
3.43869
3.40461
3.36984
3.33446
3.29853
3.26212
3.22531
3.18816
3.15074
3.1131
3.07527
3.03731
2.99925
2.96115
2.92304
2.88497
2.847
2.80919
2.7716
2.73431
2.69742
2.66107
2.62544
2.59079
2.55746
2.52591
2.4963
2.46891
0.0693829
0.121461
0.150206
0.170392
0.18645
0.200133
0.212371
0.223754
0.234701
0.24553
0.256484
0.267747
0.279451
0.291691
0.304524
0.317991
0.332119
0.346932
0.362449
0.378689
0.395666
0.413383
0.431839
0.45102
0.470904
0.491463
0.512666
0.534478
0.556865
0.579795
0.603238
0.627168
0.651562
0.676403
0.701678
0.727375
0.753491
0.780022
0.806971
0.834341
0.862141
0.89038
0.919071
0.948229
0.97787
1.00801
1.03868
1.06988
1.10165
1.134
1.16695
1.20053
1.23475
1.26964
1.3052
1.34145
1.37841
1.41609
1.45449
1.49362
1.53349
1.57409
1.61542
1.65748
1.70026
1.74374
1.78792
1.83278
1.87829
1.92444
1.9712
2.01854
2.06643
2.11484
2.16374
2.21309
2.26285
2.31297
2.36343
2.41418
2.46518
2.51638
2.56773
2.6192
2.67074
2.72231
2.77384
2.82531
2.87666
2.92783
2.97879
3.02949
3.07977
3.12953
3.17874
3.22737
3.27537
3.32268
3.36925
3.41502
3.45992
3.50391
3.54691
3.58887
3.62972
3.66942
3.70789
3.74509
3.78096
3.81545
3.8485
3.88006
3.91009
3.93853
3.96535
3.99049
4.01393
4.03562
4.05554
4.07366
4.08995
4.10439
4.11695
4.12762
4.13637
4.1432
4.1481
4.15106
4.15209
4.15118
4.14833
4.14357
4.13689
4.12833
4.11789
4.10558
4.09142
4.07551
4.05784
4.03846
4.0174
3.9947
3.97044
3.94467
3.91743
3.88878
3.8588
3.82755
3.79509
3.7615
3.72685
3.69121
3.65465
3.61726
3.57911
3.54026
3.50081
3.46081
3.42036
3.37953
3.33839
3.29701
3.25544
3.21374
3.17196
3.13017
3.08843
3.04678
3.00531
2.96407
2.92316
2.88265
2.84267
2.80338
2.76496
2.72767
2.69185
2.65786
2.6258
2.59586
0.0742217
0.128255
0.158244
0.179364
0.19616
0.210427
0.223112
0.234814
0.245959
0.256875
0.267821
0.279003
0.290579
0.302671
0.315366
0.328727
0.342797
0.357602
0.373163
0.389488
0.406581
0.424437
0.443045
0.462388
0.482444
0.503189
0.524596
0.546638
0.56929
0.592527
0.616327
0.640671
0.665541
0.690924
0.71681
0.743189
0.770059
0.797418
0.825266
0.853609
0.882453
0.911809
0.941688
0.972107
1.00308
1.03463
1.06677
1.09953
1.13293
1.16699
1.20173
1.23717
1.27334
1.31026
1.34794
1.3864
1.42566
1.46572
1.5066
1.54831
1.59084
1.6342
1.67838
1.72338
1.7692
1.81581
1.86321
1.91137
1.96027
2.00989
2.06019
2.11115
2.16274
2.21491
2.26763
2.32085
2.37452
2.42862
2.48308
2.53787
2.59292
2.64821
2.70366
2.75924
2.8149
2.87058
2.92623
2.98179
3.03722
3.09246
3.14745
3.20212
3.25626
3.30983
3.3628
3.41513
3.46675
3.51762
3.56765
3.6168
3.66498
3.71215
3.75823
3.80315
3.84687
3.8893
3.93041
3.97011
4.00836
4.0451
4.08028
4.11384
4.14574
4.17592
4.20433
4.23092
4.25567
4.27854
4.2995
4.31851
4.33556
4.35062
4.36366
4.37467
4.38362
4.39051
4.39533
4.39808
4.39876
4.39737
4.3939
4.38838
4.38083
4.37125
4.35967
4.34611
4.3306
4.31318
4.29389
4.27277
4.24984
4.22517
4.19882
4.17083
4.14127
4.11018
4.07765
4.04374
4.00853
3.97207
3.93446
3.89576
3.85606
3.81543
3.77396
3.73173
3.68883
3.64532
3.60131
3.55687
3.51208
3.46704
3.42179
3.37643
3.33101
3.28561
3.24029
3.19514
3.15022
3.10563
3.06145
3.01779
2.97479
2.9326
2.89143
2.85154
2.8132
2.77675
2.74219
2.70967
0.0776537
0.133097
0.164012
0.185855
0.203247
0.218008
0.231092
0.243099
0.254458
0.265501
0.276494
0.287653
0.299154
0.311135
0.323701
0.336931
0.350876
0.365573
0.38104
0.397287
0.414312
0.432108
0.450663
0.469962
0.489985
0.510713
0.532128
0.554208
0.576937
0.600297
0.624273
0.648853
0.674024
0.699777
0.726105
0.753004
0.78047
0.808503
0.837106
0.866283
0.896043
0.926395
0.957353
0.988931
1.02115
1.05402
1.08758
1.12183
1.15681
1.19254
1.22904
1.26633
1.30444
1.34339
1.3832
1.42388
1.46546
1.50794
1.55134
1.59565
1.64089
1.68706
1.73414
1.78215
1.83105
1.88085
1.93151
1.98303
2.03536
2.0885
2.14239
2.19702
2.25233
2.30828
2.36484
2.42195
2.47955
2.53761
2.59606
2.65486
2.71394
2.77326
2.83277
2.89239
2.95209
3.0118
3.07147
3.13103
3.19044
3.24963
3.30854
3.36692
3.42474
3.48195
3.53849
3.59432
3.64937
3.70357
3.75685
3.80914
3.86037
3.91046
3.95936
4.00699
4.0533
4.09821
4.14166
4.18359
4.22394
4.26266
4.29969
4.33497
4.36847
4.40011
4.42984
4.45763
4.48343
4.50721
4.52895
4.54862
4.56619
4.58164
4.59496
4.60611
4.61507
4.62184
4.62641
4.62879
4.62898
4.62698
4.62279
4.61644
4.60793
4.59729
4.58454
4.5697
4.5528
4.53388
4.51297
4.49013
4.46538
4.43878
4.41039
4.38026
4.34844
4.31501
4.28002
4.24355
4.20568
4.16647
4.12601
4.08437
4.04165
3.99791
3.95326
3.90777
3.86154
3.81465
3.7672
3.71928
3.67098
3.62239
3.5736
3.52469
3.47574
3.42684
3.37807
3.32951
3.28127
3.23342
3.18608
3.13938
3.09344
3.04844
3.00459
2.96213
2.92131
2.88242
2.84538
2.81031
0.0798476
0.136222
0.167764
0.190122
0.20796
0.22311
0.236527
0.24881
0.260383
0.271577
0.282657
0.293842
0.305314
0.317218
0.329669
0.342753
0.356532
0.371046
0.386318
0.402362
0.419177
0.436761
0.455103
0.474194
0.494019
0.514568
0.535827
0.557786
0.580435
0.603764
0.627765
0.652431
0.677758
0.70374
0.730375
0.757661
0.785599
0.81419
0.843439
0.873352
0.903939
0.935211
0.967181
0.999867
1.03329
1.06746
1.10241
1.13816
1.17473
1.21214
1.25043
1.28962
1.32972
1.37076
1.41277
1.45575
1.49972
1.5447
1.5907
1.63772
1.68576
1.73482
1.7849
1.83599
1.88807
1.94112
1.99513
2.05007
2.1059
2.1626
2.22012
2.27843
2.33749
2.39724
2.45763
2.5186
2.5801
2.64206
2.70444
2.76717
2.83018
2.89343
2.95685
3.02038
3.08396
3.14754
3.21104
3.27441
3.33759
3.40051
3.46295
3.52481
3.58604
3.64659
3.70641
3.76542
3.82356
3.88078
3.93697
3.99206
4.04596
4.09862
4.14996
4.19993
4.24844
4.29544
4.34087
4.38464
4.42672
4.46703
4.50553
4.54217
4.57691
4.60967
4.64037
4.669
4.69552
4.7199
4.74211
4.76213
4.77993
4.7955
4.80881
4.81984
4.82858
4.83503
4.83917
4.84102
4.84057
4.83783
4.8328
4.82552
4.81598
4.80421
4.79023
4.77408
4.75577
4.73535
4.71285
4.68832
4.66179
4.63333
4.60297
4.57078
4.53682
4.50114
4.46383
4.42494
4.38455
4.34275
4.2996
4.25519
4.20961
4.16294
4.11528
4.06672
4.01734
3.96725
3.91655
3.86533
3.8137
3.76176
3.7096
3.65732
3.60502
3.55279
3.50072
3.44893
3.39751
3.34656
3.29621
3.2466
3.19786
3.15018
3.10375
3.05882
3.01561
2.97434
2.9349
2.8974
0.0809786
0.137881
0.169788
0.192467
0.210601
0.226028
0.2397
0.25221
0.263977
0.275324
0.286511
0.297754
0.30923
0.321085
0.333437
0.346373
0.359962
0.374248
0.38926
0.405017
0.421526
0.438787
0.456801
0.475562
0.495067
0.515312
0.536294
0.55801
0.580458
0.603638
0.62755
0.652193
0.67757
0.703681
0.730529
0.758118
0.786451
0.815535
0.845376
0.875983
0.907369
0.939545
0.972529
1.00634
1.04099
1.07651
1.11291
1.15023
1.18848
1.22769
1.26788
1.30908
1.3513
1.39458
1.43892
1.48435
1.53088
1.57852
1.62727
1.67714
1.72813
1.78024
1.83344
1.88774
1.9431
1.99952
2.05696
2.11539
2.17477
2.23507
2.29624
2.35824
2.42102
2.48452
2.54869
2.61346
2.67875
2.7445
2.81065
2.87713
2.94389
3.01085
3.07795
3.14513
3.21232
3.27947
3.3465
3.41336
3.47998
3.54613
3.6117
3.67662
3.74084
3.8043
3.86693
3.92866
3.98943
4.04918
4.10782
4.1652
4.22128
4.276
4.32929
4.38107
4.43129
4.47988
4.52677
4.5719
4.6152
4.65663
4.69612
4.73363
4.76911
4.8025
4.83374
4.8628
4.88965
4.91425
4.93657
4.9566
4.97432
4.98969
5.00271
5.01336
5.02163
5.02752
5.03102
5.03214
5.03088
5.02725
5.02126
5.01292
5.00226
4.98929
4.97404
4.95654
4.93681
4.9149
4.89084
4.86467
4.83643
4.80618
4.77396
4.73983
4.70386
4.66609
4.62661
4.58548
4.54277
4.49856
4.45293
4.40596
4.35775
4.30838
4.25795
4.20654
4.15426
4.10122
4.0475
3.99324
3.93852
3.88346
3.82818
3.77277
3.71735
3.66202
3.60689
3.55207
3.49768
3.44384
3.39069
3.33835
3.287
3.2368
3.18796
3.14071
3.09523
3.05172
3.01004
2.97026
0.0812362
0.138337
0.170381
0.193206
0.211494
0.227082
0.240919
0.253593
0.265515
0.276999
0.288294
0.299608
0.311109
0.322938
0.335207
0.348006
0.361402
0.375444
0.390167
0.405596
0.421745
0.438624
0.456242
0.474603
0.493714
0.513581
0.534212
0.555614
0.577795
0.600762
0.624525
0.649093
0.674473
0.700677
0.727712
0.755589
0.784317
0.813905
0.844367
0.875714
0.907961
0.941124
0.975219
1.01027
1.04629
1.08331
1.12134
1.16042
1.20056
1.24178
1.2841
1.32755
1.37215
1.4179
1.46484
1.51297
1.5623
1.61283
1.66458
1.71753
1.77168
1.82701
1.88353
1.94119
1.99998
2.05987
2.12082
2.1828
2.24576
2.30966
2.37445
2.44008
2.50648
2.57361
2.64142
2.70982
2.77869
2.84797
2.91761
2.98754
3.05769
3.128
3.19839
3.26881
3.33918
3.40945
3.47954
3.5494
3.61877
3.68754
3.75566
3.82305
3.88965
3.95538
4.02018
4.08398
4.1467
4.20827
4.2686
4.3276
4.3852
4.44132
4.4959
4.54887
4.60016
4.6497
4.69744
4.74331
4.78725
4.82921
4.86913
4.90696
4.94266
4.97617
5.00745
5.03647
5.06318
5.08756
5.10958
5.12923
5.14647
5.16131
5.17371
5.18368
5.1912
5.19627
5.19889
5.19907
5.19681
5.19213
5.18503
5.17553
5.16366
5.14943
5.13286
5.114
5.09286
5.06948
5.0439
5.01616
4.98631
4.95438
4.92044
4.88453
4.84671
4.80704
4.7656
4.72244
4.67763
4.63127
4.58342
4.53417
4.4836
4.43181
4.37889
4.32495
4.27007
4.21437
4.15796
4.10095
4.04345
3.98559
3.92748
3.86925
3.811
3.75286
3.69494
3.63738
3.58031
3.52384
3.46813
3.41333
3.35959
3.30711
3.25608
3.2067
3.15916
3.11361
3.06989
3.02807
0.0808183
0.137845
0.169833
0.192646
0.210954
0.226589
0.240499
0.253265
0.265291
0.276881
0.288272
0.299658
0.311197
0.32302
0.335231
0.347915
0.361139
0.374955
0.3894
0.404507
0.420297
0.436792
0.454009
0.471963
0.490674
0.510159
0.530438
0.551533
0.573463
0.59624
0.619885
0.644416
0.669854
0.696217
0.723524
0.751791
0.781035
0.811273
0.84252
0.874796
0.908116
0.9425
0.977966
1.01454
1.05223
1.09107
1.13109
1.17231
1.21472
1.25834
1.30319
1.34928
1.39664
1.44528
1.49519
1.5464
1.59889
1.65267
1.70773
1.76405
1.82163
1.88043
1.94045
2.00164
2.06397
2.12741
2.19192
2.25744
2.32393
2.39133
2.45958
2.52864
2.59842
2.66887
2.73992
2.81149
2.88349
2.95584
3.02848
3.10133
3.17433
3.2474
3.32048
3.3935
3.46639
3.53912
3.61154
3.68343
3.75471
3.82532
3.89517
3.96421
4.03234
4.09951
4.16564
4.23064
4.29446
4.35702
4.41822
4.478
4.53627
4.59297
4.64803
4.70138
4.75296
4.8027
4.85054
4.89642
4.94029
4.98208
5.02177
5.05928
5.09458
5.12763
5.15838
5.1868
5.21285
5.23652
5.25777
5.27659
5.29296
5.30687
5.31831
5.32726
5.33373
5.33772
5.33922
5.33825
5.33481
5.32892
5.32059
5.30983
5.29667
5.28113
5.26323
5.243
5.22048
5.1957
5.16869
5.13949
5.10815
5.07471
5.03921
5.00171
4.96227
4.92093
4.87778
4.83286
4.78625
4.73803
4.68827
4.63706
4.58448
4.53062
4.47557
4.41944
4.36233
4.30435
4.24561
4.18623
4.12633
4.06604
4.00548
3.94478
3.88406
3.82347
3.76313
3.70317
3.64374
3.58498
3.52703
3.47007
3.41426
3.35978
3.30682
3.25559
3.20624
3.15892
3.11344
3.06985
0.0798826
0.136608
0.168364
0.19102
0.20922
0.224794
0.238686
0.251475
0.263555
0.275219
0.286691
0.298151
0.309744
0.321587
0.333776
0.346391
0.359494
0.373138
0.387366
0.402214
0.417714
0.433898
0.450792
0.468423
0.486821
0.506022
0.526063
0.546985
0.568837
0.591597
0.615311
0.640017
0.665751
0.692542
0.720419
0.749409
0.779538
0.810829
0.843303
0.876984
0.911891
0.948044
0.985461
1.02416
1.06416
1.10548
1.14813
1.19213
1.23747
1.28417
1.33223
1.38165
1.43244
1.48459
1.5381
1.59296
1.64916
1.70668
1.7655
1.82559
1.88693
1.94948
2.01321
2.07808
2.14404
2.21105
2.27905
2.348
2.41782
2.48846
2.55986
2.63196
2.70467
2.77794
2.85169
2.92583
3.0003
3.07501
3.14989
3.22487
3.29988
3.37485
3.44972
3.52444
3.59891
3.67294
3.74641
3.81924
3.89136
3.9627
4.03318
4.10273
4.17128
4.23875
4.30508
4.37018
4.43399
4.49643
4.55744
4.61692
4.67482
4.73107
4.7856
4.83834
4.88924
4.93823
4.98525
5.03026
5.07319
5.114
5.15264
5.18907
5.22324
5.25512
5.28467
5.31185
5.33664
5.35902
5.37897
5.39646
5.41148
5.42403
5.4341
5.44168
5.44676
5.44937
5.44948
5.44713
5.4423
5.43503
5.42532
5.4132
5.39868
5.38178
5.36253
5.34097
5.31711
5.29099
5.26264
5.23211
5.19943
5.16464
5.12778
5.08892
5.04809
5.00535
4.96076
4.91439
4.86629
4.81654
4.76522
4.7124
4.65817
4.60261
4.54583
4.48791
4.42897
4.36911
4.30845
4.24712
4.18523
4.12292
4.06032
3.99756
3.9348
3.87215
3.80977
3.74781
3.68641
3.62572
3.56591
3.50714
3.4496
3.39345
3.3389
3.28613
3.23529
3.18651
3.13959
3.09459
0.0787769
0.134989
0.166347
0.188703
0.206673
0.222081
0.23587
0.248613
0.260699
0.272407
0.28395
0.295494
0.307171
0.319089
0.331336
0.343984
0.357096
0.370725
0.384916
0.399713
0.415153
0.431289
0.448167
0.465779
0.484187
0.503448
0.523617
0.544747
0.566889
0.590081
0.614372
0.63981
0.66644
0.694307
0.723448
0.753901
0.785697
0.818866
0.853433
0.88942
0.926845
0.965725
1.00607
1.04789
1.09119
1.13598
1.18224
1.22999
1.27919
1.32986
1.38196
1.43548
1.49041
1.54672
1.60439
1.66338
1.72366
1.78521
1.84797
1.91193
1.97702
2.04321
2.11044
2.17867
2.24785
2.31791
2.38881
2.46048
2.53286
2.6059
2.67951
2.75364
2.82822
2.90318
2.97844
3.05395
3.12961
3.20537
3.28115
3.35689
3.43252
3.50801
3.58324
3.65806
3.73232
3.806
3.879
3.95126
4.02271
4.09329
4.16291
4.23151
4.29901
4.36536
4.43048
4.4943
4.55676
4.61778