/*--------------------------------*- C++ -*----------------------------------*\
  =========                 |
  \\      /  F ield         | OpenFOAM: The Open Source CFD Toolbox
   \\    /   O peration     | Website:  https://openfoam.org
    \\  /    A nd           | Version:  9
     \\/     M anipulation  |
\*---------------------------------------------------------------------------*/
FoamFile
{
    format      ascii;
    class       surfaceScalarField;
    location    "0.1";
    object      phi;
}
// * * * * * * * * * * * * * * * * * * * * * * * * * * * * * * * * * * * * * //

dimensions      [0 3 -1 0 0 0 0];

internalField   nonuniform List<scalar> 
24170
(
3.13359e-06
5.48131e-08
3.04825e-06
8.53442e-08
2.9731e-06
7.51521e-08
2.90422e-06
6.88746e-08
2.83934e-06
6.48813e-08
2.78205e-06
5.72861e-08
2.73308e-06
4.89796e-08
2.69145e-06
4.16225e-08
2.65589e-06
3.55604e-08
2.62522e-06
3.0673e-08
2.59845e-06
2.67644e-08
2.57478e-06
2.36773e-08
2.55347e-06
2.13037e-08
2.53382e-06
1.9658e-08
2.51507e-06
1.87428e-08
2.49512e-06
1.99521e-08
2.47251e-06
2.26135e-08
4.4165e-08
2.42834e-06
3.45361e-06
1.84517e-08
3.45616e-06
8.27971e-08
3.4496e-06
8.17096e-08
3.43796e-06
8.05151e-08
3.42344e-06
7.93972e-08
3.40587e-06
7.48641e-08
3.38619e-06
6.86571e-08
3.36522e-06
6.25869e-08
3.34374e-06
5.70432e-08
3.32234e-06
5.20713e-08
3.30142e-06
4.76841e-08
3.2812e-06
4.39002e-08
3.26178e-06
4.07243e-08
3.24313e-06
3.83062e-08
3.2253e-06
3.65723e-08
3.2081e-06
3.71548e-08
3.19249e-06
3.82185e-08
5.15376e-08
3.18512e-06
3.66535e-06
1.56181e-08
3.67824e-06
6.99074e-08
3.68529e-06
7.46644e-08
3.68954e-06
7.62563e-08
3.69119e-06
7.77536e-08
3.69002e-06
7.60349e-08
3.68652e-06
7.21577e-08
3.68126e-06
6.78437e-08
3.67467e-06
6.36324e-08
3.66709e-06
5.9647e-08
3.65881e-06
5.59702e-08
3.65002e-06
5.26916e-08
3.64086e-06
4.98812e-08
3.63144e-06
4.77305e-08
3.62172e-06
4.62909e-08
3.61219e-06
4.66836e-08
3.60241e-06
4.7999e-08
5.46436e-08
3.5993e-06
3.92464e-06
1.63616e-08
3.93579e-06
5.87669e-08
3.94251e-06
6.79388e-08
3.94796e-06
7.08062e-08
3.95234e-06
7.3375e-08
3.95522e-06
7.3157e-08
3.95672e-06
7.06572e-08
3.95714e-06
6.74255e-08
3.95666e-06
6.41104e-08
3.95543e-06
6.08763e-08
3.95357e-06
5.78242e-08
3.9512e-06
5.50675e-08
3.94837e-06
5.2706e-08
3.94518e-06
5.09218e-08
3.94165e-06
4.9826e-08
3.93827e-06
5.00568e-08
3.93508e-06
5.11971e-08
5.44878e-08
3.93523e-06
4.20776e-06
1.57258e-08
4.21598e-06
5.05473e-08
4.22163e-06
6.22946e-08
4.22653e-06
6.59018e-08
4.23119e-06
6.87117e-08
4.23511e-06
6.9245e-08
4.23815e-06
6.76166e-08
4.24045e-06
6.51224e-08
4.24212e-06
6.24366e-08
4.24325e-06
5.9749e-08
4.24391e-06
5.71685e-08
4.24416e-06
5.48169e-08
4.24406e-06
5.28055e-08
4.24369e-06
5.12884e-08
4.24314e-06
5.03739e-08
4.24282e-06
5.03814e-08
4.24296e-06
5.10597e-08
5.25048e-08
4.24494e-06
4.51044e-06
1.43778e-08
4.51684e-06
4.41379e-08
4.52213e-06
5.70044e-08
4.52676e-06
6.12716e-08
4.53134e-06
6.41362e-08
4.53548e-06
6.51009e-08
4.53901e-06
6.40897e-08
4.54199e-06
6.2147e-08
4.54449e-06
5.99336e-08
4.54658e-06
5.76627e-08
4.5483e-06
5.54491e-08
4.5497e-06
5.34142e-08
4.55084e-06
5.16674e-08
4.5518e-06
5.03285e-08
4.5527e-06
4.94752e-08
4.55384e-06
4.92351e-08
4.5555e-06
4.93991e-08
4.97004e-08
4.55831e-06
4.83412e-06
1.29818e-08
4.83956e-06
3.86925e-08
4.84479e-06
5.17747e-08
4.84935e-06
5.6712e-08
4.85382e-06
5.96657e-08
4.858e-06
6.09207e-08
4.86171e-06
6.03833e-08
4.86497e-06
5.88824e-08
4.86786e-06
5.7046e-08
4.87041e-06
5.51092e-08
4.87267e-06
5.31915e-08
4.87468e-06
5.14084e-08
4.87648e-06
4.98592e-08
4.87818e-06
4.86311e-08
4.87989e-06
4.77658e-08
4.88184e-06
4.72823e-08
4.88426e-06
4.69875e-08
4.65627e-08
4.88739e-06
5.1809e-06
1.1667e-08
5.18569e-06
3.39019e-08
5.1908e-06
4.66632e-08
5.19535e-06
5.21646e-08
5.19977e-06
5.52425e-08
5.20398e-06
5.67103e-08
5.2078e-06
5.65594e-08
5.21125e-06
5.54378e-08
5.21437e-06
5.39238e-08
5.21721e-06
5.22696e-08
5.2198e-06
5.05995e-08
5.22219e-06
4.90204e-08
5.22443e-06
4.76185e-08
5.22661e-06
4.64537e-08
5.22883e-06
4.55382e-08
5.23128e-06
4.48364e-08
5.23409e-06
4.41769e-08
4.32946e-08
5.23736e-06
5.5526e-06
1.04089e-08
5.55683e-06
2.96666e-08
5.56172e-06
4.1769e-08
5.56626e-06
4.76295e-08
5.57068e-06
5.08267e-08
5.57493e-06
5.24525e-08
5.57887e-06
5.26223e-08
5.58247e-06
5.18376e-08
5.58578e-06
5.06123e-08
5.58884e-06
4.92074e-08
5.59169e-06
4.77515e-08
5.59437e-06
4.63424e-08
5.59694e-06
4.5053e-08
5.59947e-06
4.39229e-08
5.60206e-06
4.29457e-08
5.60483e-06
4.20651e-08
5.60787e-06
4.11395e-08
3.99793e-08
5.61118e-06
5.95098e-06
9.2041e-09
5.95474e-06
2.59091e-08
5.95937e-06
3.71368e-08
5.96387e-06
4.3127e-08
5.96829e-06
4.641e-08
5.97259e-06
4.81475e-08
5.97664e-06
4.85754e-08
5.98039e-06
4.80867e-08
5.98388e-06
4.71225e-08
5.98715e-06
4.59417e-08
5.99022e-06
4.46754e-08
5.99315e-06
4.34124e-08
5.99599e-06
4.22141e-08
5.99881e-06
4.11068e-08
6.00168e-06
4.00756e-08
6.00468e-06
3.90635e-08
6.00786e-06
3.7962e-08
3.66497e-08
6.01119e-06
6.37795e-06
8.06606e-09
6.38131e-06
2.25517e-08
6.38567e-06
3.27749e-08
6.39011e-06
3.86814e-08
6.39453e-06
4.19973e-08
6.39887e-06
4.38042e-08
6.40302e-06
4.44274e-08
6.40692e-06
4.4189e-08
6.41058e-06
4.34573e-08
6.41405e-06
4.24778e-08
6.41734e-06
4.13809e-08
6.42051e-06
4.02475e-08
6.42359e-06
3.91293e-08
6.42665e-06
3.80455e-08
6.42975e-06
3.69803e-08
6.43292e-06
3.58866e-08
6.4362e-06
3.46871e-08
3.33133e-08
6.43953e-06
5.74174e-06
7.15562e-09
5.74432e-06
1.99789e-08
5.7478e-06
2.92943e-08
5.7515e-06
3.49816e-08
5.75522e-06
3.82738e-08
5.75892e-06
4.01101e-08
5.76249e-06
4.08516e-08
5.76589e-06
4.07857e-08
5.76913e-06
4.02268e-08
5.7722e-06
3.94005e-08
5.77515e-06
3.84331e-08
5.778e-06
3.74e-08
5.78078e-06
3.63468e-08
5.78354e-06
3.52899e-08
5.7863e-06
3.42165e-08
5.78909e-06
3.30911e-08
5.79192e-06
3.18586e-08
3.04851e-08
5.79475e-06
6.99913e-06
6.18272e-09
7.00185e-06
1.72581e-08
7.00562e-06
2.55278e-08
7.00975e-06
3.08433e-08
7.014e-06
3.40291e-08
7.01826e-06
3.58523e-08
7.02243e-06
3.66812e-08
7.02644e-06
3.67706e-08
7.03029e-06
3.638e-08
7.03398e-06
3.57088e-08
7.03754e-06
3.48756e-08
7.04099e-06
3.39499e-08
7.04436e-06
3.29721e-08
7.04769e-06
3.19579e-08
7.05101e-06
3.09004e-08
7.05432e-06
2.97775e-08
7.05763e-06
2.85555e-08
2.72272e-08
7.06089e-06
8.53187e-06
5.15637e-09
8.53472e-06
1.44149e-08
8.53874e-06
2.15015e-08
8.54331e-06
2.62713e-08
8.54811e-06
2.92381e-08
8.55297e-06
3.09844e-08
8.5578e-06
3.18518e-08
8.56251e-06
3.2063e-08
8.56707e-06
3.18247e-08
8.57147e-06
3.13037e-08
8.57574e-06
3.06069e-08
8.57989e-06
2.97969e-08
8.58395e-06
2.89102e-08
8.58795e-06
2.79634e-08
8.59189e-06
2.69568e-08
8.59579e-06
2.58812e-08
8.59962e-06
2.47207e-08
2.34864e-08
8.60336e-06
1.04003e-05
4.08674e-09
1.04032e-05
1.14658e-08
1.04075e-05
1.72318e-08
1.04125e-05
2.12688e-08
1.04179e-05
2.38752e-08
1.04234e-05
2.5456e-08
1.0429e-05
2.62944e-08
1.04344e-05
2.6577e-08
1.04398e-05
2.64616e-08
1.0445e-05
2.6079e-08
1.04501e-05
2.55187e-08
1.04551e-05
2.48356e-08
1.04599e-05
2.40623e-08
1.04647e-05
2.32165e-08
1.04693e-05
2.23051e-08
1.04739e-05
2.13293e-08
1.04783e-05
2.02857e-08
1.91958e-08
1.04826e-05
1.26779e-05
2.97876e-09
1.2681e-05
8.40049e-09
1.26855e-05
1.2707e-08
1.26909e-05
1.582e-08
1.26969e-05
1.79002e-08
1.27032e-05
1.92005e-08
1.27095e-05
1.99246e-08
1.27159e-05
2.02139e-08
1.27222e-05
2.01808e-08
1.27283e-05
1.99185e-08
1.27344e-05
1.94947e-08
1.27402e-05
1.89535e-08
1.2746e-05
1.83226e-08
1.27516e-05
1.76195e-08
1.2757e-05
1.68545e-08
1.27623e-05
1.60353e-08
1.27674e-05
1.51653e-08
1.427e-08
1.27724e-05
1.54543e-05
1.82029e-09
1.54576e-05
5.16507e-09
1.54624e-05
7.85535e-09
1.54684e-05
9.84856e-09
1.54751e-05
1.12217e-08
1.54822e-05
1.2106e-08
1.54895e-05
1.26178e-08
1.54968e-05
1.28421e-08
1.55042e-05
1.2846e-08
1.55114e-05
1.26848e-08
1.55185e-05
1.24005e-08
1.55254e-05
1.20223e-08
1.55322e-05
1.15698e-08
1.55388e-05
1.1057e-08
1.55451e-05
1.0494e-08
1.55513e-05
9.88992e-09
1.55572e-05
9.25031e-09
8.59942e-09
1.55628e-05
1.88389e-05
5.6842e-10
1.88424e-05
1.62462e-09
1.88478e-05
2.48464e-09
1.88545e-05
3.14128e-09
1.88621e-05
3.61848e-09
1.88703e-05
3.94683e-09
1.88787e-05
4.14933e-09
1.88873e-05
4.24467e-09
1.88959e-05
4.25061e-09
1.89044e-05
4.18265e-09
1.89128e-05
4.05279e-09
1.89209e-05
3.87014e-09
1.89289e-05
3.64205e-09
1.89365e-05
3.37483e-09
1.8944e-05
3.07426e-09
1.89511e-05
2.74645e-09
1.8958e-05
2.3955e-09
2.04094e-09
1.89645e-05
2.29648e-05
-8.85921e-10
2.29689e-05
-2.52715e-09
2.29753e-05
-3.84936e-09
2.29832e-05
-4.80708e-09
2.29923e-05
-5.4154e-09
2.3002e-05
-5.76011e-09
2.3012e-05
-5.93418e-09
2.30223e-05
-5.99632e-09
2.30325e-05
-5.98365e-09
2.30426e-05
-5.92792e-09
2.30525e-05
-5.855e-09
2.30622e-05
-5.78162e-09
2.30716e-05
-5.71717e-09
2.30806e-05
-5.66673e-09
2.30893e-05
-5.63263e-09
2.30977e-05
-5.61473e-09
2.31057e-05
-5.61291e-09
-5.61441e-09
2.31133e-05
1.68119e-05
-2.03876e-09
1.68151e-05
-5.78248e-09
1.68201e-05
-8.81056e-09
1.68262e-05
-1.09766e-08
1.68332e-05
-1.2328e-08
1.68405e-05
-1.30982e-08
1.68481e-05
-1.34909e-08
1.68557e-05
-1.36142e-08
1.68632e-05
-1.35435e-08
1.68707e-05
-1.33496e-08
1.68779e-05
-1.30878e-08
1.68849e-05
-1.27928e-08
1.68917e-05
-1.24856e-08
1.68982e-05
-1.21796e-08
1.69044e-05
-1.18831e-08
1.69104e-05
-1.16002e-08
1.69161e-05
-1.1333e-08
-1.10732e-08
1.69216e-05
1.46357e-05
-3.15519e-09
1.46389e-05
-8.96312e-09
1.46437e-05
-1.36687e-08
1.46497e-05
-1.69047e-08
1.46561e-05
-1.88162e-08
1.46629e-05
-1.98773e-08
1.46698e-05
-2.039e-08
1.46767e-05
-2.04885e-08
1.46834e-05
-2.02929e-08
1.469e-05
-1.99197e-08
1.46964e-05
-1.94483e-08
1.47025e-05
-1.89243e-08
1.47084e-05
-1.83769e-08
1.4714e-05
-1.78262e-08
1.47194e-05
-1.72851e-08
1.47246e-05
-1.67601e-08
1.47295e-05
-1.62552e-08
-1.57645e-08
1.47342e-05
1.27412e-05
-4.21071e-09
1.27444e-05
-1.21942e-08
1.27494e-05
-1.8659e-08
1.27552e-05
-2.27428e-08
1.27614e-05
-2.49846e-08
1.27678e-05
-2.6229e-08
1.27742e-05
-2.67798e-08
1.27804e-05
-2.67639e-08
1.27865e-05
-2.63731e-08
1.27924e-05
-2.57788e-08
1.2798e-05
-2.50763e-08
1.28034e-05
-2.43153e-08
1.28085e-05
-2.35301e-08
1.28135e-05
-2.27456e-08
1.28182e-05
-2.19767e-08
1.28226e-05
-2.12309e-08
1.28269e-05
-2.0512e-08
-1.98157e-08
1.28309e-05
1.10918e-05
-5.09462e-09
1.10952e-05
-1.55351e-08
1.11005e-05
-2.39843e-08
1.11063e-05
-2.85643e-08
1.11122e-05
-3.08751e-08
1.11182e-05
-3.22061e-08
1.11241e-05
-3.27049e-08
1.11298e-05
-3.24909e-08
1.11353e-05
-3.18558e-08
1.11405e-05
-3.10162e-08
1.11455e-05
-3.00693e-08
1.11503e-05
-2.90666e-08
1.11548e-05
-2.80477e-08
1.11591e-05
-2.70402e-08
1.11632e-05
-2.60592e-08
1.11671e-05
-2.51112e-08
1.11707e-05
-2.41995e-08
-2.33201e-08
1.11743e-05
9.65583e-06
-5.7146e-09
9.65938e-06
-1.90762e-08
9.665e-06
-2.9612e-08
9.67072e-06
-3.4283e-08
9.6764e-06
-3.65578e-08
9.68209e-06
-3.78929e-08
9.68758e-06
-3.81973e-08
9.69278e-06
-3.76905e-08
9.69771e-06
-3.67801e-08
9.70238e-06
-3.56886e-08
9.70681e-06
-3.44959e-08
9.71099e-06
-3.32535e-08
9.71495e-06
-3.20064e-08
9.7187e-06
-3.07838e-08
9.72224e-06
-2.95999e-08
9.72559e-06
-2.84606e-08
9.72875e-06
-2.73671e-08
-2.63143e-08
9.73175e-06
8.40544e-06
-5.79995e-09
8.40983e-06
-2.34656e-08
8.41535e-06
-3.51383e-08
8.42057e-06
-3.95041e-08
8.42604e-06
-4.20257e-08
8.43156e-06
-4.34083e-08
8.43676e-06
-4.33976e-08
8.44157e-06
-4.25055e-08
8.44606e-06
-4.1268e-08
8.45026e-06
-3.98853e-08
8.45418e-06
-3.84146e-08
8.45783e-06
-3.69082e-08
8.46124e-06
-3.54139e-08
8.46442e-06
-3.39606e-08
8.46738e-06
-3.25621e-08
8.47014e-06
-3.12242e-08
8.47272e-06
-2.99474e-08
-2.87279e-08
8.47514e-06
7.31506e-06
-3.57791e-09
7.32196e-06
-3.0363e-08
7.32743e-06
-4.06076e-08
7.33222e-06
-4.42982e-08
7.33757e-06
-4.73698e-08
7.34298e-06
-4.88198e-08
7.34798e-06
-4.84016e-08
7.35251e-06
-4.70333e-08
7.3566e-06
-4.53621e-08
7.36029e-06
-4.35666e-08
7.36358e-06
-4.17057e-08
7.36651e-06
-3.98429e-08
7.36913e-06
-3.80276e-08
7.37145e-06
-3.6286e-08
7.37352e-06
-3.46298e-08
7.37536e-06
-3.30633e-08
7.37699e-06
-3.15838e-08
-3.01847e-08
7.37845e-06
6.36222e-06
4.26317e-09
6.37296e-06
-4.10984e-08
6.3801e-06
-4.77502e-08
6.3863e-06
-5.04993e-08
6.3923e-06
-5.3365e-08
6.39762e-06
-5.41373e-08
6.40201e-06
-5.27943e-08
6.40562e-06
-5.06476e-08
6.40857e-06
-4.83112e-08
6.4109e-06
-4.58975e-08
6.41267e-06
-4.3474e-08
6.41395e-06
-4.11187e-08
6.4148e-06
-3.88799e-08
6.41529e-06
-3.67774e-08
6.41548e-06
-3.48176e-08
6.41542e-06
-3.30018e-08
6.41516e-06
-3.13216e-08
-2.97564e-08
6.41473e-06
5.53608e-06
1.36452e-08
5.54776e-06
-5.27804e-08
5.55746e-06
-5.74496e-08
5.56605e-06
-5.90849e-08
5.57284e-06
-6.01527e-08
5.57728e-06
-5.8582e-08
5.57946e-06
-5.49682e-08
5.57992e-06
-5.11125e-08
5.5791e-06
-4.74895e-08
5.57727e-06
-4.4071e-08
5.57466e-06
-4.08643e-08
5.57145e-06
-3.79071e-08
5.56778e-06
-3.5213e-08
5.56378e-06
-3.27736e-08
5.55954e-06
-3.05745e-08
5.55515e-06
-2.86126e-08
5.55071e-06
-2.68789e-08
-2.5312e-08
5.54626e-06
4.85751e-06
-1.62556e-08
4.86091e-06
-5.61862e-08
4.86152e-06
-5.80508e-08
4.85886e-06
-5.64298e-08
4.85487e-06
-5.61608e-08
4.84819e-06
-5.19066e-08
4.83896e-06
-4.57383e-08
4.82774e-06
-3.98885e-08
4.81516e-06
-3.49109e-08
4.80182e-06
-3.07281e-08
4.78816e-06
-2.72042e-08
4.77449e-06
-2.42362e-08
4.76101e-06
-2.17331e-08
4.74785e-06
-1.96157e-08
4.7351e-06
-1.78212e-08
4.72282e-06
-1.63396e-08
4.71114e-06
-1.51974e-08
-1.48878e-08
4.70072e-06
4.18642e-06
4.13023e-06
4.07218e-06
4.01575e-06
3.95959e-06
3.90769e-06
3.86195e-06
3.82206e-06
3.78715e-06
3.75642e-06
3.72922e-06
3.70498e-06
3.68325e-06
3.66363e-06
3.64581e-06
3.62947e-06
3.61427e-06
3.59939e-06
1.12105e-08
-1.12105e-08
2.96273e-08
-1.84168e-08
4.86317e-08
-1.90043e-08
6.50171e-08
-1.63854e-08
7.69341e-08
-1.1917e-08
8.33922e-08
-6.45805e-09
8.39609e-08
-5.68757e-10
7.86875e-08
5.27344e-09
6.80672e-08
1.06203e-08
5.28685e-08
1.51987e-08
3.39951e-08
1.88734e-08
1.23468e-08
2.16482e-08
-1.12876e-08
2.36344e-08
-3.63467e-08
2.50591e-08
-6.25179e-08
2.61712e-08
-8.96992e-08
2.71813e-08
-1.17949e-07
2.82496e-08
-1.47406e-07
2.94571e-08
-1.78208e-07
3.08025e-08
-2.10681e-07
3.24724e-08
-2.45973e-07
3.52925e-08
-2.83194e-07
3.72208e-08
-3.20752e-07
3.75581e-08
-3.60658e-07
3.99059e-08
-4.02889e-07
4.22308e-08
-4.46773e-07
4.38845e-08
-4.95218e-07
4.84446e-08
-5.45536e-07
5.03177e-08
-5.9567e-07
5.01339e-08
-6.48864e-07
5.31942e-08
-7.03437e-07
5.45737e-08
-7.53988e-07
5.05502e-08
-8.01613e-07
4.76253e-08
-8.5022e-07
4.86075e-08
-8.98686e-07
4.84659e-08
-9.46585e-07
4.78984e-08
-9.93685e-07
4.71001e-08
-1.03988e-06
4.6192e-08
-1.08513e-06
4.52533e-08
-1.12946e-06
4.43329e-08
-1.17292e-06
4.34605e-08
-1.21558e-06
4.26525e-08
-1.25749e-06
4.19172e-08
-1.29875e-06
4.12566e-08
-1.33942e-06
4.06689e-08
-1.37957e-06
4.01496e-08
-1.41926e-06
3.96925e-08
-1.45855e-06
3.92904e-08
-1.49749e-06
3.89355e-08
-1.53611e-06
3.862e-08
-1.57444e-06
3.83359e-08
-1.61252e-06
3.80755e-08
-1.65035e-06
3.78316e-08
-1.68795e-06
3.75972e-08
-1.72531e-06
3.73659e-08
-1.76244e-06
3.71318e-08
-1.79933e-06
3.68895e-08
-1.83597e-06
3.66339e-08
-1.87233e-06
3.63608e-08
-1.90839e-06
3.60661e-08
-1.94414e-06
3.57463e-08
-1.97954e-06
3.53983e-08
-2.01456e-06
3.50197e-08
-2.04917e-06
3.46079e-08
-2.08333e-06
3.41611e-08
-2.11701e-06
3.36778e-08
-2.15016e-06
3.31566e-08
-2.18276e-06
3.25965e-08
-2.21476e-06
3.19968e-08
-2.24611e-06
3.13569e-08
-2.27679e-06
3.06765e-08
-2.30674e-06
2.99553e-08
-2.33594e-06
2.91934e-08
-2.36433e-06
2.83909e-08
-2.39188e-06
2.75479e-08
-2.41854e-06
2.66649e-08
-2.44428e-06
2.57421e-08
-2.46906e-06
2.478e-08
-2.49284e-06
2.37788e-08
-2.51558e-06
2.27391e-08
-2.53724e-06
2.16611e-08
-2.55779e-06
2.05449e-08
-2.57718e-06
1.93905e-08
-2.59538e-06
1.81978e-08
-2.61234e-06
1.6966e-08
-2.62804e-06
1.56943e-08
-2.64242e-06
1.4381e-08
-2.65544e-06
1.30239e-08
-2.66706e-06
1.16197e-08
-2.67722e-06
1.01642e-08
-2.68587e-06
8.64975e-09
-2.69294e-06
7.06683e-09
-2.69834e-06
5.4006e-09
-2.70199e-06
3.64347e-09
-2.7038e-06
1.81177e-09
-2.70363e-06
-1.68137e-10
-2.70187e-06
-1.76069e-09
-2.69856e-06
-3.30553e-09
-2.69374e-06
-4.8205e-09
-2.68741e-06
-6.3296e-09
-2.67957e-06
-7.84584e-09
-2.6702e-06
-9.37188e-09
-2.65929e-06
-1.09074e-08
-2.64684e-06
-1.24508e-08
-2.63284e-06
-1.40002e-08
-2.61728e-06
-1.55535e-08
-2.60018e-06
-1.71083e-08
-2.58151e-06
-1.86624e-08
-2.5613e-06
-2.02135e-08
-2.53954e-06
-2.17593e-08
-2.51624e-06
-2.32975e-08
-2.49142e-06
-2.48259e-08
-2.46507e-06
-2.6342e-08
-2.43723e-06
-2.78438e-08
-2.4079e-06
-2.93288e-08
-2.37711e-06
-3.07949e-08
-2.34487e-06
-3.22401e-08
-2.3112e-06
-3.36622e-08
-2.27615e-06
-3.50592e-08
-2.23972e-06
-3.64293e-08
-2.20195e-06
-3.77708e-08
-2.16286e-06
-3.90819e-08
-2.1225e-06
-4.0361e-08
-2.0809e-06
-4.16067e-08
-2.03808e-06
-4.28177e-08
-1.99409e-06
-4.39928e-08
-1.94895e-06
-4.51312e-08
-1.90272e-06
-4.6232e-08
-1.85543e-06
-4.7295e-08
-1.80711e-06
-4.83198e-08
-1.7578e-06
-4.93063e-08
-1.70755e-06
-5.02546e-08
-1.65638e-06
-5.11653e-08
-1.60434e-06
-5.20389e-08
-1.55147e-06
-5.28765e-08
-1.49779e-06
-5.36793e-08
-1.44334e-06
-5.44489e-08
-1.38815e-06
-5.51868e-08
-1.33226e-06
-5.58949e-08
-1.27568e-06
-5.65756e-08
-1.21845e-06
-5.7231e-08
-1.16059e-06
-5.78638e-08
-1.10211e-06
-5.84765e-08
-1.04304e-06
-5.90716e-08
-9.83386e-07
-5.9652e-08
-9.23165e-07
-6.02203e-08
-8.62386e-07
-6.0779e-08
-8.01056e-07
-6.13304e-08
-7.39179e-07
-6.18765e-08
-6.7676e-07
-6.24191e-08
-6.13801e-07
-6.29595e-08
-5.50302e-07
-6.34982e-08
-4.86267e-07
-6.40355e-08
-4.21697e-07
-6.45699e-08
-3.56597e-07
-6.51e-08
-2.90974e-07
-6.56228e-08
-2.24842e-07
-6.61324e-08
-1.58214e-07
-6.66279e-08
-9.11064e-08
-6.71077e-08
-2.35603e-08
-6.75461e-08
4.44003e-08
-6.79606e-08
1.12789e-07
-6.83887e-08
1.81601e-07
-6.88116e-08
2.50824e-07
-6.92233e-08
3.20428e-07
-6.9604e-08
3.90362e-07
-6.99338e-08
4.60555e-07
-7.01937e-08
5.3092e-07
-7.03645e-08
6.01344e-07
-7.04247e-08
6.71693e-07
-7.03488e-08
7.41797e-07
-7.01039e-08
8.11443e-07
-6.96456e-08
8.80351e-07
-6.89082e-08
9.48139e-07
-6.77878e-08
1.01423e-06
-6.60919e-08
1.0777e-06
-6.34687e-08
1.13662e-06
-5.89166e-08
1.18703e-06
-5.04102e-08
1.21606e-06
-2.90342e-08
2.71566e-08
1.1889e-06
1.91397e-08
-3.03502e-08
3.57711e-08
-3.50482e-08
4.6193e-08
-2.94262e-08
5.11911e-08
-2.13835e-08
5.15926e-08
-1.23186e-08
4.79454e-08
-2.81083e-09
4.06301e-08
6.74654e-09
2.98747e-08
1.60289e-08
1.57523e-08
2.47427e-08
-1.68064e-09
3.26316e-08
-2.23327e-08
3.95255e-08
-4.60614e-08
4.5377e-08
-7.27184e-08
5.02914e-08
-1.02153e-07
5.44942e-08
-1.34259e-07
5.82768e-08
-1.69003e-07
6.19252e-08
-2.06421e-07
6.56675e-08
-2.46599e-07
6.96359e-08
-2.89662e-07
7.38654e-08
-3.35581e-07
7.83905e-08
-3.83553e-07
8.32647e-08
-4.34218e-07
8.78861e-08
-4.88227e-07
9.15668e-08
-5.43368e-07
9.50467e-08
-5.99477e-07
9.83407e-08
-6.56618e-07
1.01025e-07
-7.11695e-07
1.03521e-07
-7.66297e-07
1.04919e-07
-8.20934e-07
1.04771e-07
-8.72387e-07
1.04647e-07
-9.21425e-07
1.03612e-07
-9.71788e-07
1.00914e-07
-1.02202e-06
9.78572e-08
-1.06901e-06
9.5597e-08
-1.11397e-06
9.34292e-08
-1.15735e-06
9.12802e-08
-1.19945e-06
8.91913e-08
-1.24045e-06
8.71967e-08
-1.28052e-06
8.53233e-08
-1.31978e-06
8.35886e-08
-1.35832e-06
8.20013e-08
-1.39623e-06
8.05625e-08
-1.43358e-06
7.92676e-08
-1.47043e-06
7.8108e-08
-1.50683e-06
7.7072e-08
-1.54283e-06
7.61462e-08
-1.57845e-06
7.53162e-08
-1.61373e-06
7.45672e-08
-1.64868e-06
7.38847e-08
-1.68331e-06
7.32542e-08
-1.71764e-06
7.26623e-08
-1.75166e-06
7.20959e-08
-1.78537e-06
7.1543e-08
-1.81877e-06
7.09925e-08
-1.85183e-06
7.04341e-08
-1.88456e-06
6.98586e-08
-1.91693e-06
6.92574e-08
-1.94892e-06
6.86231e-08
-1.98051e-06
6.7949e-08
-2.01167e-06
6.7229e-08
-2.04238e-06
6.64581e-08
-2.07261e-06
6.56317e-08
-2.10234e-06
6.47461e-08
-2.13153e-06
6.37978e-08
-2.16015e-06
6.27843e-08
-2.18818e-06
6.17034e-08
-2.21558e-06
6.05533e-08
-2.24231e-06
5.93327e-08
-2.26836e-06
5.80406e-08
-2.29368e-06
5.66764e-08
-2.31824e-06
5.52399e-08
-2.34201e-06
5.37308e-08
-2.36497e-06
5.21494e-08
-2.38708e-06
5.0496e-08
-2.4083e-06
4.87711e-08
-2.42861e-06
4.69752e-08
-2.44798e-06
4.51091e-08
-2.46637e-06
4.31734e-08
-2.48376e-06
4.1169e-08
-2.50012e-06
3.90965e-08
-2.51541e-06
3.69567e-08
-2.52962e-06
3.475e-08
-2.5427e-06
3.24769e-08
-2.55464e-06
3.01376e-08
-2.56541e-06
2.77322e-08
-2.57498e-06
2.52607e-08
-2.58332e-06
2.27227e-08
-2.59041e-06
2.01179e-08
-2.59624e-06
1.7446e-08
-2.60078e-06
1.47071e-08
-2.60403e-06
1.1902e-08
-2.606e-06
9.0336e-09
-2.60671e-06
6.10899e-09
-2.60621e-06
3.14014e-09
-2.60462e-06
2.26343e-10
-2.60199e-06
-2.79342e-09
-2.59807e-06
-5.6849e-09
-2.59276e-06
-8.6108e-09
-2.58602e-06
-1.15677e-08
-2.5778e-06
-1.45511e-08
-2.56808e-06
-1.75603e-08
-2.55686e-06
-2.05927e-08
-2.54412e-06
-2.3645e-08
-2.52986e-06
-2.67133e-08
-2.51407e-06
-2.97932e-08
-2.49674e-06
-3.28805e-08
-2.47788e-06
-3.59705e-08
-2.45748e-06
-3.90588e-08
-2.43555e-06
-4.21408e-08
-2.4121e-06
-4.5212e-08
-2.38713e-06
-4.82676e-08
-2.36065e-06
-5.13033e-08
-2.33268e-06
-5.43144e-08
-2.30323e-06
-5.72964e-08
-2.27231e-06
-6.02447e-08
-2.23995e-06
-6.31551e-08
-2.20617e-06
-6.60232e-08
-2.17099e-06
-6.88449e-08
-2.13443e-06
-7.16163e-08
-2.09653e-06
-7.43336e-08
-2.0573e-06
-7.69933e-08
-2.01679e-06
-7.9592e-08
-1.97503e-06
-8.21265e-08
-1.93204e-06
-8.45938e-08
-1.88787e-06
-8.69915e-08
-1.84254e-06
-8.9317e-08
-1.79611e-06
-9.15686e-08
-1.74859e-06
-9.3745e-08
-1.70004e-06
-9.58451e-08
-1.65049e-06
-9.78683e-08
-1.59999e-06
-9.98147e-08
-1.54856e-06
-1.01684e-07
-1.49624e-06
-1.03478e-07
-1.44308e-06
-1.05197e-07
-1.38912e-06
-1.06844e-07
-1.33438e-06
-1.08421e-07
-1.27889e-06
-1.09931e-07
-1.2227e-06
-1.11377e-07
-1.16583e-06
-1.12764e-07
-1.10831e-06
-1.14096e-07
-1.05017e-06
-1.15377e-07
-9.91419e-07
-1.16612e-07
-9.32088e-07
-1.17808e-07
-8.72191e-07
-1.18969e-07
-8.11742e-07
-1.20101e-07
-7.50753e-07
-1.21209e-07
-6.89232e-07
-1.223e-07
-6.27186e-07
-1.23377e-07
-5.64618e-07
-1.24445e-07
-5.01529e-07
-1.25508e-07
-4.37919e-07
-1.26569e-07
-3.73788e-07
-1.2763e-07
-3.09133e-07
-1.28691e-07
-2.43951e-07
-1.29751e-07
-1.78243e-07
-1.30808e-07
-1.12008e-07
-1.31858e-07
-4.52471e-08
-1.32893e-07
2.20356e-08
-1.33911e-07
8.98372e-08
-1.34909e-07
1.58176e-07
-1.35885e-07
2.27059e-07
-1.36843e-07
2.96461e-07
-1.37791e-07
3.66372e-07
-1.38723e-07
4.3677e-07
-1.39621e-07
5.07619e-07
-1.40452e-07
5.78868e-07
-1.41183e-07
6.50451e-07
-1.41777e-07
7.22284e-07
-1.42197e-07
7.94259e-07
-1.42401e-07
8.66246e-07
-1.42335e-07
9.38078e-07
-1.41935e-07
1.00954e-06
-1.41112e-07
1.08037e-06
-1.39733e-07
1.15017e-06
-1.37593e-07
1.21841e-06
-1.34328e-07
1.28421e-06
-1.29273e-07
1.34613e-06
-1.2083e-07
1.40173e-06
-1.06014e-07
1.44769e-06
-7.49903e-08
-7.46909e-09
1.48231e-06
1.50852e-08
-4.54353e-08
2.25424e-08
-4.25055e-08
2.39155e-08
-3.07994e-08
2.0775e-08
-1.8243e-08
1.40433e-08
-5.58693e-09
4.26408e-09
6.96842e-09
-8.25406e-09
1.92647e-08
-2.3369e-08
3.11438e-08
-4.10627e-08
4.24364e-08
-6.14086e-08
5.29776e-08
-8.45326e-08
6.26495e-08
-1.10577e-07
7.14213e-08
-1.39654e-07
7.93686e-08
-1.71823e-07
8.66631e-08
-2.07078e-07
9.35314e-08
-2.45351e-07
1.00198e-07
-2.86513e-07
1.0683e-07
-3.30372e-07
1.13495e-07
-3.76654e-07
1.20148e-07
-4.24922e-07
1.26658e-07
-4.74478e-07
1.3282e-07
-5.24914e-07
1.38322e-07
-5.76175e-07
1.42828e-07
-6.27499e-07
1.4637e-07
-6.78147e-07
1.48989e-07
-7.27735e-07
1.50614e-07
-7.75488e-07
1.51274e-07
-8.21494e-07
1.50925e-07
-8.66301e-07
1.49578e-07
-9.09211e-07
1.47557e-07
-9.50479e-07
1.44879e-07
-9.91172e-07
1.41606e-07
-1.03142e-06
1.38102e-07
-1.07053e-06
1.34709e-07
-1.10857e-06
1.31475e-07
-1.14571e-06
1.28417e-07
-1.18207e-06
1.25551e-07
-1.21776e-06
1.22888e-07
-1.25287e-06
1.20434e-07
-1.28748e-06
1.1819e-07
-1.32163e-06
1.16151e-07
-1.35537e-06
1.14308e-07
-1.38875e-06
1.12648e-07
-1.4218e-06
1.11155e-07
-1.45454e-06
1.09812e-07
-1.48699e-06
1.08599e-07
-1.51917e-06
1.07497e-07
-1.55109e-06
1.06488e-07
-1.58276e-06
1.05552e-07
-1.61418e-06
1.04671e-07
-1.64534e-06
1.03828e-07
-1.67625e-06
1.03007e-07
-1.7069e-06
1.02193e-07
-1.73728e-06
1.01371e-07
-1.76738e-06
1.00529e-07
-1.79717e-06
9.96546e-08
-1.82665e-06
9.87375e-08
-1.8558e-06
9.77679e-08
-1.88459e-06
9.67374e-08
-1.913e-06
9.56384e-08
-1.941e-06
9.44643e-08
-1.96858e-06
9.32092e-08
-1.9957e-06
9.18683e-08
-2.02234e-06
9.04374e-08
-2.04847e-06
8.89129e-08
-2.07406e-06
8.7292e-08
-2.09908e-06
8.55724e-08
-2.1235e-06
8.37523e-08
-2.14729e-06
8.18305e-08
-2.17042e-06
7.98062e-08
-2.19286e-06
7.76788e-08
-2.21457e-06
7.54482e-08
-2.23554e-06
7.31146e-08
-2.25572e-06
7.06785e-08
-2.27509e-06
6.81403e-08
-2.29362e-06
6.55011e-08
-2.31127e-06
6.27617e-08
-2.32802e-06
5.99232e-08
-2.34384e-06
5.69867e-08
-2.35869e-06
5.39534e-08
-2.37256e-06
5.08245e-08
-2.38541e-06
4.76011e-08
-2.39722e-06
4.42844e-08
-2.40796e-06
4.08754e-08
-2.4176e-06
3.73755e-08
-2.42613e-06
3.37857e-08
-2.43351e-06
3.01075e-08
-2.43974e-06
2.63428e-08
-2.44478e-06
2.24938e-08
-2.44864e-06
1.85644e-08
-2.4513e-06
1.45594e-08
-2.45275e-06
1.04862e-08
-2.453e-06
6.35506e-09
-2.45204e-06
2.18195e-09
-2.4498e-06
-2.0087e-09
-2.44635e-06
-6.24567e-09
-2.44153e-06
-1.05069e-08
-2.43532e-06
-1.48205e-08
-2.4277e-06
-1.91869e-08
-2.41865e-06
-2.36016e-08
-2.40815e-06
-2.8059e-08
-2.39619e-06
-3.25531e-08
-2.38276e-06
-3.70777e-08
-2.36785e-06
-4.16264e-08
-2.35145e-06
-4.61926e-08
-2.33356e-06
-5.07697e-08
-2.31418e-06
-5.53509e-08
-2.29331e-06
-5.99295e-08
-2.27095e-06
-6.44987e-08
-2.24711e-06
-6.90518e-08
-2.22179e-06
-7.35818e-08
-2.19501e-06
-7.80822e-08
-2.16678e-06
-8.25459e-08
-2.13711e-06
-8.69663e-08
-2.10602e-06
-9.13368e-08
-2.07353e-06
-9.56506e-08
-2.03965e-06
-9.99015e-08
-2.00441e-06
-1.04083e-07
-1.96784e-06
-1.0819e-07
-1.92995e-06
-1.12216e-07
-1.89079e-06
-1.16156e-07
-1.85038e-06
-1.20005e-07
-1.80875e-06
-1.23758e-07
-1.76593e-06
-1.27411e-07
-1.72196e-06
-1.30959e-07
-1.67688e-06
-1.344e-07
-1.63072e-06
-1.37731e-07
-1.58351e-06
-1.40948e-07
-1.53531e-06
-1.44052e-07
-1.48613e-06
-1.4704e-07
-1.43603e-06
-1.49913e-07
-1.38505e-06
-1.52672e-07
-1.33321e-06
-1.55316e-07
-1.28056e-06
-1.57849e-07
-1.22713e-06
-1.60273e-07
-1.17296e-06
-1.62592e-07
-1.11808e-06
-1.64811e-07
-1.06252e-06
-1.66934e-07
-1.00632e-06
-1.68968e-07
-9.49493e-07
-1.70919e-07
-8.92076e-07
-1.72794e-07
-8.34087e-07
-1.74601e-07
-7.75547e-07
-1.76348e-07
-7.16472e-07
-1.78044e-07
-6.56876e-07
-1.79697e-07
-5.9677e-07
-1.81315e-07
-5.36163e-07
-1.82907e-07
-4.75058e-07
-1.84481e-07
-4.1346e-07
-1.86043e-07
-3.51368e-07
-1.876e-07
-2.88781e-07
-1.89156e-07
-2.25694e-07
-1.90716e-07
-1.62104e-07
-1.92281e-07
-9.80049e-08
-1.93851e-07
-3.339e-08
-1.95423e-07
3.17461e-08
-1.96994e-07
9.74108e-08
-1.98558e-07
1.63612e-07
-2.00112e-07
2.30364e-07
-2.01661e-07
2.9769e-07
-2.03211e-07
3.65605e-07
-2.04758e-07
4.34094e-07
-2.0628e-07
5.0313e-07
-2.07759e-07
5.7268e-07
-2.09171e-07
6.42705e-07
-2.10478e-07
7.13157e-07
-2.11635e-07
7.83972e-07
-2.12592e-07
8.55069e-07
-2.13295e-07
9.26349e-07
-2.1368e-07
9.97683e-07
-2.13669e-07
1.06891e-06
-2.13166e-07
1.13984e-06
-2.12036e-07
1.21019e-06
-2.1009e-07
1.27963e-06
-2.07031e-07
1.34766e-06
-2.02356e-07
1.41356e-06
-1.95175e-07
1.47635e-06
-1.83619e-07
1.53464e-06
-1.64308e-07
1.58824e-06
-1.28584e-07
-6.09032e-08
1.64167e-06
5.24572e-09
-5.06811e-08
2.55265e-09
-3.98124e-08
-3.95654e-09
-2.42902e-08
-1.33054e-08
-8.89417e-09
-2.50974e-08
6.20511e-09
-3.91215e-08
2.09925e-08
-5.52894e-08
3.54326e-08
-7.35972e-08
4.94516e-08
-9.4109e-08
6.29482e-08
-1.16947e-07
7.58153e-08
-1.42266e-07
8.79691e-08
-1.70221e-07
9.93761e-08
-2.0092e-07
1.10068e-07
-2.3439e-07
1.20133e-07
-2.70551e-07
1.29692e-07
-3.09202e-07
1.3885e-07
-3.50032e-07
1.4766e-07
-3.92629e-07
1.56091e-07
-4.36508e-07
1.64027e-07
-4.81133e-07
1.71283e-07
-5.25957e-07
1.77644e-07
-5.70531e-07
1.82897e-07
-6.14601e-07
1.86897e-07
-6.57857e-07
1.89627e-07
-6.99994e-07
1.91126e-07
-7.40842e-07
1.91462e-07
-7.80309e-07
1.90741e-07
-8.1846e-07
1.89076e-07
-8.55498e-07
1.86616e-07
-8.91489e-07
1.83548e-07
-9.26612e-07
1.80003e-07
-9.61147e-07
1.76141e-07
-9.95223e-07
1.72177e-07
-1.0288e-06
1.68288e-07
-1.06188e-06
1.64558e-07
-1.0945e-06
1.61034e-07
-1.12669e-06
1.57741e-07
-1.15849e-06
1.54691e-07
-1.18995e-06
1.51886e-07
-1.22108e-06
1.49324e-07
-1.25192e-06
1.46994e-07
-1.2825e-06
1.44884e-07
-1.31282e-06
1.42975e-07
-1.34292e-06
1.4125e-07
-1.37279e-06
1.39687e-07
-1.40246e-06
1.38263e-07
-1.43192e-06
1.36958e-07
-1.46118e-06
1.35749e-07
-1.49025e-06
1.34615e-07
-1.51911e-06
1.33534e-07
-1.54777e-06
1.32487e-07
-1.57622e-06
1.31455e-07
-1.60444e-06
1.30421e-07
-1.63244e-06
1.29367e-07
-1.66019e-06
1.2828e-07
-1.68768e-06
1.27144e-07
-1.71489e-06
1.25948e-07
-1.7418e-06
1.24681e-07
-1.7684e-06
1.23331e-07
-1.79465e-06
1.2189e-07
-1.82054e-06
1.2035e-07
-1.84603e-06
1.18705e-07
-1.87111e-06
1.16947e-07
-1.89575e-06
1.15073e-07
-1.91991e-06
1.13077e-07
-1.94357e-06
1.10956e-07
-1.96671e-06
1.08708e-07
-1.98929e-06
1.0633e-07
-2.01128e-06
1.03821e-07
-2.03265e-06
1.01179e-07
-2.05337e-06
9.84037e-08
-2.07342e-06
9.54953e-08
-2.09276e-06
9.24539e-08
-2.11136e-06
8.92798e-08
-2.1292e-06
8.59739e-08
-2.14623e-06
8.25372e-08
-2.16244e-06
7.8971e-08
-2.17779e-06
7.52766e-08
-2.19226e-06
7.14557e-08
-2.20582e-06
6.75098e-08
-2.21844e-06
6.34407e-08
-2.23008e-06
5.92503e-08
-2.24074e-06
5.49403e-08
-2.25038e-06
5.05129e-08
-2.25897e-06
4.59699e-08
-2.2665e-06
4.1314e-08
-2.27294e-06
3.65476e-08
-2.27827e-06
3.1674e-08
-2.28248e-06
2.66969e-08
-2.28553e-06
2.16212e-08
-2.28743e-06
1.6453e-08
-2.28814e-06
1.11995e-08
-2.28765e-06
5.86917e-09
-2.28594e-06
4.70975e-10
-2.28296e-06
-4.9866e-09
-2.2787e-06
-1.05096e-08
-2.27311e-06
-1.61002e-08
-2.26616e-06
-2.17656e-08
-2.25785e-06
-2.75022e-08
-2.24814e-06
-3.33039e-08
-2.23704e-06
-3.9163e-08
-2.22452e-06
-4.50713e-08
-2.21058e-06
-5.10201e-08
-2.19521e-06
-5.7001e-08
-2.17839e-06
-6.30051e-08
-2.16014e-06
-6.90237e-08
-2.14044e-06
-7.50478e-08
-2.1193e-06
-8.10685e-08
-2.09672e-06
-8.7077e-08
-2.07271e-06
-9.30643e-08
-2.04727e-06
-9.90213e-08
-2.02042e-06
-1.04939e-07
-1.99215e-06
-1.10809e-07
-1.9625e-06
-1.16622e-07
-1.93146e-06
-1.22369e-07
-1.89907e-06
-1.28041e-07
-1.86535e-06
-1.3363e-07
-1.8303e-06