/*--------------------------------*- C++ -*----------------------------------*\
  =========                 |
  \\      /  F ield         | OpenFOAM: The Open Source CFD Toolbox
   \\    /   O peration     | Website:  https://openfoam.org
    \\  /    A nd           | Version:  9
     \\/     M anipulation  |
\*---------------------------------------------------------------------------*/
FoamFile
{
    format      ascii;
    class       volVectorField;
    location    "0.029";
    object      U;
}
// * * * * * * * * * * * * * * * * * * * * * * * * * * * * * * * * * * * * * //

dimensions      [0 1 -1 0 0 0 0];

internalField   nonuniform List<vector> 
12225
(
(10.0779 -0.0187757 0)
(9.69642 0.0358424 0)
(9.33262 0.0294937 0)
(9.011 0.0316881 0)
(8.69343 0.0498846 0)
(8.35957 0.0708367 0)
(8.02756 0.0821957 0)
(7.70756 0.078229 0)
(7.39289 0.0612926 0)
(7.0927 0.0412262 0)
(6.81521 0.0283902 0)
(6.56999 0.0288537 0)
(6.31442 0.0376283 0)
(6.07582 0.0523866 0)
(5.76812 0.0727579 0)
(5.48068 0.0874731 0)
(5.06019 0.108725 0)
(4.7324 0.129015 0)
(10.2173 0.15677 0)
(10.1849 0.142797 0)
(10.1476 0.118138 0)
(10.0985 0.111625 0)
(10.0568 0.104954 0)
(10.026 0.0903521 0)
(10.0287 0.0802207 0)
(10.0672 0.0867399 0)
(10.1039 0.105037 0)
(10.1036 0.123139 0)
(10.0492 0.131445 0)
(9.9513 0.13265 0)
(9.81532 0.131953 0)
(9.67093 0.1346 0)
(9.49834 0.144866 0)
(9.34118 0.166729 0)
(9.15308 0.202748 0)
(8.9843 0.248482 0)
(10.1558 0.139597 0)
(10.1864 0.0887067 0)
(10.0996 0.0579571 0)
(10.0612 0.0557334 0)
(10.0975 0.0669751 0)
(10.1317 0.0746025 0)
(10.1347 0.0732784 0)
(10.1336 0.067203 0)
(10.1472 0.0627832 0)
(10.1683 0.0655294 0)
(10.1795 0.0765056 0)
(10.1675 0.0979641 0)
(10.1297 0.125578 0)
(10.0746 0.15636 0)
(10.0094 0.189409 0)
(9.94579 0.223036 0)
(9.8921 0.262433 0)
(9.85521 0.311114 0)
(9.95919 0.090292 0)
(10.1246 0.137998 0)
(10.1551 0.14678 0)
(10.1949 0.116432 0)
(10.2237 0.0899469 0)
(10.2141 0.0788568 0)
(10.1858 0.0765584 0)
(10.1601 0.0792554 0)
(10.1342 0.0885611 0)
(10.0991 0.106471 0)
(10.0558 0.129977 0)
(10.0108 0.153759 0)
(9.96962 0.173978 0)
(9.93544 0.191079 0)
(9.90704 0.207663 0)
(9.88497 0.229323 0)
(9.87177 0.258479 0)
(9.87353 0.297744 0)
(9.97681 0.0370108 0)
(10.0282 0.059599 0)
(10.0946 0.0389493 0)
(10.1391 0.0301168 0)
(10.1671 0.0569607 0)
(10.1684 0.0826718 0)
(10.1331 0.090778 0)
(10.0636 0.0884318 0)
(9.97697 0.0881068 0)
(9.90087 0.0966567 0)
(9.85951 0.113198 0)
(9.8596 0.134632 0)
(9.89021 0.159164 0)
(9.93319 0.185688 0)
(9.97261 0.215097 0)
(9.99782 0.247395 0)
(10.0104 0.280736 0)
(10.0134 0.309054 0)
(9.96632 0.124399 0)
(9.92945 0.102767 0)
(9.90201 0.128331 0)
(9.93874 0.119871 0)
(10.0355 0.0938616 0)
(10.1066 0.088118 0)
(10.1089 0.107849 0)
(10.0516 0.134293 0)
(9.96463 0.15078 0)
(9.87785 0.152839 0)
(9.81113 0.145537 0)
(9.77278 0.137577 0)
(9.76292 0.136909 0)
(9.77876 0.147479 0)
(9.81708 0.171112 0)
(9.87056 0.20427 0)
(9.93213 0.242954 0)
(9.99432 0.27873 0)
(9.76504 0.127246 0)
(9.88523 0.0946152 0)
(9.90079 0.0243642 0)
(9.93452 -0.0305884 0)
(9.96849 -0.0149115 0)
(9.96048 0.0494565 0)
(9.92925 0.111467 0)
(9.91978 0.145925 0)
(9.94588 0.155927 0)
(9.98571 0.155845 0)
(10.0089 0.155987 0)
(9.99569 0.158382 0)
(9.94779 0.162433 0)
(9.88238 0.167815 0)
(9.82132 0.177251 0)
(9.78447 0.19385 0)
(9.77212 0.217282 0)
(9.79257 0.245689 0)
(10.0806 0.042729 0)
(10.1624 0.0814913 0)
(10.1755 0.117429 0)
(10.0882 0.114935 0)
(9.99853 0.107986 0)
(9.94568 0.114723 0)
(9.94082 0.122876 0)
(9.96828 0.122707 0)
(9.9932 0.119656 0)
(9.99459 0.124574 0)
(9.97704 0.142009 0)
(9.95416 0.167081 0)
(9.93224 0.191733 0)
(9.91086 0.210701 0)
(9.88356 0.222613 0)
(9.8517 0.231434 0)
(9.81584 0.238922 0)
(9.78491 0.247351 0)
(10.179 0.208617 0)
(9.9758 0.106965 0)
(9.89726 0.047321 0)
(9.91668 0.0173665 0)
(9.9667 0.0175544 0)
(10.0075 0.0511815 0)
(10.0294 0.0942184 0)
(10.0286 0.128927 0)
(10.0046 0.152766 0)
(9.96778 0.167712 0)
(9.93563 0.176015 0)
(9.92141 0.180488 0)
(9.92495 0.184947 0)
(9.93951 0.194199 0)
(9.95431 0.210753 0)
(9.95973 0.23276 0)
(9.95235 0.257821 0)
(9.92681 0.277321 0)
(10.2349 0.183548 0)
(10.301 0.171208 0)
(10.243 0.136217 0)
(10.0986 0.101144 0)
(9.95961 0.097409 0)
(9.86091 0.109673 0)
(9.81343 0.121368 0)
(9.81736 0.131571 0)
(9.85372 0.142095 0)
(9.89975 0.153186 0)
(9.9395 0.164144 0)
(9.96116 0.173664 0)
(9.96032 0.182042 0)
(9.9388 0.191624 0)
(9.90877 0.206353 0)
(9.8783 0.227409 0)
(9.85523 0.254602 0)
(9.83974 0.283494 0)
(10.0226 0.115335 0)
(9.9845 0.14881 0)
(9.97061 0.150881 0)
(9.97021 0.121492 0)
(9.98062 0.100743 0)
(9.97573 0.09586 0)
(9.95751 0.102039 0)
(9.93984 0.109967 0)
(9.92577 0.116173 0)
(9.91535 0.124913 0)
(9.91155 0.142196 0)
(9.91383 0.16891 0)
(9.91764 0.200572 0)
(9.91839 0.231394 0)
(9.91625 0.257481 0)
(9.91204 0.278069 0)
(9.9094 0.293285 0)
(9.90535 0.30455 0)
(9.96552 0.129977 0)
(9.99102 0.176524 0)
(10.0411 0.130689 0)
(10.0184 0.100732 0)
(9.96207 0.119471 0)
(9.90869 0.142716 0)
(9.89465 0.149982 0)
(9.91704 0.149726 0)
(9.94164 0.150876 0)
(9.94659 0.155136 0)
(9.93573 0.161781 0)
(9.92413 0.169783 0)
(9.92133 0.178761 0)
(9.93008 0.18963 0)
(9.94719 0.204838 0)
(9.96457 0.224621 0)
(9.97821 0.250762 0)
(9.97583 0.279172 0)
(10.1095 0.0430891 0)
(10.144 0.168822 0)
(10.0856 0.165113 0)
(10.0489 0.149599 0)
(10.0768 0.129386 0)
(10.0992 0.0971788 0)
(10.0895 0.0749782 0)
(10.0555 0.0778538 0)
(10.0103 0.100284 0)
(9.97037 0.129564 0)
(9.94905 0.157119 0)
(9.94733 0.180264 0)
(9.95996 0.200372 0)
(9.97815 0.219763 0)
(10.0027 0.242127 0)
(10.0265 0.267566 0)
(10.0532 0.297805 0)
(10.0714 0.330781 0)
(10.02 0.0837939 0)
(10.0069 0.182612 0)
(9.99861 0.149263 0)
(10.0061 0.106163 0)
(10.059 0.115598 0)
(10.089 0.166808 0)
(10.07 0.215051 0)
(10.0174 0.234279 0)
(9.95595 0.225449 0)
(9.90839 0.202085 0)
(9.88859 0.177499 0)
(9.89397 0.158034 0)
(9.91466 0.146443 0)
(9.94047 0.141386 0)
(9.96722 0.144732 0)
(9.99507 0.158006 0)
(10.0214 0.182773 0)
(10.052 0.223972 0)
(9.98673 0.158605 0)
(9.94946 0.221384 0)
(9.93395 0.173966 0)
(9.96297 0.116024 0)
(10.0378 0.0630519 0)
(10.1129 0.0464401 0)
(10.1657 0.0729474 0)
(10.192 0.116256 0)
(10.1924 0.148115 0)
(10.1773 0.159894 0)
(10.1602 0.159826 0)
(10.1456 0.160237 0)
(10.1295 0.168852 0)
(10.109 0.188094 0)
(10.0801 0.213708 0)
(10.049 0.243254 0)
(10.0127 0.272611 0)
(9.98526 0.303136 0)
(9.97193 0.076919 0)
(10.0074 0.22748 0)
(10.0457 0.12178 0)
(10.1213 0.00155103 0)
(10.176 0.000638167 0)
(10.1672 0.0906242 0)
(10.1328 0.196698 0)
(10.1038 0.265237 0)
(10.0778 0.281762 0)
(10.0441 0.261401 0)
(9.99845 0.227973 0)
(9.94533 0.200068 0)
(9.89395 0.185836 0)
(9.8548 0.186797 0)
(9.83333 0.198433 0)
(9.82933 0.218346 0)
(9.83851 0.242079 0)
(9.85532 0.27132 0)
(10.1001 0.120363 0)
(10.0745 0.167777 0)
(10.0528 0.0838235 0)
(9.98572 0.0467101 0)
(9.91718 0.0496128 0)
(9.89588 0.068998 0)
(9.94375 0.0930957 0)
(10.03 0.123016 0)
(10.1112 0.163668 0)
(10.1637 0.212592 0)
(10.1829 0.257952 0)
(10.1754 0.286845 0)
(10.1523 0.293568 0)
(10.1245 0.28295 0)
(10.0996 0.264881 0)
(10.0803 0.251146 0)
(10.0679 0.2476 0)
(10.0607 0.259861 0)
(9.94762 0.234583 0)
(9.92373 0.257028 0)
(9.95401 0.164633 0)
(10.0134 0.133647 0)
(10.0625 0.0996385 0)
(10.0868 0.0610936 0)
(10.0911 0.0495317 0)
(10.0853 0.0780325 0)
(10.0792 0.132655 0)
(10.0824 0.188304 0)
(10.0978 0.227597 0)
(10.1215 0.247761 0)
(10.1463 0.255067 0)
(10.1676 0.257767 0)
(10.182 0.259835 0)
(10.189 0.262834 0)
(10.189 0.266018 0)
(10.183 0.269837 0)
(9.95483 0.134195 0)
(9.96061 0.105411 0)
(9.95741 -0.0181109 0)
(9.944 -0.0856795 0)
(9.94788 -0.065319 0)
(9.96815 0.0122245 0)
(9.99177 0.0898882 0)
(10.0223 0.134546 0)
(10.0602 0.151283 0)
(10.1015 0.158698 0)
(10.143 0.168392 0)
(10.1818 0.182138 0)
(10.2144 0.196746 0)
(10.2388 0.209976 0)
(10.254 0.224958 0)
(10.2594 0.244994 0)
(10.2551 0.275292 0)
(10.2418 0.315425 0)
(9.92799 0.0771628 0)
(9.92279 0.183796 0)
(9.93806 0.182531 0)
(9.95598 0.121903 0)
(9.945 0.0575228 0)
(9.94501 -0.0012882 0)
(9.96456 -0.0301468 0)
(9.98675 -0.0201634 0)
(9.99948 0.0135674 0)
(10.0049 0.0521819 0)
(10.0134 0.0845971 0)
(10.0294 0.110385 0)
(10.0512 0.135699 0)
(10.0739 0.166856 0)
(10.0954 0.206029 0)
(10.1149 0.251122 0)
(10.134 0.297893 0)
(10.1552 0.341833 0)
(9.76321 0.174885 0)
(9.76591 0.0675625 0)
(9.87702 -0.0236009 0)
(10.0022 -0.0324947 0)
(10.017 -0.0271845 0)
(9.96274 -0.0201452 0)
(9.91772 0.00555789 0)
(9.90249 0.0472381 0)
(9.91005 0.0847342 0)
(9.93033 0.104427 0)
(9.95409 0.108991 0)
(9.9787 0.109966 0)
(10.0081 0.117472 0)
(10.0463 0.134895 0)
(10.096 0.159999 0)
(10.1543 0.189135 0)
(10.2184 0.217676 0)
(10.2824 0.244791 0)
(9.97249 0.214972 0)
(10.1096 -0.022441 0)
(10.1589 -0.0922922 0)
(10.1691 -0.0114557 0)
(10.0936 0.0800672 0)
(9.99313 0.103267 0)
(9.92732 0.0613921 0)
(9.91253 0.0119907 0)
(9.93207 -0.00427037 0)
(9.9618 0.00911213 0)
(9.98684 0.0284203 0)
(10.0023 0.0366186 0)
(10.0115 0.0326754 0)
(10.022 0.0248802 0)
(10.0401 0.0237371 0)
(10.0701 0.0358679 0)
(10.1096 0.0617745 0)
(10.1592 0.101462 0)
(10.0429 -0.21036 0)
(10.0422 -0.184379 0)
(9.989 -0.0546523 0)
(9.95858 0.0449399 0)
(9.97242 0.109417 0)
(10.0166 0.116123 0)
(10.0457 0.0767801 0)
(10.0364 0.032788 0)
(10.0038 0.0147898 0)
(9.97576 0.0259952 0)
(9.96858 0.0510608 0)
(9.98164 0.0736164 0)
(10.0055 0.086075 0)
(10.0312 0.0889828 0)
(10.053 0.0852835 0)
(10.0709 0.0809932 0)
(10.0864 0.0784661 0)
(10.1039 0.0829592 0)
(10.1618 -0.102591 0)
(9.97074 -0.109344 0)
(9.9389 -0.0285541 0)
(9.97147 0.038315 0)
(9.9999 0.0698429 0)
(10.0096 0.0728445 0)
(9.99864 0.0673751 0)
(9.97905 0.0640109 0)
(9.9749 0.0594637 0)
(10.0019 0.0469538 0)
(10.058 0.0260883 0)
(10.1298 0.00281766 0)
(10.2012 -0.0154511 0)
(10.2621 -0.0232725 0)
(10.3082 -0.018878 0)
(10.3391 -0.00379151 0)
(10.3574 0.0184686 0)
(10.3644 0.0440785 0)
(9.82647 -0.114403 0)
(9.82645 -0.0765802 0)
(9.87537 -0.045707 0)
(9.90919 -0.00427481 0)
(9.94512 0.0486715 0)
(9.97471 0.084416 0)
(9.993 0.0811782 0)
(10.009 0.0439431 0)
(10.03 -0.00439886 0)
(10.0567 -0.0428364 0)
(10.088 -0.0615481 0)
(10.1218 -0.060902 0)
(10.1552 -0.0467302 0)
(10.1854 -0.0256578 0)
(10.2102 -0.00259781 0)
(10.2302 0.0200077 0)
(10.2459 0.0419338 0)
(10.2614 0.0625457 0)
(9.8754 -0.125154 0)
(9.91915 -0.120186 0)
(9.93448 -0.0727921 0)
(9.93932 -0.000352435 0)
(9.98024 0.048597 0)
(10.0563 0.0651803 0)
(10.143 0.0611214 0)
(10.2177 0.0452617 0)
(10.2667 0.0216006 0)
(10.2868 -0.00744939 0)
(10.2855 -0.0378706 0)
(10.2753 -0.0627245 0)
(10.2649 -0.0755811 0)
(10.258 -0.0732525 0)
(10.2524 -0.0572548 0)
(10.2461 -0.0327202 0)
(10.2356 -0.00491367 0)
(10.2223 0.0212915 0)
(9.98705 -0.116641 0)
(10.0019 -0.116367 0)
(9.93717 -0.0620314 0)
(9.91408 -0.0293297 0)
(9.94407 -0.0198065 0)
(10.0085 -0.0171968 0)
(10.0813 -0.0212247 0)
(10.1456 -0.0310567 0)
(10.1911 -0.0405852 0)
(10.2122 -0.0454864 0)
(10.2116 -0.0460481 0)
(10.1979 -0.0429713 0)
(10.1804 -0.0355601 0)
(10.1664 -0.0215598 0)
(10.1608 -0.000165051 0)
(10.1651 0.0252817 0)
(10.1801 0.0516219 0)
(10.2058 0.0724617 0)
(10.017 -0.18254 0)
(9.95056 -0.0898319 0)
(9.86942 -0.0341407 0)
(9.84011 -0.00266447 0)
(9.86638 0.00511993 0)
(9.91647 -0.00400319 0)
(9.96189 -0.0139577 0)
(10.0023 -0.0191597 0)
(10.0461 -0.0221642 0)
(10.0922 -0.0268513 0)
(10.1322 -0.0345669 0)
(10.1578 -0.0433209 0)
(10.1668 -0.04979 0)
(10.1646 -0.0512644 0)
(10.1626 -0.0465622 0)
(10.1703 -0.0366029 0)
(10.1923 -0.0229894 0)
(10.2281 -0.0102299 0)
(10.0276 -0.133502 0)
(10.0856 -0.0528931 0)
(10.047 -0.0221913 0)
(10.0249 -0.0317496 0)
(10.0562 -0.0465674 0)
(10.1057 -0.056728 0)
(10.132 -0.0625788 0)
(10.1381 -0.0692039 0)
(10.1451 -0.0765739 0)
(10.1617 -0.0796115 0)
(10.1839 -0.0742688 0)
(10.2048 -0.0612583 0)
(10.2188 -0.0443071 0)
(10.2248 -0.0277988 0)
(10.2263 -0.014103 0)
(10.2297 -0.00431759 0)
(10.2387 0.0018945 0)
(10.257 0.00556556 0)
(9.80079 -0.150212 0)
(9.49762 -0.0695089 0)
(9.43376 -0.0108947 0)
(9.38846 -0.00880643 0)
(9.28734 -0.0253236 0)
(9.15307 -0.0323388 0)
(9.01424 -0.0287021 0)
(8.87856 -0.0279834 0)
(8.73511 -0.0372871 0)
(8.57368 -0.0515137 0)
(8.40237 -0.0615781 0)
(8.2419 -0.0632577 0)
(8.10825 -0.0579474 0)
(8.00697 -0.0495908 0)
(7.93382 -0.0415895 0)
(7.88296 -0.0356952 0)
(7.84459 -0.0321146 0)
(7.81678 -0.030373 0)
(-0.320631 0.664102 -4.14508e-20)
(-0.828092 0.504798 4.11532e-20)
(-1.18366 0.215478 0)
(-1.25898 -0.0743191 0)
(-1.04772 -0.380022 0)
(-0.636519 -0.606667 -3.98983e-20)
(-0.0391173 -0.729571 0)
(0.657143 -0.77901 0)
(1.36288 -0.757706 0)
(2.04601 -0.683879 0)
(2.67247 -0.576053 3.81391e-20)
(3.20521 -0.449132 0)
(3.62593 -0.31456 0)
(3.92134 -0.180483 0)
(4.0891 -0.0461853 0)
(4.12839 0.0826096 3.70759e-20)
(4.02709 0.214841 0)
(3.80053 0.341185 0)
(3.45289 0.451096 0)
(3.01168 0.544273 0)
(2.47829 0.571923 0)
(1.90795 0.551374 0)
(1.37136 0.421281 0)
(0.874082 0.319977 3.46721e-20)
(0.544059 0.169115 -3.44375e-20)
(0.325352 -0.043757 3.41838e-20)
(0.156791 -0.0706864 3.39224e-20)
(0.145673 0.0136966 0)
(0.274597 -0.0101869 0)
(0.550742 -0.239762 -3.30205e-20)
(0.918886 -0.221371 -3.26936e-20)
(1.3925 -0.0537663 0)
(1.45717 -1.01992 0)
(1.35305 -1.69529 -3.1825e-20)
(1.32221 -0.688131 0)
(0.362679 0.899922 0)
(-1.00377 1.1863 3.09488e-20)
(-2.14008 1.03461 0)
(-3.15127 0.908371 3.0633e-20)
(-4.05334 0.796829 6.12305e-20)
(-4.85675 0.697857 0)
(-5.57558 0.613553 0)
(-6.21979 0.540518 0)
(-6.79986 0.478501 0)
(-7.32276 0.424796 0)
(-7.79558 0.378291 6.19267e-20)
(-8.22272 0.33717 6.19988e-20)
(-8.60846 0.300201 6.20329e-20)
(-8.95508 0.266163 0)
(-9.26465 0.234338 -6.19659e-20)
(-9.53819 0.204187 0)
(-9.77655 0.175231 6.16886e-20)
(-9.97995 0.147205 6.14614e-20)
(-10.1488 0.120206 0)
(-10.2834 0.0944815 0)
(-10.3845 0.0700046 0)
(-10.4528 0.0466437 5.99111e-20)
(-10.4893 0.0250111 0)
(-10.4953 0.00594503 0)
(-10.4757 -0.0112568 0)
(-10.4311 -0.0266282 0)
(-10.3645 -0.0399576 0)
(-10.2779 -0.0516085 0)
(-10.1737 -0.0615164 0)
(-10.0542 -0.0697785 0)
(-9.92145 -0.0765614 -5.32336e-20)
(-9.77755 -0.082009 0)
(-9.62424 -0.0863142 0)
(-9.46303 -0.089677 5.05332e-20)
(-9.29516 -0.0922889 4.96262e-20)
(-9.12164 -0.0943271 0)
(-8.94325 -0.0959484 -4.78217e-20)
(-8.76053 -0.097287 4.69289e-20)
(-8.57389 -0.0984606 0)
(-8.38352 -0.0995811 -4.51702e-20)
(-8.18944 -0.100773 0)
(-7.99143 -0.102194 0)
(-7.78893 -0.104045 4.26098e-20)
(-7.581 -0.106557 0)
(-7.36618 -0.109976 -4.09523e-20)
(-7.14252 -0.114528 0)
(-6.90756 -0.12038 3.93245e-20)
(-6.65854 -0.127592 3.85181e-20)
(-6.39272 -0.136075 3.77156e-20)
(-6.10772 -0.145595 7.38336e-20)
(-5.80171 -0.155823 -7.22455e-20)
(-5.4735 -0.166416 0)
(-5.12247 -0.177085 0)
(-4.74834 -0.187657 0)
(-4.35093 -0.19806 -6.60834e-20)
(-3.93002 -0.20825 -6.46223e-20)
(-3.4856 -0.218034 6.32073e-20)
(-3.01847 -0.226932 0)
(-2.53083 -0.234181 -6.05508e-20)
(-2.02696 -0.238629 -5.93306e-20)
(-1.51344 -0.238896 -5.8198e-20)
(-0.998437 -0.234073 0)
(-0.491226 -0.224138 0)
(-0.0068907 -0.210424 0)
(0.444592 -0.193046 -5.45823e-20)
(0.860983 -0.173435 0)
(1.23812 -0.153161 0)
(1.57541 -0.133541 5.25864e-20)
(1.87473 -0.115584 0)
(2.13977 -0.0999217 0)
(2.37542 -0.0868127 5.09281e-20)
(2.587 -0.0761485 0)
(2.77939 -0.0675018 0)
(2.95636 -0.0602439 -4.93351e-20)
(3.1202 -0.0537398 -4.88009e-20)
(3.27183 -0.0474992 0)
(3.41121 -0.0412563 4.77259e-20)
(3.5379 -0.0349789 0)
(3.65149 -0.0287407 -4.66449e-20)
(3.75182 -0.0226988 0)
(3.83915 -0.0170774 -4.55594e-20)
(3.91417 -0.0119202 -4.50152e-20)
(3.9777 -0.007261 0)
(4.03086 -0.0032254 0)
(4.07475 0.000571468 0)
(4.10959 0.00442235 0)
(4.13573 0.00786758 0)
(4.15381 0.0113396 0)
(4.16213 0.0158267 0)
(4.15954 0.0207761 -4.06464e-20)
(4.14662 0.024938 4.01028e-20)
(4.12469 0.0276393 0)
(4.09582 0.02893 0)
(4.06216 0.0290766 0)
(4.02562 0.0284514 0)
(3.9877 0.0274347 7.48157e-20)
(3.9494 0.0263183 0)
(3.9113 0.0252944 -7.26798e-20)
(3.87358 0.0244867 7.16167e-20)
(3.83618 0.0239752 0)
(3.79883 0.0237983 0)
(3.76118 0.0239365 0)
(3.7229 0.0242935 -6.74037e-20)
(3.68378 0.0247034 -6.63618e-20)
(3.64381 0.0249669 0)
(3.60323 0.0249006 -6.42929e-20)
(3.56247 0.024383 -6.3266e-20)
(3.52212 0.0233773 6.22441e-20)
(3.48282 0.0219316 0)
(3.44515 0.0201572 0)
(3.40956 0.0181928 5.92071e-20)
(3.37633 0.0161724 0)
(3.34558 0.0142065 0)
(3.31731 0.0123744 0)
(3.29143 0.0107241 0)
(3.26778 0.00927617 -5.42399e-20)
(3.24615 0.00803139 -5.32611e-20)
(3.22634 0.0069791 0)
(3.20814 0.00610242 -5.13182e-20)
(3.19135 0.00537999 0)
(3.17579 0.00478866 0)
(3.16128 0.00430696 -4.84415e-20)
(3.14768 0.00392011 0)
(3.13482 0.00361813 -4.65487e-20)
(3.1226 0.00339248 0)
(3.11082 0.00322907 0)
(3.09946 0.00311067 -4.37463e-20)
(3.08827 0.00302319 0)
(3.07739 0.00295969 -4.19019e-20)
(3.06637 0.00293677 0)
(3.0556 0.00295962 0)
(3.04413 0.00308702 0)
(3.03282 0.00328118 3.82664e-20)
(3.01975 0.00368313 0)
(3.00669 0.00408596 -3.64728e-20)
(2.99018 0.00494785 0)
(2.97318 0.00555081 0)
(2.95058 0.00739083 0)
(2.92482 0.00807778 0)
(2.89284 0.0124102 0)
(2.84524 0.0125525 0)
(2.80245 0.0239634 0)
(2.69278 0.0212125 5.87707e-20)
(2.65228 0.0558781 0)
(2.33801 0.0456875 0)
(0.0379123 1.52231 1.24425e-19)
(0.0886198 1.11387 -1.23675e-19)
(0.0236013 0.663731 0)
(0.258832 -0.120216 8.1489e-20)
(0.697982 -0.959294 0)
(1.32069 -1.62111 3.97461e-20)
(1.98851 -2.02654 -7.90061e-20)
(2.63655 -2.18904 -7.8263e-20)
(3.23473 -2.15461 0)
(3.76988 -1.97349 -7.71864e-20)
(4.22351 -1.69671 -3.79136e-20)
(4.58459 -1.36271 0)
(4.84986 -1.00146 0)
(5.02463 -0.63059 0)
(5.10907 -0.264504 0)
(5.10735 0.0871507 -3.69681e-20)
(5.0234 0.422925 0)
(4.85086 0.725818 7.33251e-20)
(4.58825 1.00407 0)
(4.25525 1.20964 0)
(3.8541 1.38185 -7.10205e-20)
(3.40602 1.40501 0)
(2.91862 1.34217 6.96598e-20)
(2.48027 1.16333 -3.44904e-20)
(2.05374 0.803275 3.42687e-20)
(1.78186 0.598486 -3.40349e-20)
(1.62033 0.397062 -3.37838e-20)
(1.35324 -0.214151 0)
(1.4527 -0.766803 0)
(2.00287 -0.820978 3.29044e-20)
(1.64094 -1.52199 -3.26598e-20)
(1.19477 -0.794302 0)
(0.0720947 1.08347 0)
(-1.76645 1.99649 3.17754e-20)
(-2.92968 2.34676 0)
(-3.80747 2.60182 0)
(-4.56778 2.44218 -3.06306e-20)
(-5.23161 2.24262 0)
(-5.83027 2.00135 3.12369e-20)
(-6.38486 1.78437 -6.08115e-20)
(-6.87905 1.58083 0)
(-7.33494 1.40541 0)
(-7.74581 1.25177 -1.23679e-19)
(-8.12536 1.11905 -1.23904e-19)
(-8.47159 1.00319 -1.24111e-19)
(-8.79124 0.90059 6.25348e-20)
(-9.08369 0.808319 -6.18428e-20)
(-9.35163 0.723279 -1.8635e-19)
(-9.5947 0.643555 1.24425e-19)
(-9.81355 0.567416 6.18666e-20)
(-10.0075 0.493888 0)
(-10.1763 0.422081 -6.1618e-20)
(-10.3195 0.351678 6.19017e-20)
(-10.4367 0.282736 0)
(-10.5277 0.215628 0)
(-10.5923 0.15073 0)
(-10.631 0.0885031 -5.98892e-20)
(-10.6443 0.0297211 0)
(-10.6337 -0.0247455 1.17817e-19)
(-10.5973 -0.074581 0)
(-10.5381 -0.119548 1.14979e-19)
(-10.457 -0.159305 0)
(-10.3565 -0.194018 -1.11787e-19)
(-10.2388 -0.22374 0)
(-10.106 -0.248727 1.08347e-19)
(-9.96023 -0.269374 -5.3349e-20)
(-9.80346 -0.286148 0)
(-9.63735 -0.299591 -1.02941e-19)
(-9.46334 -0.310272 -5.05194e-20)
(-9.2826 -0.31874 -4.96134e-20)
(-9.0961 -0.325496 0)
(-8.90458 -0.330976 -4.78561e-20)
(-8.70863 -0.335552 -4.69192e-20)
(-8.50867 -0.339553 0)
(-8.30502 -0.3433 4.51626e-20)
(-8.09783 -0.347159 -8.86326e-20)
(-7.88701 -0.3516 0)
(-7.67217 -0.357213 -4.26047e-20)
(-7.45247 -0.364692 0)
(-7.22656 -0.374784 1.22897e-19)
(-6.99248 -0.388196 0)
(-6.74775 -0.405457 -1.18031e-19)
(-6.48953 -0.426762 -3.8514e-20)
(-6.21499 -0.451846 3.77979e-20)
(-5.92171 -0.479973 7.40111e-20)
(-5.60794 -0.510104 -7.24326e-20)
(-5.27265 -0.541152 0)
(-4.91544 -0.572222 0)
(-4.5362 -0.602824 0)
(-4.13479 -0.632833 1.98422e-19)
(-3.71079 -0.662234 6.4604e-20)
(-3.26373 -0.690608 -6.31875e-20)
(-2.7938 -0.716573 0)
(-2.3025 -0.737837 -6.0756e-20)
(-1.79349 -0.751042 5.93084e-20)
(-1.27358 -0.751895 5.81763e-20)
(-0.752064 -0.737659 0)
(-0.239697 -0.707437 0)
(0.247081 -0.6661 0)
(0.698406 -0.613363 5.45305e-20)
(1.11155 -0.555161 0)
(1.48211 -0.495763 -1.06391e-19)
(1.8108 -0.438652 -1.57726e-19)
(2.101 -0.386553 1.04037e-19)
(2.35772 -0.341366 0)
(2.58672 -0.303951 5.09703e-20)
(2.79393 -0.273989 0)
(2.98472 -0.250154 9.97469e-20)
(3.16321 -0.230533 -4.93674e-20)
(3.33187 -0.213177 -4.88281e-20)
(3.49163 -0.196585 0)
(3.64229 -0.179923 -1.43154e-19)
(3.78322 -0.162975 9.43642e-20)
(3.91367 -0.145919 4.66247e-20)
(4.03325 -0.129145 0)
(4.14193 -0.113127 4.55391e-20)
(4.24005 -0.0982217 1.35003e-19)
(4.32854 -0.0846718 0)
(4.40849 -0.0725817 8.78201e-20)
(4.48064 -0.0616116 8.67239e-20)
(4.54623 -0.0513142 8.56272e-20)
(4.60577 -0.0415505 0)
(4.65813 -0.0317278 0)
(4.70402 -0.0211763 0)
(4.74426 -0.0105273 -4.0628e-20)
(4.7778 -0.000701411 -4.00748e-20)
(4.80392 0.00794138 0)
(4.82284 0.0148735 -7.79833e-20)
(4.83513 0.0199462 -7.69014e-20)
(4.84187 0.0232638 0)
(4.84437 0.025145 -7.47441e-20)
(4.84393 0.025982 -1.47352e-19)
(4.84167 0.0261599 7.26052e-20)
(4.83842 0.0260108 7.15455e-20)
(4.83476 0.0257829 0)
(4.83111 0.0256326 0)
(4.82775 0.0256297 0)
(4.8249 0.0257681 6.73246e-20)
(4.82274 0.0259826 -6.62848e-20)
(4.8214 0.0261735 -1.30491e-19)
(4.82096 0.0262291 6.42113e-20)
(4.82144 0.0260482 -6.31853e-20)
(4.82272 0.0255716 -6.21611e-20)
(4.82463 0.0247903 0)
(4.82693 0.0237407 0)
(4.82937 0.022493 5.91226e-20)
(4.83168 0.0211254 0)
(4.83363 0.0197057 0)
(4.83506 0.0182875 -1.12257e-19)
(4.83584 0.0169106 0)
(4.83595 0.0156013 -5.41572e-20)
(4.83537 0.0143754 5.31804e-20)
(4.83417 0.0132417 0)
(4.83241 0.012205 -5.12392e-20)
(4.83017 0.0112663 0)
(4.82754 0.0104238 0)
(4.8246 0.0096734 4.83678e-20)
(4.82139 0.00901118 -9.48405e-20)
(4.81796 0.00843592 4.64782e-20)
(4.81434 0.00794514 0)
(4.81054 0.00753941 0)
(4.8066 0.00720699 -4.36807e-20)
(4.80245 0.00695426 0)
(4.79814 0.00675835 -4.18398e-20)
(4.79352 0.00666885 0)
(4.78868 0.00663557 0)
(4.78334 0.00681784 0)
(4.77761 0.00703628 -3.82105e-20)
(4.77106 0.00773032 0)
(4.76373 0.00830983 3.642e-20)
(4.7552 0.00997779 0)
(4.74477 0.0109556 0)
(4.7331 0.0146274 -6.75206e-20)
(4.71608 0.0158816 6.57569e-20)
(4.70009 0.0242003 0)
(4.6677 0.025234 0)
(4.64784 0.0454347 0)
(4.57628 0.0454878 -1.76109e-19)
(4.56139 0.0997134 0)
(4.3863 0.103439 1.1044e-19)
(0.176525 0.673946 -2.10128e-22)
(0.338033 0.816012 1.64494e-19)
(0.860152 0.0366515 0)
(1.64869 -1.17627 -1.61842e-19)
(2.46734 -2.25884 0)
(3.17428 -2.98858 0)
(3.73806 -3.33586 -7.22998e-22)
(4.17779 -3.35933 7.77837e-20)
(4.52365 -3.14494 7.84228e-20)
(4.79111 -2.77741 7.68761e-20)
(4.99032 -2.32243 0)
(5.13082 -1.82456 0)
(5.22047 -1.30862 -7.72594e-20)
(5.25895 -0.790861 -1.53727e-19)
(5.24846 -0.282498 1.52764e-19)
(5.18054 0.207775 0)
(5.06016 0.664335 1.50018e-19)
(4.87833 1.09148 -7.32588e-20)
(4.65277 1.46529 0)
(4.36119 1.79946 1.44905e-19)
(4.03649 2.01671 7.09105e-20)
(3.65507 2.17159 -1.41344e-19)
(3.24516 2.09406 -6.95252e-20)
(2.82761 1.88086 0)
(2.42948 1.64431 1.36783e-19)
(2.07167 0.744648 1.35572e-19)
(1.76469 0.796485 0)
(1.87073 0.434789 1.33295e-19)
(1.54481 -1.19862 0)
(0.877503 -0.425751 1.315e-19)
(-0.816982 1.60743 6.53659e-20)
(-2.22773 2.52512 0)
(-3.26006 3.195 0)
(-4.1961 3.37142 0)
(-4.82172 3.47999 0)
(-5.31162 3.44003 0)
(-5.6679 3.23678 0)
(-5.9984 2.9799 1.25136e-19)
(-6.29691 2.69092 -1.86434e-19)
(-6.61112 2.42169 0)
(-6.91657 2.17464 0)
(-7.23355 1.95837 0)
(-7.54375 1.76932 -1.36371e-21)
(-7.85376 1.60316 1.23885e-19)
(-8.15374 1.45591 2.49335e-19)
(-8.44436 1.32219 -2.49611e-19)
(-8.72051 1.19879 -1.25371e-19)
(-8.98081 1.08199 1.24483e-19)
(-9.22223 0.969677 8.46144e-22)
(-9.44286 0.859844 1.25162e-19)
(-9.6405 0.751443 0)
(-9.81331 0.643776 1.24568e-19)
(-9.95966 0.536805 7.35452e-22)
(-10.0782 0.430747 0)
(-10.1679 0.326126 0)
(-10.2282 0.223901 -1.21895e-19)
(-10.2594 0.125378 0)
(-10.262 0.031517 0)
(-10.2369 -0.0570136 1.18971e-19)
(-10.1856 -0.138581 2.3403e-19)
(-10.1104 -0.212381 -1.15054e-19)
(-10.0134 -0.278021 0)
(-9.89705 -0.335165 1.11857e-19)
(-9.76378 -0.384013 0)
(-9.61594 -0.424984 1.0891e-19)
(-9.45575 -0.458723 1.06632e-19)
(-9.28523 -0.486069 -2.10002e-19)
(-9.1061 -0.507951 -1.03296e-19)
(-8.91984 -0.525325 0)
(-8.72767 -0.539098 1.98909e-19)
(-8.53056 -0.550074 0)
(-8.32934 -0.558927 2.87334e-19)
(-8.12469 -0.566219 1.88007e-19)
(-7.91721 -0.572437 1.84453e-19)
(-7.70737 -0.578063 -1.80947e-19)
(-7.49557 -0.583671 2.66182e-19)
(-7.28195 -0.590013 0)
(-7.06631 -0.598071 0)
(-6.84795 -0.609054 -1.67424e-19)
(-6.62555 -0.624315 -2.46156e-19)
(-6.39707 -0.645156 0)
(-6.15979 -0.672567 7.87535e-20)
(-5.91054 -0.706939 0)
(-5.64614 -0.747808 -2.269e-19)
(-5.36403 -0.793823 2.91582e-22)
(-5.06256 -0.843077 -3.08474e-22)
(-4.74097 -0.89362 1.41884e-19)
(-4.39921 -0.943912 0)
(-4.03741 -0.993261 -1.35713e-19)
(-3.65532 -1.04178 3.4565e-22)
(-3.25193 -1.08984 0)
(-2.82543 -1.13723 0)
(-2.37426 -1.18173 0)
(-1.89789 -1.21927 1.21267e-19)
(-1.3981 -1.24382 0)
(-0.880821 -1.24737 0)
(-0.356349 -1.2237 0)
(0.159212 -1.17177 0)
(0.648578 -1.09613 0)
(1.10056 -1.00069 1.09222e-19)
(1.50775 -0.896344 0)
(1.86552 -0.791941 1.0628e-19)
(2.17258 -0.694237 1.0508e-19)
(2.43236 -0.607381 -1.03951e-19)
(2.65276 -0.533573 0)
(2.84357 -0.473644 -1.01807e-19)
(3.01373 -0.426926 0)
(3.17002 -0.391052 -9.96989e-20)
(3.31685 -0.362492 9.86386e-20)
(3.45659 -0.337609 2.92875e-19)
(3.59008 -0.313633 0)
(3.71724 -0.289083 2.8639e-19)
(3.83764 -0.263602 9.44504e-20)
(3.95068 -0.237571 0)
(4.05582 -0.211755 1.84433e-19)
(4.15268 -0.187003 1.82248e-19)
(4.24128 -0.164084 -2.70059e-19)
(4.32217 -0.143532 0)
(4.39637 -0.125363 -8.78138e-20)
(4.46509 -0.109201 -8.67188e-20)
(4.52948 -0.0944188 -2.56907e-19)
(4.59026 -0.0799556 0)
(4.64745 -0.0649941 0)
(4.70028 -0.0494981 0)
(4.74736 -0.0338395 -8.12683e-20)
(4.78744 -0.0186892 0)
(4.81925 -0.00488349 0)
(4.84208 0.00666982 7.79825e-20)
(4.85654 0.0155509 7.68998e-20)
(4.86407 0.021708 0)
(4.8667 0.0255321 0)
(4.86645 0.0275523 1.47347e-19)
(4.86497 0.0283182 0)
(4.86342 0.0283201 -1.43081e-19)
(4.86246 0.0279393 -1.40966e-19)
(4.86247 0.0274266 0)
(4.86364 0.0268984 0)
(4.86608 0.0263532 1.3465e-19)
(4.86991 0.0257142 -4.38733e-24)
(4.87525 0.0248816 -3.83534e-24)
(4.88216 0.0237712 0)
(4.89061 0.0223369 2.52721e-19)
(4.9005 0.0206045 0)
(4.9116 0.0186779 0)
(4.92358 0.0166965 0)
(4.93606 0.0147966 -1.18233e-19)
(4.94863 0.0130873 0)
(4.9609 0.0116284 2.28455e-19)
(4.97253 0.0104319 1.12242e-19)
(4.9833 0.00947631 0)
(4.99305 0.00872034 1.08298e-19)
(5.00173 0.00811702 0)
(5.00936 0.00762431 0)
(5.016 0.0072103 3.0738e-19)
(5.02174 0.00685407 -2.01069e-19)
(5.02671 0.00654255 0)
(5.03099 0.0062707 -1.9343e-19)
(5.03469 0.00603713 9.48208e-20)
(5.03787 0.00584961 0)
(5.04059 0.00571082 0)
(5.0429 0.00563353 0)
(5.04481 0.00560502 2.62025e-19)
(5.04635 0.0056472 0)
(5.04746 0.00572754 8.36598e-20)
(5.04817 0.00592955 0)
(5.04835 0.00618073 0)
(5.04812 0.00670797 0)
(5.04713 0.00727016 0)
(5.04574 0.0084322 0)
(5.04313 0.00947422 0)
(5.04025 0.0118352 1.42095e-19)
(5.03509 0.0135336 0)
(5.03015 0.018303 6.75027e-20)
(5.02051 0.0208877 -1.97235e-19)
(5.01266 0.0309187 0)
(4.9947 0.0349125 0)
(4.98314 0.0574654 1.20958e-19)
(4.94988 0.0655967 1.17386e-19)
(4.93637 0.120486 -1.13966e-19)
(4.88276 0.146405 -1.10392e-19)
(-0.12488 0.348348 -2.48351e-19)
(0.538497 -0.617012 -2.46027e-19)
(1.55638 -2.16526 -1.62494e-19)
(2.5015 -3.3842 -8.09665e-20)
(3.22953 -4.1065 0)
(3.71634 -4.36743 1.60217e-19)
(4.00564 -4.26505 -8.08385e-20)
(4.159 -3.91058 0)
(4.22805 -3.4136 -7.84547e-20)
(4.2599 -2.8589 0)
(4.28538 -2.29326 1.58365e-19)
(4.31495 -1.73126 0)
(4.33771 -1.17254 7.74459e-20)
(4.3438 -0.617689 1.54094e-19)
(4.31095 -0.0646283 -1.53129e-19)
(4.23469 0.478982 0)
(4.12743 1.00405 -1.50292e-19)
(3.9932 1.49322 0)
(3.82775 1.94364 0)
(3.62306 2.33373 -1.45084e-19)
(3.36618 2.6257 0)
(3.05416 2.81399 -1.13572e-21)
(2.72262 2.77083 0)
(2.25255 2.6252 0)
(2.04176 2.08141 3.76462e-22)
(1.39763 1.81959 -1.35641e-19)
(1.15613 0.742339 -1.34712e-19)
(1.19105 -0.0737352 -1.33521e-19)
(-0.283427 1.38034 0)
(-1.80474 2.70189 -2.62096e-19)
(-3.02925 3.56419 0)
(-3.91141 3.99034 -1.29269e-19)
(-4.55603 4.23183 0)
(-4.99082 4.19552 0)
(-5.31289 4.09925 1.27691e-19)
(-5.55006 3.88684 0)
(-5.77277 3.64004 -1.27046e-19)
(-5.99083 3.36754 1.75158e-21)
(-6.21917 3.10013 2.51515e-19)
(-6.46759 2.8486 -2.53019e-19)
(-6.7284 2.61792 0)
(-7.00511 2.40828 0)
(-7.28644 2.21799 -1.27857e-19)
(-7.57114 2.04292 0)
(-7.85177 1.88032 -1.25231e-19)
(-8.12546 1.72614 1.2533e-19)
(-8.38783 1.57791 1.25392e-19)
(-8.63581 1.43278 0)
(-8.86632 1.28902 -1.25345e-19)
(-9.07647 1.14503 -1.25205e-19)
(-9.26378 1.00004 2.51971e-19)
(-9.42566 0.853768 -1.24627e-19)
(-9.56006 0.706596 -1.24165e-19)
(-9.66524 0.559306 0)
(-9.74003 0.413229 0)
(-9.78352 0.269995 1.21993e-19)
(-9.79558 0.131232 0)
(-9.77693 -0.00104521 0)
(-9.72877 -0.124804 -2.37078e-19)
(-9.65281 -0.238895 -2.34233e-19)
(-9.55153 -0.341971 0)
(-9.42759 -0.433278 0)
(-9.28388 -0.512485 0)
(-9.12332 -0.57976 0)
(-8.94877 -0.635737 -2.17522e-19)
(-8.76288 -0.681411 2.14432e-19)
(-8.56803 -0.71803 2.10202e-19)
(-8.36627 -0.746961 4.13391e-19)
(-8.15933 -0.769575 0)
(-7.94861 -0.787139 2.71055e-22)
(-7.7353 -0.800737 0)
(-7.52041 -0.81124 -1.91805e-19)
(-7.30479 -0.819346 1.7552e-22)
(-7.08919 -0.825658 -1.84648e-19)
(-6.87423 -0.830792 1.81138e-19)
(-6.66037 -0.835508 1.45267e-22)
(-6.4478 -0.840853 0)
(-6.23627 -0.84827 1.71065e-19)
(-6.02504 -0.859616 1.67592e-19)
(-5.81262 -0.877018 3.28834e-19)
(-5.59673 -0.90255 0)
(-5.37432 -0.937779 -1.58124e-19)
(-5.14184 -0.983303 0)
(-4.8958 -1.03835 3.03279e-19)
(-4.63365 -1.10075 -1.48292e-19)
(-4.35423 -1.16752 1.45119e-19)
(-4.05741 -1.23584 -1.41964e-19)
(-3.74373 -1.30354 -2.78491e-19)
(-3.41372 -1.36993 1.35768e-19)
(-3.06698 -1.43585 -1.32758e-19)
(-2.70206 -1.50275 0)
(-2.31559 -1.57159 2.54902e-19)
(-1.9038 -1.6399 0)
(-1.4632 -1.7018 2.44261e-19)
(-0.99222 -1.74791 -2.39283e-19)
(-0.493191 -1.76394 -2.34574e-19)
(0.0233518 -1.7376 2.30112e-19)
(0.540133 -1.66668 2.25906e-19)
(1.03661 -1.55524 0)
(1.4944 -1.41583 1.09664e-19)
(1.90553 -1.26073 0)
(2.27051 -1.10068 0)
(2.5879 -0.947601 2.10676e-19)