/*--------------------------------*- C++ -*----------------------------------*\
  =========                 |
  \\      /  F ield         | OpenFOAM: The Open Source CFD Toolbox
   \\    /   O peration     | Website:  https://openfoam.org
    \\  /    A nd           | Version:  9
     \\/     M anipulation  |
\*---------------------------------------------------------------------------*/
FoamFile
{
    format      ascii;
    class       volVectorField;
    location    "0.029";
    object      UMean;
}
// * * * * * * * * * * * * * * * * * * * * * * * * * * * * * * * * * * * * * //

dimensions      [0 1 -1 0 0 0 0];

internalField   nonuniform List<vector> 
12225
(
(9.85592 0.0440482 0)
(9.55833 0.0611787 0)
(9.25529 0.0594184 0)
(8.94758 0.0583654 0)
(8.64386 0.0580273 0)
(8.35001 0.0572947 0)
(8.06576 0.05609 0)
(7.79174 0.0550183 0)
(7.52315 0.0540731 0)
(7.26409 0.0539176 0)
(7.00377 0.0539178 0)
(6.75514 0.0550922 0)
(6.49067 0.0562589 0)
(6.24788 0.0591413 0)
(5.9571 0.0631315 0)
(5.71717 0.068393 0)
(5.35807 0.0829288 0)
(5.11555 0.0939137 0)
(10.0156 0.0532786 0)
(10.0733 0.0759636 0)
(10.1098 0.0748944 0)
(10.1216 0.0760553 0)
(10.116 0.0795043 0)
(10.0997 0.0829704 0)
(10.0737 0.0859917 0)
(10.0396 0.0890564 0)
(9.99488 0.0920372 0)
(9.94353 0.0956121 0)
(9.88095 0.0993432 0)
(9.81474 0.104599 0)
(9.73368 0.110528 0)
(9.65255 0.119207 0)
(9.547 0.130298 0)
(9.44662 0.145625 0)
(9.30523 0.171074 0)
(9.17723 0.203436 0)
(10.0096 0.0330025 0)
(10.0387 0.0553056 0)
(10.0643 0.0577737 0)
(10.0794 0.0603048 0)
(10.0867 0.0653506 0)
(10.091 0.070678 0)
(10.0938 0.0752978 0)
(10.0949 0.0799899 0)
(10.0931 0.0848173 0)
(10.0882 0.0907081 0)
(10.0794 0.097068 0)
(10.0673 0.105235 0)
(10.051 0.114444 0)
(10.0308 0.126786 0)
(10.0062 0.142447 0)
(9.9769 0.163859 0)
(9.94607 0.195378 0)
(9.91364 0.235713 0)
(10.0124 0.0297045 0)
(10.0323 0.0596529 0)
(10.0518 0.0650374 0)
(10.0627 0.0670246 0)
(10.066 0.0716211 0)
(10.0662 0.0772591 0)
(10.0655 0.0824784 0)
(10.0639 0.0874978 0)
(10.0607 0.0927689 0)
(10.0556 0.0988532 0)
(10.0485 0.105857 0)
(10.0392 0.114343 0)
(10.0278 0.124736 0)
(10.0142 0.137971 0)
(9.9984 0.155391 0)
(9.98178 0.178323 0)
(9.96575 0.208859 0)
(9.95486 0.245967 0)
(9.99465 0.0259625 0)
(10.0096 0.0503351 0)
(10.0266 0.0579811 0)
(10.0378 0.0611479 0)
(10.0421 0.065955 0)
(10.0427 0.0720261 0)
(10.0419 0.0779229 0)
(10.0404 0.0836728 0)
(10.0378 0.0897458 0)
(10.0338 0.096775 0)
(10.028 0.104941 0)
(10.0201 0.114741 0)
(10.0097 0.12659 0)
(9.99728 0.141298 0)
(9.98273 0.159895 0)
(9.96802 0.183287 0)
(9.95365 0.212057 0)
(9.94346 0.245142 0)
(9.97575 0.0217597 0)
(9.98812 0.0475755 0)
(10.0039 0.0587722 0)
(10.0164 0.0631962 0)
(10.0225 0.0681044 0)
(10.0241 0.0746067 0)
(10.0236 0.0812797 0)
(10.0221 0.0876125 0)
(10.0197 0.0940469 0)
(10.0163 0.10137 0)
(10.0113 0.110088 0)
(10.0048 0.120718 0)
(9.99657 0.133666 0)
(9.98682 0.149572 0)
(9.9756 0.169003 0)
(9.96422 0.192551 0)
(9.953 0.219978 0)
(9.94431 0.25075 0)
(9.96722 0.0192725 0)
(9.97722 0.0395464 0)
(9.98975 0.0509633 0)
(10.0007 0.0576241 0)
(10.0071 0.0641238 0)
(10.0098 0.0714101 0)
(10.0107 0.0786512 0)
(10.0106 0.0856214 0)
(10.0091 0.0928479 0)
(10.0056 0.101049 0)
(10.0001 0.110691 0)
(9.99299 0.122216 0)
(9.98456 0.136009 0)
(9.97552 0.152648 0)
(9.96617 0.172498 0)
(9.95743 0.195983 0)
(9.94947 0.22265 0)
(9.94373 0.252309 0)
(9.98872 0.0169503 0)
(9.99467 0.0400373 0)
(10.0025 0.0525722 0)
(10.0105 0.0597788 0)
(10.0163 0.0659458 0)
(10.0193 0.0727292 0)
(10.0204 0.08008 0)
(10.02 0.0877711 0)
(10.0181 0.0959892 0)
(10.0148 0.105186 0)
(10.01 0.115728 0)
(10.0039 0.127998 0)
(9.99663 0.142327 0)
(9.98871 0.1592 0)
(9.98044 0.178881 0)
(9.97273 0.201723 0)
(9.96584 0.227339 0)
(9.96099 0.255679 0)
(9.97642 0.0122219 0)
(9.97764 0.0318569 0)
(9.98506 0.0452662 0)
(9.99426 0.0543503 0)
(10.001 0.0619827 0)
(10.0043 0.0698585 0)
(10.0053 0.0781452 0)
(10.0049 0.086696 0)
(10.0035 0.0956262 0)
(10.0014 0.105401 0)
(9.99819 0.116516 0)
(9.99406 0.12945 0)
(9.98894 0.144493 0)
(9.98327 0.161993 0)
(9.9772 0.181987 0)
(9.97167 0.204688 0)
(9.96663 0.229671 0)
(9.9635 0.256972 0)
(9.98298 0.0228606 0)
(9.98292 0.033289 0)
(9.98595 0.0455588 0)
(9.99142 0.0551659 0)
(9.99709 0.0629412 0)
(10.0014 0.070561 0)
(10.0043 0.0787255 0)
(10.006 0.0875587 0)
(10.0064 0.0970891 0)
(10.0056 0.107581 0)
(10.0034 0.119369 0)
(10.0001 0.13286 0)
(9.99598 0.148281 0)
(9.99171 0.165961 0)
(9.98753 0.185863 0)
(9.98424 0.208179 0)
(9.98166 0.232447 0)
(9.98078 0.258811 0)
(9.96647 0.0119445 0)
(9.9723 0.0282617 0)
(9.97831 0.0404515 0)
(9.98445 0.0504706 0)
(9.98969 0.0592389 0)
(9.99316 0.0676245 0)
(9.9951 0.0764373 0)
(9.99606 0.0860052 0)
(9.99634 0.0964029 0)
(9.99598 0.107821 0)
(9.99496 0.120461 0)
(9.99323 0.1346 0)
(9.99102 0.150361 0)
(9.98858 0.168005 0)
(9.98642 0.187505 0)
(9.98474 0.209096 0)
(9.98411 0.232409 0)
(9.98441 0.257727 0)
(10.0148 0.0160284 0)
(10.0156 0.0292092 0)
(10.0188 0.0398577 0)
(10.0238 0.0501947 0)
(10.0289 0.0593466 0)
(10.033 0.0676968 0)
(10.0359 0.0763266 0)
(10.0376 0.0858206 0)
(10.0384 0.0962789 0)
(10.0384 0.1078 0)
(10.038 0.120547 0)
(10.0373 0.13481 0)
(10.0364 0.150718 0)
(10.0356 0.168479 0)
(10.0349 0.187962 0)
(10.0349 0.209321 0)
(10.0356 0.232103 0)
(10.0374 0.25662 0)
(9.98617 0.0155057 0)
(9.98663 0.0236084 0)
(9.99004 0.0357396 0)
(9.99496 0.0471038 0)
(9.99916 0.0565859 0)
(10.0021 0.0654705 0)
(10.004 0.0749785 0)
(10.0055 0.0854426 0)
(10.0067 0.0967423 0)
(10.0079 0.108894 0)
(10.009 0.122021 0)
(10.0101 0.136423 0)
(10.011 0.152209 0)
(10.0121 0.169624 0)
(10.0135 0.188491 0)
(10.0157 0.20902 0)
(10.0185 0.230704 0)
(10.0228 0.253964 0)
(10.0188 0.0156835 0)
(10.0257 0.0253219 0)
(10.0312 0.0361945 0)
(10.0359 0.0464587 0)
(10.0397 0.0559155 0)
(10.0426 0.0648519 0)
(10.045 0.0737722 0)
(10.0471 0.0832111 0)
(10.0492 0.0935501 0)
(10.0515 0.105106 0)
(10.0539 0.118002 0)
(10.0563 0.132394 0)
(10.0588 0.148224 0)
(10.0614 0.165621 0)
(10.0645 0.184344 0)
(10.068 0.204552 0)
(10.0726 0.225678 0)
(10.0779 0.248147 0)
(10.0084 0.00534713 0)
(10.014 0.019361 0)
(10.0198 0.0304025 0)
(10.0251 0.0406446 0)
(10.0297 0.0509174 0)
(10.0335 0.061415 0)
(10.0365 0.0719925 0)
(10.0388 0.0827173 0)
(10.0409 0.0938813 0)
(10.043 0.105861 0)
(10.0455 0.118855 0)
(10.0484 0.133035 0)
(10.0518 0.148333 0)
(10.0559 0.164839 0)
(10.0608 0.182258 0)
(10.0669 0.200834 0)
(10.0741 0.219958 0)
(10.0829 0.240286 0)
(10.0194 0.00812178 0)
(10.0225 0.0204363 0)
(10.026 0.0299799 0)
(10.0294 0.0401995 0)
(10.0324 0.0509726 0)
(10.0355 0.0612959 0)
(10.0391 0.0708559 0)
(10.0431 0.0801454 0)
(10.0473 0.0898765 0)
(10.0519 0.10061 0)
(10.057 0.112511 0)
(10.0629 0.125668 0)
(10.0696 0.139889 0)
(10.0773 0.155229 0)
(10.0859 0.171291 0)
(10.0955 0.188348 0)
(10.1058 0.20566 0)
(10.1174 0.224009 0)
(10.0096 -0.000449976 0)
(10.0092 0.0113296 0)
(10.0109 0.0220728 0)
(10.0152 0.0323999 0)
(10.021 0.0423925 0)
(10.0275 0.0522555 0)
(10.0339 0.0622059 0)
(10.0399 0.072403 0)
(10.0455 0.0828648 0)
(10.051 0.0936344 0)
(10.0567 0.104717 0)
(10.063 0.116329 0)
(10.07 0.128514 0)
(10.0781 0.141569 0)
(10.0871 0.155247 0)
(10.0975 0.16986 0)
(10.1085 0.184647 0)
(10.1213 0.200313 0)
(10.0013 0.0132245 0)
(10.0015 0.0178072 0)
(10.0035 0.0247596 0)
(10.007 0.0323339 0)
(10.0114 0.0400417 0)
(10.0167 0.0482713 0)
(10.0228 0.057147 0)
(10.0293 0.0664678 0)
(10.0363 0.0759559 0)
(10.0439 0.0855731 0)
(10.052 0.09537 0)
(10.0606 0.105571 0)
(10.0698 0.11615 0)
(10.0797 0.127271 0)
(10.0901 0.138617 0)
(10.1014 0.15047 0)
(10.1134 0.162181 0)
(10.1267 0.174446 0)
(9.98703 -0.00131234 0)
(9.99198 0.00446931 0)
(9.99775 0.0109535 0)
(10.0042 0.0185368 0)
(10.0113 0.0266947 0)
(10.0188 0.0347012 0)
(10.0268 0.0422784 0)
(10.0353 0.0497098 0)
(10.044 0.0573154 0)
(10.053 0.0652752 0)
(10.0623 0.0735307 0)
(10.072 0.0820807 0)
(10.0822 0.090749 0)
(10.0929 0.0996384 0)
(10.1041 0.108468 0)
(10.1161 0.117469 0)
(10.1286 0.126065 0)
(10.142 0.134786 0)
(9.98979 -0.000709015 0)
(9.98869 0.00400247 0)
(9.99067 0.00750258 0)
(9.99559 0.0115011 0)
(10.0026 0.0164562 0)
(10.011 0.022488 0)
(10.02 0.0293381 0)
(10.0295 0.0364982 0)
(10.0394 0.0436173 0)
(10.0499 0.0506555 0)
(10.061 0.0576252 0)
(10.0725 0.0646196 0)
(10.0845 0.0715484 0)
(10.0969 0.0784456 0)
(10.1097 0.0850519 0)
(10.1229 0.0914998 0)
(10.1365 0.0973841 0)
(10.1505 0.103139 0)
(9.99753 0.00375559 0)
(10.0025 0.000748072 0)
(10.0089 0.00196267 0)
(10.0158 0.00517712 0)
(10.0234 0.00911916 0)
(10.0322 0.0135729 0)
(10.0421 0.0183791 0)
(10.0527 0.0232441 0)
(10.0639 0.0280395 0)
(10.0756 0.0328869 0)
(10.0878 0.0378801 0)
(10.1003 0.0430745 0)
(10.1131 0.0483325 0)
(10.1261 0.0535925 0)
(10.1394 0.0586256 0)
(10.1526 0.0635018 0)
(10.166 0.0679238 0)
(10.1792 0.0722177 0)
(10.0364 -0.00681998 0)
(10.039 -0.00859257 0)
(10.0437 -0.0064335 0)
(10.0495 -0.00331586 0)
(10.0569 -0.000578949 0)
(10.0662 0.00191072 0)
(10.077 0.00483946 0)
(10.0887 0.00858761 0)
(10.1007 0.0129289 0)
(10.1132 0.0174763 0)
(10.126 0.0220161 0)
(10.1391 0.0265616 0)
(10.1525 0.0311233 0)
(10.1663 0.0357481 0)
(10.1803 0.0402914 0)
(10.1945 0.044732 0)
(10.2088 0.0487774 0)
(10.2231 0.0525619 0)
(9.9895 -0.00346303 0)
(9.99417 -0.00639507 0)
(10.0016 -0.00788348 0)
(10.0106 -0.00813697 0)
(10.0204 -0.00752381 0)
(10.0305 -0.00640139 0)
(10.0407 -0.00475959 0)
(10.0514 -0.00246474 0)
(10.0629 0.000396686 0)
(10.0753 0.00355609 0)
(10.0884 0.00674504 0)
(10.1019 0.00986704 0)
(10.1156 0.0128879 0)
(10.1296 0.0158758 0)
(10.1435 0.0187685 0)
(10.1577 0.0216543 0)
(10.1718 0.0243115 0)
(10.1862 0.0269385 0)
(10.0115 -0.0102474 0)
(10.0176 -0.012906 0)
(10.0278 -0.0151858 0)
(10.039 -0.0160442 0)
(10.0499 -0.0155915 0)
(10.0606 -0.0145402 0)
(10.0715 -0.013275 0)
(10.083 -0.0118197 0)
(10.0953 -0.0100878 0)
(10.1081 -0.00802288 0)
(10.1209 -0.00565783 0)
(10.1336 -0.0030345 0)
(10.1462 -0.000260502 0)
(10.1586 0.00258683 0)
(10.171 0.00533432 0)
(10.1834 0.00794595 0)
(10.196 0.0102313 0)
(10.2085 0.0122892 0)
(10.0105 -0.0131698 0)
(10.0185 -0.0208638 0)
(10.03 -0.0237683 0)
(10.0428 -0.024055 0)
(10.055 -0.0236552 0)
(10.0665 -0.0235138 0)
(10.0779 -0.0234651 0)
(10.0898 -0.0229374 0)
(10.1023 -0.0216864 0)
(10.1151 -0.0198274 0)
(10.128 -0.0176287 0)
(10.1411 -0.0153114 0)
(10.1542 -0.0130563 0)
(10.1673 -0.0109319 0)
(10.1806 -0.00902732 0)
(10.1938 -0.00732256 0)
(10.2071 -0.00591422 0)
(10.2204 -0.0047003 0)
(10.0182 -0.0130521 0)
(10.0309 -0.0241072 0)
(10.0453 -0.0275064 0)
(10.0591 -0.0276907 0)
(10.0713 -0.0277209 0)
(10.0822 -0.0281938 0)
(10.0926 -0.028637 0)
(10.103 -0.0286092 0)
(10.1138 -0.0280134 0)
(10.1247 -0.026964 0)
(10.1361 -0.0255881 0)
(10.1478 -0.0239691 0)
(10.1599 -0.0222225 0)
(10.1723 -0.0204544 0)
(10.185 -0.01882 0)
(10.1979 -0.0173697 0)
(10.2109 -0.0162167 0)
(10.2241 -0.0152866 0)
(9.99976 -0.026106 0)
(10.0123 -0.0340005 0)
(10.0281 -0.0374283 0)
(10.0427 -0.037641 0)
(10.0551 -0.0374409 0)
(10.0661 -0.0376286 0)
(10.0771 -0.0377449 0)
(10.0885 -0.037427 0)
(10.1 -0.0366955 0)
(10.1118 -0.0357387 0)
(10.1238 -0.0347042 0)
(10.1361 -0.0336572 0)
(10.1489 -0.032642 0)
(10.162 -0.0316967 0)
(10.1753 -0.0309135 0)
(10.1888 -0.0303179 0)
(10.2022 -0.0299783 0)
(10.2156 -0.0298319 0)
(9.98292 -0.0241412 0)
(9.99704 -0.0338664 0)
(10.0163 -0.0357738 0)
(10.034 -0.0362823 0)
(10.0485 -0.0375185 0)
(10.0618 -0.0387792 0)
(10.0752 -0.0395028 0)
(10.0892 -0.0397441 0)
(10.1035 -0.0397052 0)
(10.1176 -0.0395024 0)
(10.1316 -0.0391509 0)
(10.1455 -0.038684 0)
(10.1595 -0.0381207 0)
(10.1735 -0.0375467 0)
(10.1877 -0.0369974 0)
(10.2017 -0.0365701 0)
(10.2158 -0.0362762 0)
(10.2295 -0.03618 0)
(10.0064 -0.0338507 0)
(10.041 -0.0506109 0)
(10.0712 -0.0496435 0)
(10.0933 -0.0491009 0)
(10.1091 -0.0502956 0)
(10.121 -0.0512485 0)
(10.1306 -0.051558 0)
(10.1387 -0.0515309 0)
(10.1454 -0.0513177 0)
(10.1505 -0.0509696 0)
(10.1544 -0.0505249 0)
(10.1572 -0.0500961 0)
(10.1591 -0.049714 0)
(10.1605 -0.0494635 0)
(10.1612 -0.0492818 0)
(10.1618 -0.0492485 0)
(10.1615 -0.0492707 0)
(10.1616 -0.0494897 0)
(9.90113 -0.0395344 0)
(9.73721 -0.0498276 0)
(9.57237 -0.0483656 0)
(9.40551 -0.0474121 0)
(9.24191 -0.0473237 0)
(9.08507 -0.0469067 0)
(8.93608 -0.0461404 0)
(8.79487 -0.0452826 0)
(8.66098 -0.0443622 0)
(8.53427 -0.0433252 0)
(8.41449 -0.0421767 0)
(8.3017 -0.0410149 0)
(8.19506 -0.039905 0)
(8.09465 -0.0389241 0)
(7.99897 -0.0380439 0)
(7.90897 -0.0373078 0)
(7.822 -0.0366427 0)
(7.74107 -0.0361465 0)
(-0.0739645 0.111765 -1.63898e-21)
(-0.106632 -0.0378688 1.63598e-21)
(-0.0125204 -0.164277 0)
(0.176978 -0.256365 0)
(0.423269 -0.311473 0)
(0.704905 -0.334939 -1.60393e-21)
(0.99714 -0.33157 0)
(1.28217 -0.310233 0)
(1.54449 -0.274804 0)
(1.77405 -0.229656 0)
(1.96201 -0.177927 1.82568e-21)
(2.10061 -0.121977 0)
(2.18618 -0.0631941 0)
(2.21402 -0.00281669 0)
(2.18071 0.058286 0)
(2.08691 0.118239 1.95039e-21)
(1.93268 0.175499 0)
(1.72508 0.225728 0)
(1.46544 0.267659 0)
(1.17187 0.29445 0)
(0.840673 0.306722 0)
(0.516343 0.290808 0)
(0.176086 0.259897 0)
(-0.0900955 0.166063 1.63113e-21)
(-0.351231 0.122552 -1.62391e-21)
(-0.486345 -0.0106197 1.62234e-21)
(-0.576328 -0.135344 1.62486e-21)
(-0.666673 -0.217531 0)
(-0.806674 -0.20023 0)
(-1.05753 -0.123818 -1.6826e-21)
(-1.44345 0.026863 -1.71686e-21)
(-1.98205 0.212297 0)
(-2.64212 0.39288 0)
(-3.36333 0.573527 -1.96151e-21)
(-4.11971 0.678415 0)
(-4.85507 0.665162 0)
(-5.51622 0.595179 2.53919e-21)
(-6.10465 0.520811 0)
(-6.62076 0.449885 3.04188e-21)
(-7.06979 0.384258 6.57116e-21)
(-7.45488 0.323882 0)
(-7.78012 0.268705 0)
(-8.04867 0.21822 0)
(-8.26384 0.172001 0)
(-8.42845 0.129644 0)
(-8.54501 0.0909108 8.33697e-21)
(-8.61601 0.0556328 8.38276e-21)
(-8.64448 0.0236465 8.35596e-21)
(-8.63318 -0.00525131 0)
(-8.58579 -0.0312453 -8.10038e-21)
(-8.50497 -0.054445 0)
(-8.3941 -0.0748864 7.61373e-21)
(-8.25613 -0.0926755 7.30106e-21)
(-8.09414 -0.107886 0)
(-7.91144 -0.120683 0)
(-7.71065 -0.131246 0)
(-7.49463 -0.139755 5.75918e-21)
(-7.26583 -0.146411 0)
(-7.02672 -0.151418 0)
(-6.77936 -0.154968 0)
(-6.52563 -0.157299 0)
(-6.26712 -0.158618 0)
(-6.00506 -0.159173 0)
(-5.74034 -0.159193 0)
(-5.47351 -0.158908 0)
(-5.20476 -0.158472 -2.06604e-21)
(-4.93414 -0.15805 0)
(-4.66158 -0.157631 0)
(-4.387 -0.157241 1.01706e-21)
(-4.11046 -0.156758 6.92555e-22)
(-3.83226 -0.15608 0)
(-3.55289 -0.155039 -8.38597e-23)
(-3.27308 -0.153547 -1.98981e-22)
(-2.99376 -0.15148 0)
(-2.71603 -0.148804 7.18191e-22)
(-2.4411 -0.145485 0)
(-2.17016 -0.141597 0)
(-1.90427 -0.137249 -1.37393e-21)
(-1.64412 -0.132608 0)
(-1.39002 -0.127926 1.73145e-21)
(-1.14198 -0.123379 0)
(-0.899568 -0.119161 -2.03508e-21)
(-0.662117 -0.115442 -2.17028e-21)
(-0.428823 -0.112307 -2.29617e-21)
(-0.198656 -0.109725 -4.82769e-21)
(0.0293684 -0.107732 5.04809e-21)
(0.255989 -0.106144 0)
(0.481815 -0.104815 0)
(0.707123 -0.103593 0)
(0.931843 -0.102206 5.77835e-21)
(1.15549 -0.100534 5.91727e-21)
(1.37713 -0.0983794 -6.03507e-21)
(1.59563 -0.0955557 0)
(1.8096 -0.0920287 6.20053e-21)
(2.01743 -0.0877191 6.24613e-21)
(2.21754 -0.0826852 6.26695e-21)
(2.4083 -0.0770331 0)
(2.58825 -0.0709445 0)
(2.75633 -0.0646313 0)
(2.91208 -0.0581487 6.13683e-21)
(3.05545 -0.0517577 0)
(3.18644 -0.0455952 0)
(3.30543 -0.0397623 -5.90173e-21)
(3.41296 -0.0343187 0)
(3.50971 -0.0292871 0)
(3.59639 -0.024662 -5.63491e-21)
(3.67368 -0.0204199 0)
(3.74222 -0.0165301 0)
(3.80262 -0.0129626 5.37715e-21)
(3.85541 -0.00969381 5.29627e-21)
(3.9011 -0.00670557 0)
(3.94016 -0.00398566 -5.14343e-21)
(3.97307 -0.00152512 0)
(4.00031 0.000685806 5.00272e-21)
(4.02235 0.00265783 0)
(4.03962 0.00440912 4.87373e-21)
(4.05254 0.00596132 4.81336e-21)
(4.06151 0.00733949 0)
(4.06682 0.0085705 0)
(4.06878 0.00967147 0)
(4.06768 0.0106386 0)
(4.06379 0.0114742 0)
(4.05738 0.0121926 0)
(4.04868 0.0127724 0)
(4.03805 0.0131731 4.41085e-21)
(4.02581 0.0133871 -4.36859e-21)
(4.0123 0.0134419 0)
(3.99782 0.0133749 0)
(3.9826 0.0132217 0)
(3.96684 0.0130109 0)
(3.95067 0.012763 -8.35358e-21)
(3.93422 0.0124899 0)
(3.91756 0.0121965 8.21532e-21)
(3.90077 0.0118827 -8.14887e-21)
(3.88391 0.0115442 0)
(3.86706 0.0111741 0)
(3.85031 0.010764 0)
(3.83373 0.0103062 7.89827e-21)
(3.81742 0.00979668 7.83897e-21)
(3.8015 0.00923717 0)
(3.78606 0.00863587 7.72389e-21)
(3.7712 0.0080069 7.66801e-21)
(3.75699 0.00736806 -7.61317e-21)
(3.74348 0.00673805 0)
(3.73069 0.00613376 0)
(3.71864 0.00556838 -7.4544e-21)
(3.70729 0.0050506 0)
(3.69662 0.00458486 0)
(3.68658 0.00417198 0)
(3.67712 0.00381021 0)
(3.6682 0.003496 7.20629e-21)
(3.65975 0.00322504 7.15879e-21)
(3.65174 0.0029926 0)
(3.64409 0.00279428 7.06566e-21)
(3.63678 0.00262566 0)
(3.62976 0.00248357 0)
(3.62297 0.00236474 6.9304e-21)
(3.6164 0.00226781 0)
(3.60996 0.00219035 6.84306e-21)
(3.60367 0.0021327 0)
(3.5974 0.00209326 0)
(3.59121 0.00207494 6.71641e-21)
(3.58488 0.00207916 0)
(3.57857 0.0021105 6.63517e-21)
(3.57185 0.00217809 0)
(3.56509 0.00227838 0)
(3.55745 0.00244808 0)
(3.54977 0.0026395 -6.48257e-21)
(3.54033 0.00299068 0)
(3.53093 0.00328565 6.41343e-21)
(3.51827 0.0040146 0)
(3.50559 0.00437735 0)
(3.48741 0.00602132 0)
(3.4677 0.00620814 0)
(3.44077 0.0103405 0)
(3.40321 0.00936678 0)
(3.36468 0.0210535 0)
(3.27372 0.0157634 -1.25832e-20)
(3.22788 0.0549725 0)
(2.9495 0.0445634 0)
(0.00460089 0.218654 4.99772e-21)
(0.0623989 -0.122146 -4.99104e-21)
(0.196796 -0.434429 0)
(0.403158 -0.677119 3.35988e-21)
(0.645687 -0.823634 0)
(0.899842 -0.884787 1.60061e-21)
(1.14645 -0.877862 -3.44637e-21)
(1.37517 -0.820103 -3.5407e-21)
(1.57782 -0.724672 0)
(1.74764 -0.601991 -3.79756e-21)
(1.87779 -0.460161 -1.8235e-21)
(1.96431 -0.305169 0)
(2.00204 -0.142306 0)
(1.99047 0.0243046 0)
(1.92927 0.189537 0)
(1.81941 0.348965 -1.94879e-21)
(1.66132 0.495935 0)
(1.46035 0.626195 3.96523e-21)
(1.21899 0.732229 0)
(0.946321 0.8144 0)
(0.647184 0.859658 -3.56035e-21)
(0.331319 0.870121 0)
(0.0179252 0.817358 3.34601e-21)
(-0.293039 0.743549 -1.62662e-21)
(-0.553916 0.573375 1.61904e-21)
(-0.828444 0.367209 -1.61726e-21)
(-1.22659 0.430609 -1.61943e-21)
(-1.72766 0.59253 0)
(-2.33159 0.824886 0)
(-3.03618 1.14369 1.67469e-21)
(-3.79314 1.4501 -2.08803e-21)
(-4.5147 1.69468 0)
(-5.19503 1.77958 0)
(-5.77201 1.735 1.94901e-21)
(-6.26827 1.62847 0)
(-6.71003 1.48261 0)
(-7.10076 1.3208 -2.52689e-21)
(-7.44868 1.15972 0)
(-7.75366 1.00541 3.6051e-21)
(-8.01917 0.860315 -6.55053e-21)
(-8.246 0.725005 0)
(-8.43611 0.598785 0)
(-8.59027 0.480874 -1.62898e-20)
(-8.7093 0.37034 -1.67659e-20)
(-8.79365 0.266642 -1.7103e-20)
(-8.84414 0.169437 8.96711e-21)
(-8.86147 0.0786243 -8.3756e-21)
(-8.84628 -0.00586575 -2.55948e-20)
(-8.79984 -0.0838351 1.70105e-20)
(-8.72296 -0.155027 8.09589e-21)
(-8.61782 -0.219198 0)
(-8.48631 -0.276222 -7.61012e-21)
(-8.33099 -0.326111 7.63208e-21)
(-8.15444 -0.369029 0)
(-7.95897 -0.405259 0)
(-7.7473 -0.435211 0)
(-7.52173 -0.459374 -5.75683e-21)
(-7.28463 -0.478278 0)
(-7.03808 -0.492482 9.96608e-21)
(-6.78404 -0.502538 0)
(-6.52429 -0.509071 8.22578e-21)
(-6.2604 -0.512696 0)
(-5.99351 -0.514121 -6.55179e-21)
(-5.72448 -0.514052 0)
(-5.45372 -0.513144 4.97278e-21)
(-5.18131 -0.51194 -2.15643e-21)
(-4.90709 -0.510829 0)
(-4.6308 -0.509908 -2.79579e-21)
(-4.35225 -0.509095 -1.01689e-21)
(-4.07134 -0.508118 -6.92543e-22)
(-3.78832 -0.506532 0)
(-3.50368 -0.503934 -1.62247e-22)
(-3.2182 -0.499919 1.98526e-22)
(-2.93284 -0.494173 0)
(-2.64878 -0.486536 -7.17468e-22)
(-2.36728 -0.47698 1.84435e-21)
(-2.08964 -0.465674 0)
(-1.81696 -0.453001 1.37291e-21)
(-1.54999 -0.43946 0)
(-1.28903 -0.425746 -5.14125e-21)
(-1.03398 -0.412438 0)
(-0.784393 -0.400123 6.05323e-21)
(-0.539519 -0.389261 2.16903e-21)
(-0.298416 -0.380129 -2.24701e-21)
(-0.0600256 -0.372717 -4.73037e-21)
(0.176671 -0.366943 4.95248e-21)
(0.412517 -0.362419 0)
(0.648042 -0.358637 0)
(0.883543 -0.35503 0)
(1.11891 -0.350973 -1.72482e-20)
(1.35356 -0.345963 -5.9142e-21)
(1.58659 -0.339441 6.03194e-21)
(1.81677 -0.330989 0)
(2.04261 -0.320346 6.14202e-21)
(2.26248 -0.307393 -6.24281e-21)
(2.47472 -0.292251 -6.26359e-21)
(2.67763 -0.275316 0)
(2.86974 -0.257087 0)
(3.05011 -0.238083 0)
(3.21838 -0.218756 -6.13307e-21)
(3.37447 -0.199731 0)
(3.51857 -0.18141 1.1937e-20)
(3.65118 -0.164076 1.76673e-20)
(3.77296 -0.147891 -1.15948e-20)
(3.88464 -0.132908 0)
(3.98697 -0.119101 -5.60992e-21)
(4.08063 -0.106388 0)
(4.16627 -0.0946696 -1.08971e-20)
(4.24446 -0.0838512 5.3579e-21)
(4.31568 -0.0738598 5.2787e-21)
(4.3804 -0.0646444 0)
(4.43909 -0.0561714 1.54088e-20)
(4.49218 -0.0484151 -1.01262e-20)
(4.54012 -0.0413496 -4.99928e-21)
(4.58333 -0.0349431 0)
(4.62223 -0.0291533 -4.87021e-21)
(4.6572 -0.02393 -1.4423e-20)
(4.68861 -0.0192167 0)
(4.71683 -0.0149558 -9.38786e-21)
(4.74214 -0.0111002 -9.28207e-21)
(4.76481 -0.00762174 -9.18048e-21)
(4.78506 -0.0044956 0)
(4.80311 -0.00170266 0)
(4.81919 0.000747381 0)
(4.83344 0.00283657 4.40404e-21)
(4.84601 0.00457603 4.36451e-21)
(4.85709 0.00599131 0)
(4.86686 0.0071163 8.56609e-21)
(4.87549 0.00799576 8.48966e-21)
(4.88315 0.00867608 0)
(4.88998 0.00920008 8.3449e-21)
(4.89611 0.00960249 1.65472e-20)
(4.90162 0.00990862 -8.2065e-21)
(4.90658 0.0101348 -8.13819e-21)
(4.91105 0.0102894 0)
(4.91506 0.0103748 0)
(4.91865 0.0103896 0)
(4.92184 0.0103312 -7.88924e-21)
(4.92465 0.0101973 7.82919e-21)
(4.92709 0.00998824 1.55431e-20)
(4.92917 0.00970752 -7.71484e-21)
(4.93091 0.00936295 7.65872e-21)
(4.93229 0.0089661 7.60413e-21)
(4.93335 0.00853108 0)
(4.93409 0.00807284 0)
(4.93452 0.00760552 -7.44557e-21)
(4.93468 0.00714107 0)
(4.93458 0.00668897 0)
(4.93425 0.00625623 1.45893e-20)
(4.93373 0.00584777 0)
(4.93304 0.00546656 7.19781e-21)
(4.93221 0.00511434 -7.15025e-21)
(4.93125 0.00479175 0)
(4.93019 0.004499 7.05735e-21)
(4.92905 0.00423575 0)
(4.92783 0.00400185 0)
(4.92654 0.0037972 -6.92226e-21)
(4.92519 0.00362217 1.37568e-20)
(4.92378 0.00347813 -6.8351e-21)
(4.92229 0.0033658 0)
(4.92071 0.00329027 0)
(4.91904 0.00325093 6.70845e-21)
(4.91722 0.00326375 0)
(4.91526 0.00331912 6.62719e-21)
(4.91306 0.00346336 0)
(4.91061 0.0036492 0)
(4.90777 0.0040101 0)
(4.90448 0.00437298 6.47533e-21)
(4.90058 0.0051292 0)
(4.89579 0.00571409 -6.40632e-21)
(4.89014 0.00727093 0)
(4.88254 0.00806503 0)
(4.87408 0.011421 1.26328e-20)
(4.86075 0.0121932 -1.25862e-20)
(4.84802 0.020001 0)
(4.82181 0.0199427 0)
(4.80329 0.0400134 0)
(4.74534 0.0380861 3.76333e-20)
(4.72348 0.0979759 0)
(4.58915 0.104155 -2.52221e-20)
(0.0426857 0.00668058 1.82705e-23)
(0.181376 -0.400534 6.72579e-21)
(0.418642 -0.832951 0)
(0.665494 -1.13931 -6.81032e-21)
(0.894334 -1.30389 0)
(1.09669 -1.34992 0)
(1.27384 -1.3061 -3.11818e-22)
(1.42602 -1.19556 3.53444e-21)
(1.55141 -1.03597 4.05087e-21)
(1.64646 -0.840024 3.79334e-21)
(1.70717 -0.616714 0)
(1.72903 -0.373128 0)
(1.7076 -0.116772 -4.55841e-21)
(1.63923 0.144356 -9.1894e-21)
(1.52123 0.401672 9.15799e-21)
(1.35393 0.647087 0)
(1.14225 0.871947 8.80333e-21)
(0.893716 1.06893 -3.96437e-21)
(0.616346 1.2309 0)
(0.318251 1.35261 7.84007e-21)
(0.0076516 1.42727 3.55786e-21)
(-0.320073 1.43735 -7.19525e-21)
(-0.651784 1.3958 -3.34227e-21)
(-0.977098 1.23077 0)
(-1.33211 1.06506 6.72561e-21)
(-1.8695 1.19868 6.79279e-21)
(-2.46342 1.41589 0)
(-3.13848 1.72227 7.24087e-21)
(-3.8609 2.0857 0)
(-4.54618 2.4171 8.07942e-21)
(-5.14749 2.57318 3.77991e-21)
(-5.63045 2.59 0)
(-6.0399 2.51688 0)
(-6.3822 2.38092 0)
(-6.68496 2.20587 0)
(-6.95778 2.00403 0)
(-7.21207 1.79273 0)
(-7.45131 1.58289 1.38636e-20)
(-7.67536 1.38092 -2.13277e-20)
(-7.8823 1.18868 0)
(-8.06893 1.0065 0)
(-8.23198 0.833284 0)
(-8.36835 0.668132 -1.10889e-21)
(-8.47528 0.510075 1.67704e-20)
(-8.55084 0.35868 3.52094e-20)
(-8.59381 0.213838 -3.55431e-20)
(-8.60394 0.0759254 -1.82332e-20)
(-8.58134 -0.054288 1.7254e-20)
(-8.5268 -0.175718 7.67359e-22)
(-8.4419 -0.287406 1.73644e-20)
(-8.32887 -0.388573 0)
(-8.19029 -0.478725 1.61859e-20)
(-8.02897 -0.557676 5.2407e-22)
(-7.84774 -0.625575 0)
(-7.64934 -0.682804 0)
(-7.4364 -0.729985 -1.29508e-20)
(-7.21132 -0.767914 0)
(-6.97628 -0.797437 0)
(-6.73328 -0.819418 1.04772e-20)
(-6.48411 -0.834735 1.86392e-20)
(-6.23046 -0.844316 -8.2302e-21)
(-5.9738 -0.849168 0)
(-5.71526 -0.85046 6.55541e-21)
(-5.45556 -0.849428 0)
(-5.19492 -0.847247 5.27592e-21)
(-4.93314 -0.844904 4.22452e-21)
(-4.66966 -0.843015 -7.28648e-21)
(-4.40382 -0.841829 -3.08438e-21)
(-4.13503 -0.841054 0)
(-3.86293 -0.840118 3.22048e-21)
(-3.58763 -0.838176 0)
(-3.30969 -0.834445 1.00454e-21)
(-3.02995 -0.828195 -3.95471e-22)
(-2.74962 -0.818879 -1.48849e-21)
(-2.47012 -0.806217 2.51869e-21)
(-2.19301 -0.790162 -5.32488e-21)
(-1.91988 -0.771069 0)
(-1.65211 -0.749585 0)
(-1.39066 -0.726702 5.96041e-21)
(-1.13587 -0.703581 1.00635e-20)
(-0.887547 -0.681329 0)
(-0.64512 -0.660959 -4.01755e-21)
(-0.407586 -0.643196 0)
(-0.173724 -0.628459 1.34647e-20)
(0.0577802 -0.616763 1.54117e-22)
(0.2881 -0.607797 -1.5123e-22)
(0.518205 -0.600925 -1.02619e-20)
(0.748684 -0.595245 0)
(0.979759 -0.58976 1.10141e-20)
(1.21119 -0.583445 1.27633e-22)
(1.44235 -0.575372 0)
(1.67224 -0.564677 0)
(1.89948 -0.550685 0)
(2.12248 -0.532912 -1.23363e-20)
(2.33941 -0.511231 0)
(2.54839 -0.485802 0)
(2.74752 -0.457287 0)
(2.93529 -0.426529 0)
(3.11073 -0.394487 0)
(3.27344 -0.362204 -1.21733e-20)
(3.42343 -0.330637 0)
(3.56112 -0.30047 -1.19338e-20)
(3.68725 -0.272137 -1.17662e-20)
(3.80274 -0.245854 1.15923e-20)
(3.90856 -0.221659 0)
(4.0056 -0.199467 1.12396e-20)
(4.09466 -0.179111 0)
(4.17639 -0.160394 1.08958e-20)
(4.25134 -0.143142 -1.07305e-20)
(4.32 -0.127224 -3.16647e-20)
(4.3828 -0.112557 0)
(4.44017 -0.0990925 -3.07669e-20)
(4.49249 -0.0867927 -1.00925e-20)
(4.54016 -0.0756178 0)
(4.58355 -0.0655158 -1.96903e-20)
(4.62304 -0.0564203 -1.94425e-20)
(4.65898 -0.0482515 2.88179e-20)
(4.69169 -0.0409218 0)
(4.72145 -0.0343412 9.3876e-21)
(4.74854 -0.0284281 9.28184e-21)
(4.77314 -0.0231134 2.75279e-20)
(4.79546 -0.0183501 0)
(4.81564 -0.0141213 0)
(4.83384 -0.010423 0)
(4.85025 -0.0072386 8.80252e-21)
(4.86505 -0.00454677 0)
(4.87844 -0.00232175 0)
(4.89066 -0.000521492 -8.56589e-21)
(4.90192 0.000911861 -8.48943e-21)
(4.91243 0.00204514 0)
(4.92235 0.00294028 0)
(4.93181 0.00364892 -1.65465e-20)
(4.94088 0.00421119 0)
(4.94961 0.00465644 1.62774e-20)
(4.95804 0.00500281 1.61453e-20)
(4.96617 0.00525993 0)
(4.97402 0.00543239 0)
(4.98158 0.00552293 -1.5775e-20)
(4.98884 0.00553528 -1.25595e-24)
(4.99578 0.00547564 -1.00508e-24)
(5.00239 0.00535336 0)
(5.00864 0.00518102 -3.06321e-20)
(5.01452 0.00497356 0)
(5.01998 0.00474607 0)
(5.02504 0.0045117 0)
(5.02967 0.0042804 1.48895e-20)
(5.03387 0.00405855 0)
(5.03767 0.00384939 -2.93734e-20)
(5.04107 0.00365411 -1.45876e-20)
(5.0441 0.00347271 0)
(5.04679 0.0033048 -1.43938e-20)
(5.04917 0.00315001 0)
(5.05126 0.00300854 0)
(5.05311 0.00288077 -4.23386e-20)
(5.05472 0.00276808 2.80433e-20)
(5.05611 0.00267144 0)
(5.05732 0.00259393 2.76853e-20)
(5.05833 0.00253671 -1.37549e-20)
(5.05918 0.00250601 0)
(5.05984 0.00250161 0)
(5.06033 0.00253698 0)
(5.06063 0.00260663 -4.02452e-20)
(5.06074 0.00274288 0)
(5.06061 0.00292271 -1.3253e-20)
(5.06027 0.00322537 0)
(5.05957 0.00357175 0)
(5.05862 0.00416051 0)
(5.0571 0.00475228 0)
(5.05527 0.00586105 0)
(5.05243 0.00680589 0)
(5.04928 0.00892796 -2.54819e-20)
(5.04416 0.0103596 0)
(5.03889 0.0146115 -1.26308e-20)
(5.02965 0.016707 3.7735e-20)
(5.02089 0.0258169 0)
(5.00395 0.029116 0)
(4.98945 0.0505136 -2.49789e-20)
(4.95893 0.058623 -2.50594e-20)
(4.9377 0.11483 2.49917e-20)
(4.89472 0.14559 2.52148e-20)
(0.0437653 -0.242718 -1.01654e-20)
(0.308242 -0.935562 -1.02008e-20)
(0.583673 -1.40869 -6.99725e-21)
(0.803359 -1.64802 -3.79256e-21)
(0.97013 -1.72533 0)
(1.09661 -1.68945 7.88136e-21)
(1.19555 -1.57259 -4.49933e-21)
(1.27174 -1.39559 0)
(1.32636 -1.17272 -4.0497e-21)
(1.35797 -0.912542 0)
(1.36236 -0.61959 9.69266e-21)
(1.33336 -0.29841 0)
(1.26484 0.0436891 4.56051e-21)
(1.15073 0.394771 9.19276e-21)
(0.98826 0.740312 -9.16024e-21)
(0.779023 1.06517 0)
(0.531524 1.35532 -8.80318e-21)
(0.252265 1.59987 0)
(-0.0499374 1.79375 0)
(-0.369162 1.93247 -7.83603e-21)
(-0.694229 2.01936 0)
(-1.03231 2.04802 -4.79313e-22)
(-1.35687 1.96827 0)
(-1.75112 1.93225 0)
(-2.28866 2.09136 5.93432e-22)
(-2.88962 2.3169 -6.77409e-21)
(-3.51719 2.60205 -7.75153e-21)
(-4.16096 2.93387 -7.21648e-21)
(-4.74375 3.17466 0)
(-5.21269 3.26637 -1.73482e-20)
(-5.59196 3.24503 0)
(-5.90086 3.14784 -1.06712e-20)
(-6.16773 2.99571 0)
(-6.40339 2.80753 0)
(-6.62494 2.59631 1.30057e-20)
(-6.8354 2.37257 0)
(-7.04103 2.14454 -1.4648e-20)
(-7.24017 1.9174 1.60103e-21)
(-7.43177 1.6938 3.09516e-20)
(-7.6117 1.47451 -3.4009e-20)
(-7.77609 1.25952 0)
(-7.92034 1.04835 0)
(-8.04062 0.840761 -2.01574e-20)
(-8.13337 0.636803 0)
(-8.19596 0.437151 -1.81117e-20)
(-8.22633 0.243047 1.82533e-20)
(-8.22334 0.0564432 1.82479e-20)
(-8.18664 -0.12044 0)
(-8.11712 -0.285711 -1.78027e-20)
(-8.01675 -0.437663 -1.73799e-20)
(-7.88812 -0.574923 3.53818e-20)
(-7.73439 -0.696601 -1.6201e-20)
(-7.55906 -0.802436 -1.54772e-20)
(-7.36563 -0.892688 0)
(-7.15744 -0.9681 0)
(-6.93751 -1.02972 1.29638e-20)
(-6.70845 -1.07877 0)
(-6.47245 -1.11656 0)
(-6.23145 -1.14432 -2.04696e-20)
(-5.98716 -1.16324 -1.86584e-20)
(-5.74117 -1.17452 0)
(-5.49492 -1.17946 0)
(-5.24952 -1.17964 0)
(-5.00552 -1.17684 0)
(-4.76272 -1.17287 -1.0263e-20)
(-4.52029 -1.16929 9.12624e-21)
(-4.27691 -1.16712 7.29539e-21)
(-4.03103 -1.16673 1.21544e-20)
(-3.78119 -1.16759 0)
(-3.52637 -1.16855 3.69852e-22)
(-3.26628 -1.16813 0)
(-3.00138 -1.16491 -7.6178e-22)
(-2.73265 -1.1578 3.34982e-22)
(-2.46156 -1.14603 1.4834e-21)
(-2.18986 -1.12911 -2.51371e-21)
(-1.91949 -1.1069 2.765e-22)
(-1.65251 -1.07983 0)
(-1.3907 -1.04888 -4.95646e-21)
(-1.13548 -1.01557 -5.956e-21)
(-0.887469 -0.981832 -1.30797e-20)
(-0.646642 -0.949554 0)
(-0.412428 -0.920349 7.66103e-21)
(-0.183695 -0.895362 0)
(0.041054 -0.875155 -1.76344e-20)
(0.263476 -0.859707 9.39496e-21)
(0.485031 -0.848361 -9.84051e-21)
(0.706899 -0.840092 1.0259e-20)
(0.929745 -0.833474 2.09222e-20)
(1.15382 -0.827022 -1.10112e-20)
(1.3789 -0.81922 1.13395e-20)