/*--------------------------------*- C++ -*----------------------------------*\
  =========                 |
  \\      /  F ield         | OpenFOAM: The Open Source CFD Toolbox
   \\    /   O peration     | Website:  https://openfoam.org
    \\  /    A nd           | Version:  9
     \\/     M anipulation  |
\*---------------------------------------------------------------------------*/
FoamFile
{
    format      ascii;
    class       volScalarField;
    location    "0.048";
    object      p;
}
// * * * * * * * * * * * * * * * * * * * * * * * * * * * * * * * * * * * * * //

dimensions      [0 2 -2 0 0 0 0];

internalField   nonuniform List<scalar> 
12225
(
109.226
97.2933
92.0954
89.0936
86.9727
85.3018
83.8267
82.4765
81.236
80.1059
79.0693
78.1273
77.2324
76.4271
75.5843
74.946
74.1191
73.4806
107.407
96.9827
91.9954
89.0475
86.9484
85.2857
83.8163
82.4714
81.2341
80.1036
79.0659
78.1178
77.2256
76.3996
75.5827
74.8555
74.0821
73.0414
104.856
96.4243
91.8226
88.9763
86.9094
85.2535
83.791
82.4566
81.23
80.1062
79.0693
78.118
77.2187
76.384
75.5619
74.7762
73.9511
72.9926
102.428
95.5765
91.4811
88.8298
86.8332
85.2065
83.7652
82.4424
81.2206
80.094
79.0567
78.0983
77.1982
76.3463
75.5176
74.6965
73.8787
73.0315
98.686
94.4381
91.0693
88.6574
86.7445
85.1475
83.7222
82.4135
81.2024
80.085
79.051
78.0907
77.1847
76.3215
75.4839
74.6563
73.8517
73.0536
96.2424
93.3537
90.5515
88.4077
86.6148
85.0667
83.6721
82.3813
81.1773
80.0605
79.0269
78.0649
77.156
76.2846
75.4424
74.6175
73.8186
73.0443
93.2837
91.9731
89.9603
88.117
86.4635
84.972
83.6075
82.3367
81.146
80.0374
79.0071
78.0448
77.1335
76.2549
75.4104
74.5883
73.7929
73.022
90.5663
90.7147
89.3352
87.7989
86.2892
84.8634
83.531
82.2786
81.0999
79.9987
78.9715
78.0072
77.0893
76.2164
75.3731
74.5546
73.7608
72.9848
88.8953
89.3764
88.6505
87.4374
86.0883
84.7411
83.4431
82.211
81.0473
79.9555
78.9318
77.9706
77.0556
76.1815
75.3404
74.5272
73.7366
72.9652
88.3151
88.3364
88.0631
87.1107
85.9029
84.6215
83.349
82.131
80.9794
79.9011
78.8844
77.9316
77.0224
76.1501
75.3076
74.4936
73.7028
72.9263
84.2561
86.8494
87.3911
86.7839
85.7134
84.4944
83.2497
82.0474
80.907
79.8248
78.8196
77.8731
76.9726
76.1097
75.2795
74.4761
73.6947
72.923
81.7117
86.0599
87.0638
86.6342
85.5907
84.3834
83.1448
81.9563
80.8278
79.7577
78.7586
77.8216
76.9332
76.08
75.2595
74.466
73.6924
72.9291
82.869
85.5033
86.8098
86.4791
85.4922
84.2855
83.0503
81.8649
80.7415
79.6769
78.6837
77.755
76.8741
76.0321
75.2248
74.4476
73.6921
72.9486
77.212
85.3036
87.0242
86.624
85.4912
84.1979
82.9257
81.7382
80.6194
79.5641
78.587
77.6792
76.8201
75.9978
75.2088
74.4506
73.7154
72.9965
83.8006
87.4221
87.779
86.8651
85.519
84.0885
82.7756
81.5825
80.4602
79.411
78.4482
77.5575
76.7169
75.9176
75.1583
74.4341
73.7381
73.0616
91.7927
91.2755
89.6218
87.7185
85.8095
84.0431
82.5889
81.3458
80.2127
79.1837
78.2607
77.4147
76.6182
75.8627
75.1468
74.4667
73.817
73.1923
113.459
99.6407
92.1745
88.3093
85.6374
83.6792
82.1704
80.92
79.8204
78.8437
77.9691
77.1663
76.4158
75.7127
75.0547
74.4367
73.8532
73.2988
112.02
98.9502
91.9289
87.6487
84.8179
82.886
81.4189
80.2068
79.1756
78.2935
77.5172
76.8095
76.1551
75.5464
74.9762
74.4395
73.9342
73.4583
99.7973
92.0985
87.2432
84.2426
82.1239
80.7186
79.7163
78.8593
78.0908
77.4208
76.822
76.2615
75.7297
75.231
74.7633
74.3218
73.906
73.5154
77.6551
78.2056
78.7472
78.8191
78.5321
78.1425
77.7427
77.3015
76.8543
76.4362
76.0258
75.6404
75.2569
74.888
74.5331
74.1908
73.8644
73.5568
57.3179
68.1967
72.6642
74.758
75.6842
76.0809
76.2169
76.1567
75.9825
75.7642
75.5095
75.2115
74.9181
74.6298
74.3442
74.0622
73.7884
73.5257
53.7562
64.7197
69.7128
72.5139
73.959
74.6682
75.0367
75.1956
75.2053
75.1193
74.9957
74.8147
74.6095
74.3962
74.1766
73.952
73.7275
73.508
59.0489
64.3138
68.6248
71.3383
72.9242
73.8006
74.34
74.6509
74.7587
74.7756
74.6899
74.5688
74.417
74.2469
74.0659
73.8784
73.69
73.5067
59.2855
65.3123
68.6895
70.9237
72.3338
73.2288
73.8189
74.1662
74.3414
74.4061
74.4159
74.3538
74.249
74.1198
73.9744
73.8173
73.6536
73.4882
63.4942
66.8102
69.2011
70.9177
72.1285
72.9763
73.5627
73.9305
74.1516
74.2492
74.2797
74.2468
74.1659
74.054
73.9231
73.7812
73.6348
73.4879
64.6017
68.3402
69.7492
71.0008
72.0295
72.7991
73.351
73.7259
73.973
74.1104
74.1637
74.1505
74.0886
73.9942
73.8788
73.7517
73.6197
73.4864
70.3907
70.1511
70.4245
71.1677
72.0057
72.7177
73.2631
73.6462
73.8986
74.046
74.1107
74.1104
74.0591
73.9705
73.859
73.7376
73.6146
73.4936
76.432
71.6286
70.8668
71.3093
72.0127
72.6697
73.1874
73.5673
73.8309
73.9936
74.0726
74.0854
74.0433
73.9588
73.8493
73.7306
73.6109
73.495
77.5161
72.3441
71.1716
71.407
72.0119
72.6432
73.164
73.5496
73.8183
73.9849
74.0669
74.0795
74.0358
73.9487
73.8369
73.7199
73.6091
73.5072
77.3707
72.6382
71.3118
71.4598
72.0186
72.6242
73.1336
73.5219
73.801
73.979
74.0736
74.0966
74.0573
73.9673
73.8484
73.7229
73.6034
73.4979
74.8949
74.4888
73.9956
73.5977
73.4756
73.7006
74.2047
74.7786
75.2217
75.4247
75.4452
75.3284
75.1591
74.9918
74.8509
74.7413
74.6555
74.5776
74.4856
74.3558
74.1657
73.8955
73.531
73.0646
72.4986
71.8457
71.1345
70.4033
69.7112
69.1276
68.714
68.5813
68.7018
69.2049
70.0374
71.0715
72.2606
72.7873
72.2809
70.7707
69.1517
67.7664
65.6783
63.0863
61.1334
60.7368
62.0911
65.2428
69.4853
72.5927
73.1158
71.8643
70.8781
71.5361
72.8546
73.4647
72.9683
72.5413
72.4689
71.2357
68.1357
64.0638
59.6024
55.0822
50.6626
46.4039
42.3195
38.3941
34.6072
30.9347
27.3586
23.8627
20.4385
17.0848
13.8103
10.633
7.58253
4.70026
2.03999
-0.33494
-2.356
-3.95572
-5.07305
-5.65857
-5.68064
-5.12657
-4.0028
-2.3425
-0.188851
2.40531
5.38098
8.67576
12.226
15.969
19.8447
23.7966
27.7725
31.725
35.6121
39.3965
43.0451
46.5286
49.8216
52.9024
55.7526
58.3573
60.7049
62.7876
64.6016
66.147
67.4276
68.4507
69.2269
69.77
70.097
70.2259
70.1745
69.9663
69.6221
69.1634
68.6119
67.9893
67.3171
66.6167
65.9089
65.2135
64.5483
63.9286
63.3649
62.8616
62.416
62.0178
61.6506
61.2951
60.9334
60.553
60.149
59.7237
59.2838
58.8389
58.3989
57.9712
57.5597
57.1669
56.7955
56.4472
56.1255
55.8314
55.5492
55.255
54.9349
54.5967
54.2551
53.91
53.5595
53.2105
52.8859
52.6008
52.3426
52.0836
51.8054
51.4952
51.1445
50.745
50.2953
49.8135
49.3302
48.8714
48.4436
48.0364
47.6356
47.2327
46.8254
46.4167
46.01
45.6096
45.2189
44.8375
44.4826
44.1045
73.2606
72.8799
72.5163
72.2795
72.3374
72.7011
73.2685
73.8074
74.1542
74.2986
74.2884
74.2122
74.1405
74.1124
74.1272
74.1686
74.214
74.2409
74.2277
74.1536
73.9993
73.7461
73.3818
72.8965
72.2922
71.5826
70.7867
69.9561
69.1275
68.3727
67.7567
67.319
67.1939
67.3424
67.8765
68.5736
69.4619
70.1223
69.6594
69.162
68.4297
66.5053
63.7919
60.6235
57.7771
56.2737
56.7492
58.9743
63.1045
67.17
69.0206
68.2827
67.7454
69.1126
71.5058
73.0343
73.0088
71.932
70.9123
69.0543
65.8503
61.9326
57.7402
53.5278
49.4088
45.4111
41.5369
37.7675
34.0882
30.4841
26.9455
23.464
20.0366
16.6659
13.3625
10.1461
7.04837
4.11461
1.40254
-1.01998
-3.07906
-4.69995
-5.81513
-6.37619
-6.35912
-5.76554
-4.60909
-2.91327
-0.720218
1.91648
4.93645
8.27561
11.8691
15.6532
19.5669
23.5533
27.56
31.5397
35.4505
39.2556
42.9228
46.4231
49.7314
52.8265
55.69
58.3071
60.6663
62.7595
64.583
66.1369
67.4248
68.4538
69.2344
69.7805
70.1091
70.2367
70.1851
69.9749
69.6274
69.1643
68.6073
67.9781
67.2986
66.5902
65.874
65.1703
64.4975
63.8713
63.3029
62.7974
62.3524
61.9575
61.5958
61.2469
60.8919
60.5174
60.1181
59.6963
59.2587
58.8149
58.3758
57.95
57.5431
57.155
56.7811
56.4256
56.0949
55.7949
55.5103
55.2189
54.9031
54.5659
54.2269
53.8975
53.566
53.231
52.9074
52.6116
52.3422
52.0834
51.8084
51.5044
51.1539
50.7481
50.2921
49.8085
49.3254
48.8691
48.4439
48.0377
47.636
47.2308
46.8211
46.4099
46.0016
45.5979
45.2055
44.8164
44.4554
44.0611
73.5155
73.3408
73.1508
73.0335
73.0325
73.1356
73.3234
73.4504
73.4796
73.5043
73.5284
73.5247
73.5228
73.5507
73.6051
73.6792
73.7569
73.8177
73.8394
73.7986
73.6722
73.4393
73.0829
72.5909
71.9617
71.2042
70.3428
69.4225
68.4878
67.6132
66.8585
66.2796
65.9459
65.8386
65.9882
66.2875
66.6969
67.0603
67.0747
66.8889
66.0553
64.605
62.7068
59.8781
56.9631
55.3225
55.3432
56.9987
60.33
64.6787
67.4892
67.7394
67.7039
68.5663
70.7985
71.9999
71.7161
70.2322
68.0409
65.3016
62.0865
58.5738
54.9127
51.2016
47.5052
43.8389
40.216
36.637
33.102
29.6052
26.1402
22.7031
19.294
15.9194
12.5932
9.33841
6.18828
3.18984
0.404776
-2.09177
-4.21762
-5.89283
-7.04882
-7.63445
-7.61945
-6.99495
-5.78028
-4.01232
-1.73956
0.980999
4.08626
7.50994
11.1851
15.0462
19.0312
23.0823
27.1468
31.1776
35.1333
38.978
42.6806
46.2131
49.551
52.6735
55.5627
58.2037
60.5853
62.699
64.5407
66.1106
67.4121
68.4516
69.2405
69.7909
70.1221
70.251
70.1982
69.9845
69.6313
69.1604
68.5935
67.9524
67.2592
66.5358
65.8039
65.0843
64.3965
63.7572
63.1789
62.6678
62.2225
61.8326
61.4801
61.1426
60.799
60.4345
60.0435
59.629
59.1996
58.7649
58.3333
57.9118
57.5033
57.1114
56.7404
56.394
56.0682
55.7583
55.4649
55.1722
54.8675
54.5545
54.2402
53.9209
53.5916
53.2601
52.9429
52.6519
52.3761
52.0949
51.7974
51.4716
51.112
50.7129
50.2748
49.8106
49.3451
48.8961
48.468
48.0542
47.6453
47.2342
46.8199
46.4029
45.9876
45.5722
45.1657
44.756
44.3658
43.9355
73.9627
73.9515
73.8979
73.8381
73.8226
73.7806
73.8018
73.8921
73.6173
73.2797
73.06
72.9348
72.895
72.915
72.974
73.0536
73.1346
73.1977
73.2225
73.1878
73.0718
72.8521
72.5096
72.0298
71.4025
70.6364
69.7534
68.7906
67.8005
66.8528
66.0088
65.3379
64.8964
64.6839
64.7163
64.9262
65.2401
65.5483
65.7175
65.6807
65.2383
64.3958
63.1049
61.2767
59.563
58.6738
58.8316
59.7025
61.8836
65.4529
68.5938
69.7639
69.9216
70.1946
70.7077
70.5334
69.3017
67.1901
64.6563
61.8213
58.7695
55.5369
52.2058
48.8187
45.424
42.0266
38.6277
35.2231
31.817
28.4149
25.018
21.6252
18.237
14.8607
11.5109
8.21018
4.99271
1.90931
-0.972056
-3.56775
-5.78435
-7.53167
-8.73859
-9.35247
-9.32904
-8.66265
-7.38226
-5.53036
-3.16054
-0.333945
2.88279
6.41985
10.2069
14.1756
18.2613
22.4047
26.5524
30.6575
34.679
38.5818
42.3364
45.9163
49.2978
52.4604
55.3865
58.0615
60.474
62.6158
64.4818
66.0717
67.3894
68.4411
69.2386
69.7959
70.1306
70.2608
70.2066
69.9886
69.6281
69.1468
68.5666
67.9095
67.1978
66.4536
65.6993
64.9569
64.2471
63.5883
62.9948
62.4748
62.0281
61.6446
61.3047
60.9833
60.6561
60.3056
59.9255
59.5194
59.0971
58.6696
58.2476
57.8407
57.4529
57.0827
56.7129
56.3551
56.0189
55.7111
55.423
55.1375
54.8421
54.5364
54.2272
53.9182
53.6039
53.2832
52.969
52.6716
52.3841
52.0928
51.7866
51.456
51.0951
50.6995
50.2711
49.8188
49.3599
48.9106
48.4791
48.0613
47.6481
47.2324
46.8131
46.3897
45.9665
45.5411
45.1211
44.6941
44.2745
43.8133
74.0979
74.1318
74.1261
74.0758
74.1711
74.038
73.7686
73.6296
73.3846
73.1241
72.8779
72.6412
72.4305
72.2293
72.0645
71.9488
71.877
71.8341
71.7989
71.7459
71.6468
71.4741
71.2032
70.8131
70.2905
69.6334
68.8532
67.9794
67.0548
66.1399
65.3062
64.6307
64.1664
63.9384
63.9689
64.2176
64.5978
65.0227
65.3887
65.6344
65.6952
65.5399
65.1545
64.5398
63.9164
63.5765
63.6551
64.2276
65.3586
66.994
68.6488
69.59
69.7819
69.8976
69.5541
68.3647
66.3904
64.0754
61.6054
58.9155
56.0404
52.9713
49.7898
46.5485
43.301
40.0569
36.8094
33.5482
30.2675
26.9681
23.6502
20.3122
16.953
13.5795
10.2073
6.85882
3.56678
0.380872
-2.62783
-5.36592
-7.72282
-9.58816
-10.8737
-11.5101
-11.4966
-10.7944
-9.44902
-7.5078
-5.02787
-2.07446
1.28073
4.96251
8.89528
13.0058
17.2259
21.4937
25.7544
29.9612
34.0738
38.0578
41.8851
45.5308
48.9727
52.191
55.1686
57.8899
60.3434
62.5208
64.4161
66.0286
67.362
68.4248
69.2285
69.7881
70.1218
70.2489
70.1896
69.9646
69.5952
69.1028
68.509
67.8355
67.1045
66.3385
65.5605
64.7937
64.0603
63.3801
62.7693
62.2383
61.7883
61.4098
61.0821
60.7773
60.4675
60.1325
59.7643
59.3673
58.9531
58.535
58.124
57.7256
57.3422
56.974
56.6296
56.2968
55.9732
55.6634
55.3743
55.0962
54.8113
54.5171
54.2208
53.9247
53.6177
53.3015
52.9877
52.69
52.4028
52.1069
51.7897
51.4464
51.0759
50.6798
50.2594
49.8185
49.3693
48.9259
48.4955
48.0747
47.6563
47.235
46.8095
46.3792
45.9471
45.5114
45.0763
44.6323
44.184
43.6975
73.9291
73.9571
74.0463
74.0933
73.9263
73.5422
73.316
73.0852
72.5962
72.0268
71.4917
71.009
70.5725
70.2106
69.9017
69.6598
69.4773
69.3447
69.2502
69.1772
69.1055
69.012
68.8716
68.6605
68.3585
67.9513
67.436
66.8245
66.1464
65.453
64.8096
64.2825
63.9291
63.7888
63.8885
64.2039
64.6687
65.2238
65.7741
66.2572
66.6336
66.9136
67.0976
67.2263
67.468
67.7631
68.0343
68.2682
67.8152
66.9251
66.3268
66.1322
66.5033
67.0921
66.7192
65.3566
63.4315
61.2883
58.9507
56.3735
53.5623
50.5656
47.4664
44.3241
41.1737
38.0248
34.8738
31.7106
28.5229
25.3068
22.0623
18.7855
15.4679
12.1081
8.71648
5.31132
1.91881
-1.41664
-4.62204
-7.58934
-10.182
-12.2574
-13.6888
-14.4026
-14.3737
-13.6438
-12.2289
-10.1774
-7.55381
-4.43078
-0.888393
2.98959
7.11969
11.4219
15.8228
20.2574
24.6699
29.0133
33.2483
37.3424
41.2694
45.0056
48.5307
51.8266
54.8754
57.6602
60.1708
62.3974
64.3334
65.9769
67.3313
68.4061
69.2142
69.7722
70.0997
70.2175
70.1471
69.9098
69.5274
69.0211
68.4126
67.7234
66.9754
66.1911
65.3936
64.6067
63.8532
63.1539
62.5264
61.9828
61.5266
61.1492
60.829
60.5355
60.238
59.914
59.5551
59.1667
58.7638
58.3613
57.967
57.5832
57.214
56.8604
56.5245
56.2034
55.8937
55.6016
55.3272
55.059
54.7842
54.5
54.2126
53.9224
53.6287
53.3217
53.0111
52.7116
52.4192
52.1173
51.7923
51.4397
51.0622
50.665
50.2507
49.8212
49.3832
48.9458
48.5148
48.089
47.664
47.2359
46.8035
46.3658
45.9247
45.4787
45.0295
44.5697
44.0977
43.5904
73.6384
73.6466
73.4449
73.336
73.1504
72.6259
72.069
71.5317
70.8586
70.098
69.2974
68.5048
67.7564
67.0831
66.5002
65.9983
65.6043
65.3248
65.1533
65.0756
65.0721
65.1196
65.1922
65.2633
65.3067
65.2994
65.2247
65.0757
64.8612
64.6087
64.3612
64.1711
64.0909
64.1616
64.4064
64.8294
65.3864
66.0108
66.6531
67.2487
67.7637
68.1962
68.5486
68.9859
69.6166
70.1985
70.6691
70.3639
68.5677
66.1273
64.2968
63.6617
64.0072
64.2601
63.7504
62.4684
60.7374
58.7252
56.3947
53.798
50.9716
48.0345
45.0437
42.0278
38.9897
35.9379
32.8737
29.7913
26.6748
23.5167
20.3192
17.08
13.7857
10.4215
6.98299
3.47467
-0.0915645
-3.68449
-7.23326
-10.609
-13.6201
-16.0448
-17.6983
-18.4976
-18.4499
-17.6199
-16.0499
-13.8032
-10.9535
-7.58204
-3.77679
0.369148
4.76315
9.31727
13.9523
18.6004
23.205
27.7197
32.1075
36.3395
40.3918
44.2438
47.8782
51.2778
54.4241
57.2961
59.8894
62.1872
64.1813
65.8694
67.2554
68.3492
69.1657
69.7237
70.0445
70.1513
70.0671
69.8147
69.4168
68.8954
68.2722
67.5687
66.8065
66.0076
65.195
64.3925
63.6231
62.9078
62.2647
61.7075
61.2412
60.8586
60.5384
60.2499
59.9599
59.6434
59.2921
58.9123
58.5178
58.1254
57.7504
57.3965
57.0546
56.7188
56.391
56.0901
55.8008
55.5257
55.2651
55.0127
54.7541
54.4829
54.2063
53.9297
53.645
53.3448
53.037
52.7328
52.4355
52.1313
51.8024
51.4421
51.0568
50.6568
50.2466
49.8259
49.3968
48.9644
48.5332
48.1031
47.6718
47.237
46.7976
46.3526
45.9027
45.4463
44.9837
44.509
44.0173
43.4924
73.0712
72.9199
72.6058
72.1725
71.629
70.8577
69.956
68.9743
67.8894
66.7429
65.562
64.3887
63.2664
62.24
61.3406
60.5901
59.9917
59.5982
59.4004
59.3842
59.5294
59.8088
60.1919
60.6475
61.145
61.6571
62.1593
62.6315
63.0611
63.4462
63.7983
64.1411
64.5047
64.9187
65.4075
65.9804
66.6208
67.2995
67.9604
68.5699
69.095
69.4928
69.8398
70.3453
71.0187
71.7854
72.2905
71.3345
68.9921
66.564
64.3575
63.6452
63.3709
62.8652
61.8165
60.3097
58.47
56.3043
53.7999
51.0548
48.1977
45.3595
42.5318
39.6788
36.7722
33.8222
30.8437
27.839
24.7859
21.6681
18.4892
15.2496
11.9287
8.4966
4.93035
1.21333
-2.66992
-6.71357
-10.8474
-14.8917
-18.544
-21.4452
-23.3051
-24.0503
-23.8185
-22.733
-20.8761
-18.3285
-15.1671
-11.4722
-7.33391
-2.8542
1.86329
6.72124
11.6346
16.5328
21.3589
26.0682
30.6285
35.0153
39.2087
43.194
46.957
50.482
53.7538
56.7345
59.4404
61.8354
63.9103
65.6611
67.0916
68.213
69.0431
69.6039
69.9201
70.0171
69.9204
69.6544
69.2427
68.7082
68.0734
67.3601
66.5895
65.7836
64.9646
64.1559
63.3797
62.6558
62.0017
61.4313
60.9509
60.5542
60.2206
59.9209
59.6252
59.3092
58.9622
58.5913
58.2126
57.8405
57.4859
57.1543
56.842
56.5424
56.2541
55.9641
55.69
55.4328
55.1931
54.9612
54.7221
54.4688
54.2053
53.9385
53.6639
53.3725
53.0675
52.7595
52.4569
52.1487
51.8157
51.4496
51.0588
50.6562
50.2474
49.8316
49.4086
48.9809
48.5505
48.1171
47.6797
47.238
46.7914
46.339
45.8803
45.4139
44.9388
44.4503
43.9422
43.4023
71.547
71.2552
70.7427
70.0201
69.105
67.9603
66.6413
65.1828
63.5953
61.9266
60.2157
58.519
56.8974
55.4126
54.125
53.09
52.346
51.8997
51.7633
51.9234
52.3503
53.008
53.8564
54.8528
55.9543
57.1214
58.3199
59.5221
60.7043
61.8452
62.9302
63.9516
64.9075
65.8052
66.6604
67.4833
68.2713
69.0183
69.7068
70.308
70.791
71.133
71.4822
71.9647
72.6028
73.4824
73.6316
72.3774
70.4317
68.436
66.7927
65.5125
64.2492
62.7401
60.969
58.9823
56.7491
54.2033
51.3827
48.4417
45.5859
42.8604
40.1649
37.4176
34.5934
31.7116
28.7984
25.8606
22.8694
19.7946
16.6323
13.3713
9.97052
6.38428
2.57577
-1.49898
-5.8945
-10.6368
-15.6584
-20.7033
-25.2425
-28.6013
-30.4131
-30.8527
-30.1734
-28.6284
-26.367
-23.4516
-19.9305
-15.8684
-11.3515
-6.49219
-1.41031
3.78336
8.99742
14.1601
19.2161
24.1254
28.8612
33.4044
37.7421
41.8658
45.765
49.4273
52.8366
55.9639
58.8012
61.3186
63.4994
65.3354
66.8288
67.9913
68.8433
69.4108
69.723
69.8099
69.7003
69.4216
68.9988
68.4558
67.815
67.0983
66.3272
65.523
64.7073
63.9023
63.1286
62.404
61.7436
61.161
60.6628
60.2433
59.8838
59.5577
59.2392
58.9099
58.5619
58.2004
57.8381
57.4884
57.1619
56.8627
56.5859
56.3226
56.0674
55.8141
55.5679
55.3312
55.1086
54.897
54.6821
54.4517
54.2063
53.9522
53.6883
53.4065
53.1035
52.7914
52.4813
52.1666
51.8289
51.4596
51.0669
50.6632
50.2542
49.8399
49.4202
48.9956
48.5654
48.1287
47.6857
47.2375
46.7842
46.3247
45.8579
45.3822
44.8958
44.3948
43.8728
43.3199
68.465
68.1404
67.4869
66.5022
65.2326
63.6842
61.8997
59.901
57.6997
55.3421
52.8869
50.4241
48.0582
45.9102
44.1007
42.721
41.8175
41.3622
41.3767
41.8576
42.7787
44.088
45.7151
47.5774
49.5926
51.6876
53.8037
55.8966
57.9362
59.9019
61.775
63.5352
65.1633
66.6472
67.9807
69.1609
70.1953
71.0983
71.8714
72.5043
72.9622
73.3097
73.684
74.1514
74.7859
75.5843
75.4831
74.5866
73.3288
71.7227
69.7855
67.6789
65.4483
63.1587
60.8294
58.3689
55.6467
52.6318
49.4262
46.2787
43.3923
40.6972
38.0298
35.2913
32.4876
29.6472
26.7876
23.9024
20.9542
17.9112
14.7642
11.4784
7.97426
4.18249
0.0464261
-4.52611
-9.65407
-15.417
-21.7344
-28.1288
-33.5987
-37.1025
-38.4195
-38.1148
-36.7553
-34.6979
-32.0557
-28.8049
-24.944
-20.5148
-15.6014
-10.33
-4.84658
0.710453
6.23508
11.6546
16.921
22.005
26.8902
31.5674
36.0324
40.2827
44.3142
48.1179
51.6774
54.9664
57.9591
60.6238
62.9357
64.8807
66.4576
67.678
68.5645
69.1474
69.4607
69.5393
69.417
69.1248
68.6911
68.1416
67.4999
66.7875
66.0248
65.232
64.429
63.6361
62.8716
62.1507
61.486
60.8896
60.3686
59.9185
59.5225
59.1592
58.8092
58.4591
58.1037
57.7484
57.4052
57.0829
56.787
56.5198
56.279
56.0577
55.847
55.6385
55.4293
55.2199
55.0169
54.8242
54.6334
54.4298
54.2071
53.9686
53.7157
53.4418
53.1424
52.8272
52.509
52.1847
51.8397
51.4681
51.0769
50.6751
50.2665
49.852
49.4328
49.0084
48.5769
48.1371
47.6897
47.2362
46.7769
46.3108
45.8363
45.3519
44.8553
44.3431
43.809
43.2449
64.0942
63.7156
62.8919
61.6459
60.021
58.0161
55.6346
52.874
49.7536
46.352
42.7879
39.2187
35.8217
32.7809
30.2547
28.3844
27.2801
26.8046
27.0594
28.0575
29.7595
32.077
34.8925
38.0726
41.4773
44.9668
48.4142
51.7264
54.8548
57.7848
60.5137
63.038
65.3519
67.4459
69.3057
70.9209
72.2958
73.443
74.3695
75.0859
75.6329
76.0909
76.5252
77.0192
77.6278
78.2394
78.2018
77.8807
77.0097
75.1731
72.4826
69.5329
66.6371
63.9076
61.2037
58.3296
55.1391
51.6332
47.9837
44.5602
41.5374
38.7518
35.9986
33.1945
30.3787
27.5902
24.8181
22.0138
19.1168
16.0956
12.9459
9.61724
5.99156
1.95736
-2.58064
-7.78072
-13.8666
-20.9634
-28.8604
-36.6751
-42.8108
-45.9889
-46.4485
-45.1507
-43.1136
-40.6805
-37.8146
-34.3586
-30.2342
-25.4581
-20.1214
-14.3738
-8.40426
-2.4015
3.49163
9.19068
14.6555
19.8772
24.8617
29.619
34.1607
38.4954
42.6292
46.5585
50.2686
53.7281
56.8987
59.737
62.2063
64.2838
65.9643
67.2597
68.1956
68.8065
69.1312
69.2094
69.0791
68.7759
68.3323
67.7771
67.1356
66.4299
65.6801
64.9052
64.1232
63.3507
62.6021
61.8892
61.2223
60.6122
60.0652
59.5779
59.1382
58.7313
58.3451
57.9721
57.6097
57.2613
56.935
56.6377
56.3733
56.143
55.9387
55.757
55.59
55.4309
55.2693
55.098
54.9213
54.748
54.5782
54.3999
54.2019
53.9825
53.7429
53.4778
53.1824
52.865
52.5383
52.2024
51.848
51.4738
51.0862
50.6891
50.2825
49.8676
49.447
49.021
48.587
48.1439
47.6927
47.2347
46.7701
46.2975
45.8157
45.3231
44.8174
44.2952
43.7507
43.1769
58.719
58.2476
57.2242
55.6791
53.6156
50.9902
47.7574
43.9136
39.5278
34.7567
29.8086
24.9226
20.3427
16.2927
12.9584
10.4852
8.96972
8.64413
9.38653
11.1652
13.8851
17.422
21.6293
26.3484
31.4106
36.6367
41.825
46.7801
51.3609
55.5128
59.2508
62.6078
65.6149
68.2932
70.6545
72.7059
74.4514
75.8948
77.0484
77.9504
78.6727
79.3045
79.9107
80.4692
80.9839
81.4027
81.5965
81.5886
80.6733
78.312
74.8329
71.2445
67.9822
65.0174
62.0175
58.7738
55.1608
51.1864
47.064
43.241
39.915
36.9006
33.9714
31.0571
28.2116
25.4756
22.8186
20.1464
17.3551
14.39
11.2538
7.88877
4.12201
-0.197647
-5.1934
-11.1192
-18.3046
-26.8536
-36.3169
-45.3067
-51.7151
-54.3045
-53.8172
-51.7009
-49.2013
-46.6625
-43.8488
-40.3829
-36.0775
-30.9401
-25.1011
-18.7615
-12.1765
-5.602
0.765647
6.81844
12.519
17.8808
22.9352
27.7191
32.2717
36.6227
40.7948
44.799
48.6298
52.2488
55.6071
58.6425
61.2985
63.5365
65.3429
66.7284
67.7237
68.371
68.7165
68.8055
68.6794
68.3762
67.9306
67.3743
66.735
66.0367
65.3
64.5436
63.7841
63.0345
62.3042
61.6007
60.9325
60.3099
59.7388
59.2164
58.7349
58.2866
57.867
57.4729
57.1029
56.7601
56.4503
56.1764
55.9404
55.741
55.5756
55.4316
55.3067
55.1965
55.0873
54.9624
54.8198
54.6698
54.5194
54.3634
54.1895
53.9911
53.7664
53.5108
53.2199
52.9011
52.5669
52.2203
51.8576
51.481
51.0968
50.7048
50.3014
49.8865
49.464
49.0352
48.5978
48.1509
47.6957
47.2335
46.7638
46.2852
45.7964
45.2963
44.7824
44.2513
43.6976
43.1154
52.9395
52.3633
51.1017
49.1725
46.5227
43.0645
38.7392
33.5954
27.7999
21.615
15.344
9.29101
3.72556
-1.12079
-5.03313
-7.82823
-9.37728
-9.61168
-8.48147
-6.04649
-2.4201
2.24443
7.75348
13.8914
20.4562
27.2949
34.2499
41.0527
47.3863
53.0431
57.9876
62.2838
66.0161
69.2597
72.0746
74.5031
76.573
78.306
79.7259
80.8815
81.8422
82.6546
83.3993
84.1385
84.5727
84.8472
85.1305
85.187
83.9816
81.1788
77.1404
73.158
69.6437
66.4635
63.187
59.6235
55.6503
51.2532
46.6649
42.3424
38.5481
35.1625
31.9838
28.9338
26.0456
23.3421
20.7705
18.2245
15.6072
12.7991
9.7151
6.31712
2.46395
-2.10204
-7.58056
-14.2484
-22.4902
-32.3346
-43.0745
-52.9096
-59.4635
-61.654
-60.4425
-57.6315
-54.9063
-52.6025
-50.1518
-46.841
-42.3903
-36.8443
-30.4086
-23.368
-16.0679
-8.83494
-1.92029
4.54173
10.5141
16.0355
21.1612
25.9583
30.4888
34.8016
38.9422
42.9475
46.8317
50.5689
54.0988
57.3373
60.2008
62.6266
64.5854
66.0826
67.1515
67.8427
68.2126
68.3152
68.1982
67.9035
67.4677
66.9229
66.2968
65.6132
64.8929
64.1547
63.4147
62.6843
61.9696
61.2746
60.606
59.9731
59.3819
58.8314
58.3178
57.8387
57.3938
56.9827
56.605
56.2637
55.9644
55.7095
55.5012
55.3347
55.2023
55.0949
55.0094
54.9434
54.8847
54.8112
54.7106
54.5898
54.4604
54.3238
54.171
53.9923
53.7829
53.5375
53.2521
52.9333
52.594
52.2405
51.8727
51.4946
51.1121
50.7236
50.3229
49.9082
49.4834
49.051
48.6098
48.159
47.6998
47.2332
46.7585
46.2742
45.7789
45.2718
44.7504
44.2113
43.6494
43.0598
47.8051
47.0944
45.5457
43.1598
39.8265
35.451
30.0106
23.6508
16.6447
9.32848
2.02188
-4.99542
-11.473
-17.1763
-21.8582
-25.2554
-27.1534
-27.4275
-26.1037
-23.1539
-18.6536
-12.7787
-5.78028
2.03244
10.2677
18.5956
26.9538
35.2903
43.284
50.5334
56.8119
62.129
66.6105
70.3942
73.6044
76.3408
78.6717
80.6437
82.2985
83.6926
84.881
85.8829
86.7038
87.613
88.0722
88.2112
88.3342
88.332
87.0253
83.9749
79.5838
75.3023
71.5606
68.155
64.6201
60.781
56.5026
51.7421
46.6842
41.7427
37.3319
33.4231
29.9017
26.6925
23.7842
21.1527
18.7331
16.3641
13.8907
11.2344
8.32051
4.98497
1.04962
-3.71525
-9.57342
-16.8272
-25.8446
-36.6051
-48.209
-58.5931
-65.3322
-67.4714
-65.8463
-62.5937
-59.9271
-58.1248
-56.2591
-53.2117
-48.6927
-42.7979
-35.7883
-28.0341
-19.9797
-12.0381
-4.52266
2.40185
8.67511
14.3661
19.5601
24.3651
28.8648
33.1198
37.1881
41.1306
44.9936
48.7782
52.4295
55.8483
58.9207
61.5506
63.6831
65.312
66.4713
67.2196
67.6242
67.7483
67.6458
67.3624
66.9387
66.4097
65.8045
65.1457
64.4517
63.7385
63.02
62.3071
61.606
60.92
60.2537
59.6139
59.0061
58.4316
57.8912
57.3865
56.9196
56.4923
56.1061
55.7644
55.4726
55.2347
55.052
54.9169
54.8209
54.7539
54.7085
54.6829
54.6696
54.6465
54.5928
54.5075
54.4021
54.2839
54.1487
53.987
53.7917
53.5568
53.2783
52.9618
52.6204
52.2636
51.8943
51.5161
51.1339
50.7464
50.3467
49.9316
49.5042
49.0679
48.6228
48.1683
47.705
47.234
46.7546
46.2649
45.7636
45.25
44.7216
44.1751
43.606
43.0098
44.7473
43.8392
41.9454
39.0767
35.0805
29.8758
23.4918
16.1539
8.19483
-0.0418906
-8.2724
-16.2507
-23.7229
-30.4258
-36.0602
-40.2865
-42.8076
-43.4396
-42.0426
-38.5996
-33.1976
-26.1261
-17.742
-8.23574
1.93284
12.0033
21.5568
30.8188
39.918
48.4625
55.9541
62.2328
67.4107
71.6809
75.2216
78.1823
80.69
82.8338
84.6651
86.2203
87.5598
88.7257
89.5951
90.5006
91.1196
91.2138
91.1153
90.8143
89.6371
86.7173
82.2927
77.615
73.4865
69.8042
66.0553
62.0154
57.5432
52.5501
47.1485
41.6879
36.5778
32.0256
28.0214
24.517
21.4798
18.8599
16.6224
14.4637
12.2741
9.84095
7.02187
3.76543
-0.126445
-4.9583
-11.0567
-18.6827
-28.0688
-39.201
-51.119
-61.7293
-68.691
-71.1156
-69.5819
-66.2853
-63.9089
-62.8069
-61.6876
-59.0662
-54.7176
-48.7398
-41.3667
-32.9888
-24.1511
-15.3973
-7.18661
0.279957
6.94676
12.8731
18.1792
22.9992
27.4536
31.6335
35.6125
39.464
43.2554
47.0153
50.7101
54.2454
57.4919
60.3204
62.6386
64.4152
65.6782
66.4935
66.941
67.0962
67.0202
66.7606
66.3581
65.8498
65.2676
64.636
63.9723
63.2897
62.5987
61.908
61.2233
60.5478
59.8849
59.2393
58.6153
58.0167
57.4484
56.9154
56.4218
55.972
55.5717
55.2274
54.9451
54.7285
54.5732
54.4755
54.4246
54.4059
54.406
54.4217
54.45
54.4734
54.4673
54.4219
54.3448
54.2458
54.1258
53.978
53.7948
53.5699
53.2994
52.9875
52.647
52.2899
51.9214
51.5445
51.1621
50.7735
50.3726
49.9559
49.5255
49.0854
48.6366
48.1784
47.7113
47.2361
46.7521
46.2576
45.7509
45.2312
44.6961
44.1428
43.567
42.9651
45.0807
43.8201
41.5308
38.1843
33.5954
27.7149
20.6171
12.5711
3.92129
-4.98368
-13.8745
-22.5758
-30.7234
-37.9985
-44.1123
-48.6427
-51.4109
-52.145
-50.6015
-46.8178
-40.6978
-32.8287
-24.2452
-14.4128
-3.02761
8.58996
18.9275
28.5393
38.0311
47.4719
55.7362
62.6897
68.383
73.0227
76.8204
79.9476
82.5522
84.7627
86.6782
88.3403
89.7555
90.9757
91.9636
92.7557
93.4567
93.627
93.3751
92.7827
91.649
89.1396
85.0934
80.2199
75.6354
71.5186
67.5011
63.2893
58.7272
53.7027
48.2415
42.5592
36.9875
31.8179
27.2038
23.1971
19.7911
16.8916
14.9169
12.6677
10.5601
8.37639
5.80712
2.65933
-1.21743
-6.03484
-12.126
-19.8089
-29.19
-40.1161
-51.6939
-62.121
-69.2601
-72.2674
-71.3938
-68.4614
-66.5867
-66.4313
-66.1942
-64.2259
-60.3727
-54.6686
-47.2132
-38.3473
-28.7465
-19.0309
-10.0229
-1.89741
5.24557
11.4806
16.9583
21.8385
26.2658
30.3635
34.2381
37.987
41.691
45.3893
49.0602
52.6262
55.9683
58.9465
61.4362
63.3687
64.7507
65.6477
66.1494
66.3436
66.3019
66.0774
65.7104
65.2366
64.6878
64.0896
63.46
62.8112
62.1516
61.4874
60.8217
60.1569
59.4958
58.8418
58.1984
57.5708
56.9675
56.3977
55.8693
55.3904
54.9697
54.6174
54.3432
54.1504
54.0336
53.9853
53.9929
54.0349
54.0921
54.1571
54.2285
54.2955
54.3356
54.3327
54.2879
54.2105
54.1052
53.9689
53.7956
53.5797
53.3175
53.0121
52.6749
52.3194
51.9531
51.5783
51.1958
50.8046
50.4008
49.9813
49.5477
49.1039
48.6514
48.1896
47.7186
47.2393
46.7512
46.2523
45.7408
45.2153
44.6741
44.1144
43.5327
42.9257
49.8978
48.1176
45.3043
41.4309
36.3718
30.0792
22.6353
14.2892
5.37048
-3.78962
-12.9021
-21.7062
-29.9019
-37.1687
-43.18
-47.6071
-50.2278
-50.878
-49.329
-45.5556
-39.8586
-32.4877
-23.9069
-14.3995
-3.36385
8.66516
19.6774
29.1893
38.4046
47.7308
56.2965
63.5625
69.4761
74.2542
78.1373
81.3289
83.9779
86.2
88.0919
89.743
91.1897
92.4169
93.4392
94.2111
94.7887
95.0625
94.8374
94.1127
92.8784
90.8219
87.4733
82.9754
78.1335
73.5527
69.1614
64.7095
60.0515
55.079
49.7504
44.1631
38.5302
33.1002
28.0718
23.5673
19.6512
16.3419
13.6455
11.2782
9.10476
6.93599
4.48148
1.4606
-2.27091
-6.98584
-12.9485
-20.3563
-29.2791
-39.49
-50.204
-59.95
-67.084
-70.7666
-70.956
-68.9782
-67.8944
-68.5245
-69.1668
-68.0566
-64.9534
-59.7978
-52.5083
-43.3353
-33.0615
-22.6274
-12.8259
-4.02816
3.63553
10.2395
15.9433
20.9209
25.3407
29.3599
33.1226
36.7639
40.3885
44.0323
47.6559
51.1826
54.5185
57.5466
60.1383
62.1956
63.6929
64.6811
65.2531
65.5039
65.5108
65.3318
65.0101
64.5815
64.0775
63.5233
62.9364
62.3277
61.7035
61.0675
60.4213
59.7661
59.1044
58.4387
57.7716
57.1094
56.4635
55.8472
55.2733
54.7551
54.3061
53.94
53.669
53.4976
53.423
53.4341
53.5123
53.6298
53.7598
53.8872
54.0089
54.1199
54.204
54.2432
54.2327
54.1791
54.0891
53.9632
53.7981
53.5898
53.3354
53.037
52.7046
52.3521
51.9885
51.6159
51.2332
50.8388
50.4309
50.0079
49.5711
49.1236
48.6673
48.2018
47.7271
47.2438
46.7517
46.2489
45.7328
45.2021
44.6551
44.0899
43.5029
42.8914
57.6838
55.2641
51.8307
47.5061
42.1949
35.8204
28.4115
20.155
11.3542
2.35525
-6.51888
-14.9954
-22.814
-29.7188
-35.4791
-39.7964
-42.413
-43.2433
-42.0936
-38.8313
-33.7865
-27.0132
-18.745
-9.7052
0.368588
11.7116
22.5442
31.703
40.2667
49.0904
57.4796
64.6846
70.5469
75.2663
79.0768
82.1986
84.7983
86.9929
88.8659
90.4699
91.8607
93.0565
94.0558
94.8289
95.3179
95.5766
95.4384
94.7734
93.5287
91.6825
88.9575
85.1779
80.6085
75.79
71.0084
66.2437
61.3922
56.3586
51.088
45.6186
40.0741
34.6267
29.4484
24.676
20.3962
16.6474
13.4197
10.6153