/*--------------------------------*- C++ -*----------------------------------*\
  =========                 |
  \\      /  F ield         | OpenFOAM: The Open Source CFD Toolbox
   \\    /   O peration     | Website:  https://openfoam.org
    \\  /    A nd           | Version:  9
     \\/     M anipulation  |
\*---------------------------------------------------------------------------*/
FoamFile
{
    format      ascii;
    class       volScalarField;
    location    "0.048";
    object      s_0;
}
// * * * * * * * * * * * * * * * * * * * * * * * * * * * * * * * * * * * * * //

dimensions      [0 0 0 0 0 0 0];

internalField   nonuniform List<scalar> 
12225
(
1
1
1
1
1
1
1
1
1
1
1
1
1
1
1
1
1
0.999981
1
1
1
1
1
1
1
1
1
1
1
1
1
1
1
1
1
0.999999
1
1
1
1
1
1
1
1
1
1
1
1
1
1
1
1
1
1
1
1
1
1
1
1
1
1
1
1
1
1
1
1
1
1
1
1
1
1
1
1
1
1
1
1
1
1
1
1
1
1
1
1
1
1
1
1
1
1
1
1
1
1
1
1
1
1
1
1
1
1
1
1
1
1
1
1
1
1
1
1
1
1
1
1
1
1
1
1
1
1
1
1
1
1
1
1
1
1
1
1
1
1
1
1
1
1
1
1
1
1
1
1
1
1
1
1
1
1
1
1
1
1
1
1
1
1
1
1
1
1
1
1
1
1
1
1
1
1
1
1
1
1
1
1
1
1
1
1
1
1
1
1
1
1
1
1
1
1
1
1
1
1
1
1
1
1
1
1
1
1
1
1
1
1
1
1
1
1
1
1
1
1
1
1
1
1
1
1
1
1
1
1
1
1
1
1
1
1
1
1
1
1
1
1
1
1
1
1
1
1
1
1
1
1
1
1
1
1
1
1
1
1
1
1
1
1
1
1
1
1
1
1
1
1
1
1
1
1
1
1
1
1
1
1
1
1
1
1
1
1
1
1
1
1
1
1
1
1
1
1
1
1
1
1
1
1
1
1
1
1
1
1
1
1
1
1
1
1
1
1
1
1
1
1
1
1
1
1
1
1
1
1
1
1
1
1
1
1
1
1
1
1
1
1
1
1
1
1
1
1
1
1
1
1
1
1
1
1
1
1
1
1
1
1
1
1
1
1
1
1
1
1
1
1
1
1
1
1
1
1
1
1
1
1
1
1
1
1
1
1
1
1
1
1
1
1
1
1
1
1
1
1
1
1
1
1
1
1
1
1
1
1
1
1
1
1
1
1
1
1
1
1
1
1
1
1
1
1
1
1
1
1
1
1
1
1
1
1
1
1
1
1
1
1
1
1
1
1
1
1
1
1
1
1
1
1
1
1
1
1
1
1
1
1
1
1
1
1
1
1
1
1
1
1
1
1
1
1
1
1
1
1
1
1
1
1
1
1
1
1
1
1
1
1
1
1
1
1
1
1
1
1
1
1
1
1
1
1
1
1
1
1
1
1
1
1
1
1
1
1
1
1
1
1
1
1
1
1
1
1
1
1
1
1
1
1
1
1
1
1
1
1
1
1
0.700422
0.696143
0.678989
0.66931
0.663501
0.660896
0.664598
0.670255
0.672628
0.675257
0.679089
0.6807
0.681277
0.681418
0.681329
0.681026
0.680541
0.679807
0.678761
0.677704
0.676285
0.674905
0.673766
0.672801
0.672355
0.672357
0.672784
0.673978
0.676752
0.680485
0.684682
0.693742
0.699169
0.707673
0.716847
0.722892
0.738021
0.748741
0.717969
0.587404
0.549695
0.558617
0.578949
0.599476
0.616406
0.630951
0.653588
0.687475
0.72645
0.755299
0.767815
0.768175
0.765447
0.75957
0.742313
0.68206
0.668386
0.711045
0.796802
0.818319
0.825188
0.833318
0.84127
0.849444
0.857423
0.865114
0.871804
0.876703
0.879806
0.881802
0.88334
0.884832
0.886534
0.887934
0.888545
0.889029
0.889482
0.88958
0.889592
0.889537
0.889362
0.889099
0.888773
0.888259
0.887431
0.886646
0.886166
0.885956
0.885902
0.885984
0.886015
0.886073
0.886383
0.88695
0.887499
0.888017
0.888657
0.889496
0.890341
0.89097
0.891815
0.892897
0.89404
0.895049
0.896417
0.897816
0.898965
0.900418
0.902196
0.903502
0.904953
0.906458
0.90779
0.909061
0.910235
0.911291
0.912296
0.913228
0.9141
0.914924
0.915713
0.916479
0.917229
0.917972
0.918711
0.919448
0.920193
0.920948
0.921716
0.922503
0.923314
0.924152
0.925019
0.925935
0.926939
0.928042
0.929297
0.930716
0.932146
0.933282
0.933813
0.93383
0.933144
0.929825
0.92289
0.91631
0.910039
0.903391
0.895676
0.886978
0.878142
0.870257
0.864241
0.860511
0.85872
0.857761
0.856192
0.85204
0.847302
0.843397
0.837136
0.823644
0.788423
0.682003
0.51137
0.359012
0.243519
0.165967
0.117221
0.0869643
0.0674159
0.0539096
0.0436135
0.0351757
0.0277334
0.0210211
0.0154122
0.0102591
0.00773177
0.00204644
0.699589
0.700975
0.68123
0.631805
0.598044
0.61025
0.633415
0.651539
0.657332
0.655314
0.650467
0.640674
0.631692
0.620246
0.608975
0.597051
0.585678
0.573792
0.562027
0.551029
0.540187
0.530163
0.520853
0.512036
0.503539
0.495666
0.491561
0.491022
0.491765
0.495668
0.501664
0.513727
0.533317
0.552627
0.594735
0.629383
0.677317
0.72389
0.727434
0.711957
0.644959
0.575822
0.546453
0.524994
0.502634
0.501569
0.518292
0.553932
0.637758
0.734696
0.778682
0.789327
0.789125
0.780048
0.735861
0.686182
0.737192
0.784502
0.798377
0.792008
0.782253
0.776507
0.774634
0.774548
0.777173
0.784127
0.793077
0.802365
0.811655
0.820547
0.82666
0.831285
0.833592
0.834015
0.83394
0.833332
0.831994
0.829871
0.826982
0.823452
0.819608
0.815898
0.812751
0.810376
0.808265
0.806568
0.805814
0.805443
0.805298
0.805251
0.805201
0.805187
0.805647
0.806323
0.806807
0.807441
0.808501
0.810101
0.8119
0.813302
0.815625
0.817881
0.82052
0.823264
0.826935
0.831203
0.835291
0.840268
0.845895
0.851333
0.857789
0.864189
0.870771
0.877115
0.882944
0.887899
0.89222
0.896104
0.899513
0.902441
0.904918
0.907003
0.908768
0.910289
0.911643
0.912894
0.914105
0.915326
0.916605
0.917962
0.919385
0.920811
0.922137
0.923215
0.923804
0.92387
0.923427
0.922701
0.922698
0.923979
0.929054
0.938242
0.948063
0.956991
0.962871
0.965119
0.965258
0.964132
0.958481
0.944138
0.932692
0.923849
0.913394
0.899973
0.886719
0.877675
0.873401
0.870935
0.867539
0.863408
0.860375
0.858527
0.855538
0.848394
0.829516
0.800796
0.769373
0.731307
0.684741
0.637874
0.599489
0.576414
0.564183
0.555889
0.539914
0.50263
0.411589
0.306216
0.232265
0.131549
0.691417
0.696982
0.68883
0.652554
0.626818
0.634712
0.655278
0.660417
0.657067
0.645562
0.624276
0.600277
0.579388
0.561778
0.54836
0.534585
0.52358
0.511496
0.501196
0.489558
0.478588
0.466991
0.455238
0.443177
0.430964
0.418826
0.408601
0.39883
0.389716
0.386554
0.387644
0.392345
0.403401
0.417002
0.451914
0.483402
0.521344
0.609382
0.685789
0.706187
0.703168
0.68155
0.611977
0.552482
0.514188
0.495268
0.496183
0.515848
0.581785
0.69334
0.769771
0.789666
0.787764
0.76507
0.697924
0.734335
0.774749
0.782098
0.773279
0.762747
0.759191
0.755734
0.751048
0.743162
0.73509
0.733559
0.733637
0.734815
0.737204
0.740722
0.744989
0.749712
0.754162
0.757232
0.758602
0.759279
0.760167
0.761356
0.762028
0.762569
0.763729
0.76574
0.767691
0.769471
0.771984
0.774125
0.775977
0.777297
0.778185
0.778507
0.778572
0.778506
0.778257
0.777873
0.777551
0.77722
0.77705
0.777033
0.777267
0.777386
0.777984
0.778429
0.779256
0.780044
0.781018
0.782217
0.783422
0.784981
0.786793
0.788937
0.791634
0.794975
0.799165
0.804413
0.81092
0.818874
0.827886
0.837234
0.84645
0.855124
0.862915
0.869577
0.875016
0.879319
0.882721
0.885529
0.888112
0.89087
0.894187
0.898391
0.903663
0.90995
0.916837
0.923504
0.929215
0.933883
0.936895
0.937858
0.936463
0.928442
0.918978
0.914254
0.913788
0.916961
0.932156
0.95115
0.963837
0.970228
0.971732
0.971216
0.966932
0.960145
0.956025
0.949605
0.937832
0.922092
0.906493
0.895531
0.890697
0.887775
0.882799
0.876324
0.87096
0.867366
0.864534
0.862775
0.862507
0.863692
0.868453
0.872567
0.87465
0.875755
0.875929
0.875634
0.873905
0.868944
0.855349
0.839072
0.804963
0.690181
0.632667
0.631174
0.602172
0.599487
0.624412
0.670482
0.669986
0.658774
0.621013
0.599906
0.583566
0.568148
0.55409
0.541906
0.532363
0.522061
0.513946
0.503808
0.495006
0.483448
0.472614
0.459318
0.445786
0.431152
0.416166
0.400238
0.383288
0.367128
0.352041
0.33855
0.332759
0.333515
0.338291
0.348588
0.365578
0.402831
0.43701
0.471216
0.552989
0.648905
0.689291
0.693718
0.687647
0.666557
0.616287
0.56515
0.560102
0.571752
0.602773
0.683771
0.766161
0.785849
0.77515
0.717277
0.710343
0.765073
0.773045
0.768118
0.765659
0.766312
0.773871
0.783232
0.785878
0.78495
0.776512
0.759706
0.743906
0.737918
0.736652
0.736734
0.737727
0.73972
0.742324
0.744981
0.747472
0.750205
0.753828
0.758415
0.763318
0.768442
0.775529
0.784938
0.795806
0.808132
0.820915
0.83025
0.836935
0.840958
0.842722
0.843128
0.840707
0.837196
0.832532
0.82689
0.82105
0.815014
0.809475
0.804889
0.80041
0.796609
0.792813
0.789704
0.787107
0.785096
0.783677
0.782797
0.78228
0.782003
0.781893
0.78187
0.781951
0.78212
0.782423
0.782885
0.783537
0.784388
0.785449
0.786933
0.789019
0.791674
0.794755
0.798104
0.801522
0.804859
0.808091
0.811299
0.814647
0.818377
0.822801
0.828249
0.835075
0.843665
0.854454
0.867875
0.883876
0.901389
0.919516
0.936523
0.949225
0.955438
0.956602
0.953431
0.934675
0.915869
0.910125
0.910514
0.918453
0.942571
0.960753
0.969587
0.972556
0.973002
0.972678
0.970874
0.965072
0.950519
0.933215
0.917361
0.905242
0.898237
0.895186
0.891855
0.885657
0.878216
0.872465
0.869722
0.869142
0.869301
0.870478
0.874701
0.885935
0.901313
0.917986
0.934426
0.946927
0.953414
0.954291
0.953627
0.949904
0.922184
0.507757
0.55344
0.6527
0.692854
0.695946
0.683613
0.651713
0.622944
0.606106
0.592771
0.580733
0.575688
0.574805
0.575702
0.576577
0.576261
0.573007
0.567152
0.557768
0.543922
0.527837
0.505843
0.483086
0.456506
0.430132
0.404557
0.381179
0.359791
0.340763
0.32389
0.310126
0.303213
0.30276
0.305641
0.314856
0.337817
0.381967
0.41544
0.44737
0.517695
0.619218
0.670286
0.685991
0.687235
0.683644
0.669797
0.663674
0.666839
0.6814
0.730715
0.77632
0.782432
0.74683
0.711333
0.747911
0.766569
0.767481
0.768175
0.776713
0.806894
0.866738
0.895209
0.908135
0.912077
0.909753
0.88939
0.855247
0.821945
0.79588
0.777701
0.767576
0.76464
0.764694
0.766729
0.771251
0.778819
0.790415
0.807063
0.8297
0.858876
0.886211
0.9122
0.93288
0.947543
0.955707
0.959865
0.962465
0.963848
0.964523
0.964754
0.963894
0.962493
0.959964
0.95634
0.951415
0.944773
0.936418
0.926141
0.914531
0.902105
0.888757
0.875055
0.861203
0.847822
0.83579
0.826149
0.818658
0.812165
0.806717
0.802178
0.798382
0.795102
0.792254
0.789834
0.787868
0.786402
0.785467
0.785023
0.784975
0.785351
0.786257
0.787564
0.789331
0.791557
0.794195
0.797281
0.800831
0.804815
0.809317
0.814407
0.820241
0.827015
0.83497
0.844336
0.855081
0.866761
0.87907
0.893211
0.91205
0.935175
0.955569
0.966546
0.969063
0.96683
0.950632
0.927091
0.918615
0.918309
0.925002
0.94768
0.964169
0.97223
0.975386
0.975918
0.975262
0.971027
0.955652
0.935589
0.919482
0.907845
0.901279
0.898442
0.895124
0.888619
0.881174
0.874901
0.870473
0.868011
0.867426
0.867715
0.86982
0.878321
0.900313
0.922049
0.940431
0.956232
0.968638
0.97612
0.978019
0.97459
0.646698
0.696578
0.722342
0.694925
0.673591
0.670512
0.659767
0.652578
0.654732
0.668134
0.689349
0.71104
0.72614
0.738299
0.745427
0.748121
0.746841
0.739415
0.725293
0.707154
0.680919
0.651161
0.615368
0.574889
0.529721
0.482588
0.436502
0.394323
0.357933
0.3293
0.309069
0.297165
0.291661
0.290511
0.292425
0.301506
0.33171
0.376049
0.404705
0.434951
0.499678
0.595512
0.656133
0.679379
0.688835
0.690335
0.691289
0.694214
0.708507
0.757484
0.778072
0.762295
0.72511
0.723845
0.759971
0.76695
0.76895
0.782468
0.832715
0.914767
0.951343
0.966422
0.972241
0.973706
0.973379
0.968208
0.956535
0.940927
0.924422
0.906942
0.888857
0.875289
0.871981
0.872686
0.878877
0.892365
0.91169
0.933641
0.95434
0.96964
0.980819
0.98544
0.98726
0.987625
0.986584
0.985123
0.984236
0.983877
0.983825
0.984588
0.98606
0.986948
0.988266
0.988981
0.989822
0.990284
0.990502
0.989777
0.98843
0.986208
0.982965
0.978403
0.972231
0.963971
0.952995
0.938538
0.921397
0.903188
0.884723
0.867249
0.852388
0.8408
0.830708
0.822067
0.814882
0.808975
0.804163
0.800353
0.797465
0.795419
0.794159
0.793625
0.793652
0.794512
0.796894
0.800683
0.806156
0.812684
0.819818
0.826808
0.833139
0.838648
0.844113
0.850345
0.857867
0.867121
0.877447
0.887517
0.896836
0.907676
0.924391
0.947278
0.966585
0.974994
0.975527
0.970976
0.95015
0.934446
0.931756
0.933227
0.943823
0.961979
0.972193
0.976372
0.977089
0.976219
0.970464
0.951744
0.932214
0.917769
0.908082
0.902671
0.900064
0.897394
0.891287
0.882319
0.874803
0.869838
0.867141
0.86631
0.866446
0.868183
0.876114
0.899069
0.923678
0.944226
0.96079
0.973219
0.982543
0.984922
0.714267
0.720932
0.721417
0.707785
0.704524
0.723233
0.738809
0.784733
0.828347
0.855964
0.878236
0.893013
0.903223
0.911307
0.915736
0.918307
0.919365
0.917285
0.911821
0.902833
0.888598
0.86704
0.834698
0.79328
0.737832
0.671576
0.59714
0.526469
0.455617
0.394611
0.345954
0.314065
0.297527
0.29047
0.288941
0.292414
0.308221
0.350363
0.38249
0.402996
0.439713
0.513119
0.594471
0.652757
0.681193
0.692292
0.695638
0.703222
0.748517
0.77719
0.762693
0.735981
0.726799
0.749429
0.764305
0.768917
0.781574
0.83464
0.922404
0.957572
0.971908
0.979307
0.986381
0.989733
0.990356
0.989735
0.987256
0.98295
0.977524
0.971603
0.965057
0.958966
0.95733
0.957562
0.960398
0.96679
0.97555
0.984539
0.990212
0.992326
0.992766
0.991447
0.986831
0.980219
0.971419
0.963939
0.959607
0.95782
0.957584
0.96172
0.968686
0.972705
0.978849
0.982661
0.987636
0.990557
0.993204
0.994743
0.99589
0.996515
0.996847
0.997025
0.996818
0.996134
0.994882
0.992825
0.989618
0.984774
0.977512
0.96682
0.951409
0.931277
0.909232
0.886936
0.867018
0.851739
0.839568
0.830098
0.823041
0.817974
0.814528
0.812445
0.81149
0.811348
0.811973
0.815074
0.821684
0.829152
0.837703
0.847527
0.859296
0.87221
0.882467
0.888942
0.893118
0.897545
0.902482
0.907151
0.91099
0.91377
0.918347
0.92868
0.946675
0.965949
0.97749
0.980106
0.978877
0.969856
0.952533
0.947132
0.947575
0.952565
0.9659
0.974241
0.977029
0.977035
0.974398
0.961515
0.939988
0.923925
0.913227
0.906873
0.903598
0.901795
0.899459
0.894107
0.884549
0.87592
0.870393
0.868032
0.867671
0.868279
0.872111
0.887688
0.914351
0.936516
0.954568
0.968335
0.979976
0.986229
0.739867
0.739704
0.753276
0.782579
0.806263
0.851047
0.880863
0.912407
0.93439
0.946236
0.957287
0.964136
0.969242
0.973378
0.975603
0.977099
0.978013
0.978366
0.978071
0.976781
0.974197
0.969824
0.96258
0.950697
0.931618
0.900085
0.847954
0.764927
0.662435
0.55384
0.46261
0.387806
0.339655
0.314236
0.303573
0.301109
0.314878
0.349462
0.376093
0.39336
0.419229
0.480344
0.565013
0.633237
0.676347
0.691573
0.698255
0.736984
0.785147
0.769955
0.743985
0.736199
0.741463
0.760643
0.767212
0.777778
0.818912
0.910672
0.949411
0.963275
0.97038
0.975072
0.981849
0.990214
0.993471
0.994532
0.994641
0.994188
0.99321
0.991883
0.990131
0.988125
0.987508
0.987542
0.988622
0.991159
0.993402
0.994156
0.99375
0.990454
0.984494
0.970813
0.947103
0.917682
0.892018
0.874703
0.864854
0.860965
0.860828
0.875641
0.896421
0.909329
0.925083
0.93758
0.953596
0.965798
0.976542
0.984154
0.989922
0.993549
0.995836
0.997271
0.998144
0.998648
0.998909
0.999019
0.998971
0.998637
0.997909
0.996586
0.994335
0.990651
0.984714
0.974991
0.959261
0.936877
0.912227
0.888936
0.869668
0.855465
0.844788
0.837156
0.832382
0.830014
0.829325
0.829523
0.831327
0.836832
0.844445
0.85375
0.86644
0.883684
0.903035
0.920379
0.932434
0.941513
0.949086
0.952553
0.952705
0.951717
0.947885
0.944547
0.944424
0.949142
0.96655
0.97953
0.983614
0.983369
0.979388
0.9676
0.962023
0.961962
0.965304
0.973108
0.976583
0.97689
0.97506
0.964656
0.942334
0.92571
0.91534
0.909594
0.906692
0.905236
0.903945
0.901462
0.895084
0.885207
0.877302
0.872947
0.871657
0.871832
0.874401
0.886344
0.913392
0.936439
0.954816
0.968096
0.979015
0.986165
0.758626
0.787568
0.829607
0.860979
0.891473
0.930235
0.947423
0.964216
0.973749
0.978607
0.982859
0.984915
0.986656
0.987475
0.988113
0.98862
0.988932
0.989449
0.990046
0.990492
0.990978
0.99129
0.991116
0.989487
0.986174
0.979576
0.967294
0.944851
0.903088
0.825565
0.703226
0.563976
0.459259
0.385076
0.349077
0.335021
0.338392
0.358276
0.375933
0.391126
0.416273
0.477778
0.56964
0.642046
0.682288
0.693033
0.713705
0.793085
0.784338
0.755083
0.744745
0.743321
0.757034
0.765051
0.773574
0.801181
0.886178
0.935051
0.95096
0.956437
0.951996
0.949879
0.958869
0.985251
0.992791
0.995012
0.996073
0.996684
0.99713
0.997193
0.996996
0.99654
0.996257
0.996213
0.996318
0.996389
0.995522
0.99333
0.988647
0.975283
0.94733
0.898127
0.83126
0.776434
0.745242
0.722923
0.713731
0.710825
0.713224
0.73451
0.768197
0.796953
0.823605
0.844981
0.871462
0.901506
0.925239
0.946893
0.963651
0.975881
0.984026
0.98984
0.993829
0.996421
0.998006
0.998896
0.999351
0.999572
0.99966
0.999672
0.999563
0.999248
0.998657
0.997602
0.995636
0.991908
0.985104
0.974151
0.958889
0.940064
0.920253
0.901133
0.884891
0.873799
0.867915
0.865689
0.865382
0.865796
0.868169
0.875204
0.886045
0.899834
0.91693
0.935615
0.951939
0.963305
0.971236
0.976912
0.97971
0.980171
0.979849
0.977732
0.969787
0.965013
0.965044
0.969631
0.981153
0.986138
0.986445
0.984363
0.977211
0.973743
0.973646
0.975682
0.977942
0.978023
0.976027
0.965108
0.942131
0.925818
0.916605
0.912208
0.910254
0.909243
0.908201
0.906144
0.900492
0.89069
0.883219
0.879327
0.87823
0.878369
0.880349
0.890119
0.916743
0.940923
0.959061
0.971321
0.980699
0.987125
0.772659
0.836018
0.885131
0.911674
0.943612
0.96648
0.976071
0.982289
0.984957
0.986149
0.986763
0.987024
0.987136
0.987164
0.987072
0.987005
0.987019
0.987602
0.988647
0.990092
0.991188
0.992987
0.994465
0.995193
0.995539
0.995639
0.994127
0.990401
0.981874
0.964257
0.927993
0.855545
0.711883
0.550008
0.446565
0.386492
0.363947
0.360079
0.370722
0.390096
0.424221
0.498488
0.590183
0.660002
0.689825
0.697924
0.763627
0.807023
0.77112
0.755177
0.750392
0.753028
0.763046
0.76869
0.785412
0.841908
0.913711
0.938262
0.94489
0.93349
0.915189
0.914695
0.937598
0.978503
0.990564
0.994338
0.99599
0.996903
0.997815
0.998276
0.998357
0.998324
0.998212
0.997999
0.997484
0.99633
0.993933
0.987268
0.970286
0.930591
0.852102
0.756313
0.710996
0.686308
0.661315
0.653051
0.651177
0.652444
0.660907
0.676385
0.696527
0.721983
0.748255
0.767799
0.782393
0.806712
0.83701
0.872823
0.906756
0.934414
0.953931
0.968413
0.979272
0.986982
0.992231
0.995627
0.997694
0.998864
0.999466
0.999737
0.999848
0.999886
0.999889
0.999845
0.999713
0.999413
0.998741
0.997161
0.994455
0.990866
0.985944
0.978305
0.966911
0.953245
0.94176
0.935697
0.934202
0.934348
0.935252
0.937625
0.944634
0.955242
0.964683
0.973682
0.981259
0.985696
0.987796
0.989549
0.991033
0.991508
0.991459
0.991095
0.989563
0.983032
0.97699
0.976294
0.978168
0.98503
0.988802
0.989106
0.987802
0.983578
0.981706
0.981553
0.98161
0.981263
0.978541
0.965837
0.942341
0.926804
0.919122
0.916228
0.91526
0.914578
0.913351
0.910508
0.902597
0.893388
0.887264
0.88449
0.883935
0.884312
0.887208
0.899885
0.927919
0.950751
0.967327
0.978037
0.985264
0.98995
0.793383
0.877252
0.920685
0.945506
0.970291
0.980173
0.983724
0.984955
0.985253
0.985268
0.98387
0.981612
0.978318
0.974483
0.971221
0.969729
0.969231
0.970214
0.972643
0.975998
0.979639
0.98419
0.989105
0.992617
0.995568
0.997
0.997703
0.997933
0.997279
0.994832
0.988228
0.972421
0.935736
0.854391
0.68252
0.507753
0.420003
0.37969
0.369049
0.382721
0.428087
0.518794
0.608242
0.672332
0.693099
0.703083
0.803974
0.805937
0.769154
0.758172
0.757122
0.758985
0.766534
0.77642
0.809896
0.875673
0.922202
0.934234
0.925922
0.895169
0.885258
0.886608
0.913108
0.96435
0.985111
0.991767
0.994746
0.996344
0.997645
0.998226
0.998373
0.998389
0.998319
0.998002
0.997093
0.994694
0.988201
0.970667
0.925755
0.838587
0.758367
0.72534
0.703822
0.666467
0.636138
0.630147
0.629854
0.636394
0.652466
0.665231
0.681596
0.701413
0.722062
0.738451
0.749362
0.763348
0.777927
0.79605
0.824038
0.864014
0.899558
0.926463
0.948409
0.965276
0.977675
0.986368
0.992144
0.995755
0.997864
0.999006
0.999572
0.999825
0.999923
0.999958
0.999967
0.999963
0.99993
0.999822
0.999494
0.999002
0.99849
0.99761
0.995662
0.992077
0.98809
0.985233
0.984041
0.983898
0.984054
0.984626
0.986298
0.989018
0.991469
0.993502
0.995069
0.996037
0.996595
0.996982
0.99709
0.997062
0.996954
0.996717
0.996177
0.994432
0.988329
0.983598
0.982922
0.984359
0.989097
0.991398
0.991543
0.990602
0.988165
0.987225
0.986787
0.985799
0.982274
0.968015
0.944471
0.929995
0.923778
0.922086
0.921777
0.921355
0.919995
0.915082
0.904087
0.895214
0.890054
0.888109
0.88793
0.888779
0.893708
0.912296
0.938454
0.958485
0.972938
0.982392
0.988589
0.992352
0.808783
0.903382
0.944597
0.96624
0.979476
0.98318
0.983937
0.984056
0.981915
0.976958
0.9674
0.960054
0.953167
0.949713
0.947629
0.946431
0.946016
0.946488
0.948053
0.950644
0.955369
0.960978
0.968408
0.977754
0.986155
0.992757
0.996531
0.998232
0.998899
0.99909
0.998635
0.996687
0.99083
0.974743
0.932608
0.82917
0.630081
0.47718
0.407843
0.385563
0.409778
0.508817
0.60823
0.673773
0.692848
0.706202
0.811366
0.807098
0.7715
0.76452
0.762813
0.765492
0.774055
0.791366
0.827811
0.884582
0.921158
0.926725
0.912018
0.87349
0.861334
0.861944
0.87926
0.922157
0.967519
0.984056
0.990714
0.994017
0.996244
0.997378
0.99775
0.99785
0.997825
0.997315
0.995375
0.989917
0.974444
0.937214
0.867934
0.790371
0.757753
0.741294
0.718855
0.655136
0.616628
0.609872
0.611716
0.628729
0.650524
0.662697
0.680583
0.697789
0.714746
0.727077
0.735235
0.743787
0.754099
0.765176
0.776529
0.792244
0.828325
0.865198
0.898474
0.926823
0.949615
0.967015
0.979587
0.988122
0.993528
0.996708
0.998441
0.999316
0.999722
0.999896
0.999962
0.999983
0.999989
0.999988
0.999972
0.999924
0.999873
0.999794
0.999629
0.999199
0.99834
0.997566
0.997098
0.99692
0.996897
0.996923
0.997038
0.997413
0.997927
0.998373
0.998701
0.998895
0.999033
0.999108
0.999109
0.999088
0.999031
0.998927
0.998715
0.998156
0.996018
0.990524
0.987679
0.987438
0.98895
0.992336
0.993579
0.993593
0.992787
0.991626
0.991008
0.989854
0.986487
0.97338
0.950564
0.937
0.932044
0.931381
0.931582
0.931471
0.929729
0.921596
0.907811
0.898209
0.893063
0.891323
0.891252
0.892397
0.898563
0.91948
0.943993
0.96245
0.975707
0.984532
0.990299
0.993757
0.826745
0.924421
0.959409
0.975476
0.981976
0.983055
0.982734
0.979239
0.969339
0.955672
0.948377
0.943645
0.940695
0.939213
0.938033
0.937056
0.936497
0.93628
0.936866
0.937929
0.940158
0.942998
0.947403
0.953126
0.962208
0.975435
0.988175
0.99482
0.997933
0.999182
0.999559
0.99965
0.999211
0.997404
0.991329
0.972437
0.918403
0.768949
0.563047
0.449946
0.408887
0.454571
0.579905
0.665784
0.689297
0.702804
0.806314
0.81852
0.776517
0.771069
0.770613
0.773733
0.782931
0.799253
0.827611
0.881098
0.918817
0.92454
0.912257
0.872712
0.850481
0.846918
0.852467
0.872645
0.907907
0.952863
0.978765
0.987718
0.99197
0.994468
0.995508
0.995809
0.995782
0.99447
0.990271
0.980119
0.955953
0.905562
0.835366
0.791338
0.774539
0.768624
0.731681
0.624581
0.566076
0.557598
0.566735
0.607378
0.63872
0.655192
0.682183
0.702203
0.717122
0.726503
0.73229
0.736368
0.739268
0.743925
0.7532
0.76119
0.772075
0.803286
0.839541
0.875343
0.907659
0.935006
0.956786
0.973015
0.984244
0.99142
0.995645
0.997938
0.999089
0.999624
0.999856
0.999949
0.999983
0.999993
0.999996
0.999995
0.999993
0.999986
0.999973
0.99994
0.999841
0.9997
0.999591
0.999524
0.99949
0.999478
0.999479
0.999493
0.999553
0.99964
0.999696
0.999732
0.99976
0.999764
0.99976
0.999747
0.999719
0.999678
0.999597
0.9994
0.998721
0.995857
0.991969
0.990611
0.990729
0.992529
0.994684
0.995271
0.995206
0.994665
0.994058
0.993015
0.990242
0.979885
0.959808
0.947863
0.944117
0.944055
0.945154
0.94541
0.943828
0.93456
0.916761
0.905102
0.899196
0.89719
0.897053
0.898056
0.903674
0.923304
0.946779
0.964424
0.977064
0.985567
0.991149
0.994523
0.838551
0.935444
0.967524
0.978954
0.981933
0.982201
0.978515
0.96598
0.950718
0.943142
0.938786
0.935924
0.933815
0.931881
0.929621
0.92755
0.926266
0.925736
0.925862
0.927008
0.929789
0.933814
0.93813
0.942332
0.947145
0.953508
0.965839
0.983854
0.99311
0.997454
0.999224
0.999758
0.999873
0.99984
0.999391
0.997396
0.989645
0.962916
0.880956
0.670013
0.495426
0.435914
0.490307
0.630268
0.678275
0.695051
0.778289
0.822037
0.792275
0.77583
0.775697
0.779074
0.787925
0.799254
0.822141
0.868766
0.912811
0.923014
0.916381
0.88084
0.851364
0.843351
0.842595
0.84792
0.860736
0.882227
0.923936
0.968301
0.981338
0.985532
0.987809
0.991121
0.991691
0.990561
0.98403
0.96745
0.937562
0.889073
0.83051
0.804724
0.802323
0.799531
0.754535
0.611845
0.490681
0.472761
0.480945
0.532145
0.575072
0.616064
0.667311
0.70226
0.727807
0.743712
0.74724
0.742595
0.738572
0.734511
0.731324
0.734048
0.743778
0.759988
0.788496
0.823059
0.8589
0.893142
0.923628
0.94882
0.967992
0.981366
0.989909
0.994914
0.99761
0.99895
0.999568
0.999833
0.99994
0.99998
0.999994
0.999998
0.999999
0.999999
0.999998
0.999996
0.99999
0.999973
0.999955
0.999939
0.999928
0.99992
0.999917
0.999917
0.999919
0.999929
0.999938
0.999945
0.999948
0.999947
0.999945
0.999939
0.999929
0.999914
0.999884
0.999814
0.999577
0.998564
0.995407
0.993335
0.992934
0.993371
0.995205
0.99632
0.996533
0.996463
0.99613
0.995305
0.993189
0.985639
0.969799
0.960335
0.957586
0.957688
0.959169
0.959793
0.958918
0.952775
0.935024
0.921088
0.91386
0.911198
0.910801
0.911325
0.914774
0.928554
0.949997
0.966743
0.978777
0.986835
0.992074
0.995223
0.849272
0.946506
0.972049
0.979645
0.981371
0.979595
0.969857
0.954414
0.941579
0.934542
0.931075
0.928461
0.92634
0.923763
0.921355
0.920193
0.919745
0.919718
0.919616
0.919275
0.918832
0.92017
0.92522
0.933956
0.940945
0.945497
0.950889
0.962223
0.982568
0.992768
0.997523
0.999298
0.999835
0.999949
0.999968
0.999884
0.999316
0.996417
0.983726
0.936325
0.768693
0.539251
0.473335
0.516884
0.641332
0.676841
0.722616
0.811152
0.807983
0.790906
0.780302
0.781527
0.787842
0.798347
0.815831
0.845564
0.899314
0.91897
0.91858
0.906472
0.869698
0.848166
0.843102
0.843914
0.848767
0.856448
0.865944
0.888932
0.939696
0.970353
0.975964
0.976945
0.979613
0.981477
0.97825
0.961559
0.927962
0.884967
0.839199
0.824565
0.826592
0.829198
0.799699
0.661878
0.454033
0.385444
0.375588
0.388427
0.416818
0.505223
0.595064
0.668812
0.720598
0.751686
0.769636
0.774982
0.765477
0.746508
0.730219
0.720562
0.717212
0.723449
0.743914
0.775247
0.809429
0.845709
0.88204
0.91567
0.943922
0.965363
0.980112
0.98937
0.994703
0.997536
0.998928
0.999563
0.999833
0.99994
0.99998
0.999994
0.999998
0.999999
1
1
0.999999
0.999999
0.999996
0.999994
0.999991
0.99999
0.999989
0.999988
0.999988
0.999989
0.99999
0.99999
0.99999
0.99999
0.999989
0.999987
0.999985
0.99998
0.99997
0.999945
0.999862
0.999495
0.997852
0.9956
0.994791
0.994809
0.995633
0.996936
0.997402
0.997455
0.997352
0.996886
0.995447
0.99035
0.979067
0.97223
0.970288
0.970375
0.971531
0.972173
0.971769
0.968339
0.956225
0.944646
0.938088
0.935119
0.934242
0.93427
0.935351
0.940683
0.956312
0.97143
0.982165
0.989183
0.993615
0.996216
0.854748
0.946285
0.97233
0.979444
0.98093
0.977018
0.964346
0.945185
0.933312
0.930559
0.928359
0.926395
0.924437
0.922725
0.921261
0.920501
0.921073
0.922663
0.922846
0.920972
0.918011
0.916667
0.917168
0.920835
0.932715
0.941743
0.946524
0.952375
0.96675
0.984559
0.994246
0.998168
0.999491
0.999881
0.999975
0.999991
0.999982
0.999857
0.998933
0.993556
0.968258
0.847713
0.60831
0.519845
0.540674
0.626725
0.671442
0.765937
0.802845
0.8022
0.795334
0.786353
0.788415
0.794379
0.806917
0.826717
0.869474
0.90692
0.916819
0.914323
0.903656
0.87953
0.860596
0.852145
0.852556
0.857605
0.863675
0.864272
0.867621
0.894158
0.949053
0.965371
0.967494
0.964111
0.959297
0.946599
0.922056
0.890328
0.85798
0.842161
0.841754
0.849608
0.84394
0.751188
0.474909
0.329261
0.292052
0.282322
0.290319
0.336944
0.451444
0.57243
0.669041
0.733538
0.768376
0.783454
0.787689
0.78329
0.758868
0.727368
0.712929
0.708394
0.710962
0.725603
0.756492
0.792321
0.830948
0.87161
0.909921
0.941674
0.965002
0.980435
0.989772
0.994992
0.997703
0.999013
0.999603
0.99985
0.999947
0.999982
0.999994
0.999998
1
1
1
1
1
1
0.999999
0.999999
0.999999
0.999999
0.999999
0.999999
0.999999
0.999999
0.999999
0.999999
0.999998
0.999998
0.999997
0.999996
0.999993
0.999985
0.999956
0.999822
0.999183
0.997379
0.996333
0.996157
0.996394
0.997365
0.99797
0.998113
0.998088
0.997854
0.996999
0.993915
0.986695
0.982234
0.980985
0.981033
0.981679
0.982047
0.981832
0.979952
0.97311
0.965933
0.961128
0.958148
0.956621
0.956214
0.956442
0.958346
0.966294
0.9782
0.986708
0.992124
0.995437
0.997326
0.857868
0.941199
0.970974
0.978713
0.980009
0.977256
0.966253
0.946216
0.933445
0.926961
0.923724
0.923485
0.923033
0.922263
0.921512
0.921643
0.92393
0.926656
0.926679
0.925482
0.920881
0.917026
0.916457
0.918059
0.92688
0.939795
0.945488
0.950071
0.959815
0.977847
0.990646
0.996783
0.999054
0.999752
0.99994
0.999988
0.999997
0.999998
0.999976
0.999725
0.997676
0.985352
0.915927
0.685414
0.566167
0.56805
0.599272
0.660119
0.765009
0.796644
0.800571
0.79833
0.7922
0.794149
0.798661
0.808799
0.830484
0.874892
0.905633
0.911882
0.908861
0.901377
0.889012
0.878394
0.871389
0.87138
0.873502
0.874089
0.869094
0.861734
0.864295
0.915811
0.950096
0.954692
0.950626
0.94022
0.923047
0.899932
0.874581
0.857868
0.858012
0.862876
0.860464
0.807126
0.548522
0.334894
0.27327
0.258785
0.259108
0.271387
0.31559
0.440898
0.573835
0.677149
0.743507
0.777286
0.788939
0.790203
0.786315
0.761447
0.723162
0.707847
0.703996
0.705815
0.716428
0.740267
0.774529
0.817114
0.864212
0.908156
0.943065
0.967282
0.982388
0.991069
0.995731
0.99808
0.99919
0.99968
0.999881
0.999959
0.999986
0.999996
0.999999
1
1
1
1
1
1
1
1
1
1
1
1
1
1
1
1
1
0.999999
0.999999
0.999998
0.999996
0.999986
0.999937
0.999693
0.998668
0.997567
0.997231
0.997274
0.997766
0.998366
0.998557
0.998562
0.998445
0.997957
0.99621
0.992052
0.989474
0.98879
0.988827
0.989115
0.98919
0.988927
0.987367
0.983871
0.980805
0.978082
0.975673
0.973904
0.973087
0.973036
0.973703
0.977266
0.985194
0.991141
0.994864
0.997078
0.998304
0.861894
0.929764
0.966815
0.977083
0.979085
0.977886
0.971325
0.951894
0.936318
0.927846
0.923357
0.920224
0.919416
0.919424
0.919554
0.919702
0.921005
0.922115
0.921717
0.920476
0.918176
0.916152
0.916287
0.918095
0.926616
0.940059
0.946765
0.950401
0.958143
0.975757
0.989405
0.996241
0.998871
0.999702
0.999928
0.999984
0.999997
0.999999
0.999999
0.999994
0.999898
0.998893
0.991522
0.946894
0.748403
0.603618
0.591788
0.602791
0.653337
0.758217
0.792614
0.798852
0.798996
0.797139
0.798402
0.801265
0.809204
0.82836
0.867411
0.895785
0.903089
0.900732
0.894761
0.886923
0.879922
0.877162
0.877216
0.878713
0.881755
0.875193
0.858193
0.859822
0.884702
0.92638
0.938195
0.935167
0.925751
0.912706
0.895861
0.880265
0.877799
0.878361
0.87362
0.830431
0.609472
0.369614
0.279999
0.257011
0.254235
0.257714
0.274739
0.337935
0.487273
0.615618
0.704537
0.757572
0.782386
0.789166
0.788259
0.778941
0.744697
0.714149
0.702436
0.700768
0.70399
0.715001
0.732699
0.765867
0.813528
0.866579
0.914054
0.949475
0.972401
0.985786
0.99305
0.996775
0.998587
0.999418
0.999776
0.999919
0.999972
0.999991
0.999997
0.999999
1
1
1
1
1
1
1
1
1
1
1
1
1
1
1
1
1
1
0.999999
0.999998
0.999995
0.999977
0.999881