/*--------------------------------*- C++ -*----------------------------------*\
  =========                 |
  \\      /  F ield         | OpenFOAM: The Open Source CFD Toolbox
   \\    /   O peration     | Website:  https://openfoam.org
    \\  /    A nd           | Version:  9
     \\/     M anipulation  |
\*---------------------------------------------------------------------------*/
FoamFile
{
    format      ascii;
    class       volVectorField;
    location    "0.048";
    object      U;
}
// * * * * * * * * * * * * * * * * * * * * * * * * * * * * * * * * * * * * * //

dimensions      [0 1 -1 0 0 0 0];

internalField   nonuniform List<vector> 
12225
(
(9.82752 0.0170006 0)
(9.46768 0.0413177 0)
(9.10468 0.054002 0)
(8.82182 0.0504397 0)
(8.57003 0.0396175 0)
(8.33762 0.0379393 0)
(8.09672 0.0444648 0)
(7.85774 0.0487519 0)
(7.61571 0.0445777 0)
(7.43761 0.0372207 0)
(7.24136 0.0294334 0)
(7.14912 0.0249564 0)
(6.9306 0.027044 0)
(6.92596 0.0245611 0)
(6.5597 0.0381804 0)
(6.75735 0.0140244 0)
(6.09647 0.0943478 0)
(6.57346 0.00654721 0)
(9.94928 0.0981431 0)
(9.92215 0.11515 0)
(10.0161 0.0813555 0)
(10.0955 0.0706614 0)
(10.0611 0.0725012 0)
(9.98321 0.0781744 0)
(9.94082 0.0801827 0)
(9.95139 0.0801967 0)
(9.97436 0.0726925 0)
(9.99455 0.0682732 0)
(9.97815 0.0589285 0)
(9.96596 0.0641889 0)
(9.9132 0.0551967 0)
(9.92103 0.0769306 0)
(9.84856 0.0654696 0)
(9.90925 0.088958 0)
(9.78613 0.115626 0)
(9.90165 0.154425 0)
(9.76616 0.0756969 0)
(9.96188 0.0426231 0)
(10.0381 0.0304168 0)
(10.0302 0.0502102 0)
(9.97212 0.0655391 0)
(9.93185 0.0631596 0)
(9.95041 0.0493891 0)
(10.0245 0.0383333 0)
(10.1239 0.0348578 0)
(10.2184 0.0399101 0)
(10.2836 0.0456691 0)
(10.3192 0.050246 0)
(10.3269 0.0501915 0)
(10.3245 0.0493609 0)
(10.322 0.0514256 0)
(10.3252 0.0501891 0)
(10.3416 0.0928204 0)
(10.3882 0.114566 0)
(10.0557 0.0869525 0)
(10.0088 0.0460981 0)
(10.0424 0.0537008 0)
(10.1319 0.0819581 0)
(10.1912 0.0977437 0)
(10.1901 0.0885177 0)
(10.154 0.058859 0)
(10.1218 0.0275054 0)
(10.1198 0.00791817 0)
(10.1495 0.00681511 0)
(10.1948 0.0174209 0)
(10.2372 0.036404 0)
(10.2633 0.0508691 0)
(10.2712 0.0654224 0)
(10.2709 0.073549 0)
(10.2682 0.0789351 0)
(10.2714 0.0993872 0)
(10.2979 0.109547 0)
(9.78489 0.162422 0)
(10.024 0.054149 0)
(10.0277 0.00845621 0)
(9.98665 0.0200615 0)
(9.99806 0.0482106 0)
(10.066 0.0673921 0)
(10.1336 0.0657563 0)
(10.1578 0.0491104 0)
(10.1435 0.0299305 0)
(10.1205 0.0193096 0)
(10.1127 0.0209548 0)
(10.1275 0.0317666 0)
(10.1601 0.0445907 0)
(10.1995 0.0551422 0)
(10.2421 0.0618402 0)
(10.2789 0.0637734 0)
(10.3109 0.0714478 0)
(10.3384 0.0822058 0)
(10.1755 0.0556599 0)
(10.2091 0.00681723 0)
(10.1092 0.0568946 0)
(10.0274 0.0867222 0)
(10.028 0.0713239 0)
(10.0817 0.0456427 0)
(10.1368 0.0294468 0)
(10.1621 0.0230666 0)
(10.1555 0.0190671 0)
(10.1351 0.0137208 0)
(10.1237 0.00897178 0)
(10.1361 0.00873356 0)
(10.1723 0.0129811 0)
(10.2226 0.020889 0)
(10.2771 0.0306212 0)
(10.33 0.0400249 0)
(10.3766 0.0531508 0)
(10.4245 0.0683381 0)
(10.052 0.160653 0)
(9.983 0.0791472 0)
(9.97874 0.0653608 0)
(10.0321 0.0480114 0)
(10.0686 0.0303091 0)
(10.0812 0.0277006 0)
(10.0914 0.0362108 0)
(10.1117 0.0451354 0)
(10.138 0.046041 0)
(10.1623 0.0376969 0)
(10.1824 0.0252707 0)
(10.2027 0.015092 0)
(10.2245 0.0100588 0)
(10.2483 0.0103238 0)
(10.2702 0.0130936 0)
(10.2924 0.0162745 0)
(10.311 0.0201465 0)
(10.3367 0.0271109 0)
(10.0349 0.0686275 0)
(9.93058 0.0388541 0)
(9.90875 0.0462997 0)
(9.89331 0.0586512 0)
(9.8625 0.0579488 0)
(9.8535 0.0377742 0)
(9.88559 0.0138853 0)
(9.94979 -0.00100358 0)
(10.0223 -0.00769454 0)
(10.0798 -0.0113411 0)
(10.1115 -0.0140285 0)
(10.1237 -0.0145609 0)
(10.1288 -0.0117446 0)
(10.1395 -0.00507928 0)
(10.1609 0.00423054 0)
(10.1949 0.0140277 0)
(10.2373 0.0227243 0)
(10.2876 0.0317079 0)
(9.89177 0.0869534 0)
(9.94712 0.1079 0)
(9.89536 0.0668082 0)
(9.89099 0.0577388 0)
(9.96326 0.0432337 0)
(10.0648 0.0165188 0)
(10.1471 -0.00439966 0)
(10.1945 -0.0114706 0)
(10.2113 -0.00817446 0)
(10.2017 -0.000192767 0)
(10.1695 0.00650696 0)
(10.1249 0.00823974 0)
(10.0834 0.00356828 0)
(10.0606 -0.00563301 0)
(10.0633 -0.0175806 0)
(10.0955 -0.0288246 0)
(10.1466 -0.0379332 0)
(10.2173 -0.0393008 0)
(9.80161 -0.0334036 0)
(10.005 0.0616783 0)
(10.1043 0.08296 0)
(10.1528 0.0404162 0)
(10.162 -0.0100252 0)
(10.153 -0.0411911 0)
(10.1508 -0.0458913 0)
(10.1666 -0.0325959 0)
(10.1933 -0.0117662 0)
(10.2132 0.0106505 0)
(10.2126 0.0280309 0)
(10.192 0.0343871 0)
(10.1631 0.0264453 0)
(10.1365 0.00698298 0)
(10.1207 -0.019135 0)
(10.1181 -0.0433976 0)
(10.1293 -0.0630514 0)
(10.1497 -0.0711825 0)
(9.97125 -0.0469608 0)
(9.92008 -0.0596658 0)
(10.0161 -0.014039 0)
(10.1237 0.0270126 0)
(10.1202 0.0434147 0)
(10.0374 0.0265986 0)
(9.95244 -0.0049694 0)
(9.91143 -0.0296682 0)
(9.92061 -0.0317162 0)
(9.96306 -0.0128068 0)
(10.0188 0.0133476 0)
(10.0773 0.031877 0)
(10.1352 0.0346944 0)
(10.1906 0.0217959 0)
(10.2415 -0.00144739 0)
(10.285 -0.0272399 0)
(10.3234 -0.0518108 0)
(10.3558 -0.0707002 0)
(10.1119 -0.00896485 0)
(10.0179 0.0317828 0)
(9.98148 0.0100543 0)
(10.0029 0.00875797 0)
(10.0099 0.0324504 0)
(9.9871 0.0374287 0)
(9.95568 0.0138847 0)
(9.93677 -0.0192177 0)
(9.93979 -0.0399014 0)
(9.9592 -0.0419799 0)
(9.98671 -0.0349521 0)
(10.0194 -0.0323185 0)
(10.0563 -0.0409704 0)
(10.0965 -0.0596217 0)
(10.1402 -0.0828451 0)
(10.1868 -0.103954 0)
(10.2368 -0.120309 0)
(10.2872 -0.128554 0)
(9.87216 0.0216104 0)
(9.9724 -0.0258107 0)
(10.0742 -0.0293044 0)
(10.1283 0.00913746 0)
(10.101 0.0509984 0)
(10.0417 0.0580457 0)
(9.99989 0.0234399 0)
(9.98745 -0.0218684 0)
(9.99818 -0.0451856 0)
(10.02 -0.0403364 0)
(10.0436 -0.0232369 0)
(10.0687 -0.012343 0)
(10.0976 -0.0171341 0)
(10.1345 -0.0373041 0)
(10.1762 -0.0659651 0)
(10.2255 -0.0965098 0)
(10.2754 -0.125207 0)
(10.3299 -0.147484 0)
(9.93509 0.000293527 0)
(10.069 -0.0631053 0)
(10.1222 -0.0622882 0)
(10.0725 0.0145366 0)
(9.99539 0.0850223 0)
(9.97217 0.0923054 0)
(9.98524 0.0417425 0)
(9.99687 -0.021239 0)
(10.0002 -0.0599729 0)
(10.0051 -0.0703338 0)
(10.0245 -0.0689442 0)
(10.0646 -0.0724827 0)
(10.1203 -0.0900296 0)
(10.1799 -0.119953 0)
(10.2281 -0.156108 0)
(10.2598 -0.189136 0)
(10.2688 -0.212552 0)
(10.2645 -0.224567 0)
(9.99869 -0.118421 0)
(10.1112 -0.179628 0)
(10.0423 -0.049995 0)
(9.95486 0.077723 0)
(9.96455 0.10533 0)
(10.045 0.0612388 0)
(10.1184 0.00230811 0)
(10.1511 -0.0347101 0)
(10.1563 -0.0484874 0)
(10.1592 -0.0567125 0)
(10.1766 -0.0735683 0)
(10.2118 -0.09951 0)
(10.2557 -0.125691 0)
(10.2922 -0.141009 0)
(10.3101 -0.141831 0)
(10.3054 -0.131703 0)
(10.2851 -0.119581 0)
(10.2574 -0.118179 0)
(10.1132 -0.147437 0)
(10.0957 -0.0678454 0)
(9.98684 0.0628479 0)
(9.93117 0.0870063 0)
(9.99796 0.0363079 0)
(10.1118 -0.0230179 0)
(10.1908 -0.0530306 0)
(10.2219 -0.0602557 0)
(10.2264 -0.0672831 0)
(10.2218 -0.0876209 0)
(10.2163 -0.117637 0)
(10.2125 -0.145577 0)
(10.2086 -0.162512 0)
(10.2048 -0.166141 0)
(10.2046 -0.160927 0)
(10.2123 -0.154413 0)
(10.2299 -0.154528 0)
(10.2569 -0.166567 0)
(9.9551 0.0424486 0)
(9.97069 0.0240456 0)
(9.95857 0.047524 0)
(9.98461 0.0156425 0)
(10.0355 -0.0728547 0)
(10.0712 -0.133197 0)
(10.0918 -0.123628 0)
(10.1108 -0.0758934 0)
(10.1258 -0.0404573 0)
(10.1225 -0.0389673 0)
(10.0972 -0.062326 0)
(10.0606 -0.0932332 0)
(10.0279 -0.121364 0)
(10.0108 -0.144831 0)
(10.0141 -0.164626 0)
(10.0355 -0.183346 0)
(10.0678 -0.202451 0)
(10.1032 -0.222637 0)
(10.1086 0.073443 0)
(10.2002 0.034299 0)
(10.246 0.00774194 0)
(10.2943 -0.00118385 0)
(10.2914 -0.0174852 0)
(10.2502 -0.0503831 0)
(10.2155 -0.0878854 0)
(10.2083 -0.103364 0)
(10.2137 -0.0853929 0)
(10.21 -0.0495482 0)
(10.1912 -0.0244385 0)
(10.1626 -0.0306165 0)
(10.1324 -0.070209 0)
(10.1082 -0.130269 0)
(10.0939 -0.191823 0)
(10.0902 -0.24056 0)
(10.0936 -0.270528 0)
(10.1015 -0.281566 0)
(9.85776 0.0445343 0)
(9.93528 -0.127725 0)
(9.95883 -0.06376 0)
(10.0761 -0.0160171 0)
(10.2073 -0.0334327 0)
(10.2717 -0.0657085 0)
(10.2609 -0.0795528 0)
(10.2036 -0.0646072 0)
(10.1322 -0.0302628 0)
(10.0723 0.00381531 0)
(10.0396 0.0199083 0)
(10.0334 0.0098623 0)
(10.041 -0.0242024 0)
(10.0489 -0.0746486 0)
(10.0497 -0.131271 0)
(10.0424 -0.18573 0)
(10.0283 -0.232158 0)
(10.0105 -0.268514 0)
(10.2197 0.0674821 0)
(10.1872 -0.132474 0)
(10.1597 -0.26135 0)
(10.1443 -0.305488 0)
(10.1412 -0.26108 0)
(10.1056 -0.135673 0)
(10.0546 0.0143695 0)
(10.0162 0.120173 0)
(9.99344 0.149476 0)
(9.98657 0.113734 0)
(9.99841 0.0441379 0)
(10.0252 -0.0311108 0)
(10.0563 -0.0948382 0)
(10.0811 -0.139974 0)
(10.094 -0.166375 0)
(10.0941 -0.178419 0)
(10.0821 -0.181071 0)
(10.0628 -0.180718 0)
(10.1268 0.02442 0)
(10.1517 -0.0248664 0)
(10.1197 -0.0691893 0)
(10.0526 -0.0798903 0)
(9.96489 -0.0469997 0)
(9.87385 0.005259 0)
(9.82289 0.0503225 0)
(9.83096 0.0712603 0)
(9.87874 0.0622841 0)
(9.93707 0.025178 0)
(9.98547 -0.0293103 0)
(10.0138 -0.0848705 0)
(10.0212 -0.129278 0)
(10.0121 -0.156124 0)
(9.99271 -0.166984 0)
(9.96798 -0.169096 0)
(9.94275 -0.169988 0)
(9.91886 -0.178771 0)
(9.96674 0.0615656 0)
(10.0078 -0.0719927 0)
(9.96533 -0.12323 0)
(9.91022 -0.0905372 0)
(9.93952 -0.027914 0)
(9.99052 0.0276374 0)
(10.0215 0.0501416 0)
(10.041 0.0355747 0)
(10.0533 -0.00141306 0)
(10.0567 -0.040954 0)
(10.0554 -0.0717522 0)
(10.0518 -0.0917023 0)
(10.0478 -0.101039 0)
(10.0487 -0.102223 0)
(10.0609 -0.0983502 0)
(10.0836 -0.095097 0)
(10.1145 -0.095682 0)
(10.1443 -0.106393 0)
(10.0832 -0.0073764 0)
(10.0682 0.0308781 0)
(10.0095 -0.0227292 0)
(9.93744 -0.0923432 0)
(9.95369 -0.105356 0)
(10.0289 -0.0565473 0)
(10.0941 0.0101331 0)
(10.1219 0.0491114 0)
(10.1202 0.0485577 0)
(10.1079 0.0211765 0)
(10.0986 -0.0192675 0)
(10.0974 -0.065845 0)
(10.1012 -0.114624 0)
(10.1034 -0.161768 0)
(10.0993 -0.201458 0)
(10.09 -0.229101 0)
(10.0762 -0.242917 0)
(10.0634 -0.243147 0)
(9.89571 -0.00512938 0)
(9.87094 0.0387623 0)
(9.913 0.00150565 0)
(9.94583 -0.0708836 0)
(9.95651 -0.114703 0)
(9.96351 -0.10106 0)
(9.98287 -0.0468386 0)
(10.0153 0.000651851 0)
(10.0529 0.00958537 0)
(10.0894 -0.019507 0)
(10.1233 -0.0647502 0)
(10.1493 -0.101075 0)
(10.1583 -0.11728 0)
(10.1457 -0.11443 0)
(10.1128 -0.101928 0)
(10.0663 -0.0909076 0)
(10.0141 -0.0890083 0)
(9.96415 -0.101741 0)
(10.0508 0.0305475 0)
(10.098 0.0148393 0)
(10.1183 -0.0653381 0)
(10.091 -0.0997269 0)
(10.0552 -0.0932263 0)
(10.0583 -0.0653512 0)
(10.1102 -0.028302 0)
(10.1841 -0.00331896 0)
(10.2421 -0.00744671 0)
(10.2591 -0.0343504 0)
(10.2368 -0.0660783 0)
(10.195 -0.0903427 0)
(10.1549 -0.10261 0)
(10.1287 -0.105248 0)
(10.1199 -0.103176 0)
(10.1225 -0.101811 0)
(10.1309 -0.103971 0)
(10.1354 -0.110318 0)
(10.1009 0.0366808 0)
(10.167 0.0199333 0)
(10.1032 -0.0165468 0)
(9.98146 -0.0515106 0)
(9.91586 -0.107041 0)
(9.93815 -0.145557 0)
(10.0201 -0.137546 0)
(10.1072 -0.0944181 0)
(10.1549 -0.0495207 0)
(10.1539 -0.0257599 0)
(10.1252 -0.0268116 0)
(10.0957 -0.0455345 0)
(10.082 -0.0698069 0)
(10.0877 -0.089763 0)
(10.1071 -0.101429 0)
(10.1303 -0.106619 0)
(10.1489 -0.108767 0)
(10.1561 -0.111763 0)
(10.085 -0.0549498 0)
(10.08 0.0592574 0)
(10.117 0.0506853 0)
(10.193 -0.000352687 0)
(10.2386 -0.0687662 0)
(10.2028 -0.118144 0)
(10.114 -0.119651 0)
(10.0413 -0.0803648 0)
(10.0255 -0.0333238 0)
(10.0613 -0.00862429 0)
(10.1185 -0.0165014 0)
(10.1681 -0.0483736 0)
(10.1959 -0.0868041 0)
(10.2031 -0.116914 0)
(10.199 -0.131358 0)
(10.1914 -0.131293 0)
(10.1849 -0.120667 0)
(10.1786 -0.107968 0)
(9.94107 0.0134738 0)
(10.0084 0.0185769 0)
(10.1101 -0.0461629 0)
(10.2103 -0.0995758 0)
(10.2708 -0.11217 0)
(10.2665 -0.0951414 0)
(10.2157 -0.0717056 0)
(10.1618 -0.0608856 0)
(10.136 -0.0665289 0)
(10.1378 -0.0797562 0)
(10.1468 -0.0902195 0)
(10.145 -0.0947408 0)
(10.1293 -0.0956756 0)
(10.1064 -0.0968909 0)
(10.0851 -0.0997179 0)
(10.0704 -0.103832 0)
(10.0638 -0.10708 0)
(10.0635 -0.107795 0)
(9.88851 -0.0141619 0)
(10.08 0.00819274 0)
(10.2555 -0.0217359 0)
(10.3276 -0.0735566 0)
(10.2822 -0.0968591 0)
(10.1867 -0.0853062 0)
(10.1151 -0.0578646 0)
(10.0879 -0.0327663 0)
(10.0876 -0.0189463 0)
(10.0945 -0.0184184 0)
(10.0988 -0.0293295 0)
(10.0977 -0.0483443 0)
(10.089 -0.0708834 0)
(10.068 -0.0917725 0)
(10.0269 -0.105861 0)
(9.96642 -0.111042 0)
(9.88993 -0.10717 0)
(9.81229 -0.0976622 0)
(10.0081 -0.0459759 0)
(9.97223 -0.076514 0)
(9.76799 -0.11441 0)
(9.48291 -0.0978287 0)
(9.198 -0.065381 0)
(8.97173 -0.0452445 0)
(8.81135 -0.0442522 0)
(8.68685 -0.0552969 0)
(8.56893 -0.0676849 0)
(8.44448 -0.075655 0)
(8.30767 -0.0783011 0)
(8.15523 -0.0762499 0)
(7.98889 -0.0698054 0)
(7.8173 -0.059379 0)
(7.6508 -0.047255 0)
(7.49885 -0.0363641 0)
(7.36412 -0.0302107 0)
(7.24766 -0.0324016 0)
(-0.342812 0.633065 1.06739e-20)
(-0.85602 0.412749 -1.05242e-20)
(-1.24015 0.216447 0)
(-1.48933 0.0216658 0)
(-1.54828 -0.177718 0)
(-1.38262 -0.361556 1.01456e-20)
(-1.10088 -0.498347 0)
(-0.681006 -0.577459 0)
(-0.234777 -0.573664 0)
(0.228377 -0.541874 0)
(0.647679 -0.476971 -1.00239e-20)
(1.02373 -0.410175 0)
(1.35356 -0.349832 0)
(1.64187 -0.301723 0)
(1.89895 -0.267384 0)
(2.13496 -0.246253 -9.57692e-21)
(2.35946 -0.235624 0)
(2.57991 -0.231944 0)
(2.80265 -0.233823 0)
(3.03313 -0.237401 0)
(3.27231 -0.242344 0)
(3.52329 -0.247153 0)
(3.78287 -0.247804 0)
(4.04947 -0.248892 -8.8169e-21)
(4.32036 -0.239625 8.67793e-21)
(4.58359 -0.229168 -8.52942e-21)
(4.84373 -0.208832 -8.37463e-21)
(5.07342 -0.172772 0)
(5.28491 -0.144891 0)
(5.4462 -0.0693636 7.93198e-21)
(5.55053 -0.0234239 7.81551e-21)
(5.61312 0.0817491 0)
(5.52958 0.202403 0)
(5.41466 0.281946 7.65805e-21)
(5.0641 0.575675 0)
(4.5909 0.57856 0)
(4.02614 0.971676 -7.80402e-21)
(2.85366 1.41291 0)
(1.70791 0.548515 -7.74157e-21)
(0.90441 0.215904 -1.51892e-20)
(0.185205 0.527229 0)
(-0.462035 0.450718 0)
(-1.15836 0.299924 0)
(-1.86981 0.206305 0)
(-2.38502 0.0479706 0)
(-2.51464 -0.235132 -1.21296e-20)
(-2.23133 -0.575336 -1.22447e-20)
(-1.57562 -0.945839 -1.27224e-20)
(-0.40121 -1.27488 0)
(1.06799 -1.27432 1.41131e-20)
(2.53512 -1.09853 0)
(3.71698 -0.884704 -1.3891e-20)
(4.26395 0.183916 -1.36407e-20)
(4.16662 0.44987 0)
(3.24258 0.700495 0)
(2.02498 0.573062 0)
(1.99859 -0.812361 -1.40018e-20)
(2.00013 -0.508788 0)
(0.903645 0.739633 0)
(-0.536847 1.01424 0)
(-1.72156 0.839919 0)
(-2.65417 0.665348 0)
(-3.42186 0.51394 0)
(-4.01861 0.402932 0)
(-4.52766 0.317854 0)
(-4.94985 0.264394 8.23593e-21)
(-5.3334 0.227712 0)
(-5.67801 0.20917 0)
(-6.00894 0.198618 -6.02421e-21)
(-6.32559 0.196044 -5.34605e-21)
(-6.64173 0.196047 0)
(-6.95674 0.198492 4.05857e-21)
(-7.27676 0.200715 -3.44532e-21)
(-7.59904 0.202376 0)
(-7.92358 0.202038 2.27897e-21)
(-8.24549 0.199098 0)
(-8.5608 0.192415 0)
(-8.86251 0.181405 -7.23186e-22)
(-9.14366 0.165759 0)
(-9.39594 0.145432 -1.09566e-22)
(-9.6115 0.120798 0)
(-9.78289 0.0927305 6.90125e-22)
(-9.90421 0.0630071 8.62133e-22)
(-9.97147 0.0334568 9.46432e-22)
(-9.98355 0.00491321 1.88087e-21)
(-9.9445 -0.0219081 -1.69016e-21)
(-9.85704 -0.0463997 0)
(-9.72503 -0.0688943 0)
(-9.55135 -0.0891189 0)
(-9.34074 -0.106854 6.53314e-22)
(-9.09689 -0.122252 1.54975e-21)
(-8.82395 -0.135325 -2.53015e-21)
(-8.52556 -0.146277 0)
(-8.20515 -0.155286 4.66112e-21)
(-7.86578 -0.162568 5.77329e-21)
(-7.51021 -0.168338 6.89335e-21)
(-7.14091 -0.172796 0)
(-6.76003 -0.176113 0)
(-6.36947 -0.17843 0)
(-5.97093 -0.179862 1.11724e-20)
(-5.56608 -0.180455 0)
(-5.15669 -0.180207 0)
(-4.74449 -0.179156 -1.38846e-20)
(-4.33121 -0.17734 0)
(-3.9187 -0.174726 0)
(-3.50885 -0.171315 -1.5976e-20)
(-3.10363 -0.167126 0)
(-2.70507 -0.162166 0)
(-2.31506 -0.156471 1.73689e-20)
(-1.93537 -0.150067 1.76769e-20)
(-1.56782 -0.142911 0)
(-1.21432 -0.13508 -1.80704e-20)
(-0.876661 -0.126724 0)
(-0.556327 -0.117958 1.8193e-20)
(-0.254338 -0.108286 0)
(0.0271943 -0.100722 1.80815e-20)
(0.287501 -0.091813 1.79461e-20)
(0.528725 -0.0833864 0)
(0.75038 -0.0754012 0)
(0.953462 -0.0680084 0)
(1.13935 -0.0614256 0)
(1.31011 -0.0558786 0)
(1.46842 -0.0515511 0)
(1.6176 -0.0485905 0)
(1.76144 -0.0470838 1.59609e-20)
(1.90414 -0.0470585 -1.56864e-20)
(2.05008 -0.0484973 0)
(2.20349 -0.0512575 0)
(2.36805 -0.0550139 0)
(2.54644 -0.0592728 0)
(2.7398 -0.0633925 -2.90381e-20)
(2.94728 -0.0666334 0)
(3.16579 -0.068266 2.83042e-20)
(3.39014 -0.0677683 -2.79561e-20)
(3.61383 -0.0650592 0)
(3.83013 -0.0604186 0)
(4.03312 -0.0538392 0)
(4.21758 -0.0447175 2.65363e-20)
(4.37862 -0.0333859 2.61711e-20)
(4.51316 -0.0227615 0)
(4.62229 -0.0155716 2.5452e-20)
(4.70875 -0.0103298 2.51057e-20)
(4.77332 -0.00327619 -2.47713e-20)
(4.81552 0.00719999 0)
(4.83426 0.0171686 0)
(4.83367 0.0210348 -2.38397e-20)
(4.8202 0.0237708 0)
(4.78441 0.0406444 0)
(4.70065 0.0766265 0)
(4.55123 0.113013 0)
(4.35003 0.126207 2.25006e-20)
(4.13183 0.112597 2.22298e-20)
(3.92335 0.0857097 0)
(3.73423 0.0592068 2.1695e-20)
(3.56819 0.0380864 0)
(3.43205 0.0212624 0)
(3.33357 0.00739554 2.09129e-20)
(3.27408 -0.00429532 0)
(3.24417 -0.013792 2.04468e-20)
(3.22803 -0.0184257 0)
(3.21006 -0.0144596 0)
(3.17702 0.00110805 1.97586e-20)
(3.11686 0.0257386 0)
(3.02245 0.0485835 1.92402e-20)
(2.89794 0.0579605 0)
(2.76211 0.0525487 0)
(2.63694 0.03868 0)
(2.53736 0.0242993 -1.8102e-20)
(2.46395 0.0145022 0)
(2.41135 0.00981086 1.75874e-20)
(2.36869 0.00844915 0)
(2.3312 0.00772362 0)
(2.29334 0.00737058 0)
(2.25234 0.00632753 0)
(2.21161 0.00839379 0)
(2.1497 0.00896433 0)
(2.106 0.0184988 0)
(1.97354 0.0195489 -3.13471e-20)
(1.95517 0.0490108 0)
(1.59583 0.0377967 0)
(-0.0542029 1.66542 -3.1812e-20)
(-0.25123 1.35513 3.14485e-20)
(-0.370687 0.991746 0)
(-0.367022 0.574918 -2.0498e-20)
(-0.252593 0.0402044 0)
(-0.0616387 -0.578431 -1.01771e-20)
(0.250066 -1.03049 2.02148e-20)
(0.574244 -1.30381 2.0135e-20)
(0.859076 -1.38505 0)
(1.0865 -1.32529 1.98894e-20)
(1.26673 -1.19308 9.99852e-21)
(1.41116 -1.04177 0)
(1.52836 -0.901869 0)
(1.62856 -0.788494 0)
(1.72343 -0.705325 0)
(1.82231 -0.651395 9.58132e-21)
(1.93285 -0.622628 0)
(2.0599 -0.614114 -1.87674e-20)
(2.20641 -0.62101 0)
(2.37486 -0.637668 0)
(2.56514 -0.660661 1.82906e-20)
(2.77861 -0.684267 0)
(3.01314 -0.70419 -1.78596e-20)
(3.26519 -0.717956 8.82941e-21)
(3.53435 -0.715981 -8.69009e-21)
(3.8077 -0.701874 8.54107e-21)
(4.0874 -0.66429 8.38573e-21)
(4.35772 -0.601187 0)
(4.60969 -0.521002 0)
(4.84629 -0.393521 -7.94097e-21)
(5.03235 -0.258703 7.61075e-21)
(5.19425 -0.0714236 0)
(5.29113 0.15367 0)
(5.37005 0.38281 -7.6564e-21)
(5.36081 0.743129 0)
(5.3099 1.04162 0)
(5.20717 1.47278 7.77145e-21)
(4.87799 1.98074 0)
(4.66864 2.31063 -7.11528e-21)
(3.90406 2.29901 1.50607e-20)
(2.75181 1.6771 0)
(1.93484 1.39101 0)
(1.18346 1.5891 2.68124e-20)
(0.524055 1.50598 2.53933e-20)
(0.0636461 0.933697 2.40419e-20)
(-0.273316 0.0454853 -1.10604e-20)
(-0.405128 -0.923612 1.22867e-20)
(-0.325428 -1.97426 3.65332e-20)
(0.224611 -2.99546 -2.50992e-20)
(1.08181 -3.49279 -1.40727e-20)
(2.19322 -2.96671 0)
(2.82716 -1.52669 1.38945e-20)
(3.39619 -0.543786 -1.30389e-20)
(3.2053 0.715344 0)
(2.2426 1.94703 0)
(2.22266 0.988613 0)
(0.920657 1.12833 1.40355e-20)
(-0.675379 2.05127 0)
(-1.91486 2.40681 -2.62492e-20)
(-2.79879 2.19959 0)
(-3.49256 1.82954 -2.37808e-20)
(-4.03892 1.48935 0)
(-4.52671 1.19623 2.06261e-20)
(-4.93208 0.983122 0)
(-5.31175 0.82332 -1.74821e-20)
(-5.65553 0.720368 7.76055e-21)
(-5.98728 0.648619 0)
(-6.30598 0.604923 1.31258e-20)
(-6.61966 0.575772 6.01451e-21)
(-6.92786 0.560436 5.33768e-21)
(-7.23136 0.552277 0)
(-7.53004 0.548854 3.854e-21)
(-7.82338 0.545673 3.44043e-21)
(-8.11042 0.540721 0)
(-8.38936 0.53122 -2.27613e-21)
(-8.65809 0.515275 3.24061e-21)
(-8.91331 0.490852 0)
(-9.15069 0.456595 7.2257e-22)
(-9.36531 0.411531 0)
(-9.55185 0.355377 6.1251e-22)
(-9.70509 0.2889 0)
(-9.81996 0.213933 -2.37881e-21)
(-9.89253 0.133346 -8.621e-22)
(-9.92064 0.0505039 1.25734e-21)
(-9.90344 -0.0314264 2.48695e-21)
(-9.83832 -0.109961 -2.27021e-21)
(-9.72695 -0.182697 0)
(-9.57165 -0.248595 0)
(-9.37717 -0.307135 0)
(-9.14698 -0.358124 -1.52928e-21)
(-8.88559 -0.401926 -1.54967e-21)
(-8.5968 -0.438984 2.52999e-21)
(-8.28433 -0.469941 0)
(-7.95149 -0.495452 4.38873e-21)
(-7.60126 -0.516188 -5.77275e-21)
(-7.23629 -0.532776 -6.89267e-21)
(-6.85897 -0.545773 0)
(-6.47139 -0.555648 0)
(-6.07539 -0.562776 0)
(-5.67258 -0.567448 -1.11712e-20)
(-5.2645 -0.569788 0)
(-4.85286 -0.569737 2.59952e-20)
(-4.43926 -0.567319 4.15738e-20)
(-4.0252 -0.562619 -2.9246e-20)
(-3.61236 -0.55551 0)
(-3.20247 -0.545967 -1.59325e-20)
(-2.79726 -0.534037 0)
(-2.39856 -0.519726 -3.39408e-20)
(-2.00806 -0.503117 1.73516e-20)
(-1.62712 -0.484218 1.76665e-20)
(-1.25752 -0.462898 0)
(-0.900788 -0.439784 5.42121e-20)
(-0.558812 -0.414907 -3.63316e-20)
(-0.232862 -0.388647 -1.81943e-20)
(0.0743271 -0.361763 0)
(0.362199 -0.335806 -1.80709e-20)
(0.630863 -0.30895 -5.38061e-20)
(0.880172 -0.282547 0)
(1.11 -0.257317 -3.51012e-20)
(1.32098 -0.233929 -3.46297e-20)
(1.5144 -0.213016 -3.41168e-20)
(1.69213 -0.195204 0)
(1.85675 -0.181084 0)
(2.0115 -0.171187 0)
(2.16027 -0.165914 1.59259e-20)
(2.30741 -0.165469 1.56771e-20)
(2.45756 -0.169801 0)
(2.61535 -0.178486 3.02849e-20)
(2.78496 -0.190614 2.98131e-20)
(2.9696 -0.20473 0)
(3.17087 -0.218858 2.90187e-20)
(3.38827 -0.230681 5.71986e-20)
(3.61882 -0.237928 -2.82842e-20)
(3.85722 -0.238914 -2.78664e-20)
(4.09642 -0.232985 0)
(4.3284 -0.220657 0)
(4.5449 -0.203352 0)
(4.73882 -0.182765 -2.6518e-20)
(4.90668 -0.160098 2.61166e-20)
(5.04909 -0.13592 5.15509e-20)
(5.16644 -0.110809 -2.54363e-20)
(5.2579 -0.0859538 2.50652e-20)
(5.32583 -0.063312 2.47572e-20)
(5.37646 -0.0443783 0)
(5.41988 -0.028294 0)
(5.46332 -0.0132158 -2.3803e-20)
(5.50396 0.00378917 0)
(5.53853 0.0266404 0)
(5.56672 0.0567138 4.59778e-20)
(5.58971 0.0891906 0)
(5.61303 0.114582 2.2444e-20)
(5.64519 0.128239 -2.2196e-20)
(5.68664 0.134867 0)
(5.71756 0.138486 2.16576e-20)
(5.70524 0.133308 0)
(5.63499 0.111891 0)
(5.52713 0.0787969 -2.08691e-20)
(5.41933 0.0490376 4.12842e-20)
(5.33786 0.0340925 -2.04073e-20)
(5.28005 0.033837 0)
(5.22028 0.0406963 0)
(5.13634 0.0484194 1.97143e-20)
(5.02866 0.0562908 0)
(4.91488 0.0659299 1.91946e-20)
(4.81239 0.0750436 0)
(4.72853 0.0782238 0)
(4.6621 0.0715528 0)
(4.61153 0.0577515 1.80695e-20)
(4.57586 0.0434445 0)
(4.55328 0.0325457 -1.75558e-20)
(4.54009 0.0272683 0)
(4.53081 0.0250805 0)
(4.52371 0.0275413 3.36305e-20)
(4.50951 0.029068 -3.31408e-20)
(4.49615 0.0373133 0)
(4.45459 0.0398023 0)
(4.42737 0.058669 0)
(4.32118 0.058883 9.38075e-20)
(4.2988 0.103425 0)
(4.04979 0.0968632 -6.07369e-20)
(0.150027 1.50627 -1.01127e-22)
(0.268925 1.35884 -4.19579e-20)
(0.382586 0.655545 0)
(0.519084 -0.0557467 4.11974e-20)
(0.70245 -0.676813 0)
(0.926636 -1.23196 0)
(1.06542 -1.61325 7.33206e-23)
(1.0514 -1.74352 -2.00988e-20)
(0.918305 -1.61413 -1.99425e-20)
(0.736286 -1.33862 -1.99099e-20)
(0.534662 -1.04353 0)
(0.372298 -0.800489 0)
(0.264311 -0.639102 1.93355e-20)
(0.205031 -0.558823 3.84139e-20)
(0.189019 -0.542918 -3.81685e-20)
(0.210859 -0.571027 0)
(0.268792 -0.626504 -3.76872e-20)
(0.360931 -0.698993 1.88497e-20)
(0.487259 -0.780645 0)
(0.645702 -0.866542 -3.68511e-20)
(0.836648 -0.951258 -1.83663e-20)
(1.05887 -1.02944 3.61019e-20)
(1.30945 -1.09684 1.79287e-20)
(1.58726 -1.14573 0)
(1.88686 -1.17097 -3.45404e-20)
(2.2017 -1.16946 -3.39011e-20)
(2.52855 -1.12859 0)
(2.85292 -1.05049 -3.25159e-20)
(3.17051 -0.931902 0)
(3.46868 -0.760538 -3.11513e-20)
(3.7369 -0.561801 -1.54765e-20)
(3.97702 -0.307348 0)
(4.16367 -0.0215647 0)
(4.33251 0.284659 0)
(4.4519 0.67227 0)
(4.5803 1.04794 0)
(4.71785 1.51664 0)
(4.81056 2.02351 -2.88784e-20)
(5.03265 2.51195 4.34567e-20)
(5.06156 2.94884 0)
(4.85679 3.04841 0)
(4.40709 2.8158 0)
(3.7508 2.47515 -1.44615e-22)
(3.29865 2.01322 -2.52204e-20)
(3.04017 1.33292 -4.81343e-20)
(2.80831 0.519624 4.67107e-20)
(2.57837 -0.395919 2.34926e-20)
(2.3594 -1.54779 -2.36733e-20)
(2.27639 -3.00441 2.471e-22)
(2.26908 -3.97302 -2.61142e-20)
(2.24711 -3.48968 0)
(2.29029 -2.09677 -2.72919e-20)
(2.03218 0.136479 -4.30061e-22)
(1.12143 2.1656 0)
(1.03698 2.06352 0)
(0.375852 2.15833 2.75727e-20)
(-1.29932 3.17498 0)
(-2.31641 3.48345 0)
(-2.99413 3.33123 -2.3805e-20)
(-3.3487 2.90293 -4.7523e-20)
(-3.68151 2.42277 2.37489e-20)
(-3.95498 2.00937 0)
(-4.25861 1.67091 -2.06202e-20)
(-4.55528 1.42505 0)
(-4.86904 1.24014 -1.60467e-20)
(-5.18811 1.1157 -1.5984e-20)
(-5.50548 1.0296 2.8033e-20)
(-5.81612 0.976404 1.22319e-20)
(-6.11563 0.941828 0)
(-6.41119 0.91995 -2.01769e-20)
(-6.70349 0.903881 0)
(-6.9953 0.891587 -2.30996e-20)
(-7.28405 0.87887 -1.27663e-20)
(-7.57003 0.86262 -1.03935e-20)
(-7.85016 0.839633 8.08004e-21)
(-8.12192 0.807603 -9.08212e-21)
(-8.38109 0.763562 0)
(-8.62345 0.705044 0)
(-8.84304 0.630319 -1.84788e-22)
(-9.03301 0.538999 -2.33403e-21)
(-9.18614 0.432089 0)
(-9.29596 0.31232 1.69002e-21)
(-9.35727 0.183528 0)
(-9.36667 0.0497744 -7.55485e-21)
(-9.32382 -0.0840066 9.28813e-22)
(-9.23064 -0.211553 -8.9989e-22)
(-9.09012 -0.329782 4.06113e-21)
(-8.90702 -0.436015 0)
(-8.68608 -0.529685 -1.49207e-21)
(-8.43198 -0.610924 6.80828e-22)
(-8.14924 -0.680327 0)
(-7.84204 -0.738832 0)
(-7.51422 -0.787495 0)
(-7.16924 -0.827433 -9.05515e-21)
(-6.81017 -0.859729 0)
(-6.43974 -0.885378 0)
(-6.0604 -0.905257 0)
(-5.67435 -0.920128 0)
(-5.28354 -0.930573 0)
(-4.88954 -0.937018 -2.20438e-20)
(-4.49371 -0.939744 0)
(-4.09771 -0.938695 -2.60077e-20)
(-3.70309 -0.933814 -2.77033e-20)
(-3.31094 -0.925301 2.92583e-20)
(-2.92288 -0.912981 0)
(-2.54005 -0.896757 3.19184e-20)
(-2.16386 -0.876659 0)
(-1.7954 -0.852766 3.39507e-20)
(-1.43608 -0.82514 -3.47287e-20)
(-1.0863 -0.793811 -1.06018e-19)
(-0.748218 -0.758489 0)
(-0.422017 -0.720919 -1.08438e-19)
(-0.108275 -0.680848 -3.63379e-20)
(0.190031 -0.638897 0)
(0.472318 -0.596541 -7.26139e-20)
(0.738398 -0.55266 -7.22485e-20)
(0.987337 -0.508356 1.07545e-19)
(1.21912 -0.464685 0)
(1.43377 -0.422627 3.50774e-20)
(1.63166 -0.383271 3.46077e-20)
(1.81371 -0.34777 1.02269e-19)
(1.98142 -0.317288 0)
(2.13696 -0.292937 0)
(2.28328 -0.275723 0)
(2.42407 -0.266466 3.17771e-20)
(2.56359 -0.265655 0)
(2.70653 -0.273251 0)
(2.85762 -0.288552 -3.02706e-20)
(3.02123 -0.310035 -2.97988e-20)
(3.20085 -0.33523 0)
(3.39848 -0.360728 0)
(3.61408 -0.382446 -5.71693e-20)
(3.84528 -0.396254 0)
(4.08748 -0.398852 5.57728e-20)
(4.33435 -0.388497 5.4981e-20)
(4.57874 -0.364996 0)
(4.8135 -0.329306 0)
(5.03065 -0.28412 -5.28878e-20)
(5.21954 -0.235023 -7.12578e-23)
(5.3682 -0.18872 -6.36605e-23)
(5.4693 -0.148579 0)
(5.5239 -0.113836 -1.00232e-19)
(5.53804 -0.0831245 0)
(5.52048 -0.0569578 0)
(5.48664 -0.0390007 0)
(5.46001 -0.0291844 4.76287e-20)
(5.46289 -0.0194575 0)
(5.50005 0.00411517 -9.2952e-20)
(5.55371 0.0450663 -4.59798e-20)
(5.59817 0.0853751 0)
(5.62277 0.0988686 -4.4916e-20)
(5.64553 0.0802007 0)
(5.7003 0.0547102 0)
(5.80264 0.054093 -1.29943e-19)
(5.9239 0.0849693 8.55823e-20)
(6.00266 0.121568 0)
(5.99244 0.130654 8.35275e-20)
(5.90191 0.104196 -4.12618e-20)
(5.78623 0.0647983 0)
(5.70081 0.0430178 0)
(5.66125 0.0543519 0)
(5.63891 0.0898167 -1.18214e-19)
(5.59347 0.126923 0)
(5.50881 0.148416 -3.83774e-20)
(5.39846 0.1498 0)
(5.28539 0.133011 0)
(5.18705 0.104013 0)
(5.11201 0.0719264 0)
(5.06279 0.0453716 0)
(5.03541 0.0273945 0)
(5.02484 0.0188273 -6.92182e-20)
(5.02132 0.014849 0)
(5.02333 0.0167883 -3.3616e-20)
(5.02129 0.0185122 9.93643e-20)
(5.02601 0.0297873 0)
(5.01859 0.0376061 0)
(5.02726 0.0663582 -6.33426e-20)
(4.99692 0.0795817 -6.24829e-20)
(5.00317 0.13535 6.14772e-20)
(4.91305 0.15068 6.06933e-20)
(0.137376 0.655057 6.39097e-20)
(0.312332 0.801352 6.33945e-20)
(0.483289 0.430615 4.20326e-20)
(0.658871 -0.120266 2.09918e-20)
(0.815959 -0.813888 0)
(0.775027 -1.27672 -4.09991e-20)
(0.515992 -1.29729 2.03968e-20)
(0.00381328 -0.997278 0)
(-0.408053 -0.601515 1.99914e-20)
(-0.648144 -0.422513 0)
(-0.863878 -0.456933 -3.90539e-20)
(-1.01625 -0.541184 0)
(-1.1174 -0.602845 -1.92957e-20)
(-1.17895 -0.653278 -3.83171e-20)
(-1.20847 -0.710301 3.8064e-20)
(-1.2084 -0.782028 0)
(-1.17894 -0.871939 3.75903e-20)
(-1.11832 -0.97953 0)
(-1.02409 -1.10119 0)
(-0.894478 -1.23177 3.68144e-20)
(-0.726668 -1.36492 0)
(-0.521844 -1.49343 -4.85432e-22)
(-0.278821 -1.60802 0)
(-0.000135416 -1.70162 0)
(0.310416 -1.76563 4.03945e-22)
(0.650557 -1.78953 3.40072e-20)
(1.01362 -1.76548 3.29642e-20)
(1.38972 -1.6882 3.26082e-20)
(1.7716 -1.5464 0)
(2.14583 -1.34567 6.21173e-20)
(2.50425 -1.09211 0)
(2.83931 -0.771178 2.97317e-20)
(3.13354 -0.417708 0)
(3.39591 -0.0373277 0)
(3.61008 0.386469 -2.87789e-20)
(3.80034 0.778928 0)
(3.98981 1.20288 2.8566e-20)
(4.19634 1.65514 4.446e-22)
(4.49476 2.08251 -5.71003e-20)
(4.83041 2.56486 5.63453e-20)
(5.17522 2.9832 0)
(5.37424 3.14688 0)
(5.34642 3.05944 2.74072e-20)
(5.24951 2.67652 0)
(5.06478 1.95772 2.41296e-20)
(4.79159 0.957762 -2.34788e-20)
(4.51962 -0.117929 -2.3388e-20)
(4.18918 -1.20002 0)
(3.9145 -2.54016 2.46551e-20)
(3.54795 -3.59505 2.60567e-20)
(2.92784 -3.01929 -5.46906e-20)
(2.17713 -0.954642 2.73265e-20)
(1.30966 1.33602 2.71926e-20)
(0.679645 2.459 0)
(0.188597 2.84466 0)
(-1.318 4.00044 -2.74709e-20)
(-2.37393 4.52913 0)
(-2.79021 4.23239 0)
(-3.07429 3.77626 4.99198e-20)
(-3.19447 3.21715 4.7512e-20)
(-3.3804 2.73448 0)
(-3.54936 2.34128 0)
(-3.74289 2.03202 0)
(-3.94348 1.80766 0)
(-4.1702 1.64563 3.35583e-20)
(-4.43884 1.53088 -2.94265e-20)
(-4.74071 1.43796 -2.80573e-20)
(-5.06879 1.36386 -4.96748e-20)
(-5.39603 1.30873 0)
(-5.71609 1.27318 9.17751e-22)
(-6.02439 1.24929 0)
(-6.32575 1.22994 1.52003e-20)
(-6.61833 1.20993 7.96854e-22)
(-6.90299 1.18584 1.04007e-20)
(-7.17897 1.15247 -8.08572e-21)
(-7.44659 1.1055 8.25777e-22)
(-7.70252 1.04143 0)
(-7.94222 0.957345 -7.51875e-22)
(-8.16005 0.850776 1.84936e-22)
(-8.34966 0.720622 4.72454e-21)
(-8.50321 0.567709 0)
(-8.61282 0.395741 -5.4679e-21)
(-8.67248 0.211117 0)
(-8.67828 0.0212005 1.19316e-20)
(-8.62655 -0.166882 -5.30571e-21)
(-8.5181 -0.344289 4.86799e-21)
(-8.35799 -0.507381 -4.06466e-21)
(-8.15123 -0.653387 -7.999e-21)
(-7.9037 -0.781531 1.49328e-21)
(-7.62089 -0.892033 1.95911e-22)
(-7.30813 -0.985799 0)
(-6.97035 -1.06405 -6.80517e-21)