/*--------------------------------*- C++ -*----------------------------------*\
  =========                 |
  \\      /  F ield         | OpenFOAM: The Open Source CFD Toolbox
   \\    /   O peration     | Website:  https://openfoam.org
    \\  /    A nd           | Version:  9
     \\/     M anipulation  |
\*---------------------------------------------------------------------------*/
FoamFile
{
    format      ascii;
    class       volScalarField;
    location    "0.14";
    object      nut;
}
// * * * * * * * * * * * * * * * * * * * * * * * * * * * * * * * * * * * * * //

dimensions      [0 2 -1 0 0 0 0];

internalField   nonuniform List<scalar> 
12225
(
8.99038e-06
7.55076e-06
6.46611e-06
5.6797e-06
5.1486e-06
4.83659e-06
4.71043e-06
4.73733e-06
4.88478e-06
5.12146e-06
5.41836e-06
5.74972e-06
6.09322e-06
6.48641e-06
6.90766e-06
7.36023e-06
7.87994e-06
8.64436e-06
6.75831e-05
4.78821e-05
4.06048e-05
3.72184e-05
3.55671e-05
3.47885e-05
3.44269e-05
3.42338e-05
3.40851e-05
3.39257e-05
3.37353e-05
3.35113e-05
3.32535e-05
3.29024e-05
3.24517e-05
3.18947e-05
3.11774e-05
3.02085e-05
0.000146247
0.000111426
9.2344e-05
7.98455e-05
7.06367e-05
6.33625e-05
5.73762e-05
5.23597e-05
4.81494e-05
4.46405e-05
4.17448e-05
3.93892e-05
3.75159e-05
3.5935e-05
3.4622e-05
3.35577e-05
3.27415e-05
3.22042e-05
0.000188901
0.000163616
0.000143973
0.000128781
0.000116582
0.000106429
9.77265e-05
9.01222e-05
8.34282e-05
7.75541e-05
7.24767e-05
6.81768e-05
6.44494e-05
6.12594e-05
5.86006e-05
5.64924e-05
5.49855e-05
5.41547e-05
0.000204976
0.000192434
0.000179466
0.000167464
0.0001567
0.000147109
0.000138532
0.000130818
0.000123865
0.000117646
0.000112109
0.000107153
0.000102765
9.89479e-05
9.57243e-05
9.31424e-05
9.12724e-05
9.01878e-05
0.000210158
0.000204831
0.000198112
0.000190847
0.000183551
0.000176504
0.000169838
0.000163602
0.000157839
0.000152525
0.000147632
0.000143169
0.000139151
0.000135606
0.000132579
0.000130129
0.000128326
0.000127229
0.00021168
0.000209372
0.000206219
0.000202442
0.000198283
0.000193952
0.000189601
0.000185351
0.000181252
0.000177341
0.000173653
0.000170221
0.000167081
0.000164274
0.000161852
0.000159873
0.000158399
0.000157474
0.000212094
0.000210845
0.000209261
0.000207342
0.000205141
0.000202734
0.000200206
0.00019762
0.000195028
0.00019248
0.000190016
0.000187677
0.000185501
0.000183532
0.000181818
0.00018041
0.00017936
0.000178701
0.000212198
0.000211275
0.000210267
0.000209144
0.0002079
0.000206546
0.000205103
0.000203598
0.000202058
0.000200513
0.000198992
0.000197525
0.000196144
0.000194885
0.000193785
0.000192886
0.000192228
0.000191833
0.000212223
0.000211387
0.000210561
0.000209726
0.000208868
0.000207981
0.000207068
0.000206131
0.000205182
0.000204232
0.000203296
0.000202393
0.000201543
0.00020077
0.000200101
0.000199565
0.000199192
0.000198996
0.000212227
0.000211413
0.000210637
0.000209889
0.000209163
0.000208452
0.000207753
0.000207065
0.000206389
0.00020573
0.000205094
0.00020449
0.000203931
0.00020343
0.000203005
0.000202676
0.000202464
0.000202375
0.000212228
0.000211417
0.000210651
0.000209925
0.000209234
0.000208574
0.000207943
0.000207338
0.00020676
0.00020621
0.000205691
0.000205208
0.000204768
0.000204381
0.000204057
0.000203811
0.000203656
0.000203597
0.000212228
0.000211418
0.000210653
0.000209931
0.000209249
0.000208604
0.000207994
0.000207418
0.000206874
0.000206364
0.000205889
0.000205452
0.000205056
0.000204709
0.000204418
0.000204191
0.000204038
0.000203963
0.000212228
0.000211418
0.000210652
0.000209929
0.000209248
0.000208604
0.000207997
0.000207426
0.00020689
0.000206389
0.000205923
0.000205494
0.000205105
0.00020476
0.000204463
0.000204219
0.000204036
0.000203916
0.000212229
0.000211417
0.00021065
0.000209926
0.000209241
0.000208595
0.000207985
0.000207411
0.000206871
0.000206365
0.000205893
0.000205456
0.000205055
0.000204693
0.000204371
0.000204094
0.000203865
0.000203688
0.000212229
0.000211417
0.000210649
0.000209922
0.000209235
0.000208585
0.000207971
0.000207391
0.000206844
0.00020633
0.000205847
0.000205397
0.000204979
0.000204594
0.000204243
0.000203929
0.000203653
0.000203421
0.000212229
0.000211418
0.000210648
0.00020992
0.00020923
0.000208576
0.000207958
0.000207372
0.000206818
0.000206295
0.000205802
0.000205339
0.000204904
0.000204498
0.000204122
0.000203776
0.00020346
0.000203182
0.00021223
0.000211418
0.000210648
0.000209918
0.000209226
0.000208569
0.000207947
0.000207356
0.000206796
0.000206266
0.000205764
0.00020529
0.000204842
0.00020442
0.000204024
0.000203653
0.000203308
0.000202996
0.00021223
0.000211418
0.000210648
0.000209917
0.000209223
0.000208564
0.000207938
0.000207344
0.00020678
0.000206245
0.000205736
0.000205254
0.000204797
0.000204364
0.000203955
0.000203567
0.000203203
0.000202869
0.00021223
0.000211418
0.000210647
0.000209915
0.00020922
0.00020856
0.000207933
0.000207337
0.00020677
0.000206232
0.000205721
0.000205234
0.000204772
0.000204333
0.000203917
0.000203521
0.000203147
0.000202802
0.00021223
0.000211418
0.000210647
0.000209914
0.000209218
0.000208557
0.000207928
0.00020733
0.00020676
0.000206218
0.000205702
0.00020521
0.000204741
0.000204293
0.000203867
0.000203461
0.000203075
0.000202716
0.00021223
0.000211417
0.000210645
0.00020991
0.000209209
0.000208541
0.000207902
0.00020729
0.000206703
0.000206138
0.000205595
0.000205073
0.000204569
0.000204083
0.000203614
0.000203162
0.000202728
0.00020232
0.000212229
0.000211412
0.000210628
0.000209871
0.000209135
0.000208416
0.000207708
0.00020701
0.000206319
0.000205635
0.000204957
0.000204287
0.000203624
0.000202971
0.000202329
0.0002017
0.000201086
0.000200497
0.000212218
0.000211358
0.000210483
0.000209575
0.000208623
0.000207623
0.000206576
0.000205487
0.000204365
0.000203219
0.000202057
0.000200888
0.000199721
0.000198564
0.000197422
0.000196302
0.000195209
0.000194161
0.000212114
0.000210942
0.000209518
0.000207839
0.000205937
0.000203858
0.000201653
0.000199369
0.000197045
0.000194714
0.000192401
0.000190125
0.000187901
0.000185738
0.000183645
0.000181628
0.000179692
0.000177855
0.000211337
0.000208413
0.000204593
0.00020021
0.00019554
0.00019079
0.000186097
0.000181543
0.000177171
0.000172998
0.00016903
0.000165264
0.000161694
0.000158314
0.000155116
0.000152094
0.000149242
0.000146573
0.000206547
0.000196563
0.000186022
0.000176032
0.000166921
0.000158741
0.000151417
0.000144835
0.000138879
0.000133453
0.000128478
0.000123892
0.000119649
0.000115713
0.000112059
0.000108666
0.000105516
0.000102609
0.000183008
0.000156953
0.000138418
0.000124826
0.000114386
0.000106074
9.92433e-05
9.34725e-05
8.84896e-05
8.41184e-05
8.02421e-05
7.67806e-05
7.36774e-05
7.08899e-05
6.83842e-05
6.6131e-05
6.41046e-05
6.22853e-05
0.000105333
7.84969e-05
6.64891e-05
5.97941e-05
5.56754e-05
5.30715e-05
5.14311e-05
5.04181e-05
4.98144e-05
4.94736e-05
4.92955e-05
4.92112e-05
4.91738e-05
4.91518e-05
4.91252e-05
4.90812e-05
4.90138e-05
4.89143e-05
1.67218e-05
1.50165e-05
1.36039e-05
1.24367e-05
1.14822e-05
1.07146e-05
1.01126e-05
9.65785e-06
9.33334e-06
9.12307e-06
9.01177e-06
8.98486e-06
9.02848e-06
9.12958e-06
9.2761e-06
9.45704e-06
9.66269e-06
9.88382e-06
1.21906e-05
1.46664e-05
1.61363e-05
1.7241e-05
1.81212e-05
1.88823e-05
1.96186e-05
2.01925e-05
2.05101e-05
2.07398e-05
2.09065e-05
2.10452e-05
2.11751e-05
2.13136e-05
2.14733e-05
2.16636e-05
2.18911e-05
2.21605e-05
2.24765e-05
2.28424e-05
2.32797e-05
2.37472e-05
2.41669e-05
2.45153e-05
2.47604e-05
2.48576e-05
2.47435e-05
2.43265e-05
2.34549e-05
2.18294e-05
1.88876e-05
1.45622e-05
5.21966e-05
1.10698e-05
1.20296e-05
1.30858e-05
1.40358e-05
1.48636e-05
1.5762e-05
1.68634e-05
1.85671e-05
1.95058e-05
1.95755e-05
1.89579e-05
1.78361e-05
1.68116e-05
1.58096e-05
1.51212e-05
1.49933e-05
1.51485e-05
1.52198e-05
1.51196e-05
1.56452e-05
1.8913e-05
2.36935e-05
2.70138e-05
2.96623e-05
3.17519e-05
3.3381e-05
3.46318e-05
3.55716e-05
3.62551e-05
3.67267e-05
3.70227e-05
3.71729e-05
3.72016e-05
3.71294e-05
3.69732e-05
3.67476e-05
3.64645e-05
3.61351e-05
3.57523e-05
3.53577e-05
3.49512e-05
3.45335e-05
3.41057e-05
3.36686e-05
3.32229e-05
3.27688e-05
3.23061e-05
3.18338e-05
3.13503e-05
3.08532e-05
3.03387e-05
2.98021e-05
2.92373e-05
2.86374e-05
2.7995e-05
2.73029e-05
2.65552e-05
2.57479e-05
2.48801e-05
2.39543e-05
2.29763e-05
2.19546e-05
2.08996e-05
1.98234e-05
1.87073e-05
1.80903e-05
1.77689e-05
1.74943e-05
1.72467e-05
1.70241e-05
1.68267e-05
1.66545e-05
1.65073e-05
1.63842e-05
1.62839e-05
1.62047e-05
1.61447e-05
1.61017e-05
1.60733e-05
1.60566e-05
1.60488e-05
1.60463e-05
1.60478e-05
1.60487e-05
1.6022e-05
1.59482e-05
1.58088e-05
1.55873e-05
1.52712e-05
1.48578e-05
1.43606e-05
1.38075e-05
1.32136e-05
5.09026e-05
4.53441e-05
4.20853e-05
4.06079e-05
4.03177e-05
4.06787e-05
4.12588e-05
4.1741e-05
4.19236e-05
4.17153e-05
4.1127e-05
4.02619e-05
3.93032e-05
3.85132e-05
3.82414e-05
3.88896e-05
4.08063e-05
4.42649e-05
1.14868e-05
1.20597e-05
1.25926e-05
1.30217e-05
1.34222e-05
1.63298e-05
1.95092e-05
2.17065e-05
2.32139e-05
2.42039e-05
2.48119e-05
2.5148e-05
2.53311e-05
2.53944e-05
2.53097e-05
2.50947e-05
2.47519e-05
2.42718e-05
2.36364e-05
2.28231e-05
2.17707e-05
2.08374e-05
2.07823e-05
2.07363e-05
2.06938e-05
2.06755e-05
2.06964e-05
2.07606e-05
2.08628e-05
2.09961e-05
2.11619e-05
2.13133e-05
2.1257e-05
2.07383e-05
1.95911e-05
1.76977e-05
9.30516e-06
1.34079e-05
1.49513e-05
1.67678e-05
2.00375e-05
2.5987e-05
2.91463e-05
3.08888e-05
3.17185e-05
3.20431e-05
3.20269e-05
3.17758e-05
3.13726e-05
3.08834e-05
3.03562e-05
2.98213e-05
2.92962e-05
2.87915e-05
2.83154e-05
2.78755e-05
2.74806e-05
2.67895e-05
2.58029e-05
2.47584e-05
2.39193e-05
2.34726e-05
2.35039e-05
2.40206e-05
2.49603e-05
2.61722e-05
2.74138e-05
2.81928e-05
2.76147e-05
2.44802e-05
2.10945e-05
2.07677e-05
2.48043e-05
3.01118e-05
3.44753e-05
3.98275e-05
4.46234e-05
4.6947e-05
4.60138e-05
4.27954e-05
3.90067e-05
3.64064e-05
3.64191e-05
3.85444e-05
4.0686e-05
3.9992e-05
3.74171e-05
3.60251e-05
3.54394e-05
3.5424e-05
3.55966e-05
3.58221e-05
3.63004e-05
3.71586e-05
3.85049e-05
4.04315e-05
4.30176e-05
4.63271e-05
5.04017e-05
5.52488e-05
6.08253e-05
6.70196e-05
7.36372e-05
8.03961e-05
8.69455e-05
9.29128e-05
9.798e-05
0.000102108
0.000106293
0.000110573
0.000114969
0.000119497
0.000124173
0.000129006
0.000133998
0.000139141
0.000144413
0.000149775
0.000155167
0.000160504
0.000165677
0.000170552
0.000174976
0.000178787
0.000181832
0.000183975
0.000185119
0.000185209
0.000184236
0.000182224
0.000179208
0.000175177
0.000169984
0.000163064
0.000155544
0.000148155
0.000140841
0.000133655
0.00012664
0.000119823
0.000113225
0.000106856
0.000100722
9.48263e-05
8.91692e-05
8.37495e-05
7.85654e-05
7.36142e-05
6.88922e-05
6.4394e-05
6.01093e-05
5.59894e-05
5.15283e-05
4.62482e-05
4.10143e-05
3.63656e-05
3.25134e-05
2.95355e-05
2.74211e-05
2.61148e-05
2.56105e-05
2.62478e-05
2.95179e-05
3.30539e-05
3.66204e-05
4.00183e-05
4.31019e-05
4.57569e-05
4.7899e-05
4.94723e-05
5.04454e-05
5.08094e-05
5.05738e-05
4.97611e-05
4.84079e-05
4.65711e-05
4.43312e-05
4.18023e-05
3.89766e-05
3.58052e-05
3.33251e-05
3.38741e-05
3.73448e-05
4.32957e-05
4.99666e-05
5.7826e-05
6.98975e-05
8.58199e-05
0.000104141
0.000123085
0.000140975
0.000156197
0.000166671
0.000175519
0.000183769
0.000191333
0.000197897
0.000202941
0.000205768
0.000205515
0.000200596
0.000190444
0.000178462
0.000165702
0.000152845
0.000140352
0.000128504
0.000117442
0.00010719
9.76748e-05
8.86984e-05
7.82423e-05
6.38018e-05
5.34886e-05
4.89261e-05
4.99507e-05
6.95232e-06
1.0858e-05
1.32335e-05
1.67469e-05
2.39094e-05
2.89206e-05
3.04805e-05
3.03025e-05
2.96493e-05
2.90306e-05
2.85647e-05
2.82424e-05
2.8028e-05
2.7887e-05
2.77908e-05
2.77161e-05
2.76445e-05
2.75615e-05
2.74561e-05
2.73197e-05
2.71462e-05
2.69032e-05
2.64877e-05
2.57949e-05
2.4807e-05
2.36839e-05
2.27152e-05
2.21711e-05
2.22071e-05
2.28633e-05
2.40996e-05
2.57606e-05
2.73278e-05
2.77258e-05
2.63834e-05
2.42074e-05
2.30696e-05
2.4573e-05
3.00103e-05
3.76386e-05
4.50333e-05
5.00765e-05
5.16378e-05
5.07798e-05
5.0337e-05
4.97635e-05
5.01111e-05
4.93459e-05
4.6728e-05
4.35501e-05
4.11761e-05
4.02024e-05
4.03958e-05
4.16987e-05
4.41837e-05
4.80522e-05
5.35724e-05
6.09403e-05
7.02057e-05
8.11908e-05
9.34557e-05
0.000106345
0.000119116
0.000131097
0.000141803
0.000150991
0.000158629
0.000164838
0.00016982
0.000173798
0.000176931
0.000179811
0.000182631
0.000185447
0.000188312
0.000191278
0.000194396
0.000197712
0.000201262
0.000205073
0.000209155
0.000213497
0.000218059
0.000222771
0.000227524
0.000232171
0.000236535
0.000240415
0.000243609
0.000245932
0.000247231
0.000247407
0.000246412
0.000244249
0.000240947
0.00023654
0.000231016
0.000224266
0.00021731
0.000210325
0.00020332
0.000196361
0.000189497
0.000182765
0.000176184
0.000169769
0.000163522
0.000157446
0.000151535
0.000145785
0.000140189
0.000134739
0.000129428
0.000124245
0.000119175
0.000114179
0.000109118
0.000103784
9.77733e-05
9.09968e-05
8.38398e-05
7.66879e-05
6.99742e-05
6.40377e-05
5.90762e-05
5.53078e-05
5.29732e-05
5.16128e-05
5.09074e-05
5.06644e-05
5.07523e-05
5.10646e-05
5.15028e-05
5.19702e-05
5.2375e-05
5.26361e-05
5.2686e-05
5.24674e-05
5.19228e-05
5.09838e-05
4.95605e-05
4.75458e-05
4.49798e-05
4.30335e-05
4.39972e-05
4.94041e-05
5.87218e-05
7.0624e-05
8.64489e-05
0.000112226
0.000148469
0.000187759
0.000223038
0.000251299
0.000272456
0.00028741
0.000297062
0.000304414
0.000310206
0.000314532
0.000317194
0.000317703
0.000315339
0.00030926
0.000298852
0.000285471
0.000270294
0.000254301
0.000238312
0.000222899
0.000208395
0.000194936
0.000182517
0.000171031
0.000160208
0.000148819
0.000133807
0.000113059
9.24866e-05
7.75357e-05
5.17152e-06
1.08338e-05
1.80042e-05
2.79258e-05
3.16714e-05
3.16265e-05
3.03686e-05
2.91855e-05
2.84455e-05
2.81157e-05
2.80654e-05
2.81786e-05
2.83747e-05
2.86024e-05
2.88301e-05
2.90387e-05
2.92161e-05
2.9355e-05
2.94508e-05
2.94999e-05
2.94979e-05
2.94264e-05
2.91515e-05
2.86234e-05
2.77585e-05
2.65059e-05
2.49666e-05
2.34359e-05
2.22689e-05
2.17046e-05
2.18314e-05
2.26504e-05
2.39987e-05
2.53375e-05
2.5965e-05
2.57019e-05
2.54607e-05
2.70599e-05
3.25548e-05
4.17789e-05
5.14518e-05
5.88674e-05
6.27263e-05
6.29285e-05
5.89277e-05
5.5389e-05
5.24429e-05
4.88789e-05
4.59248e-05
4.43965e-05
4.47425e-05
4.70997e-05
5.15149e-05
5.8243e-05
6.76023e-05
7.97632e-05
9.45262e-05
0.000111161
0.000128483
0.000145164
0.000160113
0.000172713
0.000182827
0.000190657
0.000196558
0.000200914
0.00020406
0.000206262
0.000207724
0.000208597
0.000208976
0.000209093
0.00020903
0.000208865
0.000208681
0.000208571
0.000208631
0.000208959
0.000209649
0.000210789
0.00021245
0.000214679
0.000217491
0.00022086
0.000224709
0.000228905
0.000233266
0.000237569
0.00024157
0.000245028
0.000247729
0.000249507
0.000250253
0.00024991
0.000248463
0.000245909
0.000242218
0.000237484
0.00023246
0.000227226
0.000221858
0.000216433
0.000211006
0.000205617
0.000200295
0.000195058
0.000189918
0.00018488
0.000179947
0.000175118
0.00017039
0.000165761
0.000161223
0.000156771
0.000152394
0.000148075
0.000143778
0.000139437
0.000134931
0.000130005
0.000124627
0.000118887
0.000112931
0.000106972
0.000101235
9.59378e-05
9.12488e-05
8.71638e-05
8.35921e-05
8.04408e-05
7.76386e-05
7.51361e-05
7.28989e-05
7.08955e-05
6.90881e-05
6.74291e-05
6.58608e-05
6.43107e-05
6.26649e-05
6.07087e-05
5.80595e-05
5.43485e-05
5.03181e-05
4.89353e-05
5.31877e-05
6.30925e-05
7.6168e-05
9.40906e-05
0.000124123
0.000170827
0.000225288
0.000274686
0.000313127
0.000340526
0.00035876
0.000369732
0.000374998
0.000377166
0.000377164
0.000375446
0.000372117
0.000366945
0.000359361
0.000348696
0.000335532
0.000320325
0.000303828
0.000286931
0.000270429
0.000254877
0.000240574
0.000227614
0.000215951
0.000205455
0.000195879
0.000186657
0.000176446
0.000162176
0.00014292
0.000121954
1.13545e-05
2.03625e-05
3.02507e-05
3.18872e-05
3.08861e-05
2.97568e-05
2.92313e-05
2.92573e-05
2.95677e-05
2.994e-05
3.02602e-05
3.04984e-05
3.0668e-05
3.0794e-05
3.08972e-05
3.09896e-05
3.10763e-05
3.11596e-05
3.12416e-05
3.13251e-05
3.14115e-05
3.14918e-05
3.14223e-05
3.11093e-05
3.04889e-05
2.94715e-05
2.79967e-05
2.61524e-05
2.42421e-05
2.26559e-05
2.16693e-05
2.14122e-05
2.19043e-05
2.29669e-05
2.42124e-05
2.53843e-05
2.70656e-05
3.11495e-05
3.93348e-05
5.12528e-05
6.358e-05
7.26277e-05
7.22489e-05
6.41046e-05
5.79743e-05
5.33119e-05
4.98481e-05
4.78318e-05
4.79121e-05
5.04249e-05
5.56708e-05
6.38949e-05
7.53137e-05
9.00349e-05
0.000107722
0.000127371
0.000147431
0.000166261
0.000182639
0.000196015
0.000206428
0.000214263
0.000220011
0.000224123
0.000226952
0.00022875
0.000229685
0.000229874
0.000229399
0.000228329
0.000226654
0.000224471
0.000221854
0.000218891
0.000215692
0.000212388
0.000209129
0.000206078
0.000203409
0.000201293
0.000199891
0.00019934
0.000199738
0.000201128
0.000203487
0.000206715
0.000210641
0.000215028
0.000219596
0.00022405
0.000228107
0.000231526
0.000234123
0.000235773
0.000236401
0.000235961
0.000234359
0.000231859
0.000228922
0.00022565
0.000222138
0.000218464
0.000214683
0.000210839
0.000206964
0.00020308
0.000199206
0.000195355
0.000191534
0.000187751
0.000184011
0.000180316
0.000176668
0.000173066
0.000169508
0.000165988
0.000162494
0.000159004
0.000155479
0.000151844
0.000147954
0.000143833
0.0001395
0.000135015
0.000130465
0.000125951
0.000121575
0.000117399
0.000113435
0.000109672
0.000106088
0.000102662
9.93732e-05
9.61979e-05
9.31039e-05
9.00399e-05
8.69209e-05
8.36008e-05
7.98191e-05
7.51354e-05
6.90137e-05
6.16329e-05
5.55122e-05
5.48339e-05
6.1721e-05
7.45094e-05
8.97428e-05
0.000113983
0.000159801
0.000222443
0.000285747
0.000337449
0.000374799
0.000399577
0.00041422
0.000420686
0.000420596
0.000416551
0.000409786
0.000401198
0.000391288
0.000380159
0.000367472
0.000353554
0.000338261
0.000321801
0.000304769
0.000287923
0.000271956
0.000257339
0.000244296
0.000232855
0.000222916
0.000214308
0.000206809
0.000200081
0.000193469
0.000185532
0.000173776
0.000158256
2.23254e-05
2.84907e-05
2.99233e-05
2.93445e-05
2.94919e-05
3.04641e-05
3.16393e-05
3.24958e-05
3.28541e-05
3.27952e-05
3.24953e-05
3.21125e-05
3.17484e-05
3.14508e-05
3.12309e-05
3.10815e-05
3.09912e-05
3.09536e-05
3.09682e-05
3.10377e-05
3.11637e-05
3.13432e-05
3.15093e-05
3.15432e-05
3.13622e-05
3.08539e-05
2.98895e-05
2.83915e-05
2.64578e-05
2.44154e-05
2.26781e-05
2.1561e-05
2.12424e-05
2.17761e-05
2.30941e-05
2.5213e-05
2.89727e-05
3.66215e-05
4.9637e-05
6.47241e-05
7.8122e-05
7.89931e-05
6.85314e-05
5.99095e-05
5.42713e-05
5.10408e-05
5.01587e-05
5.19199e-05
5.67378e-05
6.49091e-05
7.66925e-05
9.21269e-05
0.000110851
0.000131916
0.000153768
0.000174636
0.000193099
0.000208426
0.000220569
0.000229905
0.000236969
0.000242266
0.000246189
0.000249015
0.00025092
0.000252005
0.000252325
0.000251903
0.000250743
0.000248837
0.000246049
0.000242443
0.000238067
0.000232996
0.000227339
0.000221244
0.000214897
0.000208517
0.000202353
0.000196673
0.000191744
0.000187818
0.000185102
0.000183741
0.000183789
0.000185205
0.000187849
0.000191498
0.00019586
0.000200605
0.000205391
0.0002099
0.000213867
0.000217083
0.000219401
0.000220712
0.000220881
0.000220285
0.000219173
0.000217657
0.000215824
0.000213746
0.000211475
0.000209052
0.000206512
0.000203878
0.000201173
0.000198414
0.000195616
0.00019279
0.000189949
0.0001871
0.000184252
0.00018141
0.000178577
0.000175756
0.000172945
0.000170138
0.000167321
0.000164468
0.000161516
0.000158429
0.000155216
0.000151885
0.000148463
0.000144986
0.000141499
0.000138038
0.000134624
0.000131262
0.00012795
0.000124675
0.000121418
0.000118142
0.000114788
0.000111252
0.000107352
0.00010277
9.69837e-05
8.92984e-05
7.93203e-05
6.83925e-05
6.0663e-05
6.05499e-05
6.91932e-05
8.36167e-05
0.000100749
0.000130994
0.000187617
0.000261068
0.000328119
0.000379709
0.000415438
0.000437748
0.000449105
0.000451247
0.00044577
0.000435478
0.000421912
0.000406442
0.000390127
0.000373226
0.000356661
0.000339964
0.000322944
0.000305703
0.000288661
0.000272405
0.000257482
0.000244254
0.000232861
0.000223261
0.000215298
0.000208766
0.000203436
0.000199046
0.000195217
0.000191231
0.000185566
0.00017689
3.92859e-05
2.8401e-05
2.80461e-05
2.9909e-05
3.28451e-05
3.50997e-05
3.59248e-05
3.55534e-05
3.45538e-05
3.33918e-05
3.23272e-05
3.14621e-05
3.08073e-05
3.03306e-05
2.99898e-05
2.97519e-05
2.96004e-05
2.95336e-05
2.95557e-05
2.96657e-05
2.98514e-05
3.00969e-05
3.03924e-05
3.06787e-05
3.08702e-05
3.08431e-05
3.04402e-05
2.95038e-05
2.79674e-05
2.59795e-05
2.39231e-05
2.22553e-05
2.13409e-05
2.14401e-05
2.27841e-05
2.58341e-05
3.20724e-05
4.39604e-05
6.09661e-05
7.77104e-05
8.29818e-05
7.297e-05
6.25677e-05
5.59606e-05
5.28389e-05
5.28439e-05
5.6071e-05
6.28574e-05
7.35289e-05
8.81913e-05
0.000106614
0.000128009
0.000150998
0.000173846
0.000194923
0.000213152
0.000228165
0.00024016
0.000249622
0.000257093
0.000263033
0.000267783
0.000271566
0.000274512
0.000276685
0.000278103
0.000278749
0.000278594
0.0002776
0.000275517
0.000272288
0.000267921
0.00026243
0.000255864
0.000248314
0.000239921
0.000230876
0.000221428
0.00021188
0.000202581
0.000193909
0.000186238
0.000179908
0.000175181
0.000172212
0.000171025
0.000171532
0.000173546
0.000176808
0.000180992
0.000185729
0.000190636
0.000195371
0.000199615
0.00020314
0.000205697
0.000207271
0.000208194
0.000208587
0.000208541
0.000208127
0.000207407
0.000206424
0.000205217
0.000203817
0.000202249
0.000200538
0.000198704
0.000196767
0.000194744
0.000192652
0.000190505
0.000188315
0.000186094
0.000183849
0.000181588
0.000179315
0.000177032
0.000174737
0.00017242
0.000170064
0.000167631
0.000165126
0.00016255
0.000159911
0.00015722
0.000154495
0.000151752
0.000149001
0.000146246
0.000143481
0.000140692
0.000137851
0.000134908
0.00013177
0.000128273
0.000124122
0.000118806
0.000111533
0.000101391
8.82634e-05
7.4624e-05
6.57116e-05
6.58689e-05
7.54798e-05
9.08407e-05
0.000109999
0.00014522
0.000207742
0.000283976
0.000352206
0.0004044
0.000439618
0.00046017
0.000468914
0.000467328
0.000456983
0.000441032
0.000421311
0.000399534
0.0003778
0.000356783
0.00033691
0.000318012
0.00029986
0.000282393
0.00026581
0.000250491
0.000236823
0.000225058
0.000215267
0.000207364
0.000201162
0.00019643
0.000192934
0.000190443
0.000188697
0.000187293
0.000185497
0.000181991
4.81647e-05
2.49591e-05
2.88079e-05
3.50563e-05
3.88647e-05
3.92797e-05
3.77301e-05
3.56202e-05
3.36624e-05
3.20843e-05
3.08949e-05
3.00236e-05
2.93823e-05
2.88998e-05
2.85387e-05
2.82925e-05
2.81701e-05
2.81843e-05
2.83421e-05
2.86264e-05
2.89837e-05
2.93475e-05
2.96948e-05
3.00507e-05
3.0366e-05
3.05469e-05
3.04484e-05
2.9891e-05
2.87258e-05
2.69573e-05
2.48565e-05
2.29154e-05
2.16576e-05
2.15619e-05
2.32115e-05
2.77164e-05
3.72615e-05
5.28824e-05
7.04616e-05
8.18292e-05
7.65401e-05
6.56358e-05
5.81274e-05
5.48666e-05
5.5427e-05
5.97267e-05
6.80107e-05
8.05556e-05
9.73571e-05
0.000117912
0.000141137
0.000165444
0.000189097
0.00021066
0.000229308
0.000244869
0.000257639
0.000268119
0.000276823
0.000284168
0.000290452
0.000295865
0.00030051
0.000304425
0.000307597
0.000309978
0.000311495
0.000312062
0.000311602
0.000309663
0.000306299
0.000301482
0.0002952
0.000287475
0.000278374
0.000268011
0.000256558
0.000244259
0.00023144
0.000218511
0.000205956
0.000194289
0.000184004
0.000175508
0.000169065
0.000164755
0.000162517
0.000162207
0.000163627
0.000166508
0.000170494
0.000175169
0.000180123
0.000184905
0.000189164
0.000192547
0.000195276
0.000197428
0.00019907
0.000200264
0.000201061
0.000201504
0.000201628
0.000201462
0.000201033
0.000200367
0.00019949
0.000198425
0.000197195
0.000195825
0.000194335
0.000192744
0.000191071
0.000189332
0.000187539
0.000185703
0.000183834
0.000181938
0.000180018
0.000178076
0.000176106
0.000174093
0.000172039
0.000169945
0.000167814
0.000165653
0.000163468
0.000161266
0.000159052
0.000156824
0.000154573
0.000152281
0.000149913
0.000147403
0.000144631
0.00014138
0.000137258
0.000131591
0.000123361
0.000111501
9.61373e-05
8.05534e-05
7.06578e-05
7.07269e-05
8.06815e-05
9.65976e-05
0.000117546
0.000155547
0.000219303
0.000294792
0.000362479
0.00041427
0.000449114
0.000469039
0.000476197
0.00047187
0.000457677
0.000437135
0.000412663
0.000386537
0.000360747
0.000336471
0.000314242
0.000294026
0.000275526
0.000258469
0.000242798
0.000228667
0.000216303
0.000205871
0.000197404
0.000190807
0.000185898
0.000182452
0.00018024
0.000179051
0.000178678
0.000178861
0.00017921
0.000178966
1.21769e-05
2.04636e-05
3.40157e-05
4.23402e-05
4.28793e-05
4.00725e-05
3.68969e-05
3.43025e-05
3.23738e-05
3.09665e-05
2.99231e-05
2.91131e-05
2.84479e-05
2.78961e-05
2.74785e-05
2.72373e-05
2.72032e-05
2.7393e-05
2.78167e-05
2.84461e-05
2.91613e-05
2.97856e-05
3.02028e-05
3.04374e-05
3.05803e-05
3.06323e-05
3.04959e-05
2.99972e-05
2.89538e-05
2.7299e-05
2.52309e-05
2.32391e-05
2.19511e-05
2.20831e-05
2.47008e-05
3.16439e-05
4.46877e-05
6.1431e-05
7.57233e-05
7.72798e-05
6.82008e-05
6.01325e-05
5.65551e-05
5.73388e-05
6.22911e-05
7.15578e-05
8.53586e-05
0.000103616
0.000125677
0.000150272
0.000175724
0.000200337
0.000222804
0.00024244
0.000259155
0.000273269
0.000285267
0.00029563
0.000304747
0.000312893
0.000320243
0.000326891
0.000332861
0.000338125
0.000342609
0.000346206
0.000348783
0.000350189
0.000350223
0.000348493
0.000345074
0.000339927
0.000333029
0.000324388
0.000314052
0.000302107
0.000288681
0.000273965
0.000258242
0.000241919
0.000225547
0.00020979
0.000195333
0.00018279
0.000172597
0.000164886
0.000159578
0.000156531
0.000155619
0.000156676
0.000159384
0.000163336
0.000168062
0.000172914
0.000177435
0.00018154
0.000185179
0.000188342
0.000191047
0.000193319
0.000195183
0.000196658
0.000197766
0.000198524
0.000198953
0.000199076
0.000198918
0.000198507
0.000197871
0.000197036
0.000196031
0.000194881
0.000193609
0.000192236
0.000190781
0.000189258
0.000187681
0.00018606
0.000184403
0.000182716
0.000181001
0.000179255
0.000177484
0.000175691
0.000173879
0.000172053
0.00017022
0.000168383
0.000166545
0.000164702
0.000162845
0.000160954
0.000158988
0.000156872
0.000154466
0.000151513
0.00014755
0.000141783
0.000133034
0.000120124
0.000103318
8.63517e-05
7.55233e-05
7.51453e-05
8.49595e-05
0.000101128
0.000123195
0.000161612
0.000223139
0.000295493
0.000361382
0.000412426
0.000447055
0.000466624
0.000472805
0.00046679
0.000450275
0.000426837
0.000399289
0.000370195
0.000341737
0.000315413
0.000291964
0.000271432
0.000253407
0.000237375
0.000223007
0.000210235
0.000199152
0.000189869
0.000182415
0.000176725
0.000172648
0.00016999
0.000168544
0.000168111
0.000168509
0.000169532
0.000170935
0.000172267
1.25672e-05
2.72871e-05
4.46342e-05
4.72946e-05
4.35728e-05
3.93387e-05
3.61027e-05
3.38187e-05
3.21814e-05
3.09344e-05
2.99136e-05
2.90149e-05
2.81925e-05
2.7476e-05
2.69416e-05
2.66646e-05
2.66845e-05
2.70135e-05
2.76726e-05
2.86596e-05
2.98209e-05
3.08175e-05
3.1332e-05
3.13114e-05
3.1105e-05
3.08549e-05
3.04831e-05
2.98145e-05
2.86731e-05
2.70079e-05
2.50333e-05
2.32578e-05
2.23893e-05
2.34373e-05
2.80312e-05
3.80939e-05
5.28944e-05
6.75608e-05
7.42754e-05
6.93696e-05
6.15777e-05
5.75338e-05
5.82266e-05
6.34198e-05
7.31588e-05
8.76203e-05
0.000106714
0.000129754
0.000155405
0.000181942
0.000207683
0.000231368
0.000252349
0.000270546
0.000286258
0.000299945
0.000312067
0.000323001
0.000333025
0.000342316
0.000350971
0.000359011
0.000366398
0.000373039
0.000378802
0.000383525
0.000387035
0.000389172
0.000389359
0.000387678
0.000384092
0.000378551
0.00037103
0.000361547
0.000350156
0.000336942
0.000322014
0.000305507
0.000287606
0.000268615
0.000249045
0.00022963
0.000211209
0.000194636
0.000180642
0.00016948
0.000161019
0.000155082
0.000151591
0.000150548
0.000151659
0.000154583
0.000158585
0.000163153
0.000167876
0.000172488
0.000176834
0.000180837
0.000184461
0.000187691
0.000190518
0.000192936
0.000194946
0.000196552
0.000197765
0.000198604
0.000199093
0.000199261
0.000199139
0.000198759
0.000198157
0.000197362
0.000196406
0.000195313
0.000194109
0.000192813
0.000191443
0.000190012
0.000188533
0.000187014
0.000185462
0.000183884
0.000182287
0.000180674
0.000179053
0.00017743
0.00017581
0.000174198
0.000172598
0.000171007
0.000169417
0.000167807
0.000166138
0.000164328
0.000162228
0.000159554
0.000155798
0.000150093
0.00014116
0.000127736
0.000110105
9.2148e-05
8.03567e-05
7.9193e-05
8.84673e-05
0.000104554
0.000126894
0.000163812
0.000220799
0.000288233
0.000351183
0.000401037
0.00043541
0.000454879
0.000460697
0.000453978
0.000436458
0.000411609
0.000382463
0.000351805
0.000322045
0.000294943
0.000271418
0.00025153
0.000234707
0.000220179
0.000207361
0.000196006
0.000186121
0.000177801
0.000171113
0.000166042
0.000162494
0.000160318
0.000159331
0.000159346
0.000160176
0.000161623
0.000163482
0.000165439
1.23507e-05
3.74599e-05
5.04754e-05
4.85743e-05
4.36681e-05
3.96137e-05
3.67871e-05
3.47896e-05
3.32751e-05
3.20231e-05
3.08969e-05
2.9826e-05
2.88046e-05
2.78875e-05
2.71656e-05
2.6726e-05
2.66154e-05
2.68352e-05
2.73776e-05
2.82512e-05
2.93959e-05
3.05368e-05
3.12532e-05
3.13241e-05
3.1001e-05
3.05881e-05
2.99967e-05
2.91051e-05
2.78264e-05
2.62165e-05
2.45819e-05
2.34737e-05
2.37454e-05
2.66737e-05
3.38416e-05
4.57408e-05
5.92174e-05
6.85093e-05
6.8475e-05
6.2398e-05
5.78696e-05
5.80805e-05
6.31094e-05
7.28357e-05
8.73819e-05
0.000106702
0.000130185
0.00015654
0.000184038
0.000210972
0.000236046
0.000258565
0.000278397
0.000295792
0.000311179
0.000325006
0.000337661
0.000349437
0.00036053
0.000371046
0.00038101
0.000390377
0.000399039
0.000406842
0.000413598
0.000419098
0.000423124
0.000425472
0.000425634
0.000423748
0.000419774
0.000413663
0.000405395
0.000394995
0.00038254
0.000368144
0.000351941
0.00033407
0.000314645
0.000293827
0.000271988
0.000249866
0.000228301
0.000208259
0.000190823
0.000176488
0.000165066
0.000156358
0.000150281
0.000147102
0.000146492
0.000148049
0.000151221
0.000155431
0.000160187
0.000165131
0.000170028
0.000174735
0.000179164
0.000183255
0.000186962
0.000190251
0.0001931
0.000195497
0.000197441
0.000198945
0.000200029
0.000200723
0.000201062
0.000201083
0.000200826
0.000200328
0.000199625
0.000198751
0.000197736
0.000196604
0.000195377
0.000194074
0.000192709
0.000191296
0.000189845
0.000188368