/*--------------------------------*- C++ -*----------------------------------*\
  =========                 |
  \\      /  F ield         | OpenFOAM: The Open Source CFD Toolbox
   \\    /   O peration     | Website:  https://openfoam.org
    \\  /    A nd           | Version:  9
     \\/     M anipulation  |
\*---------------------------------------------------------------------------*/
FoamFile
{
    format      ascii;
    class       volScalarField;
    location    "0.14";
    object      p;
}
// * * * * * * * * * * * * * * * * * * * * * * * * * * * * * * * * * * * * * //

dimensions      [0 2 -2 0 0 0 0];

internalField   nonuniform List<scalar> 
12225
(
-8.65579
-9.90803
-10.5747
-10.8577
-11.156
-11.5249
-11.9315
-12.3717
-12.8617
-13.4195
-14.0619
-14.8076
-15.6844
-16.7279
-18.0109
-19.6413
-21.7949
-24.8411
-9.82014
-10.4728
-10.7976
-10.9789
-11.2259
-11.5594
-11.9436
-12.3688
-12.8473
-13.3951
-14.0278
-14.7622
-15.6271
-16.6602
-17.9231
-19.5043
-21.5327
-24.0744
-9.90009
-10.1751
-10.5456
-10.8397
-11.1342
-11.484
-11.8784
-12.31
-12.7902
-13.3357
-13.9619
-14.6833
-15.5311
-16.5373
-17.748
-19.2245
-21.0227
-23.0909
-9.97244
-10.2114
-10.6122
-10.9165
-11.1891
-11.5133
-11.8895
-12.3068
-12.7728
-13.3022
-13.9106
-14.6096
-15.4228
-16.3804
-17.5133
-18.8555
-20.4173
-22.1253
-10.0592
-10.2691
-10.6191
-10.903
-11.1652
-11.479
-11.8466
-12.2558
-12.7112
-13.2259
-13.8124
-14.4882
-15.2635
-16.1631
-17.2064
-18.4065
-19.7485
-21.1581
-10.1377
-10.3092
-10.6073
-10.8838
-11.1484
-11.4553
-11.812
-12.2092
-12.6501
-13.1458
-13.7072
-14.3476
-15.0752
-15.9051
-16.8465
-17.8974
-19.0295
-20.1735
-10.2022
-10.3408
-10.5992
-10.8673
-11.1293
-11.4242
-11.7646
-12.1453
-12.5673
-13.0391
-13.5694
-14.1674
-14.8387
-15.5897
-16.421
-17.3204
-18.2538
-19.1595
-10.2531
-10.3671
-10.5922
-10.8456
-11.0999
-11.3811
-11.7039
-12.0657
-12.4657
-12.9094
-13.4034
-13.9528
-14.5599
-15.2248
-15.9408
-16.6898
-17.4362
-18.1267
-10.2909
-10.386
-10.5818
-10.8169
-11.0602
-11.3268
-11.6305
-11.9702
-12.3441
-12.7549
-13.2067
-13.7015
-14.2379
-14.8111
-15.4096
-16.012
-16.5842
-17.0806
-10.3154
-10.3956
-10.5657
-10.7806
-11.0101
-11.2605
-11.5427
-11.8569
-12.2006
-12.5741
-12.9789
-13.414
-13.8751
-14.3537
-14.8354
-15.298
-15.7099
-16.0332
-10.3262
-10.3942
-10.5417
-10.7357
-10.9486
-11.1805
-11.439
-11.7246
-12.0344
-12.3668
-12.7204
-13.092
-13.475
-13.8585
-14.2268
-14.5582
-14.825
-14.996
-10.3227
-10.3817
-10.5108
-10.6852
-10.8806
-11.0934
-11.3282
-11.5852
-11.8611
-12.1525
-12.4564
-12.7677
-13.0783
-13.3763
-13.6458
-13.8669
-14.0154
-14.0658
-10.3079
-10.3589
-10.4713
-10.6263
-10.8028
-10.995
-11.2048
-11.4316
-11.6716
-11.9205
-12.1736
-12.4245
-12.6641
-12.8804
-13.0581
-13.1793
-13.2235
-13.1706
-10.2752
-10.3181
-10.4132
-10.5462
-10.6996
-10.8664
-11.0458
-11.2362
-11.4335
-11.6321
-11.8264
-12.0089
-12.1704
-12.2992
-12.3816
-12.4025
-12.3457
-12.1963
-10.2171
-10.2519
-10.3288
-10.4374
-10.5635
-10.6995
-10.8428
-10.9905
-11.1379
-11.2792
-11.4078
-11.5162
-11.5954
-11.635
-11.6239
-11.5502
-11.4022
-11.1704
-10.1247
-10.151
-10.2091
-10.2911
-10.3859
-10.4861
-10.5877
-10.687
-10.779
-10.8577
-10.9167
-10.9489
-10.9466
-10.9015
-10.8052
-10.6497
-10.4277
-10.134
-9.98749
-10.0052
-10.0439
-10.0979
-10.1585
-10.219
-10.275
-10.3223
-10.356
-10.3708
-10.361
-10.3208
-10.2444
-10.1261
-9.96051
-9.74326
-9.4707
-9.14142
-9.79586
-9.80499
-9.82458
-9.85051
-9.87625
-9.89614
-9.90586
-9.90154
-9.87911
-9.83431
-9.76296
-9.6611
-9.52512
-9.3519
-9.13895
-8.88471
-8.58835
-8.25089
-9.54354
-9.54446
-9.54656
-9.54693
-9.54065
-9.52313
-9.4909
-9.44108
-9.37095
-9.27781
-9.15931
-9.01351
-8.83902
-8.63499
-8.40117
-8.13804
-7.84661
-7.5291
-9.30015
-9.29734
-9.29074
-9.27744
-9.25291
-9.2133
-9.15624
-9.08019
-8.98364
-8.86513
-8.72363
-8.55861
-8.37001
-8.15825
-7.92422
-7.66928
-7.39518
-7.1044
-9.11096
-9.10785
-9.09956
-9.08195
-9.04967
-8.99931
-8.92979
-8.84064
-8.73111
-8.60056
-8.44887
-8.27649
-8.08419
-7.87305
-7.64454
-7.40046
-7.14286
-6.87428
-8.94921
-8.94827
-8.94366
-8.928
-8.89352
-8.83781
-8.76204
-8.66675
-8.55124
-8.41517
-8.25918
-8.08449
-7.89246
-7.68462
-7.46274
-7.22888
-6.98516
-6.73398
-8.80892
-8.81279
-8.81729
-8.8091
-8.77595
-8.71748
-8.63847
-8.54055
-8.42279
-8.28502
-8.12843
-7.95465
-7.76533
-7.56222
-7.34732
-7.12283
-6.89101
-6.65439
-8.68432
-8.69647
-8.71521
-8.71808
-8.68875
-8.63067
-8.55139
-8.45232
-8.33254
-8.19291
-8.0355
-7.86222
-7.67481
-7.47513
-7.26531
-7.0476
-6.82415
-6.59708
-8.5697
-8.59668
-8.63665
-8.64797
-8.61867
-8.56353
-8.49032
-8.39593
-8.27838
-8.14
-7.98402
-7.81268
-7.62778
-7.43138
-7.22578
-7.01335
-6.79641
-6.5775
-8.45884
-8.50772
-8.58901
-8.60825
-8.56544
-8.50197
-8.42846
-8.33556
-8.21912
-8.0821
-7.92811
-7.75926
-7.57729
-7.38432
-7.18274
-6.975
-6.76328
-6.54959
-8.35178
-8.40518
-8.55254
-8.61232
-8.57827
-8.51524
-8.44042
-8.34462
-8.225
-8.08557
-7.92995
-7.76006
-7.57757
-7.38465
-7.18369
-6.97713
-6.76741
-6.55745
-8.27816
-8.28988
-8.40301
-8.4594
-8.44971
-8.41512
-8.35951
-8.27551
-8.16488
-8.03328
-7.88442
-7.72031
-7.54294
-7.35472
-7.15814
-6.9557
-6.74997
-6.54429
-8.24728
-8.62378
-8.70376
-8.62897
-8.55315
-8.49472
-8.42306
-8.3248
-8.20345
-8.06429
-7.90977
-7.7412
-7.56032
-7.36934
-7.17055
-6.96607
-6.75824
-6.54982
-7.09989
-8.00745
-8.44552
-8.47548
-8.44589
-8.42279
-8.37452
-8.29107
-8.18047
-8.04989
-7.90226
-7.73924
-7.5629
-7.37565
-7.17987
-6.97753
-6.77057
-6.55914
0.811342
0.5805
0.143657
-0.514297
-1.19142
-1.25402
-0.200894
1.94368
4.38159
6.51618
7.54491
7.2331
5.61347
2.99806
-0.2162
-3.67768
-7.09457
-10.2157
-12.8245
-14.7463
-15.8029
-16.1176
-15.9013
-15.325
-14.536
-13.7398
-13.1879
-13.0954
-13.5576
-14.433
-15.3644
-16.1228
-16.7157
-17.2913
-18.0277
-18.8912
-19.5316
-19.4519
-18.6112
-17.0324
-15.2958
-14.3541
-14.5431
-15.2923
-15.9058
-16.2865
-16.5254
-16.6075
-16.6773
-16.9053
-17.2337
-17.6091
-18.0845
-18.8864
-20.2932
-22.5136
-25.5674
-29.3305
-33.5889
-38.0955
-42.6133
-46.9423
-50.93
-54.4707
-57.4983
-59.979
-61.9039
-63.2835
-64.1407
-64.4911
-64.3239
-63.6311
-62.4481
-60.8236
-58.7926
-56.3813
-53.611
-50.4999
-47.0639
-43.3186
-39.2808
-34.9718
-30.42
-25.6649
-20.7594
-15.7715
-10.7836
-5.88913
-1.18591
3.23161
7.28089
10.8978
14.0408
16.6934
18.8629
20.5771
21.8778
22.8163
23.4475
23.8122
23.955
23.9223
23.7532
23.4815
23.1354
22.7386
22.3098
21.8643
21.4141
20.9684
20.5346
20.118
19.7228
19.3525
19.01
18.7005
18.4297
18.1763
17.9327
17.6961
17.4609
17.2226
16.981
16.7448
16.5208
16.3077
16.1624
16.0979
16.0533
16.019
15.9984
15.9868
15.9822
15.9859
15.9993
16.0234
16.059
16.1062
16.1645
16.234
16.3199
16.4266
16.5807
16.7794
16.9465
16.995
16.7464
15.6662
13.0719
8.85102
3.84642
-1.22556
-5.57508
-8.80847
-10.7931
-11.5127
-11.0558
-9.42344
-6.76234
-3.24485
0.888905
5.32206
9.68851
13.6338
16.8919
19.3146
20.8912
21.6695
21.8139
21.5043
20.9041
20.1484
19.342
18.5671
17.9099
17.4759
17.1047
16.6343
15.9339
14.7715
-0.337855
-0.911169
-1.79147
-2.86766
-3.84598
-3.83215
-2.67091
-0.838549
1.11897
2.48728
2.7624
1.90447
0.0647522
-2.50466
-5.51338
-8.69164
-11.814
-14.7004
-17.2161
-19.2701
-20.8598
-21.8042
-21.9694
-21.3553
-20.12
-18.5423
-16.9892
-15.8451
-15.3978
-15.6132
-15.9687
-16.1006
-16.4232
-17.3364
-18.7182
-20.1896
-21.2028
-21.4362
-20.6281
-18.9741
-17.1134
-16.0062
-15.9982
-16.5277
-16.911
-16.9018
-16.6998
-16.5448
-16.421
-16.5044
-17.004
-17.715
-18.4709
-19.5879
-21.4711
-24.2849
-27.9567
-32.2615
-36.9135
-41.6342
-46.1941
-50.4251
-54.2157
-57.4991
-60.2393
-62.4212
-64.0436
-65.1148
-65.6497
-65.676
-65.2409
-64.3874
-63.1259
-61.4616
-59.4109
-56.9938
-54.2286
-51.1319
-47.718
-44.0003
-39.9933
-35.7148
-31.1898
-26.4538
-21.5564
-16.5632
-11.5558
-6.62822
-1.88059
2.58925
6.69494
10.3691
13.5684
16.2751
18.4962
20.2584
21.6014
22.5698
23.2264
23.6115
23.774
23.7598
23.6081
23.3523
23.0209
22.6373
22.2204
21.7855
21.3445
20.9071
20.4803
20.0698
19.6796
19.3125
18.9706
18.6521
18.3507
18.0764
17.8287
17.6008
17.3821
17.1673
16.952
16.739
16.5426
16.3852
16.2502
16.1357
16.0663
16.0279
16.0049
15.9907
15.984
15.9856
15.9972
16.0203
16.0557
16.1035
16.1633
16.2342
16.3152
16.4166
16.5675
16.7572
16.923
16.9827
16.811
15.7936
12.8649
8.2695
2.86986
-2.28018
-6.51992
-9.58904
-11.4209
-12.036
-11.4719
-9.8309
-7.18483
-3.68552
0.437331
4.87379
9.2613
13.2409
16.5401
19.003
20.6014
21.4072
21.5802
21.2988
20.7262
19.9962
19.2102
18.4492
17.7741
17.1851
16.7442
16.3007
15.7057
14.613
-0.636017
-0.952813
-1.36661
-1.78945
-2.22081
-2.66498
-2.67904
-2.38157
-2.22305
-2.58101
-3.61436
-5.29839
-7.51939
-10.1268
-12.9549
-15.842
-18.6441
-21.2383
-23.523
-25.4159
-26.8559
-27.7935
-28.2194
-28.1492
-27.6274
-26.6971
-25.4169
-23.8889
-22.2648
-20.7179
-19.3862
-18.4785
-18.279
-18.7566
-19.6437
-20.6824
-21.4683
-21.6599
-21.0405
-19.6827
-18.1581
-17.4111
-17.6156
-18.0494
-18.134
-17.6868
-17.053
-16.7322
-16.9116
-17.4387
-18.4522
-20.0796
-22.2398
-24.918
-28.0922
-31.6791
-35.5465
-39.5473
-43.5477
-47.4366
-51.1254
-54.5423
-57.6282
-60.3348
-62.6245
-64.4698
-65.8515
-66.7569
-67.18
-67.127
-66.6184
-65.6823
-64.343
-62.6194
-60.5303
-58.0941
-55.3278
-52.2463
-48.8613
-45.183
-41.221
-36.9872
-32.4995
-27.7864
-22.8912
-17.875
-12.8182
-7.81702
-2.97703
1.59641
5.80891
9.58628
12.8805
15.6718
17.9661
19.7915
21.1924
22.1911
22.8921
23.3121
23.5051
23.5181
23.3907
23.157
22.8454
22.4795
22.0786
21.6579
21.2297
20.8035
20.3866
19.9847
19.6016
19.2402
18.9019
18.5874
18.2979
18.0342
17.7881
17.5539
17.3315
17.1159
16.9065
16.7083
16.5286
16.3722
16.2359
16.1314
16.0668
16.0256
15.9967
15.9783
15.9702
15.9725
15.9858
16.0109
16.0484
16.0985
16.1613
16.237
16.3265
16.4434
16.5948
16.7983
16.9703
17.0204
16.7465
15.1841
11.485
6.25221
0.920419
-3.80325
-7.62961
-10.424
-12.1097
-12.6605
-12.0938
-10.4553
-7.82353
-4.33949
-0.222316
4.22524
8.64324
12.6689
16.0146
18.5231
20.1589
21.0026
21.2132
20.9695
20.4338
19.7379
18.9807
18.2344
17.5529
16.9621
16.4675
15.9288
15.2698
14.3355
0.328335
0.418523
0.453703
0.141387
-0.672147
-1.89066
-3.29464
-4.77437
-6.38568
-8.21318
-10.2941
-12.6185
-15.1438
-17.806
-20.5255
-23.2152
-25.7872
-28.1585
-30.2549
-32.0138
-33.3886
-34.3495
-34.8752
-34.9639
-34.6419
-33.9413
-32.8797
-31.4584
-29.6794
-27.5959
-25.3714
-23.2836
-21.6184
-20.5222
-19.9818
-19.8254
-19.7128
-19.3272
-18.6425
-17.654
-16.9299
-17.1368
-18.0114
-18.534
-18.5461
-18.2329
-18.0484
-18.3705
-19.3816
-21.0493
-23.3182
-26.0765
-29.1487
-32.3989
-35.7475
-39.1527
-42.5877
-46.0248
-49.4252
-52.7366
-55.8972
-58.8414
-61.5065
-63.8377
-65.7907
-67.3335
-68.4451
-69.1142
-69.3377
-69.123
-68.4826
-67.4353
-66.0027
-64.2065
-62.0677
-59.606
-56.8384
-53.7785
-50.4358
-46.8162
-42.9229
-38.759
-34.332
-29.6591
-24.7731
-19.7278
-14.6007
-9.4911
-4.513
0.216275
4.58947
8.5213
11.956
14.8693
17.2663
19.175
20.6411
21.7147
22.4602
22.9226
23.1539
23.2008
23.1039
22.8977
22.611
22.2677
21.8871
21.4847
21.0729
20.6614
20.2576
19.8672
19.4941
19.1413
18.8104
18.5022
18.2158
17.9491
17.7006
17.4696
17.2534
17.0468
16.8503
16.6662
16.4979
16.3504
16.2266
16.1295
16.0589
16.0087
15.9739
15.9525
15.9431
15.9451
15.9586
15.9844
16.0232
16.076
16.1438
16.2276
16.3292
16.4581
16.6314
16.8356
17.0096
17.0089
16.3182
13.748
9.14381
3.87342
-1.02885
-5.30619
-8.81556
-11.4135
-12.9858
-13.4783
-12.8922
-11.2531
-8.63207
-5.15824
-1.03951
3.42786
7.88751
11.9711
15.37
17.9258
19.6017
20.4844
20.7355
20.5348
20.0434
19.3897
18.6685
17.9476
17.273
16.6602
16.101
15.5153
14.8402
13.9959
0.864867
0.997156
0.97517
0.416712
-1.0534
-3.23818
-5.72857
-8.30325
-10.9149
-13.5688
-16.2712
-19.0196
-21.798
-24.5757
-27.3095
-29.947
-32.4303
-34.6997
-36.6976
-38.3725
-39.6828
-40.5979
-41.1009
-41.1803
-40.8472
-40.1257
-39.0386
-37.5972
-35.7912
-33.5904
-30.9765
-28.0043
-24.8658
-21.884
-19.3642
-17.4109
-15.9153
-14.7406
-13.8445
-13.1692
-13.3655
-14.5731
-15.9239
-17.1677
-18.0394
-18.8613
-20.0106
-21.6844
-23.9231
-26.6174
-29.5978
-32.7184
-35.8824
-39.0499
-42.2165
-45.3876
-48.5605
-51.7154
-54.8152
-57.8096
-60.6417
-63.2535
-65.5913
-67.6078
-69.2646
-70.5323
-71.3911
-71.8302
-71.8482
-71.4529
-70.6555
-69.4749
-67.9324
-66.051
-63.8535
-61.3617
-58.5938
-55.5639
-52.2801
-48.7441
-44.9522
-40.8968
-36.5718
-31.9782
-27.1331
-22.0778
-16.8833
-11.651
-6.50505
-1.57917
3.00121
7.13448
10.7532
13.8267
16.3582
18.3781
19.937
21.0942
21.9035
22.4217
22.7022
22.793
22.7355
22.5648
22.3103
21.9959
21.6414
21.2626
20.8719
20.4792
20.0921
19.7165
19.3564
19.0148
18.6934
18.3929
18.1129
17.8529
17.6121
17.3876
17.1765
16.9774
16.7902
16.616
16.458
16.3197
16.2024
16.1068
16.0339
15.9814
15.9451
15.9222
15.9115
15.9125
15.9254
15.9508
15.9897
16.0432
16.113
16.2012
16.3106
16.4498
16.632
16.8427
17.004
16.8488
15.5056
11.9797
6.88661
1.82295
-2.74499
-6.74998
-10.0528
-12.4955
-13.9606
-14.3908
-13.7813
-12.1425
-9.53572
-6.07615
-1.96022
2.52169
7.03395
11.159
14.6116
17.2112
18.9256
19.8485
20.1451
19.9953
19.5576
18.9561
18.2801
17.5912
16.9274
16.3026
15.7086
15.0909
14.3964
13.5688
0.830778
0.856779
0.495121
-0.904625
-3.24993
-6.0548
-9.04527
-12.1181
-15.2199
-18.3212
-21.405
-24.4547
-27.4506
-30.37
-33.1852
-35.8599
-38.3488
-40.6004
-42.5626
-44.1887
-45.4418
-46.2969
-46.7396
-46.7575
-46.3518
-45.5358
-44.3252
-42.7348
-40.7651
-38.3807
-35.4989
-32.0249
-27.9572
-23.5109
-19.1165
-15.2342
-12.1631
-9.99935
-8.6652
-8.43928
-9.38706
-11.1786
-13.2928
-15.4618
-17.7411
-20.2168
-22.9415
-25.9081
-29.0469
-32.2643
-35.4852
-38.6709
-41.8124
-44.9204
-48.0067
-51.0736
-54.1085
-57.0855
-59.9681
-62.713
-65.274
-67.6047
-69.6611
-71.4034
-72.798
-73.8178
-74.4438
-74.6657
-74.4833
-73.9051
-72.9453
-71.6223
-69.9588
-67.9804
-65.7134
-63.1825
-60.4096
-57.4106
-54.1946
-50.7611
-47.1006
-43.195
-39.022
-34.5627
-29.8122
-24.7921
-19.5608
-14.2175
-8.89679
-3.75165
1.06875
5.44034
9.2792
12.5452
15.2395
17.3981
19.0748
20.3275
21.2169
21.8044
22.1458
22.2908
22.2819
22.155
21.94
21.6612
21.3388
20.9888
20.6239
20.2544
19.888
19.5306
19.1868
18.8594
18.5504
18.2608
17.9905
17.7391
17.5053
17.287
17.0832
16.893
16.7158
16.5523
16.4044
16.2743
16.163
16.0715
16.0003
15.9474
15.9097
15.8852
15.873
15.8728
15.8845
15.9086
15.9461
15.9982
16.0669
16.1546
16.2648
16.4057
16.5862
16.787
16.9016
16.508
14.5222
10.3235
5.03801
0.117604
-4.26526
-8.10324
-11.2527
-13.5656
-14.936
-15.3103
-14.6797
-13.045
-10.4583
-7.02093
-2.91787
1.57736
6.10609
10.2738
13.7665
16.4
18.1478
19.1108
19.4572
19.3658
18.9908
18.4503
17.8275
17.1776
16.5335
15.9069
15.2896
14.6431
13.9267
13.1033
0.838497
0.647452
-0.704197
-3.14939
-6.00417
-9.05389
-12.2743
-15.604
-18.9743
-22.3341
-25.6457
-28.8844
-32.0354
-35.0852
-38.0115
-40.7767
-43.3293
-45.6116
-47.5698
-49.1621
-50.3603
-51.1469
-51.5112
-51.4441
-50.9421
-50.0104
-48.6565
-46.8939
-44.7364
-42.1741
-39.1353
-35.4718
-31.0311
-25.8424
-20.2948
-15.0588
-10.7899
-7.84024
-6.26118
-6.13061
-7.35402
-9.47569
-12.3314
-15.6769
-19.2931
-23.0217
-26.7558
-30.4219
-33.9763
-37.407
-40.725
-43.9521
-47.1093
-50.2116
-53.2644
-56.2622
-59.1895
-62.0224
-64.7305
-67.2786
-69.6284
-71.7402
-73.5752
-75.0976
-76.2757
-77.0839
-77.5037
-77.5261
-77.154
-76.3969
-75.2691
-73.7918
-71.9911
-69.8962
-67.5379
-64.9458
-62.1465
-59.1608
-56.001
-52.6683
-49.1502
-45.4206
-41.4422
-37.1739
-32.5836
-27.6651
-22.455
-17.043
-11.5698
-6.20938
-1.13857
3.48992
7.57047
11.0509
13.9316
16.2501
18.0596
19.4219
20.405
21.0738
21.4869
21.6959
21.7444
21.6693
21.5009
21.2642
20.9797
20.6637
20.3294
19.9872
19.6453
19.3098
18.9854
18.6753
18.3816
18.1054
17.8471
17.6063
17.3822
17.1736
16.9796
16.7992
16.6321
16.4787
16.3402
16.218
16.1132
16.0262
15.9569
15.904
15.8656
15.8402
15.8269
15.8253
15.8353
15.8574
15.8923
15.9413
16.0062
16.0888
16.1927
16.3248
16.4897
16.6599
16.6908
16.0291
13.5417
8.9135
3.53686
-1.3084
-5.58056
-9.2991
-12.3288
-14.5361
-15.8282
-16.1568
-15.5113
-13.8858
-11.3263
-7.92195
-3.84566
0.6398
5.17498
9.36183
12.8734
15.5254
17.2982
18.2991
18.6984
18.6713
18.3661
17.8935
17.3302
16.7253
16.1072
15.4858
14.8542
14.1863
13.4483
12.631
-0.0949438
-0.753522
-2.97989
-5.75819
-8.66626
-11.7763
-15.0926
-18.5352
-22.0197
-25.4841
-28.8934
-32.233
-35.496
-38.6666
-41.709
-44.5663
-47.1688
-49.4497
-51.36
-52.8748
-53.9885
-54.7018
-55.0063
-54.8849
-54.3158
-53.302
-51.8497
-49.9724
-47.6946
-45.033
-41.9492
-38.2995
-33.8688
-28.57
-22.7086
-16.9998
-12.2656
-9.0071
-7.39607
-7.3804
-8.67122
-11.1906
-14.6642
-18.6729
-22.8792
-27.0595
-31.0908
-34.9264
-38.5698
-42.0496
-45.4009
-48.6532
-51.8262
-54.9287
-57.96
-60.9121
-63.7699
-66.5122
-69.1122
-71.5378
-73.7534
-75.721
-77.4031
-78.7645
-79.7744
-80.4081
-80.6484
-80.4882
-79.9333
-78.9932
-77.6852
-76.0346
-74.072
-71.8316
-69.349
-66.6594
-63.7953
-60.7837
-57.643
-54.3792
-50.982
-47.422
-43.6512
-39.6084
-35.2322
-30.4822
-25.3635
-19.9456
-14.3677
-8.82305
-3.51792
1.36265
5.68733
9.39185
12.472
14.9598
16.9099
18.3921
19.4789
20.2386
20.7324
21.0137
21.1274
21.1111
20.9958
20.8071
20.5658
20.2887
19.9894
19.6786
19.3648
19.0546
18.7527
18.4628
18.187
17.927
17.6831
17.4553
17.2433
17.0461
16.863
16.6932
16.5366
16.3935
16.2645
16.1506
16.0523
15.97
15.9034
15.8516
15.8134
15.7876
15.7732
15.7699
15.7777
15.7968
15.8278
15.8718
15.93
16.0034
16.0947
16.2086
16.3448
16.4648
16.3858
15.4718
12.6368
7.76414
2.36165
-2.43802
-6.64723
-10.2828
-13.2198
-15.3434
-16.5737
-16.868
-16.2158
-14.6064
-12.0806
-8.72023
-4.6818
-0.223466
4.29465
8.47162
11.9759
14.6268
16.413
17.4477
17.9006
17.9414
17.71
17.3094
16.809
16.2526
15.6648
15.0542
14.4158
13.7321
12.9775
12.1554
-2.30148
-3.529
-5.64615
-8.09435
-10.8323
-13.8778
-17.1624
-20.5852
-24.0597
-27.5299
-30.9691
-34.3664
-37.7087
-40.965
-44.078
-46.9688
-49.5534
-51.7636
-53.5642
-54.9547
-55.9552
-56.5817
-56.8264
-56.7036
-56.1322
-55.1137
-53.6553
-51.7714
-49.4926
-46.8533
-43.8445
-40.3497
-36.1592
-31.1584
-25.6044
-20.2065
-15.8029
-12.8798
-11.5748
-11.6915
-13.1235
-15.818
-19.3674
-23.3614
-27.4872
-31.5505
-35.4606
-39.1976
-42.7776
-46.2286
-49.5761
-52.8384
-56.0253
-59.139
-62.1755
-65.125
-67.9717
-70.6934
-73.2618
-75.6429
-77.7988
-79.6899
-81.2775
-82.5259
-83.4047
-83.89
-83.967
-83.6332
-82.8951
-81.764
-80.2626
-78.4206
-76.2734
-73.8598
-71.2204
-68.3959
-65.4244
-62.3395
-59.1671
-55.9208
-52.5962
-49.1666
-45.5795
-41.7592
-37.6179
-33.0794
-28.1103
-22.7509
-17.1289
-11.4508
-5.95136
-0.846816
3.70682
7.63008
10.9038
13.5576
15.6509
17.2576
18.4536
19.3105
19.8917
20.2518
20.4369
20.4854
20.4288
20.2931
20.0998
19.8659
19.6056
19.3299
19.0477
18.7659
18.4896
18.2226
17.9675
17.726
17.4989
17.2864
17.0884
16.9042
16.7334
16.5755
16.4302
16.2977
16.1785
16.0729
15.9815
15.9042
15.8409
15.791
15.7535
15.7273
15.7118
15.7065
15.7114
15.7266
15.7524
15.7894
15.8381
15.8987
15.972
16.0599
16.1562
16.2113
16.0118
14.8934
11.8593
6.91019
1.53538
-3.24465
-7.42243
-11.0027
-13.8733
-15.9362
-17.123
-17.395
-16.7433
-15.155
-12.6678
-9.35682
-5.36922
-0.958527
3.51483
7.64968
11.1168
13.744
15.5297
16.5914
17.0959
17.2047
17.0479
16.7197
16.2827
15.7756
15.2199
14.6234
13.9826
13.2864
12.5157
11.6811
-4.44551
-5.74107
-7.35283
-9.4282
-11.9607
-14.8759
-18.0651
-21.4203
-24.855
-28.3122
-31.7608
-35.1816
-38.5501
-41.8213
-44.9246
-47.7721
-50.2776
-52.3803
-54.0597
-55.3341
-56.2406
-56.8062
-57.0292
-56.8611
-56.2927
-55.3084
-53.9072
-52.1068
-49.9442
-47.4612
-44.6568
-41.4287
-37.5962
-33.0843
-28.1962
-23.6573
-20.156
-17.9858
-17.1035
-17.3613
-18.863
-21.4306
-24.6997
-28.3371
-32.0983
-35.841
-39.5032
-43.0705
-46.5493
-49.9519
-53.2881
-56.5637
-59.7804
-62.9351
-66.0205
-69.0227
-71.9216
-74.6894
-77.292
-79.6901
-81.8414
-83.7033
-85.2354
-86.4017
-87.1722
-87.5248
-87.4473
-86.9432
-86.0203
-84.6944
-82.9926
-80.9496
-78.6053
-76.003
-73.1874
-70.2034
-67.0936
-63.8973
-60.6476
-57.3666
-54.059
-50.7043
-47.2509
-43.6156
-39.6909
-35.3687
-30.5776
-25.3245
-19.7151
-13.9645
-8.32585
-3.04064
1.71023
5.82407
9.27177
12.0803
14.3108
16.04
17.3462
18.303
18.9754
19.4187
19.6799
19.7977
19.8042
19.7259
19.5846
19.3978
19.18
18.9428
18.6954
18.445
18.197
17.9557
17.7237
17.5032
17.2951
17.0999
16.9178
16.7483
16.5913
16.4462
16.313
16.1917
16.0824
15.9855
15.9012
15.8295
15.7701
15.7225
15.6859
15.6596
15.643
15.6355
15.637
15.6474
15.6666
15.6948
15.7316
15.776
15.8269
15.8825
15.9308
15.9126
15.5994
14.3456
11.2558
6.37153
1.06109
-3.71702
-7.88302
-11.4264
-14.2503
-16.2712
-17.43
-17.6918
-17.0482
-15.4861
-13.042
-9.78671
-5.86245
-1.521
2.87749
6.93556
10.3334
12.9125
14.6818
15.7616
16.3126
16.4857
16.4005
16.1417
15.7655
15.306
14.7818
14.2002
13.559
12.8515
12.0642
11.2112
-5.15182
-6.1121
-7.43203
-9.31884
-11.7343
-14.5811
-17.738
-21.0871
-24.5309
-28.0016
-31.4572
-34.8686
-38.2024
-41.4085
-44.416
-47.1416
-49.5074
-51.4621
-52.9938
-54.1267
-54.9011
-55.3475
-55.4724
-55.2682
-54.7031
-53.7746
-52.4799
-50.8447
-48.9056
-46.6895
-44.1715
-41.2497
-37.8111
-33.9162
-29.9682
-26.5661
-24.1183
-22.7336
-22.1935
-22.6458
-24.1682
-26.5411
-29.4792
-32.7335
-36.1313
-39.5741
-43.0156
-46.4376
-49.8346
-53.205
-56.5477
-59.8608
-63.1401
-66.3778
-69.5605
-72.6676
-75.6707
-78.5341
-81.2159
-83.6706
-85.8513
-87.7124
-89.2126
-90.3157
-90.9929
-91.2238
-90.9993
-90.3311
-89.2254
-87.7048
-85.8016
-83.5554
-81.0111
-78.2163
-75.2194
-72.068
-68.8073
-65.4803
-62.1253
-58.7724
-55.4357
-52.103
-48.7266
-45.2207
-41.4666
-37.3327
-32.717
-27.5966
-22.0328
-16.2711
-10.5489
-5.13459
-0.234179
4.03065
7.62186
10.5638
12.9178
14.7613
16.174
17.23
17.9945
18.5234
18.8635
19.0539
19.1269
19.1094
19.0234
18.8869
18.7149
18.5192
18.3095
18.0932
17.8763
17.6631
17.4567
17.2594
17.0724
16.8966
16.7321
16.5789
16.4369
16.3058
16.1854
16.0758
15.977
15.8892
15.8124
15.7465
15.6914
15.6466
15.6114
15.5851
15.5673
15.5574
15.555
15.5598
15.5714
15.5892
15.6121
15.6377
15.6627
15.6818
15.6775
15.585
15.1771
13.8608
10.8386
6.12784
0.922583
-3.84929
-8.0128
-11.5324
-14.3251
-16.319
-17.4625
-17.7242
-17.0955
-15.5644
-13.1675
-9.97419
-6.12644
-1.87741
2.4139
6.3589
9.6544
12.16
13.8959
14.9826
15.572
15.8027
15.7826
15.5874
15.2667
14.8506
14.3551
13.7868
13.1448
12.4254
11.6202
10.7437
-3.95864
-4.63685
-5.91118
-7.78354
-10.2174
-13.1139
-16.3423
-19.7703
-23.2847
-26.8009
-30.2613
-33.6249
-36.8537
-39.9022
-42.7139
-45.2264
-47.3829
-49.1462
-50.5069
-51.4827
-52.1064
-52.4093
-52.41
-52.1195
-51.5363
-50.6533
-49.4831
-48.0449
-46.3524
-44.3978
-42.1385
-39.5125
-36.5357
-33.4266
-30.5719
-28.3155
-26.8317
-26.0019
-25.8561
-26.606
-28.2077
-30.4717
-33.1877
-36.1814
-39.3361
-42.5834
-45.8862
-49.2243
-52.5854
-55.9617
-59.3469
-62.7348
-66.1165
-69.4781
-72.7984
-76.048
-79.1895
-82.1783
-84.9653
-87.499
-89.7284
-91.6059
-93.0894
-94.1436
-94.7403
-94.8609
-94.5041
-93.6778
-92.3966
-90.6877
-88.5885
-86.1439
-83.4039
-80.421
-77.2472
-73.932
-70.522
-67.0616
-63.5923
-60.1497
-56.7558
-53.4059
-50.0582
-46.6284
-42.9928
-39.0057
-34.5397
-29.5388
-24.0627
-18.3105
-12.5498
-7.06158
-2.06822
2.29819
5.99375
9.04009
11.4974
13.4424
14.9538
16.1049
16.9601
17.5746
17.9948
18.2597
18.4016
18.4474
18.4194
18.336
18.2125
18.061
17.8916
17.7121
17.5288
17.3461
17.1676
16.9956
16.8318
16.6771
16.532
16.3966
16.2709
16.1547
16.048
15.9507
15.8629
15.7845
15.7156
15.6561
15.6056
15.5639
15.5303
15.5043
15.4854
15.4728
15.4662
15.4648
15.4679
15.4742
15.4817
15.4868
15.4839
15.4643
15.4066
15.2442
14.7656
13.4489
10.5882
6.14021
1.09916
-3.63886
-7.79874
-11.3046
-14.0786
-16.0576
-17.1958
-17.4653
-16.8574
-15.3616
-13.0163
-9.89272
-6.13697
-2.00637
2.143
5.93755
9.09764
11.5047
13.1898
14.2707
14.8882
15.1672
15.2034
15.0636
14.7913
14.4125
13.941
13.3825
12.7371
12.0033
11.1772
10.2726
-1.4777
-2.20176
-3.53106
-5.49839
-8.06065
-11.1081
-14.495
-18.07
-21.6973
-25.2689
-28.7065
-31.9551
-34.9728
-37.7236
-40.174
-42.2949
-44.0663
-45.4814
-46.5473
-47.2817
-47.7053
-47.8366
-47.6933
-47.2946
-46.6712
-45.8262
-44.7602
-43.4696
-41.9449
-40.1724
-38.1486
-35.9216
-33.6409
-31.5337
-29.7978
-28.5517
-27.7951
-27.5102
-27.878
-28.9883
-30.7605
-33.0455
-35.6912
-38.5791
-41.6311
-44.7996
-48.0556
-51.3808
-54.7627
-58.1925
-61.6624
-65.1635
-68.6821
-72.1976
-75.6808
-79.0936
-82.3899
-85.5173
-88.4203
-91.0424
-93.3294
-95.2321
-96.7088
-97.7251
-98.2535
-98.2773
-97.8023
-96.8369
-95.3973
-93.5159
-91.2353
-88.6054
-85.6819
-82.5226
-79.1836
-75.7168
-72.169
-68.5848
-65.0067
-61.4731
-58.0122
-54.6232
-51.2739
-47.8818
-44.3186
-40.429
-36.0684
-31.162
-25.7574
-20.0411
-14.2873
-8.78257
-3.75501
0.659877
4.41613
7.53359
10.0703
12.1003
13.6998
14.9395
15.8818
16.5804
17.0806
17.4207
17.6328
17.7437
17.7758
17.7477
17.675
17.5702
17.4436
17.3033
17.1558
17.0059
16.8574
16.7129
16.5742
16.4425
16.3184
16.2021
16.0939
15.9937
15.9015
15.8172
15.7408
15.6724
15.6117
15.5588
15.5134
15.4751
15.4435
15.4179
15.3978
15.3826
15.3714
15.3635
15.3576
15.3518
15.3431
15.3267
15.2952
15.237
15.1281
14.9037
14.3771
13.1059
10.4732
6.36472
1.56154
-3.09414
-7.23549
-10.731
-13.4953
-15.4688
-16.6099
-16.894
-16.3121
-14.8565
-12.5687
-9.52575
-5.88183
-1.89989
2.07024
5.67684
8.67001
10.9553
12.5726
13.6347
14.2688
14.5851
14.6672
14.5733
14.3408
13.992
13.5384
12.9847
12.3316
11.5792
10.7275
9.78997
0.499545
-0.302339
-1.75164
-3.86695
-6.60459
-9.83921
-13.4038
-17.1206
-20.825
-24.381
-27.6869
-30.6734
-33.2959
-35.529
-37.3638
-38.8087
-39.8888
-40.6431
-41.1179
-41.3583
-41.3979
-41.2543
-40.931
-40.4261
-39.7523
-38.9002
-37.8755
-36.6768
-35.3109
-33.8088
-32.2427
-30.7304
-29.4015
-28.3425
-27.5872
-27.1486
-27.0409
-27.3867
-28.3191
-29.8476
-31.8874
-34.3189
-37.0333
-39.9514
-43.022
-46.2131
-49.5047
-52.8833
-56.3399
-59.8674
-63.4581
-67.101
-70.7778
-74.462
-78.117
-81.6972
-85.149
-88.4139
-91.431
-94.1402
-96.4852
-98.4163
-99.8923
-100.88
-101.353
-101.297
-100.728
-99.6445
-98.0694
-96.0398
-93.6025
-90.8118
-87.7282
-84.4153
-80.9336
-77.3375
-73.6747
-69.9879
-66.3181
-62.7046
-59.1778
-55.7453
-52.3775
-48.9938
-45.4627
-41.6216
-37.3181
-32.4706
-27.1234
-21.4595
-15.7522
-10.2846
-5.27982
-0.868934
2.90426
6.05883
8.64982
10.7471
12.4225
13.7428
14.7673
15.5471
16.126
16.5412
16.8241
17.0013
17.0951
17.1243
17.1045
17.0486
16.967
16.8682
16.7588
16.644
16.5276
16.4126
16.3009
16.1938
16.0921
15.9964
15.9069
15.8237
15.7467
15.676
15.6116
15.5535
15.5016
15.4557
15.4156
15.381
15.3515
15.3265
15.3054
15.2875
15.2718
15.2572
15.242
15.2238
15.1988
15.1611
15.1016
15.0067
14.851
14.5743
14.0188
12.823
10.4593
6.75
2.2638
-2.24181
-6.33104
-9.80815
-12.5658
-14.5399
-15.6904
-15.9949
-15.4447
-14.0353
-11.8145
-8.8686
-5.36269
-1.56471
2.18704
5.56982
8.36805
10.5114
12.0464
13.0772
13.716
14.0581
14.1751
14.1169
13.9152
13.5883
13.1455
12.5904
11.9239
11.1474
10.2641
9.28775
-0.281895
-1.11013
-2.65532
-4.90708
-7.8092
-11.2064
-14.8967
-18.6636
-22.3028
-25.6451
-28.5684
-30.9967
-32.8921
-34.248
-35.0866
-35.4601
-35.446
-35.135
-34.6178
-33.9755
-33.2729
-32.5518
-31.8251
-31.0884
-30.3334
-29.5086
-28.6219
-27.687
-26.7417
-25.8475
-25.0788
-24.4973
-24.1264
-23.9574
-23.9844
-24.238
-24.8163
-25.8462
-27.3813
-29.3866
-31.7748
-34.4506
-37.3387
-40.3881
-43.5674
-46.8578
-50.2482
-53.7316
-57.3037
-60.9602
-64.694
-68.4921
-72.3328
-76.1843
-80.0045
-83.7415
-87.3364
-90.7256
-93.8446
-96.6309
-99.0272
-100.984
-102.461
-103.427
-103.858
-103.747
-103.099
-101.922
-100.242
-98.0979
-95.5409
-92.6298
-89.4292
-86.0035
-82.4159
-78.7234
-74.9741
-71.2094
-67.4696
-63.7947
-60.2174
-56.7482
-53.3575
-49.9625
-46.4284
-42.5902
-38.2969
-33.4731
-28.1702
-22.5733
-16.9497
-11.5695
-6.64094
-2.28315
1.46575
4.62491
7.24559
9.39215
11.1305
12.5224
13.6229
14.4801
15.1355
15.6248
15.9785
16.2227
16.3795
16.4676
16.5027
16.4977
16.4634
16.4083
16.3392
16.2616
16.1795
16.0958
16.0128
15.9321
15.8544
15.7806
15.7108
15.6455
15.5846
15.5281
15.4762
15.4288
15.3859
15.3473
15.3129
15.2823
15.2552
15.231
15.2091
15.1885
15.1684
15.1471
15.1227
15.0923
15.0514
14.9932
14.9076
14.7792
14.5827
14.2641
13.6945
12.589
10.5102
7.23766
3.14358
-1.12932
-5.11169
-8.5459
-11.2901
-13.2662
-14.43
-14.76
-14.2478
-12.8942
-10.7555
-7.9304
-4.5961
-1.02192
2.47237
5.5994
8.18017
10.1665
11.6074
12.5961
13.2287
13.5853
13.7263
13.6936
13.5134
13.2002
12.7606
12.1972
11.5108
10.7037
9.78153
8.75931
-5.55114
-6.46171
-8.18512
-10.671
-13.8201
-17.429
-21.243
-24.9736
-28.3563
-31.181
-33.3134
-34.6911
-35.3071
-35.1936
-34.4231
-33.1186
-31.4457
-29.58
-27.6709
-25.8278
-24.1239
-22.6036
-21.288
-20.1777
-19.2534
-18.5227
-17.9331
-17.4827
-17.1898
-17.0752
-17.1486
-17.4003
-17.8078
-18.3604
-19.0855
-20.0631
-21.3993
-23.1583
-25.3311
-27.8539
-30.644
-33.63
-36.7623
-40.0111
-43.3603
-46.8026
-50.3355
-53.9588
-57.6726
-61.4754
-65.3606
-69.3139
-73.3109
-77.3159
-81.2827
-85.1551
-88.8705
-92.362
-95.5624
-98.4091
-100.846
-102.824
-104.305
-105.259
-105.666
-105.521
-104.827
-103.592
-101.846
-99.6297
-96.9963
-94.0064
-90.7269
-87.2258
-83.5692
-79.815
-76.0115
-72.1997
-68.4191
-64.7101
-61.1059
-57.6161
-54.2067
-50.789
-47.2237
-43.3478
-39.0218
-34.1896
-28.921
-23.4073
-17.9051
-12.6621
-7.86141
-3.60399
0.0810128
3.21346
5.84006
8.01836
9.80722
11.2621
12.4329
13.3641
14.0944
14.6575
15.0829
15.3957
15.6176
15.7671
15.8599
15.9089
15.9248
15.9164
15.8907
15.8531
15.8079
15.7582
15.7063
15.6539
15.6022
15.5518
15.5033
15.4571
15.4133
15.372
15.3333
15.2972
15.2638
15.233
15.2047
15.1784
15.154
15.1308
15.1082
15.0852
15.0607
15.033
14.9997
14.9575
14.9014
14.8241
14.7145
14.5567
14.3259
13.9752
13.4027
12.3917
10.5935
7.77204
4.13302
0.183133
-3.61656
-6.96196
-9.67095
-11.6418
-12.8195
-13.1795
-12.7144
-11.4317
-9.39868
-6.72782
-3.60674
-0.300063
2.89883
5.74286
8.08928
9.908
11.2467
12.1846
12.8013
13.1624
13.3175
13.301
13.1337
12.826
12.3822
11.8033
11.09
10.2453
9.27619
8.20004
-15.2968
-16.4207
-18.4851
-21.4061
-25.0314
-29.0959
-33.2588
-37.0422
-40.098
-42.1802
-43.1613
-43.0271
-41.8316
-39.6507
-36.5943
-32.8686