/*--------------------------------*- C++ -*----------------------------------*\
  =========                 |
  \\      /  F ield         | OpenFOAM: The Open Source CFD Toolbox
   \\    /   O peration     | Website:  https://openfoam.org
    \\  /    A nd           | Version:  9
     \\/     M anipulation  |
\*---------------------------------------------------------------------------*/
FoamFile
{
    format      ascii;
    class       volScalarField;
    location    "0.22";
    object      kU;
}
// * * * * * * * * * * * * * * * * * * * * * * * * * * * * * * * * * * * * * //

dimensions      [0 2 -2 0 0 0 0];

internalField   nonuniform List<scalar> 
12225
(
0.157225
0.132057
0.113089
0.0993085
0.0899286
0.084266
0.0816753
0.0815113
0.0831344
0.08594
0.089378
0.0933686
0.0977694
0.102309
0.106895
0.111597
0.11695
0.124806
0.18091
0.174749
0.172887
0.176777
0.186198
0.200234
0.217579
0.236731
0.256185
0.274644
0.291024
0.304252
0.313902
0.319995
0.322411
0.32078
0.313759
0.298919
0.18427
0.181282
0.178362
0.17612
0.175053
0.175273
0.176655
0.178946
0.181819
0.184915
0.187887
0.190624
0.192963
0.194702
0.195697
0.195828
0.194961
0.193011
0.18488
0.18208
0.179344
0.176805
0.174626
0.17288
0.171552
0.170577
0.169866
0.169328
0.168916
0.168598
0.168348
0.16816
0.168061
0.168131
0.168515
0.169393
0.185146
0.182644
0.180183
0.177814
0.175595
0.173568
0.171751
0.17014
0.16872
0.167472
0.166387
0.165465
0.16472
0.164189
0.163939
0.16408
0.164758
0.166071
0.185257
0.18295
0.180702
0.178522
0.176436
0.174472
0.172647
0.170973
0.169449
0.168083
0.166881
0.165861
0.165049
0.164495
0.164266
0.164459
0.165179
0.166441
0.185299
0.183087
0.180968
0.178933
0.176989
0.175149
0.173424
0.171823
0.170352
0.169023
0.167852
0.16686
0.16608
0.165558
0.165355
0.165542
0.166184
0.167249
0.185312
0.18314
0.181087
0.179139
0.177293
0.175553
0.173921
0.172404
0.171008
0.169745
0.168632
0.16769
0.166951
0.166454
0.166249
0.166385
0.166895
0.167734
0.185315
0.183156
0.18113
0.179224
0.177431
0.17575
0.174181
0.172726
0.171389
0.170182
0.169117
0.168215
0.167501
0.167007
0.166769
0.166819
0.167173
0.167785
0.185315
0.183159
0.18114
0.179249
0.177479
0.175825
0.174287
0.172865
0.171563
0.170386
0.169346
0.168459
0.167745
0.167227
0.16693
0.166875
0.167066
0.167467
0.185315
0.183158
0.181139
0.17925
0.177485
0.17584
0.174312
0.1729
0.171608
0.170439
0.169401
0.168506
0.16777
0.167208
0.166836
0.166667
0.166702
0.166913
0.185315
0.183156
0.181135
0.179244
0.177478
0.175831
0.1743
0.172887
0.17159
0.170413
0.169362
0.168446
0.167674
0.167059
0.16661
0.166335
0.166233
0.166284
0.185315
0.183155
0.181131
0.179237
0.177467
0.175814
0.174278
0.172856
0.171549
0.170357
0.169287
0.168342
0.16753
0.166859
0.166335
0.165962
0.165739
0.165653
0.185315
0.183155
0.181128
0.17923
0.177454
0.175795
0.174249
0.172815
0.171492
0.170281
0.169183
0.168202
0.167343
0.166609
0.166005
0.165532
0.165189
0.164968
0.185316
0.183155
0.181126
0.179224
0.177442
0.175775
0.174218
0.17277
0.171428
0.170193
0.169064
0.168043
0.167132
0.166334
0.165649
0.165078
0.16462
0.16427
0.185316
0.183156
0.181125
0.17922
0.177431
0.175755
0.174187
0.172724
0.171362
0.170101
0.16894
0.167878
0.166916
0.166055
0.165293
0.164631
0.164067
0.1636
0.185317
0.183157
0.181125
0.179216
0.177422
0.175738
0.174158
0.17268
0.171299
0.170012
0.16882
0.167719
0.166709
0.165789
0.164958
0.164215
0.163558
0.162988
0.185318
0.183158
0.181125
0.179213
0.177414
0.175722
0.174132
0.172639
0.17124
0.169931
0.16871
0.167575
0.166523
0.165553
0.164662
0.16385
0.163114
0.162458
0.185319
0.183158
0.181124
0.179209
0.177406
0.175707
0.174108
0.172603
0.171188
0.16986
0.168615
0.167451
0.166365
0.165355
0.164418
0.163552
0.162755
0.162031
0.185319
0.183158
0.181122
0.179205
0.177398
0.175694
0.174088
0.172575
0.17115
0.169809
0.168549
0.167367
0.16626
0.165224
0.164258
0.163358
0.162523
0.161758
0.185318
0.183157
0.18112
0.179201
0.177391
0.175684
0.174074
0.172555
0.171124
0.169776
0.168507
0.167315
0.166194
0.165144
0.16416
0.16324
0.162382
0.161591
0.185318
0.183156
0.181118
0.179197
0.177384
0.175674
0.174059
0.172536
0.171098
0.169742
0.168463
0.167259
0.166125
0.165058
0.164055
0.163114
0.162231
0.161414
0.185318
0.183155
0.181115
0.17919
0.177372
0.175654
0.174029
0.172493
0.17104
0.169665
0.168366
0.167137
0.165976
0.164879
0.163844
0.162868
0.161948
0.161092
0.185318
0.183151
0.181103
0.179165
0.177328
0.175585
0.173928
0.172352
0.170855
0.169431
0.168079
0.166796
0.165579
0.164426
0.163334
0.162301
0.161326
0.160415
0.185313
0.18313
0.181051
0.179065
0.177165
0.175346
0.173606
0.171943
0.170357
0.168848
0.167415
0.166058
0.164775
0.163564
0.162424
0.16135
0.160342
0.159404
0.185289
0.183042
0.180861
0.178742
0.176686
0.174705
0.172811
0.171016
0.169327
0.167749
0.166283
0.164929
0.163683
0.162541
0.161498
0.160546
0.159678
0.158895
0.185186
0.182753
0.18033
0.177935
0.175625
0.173465
0.171495
0.169738
0.168206
0.166903
0.165823
0.164959
0.164296
0.163819
0.163508
0.163346
0.163313
0.163391
0.184841
0.182033
0.179055
0.176183
0.173717
0.171803
0.170492
0.169804
0.169743
0.170297
0.171447
0.173157
0.175385
0.178079
0.181183
0.184635
0.188374
0.192322
0.182866
0.177259
0.172703
0.170298
0.170349
0.17287
0.177784
0.184953
0.194191
0.205278
0.21797
0.232007
0.247118
0.263028
0.279469
0.296186
0.31296
0.329487
0.168311
0.151146
0.136924
0.12517
0.115568
0.107873
0.1019
0.0974936
0.0945205
0.0928583
0.092392
0.0930105
0.0946043
0.0970647
0.100283
0.104152
0.108565
0.113404
0.0481053
0.0738084
0.0903032
0.103686
0.11486
0.124798
0.134083
0.140682
0.144199
0.146257
0.149299
0.154983
0.162546
0.172
0.183081
0.195554
0.209204
0.223756
0.238904
0.254298
0.26957
0.284357
0.298337
0.311253
0.322942
0.33336
0.342593
0.35088
0.358647
0.366501
0.374969
0.383493
0.390366
0.393701
0.390934
0.378528
0.351813
0.306258
0.242416
0.172465
0.11655
0.0870873
0.0743691
0.0755681
0.0857917
0.0999573
0.112642
0.124269
0.136309
0.149914
0.165641
0.182417
0.191256
0.189757
0.179661
0.165464
0.152016
0.140977
0.134571
0.134547
0.139391
0.145883
0.154794
0.170316
0.204606
0.275862
0.372352
0.452805
0.521176
0.576961
0.620939
0.654355
0.678575
0.694927
0.704635
0.708792
0.708356
0.70416
0.696927
0.687275
0.67575
0.662829
0.649237
0.63509
0.620465
0.605424
0.590012
0.574255
0.558158
0.541707
0.524866
0.507575
0.489755
0.47131
0.452133
0.432119
0.411183
0.389276
0.366408
0.342668
0.318246
0.293446
0.268719
0.244962
0.225195
0.214915
0.209325
0.204389
0.199868
0.195799
0.192238
0.189223
0.186769
0.18487
0.183501
0.182618
0.182162
0.18206
0.182225
0.182562
0.182979
0.18316
0.182466
0.180483
0.176855
0.171305
0.163708
0.154168
0.143081
0.131088
0.118814
0.106343
0.092151
0.0800094
0.0733335
0.0706562
0.0707334
0.0724181
0.0747023
0.0767587
0.0779769
0.0779953
0.0767197
0.0743232
0.0712239
0.068042
0.0655484
0.0646137
0.0657083
0.0689147
0.0745291
0.0826617
0.0925351
0.100862
0.110839
0.135225
0.192341
0.244372
0.284217
0.312392
0.33078
0.341701
0.347791
0.350085
0.347423
0.340101
0.328007
0.310842
0.288532
0.262193
0.24153
0.238138
0.235843
0.234066
0.23336
0.234004
0.235939
0.238693
0.242317
0.242045
0.0372892
0.0595204
0.0715858
0.0878807
0.114951
0.153017
0.181513
0.201163
0.214045
0.224734
0.2361
0.250176
0.267791
0.289054
0.313467
0.340011
0.367666
0.394976
0.42072
0.443677
0.462687
0.476762
0.485143
0.487341
0.483189
0.472875
0.456982
0.436357
0.41208
0.385826
0.359721
0.33528
0.314404
0.299235
0.290373
0.287437
0.289427
0.295072
0.30464
0.319203
0.331748
0.324062
0.28467
0.226176
0.178813
0.155898
0.15124
0.156169
0.168016
0.18896
0.220202
0.254655
0.278258
0.278773
0.256997
0.224453
0.195227
0.183257
0.196726
0.243256
0.323106
0.412198
0.464989
0.472544
0.470359
0.471604
0.473747
0.473761
0.473107
0.472755
0.473403
0.475426
0.478946
0.483924
0.490237
0.497735
0.506275
0.515748
0.526087
0.537271
0.549312
0.561969
0.574661
0.58731
0.59988
0.612328
0.624596
0.636603
0.648236
0.659337
0.66969
0.679008
0.686922
0.692983
0.69666
0.697372
0.694526
0.687573
0.67608
0.659801
0.63873
0.613123
0.583439
0.550264
0.514077
0.47984
0.44824
0.41769
0.388419
0.360677
0.334621
0.31033
0.287813
0.267029
0.247903
0.230335
0.21421
0.199411
0.185819
0.173319
0.161814
0.15118
0.141415
0.132617
0.124779
0.117853
0.111825
0.106704
0.102529
0.0993984
0.0975342
0.0974524
0.100035
0.105308
0.112567
0.120906
0.129524
0.137694
0.144761
0.150154
0.153396
0.154141
0.152211
0.147614
0.140559
0.131446
0.120898
0.109889
0.100251
0.0947172
0.0958322
0.105901
0.131764
0.18323
0.251424
0.304552
0.341013
0.381784
0.424169
0.464001
0.499169
0.529506
0.555712
0.578501
0.598485
0.614513
0.624347
0.624871
0.612914
0.586004
0.54711
0.506136
0.46321
0.42128
0.382361
0.347447
0.316698
0.289961
0.266498
0.246578
0.0264799
0.0433583
0.0580862
0.0900413
0.14796
0.195928
0.221843
0.243315
0.263699
0.285809
0.312065
0.3431
0.378036
0.415647
0.454595
0.493093
0.530871
0.564521
0.593704
0.617342
0.634269
0.643581
0.64475
0.637533
0.62215
0.599234
0.569901
0.535695
0.498426
0.459975
0.422227
0.386958
0.355136
0.326609
0.301883
0.281473
0.265882
0.255822
0.252911
0.259539
0.275837
0.295711
0.305872
0.292306
0.256083
0.213685
0.179159
0.15695
0.148949
0.160143
0.189862
0.232989
0.276595
0.301636
0.298252
0.278528
0.271829
0.307011
0.395321
0.503345
0.550332
0.528433
0.495773
0.46779
0.449798
0.441445
0.440263
0.444547
0.45333
0.465421
0.479507
0.49437
0.509111
0.523253
0.536697
0.549582
0.562137
0.574573
0.587028
0.599547
0.612093
0.624502
0.6368
0.648975
0.661031
0.67299
0.684879
0.696718
0.708506
0.720196
0.731674
0.742727
0.753025
0.762097
0.769331
0.773991
0.775263
0.772332
0.764477
0.751172
0.732181
0.707591
0.67777
0.643277
0.604732
0.567911
0.53238
0.49758
0.463918
0.43175
0.401317
0.372756
0.346123
0.321409
0.29856
0.277493
0.258104
0.240278
0.223896
0.208835
0.194976
0.18218
0.170281
0.159039
0.14848
0.138573
0.129302
0.120688
0.112776
0.10564
0.0993788
0.0941533
0.0901937
0.0876399
0.0865616
0.0869638
0.0887614
0.0917592
0.0956512
0.100035
0.104434
0.108338
0.111242
0.112697
0.112343
0.109956
0.105555
0.099773
0.0946783
0.0943652
0.10462
0.132795
0.189213
0.274919
0.353459
0.401136
0.454512
0.518004
0.573077
0.61333
0.6422
0.664848
0.684258
0.701316
0.716418
0.728402
0.734755
0.731636
0.714944
0.681246
0.636468
0.586501
0.534087
0.483024
0.435868
0.39388
0.357351
0.326053
0.299757
0.277858
0.0205545
0.0454677
0.0931222
0.168046
0.229315
0.267264
0.304665
0.337255
0.367783
0.399826
0.434369
0.47108
0.509157
0.547585
0.585274
0.621119
0.654125
0.683192
0.707377
0.72569
0.736911
0.739519
0.73324
0.717618
0.692987
0.659934
0.619778
0.574457
0.526309
0.47774
0.430959
0.387896
0.350029
0.318217
0.292785
0.272783
0.256478
0.242845
0.231982
0.225986
0.227652
0.237643
0.251741
0.26041
0.25475
0.234513
0.207532
0.182995
0.168447
0.171529
0.199832
0.250267
0.310802
0.359217
0.378607
0.388495
0.435546
0.515507
0.578492
0.568126
0.522974
0.477256
0.446013
0.430129
0.427388
0.434613
0.448677
0.466963
0.487236
0.507607
0.526751
0.54403
0.559416
0.573246
0.585961
0.597923
0.609351
0.620323
0.630823
0.640789
0.650154
0.658805
0.666785
0.674128
0.680906
0.687245
0.693318
0.69933
0.705503
0.712037
0.719071
0.726641
0.734623
0.7427
0.75033
0.756754
0.761034
0.762134
0.759037
0.750885
0.737105
0.717482
0.692133
0.661394
0.626754
0.593125
0.5593
0.525641
0.492695
0.460887
0.430514
0.401765
0.374741
0.349476
0.325956
0.304131
0.283929
0.265263
0.248036
0.232147
0.217492
0.203965
0.191445
0.179776
0.1688
0.158485
0.148764
0.139612
0.131045
0.123095
0.115793
0.109163
0.103229
0.0980121
0.0935341
0.0898373
0.0869667
0.0849497
0.0837778
0.0833895
0.0836606
0.0844026
0.0853684
0.0862646
0.0867804
0.0866521
0.0858099
0.0847797
0.0856752
0.093502
0.11637
0.164255
0.243214
0.338233
0.411826
0.472263
0.548942
0.623896
0.678332
0.712747
0.734303
0.748292
0.757161
0.762808
0.766476
0.767852
0.765004
0.754271
0.731112
0.693181
0.646733
0.594122
0.539427
0.486575
0.438203
0.395594
0.359034
0.328302
0.303003
0.282808
0.0402868
0.0904795
0.173492
0.25331
0.322858
0.380485
0.420989
0.452262
0.482208
0.514447
0.549081
0.584145
0.618607
0.651669
0.682661
0.710988
0.736095
0.757427
0.774365
0.786178
0.792007
0.790745
0.781068
0.761364
0.732401
0.693769
0.646615
0.592912
0.535345
0.47718
0.421696
0.371592
0.328543
0.293084
0.265024
0.244352
0.229887
0.21949
0.211719
0.205505
0.201442
0.201445
0.206448
0.214004
0.21871
0.216141
0.206485
0.194768
0.189335
0.199901
0.237182
0.303689
0.389538
0.470368
0.526148
0.574835
0.594839
0.587103
0.550836
0.499661
0.45549
0.428099
0.418205
0.422395
0.436673
0.457299
0.481119
0.505646
0.529079
0.550406
0.569372
0.586227
0.601399
0.615263
0.62805
0.639858
0.650695
0.660517
0.669258
0.676841
0.683185
0.688129
0.691645
0.693708
0.694373
0.693801
0.692269
0.690168
0.687977
0.686226
0.68543
0.686011
0.688217
0.692037
0.697148
0.702886
0.708275
0.712116
0.713114
0.710052
0.701977
0.688312
0.668857
0.643698
0.616032
0.58731
0.557525
0.527336
0.497349
0.468031
0.439718
0.412639
0.386936
0.362683
0.339908
0.3186
0.298725
0.28023
0.263051
0.247115
0.232343
0.21865
0.205949
0.194135
0.183077
0.172713
0.162972
0.153801
0.145171
0.137077
0.12952
0.122505
0.116027
0.110074
0.10463
0.0996847
0.0952458
0.0913293
0.0879514
0.0851181
0.082818
0.0810164
0.0796528
0.0786433
0.0778991
0.0773884
0.077283
0.0783527
0.0830107
0.0969848
0.129967
0.192381
0.283675
0.375859
0.446843
0.526678
0.620721
0.700574
0.752967
0.782948
0.798076
0.802707
0.799175
0.790561
0.779433
0.766817
0.751764
0.731295
0.700954
0.6617
0.614733
0.562623
0.509273
0.458308
0.412161
0.371989
0.338002
0.309902
0.287212
0.269491
0.0780952
0.167222
0.276647
0.376924
0.447885
0.494118
0.529815
0.561562
0.591121
0.619015
0.645902
0.672708
0.69778
0.72098
0.742273
0.761588
0.778769
0.793526
0.80539
0.813659
0.817392
0.815429
0.806464
0.789139
0.761966
0.723173
0.673747
0.615348
0.550267
0.482411
0.416238
0.356
0.304802
0.263849
0.232649
0.209887
0.194844
0.185845
0.180982
0.178916
0.177931
0.177254
0.177752
0.180498
0.184831
0.18855
0.19029
0.192276
0.202347
0.232737
0.291876
0.38685
0.510896
0.632513
0.697465
0.651595
0.584609
0.527238
0.475865
0.436532
0.414568
0.409845
0.41899
0.437692
0.462022
0.488757
0.515478
0.540633
0.563526
0.584102
0.602635
0.619457
0.634829
0.648925
0.661857
0.673696
0.684472
0.694161
0.702674
0.709857
0.715412
0.719063
0.72054
0.719622
0.716202
0.710336
0.702278
0.6925
0.681684
0.670684
0.660445
0.651889
0.645778
0.642575
0.642336
0.644638
0.648588
0.652921
0.65614
0.656705
0.653284
0.644888
0.63095
0.612233
0.590994
0.567457
0.542318
0.516303
0.490027
0.46397
0.438487
0.41383
0.39017
0.367614
0.346221
0.326017
0.307003
0.289162
0.272462
0.256861
0.242307
0.228744
0.216107
0.204325
0.193303
0.182976
0.173282
0.164171
0.155603
0.147553
0.140003
0.132937
0.126337
0.120178
0.114434
0.109079
0.1041
0.0994962
0.0952734
0.0914411
0.088007
0.0849737
0.0823395
0.0801048
0.0782965
0.0770351
0.0766998
0.0783547
0.0848222
0.102463
0.142058
0.213884
0.310149
0.397916
0.471225
0.563182
0.669063
0.752926
0.804277
0.831245
0.840653
0.836155
0.820189
0.797087
0.7708
0.743781
0.716448
0.685953
0.651255
0.610519
0.564061
0.514058
0.463815
0.416426
0.373978
0.337434
0.3069
0.282006
0.262236
0.247034
0.132923
0.275702
0.404619
0.493889
0.552555
0.595286
0.62853
0.655407
0.677846
0.697037
0.71362
0.728093
0.741564
0.754153
0.766317
0.778323
0.790188
0.801662
0.812198
0.82093
0.826683
0.82801
0.823298
0.810903
0.789256
0.7569
0.712316
0.65392
0.584405
0.508093
0.430164
0.356803
0.293757
0.243881
0.207099
0.181348
0.164172
0.154248
0.149474
0.148601
0.15041
0.152905
0.154708
0.156359
0.159401
0.164692
0.172626
0.185971
0.21388
0.271123
0.365039
0.494142
0.660858
0.779746
0.716563
0.597319
0.514357
0.458046
0.42156
0.403394
0.401973
0.413874
0.434887
0.461082
0.489291
0.517241
0.543591
0.567797
0.589823
0.609854
0.628119
0.644828
0.660184
0.6744
0.687684
0.700204
0.712042
0.723162
0.733395
0.742452
0.749712
0.754605
0.756613
0.755285
0.750297
0.74151
0.729031
0.71327
0.694969
0.675198
0.655283
0.636669
0.620718
0.608487
0.600557
0.596895
0.596797
0.599055
0.602093
0.604145
0.603545
0.598944
0.589659
0.576771
0.560669
0.541954
0.521348
0.499532
0.477089
0.454484
0.432069
0.410101
0.388763
0.368183
0.348444
0.329601
0.311686
0.294713
0.278683
0.263583
0.249392
0.236079
0.223606
0.211927
0.200983
0.190717
0.181079
0.172026
0.163519
0.155527
0.148027
0.140992
0.134397
0.128212
0.122407
0.11695
0.111817
0.106992
0.10247
0.0982528
0.094346
0.0907613
0.0875151
0.0846386
0.0822037
0.0803943
0.07969
0.0813483
0.0885299
0.108086
0.151427
0.228106
0.325345
0.410534
0.487408
0.586317
0.695358
0.780865
0.834009
0.860014
0.864888
0.852627
0.825893
0.790227
0.750799
0.7108
0.673023
0.635702
0.597012
0.555134
0.509926
0.462889
0.416533
0.373315
0.334928
0.302128
0.274947
0.252985
0.235726
0.222584
0.206033
0.39798
0.524966
0.600029
0.649315
0.683758
0.707379
0.723211
0.733523
0.739897
0.743464
0.745106
0.745773
0.74802
0.752912
0.760751
0.771377
0.784248
0.798464
0.812746
0.825443
0.8346
0.838112
0.833922
0.820162
0.79519
0.757588
0.706263
0.640305
0.559045
0.47034
0.381524
0.302414
0.238953
0.192844
0.161803
0.141903
0.129824
0.124072
0.122331
0.124067
0.127992
0.132082
0.135265
0.138751
0.145066
0.157075
0.180184
0.22653
0.312073
0.442476
0.613448
0.778514
0.783955
0.637632
0.521141
0.450684
0.411198
0.393657
0.393315
0.406164
0.428012
0.454988
0.483982
0.512831
0.540302
0.565883
0.589494
0.611237
0.631264
0.649755
0.666937
0.683091
0.698526
0.713516
0.728231
0.742693
0.75674
0.770038
0.782112
0.792007
0.79901
0.802463
0.801768
0.796429
0.786121
0.77075
0.75055
0.726156
0.698672
0.669656
0.641003
0.614682
0.592378
0.57528
0.563873
0.557688
0.555658
0.556283
0.557656
0.557904
0.555488
0.549877
0.541
0.529072
0.514575
0.498102
0.480239
0.461501
0.44231
0.42299
0.403786
0.384878
0.3664
0.348449
0.3311
0.31441
0.29842
0.283159
0.268644
0.254884
0.241873
0.229601
0.218047
0.207183
0.196967
0.187365
0.178341
0.169863
0.161901
0.154427
0.147415
0.140836
0.134658
0.128849
0.123378
0.118216
0.113343
0.108745
0.104415
0.100353
0.0965665
0.0930743
0.0899148
0.0871741
0.0850536
0.084061
0.0855386
0.0928415
0.113083
0.157833
0.235802
0.332026
0.416022
0.495164
0.595679
0.70357
0.789168
0.843393
0.869315
0.871714
0.854089
0.819528
0.774545
0.725492
0.676822
0.631069
0.587966
0.546042
0.503707
0.460382
0.416791
0.374589
0.335578
0.301065
0.271645
0.247312
0.227691
0.212309
0.200617
0.285073
0.50792
0.626407
0.689121
0.725454
0.744274
0.750448
0.747739
0.73925
0.727588
0.714863
0.702654
0.692073
0.686109
0.687265
0.695529
0.710291
0.730571
0.754992
0.781698
0.808307
0.83198
0.849694
0.858647
0.856565
0.841699
0.812625
0.768153
0.707503
0.630725
0.538905
0.434962
0.336996
0.254392
0.193424
0.153191
0.128431
0.113768
0.105691
0.102759
0.103255
0.106621
0.111436
0.116114
0.120913
0.128698
0.144436
0.176845
0.24036
0.346606
0.49334
0.669425
0.783063
0.6989
0.551612
0.457013
0.406801
0.385422
0.383683
0.395893
0.417502
0.444578
0.474011
0.503664
0.53232
0.559452
0.584932
0.608799
0.631141
0.652081
0.671816
0.690633
0.708879
0.726886
0.74488
0.762914
0.78083
0.798261
0.814655
0.829354
0.841245
0.849707
0.854076
0.853723
0.848096
0.836756
0.819437
0.796137
0.767242
0.733671
0.696959
0.659276
0.623162
0.59088
0.564208
0.544321
0.530946
0.523159
0.519749
0.518692
0.518125
0.516492
0.512835
0.506678
0.497977
0.486988
0.474127
0.459848
0.444572
0.428649
0.412357
0.395909
0.379467
0.363155
0.347077
0.331316
0.315945
0.301028
0.286617
0.272757
0.259483
0.246817
0.234774
0.223358
0.212573
0.202393
0.192799
0.183768
0.175278
0.167303
0.159818
0.152795
0.146205
0.140018
0.134201
0.128723
0.123556
0.118678
0.11407
0.109722
0.105632
0.101802
0.0982498
0.095013
0.0921772
0.0899385
0.0887889
0.0900643
0.0971522
0.117171
0.161472
0.238112
0.332088
0.415137
0.494478
0.592454
0.696343
0.780548
0.835263
0.861481
0.862729
0.842343
0.803774
0.753633
0.698667
0.643929
0.592464
0.545078
0.501063
0.459109
0.418229
0.378343
0.340276
0.305227
0.274186
0.247641
0.225601
0.207756
0.193703
0.182968
0.380527
0.589272
0.697683
0.745432
0.761415
0.755976
0.735963
0.706884
0.673618
0.640308
0.610251
0.585894
0.568841
0.559483
0.561079
0.5733
0.595542
0.627029
0.66653
0.712002
0.760322
0.807266
0.847992
0.87801
0.894079
0.894274
0.877351
0.842247
0.788108
0.714755
0.623395
0.517466
0.402319
0.295998
0.213123
0.157797
0.124414
0.105247
0.0945539
0.0895837
0.0886422
0.0908344
0.0952668
0.100598
0.10665
0.116307
0.136219
0.177803
0.254961
0.371567
0.520942
0.67848
0.722717
0.600638
0.479539
0.410449
0.379729
0.373535
0.383419
0.403789
0.43039
0.459977
0.490332
0.520176
0.548933
0.576428
0.602645
0.627597
0.651319
0.673928
0.695665
0.71688
0.737934
0.759098
0.780449
0.801834
0.822862
0.842943
0.861331
0.87718
0.889575
0.898054
0.902039
0.900984
0.894398
0.881868
0.863064
0.837806
0.806187
0.768781
0.726781
0.682275
0.638304
0.597557
0.562176
0.534296
0.513791
0.499725
0.491492
0.486932
0.484317
0.48211
0.479117
0.474593
0.468222
0.460022
0.45021
0.439088
0.426961
0.414092
0.400694
0.386934
0.37294
0.35882
0.344666
0.330562
0.316591
0.302829
0.289349
0.276217
0.263493
0.251224
0.23945
0.228203
0.21751
0.207364
0.197764
0.188702
0.180167
0.172142
0.164605
0.157534
0.150899
0.144672
0.138823
0.133319
0.128135
0.123246
0.118635
0.114289
0.110203
0.106381
0.102837
0.0996114
0.0967852
0.0945423
0.0933394
0.0944407
0.101112
0.120231
0.162662
0.236085
0.326797
0.408513
0.486157
0.578704
0.676516
0.757893
0.812394
0.839142
0.840545
0.819704
0.780068
0.727922
0.669985
0.611649
0.556613
0.50667
0.461934
0.42132
0.3834
0.34732
0.313173
0.28168
0.253616
0.229437
0.209209
0.192712
0.179627
0.169563
0.466245
0.633022
0.728773
0.757312
0.747653
0.713744
0.665249
0.61001
0.55452
0.503793
0.461523
0.430275
0.411613
0.403316
0.406325
0.420312
0.445587
0.482915
0.532906
0.595155
0.667201
0.743734
0.81688
0.878271
0.921852
0.944831
0.946262
0.925464
0.881632
0.814359
0.724487
0.615148
0.493035
0.369002
0.257543
0.179466
0.131732
0.104804
0.0899866
0.0823227
0.0797596
0.0808456
0.0846987
0.0902524
0.0974194
0.109405
0.134195
0.184215
0.269493
0.387019
0.529192
0.651033
0.636316
0.516914
0.424938
0.378674
0.364089
0.369461
0.387367
0.412788
0.442133
0.472967
0.503862
0.534143
0.563574
0.592087
0.619614
0.646083
0.671496
0.69602
0.719975
0.743747
0.767643
0.791779
0.816007
0.839923
0.862906
0.884188
0.902909
0.918173
0.929402
0.936297
0.938412
0.935334
0.926725
0.912314
0.891865
0.865165
0.832113
0.793015
0.748515
0.700104
0.651248
0.604888
0.562946
0.528724
0.502297
0.482861
0.469507
0.460904
0.45554
0.451911
0.448711
0.44499
0.440201
0.434139
0.426831
0.418422
0.409094
0.399015
0.388325
0.37713
0.36552
0.353571
0.341357
0.328954
0.316443
0.303908
0.291435
0.279106
0.267002
0.255193
0.243743
0.232708
0.222139
0.212044
0.202442
0.193343
0.184747
0.176648
0.169033
0.161882
0.155171
0.148875
0.142964
0.13741
0.132186
0.127268
0.122639
0.118284
0.1142
0.110388
0.106866
0.103671
0.100884
0.0986773
0.097467
0.0984078
0.104525
0.122245
0.161756
0.230599
0.317168
0.396991
0.47153
0.556762
0.646891
0.724057
0.777521
0.804812
0.807277
0.787597
0.748927
0.697028
0.638387
0.57862
0.522077
0.471468
0.427572
0.389343
0.354837
0.32251
0.291907
0.26345
0.237827
0.215532
0.196716
0.18126
0.16893
0.159412
0.542796
0.640681
0.719998
0.729267
0.696903
0.640528
0.572407
0.501799
0.435489
0.378141
0.332773
0.301027
0.283531
0.277883
0.280358
0.290772
0.310217
0.34102
0.386442
0.449922
0.533329
0.633987
0.742262
0.843496
0.924862
0.980195
1.00828
1.00909
0.982034
0.926346
0.842256
0.732248
0.602396
0.463852
0.332699
0.224234
0.153788
0.113874
0.0924188
0.0812055
0.0765118
0.0766647
0.0801032
0.0858784
0.0943035
0.109191
0.13927
0.195787
0.28305
0.395506
0.522574
0.601498
0.552377
0.451536
0.385388
0.357566
0.355402
0.369099
0.392304
0.420767
0.451663
0.483298
0.514828
0.545929
0.576478
0.606339
0.635326
0.663309
0.690339
0.716681
0.742724
0.768825
0.795151
0.821594
0.84775
0.872975
0.89647
0.917362
0.934775
0.947835
0.956446
0.960412
0.959416
0.953177
0.941521
0.924404
0.901779
0.873539
0.839476
0.799971
0.755232
0.705614
0.65493
0.606381
0.562056
0.523932
0.492796
0.468613
0.450825
0.43849
0.430365
0.425053
0.421218
0.417785
0.414035
0.409585
0.404298
0.398178
0.391289
0.383708
0.375495
0.3667
0.357363
0.347524
0.33723
0.32654
0.315527
0.304273
0.292871
0.281415
0.270001
0.258719
0.247653
0.23689
0.226484
0.21647
0.206887
0.19776
0.189106
0.180927
0.17322
0.165972
0.159165
0.152778
0.146783
0.141155
0.135868
0.1309
0.126233
0.121853
0.117755
0.113942
0.11043
0.107258
0.104503
0.102328
0.101109
0.101874
0.107328
0.123298
0.159148
0.222417
0.30408
0.381501
0.452121
0.528988
0.610186
0.681798
0.73326
0.760791
0.76469
0.747057
0.710587
0.660463
0.602863
0.543597
0.487634
0.438412
0.397039
0.362214
0.33143
0.302626
0.27505
0.249036
0.225314
0.204465
0.186738
0.172103
0.160401
0.151386
0.612384
0.620598
0.683171
0.678995
0.633743
0.566918
0.491797
0.417539
0.350443
0.29478
0.252948
0.225383
0.21093
0.207641
0.208873
0.214026
0.224177
0.241872
0.271187
0.318173
0.390597
0.494283
0.625163
0.764755
0.889677
0.985623
1.04879
1.07938
1.07728
1.04138
0.970806
0.866727
0.734044
0.583015
0.430439
0.297028
0.197784
0.136273
0.103697
0.0871006
0.0797494
0.0787763
0.0818677
0.0879702
0.097911
0.116108
0.151112
0.21092
0.29521
0.399408
0.504555
0.544124
0.481957
0.4025
0.357205
0.343517
0.350481
0.369922
0.39651
0.426791
0.458653
0.490987
0.523332
0.555511
0.587343
0.618549
0.648847
0.678125
0.706537
0.734444
0.762246
0.790198
0.818275
0.846127
0.873121
0.898419
0.921091
0.940183
0.954883
0.964537
0.969468
0.969576
0.964668
0.954557
0.939178
0.918792
0.893546
0.863527
0.828287
0.788711
0.745034
0.697672
0.648539
0.600127
0.554944
0.514936
0.481142
0.453864
0.432925
0.417752
0.407391
0.400603
0.396089
0.392723
0.38968
0.386456
0.382791
0.378576
0.373778
0.368388
0.3624
0.355803
0.34859
0.340761
0.332333
0.32334
0.313838
0.303903
0.293624
0.283102
0.272443
0.261753
0.251135
0.240702
0.230504
0.220612
0.21108
0.201951
0.193253
0.185002
0.177205
0.169857
0.162946
0.156455
0.150363
0.144645
0.139279
0.134243
0.129521
0.125098
0.120969
0.117137
0.113619
0.110453
0.107712
0.105548
0.104298
0.104854
0.109565
0.123558
0.15527
0.212241
0.288298
0.362912
0.429432
0.497664
0.569053
0.633788
0.682103
0.709236
0.714442
0.699114
0.665446
0.61809
0.562949
0.506043
0.452846
0.407154
0.36992
0.339305
0.312286
0.286557
0.261369
0.237183
0.214865
0.195101
0.17822
0.164257
0.153108
0.144586
0.67779
0.586087
0.634683
0.625116
0.577517
0.51094
0.43796
0.366702
0.303125
0.251897
0.215578
0.19394
0.184534
0.183823
0.185028
0.186451
0.188887
0.194604
0.207055
0.231832
0.27866
0.361453
0.489386
0.650469
0.813283
0.951306
1.05428
1.12091
1.15116
1.1438
1.09681
1.00917
0.883382
0.727642
0.557743
0.396609
0.267549
0.180685
0.129152
0.10289
0.0909126
0.0881012
0.0906331
0.0969795
0.108526
0.12997
0.16834
0.227605
0.30624
0.399507
0.478718
0.488577
0.426992
0.366277
0.337017
0.333793
0.347226
0.370486
0.399158
0.430513
0.463034
0.496045
0.529298
0.56261
0.595657
0.628017
0.659369
0.689668
0.719168
0.748277
0.777348
0.806491
0.835486
0.863786
0.890584
0.914895
0.935676
0.951942
0.9629
0.968447
0.969072
0.96483
0.955665
0.941488
0.92209
0.898235
0.870267
0.838515
0.803195
0.764496
0.722407
0.677302
0.630447
0.583867
0.539784
0.499968
0.46548
0.436836
0.414193
0.397326
0.38555
0.377791
0.372821
0.369517
0.36702
0.364759
0.362398
0.359753
0.356715
0.35321
0.349174
0.344548
0.339281
0.333334
0.326688
0.319351
0.311354
0.302757
0.293642
0.284107
0.274265
0.264231
0.254126
0.244071
0.234137
0.224413
0.214972
0.205872
0.197156
0.188853
0.180979
0.173538
0.166526
0.159931
0.153737
0.147922
0.142468
0.137354
0.132563
0.128084
0.12391
0.120045
0.116505
0.113327
0.11058
0.108403
0.107095
0.107414
0.111336
0.123249
0.150579
0.200754
0.270503
0.341944
0.404745
0.464865
0.526078
0.582706
0.626529
0.652276
0.658221
0.644972
0.614276
0.570388
0.519036
0.46643
0.418262
0.378122
0.346297
0.320253
0.29666
0.273328
0.249821
0.226886
0.205567
0.186631
0.170445
0.157073
0.146445
0.138424
0.733428
0.550904
0.586026
0.578444
0.536224
0.476539
0.410623
0.345161
0.285837
0.238115
0.205533
0.188494
0.18434
0.187537
0.1905
0.190996
0.189452
0.187907
0.188687
0.195771
0.217534
0.269485
0.371584
0.527412
0.708774
0.879075
1.01857
1.12191
1.18797
1.21516
1.20069
1.1414
1.03614
0.889181
0.713305
0.530054
0.368239
0.249672
0.176339
0.135225
0.113725
0.106856
0.107773
0.113786
0.126546
0.150108
0.188933
0.244618
0.316362
0.395503
0.448869
0.439814
0.385308
0.339836
0.322271
0.326563
0.344471
0.370174
0.400035
0.431956
0.464903
0.498494
0.53257
0.566859
0.600889
0.63414
0.666289
0.697347
0.727615
0.757494
0.78725
0.816834
0.845865
0.873676
0.899356
0.921775
0.939806
0.952517
0.959185
0.960298
0.956419
0.94773
0.934347
0.916379
0.893941
0.867432
0.837354
0.804224
0.76847
0.730275
0.689649
0.646846
0.602784
0.559038
0.517378
0.479232
0.445553
0.416993
0.393981
0.37657
0.364279
0.356165
0.351083
0.347956
0.345943
0.344464
0.343151
0.341777
0.340187
0.338262
0.335898
0.332997
0.329473
0.325253
0.320283
0.314539
0.308025
0.300775
0.292856
0.284358
0.27539
0.266075
0.256553
0.246925
0.237306
0.227799
0.218493
0.209461
0.20076
0.192432
0.184502
0.176985
0.169884
0.163194
0.156902
0.150993
0.145449
0.140252
0.135388
0.130845
0.126618
0.12271
0.119136
0.115932
0.113162
0.110953
0.109565
0.109628
0.112759
0.1226
0.145523
0.18863
0.251338
0.319118
0.378923
0.432237
0.48367
0.531302
0.569196
0.592244
0.597973
0.586225
0.55847
0.51874
0.472647
0.426402
0.385383
0.35233
0.326494
0.304738
0.283804
0.262014
0.23949
0.217343
0.196756
0.178514
0.162962
0.150162
0.140066
0.132575
0.752269
0.528205
0.536248
0.535412
0.504534
0.456707
0.4022
0.346696
0.294982
0.251945
0.221078
0.203505
0.197544
0.199744
0.204034
0.206046
0.204271
0.200477
0.196713
0.195144
0.202001
0.230107
0.300605
0.429161
0.602018
0.783794
0.946928
1.07976
1.17845
1.24055
1.2628
1.24077
1.16964
1.0478
0.883796
0.693272
0.504774
0.350414
0.246923
0.186973
0.155416
0.140115
0.13652
0.140681