/*--------------------------------*- C++ -*----------------------------------*\
  =========                 |
  \\      /  F ield         | OpenFOAM: The Open Source CFD Toolbox
   \\    /   O peration     | Website:  https://openfoam.org
    \\  /    A nd           | Version:  9
     \\/     M anipulation  |
\*---------------------------------------------------------------------------*/
FoamFile
{
    format      ascii;
    class       volScalarField;
    location    "0.089";
    object      k;
}
// * * * * * * * * * * * * * * * * * * * * * * * * * * * * * * * * * * * * * //

dimensions      [0 2 -2 0 0 0 0];

internalField   nonuniform List<scalar> 
12225
(
2.61934e-05
3.27042e-05
3.75524e-05
3.59659e-05
2.75539e-05
2.16594e-05
1.99657e-05
2.0043e-05
2.21346e-05
3.2462e-05
4.94862e-05
5.99863e-05
6.48332e-05
6.61348e-05
6.59197e-05
6.33628e-05
5.23317e-05
5.32105e-05
2.00789e-05
2.11222e-05
2.20927e-05
2.21443e-05
2.16492e-05
2.06635e-05
2.02768e-05
2.02457e-05
2.04375e-05
2.13626e-05
2.39333e-05
3.0724e-05
3.85195e-05
4.4523e-05
4.86295e-05
5.01326e-05
4.9988e-05
4.91668e-05
2.00173e-05
1.82278e-05
1.63778e-05
1.57263e-05
1.57269e-05
1.60944e-05
1.69714e-05
1.72754e-05
1.72621e-05
1.72349e-05
1.72984e-05
1.75677e-05
1.81739e-05
1.96589e-05
2.11048e-05
2.20605e-05
2.44113e-05
2.60618e-05
2.0637e-05
2.08506e-05
2.04547e-05
1.98718e-05
1.9216e-05
1.85663e-05
1.79069e-05
1.64968e-05
1.43785e-05
1.36913e-05
1.3836e-05
1.43077e-05
1.53319e-05
1.69109e-05
1.81959e-05
1.90241e-05
1.95286e-05
1.96847e-05
2.15152e-05
2.19959e-05
2.16286e-05
2.06696e-05
2.02135e-05
2.00333e-05
1.99495e-05
1.98494e-05
1.98012e-05
1.98159e-05
1.99791e-05
2.07004e-05
2.36495e-05
3.31798e-05
4.00107e-05
4.20186e-05
4.19918e-05
4.04404e-05
2.01687e-05
2.4726e-05
2.62791e-05
2.41253e-05
2.14641e-05
2.05414e-05
2.04146e-05
2.0615e-05
2.07764e-05
2.06784e-05
2.06628e-05
2.08992e-05
2.20328e-05
2.61982e-05
3.35698e-05
3.97289e-05
4.36332e-05
4.42926e-05
2.01761e-05
2.67026e-05
3.61164e-05
3.55949e-05
2.77124e-05
2.30721e-05
2.29402e-05
2.72731e-05
3.25083e-05
3.21561e-05
3.0414e-05
3.0957e-05
3.76586e-05
5.39667e-05
6.2818e-05
6.48037e-05
6.34565e-05
5.65181e-05
2.01622e-05
2.49889e-05
3.09467e-05
2.93932e-05
2.42816e-05
2.25129e-05
2.2724e-05
2.61806e-05
3.21988e-05
3.65034e-05
4.53856e-05
7.72742e-05
0.000110979
0.000119979
0.000116686
9.34517e-05
6.29375e-05
4.68241e-05
2.00992e-05
2.18586e-05
2.29884e-05
2.29154e-05
2.20965e-05
2.14131e-05
2.13135e-05
2.14086e-05
2.17583e-05
2.25382e-05
2.4584e-05
3.03816e-05
4.14365e-05
5.61148e-05
6.70208e-05
6.94637e-05
6.78803e-05
5.86294e-05
2.00108e-05
2.01444e-05
2.05929e-05
2.08634e-05
2.08964e-05
2.08365e-05
2.07897e-05
2.08408e-05
2.12864e-05
2.36108e-05
2.98831e-05
3.41268e-05
3.55996e-05
3.56284e-05
3.4342e-05
3.32521e-05
3.19598e-05
3.0215e-05
2.03406e-05
2.03236e-05
2.0434e-05
2.08586e-05
2.10338e-05
2.10222e-05
2.09951e-05
2.10955e-05
2.18617e-05
2.5287e-05
3.50726e-05
4.18732e-05
4.38078e-05
4.32916e-05
3.89768e-05
3.17568e-05
2.7167e-05
2.4557e-05
2.07724e-05
2.05762e-05
2.03745e-05
2.0776e-05
2.22138e-05
2.29908e-05
2.33341e-05
2.38924e-05
2.56823e-05
3.44454e-05
5.82224e-05
7.04237e-05
7.17751e-05
6.86585e-05
5.53618e-05
4.23651e-05
3.47008e-05
3.01732e-05
2.12727e-05
2.11865e-05
2.05826e-05
2.05683e-05
2.09281e-05
2.12453e-05
2.13886e-05
2.15654e-05
2.19582e-05
2.31894e-05
2.78212e-05
4.10633e-05
4.85528e-05
4.9096e-05
4.52448e-05
3.71159e-05
3.35046e-05
3.29962e-05
2.18197e-05
2.30686e-05
2.27815e-05
2.19273e-05
2.1903e-05
2.25786e-05
2.3427e-05
2.40797e-05
2.53306e-05
2.97418e-05
3.82123e-05
4.09534e-05
4.03749e-05
3.57435e-05
2.93856e-05
2.58204e-05
2.40405e-05
2.36279e-05
2.51128e-05
3.75565e-05
3.48728e-05
2.77719e-05
2.45306e-05
2.33289e-05
2.27456e-05
2.26196e-05
2.27824e-05
2.43108e-05
2.92675e-05
3.14921e-05
3.16012e-05
3.05052e-05
2.70587e-05
2.47715e-05
2.33493e-05
2.24803e-05
2.17637e-05
2.74759e-05
2.85879e-05
2.78064e-05
2.66085e-05
2.65223e-05
2.63846e-05
2.48766e-05
2.26076e-05
2.17604e-05
2.15942e-05
2.16089e-05
2.177e-05
2.1917e-05
2.19319e-05
2.19243e-05
2.19024e-05
2.18561e-05
2.00739e-05
2.12469e-05
2.22429e-05
2.34686e-05
2.3886e-05
2.36772e-05
2.29416e-05
2.21606e-05
2.19163e-05
2.18263e-05
2.178e-05
2.17702e-05
2.17805e-05
2.18559e-05
2.22285e-05
2.2688e-05
2.28623e-05
2.28662e-05
2.00548e-05
2.0366e-05
2.04703e-05
2.04978e-05
2.05476e-05
2.06656e-05
2.07115e-05
2.07065e-05
2.0638e-05
2.05915e-05
2.0595e-05
2.06586e-05
2.09587e-05
2.21025e-05
2.33015e-05
2.38123e-05
2.38744e-05
2.37862e-05
2.06904e-05
2.03594e-05
2.05441e-05
2.08486e-05
2.09385e-05
2.09212e-05
2.08088e-05
2.06889e-05
2.06495e-05
2.06456e-05
2.06585e-05
2.0727e-05
2.0872e-05
2.13664e-05
2.2169e-05
2.26683e-05
2.27866e-05
2.27114e-05
2.11178e-05
2.19808e-05
2.29121e-05
2.34256e-05
2.36408e-05
2.32217e-05
2.18613e-05
2.10555e-05
2.07252e-05
2.06469e-05
2.06655e-05
2.08747e-05
2.16772e-05
2.20943e-05
2.20886e-05
2.19294e-05
2.16165e-05
2.1434e-05
2.30801e-05
2.27037e-05
2.44161e-05
2.50649e-05
2.45171e-05
2.27304e-05
2.16793e-05
2.12138e-05
2.09935e-05
2.08966e-05
2.08726e-05
2.08788e-05
2.0931e-05
2.11582e-05
2.16789e-05
2.20013e-05
2.21036e-05
2.20996e-05
2.04278e-05
2.2467e-05
2.41857e-05
2.48043e-05
2.49006e-05
2.40312e-05
2.30764e-05
2.32146e-05
2.36333e-05
2.3568e-05
2.33143e-05
2.30345e-05
2.29289e-05
2.29261e-05
2.30177e-05
2.35492e-05
2.4107e-05
2.41626e-05
2.09941e-05
2.27022e-05
2.23359e-05
2.16375e-05
2.15446e-05
2.18473e-05
2.28621e-05
2.68967e-05
2.97535e-05
2.93218e-05
2.5706e-05
2.35995e-05
2.30472e-05
2.3045e-05
2.35381e-05
2.48668e-05
2.54571e-05
2.54939e-05
2.22968e-05
2.37351e-05
2.32614e-05
2.26933e-05
2.36249e-05
3.14192e-05
3.72896e-05
3.584e-05
3.07367e-05
2.77494e-05
2.60604e-05
2.56697e-05
2.59286e-05
2.82642e-05
3.32653e-05
3.54504e-05
3.57325e-05
3.53523e-05
2.0542e-05
2.12998e-05
2.14186e-05
2.15678e-05
2.28676e-05
2.56212e-05
2.59731e-05
2.58972e-05
2.51932e-05
2.45719e-05
2.44011e-05
2.43846e-05
2.49149e-05
2.70996e-05
2.8563e-05
2.88265e-05
2.85983e-05
2.72026e-05
2.06373e-05
2.12613e-05
2.10616e-05
2.05747e-05
2.05398e-05
2.07881e-05
2.12014e-05
2.13665e-05
2.14573e-05
2.16221e-05
2.21176e-05
2.27166e-05
2.3005e-05
2.30501e-05
2.29903e-05
2.25874e-05
2.19091e-05
2.16135e-05
2.02015e-05
2.02037e-05
2.00321e-05
1.98283e-05
1.97843e-05
1.98068e-05
1.98367e-05
1.98236e-05
1.97121e-05
1.90751e-05
1.8286e-05
1.82811e-05
1.85744e-05
1.87312e-05
1.87182e-05
1.85283e-05
1.78304e-05
1.53382e-05
2.00047e-05
1.91783e-05
1.62933e-05
1.45469e-05
1.45652e-05
1.53787e-05
1.64545e-05
1.68475e-05
1.69582e-05
1.69967e-05
1.70531e-05
1.72045e-05
1.77211e-05
1.84483e-05
1.89985e-05
1.94062e-05
1.98019e-05
2.0021e-05
2.00123e-05
2.04588e-05
2.22229e-05
2.79948e-05
3.28927e-05
3.3409e-05
3.20674e-05
2.92817e-05
2.83023e-05
2.83055e-05
2.92278e-05
3.37063e-05
4.53637e-05
5.40779e-05
5.88663e-05
6.10019e-05
6.16276e-05
6.15568e-05
2.02105e-05
3.02436e-05
8.12253e-05
0.00012341
0.000129709
0.000120047
8.81001e-05
7.06516e-05
6.64424e-05
6.75364e-05
7.82685e-05
0.000120468
0.000162767
0.000184497
0.000192004
0.00019263
0.000189263
0.000170789
0.0694442
0.0898516
0.0941431
0.0942967
0.0954325
0.0956999
0.0951844
0.0944266
0.0918758
0.0851542
0.0817231
0.0807927
0.0731218
0.0691186
0.0638378
0.0636392
0.0659597
0.0762599
0.0872299
0.0915444
0.0946715
0.0970535
0.0992915
0.104457
0.120415
0.135855
0.142201
0.142316
0.136126
0.127757
0.124387
0.125441
0.136776
0.149407
0.144399
0.129557
0.113582
0.102274
0.0993298
0.0993883
0.0992398
0.0957541
0.0923729
0.0901469
0.0850725
0.0811999
0.0784851
0.0741237
0.0715544
0.0693175
0.0671272
0.0660939
0.0650389
0.0646598
0.0645996
0.0654724
0.06684
0.0695346
0.0729617
0.0762939
0.0804045
0.0843252
0.088586
0.0930889
0.0980672
0.10338
0.109009
0.114943
0.121281
0.128109
0.135291
0.14267
0.150325
0.158153
0.165427
0.169224
0.177207
0.177541
0.173814
0.165699
0.166749
0.166187
0.224868
0.175305
0.146197
0.134978
0.137597
0.164134
0.236519
0.320094
0.348782
0.343238
0.310397
0.219959
0.14379
0.0965602
0.0699228
0.0538035
0.0445126
0.0396251
0.0380138
0.0407621
0.0513952
0.0947694
0.120592
0.139162
0.256356
0.214761
0.124234
0.0962673
0.0837365
0.0677615
0.058436
0.0482282
0.0434335
0.0400689
0.0388109
0.0386416
0.0385975
0.0383851
0.0382825
0.0380352
0.0379587
0.0378237
0.0377072
0.037505
0.0374038
0.0371524
0.0369897
0.0367672
0.0365425
0.0362968
0.0360623
0.0357926
0.0352397
0.0348073
0.0341432
0.0334409
0.0328248
0.0323363
0.0319525
0.0316289
0.031328
0.0310478
0.0307731
0.0304993
0.0302059
0.0298103
0.029372
0.0287878
0.0281215
0.0270509
0.0250424
0.0224761
0.0196443
0.0166065
0.0136701
0.0117422
0.0110805
0.011065
0.0113166
0.0112888
0.00928533
0.0059821
0.00567921
0.00627394
0.00694353
0.00720025
0.00735866
0.00763328
0.00798694
0.00809754
0.00782332
0.00748623
0.00715954
0.00708688
0.00694539
0.00655239
0.00632023
0.00545328
0.0613849
0.0709029
0.0937137
0.102559
0.104333
0.0996288
0.0959628
0.0994409
0.106762
0.108601
0.0980102
0.0911041
0.0840114
0.0678979
0.0657431
0.0698106
0.0901636
0.112992
0.123132
0.127077
0.133027
0.138322
0.141444
0.141995
0.14226
0.142834
0.140835
0.137689
0.139981
0.149869
0.155111
0.152956
0.140124
0.132271
0.118969
0.107091
0.0944172
0.0820768
0.0733042
0.0664043
0.0575687
0.0497093
0.0446407
0.038033
0.0341555
0.0299125
0.0275342
0.0256172
0.024497
0.024065
0.0239506
0.0243544
0.0257946
0.0274373
0.0293088
0.03205
0.0348014
0.0372984
0.0400477
0.0427525
0.045411
0.0486275
0.0520966
0.0555369
0.0595812
0.0644521
0.0705954
0.0782152
0.0878051
0.0999298
0.114858
0.132382
0.146286
0.159344
0.174378
0.189537
0.207306
0.226384
0.226447
0.218167
0.185673
0.169344
0.208444
0.147824
0.11915
0.0989595
0.0701299
0.0776783
0.101926
0.11168
0.103722
0.0687192
0.040883
0.0288878
0.0239321
0.0209889
0.0203325
0.021082
0.0231187
0.0277264
0.0295814
0.0323018
0.0394595
0.0664911
0.125385
0.297532
0.255573
0.140858
0.0828806
0.0623873
0.0528123
0.0465812
0.0437196
0.0421007
0.0413783
0.0408413
0.040431
0.039998
0.0394483
0.0391315
0.0387119
0.0384881
0.0381507
0.0379828
0.0377814
0.0376657
0.0375413
0.0373376
0.0371763
0.0371253
0.03723
0.0376854
0.0381939
0.0386599
0.0389627
0.0390266
0.0388123
0.0382819
0.0375726
0.0367175
0.0358048
0.034958
0.0342733
0.0336834
0.0331479
0.0326464
0.0321965
0.0318495
0.0316706
0.0316699
0.0319331
0.032977
0.0352125
0.0365729
0.0368183
0.0365696
0.0348139
0.0279315
0.0199876
0.0152585
0.012988
0.0123056
0.01165
0.0106262
0.0101129
0.0100761
0.0101878
0.010843
0.0114202
0.0114217
0.0107779
0.00914892
0.00810656
0.00748285
0.00706729
0.00674747
0.00647411
0.00612775
0.0058159
0.00549088
0.0542807
0.045577
0.0822152
0.108493
0.107793
0.0997468
0.07839
0.0673029
0.0670977
0.0710994
0.0824673
0.0852385
0.0917282
0.101606
0.100536
0.100576
0.117751
0.118651
0.108037
0.10524
0.100986
0.100475
0.105353
0.110251
0.11299
0.114719
0.117206
0.125309
0.133589
0.136412
0.13591
0.125152
0.105263
0.0865364
0.0747381
0.0617989
0.0483311
0.0369359
0.0312451
0.0253903
0.0191999
0.0159947
0.0129157
0.0103591
0.00881404
0.00749975
0.00685013
0.00621117
0.00593588
0.00580249
0.00575517
0.0057889
0.00603629
0.00629979
0.00666829
0.00729966
0.00811245
0.00924457
0.0102897
0.0110329
0.0115102
0.011856
0.0121666
0.0124997
0.013026
0.0137618
0.0149516
0.0169031
0.0200363
0.0250353
0.0335701
0.047715
0.0726156
0.105904
0.142071
0.178323
0.208613
0.233188
0.245199
0.24135
0.207832
0.168534
0.193734
0.166175
0.159919
0.110849
0.0574095
0.0421059
0.0415168
0.0331062
0.0243522
0.0197857
0.016898
0.0149206
0.0141998
0.0144203
0.016036
0.0194777
0.0270891
0.0424636
0.0433237
0.0414239
0.0433944
0.0691492
0.226658
0.280909
0.155023
0.077805
0.0554752
0.0468803
0.0428242
0.0401792
0.0388986
0.0381291
0.0377708
0.037604
0.0374789
0.0374162
0.0370592
0.0366606
0.0361468
0.0357802
0.0352663
0.0347321
0.034396
0.0339041
0.0336304
0.0334319
0.03293
0.0324136
0.0318169
0.0313338
0.0323193
0.0342326
0.0358638
0.0371638
0.0381038
0.0385156
0.0385266
0.0382304
0.0376843
0.0370783
0.0363297
0.0355162
0.0346589
0.0337023
0.0325829
0.0312475
0.0296024
0.0276106
0.0255131
0.0239796
0.0235605
0.0238156
0.0252151
0.030105
0.0340124
0.0347795
0.0337974
0.0270195
0.0170761
0.0122359
0.0102558
0.00955944
0.00934418
0.00929696
0.00935747
0.00978483
0.0107309
0.0112121
0.0112921
0.0111987
0.0105557
0.00905283
0.00806026
0.00746584
0.0070392
0.00675159
0.00655642
0.00601714
0.0635701
0.0536011
0.0854297
0.099495
0.0947693
0.0791759
0.059294
0.0530529
0.0535798
0.0560185
0.061237
0.0630179
0.0651141
0.0737042
0.0853404
0.0954245
0.118575
0.100927
0.0809188
0.0751106
0.0757202
0.0801
0.0858049
0.0891555
0.0933314
0.099731
0.108364
0.111714
0.11236
0.106062
0.0920008
0.0742005
0.0582887
0.0474119
0.0382575
0.0276988
0.0196238
0.0155182
0.0127252
0.00947174
0.00739955
0.00634336
0.00537688
0.00495039
0.00476156
0.00470204
0.00472556
0.00490392
0.00512519
0.00540385
0.00577762
0.00620968
0.00674677
0.00727032
0.00776789
0.00828107
0.00862713
0.00873893
0.00876945
0.00876718
0.00869265
0.00850726
0.00824316
0.00797024
0.0077901
0.00756311
0.00736414
0.00730632
0.00744104
0.00784571
0.00948913
0.0131175
0.0213657
0.039167
0.0768874
0.128082
0.177207
0.219466
0.240656
0.249275
0.225491
0.170649
0.183699
0.182693
0.187034
0.158036
0.0734575
0.0316459
0.0217041
0.017425
0.0151612
0.0133635
0.0119131
0.0110023
0.0110421
0.0121678
0.0160923
0.0263585
0.0564072
0.0800143
0.077777
0.0660197
0.0585411
0.0889761
0.267889
0.21194
0.0881494
0.0565555
0.0471966
0.0433693
0.0415838
0.0407109
0.0404665
0.0409747
0.0417562
0.0421315
0.0422587
0.0417782
0.0409907
0.039674
0.0383402
0.0369911
0.0358848
0.0347361
0.0342068
0.0333802
0.0328075
0.0324362
0.0320548
0.0314411
0.0305807
0.0290046
0.0271852
0.0267656
0.0276158
0.0294249
0.0317993
0.0342022
0.0359092
0.0370082
0.037551
0.037701
0.0376761
0.0374845
0.0372671
0.037084
0.0369123
0.0367302
0.0365263
0.0361795
0.0354946
0.0339957
0.0312634
0.0285413
0.0273103
0.0273075
0.0281951
0.0319001
0.03511
0.0351743
0.0313386
0.0192097
0.0119257
0.00876724
0.00751945
0.00717983
0.00719623
0.00751327
0.00805557
0.00909874
0.0101069
0.0104664
0.0104465
0.0103246
0.00994129
0.00940116
0.00916829
0.00879225
0.00855407
0.00789364
0.067578
0.110974
0.115769
0.101869
0.0681523
0.0493746
0.0467482
0.0480675
0.0518684
0.060155
0.0672332
0.0692453
0.0696887
0.0721025
0.0802424
0.0917668
0.116499
0.0882867
0.0661491
0.0613732
0.0617659
0.0646775
0.0675245
0.0703558
0.0758956
0.0848806
0.08935
0.0899448
0.0865078
0.0742015
0.0559929
0.0397899
0.0302957
0.0249823
0.0186665
0.0123058
0.0092937
0.00773034
0.00641599
0.00540539
0.00499174
0.00481494
0.00474933
0.00475414
0.00489554
0.00518083
0.00557897
0.0061331
0.00674308
0.00745803
0.00826887
0.00906911
0.00977702
0.0103289
0.0107033
0.0109569
0.0110696
0.0111018
0.01096
0.0106429
0.0104058
0.0100207
0.00944927
0.00878021
0.00840063
0.00793565
0.00722925
0.00683339
0.00633691
0.00565715
0.00535087
0.00529862
0.00722168
0.013246
0.0291556
0.0683846
0.128629
0.181274
0.214412
0.226512
0.222315
0.17435
0.181492
0.187653
0.186785
0.172636
0.114023
0.0377504
0.0190986
0.0143762
0.012508
0.01141
0.0105649
0.0098521
0.00994461
0.0116451
0.0191886
0.0428479
0.102994
0.126459
0.117598
0.0906728
0.0676347
0.142594
0.255892
0.125318
0.0629675
0.0487238
0.0446025
0.0430296
0.0424398
0.0429371
0.0450822
0.048014
0.0509616
0.0524694
0.0530393
0.052937
0.0507054
0.049019
0.0458907
0.0423354
0.0394107
0.0364476
0.0349531
0.0334244
0.0326441
0.031953
0.0316446
0.0311166
0.0304202
0.0289853
0.0263593
0.0243022
0.0239097
0.0241721
0.0248026
0.0261053
0.0279641
0.0299513
0.0318457
0.0331727
0.0339729
0.0344832
0.0348615
0.0352658
0.0357322
0.0361189
0.0364134
0.0365938
0.0367404
0.0370962
0.0373568
0.0370074
0.0342708
0.0297791
0.0282952
0.0284858
0.0305201
0.0353536
0.0362959
0.0338114
0.0222833
0.0125151
0.00844439
0.00707794
0.00681681
0.00689612
0.00735102
0.00780958
0.00803954
0.00832435
0.00900439
0.00951014
0.00978575
0.0101715
0.0105233
0.0106759
0.0106849
0.0104208
0.0738191
0.0965813
0.0802114
0.0520818
0.0425625
0.0420636
0.0457202
0.0583263
0.0747464
0.0842468
0.092753
0.0930233
0.0879347
0.0793977
0.0821569
0.0927071
0.114961
0.0771366
0.0550966
0.0502212
0.0500741
0.0511267
0.0521842
0.0541075
0.0592839
0.0673967
0.0703154
0.0703464
0.0655092
0.0516856
0.0330456
0.0216898
0.0167352
0.0138343
0.0104794
0.00742435
0.00620691
0.00560214
0.00523395
0.00507409
0.00503864
0.00512931
0.00552057
0.00616146
0.007235
0.00866915
0.010412
0.0120371
0.0136778
0.0150962
0.0161519
0.0170758
0.0175736
0.0180457
0.0182906
0.0185055
0.0185974
0.0185592
0.0184826
0.0181074
0.0177409
0.0170336
0.0161891
0.015075
0.0140082
0.012916
0.0114532
0.0100784
0.00849515
0.00660285
0.00501313
0.0040438
0.00372348
0.00471685
0.00936607
0.0244639
0.0659538
0.132178
0.177472
0.197528
0.20398
0.185262
0.186594
0.1946
0.191109
0.175929
0.125899
0.0557427
0.0224429
0.0143794
0.0122166
0.0112615
0.0105127
0.00967188
0.00960779
0.0119128
0.0262247
0.0822906
0.164476
0.186582
0.169729
0.115125
0.0846302
0.187745
0.219563
0.085818
0.0532152
0.0464631
0.0446147
0.0439353
0.0449823
0.0487896
0.056801
0.0644694
0.068091
0.0698092
0.0703459
0.06935
0.0657086
0.0629718
0.0585074
0.0526448
0.0473017
0.0416433
0.0374255
0.0344446
0.0327118
0.031614
0.0309495
0.0305593
0.0299653
0.0289314
0.0262426
0.023302
0.0219349
0.021898
0.0220884
0.022185
0.022493
0.0236406
0.0263321
0.0286858
0.030224
0.0311002
0.0315201
0.031732
0.0320007
0.0325845
0.0333805
0.0340824
0.034682
0.0356934
0.0383658
0.0407059
0.0409999
0.0401376
0.035369
0.0308638
0.0304374
0.0316541
0.0361244
0.0373457
0.0352265
0.0245079
0.0137505
0.00914992
0.00743282
0.00715266
0.00728743
0.00757292
0.0076452
0.00767018
0.00772116
0.00788068
0.00854253
0.00955093
0.0102732
0.0107797
0.0110503
0.0110665
0.0728919
0.0720678
0.0600115
0.0437487
0.042257
0.0477196
0.0664723
0.079311
0.08887
0.0948979
0.102474
0.103795
0.101042
0.0897519
0.0865272
0.094204
0.113425
0.0686238
0.0471816
0.0411525
0.0398657
0.0395591
0.0395222
0.0403629
0.0438254
0.0503957
0.0531246
0.0531978
0.0491036
0.0367912
0.0206822
0.0138067
0.0109375
0.00939298
0.00786383
0.00638456
0.00581363
0.00557106
0.00547258
0.0056224
0.00624875
0.00739934
0.0094135
0.012376
0.0147659
0.0171768
0.018416
0.0196767
0.0203637
0.0211846
0.0217323
0.0223856
0.023066
0.0238068
0.0246914
0.0256969
0.0267741
0.0278357
0.0286671
0.0291505
0.0293692
0.0289857
0.0283377
0.0272594
0.0256094
0.0237369
0.02179
0.0195886
0.0162744
0.0122614
0.00769748
0.00449893
0.00324788
0.00289456
0.00333676
0.00692553
0.020877
0.0637854
0.137651
0.176661
0.193748
0.199392
0.199176
0.202892
0.19509
0.172328
0.123892
0.0641077
0.0282853
0.0161815
0.0130322
0.0118045
0.0106637
0.00962429
0.00925062
0.0124293
0.038185
0.140219
0.207173
0.224662
0.207383
0.12489
0.101271
0.19469
0.175348
0.0668994
0.0497106
0.0463727
0.0454029
0.0462813
0.0511504
0.0602869
0.0704084
0.0755195
0.0780674
0.079294
0.0796415
0.0788503
0.0757165
0.0716889
0.0671698
0.061103
0.0537879
0.046732
0.0405226
0.0359488
0.0330384
0.0314163
0.0305188
0.0299503
0.0292221
0.0282195
0.0258758
0.0226464
0.0203782
0.0195782
0.0195655
0.0197021
0.020182
0.0216817
0.0245505
0.0270884
0.028871
0.0299274
0.0304082
0.0305151
0.0304666
0.0301033
0.0298781
0.0299997
0.0305436
0.0316119
0.0340585
0.0399522
0.0440761
0.0450229
0.0445514
0.0407509
0.0339123
0.0327432
0.0339437
0.0379181
0.0384468
0.0358148
0.0246376
0.0146116
0.00977643
0.00775773
0.00742266
0.00748162
0.00752647
0.00745203
0.00720007
0.00716921
0.00725747
0.00774237
0.00902156
0.0100397
0.0105798
0.0108506
0.0645884
0.06436
0.0529898
0.0466514
0.0493424
0.0629494
0.0783389
0.0870847
0.0948619
0.105175
0.113663
0.113959
0.110311
0.0957334
0.089298
0.0968769
0.110024
0.0615474
0.0405244
0.0336645
0.0315515
0.0305883
0.0296017
0.0296082
0.0313565
0.0358778
0.0388273
0.039121
0.0365364
0.0271056
0.0149893
0.0106881
0.00903949
0.0082079
0.00743044
0.00650241
0.00622152
0.00623066
0.00689645
0.0083001
0.011313
0.0151827
0.0179521
0.0195683
0.021084
0.0218248
0.0224488
0.0230943
0.0236273
0.0249095
0.0261516
0.02782
0.0299936
0.0325394
0.0356916
0.0387306
0.0414468
0.0435407
0.044749
0.0452824
0.0453627
0.0447067
0.0435533
0.0422385
0.0403441
0.0380273
0.0356683
0.0329994
0.0295681
0.024149
0.0161416
0.00866913
0.00447024
0.00281998
0.00235043
0.00231583
0.00440055
0.0135957
0.0442418
0.129965
0.18456
0.204858
0.207934
0.203348
0.188296
0.148318
0.102722
0.0645087
0.0329706
0.018926
0.014534
0.0124517
0.0105581
0.00923058
0.00875182
0.0126183
0.0542811
0.176729
0.224739
0.237941
0.21809
0.124025
0.115014
0.193003
0.143311
0.0581499
0.0485585
0.0469126
0.0470175
0.0507775
0.0589766
0.0696816
0.076919
0.0801579
0.0821544
0.0835056
0.0840065
0.0840398
0.0823106
0.0780036
0.0728299
0.0654611
0.0571098
0.048904
0.0418031
0.0364391
0.0330947
0.0308422
0.0296648
0.0290079
0.028509
0.0273812
0.0246471
0.0217385
0.0196907
0.0186804
0.0185667
0.0187447
0.0194464
0.0213839
0.0241542
0.0264069
0.0280644
0.0290557
0.0294858
0.0295966
0.0295554
0.0290566
0.0281785
0.0279465
0.0279823
0.0282942
0.0295113
0.0342491
0.042483
0.0471697
0.0483276
0.0479521
0.044355
0.0365446
0.035289
0.036875
0.0398676
0.0396449
0.0354864
0.0230901
0.0143038
0.00975698
0.00783457
0.00746475
0.00747345
0.00743176
0.00716167
0.00640844
0.00593057
0.00587182
0.00603341
0.00678464
0.00799253
0.00925391
0.0635153
0.0626261
0.048873
0.052559
0.0576942
0.0717154
0.0840453
0.0908977
0.100267
0.112708
0.120665
0.120682
0.115891
0.0980209
0.0912675
0.0991221
0.106446
0.0562424
0.035362
0.0276693
0.0249849
0.0238251
0.022372
0.0217052
0.0222829
0.0248033
0.0277957
0.0283666
0.0272024
0.021181
0.0124566
0.00962225
0.00868417
0.0082208
0.00763378
0.00728627
0.00752337
0.00857489
0.0113808
0.0152963
0.0183794
0.0199142
0.021615
0.0230698
0.0238575
0.0245013
0.0257194
0.0272582
0.029511
0.0333121
0.0370543
0.0413781
0.0455302
0.0486902
0.0509383
0.0521356
0.052671
0.0528276
0.0528259
0.0524343
0.0516625
0.0507256
0.0493604
0.0476443
0.0456304
0.0435811
0.0414662
0.039316
0.0369024
0.033764
0.0286978
0.0199001
0.0100989
0.00516037
0.00279467
0.00193145
0.00173917
0.00242614
0.00669203
0.0234146
0.0760624
0.141406
0.172459
0.170611
0.153957
0.110684
0.0842095
0.0589127
0.034433
0.0213102
0.016138
0.013083
0.00991958
0.00783772
0.00772313
0.0123833
0.0673034
0.19422
0.230003
0.235246
0.209978
0.132091
0.143162
0.187932
0.108959
0.0537835
0.0487206
0.0479515
0.0499737
0.0563536
0.065114
0.0745238
0.0792542
0.0815092
0.0834416
0.085943
0.0880447
0.0886748
0.0883368
0.0844183
0.0784621
0.0689532
0.0588107
0.0496165
0.042128
0.0364014
0.0322612
0.0298223
0.0285842
0.0279404
0.0272449
0.0260819
0.0233993
0.0201114
0.0185141
0.0180608
0.0180795
0.0184973
0.0195901
0.0220391
0.0242854
0.0260224
0.0270117
0.0275042
0.0275394
0.0274658
0.027315
0.0268952
0.0262567
0.0261596
0.0262455
0.0264988
0.0271886
0.0295614
0.0378771
0.0461906
0.0500387
0.0508505
0.0503193
0.0459863
0.0386498
0.0380671
0.0402016
0.0419038
0.0408915
0.0336483
0.0208641
0.0132479
0.00955636
0.00803188
0.00761697
0.00745538
0.00696988
0.00595072
0.00502316
0.00423018
0.00382432
0.00386883
0.00417119
0.00533549
0.0635532
0.0613123
0.0428761
0.0566271
0.063367
0.0776482
0.0875015
0.0931227
0.103025
0.116851
0.125141
0.125467
0.120218
0.099768
0.0928696
0.0986862
0.102527
0.0532496
0.0321973
0.0234494
0.0199459
0.0185517
0.0174642
0.016218
0.0160934
0.0170415
0.0194467
0.0206408
0.020417
0.017418
0.0114218
0.00932554
0.00876353
0.0085439
0.00850622
0.00930077
0.0117786
0.014525
0.0168308
0.0191946
0.0221218
0.0243423
0.0255455
0.0262698
0.0276528
0.0299607
0.0329387
0.0370252
0.0417439
0.0457452
0.0491156
0.051725
0.0534057
0.0543169
0.0547146
0.054826
0.0548063
0.0545792
0.0543006
0.0539564
0.0533441
0.0523595
0.0507647
0.0486653
0.046135
0.0441398
0.0421163
0.0401922
0.0381187
0.0358688
0.0330544
0.0289644
0.0226098
0.0132954
0.00669113
0.00340967
0.00187571
0.00139941
0.00136007
0.00237013
0.00708766
0.0221423
0.0504609
0.0725083
0.0816472
0.0857204
0.0804637
0.0598615
0.0372546
0.0245239
0.0186139
0.0140518
0.00992528
0.00719487
0.00631684
0.0104393
0.0722621
0.199558
0.225606
0.226472
0.198342
0.157621
0.162487
0.177118
0.0846536
0.0522959
0.0494512
0.0498065
0.0538624
0.0601629
0.0679083
0.0747782
0.0791971
0.0816673
0.0838333
0.0868967
0.0922188
0.0939296
0.0928201
0.0885044
0.0815293
0.0704495
0.0593562
0.0487493
0.0404405
0.0343091
0.0303106
0.028345
0.0273809
0.0269006
0.0262433
0.0247029
0.0217889
0.0191576
0.0176594
0.0175142
0.0178243
0.0188125
0.0213093
0.0233422
0.024575
0.0253309
0.0252012
0.0247689
0.0239546
0.0228978
0.0220649
0.0218492
0.0220418
0.022527
0.0232313
0.023966
0.0250354
0.0275506
0.0356047
0.0455642
0.0510383
0.0527785
0.052814
0.0517234
0.0460125
0.0407843
0.0410705
0.0436226
0.0440147
0.0412712
0.0292253
0.017607
0.0118372
0.00943675
0.00840359
0.00780235
0.00692811
0.0056896
0.00449942
0.00363926
0.00318998
0.00309034
0.00320456
0.0038842
0.0634995
0.0567854
0.0322347
0.0587091
0.0677288
0.0824417
0.0892555
0.0948667
0.104717
0.118082
0.127181
0.127271
0.119701
0.0994063
0.0928049
0.0964628
0.0971916
0.0514641
0.0297644
0.0208599
0.016224
0.0145454
0.0136774
0.0126585
0.0122506
0.0124326
0.0134415
0.0150441
0.0155014
0.0145568
0.0110802
0.00942881
0.00921697
0.00969211
0.010973
0.0131827
0.0154859
0.0182648
0.021973
0.0257028
0.0278026
0.0288025
0.0301889
0.0323669
0.0351494
0.0385515
0.0428447
0.0469516
0.0506241
0.0529683
0.0542645
0.0549647
0.055246
0.0553449
0.0553448
0.0551444
0.0549274
0.0548158
0.0545861
0.0544352
0.0541187
0.0534103
0.0519126
0.0493241
0.0458431
0.0425846
0.0397959
0.0381006
0.0368108
0.0352868
0.0333133
0.0306287
0.0272827
0.0230449
0.0167676
0.00959558
0.00469705
0.00224946
0.00127379
0.00101062
0.00111809
0.0022358
0.00614754
0.0154881
0.0371603
0.0609364
0.0692772
0.0642493
0.0444838
0.0299405
0.0222084
0.016182
0.0110448
0.00742145
0.00591038
0.00730813
0.0572602
0.188049
0.219436
0.219037
0.191487
0.167729
0.163897
0.15616
0.0709107
0.052456
0.0504174
0.0522146
0.0572465
0.0620413
0.0681136
0.074193
0.0786429
0.0821339
0.0866164
0.0942424
0.0997182
0.100965
0.0977426
0.0923865
0.0828171
0.0706491
0.0570585
0.0461253
0.0376215
0.0316804
0.0284495
0.0267681
0.0260698
0.0255849
0.0247325
0.0226585
0.0193836
0.017431
0.0167755
0.0168645
0.0178175
0.0204609
0.0228321
0.0237714
0.0239239
0.0234561
0.0222405
0.0200696
0.0173956
0.0147542
0.0141371
0.0142914
0.014903
0.016132
0.0178217
0.0198974
0.0221853
0.0263827
0.0366565
0.0470764
0.0535729
0.0558688
0.0560031
0.0553307
0.0521439
0.0451176
0.0432316
0.04456
0.0463335
0.0454529
0.0380469
0.0233133
0.0146092
0.0108775
0.00936572
0.00833059
0.00713369
0.00577015
0.0044653
0.00349584
0.00299726
0.00287518
0.00290635
0.00327338
0.0622587
0.0465782
0.0187043
0.0594486
0.0731493
0.084578
0.0897914
0.0957055
0.105838
0.120267
0.127179
0.126921
0.117943
0.0982684
0.0919853
0.0928076
0.0932394
0.0510013
0.0269803
0.0182159
0.0133207
0.0115944
0.010896
0.0102614
0.00976293
0.00964673
0.0099004
0.0107767
0.0118181
0.0120424
0.0108155
0.00950712
0.00946256
0.0105925
0.0135564
0.0177983
0.0213954
0.0233914
0.0253365
0.0288255
0.0327877
0.0354113
0.0371077
0.0393403
0.0425366
0.0464535
0.0503464
0.0528578
0.0544212
0.0550562
0.0552333
0.0552502
0.0552457
0.0550524
0.0545638
0.0542599
0.0541656
0.0543737
0.0545271
0.0545844
0.0545175
0.0541515
0.0530815
0.0505269
0.0454186
0.0394735
0.0345671
0.031437
0.0300602
0.0296062
0.0290199
0.0286574
0.0273591
0.0249182
0.0221733
0.0187453
0.0129218
0.00647943
0.00293526
0.00138294
0.000898145
0.000814843
0.000960966
0.00185791
0.00553454
0.0192873
0.0442614
0.054931
0.0518332
0.0395506
0.0284844
0.0201479
0.0138505
0.00888459
0.00604344
0.00579105
0.0316423
0.164705
0.211751
0.212543
0.189683
0.167965
0.161106
0.123699
0.064349
0.0532772
0.0521319
0.0553061
0.0596351
0.0628333
0.0676881
0.0726801
0.077927
0.0841953
0.0954062
0.103479
0.105527
0.105353
0.102574
0.0949421
0.0821236
0.0673876
0.0539744
0.0425623
0.0339992
0.0287157
0.0261941
0.0253638
0.0251052
0.0245493
0.0232884
0.0201842
0.0165287
0.0149881
0.0150684
0.0161606
0.0191318
0.0223564
0.0233579
0.023285
0.0225744
0.0204104
0.016621
0.0116586
0.00764593
0.00609457
0.00592236
0.00614001
0.00688857
0.00845824
0.0119527
0.0170505
0.0214066
0.0292817
0.0412576
0.0524432
0.0592333
0.0615125
0.0615199
0.0603758
0.0565999
0.0495432
0.0460347
0.0461983
0.0480782
0.0481251
0.0443244
0.0300175
0.0179212
0.0121744
0.00997479
0.00877805
0.00752641
0.00606102
0.00465859
0.0035548
0.00284957
0.00256217
0.00252187
0.00263096
0.0599875
0.0411679
0.0107425
0.0617255
0.0756478
0.0851603
0.0892829
0.0953589
0.106369
0.120586
0.126162
0.125574
0.114249
0.0959907
0.0901978
0.0928018
0.0933512
0.05386
0.0270209
0.0176468
0.0120017
0.00928282
0.00876929
0.00859434
0.00836468
0.00818319
0.00804208
0.00826943
0.00887287
0.00958194
0.00986414
0.00941716
0.0094065
0.0104941
0.0135694
0.0184812
0.0240031
0.0286179
0.0315062
0.0341023
0.0372178
0.0393132
0.0416751
0.0447894
0.0474815
0.0506319
0.0535206
0.0547359
0.0552585
0.0553991
0.055293
0.0551112
0.0545966
0.0530689
0.0522179
0.0519257
0.0521759
0.0529412
0.0540785
0.0546495
0.0548484
0.0547906
0.0541396
0.0519406
0.0457404
0.0378142
0.0312993
0.0259295
0.0226382
0.0206608
0.0194814
0.0197253
0.0213975
0.0228846
0.022372
0.0207689
0.0188218
0.0152076
0.00862357
0.003788
0.00164239
0.00088567
0.000675789
0.000629825
0.000802674
0.00197671
0.00772891
0.026934
0.0421039
0.0436562
0.0375815
0.0269707
0.0181045
0.0118725
0.00715972
0.0054592
0.0127907
0.111494
0.202399
0.205707
0.18984
0.165834
0.152621
0.0965842
0.0630094
0.0557385
0.0555316
0.0590746
0.0616023
0.0634376
0.0669561
0.0716544
0.0784124
0.0912533
0.102327
0.106821
0.107908
0.107794
0.105486
0.096494
0.0806825
0.0644706
0.0486751
0.0365203
0.0292458
0.0261236
0.0249372
0.0245735
0.0240208
0.0229157
0.0205488
0.0162593
0.0138968
0.0134059
0.0142903
0.0168527
0.0217017
0.0234258
0.0234252
0.0227531
0.0203767
0.0147925
0.00791883
0.00455138
0.00310794
0.00271499
0.0027675