/*--------------------------------*- C++ -*----------------------------------*\
  =========                 |
  \\      /  F ield         | OpenFOAM: The Open Source CFD Toolbox
   \\    /   O peration     | Website:  https://openfoam.org
    \\  /    A nd           | Version:  9
     \\/     M anipulation  |
\*---------------------------------------------------------------------------*/
FoamFile
{
    format      ascii;
    class       surfaceScalarField;
    location    "0.089";
    object      phi_0;
}
// * * * * * * * * * * * * * * * * * * * * * * * * * * * * * * * * * * * * * //

dimensions      [0 3 -1 0 0 0 0];

internalField   nonuniform List<scalar> 
24170
(
3.04505e-06
1.15719e-07
2.96233e-06
8.27169e-08
2.87489e-06
8.74425e-08
2.77404e-06
1.0085e-07
2.6628e-06
1.11243e-07
2.55882e-06
1.03976e-07
2.47629e-06
8.25315e-08
2.40966e-06
6.6632e-08
2.34128e-06
6.83765e-08
2.25885e-06
8.24321e-08
2.16464e-06
9.42091e-08
2.06937e-06
9.52676e-08
1.98189e-06
8.74887e-08
1.90432e-06
7.75688e-08
1.83037e-06
7.39479e-08
1.75612e-06
7.42538e-08
1.67214e-06
8.39706e-08
1.01077e-07
1.57107e-06
3.42056e-06
1.02999e-07
3.43015e-06
7.31282e-08
3.41863e-06
9.89578e-08
3.41664e-06
1.02838e-07
3.42523e-06
1.02659e-07
3.43132e-06
9.78852e-08
3.42707e-06
8.67802e-08
3.41393e-06
7.97698e-08
3.39672e-06
8.55848e-08
3.37805e-06
1.01108e-07
3.35801e-06
1.14243e-07
3.33624e-06
1.17042e-07
3.3123e-06
1.11425e-07
3.28559e-06
1.04279e-07
3.25455e-06
1.0499e-07
3.21565e-06
1.13153e-07
3.17051e-06
1.29111e-07
1.52627e-07
3.11896e-06
3.65635e-06
2.27192e-07
3.66121e-06
6.8274e-08
3.68136e-06
7.88017e-08
3.6835e-06
1.007e-07
3.67373e-06
1.12432e-07
3.66415e-06
1.07462e-07
3.65838e-06
9.2551e-08
3.65663e-06
8.15186e-08
3.65974e-06
8.24795e-08
3.66805e-06
9.27963e-08
3.67874e-06
1.03552e-07
3.68711e-06
1.08671e-07
3.68865e-06
1.09881e-07
3.68105e-06
1.11886e-07
3.66588e-06
1.2016e-07
3.64511e-06
1.3392e-07
3.62229e-06
1.51929e-07
1.73504e-07
3.60142e-06
3.92377e-06
1.25315e-07
3.85593e-06
1.36117e-07
3.84855e-06
8.61803e-08
3.86742e-06
8.18251e-08
3.87883e-06
1.01026e-07
3.88125e-06
1.05037e-07
3.88324e-06
9.05593e-08
3.89056e-06
7.41993e-08
3.90398e-06
6.9067e-08
3.92086e-06
7.59146e-08
3.93717e-06
8.72434e-08
3.94919e-06
9.66476e-08
3.95508e-06
1.03993e-07
3.95487e-06
1.12091e-07
3.95046e-06
1.24572e-07
3.94267e-06
1.41708e-07
3.93296e-06
1.61645e-07
1.83681e-07
3.92278e-06
4.11066e-06
6.60199e-08
4.15344e-06
9.33423e-08
4.17416e-06
6.54537e-08
4.18267e-06
7.33136e-08
4.17653e-06
1.07172e-07
4.16141e-06
1.20159e-07
4.14787e-06
1.041e-07
4.1441e-06
7.79634e-08
4.15158e-06
6.15925e-08
4.16524e-06
6.22508e-08
4.1772e-06
7.52847e-08
4.18114e-06
9.27109e-08
4.17528e-06
1.09845e-07
4.16207e-06
1.25307e-07
4.14665e-06
1.39994e-07
4.13326e-06
1.55094e-07
4.12506e-06
1.69842e-07
1.86435e-07
4.12231e-06
4.45003e-06
1.37166e-07
4.45052e-06
9.28601e-08
4.4419e-06
7.40735e-08
4.44092e-06
7.42884e-08
4.45014e-06
9.79554e-08
4.4584e-06
1.11897e-07
4.45946e-06
1.03037e-07
4.45705e-06
8.03794e-08
4.45802e-06
6.0617e-08
4.46528e-06
5.49919e-08
4.47614e-06
6.44309e-08
4.48514e-06
8.37082e-08
4.48796e-06
1.07029e-07
4.4831e-06
1.30166e-07
4.47236e-06
1.50725e-07
4.45927e-06
1.68188e-07
4.44671e-06
1.82402e-07
1.94854e-07
4.43829e-06
4.8187e-06
1.0044e-07
4.85892e-06
5.26384e-08
4.836e-06
9.69976e-08
4.79385e-06
1.16433e-07
4.77807e-06
1.13732e-07
4.7891e-06
1.00868e-07
4.80749e-06
8.46483e-08
4.81883e-06
6.90457e-08
4.81894e-06
6.05037e-08
4.81082e-06
6.311e-08
4.80053e-06
7.4722e-08
4.79295e-06
9.12905e-08
4.79027e-06
1.09709e-07
4.79168e-06
1.28756e-07
4.79467e-06
1.47731e-07
4.79645e-06
1.66414e-07
4.79448e-06
1.84364e-07
2.00692e-07
4.78865e-06
5.18168e-06
-2.01595e-08
5.20192e-06
3.24e-08
5.16246e-06
1.3646e-07
5.14972e-06
1.29171e-07
5.18639e-06
7.70666e-08
5.23127e-06
5.59862e-08
5.25181e-06
6.41062e-08
5.24431e-06
7.65475e-08
5.22065e-06
8.41631e-08
5.19202e-06
9.17454e-08
5.16235e-06
1.04392e-07
5.13157e-06
1.22065e-07
5.10009e-06
1.41185e-07
5.07048e-06
1.58367e-07
5.04664e-06
1.71573e-07
5.03081e-06
1.82244e-07
5.02442e-06
1.90756e-07
1.99887e-07
5.02522e-06
5.45201e-06
-5.88068e-08
5.501e-06
-1.65928e-08
5.51654e-06
1.20926e-07
5.50815e-06
1.3756e-07
5.49269e-06
9.25233e-08
5.4786e-06
7.00814e-08
5.47001e-06
7.26937e-08
5.47016e-06
7.63997e-08
5.48088e-06
7.34406e-08
5.50078e-06
7.18456e-08
5.52354e-06
8.16318e-08
5.54104e-06
1.04566e-07
5.54761e-06
1.34613e-07
5.54214e-06
1.63832e-07
5.52767e-06
1.86044e-07
5.50932e-06
2.006e-07
5.49188e-06
2.08195e-07
2.13316e-07
5.47845e-06
5.78058e-06
8.82197e-09
5.82292e-06
-5.89381e-08
5.86987e-06
7.3977e-08
5.888e-06
1.19432e-07
5.8949e-06
8.56178e-08
5.90739e-06
5.75977e-08
5.92335e-06
5.67285e-08
5.93192e-06
6.78307e-08
5.92608e-06
7.92859e-08
5.90743e-06
9.04951e-08
5.8832e-06
1.05864e-07
5.86081e-06
1.26949e-07
5.84519e-06
1.50238e-07
5.8381e-06
1.70922e-07
5.839e-06
1.85147e-07
5.84628e-06
1.93314e-07
5.85749e-06
1.96992e-07
1.99576e-07
5.87122e-06
6.23466e-06
-1.2619e-07
6.30398e-06
-1.28257e-07
6.32993e-06
4.80175e-08
6.32655e-06
1.22817e-07
6.31568e-06
9.64921e-08
6.31694e-06
5.63291e-08
6.32534e-06
4.83277e-08
6.32405e-06
6.91283e-08
6.30618e-06
9.71522e-08
6.28001e-06
1.16666e-07
6.25934e-06
1.2653e-07
6.25302e-06
1.33268e-07
6.26192e-06
1.41339e-07
6.28096e-06
1.51887e-07
6.30313e-06
1.62974e-07
6.32236e-06
1.74085e-07
6.33559e-06
1.8376e-07
1.92688e-07
6.34248e-06
5.70383e-06
-1.48307e-07
5.69611e-06
-1.2054e-07
5.74822e-06
-4.09188e-09
5.79088e-06
8.01557e-08
5.79122e-06
9.61516e-08
5.76358e-06
8.39724e-08
5.73562e-06
7.62825e-08
5.7234e-06
8.13496e-08
5.72859e-06
9.197e-08
5.7441e-06
1.01151e-07
5.75992e-06
1.10709e-07
5.76751e-06
1.25678e-07
5.7618e-06
1.47054e-07
5.74322e-06
1.70459e-07
5.71678e-06
1.8942e-07
5.68957e-06
2.01296e-07
5.66859e-06
2.04739e-07
2.03976e-07
5.6573e-06
6.86857e-06
-1.19054e-07
6.86889e-06
-1.20864e-07
6.90905e-06
-4.42502e-08
6.97648e-06
1.27258e-08
7.03582e-06
3.68132e-08
7.07028e-06
4.95097e-08
7.08963e-06
5.69306e-08
7.11082e-06
6.01621e-08
7.13715e-06
6.56422e-08
7.15535e-06
8.29492e-08
7.1498e-06
1.16254e-07
7.11693e-06
1.58555e-07
7.06683e-06
1.97153e-07
7.01693e-06
2.2036e-07
6.98152e-06
2.24831e-07
6.96792e-06
2.14894e-07
6.97511e-06
1.97548e-07
1.83745e-07
6.99534e-06
8.51867e-06
-4.81918e-08
8.46926e-06
-7.1452e-08
8.4701e-06
-4.50888e-08
8.46909e-06
1.37307e-08
8.47107e-06
3.48407e-08
8.48471e-06
3.58642e-08
8.50818e-06
3.34606e-08
8.53401e-06
3.43368e-08
8.55037e-06
4.92788e-08
8.54904e-06
8.42772e-08
8.53006e-06
1.3524e-07
8.50123e-06
1.87381e-07
8.47532e-06
2.23067e-07
8.46335e-06
2.32329e-07
8.47034e-06
2.17844e-07
8.49418e-06
1.91048e-07
8.52854e-06
1.63186e-07
1.47053e-07
8.56524e-06
1.02631e-05
-4.45263e-08
1.01752e-05
1.6456e-08
1.01556e-05
-2.55341e-08
1.02231e-05
-5.36794e-08
1.03065e-05
-4.86107e-08
1.03678e-05
-2.54606e-08
1.04024e-05
-1.09762e-09
1.04218e-05
1.49291e-08
1.04294e-05
4.16546e-08
1.0423e-05
9.06607e-08
1.04054e-05
1.52872e-07
1.03867e-05
2.06121e-07
1.03755e-05
2.34274e-07
1.0374e-05
2.33791e-07
1.03794e-05
2.12435e-07
1.03872e-05
1.832e-07
1.03935e-05
1.56919e-07
1.4266e-07
1.03979e-05
1.26364e-05
-4.39998e-08
1.27322e-05
-7.94106e-08
1.27831e-05
-7.63712e-08
1.28185e-05
-8.90933e-08
1.28192e-05
-4.9331e-08
1.27808e-05
1.29139e-08
1.27346e-05
4.51144e-08
1.27074e-05
4.21685e-08
1.27072e-05
4.18366e-08
1.27262e-05
7.1626e-08
1.27559e-05
1.23213e-07
1.27892e-05
1.72841e-07
1.28223e-05
2.01152e-07
1.28537e-05
2.02436e-07
1.28811e-05
1.85009e-07
1.29019e-05
1.62349e-07
1.29127e-05
1.46188e-07
1.43787e-07
1.29115e-05
1.56088e-05
-7.90961e-08
1.56058e-05
-7.64013e-08
1.55294e-05
4.5549e-11
1.54213e-05
1.89924e-08
1.53148e-05
5.72064e-08
1.52463e-05
8.1389e-08
1.52214e-05
7.0018e-08
1.5235e-05
2.86106e-08
1.52826e-05
-5.78533e-09
1.53524e-05
1.79294e-09
1.54317e-05
4.39338e-08
1.54998e-05
1.04681e-07
1.55458e-05
1.55174e-07
1.55689e-05
1.79412e-07
1.55755e-05
1.78372e-07
1.55738e-05
1.6402e-07
1.55722e-05
1.47794e-07
1.41611e-07
1.55744e-05
1.84876e-05
-8.08329e-08
1.85151e-05
-1.0392e-07
1.86066e-05
-9.14719e-08
1.87168e-05
-9.12142e-08
1.88113e-05
-3.73156e-08
1.88693e-05
2.34344e-08
1.88808e-05
5.84754e-08
1.88533e-05
5.61842e-08
1.88028e-05
4.46898e-08
1.87564e-05
4.81574e-08
1.87312e-05
6.917e-08
1.87399e-05
9.59556e-08
1.87797e-05
1.15377e-07
1.88375e-05
1.21654e-07
1.88988e-05
1.17001e-07
1.89542e-05
1.08633e-07
1.9e-05
1.02005e-07
1.02873e-07
1.90387e-05
2.2795e-05
1.34175e-08
2.27405e-05
-4.94418e-08
2.27298e-05
-8.07042e-08
2.27413e-05
-1.02796e-07
2.28062e-05
-1.02154e-07
2.29041e-05
-7.44745e-08
2.29914e-05
-2.88643e-08
2.3028e-05
1.95739e-08
2.30071e-05
6.56395e-08
2.29494e-05
1.05875e-07
2.28874e-05
1.31106e-07
2.28482e-05
1.35158e-07
2.2844e-05
1.19638e-07
2.28726e-05
9.30296e-08
2.29237e-05
6.59352e-08
2.29852e-05
4.71259e-08
2.30473e-05
3.98363e-08
4.55515e-08
2.31047e-05
1.6817e-05
7.78364e-08
1.68919e-05
-1.24347e-07
1.6963e-05
-1.51755e-07
1.69852e-05
-1.25036e-07
1.69656e-05
-8.2594e-08
1.69361e-05
-4.49387e-08
1.69293e-05
-2.20386e-08
1.69511e-05
-2.26172e-09
1.69841e-05
3.26227e-08
1.70127e-05
7.73412e-08
1.70252e-05
1.18599e-07
1.70176e-05
1.42701e-07
1.6994e-05
1.43277e-07
1.69638e-05
1.23192e-07
1.69381e-05
9.16717e-08
1.69251e-05
6.01228e-08
1.69291e-05
3.57927e-08
2.50361e-08
1.69496e-05
1.49353e-05
2.24545e-07
1.46934e-05
1.1756e-07
1.45534e-05
-1.18022e-08
1.44709e-05
-4.25489e-08
1.4436e-05
-4.76571e-08
1.44308e-05
-3.97474e-08
1.44357e-05
-2.69176e-08
1.44459e-05
-1.24524e-08
1.44731e-05
5.41769e-09
1.45217e-05
2.87001e-08
1.45813e-05
5.90809e-08
1.46367e-05
8.72186e-08
1.46773e-05
1.02744e-07
1.46999e-05
1.00593e-07
1.4708e-05
8.35227e-08
1.47083e-05
5.97898e-08
1.47076e-05
3.65539e-08
2.14207e-08
1.47112e-05
1.27703e-05
1.3607e-07
1.28245e-05
6.33454e-08
1.27792e-05
3.35329e-08
1.27396e-05
-2.99583e-09
1.27626e-05
-7.06813e-08
1.28288e-05
-1.05941e-07
1.28866e-05
-8.46859e-08
1.29097e-05
-3.55175e-08
1.29026e-05
1.25191e-08
1.28856e-05
4.56603e-08
1.28814e-05
6.33124e-08
1.28963e-05
7.2296e-08
1.29227e-05
7.63438e-08
1.29462e-05
7.70742e-08
1.29561e-05
7.36347e-08
1.29494e-05
6.64839e-08
1.29297e-05
5.62986e-08
4.59525e-08
1.29051e-05
1.10798e-05
1.11615e-07
1.11971e-05
-5.39676e-08
1.12369e-05
-6.28414e-09
1.12323e-05
1.6523e-09
1.1231e-05
-6.94258e-08
1.12333e-05
-1.0823e-07
1.12115e-05
-6.2893e-08
1.11519e-05
2.40796e-08
1.10732e-05
9.12616e-08
1.10084e-05
1.10425e-07
1.09817e-05
9.00317e-08
1.09979e-05
5.60867e-08
1.10452e-05
2.90102e-08
1.11037e-05
1.85552e-08
1.1155e-05
2.23977e-08
1.11883e-05
3.31127e-08
1.12014e-05
4.32723e-08
4.65272e-08
1.12008e-05
9.71973e-06
1.24721e-07
9.66859e-06
-2.82507e-09
9.7465e-06
-8.4193e-08
9.85539e-06
-1.07243e-07
9.88943e-06
-1.03468e-07
9.83044e-06
-4.92312e-08
9.73077e-06
3.67684e-08
9.65474e-06
1.00116e-07
9.63676e-06
1.09241e-07
9.67441e-06
7.27768e-08
9.74361e-06
2.08299e-08
9.81645e-06
-1.67593e-08
9.87707e-06
-3.16051e-08
9.9192e-06
-2.35803e-08
9.94384e-06
-2.23612e-09
9.95443e-06
2.25194e-08
9.95579e-06
4.19103e-08
5.09547e-08
9.95137e-06
8.43748e-06
3.56688e-09
8.46536e-06
-3.07054e-08
8.46544e-06
-8.42692e-08
8.44012e-06
-8.19298e-08
8.37353e-06
-3.68735e-08
8.30381e-06
2.04918e-08
8.28244e-06
5.81341e-08
8.32487e-06
5.76818e-08
8.4095e-06
2.46173e-08
8.50247e-06
-2.0192e-08
8.57333e-06
-5.00312e-08
8.61145e-06
-5.48813e-08
8.61893e-06
-3.90836e-08
8.60824e-06
-1.28927e-08
8.59447e-06
1.15339e-08
8.58865e-06
2.83434e-08
8.59626e-06
3.42969e-08
3.03467e-08
8.61687e-06
7.19975e-06
-4.38487e-08
7.24808e-06
-7.90399e-08
7.25656e-06
-9.27496e-08
7.2569e-06
-8.22652e-08
7.28184e-06
-6.18127e-08
7.33348e-06
-3.1146e-08
7.39584e-06
-4.23215e-09
7.45069e-06
2.83298e-09
7.48262e-06
-7.31423e-09
7.48655e-06
-2.41251e-08
7.47222e-06
-3.56951e-08
7.45346e-06
-3.6123e-08
7.44068e-06
-2.63001e-08
7.43851e-06
-1.07265e-08
7.44584e-06
4.20802e-09
7.46082e-06
1.33641e-08
7.48078e-06
1.4335e-08
7.16623e-09
7.50396e-06
6.29515e-06
-3.07684e-08
6.30051e-06
-8.44039e-08
6.3055e-06
-9.77445e-08
6.29471e-06
-7.1474e-08
6.28865e-06
-5.57538e-08
6.30216e-06
-4.46518e-08
6.33936e-06
-4.14356e-08
6.39145e-06
-4.9255e-08
6.44392e-06
-5.97836e-08
6.48465e-06
-6.48563e-08
6.50984e-06
-6.08798e-08
6.5226e-06
-4.88881e-08
6.52863e-06
-3.23253e-08
6.5327e-06
-1.47983e-08
6.53735e-06
-4.40408e-10
6.54377e-06
6.93641e-09
6.55041e-06
7.69906e-09
1.58622e-09
6.55599e-06
5.50544e-06
-2.14423e-08
5.52669e-06
-1.05657e-07
5.50433e-06
-7.53879e-08
5.50316e-06
-7.03031e-08
5.54145e-06
-9.40397e-08
5.59386e-06
-9.70631e-08
5.6328e-06
-8.03749e-08
5.6488e-06
-6.52534e-08
5.64747e-06
-5.84562e-08
5.63833e-06
-5.5719e-08
5.62821e-06
-5.0753e-08
5.62016e-06
-4.08363e-08
5.61554e-06
-2.77097e-08
5.61576e-06
-1.50181e-08
5.62188e-06
-6.55767e-09
5.63318e-06
-4.36187e-09
5.64884e-06
-7.96599e-09
-1.64414e-08
5.66687e-06
4.96151e-06
-4.11186e-08
4.93572e-06
-7.98695e-08
4.90848e-06
-4.81444e-08
4.8971e-06
-5.89231e-08
4.89454e-06
-9.14823e-08
4.89339e-06
-9.59148e-08
4.89197e-06
-7.89557e-08
4.88981e-06
-6.30963e-08
4.88695e-06
-5.55918e-08
4.88402e-06
-5.27886e-08
4.88283e-06
-4.95631e-08
4.88579e-06
-4.38e-08
4.89427e-06
-3.61829e-08
4.90751e-06
-2.82608e-08
4.92272e-06
-2.17693e-08
4.93618e-06
-1.78252e-08
4.94484e-06
-1.66265e-08
-1.8593e-08
4.947e-06
4.09025e-06
4.01038e-06
3.96224e-06
3.90332e-06
3.81183e-06
3.71592e-06
3.63696e-06
3.57387e-06
3.51828e-06
3.46549e-06
3.41592e-06
3.37212e-06
3.33594e-06
3.30768e-06
3.28591e-06
3.26809e-06
3.25146e-06
3.23287e-06
-2.60128e-07
2.60128e-07
-4.91286e-07
2.31157e-07
-6.63976e-07
1.7269e-07
-7.37145e-07
7.31691e-08
-6.97422e-07
-3.97231e-08
-5.69285e-07
-1.28137e-07
-3.84994e-07
-1.84291e-07
-1.85249e-07
-1.99745e-07
-5.05206e-09
-1.80197e-07
7.71059e-08
-8.2158e-08
8.34055e-08
-6.29954e-09
1.95674e-07
-1.12269e-07
4.12039e-07
-2.16365e-07
5.45422e-07
-1.33383e-07
6.85706e-07
-1.40284e-07
9.23165e-07
-2.37458e-07
1.21308e-06
-2.89914e-07
1.47503e-06
-2.61955e-07
1.662e-06
-1.8697e-07
1.79185e-06
-1.29848e-07
1.91373e-06
-1.21877e-07
2.05026e-06
-1.36527e-07
2.1766e-06
-1.26341e-07
2.25114e-06
-7.45432e-08
2.26417e-06
-1.30274e-08
2.23127e-06
3.29013e-08
2.17429e-06
5.69732e-08
2.09957e-06
7.47245e-08
2.01406e-06
8.55059e-08
1.91936e-06
9.47047e-08
1.79291e-06
1.26452e-07
1.576e-06
2.16909e-07
1.21734e-06
3.5866e-07
7.35543e-07
4.81794e-07
1.27892e-07
6.07651e-07
-6.75667e-07
8.03559e-07
-1.59828e-06
9.22617e-07
-2.47758e-06
8.79297e-07
-3.28953e-06
8.11951e-07
-4.04309e-06
7.53558e-07
-4.74109e-06
6.98003e-07
-5.39801e-06
6.56912e-07
-6.01318e-06
6.1517e-07
-6.58815e-06
5.74971e-07
-7.12675e-06
5.38608e-07
-7.62969e-06
5.02938e-07
-8.09896e-06
4.69265e-07
-8.53517e-06
4.36209e-07
-8.93741e-06
4.02248e-07
-9.304e-06
3.66586e-07
-9.6322e-06
3.28205e-07
-9.91891e-06
2.86703e-07
-1.01606e-05
2.41672e-07
-1.03531e-05
1.92529e-07
-1.0492e-05
1.38904e-07
-1.0573e-05
8.09899e-08
-1.05926e-05
1.95898e-08
-1.05498e-05
-4.28147e-08
-1.04414e-05
-1.0833e-07
-1.02649e-05
-1.76511e-07
-1.00176e-05
-2.47352e-07
-9.69657e-06
-3.21018e-07
-9.29977e-06
-3.96798e-07
-8.82554e-06
-4.74222e-07
-8.27325e-06
-5.5229e-07
-7.64355e-06
-6.29708e-07
-6.93858e-06
-7.04966e-07
-6.16199e-06
-7.76591e-07
-5.31827e-06
-8.43722e-07
-4.41169e-06
-9.06576e-07
-3.44534e-06
-9.6635e-07
-2.42225e-06
-1.02309e-06
-1.35196e-06
-1.0703e-06
-2.58015e-07
-1.09394e-06
8.38921e-07
-1.09694e-06
1.81677e-06
-9.7785e-07
2.6156e-06
-7.98828e-07
3.06232e-06
-4.46719e-07
3.01896e-06
4.33539e-08
2.42816e-06
5.90809e-07
1.14018e-06
1.28798e-06
-4.98249e-09
1.14516e-06
-6.2903e-07
6.24048e-07
-9.6478e-07
3.35749e-07
-7.49278e-07
-2.15502e-07
-1.74457e-07
-5.74821e-07
3.55625e-07
-5.30082e-07
7.01845e-07
-3.46221e-07
9.19328e-07
-2.17482e-07
1.04758e-06
-1.28257e-07
1.15455e-06
-1.06961e-07
1.29148e-06
-1.36935e-07
1.48735e-06
-1.95865e-07
1.7536e-06
-2.66257e-07
2.09581e-06
-3.42211e-07
2.50906e-06
-4.1325e-07
2.97465e-06
-4.65585e-07
3.43468e-06
-4.60032e-07
3.84331e-06
-4.0863e-07
4.04499e-06
-2.01682e-07
3.92975e-06
1.15241e-07
3.48046e-06
4.49293e-07
2.6736e-06
8.0686e-07
1.72482e-06
9.48776e-07
1.32618e-06
3.98639e-07
1.42536e-06
-9.91817e-08
3.07806e-07
1.11756e-06
-2.53056e-06
2.83837e-06
-5.33839e-06
2.80783e-06
-7.74283e-06
2.40444e-06
-9.68689e-06
1.94406e-06
-1.12138e-05
1.52691e-06
-1.2365e-05
1.15122e-06
-1.31919e-05
8.26832e-07
-1.37304e-05
5.38523e-07
-1.40191e-05
2.88722e-07
-1.40871e-05
6.8007e-08
-1.39758e-05
-1.11268e-07
-1.37051e-05
-2.70753e-07
-1.32877e-05
-4.17379e-07
-1.27339e-05
-5.53784e-07
-1.20552e-05
-6.78767e-07
-1.12663e-05
-7.88814e-07
-1.03875e-05
-8.78797e-07
-9.44277e-06
-9.44772e-07
-8.45593e-06
-9.86839e-07
-7.44497e-06
-1.01096e-06
-6.41991e-06
-1.02506e-06
-5.38412e-06
-1.03579e-06
-4.34167e-06
-1.04245e-06
-3.3104e-06
-1.03127e-06
-2.32208e-06
-9.88321e-07
-1.41044e-06
-9.11643e-07
-6.01896e-07
-8.08543e-07
9.39808e-08
-6.95877e-07
7.04959e-07
-6.10978e-07
1.23571e-06
-5.30754e-07
1.71257e-06
-4.7686e-07
2.159e-06
-4.46426e-07
2.596e-06
-4.37003e-07
3.04076e-06
-4.44758e-07
3.50384e-06
-4.63076e-07
3.98771e-06
-4.83879e-07
4.48648e-06
-4.98769e-07
4.98664e-06
-5.00158e-07
5.4699e-06
-4.83264e-07
5.91797e-06
-4.48062e-07
6.3141e-06
-3.96135e-07
6.64556e-06
-3.31455e-07
6.9059e-06
-2.60346e-07
7.08848e-06
-1.82581e-07
7.1873e-06
-9.88129e-08
7.20158e-06
-1.42831e-08
7.13372e-06
6.78635e-08
6.98335e-06
1.50369e-07
6.76865e-06
2.14701e-07
6.50994e-06
2.58709e-07
6.18345e-06
3.26482e-07
5.77566e-06
4.07795e-07
5.28649e-06
4.89167e-07
4.6138e-06
6.72695e-07
3.70121e-06
9.1259e-07
2.76132e-06
9.39888e-07
2.0669e-06
6.94421e-07
1.71976e-06
3.47135e-07
1.64812e-06
7.16482e-08
1.72144e-06
-7.33265e-08
1.83038e-06
-1.08935e-07
1.90841e-06
-7.80351e-08
1.94222e-06
-3.38057e-08
1.9465e-06
-4.2799e-09
1.94063e-06
5.86515e-09
1.92885e-06
1.17787e-08
1.91182e-06
1.70355e-08
1.88304e-06
2.87827e-08
1.85111e-06
3.19252e-08
1.79876e-06
5.23502e-08
1.75355e-06
4.52078e-08
1.64968e-06
1.03876e-07
1.02529e-07
1.54715e-06
-1.37482e-07
3.9761e-07
-2.91646e-07
3.85322e-07
-4.04349e-07
2.85393e-07
-4.24484e-07
9.33037e-08
-3.51372e-07
-1.12835e-07
-1.95387e-07
-2.84122e-07
6.68578e-09
-3.86363e-07
2.14655e-07
-4.07714e-07
4.07437e-07
-3.72979e-07
5.65382e-07
-2.40103e-07
6.55034e-07
-9.59516e-08
6.76627e-07
-1.33862e-07
6.32777e-07
-1.72515e-07
5.79485e-07
-8.00911e-08
6.36633e-07
-1.97432e-07
7.65491e-07
-3.66317e-07
8.53512e-07
-3.77935e-07
9.07511e-07
-3.15955e-07
9.73823e-07
-2.53282e-07
1.0354e-06
-1.91426e-07
1.06413e-06
-1.5061e-07
1.05553e-06
-1.27926e-07
1.0143e-06
-8.51117e-08
9.51116e-07
-1.13546e-08
8.73483e-07
6.46053e-08
7.61532e-07
1.44853e-07
5.87489e-07
2.31015e-07
3.45337e-07
3.16877e-07
3.5407e-08
3.95436e-07
-3.49324e-07
4.79436e-07
-8.29236e-07
6.06364e-07
-1.4135e-06
8.01169e-07
-2.08105e-06
1.02621e-06
-2.81499e-06
1.21574e-06
-3.5442e-06
1.33686e-06
-4.15834e-06
1.4177e-06
-4.66481e-06
1.42909e-06
-5.15536e-06
1.36985e-06
-5.63994e-06
1.29653e-06
-6.10676e-06
1.22038e-06
-6.55901e-06
1.15025e-06
-6.98953e-06
1.08744e-06
-7.40229e-06
1.02793e-06
-7.80111e-06
9.73789e-07
-8.18572e-06
9.23223e-07
-8.55806e-06
8.75273e-07
-8.91725e-06
8.28458e-07
-9.26113e-06
7.80089e-07
-9.58731e-06
7.28431e-07
-9.89271e-06
6.71982e-07
-1.01739e-05
6.09437e-07
-1.04272e-05
5.39915e-07
-1.06481e-05
4.62595e-07
-1.08324e-05
3.76842e-07
-1.09759e-05
2.82372e-07
-1.10741e-05
1.7925e-07
-1.11223e-05
6.78055e-08
-1.11123e-05
-5.28025e-08
-1.10392e-05
-1.81447e-07
-1.08983e-05
-3.17408e-07
-1.06863e-05
-4.59407e-07
-1.04008e-05
-6.0647e-07
-1.004e-05
-7.57606e-07
-9.60299e-06
-9.11254e-07
-9.09004e-06
-1.06524e-06
-8.50312e-06
-1.21662e-06
-7.84625e-06
-1.36184e-06
-7.12538e-06
-1.49746e-06
-6.34757e-06
-1.62153e-06
-5.51923e-06
-1.73492e-06
-4.64438e-06
-1.8412e-06
-3.72425e-06
-1.94322e-06
-2.75668e-06
-2.03787e-06
-1.73967e-06
-2.11095e-06
-7.15395e-07
-2.12121e-06
2.84788e-07
-1.97803e-06
1.16212e-06
-1.67616e-06
1.78351e-06
-1.06811e-06
2.03756e-06
-2.10694e-07
1.94167e-06
6.86693e-07
1.26764e-06
1.96201e-06
1.77472e-07
2.23533e-06
-6.90524e-07
1.49204e-06
-1.06081e-06
7.06034e-07
-1.02452e-06
-2.51791e-07
-6.83389e-07
-9.15951e-07
-3.0436e-07
-9.09111e-07
-2.59326e-08
-6.24648e-07
1.59172e-07
-4.02587e-07
2.89165e-07
-2.58249e-07
3.977e-07
-2.15496e-07
5.3995e-07
-2.79185e-07
7.58353e-07
-4.14268e-07
1.0757e-06
-5.83607e-07
1.49427e-06
-7.6078e-07
1.99639e-06
-9.15365e-07
2.53962e-06
-1.00882e-06
3.09304e-06
-1.01345e-06
3.56791e-06
-8.83506e-07
3.80487e-06
-4.38632e-07
3.73183e-06
1.88274e-07
3.34756e-06
8.3356e-07
2.72231e-06
1.43211e-06
1.87771e-06
1.79338e-06
8.62672e-07
1.41368e-06
-1.4312e-06
2.19469e-06
-4.44986e-06
4.13622e-06
-6.67862e-06
5.06713e-06
-8.43576e-06
4.56497e-06
-9.89958e-06
3.86826e-06
-1.10566e-05
3.10107e-06
-1.19734e-05
2.44368e-06
-1.26692e-05
1.84702e-06
-1.31734e-05
1.33103e-06
-1.34953e-05
8.60435e-07
-1.36506e-05
4.44076e-07
-1.36502e-05
6.76261e-08
-1.34984e-05
-2.63107e-07
-1.32021e-05
-5.67053e-07
-1.27687e-05
-8.50817e-07
-1.22035e-05
-1.11891e-06
-1.15164e-05
-1.36593e-06
-1.07211e-05
-1.58407e-06
-9.83835e-06
-1.76156e-06
-8.89229e-06
-1.89083e-06
-7.90786e-06
-1.97128e-06
-6.90315e-06
-2.01567e-06
-5.88661e-06
-2.0416e-06
-4.85933e-06
-2.06307e-06
-3.82016e-06
-2.08163e-06
-2.78305e-06
-2.06837e-06
-1.78471e-06
-1.98666e-06
-8.64206e-07
-1.83215e-06
-5.67014e-08
-1.61605e-06
6.53242e-07
-1.40582e-06
1.25756e-06
-1.2153e-06
1.78728e-06
-1.06047e-06
2.26555e-06
-9.55135e-07
2.71614e-06
-8.97017e-07
3.15975e-06
-8.80613e-07
3.61317e-06
-8.9817e-07
4.08779e-06
-9.37702e-07
4.58783e-06
-9.83918e-07
5.10856e-06
-1.0195e-06
5.63702e-06
-1.02861e-06
6.15549e-06
-1.00174e-06
6.64461e-06
-9.37178e-07
7.08812e-06
-8.39643e-07
7.47393e-06
-7.17267e-07
7.78996e-06
-5.76378e-07
8.0282e-06
-4.20821e-07
8.18531e-06
-2.55918e-07
8.25468e-06
-8.36619e-08
8.21509e-06
1.07454e-07
8.05942e-06
3.06039e-07
7.79979e-06
4.74338e-07
7.49728e-06
5.61212e-07
7.22495e-06
5.98814e-07
6.98462e-06
6.48127e-07
6.76285e-06
7.10935e-07
6.56407e-06
8.71472e-07
6.31942e-06
1.15724e-06
5.94936e-06
1.30996e-06
5.47954e-06
1.16424e-06
5.02433e-06
8.02348e-07
4.66731e-06
4.28665e-07
4.42662e-06
1.67366e-07
4.24e-06
7.7681e-08
4.03202e-06
1.29943e-07
3.78949e-06
2.08729e-07
3.55811e-06
2.27099e-07
3.3821e-06
1.81877e-07
3.26029e-06
1.33592e-07
3.17276e-06
1.04556e-07
3.09742e-06
1.04131e-07
3.03353e-06
9.58134e-08
2.97572e-06
1.10161e-07
2.92691e-06
9.40197e-08
2.89191e-06
1.3887e-07
1.38038e-07
2.8564e-06
9.36095e-08
3.04e-07
1.03082e-07
3.75849e-07
1.31895e-07
2.5658e-07
2.238e-07
1.39918e-09
3.87271e-07
-2.76306e-07
5.8222e-07
-4.79071e-07
7.79659e-07
-5.83802e-07
9.673e-07
-5.95355e-07
1.13938e-06
-5.45063e-07
1.33959e-06
-4.40311e-07
1.53555e-06
-2.9191e-07
1.60262e-06
-2.00929e-07
1.49094e-06
-6.08386e-08
1.2672e-06
1.43649e-07
9.46188e-07
1.23583e-07
6.44366e-07
-6.44951e-08
4.18712e-07
-1.52281e-07
2.57371e-07
-1.54613e-07
1.57738e-07
-1.5365e-07
6.75822e-08
-1.0127e-07
-5.42349e-08
-2.87932e-08
-2.20239e-07
3.80784e-08
-4.25998e-07
1.20647e-07
-6.5549e-07
2.18138e-07
-9.10981e-07
3.20096e-07
-1.18703e-06
4.20898e-07
-1.47937e-06
5.23355e-07
-1.80063e-06
6.38142e-07
-2.18132e-06
7.76127e-07
-2.64484e-06
9.42955e-07
-3.16956e-06
1.13109e-06
-3.68831e-06
1.31992e-06
-4.1466e-06
1.48449e-06
-4.53632e-06
1.60546e-06
-4.874e-06
1.67454e-06
-5.14998e-06
1.69367e-06
-5.38714e-06
1.66625e-06
-5.636e-06
1.61871e-06
-5.90916e-06
1.56969e-06
-6.20934e-06
1.52055e-06
-6.53458e-06
1.47549e-06
-6.87982e-06
1.43268e-06
-7.24278e-06
1.39089e-06
-7.61915e-06
1.35015e-06
-8.00378e-06
1.30785e-06
-8.3912e-06
1.2627e-06
-8.77569e-06
1.21295e-06
-9.15216e-06
1.15655e-06
-9.51577e-06
1.09205e-06
-9.86162e-06
1.01782e-06
-1.01845e-05
9.32323e-07
-1.04788e-05
8.34192e-07
-1.07386e-05
7.22372e-07
-1.09579e-05
5.96144e-07
-1.11305e-05
4.55027e-07
-1.12505e-05
2.99196e-07
-1.13125e-05
1.29877e-07
-1.13124e-05
-5.29095e-08
-1.12454e-05
-2.48472e-07
-1.11103e-05
-4.52548e-07
-1.0905e-05
-6.64686e-07
-1.0628e-05
-8.8347e-07
-1.02786e-05
-1.10696e-06
-9.85746e-06
-1.33241e-06
-9.36652e-06
-1.55618e-06
-8.80992e-06
-1.77322e-06
-8.19473e-06
-1.97703e-06
-7.5316e-06
-2.1606e-06
-6.83431e-06
-2.31881e-06
-6.11733e-06
-2.4519e-06
-5.39059e-06
-2.56793e-06
-4.65324e-06
-2.68057e-06
-3.89269e-06
-2.79842e-06
-3.09631e-06
-2.90733e-06
-2.26213e-06
-2.95538e-06
-1.38244e-06
-2.85773e-06
-5.58553e-07
-2.50005e-06
1.73533e-07
-1.8002e-06
6.80236e-07
-7.17397e-07
9.38899e-07
4.28029e-07
8.17661e-07
2.08324e-06
2.31095e-07
2.8219e-06
-4.63019e-07
2.18616e-06
-9.06691e-07
1.14971e-06
-1.03572e-06
-1.22766e-07
-9.23066e-07
-1.0286e-06
-7.0912e-07
-1.12306e-06
-5.41278e-07
-7.9249e-07
-4.22912e-07
-5.20953e-07
-2.76382e-07
-4.04779e-07
-6.42792e-08
-4.27599e-07
2.22834e-07
-5.66298e-07
5.80345e-07
-7.71779e-07
1.00404e-06
-1.0073e-06
1.49441e-06
-1.25115e-06
2.04091e-06
-1.46186e-06
2.62816e-06
-1.59606e-06
3.23767e-06
-1.62297e-06
3.7335e-06
-1.37934e-06
3.92815e-06
-6.33274e-07
3.63505e-06
4.81373e-07
2.95277e-06
1.51584e-06
2.06966e-06
2.31522e-06
9.20483e-07
2.94256e-06
-1.06523e-06
3.39939e-06
-3.87381e-06
5.00327e-06
-6.21869e-06
6.48109e-06
-7.54077e-06
6.38921e-06
-8.56693e-06
5.59113e-06
-9.50933e-06
4.81066e-06
-1.03981e-05
3.98982e-06
-1.12021e-05
3.24774e-06
-1.18689e-05
2.51377e-06
-1.23653e-05
1.82747e-06
-1.26784e-05
1.17347e-06
-1.28144e-05
5.80105e-07
-1.27794e-05
3.26539e-08
-1.26064e-05
-4.361e-07
-1.22997e-05
-8.7382e-07
-1.18651e-05
-1.28536e-06
-1.1307e-05
-1.67703e-06
-1.06313e-05
-2.04164e-06
-9.85134e-06
-2.36402e-06
-8.98886e-06
-2.62405e-06
-8.07103e-06
-2.80866e-06
-7.12582e-06
-2.91649e-06
-6.1735e-06
-2.96799e-06
-5.21903e-06
-2.99606e-06
-4.25489e-06
-3.02721e-06
-3.26604e-06
-3.07048e-06
-2.25537e-06
-3.07904e-06
-1.26099e-06
-2.98104e-06
-3.43888e-07
-2.74925e-06
4.56604e-07
-2.41654e-06
1.12543e-06
-2.07465e-06
1.67996e-06
-1.76983e-06
2.15679e-06
-1.5373e-06
2.58699e-06
-1.38534e-06
2.99716e-06
-1.30718e-06
3.40901e-06
-1.29246e-06
3.83915e-06
-1.32831e-06
4.29869e-06
-1.39724e-06
4.79096e-06
-1.47619e-06
5.30987e-06
-1.5384e-06
5.84046e-06
-1.55921e-06
6.36277e-06
-1.52405e-06
6.85721e-06
-1.43162e-06
7.30795e-06
-1.29039e-06
7.70525e-06
-1.11456e-06
8.04833e-06
-9.19465e-07
8.33881e-06
-7.11292e-07
8.5679e-06
-4.85014e-07
8.73093e-06
-2.4669e-07
8.84965e-06
-1.12632e-08
8.90077e-06
2.54914e-07
8.76194e-06
6.13174e-07
8.34611e-06
9.77042e-07
7.77236e-06
1.17256e-06
7.24815e-06
1.17234e-06
6.87874e-06
1.08034e-06
6.69409e-06
1.05613e-06
6.65861e-06
1.19271e-06
6.63324e-06
1.33533e-06
6.51158e-06
1.2859e-06
6.27042e-06
1.04351e-06
5.94588e-06
7.53201e-07
5.60301e-06
5.1024e-07
5.31366e-06
3.67031e-07
5.10411e-06
3.39497e-07
4.93042e-06
3.82411e-07
4.73112e-06
4.26405e-07
4.4774e-06
4.35593e-07
4.20249e-06
4.08501e-07
3.95446e-06
3.52592e-07
3.75984e-06
2.98745e-07
3.61336e-06
2.42301e-07
3.50823e-06
2.15289e-07
3.42259e-06
1.79658e-07
3.36765e-06
1.9381e-07
1.87955e-07
3.31773e-06
1.14022e-07
1.89978e-07
2.93024e-07
1.96848e-07
5.85729e-07
-3.61255e-08
9.22404e-07
-3.35276e-07
1.21616e-06
-5.70067e-07
1.44688e-06
-7.09787e-07
1.61812e-06
-7.55044e-07
1.74316e-06
-7.20392e-07
1.81837e-06
-6.20272e-07
1.84922e-06
-4.71159e-07
1.84755e-06
-2.90245e-07
1.73972e-06
-9.3095e-08
1.59897e-06
7.99129e-08
1.4488e-06
2.93817e-07
1.1185e-06
4.53883e-07
7.02722e-07
3.51281e-07
3.56254e-07
1.94187e-07
5.77437e-08
1.43897e-07
-2.49831e-07
1.53925e-07
-5.59327e-07
2.08227e-07
-8.49432e-07
2.61312e-07
-1.1421e-06
3.30743e-07
-1.43665e-06
4.15204e-07
-1.72142e-06
5.02905e-07
-2.00128e-06
5.99955e-07
-2.29147e-06
7.11084e-07
-2.61024e-06
8.42125e-07
-2.9661e-06
9.9401e-07
-3.34975e-06
1.15977e-06
-3.73558e-06
1.32878e-06
-4.09252e-06
1.48803e-06
-4.39579e-06
1.62319e-06
-4.63675e-06
1.72545e-06
-4.82665e-06
1.79537e-06
-4.98997e-06
1.83787e-06
-5.15004e-06
1.85374e-06
-5.33388e-06
1.85008e-06
-5.55709e-06
1.84193e-06
-5.82228e-06
1.83487e-06
-6.12794e-06
1.82621e-06
-6.46786e-06
1.81541e-06
-6.83544e-06
1.80026e-06
-7.22373e-06
1.77918e-06
-7.6244e-06
1.75083e-06
-8.03038e-06
1.71383e-06
-8.43538e-06
1.66771e-06
-8.83409e-06
1.61166e-06
-9.22208e-06
1.54454e-06
-9.59483e-06
1.46479e-06
-9.94733e-06
1.37033e-06
-1.0274e-05
1.25902e-06
-1.05687e-05
1.1289e-06
-1.08248e-05
9.78466e-07
-1.10357e-05
8.06979e-07
-1.11949e-05
6.14306e-07
-1.12964e-05
4.00652e-07
-1.13333e-05
1.66781e-07
-1.13028e-05
-8.34263e-08
-1.12068e-05
-3.44414e-07
-1.10421e-05
-6.1733e-07
-1.08085e-05
-8.98249e-07
-1.05076e-05
-1.18434e-06
-1.01417e-05
-1.47292e-06
-9.71287e-06
-1.76121e-06
-9.22374e-06
-2.04531e-06
-8.67782e-06
-2.31914e-06
-8.08144e-06
-2.57341e-06
-7.44625e-06
-2.79579e-06
-6.79107e-06
-2.97399e-06
-6.14098e-06
-3.102e-06
-5.52119e-06
-3.18772e-06
-4.94674e-06
-3.25502e-06
-4.41394e-06
-3.33122e-06
-3.89691e-06
-3.42436e-06
-3.34927e-06
-3.50303e-06
-2.72594e-06
-3.48106e-06
-2.00968e-06
-3.21631e-06
-1.25889e-06
-2.55099e-06
-5.80867e-07
-1.39542e-06
-1.01632e-07
-5.1206e-08
2.14259e-07
1.76735e-06
1.7546e-07
2.8607e-06
-6.48513e-08
2.42647e-06
-2.79712e-07
1.36457e-06
-4.33233e-07
3.07554e-08
-4.88043e-07
-9.73791e-07
-4.37777e-07
-1.17332e-06
-3.59342e-07
-8.70925e-07
-2.68227e-07
-6.12068e-07
-1.1701e-07
-5.55996e-07
1.03776e-07
-6.48385e-07
3.84481e-07
-8.47003e-07
7.21304e-07
-1.1086e-06
1.11833e-06
-1.40432e-06
1.58343e-06
-1.71626e-06
2.12235e-06
-2.00078e-06
2.74728e-06
-2.22099e-06
3.42732e-06
-2.30301e-06
3.96809e-06
-1.92011e-06
4.07712e-06
-7.42304e-07
3.55717e-06
1.00132e-06
2.57747e-06
2.49554e-06
1.32031e-06
3.57238e-06
-2.82733e-07
4.5456e-06
-2.56885e-06
5.68551e-06
-4.89325e-06
7.32767e-06
-6.36623e-06
7.95407e-06
-7.22985e-06
7.25283e-06
-8.08261e-06
6.4439e-06
-8.91706e-06
5.64511e-06
-9.73233e-06
4.80509e-06
-1.04467e-05
3.96214e-06
-1.10192e-05
3.08625e-06
-1.14197e-05
2.22795e-06
-1.16456e-05
1.39934e-06
-1.17062e-05
6.40691e-07
-1.16246e-05
-4.89277e-08
-1.14207e-05
-6.39935e-07
-1.11041e-05
-1.19047e-06
-1.06752e-05
-1.71428e-06
-1.01309e-05
-2.22124e-06
-9.47123e-06
-2.70134e-06
-8.70646e-06
-3.1288e-06
-7.86047e-06
-3.47003e-06
-6.967e-06
-3.70213e-06
-6.06278e-06
-3.82071e-06
-5.17843e-06
-3.85233e-06