/*--------------------------------*- C++ -*----------------------------------*\
  =========                 |
  \\      /  F ield         | OpenFOAM: The Open Source CFD Toolbox
   \\    /   O peration     | Website:  https://openfoam.org
    \\  /    A nd           | Version:  9
     \\/     M anipulation  |
\*---------------------------------------------------------------------------*/
FoamFile
{
    format      ascii;
    class       volScalarField;
    location    "0.089";
    object      pPrime2Mean;
}
// * * * * * * * * * * * * * * * * * * * * * * * * * * * * * * * * * * * * * //

dimensions      [0 4 -4 0 0 0 0];

internalField   nonuniform List<scalar> 
12225
(
290790
288091
284934
281506
277921
274265
270592
266937
263321
259753
256237
252768
249334
245914
242476
238963
235258
231091
290823
288120
284956
281523
277936
274277
270603
266947
263330
259764
256249
252781
249350
245936
242507
239013
235360
231385
290920
288185
285006
281563
277968
274305
270627
266969
263352
259786
256274
252811
249386
245984
242575
239120
235559
231837
291060
288292
285089
281629
278022
274350
270667
267007
263389
259824
256316
252859
249447
246062
242685
239288
235842
232365
291277
288450
285211
281726
278102
274418
270727
267062
263443
259880
256377
252931
249534
246175
242839
239513
236195
232932
291590
288668
285379
281860
278212
274511
270808
267137
263517
259957
256461
253027
249651
246324
243039
239793
236601
233518
291992
288953
285600
282037
278356
274633
270916
267237
263614
260057
256570
253153
249801
246513
243284
240122
237049
234116
292415
289311
285885
282264
278542
274790
271055
267365
263738
260185
256708
253310
249987
246741
243574
240495
237530
234721
292983
289763
286241
282549
278775
274987
271227
267524
263893
260343
256878
253501
250211
247010
243904
240906
238038
235332
293668
290316
286678
282898
279060
275227
271438
267718
264080
260534
257082
253728
250472
247318
244274
241351
238568
235948
294526
290991
287210
283321
279405
275516
271692
267950
264305
260761
257323
253992
250771
247665
244679
241825
239116
236569
295435
291735
287792
283783
279779
275831
271966
268202
264546
261004
257578
254269
251081
248015
245080
242283
239633
237142
296616
292599
288457
284306
280202
276185
272276
268485
264817
261275
257861
254573
251415
248389
245500
242754
240156
237713
298180
293749
289333
284990
280754
276646
272678
268851
265167
261624
258221
254957
251832
248847
246005
243310
240763
238367
300176
295254
290471
285876
281465
277240
273194
269322
265614
262067
258675
255434
252342
249399
246604
243958
241460
239108
302858
297212
291922
286990
282354
277981
273841
269910
266174
262618
259234
256016
252956
250053
247303
244702
242248
239936
306354
299594
293646
288308
283411
278867
274617
270621
266849
263282
259905
256706
253676
250808
248097
245537
243121
240845
309975
302071
295452
289703
284544
279834
275479
271421
267617
264040
260669
257488
254485
251649
248972
246446
244063
241815
312535
303808
296780
290802
285507
280711
276306
272220
268408
264835
261478
258319
255342
252535
249888
247391
245035
242812
310937
303325
296767
291015
285842
281124
276770
272723
268943
265400
262071
258938
255986
253204
250579
248103
245766
243560
308970
302226
296213
290789
285821
281232
276965
272979
269244
265736
262435
259327
256396
253632
251024
248562
246238
244042
307072
301057
295529
290421
285659
281207
277034
273113
269426
265953
262679
259593
256680
253932
251337
248886
246570
244383
305367
299980
294868
290035
285458
281129
277040
273179
269533
266092
262842
259774
256876
254140
251555
249112
246804
244622
303968
299076
294305
289697
285269
281042
277021
273208
269597
266181
262950
259896
257010
254283
251705
249269
246966
244788
302870
298378
293866
289429
285115
280964
276997
273220
269635
266237
263021
259978
257101
254380
251808
249376
247076
244901
302044
297859
293544
289231
284999
280904
276974
273224
269657
266273
263067
260032
257160
254445
251876
249447
247150
244977
301447
297495
293321
289095
284919
280861
276957
273224
269670
266295
263096
260066
257199
254486
251920
249493
247197
245025
300994
297256
293180
289009
284868
280834
276946
273224
269678
266309
263113
260087
257221
254511
251946
249521
247226
245055
300739
297123
293102
288962
284841
280819
276939
273224
269682
266316
263122
260097
257234
254524
251961
249536
247241
245071
300637
297067
293069
288942
284829
280813
276936
273223
269683
266318
263126
260102
257239
254529
251966
249542
247248
245077
195673
195656
195622
195574
195511
195433
195340
195230
195103
194956
194789
194603
194397
194172
193929
193666
193384
193082
192762
192422
192065
191689
191296
190885
190457
190012
189551
189071
188575
188062
187534
186990
186431
185856
185265
184660
184042
183415
182779
182133
181476
180807
180121
179420
178701
177966
177219
176461
175691
174912
174125
173329
172528
171718
170900
170073
169238
168389
167521
166637
165742
164838
163929
163010
162073
161114
160134
159142
158143
157135
156113
155074
154015
152934
151834
150724
149609
148491
147379
146273
145169
144061
142948
141834
140719
139594
138464
137331
136189
135025
133840
132657
131487
130329
129181
128034
126883
125724
124554
123374
122185
120987
119776
118550
117305
116043
114782
113512
112235
110986
109777
108604
107449
106293
105119
103914
102668
101376
100037
98655.5
97239.6
95801.9
94356.4
92916.8
91494.1
90095.8
88724.8
87380.6
86060.5
84760.9
83477.1
82205
80940.6
79680.6
78422.7
77165.5
75908
74650.3
73392.4
72134.7
70877.5
69621.2
68366.1
67112.4
65860.3
64609.9
63361.3
62114.5
60869.5
59626.3
58385
57145.7
55908.6
54674
53442.8
52216.2
50995
49780.1
48572
47371.1
46177.2
44988.8
43805.2
42628.6
41459.7
40297.6
39144
38000.9
36867.1
35742.4
34628.1
33522.5
32426.3
31342.2
30269.8
29210.8
28165.1
27135.5
26126.6
25147.4
195736
195719
195687
195638
195575
195498
195404
195294
195164
195016
194848
194661
194456
194232
193989
193727
193445
193143
192822
192481
192121
191743
191346
190932
190501
190053
189588
189107
188609
188095
187567
187023
186466
185892
185302
184698
184079
183451
182811
182161
181499
180824
180136
179432
178713
177976
177232
176478
175710
174930
174139
173340
172536
171727
170911
170084
169248
168399
167535
166657
165770
164867
163953
163026
162081
161121
160143
159151
158153
157145
156123
155084
154025
152940
151836
150723
149600
148480
147366
146261
145164
144064
142956
141843
140730
139608
138474
137330
136177
135009
133831
132658
131496
130345
129199
128053
126902
125740
124568
123385
122194
120994
119783
118557
117317
116053
114783
113509
112244
111009
109812
108644
107490
106333
105157
103949
102700
101405
100063
98678.7
97260.3
95819.9
94371.5
92928.9
91503.7
90103.2
88730.6
87385.3
86064.3
84763.8
83479.5
82206.9
80942.2
79682.1
78424.1
77166.8
75909.4
74651.7
73393.9
72136.2
70879.1
69622.8
68367.8
67114.1
65862.1
64611.7
63363.2
62116.4
60871.5
59628.4
58387.3
57148.3
55911.6
54677.5
53446.8
52220.7
51000.1
49785.5
48577.4
47376.1
46180.9
44991.1
43806.9
42630.9
41462.7
40300.3
39146.6
38003.5
36869.5
35745.1
34631.3
33525.9
32430.3
31346
30273.5
29213.9
28166.9
27135.7
26124.7
25140.4
195880
195864
195832
195784
195719
195638
195541
195427
195295
195145
194977
194793
194590
194366
194122
193858
193574
193270
192946
192601
192237
191853
191452
191032
190595
190141
189672
189186
188685
188169
187638
187093
186534
185960
185371
184767
184150
183521
182881
182230
181565
180888
180196
179492
178776
178044
177298
176539
175765
174981
174187
173387
172583
171773
170955
170127
169289
168440
167581
166709
165823
164918
163996
163058
162105
161140
160161
159172
158171
157161
156136
155092
154027
152940
151835
150720
149598
148477
147366
146263
145169
144077
142976
141867
140754
139629
138485
137329
136164
134996
133828
132667
131514
130368
129226
128082
126931
125769
124595
123409
122215
121012
119798
118569
117326
116060
114785
113516
112268
111048
109861
108698
107545
106388
105211
104001
102750
101453
100109
98722.2
97299.9
95854.6
94400.8
92952.8
91522.7
90118.2
88742.6
87394.9
86072.1
84770.1
83484.6
82211.1
80945.8
79685.4
78427.3
77169.8
75912.4
74654.7
73396.9
72139.3
70882.2
69626
68371
67117.4
65865.5
64615.2
63366.7
62120.1
60875.3
59632.4
58391.5
57152.7
55916.3
54682.6
53452.4
52226.5
51005.7
49790.9
48582.4
47380.4
46184.8
44995.3
43811.9
42635.2
41465.9
40303.9
39151
38008.2
36874.8
35751
34637.3
33532.6
32436.8
31351.8
30278.5
29217.5
28169.3
27136.4
26122
25130.5
196092
196076
196044
195995
195928
195844
195744
195628
195494
195343
195174
194988
194783
194559
194315
194049
193762
193453
193124
192774
192404
192014
191607
191181
190738
190278
189803
189312
188805
188285
187750
187202
186640
186063
185472
184868
184251
183623
182984
182333
181669
180991
180300
179597
178879
178146
177397
176634
175859
175074
174280
173478
172669
171853
171029
170197
169357
168510
167653
166782
165893
164982
164052
163108
162152
161183
160201
159207
158201
157182
156149
155096
154024
152935
151833
150719
149600
148484
147377
146279
145191
144108
143013
141903
140783
139649
138498
137335
136168
135002
133842
132688
131542
130401
129263
128122
126972
125810
124634
123446
122249
121042
119823
118589
117337
116068
114797
113539
112305
111100
109923
108766
107617
106461
105283
104072
102820
101520
100174
98782.9
97355.9
95904.4
94443.4
92987.9
91550.7
90140.4
88760.3
87409.3
86083.9
84779.9
83492.6
82217.8
80951.6
79690.7
78432.2
77174.6
75917.1
74659.4
73401.5
72143.9
70886.9
69630.9
68376
67122.6
65870.7
64620.5
63372.1
62125.6
60880.9
59638.2
58397.5
57158.9
55922.8
54689.4
53459.5
52233.7
51012.8
49797.7
48588.6
47385.8
46189.5
44999.6
43815.9
42639.1
41470.2
40309.3
39156.7
38014.4
36882.1
35759.5
34647
33543.2
32447.6
31362.1
30288
29225.4
28174.4
27138.3
26119.3
25120.8
196377
196360
196325
196272
196203
196117
196013
195893
195756
195602
195430
195241
195034
194807
194560
194290
193998
193684
193349
192992
192616
192220
191806
191373
190924
190458
189976
189478
188966
188440
187902
187350
186784
186206
185614
185009
184391
183762
183122
182470
181808
181133
180444
179742
179023
178287
177533
176763
175979
175186
174384
173574
172759
171940
171113
170280
169441
168593
167734
166860
165966
165050
164119
163175
162219
161249
160263
159263
158247
157216
156168
155104
154024
152933
151835
150729
149618
148509
147407
146313
145229
144151
143058
141946
140817
139674
138518
137353
136187
135025
133868
132720
131579
130444
129310
128172
127024
125862
124684
123492
122292
121080
119855
118613
117354
116084
114819
113572
112352
111160
109994
108846
107701
106547
105369
104156
102901
101600
100251
98856.5
97424.5
95966.4
94497.1
93032.7
91587
90169.5
88783.7
87428.5
86099.8
84793.1
83503.6
82227.1
80959.7
79698
78439.1
77181.3
75923.7
74666
73408.1
72150.6
70893.7
69637.7
68383
67129.7
65877.9
64627.8
63379.5
62133.1
60888.6
59645.9
58405.3
57167
55931.1
54698
53468.2
52242.5
51021.5
49806
48596.4
47393
46195.9
45005.4
43821.2
42643.9
41474.6
40313.5
39161.4
38019.6
36888.5
35767.9
34657.5
33555
32459.8
31374.3
30299.7
29235.7
28182.1
27142.2
26118.1
25112.4
196734
196715
196677
196623
196551
196461
196355
196231
196089
195930
195754
195559
195347
195115
194863
194588
194289
193969
193626
193262
192877
192473
192050
191609
191152
190678
190188
189684
189166
188634
188091
187534
186966
186385
185792
185186
184567
183936
183294
182641
181978
181303
180616
179913
179192
178450
177688
176908
176113
175308
174496
173678
172857
172033
171205
170371
169530
168680
167819
166941
166042
165126
164198
163260
162308
161341
160355
159349
158324
157279
156217
155138
154051
152959
151863
150764
149662
148561
147465
146374
145291
144210
143115
141998
140862
139712
138552
137386
136221
135060
133906
132762
131625
130494
129364
128229
127083
125921
124742
123548
122344
121128
119895
118643
117377
116107
114849
113613
112405
111227
110072
108931
107791
106637
105458
104243
102986
101683
100332
98935.4
97499.4
96035.2
94557.9
93084.3
91629.5
90203.9
88811.7
87451.6
86119.2
84809.5
83517.4
82239
80970.2
79707.5
78448.1
77190
75932.2
74674.5
73416.8
72159.3
70902.6
69646.8
68392.2
67139
65887.4
64637.2
63389
62142.6
60898.2
59655.6
58415.2
57177
55941.2
54708.2
53478.6
52252.9
51031.9
49816.1
48606
47402
46204.3
45013.1
43828.5
42650.6
41480.5
40318.7
39166.1
38024
36893
35773.5
34664.9
33564.3
32470.6
31386.1
30311.7
29247.1
28191.5
27148.3
26119
25106.6
197164
197144
197105
197049
196975
196882
196772
196643
196496
196331
196148
195947
195727
195487
195226
194943
194636
194306
193954
193581
193186
192772
192340
191889
191422
190939
190442
189931
189406
188868
188318
187756
187183
186598
186001
185391
184769
184135
183490
182835
182170
181494
180804
180097
179372
178624
177854
177064
176258
175441
174616
173787
172957
172129
171299
170464
169622
168772
167909
167029
166130
165220
164301
163371
162427
161466
160484
159478
158447
157394
156320
155231
154135
153039
151943
150847
149749
148652
147559
146470
145384
144296
143193
142068
140924
139766
138601
137432
136265
135104
133952
132810
131676
130548
129422
128290
127147
125987
124807
123613
122406
121182
119939
118678
117406
116138
114886
113660
112463
111296
110151
109016
107878
106724
105542
104324
103065
101761
100409
99011.4
97573
96104.4
94620.4
93138.6
91675.4
90241.8
88843
87477.8
86141.5
84828.6
83533.8
82253.3
80983
79719.2
78459.1
77200.6
75942.7
74685.1
73427.6
72170.4
70913.9
69658.3
68404.1
67151.1
65899.5
64649.3
63400.9
62154.5
60910
59667.5
58427.1
57189
55953.4
54720.5
53490.9
52265.2
51044
49828
48617.6
47413.1
46214.7
45023
43837.8
42659.4
41488.4
40325.8
39172.3
38028.9
36896.8
35776.6
34668.5
33569.5
32478.1
31395.4
30322.4
29258.1
28201.5
27155.6
26121.9
25103.8
197675
197654
197614
197555
197477
197380
197263
197127
196973
196800
196609
196398
196167
195916
195644
195350
195033
194693
194331
193947
193542
193118
192675
192215
191739
191247
190742
190223
189691
189145
188586
188015
187433
186840
186235
185619
184992
184354
183707
183050
182383
181705
181012
180301
179571
178816
178038
177237
176419
175588
174749
173908
173069
172236
171403
170568
169727
168877
168015
167136
166242
165342
164434
163514
162579
161626
160650
159647
158616
157559
156480
155385
154283
153182
152083
150984
149885
148787
147693
146603
145511
144412
143297
142160
141004
139838
138665
137490
136319
135155
134002
132860
131729
130603
129479
128350
127210
126053
124875
123681
122470
121239
119985
118714
117440
116174
114928
113709
112521
111363
110226
109096
107959
106802
105616
104394
103132
101826
100475
99077.3
97638.6
96167.7
94679.3
93191.4
91721.3
90281
88876.2
87506.2
86166.2
84850
83552.6
82269.9
80998
79733.1
78472.3
77213.4
75955.4
74697.9
73440.7
72184
70927.8
69672.6
68418.6
67165.9
65914.4
64664.2
63415.6
62168.9
60924.3
59681.7
58441.3
57203.3
55967.9
54734.9
53505.3
52279.6
51058.3
49842
48631.2
47426.2
46227.3
45034.9
43849.1
42670.1
41498.6
40335.2
39180.7
38035.8
36901.6
35779.2
34669.3
33570.3
32480.5
31400.5
30329.9
29267.2
28210.7
27163.3
26126.5
25103.9
198276
198253
198211
198147
198063
197959
197834
197688
197524
197340
197136
196912
196668
196403
196118
195812
195483
195132
194758
194364
193949
193514
193061
192591
192106
191606
191092
190564
190021
189465
188895
188312
187719
187114
186499
185875
185242
184601
183952
183295
182628
181949
181254
180540
179803
179040
178251
177438
176606
175759
174906
174052
173205
172366
171530
170694
169854
169005
168145
167268
166383
165493
164595
163684
162758
161813
160843
159845
158818
157764
156685
155588
154483
153377
152271
151166
150062
148961
147864
146768
145667
144555
143424
142272
141104
139926
138743
137558
136379
135209
134053
132911
131779
130655
129533
128406
127269
126115
124940
123748
122534
121294
120030
118752
117476
116212
114971
113758
112577
111426
110295
109167
108028
106867
105676
104448
103182
101875
100524
99128.5
97690.9
96219.8
94729.6
93238.3
91763.9
90318.7
88909.3
87535.6
86192.3
84873.2
83573.4
82288.6
81015.2
79749.3
78487.7
77228.4
75970.4
74713.1
73456.4
72200.2
70944.6
69690.1
68436.6
67184
65932.6
64682.4
63433.7
62186.7
60941.7
59698.9
58458.3
57220.4
55984.9
54752
53522.2
52296.4
51074.9
49858.3
48647
47441.3
46241.8
45048.7
43862.3
42682.7
41510.6
40346.5
39191.1
38044.9
36908.7
35783.5
34670.4
33569.2
32479.3
31400.8
30332.4
29271.8
28216.9
27169.8
26131.6
25106
198967
198943
198896
198827
198736
198623
198488
198331
198153
197955
197737
197498
197238
196959
196659
196338
195996
195632
195246
194840
194413
193968
193505
193026
192531
192021
191497
190959
190405
189836
189253
188658
188051
187434
186809
186177
185538
184894
184243
183585
182918
182237
181539
180819
180073
179301
178498
177670
176823
175961
175092
174227
173372
172528
171689
170852
170011
169163
168303
167430
166551
165669
164778
163875
162955
162016
161052
160060
159038
157988
156913
155819
154713
153601
152487
151375
150267
149162
148059
146956
145844
144718
143572
142405
141222
140031
138835
137638
136448
135270
134108
132963
131830
130705
129582
128456
127321
126172
125002
123811
122595
121348
120075
118791
117513
116252
115013
113804
112629
111483
110355
109227
108084
106917
105718
104485
103214
101905
100555
99161.8
97726.3
96257
94767.2
93275.6
91799.9
90352.8
88941.2
87564.9
86219.2
84897.7
83595.8
82309.4
81034.5
79767.7
78505.7
77246.3
75988.4
74731.6
73475.5
72220
70965.2
69711.4
68458.4
67206.3
65954.9
64704.6
63455.6
62208.5
60963.1
59719.7
58478.8
57240.8
56005.3
54772.2
53542.2
52316
51094
49876.9
48664.9
47458.7
46258.4
45064.6
43877.4
42697.1
41524.3
40359.6
39203.5
38056.2
36918.4
35790.7
34674.2
33569.8
32477.6
31398.3
30330.8
29271.9
28218.8
27173.1
26135.5
25109
199753
199726
199675
199600
199502
199379
199233
199064
198873
198660
198426
198171
197896
197601
197285
196948
196590
196211
195811
195391
194952
194495
194021
193531
193026
192507
191973
191424
190858
190276
189679
189069
188447
187817
187179
186536
185887
185235
184578
183914
183241
182555
181850
181122
180365
179579
178762
177919
177057
176181
175301
174427
173566
172718
171878
171040
170198
169349
168489
167618
166742
165863
164977
164077
163161
162226
161265
160276
159258
158212
157142
156052
154946
153832
152713
151595
150482
149374
148268
147158
146038
144900
143740
142559
141362
140155
138944
137733
136529
135340
134171
133020
131884
130756
129630
128502
127368
126222
125058
123870
122652
121399
120117
118828
117549
116288
115052
113847
112675
111532
110405
109274
108125
106950
105744
104505
103229
101918
100568
99175.8
97742.9
96276.4
94789.7
93301
91827.5
90381.7
88970.3
87593.2
86246.1
84923.1
83619.7
82332.1
81056.4
79788.9
78526.7
77267.6
76010.3
74754.3
73499.1
72244.4
70990.4
69737.5
68485.3
67233.5
65982.3
64731.7
63482.4
62235
60989.2
59745.2
58503.8
57265.3
56029.6
54796.2
53565.7
52338.9
51116.2
49898.2
48685.3
47478.2
46277.1
45082.4
43894.3
42713.2
41539.6
40374.4
39217.7
38069.6
36930.5
35801
34681.9
33574.2
32478.5
31396.4
30327.3
29268.3
28216.5
27172.6
26136.6
25110.7
200637
200608
200553
200473
200367
200236
200081
199901
199698
199473
199225
198956
198665
198353
198020
197665
197289
196892
196475
196039
195585
195114
194628
194126
193609
193079
192533
191970
191390
190792
190179
189550
188910
188261
187605
186943
186278
185610
184937
184260
183574
182877
182161
181421
180652
179853
179025
178173
177302
176417
175529
174650
173786
172936
172095
171255
170412
169560
168699
167826
166948
166068
165181
164282
163366
162430
161470
160481
159462
158417
157349
156262
155160
154047
152929
151811
150697
149590
148483
147371
146244
145098
143928
142734
141521
140299
139071
137843
136624
135423
134244
133087
131944
130810
129679
128548
127412
126267
125106
123921
122701
121442
120155
118861
117580
116320
115086
113883
112714
111572
110443
109307
108151
106967
105754
104507
103227
101912
100560
99169.5
97739.3
96276.7
94795.7
93313.2
91845.6
90404.3
88995.7
87619.8
86272.7
84949.2
83645.3
82357.3
81081.5
79814.1
78552.1
77293.8
76037.6
74782.7
73528.7
72275.1
71022.1
69770
68518.7
67267.4
66016
64765
63515.1
62267.1
61020.8
59776.3
58534.1
57295
56058.6
54824.6
53593.2
52365.4
51141.8
49922.5
48708.5
47500.2
46298.1
45102.3
43913.2
42731.1
41556.9
40391.1
39233.8
38085.2
36945.3
35814.5
34693.5
33583
32484
31398
30325.2
29264
28211.8
27169
26134.7
25110
201633
201601
201544
201460
201350
201214
201053
200867
200656
200421
200161
199877
199570
199240
198887
198511
198113
197694
197256
196800
196328
195839
195336
194818
194286
193739
193175
192595
191996
191378
190744
190093
189429
188755
188073
187386
186696
186002
185306
184606
183900
183183
182450
181694
180912
180102
179269
178415
177544
176660
175773
174893
174027
173175
172332
171490
170643
169787
168922
168045
167162
166275
165382
164479
163558
162618
161653
160660
159639
158592
157524
156439
155340
154233
153120
152008
150900
149797
148694
147583
146456
145306
144129
142924
141697
140459
139214
137968
136734
135519
134330
133163
132014
130873
129737
128601
127461
126313
125150
123963
122739
121475
120183
118886
117605
116345
115113
113914
112746
111602
110467
109324
108159
106966
105743
104490
103204
101885
100532
99141.2
97714.2
96257.6
94784.9
93312
91853.6
90420.1
89016.9
87644.3
86298.7
84976.1
83673
82385.9
81110.9
79844.5
78583.6
77326.5
76071.8
74818.4
73565.8
72313.1
71061.2
69810.3
68559.9
67309.2
66057.8
64806.2
63555.6
62306.6
61059.4
59813.9
58570.7
57330.5
56092.9
54857.7
53625.1
52396.1
51171.2
49950.5
48734.9
47525.2
46321.8
45124.7
43934.4
42751.4
41576.5
40410.1
39252.4
38103.3
36962.9
35831.3
34709
33596.6
32494.7
31404.8
30327.7
29262.5
28208
27164.4
26130.5
25106.9
202761
202728
202669
202584
202473
202336
202173
201983
201765
201519
201246
200945
200618
200265
199887
199486
199063
198618
198154
197673
197175
196662
196134
195593
195038
194468
193883
193279
192657
192015
191354
190674
189980
189273
188558
187839
187116
186390
185662
184931
184197
183455
182700
181926
181131
180315
179481
178632
177768
176893
176013
175136
174270
173415
172568
171722
170871
170011
169140
168259
167368
166472
165569
164657
163728
162778
161805
160806
159780
158730
157660
156577
155483
154382
153279
152177
151079
149985
148889
147784
146660
145513
144334
143121
141881
140626
139364
138103
136854
135626
134425
133249
132093
130948
129808
128666
127519
126362
125190
123994
122763
121495
120200
118903
117622
116365
115135
113938
112769
111619
110474
109319
108143
106941
105709
104449
103158
101835
100480
99090.9
97668.4
96219.9
94758.3
93298.1
91852.1
90429.1
89034
87666.9
86324.9
85004.8
83704
82419.1
81146.3
79881.7
78622.7
77367.1
76114.1
74862.6
73611.1
72359.7
71108.8
69858.9
68609.4
67359.3
66108.2
64856.1
63604.6
62354.6
61106.3
59859.6
58614.9
57372.9
56133.5
54896.4
53662.1
52431.5
51204.9
49982.5
48765
47553.7
46348.7
45150.2
43958.7
42774.8
41599.1
40432.2
39274.2
38124.9
36984.1
35852
34728.9
33615
32510.9
31417.8
30336.3
29266.5
28208.2
27161.8
26126.5
25102.7
204042
204007
203948
203862
203751
203612
203445
203247
203018
202757
202465
202144
201794
201414
201007
200575
200120
199643
199147
198632
198102
197558
197001
196431
195847
195249
194633
193998
193343
192667
191970
191256
190526
189784
189032
188276
187517
186755
185992
185227
184461
183690
182911
182119
181312
180490
179656
178813
177959
177096
176225
175355
174492
173636
172784
171933
171076
170210
169332
168445
167548
166643
165730
164806
163866
162905
161922
160915
159884
158832
157763
156683
155595
154502
153409
152318
151231
150147
149060
147963
146848
145706
144529
143311
142060
140791
139513
138237
136975
135735
134523
133340
132179
131035
129894
128747
127588
126415
125225
124015
122775
121503
120210
118915
117635
116380
115153
113955
112780
111619
110459
109290
108101
106887
105647
104381
103086
101762
100407
99020
97604.1
96166.2
94718.3
93273.6
91842.6
90432.7
89048
87688.4
86352
85036.6
83739.9
82458.6
81189
79927.3
78670.6
77416.9
76165.6
74915.3
73665
72414.4
71164
69914.6
68666.3
67417.1
66166.2
64914
63662.2
62411.8
61162.4
59914.2
58667.9
57423.7
56181.8
54942.2
53705.4
52472.6
51243.7
50019
48799.4
47586
46379.3
45179.4
43986.7
42801.9
41625.6
40458.4
39300.2
38150.7
37009.8
35877.4
34753.6
33638.6
32532.8
31437
30351.7
29277.5
28214.5
27163.8
26125.3
25099.4
205531
205493
205430
205339
205222
205075
204897
204686
204441
204163
203852
203506
203127
202713
202267
201791
201291
200771
200233
199678
199109
198526
197931
197321
196698
196058
195401
194725
194029
193313
192579
191828
191062
190283
189495
188702
187907
187111
186312
185513
184714
183915
183111
182301
181481
180651
179815
178974
178128
177273
176410
175544
174681
173823
172969
172113
171250
170377
169492
168598
167695
166782
165859
164923
163972
163001
162008
160994
159960
158908
157843
156767
155685
154599
153515
152435
151357
150282
149203
148113
147004
145869
144696
143478
142222
140942
139651
138364
137090
135840
134620
133432
132272
131131
129993
128841
127668
126472
125258
124027
122777
121505
120215
118924
117648
116394
115166
113963
112778
111601
110423
109236
108032
106807
105560
104289
102991
101666
100313
98930.9
97524.1
96099.7
94668.5
93241.8
91828
90433.2
89060.8
87711.1
86382.8
85074.1
83783
82506.5
81240.8
79982.4
78728.4
77476.6
76226.1
74976.1
73725.9
72475.5
71225.4
69976.8
68728.8
67480.2
66230.2
64979.1
63728.4
62478.1
61228.4
59979.2
58731.3
57484.9
56240.3
54997.3
53757.2
52521.1
51289.1
50061.4
48839
47623.4
46414.8
45213.5
44019.8
42834.3
41657.5
40489.9
39331.5
38182
37041
35908.4
34784.1
33668.1
32560.9
31462.8
30374.4
29295.9
28228.2
27172.6
26129.4
25099.7
207154
207112
207039
206936
206804
206641
206446
206218
205952
205649
205306
204921
204495
204030
203529
202998
202443
201871
201284
200684
200068
199441
198802
198149
197481
196799
196100
195385
194651
193898
193129
192344
191545
190735
189916
189092
188267
187442
186616
185789
184964
184139
183313
182483
181649
180811
179969
179124
178276
177422
176561
175696
174829
173965
173105
172243
171374
170495
169604
168705
167797
166878
165948
165003
164041
163061
162062
161045
160010
158960
157898
156827
155750
154670
153594
152521
151450
150379
149303
148214
147107
145974
144804
143592
142339
141059
139763
138469
137189
135932
134706
133515
132356
131218
130085
128930
127742
126523
125285
124035
122776
121503
120219
118934
117661
116407
115174
113961
112761
111566
110369
109164
107946
106711
105457
104181
102882
101557
100206
98830.7
97435.3
96026.9
94614.6
93207.2
91811.6
90432.8
89074.4
87736.7
86418.5
85118.2
83833.7
82562.1
81300.2
80044.5
78792.5
77541.3
76290.5
75040.3
73789.9
72538.1
71287.1
70038.6
68791.6
67544.4
66296
65047.2
63798.8
62551.2
61302.7
60053.7
58804.8
57556.9
56309.3
55062.6
53818.4
52578
51341.8
50110.1
48884.6
47666.4
46456.1
45253.7
44059.3
42873.2
41695.9
40528
39369.2
38219.5
37078.4
35945.6
34820.8
33704.1
32595.5
31495.4
30404
29321.9
28249.6
27188.8
26140.4
25105.5
208761
208710
208621
208495
208337
208147
207924
207664
207365
207021
206630
206191
205707
205180
204619
204030
203424
202805
202174
201531
200876
200209
199530
198838
198133
197414
196680
195932
195168
194387
193590
192779
191956
191122
190280
189434
188587
187741
186894
186048
185202
184358
183512
182666
181818
180968
180117
179264
178407
177548
176683
175814
174941
174069
173199
172327
171450
170564
169668
168764
167852
166930
165995
165044
164076
163091
162090
161073
160040
158994
157936
156868
155795
154720
153647
152576
151505
150431
149352
148261
147151
146018
144853
143648
142405
141131
139839
138547
137267
136005
134775
133580
132418
131279
130144
128985
127787
126553
125298
124037
122772
121500
120221
118942
117670
116414
115174
113949
112735
111525
110312
109091
107860
106616
105355
104074
102772
101446
100099
98731.6
97349.1
95957.4
94563.7
93175.1
91797.2
90434.9
89091.2
87766.6
86459.6
85168
83889.9
82622.2
81362.8
80108.8
78857
77605.2
76352.8
75100.7
73848.1
72595
71343.2
70094.8
68849.3
67604.5
66358.9
65113.8
63869.5
62626
61381.5
60134.6
58886.7
57638.1
56388.1
55137.6
53888.7
52643
51401.7
50165.6
48936.6
47716.1
46504.5
45301.4
44106.6
42920.1
41742.5
40574
39414.5
38264.3
37122.8
35989.7
34864.4
33746.9
32637
31535.1
30441.1
29355.6
28279.1
27213.4
26159.5
25118.9
210356
210292
210176
210014
209813
209575
209302
208992
208640
208244
207798
207301
206755
206168
205549
204912
204265
203607
202938
202259
201568
200866
200152
199426
198688
197937
197174
196399
195610
194807
193990
193160
192319
191468
190608
189745
188881
188018
187154
186291
185429
184569
183708
182846
181984
181122
180260
179396
178529
177660
176787
175911
175031
174149
173267
172382
171494
170600
169699
168791
167875
166949
166010
165055
164085
163100
162100
161085
160057
159015
157960
156896
155824
154750
153677
152603
151528
150448
149362
148266
147152
146018
144855
143659
142427
141164
139882
138597
137320
136058
134824
133625
132457
131310
130168
129002
127797
126555
125294
124029
122763
121495
120221
118947
117676
116416
115168
113933
112707
111483
110257
109024
107781
106527
105258
103972
102666
101341
99998
98639.9
97270.5
95894.7
94518.3
93147.3
91787
90441.6
89113.5
87802.4
86506.3
85222.6
83949.1
82683.9
81425.2
80170.6
78917.6
77663.4
76407.9
75152.8
73897.9
72643.1
71390.8
70143.3
68900.4
67659.4
66418.4
65178.3
63939.5
62701.8
61462.8
60220.4
58975.8
57727.8
56476.3
55222.3
53968.5
52717
51469.9
50229.2
48996.9
47774.5
46562.1
45358.8
44163.9
42977.1
41799.1
40629.7
39469.2
38317.8
37175.3
36041.4
34915.4
33796.9
32685.8
31582
30485.7
29397.1
28316.9
27246.6
26187.5
25141
211958
211871
211719
211506
211242
210935
210590
210209
209790
209331
208826
208273
207674
207035
206370
205695
205015
204324
203622
202909
202184
201449
200704
199947
199180
198402
197615
196817
196008
195186
194351
193505
192649
191783
190910
190033
189155
188277
187399
186521
185645
184771
183896
183021
182146
181271
180396
179521
178643
177763
176880
175995
175106
174214
173319
172421
171521
170617
169710
168798
167878
166947
166004
165047
164077
163094
162096
161085
160061
159023
157971
156909
155839
154764
153687
152609
151528
150441
149348
148244
147126
145989
144828
143637
142415
141165
139895
138620
137350
136091
134856
133652
132476
131319