# vtk DataFile Version 2.0
sampleSurface
ASCII
DATASET POLYDATA
POINTS 502 float
-0.0206 0 -0.0005 -0.0190172 0 -0.0005 -0.0190172 0 0.0005 -0.0206 0
0.0005 -0.0174976 0 -0.0005 -0.0174976 0 0.0005 -0.0160387 0 -0.0005
-0.0160387 0 0.0005 -0.0146381 0 -0.0005 -0.0146381 0 0.0005 -0.0132934
0 -0.0005 -0.0132934 0 0.0005 -0.0120025 0 -0.0005 -0.0120025 0
0.0005 -0.0107632 0 -0.0005 -0.0107632 0 0.0005 -0.00957337 0 -0.0005
-0.00957337 0 0.0005 -0.00843108 0 -0.0005 -0.00843108 0 0.0005 -0.00733443
0 -0.0005 -0.00733443 0 0.0005 -0.0062816 0 -0.0005 -0.0062816 0
0.0005 -0.00527083 0 -0.0005 -0.00527083 0 0.0005 -0.00430044 0 -0.0005
-0.00430044 0 0.0005 -0.00336883 0 -0.0005 -0.00336883 0 0.0005 -0.00247443
0 -0.0005 -0.00247443 0 0.0005 -0.00161577 0 -0.0005 -0.00161577 0
0.0005 -0.000791418 0 -0.0005 -0.000791418 0 0.0005 0 0 -0.0005
0 0 0.0005 0 -0.0254 -0.0005 0 -0.0254 0.0005 0
-0.0242711 0.0005 0 -0.0242711 -0.0005 0 -0.0231422 0.0005 0 -0.0231422
-0.0005 0 -0.0220133 0.0005 0 -0.0220133 -0.0005 0 -0.0208844 0.0005
0 -0.0208844 -0.0005 0 -0.0197556 0.0005 0 -0.0197556 -0.0005 0
-0.0186267 0.0005 0 -0.0186267 -0.0005 0 -0.0174978 0.0005 0 -0.0174978
-0.0005 0 -0.0163689 0.0005 0 -0.0163689 -0.0005 0 -0.01524 0.0005
0 -0.01524 -0.0005 0 -0.0141111 0.0005 0 -0.0141111 -0.0005 0
-0.0129822 0.0005 0 -0.0129822 -0.0005 0 -0.0118533 0.0005 0 -0.0118533
-0.0005 0 -0.0107244 0.0005 0 -0.0107244 -0.0005 0 -0.00959556 0.0005
0 -0.00959556 -0.0005 0 -0.00846667 0.0005 0 -0.00846667 -0.0005 0
-0.00726604 0.0005 0 -0.00726604 -0.0005 0 -0.00618989 0.0005 0 -0.00618989
-0.0005 0 -0.00522531 0.0005 0 -0.00522531 -0.0005 0 -0.00436073 0.0005
0 -0.00436073 -0.0005 0 -0.00358579 0.0005 0 -0.00358579 -0.0005 0
-0.00289118 0.0005 0 -0.00289118 -0.0005 0 -0.0022686 0.0005 0 -0.0022686
-0.0005 0 -0.00171055 0.0005 0 -0.00171055 -0.0005 0 -0.00121037 0.0005
0 -0.00121037 -0.0005 0 -0.000762037 0.0005 0 -0.000762037 -0.0005 0
-0.000360188 0.0005 0 -0.000360188 -0.0005 0.000528387 -0.0254 -0.0005 0.000528387 -0.0254
0.0005 0.00106088 -0.0254 -0.0005 0.00106088 -0.0254 0.0005 0.00159752 -0.0254 -0.0005
0.00159752 -0.0254 0.0005 0.00213833 -0.0254 -0.0005 0.00213833 -0.0254 0.0005 0.00268334
-0.0254 -0.0005 0.00268334 -0.0254 0.0005 0.00323259 -0.0254 -0.0005 0.00323259 -0.0254
0.0005 0.00378611 -0.0254 -0.0005 0.00378611 -0.0254 0.0005 0.00434393 -0.0254 -0.0005
0.00434393 -0.0254 0.0005 0.00490609 -0.0254 -0.0005 0.00490609 -0.0254 0.0005 0.00547262
-0.0254 -0.0005 0.00547262 -0.0254 0.0005 0.00604356 -0.0254 -0.0005 0.00604356 -0.0254
0.0005 0.00661893 -0.0254 -0.0005 0.00661893 -0.0254 0.0005 0.00719878 -0.0254 -0.0005
0.00719878 -0.0254 0.0005 0.00778313 -0.0254 -0.0005 0.00778313 -0.0254 0.0005 0.00837203
-0.0254 -0.0005 0.00837203 -0.0254 0.0005 0.00896551 -0.0254 -0.0005 0.00896551 -0.0254
0.0005 0.0095636 -0.0254 -0.0005 0.0095636 -0.0254 0.0005 0.0101663 -0.0254 -0.0005
0.0101663 -0.0254 0.0005 0.0107738 -0.0254 -0.0005 0.0107738 -0.0254 0.0005 0.0113859
-0.0254 -0.0005 0.0113859 -0.0254 0.0005 0.0120028 -0.0254 -0.0005 0.0120028 -0.0254
0.0005 0.0126245 -0.0254 -0.0005 0.0126245 -0.0254 0.0005 0.0132511 -0.0254 -0.0005
0.0132511 -0.0254 0.0005 0.0138825 -0.0254 -0.0005 0.0138825 -0.0254 0.0005 0.0145188
-0.0254 -0.0005 0.0145188 -0.0254 0.0005 0.0151601 -0.0254 -0.0005 0.0151601 -0.0254
0.0005 0.0158063 -0.0254 -0.0005 0.0158063 -0.0254 0.0005 0.0164576 -0.0254 -0.0005
0.0164576 -0.0254 0.0005 0.0171139 -0.0254 -0.0005 0.0171139 -0.0254 0.0005 0.0177754
-0.0254 -0.0005 0.0177754 -0.0254 0.0005 0.018442 -0.0254 -0.0005 0.018442 -0.0254
0.0005 0.0191137 -0.0254 -0.0005 0.0191137 -0.0254 0.0005 0.0197907 -0.0254 -0.0005
0.0197907 -0.0254 0.0005 0.020473 -0.0254 -0.0005 0.020473 -0.0254 0.0005 0.0211606
-0.0254 -0.0005 0.0211606 -0.0254 0.0005 0.0218535 -0.0254 -0.0005 0.0218535 -0.0254
0.0005 0.0225517 -0.0254 -0.0005 0.0225517 -0.0254 0.0005 0.0232555 -0.0254 -0.0005
0.0232555 -0.0254 0.0005 0.0239647 -0.0254 -0.0005 0.0239647 -0.0254 0.0005 0.0246794
-0.0254 -0.0005 0.0246794 -0.0254 0.0005 0.0253996 -0.0254 -0.0005 0.0253996 -0.0254
0.0005 0.0261255 -0.0254 -0.0005 0.0261255 -0.0254 0.0005 0.026857 -0.0254 -0.0005
0.026857 -0.0254 0.0005 0.0275942 -0.0254 -0.0005 0.0275942 -0.0254 0.0005 0.0283371
-0.0254 -0.0005 0.0283371 -0.0254 0.0005 0.0290858 -0.0254 -0.0005 0.0290858 -0.0254
0.0005 0.0298403 -0.0254 -0.0005 0.0298403 -0.0254 0.0005 0.0306007 -0.0254 -0.0005
0.0306007 -0.0254 0.0005 0.031367 -0.0254 -0.0005 0.031367 -0.0254 0.0005 0.0321393
-0.0254 -0.0005 0.0321393 -0.0254 0.0005 0.0329175 -0.0254 -0.0005 0.0329175 -0.0254
0.0005 0.0337019 -0.0254 -0.0005 0.0337019 -0.0254 0.0005 0.0344923 -0.0254 -0.0005
0.0344923 -0.0254 0.0005 0.0352888 -0.0254 -0.0005 0.0352888 -0.0254 0.0005 0.0360916
-0.0254 -0.0005 0.0360916 -0.0254 0.0005 0.0369006 -0.0254 -0.0005 0.0369006 -0.0254
0.0005 0.0377158 -0.0254 -0.0005 0.0377158 -0.0254 0.0005 0.0385375 -0.0254 -0.0005
0.0385375 -0.0254 0.0005 0.0393655 -0.0254 -0.0005 0.0393655 -0.0254 0.0005 0.0401999
-0.0254 -0.0005 0.0401999 -0.0254 0.0005 0.0410408 -0.0254 -0.0005 0.0410408 -0.0254
0.0005 0.0418883 -0.0254 -0.0005 0.0418883 -0.0254 0.0005 0.0427424 -0.0254 -0.0005
0.0427424 -0.0254 0.0005 0.0436031 -0.0254 -0.0005 0.0436031 -0.0254 0.0005 0.0444704
-0.0254 -0.0005 0.0444704 -0.0254 0.0005 0.0453446 -0.0254 -0.0005 0.0453446 -0.0254
0.0005 0.0462255 -0.0254 -0.0005 0.0462255 -0.0254 0.0005 0.0471133 -0.0254 -0.0005
0.0471133 -0.0254 0.0005 0.048008 -0.0254 -0.0005 0.048008 -0.0254 0.0005 0.0489096
-0.0254 -0.0005 0.0489096 -0.0254 0.0005 0.0498183 -0.0254 -0.0005 0.0498183 -0.0254
0.0005 0.050734 -0.0254 -0.0005 0.050734 -0.0254 0.0005 0.0516568 -0.0254 -0.0005
0.0516568 -0.0254 0.0005 0.0525868 -0.0254 -0.0005 0.0525868 -0.0254 0.0005 0.053524
-0.0254 -0.0005 0.053524 -0.0254 0.0005 0.0544686 -0.0254 -0.0005 0.0544686 -0.0254
0.0005 0.0554204 -0.0254 -0.0005 0.0554204 -0.0254 0.0005 0.0563797 -0.0254 -0.0005
0.0563797 -0.0254 0.0005 0.0573464 -0.0254 -0.0005 0.0573464 -0.0254 0.0005 0.0583206
-0.0254 -0.0005 0.0583206 -0.0254 0.0005 0.0593025 -0.0254 -0.0005 0.0593025 -0.0254
0.0005 0.0602919 -0.0254 -0.0005 0.0602919 -0.0254 0.0005 0.0612891 -0.0254 -0.0005
0.0612891 -0.0254 0.0005 0.0622939 -0.0254 -0.0005 0.0622939 -0.0254 0.0005 0.0633067
-0.0254 -0.0005 0.0633067 -0.0254 0.0005 0.0643272 -0.0254 -0.0005 0.0643272 -0.0254
0.0005 0.0653557 -0.0254 -0.0005 0.0653557 -0.0254 0.0005 0.0663923 -0.0254 -0.0005
0.0663923 -0.0254 0.0005 0.0674368 -0.0254 -0.0005 0.0674368 -0.0254 0.0005 0.0684895
-0.0254 -0.0005 0.0684895 -0.0254 0.0005 0.0695504 -0.0254 -0.0005 0.0695504 -0.0254
0.0005 0.0706195 -0.0254 -0.0005 0.0706195 -0.0254 0.0005 0.0716969 -0.0254 -0.0005
0.0716969 -0.0254 0.0005 0.0727828 -0.0254 -0.0005 0.0727828 -0.0254 0.0005 0.073877
-0.0254 -0.0005 0.073877 -0.0254 0.0005 0.0749798 -0.0254 -0.0005 0.0749798 -0.0254
0.0005 0.0760911 -0.0254 -0.0005 0.0760911 -0.0254 0.0005 0.0772111 -0.0254 -0.0005
0.0772111 -0.0254 0.0005 0.0783398 -0.0254 -0.0005 0.0783398 -0.0254 0.0005 0.0794772
-0.0254 -0.0005 0.0794772 -0.0254 0.0005 0.0806235 -0.0254 -0.0005 0.0806235 -0.0254
0.0005 0.0817787 -0.0254 -0.0005 0.0817787 -0.0254 0.0005 0.0829429 -0.0254 -0.0005
0.0829429 -0.0254 0.0005 0.0841162 -0.0254 -0.0005 0.0841162 -0.0254 0.0005 0.0852985
-0.0254 -0.0005 0.0852985 -0.0254 0.0005 0.0864901 -0.0254 -0.0005 0.0864901 -0.0254
0.0005 0.0876909 -0.0254 -0.0005 0.0876909 -0.0254 0.0005 0.0889011 -0.0254 -0.0005
0.0889011 -0.0254 0.0005 0.0901207 -0.0254 -0.0005 0.0901207 -0.0254 0.0005 0.0913497
-0.0254 -0.0005 0.0913497 -0.0254 0.0005 0.0925883 -0.0254 -0.0005 0.0925883 -0.0254
0.0005 0.0938366 -0.0254 -0.0005 0.0938366 -0.0254 0.0005 0.0950945 -0.0254 -0.0005
0.0950945 -0.0254 0.0005 0.0963622 -0.0254 -0.0005 0.0963622 -0.0254 0.0005 0.0976398
-0.0254 -0.0005 0.0976398 -0.0254 0.0005 0.0989273 -0.0254 -0.0005 0.0989273 -0.0254
0.0005 0.100225 -0.0254 -0.0005 0.100225 -0.0254 0.0005 0.101532 -0.0254 -0.0005
0.101532 -0.0254 0.0005 0.10285 -0.0254 -0.0005 0.10285 -0.0254 0.0005 0.104178
-0.0254 -0.0005 0.104178 -0.0254 0.0005 0.105517 -0.0254 -0.0005 0.105517 -0.0254
0.0005 0.106865 -0.0254 -0.0005 0.106865 -0.0254 0.0005 0.108225 -0.0254 -0.0005
0.108225 -0.0254 0.0005 0.109594 -0.0254 -0.0005 0.109594 -0.0254 0.0005 0.110975
-0.0254 -0.0005 0.110975 -0.0254 0.0005 0.112366 -0.0254 -0.0005 0.112366 -0.0254
0.0005 0.113768 -0.0254 -0.0005 0.113768 -0.0254 0.0005 0.115181 -0.0254 -0.0005
0.115181 -0.0254 0.0005 0.116605 -0.0254 -0.0005 0.116605 -0.0254 0.0005 0.11804
-0.0254 -0.0005 0.11804 -0.0254 0.0005 0.119486 -0.0254 -0.0005 0.119486 -0.0254
0.0005 0.120943 -0.0254 -0.0005 0.120943 -0.0254 0.0005 0.122412 -0.0254 -0.0005
0.122412 -0.0254 0.0005 0.123892 -0.0254 -0.0005 0.123892 -0.0254 0.0005 0.125384
-0.0254 -0.0005 0.125384 -0.0254 0.0005 0.126887 -0.0254 -0.0005 0.126887 -0.0254
0.0005 0.128402 -0.0254 -0.0005 0.128402 -0.0254 0.0005 0.129928 -0.0254 -0.0005
0.129928 -0.0254 0.0005 0.131467 -0.0254 -0.0005 0.131467 -0.0254 0.0005 0.133017
-0.0254 -0.0005 0.133017 -0.0254 0.0005 0.13458 -0.0254 -0.0005 0.13458 -0.0254
0.0005 0.136155 -0.0254 -0.0005 0.136155 -0.0254 0.0005 0.137742 -0.0254 -0.0005
0.137742 -0.0254 0.0005 0.139341 -0.0254 -0.0005 0.139341 -0.0254 0.0005 0.140953
-0.0254 -0.0005 0.140953 -0.0254 0.0005 0.142577 -0.0254 -0.0005 0.142577 -0.0254
0.0005 0.144214 -0.0254 -0.0005 0.144214 -0.0254 0.0005 0.145863 -0.0254 -0.0005
0.145863 -0.0254 0.0005 0.147526 -0.0254 -0.0005 0.147526 -0.0254 0.0005 0.149201
-0.0254 -0.0005 0.149201 -0.0254 0.0005 0.15089 -0.0254 -0.0005 0.15089 -0.0254
0.0005 0.152591 -0.0254 -0.0005 0.152591 -0.0254 0.0005 0.154306 -0.0254 -0.0005
0.154306 -0.0254 0.0005 0.156034 -0.0254 -0.0005 0.156034 -0.0254 0.0005 0.157775
-0.0254 -0.0005 0.157775 -0.0254 0.0005 0.159531 -0.0254 -0.0005 0.159531 -0.0254
0.0005 0.161299 -0.0254 -0.0005 0.161299 -0.0254 0.0005 0.163082 -0.0254 -0.0005
0.163082 -0.0254 0.0005 0.164878 -0.0254 -0.0005 0.164878 -0.0254 0.0005 0.166688
-0.0254 -0.0005 0.166688 -0.0254 0.0005 0.168513 -0.0254 -0.0005 0.168513 -0.0254
0.0005 0.170351 -0.0254 -0.0005 0.170351 -0.0254 0.0005 0.172204 -0.0254 -0.0005
0.172204 -0.0254 0.0005 0.174071 -0.0254 -0.0005 0.174071 -0.0254 0.0005 0.175953
-0.0254 -0.0005 0.175953 -0.0254 0.0005 0.177849 -0.0254 -0.0005 0.177849 -0.0254
0.0005 0.17976 -0.0254 -0.0005 0.17976 -0.0254 0.0005 0.181686 -0.0254 -0.0005
0.181686 -0.0254 0.0005 0.183627 -0.0254 -0.0005 0.183627 -0.0254 0.0005 0.185583
-0.0254 -0.0005 0.185583 -0.0254 0.0005 0.187555 -0.0254 -0.0005 0.187555 -0.0254
0.0005 0.189541 -0.0254 -0.0005 0.189541 -0.0254 0.0005 0.191543 -0.0254 -0.0005
0.191543 -0.0254 0.0005 0.193561 -0.0254 -0.0005 0.193561 -0.0254 0.0005 0.195594
-0.0254 -0.0005 0.195594 -0.0254 0.0005 0.197643 -0.0254 -0.0005 0.197643 -0.0254
0.0005 0.199708 -0.0254 -0.0005 0.199708 -0.0254 0.0005 0.201789 -0.0254 -0.0005
0.201789 -0.0254 0.0005 0.203886 -0.0254 -0.0005 0.203886 -0.0254 0.0005 0.206
-0.0254 -0.0005 0.206 -0.0254 0.0005 0.208047 -0.0251856 -0.0005 0.208047 -0.0251856
0.0005 0.210173 -0.0249628 -0.0005 0.210173 -0.0249628 0.0005 0.212382 -0.0247314 -0.0005
0.212382 -0.0247314 0.0005 0.214677 -0.024491 -0.0005 0.214677 -0.024491 0.0005 0.217061
-0.0242412 -0.0005 0.217061 -0.0242412 0.0005 0.219538 -0.0239817 -0.0005 0.219538 -0.0239817
0.0005 0.222112 -0.0237121 -0.0005 0.222112 -0.0237121 0.0005 0.224785 -0.023432 -0.0005
0.224785 -0.023432 0.0005 0.227563 -0.023141 -0.0005 0.227563 -0.023141 0.0005 0.230449
-0.0228387 -0.0005 0.230449 -0.0228387 0.0005 0.233447 -0.0225246 -0.0005 0.233447 -0.0225246
0.0005 0.236562 -0.0221983 -0.0005 0.236562 -0.0221983 0.0005 0.239797 -0.0218593 -0.0005
0.239797 -0.0218593 0.0005 0.243159 -0.0215071 -0.0005 0.243159 -0.0215071 0.0005 0.246652
-0.0211412 -0.0005 0.246652 -0.0211412 0.0005 0.250281 -0.0207611 -0.0005 0.250281 -0.0207611
0.0005 0.254051 -0.0203661 -0.0005 0.254051 -0.0203661 0.0005 0.257967 -0.0199558 -0.0005
0.257967 -0.0199558 0.0005 0.262036 -0.0195295 -0.0005 0.262036 -0.0195295 0.0005 0.266264
-0.0190867 -0.0005 0.266264 -0.0190867 0.0005 0.270655 -0.0186266 -0.0005 0.270655 -0.0186266
0.0005 0.275218 -0.0181486 -0.0005 0.275218 -0.0181486 0.0005 0.279959 -0.017652 -0.0005
0.279959 -0.017652 0.0005 0.284883 -0.017136 -0.0005 0.284883 -0.017136 0.0005 0.29
-0.0166 -0.0005 0.29 -0.0166 0.0005 
POLYGONS 250 1250
4 0 1 2 3 4 1 4 5 2 4
4 6 7 5 4 6 8 9 7 4
8 10 11 9 4 10 12 13 11 4
12 14 15 13 4 14 16 17 15 4
16 18 19 17 4 18 20 21 19 4
20 22 23 21 4 22 24 25 23 4
24 26 27 25 4 26 28 29 27 4
28 30 31 29 4 30 32 33 31 4
32 34 35 33 4 34 36 37 35 4
38 39 40 41 4 41 40 42 43 4
43 42 44 45 4 45 44 46 47 4
47 46 48 49 4 49 48 50 51 4
51 50 52 53 4 53 52 54 55 4
55 54 56 57 4 57 56 58 59 4
59 58 60 61 4 61 60 62 63 4
63 62 64 65 4 65 64 66 67 4
67 66 68 69 4 69 68 70 71 4
71 70 72 73 4 73 72 74 75 4
75 74 76 77 4 77 76 78 79 4
79 78 80 81 4 81 80 82 83 4
83 82 84 85 4 85 84 86 87 4
87 86 88 89 4 89 88 90 91 4
91 90 37 36 4 38 92 93 39 4
92 94 95 93 4 94 96 97 95 4
96 98 99 97 4 98 100 101 99 4
100 102 103 101 4 102 104 105 103 4
104 106 107 105 4 106 108 109 107 4
108 110 111 109 4 110 112 113 111 4
112 114 115 113 4 114 116 117 115 4
116 118 119 117 4 118 120 121 119 4
120 122 123 121 4 122 124 125 123 4
124 126 127 125 4 126 128 129 127 4
128 130 131 129 4 130 132 133 131 4
132 134 135 133 4 134 136 137 135 4
136 138 139 137 4 138 140 141 139 4
140 142 143 141 4 142 144 145 143 4
144 146 147 145 4 146 148 149 147 4
148 150 151 149 4 150 152 153 151 4
152 154 155 153 4 154 156 157 155 4
156 158 159 157 4 158 160 161 159 4
160 162 163 161 4 162 164 165 163 4
164 166 167 165 4 166 168 169 167 4
168 170 171 169 4 170 172 173 171 4
172 174 175 173 4 174 176 177 175 4
176 178 179 177 4 178 180 181 179 4
180 182 183 181 4 182 184 185 183 4
184 186 187 185 4 186 188 189 187 4
188 190 191 189 4 190 192 193 191 4
192 194 195 193 4 194 196 197 195 4
196 198 199 197 4 198 200 201 199 4
200 202 203 201 4 202 204 205 203 4
204 206 207 205 4 206 208 209 207 4
208 210 211 209 4 210 212 213 211 4
212 214 215 213 4 214 216 217 215 4
216 218 219 217 4 218 220 221 219 4
220 222 223 221 4 222 224 225 223 4
224 226 227 225 4 226 228 229 227 4
228 230 231 229 4 230 232 233 231 4
232 234 235 233 4 234 236 237 235 4
236 238 239 237 4 238 240 241 239 4
240 242 243 241 4 242 244 245 243 4
244 246 247 245 4 246 248 249 247 4
248 250 251 249 4 250 252 253 251 4
252 254 255 253 4 254 256 257 255 4
256 258 259 257 4 258 260 261 259 4
260 262 263 261 4 262 264 265 263 4
264 266 267 265 4 266 268 269 267 4
268 270 271 269 4 270 272 273 271 4
272 274 275 273 4 274 276 277 275 4
276 278 279 277 4 278 280 281 279 4
280 282 283 281 4 282 284 285 283 4
284 286 287 285 4 286 288 289 287 4
288 290 291 289 4 290 292 293 291 4
292 294 295 293 4 294 296 297 295 4
296 298 299 297 4 298 300 301 299 4
300 302 303 301 4 302 304 305 303 4
304 306 307 305 4 306 308 309 307 4
308 310 311 309 4 310 312 313 311 4
312 314 315 313 4 314 316 317 315 4
316 318 319 317 4 318 320 321 319 4
320 322 323 321 4 322 324 325 323 4
324 326 327 325 4 326 328 329 327 4
328 330 331 329 4 330 332 333 331 4
332 334 335 333 4 334 336 337 335 4
336 338 339 337 4 338 340 341 339 4
340 342 343 341 4 342 344 345 343 4
344 346 347 345 4 346 348 349 347 4
348 350 351 349 4 350 352 353 351 4
352 354 355 353 4 354 356 357 355 4
356 358 359 357 4 358 360 361 359 4
360 362 363 361 4 362 364 365 363 4
364 366 367 365 4 366 368 369 367 4
368 370 371 369 4 370 372 373 371 4
372 374 375 373 4 374 376 377 375 4
376 378 379 377 4 378 380 381 379 4
380 382 383 381 4 382 384 385 383 4
384 386 387 385 4 386 388 389 387 4
388 390 391 389 4 390 392 393 391 4
392 394 395 393 4 394 396 397 395 4
396 398 399 397 4 398 400 401 399 4
400 402 403 401 4 402 404 405 403 4
404 406 407 405 4 406 408 409 407 4
408 410 411 409 4 410 412 413 411 4
412 414 415 413 4 414 416 417 415 4
416 418 419 417 4 418 420 421 419 4
420 422 423 421 4 422 424 425 423 4
424 426 427 425 4 426 428 429 427 4
428 430 431 429 4 430 432 433 431 4
432 434 435 433 4 434 436 437 435 4
436 438 439 437 4 438 440 441 439 4
440 442 443 441 4 442 444 445 443 4
444 446 447 445 4 446 448 449 447 4
448 450 451 449 4 450 452 453 451 4
452 454 455 453 4 454 456 457 455 4
456 458 459 457 4 458 460 461 459 4
460 462 463 461 4 462 464 465 463 4
464 466 467 465 4 466 468 469 467 4
468 470 471 469 4 470 472 473 471 4
472 474 475 473 4 474 476 477 475 4
476 478 479 477 4 478 480 481 479 4
480 482 483 481 4 482 484 485 483 4
484 486 487 485 4 486 488 489 487 4
488 490 491 489 4 490 492 493 491 4
492 494 495 493 4 494 496 497 495 4
496 498 499 497 4 498 500 501 499 
POINT_DATA 502
FIELD attributes 1
U 3 502 float
3.43799 0.0144415 0.0026057 1.72467 0.0073825 0.00128409 1.72467 0.0073825 0.00128409 3.43799 0.0144415
0.0026057 0.0588121 0.000386578 0 0.0588121 0.000386578 0 0.0568068 0.000260015 0
0.0568068 0.000260015 0 0.0551645 0.000289798 0 0.0551645 0.000289798 0 0.0534832
0.000331079 0 0.0534832 0.000331079 0 0.0516199 0.000370594 0 0.0516199 0.000370594
0 0.049585 0.000406011 0 0.049585 0.000406011 0 0.0474971 0.000418286 0
0.0474971 0.000418286 0 0.0454613 0.000403956 0 0.0454613 0.000403956 0 0.0435518
0.000373579 0 0.0435518 0.000373579 0 0.0417317 0.00035197 0 0.0417317 0.00035197
0 0.0399395 0.000372512 0 0.0399395 0.000372512 0 0.0379036 0.000455167 0
0.0379036 0.000455167 0 0.0356504 0.000581391 0 0.0356504 0.000581391 0 0.0325998
0.000687068 0 0.0325998 0.000687068 0 0.0302721 0.000760811 0 0.0302721 0.000760811
0 0.0252088 0.00097628 0 0.0252088 0.00097628 0 0.0106328 -0.00210837 0
0.0106328 -0.00210837 0 -0.00050776 0.00114348 -1.04862e-23 -0.00050776 0.00114348 -1.04862e-23 -0.000231575
0.00268751 2.85633e-23 -0.000231575 0.00268751 2.85633e-23 0.000207999 0.00359966 3.37988e-23 0.000207999 0.00359966
3.37988e-23 -0.000320672 0.00260155 -6.78135e-23 -0.000320672 0.00260155 -6.78135e-23 -0.000268841 0.00213226 -2.26512e-23
-0.000268841 0.00213226 -2.26512e-23 0.00158738 -0.0039098 4.51548e-23 0.00158738 -0.0039098 4.51548e-23 0.00232243
-0.0142286 0 0.00232243 -0.0142286 0 0.00151667 -0.0207176 1.15078e-22 0.00151667 -0.0207176
1.15078e-22 0.000873877 -0.0243968 1.04174e-25 0.000873877 -0.0243968 1.04174e-25 0.000484014 -0.0266759 -1.14973e-22
0.000484014 -0.0266759 -1.14973e-22 0.000201066 -0.0277583 1.27237e-22 0.000201066 -0.0277583 1.27237e-22 -2.36515e-06
-0.0280298 -2.02781e-28 -2.36515e-06 -0.0280298 -2.02781e-28 -0.000177639 -0.0275438 -1.27237e-22 -0.000177639 -0.0275438
-1.27237e-22 -0.000344998 -0.0263861 -1.16305e-22 -0.000344998 -0.0263861 -1.16305e-22 -0.000521586 -0.0244774 1.29126e-25
-0.000521586 -0.0244774 1.29126e-25 -0.000702675 -0.0217683 1.18498e-22 -0.000702675 -0.0217683 1.18498e-22 -0.000874644
-0.0181194 0 -0.000874644 -0.0181194 0 -0.000970521 -0.0141573 0 -0.000970521 -0.0141573
0 -0.000950045 -0.0103595 0 -0.000950045 -0.0103595 0 -0.00080307 -0.00711505 0
-0.00080307 -0.00711505 0 -0.000573752 -0.0046213 0 -0.000573752 -0.0046213 0 -0.00027065
-0.00292005 0 -0.00027065 -0.00292005 0 0.000116425 -0.00199782 0 0.000116425 -0.00199782
0 0.000396978 -0.00201068 0 0.000396978 -0.00201068 0 9.15256e-05 -0.002463 0
9.15256e-05 -0.002463 0 -0.000640389 -0.00224947 0 -0.000640389 -0.00224947 0 0.000669133
-0.00335585 0 0.000669133 -0.00335585 0 -0.000800916 0.000927017 -2.6548e-26 -0.000800916 0.000927017
-2.6548e-26 -0.00137904 0.000541245 5.22994e-24 -0.00137904 0.000541245 5.22994e-24 -0.00173859 0.000149097 0
-0.00173859 0.000149097 0 -0.00157752 -0.000400115 0 -0.00157752 -0.000400115 0 -0.000920952
-0.000946 -4.94462e-24 -0.000920952 -0.000946 -4.94462e-24 0.000113641 -0.00127308 -4.95351e-24 0.000113641 -0.00127308
-4.95351e-24 0.00141902 -0.0014241 0 0.00141902 -0.0014241 0 0.0027947 -0.00145154 0
0.0027947 -0.00145154 0 0.00413957 -0.00137721 0 0.00413957 -0.00137721 0 0.00541114
-0.0012366 5.02596e-24 0.00541114 -0.0012366 5.02596e-24 0.00655903 -0.0010592 5.03554e-24 0.00655903 -0.0010592
5.03554e-24 0.0075493 -0.000865575 0 0.0075493 -0.000865575 0 0.00837001 -0.000668933 0
0.00837001 -0.000668933 0 0.00902048 -0.000475327 0 0.00902048 -0.000475327 0 0.00950375
-0.000286525 5.79694e-24 0.00950375 -0.000286525 5.79694e-24 0.00982096 -0.00010129 5.80864e-24 0.00982096 -0.00010129
5.80864e-24 0.00997067 8.41012e-05 0 0.00997067 8.41012e-05 0 0.00993907 0.000278279 0
0.00993907 0.000278279 0 0.00970836 0.000489607 0 0.00970836 0.000489607 0 0.00927041
0.000719637 0 0.00927041 0.000719637 0 0.00861263 0.000965412 0 0.00861263 0.000965412
0 0.00772121 0.00122277 0 0.00772121 0.00122277 0 0.00657873 0.00147757 5.33666e-24
0.00657873 0.00147757 5.33666e-24 0.00518021 0.00170307 8.98459e-26 0.00518021 0.00170307 8.98459e-26 0.003511
0.00178072 -1.84952e-26 0.003511 0.00178072 -1.84952e-26 0.00172388 0.00117901 1.05829e-23 0.00172388 0.00117901
1.05829e-23 0.000430785 -0.000261338 5.33134e-24 0.000430785 -0.000261338 5.33134e-24 -0.000235067 -0.000418535 0
-0.000235067 -0.000418535 0 -0.000948989 0.00103822 -5.49038e-24 -0.000948989 0.00103822 -5.49038e-24 -0.00198941
0.00128199 -1.11512e-23 -0.00198941 0.00128199 -1.11512e-23 -0.00322087 0.000664145 -5.66131e-24 -0.00322087 0.000664145
-5.66131e-24 -0.0043745 0.000328641 0 -0.0043745 0.000328641 0 -0.00496048 -0.000284713 -6.11259e-24
-0.00496048 -0.000284713 -6.11259e-24 -0.0047625 -0.0010495 -6.12765e-24 -0.0047625 -0.0010495 -6.12765e-24 -0.0038098
-0.00193586 0 -0.0038098 -0.00193586 0 -0.00176083 -0.00288872 5.48765e-24 -0.00176083 -0.00288872
5.48765e-24 0.00101419 -0.00316592 5.5016e-24 0.00101419 -0.00316592 5.5016e-24 0.0036755 -0.00254751 5.55651e-24
0.0036755 -0.00254751 5.55651e-24 0.00570404 -0.00165488 1.70572e-23 0.00570404 -0.00165488 1.70572e-23 0.00684709
-0.00072583 1.15164e-23 0.00684709 -0.00072583 1.15164e-23 0.00700999 7.86969e-05 0 0.00700999 7.86969e-05
0 0.00618483 0.000627836 0 0.00618483 0.000627836 0 0.00451156 0.000614241 0
0.00451156 0.000614241 0 0.00268552 0.000740328 0 0.00268552 0.000740328 0 0.00146402
0.00163163 9.13293e-24 0.00146402 0.00163163 9.13293e-24 0.00084364 -3.56266e-05 1.8125e-23 0.00084364 -3.56266e-05
1.8125e-23 0.000324602 -0.00287752 1.81895e-23 0.000324602 -0.00287752 1.81895e-23 -0.000332432 -0.000904056 9.22384e-24
-0.000332432 -0.000904056 9.22384e-24 -0.00286505 0.00245875 -8.84952e-24 -0.00286505 0.00245875 -8.84952e-24 -0.00637337
0.00257483 -8.87516e-24 -0.00637337 0.00257483 -8.87516e-24 -0.00871853 0.00194651 9.8012e-24 -0.00871853 0.00194651
9.8012e-24 -0.0108426 0.0017021 2.03426e-23 -0.0108426 0.0017021 2.03426e-23 -0.0126411 0.00137202 1.05438e-23
-0.0126411 0.00137202 1.05438e-23 -0.0141385 0.00115979 0 -0.0141385 0.00115979 0 -0.0154534
0.000963995 0 -0.0154534 0.000963995 0 -0.0165619 0.000816938 1.3305e-23 -0.0165619 0.000816938
1.3305e-23 -0.0175413 0.000694425 1.33463e-23 -0.0175413 0.000694425 1.33463e-23 -0.018384 0.000594513 0
-0.018384 0.000594513 0 -0.0191272 0.000510346 0 -0.0191272 0.000510346 0 -0.0197708
0.000436424 0 -0.0197708 0.000436424 0 -0.0203302 0.00037019 0 -0.0203302 0.00037019
0 -0.0208056 0.000308137 0 -0.0208056 0.000308137 0 -0.0212019 0.000249194 0
-0.0212019 0.000249194 0 -0.0215183 0.000192112 0 -0.0215183 0.000192112 0 -0.0217557
0.000136881 -1.5942e-23 -0.0217557 0.000136881 -1.5942e-23 -0.0219132 8.38062e-05 -1.59955e-23 -0.0219132 8.38062e-05
-1.59955e-23 -0.021991 3.3697e-05 0 -0.021991 3.3697e-05 0 -0.0219926 -1.27014e-05 1.5504e-23
-0.0219926 -1.27014e-05 1.5504e-23 -0.0219247 -5.51311e-05 3.07788e-23 -0.0219247 -5.51311e-05 3.07788e-23 -0.0217914
-9.34935e-05 1.52743e-23 -0.0217914 -9.34935e-05 1.52743e-23 -0.0215973 -0.00012741 -1.44936e-23 -0.0215973 -0.00012741
-1.44936e-23 -0.0213493 -0.00015635 -4.77031e-25 -0.0213493 -0.00015635 -4.77031e-25 -0.0210552 -0.000179761 1.4118e-23
-0.0210552 -0.000179761 1.4118e-23 -0.0207242 -0.000197198 -1.31471e-23 -0.0207242 -0.000197198 -1.31471e-23 -0.020366
-0.000208373 -1.31948e-23 -0.020366 -0.000208373 -1.31948e-23 -0.0199912 -0.000213161 0 -0.0199912 -0.000213161
0 -0.0196107 -0.000211606 1.17504e-23 -0.0196107 -0.000211606 1.17504e-23 -0.0192351 -0.000203894 1.17941e-23
-0.0192351 -0.000203894 1.17941e-23 -0.0188754 -0.000190342 -1.0908e-23 -0.0188754 -0.000190342 -1.0908e-23 -0.018542
-0.000171398 -1.09492e-23 -0.018542 -0.000171398 -1.09492e-23 -0.0182447 -0.00014765 1.01852e-23 -0.0182447 -0.00014765
1.01852e-23 -0.0179926 -0.000119893 2.0098e-23 -0.0179926 -0.000119893 2.0098e-23 -0.0177933 -8.92639e-05 1.95068e-23
-0.0177933 -8.92639e-05 1.95068e-23 -0.0176521 -5.74463e-05 2.83231e-23 -0.0176521 -5.74463e-05 2.83231e-23 -0.0175707
-2.69346e-05 5.24762e-25 -0.0175707 -2.69346e-05 5.24762e-25 -0.0175451 -1.29995e-06 -1.83118e-23 -0.0175451 -1.29995e-06
-1.83118e-23 -0.0175626 1.47348e-05 0 -0.0175626 1.47348e-05 0 -0.017598 1.55189e-05 0
-0.017598 1.55189e-05 0 -0.0176103 -5.32893e-06 -1.63391e-23 -0.0176103 -5.32893e-06 -1.63391e-23 -0.0175432
-5.34168e-05 -3.19921e-23 -0.0175432 -5.34168e-05 -3.19921e-23 -0.0173335 -0.000129903 -1.04271e-24 -0.0173335 -0.000129903
-1.04271e-24 -0.0169282 -0.000228588 1.46681e-23 -0.0169282 -0.000228588 1.46681e-23 -0.0162994 -0.000336303 -1.19941e-23
-0.0162994 -0.000336303 -1.19941e-23 -0.0154515 -0.000436439 -2.25349e-23 -0.0154515 -0.000436439 -2.25349e-23 -0.0144203
-0.000514241 -1.95249e-23 -0.0144203 -0.000514241 -1.95249e-23 -0.0132622 -0.000561752 -9.0283e-24 -0.0132622 -0.000561752
-9.0283e-24 -0.0120382 -0.000579314 0 -0.0120382 -0.000579314 0 -0.0108009 -0.000573148 0
-0.0108009 -0.000573148 0 -0.00958726 -0.000551683 -4.29883e-24 -0.00958726 -0.000551683 -4.29883e-24 -0.00841782
-0.000522539 -4.31765e-24 -0.00841782 -0.000522539 -4.31765e-24 -0.00730072 -0.000491143 0 -0.00730072 -0.000491143
0 -0.00623716 -0.000460786 2.22259e-24 -0.00623716 -0.000460786 2.22259e-24 -0.00522416 -0.000433068 2.23252e-24
-0.00522416 -0.000433068 2.23252e-24 -0.00425632 -0.000408414 0 -0.00425632 -0.000408414 0 -0.00332815
-0.00038638 8.64612e-25 -0.00332815 -0.00038638 8.64612e-25 -0.00243513 -0.000366322 8.6855e-25 -0.00243513 -0.000366322
8.6855e-25 -0.00157299 -0.000347775 0 -0.00157299 -0.000347775 0 -0.000739769 -0.000330821 -5.21628e-27
-0.000739769 -0.000330821 -5.21628e-27 6.28529e-05 -0.000315816 1.79239e-25 6.28529e-05 -0.000315816 1.79239e-25 0.000836106
-0.000300974 1.85341e-25 0.000836106 -0.000300974 1.85341e-25 0.00158392 -0.000285574 -4.35939e-25 0.00158392 -0.000285574
-4.35939e-25 0.00230614 -0.000270601 -4.38e-25 0.00230614 -0.000270601 -4.38e-25 0.00300137 -0.000256002 5.41957e-25
0.00300137 -0.000256002 5.41957e-25 0.00366978 -0.00024184 5.44551e-25 0.00366978 -0.00024184 5.44551e-25 0.00431191
-0.000228182 5.39016e-25 0.00431191 -0.000228182 5.39016e-25 0.00492865 -0.000215034 1.05018e-24 0.00492865 -0.000215034
1.05018e-24 0.00552091 -0.000202278 5.11032e-25 0.00552091 -0.000202278 5.11032e-25 0.00608931 -0.000189648 0
0.00608931 -0.000189648 0 0.00663397 -0.000176869 0 0.00663397 -0.000176869 0 0.00715448
-0.000163537 0 0.00715448 -0.000163537 0 0.00764927 -0.000148728 0 0.00764927 -0.000148728
0 0.00811416 -0.000131483 0 0.00811416 -0.000131483 0 0.00854195 -0.000111732 0
0.00854195 -0.000111732 0 0.00892371 -8.97653e-05 1.73236e-26 0.00892371 -8.97653e-05 1.73236e-26 0.00925086
-6.60797e-05 6.28361e-26 0.00925086 -6.60797e-05 6.28361e-26 0.00951926 -4.37161e-05 4.56568e-26 0.00951926 -4.37161e-05
4.56568e-26 0.00973457 -2.64733e-05 0 0.00973457 -2.64733e-05 0 0.00990639 -1.00684e-05 0
0.00990639 -1.00684e-05 0 0.0100279 1.65014e-05 0 0.0100279 1.65014e-05 0 0.0100729
5.18882e-05 5.14993e-25 0.0100729 5.18882e-05 5.14993e-25 0.0100298 7.84685e-05 5.17699e-25 0.0100298 7.84685e-05
5.17699e-25 0.00991968 8.31848e-05 -6.04439e-25 0.00991968 8.31848e-05 -6.04439e-25 0.00978111 7.04929e-05 2.13015e-26
0.00978111 7.04929e-05 2.13015e-26 0.00964651 5.71109e-05 6.32301e-25 0.00964651 5.71109e-05 6.32301e-25 0.00952535
5.81374e-05 0 0.00952535 5.81374e-05 0 0.00940549 7.54756e-05 0 0.00940549 7.54756e-05
0 0.00926768 9.78073e-05 -5.86108e-25 0.00926768 9.78073e-05 -5.86108e-25 0.00910157 0.000110403 -1.1485e-24
0.00910157 0.000110403 -1.1485e-24 0.00891328 0.000105556 -5.62261e-25 0.00891328 0.000105556 -5.62261e-25 0.0087212
8.57989e-05 -4.97817e-25 0.0087212 8.57989e-05 -4.97817e-25 0.00854544 5.98155e-05 -9.58496e-25 0.00854544 5.98155e-05
-9.58496e-25 0.00839919 3.62498e-05 -5.08553e-26 0.00839919 3.62498e-05 -5.08553e-26 0.00828579 2.00547e-05 4.11892e-25
0.00828579 2.00547e-05 4.11892e-25 0.00820026 1.26675e-05 0 0.00820026 1.26675e-05 0 0.00813305
1.35118e-05 2.31357e-25 0.00813305 1.35118e-05 2.31357e-25 0.00807392 2.07237e-05 2.3266e-25 0.00807392 2.07237e-05
2.3266e-25 0.00801437 3.16844e-05 0 0.00801437 3.16844e-05 0 0.00794804 4.43514e-05 0
0.00794804 4.43514e-05 0 0.00786915 5.8301e-05 0 0.00786915 5.8301e-05 0 0.00777067
7.40852e-05 1.10142e-25 0.00777067 7.40852e-05 1.10142e-25 0.00764451 9.11572e-05 2.9033e-25 0.00764451 9.11572e-05
2.9033e-25 0.00748536 0.000106126 1.80591e-25 0.00748536 0.000106126 1.80591e-25 0.00729564 0.000113825 3.08059e-25
0.00729564 0.000113825 3.08059e-25 0.00708709 0.00011097 3.09852e-25 0.00708709 0.00011097 3.09852e-25 0.00687695
9.85933e-05 0 0.00687695 9.85933e-05 0 0.00668085 8.10844e-05 4.92431e-25 0.00668085 8.10844e-05
4.92431e-25 0.0065075 6.35011e-05 4.95329e-25 0.0065075 6.35011e-05 4.95329e-25 0.00635763 4.93297e-05 6.31964e-25
0.00635763 4.93297e-05 6.31964e-25 0.00622689 3.96917e-05 6.35712e-25 0.00622689 3.96917e-05 6.35712e-25 0.00610965
3.37116e-05 0 0.00610965 3.37116e-05 0 0.00600189 2.9556e-05 8.5478e-25 0.00600189 2.9556e-05
8.5478e-25 0.00590211 2.57222e-05 8.59903e-25 0.00590211 2.57222e-05 8.59903e-25 0.00581107 2.16686e-05 1.00501e-24
0.00581107 2.16686e-05 1.00501e-24 0.00573019 1.7624e-05 1.01108e-24 0.00573019 1.7624e-05 1.01108e-24 0.00566054
1.41161e-05 0 0.00566054 1.41161e-05 0 0.00560145 1.16283e-05 0 0.00560145 1.16283e-05