/*--------------------------------*- C++ -*----------------------------------*\
  =========                 |
  \\      /  F ield         | OpenFOAM: The Open Source CFD Toolbox
   \\    /   O peration     | Website:  https://openfoam.org
    \\  /    A nd           | Version:  9
     \\/     M anipulation  |
\*---------------------------------------------------------------------------*/
FoamFile
{
    format      ascii;
    class       volScalarField;
    location    "0.19";
    object      epsilon;
}
// * * * * * * * * * * * * * * * * * * * * * * * * * * * * * * * * * * * * * //

dimensions      [0 2 -3 0 0 0 0];

internalField   nonuniform List<scalar> 
12225
(
247.461
207.847
177.992
156.345
141.756
133.265
129.986
131.032
135.504
142.526
151.274
161.019
171.147
181.173
190.749
199.648
207.834
218.043
43.6906
57.6688
66.8739
76.9133
90.5071
109.1
133.452
163.655
199.133
238.758
281.065
324.499
367.622
409.286
448.767
485.828
521.509
556.037
20.9161
26.6214
31.1966
35.3265
39.6795
44.7096
50.7196
57.8737
66.1883
75.5457
85.7301
96.4745
107.508
118.606
129.641
140.682
152.153
165.042
16.2912
18.2633
20.1737
21.9738
23.7539
25.6089
27.6119
29.8089
32.2146
34.8146
37.5729
40.4424
43.3748
46.3317
49.2968
52.3001
55.4391
58.8936
15.0532
15.6112
16.3049
17.0375
17.7841
18.5464
19.3341
20.1566
21.0184
21.9178
22.8475
23.7976
24.7576
25.7194
26.6801
27.6473
28.6408
29.683
14.6984
14.7094
14.8412
15.0442
15.2896
15.5616
15.8528
16.1597
16.4803
16.8125
17.1538
17.5009
17.8509
18.2014
18.5518
18.9037
19.2611
19.6232
14.5988
14.4096
14.2933
14.2354
14.2216
14.2404
14.2834
14.3447
14.42
14.5064
14.6015
14.703
14.8094
14.9193
15.0321
15.1479
15.2671
15.3871
14.5723
14.3163
14.1013
13.925
13.7829
13.6698
13.5807
13.5113
13.458
13.418
13.3889
13.369
13.3566
13.3506
13.3502
13.3549
13.3644
13.3768
14.5656
14.2895
14.0397
13.8159
13.6168
13.4404
13.2844
13.1465
13.0243
12.9159
12.8195
12.7336
12.6569
12.5883
12.527
12.4724
12.4238
12.3804
14.5639
14.2824
14.0217
13.7812
13.5598
13.3567
13.1704
12.9997
12.8432
12.6996
12.5677
12.4464
12.3346
12.2316
12.1366
12.0489
11.968
11.8936
14.5635
14.2805
14.0167
13.7709
13.5421
13.329
13.1308
12.9463
12.7746
12.6148
12.4658
12.327
12.1975
12.0767
11.9639
11.8585
11.7602
11.6691
14.5634
14.28
14.0154
13.7682
13.5372
13.3211
13.119
12.9298
12.7527
12.5867
12.4312
12.2853
12.1485
12.02
11.8995
11.7863
11.68
11.5812
14.5633
14.2797
14.0149
13.7672
13.5354
13.3183
13.1148
12.9238
12.7445
12.5761
12.4178
12.2689
12.1288
11.9969
11.8727
11.7558
11.6457
11.5431
14.5632
14.2796
14.0146
13.7667
13.5346
13.3171
13.1131
12.9215
12.7414
12.5721
12.4127
12.2626
12.1211
11.9878
11.8621
11.7435
11.6317
11.5274
14.5632
14.2795
14.0144
13.7664
13.5341
13.3165
13.1122
12.9203
12.74
12.5703
12.4105
12.26
12.1181
11.9843
11.858
11.7389
11.6265
11.5216
14.5631
14.2794
14.0142
13.7661
13.5338
13.316
13.1115
12.9195
12.739
12.5692
12.4092
12.2585
12.1164
11.9824
11.8559
11.7365
11.6239
11.5186
14.5631
14.2793
14.0141
13.7659
13.5335
13.3156
13.1111
12.9189
12.7383
12.5682
12.4081
12.2573
12.115
11.9808
11.8541
11.7344
11.6215
11.516
14.5631
14.2793
14.014
13.7658
13.5333
13.3153
13.1107
12.9184
12.7376
12.5675
12.4072
12.2561
12.1136
11.9791
11.8522
11.7322
11.619
11.5131
14.5631
14.2793
14.014
13.7658
13.5333
13.3152
13.1105
12.9181
12.7371
12.5668
12.4063
12.255
12.1123
11.9775
11.8502
11.7299
11.6162
11.5098
14.5631
14.2793
14.0141
13.7659
13.5333
13.3152
13.1105
12.918
12.737
12.5666
12.406
12.2545
12.1115
11.9765
11.8489
11.7283
11.6142
11.5075
14.5631
14.2794
14.0142
13.766
13.5335
13.3155
13.1107
12.9183
12.7373
12.5669
12.4063
12.2549
12.1119
11.9769
11.8493
11.7287
11.6147
11.508
14.5632
14.2795
14.0144
13.7664
13.5341
13.3164
13.1121
12.9202
12.7398
12.5702
12.4104
12.26
12.1181
11.9843
11.8581
11.7389
11.6264
11.5213
14.5633
14.2799
14.0155
13.7686
13.538
13.3226
13.1212
12.933
12.7568
12.592
12.4376
12.2929
12.1572
12.03
11.9106
11.7986
11.6934
11.5958
14.564
14.2831
14.0236
13.7846
13.5647
13.3628
13.1774
13.0071
12.8504
12.7063
12.5735
12.4511
12.3382
12.2341
12.1381
12.0495
11.9681
11.894
14.5705
14.3081
14.08
13.8833
13.7143
13.5691
13.4439
13.3355
13.2417
13.1603
13.09
13.0296
12.9783
12.9353
12.9
12.8721
12.8511
12.8371
14.6202
14.4668
14.3863
14.356
14.3589
14.3834
14.4224
14.4721
14.5308
14.5982
14.6742
14.7592
14.8536
14.9578
15.0719
15.1961
15.3303
15.4736
14.9422
15.2876
15.7215
16.1648
16.594
17.0064
17.4072
17.8053
18.2102
18.6306
19.0733
19.5437
20.0455
20.5811
21.1516
21.7573
22.3978
23.069
16.8014
18.9924
20.8257
22.332
23.6508
24.8866
26.117
27.404
28.796
30.3284
32.0257
33.9035
35.9702
38.2277
40.6729
43.2995
46.0988
49.051
28.5782
35.9836
40.2657
43.412
46.4289
49.788
53.7666
58.5411
64.2154
70.8435
78.4428
87.0015
96.4828
106.829
117.968
129.817
142.3
155.272
152.473
136.937
124.075
113.447
104.755
97.759
92.2707
88.1277
85.1848
83.309
82.3768
82.2729
82.8899
84.1278
85.895
88.1076
90.691
93.5696
42.6499
75.8715
93.5331
101.924
104.846
104.09
100.757
95.0656
91.3251
88.8054
87.2953
86.4545
86.6466
91.3057
112.025
177.726
274.67
380.437
490.26
597.874
698.802
790.196
870.502
939.13
996.178
1042.21
1078.08
1104.85
1123.65
1135.69
1142.19
1144.37
1143.5
1139.37
1131.85
1121.25
1107.79
1091.63
1072.89
1051.71
1028.22
1002.57
974.909
945.437
914.37
881.969
848.548
814.489
780.252
746.397
713.625
682.9
655.761
635.154
627.008
638.804
660.923
685.846
711.059
734.642
754.166
765.991
764.445
741.785
692.86
623.808
548.546
464.096
374.658
288.668
214.676
157.636
118.022
93.4588
80.6613
76.5284
78.9229
84.9219
91.7076
97.762
102.478
106.27
110.285
115.82
123.864
134.124
146.753
167.939
216.985
334.253
492.241
640.736
773.976
887.075
978.949
1050.51
1103.62
1140.55
1163.63
1175.14
1177.26
1172.07
1161.52
1146.94
1128.61
1107.08
1082.72
1055.83
1026.6
995.117
961.376
925.254
886.524
844.88
799.991
751.595
699.631
644.404
587.084
531.29
493.164
486.399
482.468
477.685
472.197
466.481
460.952
455.907
451.535
447.912
445.001
442.685
440.783
438.717
434.079
423.356
403.705
373.388
332.506
283.606
231.557
182.352
141.123
110.489
90.2521
78.4114
72.317
69.5039
68.1126
66.9751
65.5795
63.9563
64.5143
63.035
64.2816
14.7234
13.7279
12.559
11.4866
10.7281
10.3773
10.3831
10.6945
11.3388
12.4546
14.086
15.6475
75.0006
119.357
186.833
245.854
291.365
322.238
340.59
351.294
351.793
340.921
318.881
286.286
245.281
101.243
108.406
109.578
108.829
109.147
112.249
121.291
146.783
187.863
247.501
327.331
396.857
443.866
471.45
487.172
498.518
506.564
511.006
511.24
507.075
498.757
486.81
471.922
454.879
436.53
417.768
399.501
382.634
368.042
356.559
348.928
345.75
347.943
352.189
356.846
361.597
366.196
370.427
374.101
377.057
379.165
380.322
380.454
379.515
377.494
374.424
370.385
365.52
360.035
354.202
348.354
342.881
338.223
334.847
333.151
332.937
333.376
333.777
333.591
332.272
329.41
324.954
319.481
313.954
308.843
304.016
297.834
286.724
273.917
262.66
251.909
236.535
211.496
176.871
138.739
105.099
81.2058
68.4549
64.1212
64.4188
66.9108
71.3865
81.0167
106.433
165.81
268.145
379.874
440.482
451.447
456.572
453.666
444.29
430.022
412.749
394.057
375.232
357.3
341.077
327.236
316.362
309.005
305.64
306.761
310.363
314.147
318.021
321.932
325.816
329.587
333.132
336.291
338.848
340.514
340.912
339.591
336.056
329.838
320.614
308.345
293.396
278.173
263.809
248.527
232.806
217.157
201.962
187.483
173.88
161.231
149.563
138.868
129.105
120.247
112.422
107.712
107.312
108.838
110.633
111.643
111.592
110.944
110.614
111.428
113.632
116.762
119.869
121.914
122.079
119.949
115.625
109.499
101.983
92.7546
83.3306
72.1009
60.249
50.0212
40.9797
33.0967
26.4884
21.4676
18.4723
17.7656
19.591
25.4719
40.3657
70.231
108.332
126.967
135.841
140.052
140.708
139.554
138.739
140.704
142.458
142.396
139.639
133.324
123.686
145.71
172.519
174.532
180.471
196.329
233.64
280.507
325.073
368.693
405.906
430.794
439.925
436.122
424.757
410.522
395.966
381.478
366.772
351.575
335.897
320.025
304.432
289.677
276.307
264.789
255.465
248.53
244.036
241.9
241.924
243.824
247.252
251.919
257.198
262.818
268.573
274.269
279.726
284.791
289.332
293.236
296.398
298.711
300.068
300.364
299.511
297.463
294.239
289.943
284.772
279.008
272.993
267.1
261.699
257.114
253.582
251.335
249.928
249.044
248.325
247.421
246.128
244.581
243.334
243.03
243.591
243.208
239.352
230.494
219.762
211.296
205.039
196.785
181.769
158.992
132.338
107.76
89.9581
81.9855
83.5035
93.35
114.383
162.664
255.927
370.329
432.428
420.627
388.687
356.164
329.823
307.012
286.909
269.312
254.28
241.877
232.141
225.061
220.553
218.458
218.545
220.535
224.111
228.941
234.331
240.006
245.901
251.973
258.183
264.487
270.825
277.101
283.161
288.765
293.562
297.065
298.668
297.706
293.562
285.758
274.075
260.894
246.337
230.614
214.379
198.183
182.426
167.37
153.17
139.901
127.586
116.219
105.768
96.1989
87.4901
79.6448
72.9063
67.6168
63.7159
60.9415
58.8778
57.135
55.5011
53.9389
52.4806
51.173
50.1046
49.416
49.2166
49.4667
49.9712
50.4914
50.841
50.8328
50.3371
49.0236
46.6496
43.2181
38.8364
33.7626
28.4234
23.5049
20.0444
19.447
23.2621
34.8236
59.627
93.3849
114.125
118.402
120.781
121.237
120.096
119.188
119.764
121.976
124.208
125.702
125.504
122.458
116.183
169.661
309.652
284.906
297.945
319.67
336.684
351.125
363.179
370.764
371.944
366.321
355.175
340.952
325.928
311.447
297.883
285.049
272.716
260.817
249.452
238.794
229.021
220.289
212.736
206.495
201.673
198.336
196.487
196.058
196.918
198.89
201.766
205.418
209.5
213.793
218.116
222.321
226.309
230.026
233.457
236.602
239.448
241.938
243.951
245.297
245.742
245.051
243.045
239.65
234.936
229.117
222.531
215.595
208.763
202.48
197.239
193.6
191.279
190.167
190.088
190.775
191.902
193.146
194.291
195.351
196.57
197.977
198.792
197.495
192.131
184.475
177.596
171.664
164.01
152.13
136.42
120.241
108.159
105.024
116.392
147.146
211.622
313.235
405.825
425.106
386.861
339.592
300.28
270.667
248.777
231.826
218.575
208.346
200.677
195.259
191.889
190.385
190.524
192.035
194.625
198.01
201.941
206.266
210.795
215.461
220.222
225.059
229.97
234.964
240.052
245.23
250.449
255.578
260.364
264.387
267.052
267.63
265.331
259.428
250.574
239.73
227.132
213.4
199.173
184.959
171.111
157.85
145.291
133.483
122.428
112.11
102.499
93.5618
85.2689
77.5882
70.4913
64.0066
58.1471
52.9474
48.4384
44.593
41.3035
38.4204
35.8142
33.4173
31.2355
29.3326
27.7932
26.676
25.985
25.6808
25.7092
26.0068
26.4915
27.0108
27.3434
27.2346
26.4448
24.8493
22.5647
20.136
18.7635
20.3164
27.4861
43.9474
71.9676
100.625
113.201
116.431
119.228
119.976
119.444
119.141
119.587
120.593
121.54
122.049
121.41
118.429
112.665
805.698
429.687
402.541
393.418
376.833
360.211
345.979
333.603
321.752
309.54
296.863
284.151
271.984
260.716
250.385
240.819
231.801
223.157
214.772
206.589
198.627
191.004
183.93
177.654
172.412
168.374
165.624
164.163
163.93
164.817
166.681
169.422
172.603
175.894
179.034
181.809
184.078
185.795
187.032
187.965
188.841
189.907
191.333
193.134
195.13
196.968
198.183
198.305
196.97
194.001
189.457
183.616
176.917
169.878
163.013
157.116
152.605
149.426
147.619
147.136
147.825
149.44
151.666
154.154
156.576
158.739
160.676
162.505
163.949
164.091
160.883
155.81
150.762
146.04
140.698
134.474
129.146
128.835
140.203
174.195
244.837
343.702
418.672
415.32
363.293
310.045
268.499
239.086
218.608
204.18
193.785
186.25
180.834
177.14
174.976
174.187
174.577
175.906
177.932
180.433
183.22
186.14
189.156
192.204
195.228
198.189
201.075
203.906
206.733
209.631
212.682
215.94
219.392
222.9
226.14
228.577
229.473
227.967
223.725
217.207
208.655
198.558
187.53
176.134
164.797
153.799
143.288
133.326
123.916
115.032
106.64
98.7032
91.1859
84.0526
77.2681
70.7976
64.6142
58.7328
53.1798
48.0017
43.2584
38.9978
35.2276
31.9091
28.9772
26.3711
24.0566
22.0292
20.3011
18.8836
17.7783
16.9801
16.4792
16.2564
16.266
16.4221
16.5962
16.633
16.4014
15.903
15.4976
16.3014
20.4971
31.1129
50.9476
78.4803
101.646
111.489
116.809
121.362
123.202
123.39
123.07
122.408
121.345
119.952
118.263
115.933
111.888
105.961
882.013
509.095
468.508
433.135
391.665
353.012
321.812
297.906
279.415
264.602
252.319
241.872
232.812
224.77
217.384
210.297
203.184
195.816
188.113
180.182
172.289
164.792
158.059
152.401
148.031
145.061
143.515
143.344
144.441
146.655
149.789
153.621
157.609
161.386
164.576
166.815
167.806
167.398
165.652
162.886
159.661
156.683
154.632
153.961
154.751
156.681
159.116
161.266
162.374
161.879
159.533
155.438
149.976
143.686
137.186
131.421
126.61
122.908
120.441
119.235
119.2
120.15
121.839
124.006
126.381
128.708
130.84
132.85
134.863
136.668
137.158
135.383
132.659
130.638
130.276
132.293
138.566
154.001
188.44
254.282
348.325
424.329
419.047
355.865
295.917
251.533
221.259
201.156
187.784
178.745
172.422
167.883
164.692
162.669
161.686
161.58
162.158
163.241
164.674
166.331
168.106
169.898
171.729
173.499
175.128
176.557
177.762
178.765
179.639
180.507
181.518
182.815
184.487
186.497
188.615
190.374
191.049
189.958
186.91
181.911
175.226
167.34
158.804
150.096
141.555
133.372
125.623
118.309
111.388
104.807
98.512
92.4587
86.6094
80.931
75.3924
69.9534
64.574
59.2699
54.0755
49.0466
44.254
39.7705
35.6535
31.9305
28.5962
25.6227
22.9766
20.633
18.5796
16.8101
15.3178
14.0929
13.1243
12.3996
11.9002
11.5952
11.4371
11.3685
11.3524
11.4513
12.0237
14.1497
20.1197
33.1645
55.036
81.1349
100.587
110.03
117.459
123.824
126.899
127.583
126.818
124.619
121.129
117.035
112.8
108.375
103.009
96.8538
1005.38
539.645
483.182
436.055
382.896
334.593
297.128
270.273
251.361
237.773
227.605
219.568
212.759
206.482
200.16
193.359
185.849
177.653
169.031
160.4
152.233
144.966
138.943
134.392
131.433
130.092
130.315
131.986
134.93
138.921
143.686
149.068
154.795
160.477
165.602
169.556
171.683
171.398
168.354
162.629
154.861
146.237
138.245
132.231
128.968
128.468
130.105
132.85
135.574
137.258
137.206
135.194
131.426
126.398
120.955
115.796
111.201
107.441
104.696
103.029
102.379
102.575
103.398
104.661
106.229
107.966
109.711
111.378
113.046
114.827
116.508
116.919
116.572
117.228
120.973
129.737
146.131
175.88
230.117
316.341
406.289
430.367
368.019
296.133
245.339
212.05
190.739
177.149
168.351
162.379
158.063
154.869
152.589
151.104
150.28
149.977
150.074
150.481
151.136
151.982
152.958
153.993
155.084
156.066
156.821
157.259
157.33
157.045
156.484
155.796
155.186
154.868
155.006
155.654
156.647
157.582
157.814
156.84
154.359
150.338
145.04
138.912
132.431
125.983
119.816
114.035
108.647
103.596
98.8054
94.1979
89.7106
85.2973
80.9264
76.5747
72.22
67.8232
63.3619
58.8331
54.2585
49.6883
45.1955
40.8622
36.7626
32.95
29.451
26.2686
23.3922
20.8087
18.5091
16.4875
14.7373
13.2478
12.0051
10.9934
10.1953
9.59106
9.1587
8.88214
8.77874
8.9703
9.85934
12.5315
19.3124
33.5295
56.2426
81.1091
98.5304
108.401
117.384
124.961
129.042
130.154
128.835
125.127
119.358
112.702
106.129
99.8903
93.4544
86.8234
1073.51
531.201
464.961
415.656
361.75
313.257
276.445
251.159
234.453
223.312
215.461
209.289
203.622
197.597
190.653
182.57
173.474
163.758
153.958
144.625
136.237
129.151
123.595
119.685
117.442
116.814
117.7
119.963
123.448
127.979
133.358
139.825
147.312
155.53
163.992
171.974
178.507
182.441
182.603
178.124
168.9
155.991
141.627
128.537
118.869
113.481
112.025
113.359
116.115
118.906
120.546
120.37
118.281
114.743
110.576
106.272
102.252
98.833
96.2249
94.5182
93.6638
93.4791
93.7174
94.1908
94.8492
95.7157
96.7357
97.7592
98.7106
99.701
101.025
102.147
103.253
105.907
112.635
126.223
150.101
190.847
258.975
350.698
415.854
394.694
312.783
249.678
209.865
185.363
170.277
160.859
154.683
150.277
146.916
144.309
142.322
140.843
139.768
139.023
138.568
138.39
138.482
138.819
139.353
140.023
140.748
141.322
141.601
141.468
140.846
139.725
138.183
136.382
134.567
133.022
131.946
131.478
131.481
131.579
131.286
130.146
127.884
124.501
120.251
115.531
110.734
106.155
101.945
98.131
94.6557
91.4193
88.315
85.2499
82.1548
78.9859
75.7217
72.3557
68.886
65.3001
61.602
57.7762
53.8267
49.7839
45.7054
41.6661
37.7436
34.0038
30.4926
27.2353
24.2419
21.5148
19.0539
16.8584
14.9251
13.2465
11.8109
10.6036
9.60857
8.80926
8.19123
7.75136
7.52554
7.65782
8.56586
11.3122
18.1642
32.4396
54.9992
78.9383
95.4854
105.99
115.882
124.153
128.884
130.173
128.316
123.478
116.092
107.63
99.2791
91.5654
84.1934
77.1236
1096.01
502.015
430.283
384.675
336.483
293.045
260.303
238.468
224.827
216.333
210.52
205.549
200.093
193.322
184.91
175.003
164.086
152.804
141.801
131.617
122.648
115.144
109.229
104.924
102.17
100.861
100.877
102.117
104.528
108.112
112.908
119.398
127.6
137.426
148.59
160.543
172.396
182.857
190.197
192.388
187.669
175.573
157.894
138.566
121.826
110.186
104.068
102.333
103.509
106.044
108.375
109.399
108.698
106.587
103.589
100.235
96.9766
94.155
92.0005
90.6225
89.9844
89.8886
90.0307
90.1508
90.1923
90.291
90.55
90.853
90.9964
90.9842
91.1879
91.955
93.4482
97.0987
105.503
121.9
150.441
198.394
273.097
357.514
393.886
348.038
267.485
215.496
184.809
166.634
155.687
148.81
144.092
140.516
137.638
135.274
133.313
131.672
130.303
129.199
128.381
127.876
127.692
127.801
128.141
128.629
129.141
129.461
129.438
128.938
127.868
126.195
123.992
121.426
118.751
116.342
114.372
113.065
112.245
111.61
110.761
109.334
107.141
104.224
100.828
97.2877
93.9114
90.8961
88.307
86.1003
84.1669
82.3746
80.5974
78.7318
76.7018
74.4609
71.9899
69.2929
66.3903
63.3178
60.1074
56.7549
53.2614
49.6434
45.9376
42.1995
38.4949
34.8886
31.4349
28.1738
25.1317
22.3252
19.7647
17.456
15.4
13.5919
12.022
10.6772
9.54281
8.60447
7.85148
7.286
6.94881
6.98438
7.79422
10.3719
16.8304
30.3522
51.9223
74.9773
91.3106
102.416
112.721
121.278
126.337
127.667
125.428
119.885
111.597
102.05
92.5375
83.7767
75.731
68.3969
1084.14
465.789
391.712
352.19
312.136
275.642
248.016
229.995
219.393
213.323
209.211
205.042
199.431
191.678
181.742
170.095
157.474
144.663
132.342
121.023
111.054
102.628
95.8091
90.5451
86.7003
84.0969
82.5768
82.0687
82.6395
84.5168
88.083
93.7893
101.707
111.883
124.196
138.306
153.598
169.102
183.325
193.942
197.875
192.348
176.887
155.027
132.847
115.188
104.033
98.4463
96.9661
98.063
100.03
101.448
101.66
100.603
98.6065
96.1508
93.69
91.5803
90.0637
89.2629
89.1568
89.5461
90.0737
90.3689
90.2739
89.9423
89.6216
89.3052
88.7095
87.6911
86.6107
86.3349
87.3685
91.0838
100.01
117.581
148.564
200.229
274.676
344.938
358.508
304.284
233.702
190.397
166.581
152.825
144.581
139.256
135.4
132.314
129.708
127.446
125.445
123.666
122.114
120.828
119.858
119.235
118.952
118.958
119.166
119.48
119.764
119.818
119.501
118.689
117.278
115.217
112.583
109.541
106.295
103.359
100.888
98.9706
97.517
96.2776
94.9379
93.2444
91.1012
88.5948
85.9483
83.4309
81.262
79.5497
78.2817
77.3577
76.6348
75.9674
75.2283
74.3154
73.1499
71.674
69.8524
67.6766
65.1702
62.4069
59.4446
56.3164
53.0475
49.6609
46.1848
42.6572
39.1256
35.6426
32.2589
29.0189
25.9583
23.1045
20.4775
18.0901
15.9477
14.0488
12.3854
10.9454
9.71444
8.67868
7.82861
7.16811
6.73774
6.67352
7.34426
9.64499
15.4677
27.741
47.6756
69.6482
86.0081
97.5787
107.945
116.483
121.643
122.979
120.569
114.734
106.099
96.0578
85.9245
76.5608
68.1669
60.8054
1041.3
430.312
356.361
323.128
291.219
261.604
238.828
224.189
216.177
212.191
209.611
206.278
200.74
192.38
181.347
168.324
154.218
139.915
126.149
113.47
102.248
92.6813
84.7941
78.4527
73.4061
69.3635
66.1054
63.6088
62.1322
62.223
64.7573
69.7304
77.2329
87.321
99.9488
114.897
131.707
149.683
167.859
184.461
196.296
199.241
190.114
170.303
146.141
124.34
108.999
99.7234
95.2585
94.1686
94.9027
96.018
96.534
96.087
94.8104
93.0891
91.3503
89.9491
89.132
89.0289
89.6346
90.7667
92.0484
93.0104
93.339
93.0932
92.5886
91.9577
90.9038
89.0815
86.7603
85.0645
85.0604
88.1304
96.7271
114.389
146.293
198.624
267.71
322.263
321.015
267.64
208.381
172.453
153.106
142.193
135.675
131.343
128.05
125.298
122.876
120.684
118.671
116.84
115.231
113.907
112.915
112.267
111.927
111.815
111.829
111.903
111.88
111.593
110.928
109.793
108.081
105.721
102.792
99.525
96.1374
92.9402
90.1554
87.8683
85.9988
84.3355
82.6481
80.7948
78.7674
76.679
74.7196
73.0897
71.9258
71.2549
70.9984
71.0142
71.1479
71.2661
71.2676
71.076
70.6255
69.8503
68.6844
67.075
65.008
62.5377
59.7398
56.6942
53.4717
50.1293
46.711
43.254
39.7949
36.372
33.0258
29.7959
26.7195
23.8287
21.1493
18.6996
16.4894
14.5202
12.7863
11.2764
9.9765
8.8725
7.95455
7.22578
6.72339
6.57037
7.09551
9.08352
14.1766
24.9703
42.8573
63.4354
79.7397
91.576
101.752
110.048
115.153
116.504
114.108
108.304
99.7194
89.6293
79.3295
69.7879
61.3971
54.2685
965.343
402.939
327.71
299.82
274.929
251.25
232.48
220.424
214.331
212.025
210.942
208.789
203.967
195.786
184.415
170.611
155.379
139.707
124.436
110.228
97.5602
86.6995
77.6734
70.2768
64.1355
58.8233
54.0206
49.693
46.3001
45.0022
47.2871
52.1704
59.6086
69.6091
82.1997
97.2966
114.543
133.304
152.916
172.212
188.41
197.455
194.745
179.534
156.94
134.287
116.239
103.89
96.5968
93.2096
92.3505
92.6025
92.8571
92.5543
91.6547
90.4331
89.2625
88.4777
88.3184
88.9148
90.274
92.2422
94.4638
96.4262
97.6756
98.1076
98.0029
97.6095
96.6708
94.6142
91.3886
88.1955
86.7695
88.6455
96.2951
113.373
145.054
195.431
256.065
296.277
286.723
238.439
189.302
159.144
142.881
133.829
128.39
124.68
121.775
119.272
116.997
114.879
112.908
111.106
109.531
108.242
107.271
106.601
106.172
105.884
105.627
105.391
104.994
104.308
103.218
101.698
99.6839
97.149
94.1473
90.822
87.3998
84.1502
81.2805
78.856
76.7856
74.8925
73.0341
71.1724
69.3634
67.7223
66.3965
65.5206
65.1548
65.2506
65.6716
66.2513
66.8466
67.3642
67.7569
68.0016
68.0726
67.918
67.4501
66.5563
65.127
63.1311
60.6284
57.7181
54.5159
51.1303
47.649
44.1356
40.6354
37.184
33.8135
30.5562
27.4446
24.5097
21.7786
19.272
17.0022
14.973
13.1803
11.614
10.2603
9.10495
8.13742
7.35925
6.80272
6.57569
6.96404
8.64079
12.998
22.2671
37.9239
56.8022
72.7796
84.6489
94.4448
102.319
107.247
108.614
106.359
100.799
92.5331
82.7247
72.6423
63.3247
55.2894
48.6463
861.848
395.959
309.063
283.179
263.714
245.046
229.573
219.283
214.2
212.815
212.872
212.076
208.649
201.661
191.073
177.515
161.962
145.45
128.928
113.206
98.9292
86.5176
76.1047
67.5276
60.4052
54.2917
48.856
44.0032
39.9946
38.2487
40.2296
45.0912
52.4517
62.2218
74.4545
89.1613
106.093
124.649
144.049
163.39
180.912
192.939
194.583
183.589
163.505
141.307
122.27
108.217
98.9894
93.7575
91.3652
90.521
90.1349
89.5817
88.7222
87.7396
86.9416
86.6236
87.0044
88.2059
90.2408
92.9837
96.1254
99.1733
101.603
103.154
104.01
104.493
104.456
103.14
100.022
95.7104
92.6863
92.9486
99.1948
115.193
145.559
191.815
242.613
270.951
257.502
215.641
174.859
149.079
134.89
126.992
122.228
118.942
116.334
114.049
111.937
109.94
108.062
106.346
104.852
103.623
102.665
101.936
101.359
100.832
100.255
99.634
98.8159
97.6998
96.2149
94.3371
92.0575
89.3695
86.3169
83.0213
79.6883
76.553
73.7832
71.4053
69.3141
67.3727
65.5259
63.8169
62.3299
61.1588
60.4057
60.1462
60.3679
60.9501
61.7104
62.4787
63.1478
63.683
64.104
64.4538
64.7675
65.0399
65.2001
65.0986
64.4957
63.2594
61.3587
58.846
55.8401
52.492
48.9476
45.3246
41.7061
38.1468
34.6845
31.3491
28.1686
25.1698
22.3773
19.811
17.4832
15.3983
13.5529
11.9373
10.5379
9.34015
8.33285
7.51581
6.91621
6.62675
6.89099
8.27492
11.936
19.7479
33.173
50.1328
65.4557
77.1277
86.4006
93.6964
98.3163
99.6602
97.6002
92.4002
84.6299
75.3644
65.8425
57.1284
49.7759
43.8298
181.703
333.914
291.239
271.131
256.887
242.696
230.061
221.023
216.256
215.01
215.585
215.925
214.192
209.188
200.523
188.509
173.909
157.679
140.787
124.138
108.517
94.5208
82.4735
72.3982
64.0774
57.1952
51.4986
46.9073
43.6186
42.5628
44.3106
48.6782
55.5172
64.7726
76.4644
90.5806
106.886
124.798
143.533
162.22
179.285
191.396
193.931
184.453
165.932
144.754
125.91
111.302
101.05
94.5927
90.9682
89.0388
87.826
86.7516
85.6601
84.6807
84.0584
84.0367
84.7998
86.4516
89.0031
92.3502
96.2332
100.215
103.77
106.537
108.584
110.283
111.693
112.058
110.307
106.328
102.107
100.76
105.429
119.924
147.856
188.395
229.219
248.259
233.545
197.956
163.825
141.351
128.54
121.32
116.959
113.961
111.587
109.499
107.554
105.701
103.955
102.359
100.963
99.7901
98.8215
97.9964
97.2291
96.4296
95.521
94.5134
93.2891
91.7683
89.9129
87.714
85.1871
82.356
79.2754
76.0624
72.9014
69.9882
67.4387
65.2337
63.2597
61.4296
59.7656
58.3548
57.2699
56.5686
56.315
56.5323
57.1361
57.9411
58.7427
59.3973
59.8522
60.1315
60.3068
60.4709
60.7145
61.0986
61.6171
62.1404
62.3677
62.0831
61.1067
59.3605
56.888
53.8302
50.3749
46.7052
42.9682
39.2661
35.6643
32.205
28.9186
25.8297
22.9595
20.3247
17.9358
15.7957
13.9003
12.2395
10.7992
9.56418
8.52244
7.67186
7.03472
6.68951
6.84057
7.95574
10.981
17.4604
28.7707
43.7078
58.0861
69.3679
78.0318
84.6244
88.7889
90.0173
88.1306
83.3322
76.1824
67.6906
59.0495
51.2806
44.8742
39.7576
173.504
324.367
287.168
265.015
253.098
242.927
233.17
225.314
220.548
218.905
219.395
220.432
220.32
217.699
211.811
202.546
190.308
175.814
159.923
143.516
127.433
112.393
98.9175
87.2831
77.535
69.5747
63.2699
58.544
55.4613
54.7397
56.6123
60.9256
67.5929
76.6008
87.9633
101.612
117.235
134.207
151.739
168.926
184.112
193.995
194.41
183.744
165.372
145.104
127.008
112.576
102.002
94.8731
90.3566
87.4637
85.3798
83.6485
82.1592
81.0187
80.4166
80.5378
81.5226
83.4503
86.326
90.0605
94.4365
99.0796
103.497
107.269
110.346
113.099
115.841
118.117
118.676
116.636
112.853
110.849
114.31
127.026
151.553
185.451
216.955
228.941
214.341
184.25
155.338
135.381
123.479
116.611
112.452
109.632
107.437
105.525
103.745
102.049
100.445
98.972
97.6625
96.5215
95.5141
94.5731
93.6154
92.5592
91.3489
89.9901
88.3982
86.5171
84.3292
81.8476
79.1091
76.1628
73.0813
69.9862
67.0452
64.4132
62.1512
60.1989
58.449
56.8712
55.5403
54.5386
53.8951
53.6344
53.7966
54.3542
55.1521
55.9645
56.6048
56.9862
57.1135
57.0469
56.8739
56.6978
56.6332
56.7957
57.2652
58.0017
58.7843
59.3644
59.4263
58.7188
57.1278
54.699
51.6023
48.0636
44.3005
40.4851
36.736
33.1279
29.707
26.5032
23.537
20.822
18.3656
16.168
14.2232
12.5193
11.0412
9.77243
8.69974
7.81884
7.14704
6.74971
6.79603
7.66698
10.1236
15.4167
24.7925
37.7034
50.9235
61.6812
69.7273
75.5638
79.1447
80.13
78.3412
73.9404
67.5132
60.0109
52.5332
45.9705
40.6603
36.3916
178.378
375.141
325.399
281.738
258.933
246.704
238.25
231.59
226.967
224.768
224.729
225.927
227.062
226.826
224.216
218.697
210.22
199.123
185.997
171.571
156.613
141.863
127.962
115.395
104.472
95.3465
88.0702
82.65
79.1275
78.0614
79.4851
83.3636
89.6588
98.3281
109.281
122.289
136.874
152.331
167.87
182.484
194.195
199.571
195.302
181.495
162.401
142.92
125.776
111.906
101.461
94.0509
88.9024
85.1806
82.2706
79.8734
77.9461
76.5828
75.9182
76.0758
77.1491
79.1919
82.2048
86.1143
90.742
95.774
100.767
105.27
109.092
112.511
116.036
119.7
122.615
123.528
122.29
121.428
124.686
135.68
156.165
183.015
206.034
212.569
198.694
173.289
148.587
130.645
119.365
112.627
108.514
105.775
103.707
101.949
100.333
98.7968
97.3398
95.9845
94.748
93.6205
92.5594
91.4979
90.3597
89.0719
87.6018
85.9484
84.0497
81.872
79.4163
76.714
73.8202
70.8044
67.7585
64.813
62.123
59.804
57.867
56.2259
54.7986
53.6056
52.73
52.199
51.9874
52.1103
52.5969
53.365
54.2024
54.8864
55.2908
55.3974
55.2491
54.9084
54.4418
53.9258
53.4617
53.1827
53.2334
53.6877
54.5519
55.6026
56.4869
56.8184
56.2928
54.7786
52.3383
49.1766
45.5556
41.7206
37.8618
34.1082
30.5396
27.2024
24.1229
21.3147
18.7823
16.5227
14.5268
12.7803
11.266
9.96589
8.8648
7.95596
7.25156
6.80458
6.7528
7.40158
9.35288
13.6018
21.2372
32.1773
44.0926
54.2471
61.753
66.8971
69.8533
70.5
68.734
64.7253
59.1218
52.7917
46.671
41.4324
37.2081
33.6738
771.229
427.334
408.232
341.777
293.33
265.186
249.428
240.163
234.568
231.641
230.933
231.87
233.581
235.014
235.153
233.225
228.807
221.847
212.598
201.536
189.266
176.447
163.724
151.673
140.765
131.354
123.684
117.93
114.259
113.144
114.41
118.046
123.992
132.122
142.201
153.816
166.351
179.087
191.227
201.453
207.235
205.302
194.229
176.534
156.777
138.176
122.08
109.011
98.9826
91.5097
85.8701
81.4283
77.801
74.8484
72.5782
71.0538
70.344
70.508
71.5938
73.6339
76.6311
80.5352
85.213
90.4161
95.7693
100.83
105.284
109.218
113.161
117.59
122.221
126.036
128.2
129.854
134.026
143.871
160.692
181.463
197.871
200.638
187.565
165.603
143.923
127.42
116.496
109.707
105.495
102.724
100.699
99.036
97.5408
96.1316
94.7887
93.5178
92.3204
91.1765
90.04
88.8468
87.5279
86.0212
84.3055
82.383
80.2124
77.7799
75.1032
72.229
69.2269
66.1829
63.2073
60.4412
58.0275
56.0448
54.4657
53.2017
52.21
51.5367
51.2128
51.1714
51.3526
51.7961
52.5204
53.3833
54.1506
54.6546
54.8512
54.7733
54.4707
53.9817
53.3348
52.5663
51.7415
50.975
50.4345
50.3221
50.8242
51.8425
53.0923
54.1498
54.569
54.0241
52.4049
49.8193
46.5177
42.7929
38.9049
35.0472
31.3468
27.8787
24.6829
21.7775
19.1663
16.8438
14.7978
13.011
11.4638
10.1359
9.01026
8.07728
7.34414
6.85249
6.71308
7.16832
8.68938
12.0572
18.1922
27.3027
37.8402
47.3384
54.4331
59.0655
61.4876
61.7905
60.0143
56.3985
51.6577
46.5672
41.8284
37.8342
34.509
31.4791
177.518
381.442
472.823
433.796
366.343
312.52
277.824
257.392
246.051
240.343
238.257
238.573
240.352
242.688
244.68
245.519
244.594
241.569
236.392
229.258
220.557
210.795
200.537
190.351
180.762
172.227
165.127
159.778
156.483
155.477
156.505
159.578
164.604
171.379
179.552
188.604
197.914
206.808
214.272
218.339
216.127
205.738
188.627
168.745
149.282
131.663
116.578
104.35
94.7764
87.2866
81.2829
76.3583
72.3227
69.124
66.7627
65.2458
64.5772
64.7651
65.8275
67.7877
70.6587
74.419
78.9827
84.1686
89.6787
95.1201
100.126
104.602
108.935
113.806
119.531
125.554
130.928
135.56
141.368
150.763
164.719
180.664
192.081
192.189
179.779
160.296
140.795
125.33
114.598
107.655
103.245
100.353
98.2958
96.6682
95.2477
93.9272
92.6654
91.4496
90.2682
89.0942
87.8809
86.5693
85.0985
83.4155
81.5053
79.3744
77.0007
74.3875
71.5668
68.5965
65.5558
62.5431
59.6847
57.1301
55.0092
53.3707
52.1704
51.3408
50.8744
50.7918
51.0135
51.38
51.85
52.5157
53.3714
54.2283