/*--------------------------------*- C++ -*----------------------------------*\
  =========                 |
  \\      /  F ield         | OpenFOAM: The Open Source CFD Toolbox
   \\    /   O peration     | Website:  https://openfoam.org
    \\  /    A nd           | Version:  9
     \\/     M anipulation  |
\*---------------------------------------------------------------------------*/
FoamFile
{
    format      ascii;
    class       volScalarField;
    location    "0.19";
    object      k;
}
// * * * * * * * * * * * * * * * * * * * * * * * * * * * * * * * * * * * * * //

dimensions      [0 2 -2 0 0 0 0];

internalField   nonuniform List<scalar> 
12225
(
0.314458
0.26412
0.226182
0.198674
0.180135
0.169346
0.165179
0.166507
0.172191
0.181113
0.19223
0.204613
0.217483
0.230224
0.242392
0.253701
0.264103
0.277077
0.361955
0.349987
0.3469
0.356041
0.377496
0.409938
0.451196
0.498562
0.549192
0.600456
0.650182
0.696762
0.739164
0.776886
0.809917
0.838624
0.864454
0.88688
0.36851
0.36263
0.357014
0.352856
0.351263
0.352617
0.35684
0.363587
0.372337
0.382479
0.393411
0.404596
0.415615
0.426187
0.436204
0.445802
0.455513
0.466264
0.369753
0.364158
0.358724
0.353707
0.349448
0.346127
0.343746
0.3422
0.341331
0.340957
0.340904
0.341021
0.341191
0.34134
0.341436
0.341517
0.341702
0.342211
0.370289
0.365261
0.360295
0.355495
0.350982
0.346847
0.343126
0.339804
0.336839
0.334168
0.331725
0.329448
0.327285
0.325199
0.323164
0.321176
0.319255
0.317457
0.370514
0.365868
0.361311
0.356867
0.352582
0.348503
0.344658
0.341054
0.337681
0.334521
0.331549
0.328738
0.326064
0.323505
0.321044
0.318673
0.316392
0.314228
0.370599
0.366149
0.36185
0.357691
0.353676
0.349822
0.346138
0.342629
0.339294
0.336127
0.333119
0.330257
0.32753
0.324927
0.322436
0.320052
0.317772
0.315619
0.370626
0.36626
0.362099
0.358117
0.3543
0.350644
0.347145
0.3438
0.340606
0.337558
0.334651
0.331877
0.329231
0.326705
0.324293
0.32199
0.319793
0.317725
0.370633
0.366297
0.362196
0.358305
0.354604
0.351077
0.347715
0.344508
0.341448
0.338527
0.335741
0.333082
0.330545
0.328124
0.325814
0.323611
0.321514
0.319541
0.370633
0.366306
0.362227
0.358374
0.354727
0.35127
0.347989
0.34487
0.341903
0.339079
0.336389
0.333826
0.331384
0.329056
0.326839
0.324727
0.322718
0.32083
0.370632
0.366305
0.362232
0.358391
0.354766
0.351339
0.348096
0.345024
0.342109
0.339343
0.336714
0.334215
0.331839
0.329579
0.327429
0.325385
0.323443
0.32162
0.370631
0.366303
0.362229
0.358391
0.354772
0.351354
0.348125
0.34507
0.342178
0.339437
0.336837
0.334371
0.332029
0.329806
0.327694
0.325689
0.323786
0.322003
0.37063
0.366301
0.362226
0.358387
0.354768
0.351353
0.348128
0.34508
0.342196
0.339467
0.336881
0.33443
0.332107
0.329903
0.327813
0.32583
0.323951
0.322192
0.370629
0.366298
0.362222
0.358381
0.354761
0.351345
0.34812
0.345072
0.342191
0.339465
0.336884
0.33444
0.332125
0.32993
0.32785
0.325878
0.324012
0.322266
0.370628
0.366297
0.362218
0.358376
0.354754
0.351336
0.348109
0.34506
0.342177
0.339451
0.33687
0.334427
0.332112
0.32992
0.327842
0.325874
0.324011
0.322268
0.370627
0.366295
0.362216
0.358372
0.354747
0.351327
0.348098
0.345047
0.342162
0.339434
0.336851
0.334406
0.33209
0.329895
0.327816
0.325846
0.323982
0.322238
0.370627
0.366294
0.362214
0.358369
0.354743
0.351321
0.348089
0.345036
0.342149
0.339417
0.336832
0.334384
0.332065
0.329867
0.327784
0.325811
0.323942
0.322194
0.370627
0.366293
0.362213
0.358367
0.354739
0.351316
0.348083
0.345027
0.342137
0.339403
0.336815
0.334363
0.332039
0.329837
0.32775
0.32577
0.323895
0.322139
0.370627
0.366293
0.362212
0.358366
0.354738
0.351314
0.348079
0.345021
0.342129
0.339392
0.336799
0.334343
0.332015
0.329807
0.327713
0.325726
0.323843
0.322078
0.370627
0.366294
0.362213
0.358367
0.354739
0.351314
0.348079
0.34502
0.342126
0.339386
0.336791
0.334332
0.331999
0.329786
0.327686
0.325692
0.323801
0.322028
0.370627
0.366295
0.362215
0.358369
0.354742
0.351317
0.348081
0.345022
0.342126
0.339385
0.336787
0.334323
0.331987
0.329769
0.327663
0.325662
0.323764
0.321982
0.370628
0.366296
0.362217
0.358372
0.354745
0.351319
0.348082
0.345019
0.342119
0.339372
0.336766
0.334294
0.331947
0.329716
0.327596
0.325581
0.323665
0.321866
0.370629
0.366298
0.362218
0.358371
0.354738
0.351304
0.348054
0.344974
0.342053
0.33928
0.336645
0.33414
0.331756
0.329487
0.327327
0.325268
0.323308
0.321464
0.370629
0.366294
0.362204
0.358336
0.354671
0.351193
0.347888
0.344743
0.341748
0.338894
0.336174
0.33358
0.331107
0.328748
0.326499
0.324353
0.322309
0.320384
0.370622
0.366259
0.362113
0.358157
0.354373
0.35075
0.347284
0.343969
0.340803
0.337782
0.334905
0.332166
0.329563
0.327089
0.32474
0.322511
0.320396
0.318413
0.370575
0.366087
0.361746
0.357537
0.35346
0.349529
0.345765
0.342184
0.338798
0.335612
0.332625
0.329834
0.327231
0.324808
0.322552
0.320453
0.318501
0.316701
0.370372
0.365516
0.360679
0.355894
0.351269
0.346921
0.34292
0.339299
0.336071
0.333231
0.330766
0.328652
0.326862
0.325365
0.324131
0.323131
0.322338
0.321731
0.369692
0.364169
0.358281
0.352508
0.347434
0.343341
0.34031
0.338347
0.337426
0.337495
0.338484
0.340308
0.342876
0.346094
0.349869
0.354115
0.358752
0.363692
0.365786
0.354639
0.345407
0.34021
0.339531
0.343251
0.351078
0.362614
0.377391
0.394914
0.414694
0.436258
0.459166
0.483013
0.507448
0.532166
0.556946
0.581443
0.336631
0.30233
0.273934
0.25047
0.231278
0.215833
0.203716
0.194569
0.188072
0.183931
0.181872
0.181643
0.183005
0.185738
0.18964
0.194525
0.200229
0.206584
0.148823
0.225086
0.258711
0.27388
0.27901
0.277584
0.271544
0.261142
0.25417
0.249396
0.246485
0.244824
0.245109
0.253739
0.290709
0.395317
0.528257
0.656171
0.776789
0.88637
0.983179
1.06678
1.13749
1.19611
1.24364
1.28121
1.30998
1.33111
1.34569
1.3548
1.35946
1.36069
1.35951
1.35573
1.34924
1.3403
1.32904
1.31558
1.29998
1.28231
1.26264
1.24106
1.21764
1.19249
1.16575
1.13757
1.10819
1.07788
1.04702
1.01608
0.98569
0.956776
0.93085
0.910845
0.902639
0.913516
0.934062
0.956962
0.979824
1.00091
1.01809
1.02822
1.02635
1.00548
0.960304
0.894954
0.821036
0.73408
0.636127
0.534361
0.4384
0.35664
0.293906
0.251432
0.227801
0.219835
0.224277
0.235376
0.247618
0.258258
0.266352
0.272729
0.279398
0.288506
0.301542
0.317788
0.33724
0.368745
0.437174
0.582762
0.753872
0.898188
1.01812
1.11434
1.18927
1.24576
1.28658
1.31428
1.33109
1.33898
1.33971
1.33488
1.32597
1.31396
1.29904
1.28159
1.26184
1.23999
1.21614
1.1903
1.1624
1.13228
1.09965
1.06416
1.02536
0.982838
0.936288
0.885667
0.831693
0.777522
0.739285
0.731928
0.727397
0.721999
0.715876
0.709504
0.703303
0.697579
0.692528
0.688232
0.684659
0.68169
0.679142
0.676421
0.671046
0.659356
0.638212
0.605292
0.559745
0.502955
0.43895
0.373971
0.31493
0.267265
0.233315
0.212225
0.200881
0.195441
0.192629
0.190284
0.187438
0.18414
0.185015
0.181982
0.184177
0.178195
0.165603
0.151003
0.137649
0.128128
0.123517
0.123163
0.126418
0.133566
0.146193
0.164754
0.182361
0.201105
0.273789
0.368652
0.442138
0.494521
0.528192
0.547359
0.558044
0.557843
0.545568
0.521098
0.484301
0.436282
0.353279
0.492136
0.562129
0.593574
0.606863
0.617045
0.64052
0.699709
0.772372
0.859611
0.961418
1.04392
1.0947
1.12056
1.13479
1.14961
1.16661
1.18419
1.20218
1.22082
1.24064
1.2622
1.28587
1.31183
1.34006
1.37039
1.40255
1.43626
1.4712
1.50707
1.5436
1.58053
1.61738
1.65476
1.69254
1.73006
1.76663
1.80158
1.83432
1.86431
1.89107
1.91418
1.93323
1.94789
1.95787
1.96299
1.96321
1.95869
1.9498
1.9372
1.92173
1.90442
1.88641
1.86885
1.85281
1.83889
1.82733
1.81543
1.80106
1.78207
1.75675
1.72451
1.68635
1.64283
1.58874
1.50595
1.38926
1.26988
1.17052
1.09519
1.03232
0.960451
0.862107
0.738039
0.608474
0.499409
0.42578
0.390671
0.382543
0.384998
0.38837
0.392288
0.40663
0.456269
0.565973
0.724248
0.86056
0.91783
0.932605
0.956155
0.984288
1.01366
1.04595
1.08183
1.121
1.16258
1.20561
1.24926
1.29293
1.33632
1.37933
1.42212
1.46503
1.50706
1.54846
1.58923
1.62929
1.6685
1.70658
1.74313
1.77754
1.80891
1.83601
1.85719
1.8704
1.87327
1.86338
1.8386
1.79734
1.73822
1.66596
1.59162
1.51141
1.42767
1.34274
1.25841
1.17599
1.09632
1.01991
0.947021
0.877762
0.812067
0.749859
0.691106
0.635166
0.583257
0.537194
0.497485
0.464693
0.439323
0.421854
0.412658
0.411628
0.417746
0.429024
0.442795
0.456138
0.466228
0.470929
0.469544
0.462521
0.450673
0.433249
0.41522
0.391884
0.367443
0.338807
0.306534
0.272594
0.23969
0.211768
0.193448
0.187175
0.193489
0.217407
0.274642
0.369457
0.47195
0.552905
0.631569
0.712704
0.788579
0.855001
0.911207
0.958002
0.995648
1.02193
1.03139
1.01706
0.973685
0.508441
0.712647
0.837378
0.902455
0.951778
1.02378
1.09685
1.15198
1.20097
1.23814
1.25696
1.25633
1.24291
1.22614
1.21392
1.21038
1.21585
1.22917
1.24896
1.27375
1.30207
1.33248
1.36372
1.39479
1.42506
1.45437
1.4829
1.51108
1.53937
1.56816
1.59754
1.62732
1.65876
1.69243
1.72782
1.76423
1.80096
1.83735
1.87283
1.90689
1.93905
1.96879
1.99556
2.01869
2.03743
2.05101
2.05873
2.0601
2.05499
2.04365
2.02681
2.00559
1.98143
1.95593
1.93068
1.90712
1.88765
1.87056
1.85428
1.83695
1.81661
1.79188
1.76281
1.73101
1.69775
1.65975
1.60499
1.51656
1.39968
1.2816
1.18179
1.09978
1.01967
0.925237
0.814262
0.700507
0.60312
0.535408
0.50565
0.50563
0.525381
0.569056
0.669311
0.839968
1.01214
1.07852
1.04988
1.01761
1.01063
1.03387
1.07969
1.1406
1.20917
1.27847
1.3436
1.40245
1.45519
1.50323
1.54819
1.59143
1.63376
1.67541
1.71615
1.75608
1.79543
1.83409
1.87197
1.90901
1.94508
1.97999
2.01335
2.04447
2.07224
2.09501
2.11047
2.11578
2.10779
2.08353
2.04051
1.97705
1.90374
1.82222
1.73366
1.64116
1.54739
1.45437
1.36346
1.27554
1.19109
1.11035
1.03339
0.960166
0.890561
0.824389
0.760679
0.698224
0.637393
0.579158
0.524677
0.475096
0.431436
0.39437
0.363998
0.339829
0.3211
0.307209
0.297926
0.293153
0.292498
0.295134
0.300064
0.306407
0.313398
0.320246
0.3254
0.326441
0.321051
0.308023
0.287613
0.261764
0.234738
0.213954
0.20929
0.228837
0.285088
0.392092
0.528532
0.649246
0.755332
0.872026
0.975163
1.05184
1.10825
1.15346
1.19137
1.22206
1.24305
1.24833
1.22965
1.18137
0.592018
1.00157
1.20051
1.28219
1.31717
1.31377
1.29917
1.28481
1.27028
1.25313
1.23349
1.21437
1.20012
1.19431
1.19853
1.21225
1.23348
1.25966
1.28818
1.31659
1.34274
1.365
1.38246
1.39508
1.40367
1.40967
1.41478
1.42056
1.42822
1.43843
1.45133
1.46665
1.48588
1.5082
1.53277
1.55887
1.58593
1.61361
1.64177
1.67041
1.69961
1.7293
1.75921
1.78867
1.81658
1.84149
1.86178
1.87586
1.88247
1.8809
1.87118
1.85402
1.8308
1.80336
1.77383
1.74477
1.72007
1.69917
1.68171
1.66674
1.65283
1.63827
1.62159
1.60198
1.57969
1.55559
1.52839
1.49134
1.43242
1.34518
1.24571
1.15236
1.06903
0.987578
0.900585
0.810791
0.729783
0.670504
0.643883
0.661513
0.726069
0.858431
1.03965
1.16949
1.16587
1.09523
1.043
1.03437
1.0678
1.13225
1.21342
1.29865
1.37869
1.44864
1.5078
1.55808
1.60224
1.64265
1.68078
1.71726
1.75215
1.78517
1.81593
1.84532
1.87329
1.89973
1.92465
1.94814
1.97039
1.99159
2.01184
2.031
2.04852
2.06318
2.07295
2.07501
2.06592
2.04206
2.00008
1.94349
1.87698
1.80141
1.71969
1.63492
1.54957
1.46543
1.38358
1.30462
1.22878
1.15605
1.08632
1.01943
0.95519
0.893389
0.83366
0.775237
0.717012
0.659015
0.601868
0.546845
0.495398
0.448554
0.406694
0.369692
0.337179
0.308787
0.284323
0.263833
0.247493
0.235413
0.227546
0.223725
0.223697
0.227038
0.232876
0.239602
0.244957
0.246498
0.242436
0.232673
0.220297
0.213178
0.223643
0.266175
0.352815
0.485352
0.631773
0.772996
0.920026
1.06081
1.16601
1.23441
1.27925
1.30986
1.33001
1.34249
1.34675
1.33858
1.30993
1.25609
0.655808
1.32056
1.55252
1.58355
1.51531
1.42522
1.34572
1.28451
1.23955
1.20774
1.18754
1.1785
1.1802
1.1915
1.21031
1.23383
1.25894
1.28253
1.30178
1.31444
1.31926
1.3162
1.30646
1.29212
1.27568
1.25954
1.24572
1.23562
1.23009
1.22947
1.23367
1.24289
1.25578
1.27072
1.2865
1.30217
1.31719
1.33154
1.34572
1.36073
1.37787
1.39847
1.42344
1.45297
1.48626
1.52152
1.55619
1.58731
1.61205
1.62813
1.63425
1.63022
1.6169
1.596
1.56973
1.54196
1.51626
1.4935
1.4743
1.45854
1.44542
1.4337
1.42212
1.40966
1.39574
1.3804
1.3641
1.34628
1.32248
1.28341
1.21989
1.14349
1.06767
0.997979
0.93374
0.875583
0.829194
0.804368
0.813975
0.878804
1.01804
1.18722
1.27778
1.22331
1.11878
1.0509
1.0388
1.07723
1.15076
1.24179
1.33494
1.4196
1.4908
1.54855
1.59567
1.63553
1.67075
1.7029
1.73266
1.76014
1.78514
1.80731
1.82661
1.84362
1.85814
1.87001
1.87924
1.88608
1.891
1.89462
1.89762
1.9005
1.90338
1.90567
1.90579
1.90109
1.88802
1.8626
1.824
1.775
1.71629
1.65024
1.57992
1.50817
1.43714
1.3682
1.30204
1.23886
1.17853
1.12076
1.06522
1.01153
0.959346
0.908301
0.85799
0.807859
0.757012
0.705384
0.653172
0.600991
0.549913
0.501213
0.45594
0.414618
0.377233
0.343453
0.312918
0.285449
0.26109
0.240015
0.222403
0.208394
0.198083
0.19148
0.188391
0.188241
0.189971
0.192137
0.193322
0.192998
0.193231
0.201417
0.231255
0.297959
0.408657
0.552659
0.702224
0.860904
1.04163
1.20001
1.30625
1.369
1.40309
1.41633
1.41327
1.40041
1.38046
1.35217
1.30879
1.24849
0.696593
1.55992
1.76638
1.73971
1.61354
1.47228
1.35626
1.27445
1.22246
1.19367
1.18265
1.18509
1.19721
1.2153
1.23562
1.25443
1.26825
1.27427
1.27078
1.25753
1.23572
1.20773
1.17654
1.14523
1.1165
1.09249
1.07463
1.06369
1.05986
1.06284
1.07192
1.08633
1.10256
1.11862
1.13267
1.14309
1.14869
1.14908
1.14488
1.13796
1.13127
1.12845
1.13302
1.14752
1.17279
1.20769
1.2493
1.29351
1.33571
1.37159
1.3978
1.41255
1.41559
1.40797
1.39178
1.37136
1.34969
1.3286
1.30929
1.29213
1.27665
1.26189
1.24696
1.23151
1.21589
1.20083
1.18727
1.17595
1.16591
1.15238
1.1251
1.07976
1.02607
0.975896
0.936739
0.91226
0.90599
0.926488
0.992152
1.12002
1.28132
1.37203
1.29717
1.15123
1.05791
1.0329
1.06691
1.14143
1.23609
1.33332
1.42087
1.4931
1.54999
1.59459
1.63056
1.66076
1.68703
1.71036
1.73118
1.74956
1.7653
1.77803
1.78786
1.79472
1.79813
1.79773
1.79343
1.78551
1.77461
1.76176
1.74817
1.73502
1.72311
1.71249
1.70202
1.6893
1.67076
1.64377
1.60809
1.56325
1.51071
1.45311
1.39343
1.3342
1.27719
1.22334
1.17293
1.12578
1.08145
1.0394
0.99909
0.96
0.921637
0.883519
0.845149
0.805858
0.764792
0.721882
0.677267
0.631394
0.585034
0.539193
0.494904
0.452981
0.413877
0.377686
0.344308
0.313634
0.285659
0.260467
0.238163
0.218823
0.202504
0.189258
0.179098
0.171924
0.167443
0.165196
0.16478
0.16645
0.172513
0.190107
0.23336
0.318422
0.447702
0.5992
0.752636
0.924888
1.12124
1.29224
1.40471
1.46449
1.48869
1.4839
1.45583
1.41523
1.36877
1.31788
1.25869
1.1929
0.760122
1.62287
1.83235
1.7945
1.64919
1.48981
1.36294
1.27893
1.23138
1.21051
1.2078
1.21641
1.2306
1.24531
1.25605
1.25909
1.25196
1.23379
1.20542
1.16915
1.12819
1.08614
1.04639
1.01184
0.984619
0.966064
0.956703
0.956364
0.96428
0.979214
0.999583
1.02392
1.04984
1.07516
1.09733
1.1135
1.12078
1.11688
1.10073
1.07331
1.0382
1.00141
0.970375
0.952004
0.950812
0.967911
1.00121
1.0462
1.09706
1.14748
1.19166
1.22555
1.247
1.25592
1.25409
1.24522
1.23211
1.21682
1.20077
1.18451
1.16772
1.14939
1.12862
1.10555
1.0817
1.05941
1.04087
1.02747
1.01934
1.01437
1.00679
0.986839
0.957723
0.930381
0.91627
0.922083
0.950924
1.01072
1.12065
1.28224
1.41584
1.39128
1.2165
1.07797
1.02564
1.04437
1.11214
1.20571
1.3049
1.39535
1.4699
1.52768
1.57145
1.60489
1.63116
1.65252
1.67042
1.68577
1.69905
1.71037
1.71954
1.72614
1.73005
1.73049
1.72663
1.71782
1.70376
1.68463
1.66117
1.6347
1.60695
1.57975
1.55446
1.53193
1.5112
1.49025
1.46672
1.43801
1.40226
1.35945
1.31127
1.26037
1.2095
1.16083
1.11569
1.0746
1.03742
1.00366
0.972649
0.943709
0.916193
0.88953
0.863199
0.836699
0.809483
0.780728
0.749779
0.716329
0.68032
0.642023
0.602041
0.561219
0.520488
0.480685
0.442426
0.406071
0.371787
0.339669
0.30983
0.282418
0.257569
0.235368
0.215844
0.198999
0.184819
0.17328
0.164333
0.157962
0.154395
0.154619
0.161559
0.182595
0.232263
0.32785
0.469427
0.627891
0.785735
0.965221
1.16783
1.34381
1.46026
1.52114
1.53814
1.5177
1.46676
1.39995
1.32884
1.25819
1.18594
1.11288
0.794085
1.58886
1.80285
1.77685
1.64197
1.49021
1.37045
1.29474
1.2563
1.2437
1.24653
1.25631
1.26608
1.27021
1.26456
1.24686
1.21689
1.17631
1.12819
1.07635
1.02475
0.977045
0.936211
0.904363
0.882691
0.871515
0.870434
0.878514
0.894488
0.916898
0.944166
0.976598
1.01326
1.05231
1.091
1.12559
1.15144
1.16345
1.15684
1.12855
1.0791
1.0142
0.944629
0.883592
0.842172
0.826087
0.835537
0.866544
0.913144
0.968035
1.02317
1.07211
1.11014
1.13548
1.14922
1.15433
1.15302
1.14709
1.13791
1.12608
1.11118
1.09197
1.06711
1.0366
1.00265
0.969309
0.940714
0.919515
0.906366
0.900049
0.898166
0.892319
0.881491
0.873467
0.879828
0.908707
0.963959
1.05465
1.19658
1.36299
1.43593
1.32269
1.12853
1.02878
1.01846
1.07048
1.15781
1.25698
1.35074
1.4295
1.49069
1.53616
1.56941
1.59384
1.61213
1.62625
1.63762
1.64717
1.65543
1.66249
1.66803
1.67153
1.67236
1.66924
1.66104
1.64685
1.6261
1.59881
1.56579
1.52848
1.48906
1.45013
1.41327
1.38046
1.35027
1.32282
1.29433
1.26222
1.22513
1.18337
1.13868
1.09355
1.05035
1.01079
0.97571
0.945148
0.918618
0.895364
0.874564
0.855452
0.837374
0.819785
0.802229
0.784287
0.76549
0.74508
0.722634
0.697638
0.669784
0.639073
0.605849
0.570753
0.534585
0.498155
0.462152
0.42709
0.393327
0.361128
0.330726
0.302345
0.276179
0.252364
0.23097
0.212016
0.195491
0.181376
0.169669
0.160467
0.154203
0.152172
0.157669
0.178305
0.228843
0.327628
0.47525
0.639588
0.801121
0.982169
1.18359
1.35959
1.47839
1.53953
1.55092
1.51923
1.45187
1.36604
1.27575
1.18872
1.10495
1.02519
0.805139
1.501
1.71804
1.7167
1.60998
1.48119
1.37839
1.31563
1.28739
1.28195
1.28785
1.29542
1.29709
1.28753
1.26396
1.22623
1.17638
1.11797
1.05531
0.992768
0.934291
0.883064
0.8413
0.810165
0.789856
0.779819
0.779059
0.786464
0.801072
0.822194
0.849386
0.884938
0.928644
0.979367
1.03482
1.09137
1.14401
1.18626
1.21038
1.20812
1.17312
1.10488
1.01247
0.914074
0.829886
0.773579
0.74991
0.756046
0.78676
0.835259
0.892237
0.949526
0.999249
1.03828
1.06717
1.08696
1.09906
1.10487
1.10551
1.10144
1.0921
1.07589
1.05076
1.01594
0.97352
0.928722
0.887849
0.855553
0.833478
0.820746
0.815579
0.814131
0.812895
0.817011
0.836546
0.879962
0.952841
1.06605
1.22527
1.37299
1.38484
1.23142
1.05968
1.00084
1.02473
1.09856
1.19443
1.29116
1.37574
1.44295
1.49308
1.52906
1.55434
1.57199
1.58445
1.59361
1.60087
1.60715
1.61285
1.61789
1.62174
1.62359
1.62247
1.6169
1.60558
1.58745
1.56173
1.52824
1.48782
1.44201
1.39307
1.34488
1.29834
1.25737
1.22073
1.18661
1.15261
1.11675
1.07817
1.03743
0.996208
0.956666
0.920693
0.889439
0.863199
0.841577
0.823774
0.808846
0.795884
0.784101
0.772848
0.761614
0.749999
0.73768
0.724325
0.709472
0.692945
0.674204
0.652809
0.62853
0.601427
0.571855
0.540398
0.507749
0.474591
0.441525
0.409044
0.377554
0.347405
0.318901
0.292292
0.267756
0.245399
0.225264
0.207359
0.191676
0.178231
0.167147
0.158877
0.154735
0.158038
0.176309
0.224082
0.320282
0.467838
0.635237
0.798918
0.977254
1.1721
1.34416
1.46305
1.52403
1.532
1.49351
1.4166
1.31871
1.21531
1.11623
1.02383
0.939425
0.799318
1.39083
1.61042
1.63858
1.56731
1.46793
1.38568
1.33674
1.31794
1.31831
1.32588
1.33024
1.32363
1.30143
1.2624
1.20819
1.14248
1.07
0.995693
0.924121
0.859062
0.803237
0.758145
0.724088
0.700384
0.68575
0.678808
0.678589
0.684905
0.698497
0.720973
0.755553
0.802315
0.860525
0.928179
1.00194
1.07715
1.1478
1.20613
1.24182
1.24272
1.19903
1.11088
0.994677
0.877912
0.784416
0.726815
0.70418
0.71238
0.746306
0.796892
0.853558
0.909257
0.959155
1.00103
1.03448
1.06004
1.07858
1.09081
1.09693
1.09622
1.08672
1.06566
1.03102
0.983913
0.929755
0.876661
0.831795
0.798541
0.776629
0.764178
0.759991
0.760607
0.769386
0.794777
0.84535
0.929014
1.05655
1.21826
1.33553
1.30381
1.14632
1.01156
0.986105
1.0349
1.12127
1.21871
1.30958
1.38495
1.44262
1.48439
1.51346
1.53312
1.5462
1.55504
1.56146
1.56675
1.57165
1.57631
1.58035
1.58296
1.58312
1.57979
1.57144
1.55687
1.53503
1.50501
1.4664
1.42017
1.36807
1.31151
1.25666
1.20493
1.15765
1.11462
1.07453
1.03563
0.996612
0.957142
0.91797
0.880602
0.846742
0.817699
0.794034
0.775523
0.761398
0.750647
0.742265
0.735375
0.729249
0.723277
0.716935
0.70978
0.701454
0.691655
0.680247
0.667278
0.652405
0.635266
0.61557
0.593188
0.568215
0.540972
0.51195
0.481731
0.45091
0.420046
0.389647
0.360165
0.33199
0.305435
0.280726
0.258001
0.237327
0.21872
0.202175
0.187707
0.17543
0.165758
0.159901
0.160971
0.17608
0.219029
0.308596
0.450594
0.617023
0.780677
0.95321
1.13769
1.30249
1.41927
1.47983
1.48654
1.44535
1.36445
1.26056
1.14967
1.04325
0.945903
0.859716
0.778117
1.27642
1.49974
1.55774
1.52286
1.45382
1.39207
1.3558
1.34491
1.35008
1.35939
1.36201
1.34997
1.31916
1.26926
1.20304
1.12519
1.04117
0.956438
0.875836
0.803225
0.741117
0.690487
0.650836
0.620563
0.597589
0.580169
0.567759
0.561603
0.564785
0.582441
0.615893
0.665151
0.729221
0.806025
0.892252
0.9833
1.0736
1.15676
1.22372
1.26099
1.25297
1.18924
1.07784
0.946959
0.8278
0.742859
0.694166
0.679224
0.693657
0.730744
0.781986
0.838989
0.895198
0.946604
0.991398
1.02915
1.06005
1.08434
1.10187
1.11173
1.11173
1.09853
1.06887
1.0222
0.962921
0.899949
0.842869
0.797594
0.764988
0.743338
0.731802
0.728585
0.735973
0.761373
0.813793
0.903175
1.0367
1.18874
1.27401
1.21851
1.07649
0.978368
0.978251
1.04237
1.13492
1.23072
1.31519
1.38285
1.4334
1.46927
1.49367
1.50974
1.52018
1.52721
1.53251
1.53716
1.54159
1.54561
1.54851
1.54925
1.54691
1.5404
1.52838
1.50976
1.48386
1.44973
1.40656
1.35544
1.29926
1.23998
1.18098
1.12473
1.07263
1.02474
0.980119
0.937626
0.896667
0.857407
0.820651
0.787584
0.759375
0.736733
0.719638
0.70741
0.699007
0.693359
0.689573
0.686977
0.685053
0.683325
0.681274
0.678318
0.673868
0.66736
0.658731
0.648136
0.635533
0.620829
0.603885
0.584578
0.562877
0.538896
0.512913
0.485345
0.456699
0.427522
0.398364
0.369742
0.342116
0.315862
0.291259
0.268487
0.247641
0.228752
0.211816
0.196838
0.183907
0.173368
0.166269
0.165393
0.177214
0.214407
0.2949
0.427035
0.588139
0.749049
0.913486
1.085
1.2398
1.35234
1.41205
1.419
1.37821
1.29752
1.19247
1.0791
0.97006
0.871839
0.787083
0.739804
1.15958
1.3931
1.48115
1.4813
1.44139
1.39878
1.37339
1.3687
1.37791
1.38996
1.3938
1.38107
1.34742
1.2926
1.21966
1.13364
1.04046
0.946069
0.855885
0.77429
0.704082
0.646118
0.599346
0.561312
0.529036
0.500163
0.47423
0.454092
0.447254
0.464028
0.499555
0.552653
0.621738
0.704849
0.79907
0.899926
1.0017
1.09882
1.18396
1.24454
1.26453
1.22762
1.13371
1.00641
0.879361
0.776496
0.706771
0.671053
0.667012
0.689808
0.732242
0.786141
0.844231
0.90131
0.954374
1.00204
1.04378
1.07934
1.10821
1.12925
1.14017
1.13738
1.11671
1.07584
1.01722
0.949097
0.882537
0.826149
0.782783
0.750972
0.729684
0.718854
0.720415
0.741557
0.79217
0.88277
1.01394
1.14812
1.20536
1.14124
1.02252
0.955575
0.973557
1.04559
1.13857
1.23043
1.30944
1.37171
1.41774
1.45012
1.47189
1.48604
1.4953
1.50175
1.50685
1.51137
1.51541
1.51848
1.51959
1.51754
1.51175
1.50117
1.48466
1.46093
1.4302
1.39184
1.34566
1.29243
1.23382
1.17229
1.11082
1.05195
0.99704
0.94621
0.89884
0.854461
0.813168
0.775452
0.741977
0.713495
0.690627
0.6735
0.66156
0.653744
0.64887
0.645979
0.644472
0.644053
0.644578
0.645863
0.64752
0.648884
0.649026
0.646736
0.641717
0.633905
0.623417
0.610444
0.59515
0.577631
0.557936
0.53613
0.512361
0.486893
0.460109
0.432486
0.404554
0.376848
0.349869
0.324038
0.299683
0.277024
0.25619
0.237233
0.220162
0.20498
0.191752
0.180755
0.172861
0.170457
0.179235
0.210496
0.280795
0.400226
0.552075
0.707306
0.861942
1.01883
1.16135
1.26754
1.32554
1.33341
1.29496
1.21738
1.11496
1.00351
0.896446
0.801507
0.721387
0.685935
1.04095
1.27904
1.40173
1.43909
1.4299
1.40747
1.39259
1.39253
1.40421
1.41883
1.42604
1.41716
1.38702
1.33448
1.26187
1.1738
1.07604
0.97476
0.875892
0.784595
0.704509
0.637153
0.581813
0.536059
0.496822
0.46168
0.429883
0.40348
0.392548
0.40822
0.4452
0.500109
0.570735
0.655267
0.751285
0.854761
0.959975
1.06076
1.15097
1.2216
1.25721
1.23955
1.16247
1.04366
0.915512
0.804385
0.722425
0.672826
0.655005
0.665657
0.698918
0.747467
0.804177
0.863409
0.921426
0.976095
1.02628
1.07126
1.1102
1.14174
1.16358
1.17211
1.16279
1.13192
1.07972
1.01256
0.941445
0.876987
0.824514
0.783612
0.751905
0.731289
0.724161
0.738272
0.784365
0.87145
0.992653
1.10459
1.13959
1.07633
0.981657
0.938808
0.968173
1.04283
1.13351
1.22098
1.29547
1.35396
1.39723
1.42774
1.44844
1.46217
1.47144
1.47814
1.48347
1.48788
1.49117
1.49261
1.4911
1.48544
1.47533
1.45994
1.43846
1.41019
1.37501
1.33289
1.28385
1.22855
1.16843
1.10585
1.04359
0.983974
0.928162
0.876247
0.828
0.783628
0.743743
0.708876
0.679352
0.655459
0.637319
0.624526
0.616045
0.610548
0.606884
0.604371
0.602816
0.602367
0.603314
0.605878
0.610002
0.615162
0.620226
0.623252
0.623372
0.619991
0.612948
0.60245
0.58891
0.572756
0.554323
0.53384
0.511489
0.48748
0.462104
0.435756
0.408908
0.382074
0.355757
0.330402
0.306367
0.283907
0.263179
0.244261
0.227177
0.211937
0.198598
0.187387
0.179021
0.175491
0.181637
0.207257
0.267201
0.372473
0.512062
0.658911
0.802595
0.944025
1.07244
1.17014
1.2251
1.2337
1.19844
1.12586
1.02909
0.923526
0.822836
0.735118
0.662431
0.634039
0.953402
1.16606
1.31415
1.39004
1.41436
1.41489
1.41249
1.41753
1.43104
1.44764
1.45891
1.45661
1.43485
1.39121
1.32658
1.24435
1.14949
1.04773
0.944988
0.846821
0.757671
0.680181
0.614897
0.56062
0.51535
0.477419
0.446411
0.42414
0.417914
0.432612
0.466768
0.518539
0.586121
0.667673
0.760742
0.861403
0.964003
1.06229
1.15022
1.21952
1.25588
1.24167
1.1698
1.05579
0.929854
0.817262
0.730485
0.67388
0.647991
0.650447
0.67635
0.719316
0.772864
0.831547
0.891437
0.950011
1.00573
1.05752
1.10431
1.14462
1.17614
1.19543
1.19794
1.1792
1.13753
1.07681
1.00662
0.938316
0.879459
0.831375
0.791771
0.761416
0.745131
0.751345
0.790877
0.86971
0.975018
1.06343
1.08177
1.02409
0.950561
0.924928
0.960244
1.03397
1.12086
1.20407
1.27504
1.33113
1.37306
1.40306
1.42383
1.43803
1.44793
1.45519
1.46072
1.46473
1.46677
1.466
1.46139
1.45187
1.4374
1.41732
1.39105
1.35824
1.31887
1.27312
1.22134
1.16426
1.10331
1.04073
0.979032
0.920154
0.864981
0.813626
0.766319
0.723844
0.687002
0.656026
0.63079
0.611184
0.596919
0.587109
0.580348
0.57524
0.57088
0.566975
0.563715
0.561581
0.561175
0.563082
0.567686
0.574904
0.583737
0.591999
0.598309
0.601183
0.599675
0.593519
0.583044
0.568905
0.551805
0.532324
0.510882
0.487797
0.463371
0.437955
0.411969
0.385886
0.360185
0.335309
0.311628
0.289414
0.268849
0.250029
0.232994
0.217764
0.204395
0.193084
0.184429
0.180068
0.184009
0.204516
0.25456
0.345325
0.470746
0.607102
0.739269
0.865221
0.978388
1.06559
1.11574
1.12415
1.09211
1.02575
0.937186
0.841153
0.750827
0.67361
0.610299
0.605428
0.94957
1.09206
1.22668
1.32726
1.3853
1.41278
1.42686
1.43986
1.45666
1.47579
1.49174
1.49767
1.48765
1.45808
1.40819
1.33974
1.25628
1.16252
1.06374
0.96528
0.871915
0.787268
0.713404
0.650893
0.59935
0.55818
0.527258
0.507631
0.504781
0.520585
0.55383
0.603185
0.667257
0.744324
0.831784
0.925494
1.01977
1.10852
1.18579
1.2432
1.2668
1.24086
1.16153
1.04605
0.922478
0.812299
0.726138
0.668373
0.639864
0.63849
0.659836
0.698286
0.748156
0.804561
0.86381
0.923365
0.981553
1.03717
1.08904
1.13568
1.17484
1.20331
1.21674
1.21038
1.18113
1.13041
1.06553
0.997282
0.934749
0.881607
0.837065
0.800556
0.777896
0.777542
0.80932
0.87605
0.961878
1.02766
1.03379
0.98314
0.926416
0.912085
0.949235
1.01965
1.10191
1.18109
1.24937
1.30413
1.34579
1.37623
1.39787
1.41309
1.42389
1.43171
1.43725
1.44052
1.44101
1.4379
1.43019
1.417
1.39839
1.3739
1.34317
1.30607
1.2628
1.21376
1.15956
1.1011
1.03991
0.978111
0.9179
0.860817
0.807475
0.758125
0.713478
0.674631
0.642135
0.615652
0.594641
0.578755
0.567364
0.559181
0.552644
0.546586
0.540531
0.534568
0.529105
0.524698
0.522003
0.521764
0.524735
0.531414
0.541407
0.553121
0.564963
0.574649
0.580191
0.580361
0.574868
0.564214
0.549322
0.53117
0.510572
0.488134
0.464314
0.439515
0.414148
0.388653
0.363478
0.339046
0.315721
0.29378
0.273414
0.254733
0.237787
0.222606
0.209245
0.19788
0.18902
0.184011
0.186109
0.20211
0.243051
0.319716
0.430054
0.554516
0.675191
0.786538
0.884284
0.959497
1.00302
1.0099
0.98063
0.92136
0.843271
0.759955
0.683124
0.618472
0.565203
0.62241
1.06271
1.12535
1.18728
1.26565
1.33681
1.38898
1.42438
1.45099
1.4753
1.49945
1.52154
1.53718
1.54134
1.52993
1.50075
1.45373
1.39066
1.31476
1.23014
1.14136
1.05291
0.968811
0.892186
0.825147
0.768916
0.724147
0.691327
0.671277
0.667766
0.680908
0.710229
0.754766
0.813035
0.882831
0.960846
1.04235
1.12164
1.19306
1.25068
1.28536
1.28321
1.23239
1.1361
1.0153
0.894463
0.789427
0.708087
0.65406
0.62768
0.626474
0.646154
0.681679
0.728138
0.781344
0.83809
0.896115
0.953891
1.0103
1.06429
1.11448
1.15885
1.19445
1.21725
1.22253
1.20623
1.16754
1.11108
1.04617
0.982635
0.926601
0.879404
0.841259
0.816602
0.812344
0.836173
0.888436
0.953157
0.997875
0.994719
0.950745
0.906652
0.899009
0.934871
1.00016
1.07703
1.15223
1.21835
1.27251
1.31469
1.34633
1.36943
1.38606
1.39796
1.40634
1.41174
1.41411
1.41293
1.40744
1.39675
1.3802
1.3579
1.32954
1.29491
1.25413
1.20755
1.1558
1.09969
1.04037
0.97947
0.919048
0.861002
0.806493
0.756
0.710044
0.669698
0.635924
0.608563
0.586634
0.569409
0.556465
0.546881
0.539135
0.531844
0.524341
0.516622
0.509007
0.501877
0.495611
0.490668
0.487695
0.487581
0.491281
0.499148
0.511253
0.52606
0.541091
0.553551
0.561047
0.562178
0.556731
0.54544
0.529506
0.510164
0.488434
0.465084
0.440691
0.415737
0.390669
0.365915
0.341873
0.318888
0.29723
0.277089
0.258578
0.241755
0.226654
0.213327
0.201934
0.192908
0.187355
0.187881
0.199939
0.232671
0.296024
0.391014
0.502724
0.612363
0.710804
0.794211
0.857046
0.892695
0.8969
0.87001
0.818671
0.75298
0.68464
0.622919
0.571136
0.527066
0.636976
1.16452
1.26149
1.2581
1.27157
1.30984
1.35726
1.40228
1.44148
1.47623
1.50845
1.53829
1.5638
1.58158
1.58801
1.58025
1.55692
1.51821
1.4658
1.40248
1.33177
1.25752
1.18357
1.11336
1.04984
0.995277
0.951436
0.919708
0.901447
0.899111
0.911212
0.937256
0.97607
1.02573
1.0834
1.1451
1.20587
1.26057
1.30426
1.33047
1.32869
1.28661
1.20059
1.08387
0.958902
0.843353
0.746952
0.674992
0.629584
0.60976
0.612331
0.632996
0.667212
0.710799
0.760306
0.813142