/*--------------------------------*- C++ -*----------------------------------*\
  =========                 |
  \\      /  F ield         | OpenFOAM: The Open Source CFD Toolbox
   \\    /   O peration     | Website:  https://openfoam.org
    \\  /    A nd           | Version:  9
     \\/     M anipulation  |
\*---------------------------------------------------------------------------*/
FoamFile
{
    format      ascii;
    class       volScalarField;
    location    "0.19";
    object      nut;
}
// * * * * * * * * * * * * * * * * * * * * * * * * * * * * * * * * * * * * * //

dimensions      [0 2 -1 0 0 0 0];

internalField   nonuniform List<scalar> 
12225
(
8.99089e-06
7.55161e-06
6.46689e-06
5.68037e-06
5.1504e-06
4.84213e-06
4.72344e-06
4.76217e-06
4.92582e-06
5.18255e-06
5.50258e-06
5.8594e-06
6.23078e-06
6.59916e-06
6.95193e-06
7.28107e-06
7.58564e-06
7.96964e-06
6.74689e-05
4.77909e-05
4.04888e-05
3.70835e-05
3.54262e-05
3.46575e-05
3.43233e-05
3.41736e-05
3.4079e-05
3.39771e-05
3.38411e-05
3.36619e-05
3.34397e-05
3.31795e-05
3.28884e-05
3.25713e-05
3.22407e-05
3.18279e-05
0.000146083
0.000111142
9.19274e-05
7.93006e-05
6.9965e-05
6.25732e-05
5.64878e-05
5.13948e-05
4.71273e-05
4.35701e-05
4.06201e-05
3.81781e-05
3.61513e-05
3.44569e-05
3.30232e-05
3.17853e-05
3.06836e-05
2.96381e-05
0.000188822
0.000163374
0.000143522
0.000128105
0.000115668
0.00010526
9.62856e-05
8.83888e-05
8.13731e-05
7.51314e-05
6.95941e-05
6.47005e-05
6.03867e-05
5.65821e-05
5.32088e-05
5.01769e-05
4.73874e-05
4.47408e-05
0.000204943
0.000192288
0.000179134
0.000166895
0.000155855
0.000145948
0.000137014
0.000128891
0.000121459
0.000114635
0.000108368
0.000102618
9.73479e-05
9.25166e-05
8.80726e-05
8.39491e-05
8.00702e-05
7.63914e-05
0.000210146
0.000204756
0.000197915
0.000190469
0.000182939
0.000175606
0.000168598
0.000161956
0.00015568
0.00014976
0.000144184
0.000138938
0.000134007
0.000129372
0.000125005
0.000120873
0.000116937
0.000113214
0.000211676
0.000209337
0.000206114
0.000202222
0.000197901
0.000193354
0.000188733
0.000184137
0.000179626
0.000175238
0.000170995
0.000166909
0.000162985
0.000159223
0.000155615
0.00015215
0.000148819
0.000145663
0.000212093
0.000210829
0.000209207
0.000207222
0.00020492
0.000202373
0.000199656
0.000196833
0.000193957
0.00019107
0.0001882
0.00018537
0.000182595
0.000179885
0.000177243
0.000174672
0.000172176
0.000169798
0.000212199
0.000211267
0.000210238
0.000209078
0.000207775
0.000206336
0.00020478
0.000203129
0.000201407
0.000199639
0.000197843
0.000196036
0.000194231
0.000192439
0.000190667
0.000188921
0.00018721
0.000185567
0.000212223
0.000211383
0.000210544
0.000209686
0.000208793
0.000207858
0.000206877
0.000205854
0.000204792
0.000203701
0.000202586
0.000201456
0.000200318
0.000199177
0.00019804
0.000196912
0.000195798
0.000194723
0.000212228
0.00021141
0.000210625
0.000209862
0.000209113
0.000208371
0.000207631
0.000206888
0.000206141
0.000205391
0.000204637
0.000203881
0.000203126
0.000202373
0.000201625
0.000200884
0.000200154
0.000199449
0.000212229
0.000211415
0.000210642
0.000209904
0.000209196
0.000208513
0.000207852
0.000207208
0.000206579
0.000205963
0.000205358
0.000204764
0.000204181
0.000203607
0.000203045
0.000202494
0.000201956
0.000201442
0.000212229
0.000211416
0.000210645
0.000209914
0.000209218
0.000208555
0.000207922
0.000207315
0.000206732
0.000206172
0.000205632
0.000205111
0.000204607
0.00020412
0.00020365
0.000203195
0.000202757
0.000202344
0.000212228
0.000211415
0.000210645
0.000209915
0.000209222
0.000208564
0.000207939
0.000207344
0.000206777
0.000206237
0.000205721
0.000205229
0.000204759
0.000204309
0.000203879
0.000203468
0.000203076
0.000202712
0.000212228
0.000211415
0.000210644
0.000209914
0.000209221
0.000208564
0.00020794
0.000207347
0.000206784
0.000206248
0.000205739
0.000205255
0.000204794
0.000204356
0.000203938
0.000203542
0.000203166
0.000202818
0.000212228
0.000211414
0.000210643
0.000209913
0.000209219
0.000208562
0.000207937
0.000207344
0.000206781
0.000206246
0.000205737
0.000205254
0.000204795
0.000204358
0.000203943
0.000203549
0.000203177
0.000202832
0.000212228
0.000211414
0.000210643
0.000209912
0.000209218
0.00020856
0.000207935
0.000207341
0.000206777
0.000206241
0.000205732
0.000205248
0.000204788
0.000204351
0.000203935
0.00020354
0.000203167
0.000202822
0.000212228
0.000211414
0.000210642
0.000209911
0.000209217
0.000208558
0.000207933
0.000207338
0.000206774
0.000206237
0.000205727
0.000205242
0.00020478
0.000204342
0.000203924
0.000203528
0.000203153
0.000202805
0.000212228
0.000211414
0.000210642
0.000209911
0.000209216
0.000208557
0.000207931
0.000207337
0.000206771
0.000206234
0.000205722
0.000205236
0.000204773
0.000204332
0.000203913
0.000203514
0.000203136
0.000202785
0.000212228
0.000211414
0.000210643
0.000209911
0.000209217
0.000208557
0.000207931
0.000207336
0.00020677
0.000206231
0.000205719
0.000205231
0.000204766
0.000204323
0.000203901
0.000203499
0.000203118
0.000202763
0.000212228
0.000211414
0.000210643
0.000209911
0.000209217
0.000208557
0.00020793
0.000207333
0.000206765
0.000206223
0.000205707
0.000205214
0.000204744
0.000204295
0.000203865
0.000203454
0.000203062
0.000202697
0.000212228
0.000211414
0.000210642
0.000209909
0.000209211
0.000208545
0.000207909
0.0002073
0.000206716
0.000206155
0.000205614
0.000205093
0.00020459
0.000204103
0.000203632
0.000203176
0.000202735
0.000202317
0.000212227
0.00021141
0.000210628
0.000209874
0.000209143
0.00020843
0.000207731
0.000207042
0.000206361
0.000205686
0.000205018
0.000204355
0.000203698
0.000203046
0.0002024
0.000201761
0.000201129
0.000200514
0.000212216
0.000211358
0.000210488
0.00020959
0.000208652
0.000207671
0.000206648
0.000205586
0.000204492
0.000203372
0.000202234
0.000201083
0.000199925
0.000198764
0.000197604
0.000196448
0.000195301
0.000194176
0.000212114
0.000210949
0.000209541
0.000207891
0.000206029
0.000203999
0.000201849
0.000199623
0.000197354
0.00019507
0.00019279
0.000190529
0.000188296
0.000186097
0.000183935
0.000181812
0.000179729
0.000177704
0.00021134
0.000208438
0.000204664
0.000200351
0.000195768
0.000191112
0.000186512
0.000182042
0.000177735
0.000173604
0.000169644
0.000165848
0.000162203
0.000158696
0.000155315
0.000152047
0.000148886
0.000145844
0.00020656
0.000196633
0.000186179
0.0001763
0.000167305
0.000159233
0.000151999
0.000145479
0.000139549
0.000134105
0.000129062
0.00012435
0.00011992
0.000115733
0.000111759
0.000107978
0.000104375
0.000100957
0.000183028
0.000157112
0.000138685
0.000125197
0.000114837
0.000106578
9.97723e-05
9.39925e-05
8.89624e-05
8.45022e-05
8.04935e-05
7.68569e-05
7.35385e-05
7.05006e-05
6.77156e-05
6.5161e-05
6.28177e-05
6.06741e-05
0.000105342
7.86411e-05
6.66668e-05
5.99884e-05
5.58666e-05
5.32454e-05
5.15797e-05
5.05373e-05
4.99028e-05
4.95321e-05
4.93269e-05
4.92202e-05
4.91668e-05
4.91374e-05
4.91137e-05
4.90847e-05
4.90458e-05
4.89896e-05
1.67224e-05
1.50185e-05
1.36079e-05
1.24424e-05
1.1489e-05
1.07217e-05
1.01196e-05
9.66497e-06
9.34175e-06
9.13533e-06
9.0321e-06
9.0194e-06
9.0854e-06
9.2191e-06
9.41042e-06
9.65016e-06
9.93013e-06
1.0242e-05
1.26819e-05
1.64682e-05
1.73167e-05
1.74873e-05
1.73655e-05
1.70935e-05
1.67279e-05
1.63129e-05
1.60968e-05
1.59342e-05
1.58242e-05
1.57352e-05
1.55722e-05
1.52985e-05
1.52605e-05
1.73271e-05
2.09841e-05
2.39585e-05
2.65158e-05
2.86711e-05
3.04619e-05
3.19327e-05
3.31265e-05
3.40824e-05
3.48349e-05
3.54139e-05
3.58454e-05
3.6152e-05
3.63536e-05
3.64675e-05
3.65095e-05
3.64938e-05
3.64337e-05
3.63512e-05
3.62328e-05
3.60826e-05
3.59029e-05
3.56951e-05
3.54602e-05
3.51986e-05
3.49108e-05
3.45968e-05
3.42567e-05
3.38906e-05
3.34984e-05
3.308e-05
3.26359e-05
3.2167e-05
3.1675e-05
3.1162e-05
3.06303e-05
3.00793e-05
2.95009e-05
2.88689e-05
2.81907e-05
2.80153e-05
2.82563e-05
2.86124e-05
2.90201e-05
2.94616e-05
2.99376e-05
3.04619e-05
3.104e-05
3.15955e-05
3.18447e-05
3.12497e-05
3.07752e-05
3.01242e-05
2.90695e-05
2.74578e-05
2.52766e-05
2.26716e-05
1.99104e-05
1.73634e-05
1.53989e-05
1.41955e-05
1.37747e-05
1.39973e-05
1.44475e-05
1.49236e-05
1.52919e-05
1.55003e-05
1.55931e-05
1.56712e-05
1.58644e-05
1.61904e-05
1.63655e-05
1.61387e-05
1.59452e-05
1.80523e-05
2.22541e-05
2.538e-05
2.78551e-05
2.9774e-05
3.12403e-05
3.23427e-05
3.31527e-05
3.37272e-05
3.41111e-05
3.43404e-05
3.44439e-05
3.44469e-05
3.43702e-05
3.42516e-05
3.4087e-05
3.3883e-05
3.36442e-05
3.3374e-05
3.30746e-05
3.27472e-05
3.2392e-05
3.20075e-05
3.15903e-05
3.11349e-05
3.06333e-05
3.00749e-05
2.94472e-05
2.8736e-05
2.79191e-05
2.69324e-05
2.56401e-05
2.53736e-05
2.52913e-05
2.51965e-05
2.50807e-05
2.49522e-05
2.482e-05
2.46907e-05
2.45693e-05
2.44586e-05
2.43592e-05
2.42694e-05
2.41882e-05
2.41253e-05
2.40697e-05
2.39535e-05
2.37089e-05
2.32704e-05
2.2578e-05
2.15892e-05
2.02987e-05
1.87622e-05
1.71134e-05
1.55478e-05
1.42562e-05
1.33423e-05
1.27913e-05
1.25005e-05
1.23483e-05
1.22413e-05
1.21268e-05
1.19885e-05
1.18373e-05
1.17732e-05
1.192e-05
4.94077e-05
4.60705e-05
4.19274e-05
3.79404e-05
3.48746e-05
3.31834e-05
3.27019e-05
3.31998e-05
3.46324e-05
3.73724e-05
4.20325e-05
4.72796e-05
1.1025e-05
1.21506e-05
1.49199e-05
1.68411e-05
1.8151e-05
1.89787e-05
1.9446e-05
1.9703e-05
1.98121e-05
1.97008e-05
1.93804e-05
1.88402e-05
1.80864e-05
2.89948e-05
5.02687e-05
6.48831e-05
7.28428e-05
7.5919e-05
7.63192e-05
7.61059e-05
7.50486e-05
7.14487e-05
6.71753e-05
6.35361e-05
6.17846e-05
6.07462e-05
5.99265e-05
5.9475e-05
5.96487e-05
6.04507e-05
6.17448e-05
6.36062e-05
6.61323e-05
6.94365e-05
7.36342e-05
7.88332e-05
8.51225e-05
9.25584e-05
0.000101142
0.000110791
0.000121302
0.000132321
0.000143323
0.000153644
0.000162565
0.00016916
0.000174935
0.000180625
0.000186243
0.00019176
0.000197145
0.000202368
0.000207401
0.000212212
0.000216768
0.000221029
0.000224949
0.000228476
0.000231556
0.000234133
0.000236157
0.000237585
0.000238385
0.000238531
0.000237993
0.00023673
0.000234685
0.000231848
0.000228524
0.000225363
0.000222171
0.000218788
0.000215049
0.000210798
0.000205917
0.000200279
0.00019342
0.000183886
0.000167845
0.000145807
0.000126545
0.000112544
0.000102747
9.51846e-05
8.77481e-05
7.90684e-05
6.92921e-05
6.00437e-05
5.33947e-05
5.02303e-05
5.0165e-05
5.13501e-05
5.1771e-05
5.07197e-05
4.85039e-05
4.59205e-05
4.40097e-05
4.34674e-05
4.40136e-05
4.38638e-05
4.30308e-05
4.33482e-05
4.50537e-05
4.80497e-05
5.20358e-05
5.72418e-05
6.37993e-05
7.17516e-05
8.10456e-05
9.15306e-05
0.000102952
0.000114941
0.000127004
0.000138533
0.000148884
0.000157425
0.000164655
0.00017173
0.000178689
0.00018553
0.000192247
0.000198822
0.000205223
0.0002114
0.000217276
0.000222741
0.000227643
0.00023179
0.000234948
0.000236857
0.000237234
0.000235725
0.000231706
0.00022449
0.00021606
0.000206811
0.000196989
0.000186806
0.000176424
0.000165969
0.000155527
0.000145163
0.00013492
0.000124834
0.000114927
0.000105213
9.55917e-05
8.42736e-05
7.13271e-05
5.96573e-05
5.03337e-05
4.35193e-05
3.89151e-05
3.60912e-05
3.46381e-05
3.42137e-05
3.45545e-05
3.54688e-05
3.68029e-05
3.83989e-05
4.00626e-05
4.16005e-05
4.29027e-05
4.3958e-05
4.48105e-05
4.55326e-05
4.65516e-05
4.79244e-05
5.04212e-05
5.16336e-05
5.15907e-05
5.05162e-05
4.88006e-05
4.70025e-05
4.55814e-05
4.43711e-05
4.2997e-05
4.1751e-05
4.20441e-05
4.37302e-05
4.62612e-05
5.41741e-05
6.60685e-05
8.16044e-05
9.94384e-05
0.000117862
0.000134654
0.00014676
0.000156569
0.000165015
0.000171403
0.00017457
0.000172464
4.00931e-05
6.62362e-05
9.03962e-05
0.000101537
0.000103817
0.000100937
9.65012e-05
9.1852e-05
8.80196e-05
8.49754e-05
8.25193e-05
8.07253e-05
7.96987e-05
7.96387e-05
8.07659e-05
8.32472e-05
8.71913e-05
9.26852e-05
9.98295e-05
0.000108678
0.000119197
0.000131225
0.000144451
0.000158418
0.000172564
0.000186296
0.000199081
0.000210524
0.000220412
0.000228708
0.000235509
0.000240985
0.000245746
0.000250576
0.000255579
0.000260754
0.000266081
0.000271541
0.000277112
0.000282773
0.000288497
0.000294244
0.00029996
0.000305565
0.000310957
0.000316012
0.000320588
0.000324534
0.000327708
0.000329987
0.000331276
0.000331525
0.000330725
0.000328918
0.000326195
0.000322715
0.000318986
0.000314999
0.000310641
0.000305744
0.000300102
0.000293522
0.000285872
0.000277063
0.000266852
0.000254451
0.000238313
0.000216206
0.00019124
0.000168166
0.000148721
0.000132726
0.00011888
0.000105967
9.38289e-05
8.34298e-05
7.59507e-05
7.16987e-05
7.01691e-05
6.88879e-05
6.653e-05
6.36988e-05
6.1965e-05
6.20285e-05
6.22411e-05
6.05235e-05
5.89605e-05
5.99437e-05
6.45237e-05
7.29178e-05
8.54336e-05
0.000102024
0.000122153
0.000144628
0.00016793
0.000190636
0.000211702
0.000230525
0.000246868
0.000260746
0.000272319
0.000281814
0.000289447
0.000296103
0.000302202
0.000307796
0.000312916
0.000317592
0.000321849
0.000325701
0.000329141
0.000332131
0.000334594
0.000336398
0.000337358
0.000337237
0.000335776
0.000332723
0.00032784
0.000320883
0.000312559
0.000303286
0.00029324
0.000282684
0.000271843
0.000260882
0.000249914
0.000239
0.000228168
0.00021742
0.000206746
0.000196119
0.000185498
0.000174778
0.000163466
0.000150455
0.000135189
0.000118448
0.000101637
8.62569e-05
7.33015e-05
6.30505e-05
5.52684e-05
4.95114e-05
4.53338e-05
4.23812e-05
4.04139e-05
3.9288e-05
3.89149e-05
3.92195e-05
4.01231e-05
4.15495e-05
4.34743e-05
4.58418e-05
4.85973e-05
5.13977e-05
5.36618e-05
5.4968e-05
5.51269e-05
5.42411e-05
5.27461e-05
5.13844e-05
5.06791e-05
5.06509e-05
5.25131e-05
5.80116e-05
6.73052e-05
8.31034e-05
0.000108417
0.000141659
0.000176483
0.000207276
0.000231858
0.000249954
0.000261821
0.000270532
0.00027658
0.000279372
0.000277816
0.000270277
1.01077e-05
7.28908e-05
0.000113819
0.000124151
0.000122113
0.000115345
0.000108157
0.000102268
9.79234e-05
9.49945e-05
9.34522e-05
9.34199e-05
9.50464e-05
9.8468e-05
0.000103776
0.000111
0.000120096
0.000130913
0.000143153
0.000156349
0.000169881
0.000183052
0.000195207
0.000205843
0.000214685
0.000221702
0.000227068
0.000231084
0.000234094
0.000236414
0.000238289
0.000239878
0.000241832
0.000244296
0.000247255
0.000250678
0.000254549
0.000258869
0.000263651
0.00026892
0.000274701
0.000281005
0.000287816
0.000295079
0.00030269
0.000310487
0.000318261
0.000325759
0.000332704
0.000338818
0.00034384
0.000347554
0.000349804
0.000350504
0.000349642
0.000347269
0.000343851
0.000339618
0.000334617
0.000328825
0.000322192
0.000314684
0.000306322
0.000297195
0.000287416
0.000276984
0.000265482
0.00025173
0.000233758
0.000211907
0.00018927
0.000168238
0.00014979
0.0001338
0.000119954
0.000108423
9.96594e-05
9.35239e-05
8.88192e-05
8.45933e-05
8.06103e-05
7.83489e-05
7.76403e-05
7.58291e-05
7.19424e-05
6.97653e-05
7.2077e-05
8.01695e-05
9.47821e-05
0.000115947
0.000142903
0.000173607
0.000205272
0.000235292
0.000261974
0.00028465
0.000303394
0.000318657
0.000330997
0.000340924
0.000348849
0.000355074
0.000359713
0.000363467
0.000366457
0.000368728
0.00037033
0.000371324
0.00037178
0.000371771
0.00037136
0.000370583
0.000369436
0.000367853
0.000365697
0.000362766
0.00035882
0.000353617
0.000346946
0.000339165
0.000330658
0.000321463
0.000311811
0.000301955
0.0002921
0.000282379
0.000272865
0.000263581
0.000254509
0.000245613
0.00023684
0.00022813
0.000219414
0.000210607
0.000201542
0.00019183
0.000180722
0.000168053
0.000153936
0.000138906
0.000123829
0.000109603
9.68624e-05
8.58629e-05
7.65477e-05
6.86835e-05
6.20093e-05
5.63512e-05
5.1664e-05
4.79865e-05
4.53642e-05
4.3805e-05
4.32928e-05
4.37797e-05
4.51747e-05
4.72402e-05
4.95724e-05
5.16975e-05
5.32182e-05
5.39816e-05
5.42285e-05
5.44946e-05
5.53919e-05
5.7997e-05
6.37298e-05
7.36478e-05
8.92479e-05
0.000118765
0.000163575
0.000212365
0.000254971
0.000287039
0.000309052
0.00032281
0.000330043
0.000333646
0.000334363
0.000332057
0.000326002
0.000315092
1.09637e-05
9.13159e-05
0.000134724
0.000143414
0.0001371
0.000126879
0.000117772
0.000111282
0.000107445
0.000106026
0.000106887
0.000109974
0.000115226
0.000122519
0.000131633
0.000142233
0.000153843
0.000165847
0.000177532
0.000188172
0.000197153
0.000204072
0.000208797
0.000211453
0.000212371
0.000211998
0.000210813
0.000209255
0.000207682
0.000206355
0.000205445
0.000205154
0.000205571
0.000206554
0.000208
0.000209845
0.000212071
0.000214713
0.000217859
0.000221639
0.000226207
0.000231712
0.000238272
0.000245945
0.000254711
0.00026445
0.000274942
0.000285872
0.00029685
0.000307438
0.000317184
0.00032566
0.00033249
0.000337375
0.000340103
0.000340496
0.000338972
0.000335868
0.000331295
0.000325314
0.000317995
0.000309479
0.00030003
0.000290037
0.000279941
0.000270091
0.000260569
0.00025095
0.000240022
0.000225855
0.000208119
0.000188822
0.000170123
0.000153446
0.000139427
0.000128274
0.000119788
0.000112995
0.000106328
9.97542e-05
9.52428e-05
9.22703e-05
8.77443e-05
8.10718e-05
7.75206e-05
8.01454e-05
9.04281e-05
0.000109205
0.000136296
0.000169928
0.000206913
0.000243453
0.000276529
0.000304592
0.000327409
0.000345526
0.000359765
0.000370919
0.000379623
0.000386332
0.000391341
0.000394828
0.000396876
0.000397889
0.00039792
0.000396998
0.000395174
0.000392532
0.000389186
0.000385276
0.000380952
0.000376345
0.000371547
0.00036658
0.000361372
0.000355757
0.000349516
0.000342413
0.000334595
0.000326366
0.00031764
0.000308595
0.000299489
0.000290562
0.000281987
0.00027386
0.000266207
0.000259005
0.000252194
0.000245692
0.000239408
0.000233243
0.000227094
0.000220847
0.000214361
0.000207413
0.000199554
0.000190613
0.000180506
0.000169302
0.00015729
0.00014494
0.000132774
0.000121217
0.000110496
0.000100644
9.1582e-05
8.32224e-05
7.55518e-05
6.86394e-05
6.25996e-05
5.75459e-05
5.35724e-05
5.07462e-05
4.9093e-05
4.85491e-05
4.89271e-05
4.99384e-05
5.12701e-05
5.26999e-05
5.42093e-05
5.59953e-05
5.87047e-05
6.42029e-05
7.37526e-05
8.7566e-05
0.000109155
0.000149575
0.000208993
0.000266976
0.000311614
0.000341751
0.000359918
0.000368724
0.000370351
0.000367863
0.00036256
0.000354845
0.000344462
0.000330982
1.25327e-05
0.000107545
0.000149842
0.000157222
0.000149564
0.000138157
0.000128607
0.000122673
0.000120338
0.00012116
0.000124722
0.000130648
0.000138522
0.000147847
0.000158024
0.000168361
0.000178117
0.000186578
0.000193154
0.000197471
0.000199419
0.000199154
0.000197051
0.000193633
0.000189475
0.000185127
0.000181052
0.000177596
0.00017498
0.000173308
0.000172594
0.000172844
0.000173543
0.000174455
0.000175398
0.000176242
0.000176923
0.000177472
0.000178036
0.000178876
0.000180351
0.000182862
0.000186792
0.00019244
0.000199982
0.000209447
0.0002207
0.000233442
0.000247225
0.00026148
0.000275565
0.000288827
0.000300631
0.000310426
0.0003177
0.000321974
0.000323728
0.000323141
0.000320245
0.000315057
0.000307642
0.000298197
0.000287144
0.000275179
0.0002632
0.000252083
0.000242405
0.000234204
0.000226789
0.000218628
0.000207655
0.000193763
0.000178567
0.000164029
0.00015155
0.000141541
0.000133283
0.000125412
0.000117535
0.000110998
0.00010605
9.98173e-05
9.03476e-05
8.37953e-05
8.50956e-05
9.5434e-05
0.000115754
0.000145728
0.000183073
0.000223777
0.000263452
0.000298782
0.000328222
0.000351703
0.000369982
0.00038407
0.000394902
0.000403208
0.000409491
0.000414063
0.000417097
0.000418668
0.0004188
0.000417714
0.000415403
0.000411858
0.000407112
0.000401258
0.000394446
0.000386885
0.000378819
0.000370493
0.000362111
0.000353806
0.000345569
0.000337277
0.000328749
0.000320045
0.000311292
0.00030226
0.000293053
0.000283911
0.000275098
0.00026684
0.000259279
0.000252472
0.00024641
0.00024103
0.000236239
0.00023193
0.000227983
0.000224273
0.000220667
0.00021702
0.000213168
0.000208877
0.000203804
0.000197825
0.000190854
0.000182883
0.000174018
0.000164479
0.000154569
0.00014459
0.000134777
0.000125262
0.000116089
0.000107267
9.88191e-05
9.08067e-05
8.33173e-05
7.64483e-05
7.03031e-05
6.49957e-05
6.06472e-05
5.73556e-05
5.51572e-05
5.40106e-05
5.38151e-05
5.4437e-05
5.56912e-05
5.74686e-05
6.08992e-05
6.87883e-05
8.19434e-05
9.95677e-05
0.00012671
0.000174924
0.00024082
0.000303435
0.000349862
0.000378235
0.000393195
0.000397566
0.000393689
0.000385053
0.000373708
0.000360584
0.000346054
0.000330581
1.29492e-05
0.00010981
0.000156346
0.00016616
0.000159825
0.000149255
0.000140667
0.000136167
0.000135728
0.000138662
0.00014421
0.000151626
0.000160149
0.000168988
0.000177345
0.000184473
0.00018976
0.000192793
0.000193416
0.000191741
0.000188122
0.000183099
0.000177311
0.000171408
0.000165964
0.000161415
0.000158031
0.00015592
0.000155054
0.0001553
0.000156461
0.000158245
0.000160203
0.000162075
0.000163604
0.00016453
0.000164626
0.000163753
0.000161926
0.000159382
0.000156604
0.000154295
0.000153254
0.000154215
0.000157722
0.000164081
0.000173355
0.000185374
0.00019974
0.00021584
0.000232868
0.000249971
0.000266216
0.000280781
0.000292563
0.000301289
0.000307166
0.000310074
0.000309863
0.00030641
0.000299674
0.000289785
0.000277185
0.000262759
0.000247829
0.000233895
0.00022219
0.000213266
0.000206806
0.000201619
0.000195751
0.000187408
0.000177039
0.00016614
0.00015615
0.000147455
0.000139229
0.000130684
0.000122792
0.000116942
0.000111013
0.000101198
9.04765e-05
8.82891e-05
9.64724e-05
0.000115732
0.000145903
0.000184643
0.000227572
0.000269784
0.000307556
0.000339066
0.000364133
0.000383528
0.00039836
0.000409686
0.000418341
0.00042491
0.000429759
0.000433081
0.000434946
0.000435345
0.000434243
0.000431732
0.00042774
0.000422208
0.000415134
0.000406597
0.000396774
0.000385926
0.0003744
0.000362573
0.000350746
0.000339233
0.000328025
0.000317098
0.00030671
0.000296655
0.000286619
0.000276591
0.000266734
0.0002573
0.000248544
0.000240661
0.000233754
0.000227843
0.000222881
0.00021878
0.000215434
0.000212724
0.000210529
0.000208722
0.000207164
0.000205701
0.000204146
0.00020221
0.000199627
0.000196239
0.000191929
0.000186651
0.000180443
0.000173431
0.000165805
0.000157778
0.000149542
0.000141237
0.000132954
0.000124753
0.000116693
0.000108846
0.000101287
9.40878e-05
8.73168e-05
8.10494e-05
7.53834e-05
7.04389e-05
6.63433e-05
6.32079e-05
6.10969e-05
5.99657e-05
5.95661e-05
5.98631e-05
6.285e-05
7.21283e-05
8.81561e-05
0.000109366
0.000140982
0.000193376
0.000261417
0.00032515
0.000371801
0.000400001
0.000413184
0.000414193
0.000405552
0.000391272
0.000374363
0.000356573
0.000338619
0.000320953
1.32206e-05
0.000106928
0.000157283
0.000170903
0.000167689
0.000159506
0.000152863
0.000150176
0.000151465
0.000155848
0.000162264
0.000169681
0.000177126
0.000183718
0.00018872
0.000191597
0.000192066
0.000190119
0.000186015
0.000180237
0.000173429
0.000166308
0.000159561
0.000153754
0.000149272
0.000146298
0.000144837
0.000144754
0.000145831
0.000147804
0.000150404
0.000153472
0.000156813
0.000160197
0.000163309
0.00016576
0.000167113
0.000166939
0.0001649
0.000160879
0.000155124
0.000148364
0.000141762
0.000136666
0.00013425
0.000135304
0.000140217
0.000149042
0.000161575
0.000177321
0.0001954
0.000214856
0.000234434
0.000252824
0.000268736
0.000282116
0.000292537
0.000299554
0.000302769
0.000301858
0.000296608
0.000287003
0.000273389
0.000256681
0.000238478
0.000220864
0.000205831
0.0001946
0.000187252
0.000182816
0.000179667
0.000175387
0.000169323
0.000162088
0.000154634
0.000147195
0.000139289
0.000131134
0.000124397
0.000119189
0.00011156
9.97332e-05
9.16143e-05
9.5377e-05
0.000111206
0.000139096
0.000177135
0.000221002
0.000265388
0.000305953
0.000340319
0.000367927
0.000389391
0.000405824
0.000418383
0.000428029
0.000435459
0.000441119
0.000445258
0.00044797
0.000449238
0.000448964
0.000447094
0.000443617
0.000438406
0.000431351
0.000422407
0.000411627
0.000399203
0.00038543
0.000370736
0.00035569
0.000340591
0.000326118
0.000312004
0.000299223
0.000287113
0.000275435
0.000264074
0.000253074
0.000242604
0.000232896
0.000224165
0.000216554
0.000210116
0.000204822
0.000200588
0.000197307
0.000194864
0.000193144
0.000192039
0.00019144
0.000191231
0.000191276
0.000191395
0.000191282
0.000190732
0.000189537
0.000187523
0.000184584
0.000180694
0.000175912
0.000170362
0.000164204
0.0001576
0.000150692
0.000143589
0.000136385
0.000129162
0.000122003
0.000114986
0.000108177
0.000101628
9.53817e-05
8.94903e-05
8.40237e-05
7.90744e-05
7.47442e-05
7.10933e-05
6.80371e-05
6.52986e-05
6.32357e-05
6.48695e-05
7.44509e-05
9.23996e-05
0.000116599
0.000151232
0.000204782
0.000272001
0.000334998
0.000381557
0.000409673
0.000421774
0.000420571
0.000408543
0.0003901
0.000368857
0.000347225
0.00032628
0.000306622
1.32958e-05
0.000100978
0.000154345
0.000172375
0.000173325
0.000168451
0.000164228
0.000163313
0.000165864
0.000170925
0.000177263
0.000183693
0.000189187
0.000192936
0.000194397
0.000193322
0.000189761
0.00018404
0.000176712
0.000168487
0.000160135
0.000152379
0.000145796
0.000140753
0.00013739
0.000135658
0.000135372
0.000136283
0.000138131
0.000140689
0.00014377
0.000147574
0.000152065
0.000157038
0.000162151
0.000166932
0.000170811
0.000173154
0.000173309
0.000170696
0.000164995
0.000156442
0.000146077
0.000135672
0.000127198
0.000122198
0.000121586
0.00012568
0.000134552
0.000148027
0.000165277
0.000185431
0.000206685
0.000227565
0.000247361
0.000265209
0.000280258
0.000291719
0.000298895
0.000301207
0.000298225
0.000289743
0.000275932
0.0002576
0.00023643
0.000214936
0.000195872
0.000181275
0.00017177
0.000166584
0.000164126
0.000162179
0.000159104
0.000154677
0.000149244
0.000142925
0.000135787
0.000128886
0.000123688
0.000118639
0.00010955
9.80316e-05
9.44566e-05
0.000104585
0.000127844
0.000162956
0.000206181
0.000252064
0.00029554
0.000333395
0.000364426
0.000388881
0.000407758
0.000422267
0.000433494
0.000442271
0.000449154
0.00045447
0.000458361
0.000460836
0.000461804
0.000461101
0.000458642
0.000454366
0.000448113
0.000439746
0.000429174
0.000416412
0.000401685
0.00038531
0.000367698
0.000349796
0.000331616
0.000314615
0.000298712
0.000283852
0.000269875
0.000256649
0.000244121
0.000232344
0.000221464
0.000211663
0.000203092
0.000195825
0.000189849
0.000185083
0.000181408
0.000178698
0.000176832
0.000175702
0.000175213
0.000175277
0.000175806
0.000176697
0.000177805
0.000178866
0.000179743
0.000180203
0.000180029
0.000179049
0.000177166
0.00017436
0.00017069
0.000166263
0.000161216
0.000155685
0.000149796
0.000143663
0.000137393
0.000131084
0.000124823
0.000118681
0.000112707
0.000106933
0.00010138
9.6071e-05
9.10325e-05
8.62762e-05
8.17321e-05
7.71317e-05
7.20999e-05
6.74331e-05
6.71278e-05
7.60426e-05
9.48463e-05
0.000121094
0.000157277
0.000209811
0.000274224
0.000335196
0.000381215
0.000409344
0.000421026
0.000418636
0.000404599
0.000383416
0.000359122
0.00033463
0.000311432
0.000290316
1.32295e-05
9.34413e-05
0.000148968
0.00017153
0.000177072
0.000175892
0.000174192
0.000174808
0.000178135
0.000183307
0.000189062
0.000194179
0.00019766
0.000198817
0.000197297
0.00019309
0.000186495
0.00017807
0.000168553
0.000158771
0.00014952
0.00014145
0.000134983
0.000130287
0.000127302
0.000125815
0.00012555
0.000126246
0.000127719
0.000129888
0.000132779
0.000136949
0.000142404
0.000148918
0.000156077
0.000163315
0.000169962
0.000175293
0.000178545
0.000178908
0.000175605
0.000168172
0.000156972
0.000143595
0.000130537
0.00012019
0.000114251
0.000113332
0.000117757
0.000127794
0.00014284
0.000161586
0.00018298
0.000205755
0.00022865
0.000250421
0.000269859
0.000285816
0.000297255
0.000303297
0.000303265
0.000296738
0.000283673
0.000264664
0.000241287
0.00021625
0.000192945
0.000174316
0.000161736
0.000154758
0.000151705
0.000150526
0.000148987
0.000146228
0.000142112
0.000136747
0.000130712
0.000125439
0.000121573
0.000116345
0.000106688
9.7167e-05
9.85147e-05
0.000114913
0.000144662
0.0001851
0.000231137
0.000277099
0.000318735
0.000353902
0.000382218
0.000404388
0.000421578
0.000434974
0.000445556
0.000454021
0.000460802
0.000466112
0.000469998
0.000472387
0.000473118
0.000471973
0.00046887
0.000463723
0.000456369
0.000446688
0.000434557
0.000419921
0.000403078
0.000384436
0.000364092
0.000343771
0.000323793
0.00030467
0.000286652
0.000269831
0.000254187
0.000239669
0.000226262
0.000214008
0.000203004
0.000193356
0.000185132
0.000178329
0.000172867
0.000168617
0.000165435
0.000163182
0.000161741
0.000161011
0.000160908
0.000161354
0.000162274
0.000163585
0.000165163
0.000166833
0.000168532
0.000170052
0.000171171
0.000171681
0.000171423
0.000170301
0.000168295
0.000165451
0.000161861
0.000157645
0.000152932
0.000147852
0.000142531
0.000137086
0.00013162
0.000126214
0.000120925
0.000115783
0.000110801
0.00010597
0.000101265
9.6602e-05
9.17522e-05
8.62042e-05
7.9383e-05
7.23271e-05
6.9785e-05
7.72396e-05
9.582e-05
0.000122992
0.000159436
0.00020951
0.000269788
0.000327695
0.000372587
0.00040066
0.000412386
0.000409671
0.00039481
0.000372199
0.000346109
0.000319853
0.000295327
0.000273495
1.30385e-05
8.51893e-05
0.000142011
0.000168966
0.000179177
0.000181784
0.000182567
0.000184485
0.000188262
0.000193274
0.000198362
0.000202343
0.000204267
0.000203524
0.00019988
0.000193461
0.000184713
0.000174327
0.00016316
0.000152106
0.000141971
0.000133341
0.000126511
0.000121484
0.000118038
0.000115839
0.000114566
0.000114023
0.000114215
0.000115345
0.000117868
0.000122397
0.000128891
0.00013702
0.000146252
0.000155901
0.000165175
0.000173259
0.000179361
0.00018266
0.000182261
0.000177291
0.000167383
0.000153485
0.000138061
0.000124
0.000113913
0.000108721
0.00010897
0.000114965
0.0001266
0.000143294
0.000164065
0.000187653
0.000212649
0.000237563
0.000260875
0.000281087
0.00029681
0.000306843
0.000310244
0.000306375
0.000294976
0.000276376
0.000251876
0.000224102
0.000196816
0.000173826
0.000157458
0.00014781
0.000143296
0.000141651
0.000140416
0.000138287
0.000134843
0.000130264
0.000125459
0.000121746
0.000118766
0.000113324
0.000104068
9.74212e-05
0.000103355
0.000124857
0.000159675
0.000203813
0.000251191
0.000296314
0.000336009
0.000368955
0.00039529
0.000415955
0.000432156
0.00044502
0.000455415
0.000463913
0.000470832
0.000476284
0.00048023
0.000482514
0.000482915
0.000481138
0.0004772
0.000470988
0.000462334
0.000451226
0.000437531
0.000421054
0.000402143
0.000381628
0.000359848
0.00033765
0.00031571
0.000294611
0.000274738
0.000256289
0.000239337
0.000223904
0.000209995
0.000197617
0.000186785
0.000177517
0.000169792
0.000163529
0.00015859
0.00015481
0.000152033
0.000150127
0.000148996