/*--------------------------------*- C++ -*----------------------------------*\
  =========                 |
  \\      /  F ield         | OpenFOAM: The Open Source CFD Toolbox
   \\    /   O peration     | Website:  https://openfoam.org
    \\  /    A nd           | Version:  9
     \\/     M anipulation  |
\*---------------------------------------------------------------------------*/
FoamFile
{
    format      ascii;
    class       volScalarField;
    location    "0.19";
    object      p;
}
// * * * * * * * * * * * * * * * * * * * * * * * * * * * * * * * * * * * * * //

dimensions      [0 2 -2 0 0 0 0];

internalField   nonuniform List<scalar> 
12225
(
-4.72078
-5.90815
-6.48936
-6.64033
-6.75929
-6.90224
-7.02929
-7.12735
-7.20268
-7.26037
-7.30037
-7.32023
-7.31655
-7.28405
-7.21383
-7.08938
-6.89235
-6.58013
-5.83757
-6.47676
-6.72431
-6.77052
-6.83717
-6.94466
-7.04987
-7.13451
-7.20108
-7.25313
-7.28988
-7.30847
-7.30549
-7.27608
-7.21302
-7.10435
-6.94649
-6.75066
-5.95691
-6.21022
-6.48513
-6.63776
-6.75359
-6.88037
-6.99927
-7.09512
-7.17013
-7.22883
-7.27155
-7.2962
-7.3002
-7.28016
-7.23204
-7.15183
-7.05171
-6.97821
-6.03765
-6.23582
-6.54496
-6.71802
-6.81877
-6.92453
-7.03014
-7.11815
-7.18758
-7.24234
-7.28295
-7.30759
-7.31419
-7.30078
-7.26631
-7.21298
-7.15924
-7.14527
-6.1336
-6.30453
-6.57038
-6.72702
-6.81856
-6.91661
-7.01886
-7.10659
-7.17667
-7.23262
-7.2755
-7.30404
-7.31694
-7.31366
-7.29553
-7.26811
-7.24913
-7.2682
-6.22726
-6.36275
-6.57898
-6.72944
-6.82659
-6.92367
-7.02313
-7.10978
-7.17991
-7.23663
-7.28144
-7.31374
-7.33299
-7.33981
-7.33706
-7.33149
-7.33791
-7.37691
-6.31244
-6.41691
-6.59547
-6.74109
-6.84171
-6.93474
-7.02841
-7.11222
-7.18182
-7.23927
-7.28622
-7.3227
-7.34883
-7.36606
-7.37798
-7.39124
-7.41717
-7.4687
-6.38995
-6.47131
-6.61985
-6.75604
-6.85605
-6.94489
-7.03354
-7.11521
-7.18502
-7.24397
-7.2938
-7.33514
-7.36869
-7.3964
-7.42201
-7.4514
-7.49274
-7.55365
-6.46106
-6.52534
-6.64864
-6.77265
-6.87031
-6.95612
-7.0408
-7.12042
-7.19039
-7.25094
-7.30382
-7.35015
-7.39108
-7.42875
-7.46673
-7.50987
-7.56393
-7.63331
-6.52649
-6.57786
-6.68021
-6.79153
-6.88562
-6.96881
-7.04993
-7.12737
-7.19735
-7.25962
-7.31576
-7.3672
-7.41536
-7.4624
-7.51153
-7.56663
-7.6318
-7.70971
-6.5867
-6.62824
-6.71356
-6.81264
-6.90206
-6.98251
-7.06048
-7.13587
-7.20587
-7.26997
-7.32948
-7.38594
-7.44095
-7.49657
-7.55558
-7.62109
-7.69612
-7.78254
-6.63744
-6.67218
-6.74494
-6.83361
-6.91803
-6.99581
-7.07128
-7.14501
-7.21503
-7.28075
-7.34324
-7.40406
-7.46481
-7.52746
-7.59439
-7.66816
-7.75119
-7.845
-6.68402
-6.7135
-6.77599
-6.85527
-6.93449
-7.0095
-7.08274
-7.15498
-7.22497
-7.29217
-7.35744
-7.42223
-7.48813
-7.55692
-7.63068
-7.71151
-7.80143
-7.90178
-6.73246
-6.75727
-6.81041
-6.88042
-6.95378
-7.0255
-7.09639
-7.16712
-7.237
-7.30563
-7.37366
-7.44238
-7.51324
-7.58783
-7.66786
-7.75508
-7.85116
-7.95729
-6.78113
-6.80191
-6.84697
-6.90835
-6.97554
-7.04351
-7.11191
-7.18109
-7.25069
-7.32047
-7.39091
-7.46304
-7.53812
-7.61747
-7.70248
-7.79452
-7.89491
-8.00465
-6.82753
-6.84504
-6.88347
-6.93731
-6.99849
-7.06248
-7.12822
-7.19569
-7.26466
-7.33496
-7.40691
-7.48128
-7.55903
-7.64117
-7.72874
-7.82273
-7.9241
-8.0335
-6.86794
-6.88296
-6.91632
-6.96408
-7.01996
-7.08003
-7.14295
-7.20836
-7.276
-7.34569
-7.41756
-7.49207
-7.56987
-7.65161
-7.73795
-7.82948
-7.92674
-8.03
-6.89661
-6.90994
-6.93991
-6.98346
-7.03529
-7.09193
-7.15195
-7.21479
-7.28006
-7.34746
-7.41692
-7.48861
-7.56282
-7.63986
-7.72001
-7.8035
-7.89049
-7.98096
-6.90423
-6.91686
-6.94555
-6.9873
-7.03696
-7.09115
-7.14841
-7.20811
-7.26972
-7.33273
-7.39684
-7.46196
-7.52809
-7.59527
-7.66348
-7.73267
-7.80275
-7.87354
-6.88139
-6.89506
-6.9258
-6.96968
-7.02051
-7.07448
-7.13035
-7.18772
-7.246
-7.30449
-7.36273
-7.4205
-7.47767
-7.53414
-7.58977
-7.64442
-7.6979
-7.75004
-6.84442
-6.86025
-6.89545
-6.94422
-6.99842
-7.05382
-7.10978
-7.16624
-7.22252
-7.27778
-7.33161
-7.38385
-7.43434
-7.48292
-7.5294
-7.57364
-7.61545
-7.65478
-6.79555
-6.81515
-6.85802
-6.91472
-6.97374
-7.0312
-7.08822
-7.14518
-7.20078
-7.25387
-7.30416
-7.3517
-7.39644
-7.43822
-7.47686
-7.51225
-7.54422
-7.57265
-6.73735
-6.76272
-6.81725
-6.8853
-6.95011
-7.0093
-7.06726
-7.12512
-7.18091
-7.23317
-7.2817
-7.32663
-7.36787
-7.40521
-7.43856
-7.46788
-7.49313
-7.51448
-6.67128
-6.70548
-6.77597
-6.85746
-6.92883
-6.9912
-7.05131
-7.10974
-7.16428
-7.21423
-7.26002
-7.30183
-7.33943
-7.37261
-7.40127
-7.42541
-7.44492
-7.45972
-6.59749
-6.64638
-6.74022
-6.83184
-6.90426
-6.97082
-7.03842
-7.10257
-7.15956
-7.20998
-7.25529
-7.29582
-7.33134
-7.36169
-7.38693
-7.40718
-7.42254
-7.43345
-6.51497
-6.58281
-6.72025
-6.82345
-6.88378
-6.94191
-7.00898
-7.07439
-7.13192
-7.18257
-7.22803
-7.2684
-7.30325
-7.33244
-7.35607
-7.37436
-7.38731
-7.39495
-6.42924
-6.49791
-6.69441
-6.84007
-6.9133
-6.97432
-7.04103
-7.10368
-7.15761
-7.20487
-7.24713
-7.28426
-7.31573
-7.34141
-7.3614
-7.37593
-7.3853
-7.39058
-6.36628
-6.41725
-6.57009
-6.70162
-6.79541
-6.88454
-6.97054
-7.0448
-7.10728
-7.16164
-7.20957
-7.25097
-7.28559
-7.31353
-7.33498
-7.35023
-7.35975
-7.3652
-6.30167
-6.72867
-6.87894
-6.88387
-6.90921
-6.97323
-7.04247
-7.1016
-7.15232
-7.19796
-7.23886
-7.27414
-7.30328
-7.32615
-7.34272
-7.35292
-7.35698
-7.35572
-5.21116
-6.11662
-6.61508
-6.72812
-6.80083
-6.90059
-6.99338
-7.06707
-7.128
-7.18151
-7.22848
-7.26841
-7.3011
-7.32668
-7.34521
-7.35652
-7.36051
-7.35567
-11.4202
-11.5039
-11.8409
-12.374
-12.9586
-13.4962
-13.9387
-14.265
-14.4856
-14.6096
-14.676
-14.7439
-14.8224
-14.9015
-14.9895
-15.1195
-15.3739
-15.8454
-16.6126
-17.7204
-19.1721
-20.9295
-22.9192
-25.0438
-27.1934
-29.2557
-31.1241
-32.7064
-33.9332
-34.7571
-35.1399
-35.0347
-34.3758
-33.1169
-31.3337
-29.0932
-26.4618
-23.505
-20.2879
-16.8751
-13.329
-9.70899
-6.07064
-2.46495
1.06208
4.46975
7.72305
10.7928
13.6555
16.2932
18.6928
20.8461
22.7494
24.4061
25.8266
27.0072
27.9274
28.5701
28.9196
28.9605
28.6823
28.0894
27.2276
26.2467
25.3736
24.4291
23.3199
22.079
20.7973
19.5922
18.569
17.766
17.1443
16.6399
16.2346
15.9812
15.9159
16.0617
16.3522
16.6408
16.794
16.7734
16.6394
16.4861
16.2745
15.8086
14.8816
13.3392
11.0575
7.78826
3.45408
-1.88087
-7.79559
-13.8441
-19.6506
-24.9438
-29.5509
-33.3748
-36.3702
-38.5274
-39.851
-40.3472
-40.0287
-38.8742
-36.9587
-34.3417
-31.0787
-27.2275
-22.852
-18.0235
-12.8232
-7.34448
-1.6954
4.00029
9.60284
14.959
19.9093
24.3033
28.0198
30.9904
33.2028
34.665
35.382
35.4388
34.942
34.0041
32.7376
31.2478
29.6303
27.9684
26.334
24.7878
23.3794
22.1714
21.1863
20.3324
19.5759
18.8861
18.2276
17.5725
16.9252
16.3307
15.8561
15.5633
15.4847
15.6062
15.8685
16.1868
16.4846
16.7275
16.9243
17.0936
17.2526
17.3986
17.5424
17.6799
17.7824
17.8678
17.9547
18.0624
18.2121
18.434
18.7007
18.8972
18.9069
18.6212
17.6816
15.5618
12.1787
8.22146
4.3608
1.21864
-0.84676
-1.67037
-1.27656
0.316313
2.89322
6.12753
9.57195
12.8164
-11.8422
-12.0898
-12.5722
-13.1642
-13.7649
-14.3052
-14.7331
-15.0209
-15.1371
-15.089
-14.9174
-14.7992
-14.7835
-14.897
-15.1007
-15.3789
-15.8226
-16.5583
-17.6785
-19.2177
-21.1481
-23.3897
-25.827
-28.3269
-30.7538
-32.9813
-34.8987
-36.4125
-37.4474
-37.9517
-37.9014
-37.3077
-36.2266
-34.7266
-32.795
-30.4548
-27.7486
-24.731
-21.4627
-18.0057
-14.4215
-10.7687
-7.10201
-3.47163
0.0769774
3.50349
6.773
9.85639
12.7306
15.3789
17.7901
19.9579
21.8789
23.5503
24.9673
26.128
27.0286
27.6593
28.0069
28.0579
27.8055
27.2616
26.4666
25.4646
24.2602
23.1168
22.1064
21.12
20.0937
19.1289
18.3409
17.7436
17.2512
16.7745
16.309
15.9361
15.8014
15.9294
16.2644
16.6107
16.7879
16.7452
16.5593
16.3513
16.1666
15.8535
15.0821
13.4485
10.7435
6.89003
1.87582
-3.98751
-10.2157
-16.3629
-22.1034
-27.2306
-31.6252
-35.2222
-37.9893
-39.9138
-41.0027
-41.2821
-40.7807
-39.5587
-37.6201
-34.9981
-31.7397
-27.8996
-23.5395
-18.7288
-13.5463
-8.08269
-2.44294
3.25183
8.86406
14.2423
19.228
23.669
27.4401
30.4686
32.7255
34.2085
34.9511
35.0377
34.5725
33.6671
32.4328
30.9741
29.3856
27.7502
26.1386
24.6091
23.2089
21.9521
20.8423
19.9242
19.1749
18.5393
17.9626
17.3974
16.829
16.2905
15.8505
15.5796
15.5166
15.6493
15.9158
16.2299
16.52
16.7574
16.9519
17.1288
17.2956
17.4558
17.5918
17.6933
17.7822
17.8662
17.9521
18.0522
18.1992
18.4232
18.7026
18.9054
18.9072
18.6566
17.7689
15.515
11.9238
7.75955
3.84678
0.740751
-1.26228
-2.03444
-1.58703
0.0113641
2.58735
5.83457
9.32136
12.6051
-11.6885
-12.067
-12.577
-13.1544
-13.7221
-14.2248
-14.6338
-14.9251
-15.0967
-15.1823
-15.237
-15.3496
-15.6191
-16.1236
-16.8967
-17.9424
-19.2578
-20.8323
-22.64
-24.6376
-26.7678
-28.9653
-31.1621
-33.2905
-35.2838
-37.0769
-38.6056
-39.8082
-40.6234
-40.9908
-40.8639
-40.2256
-39.0774
-37.4459
-35.3622
-32.8678
-30.0131
-26.8565
-23.4602
-19.8875
-16.2002
-12.4562
-8.70943
-5.00878
-1.39879
2.08052
5.39383
8.51115
11.4086
14.069
16.4822
18.6432
20.5505
22.203
23.6007
24.7461
25.6388
26.2736
26.641
26.7297
26.5323
26.0541
25.322
24.382
23.2847
22.098
20.8349
19.6031
18.5676
17.8091
17.3181
17.0024
16.7296
16.408
16.0476
15.7581
15.6782
15.8804
16.2614
16.6191
16.7541
16.6484
16.4652
16.2815
16.0188
15.362
13.8462
11.0634
7.00484
2.04209
-3.47091
-9.20538
-14.8897
-20.3207
-25.3497
-29.8654
-33.781
-37.0295
-39.5595
-41.3324
-42.3264
-42.5431
-41.9987
-40.7262
-38.7507
-36.1065
-32.8379
-28.997
-24.6431
-19.8429
-14.6716
-9.21585
-3.57605
2.13067
7.76932
13.1886
18.2273
22.7287
26.5639
29.6578
31.9754
33.5057
34.2955
34.428
34.0074
33.1454
31.953
30.534
28.9823
27.38
25.797
24.2894
22.9003
21.6599
20.5857
19.6771
18.9005
18.2283
17.6265
17.0781
16.5821
16.1562
15.8352
15.6554
15.6336
15.7558
15.9792
16.2473
16.5104
16.7424
16.9427
17.1233
17.2887
17.4422
17.5764
17.6877
17.7855
17.8724
17.9588
18.0607
18.2068
18.4328
18.7239
18.944
18.9564
18.6773
17.5898
14.9207
10.9856
6.81177
3.06987
0.123196
-1.7861
-2.50665
-2.06963
-0.468712
2.11608
5.38962
8.94125
12.2905
-10.1797
-10.5818
-11.0904
-11.6789
-12.2797
-12.8672
-13.4094
-13.903
-14.3908
-14.9348
-15.5937
-16.4167
-17.4441
-18.6972
-20.1715
-21.8418
-23.6739
-25.6339
-27.692
-29.8218
-31.9973
-34.1879
-36.3541
-38.4455
-40.4006
-42.1496
-43.6193
-44.7375
-45.4385
-45.6669
-45.3858
-44.5806
-43.2519
-41.4199
-39.1198
-36.401
-33.3225
-29.9501
-26.3516
-22.5941
-18.7406
-14.8489
-10.9705
-7.15191
-3.43543
0.139875
3.53814
6.72763
9.68231
12.3833
14.8196
16.9868
18.8857
20.5198
21.8975
23.027
23.9109
24.5487
24.9358
25.0633
24.9215
24.5061
23.8244
22.9011
21.7827
20.5358
19.236
17.9714
16.8584
16.0479
15.6218
15.5203
15.5933
15.6905
15.7449
15.7962
15.9467
16.2576
16.6765
16.9853
17.0199
16.8384
16.5162
16.021
15.0497
13.1198
9.98962
5.88538
1.1426
-3.91425
-9.08471
-14.2455
-19.2997
-24.1474
-28.6807
-32.7909
-36.3792
-39.3634
-41.6801
-43.2837
-44.1477
-44.2681
-43.6518
-42.3183
-40.2951
-37.6174
-34.3286
-30.4792
-26.1262
-21.3328
-16.17
-10.7186
-5.07277
0.65596
6.33603
11.8151
16.9261
21.5059
25.4285
28.6085
30.9956
32.5868
33.4322
33.6173
33.2478
32.4363
31.2934
29.922
28.4148
26.8533
25.3064
23.8305
22.4695
21.2506
20.184
19.27
18.4982
17.8429
17.2761
16.7817
16.3572
16.0132
15.7697
15.6455
15.6464
15.7607
15.9593
16.2021
16.4504
16.6798
16.8851
17.072
17.2449
17.4054
17.5483
17.6697
17.7742
17.8698
17.9687
18.0856
18.2451
18.4821
18.7864
19.0296
19.0386
18.6047
17.0414
13.8719
9.78751
5.77333
2.21254
-0.616364
-2.46246
-3.15795
-2.70202
-1.0874
1.52025
4.83569
8.46743
11.9086
-7.55802
-7.94263
-8.45158
-9.06279
-9.77601
-10.5689
-11.4521
-12.4397
-13.5505
-14.8059
-16.2206
-17.7974
-19.527
-21.3922
-23.3737
-25.4556
-27.6272
-29.8819
-32.2126
-34.6074
-37.0451
-39.4916
-41.8982
-44.203
-46.3335
-48.2112
-49.7569
-50.8943
-51.5554
-51.6868
-51.258
-50.2601
-48.6979
-46.599
-44.0091
-40.9885
-37.6084
-33.9455
-30.0767
-26.0749
-22.0054
-17.9241
-13.8779
-9.90757
-6.05017
-2.34215
1.18011
4.48176
7.53254
10.3099
12.8008
15.001
16.9138
18.548
19.9195
21.0409
21.9187
22.5585
22.9607
23.1194
23.0241
22.6635
22.0328
21.1425
20.0271
18.75
17.4012
16.094
14.9599
14.1332
13.7357
13.7887
14.1862
14.7533
15.3383
15.8759
16.389
16.9185
17.379
17.6305
17.563
17.1635
16.3593
14.986
12.6499
9.24953
5.08259
0.500761
-4.26293
-9.0876
-13.9245
-18.7298
-23.4361
-27.9508
-32.1686
-35.985
-39.3063
-42.0539
-44.1656
-45.5955
-46.3164
-46.324
-45.6183
-44.2134
-42.1352
-39.4183
-36.1057
-32.2468
-27.8966
-23.1151
-17.968
-12.5292
-6.88518
-1.13988
4.57925
10.1189
15.3066
19.9793
24.0027
27.2744
29.7391
31.3991
32.3081
32.555
32.2477
31.499
30.4182
29.1069
27.6564
26.147
24.6472
23.2134
21.8882
20.6993
19.6611
18.7767
18.0342
17.413
16.8907
16.4527
16.0941
15.8197
15.6407
15.5669
15.5992
15.7249
15.9184
16.1474
16.3826
16.6058
16.8114
17.0014
17.1784
17.342
17.4893
17.6189
17.736
17.849
17.9692
18.1106
18.2929
18.5446
18.8597
19.1124
19.0871
18.3947
16.3112
12.766
8.66037
4.76772
1.31009
-1.44267
-3.23432
-3.90186
-3.42228
-1.79048
0.843266
4.20501
7.91719
11.4563
-5.08631
-5.45853
-6.05257
-6.78736
-7.70511
-8.83114
-10.1709
-11.7129
-13.4357
-15.3144
-17.3247
-19.4458
-21.6622
-23.965
-26.3523
-28.8275
-31.396
-34.0603
-36.8151
-39.6427
-42.5111
-45.3723
-48.1637
-50.8106
-53.2294
-55.3332
-57.0356
-58.2543
-58.9153
-58.9651
-58.3812
-57.1601
-55.3138
-52.88
-49.9183
-46.5064
-42.7336
-38.6944
-34.4809
-30.1763
-25.8497
-21.5539
-17.3266
-13.1954
-9.18518
-5.32476
-1.64922
1.80197
4.99086
7.88726
10.4729
12.7424
14.701
16.3639
17.7527
18.8821
19.7643
20.411
20.8273
21.0106
20.951
20.6335
20.0444
19.1824
18.0722
16.7754
15.3926
14.0555
12.9146
12.1114
11.7692
11.9491
12.5971
13.5599
14.6405
15.6761
16.5864
17.3511
17.9118
18.1324
17.8897
17.0724
15.4531
12.8714
9.26709
4.99369
0.398359
-4.29991
-9.01267
-13.7151
-18.3932
-23.0093
-27.4967
-31.7695
-35.7351
-39.3029
-42.3903
-44.9259
-46.8505
-48.1181
-48.7005
-48.5947
-47.7958
-46.3156
-44.1788
-41.4201
-38.0823
-34.2147
-29.8709
-25.1077
-19.9858
-14.5716
-8.94219
-3.19375
2.55149
8.14084
13.4023
18.1692
22.29
25.6505
28.1939
29.9255
30.9035
31.2208
30.9865
30.313
29.3075
28.0692
26.6875
25.2418
23.8004
22.4197
21.1431
19.9999
19.0057
18.1634
17.4638
16.891
16.426
16.0547
15.7698
15.5708
15.4612
15.4435
15.5137
15.658
15.8546
16.0786
16.3081
16.5287
16.7344
16.925
17.1016
17.2645
17.4134
17.5495
17.6775
17.8052
17.9435
18.1064
18.3094
18.5717
18.8833
19.1233
19.0275
18.0674
15.5793
11.778
7.65505
3.8157
0.416172
-2.27779
-4.02036
-4.66488
-4.15911
-2.51277
0.140828
3.54294
7.32342
10.9521
-3.96598
-4.38369
-5.04317
-5.91718
-7.05964
-8.48722
-10.1837
-12.1107
-14.222
-16.4747
-18.8378
-21.2951
-23.8444
-26.4938
-29.257
-32.1472
-35.1727
-38.3316
-41.6091
-44.9749
-48.3826
-51.7696
-55.0588
-58.161
-60.9789
-63.4121
-65.3628
-66.7394
-67.4596
-67.4667
-66.7436
-65.2821
-63.0997
-60.2483
-56.8081
-52.8816
-48.5856
-44.0425
-39.3696
-34.6699
-30.0239
-25.4838
-21.0742
-16.7997
-12.6596
-8.66231
-4.83384
-1.21668
2.14003
5.19271
7.91254
10.2896
12.3306
14.0571
15.4913
16.6512
17.5563
18.2228
18.6603
18.87
18.844
18.5665
18.0188
17.1911
16.0989
14.7997
13.3995
12.0449
10.9026
10.1301
9.84519
10.128
10.9507
12.187
13.6252
15.0381
16.2652
17.2255
17.8422
17.992
17.505
16.0754
13.5592
9.91163
5.53659
0.837936
-3.9358
-8.68118
-13.3793
-18.0295
-22.6166
-27.0998
-31.4172
-35.4941
-39.2512
-42.6105
-45.499
-47.8511
-49.6107
-50.7322
-51.1875
-50.9756
-50.0862
-48.5313
-46.3355
-43.5342
-40.171
-36.2958
-31.9617
-27.2234
-22.1364
-16.7596
-11.161
-5.42861
0.322495
5.94451
11.2675
16.1132
20.3162
23.7538
26.3679
28.1677
29.2165
29.6104
29.4588
28.8718
27.9534
26.7998
25.4981
24.1269
22.7545
21.4383
20.2227
19.1385
18.2024
17.4186
16.7806
16.2741
15.8817
15.5888
15.3856
15.2667
15.2295
15.2707
15.3829
15.5527
15.7621
15.9915
16.2233
16.4456
16.653
16.8446
17.0213
17.1838
17.3334
17.4721
17.6046
17.7388
17.8855
18.058
18.2686
18.5274
18.8162
19.015
18.8256
17.6465
14.8886
10.9199
6.77305
2.95369
-0.403211
-3.04616
-4.744
-5.36456
-4.8414
-3.1885
-0.52999
2.89777
6.7291
10.4262
-4.44339
-4.877
-5.57389
-6.53159
-7.79876
-9.37867
-11.2399
-13.3326
-15.6064
-18.0237
-20.5654
-23.2305
-26.0314
-28.9879
-32.1199
-35.4416
-38.9569
-42.6558
-46.5132
-50.4873
-54.5196
-58.5341
-62.4376
-66.1219
-69.4691
-72.3585
-74.6742
-76.3107
-77.1728
-77.1898
-76.3569
-74.6427
-72.0775
-68.7306
-64.7052
-60.1329
-55.1639
-49.9567
-44.6653
-39.426
-34.3443
-29.4839
-24.8618
-20.455
-16.2215
-12.13
-8.18017
-4.40946
-0.87816
2.35179
5.23425
7.75114
9.90976
11.7306
13.2361
14.4517
15.4023
16.1078
16.5818
16.8293
16.8458
16.6167
16.1216
15.3451
14.2944
13.0204
11.6289
10.2755
9.14076
8.39786
8.1633
8.51694
9.4374
10.8107
12.4233
14.0181
15.3897
16.42
17.0152
17.025
16.1863
14.1373
10.8334
6.53725
1.78318
-3.09289
-7.93353
-12.6991
-17.3931
-22.0129
-26.5354
-30.9175
-35.1026
-39.0255
-42.6176
-45.8101
-48.5369
-50.7372
-52.3573
-53.3533
-53.6997
-53.3895
-52.4153
-50.7888
-48.5352
-45.6913
-42.3022
-38.4192
-34.0964
-29.3866
-24.3418
-19.0141
-13.4614
-7.7659
-2.0311
3.60149
8.96244
13.8615
18.1219
21.6151
24.2839
26.1427
27.2599
27.7334
27.6712
27.179
26.3565
25.2959
24.0824
22.7939
21.4997
20.2581
19.1155
18.104
17.2416
16.5337
15.9753
15.5523
15.2476
15.0454
14.9329
14.9003
14.9404
15.0456
15.2066
15.4104
15.6416
15.8842
16.1242
16.3524
16.5644
16.7591
16.9375
17.1006
17.2501
17.3888
17.5215
17.6555
17.8007
17.9687
18.169
18.4038
18.6468
18.7796
18.4885
17.1523
14.2424
10.1998
6.04473
2.23433
-1.09017
-3.68968
-5.34776
-5.9376
-5.41173
-3.7691
-1.11597
2.32
6.17854
9.91314
-6.02682
-6.42399
-7.09593
-8.05398
-9.3341
-10.9306
-12.8075
-14.9171
-17.2185
-19.6882
-22.3227
-25.1353
-28.1492
-31.3898
-34.8783
-38.6265
-42.6332
-46.8829
-51.3442
-55.9685
-60.6875
-65.4103
-70.0221
-74.3871
-78.357
-81.7827
-84.5245
-86.4605
-87.4838
-87.5173
-86.5793
-84.621
-81.6831
-77.8442
-73.2225
-67.971
-62.2683
-56.3069
-50.279
-44.3641
-38.7108
-33.4159
-28.5069
-23.9406
-19.6287
-15.4827
-11.4568
-7.56796
-3.88103
-0.476562
2.57928
5.25662
7.55469
9.48924
11.0881
12.3823
13.4005
14.1666
14.6975
15.0022
15.0798
14.9191
14.5008
13.8065
12.8362
11.6312
10.2911
8.97251
7.86388
7.14805
6.94537
7.32519
8.26398
9.64201
11.2453
12.8123
14.1331
15.0863
15.5606
15.3476
14.1111
11.5616
7.7302
3.1196
-1.77423
-6.69638
-11.5528
-16.329
-21.0247
-25.6259
-30.1016
-34.4083
-38.4943
-42.3017
-45.7692
-48.8341
-51.4351
-53.5149
-55.0216
-55.9125
-56.1643
-55.7702
-54.7204
-53.0281
-50.7197
-47.8344
-44.419
-40.5271
-36.2148
-31.535
-26.537
-21.269
-15.7736
-10.1356
-4.43873
1.18131
6.54966
11.4684
15.7528
19.2721
21.973
23.8764
25.0551
25.6072
25.6364
25.2424
24.519
23.5548
22.4333
21.2327
20.0234
18.866
17.8082
16.8838
16.1117
15.4975
15.0371
14.7153
14.5145
14.4169
14.4062
14.4689
14.5936
14.7701
14.9871
15.2325
15.4927
15.755
16.0088
16.2471
16.4665
16.6665
16.8479
17.0124
17.162
17.2998
17.4303
17.5599
17.6965
17.8492
18.024
18.2164
18.3946
18.4438
18.0537
16.6236
13.6713
9.6418
5.49992
1.69834
-1.59619
-4.15633
-5.78101
-6.34831
-5.82646
-4.20053
-1.56737
1.85471
5.7096
9.44575
-7.88083
-8.22827
-8.85371
-9.77309
-11.0121
-12.5622
-14.3904
-16.4584
-18.7382
-21.2207
-23.9159
-26.8475
-30.0451
-33.5377
-37.3466
-41.4824
-45.9423
-50.7094
-55.7504
-61.0115
-66.4131
-71.844
-77.1598
-82.1878
-86.742
-90.6441
-93.7393
-95.9038
-97.0448
-97.1121
-96.0836
-93.9432
-90.7203
-86.4902
-81.3773
-75.5486
-69.2032
-62.5557
-55.8231
-49.2184
-42.9388
-37.1336
-31.8648
-27.0898
-22.6839
-18.5024
-14.4413
-10.482
-6.6799
-3.12736
0.093317
2.93123
5.37309
7.43246
9.13906
10.5278
11.6315
12.4775
13.0862
13.47
13.6325
13.567
13.2578
12.6864
11.847
10.7694
9.53991
8.30624
7.25552
6.57316
6.38401
6.74186
7.61951
8.88111
10.3142
11.677
12.7895
13.545
13.8061
13.3028
11.6878
8.7674
4.6582
-0.069183
-4.99009
-9.91064
-14.7705
-19.5565
-24.2562
-28.8445
-33.2861
-37.5387
-41.5542
-45.2795
-48.6573
-51.6284
-54.1348
-56.1216
-57.5387
-58.3446
-58.5192
-58.0538
-56.9389
-55.1887
-52.8308
-49.9072
-46.4669
-42.5664
-38.2645
-33.6157
-28.6689
-23.466
-18.0471
-12.4752
-6.83447
-1.25493
4.08653
8.98606
13.255
16.7649
19.4699
21.3987
22.6274
23.2512
23.3669
23.0667
22.4383
21.567
20.5358
19.4242
18.3048
17.2402
16.2802
15.459
14.796
14.2963
13.9543
13.7536
13.6748
13.6974
13.8016
13.9704
14.189
14.4447
14.7255
15.0196
15.3158
15.6042
15.8769
16.1291
16.3586
16.5656
16.7514
16.9181
17.0682
17.2047
17.3317
17.4543
17.5783
17.7094
17.8495
17.9887
18.0913
18.0485
17.5708
16.1053
13.2041
9.25839
5.15658
1.37401
-1.88762
-4.41002
-6.00629
-6.55939
-6.04696
-4.44575
-1.84721
1.53732
5.35407
9.0525
-9.33047
-9.659
-10.2548
-11.1411
-12.3391
-13.8404
-15.6179
-17.6427
-19.8984
-22.3871
-25.1282
-28.1525
-31.4944
-35.1851
-39.2478
-43.6938
-48.5221
-53.7167
-59.2434
-65.0427
-71.0209
-77.0426
-82.9305
-88.4742
-93.4541
-97.6734
-100.98
-103.27
-104.473
-104.56
-103.511
-101.281
-97.8884
-93.4049
-87.9581
-81.7271
-74.9287
-67.794
-60.5498
-53.4199
-46.6288
-40.3709
-34.7538
-29.7568
-25.2447
-21.047
-16.9849
-13.0035
-9.13158
-5.46365
-2.1012
0.883199
3.46187
5.64441
7.46163
8.95161
10.1508
11.09
11.7926
12.2747
12.5443
12.6002
12.4323
12.0252
11.3702
10.4854
9.43833
8.35619
7.41155
6.78255
6.59475
6.88832
7.62926
8.66928
9.80896
10.8484
11.654
12.1318
12.111
11.2793
9.31503
6.11027
1.88327
-2.87744
-7.79103
-12.7043
-17.5682
-22.3628
-27.0652
-31.6442
-36.0628
-40.2796
-44.2486
-47.9186
-51.2343
-54.1384
-56.575
-58.4912
-59.8386
-60.5773
-60.6909
-60.1674
-58.9989
-57.2015
-54.801
-51.8468
-48.3877
-44.485
-40.1998
-35.5867
-30.6933
-25.5587
-20.2202
-14.7288
-9.16398
-3.65304
1.62489
6.46244
10.6718
14.1324
16.8095
18.7402
20.0014
20.6822
20.8702
20.6493
20.1019
19.3117
18.3628
17.3372
16.3104
15.3477
14.4999
13.8016
13.2707
12.9104
12.7114
12.655
12.7193
12.8804
13.1149
13.4025
13.7257
14.0699
14.4227
14.7733
15.1125
15.433
15.7293
15.9989
16.241
16.4567
16.6482
16.8179
16.9685
17.1033
17.2257
17.3397
17.449
17.5558
17.6579
17.7406
17.7656
17.6324
17.0835
15.6291
12.8494
9.0485
5.02453
1.28034
-1.94204
-4.42684
-5.99811
-6.54379
-6.04614
-4.47795
-1.92857
1.39354
5.13537
8.75472
-9.95666
-10.3652
-10.965
-11.8461
-13.0294
-14.5069
-16.2565
-18.2565
-20.498
-22.9902
-25.7583
-28.8375
-32.2656
-36.0766
-40.2957
-44.9368
-50.0008
-55.4728
-61.3173
-67.4686
-73.8202
-80.2166
-86.4542
-92.2962
-97.5018
-101.864
-105.239
-107.545
-108.742
-108.833
-107.801
-105.571
-102.145
-97.5791
-91.9993
-85.5908
-78.5838
-71.225
-63.7502
-56.3812
-49.338
-42.8262
-36.9913
-31.8509
-27.2807
-23.0741
-19.0322
-15.0476
-11.1299
-7.3754
-3.90281
-0.800746
1.89277
4.18336
6.1022
7.68965
8.98506
10.022
10.8267
11.4186
11.8096
12.0043
11.9995
11.7859
11.356
10.7196
9.92384
9.06682
8.29073
7.74977
7.55638
7.76042
8.30296
9.04446
9.81698
10.4754
10.9294
11.0848
10.7387
9.56464
7.27954
3.85016
-0.467263
-5.23754
-10.1441
-15.0552
-19.9235
-24.7235
-29.4268
-33.9997
-38.405
-42.601
-46.5416
-50.1759
-53.4493
-56.3057
-58.6907
-60.5531
-61.8464
-62.5328
-62.5995
-62.0304
-60.8216
-58.9928
-56.5589
-53.5942
-50.1309
-46.2344
-41.9692
-37.3942
-32.5582
-27.4982
-22.2468
-16.8483
-11.3785
-5.96466
-0.788712
3.94114
8.04367
11.412
14.026
15.9302
17.199
17.9122
18.1468
17.9789
17.488
16.7581
15.8767
14.9297
13.9963
13.1443
12.4255
11.8735
11.5027
11.3121
11.2863
11.4033
11.6366
11.9583
12.3416
12.7631
13.2033
13.6465
14.0803
14.4953
14.8843
15.2424
15.567
15.8574
16.1146
16.3408
16.539
16.7122
16.8636
16.9962
17.1133
17.2177
17.3111
17.3931
17.4574
17.4858
17.4384
17.2239
16.6217
15.2118
12.6036
9.00378
5.10502
1.42705
-1.74554
-4.19093
-5.73938
-6.28297
-5.80563
-4.27911
-1.79426
1.43888
5.06723
8.56519
-9.73647
-10.1895
-10.8664
-11.7941
-12.9991
-14.4811
-16.2246
-18.2136
-20.4436
-22.9268
-25.691
-28.7737
-32.215
-36.051
-40.3093
-45.006
-50.1434
-55.7071
-61.6602
-67.9339
-74.416
-80.9432
-87.3029
-93.2494
-98.5355
-102.95
-106.348
-108.661
-109.879
-110.015
-109.029
-106.85
-103.478
-98.9602
-93.4165
-87.0329
-80.0434
-72.7006
-65.2422
-57.8809
-50.8243
-44.2816
-38.4168
-33.2688
-28.7198
-24.5488
-20.5358
-16.5549
-12.609
-8.79895
-5.25398
-2.0722
0.702875
3.0751
5.07614
6.74781
8.13118
9.2616
10.1675
10.8704
11.386
11.7237
11.8868
11.8734
11.6807
11.3155
10.809
10.2292
9.67954
9.2778
9.11895
9.20121
9.50987
9.92311
10.314
10.5913
10.6923
10.5111
9.82167
8.30692
5.72856
2.10182
-2.30034
-7.09102
-12.0041
-16.9239
-21.8039
-26.6146
-31.3246
-35.8984
-40.2981
-44.4824
-48.405
-52.0148
-55.2576
-58.0784
-60.4243
-62.2459
-63.4987
-64.1473
-64.1818
-63.5818
-62.3478
-60.4981
-58.061
-55.0879
-51.6294
-47.7492
-43.5143
-38.9867
-34.2162
-29.2383
-24.0826
-18.7897
-13.4348
-8.14778
-3.11406
1.46065
5.40786
8.64002
11.1533
12.9972
14.2398
14.9495
15.1927
15.0402
14.5712
13.8733
13.0387
12.1587
11.3168
10.5834
10.0107
9.63096
9.45236
9.46691
9.6513
9.9772
10.4118
10.9216
11.4762
12.0498
12.6214
13.1753
13.6998
14.1872
14.6328
15.0342
15.3914
15.7059
15.9807
16.2191
16.4251
16.6024
16.7547
16.885
16.9962
17.0903
17.1675
17.2252
17.2542
17.2337
17.1232
16.841
16.2035
14.861
12.4584
9.10867
5.38763
1.81232
-1.29351
-3.69426
-5.22046
-5.76613
-5.31486
-3.83981
-1.43699
1.67805
5.15287
8.48756
-8.85899
-9.25593
-10.0524
-11.0672
-12.3069
-13.7955
-15.531
-17.5015
-19.7033
-22.1483
-24.8634
-27.8855
-31.2548
-35.0087
-39.1765
-43.776
-48.8105
-54.266
-60.1058
-66.262
-72.6264
-79.0424
-85.3069
-91.1843
-96.4345
-100.847
-104.271
-106.625
-107.896
-108.093
-107.159
-105.044
-101.764
-97.3788
-92.0081
-85.8352
-79.0872
-72.0077
-64.8221
-57.7281
-50.9202
-44.601
-38.9319
-33.9493
-29.5291
-25.4449
-21.4773
-17.5075
-13.5498
-9.71528
-6.1397
-2.92286
-0.107321
2.31229
4.3687
6.10428
7.56037
8.7728
9.77077
10.5773
11.2102
11.6822
12.0017
12.173
12.1986
12.0862
11.8571
11.5555
11.2478
11.0075
10.8889
10.899
11.0019
11.1214
11.1796
11.126
10.9087
10.4066
9.38422
7.54823
4.70525
0.903294
-3.58285
-8.40873
-13.3434
-18.2824
-23.1797
-28.0043
-32.7242
-37.304
-41.7055
-45.8865
-49.8001
-53.3949
-56.6172
-59.4131
-61.7313
-63.5239
-64.7478
-65.3688
-65.3795
-64.758
-63.5101
-61.654
-59.221
-56.258
-52.8199
-48.9714
-44.7813
-40.3139
-35.6199
-30.7342
-25.6848
-20.5124
-15.2949
-10.1679
-5.3193
-0.947622
2.79746
5.85129
8.2251
9.96946
11.1429
11.8017
12.0047
11.821
11.3331
10.6342
9.82261
8.99515
8.23991
7.62987
7.21822
7.0349
7.08077
7.3387
7.77546
8.35246
9.02711
9.75869
10.5123
11.2598
11.9799
12.6576
13.2832
13.8513
14.3601
14.8101
15.2042
15.5461
15.8407
16.093
16.3079
16.4901
16.6435
16.7715
16.8766
16.9603
17.0216
17.0563
17.0534
16.9905
16.8281
16.4937
15.8375
14.5773
12.3999
9.33876
5.84858
2.42046
-0.593325
-2.93873
-4.44035
-4.99082
-4.57181
-3.1602
-0.860455
2.10409
5.38471
8.51646
-7.76761
-7.98994
-8.80891
-9.90978
-11.17
-12.6337
-14.3235
-16.2339
-18.3614
-20.7154
-23.3181
-26.2021
-29.4045
-32.9613
-36.9016
-41.2434
-45.9907
-51.1296
-56.625
-62.4141
-68.3994
-74.4437
-80.3696
-85.9701
-91.029
-95.3478
-98.7684
-101.186
-102.549
-102.833
-101.989
-100.008
-96.9322
-92.831
-87.8256
-82.09
-75.8344
-69.2782
-62.6221
-56.0449
-49.7288
-43.8641
-38.5916
-33.923
-29.7198
-25.7609
-21.8502
-17.8999
-13.9511
-10.1295
-6.57135
-3.36987
-0.5601
1.86793
3.94834
5.72289
7.23166
8.50932
9.58453
10.4804
11.2155
11.8045
12.2584
12.5853
12.7916
12.8858
12.8839
12.8144
12.7169
12.6308
12.5783
12.5525
12.5187
12.4315
12.2518
11.9519
11.479
10.7003
9.38439
7.26823
4.19919
0.248018
-4.31795
-9.18836
-14.1562
-19.1228
-24.0421
-28.8829
-33.6136
-38.1996
-42.6029
-46.7809
-50.6866
-54.2687
-57.4741
-60.2505
-62.5476
-64.3193
-65.5238
-66.1279
-66.1252
-65.4942
-64.2456
-62.3973
-59.9822
-57.0462
-53.6458
-49.8464
-45.7181
-41.3264
-36.7222
-31.9402
-27.0094
-21.9744
-16.9203
-11.9902
-7.37259
-3.25245
0.245465
3.0806
5.2752
6.87556
7.92856
8.48089
8.58859
8.32393
7.77534
7.04255
6.22976
5.43876
4.76194
4.27527
4.03352
4.06361
4.36126
4.89957
5.63223
6.50586
7.4643
8.45667
9.44185
10.3892
11.2777
12.0943
12.8323
13.4898
14.0685
14.5724
15.0073
15.3797
15.6964
15.9642
16.1892
16.3769
16.5319
16.6578
16.757
16.8306
16.8768
16.8903
16.8593
16.7612
16.5581
16.1863
15.5261
14.356
12.4097
9.66229
6.45167
3.22049
0.332836
-1.93918
-3.40942
-3.96539
-3.58538
-2.25231
-0.0810671
2.69767
5.74459
8.63842
-6.95943
-6.96807
-7.57016
-8.60735
-9.8275
-11.217
-12.8026
-14.5859
-16.5673
-18.7566
-21.1724
-23.8403
-26.791
-30.0555
-33.6599
-37.6205
-41.9406
-46.6071
-51.5874
-56.8252
-62.237
-67.7079
-73.0918
-78.2171
-82.8994
-86.9594
-90.2395
-92.6166
-94.0065
-94.3712
-93.6807
-91.9559
-89.2427
-85.6139
-81.1859
-76.1168
-70.5899
-64.7897
-58.8861
-53.0424
-47.4336
-42.2288
-37.5241
-33.2828
-29.3469
-25.5179
-21.652
-17.7194
-13.8028
-10.0408
-6.55945
-3.43343
-0.682834
1.70956
3.7789
5.56458
7.1034
8.42708
9.56213
10.5305
11.3501
12.0359
12.6
13.052
13.3998
13.6517
13.8194
13.9212
13.98
14.0149
14.0289
14.0035
13.9125
13.7194
13.405
12.9488
12.2919
11.2967
9.74434
7.40428
4.15794
0.0905594
-4.54222
-9.45684
-14.4613
-19.4587
-24.4015
-29.258
-33.9976
-38.5869
-42.9883
-47.1597
-51.0543
-54.6216
-57.8099
-60.5678
-62.8466
-64.6016
-65.7924
-66.3874
-66.3779
-65.7478
-64.5099
-62.6827
-60.2999
-57.4079
-54.0633
-50.3321
-46.2847
-41.9867
-37.4884
-32.8246
-28.0273
-23.1486
-18.2859
-13.5925
-9.25577
-5.44124
-2.24263
0.32502
2.29131
3.69414
4.56841
4.95506
4.9124
4.51946
3.87188
3.0752
2.23835
1.46739
0.858717
0.491662
0.423027
0.677391
1.24948
2.10256
3.17465
4.3941
5.68673
6.98693
8.24427
9.42425
10.5062
11.4804
12.3446
13.1017
13.7578
14.3213
14.8012
15.2071
15.5483
15.8332
16.0695
16.2636
16.4208
16.545
16.6389
16.7029
16.7352
16.7299
16.6748
16.5481
16.3144
15.9186
15.2662
14.1884
12.4682
10.0452
7.15318
4.16926
1.44915
-0.72343
-2.14998
-2.70988
-2.37678
-1.14132
0.871576
3.4278
6.20542
8.83366
-6.65868
-6.57422
-6.79713
-7.5109
-8.56553
-9.82147
-11.2413
-12.8248
-14.5826
-16.5316
-18.6915
-21.0841
-23.7324
-26.6595
-29.8845
-33.4192
-37.2639
-41.4048
-45.8108
-50.4315
-55.1944
-60.0034
-64.7389
-69.2617
-73.4203
-77.063
-80.0501
-82.2675
-83.6334
-84.103
-83.6419
-82.2678
-80.0287
-76.9957
-73.2736
-68.9981
-64.3191
-59.3842
-54.338
-49.3356
-44.5413
-40.0845
-35.995
-32.1816
-28.4805