/*--------------------------------*- C++ -*----------------------------------*\
  =========                 |
  \\      /  F ield         | OpenFOAM: The Open Source CFD Toolbox
   \\    /   O peration     | Website:  https://openfoam.org
    \\  /    A nd           | Version:  9
     \\/     M anipulation  |
\*---------------------------------------------------------------------------*/
FoamFile
{
    format      ascii;
    class       volScalarField;
    location    "0.082";
    object      nut;
}
// * * * * * * * * * * * * * * * * * * * * * * * * * * * * * * * * * * * * * //

dimensions      [0 2 -1 0 0 0 0];

internalField   nonuniform List<scalar> 
12225
(
0
0
0
0
0
0
0
0
0
0
0
0
0
0
0
0
0
0
0
0
0
0
0
0
0
0
0
0
0
0
0
0
0
0
0
0
0
0
0
0
0
0
0
0
0
0
0
0
0
0
0
3.77632e-11
0
0
0
2.45668e-09
7.50184e-09
3.25985e-09
0
0
0
1.43609e-09
3.3629e-09
2.36986e-09
3.17199e-10
0
0
0
0
0
2.2679e-10
0
0
0
0
0
0
6.41061e-08
3.6489e-07
8.00476e-07
9.59476e-07
6.33154e-07
4.03644e-08
0
0
0
0
0
0
0
0
0
0
1.96843e-08
6.30786e-08
0
3.35381e-08
3.7256e-07
7.8631e-07
8.42423e-07
5.65424e-07
2.61214e-07
0
2.93359e-08
2.25195e-07
1.19957e-07
5.23726e-08
2.97972e-08
0
0
0
4.84523e-07
2.91799e-07
2.06371e-07
2.17233e-07
2.57306e-07
2.08237e-07
1.836e-07
4.1176e-07
5.39392e-07
3.83826e-07
1.9486e-07
2.69303e-07
6.59057e-08
2.5692e-08
3.16251e-08
2.00641e-08
2.45711e-07
5.21285e-07
7.52551e-07
5.49737e-07
1.77027e-07
0
0
0
0
4.97087e-07
6.42195e-07
5.26779e-07
3.17781e-07
0
0
0
1.00442e-07
8.39166e-07
5.65508e-07
5.54219e-07
1.31296e-06
1.16771e-06
0
0
0
0
0
6.85071e-07
8.18887e-07
4.84848e-07
1.85572e-07
0
0
5.24128e-08
3.0611e-07
1.5843e-09
0
0
0
8.6161e-07
0
0
0
0
0
0
4.39457e-08
3.26445e-08
0
1.26859e-07
6.35538e-08
0
0
0
0
0
0
5.87735e-07
7.18561e-07
0
0
0
0
0
0
0
0
0
0
0
0
0
0
0
8.01497e-07
1.38506e-06
8.54506e-07
0
0
0
0
0
0
0
0
0
0
0
0
0
0
5.0344e-07
1.7653e-06
1.86219e-06
1.30855e-06
4.168e-07
0
0
0
0
0
0
0
0
0
0
0
0
2.28737e-07
7.831e-07
1.46802e-06
1.47723e-06
1.05476e-06
4.54988e-07
0
0
0
0
0
0
0
0
1.85516e-08
1.30409e-07
9.61159e-08
0
0
0
0
3.77831e-07
9.47491e-07
7.08283e-07
2.05469e-07
0
0
0
0
0
0
0
2.88433e-07
5.39526e-07
4.8955e-07
0
2.52652e-09
0
0
0
7.45132e-07
4.98141e-07
1.27811e-07
0
0
0
0
0
1.35413e-07
5.87054e-07
1.17529e-06
1.40186e-06
1.09485e-06
1.04128e-07
7.36749e-07
5.61652e-07
0
0
0
0
1.20804e-07
0
0
0
0
0
0
0
0
5.23581e-07
1.3505e-06
4.2583e-07
5.61048e-07
2.47416e-07
0
0
0
0
0
0
0
0
0
0
0
0
6.73894e-08
6.16869e-08
0
2.95126e-07
9.63836e-08
0
0
0
0
0
0
0
5.43765e-07
1.02126e-06
3.66996e-07
0
0
1.46776e-07
2.58893e-07
1.77053e-07
6.42286e-08
0
0
0
0
0
0
5.14406e-07
3.35114e-07
0
0
8.09741e-07
1.32159e-06
3.09394e-07
0
0
0
0
0
0
0
0
0
0
0
4.64137e-07
1.29182e-06
1.04735e-07
0
0
0
0
0
0
3.05993e-07
1.28542e-06
0
0
0
0
0
8.20543e-07
0
0
1.35507e-07
0
0
0
0
4.50532e-07
6.97793e-07
1.31409e-06
2.36344e-06
2.55136e-06
2.1114e-06
0
3.36148e-07
7.44466e-07
9.70956e-07
2.50818e-06
0
0
0
0
0
0
0
1.67802e-07
1.80262e-07
2.06323e-07
4.25937e-07
6.51736e-07
7.4279e-07
1.44237e-06
2.1247e-06
1.95664e-06
1.37042e-06
2.5865e-07
0
3.51232e-08
7.20017e-08
1.09116e-07
1.0715e-07
5.03634e-08
0
0
0
0
0
0
0
1.28906e-06
1.61082e-06
2.31789e-06
4.76767e-07
0
0
0
2.53507e-08
1.22004e-07
1.55556e-07
1.08899e-07
0
0
0
0
0
0
0
1.42697e-06
1.44237e-06
2.36509e-06
0
0
0
0
0
0
3.67144e-08
4.62266e-08
1.08196e-08
0
0
0
0
0
0
1.32557e-08
0
0
0
4.19993e-09
1.40902e-08
5.74417e-09
0
0
0
0
3.20731e-10
5.48451e-09
5.3022e-09
0
0
0
0
0
0
0
0
3.05087e-11
1.27426e-10
0
0
0
0
0
0
1.52999e-10
5.94568e-11
0
0
0
0
0
0
0
0
0
0
0
0
0
0
0
0
0
0
0
0
0
0
2.0807e-10
0
0
0
0
0
0
0
0
0
0
0
0
0
0
0
0
0
0
1.47277e-05
2.78916e-05
2.8931e-05
2.55601e-05
2.22865e-05
1.82962e-05
1.17528e-05
2.85225e-06
0
0
0
0
0
3.43116e-06
1.17077e-05
1.49543e-05
1.46279e-05
1.20449e-05
8.94391e-06
6.19363e-06
4.22095e-06
2.94685e-06
2.44221e-06
3.2496e-06
5.63199e-06
7.38136e-06
7.201e-06
4.8832e-06
3.58867e-06
3.23624e-06
3.18245e-06
2.98623e-06
2.5826e-06
2.19734e-06
1.92769e-06
1.6825e-06
1.39093e-06
1.085e-06
8.11024e-07
5.65255e-07
3.23049e-07
7.47634e-08
0
0
0
0
0
0
0
0
0
0
0
0
0
0
0
3.74715e-07
0
0
0
0
0
0
0
0
0
0
0
0
0
0
0
0
0
0
0
0
3.34066e-06
1.69748e-05
3.25381e-05
5.50909e-05
5.88377e-05
5.1385e-05
4.91479e-05
4.96149e-05
3.96462e-05
2.35731e-05
1.23061e-05
6.40061e-06
3.45818e-06
2.00153e-06
1.3137e-06
9.90637e-07
7.7579e-07
5.21955e-07
2.07703e-07
0
0
0
0
1.39067e-08
1.597e-07
2.69284e-07
3.31051e-07
3.47577e-07
3.295e-07
2.89962e-07
2.38753e-07
1.8522e-07
1.33638e-07
8.63982e-08
4.28378e-08
1.62879e-09
0
0
0
0
0
0
0
0
0
0
0
0
0
0
0
0
0
0
0
0
0
0
0
0
0
0
0
0
0
0
0
0
0
0
0
0
0
0
0
0
0
1.01236e-08
1.41892e-08
8.65192e-09
4.36224e-09
6.03048e-09
1.13367e-08
1.7109e-08
2.25769e-08
2.58761e-08
2.40316e-08
1.84257e-08
1.23395e-08
4.56048e-09
0
0
0
0
0
0
7.89414e-10
0
0
0
0
7.37596e-06
9.48973e-06
6.07523e-06
1.89662e-06
0
0
0
0
0
0
0
0
0
0
0
0
2.4611e-06
3.65301e-06
1.09347e-06
0
8.48433e-08
1.01792e-06
1.60488e-06
2.00981e-06
3.16496e-06
5.86322e-06
8.54076e-06
8.79749e-06
6.29213e-06
4.71e-06
4.14978e-06
3.99656e-06
3.63297e-06
3.01798e-06
2.48375e-06
2.12689e-06
1.81181e-06
1.45572e-06
1.10599e-06
8.09248e-07
5.54611e-07
3.08117e-07
5.70521e-08
0
0
0
0
0
0
0
0
0
0
0
0
0
5.55039e-07
1.70759e-06
2.29256e-06
2.25915e-06
1.25338e-06
0
0
0
0
0
0
0
0
0
0
0
0
0
0
7.75676e-07
2.43215e-06
9.31788e-07
0
3.39686e-06
2.06138e-05
3.85442e-05
5.11437e-05
3.99368e-05
2.79485e-05
2.11113e-05
1.67288e-05
1.37423e-05
1.15033e-05
9.66157e-06
8.16191e-06
7.03806e-06
6.26547e-06
5.73233e-06
5.28435e-06
4.79576e-06
4.16846e-06
3.36151e-06
2.47663e-06
1.62997e-06
9.80446e-07
5.9382e-07
4.23958e-07
3.75442e-07
3.66561e-07
3.53661e-07
3.26707e-07
2.89298e-07
2.47105e-07
2.03961e-07
1.6131e-07
1.19605e-07
8.0034e-08
4.13343e-08
2.08287e-09
0
0
0
0
0
0
0
0
0
0
0
0
0
0
0
0
0
0
0
0
0
0
0
0
0
0
0
0
0
0
0
0
0
0
0
0
0
0
0
0
0
0
0
0
0
0
0
9.56231e-09
2.38948e-08
3.36649e-08
3.548e-08
3.06774e-08
2.50877e-08
1.98051e-08
1.40919e-08
0
0
0
0
0
0
0
0
0
0
6.89067e-06
1.19219e-05
1.261e-05
9.91068e-06
4.68671e-06
0
0
0
0
0
0
0
0
0
0
0
0
0
0
0
0
0
0
0
0
1.60367e-07
5.71792e-06
9.08001e-06
8.32161e-06
6.72992e-06
5.90817e-06
5.63271e-06
5.09789e-06
4.27857e-06
3.64154e-06
3.2523e-06
2.74849e-06
2.0441e-06
1.38588e-06
8.87175e-07
5.28559e-07
2.40186e-07
0
0
0
0
0
0
0
0
0
0
0
0
0
4.08145e-07
6.39171e-07
8.98089e-07
1.52337e-06
2.57494e-06
3.75388e-06
3.46818e-06
2.46356e-08
0
0
0
0
0
0
0
0
0
0
7.93929e-08
2.76112e-06
6.05214e-06
7.23091e-06
3.825e-06
4.37406e-07
0
0
2.43758e-06
6.47464e-06
7.55827e-06
7.78715e-06
8.24484e-06
9.20881e-06
1.04438e-05
1.13662e-05
1.16809e-05
1.15557e-05
1.12602e-05
1.09315e-05
1.05748e-05
1.01339e-05
9.51045e-06
8.72625e-06
7.66862e-06
6.39959e-06
5.03644e-06
3.75773e-06
2.67545e-06
1.87487e-06
1.34707e-06
1.02854e-06
8.38884e-07
7.07666e-07
5.97049e-07
5.01847e-07
4.16705e-07
3.27821e-07
2.4167e-07
1.60515e-07
8.52652e-08
8.87484e-09
0
0
0
0
0
0
0
0
0
0
0
0
0
0
0
0
0
0
0
0
0
0
0
0
0
0
0
0
0
1.52613e-08
2.39255e-08
3.11327e-08
4.44954e-08
2.94409e-08
0
0
0
0
0
0
0
0
0
0
0
0
0
0
1.31693e-08
6.00388e-08
8.20727e-08
7.72035e-08
6.74061e-08
7.41058e-08
8.12337e-08
3.79129e-08
0
2.01379e-09
0
0
0
0
0
0
0
3.02532e-06
1.006e-05
1.46964e-05
1.47206e-05
1.16801e-05
7.41248e-06
2.23167e-06
0
0
0
0
0
0
0
0
0
0
0
0
0
0
0
0
0
0
0
0
0
0
0
0
0
0
0
0
0
0
0
0
0
0
0
0
0
0
0
1.33575e-07
2.91478e-07
4.00922e-07
4.83732e-07
5.39539e-07
5.86096e-07
6.21796e-07
6.53498e-07
7.00508e-07
7.96496e-07
1.04305e-06
1.60265e-06
2.43822e-06
3.42383e-06
4.753e-06
4.82171e-06
2.93032e-06
2.19013e-06
2.55176e-06
3.45714e-06
4.72738e-06
5.81805e-06
6.39331e-06
5.92897e-06
3.15739e-06
0
0
2.55591e-06
6.18091e-06
5.32062e-06
2.45938e-06
0
0
0
0
0
6.15972e-07
2.31527e-06
4.34219e-06
7.01929e-06
7.57045e-06
5.35195e-06
3.53766e-06
2.59126e-06
2.15782e-06
2.01808e-06
2.04317e-06
2.15265e-06
2.29827e-06
2.40999e-06
2.44953e-06
2.3451e-06
2.1133e-06
1.80737e-06
1.50718e-06
1.28356e-06
1.1354e-06
1.06317e-06
1.08687e-06
1.24438e-06
1.59528e-06
2.15148e-06
2.92507e-06
3.55971e-06
4.13865e-06
4.65911e-06
4.68221e-06
2.92572e-06
2.86961e-07
0
0
0
0
0
0
0
0
0
0
0
0
0
0
0
0
0
0
0
0
0
0
0
0
0
0
0
0
0
0
0
0
0
0
0
0
0
0
0
0
0
0
0
0
0
0
0
0
0
0
1.11743e-07
1.24634e-07
5.0769e-08
3.3751e-08
8.75205e-08
1.13504e-07
7.15406e-08
1.59211e-07
7.71794e-08
0
0
0
0
8.32041e-07
0
1.19939e-06
3.94145e-06
1.05389e-05
9.34515e-06
1.65346e-06
0
0
0
0
0
8.35786e-06
4.76487e-06
2.4528e-06
2.04398e-06
1.65036e-06
0
0
0
0
0
0
0
0
0
0
0
0
0
0
0
0
0
0
0
0
0
0
0
0
0
0
0
1.11023e-07
2.95203e-07
4.50266e-07
5.71227e-07
6.56078e-07
7.01403e-07
7.24932e-07
7.30703e-07
7.11878e-07
7.00528e-07
6.83547e-07
6.82746e-07
6.97446e-07
7.27736e-07
8.10324e-07
1.03978e-06
1.49002e-06
2.22637e-06
3.10769e-06
2.34861e-06
1.57875e-06
2.39083e-06
2.63731e-06
3.68216e-06
5.28148e-06
6.31783e-06
6.36409e-06
4.5143e-06
0
0
0
0
8.30873e-06
2.28285e-06
0
0
0
0
0
0
0
2.09477e-06
5.18785e-06
2.491e-06
1.09754e-06
6.51971e-07
4.92739e-07
4.20222e-07
3.83664e-07
3.71601e-07
3.7088e-07
3.74193e-07
3.86532e-07
4.05092e-07
4.24871e-07
4.48512e-07
4.85197e-07
5.44119e-07
6.2737e-07
7.40189e-07
8.48686e-07
1.01233e-06
1.3411e-06
1.97841e-06
2.76213e-06
3.29636e-06
3.38202e-06
2.93138e-06
2.14719e-06
1.24547e-06
3.66542e-07
0
0
0
0
0
0
0
0
0
0
0
0
0
0
0
0
0
0
0
0
0
0
0
0
0
0
0
0
0
0
0
0
0
0
0
0
0
0
0
0
0
0
0
0
0
0
0
0
0
0
0
0
0
1.10822e-07
1.31677e-07
8.36797e-08
0
0
9.62718e-09
2.9184e-07
3.71512e-07
3.68236e-07
7.81371e-08
0
8.76759e-07
1.61321e-06
0
4.53203e-07
1.37486e-06
6.0178e-06
0
0
0
0
0
0
4.17806e-05
5.45178e-05
3.01164e-05
1.65151e-05
6.55601e-06
3.59122e-07
0
0
0
0
0
0
0
0
0
0
0
0
0
0
0
0
0
0
0
0
0
0
0
0
0
0
0
9.75436e-08
3.51275e-07
5.72476e-07
7.48636e-07
8.44596e-07
8.78153e-07
8.86242e-07
8.52391e-07
7.64513e-07
7.173e-07
6.56641e-07
6.09573e-07
5.7377e-07
5.38705e-07
5.5476e-07
6.40582e-07
8.16671e-07
1.05363e-06
1.27832e-06
1.56763e-06
2.28362e-06
4.00036e-06
3.42921e-06
3.33421e-06
3.98426e-06
4.38025e-06
3.46456e-06
0
0
0
0
0
1.04102e-05
1.04066e-06
0
0
0
0
0
0
0
0
0
0
6.9161e-08
2.24886e-07
3.08849e-07
3.28234e-07
3.23402e-07
3.25341e-07
3.23892e-07
3.13691e-07
3.05366e-07
3.00655e-07
3.1144e-07
3.4278e-07
4.00586e-07
5.03897e-07
6.68173e-07
8.61267e-07
1.10968e-06
1.51521e-06
2.17357e-06
2.59214e-06
2.68921e-06
2.2762e-06
1.48976e-06
5.92122e-07
0
0
0
0
8.89223e-07
1.90524e-06
1.87561e-06
1.56918e-06
1.23378e-06
9.19802e-07
6.28764e-07
3.44023e-07
4.70552e-08
0
0
0
0
0
0
0
0
0
0
0
0
0
0
0
0
0
0
0
0
0
0
0
0
0
0
0
0
0
0
0
0
0
0
0
0
0
0
0
0
0
0
0
3.60754e-08
1.53e-07
1.26854e-07
0
0
0
0
0
8.04743e-09
0
3.88943e-07
1.95737e-06
2.37188e-06
4.32933e-07
8.06978e-08
4.23577e-07
2.25788e-06
0
0
0
0
0
8.66155e-06
4.37235e-05
3.90178e-05
2.66623e-05
1.82447e-05
1.02111e-05
3.36198e-06
0
0
0
0
0
0
0
0
0
0
0
0
0
0
0
0
0
0
0
0
0
0
0
0
0
0
0
0
1.69852e-07
4.37409e-07
7.13046e-07
9.64788e-07
1.15295e-06
1.2669e-06
1.26479e-06
1.15426e-06
1.0068e-06
8.14953e-07
6.66992e-07
5.44665e-07
4.77307e-07
4.41456e-07
4.18074e-07
4.57818e-07
5.93945e-07
8.09062e-07
1.14526e-06
1.8807e-06
3.75366e-06
4.77904e-06
3.60763e-06
3.06808e-06
2.9528e-06
1.00666e-06
0
0
0
0
0
0
0
0
0
0
0
0
0
0
0
0
0
0
1.49951e-07
2.63451e-07
2.8787e-07
2.88662e-07
2.92762e-07
2.91563e-07
2.82944e-07
2.72064e-07
2.70164e-07
2.88009e-07
3.17145e-07
3.82411e-07
5.2964e-07
7.59736e-07
1.07556e-06
1.52731e-06
1.9848e-06
1.99128e-06
1.67034e-06
1.13462e-06
6.05488e-07
5.1718e-08
0
0
0
0
0
2.16442e-06
2.08501e-06
1.64162e-06
1.21443e-06
8.78881e-07
6.24654e-07
4.30354e-07
2.83965e-07
1.63428e-07
2.98822e-08
0
0
0
0
0
0
0
0
0
0
0
0
0
0
0
0
0
0
0
0
0
0
0
0
0
0
0
0
0
0
0
0
0
0
0
0
0
0
0
1.00604e-07
1.19257e-07
1.50254e-07
3.16491e-07
5.01313e-07
4.56788e-07
9.62722e-08
0
0
0
0
0
0
1.58782e-06
3.64042e-06
3.52572e-06
1.03732e-06
0
0
5.72694e-08
0
0
0
0
9.31184e-07
8.19938e-06
2.17183e-05
2.69603e-05
2.48506e-05
2.27062e-05
1.8313e-05
9.92601e-06
2.28232e-06
0
0
0
0
0
0
0
0
0
0
0
0
0
0
0
0
0
0
0
0
0
0
0
0
0
0
0
0
0
0
0
0
2.09779e-07
9.73257e-07
1.44829e-06
1.54641e-06
1.38347e-06
1.1062e-06
8.29052e-07
5.96021e-07
4.45801e-07
3.60299e-07
3.14858e-07
2.91077e-07
3.46436e-07
5.10621e-07
1.56319e-07
1.5539e-07
1.89323e-06
6.63841e-06
5.485e-06
6.11572e-06
7.09633e-06
0
0
0
0
0
0
0
0
0
0
0
0
0
0
1.03097e-08
0
0
1.34442e-07
1.52188e-07
1.07723e-07
7.82481e-08
8.26461e-08
1.08339e-07
1.37322e-07
1.55659e-07
1.58992e-07
1.74727e-07
2.08075e-07
2.51652e-07
3.4496e-07
5.41252e-07
8.72975e-07
1.37632e-06
1.84732e-06
1.58975e-06
8.60023e-07
2.08021e-07
1.04038e-07
1.03404e-07
0
0
0
0
0
1.37975e-06
1.43744e-06
9.49654e-07
5.05772e-07
1.72328e-07
0
0
0
0
0
0
0
0
0
0
0
0
0
0
0
0
0
0
0
0
0
0
0
0
0
0
0
0
0
0
0
0
0
0
0
0
0
0
0
0
0
0
0
1.72599e-06
2.36057e-06
2.22535e-06
1.8292e-06
1.4668e-06
1.29345e-06
1.15158e-06
8.26057e-07
2.43842e-07
0
0
0
0
0
8.45824e-07
4.42447e-06
6.90581e-06
5.88452e-06
2.19495e-06
0
0
0
1.44567e-06
0
0
0
1.5819e-06
5.44909e-06
1.13463e-05
1.57288e-05
1.65261e-05
1.65816e-05
1.73387e-05
1.60101e-05
8.21693e-06
3.30181e-06
1.05183e-06
0
0
0
0
0
0
0
0
0
0
0
0
0
0
0
0
0
0
4.48929e-07
6.64655e-07
3.39305e-07
0
0
0
0
0
0
0
0
0
0
0
0
0
1.16663e-06
1.43828e-06
1.28251e-06
9.74803e-07
6.82635e-07
4.60832e-07
3.16287e-07
2.34966e-07
1.9806e-07
2.19398e-07
1.83598e-07
0
0
0
0
2.15391e-06
3.28549e-06
1.33744e-06
0
0
0
0
0
0
0
0
0
0
0
9.91731e-08
2.95866e-07
2.98613e-07
2.74813e-07
2.74301e-07
6.45893e-07
5.25847e-07
9.45237e-08
0
0
0
0
2.11587e-08
5.97454e-08
9.05329e-08
1.28694e-07
1.81831e-07
2.94541e-07
5.4589e-07
1.01795e-06
1.59186e-06
1.60512e-06
6.53192e-07
0
0
6.82151e-08
3.50635e-07
7.58147e-08
0
0
0
1.3178e-06
1.73771e-06
1.22119e-06
5.85419e-07
1.19329e-07
0
0
0
0
0
0
0
0
0
0
0
0
0
0
0
0
0
0
0
0
0
0
0
0
0
0
0
0
0
0
0
0
0
0
0
0
0
0
0
7.01352e-07
9.12386e-07
0
0
8.28675e-07
1.84115e-06
3.07276e-06
4.47332e-06
5.25502e-06
5.45543e-06
4.90703e-06
2.67134e-06
1.29105e-06
5.12462e-07
0
0
0
1.74255e-07
6.78596e-07
2.47447e-06
8.94347e-06
1.14028e-05
9.61452e-06
3.53386e-06
0
0
0
2.25976e-06
3.48067e-06
1.73521e-06
3.9631e-07
1.4365e-07
9.59916e-07
3.16964e-06
6.82535e-06
1.14424e-05
1.69275e-05
1.94764e-05
1.46759e-05
9.10576e-06
5.50221e-06
3.10366e-06
1.38478e-06
0
0
0
0
0
0
0
0
0
0
0
0
0
0
2.26619e-07
9.84177e-07
1.54585e-06
1.86338e-06
1.80666e-06
1.30528e-06
4.32987e-07
0
0
0
0
2.64656e-07
3.62013e-07
0
0
0
0
0
0
0
0
1.09688e-06
1.23178e-06
9.84235e-07
6.90228e-07
4.50953e-07
2.85652e-07
1.91816e-07
1.3496e-07
9.30779e-08
0
0
0
0
0
4.49737e-07
6.91061e-08
0
0
0
0
0
0
0
0
0
0
1.25966e-07
3.49253e-07
2.83406e-07
3.04729e-07
3.92368e-07
3.5394e-07
3.47852e-07
4.86281e-07
2.51697e-07
6.99619e-08
0
0
0
0
3.55061e-08
7.04383e-08
1.02024e-07
1.46635e-07
2.54439e-07
5.49995e-07
1.06144e-06
1.58502e-06
1.05321e-06
0
0
0
3.54196e-07
5.87776e-07
1.17042e-07
0
0
7.72162e-07
2.49546e-06
2.63634e-06
1.98506e-06
1.22498e-06
6.01457e-07
9.67263e-08
0
0
0
0
0
0
0
0
0
0
0
0
0
0
0
0
0
0
0
0
0
0
0
0
0
0
0
0
0
0
0
0
0
0
0
1.68302e-07
8.32079e-07
3.79672e-06
3.76593e-06
2.85015e-06
5.47594e-07
0
5.14698e-07
1.13012e-06
1.36364e-06
1.84805e-06
2.51148e-06
2.98702e-06
3.76915e-06
5.75123e-06
3.38405e-06
1.59654e-06
4.58238e-07
0
1.35511e-07
1.11656e-06
1.97023e-06
3.80196e-06
4.52285e-06
3.26433e-06
0
7.55627e-09
0
0
0
0
1.65408e-06
3.14487e-06
3.15318e-06
2.55687e-06
2.12088e-06
2.64844e-06
5.15391e-06
1.01217e-05
1.58448e-05
1.82746e-05
1.65862e-05
1.32506e-05
9.92207e-06
7.19962e-06
5.23784e-06
3.77444e-06
1.92838e-06
0
0
0
0
0
0
0
0
0
0
5.71507e-07
1.69681e-06
2.72809e-06
3.69517e-06
4.57402e-06
5.16832e-06
5.10047e-06
3.99487e-06
2.01897e-06
2.11509e-07
0
0
4.2855e-07
1.68527e-06
3.02166e-06
4.04835e-06
4.38263e-06
3.66625e-06
1.54077e-06
0
0
0
0
0
8.10207e-07
1.07582e-06
8.33676e-07
5.50262e-07
3.47697e-07
2.14514e-07
1.2455e-07
7.67189e-08
3.742e-08
0
0
0
0
0
0
0
0
0
0
0
0
0
0
0
1.73635e-07
3.0294e-07
2.501e-07
2.621e-07
5.42827e-07
8.98204e-07
8.36076e-07
1.10993e-07
0
1.24545e-07
1.08176e-07
6.93467e-08
3.80001e-08
1.87793e-08
2.45228e-08
5.26065e-08
8.20081e-08
1.09968e-07
1.43517e-07
2.27923e-07
4.99081e-07
1.04385e-06
1.31886e-06
4.00368e-07
0
0
0
5.51833e-07
5.72674e-07
0
0
0
1.76182e-06
3.37127e-06
3.77489e-06
3.20757e-06
2.42122e-06
1.61275e-06
8.53238e-07
2.32071e-07
0
0
0
0
0
0
0
0
0
0
0
0
0
0
0
0
0
0
0
0
0
0
0
0
0
0
0
0
0
0
0
0
0
0
0
1.71781e-06
3.44421e-06
3.74885e-06
2.79984e-06
1.97382e-06
3.42315e-08
2.04674e-07
1.05658e-06
1.3939e-06
1.73492e-06
2.17212e-06
2.45366e-06
2.81657e-06
3.53342e-06
4.52636e-06
3.45894e-06
2.42765e-06
2.22925e-06
2.38073e-06
2.76532e-06
2.87181e-06
0
0
0
0
2.32861e-07
0
0
0
0
0
0
9.58063e-07
1.63987e-06
1.98881e-06
2.50857e-06
3.55369e-06
5.29897e-06
7.50265e-06
9.50951e-06
1.05837e-05
1.05647e-05
9.66011e-06
8.1907e-06
5.97503e-06
3.0741e-06
5.64449e-07
0
0
0
0
0
0
0
0
4.58849e-07
1.73093e-06
3.03268e-06
4.40089e-06
5.98911e-06
7.92572e-06
1.00985e-05
1.19729e-05
1.22885e-05
9.1964e-06
2.32631e-06
0
0
0
0
0
0
0
2.17338e-06
4.09153e-06
4.64461e-06
3.3115e-06
0
0
0
0
0
7.96615e-07
8.89434e-07
6.05664e-07
3.69275e-07
2.29916e-07
1.41718e-07
8.45565e-08
5.2886e-08
1.33989e-08
0
0
0
0
0
0
0
0
0
1.62515e-07
9.38559e-07
1.1267e-06
7.89573e-07
2.17205e-07
0
0
0
6.50755e-07
1.40892e-06
2.03258e-06
1.42114e-06
6.69524e-08
0
0
1.32791e-08
5.1202e-08
5.44414e-08
5.29629e-08
5.40365e-08
6.44023e-08
8.06452e-08
1.05322e-07
1.39373e-07
2.08454e-07
4.33204e-07
8.5826e-07
8.57652e-07
0
0
0
0
5.3478e-07
3.84729e-07
0
0
1.94991e-08
1.67137e-06
3.10525e-06
3.61732e-06
3.17455e-06
2.56378e-06
2.00359e-06
1.46511e-06
9.19383e-07
3.4627e-07
0
0
0
0
0
0
0
0
0
0
0
7.51509e-08
3.94542e-07
4.63137e-07
4.93253e-07
5.78675e-07
5.28314e-07
2.91508e-07
2.37792e-07
5.32003e-07
3.34104e-07
0
0
0
0
0
0
0
0
0
0
0
0
0
1.21916e-07
2.79032e-06
3.5097e-06
3.40334e-06
2.64708e-06
1.05825e-06
2.57005e-07
9.22361e-07
1.42628e-06
1.60406e-06
1.6901e-06
1.65386e-06
1.52305e-06
1.19272e-06
1.37838e-06
1.5313e-06
1.4873e-06
1.63373e-06
2.23917e-06
2.36079e-06
0
0
0
0
5.7328e-09
1.18029e-07
0
0
0
0
0
0
0
0
0
8.97225e-07
1.70492e-06
2.51251e-06
3.38096e-06
4.25737e-06
4.9571e-06
5.25332e-06
4.92666e-06
3.97189e-06
2.70965e-06
1.45817e-06
3.69993e-07
0
0
0
0
0
0
0
5.086e-07
1.36682e-06
2.37815e-06
3.59833e-06
5.31077e-06
7.82103e-06
1.14404e-05
1.65476e-05
2.31571e-05
2.87988e-05
1.99727e-05
0
0
0
0
0
0
0
0
0
0
2.15647e-06
3.38514e-06
2.55713e-06
0
0
0
0
9.01613e-08
8.17321e-07
6.59419e-07
3.86375e-07
2.10712e-07
1.22734e-07
7.82569e-08
5.63081e-08
3.47067e-08
7.46177e-09
0
0
0
0
0
0
0
0
3.35455e-07
5.94464e-07
5.72436e-07
2.85391e-07
0
0
0
0
0
1.01612e-06
1.14734e-06
8.60243e-08
0
0
0
0
6.60236e-09
3.71372e-08
4.68689e-08
5.41144e-08
6.02875e-08
6.57966e-08
7.94597e-08
1.08779e-07
1.73311e-07
3.72028e-07
6.8443e-07
4.31544e-07
0
0
0
0
4.24418e-07
2.70457e-07
0
0
5.58847e-07
1.5317e-06
2.47476e-06
2.46338e-06
1.8099e-06
1.30045e-06
1.11262e-06
1.15642e-06
1.11897e-06
8.18687e-07
3.27397e-07
0
0
0
0
0
0
0
0
0
0
0
7.14261e-07
1.12583e-06
1.13108e-06
1.04689e-06
1.1036e-06
1.05706e-06
8.18549e-07
8.02009e-07
1.09105e-06
7.06014e-07
1.33043e-07
0
0
0
0
0
0
0
0
0
0
0
0
1.6546e-06
2.22747e-06
2.10629e-06
2.2417e-06
1.13682e-06
5.34004e-07
8.53745e-07
1.13067e-06
1.18083e-06
1.00938e-06
6.1065e-07
3.61963e-07
4.72486e-07
7.08186e-07
1.97008e-07
4.08125e-07
8.02504e-07
1.25476e-06
1.5949e-06
5.3536e-07
0
0
0
1.38155e-07
0
0
0
0
0
0
0
0
0
0
0
1.10657e-06
2.17279e-06
3.07139e-06
3.72986e-06
4.03766e-06
3.92468e-06
3.43117e-06
2.71889e-06
1.8826e-06
1.08673e-06
4.48666e-07
3.02425e-08
0
0
0
0
0
5.87181e-08
3.04196e-07
6.77154e-07
1.29319e-06
2.32099e-06
3.95347e-06
6.4508e-06
1.01164e-05
1.53137e-05
2.20069e-05
2.63068e-05
0
0
0
0
0
0
0
0
0
0
0
0
1.49689e-06
2.37701e-06
1.45435e-06
0
0
0
0
7.80696e-07
6.70724e-07
3.77901e-07
1.88231e-07
9.62626e-08
6.16125e-08
4.96195e-08
3.83979e-08
1.84039e-08
0
0
0
0
0
0
0
0
1.94876e-07
3.57453e-07
3.03555e-07
8.13874e-08
0
0
0
0
0
0
0
0
0
0
0
0
0
2.4295e-08
3.69189e-08
4.34925e-08
4.65215e-08
4.58401e-08
4.7714e-08
6.40399e-08
1.2345e-07
3.20639e-07
5.99475e-07
2.50391e-07
0
0
0
0
3.54314e-07
4.02195e-07
2.64001e-07
5.80979e-07
1.26109e-06
2.08488e-06
2.66352e-06
2.13221e-06
1.12175e-06
3.25079e-07
5.92245e-08
3.70308e-07
8.23596e-07
9.77662e-07
7.93164e-07
4.15816e-07
0
0
0
0
0
0
0
0
0
0
5.70979e-07
1.64064e-06
1.98234e-06
1.80533e-06
1.56236e-06
1.53171e-06
1.47129e-06
1.28911e-06
1.37412e-06
1.53846e-06
9.17538e-07
3.88984e-07
2.31578e-07
1.9368e-07
0
0
0
0
0
0
0
0
0
6.48106e-07
1.80887e-06
1.61294e-06
1.0437e-06
2.85347e-07
4.21089e-07
5.46082e-07
4.60521e-07
6.64778e-07
7.80221e-07
5.98703e-07
5.40438e-07
6.05669e-07
7.43357e-07
3.47872e-08
0
5.33063e-07
9.54771e-07
1.22022e-06
1.34666e-06
0
0
1.56879e-08
1.67197e-07
0
0
0
0
0
0
0
0
0
0
0
6.78243e-07
1.80051e-06
2.60819e-06
3.06546e-06
3.17508e-06
2.99597e-06
2.58706e-06
2.05501e-06
1.48213e-06
9.9483e-07
6.47401e-07
4.31176e-07
3.06363e-07
2.3326e-07
1.87088e-07
1.5278e-07
1.05023e-07
3.29191e-08
0
1.20502e-08
2.06658e-07
6.0119e-07
1.16517e-06
1.77204e-06
2.09458e-06
1.41115e-06
0
0
0
0
0
0
0
0
0
0
0
0
0
0
5.52393e-07
1.97488e-06
1.8168e-06
6.36401e-08
0
0
1.80992e-07
1.0447e-06
7.4274e-07
3.65067e-07
1.57766e-07
7.25041e-08
4.24918e-08
3.17522e-08
2.38699e-08
1.21654e-08
1.34105e-10
0
0
0
0
0
0
0
0
4.73205e-08
2.41164e-07
3.20377e-07
1.90794e-07
0
0
0
0
0
0
0
0
0
0
0
5.59687e-09
2.95537e-08
3.18309e-08
3.18093e-08
2.91028e-08
2.3719e-08
1.94853e-08
2.63678e-08
7.89355e-08
2.76427e-07
5.91062e-07
3.109e-07
0
0
0
0
4.45558e-07
9.04487e-07
1.13573e-06
1.54107e-06
2.16572e-06
3.11665e-06
3.7374e-06
3.22721e-06
2.07443e-06
9.68855e-07
6.96677e-07
1.27416e-06
1.63397e-06
1.37914e-06
8.06018e-07
2.23994e-07
0
0
0
0
0
0
0
0
0
0
0
1.52829e-06
2.68846e-06
2.78379e-06
2.32985e-06
1.95914e-06
1.85792e-06
1.82491e-06
1.76825e-06
1.94616e-06
1.78854e-06
1.01199e-06
6.1512e-07
5.40751e-07
5.14819e-07
1.53584e-07
0
2.43795e-07
4.5062e-07
3.46432e-07
1.06927e-08
0
0
2.90316e-07
1.73042e-06
1.76968e-06
1.32819e-06
7.02234e-07
1.82647e-07
2.07703e-07
1.0775e-07
1.64401e-07
3.97375e-07
5.68073e-07
5.8317e-07
4.9961e-07
4.23063e-07
0
0
5.34377e-07
8.92352e-07
1.01125e-06
7.52593e-07
0
0
2.34364e-07
1.09772e-07
0
0
0
0
0
0
0
0
0
0
0
5.25965e-07
1.53579e-06
2.21675e-06
2.58109e-06
2.64832e-06
2.50028e-06
2.18502e-06
1.79446e-06
1.41261e-06
1.11578e-06
9.19148e-07
7.90185e-07
6.83238e-07
5.91543e-07
5.05684e-07
4.03344e-07
2.43672e-07
4.00868e-08
0
0
0
0
0
0
0
0
0
0
0
0
0
0
0
0
0
0
0
0
0
0
3.61704e-07
1.94893e-06
1.89652e-06
4.55464e-07
0
0
6.36336e-07
1.18763e-06
7.13702e-07
3.13404e-07
1.1772e-07
4.38724e-08
2.10279e-08
1.47182e-08
1.23978e-08
9.62069e-09
3.80966e-09
0
0
0
0
0
0
0
0
0
0
1.92736e-07
5.16454e-07
3.62249e-07
0
0
0
0
0
0
0
0
0
0
1.1833e-08
3.68514e-08
2.77473e-08
1.53456e-08
3.27843e-09
0
0
0
1.77645e-08
1.84463e-07
4.85964e-07
3.51034e-07
0
0
0
0
7.63562e-07
2.01895e-06
2.96645e-06
3.90273e-06
4.90948e-06
6.03485e-06
6.85871e-06
6.5335e-06
5.09035e-06
4.07493e-06
4.32702e-06
4.15237e-06
3.2182e-06
2.01684e-06
8.03487e-07
0
0
0
0
0
0
0
0
0
0
0
0
0
2.80001e-06
3.73929e-06
3.40744e-06
2.65218e-06
2.22157e-06
2.15e-06
2.25083e-06
2.38452e-06
2.4548e-06
1.83248e-06
1.11166e-06
9.25274e-07
9.21324e-07
8.73344e-07
3.69153e-07
3.46324e-07
7.83579e-07
7.98899e-07
7.47701e-07
6.1387e-07
5.05578e-07
8.06419e-07
1.76142e-06
1.90728e-06
1.53119e-06
1.04603e-06
5.19178e-07
1.64821e-07
0
0
1.79218e-07
3.50173e-07
3.47271e-07
2.26234e-07
6.77649e-08
0
0
8.84194e-08
4.87464e-07
6.04218e-07
0
0
2.00567e-07
2.74791e-07
0
5.91748e-08
2.21654e-06
4.17841e-06
0
0
0
0
0
0
0
0
4.68323e-07
1.2874e-06
1.80511e-06
2.07227e-06
2.10062e-06
1.9786e-06
1.76935e-06
1.53306e-06
1.33162e-06
1.19088e-06
1.0999e-06
1.01201e-06
9.0658e-07
7.92354e-07
6.82449e-07
5.74604e-07
4.2618e-07
2.39865e-07
0
0
0
0
0
0
0
0
0
0
0
0
0
0
0
0
0
0
0
2.31205e-07
0
0
4.03513e-07
1.82675e-06
1.71761e-06
4.36104e-07
0
0
3.96148e-07
5.87532e-07
2.86676e-07
9.39065e-08
1.72417e-08
0
0
0
4.12916e-09
8.38737e-09
8.16475e-09
1.14943e-08
1.48769e-08
1.1231e-08
1.15158e-08
3.71901e-08
1.3953e-07
1.47221e-08
0
0
0
0
0
5.29843e-07
4.80032e-07
0
0
0
0
0
0
0
0
0
0
1.42406e-08
6.09999e-09
0
0
0
0
0
0
1.97409e-08
2.12982e-07
1.95754e-07
0
0
0
0
1.22542e-06
3.57172e-06
5.5224e-06
7.54203e-06
9.52878e-06
1.1374e-05
1.31483e-05
1.26611e-05
9.00841e-06
7.02104e-06
5.91514e-06
4.62145e-06
3.37488e-06
2.15391e-06
8.4714e-07
0
0
0
0
0
0
0
0
0
0
0
0
0
1.23374e-06
4.17426e-06
4.44216e-06
3.52173e-06
2.66342e-06
2.28622e-06
2.4322e-06
2.79341e-06
2.98895e-06
2.64399e-06
1.80381e-06
1.35321e-06
1.32619e-06
1.33481e-06
1.21122e-06
7.65908e-07
1.08573e-06
1.13082e-06
1.09954e-06
1.13343e-06
1.21298e-06
1.41868e-06
1.83633e-06
1.90871e-06
1.5721e-06
1.15503e-06
7.48438e-07
3.86482e-07
1.50837e-08
0
3.55446e-08
2.44932e-07
2.18189e-07
1.6325e-07
1.71263e-08
0
0
0
2.21578e-07
1.32225e-07
0
2.33792e-07
2.99499e-07
2.03399e-07
1.73207e-07
1.02793e-06
3.72594e-06
1.13637e-05
3.68937e-06
3.40894e-08
0
0
0
0
0
0
5.60533e-07
1.20463e-06
1.5763e-06
1.74063e-06
1.74354e-06
1.66401e-06
1.54995e-06
1.42996e-06
1.33126e-06
1.26107e-06
1.21234e-06
1.14715e-06
1.04551e-06
9.11206e-07
7.90803e-07
7.1738e-07
6.46768e-07
5.73501e-07
4.25359e-07
1.11526e-07
0
0
0
0
0
0
0
0
0
0
0
0
0
0
5.63184e-07
8.88035e-07
1.08585e-06
1.14582e-06
2.29886e-07
0
6.90075e-07
1.68039e-06
1.42913e-06
1.94182e-07
0
0
0
7.48393e-08
1.06597e-08
0
0
0
0
0
1.24915e-09
1.01354e-08
1.5205e-08
1.39798e-08
1.32181e-08
1.48972e-08
1.85894e-08
2.19884e-08
4.36038e-08
1.18482e-07
7.76622e-08
0
0
0
0
0
6.59564e-08
4.1966e-07
0
0
0
0
0
0
0
0
0
0
0
0
0
0
0
0
0
0
0
0
0
0
0
0
1.78253e-06
4.9738e-06
7.79323e-06
1.06932e-05
1.36359e-05
1.7346e-05
2.16319e-05
1.81863e-05
1.09829e-05
8.0687e-06
6.33339e-06
4.96564e-06
3.74892e-06
2.45172e-06
1.11117e-06
0
0
0
0
0
0
0
0
0
0
0
0
0
0
3.27927e-06
5.28218e-06
4.57677e-06
3.21909e-06
2.47596e-06
2.41644e-06
3.0588e-06
3.56742e-06
3.48098e-06
2.67998e-06
1.93903e-06
1.75885e-06
1.73671e-06
1.75736e-06
1.5548e-06
1.50259e-06
1.56189e-06
1.39581e-06
1.39776e-06
1.53179e-06
1.71915e-06
1.90347e-06
1.85676e-06
1.55098e-06
1.18349e-06
8.54473e-07
5.79188e-07
1.86103e-07
0
0
1.78675e-07
1.88204e-07
2.63566e-07
9.9018e-08
0
0
4.3966e-08
1.74639e-07
0
1.43022e-07
4.00394e-07
3.22265e-07
1.52822e-07
1.11928e-06
1.9454e-06
3.61663e-06
1.09658e-05
6.76071e-06
2.11505e-06
5.05315e-07
0
0
0
0
0
4.92234e-07
1.10449e-06
1.39701e-06
1.49687e-06
1.48925e-06
1.43797e-06
1.37288e-06
1.29966e-06
1.23134e-06
1.18275e-06
1.14871e-06
1.10358e-06
1.0249e-06
9.04618e-07
7.82344e-07
7.21118e-07
6.94948e-07
6.98426e-07
6.96892e-07
6.00805e-07
3.38223e-07
0
0
0
0
0
0
0
0
0
0
0
0
3.73765e-06
3.63183e-06
2.35347e-06
1.62803e-06
1.29614e-06
4.60768e-07
3.2466e-08
1.03603e-06
1.69873e-06
1.33294e-06
1.3567e-07
0
0
0
1.38494e-07
8.11584e-08
2.96376e-08
1.27606e-08
9.6163e-09
9.32731e-09
1.01248e-08
1.17989e-08
1.37495e-08
1.49178e-08
1.55922e-08
1.73735e-08
1.85778e-08
1.87022e-08
1.83354e-08
1.92997e-08
2.98245e-08
5.64564e-08
0
0
0
0
0
0
0
1.5696e-07
2.62759e-07
0
0
0
0
0
0
0
0
0
0
0
0
0
0
0
0
0
0
0
0
0
2.38977e-07
2.74335e-06
6.07566e-06
9.32721e-06
1.26552e-05
1.63588e-05
2.17729e-05
2.51965e-05
1.87131e-05
1.27918e-05
1.00524e-05
8.37445e-06
7.05764e-06
5.49235e-06
3.63044e-06
2.26244e-06
1.44847e-06
0
0
0
0
0
0
0
0
1.40625e-07
1.41625e-06
0
0
0
0
5.20569e-06
5.49985e-06
3.84462e-06
2.63032e-06
2.3194e-06
3.15166e-06
4.20447e-06
4.40086e-06
3.6878e-06
2.70254e-06
2.2587e-06
2.17149e-06
2.1683e-06
2.25946e-06
2.14692e-06
2.15102e-06
1.79284e-06
1.6248e-06
1.69692e-06
1.81809e-06
1.84518e-06
1.72319e-06
1.46521e-06
1.16055e-06
8.90628e-07
6.82568e-07
3.47121e-07
1.45151e-08
0
9.95272e-08
1.54277e-07
3.1739e-07
1.61063e-07
0
0
2.00098e-07
2.73257e-07
2.6989e-07
4.62884e-07
4.4221e-07
2.85817e-07
6.75759e-07
2.06994e-06
2.71291e-06
2.44413e-06
6.45959e-06
5.92453e-06
1.2187e-06
1.05198e-06
8.22891e-07
0
0
0
0
3.14147e-07
1.1289e-06
1.35988e-06
1.36691e-06
1.30336e-06
1.22912e-06
1.16065e-06
1.09623e-06
1.03986e-06
9.93787e-07
9.55759e-07
9.15241e-07
8.60664e-07
7.71727e-07
6.60678e-07
5.70466e-07
5.50682e-07
5.60793e-07
6.05733e-07
6.40525e-07
5.92767e-07
4.02342e-07
3.07357e-08
0
0
0
0
0
0
0
0
0
8.17049e-06
6.20675e-06
3.49581e-06
1.67392e-06
1.02251e-06
9.19473e-07
4.53105e-07
4.74976e-07
1.41348e-06
1.78773e-06
1.44675e-06
4.77325e-07
0
0
3.03365e-07
3.39655e-07
2.00585e-07
1.11672e-07
7.02311e-08
5.08138e-08
4.04257e-08
3.47556e-08
3.08183e-08
2.72863e-08
2.45373e-08
2.15863e-08
1.89469e-08
1.74739e-08
1.76755e-08
1.53808e-08
1.14254e-08
7.3177e-09
7.72305e-10
0
0
0
0
0
0
0
0
0
3.64271e-07
1.39388e-07
0
0
0
0
0
0
0
0
0
0
0
0
0
0
0
0
0
0
0
2.06619e-06
4.55637e-06
7.60854e-06
1.09632e-05
1.44796e-05
1.89819e-05
2.41739e-05
2.51737e-05
2.00312e-05
1.58578e-05
1.36417e-05
1.25002e-05
1.15073e-05
9.34288e-06
7.61773e-06
6.61302e-06
1.68211e-06
0
0
0
0
0
0
0
0
0
4.11131e-06
3.74724e-06
2.21211e-06
0
0
2.55993e-06
5.82214e-06
4.24028e-06
2.68337e-06
2.16303e-06
3.07333e-06
4.78036e-06
5.43425e-06
4.81926e-06
3.63492e-06
2.86984e-06
2.68409e-06
2.60164e-06
2.79113e-06
2.92951e-06
2.88647e-06
2.36599e-06
1.92738e-06
1.80691e-06
1.8003e-06
1.74434e-06
1.58105e-06
1.34707e-06
1.09386e-06
8.69499e-07
7.15829e-07
4.75453e-07
1.37732e-07
0
0
0
1.83126e-07
3.99757e-08
0
2.27839e-07
4.67566e-07
7.98023e-07
1.08238e-06
5.70527e-07
3.93332e-07
3.02755e-07
1.40674e-06
3.10255e-06
3.00391e-06
0
8.33845e-07
0
0
0
0
0
0
0
0
0
8.34117e-07
1.10791e-06
1.11097e-06
1.02616e-06
9.28201e-07
8.44506e-07
7.80341e-07
7.28647e-07
6.84665e-07
6.48538e-07
6.18387e-07
5.83119e-07
5.31165e-07
4.54607e-07
3.69686e-07
3.04727e-07
2.90722e-07
3.09043e-07
3.62027e-07
4.11845e-07
4.09995e-07
3.21937e-07
1.34026e-07
0
0
0
0
0
0
0
2.26186e-06
4.21014e-06
2.55655e-06
1.12047e-06
1.52013e-07
2.56294e-07
5.82271e-07
4.56773e-07
9.16063e-07
1.72862e-06
2.01287e-06
1.98143e-06
2.05696e-06
2.22976e-06
1.04357e-06
7.60495e-07
5.03502e-07
2.87745e-07
1.68566e-07
1.10024e-07
8.03762e-08
6.36233e-08
5.43174e-08
4.88434e-08
4.37083e-08
3.6904e-08
2.88232e-08
2.2664e-08
1.96279e-08
1.89605e-08
1.54678e-08
7.48497e-09
0
0
0
0
0
0
0
0
0
0
0
0