/*--------------------------------*- C++ -*----------------------------------*\
  =========                 |
  \\      /  F ield         | OpenFOAM: The Open Source CFD Toolbox
   \\    /   O peration     | Website:  https://openfoam.org
    \\  /    A nd           | Version:  9
     \\/     M anipulation  |
\*---------------------------------------------------------------------------*/
FoamFile
{
    format      ascii;
    class       volScalarField;
    location    "0.082";
    object      p;
}
// * * * * * * * * * * * * * * * * * * * * * * * * * * * * * * * * * * * * * //

dimensions      [0 2 -2 0 0 0 0];

internalField   nonuniform List<scalar> 
12225
(
-763.278
-760.196
-758.049
-755.183
-751.676
-747.6
-743.124
-738.44
-733.709
-728.975
-724.191
-719.285
-714.236
-709.04
-703.702
-698.165
-692.316
-685.747
-762.425
-760.226
-758.104
-755.23
-751.714
-747.633
-743.161
-738.482
-733.749
-729.006
-724.215
-719.312
-714.274
-709.101
-703.794
-698.314
-692.565
-686.371
-759.939
-760.164
-758.198
-755.326
-751.789
-747.694
-743.231
-738.572
-733.842
-729.081
-724.266
-719.355
-714.333
-709.204
-703.965
-698.595
-693.035
-687.269
-759.142
-760.302
-758.384
-755.489
-751.928
-747.821
-743.354
-738.693
-733.952
-729.174
-724.349
-719.449
-714.462
-709.391
-704.236
-698.992
-693.643
-688.237
-760.412
-760.572
-758.641
-755.733
-752.128
-747.985
-743.508
-738.847
-734.101
-729.314
-724.485
-719.596
-714.641
-709.63
-704.569
-699.467
-694.337
-689.267
-762.961
-761.027
-758.983
-756.069
-752.416
-748.24
-743.742
-739.068
-734.306
-729.502
-724.666
-719.795
-714.887
-709.949
-704.995
-700.044
-695.133
-690.36
-762.154
-761.725
-759.58
-756.538
-752.788
-748.545
-744.016
-739.325
-734.55
-729.738
-724.908
-720.061
-715.2
-710.338
-705.495
-700.701
-696.002
-691.488
-763.197
-762.351
-760.199
-757.124
-753.273
-748.965
-744.393
-739.67
-734.87
-730.043
-725.215
-720.393
-715.584
-710.806
-706.08
-701.441
-696.938
-692.646
-763.307
-763.401
-761.209
-757.889
-753.877
-749.467
-744.834
-740.069
-735.242
-730.404
-725.587
-720.798
-716.047
-711.353
-706.743
-702.252
-697.927
-693.83
-763.558
-764.762
-762.362
-758.832
-754.624
-750.093
-745.392
-740.578
-735.714
-730.857
-726.042
-721.28
-716.584
-711.974
-707.477
-703.124
-698.954
-695.011
-768.467
-766.929
-763.837
-759.968
-755.527
-750.852
-746.051
-741.164
-736.253
-731.377
-726.57
-721.842
-717.204
-712.675
-708.283
-704.057
-700.028
-696.232
-773.771
-769.236
-765.376
-761.201
-756.538
-751.692
-746.771
-741.808
-736.848
-731.946
-727.137
-722.431
-717.839
-713.38
-709.078
-704.955
-701.038
-697.347
-778.029
-771.663
-767.16
-762.605
-757.681
-752.646
-747.575
-742.507
-737.486
-732.558
-727.751
-723.073
-718.528
-714.134
-709.911
-705.88
-702.058
-698.463
-779.436
-774.174
-769.38
-764.405
-759.166
-753.884
-748.638
-743.448
-738.344
-733.37
-728.553
-723.893
-719.391
-715.061
-710.918
-706.975
-703.246
-699.742
-781.823
-777.264
-772.284
-766.879
-761.196
-755.525
-749.997
-744.617
-739.394
-734.362
-729.533
-724.892
-720.433
-716.165
-712.103
-708.252
-704.615
-701.195
-781.228
-781.265
-776.19
-770.02
-763.654
-757.538
-751.706
-746.116
-740.761
-735.653
-730.783
-726.132
-721.698
-717.482
-713.489
-709.715
-706.157
-702.811
-799.664
-790.537
-782.301
-774.267
-766.894
-760.127
-753.797
-747.834
-742.275
-737.08
-732.187
-727.531
-723.119
-718.95
-715.02
-711.315
-707.826
-704.548
-816.092
-801.412
-789.049
-778.989
-770.357
-762.827
-756.029
-749.793
-744.081
-738.781
-733.812
-729.148
-724.765
-720.632
-716.742
-713.08
-709.635
-706.396
-834.015
-810.963
-794.824
-782.752
-773.104
-764.914
-757.712
-751.308
-745.5
-740.156
-735.188
-730.549
-726.212
-722.147
-718.323
-714.73
-711.345
-708.16
-827.38
-807.803
-793.228
-781.938
-772.806
-765.054
-758.184
-751.975
-746.324
-741.1
-736.234
-731.664
-727.365
-723.344
-719.566
-716.004
-712.652
-709.493
-817.767
-800.595
-788.623
-779.182
-771.124
-763.995
-757.589
-751.693
-746.233
-741.194
-736.477
-732.016
-727.825
-723.889
-720.186
-716.691
-713.391
-710.272
-791.878
-789.817
-782.861
-775.766
-769.089
-762.795
-756.89
-751.394
-746.173
-741.283
-736.672
-732.329
-728.224
-724.345
-720.684
-717.219
-713.937
-710.829
-791.912
-784.043
-778.31
-772.583
-766.901
-761.358
-755.959
-750.744
-745.84
-741.137
-736.66
-732.416
-728.368
-724.543
-720.918
-717.489
-714.242
-711.168
-780.393
-777.799
-774.415
-770.056
-765.232
-760.264
-755.265
-750.365
-745.606
-741.037
-736.659
-732.477
-728.498
-724.722
-721.127
-717.725
-714.498
-711.437
-769.896
-772.926
-771.44
-767.96
-763.876
-759.373
-754.69
-750.004
-745.407
-740.94
-736.623
-732.485
-728.542
-724.783
-721.224
-717.838
-714.623
-711.573
-764.923
-769.567
-769.366
-766.664
-762.968
-758.74
-754.246
-749.71
-745.227
-740.843
-736.587
-732.495
-728.581
-724.847
-721.305
-717.937
-714.734
-711.691
-764.99
-768.478
-768.105
-765.766
-762.328
-758.289
-753.961
-749.545
-745.14
-740.799
-736.566
-732.488
-728.589
-724.874
-721.34
-717.981
-714.787
-711.742
-767.111
-767.636
-767.308
-765.24
-761.959
-758.026
-753.772
-749.416
-745.065
-740.763
-736.555
-732.489
-728.597
-724.89
-721.364
-718.013
-714.825
-711.788
-765.984
-767.255
-766.901
-764.919
-761.734
-757.878
-753.68
-749.366
-745.043
-740.749
-736.538
-732.47
-728.583
-724.885
-721.372
-718.033
-714.852
-711.815
-762.953
-766.839
-766.763
-764.802
-761.64
-757.795
-753.618
-749.333
-745.039
-740.764
-736.554
-732.475
-728.577
-724.872
-721.359
-718.025
-714.851
-711.82
-640.489
-640.531
-640.58
-640.62
-640.659
-640.692
-640.696
-640.645
-640.52
-640.308
-639.997
-639.604
-639.158
-638.661
-638.109
-637.535
-636.957
-636.365
-635.767
-635.18
-634.609
-634.056
-633.521
-632.994
-632.485
-632.057
-631.815
-631.809
-631.952
-632.147
-632.363
-632.57
-632.704
-632.717
-632.595
-632.329
-631.897
-631.27
-630.422
-629.331
-627.98
-626.348
-624.418
-622.192
-619.68
-616.898
-613.87
-610.625
-607.196
-603.62
-599.938
-596.193
-592.429
-588.691
-585.022
-581.451
-577.998
-574.677
-571.501
-568.493
-565.659
-563.175
-561.043
-559.107
-557.323
-555.703
-554.265
-553.014
-551.913
-550.804
-549.436
-547.809
-545.713
-543.403
-541.165
-539.104
-537.113
-535.161
-532.877
-530
-527.473
-525.433
-523.525
-521.62
-519.771
-518.034
-516.412
-514.861
-513.346
-511.858
-510.391
-508.967
-507.599
-506.307
-505.11
-504.024
-503.062
-502.238
-501.575
-501.114
-500.928
-501.109
-501.743
-502.886
-504.537
-506.628
-509.022
-511.53
-513.922
-515.948
-517.36
-517.937
-517.503
-515.94
-513.187
-509.231
-504.11
-497.904
-490.724
-482.685
-473.907
-464.517
-454.65
-444.46
-434.121
-423.826
-413.787
-404.214
-395.296
-387.186
-379.982
-373.727
-368.404
-363.939
-360.251
-357.151
-354.512
-352.187
-350.049
-347.99
-345.92
-343.774
-341.504
-339.08
-336.483
-333.707
-330.763
-327.68
-324.486
-321.186
-317.769
-314.226
-310.558
-306.786
-302.938
-299.036
-295.095
-291.123
-287.122
-283.085
-278.998
-274.85
-270.638
-266.365
-262.03
-257.647
-253.23
-248.779
-244.286
-239.753
-235.173
-230.53
-225.837
-221.137
-216.429
-211.686
-206.932
-202.071
-196.961
-191.614
-640.662
-640.641
-640.641
-640.637
-640.65
-640.69
-640.743
-640.786
-640.794
-640.709
-640.462
-640.076
-639.59
-638.97
-638.296
-637.673
-637.056
-636.402
-635.729
-635.096
-634.517
-633.994
-633.531
-633.143
-632.849
-632.687
-632.702
-632.823
-632.952
-633.108
-633.318
-633.467
-633.467
-633.366
-633.198
-632.922
-632.494
-631.878
-631.044
-629.963
-628.607
-626.964
-625.033
-622.811
-620.303
-617.521
-614.49
-611.239
-607.804
-604.225
-600.542
-596.796
-593.032
-589.29
-585.608
-582.016
-578.535
-575.174
-571.947
-568.886
-566.059
-563.6
-561.512
-559.518
-557.655
-555.97
-554.499
-553.293
-552.356
-551.522
-550.573
-549.165
-547.242
-544.838
-542.299
-539.73
-537.275
-535.136
-532.786
-529.985
-527.509
-525.481
-523.501
-521.557
-519.723
-518.032
-516.433
-514.885
-513.363
-511.859
-510.372
-508.916
-507.51
-506.179
-504.946
-503.831
-502.853
-502.033
-501.403
-501.013
-500.934
-501.251
-502.04
-503.344
-505.151
-507.382
-509.893
-512.49
-514.942
-517.003
-518.427
-518.993
-518.521
-516.892
-514.05
-509.999
-504.801
-498.54
-491.315
-483.239
-474.432
-465.017
-455.127
-444.908
-434.532
-424.191
-414.097
-404.463
-395.487
-387.325
-380.08
-373.796
-368.458
-363.988
-360.314
-357.22
-354.592
-352.278
-350.147
-348.091
-346.021
-343.872
-341.599
-339.169
-336.563
-333.779
-330.835
-327.753
-324.556
-321.255
-317.836
-314.276
-310.576
-306.774
-302.91
-299.018
-295.09
-291.124
-287.123
-283.086
-278.999
-274.85
-270.638
-266.366
-262.033
-257.648
-253.232
-248.783
-244.29
-239.758
-235.183
-230.541
-225.842
-221.142
-216.433
-211.692
-206.94
-202.101
-196.988
-191.717
-640.651
-640.526
-640.555
-640.688
-640.911
-641.173
-641.399
-641.52
-641.504
-641.317
-640.916
-640.347
-639.681
-639.034
-638.499
-637.963
-637.32
-636.626
-635.967
-635.388
-634.882
-634.43
-634.048
-633.77
-633.617
-633.582
-633.63
-633.696
-633.741
-633.776
-633.816
-633.867
-633.924
-633.972
-633.961
-633.831
-633.531
-633.021
-632.266
-631.239
-629.922
-628.304
-626.38
-624.146
-621.611
-618.796
-615.732
-612.451
-608.99
-605.391
-601.692
-597.936
-594.16
-590.401
-586.693
-583.068
-579.545
-576.138
-572.874
-569.8
-566.982
-564.531
-562.441
-560.322
-558.334
-556.557
-555.038
-553.878
-553.102
-552.54
-551.947
-550.996
-549.399
-547.021
-544.046
-540.801
-537.59
-534.604
-531.833
-529.214
-526.966
-525.116
-523.386
-521.684
-520.044
-518.444
-516.855
-515.257
-513.65
-512.041
-510.446
-508.887
-507.388
-505.97
-504.659
-503.483
-502.472
-501.662
-501.099
-500.835
-500.937
-501.472
-502.5
-504.047
-506.086
-508.524
-511.212
-513.957
-516.531
-518.688
-520.176
-520.768
-520.287
-518.609
-515.68
-511.516
-506.208
-499.84
-492.523
-484.374
-475.511
-466.05
-456.115
-445.843
-435.395
-424.961
-414.756
-405.002
-395.906
-387.638
-380.308
-373.967
-368.6
-364.126
-360.465
-357.394
-354.79
-352.497
-350.38
-348.329
-346.255
-344.095
-341.805
-339.357
-336.738
-333.946
-330.991
-327.893
-324.67
-321.33
-317.869
-314.286
-310.596
-306.811
-302.961
-299.054
-295.106
-291.126
-287.124
-283.09
-279.006
-274.859
-270.647
-266.372
-262.036
-257.65
-253.231
-248.782
-244.296
-239.769
-235.19
-230.549
-225.859
-221.15
-216.438
-211.715
-206.978
-202.152
-197.069
-191.788
-641.281
-641.253
-641.409
-641.753
-642.188
-642.597
-642.899
-643.062
-643.07
-642.87
-642.447
-641.855
-641.157
-640.416
-639.638
-638.789
-637.967
-637.232
-636.612
-636.146
-635.746
-635.373
-635.054
-634.831
-634.708
-634.663
-634.652
-634.664
-634.736
-634.896
-635.114
-635.356
-635.598
-635.788
-635.866
-635.793
-635.533
-635.05
-634.316
-633.306
-631.995
-630.367
-628.395
-626.097
-623.496
-620.613
-617.476
-614.12
-610.584
-606.911
-603.146
-599.332
-595.509
-591.714
-587.983
-584.341
-580.806
-577.396
-574.15
-571.104
-568.311
-565.858
-563.595
-561.331
-559.249
-557.414
-555.877
-554.793
-554.212
-553.996
-553.852
-553.303
-551.862
-549.358
-545.956
-542.145
-538.303
-534.698
-531.491
-528.843
-526.792
-525.091
-523.579
-522.051
-520.5
-518.903
-517.261
-515.581
-513.88
-512.175
-510.489
-508.843
-507.263
-505.773
-504.401
-503.18
-502.148
-501.351
-500.844
-500.692
-500.966
-501.733
-503.042
-504.906
-507.28
-510.055
-513.066
-516.093
-518.89
-521.205
-522.788
-523.41
-522.896
-521.132
-518.081
-513.765
-508.29
-501.758
-494.3
-486.04
-477.094
-467.57
-457.573
-447.225
-436.675
-426.108
-415.74
-405.805
-396.531
-388.103
-380.648
-374.223
-368.814
-364.342
-360.699
-357.667
-355.104
-352.846
-350.754
-348.711
-346.631
-344.452
-342.136
-339.658
-337.007
-334.182
-331.197
-328.072
-324.825
-321.461
-317.979
-314.377
-310.663
-306.863
-302.995
-299.081
-295.13
-291.149
-287.14
-283.098
-279.009
-274.858
-270.644
-266.37
-262.037
-257.652
-253.233
-248.787
-244.303
-239.779
-235.205
-230.57
-225.877
-221.163
-216.456
-211.752
-207.03
-202.213
-197.131
-191.838
-642.698
-643.016
-643.652
-644.381
-645.058
-645.546
-645.795
-645.863
-645.767
-645.442
-644.904
-644.233
-643.428
-642.493
-641.525
-640.548
-639.579
-638.746
-638.125
-637.672
-637.236
-636.827
-636.49
-636.248
-636.104
-636.051
-636.09
-636.233
-636.486
-636.826
-637.21
-637.588
-637.921
-638.177
-638.316
-638.297
-638.088
-637.652
-636.955
-635.964
-634.652
-633.004
-631.022
-628.7
-626.046
-623.08
-619.838
-616.36
-612.692
-608.884
-604.985
-601.047
-597.115
-593.233
-589.434
-585.746
-582.19
-578.789
-575.559
-572.513
-569.702
-567.132
-564.711
-562.418
-560.321
-558.491
-556.99
-556.039
-555.73
-555.99
-556.429
-556.305
-554.95
-552.15
-548.128
-543.685
-539.351
-535.297
-531.781
-529.115
-527.114
-525.476
-524.058
-522.549
-520.968
-519.308
-517.587
-515.824
-514.039
-512.256
-510.495
-508.783
-507.143
-505.601
-504.19
-502.944
-501.907
-501.132
-500.685
-500.642
-501.09
-502.11
-503.761
-506.052
-508.909
-512.166
-515.593
-518.948
-521.992
-524.48
-526.161
-526.805
-526.233
-524.345
-521.123
-516.599
-510.877
-504.122
-496.478
-488.076
-479.027
-469.427
-459.361
-448.929
-438.26
-427.53
-416.959
-406.797
-397.294
-388.662
-381.047
-374.518
-369.063
-364.61
-360.999
-358.029
-355.528
-353.324
-351.269
-349.242
-347.157
-344.955
-342.601
-340.077
-337.38
-334.515
-331.494
-328.33
-325.037
-321.625
-318.102
-314.469
-310.74
-306.928
-303.055
-299.133
-295.171
-291.177
-287.154
-283.1
-279.004
-274.851
-270.636
-266.364
-262.033
-257.65
-253.23
-248.783
-244.305
-239.789
-235.225
-230.597
-225.907
-221.19
-216.483
-211.793
-207.083
-202.265
-197.181
-191.883
-645.201
-645.747
-646.512
-647.262
-647.916
-648.365
-648.582
-648.637
-648.482
-648.072
-647.533
-646.905
-646.077
-645.066
-644.007
-642.974
-641.999
-641.122
-640.392
-639.764
-639.2
-638.722
-638.363
-638.137
-638.049
-638.099
-638.287
-638.602
-639.014
-639.474
-639.941
-640.39
-640.803
-641.157
-641.42
-641.556
-641.519
-641.257
-640.713
-639.837
-638.593
-636.959
-634.932
-632.52
-629.74
-626.62
-623.198
-619.52
-615.639
-611.609
-607.486
-603.328
-599.186
-595.109
-591.139
-587.308
-583.643
-580.162
-576.875
-573.791
-570.919
-568.222
-565.709
-563.388
-561.327
-559.54
-558.097
-557.277
-557.228
-557.949
-558.964
-559.295
-558.048
-554.923
-550.318
-545.349
-540.585
-536.176
-532.584
-529.929
-527.843
-526.13
-524.575
-522.972
-521.303
-519.567
-517.778
-515.955
-514.118
-512.289
-510.485
-508.732
-507.054
-505.481
-504.046
-502.789
-501.76
-501.018
-500.64
-500.719
-501.368
-502.703
-504.798
-507.646
-511.094
-514.876
-518.705
-522.338
-525.575
-528.201
-529.972
-530.65
-530.038
-528.014
-524.565
-519.78
-513.792
-506.782
-498.923
-490.358
-481.2
-471.528
-461.403
-450.891
-440.098
-429.184
-418.372
-407.933
-398.15
-389.267
-381.457
-374.81
-369.313
-364.881
-361.334
-358.459
-356.053
-353.927
-351.923
-349.92
-347.83
-345.6
-343.199
-340.618
-337.858
-334.93
-331.847
-328.628
-325.289
-321.838
-318.275
-314.607
-310.849
-307.016
-303.124
-299.187
-295.213
-291.206
-287.17
-283.102
-278.994
-274.834
-270.616
-266.343
-262.017
-257.643
-253.229
-248.784
-244.31
-239.801
-235.248
-230.633
-225.948
-221.228
-216.52
-211.837
-207.131
-202.303
-197.221
-191.925
-647.966
-648.461
-649.005
-649.583
-650.111
-650.472
-650.638
-650.656
-650.491
-650.113
-649.626
-649.04
-648.272
-647.35
-646.362
-645.325
-644.328
-643.42
-642.636
-641.955
-641.379
-640.938
-640.654
-640.537
-640.587
-640.791
-641.124
-641.56
-642.07
-642.629
-643.219
-643.833
-644.462
-645.078
-645.631
-646.058
-646.29
-646.254
-645.882
-645.115
-643.912
-642.251
-640.147
-637.602
-634.637
-631.289
-627.605
-623.643
-619.461
-615.121
-610.685
-606.216
-601.773
-597.41
-593.176
-589.106
-585.23
-581.569
-578.137
-574.937
-571.954
-569.158
-566.559
-564.158
-562.057
-560.227
-558.765
-557.868
-557.817
-558.668
-559.972
-560.617
-559.532
-556.298
-551.516
-546.367
-541.401
-536.916
-533.421
-530.702
-528.49
-526.649
-524.927
-523.202
-521.448
-519.66
-517.841
-516.001
-514.151
-512.308
-510.489
-508.719
-507.026
-505.434
-503.99
-502.733
-501.72
-501.022
-500.727
-500.952
-501.849
-503.577
-506.22
-509.714
-513.767
-517.994
-522.095
-525.896
-529.275
-532.081
-534.064
-534.907
-534.343
-532.217
-528.514
-523.44
-517.126
-509.799
-501.673
-492.919
-483.647
-473.916
-463.754
-453.185
-442.274
-431.162
-420.073
-409.295
-399.167
-389.97
-381.919
-375.129
-369.587
-365.175
-361.704
-358.945
-356.665
-354.649
-352.719
-350.748
-348.654
-346.388
-343.929
-341.277
-338.44
-335.433
-332.277
-328.99
-325.586
-322.073
-318.458
-314.756
-310.97
-307.115
-303.205
-299.251
-295.261
-291.241
-287.191
-283.107
-278.984
-274.814
-270.594
-266.324
-262.006
-257.639
-253.23
-248.787
-244.316
-239.817
-235.279
-230.676
-225.994
-221.272
-216.563
-211.88
-207.166
-202.321
-197.241
-191.957
-649.683
-650.038
-650.481
-651.013
-651.548
-651.914
-652.078
-652.046
-651.803
-651.381
-650.866
-650.265
-649.551
-648.737
-647.862
-646.971
-646.117
-645.337
-644.651
-644.07
-643.619
-643.323
-643.199
-643.248
-643.459
-643.809
-644.276
-644.846
-645.514
-646.283
-647.152
-648.112
-649.131
-650.154
-651.109
-651.907
-652.46
-652.682
-652.492
-651.829
-650.655
-648.95
-646.723
-643.976
-640.742
-637.075
-633.044
-628.719
-624.165
-619.444
-614.614
-609.739
-604.887
-600.128
-595.521
-591.114
-586.94
-583.019
-579.358
-575.956
-572.794
-569.855
-567.125
-564.61
-562.374
-560.423
-558.799
-557.634
-557.222
-557.683
-558.736
-559.31
-558.333
-555.376
-550.968
-546.099
-541.279
-537.107
-533.815
-531.096
-528.832
-526.88
-525.053
-523.265
-521.477
-519.674
-517.853
-516.016
-514.174
-512.339
-510.528
-508.761
-507.066
-505.476
-504.035
-502.787
-501.799
-501.155
-500.959
-501.356
-502.548
-504.735
-507.99
-512.135
-516.693
-521.199
-525.431
-529.367
-533.005
-536.209
-538.642
-539.833
-539.383
-537.138
-533.153
-527.625
-520.83
-513.07
-504.605
-495.621
-486.225
-476.45
-466.282
-455.694
-444.703
-433.418
-422.049
-410.9
-400.384
-390.825
-382.493
-375.531
-369.932
-365.557
-362.179
-359.539
-357.387
-355.491
-353.653
-351.729
-349.631
-347.322
-344.792
-342.052
-339.12
-336.02
-332.774
-329.404
-325.925
-322.35
-318.683
-314.932
-311.109
-307.225
-303.292
-299.32
-295.313
-291.277
-287.212
-283.114
-278.98
-274.803
-270.58
-266.309
-261.992
-257.633
-253.236
-248.803
-244.338
-239.844
-235.317
-230.723
-226.046
-221.322
-216.611
-211.921
-207.189
-202.324
-197.244
-191.98
-650.281
-650.537
-650.944
-651.457
-652.003
-652.425
-652.663
-652.703
-652.535
-652.173
-651.673
-651.068
-650.391
-649.673
-648.945
-648.233
-647.561
-646.956
-646.435
-646.025
-645.756
-645.651
-645.719
-645.956
-646.345
-646.875
-647.542
-648.358
-649.343
-650.507
-651.843
-653.316
-654.864
-656.402
-657.831
-659.046
-659.937
-660.403
-660.367
-659.781
-658.603
-656.801
-654.32
-651.227
-647.602
-643.531
-639.102
-634.398
-629.482
-624.4
-619.191
-613.898
-608.585
-603.329
-598.218
-593.334
-588.74
-584.46
-580.495
-576.832
-573.44
-570.309
-567.402
-564.736
-562.294
-560.12
-558.213
-556.626
-555.576
-555.233
-555.518
-555.657
-554.666
-552.271
-548.638
-544.455
-540.223
-536.647
-533.646
-531.052
-528.854
-526.901
-525.064
-523.267
-521.474
-519.671
-517.852
-516.023
-514.193
-512.374
-510.581
-508.832
-507.153
-505.578
-504.155
-502.937
-501.987
-501.411
-501.328
-501.918
-503.436
-506.106
-509.973
-514.692
-519.599
-524.247
-528.59
-532.794
-536.935
-540.801
-543.831
-545.36
-544.935
-542.417
-537.948
-531.808
-524.402
-516.125
-507.277
-498.042
-488.52
-478.718
-468.585
-458.038
-447.034
-435.642
-424.059
-412.565
-401.705
-391.808
-383.195
-376.052
-370.39
-366.06
-362.805
-360.318
-358.302
-356.511
-354.749
-352.866
-350.765
-348.406
-345.79
-342.943
-339.898
-336.686
-333.333
-329.866
-326.302
-322.653
-318.925
-315.122
-311.257
-307.341
-303.383
-299.389
-295.365
-291.313
-287.234
-283.124
-278.979
-274.794
-270.568
-266.298
-261.986
-257.633
-253.246
-248.823
-244.364
-239.874
-235.35
-230.766
-226.1
-221.381
-216.668
-211.964
-207.208
-202.316
-197.242
-192.004
-650.044
-650.241
-650.594
-651.073
-651.613
-652.104
-652.447
-652.602
-652.569
-652.366
-652.019
-651.565
-651.035
-650.461
-649.869
-649.287
-648.745
-648.27
-647.893
-647.65
-647.571
-647.671
-647.952
-648.407
-649.031
-649.833
-650.836
-652.069
-653.553
-655.283
-657.223
-659.304
-661.43
-663.488
-665.365
-666.953
-668.148
-668.847
-668.952
-668.382
-667.076
-665.008
-662.196
-658.712
-654.633
-650.059
-645.108
-639.908
-634.582
-629.204
-623.781
-618.263
-612.636
-606.945
-601.294
-595.826
-590.674
-585.911
-581.555
-577.571
-573.914
-570.552
-567.432
-564.558
-561.887
-559.434
-557.184
-555.138
-553.383
-552.08
-551.286
-550.637
-549.473
-547.511
-544.775
-541.6
-538.399
-535.515
-532.935
-530.677
-528.699
-526.849
-525.05
-523.26
-521.464
-519.66
-517.845
-516.022
-514.202
-512.398
-510.624
-508.898
-507.244
-505.697
-504.304
-503.127
-502.245
-501.749
-501.791
-502.583
-504.429
-507.56
-511.984
-517.169
-522.302
-527.063
-531.601
-536.248
-541.071
-545.692
-549.273
-550.957
-550.329
-547.34
-542.259
-535.474
-527.461
-518.666
-509.417
-499.909
-490.25
-480.421
-470.346
-459.893
-448.942
-437.539
-425.85
-414.202
-403.077
-392.907
-384.06
-376.77
-371.061
-366.775
-363.641
-361.323
-359.471
-357.792
-356.079
-354.198
-352.065
-349.64
-346.925
-343.954
-340.773
-337.429
-333.953
-330.374
-326.71
-322.978
-319.181
-315.323
-311.413
-307.46
-303.474
-299.458
-295.416
-291.349
-287.255
-283.133
-278.979
-274.789
-270.561
-266.293
-261.984
-257.637
-253.257
-248.844
-244.393
-239.903
-235.374
-230.794
-226.15
-221.455
-216.742
-212.015
-207.228
-202.315
-197.247
-192.031
-649.183
-649.347
-649.662
-650.098
-650.606
-651.111
-651.535
-651.817
-651.938
-651.895
-651.713
-651.421
-651.046
-650.617
-650.16
-649.707
-649.296
-648.965
-648.761
-648.719
-648.862
-649.2
-649.733
-650.467
-651.418
-652.617
-654.098
-655.883
-657.969
-660.318
-662.86
-665.508
-668.167
-670.742
-673.135
-675.241
-676.935
-678.081
-678.537
-678.153
-676.835
-674.543
-671.443
-667.499
-662.778
-657.422
-651.614
-645.564
-639.486
-633.534
-627.77
-622.122
-616.432
-610.572
-604.553
-598.539
-592.761
-587.409
-582.558
-578.18
-574.22
-570.594
-567.251
-564.144
-561.249
-558.529
-555.957
-553.527
-551.231
-549.146
-547.337
-545.751
-544.143
-542.325
-540.286
-538.082
-535.884
-533.817
-531.911
-530.17
-528.493
-526.801
-525.06
-523.272
-521.466
-519.655
-517.839
-516.018
-514.202
-512.407
-510.648
-508.943
-507.316
-505.802
-504.448
-503.32
-502.503
-502.117
-502.279
-503.274
-505.419
-508.951
-513.841
-519.402
-524.718
-529.615
-534.448
-539.639
-545.171
-550.428
-554.372
-556.074
-555.185
-551.734
-546.09
-538.713
-530.12
-520.793
-511.099
-501.25
-491.403
-481.483
-471.432
-461.073
-450.264
-438.974
-427.36
-415.736
-404.546
-394.244
-385.241
-377.836
-372.109
-367.893
-364.867
-362.675
-360.961
-359.39
-357.714
-355.795
-353.574
-351.036
-348.193
-345.079
-341.745
-338.247
-334.63
-330.923
-327.148
-323.32
-319.447
-315.53
-311.571
-307.58
-303.563
-299.524
-295.464
-291.381
-287.275
-283.143
-278.981
-274.786
-270.557
-266.29
-261.985
-257.645
-253.272
-248.864
-244.418
-239.933
-235.405
-230.83
-226.204
-221.534
-216.825
-212.072
-207.252
-202.324
-197.266
-192.071
-648.144
-648.244
-648.46
-648.785
-649.185
-649.608
-649.998
-650.307
-650.487
-650.55
-650.498
-650.343
-650.109
-649.823
-649.518
-649.235
-649.015
-648.905
-648.942
-649.155
-649.56
-650.171
-651.003
-652.081
-653.439
-655.113
-657.127
-659.483
-662.152
-665.083
-668.212
-671.474
-674.805
-678.131
-681.351
-684.324
-686.871
-688.777
-689.832
-689.863
-688.74
-686.423
-682.9
-678.266
-672.676
-666.322
-659.424
-652.216
-644.953
-637.916
-631.348
-625.302
-619.542
-613.732
-607.632
-601.259
-594.901
-588.917
-583.501
-578.683
-574.388
-570.515
-566.949
-563.626
-560.52
-557.567
-554.74
-552.016
-549.382
-546.836
-544.42
-542.188
-540.156
-538.289
-536.604
-535.037
-533.585
-532.229
-530.936
-529.656
-528.291
-526.78
-525.106
-523.326
-521.504
-519.674
-517.845
-516.018
-514.201
-512.408
-510.657
-508.966
-507.36
-505.877
-504.563
-503.485
-502.733
-502.427
-502.74
-503.929
-506.302
-510.152
-515.392
-521.27
-526.78
-531.855
-537.032
-542.737
-548.852
-554.551
-558.711
-560.415
-559.359
-555.571
-549.48
-541.608
-532.511
-522.67
-512.507
-502.256
-492.059
-481.927
-471.785
-461.483
-450.865
-439.863
-428.578
-417.251
-406.252
-396.038
-387.048
-379.592
-373.803
-369.6
-366.673
-364.59
-362.946
-361.411
-359.722
-357.717
-355.348
-352.631
-349.606
-346.315
-342.808
-339.139
-335.361
-331.511
-327.612
-323.679
-319.72
-315.737
-311.729
-307.699
-303.65
-299.587
-295.507
-291.41
-287.292
-283.151
-278.983
-274.784
-270.554
-266.289
-261.989
-257.655
-253.287
-248.883
-244.443
-239.966
-235.447
-230.881
-226.265
-221.606
-216.9
-212.134
-207.296
-202.363
-197.313
-192.132
-647.612
-647.628
-647.703
-647.847
-648.049
-648.28
-648.501
-648.679
-648.805
-648.858
-648.836
-648.746
-648.607
-648.446
-648.298
-648.203
-648.2
-648.324
-648.604
-649.064
-649.725
-650.613
-651.76
-653.205
-654.986
-657.133
-659.657
-662.546
-665.77
-669.296
-673.09
-677.121
-681.341
-685.664
-689.942
-693.96
-697.449
-700.123
-701.713
-702.015
-700.894
-698.367
-694.395
-689.12
-682.743
-675.5
-667.649
-659.416
-651
-642.686
-634.906
-628.008
-621.944
-616.211
-610.222
-603.724
-596.912
-590.33
-584.36
-579.133
-574.505
-570.376
-566.605
-563.105
-559.813
-556.686
-553.674
-550.756
-547.923
-545.166
-542.512
-540.012
-537.735
-535.817
-534.273
-533.016
-531.967
-531.03
-530.119
-529.163
-528.076
-526.761
-525.189
-523.428
-521.582
-519.716
-517.855
-516.01
-514.187
-512.397
-510.651
-508.97
-507.381
-505.922
-504.642
-503.61
-502.916
-502.685
-503.104
-504.435
-507.015
-511.082
-516.508
-522.677
-528.404
-533.698
-539.186
-545.274
-551.758
-557.694
-561.962
-563.686
-562.559
-558.59
-552.153
-543.928
-534.495
-524.327
-513.805
-503.151
-492.551
-482.095
-471.769
-461.469
-451.062
-440.477
-429.777
-419.112
-408.676
-398.789
-389.933
-382.507
-376.656
-372.321
-369.298
-367.213
-365.592
-364.023
-362.226
-360.046
-357.444
-354.468
-351.189
-347.666
-343.954
-340.097
-336.143
-332.134
-328.099
-324.051
-319.999
-315.944
-311.883
-307.813
-303.733
-299.644
-295.546
-291.434
-287.306
-283.157
-278.984
-274.782
-270.552
-266.289
-261.993
-257.664
-253.302
-248.904
-244.471
-240.002
-235.494
-230.937
-226.325
-221.671
-216.973
-212.211
-207.371
-202.437
-197.391
-192.216
-647.604
-647.56
-647.527
-647.525
-647.555
-647.6
-647.648
-647.676
-647.674
-647.635
-647.557
-647.45
-647.332
-647.228
-647.17
-647.19
-647.319
-647.588
-648.022
-648.649
-649.5
-650.617
-652.043
-653.819
-655.981
-658.546
-661.518
-664.886
-668.638
-672.765
-677.261
-682.104
-687.233
-692.523
-697.772
-702.716
-707.047
-710.441
-712.587
-713.228
-712.161
-709.506
-705.172
-699.271
-692.045
-683.814
-674.956
-665.821
-656.586
-647.319
-638.364
-630.408
-623.743
-618.04
-612.192
-605.713
-598.602
-591.555
-585.132
-579.513
-574.612
-570.261
-566.315
-562.673
-559.247
-555.989
-552.861
-549.83
-546.902
-544.092
-541.384
-538.84
-536.566
-534.683
-533.125
-531.926
-530.996
-530.202
-529.449
-528.676
-527.797
-526.672
-525.226
-523.523
-521.679
-519.769
-517.86
-515.985
-514.153
-512.365
-510.627
-508.957
-507.383
-505.944
-504.69
-503.692
-503.043
-502.868
-503.355
-504.767
-507.453
-511.641
-517.217
-523.485
-529.469
-535.039
-540.761
-547.032
-553.62
-559.573
-563.804
-565.487
-564.274
-560.116
-553.493
-545.14
-535.659
-525.463
-514.83
-503.98
-493.136
-482.464
-472.028
-461.779
-451.617
-441.486
-431.45
-421.644
-412.157
-403.066
-394.615
-387.223
-381.197
-376.583
-373.23
-370.853
-369.037
-367.323
-365.341
-362.887
-359.94
-356.595
-352.972
-349.148
-345.183
-341.112
-336.968
-332.788
-328.604
-324.433
-320.281
-316.149
-312.031
-307.92
-303.81
-299.697
-295.579
-291.453
-287.315
-283.159
-278.982
-274.779
-270.549
-266.29
-261.997
-257.673
-253.317
-248.926
-244.501
-240.039
-235.539
-230.99
-226.388
-221.743
-217.056
-212.304
-207.467
-202.533
-197.494
-192.325
-648.234
-648.147
-648.025
-647.904
-647.808
-647.72
-647.625
-647.511
-647.376
-647.216
-647.038
-646.853
-646.681
-646.546
-646.475
-646.496
-646.637
-646.926
-647.396
-648.083
-649.032
-650.295
-651.922
-653.951
-656.406
-659.294
-662.614
-666.367
-670.555
-675.191
-680.282
-685.808
-691.698
-697.804
-703.898
-709.687
-714.844
-719.022
-721.863
-723.043
-722.343
-719.525
-714.684
-708.012
-699.854
-690.599
-680.681
-670.654
-660.807
-651.029
-641.277
-632.442
-625.16
-619.268
-613.514
-607.104
-599.88
-592.564
-585.817
-579.9
-574.777
-570.258
-566.175
-562.405
-558.877
-555.529
-552.329
-549.263
-546.309
-543.487
-540.836
-538.354
-536.023
-534.169
-532.669
-531.472
-530.495
-529.665
-528.909
-528.182
-527.402
-526.411
-525.116
-523.526
-521.722
-519.804
-517.858
-515.949
-514.101
-512.315
-510.587
-508.931
-507.373
-505.95
-504.716
-503.741
-503.118
-502.972
-503.483
-504.906
-507.583
-511.758
-517.361
-523.727
-529.932
-535.749
-541.608
-547.86
-554.292
-560.03
-564.053
-565.582
-564.253
-559.968
-553.311
-545.071
-535.81
-525.834
-515.33
-504.52
-493.686
-483.064
-472.76
-462.753
-452.97
-443.37
-434.03
-425.106
-416.662
-408.637
-401.057
-394.13
-388.037
-382.916
-378.89
-375.887
-373.565
-371.46
-369.141
-366.312
-362.914
-359.078
-354.996
-350.781
-346.502
-342.181
-337.828
-333.466
-329.123
-324.821
-320.564
-316.35
-312.173
-308.019
-303.878
-299.743
-295.607
-291.468
-287.319
-283.158
-278.977
-274.774
-270.546
-266.29
-262.002
-257.682
-253.332
-248.949
-244.532
-240.077
-235.583
-231.045
-226.458
-221.826
-217.148
-212.402
-207.571
-202.646
-197.623
-192.462
-649.515
-649.393
-649.216
-649.035
-648.844
-648.646
-648.435
-648.2
-647.937
-647.647
-647.337
-647.021
-646.721
-646.464
-646.275
-646.184
-646.221
-646.42
-646.82
-647.468
-648.42
-649.735
-651.464
-653.641
-656.277
-659.369
-662.913
-666.915
-671.393
-676.369
-681.859
-687.848
-694.256
-700.925
-707.602
-713.954
-719.607
-724.19
-727.336
-728.69
-728.004
-725.033
-719.894
-712.816
-704.203
-694.493
-684.063
-673.47
-663.214
-653.268
-643.297
-633.934
-626.114
-619.997
-614.294
-607.962
-600.727
-593.307
-586.41
-580.337
-575.057
-570.4
-566.202
-562.338