/*--------------------------------*- C++ -*----------------------------------*\
  =========                 |
  \\      /  F ield         | OpenFOAM: The Open Source CFD Toolbox
   \\    /   O peration     | Website:  https://openfoam.org
    \\  /    A nd           | Version:  9
     \\/     M anipulation  |
\*---------------------------------------------------------------------------*/
FoamFile
{
    format      ascii;
    class       surfaceScalarField;
    location    "0.082";
    object      phi_0;
}
// * * * * * * * * * * * * * * * * * * * * * * * * * * * * * * * * * * * * * //

dimensions      [0 3 -1 0 0 0 0];

internalField   nonuniform List<scalar> 
24170
(
3.1041e-06
8.53578e-08
3.0013e-06
1.02798e-07
2.86996e-06
1.31336e-07
2.74118e-06
1.28789e-07
2.64682e-06
9.43604e-08
2.58602e-06
6.07992e-08
2.52836e-06
5.76508e-08
2.44474e-06
8.36232e-08
2.33435e-06
1.1039e-07
2.21752e-06
1.16834e-07
2.11605e-06
1.01464e-07
2.03602e-06
8.00322e-08
1.97252e-06
6.34977e-08
1.91434e-06
5.8182e-08
1.85016e-06
6.41844e-08
1.7703e-06
7.98535e-08
1.66688e-06
1.03424e-07
1.24966e-07
1.54191e-06
3.31301e-06
1.48799e-07
3.34344e-06
7.23665e-08
3.38097e-06
9.38095e-08
3.40121e-06
1.08549e-07
3.39744e-06
9.81369e-08
3.38575e-06
7.24854e-08
3.38434e-06
5.90559e-08
3.39458e-06
7.33851e-08
3.40499e-06
9.99833e-08
3.40474e-06
1.1708e-07
3.3898e-06
1.16407e-07
3.36217e-06
1.07661e-07
3.32612e-06
9.95453e-08
3.28595e-06
9.83553e-08
3.24429e-06
1.05842e-07
3.20108e-06
1.23062e-07
3.15368e-06
1.50825e-07
1.73634e-07
3.10501e-06
3.61818e-06
1.41394e-07
3.61778e-06
7.27666e-08
3.65649e-06
5.50978e-08
3.68934e-06
7.5698e-08
3.70488e-06
8.26006e-08
3.70257e-06
7.47956e-08
3.6911e-06
7.05264e-08
3.68312e-06
8.13677e-08
3.68375e-06
9.93471e-08
3.68886e-06
1.11971e-07
3.69033e-06
1.1494e-07
3.68403e-06
1.13964e-07
3.66853e-06
1.15044e-07
3.64577e-06
1.21116e-07
3.61939e-06
1.3222e-07
3.59448e-06
1.47967e-07
3.57664e-06
1.68672e-07
1.86607e-07
3.56366e-06
3.83272e-06
7.26262e-08
3.8964e-06
9.09184e-09
3.92343e-06
2.80684e-08
3.94288e-06
5.62434e-08
3.95837e-06
6.7106e-08
3.95723e-06
7.59391e-08
3.93918e-06
8.8573e-08
3.91587e-06
1.04683e-07
3.89853e-06
1.16687e-07
3.89166e-06
1.1884e-07
3.8932e-06
1.13395e-07
3.89953e-06
1.07637e-07
3.90696e-06
1.07616e-07
3.9124e-06
1.15673e-07
3.91376e-06
1.30863e-07
3.90983e-06
1.51898e-07
3.90195e-06
1.76552e-07
2.00155e-07
3.8884e-06
4.15717e-06
1.61311e-08
4.17375e-06
-7.49067e-09
4.18532e-06
1.6501e-08
4.22226e-06
1.93042e-08
4.26834e-06
2.10193e-08
4.29462e-06
4.9661e-08
4.29407e-06
8.91269e-08
4.27791e-06
1.2084e-07
4.25924e-06
1.35352e-07
4.24419e-06
1.33893e-07
4.23238e-06
1.25212e-07
4.22161e-06
1.18398e-07
4.21062e-06
1.18612e-07
4.19951e-06
1.26784e-07
4.18937e-06
1.41001e-07
4.18125e-06
1.60018e-07
4.17583e-06
1.81967e-07
2.05073e-07
4.17092e-06
4.52388e-06
-1.41091e-09
4.53856e-06
-2.21688e-08
4.54229e-06
1.27721e-08
4.53591e-06
2.56808e-08
4.53785e-06
1.90784e-08
4.5468e-06
4.07173e-08
4.55197e-06
8.39544e-08
4.54853e-06
1.24273e-07
4.53916e-06
1.44721e-07
4.52885e-06
1.44208e-07
4.52101e-06
1.33056e-07
4.51641e-06
1.22992e-07
4.51402e-06
1.21002e-07
4.51189e-06
1.28917e-07
4.50827e-06
1.44618e-07
4.50267e-06
1.65622e-07
4.4955e-06
1.89134e-07
2.13635e-07
4.48694e-06
4.78121e-06
-9.50513e-08
4.88091e-06
-1.21864e-07
4.90077e-06
-7.09223e-09
4.87579e-06
5.067e-08
4.84123e-06
5.36345e-08
4.82257e-06
5.93791e-08
4.82305e-06
8.34768e-08
4.83493e-06
1.12383e-07
4.84819e-06
1.31468e-07
4.85494e-06
1.37456e-07
4.85246e-06
1.35536e-07
4.8429e-06
1.3255e-07
4.83091e-06
1.32997e-07
4.8211e-06
1.3872e-07
4.81582e-06
1.49902e-07
4.81556e-06
1.6588e-07
4.81869e-06
1.8601e-07
2.09366e-07
4.82296e-06
5.2286e-06
-7.88247e-08
5.16345e-06
-5.67134e-08
5.1557e-06
6.58901e-10
5.17331e-06
3.3062e-08
5.18581e-06
4.11383e-08
5.18445e-06
6.07323e-08
5.17391e-06
9.40158e-08
5.1619e-06
1.24402e-07
5.15284e-06
1.40522e-07
5.14812e-06
1.42175e-07
5.14827e-06
1.35384e-07
5.15331e-06
1.27509e-07
5.16225e-06
1.24059e-07
5.17276e-06
1.2821e-07
5.18239e-06
1.40277e-07
5.18909e-06
1.59174e-07
5.19247e-06
1.8263e-07
2.09711e-07
5.19213e-06
5.53463e-06
1.64228e-08
5.52841e-06
-5.0496e-08
5.4792e-06
4.98706e-08
5.42192e-06
9.03347e-08
5.3993e-06
6.37612e-08
5.41874e-06
4.12942e-08
5.46315e-06
4.96049e-08
5.50799e-06
7.9559e-08
5.53668e-06
1.11838e-07
5.5457e-06
1.3315e-07
5.54118e-06
1.39905e-07
5.5319e-06
1.36794e-07
5.52423e-06
1.31727e-07
5.51972e-06
1.32718e-07
5.51727e-06
1.42729e-07
5.51466e-06
1.61787e-07
5.51121e-06
1.86081e-07
2.11643e-07
5.50927e-06
5.88572e-06
-1.29007e-08
5.93003e-06
-9.48029e-08
5.95187e-06
2.80213e-08
5.96268e-06
7.95296e-08
5.96312e-06
6.33161e-08
5.96359e-06
4.08285e-08
5.97014e-06
4.30529e-08
5.97734e-06
7.23614e-08
5.97619e-06
1.12989e-07
5.9641e-06
1.45238e-07
5.94621e-06
1.57797e-07
5.92989e-06
1.53112e-07
5.91982e-06
1.41802e-07
5.91661e-06
1.35918e-07
5.91703e-06
1.4231e-07
5.91786e-06
1.60963e-07
5.91573e-06
1.88212e-07
2.18792e-07
5.90858e-06
6.27173e-06
-7.70197e-08
6.25785e-06
-8.09208e-08
6.28077e-06
5.10543e-09
6.30829e-06
5.201e-08
6.31244e-06
5.91588e-08
6.29999e-06
5.32833e-08
6.29033e-06
5.27077e-08
6.29561e-06
6.70811e-08
6.31344e-06
9.51638e-08
6.3325e-06
1.26177e-07
6.34261e-06
1.47685e-07
6.3418e-06
1.53922e-07
6.33561e-06
1.47998e-07
6.33249e-06
1.39035e-07
6.3376e-06
1.37202e-07
6.35098e-06
1.47587e-07
6.36896e-06
1.7023e-07
2.00344e-07
6.38741e-06
5.85519e-06
-6.95614e-08
5.83556e-06
-6.12898e-08
5.81337e-06
2.72976e-08
5.78491e-06
8.04616e-08
5.75233e-06
9.1741e-08
5.72133e-06
8.42844e-08
5.69762e-06
7.64144e-08
5.6842e-06
8.05055e-08
5.68152e-06
9.78476e-08
5.68614e-06
1.21552e-07
5.69179e-06
1.42032e-07
5.69327e-06
1.52445e-07
5.68917e-06
1.52099e-07
5.6825e-06
1.45703e-07
5.67854e-06
1.41168e-07
5.68104e-06
1.45086e-07
5.69253e-06
1.58734e-07
1.83985e-07
5.70889e-06
7.07983e-06
-1.72781e-07
7.04959e-06
-3.10465e-08
6.98875e-06
8.81389e-08
6.93289e-06
1.36321e-07
6.89405e-06
1.30577e-07
6.86806e-06
1.1028e-07
6.84383e-06
1.0064e-07
6.81906e-06
1.0528e-07
6.80206e-06
1.14848e-07
6.8015e-06
1.22105e-07
6.81846e-06
1.25079e-07
6.8466e-06
1.24297e-07
6.87732e-06
1.21379e-07
6.90413e-06
1.18899e-07
6.92542e-06
1.1988e-07
6.94327e-06
1.2723e-07
6.96112e-06
1.40883e-07
1.61103e-07
6.984e-06
8.60686e-06
-1.88402e-07
8.54063e-06
3.51876e-08
8.43556e-06
1.93211e-07
8.37009e-06
2.01789e-07
8.33147e-06
1.692e-07
8.3154e-06
1.26347e-07
8.32462e-06
9.14163e-08
8.36164e-06
6.82642e-08
8.42e-06
5.64818e-08
8.48767e-06
5.44374e-08
8.55301e-06
5.97363e-08
8.60706e-06
7.025e-08
8.64389e-06
8.45444e-08
8.66032e-06
1.02478e-07
8.65725e-06
1.22951e-07
8.63959e-06
1.4489e-07
8.61417e-06
1.66298e-07
1.8602e-07
8.58925e-06
1.0303e-05
-1.0966e-07
1.03604e-05
-2.22107e-08
1.04966e-05
5.69514e-08
1.05936e-05
1.0479e-07
1.06113e-05
1.51544e-07
1.05469e-05
1.90714e-07
1.04443e-05
1.94008e-07
1.03493e-05
1.63254e-07
1.02853e-05
1.20534e-07
1.02562e-05
8.3473e-08
1.02575e-05
5.84311e-08
1.02822e-05
4.55899e-08
1.03224e-05
4.43777e-08
1.03707e-05
5.41197e-08
1.04196e-05
7.40998e-08
1.04635e-05
1.00923e-07
1.04991e-05
1.30701e-07
1.58856e-07
1.05263e-05
1.25473e-05
-6.69116e-08
1.26046e-05
-7.95856e-08
1.26712e-05
-9.61291e-09
1.26889e-05
8.70623e-08
1.26728e-05
1.67663e-07
1.26577e-05
2.0587e-07
1.26704e-05
1.81226e-07
1.27163e-05
1.17365e-07
1.27789e-05
5.79639e-08
1.28332e-05
2.91464e-08
1.28628e-05
2.88524e-08
1.28658e-05
4.25894e-08
1.28533e-05
5.68412e-08
1.284e-05
6.74817e-08
1.28372e-05
7.68587e-08
1.28496e-05
8.8505e-08
1.2876e-05
1.04345e-07
1.25495e-07
1.29094e-05
1.53165e-05
-7.95273e-08
1.52545e-05
-1.75551e-08
1.51896e-05
5.52877e-08
1.51483e-05
1.2835e-07
1.51677e-05
1.48263e-07
1.52556e-05
1.17962e-07
1.53916e-05
4.52929e-08
1.5537e-05
-2.81291e-08
1.56596e-05
-6.45473e-08
1.57425e-05
-5.38292e-08
1.57833e-05
-1.18801e-08
1.57813e-05
4.45939e-08
1.57485e-05
8.96026e-08
1.56964e-05
1.19548e-07
1.56366e-05
1.36725e-07
1.55777e-05
1.47419e-07
1.55258e-05
1.56201e-07
1.64948e-07
1.54863e-05
1.86554e-05
-2.05662e-07
1.85603e-05
7.75267e-08
1.84962e-05
1.19367e-07
1.85474e-05
7.71288e-08
1.86578e-05
3.79467e-08
1.87603e-05
1.53733e-08
1.88028e-05
2.84362e-09
1.87844e-05
-9.77817e-09
1.87408e-05
-2.08996e-08
1.87108e-05
-2.38323e-08
1.87188e-05
-1.98863e-08
1.8773e-05
-9.56102e-09
1.8857e-05
5.57643e-09
1.89499e-05
2.66723e-08
1.90326e-05
5.40311e-08
1.90955e-05
8.44256e-08
1.91379e-05
1.13896e-07
1.37288e-07
1.91655e-05
2.31826e-05
-1.48313e-07
2.32825e-05
-2.22939e-08
2.33772e-05
2.45813e-08
2.34413e-05
1.30553e-08
2.34756e-05
3.70684e-09
2.34665e-05
2.44546e-08
2.3399e-05
7.0365e-08
2.32798e-05
1.0941e-07
2.31434e-05
1.15438e-07
2.30336e-05
8.5958e-08
2.29778e-05
3.59913e-08
2.29788e-05
-1.05592e-08
2.30237e-05
-3.93968e-08
2.30965e-05
-4.61227e-08
2.31829e-05
-3.23951e-08
2.32745e-05
-7.119e-09
2.3364e-05
2.43924e-08
5.08269e-08
2.34505e-05
1.67117e-05
-2.23288e-08
1.67884e-05
-9.90142e-08
1.68631e-05
-5.01185e-08
1.68606e-05
1.55149e-08
1.68489e-05
1.54329e-08
1.68991e-05
-2.57085e-08
1.7016e-05
-4.65825e-08
1.71552e-05
-2.97726e-08
1.72649e-05
5.75978e-09
1.73149e-05
3.59312e-08
1.72967e-05
5.42251e-08
1.72268e-05
5.93286e-08
1.71332e-05
5.42048e-08
1.70432e-05
4.38154e-08
1.69788e-05
3.20518e-08
1.69495e-05
2.22118e-08
1.69592e-05
1.46792e-08
1.17946e-08
1.69982e-05
1.47876e-05
-4.5068e-09
1.48448e-05
-1.56237e-07
1.48693e-05
-7.46801e-08
1.48291e-05
5.57744e-08
1.47105e-05
1.34039e-07
1.45672e-05
1.17572e-07
1.44836e-05
3.69681e-08
1.44888e-05
-3.49645e-08
1.45596e-05
-6.49795e-08
1.46454e-05
-4.98864e-08
1.47076e-05
-8.01124e-09
1.47212e-05
4.57181e-08
1.46943e-05
8.11541e-08
1.46458e-05
9.23122e-08
1.45972e-05
8.06759e-08
1.45629e-05
5.6524e-08
1.45491e-05
2.83897e-08
6.10795e-09
1.45548e-05
1.25396e-05
-1.1712e-07
1.25761e-05
-1.92719e-07
1.26314e-05
-1.29987e-07
1.26945e-05
-7.39091e-09
1.27513e-05
7.72364e-08
1.27656e-05
1.03311e-07
1.27373e-05
6.53044e-08
1.27033e-05
-1.04057e-09
1.26962e-05
-5.78254e-08
1.27216e-05
-7.53505e-08
1.27705e-05
-5.68908e-08
1.2832e-05
-1.57242e-08
1.28904e-05
2.27316e-08
1.29328e-05
4.99231e-08
1.29542e-05
5.92323e-08
1.29568e-05
5.39921e-08
1.2946e-05
3.9129e-08
2.09611e-08
1.29312e-05
1.11951e-05
-1.60826e-07
1.12058e-05
-2.03463e-07
1.11884e-05
-1.12546e-07
1.11883e-05
-7.35404e-09
1.11945e-05
7.10594e-08
1.12096e-05
8.82257e-08
1.12188e-05
5.61586e-08
1.12171e-05
6.38063e-10
1.12042e-05
-4.49568e-08
1.11926e-05
-6.37412e-08
1.11889e-05
-5.31655e-08
1.11945e-05
-2.13964e-08
1.11975e-05
1.97321e-08
1.11921e-05
5.53657e-08
1.11743e-05
7.70052e-08
1.11458e-05
8.25125e-08
1.1111e-05
7.39456e-08
5.52849e-08
1.10767e-05
9.87684e-06
-1.57311e-07
9.75049e-06
-7.71109e-08
9.67541e-06
-3.74702e-08
9.6298e-06
3.82568e-08
9.59966e-06
1.01199e-07
9.59446e-06
9.34301e-08
9.61881e-06
3.18031e-08
9.65526e-06
-3.58131e-08
9.69217e-06
-8.1867e-08
9.72471e-06
-9.6281e-08
9.75565e-06
-8.41043e-08
9.79037e-06
-5.61207e-08
9.83387e-06
-2.37596e-08
9.88676e-06
2.47373e-09
9.94578e-06
1.79884e-08
1.00055e-05
2.27442e-08
1.00599e-05
1.96111e-08
1.23257e-08
1.01028e-05
8.29457e-06
-4.71298e-08
8.32575e-06
-1.083e-07
8.34441e-06
-5.61241e-08
8.34819e-06
3.44713e-08
8.38382e-06
6.55679e-08
8.45276e-06
2.44928e-08
8.52634e-06
-4.17743e-08
8.57745e-06
-8.69197e-08
8.59535e-06
-9.97731e-08
8.58761e-06
-8.85396e-08
8.57029e-06
-6.67815e-08
8.55724e-06
-4.30681e-08
8.5546e-06
-2.11262e-08
8.56054e-06
-3.46863e-09
8.56895e-06
9.58239e-09
8.57588e-06
1.58096e-08
8.57942e-06
1.60709e-08
1.08309e-08
8.58092e-06
7.55361e-06
1.22771e-07
7.46768e-06
-2.23688e-08
7.45482e-06
-4.32708e-08
7.47575e-06
1.35397e-08
7.51113e-06
3.01918e-08
7.53781e-06
-2.18295e-09
7.54722e-06
-5.11888e-08
7.54522e-06
-8.49203e-08
7.53668e-06
-9.12306e-08
7.52405e-06
-7.59164e-08
7.50906e-06
-5.17858e-08
7.49518e-06
-2.91851e-08
7.48656e-06
-1.25101e-08
7.48466e-06
-1.5681e-09
7.49016e-06
4.07946e-09
7.49986e-06
6.11228e-09
7.51121e-06
4.71745e-09
-6.41636e-10
7.52269e-06
6.44351e-06
7.8565e-08
6.3604e-06
6.07444e-08
6.29688e-06
2.02525e-08
6.31923e-06
-8.81619e-09
6.39284e-06
-4.34153e-08
6.47361e-06
-8.29491e-08
6.53093e-06
-1.08512e-07
6.55402e-06
-1.0801e-07
6.54964e-06
-8.68513e-08
6.5339e-06
-6.01749e-08
6.52141e-06
-3.92943e-08
6.51945e-06
-2.7233e-08
6.52841e-06
-2.14687e-08
6.54448e-06
-1.76407e-08
6.56191e-06
-1.33443e-08
6.57636e-06
-8.33961e-09
6.58491e-06
-3.83317e-09
-2.71767e-09
6.58699e-06
5.50046e-06
2.70676e-09
5.56159e-06
-3.82805e-10
5.60551e-06
-2.36612e-08
5.62685e-06
-3.01583e-08
5.62874e-06
-4.53036e-08
5.62279e-06
-7.70049e-08
5.61947e-06
-1.05189e-07
5.62019e-06
-1.08733e-07
5.62096e-06
-8.76176e-08
5.6183e-06
-5.75149e-08
5.61247e-06
-3.34691e-08
5.60715e-06
-2.19052e-08
5.6065e-06
-2.08252e-08
5.61318e-06
-2.43205e-08
5.62673e-06
-2.68946e-08
5.64496e-06
-2.65672e-08
5.66495e-06
-2.38266e-08
-2.17468e-08
5.68398e-06
4.86076e-06
1.51519e-08
4.88513e-06
-2.47504e-08
4.92238e-06
-6.09101e-08
4.95833e-06
-6.61158e-08
4.98055e-06
-6.75163e-08
4.98307e-06
-7.95301e-08
4.96628e-06
-8.83952e-08
4.93691e-06
-7.93608e-08
4.90522e-06
-5.59294e-08
4.88012e-06
-3.24145e-08
4.86714e-06
-2.04882e-08
4.86801e-06
-2.27767e-08
4.88043e-06
-3.32467e-08
4.89989e-06
-4.37782e-08
4.92172e-06
-4.87268e-08
4.94261e-06
-4.74586e-08
4.96097e-06
-4.21813e-08
-3.66379e-08
4.97586e-06
4.12316e-06
4.0984e-06
4.03749e-06
3.97138e-06
3.90386e-06
3.82433e-06
3.73594e-06
3.65658e-06
3.60065e-06
3.56823e-06
3.54774e-06
3.52497e-06
3.49172e-06
3.44794e-06
3.39922e-06
3.35176e-06
3.30958e-06
3.27294e-06
-1.77079e-07
1.77079e-07
-3.44203e-07
1.67123e-07
-4.5443e-07
1.10227e-07
-5.29808e-07
7.53782e-08
-5.85957e-07
5.61494e-08
-6.3062e-07
4.46622e-08
-6.62622e-07
3.2002e-08
-6.76814e-07
1.41922e-08
-6.64582e-07
-1.22316e-08
-6.18323e-07
-4.62595e-08
-5.33162e-07
-8.5161e-08
-4.24729e-07
-1.08433e-07
-3.37527e-07
-8.7202e-08
-3.40859e-07
3.33173e-09
-4.74208e-07
1.33349e-07
-6.53073e-07
1.78865e-07
-8.03757e-07
1.50684e-07
-9.09455e-07
1.05697e-07
-9.89429e-07
7.99746e-08
-1.08406e-06
9.46321e-08
-1.21427e-06
1.30211e-07
-1.38557e-06
1.71293e-07
-1.61662e-06
2.31058e-07
-1.94077e-06
3.24144e-07
-2.38483e-06
4.4406e-07
-2.93151e-06
5.46682e-07
-3.49644e-06
5.64931e-07
-4.00217e-06
5.05735e-07
-4.46393e-06
4.61754e-07
-4.91673e-06
4.52799e-07
-5.3183e-06
4.01568e-07
-5.60802e-06
2.89724e-07
-5.80431e-06
1.96292e-07
-5.96703e-06
1.62719e-07
-6.12128e-06
1.54253e-07
-6.25951e-06
1.38229e-07
-6.3731e-06
1.13587e-07
-6.46067e-06
8.75682e-08
-6.52267e-06
6.19984e-08
-6.55659e-06
3.39271e-08
-6.55879e-06
2.19274e-09
-6.52345e-06
-3.53341e-08
-6.44915e-06
-7.43042e-08
-6.33493e-06
-1.14217e-07
-6.18024e-06
-1.5469e-07
-5.98466e-06
-1.95584e-07
-5.74745e-06
-2.37205e-07
-5.46833e-06
-2.79118e-07
-5.14829e-06
-3.20039e-07
-4.78911e-06
-3.59187e-07
-4.39246e-06
-3.96652e-07
-3.96048e-06
-4.31976e-07
-3.49672e-06
-4.63756e-07
-3.00674e-06
-4.89979e-07
-2.49795e-06
-5.08798e-07
-1.97853e-06
-5.19412e-07
-1.45722e-06
-5.21312e-07
-9.38725e-07
-5.18497e-07
-4.24983e-07
-5.13742e-07
9.38985e-08
-5.18881e-07
6.55627e-07
-5.61728e-07
1.25263e-06
-5.97003e-07
1.80298e-06
-5.5035e-07
2.309e-06
-5.06016e-07
2.7867e-06
-4.77708e-07
3.24218e-06
-4.55478e-07
3.68561e-06
-4.4343e-07
4.10103e-06
-4.15421e-07
4.44115e-06
-3.4012e-07
4.64927e-06
-2.08116e-07
4.64685e-06
2.41458e-09
4.38366e-06
2.63198e-07
3.81729e-06
5.66361e-07
3.01766e-06
7.99633e-07
2.20685e-06
8.10817e-07
1.46441e-06
7.42438e-07
9.06424e-07
5.57984e-07
6.39565e-07
2.66858e-07
7.79925e-07
-1.4036e-07
1.27796e-06
-4.98031e-07
1.72958e-06
-4.51627e-07
1.88197e-06
-1.52383e-07
1.76498e-06
1.16982e-07
1.48539e-06
2.79591e-07
1.13966e-06
3.45736e-07
8.01913e-07
3.37745e-07
5.08926e-07
2.92987e-07
2.71027e-07
2.37899e-07
8.66427e-08
1.84384e-07
-5.29227e-08
1.39565e-07
-1.58739e-07
1.05817e-07
-2.43726e-07
8.49863e-08
-3.21358e-07
7.7632e-08
-4.06372e-07
8.50146e-08
-5.14783e-07
1.08411e-07
-6.64329e-07
1.49546e-07
-8.74203e-07
2.09874e-07
-1.16368e-06
2.89474e-07
-1.54931e-06
3.85631e-07
-2.04114e-06
4.91827e-07
-2.64029e-06
5.99155e-07
-3.33765e-06
6.97356e-07
-4.11016e-06
7.72515e-07
-4.93047e-06
8.20311e-07
-5.77003e-06
8.39563e-07
-6.60163e-06
8.31599e-07
-7.40099e-06
7.99358e-07
-8.14687e-06
7.45881e-07
-8.82105e-06
6.74176e-07
-9.4087e-06
5.87655e-07
-9.89876e-06
4.90061e-07
-1.02836e-05
3.84808e-07
-1.05581e-05
2.74571e-07
-1.07209e-05
1.62758e-07
-1.07763e-05
5.53705e-08
-1.07333e-05
-4.30073e-08
-1.05991e-05
-1.34169e-07
-1.03816e-05
-2.17492e-07
-1.00873e-05
-2.94329e-07
-9.72037e-06
-3.66906e-07
-9.28489e-06
-4.35478e-07
-8.78371e-06
-5.01186e-07
-8.21939e-06
-5.6431e-07
-7.59518e-06
-6.2422e-07
-6.91573e-06
-6.79446e-07
-6.18803e-06
-7.27698e-07
-5.42167e-06
-7.66364e-07
-4.62871e-06
-7.92957e-07
-3.82319e-06
-8.05517e-07
-3.02001e-06
-8.0318e-07
-2.23362e-06
-7.86391e-07
-1.4777e-06
-7.5592e-07
-7.62548e-07
-7.15153e-07
-9.80681e-08
-6.64479e-07
5.14381e-07
-6.12449e-07
1.06953e-06
-5.55147e-07
1.56688e-06
-4.97349e-07
2.00687e-06
-4.3999e-07
2.39085e-06
-3.83983e-07
2.72064e-06
-3.29794e-07
2.99855e-06
-2.77905e-07
3.22808e-06
-2.29534e-07
3.41501e-06
-1.86929e-07
3.56603e-06
-1.51023e-07
3.6803e-06
-1.14263e-07
3.7381e-06
-5.78018e-08
3.71353e-06
2.45692e-08
3.60405e-06
1.09483e-07
3.43817e-06
1.65873e-07
3.25658e-06
1.8159e-07
3.09192e-06
1.6466e-07
2.95871e-06
1.33219e-07
2.85751e-06
1.01199e-07
2.77875e-06
7.87587e-08
2.71283e-06
6.59135e-08
2.65298e-06
5.98539e-08
2.5959e-06
5.70773e-08
2.54026e-06
5.56442e-08
2.48766e-06
5.25971e-08
2.44209e-06
4.55771e-08
2.40774e-06
3.43428e-08
2.38567e-06
2.20728e-08
2.37528e-06
1.03886e-08
2.3774e-06
-2.11633e-09
2.38862e-06
-1.12262e-08
2.39956e-06
-1.09393e-08
2.40795e-06
-8.38974e-09
2.4182e-06
-1.0243e-08
2.42363e-06
-5.43585e-09
2.42135e-06
2.28188e-09
2.42197e-06
-6.18831e-10
2.42673e-06
-4.75918e-09
2.4053e-06
2.14316e-08
2.35984e-06
4.5457e-08
2.31331e-06
4.65335e-08
2.25319e-06
6.01172e-08
2.16428e-06
8.89122e-08
2.14398e-06
2.02949e-08
2.15789e-06
-1.39086e-08
-7.72242e-08
2.23511e-06
6.99759e-08
1.07103e-07
1.86601e-07
5.04981e-08
3.30342e-07
-3.35139e-08
4.69464e-07
-6.37437e-08
5.54542e-07
-2.89282e-08
5.6382e-07
3.53841e-08
4.98075e-07
9.7747e-08
3.72156e-07
1.40111e-07
2.06114e-07
1.5381e-07
3.42521e-08
1.25602e-07
-1.15411e-07
6.45023e-08
-2.39986e-07
1.61424e-08
-3.10543e-07
-1.66447e-08
-2.83264e-07
-2.39477e-08
-2.3328e-07
8.33651e-08
-3.10651e-07
2.56235e-07
-4.95616e-07
3.3565e-07
-6.97675e-07
3.07756e-07
-9.19625e-07
3.01925e-07
-1.19572e-06
3.70727e-07
-1.51258e-06
4.47075e-07
-1.85377e-06
5.12477e-07
-2.22195e-06
5.99242e-07
-2.61999e-06
7.22179e-07
-3.03423e-06
8.58304e-07
-3.43754e-06
9.49987e-07
-3.80715e-06
9.34541e-07
-4.12156e-06
8.20149e-07
-4.3599e-06
7.00098e-07
-4.5344e-06
6.27297e-07
-4.69665e-06
5.63817e-07
-4.88563e-06
4.78703e-07
-5.09757e-06
4.08233e-07
-5.3179e-06
3.83052e-07
-5.54005e-06
3.76394e-07
-5.7547e-06
3.52886e-07
-5.95056e-06
3.09448e-07
-6.11959e-06
2.56597e-07
-6.25507e-06
1.97473e-07
-6.35224e-06
1.31099e-07
-6.40832e-06
5.82723e-08
-6.42209e-06
-2.15602e-08
-6.39021e-06
-1.06185e-07
-6.31331e-06
-1.91119e-07
-6.19173e-06
-2.76274e-07
-6.02598e-06
-3.61329e-07
-5.81803e-06
-4.45153e-07
-5.57086e-06
-5.26297e-07
-5.28722e-06
-6.03676e-07
-4.96937e-06
-6.77034e-07
-4.61938e-06
-7.46642e-07
-4.23897e-06
-8.12383e-07
-3.82976e-06
-8.7297e-07
-3.3939e-06
-9.25841e-07
-2.93464e-06
-9.68059e-07
-2.45664e-06
-9.9741e-07
-1.9648e-06
-1.01315e-06
-1.46409e-06
-1.01922e-06
-9.51579e-07
-1.02625e-06
-4.09985e-07
-1.06048e-06
1.86237e-07
-1.15795e-06
8.27646e-07
-1.23841e-06
1.40212e-06
-1.12482e-06
1.92766e-06
-1.03155e-06
2.44493e-06
-9.94979e-07
2.96468e-06
-9.7523e-07
3.49164e-06
-9.70385e-07
4.03507e-06
-9.58855e-07
4.54982e-06
-8.54867e-07
4.9699e-06
-6.28195e-07
5.27227e-06
-2.99953e-07
5.40632e-06
1.29147e-07
5.34272e-06
6.29959e-07
5.05972e-06
1.08263e-06
4.48754e-06
1.383e-06
3.80153e-06
1.42844e-06
3.12305e-06
1.23647e-06
2.4183e-06
9.71606e-07
1.99053e-06
2.87416e-07
1.89542e-06
-4.02924e-07
1.72078e-06
-2.76984e-07
1.29991e-06
2.6848e-07
7.57018e-07
6.59878e-07
2.18334e-07
8.18275e-07
-2.44562e-07
8.08632e-07
-6.26295e-07
7.19478e-07
-9.36726e-07
6.03418e-07
-1.18765e-06
4.88824e-07
-1.39384e-06
3.90575e-07
-1.57027e-06
3.15994e-07
-1.73143e-06
2.66977e-07
-1.88866e-06
2.42217e-07
-2.053e-06
2.41965e-07
-2.23666e-06
2.68681e-07
-2.44987e-06
3.21614e-07
-2.70243e-06
4.02113e-07
-3.00341e-06
5.1085e-07
-3.36005e-06
6.46113e-07
-3.7765e-06
8.02089e-07
-4.25285e-06
9.68171e-07
-4.78412e-06
1.13042e-06
-5.36021e-06
1.27345e-06
-5.97026e-06
1.38256e-06
-6.60082e-06
1.45087e-06
-7.23742e-06
1.47616e-06
-7.86493e-06
1.45911e-06
-8.46786e-06
1.40229e-06
-9.03121e-06
1.30923e-06
-9.54142e-06
1.18438e-06
-9.98651e-06
1.03275e-06
-1.0356e-05
8.59521e-07
-1.06419e-05
6.70699e-07
-1.08403e-05
4.72996e-07
-1.09504e-05
2.72874e-07
-1.09713e-05
7.62851e-08
-1.09032e-05
-1.11085e-07
-1.07494e-05
-2.87963e-07
-1.05143e-05
-4.52651e-07
-1.02027e-05
-6.05963e-07
-9.81996e-06
-7.49604e-07
-9.36947e-06
-8.8596e-07
-8.85374e-06
-1.01692e-06
-8.27482e-06
-1.14323e-06
-7.63518e-06
-1.26386e-06
-6.93892e-06
-1.37571e-06
-6.19245e-06
-1.47417e-06
-5.40503e-06
-1.55378e-06
-4.58865e-06
-1.60934e-06
-3.7573e-06
-1.63687e-06
-2.92606e-06
-1.63443e-06
-2.11002e-06
-1.60243e-06
-1.32262e-06
-1.54332e-06
-5.74881e-07
-1.46289e-06
1.26113e-07
-1.36547e-06
7.74156e-07
-1.26049e-06
1.36683e-06
-1.14782e-06
1.90314e-06
-1.03366e-06
2.3836e-06
-9.20451e-07
2.80912e-06
-8.09496e-07
3.18072e-06
-7.01401e-07
3.49976e-06
-5.96937e-07
3.76785e-06
-4.97634e-07
3.98599e-06
-4.05063e-07
4.15414e-06
-3.19178e-07
4.27801e-06
-2.38125e-07
4.3781e-06
-1.57895e-07
4.47684e-06
-7.41696e-08
4.57676e-06
9.56282e-09
4.66563e-06
7.70033e-08
4.73294e-06
1.14278e-07
4.76993e-06
1.27669e-07
4.76122e-06
1.41933e-07
4.68492e-06
1.77498e-07
4.53964e-06
2.24035e-07
4.34911e-06
2.56447e-07
4.15032e-06
2.58639e-07
3.97002e-06
2.37383e-07
3.81454e-06
2.11122e-07
3.68105e-06
1.86088e-07
3.56871e-06
1.57916e-07
3.47994e-06
1.23107e-07
3.41629e-06
8.57228e-08
3.37646e-06
5.0221e-08
3.35768e-06
1.66673e-08
3.35439e-06
-7.93692e-09
3.36028e-06
-1.68286e-08
3.37117e-06
-1.92801e-08
3.38751e-06
-2.65857e-08
3.41446e-06
-3.23853e-08
3.46086e-06
-4.41166e-08
3.51306e-06
-5.28167e-08
3.54182e-06
-3.35192e-08
3.53679e-06
2.64602e-08
3.47682e-06
1.05428e-07
3.34166e-06
1.81694e-07
3.16283e-06
2.38944e-07
2.99984e-06
2.519e-07
2.89373e-06
1.26407e-07
2.88332e-06
-3.49795e-09
-1.42889e-07
2.94898e-06
1.62469e-07
-5.53659e-08
5.83989e-07
-3.71021e-07
1.06658e-06
-5.16109e-07
1.51764e-06
-5.14802e-07
1.8928e-06
-4.04091e-07
2.1553e-06
-2.27115e-07
2.29536e-06
-4.23088e-08
2.32492e-06
1.10548e-07
2.23725e-06
2.41486e-07
2.03443e-06
3.28423e-07
1.72302e-06
3.75909e-07
1.33082e-06
4.08346e-07
9.19751e-07
3.9442e-07
5.33043e-07
3.6276e-07
2.46617e-07
3.69791e-07
9.96798e-08
4.03173e-07
-2.35582e-08
4.58888e-07
-2.48952e-07
5.3315e-07
-5.84635e-07
6.37608e-07
-9.55195e-07
7.41287e-07
-1.31167e-06
8.03553e-07
-1.66633e-06
8.67138e-07
-2.02635e-06
9.59262e-07
-2.37091e-06
1.06673e-06
-2.67086e-06
1.15826e-06
-2.91428e-06
1.1934e-06
-3.12265e-06
1.14292e-06
-3.33852e-06
1.03602e-06
-3.59362e-06
9.55197e-07
-3.89922e-06
9.32897e-07
-4.25032e-06
9.14915e-07
-4.63687e-06
8.65259e-07
-5.04071e-06
8.12073e-07
-5.43185e-06
7.74183e-07
-5.78042e-06
7.24964e-07
-6.07053e-06
6.43005e-07
-6.30294e-06
5.41858e-07
-6.48206e-06
4.35713e-07
-6.60814e-06
3.23554e-07
-6.68056e-06
2.03513e-07
-6.7004e-06
7.81158e-08
-6.67476e-06
-4.71965e-08
-6.60803e-06
-1.72921e-07
-6.49845e-06
-3.0069e-07
-6.34799e-06
-4.26739e-07
-6.16094e-06
-5.48382e-07
-5.94198e-06
-6.64107e-07
-5.69504e-06
-7.73236e-07
-5.42334e-06
-8.7538e-07
-5.1299e-06
-9.70474e-07
-4.81788e-06
-1.05866e-06
-4.49011e-06
-1.14016e-06
-4.14798e-06
-1.21509e-06
-3.79078e-06
-1.28305e-06
-3.41521e-06
-1.34362e-06
-3.01617e-06
-1.39645e-06
-2.58802e-06
-1.4413e-06
-2.12723e-06
-1.48e-06
-1.62808e-06
-1.5254e-06
-1.08321e-06
-1.60534e-06
-5.07807e-07
-1.73336e-06
6.26337e-08
-1.80885e-06
5.6141e-07
-1.6236e-06
1.00371e-06
-1.47385e-06
1.4749e-06
-1.46618e-06
1.98576e-06
-1.48608e-06
2.54782e-06
-1.53245e-06
3.14993e-06
-1.56097e-06
3.75891e-06
-1.46384e-06
4.32135e-06
-1.19064e-06
4.77788e-06
-7.56475e-07
5.05392e-06
-1.46895e-07
5.13864e-06
5.45236e-07
5.0484e-06
1.17287e-06
4.77758e-06
1.65382e-06
4.36493e-06
1.84109e-06
3.77416e-06
1.82724e-06
3.09299e-06
1.65278e-06
2.52044e-06
8.59964e-07
1.90219e-06
2.15322e-07
1.15774e-06
4.6747e-07
4.3934e-07
9.86881e-07
-1.32613e-07
1.23183e-06
-5.45024e-07
1.23069e-06
-8.44932e-07
1.10854e-06
-1.06905e-06
9.43594e-07
-1.24497e-06
7.7934e-07
-1.39429e-06
6.38141e-07
-1.53314e-06
5.29426e-07
-1.67273e-06
4.55586e-07
-1.82141e-06
4.15657e-07
-1.98687e-06
4.0768e-07
-2.17494e-06
4.30035e-07
-2.3888e-06
4.82533e-07
-2.63213e-06
5.64945e-07
-2.90761e-06
6.77594e-07
-3.21696e-06
8.20207e-07
-3.5613e-06
9.90449e-07
-3.94158e-06
1.18237e-06
-4.35932e-06
1.38591e-06
-4.8166e-06
1.5877e-06
-5.31596e-06
1.77281e-06
-5.86028e-06
1.92689e-06
-6.44778e-06
2.03838e-06
-7.06949e-06
2.09787e-06
-7.70857e-06
2.09819e-06
-8.34272e-06
2.03644e-06
-8.94816e-06
1.91467e-06
-9.50254e-06
1.73877e-06
-9.98689e-06
1.51709e-06
-1.03863e-05
1.2589e-06
-1.06908e-05
9.75241e-07
-1.08954e-05
6.7759e-07
-1.09991e-05
3.76581e-07
-1.10011e-05
7.82493e-08
-1.0913e-05
-1.99125e-07
-1.07415e-05
-4.59476e-07
-1.04926e-05
-7.01605e-07
-1.01724e-05
-9.26113e-07
-9.78586e-06
-1.13616e-06
-9.33604e-06
-1.33578e-06
-8.82467e-06
-1.52829e-06
-8.25268e-06
-1.71522e-06
-7.62143e-06
-1.89511e-06
-6.9339e-06
-2.06324e-06
-6.19569e-06
-2.21237e-06
-5.41557e-06
-2.33391e-06
-4.60541e-06
-2.41949e-06
-3.77915e-06
-2.46312e-06
-2.95169e-06
-2.46189e-06
-2.13757e-06
-2.41655e-06
-1.35017e-06
-2.33071e-06
-6.00417e-07
-2.21265e-06
1.04699e-07
-2.07059e-06
7.61463e-07
-1.91726e-06
1.36675e-06
-1.75311e-06
1.92089e-06
-1.5878e-06
2.4257e-06
-1.42525e-06
2.88304e-06
-1.26684e-06
3.29317e-06
-1.11153e-06
3.65347e-06
-9.57236e-07
3.95901e-06
-8.03183e-07
4.20572e-06
-6.51768e-07
4.3942e-06
-5.07659e-07
4.53091e-06
-3.74832e-07
4.62784e-06
-2.54824e-07
4.70145e-06
-1.47784e-07
4.76758e-06
-5.65686e-08
4.83538e-06
9.20247e-09
4.90615e-06
4.35058e-08
4.97845e-06
5.53785e-08
5.04951e-06
7.08654e-08
5.11175e-06
1.15261e-07
5.14225e-06
1.93533e-07
5.11091e-06
2.87789e-07
4.99937e-06
3.70175e-07
4.81837e-06
4.1839e-07
4.60487e-06
4.24615e-07
4.3978e-06
3.93164e-07
4.22093e-06
3.34786e-07
4.08122e-06
2.62819e-07
3.97645e-06
1.90485e-07
3.90115e-06
1.25523e-07
3.8499e-06
6.79226e-08
3.81801e-06
2.39455e-08
3.79662e-06
4.56709e-09
3.77426e-06
3.07849e-09
3.74984e-06
-2.167e-09
3.73734e-06
-1.98831e-08
3.74595e-06
-5.2731e-08
3.7715e-06
-7.83684e-08
3.7953e-06
-5.73144e-08
3.79262e-06
2.91406e-08
3.73175e-06
1.663e-07
3.60162e-06
3.11824e-07
3.43187e-06
4.08689e-07
3.2847e-06
3.99077e-07
3.21855e-06
1.9255e-07
3.26935e-06
-5.42917e-08
-2.39593e-07
3.36605e-06
3.56192e-07
-4.11558e-07
9.69216e-07
-9.84045e-07
1.52673e-06
-1.07363e-06
1.97438e-06
-9.6245e-07
2.31367e-06
-7.43377e-07
2.55991e-06
-4.73356e-07
2.74388e-06
-2.26281e-07
2.87811e-06
-2.36775e-08
2.93053e-06
1.89063e-07
2.8855e-06
3.73451e-07
2.74357e-06
5.17843e-07
2.49729e-06
6.54619e-07
2.1321e-06
7.59611e-07
1.68318e-06
8.11682e-07
1.29126e-06
7.61713e-07
1.02999e-06
6.64443e-07
7.42237e-07
7.46638e-07
2.9768e-07
9.77706e-07
-2.04092e-07
1.13938e-06
-6.24653e-07
1.16185e-06
-9.74861e-07
1.15376e-06
-1.31001e-06
1.20229e-06
-1.64893e-06
1.29818e-06
-1.98076e-06
1.39856e-06
-2.29416e-06
1.47166e-06
-2.59667e-06
1.49591e-06
-2.92244e-06
1.46868e-06
-3.31083e-06
1.42442e-06
-3.76199e-06
1.40635e-06
-4.233e-06
1.40391e-06
-4.68414e-06
1.36605e-06
-5.1016e-06
1.28273e-06
-5.47325e-06
1.18372e-06
-5.7792e-06
1.08013e-06
-6.01649e-06
9.62257e-07
-6.20385e-06
8.30362e-07
-6.3546e-06
6.92608e-07
-6.46958e-06
5.50694e-07
-6.54867e-06
4.02649e-07
-6.59411e-06
2.4895e-07
-6.60855e-06
9.25592e-08
-6.58364e-06
-7.21114e-08
-6.51315e-06
-2.4341e-07
-6.40175e-06
-4.12088e-07
-6.25083e-06
-5.77665e-07
-6.06102e-06
-7.38185e-07
-5.83375e-06
-8.91382e-07
-5.57183e-06
-1.03516e-06
-5.2796e-06
-1.16761e-06
-4.96292e-06
-1.28715e-06
-4.62867e-06
-1.39291e-06
-4.28403e-06
-1.4848e-06
-3.93544e-06
-1.56369e-06
-3.58638e-06
-1.6321e-06
-3.23595e-06
-1.69405e-06
-2.87856e-06
-1.75385e-06
-2.5038e-06
-1.81605e-06
-2.10064e-06
-1.88316e-06
-1.66431e-06
-1.96173e-06
-1.21172e-06
-2.05793e-06
-7.80655e-07
-2.16442e-06
-3.67722e-07
-2.22178e-06
3.69822e-08
-2.02831e-06
4.0254e-07
-1.83941e-06
8.28138e-07
-1.89177e-06
1.30716e-06
-1.9651e-06
1.86739e-06
-2.09269e-06
2.49517e-06
-2.18874e-06
3.16667e-06
-2.13534e-06
3.82937e-06
-1.85334e-06
4.37421e-06
-1.30132e-06
4.69301e-06
-4.65687e-07
4.74635e-06
4.9189e-07
4.61443e-06
1.30479e-06
4.33909e-06
1.92916e-06
3.95438e-06
2.2258e-06
3.46534e-06
2.31628e-06
2.9169e-06
2.20122e-06
2.30027e-06
1.47659e-06
1.48894e-06
1.02665e-06
6.43406e-07
1.31301e-06
4.75484e-09
1.62553e-06
-3.91915e-07
1.6285e-06
-6.28111e-07
1.46688e-06
-7.71145e-07
1.25157e-06
-8.69356e-07
1.04181e-06
-9.53346e-07
8.63329e-07
-1.04031e-06
7.25103e-07
-1.13959e-06
6.28707e-07
-1.25632e-06
5.72314e-07
-1.3936e-06
5.52944e-07
-1.5541e-06
5.68179e-07
-1.74044e-06
6.16376e-07
-1.95463e-06
6.96724e-07
-2.19843e-06
8.08742e-07
-2.47311e-06
9.52277e-07
-2.77996e-06
1.12706e-06
-3.12136e-06
1.33185e-06
-3.50191e-06
1.56292e-06
-3.92874e-06
1.81273e-06
-4.41048e-06
2.06945e-06
-4.95528e-06
2.31761e-06
-5.56756e-06
2.53917e-06
-6.24172e-06
2.71254e-06
-6.95642e-06
2.81256e-06
-7.67645e-06
2.81823e-06
-8.36386e-06
2.72385e-06
-8.98756e-06
2.53836e-06
-9.52711e-06
2.27832e-06
-9.9722e-06
1.96218e-06
-1.03187e-05
1.60543e-06
-1.05651e-05
1.22166e-06
-1.07113e-05
8.2377e-07
-1.07597e-05
4.2492e-07
-1.07123e-05
3.08588e-08
-1.05852e-05
-3.26162e-07
-1.03812e-05
-6.63481e-07
-1.01085e-05
-9.74363e-07
-9.77377e-06
-1.26082e-06
-9.38151e-06
-1.52842e-06
-8.93382e-06
-1.78347e-06
-8.43109e-06
-2.03101e-06
-7.87279e-06
-2.27352e-06
-7.25886e-06
-2.50904e-06
-6.59141e-06
-2.7307e-06
-5.87576e-06
-2.92802e-06
-5.12109e-06