/*--------------------------------*- C++ -*----------------------------------*\
  =========                 |
  \\      /  F ield         | OpenFOAM: The Open Source CFD Toolbox
   \\    /   O peration     | Website:  https://openfoam.org
    \\  /    A nd           | Version:  9
     \\/     M anipulation  |
\*---------------------------------------------------------------------------*/
FoamFile
{
    format      ascii;
    class       volScalarField;
    location    "0.082";
    object      pMean;
}
// * * * * * * * * * * * * * * * * * * * * * * * * * * * * * * * * * * * * * //

dimensions      [0 2 -2 0 0 0 0];

internalField   nonuniform List<scalar> 
12225
(
-2.73128
-3.30595
-3.61461
-3.73613
-3.7923
-3.83527
-3.87454
-3.90609
-3.92519
-3.92877
-3.91627
-3.88626
-3.84055
-3.77734
-3.70661
-3.63729
-3.61615
-3.72575
-2.96915
-3.33635
-3.61675
-3.74611
-3.80383
-3.8452
-3.88364
-3.91532
-3.93521
-3.93994
-3.92948
-3.90219
-3.86122
-3.80376
-3.74404
-3.6844
-3.68398
-3.80916
-3.02057
-3.34061
-3.60882
-3.749
-3.8121
-3.85326
-3.89115
-3.92354
-3.9448
-3.95192
-3.94454
-3.92337
-3.88982
-3.84759
-3.804
-3.77867
-3.80619
-3.95081
-3.17108
-3.39106
-3.61969
-3.76114
-3.82853
-3.86869
-3.9048
-3.93705
-3.95995
-3.96978
-3.96679
-3.95166
-3.92785
-3.89931
-3.87606
-3.87559
-3.92468
-4.0555
-3.26051
-3.42561
-3.62302
-3.7642
-3.83863
-3.88104
-3.91647
-3.94882
-3.97346
-3.98686
-3.98882
-3.98114
-3.96737
-3.95282
-3.94719
-3.96499
-4.02382
-4.13776
-3.35701
-3.47904
-3.64448
-3.77801
-3.85636
-3.90099
-3.9359
-3.96803
-3.99419
-4.0109
-4.01792
-4.01747
-4.01349
-4.01178
-4.02072
-4.05124
-4.1145
-4.21795
-3.44918
-3.53241
-3.66521
-3.78817
-3.86913
-3.91744
-3.95312
-3.9855
-4.01374
-4.03473
-4.04789
-4.05537
-4.06134
-4.07136
-4.09242
-4.13248
-4.19903
-4.29679
-3.51759
-3.58521
-3.6969
-3.80727
-3.88767
-3.93942
-3.97687
-4.00958
-4.03915
-4.06374
-4.08271
-4.09786
-4.11305
-4.13328
-4.16431
-4.21196
-4.2815
-4.37558
-3.59006
-3.64375
-3.73221
-3.82793
-3.90582
-3.96054
-4.00055
-4.03492
-4.06674
-4.09537
-4.12023
-4.14287
-4.16671
-4.19606
-4.23561
-4.28965
-4.36181
-4.45358
-3.64314
-3.69608
-3.77245
-3.85454
-3.9279
-3.98484
-4.02785
-4.06397
-4.09793
-4.13039
-4.16107
-4.19096
-4.22286
-4.26039
-4.3074
-4.36705
-4.44172
-4.53217
-3.72364
-3.75879
-3.81734
-3.88815
-3.95657
-4.01292
-4.05764
-4.09646
-4.13356
-4.17011
-4.2061
-4.24252
-4.28166
-4.32641
-4.37968
-4.44375
-4.52041
-4.6102
-3.79463
-3.8057
-3.85016
-3.91503
-3.98116
-4.03818
-4.08552
-4.12734
-4.16752
-4.20781
-4.24875
-4.29102
-4.33634
-4.38706
-4.44549
-4.51355
-4.5922
-4.68181
-3.87356
-3.86526
-3.89821
-3.95485
-4.01545
-4.07023
-4.11826
-4.16248
-4.20582
-4.24977
-4.29499
-4.34232
-4.39315
-4.44918
-4.51211
-4.5832
-4.66338
-4.75289
-3.88876
-3.90709
-3.94266
-3.9915
-4.0469
-4.10214
-4.15376
-4.20201
-4.24923
-4.29746
-4.34773
-4.40069
-4.45731
-4.51878
-4.5863
-4.66086
-4.74303
-4.83289
-3.94682
-3.97754
-4.01036
-4.04854
-4.09541
-4.14781
-4.20069
-4.25225
-4.30354
-4.35626
-4.41148
-4.46986
-4.53204
-4.59874
-4.67065
-4.74832
-4.83206
-4.92187
-4.03499
-4.04146
-4.06084
-4.09546
-4.14364
-4.19871
-4.25465
-4.30967
-4.36501
-4.42236
-4.48277
-4.54662
-4.61416
-4.68572
-4.7617
-4.84237
-4.92792
-5.01827
-4.19203
-4.14238
-4.12933
-4.15614
-4.20479
-4.25981
-4.31575
-4.37307
-4.433
-4.49598
-4.56206
-4.6313
-4.7039
-4.77996
-4.85964
-4.94293
-5.03001
-5.12056
-4.20675
-4.1829
-4.18503
-4.21619
-4.26536
-4.32201
-4.38151
-4.44314
-4.50742
-4.57473
-4.64522
-4.71888
-4.79563
-4.87534
-4.95795
-5.04339
-5.13155
-5.22221
-4.11885
-4.15753
-4.2077
-4.26067
-4.31599
-4.37553
-4.43997
-4.50848
-4.57994
-4.65381
-4.73013
-4.80893
-4.89009
-4.97346
-5.05891
-5.1463
-5.23547
-5.32626
-4.22641
-4.23466
-4.2593
-4.30167
-4.35717
-4.42069
-4.48907
-4.56065
-4.63465
-4.71087
-4.78946
-4.87048
-4.95371
-5.03873
-5.12527
-5.21319
-5.30234
-5.39249
-4.15084
-4.17984
-4.23085
-4.29453
-4.36442
-4.4365
-4.50997
-4.58544
-4.66323
-4.7432
-4.82515
-4.90889
-4.99415
-5.08066
-5.16813
-5.2564
-5.34538
-5.43494
-4.19119
-4.19703
-4.23455
-4.29672
-4.36996
-4.44655
-4.52343
-4.60077
-4.67988
-4.76149
-4.84518
-4.93032
-5.01652
-5.10356
-5.19135
-5.27977
-5.3687
-5.45786
-4.08519
-4.14088
-4.21198
-4.29064
-4.37202
-4.45241
-4.53162
-4.61141
-4.6933
-4.77728
-4.86278
-4.94918
-5.03621
-5.12376
-5.21175
-5.30007
-5.38856
-5.47716
-4.02848
-4.08862
-4.17545
-4.27045
-4.3616
-4.4458
-4.52649
-4.60804
-4.69212
-4.77831
-4.86548
-4.95296
-5.04067
-5.12868
-5.21696
-5.30538
-5.39377
-5.48182
-4.08172
-4.08758
-4.16234
-4.26968
-4.3698
-4.45499
-4.5345
-4.61623
-4.70157
-4.78882
-4.87644
-4.96404
-5.0517
-5.13954
-5.22755
-5.31559
-5.40345
-5.49104
-3.89564
-3.99915
-4.12965
-4.253
-4.35443
-4.43978
-4.5216
-4.60649
-4.69453
-4.78358
-4.87234
-4.96064
-5.0488
-5.13708
-5.22541
-5.31362
-5.40148
-5.48885
-3.82889
-3.98368
-4.1402
-4.26455
-4.35941
-4.44158
-4.5241
-4.61075
-4.6997
-4.78871
-4.87711
-4.96516
-5.05321
-5.14134
-5.22941
-5.31718
-5.40449
-5.49113
-3.73327
-3.91464
-4.11113
-4.25185
-4.34658
-4.42832
-4.51355
-4.60311
-4.69363
-4.78328
-4.87206
-4.96046
-5.04882
-5.13712
-5.22522
-5.31293
-5.40016
-5.48702
-3.74167
-3.92351
-4.12287
-4.25713
-4.34692
-4.42811
-4.51424
-4.60429
-4.69474
-4.78418
-4.87284
-4.96124
-5.04966
-5.13796
-5.22601
-5.31339
-5.40012
-5.48589
-3.4801
-3.88241
-4.1256
-4.2508
-4.33739
-4.42083
-4.50903
-4.6
-4.69079
-4.78035
-4.8691
-4.95759
-5.04611
-5.13447
-5.22255
-5.30978
-5.39621
-5.48091
-8.49093
-8.70533
-8.92504
-9.00379
-8.89169
-8.64556
-8.39886
-8.29135
-8.40256
-8.73331
-9.24136
-9.85846
-10.5086
-11.1266
-11.6695
-12.1167
-12.4593
-12.69
-12.8074
-12.8205
-12.7501
-12.6023
-12.3924
-12.145
-11.8996
-11.6994
-11.5934
-11.5879
-11.6442
-11.7227
-11.8162
-11.9422
-12.1107
-12.2891
-12.4376
-12.5436
-12.6079
-12.7132
-12.9397
-13.2437
-13.5044
-13.6815
-13.8247
-14.006
-14.3176
-14.6956
-15.0506
-15.3705
-15.5861
-15.7158
-15.9092
-16.124
-16.3247
-16.5219
-16.7056
-16.8413
-16.9031
-17.019
-17.257
-17.5991
-17.9882
-18.4084
-18.7231
-19.0089
-19.4048
-19.9489
-20.5786
-21.2486
-21.901
-22.4951
-23.0017
-23.4206
-23.7807
-24.1586
-24.6105
-25.1157
-25.6099
-26.0247
-26.3151
-26.4813
-26.5454
-26.5358
-26.4403
-26.2734
-26.005
-25.6996
-25.2547
-24.7229
-24.2398
-24.1282
-24.3917
-24.7559
-25.0224
-25.0899
-24.9075
-24.4585
-23.7414
-22.7644
-21.5395
-20.0827
-18.4135
-16.5555
-14.5362
-12.3867
-10.1407
-7.83325
-5.4994
-3.17225
-0.882131
1.34424
3.48381
5.51739
7.43144
9.21972
10.881
12.4167
13.8277
15.1135
16.2725
17.3022
18.2002
18.9649
19.5964
20.097
20.4706
20.723
20.8612
20.8943
20.8322
20.686
20.4671
20.1877
19.8596
19.4945
19.1036
18.6981
18.2869
17.8786
17.4805
17.0987
16.7385
16.4038
16.0975
15.822
15.5787
15.3683
15.191
15.0464
14.9344
14.8547
14.8066
14.7888
14.7992
14.8345
14.8897
14.957
15.0262
15.0855
15.1238
15.1368
15.1331
15.1346
15.1542
15.1741
15.1874
15.2023
15.2063
15.1969
15.1851
15.181
15.1845
15.1945
15.2148
15.2496
15.2955
15.3444
15.4009
15.4683
15.565
15.6619
-9.42839
-9.63229
-9.837
-9.96726
-9.89929
-9.73579
-9.59629
-9.59632
-9.78801
-10.1536
-10.643
-11.1939
-11.7486
-12.2625
-12.7074
-13.0674
-13.3374
-13.5153
-13.5997
-13.6023
-13.5212
-13.377
-13.1962
-12.9838
-12.7541
-12.5697
-12.4429
-12.3968
-12.4015
-12.458
-12.6349
-12.8991
-13.1947
-13.4674
-13.6805
-13.8459
-13.9779
-14.1093
-14.2941
-14.5511
-14.7959
-14.9628
-15.0716
-15.1818
-15.4136
-15.7106
-16.0514
-16.4831
-16.7622
-16.9532
-17.193
-17.4277
-17.6226
-17.7728
-17.8727
-17.9792
-18.0498
-18.1416
-18.3286
-18.5914
-18.8776
-19.2496
-19.648
-20.0388
-20.5494
-21.1681
-21.8551
-22.5592
-23.2262
-23.8124
-24.2882
-24.6685
-24.9937
-25.3301
-25.73
-26.1779
-26.6252
-27.0081
-27.2714
-27.4065
-27.4249
-27.3577
-27.2014
-26.9655
-26.6563
-26.3215
-25.9966
-25.6931
-25.4499
-25.4469
-25.6731
-25.915
-26.0451
-25.981
-25.6877
-25.1489
-24.3617
-23.3296
-22.062
-20.5717
-18.8751
-16.9931
-14.952
-12.7822
-10.5171
-8.19105
-5.83824
-3.4911
-1.17948
1.06993
3.23343
5.2905
7.22606
9.03267
10.7091
12.2571
13.6784
14.9737
16.1416
17.1799
18.0861
18.8584
19.4968
20.0042
20.3841
20.6424
20.7863
20.8246
20.7672
20.6253
20.4103
20.1341
19.8088
19.446
19.0569
18.6525
18.2422
17.8343
17.4364
17.0546
16.6941
16.359
16.0524
15.7764
15.5324
15.3209
15.142
14.9957
14.8816
14.7993
14.7477
14.7251
14.7289
14.755
14.7978
14.8493
14.9006
14.943
14.9706
14.9857
15.0013
15.0349
15.0794
15.098
15.0995
15.1115
15.116
15.1082
15.1011
15.1032
15.1123
15.1262
15.1478
15.1798
15.2225
15.2708
15.3369
15.4067
15.501
15.5517
-9.13485
-9.23905
-9.50559
-9.87269
-10.2336
-10.5578
-10.8794
-11.2446
-11.6801
-12.1735
-12.6865
-13.1853
-13.6417
-14.0382
-14.362
-14.6061
-14.77
-14.8576
-14.8786
-14.8469
-14.7629
-14.6282
-14.457
-14.2658
-14.0629
-13.8816
-13.7287
-13.6193
-13.5803
-13.6224
-13.7579
-13.9718
-14.2359
-14.5124
-14.7708
-14.9875
-15.2016
-15.4538
-15.7318
-16.0157
-16.234
-16.3558
-16.3797
-16.4492
-16.6651
-16.9762
-17.3174
-17.7335
-18.1485
-18.505
-18.8113
-19.0436
-19.1908
-19.2765
-19.3434
-19.402
-19.4669
-19.5551
-19.6738
-19.8409
-20.0928
-20.4554
-20.9519
-21.5469
-22.234
-22.9844
-23.7624
-24.5184
-25.1987
-25.7597
-26.1826
-26.5014
-26.772
-27.057
-27.3907
-27.7533
-28.1074
-28.4094
-28.6099
-28.6862
-28.6352
-28.4787
-28.2357
-27.9397
-27.6399
-27.3965
-27.2769
-27.2354
-27.2592
-27.3434
-27.4526
-27.5093
-27.4569
-27.2412
-26.8301
-26.2012
-25.3459
-24.2618
-22.9534
-21.4294
-19.7035
-17.7944
-15.7263
-13.5282
-11.2323
-8.87334
-6.48624
-4.10368
-1.75513
0.532883
2.73612
4.83252
6.80466
8.64325
10.347
11.9185
13.361
14.6759
15.8626
16.9186
17.8416
18.6293
19.2826
19.8038
20.1969
20.4678
20.6237
20.6732
20.6262
20.4936
20.2869
20.018
19.6989
19.3413
18.9568
18.5562
18.1491
17.7439
17.3481
16.968
16.6088
16.2743
15.9679
15.6916
15.4469
15.2342
15.0539
14.9056
14.7891
14.7034
14.6474
14.6192
14.6159
14.6338
14.6675
14.7103
14.7541
14.7915
14.8184
14.8366
14.8536
14.8773
14.9072
14.9374
14.9662
14.9869
14.9877
14.9759
14.9695
14.9766
14.9934
15.0168
15.0481
15.0866
15.1344
15.1826
15.2449
15.3018
15.3849
15.4154
-9.07512
-9.19665
-9.58032
-10.1498
-10.8184
-11.5098
-12.1755
-12.8134
-13.4241
-13.9989
-14.5218
-14.9795
-15.3607
-15.6602
-15.8816
-16.0364
-16.1342
-16.1815
-16.1903
-16.1603
-16.0958
-15.9981
-15.8706
-15.7242
-15.5743
-15.4261
-15.2915
-15.1736
-15.0833
-15.0331
-15.0367
-15.1029
-15.2317
-15.4062
-15.6045
-15.8287
-16.1121
-16.4776
-16.8907
-17.2706
-17.5542
-17.7367
-17.8224
-17.9204
-18.1272
-18.4521
-18.8532
-19.281
-19.6898
-20.0494
-20.3401
-20.5607
-20.7169
-20.8324
-20.9372
-21.0261
-21.0972
-21.1572
-21.23
-21.3611
-21.6208
-22.0662
-22.6789
-23.407
-24.2183
-25.0776
-25.9434
-26.7611
-27.4706
-28.0226
-28.405
-28.6594
-28.8619
-29.0796
-29.3448
-29.6541
-29.9495
-30.1676
-30.2705
-30.2537
-30.1148
-29.881
-29.5983
-29.3164
-29.0753
-28.9779
-29.0164
-29.1352
-29.2545
-29.344
-29.3798
-29.3265
-29.1539
-28.826
-28.3168
-27.6056
-26.6823
-25.5425
-24.1874
-22.6226
-20.8592
-18.914
-16.8105
-14.5767
-12.2435
-9.84541
-7.41748
-4.99264
-2.59954
-0.263169
1.99259
4.1436
6.16776
8.05274
9.79664
11.4033
12.8778
14.2228
15.4378
16.5207
17.4687
18.28
18.9553
19.4973
19.9103
20.2
20.3739
20.4403
20.4089
20.2906
20.0966
19.8388
19.5293
19.1799
18.8023
18.4074
18.0049
17.6036
17.211
16.8334
16.4761
16.1433
15.838
15.5623
15.3177
15.1047
14.9235
14.7739
14.6552
14.5665
14.5065
14.473
14.4634
14.4741
14.5002
14.5357
14.574
14.6096
14.6389
14.6629
14.6853
14.71
14.7386
14.7656
14.785
14.7958
14.8002
14.7918
14.7807
14.7833
14.801
14.8291
14.8673
14.9115
14.9667
15.0243
15.0982
15.1597
15.2353
15.2487
-9.31365
-9.59058
-10.1819
-10.9602
-11.8031
-12.6375
-13.4294
-14.1678
-14.8437
-15.4554
-16.0026
-16.4743
-16.86
-17.1583
-17.3752
-17.524
-17.6194
-17.6744
-17.6986
-17.6956
-17.6668
-17.6131
-17.5416
-17.4589
-17.3713
-17.2838
-17.1967
-17.1067
-17.0092
-16.9026
-16.7947
-16.7044
-16.6565
-16.669
-16.7535
-16.9241
-17.2027
-17.5878
-18.0223
-18.4323
-18.7631
-19.0202
-19.228
-19.4413
-19.7112
-20.064
-20.4859
-20.9351
-21.3764
-21.7812
-22.1211
-22.383
-22.5668
-22.6977
-22.8051
-22.8886
-22.9473
-22.9928
-23.0607
-23.209
-23.5275
-24.0445
-24.7068
-25.4685
-26.3044
-27.184
-28.0653
-28.8936
-29.6101
-30.1615
-30.5278
-30.7439
-30.8804
-31.0118
-31.1878
-31.4157
-31.6492
-31.8159
-31.8673
-31.7937
-31.6052
-31.3437
-31.0731
-30.8553
-30.7446
-30.7887
-30.9477
-31.1321
-31.2809
-31.3739
-31.3859
-31.2874
-31.0524
-30.6533
-30.0705
-29.2889
-28.3017
-27.1056
-25.7008
-24.0911
-22.286
-20.3017
-18.1604
-15.8888
-13.5166
-11.0772
-8.60621
-6.13651
-3.6958
-1.30663
1.00898
3.22484
5.3133
7.25764
9.05481
10.7098
12.2282
13.6139
14.8673
15.9861
16.9671
17.8091
18.5131
19.0821
19.5208
19.8353
20.033
20.1219
20.1116
20.0123
19.8353
19.5921
19.295
18.9562
18.5873
18.1995
17.803
17.4068
17.0187
16.6449
16.2908
15.9607
15.6576
15.3837
15.1404
14.9286
14.7482
14.599
14.4799
14.3898
14.3269
14.2892
14.2741
14.2783
14.2975
14.3265
14.3602
14.3938
14.4245
14.4521
14.4788
14.5073
14.539
14.5699
14.5914
14.6024
14.6053
14.5951
14.5767
14.5644
14.5702
14.5957
14.6375
14.6885
14.7519
14.8187
14.8994
14.9684
15.0437
15.0582
-9.89927
-10.3601
-11.1417
-11.999
-12.8876
-13.7486
-14.547
-15.309
-16.0306
-16.7049
-17.3234
-17.8686
-18.3281
-18.6965
-18.9796
-19.1907
-19.3435
-19.451
-19.5258
-19.5765
-19.6065
-19.6184
-19.6158
-19.6006
-19.5762
-19.5439
-19.5016
-19.4421
-19.3553
-19.2328
-19.075
-18.898
-18.735
-18.6273
-18.6069
-18.704
-18.927
-19.2621
-19.6571
-20.0586
-20.4264
-20.7515
-21.0521
-21.3551
-21.689
-22.0766
-22.5151
-22.9797
-23.4396
-23.8634
-24.2253
-24.5134
-24.7165
-24.8444
-24.926
-24.9785
-25.0137
-25.0499
-25.1248
-25.3161
-25.7001
-26.2486
-26.8994
-27.6148
-28.3773
-29.1655
-29.9538
-30.7062
-31.376
-31.9105
-32.2702
-32.4633
-32.5359
-32.5607
-32.6186
-32.7424
-32.8933
-33.0087
-33.0383
-32.9613
-32.7899
-32.5866
-32.4115
-32.3216
-32.3672
-32.5509
-32.807
-33.0502
-33.2464
-33.3764
-33.408
-33.3117
-33.0594
-32.6267
-31.9981
-31.1653
-30.1263
-28.8804
-27.4288
-25.7751
-23.9294
-21.9077
-19.731
-17.4243
-15.0146
-12.5333
-10.0161
-7.49736
-5.00511
-2.56014
-0.182238
2.10136
4.26119
6.27595
8.13967
9.85521
11.4287
12.8655
14.1669
15.3296
16.3506
17.2292
17.9673
18.5686
19.0385
19.3834
19.6103
19.727
19.7424
19.6663
19.5096
19.2837
19.0009
18.6735
18.3141
17.9342
17.5444
17.1537
16.7703
16.4007
16.0505
15.7238
15.424
15.1532
14.913
14.7041
14.5263
14.379
14.2614
14.1719
14.1087
14.0692
14.0504
14.0492
14.0617
14.0838
14.1114
14.1414
14.1714
14.2011
14.2316
14.2647
14.3012
14.3383
14.3692
14.3906
14.4007
14.3958
14.3782
14.3583
14.348
14.357
14.3908
14.4396
14.5022
14.5715
14.6559
14.7321
14.8103
14.8295
-11.0603
-11.5445
-12.2726
-13.042
-13.8359
-14.6411
-15.4356
-16.2162
-16.9717
-17.7061
-18.404
-19.0455
-19.6141
-20.1006
-20.5053
-20.8373
-21.1081
-21.3314
-21.5205
-21.6824
-21.8193
-21.9325
-22.0224
-22.0892
-22.1332
-22.1544
-22.1512
-22.1186
-22.049
-21.9346
-21.7717
-21.5704
-21.3602
-21.1908
-21.107
-21.1516
-21.3254
-21.6064
-21.9623
-22.3561
-22.7516
-23.1324
-23.4996
-23.8634
-24.2393
-24.6391
-25.0642
-25.5021
-25.9275
-26.3187
-26.6591
-26.9362
-27.1201
-27.2018
-27.2164
-27.2036
-27.1915
-27.204
-27.2899
-27.5316
-27.9615
-28.5051
-29.1002
-29.7223
-30.3601
-30.9991
-31.6267
-32.2265
-32.7701
-33.2169
-33.5261
-33.6772
-33.6913
-33.6258
-33.5638
-33.5596
-33.6101
-33.6751
-33.7081
-33.6802
-33.5989
-33.5224
-33.504
-33.5911
-33.8092
-34.1293
-34.4776
-34.7966
-35.0663
-35.2624
-35.3496
-35.2961
-35.0677
-34.6387
-33.9953
-33.1347
-32.062
-30.781
-29.2948
-27.6067
-25.7264
-23.6717
-21.4656
-19.1309
-16.6892
-14.1671
-11.6002
-9.02562
-6.47477
-3.97099
-1.53374
0.814695
3.04803
5.1404
7.07867
8.86308
10.5005
11.9975
13.3536
14.5656
15.6311
16.5503
17.3265
17.9644
18.4704
18.8506
19.1119
19.2612
19.3065
19.2568
19.1224
18.9148
18.6468
18.3314
17.9816
17.6095
17.226
16.8408
16.4621
16.0969
15.7508
15.4285
15.1331
14.8671
14.632
14.428
14.2551
14.1123
13.9985
13.9119
13.8501
13.8103
13.7892
13.7834
13.7896
13.8046
13.8261
13.8519
13.8807
13.9122
13.9466
13.9849
14.0274
14.0723
14.1153
14.1518
14.1786
14.1909
14.1864
14.1689
14.1484
14.1382
14.1503
14.1851
14.2383
14.3027
14.3836
14.4602
14.5388
14.5624
-12.1363
-12.5288
-13.0705
-13.73
-14.4627
-15.2199
-15.9969
-16.7935
-17.6057
-18.4238
-19.227
-19.9941
-20.7075
-21.3549
-21.9316
-22.4385
-22.8811
-23.2687
-23.6098
-23.9085
-24.1683
-24.3919
-24.5799
-24.7311
-24.8441
-24.9186
-24.9551
-24.9534
-24.9105
-24.8211
-24.6809
-24.4964
-24.2952
-24.1269
-24.0427
-24.0769
-24.2313
-24.4905
-24.835
-25.2352
-25.6562
-26.0777
-26.488
-26.8815
-27.2601
-27.6307
-28.0013
-28.3687
-28.7139
-29.0275
-29.3007
-29.5115
-29.6181
-29.609
-29.5286
-29.4392
-29.3778
-29.3711
-29.4698
-29.75
-30.1938
-30.6976
-31.2127
-31.7295
-32.2329
-32.7132
-33.1698
-33.5983
-33.9819
-34.2896
-34.4862
-34.5452
-34.474
-34.3149
-34.1422
-34.0188
-33.9715
-33.9856
-34.0269
-34.0708
-34.1237
-34.2167
-34.3866
-34.6648
-35.0493
-35.4898
-35.9212
-36.3162
-36.6647
-36.9384
-37.1036
-37.123
-36.9515
-36.5572
-35.9259
-35.0612
-33.9764
-32.6808
-31.1787
-29.4728
-27.5717
-25.4965
-23.2746
-20.9252
-18.462
-15.9044
-13.2874
-10.6543
-8.04435
-5.48769
-2.99908
-0.5908
1.71389
3.88305
5.89836
7.75737
9.46654
11.0293
12.4444
13.7086
14.8209
15.7832
16.6006
17.2792
17.8259
18.2467
18.5474
18.7338
18.8123
18.7908
18.6799
18.4911
18.2378
17.934
17.5933
17.2284
16.8508
16.4706
16.0966
15.736
15.3946
15.0771
14.787
14.5268
14.2978
14.1003
13.9338
13.7973
13.689
13.6066
13.5474
13.5084
13.4858
13.4763
13.4775
13.4872
13.5041
13.5273
13.5562
13.5905
13.6298
13.6744
13.724
13.7775
13.8319
13.8831
13.9282
13.9628
13.9818
13.9823
13.9674
13.9469
13.9369
13.9461
13.9785
14.027
14.0947
14.1643
14.2388
14.2634
-12.6225
-12.9228
-13.3728
-13.9599
-14.6509
-15.4072
-16.2128
-17.0627
-17.9542
-18.8749
-19.8023
-20.7162
-21.5966
-22.4261
-23.1936
-23.8934
-24.5271
-25.0991
-25.6115
-26.0653
-26.4646
-26.8136
-27.1134
-27.3616
-27.5563
-27.6991
-27.7935
-27.8432
-27.8489
-27.8075
-27.7174
-27.587
-27.4395
-27.3212
-27.2824
-27.3473
-27.5188
-27.7876
-28.1401
-28.5478
-28.9788
-29.4096
-29.8197
-30.1951
-30.5302
-30.83
-31.1117
-31.3787
-31.6166
-31.8244
-31.9933
-32.0944
-32.088
-31.9739
-31.8048
-31.6473
-31.5414
-31.5152
-31.6145
-31.9013
-32.3148
-32.7464
-33.1747
-33.5992
-33.9913
-34.3394
-34.6442
-34.9027
-35.1055
-35.2351
-35.2717
-35.1973
-35.0183
-34.7684
-34.5062
-34.296
-34.181
-34.1665
-34.23
-34.3509
-34.5318
-34.7885
-35.1419
-35.5988
-36.1259
-36.6572
-37.1476
-37.6017
-38.0186
-38.3683
-38.6213
-38.7308
-38.6349
-38.2937
-37.692
-36.8425
-35.7676
-34.4806
-32.9858
-31.2844
-29.3828
-27.3042
-25.0802
-22.7268
-20.2491
-17.6596
-14.996
-12.3144
-9.66125
-7.06611
-4.5375
-2.07619
0.292738
2.53401
4.62796
6.56707
8.3523
9.98367
11.4589
12.776
13.9357
14.9426
15.8037
16.5265
17.1181
17.5838
17.9276
18.1535
18.2667
18.2741
18.1863
18.0157
17.7764
17.4832
17.1505
16.7919
16.4195
16.044
15.6745
15.3183
14.9817
14.6692
14.3845
14.1301
13.9073
13.7163
13.5568
13.427
13.325
13.2478
13.1923
13.1548
13.1321
13.1215
13.121
13.1295
13.1465
13.1715
13.2041
13.2436
13.2896
13.3417
13.3995
13.4619
13.527
13.5913
13.6526
13.7077
13.7514
13.7778
13.7834
13.7697
13.7491
13.7364
13.7415
13.7652
13.81
13.8607
13.9211
13.9414
-12.5969
-12.84
-13.2481
-13.8124
-14.5001
-15.2787
-16.1309
-17.0522
-18.0404
-19.0818
-20.1532
-21.2317
-22.2933
-23.3153
-24.2811
-25.1819
-26.0152
-26.7797
-27.473
-28.0952
-28.6515
-29.1468
-29.5812
-29.9525
-30.2593
-30.5049
-30.6949
-30.8346
-30.9254
-30.9657
-30.9561
-30.9084
-30.8511
-30.8229
-30.8592
-30.9772
-31.1829
-31.4678
-31.8227
-32.2201
-32.6339
-33.0384
-33.4101
-33.732
-33.997
-34.2112
-34.3965
-34.5498
-34.6596
-34.7331
-34.7658
-34.7248
-34.5789
-34.3423
-34.0782
-33.8501
-33.692
-33.6302
-33.7069
-33.964
-34.3156
-34.664
-35.0081
-35.349
-35.6464
-35.8812
-36.0516
-36.1535
-36.1801
-36.1238
-35.9827
-35.7574
-35.4612
-35.1255
-34.8001
-34.5432
-34.4009
-34.388
-34.4907
-34.6872
-34.9741
-35.362
-35.8645
-36.4656
-37.1024
-37.6916
-38.2123
-38.7026
-39.1687
-39.5792
-39.9129
-40.1104
-40.0912
-39.8079
-39.2449
-38.4226
-37.3726
-36.1125
-34.6468
-32.973
-31.094
-29.0317
-26.8181
-24.4641
-21.9681
-19.3464
-16.649
-13.941
-11.2705
-8.65686
-6.10066
-3.59902
-1.17427
1.1376
3.31131
5.33141
7.19232
8.89061
10.4238
11.7916
12.9976
14.0493
14.9556
15.7249
16.3638
16.8763
17.2642
17.5291
17.6756
17.7105
17.6442
17.49
17.2629
16.9788
16.6527
16.2992
15.9311
15.5599
15.1945
14.8429
14.511
14.2034
13.9237
13.6744
13.4571
13.2718
13.1182
12.9946
12.8981
12.8257
12.7739
12.7392
12.7192
12.7121
12.7165
12.7315
12.7562
12.7894
12.8302
12.8781
12.9328
12.9938
13.0608
13.1329
13.2079
13.2833
13.3569
13.427
13.4899
13.5401
13.5715
13.5791
13.5665
13.5453
13.5302
13.5263
13.5424
13.5663
13.6032
13.6092
-12.2441
-12.4646
-12.8664
-13.4398
-14.1582
-14.9957
-15.9345
-16.9647
-18.0784
-19.26
-20.4873
-21.7354
-22.9782
-24.1904
-25.3529
-26.4539
-27.4862
-28.4428
-29.3185
-30.114
-30.8357
-31.4893
-32.0752
-32.5908
-33.0342
-33.4076
-33.7165
-33.9666
-34.1589
-34.294
-34.3768
-34.4222
-34.4561
-34.5095
-34.6103
-34.773
-35.0034
-35.2974
-35.6466
-36.0274
-36.4151
-36.7833
-37.1088
-37.3755
-37.5758
-37.7144
-37.8117
-37.8549
-37.838
-37.7739
-37.6563
-37.4563
-37.1577
-36.7871
-36.4136
-36.0993
-35.8712
-35.75
-35.774
-35.9701
-36.2411
-36.5025
-36.759
-37.0118
-37.2145
-37.3374
-37.3799
-37.3366
-37.2031
-36.9796
-36.6765
-36.3103
-35.9073
-35.5024
-35.1418
-34.8737
-34.7379
-34.7515
-34.9044
-35.1717
-35.548
-36.0406
-36.6575
-37.3618
-38.0656
-38.6713
-39.1846
-39.6797
-40.1691
-40.6164
-41.0088
-41.2747
-41.3164
-41.0827
-40.5567
-39.767
-38.7521
-37.5343
-36.115
-34.487
-32.6481
-30.6143
-28.4127
-26.0514
-23.534
-20.8891
-18.1806
-15.4764
-12.8178
-10.2084
-7.64007
-5.10799
-2.63421
-0.256566
1.99213
4.08845
6.01972
7.77936
9.36527
10.7798
12.0298
13.1252
14.0767
14.8929
15.5788
16.1362
16.565
16.8657
17.0419
17.1006
17.0525
16.9115
16.6937
16.4159
16.0947
15.7451
15.381
15.0135
14.6525
14.3053
13.9781
13.6752
13.4003
13.156
12.9434
12.7628
12.6137
12.4941
12.4015
12.3326
12.2844
12.2546
12.2419
12.2453
12.2631
12.2931
12.3332
12.381
12.4355
12.496
12.5627
12.6354
12.7134
12.7957
12.88
12.964
13.046
13.1252
13.1999
13.2666
13.3202
13.3533
13.3624
13.351
13.3304
13.3092
13.2976
13.2915
13.2987
13.2824
-11.8539
-12.0707
-12.4912
-13.106
-13.8946
-14.833
-15.8988
-17.0733
-18.3414
-19.6832
-21.0763
-22.4951
-23.9132
-25.3052
-26.65
-27.9317
-29.1376
-30.259
-31.294
-32.2471
-33.1243
-33.9282
-34.6566
-35.3045
-35.8683
-36.3489
-36.7503
-37.0779
-37.3363
-37.5332
-37.6822
-37.8036
-37.92
-38.0497
-38.2102
-38.4139
-38.6626
-38.9598
-39.2958
-39.6503
-39.998
-40.3136
-40.5791
-40.7834
-40.9198
-40.9836
-40.9811
-40.9047
-40.7627
-40.5812
-40.3541
-40.0505
-39.6585
-39.2062
-38.7532
-38.361
-38.0619
-37.8729
-37.8256
-37.9412
-38.1205
-38.2872
-38.4462
-38.5926
-38.6862
-38.6907
-38.5975
-38.4117
-38.1355
-37.7726
-37.3422
-36.8717
-36.3953
-35.9536
-35.5904
-35.3435
-35.2419
-35.297
-35.5026
-35.835
-36.2849
-36.8558
-37.549
-38.3093
-39.0358
-39.6288
-40.1115
-40.5826
-41.063
-41.5201
-41.9336
-42.2301
-42.3074
-42.1091
-41.6187
-40.8681
-39.8978
-38.7287
-37.358
-35.7739
-33.9701
-31.9604
-29.7669
-27.399
-24.8702
-22.2232
-19.5339
-16.8677
-14.2501
-11.6664
-9.09967
-6.54782
-4.03609
-1.60399
0.709257
2.8714
4.86329
6.67575
8.30723
9.7635
11.0545
12.192
13.1868
14.0467
14.775
15.3716
15.8349
16.1648
16.3645
16.4413
16.4063
16.2742
16.0621
15.788
15.4699
15.1239
14.7638
14.401
14.045
13.7029
13.3806
13.0823
12.8119
12.5718
12.363
12.1857
12.0394
11.9222
11.832
11.7665
11.7244
11.7044
11.7058
11.7269
11.7648
11.8158
11.8763
11.9439
12.0168
12.0947
12.1778
12.2657
12.3573
12.4506
12.5432
12.6333
12.7202
12.8037
12.8839
12.9594
13.0271
13.0812
13.1158
13.1269
13.1182
13.0943
13.0672
13.0354
13.0123
12.9699
-11.606
-11.8332
-12.2943
-12.9837
-13.8845
-14.9686
-16.2053
-17.5649
-19.0216
-20.5502
-22.1243
-23.7151
-25.2933
-26.8322
-28.3111
-29.7147
-31.0308
-32.2523
-33.3812
-34.4244
-35.3878
-36.2727
-37.0753
-37.7894
-38.4113
-38.9428
-39.3903
-39.7635
-40.0735
-40.3355
-40.5667
-40.7816
-40.9889
-41.1952
-41.4099
-41.6404
-41.8918
-42.1711
-42.4713
-42.7746
-43.0581
-43.3032
-43.4983
-43.6353
-43.7096
-43.704
-43.6065
-43.4234
-43.1804
-42.9081
-42.614
-42.2718
-41.8656
-41.4079
-40.9417
-40.5184
-40.1806
-39.9469
-39.8364
-39.861
-39.935
-39.9971
-40.048
-40.0697
-40.0306
-39.9018
-39.6707
-39.3487
-38.9445
-38.4709
-37.9548
-37.4241
-36.9167
-36.4764
-36.1433
-35.9457
-35.8989
-36.0135
-36.278
-36.669
-37.1821
-37.812
-38.5472
-39.3173
-40.0237
-40.5749
-41.0029
-41.4128
-41.847
-42.2791
-42.6777
-42.9734
-43.069
-42.9021
-42.4528
-41.7485
-40.8216
-39.6873
-38.3424
-36.7772
-34.9878
-32.9896
-30.804
-28.441
-25.9242
-23.3065
-20.6692
-18.0705
-15.5177
-12.9758
-10.424
-7.86631
-5.33186
-2.86156
-0.500027
1.71111
3.74851
5.60152
7.27016
8.76257
10.0905
11.2661
12.2997
13.1974
13.9604
14.587
15.075
15.4245
15.6391
15.7265
15.6984
15.5705
15.3613
15.09
14.7752
14.4333
14.0788
13.7226
13.3732
13.0371
12.7198
12.4258
12.1589
11.9216
11.7144
11.5378
11.3917
11.2756
11.1882
11.1299
11.1003
11.0982
11.1213
11.166
11.2274
11.3015
11.3847
11.4746
11.5698
11.6694
11.773
11.8792
11.9858
12.0902
12.1903
12.2851
12.3745
12.4594
12.5409
12.6193
12.6938
12.7615
12.8173
12.8539
12.8683
12.8583
12.8314
12.7878
12.7416
12.674
-11.5252
-11.7787
-12.306
-13.102
-14.1501
-15.413
-16.8473
-18.412
-20.0693
-21.7844
-23.5222
-25.2497
-26.9351
-28.5516
-30.0814
-31.5149
-32.845
-34.0673
-35.1866
-36.2154
-37.1665
-38.0475
-38.8588
-39.5952
-40.2515
-40.8276
-41.3286
-41.7638
-42.145
-42.4851
-42.7951
-43.0803
-43.3415
-43.5809
-43.8062
-44.0242
-44.2463
-44.482
-44.7285
-44.9707
-45.1904
-45.3749
-45.5179
-45.6094
-45.6452
-45.6071
-45.4706
-45.2384
-44.9513
-44.6382
-44.3233
-43.9929
-43.6299
-43.2352
-42.8285
-42.4419
-42.1186
-41.8781
-41.7298
-41.6696
-41.6317
-41.5775
-41.5055
-41.3894
-41.2045
-40.936
-40.5731
-40.1264
-39.6116
-39.0498
-38.4779
-37.93
-37.4373
-37.0351
-36.759
-36.6324
-36.6591
-36.8402
-37.1653
-37.6214
-38.1944
-38.8625
-39.5979
-40.3311
-40.9836
-41.4783
-41.8343
-42.1539
-42.5065
-42.8793
-43.2321
-43.5028
-43.6067
-43.4775
-43.0813
-42.4256
-41.5279
-40.3986
-39.0414
-37.4584
-35.658
-33.6624
-31.4926
-29.1576
-26.6831
-24.1271
-21.5689
-19.056
-16.5785
-14.0871
-11.561
-9.01134
-6.47242
-3.98598
-1.6013
0.636105
2.69906
4.57689
6.27088
7.79123
9.14999
10.3583
11.4244
12.3515
13.1389
13.7836
14.2839
14.6407
14.859
14.9477
14.9201
14.7931
14.586
14.3186
14.0093
13.6748
13.3287
12.9811
12.6404
12.3117
11.9999
11.7098
11.4452
11.2077
10.9986
10.8197
10.6715
10.5551
10.4731
10.4277
10.4188
10.4427
10.494
10.5662
10.6535
10.7518
10.8588
10.9728
11.0926
11.217
11.3436
11.4694
11.5909
11.7055
11.8121
11.9104
12.0011
12.0858
12.1666
12.2448
12.3218
12.3966
12.4664
12.5246
12.5651
12.5796
12.5688
12.5293
12.4742
12.3902
-11.4564
-11.7446
-12.3502
-13.2613
-14.4633
-15.9078
-17.5396
-19.3018
-21.1445
-23.0218
-24.8935
-26.7244
-28.4782
-30.1212
-31.6331
-33.0132
-34.2729
-35.4196
-36.4623
-37.417
-38.3019
-39.1319
-39.9135
-40.641
-41.3042
-41.895
-42.4124
-42.8633
-43.2602
-43.6144
-43.9369
-44.2326
-44.5012
-44.7442
-44.9661
-45.1731
-45.3738
-45.5774
-45.783
-45.9786
-46.1509
-46.292
-46.4033
-46.478
-46.5062
-46.4791
-46.3676
-46.1631
-45.9014
-45.6214
-45.3534
-45.0939
-44.8255
-44.5381
-44.2362
-43.9369
-43.6699
-43.4609
-43.3137
-43.2038
-43.0757
-42.9176
-42.7351
-42.4946
-42.1744
-41.776
-41.2985
-40.7532
-40.1581
-39.5399
-38.9476
-38.4139
-37.9641
-37.628
-37.4324
-37.3888
-37.4937
-37.7511
-38.1487
-38.6597
-39.2682
-39.944
-40.6316
-41.2747
-41.8373
-42.2563
-42.5294
-42.7497
-43.0005
-43.2874
-43.5743
-43.8063
-43.9137
-43.8305
-43.499
-42.8921
-42.0031
-40.8412
-39.4323
-37.8049
-35.9826
-33.9915
-31.8507
-29.5661
-27.1619
-24.6937
-22.2303
-19.8058
-17.3983
-14.9579
-12.4674
-9.94425
-7.42154
-4.94546
-2.56632
-0.330523
1.73354
3.61675
5.32262
6.86142
8.24365
9.47728
10.5665
11.5115
12.3098
12.9584
13.4565
13.8067
14.0159
14.096
14.0627
13.9347
13.732
13.4729
13.1749
12.8535
12.5208
12.186
11.8567
11.5375
11.2325
10.946
10.6814
10.441
10.2264
10.0405
9.8878
9.77238
9.70023
9.67421
9.69138
9.74479
9.82694
9.92903
10.0443
10.1691
10.3018
10.4417
10.5878
10.7378
10.8871
11.0309
11.1651
11.2879
11.3995
11.5001
11.5914
11.6755
11.7551
11.8325
11.91
11.9883
12.0666
12.1403
12.2035
12.2456
12.2612
12.2411
12.1933
12.1063
-11.1044
-11.4382
-12.1237
-13.1439
-14.4936
-16.1142
-17.9442
-19.9144
-21.9622
-24.0283
-26.0574
-27.9985
-29.8037
-31.4316
-32.8668
-34.1233
-35.2338
-36.2234
-37.108
-37.9041
-38.6321
-39.3145
-39.9652
-40.5824
-41.1535
-41.6691
-42.1315
-42.5449
-42.9213
-43.272
-43.6041
-43.9179
-44.2097
-44.4748
-44.7145
-44.9304
-45.1271
-45.3154
-45.4984
-45.6704
-45.824
-45.9562
-46.0709
-46.1655
-46.2295
-46.258
-46.2247
-46.1185
-45.9559
-45.7806
-45.6214
-45.4905
-45.3612
-45.2117
-45.0368
-44.849
-44.6716
-44.5272
-44.4172
-44.3063
-44.141
-43.9225
-43.6634
-43.3337
-42.9156
-42.4202
-41.8586
-41.2504
-40.6148
-39.9791
-39.3905
-38.8866
-38.4889
-38.2225
-38.1162
-38.1728
-38.3703
-38.7033
-39.1622
-39.7272
-40.3577
-41.0099
-41.6192
-42.1314
-42.5493
-42.8508
-43.0216
-43.1401
-43.282
-43.4673
-43.6769
-43.8662
-43.9772
-43.9436
-43.683
-43.1213
-42.2241
-41.0034
-39.5165
-37.8314
-35.9903
-34.0169
-31.9206
-29.7061
-27.3933
-25.0274
-22.6608
-20.3153
-17.967
-15.5777
-13.136
-10.6592
-8.17949
-5.74279
-3.40031
-1.1961
0.844641
2.7159
4.4224
5.97153
7.36889
8.61711
9.71598
10.6631
11.4555
12.091
12.5705
12.899
13.0874
13.1514
13.1098
12.9828
12.7896
12.5472
12.2703
11.971
11.6598
11.3449
11.0325
10.7262
10.4294
10.1465
9.88082
9.6329
9.40747
9.21121
9.0527
8.94147
8.88344
8.87933
8.92318
9.00581
9.11821
9.25027
9.39518
9.54952
9.7114
9.87963
10.0527
10.2263
10.3944
10.5517
10.6949
10.8237
10.9393
11.0425
11.1351
11.2198
11.2996
11.3773
11.4551
11.5354
11.6192
11.704
11.7852
11.8526
11.8982
11.9079
11.8819