/*--------------------------------*- C++ -*----------------------------------*\
  =========                 |
  \\      /  F ield         | OpenFOAM: The Open Source CFD Toolbox
   \\    /   O peration     | Website:  https://openfoam.org
    \\  /    A nd           | Version:  9
     \\/     M anipulation  |
\*---------------------------------------------------------------------------*/
FoamFile
{
    format      ascii;
    class       volScalarField;
    location    "0.082";
    object      s_0;
}
// * * * * * * * * * * * * * * * * * * * * * * * * * * * * * * * * * * * * * //

dimensions      [0 0 0 0 0 0 0];

internalField   nonuniform List<scalar> 
12225
(
1
1
1
1
1
1
1
1
1
1
1
1
1
1
1
1
1
0.999987
1
1
1
1
1
1
1
1
1
1
1
1
1
1
1
1
1
0.999999
1
1
1
1
1
1
1
1
1
1
1
1
1
1
1
1
1
1
1
1
1
1
1
1
1
1
1
1
1
1
1
1
1
1
1
1
1
1
1
1
1
1
1
1
1
1
1
1
1
1
1
1
1
1
1
1
1
1
1
1
1
1
1
1
1
1
1
1
1
1
1
1
1
1
1
1
1
1
1
1
1
1
1
1
1
1
1
1
1
1
1
1
1
1
1
1
1
1
1
1
1
1
1
1
1
1
1
1
1
1
1
1
1
1
1
1
1
1
1
1
1
1
1
1
1
1
1
1
1
1
1
1
1
1
1
1
1
1
1
1
1
1
1
1
1
1
1
1
1
1
1
1
1
1
1
1
1
1
1
1
1
1
1
1
1
1
1
1
1
1
1
1
1
1
1
1
1
1
1
1
1
1
1
1
1
1
1
1
1
1
1
1
1
1
1
1
1
1
1
1
1
1
1
1
1
1
1
1
1
1
1
1
1
1
1
1
1
1
1
1
1
1
1
1
1
1
1
1
1
1
1
1
1
1
1
1
1
1
1
1
1
1
1
1
1
1
1
1
1
1
1
1
1
1
1
1
1
1
1
1
1
1
1
1
1
1
1
1
1
1
1
1
1
1
1
1
1
1
1
1
1
1
1
1
1
1
1
1
1
1
1
1
1
1
1
1
1
1
1
1
1
1
1
1
1
1
1
1
1
1
1
1
1
1
1
1
1
1
1
1
1
1
1
1
1
1
1
1
1
1
1
1
1
1
1
1
1
1
1
1
1
1
1
1
1
1
1
1
1
1
1
1
1
1
1
1
1
1
1
1
1
1
1
1
1
1
1
1
1
1
1
1
1
1
1
1
1
1
1
1
1
1
1
1
1
1
1
1
1
1
1
1
1
1
1
1
1
1
1
1
1
1
1
1
1
1
1
1
1
1
1
1
1
1
1
1
1
1
1
1
1
1
1
1
1
1
1
1
1
1
1
1
1
1
1
1
1
1
1
1
1
1
1
1
1
1
1
1
1
1
1
1
1
1
1
1
1
1
1
1
1
1
1
1
1
1
1
1
1
1
1
1
1
1
1
1
1
1
1
1
1
1
1
1
1
1
1
1
1
1
1
1
1
1
1
1
1
1
1
1
1
1
1
1
0.770816
0.752294
0.735685
0.728635
0.723622
0.719111
0.715417
0.711635
0.708561
0.70447
0.702006
0.701517
0.710087
0.752281
0.784523
0.798841
0.803714
0.8051
0.805465
0.805491
0.805203
0.804225
0.801837
0.795623
0.779979
0.75422
0.745073
0.743346
0.742693
0.742095
0.741977
0.742345
0.743625
0.745718
0.748021
0.750002
0.751607
0.753168
0.754873
0.756531
0.758088
0.759942
0.762099
0.764104
0.765904
0.76761
0.769039
0.769857
0.770113
0.770103
0.769494
0.767942
0.765425
0.762003
0.757893
0.752924
0.747994
0.743474
0.740336
0.738666
0.737926
0.737491
0.737457
0.737574
0.737956
0.73862
0.739325
0.74035
0.741572
0.742439
0.742996
0.743769
0.744626
0.745068
0.74514
0.745459
0.75032
0.766571
0.775255
0.789319
0.824439
0.864068
0.897717
0.917584
0.925182
0.927374
0.928086
0.928561
0.928843
0.929062
0.929348
0.929607
0.929915
0.930342
0.93083
0.931462
0.932276
0.933294
0.934599
0.93612
0.937815
0.939617
0.941524
0.943417
0.945122
0.946676
0.948083
0.949314
0.950401
0.951383
0.952295
0.953103
0.953813
0.95442
0.955104
0.955741
0.956052
0.956306
0.956423
0.956458
0.956333
0.956042
0.955751
0.955257
0.95461
0.953822
0.952813
0.951566
0.950054
0.948231
0.946115
0.943545
0.940646
0.937457
0.934319
0.930788
0.92691
0.922898
0.918911
0.914771
0.910105
0.904626
0.898439
0.890755
0.879618
0.865639
0.854701
0.849157
0.84746
0.847609
0.850203
0.856516
0.86157
0.865505
0.868797
0.871692
0.874219
0.876403
0.878278
0.879819
0.881065
0.882149
0.883114
0.883847
0.884309
0.884768
0.885718
0.88793
0.890984
0.894771
0.898753
0.90192
0.903709
0.904239
0.904196
0.903596
0.901339
0.895477
0.891582
0.891143
0.774161
0.769423
0.759743
0.747378
0.738187
0.73261
0.731941
0.731382
0.729356
0.724336
0.713968
0.697375
0.676495
0.663801
0.697
0.771226
0.79681
0.80492
0.80872
0.809291
0.807826
0.805488
0.802603
0.793769
0.773633
0.75354
0.748784
0.748491
0.749963
0.751851
0.753504
0.758587
0.767601
0.777122
0.784589
0.790228
0.795828
0.802994
0.810613
0.81717
0.823275
0.829548
0.835496
0.841088
0.846271
0.850105
0.85189
0.852512
0.852045
0.847406
0.839843
0.831025
0.818741
0.803851
0.787983
0.770947
0.756597
0.745469
0.738348
0.734925
0.733824
0.733598
0.732684
0.733033
0.734909
0.738153
0.742325
0.747455
0.751012
0.751518
0.750168
0.747967
0.747755
0.748263
0.749458
0.749736
0.750686
0.752704
0.754808
0.764643
0.810488
0.877983
0.91243
0.926354
0.932261
0.936239
0.939283
0.941245
0.942373
0.942934
0.94313
0.943078
0.942779
0.942401
0.942001
0.941759
0.941659
0.941959
0.942786
0.944364
0.947056
0.950992
0.956177
0.961211
0.965649
0.969779
0.973285
0.976061
0.977969
0.979275
0.980394
0.980976
0.98126
0.981344
0.981018
0.980374
0.980045
0.979651
0.979494
0.979432
0.979432
0.979539
0.979764
0.980068
0.98047
0.98095
0.9815
0.982093
0.982651
0.983119
0.983418
0.98356
0.983519
0.982991
0.982012
0.980508
0.978451
0.976114
0.973896
0.972052
0.970547
0.968774
0.966482
0.964197
0.962274
0.959557
0.953392
0.938382
0.920637
0.904802
0.892315
0.88179
0.870952
0.860531
0.853575
0.851098
0.851177
0.854198
0.862649
0.868983
0.873584
0.877671
0.881645
0.885543
0.88927
0.892564
0.89541
0.898262
0.901402
0.904702
0.907816
0.910067
0.910969
0.911053
0.910614
0.907646
0.896001
0.880131
0.871953
0.870314
0.753536
0.725209
0.705009
0.701324
0.703192
0.709222
0.724772
0.741134
0.751582
0.756565
0.757147
0.754034
0.744075
0.721625
0.670681
0.6729
0.720791
0.786877
0.807674
0.809847
0.807866
0.806299
0.805286
0.799903
0.782968
0.768274
0.766621
0.769443
0.775768
0.779012
0.780889
0.786324
0.79678
0.810463
0.824348
0.838207
0.85457
0.873078
0.890707
0.906446
0.920196
0.931836
0.941363
0.948925
0.953987
0.956684
0.957945
0.958301
0.956978
0.95177
0.94492
0.935513
0.921244
0.903364
0.880038
0.851923
0.822446
0.796778
0.779541
0.769562
0.76521
0.76304
0.759117
0.766914
0.788586
0.80769
0.823954
0.838463
0.841754
0.837655
0.827545
0.802869
0.775407
0.76203
0.756548
0.755006
0.754207
0.754006
0.75471
0.767025
0.845208
0.915153
0.936078
0.944091
0.949311
0.952543
0.954379
0.955413
0.955899
0.956038
0.955762
0.95539
0.954971
0.954761
0.954698
0.955089
0.955804
0.957372
0.95994
0.964106
0.969657
0.974848
0.978168
0.98006
0.980869
0.981056
0.980731
0.979361
0.978063
0.976698
0.973767
0.969895
0.966189
0.962674
0.960272
0.95862
0.957384
0.956701
0.956352
0.956233
0.956446
0.956804
0.957537
0.958459
0.95983
0.961566
0.963825
0.9668
0.970466
0.974729
0.978877
0.982121
0.98461
0.986546
0.987724
0.988208
0.988197
0.987369
0.985474
0.983013
0.980779
0.978843
0.977216
0.976138
0.975648
0.975527
0.975498
0.975349
0.974584
0.972497
0.968247
0.959201
0.937571
0.909329
0.885518
0.869256
0.858787
0.851588
0.847346
0.845833
0.845686
0.846218
0.849309
0.856563
0.863554
0.869984
0.875446
0.880202
0.885469
0.891893
0.898923
0.904856
0.908135
0.908905
0.908156
0.901661
0.882356
0.869337
0.864448
0.863779
0.640986
0.63882
0.642037
0.643802
0.643293
0.64098
0.638616
0.640073
0.64584
0.660235
0.68137
0.709542
0.721999
0.719345
0.709277
0.684475
0.679928
0.718666
0.79772
0.809459
0.806499
0.804644
0.804471
0.804486
0.798669
0.787753
0.785141
0.785471
0.788325
0.795334
0.805365
0.822582
0.85192
0.888853
0.918762
0.938389
0.955595
0.970742
0.979549
0.98412
0.988171
0.991195
0.992599
0.993571
0.994463
0.994878
0.995122
0.995207
0.995144
0.994561
0.993719
0.992316
0.989943
0.986198
0.980123
0.970487
0.955468
0.932137
0.895591
0.853733
0.831705
0.820991
0.81628
0.856685
0.898111
0.91479
0.918861
0.917116
0.911162
0.897346
0.886234
0.88017
0.862635
0.812304
0.777074
0.764834
0.759246
0.755721
0.755992
0.780984
0.887881
0.93803
0.949492
0.954702
0.957991
0.960088
0.961703
0.962804
0.963319
0.963531
0.963572
0.963485
0.963301
0.963256
0.963696
0.964501
0.966473
0.969485
0.97378
0.978821
0.981633
0.982879
0.983213
0.982378
0.980609
0.978772
0.97409
0.966537
0.956149
0.948728
0.944484
0.94176
0.940936
0.9408
0.94136
0.942518
0.943014
0.943733
0.944141
0.944484
0.944715
0.9448
0.944815
0.944732
0.944584
0.944375
0.944193
0.944071
0.944103
0.944916
0.947596
0.953006
0.9609
0.970674
0.979506
0.985123
0.988641
0.990273
0.990673
0.990251
0.988152
0.984938
0.981693
0.979163
0.977513
0.976789
0.97671
0.977136
0.979142
0.981028
0.98153
0.981368
0.980068
0.975603
0.962828
0.931374
0.898427
0.874707
0.859713
0.851172
0.847081
0.845693
0.845603
0.846277
0.849715
0.858059
0.865723
0.871752
0.876701
0.881784
0.887805
0.89428
0.899368
0.901365
0.900932
0.894948
0.877938
0.867701
0.864381
0.863595
0.641963
0.653718
0.668649
0.671
0.669009
0.663246
0.655693
0.643651
0.631111
0.627861
0.62922
0.634863
0.651019
0.678558
0.683948
0.674236
0.667074
0.715524
0.798255
0.807069
0.799343
0.795956
0.803347
0.805179
0.80197
0.795117
0.793827
0.797123
0.809263
0.830282
0.864889
0.91213
0.947563
0.966572
0.979345
0.987182
0.992864
0.995337
0.996552
0.997148
0.997479
0.997686
0.997841
0.997898
0.998014
0.998223
0.998406
0.998547
0.998696
0.998797
0.998848
0.998875
0.998712
0.998318
0.997511
0.995903
0.992765
0.98628
0.971991
0.938704
0.881751
0.856557
0.849976
0.888617
0.922731
0.934453
0.934533
0.927716
0.913416
0.88496
0.864101
0.866961
0.869975
0.863806
0.833043
0.789329
0.768457
0.758307
0.758786
0.802497
0.91608
0.949492
0.956217
0.960227
0.9634
0.966001
0.968273
0.969933
0.970712
0.971002
0.971046
0.970926
0.970807
0.970979
0.971582
0.972754
0.975144
0.978835
0.982914
0.984582
0.985062
0.984586
0.982567
0.979918
0.973367
0.96099
0.945567
0.939174
0.936816
0.93642
0.937705
0.940889
0.943443
0.94703
0.951099
0.952933
0.954651
0.95578
0.956332
0.956588
0.956645
0.956263
0.955702
0.954804
0.953609
0.952016
0.949979
0.947406
0.944285
0.940991
0.938435
0.936811
0.935958
0.936986
0.943146
0.956143
0.971503
0.982749
0.989004
0.991784
0.992631
0.992544
0.99096
0.986757
0.982225
0.978917
0.977077
0.976447
0.976446
0.977103
0.980242
0.983745
0.984997
0.984972
0.983804
0.979054
0.965045
0.936266
0.905894
0.881122
0.8659
0.858679
0.856768
0.856911
0.858693
0.864894
0.872034
0.87812
0.883265
0.887119
0.889753
0.89163
0.892915
0.893359
0.892932
0.888598
0.876131
0.869636
0.868797
0.868186
0.670067
0.684774
0.684778
0.681419
0.677112
0.673214
0.670268
0.664809
0.649262
0.632833
0.624581
0.624048
0.626788
0.633509
0.641308
0.651529
0.671348
0.752256
0.799183
0.795524
0.786287
0.794175
0.803821
0.805881
0.804328
0.802217
0.806885
0.823402
0.858363
0.913249
0.95004
0.973351
0.986449
0.992249
0.994997
0.996197
0.996659
0.996748
0.996624
0.996195
0.995698
0.995155
0.994826
0.994714
0.994883
0.995267
0.995999
0.99673
0.997448
0.998137
0.998692
0.999069
0.999293
0.999391
0.999414
0.999294
0.998834
0.997475
0.993662
0.982341
0.946576
0.893375
0.873134
0.889486
0.922707
0.936126
0.939118
0.929515
0.904158
0.858772
0.825551
0.823989
0.839575
0.853075
0.846901
0.825431
0.788317
0.763869
0.763762
0.828038
0.931817
0.9541
0.96048
0.965625
0.970012
0.973364
0.976052
0.977864
0.978664
0.978821
0.97865
0.978133
0.977828
0.977867
0.978405
0.979759
0.981912
0.98516
0.986679
0.986997
0.985971
0.983491
0.978647
0.968816
0.948095
0.938654
0.935659
0.935635
0.938886
0.94336
0.952743
0.959689
0.963077
0.964678
0.965051
0.964984
0.964746
0.96442
0.96404
0.963592
0.963128
0.962736
0.962341
0.96201
0.961776
0.961575
0.961328
0.960897
0.960133
0.958176
0.95378
0.94716
0.939339
0.93282
0.929568
0.928713
0.932287
0.947252
0.967889
0.982475
0.990087
0.993232
0.994048
0.993802
0.991507
0.985843
0.981112
0.978228
0.976976
0.976753
0.977027
0.978926
0.983721
0.986621
0.987329
0.987058
0.98505
0.97773
0.957237
0.934127
0.916498
0.905291
0.897283
0.891183
0.887715
0.887274
0.887503
0.887979
0.888581
0.889962
0.891576
0.892432
0.892639
0.892526
0.891412
0.885415
0.876706
0.87446
0.875363
0.875848
0.676508
0.692722
0.686932
0.67931
0.674406
0.669989
0.666713
0.658824
0.649024
0.63417
0.621716
0.617591
0.619638
0.627935
0.641634
0.661863
0.721407
0.77758
0.79063
0.780692
0.785265
0.795583
0.805513
0.808646
0.810414
0.817742
0.839805
0.890864
0.943886
0.969119
0.984651
0.991224
0.993741
0.994493
0.994658
0.994334
0.992523
0.990349
0.987602
0.984672
0.98224
0.980323
0.979391
0.979094
0.980108
0.981498
0.983818
0.986587
0.989453
0.992285
0.994706
0.996664
0.998156
0.999009
0.999402
0.999564
0.99961
0.999518
0.998956
0.996849
0.989338
0.963112
0.909499
0.886765
0.907533
0.933638
0.94112
0.936413
0.903733
0.851825
0.816998
0.808636
0.821086
0.844666
0.844536
0.828974
0.788128
0.764534
0.770935
0.86413
0.942795
0.958756
0.967197
0.973997
0.979024
0.982261
0.984487
0.985768
0.986095
0.985984
0.985554
0.984731
0.984013
0.98378
0.984068
0.985188
0.987108
0.988401
0.988741
0.987878
0.985216
0.979747
0.967097
0.944217
0.935449
0.93357
0.936063
0.941535
0.95376
0.962114
0.965484
0.966454
0.966586
0.965918
0.964138
0.962442
0.960496
0.958653
0.956933
0.955275
0.953789
0.952651
0.952052
0.951854
0.952586
0.954134
0.956287
0.95861
0.960563
0.961831
0.962272
0.961716
0.95975
0.95367
0.941999
0.930112
0.924067
0.922833
0.927488
0.948141
0.97221
0.986162
0.992607
0.994604
0.994666
0.993191
0.987655
0.982238
0.979049
0.97772
0.977521
0.977899
0.980353
0.985505
0.988642
0.989643
0.989581
0.98842
0.983417
0.96916
0.955071
0.94542
0.940045
0.937776
0.93615
0.93258
0.922076
0.909126
0.900943
0.897799
0.897358
0.897398
0.897233
0.896319
0.893214
0.884938
0.880559
0.880413
0.882993
0.885851
0.680011
0.698141
0.68764
0.679622
0.673912
0.667565
0.663012
0.655695
0.643145
0.628204
0.618074
0.617274
0.621921
0.634141
0.657933
0.711607
0.759876
0.776635
0.776228
0.779309
0.787415
0.799506
0.81039
0.816464
0.827376
0.855842
0.917314
0.95856
0.978874
0.987746
0.991299
0.992349
0.992546
0.99089
0.987154
0.981122
0.972457
0.963516
0.957351
0.951821
0.948343
0.946288
0.945331
0.945087
0.946485
0.948822
0.952861
0.958645
0.966067
0.974579
0.981162
0.987663
0.992678
0.9963
0.998097
0.999072
0.999543
0.999701
0.99973
0.999517
0.99828
0.992467
0.965101
0.909939
0.900553
0.920927
0.940184
0.943168
0.926722
0.861066
0.817094
0.804949
0.816444
0.838985
0.839489
0.822207
0.779556
0.76615
0.793498
0.912198
0.95507
0.968896
0.978244
0.984294
0.988033
0.990159
0.991457
0.991938
0.991894
0.991539
0.990944
0.990038
0.989112
0.988596
0.988594
0.989317
0.990307
0.990631
0.990025
0.987615
0.983037
0.971188
0.945546
0.934286
0.932025
0.934489
0.94278
0.958221
0.964067
0.965656
0.965744
0.964272
0.960431
0.954849
0.948985
0.943554
0.938238
0.93326
0.92857
0.923977
0.919556
0.915784
0.913322
0.912136
0.913252
0.917284
0.924336
0.932751
0.94167
0.950031
0.956455
0.960402
0.961923
0.96181
0.960165
0.954661
0.93965
0.924448
0.918649
0.918991
0.930931
0.960749
0.981428
0.991283
0.994531
0.994755
0.993237
0.987348
0.981963
0.979071
0.97808
0.978064
0.978937
0.983067
0.988188
0.991016
0.991929
0.991912
0.991088
0.987298
0.978055
0.970792
0.966635
0.964866
0.964209
0.963313
0.96093
0.952527
0.930131
0.915583
0.911225
0.910937
0.910708
0.90862
0.899657
0.88936
0.886925
0.887686
0.892431
0.903217
0.684716
0.705723
0.696232
0.68864
0.681023
0.672873
0.664087
0.65279
0.639684
0.627801
0.622135
0.624338
0.635653
0.662121
0.710742
0.748062
0.765537
0.772142
0.775072
0.781802
0.793588
0.807983
0.821989
0.838924
0.87715
0.933268
0.966275
0.981639
0.987605
0.989475
0.989949
0.987872
0.981819
0.970235
0.956028
0.946012
0.938855
0.935466
0.933093
0.93209
0.931747
0.931711
0.931861
0.931868
0.931762
0.931457
0.93112
0.931369
0.933106
0.938398
0.949711
0.964082
0.97752
0.987909
0.993728
0.996809
0.99857
0.999399
0.999733
0.999818
0.999757
0.999035
0.994542
0.969193
0.91365
0.910366
0.930342
0.943851
0.942844
0.914078
0.840264
0.810157
0.804948
0.812678
0.814222
0.79391
0.774238
0.780304
0.872574
0.948012
0.969384
0.980264
0.987069
0.990901
0.993098
0.994426
0.995299
0.99555
0.995457
0.995117
0.994577
0.9938
0.992904
0.992259
0.991994
0.992201
0.992485
0.992105
0.990408
0.98674
0.977519
0.957743
0.935717
0.930864
0.93128
0.939816
0.957264
0.9637
0.964921
0.964723
0.961236
0.953036
0.940518
0.929087
0.919856
0.912291
0.905771
0.899069
0.892221
0.88554
0.879557
0.874491
0.870472
0.867348
0.865047
0.863799
0.865326
0.873568
0.890017
0.911267
0.929713
0.944114
0.953566
0.958713
0.960492
0.960193
0.957809
0.949699
0.929624
0.916894
0.914943
0.921513
0.950884
0.977384
0.989984
0.994115
0.994384
0.992416
0.98592
0.981115
0.978916
0.978422
0.978684
0.980793
0.986642
0.991045
0.993332
0.994045
0.994029
0.993372
0.990363
0.985794
0.982871
0.981463
0.98108
0.980984
0.980619
0.97862
0.969397
0.949827
0.941385
0.940506
0.940266
0.936916
0.919792
0.903277
0.900758
0.903108
0.915698
0.946069
0.686682
0.718747
0.716617
0.707127
0.700012
0.694782
0.68679
0.674509
0.660196
0.652722
0.65082
0.662859
0.685659
0.718649
0.744739
0.759257
0.767325
0.772524
0.778013
0.789746
0.806446
0.826339
0.853338
0.896337
0.942411
0.969774
0.98168
0.985855
0.986948
0.986287
0.980369
0.966753
0.951147
0.940059
0.934669
0.931853
0.930771
0.9305
0.930604
0.931517
0.932064
0.932795
0.933135
0.933259
0.932906
0.931837
0.929887
0.927475
0.925025
0.923916
0.924342
0.929668
0.945084
0.967017
0.982885
0.991201
0.995761
0.998127
0.999261
0.999736
0.999875
0.999882
0.999488
0.995817
0.968364
0.917691
0.917588
0.937189
0.94652
0.941632
0.903969
0.837479
0.811585
0.804254
0.80103
0.793454
0.794534
0.859796
0.938356
0.968664
0.979425
0.985106
0.989041
0.991949
0.993897
0.995282
0.996355
0.996986
0.997111
0.997001
0.996711
0.996147
0.995443
0.994824
0.994396
0.994202
0.993975
0.992994
0.99045
0.985131
0.973346
0.9445
0.930333
0.928314
0.933009
0.951244
0.96195
0.964058
0.964039
0.960011
0.948309
0.927861
0.915856
0.909659
0.905961
0.901712
0.896393
0.890191
0.883334
0.876635
0.870925
0.866285
0.862581
0.859324
0.855883
0.851768
0.846807
0.841481
0.839217
0.846536
0.872513
0.905482
0.929491
0.944533
0.952875
0.956836
0.957831
0.956809
0.952112
0.935003
0.916378
0.912328
0.917036
0.945353
0.975367
0.989383
0.993731
0.993873
0.991173
0.984519
0.980649
0.979288
0.979233
0.98023
0.984868
0.99043
0.993789
0.995413
0.99588
0.99585
0.995327
0.993549
0.992011
0.991291
0.99116
0.991244
0.991269
0.990781
0.987198
0.977299
0.974073
0.974664
0.97536
0.973415
0.958572
0.935802
0.932433
0.936429
0.956604
0.977856
0.687198
0.732572
0.733459
0.72054
0.710202
0.706434
0.704888
0.703235
0.701157
0.7008
0.705313
0.714614
0.730166
0.744931
0.755827
0.763675
0.770605
0.777212
0.788813
0.808765
0.837185
0.872579
0.912971
0.948667
0.97045
0.980277
0.983584
0.984505
0.981774
0.97238
0.954195
0.941961
0.935617
0.932662
0.931718
0.931568
0.932199
0.933273
0.934165
0.935233
0.935736
0.936118
0.936574
0.937288
0.937903
0.938158
0.938155
0.935792
0.930014
0.923364
0.920513
0.919717
0.922579
0.933764
0.958787
0.979806
0.989729
0.995235
0.997961
0.999219
0.999743
0.999911
0.999936
0.999707
0.996549
0.968722
0.92182
0.922275
0.94183
0.94962
0.945419
0.919142
0.868992
0.842671
0.83294
0.843203
0.886426
0.938298
0.966359
0.97734
0.981976
0.984292
0.985946
0.988503
0.992124
0.994671
0.996237
0.997174
0.997663
0.997785
0.997709
0.997458
0.996955
0.996451
0.995978
0.995549
0.994988
0.993671
0.990599
0.98327
0.963577
0.934722
0.926428
0.926507
0.937331
0.957162
0.96291
0.963578
0.960757
0.948931
0.925187
0.914538
0.910103
0.908351
0.906762
0.903988
0.899998
0.894378
0.887656
0.880656
0.874729
0.870394
0.867519
0.865232
0.862534
0.858701
0.85262
0.842841
0.832665
0.826613
0.826043
0.839954
0.881429
0.917424
0.937439
0.947189
0.951714
0.953552
0.95348
0.950342
0.936413
0.915496
0.910395
0.915101
0.944767
0.975798
0.989677
0.993561
0.993437
0.989734
0.983746
0.980991
0.980411
0.980824
0.983812
0.989748
0.99374
0.996007
0.997039
0.997311
0.997284
0.996977
0.996467
0.99624
0.996219
0.996355
0.996545
0.996444
0.995202
0.992165
0.991696
0.99244
0.992817
0.991215
0.979519
0.965726
0.964844
0.969678
0.984096
0.992819
0.679768
0.739173
0.74952
0.742738
0.727352
0.720887
0.71896
0.718838
0.723014
0.725169
0.730988
0.738616
0.747413
0.755054
0.763083
0.771122
0.779996
0.794334
0.821015
0.855872
0.891115
0.924526
0.952506
0.970127
0.978105
0.981027
0.982001
0.978321
0.964587
0.948461
0.938859
0.93419
0.93228
0.931686
0.931604
0.93197
0.932358
0.932509
0.932197
0.931428
0.931019
0.930882
0.931583
0.932916
0.935097
0.937832
0.939674
0.940483
0.940619
0.935851
0.92435
0.919321
0.918615
0.922396
0.932984
0.958715
0.979272
0.989865
0.995469
0.998142
0.999305
0.999777
0.999933
0.999953
0.999762
0.997066
0.972776
0.925424
0.92372
0.944467
0.953854
0.951467
0.938231
0.92313
0.915646
0.925922
0.947383
0.965342
0.974742
0.978804
0.98072
0.974827
0.968975
0.973676
0.984771
0.991763
0.995354
0.996976
0.997669
0.998
0.998075
0.998013
0.997781
0.99738
0.996943
0.996421
0.99568
0.994193
0.990953
0.982985
0.960621
0.931644
0.92396
0.92585
0.943507
0.959427
0.962656
0.962419
0.955669
0.933031
0.917461
0.912998
0.912262
0.914684
0.917277
0.916832
0.911315
0.903918
0.895883
0.887567
0.88032
0.875151
0.871772
0.869157
0.866744
0.864581
0.862275
0.859042
0.847822
0.831125
0.821282
0.818515
0.824092
0.861579
0.909037
0.934033
0.944126
0.947071
0.948041
0.948236
0.946149
0.93367
0.91317
0.908744
0.915248
0.948782
0.978306
0.990654
0.993607
0.99307
0.98849
0.98377
0.98219
0.982177
0.983654
0.988926
0.993512
0.99617
0.997547
0.998161
0.998351
0.99836
0.998336
0.998325
0.998356
0.998561
0.99878
0.998787
0.998491
0.997839
0.997817
0.998034
0.99794
0.99617
0.98815
0.983713
0.984263
0.989107
0.99536
0.998178
0.661479
0.741153
0.762962
0.765776
0.755265
0.744464
0.73947
0.737627
0.73756
0.740875
0.745426
0.75196
0.760048
0.767744
0.777478
0.789985
0.810566
0.842368
0.875325
0.905403
0.932773
0.954928
0.969361
0.97615
0.978553
0.979553
0.976318
0.961797
0.946378
0.937972
0.933872
0.932145
0.931514
0.931275
0.931111
0.930673
0.928958
0.92734
0.926338
0.925923
0.925836
0.926089
0.926192
0.926391
0.92696
0.928581
0.933036
0.938708
0.942016
0.943105
0.940002
0.925638
0.919545
0.920516
0.926087
0.93935
0.965418
0.982039
0.991508
0.996344
0.998559
0.999476
0.999832
0.999952
0.999969
0.999831
0.997829
0.978235
0.928382
0.922525
0.944282
0.957374
0.957242
0.953847
0.95208
0.956906
0.964858
0.971407
0.975664
0.977233
0.971099
0.947796
0.942117
0.950602
0.973455
0.986734
0.993357
0.996312
0.997503
0.997974
0.998153
0.998173
0.998106
0.997878
0.9975
0.996979
0.99623
0.994757
0.991413
0.981978
0.956272
0.926999
0.921887
0.924438
0.944349
0.959295
0.962043
0.959833
0.945873
0.926098
0.917047
0.91467
0.918589
0.926447
0.928677
0.922543
0.913757
0.904118
0.893822
0.882853
0.871849
0.863828
0.858688
0.854244
0.852479
0.854417
0.858443
0.860595
0.860756
0.855318
0.836161
0.820433
0.81546
0.818639
0.850088
0.902731
0.931266
0.94212
0.943868
0.943131
0.942339
0.939921
0.926924
0.909537
0.907355
0.918098
0.956309
0.982053
0.991952
0.993812
0.992727
0.987857
0.984757
0.984144
0.984668
0.988054
0.993048
0.996093
0.99774
0.998529
0.998882
0.999046
0.999117
0.999163
0.99926
0.999439
0.999575
0.999606
0.999565
0.999464
0.999471
0.999499
0.99938
0.998233
0.995175
0.994497
0.99519
0.997605
0.999101
0.999573
0.64579
0.732254
0.768308
0.784713
0.787765
0.785475
0.780331
0.773024
0.768751
0.768022
0.772949
0.778696
0.786958
0.79898
0.815691
0.838158
0.864192
0.892128
0.916472
0.938693
0.956423
0.968291
0.974382
0.976696
0.977532
0.974791
0.961877
0.947487
0.938593
0.93433
0.932419
0.931596
0.930974
0.930232
0.928931
0.927384
0.926639
0.926394
0.926436
0.927039
0.927501
0.927671
0.927
0.926249
0.925912
0.925884
0.926497
0.928909
0.937323
0.943545
0.945365
0.941185
0.927394
0.922753
0.925309
0.933953
0.954728
0.975952
0.988278
0.99468
0.997752
0.999116
0.999674
0.999892
0.99997
0.999982
0.999903
0.998608
0.98489
0.933833
0.919018
0.937629
0.956815
0.9602
0.9611
0.963386
0.967086
0.971443
0.974614
0.973847
0.966934
0.942679
0.923026
0.923647
0.944689
0.974512
0.9886
0.994531
0.996862
0.997757
0.998096
0.998179
0.998168
0.998073
0.997807
0.997349
0.996679
0.99533
0.992123
0.982539
0.956155
0.924756
0.91727
0.921119
0.942496
0.95835
0.960734
0.956856
0.944873
0.927209
0.918535
0.919014
0.927809
0.933532
0.931115
0.922419
0.905952
0.885548
0.864031
0.842846
0.822048
0.810981
0.814216
0.82236
0.834087
0.844614
0.854649
0.861079
0.865205
0.86675
0.864377
0.845326
0.822196
0.815007
0.818294
0.850375
0.901301
0.928894
0.938975
0.939931
0.937631
0.9357
0.932013
0.91719
0.905454
0.906196
0.925745
0.965316
0.986098
0.993242
0.994126
0.992419
0.988266
0.986673
0.986643
0.988041
0.992434
0.995821
0.997715
0.998688
0.999156
0.999384
0.999497
0.999567
0.999648
0.999747
0.99983
0.999868
0.99987
0.999866
0.999873
0.999878
0.999834
0.999437
0.998802
0.998777
0.99914
0.999672
0.999832
0.999823
0.636553
0.710553
0.759897
0.795603
0.81282
0.812905
0.810348
0.810974
0.814857
0.816214
0.819463
0.825201
0.834656
0.848228
0.864522
0.884443
0.90458
0.925604
0.942633
0.957296
0.967266
0.972753
0.975327
0.976275
0.975009
0.964836
0.950427
0.940644
0.935198
0.932566
0.93134
0.930583
0.929724
0.928584
0.927493
0.927041
0.927058
0.928597
0.931766
0.933939
0.934767
0.934366
0.933211
0.930959
0.928149
0.926358
0.925901
0.926421
0.928881
0.939282
0.945895
0.946663
0.94113
0.932096
0.930519
0.93354
0.949809
0.973169
0.987039
0.994124
0.997477
0.998975
0.999605
0.999855
0.999949
0.999984
0.999991
0.999951
0.999277
0.991827
0.946331
0.913857
0.921049
0.948903
0.959263
0.963007
0.966364
0.969807
0.970924
0.970502
0.966996
0.949864
0.926368
0.911778
0.912644
0.935302
0.972832
0.988874
0.994771
0.996897
0.99774
0.998058
0.998129
0.998082
0.997928
0.997575
0.99702
0.995879
0.992977
0.984103
0.95814
0.924948
0.915203
0.917693
0.937478
0.955871
0.958859
0.956427
0.946799
0.931644
0.925232
0.928947
0.936253
0.93533
0.926832
0.904169
0.87073
0.830178
0.791538
0.771879
0.769623
0.77955
0.800185
0.818951
0.837494
0.855668
0.870478
0.88195
0.887185
0.885395
0.881517
0.876043
0.852697
0.823943
0.816551
0.82198
0.86039
0.905179
0.92816
0.935478
0.935253
0.930925
0.927888
0.921632
0.906225
0.901401
0.90645
0.938776
0.974139
0.989795
0.994358
0.994539
0.992416
0.989784
0.989192
0.989559
0.992044
0.995509
0.997595
0.998718
0.999284
0.99956
0.999695
0.999768
0.999826
0.99988
0.999923
0.999947
0.999957
0.999964
0.99997
0.999971
0.999959
0.999863
0.99978
0.999797
0.999896
0.999945
0.999933
0.999808
0.637751
0.671616
0.737006
0.776276
0.813248
0.834494
0.847046
0.849821
0.850336
0.853234
0.860203
0.868982
0.878368
0.889441
0.903148
0.918153
0.931646
0.945733
0.957383
0.966309
0.971643
0.974286
0.97525
0.974512
0.968429
0.955498
0.943791
0.936993
0.933593
0.93194
0.931079
0.93035
0.929444
0.928312
0.927434
0.927515
0.929485
0.933382
0.935962
0.936991
0.936924
0.936279
0.935209
0.933883
0.931561
0.928598
0.926681
0.926377
0.927379
0.933226
0.945062
0.948455
0.947049
0.938685
0.935065
0.936424
0.94806
0.972231
0.986847
0.994147
0.997498
0.998969
0.999595
0.999847
0.999944
0.99998
0.999994
0.999996
0.99998
0.999694
0.99632
0.968396
0.923951
0.919329
0.930537
0.952673
0.96196
0.966624
0.968429
0.968386
0.967361
0.962785
0.945978
0.921137
0.90743
0.906877
0.924369
0.967874
0.987166
0.993935
0.996376
0.997384
0.997827
0.997951
0.997885
0.997655
0.997205
0.996269
0.993931
0.987039
0.963615
0.926984
0.912003
0.912737
0.926248
0.95025
0.956477
0.955597
0.951742
0.942565
0.939675
0.940993
0.940391
0.931315
0.897222
0.845112
0.794422
0.758563
0.747106
0.749661
0.758806
0.780066
0.811962
0.845165
0.881079
0.907047
0.919199
0.919929
0.915521
0.904631
0.896932
0.892714
0.884595
0.852514
0.824946
0.82032
0.831016
0.87558
0.910757
0.927477
0.931393
0.929328
0.922828
0.918359
0.907145
0.897792
0.897761
0.911942
0.95507
0.982064
0.992747
0.995301
0.995093
0.993152
0.991928
0.991866
0.992711
0.995446
0.997536
0.998716
0.999336
0.999646
0.999794
0.999868
0.999911
0.999943
0.999964
0.999977
0.999984
0.999989
0.999992
0.999993
0.99999
0.999973
0.999966
0.999973
0.999983
0.999977
0.999902
0.999501
0.679931
0.658876
0.68668
0.744959
0.794477
0.827907
0.849817
0.867364
0.88006
0.886646
0.891651
0.897559
0.9068
0.915549
0.9257
0.936989
0.947709
0.957431
0.965119
0.970575
0.973686
0.975011
0.975217
0.973412
0.965748
0.952575
0.942609
0.936732
0.93361
0.932013
0.931178
0.930481
0.929649
0.928516
0.927672
0.927814
0.929106
0.932575
0.935318
0.93651
0.936522
0.936201
0.935099
0.933969
0.932278
0.929304
0.927374
0.926909
0.927376
0.931806
0.944722
0.95023
0.949727
0.941379
0.935784
0.936623
0.947336
0.97283
0.988346
0.995524
0.998368
0.9994
0.999763
0.999901
0.999958
0.999982
0.999993
0.999998
0.999999
0.999994
0.999907
0.998802
0.988454
0.945092
0.925163
0.925854
0.937755
0.955547
0.963109
0.96602
0.966293
0.965438
0.961709
0.950045
0.922316
0.907906
0.905879
0.917515
0.960232
0.983906
0.992231
0.995303
0.996613
0.997315
0.997572
0.997511
0.997202
0.996456
0.994603
0.989516
0.973004
0.93251
0.912492
0.907908
0.912849
0.936961
0.951039
0.95331
0.951887
0.947942
0.945717
0.943367
0.933851
0.89789
0.819737
0.764312
0.742014
0.736166
0.738719
0.74734
0.770276
0.814672
0.869964
0.914523
0.93271
0.937301
0.934343
0.928063
0.917271
0.90289
0.895215
0.893166
0.891554
0.884188
0.849815
0.828538
0.828174
0.849331
0.891027
0.915657
0.925641
0.926495
0.920905
0.913775
0.903784
0.893826
0.891424
0.896428
0.929195
0.969471
0.988391
0.994957
0.996169
0.995779
0.994523
0.994162
0.994331
0.995643
0.99758
0.998738
0.999367
0.999686
0.999841
0.999914
0.99995
0.999971
0.999983
0.99999
0.999994
0.999996
0.999998
0.999998
0.999998
0.999995
0.999995
0.999995
0.999993
0.999964
0.999755
0.998741
0.706749
0.695737
0.671982
0.685164
0.749671
0.80837
0.842789
0.865448
0.883427
0.898512
0.910427
0.918071
0.926106
0.933844
0.940918
0.948005
0.955314
0.962503
0.968649
0.972675
0.974899
0.975597
0.975394
0.973663
0.966722
0.953527
0.943463
0.937347
0.934021
0.932322
0.931465
0.9308
0.930218
0.929057
0.928234
0.928235
0.928615
0.92977
0.932337
0.933499
0.93344
0.933039
0.932303
0.931694
0.930989
0.929267
0.927497
0.927296
0.928227
0.933684
0.947362
0.952458
0.951171
0.941978
0.935037
0.93531
0.945759
0.972136
0.988351
0.995743
0.998577
0.999545
0.999856
0.999953
0.999983
0.999993
0.999997
0.999998
0.999999
1
0.999997
0.999955
0.999372
0.993522
0.962166
0.931457
0.925164
0.928264
0.943444
0.957531
0.963213
0.964401
0.963911
0.961466
0.953017
0.92703
0.910136
0.907321
0.914999
0.952411
0.980137
0.989986
0.99383
0.995482
0.996471
0.996909
0.996861
0.996372
0.994919
0.990984
0.979145
0.943157
0.91458
0.905839
0.906675
0.915603
0.938583
0.947471
0.948642
0.94701
0.943843
0.935265
0.90149
0.814968
0.760209
0.737526
0.732363