/*--------------------------------*- C++ -*----------------------------------*\
  =========                 |
  \\      /  F ield         | OpenFOAM: The Open Source CFD Toolbox
   \\    /   O peration     | Website:  https://openfoam.org
    \\  /    A nd           | Version:  9
     \\/     M anipulation  |
\*---------------------------------------------------------------------------*/
FoamFile
{
    format      ascii;
    class       volVectorField;
    location    "0.082";
    object      U;
}
// * * * * * * * * * * * * * * * * * * * * * * * * * * * * * * * * * * * * * //

dimensions      [0 1 -1 0 0 0 0];

internalField   nonuniform List<vector> 
12225
(
(9.79487 0.0283488 0)
(9.60327 0.0517969 0)
(9.21492 0.0989326 0)
(8.77349 0.095824 0)
(8.39884 0.0464222 0)
(8.16367 0.00372356 0)
(8.00241 0.00542511 0)
(7.79666 0.0442857 0)
(7.48042 0.0838866 0)
(7.11084 0.0972022 0)
(6.74697 0.0848261 0)
(6.4727 0.064116 0)
(6.23025 0.0480649 0)
(6.07372 0.0432095 0)
(5.84787 0.0512494 0)
(5.68681 0.0659742 0)
(5.32489 0.0918529 0)
(5.07971 0.117728 0)
(9.67652 0.0308209 0)
(9.70097 0.0664245 0)
(9.81626 0.0775892 0)
(9.92127 0.0894799 0)
(9.94268 0.0974908 0)
(9.90223 0.0939631 0)
(9.86599 0.0881078 0)
(9.87701 0.0944817 0)
(9.91127 0.107751 0)
(9.93571 0.115535 0)
(9.91513 0.108163 0)
(9.85818 0.0937827 0)
(9.75634 0.0818246 0)
(9.64907 0.0794802 0)
(9.51513 0.0892325 0)
(9.40379 0.116188 0)
(9.25805 0.159909 0)
(9.12365 0.19937 0)
(9.90575 0.0885051 0)
(9.82322 0.0427513 0)
(9.90174 0.0559688 0)
(10.0132 0.0699215 0)
(10.0848 0.0557331 0)
(10.1015 0.023561 0)
(10.0713 0.0053754 0)
(10.0319 0.0213436 0)
(10.0176 0.059494 0)
(10.0301 0.0970854 0)
(10.0449 0.119439 0)
(10.0418 0.129854 0)
(10.0121 0.134904 0)
(9.95863 0.140759 0)
(9.8877 0.15097 0)
(9.81183 0.169598 0)
(9.74702 0.203499 0)
(9.69706 0.246589 0)
(9.63219 0.0998457 0)
(9.86786 0.0520498 0)
(9.94478 0.0218187 0)
(9.99341 0.0394185 0)
(10.0492 0.0672602 0)
(10.0737 0.0936901 0)
(10.0434 0.112936 0)
(9.97899 0.122564 0)
(9.91871 0.121228 0)
(9.88498 0.110963 0)
(9.87839 0.0982516 0)
(9.88896 0.0916005 0)
(9.90642 0.0965698 0)
(9.92338 0.114556 0)
(9.93249 0.142656 0)
(9.92848 0.179488 0)
(9.91205 0.222548 0)
(9.8816 0.263611 0)
(9.81913 0.0109704 0)
(9.92006 -0.0216024 0)
(9.89351 0.023639 0)
(9.94705 0.0487963 0)
(10.0676 0.0410167 0)
(10.1656 0.0312381 0)
(10.1937 0.0352156 0)
(10.1646 0.0558393 0)
(10.1161 0.0840016 0)
(10.0738 0.107781 0)
(10.0422 0.122041 0)
(10.016 0.129212 0)
(9.98932 0.135026 0)
(9.96126 0.144616 0)
(9.93374 0.161379 0)
(9.90906 0.187772 0)
(9.89067 0.223807 0)
(9.87799 0.267144 0)
(10.0243 0.0473161 0)
(10.0371 0.0401887 0)
(10.0494 0.0144981 0)
(10.0427 -0.012341 0)
(10.0357 -0.00753417 0)
(10.0483 0.0426164 0)
(10.0652 0.105469 0)
(10.0664 0.147958 0)
(10.0494 0.157854 0)
(10.0245 0.142958 0)
(10.002 0.121151 0)
(9.98727 0.108064 0)
(9.97878 0.110766 0)
(9.9736 0.129246 0)
(9.96688 0.158578 0)
(9.95571 0.194941 0)
(9.94067 0.234946 0)
(9.92305 0.276928 0)
(9.79294 -0.00858557 0)
(10.0088 -0.0595714 0)
(10.1189 0.0113915 0)
(10.1108 0.0629288 0)
(10.0344 0.0490936 0)
(9.96663 0.0290354 0)
(9.94256 0.0353652 0)
(9.95667 0.0649256 0)
(9.98615 0.0997642 0)
(10.0101 0.125704 0)
(10.0157 0.13904 0)
(10.0025 0.144185 0)
(9.97724 0.148231 0)
(9.95121 0.157475 0)
(9.93285 0.175513 0)
(9.92494 0.203276 0)
(9.92808 0.24029 0)
(9.93677 0.284493 0)
(10.1779 -0.0763021 0)
(9.9986 -0.051217 0)
(9.91631 -0.00530692 0)
(9.94519 0.0198185 0)
(9.98311 0.0375198 0)
(9.99189 0.066203 0)
(9.97486 0.100009 0)
(9.94923 0.124724 0)
(9.92616 0.133514 0)
(9.91049 0.130626 0)
(9.90443 0.125507 0)
(9.90824 0.125585 0)
(9.92082 0.133747 0)
(9.93966 0.149338 0)
(9.9591 0.171073 0)
(9.97615 0.198033 0)
(9.98583 0.230183 0)
(9.99118 0.269001 0)
(9.99309 0.0260567 0)
(9.95856 -0.00435946 0)
(9.91428 0.0243795 0)
(9.79973 0.04381 0)
(9.70558 0.0380495 0)
(9.69563 0.0390269 0)
(9.75991 0.06128 0)
(9.84989 0.0939442 0)
(9.92147 0.122062 0)
(9.95591 0.137516 0)
(9.95801 0.139882 0)
(9.94283 0.134668 0)
(9.92475 0.129947 0)
(9.91311 0.134215 0)
(9.90611 0.151556 0)
(9.90335 0.183066 0)
(9.89702 0.225427 0)
(9.89386 0.275327 0)
(9.86155 0.0334792 0)
(9.89755 -0.0223706 0)
(9.9753 0.0656385 0)
(10.0052 0.102881 0)
(9.99686 0.0742166 0)
(9.98886 0.0359766 0)
(9.99636 0.0218003 0)
(10.0127 0.0379466 0)
(10.0201 0.0726625 0)
(10.0084 0.108854 0)
(9.98057 0.13469 0)
(9.94913 0.148667 0)
(9.92407 0.156266 0)
(9.912 0.166437 0)
(9.91022 0.184461 0)
(9.91232 0.21245 0)
(9.91348 0.247834 0)
(9.90683 0.28709 0)
(9.85897 0.0468811 0)
(9.76247 -0.0700731 0)
(9.80761 -0.0129857 0)
(9.86152 0.0313538 0)
(9.87545 0.0402731 0)
(9.86195 0.0440314 0)
(9.84009 0.0616533 0)
(9.83323 0.0953635 0)
(9.85082 0.134367 0)
(9.88269 0.163903 0)
(9.9095 0.173619 0)
(9.91774 0.164283 0)
(9.90992 0.146728 0)
(9.8982 0.135371 0)
(9.89758 0.142311 0)
(9.91082 0.169842 0)
(9.93797 0.216408 0)
(9.96789 0.272554 0)
(10.2148 -0.0133822 0)
(10.1324 0.0139512 0)
(10.1324 0.0434895 0)
(10.092 0.0598442 0)
(10.0241 0.0618888 0)
(9.96299 0.0516353 0)
(9.91579 0.0337696 0)
(9.88218 0.0249247 0)
(9.86508 0.0389937 0)
(9.86607 0.0745963 0)
(9.87778 0.11782 0)
(9.88664 0.153227 0)
(9.88515 0.172656 0)
(9.87368 0.17835 0)
(9.86187 0.180382 0)
(9.85824 0.190469 0)
(9.86809 0.214064 0)
(9.89507 0.255782 0)
(10.0936 -0.0508773 0)
(10.0656 -0.0625631 0)
(10.0207 0.0110564 0)
(9.92454 0.0777624 0)
(9.84616 0.0979206 0)
(9.80247 0.102128 0)
(9.77124 0.115316 0)
(9.73567 0.137546 0)
(9.69946 0.156922 0)
(9.68102 0.165828 0)
(9.69141 0.165079 0)
(9.72562 0.158607 0)
(9.76989 0.150838 0)
(9.81288 0.14547 0)
(9.84741 0.146764 0)
(9.87548 0.158387 0)
(9.89971 0.180376 0)
(9.928 0.215094 0)
(10.104 -0.0856681 0)
(10.0477 0.0611195 0)
(9.92459 0.153887 0)
(9.81934 0.156109 0)
(9.75421 0.124481 0)
(9.71992 0.0835544 0)
(9.71336 0.0497237 0)
(9.73918 0.0337507 0)
(9.79417 0.0358887 0)
(9.86869 0.050562 0)
(9.94981 0.0707895 0)
(10.024 0.0908996 0)
(10.0806 0.107813 0)
(10.115 0.12234 0)
(10.1246 0.136643 0)
(10.1137 0.154743 0)
(10.088 0.178425 0)
(10.0567 0.209238 0)
(9.89458 -0.147333 0)
(9.86022 0.00309352 0)
(9.99188 0.120258 0)
(10.1245 0.143267 0)
(10.1849 0.143706 0)
(10.1576 0.139153 0)
(10.0721 0.127633 0)
(9.97163 0.10844 0)
(9.88813 0.0857325 0)
(9.839 0.0661996 0)
(9.82521 0.0552477 0)
(9.83834 0.0570264 0)
(9.8698 0.0738865 0)
(9.9127 0.10555 0)
(9.96159 0.148191 0)
(10.0075 0.195265 0)
(10.0488 0.240742 0)
(10.079 0.278173 0)
(9.8813 0.0875859 0)
(9.85929 -0.00161755 0)
(9.95985 -0.0215486 0)
(9.9923 0.0280673 0)
(9.97168 0.105728 0)
(9.95095 0.176064 0)
(9.95003 0.202822 0)
(9.97402 0.182389 0)
(10.0191 0.140211 0)
(10.0698 0.0993969 0)
(10.1073 0.0675017 0)
(10.122 0.042077 0)
(10.1169 0.0217512 0)
(10.1045 0.00944224 0)
(10.0957 0.0116678 0)
(10.099 0.0311875 0)
(10.1134 0.0669741 0)
(10.1397 0.117217 0)
(9.94117 -0.0706497 0)
(9.87238 -0.0592049 0)
(9.81808 0.0396379 0)
(9.75955 0.114745 0)
(9.75029 0.15221 0)
(9.79597 0.151258 0)
(9.87404 0.103454 0)
(9.96688 0.02796 0)
(10.057 -0.0311858 0)
(10.1293 -0.0422788 0)
(10.1751 -0.00563103 0)
(10.1902 0.0566103 0)
(10.1786 0.118838 0)
(10.1512 0.165545 0)
(10.1147 0.192415 0)
(10.0766 0.205164 0)
(10.0392 0.211473 0)
(10.0099 0.218411 0)
(9.90021 0.0608157 0)
(9.82918 0.101484 0)
(9.78092 0.0872615 0)
(9.76639 0.0894566 0)
(9.81692 0.0822273 0)
(9.89627 0.03853 0)
(9.94544 -0.0246944 0)
(9.95015 -0.0731518 0)
(9.9305 -0.0839579 0)
(9.90805 -0.0593522 0)
(9.89864 -0.018921 0)
(9.91308 0.0201945 0)
(9.95102 0.0519697 0)
(10.0008 0.0784122 0)
(10.0509 0.104543 0)
(10.0913 0.134532 0)
(10.1214 0.169524 0)
(10.1391 0.205933 0)
(10.0007 -0.207364 0)
(10.0422 0.00399694 0)
(10.095 0.100971 0)
(10.1389 0.0326328 0)
(10.18 -0.024554 0)
(10.1949 -0.00828421 0)
(10.1773 0.0447542 0)
(10.1367 0.0812112 0)
(10.0818 0.0757886 0)
(10.0253 0.0380282 0)
(9.98471 -0.00633316 0)
(9.97109 -0.0363619 0)
(9.98219 -0.0421997 0)
(10.0091 -0.0221171 0)
(10.0446 0.0170334 0)
(10.0841 0.0643718 0)
(10.1241 0.109515 0)
(10.1633 0.144342 0)
(9.85666 -0.0196809 0)
(9.90227 -0.0573305 0)
(9.97187 -0.0646628 0)
(9.98634 -0.0183552 0)
(9.97705 0.0138151 0)
(9.98912 0.025783 0)
(10.0432 0.0481245 0)
(10.124 0.0834317 0)
(10.2051 0.108929 0)
(10.2627 0.104979 0)
(10.2783 0.0687442 0)
(10.251 0.0145123 0)
(10.1989 -0.0377344 0)
(10.1417 -0.0708074 0)
(10.0927 -0.0779907 0)
(10.0624 -0.0626007 0)
(10.0534 -0.0337802 0)
(10.0692 0.00133036 0)
(10.0619 -0.129971 0)
(10.0627 -0.14839 0)
(10.1043 -0.0566504 0)
(10.1277 0.00468902 0)
(10.0771 -0.00611175 0)
(9.97607 -0.0619263 0)
(9.8871 -0.111505 0)
(9.85334 -0.121135 0)
(9.8817 -0.0884179 0)
(9.94488 -0.0265634 0)
(10.005 0.0450647 0)
(10.0353 0.108134 0)
(10.0305 0.149292 0)
(10.003 0.161779 0)
(9.96785 0.146525 0)
(9.93746 0.113577 0)
(9.91896 0.071959 0)
(9.91576 0.0347156 0)
(9.85296 -0.0128267 0)
(9.85543 -0.148719 0)
(9.84894 -0.111953 0)
(9.89453 0.0156283 0)
(9.9619 0.149322 0)
(9.99539 0.200553 0)
(9.98778 0.146644 0)
(9.95737 0.0429718 0)
(9.93414 -0.0409426 0)
(9.9392 -0.075229 0)
(9.97033 -0.0627726 0)
(10.0161 -0.0257007 0)
(10.0654 0.0134827 0)
(10.1082 0.0375964 0)
(10.1359 0.0406872 0)
(10.1472 0.0289337 0)
(10.1438 0.00982485 0)
(10.1331 -0.00720163 0)
(10.0606 -0.16237 0)
(10.0954 -0.196703 0)
(10.0687 -0.129778 0)
(10.0546 -0.0657612 0)
(10.0635 -0.0409088 0)
(10.0768 -0.0296879 0)
(10.0881 -0.0269421 0)
(10.0919 -0.0358172 0)
(10.0836 -0.0506398 0)
(10.0699 -0.0581471 0)
(10.0622 -0.046168 0)
(10.0641 -0.0126337 0)
(10.0701 0.0309365 0)
(10.0711 0.0709339 0)
(10.0627 0.0958885 0)
(10.0427 0.102496 0)
(10.0146 0.0913265 0)
(9.98124 0.0662551 0)
(10.239 -0.174925 0)
(10.1424 -0.131039 0)
(10.0591 -0.0857492 0)
(9.98121 0.00377668 0)
(9.93226 0.0971056 0)
(9.91146 0.132863 0)
(9.91923 0.100013 0)
(9.95101 0.0307331 0)
(9.99073 -0.0322176 0)
(10.0275 -0.0634886 0)
(10.0594 -0.0623752 0)
(10.0913 -0.037207 0)
(10.1297 -0.000443515 0)
(10.1782 0.0377142 0)
(10.2368 0.0684687 0)
(10.2992 0.085223 0)
(10.3613 0.0874009 0)
(10.4136 0.076261 0)
(9.84662 -0.134963 0)
(9.89346 -0.0627696 0)
(9.9146 -0.0182074 0)
(9.90013 0.0232342 0)
(9.91909 0.038659 0)
(9.98594 0.00832889 0)
(10.0748 -0.0413289 0)
(10.1532 -0.0843179 0)
(10.1983 -0.107203 0)
(10.2038 -0.109683 0)
(10.1844 -0.0967263 0)
(10.1622 -0.0743513 0)
(10.1511 -0.0496581 0)
(10.1538 -0.0301938 0)
(10.1636 -0.020756 0)
(10.1744 -0.0203556 0)
(10.1813 -0.0254201 0)
(10.1843 -0.0307574 0)
(10.3407 0.0556245 0)
(10.2657 -0.0987423 0)
(10.1899 -0.0933373 0)
(10.1749 -0.0103691 0)
(10.2219 0.0372437 0)
(10.2692 0.0223303 0)
(10.2899 -0.0227993 0)
(10.2918 -0.0577498 0)
(10.2848 -0.0678145 0)
(10.2706 -0.0583137 0)
(10.2505 -0.0406366 0)
(10.2287 -0.0217214 0)
(10.2115 -0.00320917 0)
(10.203 0.0157557 0)
(10.2051 0.0342896 0)
(10.2157 0.049428 0)
(10.2309 0.0575607 0)
(10.2469 0.0536296 0)
(10.1678 0.0529247 0)
(10.0722 0.0272928 0)
(9.90681 0.00110463 0)
(9.86467 0.00978048 0)
(9.94456 0.00161981 0)
(10.0747 -0.0263773 0)
(10.1905 -0.062484 0)
(10.2573 -0.0901363 0)
(10.2711 -0.0973195 0)
(10.2501 -0.083878 0)
(10.2217 -0.0600203 0)
(10.2067 -0.0375723 0)
(10.2112 -0.023271 0)
(10.2318 -0.0184372 0)
(10.2599 -0.0208802 0)
(10.287 -0.028048 0)
(10.3075 -0.0368482 0)
(10.3169 -0.0444513 0)
(9.88609 0.0767644 0)
(9.95743 0.053284 0)
(10.0562 0.0132274 0)
(10.1275 -0.0310661 0)
(10.1441 -0.0691079 0)
(10.1296 -0.0973973 0)
(10.1132 -0.106343 0)
(10.1098 -0.0898417 0)
(10.114 -0.0601155 0)
(10.1137 -0.0350893 0)
(10.1041 -0.0231428 0)
(10.091 -0.0219886 0)
(10.0831 -0.024163 0)
(10.0866 -0.0218179 0)
(10.1043 -0.0113563 0)
(10.133 0.0050305 0)
(10.1689 0.0227892 0)
(10.2051 0.0323383 0)
(10.101 -0.0817338 0)
(10.0614 -0.058212 0)
(10.1365 -0.0462751 0)
(10.2249 -0.0157105 0)
(10.2877 -0.00643083 0)
(10.314 -0.0314753 0)
(10.2951 -0.0717576 0)
(10.2428 -0.0975511 0)
(10.176 -0.093948 0)
(10.112 -0.0686978 0)
(10.0663 -0.0392574 0)
(10.0499 -0.0203131 0)
(10.0629 -0.0182773 0)
(10.0967 -0.0301412 0)
(10.1408 -0.0476104 0)
(10.1864 -0.0635543 0)
(10.2284 -0.0739727 0)
(10.2643 -0.0776138 0)
(9.77505 0.0373321 0)
(9.80643 0.0220543 0)
(9.69497 -0.0458891 0)
(9.51726 -0.0796227 0)
(9.36209 -0.0867477 0)
(9.1913 -0.0825521 0)
(8.97882 -0.0674868 0)
(8.76432 -0.0423557 0)
(8.59683 -0.0158438 0)
(8.49249 -0.00147525 0)
(8.43451 -0.00584011 0)
(8.38976 -0.0237829 0)
(8.32749 -0.0442315 0)
(8.2363 -0.0565045 0)
(8.12342 -0.0560937 0)
(8.00682 -0.0459195 0)
(7.89784 -0.0317577 0)
(7.80585 -0.0211769 0)
(-0.0697609 0.214693 -9.24085e-20)
(-0.253183 0.205213 9.16535e-20)
(-0.365196 0.136645 0)
(-0.443485 0.0948846 0)
(-0.501746 0.0580246 0)
(-0.547405 0.0272641 -8.89327e-20)
(-0.58252 0.00592299 0)
(-0.603216 -0.00734815 0)
(-0.603404 -0.0178095 0)
(-0.577154 -0.0299029 0)
(-0.516879 -0.0396421 8.58062e-20)
(-0.428628 -0.0220603 0)
(-0.334976 0.0492929 0)
(-0.27557 0.19382 0)
(-0.34039 0.27317 0)
(-0.514952 0.190893 8.2358e-20)
(-0.674433 0.0764229 0)
(-0.7804 0.0256635 0)
(-0.852443 0.00857357 0)
(-0.92695 0.00391846 0)
(-1.02767 0.0196488 0)
(-1.16119 0.0599913 0)
(-1.33662 0.120068 0)
(-1.57757 0.20653 7.6979e-20)
(-1.91541 0.32174 -7.62978e-20)
(-2.36924 0.411251 7.56149e-20)
(-2.90014 0.396039 7.49597e-20)
(-3.4038 0.329169 0)
(-3.83129 0.359074 0)
(-4.2405 0.445515 -7.31936e-20)
(-4.64427 0.393027 -7.26368e-20)
(-4.96093 0.208844 0)
(-5.16246 0.0863751 0)
(-5.31271 0.0772053 -7.10317e-20)
(-5.45877 0.0830236 0)
(-5.59728 0.0560939 0)
(-5.71537 0.0240107 6.93895e-20)
(-5.80973 0.00675285 0)
(-5.88135 -0.00448493 6.82383e-20)
(-5.93006 -0.022202 1.35276e-19)
(-5.95208 -0.0472518 0)
(-5.94052 -0.0718875 0)
(-5.89411 -0.0932959 0)
(-5.81233 -0.113629 0)
(-5.69423 -0.134602 0)
(-5.53901 -0.156306 1.27216e-19)
(-5.3463 -0.178961 1.25753e-19)
(-5.11527 -0.201987 1.24268e-19)
(-4.84587 -0.223964 0)
(-4.53948 -0.244376 -1.21268e-19)
(-4.19819 -0.263157 0)
(-3.82311 -0.279865 1.18274e-19)
(-3.41629 -0.293768 1.168e-19)
(-2.98342 -0.303642 0)
(-2.53135 -0.30839 0)
(-2.066 -0.308198 0)
(-1.59421 -0.302657 1.11198e-19)
(-1.12119 -0.295216 0)
(-0.650491 -0.285479 0)
(-0.181055 -0.278665 0)
(0.310405 -0.291374 0)
(0.84129 -0.300472 0)
(1.37272 -0.271966 0)
(1.86194 -0.24512 0)
(2.31706 -0.224348 0)
(2.7458 -0.209461 -1.00119e-19)
(3.15492 -0.207021 0)
(3.5568 -0.178891 0)
(3.91173 -0.128634 9.7196e-20)
(4.1973 -0.043272 9.63202e-20)
(4.33103 0.138542 0)
(4.23987 0.291362 -9.45352e-20)
(3.90085 0.486819 9.35815e-20)
(3.19862 0.603658 0)
(2.40448 0.43068 -9.17035e-20)
(1.67647 0.335226 0)
(1.00628 0.157473 0)
(0.593805 -0.178642 8.90357e-20)
(0.566743 -0.395288 0)
(0.910172 -0.484156 -8.69023e-20)
(1.40086 -0.407788 0)
(1.72958 -0.273201 8.48216e-20)
(1.74667 -0.130757 8.38816e-20)
(1.53712 0.0225688 8.30101e-20)
(1.21809 0.130951 1.64405e-19)
(0.885089 0.164196 -1.62844e-19)
(0.589058 0.154292 0)
(0.343925 0.12849 0)
(0.14907 0.0969337 0)
(0.00105439 0.0664175 -1.56951e-19)
(-0.109233 0.0401343 -1.55455e-19)
(-0.194682 0.0201805 1.53956e-19)
(-0.266887 0.00765962 0)
(-0.339078 0.00351911 -1.51041e-19)
(-0.425481 0.0083152 -1.49636e-19)
(-0.541885 0.0232574 -1.48269e-19)
(-0.705806 0.0499434 0)
(-0.935916 0.0895807 0)
(-1.2503 0.141744 0)
(-1.66376 0.202755 -1.43221e-19)
(-2.18453 0.265321 0)
(-2.81021 0.321336 0)
(-3.52398 0.364743 1.40202e-19)
(-4.29865 0.391479 0)
(-5.10613 0.401462 0)
(-5.91852 0.395765 1.38366e-19)
(-6.71108 0.376675 0)
(-7.46204 0.347218 0)
(-8.15245 0.310138 -1.37236e-19)
(-8.76618 0.267821 -1.36774e-19)
(-9.29084 0.222504 0)
(-9.71793 0.175569 1.35357e-19)
(-10.042 0.127716 0)
(-10.2602 0.0808323 -1.32995e-19)
(-10.3729 0.0380219 0)
(-10.3852 3.41173e-06 -1.2953e-19)
(-10.3107 -0.0347064 -1.27392e-19)
(-10.1512 -0.0659768 0)
(-9.91599 -0.0943072 0)
(-9.60746 -0.120809 0)
(-9.23 -0.145231 0)
(-8.78638 -0.16818 0)
(-8.27882 -0.189812 0)
(-7.71014 -0.209893 0)
(-7.08405 -0.227991 -1.04519e-19)
(-6.40623 -0.243341 1.01458e-19)
(-5.68483 -0.255096 0)
(-4.93052 -0.262435 0)
(-4.15573 -0.264724 0)
(-3.37362 -0.261799 0)
(-2.59787 -0.253974 1.76881e-19)
(-1.84198 -0.241464 0)
(-1.11722 -0.225515 -1.69583e-19)
(-0.431524 -0.206378 1.66587e-19)
(0.199101 -0.188244 0)
(0.771682 -0.167606 0)
(1.29334 -0.14721 0)
(1.75969 -0.127161 -1.56938e-19)
(2.17136 -0.107654 -1.54936e-19)
(2.52957 -0.0887749 0)
(2.83589 -0.0708262 -1.51087e-19)
(3.09267 -0.0549581 -1.4917e-19)
(3.30409 -0.0430413 1.47227e-19)
(3.47702 -0.0348262 0)
(3.61757 -0.0224803 0)
(3.71822 0.00854038 1.41138e-19)
(3.74527 0.0591609 0)
(3.6788 0.105293 0)
(3.536 0.122236 0)
(3.35682 0.104751 0)
(3.18209 0.064012 -1.30356e-19)
(3.03541 0.0190242 -1.28129e-19)
(2.92243 -0.0114501 0)
(2.83714 -0.0214925 -1.23584e-19)
(2.76922 -0.0146993 0)
(2.71026 -0.00285204 0)
(2.6553 0.00427556 -1.16741e-19)
(2.60202 0.00594897 0)
(2.5506 0.00522087 -1.1223e-19)
(2.50418 0.003746 0)
(2.46729 0.00259197 0)
(2.44264 0.00282834 -1.05519e-19)
(2.42997 0.00390008 0)
(2.42989 0.00332601 -1.01047e-19)
(2.44255 0.00267245 0)
(2.459 0.00590708 0)
(2.47252 0.0077335 0)
(2.48747 0.00461865 9.21563e-20)
(2.50222 0.00704902 0)
(2.50583 0.0136473 -8.77727e-20)
(2.50988 0.00624169 0)
(2.51957 -0.00623181 0)
(2.52402 0.00519055 0)
(2.47437 0.00445766 0)
(2.44315 -0.0140143 0)
(2.38911 -0.011407 0)
(2.30828 0.00866359 0)
(2.22999 -0.0203448 1.41289e-19)
(2.27545 -0.0202499 0)
(2.29525 -0.0278759 0)
(0.0389514 0.427493 2.77148e-19)
(0.0897543 0.395923 -2.7516e-19)
(0.232323 0.256466 0)
(0.360964 0.177498 1.80738e-19)
(0.466338 0.158724 0)
(0.508704 0.151109 8.90486e-20)
(0.483544 0.125451 -1.76914e-19)
(0.391632 0.0697332 -1.75697e-19)
(0.25556 -0.0201203 0)
(0.0984492 -0.139383 -1.73267e-19)
(-0.0410222 -0.274906 -8.59138e-20)
(-0.171007 -0.378075 0)
(-0.268619 -0.371919 0)
(-0.287 -0.180971 0)
(-0.220209 0.16911 0)
(-0.22273 0.413133 -8.24365e-20)
(-0.361694 0.434665 0)
(-0.538618 0.336497 1.62084e-19)
(-0.715499 0.27059 0)
(-0.946257 0.326831 0)
(-1.22055 0.430174 -1.57859e-19)
(-1.51261 0.523969 0)
(-1.82689 0.655793 1.55077e-19)
(-2.17281 0.861591 -7.68062e-20)
(-2.54273 1.10703 7.61113e-20)
(-2.91723 1.28837 -7.54388e-20)
(-3.28105 1.30073 -7.4815e-20)
(-3.60255 1.16072 0)
(-3.84356 0.993484 0)
(-4.0144 0.869379 7.31835e-20)
(-4.16367 0.745276 -7.28406e-20)
(-4.3252 0.590419 0)
(-4.50589 0.454652 0)
(-4.70326 0.381875 7.1109e-20)
(-4.90987 0.35692 0)
(-5.11438 0.339038 0)
(-5.30546 0.302938 -6.94382e-20)
(-5.47518 0.24941 0)
(-5.61714 0.191146 6.84708e-20)
(-5.72542 0.132724 -1.35331e-19)
(-5.79667 0.0680561 0)
(-5.83158 -0.00688011 0)
(-5.82715 -0.0893251 -2.63287e-19)
(-5.78144 -0.175387 -2.60505e-19)
(-5.69449 -0.262443 -2.5765e-19)
(-5.56682 -0.349782 1.27562e-19)
(-5.39965 -0.437441 -1.2569e-19)
(-5.1958 -0.523384 -3.72941e-19)
(-4.95768 -0.605251 2.45716e-19)
(-4.6872 -0.682423 1.21157e-19)
(-4.38602 -0.755066 0)
(-4.05606 -0.822374 -1.18132e-19)
(-3.69911 -0.882103 1.16983e-19)
(-3.31681 -0.930689 0)
(-2.91206 -0.964748 0)
(-2.48881 -0.982771 0)
(-2.05024 -0.984465 -1.10996e-19)
(-1.59921 -0.975393 0)
(-1.13583 -0.960798 2.17067e-19)
(-0.657218 -0.95864 0)
(-0.139165 -1.02449 2.12153e-19)
(0.421888 -1.0924 0)
(0.99976 -1.01122 -2.07226e-19)
(1.50465 -0.931139 0)
(1.97972 -0.879038 2.0255e-19)
(2.45648 -0.834128 -1.00248e-19)
(2.93231 -0.805239 0)
(3.41063 -0.77453 -1.9627e-19)
(3.91905 -0.661686 -9.71272e-20)
(4.37042 -0.455018 -9.62393e-20)
(4.70888 -0.157984 0)
(4.96263 0.229845 -9.49478e-20)
(5.03269 0.675457 -9.3339e-20)
(4.87593 1.06605 0)
(4.50545 1.27518 9.12777e-20)
(3.85015 1.25154 -1.80998e-19)
(3.16928 1.01047 0)
(2.51412 0.710399 -8.86809e-20)
(1.98504 0.0852484 0)
(1.77276 -0.58336 2.60135e-19)
(1.69129 -0.560871 0)
(1.44653 -0.066238 -2.54548e-19)
(0.974602 0.359329 -8.39925e-20)
(0.438733 0.548499 8.31813e-20)
(-0.041146 0.577051 1.64803e-19)
(-0.437439 0.524615 -1.63165e-19)
(-0.75642 0.440346 0)
(-1.01295 0.351755 0)
(-1.22216 0.272838 0)
(-1.39801 0.210903 4.69918e-19)
(-1.55389 0.168029 1.55086e-19)
(-1.70156 0.145215 -1.53573e-19)
(-1.85134 0.14199 0)
(-2.01413 0.158433 -1.50526e-19)
(-2.20022 0.195685 1.492e-19)
(-2.41903 0.255018 1.47811e-19)
(-2.6797 0.336688 0)
(-2.99041 0.438589 0)
(-3.35737 0.554836 0)
(-3.78365 0.675486 1.42696e-19)
(-4.26791 0.788568 0)
(-4.80391 0.883841 -2.81265e-19)
(-5.38108 0.954073 -4.1936e-19)
(-5.98562 0.993945 2.78324e-19)
(-6.60382 1.00258 0)
(-7.2209 0.982027 1.38512e-19)
(-7.82157 0.936155 0)
(-8.39099 0.868283 2.7532e-19)
(-8.9157 0.78129 -1.37695e-19)
(-9.38344 0.678564 -1.37304e-19)
(-9.78297 0.563926 0)
(-10.1053 0.441368 -4.06457e-19)
(-10.3449 0.314716 2.6917e-19)
(-10.5002 0.188122 1.32938e-19)
(-10.5721 0.0671528 0)
(-10.5619 -0.0443776 1.29501e-19)
(-10.4648 -0.147532 3.82589e-19)
(-10.2894 -0.241782 0)
(-10.0363 -0.327995 2.45232e-19)
(-9.71249 -0.407704 2.39695e-19)
(-9.32047 -0.481894 2.33883e-19)
(-8.86272 -0.551818 0)
(-8.34133 -0.617948 0)
(-7.75817 -0.679802 0)
(-7.11646 -0.735861 -1.04744e-19)
(-6.42131 -0.783792 -1.01376e-19)
(-5.68041 -0.820915 0)
(-4.90415 -0.844676 -1.91376e-19)
(-4.10501 -0.853188 -1.86072e-19)
(-3.29649 -0.845881 0)
(-2.49232 -0.823422 -1.76755e-19)
(-1.70581 -0.786821 -3.45888e-19)
(-0.948899 -0.739934 1.69488e-19)
(-0.230945 -0.68419 1.66571e-19)
(0.43404 -0.627049 0)
(1.04419 -0.566006 0)
(1.60433 -0.505233 0)
(2.11087 -0.446032 1.56809e-19)
(2.56408 -0.38932 -1.54959e-19)
(2.96452 -0.335615 -3.05908e-19)
(3.31296 -0.285245 1.50971e-19)
(3.61077 -0.238534 -1.49197e-19)
(3.85965 -0.196013 -1.47119e-19)
(4.05973 -0.158315 0)
(4.21016 -0.123778 0)
(4.32012 -0.0855738 1.41146e-19)
(4.4211 -0.0372904 0)
(4.52869 0.0170397 0)
(4.6321 0.0655449 -2.69226e-19)
(4.72054 0.0988768 0)
(4.7857 0.1173 -1.30192e-19)
(4.81519 0.125976 1.27906e-19)
(4.78501 0.124499 0)
(4.67693 0.110657 -1.23371e-19)
(4.50384 0.08898 0)
(4.30409 0.06852 0)
(4.11412 0.0557934 1.16574e-19)
(3.94926 0.0503811 -2.28662e-19)
(3.80866 0.0476863 1.12095e-19)
(3.6893 0.0417131 0)
(3.59207 0.0306019 0)
(3.51952 0.0167898 -1.05422e-19)
(3.47231 0.00266388 0)
(3.4495 -0.0107147 -1.00963e-19)
(3.44589 -0.0201017 0)
(3.45169 -0.0229928 0)
(3.46776 -0.0223566 0)
(3.48976 -0.0212921 -9.20812e-20)
(3.51444 -0.0181052 0)
(3.55421 -0.0167631 8.76976e-20)
(3.62635 -0.0125446 0)
(3.6828 -0.00471046 0)
(3.69498 0.0109162 -1.62339e-19)
(3.67619 0.0343139 1.58035e-19)
(3.59217 0.0543848 0)
(3.40643 0.0660612 0)
(3.21777 0.0747314 0)
(3.08065 0.0359221 -4.23644e-19)
(3.04527 0.00324495 0)
(3.04001 -0.0560875 2.64933e-19)
(0.0188727 0.0113275 8.92187e-23)
(0.289409 -0.182379 3.66567e-19)
(0.72584 -0.366051 0)
(1.14672 -0.39414 -3.60424e-19)
(1.51741 -0.257 0)
(1.80834 -0.0136777 0)
(1.99198 0.242031 -2.96102e-22)
(2.07058 0.452986 1.74801e-19)
(2.04827 0.598037 1.73828e-19)
(1.92949 0.620851 1.72286e-19)
(1.71042 0.535222 0)
(1.37555 0.456307 0)
(1.01497 0.340959 -1.68882e-19)
(0.629598 0.126515 -3.35317e-19)
(0.285723 0.145607 3.32813e-19)
(0.126789 0.483583 0)
(0.0356054 0.716775 3.27423e-19)
(-0.10047 0.710988 -1.62204e-19)
(-0.364824 0.744438 0)
(-0.711074 0.904026 3.18786e-19)
(-1.03209 1.02763 1.57818e-19)
(-1.33748 1.12426 -3.13159e-19)
(-1.65989 1.25823 -1.55022e-19)
(-1.98587 1.43092 0)
(-2.28513 1.59631 3.05166e-19)
(-2.53219 1.6755 3.02723e-19)
(-2.72981 1.59389 0)
(-2.91083 1.3827 2.98179e-19)
(-3.1152 1.18609 0)
(-3.36794 1.0889 2.93806e-19)
(-3.6691 1.02102 1.45597e-19)
(-4.00885 0.91657 0)
(-4.37553 0.835767 0)
(-4.74644 0.825014 0)
(-5.08923 0.81603 0)
(-5.37952 0.748037 0)
(-5.6144 0.642861 0)
(-5.80117 0.531638 2.76209e-19)
(-5.94064 0.410571 -4.10515e-19)
(-6.03128 0.272801 0)
(-6.07574 0.125894 0)
(-6.07684 -0.0232447 0)
(-6.03755 -0.173673 -7.0698e-22)
(-5.95963 -0.322167 2.60351e-19)
(-5.84404 -0.465385 5.15648e-19)
(-5.69389 -0.602698 -5.09776e-19)
(-5.51298 -0.733024 -2.52202e-19)
(-5.3048 -0.855333 2.4857e-19)
(-5.07271 -0.969365 5.60938e-22)
(-4.81923 -1.07529 2.42996e-19)
(-4.54678 -1.17361 0)
(-4.2585 -1.26451 2.3685e-19)
(-3.95662 -1.34658 4.86772e-22)
(-3.64107 -1.41669 0)
(-3.31081 -1.47112 0)
(-2.9634 -1.50692 -2.25063e-19)
(-2.59181 -1.52388 0)
(-2.18724 -1.52673 0)
(-1.74622 -1.53729 2.17438e-19)
(-1.26711 -1.60267 4.29059e-19)
(-0.741329 -1.7526 -2.11727e-19)
(-0.244942 -1.85199 0)
(0.291396 -1.65343 2.07323e-19)
(0.696871 -1.49423 0)
(1.10837 -1.44039 2.03292e-19)
(1.55713 -1.41836 2.00504e-19)
(2.04211 -1.41719 -3.97257e-19)
(2.56764 -1.40603 -1.96917e-19)
(3.13382 -1.27346 0)
(3.68961 -0.968135 3.86575e-19)
(4.16878 -0.536383 0)
(4.5574 0.00544676 5.69927e-19)
(4.75578 0.620207 3.76375e-19)
(4.76936 1.18208 3.71796e-19)
(4.61214 1.61184 -3.66953e-19)
(4.27312 1.74019 5.42888e-19)
(3.82259 1.6236 0)
(3.15131 1.39233 0)
(2.60054 0.569979 -3.50003e-19)
(2.09139 -0.190703 -5.19722e-19)
(1.4053 0.0105428 0)
(0.706112 0.621766 1.69875e-19)
(0.0973901 0.979831 0)
(-0.358637 1.0561 -4.9931e-19)
(-0.683504 0.984285 2.46161e-22)
(-0.91932 0.849093 -2.73832e-22)
(-1.09867 0.700336 3.22911e-19)
(-1.24598 0.56453 0)
(-1.37812 0.454779 -3.1646e-19)
(-1.50697 0.375949 9.66581e-23)
(-1.64149 0.328062 0)
(-1.78907 0.309407 0)
(-1.95565 0.317785 0)
(-2.14539 0.351977 3.00986e-19)
(-2.3618 0.412188 0)
(-2.60786 0.498885 0)
(-2.88562 0.61149 0)
(-3.19654 0.74697 0)
(-3.54195 0.898556 0)
(-3.92335 1.05562 2.84978e-19)
(-4.34273 1.20523 0)
(-4.80305 1.3349 2.81053e-19)
(-5.30787 1.43451 2.79449e-19)
(-5.85772 1.49764 -2.78142e-19)
(-6.44672 1.52161 0)
(-7.06167 1.50581 -2.76334e-19)
(-7.68345 1.44987 0)
(-8.28957 1.35459 -2.75145e-19)
(-8.85724 1.22442 2.74525e-19)
(-9.36617 1.06601 8.23393e-19)
(-9.79941 0.886294 0)
(-10.1448 0.692552 8.156e-19)
(-10.3962 0.492342 2.71347e-19)
(-10.551 0.292185 0)
(-10.6095 0.0974237 5.28788e-19)
(-10.5782 -0.085975 5.21016e-19)
(-10.4639 -0.256747 -7.67315e-19)
(-10.2723 -0.413146 0)
(-10.0094 -0.556142 -2.45146e-19)
(-9.67968 -0.687628 -2.39593e-19)
(-9.28633 -0.810373 -7.0261e-19)
(-8.83126 -0.9264 0)
(-8.31536 -1.03668 0)
(-7.73961 -1.14052 0)
(-7.10613 -1.23526 -2.10046e-19)
(-6.41917 -1.3169 0)
(-5.68582 -1.38072 0)
(-4.91613 -1.42223 1.91195e-19)
(-4.12258 -1.43829 1.85893e-19)
(-3.31868 -1.42767 0)
(-2.51771 -1.39097 0)
(-1.73267 -1.33103 3.45574e-19)
(-0.975418 -1.25349 0)
(-0.254694 -1.16233 -3.32798e-19)
(0.416156 -1.06601 -3.27536e-19)
(1.03649 -0.964876 0)
(1.61116 -0.863946 0)
(2.13804 -0.765158 3.13833e-19)
(2.61875 -0.669362 -2.68002e-22)
(3.05442 -0.576697 -2.72331e-22)
(3.44393 -0.487535 0)
(3.78298 -0.403304 5.96474e-19)
(4.06584 -0.325821 0)
(4.28961 -0.255215 0)
(4.45727 -0.189691 0)
(4.57761 -0.128738 -2.8209e-19)
(4.66475 -0.072817 0)
(4.73718 -0.0233462 5.47406e-19)
(4.81009 0.0120341 2.69197e-19)
(4.88745 0.0257913 0)
(4.96788 0.0242304 2.60307e-19)
(5.04903 0.0302866 0)
(5.12749 0.0643603 0)
(5.18997 0.123433 7.39851e-19)
(5.20658 0.178707 -4.8406e-19)
(5.14562 0.204351 0)
(4.99886 0.198112 -4.65874e-19)
(4.79456 0.174142 2.28442e-19)
(4.57902 0.14579 0)
(4.38704 0.117465 0)
(4.23232 0.0887841 0)
(4.11461 0.0611845 6.32135e-19)
(4.03007 0.0369718 0)
(3.97315 0.0149888 2.01823e-19)
(3.93801 -0.0016392 0)
(3.91845 -0.00804934 0)
(3.90581 -0.0106268 0)
(3.88759 -0.0188213 0)
(3.86995 -0.0292807 0)
(3.87399 -0.0420653 0)
(3.90372 -0.0532666 3.42002e-19)
(3.94273 -0.0424562 0)
(3.96636 -0.000616156 1.62302e-19)
(3.9447 0.0561168 -4.73991e-19)
(3.85805 0.11124 0)
(3.68561 0.151872 0)
(3.51093 0.155582 2.90761e-19)
(3.39006 0.0768432 2.82354e-19)
(3.42463 -0.0163443 -2.73797e-19)
(3.47325 -0.0875334 -2.64828e-19)
(0.0666848 -0.202505 -5.54963e-19)
(0.594424 -1.18475 -5.49586e-19)
(1.11901 -1.5181 -3.63406e-19)
(1.55811 -1.4697 -1.80835e-19)
(1.90791 -1.19371 0)
(2.1716 -0.792298 3.55854e-19)
(2.35853 -0.390049 -1.7736e-19)
(2.49664 -0.0419888 0)
(2.59803 0.279997 -1.73534e-19)
(2.61839 0.545924 0)
(2.53503 0.768109 3.427e-19)
(2.36587 0.93718 0)
(2.08903 0.98449 1.68206e-19)
(1.69936 1.07789 3.33971e-19)
(1.304 1.11971 -3.31601e-19)
(1.01036 0.923752 0)
(0.804782 0.872223 -3.26582e-19)
(0.49993 1.107 0)
(0.0176693 1.40592 0)
(-0.413482 1.56159 -3.18752e-19)
(-0.731137 1.60091 0)
(-1.02279 1.67483 -5.91015e-22)
(-1.32999 1.81021 0)
(-1.63932 1.95491 0)
(-1.93471 2.05803 5.98508e-22)
(-2.20796 2.07483 -3.0279e-19)
(-2.47597 1.9866 -3.01033e-19)
(-2.78572 1.85668 -2.98139e-19)
(-3.17439 1.79296 0)
(-3.61164 1.79682 -5.87623e-19)
(-4.03485 1.76555 0)
(-4.42667 1.6641 -2.89784e-19)
(-4.79079 1.54621 0)
(-5.10298 1.42756 0)
(-5.34421 1.27887 2.83498e-19)
(-5.53196 1.09936 0)
(-5.68661 0.909231 -2.79307e-19)
(-5.80995 0.716246 1.00848e-21)
(-5.9011 0.519052 5.48786e-19)
(-5.96282 0.319733 -5.45164e-19)
(-5.99339 0.121518 0)
(-5.99049 -0.0749085 0)
(-5.95125 -0.269451 -2.65808e-19)
(-5.87357 -0.45986 0)
(-5.75914 -0.644082 -2.58126e-19)
(-5.60851 -0.819773 2.55159e-19)
(-5.42258 -0.984785 2.52141e-19)
(-5.20361 -1.13793 0)
(-4.95452 -1.27836 -2.46007e-19)
(-4.68 -1.40541 -2.42921e-19)
(-4.38604 -1.51932 4.80994e-19)
(-4.07914 -1.62118 -2.36782e-19)
(-3.76523 -1.71261 -2.33754e-19)
(-3.44926 -1.79624 0)
(-3.13365 -1.87558 0)
(-2.81553 -1.95212 2.24968e-19)
(-2.48477 -2.02381 0)
(-2.1293 -2.09163 0)
(-1.74554 -2.1695 -4.3366e-19)
(-1.33342 -2.2785 -4.28597e-19)
(-0.91231 -2.41241 0)
(-0.5908 -2.46878 0)
(-0.15284 -2.19537 0)
(0.174807 -1.9651 0)
(0.528226 -1.96868 -4.0611e-19)
(0.951069 -2.00699 4.02316e-19)
(1.41439 -2.08296 3.97301e-19)
(1.9521 -2.12637 7.87351e-19)
(2.54802 -2.01592 0)
(3.17497 -1.69138 1.20503e-21)
(3.75594 -1.14971 0)
(4.20673 -0.366694 -3.8056e-19)
(4.41608 0.546282 1.89847e-21)
(4.39376 1.33225 -3.71969e-19)
(4.20142 1.8899 3.6703e-19)
(3.87944 2.12827 9.64592e-22)
(3.48094 2.1809 0)
(2.96828 2.02229 3.53645e-19)
(2.45971 1.21855 3.49789e-19)
(1.78119 0.639829 6.92698e-19)
(0.941103 0.91628 0)
(0.230432 1.34465 -3.39688e-19)
(-0.236875 1.46065 0)
(-0.515644 1.36627 6.65748e-19)
(-0.677686 1.185 -3.29424e-19)
(-0.781375 0.987693 3.26191e-19)
(-0.861544 0.809639 -3.22993e-19)
(-0.938904 0.666221 -6.39971e-19)
(-1.02501 0.561639 3.16626e-19)
(-1.12599 0.49484 -3.13443e-19)
(-1.24526 0.462826 0)
(-1.38534 0.46267 6.14205e-19)
(-1.54884 0.492235 0)
(-1.73794 0.550237 6.01779e-19)
(-1.95459 0.635372 -5.95791e-19)
(-2.20023 0.746932 -5.90001e-19)