/*--------------------------------*- C++ -*----------------------------------*\
  =========                 |
  \\      /  F ield         | OpenFOAM: The Open Source CFD Toolbox
   \\    /   O peration     | Website:  https://openfoam.org
    \\  /    A nd           | Version:  9
     \\/     M anipulation  |
\*---------------------------------------------------------------------------*/
FoamFile
{
    format      ascii;
    class       volVectorField;
    location    "0.082";
    object      U_0;
}
// * * * * * * * * * * * * * * * * * * * * * * * * * * * * * * * * * * * * * //

dimensions      [0 1 -1 0 0 0 0];

internalField   nonuniform List<vector> 
12225
(
(9.80687 0.0308394 0)
(9.61881 0.0533766 0)
(9.22406 0.100159 0)
(8.787 0.0939075 0)
(8.42081 0.0431534 0)
(8.19411 0.00205692 0)
(8.0355 0.00647324 0)
(7.82644 0.0467075 0)
(7.50605 0.0855536 0)
(7.13608 0.0972252 0)
(6.77572 0.0837705 0)
(6.5065 0.0628627 0)
(6.26835 0.0471399 0)
(6.11514 0.0427637 0)
(5.89091 0.0510986 0)
(5.73182 0.0657249 0)
(5.37244 0.0910351 0)
(5.14132 0.114599 0)
(9.67158 0.0577564 0)
(9.71502 0.0660904 0)
(9.83716 0.0764428 0)
(9.94477 0.0887072 0)
(9.9655 0.0967962 0)
(9.92636 0.0929422 0)
(9.89477 0.0872101 0)
(9.91096 0.0940223 0)
(9.94797 0.107277 0)
(9.97246 0.11448 0)
(9.95029 0.106462 0)
(9.89171 0.0919619 0)
(9.78927 0.0802566 0)
(9.68312 0.0781946 0)
(9.5518 0.0883003 0)
(9.44488 0.115225 0)
(9.30413 0.156765 0)
(9.17709 0.190107 0)
(9.90061 0.104434 0)
(9.82932 0.0394208 0)
(9.92344 0.0541 0)
(10.0389 0.0675121 0)
(10.1107 0.0520347 0)
(10.1266 0.01985 0)
(10.0962 0.00345221 0)
(10.0588 0.0216073 0)
(10.0476 0.0608862 0)
(10.0624 0.0983024 0)
(10.078 0.119895 0)
(10.0748 0.12954 0)
(10.0448 0.133809 0)
(9.9915 0.138797 0)
(9.92181 0.148045 0)
(9.84912 0.165514 0)
(9.78922 0.197 0)
(9.74406 0.233934 0)
(9.63405 0.0989103 0)
(9.88357 0.043002 0)
(9.9632 0.0169704 0)
(10.0162 0.0376939 0)
(10.075 0.0667106 0)
(10.099 0.093405 0)
(10.0671 0.112084 0)
(10.0027 0.120771 0)
(9.94471 0.118641 0)
(9.9144 0.10804 0)
(9.91128 0.0955767 0)
(9.92485 0.0894928 0)
(9.94474 0.0949887 0)
(9.96353 0.113037 0)
(9.97382 0.140458 0)
(9.97079 0.17571 0)
(9.95516 0.215294 0)
(9.92458 0.250287 0)
(9.82485 -0.0188895 0)
(9.9296 -0.0302051 0)
(9.90862 0.0209873 0)
(9.97293 0.0447576 0)
(10.0992 0.0366401 0)
(10.1965 0.0279484 0)
(10.2214 0.0333523 0)
(10.1905 0.0550921 0)
(10.1427 0.0836253 0)
(10.1023 0.107086 0)
(10.0728 0.120713 0)
(10.0482 0.127225 0)
(10.0231 0.132424 0)
(9.99657 0.141339 0)
(9.97085 0.157197 0)
(9.94831 0.182169 0)
(9.93195 0.215603 0)
(9.91986 0.254774 0)
(10.0401 0.0304103 0)
(10.05 0.0265992 0)
(10.0653 0.00476249 0)
(10.062 -0.0191885 0)
(10.0591 -0.00990872 0)
(10.0753 0.0435957 0)
(10.0936 0.106586 0)
(10.0946 0.147015 0)
(10.0776 0.154539 0)
(10.0536 0.138317 0)
(10.033 0.116512 0)
(10.0204 0.104199 0)
(10.0139 0.10766 0)
(10.0104 0.126279 0)
(10.0048 0.154817 0)
(9.99444 0.189386 0)
(9.97976 0.226424 0)
(9.96152 0.264534 0)
(9.80736 -0.0136062 0)
(10.0307 -0.0724118 0)
(10.1391 0.0072815 0)
(10.1281 0.0572285 0)
(10.0525 0.0422741 0)
(9.9892 0.0241043 0)
(9.97009 0.0328937 0)
(9.98773 0.0638842 0)
(10.0188 0.0988157 0)
(10.0428 0.123995 0)
(10.0479 0.13633 0)
(10.0345 0.140636 0)
(10.0098 0.144075 0)
(9.98538 0.152786 0)
(9.96911 0.170076 0)
(9.96327 0.196594 0)
(9.96776 0.231637 0)
(9.97623 0.273165 0)
(10.1833 -0.0924621 0)
(10.0013 -0.0623508 0)
(9.9321 -0.0137765 0)
(9.96895 0.0129249 0)
(10.0092 0.0329934 0)
(10.0179 0.0636132 0)
(10.0011 0.0979205 0)
(9.97648 0.121978 0)
(9.95486 0.129792 0)
(9.94087 0.126324 0)
(9.93673 0.121147 0)
(9.94259 0.121361 0)
(9.95713 0.129449 0)
(9.97747 0.144511 0)
(9.99773 0.165211 0)
(10.0148 0.190669 0)
(10.0237 0.220993 0)
(10.0275 0.257888 0)
(9.98681 0.0178372 0)
(9.97045 -0.0227977 0)
(9.92766 0.0128684 0)
(9.81442 0.0347295 0)
(9.72661 0.0307428 0)
(9.72454 0.0342122 0)
(9.79437 0.0584058 0)
(9.88615 0.0917435 0)
(9.95661 0.119442 0)
(9.98896 0.133861 0)
(9.98967 0.135081 0)
(9.97442 0.129008 0)
(9.95736 0.123908 0)
(9.94701 0.128158 0)
(9.94089 0.14547 0)
(9.93829 0.176595 0)
(9.93141 0.217981 0)
(9.92722 0.266443 0)
(9.86266 -0.00338329 0)
(9.91551 -0.0423711 0)
(9.99958 0.0565411 0)
(10.0296 0.092592 0)
(10.0222 0.0636556 0)
(10.0163 0.0274283 0)
(10.0261 0.0162068 0)
(10.0436 0.0349363 0)
(10.0506 0.0708954 0)
(10.0379 0.106824 0)
(10.0098 0.131459 0)
(9.97918 0.144093 0)
(9.95574 0.150737 0)
(9.94539 0.160411 0)
(9.94465 0.178063 0)
(9.94687 0.205449 0)
(9.94714 0.239744 0)
(9.93888 0.277504 0)
(9.87596 -0.010679 0)
(9.78042 -0.0952929 0)
(9.83445 -0.0237001 0)
(9.88893 0.0219383 0)
(9.90203 0.0318446 0)
(9.88824 0.0376317 0)
(9.86767 0.0575501 0)
(9.86347 0.0928558 0)
(9.88358 0.132093 0)
(9.91654 0.160419 0)
(9.94288 0.168083 0)
(9.95004 0.156891 0)
(9.94173 0.13845 0)
(9.93072 0.127358 0)
(9.93163 0.135226 0)
(9.94629 0.163641 0)
(9.97402 0.210519 0)
(10.0029 0.265958 0)
(10.2344 -0.0477545 0)
(10.1569 -0.00680654 0)
(10.1568 0.0300399 0)
(10.1143 0.0486756 0)
(10.0469 0.0520709 0)
(9.98733 0.0426961 0)
(9.94191 0.0260107 0)
(9.91028 0.019198 0)
(9.89525 0.0355886 0)
(9.89793 0.0726447 0)
(9.91035 0.115753 0)
(9.91892 0.149648 0)
(9.91671 0.166961 0)
(9.90483 0.170884 0)
(9.89339 0.172105 0)
(9.89069 0.182269 0)
(9.90175 0.206491 0)
(9.92929 0.24858 0)
(10.1265 -0.0640056 0)
(10.095 -0.0798648 0)
(10.043 0.00110639 0)
(9.94548 0.0688566 0)
(9.87013 0.0888307 0)
(9.82878 0.0945475 0)
(9.79835 0.109787 0)
(9.76305 0.133132 0)
(9.72792 0.152369 0)
(9.71182 0.160452 0)
(9.72493 0.15875 0)
(9.76115 0.151433 0)
(9.80622 0.143031 0)
(9.84892 0.137311 0)
(9.88263 0.138611 0)
(9.90991 0.150456 0)
(9.93367 0.172821 0)
(9.96187 0.207709 0)
(10.1203 -0.0931674 0)
(10.0695 0.0550723 0)
(9.94463 0.141857 0)
(9.8424 0.141951 0)
(9.78055 0.111133 0)
(9.74856 0.0720268 0)
(9.74462 0.0404087 0)
(9.77351 0.0266719 0)
(9.83114 0.0305497 0)
(9.90726 0.0461736 0)
(9.98877 0.0665462 0)
(10.0621 0.0861973 0)
(10.1169 0.102362 0)
(10.1487 0.116152 0)
(10.1555 0.12994 0)
(10.142 0.147837 0)
(10.1143 0.17154 0)
(10.082 0.202562 0)
(9.9063 -0.156134 0)
(9.89203 -0.00151304 0)
(10.0304 0.108781 0)
(10.1623 0.130215 0)
(10.2176 0.132757 0)
(10.1845 0.129867 0)
(10.0958 0.119081 0)
(9.99536 0.100184 0)
(9.91388 0.077805 0)
(9.86752 0.0588404 0)
(9.85633 0.0487225 0)
(9.87149 0.0515837 0)
(9.90434 0.0695852 0)
(9.94798 0.102165 0)
(9.99681 0.145157 0)
(10.042 0.191863 0)
(10.0819 0.236248 0)
(10.1104 0.272014 0)
(9.87559 0.0645701 0)
(9.88005 -0.0329885 0)
(9.99478 -0.0397575 0)
(10.0254 0.0188391 0)
(10.0031 0.100684 0)
(9.98249 0.171151 0)
(9.98304 0.195692 0)
(10.0089 0.173339 0)
(10.0551 0.130691 0)
(10.1053 0.0903391 0)
(10.1407 0.0589419 0)
(10.1531 0.0337663 0)
(10.1462 0.0136905 0)
(10.1332 0.00208875 0)
(10.1247 0.00558397 0)
(10.1289 0.0265742 0)
(10.1439 0.0637931 0)
(10.1704 0.114937 0)
(9.96461 -0.140184 0)
(9.9065 -0.088034 0)
(9.85471 0.0258594 0)
(9.79566 0.105312 0)
(9.78806 0.143569 0)
(9.83567 0.141419 0)
(9.91497 0.0918561 0)
(10.0077 0.0165524 0)
(10.0962 -0.0394667 0)
(10.1658 -0.0460597 0)
(10.2086 -0.00588107 0)
(10.2204 0.0575329 0)
(10.2061 0.118744 0)
(10.1767 0.163295 0)
(10.1388 0.187979 0)
(10.1 0.199263 0)
(10.0623 0.20495 0)
(10.0331 0.211982 0)
(9.94106 0.0187386 0)
(9.88582 0.0782779 0)
(9.82975 0.0727211 0)
(9.81193 0.0804366 0)
(9.86173 0.0740011 0)
(9.93816 0.0294894 0)
(9.98241 -0.0332083 0)
(9.98269 -0.0792924 0)
(9.96063 -0.0869358 0)
(9.93774 -0.0600555 0)
(9.92936 -0.0190393 0)
(9.94549 0.0194429 0)
(9.98473 0.050295 0)
(10.0347 0.0761846 0)
(10.0839 0.10232 0)
(10.1227 0.132668 0)
(10.151 0.167949 0)
(10.1672 0.204129 0)
(10.0474 -0.209542 0)
(10.1239 0.0153901 0)
(10.1581 0.101878 0)
(10.1906 0.0279137 0)
(10.2243 -0.0258839 0)
(10.233 -0.00547327 0)
(10.2103 0.0478811 0)
(10.1658 0.0812588 0)
(10.1085 0.0719595 0)
(10.0515 0.0319102 0)
(10.012 -0.0125512 0)
(10.0001 -0.041089 0)
(10.0125 -0.0446725 0)
(10.0401 -0.0224521 0)
(10.0759 0.0180144 0)
(10.1152 0.0655666 0)
(10.1548 0.109843 0)
(10.1935 0.143039 0)
(9.88923 0.00827563 0)
(9.97273 -0.0345155 0)
(10.0279 -0.0470232 0)
(10.0308 -0.00452329 0)
(10.0157 0.0226312 0)
(10.027 0.031736 0)
(10.0822 0.0532406 0)
(10.1627 0.0874648 0)
(10.2417 0.110298 0)
(10.2955 0.102572 0)
(10.3063 0.0630897 0)
(10.2751 0.00741125 0)
(10.2207 -0.0442404 0)
(10.1629 -0.0753025 0)
(10.1148 -0.0801479 0)
(10.0862 -0.0629478 0)
(10.0794 -0.0331491 0)
(10.0971 0.00219945 0)
(10.1012 -0.0637157 0)
(10.1225 -0.102414 0)
(10.1506 -0.0249125 0)
(10.1643 0.0228256 0)
(10.1055 0.00176221 0)
(10.0007 -0.0590353 0)
(9.91304 -0.109134 0)
(9.88327 -0.117212 0)
(9.91492 -0.0824382 0)
(9.97881 -0.0195576 0)
(10.037 0.0515829 0)
(10.0636 0.112689 0)
(10.0553 0.150788 0)
(10.0258 0.159874 0)
(9.98992 0.141699 0)
(9.96003 0.106882 0)
(9.94268 0.0646542 0)
(9.94071 0.0280412 0)
(9.85571 0.0465021 0)
(9.87166 -0.108154 0)
(9.87769 -0.0775951 0)
(9.92725 0.0440754 0)
(9.99446 0.168966 0)
(10.025 0.208652 0)
(10.0144 0.145569 0)
(9.98299 0.0387181 0)
(9.96107 -0.0438838 0)
(9.96818 -0.0748701 0)
(10.001 -0.0598346 0)
(10.0475 -0.0221335 0)
(10.0964 0.0159617 0)
(10.1378 0.0377992 0)
(10.1635 0.0386315 0)
(10.1728 0.0253847 0)
(10.1677 0.00574164 0)
(10.1561 -0.0108972 0)
(10.0798 -0.132532 0)
(10.1156 -0.157941 0)
(10.0882 -0.099125 0)
(10.0777 -0.0447704 0)
(10.0888 -0.027197 0)
(10.1032 -0.0206162 0)
(10.115 -0.0213424 0)
(10.1178 -0.0327938 0)
(10.1086 -0.0490444 0)
(10.095 -0.0563549 0)
(10.0879 -0.0430986 0)
(10.0905 -0.00844831 0)
(10.0961 0.0350895 0)
(10.096 0.0738078 0)
(10.0861 0.0966967 0)
(10.0645 0.100996 0)
(10.0352 0.0876675 0)
(10.0014 0.0611404 0)
(10.2399 -0.110545 0)
(10.1441 -0.091083 0)
(10.0668 -0.0579808 0)
(9.99484 0.0266843 0)
(9.95088 0.112964 0)
(9.93393 0.140348 0)
(9.94503 0.100716 0)
(9.97892 0.0281513 0)
(10.0193 -0.034209 0)
(10.0559 -0.063446 0)
(10.0879 -0.0602494 0)
(10.1202 -0.0336719 0)
(10.1595 0.00340416 0)
(10.2092 0.0410683 0)
(10.2687 0.0704265 0)
(10.3314 0.0853554 0)
(10.3929 0.085699 0)
(10.4439 0.0730253 0)
(9.82179 -0.0797566 0)
(9.89099 -0.0270551 0)
(9.9223 0.00389937 0)
(9.91472 0.0387483 0)
(9.94052 0.047238 0)
(10.0132 0.0114536 0)
(10.1044 -0.0406459 0)
(10.1821 -0.0839733 0)
(10.2248 -0.106269 0)
(10.2278 -0.10789 0)
(10.2073 -0.0942385 0)
(10.1856 -0.0716194 0)
(10.1757 -0.0473141 0)
(10.1793 -0.0288507 0)
(10.1893 -0.0207095 0)
(10.1998 -0.0213034 0)
(10.2059 -0.0268291 0)
(10.2083 -0.0321206 0)
(10.3053 0.0625213 0)
(10.2476 -0.0866712 0)
(10.1898 -0.0755081 0)
(10.1884 0.00433063 0)
(10.2427 0.0455817 0)
(10.2919 0.0249934 0)
(10.3127 -0.0225538 0)
(10.3145 -0.0571943 0)
(10.3076 -0.0661708 0)
(10.2934 -0.055973 0)
(10.2732 -0.0382262 0)
(10.2515 -0.0195111 0)
(10.2349 -0.00114468 0)
(10.2274 0.0176876 0)
(10.2303 0.03594 0)
(10.2415 0.0503624 0)
(10.2569 0.0572367 0)
(10.2728 0.0517821 0)
(10.1597 0.042287 0)
(10.0534 0.0312423 0)
(9.90274 0.010349 0)
(9.87708 0.0170703 0)
(9.96836 0.0055537 0)
(10.1035 -0.0249494 0)
(10.2192 -0.0623572 0)
(10.2832 -0.0898292 0)
(10.2941 -0.0959265 0)
(10.272 -0.0814522 0)
(10.2443 -0.0573547 0)
(10.231 -0.0354699 0)
(10.2374 -0.0221617 0)
(10.2591 -0.0183642 0)
(10.2875 -0.0216118 0)
(10.314 -0.029308 0)
(10.3333 -0.0382618 0)
(10.3413 -0.0456952 0)
(9.89925 0.0605883 0)
(9.95935 0.057071 0)
(10.0654 0.0167112 0)
(10.1406 -0.0292349 0)
(10.1591 -0.0680755 0)
(10.1465 -0.0963208 0)
(10.1327 -0.104165 0)
(10.1317 -0.0865405 0)
(10.1373 -0.0568936 0)
(10.1371 -0.0329374 0)
(10.1275 -0.0222178 0)
(10.1146 -0.0217788 0)
(10.1074 -0.0239247 0)
(10.1121 -0.0209744 0)
(10.1311 -0.00980977 0)
(10.1608 0.00691289 0)
(10.1971 0.0242279 0)
(10.2332 0.0324959 0)
(10.1028 -0.0514265 0)
(10.059 -0.0545708 0)
(10.1454 -0.041666 0)
(10.2398 -0.0111892 0)
(10.3057 -0.0047386 0)
(10.3324 -0.0324197 0)
(10.3126 -0.0733992 0)
(10.26 -0.097898 0)
(10.1939 -0.092455 0)
(10.1318 -0.0661508 0)
(10.0888 -0.0368914 0)
(10.0753 -0.0190986 0)
(10.0909 -0.0185491 0)
(10.1264 -0.031485 0)
(10.1713 -0.0493495 0)
(10.217 -0.0651111 0)
(10.2587 -0.0749772 0)
(10.2938 -0.0779784 0)
(9.77219 0.0575758 0)
(9.80975 0.0214057 0)
(9.69979 -0.0488485 0)
(9.52736 -0.0802386 0)
(9.37763 -0.0861728 0)
(9.20803 -0.0812739 0)
(8.99573 -0.0655795 0)
(8.7836 -0.0402143 0)
(8.62042 -0.0143095 0)
(8.52031 -0.00128176 0)
(8.46471 -0.00696966 0)
(8.41977 -0.0255099 0)
(8.35546 -0.0456437 0)
(8.26188 -0.0569337 0)
(8.14746 -0.055487 0)
(8.03053 -0.0447069 0)
(7.92205 -0.0305594 0)
(7.8307 -0.0205029 0)
(-0.0698068 0.214667 -2.31546e-20)
(-0.253468 0.205622 2.29692e-20)
(-0.365804 0.137104 0)
(-0.44437 0.0954102 0)
(-0.502846 0.0586005 0)
(-0.548441 0.0277257 -2.23361e-20)
(-0.583101 0.00605679 0)
(-0.603005 -0.00771121 0)
(-0.602188 -0.0187629 0)
(-0.574847 -0.031333 0)
(-0.513396 -0.0413362 2.16119e-20)
(-0.42403 -0.0238933 0)
(-0.329312 0.0472548 0)
(-0.268715 0.192075 0)
(-0.332266 0.27278 0)
(-0.50629 0.191817 2.06628e-20)
(-0.666099 0.0773472 0)
(-0.772572 0.0262222 0)
(-0.844981 0.00913189 0)
(-0.919662 0.00448553 0)
(-1.02044 0.0200008 0)
(-1.15383 0.0599433 0)
(-1.32862 0.119374 0)
(-1.56795 0.204791 1.93043e-20)
(-1.90301 0.319475 -1.91597e-20)
(-2.35376 0.410916 1.90263e-20)
(-2.88388 0.398167 1.89175e-20)
(-3.38969 0.328376 0)
(-3.81797 0.352626 0)
(-4.2254 0.441782 -1.87141e-20)
(-4.63002 0.398946 -1.86646e-20)
(-4.9518 0.217149 0)
(-5.15716 0.0881425 0)
(-5.3072 0.0746076 -1.85034e-20)
(-5.45159 0.0815549 0)
(-5.58892 0.0561566 0)
(-5.70615 0.0235386 1.82566e-20)
(-5.79939 0.00529949 0)
(-5.86958 -0.0060058 1.80123e-20)
(-5.91678 -0.0232019 3.57166e-20)
(-5.93747 -0.0479863 0)
(-5.92493 -0.0727861 0)
(-5.87749 -0.0943881 0)
(-5.79473 -0.114747 0)
(-5.67576 -0.13566 0)
(-5.51975 -0.157259 3.28301e-20)
(-5.32639 -0.17978 3.21936e-20)
(-5.09481 -0.202719 3.15263e-20)
(-4.82489 -0.224659 0)
(-4.51794 -0.245041 -3.01298e-20)
(-4.17608 -0.26379 0)
(-3.80043 -0.28048 2.87048e-20)
(-3.39294 -0.294396 2.80024e-20)
(-2.95926 -0.3043 0)
(-2.50628 -0.30905 0)
(-2.03996 -0.308835 0)
(-1.56718 -0.303202 2.54294e-20)
(-1.09329 -0.295599 0)
(-0.621985 -0.285638 0)
(-0.152193 -0.278535 0)
(0.338905 -0.291009 0)
(0.86878 -0.299736 0)
(1.39943 -0.27142 0)
(1.88825 -0.244598 0)
(2.34286 -0.223719 0)
(2.77069 -0.208908 -2.18306e-20)
(3.17881 -0.20622 0)
(3.57921 -0.177284 0)
(3.9317 -0.126765 2.1404e-20)
(4.21432 -0.0400217 2.13216e-20)
(4.34251 0.141737 0)
(4.24665 0.292922 -2.10517e-20)
(3.90333 0.487529 2.08163e-20)
(3.19967 0.599382 0)
(2.41045 0.424685 -2.0267e-20)
(1.68681 0.333526 0)
(1.019 0.156128 0)
(0.609136 -0.179972 1.95703e-20)
(0.586414 -0.396373 0)
(0.932948 -0.483952 -1.89451e-20)
(1.42268 -0.406321 0)
(1.74704 -0.271812 1.84286e-20)
(1.75942 -0.128516 1.82372e-20)
(1.54634 0.0254858 1.80651e-20)
(1.22517 0.133023 3.58376e-20)
(0.891467 0.165133 -3.55918e-20)
(0.59533 0.154707 0)
(0.350178 0.128653 0)
(0.155337 0.0969691 0)
(0.00730659 0.0664746 -3.48808e-20)
(-0.103181 0.0402815 -3.472e-20)
(-0.189083 0.0204713 3.457e-20)
(-0.261964 0.00812325 0)
(-0.335055 0.00415331 -3.43368e-20)
(-0.422547 0.00910659 -3.42652e-20)
(-0.540168 0.0241753 -3.42294e-20)
(-0.705338 0.0509293 0)
(-0.936598 0.0905396 0)
(-1.25189 0.142548 0)
(-1.66585 0.203274 -3.45289e-20)
(-2.18662 0.265485 0)
(-2.81175 0.321152 0)
(-3.52451 0.364278 3.55601e-20)
(-4.29787 0.390817 0)
(-5.10385 0.400682 0)
(-5.91462 0.394936 3.77187e-20)
(-6.70545 0.37583 0)
(-7.45462 0.346367 0)
(-8.14318 0.309277 -4.04299e-20)
(-8.755 0.266923 -4.12043e-20)
(-9.27764 0.221561 0)
(-9.70265 0.174636 4.21946e-20)
(-10.0246 0.126841 0)
(-10.2408 0.0799724 -4.21507e-20)
(-10.3515 0.0371562 0)
(-10.3618 -0.000755541 -4.0932e-20)
(-10.2856 -0.0353707 -3.98993e-20)
(-10.1244 -0.0666078 0)
(-9.88771 -0.0948629 0)
(-9.57788 -0.121287 0)
(-9.19927 -0.145635 0)
(-8.75472 -0.168492 0)
(-8.24648 -0.190023 0)
(-7.67741 -0.209987 0)
(-7.05127 -0.22795 -2.5403e-20)
(-6.3738 -0.243152 2.33429e-20)
(-5.65316 -0.254748 0)
(-4.90005 -0.26193 0)
(-4.12688 -0.264079 0)
(-3.34673 -0.261047 0)
(-2.57319 -0.25316 3.04416e-20)
(-1.81966 -0.240636 0)
(-1.09725 -0.224722 -2.69901e-20)
(-0.413841 -0.205658 2.59084e-20)
(0.214806 -0.187674 0)
(0.785844 -0.167151 0)
(1.30631 -0.146882 0)
(1.77183 -0.12695 -2.43887e-20)
(2.18301 -0.107538 -2.43882e-20)
(2.54098 -0.0887275 0)
(2.84727 -0.0708376 -2.44752e-20)
(3.10416 -0.0550445 -2.44961e-20)
(3.31585 -0.0432165 2.4473e-20)
(3.48917 -0.0349985 0)
(3.6301 -0.0223703 0)
(3.7306 0.00914578 2.40446e-20)
(3.75675 0.0599565 0)
(3.68938 0.10569 0)
(3.54628 0.121924 0)
(3.3676 0.103855 0)
(3.19387 0.0628905 -2.23673e-20)
(3.04829 0.0181162 -2.19232e-20)
(2.93621 -0.0118721 0)
(2.85152 -0.021444 -2.09271e-20)
(2.78394 -0.0143955 0)
(2.72514 -0.00259845 0)
(2.67023 0.00437175 -1.93492e-20)
(2.61697 0.00595461 0)
(2.56559 0.0052002 -1.83009e-20)
(2.51931 0.00372229 0)
(2.48266 0.00258166 0)
(2.45828 0.00283744 -1.67147e-20)
(2.44589 0.00390565 0)
(2.44609 0.00330901 -1.56149e-20)
(2.45895 0.00267711 0)
(2.47546 0.00594358 0)
(2.48897 0.00772286 0)
(2.50396 0.00458675 1.33638e-20)
(2.51869 0.00709248 0)
(2.52229 0.0136373 -1.22422e-20)
(2.52646 0.00605449 0)
(2.53626 -0.00631992 0)
(2.54045 0.00526119 0)
(2.49044 0.00431887 0)
(2.45924 -0.0141697 0)
(2.4049 -0.0113127 0)
(2.32416 0.00862122 0)
(2.247 -0.0207385 1.54751e-20)
(2.29419 -0.0204441 0)
(2.31509 -0.0276756 0)
(0.0393525 0.42794 6.94248e-20)
(0.0906333 0.396431 -6.89205e-20)
(0.233188 0.257005 0)
(0.36135 0.177841 4.5303e-20)
(0.46611 0.158231 0)
(0.507964 0.149388 2.23658e-20)
(0.48267 0.122631 -4.45122e-20)
(0.391094 0.06623 -4.42611e-20)
(0.256082 -0.0238714 0)
(0.10081 -0.143056 -4.37131e-20)
(-0.0368212 -0.278151 -2.16391e-20)
(-0.165265 -0.380686 0)
(-0.261298 -0.374312 0)
(-0.278499 -0.183614 0)
(-0.211169 0.166429 0)
(-0.213085 0.411723 -2.06826e-20)
(-0.351114 0.435055 0)
(-0.527554 0.337633 4.06076e-20)
(-0.704287 0.271168 0)
(-0.934797 0.326686 0)
(-1.20879 0.429774 -3.95147e-20)
(-1.50044 0.522745 0)
(-1.81399 0.652257 3.8878e-20)
(-2.15892 0.85505 -1.92612e-20)
(-2.52795 1.09935 1.91131e-20)
(-2.90162 1.28409 -1.8982e-20)
(-3.26498 1.30269 -1.8881e-20)
(-3.58801 1.16596 0)
(-3.8323 0.997281 0)
(-4.00546 0.87191 1.87112e-20)
(-4.15474 0.749718 -1.88256e-20)
(-4.31498 0.596117 0)
(-4.49406 0.457862 0)
(-4.68986 0.381139 1.85238e-20)
(-4.89504 0.353805 0)
(-5.09835 0.335652 0)
(-5.28844 0.300117 -1.82697e-20)
(-5.45732 0.246688 0)
(-5.59863 0.187973 1.82093e-20)
(-5.7064 0.129357 -3.57316e-20)
(-5.77708 0.0650985 0)
(-5.81124 -0.00924435 0)
(-5.80621 -0.0912806 -6.93886e-20)
(-5.75998 -0.177082 -6.83561e-20)
(-5.67251 -0.263902 -6.72273e-20)
(-5.54436 -0.350952 3.3193e-20)
(-5.37669 -0.438365 -3.21778e-20)
(-5.17228 -0.524214 -9.48757e-20)
(-4.9336 -0.606094 6.19725e-20)
(-4.66257 -0.683302 3.01026e-20)
(-4.36084 -0.756004 0)
(-4.03031 -0.823446 -2.86704e-20)
(-3.67277 -0.883415 2.82946e-20)
(-3.28982 -0.932304 0)
(-2.88433 -0.966629 0)
(-2.46026 -0.984829 0)
(-2.02088 -0.9865 -2.53835e-20)
(-1.56913 -0.97719 0)
(-1.10535 -0.962052 4.88346e-20)
(-0.62684 -0.958716 0)
(-0.109359 -1.0235 4.69479e-20)
(0.451424 -1.09059 0)
(1.02914 -1.0104 -4.54902e-20)
(1.53472 -0.930503 0)
(2.0102 -0.87792 4.42875e-20)
(2.48698 -0.832463 -2.19732e-20)
(2.96217 -0.803299 0)
(3.43992 -0.771355 -4.31287e-20)
(3.9472 -0.656398 -2.13886e-20)
(4.39496 -0.44859 -2.13035e-20)
(4.73106 -0.151054 0)
(4.98235 0.237434 -2.15623e-20)
(5.04758 0.681513 -2.07618e-20)
(4.88701 1.06772 0)
(4.51167 1.27283 2.01728e-20)
(3.85392 1.24587 -4.01073e-20)
(3.17482 1.00529 0)
(2.52066 0.706258 -1.94926e-20)
(1.99639 0.0763918 0)
(1.78765 -0.587305 5.66089e-20)
(1.70483 -0.554743 0)
(1.45449 -0.0569732 -5.52618e-20)
(0.978766 0.365731 -1.82616e-20)
(0.44223 0.551695 1.81114e-20)
(-0.0368541 0.578227 3.59921e-20)
(-0.432191 0.52474 -3.57613e-20)
(-0.750281 0.440082 0)
(-1.00612 0.351461 0)
(-1.21484 0.272702 0)
(-1.39045 0.211048 1.04474e-19)
(-1.5463 0.168484 3.46374e-20)
(-1.69414 0.146001 -3.44839e-20)
(-1.84427 0.143081 0)
(-2.00755 0.159782 -3.41407e-20)
(-2.19422 0.197199 3.41655e-20)
(-2.41364 0.256562 3.41238e-20)
(-2.67486 0.338082 0)
(-2.98599 0.439641 0)
(-3.35316 0.55538 0)
(-3.77937 0.675436 3.44026e-20)
(-4.26326 0.787931 0)
(-4.79862 0.882699 -7.0048e-20)
(-5.37493 0.952555 -1.06522e-19)
(-5.97848 0.992193 7.2397e-20)
(-6.59561 1.00068 0)
(-7.21157 0.980009 3.8133e-20)
(-7.81108 0.934033 0)
(-8.37927 0.866084 7.95868e-20)
(-8.90264 0.779025 -4.10545e-20)
(-9.36893 0.67622 -4.18698e-20)
(-9.76696 0.561502 0)
(-10.0877 0.438906 -1.27211e-19)
(-10.3257 0.312281 8.52993e-20)
(-10.4792 0.185724 4.2133e-20)
(-10.5495 0.0647763 0)
(-10.5377 -0.046563 4.09226e-20)
(-10.4389 -0.14953 1.20189e-19)
(-10.2619 -0.243617 0)
(-10.0074 -0.329628 7.46534e-20)
(-9.68226 -0.409118 7.12518e-20)
(-9.28912 -0.483076 6.75508e-20)
(-8.83043 -0.552736 0)
(-8.30833 -0.618568 0)
(-7.72473 -0.680076 0)
(-7.08291 -0.735737 -2.56883e-20)
(-6.38802 -0.78322 -2.33241e-20)
(-5.64781 -0.819862 0)
(-4.87268 -0.843143 -3.92241e-20)
(-4.07508 -0.85122 -3.58722e-20)
(-3.26847 -0.843575 0)
(-2.46647 -0.820921 -3.04199e-20)
(-1.68228 -0.78427 -5.7049e-20)
(-0.927694 -0.737489 2.6975e-20)
(-0.212047 -0.681982 2.59791e-20)
(0.450969 -0.625235 0)
(1.05962 -0.56457 0)
(1.61856 -0.504199 0)
(2.12426 -0.445373 2.43688e-20)
(2.57694 -0.388978 -2.45154e-20)
(2.97709 -0.335519 -4.89705e-20)
(3.32539 -0.285323 2.44566e-20)
(3.62318 -0.23873 -2.46163e-20)
(3.87209 -0.19629 -2.44551e-20)
(4.07217 -0.158635 0)
(4.22263 -0.124028 0)
(4.33303 -0.0855857 2.41287e-20)
(4.43499 -0.0370376 0)
(4.54342 0.0173645 0)
(4.64736 0.065725 -4.63007e-20)
(4.73606 0.0988515 0)
(4.80117 0.117184 -2.23722e-20)
(4.83004 0.125815 2.18851e-20)
(4.79848 0.124148 0)
(4.68884 0.110112 -2.08992e-20)
(4.51485 0.0883981 0)
(4.31515 0.0681148 0)
(4.1258 0.0556134 1.93216e-20)
(3.9616 0.0503493 -3.76001e-20)
(3.82154 0.0476402 1.8279e-20)
(3.70266 0.0415476 0)
(3.60597 0.0303284 0)
(3.53401 0.0164778 -1.67023e-20)
(3.48736 0.00235996 0)
(3.46505 -0.0109716 -1.56045e-20)
(3.46176 -0.0202527 0)
(3.46776 -0.0230325 0)
(3.48399 -0.0223495 0)
(3.50608 -0.0212779 -1.33529e-20)
(3.53096 -0.0181184 0)
(3.57122 -0.0167985 1.22317e-20)
(3.6437 -0.0125191 0)
(3.69973 -0.00459372 0)
(3.71123 0.0111597 -2.10517e-20)
(3.69161 0.034658 1.9921e-20)
(3.60616 0.0546466 0)
(3.4195 0.066115 0)
(3.23156 0.0743373 0)
(3.09626 0.0348825 -4.64641e-20)
(3.06274 0.00198005 0)
(3.05946 -0.0567647 2.55289e-20)
(0.0200905 0.00892433 2.7001e-23)
(0.291425 -0.18267 9.17944e-20)
(0.728022 -0.364713 0)
(1.1491 -0.391727 -9.03996e-20)
(1.51987 -0.253947 0)
(1.81044 -0.0113505 0)
(1.99359 0.242106 -2.38101e-22)
(2.07202 0.450477 4.40352e-20)
(2.04993 0.592455 4.40077e-20)
(1.9317 0.612033 4.34656e-20)
(1.71301 0.525957 0)
(1.37965 0.44881 0)
(1.021 0.333998 -4.26173e-20)
(0.636062 0.121397 -8.44881e-20)
(0.293685 0.143304 8.37545e-20)
(0.136997 0.481512 0)
(0.0475938 0.714938 8.21879e-20)
(-0.0881788 0.71037 -4.06377e-20)
(-0.352989 0.744446 0)
(-0.699347 0.903604 7.99011e-20)
(-1.02008 1.02645 3.95045e-20)
(-1.32468 1.12196 -7.861e-20)
(-1.64638 1.25432 -3.88645e-20)
(-1.97242 1.42544 0)
(-2.27281 1.59067 7.70596e-20)
(-2.5215 1.67289 7.66885e-20)
(-2.72022 1.59664 0)
(-2.90132 1.38822 7.61038e-20)
(-3.10494 1.18953 0)
(-3.35652 1.09018 7.56221e-20)
(-3.65626 1.02354 3.7521e-20)
(-3.99413 0.919252 0)
(-4.35889 0.833979 0)
(-4.72876 0.819156 0)
(-5.07177 0.810742 0)
(-5.36282 0.744779 0)
(-5.59811 0.639834 0)
(-5.7849 0.528212 7.35475e-20)
(-5.92438 0.407496 -1.0925e-19)
(-6.01495 0.270205 0)
(-6.0591 0.123353 0)
(-6.05967 -0.0258076 0)
(-6.01968 -0.176128 -6.75318e-22)
(-5.94095 -0.324583 6.83153e-20)
(-5.82447 -0.467776 1.35005e-19)
(-5.67335 -0.605049 -1.32547e-19)
(-5.49142 -0.735364 -6.52611e-20)
(-5.28228 -0.857674 6.33228e-20)
(-5.04934 -0.971692 5.37283e-22)
(-4.79518 -1.07759 6.10098e-20)
(-4.52218 -1.1759 0)
(-4.23344 -1.26687 5.80924e-20)
(-3.93124 -1.34912 4.68494e-22)
(-3.61549 -1.41949 0)
(-3.28512 -1.47415 0)
(-2.93772 -1.50998 -5.26082e-20)
(-2.56627 -1.52666 0)
(-2.16189 -1.52872 0)
(-1.72108 -1.5377 4.95377e-20)
(-1.24231 -1.60107 9.62868e-20)
(-0.716227 -1.75045 -4.68547e-20)
(-0.21854 -1.85069 0)
(0.318663 -1.65357 4.55115e-20)
(0.725682 -1.49477 0)
(1.13786 -1.44007 4.48836e-20)
(1.58685 -1.41704 4.38337e-20)
(2.07178 -1.4148 -8.73457e-20)
(2.59676 -1.40173 -4.36709e-20)
(3.16206 -1.26572 0)
(3.71561 -0.957934 8.66924e-20)
(4.19255 -0.52594 0)
(4.5789 0.0152932 1.29271e-19)
(4.77327 0.628844 8.59012e-20)
(4.78367 1.18784 8.45566e-20)
(4.62263 1.61338 -8.27811e-20)
(4.28135 1.73607 1.20912e-19)
(3.82738 1.6204 0)
(3.15468 1.38695 0)
(2.60772 0.556658 -7.6135e-20)
(2.09655 -0.193745 -1.127e-19)
(1.4083 0.0210438 0)
(0.70852 0.632542 3.68653e-20)
(0.10125 0.985172 0)
(-0.352485 1.05795 -1.08813e-19)
(-0.675597 0.984167 2.45498e-22)
(-0.910208 0.848135 -2.7132e-22)
(-1.0888 0.699195 7.1128e-20)
(-1.23568 0.563582 0)
(-1.36764 0.454228 -7.01898e-20)
(-1.49645 0.375885 9.28122e-23)
(-1.63103 0.328492 0)
(-1.77874 0.310306 0)
(-1.94546 0.319089 0)
(-2.13534 0.353608 6.83457e-20)
(-2.35188 0.414017 0)
(-2.59806 0.500729 0)
(-2.87591 0.613121 0)
(-3.18689 0.748148 0)
(-3.53232 0.899085 0)
(-3.91373 1.0554 6.85763e-20)
(-4.3331 1.2043 0)
(-4.79341 1.33338 6.99958e-20)
(-5.29819 1.43256 7.10352e-20)
(-5.84794 1.49538 -7.23499e-20)
(-6.43674 1.5191 0)
(-7.05129 1.50307 -7.57034e-20)
(-7.67248 1.44696 0)
(-8.27781 1.35153 -7.95365e-20)
(-8.8445 1.2212 8.13648e-20)
(-9.3523 1.06263 2.51121e-19)
(-9.78427 0.882751 0)
(-10.1282 0.688871 2.57349e-19)
(-10.3781 0.488582 8.75328e-20)
(-10.5312 0.288455 0)
(-10.588 0.0937314 1.70032e-19)
(-10.555 -0.0894837 1.66735e-19)
(-10.4392 -0.260015 -2.42611e-19)
(-10.2461 -0.416115 0)
(-9.98191 -0.558786 -7.46271e-20)
(-9.65098 -0.689921 -7.12215e-20)
(-9.25658 -0.812282 -2.03858e-19)
(-8.80063 -0.92789 0)
(-8.28405 -1.03769 0)
(-7.70786 -1.14097 0)
(-7.07422 -1.23507 -5.20565e-20)
(-6.38745 -1.31598 0)
(-5.65467 -1.379 0)
(-4.88596 -1.41971 3.91871e-20)
(-4.09378 -1.43505 3.58377e-20)
(-3.29159 -1.42385 0)
(-2.49257 -1.38682 0)
(-1.70963 -1.32678 5.69972e-20)
(-0.954475 -1.24943 0)
(-0.235833 -1.15871 -5.18315e-20)
(0.433286 -1.06294 -5.05716e-20)
(1.05237 -0.962483 0)
(1.62612 -0.862219 0)
(2.15246 -0.764023 4.9103e-20)
(2.63296 -0.668696 -2.68651e-22)
(3.06861 -0.576366 -2.72154e-22)
(3.45809 -0.487434 0)
(3.79698 -0.403379 9.83905e-20)
(4.07951 -0.326034 0)
(4.30288 -0.255494 0)
(4.47024 -0.189976 0)
(4.59053 -0.129014 -4.81402e-20)
(4.67797 -0.0730783 0)
(4.75103 -0.0236977 9.42497e-20)
(4.82469 0.0114027 4.6296e-20)
(4.90277 0.0248947 0)
(4.98384 0.0234924 4.4698e-20)
(5.06551 0.0302879 0)
(5.14423 0.065276 0)
(5.2063 0.124737 1.25365e-19)
(5.22155 0.179582 -8.14911e-20)
(5.1586 0.204444 0)
(5.01011 0.197643 -7.725e-20)
(4.80512 0.173495 3.75641e-20)
(4.58992 0.145156 0)
(4.39881 0.116842 0)
(4.24505 0.0881517 0)
(4.12819 0.060596 1.00148e-19)
(4.04436 0.0364592 0)
(3.98801 0.0145597 3.11905e-20)
(3.9533 -0.00190917 0)
(3.93399 -0.00815494 0)
(3.92135 -0.0107315 0)
(3.90305 -0.0190416 0)
(3.88561 -0.0295936 0)
(3.89017 -0.0424247 0)
(3.92038 -0.0534142 4.66959e-20)
(3.95949 -0.0421032 0)
(3.98261 0.000188502 2.10469e-20)
(3.95985 0.0571181 -5.97676e-20)
(3.8718 0.112091 0)
(3.69859 0.15208 0)
(3.52472 0.154587 3.33266e-20)
(3.40612 0.0747115 3.09888e-20)
(3.443 -0.0185758 -2.85055e-20)
(3.49329 -0.0887194 -2.55188e-20)
(0.0669753 -0.20881 -1.3928e-19)
(0.594364 -1.18672 -1.37994e-19)
(1.1189 -1.51824 -9.15563e-20)
(1.55819 -1.46938 -4.5992e-20)
(1.90839 -1.19307 0)
(2.17258 -0.792177 9.04254e-20)
(2.36023 -0.391965 -4.55269e-20)
(2.49947 -0.045771 0)
(2.60177 0.27495 -4.3933e-20)
(2.62196 0.539766 0)
(2.53834 0.761487 8.73725e-20)
(2.36946 0.928887 0)
(2.09217 0.976413 4.24471e-20)
(1.70398 1.07258 8.41498e-20)
(1.31379 1.11155 -8.345e-20)
(1.02332 0.913787 0)
(0.816663 0.867954 -8.19751e-20)
(0.508574 1.10874 0)
(0.0252908 1.40807 0)
(-0.40466 1.56095 -7.98919e-20)
(-0.721206 1.59829 0)
(-1.01194 1.67108 -4.83179e-22)
(-1.3187 1.80594 0)
(-1.62844 1.95087 0)
(-1.92509 2.05537 5.03314e-22)
(-2.20002 2.0751 -7.67045e-20)
(-2.4689 1.99011 -7.68838e-20)
(-2.77774 1.86044 -7.60931e-20)
(-3.16459 1.79369 0)
(-3.60096 1.79582 -1.51694e-19)
(-4.02383 1.7657 0)
(-4.41469 1.66452 -7.58477e-20)
(-4.77831 1.54478 0)
(-5.09154 1.42508 0)
(-5.33391 1.27679 7.53767e-20)
(-5.52157 1.09743 0)
(-5.67543 0.906745 -7.48553e-20)
(-5.79791 0.713147 9.54384e-22)
(-5.88797 0.51546 1.47061e-19)
(-5.94833 0.315625 -1.46876e-19)
(-5.97746 0.116978 0)
(-5.97295 -0.0796565 0)
(-5.9321 -0.274293 -7.18909e-20)
(-5.85294 -0.464708 0)
(-5.73713 -0.648834 -6.78115e-20)
(-5.5853 -0.824333 6.65659e-20)
(-5.39834 -0.989044 6.52455e-20)
(-5.17856 -1.1418 0)
(-4.92884 -1.2818 -6.24417e-20)
(-4.65386 -1.40844 -6.09912e-20)
(-4.3596 -1.522 1.20313e-19)
(-4.0526 -1.62362 -5.8076e-20)
(-3.73882 -1.71493 -5.66416e-20)
(-3.42324 -1.79849 0)
(-3.10831 -1.87774 0)
(-2.79106 -1.95417 5.25858e-20)
(-2.46117 -2.0256 0)
(-2.10618 -2.09281 0)
(-1.7223 -2.16972 -9.81807e-20)
(-1.30944 -2.27819 -9.6183e-20)
(-0.886259 -2.4131 0)
(-0.563334 -2.47108 0)
(-0.124159 -2.1972 0)
(0.203067 -1.967 0)
(0.556612 -1.96895 -8.92301e-20)
(0.97948 -2.00611 8.8862e-20)
(1.44303 -2.08017 8.73556e-20)
(1.98044 -2.12073 1.74391e-19)
(2.57568 -2.00632 0)
(3.20138 -1.67885 1.1898e-21)
(3.78021 -1.13562 0)
(4.2275 -0.350836 -8.6685e-20)
(4.43254 0.561045 1.88216e-21)
(4.40811 1.34147 -8.45953e-20)
(4.2127 1.89399 8.2798e-20)
(3.88769 2.12864 9.47753e-22)
(3.48728 2.18133 0)
(2.97392 2.01637 7.7623e-20)
(2.46472 1.20686 7.60885e-20)
(1.78249 0.640328 1.4998e-19)
(0.941738 0.926679 0)
(0.233896 1.35208 -7.36868e-20)
(-0.229843 1.46289 0)
(-0.505787 1.36586 1.45381e-19)
(-0.666367 1.18345 -7.20676e-20)
(-0.769262 0.985942 7.1604e-20)
(-0.84909 0.808162 -7.11464e-20)
(-0.926369 0.665226 -1.41715e-19)
(-1.01254 0.561181 7.02267e-20)
(-1.11366 0.494906 -6.97714e-20)
(-1.2331 0.463375 0)
(-1.37334 0.463647 1.37778e-19)
(-1.53698 0.493581 0)
(-1.72618 0.551866 1.3628e-19)
(-1.94288 0.63717 -1.35752e-19)
(-2.18857 0.748748 -1.3542e-19)