/*--------------------------------*- C++ -*----------------------------------*\
  =========                 |
  \\      /  F ield         | OpenFOAM: The Open Source CFD Toolbox
   \\    /   O peration     | Website:  https://openfoam.org
    \\  /    A nd           | Version:  9
     \\/     M anipulation  |
\*---------------------------------------------------------------------------*/
FoamFile
{
    format      ascii;
    class       volScalarField;
    location    "0.08";
    object      p;
}
// * * * * * * * * * * * * * * * * * * * * * * * * * * * * * * * * * * * * * //

dimensions      [0 2 -2 0 0 0 0];

internalField   nonuniform List<scalar> 
12225
(
-1.05313
-3.33584
-4.49761
-4.80471
-4.97158
-5.12946
-5.25173
-5.33727
-5.40329
-5.45983
-5.5084
-5.54838
-5.57943
-5.59963
-5.60622
-5.58363
-5.54183
-5.35342
-4.52067
-5.22249
-5.31202
-5.17587
-5.13439
-5.19987
-5.27834
-5.34134
-5.39481
-5.4438
-5.48783
-5.52533
-5.55546
-5.57623
-5.58629
-5.57426
-5.55876
-5.49239
-4.72545
-4.62221
-4.7783
-4.89939
-5.00533
-5.12585
-5.2319
-5.31177
-5.37551
-5.43107
-5.47988
-5.52135
-5.55517
-5.58024
-5.5965
-5.59864
-5.60731
-5.61849
-4.58821
-4.50979
-4.78517
-4.96286
-5.05592
-5.15131
-5.24423
-5.31907
-5.38032
-5.43443
-5.48264
-5.52434
-5.55933
-5.58724
-5.6091
-5.62457
-5.65131
-5.69944
-4.59526
-4.61223
-4.85165
-5.00053
-5.07521
-5.15821
-5.24569
-5.31914
-5.37992
-5.43376
-5.48218
-5.52481
-5.56172
-5.59328
-5.62136
-5.64839
-5.68788
-5.75113
-4.65707
-4.69926
-4.87639
-5.00613
-5.0828
-5.16369
-5.24795
-5.32031
-5.38091
-5.43478
-5.48364
-5.5274
-5.56643
-5.60165
-5.63541
-5.6712
-5.7189
-5.7876
-4.71698
-4.75624
-4.89201
-5.01326
-5.09438
-5.17253
-5.25227
-5.32279
-5.38307
-5.43696
-5.48625
-5.53118
-5.57231
-5.61092
-5.64948
-5.69153
-5.74404
-5.81312
-4.77034
-4.80499
-4.91468
-5.0264
-5.10777
-5.18218
-5.25733
-5.32585
-5.38572
-5.43964
-5.4894
-5.53548
-5.57861
-5.62019
-5.66254
-5.70876
-5.7635
-5.83027
-4.8204
-4.8519
-4.94212
-5.04207
-5.12103
-5.19213
-5.26323
-5.32964
-5.38892
-5.4428
-5.49297
-5.5401
-5.58498
-5.62897
-5.67407
-5.72272
-5.77787
-5.84116
-4.86809
-4.8965
-4.97115
-5.05926
-5.13463
-5.20278
-5.27022
-5.33433
-5.39277
-5.4465
-5.49696
-5.54494
-5.59121
-5.63698
-5.68385
-5.73359
-5.78795
-5.84742
-4.91326
-4.93835
-5.00067
-5.07802
-5.14899
-5.21418
-5.27824
-5.33994
-5.39732
-5.45073
-5.50133
-5.5499
-5.59715
-5.64407
-5.69186
-5.74172
-5.79457
-5.85031
-4.95221
-4.97436
-5.02778
-5.09641
-5.16287
-5.2252
-5.28637
-5.34587
-5.4021
-5.45507
-5.50562
-5.55446
-5.60222
-5.64967
-5.69769
-5.74703
-5.79819
-5.85077
-4.9884
-5.00804
-5.0542
-5.11518
-5.17706
-5.23648
-5.29497
-5.35231
-5.4073
-5.45969
-5.51003
-5.55892
-5.60686
-5.65445
-5.70226
-5.75074
-5.80009
-5.84982
-5.02659
-5.04376
-5.08324
-5.13679
-5.19359
-5.24966
-5.30526
-5.36025
-5.41372
-5.46526
-5.51515
-5.56381
-5.6116
-5.65891
-5.70607
-5.75327
-5.80052
-5.84734
-5.06556
-5.08036
-5.11399
-5.16068
-5.21221
-5.26458
-5.31715
-5.36964
-5.42133
-5.47173
-5.52086
-5.56893
-5.61616
-5.66272
-5.70877
-5.75433
-5.7993
-5.84329
-5.10344
-5.11613
-5.14487
-5.18562
-5.23209
-5.28066
-5.33017
-5.38012
-5.42984
-5.4788
-5.52683
-5.57392
-5.62015
-5.66554
-5.7101
-5.75376
-5.7964
-5.83772
-5.13739
-5.14838
-5.17334
-5.20935
-5.25149
-5.29656
-5.34322
-5.39074
-5.43846
-5.4858
-5.53245
-5.57824
-5.62312
-5.66701
-5.70983
-5.75148
-5.79185
-5.83076
-5.16307
-5.17291
-5.19539
-5.22824
-5.26733
-5.30981
-5.35425
-5.39982
-5.44581
-5.49161
-5.53682
-5.5812
-5.62459
-5.66685
-5.70789
-5.74761
-5.78591
-5.82269
-5.1735
-5.18295
-5.20463
-5.2365
-5.27464
-5.31621
-5.35975
-5.40439
-5.44944
-5.49426
-5.53842
-5.58162
-5.62371
-5.66454
-5.70402
-5.74208
-5.77866
-5.81372
-5.16025
-5.17043
-5.1937
-5.22778
-5.26816
-5.31148
-5.35622
-5.40169
-5.44728
-5.49235
-5.53645
-5.57935
-5.62093
-5.66107
-5.69973
-5.73685
-5.77242
-5.80644
-5.13522
-5.14656
-5.17268
-5.21091
-5.25533
-5.30171
-5.34871
-5.39601
-5.44298
-5.48894
-5.53351
-5.57661
-5.61815
-5.6581
-5.69641
-5.73309
-5.76814
-5.80162
-5.10115
-5.11368
-5.14408
-5.1891
-5.23931
-5.28931
-5.33905
-5.3889
-5.4379
-5.48515
-5.53048
-5.574
-5.61575
-5.6557
-5.69387
-5.7303
-5.76505
-5.79818
-5.06116
-5.07392
-5.10968
-5.16484
-5.22271
-5.27661
-5.32923
-5.3818
-5.43289
-5.48149
-5.52771
-5.57182
-5.6139
-5.65397
-5.69211
-5.72843
-5.763
-5.79593
-5.01777
-5.0295
-5.07228
-5.1395
-5.20496
-5.26352
-5.32049
-5.37637
-5.42921
-5.47871
-5.52559
-5.5702
-5.61255
-5.6527
-5.6908
-5.72701
-5.76144
-5.7942
-4.97122
-4.97915
-5.04059
-5.12099
-5.18691
-5.24751
-5.31048
-5.37127
-5.42636
-5.47684
-5.52441
-5.56949
-5.61206
-5.65223
-5.69025
-5.72633
-5.76063
-5.79329
-4.92347
-4.90001
-5.01121
-5.12075
-5.1821
-5.23714
-5.30165
-5.36521
-5.42181
-5.47324
-5.52163
-5.5673
-5.61019
-5.6505
-5.68856
-5.72462
-5.75887
-5.79145
-4.91429
-4.77015
-4.92961
-5.09642
-5.18168
-5.24363
-5.30949
-5.37184
-5.42689
-5.47743
-5.52533
-5.57056
-5.61298
-5.65284
-5.69047
-5.72612
-5.76005
-5.79242
-5.05976
-4.77612
-4.81126
-4.94234
-5.06269
-5.17062
-5.26574
-5.34269
-5.40622
-5.46284
-5.51505
-5.56318
-5.60756
-5.64878
-5.68737
-5.72369
-5.75824
-5.79165
-4.9966
-5.49646
-5.50698
-5.34835
-5.26818
-5.29327
-5.34844
-5.39902
-5.4454
-5.49134
-5.53643
-5.57939
-5.61983
-5.65794
-5.6939
-5.7278
-5.7599
-5.79203
-1.65795
-3.52868
-4.60036
-4.89402
-5.02962
-5.16727
-5.28022
-5.36137
-5.4256
-5.48298
-5.53573
-5.58391
-5.62807
-5.66895
-5.70694
-5.74206
-5.77394
-5.80079
-6.92887
-6.92311
-6.91895
-6.91727
-6.91744
-6.919
-6.92149
-6.92436
-6.92701
-6.92894
-6.93025
-6.93092
-6.93103
-6.93077
-6.93048
-6.93059
-6.9317
-6.93446
-6.93603
-6.93386
-6.93516
-6.94241
-6.95191
-6.96395
-6.97789
-6.99342
-7.01211
-7.03507
-7.0629
-7.095
-7.13094
-7.17036
-7.2126
-7.25692
-7.30259
-7.3489
-7.39523
-7.44103
-7.4859
-7.52949
-7.57158
-7.61199
-7.65063
-7.68746
-7.72244
-7.75559
-7.78692
-7.81646
-7.84422
-7.87023
-7.89451
-7.91705
-7.93784
-7.95688
-7.97414
-7.98957
-8.00312
-8.01475
-8.02437
-8.03192
-8.0373
-8.04042
-8.04117
-8.03945
-8.03513
-8.0281
-8.01824
-8.00539
-7.98944
-7.97024
-7.94764
-7.92151
-7.89168
-7.85801
-7.82035
-7.77853
-7.73239
-7.68179
-7.62654
-7.56649
-7.50146
-7.4313
-7.35582
-7.27485
-7.18822
-7.09576
-6.99729
-6.89265
-6.78171
-6.66439
-6.5405
-6.40963
-6.27174
-6.12624
-5.97316
-5.81243
-5.6439
-5.46743
-5.2829
-5.09018
-4.88914
-4.67968
-4.46173
-4.23523
-4.00012
-3.75639
-3.50404
-3.24311
-2.97364
-2.69574
-2.40953
-2.11515
-1.8128
-1.5027
-1.18512
-0.860364
-0.528775
-0.190743
0.153305
0.502895
0.857511
1.21659
1.57954
1.94571
2.31443
2.68497
3.05659
3.42851
3.79993
4.17003
4.53798
4.90295
5.2641
5.62063
5.97172
6.31662
6.65461
6.98499
7.30716
7.62055
7.92467
8.21913
8.50358
8.77779
9.04162
9.29499
9.53796
9.77066
9.99329
10.2062
10.4097
10.604
10.7897
10.9674
11.1379
11.3017
11.4598
11.613
11.7621
11.9081
12.0519
12.1945
12.3368
12.4798
12.6244
12.7716
12.9223
13.0774
13.2376
13.4036
13.5762
13.7559
13.9433
14.1388
14.3431
14.5571
14.7834
15.0259
15.3068
15.6348
-6.93329
-6.92859
-6.92535
-6.925
-6.92656
-6.92879
-6.93091
-6.93244
-6.93304
-6.93255
-6.93056
-6.92727
-6.92299
-6.91825
-6.91357
-6.90937
-6.90579
-6.90244
-6.89829
-6.89632
-6.89795
-6.9017
-6.90721
-6.91456
-6.9239
-6.93796
-6.95893
-6.98643
-7.01865
-7.0545
-7.09406
-7.13688
-7.18217
-7.22909
-7.27685
-7.32474
-7.37216
-7.41864
-7.46382
-7.50746
-7.54938
-7.5895
-7.62777
-7.66417
-7.69873
-7.73146
-7.76241
-7.7916
-7.81906
-7.84483
-7.8689
-7.89129
-7.91199
-7.93099
-7.94824
-7.96373
-7.97739
-7.98917
-7.99899
-8.00678
-8.01245
-8.0159
-8.01703
-8.01573
-8.01188
-8.00537
-7.99605
-7.98381
-7.96851
-7.95
-7.92815
-7.9028
-7.87381
-7.84103
-7.8043
-7.76348
-7.71839
-7.66889
-7.61481
-7.55599
-7.49227
-7.42347
-7.34943
-7.26998
-7.18494
-7.09413
-6.99737
-6.89449
-6.78527
-6.66953
-6.54709
-6.4175
-6.28063
-6.13682
-5.98571
-5.82706
-5.66071
-5.4865
-5.30427
-5.1139
-4.91526
-4.70826
-4.4928
-4.26882
-4.03627
-3.79513
-3.54539
-3.28709
-3.02026
-2.745
-2.46142
-2.16967
-1.86992
-1.56239
-1.24735
-0.925076
-0.595912
-0.260231
0.0815494
0.428969
0.781524
1.13867
1.49982
1.86434
2.23156
2.6008
2.97129
3.34229
3.713
4.0826
4.45028
4.81521
5.17656
5.53351
5.88527
6.23106
6.57016
6.90187
7.22557
7.54067
7.84668
8.14316
8.42976
8.70624
8.9724
9.22817
9.47356
9.70868
9.93368
10.1488
10.3544
10.5508
10.7385
10.9181
11.0902
11.2555
11.4149
11.5691
11.719
11.8655
12.0095
12.152
12.294
12.4364
12.5802
12.7263
12.8757
13.0292
13.1876
13.3517
13.5223
13.6998
13.8851
14.0785
14.281
14.4935
14.7191
14.9606
15.2376
15.5387
-6.93925
-6.93554
-6.93303
-6.93319
-6.93494
-6.93699
-6.93857
-6.93927
-6.93882
-6.93707
-6.93392
-6.92945
-6.92385
-6.91745
-6.91058
-6.90361
-6.89684
-6.89057
-6.88515
-6.88177
-6.88196
-6.88525
-6.89169
-6.90158
-6.91489
-6.9326
-6.95575
-6.98429
-7.01756
-7.05462
-7.09483
-7.13746
-7.18179
-7.22713
-7.27286
-7.31848
-7.36353
-7.40768
-7.45066
-7.49228
-7.53239
-7.5709
-7.60777
-7.64298
-7.6765
-7.70837
-7.73858
-7.76715
-7.79411
-7.81945
-7.84318
-7.8653
-7.8858
-7.90465
-7.92182
-7.93726
-7.95093
-7.96277
-7.97269
-7.98063
-7.98649
-7.99018
-7.99159
-7.99061
-7.98714
-7.98104
-7.97219
-7.96046
-7.94572
-7.92782
-7.90663
-7.882
-7.85378
-7.82183
-7.78599
-7.74611
-7.70204
-7.65361
-7.60067
-7.54305
-7.4806
-7.41315
-7.34052
-7.26256
-7.17908
-7.08991
-6.99487
-6.89377
-6.78643
-6.67258
-6.55193
-6.42471
-6.29034
-6.14888
-6.00014
-5.84395
-5.68013
-5.50851
-5.32895
-5.14131
-4.94546
-4.74131
-4.52876
-4.30773
-4.07818
-3.84008
-3.59341
-3.3382
-3.07448
-2.80235
-2.5219
-2.23327
-1.93663
-1.63219
-1.3202
-1.00093
-0.674704
-0.341891
-0.00289071
0.341851
0.691845
1.04656
1.40543
1.76784
2.13314
2.50064
2.86963
3.23933
3.60899
3.97781
4.34496
4.70963
5.071
5.42825
5.78059
6.12724
6.46746
6.80056
7.12589
7.44286
7.75095
8.0497
8.33875
8.61779
8.88662
9.14512
9.39325
9.6311
9.85879
10.0765
10.2847
10.4836
10.6737
10.8555
11.0297
11.1968
11.3577
11.5132
11.664
11.8112
11.9555
12.098
12.2396
12.3813
12.5241
12.6689
12.8167
12.9683
13.1246
13.2864
13.4544
13.6294
13.8119
14.0028
14.2029
14.4134
14.6372
14.8759
15.1478
15.4204
-6.94365
-6.94251
-6.94163
-6.94239
-6.94396
-6.94536
-6.94605
-6.94571
-6.94416
-6.94127
-6.93699
-6.93142
-6.92473
-6.91721
-6.90925
-6.9013
-6.89386
-6.88748
-6.88281
-6.88062
-6.88176
-6.88654
-6.89526
-6.90818
-6.92541
-6.947
-6.973
-7.00312
-7.0369
-7.07371
-7.11293
-7.15395
-7.19619
-7.23912
-7.28227
-7.32524
-7.36769
-7.40933
-7.44996
-7.48939
-7.52752
-7.56426
-7.59954
-7.63335
-7.66565
-7.69645
-7.72575
-7.75355
-7.77985
-7.80464
-7.82793
-7.84969
-7.86991
-7.88855
-7.90558
-7.92095
-7.9346
-7.94646
-7.95647
-7.96454
-7.97057
-7.97448
-7.97615
-7.97547
-7.97233
-7.96661
-7.95818
-7.94691
-7.93266
-7.9153
-7.89469
-7.87067
-7.84312
-7.81187
-7.77679
-7.73771
-7.69448
-7.64696
-7.59497
-7.53837
-7.47698
-7.41065
-7.33921
-7.26248
-7.18029
-7.09246
-6.99882
-6.89917
-6.79332
-6.68107
-6.56221
-6.43666
-6.3042
-6.1647
-6.01796
-5.86382
-5.7021
-5.53265
-5.3553
-5.16992
-4.97638
-4.77458
-4.56441
-4.3458
-4.11869
-3.88305
-3.63886
-3.38615
-3.12494
-2.85531
-2.57736
-2.29121
-1.99703
-1.69502
-1.38542
-1.0685
-0.744561
-0.413965
-0.0771022
0.265594
0.613647
0.96654
1.32371
1.68457
2.04847
2.41473
2.78265
3.15148
3.52046
3.8888
4.25568
4.62029
4.98182
5.33945
5.69238
6.03984
6.38107
6.71537
7.04208
7.36061
7.6704
7.97099
8.26198
8.54306
8.81402
9.0747
9.32505
9.56509
9.79493
10.0147
10.2248
10.4255
10.6174
10.8008
10.9763
11.1447
11.3067
11.4629
11.6143
11.7617
11.9061
12.0483
12.1893
12.3302
12.4719
12.6153
12.7615
12.9112
13.0655
13.2251
13.3907
13.5632
13.7433
13.9316
14.1291
14.3369
14.5576
14.7911
15.0533
15.2977
-6.9411
-6.94287
-6.94415
-6.94595
-6.94773
-6.9489
-6.94913
-6.94823
-6.94608
-6.94261
-6.93783
-6.93186
-6.92493
-6.91739
-6.90971
-6.90241
-6.89612
-6.89143
-6.88899
-6.88939
-6.89317
-6.90069
-6.9122
-6.92783
-6.9476
-6.97143
-6.99907
-7.03012
-7.06404
-7.1003
-7.13838
-7.17777
-7.21802
-7.25873
-7.2995
-7.34005
-7.38008
-7.41939
-7.4578
-7.49517
-7.5314
-7.56641
-7.60014
-7.63256
-7.66365
-7.69339
-7.72177
-7.74878
-7.77442
-7.79866
-7.82149
-7.84289
-7.86282
-7.88126
-7.89815
-7.91343
-7.92706
-7.93894
-7.94902
-7.9572
-7.96338
-7.96747
-7.96936
-7.96893
-7.96607
-7.96066
-7.95257
-7.94166
-7.92781
-7.91087
-7.89071
-7.86718
-7.84014
-7.80944
-7.77494
-7.73648
-7.69391
-7.64708
-7.59583
-7.54001
-7.47946
-7.414
-7.34348
-7.26773
-7.18656
-7.09981
-7.0073
-6.90883
-6.80423
-6.69329
-6.57585
-6.45174
-6.32079
-6.18283
-6.03767
-5.88514
-5.72507
-5.5573
-5.38167
-5.19803
-5.00626
-4.80624
-4.59788
-4.38109
-4.15581
-3.922
-3.67965
-3.42877
-3.16938
-2.90156
-2.62539
-2.34101
-2.04857
-1.74826
-1.44031
-1.12499
-0.802602
-0.473486
-0.138029
0.203345
0.550166
0.901928
1.25808
1.61803
1.98114
2.34675
2.71416
3.08262
3.45138
3.81964
4.1866
4.55144
4.91334
5.27149
5.62509
5.97334
6.31549
6.65084
6.9787
7.29846
7.60958
7.91156
8.20402
8.48661
8.75909
9.0213
9.27315
9.51465
9.74588
9.967
10.1783
10.3801
10.5729
10.7571
10.9334
11.1023
11.2647
11.4212
11.5726
11.7198
11.8638
12.0055
12.1458
12.2857
12.4262
12.5682
12.7128
12.8608
13.0132
13.1707
13.3342
13.5044
13.682
13.8678
14.0627
14.2674
14.4842
14.7113
14.9623
15.1817
-6.92943
-6.93483
-6.93872
-6.94216
-6.94483
-6.94643
-6.94684
-6.946
-6.94387
-6.94049
-6.93595
-6.93044
-6.92424
-6.91776
-6.91153
-6.90611
-6.90211
-6.90013
-6.90072
-6.90434
-6.91138
-6.92207
-6.93653
-6.95477
-6.97667
-7.00202
-7.03052
-7.06176
-7.09531
-7.13068
-7.16745
-7.2052
-7.24355
-7.28219
-7.3208
-7.35916
-7.39703
-7.43425
-7.47067
-7.50618
-7.54069
-7.57413
-7.60645
-7.63762
-7.66759
-7.69636
-7.7239
-7.75019
-7.77521
-7.79895
-7.82138
-7.84245
-7.86215
-7.88041
-7.89718
-7.91241
-7.92603
-7.93796
-7.94811
-7.9564
-7.96273
-7.96699
-7.96907
-7.96887
-7.96626
-7.96111
-7.9533
-7.94269
-7.92916
-7.91256
-7.89276
-7.86962
-7.84298
-7.81271
-7.77866
-7.74068
-7.69863
-7.65234
-7.60168
-7.54648
-7.48658
-7.42182
-7.35204
-7.27707
-7.19674
-7.11087
-7.01929
-6.9218
-6.81823
-6.70839
-6.5921
-6.46919
-6.33946
-6.20275
-6.05886
-5.90764
-5.74889
-5.58246
-5.40819
-5.22592
-5.03554
-4.83691
-4.62994
-4.41454
-4.19065
-3.95823
-3.71725
-3.46771
-3.20966
-2.94315
-2.66827
-2.38514
-2.09391
-1.79478
-1.48795
-1.17371
-0.852331
-0.524164
-0.189585
0.150987
0.497091
0.848223
1.20384
1.56336
1.92614
2.29154
2.65884
3.02731
3.39618
3.76468
4.13198
4.49728
4.85974
5.21854
5.57287
5.92195
6.26499
6.60128
6.93015
7.25095
7.56315
7.86624
8.1598
8.44349
8.71703
8.98027
9.2331
9.47552
9.70758
9.92946
10.1414
10.3437
10.537
10.7215
10.898
11.067
11.2293
11.3856
11.5366
11.6834
11.8267
11.9676
12.1069
12.2456
12.3848
12.5254
12.6684
12.8147
12.9651
13.1207
13.2821
13.4501
13.6254
13.8087
14.0008
14.2022
14.4145
14.6347
14.8751
15.0733
-6.9104
-6.91872
-6.926
-6.93179
-6.93595
-6.93856
-6.93973
-6.93952
-6.93803
-6.93537
-6.93173
-6.92736
-6.92262
-6.91796
-6.91391
-6.91104
-6.90992
-6.91107
-6.91493
-6.92185
-6.93209
-6.94574
-6.96284
-6.98328
-7.00687
-7.03335
-7.0624
-7.09366
-7.12672
-7.16122
-7.19678
-7.23308
-7.26979
-7.30667
-7.34347
-7.37998
-7.41604
-7.45151
-7.48626
-7.52021
-7.55327
-7.58539
-7.61652
-7.64661
-7.67565
-7.70359
-7.73043
-7.75613
-7.78066
-7.80399
-7.8261
-7.84694
-7.86645
-7.8846
-7.90132
-7.91655
-7.9302
-7.9422
-7.95245
-7.96087
-7.96735
-7.97178
-7.97406
-7.97405
-7.97166
-7.96674
-7.95916
-7.94881
-7.93553
-7.9192
-7.89968
-7.87683
-7.8505
-7.82056
-7.78686
-7.74925
-7.70758
-7.66172
-7.6115
-7.55677
-7.49739
-7.43318
-7.36399
-7.28966
-7.21
-7.12485
-7.03403
-6.93736
-6.83464
-6.72571
-6.61037
-6.48843
-6.35971
-6.22403
-6.08119
-5.93103
-5.77336
-5.60801
-5.43483
-5.25366
-5.06437
-4.86684
-4.66096
-4.44664
-4.22381
-3.99243
-3.75248
-3.50395
-3.24687
-2.9813
-2.70732
-2.42506
-2.13466
-1.83631
-1.53022
-1.21665
-0.895891
-0.568279
-0.234185
0.105976
0.451746
0.802627
1.15808
1.51752
1.88033
2.24583
2.61334
2.98211
3.35138
3.72035
4.08821
4.45414
4.81731
5.17688
5.53202
5.88194
6.22586
6.56306
6.89284
7.21456
7.52766
7.83162
8.12602
8.41049
8.68478
8.94868
9.2021
9.44503
9.67752
9.89973
10.1119
10.3144
10.5076
10.6921
10.8684
11.0371
11.1989
11.3546
11.505
11.6509
11.7933
11.9331
12.0712
12.2087
12.3464
12.4855
12.6268
12.7713
12.9198
13.0734
13.2327
13.3985
13.5715
13.7523
13.9415
14.1394
14.347
14.5603
14.7911
14.9713
-6.8873
-6.89846
-6.90896
-6.91722
-6.92313
-6.92711
-6.92942
-6.93028
-6.92988
-6.92841
-6.92615
-6.92342
-6.9206
-6.91818
-6.91668
-6.91661
-6.91849
-6.92275
-6.92974
-6.93971
-6.95278
-6.96898
-6.98825
-7.01043
-7.03531
-7.06261
-7.09202
-7.12321
-7.15585
-7.18962
-7.2242
-7.25932
-7.29473
-7.33021
-7.36557
-7.40063
-7.43527
-7.46935
-7.5028
-7.53551
-7.56744
-7.59853
-7.62872
-7.658
-7.68632
-7.71365
-7.73996
-7.76523
-7.78942
-7.81249
-7.83441
-7.85511
-7.87456
-7.89269
-7.90943
-7.92471
-7.93845
-7.95056
-7.96095
-7.96952
-7.97617
-7.98077
-7.98323
-7.98342
-7.98121
-7.97648
-7.9691
-7.95894
-7.94586
-7.92974
-7.91042
-7.88778
-7.86167
-7.83196
-7.7985
-7.76115
-7.71976
-7.6742
-7.6243
-7.56994
-7.51094
-7.44716
-7.37843
-7.30459
-7.22548
-7.14091
-7.05072
-6.95471
-6.85271
-6.74453
-6.62997
-6.50884
-6.38095
-6.24612
-6.10414
-5.95485
-5.79806
-5.6336
-5.4613
-5.28102
-5.0926
-4.89593
-4.6909
-4.47741
-4.25539
-4.0248
-3.7856
-3.53779
-3.2814
-3.01649
-2.74312
-2.46143
-2.17156
-1.87368
-1.56801
-1.25481
-0.934356
-0.606985
-0.273063
0.0669967
0.412741
0.763676
1.11926
1.47892
1.84203
2.20792
2.5759
2.94521
3.3151
3.68476
4.05337
4.4201
4.7841
5.14453
5.50056
5.85138
6.1962
6.53428
6.86491
7.18745
7.50131
7.80598
8.101
8.38603
8.66079
8.92507
9.17878
9.42189
9.65446
9.87665
10.0887
10.291
10.4839
10.6679
10.8436
11.0116
11.1727
11.3275
11.477
11.6218
11.763
11.9015
12.0383
12.1742
12.3104
12.4478
12.5873
12.73
12.8767
13.0282
13.1854
13.349
13.5196
13.6977
13.8839
14.0781
14.2809
14.4875
14.7095
14.8744
-6.86396
-6.87738
-6.89061
-6.90109
-6.90875
-6.91418
-6.91783
-6.92
-6.92095
-6.92097
-6.92038
-6.91953
-6.91884
-6.91878
-6.91984
-6.92249
-6.92718
-6.93425
-6.94397
-6.9565
-6.9719
-6.99014
-7.01111
-7.03461
-7.06044
-7.08831
-7.11794
-7.14905
-7.18133
-7.21452
-7.24834
-7.28257
-7.317
-7.35144
-7.38572
-7.41971
-7.4533
-7.48638
-7.51887
-7.55071
-7.58184
-7.6122
-7.64176
-7.67049
-7.69834
-7.72529
-7.75131
-7.77635
-7.80037
-7.82335
-7.84521
-7.86592
-7.88541
-7.90362
-7.92047
-7.93588
-7.94977
-7.96204
-7.9726
-7.98135
-7.98817
-7.99295
-7.99558
-7.99593
-7.99388
-7.98931
-7.98207
-7.97205
-7.95911
-7.94311
-7.92392
-7.9014
-7.87542
-7.84584
-7.81252
-7.77533
-7.73411
-7.68874
-7.63906
-7.58494
-7.52622
-7.46274
-7.39436
-7.3209
-7.24221
-7.15811
-7.06843
-6.97297
-6.87156
-6.764
-6.65009
-6.52963
-6.40243
-6.2683
-6.12704
-5.97847
-5.82241
-5.65868
-5.48711
-5.30754
-5.11983
-4.92384
-4.71947
-4.50663
-4.28522
-4.05521
-3.81656
-3.56926
-3.31335
-3.04886
-2.77588
-2.49453
-2.20494
-1.9073
-1.60182
-1.28874
-0.968349
-0.640974
-0.30698
0.0332246
0.379189
0.730419
1.08638
1.44649
1.81014
2.17664
2.54529
2.91536
3.28605
3.65657
4.02608
4.39374
4.7587
5.1201
5.4771
5.82887
6.17461
6.51355
6.845
7.16828
7.48279
7.78803
8.08352
8.36892
8.64393
8.90835
9.16208
9.40509
9.63746
9.85933
10.071
10.2727
10.4649
10.6482
10.8231
10.9901
11.1502
11.3039
11.452
11.5956
11.7354
11.8724
12.0076
12.142
12.2764
12.412
12.5498
12.6905
12.8352
12.9847
13.1397
13.301
13.4691
13.6445
13.8276
14.0179
14.2158
14.4159
14.6298
14.7819
-6.84324
-6.85819
-6.87344
-6.88571
-6.89488
-6.90169
-6.90668
-6.91021
-6.91261
-6.9142
-6.91533
-6.91639
-6.91779
-6.91997
-6.92338
-6.92843
-6.93551
-6.9449
-6.95681
-6.97134
-6.98851
-7.00825
-7.03043
-7.05485
-7.08131
-7.10954
-7.13929
-7.17029
-7.20228
-7.23503
-7.26831
-7.3019
-7.33564
-7.36936
-7.40291
-7.43619
-7.4691
-7.50153
-7.53343
-7.56474
-7.5954
-7.62536
-7.65459
-7.68306
-7.71072
-7.73754
-7.76348
-7.7885
-7.81256
-7.8356
-7.85758
-7.87842
-7.89808
-7.91646
-7.93351
-7.94912
-7.96321
-7.97569
-7.98644
-7.99538
-8.00238
-8.00732
-8.0101
-8.01058
-8.00865
-8.00417
-7.99703
-7.98707
-7.97418
-7.95823
-7.93908
-7.91659
-7.89064
-7.8611
-7.82782
-7.79067
-7.74952
-7.70424
-7.65467
-7.60068
-7.54212
-7.47884
-7.4107
-7.33753
-7.25916
-7.17542
-7.08615
-6.99114
-6.89021
-6.78316
-6.66978
-6.54988
-6.42326
-6.28972
-6.14907
-6.00111
-5.84567
-5.68254
-5.51157
-5.3326
-5.14546
-4.95003
-4.74619
-4.53384
-4.3129
-4.08332
-3.84506
-3.59812
-3.34251
-3.07829
-2.80553
-2.52435
-2.23488
-1.9373
-1.63181
-1.31868
-0.998168
-0.670607
-0.336357
0.00417525
0.350542
0.702253
1.05877
1.41951
1.78385
2.15113
2.52063
2.89159
3.26324
3.63476
4.00531
4.37403
4.74004
5.10249
5.46052
5.81327
6.15994
6.49974
6.83196
7.15591
7.471
7.77669
8.07252
8.35811
8.63319
8.89755
9.15108
9.39376
9.62567
9.84697
10.0579
10.2588
10.4502
10.6324
10.8062
10.972
11.1308
11.2831
11.4298
11.5719
11.7101
11.8455
11.979
12.1116
12.2442
12.378
12.5138
12.6525
12.7952
12.9425
13.0953
13.2542
13.4198
13.5924
13.7722
13.9586
14.1516
14.3453
14.5518
14.6929
-6.82689
-6.84266
-6.85918
-6.87271
-6.88305
-6.89102
-6.8972
-6.90199
-6.90574
-6.90881
-6.91156
-6.91437
-6.91763
-6.92175
-6.92713
-6.93413
-6.94308
-6.95422
-6.96772
-6.98366
-7.00202
-7.02273
-7.04566
-7.07063
-7.09743
-7.12582
-7.15556
-7.18643
-7.21818
-7.25061
-7.28351
-7.31669
-7.35
-7.38329
-7.41644
-7.44933
-7.48189
-7.51402
-7.54567
-7.57678
-7.6073
-7.63718
-7.66639
-7.69488
-7.72261
-7.74954
-7.77564
-7.80085
-7.82512
-7.84841
-7.87064
-7.89175
-7.91167
-7.93033
-7.94764
-7.9635
-7.97784
-7.99054
-8.0015
-8.01062
-8.01777
-8.02285
-8.02573
-8.0263
-8.02442
-8.01997
-8.01283
-8.00286
-7.98994
-7.97394
-7.95472
-7.93217
-7.90614
-7.87652
-7.84317
-7.80597
-7.76478
-7.71946
-7.6699
-7.61594
-7.55745
-7.49427
-7.42627
-7.35329
-7.27515
-7.1917
-7.10274
-7.0081
-6.90756
-6.80092
-6.68799
-6.56856
-6.44242
-6.30939
-6.16926
-6.02183
-5.86691
-5.70431
-5.53386
-5.35538
-5.16873
-4.97376
-4.77035
-4.5584
-4.33783
-4.10857
-3.8706
-3.6239
-3.36849
-3.10441
-2.83175
-2.55062
-2.26114
-1.9635
-1.6579
-1.34458
-1.02382
-0.695953
-0.361331
-0.0203533
0.326535
0.678844
1.03604
1.39753
1.7627
2.13086
2.50132
2.87331
3.24602
3.61864
3.99031
4.36016
4.7273
5.09086
5.44994
5.80369
6.15128
6.49193
6.82488
7.14945
7.46502
7.77106
8.06709
8.35275
8.62773
8.89185
9.14499
9.38714
9.61839
9.83889
10.0489
10.2488
10.439
10.62
10.7924
10.9569
11.1141
11.2649
11.41
11.5504
11.6869
11.8205
11.9521
12.0829
12.2136
12.3454
12.4792
12.6159
12.7564
12.9016
13.0521
13.2086
13.3716
13.5412
13.7176
13.9
14.0881
14.2758
14.4752
14.607
-6.81564
-6.83168
-6.84879
-6.86303
-6.87416
-6.88298
-6.89011
-6.89593
-6.90082
-6.90514
-6.90924
-6.9135
-6.91826
-6.9239
-6.93078
-6.93921
-6.94948
-6.9618
-6.97631
-6.99307
-7.01209
-7.03328
-7.05654
-7.08169
-7.10854
-7.13689
-7.16651
-7.1972
-7.22874
-7.26093
-7.29359
-7.32655
-7.35965
-7.39277
-7.42579
-7.4586
-7.49113
-7.52328
-7.555
-7.58623
-7.61692
-7.64701
-7.67647
-7.70525
-7.7333
-7.76058
-7.78704
-7.81263
-7.83729
-7.86095
-7.88356
-7.90504
-7.92532
-7.9443
-7.96192
-7.97806
-7.99265
-8.00556
-8.01671
-8.02597
-8.03324
-8.03839
-8.04131
-8.04188
-8.03997
-8.03546
-8.02822
-8.01813
-8.00507
-7.9889
-7.96951
-7.94677
-7.92056
-7.89075
-7.85722
-7.81985
-7.7785
-7.73306
-7.68339
-7.62937
-7.57085
-7.50769
-7.43975
-7.36687
-7.2889
-7.20565
-7.11694
-7.02257
-6.92234
-6.81604
-6.70348
-6.58445
-6.45875
-6.32616
-6.18649
-6.03953
-5.88509
-5.72296
-5.55297
-5.37494
-5.18871
-4.99414
-4.7911
-4.57949
-4.35921
-4.13022
-3.89246
-3.64593
-3.39065
-3.12666
-2.85403
-2.57288
-2.28333
-1.98556
-1.67977
-1.3662
-1.04514
-0.716895
-0.381828
-0.0403331
0.307147
0.660124
1.01806
1.38038
1.74643
2.11556
2.48704
2.86011
3.23394
3.60771
3.98056
4.35158
4.71987
5.08454
5.44469
5.79944
6.14794
6.48938
6.82301
7.14813
7.4641
7.77039
8.06651
8.35209
8.62684
8.89055
9.14314
9.38458
9.61497
9.83449
10.0434
10.2421
10.4309
10.6105
10.7814
10.9443
11.0999
11.2489
11.3923
11.5308
11.6655
11.7972
11.927
12.0557
12.1845
12.3143
12.446
12.5807
12.719
12.8619
13.0101
13.1641
13.3243
13.4909
13.6638
13.8421
14.0254
14.2072
14.4
14.5239
-6.80953
-6.82547
-6.84262
-6.85708
-6.86859
-6.87793
-6.88567
-6.89221
-6.89792
-6.90315
-6.90825
-6.91355
-6.91937
-6.92606
-6.93393
-6.94325
-6.95429
-6.96722
-6.98219
-6.99926
-7.01844
-7.03967
-7.06286
-7.08786
-7.11451
-7.14263
-7.17201
-7.20246
-7.23379
-7.2658
-7.29834
-7.33122
-7.36432
-7.39749
-7.43063
-7.46363
-7.4964
-7.52885
-7.56093
-7.59257
-7.6237
-7.65427
-7.68424
-7.71354
-7.74213
-7.76995
-7.79694
-7.82305
-7.84822
-7.87237
-7.89543
-7.91734
-7.938
-7.95733
-7.97525
-7.99166
-8.00646
-8.01955
-8.03081
-8.04015
-8.04744
-8.05257
-8.05543
-8.05589
-8.05384
-8.04915
-8.0417
-8.03137
-8.01804
-8.00159
-7.9819
-7.95886
-7.93233
-7.90222
-7.8684
-7.83074
-7.78914
-7.74347
-7.69361
-7.63943
-7.5808
-7.51759
-7.44964
-7.37681
-7.29894
-7.21583
-7.12728
-7.03311
-6.93313
-6.82712
-6.71488
-6.59621
-6.4709
-6.33874
-6.1995
-6.05299
-5.899
-5.73732
-5.56777
-5.39017
-5.20434
-5.01015
-4.80746
-4.59616
-4.37616
-4.1474
-3.90983
-3.66345
-3.40827
-3.14433
-2.87171
-2.59051
-2.30087
-2.00295
-1.69695
-1.38312
-1.06173
-0.733095
-0.397568
-0.0555426
0.292541
0.646198
1.00489
1.36803
1.735
2.1051
2.47761
2.85176
3.22672
3.60165
3.97566
4.34784
4.71728
5.08305
5.44424
5.79994
6.1493
6.49149
6.82573
7.15131
7.46759
7.77402
8.07011
8.35549
8.62987
8.89304
9.14492
9.3855
9.61489
9.83326
10.0409
10.2382
10.4256
10.6036
10.7728
10.934
11.0878
11.235
11.3765
11.5131
11.6459
11.7756
11.9034
12.0302
12.1569
12.2846
12.4143
12.5468
12.6829
12.8236
12.9693
13.1208
13.2782
13.4417
13.611
13.7852
13.9636
14.1397
14.326
14.4432
-6.80819
-6.82379
-6.8406
-6.85492
-6.86646
-6.87594
-6.88392
-6.8908
-6.89692
-6.90265
-6.90828
-6.91415
-6.92055
-6.92777
-6.93609
-6.94576
-6.95702
-6.97005
-6.98497
-7.00187
-7.02076
-7.04163
-7.0644
-7.08896
-7.11516
-7.14286
-7.17188
-7.20203
-7.23313
-7.26502
-7.29751
-7.33046
-7.36371
-7.39714
-7.43061
-7.46402
-7.49728
-7.53029
-7.56297
-7.59525
-7.62706
-7.65833
-7.689
-7.71901
-7.74829
-7.77678
-7.80442
-7.83114
-7.85688
-7.88155
-7.90509
-7.92741
-7.94844
-7.96809
-7.98625
-8.00285
-8.01778
-8.03094
-8.04222
-8.05151
-8.05871
-8.0637
-8.06636
-8.06659
-8.06425
-8.05925
-8.05145
-8.04075
-8.02702
-8.01016
-7.99005
-7.96658
-7.93964
-7.90911
-7.87489
-7.83687
-7.79492
-7.74895
-7.69882
-7.64442
-7.58563
-7.52231
-7.45432
-7.3815
-7.30366
-7.22061
-7.13217
-7.03817
-6.93839
-6.83265
-6.72073
-6.60242
-6.4775
-6.34576
-6.20697
-6.06091
-5.90738
-5.74616
-5.57706
-5.39989
-5.21448
-5.02067
-4.81834
-4.60736
-4.38764
-4.15912
-3.92176
-3.67553
-3.42047
-3.1566
-2.88401
-2.60278
-2.31306
-2.01502
-1.70885
-1.39479
-1.07311
-0.744119
-0.408173
-0.0656595
0.282984
0.637274
0.996676
1.3606
1.72842
2.09945
2.47295
2.84814
3.22418
3.60021
3.97534
4.34863
4.71915
5.08596
5.44812
5.80471
6.15485
6.4977
6.83245
7.1584
7.47489
7.78135
8.0773
8.36236
8.63624
8.89874
9.14978
9.38937
9.61761
9.83471
10.041
10.2367
10.4225
10.5988
10.7663
10.9257
11.0776
11.2229
11.3625
11.4971
11.6279
11.7556
11.8814
12.0062
12.1309
12.2565
12.3841
12.5144
12.6484
12.7867
12.93
13.0788
13.2334
13.3937
13.5594
13.7294
13.9029
14.0735
14.2536
14.365
-6.81107
-6.82628
-6.84261
-6.85653
-6.86775
-6.87698
-6.88477
-6.89152
-6.89758
-6.90329
-6.90895
-6.91485
-6.92126
-6.92846
-6.93667
-6.94615
-6.9571
-6.9697
-6.98408
-7.00034
-7.01854
-7.03866
-7.06068
-7.08451
-7.11005
-7.13717
-7.16569
-7.19548
-7.22634
-7.25813
-7.29066
-7.32377
-7.35732
-7.39116
-7.42515
-7.45918
-7.49313
-7.52689
-7.56037
-7.59348
-7.62613
-7.65825
-7.68975
-7.72056
-7.75061
-7.77983
-7.80815
-7.83549
-7.86178
-7.88694
-7.9109
-7.93357
-7.95487
-7.97472
-7.99302
-8.00968
-8.02461
-8.0377
-8.04886
-8.05797
-8.06493
-8.06963
-8.07196
-8.07181
-8.06906
-8.06361
-8.05534
-8.04414
-8.0299
-8.01252
-7.99188
-7.96788
-7.94043
-7.9094
-7.87471
-7.83624
-7.79389
-7.74756
-7.69713
-7.64248
-7.58351
-7.52006
-7.45198
-7.37909
-7.30122
-7.2182
-7.12986
-7.03602
-6.93647
-6.83101
-6.71943
-6.60151
-6.47702
-6.34573
-6.20743
-6.06187
-5.90884
-5.74813
-5.57953
-5.40284
-5.21789
-5.02452
-4.82259
-4.61197
-4.39259
-4.16436
-3.92724
-3.68123
-3.42633
-3.16259
-2.89007
-2.60889
-2.31917
-2.02108
-1.71481
-1.4006
-1.07872
-0.749467
-0.413197
-0.0702941
0.278808
0.633629
0.993635
1.35824
1.72681
2.09866
2.47304
2.84915
3.22617
3.6032
3.97934
4.35364
4.72514
5.09288
5.4559
5.81327
6.16408
6.50747
6.84263
7.16883
7.48541
7.79178
8.08747
8.37209
8.64535
8.90706
9.15715
9.39564
9.62263
9.83835
10.0431
10.2373
10.4214
10.596
10.7616
10.9191
11.0691
11.2125
11.35
11.4828
11.6115
11.7373
11.861
11.9838
12.1065
12.2301
12.3555
12.4837
12.6154
12.7515
12.8923
13.0385
13.1902
13.3472
13.5093
13.6751
13.8438
14.0089
14.1827
14.2892
-6.81809
-6.83306
-6.84893
-6.86226
-6.87281
-6.88132
-6.88839
-6.89443
-6.89983
-6.90491
-6.90997
-6.91528
-6.92107
-6.92759
-6.93506
-6.94369
-6.9537
-6.96527
-6.97854
-6.99364
-7.01064
-7.02958
-7.05046
-7.07324
-7.09783
-7.12414
-7.15203
-7.18136
-7.21195
-7.24364
-7.27626
-7.30964
-7.3436
-7.378
-7.41267
-7.44747
-7.48227
-7.51693
-7.55135
-7.58542
-7.61901
-7.65205
-7.68444
-7.71609
-7.74692
-7.77685
-7.80579
-7.83368
-7.86044
-7.88599
-7.91024
-7.93313
-7.95457
-7.97447
-7.99276
-8.00933
-8.0241
-8.03697
-8.04785
-8.05662
-8.0632
-8.06747
-8.06933
-8.06867
-8.06538
-8.05937
-8.05051
-8.03871
-8.02387
-8.00587
-7.98463
-7.96005
-7.93202
-7.90045
-7.86524
-7.8263
-7.78354
-7.73684
-7.68612
-7.63125
-7.57208
-7.50846
-7.44024
-7.36726
-7.28937
-7.20642
-7.11822
-7.0246
-6.92535
-6.82026
-6.70911
-6.59166
-6.46769
-6.33696
-6.19924
-6.05428
-5.90186
-5.74174
-5.57373
-5.39762
-5.21322
-5.02037
-4.81892
-4.60876
-4.38979
-4.16194
-3.92516
-3.67945
-3.42481
-3.1613
-2.88897
-2.60793
-2.31832
-2.0203
-1.71406
-1.39983
-1.07788
-0.748515
-0.412067
-0.0689241
0.280485
0.635681
0.996134
1.36126
1.73042
2.10293
2.47803
2.85492
3.23276
3.61064
3.98763
4.36278
4.73511
5.10363
5.46737
5.82537
6.1767
6.52049
6.85592
7.18222
7.49875
7.8049
8.10019
8.38424
8.65676
8.91757
9.1666
9.40387
9.62952
9.84378
10.047
10.2395
10.4218
10.5946
10.7584
10.914