# vtk DataFile Version 2.0
sampleSurface
ASCII
DATASET POLYDATA
POINTS 502 float
-0.0206 0 -0.0005 -0.0190172 0 -0.0005 -0.0190172 0 0.0005 -0.0206 0
0.0005 -0.0174976 0 -0.0005 -0.0174976 0 0.0005 -0.0160387 0 -0.0005
-0.0160387 0 0.0005 -0.0146381 0 -0.0005 -0.0146381 0 0.0005 -0.0132934
0 -0.0005 -0.0132934 0 0.0005 -0.0120025 0 -0.0005 -0.0120025 0
0.0005 -0.0107632 0 -0.0005 -0.0107632 0 0.0005 -0.00957337 0 -0.0005
-0.00957337 0 0.0005 -0.00843108 0 -0.0005 -0.00843108 0 0.0005 -0.00733443
0 -0.0005 -0.00733443 0 0.0005 -0.0062816 0 -0.0005 -0.0062816 0
0.0005 -0.00527083 0 -0.0005 -0.00527083 0 0.0005 -0.00430044 0 -0.0005
-0.00430044 0 0.0005 -0.00336883 0 -0.0005 -0.00336883 0 0.0005 -0.00247443
0 -0.0005 -0.00247443 0 0.0005 -0.00161577 0 -0.0005 -0.00161577 0
0.0005 -0.000791418 0 -0.0005 -0.000791418 0 0.0005 0 0 -0.0005
0 0 0.0005 0 -0.0254 -0.0005 0 -0.0254 0.0005 0
-0.0242711 0.0005 0 -0.0242711 -0.0005 0 -0.0231422 0.0005 0 -0.0231422
-0.0005 0 -0.0220133 0.0005 0 -0.0220133 -0.0005 0 -0.0208844 0.0005
0 -0.0208844 -0.0005 0 -0.0197556 0.0005 0 -0.0197556 -0.0005 0
-0.0186267 0.0005 0 -0.0186267 -0.0005 0 -0.0174978 0.0005 0 -0.0174978
-0.0005 0 -0.0163689 0.0005 0 -0.0163689 -0.0005 0 -0.01524 0.0005
0 -0.01524 -0.0005 0 -0.0141111 0.0005 0 -0.0141111 -0.0005 0
-0.0129822 0.0005 0 -0.0129822 -0.0005 0 -0.0118533 0.0005 0 -0.0118533
-0.0005 0 -0.0107244 0.0005 0 -0.0107244 -0.0005 0 -0.00959556 0.0005
0 -0.00959556 -0.0005 0 -0.00846667 0.0005 0 -0.00846667 -0.0005 0
-0.00726604 0.0005 0 -0.00726604 -0.0005 0 -0.00618989 0.0005 0 -0.00618989
-0.0005 0 -0.00522531 0.0005 0 -0.00522531 -0.0005 0 -0.00436073 0.0005
0 -0.00436073 -0.0005 0 -0.00358579 0.0005 0 -0.00358579 -0.0005 0
-0.00289118 0.0005 0 -0.00289118 -0.0005 0 -0.0022686 0.0005 0 -0.0022686
-0.0005 0 -0.00171055 0.0005 0 -0.00171055 -0.0005 0 -0.00121037 0.0005
0 -0.00121037 -0.0005 0 -0.000762037 0.0005 0 -0.000762037 -0.0005 0
-0.000360188 0.0005 0 -0.000360188 -0.0005 0.000528387 -0.0254 -0.0005 0.000528387 -0.0254
0.0005 0.00106088 -0.0254 -0.0005 0.00106088 -0.0254 0.0005 0.00159752 -0.0254 -0.0005
0.00159752 -0.0254 0.0005 0.00213833 -0.0254 -0.0005 0.00213833 -0.0254 0.0005 0.00268334
-0.0254 -0.0005 0.00268334 -0.0254 0.0005 0.00323259 -0.0254 -0.0005 0.00323259 -0.0254
0.0005 0.00378611 -0.0254 -0.0005 0.00378611 -0.0254 0.0005 0.00434393 -0.0254 -0.0005
0.00434393 -0.0254 0.0005 0.00490609 -0.0254 -0.0005 0.00490609 -0.0254 0.0005 0.00547262
-0.0254 -0.0005 0.00547262 -0.0254 0.0005 0.00604356 -0.0254 -0.0005 0.00604356 -0.0254
0.0005 0.00661893 -0.0254 -0.0005 0.00661893 -0.0254 0.0005 0.00719878 -0.0254 -0.0005
0.00719878 -0.0254 0.0005 0.00778313 -0.0254 -0.0005 0.00778313 -0.0254 0.0005 0.00837203
-0.0254 -0.0005 0.00837203 -0.0254 0.0005 0.00896551 -0.0254 -0.0005 0.00896551 -0.0254
0.0005 0.0095636 -0.0254 -0.0005 0.0095636 -0.0254 0.0005 0.0101663 -0.0254 -0.0005
0.0101663 -0.0254 0.0005 0.0107738 -0.0254 -0.0005 0.0107738 -0.0254 0.0005 0.0113859
-0.0254 -0.0005 0.0113859 -0.0254 0.0005 0.0120028 -0.0254 -0.0005 0.0120028 -0.0254
0.0005 0.0126245 -0.0254 -0.0005 0.0126245 -0.0254 0.0005 0.0132511 -0.0254 -0.0005
0.0132511 -0.0254 0.0005 0.0138825 -0.0254 -0.0005 0.0138825 -0.0254 0.0005 0.0145188
-0.0254 -0.0005 0.0145188 -0.0254 0.0005 0.0151601 -0.0254 -0.0005 0.0151601 -0.0254
0.0005 0.0158063 -0.0254 -0.0005 0.0158063 -0.0254 0.0005 0.0164576 -0.0254 -0.0005
0.0164576 -0.0254 0.0005 0.0171139 -0.0254 -0.0005 0.0171139 -0.0254 0.0005 0.0177754
-0.0254 -0.0005 0.0177754 -0.0254 0.0005 0.018442 -0.0254 -0.0005 0.018442 -0.0254
0.0005 0.0191137 -0.0254 -0.0005 0.0191137 -0.0254 0.0005 0.0197907 -0.0254 -0.0005
0.0197907 -0.0254 0.0005 0.020473 -0.0254 -0.0005 0.020473 -0.0254 0.0005 0.0211606
-0.0254 -0.0005 0.0211606 -0.0254 0.0005 0.0218535 -0.0254 -0.0005 0.0218535 -0.0254
0.0005 0.0225517 -0.0254 -0.0005 0.0225517 -0.0254 0.0005 0.0232555 -0.0254 -0.0005
0.0232555 -0.0254 0.0005 0.0239647 -0.0254 -0.0005 0.0239647 -0.0254 0.0005 0.0246794
-0.0254 -0.0005 0.0246794 -0.0254 0.0005 0.0253996 -0.0254 -0.0005 0.0253996 -0.0254
0.0005 0.0261255 -0.0254 -0.0005 0.0261255 -0.0254 0.0005 0.026857 -0.0254 -0.0005
0.026857 -0.0254 0.0005 0.0275942 -0.0254 -0.0005 0.0275942 -0.0254 0.0005 0.0283371
-0.0254 -0.0005 0.0283371 -0.0254 0.0005 0.0290858 -0.0254 -0.0005 0.0290858 -0.0254
0.0005 0.0298403 -0.0254 -0.0005 0.0298403 -0.0254 0.0005 0.0306007 -0.0254 -0.0005
0.0306007 -0.0254 0.0005 0.031367 -0.0254 -0.0005 0.031367 -0.0254 0.0005 0.0321393
-0.0254 -0.0005 0.0321393 -0.0254 0.0005 0.0329175 -0.0254 -0.0005 0.0329175 -0.0254
0.0005 0.0337019 -0.0254 -0.0005 0.0337019 -0.0254 0.0005 0.0344923 -0.0254 -0.0005
0.0344923 -0.0254 0.0005 0.0352888 -0.0254 -0.0005 0.0352888 -0.0254 0.0005 0.0360916
-0.0254 -0.0005 0.0360916 -0.0254 0.0005 0.0369006 -0.0254 -0.0005 0.0369006 -0.0254
0.0005 0.0377158 -0.0254 -0.0005 0.0377158 -0.0254 0.0005 0.0385375 -0.0254 -0.0005
0.0385375 -0.0254 0.0005 0.0393655 -0.0254 -0.0005 0.0393655 -0.0254 0.0005 0.0401999
-0.0254 -0.0005 0.0401999 -0.0254 0.0005 0.0410408 -0.0254 -0.0005 0.0410408 -0.0254
0.0005 0.0418883 -0.0254 -0.0005 0.0418883 -0.0254 0.0005 0.0427424 -0.0254 -0.0005
0.0427424 -0.0254 0.0005 0.0436031 -0.0254 -0.0005 0.0436031 -0.0254 0.0005 0.0444704
-0.0254 -0.0005 0.0444704 -0.0254 0.0005 0.0453446 -0.0254 -0.0005 0.0453446 -0.0254
0.0005 0.0462255 -0.0254 -0.0005 0.0462255 -0.0254 0.0005 0.0471133 -0.0254 -0.0005
0.0471133 -0.0254 0.0005 0.048008 -0.0254 -0.0005 0.048008 -0.0254 0.0005 0.0489096
-0.0254 -0.0005 0.0489096 -0.0254 0.0005 0.0498183 -0.0254 -0.0005 0.0498183 -0.0254
0.0005 0.050734 -0.0254 -0.0005 0.050734 -0.0254 0.0005 0.0516568 -0.0254 -0.0005
0.0516568 -0.0254 0.0005 0.0525868 -0.0254 -0.0005 0.0525868 -0.0254 0.0005 0.053524
-0.0254 -0.0005 0.053524 -0.0254 0.0005 0.0544686 -0.0254 -0.0005 0.0544686 -0.0254
0.0005 0.0554204 -0.0254 -0.0005 0.0554204 -0.0254 0.0005 0.0563797 -0.0254 -0.0005
0.0563797 -0.0254 0.0005 0.0573464 -0.0254 -0.0005 0.0573464 -0.0254 0.0005 0.0583206
-0.0254 -0.0005 0.0583206 -0.0254 0.0005 0.0593025 -0.0254 -0.0005 0.0593025 -0.0254
0.0005 0.0602919 -0.0254 -0.0005 0.0602919 -0.0254 0.0005 0.0612891 -0.0254 -0.0005
0.0612891 -0.0254 0.0005 0.0622939 -0.0254 -0.0005 0.0622939 -0.0254 0.0005 0.0633067
-0.0254 -0.0005 0.0633067 -0.0254 0.0005 0.0643272 -0.0254 -0.0005 0.0643272 -0.0254
0.0005 0.0653557 -0.0254 -0.0005 0.0653557 -0.0254 0.0005 0.0663923 -0.0254 -0.0005
0.0663923 -0.0254 0.0005 0.0674368 -0.0254 -0.0005 0.0674368 -0.0254 0.0005 0.0684895
-0.0254 -0.0005 0.0684895 -0.0254 0.0005 0.0695504 -0.0254 -0.0005 0.0695504 -0.0254
0.0005 0.0706195 -0.0254 -0.0005 0.0706195 -0.0254 0.0005 0.0716969 -0.0254 -0.0005
0.0716969 -0.0254 0.0005 0.0727828 -0.0254 -0.0005 0.0727828 -0.0254 0.0005 0.073877
-0.0254 -0.0005 0.073877 -0.0254 0.0005 0.0749798 -0.0254 -0.0005 0.0749798 -0.0254
0.0005 0.0760911 -0.0254 -0.0005 0.0760911 -0.0254 0.0005 0.0772111 -0.0254 -0.0005
0.0772111 -0.0254 0.0005 0.0783398 -0.0254 -0.0005 0.0783398 -0.0254 0.0005 0.0794772
-0.0254 -0.0005 0.0794772 -0.0254 0.0005 0.0806235 -0.0254 -0.0005 0.0806235 -0.0254
0.0005 0.0817787 -0.0254 -0.0005 0.0817787 -0.0254 0.0005 0.0829429 -0.0254 -0.0005
0.0829429 -0.0254 0.0005 0.0841162 -0.0254 -0.0005 0.0841162 -0.0254 0.0005 0.0852985
-0.0254 -0.0005 0.0852985 -0.0254 0.0005 0.0864901 -0.0254 -0.0005 0.0864901 -0.0254
0.0005 0.0876909 -0.0254 -0.0005 0.0876909 -0.0254 0.0005 0.0889011 -0.0254 -0.0005
0.0889011 -0.0254 0.0005 0.0901207 -0.0254 -0.0005 0.0901207 -0.0254 0.0005 0.0913497
-0.0254 -0.0005 0.0913497 -0.0254 0.0005 0.0925883 -0.0254 -0.0005 0.0925883 -0.0254
0.0005 0.0938366 -0.0254 -0.0005 0.0938366 -0.0254 0.0005 0.0950945 -0.0254 -0.0005
0.0950945 -0.0254 0.0005 0.0963622 -0.0254 -0.0005 0.0963622 -0.0254 0.0005 0.0976398
-0.0254 -0.0005 0.0976398 -0.0254 0.0005 0.0989273 -0.0254 -0.0005 0.0989273 -0.0254
0.0005 0.100225 -0.0254 -0.0005 0.100225 -0.0254 0.0005 0.101532 -0.0254 -0.0005
0.101532 -0.0254 0.0005 0.10285 -0.0254 -0.0005 0.10285 -0.0254 0.0005 0.104178
-0.0254 -0.0005 0.104178 -0.0254 0.0005 0.105517 -0.0254 -0.0005 0.105517 -0.0254
0.0005 0.106865 -0.0254 -0.0005 0.106865 -0.0254 0.0005 0.108225 -0.0254 -0.0005
0.108225 -0.0254 0.0005 0.109594 -0.0254 -0.0005 0.109594 -0.0254 0.0005 0.110975
-0.0254 -0.0005 0.110975 -0.0254 0.0005 0.112366 -0.0254 -0.0005 0.112366 -0.0254
0.0005 0.113768 -0.0254 -0.0005 0.113768 -0.0254 0.0005 0.115181 -0.0254 -0.0005
0.115181 -0.0254 0.0005 0.116605 -0.0254 -0.0005 0.116605 -0.0254 0.0005 0.11804
-0.0254 -0.0005 0.11804 -0.0254 0.0005 0.119486 -0.0254 -0.0005 0.119486 -0.0254
0.0005 0.120943 -0.0254 -0.0005 0.120943 -0.0254 0.0005 0.122412 -0.0254 -0.0005
0.122412 -0.0254 0.0005 0.123892 -0.0254 -0.0005 0.123892 -0.0254 0.0005 0.125384
-0.0254 -0.0005 0.125384 -0.0254 0.0005 0.126887 -0.0254 -0.0005 0.126887 -0.0254
0.0005 0.128402 -0.0254 -0.0005 0.128402 -0.0254 0.0005 0.129928 -0.0254 -0.0005
0.129928 -0.0254 0.0005 0.131467 -0.0254 -0.0005 0.131467 -0.0254 0.0005 0.133017
-0.0254 -0.0005 0.133017 -0.0254 0.0005 0.13458 -0.0254 -0.0005 0.13458 -0.0254
0.0005 0.136155 -0.0254 -0.0005 0.136155 -0.0254 0.0005 0.137742 -0.0254 -0.0005
0.137742 -0.0254 0.0005 0.139341 -0.0254 -0.0005 0.139341 -0.0254 0.0005 0.140953
-0.0254 -0.0005 0.140953 -0.0254 0.0005 0.142577 -0.0254 -0.0005 0.142577 -0.0254
0.0005 0.144214 -0.0254 -0.0005 0.144214 -0.0254 0.0005 0.145863 -0.0254 -0.0005
0.145863 -0.0254 0.0005 0.147526 -0.0254 -0.0005 0.147526 -0.0254 0.0005 0.149201
-0.0254 -0.0005 0.149201 -0.0254 0.0005 0.15089 -0.0254 -0.0005 0.15089 -0.0254
0.0005 0.152591 -0.0254 -0.0005 0.152591 -0.0254 0.0005 0.154306 -0.0254 -0.0005
0.154306 -0.0254 0.0005 0.156034 -0.0254 -0.0005 0.156034 -0.0254 0.0005 0.157775
-0.0254 -0.0005 0.157775 -0.0254 0.0005 0.159531 -0.0254 -0.0005 0.159531 -0.0254
0.0005 0.161299 -0.0254 -0.0005 0.161299 -0.0254 0.0005 0.163082 -0.0254 -0.0005
0.163082 -0.0254 0.0005 0.164878 -0.0254 -0.0005 0.164878 -0.0254 0.0005 0.166688
-0.0254 -0.0005 0.166688 -0.0254 0.0005 0.168513 -0.0254 -0.0005 0.168513 -0.0254
0.0005 0.170351 -0.0254 -0.0005 0.170351 -0.0254 0.0005 0.172204 -0.0254 -0.0005
0.172204 -0.0254 0.0005 0.174071 -0.0254 -0.0005 0.174071 -0.0254 0.0005 0.175953
-0.0254 -0.0005 0.175953 -0.0254 0.0005 0.177849 -0.0254 -0.0005 0.177849 -0.0254
0.0005 0.17976 -0.0254 -0.0005 0.17976 -0.0254 0.0005 0.181686 -0.0254 -0.0005
0.181686 -0.0254 0.0005 0.183627 -0.0254 -0.0005 0.183627 -0.0254 0.0005 0.185583
-0.0254 -0.0005 0.185583 -0.0254 0.0005 0.187555 -0.0254 -0.0005 0.187555 -0.0254
0.0005 0.189541 -0.0254 -0.0005 0.189541 -0.0254 0.0005 0.191543 -0.0254 -0.0005
0.191543 -0.0254 0.0005 0.193561 -0.0254 -0.0005 0.193561 -0.0254 0.0005 0.195594
-0.0254 -0.0005 0.195594 -0.0254 0.0005 0.197643 -0.0254 -0.0005 0.197643 -0.0254
0.0005 0.199708 -0.0254 -0.0005 0.199708 -0.0254 0.0005 0.201789 -0.0254 -0.0005
0.201789 -0.0254 0.0005 0.203886 -0.0254 -0.0005 0.203886 -0.0254 0.0005 0.206
-0.0254 -0.0005 0.206 -0.0254 0.0005 0.208047 -0.0251856 -0.0005 0.208047 -0.0251856
0.0005 0.210173 -0.0249628 -0.0005 0.210173 -0.0249628 0.0005 0.212382 -0.0247314 -0.0005
0.212382 -0.0247314 0.0005 0.214677 -0.024491 -0.0005 0.214677 -0.024491 0.0005 0.217061
-0.0242412 -0.0005 0.217061 -0.0242412 0.0005 0.219538 -0.0239817 -0.0005 0.219538 -0.0239817
0.0005 0.222112 -0.0237121 -0.0005 0.222112 -0.0237121 0.0005 0.224785 -0.023432 -0.0005
0.224785 -0.023432 0.0005 0.227563 -0.023141 -0.0005 0.227563 -0.023141 0.0005 0.230449
-0.0228387 -0.0005 0.230449 -0.0228387 0.0005 0.233447 -0.0225246 -0.0005 0.233447 -0.0225246
0.0005 0.236562 -0.0221983 -0.0005 0.236562 -0.0221983 0.0005 0.239797 -0.0218593 -0.0005
0.239797 -0.0218593 0.0005 0.243159 -0.0215071 -0.0005 0.243159 -0.0215071 0.0005 0.246652
-0.0211412 -0.0005 0.246652 -0.0211412 0.0005 0.250281 -0.0207611 -0.0005 0.250281 -0.0207611
0.0005 0.254051 -0.0203661 -0.0005 0.254051 -0.0203661 0.0005 0.257967 -0.0199558 -0.0005
0.257967 -0.0199558 0.0005 0.262036 -0.0195295 -0.0005 0.262036 -0.0195295 0.0005 0.266264
-0.0190867 -0.0005 0.266264 -0.0190867 0.0005 0.270655 -0.0186266 -0.0005 0.270655 -0.0186266
0.0005 0.275218 -0.0181486 -0.0005 0.275218 -0.0181486 0.0005 0.279959 -0.017652 -0.0005
0.279959 -0.017652 0.0005 0.284883 -0.017136 -0.0005 0.284883 -0.017136 0.0005 0.29
-0.0166 -0.0005 0.29 -0.0166 0.0005 
POLYGONS 250 1250
4 0 1 2 3 4 1 4 5 2 4
4 6 7 5 4 6 8 9 7 4
8 10 11 9 4 10 12 13 11 4
12 14 15 13 4 14 16 17 15 4
16 18 19 17 4 18 20 21 19 4
20 22 23 21 4 22 24 25 23 4
24 26 27 25 4 26 28 29 27 4
28 30 31 29 4 30 32 33 31 4
32 34 35 33 4 34 36 37 35 4
38 39 40 41 4 41 40 42 43 4
43 42 44 45 4 45 44 46 47 4
47 46 48 49 4 49 48 50 51 4
51 50 52 53 4 53 52 54 55 4
55 54 56 57 4 57 56 58 59 4
59 58 60 61 4 61 60 62 63 4
63 62 64 65 4 65 64 66 67 4
67 66 68 69 4 69 68 70 71 4
71 70 72 73 4 73 72 74 75 4
75 74 76 77 4 77 76 78 79 4
79 78 80 81 4 81 80 82 83 4
83 82 84 85 4 85 84 86 87 4
87 86 88 89 4 89 88 90 91 4
91 90 37 36 4 38 92 93 39 4
92 94 95 93 4 94 96 97 95 4
96 98 99 97 4 98 100 101 99 4
100 102 103 101 4 102 104 105 103 4
104 106 107 105 4 106 108 109 107 4
108 110 111 109 4 110 112 113 111 4
112 114 115 113 4 114 116 117 115 4
116 118 119 117 4 118 120 121 119 4
120 122 123 121 4 122 124 125 123 4
124 126 127 125 4 126 128 129 127 4
128 130 131 129 4 130 132 133 131 4
132 134 135 133 4 134 136 137 135 4
136 138 139 137 4 138 140 141 139 4
140 142 143 141 4 142 144 145 143 4
144 146 147 145 4 146 148 149 147 4
148 150 151 149 4 150 152 153 151 4
152 154 155 153 4 154 156 157 155 4
156 158 159 157 4 158 160 161 159 4
160 162 163 161 4 162 164 165 163 4
164 166 167 165 4 166 168 169 167 4
168 170 171 169 4 170 172 173 171 4
172 174 175 173 4 174 176 177 175 4
176 178 179 177 4 178 180 181 179 4
180 182 183 181 4 182 184 185 183 4
184 186 187 185 4 186 188 189 187 4
188 190 191 189 4 190 192 193 191 4
192 194 195 193 4 194 196 197 195 4
196 198 199 197 4 198 200 201 199 4
200 202 203 201 4 202 204 205 203 4
204 206 207 205 4 206 208 209 207 4
208 210 211 209 4 210 212 213 211 4
212 214 215 213 4 214 216 217 215 4
216 218 219 217 4 218 220 221 219 4
220 222 223 221 4 222 224 225 223 4
224 226 227 225 4 226 228 229 227 4
228 230 231 229 4 230 232 233 231 4
232 234 235 233 4 234 236 237 235 4
236 238 239 237 4 238 240 241 239 4
240 242 243 241 4 242 244 245 243 4
244 246 247 245 4 246 248 249 247 4
248 250 251 249 4 250 252 253 251 4
252 254 255 253 4 254 256 257 255 4
256 258 259 257 4 258 260 261 259 4
260 262 263 261 4 262 264 265 263 4
264 266 267 265 4 266 268 269 267 4
268 270 271 269 4 270 272 273 271 4
272 274 275 273 4 274 276 277 275 4
276 278 279 277 4 278 280 281 279 4
280 282 283 281 4 282 284 285 283 4
284 286 287 285 4 286 288 289 287 4
288 290 291 289 4 290 292 293 291 4
292 294 295 293 4 294 296 297 295 4
296 298 299 297 4 298 300 301 299 4
300 302 303 301 4 302 304 305 303 4
304 306 307 305 4 306 308 309 307 4
308 310 311 309 4 310 312 313 311 4
312 314 315 313 4 314 316 317 315 4
316 318 319 317 4 318 320 321 319 4
320 322 323 321 4 322 324 325 323 4
324 326 327 325 4 326 328 329 327 4
328 330 331 329 4 330 332 333 331 4
332 334 335 333 4 334 336 337 335 4
336 338 339 337 4 338 340 341 339 4
340 342 343 341 4 342 344 345 343 4
344 346 347 345 4 346 348 349 347 4
348 350 351 349 4 350 352 353 351 4
352 354 355 353 4 354 356 357 355 4
356 358 359 357 4 358 360 361 359 4
360 362 363 361 4 362 364 365 363 4
364 366 367 365 4 366 368 369 367 4
368 370 371 369 4 370 372 373 371 4
372 374 375 373 4 374 376 377 375 4
376 378 379 377 4 378 380 381 379 4
380 382 383 381 4 382 384 385 383 4
384 386 387 385 4 386 388 389 387 4
388 390 391 389 4 390 392 393 391 4
392 394 395 393 4 394 396 397 395 4
396 398 399 397 4 398 400 401 399 4
400 402 403 401 4 402 404 405 403 4
404 406 407 405 4 406 408 409 407 4
408 410 411 409 4 410 412 413 411 4
412 414 415 413 4 414 416 417 415 4
416 418 419 417 4 418 420 421 419 4
420 422 423 421 4 422 424 425 423 4
424 426 427 425 4 426 428 429 427 4
428 430 431 429 4 430 432 433 431 4
432 434 435 433 4 434 436 437 435 4
436 438 439 437 4 438 440 441 439 4
440 442 443 441 4 442 444 445 443 4
444 446 447 445 4 446 448 449 447 4
448 450 451 449 4 450 452 453 451 4
452 454 455 453 4 454 456 457 455 4
456 458 459 457 4 458 460 461 459 4
460 462 463 461 4 462 464 465 463 4
464 466 467 465 4 466 468 469 467 4
468 470 471 469 4 470 472 473 471 4
472 474 475 473 4 474 476 477 475 4
476 478 479 477 4 478 480 481 479 4
480 482 483 481 4 482 484 485 483 4
484 486 487 485 4 486 488 489 487 4
488 490 491 489 4 490 492 493 491 4
492 494 495 493 4 494 496 497 495 4
496 498 499 497 4 498 500 501 499 
POINT_DATA 502
FIELD attributes 1
U 3 502 float
3.36304 -0.00875484 0.0281871 1.68739 -0.00396805 0.0138906 1.68739 -0.00396805 0.0138906 3.36304 -0.00875484
0.0281871 0.0583632 0.000592133 0 0.0583632 0.000592133 0 0.0566301 0.0004684 0
0.0566301 0.0004684 0 0.0549186 0.000446615 0 0.0549186 0.000446615 0 0.052858
0.000487297 0 0.052858 0.000487297 0 0.0504124 0.00051022 0 0.0504124 0.00051022
0 0.0479249 0.000461293 0 0.0479249 0.000461293 0 0.0457654 0.000363944 0
0.0457654 0.000363944 0 0.0440572 0.000281747 0 0.0440572 0.000281747 0 0.0426274
0.000269019 0 0.0426274 0.000269019 0 0.0411245 0.000348411 0 0.0411245 0.000348411
0 0.0391882 0.000509539 0 0.0391882 0.000509539 0 0.0365165 0.000714977 0
0.0365165 0.000714977 0 0.0330307 0.000904727 0 0.0330307 0.000904727 0 0.0287207
0.00109542 0 0.0287207 0.00109542 0 0.0236437 0.0013042 0 0.0236437 0.0013042
0 0.0175464 0.00175528 0 0.0175464 0.00175528 0 0.00621067 0.000391778 0
0.00621067 0.000391778 0 -0.000406587 0.0010274 2.02737e-22 -0.000406587 0.0010274 2.02737e-22 -8.39904e-05
0.00225988 -5.48454e-22 -8.39904e-05 0.00225988 -5.48454e-22 0.000253578 0.00251551 -6.50058e-22 0.000253578 0.00251551
-6.50058e-22 -0.000173305 0.00102001 1.30137e-21 -0.000173305 0.00102001 1.30137e-21 -7.92227e-05 0.000430251 4.35321e-22
-7.92227e-05 0.000430251 4.35321e-22 0.00154532 -0.00545696 -8.66285e-22 0.00154532 -0.00545696 -8.66285e-22 0.00212997
-0.0151734 0 0.00212997 -0.0151734 0 0.00125238 -0.0205658 -1.70786e-21 0.00125238 -0.0205658
-1.70786e-21 0.000707524 -0.023542 -1.17526e-24 0.000707524 -0.023542 -1.17526e-24 0.000345019 -0.0252941 1.70668e-21
0.000345019 -0.0252941 1.70668e-21 6.8416e-05 -0.0257462 -1.71561e-21 6.8416e-05 -0.0257462 -1.71561e-21 -0.000125612
-0.0254734 1.84599e-25 -0.000125612 -0.0254734 1.84599e-25 -0.00029796 -0.0244372 1.7158e-21 -0.00029796 -0.0244372
1.7158e-21 -0.000438646 -0.022858 1.75497e-21 -0.000438646 -0.022858 1.75497e-21 -0.000582297 -0.0206499 -2.05456e-24
-0.000582297 -0.0206499 -2.05456e-24 -0.000725186 -0.0178231 -1.78816e-21 -0.000725186 -0.0178231 -1.78816e-21 -0.000859299
-0.0142488 0 -0.000859299 -0.0142488 0 -0.000898401 -0.0106472 0 -0.000898401 -0.0106472
0 -0.00086038 -0.0073551 0 -0.00086038 -0.0073551 0 -0.00083837 -0.00435179 0
-0.00083837 -0.00435179 0 -0.000710355 -0.00178693 0 -0.000710355 -0.00178693 0 -0.000471183
9.49432e-05 0 -0.000471183 9.49432e-05 0 -0.000226277 0.00112762 0 -0.000226277 0.00112762
0 2.03457e-05 0.0015412 0 2.03457e-05 0.0015412 0 0.000201962 0.00122024 0
0.000201962 0.00122024 0 0.000439774 0.000937232 0 0.000439774 0.000937232 0 8.37502e-05
3.7201e-05 0 8.37502e-05 3.7201e-05 0 -0.000698802 0.000747881 9.63296e-25 -0.000698802 0.000747881
9.63296e-25 -0.00113291 0.000282626 -1.00663e-22 -0.00113291 0.000282626 -1.00663e-22 -0.00128203 -0.000117267 0
-0.00128203 -0.000117267 0 -0.00114774 -0.000458983 0 -0.00114774 -0.000458983 0 -0.000757218
-0.000707341 9.77839e-23 -0.000757218 -0.000707341 9.77839e-23 -0.000150558 -0.00092346 9.79596e-23 -0.000150558 -0.00092346
9.79596e-23 0.000663369 -0.00108287 0 0.000663369 -0.00108287 0 0.00163054 -0.00117655 0
0.00163054 -0.00117655 0 0.0026682 -0.00120402 0 0.0026682 -0.00120402 0 0.00371341
-0.00117839 -9.34477e-23 0.00371341 -0.00117839 -9.34477e-23 0.00473102 -0.00111285 -9.36257e-23 0.00473102 -0.00111285
-9.36257e-23 0.00569741 -0.00101576 0 0.00569741 -0.00101576 0 0.00658921 -0.000895763 0
0.00658921 -0.000895763 0 0.00738354 -0.000759958 0 0.00738354 -0.000759958 0 0.00806116
-0.000614092 -8.88151e-23 0.00806116 -0.000614092 -8.88151e-23 0.00860944 -0.000461836 -8.89945e-23 0.00860944 -0.000461836
-8.89945e-23 0.00901655 -0.000304524 0 0.00901655 -0.000304524 0 0.00927455 -0.000140593 0
0.00927455 -0.000140593 0 0.00936949 3.51806e-05 0 0.00936949 3.51806e-05 0 0.00929104
0.000228967 0 0.00929104 0.000228967 0 0.00901276 0.000444494 0 0.00901276 0.000444494
0 0.00853209 0.000679943 0 0.00853209 0.000679943 0 0.00781441 0.000936466 -8.40775e-23
0.00781441 0.000936466 -8.40775e-23 0.00687399 0.00119964 -5.20419e-25 0.00687399 0.00119964 -5.20419e-25 0.00565048
0.00147146 5.11035e-25 0.00565048 0.00147146 5.11035e-25 0.00421071 0.00168055 -1.6669e-22 0.00421071 0.00168055
-1.6669e-22 0.00245753 0.0018315 -8.32725e-23 0.00245753 0.0018315 -8.32725e-23 0.000621701 0.00101106 0
0.000621701 0.00101106 0 -0.000598186 -0.000111627 8.14347e-23 -0.000598186 -0.000111627 8.14347e-23 -0.00152511
0.000394444 1.62173e-22 -0.00152511 0.000394444 1.62173e-22 -0.00258737 0.00129652 8.0738e-23 -0.00258737 0.00129652
8.0738e-23 -0.00379823 0.00131753 0 -0.00379823 0.00131753 0 -0.00509299 0.00101448 7.76297e-23
-0.00509299 0.00101448 7.76297e-23 -0.0060583 0.000584176 7.78209e-23 -0.0060583 0.000584176 7.78209e-23 -0.00635435
-3.59169e-05 0 -0.00635435 -3.59169e-05 0 -0.00595305 -0.000711745 -7.58759e-23 -0.00595305 -0.000711745
-7.58759e-23 -0.00484677 -0.00141593 -7.60688e-23 -0.00484677 -0.00141593 -7.60688e-23 -0.00303764 -0.00204869 -7.54649e-23
-0.00303764 -0.00204869 -7.54649e-23 -0.00077609 -0.00206971 -2.25761e-22 -0.00077609 -0.00206971 -2.25761e-22 0.0011195
-0.00149534 -1.50494e-22 0.0011195 -0.00149534 -1.50494e-22 0.00236097 -0.00119053 0 0.00236097 -0.00119053
0 0.00253287 -0.000409822 0 0.00253287 -0.000409822 0 0.00186748 0.00103525 0
0.00186748 0.00103525 0 0.00185091 0.000789984 0 0.00185091 0.000789984 0 0.0021636
-0.00162636 -1.42336e-22 0.0021636 -0.00162636 -1.42336e-22 0.00217039 -0.00338432 -2.83446e-22 0.00217039 -0.00338432
-2.83446e-22 0.0021063 -0.0020316 -2.80477e-22 0.0021063 -0.0020316 -2.80477e-22 0.000695683 0.000836162 -1.39763e-22
0.000695683 0.000836162 -1.39763e-22 -0.00203609 0.00208947 1.37122e-22 -0.00203609 0.00208947 1.37122e-22 -0.00467527
0.00210056 1.3752e-22 -0.00467527 0.00210056 1.3752e-22 -0.00721981 0.00210002 -1.33356e-22 -0.00721981 0.00210002
-1.33356e-22 -0.00961352 0.00194576 -2.64944e-22 -0.00961352 0.00194576 -2.64944e-22 -0.0117405 0.00169721 -1.31586e-22
-0.0117405 0.00169721 -1.31586e-22 -0.0135938 0.00143837 0 -0.0135938 0.00143837 0 -0.0151982
0.00121926 0 -0.0151982 0.00121926 0 -0.0166052 0.00104728 -1.22376e-22 -0.0166052 0.00104728
-1.22376e-22 -0.0178566 0.000918847 -1.22755e-22 -0.0178566 0.000918847 -1.22755e-22 -0.0189917 0.000823681 0
-0.0189917 0.000823681 0 -0.0200365 0.000751326 0 -0.0200365 0.000751326 0 -0.0210081
0.00069089 0 -0.0210081 0.00069089 0 -0.0219121 0.000633516 0 -0.0219121 0.000633516
0 -0.022746 0.000572656 0 -0.022746 0.000572656 0 -0.0235002 0.000504724 0
-0.0235002 0.000504724 0 -0.0241617 0.00042847 0 -0.0241617 0.00042847 0 -0.0247157
0.000344352 1.06012e-22 -0.0247157 0.000344352 1.06012e-22 -0.0251487 0.00025429 1.06368e-22 -0.0251487 0.00025429
1.06368e-22 -0.02545 0.000162024 0 -0.02545 0.000162024 0 -0.0256127 7.22234e-05 -1.02393e-22
-0.0256127 7.22234e-05 -1.02393e-22 -0.0256348 -1.15645e-05 -2.04195e-22 -0.0256348 -1.15645e-05 -2.04195e-22 -0.0255308
-8.74395e-05 -1.01802e-22 -0.0255308 -8.74395e-05 -1.01802e-22 -0.0253124 -0.000155354 9.99369e-23 -0.0253124 -0.000155354
9.99369e-23 -0.0249852 -0.000214852 9.47431e-25 -0.0249852 -0.000214852 9.47431e-25 -0.0245634 -0.000265615 -9.96976e-23
-0.0245634 -0.000265615 -9.96976e-23 -0.0240597 -0.00030766 9.83934e-23 -0.0240597 -0.00030766 9.83934e-23 -0.0234884
-0.000340671 9.87504e-23 -0.0234884 -0.000340671 9.87504e-23 -0.0228634 -0.000365417 0 -0.0228634 -0.000365417
0 -0.022197 -0.000382627 -9.73058e-23 -0.022197 -0.000382627 -9.73058e-23 -0.021501 -0.000393423 -9.76676e-23
-0.021501 -0.000393423 -9.76676e-23 -0.0207844 -0.000399065 9.66512e-23 -0.0207844 -0.000399065 9.66512e-23 -0.020055
-0.00040076 9.70164e-23 -0.020055 -0.00040076 9.70164e-23 -0.0193183 -0.000399746 -9.59843e-23 -0.0193183 -0.000399746
-9.59843e-23 -0.018578 -0.000397068 -1.91992e-22 -0.018578 -0.000397068 -1.91992e-22 -0.017836 -0.00039364 -1.91295e-22
-0.017836 -0.00039364 -1.91295e-22 -0.0170931 -0.000390191 -2.85507e-22 -0.0170931 -0.000390191 -2.85507e-22 -0.0163486
-0.000387224 -1.48134e-24 -0.0163486 -0.000387224 -1.48134e-24 -0.0156015 -0.000385019 1.89863e-22 -0.0156015 -0.000385019
1.89863e-22 -0.0148502 -0.000383669 0 -0.0148502 -0.000383669 0 -0.0140932 -0.000383097 0
-0.0140932 -0.000383097 0 -0.0133292 -0.000383073 1.86054e-22 -0.0133292 -0.000383073 1.86054e-22 -0.0125576
-0.000383264 3.72063e-22 -0.0125576 -0.000383264 3.72063e-22 -0.0117783 -0.000383329 1.58824e-24 -0.0117783 -0.000383329
1.58824e-24 -0.010992 -0.000382979 -1.85187e-22 -0.010992 -0.000382979 -1.85187e-22 -0.0101995 -0.000382039 1.82674e-22
-0.0101995 -0.000382039 1.82674e-22 -0.0094018 -0.000380507 3.6518e-22 -0.0094018 -0.000380507 3.6518e-22 -0.00859988
-0.00037853 3.63266e-22 -0.00859988 -0.00037853 3.63266e-22 -0.00779403 -0.00037639 1.81529e-22 -0.00779403 -0.00037639
1.81529e-22 -0.00698364 -0.000374472 0 -0.00698364 -0.000374472 0 -0.00616737 -0.000373043 0
-0.00616737 -0.000373043 0 -0.00534359 -0.000372142 1.76352e-22 -0.00534359 -0.000372142 1.76352e-22 -0.00451048
-0.000371798 1.77124e-22 -0.00451048 -0.000371798 1.77124e-22 -0.0036663 -0.000372129 0 -0.0036663 -0.000372129
0 -0.0028105 -0.000372803 -1.7256e-22 -0.0028105 -0.000372803 -1.7256e-22 -0.0019444 -0.000372457 -1.7333e-22
-0.0019444 -0.000372457 -1.7333e-22 -0.00107018 -0.000370336 0 -0.00107018 -0.000370336 0 -0.000191989
-0.000366069 -1.68283e-22 -0.000191989 -0.000366069 -1.68283e-22 0.0006842 -0.000358587 -1.69049e-22 0.0006842 -0.000358587
-1.69049e-22 0.00155181 -0.000347551 0 0.00155181 -0.000347551 0 0.00240283 -0.000333095 1.63095e-22
0.00240283 -0.000333095 1.63095e-22 0.00322865 -0.000315216 3.25144e-22 0.00322865 -0.000315216 3.25144e-22 0.00402112
-0.000293956 1.62045e-22 0.00402112 -0.000293956 1.62045e-22 0.00477212 -0.000269444 -1.57618e-22 0.00477212 -0.000269444
-1.57618e-22 0.00547331 -0.000242041 -1.58363e-22 0.00547331 -0.000242041 -1.58363e-22 0.00611603 -0.000212467 1.53892e-22
0.00611603 -0.000212467 1.53892e-22 0.00669244 -0.000181995 1.54628e-22 0.00669244 -0.000181995 1.54628e-22 0.0071979
-0.000152445 1.50166e-22 0.0071979 -0.000152445 1.50166e-22 0.00763294 -0.000125538 2.99212e-22 0.00763294 -0.000125538
2.99212e-22 0.00800246 -0.000101861 1.49041e-22 0.00800246 -0.000101861 1.49041e-22 0.00831172 -8.00319e-05 0
0.00831172 -8.00319e-05 0 0.00856166 -5.72185e-05 0 0.00856166 -5.72185e-05 0 0.00874864
-3.23606e-05 0 0.00874864 -3.23606e-05 0 0.0088709 -8.97199e-06 0 0.0088709 -8.97199e-06
0 0.00893599 7.77462e-06 0 0.00893599 7.77462e-06 0 0.00896144 1.58205e-05 0
0.00896144 1.58205e-05 0 0.00897078 1.61348e-05 1.34217e-22 0.00897078 1.61348e-05 1.34217e-22 0.00898573
1.26706e-05 2.35725e-24 0.00898573 1.26706e-05 2.35725e-24 0.00901372 1.33414e-05 -1.33222e-22 0.00901372 1.33414e-05
-1.33222e-22 0.0090398 2.43414e-05 0 0.0090398 2.43414e-05 0 0.00903915 4.2653e-05 0
0.00903915 4.2653e-05 0 0.00899714 5.93863e-05 0 0.00899714 5.93863e-05 0 0.0089152
6.86659e-05 -2.48834e-22 0.0089152 6.86659e-05 -2.48834e-22 0.00880706 6.9277e-05 -2.50141e-22 0.00880706 6.9277e-05
-2.50141e-22 0.00869036 6.25662e-05 2.42529e-22 0.00869036 6.25662e-05 2.42529e-22 0.00857986 5.15453e-05 4.40277e-24
0.00857986 5.15453e-05 4.40277e-24 0.00848447 3.96993e-05 -2.4069e-22 0.00848447 3.96993e-05 -2.4069e-22 0.00840772
2.95978e-05 0 0.00840772 2.95978e-05 0 0.00834974 2.2491e-05 0 0.00834974 2.2491e-05
0 0.00830887 1.89389e-05 2.2716e-22 0.00830887 1.89389e-05 2.2716e-22 0.00828154 1.93514e-05 4.52543e-22
0.00828154 1.93514e-05 4.52543e-22 0.0082619 2.36787e-05 2.25371e-22 0.0082619 2.36787e-05 2.25371e-22 0.00824279
3.09823e-05 2.18181e-22 0.00824279 3.09823e-05 2.18181e-22 0.00821755 3.97148e-05 4.34608e-22 0.00821755 3.97148e-05
4.34608e-22 0.00818095 4.87575e-05 4.12825e-24 0.00818095 4.87575e-05 4.12825e-24 0.00812865 5.8297e-05 -2.13468e-22
0.00812865 5.8297e-05 -2.13468e-22 0.00805633 6.92987e-05 0 0.00805633 6.92987e-05 0 0.00795968
8.18788e-05 -2.03579e-22 0.00795968 8.18788e-05 -2.03579e-22 0.00783612 9.407e-05 -2.04726e-22 0.00783612 9.407e-05
-2.04726e-22 0.0076873 0.000102303 0 0.0076873 0.000102303 0 0.00752017 0.00010351 0
0.00752017 0.00010351 0 0.00734544 9.70496e-05 0 0.00734544 9.70496e-05 0 0.00717409
8.49788e-05 1.8936e-22 0.00717409 8.49788e-05 1.8936e-22 0.00701399 7.08685e-05 3.77006e-22 0.00701399 7.08685e-05
3.77006e-22 0.00686838 5.81705e-05 1.87634e-22 0.00686838 5.81705e-05 1.87634e-22 0.00673656 4.89726e-05 1.80989e-22
0.00673656 4.89726e-05 1.80989e-22 0.00661558 4.35206e-05 1.82042e-22 0.00661558 4.35206e-05 1.82042e-22 0.00650219
4.0671e-05 0 0.00650219 4.0671e-05 0 0.0063942 3.88149e-05 1.72723e-22 0.0063942 3.88149e-05
1.72723e-22 0.00629117 3.66143e-05 1.7374e-22 0.00629117 3.66143e-05 1.7374e-22 0.00619419 3.34508e-05 1.67265e-22
0.00619419 3.34508e-05 1.67265e-22 0.00610518 2.94368e-05 1.68257e-22 0.00610518 2.94368e-05 1.68257e-22 0.00602586
2.50924e-05 0 0.00602586 2.50924e-05 0 0.0059571 2.10145e-05 1.59159e-22 0.0059571 2.10145e-05
1.59159e-22 0.00589859 1.76306e-05 1.60113e-22 0.00589859 1.76306e-05 1.60113e-22 0.00584924 1.50939e-05 1.53807e-22
0.00584924 1.50939e-05 1.53807e-22 0.00580725 1.33419e-05 1.54736e-22 0.00580725 1.33419e-05 1.54736e-22 0.00577092
1.21913e-05 0 0.00577092 1.21913e-05 0 0.00573828 1.148e-05 0 0.00573828 1.148e-05