/*--------------------------------*- C++ -*----------------------------------*\
  =========                 |
  \\      /  F ield         | OpenFOAM: The Open Source CFD Toolbox
   \\    /   O peration     | Website:  https://openfoam.org
    \\  /    A nd           | Version:  9
     \\/     M anipulation  |
\*---------------------------------------------------------------------------*/
FoamFile
{
    format      ascii;
    class       volScalarField;
    location    "0.26";
    object      epsilon;
}
// * * * * * * * * * * * * * * * * * * * * * * * * * * * * * * * * * * * * * //

dimensions      [0 2 -3 0 0 0 0];

internalField   nonuniform List<scalar> 
12225
(
247.455
207.839
177.982
156.301
141.59
132.808
128.974
129.103
132.209
137.346
143.65
150.372
157
163.919
170.68
177.042
183.385
189.799
43.6114
57.4429
66.3669
75.862
88.3981
105.065
126.185
151.373
179.62
209.475
239.297
267.489
292.72
313.525
329.414
339.977
345.293
343.287
20.9018
26.5575
31.0274
34.9801
39.0326
43.559
48.7586
54.6742
61.1962
68.0903
75.0454
81.7108
87.7013
93.1213
97.79
101.451
103.9
104.817
16.2866
18.2411
20.1129
21.8469
23.5208
25.2094
26.9606
28.7909
30.6839
32.5945
34.4566
36.1702
37.7656
39.2343
40.5339
41.6202
42.4512
42.9888
15.0515
15.6029
16.2818
16.9882
17.6928
18.3912
19.0856
19.777
20.4606
21.1245
21.7456
22.3323
22.8802
23.3826
23.8325
24.2237
24.5524
24.8164
14.6977
14.7065
14.8326
15.0246
15.2516
15.496
15.7477
16.0003
16.2482
16.4835
16.7099
16.9251
17.1272
17.3147
17.4871
17.6448
17.7902
17.9241
14.5985
14.4088
14.2909
14.2289
14.2077
14.2151
14.2416
14.2798
14.3235
14.3719
14.4231
14.4755
14.5281
14.5807
14.6338
14.689
14.7482
14.8117
14.5721
14.3162
14.1014
13.9246
13.7807
13.6642
13.5697
13.4919
13.4282
13.376
13.3335
13.2994
13.273
13.2544
13.2439
13.2427
13.2518
13.2703
14.5654
14.2897
14.0407
13.8179
13.6197
13.444
13.2883
13.1502
13.028
12.9199
12.8245
12.7411
12.6691
12.6085
12.5595
12.5228
12.4984
12.4852
14.5638
14.2825
14.0228
13.7839
13.5646
13.364
13.1808
13.014
12.8623
12.7248
12.6008
12.4897
12.3912
12.3053
12.2322
12.1719
12.1242
12.088
14.5633
14.2806
14.0178
13.7737
13.5471
13.3373
13.1431
12.964
12.799
12.6476
12.5092
12.3836
12.2706
12.1701
12.0821
12.0064
11.9427
11.8901
14.5632
14.2801
14.0163
13.7707
13.5419
13.329
13.1312
12.9475
12.7773
12.6202
12.4755
12.3432
12.2229
12.1146
12.0181
11.9331
11.8591
11.7957
14.5632
14.2798
14.0157
13.7694
13.5397
13.3256
13.126
12.9403
12.7677
12.6077
12.4598
12.3237
12.1991
12.0859
11.9838
11.8924
11.8113
11.7402
14.5632
14.2797
14.0153
13.7686
13.5384
13.3235
13.123
12.9361
12.762
12.6002
12.4501
12.3114
12.1837
12.0667
11.9601
11.8636
11.7765
11.6991
14.5632
14.2797
14.0151
13.7681
13.5374
13.3219
13.1207
12.9328
12.7575
12.5942
12.4423
12.3014
12.171
12.0507
11.9403
11.8393
11.7472
11.6642
14.5632
14.2797
14.0149
13.7677
13.5366
13.3205
13.1185
12.9297
12.7532
12.5885
12.4349
12.2919
12.1589
12.0357
11.9218
11.8167
11.7201
11.6323
14.5632
14.2797
14.0149
13.7674
13.5359
13.3193
13.1166
12.9268
12.7492
12.5831
12.4277
12.2827
12.1474
12.0213
11.9042
11.7954
11.6948
11.6027
14.5633
14.2798
14.0149
13.7671
13.5353
13.3182
13.1148
12.9242
12.7455
12.578
12.4211
12.2742
12.1367
12.0081
11.8881
11.7761
11.672
11.576
14.5634
14.2798
14.0148
13.7669
13.5348
13.3172
13.1132
12.9218
12.7421
12.5735
12.4152
12.2666
12.1272
11.9966
11.8742
11.7596
11.6525
11.5534
14.5634
14.2799
14.0148
13.7668
13.5344
13.3165
13.112
12.9201
12.7397
12.5703
12.4111
12.2614
12.1209
11.9889
11.8649
11.7486
11.6397
11.5387
14.5634
14.2799
14.0148
13.7666
13.5341
13.316
13.1113
12.9191
12.7385
12.5687
12.4091
12.2591
12.1182
11.9857
11.8613
11.7446
11.6351
11.5336
14.5634
14.2799
14.0148
13.7667
13.5342
13.3163
13.1119
12.9201
12.7401
12.571
12.4124
12.2635
12.1239
11.9929
11.8702
11.7554
11.6481
11.5488
14.5635
14.2802
14.0157
13.7686
13.5378
13.3223
13.1211
12.9333
12.7582
12.5949
12.4427
12.3011
12.1695
12.0473
11.934
11.8291
11.7323
11.644
14.5642
14.2834
14.0238
13.7848
13.5653
13.3643
13.1803
13.0123
12.859
12.7195
12.5927
12.4779
12.3743
12.2812
12.198
12.1243
12.0596
12.0041
14.5707
14.3085
14.0808
13.8853
13.7187
13.5774
13.4579
13.3573
13.2736
13.205
13.1505
13.1092
13.0804
13.0637
13.0588
13.0653
13.083
13.1114
14.6205
14.4682
14.39
14.364
14.374
14.4091
14.4629
14.5326
14.6172
14.7173
14.8338
14.968
15.1212
15.2946
15.4891
15.7053
15.9434
16.2017
14.9429
15.2921
15.7338
16.1908
16.6411
17.0838
17.5266
17.9814
18.4607
18.9768
19.5406
20.161
20.8457
21.6004
22.4291
23.3341
24.3162
25.3694
16.8031
19.0024
20.8519
22.3947
23.7746
25.1028
26.4661
27.9386
29.5831
31.4514
33.586
36.0206
38.7807
41.883
45.3364
49.142
53.2942
57.7656
28.5781
36.0233
40.37
43.6395
46.863
50.5515
55.0343
60.5498
67.2727
75.3327
84.824
95.8052
108.298
122.287
137.719
154.505
172.542
191.599
152.47
136.924
124.047
113.406
104.71
97.7332
92.3011
88.2699
85.514
83.9204
83.3848
83.8095
85.1014
87.1712
89.9329
93.3037
97.2051
101.547
25.1729
8.43458
40.1261
46.2344
50.6486
54.2539
57.4071
61.1474
66.6978
74.9383
86.4272
101.475
120.198
142.55
168.38
197.517
229.883
265.649
305.341
349.998
397.673
444.706
490.224
533.619
574.569
613.253
650.318
687.018
726.43
770.611
812.027
847.837
876.262
896.107
906.498
907.04
897.826
878.945
849.664
808.29
754.487
696.877
626.916
536.495
424.929
304.534
197.568
121.088
76.419
54.6501
46.6818
47.1145
53.078
63.3754
75.2644
89.8288
108.25
129.919
146.465
153.113
148.204
135.602
121.525
110.629
104.025
103.185
108.151
116.345
127.093
142.464
173.895
248.239
398.877
559.854
709.411
841.188
951.181
1038.66
1104.73
1151.42
1181.17
1196.48
1199.73
1193.13
1178.66
1158.1
1132.99
1104.96
1074.95
1043.32
1010.33
976.23
941.193
905.344
868.757
831.456
793.413
754.559
714.794
674.008
632.107
589.051
544.894
499.828
454.22
408.655
363.988
321.689
285.135
264.345
255.879
248.56
241.592
235.068
229.162
224.019
219.739
216.374
213.929
212.363
211.592
211.488
211.889
212.618
213.075
211.882
208.14
201.213
190.746
176.788
159.897
141.149
121.985
103.763
87.1338
71.6588
13.4624
12.1544
11.5876
11.5584
11.8665
12.3292
12.7885
13.1177
13.2307
13.089
12.7054
12.1412
11.4975
10.9041
10.506
10.4151
10.6537
11.225
12.129
13.3944
15.0181
71.2009
85.8564
133.554
211.812
282.126
338.599
379.424
406.08
421.892
431.437
430.648
419.926
399.257
368.492
328.387
282.369
250.273
243.827
238.339
233.619
230.186
228.003
224.262
27.0075
28.2191
34.5197
37.621
42.816
51.1167
61.8801
75.1022
90.9945
109.287
129.417
150.734
172.728
195.068
217.569
240.115
262.635
285.087
307.459
329.791
351.896
373.609
394.846
415.478
435.3
454.057
471.42
486.965
500.157
510.267
516.478
517.722
513.641
504.262
489.599
469.845
445.627
418.378
391.007
367.395
350.05
342.528
335.843
324.366
310.348
300.451
298.223
295.035
274.357
229.496
172.581
123.29
91.008
73.539
66.3695
68.7502
79.2782
94.8406
110.647
119.041
115.377
102.507
87.7603
78.9702
82.0636
106.185
167.113
277.254
409.762
494.27
508.082
509.066
506.003
494.785
476.95
454.029
427.81
399.959
371.952
345.033
320.199
298.201
279.587
264.748
253.957
247.367
245.038
245.588
246.331
247.144
247.969
248.752
249.435
249.954
250.236
250.188
249.697
248.624
246.804
244.049
240.159
234.941
228.232
219.931
210.032
198.657
186.071
172.686
159.057
146.548
135.562
124.958
114.832
105.316
96.4963
88.4229
81.1097
74.5431
68.6896
63.5013
58.9231
54.8952
51.3605
48.2953
45.9346
45.3121
45.6483
46.3387
46.9759
47.2866
47.1343
46.5188
45.5668
44.4983
43.5724
42.8611
41.5186
41.7369
42.7938
44.2011
45.6026
46.7053
47.2652
47.0857
46.0308
44.0451
41.167
37.5319
33.3611
28.9438
24.6462
20.9858
18.7383
18.8039
22.1159
31.1209
53.7325
92.7527
133.381
153.453
162.353
166.619
167.306
165.869
164.166
164.299
167.78
170.59
172.027
171.258
167.22
159.072
146.943
134.177
122.381
110.602
99.7152
90.3187
82.5942
77.4514
26.3171
32.2318
44.8905
60.9681
81.7771
104.224
124.389
143.866
163.825
184.257
204.823
225.153
244.979
264.15
282.604
300.312
317.26
333.43
348.793
363.294
377.092
390.327
402.946
414.814
425.74
435.492
443.805
450.382
454.907
457.046
456.46
452.754
445.369
434.497
420.127
402.415
381.732
358.859
335.231
313.205
295.765
285.174
280.591
276.235
265.025
251.772
245.064
248.753
256.786
254.631
230.899
189.473
144.608
107.681
82.8347
70.5482
71.8504
84.5213
104.345
123.539
132.099
127.654
120.537
132.448
189.491
309.678
451.677
510.267
486.079
445.886
402.818
365.925
333.552
303.493
275.623
250.421
228.481
210.168
195.544
184.426
176.48
171.309
168.496
167.64
168.363
170.319
173.204
176.417
179.707
183.016
186.312
189.57
192.772
195.897
198.919
201.793
204.447
206.775
208.624
209.794
210.045
209.113
206.736
202.689
196.827
189.117
179.658
168.64
156.279
144.27
132.792
121.527
110.655
100.337
90.6866
81.7702
73.617
66.2264
59.5754
53.6258
48.3301
43.6354
39.4861
35.8334
32.6464
29.9292
27.7419
26.0729
24.8294
23.9018
23.164
22.4927
21.7983
21.0526
20.2907
19.5668
18.9358
18.5803
18.5952
19.0004
19.7603
20.7935
21.9813
23.1753
24.208
24.9104
25.1309
24.7552
23.7257
22.0699
19.9692
17.9273
16.9646
18.6711
25.4712
42.1061
75.9322
119.674
140.255
140.56
141.13
141.17
139.701
138.06
137.74
139.365
142.411
145.553
148.244
149.583
148.295
143.071
133.207
121.121
108.205
95.2467
83.2602
72.8739
64.3217
57.9702
27.4451
42.3063
75.9019
115.82
153.228
177.435
193.956
209.533
225.609
241.904
257.951
273.408
288.059
301.783
314.529
326.294
337.099
346.972
355.937
364.007
371.412
378.21
384.332
389.657
394.034
397.296
399.274
399.812
398.773
396.036
391.497
385.057
376.608
365.897
353.051
338.418
321.917
303.739
284.363
264.721
246.398
231.644
223.017
221.728
225.148
223.35
215.87
209.65
209.858
213.597
211.226
195.46
168.218
137.599
111.314
93.9847
88.436
97.8596
120.04
148.724
171.86
184.149
207.981
283.198
406.666
500.158
489.128
433.91
374.351
325.105
285.631
254.259
228.323
206.575
188.819
174.946
164.632
157.391
152.711
150.123
149.216
149.627
151.032
153.148
155.737
158.607
161.617
164.574
167.42
170.125
172.677
175.086
177.38
179.598
181.784
183.971
186.167
188.338
190.391
192.164
193.425
193.885
193.223
191.128
187.343
181.715
174.212
164.909
154.197
143.664
132.977
122.28
111.802
101.725
92.1832
83.2631
75.0144
67.4558
60.5831
54.3753
48.7992
43.8144
39.3759
35.4373
31.9542
28.8857
26.2007
23.8867
21.9077
20.2223
18.7883
17.5604
16.491
15.537
14.6687
13.872
13.1502
12.5298
12.0455
11.7271
11.5934
11.6489
11.8811
12.2586
12.7313
13.2313
13.6757
13.9718
14.032
13.8114
13.3926
13.1806
14.2687
18.8236
30.463
54.3379
92.8428
127.735
135.554
134.36
136.095
136.817
136.086
135.321
135.379
136.277
137.637
139.082
140.315
140.617
138.784
133.364
123.907
112.386
99.6278
86.871
75.1344
65.0155
56.7182
50.3573
33.9629
63.0884
120.908
178.467
218.545
238.035
249.857
260.517
271.352
282.261
292.871
302.883
312.098
320.407
327.775
334.216
339.78
344.529
348.524
351.821
354.647
357.027
358.902
360.155
360.631
360.161
358.592
355.806
351.739
346.388
339.801
332.039
323.14
313.075
301.65
288.944
275.347
260.592
244.765
228.305
211.94
196.587
183.603
175.298
174.459
181.443
186.887
185.774
181.268
178.177
176.39
171.476
160.19
143.81
127.034
115.518
113.983
127.423
158.088
203.432
252.441
302.205
381.422
457.799
484.687
447.546
383.955
323.547
275.565
239.528
212.045
190.775
174.249
161.779
152.839
146.835
143.186
141.396
141.055
141.817
143.388
145.517
148
150.671
153.393
156.053
158.565
160.843
162.823
164.463
165.751
166.707
167.392
167.899
168.347
168.86
169.546
170.471
171.634
172.945
174.214
175.16
175.433
174.658
172.494
168.685
163.083
155.682
147.438
138.683
129.469
120.041
110.633
101.434
92.5868
84.1936
76.3214
69.0086
62.2714
56.1086
50.5064
45.4414
40.8836
36.7982
33.1484
29.8969
27.0081
24.4531
22.2036
20.2265
18.4912
16.9685
15.6309
14.4526
13.4097
12.4823
11.656
10.9236
10.2848
9.74407
9.30754
8.98024
8.76354
8.65327
8.63841
8.70043
8.81311
8.94454
9.06803
9.19438
9.44864
10.2666
12.8385
19.7458
35.2831
63.7771
101.214
126.601
130.347
131.978
136.05
138.112
138.321
137.964
137.452
136.657
135.53
134.272
132.935
131.069
127.67
121.381
112.501
101.596
89.6251
77.7596
66.9176
57.6158
50.0082
44.0877
49.2366
94.7554
171.654
236.505
271.631
285.861
293.61
300.006
306.27
312.444
318.247
323.404
327.739
331.171
333.7
335.384
336.312
336.581
336.285
335.495
334.788
334.259
333.835
333.331
332.486
331.005
328.601
325.039
320.185
314.03
306.688
298.355
289.227
279.427
268.949
257.583
245.246
232.222
218.05
202.665
186.515
170.49
155.661
143.324
135.663
135.746
145.041
154.408
157.349
154.529
150.234
146.35
141.858
135.927
130.356
130.166
141.708
168.604
218.08
294.809
390.374
482.006
499.352
462.871
408.54
345.966
289.085
244.569
211.669
187.479
169.52
156.355
147.029
140.804
137.03
135.149
134.705
135.326
136.712
138.629
140.902
143.405
146.041
148.723
151.362
153.856
156.112
158.015
159.458
160.36
160.677
160.417
159.646
158.49
157.129
155.774
154.639
153.906
153.683
153.974
154.656
155.486
156.113
156.128
155.13
152.78
148.827
143.598
137.472
130.537
123.004
115.109
107.067
99.0547
91.2135
83.6498
76.4406
69.6386
63.2768
57.3723
51.9298
46.9439
42.4013
38.2824
34.5631
31.2166
28.2142
25.5282
23.1327
21.0007
19.1067
17.4268
15.9385
14.6206
13.4526
12.4157
11.4926
10.6696
9.93677
9.28833
8.7218
8.23654
7.8323
7.50798
7.26072
7.08564
6.97657
6.92961
6.95531
7.11161
7.58259
8.87748
12.2955
20.6737
38.6763
69.2806
103.6
122.793
126.413
130.984
137.193
140.472
141.378
141
139.479
136.677
132.864
128.699
124.611
120.426
115.26
108.57
99.9941
89.8371
78.9226
68.2346
58.5404
50.2564
43.4884
38.1717
74.3533
133.786
220.624
283.703
312.288
322.837
327.76
331.027
333.677
335.709
336.84
336.837
335.61
333.215
329.824
325.679
321.046
316.175
311.271
306.513
303.174
301.318
300.729
301.042
301.787
302.422
302.383
301.144
298.305
293.666
287.287
279.453
270.574
261.025
251.01
240.482
229.073
216.775
203.594
188.909
172.595
155.283
138.247
122.962
110.936
104.245
105.558
115.705
125.951
130.124
128.55
125.379
123.429
123.592
127.562
140.599
170.307
220.236
297.401
419.837
550.262
556.748
464.909
385.203
320.083
266.473
224.851
194.221
172.074
156.154
144.926
137.344
132.584
129.986
129.011
129.215
130.241
131.818
133.759
135.958
138.358
140.927
143.628
146.401
149.159
151.782
154.121
156.007
157.29
157.847
157.595
156.512
154.645
152.127
149.174
146.066
143.112
140.607
138.775
137.719
137.394
137.615
138.053
138.297
137.916
136.516
134.011
130.502
126.04
120.762
114.852
108.501
101.888
95.1658
88.4614
81.8748
75.484
69.3482
63.5114
58.0049
52.8492
48.0553
43.6265
39.5587
35.842
32.4617
29.3997
26.6366
24.1501
21.9188
19.9216
18.1383
16.5494
15.1359
13.8793
12.7614
11.765
10.8748
10.078
9.3645
8.72728
8.16167
7.66475
7.23467
6.87017
6.57067
6.33754
6.17868
6.12193
6.24973
6.78202
8.27916
12.1057
21.2099
40.3173
71.1789
102.465
118.457
123.307
129.993
137.39
141.725
143.234
142.632
140.026
135.364
129.203
122.507
115.958
109.818
103.478
96.3328
88.0023
78.6387
68.8516
59.3979
50.8784
43.6125
37.669
32.9618
106.313
174.302
261.835
318.332
341.663
349.996
352.867
353.275
351.886
348.527
342.955
335.157
325.419
314.263
302.344
290.347
278.906
268.56
259.721
252.769
248.961
248.091
249.736
253.385
258.436
264.175
269.771
274.321
276.962
277.04
274.295
268.939
261.561
252.882
243.478
233.569
222.983
211.231
198.495
184.293
167.954
149.599
130.343
112.035
96.5168
85.3506
80.2513
83.2917
92.9822
101.936
105.643
105.541
105.847
109.995
121.64
147.7
197.013
275.273
392.204
543.27
607.045
506.389
387.332
308.447
253.235
212.768
183.247
162.097
147.173
136.917
130.213
126.214
124.25
123.782
124.362
125.632
127.328
129.291
131.453
133.806
136.362
139.124
142.063
145.102
148.126
150.981
153.476
155.424
156.656
157.023
156.413
154.771
152.114
148.555
144.313
139.705
135.116
130.933
127.491
124.987
123.444
122.745
122.585
122.59
122.328
121.499
119.935
117.56
114.383
110.489
106.004
101.066
95.8088
90.3527
84.7995
79.2342
73.7273
68.337
63.1115
58.0906
53.3065
48.7838
44.5403
40.5864
36.9265
33.5587
30.4766
27.6711
25.1258
22.8253
20.7533
18.8932
17.2278
15.7402
14.4132
13.2297
12.1733
11.2286
10.3819
9.62172
8.9389
8.32637
7.77894
7.29306
6.86678
6.50021
6.19741
5.97156
5.8589
5.95348
6.49097
8.05075
12.0039
21.2658
40.3799
70.311
99.1928
113.872
120.144
128.038
136.017
141.018
142.906
142.069
138.577
132.511
124.661
116.214
108.011
100.38
93.0392
85.5077
77.4438
68.8751
60.1854
51.9036
44.4713
38.1259
32.9134
28.7493
139.734
210.403
292.07
340.7
360.28
366.786
367.081
363.203
355.381
343.464
327.657
308.709
287.781
266.203
245.246
225.999
209.343
195.953
186.272
180.633
178.902
180.603
185.329
192.72
202.381
213.78
226.139
238.366
249.105
256.972
260.957
260.781
256.957
250.515
242.517
233.627
223.955
213.104
200.773
186.891
170.531
151.424
130.277
109.021
90.0967
75.3915
66.0805
63.313
68.0174
76.3565
83.0896
86.3728
89.2034
96.4274
114.016
150.39
212.91
305.36
438.765
573.724
563.633
422.406
315.427
249.822
206.855
176.955
155.828
141.082
131.088
124.679
120.982
119.318
119.135
119.974
121.461
123.321
125.391
127.615
130.008
132.61
135.451
138.519
141.754
145.044
148.238
151.156
153.622
155.466
156.526
156.654
155.728
153.671
150.468
146.196
141.042
135.325
129.465
123.909
119.081
115.276
112.537
110.844
109.894
109.379
108.929
108.256
107.15
105.491
103.243
100.431
97.1233
93.4027
89.3567
85.0671
80.6065
76.0385
71.4195
66.8001
62.2265
57.7412
53.383
49.1862
45.1802
41.3883
37.8276
34.5091
31.4386
28.6167
26.0346
23.684
21.5542
19.6322
17.9038
16.3541
14.9671
13.7271
12.6183
11.6257
10.7357
9.9364
9.2177
8.57138
7.99092
7.47151
7.01024
6.60684
6.26585
6.00233
5.85585
5.92417
6.4447
7.98919
11.8832
20.8921
39.2226
67.4862
94.4564
108.847
116.329
124.772
132.905
138.222
140.291
139.249
135.202
128.381
119.627
110.142
100.83
92.1482
84.0645
76.2951
68.5613
60.7778
53.1126
45.8865
39.4056
33.8466
29.2472
25.5374
825.894
277.701
314.62
351.763
367.851
371.883
368.123
357.735
340.896
318.15
290.89
261.137
231.039
202.458
176.799
155.048
137.864
125.62
118.396
116.021
116.82
120.37
126.512
135.228
146.57
160.549
176.953
195.077
213.507
230.183
242.947
250.394
252.402
250.007
244.727
237.743
229.59
220.096
208.791
195.421
179.066
159.291
136.462
112.344
89.8882
71.7501
59.2309
52.7935
52.7419
58.2217
65.021
70.1801
75.0275
84.6243
106.442
149.158
217.311
314.437
447.53
546.232
482.461
346.742
259.191
207.553
174.749
152.523
137.215
126.902
120.323
116.564
114.926
114.845
115.844
117.521
119.571
121.804
124.15
126.627
129.289
132.181
135.306
138.611
141.995
145.311
148.387
151.05
153.184
154.65
155.312
155.044
153.739
151.32
147.754
143.08
137.431
131.081
124.47
118.037
112.241
107.503
103.814
101.258
99.5681
98.4386
97.6007
96.8055
95.854
94.6097
92.9986
90.9992
88.6258
85.9133
82.9048
79.6445
76.1747
72.5353
68.765
64.9021
60.9858
57.0562
53.1539
49.3185
45.5873
41.9937
38.5662
35.3272
32.2954
29.478
26.8767
24.4907
22.3149
20.341
18.5581
16.9533
15.5128
14.2218
13.0653
12.029
11.0995
10.2648
9.51443
8.83948
8.23274
7.68867
7.2037
6.77717
6.41358
6.12844
5.96189
6.01053
6.50377
7.98537
11.6948
20.1685
37.199
63.3444
88.667
103.231
111.621
120.183
128.173
133.543
135.67
134.538
130.284
123.215
114.124
104.141
94.191
84.8539
76.3264
68.5265
61.2263
54.2244
47.4943
41.1858
35.5037
30.5893
26.4846
23.1407
1117.86
328.83
326.006
352.102
364.672
365.492
356.579
338.655
312.574
280.289
244.708
208.884
175.311
145.676
120.976
101.71
87.9743
79.5095
75.7878
75.9926
78.2137
82.2223
88.0008
95.6768
105.54
118.057
133.782
153.027
175.237
198.47
219.607
235.632
245.021
248.264
247.113
243.18
237.461
230.093
220.774
208.7
192.897
172.76
148.451
121.517
95.2356
73.2675
57.598
48.4179
45.3997
47.9383
53.3346
58.8001
64.782
76.0417
100.394
145.353
213.13
308.94
429.921
488.802
402.179
286.434
217.247
177.164
152.047
135.332
124.141
116.964
112.804
110.928
110.753
111.783
113.584
115.808
118.22
120.712
123.287
125.999
128.904
132.018
135.294
138.635
141.9
144.928
147.55
149.649
151.162
151.99
152.032
151.197
149.408
146.604
142.763
137.914
132.125
125.586
118.761
112.039
105.774
100.6
96.4503
93.2774
90.9346
89.2289
87.9627
86.9416
85.9921
84.9763
83.7976
82.3989
80.7538
78.8562
76.7115
74.3312
71.7297
68.9239
65.9339
62.7838
59.5027
56.1243
52.6868
49.2309
45.7982
42.4292
39.161
36.0263
33.0551
30.2605
27.6555
25.2467
23.035
21.0171
19.1859
17.5313
16.0414
14.7029
13.5019
12.4246
11.458
10.5902
9.81028
9.10917
8.47909
7.91398
7.40983
6.96563
6.5857
6.2854
6.104
6.1341
6.59105
7.97647
11.4157
19.1714
34.5992
58.3756
82.1534
97.0057
106.01
114.409
122.052
127.296
129.419
128.309
124.111
117.132
108.08
97.9863
87.7763
78.1495
69.5109
61.9366
55.2027
48.9817
43.0866
37.5466
32.5076
28.1006
24.381
21.323
1375.83
366.527
327.642
343.935
353.176
350.799
337.022
312.647
279.714
241.704
202.596
165.71
133.208
106.256
85.3415
70.4337
61.0372
56.3034
55.2731
56.8797
59.8632
64.0645
69.4183
75.9302
83.7339
93.2372
105.328
121.306
142.137
167.231
193.618
216.963
233.785
243.342
247.268
247.387
245.066
240.857
234.454
224.891
210.901
191.462
166.408
137.039
106.727
80.1904
60.7188
48.7928
43.4614
43.6888
47.4614
52.4124
58.8433
71.1462
96.5284
140.535
204.757
295.653
397.513
424.242
335.593
240.5
186.213
154.981
135.534
122.81
114.588
109.679
107.281
106.786
107.677
109.495
111.842
114.422
117.069
119.749
122.506
125.403
128.468
131.668
134.908
138.048
140.93
143.395
145.296
146.605
147.3
147.317
146.594
145.076
142.719
139.492
135.384
130.474
124.786
118.364
111.732
105.27
99.2791
94.0414
89.6606
86.1253
83.3513
81.2237
79.6148
78.3874
77.4012
76.5269
75.6572
74.7116
73.6343
72.3887
70.9512
69.3068
67.4467
65.3677
63.0726
60.5714
57.8816
55.0289
52.046
48.9716
45.8481
42.7196
39.6293
36.6183
33.7241
30.9688
28.3738
25.9533
23.7147
21.6598
19.7858
18.0857
16.5499
15.1666
13.9234
12.807
11.805
10.9054
10.0975
9.37159
8.71971
8.13532
7.61398
7.15429
6.76021
6.44641
6.25029
6.25859
6.66885
7.93215
11.0437
17.9741
31.6505
52.946
75.1849
90.2521
99.6266
107.67
114.816
119.809
121.89
120.875
116.884
110.191
101.409
91.4744
81.3209
71.7675
63.3824
56.3153
50.2806
44.8232
39.6454
34.7171
30.1698
26.1445
22.7154
19.8765
1590.97
398.073
324.829
331.747
338.062
333.341
316.218
287.776
251.205
211.108
171.88
136.545
106.704
83.0377
65.6664
54.2032
47.7868
45.3233
45.8302
48.3799
52.1845
57.0451
62.8156
69.3509
76.4791
84.1078
92.7561
104.029
120.125
142.368
169.323
196.659
219.202
234.503
243.625
248.317
250.09
249.711
247.085
241.276
230.748
213.889
189.85
159.374
125.553
93.8479
69.3849
53.8284
45.9783
44.0676
46.2617
50.3712
56.8498
69.7049
94.8803
136.033
195.773
279.201
359.548
364.292
284.361
206.39
163.098
138.44
123.157
113.351
107.303
104.065
102.978
103.512
105.187
107.565
110.279
113.087
115.888
118.698
121.582
124.586
127.699
130.837
133.864
136.613
138.923
140.644
141.672
142.082
141.874
141.014
139.481
137.252
134.317
130.668
126.268
121.325
115.86
109.97
103.893
97.914
92.3176
87.3173
83.0066
79.3875
76.4223
74.0636
72.2522
70.9045
69.9132
69.1611
68.5379
67.9501
67.3236
66.6014
65.7396
64.7035
63.4661
62.0072
60.3148
58.3858
56.2273
53.8565
51.3
48.5922
45.7743
42.8908
39.9885
37.1158
34.3107
31.6069
29.0331
26.6106
24.3532
22.268
20.3564
18.6148
17.0363
15.6109
14.3275
13.1737
12.1376
11.2075
10.3724
9.62278
8.95006
8.3474
7.80994
7.3358
6.92834
6.60108
6.38865
6.37048
6.72403
7.84569
10.5947
16.6508
28.5328
47.3225
67.9705
83.1109
92.6928
100.255
106.766
111.391
113.384
112.485
108.764
102.444
94.0629
84.4924
74.6966
65.5995
57.8482
51.5534
46.3091
41.555
36.951
32.473
28.2768
24.5266
21.3131
18.6431
1733.41
484.373
332.224
322.849
325.068
318.965
300.536
270.579
232.848
192.601
154.348
120.922
93.2521
71.665
56.1162
46.1238
40.8552
39.2363
40.7244
44.3919
49.2846
55.2032
61.9683
69.3882
77.1802
84.7654
91.8771
99.6862
110.748
127.688
151.026
177.667
202.54
222.081
235.7
244.652
250.475
254.134
255.745
254.529
248.888
236.748
216.381
187.473
152.182
115.846
85.3068
64.601
53.1082
48.5919
49.0544
52.137
58.4159
71.3426
95.2583
132.853
188.142
262.031
321.832
313.345
244.854
182.015
146.284
126.07
113.718
106.009
101.539
99.5246
99.4059
100.703
102.952
105.723
108.68
111.631
114.526
117.411
120.352
123.372
126.42
129.371
132.06
134.307
135.948
136.852
136.982
136.493
135.395
133.664
131.337
128.436
124.971
120.975
116.504
111.638
106.439
100.999
95.4785
90.0898
85.0426
80.4765
76.4421
72.9411
69.9761
67.5607
65.6936
64.3341
63.4003
62.787
62.3854
62.0976
61.8407
61.5467
61.1586
60.6275
59.9115
58.9759
57.7955
56.3564
54.657
52.7079
50.5309
48.1567
45.6238
42.9759
40.2607
37.5289
34.8209
32.1779
29.6346
27.2185
24.9495
22.8399
20.8956
19.1166
17.4986
16.0338
14.7122
13.5229
12.4541
11.4945
10.6334
9.86071
9.16791
8.54772
7.99485
7.50692
7.08648
6.74554
6.51529
6.46682
6.75621
7.72439
10.0966
15.2752
25.3951
41.7047
60.6676
75.7296
85.4587
92.5003
98.2526
102.362
104.17
103.349
99.8908
93.9637
86.0723
77.0676
67.9595
59.7224
52.9571
47.6242
43.1745
38.9999
34.7988
30.6133
26.6485
23.0925
20.0434
17.5107
1725.76
620.019
369.762
328.055
320.572
311.267
292.093
262.47
225.785
187.116
150.728
119.074
92.9552
72.4972
57.5248
47.5627
41.8796
39.7244
40.9912
44.961
50.5655
57.3619
65.0652
73.412
82.1119
90.4073
97.3774
103.422
110.759
122.416
140.337
163.33
187.257
208.033
224.045
235.893
244.924
252.147
257.818
261.339
261.246
255.349
241.282
217.507
184.596
146.462
110.338
83.1189
66.3189
58.229
56.1894
57.8702
63.5313
75.7593
97.5333
131.662
182.37
245.247
287.418
272.183
215.118
164.125
133.977
116.818
106.498
100.27
96.9227
95.7779
96.3379
98.1507
100.77
103.785
106.89
109.924
112.866
115.771
118.692
121.63
124.501
127.157
129.415
131.093
132.034
132.143
131.449
130.143
128.259
125.816
122.859
119.43
115.569
111.328
106.779
101.995
97.0464
92.0217
87.0463
82.2712
77.8245
73.7666
70.101
66.8302
63.9953
61.6601
59.8648
58.5951
57.7851
57.3385
57.1524
57.1315
57.1925
57.2636
57.2798
57.1808
56.9105
56.4196
55.6701
54.6382
53.3166
51.7131
49.8483
47.7525
45.4632
43.0227
40.4793
37.8798
35.2686
32.6896
30.1818
27.7779
25.5029
23.3742
21.4017
19.5891
17.9347
16.4331
15.0757
13.8526
12.7527
11.765
10.8788
10.0841
9.37196
8.73493
8.1673
7.66613
7.23309
6.87843
6.62952
6.54855
6.77001
7.58105
9.58051
13.9148
22.3605
36.2512
53.3955
68.2123
78.1277
84.7386
89.6712
93.0971
94.5616
93.7072
90.4437
84.9048
77.613
69.4281
61.3793
54.3824
48.8523
44.5306
40.759
36.9716
32.9875
28.9555
25.1345
21.7235
18.8129
16.4042
1443.72
769.405
456.039
359.71
331.882
315.646
294.671
265.987
231.528
195.256
160.881
130.685
105.53
85.5106
70.3796
59.6948
52.9066
49.5225
49.6853
52.8648
58.2396
65.2425
73.4274
82.3953
91.7175
100.391
107.093
111.81
116.464
123.996
136.752
154.657
174.834
193.724
209.463
222.195
232.96
242.656
251.569
259.237
264.414
265.088
258.742
243.07
217.064
182.287
144.171
110.895
87.8002
74.6993
69.0132
68.416
72.467
82.828
101.821
132.605
177.812
228.643
256.39
238.645
192.113
150.524
124.623
109.593
100.678
95.4972
92.9462
92.4113
93.4347
95.5869
98.4387
101.601
104.789
107.862
110.804
113.661
116.469
119.207
121.778
124.03
125.786
126.88
127.184
126.636
125.3
123.36
120.864
117.866
114.426
110.605
106.465
102.072
97.5027
92.8342
88.1434
83.5174
79.0593
74.8682
70.9967
67.4341
64.1491
61.1556
58.5324
56.3785
54.7545
53.6557
53.023
52.7689
52.8005
53.0318
53.3863
53.7928
54.181
54.4779
54.6107
54.5121
54.1287
53.4269
52.3959
51.0459
49.4032
47.5039
45.3896
43.1045
40.6974
38.2088
35.6827
33.1629
30.6902
28.3005
26.0225
23.8778
21.8803
20.0368
18.3485
16.8121
15.4207
14.1652
13.0355
12.0207
11.1103
10.2943
9.56353
8.91025
8.32838
7.81442
7.3691
7.00083
6.73295
6.6186
6.77116
7.42712
9.06909
12.6117
19.4977
31.0472
46.1931
60.5348
70.73
77.1634
81.373
84.0111
84.9503
83.9021
80.7363
75.6096
69.1028
62.0544
55.4229
49.9236
45.6831
42.231
38.8939
35.2548
31.3144
27.337
23.6149
20.3339
17.5603
15.2788
880.148
873.801
576.567
425.453
361.701
331.665
307.516
279.853
248.033
214.519
182.197
153.161
128.448
108.342
92.711
81.2244
73.4889
69.1726
68.4931
70.8169
75.5331
82.1472
90.1825
99.1651
108.42
116.464
121.709
124.234
126.006
129.786
137.707
149.948
164.558
179.007
191.92
203.382
214.163
224.938
235.905
246.677
256.231
262.868
264.311
258.137
242.489
216.863
183.269
147.685
118.052
97.8151
86.578
82.2876
83.5309
91.243
107.508
135.156
174.51
214.753
232.682
214.968
176.507
141.502
118.453
104.672
96.5323
91.933
89.8257
89.6199
90.8781
93.1875
96.1354
99.3493
102.557
105.62
108.508
111.25
113.865
116.32
118.521
120.327
121.577
122.128
121.871
120.745
118.902
116.448
113.46
110.017
106.202
102.095
97.7713
93.3059
88.7764
84.2613
79.8416
75.6033
71.6301
67.9718
64.6125
61.4875
58.5548
55.8559
53.5028
51.61
50.2366
49.3736
48.964
48.9315
49.1994
49.6983
50.3635
51.127
51.9105
52.6235
53.1689
53.4541
53.4039
52.9721
52.1459
50.9437
49.4066
47.5874
45.5416
43.3267
40.9871
38.5592
36.0833
33.6004
31.15
28.7681
26.4855
24.3259
22.3058
20.4348
18.7165
17.1491
15.7273
14.4429
13.2864
12.2473
11.3152
10.4801
9.73258
9.06474
8.47012
7.94469
7.4883
7.10755
6.82193
6.67615
6.7645
7.27939
8.6042
11.4567
16.9847
26.4017
39.4503
53.006
63.4977
70.1083
73.9125
75.8486
76.1684
74.7754
71.5981
66.8877
61.3238
55.6563
50.6329
46.6362
43.4752
40.5555
37.3217
33.5966
29.5797
25.6191
21.9999
18.8672
16.2497
14.1122
175.735
941.759
751.38
546.38
427.524
365.008
328.211
299.047
270.065
240.172
210.731
183.406
159.363
139.187
123.026
110.767
102.188
97.1043
95.6319
97.0176
100.835
106.675
114.059
122.41
130.532
136.327
138.412
137.545
136.01
136.338
140.108
147.208
156.164
165.428
174.376
183.287
192.76
203.237
214.783
227.035
239.145
249.711
256.774
258.098
251.751
236.62
212.68
182.118
150.616
124.757
107.054
97.8777
95.5164
100.313
113.956
138.329
171.803
203.346
214.787
198.14
165.748
135.471
114.414
101.352
93.5728
89.2331
87.319
87.2431
88.5747
90.9138
93.8631
97.0636
100.247
103.263
106.065
108.659
111.049
113.199
115.025
116.403
117.196
117.281
116.57
115.023
112.802
109.993
106.682
102.963
98.9341
94.6862
90.3029
85.8622
81.4408
77.1174
72.9747
69.096
65.5429
62.3184
59.3542
56.5618
53.9178
51.4995
49.4378
47.8393
46.7448
46.1345
45.9555
46.1482
46.6587
47.4394
48.4389
49.5902
50.8019
51.9584
52.9309