/*--------------------------------*- C++ -*----------------------------------*\
  =========                 |
  \\      /  F ield         | OpenFOAM: The Open Source CFD Toolbox
   \\    /   O peration     | Website:  https://openfoam.org
    \\  /    A nd           | Version:  9
     \\/     M anipulation  |
\*---------------------------------------------------------------------------*/
FoamFile
{
    format      ascii;
    class       volScalarField;
    location    "0.26";
    object      k;
}
// * * * * * * * * * * * * * * * * * * * * * * * * * * * * * * * * * * * * * //

dimensions      [0 2 -2 0 0 0 0];

internalField   nonuniform List<scalar> 
12225
(
0.314451
0.26411
0.226169
0.198619
0.179925
0.168765
0.163892
0.164056
0.168004
0.174531
0.182541
0.191084
0.199506
0.208298
0.216891
0.224975
0.233035
0.241185
0.361855
0.349635
0.346122
0.35436
0.374067
0.403543
0.44028
0.481319
0.523663
0.564638
0.602107
0.634517
0.660838
0.6797
0.691485
0.696422
0.695212
0.685417
0.36853
0.362573
0.356795
0.352408
0.350442
0.351162
0.354365
0.359584
0.366188
0.373482
0.380802
0.387555
0.393221
0.397877
0.401296
0.403209
0.403472
0.401786
0.369757
0.364154
0.358688
0.35362
0.349279
0.345823
0.343225
0.34136
0.340052
0.339111
0.338355
0.337624
0.3369
0.336166
0.335393
0.334583
0.333796
0.333212
0.37029
0.365274
0.36033
0.35556
0.351079
0.346975
0.343279
0.339978
0.337028
0.334376
0.331971
0.329776
0.327779
0.325983
0.324414
0.323132
0.322249
0.321942
0.370513
0.365885
0.361362
0.356962
0.352736
0.348734
0.344986
0.341502
0.33828
0.335315
0.332592
0.330108
0.327868
0.325893
0.324219
0.32291
0.322061
0.32178
0.370597
0.366162
0.361897
0.357786
0.353839
0.350076
0.346513
0.343159
0.340021
0.337103
0.334408
0.331945
0.329728
0.327785
0.32615
0.324878
0.324034
0.323668
0.370624
0.36627
0.362138
0.358203
0.354453
0.35089
0.347514
0.34433
0.341339
0.338547
0.335963
0.333599
0.33147
0.329603
0.328028
0.326784
0.32591
0.32542
0.37063
0.366304
0.362229
0.35838
0.354741
0.351301
0.348055
0.345
0.342135
0.339461
0.336987
0.334721
0.332679
0.330879
0.329347
0.328105
0.327174
0.326547
0.370631
0.36631
0.362253
0.358438
0.354847
0.351468
0.348293
0.345314
0.342526
0.33993
0.337529
0.335329
0.333341
0.331578
0.330055
0.328786
0.327777
0.327015
0.37063
0.366308
0.362253
0.358446
0.35487
0.351513
0.348366
0.345419
0.342667
0.340107
0.337739
0.335566
0.333596
0.331834
0.330291
0.32897
0.32787
0.326982
0.370629
0.366305
0.362247
0.358438
0.354863
0.351509
0.348365
0.345423
0.342677
0.340123
0.337758
0.335583
0.333602
0.331817
0.330232
0.328848
0.32766
0.32666
0.370628
0.366303
0.362241
0.358428
0.354848
0.351489
0.348341
0.345394
0.342642
0.340079
0.337702
0.335511
0.333504
0.331684
0.330049
0.328597
0.327323
0.326224
0.370628
0.366301
0.362235
0.358417
0.354831
0.351464
0.348305
0.345347
0.34258
0.339999
0.3376
0.335379
0.333336
0.331467
0.32977
0.328242
0.326878
0.325677
0.370628
0.3663
0.362231
0.358407
0.354814
0.351437
0.348266
0.345292
0.342506
0.339902
0.337474
0.335217
0.333128
0.331204
0.329441
0.327834
0.326378
0.325079
0.370628
0.3663
0.362229
0.3584
0.354799
0.351412
0.348228
0.345237
0.34243
0.3398
0.33734
0.335044
0.332909
0.330928
0.329099
0.327415
0.325873
0.32448
0.370629
0.3663
0.362228
0.358394
0.354786
0.35139
0.348193
0.345185
0.342357
0.3397
0.337208
0.334874
0.332693
0.330659
0.328767
0.327012
0.325391
0.323914
0.37063
0.366302
0.362227
0.358391
0.354776
0.351371
0.348162
0.345138
0.342289
0.339608
0.337086
0.334717
0.332494
0.330412
0.328464
0.326647
0.324957
0.323405
0.370631
0.366303
0.362227
0.358387
0.354767
0.351353
0.348133
0.345095
0.342228
0.339525
0.336977
0.334577
0.332319
0.330196
0.328202
0.326333
0.324586
0.322972
0.370632
0.366303
0.362227
0.358384
0.35476
0.35134
0.348111
0.345063
0.342184
0.339466
0.3369
0.33448
0.332197
0.330047
0.328023
0.326119
0.324334
0.322679
0.370632
0.366303
0.362226
0.358381
0.354754
0.35133
0.348096
0.345041
0.342154
0.339426
0.336849
0.334415
0.332118
0.32995
0.327905
0.325979
0.324168
0.322486
0.370632
0.366304
0.362225
0.358378
0.354747
0.351319
0.348079
0.345016
0.342119
0.339379
0.336787
0.334335
0.332017
0.329826
0.327755
0.325799
0.323955
0.322236
0.370633
0.366303
0.362221
0.358369
0.35473
0.351288
0.348031
0.344945
0.342021
0.339248
0.336618
0.334124
0.331759
0.329517
0.327391
0.325377
0.323471
0.321689
0.370632
0.366297
0.362202
0.358326
0.354651
0.35116
0.347841
0.344681
0.341673
0.338808
0.336081
0.333486
0.331017
0.328671
0.326442
0.324326
0.322321
0.320442
0.370624
0.366259
0.362103
0.358134
0.354335
0.350696
0.347212
0.34388
0.340698
0.337665
0.33478
0.332041
0.329445
0.326989
0.324668
0.322478
0.320414
0.318491
0.370577
0.366084
0.361729
0.357498
0.353394
0.349437
0.34565
0.342055
0.338666
0.335492
0.332534
0.329792
0.32726
0.32493
0.322791
0.320833
0.319043
0.317425
0.370371
0.365508
0.360663
0.355871
0.351247
0.346916
0.342955
0.339408
0.336297
0.333626
0.331388
0.329566
0.328137
0.327072
0.32634
0.32591
0.325751
0.325834
0.369686
0.364097
0.358158
0.352402
0.347425
0.34352
0.340784
0.339251
0.338924
0.339783
0.341786
0.344873
0.348971
0.353998
0.359861
0.366468
0.373726
0.38151
0.365743
0.35454
0.345381
0.340445
0.340304
0.344952
0.354213
0.367799
0.385344
0.406432
0.430623
0.457462
0.486488
0.517243
0.549291
0.582214
0.615666
0.649114
0.336624
0.302302
0.273873
0.25038
0.23118
0.215776
0.203783
0.194883
0.188799
0.18528
0.184098
0.185036
0.187888
0.192457
0.198555
0.205997
0.21461
0.224197
0.0878389
0.134189
0.14716
0.161692
0.171776
0.17978
0.186625
0.194587
0.206128
0.222707
0.244848
0.272417
0.304877
0.341482
0.381455
0.424145
0.469147
0.516457
0.566512
0.620277
0.675171
0.727163
0.775709
0.820555
0.861717
0.89966
0.935225
0.969744
1.00613
1.04614
1.0829
1.1141
1.13844
1.15514
1.16361
1.16364
1.1553
1.13861
1.11275
1.0759
1.02721
0.97384
0.907156
0.817355
0.699413
0.559888
0.419413
0.302494
0.222467
0.177831
0.160026
0.160944
0.174178
0.195947
0.219647
0.247029
0.279614
0.315639
0.341744
0.351845
0.344124
0.324175
0.301189
0.282771
0.271271
0.269677
0.278126
0.291857
0.309411
0.333712
0.380954
0.482731
0.661902
0.829325
0.970609
1.08679
1.17894
1.24949
1.30122
1.3369
1.35907
1.37002
1.37173
1.36592
1.35408
1.33751
1.31734
1.29476
1.27046
1.24466
1.21755
1.18928
1.15993
1.12959
1.09826
1.06592
1.0325
0.997872
0.961876
0.924326
0.885027
0.843806
0.800555
0.755272
0.708117
0.659476
0.610077
0.561454
0.517707
0.491874
0.48097
0.471413
0.462223
0.453529
0.445568
0.438546
0.432615
0.42786
0.424303
0.421901
0.420549
0.420078
0.420273
0.420896
0.421157
0.419238
0.413945
0.404371
0.389893
0.370319
0.34604
0.318158
0.288413
0.258695
0.230055
0.201757
0.172447
0.155266
0.147615
0.146832
0.150321
0.155739
0.161076
0.164744
0.165677
0.16342
0.158158
0.15068
0.142259
0.134503
0.129192
0.127675
0.130188
0.136734
0.147272
0.162111
0.181167
0.196522
0.222393
0.298233
0.405128
0.489882
0.552609
0.595486
0.622326
0.63762
0.646425
0.644856
0.633332
0.611621
0.579061
0.535571
0.483674
0.445718
0.437465
0.430311
0.424051
0.419327
0.416111
0.410988
0.0942405
0.163869
0.197621
0.239538
0.290211
0.34572
0.404838
0.470806
0.545975
0.629946
0.72068
0.815628
0.912852
1.0112
1.11013
1.20921
1.30805
1.40602
1.50228
1.59576
1.68499
1.77051
1.85216
1.92948
2.00175
2.06797
2.12694
2.17723
2.21716
2.2447
2.25694
2.25055
2.22467
2.17924
2.11433
2.03062
1.93011
1.81709
1.6994
1.58461
1.46913
1.33931
1.2062
1.08823
0.995874
0.935069
0.898826
0.859254
0.780045
0.651021
0.506022
0.394165
0.334987
0.317545
0.324861
0.348411
0.388849
0.442992
0.494701
0.520173
0.505906
0.460334
0.405537
0.367242
0.366985
0.419624
0.537921
0.71107
0.869242
0.939273
0.944215
0.947402
0.957192
0.964744
0.971148
0.978557
0.988378
1.00122
1.01711
1.03571
1.05657
1.07923
1.10331
1.12853
1.15477
1.18201
1.21032
1.23847
1.26599
1.29281
1.31886
1.34403
1.36822
1.39124
1.41285
1.4327
1.4503
1.46501
1.47602
1.48237
1.48294
1.47659
1.46221
1.43887
1.40594
1.36323
1.311
1.24988
1.18053
1.10877
1.04183
0.975093
0.909276
0.845298
0.783886
0.725567
0.670678
0.619394
0.571755
0.527696
0.487084
0.449726
0.4154
0.383912
0.354974
0.328621
0.305171
0.284625
0.266768
0.251463
0.238622
0.228233
0.220405
0.215438
0.214069
0.21776
0.227295
0.241729
0.258859
0.276921
0.294416
0.309933
0.322165
0.329942
0.332329
0.328755
0.319101
0.303748
0.283545
0.259776
0.234322
0.210319
0.192872
0.186907
0.195069
0.223399
0.290228
0.402457
0.519377
0.599857
0.674707
0.755766
0.835186
0.907664
0.971622
1.02758
1.0761
1.11855
1.15261
1.17355
1.17467
1.14912
1.09219
1.01168
0.927389
0.840025
0.755593
0.678328
0.60935
0.55213
0.0918315
0.186918
0.278599
0.391542
0.517682
0.640407
0.746879
0.846829
0.9473
1.04961
1.15291
1.25581
1.3571
1.45599
1.55195
1.64453
1.73332
1.81784
1.89754
1.97175
2.0409
2.10613
2.16745
2.22446
2.27646
2.32249
2.3614
2.39179
2.41209
2.42054
2.41522
2.39384
2.3534
2.29481
2.21823
2.12473
2.01638
1.89698
1.77262
1.65219
1.54531
1.45631
1.37338
1.27443
1.15746
1.04607
0.964013
0.916264
0.882468
0.827181
0.728988
0.603645
0.48666
0.400843
0.349948
0.332952
0.354238
0.407858
0.479144
0.542181
0.568734
0.554348
0.52909
0.547567
0.655576
0.856025
1.05054
1.10119
1.05136
0.99527
0.954919
0.937768
0.940267
0.957256
0.985579
1.02181
1.06225
1.10354
1.14339
1.18073
1.21553
1.24832
1.27978
1.31049
1.34076
1.3706
1.39981
1.428
1.45523
1.48142
1.50653
1.53061
1.55368
1.57578
1.5969
1.6169
1.63549
1.65214
1.66607
1.6762
1.6812
1.67956
1.66975
1.65034
1.62024
1.57883
1.5261
1.46238
1.38802
1.31218
1.23718
1.16141
1.086
1.01211
0.940643
0.872299
0.807548
0.746678
0.689827
0.637009
0.588151
0.543108
0.501671
0.46361
0.428607
0.396231
0.365893
0.337694
0.311568
0.287464
0.265387
0.245404
0.227619
0.212164
0.199254
0.189248
0.182483
0.179108
0.179181
0.1826
0.189044
0.19794
0.208459
0.219548
0.229987
0.2385
0.243874
0.245073
0.241342
0.232392
0.218882
0.203684
0.193315
0.197805
0.228301
0.299814
0.427426
0.58543
0.706193
0.800314
0.916649
1.02963
1.11818
1.18347
1.23484
1.27918
1.31825
1.35269
1.38016
1.3953
1.38998
1.3553
1.28483
1.19224
1.08955
0.983171
0.880885
0.788061
0.707081
0.640462
0.0957672
0.245059
0.440447
0.658943
0.855137
0.991898
1.09287
1.18546
1.27777
1.37022
1.46141
1.54996
1.63475
1.71501
1.79023
1.86011
1.92449
1.98329
2.03646
2.08394
2.12736
2.16773
2.20515
2.2393
2.2696
2.29519
2.31504
2.32794
2.33258
2.32752
2.31122
2.28206
2.23825
2.17736
2.09948
2.00726
1.90158
1.78494
1.66145
1.53716
1.42025
1.32018
1.24499
1.19438
1.15092
1.08486
1.00099
0.923688
0.867881
0.824648
0.770376
0.691039
0.595022
0.502505
0.430602
0.390199
0.390451
0.437932
0.51934
0.61073
0.678188
0.710429
0.758824
0.890309
1.07512
1.18563
1.14518
1.05532
0.978818
0.936684
0.927757
0.946074
0.983667
1.03295
1.08747
1.14189
1.19255
1.23785
1.27786
1.31369
1.34664
1.37771
1.40746
1.43603
1.46327
1.48889
1.51239
1.53393
1.55341
1.57079
1.58613
1.59965
1.61167
1.62261
1.6329
1.64289
1.65278
1.66248
1.67156
1.67915
1.68394
1.68429
1.67837
1.66435
1.64063
1.60607
1.56015
1.50273
1.43529
1.36695
1.29608
1.22339
1.15025
1.07784
1.00715
0.938928
0.873707
0.811861
0.753615
0.699076
0.648257
0.601095
0.55747
0.517215
0.480119
0.445902
0.414175
0.384557
0.356958
0.331219
0.307284
0.285176
0.264942
0.246598
0.230123
0.215492
0.202691
0.191732
0.18269
0.175681
0.170806
0.168107
0.167515
0.168811
0.171605
0.17533
0.179251
0.182488
0.184116
0.183409
0.180433
0.177488
0.18161
0.205747
0.266641
0.378209
0.538583
0.698918
0.828753
0.964373
1.11299
1.2331
1.3143
1.36779
1.40505
1.43177
1.45058
1.46417
1.47197
1.46986
1.45018
1.40322
1.32509
1.22917
1.12129
1.01044
0.904785
0.809841
0.728193
0.66144
0.118511
0.354986
0.655573
0.942256
1.15205
1.27902
1.36909
1.44816
1.5239
1.59744
1.66785
1.73398
1.79493
1.8501
1.89925
1.94241
1.97982
2.01187
2.03902
2.06177
2.08272
2.10288
2.12247
2.1412
2.15843
2.17318
2.18424
2.19029
2.1899
2.18169
2.16426
2.13619
2.09595
2.0417
1.97087
1.88303
1.78214
1.66912
1.54713
1.42148
1.29892
1.1865
1.09146
1.02213
0.985067
0.974219
0.952415
0.90486
0.844829
0.789465
0.740402
0.687742
0.625544
0.559148
0.501842
0.469439
0.47471
0.528709
0.628892
0.757592
0.88107
0.987638
1.11778
1.20946
1.21221
1.13239
1.03085
0.954864
0.919599
0.922569
0.954674
1.00595
1.06721
1.13092
1.19161
1.24618
1.29385
1.33545
1.37248
1.40628
1.43777
1.46737
1.49516
1.52097
1.54452
1.56542
1.58318
1.59778
1.60892
1.61644
1.62038
1.62104
1.61898
1.61502
1.61011
1.60526
1.60138
1.59905
1.59842
1.59907
1.59994
1.59939
1.59538
1.58573
1.56839
1.54172
1.50463
1.45659
1.40269
1.34489
1.28324
1.21902
1.15354
1.08794
1.02317
0.959961
0.89887
0.840313
0.784578
0.73185
0.68223
0.635749
0.59238
0.55204
0.514604
0.479904
0.447715
0.417733
0.389805
0.363762
0.339475
0.316874
0.295936
0.276655
0.259
0.242905
0.228286
0.215049
0.203129
0.192517
0.183244
0.175358
0.168898
0.163872
0.160237
0.157876
0.156584
0.156064
0.155981
0.156163
0.157103
0.161321
0.176298
0.217007
0.302524
0.442471
0.614311
0.768293
0.914075
1.09142
1.25958
1.38108
1.45651
1.5005
1.52295
1.52838
1.52098
1.50655
1.48739
1.4616
1.42295
1.36234
1.28209
1.18551
1.07892
0.970942
0.869127
0.778493
0.70132
0.638401
0.171807
0.510415
0.884286
1.19538
1.39139
1.50379
1.58156
1.64562
1.70306
1.75553
1.8026
1.8435
1.87765
1.90492
1.92558
1.94022
1.94968
1.95492
1.95695
1.95669
1.95873
1.96438
1.97384
1.98662
2.00163
2.01738
2.032
2.04347
2.04975
2.04894
2.03941
2.01974
1.98855
1.94429
1.88503
1.80793
1.71194
1.60173
1.47829
1.34533
1.20969
1.08034
0.965971
0.873806
0.811514
0.786854
0.798261
0.805445
0.785974
0.744317
0.697022
0.652624
0.610547
0.570596
0.539882
0.534024
0.570111
0.652967
0.791453
0.979525
1.18031
1.33198
1.32075
1.21753
1.10597
1.00298
0.932045
0.903705
0.914591
0.954909
1.01365
1.08103
1.14929
1.21314
1.26999
1.31952
1.36274
1.40108
1.43577
1.46771
1.49746
1.5253
1.55127
1.57521
1.59673
1.6153
1.63017
1.64082
1.6466
1.64707
1.64206
1.63178
1.61688
1.59842
1.57785
1.55685
1.5371
1.52007
1.50668
1.49715
1.49084
1.48629
1.48137
1.47366
1.4607
1.44043
1.4112
1.3746
1.33267
1.28558
1.23434
1.18015
1.12416
1.06737
1.01061
0.954553
0.899719
0.846519
0.795268
0.7462
0.699485
0.655231
0.613498
0.574293
0.537583
0.503295
0.471309
0.441439
0.413545
0.387505
0.36321
0.340574
0.319532
0.300035
0.282023
0.265418
0.25012
0.23602
0.223022
0.211064
0.200121
0.190196
0.181305
0.173464
0.166683
0.160957
0.156268
0.152598
0.150002
0.148809
0.150103
0.157038
0.177789
0.228671
0.330602
0.487972
0.66251
0.814751
0.976896
1.17517
1.35999
1.4846
1.55712
1.59322
1.60102
1.58448
1.54966
1.50563
1.45803
1.40766
1.34907
1.27992
1.19701
1.10178
0.99969
0.898069
0.803366
0.719775
0.649095
0.591539
0.25945
0.688052
1.0958
1.39915
1.57402
1.67327
1.73893
1.78781
1.82614
1.85545
1.87557
1.88616
1.88742
1.88018
1.86584
1.84618
1.8232
1.79884
1.77488
1.75295
1.74034
1.73825
1.74639
1.76366
1.78832
1.81805
1.85002
1.88101
1.90767
1.92689
1.93609
1.93342
1.91761
1.88757
1.84193
1.7785
1.69359
1.58755
1.46478
1.32647
1.17749
1.02753
0.888877
0.772259
0.684739
0.632189
0.620191
0.64485
0.666555
0.662748
0.636033
0.602539
0.573671
0.554192
0.550791
0.579172
0.658514
0.792439
0.983419
1.24406
1.47477
1.45269
1.25548
1.09521
0.981847
0.912225
0.886751
0.900716
0.944276
1.00621
1.07646
1.14719
1.21331
1.27242
1.32423
1.36956
1.4096
1.4455
1.47822
1.50856
1.53713
1.56428
1.5901
1.61431
1.63634
1.6554
1.67023
1.67983
1.68322
1.67965
1.66866
1.65026
1.62501
1.59405
1.55914
1.5225
1.4866
1.45379
1.42592
1.40393
1.38773
1.37621
1.36727
1.35843
1.3469
1.33031
1.30812
1.28065
1.24785
1.21029
1.16884
1.12446
1.07806
1.03044
0.982264
0.934091
0.886359
0.839433
0.793611
0.749144
0.706238
0.665062
0.625745
0.588378
0.553012
0.519661
0.488298
0.458852
0.431226
0.405352
0.38116
0.358584
0.337563
0.31804
0.299942
0.283183
0.267661
0.253265
0.239888
0.227443
0.215869
0.205134
0.195225
0.186143
0.177903
0.170522
0.164037
0.158525
0.15419
0.151581
0.152131
0.159514
0.182555
0.238525
0.349338
0.515491
0.690909
0.845178
1.01835
1.22624
1.41503
1.54429
1.61863
1.64936
1.64442
1.60837
1.54923
1.47872
1.40498
1.33324
1.26051
1.18312
1.09797
1.00544
0.909449
0.81566
0.729186
0.653319
0.589398
0.537286
0.370969
0.86024
1.26944
1.54906
1.70403
1.79126
1.84367
1.87456
1.88874
1.88721
1.8702
1.83861
1.79445
1.74076
1.68125
1.61983
1.56029
1.50602
1.45984
1.42444
1.4065
1.406
1.42181
1.45241
1.49589
1.54976
1.61068
1.67437
1.73579
1.78969
1.83142
1.85768
1.86664
1.85761
1.83011
1.78282
1.71302
1.61663
1.49714
1.357
1.19816
1.02907
0.864226
0.719641
0.606372
0.529116
0.490237
0.49238
0.522463
0.547322
0.549757
0.535771
0.521436
0.519408
0.541225
0.605087
0.730705
0.923938
1.18568
1.47498
1.56594
1.35698
1.12359
0.978046
0.898106
0.868992
0.881068
0.923848
0.985991
1.05724
1.12965
1.19808
1.26005
1.31501
1.36349
1.40638
1.44467
1.47939
1.51152
1.54193
1.57127
1.59985
1.62757
1.65391
1.67797
1.69859
1.71419
1.72356
1.72553
1.71915
1.70377
1.67917
1.64569
1.60441
1.55713
1.50642
1.45538
1.40713
1.36444
1.32909
1.30144
1.28096
1.26549
1.25284
1.2399
1.2253
1.20745
1.18562
1.15967
1.12991
1.09691
1.06133
1.02382
0.984937
0.945168
0.904904
0.864471
0.824145
0.784176
0.744791
0.706204
0.668615
0.632203
0.597124
0.563505
0.53144
0.500992
0.472187
0.444989
0.41939
0.395365
0.372882
0.3519
0.332368
0.314224
0.297384
0.281753
0.267227
0.253702
0.241082
0.229293
0.218279
0.208003
0.198444
0.189597
0.181476
0.174124
0.167644
0.162286
0.158657
0.158309
0.165172
0.188439
0.24576
0.359274
0.527856
0.703691
0.860426
1.03778
1.24587
1.43383
1.56569
1.64129
1.66882
1.65497
1.60446
1.52713
1.43719
1.34505
1.25654
1.17157
1.08737
1.00117
0.912452
0.823425
0.737943
0.659755
0.591326
0.533636
0.486404
0.48759
1.00209
1.39462
1.64645
1.78384
1.85749
1.89211
1.8976
1.87716
1.83202
1.76426
1.67784
1.57843
1.47259
1.36688
1.26728
1.17895
1.10616
1.05201
1.01909
1.00734
1.01502
1.04086
1.08409
1.14415
1.22008
1.30985
1.40956
1.51313
1.61274
1.70024
1.76892
1.81478
1.83654
1.83459
1.80886
1.75755
1.67708
1.56577
1.42791
1.26326
1.07833
0.88795
0.712923
0.571191
0.470353
0.409836
0.388039
0.402876
0.432424
0.453773
0.459405
0.460588
0.474368
0.518333
0.612999
0.772607
0.996218
1.28238
1.5273
1.48154
1.20681
1.00396
0.895455
0.852908
0.857476
0.895733
0.955624
1.0265
1.10008
1.17095
1.23631
1.29524
1.34788
1.39481
1.43682
1.47487
1.51002
1.54331
1.57561
1.60743
1.6388
1.66926
1.69793
1.72357
1.74473
1.75989
1.76793
1.76769
1.7582
1.73872
1.7089
1.6689
1.61952
1.56242
1.50024
1.43645
1.37469
1.31853
1.27065
1.23154
1.20157
1.17836
1.1603
1.14481
1.12964
1.11324
1.09467
1.07354
1.04982
1.02377
0.995722
0.966063
0.935124
0.903183
0.870466
0.837159
0.803429
0.769443
0.735373
0.701407
0.667744
0.634589
0.602143
0.57059
0.540097
0.510809
0.482828
0.456192
0.430957
0.407152
0.384782
0.363837
0.344287
0.326082
0.309155
0.29342
0.278784
0.265151
0.252431
0.240545
0.229429
0.219034
0.209324
0.200281
0.191904
0.184227
0.177347
0.171504
0.167287
0.166211
0.172212
0.194484
0.250457
0.361904
0.528035
0.702951
0.860665
1.03619
1.23771
1.42106
1.55322
1.62964
1.65545
1.6364
1.57781
1.49005
1.38791
1.28291
1.18222
1.08803
0.99925
0.913653
0.829823
0.74825
0.67104
0.600703
0.539045
0.486824
0.443769
0.666723
1.10666
1.46983
1.69357
1.81412
1.87081
1.88148
1.85314
1.78878
1.69209
1.56956
1.43022
1.28406
1.14045
1.00729
0.890819
0.795741
0.725189
0.68057
0.661799
0.660334
0.67396
0.702214
0.745881
0.806698
0.88682
0.987808
1.10906
1.24615
1.39008
1.52854
1.64926
1.74326
1.80657
1.83952
1.843
1.81632
1.75687
1.66135
1.53138
1.36567
1.16885
0.954669
0.747183
0.572771
0.446077
0.366476
0.327337
0.323089
0.344715
0.371018
0.388837
0.402625
0.429726
0.491754
0.608987
0.787344
1.02254
1.30215
1.47242
1.33056
1.07137
0.913206
0.843365
0.832873
0.862253
0.917242
0.986243
1.06031
1.13346
1.20237
1.26567
1.32309
1.37486
1.4215
1.46378
1.50273
1.53947
1.57505
1.61012
1.64484
1.67882
1.71117
1.74068
1.7659
1.78521
1.79766
1.80231
1.79817
1.7844
1.76034
1.72563
1.68033
1.62505
1.56106
1.49075
1.41788
1.34613
1.27936
1.2216
1.17271
1.1342
1.10425
1.08045
1.06078
1.04339
1.02676
1.00983
0.991935
0.972758
0.952237
0.930444
0.907501
0.88353
0.858625
0.832851
0.806255
0.778883
0.750799
0.722097
0.692907
0.663399
0.633772
0.604245
0.575043
0.546388
0.518501
0.491529
0.4656
0.440835
0.417315
0.395094
0.374196
0.35462
0.33634
0.319304
0.303444
0.28868
0.274926
0.262101
0.250128
0.238941
0.228488
0.218727
0.209633
0.201201
0.193454
0.18648
0.180498
0.176037
0.174489
0.179587
0.200165
0.252909
0.358815
0.518625
0.690501
0.847079
1.01622
1.20644
1.38187
1.51198
1.58866
1.61425
1.59361
1.53219
1.44003
1.33156
1.21884
1.11041
1.01057
0.920025
0.837011
0.759143
0.685256
0.615942
0.552739
0.497021
0.449473
0.409934
0.815806
1.1606
1.49378
1.69405
1.79861
1.83628
1.81986
1.75508
1.64719
1.50488
1.34054
1.16786
0.999267
0.844591
0.71094
0.602994
0.523065
0.471073
0.444932
0.440295
0.445859
0.459921
0.482492
0.514983
0.560408
0.623467
0.71003
0.825377
0.970979
1.14106
1.32157
1.49395
1.6413
1.75384
1.83019
1.8712
1.87657
1.84481
1.77342
1.65939
1.49996
1.29736
1.06318
0.822455
0.609849
0.451493
0.351014
0.29759
0.280382
0.290951
0.313892
0.33589
0.357489
0.394583
0.469656
0.599445
0.782719
1.01633
1.26761
1.36028
1.17943
0.962501
0.848288
0.811929
0.826334
0.872846
0.937865
1.01125
1.08607
1.15829
1.22596
1.28836
1.34536
1.39711
1.44413
1.48729
1.52772
1.56658
1.60467
1.64229
1.67912
1.71429
1.74658
1.77453
1.79665
1.81155
1.81893
1.81808
1.80827
1.78887
1.75942
1.71967
1.66973
1.61025
1.54206
1.4669
1.38901
1.31181
1.23812
1.17438
1.12013
1.07527
1.03883
1.00937
0.985373
0.965304
0.947752
0.931553
0.91585
0.900083
0.883929
0.867222
0.849881
0.831852
0.813079
0.793492
0.773016
0.751582
0.729146
0.705706
0.681316
0.656084
0.630177
0.603805
0.577208
0.550644
0.524385
0.498622
0.473569
0.449405
0.426267
0.404259
0.383446
0.36386
0.345502
0.328347
0.312344
0.297429
0.283532
0.270577
0.258495
0.247223
0.236706
0.226902
0.217786
0.209347
0.201611
0.194658
0.188688
0.184174
0.18235
0.186609
0.205116
0.2534
0.351381
0.501898
0.668435
0.821753
0.981352
1.15697
1.32151
1.44725
1.5234
1.54978
1.53019
1.46966
1.37746
1.26721
1.15126
1.03938
0.937864
0.848842
0.77061
0.699668
0.633408
0.571303
0.514298
0.463593
0.419927
0.383308
0.936926
1.17064
1.47474
1.65702
1.74825
1.76888
1.7284
1.63318
1.49254
1.32086
1.13525
0.951672
0.782558
0.636636
0.519418
0.433273
0.377247
0.347471
0.33852
0.343349
0.353375
0.367054
0.383887
0.404464
0.431059
0.468456
0.524683
0.610366
0.735321
0.902561
1.10236
1.31327
1.50936
1.67181
1.79572
1.88049
1.92461
1.92847
1.88889
1.80055
1.65805
1.45995
1.21406
0.943489
0.688285
0.489245
0.361263
0.29234
0.26449
0.265472
0.28259
0.303991
0.329424
0.373276
0.456169
0.589163
0.7681
0.990876
1.20071
1.23202
1.05119
0.878867
0.802266
0.792597
0.825245
0.883022
0.953752
1.02909
1.10392
1.17557
1.24281
1.3051
1.36222
1.41432
1.46197
1.50623
1.54828
1.58913
1.62925
1.66844
1.7059
1.74035
1.77034
1.79432
1.81088
1.81933
1.81979
1.81184
1.79504
1.76902
1.73356
1.68854
1.63411
1.57151
1.50123
1.42373
1.34418
1.26622
1.19255
1.12605
1.06797
1.01857
0.977386
0.943591
0.91614
0.893831
0.875397
0.859649
0.845591
0.832473
0.819778
0.807165
0.794403
0.781315
0.767738
0.753505
0.738443
0.722387
0.705195
0.686768
0.667067
0.646123
0.624044
0.601
0.577221
0.552976
0.52855
0.504206
0.480212
0.456803
0.434172
0.41247
0.391808
0.372255
0.353846
0.33658
0.320433
0.305357
0.291298
0.278192
0.265977
0.254593
0.243989
0.234124
0.224969
0.216517
0.208792
0.201873
0.195945
0.191433
0.189422
0.19289
0.209136
0.25222
0.340752
0.479815
0.638925
0.787205
0.935391
1.09422
1.24526
1.36426
1.4387
1.46611
1.44899
1.39162
1.30231
1.19379
1.07856
0.967599
0.868708
0.784737
0.713414
0.650044
0.590973
0.5351
0.483202
0.436545
0.396012
0.361785
1.03222
1.14829
1.42797
1.59762
1.68061
1.69038
1.63429
1.52022
1.36158
1.17717
0.986555
0.805702
0.645813
0.514291
0.415306
0.349342
0.312892
0.299582
0.302368
0.314024
0.329007
0.345364
0.361712
0.377372
0.392829
0.410707
0.437902
0.486927
0.57383
0.712081
0.90249
1.12839
1.35815
1.56244
1.73134
1.86048
1.94836
1.9935
1.99242
1.93904
1.82568
1.64648
1.40345
1.1141
0.818044
0.569141
0.401816
0.310558
0.270593
0.262365
0.27308
0.291637
0.318389
0.366311
0.452068
0.581163
0.750982
0.955741
1.1198
1.11033
0.94988
0.815949
0.768713
0.779189
0.82459
0.88945
0.963285
1.03946
1.11426
1.18582
1.25319
1.31576
1.37321
1.42572
1.47404
1.51932
1.56273
1.605
1.64619
1.68563
1.72209
1.75404
1.77986
1.79803
1.80733
1.80803
1.8005
1.78456
1.76014
1.72715
1.68556
1.63542
1.57642
1.51121
1.44035
1.36493
1.28754
1.21103
1.1383
1.07167
1.01242
0.960958
0.917211
0.880856
0.851321
0.827726
0.808949
0.793798
0.781189
0.770248
0.760333
0.750995
0.741916
0.732847
0.723563
0.713834
0.703423
0.692092
0.67962
0.665822
0.650569
0.633805
0.615558
0.595937
0.575132
0.553384
0.530987
0.50826
0.485512
0.463026
0.441043
0.419765
0.399347
0.379899
0.361489
0.344147
0.327874
0.312646
0.298422
0.285155
0.272789
0.261273
0.250559
0.240606
0.231388
0.222898
0.21516
0.208249
0.202339
0.197814
0.195619
0.198309
0.212204
0.249714
0.327925
0.454025
0.603954
0.745993
0.882156
1.02309
1.15836
1.26815
1.33922
1.3671
1.35279
1.29963
1.2151
1.1111
1.00037
0.894827
0.803023
0.727443
0.664655
0.60892
0.556147
0.505284
0.457347
0.413832
0.375788
0.343526
1.09294
1.10331
1.35829
1.52787
1.61143
1.62032
1.56066
1.44127
1.27785
1.09182
0.903722
0.729616
0.578506
0.456635
0.36766
0.311604
0.284785
0.279938
0.290474
0.309113
0.330519
0.352322
0.372412
0.389315
0.402475
0.412197
0.422277
0.443551
0.493606
0.59225
0.751229
0.9627
1.20002
1.43269
1.63961
1.81039
1.94072
2.02802
2.06862
2.05638
1.98248
1.83751
1.61683
1.32892
1.00559
0.704864
0.483882
0.357105
0.2983
0.278745
0.2822
0.296728
0.323218
0.372632
0.456484
0.577345
0.735675
0.916697
1.03744
1.00493
0.870371
0.770228
0.743868
0.767968
0.821506
0.890411
0.965739
1.04221
1.11711
1.18903
1.25687
1.31986
1.37768
1.43057
1.47941
1.52541
1.5696
1.61243
1.65355
1.69191
1.72598
1.75406
1.77449
1.78578
1.7871
1.77964
1.76387
1.73965
1.70746
1.66761
1.62025
1.56579
1.5049
1.43871
1.36815
1.29447
1.21962
1.14598
1.07594
1.01132
0.953082
0.901669
0.857329
0.820192
0.790078
0.766351
0.747986
0.733788
0.722625
0.713566
0.705917
0.699192
0.693044
0.687197
0.681393
0.675369
0.668845
0.661537
0.65317
0.643496
0.632313
0.619485
0.604952
0.588746
0.570982
0.551833
0.531634
0.510709
0.489392
0.468
0.446821
0.426101
0.406039
0.386787
0.368448
0.351085
0.334727
0.319373
0.305001
0.291576
0.279058
0.267399
0.256559
0.246499
0.237196
0.228643
0.220863
0.213928
0.207999
0.203422
0.201013
0.202915
0.214453
0.246297
0.313817
0.425932
0.565193
0.700369
0.825121
0.94826
1.0661
1.16412
1.22965
1.25668
1.24462
1.19588
1.11739
1.0205
0.918148
0.822647
0.742059
0.677401
0.623792
0.574956
0.527137
0.479935
0.434891
0.393779
0.35775
0.327161
1.08972
1.05137
1.26476
1.44784
1.54444
1.5615
1.50862
1.39621
1.24105
1.06481
0.887495
0.723601
0.581573
0.466672
0.381749
0.326529
0.297474
0.289214
0.298752
0.320078
0.346003
0.372495
0.39656
0.416056
0.430017
0.437723
0.440367
0.445735
0.469546
0.532631
0.653614
0.83645
1.06347
1.30473
1.53381
1.7347
1.89962
2.02434
2.10473
2.1348
2.10571
2.00642
1.82717
1.56672
1.24327
0.905515
0.623678
0.443643
0.3531
0.317251
0.310404
0.319282
0.343457
0.390754
0.46828
0.578903
0.723587
0.877067
0.961018
0.918557
0.809754
0.736331
0.72506
0.757647
0.815479
0.885991
0.961535
1.03781
1.11264
1.18471
1.2529
1.31632
1.37452
1.42777
1.47699
1.52329
1.56754
1.6099
1.64973
1.68573
1.71621
1.73938
1.75361
1.75768
1.75123
1.73601
1.71264
1.68146
1.64294
1.59753
1.54564
1.48788
1.42506
1.35816
1.2882
1.21647
1.14466
1.07473
1.00849
0.94714
0.89131
0.841444
0.798085
0.761722
0.732427
0.709677
0.692466
0.679594
0.669923
0.662531
0.656751
0.652123
0.648317
0.645057
0.642068
0.639056
0.635711
0.631719
0.626778
0.620611
0.612977
0.603681
0.592592
0.579651
0.564836
0.548339
0.530452
0.51148
0.49176
0.47163
0.451413
0.431393
0.411812
0.392861
0.374682
0.357372
0.340986
0.325549
0.311061
0.297501
0.284841
0.273043
0.262073
0.251897
0.242495
0.23386
0.226016
0.21903
0.213049
0.208383
0.205728
0.206844
0.216092
0.24241
0.299286
0.396781
0.523976
0.651964
0.766959
0.873851
0.973678
1.05767
1.11514
1.13933
1.12829
1.08374
1.01249
0.925491
0.835591
0.75437
0.688009
0.635292
0.590154
0.546635
0.502117
0.457288
0.414296
0.3751
0.340822
0.311765
0.967488
1.0054
1.14436
1.3248
1.45395
1.50131
1.47259
1.38243
1.24883
1.09241
0.932152
0.78195
0.650181
0.541533
0.458118
0.399634
0.363719
0.347216
0.34944
0.365532
0.388968
0.414526
0.438063
0.456694
0.468977
0.473501
0.470239
0.465477
0.473268
0.512982
0.60413
0.756502
0.961046
1.19315
1.42622
1.64136
1.82799
1.98024
2.09336
2.16152
2.17648
2.12723
2.00173
1.79179
1.50185
1.16122
0.832533
0.586554
0.446567
0.383632
0.36159
0.361484
0.379355
0.419616
0.487233
0.586132
0.713688
0.837233
0.891513
0.847531
0.762253
0.709546
0.708599
0.745713
0.805019
0.875436
0.950323
1.02603
1.10064
1.1728
1.2413
1.30507
1.3636
1.41709
1.46633
1.5123
1.55562
1.59626
1.63343
1.66576
1.6916
1.70927
1.71736
1.71493
1.70204
1.68049
1.65096
1.61405
1.57037
1.52054
1.46515
1.40494
1.34079
1.2737
1.20478
1.13533
1.06691
1.0011
0.939131
0.881637
0.828966
0.781646
0.740486
0.706186
0.678883
0.658017
0.642543
0.631258
0.623076
0.617162
0.612947
0.610051
0.60819
0.60709
0.606446
0.605915
0.605144
0.603794
0.601558
0.59817
0.593399
0.587041
0.578924
0.568902
0.556818
0.542932
0.527414
0.510518
0.492552
0.473856
0.454767
0.435604
0.416642
0.398114
0.380198
0.363025
0.346682
0.33122
0.316658
0.302995
0.290215
0.278293
0.2672
0.256908
0.247401
0.238675
0.230752
0.223695
0.217638
0.212854
0.209932
0.210283
0.217367
0.238439
0.28499
0.367479
0.481051
0.601261
0.708685
0.802352
0.885276
0.953998
1.00106
1.0202
1.00871
0.968283
0.905964
0.832029
0.758324
0.694281
0.643093
0.601294
0.562506
0.522102
0.479222
0.435769
0.394346
0.356879
0.324301
0.296775
0.695618
0.999929
1.07238
1.19354
1.32325
1.40769
1.42325
1.3738
1.276
1.14964
1.01297
0.880001
0.759948
0.658136
0.577052
0.517055
0.477048
0.455273
0.451024
0.458963
0.473924
0.491182
0.506677
0.517645
0.522374
0.518599
0.506081