/*--------------------------------*- C++ -*----------------------------------*\
  =========                 |
  \\      /  F ield         | OpenFOAM: The Open Source CFD Toolbox
   \\    /   O peration     | Website:  https://openfoam.org
    \\  /    A nd           | Version:  9
     \\/     M anipulation  |
\*---------------------------------------------------------------------------*/
FoamFile
{
    format      ascii;
    class       volScalarField;
    location    "0.26";
    object      kU;
}
// * * * * * * * * * * * * * * * * * * * * * * * * * * * * * * * * * * * * * //

dimensions      [0 2 -2 0 0 0 0];

internalField   nonuniform List<scalar> 
12225
(
0.157225
0.132055
0.113084
0.0993093
0.0899625
0.0843824
0.0819461
0.082028
0.0840019
0.0872657
0.0912707
0.0955421
0.0997532
0.104149
0.108445
0.112488
0.116518
0.120593
0.180927
0.174817
0.173061
0.17718
0.187033
0.201771
0.22014
0.240659
0.261831
0.282319
0.301053
0.317259
0.330419
0.33985
0.345743
0.348211
0.347606
0.342709
0.184265
0.181287
0.178397
0.176204
0.175221
0.175581
0.177182
0.179792
0.183094
0.186741
0.190401
0.193777
0.19661
0.198939
0.200648
0.201605
0.201736
0.200893
0.184879
0.182077
0.179344
0.17681
0.17464
0.172911
0.171612
0.17068
0.170026
0.169555
0.169177
0.168812
0.16845
0.168083
0.167696
0.167291
0.166898
0.166606
0.185145
0.182637
0.180165
0.17778
0.17554
0.173488
0.17164
0.169989
0.168514
0.167188
0.165985
0.164888
0.163889
0.162991
0.162207
0.161566
0.161124
0.160971
0.185257
0.182943
0.180681
0.178481
0.176368
0.174367
0.172493
0.170751
0.16914
0.167657
0.166296
0.165054
0.163934
0.162946
0.16211
0.161455
0.16103
0.16089
0.185299
0.183081
0.180949
0.178893
0.176919
0.175038
0.173256
0.171579
0.170011
0.168551
0.167204
0.165972
0.164864
0.163892
0.163075
0.162439
0.162017
0.161834
0.185312
0.183135
0.181069
0.179102
0.177227
0.175445
0.173757
0.172165
0.170669
0.169274
0.167982
0.166799
0.165735
0.164801
0.164014
0.163392
0.162955
0.16271
0.185315
0.183152
0.181114
0.17919
0.17737
0.17565
0.174028
0.1725
0.171067
0.169731
0.168493
0.167361
0.166339
0.16544
0.164673
0.164052
0.163587
0.163273
0.185315
0.183155
0.181126
0.179219
0.177423
0.175734
0.174146
0.172657
0.171263
0.169965
0.168765
0.167665
0.16667
0.165789
0.165028
0.164393
0.163888
0.163508
0.185315
0.183154
0.181126
0.179223
0.177435
0.175757
0.174183
0.172709
0.171333
0.170053
0.168869
0.167783
0.166798
0.165917
0.165145
0.164485
0.163935
0.163491
0.185314
0.183153
0.181124
0.179219
0.177431
0.175754
0.174182
0.172712
0.171339
0.170061
0.168879
0.167792
0.166801
0.165909
0.165116
0.164424
0.16383
0.16333
0.185314
0.183151
0.18112
0.179214
0.177424
0.175745
0.17417
0.172697
0.171321
0.170039
0.168851
0.167755
0.166752
0.165842
0.165024
0.164299
0.163662
0.163112
0.185314
0.18315
0.181118
0.179208
0.177415
0.175732
0.174153
0.172673
0.17129
0.17
0.1688
0.16769
0.166668
0.165733
0.164885
0.164121
0.163439
0.162838
0.185314
0.18315
0.181116
0.179204
0.177407
0.175718
0.174133
0.172646
0.171253
0.169951
0.168737
0.167609
0.166564
0.165602
0.164721
0.163917
0.163189
0.162539
0.185314
0.18315
0.181114
0.1792
0.177399
0.175706
0.174114
0.172619
0.171215
0.1699
0.16867
0.167522
0.166454
0.165464
0.164549
0.163707
0.162936
0.16224
0.185315
0.18315
0.181114
0.179197
0.177393
0.175695
0.174096
0.172592
0.171178
0.16985
0.168604
0.167437
0.166347
0.165329
0.164383
0.163506
0.162696
0.161957
0.185315
0.183151
0.181114
0.179195
0.177388
0.175685
0.174081
0.172569
0.171145
0.169804
0.168543
0.167359
0.166247
0.165206
0.164232
0.163324
0.162478
0.161703
0.185316
0.183151
0.181114
0.179194
0.177384
0.175677
0.174066
0.172547
0.171114
0.169763
0.168489
0.167289
0.166159
0.165098
0.164101
0.163167
0.162293
0.161486
0.185316
0.183152
0.181113
0.179192
0.17738
0.17567
0.174056
0.172531
0.171092
0.169733
0.16845
0.16724
0.166099
0.165023
0.164011
0.16306
0.162167
0.16134
0.185316
0.183152
0.181113
0.179191
0.177377
0.175665
0.174048
0.17252
0.171077
0.169713
0.168425
0.167208
0.166059
0.164975
0.163953
0.16299
0.162084
0.161243
0.185316
0.183152
0.181112
0.179189
0.177374
0.175659
0.174039
0.172508
0.171059
0.169689
0.168393
0.167168
0.166009
0.164913
0.163877
0.162899
0.161977
0.161118
0.185316
0.183152
0.181111
0.179185
0.177365
0.175644
0.174015
0.172473
0.17101
0.169624
0.168309
0.167062
0.16588
0.164758
0.163696
0.162689
0.161736
0.160845
0.185316
0.183149
0.181101
0.179163
0.177325
0.17558
0.17392
0.172341
0.170836
0.169404
0.168041
0.166743
0.165509
0.164335
0.163221
0.162163
0.16116
0.160221
0.185312
0.183129
0.181052
0.179067
0.177168
0.175348
0.173606
0.17194
0.170349
0.168832
0.16739
0.16602
0.164723
0.163494
0.162334
0.161239
0.160207
0.159245
0.185288
0.183042
0.180864
0.178749
0.176697
0.174718
0.172825
0.171028
0.169333
0.167746
0.166267
0.164896
0.16363
0.162465
0.161396
0.160416
0.159522
0.158712
0.185186
0.182754
0.180332
0.177935
0.175624
0.173458
0.171477
0.169704
0.168148
0.166813
0.165694
0.164783
0.164068
0.163536
0.16317
0.162955
0.162876
0.162917
0.184843
0.182049
0.179079
0.176201
0.173713
0.17176
0.170392
0.169626
0.169462
0.169891
0.170893
0.172436
0.174486
0.176999
0.179931
0.183234
0.186863
0.190755
0.182872
0.17727
0.172691
0.170222
0.170152
0.172476
0.177106
0.1839
0.192672
0.203216
0.215312
0.228731
0.243244
0.258622
0.274645
0.291107
0.307833
0.324557
0.168312
0.151151
0.136936
0.12519
0.11559
0.107888
0.101892
0.0974417
0.0943994
0.0926402
0.092049
0.0925178
0.0939439
0.0962287
0.0992774
0.102998
0.107305
0.112098
0.0439194
0.0670946
0.0735798
0.0808459
0.0858879
0.0898902
0.0933124
0.0972935
0.103064
0.111353
0.122424
0.136209
0.152439
0.170741
0.190728
0.212072
0.234573
0.258228
0.283256
0.310138
0.337586
0.363581
0.387854
0.410277
0.430859
0.44983
0.467612
0.484872
0.503063
0.52307
0.541451
0.557051
0.569222
0.577569
0.581807
0.581819
0.577651
0.569305
0.556373
0.537951
0.513603
0.48692
0.453578
0.408677
0.349707
0.279944
0.209706
0.151247
0.111234
0.0889155
0.0800132
0.0804721
0.0870888
0.0979735
0.109823
0.123515
0.139807
0.15782
0.170872
0.175922
0.172062
0.162087
0.150595
0.141385
0.135635
0.134839
0.139063
0.145929
0.154706
0.166856
0.190477
0.241366
0.330951
0.414662
0.485305
0.543393
0.58947
0.624743
0.650608
0.668448
0.679537
0.685011
0.685865
0.682959
0.677039
0.668756
0.65867
0.64738
0.635229
0.622331
0.608776
0.594638
0.579967
0.564795
0.549132
0.532962
0.51625
0.498936
0.480938
0.462163
0.442513
0.421903
0.400278
0.377636
0.354058
0.329738
0.305039
0.280727
0.258853
0.245937
0.240485
0.235706
0.231111
0.226764
0.222784
0.219273
0.216308
0.21393
0.212151
0.21095
0.210275
0.210039
0.210137
0.210448
0.210578
0.209619
0.206973
0.202185
0.194947
0.185159
0.17302
0.159079
0.144207
0.129348
0.115027
0.100879
0.0862234
0.0776328
0.0738077
0.073416
0.0751603
0.0778693
0.0805381
0.0823721
0.0828387
0.0817098
0.0790791
0.0753399
0.0711295
0.0672515
0.0645961
0.0638375
0.065094
0.068367
0.0736362
0.0810553
0.0905837
0.0982611
0.111196
0.149116
0.202564
0.244941
0.276304
0.297743
0.311163
0.31881
0.323212
0.322428
0.316666
0.30581
0.289531
0.267785
0.241837
0.222859
0.218732
0.215156
0.212025
0.209664
0.208056
0.205494
0.0471202
0.0819346
0.0988104
0.119769
0.145106
0.17286
0.202419
0.235403
0.272988
0.314973
0.36034
0.407814
0.456426
0.5056
0.555064
0.604604
0.654025
0.70301
0.751138
0.797878
0.842494
0.885255
0.926079
0.964742
1.00087
1.03398
1.06347
1.08862
1.10858
1.12235
1.12847
1.12528
1.11234
1.08962
1.05717
1.01531
0.965053
0.908544
0.849698
0.792306
0.734566
0.669656
0.603101
0.544117
0.497937
0.467535
0.449413
0.429627
0.390022
0.325511
0.253011
0.197083
0.167493
0.158773
0.16243
0.174206
0.194425
0.221496
0.247351
0.260087
0.252953
0.230167
0.202769
0.183621
0.183493
0.209812
0.26896
0.355535
0.434621
0.469636
0.472108
0.473701
0.478596
0.482372
0.485574
0.489279
0.494189
0.500611
0.508554
0.517855
0.528285
0.539615
0.551653
0.564266
0.577387
0.591005
0.60516
0.619233
0.632994
0.646405
0.659428
0.672016
0.68411
0.695621
0.706426
0.716349
0.725149
0.732505
0.738012
0.741184
0.741471
0.738296
0.731107
0.719436
0.70297
0.681613
0.6555
0.62494
0.590264
0.554383
0.520916
0.487546
0.454638
0.422649
0.391943
0.362784
0.335339
0.309697
0.285877
0.263848
0.243542
0.224863
0.2077
0.191956
0.177487
0.164311
0.152586
0.142313
0.133384
0.125732
0.119311
0.114116
0.110203
0.107719
0.107035
0.10888
0.113647
0.120865
0.12943
0.138461
0.147208
0.154967
0.161083
0.164971
0.166165
0.164377
0.159551
0.151874
0.141773
0.129888
0.117161
0.105159
0.0964358
0.0934535
0.0975343
0.111699
0.145114
0.201228
0.259689
0.299929
0.337353
0.377883
0.417593
0.453832
0.485811
0.51379
0.538049
0.559273
0.576305
0.586774
0.587334
0.574558
0.546096
0.50584
0.463694
0.420012
0.377797
0.339164
0.304675
0.276065
0.0459157
0.093459
0.139299
0.195771
0.258841
0.320204
0.373439
0.423414
0.47365
0.524804
0.576456
0.627903
0.678552
0.727996
0.775975
0.822267
0.866662
0.908919
0.948768
0.985876
1.02045
1.05306
1.08373
1.11223
1.13823
1.16125
1.1807
1.19589
1.20604
1.21027
1.20761
1.19692
1.1767
1.1474
1.10911
1.06236
1.00819
0.948489
0.88631
0.826093
0.772657
0.728156
0.686692
0.637213
0.578728
0.523035
0.482006
0.458132
0.441234
0.41359
0.364494
0.301823
0.24333
0.200421
0.174974
0.166476
0.177119
0.203929
0.239572
0.271091
0.284367
0.277174
0.264545
0.273784
0.327788
0.428013
0.525268
0.550593
0.525679
0.497635
0.477459
0.468884
0.470133
0.478628
0.492789
0.510906
0.531123
0.551771
0.571697
0.590367
0.607764
0.624158
0.639892
0.655247
0.670378
0.6853
0.699904
0.713999
0.727614
0.740708
0.753267
0.765303
0.776839
0.787891
0.79845
0.808451
0.817745
0.826072
0.833036
0.838099
0.840598
0.83978
0.834873
0.825168
0.810118
0.789417
0.763049
0.73119
0.69401
0.65609
0.618591
0.580705
0.543001
0.506053
0.470322
0.43615
0.403774
0.373339
0.344913
0.318505
0.294076
0.271554
0.250835
0.231805
0.214303
0.198116
0.182947
0.168847
0.155784
0.143732
0.132694
0.122702
0.113809
0.106082
0.0996269
0.0946239
0.0912414
0.089554
0.0895904
0.0912999
0.0945221
0.0989699
0.10423
0.109774
0.114993
0.11925
0.121937
0.122537
0.120671
0.116196
0.109441
0.101842
0.0966575
0.0989026
0.114151
0.149907
0.213713
0.292715
0.353097
0.400157
0.458324
0.514813
0.559091
0.591734
0.61742
0.63959
0.659124
0.676345
0.690082
0.697651
0.69499
0.677648
0.642413
0.596119
0.544775
0.491585
0.440443
0.394031
0.35354
0.320231
0.0478836
0.12253
0.220224
0.329471
0.427569
0.495949
0.546436
0.59273
0.638887
0.685109
0.730705
0.774978
0.817375
0.857505
0.895114
0.930053
0.962243
0.991644
1.01823
1.04197
1.06368
1.08387
1.10257
1.11965
1.1348
1.14759
1.15752
1.16397
1.16629
1.16376
1.15561
1.14103
1.11912
1.08868
1.04974
1.00363
0.950789
0.892471
0.830726
0.76858
0.710123
0.660088
0.622494
0.597191
0.575461
0.542431
0.500495
0.461844
0.43394
0.412324
0.385188
0.34552
0.297511
0.251252
0.215301
0.1951
0.195226
0.218966
0.25967
0.305365
0.339094
0.355214
0.379412
0.445154
0.53756
0.592814
0.57259
0.527662
0.489409
0.468342
0.463878
0.473037
0.491833
0.516477
0.543737
0.570944
0.596277
0.618923
0.638931
0.656847
0.673319
0.688855
0.703732
0.718016
0.731633
0.744445
0.756195
0.766965
0.776707
0.785396
0.793067
0.799826
0.805837
0.811306
0.816448
0.821443
0.826388
0.831242
0.835782
0.839573
0.841969
0.842147
0.839187
0.832174
0.820313
0.803037
0.780074
0.751366
0.717644
0.683477
0.648041
0.611697
0.575124
0.538922
0.503577
0.469464
0.436854
0.405931
0.376808
0.349538
0.324128
0.300547
0.278735
0.258607
0.240059
0.222951
0.207087
0.192279
0.178479
0.16561
0.153642
0.142588
0.132471
0.123299
0.115062
0.107746
0.101346
0.0958662
0.0913452
0.0878404
0.085403
0.0840535
0.0837574
0.0844053
0.0858023
0.087665
0.0896254
0.0912442
0.0920579
0.0917045
0.0902165
0.0887442
0.0908051
0.102873
0.133321
0.189105
0.269292
0.349459
0.414377
0.482186
0.556495
0.616549
0.657151
0.683894
0.702525
0.715887
0.725289
0.732085
0.735983
0.734929
0.72509
0.701611
0.662543
0.614585
0.560643
0.505221
0.452392
0.40492
0.364096
0.33072
0.0592554
0.177493
0.327787
0.471128
0.576026
0.639509
0.684546
0.724078
0.761951
0.798718
0.833923
0.86699
0.897464
0.925052
0.949627
0.971205
0.98991
1.00593
1.01951
1.03088
1.04136
1.05144
1.06123
1.0706
1.07921
1.08659
1.09212
1.09514
1.09495
1.09084
1.08213
1.0681
1.04797
1.02085
0.985436
0.941516
0.891071
0.83456
0.773566
0.710739
0.64946
0.593251
0.545732
0.511065
0.492534
0.48711
0.476207
0.45243
0.422415
0.394732
0.370201
0.343871
0.312772
0.279574
0.250921
0.23472
0.237355
0.264355
0.314446
0.378796
0.440535
0.493819
0.55889
0.604732
0.606107
0.566195
0.515424
0.477432
0.459799
0.461284
0.477337
0.502976
0.533604
0.565458
0.595806
0.623092
0.646924
0.667726
0.686238
0.703141
0.718884
0.733684
0.747579
0.760487
0.772258
0.782708
0.791592
0.798891
0.804462
0.808221
0.810189
0.810518
0.809491
0.807509
0.805055
0.802632
0.800688
0.799523
0.799211
0.799536
0.79997
0.799694
0.79769
0.792865
0.784193
0.770859
0.752314
0.728297
0.701346
0.672446
0.641621
0.609508
0.576769
0.543972
0.511586
0.47998
0.449435
0.420157
0.392289
0.365925
0.341115
0.317875
0.29619
0.27602
0.257302
0.239952
0.223857
0.208866
0.194902
0.181881
0.169738
0.158437
0.147968
0.138327
0.1295
0.121453
0.114143
0.107524
0.101565
0.0962587
0.0916222
0.087679
0.084449
0.0819361
0.0801183
0.0789378
0.0782922
0.0780321
0.0779903
0.0780815
0.0785516
0.0806603
0.0881491
0.108503
0.151262
0.221236
0.307156
0.384147
0.457038
0.545712
0.629789
0.690542
0.728254
0.750252
0.761477
0.764188
0.760489
0.753274
0.743697
0.730802
0.711477
0.681172
0.641045
0.592755
0.53946
0.485471
0.434563
0.389247
0.35066
0.319201
0.0859036
0.255207
0.442143
0.597692
0.695693
0.751897
0.790781
0.822811
0.85153
0.877764
0.901302
0.921749
0.938826
0.952462
0.96279
0.970109
0.97484
0.977462
0.978473
0.978345
0.979366
0.982191
0.986922
0.993308
1.00082
1.00869
1.016
1.02173
1.02487
1.02447
1.01971
1.00987
0.994276
0.972146
0.942513
0.903967
0.855971
0.800867
0.739144
0.672666
0.604847
0.540172
0.482986
0.436903
0.405757
0.393427
0.399131
0.402722
0.392987
0.372159
0.348511
0.326312
0.305274
0.285298
0.269941
0.267012
0.285056
0.326484
0.395726
0.489763
0.590156
0.66599
0.660373
0.608763
0.552985
0.501491
0.466022
0.451852
0.457295
0.477455
0.506824
0.540514
0.574643
0.606568
0.634994
0.659759
0.681371
0.700539
0.717885
0.733856
0.74873
0.762649
0.775635
0.787604
0.798365
0.807651
0.815085
0.820408
0.823301
0.823536
0.821031
0.815891
0.808439
0.79921
0.788925
0.778423
0.76855
0.760033
0.753342
0.748577
0.74542
0.743143
0.740685
0.736828
0.730352
0.720216
0.7056
0.687302
0.666333
0.642791
0.617169
0.590074
0.562079
0.533685
0.505307
0.477277
0.449859
0.423259
0.397634
0.3731
0.349742
0.327616
0.306749
0.287146
0.268792
0.251648
0.235654
0.22072
0.206772
0.193752
0.181605
0.170287
0.159766
0.150017
0.141012
0.132709
0.12506
0.11801
0.111511
0.105532
0.100061
0.0950981
0.0906523
0.0867319
0.0833416
0.0804786
0.0781338
0.0762988
0.0750012
0.0744044
0.0750514
0.0785192
0.0888944
0.114336
0.165301
0.243986
0.331255
0.407376
0.488448
0.587586
0.679993
0.7423
0.778559
0.79661
0.800511
0.792239
0.774829
0.752813
0.729015
0.703831
0.674537
0.639962
0.598503
0.55089
0.499845
0.449035
0.401683
0.359887
0.324548
0.29577
0.129725
0.344026
0.547899
0.699575
0.787008
0.836635
0.869467
0.893903
0.91307
0.927727
0.937783
0.94308
0.943711
0.94009
0.932919
0.923091
0.9116
0.899419
0.88744
0.876476
0.870169
0.869123
0.873194
0.88183
0.89416
0.909025
0.925009
0.940503
0.953836
0.963444
0.968043
0.966708
0.958804
0.943786
0.920966
0.889252
0.846796
0.793777
0.732391
0.663233
0.588747
0.513765
0.444439
0.386129
0.342369
0.316095
0.310095
0.322425
0.333277
0.331374
0.318017
0.30127
0.286836
0.277096
0.275395
0.289586
0.329257
0.396219
0.49171
0.622031
0.737384
0.726345
0.627741
0.547607
0.490924
0.456113
0.443375
0.450358
0.472138
0.503105
0.538228
0.573597
0.606656
0.636211
0.662114
0.68478
0.704802
0.72275
0.73911
0.754281
0.768564
0.782142
0.795048
0.807153
0.818171
0.8277
0.835114
0.839914
0.841612
0.839823
0.834328
0.82513
0.812503
0.797024
0.779568
0.761249
0.7433
0.726895
0.712958
0.701965
0.693863
0.688104
0.683635
0.679213
0.67345
0.665157
0.654061
0.640323
0.623926
0.605147
0.584421
0.56223
0.539028
0.515218
0.491132
0.467045
0.44318
0.419716
0.396806
0.374572
0.353119
0.332531
0.312872
0.294189
0.276506
0.259831
0.244149
0.229426
0.215613
0.202676
0.19058
0.179292
0.168782
0.15902
0.149971
0.141592
0.133831
0.126632
0.119944
0.113721
0.107935
0.102567
0.0976123
0.0930717
0.0889513
0.0852611
0.0820185
0.0792626
0.0770952
0.0757906
0.0760653
0.0797569
0.0912775
0.119262
0.174669
0.257746
0.345454
0.422589
0.509177
0.613122
0.707514
0.772144
0.809314
0.82468
0.82221
0.804185
0.774615
0.739361
0.702488
0.666621
0.630255
0.591561
0.548986
0.502719
0.454724
0.40783
0.364593
0.326659
0.294699
0.268643
0.185484
0.43012
0.634721
0.77453
0.852017
0.895632
0.921836
0.937281
0.944369
0.943604
0.935101
0.919305
0.897225
0.870382
0.840626
0.809917
0.780146
0.753008
0.729918
0.712222
0.703251
0.703002
0.710905
0.726204
0.747946
0.77488
0.805338
0.837183
0.867893
0.894843
0.915712
0.92884
0.933322
0.928805
0.915053
0.891409
0.856508
0.808317
0.748571
0.6785
0.599078
0.514533
0.432113
0.35982
0.303186
0.264558
0.245118
0.24619
0.261232
0.273661
0.274879
0.267886
0.260718
0.259704
0.270613
0.302543
0.365353
0.461969
0.592842
0.73749
0.782969
0.678491
0.561794
0.489023
0.449053
0.434496
0.440534
0.461924
0.492995
0.52862
0.564825
0.599039
0.630023
0.657507
0.681744
0.703188
0.722337
0.739697
0.75576
0.770965
0.785636
0.799927
0.813786
0.826954
0.838985
0.849296
0.857094
0.861778
0.862766
0.859577
0.851885
0.839583
0.822847
0.802203
0.778563
0.753212
0.727689
0.703563
0.682222
0.664546
0.65072
0.640479
0.632745
0.626421
0.619951
0.612649
0.603724
0.592808
0.579833
0.564954
0.548455
0.530666
0.511909
0.492468
0.472584
0.452452
0.432235
0.412073
0.392088
0.372396
0.353102
0.334307
0.316102
0.298562
0.281753
0.26572
0.250496
0.236093
0.222494
0.209695
0.197683
0.186441
0.17595
0.166184
0.157112
0.148692
0.140877
0.133614
0.126851
0.120541
0.114646
0.109139
0.104001
0.0992218
0.0947984
0.090738
0.087062
0.0838222
0.0811428
0.0793286
0.0791545
0.0825862
0.0942193
0.12288
0.179637
0.263928
0.351845
0.430213
0.518892
0.622935
0.716915
0.782846
0.820643
0.834411
0.827486
0.802231
0.763565
0.718593
0.672525
0.628268
0.585783
0.543684
0.500587
0.456226
0.411713
0.368972
0.329877
0.295663
0.266818
0.243202
0.243795
0.501046
0.697311
0.823226
0.89192
0.928746
0.946057
0.948798
0.938582
0.916012
0.882128
0.838919
0.789217
0.736297
0.683439
0.633638
0.589477
0.553079
0.526004
0.509543
0.50367
0.507512
0.520429
0.542044
0.572073
0.610042
0.654925
0.704778
0.756563
0.806372
0.850121
0.884462
0.907389
0.918272
0.917297
0.904428
0.878775
0.838539
0.782887
0.713957
0.631629
0.539166
0.443975
0.356462
0.285596
0.235177
0.204918
0.19402
0.201438
0.216212
0.226887
0.229702
0.230294
0.237184
0.259167
0.306499
0.386303
0.498109
0.641188
0.763648
0.740772
0.603403
0.50198
0.447727
0.426454
0.428738
0.447866
0.477812
0.51325
0.550042
0.585477
0.618155
0.64762
0.673938
0.697403
0.718412
0.737437
0.755009
0.771655
0.787807
0.803717
0.819401
0.834632
0.848964
0.861783
0.872365
0.879946
0.883963
0.883844
0.879098
0.86936
0.854452
0.834448
0.809759
0.781211
0.750121
0.718227
0.687345
0.659265
0.635324
0.615769
0.600785
0.589178
0.58015
0.572403
0.564819
0.556619
0.547337
0.53677
0.524912
0.511883
0.497861
0.483032
0.467562
0.451592
0.435233
0.418579
0.401715
0.384721
0.367686
0.350703
0.333872
0.317295
0.301071
0.285295
0.270049
0.255405
0.241414
0.228096
0.215479
0.203576
0.192391
0.181918
0.172143
0.163041
0.154577
0.14671
0.139392
0.132576
0.126215
0.120272
0.114715
0.109517
0.104662
0.10014
0.0959522
0.0921135
0.0886733
0.085752
0.0836437
0.0831056
0.0861062
0.0972419
0.125229
0.180952
0.264017
0.351475
0.430333
0.518095
0.618855
0.710531
0.776609
0.81482
0.827723
0.818198
0.788904
0.745023
0.693957
0.641454
0.591109
0.544015
0.499625
0.456827
0.414911
0.374125
0.33552
0.300352
0.269523
0.243412
0.221885
0.333361
0.553331
0.734915
0.846786
0.90706
0.935406
0.940741
0.926571
0.894392
0.846045
0.78478
0.715111
0.64203
0.570226
0.503645
0.445409
0.397871
0.362594
0.340285
0.330899
0.330167
0.33698
0.351107
0.372941
0.403349
0.44341
0.493904
0.554532
0.623077
0.695038
0.764269
0.824629
0.871628
0.903287
0.919759
0.921501
0.908162
0.878434
0.830674
0.765688
0.682834
0.584426
0.477335
0.373591
0.286385
0.223039
0.183238
0.163668
0.161545
0.172357
0.185509
0.194418
0.201312
0.214863
0.245877
0.304493
0.393672
0.511269
0.651074
0.736212
0.66528
0.535687
0.456603
0.421683
0.416436
0.431126
0.458621
0.493122
0.530157
0.566729
0.601183
0.632834
0.661544
0.68743
0.71075
0.731891
0.751363
0.769737
0.787526
0.805062
0.822422
0.839408
0.855587
0.870341
0.882952
0.892605
0.898832
0.901156
0.899087
0.8922
0.88017
0.862817
0.840167
0.812524
0.78053
0.745374
0.70894
0.673065
0.639681
0.610802
0.586354
0.567099
0.552126
0.540225
0.53039
0.521693
0.513381
0.504916
0.495967
0.486379
0.476118
0.465222
0.453751
0.441765
0.429312
0.416425
0.403127
0.389441
0.3754
0.361048
0.346454
0.3317
0.316886
0.302122
0.287521
0.273194
0.259251
0.245764
0.2328
0.220417
0.208657
0.197547
0.187098
0.17731
0.16817
0.159652
0.151722
0.14434
0.137463
0.13105
0.125064
0.119471
0.114244
0.109364
0.104817
0.1006
0.096727
0.0932401
0.0902489
0.0880185
0.0872444
0.0897936
0.100082
0.126455
0.179407
0.259313
0.345251
0.423539
0.508109
0.603219
0.690933
0.755988
0.794332
0.807126
0.796805
0.766097
0.720017
0.665782
0.609422
0.555204
0.505285
0.460013
0.418506
0.379572
0.342628
0.307971
0.276369
0.248511
0.224737
0.204967
0.407903
0.580298
0.746891
0.847023
0.899304
0.918142
0.90993
0.877542
0.823596
0.752442
0.670269
0.583928
0.499633
0.422296
0.35547
0.301497
0.261532
0.235537
0.222466
0.220148
0.222929
0.229961
0.241246
0.257491
0.280204
0.311733
0.355015
0.412689
0.485489
0.570532
0.660784
0.746974
0.820651
0.876921
0.915095
0.935601
0.938286
0.922404
0.88671
0.829696
0.74998
0.648679
0.531588
0.411227
0.304924
0.225747
0.175507
0.148795
0.140191
0.145475
0.156946
0.167945
0.178745
0.197291
0.234828
0.299722
0.39136
0.508163
0.633806
0.680138
0.589714
0.481251
0.424144
0.405965
0.413167
0.436423
0.468932
0.505625
0.543037
0.579145
0.61298
0.644181
0.672678
0.698556
0.722066
0.743644
0.763862
0.783289
0.802337
0.821147
0.83956
0.857147
0.87329
0.887264
0.898327
0.905773
0.909463
0.909039
0.904134
0.894435
0.87971
0.859837
0.834867
0.805126
0.771032
0.733449
0.694505
0.655905
0.619058
0.587189
0.560063
0.537635
0.519414
0.504685
0.492687
0.482652
0.473876
0.465776
0.457925
0.450041
0.441964
0.433611
0.42494
0.415926
0.406539
0.396746
0.386508
0.375791
0.364573
0.352853
0.340658
0.328042
0.315089
0.301903
0.288604
0.275322
0.262193
0.249311
0.236785
0.224702
0.213134
0.202129
0.191723
0.18193
0.172751
0.164173
0.156172
0.148715
0.141766
0.135289
0.129248
0.123611
0.118353
0.113451
0.108893
0.104674
0.100806
0.0973292
0.0943442
0.0920869
0.0911752
0.0933043
0.102558
0.1267
0.17569
0.250949
0.334218
0.410877
0.490676
0.578483
0.660757
0.723625
0.7617
0.774892
0.765094
0.734832
0.688729
0.633606
0.575628
0.519692
0.468932
0.424421
0.385305
0.349834
0.316704
0.285652
0.257149
0.231796
0.209964
0.191654
0.468463
0.58532
0.737369
0.828508
0.874125
0.88444
0.864201
0.816592
0.74627
0.660429
0.567627
0.475836
0.391279
0.318318
0.259709
0.216637
0.188624
0.173736
0.16926
0.171675
0.176687
0.183527
0.191943
0.202232
0.21553
0.234228
0.262342
0.305183
0.36766
0.451281
0.551181
0.656637
0.754682
0.835904
0.897858
0.940243
0.962305
0.964233
0.944447
0.900275
0.829026
0.729975
0.607029
0.471745
0.344142
0.244622
0.180632
0.14617
0.132245
0.132736
0.141295
0.151995
0.164712
0.186638
0.228084
0.294582
0.38405
0.495438
0.600353
0.616012
0.525597
0.439433
0.401133
0.396299
0.412623
0.441511
0.476876
0.514545
0.551962
0.587787
0.621406
0.652549
0.681111
0.707158
0.730987
0.753114
0.774141
0.794567
0.814626
0.834222
0.852948
0.870177
0.885168
0.897158
0.90544
0.909663
0.909894
0.905919
0.897518
0.884512
0.86678
0.844269
0.817054
0.785753
0.750616
0.711865
0.67209
0.633111
0.596275
0.563026
0.533986
0.509284
0.488693
0.471795
0.45807
0.446915
0.437699
0.429825
0.422795
0.416237
0.409889
0.403583
0.397202
0.390658
0.383869
0.376752
0.369221
0.361194
0.352597
0.343384
0.333533
0.323062
0.312022
0.3005
0.28861
0.276488
0.264275
0.252103
0.240106
0.228402
0.217086
0.206235
0.195904
0.186128
0.176923
0.16829
0.160216
0.152679
0.145649
0.139096
0.132989
0.127297
0.121995
0.117062
0.112484
0.108259
0.104396
0.100936
0.0979725
0.0957166
0.0947108
0.0964451
0.104568
0.12611
0.170376
0.239908
0.319463
0.393602
0.467696
0.547112
0.622632
0.682131
0.719348
0.733056
0.724497
0.695811
0.651157
0.596896
0.539281
0.483799
0.434354
0.392368
0.356707
0.325022
0.295487
0.26755
0.241601
0.218272
0.198006
0.180893
0.516108
0.574145
0.713986
0.798808
0.840304
0.845191
0.817145
0.760112
0.680791
0.588585
0.493277
0.402851
0.322907
0.257145
0.207653
0.174671
0.156446
0.149791
0.151184
0.157012
0.164504
0.172682
0.180856
0.188686
0.196414
0.205353
0.218951
0.243464
0.286915
0.35604
0.451245
0.564196
0.679075
0.781218
0.865671
0.930242
0.97418
0.996748
0.996211
0.969522
0.912841
0.823242
0.701726
0.557049
0.409022
0.284571
0.200908
0.155279
0.135297
0.131182
0.13654
0.145818
0.159195
0.183155
0.226034
0.290582
0.375491
0.47787
0.5599
0.555166
0.47494
0.407975
0.384356
0.389594
0.412295
0.444725
0.481643
0.519729
0.557129
0.592911
0.626595
0.657878
0.686605
0.712861
0.737019
0.75966
0.781364
0.802501
0.823096
0.842816
0.861046
0.877019
0.88993
0.899013
0.903664
0.904017
0.900251
0.892282
0.880072
0.863573
0.842781
0.81771
0.788209
0.755607
0.720176
0.682467
0.643769
0.605515
0.569149
0.535835
0.50621
0.480479
0.458605
0.440428
0.42566
0.413863
0.404474
0.396899
0.390595
0.385124
0.380166
0.375497
0.370958
0.366424
0.361782
0.356917
0.351712
0.346046
0.33981
0.332911
0.325284
0.316903
0.307779
0.297969
0.287566
0.276692
0.265493
0.25413
0.242756
0.231513
0.220522
0.209883
0.199674
0.18995
0.180744
0.172074
0.163937
0.156323
0.149211
0.142577
0.136395
0.130637
0.125279
0.120303
0.115694
0.111449
0.10758
0.104124
0.101169
0.098907
0.0978095
0.0991543
0.106102
0.124857
0.163963
0.227013
0.301977
0.372996
0.441078
0.511546
0.579182
0.634075
0.669608
0.683551
0.676396
0.649815
0.607549
0.555551
0.500184
0.447413
0.401511
0.363722
0.332327
0.30446
0.278073
0.252642
0.228673
0.206916
0.187894
0.171763
0.54647
0.551653
0.679145
0.763937
0.805715
0.81016
0.78033
0.720633
0.638925
0.545912
0.451861
0.364808
0.289253
0.228317
0.18383
0.155802
0.142392
0.139969
0.145237
0.154556
0.16526
0.176161
0.186206
0.194658
0.201237
0.206098
0.211139
0.221775
0.246803
0.296125
0.375614
0.48135
0.600012
0.716344
0.819807
0.905194
0.970361
1.01401
1.03431
1.02819
0.991241
0.918755
0.808413
0.664462
0.502794
0.352432
0.241941
0.178552
0.14915
0.139372
0.1411
0.148364
0.161609
0.186316
0.228242
0.288672
0.367837
0.458349
0.51872
0.502466
0.435186
0.385114
0.371934
0.383984
0.410753
0.445205
0.482869
0.521105
0.558554
0.594514
0.628435
0.659931
0.68884
0.715284
0.739704
0.762704
0.7848
0.806214
0.826774
0.845954
0.86299
0.877032
0.887243
0.892889
0.893552
0.889821
0.881937
0.869825
0.85373
0.833804
0.810125
0.782896
0.752451
0.719355
0.684073
0.647237
0.60981
0.572988
0.537971
0.505659
0.476541
0.450835
0.428665
0.410096
0.395039
0.383176
0.373993
0.366894
0.361313
0.356783
0.352959
0.349596
0.346522
0.343598
0.340697
0.337685
0.334423
0.330768
0.326585
0.321748
0.316157
0.309742
0.302476
0.294373
0.285491
0.275917
0.265817
0.255354
0.244696
0.234
0.223411
0.213051
0.20302
0.193393
0.184224
0.175543
0.167364
0.159686
0.1525
0.145788
0.139529
0.1337
0.128279
0.12325
0.118598
0.114322
0.110432
0.106964
0.104
0.101711
0.100507
0.101458
0.107226
0.123149
0.156908
0.212966
0.282597
0.350185
0.41256
0.47413
0.533049
0.582061
0.614827
0.628341
0.62231
0.59794
0.558697
0.510249
0.459074
0.411323
0.37103
0.338701
0.311896
0.287478
0.263568
0.239968
0.217446
0.19689
0.178875
0.163581
0.54486
0.525686
0.632381
0.723922
0.772222
0.78075
0.75431
0.698105
0.620524
0.532407
0.443747
0.3618
0.290787
0.233336
0.190874
0.163264
0.148737
0.144607
0.149376
0.160039
0.173002
0.186248
0.19828
0.208028
0.215008
0.218862
0.220183
0.222868
0.234773
0.266315
0.326807
0.418225
0.531735
0.652367
0.766905
0.867351
0.949812
1.01217
1.05236
1.0674
1.05286
1.00321
0.913587
0.783361
0.621637
0.452757
0.311839
0.221821
0.17655
0.158625
0.155202
0.159641
0.171728
0.195377
0.23414
0.289451
0.361793
0.438533
0.480509
0.459278
0.404877
0.368166
0.36253
0.378824
0.40774
0.442996
0.480767
0.518907
0.556322
0.592354
0.626451
0.658158
0.687259
0.713887
0.738493
0.761647
0.783772
0.804951
0.824866
0.842867
0.858105
0.869692
0.876805
0.878838
0.875615
0.868003
0.856322
0.840731
0.821471
0.798767
0.772822
0.74394
0.712531
0.679078
0.644099
0.608234
0.572328
0.537364
0.504244
0.47357
0.445655
0.420722
0.399043
0.380861
0.366214
0.354838
0.346233
0.339797
0.334961
0.331266
0.328376
0.326061
0.324158
0.322528
0.321034
0.319528
0.317856
0.315859
0.313389
0.310305
0.306488
0.30184
0.296296
0.289825
0.282418
0.274169
0.265226
0.25574
0.24588
0.235815
0.225706
0.215696
0.205906
0.19643
0.187341
0.178686
0.170493
0.162775
0.15553
0.148751
0.14242
0.136522
0.131036
0.125949
0.121247
0.11693
0.113008
0.109515
0.106525
0.104192
0.102864
0.103422
0.108046
0.121205
0.149643
0.198391
0.261988
0.325982
0.383479
0.436925
0.486839
0.528837
0.55757
0.569665
0.564146
0.54187
0.506245
0.462746
0.417795
0.377185
0.344004
0.317646
0.295077
0.273318
0.251059
0.228644
0.207148
0.18755
0.170411
0.155882
0.483744
0.502699
0.572179
0.662399
0.726977
0.750653
0.736294
0.691213
0.624414
0.546205
0.466076
0.390975
0.32509
0.270767
0.229059
0.199817
0.18186
0.173608
0.17472
0.182766
0.194484
0.207263
0.219032
0.228347
0.234489
0.236751
0.23512
0.232738
0.236634
0.256491
0.302065
0.378251
0.480523
0.596576
0.713112
0.82068
0.913997
0.990119
1.04668
1.08076
1.08824
1.06362
1.00086
0.895896
0.750924
0.580612
0.416266
0.293277
0.223283
0.191816
0.180795
0.180742
0.189677