/*--------------------------------*- C++ -*----------------------------------*\
  =========                 |
  \\      /  F ield         | OpenFOAM: The Open Source CFD Toolbox
   \\    /   O peration     | Website:  https://openfoam.org
    \\  /    A nd           | Version:  9
     \\/     M anipulation  |
\*---------------------------------------------------------------------------*/
FoamFile
{
    format      ascii;
    class       volScalarField;
    location    "0.038";
    object      nut;
}
// * * * * * * * * * * * * * * * * * * * * * * * * * * * * * * * * * * * * * //

dimensions      [0 2 -1 0 0 0 0];

internalField   nonuniform List<scalar> 
12225
(
4.18059e-10
0
0
0
0
0
0
0
0
0
0
0
0
0
0
0
2.44232e-09
1.30845e-07
4.6468e-10
0
0
0
0
0
0
0
0
0
0
0
0
0
0
0
3.61245e-09
6.84478e-08
4.55797e-10
0
0
0
0
0
0
0
0
0
0
0
0
0
0
0
2.81409e-09
2.56149e-08
0
1.77064e-08
9.72658e-09
4.5293e-09
7.87663e-10
0
0
0
0
0
0
0
5.27978e-10
2.3193e-10
0
6.40773e-11
1.00917e-09
1.19883e-08
0
0
1.06186e-06
4.93334e-07
0
3.95034e-07
2.49796e-07
1.23485e-08
8.49395e-09
1.76072e-07
2.9244e-07
2.41907e-07
1.50305e-07
7.47331e-08
2.56381e-08
1.6012e-09
0
0
0
0
4.16719e-07
3.42901e-07
1.93558e-07
9.12809e-07
8.12246e-07
2.20366e-07
0
2.42907e-08
6.14135e-07
1.02513e-06
4.36034e-07
2.22025e-07
1.25578e-07
7.03122e-08
3.21749e-08
1.33876e-08
0
0
0
3.81388e-07
4.12356e-07
1.3491e-06
1.66007e-06
1.16654e-06
4.12711e-07
7.44913e-08
2.90314e-07
2.36127e-07
1.2377e-07
1.04967e-07
1.05459e-07
9.6246e-08
6.45027e-08
2.85628e-08
2.24288e-07
0
0
1.48528e-07
5.42305e-07
1.54075e-06
1.83181e-06
1.51627e-06
9.36753e-07
4.33571e-07
1.60575e-07
0
0
0
0
3.64456e-08
4.48921e-08
2.12045e-08
4.79254e-07
0
0
1.67693e-07
7.87052e-07
1.52157e-06
2.05224e-06
1.77423e-06
9.39916e-07
4.04523e-07
1.49401e-07
0
0
0
0
0
0
0
3.65244e-07
0
0
7.87624e-07
1.86826e-06
1.31835e-06
6.93108e-07
5.64718e-07
5.07904e-07
3.68713e-07
1.84168e-07
8.83916e-08
1.14111e-07
1.16869e-07
1.42351e-08
0
0
0
0
0
0
1.03311e-06
4.55727e-07
0
4.31591e-09
1.99021e-07
3.51915e-07
3.35732e-07
1.86091e-07
1.34109e-07
1.33673e-07
8.20961e-08
5.98971e-10
0
0
0
0
8.12011e-08
2.08536e-07
4.46049e-07
0
0
0
1.07602e-07
2.5589e-07
2.32881e-07
1.51935e-07
1.17206e-07
7.87363e-08
2.91484e-08
0
0
0
0
0
4.26783e-07
2.97576e-07
1.59622e-08
1.07244e-08
0
0
0
2.63176e-07
2.29698e-07
2.0263e-07
1.36165e-07
5.66306e-08
0
0
0
0
0
0
0
0
0
0
0
0
0
1.8419e-06
1.27266e-06
4.8027e-07
1.35874e-07
3.65356e-09
0
0
0
0
0
3.22239e-07
0
0
0
0
0
0
1.72915e-07
2.33888e-06
1.82843e-06
6.85095e-08
0
0
4.84754e-08
1.10508e-07
1.1431e-07
9.26463e-08
7.55682e-08
1.42029e-07
0
0
0
0
3.66209e-07
9.59022e-08
0
3.06404e-07
5.97046e-07
0
0
0
1.74657e-08
9.98101e-08
1.04754e-07
5.78497e-08
0
4.04817e-08
0
0
0
0
3.86599e-07
1.13337e-07
0
1.04102e-07
4.72093e-08
0
3.49427e-08
1.51071e-07
2.32571e-07
2.38511e-07
1.70818e-07
6.12186e-08
0
3.76228e-07
0
0
0
1.41161e-07
4.95446e-07
4.86132e-07
3.04552e-07
1.89919e-07
1.29475e-07
1.84256e-07
3.74313e-07
6.24691e-07
7.29186e-07
6.01119e-07
4.34083e-07
3.37576e-07
2.99028e-07
2.68591e-06
0
0
0
1.29143e-09
3.23909e-07
4.67657e-07
1.77707e-07
0
8.30266e-08
3.3225e-07
8.13602e-07
1.23159e-06
1.06279e-06
6.92105e-07
4.75994e-07
3.90458e-07
3.62578e-07
2.16206e-06
1.49092e-06
0
2.31327e-08
5.95077e-09
0
0
0
0
0
3.48811e-08
4.15532e-07
9.02549e-07
8.61985e-07
3.5101e-07
1.16972e-08
0
0
0
0
0
0
0
0
0
0
0
0
0
2.03142e-07
3.71616e-07
3.2731e-07
1.82857e-07
6.39544e-08
0
0
0
0
0
0
0
0
0
0
0
0
0
0
0
0
0
0
7.44925e-08
1.33637e-07
0
0
0
0
0
0
0
0
0
0
0
0
0
0
0
0
0
4.25935e-07
0
0
0
0
0
0
0
0
0
0
0
0
0
0
0
8.22585e-08
4.64977e-07
8.99253e-07
0
0
0
0
0
0
0
8.73892e-08
0
0
0
0
0
0
0
3.08403e-07
6.29945e-07
8.07598e-07
2.9248e-07
0
2.539e-07
5.11956e-07
0
0
1.41406e-07
0
0
0
9.9556e-08
0
0
0
0
5.56416e-08
3.95261e-07
5.38252e-07
0
0
0
0
0
0
6.78105e-10
7.2994e-10
0
0
0
0
0
0
2.39536e-09
6.23957e-09
7.13129e-09
5.4047e-09
5.05466e-10
0
0
0
0
0
0
0
0
0
0
0
0
0
0
0
0
0
7.62966e-10
0
0
0
0
0
0
0
0
0
0
0
0
0
0
0
0
0
3.13827e-09
0
0
0
0
0
0
0
0
0
0
0
0
0
0
0
0
0
0
4.43447e-06
9.80418e-08
0
0
0
0
0
0
1.07361e-06
1.15474e-06
7.563e-07
2.5366e-07
0
0
0
0
0
0
0
6.52016e-08
1.44402e-07
1.01441e-07
0
0
0
1.74471e-07
5.59365e-07
0
1.33685e-06
1.55884e-05
2.82029e-05
2.57939e-05
1.5364e-05
5.07361e-06
0
0
0
0
2.85852e-06
5.05565e-06
1.26837e-05
0
0
0
0
6.98612e-06
3.4962e-05
1.64672e-05
3.62736e-06
5.87636e-07
3.79681e-08
8.03679e-08
2.27368e-07
3.39952e-07
4.01694e-07
4.18856e-07
4.03159e-07
3.71734e-07
3.27176e-07
2.79634e-07
2.34687e-07
1.82058e-07
1.38652e-07
1.00849e-07
6.52151e-08
3.66646e-08
1.1129e-08
0
0
0
0
0
0
0
0
0
0
0
0
0
0
0
0
0
0
0
0
0
0
0
0
0
0
0
0
0
0
0
0
0
0
0
0
0
0
0
0
0
0
0
0
0
0
0
0
0
0
0
0
0
0
0
0
0
0
0
0
0
0
0
0
0
1.30226e-09
2.68117e-09
2.96817e-09
2.35676e-09
1.21424e-09
0
0
0
0
0
0
0
0
0
0
0
0
0
0
0
0
0
0
0
0
0
0
0
0
0
0
0
0
0
0
0
0
0
0
0
0
0
0
0
0
0
0
1.7908e-07
5.14621e-06
1.8687e-06
9.38646e-07
6.81268e-07
5.31226e-07
7.08836e-07
1.29984e-06
2.00763e-06
2.41913e-06
2.23737e-06
1.57428e-06
7.67776e-07
1.08243e-07
0
0
0
0
0
5.13169e-08
2.57472e-07
3.90902e-07
4.06082e-07
2.07323e-07
0
0
8.44334e-07
4.23069e-07
0
0
1.86697e-06
9.734e-06
2.27856e-05
2.88127e-05
2.29479e-05
0
0
0
2.92241e-06
9.14187e-06
6.56182e-06
0
0
0
0
0
0
5.91677e-07
4.6097e-06
2.50593e-06
7.07009e-07
1.79424e-07
1.45004e-07
2.30546e-07
2.88168e-07
3.19418e-07
3.14212e-07
2.97135e-07
2.73781e-07
2.47276e-07
2.21326e-07
1.96607e-07
1.70166e-07
1.43861e-07
1.15556e-07
8.48721e-08
5.1773e-08
1.60641e-08
0
0
0
0
0
0
0
0
0
0
0
0
0
0
0
0
0
0
0
0
0
0
0
0
0
0
0
0
0
0
0
0
0
0
0
0
0
0
0
0
0
0
0
0
0
0
0
0
0
0
0
0
0
0
0
0
0
0
0
0
0
0
0
0
0
6.68783e-10
3.30774e-09
4.2264e-09
3.75758e-09
2.30905e-09
3.2495e-10
0
0
0
0
0
0
0
0
0
0
0
0
0
0
0
0
0
0
0
0
0
0
0
0
0
0
0
0
0
0
0
0
0
0
0
0
0
0
0
0
0
8.90616e-06
4.04788e-06
4.54989e-06
6.29833e-06
7.16203e-06
7.36209e-06
6.83121e-06
5.84488e-06
4.65482e-06
3.18456e-06
1.56968e-06
0
0
0
0
0
0
0
7.53095e-07
3.27383e-06
5.37475e-06
6.65432e-06
6.7065e-06
5.35454e-06
3.31896e-06
1.46173e-06
9.04098e-07
1.96422e-08
0
0
0
0
5.794e-06
1.45329e-05
2.31147e-05
2.65643e-05
0
0
0
0
0
0
0
0
0
0
0
5.66827e-07
2.53805e-06
1.43685e-06
6.09572e-07
4.87284e-07
5.6384e-07
7.22577e-07
8.58445e-07
9.30703e-07
9.2701e-07
8.87188e-07
8.3389e-07
7.67577e-07
6.97213e-07
6.22299e-07
5.41237e-07
4.56579e-07
3.67914e-07
2.71051e-07
1.65264e-07
4.82713e-08
0
0
0
0
0
0
0
0
0
0
0
0
0
0
0
0
0
0
0
0
0
0
0
0
0
0
0
0
0
0
0
0
0
0
0
0
0
0
0
0
0
0
0
0
0
0
0
0
0
0
0
0
0
0
0
0
1.8183e-09
1.62385e-09
0
0
0
0
0
0
0
0
0
0
0
2.8702e-10
2.11576e-09
2.85033e-09
2.65402e-09
1.81996e-09
7.2975e-10
0
0
0
0
0
0
0
0
0
0
0
0
0
0
0
0
0
0
0
0
0
0
0
0
0
0
0
0
0
0
0
0
0
0
0
2.01714e-10
0
3.39996e-06
2.91297e-06
3.0864e-06
3.85353e-06
4.05679e-06
3.88121e-06
2.963e-06
1.1998e-06
0
0
0
0
0
0
0
0
0
0
4.29842e-06
6.82658e-06
7.47843e-06
7.20033e-06
6.57217e-06
5.49083e-06
2.66097e-06
0
0
0
0
0
0
1.16206e-06
7.82614e-06
1.38808e-05
1.23693e-05
7.75936e-06
0
0
0
0
0
0
0
0
0
1.69476e-06
7.68796e-07
1.06825e-06
2.21339e-06
1.52739e-06
1.70886e-06
2.1264e-06
2.50255e-06
2.32554e-06
1.76327e-06
1.13982e-06
7.0283e-07
4.44492e-07
3.10617e-07
2.59791e-07
2.82617e-07
3.76859e-07
5.41687e-07
7.64861e-07
1.0069e-06
1.14013e-06
8.91803e-07
4.67602e-08
0
0
0
0
0
0
0
0
0
0
0
0
0
0
0
0
0
0
0
0
0
0
0
0
0
0
0
0
0
0
0
0
0
0
0
0
0
0
0
0
0
0
0
0
0
0
0
0
0
0
0
0
0
0
0
0
0
0
2.88057e-07
3.00749e-07
0
0
0
0
0
0
0
0
0
0
0
0
0
3.56404e-08
6.15966e-08
6.7781e-08
6.49317e-08
5.71492e-08
4.3688e-08
2.55969e-08
8.24609e-09
0
0
0
0
0
0
0
0
0
0
0
0
0
9.52014e-11
2.54654e-10
3.02522e-10
2.68752e-10
1.49167e-10
3.52989e-12
0
0
0
0
0
0
0
0
3.66498e-10
0
9.54839e-10
0
2.15267e-06
3.95068e-06
3.24209e-06
2.73323e-06
2.57237e-06
4.1121e-08
0
0
0
0
0
0
0
0
0
0
0
1.17957e-05
1.60124e-05
1.46917e-05
1.30098e-05
1.23245e-05
1.2278e-05
1.07088e-05
1.64398e-06
0
0
0
0
0
6.36259e-06
9.11866e-06
8.61733e-06
5.33043e-06
1.81509e-06
0
0
0
0
0
0
0
9.10137e-07
8.69206e-07
4.17549e-07
1.68922e-06
1.13178e-06
1.93697e-06
2.65072e-06
2.81034e-06
2.79801e-06
2.49483e-06
1.97397e-06
1.31556e-06
7.59651e-07
3.80225e-07
1.60229e-07
3.80018e-08
0
0
4.82591e-08
1.87005e-07
4.20528e-07
7.60925e-07
1.20265e-06
1.65185e-06
1.66419e-06
2.02626e-07
0
0
0
0
0
0
0
0
0
0
0
0
0
0
0
0
0
0
0
0
0
0
0
0
0
0
0
0
0
0
0
0
0
0
0
0
0
0
0
0
0
0
0
0
0
0
0
0
0
0
0
0
0
0
0
0
0
3.8426e-06
4.58967e-06
2.61742e-06
1.40956e-06
0
0
0
0
0
0
2.46356e-07
3.48332e-07
3.72008e-07
3.54588e-07
2.98664e-07
2.09879e-07
1.22925e-07
6.52909e-08
4.64226e-08
5.3286e-08
6.10294e-08
4.89712e-08
1.11783e-08
0
0
1.84609e-08
0
0
0
0
0
0
0
0
0
0
0
0
0
0
0
1.10012e-09
1.63787e-09
1.94746e-09
1.70169e-09
1.6351e-09
4.78756e-10
6.28509e-10
0
1.25105e-10
0
4.71763e-10
0
5.47659e-10
0
4.11792e-07
8.76973e-07
1.77635e-06
3.07176e-06
0
0
0
0
0
0
0
0
0
0
0
0
5.02675e-06
1.81632e-05
1.99221e-05
1.50298e-05
1.00453e-05
6.88355e-06
5.53936e-06
5.67426e-06
6.0227e-06
2.35453e-06
0
0
0
0
1.32637e-06
5.1575e-06
3.80803e-06
1.13922e-06
0
0
0
0
0
0
0
0
4.99662e-07
1.12072e-06
1.45583e-06
1.79294e-06
1.42898e-06
1.4291e-06
1.53625e-06
1.88658e-06
2.15892e-06
2.19757e-06
1.82713e-06
1.22004e-06
6.88731e-07
3.33431e-07
1.0997e-07
0
0
0
0
1.17446e-07
3.99021e-07
8.34548e-07
1.47143e-06
2.36707e-06
3.43041e-06
3.08117e-06
0
0
0
8.54421e-08
4.93492e-07
6.5604e-07
7.03349e-07
6.87853e-07
6.39989e-07
5.77306e-07
4.91337e-07
4.14095e-07
3.34885e-07
2.5131e-07
1.74318e-07
9.35977e-08
1.08074e-08
0
0
0
0
0
0
0
0
0
0
0
0
0
0
0
0
0
0
0
0
0
0
0
0
0
0
0
0
0
0
0
0
0
0
0
0
0
0
0
5.7367e-07
2.62099e-06
4.53559e-06
2.34148e-06
1.74031e-06
1.26422e-06
6.66632e-07
5.0255e-07
4.70192e-07
4.6105e-07
5.52607e-07
2.0493e-06
2.73465e-06
2.56302e-06
2.37381e-06
2.14192e-06
1.74777e-06
1.24504e-06
8.41926e-07
6.35715e-07
5.58202e-07
5.17044e-07
4.55287e-07
3.48602e-07
2.02785e-07
5.1224e-08
0
0
0
0
0
0
0
1.03779e-07
1.31331e-07
1.32152e-07
1.26547e-07
1.15568e-07
9.87821e-08
7.32991e-08
4.20609e-08
3.39882e-09
0
0
0
0
0
0
0
0
0
0
0
0
0
0
5.18313e-08
1.85034e-07
7.10824e-07
1.28911e-06
0
0
0
0
0
0
0
0
0
0
0
0
0
4.07124e-05
4.13626e-05
2.80787e-05
1.68485e-05
9.61595e-06
5.49372e-06
3.55062e-06
3.0868e-06
3.34101e-06
2.26107e-06
0
0
0
0
1.44606e-06
1.28066e-06
0
0
0
0
0
0
0
0
0
0
7.66595e-07
1.40199e-06
1.37194e-06
1.12543e-06
1.08966e-06
1.19917e-06
1.52027e-06
1.7944e-06
1.80776e-06
1.41156e-06
8.7514e-07
4.53909e-07
1.69762e-07
0
0
0
0
0
3.65596e-08
5.0155e-07
1.3491e-06
2.7333e-06
4.77467e-06
7.56741e-06
8.20107e-06
0
0
0
0
0
0
1.2766e-07
2.28016e-07
2.60128e-07
2.58008e-07
2.34782e-07
2.03901e-07
1.56408e-07
9.34593e-08
2.50862e-08
0
0
0
0
0
1.3751e-08
5.01078e-08
2.16108e-08
0
0
0
0
0
0
0
0
0
0
0
0
0
0
0
0
0
0
0
0
0
0
0
0
0
0
0
0
0
0
0
0
4.51784e-08
5.86866e-07
1.5431e-06
2.8543e-06
1.9361e-06
1.30555e-06
1.52543e-06
8.99773e-07
5.88112e-07
5.57668e-07
6.18268e-07
6.73103e-07
5.92791e-07
9.82778e-07
1.70762e-06
2.08184e-06
2.3069e-06
2.52356e-06
2.75701e-06
2.99029e-06
2.86624e-06
2.30892e-06
1.82048e-06
1.49202e-06
1.20457e-06
8.80455e-07
4.7213e-07
0
0
0
0
1.28136e-07
2.95367e-07
3.07791e-07
3.13108e-07
4.27258e-07
3.05811e-07
1.96923e-07
1.32245e-07
9.20411e-08
6.1472e-08
2.95072e-08
0
0
0
0
0
0
0
0
0
0
0
0
0
0
0
0
1.96682e-08
2.82615e-07
1.70471e-06
0
0
0
0
0
0
0
0
0
0
0
0
3.50648e-05
0.000114308
8.96368e-05
5.46609e-05
3.02297e-05
1.56683e-05
7.9047e-06
3.97855e-06
2.2421e-06
1.88678e-06
2.3121e-06
2.34022e-06
1.06178e-07
0
0
5.55545e-07
4.73057e-07
0
0
0
0
0
0
0
0
0
0
1.10199e-06
1.2052e-06
9.5225e-07
7.64457e-07
7.50297e-07
8.482e-07
1.07906e-06
1.27594e-06
1.26542e-06
9.32404e-07
4.99682e-07
1.73368e-07
0
0
0
0
0
0
4.26326e-07
1.32796e-06
2.76171e-06
4.82356e-06
7.25039e-06
9.10835e-06
7.00146e-06
0
0
0
0
0
0
2.63837e-07
3.23801e-07
2.92705e-07
2.4061e-07
1.98009e-07
1.62037e-07
1.21929e-07
6.64928e-08
0
0
0
0
0
0
0
0
0
0
0
0
0
0
0
0
0
0
0
0
0
0
0
0
0
0
0
0
0
0
0
0
0
0
0
0
0
0
0
0
0
0
0
9.69968e-09
1.42368e-06
1.97265e-06
1.69772e-06
2.65125e-06
1.69043e-06
5.97187e-07
4.85109e-07
6.02793e-07
7.69575e-07
8.57194e-07
6.39645e-07
7.63509e-07
1.2114e-06
1.5405e-06
1.75489e-06
1.87362e-06
1.86301e-06
1.76116e-06
1.69717e-06
1.76337e-06
1.75926e-06
1.50565e-06
1.12466e-06
7.95593e-07
5.58736e-07
0
0
0
2.838e-07
5.02021e-07
5.15283e-07
4.23574e-07
3.9114e-07
4.15002e-07
2.04637e-07
1.09661e-07
6.58841e-08
3.49753e-08
2.36163e-09
0
0
0
0
0
0
0
0
0
0
0
0
0
0
0
0
1.11843e-08
1.32636e-07
0
0
0
0
0
0
0
0
0
0
0
0
0.000159079
0.000209944
0.000168815
0.000110559
6.49709e-05
3.56804e-05
1.7818e-05
7.88031e-06
3.33781e-06
1.41594e-06
7.31655e-07
8.0253e-07
1.43338e-06
2.47676e-06
3.14721e-06
3.27593e-06
2.79112e-06
4.33224e-07
0
0
0
0
0
0
0
0
0
1.07628e-06
1.20475e-06
4.80885e-07
2.03914e-07
1.46164e-07
1.64375e-07
2.24994e-07
3.57508e-07
5.30711e-07
6.14343e-07
4.48241e-07
1.44309e-07
0
0
0
0
0
0
2.57888e-07
9.28576e-07
2.07805e-06
3.68086e-06
5.52409e-06
7.08547e-06
7.37713e-06
5.38237e-06
4.44733e-07
0
0
0
0
4.09895e-07
8.31287e-07
8.51534e-07
7.1343e-07
5.3195e-07
3.90998e-07
3.00679e-07
2.4557e-07
1.97786e-07
1.41317e-07
6.53183e-08
0
0
0
0
0
0
0
0
0
0
0
0
0
0
0
0
0
0
0
0
0
0
0
0
0
0
0
0
0
0
0
0
0
0
0
0
0
0
0
0
0
0
0
0
2.10666e-06
2.29975e-06
1.93259e-06
0
0
1.42063e-07
5.32815e-07
8.53057e-07
1.03975e-06
1.14833e-06
1.55673e-06
2.17457e-06
2.90218e-06
3.44751e-06
3.56644e-06
3.17752e-06
2.09135e-06
1.10345e-06
7.08779e-07
5.21809e-07
3.06955e-07
1.25299e-07
6.47412e-08
3.24308e-07
1.75137e-07
0
0
2.26702e-07
4.09278e-07
4.11852e-07
3.29117e-07
3.07383e-07
2.35481e-07
8.08612e-08
3.54313e-08
3.59149e-09
0
0
0
0
0
0
0
0
0
0
0
0
0
0
0
0
0
0
0
1.93541e-09
2.495e-06
1.00197e-05
1.65815e-05
1.62328e-05
1.75127e-05
2.31916e-05
3.45786e-05
5.26757e-05
7.66898e-05
0.000103083
0.000128125
0.000149913
0.00016191
0.000149062
0.000103475
5.37256e-05
2.4214e-05
1.00509e-05
3.86402e-06
1.35676e-06
4.23914e-07
1.29771e-07
2.14857e-07
7.80519e-07
2.99681e-06
9.97329e-06
1.51963e-05
8.39476e-06
1.08859e-06
0
0
0
0
0
0
0
0
0
0
0
0
0
0
0
0
0
0
3.70931e-08
3.89465e-08
0
0
0
0
3.15942e-08
9.71587e-08
1.54895e-07
3.78436e-07
1.00718e-06
2.10369e-06
3.42763e-06
4.64336e-06
5.32094e-06
5.01049e-06
3.53775e-06
1.12511e-06
0
0
0
0
0
2.24059e-07
8.28751e-07
8.76095e-07
7.06383e-07
5.04734e-07
3.71266e-07
3.08809e-07
2.71112e-07
2.24869e-07
1.61514e-07
7.5627e-08
0
0
0
0
0
0
0
0
0
0
0
0
0
0
0
0
0
0
0
0
0
0
0
0
0
0
0
0
0
0
0
0
0
0
0
0
0
5.16211e-08
0
0
0
0
0
0
0
0
0
0
0
0
0
4.22103e-07
7.51424e-07
1.55497e-06
3.42623e-06
3.7352e-06
2.61958e-06
2.01515e-06
1.87799e-06
1.96647e-06
2.11037e-06
1.27354e-06
3.9075e-07
1.42767e-08
0
0
1.18619e-07
8.25636e-07
0
0
0
6.50306e-08
1.85393e-07
1.66496e-07
1.04186e-07
5.28113e-08
1.03079e-08
3.36568e-09
0
0
0
0
0
0
0
0
0
0
0
0
0
0
0
0
0
0
0
0
1.31826e-06
4.33939e-06
6.52817e-06
7.55809e-06
8.34801e-06
1.03407e-05
1.4578e-05
2.18106e-05
3.2141e-05
4.49899e-05
5.89703e-05
7.33964e-05
8.8847e-05
0.000103301
0.000104082
5.90989e-05
1.93464e-06
0
0
0
0
0
0
2.47052e-07
6.03805e-07
2.92667e-06
1.16258e-05
1.66424e-05
1.57888e-05
5.74915e-06
2.01089e-06
0
0
0
0
0
0
0
0
0
0
0
0
0
0
0
0
0
0
0
0
0
0
0
2.07269e-07
3.1821e-07
2.26941e-07
1.23438e-07
4.02437e-07
1.18385e-06
2.13305e-06
2.89148e-06
3.31361e-06
3.24353e-06
2.55881e-06
1.36243e-06
0
0
0
0
0
0
0
6.25754e-07
7.06495e-07
4.962e-07
3.14819e-07
2.59192e-07
2.80783e-07
2.86918e-07
2.34979e-07
1.04723e-07
0
0
0
0
0
0
0
0
0
0
0
0
0
0
0
0
0
0
0
0
0
0
0
0
0
0
0
0
0
0
0
0
0
0
0
0
0
0
4.40814e-08
0
0
0
0
0
0
0
0
0
0
0
0
0
0
0
4.36295e-08
1.11043e-06
5.37007e-07
6.77221e-07
8.45394e-07
9.10115e-07
9.461e-07
1.03403e-06
6.84124e-07
0
0
0
3.27809e-07
2.87302e-07
0
0
0
0
9.8833e-08
9.12594e-08
3.21982e-08
0
0
0
0
0
0
0
0
0
0
0
0
0
0
0
0
0
0
0
0
0
0
0
0
1.42579e-06
1.99249e-06
2.27872e-06
2.62155e-06
3.44311e-06
5.11352e-06
8.08012e-06
1.30717e-05
2.04327e-05
3.01791e-05
4.21124e-05
5.76179e-05
7.98156e-05
0.000106482
3.55458e-05
0
0
0
0
0
0
0
0
0
0
2.94631e-06
0
0
6.05874e-06
4.26133e-06
2.68186e-06
1.33537e-06
4.13505e-07
0
0
0
0
0
0
0
0
0
0
0
0
0
0
0
0
0
0
0
0
2.75938e-07
4.4451e-07
2.12116e-07
0
0
0
3.98847e-07
1.10304e-06
1.57924e-06
1.81698e-06
1.72151e-06
1.19599e-06
1.8839e-07
0
0
0
0
0
0
0
2.55226e-07
2.83271e-07
6.65186e-08
0
0
0
7.35475e-08
1.07199e-07
0
0
0
0
0
0
0
0
0
0
0
0
0
0
0
0
0
0
0
0
0
0
0
0
0
0
0
0
0
0
6.06249e-09
6.21827e-09
0
0
0
0
0
1.07493e-08
6.06326e-08
6.04117e-10
0
0
0
0
0
0
0
6.26837e-08
7.22227e-08
0
0
0
0
0
0
0
0
6.0578e-07
8.25883e-07
8.40101e-07
7.57779e-07
6.00912e-07
2.08451e-07
0
0
1.40972e-07
4.92719e-07
0
0
0
0
3.20262e-08
1.03199e-07
6.84965e-08
0
0
0
0
0
0
0
0
0
0
0
0
0
0
0
0
0
0
0
0
0
0
0
0
0
0
1.28647e-08
0
0
7.91377e-08
7.19465e-07
1.86763e-06
3.72264e-06
6.61179e-06
1.09784e-05
1.7357e-05
2.62138e-05
4.04174e-05
6.48488e-05
0
0
0
0
0
0
0
0
0
0
0
0
0
8.80739e-06
8.53716e-06
6.55264e-06
5.10413e-06
4.37718e-06
5.19466e-06
2.27376e-06
3.98297e-07
0
0
0
0
0
0
0
0
0
0
0
0
0
0
0
0
0
0
2.49081e-07
5.04176e-07
3.45589e-07
0
0
0
0
0
0
0
3.12109e-07
3.57882e-07
0
0
0
0
0
0
0
0
0
1.19884e-08
0
0
0
0
0
0
0
0
0
0
0
0
0
0
0
0
0
0
0
0
0
0
0
0
0
0
0
0
0
0
0
0
0
0
0
0
4.45533e-08
7.73922e-08
6.04492e-08
4.41035e-08
3.48653e-08
2.76442e-08
2.23877e-08
3.05892e-08
4.79324e-08
4.14352e-08
1.9357e-10
0
0
8.1261e-09
0
0
5.81777e-08
1.82207e-07
2.46439e-07
2.50404e-07
1.27499e-07
0
0
0
0
0
0
9.57968e-07
1.12848e-06
1.05792e-06
8.95817e-07
6.63465e-07
2.97489e-07
0
0
6.41715e-09
0
0
0
0
0
4.31667e-08
1.24762e-07
7.85924e-08
0
0
0
0
0
0
0
0
0
0
0
0
0
0
0
0
0
0
0
0
0
0
0
0
0
0
0
0
0
0
0
0
1.89678e-07
1.39533e-06
3.19032e-06
5.79497e-06
9.67631e-06
1.60467e-05
2.60469e-05
0
0
0
0
0
0
0
0
0
0
0
0
1.48936e-05
1.55373e-05
1.19277e-05
1.00538e-05
1.01674e-05
9.64058e-06
3.73936e-06
1.37012e-06
4.71923e-07
0
0
0
0
0
0
0
0
0
0
0
0
0
0
0
0
0
0
2.35774e-07
5.66973e-07
7.25152e-07
2.58594e-07
0
0
0
0
0
0
0
0
0
0
0
0
0
0
0
0
0
0
0
0
0
0
0
0
0
0
1.20798e-06
3.31725e-07
4.13318e-08
0
0
0
0
0
0
0
0
0
0
0
0
0
0
0
0
0
0
0
0
0
0
1.40511e-08
1.9967e-08
4.63433e-08
9.15614e-08
1.30708e-07
1.2705e-07
9.61835e-08
7.44908e-08
6.4668e-08
5.42114e-08
4.06406e-08
3.99984e-08
4.68393e-08
5.04159e-08
5.19415e-08
6.9993e-08
1.56121e-07
3.07635e-07
3.63195e-07
4.32588e-07
4.55069e-07
4.14361e-07
3.69679e-07
3.39817e-07
2.65767e-07
1.05782e-08
0
0
0
1.4041e-07
1.48895e-06
1.54203e-06
1.32019e-06
1.02333e-06
6.89721e-07
3.57393e-07
1.24018e-07
4.89837e-08
0
0
0
0
0
0
1.1356e-08
1.07926e-07
8.53274e-08
0
0
0
0
0
8.92247e-09
1.88001e-07
0
0
0
0
0
0
0
6.34911e-09
0
0
0
0
0
0
0
0
0
0
0
0
0
0
0
0
0
0
0
8.90961e-07
2.14297e-06
3.81808e-06
5.62166e-06
5.43387e-06
2.64911e-07
0
0
0
0
0
0
0
0
0
0
0
1.5652e-05
1.56037e-05
1.29148e-05
1.10384e-05
7.75236e-06
4.07055e-06
2.12881e-06
1.14045e-06
5.82454e-07
2.42761e-07
2.57547e-08
0
0
0
0
0
0
0
0
0
0
0
0
6.5631e-08
9.72829e-08
9.64677e-08
1.38045e-07
3.09299e-07
6.48846e-07
1.00924e-06
1.09323e-06
4.00504e-07
0
0
0
0
0
0
0
5.47272e-08
5.74381e-07
7.29077e-07
7.64562e-07
6.43408e-07
2.29911e-07
0
0
0
0
2.75395e-07
5.58891e-08
0
0
0
0
0
8.11461e-08
2.6622e-07
2.34077e-07
0
0
0
3.4962e-08
1.62738e-08
0
0
0
0
0
0
0
0
0
0
0
0
0
0
0
0
0
0
0
1.34862e-07
1.96424e-07
2.13414e-07
1.98086e-07
1.83598e-07
1.5908e-07
1.22883e-07
9.84008e-08
8.4185e-08
6.59892e-08
5.79363e-08
7.83484e-08
1.1551e-07
1.69662e-07
2.50317e-07
3.72191e-07
5.03648e-07
6.47789e-07
1.00435e-06
1.0703e-06
8.36811e-07
5.7164e-07
4.31568e-07
3.51838e-07
1.78985e-07
0
3.89122e-08
6.85523e-07
8.96018e-07
7.6499e-07
3.38015e-07
8.2779e-07
8.49743e-07
5.36952e-07
2.87748e-07
1.45652e-07
6.51062e-08
0
0
0
0
0
0
0
3.61895e-08
1.72281e-08
0
0
0
0
0
9.43254e-08
2.24563e-07
2.1204e-07
1.6513e-07
0
0
0
0
0
1.99332e-08
2.22874e-08
0
0
0
0
0
0
0
0
0
0
0
0
0
0
0
0
0
0
1.38678e-07
7.96691e-07
1.37739e-06
1.53115e-06
8.5126e-07
0
0
0
0
0
0
0
0
0
0
0
0
0
4.38943e-06
6.10306e-06
5.533e-06
4.03956e-06
2.66322e-06
1.72394e-06
1.12111e-06
7.41041e-07
4.96897e-07
3.2607e-07
2.21954e-07
1.52209e-07
1.01298e-07
6.03542e-08
1.16933e-08
0
0
0
0
0
0
0
4.2115e-08
1.3138e-07
1.95197e-07
2.59296e-07
3.8935e-07
6.56264e-07
1.0469e-06
1.37178e-06
1.33213e-06
5.15846e-07
0
0
0
0
0
0
1.04975e-08
1.60279e-06
2.22804e-06
2.26405e-06
1.85796e-06
1.13521e-06
4.9613e-07
1.17771e-07
0
0
4.46656e-07
5.34832e-07
1.18808e-07
0
0
0
0
0
0
0
0
0
0
8.52509e-08
1.0865e-07
2.1058e-08
0
0
0
0
0
0
0
0
0
0
0
0
0
0
0
0
0
0
0
2.51851e-07
3.53e-07
3.54452e-07
2.77539e-07
2.2123e-07
1.88983e-07
1.59773e-07
1.38219e-07
1.24609e-07
1.30743e-07
1.99265e-07
3.20854e-07
4.64391e-07
6.03146e-07
6.50996e-07
5.72192e-07
4.97395e-07
5.60006e-07
8.24444e-07
1.19039e-06
1.08074e-06
6.20937e-07
3.94813e-07
2.19397e-07
1.51526e-07
2.97325e-07
6.86191e-07
8.35802e-07
4.28883e-07
6.36213e-08
1.85781e-07
4.8136e-07
3.81846e-07
2.17745e-07
1.21056e-07
4.45941e-08
0
0
5.3546e-08
0
0
0
0
0
0
0
0
0
0
0
1.48462e-07
1.67976e-07
3.87331e-08
1.03211e-08
1.71723e-08
2.38906e-08
0
0
0
3.59628e-08
4.83065e-08
9.41501e-09
0
0
0
0
0
0
0
0
0
0
0
0
0
0
0
0
0
0
0
1.37038e-07
3.62408e-07
2.39276e-07
0
0
0
0
0
0
0
0
0
0
0
8.97696e-07
3.25189e-06
4.16186e-06
4.09616e-06
3.44738e-06
2.64415e-06
1.93435e-06
1.39755e-06
1.03128e-06
7.99769e-07
6.41109e-07
5.06511e-07
3.97129e-07
3.08717e-07
2.40064e-07
1.82286e-07
1.27628e-07
7.83353e-08
3.18659e-08
0
0
0
0
0
0
6.59971e-08
1.57161e-07
2.45146e-07
3.51468e-07
5.05412e-07
7.87115e-07
1.09076e-06
1.3026e-06
1.24395e-06
5.9217e-07
0
0
0
0
0
0
2.06753e-06
2.84451e-06
2.65148e-06
2.02796e-06
1.17316e-06
5.05755e-07
3.2029e-07
1.80524e-07
5.74209e-10
2.44248e-07
6.29866e-07
4.68593e-07
0
0
0
0
0
0
0
0
0
0
0
0
0
0
0
0
0
0
0
0
0
0
0
0
0
0
0
0
0
0
0
0
8.48612e-08
3.60731e-07
4.83839e-07
4.62159e-07
3.25146e-07
2.4311e-07
2.25226e-07
2.28718e-07
2.33715e-07
2.5937e-07
4.19388e-07
6.824e-07
8.14219e-07
7.63941e-07
6.29314e-07
5.2176e-07
4.65916e-07
4.68542e-07
5.60825e-07
7.37922e-07
9.95274e-07
1.15872e-06
7.45623e-07
4.47179e-07
3.607e-07
3.7013e-07
4.34506e-07
4.42421e-07
1.20956e-07
2.51996e-08
1.19765e-07
3.07228e-07
2.92006e-07
1.68908e-07
9.55892e-08
2.03875e-08
0
1.25308e-07
2.38831e-07
2.03736e-07
1.19457e-07
0
0
0
0
0
0
0
0
0
3.35849e-08
1.81488e-07
1.03731e-08
0
0
0
0
0
0
5.81198e-08
7.62908e-08
3.62751e-08
0
0
0
0
0
0
0
0
0
0
0
0
0
0
0
0
0
0
0
0
1.27324e-07
2.57851e-07
0
0
0
0
0
0
0
0
5.26185e-07
1.57278e-06
2.35613e-06
2.86101e-06
3.04473e-06
3.01992e-06
2.67993e-06
2.27554e-06
1.80558e-06
1.39284e-06
1.08103e-06
8.73024e-07
7.2601e-07
5.96482e-07
4.78382e-07
3.85722e-07
3.19638e-07
2.68265e-07
2.19531e-07
1.71539e-07
1.26955e-07
8.65532e-08
4.87575e-08
1.29774e-08
0
0
0
0
0
4.61986e-08
1.33721e-07
2.27516e-07
3.30859e-07
4.56837e-07
6.40795e-07
8.17035e-07
9.82774e-07
9.38452e-07
6.6624e-07
0
0
0
0
0
1.26133e-06
1.59687e-06
1.19481e-06
8.35408e-07
3.97835e-07
0
2.44675e-08
2.08782e-07
4.52333e-08
0
2.23268e-07
4.76542e-07
1.03915e-07
0
0
0
0
0
0
0
0
0
0
0
0
0
0
0
0
0
0
0
0
0
0
0
0
0
0
0
0
0
0
0
0
1.92703e-07
4.6796e-07
5.83309e-07
5.22009e-07
3.48377e-07
2.77752e-07
3.13374e-07
3.74987e-07
4.07976e-07
4.39969e-07
5.40906e-07
5.401e-07
4.10645e-07
3.25819e-07
3.68766e-07
4.27358e-07
4.40393e-07
4.84071e-07
6.26318e-07
9.20286e-07
1.19655e-06
1.35779e-06
1.0331e-06
5.55182e-07
4.24131e-07
3.94831e-07
3.35497e-07
4.14022e-08
0
1.38627e-07
2.70346e-07
2.41714e-07
1.50911e-07
1.02334e-07
4.67097e-08
0
1.23606e-07
2.69266e-07
2.99039e-07
3.11999e-07
2.75888e-07
0
0
0
0
0
0
0
0
0
6.36575e-08
6.24129e-08
0
0
0
0
0
0
8.38736e-08
1.13113e-07
6.4064e-08
0
0
0
0
0
0
0
0
0
0
0
0
0
0
0
0
0
7.46402e-07
1.77396e-06
3.02008e-06
4.44157e-06
5.25592e-06
1.19032e-06
0
0
0
0
8.8996e-09
9.92263e-07
1.44408e-06
1.61843e-06
1.73087e-06
1.82003e-06
1.87496e-06
1.91692e-06
1.84208e-06
1.7183e-06
1.49405e-06
1.2263e-06
9.87154e-07
8.03383e-07
6.39283e-07
5.01872e-07
3.94575e-07
3.16831e-07
2.66831e-07
2.37916e-07
2.1491e-07
1.88987e-07
1.59801e-07
1.28899e-07
9.86991e-08
6.93513e-08
4.15093e-08
1.49346e-08
0
0
0
0
0
5.72064e-10
6.92854e-08
1.51831e-07
2.32273e-07
3.22924e-07
4.06092e-07
5.09666e-07
5.9644e-07
6.47748e-07
6.96744e-07
6.86301e-07
6.88325e-07
8.84963e-07
7.90879e-07
0
0
0
0
0
0
0
9.36779e-09
8.41846e-08
0
0
1.4325e-08
1.08585e-07
0
0
0
0
0
0
0
0
0
0
0
0
0
0
0
0
0
0
0
0
0
0
0
0
0
0
0
3.92924e-09
9.26041e-09
4.97918e-09
0
0
5.46311e-08
3.12057e-07
5.66624e-07
6.39629e-07
5.32242e-07
3.67211e-07
3.54475e-07
4.45106e-07
5.12566e-07
5.17706e-07
4.83783e-07
4.09396e-07
2.79628e-07
1.62966e-07
1.80797e-07
3.35432e-07
4.25592e-07
4.31611e-07
4.67722e-07
6.64076e-07
1.21453e-06
1.29499e-06
9.64718e-07
5.7936e-07
4.43269e-07
3.92202e-07
3.37413e-07
1.41459e-07
0
0
1.78677e-07
1.33027e-07
1.00739e-07
9.26181e-08
7.68907e-08
0
1.21204e-08
2.11545e-07
2.88255e-07
3.38612e-07
3.10072e-07
0
0
0
0
0
0
0
0
0
0
0
0
0
0
0
0
0
8.30777e-08
1.68946e-07
1.0454e-07
0
0
0
0
0
0
0
0
0
0
0
0
0
2.88658e-08
3.7088e-07
6.9139e-07
9.87604e-07
1.27642e-06
1.58382e-06
1.92654e-06
2.16834e-06
1.74174e-06
0
0
0
0
0
0
8.20805e-08
0
0
0
1.92368e-07
5.13963e-07
8.00346e-07
9.98644e-07
1.05796e-06
1.00464e-06
8.7199e-07
7.14946e-07
5.34093e-07
3.48273e-07
2.2554e-07
1.68179e-07
1.42105e-07
1.29614e-07
1.26558e-07
1.24922e-07
1.2015e-07
1.11675e-07
9.94481e-08
8.44414e-08
6.74242e-08
4.97325e-08
3.18714e-08
1.3833e-08
0
0
0
0
0
0
9.09528e-09
7.0474e-08
1.44613e-07
2.19292e-07
3.00922e-07
4.05994e-07
5.31883e-07
7.51854e-07
1.11015e-06
1.74864e-06
3.00665e-06
5.26389e-06
0
0
0
0
0
0
0
0
0
0
0
0
0
0
0
0
0
0
0
0
0
0
0
1.67415e-07
3.97701e-07
3.93765e-07
2.74851e-07
1.4526e-07
5.81091e-08
1.62817e-09
0
0
0
0
0
0
0
0
0
0
7.71542e-09
5.31757e-08
1.01506e-07
1.05967e-07
7.11944e-08
6.02843e-08
1.82055e-07
4.6181e-07
6.55774e-07
6.67103e-07
5.09286e-07
3.97039e-07
4.52064e-07
5.44133e-07
5.90828e-07
5.69356e-07
4.75738e-07
3.55512e-07
2.32764e-07
1.51456e-07
2.15866e-07
3.56995e-07
3.88751e-07
3.67727e-07
3.81502e-07
5.4457e-07
1.02768e-06
6.59197e-07
3.75764e-07
3.68686e-07
3.60277e-07
3.31028e-07
2.16437e-07
0
0
4.01499e-08
4.13101e-08
4.60314e-08
6.08192e-08
6.63974e-08
0
0
7.64437e-08
2.11843e-07
2.84556e-07
1.77516e-07
0
9.34783e-08
1.96678e-07
5.77014e-08
0
0
0
0
0
0
0
0
2.90395e-07
1.61243e-07
0
0
0
0
1.45977e-07
1.59836e-07
0
0
0
0
0
0
0
0
0
0
0
0
2.89922e-08
4.77217e-08
5.84831e-08
8.21591e-08
1.29124e-07
2.02537e-07
2.83002e-07
3.03537e-07
1.45117e-07
0
0
0
0
4.85161e-08
2.16307e-07
2.20191e-07
7.00073e-09
0
0
0
0
0
0
0
3.60955e-07
6.26888e-07
6.9971e-07
6.07422e-07
3.86732e-07
1.38445e-07
0
0
0
0
2.50792e-08
4.37132e-08
5.29265e-08
5.70464e-08
5.80345e-08
5.62647e-08
5.17522e-08
4.50944e-08
3.71718e-08
2.84124e-08
1.85958e-08
7.32276e-09
0
0
0
0
0
0
4.88281e-08
1.30231e-07
2.38478e-07
3.97348e-07
6.07491e-07
9.47394e-07
1.46571e-06
2.34415e-06
3.89862e-06
6.40575e-06
1.81938e-06
0
0
0
0
0
0
0
0
2.21662e-08
0
0
0
0
0
0
0
0
0
0
0
0
2.83218e-07
8.90092e-07
1.13816e-06
1.05825e-06
7.71995e-07
4.05324e-07
1.73659e-07
4.92615e-08
0
0
0
0
0
0
0
0
0
0
8.8204e-09
5.26289e-08
1.31224e-07
1.81018e-07
1.71207e-07
1.46595e-07
1.83872e-07
3.69844e-07
6.21103e-07
7.27229e-07
6.48649e-07
4.75586e-07
4.53838e-07
5.49607e-07
6.32795e-07
6.51057e-07
5.75134e-07
4.83165e-07
3.98588e-07
2.98763e-07
2.14028e-07
2.23866e-07
2.82886e-07
2.98983e-07
2.89766e-07
2.01443e-07
1.16104e-07
2.66168e-07
1.9547e-07
2.43396e-07
2.91398e-07
2.92915e-07
2.32299e-07
5.54331e-08
0
0
8.38774e-09
2.78129e-08
4.54596e-08
5.29026e-08
0
0
0
7.09918e-08
1.76581e-07
0
0
3.0201e-07
5.75302e-07
2.95484e-07
5.57932e-08
0
0
0
0
0
0
0
1.87852e-08
1.54327e-07
1.01135e-07
6.14052e-08
5.71351e-08
0
0
0
0
0
0
0
0
0
0
0
0
0
0
1.06562e-08
0
0
1.33173e-08
5.95424e-08
9.95216e-08
1.13153e-07
7.40074e-08
0
0
0
0
0
0
8.09172e-08
2.3789e-07
3.70807e-07
3.86249e-07
1.74099e-07
0
0
0
0
0
0
0
0
0
0
0
0
0
0
0
0
0
0
0
1.3719e-08
2.2143e-08
2.78484e-08
3.18484e-08
3.40384e-08
3.46491e-08
3.41784e-08
3.30198e-08
3.11291e-08
2.80546e-08
2.36235e-08
1.79858e-08
1.29143e-08
1.31134e-08
2.4786e-08
5.71844e-08
1.24347e-07
2.32743e-07
4.09887e-07
6.84394e-07
1.10123e-06
1.73903e-06
2.77963e-06
4.63122e-06
8.01366e-06
5.38603e-06
0
0
0
0
0
0
0
0
0
7.82027e-08
0
0
0
0
0
0
0
0
0
1.04801e-06
1.18883e-06
1.45072e-06
1.81625e-06
1.94877e-06
1.73548e-06
1.30726e-06
7.15333e-07
3.18846e-07
1.01618e-07
4.28527e-09
0
0
0
0
0
0
0
3.65989e-10
2.22838e-08
4.03344e-08
6.83803e-08
1.36107e-07
2.20646e-07
2.54613e-07
2.59868e-07
2.79122e-07
3.72863e-07
5.9002e-07
7.54997e-07
7.54477e-07
5.78122e-07
4.76104e-07
5.44778e-07
6.52517e-07
7.00467e-07
6.55108e-07
5.91436e-07
5.45108e-07
4.8209e-07
3.53399e-07
1.80426e-07
1.53708e-07
2.14592e-07
2.51367e-07
1.8433e-07
0
0
7.36314e-08
1.38075e-07
2.08936e-07
2.3757e-07
2.11077e-07
1.11194e-07
1.62034e-08
8.9654e-10
7.47406e-09
2.64844e-08
4.07925e-08
4.37454e-08
0
0
0
0
0
0
0
5.91681e-07
1.03287e-06
6.87731e-07
2.7755e-07
4.9474e-09
0
0
0
0
0
0
0
0
0
1.4375e-07
2.02321e-07
0
0
0
0
0
0
0
0
0
0
0
0
0
0
0
0
0
0
0
0
0
0
0
0
0
0
0
0
0
0
0
6.75111e-08
2.69565e-07
7.81094e-08
0
0
0
0
0
0
0
0
0
0
0
0
0
0
0
0
0
0
0
0
5.41331e-09
1.39195e-08
2.1737e-08
2.90034e-08
3.55403e-08
4.14859e-08
4.74114e-08
5.36835e-08
6.05639e-08
6.81554e-08
7.68782e-08
8.97624e-08
1.09761e-07
1.43341e-07
2.07403e-07
3.10495e-07
4.71206e-07
7.36991e-07
1.16112e-06
1.79804e-06
2.77034e-06
4.42724e-06
7.31813e-06
2.4351e-06
0
0
0
0
0
0
0
0
0
1.91434e-07
6.93717e-09
0
0
0
0
0
0
0
0
6.01989e-07
2.03863e-06
2.41608e-06
2.66718e-06
2.60157e-06
2.23445e-06
1.71412e-06
9.75925e-07
4.55965e-07
1.62885e-07
2.90562e-08
0
0
0
0
0
0
0
0
2.89144e-08
7.27602e-08
1.07736e-07
1.57146e-07
2.47017e-07
3.24007e-07
3.67875e-07
3.99917e-07
4.57733e-07
6.04522e-07
7.80501e-07
8.35661e-07
6.9627e-07
5.28014e-07
5.41077e-07
6.55075e-07
7.21444e-07
6.97502e-07
6.5295e-07
6.16511e-07
5.47022e-07
4.27417e-07
2.44963e-07
1.1724e-07
1.57338e-07
2.30464e-07
2.04953e-07
1.13406e-08
0
1.51294e-09
7.28809e-08
1.33514e-07
1.80535e-07
1.83598e-07
1.29336e-07
5.19496e-08
1.41534e-08
7.93913e-09
2.13828e-08
3.27822e-08
3.20741e-08
0
0
0
0
0
0
0
9.42037e-07
1.42126e-06
1.35311e-06
6.92537e-07
1.20238e-07
7.49582e-08
1.15349e-07
6.35935e-08
0
0
1.20371e-07
0
0
0
2.61224e-07
3.13525e-07
7.85486e-08
0
0
0
0
0
0
0
0
0
0
0
0
0
0
0
0
0
0
0
0
0
0
0
0
0
0
0
0
0
0
0
2.00323e-07
3.17109e-07