/*--------------------------------*- C++ -*----------------------------------*\
  =========                 |
  \\      /  F ield         | OpenFOAM: The Open Source CFD Toolbox
   \\    /   O peration     | Website:  https://openfoam.org
    \\  /    A nd           | Version:  9
     \\/     M anipulation  |
\*---------------------------------------------------------------------------*/
FoamFile
{
    format      ascii;
    class       volScalarField;
    location    "0.038";
    object      p;
}
// * * * * * * * * * * * * * * * * * * * * * * * * * * * * * * * * * * * * * //

dimensions      [0 2 -2 0 0 0 0];

internalField   nonuniform List<scalar> 
12225
(
1011.02
1002.41
993.826
985.261
976.793
968.514
960.432
952.652
945.283
938.344
931.798
925.583
919.635
913.861
908.174
902.425
896.306
888.894
1010.72
1002.43
993.859
985.268
976.778
968.492
960.415
952.645
945.278
938.329
931.762
925.518
919.535
913.722
907.987
902.206
896.088
889.053
1011.62
1002.54
993.91
985.285
976.773
968.478
960.404
952.642
945.276
938.31
931.709
925.418
919.374
913.493
907.687
901.829
895.703
889.025
1011.03
1002.55
994.01
985.341
976.789
968.47
960.388
952.625
945.25
938.261
931.623
925.286
919.19
913.256
907.392
901.491
895.409
889.065
1011.06
1002.62
994.117
985.406
976.81
968.464
960.368
952.601
945.219
938.21
931.54
925.161
919.015
913.028
907.116
901.198
895.196
889.125
1010.45
1002.7
994.291
985.531
976.86
968.466
960.347
952.569
945.173
938.141
931.438
925.02
918.83
912.801
906.866
900.966
895.062
889.203
1008.22
1002.85
994.523
985.669
976.918
968.469
960.318
952.524
945.112
938.059
931.33
924.881
918.655
912.598
906.654
900.787
894.98
889.279
1008.28
1003.34
994.888
985.875
977.002
968.469
960.277
952.467
945.041
937.967
931.211
924.733
918.479
912.402
906.461
900.634
894.915
889.334
1011.93
1004.43
995.381
986.111
977.092
968.462
960.22
952.388
944.942
937.849
931.079
924.588
918.321
912.238
906.31
900.522
894.873
889.383
1017.02
1005.72
995.999
986.396
977.192
968.45
960.151
952.289
944.826
937.722
930.942
924.439
918.165
912.088
906.187
900.45
894.874
889.464
1019.4
1007.07
996.665
986.712
977.299
968.424
960.056
952.156
944.671
937.561
930.784
924.29
918.031
911.978
906.115
900.431
894.921
889.581
1019.82
1008.41
997.297
986.981
977.339
968.338
959.92
952.003
944.512
937.4
930.623
924.136
917.899
911.882
906.065
900.434
894.981
889.699
1022.41
1009.51
997.919
987.239
977.359
968.227
959.75
951.803
944.305
937.199
930.436
923.969
917.76
911.78
906.01
900.435
895.046
889.829
1019.68
1010.67
998.628
987.377
977.2
967.959
959.449
951.502
944.025
936.944
930.204
923.763
917.589
911.653
905.937
900.425
895.104
889.965
1030.64
1013.41
999.205
987.292
976.856
967.535
958.994
951.05
943.604
936.567
929.875
923.491
917.384
911.523
905.887
900.459
895.23
890.189
1036.95
1014.41
998.832
986.511
975.976
966.683
958.227
950.385
943.039
936.093
929.482
923.181
917.163
911.394
905.848
900.515
895.384
890.447
1034.31
1012.3
996.765
984.378
974.118
965.145
956.936
949.289
942.125
935.343
928.876
922.708
916.819
911.18
905.767
900.572
895.585
890.802
1020.11
1001.51
989.2
979.458
970.651
962.566
954.966
947.748
940.892
934.362
928.122
922.155
916.44
910.959
905.704
900.667
895.837
891.207
978.055
982.151
978.431
972.561
965.817
958.913
952.133
945.533
939.134
932.961
927.027
921.326
915.843
910.576
905.527
900.689
896.053
891.61
986.604
979.522
974.026
968.356
962.291
956.06
949.842
943.7
937.671
931.797
926.113
920.634
915.351
910.263
905.372
900.68
896.181
891.869
971.876
973.607
970.551
965.621
960.042
954.167
948.239
942.372
936.588
930.918
925.412
920.089
914.946
909.983
905.206
900.619
896.221
892.005
984.421
975.728
969.744
964.329
958.66
952.887
947.16
941.481
935.842
930.302
924.917
919.705
914.663
909.79
905.094
900.582
896.252
892.098
974.234
973.171
968.662
963.427
957.849
952.096
946.416
940.818
935.284
929.85
924.556
919.421
914.446
909.637
905
900.541
896.262
892.156
982.214
974.249
968.221
962.722
957.17
951.529
945.912
940.37
934.898
929.528
924.294
919.216
914.299
909.543
904.95
900.523
896.267
892.184
978.3
973.665
968.054
962.438
956.812
951.157
945.541
940.052
934.632
929.314
924.123
919.077
914.187
909.458
904.895
900.5
896.275
892.217
977.592
973.203
967.777
962.136
956.555
950.959
945.389
939.868
934.466
929.172
924.004
918.981
914.113
909.406
904.861
900.483
896.27
892.225
981.436
973.616
967.638
961.955
956.369
950.79
945.217
939.721
934.348
929.083
923.938
918.93
914.073
909.375
904.843
900.477
896.276
892.237
980.387
973.451
967.519
961.878
956.315
950.738
945.151
939.651
934.281
929.028
923.897
918.901
914.051
909.359
904.832
900.471
896.273
892.233
977.416
973.187
967.438
961.79
956.244
950.676
945.091
939.599
934.242
929.002
923.881
918.893
914.047
909.356
904.832
900.475
896.279
892.24
978.754
973.189
967.399
961.795
956.252
950.666
945.068
939.571
934.22
928.989
923.877
918.892
914.048
909.358
904.835
900.48
896.285
892.244
793.774
793.511
793.255
793.051
792.932
792.874
792.822
792.584
792.075
791.228
790.041
788.548
786.826
784.988
783.155
781.439
779.94
778.741
777.912
777.492
777.487
777.868
778.583
779.506
780.483
781.217
781.473
780.762
779.171
777.432
775.506
773.225
770.484
767.528
765.383
764.596
765.19
766.774
767.989
767.028
764.369
761.948
760.161
758.525
756.338
754.325
752.305
751.195
751.722
750.963
748.286
744.007
738.341
731.774
724.718
717.498
710.295
703.207
696.277
689.525
682.971
676.644
670.595
664.89
659.612
654.847
650.67
647.138
644.291
642.186
640.774
640
639.791
640.047
640.673
641.569
642.649
643.834
645.065
646.294
647.49
648.633
649.714
650.732
651.689
652.588
653.433
654.224
654.956
655.619
656.196
656.668
657.012
657.207
657.232
657.07
656.709
656.144
655.371
654.39
653.202
651.807
650.204
648.389
646.356
644.101
641.619
638.909
635.978
632.833
629.489
625.964
622.278
618.456
614.522
610.504
606.427
602.312
598.17
594.009
589.831
585.642
581.449
577.261
573.081
568.916
564.761
560.603
556.429
552.234
548.016
543.78
539.528
535.264
530.987
526.694
522.385
518.06
513.715
509.35
504.961
500.546
496.103
491.629
487.123
482.581
478.003
473.386
468.731
464.043
459.323
454.573
449.794
444.983
440.138
435.258
430.341
425.386
420.395
415.368
410.306
405.209
400.076
394.907
389.701
384.459
379.179
373.862
368.509
363.12
357.696
352.24
346.754
341.242
335.708
330.161
324.611
319.073
313.579
308.155
793.264
793.075
792.969
792.929
792.862
792.695
792.361
791.773
790.883
789.691
788.224
786.537
784.714
782.856
781.065
779.432
778.021
776.878
776.026
775.475
775.287
775.482
776.025
776.818
777.731
778.541
779.029
778.936
778.171
777.388
775.669
771.887
768.213
764.341
761.602
760.566
760.841
762.239
764.204
764.487
762.648
760.503
759.007
757.935
757.677
756.355
751.379
748.502
748.31
746.914
743.977
739.608
734.084
727.839
721.23
714.493
707.748
701.048
694.414
687.865
681.431
675.163
669.133
663.429
658.15
653.395
649.261
645.823
643.118
641.106
639.785
639.104
638.98
639.325
640.035
641.01
642.158
643.401
644.677
645.94
647.16
648.317
649.406
650.427
651.384
652.283
653.13
653.926
654.667
655.343
655.937
656.429
656.794
657.007
657.048
656.897
656.542
655.978
655.203
654.217
653.023
651.622
650.016
648.2
646.171
643.922
641.449
638.751
635.832
632.701
629.372
625.861
622.188
618.378
614.455
610.445
606.375
602.266
598.132
593.978
589.805
585.617
581.423
577.235
573.059
568.898
564.742
560.58
556.402
552.211
547.998
543.767
539.521
535.26
530.985
526.694
522.386
518.059
513.713
509.347
504.956
500.54
496.095
491.62
487.113
482.571
477.993
473.377
468.725
464.038
459.319
454.571
449.792
444.983
440.139
435.259
430.342
425.388
420.397
415.37
410.308
405.21
400.077
394.908
389.702
384.459
379.178
373.86
368.506
363.117
357.692
352.235
346.747
341.232
335.696
330.143
324.587
319.033
313.521
308.03
794.5
794.522
794.347
793.991
793.406
792.522
791.325
789.865
788.197
786.353
784.377
782.335
780.303
778.352
776.539
774.915
773.522
772.397
771.572
771.061
770.838
770.872
771.141
771.618
772.246
772.939
773.553
773.933
773.816
773.075
771.466
769.077
766.121
762.73
760.006
759.197
759.659
760.904
762.604
762.516
760.65
759.257
760.204
758.58
756.368
754.914
751.878
748.263
745.045
741.637
737.766
733.231
728.128
722.581
716.75
710.732
704.599
698.382
692.105
685.796
679.503
673.297
667.271
661.535
656.207
651.404
647.236
643.793
641.099
639.157
637.943
637.399
637.434
637.943
638.814
639.936
641.212
642.562
643.921
645.246
646.508
647.692
648.794
649.818
650.775
651.675
652.525
653.331
654.091
654.794
655.423
655.955
656.361
656.614
656.688
656.561
656.22
655.659
654.879
653.882
652.674
651.261
649.646
647.829
645.805
643.567
641.111
638.433
635.537
632.431
629.128
625.644
621.998
618.21
614.306
610.312
606.254
602.156
598.034
593.891
589.728
585.551
581.37
577.186
573.015
568.854
564.702
560.546
556.378
552.183
547.97
543.743
539.501
535.245
530.973
526.683
522.375
518.049
513.703
509.336
504.946
500.53
496.084
491.609
487.101
482.558
477.981
473.367
468.718
464.035
459.321
454.574
449.796
444.986
440.141
435.26
430.343
425.39
420.4
415.374
410.313
405.215
400.082
394.911
389.704
384.46
379.178
373.859
368.503
363.112
357.685
352.225
346.734
341.214
335.671
330.106
324.535
318.954
313.393
307.81
794.126
794.219
793.966
793.19
791.866
790.14
788.219
786.233
784.228
782.221
780.229
778.277
776.393
774.612
772.968
771.491
770.214
769.16
768.349
767.776
767.401
767.197
767.154
767.267
767.52
767.89
768.315
768.727
768.98
768.949
768.479
767.502
766.111
764.672
763.709
763.66
764.322
765.294
765.38
763.906
762.184
759.784
758.599
757.399
755.054
752.286
748.952
745.29
741.341
737.137
732.723
728.04
723.108
717.941
712.587
707.066
701.386
695.536
689.521
683.366
677.13
670.905
664.809
658.98
653.565
648.702
644.499
641.032
638.375
636.536
635.477
635.121
635.366
636.091
637.171
638.485
639.929
641.418
642.887
644.293
645.609
646.824
647.939
648.965
649.916
650.81
651.661
652.477
653.26
654.001
654.681
655.272
655.742
656.057
656.184
656.099
655.783
655.231
654.445
653.431
652.202
650.767
649.135
647.309
645.287
643.063
640.629
637.98
635.115
632.042
628.775
625.329
621.721
617.97
614.098
610.129
606.089
602.002
597.89
593.763
589.617
585.449
581.272
577.106
572.95
568.801
564.654
560.5
556.33
552.137
547.928
543.705
539.468
535.217
530.95
526.665
522.36
518.036
513.692
509.325
504.935
500.518
496.073
491.597
487.088
482.546
477.97
473.358
468.711
464.031
459.318
454.573
449.795
444.985
440.14
435.26
430.344
425.392
420.403
415.378
410.316
405.218
400.084
394.913
389.704
384.459
379.176
373.855
368.498
363.105
357.676
352.213
346.717
341.191
335.639
330.063
324.473
318.863
313.252
307.596
795.139
794.566
793.347
791.582
789.564
787.495
785.444
783.423
781.441
779.498
777.594
775.737
773.951
772.278
770.756
769.413
768.261
767.296
766.504
765.89
765.463
765.202
765.055
764.98
764.975
765.059
765.247
765.555
765.979
766.509
767.108
767.738
768.367
769.098
769.943
770.987
771.939
772.515
771.709
769.038
766.193
763.114
759.892
756.629
753.21
749.602
745.776
741.818
737.632
733.224
728.625
723.876
719.008
714.043
708.983
703.795
698.426
692.823
686.957
680.85
674.577
668.258
662.038
656.076
650.536
645.571
641.3
637.813
635.208
633.472
632.562
632.397
632.867
633.836
635.162
636.709
638.361
640.024
641.631
643.139
644.524
645.78
646.912
647.938
648.882
649.768
650.619
651.447
652.257
653.042
653.782
654.445
654.994
655.386
655.583
655.55
655.266
654.722
653.922
652.88
651.612
650.139
648.477
646.634
644.612
642.404
640.001
637.392
634.573
631.546
628.324
624.923
621.362
617.657
613.827
609.894
605.883
601.817
597.718
593.602
589.47
585.32
581.158
577.002
572.862
568.728
564.591
560.441
556.273
552.082
547.875
543.655
539.423
535.178
530.918
526.64
522.341
518.021
513.679
509.313
504.922
500.504
496.058
491.582
487.074
482.533
477.957
473.347
468.702
464.024
459.313
454.57
449.794
444.984
440.139
435.26
430.344
425.393
420.404
415.379
410.318
405.22
400.085
394.914
389.704
384.458
379.173
373.852
368.493
363.097
357.665
352.198
346.698
341.165
335.604
330.015
324.404
318.766
313.107
307.391
794.952
793.709
791.569
789.366
787.237
785.182
783.174
781.185
779.193
777.187
775.18
773.197
771.28
769.47
767.817
766.372
765.175
764.255
763.618
763.246
763.085
763.073
763.141
763.243
763.349
763.467
763.64
763.933
764.428
765.205
766.33
767.824
769.603
771.546
773.502
775.201
776.411
776.543
775.182
772.288
768.349
764.133
759.829
755.574
751.41
747.273
743.079
738.815
734.411
729.862
725.18
720.421
715.629
710.832
706
701.061
695.909
690.447
684.625
678.47
672.08
665.598
659.182
653.002
647.228
642.035
637.599
634.06
631.424
629.726
628.942
628.99
629.74
631.032
632.691
634.554
636.484
638.377
640.164
641.803
643.275
644.581
645.734
646.761
647.695
648.573
649.426
650.276
651.131
651.984
652.812
653.577
654.232
654.722
654.999
655.022
654.765
654.218
653.386
652.292
650.96
649.423
647.705
645.824
643.785
641.586
639.216
636.66
633.905
630.946
627.786
624.442
620.934
617.282
613.504
609.616
605.642
601.605
597.528
593.429
589.315
585.182
581.035
576.889
572.76
568.64
564.518
560.377
556.211
552.022
547.817
543.601
539.372
535.133
530.879
526.608
522.316
518.002
513.663
509.299
504.908
500.49
496.043
491.566
487.059
482.518
477.944
473.336
468.693
464.018
459.309
454.566
449.791
444.982
440.138
435.259
430.344
425.392
420.405
415.38
410.319
405.221
400.086
394.914
389.704
384.456
379.17
373.846
368.485
363.087
357.652
352.181
346.675
341.136
335.564
329.961
324.33
318.665
312.964
307.197
791.948
790.621
788.843
787.009
785.159
783.274
781.331
779.316
777.228
775.081
772.907
770.755
768.683
766.75
765.016
763.536
762.352
761.491
760.961
760.75
760.81
761.07
761.442
761.839
762.197
762.498
762.769
763.082
763.552
764.316
765.49
767.111
769.191
771.477
773.787
775.518
776.588
776.213
774.537
771.322
767.219
762.776
758.307
753.9
749.547
745.206
740.821
736.363
731.793
727.125
722.385
717.637
712.93
708.283
703.641
698.889
693.874
688.46
682.581
676.27
669.646
662.867
656.104
649.533
643.35
637.773
633.037
629.304
626.614
624.998
624.425
624.79
625.935
627.664
629.763
632.035
634.316
636.495
638.501
640.297
641.872
643.232
644.402
645.417
646.326
647.178
648.021
648.886
649.793
650.735
651.685
652.596
653.403
654.039
654.442
654.562
654.363
653.831
652.964
651.808
650.392
648.761
646.953
644.996
642.906
640.683
638.32
635.803
633.112
630.233
627.159
623.892
620.451
616.859
613.137
609.302
605.373
601.372
597.322
593.243
589.148
585.038
580.91
576.776
572.65
568.54
564.429
560.297
556.138
551.955
547.754
543.541
539.319
535.084
530.835
526.57
522.285
517.976
513.642
509.279
504.889
500.471
496.024
491.548
487.041
482.502
477.93
473.324
468.683
464.01
459.302
454.561
449.787
444.978
440.135
435.257
430.342
425.392
420.405
415.381
410.32
405.222
400.086
394.913
389.702
384.452
379.165
373.84
368.477
363.076
357.638
352.163
346.651
341.104
335.522
329.905
324.254
318.562
312.824
307.016
789.062
788.148
786.907
785.422
783.773
781.995
780.094
778.066
775.919
773.675
771.381
769.095
766.889
764.834
763.003
761.458
760.251
759.404
758.926
758.824
759.058
759.544
760.181
760.859
761.483
761.996
762.403
762.749
763.132
763.719
764.65
766.01
767.8
769.805
771.775
773.157
773.639
773.017
771.16
768.044
764.264
760.191
756.048
751.869
747.64
743.335
738.93
734.412
729.776
725.051
720.288
715.56
710.921
706.383
701.869
697.232
692.276
686.825
680.784
674.196
667.202
659.981
652.718
645.618
638.927
632.922
627.862
623.932
621.222
619.73
619.402
620.115
621.69
623.901
626.497
629.237
631.925
634.428
636.678
638.647
640.331
641.746
642.926
643.918
644.783
645.59
646.4
647.264
648.208
649.233
650.309
651.379
652.369
653.196
653.778
654.046
653.95
653.475
652.625
651.442
649.97
648.259
646.358
644.307
642.132
639.844
637.441
634.914
632.251
629.434
626.444
623.27
619.915
616.397
612.739
608.96
605.08
601.119
597.1
593.045
588.97
584.88
580.777
576.663
572.548
568.438
564.328
560.201
556.051
551.877
547.687
543.483
539.266
535.035
530.79
526.529
522.249
517.945
513.614
509.254
504.866
500.449
496.004
491.529
487.023
482.485
477.915
473.311
468.673
464.001
459.295
454.556
449.782
444.974
440.132
435.254
430.34
425.391
420.404
415.38
410.319
405.221
400.085
394.911
389.699
384.449
379.16
373.833
368.468
363.064
357.622
352.143
346.625
341.07
335.478
329.847
324.176
318.46
312.69
306.846
787.861
787.182
786.203
784.945
783.484
781.837
780
777.974
775.77
773.426
770.999
768.564
766.201
763.992
762.02
760.352
759.046
758.147
757.687
757.652
757.998
758.64
759.464
760.346
761.171
761.854
762.375
762.759
763.083
763.507
764.144
765.135
766.43
767.957
769.251
770.099
770.027
769.23
767.345
764.563
761.243
757.639
753.882
749.988
745.958
741.783
737.455
732.977
728.361
723.648
718.901
714.195
709.591
705.098
700.636
696.036
691.072
685.52
679.252
672.312
664.868
657.131
649.312
641.655
634.456
628.034
622.666
618.549
615.758
614.287
614.097
615.077
617.041
619.743
622.885
626.17
629.341
632.228
634.753
636.905
638.698
640.161
641.337
642.287
643.091
643.837
644.608
645.471
646.461
647.58
648.791
650.024
651.19
652.194
652.943
653.356
653.384
653.002
652.212
651.048
649.561
647.806
645.843
643.721
641.476
639.124
636.666
634.096
631.409
628.603
625.667
622.578
619.319
615.89
612.307
608.593
604.766
600.849
596.863
592.833
588.777
584.706
580.623
576.532
572.435
568.334
564.222
560.094
555.948
551.785
547.609
543.418
539.212
534.987
530.745
526.487
522.21
517.909
513.581
509.223
504.838
500.423
495.98
491.507
487.003
482.467
477.899
473.297
468.661
463.991
459.287
454.548
449.776
444.969
440.127
435.25
430.338
425.389
420.402
415.379
410.318
405.22
400.084
394.909
389.697
384.445
379.155
373.825
368.458
363.051
357.606
352.122
346.598
341.035
335.432
329.787
324.099
318.361
312.563
306.688
788.438
787.917
787.108
786.007
784.665
783.098
781.306
779.288
777.058
774.653
772.138
769.588
767.093
764.746
762.638
760.848
759.443
758.472
757.955
757.889
758.221
758.861
759.704
760.624
761.496
762.225
762.769
763.144
763.419
763.715
764.156
764.825
765.686
766.61
767.278
767.505
767.147
766.205
764.417
761.965
759.033
755.797
752.332
748.659
744.795
740.745
736.514
732.114
727.564
722.905
718.197
713.508
708.9
704.385
699.893
695.258
690.237
684.568
678.079
670.798
662.916
654.68
646.336
638.157
630.472
623.614
617.866
613.438
610.435
608.861
608.689
609.835
612.119
615.281
618.989
622.881
626.62
629.962
632.806
635.155
637.047
638.533
639.672
640.542
641.244
641.895
642.605
643.463
644.517
645.766
647.157
648.603
649.976
651.161
652.053
652.581
652.697
652.381
651.64
650.507
649.033
647.275
645.288
643.128
640.839
638.445
635.95
633.35
630.635
627.809
624.878
621.838
618.662
615.327
611.831
608.191
604.426
600.557
596.609
592.605
588.569
584.515
580.449
576.376
572.295
568.206
564.102
559.98
555.84
551.687
547.523
543.347
539.153
534.938
530.701
526.445
522.17
517.871
513.545
509.19
504.806
500.395
495.955
491.485
486.983
482.449
477.882
473.282
468.648
463.98
459.278
454.541
449.769
444.963
440.122
435.246
430.334
425.386
420.401
415.378
410.317
405.219
400.082
394.907
389.693
384.44
379.148
373.817
368.447
363.038
357.589
352.1
346.57
340.999
335.386
329.728
324.023
318.264
312.441
306.54
790.791
790.361
789.616
788.589
787.324
785.829
784.096
782.119
779.91
777.498
774.941
772.315
769.713
767.236
764.983
763.043
761.488
760.375
759.732
759.547
759.763
760.29
761.023
761.836
762.611
763.253
763.718
764.02
764.224
764.437
764.753
765.202
765.712
766.129
766.286
766.092
765.601
764.582
762.901
760.65
757.95
754.928
751.632
748.087
744.322
740.351
736.189
731.857
727.376
722.779
718.113
713.434
708.791
704.2
699.608
694.873
689.764
684.003
677.37
669.849
661.629
652.987
644.21
635.591
627.469
620.19
614.04
609.242
605.94
604.158
603.878
605.046
607.497
610.975
615.137
619.583
623.899
627.742
630.946
633.5
635.471
636.941
637.99
638.717
639.252
639.743
640.34
641.16
642.274
643.675
645.292
647.021
648.663
650.065
651.12
651.757
651.941
651.665
650.95
649.836
648.376
646.626
644.637
642.462
640.149
637.738
635.235
632.622
629.889
627.047
624.112
621.09
617.966
614.711
611.301
607.739
604.042
600.229
596.325
592.353
588.34
584.303
580.254
576.197
572.132
568.057
563.965
559.855
555.727
551.585
547.433
543.268
539.086
534.882
530.654
526.402
522.128
517.831
513.508
509.155
504.774
500.365
495.928
491.461
486.961
482.429
477.864
473.266
468.634
463.968
459.267
454.532
449.762
444.957
440.117
435.242
430.331
425.383
420.398
415.376
410.315
405.217
400.08
394.904
389.69
384.436
379.142
373.809
368.436
363.024
357.571
352.077
346.542
340.963
335.34
329.669
323.948
318.171
312.326
306.402
794.701
794.302
793.601
792.628
791.418
789.974
788.285
786.347
784.168
781.777
779.224
776.579
773.93
771.375
769.014
766.941
765.245
763.974
763.134
762.709
762.663
762.926
763.396
763.956
764.5
764.952
765.274
765.484
765.643
765.825
766.065
766.335
766.538
766.587
766.458
766.158
765.617
764.553
762.885
760.68
758.051
755.092
751.844
748.334
744.59
740.637
736.496
732.193
727.75
723.194
718.557
713.875
709.181
704.487
699.755
694.879
689.663
683.847
677.186
669.596
661.215
652.328
643.272
634.355
625.904
618.277
611.772
606.623
603.003
600.929
600.435
601.481
603.925
607.514
611.909
616.711
621.476
625.784
629.359
632.118
634.133
635.531
636.42
636.918
637.178
637.394
637.767
638.472
639.611
641.178
643.071
645.192
647.146
648.808
650.054
650.818
651.079
650.846
650.153
649.05
647.597
645.855
643.875
641.704
639.387
636.968
634.467
631.869
629.146
626.295
623.347
620.333
617.247
614.054
610.72
607.233
603.602
599.848
595.994
592.063
588.08
584.066
580.035
575.995
571.947
567.888
563.814
559.719
555.606
551.478
547.337
543.183
539.011
534.818
530.598
526.352
522.082
517.787
513.466
509.118
504.741
500.334
495.899
491.435
486.938
482.409
477.846
473.249
468.619
463.955
459.256
454.523
449.753
444.949
440.111
435.237
430.327
425.38
420.396
415.373
410.313
405.215
400.077
394.901
389.686
384.431
379.136
373.801
368.426
363.01
357.553
352.055
346.513
340.927
335.294
329.612
323.877
318.082
312.218
306.274
799.957
799.563
798.859
797.88
796.666
795.229
793.563
791.659
789.517
787.154
784.611
781.949
779.249
776.606
774.12
771.892
770.008
768.522
767.442
766.754
766.419
766.371
766.523
766.779
767.058
767.301
767.488
767.637
767.778
767.93
768.073
768.165
768.174
768.113
768.014
767.807
767.23
766.057
764.267
761.967
759.269
756.247
752.94
749.375
745.576
741.574
737.395
733.067
728.614
724.06
719.424
714.723
709.975
705.178
700.305
695.279
689.952
684.108
677.518
670.035
661.725
652.832
643.704
634.687
626.033
618.185
611.415
605.968
602.021
599.662
598.903
599.733
602.033
605.55
609.941
614.823
619.776
624.38
628.255
631.198
633.225
634.491
635.139
635.292
635.115
634.849
634.777
635.175
636.219
637.933
640.142
642.892
645.277
647.327
648.844
649.767
650.108
649.915
649.245
648.159
646.719
644.987
643.016
640.851
638.535
636.112
633.613
631.034
628.341
625.514
622.574
619.564
616.5
613.357
610.091
606.674
603.107
599.41
595.606
591.72
587.776
583.793
579.788
575.768
571.739
567.7
563.645
559.569
555.474
551.362
547.234
543.091
538.929
534.744
530.533
526.295
522.029
517.738
513.421
509.077
504.704
500.301
495.869
491.407
486.913
482.387
477.826
473.232
468.604
463.942
459.245
454.513
449.745
444.942
440.104
435.231
430.322
425.376
420.392
415.371
410.311
405.212
400.074
394.898
389.681
384.425
379.129
373.792
368.415
362.996
357.536
352.033
346.485
340.891
335.249
329.556
323.808
317.997
312.117
306.156
806.339
805.912
805.158
804.118
802.836
801.332
799.607
797.657
795.481
793.091
790.52
787.814
785.044
782.295
779.666
777.259
775.161
773.414
772.055
771.077
770.448
770.11
769.987
769.998
770.073
770.169
770.265
770.362
770.465
770.569
770.666
770.768
770.904
771.077
771.208
771.051
770.315
768.894
766.859
764.348
761.466
758.277
754.82
751.12
747.199
743.088
738.816
734.41
729.896
725.296
720.622
715.883
711.078
706.196
701.209
696.055
690.63
684.777
678.312
671.084
663.087
654.46
645.496
636.542
627.934
620.02
613.108
607.453
603.246
600.591
599.524
600.052
602.072
605.343
609.516
614.216
619.059
623.698
627.698
630.772
632.804
633.905
634.239
633.924
633.12
632.111
631.277
631.05
631.771
633.58
636.307
639.582
642.782
645.492
647.477
648.678
649.153
649.005
648.339
647.247
645.804
644.073
642.106
639.948
637.637
635.208
632.689
630.096
627.419
624.635
621.742
618.763
615.726
612.623
609.414
606.061
602.557
598.917
595.164
591.324
587.422
583.479
579.507
575.516
571.511
567.494
563.461
559.407
555.331
551.236
547.123
542.991
538.839
534.663
530.46
526.229
521.97
517.684
513.372
509.033
504.664
500.265
495.836
491.377
486.887
482.363
477.806
473.215
468.589
463.928
459.233
454.502
449.736
444.933
440.097
435.225
430.317
425.372
420.389
415.367
410.308
405.209
400.071
394.894
389.677
384.42
379.123
373.784
368.404
362.983
357.519
352.011
346.457
340.857
335.206
329.503
323.742
317.918
312.023
306.046
813.693
813.221
812.375
811.203
809.757
808.075
806.173
804.052
801.714
799.169
796.441
793.57
790.618
787.667
784.825
782.204
779.843
777.831
776.196
774.951
774.07
773.506
773.193
773.063
773.053
773.115
773.224
773.379
773.591
773.878
774.253
774.728
775.28
775.798
776.028
775.68
774.595
772.797
770.424
767.61
764.454
761.015
757.333
753.434
749.337
745.071
740.662
736.137
731.522
726.835
722.086
717.279
712.407
707.452
702.38
697.142
691.661
685.834
679.534
672.644
665.112
656.994
648.483
639.875
631.507
623.715
616.807
611.044
606.63
603.688
602.278
602.414
604.013
606.854
610.595
614.869
619.348
623.697
627.567
630.649
632.697
633.654
633.643
632.78
631.172
629.147
627.164
625.878
625.927
627.685
631.01
635.277
639.608
643.277
645.935
647.541
648.227
648.166
647.521
646.42
644.959
643.21
641.229
639.062
636.743
634.305
631.77
629.154
626.458
623.685
620.832
617.904
614.909
611.847
608.689
605.398
601.954
598.371
594.673
590.883
587.026
583.125
579.193
575.237
571.262
567.272
563.263
559.233
555.178
551.102
547.004
542.885
538.742
534.574
530.379
526.156
521.905
517.627
513.32
508.986
504.623
500.227
495.802
491.346
486.859
482.339
477.785
473.196
468.573
463.914
459.221
454.491
449.726
444.925
440.089
435.218
430.311
425.367
420.384
415.363
410.304
405.206
400.068
394.89
389.673
384.415
379.116
373.776
368.394
362.97
357.502
351.99
346.431
340.824
335.165
329.452
323.681
317.844
311.935
305.945
822.033
821.524
820.599
819.304
817.682
815.767
813.587
811.161
808.5
805.618
802.54
799.308
795.984
792.659
789.433
786.405
783.716
781.407
779.52
778.072
777.051
776.412
776.092
776.023
776.146
776.417
776.814
777.332
777.975
778.75
779.657
780.64
781.547
782.129
782.119
781.344
779.784
777.546
774.78
771.603
768.111
764.361
760.394
756.239
751.92
747.458
742.879
738.205
733.458
728.653
723.8
718.901
713.948
708.919
703.785
698.501
693.011
687.248
681.135
674.595
667.582
660.105
652.267
644.278
636.418
628.99
622.288
616.567
612.035
608.831
607.063
606.726
607.756
609.964
613.043
616.648
620.501
624.308
627.764
630.617
632.59
633.445
633.137
631.706
629.236
625.988
622.464
619.557
618.432
619.85
623.875
629.584
635.523
640.544
644.12
646.245
647.186
647.235
646.633
645.548
644.094
642.347
640.364
638.193
635.869
633.424
630.881
628.255
625.547
622.765
619.916
617.006
614.04
611.013
607.902
604.671
601.292
597.769
594.127
590.394
586.59
582.736
578.847
574.931
570.992
567.032
563.051
559.045
555.014
550.958
546.878
542.771
538.638
534.479
530.292
526.078
521.836
517.566
513.267
508.938
504.579
500.189
495.766
491.314
486.83
482.313
477.763
473.177
468.556
463.899
459.208
454.48
449.717
444.918
440.083
435.212
430.305
425.362
420.379
415.359
410.3
405.202
400.064
394.887
389.668
384.41
379.11
373.769
368.385
362.958
357.486
351.97
346.406
340.792
335.127
329.405
323.623
317.776
311.855
305.853
830.434
829.957
829.061
827.755
826.06
823.996
821.58
818.832
815.772
812.426
808.862
805.12
801.267
797.39
793.602
790.041
786.841
784.113
781.932
780.335
779.318
778.833
778.806
779.142
779.753
780.568
781.542
782.644
783.855
785.14
786.43
787.595
788.438
788.737
788.316
787.096
785.114
782.491
779.369
775.853
772.023
767.949
763.677
759.244
754.678
750.002
745.239
740.407
735.522
730.594
725.633
720.636
715.598
710.501
705.319
700.017
694.552
688.879
682.948
676.717
670.16
663.282
656.146
648.888
641.711
634.855
628.57
623.089
618.609
615.266
613.13
612.283
612.668
614.13
616.407
619.191
622.258
625.374
628.231
630.6
632.285
633.014
632.557
630.79
627.651
623.253
618.118
613.386
610.693
611.381
615.895
623.159
630.908
637.502
642.131
644.814
645.999
646.141
645.571
644.501
643.065
641.346
639.397
637.256
634.955
632.528
630.003
627.397
624.707
621.931
619.078
616.162
613.193
610.172
607.087
603.904
600.591
597.135
593.554
589.877
586.13
582.331
578.489
574.614
570.712
566.785
562.832
558.85
554.841
550.806
546.745
542.654
538.532
534.382
530.203
525.997
521.764
517.502
513.21
508.889
504.535
500.149
495.731
491.281
486.8
482.287
477.739
473.156
468.537
463.883
459.194
454.468
449.707
444.909
440.075
435.205
430.298
425.355
420.374
415.354
410.296
405.198
400.06
394.882
389.664
384.404
379.104
373.761
368.375
362.945
357.471
351.95
346.381
340.762
335.089
329.36
323.569
317.712
311.781
305.769
837.601
837.182
836.363
835.114
833.428
831.307
828.754
825.772
822.386
818.618
814.476
810.045
805.43
800.762
796.2
791.923
788.113
784.938
782.52
780.922
780.144
780.119
780.721
781.787
783.15
784.673
786.251
787.825
789.36
790.823
792.15
793.228
793.893
793.968
793.321
791.887
789.694
786.852
783.476
779.693
775.577
771.212
766.667
761.987
757.203
752.339
747.415
742.446
737.444
732.416
727.366
722.291
717.186
712.036
706.821
701.515
696.088
690.505
684.735
678.754
672.551
666.14
659.568
652.933
646.381
640.095
634.273
629.11
624.773
621.387
619.035
617.784
617.602
618.374
619.896
621.904
624.209
626.628
628.869
630.682
631.938
632.459
631.963
630.159
626.813
621.889
615.827
609.882
605.981
605.888
610.388
618.349
627.277
635.002
640.418
643.515
644.866
645.057
644.498
643.434
642.004
640.294
638.362
636.247
633.981
631.587
629.091
626.515
623.862
621.122
618.292
615.385
612.417
609.397
606.318
603.161