/*--------------------------------*- C++ -*----------------------------------*\
  =========                 |
  \\      /  F ield         | OpenFOAM: The Open Source CFD Toolbox
   \\    /   O peration     | Website:  https://openfoam.org
    \\  /    A nd           | Version:  9
     \\/     M anipulation  |
\*---------------------------------------------------------------------------*/
FoamFile
{
    format      ascii;
    class       surfaceScalarField;
    location    "0.038";
    object      phi;
}
// * * * * * * * * * * * * * * * * * * * * * * * * * * * * * * * * * * * * * //

dimensions      [0 3 -1 0 0 0 0];

internalField   nonuniform List<scalar> 
24170
(
3.08465e-06
2.21536e-07
2.96391e-06
1.20744e-07
2.87614e-06
8.77661e-08
2.78983e-06
8.63115e-08
2.687e-06
1.02829e-07
2.56367e-06
1.23329e-07
2.43656e-06
1.27113e-07
2.32619e-06
1.10374e-07
2.23933e-06
8.68579e-08
2.16701e-06
7.23187e-08
2.0911e-06
7.59072e-08
1.99301e-06
9.8094e-08
1.85789e-06
1.35124e-07
1.67872e-06
1.79165e-07
1.45664e-06
2.22081e-07
1.1894e-06
2.67244e-07
8.73319e-07
3.16077e-07
3.90095e-07
4.83223e-07
3.42983e-06
9.827e-08
3.44188e-06
1.08693e-07
3.45338e-06
7.62629e-08
3.4618e-06
7.78928e-08
3.45661e-06
1.08017e-07
3.43902e-06
1.40924e-07
3.41149e-06
1.54643e-07
3.3767e-06
1.45161e-07
3.33707e-06
1.26487e-07
3.29366e-06
1.15726e-07
3.24646e-06
1.23111e-07
3.194e-06
1.50551e-07
3.13213e-06
1.97e-07
3.05493e-06
2.56359e-07
2.95375e-06
3.2326e-07
2.81967e-06
4.01332e-07
2.64357e-06
4.92176e-07
6.11818e-07
2.42184e-06
3.69851e-06
1.50472e-07
3.68528e-06
1.21926e-07
3.68495e-06
7.6595e-08
3.68349e-06
7.93464e-08
3.68496e-06
1.06551e-07
3.68919e-06
1.36693e-07
3.68749e-06
1.56342e-07
3.67279e-06
1.5986e-07
3.64461e-06
1.54666e-07
3.60705e-06
1.5329e-07
3.56552e-06
1.64644e-07
3.52378e-06
1.92291e-07
3.48374e-06
2.37034e-07
3.44465e-06
2.95448e-07
3.40387e-06
3.64039e-07
3.35746e-06
4.47745e-07
3.30647e-06
5.43165e-07
6.62505e-07
3.25578e-06
3.98625e-06
1.88713e-08
3.99491e-06
1.13263e-07
3.94964e-06
1.21866e-07
3.91348e-06
1.15508e-07
3.9062e-06
1.13836e-07
3.91905e-06
1.23837e-07
3.93622e-06
1.3918e-07
3.94829e-06
1.47787e-07
3.95134e-06
1.51614e-07
3.94308e-06
1.61549e-07
3.92267e-06
1.8506e-07
3.89115e-06
2.2381e-07
3.85278e-06
2.75403e-07
3.81183e-06
3.36398e-07
3.77166e-06
4.04203e-07
3.73438e-06
4.8503e-07
3.70136e-06
5.76186e-07
6.86475e-07
3.67739e-06
4.2071e-06
-1.65631e-08
4.207e-06
1.13358e-07
4.20473e-06
1.24136e-07
4.21673e-06
1.03508e-07
4.2358e-06
9.4768e-08
4.2443e-06
1.15333e-07
4.2336e-06
1.49886e-07
4.20719e-06
1.74199e-07
4.17405e-06
1.84754e-07
4.14129e-06
1.94308e-07
4.11174e-06
2.14605e-07
4.08492e-06
2.50628e-07
4.06053e-06
2.99792e-07
4.03862e-06
3.58317e-07
4.01967e-06
4.23152e-07
4.00546e-06
4.99238e-07
3.99524e-06
5.86405e-07
6.92501e-07
3.98921e-06
4.51515e-06
1.90612e-08
4.55207e-06
7.64392e-08
4.55559e-06
1.20613e-07
4.54503e-06
1.14067e-07
4.51852e-06
1.21283e-07
4.47842e-06
1.55435e-07
4.4392e-06
1.891e-07
4.41347e-06
1.99931e-07
4.40504e-06
1.93181e-07
4.41044e-06
1.88916e-07
4.42199e-06
2.03055e-07
4.43069e-06
2.41926e-07
4.4292e-06
3.01282e-07
4.41434e-06
3.73176e-07
4.38857e-06
4.48925e-07
4.35887e-06
5.28934e-07
4.33328e-06
6.11993e-07
7.07862e-07
4.31792e-06
4.9286e-06
-4.10961e-08
4.92178e-06
8.32516e-08
4.92157e-06
1.20828e-07
4.88845e-06
1.47183e-07
4.83385e-06
1.75889e-07
4.78529e-06
2.03993e-07
4.75882e-06
2.15563e-07
4.75118e-06
2.07578e-07
4.75091e-06
1.93447e-07
4.75036e-06
1.89471e-07
4.74732e-06
2.0609e-07
4.74134e-06
2.47909e-07
4.73123e-06
3.11389e-07
4.71547e-06
3.88943e-07
4.69429e-06
4.701e-07
4.671e-06
5.52228e-07
4.65066e-06
6.3233e-07
7.17235e-07
4.64129e-06
5.17766e-06
-7.74025e-08
5.19947e-06
6.14402e-08
5.2024e-06
1.17894e-07
5.21848e-06
1.31101e-07
5.23443e-06
1.59945e-07
5.23217e-06
2.06247e-07
5.20571e-06
2.42022e-07
5.1621e-06
2.51196e-07
5.11683e-06
2.3871e-07
5.08531e-06
2.20992e-07
5.07467e-06
2.16735e-07
5.08205e-06
2.4053e-07
5.09869e-06
2.94746e-07
5.11476e-06
3.72874e-07
5.12287e-06
4.61991e-07
5.12063e-06
5.54471e-07
5.10956e-06
6.43394e-07
7.29165e-07
5.09763e-06
5.45516e-06
5.58331e-08
5.48235e-06
3.42544e-08
5.53465e-06
6.55877e-08
5.56723e-06
9.85221e-08
5.58115e-06
1.46025e-07
5.56874e-06
2.18661e-07
5.53501e-06
2.75754e-07
5.49582e-06
2.90381e-07
5.46556e-06
2.68968e-07
5.44884e-06
2.37719e-07
5.44158e-06
2.23995e-07
5.43778e-06
2.44323e-07
5.43377e-06
2.98757e-07
5.42849e-06
3.78158e-07
5.42282e-06
4.67655e-07
5.41835e-06
5.5894e-07
5.41872e-06
6.43031e-07
7.21112e-07
5.42677e-06
5.86963e-06
8.05538e-08
5.90501e-06
-1.12057e-09
5.90377e-06
6.6821e-08
5.87909e-06
1.23209e-07
5.84946e-06
1.75653e-07
5.8325e-06
2.35618e-07
5.8346e-06
2.73653e-07
5.84978e-06
2.752e-07
5.86625e-06
2.52498e-07
5.87348e-06
2.3049e-07
5.86749e-06
2.29991e-07
5.85144e-06
2.60372e-07
5.83226e-06
3.1794e-07
5.81603e-06
3.94384e-07
5.80693e-06
4.76758e-07
5.80713e-06
5.58739e-07
5.81836e-06
6.31796e-07
6.97294e-07
5.84218e-06
6.40997e-06
1.25085e-07
6.4357e-06
-2.68519e-08
6.42993e-06
7.25883e-08
6.40698e-06
1.46159e-07
6.38493e-06
1.97708e-07
6.38065e-06
2.39891e-07
6.39688e-06
2.57429e-07
6.41638e-06
2.55699e-07
6.41602e-06
2.52857e-07
6.38322e-06
2.63296e-07
6.32323e-06
2.89982e-07
6.25414e-06
3.29461e-07
6.19626e-06
3.75821e-07
6.16257e-06
4.28067e-07
6.15602e-06
4.83306e-07
6.17278e-06
5.41981e-07
6.20583e-06
5.98749e-07
6.54375e-07
6.24875e-06
5.79162e-06
9.55946e-09
5.74953e-06
1.52395e-08
5.70687e-06
1.15246e-07
5.69545e-06
1.5758e-07
5.72347e-06
1.69688e-07
5.76864e-06
1.94721e-07
5.8005e-06
2.25574e-07
5.80526e-06
2.5094e-07
5.7879e-06
2.7021e-07
5.75987e-06
2.91324e-07
5.72919e-06
3.20665e-07
5.69958e-06
3.59072e-07
5.67373e-06
4.01676e-07
5.65582e-06
4.4597e-07
5.64988e-06
4.89247e-07
5.65878e-06
5.33079e-07
5.6823e-06
5.7523e-07
6.18095e-07
5.71858e-06
7.07951e-06
3.23235e-08
7.00173e-06
9.30163e-08
6.91945e-06
1.97528e-07
6.91003e-06
1.66999e-07
6.97369e-06
1.06022e-07
7.06026e-06
1.08156e-07
7.11696e-06
1.68871e-07
7.12778e-06
2.40127e-07
7.11028e-06
2.87703e-07
7.08981e-06
3.11797e-07
7.08094e-06
3.29538e-07
7.08447e-06
3.55537e-07
7.09342e-06
3.92731e-07
7.10109e-06
4.38298e-07
7.10475e-06
4.85587e-07
7.10657e-06
5.31251e-07
7.11089e-06
5.70913e-07
6.05831e-07
7.12315e-06
8.43169e-06
-8.49198e-08
8.43981e-06
8.48945e-08
8.44839e-06
1.88953e-07
8.48673e-06
1.28654e-07
8.54485e-06
4.79022e-08
8.60909e-06
4.39154e-08
8.6572e-06
1.20762e-07
8.67916e-06
2.18169e-07
8.67601e-06
2.90851e-07
8.65814e-06
3.29666e-07
8.63909e-06
3.48595e-07
8.6298e-06
3.64822e-07
8.63465e-06
3.87882e-07
8.65192e-06
4.21024e-07
8.67761e-06
4.59905e-07
8.70832e-06
5.00537e-07
8.74346e-06
5.35769e-07
5.64549e-07
8.78475e-06
1.04289e-05
-4.91164e-08
1.04709e-05
4.28346e-08
1.05088e-05
1.51101e-07
1.0474e-05
1.63397e-07
1.0399e-05
1.22911e-07
1.03432e-05
9.9738e-08
1.03371e-05
1.26878e-07
1.0363e-05
1.9229e-07
1.0391e-05
2.62844e-07
1.04069e-05
3.13753e-07
1.04161e-05
3.39393e-07
1.04316e-05
3.49314e-07
1.04623e-05
3.57146e-07
1.05092e-05
3.74183e-07
1.05669e-05
4.02156e-07
1.063e-05
4.37502e-07
1.06937e-05
4.72046e-07
5.01687e-07
1.07565e-05
1.26348e-05
1.16952e-08
1.26874e-05
-9.7325e-09
1.2791e-05
4.74212e-08
1.28747e-05
7.97776e-08
1.28957e-05
1.0192e-07
1.28537e-05
1.41663e-07
1.27754e-05
2.05227e-07
1.2694e-05
2.73701e-07
1.2634e-05
3.22856e-07
1.26075e-05
3.40204e-07
1.26181e-05
3.28827e-07
1.2663e-05
3.0441e-07
1.27353e-05
2.8484e-07
1.28264e-05
2.8304e-07
1.29266e-05
3.01988e-07
1.30279e-05
3.36176e-07
1.31235e-05
3.76454e-07
4.13913e-07
1.32113e-05
1.55445e-05
1.26368e-07
1.55123e-05
2.25045e-08
1.55281e-05
3.16057e-08
1.55298e-05
7.8035e-08
1.55127e-05
1.19077e-07
1.54918e-05
1.6256e-07
1.54933e-05
2.03716e-07
1.55296e-05
2.37356e-07
1.55917e-05
2.60773e-07
1.56598e-05
2.72084e-07
1.57168e-05
2.71885e-07
1.57549e-05
2.66289e-07
1.57766e-05
2.63115e-07
1.57901e-05
2.69513e-07
1.58051e-05
2.87049e-07
1.58276e-05
3.13668e-07
1.58609e-05
3.43137e-07
3.70561e-07
1.59043e-05
1.91269e-05
1.04926e-07
1.91906e-05
-4.11919e-08
1.92222e-05
7.23886e-11
1.92008e-05
9.9356e-08
1.91273e-05
1.92623e-07
1.90432e-05
2.46641e-07
1.89913e-05
2.55672e-07
1.89898e-05
2.38788e-07
1.90295e-05
2.21111e-07
1.90867e-05
2.14894e-07
1.91395e-05
2.19107e-07
1.91776e-05
2.28125e-07
1.92036e-05
2.37151e-07
1.92281e-05
2.45027e-07
1.92629e-05
2.52196e-07
1.93163e-05
2.60243e-07
1.93919e-05
2.67622e-07
2.74571e-07
1.94879e-05
2.30066e-05
-3.86298e-08
2.30529e-05
-8.74461e-08
2.3135e-05
-8.20443e-08
2.31554e-05
7.8938e-08
2.31342e-05
2.13825e-07
2.31211e-05
2.59748e-07
2.31342e-05
2.42556e-07
2.31655e-05
2.07462e-07
2.31999e-05
1.86761e-07
2.32274e-05
1.87412e-07
2.32467e-05
1.99749e-07
2.32638e-05
2.11066e-07
2.32868e-05
2.14124e-07
2.33238e-05
2.08051e-07
2.3381e-05
1.95018e-07
2.34607e-05
1.80556e-07
2.35615e-05
1.66782e-07
1.59167e-07
2.36769e-05
1.71369e-05
1.81292e-07
1.70552e-05
-5.82952e-09
1.69844e-05
-1.11999e-08
1.69635e-05
9.98542e-08
1.70097e-05
1.67568e-07
1.70811e-05
1.88366e-07
1.71371e-05
1.86634e-07
1.71583e-05
1.8619e-07
1.7147e-05
1.98065e-07
1.71182e-05
2.16192e-07
1.70891e-05
2.28928e-07
1.7071e-05
2.29151e-07
1.70689e-05
2.16188e-07
1.70822e-05
1.94733e-07
1.71078e-05
1.69466e-07
1.71423e-05
1.46083e-07
1.71832e-05
1.25841e-07
1.11308e-07
1.72311e-05
1.43138e-05
-1.16634e-07
1.45229e-05
-2.14917e-07
1.4581e-05
-6.93229e-08
1.46332e-05
4.75993e-08
1.46964e-05
1.0442e-07
1.47614e-05
1.23389e-07
1.48183e-05
1.29687e-07
1.48638e-05
1.40674e-07
1.49014e-05
1.60501e-07
1.49364e-05
1.81161e-07
1.49713e-05
1.94065e-07
1.50052e-05
1.95206e-07
1.50369e-05
1.8447e-07
1.50664e-05
1.65326e-07
1.50942e-05
1.41597e-07
1.51222e-05
1.18149e-07
1.51509e-05
9.7103e-08
8.05236e-08
1.51817e-05
1.26821e-05
4.05583e-08
1.25767e-05
-1.09496e-07
1.26216e-05
-1.14242e-07
1.27304e-05
-6.11961e-08
1.2829e-05
5.86366e-09
1.28993e-05
5.30161e-08
1.29559e-05
7.31571e-08
1.30171e-05
7.94771e-08
1.30799e-05
9.76851e-08
1.31288e-05
1.32254e-07
1.31546e-05
1.68207e-07
1.31627e-05
1.87122e-07
1.31668e-05
1.80406e-07
1.31805e-05
1.51587e-07
1.32098e-05
1.12273e-07
1.32529e-05
7.51409e-08
1.33017e-05
4.82908e-08
3.49756e-08
1.33472e-05
1.11532e-05
-1.57751e-07
1.10644e-05
-2.0754e-08
1.09909e-05
-4.0751e-08
1.09933e-05
-6.35618e-08
1.10506e-05
-5.14202e-08
1.11338e-05
-3.02394e-08
1.12113e-05
-4.29512e-09
1.12695e-05
2.12305e-08
1.13171e-05
5.00869e-08
1.13717e-05
7.76576e-08
1.14419e-05
9.80041e-08
1.15229e-05
1.06139e-07
1.16013e-05
1.02007e-07
1.16622e-05
9.06464e-08
1.16961e-05
7.8365e-08
1.17021e-05
6.92237e-08
1.16854e-05
6.50015e-08
6.45585e-08
1.16558e-05
9.64477e-06
-7.29717e-08
9.69644e-06
-7.24269e-08
9.76204e-06
-1.06349e-07
9.77582e-06
-7.73389e-08
9.77968e-06
-5.52796e-08
9.80318e-06
-5.37408e-08
9.83298e-06
-3.40966e-08
9.84277e-06
1.14433e-08
9.83284e-06
6.00118e-08
9.82148e-06
8.90191e-08
9.82782e-06
9.16667e-08
9.85874e-06
7.52171e-08
9.90889e-06
5.18571e-08
9.96729e-06
3.22395e-08
1.00237e-05
2.19603e-08
1.00719e-05
2.10598e-08
1.01101e-05
2.67524e-08
3.48645e-08
1.01398e-05
8.3938e-06
-9.57935e-08
8.38418e-06
-6.28099e-08
8.42587e-06
-1.48034e-07
8.4902e-06
-1.4167e-07
8.5195e-06
-8.45862e-08
8.50352e-06
-3.77556e-08
8.46776e-06
1.66536e-09
8.44334e-06
3.58587e-08
8.44094e-06
6.24149e-08
8.45792e-06
7.2032e-08
8.48572e-06
6.38688e-08
8.51781e-06
4.31253e-08
8.55154e-06
1.8133e-08
8.58739e-06
-3.61113e-09
8.6262e-06
-1.68541e-08
8.6677e-06
-2.04342e-08
8.71016e-06
-1.57145e-08
-5.35863e-09
8.75039e-06
7.40722e-06
-2.05666e-07
7.43524e-06
-9.08296e-08
7.3754e-06
-8.81923e-08
7.34457e-06
-1.10838e-07
7.35236e-06
-9.23831e-08
7.37451e-06
-5.99065e-08
7.40034e-06
-2.41573e-08
7.42854e-06
7.65393e-09
7.46083e-06
3.0124e-08
7.49144e-06
4.14277e-08
7.51438e-06
4.09238e-08
7.52838e-06
2.91292e-08
7.53666e-06
9.85249e-09
7.54471e-06
-1.16586e-08
7.55661e-06
-2.87585e-08
7.57378e-06
-3.75992e-08
7.59536e-06
-3.73027e-08
-2.87595e-08
7.61877e-06
6.41091e-06
-6.7811e-08
6.39357e-06
-7.3485e-08
6.3581e-06
-5.27268e-08
6.31918e-06
-7.19148e-08
6.32629e-06
-9.9496e-08
6.36719e-06
-1.00804e-07
6.41268e-06
-6.96443e-08
6.44646e-06
-2.61273e-08
6.46788e-06
8.70468e-09
6.48403e-06
2.52773e-08
6.50114e-06
2.3809e-08
6.52115e-06
9.12121e-09
6.5417e-06
-1.07005e-08
6.55958e-06
-2.95309e-08
6.57348e-06
-4.2659e-08
6.5842e-06
-4.83214e-08
6.59421e-06
-4.73175e-08
-4.07735e-08
6.60623e-06
5.56624e-06
-3.24766e-08
5.55702e-06
-6.42673e-08
5.57892e-06
-7.46315e-08
5.59823e-06
-9.12195e-08
5.59816e-06
-9.94303e-08
5.58664e-06
-8.92798e-08
5.58065e-06
-6.36596e-08
5.59123e-06
-3.67035e-08
5.62085e-06
-2.09127e-08
5.66587e-06
-1.97448e-08
5.71806e-06
-2.83839e-08
5.76659e-06
-3.94054e-08
5.8021e-06
-4.62112e-08
5.81965e-06
-4.70796e-08
5.82112e-06
-4.41306e-08
5.81294e-06
-4.01428e-08
5.80304e-06
-3.74193e-08
-3.53135e-08
5.79758e-06
4.94319e-06
-7.63851e-08
4.94534e-06
-6.64184e-08
4.91927e-06
-4.85625e-08
4.89765e-06
-6.96019e-08
4.88337e-06
-8.51454e-08
4.87886e-06
-8.47678e-08
4.8859e-06
-7.0705e-08
4.90047e-06
-5.1271e-08
4.91632e-06
-3.67614e-08
4.92904e-06
-3.24653e-08
4.93701e-06
-3.63586e-08
4.94059e-06
-4.29812e-08
4.94175e-06
-4.73756e-08
4.94328e-06
-4.861e-08
4.9474e-06
-4.82421e-08
4.95511e-06
-4.78558e-08
4.96586e-06
-4.81744e-08
-4.75153e-08
4.97807e-06
4.19773e-06
4.13131e-06
4.08275e-06
4.01315e-06
3.928e-06
3.84323e-06
3.77253e-06
3.72126e-06
3.68449e-06
3.65203e-06
3.61567e-06
3.57269e-06
3.52531e-06
3.4767e-06
3.42846e-06
3.38061e-06
3.33243e-06
3.28492e-06
-4.24168e-07
4.24168e-07
-7.13876e-07
2.89708e-07
-8.04465e-07
9.05893e-08
-7.2216e-07
-8.23044e-08
-4.9027e-07
-2.31891e-07
-1.05251e-07
-3.85018e-07
4.09335e-07
-5.14587e-07
1.01747e-06
-6.08133e-07
1.67598e-06
-6.58512e-07
2.3461e-06
-6.70119e-07
2.99955e-06
-6.53449e-07
3.6142e-06
-6.14652e-07
4.17383e-06
-5.59633e-07
4.66715e-06
-4.93314e-07
5.08552e-06
-4.18378e-07
5.42163e-06
-3.36107e-07
5.66846e-06
-2.46827e-07
5.81925e-06
-1.50796e-07
5.86574e-06
-4.64871e-08
5.80342e-06
6.23203e-08
5.62006e-06
1.83363e-07
5.30406e-06
3.16001e-07
4.84882e-06
4.55234e-07
4.24128e-06
6.07539e-07
3.48451e-06
7.56772e-07
2.56723e-06
9.1728e-07
1.54393e-06
1.0233e-06
4.16443e-07
1.12749e-06
-3.67682e-07
7.84125e-07
-9.53116e-07
5.85434e-07
-1.61527e-06
6.62152e-07
-2.31364e-06
6.98376e-07
-3.06279e-06
7.4915e-07
-3.67764e-06
6.14851e-07
-3.91889e-06
2.41246e-07
-3.70969e-06
-2.09202e-07
-3.07021e-06
-6.39477e-07
-1.95444e-06
-1.11578e-06
-4.5483e-07
-1.49961e-06
7.42426e-07
-1.19726e-06
1.46857e-06
-7.26147e-07
1.51821e-06
-4.96413e-08
1.09914e-06
4.19077e-07
1.16751e-06
-6.83687e-08
1.32444e-06
-1.56937e-07
1.37111e-06
-4.66696e-08
1.30635e-06
6.47637e-08
3.76365e-07
9.29983e-07
-1.22594e-06
1.6023e-06
-2.78177e-06
1.55583e-06
-4.32468e-06
1.54292e-06
-5.75292e-06
1.42824e-06
-7.03255e-06
1.27963e-06
-8.14332e-06
1.11077e-06
-9.10663e-06
9.6331e-07
-9.94567e-06
8.39039e-07
-1.06879e-05
7.42227e-07
-1.13553e-05
6.6736e-07
-1.1965e-05
6.09732e-07
-1.25276e-05
5.62621e-07
-1.30475e-05
5.19891e-07
-1.35237e-05
4.76189e-07
-1.39512e-05
4.27537e-07
-1.43228e-05
3.71616e-07
-1.46304e-05
3.07532e-07
-1.4866e-05
2.35626e-07
-1.50232e-05
1.57226e-07
-1.50983e-05
7.50888e-08
-1.50899e-05
-8.40151e-09
-1.50101e-05
-7.97845e-08
-1.4861e-05
-1.49079e-07
-1.46482e-05
-2.12841e-07
-1.43796e-05
-2.68608e-07
-1.40631e-05
-3.1645e-07
-1.37075e-05
-3.55621e-07
-1.3321e-05
-3.86504e-07
-1.29113e-05
-4.09756e-07
-1.24851e-05
-4.26132e-07
-1.20483e-05
-4.36856e-07
-1.16053e-05
-4.43012e-07
-1.11594e-05
-4.45845e-07
-1.0713e-05
-4.46448e-07
-1.02672e-05
-4.4582e-07
-9.82233e-06
-4.44819e-07
-9.37823e-06
-4.44103e-07
-8.93413e-06
-4.44098e-07
-8.48914e-06
-4.44989e-07
-8.04236e-06
-4.46782e-07
-7.59303e-06
-4.49329e-07
-7.14072e-06
-4.52313e-07
-6.68537e-06
-4.55345e-07
-6.22731e-06
-4.58062e-07
-5.76715e-06
-4.60158e-07
-5.30565e-06
-4.615e-07
-4.84344e-06
-4.6221e-07
-4.38087e-06
-4.62573e-07
-3.91779e-06
-4.63078e-07
-3.4535e-06
-4.64297e-07
-2.987e-06
-4.66498e-07
-2.51727e-06
-4.69725e-07
-2.04324e-06
-4.74033e-07
-1.56412e-06
-4.7912e-07
-1.0804e-06
-4.8372e-07
-5.93571e-07
-4.86829e-07
-1.05866e-07
-4.87705e-07
3.79401e-07
-4.85267e-07
8.5741e-07
-4.78009e-07
1.32368e-06
-4.6627e-07
1.77372e-06
-4.50045e-07
2.20321e-06
-4.29482e-07
2.60787e-06
-4.04662e-07
2.98334e-06
-3.75466e-07
3.3251e-06
-3.41763e-07
3.62914e-06
-3.04037e-07
3.89324e-06
-2.64104e-07
4.1181e-06
-2.2486e-07
4.3068e-06
-1.88701e-07
4.46251e-06
-1.55713e-07
4.58588e-06
-1.23367e-07
4.67495e-06
-8.9068e-08
4.72884e-06
-5.3891e-08
4.75181e-06
-2.29682e-08
4.75344e-06
-1.6346e-09
4.74647e-06
6.97332e-09
4.7424e-06
4.0696e-09
4.74547e-06
-3.07528e-09
4.74792e-06
-2.44863e-09
4.73632e-06
1.15984e-08
4.7025e-06
3.38228e-08
4.64769e-06
5.4814e-08
4.57927e-06
6.84201e-08
4.50661e-06
7.26613e-08
4.43746e-06
6.9143e-08
4.37644e-06
6.10217e-08
4.3252e-06
5.12379e-08
4.28371e-06
4.14909e-08
4.25106e-06
3.26533e-08
4.22539e-06
2.56665e-08
4.20371e-06
2.16817e-08
4.18228e-06
2.143e-08
4.15772e-06
2.45634e-08
4.12739e-06
3.03261e-08
4.08922e-06
3.81748e-08
4.04114e-06
4.80775e-08
3.9811e-06
6.00411e-08
3.90787e-06
7.32285e-08
3.8223e-06
8.55711e-08
3.72789e-06
9.44102e-08
3.63002e-06
9.78651e-08
3.53424e-06
9.5784e-08
3.4445e-06
8.97437e-08
3.36238e-06
8.21144e-08
3.28747e-06
7.49167e-08
3.21824e-06
6.9226e-08
3.153e-06
6.5237e-08
3.09062e-06
6.23785e-08
3.03085e-06
5.97761e-08
2.97418e-06
5.66668e-08
2.92155e-06
5.26296e-08
2.87379e-06
4.77591e-08
2.83128e-06
4.25147e-08
2.79384e-06
3.7441e-08
2.76085e-06
3.29892e-08
2.73148e-06
2.93712e-08
2.70478e-06
2.66922e-08
2.67997e-06
2.48163e-08
2.65616e-06
2.3809e-08
2.63283e-06
2.33304e-08
2.60901e-06
2.38189e-08
2.58449e-06
2.45217e-08
2.55757e-06
2.6916e-08
2.52878e-06
2.87942e-08
2.49436e-06
3.44194e-08
2.45686e-06
3.74986e-08
2.40661e-06
5.02506e-08
2.35264e-06
5.39669e-08
2.26779e-06
8.4852e-08
2.1811e-06
8.66894e-08
2.01244e-06
1.68656e-07
1.6344e-07
1.849e-06
1.01931e-07
3.22236e-07
1.95286e-07
1.96353e-07
4.21919e-07
-1.36043e-07
8.40157e-07
-5.00543e-07
1.43559e-06
-8.27328e-07
2.13633e-06
-1.08576e-06
2.87909e-06
-1.25734e-06
3.61375e-06
-1.34279e-06
4.30498e-06
-1.34974e-06
4.93588e-06
-1.30101e-06
5.5045e-06
-1.22207e-06
6.00618e-06
-1.11633e-06
6.43812e-06
-9.91571e-07
6.79863e-06
-8.53823e-07
7.08737e-06
-7.07119e-07
7.30535e-06
-5.5408e-07
7.4551e-06
-3.96578e-07
7.54006e-06
-2.35755e-07
7.56779e-06
-7.42171e-08
7.52223e-06
1.07873e-07
7.4001e-06
3.05493e-07
7.20203e-06
5.14076e-07
6.92185e-06
7.3541e-07
6.54936e-06
9.80029e-07
6.07358e-06
1.23255e-06
5.4858e-06
1.50506e-06
4.76268e-06
1.74642e-06
3.91246e-06
1.97771e-06
2.61818e-06
2.07841e-06
1.16524e-06
2.03838e-06
1.9438e-09
1.82544e-06
-8.6915e-07
1.56947e-06
-1.54098e-06
1.42098e-06
-1.98832e-06
1.06219e-06
-2.21742e-06
4.70349e-07
-2.13496e-06
-2.9167e-07
-1.79972e-06
-9.74709e-07
-1.12799e-06
-1.78751e-06
-1.95076e-07
-2.43252e-06
5.81047e-07
-1.97338e-06
9.30649e-07
-1.07575e-06
1.02633e-06
-1.45322e-07
9.21538e-07
5.23869e-07
4.90627e-07
3.62543e-07
-6.89442e-07
1.02313e-06
-2.64994e-06
1.91383e-06
-4.58014e-06
1.99496e-06
-5.91646e-06
2.2663e-06
-6.84764e-06
2.53348e-06
-7.81657e-06
2.52477e-06
-8.6977e-06
2.42404e-06
-9.4689e-06
2.19944e-06
-1.01444e-05
1.95511e-06
-1.07408e-05
1.70716e-06
-1.12721e-05
1.49467e-06
-1.17526e-05
1.31947e-06
-1.21937e-05
1.18334e-06
-1.26047e-05
1.07843e-06
-1.29907e-05
9.95697e-07
-1.33532e-05
9.25128e-07
-1.36904e-05
8.57054e-07
-1.39982e-05
7.84063e-07
-1.42713e-05
7.00616e-07
-1.45033e-05
6.03625e-07
-1.46879e-05
4.92107e-07
-1.48197e-05
3.67393e-07
-1.48948e-05
2.32333e-07
-1.49103e-05
9.05755e-08
-1.48661e-05
-5.2603e-08
-1.47532e-05
-1.92675e-07
-1.45764e-05
-3.25851e-07
-1.43413e-05
-4.47972e-07
-1.40538e-05
-5.56114e-07
-1.37221e-05
-6.48079e-07
-1.33546e-05
-7.23118e-07
-1.29595e-05
-7.81655e-07
-1.25443e-05
-8.24954e-07
-1.21154e-05
-8.5498e-07
-1.16783e-05
-8.73969e-07
-1.1237e-05
-8.84359e-07
-1.07943e-05
-8.88532e-07
-1.03521e-05
-8.88686e-07
-9.91111e-06
-8.86779e-07
-9.47146e-06
-8.8447e-07
-9.03252e-06
-8.83037e-07
-8.59333e-06
-8.83287e-07
-8.15279e-06
-8.85533e-07
-7.70988e-06
-8.89695e-07
-7.26382e-06
-8.95383e-07
-6.81426e-06
-9.01878e-07
-6.36131e-06
-9.08295e-07
-5.90551e-06
-9.13858e-07
-5.44775e-06
-9.17925e-07
-4.98907e-06
-9.20177e-07
-4.53037e-06
-9.20912e-07
-4.07215e-06
-9.20788e-07
-3.61435e-06
-9.20878e-07
-3.15612e-06
-9.22533e-07
-2.69618e-06
-9.2643e-07
-2.2332e-06
-9.32705e-07
-1.76578e-06
-9.41459e-07
-1.29287e-06
-9.52024e-07
-8.1455e-07
-9.62044e-07
-3.31657e-07
-9.69722e-07
1.5293e-07
-9.72292e-07
6.35543e-07
-9.6788e-07
1.11235e-06
-9.54817e-07
1.57901e-06
-9.32925e-07
2.0312e-06
-9.02243e-07
2.46463e-06
-8.62904e-07
2.8753e-06
-8.15334e-07
3.26013e-06
-7.60303e-07
3.61655e-06
-6.98182e-07
3.94141e-06
-6.28896e-07
4.23161e-06
-5.54297e-07
4.4871e-06
-4.80356e-07
4.71255e-06
-4.14144e-07
4.91291e-06
-3.56083e-07
5.0857e-06
-2.96151e-07
5.21911e-06
-2.2248e-07
5.30164e-06
-1.36419e-07
5.33421e-06
-5.55408e-08
5.33285e-06
-2.69966e-10
5.32039e-06
1.94303e-08
5.31606e-06
8.39421e-09
5.32849e-06
-1.54997e-08
5.35875e-06
-3.27141e-08
5.39874e-06
-2.83866e-08
5.43278e-06
-2.16696e-10
5.4465e-06
4.10965e-08
5.43184e-06
8.3072e-08
5.38975e-06
1.1476e-07
5.32715e-06
1.31737e-07
5.25357e-06
1.34608e-07
5.17833e-06
1.26473e-07
5.10913e-06
1.10692e-07
5.05136e-06
9.04242e-08
5.00801e-06
6.90177e-08
4.97986e-06
4.98255e-08
4.96576e-06
3.55312e-08
4.96275e-06
2.75743e-08
4.96691e-06
2.61711e-08
4.97434e-06
3.07427e-08
4.98211e-06
4.03029e-08
4.98863e-06
5.35253e-08
4.99329e-06
6.8563e-08
4.99592e-06
8.29479e-08
4.99626e-06
9.40686e-08
4.99365e-06
1.00474e-07
4.98706e-06
1.02371e-07
4.97531e-06
1.015e-07
4.95731e-06
1.00113e-07
4.9325e-06
9.97218e-08
4.90117e-06
1.00556e-07
4.86459e-06
1.01819e-07
4.82467e-06
1.02301e-07
4.78342e-06
1.01029e-07
4.74254e-06
9.75447e-08
4.70325e-06
9.19207e-08
4.66634e-06
8.4669e-08
4.63229e-06
7.65615e-08
4.60138e-06
6.83509e-08
4.57369e-06
6.06783e-08
4.54918e-06
5.38801e-08
4.52761e-06
4.82638e-08
4.50866e-06
4.37645e-08
4.49174e-06
4.07346e-08
4.47632e-06
3.87517e-08
4.46141e-06
3.87241e-08
4.4465e-06
3.94277e-08
4.43008e-06
4.33353e-08
4.41212e-06
4.67629e-08
4.39007e-06
5.64619e-08
4.36512e-06
6.24498e-08
4.33213e-06
8.3242e-08
4.2944e-06
9.16951e-08
4.24129e-06
1.37961e-07
4.17796e-06
1.5002e-07
4.08522e-06
2.61395e-07
2.88635e-07
3.96003e-06
1.60694e-07
1.61542e-07
5.14349e-07
-1.57302e-07
1.18528e-06
-8.06972e-07
2.05048e-06
-1.36575e-06
2.95406e-06
-1.73091e-06
3.78614e-06
-1.91784e-06
4.50283e-06
-1.97403e-06
5.09972e-06
-1.93969e-06
5.59399e-06
-1.84402e-06
6.00197e-06
-1.70899e-06
6.33069e-06
-1.55079e-06
6.59344e-06
-1.37909e-06
6.80103e-06
-1.19916e-06
6.96115e-06
-1.01394e-06
7.07914e-06
-8.25112e-07
7.15889e-06
-6.33832e-07
7.20292e-06
-4.40611e-07
7.21238e-06
-2.4521e-07
7.18598e-06
-4.78151e-08
7.13593e-06
1.57916e-07
7.06802e-06
3.73406e-07
6.97879e-06
6.03306e-07
6.86482e-06
8.49383e-07
6.72381e-06
1.12103e-06
6.54177e-06
1.41459e-06
6.31166e-06
1.73517e-06
5.99814e-06
2.05994e-06
5.59896e-06
2.37689e-06
5.03768e-06
2.63969e-06
4.28277e-06
2.79328e-06
3.32982e-06
2.7784e-06
2.33994e-06
2.55935e-06
1.57826e-06
2.18266e-06
1.03688e-06
1.60357e-06
6.59339e-07
8.47894e-07
4.40529e-07
-7.28599e-08
4.18477e-07
-9.52657e-07
6.9178e-07
-2.06081e-06
9.03247e-07
-2.64399e-06
8.38157e-07
-1.90829e-06
1.70077e-07
-4.07669e-07
-4.9602e-07
5.20775e-07
-1.59058e-06
1.61843e-06
-3.58801e-06
2.35998e-06
-5.201e-06
2.63612e-06
-6.2055e-06
2.91833e-06
-7.21801e-06
3.00747e-06
-8.07996e-06
3.12825e-06
-8.62476e-06
3.07828e-06
-9.0583e-06
2.95831e-06
-9.40288e-06
2.76863e-06
-9.72856e-06
2.52512e-06
-1.0044e-05
2.27053e-06
-1.03664e-05
2.02959e-06
-1.06947e-05
1.82299e-06
-1.10307e-05
1.65543e-06
-1.13732e-05
1.52579e-06
-1.17218e-05
1.42702e-06
-1.20742e-05
1.34814e-06
-1.2426e-05
1.27698e-06
-1.27702e-05
1.20116e-06
-1.30968e-05
1.11076e-06
-1.33948e-05
9.98539e-07
-1.3652e-05
8.609e-07
-1.38575e-05
6.97519e-07
-1.40017e-05
5.11628e-07
-1.40787e-05
3.09338e-07
-1.4085e-05
9.69106e-08
-1.40192e-05
-1.18454e-07
-1.38872e-05
-3.24683e-07
-1.36927e-05
-5.20295e-07
-1.34421e-05
-6.98576e-07
-1.31438e-05
-8.54435e-07
-1.28067e-05
-9.85219e-07
-1.24397e-05
-1.09006e-06
-1.20514e-05
-1.16994e-06
-1.16491e-05
-1.22724e-06
-1.12389e-05
-1.26526e-06
-1.08251e-05
-1.28768e-06
-1.04112e-05
-1.29833e-06
-9.99888e-06
-1.30084e-06
-9.58906e-06
-1.2985e-06
-9.18166e-06
-1.29419e-06
-8.77582e-06
-1.29031e-06
-8.37014e-06
-1.28871e-06
-7.96291e-06
-1.29052e-06
-7.5523e-06
-1.29614e-06
-7.13671e-06
-1.30529e-06
-6.71492e-06
-1.31717e-06
-6.2864e-06
-1.3304e-06
-5.85145e-06
-1.34325e-06
-5.41109e-06
-1.35421e-06
-4.96699e-06
-1.36203e-06
-4.52126e-06
-1.36591e-06
-4.07583e-06
-1.36634e-06
-3.63211e-06
-1.36451e-06
-3.19076e-06
-1.36223e-06
-2.75118e-06
-1.36211e-06
-2.31194e-06
-1.36568e-06
-1.87111e-06
-1.37353e-06
-1.42652e-06
-1.38605e-06
-9.76375e-07
-1.40217e-06
-5.20105e-07
-1.41831e-06
-5.84778e-08
-1.43135e-06
4.05806e-07
-1.43658e-06
8.68418e-07
-1.43049e-06
1.32473e-06
-1.41113e-06
1.77043e-06
-1.37863e-06
2.20259e-06
-1.33441e-06
2.61839e-06
-1.2787e-06
3.01271e-06
-1.20966e-06
3.37882e-06
-1.12641e-06
3.71222e-06
-1.03158e-06
4.01181e-06
-9.28487e-07
4.27648e-06
-8.18971e-07
4.50562e-06
-7.09496e-07
4.7073e-06
-6.15819e-07
4.9017e-06
-5.50484e-07
5.10676e-06
-5.01214e-07
5.31381e-06
-4.29529e-07
5.48212e-06
-3.04724e-07
5.56985e-06
-1.43277e-07
5.57193e-06
-2.35018e-09
5.52298e-06
6.83842e-08
5.47003e-06
6.13427e-08
5.4467e-06
7.82959e-09
5.46243e-06
-4.84442e-08
5.50683e-06
-7.27854e-08
5.56075e-06
-5.41349e-08
5.60448e-06
-2.63565e-09
5.62412e-06
6.34328e-08
5.61215e-06
1.26728e-07
5.56772e-06
1.76173e-07
5.49687e-06
2.0545e-07
5.41088e-06
2.1247e-07
5.32239e-06
1.99175e-07
5.2418e-06
1.71015e-07
5.17532e-06
1.355e-07
5.12503e-06
1.00116e-07
5.09001e-06
7.05505e-08
5.06768e-06
4.99092e-08
5.05487e-06
3.89819e-08
5.04861e-06
3.70026e-08
5.0466e-06
4.2313e-08
5.04747e-06
5.26499e-08
5.05083e-06
6.52081e-08
5.05688e-06
7.68958e-08
5.06587e-06
8.50763e-08
5.07767e-06
8.8671e-08
5.09143e-06
8.86169e-08
5.10523e-06
8.76991e-08
5.11621e-06
8.91295e-08
5.12121e-06
9.47195e-08
5.1178e-06
1.03972e-07
5.10512e-06
1.14493e-07
5.08414e-06
1.23288e-07
5.05706e-06
1.28107e-07
5.02655e-06
1.28057e-07
4.99492e-06
1.23551e-07
4.96382e-06
1.15769e-07
4.93421e-06
1.06165e-07
4.9066e-06
9.5958e-08
4.88123e-06
8.60559e-08
4.85826e-06
7.68498e-08
4.83783e-06
6.86947e-08
4.82009e-06
6.14997e-08
4.80504e-06
5.57853e-08
4.79257e-06
5.12189e-08
4.78223e-06
4.9069e-08
4.77346e-06
4.81995e-08
4.76539e-06
5.14019e-08
4.75706e-06
5.50894e-08
4.74764e-06
6.58807e-08
4.73562e-06
7.44786e-08
4.72129e-06
9.75647e-08
4.70075e-06
1.12236e-07
4.67888e-06
1.59832e-07
4.64245e-06
1.86454e-07
4.61431e-06
2.8953e-07
3.49629e-07
4.55332e-06
1.11597e-07
4.99456e-08
1.02181e-06
-1.06751e-06
2.17072e-06
-1.95588e-06
3.16319e-06
-2.35823e-06
3.90571e-06
-2.47342e-06
4.41776e-06
-2.42988e-06
4.74947e-06
-2.30573e-06
4.95761e-06
-2.14784e-06
5.09182e-06
-1.97822e-06
5.18189e-06
-1.79905e-06
5.2476e-06
-1.6165e-06
5.29929e-06
-1.43078e-06
5.34035e-06
-1.24022e-06
5.3699e-06
-1.04349e-06
5.38504e-06
-8.40254e-07
5.38229e-06
-6.31077e-07
5.35902e-06
-4.17343e-07
5.31397e-06
-2.00156e-07
5.2459e-06
2.02527e-08
5.19142e-06
2.12394e-07
5.15398e-06
4.10843e-07
5.14206e-06
6.15234e-07
5.16052e-06
8.30917e-07
5.21101e-06
1.07054e-06
5.28439e-06
1.34122e-06
5.37013e-06
1.64943e-06
5.44097e-06
1.98911e-06
5.47754e-06
2.34032e-06
5.44387e-06
2.67335e-06
5.30485e-06
2.93231e-06
5.00067e-06
3.08257e-06
4.53148e-06
3.02854e-06
3.9725e-06
2.74164e-06
3.38045e-06
2.19562e-06
2.78564e-06
1.44271e-06
2.27988e-06
4.32903e-07
1.83356e-06
-5.06337e-07
1.54079e-06
-1.76804e-06
8.07217e-07
-1.91042e-06
-6.52363e-07
-4.48708e-07
-2.23039e-06
1.17036e-06
-3.89585e-06
2.18623e-06
-5.12274e-06
2.84532e-06
-6.02265e-06
3.25989e-06
-6.81266e-06
3.42613e-06
-7.39094e-06
3.49661e-06
-7.88184e-06
3.49837e-06
-8.24145e-06
3.48786e-06
-8.5264e-06
3.36323e-06
-8.76625e-06
3.19816e-06
-8.97606e-06
2.97844e-06
-9.19318e-06
2.74224e-06
-9.42057e-06
2.49792e-06
-9.6641e-06
2.27312e-06
-9.92116e-06
2.08005e-06
-1.01951e-05
1.92938e-06
-1.04889e-05
1.81964e-06
-1.08041e-05
1.74216e-06
-1.11374e-05
1.68141e-06
-1.14804e-05
1.62001e-06
-1.18204e-05
1.54119e-06
-1.2142e-05
1.43237e-06
-1.24298e-05
1.28637e-06
-1.26708e-05
1.10182e-06
-1.2855e-05
8.81767e-07
-1.29758e-05
6.32411e-07
-1.30289e-05
3.62464e-07
-1.30143e-05
8.2243e-08
-1.29319e-05
-2.00775e-07
-1.27817e-05
-4.74882e-07
-1.25693e-05
-7.32777e-07
-1.23026e-05
-9.65257e-07
-1.19909e-05
-1.16615e-06
-1.16444e-05
-1.33163e-06
-1.12737e-05
-1.46085e-06
-1.08881e-05
-1.55549e-06
-1.0496e-05
-1.61939e-06
-1.01036e-05
-1.65764e-06
-9.71551e-06
-1.67576e-06
-9.33454e-06
-1.6793e-06
-8.96194e-06
-1.67343e-06
-8.59775e-06
-1.6627e-06
-8.24097e-06
-1.65096e-06
-7.88974e-06
-1.64154e-06
-7.54157e-06
-1.63688e-06
-7.19363e-06
-1.63846e-06
-6.84299e-06
-1.64679e-06
-6.4868e-06
-1.66148e-06
-6.12251e-06
-1.68146e-06
-5.74812e-06
-1.70479e-06
-5.3626e-06
-1.72877e-06
-4.96601e-06
-1.75081e-06
-4.55939e-06
-1.76864e-06
-4.14508e-06
-1.78022e-06
-3.72587e-06
-1.78554e-06
-3.30445e-06
-1.78593e-06
-2.88292e-06
-1.78376e-06
-2.46199e-06
-1.78303e-06
-2.04097e-06
-1.7867e-06
-1.61784e-06
-1.79665e-06
-1.19e-06
-1.8139e-06
-7.55037e-07
-1.83713e-06
-3.11914e-07
-1.86144e-06
1.40104e-07
-1.88337e-06
5.98358e-07
-1.89483e-06
1.05846e-06
-1.8906e-06
1.51296e-06
-1.86563e-06
1.95288e-06
-1.81854e-06
2.37218e-06
-1.7537e-06
2.7719e-06
-1.67842e-06
3.15659e-06
-1.59434e-06
3.52396e-06
-1.49379e-06
3.86193e-06
-1.36955e-06
4.1584e-06
-1.22496e-06
4.40803e-06
-1.0686e-06
4.60647e-06
-9.07934e-07
4.75113e-06
-7.60486e-07
4.85929e-06
-6.58638e-07
4.97652e-06
-6.18449e-07
5.14841e-06
-6.01412e-07
5.37204e-06
-5.28353e-07
5.58159e-06
-3.52827e-07
5.69935e-06
-1.2011e-07
5.70094e-06
6.67861e-08
5.62938e-06
1.32903e-07
5.55195e-06
8.52674e-08
5.51533e-06
-1.18322e-08
5.52936e-06
-8.68133e-08
5.57602e-06
-1.00794e-07
5.63011e-06
-5.67202e-08
5.6734e-06
2.01369e-08
5.69676e-06
1.0337e-07
5.69566e-06
1.77278e-07
5.66812e-06