/*--------------------------------*- C++ -*----------------------------------*\
  =========                 |
  \\      /  F ield         | OpenFOAM: The Open Source CFD Toolbox
   \\    /   O peration     | Website:  https://openfoam.org
    \\  /    A nd           | Version:  9
     \\/     M anipulation  |
\*---------------------------------------------------------------------------*/
FoamFile
{
    format      ascii;
    class       volScalarField;
    location    "0.038";
    object      s_0;
}
// * * * * * * * * * * * * * * * * * * * * * * * * * * * * * * * * * * * * * //

dimensions      [0 0 0 0 0 0 0];

internalField   nonuniform List<scalar> 
12225
(
1
1
1
1
1
1
1
1
1
1
1
1
1
1
1
1
1
0.999942
1
1
1
1
1
1
1
1
1
1
1
1
1
1
1
1
1
0.999995
1
1
1
1
1
1
1
1
1
1
1
1
1
1
1
1
1
1
1
1
1
1
1
1
1
1
1
1
1
1
1
1
1
1
1
1
1
1
1
1
1
1
1
1
1
1
1
1
1
1
1
1
1
1
1
1
1
1
1
1
1
1
1
1
1
1
1
1
1
1
1
1
1
1
1
1
1
1
1
1
1
1
1
1
1
1
1
1
1
1
1
1
1
1
1
1
1
1
1
1
1
1
1
1
1
1
1
1
1
1
1
1
1
1
1
1
1
1
1
1
1
1
1
1
1
1
1
1
1
1
1
1
1
1
1
1
1
1
1
1
1
1
1
1
1
1
1
1
1
1
1
1
1
1
1
1
1
1
1
1
1
1
1
1
1
1
1
1
1
1
1
1
1
1
1
1
1
1
1
1
1
1
1
1
1
1
1
1
1
1
1
1
1
1
1
1
1
1
1
1
1
1
1
1
1
1
1
1
1
1
1
1
1
1
1
1
1
1
1
1
1
1
1
1
1
1
1
1
1
1
1
1
1
1
1
1
1
1
1
1
1
1
1
1
1
1
1
1
1
1
1
1
1
1
1
1
1
1
1
1
1
1
1
1
1
1
1
1
1
1
1
1
1
1
1
1
1
1
1
1
1
1
1
1
1
1
1
1
1
1
1
1
1
1
1
1
1
1
1
1
1
1
1
1
1
1
1
1
1
1
1
1
1
1
1
1
1
1
1
1
1
1
1
1
1
1
1
1
1
1
1
1
1
1
1
1
1
1
1
1
1
1
1
1
1
1
1
1
1
1
1
1
1
1
1
1
1
1
1
1
1
1
1
1
1
1
1
1
1
1
1
1
1
1
1
1
1
1
1
1
1
1
1
1
1
1
1
1
1
1
1
1
1
1
1
1
1
1
1
1
1
1
1
1
1
1
1
1
1
1
1
1
1
1
1
1
1
1
1
1
1
1
1
1
1
1
1
1
1
1
1
1
1
1
1
1
1
1
1
1
1
1
1
1
1
1
1
1
1
1
1
1
1
1
1
1
1
1
1
1
1
1
1
1
1
1
1
1
1
1
1
1
1
1
1
1
1
1
1
1
1
1
1
1
1
1
1
1
1
1
1
1
1
1
1
1
1
1
1
1
1
1
1
1
0.290927
0.377224
0.402126
0.406589
0.405638
0.419352
0.46194
0.49
0.511502
0.527071
0.539065
0.547664
0.557715
0.568253
0.576598
0.582868
0.587666
0.590919
0.593207
0.595294
0.597407
0.599192
0.600337
0.600826
0.600882
0.600509
0.597624
0.581501
0.43639
0.368858
0.390348
0.391352
0.391812
0.393842
0.396642
0.398538
0.409972
0.42893
0.458553
0.470136
0.478872
0.479109
0.465745
0.374242
0.352908
0.338348
0.348585
0.571932
0.840723
0.857534
0.861762
0.865046
0.866517
0.867397
0.868562
0.869559
0.870301
0.87071
0.871618
0.872958
0.873762
0.874167
0.874869
0.876113
0.877244
0.877846
0.878571
0.879784
0.880753
0.881222
0.881877
0.88285
0.883707
0.88462
0.885877
0.887051
0.887872
0.888909
0.89021
0.891321
0.89212
0.89287
0.893546
0.894139
0.894644
0.894994
0.895225
0.895426
0.89551
0.895389
0.895209
0.895147
0.895129
0.895165
0.895213
0.895302
0.895373
0.895387
0.895347
0.895233
0.895083
0.894878
0.894555
0.894096
0.893512
0.8928
0.891955
0.890991
0.889917
0.888737
0.887442
0.885985
0.884207
0.881755
0.878599
0.874975
0.87125
0.867916
0.865332
0.863297
0.861631
0.860183
0.858871
0.857754
0.856837
0.856028
0.855331
0.85487
0.854632
0.854521
0.854395
0.854094
0.853002
0.850133
0.847415
0.842874
0.834072
0.820866
0.804629
0.78556
0.761005
0.72616
0.676398
0.609705
0.52803
0.43721
0.345509
0.261072
0.189608
0.133345
0.0914983
0.0616219
0.0408832
0.0267779
0.0173347
0.0110861
0.00699069
0.0043389
0.00264865
0.00159013
0.00093904
0.000545508
0.000311669
0.000175057
9.66049e-05
5.23435e-05
2.7824e-05
1.44988e-05
7.39852e-06
3.69392e-06
1.802e-06
8.58225e-07
3.98244e-07
1.7996e-07
7.89045e-08
3.35679e-08
1.3754e-08
5.40985e-09
2.07913e-09
4.80999e-10
0.254914
0.30388
0.298396
0.306694
0.335232
0.394186
0.459159
0.506356
0.54419
0.567469
0.581132
0.592279
0.597085
0.598638
0.599281
0.599193
0.599131
0.599246
0.599751
0.601004
0.601653
0.602923
0.604756
0.605868
0.607923
0.609368
0.609215
0.605822
0.580275
0.488372
0.408059
0.369295
0.337247
0.315425
0.305855
0.30511
0.329311
0.367295
0.445094
0.483471
0.483514
0.482678
0.46654
0.410397
0.606666
0.766479
0.796086
0.826082
0.857865
0.861567
0.863006
0.863617
0.863648
0.862671
0.862238
0.862034
0.861734
0.861425
0.861334
0.861309
0.861608
0.862787
0.864123
0.865877
0.869709
0.871513
0.872153
0.873015
0.874979
0.875754
0.875741
0.875667
0.875961
0.877211
0.879096
0.880833
0.882726
0.885831
0.889804
0.893516
0.897377
0.901429
0.905337
0.909169
0.913037
0.916384
0.919262
0.9225
0.926025
0.929228
0.931472
0.933017
0.934717
0.936198
0.937487
0.938159
0.939152
0.939568
0.939905
0.940092
0.940145
0.939943
0.939233
0.938231
0.936707
0.934791
0.932563
0.930207
0.927604
0.924845
0.922114
0.919666
0.917736
0.916587
0.916093
0.915782
0.915073
0.911941
0.90285
0.892883
0.884826
0.879939
0.877633
0.87682
0.876645
0.876542
0.876133
0.874023
0.867824
0.863077
0.860976
0.860621
0.861057
0.863995
0.87491
0.886841
0.895611
0.904773
0.915371
0.924415
0.928907
0.929597
0.928951
0.926008
0.918114
0.895698
0.859506
0.829285
0.807389
0.785638
0.748952
0.684624
0.591649
0.482402
0.37487
0.281763
0.205387
0.144987
0.0992242
0.0659417
0.042621
0.0268248
0.0164557
0.00984784
0.00575333
0.00328354
0.00183112
0.000998072
0.000531426
0.000276407
0.000140211
6.93894e-05
3.3394e-05
1.56578e-05
7.10306e-06
3.13599e-06
1.3261e-06
5.43643e-07
2.1298e-07
6.64983e-08
0.210781
0.227032
0.328411
0.485694
0.58591
0.630018
0.647078
0.646978
0.644011
0.637618
0.628755
0.621919
0.611124
0.602681
0.597572
0.586669
0.577345
0.57317
0.56728
0.564703
0.565326
0.567699
0.573231
0.58101
0.590863
0.600079
0.605757
0.609607
0.608023
0.593928
0.546878
0.439727
0.370061
0.329981
0.310779
0.295111
0.309406
0.351293
0.442336
0.528911
0.507993
0.499666
0.586325
0.755842
0.811596
0.836492
0.848427
0.856241
0.859203
0.859759
0.858919
0.854451
0.847555
0.838797
0.834427
0.832889
0.832553
0.83352
0.83973
0.8465
0.848645
0.850386
0.853087
0.853809
0.853922
0.853785
0.85256
0.849863
0.845829
0.840254
0.833727
0.827482
0.8223
0.818242
0.815725
0.814598
0.814337
0.817569
0.822604
0.829708
0.841496
0.854725
0.867253
0.878728
0.890205
0.899691
0.908251
0.917453
0.92527
0.932977
0.939392
0.944105
0.9488
0.953024
0.957275
0.959451
0.962857
0.96535
0.96776
0.970026
0.971966
0.973542
0.974636
0.975246
0.975101
0.974107
0.971787
0.968013
0.963085
0.956831
0.949169
0.940531
0.932981
0.927873
0.925392
0.925072
0.926184
0.928292
0.928926
0.928062
0.921622
0.903295
0.889858
0.883799
0.88223
0.882373
0.884403
0.886978
0.887512
0.886884
0.88257
0.87072
0.862385
0.858836
0.858178
0.858339
0.859479
0.864006
0.875003
0.886919
0.899199
0.91218
0.926332
0.941272
0.954825
0.964455
0.969302
0.970623
0.970598
0.9698
0.966591
0.956289
0.944886
0.93385
0.914257
0.868642
0.74113
0.56667
0.414319
0.293737
0.203367
0.137689
0.0910787
0.058841
0.0371202
0.0228686
0.0137542
0.00807523
0.00462346
0.00258091
0.00140194
0.000741336
0.000380324
0.000189727
9.14055e-05
4.27949e-05
1.9185e-05
8.34142e-06
3.43866e-06
1.28405e-06
0.20009
0.481448
0.642087
0.684309
0.685747
0.680539
0.667475
0.652566
0.627181
0.602179
0.577258
0.553586
0.535813
0.51802
0.504371
0.493219
0.48506
0.480402
0.473328
0.471173
0.472265
0.475801
0.483604
0.497812
0.518822
0.554126
0.582594
0.600525
0.608144
0.608033
0.60091
0.575417
0.509291
0.435276
0.373513
0.365992
0.381237
0.429492
0.53322
0.612349
0.619247
0.731488
0.791839
0.82928
0.844443
0.851446
0.8547
0.856058
0.856277
0.852071
0.842174
0.821411
0.804915
0.799843
0.798934
0.799624
0.805203
0.817373
0.832827
0.839918
0.841804
0.84231
0.842321
0.840505
0.834167
0.822166
0.805369
0.785749
0.76516
0.745042
0.724632
0.704827
0.688564
0.67859
0.675732
0.675072
0.675723
0.676862
0.679311
0.684435
0.692875
0.70495
0.718256
0.735976
0.756176
0.776903
0.798364
0.821798
0.844795
0.868448
0.89062
0.906773
0.920534
0.932063
0.942785
0.949507
0.956155
0.96151
0.966088
0.970298
0.974156
0.977736
0.981043
0.984
0.986482
0.988479
0.989943
0.990861
0.990947
0.990055
0.987711
0.982991
0.973188
0.958214
0.942565
0.932925
0.929734
0.930018
0.933011
0.934966
0.935024
0.933109
0.921639
0.900025
0.887633
0.882981
0.88241
0.883846
0.890127
0.894477
0.895185
0.894299
0.888774
0.874641
0.864128
0.857768
0.854832
0.854209
0.854512
0.856939
0.867203
0.883947
0.899079
0.913756
0.928557
0.942892
0.955942
0.96744
0.97724
0.984393
0.988343
0.989664
0.989756
0.989413
0.987935
0.983566
0.972285
0.945626
0.874465
0.704085
0.527831
0.380196
0.265495
0.180727
0.120235
0.0781683
0.0496147
0.0307183
0.0185203
0.0108618
0.00618252
0.00341434
0.00182432
0.000944321
0.000471385
0.000227764
0.000105576
4.72316e-05
2.02009e-05
7.89019e-06
0.617116
0.690913
0.709051
0.704615
0.69064
0.657615
0.615722
0.570298
0.541622
0.520958
0.50507
0.492403
0.48126
0.472123
0.463732
0.458558
0.453305
0.449897
0.447623
0.443717
0.441938
0.442322
0.444301
0.449521
0.462177
0.481738
0.522368
0.570095
0.597437
0.607125
0.608231
0.604315
0.588897
0.553439
0.5109
0.478492
0.482417
0.499556
0.596744
0.729191
0.758858
0.811672
0.832899
0.843598
0.848566
0.851562
0.852733
0.852196
0.846759
0.834165
0.808566
0.781462
0.772047
0.769481
0.769232
0.771237
0.780385
0.799864
0.818254
0.823185
0.823996
0.822494
0.815093
0.79837
0.769638
0.729282
0.683946
0.646755
0.619195
0.607943
0.605658
0.606096
0.610222
0.616438
0.62244
0.629561
0.635215
0.637974
0.64173
0.644368
0.647418
0.651274
0.653364
0.657093
0.661159
0.666185
0.672956
0.681577
0.693042
0.708245
0.728363
0.754804
0.783179
0.811167
0.838031
0.860807
0.879496
0.895331
0.908003
0.919184
0.930103
0.941106
0.95224
0.963113
0.972986
0.981248
0.98747
0.991486
0.993808
0.995006
0.995522
0.995453
0.994504
0.991767
0.984113
0.964578
0.946049
0.937036
0.934891
0.93557
0.936941
0.936932
0.935341
0.926077
0.904923
0.891877
0.886819
0.886123
0.887413
0.893832
0.899339
0.900882
0.900697
0.898343
0.887434
0.871595
0.861889
0.857065
0.855423
0.855304
0.856091
0.860572
0.877045
0.898202
0.915289
0.929724
0.942843
0.955113
0.966088
0.975477
0.983113
0.988927
0.992847
0.994836
0.995366
0.995296
0.994587
0.991935
0.98406
0.963285
0.907058
0.753009
0.570948
0.416052
0.293086
0.200621
0.133815
0.087017
0.0550406
0.0337922
0.020083
0.0115405
0.00639733
0.00342236
0.00176212
0.000874799
0.000416817
0.0001909
8.39813e-05
3.3866e-05
0.723207
0.722352
0.716352
0.695537
0.640574
0.590836
0.55615
0.530749
0.511938
0.497097
0.484193
0.472669
0.461051
0.451151
0.4425
0.436418
0.434037
0.432257
0.43221
0.432423
0.43241
0.431376
0.431319
0.43242
0.436729
0.447992
0.474563
0.511637
0.567801
0.598179
0.607451
0.60837
0.60555
0.59511
0.566507
0.552864
0.52744
0.525968
0.721175
0.783303
0.809454
0.830611
0.83863
0.843524
0.846273
0.846993
0.843604
0.83696
0.822136
0.79895
0.766882
0.748485
0.742745
0.741046
0.74106
0.743793
0.753979
0.773562
0.785365
0.78735
0.786336
0.772122
0.73614
0.676636
0.607223
0.568074
0.552063
0.545076
0.543114
0.544166
0.554464
0.571248
0.586358
0.600484
0.614463
0.62736
0.632414
0.635991
0.640917
0.643599
0.64703
0.649714
0.650905
0.652732
0.654111
0.655418
0.657221
0.65923
0.66185
0.665017
0.668837
0.673487
0.679685
0.688167
0.699119
0.712255
0.726359
0.741511
0.757887
0.775436
0.794387
0.816095
0.841743
0.871649
0.903705
0.93192
0.956314
0.974569
0.986223
0.992701
0.995734
0.996993
0.997459
0.99743
0.996555
0.993238
0.980775
0.959084
0.946052
0.940651
0.93904
0.938488
0.937503
0.933909
0.920066
0.904132
0.89601
0.893594
0.893625
0.895859
0.901549
0.904474
0.905106
0.904803
0.9024
0.892263
0.876883
0.866376
0.860858
0.858997
0.858882
0.859717
0.864271
0.881793
0.906408
0.925627
0.940472
0.952256
0.962042
0.970543
0.978094
0.984632
0.989866
0.993663
0.996038
0.997141
0.99738
0.997287
0.996626
0.994205
0.98687
0.966438
0.908223
0.750465
0.571461
0.419202
0.297008
0.203591
0.135048
0.0866241
0.0536357
0.032017
0.0183874
0.0101575
0.00538975
0.00274916
0.00134541
0.000631358
0.000285202
0.000118604
0.725973
0.723791
0.709581
0.663512
0.605326
0.566398
0.536428
0.514687
0.497627
0.481183
0.461663
0.440317
0.418455
0.398381
0.38358
0.373308
0.375142
0.380667
0.390614
0.40358
0.412486
0.418182
0.420865
0.42232
0.425367
0.432914
0.452953
0.486543
0.526945
0.572844
0.59993
0.607738
0.607419
0.603164
0.58937
0.567743
0.52542
0.609867
0.772299
0.808959
0.824417
0.832871
0.836954
0.83856
0.835989
0.833436
0.827819
0.820031
0.805565
0.784001
0.754961
0.728718
0.722204
0.720587
0.719739
0.719839
0.722868
0.73241
0.737142
0.733824
0.705249
0.6521
0.587734
0.532733
0.507921
0.495781
0.490782
0.48945
0.492203
0.507527
0.527702
0.544275
0.567803
0.592636
0.612531
0.632088
0.640272
0.648298
0.656566
0.660208
0.665853
0.668563
0.670014
0.671469
0.671932
0.672086
0.672112
0.672
0.6718
0.671556
0.671494
0.671965
0.672572
0.673665
0.675463
0.678074
0.681096
0.684091
0.687015
0.690576
0.695274
0.701904
0.711791
0.727369
0.753625
0.797508
0.85405
0.910761
0.949937
0.974616
0.988119
0.994632
0.997336
0.998273
0.998475
0.99816
0.996075
0.986694
0.966419
0.953035
0.946658
0.944069
0.941881
0.937253
0.924504
0.910959
0.903211
0.900544
0.900395
0.901709
0.905665
0.907791
0.908254
0.908098
0.906739
0.900343
0.886678
0.876447
0.87045
0.867806
0.867159
0.867295
0.868855
0.876077
0.899451
0.92443
0.942486
0.955468
0.965132
0.972708
0.978917
0.98416
0.988645
0.992366
0.995198
0.997091
0.99812
0.998482
0.998502
0.998329
0.99749
0.994661
0.986106
0.961442
0.886548
0.712044
0.539844
0.393491
0.275954
0.186069
0.120448
0.0747768
0.0444871
0.0253687
0.013869
0.00727369
0.00365816
0.001762
0.000817802
0.000351052
0.73003
0.727264
0.706054
0.648113
0.589515
0.551308
0.522556
0.501806
0.481182
0.453056
0.416972
0.376715
0.340096
0.309046
0.288595
0.276479
0.277691
0.285986
0.304414
0.336342
0.370848
0.395908
0.407701
0.412614
0.415898
0.422598
0.437562
0.458904
0.501244
0.556463
0.593479
0.604475
0.606604
0.602685
0.589297
0.55624
0.543215
0.719875
0.799821
0.819022
0.826484
0.829913
0.830285
0.825817
0.82263
0.820514
0.81781
0.812023
0.801344
0.784733
0.758703
0.728782
0.7087
0.701908
0.701501
0.702594
0.701877
0.694039
0.678832
0.654253
0.611091
0.547461
0.493759
0.470394
0.456368
0.442754
0.4337
0.430542
0.430704
0.444314
0.472092
0.504391
0.545509
0.580392
0.61329
0.651865
0.672843
0.687216
0.697038
0.701039
0.705424
0.707187
0.709147
0.711271
0.712579
0.714206
0.715189
0.715903
0.716611
0.716137
0.714869
0.712599
0.708944
0.704207
0.699
0.693923
0.689794
0.686977
0.685372
0.684672
0.684843
0.686094
0.688696
0.692913
0.699257
0.709893
0.731257
0.776601
0.852126
0.919944
0.960078
0.981982
0.992563
0.997036
0.998583
0.998899
0.998682
0.996709
0.986763
0.968678
0.957874
0.953139
0.950155
0.944292
0.930263
0.916783
0.908877
0.906079
0.905893
0.907122
0.910311
0.911636
0.911759
0.911394
0.909368
0.901307
0.890112
0.882885
0.8793
0.878093
0.877941
0.878114
0.879126
0.883429
0.899853
0.926624
0.948141
0.963431
0.973506
0.979966
0.984313
0.98764
0.990517
0.993093
0.995283
0.996984
0.998164
0.998854
0.999143
0.99919
0.999136
0.998804
0.997568
0.993629
0.981691
0.946239
0.83397
0.6483
0.480835
0.341182
0.23142
0.149963
0.0928098
0.0548665
0.0309906
0.0167351
0.00864798
0.00427382
0.00203669
0.000901878
0.733237
0.728817
0.700582
0.639035
0.581843
0.544412
0.516934
0.49554
0.464927
0.419331
0.369346
0.326101
0.291378
0.26602
0.250819
0.242186
0.238548
0.240764
0.250646
0.273927
0.313654
0.358004
0.391371
0.406208
0.412583
0.420908
0.43471
0.453918
0.482206
0.533533
0.578475
0.600974
0.604367
0.599182
0.577123
0.555615
0.613062
0.776485
0.812635
0.821288
0.824101
0.822656
0.818167
0.816465
0.815359
0.814156
0.812315
0.808874
0.802108
0.788429
0.768113
0.741553
0.714696
0.698006
0.685676
0.676451
0.672845
0.663707
0.631703
0.587743
0.541208
0.488124
0.442504
0.413459
0.394166
0.366593
0.352682
0.348703
0.350207
0.373796
0.415466
0.453142
0.499951
0.558929
0.613506
0.66634
0.719588
0.760912
0.770715
0.771163
0.767716
0.764071
0.761739
0.760522
0.760045
0.760883
0.762654
0.764684
0.767402
0.771424
0.775537
0.778857
0.780746
0.780307
0.777149
0.76987
0.759158
0.74689
0.735051
0.724476
0.71547
0.708381
0.703626
0.701241
0.701144
0.703992
0.711379
0.725698
0.754316
0.81793
0.895219
0.94845
0.977044
0.990824
0.996648
0.998672
0.999058
0.998786
0.996306
0.984541
0.969464
0.96173
0.958505
0.955196
0.946749
0.931097
0.919862
0.914824
0.913825
0.914286
0.91652
0.917708
0.917728
0.916987
0.913411
0.90243
0.892265
0.886777
0.884865
0.884677
0.885109
0.886495
0.889072
0.894883
0.910912
0.932865
0.952399
0.967987
0.979197
0.986432
0.990617
0.992867
0.994188
0.995257
0.99635
0.997421
0.998325
0.998975
0.999367
0.999541
0.999576
0.999554
0.999399
0.998784
0.996744
0.990347
0.970609
0.908553
0.73899
0.551076
0.391362
0.264425
0.170049
0.104178
0.0608737
0.0339647
0.018123
0.00923838
0.00453139
0.00206808
0.734665
0.729786
0.699067
0.637412
0.579915
0.542221
0.515229
0.492484
0.453967
0.401413
0.350354
0.308946
0.276478
0.255393
0.243254
0.235621
0.230206
0.227232
0.232128
0.255918
0.292197
0.331282
0.364909
0.394479
0.408884
0.41797
0.427628
0.446883
0.48251
0.536071
0.579491
0.596996
0.598393
0.582271
0.569927
0.579121
0.730525
0.80249
0.81717
0.819926
0.81901
0.811788
0.809189
0.80883
0.809959
0.81115
0.810317
0.808338
0.804352
0.797154
0.784925
0.766316
0.74065
0.710649
0.686406
0.663634
0.640063
0.62612
0.605712
0.552789
0.490468
0.439135
0.396089
0.357996
0.325244
0.301633
0.292259
0.28949
0.292379
0.313215
0.339166
0.37019
0.428383
0.497878
0.569897
0.64614
0.720154
0.794233
0.837218
0.857134
0.864613
0.861429
0.853233
0.844237
0.835365
0.826981
0.821737
0.820029
0.820508
0.823487
0.829173
0.836287
0.844036
0.852931
0.863894
0.870791
0.87141
0.864681
0.853153
0.838055
0.819735
0.799525
0.781745
0.768265
0.757002
0.746215
0.737184
0.734385
0.742378
0.773508
0.826962
0.891768
0.944767
0.975704
0.99043
0.996634
0.998763
0.999136
0.998764
0.995638
0.982971
0.970723
0.964979
0.962623
0.959884
0.952507
0.938957
0.929919
0.926389
0.925955
0.926632
0.927703
0.927738
0.926903
0.922525
0.909385
0.897929
0.891496
0.888933
0.888459
0.888676
0.890075
0.895093
0.908002
0.924527
0.941838
0.957951
0.971372
0.981541
0.988611
0.993067
0.995552
0.996777
0.997389
0.997826
0.998276
0.998746
0.999169
0.999485
0.999679
0.999765
0.999782
0.99977
0.999683
0.999328
0.998113
0.994153
0.981333
0.939573
0.802794
0.597123
0.420401
0.28075
0.178079
0.107492
0.0618536
0.0340067
0.0178607
0.00903337
0.00427311
0.736316
0.733327
0.701843
0.644435
0.585238
0.545503
0.51999
0.494874
0.451987
0.397179
0.346593
0.30677
0.275302
0.257249
0.248395
0.24285
0.240602
0.240621
0.249691
0.272947
0.304534
0.337602
0.366446
0.38836
0.402759
0.414189
0.428368
0.450731
0.491392
0.549448
0.577095
0.583727
0.580174
0.575818
0.583138
0.666269
0.784023
0.811904
0.81652
0.815636
0.806864
0.802179
0.801245
0.801248
0.803073
0.807207
0.808397
0.807825
0.80605
0.802979
0.79705
0.786321
0.768793
0.742451
0.705338
0.667498
0.633166
0.598837
0.574797
0.538715
0.471465
0.395611
0.349501
0.32533
0.287578
0.261875
0.25104
0.244211
0.241334
0.241266
0.256175
0.282704
0.325882
0.384041
0.455778
0.543626
0.65891
0.768796
0.845018
0.88001
0.902832
0.917485
0.926642
0.93161
0.933431
0.931431
0.926442
0.920067
0.914977
0.912213
0.911528
0.91408
0.918375
0.925329
0.940316
0.954103
0.959567
0.959548
0.958534
0.955466
0.948928
0.937194
0.918091
0.89795
0.882267
0.86646
0.843516
0.814546
0.79334
0.789963
0.811603
0.86329
0.912358
0.952461
0.978508
0.991584
0.997088
0.998949
0.999248
0.998827
0.995571
0.984104
0.974589
0.970222
0.9685
0.966856
0.962892
0.953345
0.946203
0.943134
0.942388
0.942291
0.942121
0.941399
0.938458
0.927363
0.912169
0.902683
0.898207
0.896891
0.896871
0.897716
0.901632
0.91441
0.931618
0.947745
0.962088
0.973919
0.982975
0.989439
0.993729
0.996328
0.997731
0.998409
0.99875
0.99899
0.999221
0.999444
0.999635
0.999773
0.999854
0.999887
0.999892
0.999882
0.999821
0.999576
0.998709
0.99574
0.985581
0.950615
0.828699
0.611777
0.424313
0.278565
0.173601
0.102943
0.0582552
0.0314753
0.01637
0.00799028
0.7391
0.740475
0.7135
0.657583
0.599696
0.559059
0.532287
0.512141
0.476618
0.423488
0.379085
0.343829
0.311614
0.291887
0.282165
0.277661
0.276444
0.280307
0.292837
0.309016
0.330667
0.352528
0.372627
0.390957
0.404651
0.417591
0.43626
0.46844
0.523368
0.558886
0.570591
0.574878
0.578542
0.587109
0.639409
0.760856
0.80533
0.814594
0.81523
0.809243
0.797448
0.793203
0.792513
0.792739
0.794266
0.798082
0.80369
0.80585
0.805813
0.804427
0.802019
0.797258
0.787823
0.769958
0.739479
0.693218
0.641544
0.599478
0.569934
0.542373
0.481076
0.400828
0.339072
0.294183
0.26355
0.242682
0.227329
0.217775
0.213465
0.212649
0.219183
0.234543
0.262233
0.30663
0.3597
0.423632
0.511644
0.667306
0.805917
0.872702
0.904542
0.924324
0.938581
0.949812
0.958332
0.964568
0.968974
0.972043
0.974291
0.975937
0.977199
0.978503
0.979976
0.981865
0.985491
0.988538
0.99049
0.990851
0.990697
0.990196
0.989228
0.98761
0.984104
0.977933
0.971952
0.967375
0.961146
0.947987
0.919637
0.884735
0.863979
0.868167
0.903637
0.940002
0.966492
0.98418
0.993704
0.997817
0.999208
0.999429
0.999101
0.996616
0.987881
0.98054
0.977137
0.975831
0.975103
0.973824
0.970167
0.965136
0.962194
0.96092
0.960187
0.959001
0.956377
0.948849
0.936712
0.92671
0.920404
0.917544
0.916845
0.916916
0.917898
0.922393
0.936073
0.95201
0.965432
0.976196
0.984359
0.990208
0.994153
0.996633
0.998064
0.998818
0.999196
0.999405
0.999553
0.999678
0.999783
0.999862
0.999914
0.999941
0.999949
0.999949
0.999938
0.999885
0.999675
0.998904
0.996119
0.986046
0.949686
0.819656
0.593851
0.403696
0.25971
0.158643
0.0923443
0.0512788
0.0273919
0.0137681
0.742386
0.746918
0.727451
0.675166
0.624314
0.580244
0.546313
0.531315
0.510503
0.471318
0.42686
0.388984
0.359708
0.336093
0.323793
0.317953
0.316057
0.317596
0.328589
0.339784
0.354346
0.371625
0.385756
0.402341
0.417731
0.438637
0.47262
0.515191
0.54706
0.562176
0.571368
0.578343
0.593922
0.639389
0.748765
0.797735
0.81303
0.815746
0.815026
0.808063
0.795959
0.789723
0.787383
0.786494
0.786562
0.787964
0.791367
0.797097
0.801846
0.803087
0.802228
0.799866
0.795177
0.785595
0.766003
0.72991
0.673264
0.612497
0.57485
0.550883
0.506227
0.426813
0.352891
0.299778
0.265987
0.242042
0.223043
0.210757
0.205197
0.204325
0.207729
0.216965
0.237171
0.27604
0.322484
0.378588
0.435147
0.514433
0.691191
0.823214
0.887563
0.918964
0.937387
0.950267
0.959993
0.967438
0.973185
0.97773
0.981538
0.98487
0.987826
0.990415
0.992653
0.994302
0.995737
0.996836
0.997597
0.99805
0.998147
0.998121
0.997997
0.997744
0.9973
0.996277
0.994542
0.993047
0.991817
0.989885
0.985869
0.976731
0.95986
0.939586
0.930992
0.939526
0.962875
0.9793
0.989973
0.995915
0.998559
0.999474
0.999637
0.999482
0.998264
0.993195
0.987593
0.984806
0.983719
0.983319
0.983014
0.982375
0.980488
0.978859
0.977916
0.976427
0.972646
0.964854
0.958021
0.953403
0.950417
0.948149
0.946355
0.945315
0.945066
0.945292
0.947589
0.95661
0.96932
0.97924
0.986528
0.991621
0.995001
0.997123
0.998373
0.999064
0.999429
0.999626
0.999744
0.999826
0.999886
0.999928
0.999956
0.999971
0.999977
0.999978
0.999976
0.999963
0.999906
0.99968
0.998817
0.995541
0.983166
0.937069
0.776902
0.547246
0.363415
0.228627
0.136822
0.0780295
0.0427684
0.0221031
0.743866
0.750592
0.740367
0.708676
0.665596
0.614761
0.572609
0.550343
0.533203
0.518535
0.491236
0.460924
0.439197
0.41511
0.400785
0.390488
0.385727
0.384151
0.385252
0.392947
0.400838
0.412213
0.425305
0.444007
0.464363
0.490526
0.516806
0.540167
0.559621
0.570773
0.584585
0.608646
0.665001
0.751229
0.793933
0.811054
0.816019
0.816807
0.815355
0.808572
0.797038
0.789902
0.786955
0.785247
0.783954
0.783229
0.783342
0.78472
0.787765
0.792584
0.796764
0.797811
0.795258
0.789492
0.777665
0.751171
0.705488
0.646285
0.593642
0.567162
0.53762
0.479105
0.398878
0.328891
0.283509
0.252834
0.231282
0.217493
0.210739
0.205292
0.206584
0.213069
0.229268
0.265095
0.307485
0.361151
0.412695
0.463806
0.544739
0.718444
0.838506
0.896687
0.925343
0.941873
0.952787
0.960436
0.966065
0.970587
0.974884
0.979544
0.984527
0.989175
0.992815
0.995333
0.997032
0.998138
0.99884
0.999269
0.999504
0.9996
0.999618
0.999607
0.999562
0.999461
0.9992
0.998837
0.998556
0.998181
0.99739
0.995576
0.992907
0.988719
0.981554
0.973313
0.971393
0.978112
0.988198
0.994286
0.997634
0.999145
0.999687
0.999803
0.999761
0.999365
0.997459
0.993933
0.991649
0.990543
0.990103
0.989935
0.989722
0.989332
0.988977
0.988354
0.986862
0.982288
0.976506
0.972866
0.971232
0.970713
0.970193
0.969114
0.96822
0.967965
0.968133
0.969701
0.97609
0.984309
0.990166
0.99407
0.996535
0.998021
0.998881
0.999361
0.999623
0.99977
0.999856
0.99991
0.999945
0.999967
0.999981
0.999988
0.999991
0.999991
0.999991
0.999987
0.999969
0.999894
0.999592
0.998392
0.993668
0.975372
0.906213
0.700336
0.47953
0.310649
0.191051
0.111825
0.0628357
0.0333488
0.74482
0.754264
0.751378
0.732499
0.701919
0.665856
0.628043
0.594503
0.569047
0.549023
0.529958
0.511743
0.496772
0.480814
0.470012
0.459993
0.454722
0.452316
0.451769
0.45573
0.462901
0.472533
0.485489
0.499721
0.517056
0.535197
0.555058
0.57389
0.592214
0.612402
0.653598
0.709166
0.767012
0.798117
0.812441
0.817878
0.819195
0.8191
0.816862
0.810813
0.801546
0.79389
0.78975
0.787119
0.784913
0.783291
0.782194
0.781318
0.780768
0.780741
0.781814
0.784759
0.786476
0.785327
0.778453
0.763435
0.728676
0.675016
0.626392
0.594547
0.573001
0.537317
0.482662
0.414526
0.337909
0.289912
0.258407
0.239454
0.228723
0.222401
0.224083
0.230385
0.243496
0.27256
0.306433
0.357378
0.408223
0.454094
0.502677
0.586765
0.75059
0.85189
0.89912
0.920246
0.930168
0.934495
0.936469
0.937936
0.940912
0.947474
0.958195
0.971232
0.982756
0.990795
0.995384
0.997708
0.998819
0.999364
0.99965
0.999805
0.999882
0.999913
0.999919
0.999916
0.999898
0.99985
0.999805
0.999742
0.999609
0.999236
0.998466
0.997819
0.996899
0.994868
0.991392
0.988776
0.989311
0.993581
0.99698
0.998744
0.999537
0.999828
0.9999
0.999892
0.999779
0.999215
0.997593
0.996153
0.995269
0.994823
0.994608
0.994492
0.994397
0.99423
0.993851
0.992734
0.989762
0.987292
0.98614
0.985791
0.985502
0.984743
0.983656
0.983052
0.982966
0.983264
0.985079
0.989917
0.993883
0.99646
0.998009
0.998893
0.999381
0.999646
0.999792
0.999876
0.999925
0.999956
0.999975
0.999986
0.999992
0.999995
0.999997
0.999997
0.999997
0.999995
0.999989
0.99996
0.99984
0.999345
0.997326
0.989244
0.957727
0.838267
0.600413
0.40062
0.253018
0.151872
0.0874033
0.0475734
0.745393
0.756953
0.757513
0.751287
0.742041
0.730585
0.70513
0.684623
0.668832
0.648382
0.634698
0.624887
0.614515
0.608104
0.600599
0.596475
0.594436
0.593645
0.594319
0.595394
0.597823
0.604724
0.612892
0.620506
0.630478
0.640501
0.65646
0.676366
0.702297
0.731614
0.76277
0.789333
0.80763
0.817763
0.822223
0.823951
0.824368
0.824303
0.822427
0.818171
0.813789
0.809002
0.804549
0.800479
0.795588
0.790468
0.786523
0.783617
0.781424
0.779596
0.7778
0.77698
0.775434
0.773091
0.77088
0.763696
0.747949
0.711748
0.657207
0.618685
0.595509
0.575887
0.545353
0.505441
0.460106
0.402843
0.344551
0.303958
0.283503
0.268666
0.26981
0.276522
0.291138
0.3216
0.356526
0.393194
0.432942
0.468385
0.501082
0.546524
0.631824
0.773723
0.854929
0.886427
0.893201
0.887494
0.878816
0.871706
0.868235
0.871122
0.884909
0.912724
0.945219
0.970593
0.986131
0.994011
0.997525
0.998976
0.999558
0.999797
0.999902
0.999951
0.999974
0.999983
0.999985
0.999984
0.99998
0.999973
0.999958
0.999916
0.999764
0.999565
0.999417
0.999175
0.998572
0.997052
0.995752
0.99555
0.996747
0.998506
0.999385
0.99977
0.999912
0.999948
0.999946
0.999899
0.999649
0.998913
0.998279
0.997918
0.997755
0.997691
0.997657
0.997606
0.997489
0.997144
0.996013
0.994889
0.994415
0.99429
0.994158
0.993769
0.992843
0.99216
0.991931
0.991969
0.992457
0.99444
0.99672
0.998164
0.998999
0.999456
0.999699
0.999828
0.999899
0.99994
0.999965
0.99998
0.999989
0.999995
0.999997
0.999998
0.999999
0.999999
0.999999
0.999998
0.999996
0.999983
0.999929
0.999698
0.998735
0.994781
0.978974
0.917872
0.722144
0.494077
0.320173
0.196938
0.115987
0.0646838
0.745632
0.762814
0.766778
0.767492
0.764231
0.758722
0.752279
0.747454
0.743436
0.738689
0.733867
0.729629
0.727714
0.726676
0.725882
0.724967
0.724156
0.723848
0.723743
0.723947
0.726494
0.731214
0.735765
0.739579
0.744822
0.752295
0.762032
0.773417
0.786967
0.799596
0.809513
0.817902
0.822847
0.826296
0.827687
0.828278
0.828472
0.828496
0.828077
0.826497
0.824385
0.822126
0.819862
0.817725
0.815036
0.811203
0.805717
0.799248
0.792675
0.785705
0.780779
0.777892
0.775169
0.770752
0.767402
0.762477
0.755643
0.741667
0.714232
0.662045
0.625242
0.600592
0.574814
0.556026
0.528394
0.501309
0.471465
0.434391
0.412119
0.393182
0.381782
0.383629
0.390793
0.406321
0.433627
0.445333
0.461214
0.510431
0.543525
0.557466
0.588869
0.665033
0.784156
0.843021
0.854302
0.853246
0.847966
0.842369
0.837601
0.833211
0.829674
0.833198
0.860397
0.916222
0.959076
0.98237
0.993025
0.99738
0.999036
0.999641
0.999862
0.999944
0.999976
0.999989
0.999995
0.999997
0.999998
0.999998
0.999997
0.999994
0.999982
0.999947
0.999916
0.999872
0.999772
0.999446
0.998707
0.998222
0.998135
0.998528
0.999324
0.999728
0.999898
0.999958
0.999971
0.999967
0.999931
0.999747
0.999399
0.99918
0.999093
0.999078
0.999081
0.99908
0.999062
0.998973
0.998604
0.998139
0.997948
0.997906
0.997865
0.997727
0.997263
0.996807
0.996622
0.996615
0.996776
0.997567
0.998605
0.999244
0.999597
0.999781
0.999877
0.999927
0.999956
0.999974
0.999985
0.999992
0.999996
0.999998
0.999999
0.999999
1
1
1
0.999999
0.999998
0.999992
0.999964
0.999843
0.99933
0.997184
0.988437
0.953947
0.823167
0.584139
0.388051
0.244257
0.147024
0.0839015
0.745247
0.768685
0.775794
0.775723
0.774121
0.7708
0.769078
0.768482
0.768526
0.769572
0.771551
0.773155
0.775661
0.776936
0.779853
0.781347
0.782502
0.784032
0.785073
0.7861
0.787152
0.788417
0.79026
0.793166
0.796393
0.7995
0.803299
0.808454
0.814092
0.818962
0.822577
0.825494
0.827312
0.828851
0.829455
0.829811
0.829961
0.830012
0.829945
0.829586
0.82884
0.827774
0.826517
0.825269
0.823972
0.822124
0.820155
0.816406
0.813139
0.806491
0.797573
0.78861
0.781241
0.774073
0.768919
0.763564
0.75757
0.750095
0.740349
0.719394
0.686638
0.647626
0.610044
0.587463
0.562348
0.540282
0.524885
0.508309
0.489419
0.480127
0.471135
0.470338
0.472631
0.477975
0.486088
0.499523
0.514607
0.543433
0.587094
0.604441
0.608211
0.624212
0.684769
0.781036