/*--------------------------------*- C++ -*----------------------------------*\
  =========                 |
  \\      /  F ield         | OpenFOAM: The Open Source CFD Toolbox
   \\    /   O peration     | Website:  https://openfoam.org
    \\  /    A nd           | Version:  9
     \\/     M anipulation  |
\*---------------------------------------------------------------------------*/
FoamFile
{
    format      ascii;
    class       volVectorField;
    location    "0.038";
    object      U_0;
}
// * * * * * * * * * * * * * * * * * * * * * * * * * * * * * * * * * * * * * //

dimensions      [0 1 -1 0 0 0 0];

internalField   nonuniform List<vector> 
12225
(
(9.78611 0.147837 0)
(9.42636 0.105984 0)
(9.12711 0.0798281 0)
(8.86877 0.0692148 0)
(8.57555 0.0736147 0)
(8.2036 0.0823048 0)
(7.79048 0.0801871 0)
(7.41152 0.0657527 0)
(7.10784 0.0488551 0)
(6.87324 0.0400634 0)
(6.65511 0.0457616 0)
(6.39238 0.0663065 0)
(6.03188 0.0975267 0)
(5.53324 0.131209 0)
(4.91491 0.15679 0)
(4.15689 0.19109 0)
(3.29367 0.22417 0)
(2.20165 0.338355 0)
(9.97748 0.0757358 0)
(10.0253 0.0403596 0)
(10.0494 0.0421383 0)
(10.1012 0.0515578 0)
(10.099 0.075141 0)
(10.0543 0.104603 0)
(9.98575 0.121483 0)
(9.89574 0.116738 0)
(9.78589 0.100126 0)
(9.66459 0.0886053 0)
(9.53141 0.0948359 0)
(9.38717 0.123517 0)
(9.22363 0.175245 0)
(9.02169 0.2447 0)
(8.77786 0.326975 0)
(8.44529 0.41843 0)
(8.02143 0.532331 0)
(7.46586 0.685134 0)
(10.099 0.113189 0)
(10.0191 0.106194 0)
(10.0236 0.059441 0)
(10.0295 0.0616699 0)
(10.0216 0.0918803 0)
(10.0264 0.120456 0)
(10.0363 0.133364 0)
(10.0177 0.13147 0)
(9.95585 0.125646 0)
(9.86109 0.126959 0)
(9.7492 0.141333 0)
(9.63296 0.172774 0)
(9.52189 0.224381 0)
(9.41428 0.293494 0)
(9.31581 0.377091 0)
(9.20321 0.486483 0)
(9.07954 0.622494 0)
(8.93738 0.813729 0)
(10.1152 0.0331038 0)
(10.1827 0.052079 0)
(10.0756 0.0542718 0)
(9.96166 0.0582851 0)
(9.90742 0.0686987 0)
(9.92147 0.0903848 0)
(9.9697 0.115808 0)
(10.0128 0.132022 0)
(10.0332 0.138314 0)
(10.0264 0.145269 0)
(9.98806 0.164865 0)
(9.9181 0.204297 0)
(9.82436 0.265075 0)
(9.72136 0.344079 0)
(9.62016 0.438393 0)
(9.52571 0.556383 0)
(9.43738 0.697127 0)
(9.35907 0.879538 0)
(9.99589 0.0247228 0)
(9.96854 0.109979 0)
(9.94099 0.11089 0)
(9.96996 0.10595 0)
(10.0169 0.102681 0)
(10.0498 0.104415 0)
(10.0456 0.111158 0)
(9.99627 0.118846 0)
(9.91897 0.131198 0)
(9.83816 0.155722 0)
(9.76492 0.194682 0)
(9.69975 0.246241 0)
(9.63948 0.307232 0)
(9.58647 0.378113 0)
(9.54005 0.461924 0)
(9.50342 0.569761 0)
(9.47539 0.706015 0)
(9.45558 0.881765 0)
(9.91465 -0.0293025 0)
(10.0588 0.0519744 0)
(10.0609 0.0712872 0)
(10.0652 0.0466892 0)
(10.0236 0.0391271 0)
(9.93355 0.0762944 0)
(9.83741 0.13384 0)
(9.76497 0.175276 0)
(9.73094 0.190497 0)
(9.73441 0.194851 0)
(9.76072 0.208973 0)
(9.78851 0.246524 0)
(9.79873 0.308791 0)
(9.77952 0.391197 0)
(9.73032 0.488226 0)
(9.66461 0.603427 0)
(9.59754 0.737967 0)
(9.55286 0.903261 0)
(10.1879 0.0105357 0)
(10.1525 0.0649189 0)
(10.1514 0.0942894 0)
(10.1307 0.118112 0)
(10.0204 0.148671 0)
(9.89462 0.171931 0)
(9.81943 0.173847 0)
(9.79467 0.158483 0)
(9.79378 0.143972 0)
(9.79583 0.147961 0)
(9.79258 0.178943 0)
(9.78357 0.238056 0)
(9.76746 0.32018 0)
(9.74155 0.418422 0)
(9.70184 0.524544 0)
(9.65461 0.640052 0)
(9.60549 0.763827 0)
(9.57366 0.908822 0)
(9.96307 -0.059398 0)
(10.0118 0.0581281 0)
(9.98692 0.091136 0)
(10.022 0.102937 0)
(10.0613 0.117759 0)
(10.0755 0.146062 0)
(10.0461 0.174426 0)
(9.97049 0.189456 0)
(9.87548 0.192294 0)
(9.79837 0.194313 0)
(9.76078 0.209579 0)
(9.76485 0.25085 0)
(9.79496 0.321719 0)
(9.83261 0.418621 0)
(9.8572 0.531596 0)
(9.86208 0.655739 0)
(9.84461 0.78654 0)
(9.81694 0.927502 0)
(9.77187 0.0479245 0)
(9.80013 0.0627993 0)
(9.89254 0.0770798 0)
(9.97334 0.0875408 0)
(10.0145 0.124316 0)
(10.0132 0.176762 0)
(9.96527 0.216699 0)
(9.89057 0.229585 0)
(9.82508 0.219689 0)
(9.78693 0.203202 0)
(9.77059 0.200315 0)
(9.76361 0.228133 0)
(9.75762 0.29269 0)
(9.74943 0.390882 0)
(9.73822 0.511638 0)
(9.72858 0.647068 0)
(9.72133 0.78777 0)
(9.73114 0.93345 0)
(9.85179 0.0631281 0)
(9.86208 -0.00633134 0)
(9.88916 0.0293812 0)
(9.86854 0.0603599 0)
(9.80988 0.101552 0)
(9.76734 0.170815 0)
(9.75969 0.233515 0)
(9.78016 0.257932 0)
(9.81341 0.245326 0)
(9.8372 0.221894 0)
(9.83679 0.217898 0)
(9.8142 0.252173 0)
(9.78096 0.325644 0)
(9.75024 0.429421 0)
(9.72803 0.547512 0)
(9.72201 0.672076 0)
(9.73079 0.792059 0)
(9.7634 0.910675 0)
(10.0386 0.0974534 0)
(10.0396 0.0239039 0)
(10.0511 0.0824961 0)
(10.0256 0.134705 0)
(9.9814 0.173449 0)
(9.96029 0.199873 0)
(9.97756 0.204292 0)
(10.0156 0.193803 0)
(10.0374 0.184924 0)
(10.0102 0.19169 0)
(9.92822 0.220329 0)
(9.81702 0.272289 0)
(9.7116 0.344672 0)
(9.64087 0.435522 0)
(9.61334 0.538334 0)
(9.62754 0.649747 0)
(9.67092 0.76142 0)
(9.73432 0.87296 0)
(10.0561 0.0489337 0)
(10.0262 -0.0282857 0)
(9.93189 0.034947 0)
(9.86315 0.0810327 0)
(9.88982 0.123597 0)
(9.97643 0.173812 0)
(10.0539 0.21115 0)
(10.083 0.23271 0)
(10.0649 0.251652 0)
(10.0203 0.28081 0)
(9.96723 0.322838 0)
(9.91427 0.37382 0)
(9.86596 0.42793 0)
(9.82732 0.486191 0)
(9.8074 0.549765 0)
(9.81084 0.623889 0)
(9.84258 0.70593 0)
(9.89579 0.798954 0)
(10.1112 0.0151756 0)
(10.0443 0.077888 0)
(9.87609 0.160247 0)
(9.79477 0.169162 0)
(9.86206 0.13897 0)
(10.0015 0.125331 0)
(10.1144 0.143904 0)
(10.1557 0.178623 0)
(10.139 0.212649 0)
(10.1048 0.244945 0)
(10.0834 0.284154 0)
(10.0835 0.337589 0)
(10.0965 0.403963 0)
(10.1104 0.478869 0)
(10.1179 0.555818 0)
(10.1196 0.632839 0)
(10.1221 0.707164 0)
(10.1314 0.781725 0)
(9.92881 -0.0203114 0)
(9.85912 0.0877828 0)
(9.82949 0.120458 0)
(9.86463 0.044867 0)
(9.94101 -0.0108689 0)
(10.023 0.0260375 0)
(10.0924 0.130093 0)
(10.1332 0.236273 0)
(10.1408 0.302759 0)
(10.1238 0.330745 0)
(10.0989 0.344095 0)
(10.0811 0.364938 0)
(10.08 0.402864 0)
(10.095 0.458757 0)
(10.1223 0.526591 0)
(10.1561 0.601593 0)
(10.1948 0.676186 0)
(10.239 0.74975 0)
(9.97611 0.075034 0)
(9.99913 0.0714222 0)
(10.0363 0.151681 0)
(10.0496 0.143573 0)
(9.99119 0.0831406 0)
(9.9175 0.0452682 0)
(9.89257 0.05976 0)
(9.91382 0.117584 0)
(9.94599 0.190148 0)
(9.9672 0.256066 0)
(9.97669 0.309305 0)
(9.98691 0.354973 0)
(10.0089 0.400837 0)
(10.0486 0.454667 0)
(10.1009 0.515297 0)
(10.1612 0.580074 0)
(10.222 0.639798 0)
(10.2827 0.692699 0)
(9.88498 -0.0826216 0)
(9.90104 -0.0220072 0)
(9.98967 0.0496667 0)
(10.0886 0.0699371 0)
(10.1384 0.0823843 0)
(10.1231 0.107086 0)
(10.0695 0.156688 0)
(10.0028 0.225603 0)
(9.9435 0.290578 0)
(9.91 0.330986 0)
(9.90766 0.341747 0)
(9.93402 0.334494 0)
(9.98305 0.327869 0)
(10.0507 0.338232 0)
(10.1282 0.372884 0)
(10.2098 0.428415 0)
(10.2871 0.496393 0)
(10.3591 0.566891 0)
(9.97126 0.0315509 0)
(9.96915 0.000687247 0)
(9.97939 0.00640887 0)
(10.0106 0.0189032 0)
(10.0103 0.048666 0)
(9.98618 0.0997523 0)
(9.98096 0.16461 0)
(9.99916 0.223082 0)
(10.0341 0.258746 0)
(10.0796 0.267486 0)
(10.1234 0.25676 0)
(10.1542 0.242418 0)
(10.1706 0.24005 0)
(10.1794 0.260007 0)
(10.1866 0.302985 0)
(10.199 0.363649 0)
(10.2159 0.43213 0)
(10.2434 0.500011 0)
(10.0912 0.0109971 0)
(10.1192 -0.0729434 0)
(10.1497 -0.0182231 0)
(10.1715 0.0660676 0)
(10.1468 0.120793 0)
(10.0899 0.151128 0)
(10.0494 0.164358 0)
(10.0394 0.173532 0)
(10.0544 0.193551 0)
(10.0845 0.226451 0)
(10.116 0.262315 0)
(10.1396 0.292087 0)
(10.1546 0.313594 0)
(10.1661 0.332465 0)
(10.181 0.353912 0)
(10.2046 0.38126 0)
(10.2397 0.41179 0)
(10.2872 0.441945 0)
(9.96606 -0.088568 0)
(10.0333 -0.0519794 0)
(10.0466 -0.0248014 0)
(10.0503 0.0525144 0)
(10.0496 0.146506 0)
(10.0398 0.210813 0)
(10.0372 0.227092 0)
(10.0472 0.20598 0)
(10.0637 0.170022 0)
(10.0786 0.139922 0)
(10.0875 0.127581 0)
(10.0935 0.134099 0)
(10.1013 0.153299 0)
(10.1147 0.176433 0)
(10.1355 0.197202 0)
(10.1663 0.214982 0)
(10.2064 0.229265 0)
(10.2564 0.246333 0)
(10.0674 0.0736121 0)
(10.1457 -0.0543405 0)
(10.1054 -0.0766334 0)
(10.0586 0.0547736 0)
(10.0731 0.162111 0)
(10.1157 0.188637 0)
(10.155 0.165978 0)
(10.1748 0.145628 0)
(10.174 0.156887 0)
(10.1596 0.1952 0)
(10.1404 0.238515 0)
(10.1245 0.267034 0)
(10.1183 0.272728 0)
(10.123 0.258928 0)
(10.136 0.233115 0)
(10.1549 0.20595 0)
(10.1775 0.182091 0)
(10.2046 0.169076 0)
(9.83103 0.0284639 0)
(9.8776 -0.017815 0)
(9.92019 0.0260385 0)
(9.95365 0.0659354 0)
(9.99178 0.0754601 0)
(10.043 0.088685 0)
(10.0851 0.11661 0)
(10.1142 0.149243 0)
(10.1396 0.175727 0)
(10.1653 0.189491 0)
(10.1899 0.190375 0)
(10.2126 0.182419 0)
(10.234 0.169719 0)
(10.2547 0.156362 0)
(10.2743 0.143581 0)
(10.2932 0.133106 0)
(10.3126 0.123695 0)
(10.3324 0.115697 0)
(9.88115 -0.0425616 0)
(9.88731 -0.175901 0)
(9.84737 -0.0968891 0)
(9.90477 -0.00208021 0)
(10.0114 0.0644978 0)
(10.0863 0.0921355 0)
(10.1252 0.0911171 0)
(10.164 0.0911137 0)
(10.2151 0.110486 0)
(10.2631 0.144756 0)
(10.2917 0.179264 0)
(10.3005 0.201435 0)
(10.3008 0.205144 0)
(10.3063 0.191635 0)
(10.3246 0.166071 0)
(10.3551 0.136157 0)
(10.3937 0.107375 0)
(10.4317 0.0845088 0)
(10.109 -0.0445184 0)
(9.98598 -0.0414207 0)
(9.9163 -0.0597885 0)
(9.86586 -0.0773802 0)
(9.89881 -0.0508334 0)
(9.98217 -0.00772439 0)
(10.0588 0.0208353 0)
(10.1133 0.0376325 0)
(10.1551 0.0611545 0)
(10.1992 0.10065 0)
(10.2567 0.14348 0)
(10.3279 0.168183 0)
(10.4026 0.161918 0)
(10.4669 0.127346 0)
(10.5084 0.0797776 0)
(10.5232 0.0368061 0)
(10.514 0.011561 0)
(10.4888 0.00887451 0)
(9.8953 -0.0322495 0)
(9.98732 0.0230234 0)
(10.0807 -0.0201804 0)
(10.0988 -0.0399513 0)
(10.0918 -0.0413268 0)
(10.1118 -0.0407392 0)
(10.1487 -0.0277996 0)
(10.1689 -0.000932188 0)
(10.1618 0.0271346 0)
(10.1444 0.0442486 0)
(10.1398 0.049212 0)
(10.1612 0.049772 0)
(10.2071 0.0547199 0)
(10.2667 0.0692333 0)
(10.3284 0.091695 0)
(10.3828 0.115779 0)
(10.4268 0.134956 0)
(10.4601 0.142825 0)
(9.99463 -0.15065 0)
(9.93791 -0.118392 0)
(9.96698 -0.110098 0)
(10.0432 -0.0630266 0)
(10.1074 -0.0465944 0)
(10.1121 -0.0520532 0)
(10.0682 -0.0325405 0)
(10.0234 0.0197005 0)
(10.0072 0.0778207 0)
(10.0199 0.114337 0)
(10.0501 0.116851 0)
(10.0873 0.0892477 0)
(10.1265 0.0448512 0)
(10.1675 -0.00124225 0)
(10.2121 -0.0359939 0)
(10.2606 -0.0533622 0)
(10.3117 -0.0524651 0)
(10.3619 -0.0359998 0)
(10.1308 -0.0403127 0)
(10.1584 -0.0067554 0)
(10.0844 -0.116591 0)
(10.0186 -0.13966 0)
(10.0083 -0.0732614 0)
(10.0366 -0.00500224 0)
(10.0723 0.0327859 0)
(10.1074 0.0420508 0)
(10.1482 0.0335587 0)
(10.1928 0.0192874 0)
(10.23 0.0057338 0)
(10.2534 -0.00464083 0)
(10.2657 -0.0105256 0)
(10.2746 -0.0116027 0)
(10.2876 -0.00777588 0)
(10.3081 8.21545e-05 0)
(10.3359 0.0104479 0)
(10.3683 0.021292 0)
(9.99242 -0.125361 0)
(10.0272 -0.0857932 0)
(10.0008 -0.0244688 0)
(9.91601 -0.0393425 0)
(9.88191 -0.0736173 0)
(9.93175 -0.0875002 0)
(10.0136 -0.0674913 0)
(10.0774 -0.0251804 0)
(10.1147 0.0209275 0)
(10.1391 0.0546162 0)
(10.1635 0.0667777 0)
(10.1931 0.0548525 0)
(10.2263 0.0234286 0)
(10.257 -0.0174958 0)
(10.2809 -0.055709 0)
(10.2989 -0.0816269 0)
(10.3136 -0.090646 0)
(10.3307 -0.081439 0)
(9.97885 -0.00193007 0)
(9.97697 -0.0279889 0)
(10.0208 -0.0468844 0)
(10.0765 -0.0599956 0)
(10.0798 -0.0694486 0)
(10.0541 -0.0629231 0)
(10.0357 -0.0393306 0)
(10.04 -0.0145882 0)
(10.0771 -0.00259867 0)
(10.1484 -0.00566261 0)
(10.2418 -0.0189297 0)
(10.337 -0.0349913 0)
(10.4141 -0.0466168 0)
(10.4595 -0.0496188 0)
(10.471 -0.0454112 0)
(10.4592 -0.0376259 0)
(10.4384 -0.0304842 0)
(10.4237 -0.0260018 0)
(10.2182 -0.0957117 0)
(10.2196 -0.0704353 0)
(10.1921 -0.0660022 0)
(10.1521 -0.0830778 0)
(10.099 -0.0878992 0)
(10.0726 -0.079705 0)
(10.083 -0.0623563 0)
(10.1111 -0.0431385 0)
(10.1434 -0.0308627 0)
(10.1728 -0.0290881 0)
(10.1933 -0.0352011 0)
(10.2034 -0.0433769 0)
(10.2063 -0.0486519 0)
(10.208 -0.0505632 0)
(10.2133 -0.0514341 0)
(10.2262 -0.053235 0)
(10.2461 -0.0571988 0)
(10.2719 -0.0607283 0)
(9.98409 0.0102429 0)
(9.8608 -0.0134699 0)
(9.78945 -0.00466404 0)
(9.64021 -0.0165238 0)
(9.42561 -0.0372821 0)
(9.20875 -0.0521075 0)
(9.02462 -0.0534845 0)
(8.88256 -0.0443377 0)
(8.78198 -0.034053 0)
(8.70492 -0.0300981 0)
(8.625 -0.0339179 0)
(8.52855 -0.041716 0)
(8.41739 -0.0485301 0)
(8.30154 -0.0526245 0)
(8.18473 -0.0549891 0)
(8.07086 -0.0570837 0)
(7.95476 -0.0592821 0)
(7.84076 -0.0589799 0)
(-0.229978 0.580707 -4.18462e-20)
(-0.560911 0.265205 4.15395e-20)
(-0.721099 0.0562735 0)
(-0.731006 -0.185725 0)
(-0.572421 -0.329413 0)
(-0.293639 -0.466111 -4.03619e-20)
(0.10788 -0.57335 0)
(0.619694 -0.646222 0)
(1.19425 -0.679216 0)
(1.78578 -0.677389 0)
(2.36856 -0.650448 3.89016e-20)
(2.92865 -0.603511 0)
(3.45336 -0.540874 0)
(3.92902 -0.468069 0)
(4.34343 -0.387596 0)
(4.68716 -0.303507 3.80079e-20)
(4.95556 -0.215955 0)
(5.1402 -0.126369 0)
(5.24077 -0.03161 0)
(5.24224 0.0709371 0)
(5.14832 0.185565 0)
(4.92591 0.312155 0)
(4.60578 0.448778 0)
(4.11876 0.598535 3.5286e-20)
(3.55074 0.742123 -3.48271e-20)
(2.74837 0.901205 3.43981e-20)
(1.94077 0.974154 3.40258e-20)
(0.789992 1.07006 0)
(-0.108479 0.0616659 0)
(-0.572125 -0.180686 -3.32599e-20)
(-1.14343 0.619771 -3.2993e-20)
(-1.75377 0.819329 0)
(-2.48575 0.643782 0)
(-3.18669 0.482358 -3.26875e-20)
(-3.55264 0.165728 0)
(-3.5116 -0.205033 0)
(-3.10511 -0.582538 3.1758e-20)
(-2.28449 -0.982748 0)
(-1.1026 -1.2795 3.06761e-20)
(0.215317 -1.0059 6.06533e-20)
(0.99166 -0.649077 0)
(1.58686 -0.670612 0)
(1.17392 0.228136 0)
(0.84935 0.924757 0)
(1.16074 -0.0700197 0)
(1.19328 -1.75028 5.76351e-20)
(1.16961 -1.98466 5.74642e-20)
(1.11729 -0.226454 5.69649e-20)
(-0.404064 1.17274 0)
(-1.88983 1.12777 -5.52863e-20)
(-3.29232 1.17347 0)
(-4.67467 1.12627 5.46651e-20)
(-5.91109 1.00739 5.47579e-20)
(-7.00238 0.856419 0)
(-7.93702 0.723296 0)
(-8.7523 0.614321 0)
(-9.46681 0.532578 5.60693e-20)
(-10.1083 0.471646 0)
(-10.6924 0.426864 0)
(-11.2328 0.391522 0)
(-11.7352 0.360422 0)
(-12.2008 0.328994 0)
(-12.6261 0.294494 0)
(-13.0048 0.255581 0)
(-13.3292 0.212105 0)
(-13.5912 0.16462 -5.74787e-20)
(-13.784 0.11456 0)
(-13.9029 0.0645078 0)
(-13.9449 0.017079 5.6503e-20)
(-13.9106 -0.0266702 5.59343e-20)
(-13.8151 -0.065675 0)
(-13.6564 -0.100664 -5.44695e-20)
(-13.4425 -0.130462 5.35988e-20)
(-13.1811 -0.155883 0)
(-12.8784 -0.17617 -5.16621e-20)
(-12.5437 -0.191729 0)
(-12.1832 -0.202973 0)
(-11.8043 -0.210302 4.85127e-20)
(-11.4123 -0.214533 0)
(-11.012 -0.216228 -4.63941e-20)
(-10.607 -0.216141 0)
(-10.1997 -0.214868 4.43222e-20)
(-9.79189 -0.212949 4.33095e-20)
(-9.38409 -0.210838 4.23126e-20)
(-8.97636 -0.208869 8.26615e-20)
(-8.56826 -0.207251 -8.0726e-20)
(-8.15905 -0.206076 0)
(-7.7479 -0.205349 0)
(-7.33405 -0.204986 0)
(-6.91702 -0.204824 -7.32569e-20)
(-6.49668 -0.204675 -7.14681e-20)
(-6.07321 -0.204368 6.97199e-20)
(-5.64704 -0.203773 0)
(-5.21874 -0.202845 -6.63701e-20)
(-4.78886 -0.201637 -6.47798e-20)
(-4.3578 -0.200262 -6.32517e-20)
(-3.92548 -0.198913 0)
(-3.49129 -0.197805 0)
(-3.05439 -0.197006 0)
(-2.61387 -0.196483 -5.77852e-20)
(-2.16872 -0.196283 0)
(-1.71813 -0.196475 0)
(-1.26238 -0.196635 5.43425e-20)
(-0.802651 -0.195735 0)
(-0.340186 -0.193997 0)
(0.12181 -0.190818 5.14166e-20)
(0.58016 -0.185682 0)
(1.03109 -0.178763 0)
(1.46991 -0.170049 -4.88851e-20)
(1.89232 -0.159564 -4.81591e-20)
(2.29413 -0.147343 0)
(2.67113 -0.133509 4.68612e-20)
(3.0189 -0.118341 0)
(3.33299 -0.102342 -4.57287e-20)
(3.60995 -0.0863642 0)
(3.84877 -0.0714608 -4.47054e-20)
(4.05143 -0.0583402 -4.42164e-20)
(4.22138 -0.0468326 0)
(4.36073 -0.0355941 0)
(4.46836 -0.0230301 0)
(4.54182 -0.00977756 0)
(4.58219 0.00101912 0)
(4.59681 0.00720236 0)
(4.59692 0.00899115 0)
(4.59567 0.00731824 -4.0377e-20)
(4.60192 0.00544705 3.98778e-20)
(4.61378 0.00826513 0)
(4.61713 0.0170043 0)
(4.60071 0.0270449 0)
(4.56145 0.033894 0)
(4.50453 0.0362071 7.46801e-20)
(4.43918 0.0342117 0)
(4.37424 0.0291469 -7.26548e-20)
(4.31572 0.0228855 7.16383e-20)
(4.26648 0.0170938 0)
(4.22703 0.0126771 0)
(4.19687 0.00995804 0)
(4.17472 0.00915863 -6.75482e-20)
(4.15813 0.0104515 -6.65224e-20)
(4.14354 0.0135808 0)
(4.12725 0.0178225 -6.44737e-20)
(4.10629 0.022329 -6.34535e-20)
(4.07845 0.0268426 6.24374e-20)
(4.04167 0.0318384 0)
(3.99373 0.0378069 0)
(3.93267 0.0443304 5.94218e-20)
(3.85807 0.0498086 0)
(3.7722 0.0522726 0)
(3.67993 0.0506933 0)
(3.58717 0.0455562 0)
(3.49889 0.0384957 -5.45281e-20)
(3.4178 0.0314525 -5.35616e-20)
(3.34426 0.0258901 0)
(3.27709 0.0223634 -5.16359e-20)
(3.21451 0.0205083 0)
(3.15504 0.0195288 0)
(3.09802 0.0186278 -4.87767e-20)
(3.04368 0.0172957 0)
(2.99286 0.015453 -4.68944e-20)
(2.94658 0.0133041 0)
(2.90545 0.0111606 0)
(2.86967 0.00929305 -4.40997e-20)
(2.83865 0.00784163 0)
(2.81186 0.00680742 -4.22541e-20)
(2.78804 0.00612216 0)
(2.76679 0.00567235 0)
(2.74656 0.0054129 0)
(2.72759 0.00525349 3.86093e-20)
(2.70784 0.0053059 0)
(2.68837 0.005431 -3.68101e-20)
(2.66618 0.00606359 0)
(2.6428 0.00665381 0)
(2.61489 0.00840638 0)
(2.58159 0.00948055 0)
(2.54457 0.013616 0)
(2.48654 0.0148191 0)
(2.44047 0.0253192 0)
(2.31406 0.024937 5.94405e-20)
(2.28111 0.0552582 0)
(1.93812 0.0443345 0)
(0.0629681 0.925699 1.25519e-19)
(0.100468 0.741448 -1.24671e-19)
(0.254646 0.241632 0)
(0.514673 -0.14512 8.1815e-20)
(0.978005 -0.555132 0)
(1.58031 -0.962253 4.01428e-20)
(2.23849 -1.29853 -7.97792e-20)
(2.90023 -1.53033 -7.92185e-20)
(3.53295 -1.65639 0)
(4.11636 -1.68833 -7.83304e-20)
(4.64678 -1.64529 -3.8584e-20)
(5.12171 -1.54363 0)
(5.53932 -1.39856 0)
(5.8963 -1.22278 0)
(6.19176 -1.02571 0)
(6.4232 -0.813631 -3.78006e-20)
(6.59437 -0.590676 0)
(6.70265 -0.358226 7.56316e-20)
(6.75693 -0.117643 0)
(6.748 0.133613 0)
(6.68899 0.394708 -7.37231e-20)
(6.54954 0.674659 0)
(6.35969 0.967586 7.2045e-20)
(6.0595 1.28894 -3.50662e-20)
(5.71784 1.60682 3.45807e-20)
(5.21146 1.95165 -3.41211e-20)
(4.67642 2.21842 -3.37192e-20)
(3.88981 2.48458 0)
(3.00586 2.44903 0)
(1.81795 2.09889 3.30953e-20)
(0.366317 1.52836 -3.34985e-20)
(-0.383829 1.30054 0)
(-1.18731 1.45138 0)
(-1.71873 1.16992 3.27571e-20)
(-1.95993 0.43257 0)
(-1.96969 -0.498695 0)
(-1.84845 -1.43534 -3.18225e-20)
(-1.33303 -2.43604 0)
(-0.583371 -3.19883 3.12423e-20)
(0.237103 -2.50859 -6.05519e-20)
(0.697671 -1.45084 0)
(0.873621 0.510158 0)
(1.00738 0.812274 -1.18737e-19)
(0.569061 -1.15165 -1.17693e-19)
(0.381324 -0.285235 -1.16395e-19)
(-1.57349 1.66975 5.74033e-20)
(-3.62848 2.13057 -5.71152e-20)
(-4.64242 2.51002 -1.69831e-19)
(-5.8013 2.82979 1.12039e-19)
(-6.70465 2.74419 5.4602e-20)
(-7.58827 2.6538 0)
(-8.33095 2.38911 -5.41402e-20)
(-8.99955 2.11319 5.63173e-20)
(-9.57004 1.82516 0)
(-10.0839 1.58097 0)
(-10.5394 1.37728 0)
(-10.9612 1.21865 -5.58457e-20)
(-11.3518 1.09534 0)
(-11.7226 0.998727 1.13877e-19)
(-12.0728 0.91826 0)
(-12.4036 0.844216 1.1483e-19)
(-12.7104 0.768693 0)
(-12.9892 0.685818 -1.15516e-19)
(-13.2335 0.592406 0)
(-13.4375 0.487274 1.15713e-19)
(-13.5953 0.371295 -5.80801e-20)
(-13.7019 0.246979 0)
(-13.7536 0.118869 -1.1451e-19)
(-13.7498 -0.00757994 -5.6523e-20)
(-13.6906 -0.128881 -5.59506e-20)
(-13.565 -0.241758 0)
(-13.3837 -0.343449 -5.49286e-20)
(-13.1506 -0.431709 -5.36048e-20)
(-12.872 -0.505707 0)
(-12.5571 -0.564837 5.16633e-20)
(-12.2119 -0.60977 -1.01536e-19)
(-11.845 -0.641759 0)
(-11.4619 -0.662475 -4.85104e-20)
(-11.0683 -0.67397 0)
(-10.6684 -0.678279 1.39347e-19)
(-10.2654 -0.677432 0)
(-9.86139 -0.673238 -1.3311e-19)
(-9.45751 -0.66728 -4.3306e-20)
(-9.05414 -0.660874 4.24564e-20)
(-8.65096 -0.655007 8.29462e-20)
(-8.24726 -0.650296 -8.1008e-20)
(-7.84212 -0.646999 0)
(-7.43455 -0.645106 0)
(-7.02371 -0.644368 0)
(-6.60912 -0.64431 2.19997e-19)
(-6.19082 -0.644359 7.14584e-20)
(-5.76919 -0.644012 -6.971e-20)
(-5.34492 -0.642866 0)
(-4.91887 -0.640743 -6.65388e-20)
(-4.49181 -0.6378 6.47699e-20)
(-4.06431 -0.634413 6.32418e-20)
(-3.63643 -0.631249 0)
(-3.20742 -0.629063 0)
(-2.77615 -0.628135 0)
(-2.34154 -0.628416 5.77741e-20)
(-1.90244 -0.629889 0)
(-1.45791 -0.632253 -1.10991e-19)
(-1.00776 -0.634159 -1.63148e-19)
(-0.552394 -0.63421 1.06763e-19)
(-0.0935317 -0.630829 0)
(0.366181 -0.623081 5.15238e-20)
(0.823488 -0.609838 0)
(1.27445 -0.591274 9.93797e-20)
(1.71489 -0.567619 -4.89621e-20)
(2.14058 -0.539273 -4.82266e-20)
(2.5473 -0.506403 0)
(2.93152 -0.468733 -1.40559e-19)
(3.29072 -0.42594 9.256e-20)
(3.62226 -0.378601 4.56959e-20)
(3.92256 -0.328924 0)
(4.18911 -0.280335 4.4675e-20)
(4.42415 -0.235656 1.32604e-19)
(4.63393 -0.194966 0)
(4.82096 -0.155618 8.6485e-20)
(4.97697 -0.115583 8.55274e-20)
(5.08754 -0.0763188 8.45754e-20)
(5.14592 -0.0421375 0)
(5.16128 -0.0181702 0)
(5.15558 -0.0080726 0)
(5.15122 -0.0109278 -4.03682e-20)
(5.16144 -0.0190264 -3.98529e-20)
(5.18973 -0.0208117 0)
(5.23407 -0.00997688 -7.76863e-20)
(5.28083 0.0103207 -7.66644e-20)
(5.31317 0.0324318 0)
(5.31954 0.0490463 -7.46112e-20)
(5.29675 0.0568825 -1.47209e-19)
(5.24959 0.0567912 7.25822e-20)
(5.18695 0.0515897 7.15759e-20)
(5.11853 0.0437796 0)
(5.05296 0.03476 0)
(4.9967 0.0253673 0)
(4.95373 0.0166261 6.74923e-20)
(4.92585 0.00977268 -6.64745e-20)
(4.91284 0.00576507 -1.30897e-19)
(4.91258 0.0050354 6.44225e-20)
(4.92147 0.00739399 -6.34088e-20)
(4.93538 0.0122917 -6.23838e-20)
(4.95073 0.0191711 0)
(4.96528 0.027524 0)
(4.97813 0.036674 5.9369e-20)
(4.9891 0.0455817 0)
(4.99814 0.0529567 0)
(5.00489 0.0576478 -1.12795e-19)
(5.00839 0.0592539 0)
(5.00732 0.0583247 -5.44483e-20)
(5.00034 0.0558841 5.34793e-20)
(4.98649 0.0528788 0)
(4.96557 0.0498931 -5.15513e-20)
(4.93845 0.0471051 0)
(4.90691 0.0444978 0)
(4.8731 0.0419039 4.86957e-20)
(4.83898 0.0390382 -9.55058e-20)
(4.80602 0.0357219 4.68163e-20)
(4.77516 0.0319631 0)
(4.74698 0.0279584 0)
(4.72188 0.0240052 -4.40241e-20)
(4.70002 0.0204108 0)
(4.68151 0.0173632 -4.21831e-20)
(4.66613 0.0150126 0)
(4.65374 0.0133095 0)
(4.64373 0.0123516 0)
(4.63567 0.0118639 -3.85472e-20)
(4.62867 0.0121725 0)
(4.6219 0.0126239 3.67511e-20)
(4.61469 0.0142752 0)
(4.60506 0.0154291 0)
(4.59443 0.0192873 -6.81677e-20)
(4.57622 0.0210893 6.64007e-20)
(4.56021 0.0296025 0)
(4.52276 0.0316205 0)
(4.50309 0.0513783 0)
(4.41964 0.0526584 -1.78076e-19)
(4.40991 0.102043 0)
(4.20717 0.10255 1.11811e-19)
(0.0712567 0.407325 1.70167e-23)
(0.234925 0.0871492 1.6609e-19)
(0.687465 -0.673606 0)
(1.41992 -1.57339 -1.62962e-19)
(2.22566 -2.32734 0)
(3.00334 -2.84253 0)
(3.69963 -3.12571 -6.90989e-22)
(4.2906 -3.21791 7.87375e-20)
(4.77588 -3.16421 7.93322e-20)
(5.17056 -3.0044 7.79816e-20)
(5.49307 -2.7728 0)
(5.75588 -2.49488 0)
(5.96735 -2.18888 -7.84584e-20)
(6.13333 -1.86744 -1.56427e-19)
(6.2597 -1.5384 1.55859e-19)
(6.34968 -1.20619 0)
(6.40791 -0.872811 1.54406e-19)
(6.43415 -0.538438 -7.5677e-20)
(6.43369 -0.202897 0)
(6.40286 0.13685 1.5111e-19)
(6.35384 0.482757 7.37563e-20)
(6.28246 0.846202 -1.48036e-19)
(6.202 1.22848 -7.20203e-20)
(6.09029 1.64469 0)
(5.9632 2.07871 1.42741e-19)
(5.78104 2.54068 1.40862e-19)
(5.5549 2.98048 0)
(5.24731 3.38542 1.37228e-19)
(4.81321 3.68196 0)
(4.27398 3.80712 1.34384e-19)
(3.39449 3.67154 6.58666e-20)
(2.52358 3.18423 0)
(1.65172 2.59925 0)
(1.07875 1.8199 0)
(0.68276 0.83172 0)
(0.564445 -0.421974 0)
(0.269005 -1.48545 0)
(0.513413 -2.80459 1.25744e-19)
(0.833973 -3.83089 -1.85186e-19)
(0.819599 -3.19621 0)
(0.555459 -1.7117 0)
(-0.313776 -0.947501 0)
(-0.457059 0.757522 -1.58198e-22)
(-2.6112 2.23241 1.16973e-19)
(-4.02168 2.92065 2.31064e-19)
(-5.20453 3.33605 -2.28215e-19)
(-6.24462 3.42432 -1.1389e-19)
(-6.98242 3.71744 1.12681e-19)
(-7.62212 3.78023 1.44569e-21)
(-8.04318 3.66189 1.12607e-19)
(-8.43455 3.41679 0)
(-8.72779 3.07467 1.12493e-19)
(-9.03957 2.7202 2.16661e-21)
(-9.32333 2.38227 0)
(-9.63039 2.09497 0)
(-9.93124 1.86143 -1.13692e-19)
(-10.2475 1.67942 0)
(-10.566 1.53892 0)
(-10.8947 1.42694 1.15852e-19)
(-11.2253 1.33044 2.30683e-19)
(-11.5553 1.23637 -1.14945e-19)
(-11.8748 1.13439 0)
(-12.1747 1.01648 1.15635e-19)
(-12.443 0.878338 0)
(-12.669 0.718994 1.17505e-19)
(-12.8427 0.541117 1.15674e-19)
(-12.9562 0.349682 -2.32288e-19)
(-13.0036 0.150057 -1.16367e-19)
(-12.9847 -0.0521653 0)
(-12.9025 -0.248749 2.26738e-19)
(-12.7592 -0.432358 0)
(-12.5604 -0.597081 3.29946e-19)
(-12.3137 -0.739325 2.16686e-19)
(-12.0268 -0.856731 2.12665e-19)
(-11.7082 -0.949349 -2.08442e-19)
(-11.366 -1.01841 3.05713e-19)
(-11.0074 -1.0663 0)
(-10.6384 -1.09624 0)
(-10.2638 -1.11157 -1.90896e-19)
(-9.88712 -1.11582 -2.7959e-19)
(-9.51056 -1.11226 0)
(-9.13533 -1.10383 8.88386e-20)
(-8.76175 -1.09304 0)
(-8.38935 -1.08198 -2.54877e-19)
(-8.01701 -1.07219 4.70169e-22)
(-7.64325 -1.06461 -4.68096e-22)
(-7.2665 -1.05954 1.5841e-19)
(-6.88519 -1.05677 0)
(-6.49794 -1.05574 -1.50875e-19)
(-6.10392 -1.05555 4.13635e-22)
(-5.70321 -1.05512 0)
(-5.29656 -1.05364 0)
(-4.88533 -1.0505 0)
(-4.47131 -1.04542 1.32903e-19)
(-4.0562 -1.03877 0)
(-3.64147 -1.03131 0)
(-3.22792 -1.02422 0)
(-2.81514 -1.01905 0)
(-2.40207 -1.01653 0)
(-1.98743 -1.01685 1.15912e-19)
(-1.56955 -1.02004 0)
(-1.1468 -1.0251 1.10971e-19)
(-0.718038 -1.02929 1.08794e-19)
(-0.282945 -1.03069 -1.06736e-19)
(0.15671 -1.02624 0)
(0.597757 -1.01421 -1.02801e-19)
(1.03621 -0.993484 0)
(1.46744 -0.963898 -9.92938e-20)
(1.88805 -0.925503 9.77255e-20)
(2.29579 -0.878568 2.8917e-19)
(2.68709 -0.824235 0)
(3.05534 -0.764404 2.81303e-19)
(3.39418 -0.699949 9.27519e-20)
(3.70148 -0.630138 0)
(3.97716 -0.556042 1.80924e-19)
(4.21904 -0.483793 1.78901e-19)
(4.42821 -0.421045 -2.65327e-19)
(4.61914 -0.3678 0)
(4.81585 -0.31148 -8.64643e-20)
(5.02787 -0.236431 -8.55033e-20)
(5.22725 -0.143775 -2.53738e-19)
(5.36217 -0.0566336 0)
(5.40455 -0.000358356 0)
(5.37507 0.016384 0)
(5.3217 0.00189672 -8.07534e-20)
(5.28737 -0.0256851 0)
(5.29237 -0.0469247 0)
(5.33347 -0.0490359 7.76739e-20)
(5.39366 -0.0286368 7.66531e-20)
(5.45238 0.00773572 0)
(5.49248 0.0481862 0)
(5.50352 0.0820918 1.4717e-19)
(5.48139 0.103148 0)
(5.42882 0.110075 -1.43093e-19)
(5.3552 0.105026 -1.41075e-19)
(5.27347 0.0914682 0)
(5.19557 0.0730102 0)
(5.12966 0.0531192 1.34965e-19)
(5.07953 0.034856 -9.33604e-24)
(5.0454 0.0204826 -9.17802e-24)
(5.02525 0.0111861 0)
(5.01607 0.0071951 2.53603e-19)
(5.01469 0.00803936 0)
(5.01844 0.0128098 0)
(5.02547 0.0202674 0)
(5.03501 0.0288471 -1.18722e-19)
(5.04717 0.036808 0)
(5.06239 0.0426068 2.29521e-19)
(5.08083 0.0454059 1.12787e-19)
(5.10204 0.0456745 0)
(5.1246 0.0449526 1.08883e-19)
(5.14597 0.0448871 0)
(5.16283 0.0463228 0)
(5.17206 0.0489931 3.09242e-19)
(5.17188 0.0519147 -2.02328e-19)
(5.16244 0.0539557 0)
(5.14558 0.0542922 -1.94722e-19)
(5.12401 0.0526208 9.5477e-20)
(5.10038 0.0491218 0)
(5.07666 0.0443173 0)
(5.05415 0.0388597 0)
(5.03349 0.0332976 2.64064e-19)
(5.01505 0.0280482 0)
(4.99896 0.023294 8.43423e-20)
(4.9855 0.0192089 0)
(4.97468 0.0157424 0)
(4.96686 0.0131449 0)
(4.96164 0.011194 0)
(4.95935 0.0104894 0)
(4.95849 0.010316 0)
(4.95981 0.0120859 1.43401e-19)
(4.96 0.0137471 0)
(4.96181 0.0189913 6.81458e-20)
(4.95821 0.0224056 -1.99154e-19)
(4.95767 0.0335184 0)
(4.9442 0.0387036 0)
(4.94047 0.0621617 1.22239e-19)
(4.9085 0.0706339 1.18685e-19)
(4.90501 0.123287 -1.15278e-19)
(4.84429 0.144476 -1.11751e-19)
(-0.161859 0.132882 -2.51422e-19)
(0.382683 -0.735993 -2.49056e-19)
(1.46129 -2.43463 -1.64507e-19)
(2.40864 -3.57543 -8.21549e-20)
(3.16189 -4.14385 0)
(3.71691 -4.29949 1.61862e-19)
(4.09301 -4.19239 -8.17151e-20)
(4.33256 -3.93186 0)
(4.48046 -3.58892 -7.93493e-20)
(4.57472 -3.20911 0)
(4.64014 -2.81953 1.60212e-19)
(4.69063 -2.43385 0)
(4.73216 -2.05699 7.87108e-20)
(4.76525 -1.68967 1.56997e-19)
(4.78714 -1.33164 -1.56481e-19)
(4.79505 -0.983143 0)
(4.78555 -0.644347 -1.55099e-19)
(4.75824 -0.314839 0)
(4.71306 0.0089214 0)
(4.65871 0.334576 -1.51782e-19)
(4.61365 0.667358 0)
(4.5914 1.01614 -1.62815e-21)
(4.59689 1.38706 0)
(4.63373 1.79405 0)
(4.69463 2.23927 1.9523e-21)
(4.77883 2.72496 -1.41204e-19)
(4.85382 3.22981 -1.41361e-19)
(4.92421 3.7274 -1.37282e-19)
(4.91957 4.16496 0)
(4.86938 4.48359 -2.69757e-19)
(4.65804 4.61387 0)
(4.29879 4.41692 -1.32626e-19)
(3.78052 3.87264 0)
(3.28579 2.98028 0)
(2.71447 1.7679 1.2882e-19)
(2.36279 0.254679 0)
(1.81266 -1.08634 -1.25277e-19)
(1.61943 -2.83093 -2.41915e-21)
(1.23615 -3.50569 2.44867e-19)
(0.128254 -2.21855 -2.42157e-19)
(-1.2712 0.638253 0)
(-2.93889 2.33067 0)
(-3.96832 3.42865 -1.17969e-19)
(-5.17898 4.03246 0)
(-5.85916 4.24319 -1.15101e-19)
(-6.50211 4.37338 1.14061e-19)
(-6.96641 4.37275 1.13519e-19)
(-7.35516 4.39036 0)
(-7.63764 4.25204 -1.12819e-19)
(-7.87361 4.05135 -1.12575e-19)
(-8.08343 3.75057 2.28654e-19)
(-8.28028 3.41569 -1.12532e-19)
(-8.49744 3.06882 -1.12734e-19)
(-8.71456 2.74843 0)
(-8.95074 2.47158 0)
(-9.19254 2.24952 1.13794e-19)
(-9.45602 2.07941 0)
(-9.73779 1.95186 0)
(-10.0427 1.85041 -2.30076e-19)
(-10.3624 1.75727 -2.30927e-19)
(-10.6884 1.65459 0)
(-11.0058 1.52842 0)
(-11.2999 1.36974 0)
(-11.5566 1.17553 0)
(-11.7643 0.947967 -2.3365e-19)
(-11.915 0.69371 2.35496e-19)
(-12.0045 0.42197 2.32659e-19)
(-12.0315 0.141835 4.6501e-19)
(-11.9941 -0.13781 0)
(-11.892 -0.404768 2.00361e-21)
(-11.7295 -0.65079 0)
(-11.5134 -0.870166 -2.20737e-19)
(-11.2512 -1.05723 1.57905e-21)
(-10.9523 -1.21011 -2.12943e-19)
(-10.6264 -1.32839 2.08706e-19)
(-10.2827 -1.41412 1.0981e-21)
(-9.92923 -1.47101 0)
(-9.57257 -1.50374 1.96357e-19)
(-9.21768 -1.51747 1.91109e-19)
(-8.86781 -1.51728 3.74254e-19)
(-8.52471 -1.50795 0)
(-8.18886 -1.49365 -1.78967e-19)
(-7.8598 -1.47788 0)
(-7.53616 -1.4635 3.41032e-19)
(-7.21582 -1.45256 -1.66251e-19)
(-6.89623 -1.44619 1.62347e-19)
(-6.57479 -1.44462 -1.58493e-19)
(-6.249 -1.44723 -3.10551e-19)
(-5.91628 -1.4528 1.50924e-19)
(-5.57432 -1.45943 -1.47217e-19)
(-5.2219 -1.46487 0)
(-4.85867 -1.46729 2.80936e-19)
(-4.48516 -1.46539 0)
(-4.10315 -1.45841 2.67103e-19)
(-3.71474 -1.44714 -2.60564e-19)
(-3.3224 -1.43314 -2.54316e-19)
(-2.92821 -1.41843 2.48376e-19)
(-2.53293 -1.40594 2.42743e-19)
(-2.13679 -1.39762 0)
(-1.73882 -1.39443 1.1647e-19)
(-1.33718 -1.39689 0)
(-0.929538 -1.40367 0)
(-0.513782 -1.41086 2.18684e-19)
(-0.0890318 -1.41534 0)
(0.343786 -1.41177 0)
(0.781511 -1.39694 2.06542e-19)
(1.21891 -1.36891 0)
(1.64758 -1.32854 0)
(2.05914 -1.27834 0)
(2.45091 -1.21847 -3.85986e-19)