/*--------------------------------*- C++ -*----------------------------------*\
  =========                 |
  \\      /  F ield         | OpenFOAM: The Open Source CFD Toolbox
   \\    /   O peration     | Website:  https://openfoam.org
    \\  /    A nd           | Version:  9
     \\/     M anipulation  |
\*---------------------------------------------------------------------------*/
FoamFile
{
    format      ascii;
    class       volVectorField;
    location    "0.038";
    object      UMean;
}
// * * * * * * * * * * * * * * * * * * * * * * * * * * * * * * * * * * * * * //

dimensions      [0 1 -1 0 0 0 0];

internalField   nonuniform List<vector> 
12225
(
(9.85151 0.0445227 0)
(9.55408 0.0605776 0)
(9.25108 0.0585736 0)
(8.94295 0.0574665 0)
(8.63789 0.0571763 0)
(8.34176 0.0565483 0)
(8.05486 0.0556067 0)
(7.77755 0.0549097 0)
(7.50478 0.0545588 0)
(7.23841 0.0549422 0)
(6.96837 0.0557295 0)
(6.70415 0.0574763 0)
(6.42292 0.0599418 0)
(6.15185 0.0639104 0)
(5.83553 0.070946 0)
(5.54109 0.0799754 0)
(5.13916 0.101754 0)
(4.78048 0.12478 0)
(10.025 0.0524717 0)
(10.0816 0.0756106 0)
(10.117 0.0751796 0)
(10.1271 0.0770088 0)
(10.1191 0.0809791 0)
(10.0998 0.0846399 0)
(10.0705 0.0876269 0)
(10.0331 0.0907774 0)
(9.98564 0.0943484 0)
(9.93106 0.0990739 0)
(9.86459 0.104579 0)
(9.79197 0.111918 0)
(9.7024 0.120723 0)
(9.60734 0.132883 0)
(9.48434 0.149516 0)
(9.35562 0.172927 0)
(9.17951 0.211312 0)
(8.99488 0.264261 0)
(10.0027 0.0346681 0)
(10.0312 0.0557543 0)
(10.0565 0.0586798 0)
(10.0705 0.0617086 0)
(10.077 0.0670223 0)
(10.0804 0.0724645 0)
(10.0816 0.0772517 0)
(10.0804 0.082237 0)
(10.076 0.08774 0)
(10.0684 0.0946449 0)
(10.0569 0.102711 0)
(10.0413 0.113143 0)
(10.0207 0.125919 0)
(9.99422 0.143161 0)
(9.96129 0.166478 0)
(9.92077 0.199492 0)
(9.87598 0.248378 0)
(9.82678 0.316238 0)
(10.0072 0.0291497 0)
(10.0253 0.0572226 0)
(10.0434 0.0639906 0)
(10.054 0.0672125 0)
(10.058 0.0725078 0)
(10.0587 0.0786124 0)
(10.0574 0.0842749 0)
(10.0541 0.089876 0)
(10.0481 0.0960765 0)
(10.0393 0.103621 0)
(10.0275 0.112816 0)
(10.0128 0.124372 0)
(9.99478 0.138987 0)
(9.97369 0.158157 0)
(9.94945 0.183953 0)
(9.92401 0.21949 0)
(9.89923 0.267996 0)
(9.88281 0.332117 0)
(9.99949 0.0285399 0)
(10.0142 0.0527836 0)
(10.0309 0.0604257 0)
(10.0417 0.0635892 0)
(10.0455 0.0684393 0)
(10.045 0.0748243 0)
(10.0425 0.0813676 0)
(10.0385 0.0880666 0)
(10.0326 0.0954516 0)
(10.0245 0.104243 0)
(10.0139 0.114796 0)
(10.0006 0.127859 0)
(9.98437 0.144171 0)
(9.96564 0.165283 0)
(9.94436 0.192763 0)
(9.92312 0.229212 0)
(9.90308 0.275636 0)
(9.89064 0.333566 0)
(9.99158 0.0191441 0)
(10.0017 0.0455505 0)
(10.0145 0.0571133 0)
(10.0238 0.0627358 0)
(10.0275 0.0688691 0)
(10.0278 0.0763476 0)
(10.0266 0.0839626 0)
(10.0243 0.0914996 0)
(10.0204 0.0996123 0)
(10.0141 0.109215 0)
(10.0051 0.120872 0)
(9.99333 0.135303 0)
(9.9788 0.15312 0)
(9.96245 0.175665 0)
(9.94465 0.203975 0)
(9.92801 0.240037 0)
(9.91351 0.283765 0)
(9.90612 0.336188 0)
(9.97215 0.024041 0)
(9.9786 0.044319 0)
(9.98813 0.0562163 0)
(9.99577 0.0625702 0)
(9.99949 0.0682966 0)
(10.0003 0.0751696 0)
(9.99959 0.082838 0)
(9.99759 0.0911527 0)
(9.99392 0.100496 0)
(9.98825 0.11151 0)
(9.98031 0.124639 0)
(9.97034 0.140533 0)
(9.95843 0.15971 0)
(9.94549 0.183328 0)
(9.93202 0.212012 0)
(9.92028 0.247252 0)
(9.9112 0.288454 0)
(9.90869 0.336453 0)
(10.006 0.0157584 0)
(10.0128 0.0390164 0)
(10.0215 0.0526872 0)
(10.0287 0.0610178 0)
(10.0322 0.0680781 0)
(10.0321 0.0757726 0)
(10.0296 0.0842172 0)
(10.0259 0.0933259 0)
(10.0213 0.103406 0)
(10.0156 0.115129 0)
(10.0083 0.129052 0)
(9.99954 0.145846 0)
(9.9892 0.165904 0)
(9.97807 0.190084 0)
(9.96679 0.218637 0)
(9.95718 0.252565 0)
(9.95036 0.291055 0)
(9.94917 0.334661 0)
(9.97285 0.0166924 0)
(9.97746 0.0373968 0)
(9.985 0.0507581 0)
(9.99265 0.0600168 0)
(9.99752 0.0678465 0)
(9.99919 0.0759231 0)
(9.99865 0.084737 0)
(9.99697 0.0944313 0)
(9.99442 0.105286 0)
(9.99083 0.117904 0)
(9.9859 0.13281 0)
(9.97984 0.150589 0)
(9.97287 0.171496 0)
(9.96589 0.196121 0)
(9.95942 0.224454 0)
(9.9551 0.25712 0)
(9.95336 0.29318 0)
(9.95674 0.332971 0)
(9.9852 0.0161149 0)
(9.98844 0.0317433 0)
(9.99455 0.0465346 0)
(10.0011 0.0575621 0)
(10.0064 0.0665677 0)
(10.0095 0.075372 0)
(10.0106 0.0846747 0)
(10.0101 0.094844 0)
(10.0084 0.106271 0)
(10.0055 0.11953 0)
(10.0014 0.135043 0)
(9.99666 0.153253 0)
(9.99159 0.174265 0)
(9.98709 0.198503 0)
(9.98355 0.225792 0)
(9.98237 0.256603 0)
(9.98369 0.289904 0)
(9.98957 0.32609 0)
(9.96226 0.0148702 0)
(9.96576 0.0307758 0)
(9.96977 0.0450865 0)
(9.9741 0.0561493 0)
(9.97792 0.0654096 0)
(9.98029 0.0744307 0)
(9.98093 0.0842307 0)
(9.98011 0.0953053 0)
(9.97816 0.107833 0)
(9.97548 0.122077 0)
(9.97246 0.13826 0)
(9.96963 0.15678 0)
(9.96737 0.177736 0)
(9.96629 0.201498 0)
(9.96662 0.227765 0)
(9.96928 0.256848 0)
(9.97435 0.287656 0)
(9.98317 0.320567 0)
(10.0188 0.013026 0)
(10.0212 0.0296188 0)
(10.0247 0.0427118 0)
(10.0294 0.0540401 0)
(10.0337 0.0644603 0)
(10.036 0.0744791 0)
(10.0362 0.0848418 0)
(10.0348 0.0962038 0)
(10.0326 0.108876 0)
(10.03 0.123099 0)
(10.0274 0.139035 0)
(10.0248 0.15704 0)
(10.0228 0.177212 0)
(10.0218 0.199891 0)
(10.0223 0.224728 0)
(10.0249 0.251968 0)
(10.0301 0.280464 0)
(10.0382 0.310649 0)
(10.0055 0.0121444 0)
(10.0052 0.0281455 0)
(10.0082 0.0410127 0)
(10.0138 0.0522943 0)
(10.0191 0.0628467 0)
(10.0225 0.0733722 0)
(10.0238 0.0845077 0)
(10.0237 0.0966343 0)
(10.0231 0.109937 0)
(10.0223 0.124664 0)
(10.0217 0.140977 0)
(10.0213 0.159125 0)
(10.0214 0.179076 0)
(10.0225 0.201021 0)
(10.025 0.224573 0)
(10.0295 0.249923 0)
(10.0363 0.276077 0)
(10.0462 0.30345 0)
(10.0332 0.0142186 0)
(10.0354 0.025995 0)
(10.0395 0.0379803 0)
(10.0445 0.0497015 0)
(10.0489 0.0612743 0)
(10.0522 0.0729235 0)
(10.0544 0.0847721 0)
(10.0556 0.0970152 0)
(10.0564 0.11 0)
(10.0571 0.124227 0)
(10.058 0.139983 0)
(10.0595 0.157501 0)
(10.0618 0.176653 0)
(10.0651 0.197512 0)
(10.0697 0.219579 0)
(10.076 0.242994 0)
(10.0842 0.266733 0)
(10.0945 0.291355 0)
(10.0067 0.00980565 0)
(10.0102 0.0234343 0)
(10.0138 0.0354729 0)
(10.0174 0.0463186 0)
(10.0212 0.0572152 0)
(10.0256 0.0688704 0)
(10.0301 0.0813201 0)
(10.0344 0.0944502 0)
(10.0383 0.108262 0)
(10.0423 0.12296 0)
(10.0465 0.138691 0)
(10.0513 0.155667 0)
(10.0569 0.173812 0)
(10.0635 0.193218 0)
(10.0712 0.213415 0)
(10.0806 0.234552 0)
(10.091 0.255678 0)
(10.1039 0.27742 0)
(10.0048 0.00757478 0)
(10.0071 0.0219822 0)
(10.01 0.0339421 0)
(10.0134 0.0448975 0)
(10.017 0.055752 0)
(10.0208 0.066898 0)
(10.0248 0.0784514 0)
(10.0293 0.0904747 0)
(10.0344 0.103075 0)
(10.0402 0.116518 0)
(10.0467 0.130968 0)
(10.0539 0.146656 0)
(10.0618 0.163428 0)
(10.0706 0.181325 0)
(10.0802 0.19976 0)
(10.0911 0.218848 0)
(10.1027 0.237598 0)
(10.1162 0.256676 0)
(9.99278 0.00631529 0)
(9.99422 0.0165465 0)
(9.99715 0.0275101 0)
(10.0013 0.0386929 0)
(10.0062 0.0497381 0)
(10.0117 0.0607277 0)
(10.0178 0.0718686 0)
(10.0241 0.0833719 0)
(10.0306 0.0953905 0)
(10.0375 0.10815 0)
(10.0449 0.121737 0)
(10.0528 0.136288 0)
(10.0616 0.151565 0)
(10.0715 0.167563 0)
(10.0824 0.183711 0)
(10.0947 0.200189 0)
(10.1078 0.216095 0)
(10.1224 0.232206 0)
(9.9934 0.00884023 0)
(9.99551 0.0167592 0)
(9.99864 0.0259947 0)
(10.0023 0.0353068 0)
(10.0067 0.0445477 0)
(10.0125 0.0538894 0)
(10.0195 0.0636006 0)
(10.0272 0.0739337 0)
(10.0353 0.0848951 0)
(10.044 0.0964077 0)
(10.0533 0.108314 0)
(10.0632 0.120644 0)
(10.0739 0.133247 0)
(10.0854 0.146217 0)
(10.0978 0.159178 0)
(10.1111 0.172348 0)
(10.1251 0.185015 0)
(10.1399 0.197849 0)
(9.98589 1.93887e-05 0)
(9.991 0.00964966 0)
(9.99681 0.0181824 0)
(10.0032 0.0261222 0)
(10.0102 0.0338314 0)
(10.0178 0.0415173 0)
(10.0262 0.0493831 0)
(10.0354 0.0577268 0)
(10.0452 0.0667168 0)
(10.0556 0.076393 0)
(10.0667 0.0865761 0)
(10.0784 0.0971451 0)
(10.0909 0.107827 0)
(10.1042 0.118627 0)
(10.118 0.129238 0)
(10.1324 0.139891 0)
(10.1472 0.150043 0)
(10.1626 0.160311 0)
(9.98891 -0.00408053 0)
(9.9887 0.00283468 0)
(9.99086 0.00992057 0)
(9.99635 0.0163409 0)
(10.0039 0.0221821 0)
(10.0123 0.0280652 0)
(10.0212 0.0344154 0)
(10.0305 0.0413401 0)
(10.0406 0.0486587 0)
(10.0514 0.0561583 0)
(10.063 0.0636635 0)
(10.0755 0.0712121 0)
(10.0887 0.0787744 0)
(10.1026 0.0865054 0)
(10.1169 0.094227 0)
(10.1318 0.102141 0)
(10.147 0.109775 0)
(10.1627 0.117599 0)
(10.0061 0.00214631 0)
(10.0098 0.00336413 0)
(10.0159 0.00631 0)
(10.0243 0.0101474 0)
(10.0338 0.0145877 0)
(10.0436 0.0194025 0)
(10.0536 0.0244613 0)
(10.0642 0.0297037 0)
(10.0754 0.0351009 0)
(10.0871 0.0407026 0)
(10.0994 0.0465 0)
(10.1121 0.0525194 0)
(10.1254 0.0586611 0)
(10.139 0.0649475 0)
(10.153 0.0711813 0)
(10.1673 0.0774821 0)
(10.182 0.08349 0)
(10.1968 0.0895718 0)
(10.0107 -0.00803328 0)
(10.0158 -0.00754013 0)
(10.0237 -0.00453462 0)
(10.0337 -0.00106886 0)
(10.044 0.00247365 0)
(10.0544 0.00618779 0)
(10.0651 0.0102221 0)
(10.0764 0.0146216 0)
(10.0881 0.0192465 0)
(10.1002 0.023953 0)
(10.1127 0.0286311 0)
(10.1256 0.0332935 0)
(10.1391 0.037921 0)
(10.1531 0.042626 0)
(10.1675 0.0473261 0)
(10.1821 0.0521576 0)
(10.1968 0.0568426 0)
(10.2117 0.0616642 0)
(9.9996 -0.005016 0)
(10.0066 -0.00850028 0)
(10.0156 -0.00949771 0)
(10.0264 -0.00816361 0)
(10.0382 -0.00545899 0)
(10.0501 -0.00228208 0)
(10.0618 0.000971116 0)
(10.0738 0.0043141 0)
(10.0861 0.00780492 0)
(10.0989 0.0113878 0)
(10.112 0.014939 0)
(10.1253 0.0184466 0)
(10.1387 0.0219373 0)
(10.1522 0.0255698 0)
(10.1658 0.0293187 0)
(10.1795 0.0332745 0)
(10.1935 0.0371624 0)
(10.2078 0.0410994 0)
(10.0208 -0.0145073 0)
(10.0284 -0.015671 0)
(10.038 -0.0178183 0)
(10.0487 -0.0176157 0)
(10.0597 -0.0155381 0)
(10.0708 -0.012765 0)
(10.082 -0.00989606 0)
(10.0936 -0.00707979 0)
(10.106 -0.00426397 0)
(10.1192 -0.00135248 0)
(10.133 0.00167525 0)
(10.1472 0.00481236 0)
(10.1616 0.00796672 0)
(10.1761 0.0110988 0)
(10.1905 0.0140636 0)
(10.205 0.0169189 0)
(10.2194 0.0194957 0)
(10.2338 0.0220131 0)
(9.99309 -0.0177098 0)
(9.99711 -0.0224768 0)
(10.0072 -0.0239955 0)
(10.0199 -0.0234696 0)
(10.0322 -0.0221577 0)
(10.0436 -0.0204957 0)
(10.0553 -0.0186803 0)
(10.0681 -0.0168813 0)
(10.082 -0.0151824 0)
(10.0965 -0.0135431 0)
(10.1113 -0.0118605 0)
(10.1263 -0.00999053 0)
(10.1415 -0.00787989 0)
(10.1568 -0.00549741 0)
(10.1721 -0.00295534 0)
(10.1874 -0.000312982 0)
(10.2026 0.00222999 0)
(10.2177 0.00469878 0)
(10.01 -0.0126555 0)
(10.0175 -0.0276501 0)
(10.0292 -0.0302584 0)
(10.0423 -0.0284523 0)
(10.0549 -0.0269401 0)
(10.067 -0.0263178 0)
(10.079 -0.0258775 0)
(10.0916 -0.0251666 0)
(10.1048 -0.024105 0)
(10.1184 -0.0227543 0)
(10.1322 -0.0212084 0)
(10.1462 -0.0195165 0)
(10.1605 -0.0177454 0)
(10.175 -0.015911 0)
(10.1898 -0.0140999 0)
(10.2047 -0.0123065 0)
(10.2196 -0.010649 0)
(10.2344 -0.00903901 0)
(9.97034 -0.0233585 0)
(9.98641 -0.0336058 0)
(10.0031 -0.0371265 0)
(10.0181 -0.0368411 0)
(10.0317 -0.036134 0)
(10.0448 -0.0356838 0)
(10.058 -0.0350868 0)
(10.0715 -0.0342664 0)
(10.0854 -0.0334261 0)
(10.0997 -0.0326904 0)
(10.1142 -0.0320239 0)
(10.1289 -0.0312953 0)
(10.1437 -0.0303984 0)
(10.1587 -0.0292717 0)
(10.1738 -0.0279537 0)
(10.1889 -0.0264883 0)
(10.204 -0.0250154 0)
(10.2191 -0.0235648 0)
(10.0016 -0.0278449 0)
(10.0161 -0.0365978 0)
(10.0346 -0.0386853 0)
(10.0504 -0.0385714 0)
(10.0634 -0.0387978 0)
(10.0762 -0.0391926 0)
(10.0899 -0.0393179 0)
(10.1046 -0.0391975 0)
(10.1198 -0.0389548 0)
(10.1352 -0.0386318 0)
(10.1504 -0.0381759 0)
(10.1653 -0.0375683 0)
(10.1801 -0.0368002 0)
(10.1948 -0.0359584 0)
(10.2095 -0.0350789 0)
(10.2242 -0.0342484 0)
(10.2392 -0.0334751 0)
(10.254 -0.0327927 0)
(10.0032 -0.0320924 0)
(10.0373 -0.0494997 0)
(10.0676 -0.0484957 0)
(10.0894 -0.0475232 0)
(10.1055 -0.0481726 0)
(10.1188 -0.0487927 0)
(10.1303 -0.0489729 0)
(10.1402 -0.0489739 0)
(10.1486 -0.048948 0)
(10.1556 -0.0488929 0)
(10.1614 -0.0487216 0)
(10.1664 -0.048429 0)
(10.1707 -0.0479864 0)
(10.1746 -0.0474904 0)
(10.1778 -0.0469071 0)
(10.1811 -0.0463525 0)
(10.1835 -0.0457597 0)
(10.1864 -0.0452793 0)
(9.91742 -0.0421401 0)
(9.75028 -0.0532854 0)
(9.58195 -0.0513286 0)
(9.41287 -0.0498906 0)
(9.2488 -0.0493468 0)
(9.09292 -0.0485461 0)
(8.94567 -0.0474033 0)
(8.80656 -0.0461998 0)
(8.6748 -0.0450837 0)
(8.5499 -0.0440587 0)
(8.43135 -0.0430555 0)
(8.31926 -0.0420387 0)
(8.21315 -0.0409775 0)
(8.11347 -0.039923 0)
(8.01898 -0.0388565 0)
(7.9309 -0.0378498 0)
(7.84658 -0.0368489 0)
(7.76924 -0.0359797 0)
(-0.170391 0.341316 -1.59268e-21)
(-0.370862 0.145725 1.60365e-21)
(-0.432742 -0.0273404 0)
(-0.38408 -0.173725 0)
(-0.192484 -0.309905 0)
(0.0996821 -0.414073 -1.55778e-21)
(0.479914 -0.481757 0)
(0.911456 -0.501952 0)
(1.36054 -0.491086 0)
(1.79088 -0.453305 0)
(2.1863 -0.395565 1.65172e-21)
(2.53152 -0.324897 0)
(2.81413 -0.246615 0)
(3.02492 -0.164835 0)
(3.15859 -0.0820228 0)
(3.21421 -0.000202531 2.03977e-21)
(3.19091 0.0797367 0)
(3.09153 0.15602 0)
(2.91623 0.228243 0)
(2.6741 0.292462 0)
(2.36274 0.348269 0)
(2.00823 0.385295 0)
(1.59999 0.40838 0)
(1.1925 0.38222 1.67817e-21)
(0.75524 0.371727 -1.63325e-21)
(0.365624 0.259512 1.60796e-21)
(0.0271193 0.10461 1.60131e-21)
(-0.299917 -0.0165107 0)
(-0.574063 -0.114037 0)
(-0.845003 -0.0661355 -1.66524e-21)
(-1.14836 0.0578521 -1.69873e-21)
(-1.48666 0.156129 0)
(-1.85287 0.205079 0)
(-2.22052 0.224734 -1.85415e-21)
(-2.55576 0.214431 0)
(-2.85066 0.201826 0)
(-3.11894 0.199798 2.08712e-21)
(-3.36815 0.199086 0)
(-3.61473 0.208186 2.29332e-21)
(-3.89162 0.2308 4.84684e-21)
(-4.21547 0.252882 0)
(-4.59327 0.266063 0)
(-4.98654 0.259337 0)
(-5.31757 0.174788 0)
(-5.64306 0.0921827 0)
(-6.0034 0.0961438 6.27245e-21)
(-6.38357 0.224186 6.45479e-21)
(-6.81068 0.354816 6.59842e-21)
(-7.24088 0.347806 0)
(-7.58921 0.287514 -6.9062e-21)
(-7.88104 0.239633 0)
(-8.1185 0.195509 7.20493e-21)
(-8.30825 0.156941 7.3188e-21)
(-8.4547 0.122639 0)
(-8.56311 0.0928818 0)
(-8.63761 0.0671124 0)
(-8.68243 0.0449738 7.46069e-21)
(-8.70101 0.0259142 0)
(-8.69653 0.00945163 0)
(-8.67151 -0.00488998 0)
(-8.62807 -0.0175549 0)
(-8.5678 -0.0289354 0)
(-8.49186 -0.0393939 0)
(-8.40094 -0.0492293 0)
(-8.29531 -0.0586867 0)
(-8.17496 -0.0679158 -6.27875e-21)
(-8.03965 -0.0770244 0)
(-7.88915 -0.0859631 0)
(-7.72332 -0.0946466 5.49369e-21)
(-7.54251 -0.102879 5.18785e-21)
(-7.34688 -0.110522 0)
(-7.13781 -0.117435 -4.51705e-21)
(-6.91591 -0.123581 4.15702e-21)
(-6.68249 -0.128854 0)
(-6.43881 -0.133228 -3.40384e-21)
(-6.18645 -0.136667 0)
(-5.92685 -0.139247 0)
(-5.66141 -0.141079 2.24498e-21)
(-5.39115 -0.142345 0)
(-5.11675 -0.14329 -1.48743e-21)
(-4.83849 -0.144129 0)
(-4.5562 -0.145079 7.56816e-22)
(-4.26939 -0.146333 4.02769e-22)
(-3.97733 -0.148 5.63041e-23)
(-3.67909 -0.150083 -5.64999e-22)
(-3.37379 -0.152576 1.22643e-21)
(-3.06079 -0.155302 0)
(-2.73972 -0.158071 0)
(-2.41062 -0.160672 0)
(-2.07401 -0.16282 3.65397e-21)
(-1.73088 -0.164325 4.184e-21)
(-1.38272 -0.164967 -4.67268e-21)
(-1.03129 -0.164561 0)
(-0.67867 -0.163041 5.50716e-21)
(-0.327163 -0.160329 5.84604e-21)
(0.0208927 -0.156423 6.13028e-21)
(0.363226 -0.151342 0)
(0.697619 -0.14516 0)
(1.02174 -0.137963 0)
(1.33337 -0.129893 6.74114e-21)
(1.6301 -0.121695 0)
(1.90997 -0.112564 0)
(2.1722 -0.103176 -6.74005e-21)
(2.41565 -0.0935128 0)
(2.63989 -0.0838555 0)
(2.84468 -0.0743668 -6.50148e-21)
(3.03017 -0.0652082 0)
(3.19679 -0.0565014 0)
(3.34528 -0.0483311 6.15931e-21)
(3.47656 -0.040751 6.03875e-21)
(3.59168 -0.0337882 0)
(3.69178 -0.0274511 -5.80087e-21)
(3.77802 -0.0217347 0)
(3.85161 -0.0166233 5.57558e-21)
(3.91376 -0.0120899 0)
(3.96566 -0.00809132 5.36823e-21)
(4.00839 -0.00457112 5.27191e-21)
(4.04295 -0.00146566 0)
(4.07019 0.00127534 0)
(4.09092 0.00366776 0)
(4.10594 0.00570984 0)
(4.11601 0.00743376 0)
(4.12183 0.00891165 0)
(4.12393 0.01022 0)
(4.12268 0.0114264 4.66245e-21)
(4.11821 0.0125865 -4.60296e-21)
(4.11057 0.0136757 0)
(4.09992 0.0145802 0)
(4.08667 0.0152144 0)
(4.07136 0.0155931 0)
(4.05449 0.0157911 -8.68748e-21)
(4.03644 0.0158994 0)
(4.01741 0.016003 8.50984e-21)
(3.99746 0.0161619 -8.42629e-21)
(3.97653 0.0163964 0)
(3.95452 0.0166949 0)
(3.93134 0.017031 0)
(3.90687 0.0173742 8.12093e-21)
(3.88105 0.0176859 8.05059e-21)
(3.85387 0.0179215 0)
(3.82538 0.0180427 7.91562e-21)
(3.79573 0.0180281 7.85067e-21)
(3.76511 0.0178688 -7.78723e-21)
(3.73376 0.0175519 0)
(3.702 0.0170493 0)
(3.6702 0.0163285 -7.60495e-21)
(3.6388 0.0153816 0)
(3.60825 0.0142506 0)
(3.57893 0.0130246 0)
(3.55109 0.0118096 0)
(3.52484 0.01069 7.32538e-21)
(3.50017 0.00970588 7.2729e-21)
(3.477 0.00885022 0)
(3.45527 0.00808575 7.17088e-21)
(3.43491 0.00736907 0)
(3.41591 0.00667221 0)
(3.39827 0.0059894 7.02444e-21)
(3.38201 0.00533618 0)
(3.36704 0.00473673 6.93107e-21)
(3.35332 0.00421483 0)
(3.34064 0.00378375 0)
(3.32892 0.00344805 6.79729e-21)
(3.31779 0.00320317 0)
(3.30726 0.00304042 6.71216e-21)
(3.29679 0.0029587 0)
(3.28663 0.0029433 0)
(3.27584 0.0030274 0)
(3.26519 0.00316212 -6.55275e-21)
(3.25289 0.00348471 0)
(3.24062 0.0037938 6.48037e-21)
(3.22514 0.00455615 0)
(3.20928 0.00503231 0)
(3.18814 0.00675975 0)
(3.16428 0.00724114 0)
(3.13424 0.0114351 0)
(3.09019 0.0111663 0)
(3.04932 0.0225561 0)
(2.94676 0.0188843 -1.26722e-20)
(2.90493 0.0552126 0)
(2.60521 0.044826 0)
(0.00698323 0.683348 4.84556e-21)
(0.070544 0.349682 -4.865e-21)
(0.140982 0.000504042 0)
(0.326991 -0.322868 3.30049e-21)
(0.635903 -0.705667 0)
(1.03285 -1.02495 1.5539e-21)
(1.4628 -1.23337 -3.32924e-21)
(1.8872 -1.32475 -3.39045e-21)
(2.2829 -1.31594 0)
(2.63769 -1.22811 -3.66764e-21)
(2.94262 -1.08293 -1.64619e-21)
(3.19173 -0.89985 0)
(3.38017 -0.694568 0)
(3.50768 -0.478375 0)
(3.57488 -0.259685 0)
(3.58374 -0.0442789 -2.03529e-21)
(3.53569 0.162777 0)
(3.43516 0.358246 4.53518e-21)
(3.28339 0.537981 0)
(3.0856 0.701476 0)
(2.8444 0.840943 -4.14368e-21)
(2.56359 0.955958 0)
(2.25645 1.02591 3.8017e-21)
(1.92109 1.07121 -1.67072e-21)
(1.59282 1.03778 1.62529e-21)
(1.22543 0.951403 -1.5996e-21)
(0.776205 0.981027 -1.59259e-21)
(0.227383 1.01553 0)
(-0.389037 1.00842 0)
(-1.05398 1.00852 1.6578e-21)
(-1.71484 0.968984 -1.9559e-21)
(-2.26183 0.92087 0)
(-2.75387 0.8924 0)
(-3.17886 0.830637 1.84748e-21)
(-3.54686 0.722466 0)
(-3.87987 0.613188 0)
(-4.18247 0.53818 -2.07938e-21)
(-4.45953 0.503786 0)
(-4.73724 0.540493 2.79153e-21)
(-5.03892 0.659439 -4.83116e-21)
(-5.39021 0.800166 0)
(-5.75507 0.880068 0)
(-6.14537 0.803293 -1.20068e-20)
(-6.59216 0.766453 -1.2473e-20)
(-7.07749 0.907747 -1.29121e-20)
(-7.56416 0.964349 7.10508e-21)
(-7.93141 0.912113 -6.44081e-21)
(-8.20875 0.829465 -2.06844e-20)
(-8.44149 0.711609 1.43872e-20)
(-8.61839 0.590998 6.89369e-21)
(-8.76025 0.478287 0)
(-8.8625 0.375428 -7.19301e-21)
(-8.9336 0.283977 7.94258e-21)
(-8.97486 0.203711 0)
(-8.99111 0.13391 0)
(-8.98473 0.0735501 0)
(-8.95883 0.0213669 -7.45283e-21)
(-8.91545 -0.0238111 0)
(-8.85666 -0.0631699 1.50063e-20)
(-8.78399 -0.0977431 0)
(-8.69875 -0.128542 1.4557e-20)
(-8.60186 -0.156457 0)
(-8.49386 -0.182355 -1.39555e-20)
(-8.37499 -0.207001 0)
(-8.24514 -0.231031 1.32011e-20)
(-8.10394 -0.254906 -6.48341e-21)
(-7.95093 -0.278882 0)
(-7.78557 -0.302926 -1.17519e-20)
(-7.60737 -0.326778 -5.4953e-21)
(-7.41577 -0.349984 -5.18965e-21)
(-7.21102 -0.372009 0)
(-6.99277 -0.392367 -4.67791e-21)
(-6.76207 -0.410602 -4.15855e-21)
(-6.51991 -0.426335 0)
(-6.26778 -0.439347 3.40515e-21)
(-6.00716 -0.449576 -6.15303e-21)
(-5.73968 -0.457184 0)
(-5.46675 -0.46255 -2.24604e-21)
(-5.18949 -0.466214 0)
(-4.90854 -0.468888 4.55336e-21)
(-4.62414 -0.471249 0)
(-4.33607 -0.47397 -2.35937e-21)
(-4.04376 -0.477603 -4.03571e-22)
(-3.74633 -0.482506 1.46013e-22)
(-3.44276 -0.488746 -3.82572e-22)
(-3.13209 -0.496202 1.04197e-21)
(-2.81358 -0.504435 0)
(-2.48687 -0.512833 0)
(-2.15201 -0.520687 0)
(-1.80956 -0.527244 -1.07836e-20)
(-1.46063 -0.531843 -4.18208e-21)
(-1.10672 -0.53385 4.67062e-21)
(-0.7497 -0.532806 0)
(-0.391709 -0.528455 5.36018e-21)
(-0.0350439 -0.520669 -5.84355e-21)
(0.31799 -0.509424 -6.1277e-21)
(0.665217 -0.494766 0)
(1.00457 -0.476823 0)
(1.33381 -0.455912 0)
(1.65061 -0.432671 -6.73752e-21)
(1.95289 -0.407534 0)
(2.23901 -0.38061 1.34502e-20)
(2.50803 -0.35263 2.01235e-20)
(2.75901 -0.323978 -1.32744e-20)
(2.99147 -0.295286 0)
(3.20524 -0.267093 -6.4358e-21)
(3.40054 -0.239861 0)
(3.57786 -0.213944 -1.24998e-20)
(3.73796 -0.189584 6.11243e-21)
(3.88179 -0.166927 5.99721e-21)
(4.01039 -0.146041 0)
(4.12488 -0.12694 1.73626e-20)
(4.2264 -0.109615 -1.134e-20)
(4.31607 -0.0940369 -5.57199e-21)
(4.39499 -0.0801521 0)
(4.46426 -0.0678639 -5.36475e-21)
(4.52493 -0.0570283 -1.57906e-20)
(4.5779 -0.0474783 0)
(4.62393 -0.0390773 -1.01694e-20)
(4.66375 -0.0317478 -1.00065e-20)
(4.69816 -0.0254401 -9.85219e-21)
(4.72819 -0.0200749 0)
(4.7548 -0.0155112 0)
(4.77872 -0.0115401 0)
(4.80032 -0.00792221 4.65281e-21)
(4.81968 -0.00447249 4.59932e-21)
(4.83677 -0.00116574 0)
(4.85147 0.00185442 8.97239e-21)
(4.86371 0.00441486 8.86933e-21)
(4.87367 0.00643178 0)
(4.8817 0.00794585 8.67956e-21)
(4.88833 0.00909036 1.71719e-20)
(4.89406 0.0100246 -8.50173e-21)
(4.89932 0.0108793 -8.41339e-21)
(4.90438 0.0117375 0)
(4.90937 0.0126446 0)
(4.91428 0.0136244 0)
(4.91899 0.0146815 -8.11232e-21)
(4.92335 0.0157994 8.03871e-21)
(4.92716 0.0169395 1.59438e-20)
(4.93021 0.0180459 -7.90664e-21)
(4.93236 0.0190576 7.83922e-21)
(4.9335 0.0199186 7.778e-21)
(4.9336 0.0205796 0)
(4.93267 0.0209959 0)
(4.93075 0.021129 -7.59431e-21)
(4.92789 0.0209563 0)
(4.92415 0.0204829 0)
(4.91959 0.0197498 1.48478e-20)
(4.91433 0.0188273 0)
(4.90847 0.0177933 7.31593e-21)
(4.90218 0.0167112 -7.26318e-21)
(4.89564 0.0156196 0)
(4.88904 0.0145348 7.16176e-21)
(4.88255 0.0134606 0)
(4.87633 0.0123976 0)
(4.87048 0.0113502 -7.01499e-21)
(4.86507 0.0103324 1.39365e-20)
(4.86009 0.00936932 -6.92177e-21)
(4.85556 0.00849032 0)
(4.85142 0.00772748 0)
(4.84764 0.00709768 6.78849e-21)
(4.84408 0.00662474 0)
(4.8407 0.00629374 6.70319e-21)
(4.83732 0.00614338 0)
(4.83385 0.0061086 0)
(4.83006 0.00631601 0)
(4.82585 0.00657236 6.54422e-21)
(4.82092 0.00727409 0)
(4.81504 0.0078409 -6.47199e-21)
(4.80807 0.00943369 0)
(4.79892 0.0103228 0)
(4.78876 0.0138251 1.27537e-20)
(4.77305 0.0148869 -1.27031e-20)
(4.75846 0.0229241 0)
(4.72807 0.0235329 0)
(4.70871 0.0435421 0)
(4.64205 0.0427715 3.78964e-20)
(4.62409 0.0991441 0)
(4.46607 0.103701 -2.53389e-20)
(0.0711632 0.298519 -3.82414e-23)
(0.211492 0.000328884 6.45714e-21)
(0.479924 -0.485044 0)
(0.918295 -1.0958 -6.59699e-21)
(1.40609 -1.63221 0)
(1.86217 -1.99219 0)
(2.25552 -2.16245 -4.41945e-22)
(2.57982 -2.16719 3.37808e-21)
(2.84008 -2.0433 4.17226e-21)
(3.04263 -1.82805 3.65859e-21)
(3.19194 -1.55345 0)
(3.29141 -1.2443 0)
(3.3443 -0.918998 -5.00892e-21)
(3.35316 -0.590377 -1.02776e-20)
(3.3196 -0.26753 1.04323e-20)
(3.24523 0.0434417 0)
(3.13308 0.337395 1.04075e-20)
(2.98691 0.610489 -4.53602e-21)
(2.81136 0.859434 0)
(2.61101 1.08159 9.65156e-21)
(2.39192 1.27302 4.14238e-21)
(2.1512 1.42196 -8.87953e-21)
(1.89623 1.5341 -3.79794e-21)
(1.63139 1.5578 0)
(1.33657 1.56309 7.80335e-21)
(0.919113 1.70251 7.56924e-21)
(0.452889 1.84479 0)
(-0.0739376 2.00774 7.35498e-21)
(-0.642055 2.12006 0)
(-1.20945 2.15055 7.5364e-21)
(-1.7771 2.08852 3.63079e-21)
(-2.30512 1.94356 0)
(-2.80283 1.75951 0)
(-3.2541 1.56889 0)
(-3.65334 1.38888 0)
(-4.02494 1.23876 0)
(-4.39676 1.14168 0)
(-4.74185 1.07693 1.08111e-20)
(-5.10868 1.09661 -1.63501e-20)
(-5.50366 1.22874 0)
(-5.92864 1.34903 0)
(-6.34534 1.43299 0)
(-6.7898 1.53267 -1.18854e-21)
(-7.25535 1.56809 1.2466e-20)
(-7.60347 1.50658 2.70388e-20)
(-7.87801 1.38927 -2.79247e-20)
(-8.0733 1.24243 -1.4958e-20)
(-8.21761 1.08532 1.41012e-20)
(-8.32101 0.913575 1.16315e-21)
(-8.39545 0.747072 1.57632e-20)
(-8.4494 0.590379 0)
(-8.48423 0.449378 1.60213e-20)
(-8.50379 0.324111 8.14179e-22)
(-8.50802 0.214549 0)
(-8.49858 0.119066 0)
(-8.47564 0.0362211 -1.59467e-20)
(-8.44013 -0.0358157 0)
(-8.39247 -0.0986032 0)
(-8.33337 -0.153691 1.58713e-20)
(-8.26337 -0.202437 3.04158e-20)
(-8.18301 -0.246164 -1.45723e-20)
(-8.09266 -0.28612 0)
(-7.99248 -0.323565 1.39708e-20)
(-7.88227 -0.359681 0)
(-7.7615 -0.395487 1.38382e-20)
(-7.62934 -0.431726 1.27773e-20)
(-7.48478 -0.468755 -2.51913e-20)
(-7.32678 -0.50656 -1.23579e-20)
(-7.15453 -0.544691 0)
(-6.96759 -0.582407 2.17029e-20)
(-6.76611 -0.618669 0)
(-6.55062 -0.652418 2.813e-20)
(-6.32215 -0.682649 1.74232e-20)
(-6.08209 -0.708596 1.58723e-20)
(-5.83216 -0.729804 -1.4287e-20)
(-5.57426 -0.746152 1.88461e-20)
(-5.31028 -0.757947 0)
(-5.04193 -0.765857 0)
(-4.77051 -0.770902 -7.94047e-21)
(-4.49673 -0.774313 -9.48577e-21)
(-4.22075 -0.777337 0)
(-3.94219 -0.781155 1.60519e-21)
(-3.66017 -0.786698 0)
(-3.37351 -0.794563 -8.95725e-22)
(-3.08081 -0.804895 2.84891e-22)
(-2.78082 -0.817382 -2.89003e-22)
(-2.47258 -0.831266 -3.2601e-21)
(-2.15561 -0.84543 0)
(-1.83001 -0.858603 5.7096e-21)
(-1.49652 -0.869493 2.75477e-22)
(-1.1564 -0.876937 0)
(-0.811414 -0.879937 0)
(-0.463754 -0.877794 0)
(-0.115776 -0.87016 -1.08633e-20)
(0.230055 -0.856989 0)
(0.571423 -0.838321 0)
(0.906318 -0.814177 0)
(1.23286 -0.784677 0)
(1.5488 -0.750638 0)
(1.85209 -0.712486 -1.31939e-20)
(2.14111 -0.670904 0)
(2.41427 -0.626512 -1.34422e-20)
(2.67061 -0.580206 -1.33805e-20)
(2.90941 -0.532973 1.32668e-20)
(3.13023 -0.485778 0)
(3.33303 -0.439509 1.29259e-20)
(3.51811 -0.39491 0)
(3.68607 -0.352548 1.24945e-20)
(3.83774 -0.312812 -1.22629e-20)
(3.97407 -0.275936 -3.59564e-20)
(4.09607 -0.242026 0)
(4.20483 -0.211082 -3.45897e-20)
(4.30147 -0.183031 -1.12522e-20)
(4.38712 -0.15778 0)
(4.46287 -0.135236 -2.17563e-20)
(4.52975 -0.11526 -2.13647e-20)
(4.58878 -0.0975944 3.15114e-20)
(4.64088 -0.0819057 0)
(4.6866 -0.0679482 1.0168e-20)
(4.72611 -0.0557308 1.00053e-20)
(4.7596 -0.0454395 2.95232e-20)
(4.78776 -0.0371271 0)
(4.81195 -0.0304966 0)
(4.83362 -0.0249853 0)
(4.85368 -0.0200022 9.29204e-21)
(4.87238 -0.0151502 0)
(4.88946 -0.0103267 0)
(4.9045 -0.00567255 -8.97172e-21)
(4.91724 -0.00146538 -8.86867e-21)
(4.92764 0.00202082 0)
(4.93594 0.00464719 0)
(4.94256 0.0064453 -1.71706e-20)
(4.94807 0.00758281 0)
(4.95306 0.00829067 1.68303e-20)
(4.95805 0.00879547 1.66634e-20)
(4.96337 0.00928179 0)
(4.96918 0.00988212 0)
(4.97546 0.0106685 -1.62154e-20)
(4.98208 0.0116502 -4.32947e-24)
(4.98885 0.0127864 -3.91272e-24)
(4.9956 0.0140053 0)
(5.00215 0.0152214 -3.1356e-20)
(5.00841 0.0163484 0)
(5.0143 0.0173061 0)
(5.01975 0.0180267 0)
(5.02475 0.018462 1.51882e-20)
(5.02923 0.0185935 0)
(5.03314 0.0184394 -2.99138e-20)
(5.0364 0.0180528 -1.48459e-20)
(5.03896 0.0175049 0)
(5.04078 0.0168549 -1.46295e-20)
(5.04185 0.0161302 0)
(5.04224 0.0153262 0)
(5.04208 0.0144241 -4.29631e-20)
(5.04153 0.0134122 2.8444e-20)
(5.04079 0.0122984 0)
(5.04002 0.0111156 2.80577e-20)
(5.03934 0.00991303 -1.39341e-20)
(5.03884 0.00875281 0)
(5.03854 0.00768752 0)
(5.03845 0.00677089 0)
(5.03854 0.00602141 -4.0723e-20)
(5.03879 0.00548098 0)
(5.03912 0.00512365 -1.3404e-20)
(5.03951 0.00502221 0)
(5.03978 0.00508309 0)
(5.03998 0.0054995 0)
(5.03971 0.00601054 0)
(5.03921 0.0071367 0)
(5.03762 0.00816417 0)
(5.03576 0.0104699 -2.57357e-20)
(5.03166 0.0121292 0)
(5.02759 0.0167415 -1.2751e-20)
(5.01894 0.0192157 3.80818e-20)
(5.01155 0.0288954 0)
(4.99454 0.0327132 0)
(4.98246 0.0547314 -2.51739e-20)
(4.95055 0.0629347 -2.5234e-20)
(4.93439 0.118034 2.51457e-20)
(4.88484 0.14577 2.53294e-20)
(-0.0201954 0.0242705 -9.6515e-21)
(0.291278 -0.574723 -9.65499e-21)
(0.864226 -1.54618 -6.64909e-21)
(1.41109 -2.27838 -3.71732e-21)
(1.8615 -2.70046 0)
(2.19541 -2.85282 8.06928e-21)
(2.42176 -2.7977 -4.89648e-21)
(2.56149 -2.59374 0)
(2.63669 -2.29198 -4.17119e-21)
(2.66734 -1.93404 0)
(2.66845 -1.54903 1.07123e-20)
(2.64848 -1.15468 0)
(2.60988 -0.760911 5.01723e-21)
(2.55019 -0.374662 1.02959e-20)
(2.46588 -0.00175252 -1.04513e-20)
(2.35437 0.352278 0)
(2.2171 0.682047 -1.04255e-20)
(2.05602 0.983233 0)
(1.87523 1.25393 0)
(1.67856 1.49231 -9.66538e-21)
(1.47446 1.69862 0)
(1.2583 1.86756 -8.95478e-22)
(1.04729 1.96458 0)
(0.789079 2.07487 0)
(0.444158 2.27639 8.64478e-22)
(0.0545485 2.48859 -7.56301e-21)
(-0.368075 2.69561 -8.24271e-21)
(-0.799668 2.85999 -7.3414e-21)
(-1.22861 2.94522 0)
(-1.64918 2.94387 -1.57533e-20)
(-2.07243 2.85888 0)
(-2.49782 2.70193 -8.65957e-21)
(-2.92905 2.50324 0)
(-3.35938 2.2909 0)
(-3.78137 2.0829 9.93202e-21)
(-4.19281 1.90594 0)
(-4.61088 1.78723 -1.10638e-20)
(-5.01187 1.72066 8.60772e-22)
(-5.44372 1.78521 2.35551e-20)
(-5.89642 1.96092 -2.58009e-20)
(-6.34127 2.13606 0)
(-6.74057 2.17753 0)
(-7.06722 2.1315 -1.59963e-20)
(-7.32965 2.00662 0)
(-7.51364 1.8291 -1.4136e-20)
(-7.65269 1.62749 1.45711e-20)
(-7.74805 1.41603 1.49674e-20)
(-7.81863 1.20546 0)
(-7.86632 1.00015 -1.55663e-20)
(-7.90027 0.808232 -1.57765e-20)
(-7.92048 0.631314 3.40255e-20)
(-7.92982 0.471914 -1.60362e-20)
(-7.92843 0.329222 -1.60894e-20)
(-7.9168 0.202728 0)
(-7.89488 0.0907984 0)
(-7.86283 -0.00798882 1.59637e-20)
(-7.82081 -0.0952753 0)
(-7.76916 -0.172546 0)
(-7.70827 -0.241277 -3.09277e-20)
(-7.63859 -0.302872 -3.04513e-20)
(-7.56053 -0.358769 0)
(-7.47441 -0.410448 0)
(-7.38024 -0.459485 0)
(-7.27763 -0.507455 0)
(-7.16565 -0.555779 -2.70885e-20)
(-7.04297 -0.605498 2.69916e-20)
(-6.90804 -0.657118 2.52246e-20)
(-6.75929 -0.710522 4.90872e-20)
(-6.5954 -0.764902 0)
(-6.41549 -0.818934 7.36544e-22)
(-6.21938 -0.870863 0)
(-6.00772 -0.9189 -1.89486e-20)
(-5.78179 -0.961597 6.20804e-22)
(-5.54343 -0.997832 -1.58948e-20)
(-5.29489 -1.0269 1.43076e-20)
(-5.03859 -1.04859 4.73879e-22)
(-4.77705 -1.06333 0)
(-4.51247 -1.07215 9.91027e-21)
(-4.24661 -1.07667 7.95414e-21)
(-3.98044 -1.07887 1.32088e-20)
(-3.71419 -1.0808 0)
(-3.44738 -1.08433 -3.83386e-21)
(-3.17882 -1.09089 0)
(-2.90685 -1.10139 1.74991e-21)
(-2.62947 -1.11601 6.52654e-22)
(-2.34486 -1.13418 -1.9712e-21)
(-2.05151 -1.15464 3.25733e-21)
(-1.74867 -1.17555 8.26055e-21)
(-1.4363 -1.19488 -5.70799e-21)
(-1.11517 -1.21063 6.85318e-21)
(-0.786765 -1.22111 0)
(-0.45313 -1.22493 -1.71772e-20)
(-0.116837 -1.22115 0)
(0.219316 -1.20936 -2.06395e-20)
(0.552563 -1.18964 2.20545e-20)