/*--------------------------------*- C++ -*----------------------------------*\
  =========                 |
  \\      /  F ield         | OpenFOAM: The Open Source CFD Toolbox
   \\    /   O peration     | Website:  https://openfoam.org
    \\  /    A nd           | Version:  9
     \\/     M anipulation  |
\*---------------------------------------------------------------------------*/
FoamFile
{
    format      ascii;
    class       volScalarField;
    location    "0.25";
    object      nut;
}
// * * * * * * * * * * * * * * * * * * * * * * * * * * * * * * * * * * * * * //

dimensions      [0 2 -1 0 0 0 0];

internalField   nonuniform List<scalar> 
12225
(
2.91437e-06
2.2009e-06
1.70896e-06
1.37658e-06
1.1612e-06
1.03242e-06
9.67352e-07
9.47872e-07
9.59198e-07
9.89286e-07
1.0283e-06
1.08793e-06
1.15807e-06
1.235e-06
1.31762e-06
1.40985e-06
1.52679e-06
1.71083e-06
2.47894e-05
1.7608e-05
1.49422e-05
1.3701e-05
1.31066e-05
1.28366e-05
1.27157e-05
1.26464e-05
1.25801e-05
1.24966e-05
1.23947e-05
1.22255e-05
1.20029e-05
1.1739e-05
1.14419e-05
1.11191e-05
1.07649e-05
1.04164e-05
5.3377e-05
4.12269e-05
3.45829e-05
3.02959e-05
2.71884e-05
2.47548e-05
2.27488e-05
2.10525e-05
1.96177e-05
1.84383e-05
1.74328e-05
1.65731e-05
1.58628e-05
1.53057e-05
1.49145e-05
1.47241e-05
1.48179e-05
1.53484e-05
6.81838e-05
5.94845e-05
5.27788e-05
4.76541e-05
4.36132e-05
4.03222e-05
3.75674e-05
3.52298e-05
3.32599e-05
3.15289e-05
3.00235e-05
2.87369e-05
2.7678e-05
2.68675e-05
2.63432e-05
2.61708e-05
2.64539e-05
2.73166e-05
7.36349e-05
6.91709e-05
6.46814e-05
6.06131e-05
5.70467e-05
5.39524e-05
5.12813e-05
4.89742e-05
4.69529e-05
4.51807e-05
4.36417e-05
4.23321e-05
4.12622e-05
4.04571e-05
3.99606e-05
3.98394e-05
4.0179e-05
4.10468e-05
7.53782e-05
7.32756e-05
7.07922e-05
6.82149e-05
6.57142e-05
6.3386e-05
6.12645e-05
5.93441e-05
5.76224e-05
5.60947e-05
5.47604e-05
5.36254e-05
5.27042e-05
5.20228e-05
5.16207e-05
5.15511e-05
5.1872e-05
5.26021e-05
7.58898e-05
7.47746e-05
7.3428e-05
7.19349e-05
7.0385e-05
6.88462e-05
6.73627e-05
6.59652e-05
6.46736e-05
6.35027e-05
6.24655e-05
6.15765e-05
6.08546e-05
6.03252e-05
6.00211e-05
5.99813e-05
6.02408e-05
6.07937e-05
7.60294e-05
7.52622e-05
7.44168e-05
7.35008e-05
7.25367e-05
7.15516e-05
7.05726e-05
6.96231e-05
6.8723e-05
6.78897e-05
6.71398e-05
6.64902e-05
6.59602e-05
6.55726e-05
6.53537e-05
6.53308e-05
6.5525e-05
6.59228e-05
7.6065e-05
7.54053e-05
7.47447e-05
7.40755e-05
7.33973e-05
7.27162e-05
7.20417e-05
7.13846e-05
7.07567e-05
7.01699e-05
6.96374e-05
6.91731e-05
6.8793e-05
6.85151e-05
6.83591e-05
6.83436e-05
6.84814e-05
6.87594e-05
7.60733e-05
7.54431e-05
7.48411e-05
7.42609e-05
7.36986e-05
7.31537e-05
7.26276e-05
7.2124e-05
7.16477e-05
7.12052e-05
7.08047e-05
7.04557e-05
7.01694e-05
6.99587e-05
6.98371e-05
6.98167e-05
6.99054e-05
7.00927e-05
7.60752e-05
7.5452e-05
7.48659e-05
7.4313e-05
7.37903e-05
7.3296e-05
7.28296e-05
7.23916e-05
7.19839e-05
7.16095e-05
7.12728e-05
7.098e-05
7.07381e-05
7.05557e-05
7.04412e-05
7.04024e-05
7.04441e-05
7.05584e-05
7.60756e-05
7.54537e-05
7.48707e-05
7.43242e-05
7.38117e-05
7.33316e-05
7.28831e-05
7.24659e-05
7.20808e-05
7.17292e-05
7.14138e-05
7.11385e-05
7.09079e-05
7.07273e-05
7.06023e-05
7.05374e-05
7.05355e-05
7.05908e-05
7.60757e-05
7.5454e-05
7.48714e-05
7.43259e-05
7.38156e-05
7.33388e-05
7.28948e-05
7.2483e-05
7.21035e-05
7.17573e-05
7.14457e-05
7.11712e-05
7.09367e-05
7.07456e-05
7.06013e-05
7.05063e-05
7.04623e-05
7.04651e-05
7.60759e-05
7.54541e-05
7.4871e-05
7.43249e-05
7.38139e-05
7.33364e-05
7.28914e-05
7.24783e-05
7.2097e-05
7.17476e-05
7.14309e-05
7.11484e-05
7.09015e-05
7.06923e-05
7.05225e-05
7.03935e-05
7.03061e-05
7.02577e-05
7.60761e-05
7.54542e-05
7.48706e-05
7.43234e-05
7.38107e-05
7.33309e-05
7.2883e-05
7.2466e-05
7.20794e-05
7.17231e-05
7.13973e-05
7.11025e-05
7.08394e-05
7.06088e-05
7.04117e-05
7.02482e-05
7.0119e-05
7.00227e-05
7.60763e-05
7.54544e-05
7.48703e-05
7.43219e-05
7.38074e-05
7.3325e-05
7.28735e-05
7.24517e-05
7.20589e-05
7.16946e-05
7.13584e-05
7.10503e-05
7.07704e-05
7.05187e-05
7.02953e-05
7.01e-05
6.99331e-05
6.97945e-05
7.60766e-05
7.54547e-05
7.48701e-05
7.43206e-05
7.38043e-05
7.33193e-05
7.28642e-05
7.24377e-05
7.20387e-05
7.16664e-05
7.13202e-05
7.09996e-05
7.07041e-05
7.04334e-05
7.01869e-05
6.99644e-05
6.97655e-05
6.95917e-05
7.60768e-05
7.54549e-05
7.48699e-05
7.43194e-05
7.38015e-05
7.33141e-05
7.28557e-05
7.24248e-05
7.20202e-05
7.16409e-05
7.12859e-05
7.09545e-05
7.06458e-05
7.03591e-05
7.00938e-05
6.98492e-05
6.96249e-05
6.94232e-05
7.60768e-05
7.54548e-05
7.48693e-05
7.43179e-05
7.37985e-05
7.3309e-05
7.28478e-05
7.24133e-05
7.20041e-05
7.16191e-05
7.12572e-05
7.09172e-05
7.05984e-05
7.02998e-05
7.00205e-05
6.97596e-05
6.95168e-05
6.9295e-05
7.60767e-05
7.54544e-05
7.48685e-05
7.43164e-05
7.37959e-05
7.3305e-05
7.28419e-05
7.2405e-05
7.19929e-05
7.16042e-05
7.12378e-05
7.08925e-05
7.05672e-05
7.0261e-05
6.99727e-05
6.97016e-05
6.94471e-05
6.92126e-05
7.60765e-05
7.5454e-05
7.48677e-05
7.4315e-05
7.37937e-05
7.33016e-05
7.2837e-05
7.23981e-05
7.19833e-05
7.15911e-05
7.12203e-05
7.08696e-05
7.05378e-05
7.02236e-05
6.99262e-05
6.96444e-05
6.93779e-05
6.91302e-05
7.60764e-05
7.54534e-05
7.48663e-05
7.43123e-05
7.37887e-05
7.32932e-05
7.28235e-05
7.23776e-05
7.19535e-05
7.15497e-05
7.11644e-05
7.07964e-05
7.04444e-05
7.01071e-05
6.97838e-05
6.94734e-05
6.91759e-05
6.88953e-05
7.60759e-05
7.5451e-05
7.48593e-05
7.42965e-05
7.37589e-05
7.32428e-05
7.27451e-05
7.22634e-05
7.17956e-05
7.13401e-05
7.08958e-05
7.04617e-05
7.00373e-05
6.96223e-05
6.92163e-05
6.88195e-05
6.84325e-05
6.80611e-05
7.60716e-05
7.54311e-05
7.48061e-05
7.41881e-05
7.35712e-05
7.29518e-05
7.23282e-05
7.17006e-05
7.10699e-05
7.04378e-05
6.98062e-05
6.9177e-05
6.85522e-05
6.79336e-05
6.7323e-05
6.67219e-05
6.61326e-05
6.55633e-05
7.60348e-05
7.5284e-05
7.44664e-05
7.35798e-05
7.26329e-05
7.16389e-05
7.06129e-05
6.95685e-05
6.8517e-05
6.74672e-05
6.6426e-05
6.53985e-05
6.43882e-05
6.3398e-05
6.24297e-05
6.14851e-05
6.05663e-05
5.96829e-05
7.57626e-05
7.44075e-05
7.27729e-05
7.09725e-05
6.90969e-05
6.72107e-05
6.53552e-05
6.3553e-05
6.18142e-05
6.01414e-05
5.85333e-05
5.69864e-05
5.54967e-05
5.40608e-05
5.26759e-05
5.13404e-05
5.00544e-05
4.88275e-05
7.40953e-05
7.03347e-05
6.64364e-05
6.27655e-05
5.94209e-05
5.64062e-05
5.3687e-05
5.12166e-05
4.89502e-05
4.68492e-05
4.48829e-05
4.30282e-05
4.12688e-05
3.95947e-05
3.80004e-05
3.64842e-05
3.50468e-05
3.36961e-05
6.5855e-05
5.6558e-05
4.99198e-05
4.50301e-05
4.12528e-05
3.82136e-05
3.56772e-05
3.34901e-05
3.1553e-05
2.98028e-05
2.82004e-05
2.67231e-05
2.53591e-05
2.41026e-05
2.29507e-05
2.19006e-05
2.09485e-05
2.00912e-05
3.8038e-05
2.82798e-05
2.38517e-05
2.13229e-05
1.97353e-05
1.87092e-05
1.80495e-05
1.76377e-05
1.73951e-05
1.72662e-05
1.72112e-05
1.72013e-05
1.72161e-05
1.72413e-05
1.72669e-05
1.72861e-05
1.72949e-05
1.72891e-05
5.62818e-06
4.72083e-06
4.01102e-06
3.4525e-06
3.01355e-06
2.67127e-06
2.40877e-06
2.21312e-06
2.07414e-06
1.98351e-06
1.93426e-06
1.9203e-06
1.93618e-06
1.97687e-06
2.03771e-06
2.11431e-06
2.20261e-06
2.29857e-06
1.79371e-06
1.33772e-05
1.43353e-05
1.45205e-05
1.44677e-05
1.44163e-05
1.44249e-05
1.45706e-05
1.4649e-05
1.45752e-05
1.43101e-05
1.40495e-05
1.37945e-05
1.35805e-05
1.34563e-05
3.77405e-06
4.14425e-06
4.49402e-06
4.83347e-06
5.17404e-06
5.52494e-06
5.89402e-06
6.28779e-06
6.7147e-06
7.21312e-06
7.72712e-06
8.20981e-06
8.64751e-06
9.02145e-06
9.3067e-06
9.47166e-06
9.47775e-06
9.27163e-06
8.75451e-06
7.61649e-06
5.90066e-06
1.49269e-05
9.43841e-06
8.1077e-06
8.32094e-06
8.75175e-06
9.18293e-06
9.60758e-06
1.00189e-05
1.0529e-05
1.12196e-05
1.18927e-05
1.18566e-05
1.12002e-05
1.01962e-05
9.21403e-06
8.49463e-06
8.27971e-06
8.96807e-06
1.08763e-05
1.36069e-05
3.97805e-06
4.33679e-06
4.62986e-06
5.60332e-06
7.66299e-06
9.2255e-06
1.05092e-05
1.15326e-05
1.2327e-05
1.29239e-05
1.33519e-05
1.36362e-05
1.37982e-05
1.38566e-05
1.38273e-05
1.37239e-05
1.35588e-05
1.33421e-05
1.30824e-05
1.2784e-05
1.24757e-05
1.2159e-05
1.18354e-05
1.15066e-05
1.11744e-05
1.084e-05
1.05051e-05
1.01707e-05
9.83786e-06
9.50757e-06
9.18046e-06
8.85687e-06
8.53674e-06
8.21954e-06
7.9042e-06
7.58914e-06
7.27243e-06
6.95211e-06
6.62651e-06
6.29435e-06
5.95456e-06
5.60695e-06
5.2416e-06
4.95025e-06
4.93303e-06
4.95235e-06
4.98609e-06
5.03297e-06
5.09391e-06
5.16936e-06
5.25897e-06
5.3615e-06
5.47491e-06
5.59648e-06
5.72303e-06
5.85109e-06
5.9773e-06
6.09796e-06
6.21077e-06
6.31793e-06
6.394e-06
6.43043e-06
6.41989e-06
6.35608e-06
6.23453e-06
6.05371e-06
5.81742e-06
5.52795e-06
1.8935e-05
1.33582e-05
9.40829e-06
6.89879e-06
5.51678e-06
4.91429e-06
4.78187e-06
4.88655e-06
5.07205e-06
5.24246e-06
5.34486e-06
5.35558e-06
5.27061e-06
5.10114e-06
4.87819e-06
4.66886e-06
4.47509e-06
4.28195e-06
4.09862e-06
3.95734e-06
3.903e-06
3.98541e-06
4.29962e-06
5.04289e-06
6.48549e-06
8.95676e-06
1.25928e-05
3.59409e-06
4.79768e-06
5.67761e-06
6.058e-06
5.98922e-06
5.53771e-06
4.7695e-06
1.4244e-05
1.45638e-05
1.48844e-05
1.50836e-05
1.51048e-05
1.48823e-05
1.43648e-05
1.35394e-05
1.28742e-05
1.29373e-05
1.49857e-05
4.27162e-06
4.78455e-06
5.26564e-06
5.70965e-06
6.13451e-06
6.4366e-06
6.45779e-06
6.13868e-06
5.43586e-06
1.65802e-05
9.79928e-06
1.2547e-06
8.47175e-06
8.16356e-06
6.10834e-06
4.60578e-06
3.98983e-06
4.18791e-06
4.3772e-06
4.42766e-06
4.39842e-06
4.33326e-06
4.25243e-06
4.16518e-06
4.0752e-06
3.9796e-06
3.86465e-06
3.75482e-06
3.64632e-06
3.53712e-06
3.42678e-06
3.31613e-06
3.20689e-06
3.10094e-06
3.00059e-06
2.89726e-06
2.65434e-06
2.52185e-06
2.62683e-06
2.93264e-06
3.3814e-06
3.92299e-06
4.5115e-06
5.09015e-06
5.56442e-06
5.82698e-06
5.89768e-06
5.68779e-06
5.025e-06
4.22591e-06
3.92158e-06
4.23152e-06
4.33831e-06
3.87597e-06
3.74285e-06
3.95837e-06
4.3303e-06
4.67246e-06
4.79832e-06
4.64728e-06
4.35129e-06
4.1765e-06
4.24657e-06
4.38419e-06
4.72743e-06
5.53449e-06
6.37659e-06
6.59821e-06
6.6248e-06
6.74031e-06
6.93063e-06
7.1141e-06
7.17773e-06
7.18902e-06
7.19877e-06
7.25894e-06
7.42228e-06
7.74446e-06
8.28708e-06
9.11927e-06
1.03135e-05
1.19264e-05
1.39513e-05
1.6246e-05
1.84891e-05
2.02471e-05
2.16889e-05
2.31787e-05
2.47225e-05
2.63227e-05
2.79813e-05
2.97e-05
3.14793e-05
3.33183e-05
3.52131e-05
3.71564e-05
3.91357e-05
4.11319e-05
4.31188e-05
4.50613e-05
4.69159e-05
4.8631e-05
5.01492e-05
5.14108e-05
5.23569e-05
5.29329e-05
5.30887e-05
5.27686e-05
5.18818e-05
5.02301e-05
4.78072e-05
4.52995e-05
4.26744e-05
3.99718e-05
3.72309e-05
3.44853e-05
3.17651e-05
2.90979e-05
2.65089e-05
2.40214e-05
2.16557e-05
1.94283e-05
1.73512e-05
1.54314e-05
1.36701e-05
1.20595e-05
1.04946e-05
8.67644e-06
7.04917e-06
5.78295e-06
4.86705e-06
4.23679e-06
3.82908e-06
3.62215e-06
3.72042e-06
4.47216e-06
5.18613e-06
5.98431e-06
6.95332e-06
8.09903e-06
9.35064e-06
1.06001e-05
1.17443e-05
1.27105e-05
1.34623e-05
1.39922e-05
1.43099e-05
1.44303e-05
1.43639e-05
1.41078e-05
1.36309e-05
1.29295e-05
1.20142e-05
1.09082e-05
9.67734e-06
8.41825e-06
7.17457e-06
5.98004e-06
5.03708e-06
4.60467e-06
4.87105e-06
4.69888e-06
3.99706e-06
4.29056e-06
4.72464e-06
5.64649e-06
7.67922e-06
1.16211e-05
1.69628e-05
2.05042e-05
2.11233e-05
2.17045e-05
2.22257e-05
2.25998e-05
2.27083e-05
2.23938e-05
2.13997e-05
1.97979e-05
1.76269e-05
1.39305e-05
1.06084e-05
8.31692e-06
6.5267e-06
5.11429e-06
3.97136e-06
2.83852e-06
2.52252e-06
2.62358e-06
2.93134e-06
4.05753e-06
5.20417e-06
7.84358e-07
4.32862e-06
5.17578e-06
4.39037e-06
3.76949e-06
4.08372e-06
4.26999e-06
4.23685e-06
4.12399e-06
4.01933e-06
3.94934e-06
3.91093e-06
3.89165e-06
3.87734e-06
3.85482e-06
3.81349e-06
3.74662e-06
3.65172e-06
3.53051e-06
3.38826e-06
3.23258e-06
3.07192e-06
2.91434e-06
2.76654e-06
2.63375e-06
2.51905e-06
2.39004e-06
2.19257e-06
1.99995e-06
1.94853e-06
2.08379e-06
2.37929e-06
2.78629e-06
3.24492e-06
3.69793e-06
4.12081e-06
4.46149e-06
4.61314e-06
4.48588e-06
4.09897e-06
3.59783e-06
3.13566e-06
2.85254e-06
2.891e-06
3.24665e-06
3.80626e-06
4.40657e-06
4.8351e-06
4.93875e-06
4.81052e-06
4.81713e-06
5.08969e-06
5.75303e-06
6.55162e-06
6.80913e-06
6.72223e-06
6.56874e-06
6.48885e-06
6.52108e-06
6.65814e-06
6.92021e-06
7.36741e-06
8.11544e-06
9.29987e-06
1.10738e-05
1.35846e-05
1.69197e-05
2.10219e-05
2.56173e-05
3.02356e-05
3.4368e-05
3.76791e-05
4.01046e-05
4.17815e-05
4.29397e-05
4.4036e-05
4.51161e-05
4.61897e-05
4.7267e-05
4.83597e-05
4.94804e-05
5.06426e-05
5.18591e-05
5.31413e-05
5.44976e-05
5.59308e-05
5.74368e-05
5.90014e-05
6.05983e-05
6.21875e-05
6.37153e-05
6.51158e-05
6.6315e-05
6.72364e-05
6.78085e-05
6.79705e-05
6.7673e-05
6.68641e-05
6.54742e-05
6.36678e-05
6.17045e-05
5.9585e-05
5.73572e-05
5.50635e-05
5.2737e-05
5.04035e-05
4.80823e-05
4.57878e-05
4.353e-05
4.13161e-05
3.91509e-05
3.70381e-05
3.498e-05
3.29772e-05
3.10251e-05
2.9086e-05
2.70558e-05
2.47097e-05
2.20241e-05
1.91689e-05
1.63791e-05
1.38925e-05
1.18935e-05
1.05119e-05
9.7519e-06
9.36209e-06
9.22528e-06
9.28114e-06
9.48665e-06
9.80158e-06
1.01862e-05
1.06038e-05
1.10229e-05
1.14183e-05
1.17706e-05
1.20649e-05
1.22894e-05
1.24326e-05
1.24797e-05
1.24094e-05
1.2196e-05
1.18043e-05
1.11732e-05
1.02215e-05
8.90523e-06
7.23174e-06
5.55109e-06
4.51204e-06
4.35589e-06
4.60039e-06
4.36127e-06
4.35717e-06
5.20358e-06
7.03488e-06
1.03848e-05
1.48021e-05
1.81879e-05
1.9562e-05
1.99753e-05
2.02895e-05
2.06768e-05
2.11054e-05
2.15155e-05
2.18099e-05
2.18439e-05
2.14101e-05
2.05833e-05
1.94801e-05
1.81509e-05
1.68133e-05
1.55454e-05
1.43551e-05
1.32239e-05
1.20334e-05
1.02719e-05
6.95871e-06
4.48035e-06
3.46765e-06
3.32328e-06
3.48394e-06
3.77357e-07
2.82321e-06
3.60144e-06
3.97157e-06
4.46756e-06
4.45674e-06
4.28263e-06
4.15439e-06
4.1266e-06
4.18381e-06
4.29359e-06
4.42477e-06
4.55024e-06
4.6464e-06
4.69372e-06
4.67823e-06
4.59283e-06
4.43839e-06
4.22375e-06
3.96467e-06
3.68106e-06
3.39305e-06
3.11785e-06
2.86771e-06
2.64949e-06
2.466e-06
2.31814e-06
2.19738e-06
2.06787e-06
1.90394e-06
1.76e-06
1.73146e-06
1.85344e-06
2.10141e-06
2.43069e-06
2.80442e-06
3.18676e-06
3.52453e-06
3.7428e-06
3.7675e-06
3.58696e-06
3.29421e-06
3.04699e-06
3.00189e-06
3.31231e-06
3.96255e-06
4.75254e-06
5.43933e-06
5.83779e-06
6.11723e-06
6.34835e-06
6.6189e-06
6.86493e-06
6.8289e-06
6.64188e-06
6.51656e-06
6.53843e-06
6.76632e-06
7.24041e-06
8.03614e-06
9.28924e-06
1.11832e-05
1.39144e-05
1.76033e-05
2.21708e-05
2.72438e-05
3.22194e-05
3.6515e-05
3.9823e-05
4.216e-05
4.37351e-05
4.47923e-05
4.5524e-05
4.60528e-05
4.65006e-05
4.69378e-05
4.73686e-05
4.7797e-05
4.82308e-05
4.86825e-05
4.9169e-05
4.97115e-05
5.03344e-05
5.10635e-05
5.19244e-05
5.29389e-05
5.4122e-05
5.54775e-05
5.69944e-05
5.86432e-05
6.03737e-05
6.21152e-05
6.37805e-05
6.52724e-05
6.64944e-05
6.73581e-05
6.77894e-05
6.77244e-05
6.70956e-05
6.60817e-05
6.48076e-05
6.3321e-05
6.16776e-05
5.99248e-05
5.81015e-05
5.62392e-05
5.43631e-05
5.24925e-05
5.06416e-05
4.8821e-05
4.70378e-05
4.52964e-05
4.35988e-05
4.19449e-05
4.03321e-05
3.87524e-05
3.71852e-05
3.55748e-05
3.38052e-05
3.18579e-05
2.97319e-05
2.74845e-05
2.52379e-05
2.31596e-05
2.13827e-05
1.99366e-05
1.87953e-05
1.791e-05
1.72231e-05
1.66774e-05
1.62232e-05
1.58228e-05
1.54536e-05
1.5107e-05
1.47842e-05
1.44903e-05
1.42286e-05
1.39968e-05
1.37851e-05
1.35736e-05
1.33241e-05
1.29593e-05
1.23304e-05
1.12053e-05
9.36306e-06
7.07163e-06
5.23638e-06
4.47261e-06
4.4606e-06
4.53974e-06
4.52266e-06
5.26839e-06
7.27585e-06
1.07206e-05
1.46981e-05
1.72194e-05
1.79532e-05
1.79893e-05
1.79819e-05
1.80641e-05
1.82497e-05
1.85399e-05
1.89098e-05
1.92902e-05
1.95474e-05
1.9482e-05
1.90949e-05
1.84659e-05
1.76984e-05
1.69038e-05
1.61594e-05
1.55071e-05
1.49549e-05
1.44698e-05
1.39298e-05
1.29127e-05
1.061e-05
8.13931e-06
6.44559e-06
5.45133e-06
5.73936e-07
2.7435e-06
4.48169e-06
4.58554e-06
4.32036e-06
4.17096e-06
4.21742e-06
4.41845e-06
4.71269e-06
5.04938e-06
5.38913e-06
5.70017e-06
5.95694e-06
6.1369e-06
6.21896e-06
6.1854e-06
6.02591e-06
5.74274e-06
5.35245e-06
4.8865e-06
4.38629e-06
3.89237e-06
3.43789e-06
3.04373e-06
2.71752e-06
2.45718e-06
2.25575e-06
2.10585e-06
1.99451e-06
1.89644e-06
1.78211e-06
1.65855e-06
1.59118e-06
1.63545e-06
1.79374e-06
2.03934e-06
2.33833e-06
2.65316e-06
2.93827e-06
3.13909e-06
3.21491e-06
3.18316e-06
3.1416e-06
3.25149e-06
3.67808e-06
4.49736e-06
5.53838e-06
6.52565e-06
7.20631e-06
7.30026e-06
7.04112e-06
6.89905e-06
6.73278e-06
6.58753e-06
6.57667e-06
6.79471e-06
7.29829e-06
8.17129e-06
9.52689e-06
1.15307e-05
1.43674e-05
1.81406e-05
2.27307e-05
2.76984e-05
3.23863e-05
3.62206e-05
3.89686e-05
4.07403e-05
4.18099e-05
4.24499e-05
4.2858e-05
4.31528e-05
4.33956e-05
4.36127e-05
4.38186e-05
4.39979e-05
4.41417e-05
4.42476e-05
4.43207e-05
4.43738e-05
4.44281e-05
4.45124e-05
4.46624e-05
4.49192e-05
4.53271e-05
4.59296e-05
4.67655e-05
4.78626e-05
4.92329e-05
5.08662e-05
5.27259e-05
5.47464e-05
5.68341e-05
5.88739e-05
6.07489e-05
6.23355e-05
6.35263e-05
6.42291e-05
6.43723e-05
6.41075e-05
6.35195e-05
6.26659e-05
6.16019e-05
6.03757e-05
5.9029e-05
5.7597e-05
5.6109e-05
5.4589e-05
5.30564e-05
5.1527e-05
5.00128e-05
4.85233e-05
4.70653e-05
4.5643e-05
4.42584e-05
4.29107e-05
4.15955e-05
4.02997e-05
3.89822e-05
3.7618e-05
3.61877e-05
3.4684e-05
3.31219e-05
3.15447e-05
3.00118e-05
2.85765e-05
2.72722e-05
2.61101e-05
2.50819e-05
2.4166e-05
2.33344e-05
2.25597e-05
2.18197e-05
2.11004e-05
2.03969e-05
1.97122e-05
1.90537e-05
1.84281e-05
1.78364e-05
1.72633e-05
1.66548e-05
1.58777e-05
1.46806e-05
1.2727e-05
9.93142e-06
7.07314e-06
5.24695e-06
4.61387e-06
4.53628e-06
4.56595e-06
5.00167e-06
6.65014e-06
9.81843e-06
1.37068e-05
1.63224e-05
1.70363e-05
1.68993e-05
1.66553e-05
1.64877e-05
1.6368e-05
1.63358e-05
1.64386e-05
1.66929e-05
1.706e-05
1.74169e-05
1.75544e-05
1.74214e-05
1.70485e-05
1.65179e-05
1.59306e-05
1.53724e-05
1.49008e-05
1.45439e-05
1.43055e-05
1.41629e-05
1.40323e-05
1.36352e-05
1.2664e-05
1.13729e-05
1.01812e-05
7.32085e-07
3.7087e-06
4.05002e-06
3.9834e-06
4.10443e-06
4.4371e-06
4.91665e-06
5.47267e-06
6.04457e-06
6.59518e-06
7.1035e-06
7.55062e-06
7.91594e-06
8.17292e-06
8.28922e-06
8.2313e-06
7.97346e-06
7.51342e-06
6.87253e-06
6.10339e-06
5.28495e-06
4.49112e-06
3.78395e-06
3.20048e-06
2.7469e-06
2.40946e-06
2.16574e-06
1.99378e-06
1.87726e-06
1.79678e-06
1.72924e-06
1.64909e-06
1.55616e-06
1.4965e-06
1.52004e-06
1.63991e-06
1.8387e-06
2.08593e-06
2.34806e-06
2.591e-06
2.78537e-06
2.93121e-06
3.09998e-06
3.45677e-06
4.16374e-06
5.26845e-06
6.6247e-06
7.76498e-06
7.86149e-06
7.28166e-06
6.88528e-06
6.65066e-06
6.56339e-06
6.68496e-06
7.08489e-06
7.8394e-06
9.03888e-06
1.08143e-05
1.33133e-05
1.66515e-05
2.07923e-05
2.54209e-05
2.9958e-05
3.37916e-05
3.65777e-05
3.83414e-05
3.93413e-05
3.98783e-05
4.01876e-05
4.04165e-05
4.06421e-05
4.08954e-05
4.11802e-05
4.14808e-05
4.1714e-05
4.18512e-05
4.1879e-05
4.17947e-05
4.16061e-05
4.13324e-05
4.10034e-05
4.06583e-05
4.03447e-05
4.01169e-05
4.00343e-05
4.01578e-05
4.0546e-05
4.12488e-05
4.23015e-05
4.37178e-05
4.54828e-05
4.75484e-05
4.98284e-05
5.21941e-05
5.45256e-05
5.66565e-05
5.84532e-05
5.97666e-05
6.05534e-05
6.09409e-05
6.09748e-05
6.07043e-05
6.01788e-05
5.94445e-05
5.85429e-05
5.75102e-05
5.63776e-05
5.5172e-05
5.39163e-05
5.263e-05
5.13297e-05
5.00291e-05
4.87396e-05
4.747e-05
4.62268e-05
4.50142e-05
4.3834e-05
4.26845e-05
4.15532e-05
4.04282e-05
3.92991e-05
3.8157e-05
3.69981e-05
3.58278e-05
3.4661e-05
3.35179e-05
3.24178e-05
3.13747e-05
3.03945e-05
2.94746e-05
2.86067e-05
2.77784e-05
2.69769e-05
2.61909e-05
2.54116e-05
2.4634e-05
2.38552e-05
2.30725e-05
2.22764e-05
2.14346e-05
2.04546e-05
1.91292e-05
1.71198e-05
1.4118e-05
1.04037e-05
7.18439e-06
5.37168e-06
4.74083e-06
4.55642e-06
4.69365e-06
5.71102e-06
8.27942e-06
1.21188e-05
1.54108e-05
1.67158e-05
1.67357e-05
1.64444e-05
1.61362e-05
1.58275e-05
1.54791e-05
1.51811e-05
1.50352e-05
1.51074e-05
1.53845e-05
1.57528e-05
1.60012e-05
1.60488e-05
1.58708e-05
1.55185e-05
1.50782e-05
1.46343e-05
1.42507e-05
1.39666e-05
1.38001e-05
1.37531e-05
1.38111e-05
1.39289e-05
1.39761e-05
1.38318e-05
1.35222e-05
5.50485e-07
3.121e-06
3.73345e-06
4.23209e-06
4.83787e-06
5.55796e-06
6.325e-06
7.09314e-06
7.8368e-06
8.5389e-06
9.18658e-06
9.76553e-06
1.02554e-05
1.06231e-05
1.08208e-05
1.07878e-05
1.04632e-05
9.83247e-06
8.90748e-06
7.75478e-06
6.51415e-06
5.3053e-06
4.24231e-06
3.40316e-06
2.79216e-06
2.37628e-06
2.10515e-06
1.9311e-06
1.81829e-06
1.74321e-06
1.68914e-06
1.63529e-06
1.56366e-06
1.48273e-06
1.43467e-06
1.45989e-06
1.56857e-06
1.74508e-06
1.96382e-06
2.20201e-06
2.44602e-06
2.70779e-06
3.07218e-06
3.72683e-06
4.8424e-06
6.31823e-06
7.814e-06
8.21684e-06
7.50407e-06
6.92527e-06
6.6193e-06
6.56516e-06
6.77758e-06
7.31219e-06
8.24079e-06
9.65987e-06
1.16883e-05
1.44471e-05
1.79846e-05
2.21729e-05
2.66251e-05
3.07682e-05
3.40995e-05
3.64261e-05
3.78793e-05
3.8746e-05
3.93038e-05
3.97463e-05
4.01816e-05
4.06551e-05
4.11737e-05
4.17218e-05
4.22724e-05
4.27387e-05
4.30333e-05
4.31296e-05
4.30136e-05
4.26839e-05
4.21532e-05
4.14496e-05
4.06168e-05
3.97119e-05
3.88032e-05
3.79663e-05
3.72788e-05
3.68169e-05
3.66526e-05
3.68459e-05
3.74442e-05
3.84775e-05
3.99491e-05
4.18343e-05
4.40716e-05
4.6516e-05
4.90766e-05
5.15291e-05
5.37094e-05
5.54222e-05
5.67387e-05
5.76691e-05
5.82371e-05
5.8479e-05
5.84363e-05
5.81503e-05
5.76593e-05
5.69981e-05
5.61977e-05
5.52856e-05
5.42864e-05
5.32218e-05
5.21116e-05
5.09729e-05
4.98208e-05
4.86679e-05
4.75249e-05
4.63998e-05
4.52987e-05
4.42249e-05
4.31776e-05
4.21535e-05
4.1149e-05
4.01595e-05
3.91813e-05
3.82133e-05
3.72576e-05
3.63191e-05
3.54043e-05
3.4519e-05
3.36667e-05
3.28477e-05
3.20592e-05
3.1296e-05
3.05516e-05
2.98186e-05
2.90893e-05
2.83555e-05
2.76073e-05
2.68293e-05
2.59924e-05
2.50319e-05
2.37991e-05
2.20023e-05
1.92361e-05
1.52997e-05
1.0862e-05
7.3753e-06
5.52503e-06
4.82625e-06
4.56481e-06
4.88372e-06
6.54526e-06
9.89483e-06
1.38599e-05
1.63288e-05
1.69649e-05
1.68838e-05
1.66596e-05
1.63338e-05
1.58553e-05
1.52353e-05
1.46244e-05
1.41774e-05
1.40219e-05
1.41618e-05
1.44694e-05
1.47827e-05
1.49638e-05
1.49478e-05
1.4753e-05
1.44472e-05
1.41081e-05
1.38002e-05
1.3567e-05
1.34328e-05
1.34084e-05
1.34962e-05
1.369e-05
1.39648e-05
1.42663e-05
1.45245e-05
5.73735e-07
3.38637e-06
4.47321e-06
5.24005e-06
6.12398e-06
7.08242e-06
8.04869e-06
8.97311e-06
9.83888e-06
1.06502e-05
1.14151e-05
1.21318e-05
1.27808e-05
1.33188e-05
1.36776e-05
1.37701e-05
1.35049e-05
1.28119e-05
1.16689e-05
1.01093e-05
8.36276e-06
6.60272e-06
5.01739e-06
3.79652e-06
2.94809e-06
2.42237e-06
2.12599e-06
1.96805e-06
1.88013e-06
1.81584e-06
1.75408e-06
1.69123e-06
1.61568e-06
1.52461e-06
1.4411e-06
1.40516e-06
1.44365e-06
1.55772e-06
1.73225e-06
1.95316e-06
2.22171e-06
2.57546e-06
3.13323e-06
4.08637e-06
5.51174e-06
7.183e-06
8.21088e-06
7.75209e-06
7.02902e-06
6.63496e-06
6.56678e-06
6.8189e-06
7.42359e-06
8.44817e-06
9.98327e-06
1.21382e-05
1.50096e-05
1.86149e-05
2.27948e-05
2.7161e-05
3.11846e-05
3.44359e-05
3.67861e-05
3.83915e-05
3.95267e-05
4.04379e-05
4.12859e-05
4.21509e-05
4.30562e-05
4.39892e-05
4.49161e-05
4.57913e-05
4.65681e-05
4.71269e-05
4.74338e-05
4.74617e-05
4.71918e-05
4.66165e-05
4.57425e-05
4.45939e-05
4.32146e-05
4.16704e-05
4.00493e-05
3.84581e-05
3.70122e-05
3.58205e-05
3.4982e-05
3.45657e-05
3.46163e-05
3.51665e-05
3.62226e-05
3.7773e-05
3.97986e-05
4.21243e-05
4.47199e-05
4.72375e-05
4.95515e-05
5.15923e-05
5.3303e-05
5.46585e-05
5.56623e-05
5.63366e-05
5.67126e-05
5.68246e-05
5.67059e-05
5.63875e-05
5.58981e-05
5.52639e-05
5.45093e-05
5.3657e-05
5.2728e-05
5.17419e-05
5.07164e-05
4.96673e-05
4.86084e-05
4.75514e-05
4.65057e-05
4.54784e-05
4.44752e-05
4.34973e-05
4.25454e-05
4.16188e-05
4.07163e-05
3.98372e-05
3.8981e-05
3.81485e-05
3.73408e-05
3.65589e-05
3.5803e-05
3.50723e-05
3.43648e-05
3.36773e-05
3.30058e-05
3.23453e-05
3.16899e-05
3.10312e-05
3.03566e-05
2.96427e-05
2.88442e-05
2.78651e-05
2.65016e-05
2.43807e-05
2.10394e-05
1.63823e-05
1.13859e-05
7.65247e-06
5.70114e-06
4.89621e-06
4.60357e-06
5.13693e-06
7.28141e-06
1.12232e-05
1.50789e-05
1.69395e-05
1.73959e-05
1.74759e-05
1.73953e-05
1.70453e-05
1.6349e-05
1.54159e-05
1.44667e-05
1.36951e-05
1.32911e-05
1.3256e-05
1.34883e-05
1.38284e-05
1.4108e-05
1.42259e-05
1.41691e-05
1.39864e-05
1.37477e-05
1.35156e-05
1.33346e-05
1.32318e-05
1.32214e-05
1.33105e-05
1.35013e-05
1.37872e-05
1.41487e-05
1.45488e-05
1.30995e-06
4.6492e-06
5.61063e-06
6.5815e-06
7.66111e-06
8.77321e-06
9.81785e-06
1.07716e-05
1.16609e-05
1.25231e-05
1.33897e-05
1.42736e-05
1.51591e-05
1.59929e-05
1.66781e-05
1.7078e-05
1.70368e-05
1.64234e-05
1.51859e-05
1.33841e-05
1.11732e-05
8.76207e-06
6.41799e-06
4.59224e-06
3.3216e-06
2.57267e-06
2.20181e-06
2.0493e-06
1.99916e-06
1.96736e-06
1.9049e-06
1.81707e-06
1.71368e-06
1.59889e-06
1.48836e-06
1.4136e-06
1.40404e-06
1.47092e-06
1.60966e-06
1.81621e-06
2.10934e-06
2.56118e-06
3.3226e-06
4.53455e-06
6.11358e-06
7.59922e-06
7.86709e-06
7.15929e-06
6.66311e-06
6.54194e-06
6.78116e-06
7.39734e-06
8.44535e-06
1.00114e-05
1.2197e-05
1.50903e-05
1.87034e-05
2.28871e-05
2.72807e-05
3.13938e-05
3.48244e-05
3.74458e-05
3.93954e-05
4.09202e-05
4.22419e-05
4.35041e-05
4.47769e-05
4.60775e-05
4.73883e-05
4.86704e-05
4.98719e-05
5.09346e-05
5.17992e-05
5.23735e-05
5.26545e-05
5.26153e-05
5.22342e-05
5.14987e-05
5.0408e-05
4.89748e-05
4.72283e-05
4.52184e-05
4.30215e-05
4.07522e-05
3.85617e-05
3.66009e-05
3.50289e-05
3.39512e-05
3.34086e-05
3.34328e-05
3.40243e-05
3.51618e-05
3.68792e-05
3.89692e-05
4.13099e-05
4.37587e-05
4.6165e-05
4.84011e-05
5.03767e-05
5.20424e-05
5.33828e-05
5.44054e-05
5.51306e-05
5.55843e-05
5.57932e-05
5.57836e-05
5.55801e-05
5.52063e-05
5.46849e-05
5.40376e-05
5.32858e-05
5.24498e-05
5.1549e-05
5.06015e-05
4.96236e-05
4.86298e-05
4.76324e-05
4.6642e-05
4.56687e-05
4.47162e-05
4.37882e-05
4.28871e-05
4.20142e-05
4.11702e-05
4.03552e-05
3.95693e-05
3.88123e-05
3.80833e-05
3.73812e-05
3.67042e-05
3.605e-05
3.54159e-05
3.47985e-05
3.41944e-05
3.35986e-05
3.30038e-05
3.23967e-05
3.17508e-05
3.10108e-05
3.00587e-05
2.8648e-05
2.63411e-05
2.26219e-05
1.74551e-05
1.20172e-05
8.02199e-06
5.91112e-06
4.98248e-06
4.68766e-06
5.41209e-06
7.88295e-06
1.20044e-05
1.56672e-05
1.73751e-05
1.79904e-05
1.83706e-05
1.84657e-05
1.8025e-05
1.70518e-05
1.57875e-05
1.45062e-05
1.34527e-05
1.2794e-05
1.25798e-05
1.27332e-05
1.30852e-05
1.34428e-05
1.36721e-05
1.37329e-05
1.36579e-05
1.351e-05
1.33501e-05
1.3223e-05
1.31563e-05
1.31656e-05
1.32592e-05
1.34413e-05
1.37102e-05
1.40558e-05
1.44557e-05
2.09504e-06
5.65606e-06
6.8801e-06
8.09814e-06
9.2547e-06
1.02784e-05
1.12032e-05
1.204e-05
1.28348e-05
1.36649e-05
1.45927e-05
1.5654e-05
1.68485e-05
1.81263e-05
1.93706e-05
2.03861e-05
2.09157e-05
2.07051e-05
1.96057e-05
1.76443e-05
1.4994e-05
1.19332e-05
8.85434e-06
6.17426e-06
4.1611e-06
2.92976e-06
2.34119e-06
2.11071e-06
2.06534e-06
2.06543e-06
2.02793e-06
1.93153e-06
1.80517e-06
1.6681e-06
1.53842e-06
1.44255e-06
1.40711e-06
1.44718e-06
1.56656e-06
1.77353e-06
2.11026e-06
2.68402e-06
3.6455e-06
5.01818e-06
6.56278e-06
7.55699e-06
7.24653e-06
6.67514e-06
6.47159e-06
6.6562e-06
7.23177e-06
8.24167e-06
9.76482e-06
1.19006e-05
1.47388e-05
1.83053e-05
2.24824e-05
2.69525e-05
3.12549e-05
3.4981e-05
3.7965e-05
4.02979e-05
4.21945e-05
4.38628e-05
4.54461e-05
4.70202e-05
4.86079e-05
5.01956e-05
5.17462e-05
5.32083e-05
5.45234e-05
5.56301e-05
5.64635e-05
5.69785e-05
5.71781e-05
5.70373e-05
5.65355e-05
5.56622e-05
5.44181e-05
5.28152e-05
5.0876e-05
4.8635e-05
4.61357e-05
4.3458e-05
4.07663e-05
3.82153e-05
3.60179e-05
3.43603e-05
3.32789e-05
3.28099e-05
3.29616e-05
3.36881e-05
3.4957e-05
3.66974e-05
3.8806e-05
4.11395e-05
4.35394e-05
4.58608e-05
4.79934e-05
4.98682e-05
5.14531e-05
5.27424e-05
5.37459e-05
5.44811e-05
5.4968e-05
5.52273e-05
5.5279e-05
5.51431e-05
5.48392e-05
5.43872e-05
5.38073e-05
5.31195e-05
5.23439e-05
5.14995e-05
5.06045e-05
4.96756e-05
4.87275e-05
4.77735e-05
4.68277e-05
4.58948e-05
4.49812e-05
4.40916e-05
4.32296e-05
4.23973e-05
4.1596e-05
4.08263e-05
4.00879e-05
3.938e-05
3.87009e-05
3.80487e-05
3.7421e-05
3.68153e-05
3.62288e-05
3.56584e-05
3.51003e-05
3.45478e-05
3.39882e-05
3.33942e-05
3.27062e-05
3.17937e-05
3.03843e-05
2.79968e-05
2.40686e-05
1.85715e-05
1.27771e-05
8.49425e-06
6.175e-06
5.11093e-06
4.81474e-06
5.65778e-06
8.24675e-06
1.22702e-05
1.57684e-05
1.76039e-05
1.85296e-05
1.91703e-05
1.93894e-05
1.89035e-05
1.77362e-05
1.61964e-05
1.46108e-05
1.32776e-05
1.23977e-05
1.20427e-05
1.21422e-05
1.25148e-05
1.29441e-05
1.3269e-05
1.34282e-05
1.34427e-05
1.33718e-05
1.32761e-05
1.32006e-05
1.31734e-05
1.321e-05
1.33189e-05
1.35047e-05
1.37673e-05
1.41004e-05
1.44894e-05
2.67209e-06
6.57537e-06
7.9785e-06
9.21279e-06
1.027e-05
1.1117e-05
1.17762e-05
1.23272e-05
1.28836e-05
1.35735e-05
1.44864e-05
1.56826e-05
1.7192e-05
1.90001e-05
2.10129e-05
2.30078e-05
2.4607e-05
2.53454e-05
2.48654e-05
2.30971e-05
2.02104e-05
1.65056e-05
1.24693e-05
8.71431e-06
5.75274e-06
3.7916e-06
2.7096e-06
2.22328e-06
2.0858e-06
2.07152e-06
2.04976e-06
1.96903e-06
1.84104e-06
1.69917e-06
1.56707e-06
1.4697e-06
1.43101e-06
1.46748e-06
1.59014e-06
1.82286e-06
2.23449e-06
2.95217e-06
4.07039e-06
5.47273e-06
6.77851e-06
7.1552e-06
6.66916e-06
6.35841e-06
6.45587e-06
6.94989e-06
7.86976e-06
9.28603e-06
1.12966e-05
1.39998e-05
1.74456e-05
2.15624e-05
2.60896e-05
3.0599e-05
3.46588e-05
3.80356e-05
4.07519e-05
4.29839e-05
4.49332e-05
4.67554e-05
4.85432e-05
5.03337e-05
5.2122e-05
5.38742e-05
5.55391e-05
5.70574e-05
5.83688e-05
5.94172e-05
6.01141e-05
6.04928e-05
6.05449e-05
6.0249e-05
5.95862e-05
5.85467e-05
5.71367e-05
5.53739e-05
5.32882e-05
5.09242e-05
4.83093e-05
4.54558e-05
4.25423e-05
3.96975e-05
3.71078e-05
3.5088e-05
3.36388e-05
3.27907e-05
3.25407e-05
3.2874e-05
3.3774e-05
3.5201e-05
3.70716e-05
3.9254e-05
4.15896e-05
4.39245e-05
4.61348e-05
4.81375e-05
4.98878e-05
5.13693e-05
5.25831e-05
5.35394e-05
5.42522e-05
5.47367e-05
5.50083e-05
5.50828e-05
5.49763e-05
5.4706e-05
5.42897e-05
5.37464e-05
5.30953e-05
5.23559e-05
5.15471e-05
5.0687e-05
4.97923e-05
4.8879e-05
4.79636e-05
4.70513e-05
4.6151e-05
4.52697e-05
4.44125e-05
4.35833e-05
4.27844e-05
4.20172e-05
4.12818e-05
4.05778e-05
3.99038e-05