/*--------------------------------*- C++ -*----------------------------------*\
  =========                 |
  \\      /  F ield         | OpenFOAM: The Open Source CFD Toolbox
   \\    /   O peration     | Website:  https://openfoam.org
    \\  /    A nd           | Version:  9
     \\/     M anipulation  |
\*---------------------------------------------------------------------------*/
FoamFile
{
    format      ascii;
    class       volScalarField;
    location    "0.21";
    object      epsilonU;
}
// * * * * * * * * * * * * * * * * * * * * * * * * * * * * * * * * * * * * * //

dimensions      [0 2 -3 0 0 0 0];

internalField   nonuniform List<scalar> 
12225
(
247.463
207.841
177.98
156.38
141.999
134.027
131.768
134.564
141.772
152.791
167.095
184.278
204.1
226.527
251.794
280.434
313.581
363.156
43.7853
57.9736
67.6111
78.5449
93.9539
115.996
146.425
186.572
237.256
298.818
371.29
454.668
549.206
655.685
775.605
910.979
1065.1
1238.49
20.9346
26.7079
31.4383
35.8521
40.7154
46.6452
54.1854
63.8299
76.0177
91.1506
109.643
132.002
158.929
191.445
231.034
279.795
340.686
417.858
16.2974
18.294
20.2622
22.1676
24.1269
26.2772
28.7528
31.6825
35.1897
39.3998
44.4587
50.5587
57.975
67.1126
78.5676
93.2058
112.275
137.392
15.0557
15.6235
16.3406
17.1164
17.9355
18.8131
19.7776
20.8633
22.1072
23.5488
25.2353
27.2289
29.618
32.533
36.1686
40.8152
46.9032
54.9784
14.6995
14.7143
14.8558
15.0784
15.3573
15.6821
16.052
16.4729
16.9546
17.5098
18.1551
18.9121
19.8112
20.8959
22.2293
23.904
26.0555
28.8431
14.5995
14.4115
14.299
14.2497
14.2517
14.296
14.3773
14.4937
14.6465
14.8389
15.0768
15.3682
15.7249
16.1632
16.7059
17.3852
18.2457
19.3289
14.5728
14.3172
14.1033
13.9302
13.795
13.6938
13.6234
13.5818
13.5681
13.5827
13.6274
13.7054
13.8214
13.9822
14.197
14.4782
14.8422
15.2992
14.5661
14.2902
14.0404
13.8174
13.6207
13.4493
13.302
13.1777
13.0759
12.9965
12.94
12.9077
12.9017
12.9251
12.9819
13.0773
13.2178
13.406
14.5645
14.2831
14.0222
13.7815
13.5607
13.3592
13.1766
13.0123
12.8661
12.738
12.6282
12.5373
12.4664
12.4171
12.3912
12.3912
12.4199
12.4781
14.5641
14.2814
14.0175
13.7714
13.5424
13.3297
13.1328
12.9513
12.785
12.6336
12.4975
12.3769
12.2723
12.1847
12.115
12.0645
12.0346
12.0258
14.564
14.281
14.0165
13.7691
13.5378
13.3218
13.1204
12.9329
12.7591
12.5987
12.4518
12.3184
12.1988
12.0936
12.0034
11.9287
11.8706
11.8295
14.564
14.2809
14.0163
13.7686
13.5367
13.3198
13.1168
12.9271
12.7504
12.5862
12.4344
12.295
12.168
12.0537
11.9524
11.8645
11.7905
11.7309
14.5639
14.2809
14.0163
13.7686
13.5367
13.3196
13.1163
12.9261
12.7484
12.5829
12.4292
12.2871
12.1567
12.038
11.9309
11.8358
11.7529
11.6827
14.5639
14.2809
14.0163
13.7688
13.537
13.32
13.1168
12.9267
12.7489
12.5831
12.4289
12.2859
12.1541
12.0333
11.9234
11.8245
11.7367
11.6605
14.5638
14.2808
14.0163
13.7689
13.5374
13.3206
13.1177
12.9278
12.7502
12.5846
12.4303
12.287
12.1546
12.0327
11.9213
11.8202
11.7293
11.6491
14.5638
14.2807
14.0163
13.769
13.5377
13.3212
13.1185
12.929
12.7518
12.5864
12.4323
12.2891
12.1564
12.0339
11.9214
11.8186
11.7254
11.6422
14.5637
14.2806
14.0161
13.769
13.5379
13.3217
13.1195
12.9304
12.7537
12.5887
12.4349
12.2919
12.1592
12.0363
11.923
11.819
11.724
11.6383
14.5635
14.2803
14.0159
13.7688
13.538
13.3221
13.1204
12.9318
12.7557
12.5913
12.4381
12.2954
12.1629
12.0399
11.9262
11.8213
11.7249
11.6372
14.5634
14.2801
14.0156
13.7687
13.5381
13.3226
13.1213
12.9333
12.7577
12.5939
12.4412
12.2989
12.1666
12.0437
11.9299
11.8245
11.7273
11.6385
14.5633
14.2799
14.0155
13.7688
13.5385
13.3234
13.1225
12.935
12.76
12.5967
12.4444
12.3026
12.1707
12.0481
11.9342
11.8287
11.7312
11.6419
14.5632
14.2799
14.0157
13.7693
13.5394
13.3248
13.1247
12.9379
12.7638
12.6015
12.4504
12.3097
12.1788
12.0572
11.9444
11.8398
11.743
11.6543
14.5632
14.2802
14.0167
13.7715
13.5434
13.3311
13.1337
12.9502
12.7797
12.6213
12.4742
12.3377
12.2111
12.0938
11.9852
11.8846
11.7918
11.7068
14.5639
14.2834
14.0248
13.787
13.5687
13.3686
13.1853
13.0174
12.8633
12.7218
12.5917
12.4721
12.3621
12.2608
12.1676
12.0817
12.0027
11.9307
14.5703
14.308
14.0799
13.8827
13.7119
13.5632
13.4326
13.3177
13.2156
13.1243
13.0424
12.9686
12.9018
12.8414
12.7866
12.7369
12.692
12.6515
14.6197
14.465
14.3814
14.3455
14.339
14.3495
14.3688
14.3919
14.4163
14.4416
14.4685
14.4965
14.5253
14.5551
14.5858
14.6173
14.6495
14.6819
14.9409
15.2806
15.7017
16.1233
16.5197
16.8859
17.2241
17.54
17.8396
18.126
18.4008
18.6665
18.927
19.1883
19.4485
19.7062
19.9603
20.2092
16.7978
18.9731
20.7751
22.2204
23.4412
24.5323
25.5588
26.5682
27.5921
28.647
29.7383
30.8645
32.0177
33.1821
34.3463
35.5003
36.6446
37.7853
28.5653
35.9084
40.0766
43.0214
45.7051
48.5425
51.7403
55.3946
59.5225
64.0895
69.031
74.2646
79.699
85.2393
90.7942
96.2839
101.638
106.762
152.476
136.951
124.109
113.5
104.811
97.7862
92.2122
87.9018
84.6838
82.3995
80.9028
80.0595
79.748
79.8594
80.2982
80.9818
81.8407
82.813
51.0847
89.9564
123.769
154.642
187.848
206.334
214.863
217.769
220.068
222.787
226.496
231.619
238.545
247.638
259.347
271.298
281.102
287.084
286.981
277.715
255.229
214.663
153.183
82.4645
42.1964
39.1476
9.17121
49.0995
64.0993
85.3621
112.122
123.026
117.36
103.118
88.3158
79.0528
75.461
75.3358
76.1493
79.5607
99.2048
182.686
351.558
514.082
668.773
806.814
923.819
1018.45
1091.25
1143.83
1178.36
1197.22
1202.79
1197.31
1182.86
1161.28
1134.15
1102.82
1068.45
1031.96
995.819
960.086
924.812
890.066
855.916
822.412
789.589
757.464
726.031
695.264
665.112
635.494
606.302
577.394
548.605
519.746
490.627
461.074
430.963
400.251
369.006
337.424
305.827
274.638
244.336
215.411
188.349
163.66
142.134
126.439
119.36
114.883
111.203
108.091
105.491
103.367
101.689
100.422
99.5333
98.9854
98.7408
98.7598
99.0008
99.4174
99.9561
100.554
101.136
101.58
101.576
100.639
98.363
94.4788
88.9501
82.0737
74.5039
67.1214
60.7773
55.9495
12.2384
11.9509
11.9323
12.0761
12.4195
53.6508
54.9671
56.1505
57.3164
58.6033
60.1726
62.1876
64.7968
68.1112
72.16
76.9482
82.6383
89.593
99.4986
123.059
201.251
325.386
438.753
534.251
609.036
664.199
702.57
727.895
744.65
754.437
755.638
749.197
735.499
714.505
685.851
649.036
603.766
550.828
495.943
476.625
480.269
482.368
483.58
485.45
489.198
495.519
504.785
516.868
528.954
529.874
503.594
441.033
350.425
259.465
196.91
168.033
155.23
142.299
127.176
112.785
99.5895
84.5908
38.1693
59.2444
100.176
278.799
321.869
308.523
282.757
255.701
229.346
204.611
182.399
163.268
147.349
134.463
124.434
118.944
118.745
123.509
132.477
144.505
157.937
170.341
178.785
182.206
175.855
148.05
106.862
73.6943
58.2709
73.5641
106.798
134.802
139.727
127.738
113.518
133.732
209.259
358.578
515.606
548.432
538.989
529.133
524.787
515.34
499.671
477.92
451.207
420.895
388.372
354.974
321.945
290.396
261.265
235.289
212.99
194.692
180.547
170.557
164.567
162.503
161.843
161.42
161.18
161.099
161.162
161.36
161.684
162.125
162.673
163.311
164.01
164.729
165.407
165.959
166.272
166.202
165.578
164.208
161.898
158.476
153.821
147.892
140.745
132.54
123.521
113.993
104.285
94.72
85.574
77.078
70.289
64.653
59.6312
55.1456
51.1504
47.6011
44.4542
41.6676
39.2018
37.0202
35.0893
33.3791
31.8625
30.5157
29.3179
28.2512
27.3019
26.4729
25.8445
25.8579
26.3688
27.0513
27.7051
28.2159
28.5837
28.9148
29.358
30.0546
29.6784
30.2243
31.3099
32.6393
34.3765
35.9769
36.5819
36.3566
35.3934
33.8165
31.8434
29.8195
28.2206
27.745
29.2887
34.4607
47.884
80.911
144.645
214.336
246.602
260.192
266.483
268.232
267.354
265.284
263.343
262.955
265.732
272.926
279.629
285.652
290.846
294.865
297.121
296.795
292.96
284.831
272.351
259.558
246.027
230.643
214.557
198.792
184.072
170.822
159.166
149.114
141.048
137.578
148.156
164.135
184.928
220.85
284.818
371.376
441.699
445.136
370.764
261.471
165.247
102.514
36.0433
103.377
412.943
473.914
390.527
301.961
236.618
190.802
157.944
133.67
115.395
101.491
90.8479
82.6727
76.4138
72.034
70.0496
70.7038
74.3602
81.1893
90.9295
102.863
116.053
129.767
140.969
141.704
128.369
108.382
94.9329
110.106
158.759
214.444
240.215
277.36
384.963
496.682
531.299
521.249
486.141
437.917
393.7
357.671
326.733
297.069
267.759
239.006
211.609
186.508
164.492
146.025
131.205
119.832
111.514
105.773
102.122
100.111
99.3486
99.5085
100.332
101.501
102.711
103.925
105.144
106.386
107.677
109.05
110.542
112.19
114.03
116.091
118.389
120.925
123.675
126.585
129.559
132.456
135.083
137.199
138.53
138.797
137.752
135.226
131.162
125.64
118.862
111.126
102.779
94.1616
85.5434
77.1398
70.1182
63.9492
58.3828
53.372
48.8773
44.856
41.2638
38.057
35.1941
32.6368
30.3503
28.3036
26.469
24.8224
23.3431
22.0132
20.8175
19.7462
18.7986
17.9884
17.3244
16.8513
16.5489
16.3603
16.2304
16.1174
16.0078
15.9183
15.8115
15.7644
15.8156
15.9692
16.2195
16.5165
16.785
16.9789
17.0651
17.0339
16.9463
17.0302
17.8202
20.2829
26.3972
40.7543
73.163
133.935
200.645
221.362
215.084
211.72
211.614
212.279
212.71
213.39
215.177
218.578
223.606
229.548
235.407
241.141
246.678
251.769
255.872
258.11
257.352
252.336
242.313
229.522
214.104
196.904
179.159
161.891
145.796
131.26
118.43
107.366
98.1784
90.956
86.6356
87.9844
94.8827
108.03
129.727
161.015
199.563
238.385
262.197
254.515
213.161
153.745
67.814
557.929
591.569
435.85
305.129
220.787
167.748
133.02
109.198
92.2543
79.863
70.5879
63.5142
58.0626
53.8759
50.8272
49.1681
48.9104
50.3233
53.8216
59.6947
67.8431
77.9636
90.0988
103.759
115.765
123.054
129.718
149.028
202.451
306.456
444.671
578.454
553.218
510.746
474.678
426.446
375.098
327.411
286.051
252.187
224.061
199.289
176.608
156.078
138.216
123.468
111.951
103.45
97.5412
93.733
91.553
90.5876
90.4903
90.9779
91.8231
92.8481
93.9198
94.945
95.7614
96.3316
96.6592
96.7678
96.7008
96.521
96.3067
96.1475
96.1394
96.3788
96.957
97.9541
99.4326
101.43
103.949
106.948
110.325
113.91
117.455
120.643
123.108
124.477
124.429
122.755
119.402
114.488
108.272
101.101
93.3462
85.2984
77.5288
70.8458
64.744
59.1747
54.1223
49.5603
45.4537
41.7634
38.4499
35.4746
32.8017
30.3984
28.2352
26.2861
24.528
22.9406
21.5067
20.2113
19.042
17.9886
17.0437
16.2
15.4532
14.8026
14.2429
13.7592
13.3368
12.9627
12.6292
12.331
12.0716
11.8584
11.6972
11.5909
11.5374
11.5333
11.5821
11.7023
11.9451
12.4412
13.5124
15.8998
21.1993
32.7985
57.5152
104.629
167.986
204.872
198.565
189.941
189.566
192.708
196.189
199.362
202.68
206.41
210.374
214.235
217.76
220.922
223.855
226.656
229.259
231.292
231.983
230.174
224.495
215.107
202.679
187.787
171.491
154.922
138.992
124.299
111.158
99.6818
89.8691
81.6731
75.0563
70.0338
66.9327
66.3672
68.7575
74.4231
83.7976
98.0334
118.143
141.382
159.391
163.504
149.535
150.495
663.236
466.559
302.835
206.978
151.291
117.295
95.3162
80.2175
69.2484
60.923
54.398
49.1811
44.9983
41.7068
39.2339
37.7675
37.3048
37.9426
39.9403
43.6791
49.4322
57.2637
67.6302
81.8265
101.24
129.149
180.102
284.107
458.892
711.176
733.561
574.647
468.232
394.827
338.798
291.175
251.264
218.429
191.48
169.188
150.28
134.043
120.404
109.522
101.398
95.792
92.3121
90.523
90.0191
90.4527
91.5369
93.0395
94.7731
96.5866
98.3554
99.975
101.356
102.347
102.853
102.828
102.252
101.138
99.5336
97.5192
95.2094
92.7457
90.2893
88.012
86.0863
84.6752
83.9227
83.9448
84.8194
86.5759
89.1812
92.5238
96.3981
100.495
104.41
107.675
109.82
110.457
109.356
106.493
102.044
96.3323
89.7409
82.6352
76.0218
69.916
64.2188
58.9567
54.1384
49.7526
45.7756
42.177
38.924
35.9838
33.3254
30.9202
28.7419
26.7675
24.9763
23.35
21.8728
20.5307
19.3112
18.2035
17.1981
16.286
15.4588
14.7087
14.0282
13.4114
12.852
12.345
11.8868
11.4753
11.1095
10.7902
10.5186
10.2977
10.1328
10.0357
10.0328
10.1776
10.5777
11.4561
13.2923
17.1217
25.1315
41.7481
74.2544
126.012
176.124
189.668
178.153
174.264
178.081
184.021
189.499
194.295
198.633
202.357
205.112
206.642
207.154
206.98
206.385
205.62
204.802
203.754
201.861
198.007
191.594
182.47
170.864
157.421
143.077
128.766
115.219
102.895
92.0147
82.6273
74.6807
68.0803
62.7316
58.5414
55.4365
53.5266
52.7024
53.2226
55.5426
60.4928
69.1968
82.1573
98.2403
114.74
126.044
917.496
641.313
356.365
216.904
147.977
111.786
90.7857
76.8133
66.3969
58.1591
51.4643
45.9132
41.261
37.4091
34.3453
32.061
30.7903
30.4674
31.0497
32.5863
35.3214
39.7017
46.232
56.0258
72.346
102.574
165.75
293.222
484.942
750.511
749.612
572.251
427.04
337.016
277.955
235.628
202.894
176.85
155.754
138.471
124.328
112.942
104.136
97.7814
93.6596
91.4451
90.7672
91.268
92.6354
94.6142
97.0045
99.6529
102.439
105.265
108.036
110.661
113.038
115.064
116.45
117.114
116.97
115.958
114.058
111.299
107.755
103.552
98.8638
93.9006
88.9037
84.1308
79.8411
76.2778
73.6516
72.1251
71.8018
72.716
74.822
77.9798
81.9373
86.3181
90.6298
94.31
96.8107
97.7044
96.7911
94.11
89.9166
84.571
78.8211
73.2484
67.8373
62.6884
57.8693
53.41
49.3147
45.5709
42.1578
39.0501
36.2217
33.6469
31.3017
29.1641
27.2143
25.4345
23.8089
22.3236
20.966
19.7248
18.59
17.5523
16.6029
15.7331
14.9353
14.2019
13.5267
12.9061
12.3368
11.8168
11.3445
10.9194
10.542
10.214
9.93989
9.7294
9.60303
9.6012
9.80175
10.356
11.5678
14.0643
19.1466
29.4794
50.0073
86.5798
135.29
170.557
172.931
163.372
164.052
170.764
178.155
184.465
189.683
193.75
196.336
197.155
196.13
193.786
190.58
186.839
182.907
179.021
175.216
170.896
165.617
158.682
149.866
139.337
127.645
115.532
103.711
92.7157
82.8673
74.2952
66.9948
60.8841
55.8502
51.7792
48.5624
46.0924
44.335
43.1871
42.5678
42.7412
44.2752
48.0365
54.9801
66.0278
82.346
102.776
1484.34
587.628
272.046
159.388
114.772
93.4134
79.93
69.3444
60.4696
53.1014
46.9498
41.6495
36.9921
32.9914
29.7629
27.4641
26.3761
26.3414
27.2007
28.8999
31.6092
35.8389
42.4384
53.5821
76.62
132.019
252.478
433.132
645.135
693.143
550.127
399.281
299.694
239.195
199.932
172.072
150.789
133.941
120.506
109.994
102.124
96.6532
93.322
91.8407
91.8918
93.1542
95.3318
98.1735
101.481
105.109
108.954
112.936
116.988
121.034
124.985
128.726
132.125
134.965
136.963
138.027
138.027
136.866
134.488
130.894
126.14
120.345
113.686
106.394
98.7494
91.0756
83.7238
77.0526
71.3956
67.0272
64.135
62.8069
63.0324
64.7096
67.6432
71.5246
75.9121
80.2393
83.8725
86.2098
86.8726
85.7203
82.911
78.9089
74.4786
69.8168
65.1351
60.5868
56.2648
52.2172
48.4622
44.9987
41.8148
38.893
36.2136
33.7566
31.5028
29.4345
27.5354
25.7907
24.1873
22.7132
21.3578
20.1112
18.9645
17.9093
16.9377
16.0421
15.2155
14.4513
13.744
13.089
12.4845
11.9286
11.4203
10.9596
10.5475
10.1869
9.88458
9.65464
9.52456
9.54602
9.8159
10.5208
12.0322
15.101
21.2404
33.4121
56.4493
93.748
136.245
160.483
158.856
152.795
156.232
164.41
172.253
178.611
183.472
186.591
187.652
186.526
183.332
178.759
173.302
167.3
161.1
154.918
149.151
143.375
137.135
129.95
121.635
112.326
102.432
92.4843
82.9769
74.2737
66.5804
59.9635
54.3896
49.7679
45.9859
42.9339
40.5131
38.6302
37.2073
36.2471
35.5842
35.3107
35.7522
37.4715
41.3445
48.7334
61.9813
83.1891
1769.12
478.726
197.821
126.44
101.76
88.1445
77.1562
67.2241
58.7394
51.8326
45.9831
40.627
35.5681
31.0484
27.4094
25.1993
24.514
25.0095
26.6076
29.4173
33.7503
40.39
50.523
70.3585
114.391
204.038
345.053
507.084
580.769
503.378
375.456
276.485
214.864
177.099
152.062
133.95
120.132
109.546
101.732
96.3981
93.266
92.0399
92.4206
94.1127
96.8339
100.329
104.385
108.844
113.597
118.574
123.729
129.017
134.377
139.721
144.93
149.855
154.323
157.933
160.613
162.19
162.497
161.401
158.82
154.73
149.178
142.269
134.168
125.087
115.286
105.08
94.8538
85.0615
76.1916
68.7011
62.9353
59.0707
57.1095
56.9224
58.3118
61.0185
64.6848
68.8183
72.8013
75.912
77.6277
77.6232
76.0104
73.3189
69.9124
66.1034
62.1402
58.1965
54.383
50.7626
47.3655
44.2006
41.2644
38.5466
36.0337
33.7113
31.5648
29.5806
27.7461
26.0495
24.4803
23.0287
21.6858
20.4436
19.2942
18.2306
17.2458
16.3335
15.4875
14.7022
13.9728
13.2954
12.6674
12.0878
11.5556
11.0712
10.6364
10.2554
9.93718
9.69965
9.57613
9.62767
9.96689
10.8092
12.5801
16.1231
23.0906
36.5343
60.7238
96.6178
132.693
149.93
147.698
144.571
149.298
157.551
165.236
171.288
175.506
177.557
177.216
174.544
169.835
163.767
156.814
149.41
141.871
134.517
127.551
120.836
114.073
106.958
99.3585
91.3546
83.1918
75.1918
67.6608
60.8291
54.8281
49.6951
45.3946
41.8461
38.9517
36.6152
34.7515
33.2829
32.1372
31.297
30.7173
30.3811
30.4781
31.39
33.7586
38.8269
49.0212
67.7239
1802.73
357.509
155.827
116.475
100.571
88.8082
77.9428
68.0956
60.071
53.7223
48.0983
42.4713
36.7913
31.6873
28.2311
27.3619
27.8186
29.6659
33.0989
38.2266
45.2949
55.7317
73.9059
108.96
172.863
271.736
388.278
459.143
433.244
346.644
260.205
199.951
162.633
138.997
122.798
111.041
102.485
96.6043
93.069
91.5734
91.8133
93.4944
96.3381
100.086
104.511
109.429
114.713
120.284
126.103
132.148
138.394
144.794
151.269
157.704
163.944
169.797
175.048
179.343
182.614
184.662
185.291
184.336
181.688
177.31
171.248
163.634
154.659
144.542
133.505
121.774
109.624
97.4471
85.7908
75.3049
66.606
60.0984
55.8734
53.7358
53.4054
54.6119
57.072
60.3958
64.069
67.3197
69.5427
70.29
69.6638
67.9296
65.3923
62.3517
59.0562
55.6877
52.367
49.1668
46.1262
43.2621
40.5781
38.0703
35.731
33.5506
31.5193
29.6273
27.8653
26.2246
24.6973
23.2756
21.9526
20.7218
19.5767
18.5114
17.5203
16.5978
15.7389
14.9389
14.1938
13.5001
12.8553
12.2585
11.7091
11.2077
10.7568
10.3618
10.0337
9.79337
9.67881
9.75848
10.1576
11.1138
13.0906
16.99
24.5246
38.6623
62.9186
96.3794
127.005
140.147
138.592
137.423
142.42
150.125
157.244
162.672
166.067
167.139
165.768
162.091
156.539
149.774
142.171
134.093
125.873
117.846
110.234
103.053
96.173
89.4377
82.7474
76.0866
69.525
63.1959
57.2584
51.8568
47.0895
42.9955
39.5579
36.7202
34.4062
32.537
31.0396
29.8456
28.8877
28.1176
27.5545
27.1771
27.0973
27.5946
29.1723
32.8035
40.5715
55.971
1678.25
270.813
143.971
118.415
103.924
91.6388
80.6048
71.2002
63.9243
58.2249
52.9392
47.4672
42.1783
38.054
36.1264
35.9385
37.4071
40.5707
45.5522
52.7456
63.4315
80.6286
109.487
156.254
223.983
302.139
357.043
357.187
308.997
244.615
190.441
153.878
130.668
115.398
104.869
97.6365
93.0554
90.7362
90.3452
91.5688
94.1149
97.7137
102.122
107.134
112.589
118.385
124.468
130.818
137.429
144.287
151.353
158.556
165.792
172.916
179.753
186.093
191.64
196.245
199.79
202.075
202.893
202.05
199.398
194.856
188.449
180.319
170.72
159.961
148.323
136.005
123.136
109.894
96.658
84.0671
72.9522
64.0539
57.7401
53.7969
51.8254
51.4875
52.5584
54.7423
57.6636
60.5801
62.7941
63.9696
63.988
62.9595
61.1181
58.7271
56.0193
53.1726
50.3093
47.5061
44.8072
42.2349
39.7983
37.4986
35.3329
33.2964
31.3832
29.5871
27.9021
26.3223
24.8421
23.4559
22.1586
20.9449
19.8101
18.7493
17.7578
16.8312
15.9653
15.1562
14.4006
13.6955
13.0388
12.4296
11.8675
11.3537
10.8911
10.4861
10.1513
9.90975
9.80289
9.90453
10.3486
11.3873
13.5055
17.6274
25.4547
39.7585
63.3137
94.0247
120.419
131.323
130.774
130.735
135.394
142.21
148.519
153.189
155.797
156.112
154.096
149.93
144.076
137.094
129.292
120.982
112.503
104.205
96.3642
89.1203
82.4963
76.4331
70.8096
65.4822
60.3473
55.3859
50.6603
46.2764
42.3368
38.9066
36.0018
33.5965
31.6389
30.0666
28.8153
27.8192
27.0098
26.3247
25.755
25.324
25.1076
25.3114
26.3562
29.0251
34.96
47.2461
1478.51
237.774
148.163
124.885
109.048
95.7595
84.7368
75.9996
69.5448
64.7037
60.4052
56.0724
52.0056
49.0372
48.0149
48.2886
50.5236
54.8816
61.8149
72.3299
88.2673
112.338
147.349
193.595
243.831
281.337
289.925
267.31
225.874
182.709
148.812
125.832
110.772
100.77
94.245
90.4215
88.8383
89.1284
90.9633
94.0459
98.1089
102.918
108.279
114.053
120.153
126.542
133.215
140.171
147.401
154.865
162.486
170.152
177.716
185.009
191.841
198.014
203.229
207.517
210.759
212.801
213.464
212.557
209.899
205.348
198.847
190.479
180.502
169.317
157.339
144.87
132.012
118.76
105.257
91.8938
79.4666
68.9223
61.0446
55.673
52.3284
50.5994
50.3244
51.3045
53.1844
55.4309
57.4399
58.7387
59.1006
58.5366
57.2087
55.334
53.1185
50.7258
48.2719
45.8319
43.4507
41.1534
38.9525
36.8531
34.8565
32.9613
31.1655
29.4662
27.8601
26.344
24.9145
23.5679
22.3008
21.1094
19.9901
18.9391
17.9529
17.0279
16.1606
15.3479
14.587
13.8754
13.2115
12.5942
12.0237
11.5013
11.0306
10.6187
10.2792
10.0366
9.93463
10.0501
10.5216
11.6073
13.796
18.0015
25.8576
39.8833
62.241
90.2651
113.536
123.344
123.762
124.268
128.256
134.012
139.399
143.3
145.248
145.047
142.705
138.404
132.543
125.591
117.824
109.534
101.069
92.8042
85.0783
78.1397
72.1192
66.9864
62.5382
58.4798
54.5561
50.6437
46.7619
43.0232
39.565
36.4963
33.8738
31.7036
29.9562
28.5815
27.5186
26.6983
26.0445
25.4817
24.9625
24.5145
24.2056
24.1909
24.8148
26.7446
31.2615
40.8907
1271.71
229.254
155.999
132.976
115.426
100.94
89.6593
81.3037
75.5156
71.6359
68.746
66.1765
63.9007
62.4245
62.0369
63.219
66.6529
72.789
82.3118
96.231
115.735
141.54
172.47
203.86
227.912
237.127
228.36
204.687
174.183
145.572
123.625
108.51
98.5167
92.1863
88.6592
87.4069
88.0276
90.1755
93.5442
97.8627
102.898
108.461
114.419
120.697
127.268
134.137
141.312
148.787
156.522
164.429
172.372
180.174
187.635
194.54
200.687
205.914
210.106
213.348
215.601
216.788
216.795
215.473
212.647
208.133
201.781
193.549
183.601
172.348
160.305
147.922
135.386
122.61
109.662
96.634
84.1092
72.9502
64.3197
58.0865
53.7569
50.9256
49.4375
49.2443
50.1463
51.6969
53.3205
54.515
54.991
54.6886
53.7086
52.2217
50.4016
48.3911
46.2935
44.1771
42.0844
40.0403
38.0591
36.1486
34.3128
32.5538
30.8723
29.2683
27.7413
26.2902
24.9135
23.6094
22.376
21.2109
20.1116
19.0753
18.0994
17.1811
16.3176
15.5064
14.7452
14.0321
13.3655
12.7447
12.1699
11.6429
11.1675
10.7515
10.409
10.1653
10.0648
10.1855
10.6662
11.7627
13.9518
18.1089
25.7597
39.157
60.0199
85.5819
106.626
116.033
117.281
117.966
121.125
125.757
130.181
133.343
134.748
134.21
131.74
127.485
121.763
114.972
107.375
99.2688
91.0231
83.0515
75.7572
69.4726
64.3719
60.3731
57.1379
54.2176
51.2444
48.0476
44.6573
41.2322
37.9686
35.0302
32.5153
30.4581
28.844
27.6276
26.7442
26.1151
25.6523
25.2665
24.8855
24.494
24.162
24.0077
24.3018
25.6163
28.981
36.3954
1066.99
219.789
164.554
142.373
123.336
107.531
95.5329
86.9642
81.2833
77.8653
75.9854
75.0076
74.6499
75.0812
76.1977
79.0632
84.2234
92.1737
103.372
118.091
136.058
155.977
175.295
190.56
198.336
196.249
184.085
164.583
142.731
123.25
108.428
98.2167
91.7125
88.1135
86.8562
87.513
89.7236
93.1725
97.5817
102.711
108.368
114.412
120.767
127.407
134.342
141.595
149.172
157.042
165.121
173.258
181.242
188.819
195.724
201.702
206.558
210.183
212.73
214.339
215.064
214.91
213.832
211.74
208.497
203.924
197.812
189.993
180.468
169.608
157.913
145.927
133.95
121.797
109.73
97.645
85.9338
75.4235
66.7993
60.157
55.1589
51.4738
49.043
47.9285
48.0226
48.9409
50.139
51.1156
51.5579
51.3678
50.6028
49.394
47.8824
46.1863
44.3925
42.5593
40.7238
38.909
37.1294
35.394
33.7092
32.0794
30.5077
28.9965
27.5474
26.1613
24.8386
23.5791
22.3821
21.2465
20.1708
19.1532
18.1919
17.2847
16.4296
15.6246
14.8678
14.1577
13.4928
12.8726
12.2977
11.7699
11.2933
10.876
10.5322
10.2873
10.1853
10.303
10.7756
11.8492
13.9752
17.9689
25.2216
37.7297
56.9291
80.283
99.7717
109.216
111.192
111.868
114.149
117.65
121.102
123.549
124.484
123.705
121.198
117.065
111.548
104.99
97.6565
89.8688
82.0323
74.6087
68.0602
62.7582
58.84
56.0943
54.0156
52.0225
49.69
46.8628
43.6325
40.237
36.9468
33.9819
31.4758
29.4789
27.9795
26.9262
26.2427
25.8365
25.6055
25.4477
25.275
25.0339
24.7629
24.5598
24.6252
25.433
27.8339
33.3962
858.302
205.044
172.46
152.632
132.982
116.204
103.34
94.1229
88.0163
84.4694
82.9321
82.8979
83.9961
85.9438
88.8307
93.228
99.4684
107.734
117.973
129.795
142.39
154.534
164.681
171.101
172.131
166.723
155.254
139.932
124.03
110.32
100.058
93.2198
89.2983
87.779
88.2325
90.294
93.6437
97.9972
103.105
108.757
114.796
121.125
127.705
134.542
141.662
149.09
156.817
164.784
172.861
180.843
188.456
195.389
201.324
205.977
209.151
210.829
211.431
211.168
210.152
208.461
206.109
203.057
199.214
194.435
188.509
181.19
172.27
162.166
151.245
140.03
128.902
117.92
106.969
96.0013
85.3593
75.708
67.5935
61.0637
55.8046
51.6029
48.5519
46.8203
46.3508
46.7852
47.6044
48.3301
48.6589
48.4839
47.8387
46.8235
45.5491
44.1089
42.5715
40.9833
39.3746
37.7651
36.1684
34.5941
33.0498
31.5416
30.0745
28.6529
27.2801
25.9587
24.6906
23.4769
22.3183
21.2147
20.1655
19.1699
18.2267
17.3345
16.4917
15.6968
14.9484
14.2451
13.5859
12.9703
12.399
11.874
11.3995
10.9836
10.6403
10.3943
10.2884
10.3959
10.8456
11.8675
13.8774
17.6155
24.3244
35.7614
53.2036
74.558
92.9592
102.737
105.427
106.05
107.481
109.876
112.354
114.09
114.578
113.586
111.063
107.064
101.774
95.4993
88.5184
81.1911
73.9699
67.3661
61.8761
57.8442
55.2833
53.7937
52.6994
51.3345
49.2874
46.4828
43.1179
39.5314
36.0707
33.0025
30.4784
28.5469
27.184
26.3218
25.8671
25.7114
25.7387
25.8371
25.9109
25.8906
25.7623
25.6066
25.56
25.9888
27.5968
31.6138
160.058
178.293
177.858
162.439
143.755
127.025
113.775
103.994
97.2918
93.2331
91.3971
91.3967
92.9047
95.2586
98.7038
103.305
109.095
116
123.802
132.108
140.341
147.718
153.223
155.678
154.017
147.814
137.776
125.734
113.943
104.138
97.0734
92.7352
90.7927
90.8673
92.6094
95.7042
99.8669
104.84
110.396
116.352
122.575
128.996
135.592
142.376
149.38
156.62
164.074
171.663
179.234
186.561
193.356
199.283
203.969
207.044
208.287
208.038
206.787
204.74
202.088
198.94
195.354
191.337
186.839
181.751
175.896
169.054
161.065
151.988
142.125
131.933
121.782
111.787
101.875
92.0467
82.6103
74.089
66.8239
60.7114
55.4557
51.0161
47.6572
45.6186
44.8412
44.9611
45.4817
45.9666
46.1483
45.9336
45.3474
44.4668
43.3758
42.1442
40.8226
39.4453
38.0354
36.6087
35.1771
33.7502
32.3361
30.9422
29.5748
28.2395
26.9412
25.6839
24.4706
23.3039
22.1852
21.1155
20.0953
19.1243
18.2021
17.3279
16.5005
15.7191
14.9823
14.2893
13.6391
13.0313
12.4668
11.9477
11.4783
11.0662
10.7251
10.4786
10.3668
10.4587
10.8735
11.8209
13.6747
17.0904
23.1555
33.4055
49.0357
68.5154
86.1097
96.4346
99.9271
100.584
101.26
102.598
104.104
105.11
105.133
103.911
101.351
97.4643
92.409
86.4725
79.9548
73.2609
66.8931
61.3979
57.2562
54.7012
53.5433
53.1648
52.7532
51.6343
49.4918
46.3894
42.6593
38.7449
35.0581
31.8883
29.3795
27.5574
26.3728
25.7359
25.5343
25.643
25.9333
26.2859
26.6039
26.819
26.8872
26.8598
26.82
27.0205
28.022
30.7857
150.197
173.832
179.684
169.302
153.654
138.561
125.971
116.23
109.197
104.608
102.166
101.561
102.355
104.171
107.035
110.839
115.476
120.81
126.631
132.62
138.297
142.991
145.867
146.075
143.048
136.85
128.344
118.995
110.35
103.508
98.9263
96.5775
96.219
97.556
100.3
104.176
108.922
114.304
120.111
126.176
132.384
138.682
145.076
151.47
157.937
164.491
171.102
177.68
184.08
190.091
195.452
199.854
202.938
204.373
203.981
202.231
199.516
196.076
192.119
187.797
183.218
178.424
173.399
168.058
162.249
155.769
148.443
140.259
131.43
122.31
113.196
104.204
95.3261
86.6473
78.4777
71.1902
64.868
59.2455
54.1142
49.6574
46.2791
44.2165
43.3541
43.3037
43.6
43.868
43.8954
43.6166
43.0557
42.272
41.3262
40.2665
39.1273
37.9317
36.6958
35.4318
34.1495
32.8579
31.5651
30.2791
29.007
27.7555
26.5304
25.3368
24.1789
23.06
21.9827
20.9489
19.9597
19.0157
18.117
17.2634
16.4542
15.6889
14.9666
14.2867
13.6482
13.0511
12.4963
11.9859
11.5241
11.1181
10.7809
10.5342
10.4154
10.4875
10.8581
11.7139
13.3818
16.4274
21.781
30.7652
44.524
62.134
79.0143
90.0381
94.5225
95.4296
95.5278
95.8891
96.4227
96.6604
96.1708
94.676
92.0417
88.2428
83.4817
77.9874
72.0921
66.2508
61.0071
56.9056
54.3364
53.3336
53.4513
53.8676
53.711
52.4012
49.798
46.1447
41.9132
37.6347
33.7544
30.5502
28.1301
26.481
25.5236
25.1456
25.2158
25.5923
26.1328
26.7117
27.2356
27.6487
27.9127
28.0455
28.0987
28.2185
28.8135
30.6204
136.111
160.37
172.815
169.902
160.067
148.876
138.596
129.966
123.188
118.286
115.197
113.809
113.478
114.401
116.382
119.256
122.867
127.033
131.508
135.94
139.846
142.622
143.63
142.357
138.63
132.777
125.634
118.337
111.962
107.233
104.434
103.527
104.317
106.569
110.055
114.57
119.714
125.311
131.179
137.159
143.139
149.053
154.872
160.563
166.143
171.613
176.938
182.043
186.809
191.07
194.62
197.217
198.603
198.528
196.871
193.982
190.161
185.667
180.74
175.574
170.299
164.975
159.593
154.078
148.292
142.051
135.205
127.741
119.825
111.716
103.622
95.6364
87.8177
80.3395
73.4925
67.4306
61.9524
56.731
51.7787
47.5153
44.3902
42.5435
41.7621
41.6373
41.7576
41.8306
41.7115
41.3669
40.8221
40.1202
39.3006
38.3926
37.4163
36.3851
35.3089
34.1962
33.0548
31.8925
30.7174
29.5373
28.3598
27.1922
26.0412
24.9127
23.8117
22.7426
21.7089
20.713
19.7571
18.8422
17.9692
17.1384
16.3496
15.6026
14.897
14.2322
13.6077
13.0235
12.4806
11.981
11.5287
11.1307
10.7986
10.5528
10.4268
10.4775
10.8006
11.5594
13.0353
15.7089
20.3642
28.1299
40.0965
55.8873
72.0384
83.7821
89.4315
90.8877
90.6996
90.2709
89.8966
89.3449
88.2755
86.4192
83.62
79.8408
75.3386
70.3379
65.2094
60.4473
56.5984
54.1305
53.2441
53.6919
54.7555
55.4782
55.054
53.1115
49.7486
45.3959
40.6414
36.0644
32.0992
28.9738
26.7387
25.3367
24.6606
24.5783
24.9393
25.5817
26.3481
27.1073
27.7726
28.3078
28.7056
28.967
29.1353
29.2789
29.6543
30.798
117.785
138.614
156.502
161.289
158.607
153.158
147.165
141.503
136.555
132.557
129.68
127.718
126.821
127.036
128.207
130.171
132.749
135.725
138.822
141.683
143.874
144.932
144.447
142.181
138.192
132.889
126.986
121.335
116.694
113.555
112.111
112.347
114.071
117.031
121.025
125.822
131.134
136.764
142.528
148.27
153.869
159.246
164.355
169.168
173.682
177.889
181.764
185.253
188.274
190.711
192.416
193.215
192.922
191.329
188.509
184.701
180.128
175.02
169.6
164.047
158.48
152.951
147.445
141.889
136.151
130.077
123.562
116.623
109.406
102.099
94.8414
87.7242
80.8764
74.5223
68.8371
63.6909
58.7006
53.6871
48.9643
45.0833
42.3999
40.8939
40.2605
40.1015
40.0817
39.9961
39.7601
39.3652
38.8351
38.1985
37.4787
36.691
35.845
34.9472
34.0028
33.0172
31.9962
30.9465
29.8751
28.7896
27.6978
26.607
25.5245
24.4566
23.4093
22.3875
21.3953
20.4361
19.5124
18.6262
17.7786
16.9706
16.2023
15.4739
14.7853
14.1362
13.5262
12.9555
12.4252