/*--------------------------------*- C++ -*----------------------------------*\
  =========                 |
  \\      /  F ield         | OpenFOAM: The Open Source CFD Toolbox
   \\    /   O peration     | Website:  https://openfoam.org
    \\  /    A nd           | Version:  9
     \\/     M anipulation  |
\*---------------------------------------------------------------------------*/
FoamFile
{
    format      ascii;
    class       volScalarField;
    location    "0.21";
    object      k;
}
// * * * * * * * * * * * * * * * * * * * * * * * * * * * * * * * * * * * * * //

dimensions      [0 2 -2 0 0 0 0];

internalField   nonuniform List<scalar> 
12225
(
0.314462
0.264114
0.226169
0.198721
0.180443
0.170301
0.167411
0.170927
0.18003
0.193949
0.212007
0.233678
0.258638
0.286823
0.318492
0.354269
0.395503
0.456869
0.362047
0.350379
0.347937
0.35856
0.382984
0.420601
0.469977
0.529099
0.595731
0.667789
0.743621
0.822185
0.903124
0.986754
1.07402
1.16615
1.26528
1.37236
0.368486
0.362674
0.357266
0.353468
0.35252
0.355018
0.361155
0.370917
0.38417
0.400751
0.420589
0.443795
0.470754
0.502204
0.539298
0.583673
0.637584
0.704164
0.369747
0.364156
0.358766
0.353844
0.349751
0.346722
0.344821
0.344009
0.344208
0.345335
0.347353
0.35031
0.354376
0.359892
0.367422
0.37783
0.392381
0.412705
0.370289
0.365248
0.360264
0.355449
0.350935
0.346829
0.343185
0.340007
0.337266
0.33492
0.332927
0.331262
0.329929
0.328979
0.328528
0.328786
0.330113
0.333021
0.370517
0.365855
0.361266
0.356786
0.352466
0.348355
0.344486
0.340874
0.337516
0.334399
0.331503
0.328807
0.326296
0.323959
0.321796
0.319825
0.318091
0.316685
0.370604
0.366141
0.361814
0.357618
0.353564
0.349664
0.345932
0.342381
0.339014
0.33583
0.332827
0.329996
0.32733
0.324818
0.322447
0.320202
0.318066
0.31603
0.370634
0.36626
0.362076
0.358063
0.35421
0.350512
0.346968
0.343582
0.340357
0.337295
0.334397
0.331663
0.329094
0.326686
0.324432
0.322319
0.320329
0.318453
0.370642
0.366303
0.362187
0.358271
0.354541
0.350983
0.347588
0.344353
0.341277
0.338361
0.335606
0.333015
0.330592
0.328338
0.326251
0.324326
0.322553
0.320932
0.370643
0.366317
0.362229
0.358359
0.354692
0.351214
0.347913
0.344782
0.341817
0.339017
0.336383
0.333918
0.331624
0.329507
0.327568
0.325805
0.324217
0.322811
0.370643
0.366321
0.362243
0.358393
0.354755
0.351316
0.348065
0.344994
0.342098
0.339373
0.336821
0.334443
0.332242
0.330222
0.328388
0.32674
0.325282
0.324024
0.370642
0.366322
0.362248
0.358406
0.354779
0.351357
0.348129
0.345085
0.342222
0.339536
0.337026
0.334693
0.332541
0.330574
0.328794
0.327206
0.325814
0.324631
0.370642
0.366322
0.362251
0.358412
0.354792
0.351379
0.348161
0.345133
0.342287
0.33962
0.337133
0.334825
0.332699
0.330757
0.329004
0.327444
0.326081
0.324929
0.370641
0.366322
0.362252
0.358417
0.354801
0.351393
0.348183
0.345162
0.342325
0.339669
0.337192
0.334894
0.332777
0.330842
0.329093
0.327533
0.326167
0.325008
0.370641
0.366321
0.362253
0.358421
0.354808
0.351405
0.3482
0.345185
0.342354
0.339703
0.33723
0.334933
0.332813
0.330872
0.32911
0.327531
0.326137
0.32494
0.37064
0.36632
0.362254
0.358423
0.354815
0.351416
0.348216
0.345206
0.34238
0.339734
0.337263
0.334965
0.332839
0.330885
0.329103
0.327494
0.32606
0.32481
0.370639
0.366319
0.362253
0.358425
0.35482
0.351425
0.348231
0.345228
0.342408
0.339767
0.337299
0.335
0.332869
0.330904
0.329101
0.327462
0.325985
0.324679
0.370637
0.366316
0.362251
0.358424
0.354823
0.351434
0.348247
0.345251
0.34244
0.339806
0.337344
0.335048
0.332915
0.330941
0.329122
0.327456
0.325942
0.324586
0.370634
0.366312
0.362246
0.358421
0.354824
0.351442
0.348262
0.345277
0.342475
0.339851
0.337397
0.335107
0.332976
0.330999
0.32917
0.327485
0.32594
0.324545
0.370632
0.366307
0.362241
0.358419
0.354826
0.35145
0.348279
0.345302
0.34251
0.339896
0.33745
0.335167
0.33304
0.331062
0.329228
0.327532
0.325971
0.324552
0.37063
0.366304
0.362239
0.35842
0.354832
0.351462
0.348298
0.345329
0.342546
0.339939
0.337501
0.335223
0.333099
0.331122
0.329285
0.327583
0.32601
0.324576
0.370629
0.366303
0.36224
0.358425
0.354841
0.351476
0.348317
0.345353
0.342575
0.339972
0.337537
0.33526
0.333136
0.331156
0.329313
0.327602
0.326018
0.324568
0.370628
0.366303
0.362242
0.358429
0.354845
0.351478
0.348314
0.345342
0.342551
0.339932
0.337476
0.335176
0.333024
0.331014
0.329139
0.327392
0.32577
0.324281
0.370628
0.366301
0.362233
0.358403
0.354793
0.351391
0.348184
0.345161
0.342313
0.339631
0.337108
0.334736
0.33251
0.330424
0.328473
0.326649
0.324949
0.323384
0.37062
0.366268
0.362151
0.358239
0.354514
0.35097
0.347602
0.344409
0.341386
0.338531
0.335842
0.333314
0.330942
0.328719
0.326642
0.324702
0.322894
0.321228
0.370574
0.366098
0.361791
0.357638
0.353634
0.349792
0.346127
0.342657
0.339389
0.336325
0.333463
0.330799
0.328323
0.326025
0.323895
0.321922
0.320095
0.318419
0.370375
0.365532
0.360709
0.355939
0.351328
0.346986
0.342968
0.339299
0.335979
0.332997
0.330334
0.327962
0.325852
0.323977
0.322305
0.320809
0.319469
0.318273
0.369702
0.364242
0.358398
0.352581
0.347356
0.342987
0.339523
0.336938
0.33517
0.334134
0.333725
0.333839
0.334369
0.335213
0.336279
0.33749
0.338802
0.340191
0.365816
0.354697
0.345325
0.339695
0.338147
0.3404
0.345997
0.354385
0.364964
0.377144
0.390379
0.404183
0.418139
0.4319
0.445193
0.45782
0.46965
0.480489
0.336637
0.302362
0.274009
0.250586
0.231401
0.215891
0.203586
0.194072
0.18697
0.181932
0.178634
0.176779
0.176099
0.176353
0.17733
0.178847
0.18075
0.182903
0.178096
0.251384
0.310097
0.358556
0.408555
0.435797
0.447999
0.452107
0.455178
0.45873
0.463565
0.470243
0.479249
0.490991
0.505988
0.52192
0.535239
0.544026
0.545698
0.536586
0.511377
0.462286
0.3794
0.26215
0.159371
0.139014
0.14464
0.162123
0.192149
0.231088
0.279723
0.308624
0.305144
0.282883
0.254838
0.233236
0.222879
0.221024
0.222462
0.226263
0.24785
0.337399
0.548734
0.738342
0.899334
1.03396
1.14307
1.22879
1.2937
1.34051
1.37179
1.38993
1.39705
1.39505
1.38557
1.37005
1.34971
1.32556
1.29846
1.26909
1.23917
1.20922
1.17929
1.14943
1.11969
1.09013
1.06078
1.03166
1.00278
0.974133
0.945672
0.917333
0.88902
0.860597
0.83189
0.80269
0.772758
0.741847
0.709727
0.676218
0.641233
0.604806
0.567121
0.528508
0.489424
0.450421
0.412128
0.375267
0.340978
0.312636
0.297465
0.289227
0.282495
0.276719
0.271793
0.267674
0.264325
0.261699
0.259745
0.258407
0.257622
0.257321
0.257433
0.257878
0.258566
0.259391
0.260231
0.260919
0.261046
0.25982
0.256475
0.250431
0.24139
0.229523
0.215627
0.201096
0.18763
0.176484
0.16514
0.159496
0.157906
0.158874
0.161316
0.165901
0.168841
0.171184
0.173316
0.175537
0.178162
0.181515
0.185902
0.191567
0.1986
0.206983
0.21673
0.228341
0.242927
0.268944
0.34473
0.498176
0.63032
0.734956
0.813455
0.86983
0.908441
0.933486
0.949097
0.959526
0.962136
0.957922
0.947349
0.930413
0.906736
0.875663
0.836458
0.788779
0.734887
0.699783
0.701371
0.702762
0.702925
0.703296
0.705171
0.709329
0.716149
0.725669
0.736417
0.740763
0.724255
0.674368
0.58941
0.486757
0.39922
0.349687
0.328424
0.310801
0.288693
0.265087
0.244048
0.220973
0.132771
0.196496
0.28421
0.53075
0.595842
0.591305
0.570807
0.54675
0.520402
0.492478
0.464541
0.438154
0.414371
0.393686
0.376488
0.364842
0.359697
0.361442
0.369958
0.384601
0.403923
0.425098
0.443539
0.454221
0.444415
0.396752
0.3238
0.262376
0.249153
0.31146
0.4085
0.480172
0.49411
0.464435
0.432513
0.474741
0.608304
0.806498
0.945438
0.948699
0.9205
0.902594
0.898556
0.890368
0.877191
0.860789
0.84308
0.825662
0.809697
0.795953
0.784886
0.776712
0.77148
0.769128
0.769535
0.772564
0.778092
0.786026
0.796277
0.808659
0.821734
0.834974
0.848408
0.862095
0.876112
0.890541
0.905457
0.920923
0.936968
0.953578
0.970677
0.988102
1.00558
1.02271
1.03893
1.05348
1.06547
1.07383
1.07745
1.07523
1.06625
1.0499
1.02601
0.994872
0.957239
0.914231
0.867185
0.817472
0.766175
0.713785
0.667099
0.625947
0.587741
0.552267
0.519443
0.489153
0.461254
0.435584
0.411968
0.390235
0.370214
0.351746
0.334679
0.318875
0.304208
0.290561
0.277827
0.265921
0.254678
0.243818
0.233395
0.223948
0.215789
0.209297
0.204977
0.203385
0.204966
0.209914
0.217975
0.228605
0.239962
0.250355
0.259207
0.264354
0.265945
0.263862
0.258102
0.249049
0.237717
0.225894
0.216051
0.211088
0.213947
0.229226
0.269879
0.358678
0.503081
0.642477
0.722623
0.797645
0.883663
0.977893
1.07431
1.16694
1.25224
1.32917
1.39858
1.46062
1.51812
1.57159
1.62061
1.66368
1.69806
1.71966
1.72344
1.70384
1.6554
1.58431
1.50167
1.40774
1.30831
1.20853
1.11219
1.02173
0.938066
0.861337
0.792181
0.72991
0.675849
0.642308
0.64384
0.699012
0.819839
0.987243
1.12787
1.14335
1.001
0.773856
0.558697
0.40843
0.121848
0.266528
0.64199
0.725745
0.652495
0.567191
0.503165
0.45763
0.423347
0.39566
0.372347
0.352384
0.335189
0.32032
0.307427
0.296792
0.289663
0.286301
0.287333
0.293461
0.305137
0.322401
0.344824
0.371022
0.39408
0.399134
0.377997
0.34539
0.334755
0.400194
0.533094
0.66121
0.723009
0.801196
0.940123
1.03731
1.05154
1.01212
0.944273
0.873258
0.81746
0.779556
0.754829
0.737798
0.727103
0.722215
0.722569
0.727329
0.735407
0.745644
0.757014
0.768787
0.780566
0.792225
0.803783
0.815297
0.82679
0.838226
0.849514
0.860302
0.87057
0.880394
0.889917
0.899351
0.908959
0.919037
0.929894
0.941835
0.955134
0.970017
0.98663
1.00502
1.02507
1.04651
1.06882
1.09121
1.11262
1.1317
1.1469
1.15657
1.15917
1.15347
1.13875
1.1149
1.08247
1.04256
0.996623
0.946255
0.892762
0.83716
0.787323
0.741422
0.698284
0.657902
0.620275
0.585336
0.552968
0.523025
0.495341
0.469746
0.446072
0.424156
0.403847
0.385004
0.367502
0.351222
0.336051
0.321883
0.308593
0.295991
0.283861
0.271842
0.260119
0.249033
0.238834
0.229819
0.222276
0.216408
0.212339
0.209987
0.209066
0.209178
0.209897
0.210809
0.211557
0.211855
0.21147
0.210275
0.208465
0.206999
0.208253
0.216732
0.240118
0.293523
0.400568
0.571884
0.743915
0.832975
0.902099
1.01901
1.16505
1.30965
1.43348
1.5335
1.61514
1.68458
1.74554
1.79878
1.84683
1.89058
1.93012
1.96442
1.99075
2.00445
1.99939
1.9684
1.90601
1.82266
1.72161
1.60811
1.48911
1.37067
1.25721
1.15154
1.05502
0.968315
0.891735
0.823103
0.759474
0.700023
0.652556
0.628392
0.638099
0.684625
0.761416
0.848674
0.90636
0.891794
0.789845
0.626867
0.227928
0.739031
0.785649
0.661605
0.55243
0.482565
0.439199
0.409077
0.384961
0.363945
0.345113
0.328208
0.313128
0.299818
0.288232
0.278321
0.269956
0.263321
0.258986
0.25788
0.260993
0.269047
0.28284
0.303593
0.330562
0.357571
0.379358
0.408729
0.480662
0.629066
0.855248
1.10999
1.27169
1.18382
1.08866
1.00801
0.923219
0.843241
0.777709
0.731379
0.704156
0.692493
0.692041
0.699393
0.712427
0.729344
0.748427
0.768094
0.787107
0.804749
0.82083
0.835513
0.849075
0.861716
0.873476
0.884239
0.89379
0.901893
0.908336
0.912532
0.914589
0.914657
0.913002
0.910015
0.906207
0.902184
0.898617
0.896209
0.895656
0.897609
0.902639
0.911192
0.923544
0.939748
0.959573
0.982438
1.00736
1.03293
1.05734
1.07849
1.0942
1.10249
1.10183
1.09142
1.07127
1.04213
1.00532
0.962424
0.914768
0.865365
0.820107
0.776841
0.735607
0.696615
0.659966
0.625664
0.593652
0.563829
0.536073
0.510249
0.486223
0.463863
0.443043
0.423648
0.405569
0.38871
0.372982
0.358298
0.344564
0.331673
0.31948
0.307807
0.296416
0.285311
0.2747
0.264726
0.255543
0.247272
0.239994
0.233726
0.228422
0.223976
0.220242
0.217055
0.214274
0.211818
0.20972
0.208204
0.2079
0.210369
0.21913
0.241141
0.289302
0.383348
0.539538
0.726947
0.856943
0.927779
1.04331
1.21246
1.38992
1.54317
1.66396
1.75785
1.83197
1.89049
1.93524
1.9686
1.99433
2.01427
2.02966
2.04065
2.04551
2.04012
2.01814
1.97194
1.90252
1.81325
1.70749
1.59131
1.47147
1.35377
1.24237
1.13986
1.0475
0.965739
0.894449
0.832847
0.778955
0.729056
0.681288
0.639234
0.607385
0.590726
0.595664
0.626875
0.677338
0.723559
0.737906
0.698266
0.497207
0.772667
0.637221
0.531774
0.476118
0.445106
0.42183
0.39964
0.377168
0.354988
0.33401
0.314862
0.297876
0.283238
0.271058
0.261199
0.253016
0.246409
0.241291
0.237934
0.237198
0.240287
0.248637
0.264975
0.29353
0.338316
0.408355
0.538004
0.782488
1.13165
1.50867
1.4906
1.23531
1.05041
0.922024
0.82852
0.75855
0.710223
0.682317
0.672211
0.676171
0.690212
0.710909
0.735648
0.762399
0.789445
0.815473
0.839732
0.862048
0.882629
0.901801
0.919801
0.936687
0.95233
0.966467
0.978751
0.988797
0.996225
0.999973
0.999657
0.995108
0.986334
0.973554
0.957212
0.937975
0.916717
0.894485
0.87245
0.851852
0.833936
0.819886
0.810757
0.807403
0.810407
0.820004
0.836003
0.857709
0.883863
0.912622
0.941619
0.968138
0.989411
1.00299
1.00714
1.00106
0.98494
0.959795
0.927104
0.888386
0.849207
0.810825
0.773149
0.736666
0.701724
0.668521
0.637136
0.607576
0.579797
0.553727
0.52928
0.506362
0.48488
0.464746
0.445876
0.428192
0.411621
0.396097
0.381553
0.367919
0.355125
0.343079
0.331673
0.320777
0.310227
0.299991
0.290184
0.280884
0.272179
0.264141
0.256809
0.250181
0.244221
0.238863
0.23403
0.229669
0.225803
0.22262
0.220641
0.221042
0.226318
0.241527
0.27615
0.345901
0.469184
0.642789
0.80497
0.90302
0.997123
1.15901
1.35739
1.54255
1.69209
1.8066
1.89325
1.95699
2.0001
2.02389
2.03244
2.03064
2.02126
2.00671
1.98853
1.96644
1.93725
1.89482
1.8367
1.76161
1.67048
1.56689
1.45638
1.34485
1.23722
1.13697
1.0461
0.965473
0.895161
0.834783
0.783669
0.740569
0.703168
0.668267
0.633241
0.59967
0.570663
0.550445
0.544794
0.559233
0.594434
0.642697
0.679567
0.687996
0.649548
0.536847
0.493076
0.4727
0.4529
0.428439
0.400144
0.370599
0.342304
0.316754
0.294423
0.275335
0.259475
0.246843
0.237249
0.230919
0.227049
0.224558
0.222586
0.221288
0.222336
0.228516
0.244793
0.281148
0.355679
0.507853
0.789554
1.16604
1.56513
1.52975
1.24663
1.00988
0.858159
0.762967
0.704518
0.672175
0.66031
0.664578
0.680929
0.705695
0.7358
0.768778
0.802681
0.836049
0.867972
0.898094
0.92648
0.953395
0.979109
1.00379
1.02745
1.04996
1.07105
1.09033
1.1073
1.12138
1.13194
1.13682
1.13572
1.1282
1.11404
1.09328
1.06626
1.03364
0.996394
0.9558
0.913377
0.870846
0.830055
0.792887
0.761153
0.736463
0.720103
0.712917
0.715217
0.726712
0.746452
0.772795
0.803405
0.835333
0.865259
0.889886
0.906416
0.913096
0.909288
0.895501
0.872918
0.844842
0.814951
0.783873
0.752503
0.721529
0.691402
0.662396
0.634658
0.608249
0.583179
0.559423
0.536939
0.515675
0.495578
0.476592
0.458668
0.441755
0.425807
0.410779
0.396627
0.383303
0.370755
0.358919
0.347719
0.337073
0.326886
0.317056
0.307589
0.298542
0.289955
0.281874
0.274332
0.267344
0.260899
0.254974
0.249541
0.244606
0.240254
0.236775
0.234895
0.236249
0.244206
0.265212
0.310678
0.397226
0.536397
0.70451
0.836036
0.923548
1.05108
1.24446
1.45455
1.63668
1.77876
1.88543
1.96245
2.0128
2.03806
2.03975
2.02356
1.99501
1.95753
1.91438
1.86816
1.82059
1.7683
1.71069
1.64309
1.56392
1.47391
1.37619
1.27534
1.17604
1.08214
0.996215
0.919643
0.852811
0.795467
0.747007
0.706663
0.673438
0.645854
0.622018
0.598868
0.574728
0.550637
0.528994
0.513471
0.509773
0.526211
0.571539
0.639057
0.968418
0.630763
0.536874
0.515976
0.495912
0.466849
0.431397
0.393434
0.357044
0.324978
0.297746
0.274667
0.255132
0.239004
0.22628
0.217314
0.212949
0.211681
0.2118
0.211983
0.212096
0.214068
0.221988
0.244606
0.303431
0.443521
0.715798
1.07747
1.41978
1.46153
1.22572
0.981529
0.818175
0.723329
0.673224
0.652705
0.652819
0.667863
0.6936
0.726651
0.764272
0.804237
0.844834
0.884911
0.923858
0.961494
0.997898
1.03325
1.06773
1.10143
1.13439
1.16648
1.19746
1.2269
1.2542
1.2786
1.2992
1.31444
1.32234
1.32251
1.31429
1.29719
1.27104
1.23602
1.19267
1.14191
1.08505
1.02373
0.95991
0.89587
0.834113
0.77726
0.727851
0.688095
0.659624
0.64332
0.639255
0.64673
0.664355
0.69005
0.721017
0.753806
0.784597
0.809617
0.826143
0.832451
0.828414
0.815472
0.797183
0.775295
0.751215
0.726038
0.700544
0.675259
0.650515
0.626513
0.603363
0.581118
0.559795
0.539394
0.519899
0.501293
0.483555
0.466661
0.450592
0.435326
0.420839
0.407108
0.394103
0.381792
0.370133
0.359076
0.348566
0.338543
0.328948
0.319718
0.310891
0.302484
0.294521
0.287023
0.280003
0.273464
0.267404
0.261834
0.2568
0.252444
0.249129
0.247744
0.250317
0.260957
0.287227
0.341623
0.439407
0.583093
0.736396
0.846528
0.937294
1.08496
1.29247
1.50649
1.68231
1.81621
1.91422
1.98034
2.01663
2.02475
2.00665
1.9692
1.91829
1.85783
1.79147
1.72169
1.65396
1.58634
1.51679
1.44238
1.36181
1.27568
1.18633
1.09706
1.01124
0.931567
0.85984
0.796884
0.742755
0.696991
0.658859
0.627551
0.602216
0.581823
0.565075
0.550647
0.53578
0.520127
0.504688
0.49125
0.483555
0.489792
0.524055
0.59526
1.09948
0.614195
0.561006
0.544399
0.513192
0.472528
0.42798
0.384246
0.345829
0.314303
0.288214
0.265637
0.245815
0.229402
0.216882
0.209107
0.206016
0.206207
0.208712
0.212665
0.217935
0.227013
0.246885
0.296619
0.410217
0.622768
0.918965
1.20791
1.30629
1.16323
0.952276
0.792562
0.699441
0.655065
0.64254
0.651083
0.674011
0.706935
0.746661
0.790669
0.836947
0.884014
0.930935
0.977238
1.02276
1.06752
1.1116
1.1551
1.19813
1.24075
1.28291
1.32439
1.36478
1.40342
1.43945
1.4718
1.49932
1.51895
1.53045
1.53288
1.52534
1.50713
1.4779
1.43771
1.38699
1.32659
1.25771
1.18183
1.10075
1.01665
0.932188
0.850561
0.775333
0.710031
0.657579
0.619778
0.597083
0.588776
0.593461
0.60928
0.633828
0.663959
0.695855
0.724967
0.747789
0.761391
0.765199
0.760815
0.750407
0.735671
0.718053
0.698682
0.678382
0.657721
0.637076
0.616687
0.5967
0.577207
0.558262
0.539897
0.522134
0.504986
0.488462
0.472568
0.457308
0.442685
0.428695
0.415335
0.402595
0.390459
0.378906
0.367907
0.357428
0.347432
0.337885
0.328749
0.320016
0.311705
0.303826
0.296392
0.289414
0.282901
0.276867
0.271348
0.266428
0.262291
0.25937
0.258703
0.262635
0.275844
0.306619
0.367647
0.471467
0.612601
0.750382
0.848366
0.945207
1.10249
1.30989
1.51542
1.68407
1.81175
1.90256
1.95911
1.9831
1.9771
1.94365
1.88988
1.82172
1.74429
1.66153
1.57751
1.49572
1.41659
1.33901
1.26132
1.18259
1.10303
1.02387
0.947003
0.874459
0.807966
0.748694
0.697162
0.653297
0.616598
0.58634
0.561743
0.542048
0.526456
0.514038
0.504058
0.495043
0.485775
0.476557
0.468394
0.46312
0.466435
0.491616
0.555
1.11875
0.610266
0.59262
0.568495
0.525356
0.475798
0.42635
0.381519
0.344881
0.316059
0.291633
0.268908
0.247654
0.230042
0.21875
0.215003
0.21508
0.218728
0.225716
0.235345
0.248194
0.269908
0.314684
0.404905
0.56134
0.780729
1.00721
1.1214
1.06152
0.910961
0.77201
0.684418
0.643962
0.636341
0.650243
0.678508
0.716635
0.761518
0.810753
0.86245
0.91524
0.968258
1.02103
1.07335
1.12514
1.17644
1.22737
1.27808
1.32872
1.37931
1.42969
1.4795
1.52807
1.57449
1.61761
1.65607
1.6884
1.7119
1.72643
1.73093
1.72431
1.70571
1.67461
1.63096
1.57521
1.50832
1.43162
1.34663
1.25491
1.15805
1.05799
0.957409
0.860111
0.770779
0.694203
0.634013
0.591691
0.566384
0.556284
0.559485
0.57404
0.597334
0.626067
0.655231
0.680851
0.698749
0.708389
0.71068
0.706864
0.698372
0.68654
0.672463
0.656962
0.640618
0.623826
0.60685
0.589865
0.572989
0.556309
0.539888
0.523776
0.508017
0.492647
0.477698
0.463198
0.449169
0.43563
0.422595
0.410071
0.398059
0.386556
0.37555
0.365027
0.35497
0.345361
0.336183
0.327424
0.3191
0.311219
0.303789
0.296822
0.290333
0.28435
0.278928
0.274179
0.27033
0.267875
0.267983
0.273239
0.288681
0.322929
0.388194
0.493967
0.629169
0.753897
0.845077
0.945053
1.10188
1.30031
1.49411
1.65404
1.7745
1.8577
1.9058
1.92074
1.90481
1.8613
1.79769
1.71955
1.63171
1.53862
1.44481
1.35394
1.26772
1.18634
1.10922
1.03562
0.964978
0.897192
0.832694
0.77234
0.717133
0.667919
0.625161
0.588867
0.558663
0.533939
0.514004
0.498168
0.485725
0.475892
0.467953
0.461598
0.455748
0.450375
0.446227
0.444575
0.448639
0.468336
0.520993
1.06849
0.62452
0.626094
0.591472
0.537516
0.48158
0.430662
0.387787
0.354563
0.328793
0.306122
0.284162
0.263921
0.248425
0.240492
0.238285
0.240699
0.247215
0.257729
0.273271
0.298029
0.341016
0.415035
0.531264
0.68781
0.851093
0.951609
0.942982
0.854087
0.749599
0.673805
0.637116
0.631972
0.648482
0.679575
0.720792
0.769097
0.822138
0.878038
0.935406
0.993312
1.0512
1.10875
1.16587
1.22257
1.27903
1.33548
1.39212
1.44905
1.50615
1.56304
1.61909
1.67338
1.72479
1.77202
1.81359
1.84731
1.87215
1.88765
1.89271
1.8862
1.86708
1.83463
1.78851
1.72904
1.6572
1.57468
1.48348
1.38552
1.28227
1.1748
1.06448
0.95395
0.84756
0.751279
0.671014
0.61051
0.569158
0.544582
0.534541
0.537598
0.551732
0.574423
0.600669
0.625253
0.645279
0.659048
0.666311
0.667754
0.664488
0.657666
0.648287
0.637119
0.624721
0.611483
0.597675
0.583487
0.569058
0.5545
0.539901
0.52534
0.510886
0.496601
0.48254
0.468753
0.455282
0.442164
0.429428
0.417097
0.405189
0.393714
0.382678
0.372081
0.361921
0.352195
0.342901
0.334037
0.325618
0.317655
0.31016
0.303147
0.29664
0.290678
0.285334
0.280744
0.277167
0.275154
0.275968
0.282341
0.299471
0.335975
0.403235
0.508071
0.636227
0.750783
0.837362
0.936081
1.08491
1.269
1.449
1.5991
1.71207
1.78842
1.82998
1.83872
1.81695
1.76826
1.69959
1.61611
1.52251
1.42359
1.32425
1.2287
1.13979
1.05893
0.986252
0.920766
0.860793
0.804745
0.751739
0.701769
0.655466
0.613671
0.577039
0.545839
0.519939
0.498919
0.482202
0.469143
0.459036
0.451098
0.444563
0.43916
0.434646
0.430982
0.428759
0.429275
0.434685
0.451325
0.493957
0.98129
0.655021
0.660955
0.615753
0.55278
0.492418
0.441647
0.401522
0.371578
0.348996
0.329633
0.311112
0.294121
0.281185
0.274793
0.272794
0.276543
0.286106
0.302572
0.328731
0.369538
0.431416
0.519168
0.629192
0.740458
0.816472
0.830406
0.788212
0.72166
0.664204
0.633214
0.629351
0.646261
0.677856
0.719991
0.769799
0.824997
0.883675
0.944332
1.00589
1.06762
1.12912
1.19021
1.25092
1.31148
1.37218
1.43331
1.495
1.55714
1.61932
1.68083
1.74067
1.79765
1.85046
1.89769
1.93799
1.96893
1.99106
2.00385
2.00644
1.99786
1.97712
1.94326
1.89561
1.83398
1.75902
1.67241
1.57665
1.47443
1.36783
1.25783
1.14476
1.02993
0.915976
0.808323
0.713953
0.639655
0.585422
0.548544
0.526451
0.518336
0.522938
0.537573
0.558422
0.581025
0.60156
0.617604
0.628237
0.633638
0.634566
0.631946
0.626624
0.619279
0.610413
0.600387
0.58946
0.577827
0.56564
0.553029
0.540106
0.526973
0.513723
0.500441
0.487204
0.47408
0.461131
0.448409
0.435958
0.423817
0.412014
0.400574
0.389514
0.378847
0.368585
0.358734
0.349305
0.340305
0.331754
0.323667
0.316061
0.308959
0.302392
0.296412
0.291107
0.286633
0.283274
0.281621
0.28299
0.290154
0.308296
0.345785
0.413077
0.51504
0.636182
0.743008
0.825617
0.919228
1.05501
1.22142
1.38601
1.52542
1.63096
1.70154
1.73843
1.74354
1.71906
1.66833
1.59765
1.51191
1.41585
1.31459
1.21346
1.11736
1.03012
0.954053
0.889452
0.834495
0.786082
0.741211
0.698012
0.656049
0.615979
0.578947
0.546015
0.517835
0.494582
0.47604
0.461732
0.451014
0.443107
0.437127
0.432182
0.427677
0.42376
0.42065
0.418909
0.419832
0.425488
0.439834
0.473904
0.883959
0.690974
0.699216
0.644622
0.573215
0.50824
0.456599
0.417876
0.390222
0.370741
0.355776
0.342643
0.330955
0.322198
0.317217
0.317291
0.324178
0.338896
0.363075
0.399086
0.449391
0.514585
0.590004
0.663137
0.716557
0.737093
0.724
0.689772
0.653639
0.631458
0.629316
0.645461
0.675813
0.716976
0.766437
0.822087
0.882033
0.944658
1.0087
1.07324
1.1377
1.2018
1.26554
1.32915
1.39301
1.45747
1.52274
1.58875
1.65509
1.72097
1.78521
1.84639
1.90294
1.95326
1.99585
2.02957
2.05334
2.06812
2.07384
2.07015
2.05644
2.03191
1.99565
1.94671
1.88435
1.80849
1.72027
1.62229
1.51778
1.40966
1.29941
1.1869
1.07329
0.959387
0.849064
0.748301
0.666691
0.604393
0.558659
0.527198
0.509237
0.504534
0.511625
0.527217
0.546951
0.566731
0.58368
0.596392
0.604624
0.608805
0.609611
0.607714
0.603668
0.597896
0.59071
0.582348
0.572998
0.56282
0.551956
0.540538
0.528688
0.516522
0.504145
0.491654
0.479134
0.466664
0.45431
0.442131
0.430176
0.418486
0.407096
0.396033
0.385322
0.374981
0.365029
0.355481
0.346355
0.337673
0.329456
0.321729
0.314521
0.307875
0.301851
0.296551
0.292145
0.288938
0.28754
0.289269
0.296846
0.315289
0.352556
0.418235
0.516035
0.630654
0.731674
0.810473
0.896355
1.01607
1.1627
1.31047
1.43829
1.53626
1.6018
1.63539
1.6386
1.61334
1.5625
1.49182
1.40605
1.31013
1.20956
1.11018
1.01759
0.936374
0.869185
0.815719
0.772791
0.735783
0.70057
0.664791
0.62807
0.59149
0.556765
0.525509
0.498818
0.477163
0.460485
0.44834
0.440016
0.4346
0.431045
0.42829
0.425481
0.42242
0.419671
0.417826
0.41807
0.422595
0.434293
0.460842
0.782249
0.726169
0.739358
0.678267
0.600045
0.530328
0.476169
0.436573
0.409042
0.390803
0.378868
0.370677
0.364985
0.362144
0.361653
0.366604
0.378435
0.39829
0.42707
0.465027
0.510873
0.560776
0.608229
0.645609
0.666898
0.670201
0.659212
0.64282
0.63161
0.632841
0.648372
0.676709
0.715673
0.763348
0.817955
0.877737
0.941043
1.00646
1.07286
1.13946
1.20578
1.27172
1.33744
1.40332
1.46981
1.53722
1.60562
1.67469
1.74367
1.8113
1.87594
1.93566
1.98848
2.03256
2.0664
2.08909
2.10157
2.10516
2.10035
2.08729
2.0658
2.03538
1.99532
1.94462
1.8822
1.80716
1.71969
1.62236
1.51828
1.41092
1.30238
1.19166
1.08172
0.972206
0.865752
0.768331
0.685508
0.618933
0.567166
0.528571
0.503131
0.491421
0.492627
0.503828
0.520791
0.539346
0.55641
0.570303
0.580492
0.587137
0.590685
0.591621
0.590365
0.587246
0.582517
0.576386
0.569027
0.560604
0.551269
0.541169
0.530444
0.519229
0.507646
0.49581
0.483825
0.471781
0.459759
0.44783
0.436053
0.42448
0.413154
0.402112
0.391384
0.380997
0.370977
0.361345
0.352125
0.343339
0.335014
0.327183
0.319881
0.313158
0.307085
0.301773
0.297402
0.294286
0.293034
0.294924
0.302543
0.320623
0.356604
0.419322
0.512045
0.62069
0.717416
0.792712
0.869661
0.971981
1.09766
1.22733
1.34239
1.43222
1.49284
1.52374
1.52595
1.50094
1.45116
1.38193
1.29797
1.20453
1.10758
1.01354
0.92857
0.857606
0.802824
0.762573
0.731963
0.705036
0.67707
0.645803
0.611425
0.575779
0.541336
0.510321
0.484234
0.463755
0.448867
0.439051
0.433445
0.430952
0.430341
0.430385
0.430042
0.428705
0.42678
0.424974
0.424282
0.426849
0.43527
0.454824
0.67258
0.756402
0.778014
0.715613
0.634159
0.561133
0.504001
0.461993
0.432682
0.413623
0.402475
0.397131
0.396027
0.397952
0.402888
0.412468
0.427532
0.44842
0.474795
0.505447
0.53821
0.570161
0.598095
0.619153
0.631574
0.635687
0.634773
0.634545
0.640775
0.656855
0.683472
0.719904
0.765038
0.817585
0.876066
0.938922
1.00467
1.07204
1.14
1.20784
1.27521
1.34211
1.40882
1.47578
1.5434
1.61192
1.68123
1.75078
1.81948
1.88573
1.9475
2.00251
2.0485
2.08342
2.10578
2.11497
2.11404
2.10467
2.0878
2.06403
2.03353
1.99611
1.95129
1.89823
1.83574
1.76238
1.6769
1.58263
1.48181
1.37784
1.27343
1.1694
1.06556
0.96201
0.861392
0.768686
0.688393
0.621801
0.567657
0.52516
0.495341
0.479502
0.47716
0.485528
0.500473
0.517904
0.534761
0.549294
0.560825
0.56932
0.575031
0.578273
0.579328
0.578431
0.575775
0.571533
0.565866
0.558937
0.550904
0.541927
0.532162
0.521757
0.510853
0.499578
0.488051
0.476374
0.464642
0.452934
0.441321
0.429861
0.418607
0.4076
0.39688
0.386478
0.376424
0.366744
0.357468
0.348616
0.340221
0.332319
0.324952
0.318176
0.312067
0.306742
0.302388
0.299317
0.29812
0.299994
0.307332
0.324489
0.358312
0.416988
0.5039
0.60694
0.700566
0.773093
0.841278
0.926323
1.03073
1.14124
1.24216
1.32278
1.37795
1.40608
1.40744
1.38307
1.3351
1.26851
1.18811
1.09956
1.00934
0.924371
0.851125
0.79415
0.754284
0.727932
0.708494
0.689168
0.665323
0.635427
0.60066
0.563864
0.52833
0.496834
0.471138
0.451955
0.439152
0.432025
0.429496
0.43026
0.432906
0.436078
0.438637
0.439787
0.439399
0.438251
0.437074
0.437687
0.442601
0.455586
0.547798
0.774064
0.808792
0.752738
0.673892
0.601165
0.542772
0.498714
0.467089
0.445912
0.433368
0.427844
0.428021
0.431228
0.438069
0.448646
0.462989
0.480871
0.501722
0.524629
0.548389
0.571579
0.592647
0.61017
0.623437
0.63324
0.642204
0.654037
0.672015
0.697966
0.732381
0.774998
0.825104
0.881621
0.94321
1.00845
1.07598
1.1446
1.21335
1.28159
1.34901
1.41567
1.48186
1.54792
1.61423
1.68092
1.74776
1.81403
1.87852
1.93951
1.99489
2.04227
2.07908
2.10277
2.11164
2.10734
2.09334
2.07133
2.04285
2.00872
1.96938
1.92495
1.87515
1.81934
1.75648
1.68531
1.60498
1.51612
1.42083
1.32227
1.22315
1.12461
1.02664
0.929695
0.836297
0.750599
0.675756
0.612024
0.558249
0.514748
0.483642
0.466655
0.463245
0.470532
0.484462
0.501161
0.517781
0.532676
0.54514
0.555023
0.562421
0.567498
0.570418
0.571327
0.570364
0.567671
0.563396
0.557698
0.550742
0.542696
0.533727
0.523996
0.513656
0.502848
0.491702
0.480334
0.468845
0.457327
0.445857
0.434501
0.423318
0.412358
0.401662
0.391267
0.381208
0.371515
0.362218
0.353339
0.344913
0.336979
0.329584
0.322787
0.316668
0.311347
0.307007
0.303953
0.302742
0.304464
0.311272
0.327078
0.35808
0.411869
0.492282
0.589757
0.681138
0.752071
0.812872
0.882055
0.965796
1.05651
1.14191
1.21189
1.26053
1.28521
1.28541
1.26166
1.21603
1.15328
1.07836
0.997343
0.9172
0.845126
0.787311
0.747051
0.723061
0.709568
0.698666
0.68348
0.66025
0.628717
0.591345
0.552044
0.514845
0.482877
0.457924
0.440513
0.430256
0.426187
0.426987
0.431137
0.437064
0.443318
0.448746
0.45255
0.454251
0.454456
0.453637
0.453042
0.454924
0.462125
0.51983
0.772064
0.822607
0.781997
0.713322
0.646223
0.590103
0.546163
0.513375
0.490373
0.475808
0.468384
0.466307
0.467985
0.473514
0.4825
0.494641
0.509636
0.5271
0.546497
0.567089
0.587909
0.607885
0.626172
0.642668
0.658412
0.67549
0.696345
0.722963
0.756485
0.797308
0.845267
0.899725
0.959684
1.02391
1.09107
1.15979
1.22895
1.29764
1.36524
1.43148
1.49645
1.56054
1.62311
1.68484
1.74587
1.8059
1.86419
1.91957
1.97049
2.01501
2.05096
2.07584
2.08733
2.08393
2.0685
2.04384
2.01177
1.97385
1.93121
1.88463
1.83446
1.78063
1.72264
1.65956
1.59017
1.51349
1.42962
1.34018
1.24777
1.1547
1.06212
0.970448
0.880711
0.795566
0.71827
0.650313
0.590865
0.539296
0.497305
0.467824
0.452465
0.450226
0.457987
0.471823
0.488219
0.504691
0.519816
0.532943
0.543857
0.552537
0.559027
0.563391
0.565708
0.566073
0.564601
0.56143
0.556715
0.550624
0.54333
0.535007
0.525826
0.515948
0.505525
0.494694
0.483581
0.472298
0.460941
0.449596
0.438336
0.427225
0.416317
0.405659
0.395292
0.385254
0.375576
0.36629
0.357417
0.348995
0.341066
0.333679
0.326896
0.320798
0.315502
0.311185
0.308138
0.306868
0.308344
0.314447
0.328599
0.356291
0.404499
0.477647
0.569112
0.658642
0.729399
0.785072
0.840781
0.905271
0.97607