/*--------------------------------*- C++ -*----------------------------------*\
  =========                 |
  \\      /  F ield         | OpenFOAM: The Open Source CFD Toolbox
   \\    /   O peration     | Website:  https://openfoam.org
    \\  /    A nd           | Version:  9
     \\/     M anipulation  |
\*---------------------------------------------------------------------------*/
FoamFile
{
    format      ascii;
    class       volScalarField;
    location    "0.21";
    object      kU;
}
// * * * * * * * * * * * * * * * * * * * * * * * * * * * * * * * * * * * * * //

dimensions      [0 2 -2 0 0 0 0];

internalField   nonuniform List<scalar> 
12225
(
0.157231
0.132057
0.113085
0.0993605
0.0902214
0.0851507
0.0837054
0.0854637
0.0900152
0.0969744
0.106004
0.116839
0.129319
0.143412
0.159246
0.177134
0.197752
0.228434
0.181024
0.175189
0.173968
0.17928
0.191492
0.2103
0.234988
0.264549
0.297865
0.333894
0.371811
0.411093
0.451562
0.493377
0.53701
0.583073
0.632639
0.68618
0.184243
0.181337
0.178633
0.176734
0.17626
0.177509
0.180577
0.185459
0.192085
0.200376
0.210295
0.221897
0.235377
0.251102
0.269649
0.291837
0.318792
0.352082
0.184874
0.182078
0.179383
0.176922
0.174875
0.173361
0.17241
0.172005
0.172104
0.172667
0.173677
0.175155
0.177188
0.179946
0.183711
0.188915
0.19619
0.206353
0.185144
0.182624
0.180132
0.177724
0.175468
0.173415
0.171593
0.170003
0.168633
0.16746
0.166463
0.165631
0.164965
0.16449
0.164264
0.164393
0.165056
0.16651
0.185259
0.182927
0.180633
0.178393
0.176233
0.174177
0.172243
0.170437
0.168758
0.1672
0.165751
0.164404
0.163148
0.16198
0.160898
0.159912
0.159045
0.158343
0.185302
0.183071
0.180907
0.178809
0.176782
0.174832
0.172966
0.17119
0.169507
0.167915
0.166413
0.164998
0.163665
0.162409
0.161224
0.160101
0.159033
0.158015
0.185317
0.18313
0.181038
0.179031
0.177105
0.175256
0.173484
0.171791
0.170179
0.168647
0.167198
0.165832
0.164547
0.163343
0.162216
0.161159
0.160164
0.159227
0.185321
0.183152
0.181093
0.179136
0.177271
0.175491
0.173794
0.172177
0.170639
0.169181
0.167803
0.166508
0.165296
0.164169
0.163126
0.162163
0.161276
0.160466
0.185322
0.183159
0.181114
0.179179
0.177346
0.175607
0.173956
0.172391
0.170908
0.169509
0.168192
0.166959
0.165812
0.164754
0.163784
0.162903
0.162108
0.161406
0.185321
0.18316
0.181122
0.179196
0.177378
0.175658
0.174033
0.172497
0.171049
0.169687
0.168411
0.167221
0.166121
0.165111
0.164194
0.16337
0.162641
0.162012
0.185321
0.183161
0.181124
0.179203
0.17739
0.175679
0.174064
0.172543
0.171111
0.169768
0.168513
0.167347
0.166271
0.165287
0.164397
0.163603
0.162907
0.162315
0.185321
0.183161
0.181125
0.179206
0.177396
0.175689
0.174081
0.172566
0.171143
0.16981
0.168566
0.167412
0.166349
0.165379
0.164502
0.163722
0.163041
0.162464
0.185321
0.183161
0.181126
0.179208
0.1774
0.175696
0.174091
0.172581
0.171163
0.169835
0.168596
0.167447
0.166388
0.165421
0.164546
0.163767
0.163084
0.162504
0.18532
0.183161
0.181127
0.17921
0.177404
0.175702
0.1741
0.172592
0.171177
0.169851
0.168615
0.167467
0.166407
0.165436
0.164555
0.163765
0.163068
0.16247
0.18532
0.18316
0.181127
0.179212
0.177407
0.175708
0.174108
0.172603
0.17119
0.169867
0.168631
0.167482
0.16642
0.165443
0.164552
0.163747
0.16303
0.162405
0.185319
0.183159
0.181127
0.179212
0.17741
0.175713
0.174116
0.172614
0.171204
0.169883
0.168649
0.1675
0.166435
0.165452
0.164551
0.163731
0.162992
0.16234
0.185319
0.183158
0.181125
0.179212
0.177412
0.175717
0.174123
0.172626
0.17122
0.169903
0.168672
0.167524
0.166457
0.16547
0.164561
0.163728
0.162971
0.162293
0.185317
0.183156
0.181123
0.179211
0.177412
0.175721
0.174131
0.172638
0.171238
0.169926
0.168699
0.167554
0.166488
0.165499
0.164585
0.163742
0.16297
0.162272
0.185316
0.183154
0.181121
0.179209
0.177413
0.175725
0.174139
0.172651
0.171255
0.169948
0.168725
0.167583
0.16652
0.165531
0.164614
0.163766
0.162985
0.162276
0.185315
0.183152
0.18112
0.17921
0.177416
0.175731
0.174149
0.172664
0.171273
0.16997
0.16875
0.167612
0.16655
0.165561
0.164643
0.163791
0.163005
0.162288
0.185314
0.183152
0.18112
0.179212
0.177421
0.175738
0.174158
0.172677
0.171287
0.169986
0.168768
0.16763
0.166568
0.165578
0.164657
0.163801
0.163009
0.162284
0.185314
0.183152
0.181121
0.179214
0.177423
0.175739
0.174157
0.172671
0.171276
0.169966
0.168738
0.167588
0.166512
0.165507
0.164569
0.163696
0.162885
0.16214
0.185314
0.18315
0.181116
0.179201
0.177397
0.175695
0.174092
0.172581
0.171157
0.169816
0.168554
0.167368
0.166255
0.165212
0.164236
0.163325
0.162475
0.161692
0.18531
0.183134
0.181076
0.17912
0.177257
0.175485
0.173801
0.172204
0.170693
0.169266
0.167921
0.166657
0.165471
0.16436
0.163321
0.162351
0.161447
0.160614
0.185287
0.183049
0.180895
0.178819
0.176817
0.174896
0.173064
0.171328
0.169694
0.168162
0.166732
0.165399
0.164161
0.163013
0.161948
0.160961
0.160048
0.159209
0.185188
0.182766
0.180355
0.177969
0.175664
0.173493
0.171484
0.169649
0.167989
0.166498
0.165167
0.163981
0.162926
0.161988
0.161152
0.160404
0.159735
0.159137
0.184851
0.182121
0.179199
0.176291
0.173678
0.171493
0.169762
0.168469
0.167585
0.167067
0.166863
0.166919
0.167185
0.167607
0.16814
0.168745
0.169401
0.170096
0.182908
0.177349
0.172662
0.169847
0.169073
0.1702
0.172999
0.177193
0.182482
0.188572
0.195189
0.202091
0.209069
0.21595
0.222597
0.22891
0.234825
0.240245
0.168319
0.151181
0.137004
0.125293
0.115701
0.107946
0.101793
0.0970358
0.0934851
0.090966
0.0893168
0.0883895
0.0880495
0.0881766
0.0886649
0.0894233
0.090375
0.0914514
0.0890482
0.125692
0.155049
0.179278
0.204278
0.217898
0.224
0.226053
0.227589
0.229365
0.231782
0.235122
0.239625
0.245495
0.252994
0.26096
0.26762
0.272013
0.272849
0.268293
0.255689
0.231143
0.1897
0.131075
0.0796857
0.0695069
0.0723198
0.0810617
0.0960744
0.115544
0.139861
0.154312
0.152572
0.141441
0.127419
0.116618
0.111439
0.110512
0.111231
0.113131
0.123925
0.168699
0.274367
0.369171
0.449667
0.516979
0.571537
0.614394
0.646851
0.670255
0.685896
0.694963
0.698524
0.697523
0.692786
0.685027
0.674855
0.662781
0.64923
0.634544
0.619583
0.604612
0.589647
0.574716
0.559847
0.545066
0.53039
0.515831
0.501392
0.487067
0.472836
0.458667
0.44451
0.430299
0.415945
0.401345
0.386379
0.370923
0.354863
0.338109
0.320616
0.302403
0.283561
0.264254
0.244712
0.225211
0.206064
0.187633
0.170489
0.156318
0.148732
0.144614
0.141247
0.138359
0.135896
0.133837
0.132162
0.130849
0.129873
0.129204
0.128811
0.128661
0.128717
0.128939
0.129283
0.129695
0.130116
0.130459
0.130523
0.12991
0.128237
0.125216
0.120695
0.114761
0.107813
0.100548
0.0938149
0.0882418
0.0825701
0.0797479
0.0789529
0.0794372
0.0806579
0.0829507
0.0844206
0.0855919
0.0866582
0.0877686
0.0890809
0.0907577
0.0929512
0.0957837
0.0993002
0.103491
0.108365
0.11417
0.121464
0.134472
0.172365
0.249088
0.31516
0.367478
0.406728
0.434915
0.454221
0.466743
0.474549
0.479763
0.481068
0.478961
0.473674
0.465207
0.453368
0.437831
0.418229
0.39439
0.367443
0.349892
0.350685
0.351381
0.351463
0.351648
0.352586
0.354665
0.358074
0.362835
0.368208
0.370381
0.362128
0.337184
0.294705
0.243378
0.19961
0.174844
0.164212
0.155401
0.144346
0.132543
0.122024
0.110487
0.0663857
0.0982481
0.142105
0.265375
0.297921
0.295653
0.285404
0.273375
0.260201
0.246239
0.23227
0.219077
0.207186
0.196843
0.188244
0.182421
0.179848
0.180721
0.184979
0.1923
0.201962
0.212549
0.221769
0.22711
0.222207
0.198376
0.1619
0.131188
0.124577
0.15573
0.20425
0.240086
0.247055
0.232218
0.216256
0.237371
0.304152
0.403249
0.472719
0.474349
0.46025
0.451297
0.449278
0.445184
0.438596
0.430394
0.42154
0.412831
0.404848
0.397977
0.392443
0.388356
0.38574
0.384564
0.384768
0.386282
0.389046
0.393013
0.398138
0.40433
0.410867
0.417487
0.424204
0.431047
0.438056
0.44527
0.452729
0.460461
0.468484
0.476789
0.485338
0.494051
0.502792
0.511357
0.519464
0.526742
0.532735
0.536917
0.538725
0.537614
0.533125
0.524952
0.513006
0.497436
0.478619
0.457115
0.433592
0.408736
0.383087
0.356892
0.333549
0.312974
0.293871
0.276134
0.259721
0.244577
0.230627
0.217792
0.205984
0.195117
0.185107
0.175873
0.16734
0.159438
0.152104
0.14528
0.138913
0.13296
0.127339
0.121909
0.116698
0.111974
0.107894
0.104649
0.102489
0.101693
0.102483
0.104957
0.108987
0.114302
0.119981
0.125178
0.129604
0.132177
0.132973
0.131931
0.129051
0.124525
0.118859
0.112947
0.108025
0.105544
0.106973
0.114613
0.13494
0.179339
0.251541
0.321238
0.361312
0.398823
0.441831
0.488946
0.537154
0.583472
0.626118
0.664583
0.699292
0.73031
0.759062
0.785795
0.810303
0.831841
0.849029
0.859828
0.861718
0.851921
0.827701
0.792155
0.750837
0.703868
0.654157
0.604264
0.556096
0.510865
0.469033
0.430669
0.396091
0.364955
0.337925
0.321154
0.32192
0.349506
0.40992
0.493621
0.563933
0.571673
0.500502
0.386928
0.279348
0.204215
0.0609239
0.133264
0.320995
0.362872
0.326247
0.283595
0.251583
0.228815
0.211673
0.19783
0.186173
0.176192
0.167595
0.16016
0.153713
0.148396
0.144832
0.143151
0.143666
0.14673
0.152568
0.161201
0.172412
0.185511
0.19704
0.199567
0.188998
0.172695
0.167377
0.200097
0.266547
0.330605
0.361505
0.400598
0.470061
0.518655
0.525768
0.506061
0.472136
0.436629
0.40873
0.389778
0.377415
0.368899
0.363552
0.361107
0.361284
0.363664
0.367704
0.372822
0.378507
0.384393
0.390283
0.396112
0.401892
0.407648
0.413395
0.419113
0.424757
0.430151
0.435285
0.440197
0.444959
0.449675
0.454479
0.459518
0.464947
0.470918
0.477567
0.485008
0.493315
0.502508
0.512536
0.523255
0.534409
0.545607
0.556312
0.565852
0.57345
0.578285
0.579586
0.576737
0.569375
0.557449
0.541235
0.521279
0.498311
0.473127
0.446381
0.41858
0.393661
0.370711
0.349142
0.328951
0.310138
0.292668
0.276484
0.261512
0.247671
0.234873
0.223036
0.212078
0.201923
0.192502
0.183751
0.175611
0.168025
0.160941
0.154297
0.147995
0.141931
0.135921
0.13006
0.124516
0.119417
0.114909
0.111138
0.108204
0.106169
0.104994
0.104533
0.104589
0.104948
0.105404
0.105778
0.105927
0.105735
0.105137
0.104232
0.1035
0.104126
0.108366
0.120059
0.146762
0.200284
0.285942
0.371957
0.416488
0.45105
0.509507
0.582523
0.654823
0.716741
0.76675
0.807572
0.842289
0.87277
0.899391
0.923417
0.945288
0.96506
0.982211
0.995374
1.00222
0.999694
0.9842
0.953006
0.911329
0.860807
0.804053
0.744555
0.685333
0.628606
0.575769
0.527511
0.484158
0.445868
0.411551
0.379737
0.350012
0.326278
0.314196
0.31905
0.342313
0.380708
0.424337
0.45318
0.445897
0.394922
0.313434
0.113964
0.369515
0.392825
0.330803
0.276215
0.241283
0.219599
0.204538
0.19248
0.181973
0.172557
0.164104
0.156564
0.149909
0.144116
0.139161
0.134978
0.13166
0.129493
0.12894
0.130496
0.134523
0.14142
0.151796
0.165281
0.178785
0.189679
0.204364
0.240331
0.314533
0.427624
0.554995
0.635845
0.591912
0.544332
0.504003
0.46161
0.421621
0.388855
0.36569
0.352078
0.346246
0.34602
0.349697
0.356214
0.364672
0.374213
0.384047
0.393554
0.402375
0.410415
0.417757
0.424538
0.430858
0.436738
0.44212
0.446895
0.450946
0.454168
0.456266
0.457294
0.457329
0.456501
0.455007
0.453103
0.451092
0.449309
0.448104
0.447828
0.448805
0.45132
0.455596
0.461772
0.469874
0.479787
0.491219
0.503681
0.516465
0.528669
0.539244
0.547101
0.551245
0.550916
0.545712
0.535636
0.521066
0.502659
0.481212
0.457384
0.432683
0.410053
0.38842
0.367804
0.348308
0.329983
0.312832
0.296826
0.281914
0.268036
0.255125
0.243112
0.231931
0.221522
0.211824
0.202785
0.194355
0.186491
0.179149
0.172282
0.165836
0.15974
0.153903
0.148208
0.142655
0.13735
0.132363
0.127771
0.123636
0.119997
0.116863
0.114211
0.111988
0.110121
0.108528
0.107137
0.105909
0.10486
0.104102
0.10395
0.105185
0.109565
0.120571
0.144651
0.191674
0.269769
0.363473
0.428471
0.46389
0.521653
0.606229
0.694958
0.771583
0.83198
0.878927
0.915987
0.945246
0.967622
0.984299
0.997163
1.00713
1.01483
1.02032
1.02276
1.02006
1.00907
0.985969
0.951258
0.906624
0.853746
0.795657
0.735737
0.676883
0.621187
0.569928
0.523748
0.48287
0.447224
0.416424
0.389478
0.364528
0.340644
0.319617
0.303693
0.295363
0.297832
0.313438
0.338669
0.361779
0.368953
0.349133
0.248603
0.386333
0.318611
0.265887
0.238059
0.222553
0.210915
0.19982
0.188584
0.177494
0.167005
0.157431
0.148938
0.141619
0.135529
0.1306
0.126508
0.123204
0.120646
0.118967
0.118599
0.120144
0.124318
0.132488
0.146765
0.169158
0.204178
0.269002
0.391244
0.565825
0.754337
0.745301
0.617653
0.525207
0.461012
0.41426
0.379275
0.355111
0.341159
0.336106
0.338085
0.345106
0.355454
0.367824
0.3812
0.394723
0.407736
0.419866
0.431024
0.441314
0.4509
0.459901
0.468343
0.476165
0.483234
0.489376
0.494398
0.498112
0.499986
0.499829
0.497554
0.493167
0.486777
0.478606
0.468988
0.458359
0.447243
0.436225
0.425926
0.416968
0.409943
0.405379
0.403702
0.405204
0.410002
0.418001
0.428854
0.441932
0.456311
0.470809
0.484069
0.494706
0.501497
0.50357
0.50053
0.49247
0.479897
0.463552
0.444193
0.424603
0.405412
0.386575
0.368333
0.350862
0.33426
0.318568
0.303788
0.289899
0.276864
0.26464
0.253181
0.24244
0.232373
0.222938
0.214096
0.205811
0.198049
0.190776
0.18396
0.177562
0.171539
0.165837
0.160389
0.155113
0.149995
0.145092
0.140442
0.13609
0.132071
0.128404
0.125091
0.122111
0.119431
0.117015
0.114835
0.112901
0.11131
0.110321
0.110521
0.113159
0.120763
0.138075
0.172951
0.234592
0.321395
0.402485
0.45151
0.498561
0.579505
0.678694
0.771273
0.846043
0.9033
0.946627
0.978496
1.00005
1.01195
1.01622
1.01532
1.01063
1.00336
0.994264
0.983222
0.968626
0.947412
0.918351
0.880806
0.835239
0.783443
0.728192
0.672425
0.618612
0.568486
0.523052
0.482737
0.44758
0.417392
0.391835
0.370285
0.351584
0.334133
0.31662
0.299835
0.285331
0.275222
0.272397
0.279616
0.297217
0.321348
0.339784
0.343998
0.324774
0.268423
0.246538
0.23635
0.22645
0.21422
0.200072
0.185299
0.171152
0.158377
0.147212
0.137668
0.129737
0.123421
0.118625
0.115459
0.113524
0.112279
0.111293
0.110644
0.111168
0.114258
0.122396
0.140574
0.17784
0.253927
0.394777
0.583018
0.782565
0.764877
0.623313
0.504939
0.429079
0.381483
0.352259
0.336087
0.330155
0.332289
0.340465
0.352848
0.3679
0.384389
0.401341
0.418025
0.433986
0.449047
0.46324
0.476697
0.489554
0.501894
0.513724
0.52498
0.535526
0.545167
0.553652
0.560689
0.565972
0.568412
0.567858
0.564099
0.55702
0.546639
0.533128
0.516818
0.498197
0.4779
0.456688
0.435423
0.415027
0.396443
0.380576
0.368231
0.360051
0.356458
0.357609
0.363356
0.373226
0.386398
0.401702
0.417666
0.432629
0.444943
0.453208
0.456548
0.454644
0.44775
0.436459
0.422421
0.407475
0.391937
0.376252
0.360765
0.345701
0.331198
0.317329
0.304125
0.29159
0.279712
0.268469
0.257838
0.247789
0.238296
0.229334
0.220877
0.212903
0.20539
0.198314
0.191652
0.185377
0.179459
0.17386
0.168536
0.163443
0.158528
0.153795
0.149271
0.144978
0.140937
0.137166
0.133672
0.13045
0.127487
0.124771
0.122303
0.120127
0.118388
0.117448
0.118125
0.122103
0.132606
0.155339
0.198613
0.268199
0.352255
0.418018
0.461774
0.525541
0.622232
0.727273
0.818339
0.88938
0.942717
0.981223
1.0064
1.01903
1.01988
1.01178
0.997506
0.978764
0.957191
0.934081
0.910296
0.884151
0.855344
0.821544
0.78196
0.736953
0.688096
0.637672
0.588022
0.541069
0.498108
0.459821
0.426406
0.397734
0.373503
0.353331
0.336719
0.322927
0.311009
0.299434
0.287364
0.275318
0.264497
0.256735
0.254887
0.263106
0.285769
0.319528
0.484209
0.315382
0.268437
0.257988
0.247956
0.233425
0.215698
0.196717
0.178522
0.162489
0.148873
0.137333
0.127566
0.119502
0.11314
0.108657
0.106474
0.10584
0.1059
0.105992
0.106048
0.107034
0.110994
0.122303
0.151715
0.221761
0.357899
0.538736
0.709888
0.730766
0.612858
0.490764
0.409087
0.361664
0.336612
0.326352
0.326409
0.333932
0.3468
0.363326
0.382136
0.402119
0.422417
0.442455
0.461929
0.480747
0.498949
0.516625
0.533863
0.550717
0.567194
0.58324
0.598728
0.613448
0.627099
0.6393
0.649602
0.65722
0.661169
0.661256
0.657144
0.648595
0.635521
0.618009
0.596333
0.570956
0.542525
0.511863
0.479955
0.447935
0.417056
0.38863
0.363926
0.344047
0.329812
0.32166
0.319627
0.323365
0.332177
0.345025
0.360508
0.376903
0.392299
0.404808
0.413071
0.416226
0.414207
0.407736
0.398591
0.387648
0.375607
0.363019
0.350272
0.337629
0.325257
0.313256
0.301681
0.290559
0.279898
0.269697
0.25995
0.250647
0.241777
0.233331
0.225296
0.217663
0.210419
0.203554
0.197052
0.190896
0.185067
0.179538
0.174283
0.169272
0.164474
0.159859
0.155446
0.151242
0.14726
0.143511
0.140001
0.136732
0.133702
0.130917
0.1284
0.126222
0.124564
0.123872
0.125158
0.130478
0.143613
0.170811
0.219704
0.291546
0.368198
0.423264
0.468647
0.542479
0.646236
0.753247
0.841157
0.908106
0.957111
0.99017
1.00832
1.01237
1.00332
0.9846
0.959147
0.928917
0.895737
0.860846
0.826978
0.793172
0.758397
0.721188
0.680907
0.637842
0.593165
0.548531
0.505618
0.465784
0.42992
0.398442
0.371378
0.348496
0.329429
0.313775
0.301108
0.290912
0.282537
0.275324
0.26789
0.260064
0.252344
0.245625
0.241777
0.244896
0.262028
0.29763
0.549739
0.307098
0.280503
0.272199
0.256596
0.236264
0.21399
0.192123
0.172914
0.157152
0.144107
0.132818
0.122908
0.114701
0.108441
0.104554
0.103008
0.103103
0.104356
0.106332
0.108968
0.113507
0.123443
0.14831
0.205108
0.311384
0.459482
0.603955
0.653145
0.581614
0.476138
0.396281
0.349721
0.327533
0.32127
0.325542
0.337006
0.353468
0.373331
0.395335
0.418474
0.442007
0.465468
0.488619
0.511382
0.53376
0.555798
0.57755
0.599066
0.620375
0.641453
0.662194
0.682388
0.70171
0.719723
0.7359
0.749662
0.759473
0.765223
0.766441
0.762668
0.753563
0.738951
0.718853
0.693495
0.663297
0.628854
0.590913
0.550374
0.508324
0.466094
0.425281
0.387667
0.355016
0.328789
0.309889
0.298541
0.294388
0.29673
0.30464
0.316914
0.331979
0.347927
0.362484
0.373894
0.380696
0.3826
0.380407
0.375204
0.367835
0.359027
0.349341
0.339191
0.328861
0.318538
0.308343
0.29835
0.288603
0.279131
0.269949
0.261067
0.252493
0.244231
0.236284
0.228654
0.221342
0.214348
0.207668
0.201298
0.19523
0.189453
0.183953
0.178714
0.173716
0.168943
0.164375
0.160008
0.155852
0.151913
0.148196
0.144707
0.141451
0.138434
0.135674
0.133214
0.131146
0.129685
0.129351
0.131318
0.137922
0.153309
0.183824
0.235733
0.3063
0.375191
0.424183
0.472603
0.551244
0.654947
0.757709
0.842037
0.905876
0.951281
0.979556
0.991548
0.988548
0.971825
0.944941
0.910861
0.872147
0.830765
0.788756
0.747859
0.708293
0.669505
0.630658
0.591296
0.551514
0.511934
0.473502
0.43723
0.403983
0.374347
0.348581
0.326649
0.308299
0.29317
0.280871
0.271024
0.263228
0.257019
0.252029
0.247521
0.242888
0.238278
0.234197
0.23156
0.233217
0.245808
0.2775
0.559375
0.305133
0.29631
0.284248
0.262678
0.237899
0.213175
0.19076
0.17244
0.158029
0.145816
0.134454
0.123827
0.115021
0.109375
0.107502
0.10754
0.109364
0.112858
0.117673
0.124097
0.134954
0.157342
0.202452
0.28067
0.390364
0.503606
0.5607
0.53076
0.455481
0.386005
0.342209
0.321981
0.31817
0.325121
0.339254
0.358318
0.380759
0.405377
0.431225
0.45762
0.484129
0.510516
0.536673
0.562568
0.588219
0.613685
0.639042
0.66436
0.689653
0.714847
0.73975
0.764035
0.787247
0.808806
0.828037
0.844202
0.855948
0.863215
0.865465
0.862155
0.852853
0.837304
0.815479
0.787606
0.754161
0.715809
0.673315
0.627454
0.579027
0.528994
0.478704
0.430056
0.38539
0.347102
0.317007
0.295846
0.283192
0.278142
0.279743
0.28702
0.298667
0.313034
0.327615
0.340425
0.349374
0.354194
0.35534
0.353432
0.349186
0.34327
0.336232
0.328481
0.320309
0.311913
0.303425
0.294932
0.286495
0.278155
0.269944
0.261888
0.254008
0.246323
0.238849
0.231599
0.224584
0.217815
0.211298
0.205035
0.19903
0.193278
0.187775
0.182514
0.177485
0.17268
0.168092
0.163712
0.15955
0.155609
0.151894
0.148411
0.145167
0.142175
0.139464
0.13709
0.135165
0.133938
0.133991
0.136619
0.14434
0.161464
0.194097
0.246984
0.314585
0.376948
0.422539
0.472527
0.550939
0.650153
0.747053
0.827018
0.887252
0.92885
0.9529
0.960369
0.952405
0.93065
0.898845
0.859774
0.815853
0.769308
0.722407
0.676969
0.633858
0.593172
0.554612
0.51781
0.482489
0.448596
0.416347
0.38617
0.358567
0.333959
0.31258
0.294434
0.279332
0.266969
0.257002
0.249084
0.242862
0.237946
0.233976
0.230799
0.227874
0.225187
0.223114
0.222288
0.224319
0.234168
0.260497
0.534244
0.31226
0.313047
0.295736
0.268758
0.24079
0.215331
0.193894
0.177281
0.164396
0.153061
0.142081
0.131961
0.124212
0.120246
0.119142
0.120349
0.123608
0.128865
0.136635
0.149014
0.170508
0.207517
0.265632
0.343905
0.425547
0.475804
0.471491
0.427043
0.3748
0.336903
0.318558
0.315986
0.324241
0.339788
0.360396
0.384548
0.411069
0.439019
0.467703
0.496656
0.525598
0.554377
0.582933
0.611285
0.639515
0.667739
0.69606
0.724525
0.753074
0.781521
0.809543
0.836688
0.862395
0.886008
0.906795
0.923655
0.936075
0.943824
0.946356
0.943098
0.933542
0.917314
0.894257
0.864519
0.828602
0.787339
0.741738
0.69276
0.641135
0.587402
0.532241
0.476975
0.42378
0.37564
0.335507
0.305255
0.284579
0.272291
0.267271
0.268799
0.275866
0.287211
0.300335
0.312626
0.32264
0.329524
0.333156
0.333877
0.332244
0.328833
0.324143
0.318559
0.312361
0.305742
0.298837
0.291743
0.284529
0.27725
0.26995
0.26267
0.255443
0.248301
0.24127
0.234377
0.227641
0.221082
0.214714
0.208548
0.202595
0.196857
0.191339
0.186041
0.18096
0.176098
0.171451
0.167018
0.162809
0.158828
0.15508
0.151574
0.14832
0.145339
0.142667
0.140372
0.138583
0.137577
0.137984
0.14117
0.149736
0.167987
0.201617
0.254035
0.318114
0.375391
0.418681
0.468041
0.542457
0.634501
0.724501
0.799549
0.856033
0.894212
0.914988
0.919358
0.908474
0.884128
0.849795
0.808053
0.761256
0.711796
0.662124
0.614351
0.569894
0.529464
0.493126
0.460383
0.430397
0.402373
0.375869
0.350884
0.327733
0.306835
0.288519
0.27292
0.25997
0.249459
0.241101
0.234572
0.229518
0.225549
0.222281
0.21958
0.217323
0.215491
0.214379
0.214637
0.217343
0.225663
0.246979
0.490645
0.32751
0.330477
0.307877
0.27639
0.246209
0.220823
0.200761
0.185789
0.174498
0.164817
0.155556
0.147061
0.140593
0.137397
0.136397
0.138271
0.143053
0.151286
0.164366
0.184769
0.215708
0.259584
0.314596
0.370229
0.408236
0.415203
0.394106
0.36083
0.332102
0.316607
0.314675
0.32313
0.338928
0.359996
0.384899
0.412498
0.441838
0.472166
0.502943
0.533812
0.564562
0.595104
0.62546
0.655738
0.686091
0.716657
0.747502
0.778572
0.809661
0.840413
0.870335
0.898827
0.925229
0.948847
0.968994
0.984464
0.99553
1.00192
1.00322
0.998932
0.988559
0.97163
0.947803
0.91699
0.879512
0.836203
0.788325
0.737217
0.683917
0.628913
0.57238
0.514964
0.457988
0.404162
0.356976
0.319828
0.292711
0.274272
0.263226
0.259168
0.261469
0.268786
0.279211
0.290513
0.30078
0.308802
0.314119
0.316819
0.317283
0.315973
0.313312
0.30964
0.305207
0.300193
0.29473
0.288913
0.28282
0.276515
0.270053
0.263487
0.256862
0.250221
0.243602
0.23704
0.230566
0.224204
0.217979
0.211908
0.206007
0.200287
0.194757
0.189424
0.184292
0.179367
0.174653
0.170153
0.165877
0.161833
0.15803
0.154479
0.151196
0.148206
0.145554
0.143316
0.141637
0.140811
0.141495
0.145077
0.154148
0.172893
0.206538
0.25752
0.318091
0.371504
0.412809
0.459614
0.527506
0.610708
0.693004
0.762712
0.815478
0.850769
0.869215
0.871768
0.85953
0.834165
0.798823
0.755953
0.707926
0.657296
0.606731
0.558679
0.515059
0.477026
0.444726
0.417247
0.393041
0.370605
0.349006
0.328024
0.30799
0.289473
0.273007
0.258918
0.247291
0.23802
0.230866
0.225507
0.221554
0.218564
0.216091
0.213838
0.21188
0.210325
0.209455
0.209916
0.212744
0.219917
0.236952
0.441979
0.345487
0.349608
0.322311
0.286607
0.25412
0.228299
0.208938
0.195111
0.185371
0.177888
0.171322
0.165477
0.161099
0.158609
0.158646
0.162089
0.169448
0.181538
0.199543
0.224696
0.257293
0.295002
0.331569
0.358278
0.368546
0.362
0.344886
0.32682
0.315729
0.314658
0.32273
0.337907
0.358488
0.383218
0.411043
0.441016
0.472329
0.504349
0.536621
0.568852
0.600901
0.632769
0.664575
0.696503
0.728733
0.761368
0.794376
0.827547
0.860483
0.892604
0.923195
0.951471
0.976629
0.997926
1.01479
1.02667
1.03406
1.03692
1.03508
1.02822
1.01596
0.997826
0.973355
0.942176
0.904247
0.860134
0.811146
0.758889
0.704831
0.649706
0.593448
0.536643
0.479693
0.424532
0.37415
0.333346
0.302196
0.279329
0.263599
0.254619
0.252267
0.255813
0.263608
0.273475
0.283365
0.29184
0.298196
0.302312
0.304402
0.304806
0.303857
0.301834
0.298948
0.295355
0.291174
0.286499
0.28141
0.275978
0.270269
0.264344
0.258261
0.252073
0.245827
0.239567
0.233332
0.227155
0.221065
0.215088
0.209243
0.203548
0.198017
0.192661
0.187491
0.182514
0.17774
0.173178
0.168836
0.164728
0.160864
0.157261
0.153937
0.150925
0.148275
0.146073
0.144469
0.14377
0.144634
0.148423
0.157645
0.176278
0.209117
0.258017
0.315327
0.365837
0.405237
0.448178
0.508035
0.581348
0.655237
0.719145
0.768129
0.800899
0.817693
0.819301
0.806672
0.781249
0.745908
0.703025
0.655067
0.604782
0.555092
0.508793
0.468187
0.434592
0.40786
0.386396
0.367891
0.350285
0.332396
0.314035
0.295745
0.278383
0.262755
0.249409
0.238581
0.230242
0.22417
0.220008
0.2173
0.215523
0.214145
0.21274
0.21121
0.209836
0.208913
0.209035
0.211298
0.217146
0.230421
0.391124
0.363085
0.369679
0.339134
0.300022
0.265164
0.238085
0.218287
0.204521
0.195401
0.189434
0.185339
0.182493
0.181072
0.180826
0.183302
0.189218
0.199145
0.213535
0.232514
0.255436
0.280388
0.304115
0.322804
0.333449
0.335101
0.329606
0.32141
0.315805
0.31642
0.324186
0.338354
0.357836
0.381674
0.408978
0.438869
0.470522
0.503228
0.53643
0.569729
0.602892
0.63586
0.668719
0.701662
0.734904
0.768609
0.802809
0.837345
0.871833
0.90565
0.93797
0.967829
0.994242
1.01628
1.0332
1.04455
1.05079
1.05258
1.05017
1.04365
1.0329
1.01769
0.997659
0.972312
0.941098
0.903578
0.859846
0.811182
0.759141
0.705458
0.651188
0.595828
0.54086
0.486103
0.432876
0.384166
0.342754
0.309467
0.283583
0.264286
0.251565
0.24571
0.246314
0.251914
0.260396
0.269673
0.278205
0.285151
0.290246
0.293569
0.295342
0.29581
0.295183
0.293623
0.291259
0.288193
0.284514
0.280302
0.275634
0.270584
0.265222
0.259614
0.253823
0.247905
0.241912
0.23589
0.22988
0.223915
0.218027
0.21224
0.206577
0.201056
0.195692
0.190499
0.185488
0.180672
0.176062
0.171669
0.167507
0.163591
0.159941
0.156579
0.153543
0.150886
0.148701
0.147143
0.146517
0.147462
0.151271
0.160311
0.178302
0.209661
0.256023
0.310345
0.358708
0.396356
0.43483
0.48599
0.548828
0.613667
0.671195
0.716111
0.74642
0.761872
0.762974
0.75047
0.72558
0.690963
0.648984
0.602265
0.553792
0.506768
0.464285
0.428803
0.401412
0.381287
0.365982
0.352518
0.338535
0.322902
0.305712
0.28789
0.270668
0.25516
0.242117
0.231878
0.224434
0.219526
0.216723
0.215476
0.215171
0.215193
0.215021
0.214352
0.21339
0.212487
0.212141
0.213424
0.217635
0.227412
0.33629
0.378201
0.389007
0.357807
0.31708
0.280567
0.252
0.230996
0.216341
0.206811
0.201237
0.198566
0.198014
0.198976
0.201444
0.206234
0.213766
0.22421
0.237398
0.252723
0.269105
0.285081
0.299047
0.309576
0.315787
0.317844
0.317386
0.317272
0.320387
0.328427
0.341736
0.359952
0.382519
0.408792
0.438033
0.469461
0.502337
0.53602
0.569999
0.60392
0.637605
0.671055
0.70441
0.737888
0.7717
0.80596
0.840617
0.875391
0.909741
0.942866
0.973749
1.00126
1.02425
1.04171
1.05289
1.05749
1.05702
1.05234
1.0439
1.03201
1.01676
0.998056
0.975646
0.949116
0.917869
0.881192
0.838449
0.791315
0.740906
0.688921
0.636717
0.584698
0.532778
0.481005
0.430696
0.384343
0.344196
0.3109
0.283828
0.26258
0.24767
0.239751
0.23858
0.242764
0.250236
0.258952
0.267381
0.274647
0.280412
0.28466
0.287516
0.289136
0.289664
0.289215
0.287888
0.285766
0.282933
0.279468
0.275452
0.270963
0.266081
0.260879
0.255427
0.249789
0.244025
0.238187
0.232321
0.226467
0.22066
0.214931
0.209303
0.2038
0.19844
0.193239
0.188212
0.183372
0.178734
0.174308
0.170111
0.166159
0.162476
0.159088
0.156033
0.153371
0.151194
0.149659
0.14906
0.149997
0.153666
0.162244
0.179156
0.208494
0.25195
0.30347
0.350283
0.386546
0.420639
0.463162
0.515363
0.570618
0.621078
0.661392
0.688974
0.703038
0.703722
0.691536
0.667549
0.634255
0.594057
0.549779
0.50467
0.462186
0.425563
0.397075
0.377142
0.363966
0.354247
0.344584
0.332662
0.317713
0.30033
0.281932
0.264165
0.248417
0.235569
0.225977
0.219576
0.216012
0.214748
0.21513
0.216453
0.218039
0.219319
0.219894
0.219699
0.219125
0.218537
0.218844
0.221301
0.227793
0.273899
0.387032
0.404396
0.376369
0.336946
0.300583
0.271386
0.249357
0.233544
0.222956
0.216684
0.213922
0.21401
0.215614
0.219035
0.224323
0.231494
0.240435
0.250861
0.262314
0.274194
0.28579
0.296324
0.305085
0.311718
0.31662
0.321102
0.327019
0.336008
0.348983
0.366191
0.387499
0.412552
0.44081
0.471605
0.504226
0.53799
0.5723
0.606676
0.640793
0.674505
0.707836
0.740929
0.77396
0.807115
0.840461
0.87388
0.907016
0.93926
0.969755
0.997443
1.02113
1.03954
1.05139
1.05582
1.05367
1.04667
1.03566
1.02142
1.00436
0.984692
0.962475
0.937574
0.909669
0.87824
0.842654
0.80249
0.758061
0.710417
0.661136
0.611573
0.562305
0.513321
0.464848
0.418149
0.3753
0.337878
0.306012
0.279124
0.257374
0.241821
0.233328
0.231623
0.235266
0.242231
0.250581
0.258891
0.266338
0.27257
0.277512
0.281211
0.283749
0.285209
0.285663
0.285182
0.283836
0.281698
0.278849
0.275371
0.271348
0.266863
0.261998
0.256828
0.251424
0.245851
0.240167
0.234423
0.228663
0.222928
0.217251
0.211659
0.206179
0.200831
0.195634
0.190604
0.185758
0.181109
0.176669
0.172456
0.168489
0.164792
0.161393
0.158334
0.155673
0.153503
0.151977
0.151371
0.152232
0.155636
0.163539
0.17904
0.205934
0.246141
0.294878
0.340569
0.376035
0.406436
0.441027
0.482898
0.528257
0.570953
0.605947
0.630263
0.642606
0.642704
0.630832
0.608016
0.576638
0.539179
0.498672
0.4586
0.422563
0.393656
0.373526
0.36153
0.354784
0.349333
0.34174
0.330125
0.314359
0.295672
0.276022
0.257423
0.241438
0.228962
0.220257
0.215128
0.213093
0.213493
0.215568
0.218532
0.221659
0.224373
0.226275
0.227126
0.227228
0.226819
0.226521
0.227462
0.231062
0.259915
0.386032
0.411303
0.390999
0.356661
0.323111
0.295051
0.273082
0.256687
0.245187
0.237904
0.234192
0.233153
0.233993
0.236757
0.24125
0.247321
0.254818
0.26355
0.273249
0.283544
0.293954
0.303942
0.313086
0.321334
0.329206
0.337745
0.348172
0.361481
0.378242
0.398654
0.422633
0.449863
0.479842
0.511957
0.545536
0.579894
0.614474
0.64882
0.682621
0.715742
0.748223
0.780272
0.811553
0.842421
0.872937
0.90295
0.932094
0.959787
0.985243
1.00751
1.02548
1.03792
1.04366
1.04196
1.03425
1.02192
1.00589
0.986925
0.965606
0.942314
0.91723
0.890314