/*--------------------------------*- C++ -*----------------------------------*\
  =========                 |
  \\      /  F ield         | OpenFOAM: The Open Source CFD Toolbox
   \\    /   O peration     | Website:  https://openfoam.org
    \\  /    A nd           | Version:  9
     \\/     M anipulation  |
\*---------------------------------------------------------------------------*/
FoamFile
{
    format      ascii;
    class       surfaceScalarField;
    location    "0.21";
    object      phi;
}
// * * * * * * * * * * * * * * * * * * * * * * * * * * * * * * * * * * * * * //

dimensions      [0 3 -1 0 0 0 0];

internalField   nonuniform List<scalar> 
24170
(
3.0704e-06
1.18002e-07
2.92733e-06
1.43069e-07
2.79304e-06
1.34298e-07
2.66615e-06
1.26887e-07
2.54449e-06
1.21657e-07
2.42926e-06
1.1523e-07
2.32036e-06
1.08899e-07
2.21654e-06
1.03828e-07
2.11612e-06
1.00419e-07
2.01725e-06
9.88642e-08
1.91791e-06
9.93406e-08
1.81592e-06
1.01988e-07
1.70906e-06
1.06862e-07
1.59518e-06
1.13882e-07
1.47246e-06
1.22717e-07
1.33955e-06
1.32916e-07
1.19627e-06
1.4328e-07
1.54656e-07
1.04161e-06
3.48012e-06
5.51335e-08
3.51338e-06
1.09806e-07
3.53164e-06
1.16035e-07
3.53512e-06
1.23406e-07
3.52628e-06
1.30504e-07
3.50727e-06
1.34239e-07
3.47971e-06
1.36461e-07
3.44464e-06
1.3889e-07
3.4027e-06
1.42365e-07
3.35406e-06
1.47499e-07
3.29849e-06
1.54918e-07
3.23523e-06
1.6524e-07
3.16307e-06
1.79025e-07
3.08022e-06
1.96732e-07
2.98438e-06
2.18555e-07
2.87271e-06
2.44587e-07
2.74198e-06
2.74009e-07
3.09685e-07
2.58695e-06
3.67482e-06
4.28314e-08
3.68991e-06
9.47171e-08
3.70274e-06
1.03206e-07
3.71446e-06
1.11683e-07
3.72397e-06
1.20996e-07
3.73027e-06
1.27936e-07
3.73311e-06
1.33625e-07
3.73237e-06
1.39625e-07
3.72796e-06
1.46781e-07
3.71974e-06
1.55713e-07
3.70756e-06
1.67096e-07
3.69115e-06
1.8165e-07
3.67007e-06
2.00107e-07
3.64364e-06
2.2317e-07
3.61073e-06
2.51463e-07
3.56988e-06
2.85429e-07
3.5185e-06
3.2539e-07
3.69714e-07
3.45847e-06
3.93093e-06
3.72879e-08
3.93999e-06
8.56608e-08
3.94402e-06
9.9172e-08
3.94682e-06
1.08885e-07
3.94854e-06
1.19276e-07
3.94862e-06
1.27857e-07
3.94701e-06
1.35231e-07
3.94373e-06
1.42905e-07
3.93872e-06
1.51793e-07
3.93195e-06
1.62484e-07
3.92347e-06
1.75574e-07
3.91342e-06
1.91702e-07
3.90201e-06
2.11511e-07
3.88958e-06
2.35605e-07
3.87649e-06
2.6455e-07
3.86323e-06
2.98687e-07
3.85041e-06
3.38215e-07
3.81734e-07
3.83839e-06
4.21177e-06
3.26454e-08
4.21896e-06
7.847e-08
4.22121e-06
9.69249e-08
4.22145e-06
1.08641e-07
4.22034e-06
1.20391e-07
4.21742e-06
1.30776e-07
4.21262e-06
1.40024e-07
4.206e-06
1.49528e-07
4.19753e-06
1.6026e-07
4.18722e-06
1.72799e-07
4.17512e-06
1.8767e-07
4.16141e-06
2.05415e-07
4.14638e-06
2.26545e-07
4.1305e-06
2.51486e-07
4.1145e-06
2.80542e-07
4.0994e-06
3.13789e-07
4.08675e-06
3.50868e-07
3.91168e-07
4.07732e-06
4.51286e-06
2.8873e-08
4.5187e-06
7.26318e-08
4.52084e-06
9.47856e-08
4.52067e-06
1.08804e-07
4.51895e-06
1.22115e-07
4.51532e-06
1.3441e-07
4.50963e-06
1.4571e-07
4.50194e-06
1.57221e-07
4.49226e-06
1.69937e-07
4.48062e-06
1.84443e-07
4.46707e-06
2.01216e-07
4.45176e-06
2.2072e-07
4.43495e-06
2.43361e-07
4.417e-06
2.69431e-07
4.39851e-06
2.99037e-07
4.38023e-06
3.32071e-07
4.36318e-06
3.67915e-07
4.0586e-07
4.34849e-06
4.8356e-06
2.59886e-08
4.8404e-06
6.78323e-08
4.84255e-06
9.26362e-08
4.84228e-06
1.09077e-07
4.84031e-06
1.24085e-07
4.83645e-06
1.38272e-07
4.83052e-06
1.51639e-07
4.82255e-06
1.6519e-07
4.81259e-06
1.79895e-07
4.80069e-06
1.96345e-07
4.78693e-06
2.14972e-07
4.77149e-06
2.36163e-07
4.75462e-06
2.60232e-07
4.73669e-06
2.87357e-07
4.71821e-06
3.17523e-07
4.69978e-06
3.50501e-07
4.68205e-06
3.85637e-07
4.22132e-07
4.66578e-06
5.18175e-06
2.38161e-08
5.18568e-06
6.39076e-08
5.18767e-06
9.06441e-08
5.18729e-06
1.09457e-07
5.18515e-06
1.26228e-07
5.18118e-06
1.42234e-07
5.17522e-06
1.57607e-07
5.16724e-06
1.73165e-07
5.15733e-06
1.89809e-07
5.14555e-06
2.08121e-07
5.13204e-06
2.28487e-07
5.11698e-06
2.5122e-07
5.10067e-06
2.76542e-07
5.08349e-06
3.04537e-07
5.06591e-06
3.35102e-07
5.04848e-06
3.67936e-07
5.03168e-06
4.02429e-07
4.37874e-07
5.01594e-06
5.55297e-06
2.21832e-08
5.55611e-06
6.07667e-08
5.55784e-06
8.89146e-08
5.55739e-06
1.0991e-07
5.55516e-06
1.28454e-07
5.55119e-06
1.46206e-07
5.5453e-06
1.63493e-07
5.53748e-06
1.80985e-07
5.52781e-06
1.99481e-07
5.5164e-06
2.19536e-07
5.50339e-06
2.41491e-07
5.48903e-06
2.65586e-07
5.47361e-06
2.91964e-07
5.45752e-06
3.20628e-07
5.4412e-06
3.51414e-07
5.42515e-06
3.83994e-07
5.40975e-06
4.17821e-07
4.52323e-07
5.39531e-06
5.951e-06
2.09628e-08
5.95346e-06
5.83067e-08
5.9549e-06
8.74703e-08
5.95443e-06
1.10384e-07
5.95222e-06
1.30662e-07
5.94834e-06
1.50086e-07
5.94266e-06
1.69169e-07
5.93517e-06
1.88479e-07
5.92595e-06
2.08702e-07
5.91514e-06
2.30344e-07
5.90292e-06
2.53705e-07
5.88955e-06
2.7896e-07
5.87534e-06
3.06177e-07
5.86066e-06
3.35301e-07
5.84595e-06
3.6613e-07
5.83161e-06
3.98334e-07
5.818e-06
4.31427e-07
4.64967e-07
5.80536e-06
6.37772e-06
2.00558e-08
6.37962e-06
5.64048e-08
6.38081e-06
8.6284e-08
6.38036e-06
1.10828e-07
6.37828e-06
1.32744e-07
6.37463e-06
1.5374e-07
6.36933e-06
1.7447e-07
6.36236e-06
1.9544e-07
6.35384e-06
2.17225e-07
6.34392e-06
2.40268e-07
6.3328e-06
2.64822e-07
6.32075e-06
2.91006e-07
6.3081e-06
3.1883e-07
6.29521e-06
3.48192e-07
6.28247e-06
3.78869e-07
6.27026e-06
4.10544e-07
6.2589e-06
4.42786e-07
4.75255e-07
6.24861e-06
5.74143e-06
1.94637e-08
5.7427e-06
5.51315e-08
5.74355e-06
8.54348e-08
5.74325e-06
1.11124e-07
5.74169e-06
1.34303e-07
5.73891e-06
1.56527e-07
5.73487e-06
1.7851e-07
5.72958e-06
2.00731e-07
5.72312e-06
2.23677e-07
5.71566e-06
2.47733e-07
5.70737e-06
2.73109e-07
5.6985e-06
2.99883e-07
5.6893e-06
3.28023e-07
5.68009e-06
3.574e-07
5.67118e-06
3.87781e-07
5.66286e-06
4.18863e-07
5.65539e-06
4.50255e-07
4.81686e-07
5.64896e-06
6.99869e-06
1.8928e-08
6.99988e-06
5.39378e-08
7.00075e-06
8.4565e-08
7.00057e-06
1.11307e-07
6.99913e-06
1.35742e-07
6.99645e-06
1.59215e-07
6.9925e-06
1.82451e-07
6.98733e-06
2.05901e-07
6.98104e-06
2.29967e-07
6.97382e-06
2.54961e-07
6.96588e-06
2.81046e-07
6.95751e-06
3.08256e-07
6.94901e-06
3.36523e-07
6.94071e-06
3.65693e-07
6.93296e-06
3.95532e-07
6.92607e-06
4.25754e-07
6.92032e-06
4.56e-07
4.86069e-07
6.91594e-06
8.53134e-06
1.84342e-08
8.53251e-06
5.27718e-08
8.53351e-06
8.35619e-08
8.53366e-06
1.11161e-07
8.53267e-06
1.36729e-07
8.53052e-06
1.61363e-07
8.52723e-06
1.85744e-07
8.52284e-06
2.10287e-07
8.5175e-06
2.35311e-07
8.51141e-06
2.61047e-07
8.50485e-06
2.87605e-07
8.49813e-06
3.14978e-07
8.49159e-06
3.43065e-07
8.48559e-06
3.71695e-07
8.48049e-06
4.00635e-07
8.47662e-06
4.29621e-07
8.4743e-06
4.5832e-07
4.86595e-07
8.47377e-06
1.03997e-05
1.79306e-08
1.0401e-05
5.147e-08
1.04024e-05
8.21535e-08
1.04033e-05
1.10273e-07
1.04034e-05
1.36677e-07
1.04025e-05
1.62215e-07
1.04008e-05
1.8747e-07
1.03983e-05
2.12801e-07
1.03951e-05
2.38448e-07
1.03916e-05
2.64563e-07
1.0388e-05
2.91198e-07
1.03847e-05
3.18304e-07
1.0382e-05
3.45759e-07
1.03803e-05
3.73378e-07
1.038e-05
4.00936e-07
1.03815e-05
4.2819e-07
1.0385e-05
4.54829e-07
4.80783e-07
1.03908e-05
1.26774e-05
1.73031e-08
1.26792e-05
4.96936e-08
1.26815e-05
7.98046e-08
1.26839e-05
1.07899e-07
1.2686e-05
1.34605e-07
1.26877e-05
1.60543e-07
1.2689e-05
1.86165e-07
1.269e-05
2.11752e-07
1.2691e-05
2.37466e-07
1.26922e-05
2.63385e-07
1.26939e-05
2.895e-07
1.26964e-05
3.15731e-07
1.27003e-05
3.41935e-07
1.27057e-05
3.67928e-07
1.27132e-05
3.93492e-07
1.27229e-05
4.18411e-07
1.27354e-05
4.42403e-07
4.65457e-07
1.27507e-05
1.54541e-05
1.63469e-08
1.5457e-05
4.68472e-08
1.54612e-05
7.55823e-08
1.54663e-05
1.02792e-07
1.5472e-05
1.28941e-07
1.54781e-05
1.54452e-07
1.54846e-05
1.79628e-07
1.54917e-05
2.04653e-07
1.54996e-05
2.29611e-07
1.55084e-05
2.54512e-07
1.55186e-05
2.79297e-07
1.55305e-05
3.03858e-07
1.55444e-05
3.28041e-07
1.55607e-05
3.51668e-07
1.55796e-05
3.74543e-07
1.56015e-05
3.96479e-07
1.56267e-05
4.1723e-07
4.36839e-07
1.56553e-05
1.88393e-05
1.4712e-08
1.88441e-05
4.19751e-08
1.88517e-05
6.80065e-08
1.88615e-05
9.30176e-08
1.88731e-05
1.17336e-07
1.88863e-05
1.41201e-07
1.89012e-05
1.64759e-07
1.89178e-05
1.88083e-07
1.89362e-05
2.11181e-07
1.89567e-05
2.34003e-07
1.89796e-05
2.56451e-07
1.9005e-05
2.78398e-07
1.90334e-05
2.9969e-07
1.90649e-05
3.20168e-07
1.90998e-05
3.39662e-07
1.91382e-05
3.58025e-07
1.91804e-05
3.75058e-07
3.90846e-07
1.92264e-05
2.29663e-05
1.1743e-08
2.29748e-05
3.35228e-08
2.2988e-05
5.47583e-08
2.30054e-05
7.56635e-08
2.30263e-05
9.64022e-08
2.30505e-05
1.16991e-07
2.30779e-05
1.374e-07
2.31084e-05
1.57594e-07
2.3142e-05
1.77505e-07
2.3179e-05
1.97029e-07
2.32194e-05
2.16038e-07
2.32634e-05
2.34394e-07
2.33112e-05
2.51956e-07
2.33627e-05
2.68588e-07
2.34182e-05
2.84158e-07
2.34777e-05
2.9856e-07
2.35411e-05
3.11648e-07
3.23526e-07
2.36084e-05
1.68136e-05
8.83299e-09
1.68217e-05
2.54084e-08
1.68343e-05
4.21416e-08
1.68507e-05
5.92662e-08
1.68704e-05
7.67462e-08
1.6893e-05
9.43603e-08
1.69185e-05
1.11943e-07
1.69467e-05
1.294e-07
1.69776e-05
1.46626e-07
1.70111e-05
1.63482e-07
1.70473e-05
1.79819e-07
1.70862e-05
1.95496e-07
1.71278e-05
2.1038e-07
1.7172e-05
2.24352e-07
1.72189e-05
2.37306e-07
1.72683e-05
2.4916e-07
1.73201e-05
2.59811e-07
2.69362e-07
1.73743e-05
1.46376e-05
5.76553e-09
1.46462e-05
1.68413e-08
1.46593e-05
2.89962e-08
1.46762e-05
4.24438e-08
1.46961e-05
5.68147e-08
1.47189e-05
7.15933e-08
1.47443e-05
8.65071e-08
1.47723e-05
1.0142e-07
1.48027e-05
1.16186e-07
1.48356e-05
1.30643e-07
1.48708e-05
1.44631e-07
1.49082e-05
1.58006e-07
1.4948e-05
1.70645e-07
1.49899e-05
1.82443e-07
1.50339e-05
1.93311e-07
1.50799e-05
2.03183e-07
1.51277e-05
2.11971e-07
2.1976e-07
1.51773e-05
1.27434e-05
2.54216e-09
1.27523e-05
7.91216e-09
1.27656e-05
1.56492e-08
1.27822e-05
2.58317e-08
1.28016e-05
3.74258e-08
1.28236e-05
4.96001e-08
1.2848e-05
6.21024e-08
1.28747e-05
7.47803e-08
1.29034e-05
8.74147e-08
1.29343e-05
9.98135e-08
1.29671e-05
1.11808e-07
1.30018e-05
1.23254e-07
1.30385e-05
1.34034e-07
1.30768e-05
1.4406e-07
1.31169e-05
1.5326e-07
1.31585e-05
1.61587e-07
1.32015e-05
1.68982e-07
1.75534e-07
1.32457e-05
1.10943e-05
-8.53514e-10
1.11036e-05
-1.40633e-09
1.11171e-05
2.2417e-09
1.11331e-05
9.82976e-09
1.11514e-05
1.912e-08
1.1172e-05
2.89858e-08
1.11947e-05
3.93253e-08
1.12195e-05
5.00142e-08
1.12461e-05
6.08028e-08
1.12745e-05
7.14443e-08
1.13045e-05
8.17635e-08
1.13362e-05
9.16141e-08
1.13693e-05
1.00873e-07
1.14039e-05
1.09462e-07
1.14399e-05
1.17327e-07
1.1477e-05
1.24429e-07
1.15153e-05
1.30709e-07
1.36208e-07
1.15546e-05
9.65886e-06
-4.49933e-09
9.6686e-06
-1.11414e-08
9.68187e-06
-1.10285e-08
9.69711e-06
-5.4121e-09
9.71425e-06
1.97721e-09
9.73323e-06
1.00074e-08
9.75391e-06
1.86459e-08
9.77635e-06
2.75736e-08
9.80037e-06
3.67823e-08
9.82589e-06
4.59253e-08
9.85284e-06
5.48143e-08
9.88116e-06
6.32956e-08
9.91076e-06
7.1271e-08
9.94155e-06
7.86652e-08
9.97345e-06
8.54345e-08
1.00063e-05
9.1555e-08
1.004e-05
9.69953e-08
1.01838e-07
1.00744e-05
8.40953e-06
-8.67885e-09
8.41996e-06
-2.15679e-08
8.43246e-06
-2.35329e-08
8.44656e-06
-1.95126e-08
8.46263e-06
-1.40941e-08
8.48035e-06
-7.71138e-09
8.4992e-06
-2.04566e-10
8.51952e-06
7.25615e-09
8.54114e-06
1.51639e-08
8.56395e-06
2.31106e-08
8.58786e-06
3.09066e-08
8.61292e-06
3.82356e-08
8.63907e-06
4.51242e-08
8.66622e-06
5.15183e-08
8.69425e-06
5.73956e-08
8.7231e-06
6.27139e-08
8.75267e-06
6.74202e-08
7.15255e-08
8.78298e-06
7.32186e-06
-1.32525e-08
7.33409e-06
-3.3797e-08
7.34556e-06
-3.50092e-08
7.3577e-06
-3.16531e-08
7.3718e-06
-2.8193e-08
7.3876e-06
-2.35064e-08
7.40482e-06
-1.74261e-08
7.42302e-06
-1.09427e-08
7.44255e-06
-4.37123e-09
7.46319e-06
2.47177e-09
7.48463e-06
9.47042e-09
7.50696e-06
1.58996e-08
7.5302e-06
2.18881e-08
7.5543e-06
2.74188e-08
7.5791e-06
3.25912e-08
7.60454e-06
3.72783e-08
7.6305e-06
4.14587e-08
4.52228e-08
7.6568e-06
6.37373e-06
-1.69173e-08
6.38828e-06
-4.83441e-08
6.40057e-06
-4.73061e-08
6.41273e-06
-4.38076e-08
6.42647e-06
-4.19352e-08
6.44135e-06
-3.83889e-08
6.45719e-06
-3.32657e-08
6.47394e-06
-2.76871e-08
6.49154e-06
-2.19716e-08
6.51004e-06
-1.60251e-08
6.52952e-06
-1.00138e-08
6.54955e-06
-4.12678e-09
6.57023e-06
1.20644e-09
6.59159e-06
6.05181e-09
6.61347e-06
1.07197e-08
6.63581e-06
1.49294e-08
6.65857e-06
1.87052e-08
2.20473e-08
6.68174e-06
5.5509e-06
-2.2357e-08
5.56584e-06
-6.32832e-08
5.58199e-06
-6.34534e-08
5.59914e-06
-6.09578e-08
5.61739e-06
-6.01886e-08
5.63569e-06
-5.66895e-08
5.65371e-06
-5.12831e-08
5.67145e-06
-4.54265e-08
5.68896e-06
-3.9479e-08
5.70634e-06
-3.34109e-08
5.72368e-06
-2.7353e-08
5.74107e-06
-2.15163e-08
5.75844e-06
-1.61613e-08
5.77573e-06
-1.1238e-08
5.79309e-06
-6.63899e-09
5.81059e-06
-2.56967e-09
5.82831e-06
9.85214e-10
4.03049e-09
5.84633e-06
4.87925e-06
-7.39982e-08
4.91187e-06
-9.59051e-08
4.93878e-06
-9.03638e-08
4.95922e-06
-8.13993e-08
4.97425e-06
-7.52152e-08
4.9851e-06
-6.7545e-08
4.99278e-06
-5.89637e-08
4.99807e-06
-5.07132e-08
5.00166e-06
-4.30657e-08
5.00419e-06
-3.5944e-08
5.0062e-06
-2.93664e-08
5.0081e-06
-2.34133e-08
5.01009e-06
-1.81491e-08
5.01235e-06
-1.34973e-08
5.01508e-06
-9.37493e-09
5.01836e-06
-5.84162e-09
5.02224e-06
-2.89339e-09
-1.11129e-09
5.02738e-06
4.12868e-06
4.03277e-06
3.94241e-06
3.86101e-06
3.78579e-06
3.71825e-06
3.65929e-06
3.60857e-06
3.56551e-06
3.52956e-06
3.5002e-06
3.47678e-06
3.45863e-06
3.44514e-06
3.43576e-06
3.42992e-06
3.42703e-06
3.42592e-06
-6.93347e-07
6.93347e-07
-1.28594e-06
5.92595e-07
-1.75155e-06
4.65604e-07
-1.73138e-06
-2.0168e-08
-1.16252e-06
-5.68863e-07
-1.04456e-07
-1.05806e-06
1.21558e-06
-1.32003e-06
2.61293e-06
-1.39736e-06
3.93617e-06
-1.32324e-06
5.10536e-06
-1.1692e-06
6.08287e-06
-9.7751e-07
6.85291e-06
-7.70033e-07
7.40898e-06
-5.56071e-07
7.74729e-06
-3.38309e-07
7.86318e-06
-1.15895e-07
7.73017e-06
1.33013e-07
7.34209e-06
3.88076e-07
6.70946e-06
6.3263e-07
5.855e-06
8.54469e-07
4.81964e-06
1.03535e-06
3.66984e-06
1.1498e-06
2.50071e-06
1.16913e-06
1.4417e-06
1.05902e-06
6.21476e-07
8.20221e-07
2.63448e-08
5.95132e-07
-4.21922e-07
4.48267e-07
-7.26217e-07
3.04295e-07
-8.35035e-07
1.08817e-07
-7.53622e-07
-8.14124e-08
-4.29267e-07
-3.24355e-07
2.06622e-07
-6.3589e-07
9.92962e-07
-7.8634e-07
1.65706e-06
-6.64093e-07
2.04051e-06
-3.83459e-07
2.15277e-06
-1.12256e-07
2.09068e-06
6.20862e-08
2.01401e-06
7.66774e-08
1.94769e-06
6.63135e-08
1.8299e-06
1.17794e-07
1.55247e-06
2.77429e-07
9.97355e-07
5.55114e-07
1.41238e-07
8.56117e-07
-9.37676e-07
1.07891e-06
-2.14763e-06
1.20995e-06
-3.41491e-06
1.26728e-06
-4.67908e-06
1.26417e-06
-5.89317e-06
1.21409e-06
-7.0234e-06
1.13023e-06
-8.04809e-06
1.02469e-06
-8.9556e-06
9.07508e-07
-9.7419e-06
7.86297e-07
-1.04083e-05
6.66422e-07
-1.09596e-05
5.51319e-07
-1.14026e-05
4.42961e-07
-1.17448e-05
3.42242e-07
-1.19942e-05
2.49402e-07
-1.21589e-05
1.64662e-07
-1.22476e-05
8.86557e-08
-1.22689e-05
2.13843e-08
-1.2238e-05
-3.09595e-08
-1.21638e-05
-7.42005e-08
-1.20524e-05
-1.11372e-07
-1.19078e-05
-1.44579e-07
-1.17329e-05
-1.7494e-07
-1.15298e-05
-2.03119e-07
-1.13002e-05
-2.29618e-07
-1.10453e-05
-2.54889e-07
-1.07659e-05
-2.79378e-07
-1.04624e-05
-3.03528e-07
-1.01346e-05
-3.27767e-07
-9.78212e-06
-3.52477e-07
-9.40416e-06
-3.77957e-07
-8.99979e-06
-4.04372e-07
-8.56809e-06
-4.31699e-07
-8.10841e-06
-4.59677e-07
-7.62065e-06
-4.87768e-07
-7.10549e-06
-5.15155e-07
-6.56472e-06
-5.40767e-07
-6.00136e-06
-5.63366e-07
-5.41969e-06
-5.81669e-07
-4.82518e-06
-5.94511e-07
-4.22418e-06
-6.00994e-07
-3.62356e-06
-6.00622e-07
-3.03022e-06
-5.93343e-07
-2.45069e-06
-5.79526e-07
-1.89082e-06
-5.59869e-07
-1.35558e-06
-5.35243e-07
-8.49294e-07
-5.06286e-07
-3.75286e-07
-4.74009e-07
6.85477e-08
-4.43834e-07
4.79828e-07
-4.1128e-07
8.58838e-07
-3.7901e-07
1.20659e-06
-3.47757e-07
1.52428e-06
-3.17683e-07
1.81332e-06
-2.89048e-07
2.07536e-06
-2.62032e-07
2.31205e-06
-2.36692e-07
2.52506e-06
-2.13015e-07
2.71601e-06
-1.90943e-07
2.88639e-06
-1.70383e-07
3.03761e-06
-1.51216e-07
3.17092e-06
-1.33309e-07
3.28745e-06
-1.16533e-07
3.38815e-06
-1.007e-07
3.47354e-06
-8.5393e-08
3.54378e-06
-7.02339e-08
3.59903e-06
-5.52557e-08
3.63628e-06
-3.72495e-08
3.64644e-06
-1.01565e-08
3.61393e-06
3.25081e-08
3.53802e-06
7.59081e-08
3.42227e-06
1.1575e-07
3.27243e-06
1.49846e-07
3.09968e-06
1.72747e-07
2.91913e-06
1.80547e-07
2.74729e-06
1.71839e-07
2.60005e-06
1.47241e-07
2.48298e-06
1.17066e-07
2.39804e-06
8.49427e-08
2.34397e-06
5.4074e-08
2.31041e-06
3.35615e-08
2.29201e-06
1.84016e-08
2.28328e-06
8.72123e-09
2.28041e-06
2.86971e-09
2.28481e-06
-4.39608e-09
2.29642e-06
-1.16114e-08
2.31558e-06
-1.91595e-08
2.34349e-06
-2.791e-08
2.38195e-06
-3.84607e-08
2.43296e-06
-5.10075e-08
2.49794e-06
-6.49759e-08
2.57566e-06
-7.77269e-08
2.65594e-06
-8.02823e-08
2.71595e-06
-6.00104e-08
2.72205e-06
-6.09683e-09
2.59121e-06
1.30845e-07
2.13893e-06
4.52277e-07
1.18226e-06
9.56674e-07
-1.93229e-07
1.37548e-06
-1.69524e-06
1.50201e-06
-3.0542e-06
1.35896e-06
-4.15741e-06
1.10321e-06
-4.98698e-06
8.29574e-07
-5.5645e-06
5.77515e-07
-5.9201e-06
3.55606e-07
-6.08165e-06
1.61545e-07
-6.08427e-06
2.62432e-09
-5.95856e-06
-1.25711e-07
-5.71862e-06
-2.39937e-07
-5.36928e-06
-3.49338e-07
-4.91288e-06
-4.56406e-07
-4.35215e-06
-5.60727e-07
-3.69199e-06
-6.60162e-07
-2.94095e-06
-7.51038e-07
-2.11269e-06
-8.28265e-07
-1.22786e-06
-8.84828e-07
-3.12162e-07
-9.15696e-07
6.05962e-07
-9.18124e-07
1.49486e-06
-8.88903e-07
2.3339e-06
-8.39034e-07
3.10715e-06
-7.73253e-07
3.804e-06
-6.96849e-07
4.41845e-06
-6.14449e-07
4.94632e-06
-5.27872e-07
5.38834e-06
-4.42016e-07
5.75301e-06
-3.64671e-07
6.00151e-06
-2.48506e-07
6.01209e-06
-1.05792e-08
5.68003e-06
3.32067e-07
5.03036e-06
6.4967e-07
4.17545e-06
8.54908e-07
3.28789e-06
8.87556e-07
2.53445e-06
7.53446e-07
2.02679e-06
5.07661e-07
1.7898e-06
2.36984e-07
1.73889e-06
5.09141e-08
1.77049e-06
-3.16061e-08
1.86072e-06
-9.02267e-08
2.05849e-06
-1.97773e-07
-2.66902e-07
2.3254e-06
-5.66326e-08
7.4998e-07
-1.30147e-07
6.66109e-07
1.86936e-07
1.48521e-07
1.00497e-06
-8.38198e-07
2.15993e-06
-1.72382e-06
3.38782e-06
-2.28595e-06
4.55456e-06
-2.48677e-06
5.57683e-06
-2.41963e-06
6.44546e-06
-2.19186e-06
7.16255e-06
-1.88629e-06
7.7389e-06
-1.55386e-06
8.18824e-06
-1.21937e-06
8.52396e-06
-8.91797e-07
8.75742e-06
-5.71762e-07
8.89906e-06
-2.57541e-07
8.97113e-06
6.09457e-08
8.96184e-06
3.9736e-07
8.83681e-06
7.57667e-07
8.55441e-06
1.13686e-06
8.07548e-06
1.51429e-06
7.37405e-06
1.85123e-06
6.45045e-06
2.09273e-06
5.33408e-06
2.17539e-06
4.09411e-06
2.06019e-06
2.91445e-06
1.77479e-06
1.98591e-06
1.3768e-06
1.36259e-06
9.27615e-07
9.98795e-07
4.72611e-07
9.10837e-07
6.54573e-09
1.12578e-06
-5.39301e-07
1.5491e-06
-1.05921e-06
1.95723e-06
-1.19446e-06
2.17904e-06
-8.85905e-07
2.19685e-06
-4.01275e-07
2.05335e-06
3.12451e-08
1.7507e-06
3.64736e-07
1.1528e-06
6.74585e-07
1.63378e-07
1.05573e-06
-1.20177e-06
1.48295e-06
-2.76822e-06
1.84388e-06
-4.34609e-06
2.13298e-06
-5.8266e-06
2.33663e-06
-7.17667e-06
2.42899e-06
-8.37743e-06
2.41071e-06
-9.41129e-06
2.30114e-06
-1.02721e-05
2.12498e-06
-1.09654e-05
1.90743e-06
-1.1506e-05
1.67082e-06
-1.19141e-05
1.43274e-06
-1.22119e-05
1.20535e-06
-1.24214e-05
9.95789e-07
-1.25622e-05
8.07185e-07
-1.26507e-05
6.398e-07
-1.26998e-05
4.92133e-07
-1.27195e-05
3.61889e-07
-1.27167e-05
2.46623e-07
-1.26961e-05
1.44015e-07
-1.26594e-05
5.19957e-08
-1.26061e-05
-3.19189e-08
-1.25276e-05
-1.09477e-07
-1.24193e-05
-1.82489e-07
-1.22806e-05
-2.501e-07
-1.21125e-05
-3.12604e-07
-1.19169e-05
-3.70602e-07
-1.16952e-05
-4.24796e-07
-1.14489e-05
-4.75934e-07
-1.1179e-05
-5.24812e-07
-1.08861e-05
-5.72274e-07
-1.05704e-05
-6.19192e-07
-1.02317e-05
-6.6643e-07
-9.86944e-06
-7.14779e-07
-9.48252e-06
-7.64873e-07
-9.06981e-06
-8.17086e-07
-8.6301e-06
-8.71409e-07
-8.16243e-06
-9.27342e-07
-7.6664e-06
-9.83804e-07
-7.14244e-06
-1.03911e-06
-6.59219e-06
-1.09102e-06
-6.01861e-06
-1.13694e-06
-5.42611e-06
-1.17416e-06
-4.82041e-06
-1.20022e-06
-4.20818e-06
-1.21322e-06
-3.59665e-06
-1.21215e-06
-2.99307e-06
-1.19693e-06
-2.40418e-06
-1.16842e-06
-1.83579e-06
-1.12825e-06
-1.29258e-06
-1.07846e-06
-7.7769e-07
-1.02118e-06
-2.9267e-07
-9.59029e-07
1.58791e-07
-8.95295e-07
5.77595e-07
-8.30085e-07
9.64214e-07
-7.65628e-07
1.31977e-06
-7.03309e-07
1.64573e-06
-6.43647e-07
1.94374e-06
-5.8706e-07
2.21553e-06
-5.33817e-07
2.46283e-06
-4.83999e-07
2.68738e-06
-4.3756e-07
2.8908e-06
-3.94367e-07
3.07465e-06
-3.54226e-07
3.24033e-06
-3.16902e-07
3.38916e-06
-2.82132e-07
3.52225e-06
-2.49625e-07
3.64059e-06
-2.19039e-07
3.74515e-06
-1.89955e-07
3.8368e-06
-1.61888e-07
3.91584e-06
-1.34289e-07
3.98543e-06
-1.06839e-07
4.05449e-06
-7.92217e-08
4.13405e-06
-4.70553e-08
4.2182e-06
-8.2396e-09
4.30146e-06
3.2491e-08
4.3727e-06
7.86103e-08
4.42413e-06
1.21318e-07
4.45058e-06
1.54094e-07
4.45079e-06
1.71627e-07
4.4254e-06
1.72636e-07
4.37956e-06
1.62904e-07
4.31983e-06
1.44669e-07
4.25239e-06
1.21515e-07
4.18453e-06
1.01424e-07
4.11761e-06
8.53193e-08
4.051e-06
7.53311e-08
3.98319e-06
7.06756e-08
3.91157e-06
6.72278e-08
3.8356e-06
6.43545e-08
3.75592e-06
6.05256e-08
3.6753e-06
5.27122e-08
3.60011e-06
3.67287e-08
3.54132e-06
7.78272e-09
3.51315e-06
-3.6807e-08
3.52663e-06
-9.12086e-08
3.57052e-06
-1.24167e-07
3.5779e-06
-6.73898e-08
3.38e-06
1.918e-07
2.68004e-06
8.30802e-07
1.25743e-06
1.87489e-06
-5.86706e-07
2.80081e-06
-2.28912e-06
3.0779e-06
-3.57775e-06
2.79064e-06
-4.46048e-06
2.24169e-06
-5.02643e-06
1.66915e-06
-5.37288e-06
1.17602e-06
-5.57339e-06
7.78028e-07
-5.67368e-06
4.55898e-07
-5.69681e-06
1.8467e-07
-5.63998e-06
-5.42052e-08
-5.48607e-06
-2.79614e-07
-5.2278e-06
-4.98208e-07
-4.8652e-06
-7.1194e-07
-4.39927e-06
-9.22338e-07
-3.83193e-06
-1.12807e-06
-3.16752e-06
-1.32458e-06
-2.41452e-06
-1.50403e-06
-1.58653e-06
-1.65626e-06
-7.03003e-07
-1.76835e-06
2.09784e-07
-1.82848e-06
1.12116e-06
-1.8295e-06
2.00717e-06
-1.77492e-06
2.8454e-06
-1.67726e-06
3.61977e-06
-1.54762e-06
4.32008e-06
-1.39716e-06
4.94161e-06
-1.23598e-06
5.48528e-06
-1.07154e-06
5.95027e-06
-9.07013e-07
6.32558e-06
-7.39978e-07
6.64284e-06
-5.65767e-07
6.98746e-06
-3.55193e-07
7.35569e-06
-3.6164e-08
7.60073e-06
4.04631e-07
7.59722e-06
8.58411e-07
7.32368e-06
1.1611e-06
6.8469e-06
1.23023e-06
6.23712e-06
1.11745e-06
5.52631e-06
9.47788e-07
4.76344e-06
8.1378e-07
4.04552e-06
6.86316e-07
3.50377e-06
4.51523e-07
3.24214e-06
6.38651e-08
-2.81401e-07
3.25663e-06
2.02289e-07
5.47691e-07
6.7445e-07
1.93948e-07
1.84258e-06
-1.01961e-06
3.22831e-06
-2.22393e-06
4.46688e-06
-2.9624e-06
5.39743e-06
-3.21649e-06
6.04504e-06
-3.13439e-06
6.49167e-06
-2.86626e-06
6.81447e-06
-2.51466e-06
7.06444e-06
-2.13625e-06
7.26834e-06
-1.75777e-06
7.43775e-06
-1.38878e-06
7.57602e-06
-1.03007e-06
7.68275e-06
-6.78488e-07
7.75521e-06
-3.29998e-07
7.79701e-06
1.91429e-08
7.82068e-06
3.73685e-07
7.83616e-06
7.42196e-07
7.83734e-06
1.13568e-06
7.79277e-06
1.55886e-06
7.64553e-06
1.99846e-06
7.32695e-06
2.41131e-06
6.78054e-06
2.72181e-06
6.00041e-06
2.84032e-06
5.07273e-06
2.70247e-06
4.13799e-06
2.31155e-06
3.33426e-06
1.73134e-06
2.75541e-06
1.05146e-06
2.41903e-06
3.4293e-07
2.3536e-06
-4.73871e-07
2.35035e-06
-1.05596e-06
2.16754e-06
-1.01165e-06
1.67865e-06
-3.97022e-07
9.61209e-07
3.1617e-07
-3.21488e-08
1.0246e-06
-1.31617e-06
1.64875e-06
-2.83325e-06
2.19166e-06
-4.42802e-06
2.6505e-06
-5.94317e-06
2.9981e-06
-7.30537e-06
3.20607e-06
-8.45517e-06
3.28279e-06
-9.36329e-06
3.24474e-06
-1.00441e-05
3.1098e-06
-1.05343e-05
2.90096e-06
-1.0878e-05
2.64483e-06
-1.11195e-05
2.36649e-06
-1.12981e-05
2.08601e-06
-1.1444e-05
1.81673e-06
-1.1577e-05
1.56569e-06
-1.17067e-05
1.33511e-06
-1.18352e-05
1.12428e-06
-1.19592e-05
9.31143e-07
-1.20727e-05
7.53319e-07
-1.21692e-05
5.88643e-07
-1.22427e-05
4.354e-07
-1.22884e-05
2.92334e-07
-1.2303e-05
1.58605e-07
-1.22844e-05
3.33725e-08
-1.22329e-05
-8.33605e-08
-1.21497e-05
-1.92765e-07
-1.20373e-05
-2.94891e-07
-1.18973e-05
-3.90025e-07
-1.17313e-05
-4.78605e-07
-1.15407e-05
-5.61241e-07
-1.13268e-05
-6.38718e-07
-1.10907e-05
-7.11994e-07
-1.08333e-05
-7.82178e-07
-1.05551e-05
-8.50508e-07
-1.0256e-05
-9.18318e-07
-9.93545e-06
-9.86963e-07
-9.5925e-06
-1.05773e-06
-9.22569e-06
-1.13169e-06
-8.83324e-06
-1.20954e-06
-8.41326e-06
-1.29139e-06
-7.96402e-06
-1.37658e-06
-7.48435e-06
-1.46348e-06
-6.97402e-06
-1.54943e-06
-6.4342e-06
-1.63084e-06
-5.86772e-06
-1.70343e-06
-5.27918e-06
-1.7627e-06
-4.67486e-06
-1.80453e-06
-4.0623e-06
-1.82579e-06
-3.44966e-06
-1.82478e-06
-2.84512e-06
-1.80147e-06
-2.25611e-06
-1.75743e-06
-1.68895e-06
-1.69542e-06
-1.14842e-06
-1.61899e-06
-6.37577e-07
-1.53202e-06
-1.58462e-07
-1.43814e-06
2.87204e-07
-1.34096e-06
6.99482e-07
-1.24236e-06
1.07947e-06
-1.14561e-06
1.4284e-06
-1.05224e-06
1.74791e-06
-9.63157e-07
2.03981e-06
-8.78961e-07
2.30595e-06
-7.99964e-07
2.54818e-06
-7.2623e-07
2.76827e-06
-6.57645e-07
2.96788e-06
-5.93977e-07
3.14857e-06
-5.34915e-07
3.31176e-06
-4.80097e-07
3.45876e-06
-4.29133e-07
3.59074e-06
-3.81606e-07
3.70878e-06
-3.37071e-07
3.81389e-06
-2.95068e-07
3.9071e-06
-2.55095e-07
3.98923e-06
-2.16425e-07
4.06074e-06
-1.78344e-07
4.12202e-06
-1.40501e-07
4.17696e-06
-1.02003e-07
4.23123e-06
-6.25023e-08
4.28724e-06
-2.35227e-08
4.34889e-06
1.69628e-08
4.41513e-06
5.50743e-08
4.48083e-06
8.83926e-08
4.53867e-06
1.13789e-07
4.58188e-06
1.29426e-07
4.60846e-06
1.3632e-07
4.61695e-06
1.36183e-07
4.60726e-06
1.3121e-07
4.58374e-06
1.2494e-07
4.54947e-06
1.19591e-07
4.50805e-06
1.16752e-07
4.46194e-06
1.16783e-07
4.41058e-06
1.18588e-07
4.35299e-06
1.21938e-07
4.28718e-06
1.26338e-07
4.21125e-06
1.28646e-07
4.12668e-06
1.21293e-07
4.04184e-06
9.26303e-08
3.97072e-06
3.43069e-08
3.91979e-06
-4.02775e-08
3.84576e-06
-5.01406e-08
3.61351e-06
1.64862e-07
2.96293e-06
8.42386e-07
1.67984e-06
2.11389e-06
-5.0182e-08
3.60491e-06
-1.60094e-06
4.35157e-06
-2.67928e-06
4.15624e-06
-3.36805e-06
3.47941e-06
-3.83954e-06
2.71318e-06
-4.20631e-06
2.03592e-06
-4.50581e-06
1.47552e-06
-4.73478e-06
1.007e-06
-4.87982e-06
6.00937e-07
-4.929e-06
2.33846e-07
-4.87867e-06
-1.04533e-07
-4.72779e-06
-4.30489e-07
-4.47788e-06
-7.48121e-07
-4.1287e-06
-1.06112e-06
-3.68016e-06
-1.37087e-06
-3.13321e-06
-1.67502e-06
-2.4913e-06
-1.96649e-06
-1.7624e-06
-2.23293e-06
-9.59365e-07
-2.45929e-06
-1.02811e-07
-2.62491e-06
7.78615e-07
-2.70991e-06
1.65742e-06
-2.7083e-06
2.50934e-06
-2.62684e-06
3.31262e-06
-2.48054e-06
4.05189e-06
-2.28689e-06
4.71817e-06
-2.06345e-06
5.30777e-06
-1.82557e-06
5.82098e-06
-1.58476e-06
6.26105e-06
-1.34708e-06
6.63166e-06
-1.11059e-06
6.93257e-06
-8.66681e-07
7.17725e-06
-5.99872e-07
7.42898e-06
-2.87889e-07
7.7478e-06
8.58044e-08
8.10111e-06
5.05102e-07
8.37289e-06
8.89321e-07
8.45495e-06
1.14816e-06
8.2931e-06
1.2793e-06
7.87721e-06
1.36368e-06
7.24153e-06
1.44947e-06
6.46106e-06
1.46678e-06
5.62055e-06
1.29204e-06
4.82373e-06
8.60687e-07
3.27361e-07
4.21496e-06
2.40471e-07
3.0722e-07
1.55831e-06
-1.12389e-06
3.18291e-06
-2.6442e-06
4.43044e-06
-3.47146e-06
5.16265e-06
-3.69461e-06
5.51619e-06
-3.57003e-06
5.66823e-06
-3.28643e-06
5.74343e-06
-2.94146e-06
5.80525e-06
-2.57648e-06
5.87658e-06
-2.20759e-06
5.95936e-06
-1.84055e-06
6.04636e-06
-1.47577e-06
6.12747e-06
-1.11118e-06
6.19381e-06
-7.44834e-07
6.24057e-06
-3.76753e-07
6.26789e-06
-8.17767e-09
6.28031e-06
3.61264e-07
6.28907e-06
7.33436e-07
6.30923e-06
1.11552e-06
6.3485e-06
1.51959e-06
6.38909e-06
1.95788e-06
6.377e-06
2.42341e-06
6.2347e-06
2.8641e-06
5.89826e-06
3.17676e-06
5.35756e-06
3.24317e-06
4.67869e-06
2.99042e-06
3.97475e-06
2.43528e-06
3.33307e-06
1.69314e-06
2.87652e-06
7.99483e-07
2.55555e-06
-1.52907e-07
1.95886e-06
-4.59261e-07
8.62712e-07
8.44945e-08
-5.40532e-07
1.00622e-06
-2.09087e-06
1.8665e-06
-3.65199e-06
2.58573e-06
-5.16579e-06
3.16255e-06
-6.55307e-06
3.57895e-06
-7.73188e-06
3.82931e-06
-8.65852e-06
3.92474e-06
-9.34003e-06
3.88759e-06
-9.80547e-06
3.74822e-06
-1.00981e-05
3.53741e-06
-1.02711e-05
3.28275e-06
-1.03775e-05
3.00741e-06
-1.04613e-05
2.7286e-06
-1.05516e-05
2.45673e-06
-1.0662e-05
2.19646e-06
-1.07939e-05
1.94865e-06
-1.09406e-05
1.71239e-06
-1.10919e-05
1.48638e-06
-1.12372e-05
1.26958e-06
-1.13675e-05
1.06147e-06
-1.14761e-05
8.61864e-07
-1.15583e-05
6.70869e-07
-1.16116e-05
4.8868e-07
-1.16347e-05
3.1551e-07
-1.16277e-05
1.51546e-07
-1.15912e-05
-3.0963e-09
-1.15261e-05
-1.48478e-07
-1.14341e-05
-2.84729e-07
-1.1317e-05
-4.1199e-07
-1.11765e-05
-5.30523e-07
-1.10143e-05
-6.40796e-07
-1.08321e-05
-7.4352e-07
-1.06311e-05
-8.3967e-07
-1.04126e-05
-9.30491e-07
-1.01773e-05
-1.01748e-06
-9.92544e-06
-1.10238e-06
-9.65669e-06
-1.18707e-06
-9.37012e-06
-1.27354e-06
-9.06411e-06
-1.36374e-06
-8.73642e-06
-1.45938e-06
-8.38426e-06
-1.5617e-06
-8.0045e-06
-1.67115e-06
-7.59401e-06
-1.78706e-06
-7.15016e-06
-1.90733e-06
-6.67136e-06
-2.02823e-06
-6.15772e-06
-2.14449e-06
-5.61151e-06
-2.24965e-06
-5.03742e-06
-2.33679e-06
-4.44246e-06
-2.39949e-06
-3.8354e-06
-2.43285e-06
-3.22591e-06
-2.43426e-06
-2.62365e-06
-2.40373e-06
-2.03731e-06
-2.34377e-06
-1.47402e-06
-2.25871e-06
-9.39011e-07
-2.154e-06
-4.35578e-07
-2.03545e-06
3.42851e-08
-1.90801e-06
4.69494e-07
-1.77617e-06
8.71025e-07
-1.64389e-06
1.24001e-06
-1.5146e-06
1.57801e-06
-1.39024e-06
1.88692e-06
-1.27206e-06
2.16872e-06
-1.16077e-06
2.42543e-06
-1.05667e-06
2.65895e-06
-9.59754e-07
2.87111e-06
-8.69798e-07
3.06356e-06
-7.86437e-07
3.23787e-06
-7.09223e-07
3.39543e-06
-6.37657e-07
3.53752e-06
-5.7122e-07
3.66529e-06
-5.0938e-07
3.77982e-06
-4.51595e-07
3.88206e-06
-3.97311e-07
3.97292e-06
-3.45953e-07
4.05339e-06
-2.96892e-07
4.12462e-06
-2.49581e-07
4.18775e-06
-2.03628e-07
4.24415e-06
-1.58399e-07
4.29516e-06
-1.13512e-07
4.34117e-06
-6.95388e-08
4.38493e-06
-2.67966e-08
4.42733e-06
1.26774e-08
4.46844e-06
4.72804e-08
4.50677e-06
7.54563e-08
4.53965e-06
9.65491e-08
4.56472e-06
1.11254e-07
4.57994e-06
1.20959e-07
4.58408e-06
1.2707e-07
4.5776e-06
1.31423e-07
4.5616e-06
1.35586e-07
4.53802e-06
1.40339e-07
4.50905e-06
1.45746e-07
4.47585e-06
1.5179e-07
4.43792e-06
1.59868e-07
4.39232e-06
1.71936e-07
4.3347e-06
1.8627e-07
4.26369e-06
1.92305e-07
4.18521e-06
1.71109e-07
4.10667e-06
1.12847e-07
4.00717e-06
5.92222e-08
3.79814e-06
1.58886e-07