/*--------------------------------*- C++ -*----------------------------------*\
  =========                 |
  \\      /  F ield         | OpenFOAM: The Open Source CFD Toolbox
   \\    /   O peration     | Website:  https://openfoam.org
    \\  /    A nd           | Version:  9
     \\/     M anipulation  |
\*---------------------------------------------------------------------------*/
FoamFile
{
    format      ascii;
    class       volScalarField;
    location    "0.014";
    object      nut;
}
// * * * * * * * * * * * * * * * * * * * * * * * * * * * * * * * * * * * * * //

dimensions      [0 2 -1 0 0 0 0];

internalField   nonuniform List<scalar> 
12225
(
0
0
0
0
0
0
0
0
0
0
0
0
0
0
0
0
0
0
0
0
0
0
0
0
0
0
0
0
0
0
0
0
0
0
0
0
0
0
0
0
0
0
0
0
0
0
0
0
0
0
0
0
0
0
2.31226e-07
2.4224e-09
0
0
3.52175e-09
6.14043e-09
2.93178e-09
0
0
0
0
0
0
0
0
3.23191e-11
7.31755e-10
0
4.84992e-07
4.81379e-07
0
0
0
8.35361e-07
7.05226e-07
2.85174e-07
1.17901e-07
0
0
0
0
0
4.18757e-09
3.65749e-08
2.54751e-08
2.2381e-08
1.91727e-07
0
0
0
0
4.02784e-07
2.68705e-07
2.06541e-07
1.52546e-07
6.3196e-08
0
0
0
0
1.39404e-07
4.42411e-07
3.72771e-07
3.0973e-07
0
0
0
0
0
0
0
0
2.09367e-07
3.3921e-07
3.50147e-07
3.10109e-07
2.80672e-07
2.22032e-07
1.45426e-07
1.18649e-07
1.30414e-07
1.57979e-07
0
0
0
0
0
0
0
0
2.382e-07
5.84973e-07
6.06418e-07
4.27626e-07
2.18994e-07
1.18909e-07
8.27284e-08
7.00689e-08
6.76224e-08
5.99493e-08
0
0
0
4.89628e-07
0
3.0548e-08
0
0
7.79111e-08
1.35217e-07
1.33907e-07
1.63028e-07
1.99479e-07
1.88049e-07
1.40749e-07
8.48498e-08
2.59561e-08
0
0
0
3.42003e-08
2.83755e-07
1.1215e-06
1.05626e-06
2.05731e-07
3.55751e-08
0
0
7.97964e-08
3.76527e-07
3.25891e-07
2.60518e-07
1.90478e-07
9.98295e-08
0
0
0
0
0
2.83157e-07
1.18371e-06
9.33132e-07
2.65586e-07
0
0
0
1.91795e-07
3.23664e-07
2.13153e-07
1.24607e-07
5.12497e-08
0
0
0
9.52202e-07
4.37373e-08
0
1.39523e-07
7.12761e-07
2.652e-07
0
0
0
0
1.91659e-07
2.40731e-07
1.48928e-07
9.75464e-08
6.64996e-08
3.63495e-08
0
0
1.38842e-06
8.14533e-07
0
4.06884e-07
5.14526e-07
1.09286e-08
0
0
0
2.14126e-07
7.67443e-07
8.91241e-07
6.46141e-07
3.59913e-07
2.30275e-07
1.54111e-07
4.88093e-08
0
1.43093e-06
1.17367e-06
1.68999e-06
1.44945e-06
0
0
0
0
3.71255e-07
1.07821e-06
1.23942e-06
1.28508e-06
9.5679e-07
1.53432e-07
0
0
1.00949e-07
6.83992e-08
1.35231e-06
1.07504e-06
1.43985e-06
1.67908e-06
0
0
0
4.7657e-07
1.32352e-06
1.35992e-06
1.43381e-06
1.58712e-06
3.76735e-07
0
0
8.9996e-09
1.45077e-07
1.69002e-07
1.46285e-06
1.15551e-06
1.33975e-06
1.60856e-06
5.7686e-07
8.05592e-07
1.86723e-06
1.99774e-06
9.44672e-07
3.18172e-07
1.11537e-07
0
0
0
0
9.64658e-08
1.79475e-07
1.96558e-07
1.21551e-06
6.39299e-07
1.10457e-06
2.62636e-06
1.99878e-06
2.77029e-06
3.93117e-06
2.22214e-06
4.13224e-08
0
0
0
0
0
0
0
3.87301e-08
1.43731e-07
4.19292e-08
0
0
0
0
0
0
0
0
0
0
0
0
0
0
0
0
0
0
0
6.03031e-07
0
0
0
0
0
0
0
0
0
3.58901e-08
4.97288e-07
2.64147e-08
0
0
0
0
9.68636e-08
1.28502e-07
0
0
1.27348e-06
0
0
0
0
2.86629e-07
0
1.23831e-07
4.1651e-07
1.43882e-08
0
0
0
0
2.02673e-07
0
0
0
0
0
0
0
2.15348e-07
5.60267e-07
4.06032e-07
5.00053e-08
0
0
0
0
0
3.04467e-07
4.06996e-07
0
0
0
0
0
0
0
1.64206e-07
4.46364e-07
1.11101e-07
0
0
0
0
0
1.57541e-07
0
0
0
0
0
0
0
0
4.53565e-07
5.31301e-07
2.33702e-07
0
0
0
0
0
0
8.17887e-07
0
0
0
0
0
0
0
0
0
1.04515e-07
1.79511e-07
5.92807e-08
0
0
0
0
0
0
0
0
0
0
0
0
0
0
0
0
0
0
0
0
0
0
0
4.25408e-07
0
0
0
0
0
0
0
0
0
0
0
0
0
0
0
0
0
6.6905e-08
0
0
0
0
0
0
0
0
6.73406e-10
2.21792e-09
2.29834e-09
1.7681e-09
1.46117e-09
1.77127e-09
2.64153e-09
3.55879e-09
4.04983e-09
3.55909e-09
0
0
0
0
0
0
0
0
3.49872e-12
1.10859e-10
1.29312e-10
1.29192e-10
1.51626e-10
2.17678e-10
3.12557e-10
3.98241e-10
4.51599e-10
4.08318e-10
0
0
0
0
0
0
0
0
0
0
0
0
0
0
0
0
0
0
0
0
0
0
0
0
0
0
0
0
0
0
0
0
0
0
0
0
1.55987e-09
0
0
0
0
0
0
0
0
0
2.90617e-07
3.19663e-06
7.76506e-06
1.35605e-05
1.85494e-05
2.03712e-05
1.86974e-05
1.49086e-05
1.05515e-05
6.68659e-06
3.73426e-06
1.8449e-06
7.53662e-07
1.77287e-07
0
0
0
4.25844e-09
9.95013e-08
1.74957e-07
2.24959e-07
2.46548e-07
2.50361e-07
2.32344e-07
2.07659e-07
1.78712e-07
1.43559e-07
1.11402e-07
8.59199e-08
5.73161e-08
3.95192e-08
2.42277e-08
1.27616e-08
3.50803e-09
0
0
0
0
0
0
0
0
0
0
0
0
0
0
0
0
0
0
0
0
0
0
0
0
0
0
0
0
0
0
0
0
0
0
0
0
0
0
0
0
0
0
0
0
0
0
0
0
0
0
0
0
0
0
0
0
0
0
0
0
0
0
0
0
0
0
0
0
0
0
0
0
0
0
0
0
0
0
0
0
0
0
0
0
0
0
0
0
0
0
0
0
0
0
0
0
0
0
0
0
0
0
0
0
0
0
0
0
0
0
0
0
0
0
0
0
0
0
0
0
0
0
0
0
0
0
0
0
0
0
0
0
0
0
0
0
0
0
0
0
0
0
0
9.94792e-08
5.81265e-07
1.06817e-06
1.5259e-06
1.91814e-06
2.21126e-06
2.38195e-06
2.43232e-06
2.39386e-06
2.292e-06
2.15562e-06
2.00257e-06
1.8223e-06
1.60931e-06
1.34565e-06
1.02453e-06
6.88011e-07
3.89803e-07
1.90274e-07
9.41557e-08
7.54545e-08
9.48467e-08
1.22382e-07
1.42591e-07
1.52991e-07
1.56455e-07
1.48567e-07
1.40738e-07
1.2893e-07
1.15567e-07
1.01825e-07
8.75055e-08
7.25228e-08
5.70617e-08
4.09701e-08
2.42193e-08
7.0719e-09
0
0
0
0
0
0
0
0
0
0
0
0
0
0
0
0
0
0
0
0
0
0
0
0
0
0
5.78035e-09
8.5173e-08
4.44007e-08
0
0
0
0
0
0
0
0
0
0
0
0
0
0
0
0
0
0
0
0
0
0
0
0
0
0
0
0
0
0
0
0
0
0
0
0
0
0
0
0
0
0
0
0
0
0
0
0
0
0
0
0
0
0
0
0
0
0
0
0
0
0
0
0
0
0
0
0
0
0
0
0
0
0
0
0
0
0
0
0
0
0
0
0
0
0
0
0
0
0
0
0
0
0
0
0
0
0
0
0
0
0
0
0
0
0
0
0
0
0
0
9.72454e-08
3.14827e-07
5.07045e-07
6.74665e-07
8.36831e-07
1.00589e-06
1.17715e-06
1.33111e-06
1.4426e-06
1.50203e-06
1.52418e-06
1.50169e-06
1.42976e-06
1.32506e-06
1.22007e-06
1.13667e-06
1.06441e-06
9.54464e-07
7.94779e-07
6.15258e-07
4.64308e-07
3.21107e-07
2.00495e-07
1.03166e-07
3.83111e-08
1.22227e-08
2.24194e-08
5.78757e-08
1.03387e-07
1.46826e-07
1.7958e-07
1.98177e-07
2.00971e-07
1.8977e-07
1.68225e-07
1.40207e-07
1.07642e-07
7.4079e-08
4.16393e-08
1.09455e-08
0
0
0
0
0
0
0
0
0
0
0
0
0
0
0
0
0
0
0
0
2.98129e-09
5.33893e-08
9.4179e-08
1.25584e-07
1.46971e-07
1.61195e-07
1.72711e-07
1.72302e-07
1.47348e-07
1.04085e-07
5.29304e-08
0
0
0
0
0
0
0
0
0
0
0
0
0
0
0
0
0
0
0
0
0
0
0
0
0
0
0
0
0
0
0
0
0
0
0
0
0
0
0
0
0
0
0
0
0
0
0
0
0
0
0
0
0
0
0
0
0
0
0
0
0
0
0
0
0
0
0
0
0
0
0
0
0
0
0
0
0
0
0
0
0
0
0
0
0
0
0
0
0
0
0
0
0
0
0
0
0
0
0
0
0
0
0
0
0
0
0
0
0
0
0
0
0
0
3.23935e-08
2.00928e-07
3.64038e-07
5.02901e-07
6.09381e-07
6.76794e-07
6.93341e-07
6.75453e-07
6.19478e-07
5.37977e-07
4.25329e-07
2.87345e-07
1.15967e-07
0
0
0
0
0
0
0
0
0
0
0
0
0
0
0
0
0
0
7.72556e-08
2.49329e-07
9.32247e-08
0
0
0
0
0
0
0
0
0
1.17121e-07
2.59165e-07
3.97887e-07
5.2072e-07
6.11166e-07
6.59195e-07
6.72773e-07
6.62275e-07
6.30316e-07
5.89494e-07
5.41152e-07
4.80101e-07
4.19417e-07
3.63139e-07
3.13464e-07
2.70286e-07
2.34382e-07
2.09663e-07
1.95274e-07
1.77893e-07
1.5462e-07
1.32884e-07
1.15724e-07
1.01529e-07
8.86664e-08
7.62972e-08
6.47774e-08
5.45362e-08
4.53057e-08
3.69932e-08
2.95045e-08
2.26752e-08
1.63796e-08
1.05028e-08
4.88267e-09
0
0
0
0
0
0
0
0
0
0
0
0
0
0
0
0
0
0
0
0
0
0
0
0
3.93947e-11
8.76127e-11
1.05656e-10
1.06332e-10
9.77165e-11
8.49721e-11
7.09105e-11
5.71527e-11
4.49085e-11
3.47376e-11
2.66187e-11
2.02264e-11
1.52379e-11
1.14175e-11
8.54437e-12
6.3885e-12
4.75953e-12
3.53195e-12
2.6246e-12
1.96972e-12
1.49981e-12
1.15422e-12
8.89055e-13
6.79597e-13
5.14232e-13
3.86504e-13
2.9022e-13
2.18529e-13
1.64915e-13
1.24246e-13
9.30068e-14
6.89445e-14
5.05561e-14
3.67079e-14
2.64534e-14
1.89787e-14
1.36021e-14
9.77228e-15
7.06404e-15
5.15614e-15
3.81841e-15
2.88194e-15
2.22986e-15
1.77218e-15
1.45145e-15
1.21774e-15
1.04764e-15
9.08856e-16
7.99501e-16
6.88785e-16
5.95057e-16
4.73193e-16
3.70448e-16
2.05538e-16
7.23179e-17
0
0
0
0
0
0
0
0
0
0
0
0
0
0
0
0
0
0
0
0
0
0
0
0
0
0
0
0
0
0
0
0
0
0
0
0
0
0
0
0
0
0
0
0
0
0
0
0
0
1.53775e-07
3.1296e-07
5.02839e-07
7.7531e-07
1.17914e-06
1.72398e-06
2.13369e-06
1.03438e-06
0
0
0
0
0
0
0
0
0
0
0
0
0
0
0
2.31767e-07
4.77077e-07
6.25933e-07
6.89781e-07
6.72269e-07
5.8947e-07
4.99031e-07
4.14738e-07
3.45534e-07
2.9198e-07
2.53622e-07
2.29378e-07
2.09532e-07
1.8235e-07
1.52996e-07
1.28468e-07
1.08792e-07
9.27738e-08
8.00382e-08
6.99658e-08
6.15676e-08
5.37163e-08
4.58974e-08
3.82756e-08
3.14997e-08
2.55122e-08
2.02815e-08
1.57478e-08
1.18212e-08
8.4224e-09
5.48385e-09
2.88935e-09
5.39131e-10
0
0
0
0
0
0
0
0
0
0
0
0
0
0
0
0
0
0
0
0
0
0
0
0
0
0
0
0
0
0
0
0
0
0
0
0
0
0
1.3275e-11
1.95686e-11
2.01124e-11
1.80414e-11
1.50461e-11
1.1984e-11
9.2489e-12
6.98545e-12
5.2009e-12
3.83783e-12
2.81609e-12
2.05855e-12
1.50041e-12
1.09131e-12
7.93121e-13
5.77101e-13
4.21392e-13
3.09318e-13
2.28517e-13
1.70214e-13
1.28139e-13
9.77326e-14
7.56524e-14
5.94259e-14
4.73738e-14
3.82962e-14
3.13745e-14
2.59815e-14
2.17553e-14
1.82761e-14
1.54206e-14
1.29112e-14
1.06937e-14
8.59347e-15
6.58402e-15
4.58209e-15
2.40737e-15
6.59235e-16
0
0
0
1.42797e-15
0
1.17741e-13
2.50734e-13
2.97198e-12
5.60502e-12
6.75854e-11
2.28302e-12
1.10461e-10
0
0
0
0
0
0
0
0
0
0
0
0
0
0
0
0
0
0
0
0
0
0
0
0
0
0
0
0
0
0
0
0
1.5093e-07
3.93658e-07
4.30803e-07
3.37973e-07
2.12154e-07
1.33885e-07
1.64044e-07
3.57545e-07
7.41068e-07
1.2335e-06
1.40641e-06
3.78133e-07
0
0
0
0
0
0
0
0
0
0
0
0
0
0
0
0
0
5.95711e-08
4.67713e-07
6.73544e-07
7.04747e-07
6.12035e-07
4.91575e-07
3.93962e-07
3.25107e-07
2.81645e-07
2.52599e-07
2.2507e-07
1.95309e-07
1.66416e-07
1.39507e-07
1.1497e-07
9.4047e-08
7.70228e-08
6.37282e-08
5.38873e-08
4.68529e-08
4.20703e-08
3.81642e-08
3.36347e-08
2.81951e-08
2.26714e-08
1.75908e-08
1.31441e-08
9.42551e-09
6.36588e-09
3.83475e-09
1.72294e-09
0
0
0
0
0
0
0
0
0
0
0
0
0
0
0
0
0
0
0
0
0
0
0
0
0
0
0
0
0
0
0
0
0
0
0
0
0
0
0
0
0
0
0
0
0
0
0
0
0
0
0
0
0
0
0
0
0
0
0
0
0
0
0
0
0
0
0
0
0
0
2.2453e-13
4.5261e-13
6.60922e-13
9.55747e-13
1.3808e-12
2.17555e-12
3.35516e-12
5.65041e-12
8.78977e-12
1.51876e-11
2.26176e-11
3.87085e-11
5.08201e-11
8.2133e-11
7.55802e-11
1.35588e-10
1.41819e-11
3.28862e-11
0
0
0
0
0
0
0
0
0
0
0
0
0
0
0
0
0
0
0
0
0
0
0
0
0
0
0
0
0
0
3.38295e-08
4.25689e-07
4.54913e-07
2.05943e-07
0
0
0
0
0
0
1.16459e-07
7.01848e-07
1.09236e-06
1.06184e-06
9.78915e-07
1.23551e-06
1.59559e-06
1.84282e-06
1.82186e-06
1.56154e-06
1.16383e-06
6.25133e-07
4.67199e-08
0
0
0
0
0
0
0
0
0
0
2.92454e-07
5.79081e-07
6.20774e-07
5.28612e-07
4.25386e-07
3.50829e-07
3.02172e-07
2.62567e-07
2.25444e-07
1.9587e-07
1.72966e-07
1.50955e-07
1.27931e-07
1.04117e-07
8.19828e-08
6.38304e-08
4.97986e-08
3.9481e-08
3.19011e-08
2.67251e-08
2.39859e-08
2.26875e-08
2.09993e-08
1.79133e-08
1.40123e-08
1.00868e-08
6.60686e-09
3.78962e-09
1.60206e-09
0
0
0
0
0
0
0
0
0
0
0
0
0
0
0
0
0
0
0
0
0
0
0
0
0
0
0
0
0
0
0
0
0
0
0
0
0
0
0
0
0
0
0
0
0
0
0
0
0
0
0
0
0
0
0
0
0
0
0
0
0
0
0
0
0
0
0
0
0
6.76424e-14
2.37677e-13
3.88988e-13
5.33299e-13
7.5123e-13
1.05935e-12
1.64847e-12
2.51813e-12
4.21638e-12
6.53149e-12
1.1114e-11
1.63588e-11
2.69569e-11
3.43897e-11
5.41895e-11
4.52984e-11
6.52823e-11
0
0
0
0
0
0
0
0
0
0
0
0
0
0
0
0
0
0
0
0
0
0
0
0
0
0
0
0
0
0
0
1.18552e-07
4.96925e-07
4.39813e-07
4.87708e-08
0
0
0
0
0
0
7.6135e-07
2.42223e-06
4.20904e-06
4.97928e-06
3.2643e-06
3.35903e-07
0
0
8.59335e-07
1.86267e-06
2.45234e-06
2.78693e-06
2.64814e-06
2.42783e-06
1.85286e-06
1.16058e-06
2.22413e-07
0
0
0
0
0
0
0
0
2.24383e-07
4.78079e-07
4.83789e-07
4.17372e-07
3.58579e-07
3.11525e-07
2.61482e-07
2.14826e-07
1.80669e-07
1.58477e-07
1.44526e-07
1.31109e-07
1.13659e-07
9.32618e-08
7.21666e-08
5.3532e-08
3.92908e-08
2.90889e-08
2.17235e-08
1.60615e-08
1.25395e-08
1.14797e-08
1.21041e-08
1.22935e-08
1.06887e-08
7.91185e-09
4.92169e-09
2.34496e-09
3.93388e-10
0
0
0
0
0
0
0
0
0
0
0
0
0
0
0
0
0
0
0
0
0
0
0
0
0
0
0
0
0
0
0
0
0
0
0
0
0
0
0
0
0
0
0
0
0
0
0
0
0
0
0
0
0
0
0
0
0
0
0
0
0
0
0
0
0
0
0
0
0
1.38002e-13
2.6691e-13
3.87559e-13
5.56946e-13
7.87707e-13
1.21226e-12
1.83669e-12
3.01257e-12
4.61416e-12
7.58565e-12
1.09267e-11
1.69373e-11
2.06538e-11
3.04994e-11
2.17658e-11
1.97624e-11
0
0
0
0
0
0
0
0
0
0
0
0
0
0
0
0
0
0
0
0
0
0
0
0
0
0
0
0
0
0
1.11462e-08
4.04167e-07
3.92724e-07
0
0
0
0
0
0
5.40755e-08
1.87852e-06
4.93804e-06
9.6194e-06
1.59186e-05
2.18878e-05
1.31798e-05
0
0
0
0
0
0
9.01715e-07
1.38784e-06
1.56813e-06
1.57996e-06
1.5298e-06
1.37874e-06
1.11487e-06
5.4731e-07
0
0
0
0
0
0
0
2.10214e-07
3.78184e-07
3.79894e-07
3.40914e-07
2.93277e-07
2.43082e-07
1.98548e-07
1.63593e-07
1.3747e-07
1.18961e-07
1.08187e-07
1.01791e-07
9.27397e-08
7.88536e-08
6.18221e-08
4.41877e-08
2.93793e-08
1.88702e-08
1.1976e-08
6.99262e-09
3.31936e-09
1.60328e-09
2.3705e-09
4.46598e-09
5.55886e-09
4.66777e-09
2.69653e-09
6.58645e-10
0
0
0
0
0
0
0
0
0
0
0
0
0
0
0
0
0
0
0
0
0
0
0
0
0
0
0
0
0
0
0
0
0
0
0
0
0
0
0
0
0
0
0
0
0
0
0
0
0
0
0
0
0
0
0
0
0
0
0
0
0
0
0
0
0
0
0
0
0
5.92841e-14
1.67108e-13
2.64124e-13
3.87808e-13
5.48962e-13
8.30644e-13
1.24222e-12
1.98151e-12
2.97955e-12
4.68826e-12
6.5266e-12
9.35044e-12
1.07342e-11
1.1793e-11
7.31599e-12
1.73934e-13
0
0
0
0
0
0
0
0
0
0
0
0
0
0
0
0
0
0
0
0
0
0
0
0
0
0
0
0
0
0
1.40038e-07
2.6964e-07
0
0
0
0
0
0
1.26513e-07
1.79888e-06
4.88089e-06
1.0052e-05
1.80168e-05
2.8977e-05
4.16711e-05
2.64809e-05
0
0
0
0
0
0
4.95468e-07
1.44093e-06
1.50836e-06
1.32774e-06
1.02114e-06
7.44811e-07
6.71222e-07
8.86803e-07
1.00925e-06
5.89469e-07
0
0
0
0
0
0
0
1.88373e-07
2.63519e-07
2.45287e-07
2.04233e-07
1.68364e-07
1.40049e-07
1.16675e-07
9.77998e-08
8.34869e-08
7.40419e-08
6.96361e-08
6.6799e-08
6.09115e-08
4.99831e-08
3.59391e-08
2.13867e-08
9.50823e-09
1.98255e-09
0
0
0
0
0
5.05832e-10
1.42954e-09
6.25967e-10
0
0
0
0
0
0
0
0
0
0
0
0
0
0
0
0
0
0
0
0
0
0
0
0
0
0
0
0
0
0
0
0
0
0
0
0
0
0
0
0
0
0
0
0
0
0
0
0
0
0
0
0
0
0
0
0
0
0
0
0
0
0
0
0
0
0
0
0
0
0
7.9855e-14
1.55838e-13
2.41088e-13
3.43018e-13
5.08119e-13
7.42816e-13
1.14169e-12
1.66236e-12
2.46864e-12
3.23194e-12
4.39885e-12
4.03603e-12
3.51789e-12
0
0
0
0
0
0
0
0
0
0
0
0
0
0
0
0
0
0
0
0
0
0
0
0
0
0
0
0
0
0
0
0
0
0
0
0
0
0
0
1.3759e-08
9.06972e-07
2.7659e-06
6.13061e-06
1.09026e-05
1.5873e-05
1.8598e-05
1.45042e-05
0
0
0
0
0
0
0
0
2.13207e-07
1.16218e-06
1.21247e-06
1.05981e-06
7.3044e-07
2.63326e-07
5.47373e-08
4.65691e-07
1.00042e-06
6.43794e-07
0
0
0
0
0
0
0
0
1.26488e-07
1.38026e-07
1.16951e-07
9.89487e-08
8.64362e-08
7.48263e-08
6.34433e-08
5.39604e-08
4.72078e-08
4.34476e-08
4.16328e-08
3.92528e-08
3.40505e-08
2.55872e-08
1.49822e-08
3.3675e-09
0
0
0
0
0
0
0
0
0
0
0
0
0
0
0
0
0
0
0
0
0
0
0
0
0
0
0
0
0
0
0
0
0
0
0
0
0
0
0
0
0
0
0
0
0
0
0
0
0
0
0
0
0
0
0
0
0
0
0
0
0
0
0
0
0
0
0
0
0
0
0
0
0
0
0
0
0
0
8.06245e-16
6.05661e-14
1.16756e-13
1.72947e-13
2.51851e-13
3.54935e-13
5.16681e-13
7.06448e-13
9.52825e-13
1.14548e-12
1.09151e-12
5.73225e-13
0
0
0
0
0
0
0
0
0
0
0
0
0
0
0
0
0
0
0
0
0
0
0
0
0
0
0
0
0
0
2.79636e-09
0
0
0
0
0
0
0
0
0
0
1.08948e-07
7.56874e-07
1.83971e-06
2.94404e-06
3.0804e-06
9.1449e-07
0
0
0
0
0
0
0
0
0
0
0
0
7.402e-08
4.60855e-07
2.84124e-07
0
0
0
2.65876e-08
0
0
0
0
0
0
0
0
0
5.34648e-08
6.34842e-08
5.67524e-08
5.30623e-08
4.98003e-08
4.38159e-08
3.67714e-08
3.17217e-08
2.93024e-08
2.79655e-08
2.49734e-08
1.94791e-08
1.3509e-08
9.82013e-09
6.89116e-09
1.12958e-09
0
0
0
0
0
0
0
0
0
0
0
0
0
0
0
0
0
0
0
0
0
0
0
0
0
0
0
0
0
0
0
0
0
0
0
0
0
0
0
0
0
0
0
0
0
0
0
0
0
0
0
0
0
0
0
0
0
0
0
0
0
0
0
0
0
0
0
0
0
0
0
0
0
0
0
0
0
0
0
2.04048e-14
4.99394e-14
7.82986e-14
1.04032e-13
1.35023e-13
1.60241e-13
1.52919e-13
8.34211e-14
0
0
0
0
0
0
0
0
0
0
0
1.55385e-08
2.01198e-08
1.17315e-08
4.51337e-09
0
0
0
0
0
6.32244e-09
1.15973e-08
1.34222e-08
1.29258e-08
1.52055e-08
2.64937e-08
4.84678e-08
7.68611e-08
1.07027e-07
1.46285e-07
1.90525e-07
2.22255e-07
2.21831e-07
1.47903e-07
0
0
0
0
0
0
1.95784e-07
1.26939e-07
0
0
0
0
0
0
0
0
0
0
0
0
0
0
0
0
0
0
0
0
0
2.94728e-07
0
0
0
0
0
1.53151e-07
0
0
0
0
0
0
0
2.33866e-08
5.08017e-08
4.48712e-08
4.09059e-08
3.97899e-08
3.53035e-08
2.65859e-08
1.86929e-08
1.61188e-08
1.90126e-08
2.20187e-08
1.86016e-08
7.79992e-09
0
0
0
0
0
0
0
0
0
0
0
0
0
0
0
0
0
0
0
0
0
0
0
0
0
0
0
0
0
0
0
0
0
0
0
0
0
0
0
0
0
0
0
0
0
0
0
0
0
0
0
0
0
0
0
0
0
0
0
0
0
0
0
0
0
0
0
0
0
0
0
0
0
0
0
0
0
0
0
0
0
0
0
0
0
0
0
0
0
0
0
0
0
0
0
0
0
0
0
1.62629e-09
7.88011e-09
3.08407e-08
5.76715e-08
5.97701e-08
6.18652e-08
6.87813e-08
7.89594e-08
8.97554e-08
1.0431e-07
1.21354e-07
1.43364e-07
1.61681e-07
1.73618e-07
1.79694e-07
1.87842e-07
2.13117e-07
2.59987e-07
3.19897e-07
3.79497e-07
4.27396e-07
4.571e-07
4.54559e-07
4.11329e-07
3.15855e-07
1.28458e-07
0
0
0
0
1.69377e-07
6.26966e-07
7.8363e-07
2.55214e-07
0
0
0
0
0
0
0
0
0
0
0
0
0
3.60308e-09
0
0
0
2.68197e-08
0
0
9.34647e-08
0
0
0
0
0
0
3.67336e-07
2.66758e-07
0
0
0
0
0
8.12669e-08
9.56947e-08
7.6764e-08
6.1398e-08
5.30644e-08
4.53282e-08
3.31042e-08
1.86797e-08
8.42482e-09
7.08497e-09
1.4324e-08
2.15216e-08
1.92054e-08
5.93416e-09
0
0
0
0
1.06878e-09
0
0
0
0
0
0
0
0
0
0
0
0
0
0
0
0
0
0
0
0
0
0
0
0
0
0
0
0
0
0
0
0
0
0
0
0
0
0
0
0
0
0
0
0
0
0
0
0
0
0
0
0
0
0
0
0
0
0
0
0
0
0
0
0
0
0
0
0
0
0
0
0
0
0
0
0
0
0
0
0
0
0
0
0
0
0
0
0
0
0
0
0
3.42497e-08
3.6864e-08
3.34986e-08
4.40919e-08
5.90272e-08
7.33231e-08
8.76436e-08
1.06529e-07
1.28295e-07
1.58212e-07
1.90548e-07
2.23166e-07
2.63155e-07
3.06368e-07
3.39859e-07
3.57836e-07
3.71032e-07
4.0274e-07
4.60607e-07
5.48326e-07
6.47425e-07
7.35139e-07
7.87764e-07
7.52367e-07
6.47613e-07
4.80642e-07
2.6363e-07
3.28317e-08
0
0
3.97995e-09
3.47809e-07
8.74734e-07
1.40019e-06
1.42901e-06
4.68501e-07
0
0
0
0
0
0
0
0
0
8.9584e-06
1.31311e-05
1.00856e-05
6.17922e-06
3.17604e-06
9.94744e-07
1.651e-07
5.05715e-08
0
0
0
2.40714e-07
0
0
0
0
0
0
3.26993e-07
3.50573e-07
0
0
0
5.3439e-08
1.27555e-07
1.12426e-07
8.82682e-08
7.27211e-08
6.34862e-08
5.57643e-08
4.4258e-08
2.81938e-08
1.27465e-08
3.36928e-09
3.84026e-09
1.3557e-08
2.30314e-08
2.19516e-08
8.84418e-09
0
0
0
0
6.74167e-09
7.04237e-09
2.17881e-09
0
0
0
0
0
0
0
0
0
0
0
0
0
0
0
0
0
0
0
0
0
0
0
0
0
0
0
0
0
0
0
0
0
0
0
0
0
0
0
0
0
0
0
0
0
0
0
0
0
0
0
0
0
0
0
0
0
0
0
0
0
0
0
0
0
0
0
0
0
0
0
0
0
0
0
0
0
0
0
0
0
0
0
0
0
0
0
0
0
9.81722e-07
5.01972e-07
1.7156e-07
6.77689e-08
4.76299e-08
6.71979e-08
9.03244e-08
1.19119e-07
1.59159e-07
2.01759e-07
2.37759e-07
2.89221e-07
3.43337e-07
4.15591e-07
4.76814e-07
5.1661e-07
5.42829e-07
5.70989e-07
6.37122e-07
7.38743e-07
8.63732e-07
9.95336e-07
1.09288e-06
1.12817e-06
1.0112e-06
7.81813e-07
4.75516e-07
1.63296e-07
0
0
9.40075e-08
4.68103e-07
1.02677e-06
1.59471e-06
2.06613e-06
2.03434e-06
9.43387e-07
0
0
0
0
0
0
0
1.241e-05
4.24242e-05
2.88712e-05
1.67699e-05
9.14e-06
4.47742e-06
1.59956e-06
3.10227e-07
1.3012e-08
0
0
0
3.74477e-07
7.79792e-09
0
0
0
0
0
9.04359e-09
2.42633e-07
2.54775e-07
2.73146e-08
9.66793e-09
1.03809e-07
5.51809e-08
1.68366e-08
1.0683e-08
1.92307e-08
2.8902e-08
3.52964e-08
3.5953e-08
2.87864e-08
1.7104e-08
7.13256e-09
2.87083e-09
6.33373e-09
1.62539e-08
2.52688e-08
2.44923e-08
1.25587e-08
0
0
0
4.23227e-09
1.19507e-08
9.88937e-09
4.44109e-09
2.62243e-09
4.38427e-09
5.61236e-09
5.75834e-09
4.99232e-09
3.50426e-09
1.9542e-09
6.65747e-10
0
0
0
0
0
0
0
0
0
0
0
0
0
0
0
0
0
0
0
0
0
0
0
0
0
0
0
0
0
0
0
0
0
0
0
0
0
0
0
0
0
0
0
0
0
0
0
0
0
0
0
0
0
0
0
0
0
0
0
0
0
0
0
0
0
0
0
0
0
0
0
0
0
0
0
0
0
0
0
0
4.49811e-06
1.4099e-06
4.83407e-07
1.7509e-07
5.85625e-08
3.3847e-08
8.16339e-08
1.15645e-07
1.41573e-07
1.7852e-07
2.2783e-07
2.73744e-07
3.24481e-07
3.80111e-07
4.7081e-07
5.34811e-07
5.78072e-07
6.11863e-07
6.53697e-07
7.32444e-07
8.60494e-07
1.00127e-06
1.13833e-06
1.22757e-06
1.24256e-06
1.10085e-06
8.31224e-07
4.74374e-07
1.27821e-07
0
0
1.25199e-07
5.75594e-07
1.20833e-06
1.78787e-06
2.33764e-06
2.37979e-06
1.6904e-06
3.35911e-07
0
0
0
0
0
5.68676e-06
1.85133e-05
1.70091e-05
1.06334e-05
5.63295e-06
2.5041e-06
6.74749e-07
0
0
0
0
6.46674e-08
4.70981e-07
2.33852e-07
0
0
0
0
0
0
4.52734e-08
9.38327e-08
1.04174e-07
8.54253e-08
2.37942e-08
0
0
0
0
0
0
9.74495e-09
1.40199e-08
1.20395e-08
6.61475e-09
2.33751e-09
3.33549e-09
9.4724e-09
1.76911e-08
2.37215e-08
2.24241e-08
1.3274e-08
3.79894e-09
2.35864e-11
3.30089e-09
9.15974e-09
9.66173e-09
4.83041e-09
1.73887e-09
5.13045e-09
1.05831e-08
1.2858e-08
1.19617e-08
8.6195e-09
5.04821e-09
2.3392e-09
5.46304e-10
0
0
0
0
0
0
0
0
0
0
0
0
0
0
0
0
0
0
0
0
0
0
0
0
0
0
0
0
0
0
0
0
0
0
0
0
0
0
0
0
0
0
0
0
0
0
0
0
0
0
0
0
0
0
0
0
0
0
0
0
0
0
0
0
0
0
0
0
0
0
0
0
0
0
0
0
0
0
0
8.09722e-06
4.25804e-06
2.05962e-06
7.44067e-07
2.3839e-07
5.99193e-08
7.09615e-08
1.32296e-07
1.36829e-07
1.45976e-07
1.7819e-07
2.25072e-07
2.73109e-07
3.20236e-07
3.67128e-07
4.52492e-07
5.17136e-07
5.58644e-07
5.96989e-07
6.37321e-07
7.14285e-07
8.26462e-07
9.78644e-07
1.09543e-06
1.18479e-06
1.18687e-06
1.09011e-06
8.75095e-07
5.72109e-07
2.46255e-07
0
0
0
2.82627e-07
7.4277e-07
1.30349e-06
1.74314e-06
1.84762e-06
1.84718e-06
1.35835e-06
7.03961e-07
3.95157e-08
0
2.46513e-09
1.46884e-06
3.64263e-06
4.55419e-06
3.29457e-06
1.68394e-06
5.42124e-07
0
0
1.039e-08
0
0
1.63653e-07
5.07544e-07
3.37967e-07
0
0
0
1.26556e-06
4.1829e-07
8.33934e-08
1.50243e-08
4.73181e-09
1.90685e-10
2.09191e-09
1.09773e-09
0
0
0
0
5.59868e-09
1.04139e-08
1.45183e-08
1.60949e-08
1.55333e-08
1.23568e-08
5.91926e-09
1.16169e-09
4.18432e-09
1.27717e-08
2.00542e-08
2.24155e-08
1.97046e-08
1.34887e-08
7.73736e-09
4.49839e-09
4.24044e-09
3.90679e-09
6.47721e-10
0
1.68135e-09
1.23198e-08
2.00671e-08
2.10427e-08
1.67982e-08
9.86945e-09
4.56645e-09
1.2097e-09
0
0
0
0
0
0
0
0
0
0
0
0
0
0
0
0
0
0
0
0
0
0
0
0
0
0
0
0
0
0
0
0
0
0
0
0
0
0
0
0
0
0
0
0
0
0
0
0
0
0
0
0
0
0
0
0
0
0
0
0
0
0
0
0
0
0
0
0
0
0
0
0
0
0
0
0
0
0
0
5.51919e-06
8.96632e-06
4.36511e-06
2.10952e-06
7.15705e-07
2.90657e-07
2.12047e-07
1.04378e-07
9.37805e-08
1.08331e-07
1.22844e-07
1.47092e-07
1.7709e-07
2.23012e-07
2.62903e-07
2.98682e-07
3.6244e-07
4.20813e-07
4.62245e-07
5.00389e-07
5.30463e-07
5.96362e-07
6.81976e-07
7.88172e-07
8.96792e-07
9.66019e-07
9.65724e-07
9.07671e-07
7.76326e-07
5.80619e-07
3.26561e-07
6.51418e-08
0
0
0
3.01762e-08
3.21738e-07
5.76733e-07
7.39724e-07
6.87066e-07
5.37209e-07
3.0988e-07
1.01926e-07
0
2.2024e-08
2.87996e-07
5.32408e-07
3.64959e-07
1.92964e-07
0
0
1.1904e-07
2.2512e-07
1.61271e-08
0
1.34214e-08
5.19296e-07
1.23116e-06
1.73602e-06
2.96363e-07
3.52924e-07
1.34008e-06
5.80659e-07
2.53967e-07
1.36419e-07
7.30226e-08
3.09221e-08
1.52231e-08
1.49328e-08
1.16965e-08
1.01869e-08
1.74996e-08
3.07922e-08
3.76997e-08
3.74116e-08
3.59044e-08
3.34948e-08
3.0291e-08
2.60386e-08
1.72002e-08
4.98588e-09
0
6.48332e-09
2.01215e-08
2.74355e-08
2.53621e-08
1.96201e-08
1.35795e-08
7.26603e-09
6.95236e-10
0
0
0
0
1.00897e-08
2.65787e-08
3.34219e-08
3.03049e-08
2.02302e-08
1.0061e-08
3.56446e-09
2.42479e-11
0
0
0
0
0
0
0
0
0
0
0
0
0
0
0
0
0
0
0
0
0
0
0
0
0
0
0
0
0
0
0
0
0
0
0
0
0
0
0
0
0
0
0
0
0
0
0
0
0
0
0
0
0
0
0
0
0
0
0
0
0
0
0
0
0
0
0
0
0
0
0
0
0
0
0
0
0
0
2.93871e-06
6.9665e-06
3.72474e-06
1.00887e-06
2.12034e-07
1.501e-08
1.72465e-08
0
1.64692e-08
6.79186e-08
8.90641e-08
1.03165e-07
1.17681e-07
1.41628e-07
1.74409e-07
2.0233e-07
2.25886e-07
2.66121e-07
3.03527e-07
3.4292e-07
3.61921e-07
3.84393e-07
4.0949e-07
4.67921e-07
5.19753e-07
6.04373e-07
6.51583e-07
6.62413e-07
6.31475e-07
5.6943e-07
4.69156e-07
3.21078e-07
1.25316e-07
0
0
0
0
0
0
0
0
0
0
0
0
0
0
3.66279e-08
1.93062e-07
1.11147e-07
2.00042e-07
3.25115e-07
1.95375e-07
0
0
0
1.17418e-06
3.38301e-06
1.28636e-06
5.95195e-07
8.80531e-07
1.76878e-06
6.82499e-07
3.25821e-07
1.90983e-07
1.16224e-07
6.76027e-08
4.71175e-08
4.45187e-08
4.29181e-08
3.85955e-08
3.17825e-08
2.82911e-08
2.48804e-08
2.18993e-08
2.19917e-08
2.28857e-08
2.45955e-08
2.73176e-08
2.4133e-08
9.85529e-09
0
0
1.06138e-08
2.89664e-08
3.33689e-08
2.62359e-08
1.85354e-08
1.1397e-08
1.79647e-09
0
0
0
0
3.67066e-09
2.82407e-08
4.52682e-08
4.7047e-08
3.63578e-08
2.00545e-08
8.5256e-09
2.02554e-09
0
0
0
0
0
0
0
0
0
0
0
0
0
0
0
0
0
0
0
0
0
0
0
0
0
0
0
0
0
0
0
0
0
0
0
0
0
0
0
0
0
0
0
0
0
0
0
0
0
0
0
0
0
0
0
0
0
0
0
0
0
0
0
0
0
0
0
0
0
0
0
0
0
0
0
0
0
0
8.25195e-07
2.76308e-06
1.48119e-06
0
0
0
0
0
0
1.60578e-08
4.26701e-08
5.69997e-08
6.46141e-08
7.07528e-08
8.17219e-08
9.85076e-08
1.11804e-07
1.2224e-07
1.43735e-07
1.67182e-07
1.92705e-07
2.01523e-07
2.02572e-07
2.05419e-07
2.24932e-07
2.49482e-07
2.80372e-07
3.06235e-07
3.0758e-07
2.94899e-07
2.72214e-07
2.39794e-07
1.87609e-07
9.75362e-08
0
0
0
0
0
0
0
0
0
0
0
0
7.21375e-08
2.80442e-07
3.76181e-07
2.72927e-07
4.06564e-07
3.64364e-07
1.01424e-07
0
0
8.22083e-07
2.99236e-06
1.44359e-06
7.11516e-07
5.65609e-07
1.10596e-06
1.44374e-06
5.32239e-07
2.56621e-07
1.55445e-07
1.08248e-07
7.68677e-08
6.2635e-08
6.76275e-08
7.73838e-08
8.339e-08
7.99548e-08
7.29235e-08
5.73935e-08
3.94513e-08
2.84858e-08
2.26049e-08
2.09114e-08
2.50813e-08
2.9242e-08
1.68713e-08
0
0
0
1.70453e-08
3.34578e-08
3.06795e-08
2.24246e-08
1.64595e-08
9.08338e-09
0
0
0
0
0
2.41568e-08
5.182e-08
6.25189e-08
5.46898e-08
3.4157e-08
1.61446e-08
5.49049e-09
2.74369e-10
0
0
0
0
0
0
0
0
0
0
0
0
0
0
0
0
0
0
0
0
0
0
0
0
0
0
0
0
0
0
0
0
0
0
0
0
0
0
0
0
0
0
0
0
0
0
0
0
0
0
0
0
0
0
0
0
0
0
0
0
0
0
0
0
0
0
0
0
0
0
0
0
0
0
0
0
0
0
0
0
0
0
0
6.92912e-08
4.53073e-08
0
9.41051e-09
3.11963e-08
3.90131e-08
4.13112e-08
4.21557e-08
4.5414e-08
5.17743e-08
6.20683e-08
6.33918e-08
6.47508e-08
6.02196e-08
5.65845e-08
3.63571e-08
9.38648e-09
0
0
2.05529e-09
1.14187e-08
9.09991e-09
0
0
0
0
0
1.20628e-09
0
0
0
0
0
0
0
0
0
0
0
0
0
1.43303e-07
2.89354e-07
4.51476e-07
5.88265e-07
4.16517e-07
1.62178e-07
8.08641e-08
5.72304e-07
1.9762e-06
9.7449e-07
5.38081e-07
3.96413e-07
4.81009e-07
1.43189e-06
8.43243e-07
3.81274e-07
2.19916e-07
1.62003e-07
1.34856e-07
1.07404e-07
8.7719e-08
8.84366e-08
9.69703e-08
1.0452e-07
1.07659e-07
1.08744e-07
9.98325e-08
8.08935e-08
6.46949e-08
5.21703e-08
4.38109e-08
4.27308e-08
4.82057e-08
4.12381e-08
1.44166e-08
0
0
2.84323e-09
2.34735e-08
2.95461e-08
2.41046e-08
2.0499e-08
1.81691e-08
1.0164e-08
0
0
0
0
1.84468e-08
5.12129e-08
7.23606e-08
7.06809e-08
4.96765e-08
2.54597e-08
1.01042e-08
2.2365e-09
0
0
0
0
0
0
0
0
0
0
0
0
0
0
0
0
0
0
0
0
0
0
0
0
0
0
0
0
0
0
0
0
0
0
0
0
0
0
0
0
0
0
0
0
0
0
0
0
0
0
0
0
0
0
0
0
0
0
0
0
0
0
0
0
0
0
0
0
0
0
0
0
0
0
0
0
0
0
0
0
0
0
2.50004e-07
2.67514e-07
6.36603e-08
0
0
7.32427e-09
6.21953e-09
0
0
0
0
0
0
0
0
0
0
0
0
0
0
0
0
0
0
0
0
0
0
0
0
0
0
0
0
0
0
0
0
0
0
0
0
4.3865e-07
8.67129e-07
7.47357e-07
4.71158e-07
2.36244e-07
3.83535e-07
1.13842e-06
5.74258e-07
3.40871e-07
2.41957e-07
2.39843e-07
5.92203e-07
1.05398e-06
4.75721e-07
2.80368e-07
1.98822e-07
1.66676e-07
1.61647e-07
1.45721e-07
1.23359e-07
1.1194e-07
1.09185e-07
1.06832e-07
1.0544e-07
1.07039e-07
1.04612e-07
9.03838e-08
7.48091e-08
6.35408e-08
5.67425e-08
5.58134e-08
6.35542e-08
6.69891e-08
4.50577e-08
1.50372e-08
5.3581e-11
1.50432e-10
1.32495e-08
2.46862e-08
2.46599e-08
2.36188e-08
2.55121e-08
2.36897e-08
1.38079e-08
3.64015e-09
0
9.88256e-10
1.58602e-08
4.63079e-08
7.50315e-08
8.12371e-08
6.31108e-08
3.47057e-08
1.51327e-08
4.62945e-09
2.88832e-11
0
0
0
0
0
0
0
0
0
0
0
0
0
0
0
0
0
0
0
0
0
0
0
0
0
0
0
0
0
0
0
0
0
0
0
0
0
0
0
0
0
0
0
0
0
0
0
0
0
0
0
0
0
0
0
0
0
0
0
0
0
0
0
0
0
0
0
0
0
0
0
0
0
0
0
0
0
0
0
0
6.25149e-08
4.64356e-07
4.3582e-07
2.67734e-07
1.72945e-07
1.02268e-07
5.65642e-08
0
0
0
0
0
0
0
0
0
0
0
0
0
0
0
0
0
0
0
0
0
0
0
0
0
0
0
0
0
0
0
0
0
0
0
0
0
1.58275e-06
1.01692e-06
6.88808e-07
3.53407e-07
3.58111e-08
8.43214e-07
6.95218e-07
3.85127e-07
2.30515e-07
1.5199e-07
2.52235e-07
9.63102e-07
4.99207e-07
3.03037e-07
2.24649e-07
1.95726e-07
1.8046e-07
1.65681e-07
1.47254e-07
1.30437e-07
1.24979e-07
1.2499e-07
1.21901e-07
1.18561e-07
1.19201e-07
1.1877e-07
1.06323e-07
8.57509e-08
6.77865e-08
5.73644e-08
5.55186e-08
6.39654e-08
7.63447e-08
6.77088e-08
3.74105e-08
1.30841e-08
3.89047e-09
8.34832e-09
2.04474e-08
2.63713e-08
2.82744e-08
3.2356e-08
3.53456e-08
2.95197e-08
1.83018e-08
1.01352e-08
8.82895e-09
1.78791e-08
4.17298e-08
7.19996e-08
8.516e-08
7.15577e-08
4.20129e-08
1.95117e-08
7.0122e-09
1.27682e-09
0
0
0
0
0
0
0
0
0
0
0
0
0
0
0
0
0
0
0
0
0
0
0
0
0
0
0
0
0
0
0
0
0
0
0
0
0
0
0
0
0
0
0
0
0
0
0
0
0
0
0
0
0
0
0
0
0
0
0
0
0
0
0
0
0
0
0
0
0
0
0
0
0
0
0
0
5.65231e-07
2.23344e-07
0
0
0
0
0
0
0
0
0
0
0
0
0
0
0
0
0
0
0
0
0
0
0
0
0
0
0
0
0
0
0
0
0
3.18121e-07
2.14396e-07
1.02409e-07
2.732e-08
0
0
0
0
0
0
0
0
5.82991e-07
1.35111e-06
9.56635e-07
6.02858e-07
2.1198e-07
6.42507e-07
1.61904e-06
9.98803e-07
5.40243e-07
2.83457e-07
2.44371e-07
8.04869e-07
4.91991e-07
3.02062e-07
2.31128e-07
2.02531e-07
2.01394e-07
2.03397e-07
1.81042e-07
1.39127e-07
1.17847e-07
1.19778e-07
1.35389e-07
1.39345e-07
1.37286e-07
1.37182e-07
1.39304e-07
1.33859e-07
1.17671e-07
9.48973e-08
7.33318e-08
6.06491e-08
6.1922e-08
7.43018e-08
7.80472e-08
5.4627e-08
2.54092e-08
8.8267e-09
7.08853e-09
1.82204e-08
2.96442e-08
3.55939e-08
4.09348e-08
4.60942e-08
4.39437e-08
3.37341e-08
2.34565e-08
1.94403e-08
2.41003e-08
4.05097e-08
6.67759e-08
8.3149e-08
7.3821e-08
4.58529e-08
2.22787e-08
8.90503e-09
2.53834e-09
4.56585e-11
0
0
0
0
0
0
0
0
0
0
0
0
0
0
0
0
0
0
0
0
0
0
0
0
0
0
0
0
0
0
0
0
0
0
0
0
0
0
0
0
0
0
0
0
0
0
0
0
0
0
0
0
0
0
0
0
0
0
0
0
0
0
0
0
0
0
0
0
0
0
0
0
0
0
0
8.92334e-07
5.88533e-07
2.99634e-07
0
0
0
0
0
0
0
0
0
0
0
0
0
0
0
0
2.55874e-07
1.972e-07
0
0
0
0
0
0
0
0
0
0
0
0
0
0
1.40311e-06
7.21844e-07
3.86704e-07
0
0
0
0
0
0
0
0
0
5.2668e-07
1.19742e-06
9.36498e-07
6.71243e-07
9.14114e-07
2.61294e-06
2.24779e-06
1.49855e-06
8.09467e-07
5.25252e-07
8.96069e-07
5.17433e-07
3.13748e-07
2.35655e-07
2.13273e-07
2.09365e-07
2.10383e-07
2.05487e-07
1.80555e-07
1.38486e-07
1.18739e-07
1.23831e-07
1.44224e-07
1.54195e-07
1.51972e-07
1.46594e-07
1.46405e-07
1.46811e-07
1.38951e-07
1.22644e-07
9.7015e-08
7.30507e-08
6.2851e-08
6.8661e-08
7.66313e-08
6.40539e-08
3.60057e-08
1.44256e-08
8.15828e-09
1.7635e-08
3.28582e-08
4.3422e-08
5.05098e-08
5.62961e-08
5.62393e-08
4.78299e-08
3.70508e-08
3.1381e-08
3.3319e-08
4.31634e-08
6.23305e-08
7.68708e-08
6.98289e-08
4.49937e-08
2.25861e-08
9.78167e-09
3.53579e-09
9.38161e-10
7.10731e-11
0
0
0
0
0
0
0
0
0
0
0
0
0
0
0
0
0
0
0
0
0
0
0
0
0
0
0
0
0
0
0
0
0
0
0
0
0
0
0
0
0
0
0
0
0
0
0
0
0
0
0
0
0
0
0
0
0
0
0
0
0
0
0
0
0
0
0
0
0
0
0
0
0
0
6.99445e-07
6.65948e-07
4.98486e-07
0
0
0
0
0
0
0
0
0
0
0
0
0
0
0
5.12578e-08
8.18328e-08
3.25013e-08
2.27208e-09
0
0
0
0
0
0
0
0
0
0
0
0
6.15273e-07
1.31716e-06
6.62296e-07
0
0
0
0
2.25427e-09
0
0
0
0
0
4.89378e-07
9.8312e-07
1.01851e-06
1.35816e-06
2.97146e-06
2.79401e-06
2.63092e-06
2.00448e-06
1.14155e-06
1.02448e-06
5.65488e-07
3.73844e-07
2.80095e-07
2.21817e-07
2.0827e-07
2.18543e-07
2.15173e-07
1.93411e-07
1.5477e-07
1.3172e-07