/*--------------------------------*- C++ -*----------------------------------*\
  =========                 |
  \\      /  F ield         | OpenFOAM: The Open Source CFD Toolbox
   \\    /   O peration     | Website:  https://openfoam.org
    \\  /    A nd           | Version:  9
     \\/     M anipulation  |
\*---------------------------------------------------------------------------*/
FoamFile
{
    format      ascii;
    class       volScalarField;
    location    "0.014";
    object      p;
}
// * * * * * * * * * * * * * * * * * * * * * * * * * * * * * * * * * * * * * //

dimensions      [0 2 -2 0 0 0 0];

internalField   nonuniform List<scalar> 
12225
(
-164.418
-160.577
-158.602
-156.917
-155.312
-153.729
-152.267
-150.955
-149.697
-148.431
-147.184
-145.998
-144.9
-143.839
-142.748
-141.559
-140.227
-138.568
-163.407
-160.492
-158.591
-156.908
-155.308
-153.74
-152.283
-150.966
-149.703
-148.441
-147.201
-146.021
-144.919
-143.854
-142.767
-141.593
-140.304
-138.894
-161.903
-160.335
-158.56
-156.915
-155.32
-153.752
-152.289
-150.963
-149.699
-148.448
-147.23
-146.068
-144.967
-143.898
-142.808
-141.654
-140.445
-139.183
-161.258
-160.183
-158.55
-156.884
-155.3
-153.752
-152.299
-150.969
-149.704
-148.464
-147.262
-146.111
-145.011
-143.941
-142.862
-141.749
-140.609
-139.456
-159.991
-160.076
-158.572
-156.942
-155.312
-153.758
-152.3
-150.966
-149.705
-148.478
-147.29
-146.151
-145.058
-143.997
-142.941
-141.867
-140.784
-139.717
-161.057
-160.172
-158.538
-156.928
-155.272
-153.746
-152.303
-150.975
-149.717
-148.498
-147.323
-146.199
-145.119
-144.072
-143.039
-142.003
-140.977
-139.986
-159.825
-160.201
-158.68
-157.002
-155.339
-153.747
-152.298
-150.968
-149.715
-148.511
-147.355
-146.248
-145.185
-144.156
-143.15
-142.156
-141.183
-140.252
-161.366
-160.594
-158.755
-156.955
-155.28
-153.719
-152.285
-150.966
-149.722
-148.532
-147.395
-146.308
-145.264
-144.258
-143.281
-142.326
-141.403
-140.528
-161.837
-161.103
-158.992
-156.989
-155.269
-153.695
-152.26
-150.942
-149.708
-148.54
-147.428
-146.364
-145.345
-144.367
-143.423
-142.508
-141.632
-140.806
-165.726
-161.323
-158.917
-156.887
-155.159
-153.624
-152.224
-150.935
-149.724
-148.574
-147.478
-146.432
-145.432
-144.476
-143.563
-142.687
-141.855
-141.077
-166.226
-162.419
-159.198
-156.883
-155.091
-153.54
-152.149
-150.878
-149.692
-148.572
-147.507
-146.491
-145.524
-144.603
-143.727
-142.892
-142.103
-141.367
-165.815
-161.615
-158.827
-156.692
-154.944
-153.452
-152.109
-150.866
-149.702
-148.603
-147.557
-146.566
-145.623
-144.726
-143.874
-143.067
-142.31
-141.61
-166.838
-162.031
-158.784
-156.514
-154.768
-153.296
-151.986
-150.785
-149.662
-148.598
-147.588
-146.632
-145.726
-144.863
-144.041
-143.265
-142.541
-141.871
-169.806
-161.562
-158.249
-156.085
-154.506
-153.137
-151.89
-150.734
-149.653
-148.624
-147.646
-146.717
-145.833
-144.995
-144.203
-143.461
-142.771
-142.137
-167.842
-160.749
-157.452
-155.578
-154.135
-152.851
-151.682
-150.606
-149.581
-148.602
-147.672
-146.796
-145.965
-145.171
-144.416
-143.711
-143.058
-142.457
-152.058
-154.229
-155
-154.37
-153.514
-152.477
-151.458
-150.49
-149.537
-148.604
-147.716
-146.878
-146.084
-145.33
-144.618
-143.95
-143.333
-142.766
-142.401
-151.951
-153.921
-153.837
-153.043
-152.144
-151.228
-150.319
-149.421
-148.559
-147.744
-146.973
-146.236
-145.533
-144.871
-144.241
-143.655
-143.115
-161.677
-156.279
-154.446
-153.52
-152.587
-151.761
-150.959
-150.147
-149.33
-148.54
-147.79
-147.068
-146.373
-145.707
-145.073
-144.482
-143.929
-143.419
-155.406
-153.479
-152.864
-151.963
-151.861
-151.363
-150.714
-150.011
-149.271
-148.545
-147.841
-147.158
-146.5
-145.88
-145.296
-144.746
-144.226
-143.737
-147.546
-152.552
-153.4
-153.69
-152.557
-151.59
-150.801
-150.068
-149.336
-148.614
-147.919
-147.248
-146.603
-145.991
-145.413
-144.871
-144.364
-143.887
-157.297
-154.464
-153.563
-152.981
-152.368
-151.553
-150.822
-150.083
-149.357
-148.65
-147.972
-147.322
-146.699
-146.104
-145.539
-145
-144.486
-144.003
-151.309
-154.551
-154.206
-153.411
-152.571
-151.776
-150.97
-150.194
-149.432
-148.705
-148.017
-147.357
-146.725
-146.125
-145.56
-145.029
-144.515
-144.046
-163.624
-156.795
-154.609
-153.578
-152.648
-151.763
-150.959
-150.199
-149.447
-148.723
-148.045
-147.394
-146.776
-146.192
-145.638
-145.111
-144.607
-144.103
-161.433
-157.144
-154.849
-153.752
-152.775
-151.87
-151.042
-150.261
-149.493
-148.757
-148.062
-147.407
-146.78
-146.188
-145.634
-145.102
-144.6
-144.111
-155.061
-156.106
-154.989
-153.842
-152.811
-151.838
-150.992
-150.221
-149.474
-148.76
-148.084
-147.443
-146.825
-146.23
-145.659
-145.119
-144.607
-144.12
-156.787
-155.937
-154.82
-153.851
-152.867
-151.911
-151.064
-150.279
-149.51
-148.78
-148.091
-147.44
-146.817
-146.22
-145.651
-145.111
-144.598
-144.112
-155.876
-155.868
-154.857
-153.875
-152.829
-151.875
-151.045
-150.265
-149.506
-148.787
-148.112
-147.469
-146.848
-146.249
-145.674
-145.124
-144.602
-144.107
-160.445
-156.111
-154.884
-153.929
-152.859
-151.898
-151.067
-150.278
-149.514
-148.791
-148.112
-147.465
-146.843
-146.244
-145.667
-145.114
-144.589
-144.092
-155.995
-155.84
-154.903
-153.896
-152.83
-151.882
-151.059
-150.272
-149.511
-148.798
-148.128
-147.485
-146.863
-146.261
-145.678
-145.117
-144.583
-144.078
-155.542
-155.752
-154.922
-153.906
-152.825
-151.884
-151.068
-150.279
-149.513
-148.797
-148.126
-147.485
-146.866
-146.264
-145.678
-145.113
-144.573
-144.063
-128.133
-128.156
-128.215
-128.302
-128.416
-128.556
-128.719
-128.906
-129.113
-129.338
-129.576
-129.824
-130.078
-130.333
-130.588
-130.831
-131.051
-131.24
-131.401
-131.549
-131.704
-131.895
-132.168
-132.556
-133.088
-133.791
-134.693
-135.815
-137.162
-138.725
-140.477
-142.381
-144.392
-146.462
-148.54
-150.572
-152.506
-154.288
-155.863
-157.175
-158.175
-158.816
-159.06
-158.881
-158.258
-157.183
-155.656
-153.711
-151.385
-148.727
-145.787
-142.615
-139.26
-135.767
-132.176
-128.524
-124.846
-121.175
-117.549
-114.005
-110.585
-107.331
-104.276
-101.449
-98.8656
-96.5317
-94.4446
-92.5938
-90.9635
-89.5346
-88.2872
-87.2035
-86.268
-85.456
-84.751
-84.1376
-83.6016
-83.1303
-82.7123
-82.3372
-81.9964
-81.6821
-81.388
-81.1084
-80.8389
-80.5756
-80.3154
-80.0557
-79.7944
-79.5297
-79.2604
-78.9852
-78.7033
-78.414
-78.1166
-77.8107
-77.496
-77.1721
-76.839
-76.4965
-76.1445
-75.783
-75.412
-75.0315
-74.6418
-74.2427
-73.8345
-73.4174
-72.9913
-72.5565
-72.1133
-71.6618
-71.2022
-70.7347
-70.2594
-69.7765
-69.286
-68.7882
-68.2833
-67.7712
-67.2523
-66.7266
-66.1942
-65.6552
-65.1097
-64.5578
-63.9996
-63.4351
-62.8646
-62.288
-61.7054
-61.1168
-60.5225
-59.9224
-59.3166
-58.7051
-58.0879
-57.465
-56.8364
-56.2022
-55.5624
-54.9171
-54.2662
-53.6098
-52.9478
-52.2802
-51.6071
-50.9283
-50.2439
-49.5539
-48.8582
-48.1567
-47.4495
-46.7366
-46.0178
-45.2932
-44.5626
-43.8261
-43.0835
-42.3347
-41.5797
-40.8184
-40.0505
-39.2759
-38.4944
-37.7057
-36.9096
-36.1053
-35.2926
-34.4704
-33.6381
-32.7935
-31.936
-31.0606
-30.1666
-29.2421
-28.286
-27.267
-26.1829
-24.9667
-128.128
-128.155
-128.212
-128.294
-128.402
-128.535
-128.692
-128.871
-129.071
-129.293
-129.526
-129.771
-130.023
-130.278
-130.523
-130.757
-130.981
-131.198
-131.409
-131.623
-131.857
-132.142
-132.521
-133.026
-133.681
-134.506
-135.521
-136.742
-138.17
-139.793
-141.587
-143.515
-145.536
-147.609
-149.689
-151.727
-153.672
-155.468
-157.057
-158.381
-159.385
-160.018
-160.237
-160.012
-159.324
-158.169
-156.573
-154.558
-152.167
-149.446
-146.447
-143.223
-139.824
-136.295
-132.675
-129.001
-125.303
-121.611
-117.958
-114.383
-110.927
-107.632
-104.54
-101.678
-99.0645
-96.7063
-94.5992
-92.7319
-91.0878
-89.6472
-88.3894
-87.2963
-86.3514
-85.5323
-84.8208
-84.2016
-83.6607
-83.1851
-82.7631
-82.3846
-82.0405
-81.7232
-81.4262
-81.144
-80.8719
-80.6062
-80.3437
-80.0818
-79.8185
-79.552
-79.2809
-79.0042
-78.7208
-78.4302
-78.1316
-77.8246
-77.5089
-77.1842
-76.8502
-76.5069
-76.1542
-75.792
-75.4204
-75.0394
-74.6491
-74.2495
-73.8409
-73.4233
-72.9968
-72.5618
-72.1183
-71.6666
-71.2067
-70.7388
-70.2632
-69.78
-69.2892
-68.7911
-68.2858
-67.7736
-67.2544
-66.7285
-66.1959
-65.6568
-65.1111
-64.5591
-64.0008
-63.4362
-62.8656
-62.2888
-61.7062
-61.1176
-60.5232
-59.923
-59.3171
-58.7055
-58.0883
-57.4653
-56.8367
-56.2025
-55.5627
-54.9174
-54.2665
-53.61
-52.948
-52.2805
-51.6073
-50.9285
-50.2441
-49.5541
-48.8584
-48.1569
-47.4498
-46.7368
-46.018
-45.2934
-44.5629
-43.8263
-43.0837
-42.335
-41.5801
-40.8187
-40.0509
-39.2764
-38.495
-37.7065
-36.9104
-36.1064
-35.294
-34.4722
-33.6403
-32.7966
-31.9397
-31.0667
-30.1738
-29.2559
-28.3033
-27.3102
-26.2587
-25.1973
-127.966
-127.99
-128.041
-128.116
-128.21
-128.325
-128.46
-128.614
-128.786
-128.972
-129.179
-129.403
-129.641
-129.891
-130.149
-130.413
-130.686
-130.974
-131.288
-131.636
-132.033
-132.504
-133.073
-133.764
-134.595
-135.582
-136.738
-138.069
-139.575
-141.248
-143.073
-145.026
-147.079
-149.191
-151.32
-153.418
-155.432
-157.302
-158.968
-160.365
-161.43
-162.105
-162.339
-162.096
-161.358
-160.126
-158.425
-156.292
-153.773
-150.923
-147.801
-144.466
-140.973
-137.369
-133.693
-129.975
-126.24
-122.511
-118.811
-115.175
-111.645
-108.269
-105.095
-102.159
-99.4827
-97.0722
-94.9226
-93.0203
-91.3466
-89.8802
-88.6003
-87.4891
-86.5266
-85.6921
-84.9673
-84.3366
-83.7857
-83.3012
-82.8714
-82.4857
-82.135
-81.8116
-81.5087
-81.2209
-80.9435
-80.6727
-80.4054
-80.139
-79.8715
-79.601
-79.3262
-79.046
-78.7595
-78.4659
-78.1647
-77.8552
-77.5372
-77.2104
-76.8745
-76.5294
-76.175
-75.8112
-75.4382
-75.0558
-74.6642
-74.2635
-73.8537
-73.4351
-73.0077
-72.5718
-72.1274
-71.6748
-71.2142
-70.7456
-70.2693
-69.7855
-69.2942
-68.7957
-68.29
-67.7774
-67.2579
-66.7316
-66.1988
-65.6593
-65.1134
-64.5612
-64.0026
-63.4379
-62.8671
-62.2902
-61.7074
-61.1187
-60.5242
-59.9239
-59.3179
-58.7062
-58.0888
-57.4658
-56.8371
-56.2028
-55.563
-54.9176
-54.2667
-53.6102
-52.9482
-52.2806
-51.6075
-50.9287
-50.2443
-49.5542
-48.8585
-48.1571
-47.4499
-46.7369
-46.0182
-45.2936
-44.563
-43.8265
-43.084
-42.3353
-41.5804
-40.8191
-40.0514
-39.277
-38.4958
-37.7075
-36.9117
-36.108
-35.296
-34.4749
-33.6437
-32.8014
-31.946
-31.0759
-30.1865
-29.2765
-28.3361
-27.3711
-26.3671
-25.3906
-127.786
-127.804
-127.843
-127.899
-127.978
-128.076
-128.194
-128.332
-128.487
-128.659
-128.85
-129.059
-129.288
-129.538
-129.811
-130.108
-130.437
-130.803
-131.216
-131.685
-132.226
-132.852
-133.58
-134.429
-135.413
-136.549
-137.85
-139.322
-140.969
-142.783
-144.749
-146.845
-149.042
-151.302
-153.583
-155.838
-158.015
-160.052
-161.88
-163.425
-164.611
-165.365
-165.624
-165.35
-164.531
-163.19
-161.34
-159.018
-156.283
-153.21
-149.876
-146.354
-142.706
-138.984
-135.224
-131.448
-127.671
-123.898
-120.14
-116.42
-112.78
-109.276
-105.97
-102.914
-100.135
-97.6394
-95.4209
-93.4616
-91.7395
-90.2311
-88.9154
-87.7792
-86.789
-85.9303
-85.1852
-84.5374
-83.9716
-83.4741
-83.0326
-82.6363
-82.2757
-81.943
-81.6313
-81.335
-81.0496
-80.7711
-80.4965
-80.2233
-79.9492
-79.6727
-79.3923
-79.1069
-78.8157
-78.5177
-78.2123
-77.8992
-77.5778
-77.2478
-76.909
-76.5612
-76.2044
-75.8384
-75.4632
-75.0789
-74.6855
-74.2831
-73.8717
-73.4516
-73.0229
-72.5857
-72.1402
-71.6866
-71.2249
-70.7555
-70.2784
-69.7938
-69.3018
-68.8026
-68.2964
-67.7832
-67.2632
-66.7364
-66.2031
-65.6633
-65.117
-64.5644
-64.0056
-63.4405
-62.8695
-62.2924
-61.7093
-61.1205
-60.5258
-59.9253
-59.3191
-58.7073
-58.0898
-57.4666
-56.8379
-56.2035
-55.5636
-54.9182
-54.2672
-53.6107
-52.9487
-52.2811
-51.6079
-50.929
-50.2446
-49.5545
-48.8588
-48.1573
-47.4502
-46.7372
-46.0185
-45.2939
-44.5633
-43.8269
-43.0844
-42.3357
-41.5809
-40.8198
-40.0522
-39.2779
-38.4969
-37.7088
-36.9134
-36.1102
-35.2988
-34.4785
-33.6484
-32.8077
-31.9544
-31.0876
-30.2033
-29.3017
-28.3758
-27.4344
-26.472
-25.5467
-127.713
-127.727
-127.76
-127.809
-127.875
-127.958
-128.058
-128.177
-128.315
-128.473
-128.653
-128.855
-129.083
-129.341
-129.633
-129.964
-130.339
-130.767
-131.254
-131.811
-132.451
-133.187
-134.035
-135.011
-136.136
-137.431
-138.916
-140.602
-142.489
-144.559
-146.782
-149.122
-151.549
-154.035
-156.549
-159.049
-161.483
-163.783
-165.864
-167.635
-169.005
-169.888
-170.216
-169.946
-169.059
-167.538
-165.414
-162.762
-159.677
-156.261
-152.613
-148.822
-144.96
-141.083
-137.225
-133.397
-129.597
-125.809
-122.017
-118.218
-114.442
-110.757
-107.255
-104.013
-101.074
-98.4477
-96.1227
-94.0754
-92.2794
-90.7094
-89.3452
-88.1607
-87.1327
-86.2418
-85.4701
-84.8001
-84.2156
-83.7018
-83.2458
-82.836
-82.4628
-82.118
-81.7947
-81.4874
-81.1913
-80.9027
-80.6185
-80.3361
-80.0535
-79.7689
-79.4811
-79.1888
-78.8911
-78.5872
-78.2765
-77.9584
-77.6324
-77.2982
-76.9555
-76.6042
-76.244
-75.875
-75.497
-75.11
-74.7142
-74.3095
-73.896
-73.474
-73.0434
-72.6046
-72.1575
-71.7024
-71.2394
-70.7688
-70.2905
-69.8049
-69.3119
-68.8118
-68.3048
-67.7908
-67.2701
-66.7427
-66.2088
-65.6684
-65.1217
-64.5686
-64.0094
-63.444
-62.8726
-62.2952
-61.7119
-61.1227
-60.5278
-59.9271
-59.3207
-58.7087
-58.091
-57.4677
-56.8388
-56.2044
-55.5644
-54.9189
-54.2679
-53.6113
-52.9492
-52.2815
-51.6083
-50.9294
-50.245
-49.5549
-48.8591
-48.1576
-47.4505
-46.7375
-46.0188
-45.2942
-44.5637
-43.8272
-43.0848
-42.3362
-41.5815
-40.8205
-40.053
-39.279
-38.4982
-37.7105
-36.9155
-36.1128
-35.3021
-34.4828
-33.654
-32.8152
-31.9645
-31.1015
-30.2231
-29.3302
-28.419
-27.4989
-26.5711
-25.6814
-127.779
-127.79
-127.819
-127.861
-127.919
-127.992
-128.081
-128.188
-128.314
-128.462
-128.633
-128.831
-129.06
-129.325
-129.632
-129.986
-130.393
-130.862
-131.399
-132.017
-132.728
-133.549
-134.499
-135.605
-136.898
-138.41
-140.163
-142.16
-144.374
-146.763
-149.278
-151.885
-154.565
-157.309
-160.099
-162.901
-165.657
-168.29
-170.703
-172.779
-174.393
-175.438
-175.852
-175.564
-174.494
-172.633
-170.095
-166.989
-163.439
-159.574
-155.525
-151.406
-147.308
-143.291
-139.381
-135.572
-131.835
-128.128
-124.396
-120.594
-116.721
-112.841
-109.079
-105.568
-102.389
-99.5628
-97.0742
-94.8928
-92.9866
-91.3299
-89.8937
-88.6434
-87.5602
-86.6245
-85.8168
-85.1182
-84.5108
-83.978
-83.5052
-83.0802
-82.6924
-82.3334
-81.9963
-81.6755
-81.3664
-81.0653
-80.7691
-80.4754
-80.1822
-79.8877
-79.5905
-79.2897
-78.9841
-78.6729
-78.3554
-78.0311
-77.6995
-77.3601
-77.0126
-76.6569
-76.2926
-75.9198
-75.5383
-75.148
-74.7492
-74.3417
-73.9256
-73.5012
-73.0684
-72.6275
-72.1785
-71.7217
-71.2571
-70.7849
-70.3053
-69.8184
-69.3242
-68.8231
-68.315
-67.8001
-67.2786
-66.7505
-66.2158
-65.6748
-65.1275
-64.5739
-64.0141
-63.4483
-62.8764
-62.2987
-61.715
-61.1255
-60.5303
-59.9294
-59.3228
-58.7105
-58.0926
-57.4691
-56.8401
-56.2055
-55.5655
-54.9199
-54.2687
-53.6121
-52.9499
-52.2822
-51.6089
-50.93
-50.2455
-49.5553
-48.8595
-48.1581
-47.4509
-46.7379
-46.0191
-45.2946
-44.5641
-43.8277
-43.0853
-42.3368
-41.5822
-40.8213
-40.054
-39.2803
-38.4998
-37.7124
-36.9179
-36.1159
-35.306
-34.4879
-33.6606
-32.8238
-31.9761
-31.1172
-30.2452
-29.3612
-28.4642
-27.5627
-26.6626
-25.7974
-127.977
-127.987
-128.012
-128.049
-128.101
-128.166
-128.247
-128.345
-128.462
-128.601
-128.766
-128.96
-129.188
-129.456
-129.771
-130.139
-130.566
-131.061
-131.633
-132.296
-133.067
-133.97
-135.034
-136.3
-137.81
-139.601
-141.686
-144.035
-146.584
-149.257
-152
-154.796
-157.655
-160.602
-163.649
-166.782
-169.944
-173.037
-175.931
-178.47
-180.487
-181.808
-182.284
-181.844
-180.507
-178.336
-175.373
-171.736
-167.588
-163.116
-158.502
-153.901
-149.433
-145.171
-141.152
-137.377
-133.804
-130.344
-126.871
-123.26
-119.444
-115.453
-111.442
-107.619
-104.133
-101.035
-98.3162
-95.9424
-93.8772
-92.1067
-90.5634
-89.2285
-88.0758
-87.0827
-86.2281
-85.492
-84.855
-84.2986
-83.8064
-83.3642
-82.9605
-82.5861
-82.2337
-81.8978
-81.5738
-81.2582
-80.948
-80.641
-80.3351
-80.0288
-79.7207
-79.4096
-79.0945
-78.7747
-78.4493
-78.1177
-77.7793
-77.4337
-77.0805
-76.7195
-76.3504
-75.9731
-75.5874
-75.1933
-74.7908
-74.38
-73.9609
-73.5336
-73.0982
-72.6548
-72.2036
-71.7446
-71.2781
-70.8042
-70.3229
-69.8344
-69.3389
-68.8365
-68.3272
-67.8113
-67.2887
-66.7597
-66.2242
-65.6824
-65.1343
-64.5801
-64.0197
-63.4534
-62.881
-62.3028
-61.7187
-61.1289
-60.5333
-59.9321
-59.3252
-58.7126
-58.0945
-57.4708
-56.8416
-56.2069
-55.5667
-54.921
-54.2698
-53.613
-52.9508
-52.2829
-51.6096
-50.9306
-50.246
-49.5559
-48.86
-48.1585
-47.4513
-46.7383
-46.0196
-45.295
-44.5646
-43.8282
-43.0859
-42.3375
-41.583
-40.8223
-40.0552
-39.2817
-38.5015
-37.7146
-36.9206
-36.1194
-35.3105
-34.4935
-33.668
-32.8334
-31.989
-31.1344
-30.2688
-29.3936
-28.5095
-27.6243
-26.7459
-25.8981
-128.263
-128.272
-128.294
-128.328
-128.375
-128.434
-128.508
-128.6
-128.71
-128.844
-129.003
-129.193
-129.42
-129.689
-130.009
-130.385
-130.826
-131.341
-131.941
-132.644
-133.476
-134.47
-135.667
-137.119
-138.874
-140.961
-143.363
-146.01
-148.795
-151.626
-154.467
-157.355
-160.366
-163.57
-167.01
-170.688
-174.547
-178.466
-182.261
-185.698
-188.517
-190.462
-191.31
-190.952
-189.457
-186.828
-183.157
-178.625
-173.477
-167.984
-162.403
-156.951
-151.785
-147.003
-142.649
-138.715
-135.147
-131.848
-128.675
-125.433
-121.929
-118.08
-114.002
-109.96
-106.194
-102.808
-99.8229
-97.2129
-94.9526
-93.0082
-91.3355
-89.9005
-88.6697
-87.6129
-86.7052
-85.9246
-85.2509
-84.6646
-84.1477
-83.6846
-83.2625
-82.871
-82.5023
-82.1502
-81.8101
-81.4786
-81.1529
-80.8308
-80.5106
-80.1908
-79.87
-79.5473
-79.2214
-78.8916
-78.557
-78.217
-77.8709
-77.5182
-77.1585
-76.7915
-76.4168
-76.0343
-75.6438
-75.2452
-74.8386
-74.424
-74.0013
-73.5707
-73.1323
-72.6861
-72.2323
-71.771
-71.3022
-70.8262
-70.3431
-69.8529
-69.3558
-68.8519
-68.3413
-67.8241
-67.3004
-66.7703
-66.2339
-65.6911
-65.1423
-64.5873
-64.0262
-63.4592
-62.8863
-62.3076
-61.723
-61.1328
-60.5368
-59.9352
-59.3279
-58.7151
-58.0967
-57.4728
-56.8434
-56.2085
-55.5682
-54.9223
-54.271
-53.6141
-52.9517
-52.2838
-51.6104
-50.9313
-50.2467
-49.5565
-48.8606
-48.159
-47.4518
-46.7388
-46.0201
-45.2955
-44.5651
-43.8288
-43.0866
-42.3383
-41.5839
-40.8233
-40.0565
-39.2832
-38.5035
-37.717
-36.9236
-36.1232
-35.3153
-34.4997
-33.676
-32.8438
-32.0027
-31.1526
-30.2933
-29.4265
-28.554
-27.6827
-26.8211
-25.9866
-128.591
-128.6
-128.622
-128.654
-128.698
-128.753
-128.824
-128.911
-129.017
-129.146
-129.302
-129.489
-129.714
-129.984
-130.307
-130.691
-131.143
-131.674
-132.301
-133.047
-133.944
-135.036
-136.372
-138.008
-139.991
-142.329
-144.974
-147.819
-150.735
-153.639
-156.547
-159.568
-162.861
-166.559
-170.724
-175.343
-180.325
-185.493
-190.578
-195.244
-199.13
-201.896
-203.278
-203.122
-201.36
-198.075
-193.448
-187.749
-181.313
-174.501
-167.662
-161.081
-154.954
-149.397
-144.442
-140.066
-136.223
-132.833
-129.743
-126.753
-123.599
-120.095
-116.22
-112.199
-108.311
-104.721
-101.489
-98.6308
-96.1458
-94.0035
-92.176
-90.6271
-89.3139
-88.1953
-87.2368
-86.4117
-85.6985
-85.0778
-84.5311
-84.0423
-83.5974
-83.1856
-82.7982
-82.4286
-82.0717
-81.7235
-81.3814
-81.0432
-80.7073
-80.3726
-80.0378
-79.7019
-79.3639
-79.023
-78.6782
-78.3287
-77.974
-77.6133
-77.2463
-76.8725
-76.4915
-76.1031
-75.7073
-75.3037
-74.8925
-74.4735
-74.0469
-73.6126
-73.1707
-72.7214
-72.2646
-71.8006
-71.3294
-70.8511
-70.3658
-69.8737
-69.3748
-68.8692
-68.3571
-67.8385
-67.3136
-66.7823
-66.2447
-65.701
-65.1512
-64.5953
-64.0335
-63.4658
-62.8923
-62.313
-61.7279
-61.1371
-60.5407
-59.9387
-59.3311
-58.7179
-58.0993
-57.4751
-56.8455
-56.2104
-55.5698
-54.9238
-54.2723
-53.6153
-52.9528
-52.2848
-51.6113
-50.9322
-50.2475
-49.5572
-48.8612
-48.1596
-47.4524
-46.7394
-46.0206
-45.2961
-44.5657
-43.8294
-43.0873
-42.3391
-41.5848
-40.8244
-40.0578
-39.2849
-38.5055
-37.7196
-36.9269
-36.1272
-35.3205
-34.5063
-33.6845
-32.8548
-32.017
-31.1714
-30.3182
-29.4592
-28.597
-27.7375
-26.8891
-26.0648
-128.924
-128.935
-128.96
-128.992
-129.035
-129.09
-129.159
-129.244
-129.349
-129.475
-129.629
-129.815
-130.039
-130.309
-130.633
-131.021
-131.482
-132.029
-132.68
-133.466
-134.426
-135.608
-137.067
-138.858
-141.015
-143.533
-146.342
-149.312
-152.313
-155.294
-158.324
-161.583
-165.309
-169.685
-174.778
-180.542
-186.823
-193.357
-199.79
-205.708
-210.666
-214.245
-216.105
-216.06
-214.111
-210.296
-204.793
-197.929
-190.136
-181.894
-173.676
-165.867
-158.699
-152.287
-146.684
-141.832
-137.601
-133.883
-130.599
-127.62
-124.708
-121.537
-117.975
-114.139
-110.291
-106.604
-103.178
-100.086
-97.3626
-95.0191
-93.0346
-91.37
-89.9761
-88.8013
-87.7999
-86.937
-86.1877
-85.5325
-84.954
-84.436
-83.9648
-83.5289
-83.1195
-82.7298
-82.3544
-81.9888
-81.6298
-81.275
-80.9228
-80.5722
-80.2223
-79.8722
-79.5209
-79.1677
-78.8117
-78.4519
-78.0877
-77.7183
-77.3432
-76.9619
-76.574
-76.1793
-75.7774
-75.3684
-74.952
-74.5283
-74.0972
-73.6588
-73.2132
-72.7603
-72.3004
-71.8334
-71.3594
-70.8786
-70.3909
-69.8967
-69.3958
-68.8884
-68.3746
-67.8545
-67.3281
-66.7955
-66.2568
-65.7119
-65.1611
-64.6043
-64.0417
-63.4732
-62.8989
-62.3189
-61.7333
-61.142
-60.5451
-59.9426
-59.3346
-58.7211
-58.1021
-57.4776
-56.8478
-56.2124
-55.5717
-54.9255
-54.2738
-53.6167
-52.9541
-52.2859
-51.6123
-50.9331
-50.2483
-49.5579
-48.8619
-48.1603
-47.453
-46.7399
-46.0212
-45.2967
-44.5663
-43.8301
-43.088
-42.3399
-41.5858
-40.8257
-40.0593
-39.2867
-38.5077
-37.7223
-36.9303
-36.1315
-35.3259
-34.5132
-33.6933
-32.8662
-32.0317
-31.1904
-30.3429
-29.4911
-28.6379
-27.7886
-26.9505
-26.1343
-129.236
-129.253
-129.282
-129.318
-129.365
-129.422
-129.493
-129.578
-129.682
-129.808
-129.961
-130.144
-130.367
-130.635
-130.959
-131.349
-131.814
-132.369
-133.038
-133.853
-134.858
-136.107
-137.654
-139.548
-141.815
-144.441
-147.348
-150.405
-153.492
-156.586
-159.785
-163.324
-167.502
-172.536
-178.485
-185.287
-192.74
-200.518
-208.21
-215.351
-221.44
-225.966
-228.501
-228.796
-226.778
-222.505
-216.177
-208.181
-199.039
-189.346
-179.689
-170.603
-162.403
-155.16
-148.917
-143.673
-139.222
-135.298
-131.757
-128.582
-125.582
-122.547
-119.267
-115.702
-112.021
-108.356
-104.803
-101.484
-98.525
-95.9889
-93.8638
-92.0994
-90.6358
-89.4135
-88.3777
-87.485
-86.7052
-86.0179
-85.4075
-84.8594
-84.3601
-83.898
-83.4644
-83.0521
-82.6559
-82.2713
-81.8946
-81.523
-81.1544
-80.7876
-80.4219
-80.0567
-79.6914
-79.325
-78.9568
-78.5859
-78.2114
-77.8325
-77.4487
-77.0593
-76.6639
-76.2622
-75.8539
-75.4388
-75.0169
-74.588
-74.1521
-73.7093
-73.2595
-72.8029
-72.3394
-71.8691
-71.3921
-70.9085
-70.4184
-69.9218
-69.4187
-68.9094
-68.3938
-67.872
-67.344
-66.81
-66.2699
-65.7239
-65.1719
-64.6141
-64.0506
-63.4812
-62.9062
-62.3255
-61.7392
-61.1473
-60.5498
-59.9469
-59.3384
-58.7245
-58.1052
-57.4805
-56.8503
-56.2147
-55.5738
-54.9274
-54.2755
-53.6182
-52.9554
-52.2872
-51.6134
-50.9341
-50.2492
-49.5587
-48.8627
-48.161
-47.4536
-46.7406
-46.0218
-45.2973
-44.567
-43.8308
-43.0888
-42.3408
-41.5869
-40.8269
-40.0608
-39.2885
-38.51
-37.7251
-36.9338
-36.136
-35.3315
-34.5203
-33.7024
-32.8777
-32.0465
-31.2094
-30.3672
-29.522
-28.6766
-27.8358
-27.0061
-26.196
-129.517
-129.541
-129.579
-129.623
-129.677
-129.739
-129.813
-129.901
-130.006
-130.132
-130.282
-130.463
-130.682
-130.946
-131.266
-131.652
-132.114
-132.67
-133.342
-134.167
-135.192
-136.471
-138.057
-139.994
-142.303
-144.969
-147.92
-151.035
-154.206
-157.423
-160.787
-164.557
-169.06
-174.557
-181.105
-188.642
-196.939
-205.639
-214.285
-222.367
-229.343
-234.625
-237.699
-238.298
-236.282
-231.705
-224.813
-216.043
-205.973
-195.275
-184.56
-174.45
-165.429
-157.556
-150.733
-145.06
-140.579
-136.747
-133.207
-129.788
-126.46
-123.225
-120.005
-116.695
-113.303
-109.839
-106.3
-102.819
-99.6304
-96.9018
-94.6529
-92.8123
-91.2963
-90.0349
-88.9696
-88.0519
-87.2458
-86.5285
-85.8855
-85.3052
-84.7763
-84.2873
-83.8285
-83.3926
-82.9742
-82.5689
-82.1732
-81.784
-81.3987
-81.0158
-80.6344
-80.2538
-79.8737
-79.4935
-79.1124
-78.7296
-78.3442
-77.9553
-77.5621
-77.1641
-76.7607
-76.3515
-75.9362
-75.5147
-75.0867
-74.6522
-74.2112
-73.7636
-73.3094
-72.8487
-72.3814
-71.9076
-71.4274
-70.9409
-70.448
-69.9488
-69.4435
-68.932
-68.4144
-67.8908
-67.3612
-66.8256
-66.2841
-65.7368
-65.1836
-64.6248
-64.0602
-63.4899
-62.914
-62.3326
-61.7456
-61.153
-60.555
-59.9515
-59.3426
-58.7283
-58.1086
-57.4835
-56.8531
-56.2172
-55.576
-54.9294
-54.2773
-53.6199
-52.9569
-52.2885
-51.6146
-50.9351
-50.2501
-49.5596
-48.8635
-48.1617
-47.4543
-46.7412
-46.0225
-45.298
-44.5677
-43.8316
-43.0896
-42.3418
-41.588
-40.8282
-40.0624
-39.2904
-38.5123
-37.728
-36.9374
-36.1405
-35.3372
-34.5275
-33.7115
-32.8893
-32.0612
-31.228
-30.3908
-29.5514
-28.7128
-27.8792
-27.0564
-26.2511
-129.765
-129.797
-129.85
-129.906
-129.97
-130.04
-130.119
-130.21
-130.316
-130.441
-130.588
-130.765
-130.977
-131.233
-131.544
-131.92
-132.373
-132.919
-133.58
-134.394
-135.407
-136.674
-138.249
-140.168
-142.451
-145.084
-148.012
-151.139
-154.37
-157.688
-161.176
-165.073
-169.685
-175.301
-182.015
-189.781
-198.363
-207.392
-216.387
-224.802
-232.073
-237.621
-240.927
-241.686
-239.754
-235.16
-228.177
-219.262
-208.971
-198.019
-187.042
-176.571
-167.199
-159.148
-152.121
-146.069
-141.36
-137.818
-134.715
-131.434
-127.774
-124.012
-120.472
-117.183
-114.024
-110.853
-107.512
-104.033
-100.705
-97.8165
-95.4594
-93.5569
-91.9975
-90.6968
-89.5957
-88.6474
-87.8134
-87.0664
-86.3899
-85.7744
-85.2119
-84.6931
-84.2081
-83.7482
-83.307
-82.88
-82.4641
-82.0562
-81.6536
-81.2545
-80.8573
-80.4614
-80.0664
-79.672
-79.2776
-78.8824
-78.4854
-78.0858
-77.6828
-77.2756
-76.8637
-76.4466
-76.0239
-75.5955
-75.1612
-74.7208
-74.2742
-73.8215
-73.3626
-72.8975
-72.4262
-71.9487
-71.4651
-70.9754
-70.4796
-69.9777
-69.4699
-68.9562
-68.4365
-67.9109
-67.3795
-66.8422
-66.2992
-65.7505
-65.1961
-64.6361
-64.0704
-63.4992
-62.9224
-62.3402
-61.7524
-61.1592
-60.5606
-59.9565
-59.3471
-58.7324
-58.1123
-57.4868
-56.856
-56.2199
-55.5784
-54.9316
-54.2793
-53.6216
-52.9585
-52.2899
-51.6158
-50.9363
-50.2512
-49.5605
-48.8643
-48.1625
-47.455
-46.7419
-46.0231
-45.2986
-44.5684
-43.8323
-43.0904
-42.3427
-41.5891
-40.8295
-40.0639
-39.2923
-38.5147
-37.7309
-36.9411
-36.1451
-35.3429
-34.5347
-33.7205
-32.9007
-32.0756
-31.2461
-30.4133
-29.5792
-28.7465
-27.9191
-27.1018
-26.3003
-129.998
-130.036
-130.108
-130.18
-130.254
-130.333
-130.417
-130.511
-130.616
-130.737
-130.878
-131.047
-131.249
-131.494
-131.791
-132.152
-132.588
-133.115
-133.754
-134.537
-135.509
-136.723
-138.232
-140.075
-142.269
-144.805
-147.641
-150.709
-153.937
-157.293
-160.834
-164.735
-169.25
-174.636
-181.036
-188.441
-196.655
-205.329
-213.999
-222.129
-229.16
-234.547
-237.821
-238.697
-237.011
-232.734
-226.119
-217.649
-207.85
-197.353
-186.841
-176.751
-167.555
-159.724
-152.981
-146.915
-141.969
-138.577
-136.091
-133.431
-129.84
-125.504
-121.242
-117.546
-114.356
-111.376
-108.298
-105.003
-101.721
-98.7882
-96.3701
-94.4157
-92.8063
-91.451
-90.2944
-89.2961
-88.4204
-87.6368
-86.9245
-86.2717
-85.6719
-85.1188
-84.6041
-84.1185
-83.6539
-83.2045
-82.767
-82.3389
-81.9179
-81.5017
-81.0886
-80.6775
-80.2678
-79.8591
-79.451
-79.043
-78.6341
-78.2235
-77.8101
-77.3933
-76.9725
-76.547
-76.1166
-75.6809
-75.2399
-74.7932
-74.3408
-73.8828
-73.4189
-72.9491
-72.4736
-71.9922
-71.5049
-71.0118
-70.513
-70.0083
-69.4979
-68.9817
-68.4598
-67.9322
-67.3989
-66.8599
-66.3153
-65.7651
-65.2094
-64.6481
-64.0813
-63.5091
-62.9313
-62.3482
-61.7597
-61.1657
-60.5665
-59.9618
-59.3519
-58.7367
-58.1162
-57.4903
-56.8592
-56.2228
-55.581
-54.9339
-54.2814
-53.6235
-52.9601
-52.2914
-51.6172
-50.9375
-50.2522
-49.5615
-48.8652
-48.1633
-47.4558
-46.7426
-46.0238
-45.2993
-44.5691
-43.8331
-43.0913
-42.3437
-41.5902
-40.8308
-40.0655
-39.2943
-38.517
-37.7339
-36.9447
-36.1496
-35.3486
-34.5418
-33.7294
-32.9118
-32.0895
-31.2634
-30.4347
-29.6053
-28.7778
-27.9555
-27.1428
-26.3443
-130.268
-130.299
-130.382
-130.467
-130.553
-130.638
-130.725
-130.817
-130.916
-131.028
-131.158
-131.314
-131.501
-131.73
-132.009
-132.351
-132.766
-133.268
-133.875
-134.613
-135.519
-136.642
-138.034
-139.741
-141.786
-144.168
-146.857
-149.804
-152.95
-156.258
-159.751
-163.528
-167.76
-172.644
-178.326
-184.843
-192.07
-199.723
-207.403
-214.636
-220.926
-225.803
-228.855
-229.809
-228.51
-224.88
-219.098
-211.613
-202.928
-193.566
-184.162
-175.121
-166.699
-159.396
-153.208
-147.497
-142.516
-139.154
-137.136
-135.098
-131.879
-127.319
-122.463
-118.201
-114.713
-111.687
-108.748
-105.68
-102.599
-99.7779
-97.3881
-95.4107
-93.7485
-92.3231
-91.0902
-90.02
-89.0829
-88.2485
-87.4923
-86.7988
-86.1598
-85.5697
-85.0215
-84.5066
-84.0163
-83.5435
-83.0835
-82.6336
-82.1921
-81.7572
-81.3273
-80.9006
-80.4762
-80.0533
-79.6317
-79.2106
-78.7895
-78.3674
-77.9434
-77.5166
-77.0864
-76.6522
-76.2137
-75.7704
-75.3223
-74.8691
-74.4107
-73.9469
-73.4778
-73.0033
-72.5233
-72.0378
-71.5467
-71.0501
-70.5481
-70.0404
-69.5273
-69.0086
-68.4843
-67.9545
-67.4192
-66.8785
-66.3322
-65.7805
-65.2233
-64.6607
-64.0928
-63.5194
-62.9407
-62.3567
-61.7673
-61.1726
-60.5727
-59.9675
-59.357
-58.7413
-58.1203
-57.4941
-56.8626
-56.2258
-55.5837
-54.9363
-54.2836
-53.6254
-52.9619
-52.293
-51.6186
-50.9387
-50.2534
-49.5625
-48.8661
-48.1641
-47.4565
-46.7434
-46.0245
-45.3
-44.5698
-43.8338
-43.0921
-42.3446
-41.5913
-40.8321
-40.067
-39.2961
-38.5194
-37.7367
-36.9482
-36.154
-35.3541
-34.5487
-33.738
-32.9226
-32.1029
-31.2799
-30.4548
-29.6296
-28.8065
-27.9886
-27.1796
-26.3836
-130.687
-130.681
-130.734
-130.819
-130.91
-130.996
-131.078
-131.158
-131.241
-131.334
-131.443
-131.577
-131.743
-131.95
-132.207
-132.526
-132.917
-133.392
-133.963
-134.648
-135.476
-136.485
-137.722
-139.236
-141.064
-143.221
-145.696
-148.452
-151.441
-154.619
-157.973
-161.538
-165.4
-169.675
-174.468
-179.826
-185.692
-191.883
-198.108
-204.011
-209.199
-213.286
-215.928
-216.867
-215.954
-213.117
-208.478
-202.372
-195.238
-187.507
-179.654
-172.029
-164.822
-158.391
-152.857
-147.702