/*--------------------------------*- C++ -*----------------------------------*\
  =========                 |
  \\      /  F ield         | OpenFOAM: The Open Source CFD Toolbox
   \\    /   O peration     | Website:  https://openfoam.org
    \\  /    A nd           | Version:  9
     \\/     M anipulation  |
\*---------------------------------------------------------------------------*/
FoamFile
{
    format      ascii;
    class       volScalarField;
    location    "0.014";
    object      pMean;
}
// * * * * * * * * * * * * * * * * * * * * * * * * * * * * * * * * * * * * * //

dimensions      [0 2 -2 0 0 0 0];

internalField   nonuniform List<scalar> 
12225
(
-4.31443
-4.90327
-5.21992
-5.3571
-5.44292
-5.53039
-5.62847
-5.73014
-5.83023
-5.92853
-6.02787
-6.12728
-6.22962
-6.3273
-6.43261
-6.53325
-6.67198
-6.85174
-4.55444
-4.93436
-5.22123
-5.36666
-5.45399
-5.539
-5.63517
-5.73595
-5.83595
-5.93386
-6.03301
-6.13171
-6.2341
-6.33202
-6.43869
-6.54114
-6.68401
-6.87696
-4.59799
-4.93264
-5.20722
-5.36606
-5.45917
-5.54279
-5.63704
-5.73747
-5.83761
-5.93592
-6.03442
-6.13325
-6.23396
-6.33465
-6.43953
-6.55347
-6.69234
-6.87405
-4.83114
-4.98482
-5.21127
-5.37635
-5.47485
-5.55551
-5.64581
-5.74411
-5.84359
-5.94125
-6.03906
-6.1371
-6.23747
-6.33924
-6.44635
-6.56329
-6.69703
-6.85408
-4.89924
-5.01398
-5.21106
-5.37529
-5.47969
-5.56164
-5.64964
-5.74622
-5.84503
-5.94272
-6.04001
-6.13793
-6.23791
-6.34061
-6.44823
-6.56437
-6.69163
-6.83116
-4.92536
-5.05188
-5.2248
-5.37817
-5.48736
-5.57215
-5.65822
-5.75195
-5.84929
-5.9465
-6.04328
-6.14076
-6.24033
-6.3431
-6.45025
-6.56412
-6.68576
-6.81515
-5.01216
-5.11669
-5.25704
-5.38899
-5.49497
-5.58229
-5.66688
-5.75711
-5.85194
-5.94802
-6.04411
-6.14093
-6.23975
-6.34186
-6.4481
-6.55979
-6.67725
-6.79995
-5.01559
-5.12872
-5.25966
-5.38593
-5.49558
-5.58729
-5.67261
-5.76128
-5.85485
-5.95038
-6.04603
-6.14219
-6.2403
-6.34153
-6.44642
-6.5559
-6.67011
-6.7886
-5.18856
-5.21483
-5.2991
-5.40809
-5.51112
-5.59992
-5.68262
-5.7679
-5.85802
-5.95106
-6.04503
-6.14004
-6.23694
-6.33674
-6.44007
-6.5475
-6.65927
-6.77524
-5.18667
-5.21626
-5.29757
-5.40584
-5.50974
-5.60061
-5.68483
-5.76964
-5.85788
-5.94903
-6.04184
-6.13589
-6.23184
-6.33035
-6.4322
-6.53774
-6.64755
-6.76125
-5.2965
-5.27468
-5.33622
-5.43362
-5.528
-5.61206
-5.69286
-5.77593
-5.86223
-5.95085
-6.04116
-6.13297
-6.22678
-6.32323
-6.42297
-6.5263
-6.63377
-6.74541
-5.29633
-5.29419
-5.34915
-5.43634
-5.52788
-5.61349
-5.69478
-5.77595
-5.85913
-5.94494
-6.03327
-6.12365
-6.21597
-6.31067
-6.40845
-6.50974
-6.61513
-6.72475
-5.18122
-5.30587
-5.39372
-5.46281
-5.5379
-5.61821
-5.69913
-5.77975
-5.86105
-5.94411
-6.0295
-6.11726
-6.20704
-6.29903
-6.39384
-6.49215
-6.59448
-6.7013
-5.22046
-5.32341
-5.40402
-5.47069
-5.54138
-5.61837
-5.69694
-5.77483
-5.8531
-5.93336
-6.01605
-6.10091
-6.18788
-6.27716
-6.36917
-6.46449
-6.56337
-6.66629
-5.49723
-5.42486
-5.42869
-5.48647
-5.55884
-5.63202
-5.70491
-5.77762
-5.85125
-5.92718
-6.00567
-6.08603
-6.16805
-6.25215
-6.33887
-6.42845
-6.52116
-6.61718
-5.24617
-5.35354
-5.43299
-5.49441
-5.55417
-5.61948
-5.68894
-5.75935
-5.83037
-5.90261
-5.9763
-6.05142
-6.12806
-6.20633
-6.28676
-6.36949
-6.45479
-6.54241
-5.38847
-5.44554
-5.4924
-5.53365
-5.57769
-5.63004
-5.69035
-5.75391
-5.81817
-5.88293
-5.94848
-6.01504
-6.08298
-6.15244
-6.22336
-6.29554
-6.36918
-6.44412
-5.56548
-5.50031
-5.47772
-5.50083
-5.54878
-5.60448
-5.65986
-5.71468
-5.7706
-5.82772
-5.88534
-5.94326
-6.00169
-6.06068
-6.12006
-6.17976
-6.23975
-6.29997
-5.48914
-5.47425
-5.48
-5.50862
-5.54646
-5.58796
-5.63241
-5.67833
-5.72529
-5.77252
-5.81922
-5.86522
-5.91058
-5.95507
-5.99848
-6.04075
-6.08202
-6.12209
-5.38785
-5.4072
-5.43639
-5.46475
-5.49631
-5.53688
-5.58064
-5.62253
-5.66165
-5.69912
-5.73562
-5.77127
-5.80581
-5.83889
-5.87015
-5.8994
-5.9267
-5.95195
-5.33055
-5.36558
-5.40915
-5.44379
-5.4759
-5.5118
-5.55064
-5.58853
-5.62381
-5.6567
-5.68732
-5.71564
-5.74142
-5.7646
-5.78519
-5.80326
-5.81869
-5.83157
-5.3492
-5.33172
-5.3502
-5.39014
-5.43474
-5.47652
-5.51301
-5.54562
-5.57647
-5.60579
-5.63251
-5.65603
-5.67632
-5.69351
-5.70758
-5.71849
-5.72621
-5.73095
-5.24517
-5.28301
-5.3307
-5.37642
-5.4174
-5.45599
-5.49112
-5.52281
-5.55191
-5.57832
-5.60116
-5.61987
-5.63463
-5.64567
-5.65307
-5.65686
-5.65714
-5.65394
-5.1515
-5.20985
-5.27766
-5.33643
-5.38511
-5.42629
-5.46157
-5.49236
-5.52041
-5.54537
-5.56612
-5.58218
-5.5938
-5.60134
-5.60496
-5.60475
-5.60057
-5.59266
-5.16859
-5.18477
-5.2513
-5.32369
-5.37741
-5.41728
-5.45006
-5.47897
-5.50553
-5.52903
-5.54779
-5.56104
-5.5692
-5.57303
-5.57285
-5.56861
-5.56028
-5.54792
-5.09323
-5.12338
-5.20951
-5.29844
-5.35863
-5.39749
-5.42903
-5.45839
-5.48578
-5.50925
-5.52701
-5.5387
-5.54505
-5.54684
-5.54433
-5.53752
-5.52642
-5.5111
-4.97505
-5.08353
-5.20757
-5.29741
-5.35216
-5.38955
-5.42141
-5.45131
-5.47838
-5.50055
-5.51647
-5.52624
-5.53066
-5.53037
-5.52564
-5.51656
-5.50314
-5.48548
-4.84703
-5.02684
-5.19279
-5.28751
-5.33816
-5.37502
-5.40876
-5.44019
-5.46771
-5.48949
-5.50474
-5.51379
-5.51737
-5.51601
-5.50998
-5.49942
-5.48445
-5.46527
-4.79943
-5.01751
-5.19301
-5.28538
-5.33297
-5.36985
-5.40458
-5.43646
-5.46379
-5.48492
-5.49927
-5.50727
-5.50971
-5.50707
-5.49972
-5.48768
-5.47118
-5.45015
-4.63805
-4.9817
-5.193
-5.28141
-5.32581
-5.36314
-5.3986
-5.43063
-5.45775
-5.47855
-5.49252
-5.50011
-5.50207
-5.49884
-5.49089
-5.47813
-5.46083
-5.43831
-7.37702
-7.39289
-7.42783
-7.47917
-7.54603
-7.62745
-7.72281
-7.83162
-7.9535
-8.08823
-8.23554
-8.39537
-8.56761
-8.75224
-8.94885
-9.15744
-9.37842
-9.61314
-9.86406
-10.1348
-10.4302
-10.7566
-11.1186
-11.5195
-11.9601
-12.4389
-12.9525
-13.4948
-14.0572
-14.6282
-15.1934
-15.7355
-16.2347
-16.6696
-17.0174
-17.255
-17.3599
-17.3112
-17.0908
-16.6849
-16.0845
-15.286
-14.2908
-13.1062
-11.7472
-10.2343
-8.59299
-6.85157
-5.03944
-3.18618
-1.31975
0.534366
2.3538
4.11973
5.817
7.43358
8.96025
10.3899
11.7171
12.9383
14.051
15.0542
15.9485
16.7362
17.4213
18.0091
18.506
18.9196
19.2577
19.5281
19.7387
19.8969
20.0105
20.0855
20.1276
20.1421
20.1335
20.1058
20.0627
20.0071
19.9416
19.8685
19.7898
19.7069
19.6213
19.534
19.4461
19.3582
19.2711
19.1852
19.1009
19.0187
18.9387
18.8613
18.7864
18.7143
18.6451
18.5786
18.5151
18.4544
18.3966
18.3415
18.2892
18.2396
18.1925
18.1479
18.1058
18.066
18.0284
17.993
17.9596
17.9282
17.8985
17.8706
17.8443
17.8196
17.7964
17.7746
17.7542
17.7349
17.7169
17.6999
17.684
17.6691
17.6551
17.6419
17.6295
17.6179
17.6069
17.5966
17.5869
17.5777
17.5691
17.561
17.5533
17.546
17.5391
17.5326
17.5264
17.5205
17.5149
17.5096
17.5045
17.4996
17.4949
17.4904
17.4861
17.4819
17.4779
17.474
17.4703
17.4667
17.4633
17.46
17.4569
17.4539
17.4511
17.4486
17.4463
17.4443
17.4427
17.4415
17.441
17.4412
17.4423
17.4447
17.4485
17.4544
17.4628
17.4748
17.491
17.5138
17.5438
17.5868
17.6434
17.7279
17.8413
18.0244
18.2805
18.7226
-7.33649
-7.3532
-7.38848
-7.44016
-7.5081
-7.59137
-7.68949
-7.80196
-7.92839
-8.06848
-8.22226
-8.38987
-8.57141
-8.76686
-8.97665
-9.20168
-9.44332
-9.70337
-9.98391
-10.2877
-10.6185
-10.9815
-11.3816
-11.8217
-12.3021
-12.8209
-13.3737
-13.954
-14.5525
-15.1573
-15.7533
-16.3229
-16.8461
-17.301
-17.6645
-17.9128
-18.0226
-17.9724
-17.7439
-17.3226
-16.6998
-15.8724
-14.8438
-13.6243
-12.2294
-10.6805
-9.0032
-7.22593
-5.37893
-3.49249
-1.59513
0.286896
2.13119
3.91887
5.63519
7.26871
8.81076
10.2547
11.5956
12.8299
13.9549
14.9695
15.8741
16.6707
17.3632
17.957
18.4589
18.8765
19.2178
19.491
19.704
19.8642
19.9799
20.0567
20.1005
20.1166
20.1095
20.0833
20.0415
19.9872
19.9231
19.8512
19.7736
19.6918
19.6072
19.5209
19.4338
19.3468
19.2604
19.1752
19.0916
19.01
18.9306
18.8537
18.7794
18.7077
18.6389
18.5729
18.5097
18.4494
18.3918
18.3371
18.2851
18.2357
18.1889
18.1445
18.1026
18.063
18.0256
17.9903
17.957
17.9257
17.8962
17.8684
17.8423
17.8177
17.7947
17.773
17.7527
17.7336
17.7156
17.6988
17.683
17.6681
17.6542
17.641
17.6287
17.6171
17.6062
17.596
17.5863
17.5772
17.5686
17.5605
17.5529
17.5456
17.5388
17.5323
17.5261
17.5202
17.5146
17.5093
17.5042
17.4993
17.4947
17.4902
17.4858
17.4817
17.4777
17.4738
17.4701
17.4665
17.4631
17.4598
17.4566
17.4536
17.4508
17.4483
17.4459
17.4439
17.4423
17.4411
17.4405
17.4406
17.4417
17.4439
17.4476
17.4533
17.4615
17.473
17.4888
17.5106
17.5402
17.5807
17.6365
17.7137
17.8237
17.9756
18.1896
18.4245
-7.3291
-7.3453
-7.37986
-7.43082
-7.49794
-7.5808
-7.67931
-7.7934
-7.9232
-8.069
-8.23112
-8.41004
-8.60646
-8.82117
-9.05509
-9.30945
-9.58599
-9.8869
-10.2145
-10.5715
-10.9605
-11.3846
-11.8461
-12.3463
-12.8849
-13.4599
-14.0671
-14.7
-15.3497
-16.0044
-16.6496
-17.2674
-17.8373
-18.3363
-18.74
-19.0233
-19.1619
-19.133
-18.9167
-18.4971
-17.8635
-17.0118
-15.9452
-14.6749
-13.2191
-11.6027
-9.85409
-8.00427
-6.08556
-4.12997
-2.16801
-0.22725
1.66894
3.50182
5.25744
6.92554
8.49885
9.97195
11.3407
12.6018
13.7526
14.7912
15.7173
16.5326
17.2407
17.8472
18.3594
18.7853
19.1334
19.4123
19.6302
19.795
19.9147
19.9953
20.0428
20.0622
20.0583
20.0352
19.9964
19.9449
19.8834
19.8141
19.739
19.6595
19.5771
19.4929
19.4077
19.3225
19.2378
19.1542
19.0721
18.9919
18.9138
18.838
18.7648
18.6942
18.6263
18.5612
18.4989
18.4393
18.3825
18.3285
18.2771
18.2283
18.182
18.1382
18.0968
18.0576
18.0206
17.9857
17.9528
17.9219
17.8927
17.8652
17.8394
17.8151
17.7923
17.7708
17.7506
17.7317
17.7139
17.6972
17.6815
17.6668
17.653
17.64
17.6277
17.6163
17.6054
17.5953
17.5857
17.5766
17.5681
17.56
17.5524
17.5452
17.5384
17.5319
17.5258
17.52
17.5144
17.5091
17.504
17.4992
17.4945
17.49
17.4857
17.4815
17.4775
17.4737
17.47
17.4664
17.4629
17.4596
17.4565
17.4535
17.4507
17.4481
17.4457
17.4437
17.442
17.4407
17.44
17.44
17.4409
17.4429
17.4464
17.4517
17.4595
17.4704
17.4855
17.506
17.5341
17.5719
17.6242
17.6937
17.7913
17.9135
18.0769
18.2203
-7.39991
-7.41551
-7.44973
-7.50084
-7.56888
-7.65347
-7.75463
-7.87254
-8.00763
-8.1606
-8.33235
-8.52396
-8.73672
-8.97213
-9.23188
-9.51782
-9.83205
-10.1769
-10.5546
-10.9678
-11.4188
-11.9097
-12.442
-13.0163
-13.6323
-14.2876
-14.9786
-15.6987
-16.4393
-17.188
-17.9293
-18.644
-19.3094
-19.8997
-20.3873
-20.7444
-20.9438
-20.9599
-20.7699
-20.3543
-19.7002
-18.8038
-17.6724
-16.3222
-14.775
-13.0562
-11.1963
-9.2299
-7.19409
-5.12545
-3.05807
-1.02225
0.957043
2.86118
4.67768
6.39856
8.01923
9.53639
10.9476
12.2501
13.441
14.5175
15.4777
16.3225
17.055
17.6814
18.2094
18.6479
19.0064
19.294
19.5193
19.6913
19.8172
19.9037
19.9566
19.9813
19.9823
19.9639
19.9296
19.8825
19.8251
19.7597
19.6883
19.6123
19.5333
19.4521
19.3699
19.2875
19.2053
19.1241
19.0442
18.966
18.8898
18.8158
18.7442
18.6751
18.6086
18.5448
18.4836
18.4252
18.3695
18.3164
18.2659
18.2179
18.1724
18.1293
18.0886
18.05
18.0136
17.9793
17.9469
17.9163
17.8876
17.8605
17.8351
17.8111
17.7886
17.7674
17.7475
17.7288
17.7113
17.6948
17.6793
17.6648
17.6511
17.6383
17.6262
17.6148
17.6041
17.5941
17.5846
17.5756
17.5672
17.5592
17.5517
17.5445
17.5378
17.5314
17.5253
17.5195
17.5139
17.5087
17.5036
17.4988
17.4941
17.4897
17.4854
17.4813
17.4773
17.4734
17.4697
17.4661
17.4627
17.4594
17.4562
17.4532
17.4503
17.4477
17.4453
17.4432
17.4414
17.4401
17.4393
17.4391
17.4398
17.4415
17.4446
17.4495
17.4567
17.4667
17.4807
17.4997
17.5256
17.56
17.6071
17.6679
17.75
17.8468
17.9642
18.0456
-7.57442
-7.58956
-7.62335
-7.67409
-7.7422
-7.82768
-7.93096
-8.05259
-8.19345
-8.35466
-8.53758
-8.74378
-8.97507
-9.23348
-9.52122
-9.84073
-10.1946
-10.5856
-11.0165
-11.4901
-12.009
-12.5756
-13.1916
-13.8581
-14.5752
-15.3415
-16.154
-17.0069
-17.8909
-18.7921
-19.6916
-20.5651
-21.3849
-22.1204
-22.7401
-23.2116
-23.5029
-23.5837
-23.4275
-23.0139
-22.3315
-21.3789
-20.1665
-18.7077
-17.0241
-15.1459
-13.1125
-10.9679
-8.75681
-6.52153
-4.30049
-2.12735
-0.0289965
1.97565
3.876
5.66814
7.35191
8.92796
10.3966
11.7565
13.0046
14.1359
15.1463
16.0341
16.8021
17.4568
18.007
18.4632
18.8359
19.1353
19.371
19.5525
19.687
19.7813
19.8415
19.8731
19.8808
19.8687
19.8404
19.799
19.7471
19.687
19.6205
19.5493
19.4747
19.3977
19.3195
19.2406
19.1619
19.0838
19.0069
18.9314
18.8577
18.786
18.7166
18.6495
18.5849
18.5228
18.4633
18.4064
18.352
18.3002
18.251
18.2041
18.1597
18.1176
18.0777
18.04
18.0044
17.9707
17.939
17.9091
17.8809
17.8544
17.8294
17.8059
17.7838
17.763
17.7435
17.7252
17.7079
17.6917
17.6765
17.6622
17.6488
17.6361
17.6242
17.613
17.6025
17.5926
17.5832
17.5744
17.5661
17.5582
17.5508
17.5437
17.537
17.5307
17.5247
17.5189
17.5134
17.5082
17.5032
17.4984
17.4938
17.4893
17.4851
17.481
17.477
17.4731
17.4694
17.4658
17.4624
17.4591
17.4559
17.4529
17.45
17.4473
17.4449
17.4427
17.4408
17.4393
17.4383
17.438
17.4384
17.4398
17.4425
17.4468
17.4532
17.4622
17.4749
17.4919
17.5151
17.5455
17.5865
17.6378
17.7041
17.7768
17.8556
17.8921
-7.83677
-7.85191
-7.88595
-7.93719
-8.00643
-8.09396
-8.20062
-8.32745
-8.47579
-8.64721
-8.84355
-9.06688
-9.31951
-9.60402
-9.92327
-10.2804
-10.679
-11.1226
-11.6147
-12.1588
-12.7585
-13.4168
-14.1371
-14.9223
-15.7747
-16.6954
-17.6828
-18.7307
-19.8263
-20.9497
-22.0742
-23.1682
-24.1968
-25.1234
-25.9108
-26.5211
-26.9177
-27.0679
-26.9454
-26.531
-25.8133
-24.7883
-23.4548
-21.825
-19.9285
-17.8153
-15.5402
-13.1575
-10.7191
-8.27233
-5.85901
-3.51537
-1.27031
0.856212
2.85586
4.73018
6.48589
8.12992
9.66683
11.098
12.4205
13.6267
14.7077
15.6568
16.475
17.1689
17.7496
18.2294
18.6208
18.936
19.1859
19.3797
19.5253
19.6296
19.6991
19.7394
19.7552
19.7509
19.73
19.6958
19.6508
19.5972
19.5369
19.4715
19.4024
19.3307
19.2573
19.183
19.1085
19.0343
18.961
18.8889
18.8183
18.7496
18.6828
18.6182
18.5559
18.496
18.4385
18.3834
18.3308
18.2806
18.2328
18.1873
18.1442
18.1032
18.0645
18.0278
17.9931
17.9604
17.9294
17.9003
17.8728
17.8469
17.8225
17.7996
17.778
17.7577
17.7386
17.7207
17.7038
17.688
17.673
17.659
17.6459
17.6335
17.6218
17.6108
17.6005
17.5907
17.5816
17.5729
17.5647
17.5569
17.5496
17.5427
17.5361
17.5298
17.5239
17.5182
17.5128
17.5076
17.5026
17.4979
17.4933
17.4889
17.4847
17.4806
17.4766
17.4728
17.4691
17.4655
17.4621
17.4587
17.4555
17.4525
17.4496
17.4468
17.4443
17.442
17.44
17.4384
17.4372
17.4366
17.4367
17.4377
17.4399
17.4435
17.449
17.4569
17.4679
17.4827
17.5028
17.5288
17.563
17.6045
17.6552
17.7068
17.7535
17.7595
-8.16022
-8.17588
-8.21116
-8.2643
-8.33655
-8.42844
-8.54129
-8.67647
-8.83572
-9.02108
-9.23491
-9.47984
-9.75874
-10.0749
-10.4323
-10.8351
-11.288
-11.7955
-12.3621
-12.9923
-13.6914
-14.4651
-15.3202
-16.264
-17.303
-18.4403
-19.6734
-20.9905
-22.3699
-23.78
-25.1823
-26.5347
-27.7949
-28.9218
-29.8757
-30.6192
-31.1183
-31.34
-31.2524
-30.8254
-30.0349
-28.8656
-27.3217
-25.4398
-23.2734
-20.8781
-18.3148
-15.6474
-12.9384
-10.2433
-7.60884
-5.07269
-2.66488
-0.406884
1.69286
3.64184
5.45847
7.16108
8.76194
10.2666
11.6733
12.9714
14.1441
15.176
16.0625
16.81
17.4314
17.9425
18.3587
18.6948
18.9628
19.1723
19.3319
19.4489
19.53
19.5808
19.6064
19.6113
19.5993
19.5734
19.5365
19.4906
19.4376
19.3792
19.3167
19.2511
19.1834
19.1145
19.0451
18.9756
18.9066
18.8385
18.7716
18.7063
18.6428
18.5811
18.5216
18.4642
18.409
18.3561
18.3056
18.2573
18.2112
18.1674
18.1258
18.0862
18.0488
18.0133
17.9798
17.9481
17.9181
17.8899
17.8632
17.8381
17.8144
17.7921
17.7712
17.7514
17.7329
17.7154
17.699
17.6835
17.669
17.6553
17.6425
17.6304
17.619
17.6082
17.5981
17.5886
17.5796
17.5711
17.5631
17.5555
17.5483
17.5414
17.535
17.5288
17.5229
17.5173
17.512
17.5069
17.502
17.4973
17.4928
17.4884
17.4842
17.4801
17.4762
17.4724
17.4687
17.4651
17.4617
17.4583
17.4551
17.452
17.4491
17.4463
17.4437
17.4413
17.4392
17.4374
17.436
17.4351
17.4349
17.4354
17.437
17.4398
17.4443
17.4508
17.46
17.4724
17.489
17.5103
17.5374
17.5693
17.6054
17.6383
17.6595
17.6432
-8.51772
-8.53474
-8.5728
-8.62991
-8.70781
-8.8073
-8.93003
-9.07773
-9.25259
-9.45722
-9.69454
-9.96773
-10.2805
-10.6372
-11.043
-11.5035
-12.0244
-12.6114
-13.2702
-14.0079
-14.8331
-15.757
-16.7929
-17.9535
-19.2481
-20.6774
-22.2305
-23.8823
-25.5944
-27.3189
-29.0042
-30.6018
-32.0716
-33.3815
-34.5016
-35.3992
-36.0354
-36.3639
-36.3345
-35.9
-35.0225
-33.6885
-31.9248
-29.7762
-27.2929
-24.5366
-21.5869
-18.5312
-15.4544
-12.4285
-9.50828
-6.73265
-4.12963
-1.71923
0.490474
2.51144
4.37407
6.11278
7.75376
9.31257
10.7929
12.1842
13.46
14.5909
15.5619
16.3765
17.0495
17.6002
18.0484
18.4112
18.7016
18.9306
19.1074
19.2398
19.3348
19.3983
19.4357
19.4514
19.4495
19.4333
19.4055
19.3684
19.3238
19.2733
19.2183
19.1598
19.0987
19.036
18.9723
18.9082
18.8441
18.7806
18.7181
18.6567
18.5968
18.5386
18.4822
18.4277
18.3752
18.3249
18.2766
18.2305
18.1865
18.1446
18.1047
18.0668
18.0308
17.9967
17.9645
17.934
17.9051
17.8779
17.8522
17.828
17.8051
17.7836
17.7633
17.7442
17.7262
17.7093
17.6934
17.6784
17.6643
17.651
17.6385
17.6268
17.6157
17.6052
17.5954
17.5861
17.5773
17.569
17.5612
17.5537
17.5467
17.54
17.5337
17.5276
17.5219
17.5164
17.5111
17.5061
17.5012
17.4966
17.4921
17.4878
17.4836
17.4796
17.4757
17.4719
17.4683
17.4647
17.4612
17.4579
17.4546
17.4515
17.4485
17.4457
17.443
17.4405
17.4382
17.4362
17.4346
17.4334
17.4328
17.4328
17.4337
17.4357
17.439
17.4441
17.4513
17.4611
17.4741
17.4905
17.5106
17.533
17.556
17.5726
17.5736
17.5398
-8.88378
-8.90321
-8.94609
-9.0098
-9.0967
-9.2078
-9.3451
-9.51076
-9.70755
-9.93858
-10.2073
-10.5178
-10.8747
-11.284
-11.7522
-12.2863
-12.8932
-13.5802
-14.3558
-15.2315
-16.2226
-17.3481
-18.6277
-20.0769
-21.7001
-23.4866
-25.4073
-27.4161
-29.4555
-31.4667
-33.4022
-35.2298
-36.9282
-38.4784
-39.8555
-41.0201
-41.9142
-42.4655
-42.5979
-42.2416
-41.3446
-39.8873
-37.8796
-35.3605
-32.4033
-29.1113
-25.6038
-22.0015
-18.4157
-14.9379
-11.6329
-8.54034
-5.68191
-3.07161
-0.715529
1.40076
3.31659
5.08437
6.74845
8.33754
9.86679
11.3309
12.7001
13.929
14.9884
15.876
16.607
17.2048
17.6921
18.0869
18.4042
18.6561
18.853
19.0034
19.1146
19.1929
19.2438
19.2721
19.2819
19.2766
19.2591
19.2318
19.1964
19.1547
19.108
19.0573
19.0037
18.9479
18.8906
18.8325
18.774
18.7157
18.6579
18.6009
18.5451
18.4907
18.4378
18.3867
18.3373
18.2897
18.2441
18.2005
18.1587
18.1189
18.081
18.0449
18.0106
17.9781
17.9473
17.9181
17.8906
17.8645
17.8398
17.8166
17.7947
17.774
17.7545
17.7361
17.7188
17.7025
17.6871
17.6727
17.659
17.6462
17.6341
17.6227
17.612
17.6019
17.5923
17.5833
17.5748
17.5667
17.5591
17.5518
17.5449
17.5384
17.5322
17.5263
17.5207
17.5153
17.5101
17.5052
17.5004
17.4958
17.4914
17.4872
17.483
17.479
17.4752
17.4714
17.4678
17.4642
17.4608
17.4574
17.4541
17.451
17.4479
17.445
17.4422
17.4396
17.4372
17.435
17.4331
17.4316
17.4305
17.43
17.4302
17.4312
17.4334
17.4369
17.4421
17.4491
17.4584
17.4698
17.4831
17.4967
17.5078
17.5103
17.4952
17.4475
-9.23416
-9.25774
-9.30822
-9.38189
-9.48208
-9.60989
-9.76775
-9.95824
-10.1846
-10.4507
-10.7607
-11.12
-11.5348
-12.0125
-12.5613
-13.1895
-13.906
-14.7214
-15.6493
-16.708
-17.9206
-19.3124
-20.9044
-22.7053
-24.7048
-26.8721
-29.1553
-31.4916
-33.822
-36.1052
-38.3202
-40.4604
-42.5232
-44.4948
-46.333
-47.9641
-49.2895
-50.1966
-50.5697
-50.302
-49.3179
-47.5874
-45.1373
-42.0496
-38.4411
-34.452
-30.238
-25.9542
-21.7411
-17.7122
-13.9441
-10.476
-7.3174
-4.46976
-1.93343
0.30886
2.3037
4.11521
5.8042
7.41356
8.97267
10.4871
11.9265
13.235
14.3716
15.3265
16.1167
16.7657
17.2963
17.7275
18.0753
18.3531
18.5724
18.7426
18.8717
18.9665
19.0325
19.0749
19.0977
19.1047
19.0986
19.082
19.0568
19.0247
18.987
18.9448
18.8992
18.8509
18.8006
18.7491
18.6967
18.644
18.5915
18.5394
18.4881
18.4379
18.3889
18.3414
18.2953
18.2509
18.2082
18.1672
18.128
18.0905
18.0548
18.0207
17.9883
17.9575
17.9283
17.9006
17.8744
17.8496
17.8262
17.804
17.7831
17.7633
17.7447
17.7271
17.7106
17.6949
17.6802
17.6663
17.6532
17.6409
17.6293
17.6183
17.6079
17.5982
17.5889
17.5802
17.5719
17.5641
17.5567
17.5497
17.543
17.5367
17.5306
17.5248
17.5193
17.5141
17.509
17.5041
17.4995
17.495
17.4906
17.4864
17.4824
17.4784
17.4746
17.4709
17.4672
17.4637
17.4602
17.4569
17.4536
17.4504
17.4473
17.4443
17.4414
17.4387
17.4361
17.4337
17.4315
17.4296
17.4281
17.427
17.4264
17.4265
17.4274
17.4293
17.4323
17.4366
17.4422
17.4487
17.4555
17.4608
17.4614
17.4518
17.4237
17.365
-9.54601
-9.57623
-9.63769
-9.72543
-9.84424
-9.99492
-10.1805
-10.4039
-10.6693
-10.9815
-11.3462
-11.77
-12.2606
-12.8271
-13.4796
-14.2296
-15.0903
-16.0775
-17.2103
-18.5122
-20.0094
-21.7257
-23.6744
-25.8484
-28.2188
-30.7359
-33.3403
-35.98
-38.6203
-41.2492
-43.874
-46.5032
-49.1299
-51.7158
-54.1722
-56.367
-58.1402
-59.3294
-59.7924
-59.4222
-58.1578
-55.9922
-52.9801
-49.2283
-44.8779
-40.1005
-35.09
-30.0418
-25.1324
-20.5024
-16.2429
-12.3878
-8.92768
-5.84443
-3.12893
-0.760832
1.32119
3.19182
4.91851
6.55688
8.14445
9.69619
11.1817
12.544
13.7366
14.7489
15.595
16.2959
16.8721
17.342
17.7225
18.0279
18.2708
18.4618
18.6098
18.722
18.8043
18.8619
18.899
18.9192
18.9255
18.9206
18.9063
18.8844
18.8563
18.8232
18.7861
18.7458
18.7031
18.6585
18.6127
18.5662
18.5193
18.4725
18.4261
18.3804
18.3357
18.292
18.2496
18.2086
18.1691
18.1311
18.0946
18.0596
18.0262
17.9943
17.964
17.9351
17.9076
17.8816
17.8569
17.8334
17.8113
17.7903
17.7705
17.7517
17.7341
17.7173
17.7016
17.6867
17.6726
17.6594
17.6469
17.6351
17.6239
17.6134
17.6035
17.5941
17.5852
17.5768
17.5689
17.5613
17.5542
17.5474
17.5409
17.5347
17.5288
17.5232
17.5179
17.5127
17.5078
17.503
17.4985
17.4941
17.4898
17.4857
17.4817
17.4778
17.474
17.4703
17.4667
17.4631
17.4597
17.4563
17.453
17.4498
17.4466
17.4435
17.4406
17.4377
17.4349
17.4323
17.4298
17.4275
17.4255
17.4238
17.4225
17.4216
17.4212
17.4214
17.4223
17.4238
17.4257
17.4275
17.4282
17.4259
17.4173
17.3972
17.3584
17.291
-9.79779
-9.83769
-9.91437
-10.0225
-10.1667
-10.348
-10.5702
-10.8372
-11.1544
-11.5277
-11.9643
-12.4722
-13.0616
-13.7448
-14.5364
-15.4528
-16.5112
-17.7293
-19.1263
-20.7234
-22.5415
-24.5959
-26.8885
-29.3993
-32.0937
-34.9256
-37.8482
-40.8319
-43.8647
-46.9556
-50.1169
-53.3405
-56.5822
-59.7485
-62.6907
-65.2323
-67.1896
-68.3978
-68.7291
-68.098
-66.4604
-63.8153
-60.2201
-55.7956
-50.7072
-45.1628
-39.3974
-33.6427
-28.1052
-22.9442
-18.2625
-14.0753
-10.3612
-7.08759
-4.2336
-1.76977
0.382021
2.30936
4.08514
5.76584
7.39129
8.97549
10.4909
11.8832
13.1103
14.1653
15.0607
15.8119
16.4337
16.9423
17.355
17.6878
17.9543
18.1663
18.3334
18.4634
18.5626
18.6361
18.6881
18.7223
18.7418
18.7491
18.7463
18.7352
18.7172
18.6936
18.6654
18.6335
18.5987
18.5615
18.5227
18.4826
18.4418
18.4006
18.3595
18.3186
18.2784
18.239
18.2005
18.1631
18.127
18.0921
18.0585
18.0263
17.9954
17.9659
17.9378
17.9109
17.8853
17.861
17.8379
17.816
17.7952
17.7755
17.7569
17.7392
17.7226
17.7068
17.6919
17.6778
17.6645
17.6519
17.64
17.6288
17.6182
17.6082
17.5987
17.5897
17.5812
17.5732
17.5655
17.5583
17.5514
17.5448
17.5386
17.5326
17.5269
17.5215
17.5163
17.5113
17.5065
17.5019
17.4974
17.4931
17.4889
17.4848
17.4809
17.477
17.4733
17.4696
17.466
17.4625
17.4591
17.4557
17.4524
17.4491
17.4459
17.4428
17.4397
17.4366
17.4337
17.4308
17.4281
17.4254
17.4229
17.4206
17.4184
17.4165
17.4149
17.4134
17.4121
17.4109
17.4092
17.4065
17.4016
17.3923
17.3755
17.3466
17.2989
17.2244
-9.97048
-10.0235
-10.1224
-10.2583
-10.4361
-10.658
-10.9288
-11.2535
-11.6389
-12.0926
-12.6242
-13.2457
-13.9716
-14.8189
-15.8051
-16.9471
-18.2598
-19.7566
-21.4496
-23.3527
-25.4794
-27.8386
-30.4289
-33.2331
-36.2239
-39.3673
-42.6304
-45.9928
-49.4406
-52.9667
-56.5557
-60.1646
-63.7114
-67.0781
-70.1054
-72.6245
-74.4669
-75.4789
-75.5332
-74.5389
-72.4547
-69.2955
-65.1439
-60.1442
-54.4929
-48.4158
-42.1656
-35.9849
-30.0907
-24.6378
-19.7197
-15.3487
-11.4947
-8.11768
-5.18669
-2.66498
-0.474447
1.48716
3.30506
5.03754
6.71606
8.34055
9.8774
11.2799
12.5205
13.6011
14.5347
15.3302
15.9942
16.5388
16.9811
17.339
17.6279
17.8603
18.0464
18.1943
18.3105
18.4003
18.4678
18.5165
18.5494
18.5693
18.5784
18.5784
18.5709
18.5571
18.5381
18.5149
18.4883
18.4588
18.4272
18.3939
18.3595
18.3242
18.2886
18.2529
18.2174
18.1824
18.1481
18.1146
18.0821
18.0506
18.0201
17.9908
17.9626
17.9356
17.9098
17.8851
17.8615
17.8391
17.8177
17.7974
17.7781
17.7597
17.7424
17.7259
17.7103
17.6955
17.6815
17.6683
17.6558
17.6439
17.6327
17.6221
17.6121
17.6026
17.5936
17.585
17.5769
17.5693
17.562
17.555
17.5484
17.5421
17.5361
17.5304
17.5249
17.5197
17.5146
17.5098
17.5051
17.5006
17.4962
17.492
17.4879
17.4839
17.4801
17.4763
17.4726
17.4689
17.4654
17.4619
17.4585
17.4551
17.4517
17.4484
17.4452
17.4419
17.4387
17.4356
17.4324
17.4293
17.4263
17.4232
17.4203
17.4173
17.4144
17.4114
17.4085
17.4054
17.402
17.398
17.393
17.386
17.3758
17.3603
17.3364
17.2998
17.2448
17.1645
-10.0483
-10.1184
-10.2484
-10.4221
-10.6456
-10.9218
-11.2572
-11.6585
-12.1358
-12.7012
-13.3688
-14.1543
-15.0742
-16.1448
-17.3809
-18.7939
-20.3922
-22.1812
-24.165
-26.3495
-28.7438
-31.3564
-34.1895
-37.2329
-40.4646
-43.852
-47.3554
-50.9363
-54.5558
-58.1804
-61.7789
-65.305
-68.6832
-71.8079
-74.5398
-76.7221
-78.1938
-78.8079
-78.4441
-77.025
-74.5373
-71.0214
-66.5753
-61.3468
-55.5186
-49.3141
-42.9791
-36.7512
-30.8357
-25.381
-20.4642
-16.0936
-12.2434
-8.87612
-5.95063
-3.42285
-1.22323
0.749314
2.5937
4.37665
6.11881
7.79288
9.34822
10.7483
11.9871
13.0788
14.0374
14.8656
15.5628
16.1367
16.6041
16.9844
17.2943
17.5465
17.7514
17.9173
18.0507
18.1568
18.2399
18.3034
18.3501
18.3829
18.404
18.4153
18.4185
18.4148
18.4053
18.391
18.3727
18.3511
18.327
18.3007
18.2728
18.2437
18.2138
18.1835
18.1531
18.1228
18.0928
18.0634
18.0347
18.0067
17.9795
17.9533
17.928
17.9036
17.8802
17.8578
17.8363
17.8158
17.7963
17.7776
17.7599
17.743
17.727
17.7117
17.6973
17.6836
17.6705
17.6582
17.6465
17.6354
17.6249
17.615
17.6056
17.5966
17.5881
17.58
17.5724
17.5651
17.5582
17.5516
17.5453
17.5393
17.5335
17.528
17.5227
17.5177
17.5128
17.5081
17.5036
17.4992
17.495
17.4909
17.4869
17.483
17.4792
17.4755
17.4718
17.4682
17.4647
17.4612
17.4578
17.4544
17.4511
17.4477
17.4444
17.4411
17.4378
17.4345
17.4312
17.4279
17.4245
17.4211
17.4176
17.414
17.4103
17.4063
17.4021
17.3974
17.392
17.3854
17.3772
17.3663
17.3513
17.3302
17.3
17.2568
17.1956
17.1105
-10.0272
-10.1175
-10.2899
-10.5148
-10.7985
-11.1463
-11.5683
-12.0775
-12.6901
-13.4214
-14.2855
-15.2953
-16.4633
-17.8007
-19.3157
-21.0112
-22.8853
-24.9331
-27.1511
-29.5411
-32.1104
-34.8655
-37.8051
-40.9127
-44.1577
-47.4981
-50.8843
-54.2661
-57.6023
-60.865
-64.03
-67.0714
-69.9293
-72.5127
-74.6965
-76.345
-77.3104
-77.4667
-76.7176
-75.0098
-72.3466
-68.7767
-64.392
-59.3222
-53.7299
-47.8135
-41.7979
-35.9022
-30.3094
-25.1465
-20.4728
-16.2927
-12.5907
-9.34369
-6.50804
-4.03131
-1.85327
0.115761
1.9814
3.81277
5.61382
7.32813
8.89265
10.2841
11.5162
12.6117
13.5828
14.4279
15.1437
15.7366
16.2233
16.6234
16.9532
17.2252
17.4494
17.6336
17.7844
17.9071
18.0059
18.0841
18.1449
18.1907
18.224
18.2468
18.2608
18.2673
18.2675
18.2623
18.2526
18.2391
18.2225
18.2034
18.1823
18.1595
18.1356
18.1109
18.0857
18.0603
18.0349
18.0097
17.9849
17.9606
17.9369
17.9139
17.8916
17.87
17.8492
17.8291
17.8099
17.7914
17.7738
17.7569
17.7408
17.7254
17.7108
17.6968
17.6836
17.671
17.659
17.6476
17.6368
17.6265
17.6168
17.6075
17.5987
17.5903
17.5824
17.5748
17.5676
17.5607
17.5542
17.5479
17.542
17.5362
17.5308
17.5255
17.5205
17.5156
17.5109
17.5064
17.502
17.4978
17.4937
17.4897
17.4858
17.482
17.4783
17.4746
17.471
17.4675
17.464
17.4606
17.4572
17.4538
17.4504
17.447
17.4437
17.4403
17.4369
17.4334
17.4299
17.4264
17.4227
17.4189
17.4149
17.4107
17.4062
17.4013
17.3959
17.3896
17.3822
17.3732
17.362
17.3474
17.3281
17.302
17.2663
17.2174
17.151
17.062
-9.92995
-10.0359
-10.255
-10.5462
-10.9119
-11.3626
-11.9175
-12.5964
-13.4156
-14.3837
-15.5049
-16.784
-18.2246
-19.8263
-21.5836
-23.4893
-25.5348
-27.7103
-30.0058
-32.4134
-34.9259
-37.5359
-40.2324
-43.006
-45.835
-48.6986
-51.5672
-54.4015
-57.1678
-59.8304
-62.3603
-64.725
-66.8777
-68.7512
-70.2566
-71.2913
-71.747
-71.5272
-70.56
-68.8063
-66.2654
-62.9737
-59.0036
-54.4601
-49.4809
-44.2333
-38.907
-33.6861
-28.7175
-24.0951
-19.8622
-16.0304
-12.6019
-9.56597
-6.88241
-4.49757
-2.35809
-0.387621
1.50944
3.3864
5.22098
6.9416
8.49311
9.86957
11.0948
12.1905
13.1629
14.0091
14.7285
15.3301
15.8306
16.248
16.5972
16.8894
17.1335
17.3369
17.5059
17.6457
17.7607
17.8543
17.9294
17.9887
18.0347
18.0694
18.0947
18.1119
18.1221
18.1265
18.1258
18.1208
18.1122
18.1005
18.0864
18.0703
18.0527
18.0338
18.0141
17.9939
17.9733
17.9527
17.9321
17.9118
17.8917
17.8721
17.8529
17.8342
17.8162
17.7987
17.7818
17.7655
17.7499
17.7349
17.7205
17.7067
17.6936
17.681
17.669
17.6576
17.6467
17.6363
17.6264
17.617
17.6081
17.5995
17.5914
17.5836
17.5763
17.5692
17.5625
17.5561
17.5499
17.5441
17.5384
17.533
17.5278
17.5229
17.518
17.5134
17.5089
17.5046
17.5004
17.4963
17.4923
17.4884
17.4846
17.4809
17.4773
17.4737
17.4702
17.4667
17.4633
17.4599
17.4565
17.4531
17.4497
17.4463
17.4429
17.4394
17.4359
17.4324
17.4287
17.4249
17.4209
17.4168
17.4123
17.4075
17.4023
17.3964
17.3898
17.382
17.3728
17.3615
17.3475
17.3296
17.3064
17.2758
17.2353
17.1815
17.1107
17.0185
-9.78384
-9.89732
-10.1699
-10.5488
-11.0323
-11.6367
-12.3868
-13.297
-14.3684
-15.5919
-16.9545
-18.4414
-20.0401
-21.7387
-23.5285
-25.3987
-27.3367
-29.323
-31.3449
-33.3897
-35.4617
-37.562
-39.7016
-41.8855
-44.113
-46.3712
-48.6356
-50.871
-53.0385
-55.0967
-57.008
-58.7407
-60.2627
-61.5319
-62.4918
-63.0733
-63.2025
-62.8101
-61.8418
-60.2659
-58.0784
-55.3031
-51.9896
-48.2135
-44.0742
-39.7011
-35.2451
-30.8473
-26.6138
-22.6123
-18.885
-15.461
-12.359
-9.57157
-7.05971
-4.77544
-2.67085
-0.682748
1.25266
3.15096
4.9707
6.65418
8.17192
9.52953
10.7456
11.8318
12.7909
13.6236
14.3357
14.939
15.4488
15.8805
16.2467
16.5572
16.8197
17.0412
17.2275
17.3839
17.5146
17.6232
17.7124
17.7851
17.8437
17.8903
17.9268
17.9547
17.9751
17.9891
17.9975
18.001
18.0004
17.9963
17.9892
17.9798
17.9684
17.9555
17.9414
17.9263
17.9106
17.8946
17.8783
17.8619
17.8456
17.8294
17.8134
17.7977
17.7824
17.7675
17.753