/*--------------------------------*- C++ -*----------------------------------*\
  =========                 |
  \\      /  F ield         | OpenFOAM: The Open Source CFD Toolbox
   \\    /   O peration     | Website:  https://openfoam.org
    \\  /    A nd           | Version:  9
     \\/     M anipulation  |
\*---------------------------------------------------------------------------*/
FoamFile
{
    format      ascii;
    class       volScalarField;
    location    "0.014";
    object      pPrime2Mean;
}
// * * * * * * * * * * * * * * * * * * * * * * * * * * * * * * * * * * * * * //

dimensions      [0 4 -4 0 0 0 0];

internalField   nonuniform List<scalar> 
12225
(
332786
329560
325728
321616
317366
313065
308770
304516
300322
296196
292138
288141
284191
280264
276321
272300
268073
263357
332835
329594
325752
321635
317381
313078
308782
304527
300332
296207
292150
288156
284210
280289
276357
272356
268186
263649
332985
329669
325805
321676
317415
313107
308807
304550
300356
296231
292178
288189
284251
280343
276434
272478
268406
264152
333228
329790
325892
321745
317471
313154
308849
304590
300394
296272
292223
288243
284318
280431
276558
272666
268725
264747
333461
329963
326022
321847
317554
313225
308911
304647
300452
296332
292290
288321
284415
280558
276732
272922
269123
265389
333788
330193
326199
321986
317668
313321
308997
304727
300530
296415
292382
288428
284546
280726
276958
273238
269582
266054
334194
330493
326429
322170
317818
313448
309109
304832
300634
296522
292501
288566
284713
280937
277234
273610
270090
266732
334646
330872
326729
322408
318011
313611
309253
304966
300765
296660
292651
288739
284920
281193
277560
274031
270635
267418
335241
331338
327097
322701
318252
313814
309432
305132
300929
296829
292836
288949
285168
281493
277931
274495
271209
268111
335955
331917
327553
323064
318547
314062
309651
305334
301127
297034
293057
289198
285457
281838
278346
274996
271809
268809
336795
332607
328103
323502
318903
314362
309914
305578
301364
297277
293318
289488
285789
282224
278800
275530
272428
269511
337742
333377
328706
323978
319287
314685
310197
305840
301619
297536
293593
289791
286130
282614
279249
276044
273011
270159
338917
334265
329394
324518
319722
315050
310517
306135
301904
297825
293898
290123
286499
283029
279718
276573
273599
270804
340438
335463
330302
325224
320289
315522
310931
306515
302271
298195
294286
290539
286956
283536
280281
277196
274282
271541
342654
337056
331483
326131
321013
316126
311459
307000
302737
298663
294771
291056
287514
284145
280947
277920
275063
272374
345909
339161
332985
327264
321911
316876
312116
307603
303317
299243
295368
291684
288184
284864
281719
278747
275943
273302
349445
341606
334714
328571
322956
317755
312893
308324
304012
299936
296077
292423
288963
285689
282594
279672
276915
274317
352666
343870
336399
329888
324037
318689
313739
309122
304792
300719
296879
293255
289834
286602
283552
280673
277958
275397
354662
345259
337513
330845
324901
319498
314524
309901
305580
301529
297719
294131
290748
287558
284548
281708
279029
276500
352625
344423
337233
330864
325100
319816
314923
310365
306097
302091
298323
294775
291429
288273
285295
282484
279830
277324
350200
343056
336500
330507
324981
319852
315067
310587
306380
302422
298692
295176
291859
288728
285772
282981
280344
277852
348200
341721
335663
330025
324734
319766
315093
310691
306542
302629
298936
295449
292156
289045
286107
283330
280706
278225
346306
340519
334905
329556
324467
319640
315064
310733
306635
302760
299096
295633
292360
289265
286339
283574
280959
278486
344864
339547
334267
329157
324233
319515
315019
310744
306687
302842
299202
295757
292498
289416
286500
283743
281134
278667
343715
338765
333767
328845
324044
319413
314975
310742
306715
302894
299271
295840
292591
289518
286609
283858
281254
278791
342677
338174
333403
328614
323904
319334
314940
310736
306732
302926
299315
295894
292653
289585
286682
283934
281334
278873
341990
337753
333147
328457
323809
319281
314914
310731
306741
302946
299343
295928
292692
289628
286728
283983
281385
278926
341555
337492
332988
328358
323749
319246
314897
310727
306746
302957
299360
295948
292716
289654
286756
284013
281416
278958
341264
337341
332900
328303
323715
319227
314888
310724
306748
302964
299369
295959
292728
289668
286771
284029
281433
278976
341090
337278
332864
328281
323702
319219
314884
310723
306749
302966
299372
295964
292734
289674
286778
284036
281440
278983
222814
222796
222760
222706
222633
222540
222428
222296
222144
221972
221780
221567
221333
221078
220803
220506
220188
219849
219489
219108
218706
218283
217839
217374
216888
216381
215855
215309
214744
214160
213559
212941
212307
211658
210994
210317
209626
208923
208205
207473
206725
205961
205178
204375
203552
202706
201838
200946
200032
199095
198137
197160
196163
195148
194118
193073
192014
190943
189861
188769
187668
186559
185442
184317
183186
182047
180901
179749
178590
177423
176250
175069
173880
172685
171482
170271
169054
167829
166596
165356
164110
162856
161595
160327
159052
157771
156483
155188
153887
152580
151267
149948
148623
147293
145957
144615
143268
141916
140558
139196
137829
136457
135081
133700
132315
130926
129532
128135
126734
125329
123920
122508
121093
119675
118254
116830
115403
113974
112542
111108
109672
108234
106794
105352
103909
102465
101019
99572.7
98125.2
96677
95228.3
93779.3
92330.1
90881
89432.1
87983.6
86535.8
85088.8
83642.8
82198
80754.7
79313.1
77873.4
76435.8
75000.5
73567.7
72137.8
70710.9
69287.3
67867.2
66450.9
65038.7
63630.8
62227.5
60829.1
59435.9
58048.1
56666.1
55290.2
53920.7
52557.9
51202.2
49853.9
48513.3
47180.9
45857.1
44542.2
43236.6
41940.9
40655.4
39380.8
38117.6
36866.4
35627.9
34403.2
33193.1
31999.2
30823.5
29669.9
28546
222894
222876
222840
222785
222712
222619
222506
222373
222221
222048
221854
221640
221405
221149
220871
220573
220254
219913
219551
219168
218764
218338
217892
217424
216936
216428
215899
215351
214783
214197
213594
212974
212339
211688
211024
210346
209655
208951
208233
207501
206754
205989
205207
204404
203580
202734
201865
200973
200058
199120
198162
197182
196184
195169
194137
193091
192031
190959
189876
188783
187681
186571
185453
184328
183195
182056
180910
179757
178597
177430
176256
175075
173886
172690
171487
170276
169058
167833
166600
165360
164113
162859
161598
160330
159055
157773
156485
155190
153889
152582
151269
149950
148625
147294
145958
144616
143269
141917
140559
139197
137830
136458
135082
133701
132316
130926
129533
128135
126734
125329
123921
122509
121094
119675
118254
116830
115403
113974
112542
111108
109672
108234
106794
105353
103909
102465
101019
99572.8
98125.2
96677
95228.3
93779.3
92330.1
90881
89432.1
87983.7
86535.8
85088.8
83642.8
82198.1
80754.8
79313.1
77873.4
76435.8
75000.5
73567.8
72137.8
70710.9
69287.3
67867.2
66451
65038.7
63630.8
62227.5
60829.1
59435.9
58048.1
56666.1
55290.2
53920.7
52557.9
51202.1
49853.8
48513.3
47180.9
45857
44542.1
43236.5
41940.8
40655.3
39380.6
38117.3
36866.1
35627.5
34402.6
33192.4
31998.2
30822.1
29667.4
28541.1
223056
223037
223001
222945
222870
222776
222662
222528
222374
222199
222003
221786
221548
221289
221009
220708
220385
220040
219675
219288
218879
218450
217999
217527
217034
216521
215988
215435
214864
214274
213666
213043
212404
211750
211083
210403
209710
209005
208286
207555
206808
206044
205262
204460
203636
202790
201920
201027
200110
199171
198210
197228
196228
195211
194177
193129
192067
190993
189908
188812
187708
186596
185476
184349
183215
182075
180927
179773
178612
177445
176270
175087
173898
172701
171497
170286
169067
167841
166608
165368
164120
162865
161604
160335
159060
157778
156490
155195
153893
152586
151273
149953
148628
147297
145960
144619
143271
141919
140561
139199
137832
136460
135083
133702
132317
130927
129534
128136
126735
125330
123921
122509
121094
119676
118255
116830
115404
113974
112542
111108
109672
108234
106794
105353
103910
102465
101020
99572.9
98125.3
96677.1
95228.4
93779.4
92330.2
90881.1
89432.2
87983.7
86535.8
85088.8
83642.8
82198.1
80754.8
79313.2
77873.4
76435.8
75000.5
73567.8
72137.8
70710.9
69287.3
67867.3
66451
65038.7
63630.8
62227.5
60829.1
59435.9
58048.1
56666.1
55290.2
53920.6
52557.8
51202.1
49853.8
48513.2
47180.8
45856.9
44542
43236.4
41940.5
40655
39380.2
38116.9
36865.4
35626.7
34401.5
33190.9
31996.1
30819.1
29662.4
28530.5
223298
223279
223242
223185
223109
223013
222897
222760
222603
222425
222226
222006
221764
221501
221216
220910
220582
220232
219861
219468
219053
218618
218160
217682
217183
216663
216123
215563
214984
214388
213774
213144
212498
211839
211168
210484
209789
209082
208364
207632
206886
206124
205344
204543
203720
202874
202003
201108
200189
199246
198282
197298
196294
195273
194237
193185
192120
191043
189955
188856
187749
186634
185511
184381
183245
182102
180953
179797
178635
177466
176289
175106
173916
172718
171513
170301
169081
167854
166620
165379
164130
162875
161613
160344
159068
157785
156496
155201
153899
152592
151278
149958
148632
147301
145964
144622
143275
141922
140564
139201
137834
136462
135085
133704
132318
130929
129535
128137
126736
125331
123922
122510
121095
119677
118255
116831
115404
113975
112543
111109
109673
108235
106795
105353
103910
102465
101020
99573
98125.5
96677.2
95228.5
93779.5
92330.3
90881.1
89432.2
87983.7
86535.9
85088.9
83642.9
82198.1
80754.8
79313.2
77873.5
76435.8
75000.5
73567.8
72137.9
70711
69287.4
67867.3
66451
65038.7
63630.8
62227.5
60829.1
59435.9
58048.1
56666.1
55290.1
53920.6
52557.8
51202
49853.7
48513.1
47180.7
45856.8
44541.8
43236.1
41940.2
40654.6
39379.7
38116.1
36864.5
35625.5
34399.9
33188.6
31993
30814.5
29655
28516.9
223623
223603
223564
223506
223428
223329
223210
223071
222910
222728
222524
222299
222052
221783
221492
221179
220845
220488
220109
219709
219286
218842
218376
217889
217381
216852
216302
215732
215143
214536
213912
213272
212618
211951
211273
210584
209886
209177
208459
207729
206986
206227
205450
204652
203831
202985
202113
201216
200294
199347
198379
197390
196382
195357
194317
193261
192192
191111
190019
188916
187804
186684
185557
184424
183284
182139
180987
179829
178665
177494
176316
175131
173939
172740
171533
170320
169099
167871
166636
165394
164144
162888
161625
160355
159078
157795
156506
155210
153907
152599
151285
149964
148638
147307
145969
144627
143279
141926
140568
139205
137837
136465
135088
133706
132321
130931
129537
128139
126737
125332
123924
122511
121096
119678
118256
116832
115405
113975
112544
111109
109673
108235
106795
105353
103910
102466
101020
99573.2
98125.7
96677.4
95228.7
93779.6
92330.4
90881.2
89432.3
87983.8
86535.9
85088.9
83642.9
82198.1
80754.9
79313.2
77873.5
76435.9
75000.6
73567.8
72137.9
70711
69287.4
67867.3
66451
65038.8
63630.9
62227.5
60829.1
59435.9
58048.1
56666
55290.1
53920.6
52557.7
51202
49853.6
48513
47180.5
45856.5
44541.5
43235.7
41939.7
40654
39378.9
38115.2
36863.2
35623.8
34397.7
33185.7
31988.9
30808.7
29646.1
28502.1
224032
224011
223971
223911
223830
223728
223606
223461
223296
223108
222899
222667
222413
222137
221839
221518
221175
220809
220421
220011
219578
219123
218647
218148
217628
217086
216523
215939
215336
214714
214075
213422
212755
212077
211390
210694
209991
209281
208563
207835
207096
206343
205572
204779
203961
203117
202245
201345
200419
199469
198495
197501
196489
195460
194415
193356
192283
191197
190100
188992
187874
186749
185616
184478
183334
182185
181030
179869
178702
177529
176349
175162
173968
172767
171559
170344
169121
167892
166656
165412
164162
162904
161640
160369
159091
157807
156517
155220
153917
152608
151293
149972
148646
147313
145976
144633
143284
141931
140572
139209
137841
136468
135091
133709
132323
130933
129539
128141
126739
125334
123925
122513
121097
119679
118257
116833
115406
113976
112544
111110
109674
108236
106796
105354
103911
102466
101020
99573.5
98125.9
96677.6
95228.8
93779.7
92330.5
90881.3
89432.4
87983.9
86536
85089
83643
82198.2
80754.9
79313.3
77873.6
76435.9
75000.6
73567.9
72138
70711
69287.4
67867.3
66451
65038.8
63630.9
62227.6
60829.1
59435.9
58048.1
56666
55290.1
53920.5
52557.7
51201.9
49853.5
48512.8
47180.3
45856.3
44541.1
43235.3
41939.2
40653.3
39378
38114
36861.7
35621.9
34395.1
33182.2
31984.1
30801.8
29636
28486.9
224528
224507
224465
224402
224318
224212
224085
223935
223763
223569
223352
223113
222850
222565
222257
221926
221572
221196
220796
220374
219929
219461
218971
218457
217921
217363
216782
216179
215556
214915
214257
213584
212901
212208
211508
210802
210093
209379
208661
207938
207206
206460
205698
204912
204100
203260
202389
201488
200559
199603
198625
197625
196608
195575
194527
193464
192389
191299
190198
189084
187961
186828
185689
184544
183394
182241
181082
179917
178747
177571
176388
175199
174002
172799
171589
170372
169148
167917
166679
165434
164182
162923
161658
160386
159107
157822
156530
155233
153929
152619
151303
149981
148654
147321
145983
144639
143291
141937
140578
139214
137846
136473
135095
133713
132327
130936
129542
128144
126742
125336
123927
122515
121099
119680
118259
116834
115407
113977
112545
111111
109675
108236
106796
105354
103911
102466
101021
99573.8
98126.2
96677.9
95229
93779.9
92330.7
90881.5
89432.5
87984
86536.1
85089
83643
82198.3
80755
79313.4
77873.6
76436
75000.7
73567.9
72138
70711.1
69287.5
67867.4
66451.1
65038.8
63630.9
62227.6
60829.1
59435.9
58048
56666
55290
53920.4
52557.6
51201.8
49853.3
48512.6
47180.1
45856
44540.7
43234.8
41938.5
40652.4
39377
38112.6
36860
35619.6
34392.1
33178.2
31978.7
30794.3
29625.4
28471.6
225116
225093
225049
224983
224894
224784
224651
224494
224315
224113
223887
223638
223365
223069
222749
222406
222040
221650
221237
220800
220340
219856
219348
218817
218261
217680
217076
216449
215800
215133
214450
213755
213050
212337
211619
210899
210179
209460
208743
208026
207305
206575
205828
205057
204256
203422
202553
201650
200715
199753
198767
197760
196736
195698
194646
193581
192503
191412
190307
189190
188060
186921
185774
184621
183465
182306
181142
179973
178799
177619
176433
175241
174042
172837
171624
170405
169179
167946
166706
165459
164206
162945
161678
160405
159125
157839
156546
155247
153942
152631
151315
149992
148664
147331
145992
144647
143298
141944
140584
139220
137851
136477
135099
133717
132331
130940
129545
128147
126744
125339
123929
122517
121101
119682
118260
116836
115408
113978
112546
111112
109675
108237
106797
105355
103912
102467
101021
99574.2
98126.5
96678.1
95229.3
93780.1
92330.8
90881.6
89432.6
87984.1
86536.2
85089.1
83643.1
82198.4
80755.1
79313.4
77873.7
76436.1
75000.8
73568
72138.1
70711.1
69287.5
67867.4
66451.1
65038.9
63630.9
62227.6
60829.1
59435.9
58048
56666
55290
53920.4
52557.5
51201.6
49853.2
48512.4
47179.8
45855.6
44540.3
43234.2
41937.8
40651.5
39375.8
38111.1
36858
35617
34388.7
33173.8
31972.8
30786.3
29614.4
28456.6
225800
225775
225728
225658
225565
225448
225308
225144
224955
224743
224506
224245
223960
223651
223318
222960
222579
222173
221744
221290
220812
220309
219781
219227
218646
218039
217405
216748
216069
215372
214660
213935
213200
212458
211713
210969
210231
209503
208788
208084
207385
206681
205963
205217
204436
203614
202748
201841
200898
199925
198928
197910
196877
195830
194772
193703
192622
191529
190423
189302
188169
187023
185869
184709
183545
182380
181210
180036
178858
177674
176485
175289
174087
172879
171664
170442
169214
167978
166736
165488
164232
162970
161702
160427
159145
157857
156563
155263
153957
152646
151328
150004
148676
147341
146001
144656
143306
141951
140591
139226
137857
136483
135105
133722
132335
130944
129549
128150
126747
125341
123932
122519
121103
119684
118262
116837
115410
113980
112547
111113
109676
108238
106798
105356
103912
102467
101022
99574.6
98126.8
96678.4
95229.6
93780.4
92331
90881.8
89432.8
87984.2
86536.3
85089.3
83643.2
82198.5
80755.2
79313.5
77873.8
76436.2
75000.8
73568.1
72138.1
70711.2
69287.6
67867.5
66451.1
65038.9
63630.9
62227.6
60829.1
59435.8
58048
56665.9
55289.9
53920.3
52557.4
51201.5
49853
48512.2
47179.5
45855.2
44539.8
43233.6
41937
40650.5
39374.5
38109.4
36855.8
35614.2
34385.2
33169.1
31966.6
30778
29603.3
28442
226586
226559
226508
226434
226334
226210
226062
225887
225688
225464
225214
224939
224640
224315
223966
223592
223193
222770
222322
221849
221351
220826
220274
219693
219083
218444
217778
217086
216372
215639
214890
214125
213348
212562
211772
210988
210219
209476
208762
208077
207411
206750
206076
205371
204621
203819
202963
202055
201104
200119
199108
198077
197032
195975
194908
193832
192747
191650
190542
189419
188282
187132
185971
184803
183633
182461
181285
180106
178923
177735
176542
175342
174137
172926
171708
170483
169252
168014
166770
165519
164262
162998
161727
160451
159168
157878
156583
155282
153974
152661
151342
150018
148688
147353
146012
144666
143316
141960
140599
139234
137864
136489
135110
133727
132340
130948
129553
128154
126751
125344
123935
122522
121105
119686
118264
116839
115411
113981
112549
111114
109677
108239
106798
105356
103913
102468
101022
99575.1
98127.2
96678.8
95229.9
93780.6
92331.3
90882
89433
87984.4
86536.5
85089.4
83643.4
82198.6
80755.3
79313.6
77873.9
76436.2
75000.9
73568.2
72138.2
70711.3
69287.6
67867.5
66451.2
65038.9
63631
62227.6
60829.2
59435.8
58048
56665.9
55289.9
53920.2
52557.3
51201.3
49852.8
48511.9
47179.1
45854.8
44539.2
43232.9
41936.1
40649.4
39373.1
38107.6
36853.6
35611.3
34381.4
33164.2
31960.2
30769.6
29592.4
28427.9
227480
227451
227396
227316
227209
227077
226917
226732
226519
226281
226016
225725
225408
225066
224699
224306
223888
223446
222978
222485
221965
221417
220839
220230
219589
218915
218212
217482
216727
215950
215151
214331
213492
212640
211784
210938
210124
209355
208641
207980
207358
206755
206143
205496
204792
204021
203181
202277
201320
200323
199298
198255
197197
196129
195053
193969
192878
191778
190664
189538
188397
187243
186077
184904
183728
182549
181367
180182
178994
177801
176604
175400
174191
172976
171755
170528
169294
168054
166807
165554
164294
163028
161755
160477
159192
157901
156604
155301
153993
152678
151358
150033
148702
147365
146024
144677
143326
141969
140608
139242
137871
136496
135116
133733
132345
130953
129557
128158
126755
125348
123938
122524
121108
119688
118266
116841
115413
113983
112550
111115
109679
108240
106799
105357
103914
102469
101023
99575.5
98127.7
96679.2
95230.2
93780.9
92331.5
90882.2
89433.2
87984.6
86536.6
85089.5
83643.5
82198.7
80755.4
79313.8
77874
76436.4
75001
73568.3
72138.3
70711.4
69287.7
67867.6
66451.3
65039
63631
62227.7
60829.2
59435.8
58048
56665.9
55289.8
53920.1
52557.2
51201.2
49852.6
48511.7
47178.8
45854.4
44538.7
43232.2
41935.2
40648.2
39371.6
38105.8
36851.2
35608.3
34377.5
33159.2
31953.7
30761.3
29581.7
28414.4
228493
228461
228401
228313
228198
228054
227883
227683
227455
227200
226918
226609
226273
225912
225525
225113
224677
224216
223730
223218
222678
222108
221504
220866
220191
219481
218737
217964
217162
216332
215472
214583
213665
212728
211786
210865
209988
209183
208463
207824
207251
206712
206170
205588
204937
204203
203383
202487
201528
200524
199488
198434
197367
196290
195205
194114
193017
191911
190793
189660
188514
187355
186185
185008
183826
182642
181454
180264
179070
177872
176670
175463
174250
173031
171807
170576
169339
168096
166846
165591
164329
163060
161786
160505
159218
157926
156627
155323
154013
152697
151375
150049
148717
147379
146037
144689
143337
141979
140617
139250
137879
136503
135123
133739
132351
130958
129562
128162
126759
125351
123941
122527
121111
119691
118268
116843
115415
113984
112552
111117
109680
108241
106800
105358
103914
102469
101023
99576.1
98128.2
96679.6
95230.5
93781.2
92331.8
90882.5
89433.4
87984.8
86536.8
85089.7
83643.7
82198.9
80755.6
79313.9
77874.1
76436.5
75001.1
73568.4
72138.4
70711.4
69287.8
67867.7
66451.3
65039
63631.1
62227.7
60829.2
59435.9
58048
56665.8
55289.8
53920.1
52557
51201
49852.4
48511.4
47178.5
45853.9
44538.1
43231.4
41934.3
40647
39370.1
38103.8
36848.7
35605.1
34373.5
33154.1
31947.3
30753
29571.3
28401.6
229634
229598
229532
229436
229310
229154
228967
228751
228505
228231
227929
227600
227245
226864
226460
226032
225581
225107
224608
224083
223527
222937
222310
221643
220935
220188
219403
218585
217733
216845
215918
214949
213943
212911
211877
210873
209931
209085
208350
207725
207185
206692
206202
205670
205060
204355
203554
202668
201713
200708
199669
198609
197536
196453
195361
194263
193160
192050
190927
189790
188636
187470
186295
185114
183928
182739
181546
180350
179150
177947
176740
175529
174312
173089
171861
170627
169387
168141
166889
165630
164366
163095
161818
160535
159247
157952
156652
155346
154034
152717
151394
150066
148732
147394
146050
144702
143348
141990
140627
139260
137888
136511
135130
133746
132357
130964
129567
128167
126763
125355
123945
122531
121114
119693
118271
116845
115417
113986
112553
111118
109681
108242
106801
105359
103915
102470
101024
99576.7
98128.7
96680
95230.9
93781.6
92332.1
90882.7
89433.6
87985
86537
85089.9
83643.8
82199.1
80755.7
79314.1
77874.3
76436.6
75001.3
73568.5
72138.5
70711.5
69287.9
67867.7
66451.4
65039.1
63631.1
62227.7
60829.2
59435.9
58048
56665.8
55289.7
53920
52556.9
51200.9
49852.2
48511.1
47178.1
45853.4
44537.5
43230.7
41933.3
40645.8
39368.5
38101.9
36846.2
35602
34369.5
33149.1
31940.9
30745
29561.4
28389.5
230917
230876
230803
230697
230558
230386
230182
229947
229682
229387
229065
228717
228345
227951
227537
227102
226648
226170
225668
225136
224569
223963
223315
222621
221882
221098
220271
219402
218490
217533
216528
215474
214380
213265
212156
211090
210100
209219
208465
207832
207292
206804
206322
205798
205197
204500
203707
202827
201876
200876
199840
198779
197704
196619
195523
194417
193308
192193
191067
189925
188764
187589
186407
185221
184032
182839
181641
180439
179234
178026
176814
175598
174377
173151
171919
170682
169438
168189
166933
165672
164405
163131
161852
160567
159276
157980
156678
155370
154056
152737
151413
150084
148749
147410
146065
144715
143361
142002
140638
139269
137897
136519
135138
133753
132363
130970
129573
128172
126767
125360
123948
122534
121117
119696
118273
116847
115419
113988
112555
111120
109683
108243
106803
105360
103916
102471
101025
99577.3
98129.2
96680.5
95231.4
93781.9
92332.4
90883
89433.9
87985.2
86537.2
85090.1
83644
82199.2
80755.9
79314.2
77874.4
76436.7
75001.4
73568.6
72138.6
70711.6
69288
67867.8
66451.4
65039.1
63631.1
62227.8
60829.2
59435.9
58048
56665.8
55289.7
53919.9
52556.8
51200.7
49852
48510.8
47177.7
45853
44536.9
43229.9
41932.3
40644.6
39367
38099.9
36843.8
35598.9
34365.6
33144.1
31934.7
30737.3
29551.9
28378.1
232358
232312
232229
232110
231956
231767
231544
231289
231005
230693
230356
229997
229618
229223
228813
228386
227940
227471
226973
226439
225862
225239
224565
223836
223049
222206
221309
220362
219366
218326
217241
216119
214970
213810
212668
211580
210573
209671
208889
208222
207643
207109
206578
206014
205383
204666
203862
202978
202030
201034
200004
198947
197872
196786
195688
194577
193460
192339
191209
190062
188895
187711
186522
185330
184136
182939
181737
180531
179321
178108
176892
175671
174446
173216
171980
170738
169491
168239
166980
165716
164446
163170
161888
160601
159308
158009
156705
155395
154080
152760
151434
150103
148767
147426
146080
144729
143374
142014
140649
139280
137906
136528
135146
133760
132370
130976
129578
128177
126772
125364
123952
122538
121120
119699
118276
116850
115421
113990
112557
111122
109684
108245
106804
105361
103917
102472
101025
99577.9
98129.8
96681
95231.8
93782.3
92332.8
90883.3
89434.2
87985.5
86537.5
85090.3
83644.3
82199.4
80756.1
79314.4
77874.6
76436.9
75001.5
73568.7
72138.7
70711.7
69288
67867.9
66451.5
65039.2
63631.2
62227.8
60829.3
59435.9
58048
56665.8
55289.6
53919.8
52556.7
51200.6
49851.8
48510.6
47177.4
45852.5
44536.3
43229.2
41931.4
40643.4
39365.5
38098
36841.3
35595.8
34361.7
33139.3
31928.7
30730
29543
28367.4
234028
233976
233882
233748
233576
233368
233127
232857
232563
232247
231912
231561
231194
230814
230418
230005
229567
229098
228588
228029
227413
226732
225982
225163
224277
223330
222332
221292
220220
219116
217986
216837
215680
214526
213399
212326
211329
210420
209604
208879
208223
207602
206983
206337
205641
204878
204045
203148
202195
201202
200176
199123
198048
196960
195861
194746
193621
192491
191354
190201
189028
187839
186643
185444
184244
183042
181836
180626
179412
178195
176974
175749
174519
173284
172044
170799
169548
168292
167030
165763
164489
163211
161926
160637
159341
158040
156734
155422
154105
152783
151456
150123
148786
147444
146096
144744
143388
142027
140661
139291
137916
136538
135155
133768
132377
130983
129584
128183
126777
125369
123957
122542
121124
119703
118279
116853
115424
113992
112559
111123
109686
108246
106805
105362
103918
102473
101026
99578.6
98130.4
96681.6
95232.3
93782.8
92333.2
90883.7
89434.5
87985.8
86537.8
85090.7
83644.6
82199.7
80756.4
79314.6
77874.8
76437.1
75001.7
73568.9
72138.9
70711.9
69288.2
67868
66451.7
65039.3
63631.3
62227.9
60829.4
59436
58048
56665.8
55289.7
53919.8
52556.7
51200.5
49851.6
48510.4
47177.1
45852.1
44535.8
43228.5
41930.5
40642.3
39364
38096.2
36839.1
35592.9
34358.1
33134.8
31923.1
30723.1
29534.7
28357.7
235882
235823
235716
235565
235376
235155
234909
234646
234369
234078
233769
233439
233083
232698
232281
231827
231331
230784
230179
229506
228766
227956
227083
226153
225175
224153
223094
222009
220906
219787
218658
217525
216400
215292
214213
213180
212205
211293
210443
209653
208909
208189
207469
206730
205957
205137
204265
203345
202382
201384
200358
199304
198227
197136
196034
194914
193781
192640
191493
190334
189157
187965
186764
185560
184354
183146
181935
180721
179503
178282
177057
175827
174593
173354
172110
170861
169606
168346
167081
165810
164534
163253
161965
160673
159375
158072
156764
155450
154131
152807
151478
150144
148805
147461
146113
144760
143402
142040
140673
139302
137927
136547
135163
133776
132385
130989
129591
128188
126782
125373
123961
122545
121127
119706
118282
116855
115426
113995
112561
111125
109687
108247
106806
105363
103919
102473
101027
99579.2
98130.9
96682
95232.7
93783.1
92333.5
90884
89434.8
87986.1
86538
85090.8
83644.7
82199.9
80756.5
79314.7
77874.9
76437.2
75001.8
73569
72138.9
70711.9
69288.2
67868
66451.6
65039.3
63631.3
62227.8
60829.3
59435.9
58047.9
56665.7
55289.5
53919.7
52556.5
51200.2
49851.3
48510
47176.7
45851.6
44535.2
43227.7
41929.5
40641
39362.5
38094.3
36836.7
35590
34354.5
33130.3
31917.7
30716.5
29526.9
28348.5
237755
237688
237570
237408
237214
237000
236777
236547
236308
236047
235745
235389
234970
234488
233945
233346
232693
231989
231233
230426
229567
228659
227709
226724
225710
224669
223604
222524
221434
220338
219238
218142
217058
215992
214953
213950
212989
212069
211189
210346
209531
208731
207929
207115
206277
205407
204499
203555
202577
201570
200536
199478
198398
197304
196196
195070
193928
192777
191620
190454
189273
188078
186875
185666
184456
183244
182029
180811
179589
178364
177134
175901
174662
173420
172172
170919
169661
168398
167129
165855
164576
163292
162003
160708
159408
158102
156792
155476
154156
152830
151499
150164
148824
147479
146129
144775
143416
142052
140685
139313
137936
136556
135172
133784
132392
130996
129596
128194
126787
125378
123965
122549
121130
119709
118285
116858
115428
113997
112563
111127
109689
108249
106807
105364
103920
102474
101027
99579.8
98131.5
96682.5
95233.1
93783.5
92333.8
90884.3
89435
87986.3
86538.2
85091
83644.9
82200
80756.6
79314.8
77875
76437.3
75001.8
73569
72138.9
70711.9
69288.2
67868
66451.6
65039.3
63631.2
62227.8
60829.2
59435.8
58047.8
56665.6
55289.4
53919.5
52556.3
51200
49851
48509.7
47176.3
45851.1
44534.6
43226.9
41928.6
40639.9
39361
38092.5
36834.5
35587.2
34351.1
33126.2
31912.6
30710.4
29519.6
28340.1
239639
239565
239439
239279
239100
238914
238725
238518
238270
237953
237547
237047
236458
235798
235082
234320
233521
232690
231829
230941
230024
229079
228107
227114
226103
225074
224030
222976
221915
220849
219782
218717
217663
216625
215608
214618
213657
212723
211814
210929
210061
209201
208341
207470
206583
205672
204733
203766
202772
201752
200709
199644
198560
197461
196347
195213
194063
192904
191740
190566
189379
188180
186974
185763
184550
183334
182117
180895
179670
178441
177207
175970
174728
173481
172230
170973
169712
168446
167175
165898
164617
163330
162038
160741
159438
158131
156819
155501
154179
152852
151520
150183
148841
147495
146144
144789
143429
142064
140696
139323
137946
136565
135180
133791
132398
131002
129602
128199
126792
125382
123969
122553
121134
119712
118287
116860
115430
113999
112564
111128
109690
108250
106808
105365
103921
102475
101028
99580.4
98132
96682.9
95233.5
93783.8
92334.1
90884.6
89435.3
87986.5
86538.4
85091.2
83645.1
82200.2
80756.7
79315
77875.1
76437.3
75001.9
73569
72139
70712
69288.2
67868
66451.6
65039.2
63631.2
62227.7
60829.2
59435.7
58047.7
56665.5
55289.2
53919.4
52556.1
51199.8
49850.8
48509.4
47175.9
45850.7
44534
43226.3
41927.7
40638.8
39359.7
38090.8
36832.4
35584.7
34348
33122.4
31908
30704.9
29513.1
28332.5
241527
241448
241323
241176
241024
240850
240637
240349
239962
239464
238864
238179
237426
236622
235785
234926
234049
233158
232253
231333
230396
229442
228471
227485
226488
225478
224455
223424
222388
221345
220300
219256
218220
217195
216187
215198
214228
213276
212341
211421
210513
209609
208705
207792
206867
205924
204959
203972
202961
201928
200875
199802
198712
197606
196483
195342
194186
193022
191851
190670
189477
188274
187065
185852
184636
183418
182197
180973
179744
178512
177275
176034
174789
173539
172284
171025
169760
168491
167217
165938
164654
163365
162071
160772
159468
158158
156844
155525
154201
152873
151539
150201
148858
147510
146158
144802
143441
142076
140706
139333
137955
136573
135188
133798
132405
131008
129608
128204
126797
125386
123973
122556
121137
119715
118290
116862
115433
114000
112566
111130