/*--------------------------------*- C++ -*----------------------------------*\
  =========                 |
  \\      /  F ield         | OpenFOAM: The Open Source CFD Toolbox
   \\    /   O peration     | Website:  https://openfoam.org
    \\  /    A nd           | Version:  9
     \\/     M anipulation  |
\*---------------------------------------------------------------------------*/
FoamFile
{
    format      ascii;
    class       volScalarField;
    location    "0.014";
    object      s;
}
// * * * * * * * * * * * * * * * * * * * * * * * * * * * * * * * * * * * * * //

dimensions      [0 0 0 0 0 0 0];

internalField   nonuniform List<scalar> 
12225
(
1
1
1
1
1
1
1
1
1
1
1
1
1
1
1
1
1
0.99995
1
1
1
1
1
1
1
1
1
1
1
1
1
1
1
1
1
0.999999
1
1
1
1
1
1
1
1
1
1
1
1
1
1
1
1
1
1
1
1
1
1
1
1
1
1
1
1
1
1
1
1
1
1
1
1
1
1
1
1
1
1
1
1
1
1
1
1
1
1
1
1
1
1
1
1
1
1
1
1
1
1
1
1
1
1
1
1
1
1
1
1
1
1
1
1
1
1
1
1
1
1
1
1
1
1
1
1
1
1
1
1
1
1
1
1
1
1
1
1
1
1
1
1
1
1
1
1
1
1
1
1
1
1
1
1
1
1
1
1
1
1
1
1
1
1
1
1
1
1
1
1
1
1
1
1
1
1
1
1
1
1
1
1
1
1
1
1
1
1
1
1
1
1
1
1
1
1
1
1
1
1
1
1
1
1
1
1
1
1
1
1
1
1
1
1
1
1
1
1
1
1
1
1
1
1
1
1
1
1
1
1
1
1
1
1
1
1
1
1
1
1
1
1
1
1
1
1
1
1
1
1
1
1
1
1
1
1
1
1
1
1
1
1
1
1
1
1
1
1
1
1
1
1
1
1
1
1
1
1
1
1
1
1
1
1
1
1
1
1
1
1
1
1
1
1
1
1
1
1
1
1
1
1
1
1
1
1
1
1
1
1
1
1
1
1
1
1
1
1
1
1
1
1
1
1
1
1
1
1
1
1
1
1
1
1
1
1
1
1
1
1
1
1
1
1
1
1
1
1
1
1
1
1
1
1
1
1
1
1
1
1
1
1
1
1
1
1
1
1
1
1
1
1
1
1
1
1
1
1
1
1
1
1
1
1
1
1
1
1
1
1
1
1
1
1
1
1
1
1
1
1
1
1
1
1
1
1
1
1
1
1
1
1
1
1
1
1
1
1
1
1
1
1
1
1
1
1
1
1
1
1
1
1
1
1
1
1
1
1
1
1
1
1
1
1
1
1
1
1
1
1
1
1
1
1
1
1
1
1
1
1
1
1
1
1
1
1
1
1
1
1
1
1
1
1
1
1
1
1
1
1
1
1
1
1
1
1
1
1
1
1
1
1
1
1
1
1
1
1
1
1
1
1
1
1
1
1
1
1
1
1
1
1
1
1
1
1
1
1
1
1
1
1
1
1
1
1
1
1
1
1
1
1
1
1
1
1
1
1
1
1
1
1
9.31762e-14
1.22419e-12
9.52481e-12
5.05403e-11
2.09986e-10
7.35592e-10
2.3092e-09
6.74511e-09
1.8507e-08
4.67912e-08
9.75981e-08
1.58485e-07
2.46253e-07
5.42068e-07
1.29934e-06
3.09197e-06
8.00794e-06
2.42001e-05
8.073e-05
0.000264723
0.00076342
0.00180539
0.00351699
0.00578746
0.00845146
0.0115922
0.01551
0.0204069
0.0262216
0.0326917
0.039448
0.0460956
0.052258
0.0576279
0.0621123
0.065849
0.0690146
0.0717123
0.0739946
0.0760447
0.0781118
0.0801972
0.0824631
0.0851259
0.0878968
0.0908206
0.0924841
0.0930671
0.0930249
0.0924767
0.0921413
0.0903518
0.0867416
0.0826278
0.0804311
0.0757381
0.0709874
0.0660902
0.0596959
0.0553688
0.0483677
0.0428238
0.0363327
0.0308398
0.0251629
0.0203506
0.0159758
0.0122092
0.00905491
0.00652727
0.00457205
0.00310808
0.00204416
0.0012996
0.000798889
0.000474654
0.000272398
0.000150997
8.08674e-05
4.18537e-05
2.09422e-05
1.01354e-05
4.74677e-06
2.15227e-06
9.45221e-07
4.02246e-07
1.65937e-07
6.63821e-08
2.57613e-08
9.70157e-09
3.54671e-09
1.25913e-09
4.34249e-10
1.45546e-10
4.74282e-11
1.50329e-11
4.63688e-12
1.39254e-12
4.07403e-13
1.16177e-13
3.23114e-14
8.77e-15
2.32451e-15
6.02057e-16
1.5248e-16
3.77883e-17
9.1701e-18
2.18055e-18
5.08436e-19
1.16304e-19
2.62434e-20
5.85918e-21
1.29305e-21
2.81816e-22
6.06129e-23
1.2857e-23
2.6882e-24
5.53899e-25
1.12462e-25
2.24984e-26
4.43431e-27
8.6099e-28
1.64682e-28
3.1028e-29
5.75848e-30
1.05269e-30
1.8955e-31
3.36181e-32
5.87289e-33
1.01055e-33
1.71276e-34
2.85939e-35
4.70209e-36
7.61657e-37
1.21533e-37
1.91037e-38
2.95837e-39
4.51367e-40
6.78549e-41
1.00516e-41
1.46731e-42
2.11087e-43
2.99281e-44
4.18209e-45
5.75998e-46
7.8195e-47
1.04636e-47
1.3802e-48
1.79462e-49
2.30032e-50
2.90671e-51
3.62098e-52
4.44706e-53
5.38462e-54
6.42815e-55
7.5662e-56
8.78096e-57
1.00483e-57
1.1338e-58
1.26149e-59
1.38403e-60
1.49736e-61
1.59745e-62
1.68055e-63
1.74337e-64
1.78334e-65
1.79871e-66
1.78872e-67
1.75363e-68
1.6946e-69
1.61384e-70
1.51409e-71
1.39903e-72
1.27203e-73
1.13763e-74
9.98563e-76
8.59799e-77
7.21608e-78
5.89434e-79
4.35204e-80
2.2361e-12
3.43977e-11
3.04069e-10
1.79417e-09
8.04367e-09
2.93256e-08
9.33286e-08
2.77882e-07
8.27794e-07
2.44485e-06
6.5318e-06
1.58891e-05
3.56397e-05
7.49075e-05
0.000150668
0.00029317
0.000553014
0.00100785
0.00176818
0.0029813
0.00482303
0.0074651
0.0110558
0.0158102
0.0221948
0.0310044
0.0432295
0.0598502
0.0816581
0.109056
0.141938
0.179888
0.222207
0.267809
0.315061
0.359619
0.392131
0.426773
0.460439
0.480882
0.505419
0.528985
0.543857
0.560756
0.575071
0.583387
0.589925
0.593063
0.594502
0.591948
0.588844
0.583043
0.571194
0.556451
0.546957
0.526532
0.507305
0.484342
0.458316
0.43041
0.396308
0.361246
0.321248
0.280483
0.238647
0.199679
0.166479
0.135587
0.107031
0.0819107
0.0607735
0.0439299
0.0308703
0.0209265
0.0136916
0.00865857
0.00528601
0.00311206
0.00176783
0.000969187
0.000512995
0.000262304
0.000129643
6.19748e-05
2.86734e-05
1.28471e-05
5.57762e-06
2.34779e-06
9.58684e-07
3.7996e-07
1.46245e-07
5.46947e-08
1.98869e-08
7.03388e-09
2.42144e-09
8.11818e-10
2.65217e-10
8.44808e-11
2.62531e-11
7.96379e-12
2.35949e-12
6.83148e-13
1.93391e-13
5.35551e-14
1.45149e-14
3.85191e-15
1.00131e-15
2.55071e-16
6.36966e-17
1.55986e-17
3.74712e-18
8.83229e-19
2.04334e-19
4.64106e-20
1.03517e-20
2.2679e-21
4.88111e-22
1.03336e-22
2.15315e-23
4.4153e-24
8.9103e-25
1.76958e-25
3.45862e-26
6.65272e-27
1.25943e-27
2.34662e-28
4.30351e-29
7.76843e-30
1.38036e-30
2.41447e-31
4.15759e-32
7.04818e-33
1.17639e-33
1.93328e-34
3.12851e-35
4.98552e-36
7.82424e-37
1.20939e-37
1.84122e-38
2.76119e-39
4.0791e-40
5.93657e-41
8.51211e-42
1.20252e-42
1.67388e-43
2.2959e-44
3.10311e-45
4.1331e-46
5.42511e-47
7.01799e-48
8.94762e-49
1.12437e-49
1.39264e-50
1.70026e-51
2.04622e-52
2.42757e-53
2.83916e-54
3.27357e-55
3.72121e-56
4.17054e-57
4.6085e-58
5.02106e-59
5.394e-60
5.71361e-61
5.96754e-62
6.14558e-63
6.24024e-64
6.24734e-65
6.16601e-66
5.99926e-67
5.7528e-68
5.43623e-69
5.05974e-70
4.63786e-71
4.18123e-72
3.70771e-73
3.22227e-74
2.746e-75
2.26881e-76
1.82223e-77
3.98795e-11
6.8804e-10
6.64316e-09
4.36433e-08
2.16795e-07
8.63152e-07
2.86901e-06
8.20436e-06
2.06809e-05
4.69685e-05
9.82616e-05
0.000192682
0.000359061
0.000642984
0.00111509
0.00187846
0.00307294
0.00487637
0.00750281
0.0112064
0.0163244
0.0233867
0.0333305
0.0477967
0.0693988
0.101909
0.150422
0.221542
0.323686
0.449361
0.54537
0.632496
0.711145
0.752426
0.795723
0.820812
0.84361
0.86849
0.881144
0.898562
0.906421
0.914475
0.922053
0.925879
0.929478
0.930999
0.932037
0.933463
0.934456
0.936121
0.937605
0.938079
0.937867
0.936931
0.935709
0.934239
0.931831
0.927126
0.920545
0.912143
0.900398
0.884291
0.862135
0.833341
0.795061
0.744946
0.680003
0.605431
0.522942
0.435117
0.346436
0.264507
0.199618
0.146399
0.10269
0.0693393
0.0452911
0.0284318
0.0171657
0.00997825
0.00558358
0.00300984
0.00156405
0.000784083
0.000379495
0.000177463
8.02385e-05
3.51024e-05
1.48686e-05
6.102e-06
2.42792e-06
9.37221e-07
3.51225e-07
1.27866e-07
4.52523e-08
1.55789e-08
5.22079e-09
1.70423e-09
5.42249e-10
1.68279e-10
5.0967e-11
1.50745e-11
4.35651e-12
1.23088e-12
3.40175e-13
9.2004e-14
2.4363e-14
6.31915e-15
1.60607e-15
4.00137e-16
9.77555e-17
2.3426e-17
5.50816e-18
1.27111e-18
2.8796e-19
6.40556e-20
1.39943e-20
3.00323e-21
6.33202e-22
1.31186e-22
2.67109e-23
5.35194e-24
1.05542e-24
2.04847e-25
3.91316e-26
7.35744e-27
1.36156e-27
2.4801e-28
4.44675e-29
7.84825e-30
1.36357e-30
2.33225e-31
3.92723e-32
6.51076e-33
1.06276e-33
1.70813e-34
2.70341e-35
4.21338e-36
6.46695e-37
9.77554e-38
1.45538e-38
2.13416e-39
3.0826e-40
4.386e-41
6.14758e-42
8.48883e-43
1.15484e-43
1.54794e-44
2.0444e-45
2.66061e-46
3.41211e-47
4.31237e-48
5.37135e-49
6.59396e-50
7.97862e-51
9.5159e-52
1.11875e-52
1.29657e-53
1.48136e-54
1.66857e-55
1.85293e-56
2.02873e-57
2.19003e-58
2.331e-59
2.44629e-60
2.53132e-61
2.58256e-62
2.59781e-63
2.5762e-64
2.51854e-65
2.42667e-66
2.30437e-67
2.15533e-68
1.98577e-69
1.79954e-70
1.60475e-71
1.40285e-72
1.20424e-73
1.00494e-74
8.21128e-76
2.75674e-10
4.79674e-09
4.42238e-08
2.67256e-07
1.18068e-06
4.13169e-06
1.24408e-05
3.33656e-05
8.07542e-05
0.000179818
0.000380093
0.000762352
0.00137541
0.00228981
0.00373955
0.0059904
0.00915346
0.0135247
0.0200941
0.0293393
0.0420357
0.0605472
0.0885101
0.132543
0.203693
0.319311
0.465517
0.605283
0.721343
0.781506
0.828216
0.860275
0.875658
0.885818
0.894685
0.901597
0.908184
0.917099
0.923853
0.928371
0.929783
0.930447
0.930735
0.930814
0.930582
0.930612
0.930644
0.933243
0.935543
0.939098
0.946195
0.950015
0.953674
0.958387
0.962324
0.967919
0.973306
0.977172
0.979435
0.982891
0.984759
0.985571
0.985801
0.985122
0.981897
0.976448
0.967603
0.953841
0.933173
0.902283
0.856365
0.788204
0.689741
0.571545
0.444502
0.322879
0.227428
0.154854
0.100403
0.0625596
0.0373848
0.0214385
0.0118109
0.00625656
0.00318989
0.00156682
0.000742106
0.000339237
0.000149797
6.39486e-05
2.64144e-05
1.05653e-05
4.09541e-06
1.5397e-06
5.61867e-07
1.99173e-07
6.86371e-08
2.30115e-08
7.51118e-09
2.38867e-09
7.40608e-10
2.2402e-10
6.61491e-11
1.9079e-11
5.37803e-12
1.48236e-12
3.99723e-13
1.05496e-13
2.7263e-14
6.90144e-15
1.71196e-15
4.16279e-16
9.92543e-17
2.32121e-17
5.326e-18
1.19927e-18
2.65076e-19
5.75248e-20
1.22592e-20
2.56609e-21
5.27675e-22
1.06607e-22
2.11662e-23
4.13484e-24
7.94785e-25
1.50325e-25
2.79785e-26
5.12443e-27
9.23674e-28
1.63859e-28
2.86103e-29
4.91701e-30
8.31823e-31
1.38528e-31
2.27115e-32
3.6659e-33
5.82595e-34
9.11655e-35
1.40473e-35
2.13148e-36
3.18502e-37
4.68719e-38
6.79364e-39
9.69856e-40
1.3638e-40
1.88913e-41
2.57787e-42
3.4656e-43
4.59027e-44
5.99057e-45
7.70359e-46
9.76199e-47
1.21907e-47
1.50034e-48
1.81988e-49
2.17577e-50
2.56402e-51
2.97844e-52
3.41066e-53
3.85022e-54
4.28498e-55
4.70157e-56
5.08603e-57
5.42461e-58
5.70445e-59
5.91451e-60
6.04601e-61
6.09341e-62
6.05409e-63
5.92954e-64
5.72358e-65
5.4447e-66
5.10143e-67
4.70791e-68
4.27374e-69
3.81707e-70
3.34386e-71
2.87585e-72
2.41142e-73
1.98018e-74
4.70698e-10
8.23052e-09
7.95429e-08
5.34815e-07
2.77118e-06
1.14659e-05
3.81581e-05
0.000103966
0.000238149
0.000471649
0.000835275
0.00143158
0.00255796
0.00445982
0.00748439
0.0122773
0.0198347
0.0312639
0.0455795
0.0648581
0.0969089
0.145671
0.226066
0.352516
0.485801
0.622062
0.746023
0.816258
0.850568
0.865323
0.871055
0.872534
0.870588
0.864739
0.85342
0.840512
0.825729
0.812217
0.797094
0.779267
0.760244
0.74504
0.728608
0.720892
0.717487
0.717429
0.719089
0.727541
0.741669
0.75662
0.781463
0.80383
0.825193
0.847763
0.866976
0.888371
0.914094
0.935719
0.950432
0.968834
0.977754
0.98479
0.988705
0.992975
0.994861
0.996047
0.996584
0.996565
0.995444
0.992994
0.988414
0.980311
0.966146
0.941316
0.897661
0.821594
0.697835
0.54271
0.384986
0.258851
0.167572
0.103202
0.0608331
0.034319
0.0185583
0.00963175
0.00480363
0.00230484
0.00106513
0.000474596
0.000204106
8.48071e-05
3.40788e-05
1.32564e-05
4.99655e-06
1.82647e-06
6.48105e-07
2.23431e-07
7.48983e-08
2.44332e-08
7.76247e-09
2.40353e-09
7.25813e-10
2.13899e-10
6.15547e-11
1.73073e-11
4.75712e-12
1.27883e-12
3.36387e-13
8.66172e-14
2.18413e-14
5.39537e-15
1.30611e-15
3.09952e-16
7.2126e-17
1.64623e-17
3.68643e-18
8.10106e-19
1.74742e-19
3.70052e-20
7.69533e-21
1.5717e-21
3.1533e-22
6.21561e-23
1.2051e-23
2.29833e-24
4.31203e-25
7.95898e-26
1.44534e-26
2.58256e-27
4.54077e-28
7.85673e-29
1.33788e-29
2.24226e-30
3.69894e-31
6.0065e-32
9.60169e-33
1.51107e-33
2.3413e-34
3.57184e-35
5.3656e-36
7.93705e-37
1.15622e-37
1.6588e-38
2.3439e-39
3.26217e-40
4.47223e-41
6.03975e-42
8.03558e-43
1.05329e-43
1.36031e-44
1.73105e-45
2.17068e-46
2.68237e-47
3.26665e-48
3.92077e-49
4.63821e-50
5.40829e-51
6.21615e-52
7.04295e-53
7.86642e-54
8.66174e-55
9.40264e-56
1.00629e-56
1.06177e-57
1.10451e-58
1.13275e-59
1.14529e-60
1.1415e-61
1.12149e-62
1.08586e-63
1.03605e-64
9.73657e-66
9.01172e-67
8.20567e-68
7.3503e-69
6.46208e-70
5.57724e-71
4.70484e-72
3.88974e-73
6.78462e-10
1.25736e-08
1.2302e-07
7.95414e-07
3.78423e-06
1.40947e-05
4.4345e-05
0.000123347
0.000307526
0.000706832
0.00152929
0.00305625
0.00559552
0.00974464
0.0162369
0.0257519
0.0388185
0.0567888
0.0873281
0.139007
0.223194
0.338289
0.463527
0.577044
0.698779
0.799406
0.842192
0.85928
0.863259
0.86243
0.851317
0.82162
0.770541
0.695135
0.652551
0.608766
0.569276
0.548203
0.521274
0.506049
0.49304
0.48192
0.476805
0.474748
0.474491
0.476741
0.478251
0.479575
0.481783
0.486674
0.49319
0.504489
0.522543
0.55044
0.591937
0.639024
0.702289
0.768226
0.833391
0.888741
0.922746
0.944999
0.961615
0.978526
0.987099
0.99321
0.996406
0.997997
0.998769
0.999095
0.999182
0.998924
0.998117
0.996298
0.992436
0.984306
0.967199
0.930889
0.853825
0.71225
0.528012
0.352401
0.225425
0.136909
0.0792679
0.0438242
0.0231762
0.0117431
0.00570934
0.00266732
0.00119905
0.00051932
0.000216974
8.75531e-05
3.41609e-05
1.29022e-05
4.7221e-06
1.67645e-06
5.77899e-07
1.93607e-07
6.30927e-08
2.00162e-08
6.18673e-09
1.86437e-09
5.48132e-10
1.57322e-10
4.41056e-11
1.20846e-11
3.23757e-12
8.48504e-13
2.17632e-13
5.46506e-14
1.34411e-14
3.23882e-15
7.64881e-16
1.77087e-16
4.02053e-17
8.95368e-18
1.95636e-18
4.19493e-19
8.8293e-20
1.82449e-20
3.70218e-21
7.37805e-22
1.44484e-22
2.78223e-23
5.26875e-24
9.81298e-25
1.79767e-25
3.23946e-26
5.74282e-27
1.00163e-27
1.71891e-28
2.90269e-29
4.82374e-30
7.88928e-31
1.26998e-31
2.01229e-32
3.13872e-33
4.81963e-34
7.28623e-35
1.08455e-35
1.58957e-36
2.29417e-37
3.26073e-38
4.56433e-39
6.29277e-40
8.54553e-41
1.14314e-41
1.50642e-42
1.95575e-43
2.50165e-44
3.15293e-45
3.91563e-46
4.79198e-47
5.77936e-48
6.86942e-49
8.04746e-50
9.29219e-51
1.05759e-51
1.18653e-52
1.31224e-53
1.43067e-54
1.53767e-55
1.62928e-56
1.70191e-57
1.75258e-58
1.77915e-59
1.78034e-60
1.75602e-61
1.7069e-62
1.6349e-63
1.54243e-64
1.43307e-65
1.31015e-66
1.17826e-67
1.04073e-68
9.02614e-70
7.66764e-71
6.39042e-72
5.86335e-10
1.11779e-08
1.12106e-07
7.51587e-07
3.79336e-06
1.57193e-05
5.38874e-05
0.00015647
0.000392356
0.000860577
0.00174958
0.00346536
0.00656423
0.0118228
0.0205978
0.0351322
0.0595679
0.104007
0.179587
0.28486
0.409267
0.536967
0.635766
0.725073
0.814074
0.848297
0.859074
0.860539
0.853939
0.826999
0.76212
0.651363
0.579554
0.543417
0.508255
0.48816
0.470662
0.460162
0.452544
0.447237
0.444922
0.444049
0.444014
0.445902
0.449176
0.450914
0.452833
0.453508
0.450935
0.444923
0.435669
0.426711
0.420208
0.417009
0.416061
0.430717
0.462007
0.51714
0.60854
0.727929
0.820431
0.864799
0.905334
0.939877
0.962869
0.978472
0.988235
0.994007
0.997162
0.998723
0.999388
0.99966
0.999759
0.999768
0.999639
0.999194
0.998023
0.995055
0.987604
0.968961
0.922042
0.80522
0.609592
0.406381
0.254899
0.151699
0.085829
0.0462711
0.0238194
0.0117314
0.00553801
0.00251008
0.00109409
0.000459309
0.000185982
7.27353e-05
2.75097e-05
1.00746e-05
3.57653e-06
1.23216e-06
4.12357e-07
1.34182e-07
4.24916e-08
1.31056e-08
3.93979e-09
1.1552e-09
3.30582e-10
9.2384e-11
2.52258e-11
6.7335e-12
1.75787e-12
4.49022e-13
1.12269e-13
2.74867e-14
6.59188e-15
1.54903e-15
3.56788e-16
8.05714e-17
1.78439e-17
3.87659e-18
8.26347e-19
1.72873e-19
3.55005e-20
7.15771e-21
1.4172e-21
2.75813e-22
5.27697e-23
9.92625e-24
1.83596e-24
3.33939e-25
5.97369e-26
1.05108e-26
1.81924e-27
3.09778e-28
5.18986e-29
8.55547e-30
1.38789e-30
2.21576e-31
3.48164e-32
5.38485e-33
8.1983e-34
1.22876e-34
1.81317e-35
2.63431e-36
3.76864e-37
5.30915e-38
7.36577e-39
1.00646e-39
1.35453e-40
1.79566e-41
2.34497e-42
3.01686e-43
3.82388e-44
4.77546e-45
5.87644e-46
7.1257e-47
8.51492e-48
1.00276e-48
1.16386e-49
1.33141e-50
1.50123e-51
1.66852e-52
1.828e-53
1.9742e-54
2.10176e-55
2.20577e-56
2.28199e-57
2.32721e-58
2.33935e-59
2.31777e-60
2.26303e-61
2.17721e-62
2.06328e-63
1.92558e-64
1.76865e-65
1.59818e-66
1.41924e-67
1.23805e-68
1.05956e-69
8.90634e-71
3.64204e-10
7.52994e-09
8.13017e-08
5.94602e-07
3.26127e-06
1.40095e-05
4.97812e-05
0.000150839
0.000406433
0.00100236
0.00223027
0.00453416
0.00876684
0.0165931
0.030858
0.0567697
0.101778
0.173297
0.279282
0.42512
0.572901
0.670779
0.735931
0.810038
0.848541
0.858942
0.859955
0.852158
0.819906
0.735414
0.606457
0.54228
0.509612
0.490155
0.472611
0.462837
0.455125
0.448452
0.445092
0.443172
0.442779
0.443093
0.445137
0.447939
0.450855
0.456568
0.465114
0.474923
0.480059
0.483501
0.485494
0.47325
0.452791
0.423167
0.408033
0.404612
0.414907
0.44119
0.486659
0.566205
0.674674
0.768383
0.831667
0.889063
0.93154
0.958963
0.975917
0.986322
0.992584
0.996219
0.998239
0.999259
0.999704
0.999862
0.999918
0.999931
0.999903
0.99976
0.999289
0.997847
0.993543
0.980907
0.944141
0.83659
0.62249
0.406049
0.248824
0.14411
0.0791777
0.0413842
0.0206295
0.00983041
0.00448758
0.00196639
0.000828597
0.000336336
0.00013172
4.98448e-05
1.82506e-05
6.47407e-06
2.22756e-06
7.44232e-07
2.41682e-07
7.63549e-08
2.34882e-08
7.04069e-09
2.05798e-09
5.86961e-10
1.63447e-10
4.44611e-11
1.18206e-11
3.073e-12
7.81507e-13
1.94504e-13
4.73928e-14
1.13094e-14
2.64394e-15
6.05739e-16
1.3604e-16
2.99582e-17
6.47062e-18
1.37108e-18
2.85081e-19
5.81778e-20
1.1655e-20
2.29377e-21
4.43627e-22
8.43289e-23
1.57572e-23
2.89451e-24
5.22783e-25
9.28473e-26
1.6217e-26
2.78593e-27
4.70782e-28
7.8264e-29
1.28009e-29
2.06012e-30
3.26259e-31
5.08495e-32
7.80015e-33
1.17773e-33
1.75046e-34
2.56129e-35
3.68975e-36
5.23363e-37
7.30986e-38
1.00542e-38
1.36193e-39
1.81703e-40
2.3878e-41
3.09096e-42
3.94167e-43
4.95208e-44
6.12976e-45
7.4761e-46
8.9848e-47
1.06407e-47
1.24189e-48
1.42847e-49
1.61939e-50
1.80946e-51
1.99285e-52
2.16342e-53
2.31505e-54
2.44195e-55
2.53902e-56
2.60221e-57
2.6287e-58
2.6172e-59
2.56788e-60
2.48253e-61
2.3642e-62
2.21736e-63
2.04715e-64
1.85972e-65
1.66121e-66
1.45845e-67
1.25777e-68
1.06655e-69
1.8286e-10
4.04783e-09
4.63642e-08
3.59018e-07
2.09944e-06
9.87393e-06
3.86791e-05
0.000129007
0.000371002
0.000943164
0.00216859
0.00461118
0.00937004
0.0182761
0.0348599
0.0655114
0.123147
0.224698
0.376011
0.549727
0.683434
0.747711
0.795091
0.842533
0.858187
0.86066
0.855559
0.826676
0.751054
0.624277
0.536071
0.501259
0.484511
0.474977
0.46414
0.453028
0.44413
0.433073
0.424042
0.410735
0.394516
0.37716
0.365934
0.361623
0.364625
0.381609
0.401596
0.428272
0.458448
0.481647
0.49863
0.506422
0.509156
0.499832
0.476359
0.449518
0.440933
0.438728
0.4621
0.504433
0.570477
0.662785
0.743972
0.820022
0.893824
0.941817
0.967901
0.982075
0.99002
0.994546
0.997089
0.998507
0.999289
0.999698
0.999882
0.999951
0.999973
0.999977
0.999963
0.999886
0.999591
0.998534
0.994879
0.982612
0.942396
0.811703
0.570609
0.359303
0.212819
0.119016
0.0630658
0.0317676
0.0152559
0.00700313
0.00308024
0.00130095
0.000528672
0.000207086
7.83206e-05
2.86435e-05
1.01439e-05
3.48303e-06
1.16088e-06
3.75965e-07
1.18427e-07
3.63139e-08
1.08481e-08
3.15941e-09
8.97661e-10
2.48963e-10
6.74394e-11
1.78513e-11
4.61965e-12
1.16928e-12
2.89588e-13
7.02034e-14
1.6665e-14
3.875e-15
8.82858e-16
1.97149e-16
4.3162e-17
9.26682e-18
1.9516e-18
4.03259e-19
8.17718e-20
1.62817e-20
3.18465e-21
6.12015e-22
1.15575e-22
2.145e-23
3.91304e-24
7.0175e-25
1.23735e-25
2.14533e-26
3.65801e-27
6.13471e-28
1.01202e-28
1.64238e-29
2.62237e-30
4.11997e-31
6.36961e-32
9.69152e-33
1.45134e-33
2.13936e-34
3.10435e-35
4.43476e-36
6.23759e-37
8.63863e-38
1.17812e-38
1.58229e-39
2.09299e-40
2.72686e-41
3.4995e-42
4.42413e-43
5.51008e-44
6.76122e-45
8.17441e-46
9.73821e-47
1.14319e-47
1.3225e-48
1.50778e-49
1.69418e-50
1.87622e-51
2.04795e-52
2.20333e-53
2.33654e-54
2.44229e-55
2.51621e-56
2.55508e-57
2.55711e-58
2.52192e-59
2.45075e-60
2.34619e-61
2.21218e-62
2.05364e-63
1.87635e-64
1.68655e-65
1.4908e-66
1.2957e-67
1.10846e-68
7.75816e-11
1.93118e-09
2.39088e-08
1.99723e-07
1.25052e-06
6.2454e-06
2.59453e-05
9.24545e-05
0.000288542
0.000790487
0.00194994
0.00439402
0.0092663
0.018952
0.0378271
0.0748682
0.145259
0.266871
0.441237
0.627567
0.741648
0.792317
0.825713
0.85336
0.860259
0.860273
0.849595
0.805935
0.691533
0.559683
0.508721
0.487728
0.477198
0.466887
0.454464
0.439247
0.418142
0.385954
0.336808
0.291682
0.249901
0.227238
0.216239
0.212753
0.218564
0.233095
0.259195
0.289719
0.332602
0.384503
0.453244
0.497866
0.51582
0.521968
0.511422
0.484865
0.466521
0.461773
0.463951
0.478414
0.513179
0.559988
0.597283
0.673077
0.79823
0.899183
0.951765
0.976492
0.988139
0.993825
0.996746
0.998304
0.999137
0.999578
0.999804
0.999916
0.999967
0.999986
0.999992
0.999991
0.999976
0.999904
0.999599
0.998374
0.993675
0.976379
0.914639
0.718341
0.467508
0.28271
0.160522
0.0860139
0.0436739
0.0210879
0.0097132
0.00427985
0.00180852
0.000734565
0.000287367
0.000108478
3.95786e-05
1.39779e-05
4.78482e-06
1.58947e-06
5.12951e-07
1.60974e-07
4.91674e-08
1.46279e-08
4.24218e-09
1.2e-09
3.313e-10
8.93206e-11
2.35285e-11
6.05832e-12
1.52553e-12
3.75816e-13
9.0612e-14
2.13898e-14
4.94523e-15
1.12012e-15
2.48639e-16
5.41037e-17
1.1544e-17
2.41583e-18
4.95974e-19
9.99437e-20
1.97765e-20
3.84348e-21
7.33756e-22
1.37627e-22
2.53659e-23
4.59467e-24
8.18058e-25
1.43185e-25
2.46409e-26
4.1698e-27
6.93948e-28
1.13591e-28
1.82899e-29
2.8972e-30
4.51536e-31
6.92462e-32
1.04504e-32
1.55217e-33
2.26915e-34
3.26542e-35
4.62601e-36
6.45214e-37
8.86069e-38
1.19821e-38
1.59564e-39
2.09271e-40
2.70325e-41
3.43953e-42
4.31103e-43
5.32303e-44
6.47537e-45
7.76111e-46
9.16568e-47
1.06662e-47
1.22317e-48
1.38234e-49
1.53961e-50
1.69003e-51
1.82842e-52
1.94969e-53
2.04912e-54
2.12264e-55
2.16711e-56
2.18053e-57
2.16215e-58
2.11253e-59
2.0335e-60
1.92808e-61
1.80026e-62
1.65481e-63
1.49709e-64
1.33268e-65
1.16738e-66
1.00748e-67
3.02388e-11
7.32641e-10
1.01559e-08
9.45412e-08
6.57392e-07
3.62708e-06
1.64688e-05
6.33201e-05
0.000210359
0.00061773
0.00162506
0.00389981
0.00862521
0.0179183
0.0363137
0.0733654
0.146261
0.275525
0.463811
0.667165
0.771192
0.813698
0.83641
0.854425
0.860018
0.858438
0.835911
0.766029
0.642124
0.540551
0.502694
0.48411
0.472818
0.463399
0.444639
0.412732
0.360422
0.292518
0.236464
0.197584
0.169675
0.155847
0.14907
0.147092
0.15491
0.16771
0.194472
0.224425
0.259824
0.298319
0.340829
0.435142
0.509391
0.534601
0.530694
0.505831
0.474965
0.46554
0.466085
0.469064
0.471033
0.455516
0.428836
0.441228
0.561399
0.768057
0.895124
0.954685
0.98079
0.99173
0.996248
0.9982
0.999113
0.999565
0.999792
0.999905
0.999959
0.999983
0.999994
0.999997
0.999997
0.999993
0.99997
0.999858
0.999354
0.997194
0.988412
0.954365
0.825403
0.560459
0.344365
0.19774
0.10676
0.0544621
0.0263616
0.0121511
0.00535069
0.0022573
0.000914621
0.000356729
0.000134197
4.87774e-05
1.71572e-05
5.84829e-06
1.93422e-06
6.21378e-07
1.94093e-07
5.9e-08
1.74675e-08
5.04035e-09
1.4185e-09
3.89581e-10
1.04474e-10
2.73702e-11
7.00839e-12
1.75476e-12
4.29792e-13
1.03016e-13
2.41721e-14
5.5544e-15
1.25029e-15
2.75785e-16
5.96265e-17
1.26397e-17
2.62769e-18
5.35988e-19
1.07317e-19
2.1096e-20
4.07227e-21
7.72071e-22
1.43793e-22
2.6312e-23
4.73125e-24
8.36124e-25
1.45246e-25
2.48048e-26
4.16512e-27
6.87754e-28
1.11688e-28
1.78402e-29
2.80326e-30
4.33355e-31
6.59156e-32
9.866e-33
1.45327e-33
2.10691e-34
3.00664e-35
4.22369e-36
5.84142e-37
7.95421e-38
1.06651e-38
1.40818e-39
1.8311e-40
2.3451e-41
2.95825e-42
3.67594e-43
4.49977e-44
5.42664e-45
6.44789e-46
7.54878e-47
8.7083e-48
9.89943e-49
1.10899e-49
1.22435e-50
1.33216e-51
1.42855e-52
1.50982e-53
1.57271e-54
1.61457e-55
1.63357e-56
1.62879e-57
1.6003e-58
1.54916e-59
1.47734e-60
1.38765e-61
1.28352e-62
1.16893e-63
1.04805e-64
9.25278e-66
8.05471e-67
1.18714e-11
2.93355e-10
4.00971e-09
3.89065e-08
2.90896e-07
1.7388e-06
8.58752e-06
3.60046e-05
0.000131762
0.000426891
0.00122821
0.00314807
0.00722265
0.0154725
0.0324404
0.0674172
0.136693
0.261292
0.447745
0.657128
0.770079
0.814305
0.836133
0.852872
0.858797
0.857362
0.836453
0.76855
0.646697
0.538956
0.49572
0.478601
0.470655
0.454027
0.422265
0.367409
0.293266
0.222988
0.179628
0.148058
0.127213
0.11523
0.10729
0.104619
0.110709
0.122332
0.145059
0.179346
0.22393
0.269799
0.302083
0.34982
0.462203
0.542144
0.565768
0.554075
0.506476
0.487045
0.489448
0.488614
0.476209
0.440964
0.39188
0.374558
0.3933
0.503741
0.732796
0.882282
0.951739
0.981615
0.993322
0.997542
0.999027
0.999581
0.999812
0.999914
0.999961
0.999983
0.999993
0.999997
0.999999
0.999999
0.999997
0.999987
0.999934
0.999672
0.998456
0.993124
0.970972
0.882586
0.630408
0.390729
0.225761
0.12227
0.0624223
0.0301841
0.0138805
0.0060919
0.00255958
0.00103237
0.000400666
0.000149943
5.42082e-05
1.89628e-05
6.42771e-06
2.11385e-06
6.75217e-07
2.09697e-07
6.33737e-08
1.86526e-08
5.35055e-09
1.49682e-09
4.08616e-10
1.08912e-10
2.83574e-11
7.21602e-12
1.79539e-12
4.36945e-13
1.04057e-13
2.42574e-14
5.53732e-15
1.23815e-15
2.71271e-16
5.82518e-17
1.22634e-17
2.53227e-18
5.13067e-19
1.02024e-19
1.99152e-20
3.8169e-21
7.18396e-22
1.32808e-22
2.41198e-23
4.3041e-24
7.54782e-25
1.30095e-25
2.20424e-26
3.67181e-27
6.01429e-28
9.68783e-29
1.53483e-29
2.39188e-30
3.667e-31
5.53128e-32
8.20974e-33
1.19914e-33
1.7238e-34
2.43907e-35
3.39724e-36
4.65834e-37
6.28894e-38
8.35995e-39
1.09432e-39
1.41072e-40
1.79111e-41
2.23987e-42
2.75914e-43
3.34818e-44
4.00272e-45
4.71457e-46
5.47136e-47
6.25661e-48
7.05013e-49
7.82868e-50
8.56706e-51
9.23932e-52
9.82027e-53
1.0287e-53
1.06202e-54
1.08055e-55
1.08347e-56
1.07057e-57
1.04233e-58
9.99872e-60
9.44896e-61
8.79559e-62
8.06444e-63
7.28279e-64
6.47995e-65
5.68895e-66
2.48605e-11
1.06473e-10
1.51489e-09
1.5984e-08
1.21156e-07
7.59461e-07
3.98818e-06
1.78374e-05
7.0133e-05
0.000244112
0.000752532
0.00206646
0.00511705
0.0117516
0.0257446
0.0545571
0.112605
0.224905
0.399954
0.617997
0.756303
0.809414
0.833103
0.847152
0.854667
0.852863
0.833186
0.774087
0.662891
0.550817
0.499317
0.478309
0.466505
0.454176
0.426216
0.373857
0.299353
0.226185
0.18102
0.146608
0.120131
0.102557
0.0911358
0.0913965
0.0977025
0.108138
0.127827
0.161722
0.206485
0.258307
0.292475
0.328647
0.408953
0.52494
0.587158
0.593014
0.567309
0.538805
0.548471
0.592308
0.604121
0.544796
0.449679
0.39258
0.384196
0.42263
0.554001
0.742601
0.877905
0.949833
0.981729
0.993994
0.998132
0.999408
0.9998
0.999926
0.999971
0.999988
0.999995
0.999998
0.999999
1
1
0.999999
0.999993
0.99996
0.999789
0.998953
0.995078
0.978123
0.907529
0.672799
0.417928
0.241564
0.130601
0.0664458
0.0319793
0.0146244
0.0063789
0.0026626
0.00106661
0.000411076
0.000152757
5.48352e-05
1.90465e-05
6.4105e-06
2.09336e-06
6.63976e-07
2.04763e-07
6.14505e-08
1.79605e-08
5.11612e-09
1.42127e-09
3.85288e-10
1.01977e-10
2.63662e-11
6.66227e-12
1.64595e-12
3.97747e-13
9.40498e-14
2.17684e-14
4.93355e-15
1.0952e-15
2.38214e-16
5.07805e-17
1.06141e-17
2.1761e-18
4.37708e-19
8.63974e-20
1.67387e-20
3.18376e-21
5.94625e-22
1.09072e-22
1.96531e-23
3.47915e-24
6.05217e-25
1.0347e-25
1.73879e-26
2.87261e-27
4.66617e-28
7.45344e-29
1.17091e-29
1.80931e-30
2.75028e-31
4.11309e-32
6.05246e-33
8.7643e-34
1.24902e-34
1.75198e-35
2.41905e-36
3.28816e-37
4.40043e-38
5.79842e-39
7.52375e-40
9.61402e-41
1.20992e-41
1.49977e-42
1.83121e-43
2.20258e-44
2.60995e-45
3.04697e-46
3.50485e-47
3.97243e-48
4.43664e-49
4.88295e-50
5.29611e-51
5.66099e-52
5.96345e-53
6.19125e-54
6.33479e-55
6.38784e-56
6.34785e-57
6.21633e-58
5.99854e-59
5.70353e-60
5.34318e-61
4.93215e-62
4.48619e-63
4.02243e-64
3.56079e-65
8.08102e-09
1.46822e-09
8.80895e-10
5.03913e-09
4.62274e-08
3.07225e-07
1.6571e-06
7.75314e-06
3.2107e-05
0.000117601
0.000381873
0.00111099
0.00295089
0.00726289
0.0167207
0.0363571
0.076156
0.1537
0.3035
0.52108
0.711762
0.791709
0.824564
0.839917
0.84326
0.84086
0.825907
0.782738
0.685611
0.583261
0.514318
0.482632
0.467179
0.456625
0.440598
0.405503
0.333385
0.256044
0.202635
0.163898
0.13496
0.116006
0.102143
0.100427
0.103019
0.110598
0.127612
0.161446
0.205933
0.25788
0.296484
0.32757
0.397294
0.512397
0.593461
0.610346
0.594381
0.55503
0.557816
0.615609
0.702734
0.757104
0.72819
0.596512
0.498428
0.480657
0.532911
0.694291
0.833768
0.920617
0.966204
0.987059
0.995543
0.998617
0.999603
0.99989
0.999969
0.99999
0.999997
0.999999
1
1
1
1
0.999999
0.999995
0.99997
0.999833
0.999139
0.995796
0.980613
0.915334
0.68564
0.424468
0.244068
0.131084
0.0661843
0.03159
0.0143211
0.00619111
0.00256103
0.00101671
0.000388342
0.000143029
5.08922e-05
1.75232e-05
5.84707e-06
1.8931e-06
5.95391e-07
1.82077e-07
5.4189e-08
1.57078e-08
4.43791e-09
1.22286e-09
3.2883e-10
8.63361e-11
2.21441e-11
5.55097e-12
1.36054e-12
3.2618e-13
7.65198e-14
1.75716e-14
3.95108e-15
8.7021e-16
1.87787e-16
3.97226e-17
8.23886e-18
1.67597e-18
3.34457e-19
6.54924e-20
1.25868e-20
2.37467e-21
4.39892e-22
8.00254e-23
1.42998e-23
2.5103e-24
4.33004e-25
7.34004e-26
1.22296e-26
2.00308e-27
3.22567e-28
5.10783e-29
7.95434e-30
1.21837e-30
1.83576e-31
2.72123e-32
3.96896e-33
5.69637e-34
8.04595e-35
1.11856e-35
1.53068e-36
2.06205e-37
2.7349e-38
3.57152e-39
4.59272e-40
5.81607e-41
7.25384e-42
8.91085e-43
1.07824e-43
1.28526e-44
1.50929e-45
1.74618e-46
1.99054e-47
2.23583e-48
2.47466e-49
2.69914e-50
2.90123e-51
3.07328e-52
3.20845e-53
3.30116e-54
3.3475e-55
3.34543e-56
3.29504e-57
3.19841e-58
3.05969e-59
2.88463e-60
2.68057e-61
2.45551e-62
2.2183e-63
1.97958e-64
3.05764e-06
5.36671e-07
6.44915e-08
1.12171e-08
1.70372e-08
9.12464e-08
5.9782e-07
2.98089e-06
1.27716e-05
4.85538e-05
0.000164516
0.000502046
0.00140599
0.00365515
0.00885216
0.0200844
0.0433457
0.0893278
0.183736
0.350196
0.60575
0.741581
0.801754
0.827692
0.83541
0.834052
0.825277
0.796823
0.717269
0.619409
0.546003
0.496903
0.471507
0.458431
0.448076
0.435601
0.409496
0.356229
0.290851
0.228104
0.186111
0.163072
0.142763
0.141542
0.146831
0.160558
0.189479
0.227193
0.270837
0.308804
0.337923
0.366591
0.428769
0.53761
0.616587
0.63597
0.624025
0.565657
0.548492
0.568476
0.663397
0.786105
0.85958
0.876918
0.831011
0.762426
0.726101
0.736012
0.830633
0.915838
0.962674
0.984961
0.994424
0.998074
0.999373
0.999808
0.999945
0.999985
0.999996
0.999999
1
1
1
1
1
0.999999
0.999995
0.999972
0.999841
0.999154
0.995749
0.979892
0.910258
0.670025
0.410903
0.233818
0.124179
0.0619789
0.0292411
0.0131041
0.00560088
0.0022911
0.00089961
0.000339927
0.000123876
4.36188e-05
1.48649e-05
4.90985e-06
1.57376e-06
4.90067e-07
1.48403e-07
4.37401e-08
1.25577e-08
3.51433e-09
9.593e-10
2.55566e-10
6.64842e-11
1.68973e-11
4.19756e-12
1.01963e-12
2.42283e-13
5.63378e-14
1.28241e-14
2.85851e-15
6.24136e-16
1.33546e-16
2.80098e-17
5.76016e-18
1.16176e-18
2.29855e-19
4.46228e-20
8.5019e-21
1.5901e-21
2.91992e-22
5.26549e-23
9.32629e-24