/*--------------------------------*- C++ -*----------------------------------*\
  =========                 |
  \\      /  F ield         | OpenFOAM: The Open Source CFD Toolbox
   \\    /   O peration     | Website:  https://openfoam.org
    \\  /    A nd           | Version:  9
     \\/     M anipulation  |
\*---------------------------------------------------------------------------*/
FoamFile
{
    format      ascii;
    class       volVectorField;
    location    "0.014";
    object      U;
}
// * * * * * * * * * * * * * * * * * * * * * * * * * * * * * * * * * * * * * //

dimensions      [0 1 -1 0 0 0 0];

internalField   nonuniform List<vector> 
12225
(
(9.96617 0.0695552 0)
(9.60386 0.0729757 0)
(9.15662 0.0505108 0)
(8.85911 0.0390503 0)
(8.68312 0.0478282 0)
(8.47885 0.0640799 0)
(8.20279 0.0688723 0)
(7.9102 0.0567177 0)
(7.64885 0.0388072 0)
(7.4357 0.0304905 0)
(7.22088 0.0385266 0)
(6.98634 0.0559472 0)
(6.68568 0.069376 0)
(6.40717 0.0729569 0)
(6.10128 0.0684747 0)
(5.87834 0.0606234 0)
(5.62655 0.0670392 0)
(5.51914 0.0655079 0)
(10.0073 0.0134986 0)
(10.0472 0.102657 0)
(9.99364 0.111168 0)
(9.93097 0.0746269 0)
(9.94253 0.041999 0)
(9.99648 0.0469152 0)
(10.049 0.0724263 0)
(10.0778 0.0909095 0)
(10.0731 0.0935624 0)
(10.0459 0.0927855 0)
(9.9977 0.0981043 0)
(9.93743 0.112799 0)
(9.85441 0.126385 0)
(9.76822 0.126331 0)
(9.67747 0.123505 0)
(9.6019 0.111397 0)
(9.52243 0.0980881 0)
(9.47866 0.13361 0)
(9.98502 0.00303319 0)
(9.88528 0.087942 0)
(9.93922 0.0729188 0)
(10.0749 0.0415874 0)
(10.1511 0.0289706 0)
(10.1266 0.0395359 0)
(10.0711 0.0540871 0)
(10.046 0.0563713 0)
(10.0608 0.0497519 0)
(10.1072 0.0498874 0)
(10.1721 0.0657633 0)
(10.2393 0.0940654 0)
(10.2932 0.121496 0)
(10.3183 0.135801 0)
(10.3071 0.137823 0)
(10.2674 0.131469 0)
(10.2071 0.130753 0)
(10.1452 0.150269 0)
(9.79204 0.125792 0)
(9.78867 0.097779 0)
(9.83122 0.0678042 0)
(9.89646 0.040956 0)
(9.94379 0.0376645 0)
(9.9706 0.0647517 0)
(9.98642 0.0900865 0)
(9.98726 0.091374 0)
(9.97068 0.0736901 0)
(9.95218 0.0573201 0)
(9.95073 0.0572071 0)
(9.97198 0.0752667 0)
(10.0078 0.102481 0)
(10.0427 0.124516 0)
(10.0628 0.139965 0)
(10.0682 0.14985 0)
(10.0561 0.155182 0)
(10.0387 0.165785 0)
(9.93706 0.00519167 0)
(9.90816 0.069448 0)
(9.95334 0.0299177 0)
(10.0619 -0.00555977 0)
(10.1404 -0.00105921 0)
(10.1298 0.0248199 0)
(10.0605 0.0527956 0)
(9.99164 0.0668809 0)
(9.95453 0.0649534 0)
(9.95327 0.0587967 0)
(9.97791 0.0603639 0)
(10.0144 0.0738587 0)
(10.0517 0.0948637 0)
(10.0821 0.114284 0)
(10.0975 0.130204 0)
(10.096 0.142167 0)
(10.077 0.153273 0)
(10.0453 0.1711 0)
(9.97739 0.106228 0)
(9.85916 0.103798 0)
(9.93792 0.0380392 0)
(10.0421 -0.0017586 0)
(10.0898 0.0297804 0)
(10.067 0.0912404 0)
(10.018 0.131815 0)
(9.98206 0.124578 0)
(9.96653 0.0842708 0)
(9.96602 0.0439186 0)
(9.97758 0.0268974 0)
(9.99918 0.0375685 0)
(10.0263 0.0669231 0)
(10.0507 0.101227 0)
(10.0626 0.13191 0)
(10.059 0.156583 0)
(10.0402 0.175385 0)
(10.0143 0.191189 0)
(9.89483 0.146933 0)
(9.89161 0.0825102 0)
(9.94644 -0.0401635 0)
(9.96183 -0.0670362 0)
(10.005 -0.0215857 0)
(10.107 0.0464561 0)
(10.2237 0.0874736 0)
(10.2977 0.0923484 0)
(10.3062 0.0760876 0)
(10.2688 0.0584395 0)
(10.2203 0.0512441 0)
(10.183 0.0581548 0)
(10.1604 0.0772299 0)
(10.146 0.10302 0)
(10.1302 0.131058 0)
(10.1081 0.15821 0)
(10.0793 0.182999 0)
(10.0456 0.205145 0)
(9.92195 0.102999 0)
(10.1434 0.0463484 0)
(10.1466 0.0303625 0)
(10.0635 0.00482915 0)
(10.0197 -0.00928048 0)
(10.0418 0.00916646 0)
(10.1031 0.0501764 0)
(10.1607 0.0837993 0)
(10.1845 0.0909915 0)
(10.1741 0.0773461 0)
(10.1455 0.0617514 0)
(10.1127 0.0611697 0)
(10.0849 0.0806158 0)
(10.0622 0.113644 0)
(10.043 0.149978 0)
(10.0245 0.182284 0)
(10.0053 0.207798 0)
(9.9912 0.227361 0)
(9.92248 -0.0242232 0)
(9.94315 -0.0147781 0)
(9.94641 -0.020007 0)
(10.0067 -0.0397768 0)
(10.0792 -0.0216531 0)
(10.1039 0.0129904 0)
(10.0786 0.0460264 0)
(10.0337 0.0674316 0)
(9.99432 0.078159 0)
(9.96863 0.0828322 0)
(9.9536 0.0860052 0)
(9.94103 0.0920576 0)
(9.92657 0.105375 0)
(9.90716 0.127148 0)
(9.88469 0.153419 0)
(9.86343 0.181416 0)
(9.84803 0.205277 0)
(9.84835 0.2262 0)
(10.0473 -0.0296649 0)
(10.0523 0.0350659 0)
(9.99766 0.0205759 0)
(9.93469 -0.0269897 0)
(9.90446 -0.0368591 0)
(9.89781 0.00980413 0)
(9.90912 0.073695 0)
(9.93735 0.111232 0)
(9.97743 0.110859 0)
(10.013 0.0894667 0)
(10.0225 0.0720623 0)
(9.99596 0.0760074 0)
(9.94208 0.103913 0)
(9.88199 0.145561 0)
(9.83297 0.184478 0)
(9.80819 0.211616 0)
(9.80918 0.220886 0)
(9.83499 0.21907 0)
(9.96854 -0.148402 0)
(10.0372 -0.0346997 0)
(10.0886 0.00216844 0)
(10.1445 -0.0119254 0)
(10.1256 -0.012392 0)
(10.0138 0.0125816 0)
(9.89092 0.0369283 0)
(9.83806 0.0455548 0)
(9.86561 0.0503871 0)
(9.93105 0.0681248 0)
(9.98408 0.101575 0)
(9.99941 0.140134 0)
(9.979 0.17088 0)
(9.94476 0.188204 0)
(9.91377 0.191407 0)
(9.89836 0.185872 0)
(9.89555 0.176079 0)
(9.90121 0.168282 0)
(9.94436 -0.181815 0)
(9.96866 0.0109815 0)
(10.0673 -0.00533559 0)
(10.1069 -0.0285752 0)
(10.0721 0.0285554 0)
(10.0155 0.110398 0)
(9.98215 0.141194 0)
(9.98446 0.106222 0)
(10.013 0.0475597 0)
(10.0564 0.0147515 0)
(10.1042 0.0294011 0)
(10.1462 0.0820549 0)
(10.1736 0.14603 0)
(10.1804 0.198589 0)
(10.1663 0.227711 0)
(10.1324 0.235115 0)
(10.0877 0.228077 0)
(10.0363 0.212711 0)
(9.73094 -0.127261 0)
(9.93763 -0.116246 0)
(10.039 -0.0731424 0)
(10.0445 -0.025601 0)
(10.0156 0.0358568 0)
(10.0237 0.0736398 0)
(10.0794 0.0692505 0)
(10.1414 0.0419021 0)
(10.1653 0.021761 0)
(10.14 0.0258308 0)
(10.0901 0.0535 0)
(10.0469 0.095183 0)
(10.0254 0.140202 0)
(10.0229 0.179946 0)
(10.0312 0.20923 0)
(10.0419 0.227281 0)
(10.053 0.234381 0)
(10.0627 0.231999 0)
(10.2765 -0.0369386 0)
(10.1758 -0.0516015 0)
(10.1146 -0.0135501 0)
(10.0644 -0.0105511 0)
(10.0381 0.0264739 0)
(10.0351 0.0592746 0)
(10.0495 0.0624375 0)
(10.0701 0.0508596 0)
(10.0887 0.0458354 0)
(10.0979 0.0589151 0)
(10.0914 0.0911652 0)
(10.0709 0.135312 0)
(10.0464 0.179278 0)
(10.027 0.213284 0)
(10.018 0.230793 0)
(10.0182 0.232214 0)
(10.0259 0.220221 0)
(10.0342 0.200038 0)
(10.0595 0.00277654 0)
(9.94447 -0.0388413 0)
(9.86877 -0.0334498 0)
(9.86637 0.00791504 0)
(9.89254 0.0648596 0)
(9.9157 0.0846726 0)
(9.93531 0.0584216 0)
(9.94695 0.0191666 0)
(9.94029 0.0033225 0)
(9.91226 0.0238838 0)
(9.87355 0.0695157 0)
(9.84136 0.120663 0)
(9.83161 0.161512 0)
(9.85118 0.186215 0)
(9.90177 0.198207 0)
(9.96963 0.203048 0)
(10.048 0.206267 0)
(10.1141 0.209539 0)
(10.1691 0.0813669 0)
(10.1084 0.175691 0)
(10.0402 0.076224 0)
(10.0315 -0.0104638 0)
(10.051 -0.0222801 0)
(10.0694 0.00165511 0)
(10.0793 0.0254993 0)
(10.0667 0.0477041 0)
(10.0323 0.0819945 0)
(9.98979 0.130084 0)
(9.95173 0.17529 0)
(9.92823 0.196232 0)
(9.92577 0.184171 0)
(9.94714 0.145153 0)
(9.99244 0.0966897 0)
(10.056 0.0553706 0)
(10.1311 0.0315698 0)
(10.2076 0.0329415 0)
(9.78991 0.138894 0)
(9.95953 0.0505632 0)
(9.97506 -0.0265397 0)
(9.97438 -0.00837813 0)
(9.96345 0.0278939 0)
(9.94898 0.0586671 0)
(9.93636 0.0769867 0)
(9.92199 0.0834504 0)
(9.91063 0.0894637 0)
(9.91195 0.104182 0)
(9.92971 0.123225 0)
(9.96112 0.131922 0)
(10.0006 0.118949 0)
(10.0438 0.08347 0)
(10.0862 0.0385054 0)
(10.1261 -0.000723765 0)
(10.1577 -0.0212763 0)
(10.1818 -0.0141504 0)
(9.99152 -0.116985 0)
(10.0637 0.0647329 0)
(10.0478 0.0740587 0)
(10.034 0.0109696 0)
(10.0357 0.00129813 0)
(10.0466 0.0295896 0)
(10.0615 0.0547897 0)
(10.0746 0.0695026 0)
(10.0913 0.0839168 0)
(10.1218 0.100709 0)
(10.1669 0.109079 0)
(10.2155 0.095505 0)
(10.2538 0.0573128 0)
(10.2717 0.00504753 0)
(10.2645 -0.042484 0)
(10.2383 -0.0688939 0)
(10.1995 -0.0667678 0)
(10.1648 -0.0345168 0)
(9.97674 0.0516485 0)
(9.95098 0.0547426 0)
(9.89736 0.0220396 0)
(9.90334 0.0113038 0)
(9.9239 0.0159839 0)
(9.93814 0.0293337 0)
(9.95821 0.0395895 0)
(9.97776 0.0307377 0)
(9.9984 -0.000252709 0)
(10.0259 -0.0372487 0)
(10.0536 -0.0561117 0)
(10.0688 -0.0399839 0)
(10.0641 0.00919179 0)
(10.0407 0.0744532 0)
(10.005 0.131145 0)
(9.96767 0.164373 0)
(9.93758 0.168361 0)
(9.92417 0.150476 0)
(10.0856 0.253575 0)
(10.1001 0.181446 0)
(10.1268 0.0592722 0)
(10.1685 -0.0246936 0)
(10.1572 -0.0567797 0)
(10.1338 -0.0354275 0)
(10.1252 -0.00630772 0)
(10.129 3.54858e-06 0)
(10.1373 -0.00792365 0)
(10.141 -0.00521818 0)
(10.1318 0.0223478 0)
(10.109 0.069003 0)
(10.0798 0.115861 0)
(10.053 0.142064 0)
(10.0365 0.137093 0)
(10.0326 0.10483 0)
(10.0416 0.0558887 0)
(10.0599 0.00905689 0)
(9.96773 -0.00176118 0)
(9.96653 -0.0359704 0)
(10.0252 -0.00284334 0)
(10.0153 0.0177657 0)
(9.97105 0.0405959 0)
(9.95914 0.0556496 0)
(9.98783 0.0448331 0)
(10.0242 0.0135338 0)
(10.0415 -0.0157416 0)
(10.0354 -0.0206431 0)
(10.0171 0.00698439 0)
(10.0002 0.0575835 0)
(9.99397 0.112 0)
(9.99988 0.149646 0)
(10.0151 0.156292 0)
(10.0355 0.132808 0)
(10.0574 0.0853984 0)
(10.0793 0.0333147 0)
(9.96699 0.0864836 0)
(9.8595 0.051781 0)
(9.85446 0.025972 0)
(9.91631 0.0182239 0)
(9.97287 -0.00649791 0)
(10.0241 -0.0490405 0)
(10.0567 -0.0740649 0)
(10.0471 -0.0634889 0)
(10 -0.0259375 0)
(9.94299 0.0224134 0)
(9.9034 0.0699535 0)
(9.89969 0.107933 0)
(9.9339 0.128447 0)
(9.99521 0.125579 0)
(10.063 0.0970803 0)
(10.1203 0.0493681 0)
(10.1552 -0.00778173 0)
(10.1623 -0.0592856 0)
(9.95813 0.0364359 0)
(9.85462 0.0154266 0)
(9.85106 -0.0268715 0)
(9.91119 -0.0635083 0)
(9.94822 -0.0600626 0)
(9.95096 -0.0259316 0)
(9.93362 0.0227041 0)
(9.90649 0.0684241 0)
(9.8879 0.0945979 0)
(9.89796 0.0902979 0)
(9.94389 0.0597151 0)
(10.0197 0.0192783 0)
(10.1113 -0.0143112 0)
(10.2 -0.030263 0)
(10.2661 -0.026983 0)
(10.2964 -0.0106011 0)
(10.2878 0.0102777 0)
(10.2451 0.0228281 0)
(9.89365 0.160388 0)
(9.95919 0.0836129 0)
(9.96154 -0.0290127 0)
(9.90143 -0.0676491 0)
(9.85686 -0.0629451 0)
(9.85529 -0.0465675 0)
(9.88073 -0.0273741 0)
(9.91707 -0.0125507 0)
(9.96461 -0.0107443 0)
(10.0174 -0.0249228 0)
(10.0588 -0.0484802 0)
(10.0737 -0.0686691 0)
(10.0616 -0.0738085 0)
(10.0332 -0.0578197 0)
(10.0059 -0.0231407 0)
(9.99132 0.020417 0)
(9.99529 0.0617933 0)
(10.0194 0.088493 0)
(9.99948 -0.0139556 0)
(10.084 -0.0268155 0)
(10.1239 0.0162254 0)
(10.0941 0.0110324 0)
(10.0384 -0.022262 0)
(10.0213 -0.0323235 0)
(10.0537 -0.0165776 0)
(10.1001 0.00126045 0)
(10.1328 0.00510194 0)
(10.1463 -0.000956054 0)
(10.1457 -0.00484994 0)
(10.1385 -0.000977148 0)
(10.1321 0.00718603 0)
(10.1313 0.0131314 0)
(10.137 0.0115422 0)
(10.1499 0.00116717 0)
(10.1691 -0.0169984 0)
(10.1919 -0.0408813 0)
(9.665 0.0740374 0)
(9.60045 -0.0407258 0)
(9.69941 -0.0192093 0)
(9.87042 0.00461003 0)
(9.99427 -0.034158 0)
(10.0633 -0.0760056 0)
(10.1087 -0.0859689 0)
(10.1411 -0.0696348 0)
(10.1605 -0.0461732 0)
(10.1677 -0.0312659 0)
(10.1663 -0.0314298 0)
(10.1618 -0.0414007 0)
(10.1594 -0.0499542 0)
(10.1627 -0.0474277 0)
(10.1722 -0.0319841 0)
(10.1854 -0.00919157 0)
(10.2 0.0132853 0)
(10.2115 0.0249651 0)
(9.96271 -0.0235065 0)
(10.0417 -0.0811547 0)
(10.1271 -0.122162 0)
(10.1378 -0.117702 0)
(10.0675 -0.107314 0)
(9.98423 -0.0832641 0)
(9.93232 -0.0510455 0)
(9.91813 -0.0268018 0)
(9.93681 -0.0151124 0)
(9.97826 -0.0108468 0)
(10.0269 -0.00895842 0)
(10.0694 -0.00809385 0)
(10.0998 -0.00852457 0)
(10.1196 -0.0110563 0)
(10.1351 -0.016621 0)
(10.1521 -0.0252453 0)
(10.174 -0.0362298 0)
(10.2008 -0.0479566 0)
(10.1756 -0.0425225 0)
(9.97479 -0.122768 0)
(9.89306 -0.0602764 0)
(9.89643 0.00130375 0)
(9.92507 0.00166175 0)
(9.97508 -0.0305854 0)
(10.0246 -0.0591349 0)
(10.0544 -0.0729683 0)
(10.0692 -0.0754086 0)
(10.0806 -0.0739071 0)
(10.0931 -0.0729306 0)
(10.1051 -0.0716402 0)
(10.1142 -0.0671842 0)
(10.1185 -0.0580512 0)
(10.1167 -0.0459542 0)
(10.1091 -0.0344617 0)
(10.0968 -0.0263466 0)
(10.0814 -0.0245602 0)
(10.0996 -0.0143805 0)
(10.1273 -0.00494575 0)
(10.1389 -0.0545264 0)
(10.1174 -0.0995174 0)
(10.0663 -0.11795 0)
(10.0212 -0.104978 0)
(9.99381 -0.074715 0)
(9.98334 -0.0493556 0)
(9.98908 -0.0378904 0)
(10.0031 -0.0361701 0)
(10.0125 -0.0369676 0)
(10.0105 -0.0355649 0)
(9.9997 -0.0311397 0)
(9.98731 -0.0251444 0)
(9.98103 -0.0200728 0)
(9.98526 -0.018034 0)
(10.0001 -0.0197544 0)
(10.0235 -0.0262901 0)
(9.9644 -0.14138 0)
(9.77064 -0.110903 0)
(9.59452 -0.0599467 0)
(9.43012 -0.00537719 0)
(9.25396 0.00375256 0)
(9.07507 -0.0211876 0)
(8.89781 -0.0510107 0)
(8.72181 -0.0699827 0)
(8.55353 -0.0760132 0)
(8.39785 -0.0726847 0)
(8.2562 -0.064426 0)
(8.13277 -0.0548043 0)
(8.03026 -0.0462537 0)
(7.94788 -0.0404211 0)
(7.87915 -0.0382666 0)
(7.81733 -0.0394494 0)
(7.75446 -0.0431951 0)
(7.68578 -0.0480276 0)
(0.0557272 -0.168939 -1.84902e-20)
(0.16912 -0.203668 1.83566e-20)
(0.289912 -0.200639 0)
(0.402571 -0.194927 0)
(0.508411 -0.189087 0)
(0.607612 -0.183158 -1.78597e-20)
(0.699903 -0.176249 0)
(0.784313 -0.167916 0)
(0.859353 -0.157981 0)
(0.923084 -0.146847 0)
(0.972936 -0.134942 1.73392e-20)
(1.00669 -0.123125 0)
(1.02261 -0.111717 0)
(1.0166 -0.100787 0)
(0.984769 -0.0877257 0)
(0.922569 -0.0688259 1.68686e-20)
(0.823642 -0.0405158 0)
(0.682053 0.000997711 0)
(0.492026 0.0590531 0)
(0.247862 0.133587 0)
(-0.0473155 0.215816 0)
(-0.393146 0.287578 0)
(-0.787451 0.344123 0)
(-1.22144 0.39259 1.61602e-20)
(-1.69083 0.43921 -1.60962e-20)
(-2.19146 0.481794 1.60517e-20)
(-2.71605 0.513921 1.60296e-20)
(-3.25417 0.530993 0)
(-3.79436 0.532048 0)
(-4.32631 0.519055 -1.61083e-20)
(-4.84186 0.495509 -1.61779e-20)
(-5.33528 0.465391 0)
(-5.80303 0.432203 0)
(-6.24302 0.398161 -1.64583e-20)
(-6.65396 0.36426 0)
(-7.03487 0.330891 0)
(-7.38471 0.297922 1.67346e-20)
(-7.70208 0.264889 0)
(-7.98495 0.23125 1.68427e-20)
(-8.23074 0.196503 3.37148e-20)
(-8.43663 0.160543 0)
(-8.60006 0.123851 0)
(-8.71867 0.0869824 0)
(-8.79065 0.050255 0)
(-8.81485 0.0143326 0)
(-8.79088 -0.0197545 3.22753e-20)
(-8.72384 -0.051462 3.17366e-20)
(-8.61373 -0.0811895 3.11223e-20)
(-8.4632 -0.108418 0)
(-8.27549 -0.133092 -2.97053e-20)
(-8.05345 -0.155219 0)
(-7.80046 -0.174741 2.81085e-20)
(-7.51955 -0.191892 2.72689e-20)
(-7.21341 -0.206895 0)
(-6.88439 -0.220093 0)
(-6.53427 -0.231848 0)
(-6.16443 -0.242446 2.38335e-20)
(-5.77598 -0.252017 0)
(-5.37016 -0.260433 0)
(-4.94877 -0.267328 0)
(-4.51449 -0.272178 0)
(-4.07096 -0.274458 0)
(-3.62251 -0.273778 0)
(-3.17379 -0.270034 0)
(-2.72934 -0.263473 0)
(-2.29338 -0.254548 -1.74211e-20)
(-1.86954 -0.243684 0)
(-1.46063 -0.231331 0)
(-1.06846 -0.218358 1.61101e-20)
(-0.694333 -0.204806 1.5757e-20)
(-0.339107 -0.191416 0)
(-0.00619584 -0.177844 -1.51478e-20)
(0.305857 -0.165006 1.48768e-20)
(0.600598 -0.152479 0)
(0.877002 -0.140432 -1.43981e-20)
(1.13553 -0.128951 0)
(1.3768 -0.118085 0)
(1.60154 -0.107861 1.38143e-20)
(1.81058 -0.09829 0)
(2.00478 -0.0893672 -1.34854e-20)
(2.18502 -0.0810774 0)
(2.35217 -0.0733959 1.31873e-20)
(2.50707 -0.0662913 1.30465e-20)
(2.65052 -0.0597275 1.29096e-20)
(2.78328 -0.0536663 2.55521e-20)
(2.90605 -0.048069 -2.529e-20)
(3.01946 -0.0428981 0)
(3.12412 -0.0381183 0)
(3.22055 -0.0336979 0)
(3.30925 -0.0296084 -2.42738e-20)
(3.39066 -0.0258257 -2.40245e-20)
(3.4652 -0.022329 2.37763e-20)
(3.53326 -0.0191014 0)
(3.59521 -0.0161288 -2.32817e-20)
(3.65139 -0.0133994 -2.30351e-20)
(3.70214 -0.0109034 -2.27886e-20)
(3.74778 -0.00863189 0)
(3.78863 -0.00657647 0)
(3.82502 -0.00472888 0)
(3.85723 -0.00308065 -2.18031e-20)
(3.88558 -0.00162266 0)
(3.91036 -0.000345304 0)
(3.93186 0.000761505 2.10637e-20)
(3.95035 0.00170905 0)
(3.9661 0.00250817 0)
(3.97936 0.00317247 2.03244e-20)
(3.99039 0.00371385 0)
(3.9994 0.00414916 0)
(4.0066 0.00449299 -1.95862e-20)
(4.01223 0.00476263 -1.93407e-20)
(4.0164 0.00497966 0)
(4.01923 0.00514533 1.88507e-20)
(4.02089 0.00525506 0)
(4.02154 0.00530741 -1.83627e-20)
(4.02133 0.00530975 0)
(4.02038 0.00527069 -1.7877e-20)
(4.01881 0.00520046 -1.76352e-20)
(4.01672 0.00510132 0)
(4.0142 0.00497457 0)
(4.01133 0.00482901 0)
(4.00817 0.00467413 0)
(4.00477 0.00451651 0)
(4.00118 0.00435671 0)
(3.99743 0.00419664 0)
(3.99357 0.00404318 -1.573e-20)
(3.9896 0.00390135 1.54961e-20)
(3.98554 0.00376979 0)
(3.98142 0.00364414 0)
(3.97724 0.00352426 0)
(3.97301 0.00341744 0)
(3.96874 0.00333387 2.86844e-20)
(3.96441 0.00327682 0)
(3.96 0.00323704 -2.77769e-20)
(3.95553 0.00319591 2.73265e-20)
(3.95101 0.00313525 0)
(3.94649 0.00304581 0)
(3.94203 0.00293013 0)
(3.93766 0.00279873 -2.55485e-20)
(3.93341 0.00266403 -2.51098e-20)
(3.92929 0.00253527 0)
(3.92529 0.00241696 -2.42395e-20)
(3.9214 0.00230958 -2.38079e-20)
(3.9176 0.00221167 2.33787e-20)
(3.91387 0.00212144 0)
(3.9102 0.00203766 0)
(3.90659 0.00195983 2.21051e-20)
(3.90302 0.0018879 0)
(3.89948 0.001822 0)
(3.89597 0.00176219 0)
(3.89248 0.00170855 0)
(3.88901 0.00166091 -2.00285e-20)
(3.88554 0.00161928 -1.96199e-20)
(3.88207 0.00158336 0)
(3.87859 0.00155336 -1.88094e-20)
(3.87508 0.00152891 0)
(3.87155 0.00151071 0)
(3.86797 0.00149833 -1.76097e-20)
(3.86434 0.00149322 0)
(3.86062 0.00149486 -1.68203e-20)
(3.85683 0.00150582 0)
(3.85288 0.00152565 0)
(3.84883 0.00155814 -1.56511e-20)
(3.8445 0.00160426 0)
(3.84005 0.00166729 -1.48809e-20)
(3.83511 0.00175582 0)
(3.83005 0.00186243 0)
(3.82407 0.00202776 0)
(3.81805 0.00219232 1.33594e-20)
(3.81032 0.0025136 0)
(3.80273 0.00273825 -1.26057e-20)
(3.79198 0.00341409 0)
(3.78156 0.00363424 0)
(3.76568 0.00520769 0)
(3.74924 0.00509668 0)
(3.72506 0.00917579 0)
(3.69302 0.00755869 0)
(3.65697 0.0194 0)
(3.57631 0.0127599 1.90583e-20)
(3.5281 0.0543048 0)
(3.26979 0.043886 0)
(0.0163046 -0.316188 5.54466e-20)
(0.0173393 -0.323588 -5.50649e-20)
(0.0197852 -0.301039 0)
(0.012441 -0.27397 3.62102e-20)
(-2.99636e-05 -0.247746 0)
(-0.0211307 -0.222142 1.78906e-20)
(-0.050768 -0.195546 -3.55279e-20)
(-0.0909707 -0.165734 -3.53128e-20)
(-0.144059 -0.130597 0)
(-0.211442 -0.0885028 -3.48959e-20)
(-0.2946 -0.0391276 -1.73727e-20)
(-0.397459 0.0185883 0)
(-0.523877 0.086551 0)
(-0.67633 0.166574 0)
(-0.859453 0.260592 0)
(-1.07584 0.368196 -1.68687e-20)
(-1.32616 0.485785 0)
(-1.60735 0.607427 3.32702e-20)
(-1.91388 0.726954 0)
(-2.24063 0.839415 0)
(-2.58371 0.94231 -3.26735e-20)
(-2.94196 1.03274 0)
(-3.31401 1.11236 3.23477e-20)
(-3.6956 1.18012 -1.60409e-20)
(-4.0809 1.23283 1.59811e-20)
(-4.46425 1.26633 -1.59423e-20)
(-4.84134 1.27778 -1.59269e-20)
(-5.20984 1.26719 0)
(-5.56881 1.2373 0)
(-5.91794 1.19256 1.60292e-20)
(-6.2566 1.13771 -1.64031e-20)
(-6.58379 1.0766 0)
(-6.89861 1.01171 0)
(-7.20056 0.944361 1.64077e-20)
(-7.48888 0.875192 0)
(-7.76208 0.804064 0)
(-8.01793 0.73027 -1.66997e-20)
(-8.25355 0.65286 0)
(-8.46566 0.570919 1.71501e-20)
(-8.65072 0.48377 -3.36697e-20)
(-8.80513 0.391331 0)
(-8.92568 0.29431 0)
(-9.00951 0.193991 -6.73836e-20)
(-9.05405 0.0920345 -6.68211e-20)
(-9.05796 -0.00938114 -6.60677e-20)
(-9.02025 -0.107922 3.28591e-20)
(-8.93653 -0.201865 -3.17169e-20)
(-8.81049 -0.290211 -9.38251e-20)
(-8.64428 -0.37177 6.13185e-20)
(-8.44064 -0.445816 2.96829e-20)
(-8.20334 -0.511979 0)
(-7.93568 -0.570246 -2.80857e-20)
(-7.64103 -0.621128 2.75807e-20)
(-7.32237 -0.66549 0)
(-6.982 -0.704482 0)
(-6.62166 -0.739322 0)
(-6.24232 -0.771024 -2.38125e-20)
(-5.84458 -0.800073 0)
(-5.42904 -0.826112 4.45219e-20)
(-4.997 -0.84791 0)
(-4.55095 -0.863698 4.13411e-20)
(-4.09466 -0.871679 0)
(-3.63301 -0.870539 -3.84666e-20)
(-3.17138 -0.859915 0)
(-2.71486 -0.840483 3.59921e-20)
(-2.26787 -0.813618 -1.75058e-20)
(-1.834 -0.781017 0)
(-1.41602 -0.744381 -3.30603e-20)
(-1.01565 -0.705147 -1.6101e-20)
(-0.633667 -0.664996 -1.5749e-20)
(-0.270459 -0.624417 0)
(0.0702187 -0.584705 -1.51891e-20)
(0.390253 -0.546206 -1.4867e-20)
(0.693921 -0.508895 0)
(0.979581 -0.473092 1.43893e-20)
(1.2478 -0.439016 -2.83936e-20)
(1.49927 -0.40679 0)
(1.73474 -0.376474 -1.38066e-20)
(1.95507 -0.348084 0)
(2.16115 -0.3216 4.04588e-20)
(2.35387 -0.296971 0)
(2.53411 -0.274116 -3.9562e-20)
(2.70273 -0.252937 -1.30396e-20)
(2.86054 -0.233322 1.29207e-20)
(3.00828 -0.215151 2.55715e-20)
(3.14665 -0.198306 -2.53068e-20)
(3.27629 -0.182669 0)
(3.39776 -0.16813 0)
(3.51158 -0.15459 0)
(3.61823 -0.141957 7.28011e-20)
(3.71813 -0.130156 2.40103e-20)
(3.81166 -0.119118 -2.37619e-20)
(3.89916 -0.108789 0)
(3.98097 -0.0991233 -2.32823e-20)
(4.05739 -0.0900833 2.302e-20)
(4.12869 -0.0816384 2.27733e-20)
(4.19516 -0.073763 0)
(4.25704 -0.0664348 0)
(4.31458 -0.0596337 0)
(4.36803 -0.0533404 2.17868e-20)
(4.41762 -0.0475359 0)
(4.46357 -0.0422007 -4.25949e-20)
(4.50609 -0.0373149 -6.31476e-20)
(4.5454 -0.032857 4.16069e-20)
(4.58169 -0.0288054 0)
(4.61516 -0.0251366 2.03126e-20)
(4.646 -0.0218272 0)
(4.67437 -0.0188501 3.96335e-20)
(4.70046 -0.0161784 -1.95729e-20)
(4.72439 -0.0137835 -1.93269e-20)
(4.74638 -0.0116359 0)
(4.76662 -0.00971937 -5.65019e-20)
(4.78524 -0.00802795 3.71802e-20)
(4.80234 -0.00655096 1.83448e-20)
(4.81802 -0.00527122 0)
(4.83238 -0.00416621 1.78592e-20)
(4.84552 -0.00321447 5.28544e-20)
(4.8575 -0.00239557 0)
(4.86843 -0.00168904 3.42739e-20)
(4.87838 -0.00108021 3.37949e-20)
(4.88744 -0.0005636 3.33176e-20)
(4.89568 -0.000123816 0)
(4.90315 0.000248186 0)
(4.90994 0.000560746 0)
(4.91608 0.000824927 -1.57142e-20)
(4.92166 0.00104914 -1.54796e-20)
(4.92671 0.00123848 0)
(4.93129 0.00139668 -3.00311e-20)
(4.93544 0.00152861 -2.95699e-20)
(4.93919 0.00164095 0)
(4.94259 0.00174134 -2.86537e-20)
(4.94568 0.0018339 -5.63994e-20)
(4.9485 0.00191608 2.77471e-20)
(4.9511 0.00197872 2.7298e-20)
(4.95348 0.00201108 0)
(4.95567 0.0020062 0)
(4.95768 0.00196488 0)
(4.95953 0.00189521 2.55213e-20)
(4.96125 0.00180976 -2.50835e-20)
(4.96286 0.00172111 -4.9295e-20)
(4.96438 0.00163901 2.42139e-20)
(4.96581 0.00156884 -2.37831e-20)
(4.96714 0.0015121 -2.33541e-20)
(4.96838 0.0014677 0)
(4.96951 0.00143334 0)
(4.97053 0.0014067 2.20823e-20)
(4.97142 0.00138585 0)
(4.9722 0.00136953 0)
(4.97286 0.001357 -4.16619e-20)
(4.9734 0.00134799 0)
(4.97384 0.00134245 -2.00082e-20)
(4.97417 0.00134069 1.96e-20)
(4.97441 0.00134302 0)
(4.97454 0.00135016 -1.87907e-20)
(4.97459 0.00136277 0)
(4.97454 0.00138202 0)
(4.9744 0.00140914 1.75923e-20)
(4.97417 0.00144585 -3.43944e-20)
(4.97383 0.00149463 1.68039e-20)
(4.97339 0.00155738 0)
(4.97282 0.00163988 0)
(4.97211 0.00174218 -1.56363e-20)
(4.97125 0.00187957 0)
(4.97018 0.00204205 -1.48671e-20)
(4.96889 0.00227351 0)
(4.96729 0.00252579 0)
(4.96538 0.00292897 0)
(4.96293 0.00330734 -1.33469e-20)
(4.96003 0.00404906 0)
(4.95615 0.00457878 1.2594e-20)
(4.95167 0.00604754 0)
(4.94516 0.00667781 0)
(4.93813 0.00985211 -2.29364e-20)
(4.92643 0.0102712 2.21819e-20)
(4.91526 0.0177991 0)
(4.89214 0.0170216 0)
(4.87435 0.0369915 0)
(4.82374 0.0338907 -5.7192e-20)
(4.79838 0.0968045 0)
(4.68611 0.104373 3.49007e-20)
(-0.0308518 -0.211574 -4.9362e-23)
(-0.138339 -0.1845 7.33382e-20)
(-0.237506 -0.160066 0)
(-0.342789 -0.127817 -7.23027e-20)
(-0.449863 -0.0943 0)
(-0.56255 -0.0553619 0)
(-0.682076 -0.0104017 6.85505e-23)
(-0.810287 0.0421278 3.52362e-20)
(-0.948259 0.103442 3.49374e-20)
(-1.09793 0.174938 3.48004e-20)
(-1.26134 0.257356 0)
(-1.43945 0.352336 0)
(-1.63269 0.461519 -3.4074e-20)
(-1.84099 0.584787 -6.77369e-20)
(-2.06329 0.719127 6.7333e-20)
(-2.29776 0.859795 0)
(-2.54217 1.00152 6.65528e-20)
(-2.79378 1.13948 -3.31417e-20)
(-3.04955 1.26984 0)
(-3.30688 1.38996 6.55111e-20)
(-3.56452 1.49808 3.25645e-20)
(-3.82256 1.59221 -6.49708e-20)
(-4.08118 1.67068 -3.22577e-20)
(-4.33965 1.73135 0)
(-4.59749 1.77207 6.45628e-20)
(-4.85563 1.79165 6.4564e-20)
(-5.11697 1.79081 0)
(-5.38553 1.77206 6.47968e-20)
(-5.6643 1.73854 0)
(-5.95388 1.69277 6.53286e-20)
(-6.25264 1.6364 3.24848e-20)
(-6.5578 1.57085 0)
(-6.86612 1.49744 0)
(-7.17385 1.41721 0)
(-7.47702 1.33062 0)
(-7.77151 1.23723 0)
(-8.05285 1.1359 0)
(-8.31617 1.02517 6.86764e-20)
(-8.55636 0.90378 -1.02866e-19)
(-8.76803 0.771083 0)
(-8.94578 0.627122 0)
(-9.08462 0.472864 0)
(-9.18002 0.310938 -1.12463e-21)
(-9.22843 0.144817 6.67928e-20)
(-9.22825 -0.0223827 1.33152e-19)
(-9.17927 -0.186958 -1.31194e-19)
(-9.08296 -0.346023 -6.4928e-20)
(-8.94195 -0.496125 6.26846e-20)
(-8.75952 -0.634419 8.24407e-22)
(-8.53941 -0.75902 6.05098e-20)
(-8.28582 -0.868973 0)
(-8.003 -0.964544 5.71074e-20)
(-7.69496 -1.04684 5.62447e-22)
(-7.36505 -1.11777 0)
(-7.01578 -1.17972 0)
(-6.64856 -1.23523 -5.00427e-20)
(-6.26369 -1.28646 0)
(-5.86053 -1.33458 0)
(-5.43824 -1.37903 4.53027e-20)
(-4.99693 -1.41739 8.64868e-20)
(-4.53865 -1.44594 -4.13047e-20)
(-4.06783 -1.46081 0)
(-3.59102 -1.45915 3.84344e-20)
(-3.11554 -1.44025 0)
(-2.64798 -1.40567 3.63526e-20)
(-2.19356 -1.35825 3.48895e-20)
(-1.75612 -1.30134 -6.81272e-20)
(-1.338 -1.23821 -3.32992e-20)
(-0.940331 -1.1713 0)
(-0.56301 -1.1031 6.32876e-20)
(-0.206124 -1.03461 0)
(0.127401 -0.969579 9.10992e-20)
(0.44066 -0.904898 5.96691e-20)
(0.737577 -0.842702 5.86509e-20)
(1.01673 -0.783227 -5.77227e-20)
(1.27878 -0.726726 8.5251e-20)
(1.52441 -0.673384 0)
(1.75438 -0.623301 0)
(1.96952 -0.576504 -5.46714e-20)
(2.1707 -0.532954 -8.09961e-20)
(2.35882 -0.492556 0)
(2.53476 -0.455167 2.63741e-20)
(2.69937 -0.420611 0)
(2.85349 -0.388692 -7.75132e-20)
(2.99787 -0.359202 5.60977e-23)
(3.13319 -0.331935 -5.17128e-23)
(3.26011 -0.306689 5.01037e-20)
(3.37918 -0.283277 0)
(3.49093 -0.261526 -4.90784e-20)
(3.59582 -0.241282 3.68106e-23)
(3.69427 -0.222411 0)
(3.78666 -0.204797 0)
(3.87333 -0.188343 0)
(3.95461 -0.172968 4.65458e-20)
(4.0308 -0.158604 0)
(4.10218 -0.145194 0)
(4.16901 -0.132689 0)
(4.23156 -0.121047 0)
(4.29007 -0.110227 0)
(4.34476 -0.100194 4.3597e-20)
(4.39587 -0.09091 0)
(4.4436 -0.08234 4.25936e-20)
(4.48816 -0.0744475 4.20997e-20)
(4.52974 -0.0671961 -4.16058e-20)
(4.56851 -0.0605486 0)
(4.60466 -0.0544685 -4.06185e-20)
(4.63834 -0.0489189 0)
(4.66971 -0.0438649 -3.96325e-20)
(4.6989 -0.0392708 3.91403e-20)
(4.72606 -0.0351038 1.15959e-19)
(4.7513 -0.0313358 0)
(4.77474 -0.0279336 1.13015e-19)
(4.7965 -0.0248687 3.71887e-20)
(4.81668 -0.0221146 0)
(4.83539 -0.0196459 7.24174e-20)
(4.85271 -0.0174339 7.14463e-20)
(4.86874 -0.0154502 -1.05714e-19)
(4.88358 -0.0136661 0)
(4.89729 -0.0120564 -3.42727e-20)
(4.90996 -0.0106106 -3.37937e-20)
(4.92166 -0.00931577 -9.99535e-20)
(4.93246 -0.00816416 0)
(4.94241 -0.00713992 0)
(4.95157 -0.00622598 0)
(4.96001 -0.00540898 -3.14287e-20)
(4.96777 -0.00468009 0)
(4.9749 -0.00403054 0)
(4.98146 -0.00345127 3.00293e-20)
(4.98748 -0.00293403 2.95681e-20)
(4.99301 -0.00247153 0)
(4.99809 -0.00205706 0)
(5.00276 -0.00168575 5.63955e-20)
(5.00706 -0.00135616 0)
(5.01102 -0.00107085 -5.45913e-20)
(5.01467 -0.000834901 -5.36971e-20)
(5.01802 -0.00065311 0)
(5.02109 -0.000526316 0)
(5.02389 -0.000449097 5.10397e-20)
(5.02644 -0.000409459 -5.01702e-25)
(5.02877 -0.000391441 -4.43805e-25)
(5.03089 -0.000378897 0)
(5.03282 -0.000359177 9.51249e-20)
(5.0346 -0.000325059 0)
(5.03622 -0.000274783 0)
(5.03771 -0.000210546 0)
(5.03906 -0.000136515 -4.4161e-20)
(5.0403 -5.71154e-05 0)
(5.04143 2.40187e-05 8.49768e-20)
(5.04245 0.000104501 4.16587e-20)
(5.04338 0.000183082 0)
(5.04421 0.000259555 4.00132e-20)
(5.04495 0.000334243 0)
(5.04561 0.00040822 0)
(5.04618 0.000482481 1.12735e-19)
(5.04669 0.000559113 -7.3551e-20)
(5.04711 0.000639307 0)
(5.04745 0.00072675 -7.03646e-20)
(5.04772 0.000822289 3.43917e-20)
(5.0479 0.000932911 0)
(5.04799 0.00105763 0)
(5.04798 0.00121096 0)
(5.04785 0.00138548 9.38107e-20)
(5.0476 0.00161411 0)
(5.04716 0.00186956 2.97315e-20)
(5.04656 0.00223091 0)
(5.04566 0.00261382 0)
(5.04455 0.00321529 0)
(5.04292 0.00379224 0)
(5.041 0.0048486 0)
(5.03813 0.0057076 0)
(5.03491 0.00767819 4.88797e-20)
(5.02988 0.00892358 0)
(5.02448 0.012867 2.29344e-20)
(5.01549 0.0146382 -6.65547e-20)
(5.00624 0.023187 0)
(4.98989 0.0260229 0)
(4.97375 0.0466662 3.97899e-20)
(4.94489 0.0547005 3.81471e-20)
(4.9194 0.111437 -3.66498e-20)
(4.88313 0.145204 -3.48934e-20)
(-0.0527984 0.0397259 -1.10647e-19)
(-0.207637 0.0970879 -1.09833e-19)
(-0.349773 0.122748 -7.26525e-20)
(-0.498689 0.162257 -3.60166e-20)
(-0.649101 0.204997 0)
(-0.804598 0.254933 7.1093e-20)
(-0.96464 0.312273 -3.52442e-20)
(-1.13024 0.378696 0)
(-1.3016 0.45465 -3.48875e-20)
(-1.47891 0.540164 0)
(-1.66222 0.635436 6.87425e-20)
(-1.85132 0.741493 0)
(-2.04527 0.859292 3.40172e-20)
(-2.24274 0.988022 6.76252e-20)
(-2.44219 1.12478 -6.72258e-20)
(-2.64224 1.26526 0)
(-2.84182 1.40478 -6.6461e-20)
(-3.0403 1.53941 0)
(-3.23759 1.66646 0)
(-3.4343 1.78418 -6.54519e-20)
(-3.63174 1.89101 0)
(-3.8316 1.98505 -1.67196e-22)
(-4.03578 2.06464 0)
(-4.24695 2.12893 0)
(-4.46969 2.17846 3.68389e-22)
(-4.71029 2.2151 -6.45459e-20)
(-4.97497 2.24054 -6.51328e-20)
(-5.26687 2.25395 -6.47692e-20)
(-5.58396 2.25132 0)
(-5.91952 2.22802 -1.31328e-19)
(-6.26522 2.18224 0)
(-6.6138 2.11617 -6.69705e-20)
(-6.95959 2.03402 0)
(-7.29813 1.93919 0)
(-7.62609 1.83287 6.85712e-20)
(-7.94064 1.71435 0)
(-8.23844 1.58171 -6.95836e-20)
(-8.51511 1.4325 1.40097e-21)
(-8.76501 1.26473 1.39189e-19)
(-8.98204 1.07764 -1.41072e-19)
(-9.16031 0.87192 0)
(-9.29382 0.649705 0)
(-9.37771 0.414936 -7.17208e-20)
(-9.41024 0.172666 0)
(-9.39062 -0.0720939 -6.70823e-20)
(-9.32034 -0.313616 6.60771e-20)
(-9.20244 -0.544863 6.48922e-20)
(-9.03929 -0.760338 0)
(-8.83545 -0.955774 -6.20627e-20)
(-8.59659 -1.12886 -6.04699e-20)
(-8.32798 -1.27891 1.19492e-19)
(-8.03455 -1.40685 -5.70668e-20)
(-7.7202 -1.51496 -5.53063e-20)
(-7.38784 -1.6066 0)
(-7.03929 -1.68599 0)
(-6.67492 -1.7576 5.00011e-20)
(-6.29345 -1.82539 0)
(-5.89195 -1.89179 0)
(-5.46662 -1.95636 -8.97017e-20)
(-5.01482 -2.01496 -8.64044e-20)
(-4.53725 -2.06039 0)
(-4.03944 -2.0847 0)
(-3.5315 -2.08197 0)
(-3.02543 -2.05099 0)
(-2.5316 -1.99541 -7.22669e-20)
(-2.05729 -1.92096 7.05666e-20)
(-1.60696 -1.8335 6.809e-20)
(-1.1823 -1.73848 1.32989e-19)
(-0.783285 -1.64011 0)
(-0.408764 -1.54146 2.91263e-22)
(-0.0600432 -1.44494 0)
(0.26427 -1.35331 -6.07413e-20)
(0.568801 -1.2634 2.08508e-22)
(0.854788 -1.17726 -5.8609e-20)
(1.12323 -1.09508 5.76847e-20)
(1.37522 -1.01705 1.55994e-22)
(1.61177 -0.943332 0)
(1.83375 -0.874064 5.54603e-20)
(2.04194 -0.809308 5.46455e-20)
(2.23711 -0.749039 1.08117e-19)
(2.41999 -0.693148 0)
(2.59134 -0.641448 -5.28981e-20)
(2.7519 -0.593697 0)
(2.90239 -0.549616 1.03443e-19)
(3.0435 -0.508911 -5.11401e-20)