# vtk DataFile Version 2.0
sampleSurface
ASCII
DATASET POLYDATA
POINTS 502 float
-0.0206 0 -0.0005 -0.0190172 0 -0.0005 -0.0190172 0 0.0005 -0.0206 0
0.0005 -0.0174976 0 -0.0005 -0.0174976 0 0.0005 -0.0160387 0 -0.0005
-0.0160387 0 0.0005 -0.0146381 0 -0.0005 -0.0146381 0 0.0005 -0.0132934
0 -0.0005 -0.0132934 0 0.0005 -0.0120025 0 -0.0005 -0.0120025 0
0.0005 -0.0107632 0 -0.0005 -0.0107632 0 0.0005 -0.00957337 0 -0.0005
-0.00957337 0 0.0005 -0.00843108 0 -0.0005 -0.00843108 0 0.0005 -0.00733443
0 -0.0005 -0.00733443 0 0.0005 -0.0062816 0 -0.0005 -0.0062816 0
0.0005 -0.00527083 0 -0.0005 -0.00527083 0 0.0005 -0.00430044 0 -0.0005
-0.00430044 0 0.0005 -0.00336883 0 -0.0005 -0.00336883 0 0.0005 -0.00247443
0 -0.0005 -0.00247443 0 0.0005 -0.00161577 0 -0.0005 -0.00161577 0
0.0005 -0.000791418 0 -0.0005 -0.000791418 0 0.0005 0 0 -0.0005
0 0 0.0005 0 -0.0254 -0.0005 0 -0.0254 0.0005 0
-0.0242711 0.0005 0 -0.0242711 -0.0005 0 -0.0231422 0.0005 0 -0.0231422
-0.0005 0 -0.0220133 0.0005 0 -0.0220133 -0.0005 0 -0.0208844 0.0005
0 -0.0208844 -0.0005 0 -0.0197556 0.0005 0 -0.0197556 -0.0005 0
-0.0186267 0.0005 0 -0.0186267 -0.0005 0 -0.0174978 0.0005 0 -0.0174978
-0.0005 0 -0.0163689 0.0005 0 -0.0163689 -0.0005 0 -0.01524 0.0005
0 -0.01524 -0.0005 0 -0.0141111 0.0005 0 -0.0141111 -0.0005 0
-0.0129822 0.0005 0 -0.0129822 -0.0005 0 -0.0118533 0.0005 0 -0.0118533
-0.0005 0 -0.0107244 0.0005 0 -0.0107244 -0.0005 0 -0.00959556 0.0005
0 -0.00959556 -0.0005 0 -0.00846667 0.0005 0 -0.00846667 -0.0005 0
-0.00726604 0.0005 0 -0.00726604 -0.0005 0 -0.00618989 0.0005 0 -0.00618989
-0.0005 0 -0.00522531 0.0005 0 -0.00522531 -0.0005 0 -0.00436073 0.0005
0 -0.00436073 -0.0005 0 -0.00358579 0.0005 0 -0.00358579 -0.0005 0
-0.00289118 0.0005 0 -0.00289118 -0.0005 0 -0.0022686 0.0005 0 -0.0022686
-0.0005 0 -0.00171055 0.0005 0 -0.00171055 -0.0005 0 -0.00121037 0.0005
0 -0.00121037 -0.0005 0 -0.000762037 0.0005 0 -0.000762037 -0.0005 0
-0.000360188 0.0005 0 -0.000360188 -0.0005 0.000528387 -0.0254 -0.0005 0.000528387 -0.0254
0.0005 0.00106088 -0.0254 -0.0005 0.00106088 -0.0254 0.0005 0.00159752 -0.0254 -0.0005
0.00159752 -0.0254 0.0005 0.00213833 -0.0254 -0.0005 0.00213833 -0.0254 0.0005 0.00268334
-0.0254 -0.0005 0.00268334 -0.0254 0.0005 0.00323259 -0.0254 -0.0005 0.00323259 -0.0254
0.0005 0.00378611 -0.0254 -0.0005 0.00378611 -0.0254 0.0005 0.00434393 -0.0254 -0.0005
0.00434393 -0.0254 0.0005 0.00490609 -0.0254 -0.0005 0.00490609 -0.0254 0.0005 0.00547262
-0.0254 -0.0005 0.00547262 -0.0254 0.0005 0.00604356 -0.0254 -0.0005 0.00604356 -0.0254
0.0005 0.00661893 -0.0254 -0.0005 0.00661893 -0.0254 0.0005 0.00719878 -0.0254 -0.0005
0.00719878 -0.0254 0.0005 0.00778313 -0.0254 -0.0005 0.00778313 -0.0254 0.0005 0.00837203
-0.0254 -0.0005 0.00837203 -0.0254 0.0005 0.00896551 -0.0254 -0.0005 0.00896551 -0.0254
0.0005 0.0095636 -0.0254 -0.0005 0.0095636 -0.0254 0.0005 0.0101663 -0.0254 -0.0005
0.0101663 -0.0254 0.0005 0.0107738 -0.0254 -0.0005 0.0107738 -0.0254 0.0005 0.0113859
-0.0254 -0.0005 0.0113859 -0.0254 0.0005 0.0120028 -0.0254 -0.0005 0.0120028 -0.0254
0.0005 0.0126245 -0.0254 -0.0005 0.0126245 -0.0254 0.0005 0.0132511 -0.0254 -0.0005
0.0132511 -0.0254 0.0005 0.0138825 -0.0254 -0.0005 0.0138825 -0.0254 0.0005 0.0145188
-0.0254 -0.0005 0.0145188 -0.0254 0.0005 0.0151601 -0.0254 -0.0005 0.0151601 -0.0254
0.0005 0.0158063 -0.0254 -0.0005 0.0158063 -0.0254 0.0005 0.0164576 -0.0254 -0.0005
0.0164576 -0.0254 0.0005 0.0171139 -0.0254 -0.0005 0.0171139 -0.0254 0.0005 0.0177754
-0.0254 -0.0005 0.0177754 -0.0254 0.0005 0.018442 -0.0254 -0.0005 0.018442 -0.0254
0.0005 0.0191137 -0.0254 -0.0005 0.0191137 -0.0254 0.0005 0.0197907 -0.0254 -0.0005
0.0197907 -0.0254 0.0005 0.020473 -0.0254 -0.0005 0.020473 -0.0254 0.0005 0.0211606
-0.0254 -0.0005 0.0211606 -0.0254 0.0005 0.0218535 -0.0254 -0.0005 0.0218535 -0.0254
0.0005 0.0225517 -0.0254 -0.0005 0.0225517 -0.0254 0.0005 0.0232555 -0.0254 -0.0005
0.0232555 -0.0254 0.0005 0.0239647 -0.0254 -0.0005 0.0239647 -0.0254 0.0005 0.0246794
-0.0254 -0.0005 0.0246794 -0.0254 0.0005 0.0253996 -0.0254 -0.0005 0.0253996 -0.0254
0.0005 0.0261255 -0.0254 -0.0005 0.0261255 -0.0254 0.0005 0.026857 -0.0254 -0.0005
0.026857 -0.0254 0.0005 0.0275942 -0.0254 -0.0005 0.0275942 -0.0254 0.0005 0.0283371
-0.0254 -0.0005 0.0283371 -0.0254 0.0005 0.0290858 -0.0254 -0.0005 0.0290858 -0.0254
0.0005 0.0298403 -0.0254 -0.0005 0.0298403 -0.0254 0.0005 0.0306007 -0.0254 -0.0005
0.0306007 -0.0254 0.0005 0.031367 -0.0254 -0.0005 0.031367 -0.0254 0.0005 0.0321393
-0.0254 -0.0005 0.0321393 -0.0254 0.0005 0.0329175 -0.0254 -0.0005 0.0329175 -0.0254
0.0005 0.0337019 -0.0254 -0.0005 0.0337019 -0.0254 0.0005 0.0344923 -0.0254 -0.0005
0.0344923 -0.0254 0.0005 0.0352888 -0.0254 -0.0005 0.0352888 -0.0254 0.0005 0.0360916
-0.0254 -0.0005 0.0360916 -0.0254 0.0005 0.0369006 -0.0254 -0.0005 0.0369006 -0.0254
0.0005 0.0377158 -0.0254 -0.0005 0.0377158 -0.0254 0.0005 0.0385375 -0.0254 -0.0005
0.0385375 -0.0254 0.0005 0.0393655 -0.0254 -0.0005 0.0393655 -0.0254 0.0005 0.0401999
-0.0254 -0.0005 0.0401999 -0.0254 0.0005 0.0410408 -0.0254 -0.0005 0.0410408 -0.0254
0.0005 0.0418883 -0.0254 -0.0005 0.0418883 -0.0254 0.0005 0.0427424 -0.0254 -0.0005
0.0427424 -0.0254 0.0005 0.0436031 -0.0254 -0.0005 0.0436031 -0.0254 0.0005 0.0444704
-0.0254 -0.0005 0.0444704 -0.0254 0.0005 0.0453446 -0.0254 -0.0005 0.0453446 -0.0254
0.0005 0.0462255 -0.0254 -0.0005 0.0462255 -0.0254 0.0005 0.0471133 -0.0254 -0.0005
0.0471133 -0.0254 0.0005 0.048008 -0.0254 -0.0005 0.048008 -0.0254 0.0005 0.0489096
-0.0254 -0.0005 0.0489096 -0.0254 0.0005 0.0498183 -0.0254 -0.0005 0.0498183 -0.0254
0.0005 0.050734 -0.0254 -0.0005 0.050734 -0.0254 0.0005 0.0516568 -0.0254 -0.0005
0.0516568 -0.0254 0.0005 0.0525868 -0.0254 -0.0005 0.0525868 -0.0254 0.0005 0.053524
-0.0254 -0.0005 0.053524 -0.0254 0.0005 0.0544686 -0.0254 -0.0005 0.0544686 -0.0254
0.0005 0.0554204 -0.0254 -0.0005 0.0554204 -0.0254 0.0005 0.0563797 -0.0254 -0.0005
0.0563797 -0.0254 0.0005 0.0573464 -0.0254 -0.0005 0.0573464 -0.0254 0.0005 0.0583206
-0.0254 -0.0005 0.0583206 -0.0254 0.0005 0.0593025 -0.0254 -0.0005 0.0593025 -0.0254
0.0005 0.0602919 -0.0254 -0.0005 0.0602919 -0.0254 0.0005 0.0612891 -0.0254 -0.0005
0.0612891 -0.0254 0.0005 0.0622939 -0.0254 -0.0005 0.0622939 -0.0254 0.0005 0.0633067
-0.0254 -0.0005 0.0633067 -0.0254 0.0005 0.0643272 -0.0254 -0.0005 0.0643272 -0.0254
0.0005 0.0653557 -0.0254 -0.0005 0.0653557 -0.0254 0.0005 0.0663923 -0.0254 -0.0005
0.0663923 -0.0254 0.0005 0.0674368 -0.0254 -0.0005 0.0674368 -0.0254 0.0005 0.0684895
-0.0254 -0.0005 0.0684895 -0.0254 0.0005 0.0695504 -0.0254 -0.0005 0.0695504 -0.0254
0.0005 0.0706195 -0.0254 -0.0005 0.0706195 -0.0254 0.0005 0.0716969 -0.0254 -0.0005
0.0716969 -0.0254 0.0005 0.0727828 -0.0254 -0.0005 0.0727828 -0.0254 0.0005 0.073877
-0.0254 -0.0005 0.073877 -0.0254 0.0005 0.0749798 -0.0254 -0.0005 0.0749798 -0.0254
0.0005 0.0760911 -0.0254 -0.0005 0.0760911 -0.0254 0.0005 0.0772111 -0.0254 -0.0005
0.0772111 -0.0254 0.0005 0.0783398 -0.0254 -0.0005 0.0783398 -0.0254 0.0005 0.0794772
-0.0254 -0.0005 0.0794772 -0.0254 0.0005 0.0806235 -0.0254 -0.0005 0.0806235 -0.0254
0.0005 0.0817787 -0.0254 -0.0005 0.0817787 -0.0254 0.0005 0.0829429 -0.0254 -0.0005
0.0829429 -0.0254 0.0005 0.0841162 -0.0254 -0.0005 0.0841162 -0.0254 0.0005 0.0852985
-0.0254 -0.0005 0.0852985 -0.0254 0.0005 0.0864901 -0.0254 -0.0005 0.0864901 -0.0254
0.0005 0.0876909 -0.0254 -0.0005 0.0876909 -0.0254 0.0005 0.0889011 -0.0254 -0.0005
0.0889011 -0.0254 0.0005 0.0901207 -0.0254 -0.0005 0.0901207 -0.0254 0.0005 0.0913497
-0.0254 -0.0005 0.0913497 -0.0254 0.0005 0.0925883 -0.0254 -0.0005 0.0925883 -0.0254
0.0005 0.0938366 -0.0254 -0.0005 0.0938366 -0.0254 0.0005 0.0950945 -0.0254 -0.0005
0.0950945 -0.0254 0.0005 0.0963622 -0.0254 -0.0005 0.0963622 -0.0254 0.0005 0.0976398
-0.0254 -0.0005 0.0976398 -0.0254 0.0005 0.0989273 -0.0254 -0.0005 0.0989273 -0.0254
0.0005 0.100225 -0.0254 -0.0005 0.100225 -0.0254 0.0005 0.101532 -0.0254 -0.0005
0.101532 -0.0254 0.0005 0.10285 -0.0254 -0.0005 0.10285 -0.0254 0.0005 0.104178
-0.0254 -0.0005 0.104178 -0.0254 0.0005 0.105517 -0.0254 -0.0005 0.105517 -0.0254
0.0005 0.106865 -0.0254 -0.0005 0.106865 -0.0254 0.0005 0.108225 -0.0254 -0.0005
0.108225 -0.0254 0.0005 0.109594 -0.0254 -0.0005 0.109594 -0.0254 0.0005 0.110975
-0.0254 -0.0005 0.110975 -0.0254 0.0005 0.112366 -0.0254 -0.0005 0.112366 -0.0254
0.0005 0.113768 -0.0254 -0.0005 0.113768 -0.0254 0.0005 0.115181 -0.0254 -0.0005
0.115181 -0.0254 0.0005 0.116605 -0.0254 -0.0005 0.116605 -0.0254 0.0005 0.11804
-0.0254 -0.0005 0.11804 -0.0254 0.0005 0.119486 -0.0254 -0.0005 0.119486 -0.0254
0.0005 0.120943 -0.0254 -0.0005 0.120943 -0.0254 0.0005 0.122412 -0.0254 -0.0005
0.122412 -0.0254 0.0005 0.123892 -0.0254 -0.0005 0.123892 -0.0254 0.0005 0.125384
-0.0254 -0.0005 0.125384 -0.0254 0.0005 0.126887 -0.0254 -0.0005 0.126887 -0.0254
0.0005 0.128402 -0.0254 -0.0005 0.128402 -0.0254 0.0005 0.129928 -0.0254 -0.0005
0.129928 -0.0254 0.0005 0.131467 -0.0254 -0.0005 0.131467 -0.0254 0.0005 0.133017
-0.0254 -0.0005 0.133017 -0.0254 0.0005 0.13458 -0.0254 -0.0005 0.13458 -0.0254
0.0005 0.136155 -0.0254 -0.0005 0.136155 -0.0254 0.0005 0.137742 -0.0254 -0.0005
0.137742 -0.0254 0.0005 0.139341 -0.0254 -0.0005 0.139341 -0.0254 0.0005 0.140953
-0.0254 -0.0005 0.140953 -0.0254 0.0005 0.142577 -0.0254 -0.0005 0.142577 -0.0254
0.0005 0.144214 -0.0254 -0.0005 0.144214 -0.0254 0.0005 0.145863 -0.0254 -0.0005
0.145863 -0.0254 0.0005 0.147526 -0.0254 -0.0005 0.147526 -0.0254 0.0005 0.149201
-0.0254 -0.0005 0.149201 -0.0254 0.0005 0.15089 -0.0254 -0.0005 0.15089 -0.0254
0.0005 0.152591 -0.0254 -0.0005 0.152591 -0.0254 0.0005 0.154306 -0.0254 -0.0005
0.154306 -0.0254 0.0005 0.156034 -0.0254 -0.0005 0.156034 -0.0254 0.0005 0.157775
-0.0254 -0.0005 0.157775 -0.0254 0.0005 0.159531 -0.0254 -0.0005 0.159531 -0.0254
0.0005 0.161299 -0.0254 -0.0005 0.161299 -0.0254 0.0005 0.163082 -0.0254 -0.0005
0.163082 -0.0254 0.0005 0.164878 -0.0254 -0.0005 0.164878 -0.0254 0.0005 0.166688
-0.0254 -0.0005 0.166688 -0.0254 0.0005 0.168513 -0.0254 -0.0005 0.168513 -0.0254
0.0005 0.170351 -0.0254 -0.0005 0.170351 -0.0254 0.0005 0.172204 -0.0254 -0.0005
0.172204 -0.0254 0.0005 0.174071 -0.0254 -0.0005 0.174071 -0.0254 0.0005 0.175953
-0.0254 -0.0005 0.175953 -0.0254 0.0005 0.177849 -0.0254 -0.0005 0.177849 -0.0254
0.0005 0.17976 -0.0254 -0.0005 0.17976 -0.0254 0.0005 0.181686 -0.0254 -0.0005
0.181686 -0.0254 0.0005 0.183627 -0.0254 -0.0005 0.183627 -0.0254 0.0005 0.185583
-0.0254 -0.0005 0.185583 -0.0254 0.0005 0.187555 -0.0254 -0.0005 0.187555 -0.0254
0.0005 0.189541 -0.0254 -0.0005 0.189541 -0.0254 0.0005 0.191543 -0.0254 -0.0005
0.191543 -0.0254 0.0005 0.193561 -0.0254 -0.0005 0.193561 -0.0254 0.0005 0.195594
-0.0254 -0.0005 0.195594 -0.0254 0.0005 0.197643 -0.0254 -0.0005 0.197643 -0.0254
0.0005 0.199708 -0.0254 -0.0005 0.199708 -0.0254 0.0005 0.201789 -0.0254 -0.0005
0.201789 -0.0254 0.0005 0.203886 -0.0254 -0.0005 0.203886 -0.0254 0.0005 0.206
-0.0254 -0.0005 0.206 -0.0254 0.0005 0.208047 -0.0251856 -0.0005 0.208047 -0.0251856
0.0005 0.210173 -0.0249628 -0.0005 0.210173 -0.0249628 0.0005 0.212382 -0.0247314 -0.0005
0.212382 -0.0247314 0.0005 0.214677 -0.024491 -0.0005 0.214677 -0.024491 0.0005 0.217061
-0.0242412 -0.0005 0.217061 -0.0242412 0.0005 0.219538 -0.0239817 -0.0005 0.219538 -0.0239817
0.0005 0.222112 -0.0237121 -0.0005 0.222112 -0.0237121 0.0005 0.224785 -0.023432 -0.0005
0.224785 -0.023432 0.0005 0.227563 -0.023141 -0.0005 0.227563 -0.023141 0.0005 0.230449
-0.0228387 -0.0005 0.230449 -0.0228387 0.0005 0.233447 -0.0225246 -0.0005 0.233447 -0.0225246
0.0005 0.236562 -0.0221983 -0.0005 0.236562 -0.0221983 0.0005 0.239797 -0.0218593 -0.0005
0.239797 -0.0218593 0.0005 0.243159 -0.0215071 -0.0005 0.243159 -0.0215071 0.0005 0.246652
-0.0211412 -0.0005 0.246652 -0.0211412 0.0005 0.250281 -0.0207611 -0.0005 0.250281 -0.0207611
0.0005 0.254051 -0.0203661 -0.0005 0.254051 -0.0203661 0.0005 0.257967 -0.0199558 -0.0005
0.257967 -0.0199558 0.0005 0.262036 -0.0195295 -0.0005 0.262036 -0.0195295 0.0005 0.266264
-0.0190867 -0.0005 0.266264 -0.0190867 0.0005 0.270655 -0.0186266 -0.0005 0.270655 -0.0186266
0.0005 0.275218 -0.0181486 -0.0005 0.275218 -0.0181486 0.0005 0.279959 -0.017652 -0.0005
0.279959 -0.017652 0.0005 0.284883 -0.017136 -0.0005 0.284883 -0.017136 0.0005 0.29
-0.0166 -0.0005 0.29 -0.0166 0.0005 
POLYGONS 250 1250
4 0 1 2 3 4 1 4 5 2 4
4 6 7 5 4 6 8 9 7 4
8 10 11 9 4 10 12 13 11 4
12 14 15 13 4 14 16 17 15 4
16 18 19 17 4 18 20 21 19 4
20 22 23 21 4 22 24 25 23 4
24 26 27 25 4 26 28 29 27 4
28 30 31 29 4 30 32 33 31 4
32 34 35 33 4 34 36 37 35 4
38 39 40 41 4 41 40 42 43 4
43 42 44 45 4 45 44 46 47 4
47 46 48 49 4 49 48 50 51 4
51 50 52 53 4 53 52 54 55 4
55 54 56 57 4 57 56 58 59 4
59 58 60 61 4 61 60 62 63 4
63 62 64 65 4 65 64 66 67 4
67 66 68 69 4 69 68 70 71 4
71 70 72 73 4 73 72 74 75 4
75 74 76 77 4 77 76 78 79 4
79 78 80 81 4 81 80 82 83 4
83 82 84 85 4 85 84 86 87 4
87 86 88 89 4 89 88 90 91 4
91 90 37 36 4 38 92 93 39 4
92 94 95 93 4 94 96 97 95 4
96 98 99 97 4 98 100 101 99 4
100 102 103 101 4 102 104 105 103 4
104 106 107 105 4 106 108 109 107 4
108 110 111 109 4 110 112 113 111 4
112 114 115 113 4 114 116 117 115 4
116 118 119 117 4 118 120 121 119 4
120 122 123 121 4 122 124 125 123 4
124 126 127 125 4 126 128 129 127 4
128 130 131 129 4 130 132 133 131 4
132 134 135 133 4 134 136 137 135 4
136 138 139 137 4 138 140 141 139 4
140 142 143 141 4 142 144 145 143 4
144 146 147 145 4 146 148 149 147 4
148 150 151 149 4 150 152 153 151 4
152 154 155 153 4 154 156 157 155 4
156 158 159 157 4 158 160 161 159 4
160 162 163 161 4 162 164 165 163 4
164 166 167 165 4 166 168 169 167 4
168 170 171 169 4 170 172 173 171 4
172 174 175 173 4 174 176 177 175 4
176 178 179 177 4 178 180 181 179 4
180 182 183 181 4 182 184 185 183 4
184 186 187 185 4 186 188 189 187 4
188 190 191 189 4 190 192 193 191 4
192 194 195 193 4 194 196 197 195 4
196 198 199 197 4 198 200 201 199 4
200 202 203 201 4 202 204 205 203 4
204 206 207 205 4 206 208 209 207 4
208 210 211 209 4 210 212 213 211 4
212 214 215 213 4 214 216 217 215 4
216 218 219 217 4 218 220 221 219 4
220 222 223 221 4 222 224 225 223 4
224 226 227 225 4 226 228 229 227 4
228 230 231 229 4 230 232 233 231 4
232 234 235 233 4 234 236 237 235 4
236 238 239 237 4 238 240 241 239 4
240 242 243 241 4 242 244 245 243 4
244 246 247 245 4 246 248 249 247 4
248 250 251 249 4 250 252 253 251 4
252 254 255 253 4 254 256 257 255 4
256 258 259 257 4 258 260 261 259 4
260 262 263 261 4 262 264 265 263 4
264 266 267 265 4 266 268 269 267 4
268 270 271 269 4 270 272 273 271 4
272 274 275 273 4 274 276 277 275 4
276 278 279 277 4 278 280 281 279 4
280 282 283 281 4 282 284 285 283 4
284 286 287 285 4 286 288 289 287 4
288 290 291 289 4 290 292 293 291 4
292 294 295 293 4 294 296 297 295 4
296 298 299 297 4 298 300 301 299 4
300 302 303 301 4 302 304 305 303 4
304 306 307 305 4 306 308 309 307 4
308 310 311 309 4 310 312 313 311 4
312 314 315 313 4 314 316 317 315 4
316 318 319 317 4 318 320 321 319 4
320 322 323 321 4 322 324 325 323 4
324 326 327 325 4 326 328 329 327 4
328 330 331 329 4 330 332 333 331 4
332 334 335 333 4 334 336 337 335 4
336 338 339 337 4 338 340 341 339 4
340 342 343 341 4 342 344 345 343 4
344 346 347 345 4 346 348 349 347 4
348 350 351 349 4 350 352 353 351 4
352 354 355 353 4 354 356 357 355 4
356 358 359 357 4 358 360 361 359 4
360 362 363 361 4 362 364 365 363 4
364 366 367 365 4 366 368 369 367 4
368 370 371 369 4 370 372 373 371 4
372 374 375 373 4 374 376 377 375 4
376 378 379 377 4 378 380 381 379 4
380 382 383 381 4 382 384 385 383 4
384 386 387 385 4 386 388 389 387 4
388 390 391 389 4 390 392 393 391 4
392 394 395 393 4 394 396 397 395 4
396 398 399 397 4 398 400 401 399 4
400 402 403 401 4 402 404 405 403 4
404 406 407 405 4 406 408 409 407 4
408 410 411 409 4 410 412 413 411 4
412 414 415 413 4 414 416 417 415 4
416 418 419 417 4 418 420 421 419 4
420 422 423 421 4 422 424 425 423 4
424 426 427 425 4 426 428 429 427 4
428 430 431 429 4 430 432 433 431 4
432 434 435 433 4 434 436 437 435 4
436 438 439 437 4 438 440 441 439 4
440 442 443 441 4 442 444 445 443 4
444 446 447 445 4 446 448 449 447 4
448 450 451 449 4 450 452 453 451 4
452 454 455 453 4 454 456 457 455 4
456 458 459 457 4 458 460 461 459 4
460 462 463 461 4 462 464 465 463 4
464 466 467 465 4 466 468 469 467 4
468 470 471 469 4 470 472 473 471 4
472 474 475 473 4 474 476 477 475 4
476 478 479 477 4 478 480 481 479 4
480 482 483 481 4 482 484 485 483 4
484 486 487 485 4 486 488 489 487 4
488 490 491 489 4 490 492 493 491 4
492 494 495 493 4 494 496 497 495 4
496 498 499 497 4 498 500 501 499 
POINT_DATA 502
FIELD attributes 1
U 3 502 float
3.19724 -0.0115875 -0.0395572 1.605 -0.00549524 -0.0194938 1.605 -0.00549524 -0.0194938 3.19724 -0.0115875
-0.0395572 0.0574486 0.000364041 0 0.0574486 0.000364041 0 0.0564133 0.000270297 0
0.0564133 0.000270297 0 0.0552984 0.000276927 0 0.0552984 0.000276927 0 0.0539881
0.000391464 0 0.0539881 0.000391464 0 0.0523702 0.00049567 0 0.0523702 0.00049567
0 0.0504758 0.000499598 0 0.0504758 0.000499598 0 0.0484636 0.000425774 0
0.0484636 0.000425774 0 0.0465126 0.000350444 0 0.0465126 0.000350444 0 0.0446231
0.000323815 0 0.0446231 0.000323815 0 0.0428187 0.000343769 0 0.0428187 0.000343769
0 0.0409706 0.000371255 0 0.0409706 0.000371255 0 0.039267 0.000363795 0
0.039267 0.000363795 0 0.0375609 0.000362365 0 0.0375609 0.000362365 0 0.0360361
0.000366077 0 0.0360361 0.000366077 0 0.0342214 0.000469337 0 0.0342214 0.000469337
0 0.0324152 0.000629706 0 0.0324152 0.000629706 0 0.0133949 0.00065203 0
0.0133949 0.00065203 0 -0.000258873 0.000624131 -1.25361e-22 -0.000258873 0.000624131 -1.25361e-22 -0.000104677
0.00204191 3.39035e-22 -0.000104677 0.00204191 3.39035e-22 0.000374034 0.00266097 4.01497e-22 0.000374034 0.00266097
4.01497e-22 0.000574513 -1.34512e-05 -8.02441e-22 0.000574513 -1.34512e-05 -8.02441e-22 0.000591483 -0.00275777 -2.67741e-22
0.000591483 -0.00275777 -2.67741e-22 0.000950066 -0.00608853 5.34482e-22 0.000950066 -0.00608853 5.34482e-22 0.000846178
-0.0101462 0 0.000846178 -0.0101462 0 0.000294411 -0.0118607 1.07353e-21 0.000294411 -0.0118607
1.07353e-21 5.51696e-05 -0.0124864 3.37847e-27 5.51696e-05 -0.0124864 3.37847e-27 -0.000201136 -0.0122666 -1.07353e-21
-0.000201136 -0.0122666 -1.07353e-21 -0.000541823 -0.0102448 1.06357e-21 -0.000541823 -0.0102448 1.06357e-21 -0.000587801
-0.00767325 -1.15065e-24 -0.000587801 -0.00767325 -1.15065e-24 -0.000533966 -0.00500529 -1.06472e-21 -0.000533966 -0.00500529
-1.06472e-21 -0.000404418 -0.00261969 -1.06345e-21 -0.000404418 -0.00261969 -1.06345e-21 -0.000187034 -0.000979278 6.61007e-25
-0.000187034 -0.000979278 6.61007e-25 2.47819e-05 -0.000159033 1.08297e-21 2.47819e-05 -0.000159033 1.08297e-21 0.000248885
-0.000323093 0 0.000248885 -0.000323093 0 0.000194039 -0.00130724 0 0.000194039 -0.00130724
0 -6.1441e-05 -0.00224378 0 -6.1441e-05 -0.00224378 0 0.000264239 -0.00279857 0
0.000264239 -0.00279857 0 0.000904525 -0.00443383 0 0.000904525 -0.00443383 0 0.000741337
-0.00697921 0 0.000741337 -0.00697921 0 7.48779e-06 -0.0079665 0 7.48779e-06 -0.0079665
0 -0.000759668 -0.00711274 0 -0.000759668 -0.00711274 0 -0.00153378 -0.0053583 0
-0.00153378 -0.0053583 0 -0.00213651 -0.00287617 0 -0.00213651 -0.00287617 0 -0.00218952
-0.000422071 0 -0.00218952 -0.000422071 0 -0.000562271 0.000689736 -5.80726e-25 -0.000562271 0.000689736
-5.80726e-25 -0.00111708 0.000686743 6.22594e-23 -0.00111708 0.000686743 6.22594e-23 -0.0015564 0.00053808 0
-0.0015564 0.00053808 0 -0.00185662 0.000354372 0 -0.00185662 0.000354372 0 -0.00198988
0.000147497 -6.05233e-23 -0.00198988 0.000147497 -6.05233e-23 -0.00196326 -5.27586e-05 -6.0632e-23 -0.00196326 -5.27586e-05
-6.0632e-23 -0.00180336 -0.00023177 0 -0.00180336 -0.00023177 0 -0.00151787 -0.00037933 0
-0.00151787 -0.00037933 0 -0.00111684 -0.000484799 0 -0.00111684 -0.000484799 0 -0.000622682
-0.000516148 5.84055e-23 -0.000622682 -0.000516148 5.84055e-23 -9.9501e-05 -0.000439726 5.85168e-23 -9.9501e-05 -0.000439726
5.85168e-23 0.00035589 -0.000240661 0 0.00035589 -0.000240661 0 0.000639384 5.04144e-05 0
0.000639384 5.04144e-05 0 0.000665048 0.000322503 0 0.000665048 0.000322503 0 0.000438351
0.000474524 5.61846e-23 0.000438351 0.000474524 5.61846e-23 6.64953e-05 0.000486525 5.62981e-23 6.64953e-05 0.000486525
5.62981e-23 -0.000323554 0.000401825 0 -0.000323554 0.000401825 0 -0.000663989 0.000298466 0
-0.000663989 0.000298466 0 -0.000952088 0.000225213 0 -0.000952088 0.000225213 0 -0.00121349
0.000187454 0 -0.00121349 0.000187454 0 -0.00147324 0.000175484 0 -0.00147324 0.000175484
0 -0.00174466 0.000181539 0 -0.00174466 0.000181539 0 -0.00203269 0.000200846 5.26899e-23
-0.00203269 0.000200846 5.26899e-23 -0.00233917 0.000228786 5.4051e-25 -0.00233917 0.000228786 5.4051e-25 -0.00266588
0.000260379 -5.40114e-25 -0.00266588 0.000260379 -5.40114e-25 -0.00301495 0.000291824 1.03379e-22 -0.00301495 0.000291824
1.03379e-22 -0.00338795 0.000321101 5.15373e-23 -0.00338795 0.000321101 5.15373e-23 -0.00378486 0.000347501 0
-0.00378486 0.000347501 0 -0.00420372 0.000371572 -5.01526e-23 -0.00420372 0.000371572 -5.01526e-23 -0.00464149
0.00039626 -9.99992e-23 -0.00464149 0.00039626 -9.99992e-23 -0.00509621 0.000429121 -4.98469e-23 -0.00509621 0.000429121
-4.98469e-23 -0.00556988 0.000483973 0 -0.00556988 0.000483973 0 -0.00607148 0.000572502 -4.84278e-23
-0.00607148 0.000572502 -4.84278e-23 -0.00661461 0.000671094 -4.8547e-23 -0.00661461 0.000671094 -4.8547e-23 -0.00719534
0.000682459 0 -0.00719534 0.000682459 0 -0.00775225 0.000480234 4.70805e-23 -0.00775225 0.000480234
4.70805e-23 -0.00816754 7.39642e-05 4.72002e-23 -0.00816754 7.39642e-05 4.72002e-23 -0.008361 -0.000306326 4.61737e-23
-0.008361 -0.000306326 4.61737e-23 -0.00838051 -0.000409306 1.37703e-22 -0.00838051 -0.000409306 1.37703e-22 -0.00836281
-0.00023504 9.16489e-23 -0.00836281 -0.00023504 9.16489e-23 -0.00839383 -2.21788e-05 0 -0.00839383 -2.21788e-05
0 -0.00842794 2.60016e-05 0 -0.00842794 2.60016e-05 0 -0.00835913 -8.55591e-05 0
-0.00835913 -8.55591e-05 0 -0.00814779 -0.000241774 0 -0.00814779 -0.000241774 0 -0.0078305
-0.000371762 8.54592e-23 -0.0078305 -0.000371762 8.54592e-23 -0.00742365 -0.000468469 1.70147e-22 -0.00742365 -0.000468469
1.70147e-22 -0.00692147 -0.000530606 1.68137e-22 -0.00692147 -0.000530606 1.68137e-22 -0.00634902 -0.000552348 8.36862e-23
-0.00634902 -0.000552348 8.36862e-23 -0.00572202 -0.000556578 -8.14924e-23 -0.00572202 -0.000556578 -8.14924e-23 -0.00505083
-0.000571598 -8.17285e-23 -0.00505083 -0.000571598 -8.17285e-23 -0.00433003 -0.00059707 7.96212e-23 -0.00433003 -0.00059707
7.96212e-23 -0.00355328 -0.000618839 1.58586e-22 -0.00355328 -0.000618839 1.58586e-22 -0.00273348 -0.000628885 7.89641e-23
-0.00273348 -0.000628885 7.89641e-23 -0.00187201 -0.000623916 0 -0.00187201 -0.000623916 0 -0.000984119
-0.00060144 0 -0.000984119 -0.00060144 0 -9.02718e-05 -0.000561939 7.55577e-23 -9.02718e-05 -0.000561939
7.55577e-23 0.000781412 -0.000508364 7.57917e-23 0.000781412 -0.000508364 7.57917e-23 0.00160266 -0.000447536 0
0.00160266 -0.000447536 0 0.00235059 -0.000391235 0 0.00235059 -0.000391235 0 0.00301625
-0.000355214 0 0.00301625 -0.000355214 0 0.0036194 -0.00034244 0 0.0036194 -0.00034244
0 0.00418406 -0.000335557 0 0.00418406 -0.000335557 0 0.00471214 -0.000323145 0
0.00471214 -0.000323145 0 0.00519029 -0.000314872 0 0.00519029 -0.000314872 0 0.00561311
-0.00031105 -6.99402e-23 0.00561311 -0.00031105 -6.99402e-23 0.00598554 -0.000306716 -7.01752e-23 0.00598554 -0.000306716
-7.01752e-23 0.00632218 -0.000299258 0 0.00632218 -0.000299258 0 0.00659126 -0.000246408 6.82906e-23
0.00659126 -0.000246408 6.82906e-23 0.00674451 -0.000118078 1.36204e-22 0.00674451 -0.000118078 1.36204e-22 0.00672214
2.99334e-05 6.79132e-23 0.00672214 2.99334e-05 6.79132e-23 0.00639118 0.000102935 -6.62877e-23 0.00639118 0.000102935
-6.62877e-23 0.00586277 0.000251833 -9.71848e-25 0.00586277 0.000251833 -9.71848e-25 0.00514822 0.000699549 6.57843e-23
0.00514822 0.000699549 6.57843e-23 0.00377665 0.000937999 -6.41863e-23 0.00377665 0.000937999 -6.41863e-23 0.00225964
0.000436708 -6.44191e-23 0.00225964 0.000436708 -6.44191e-23 0.00178512 -0.000382971 0 0.00178512 -0.000382971
0 0.00229899 -0.000888785 6.21651e-23 0.00229899 -0.000888785 6.21651e-23 0.0029782 -0.000904195 6.23963e-23
0.0029782 -0.000904195 6.23963e-23 0.00311267 -0.000421754 -6.10451e-23 0.00311267 -0.000421754 -6.10451e-23 0.00236202
0.000323063 -6.12758e-23 0.00236202 0.000323063 -6.12758e-23 0.00109461 0.000746103 6.03055e-23 0.00109461 0.000746103
6.03055e-23 -0.000128763 0.000728048 1.20507e-22 -0.000128763 0.000728048 1.20507e-22 -0.00113319 0.000583145 1.19798e-22
-0.00113319 0.000583145 1.19798e-22 -0.00193311 0.00045452 1.78306e-22 -0.00193311 0.00045452 1.78306e-22 -0.00256817
0.000353638 1.16554e-24 -0.00256817 0.000353638 1.16554e-24 -0.00308415 0.000278989 -1.18244e-22 -0.00308415 0.000278989
-1.18244e-22 -0.00351442 0.000227351 0 -0.00351442 0.000227351 0 -0.00388748 0.000194981 0
-0.00388748 0.000194981 0 -0.00422851 0.000178336 -1.15061e-22 -0.00422851 0.000178336 -1.15061e-22 -0.00455957
0.000174187 -2.29954e-22 -0.00455957 0.000174187 -2.29954e-22 -0.00490051 0.000180507 -1.07919e-24 -0.00490051 0.000180507
-1.07919e-24 -0.00526804 0.000195841 1.14285e-22 -0.00526804 0.000195841 1.14285e-22 -0.00567567 0.000218414 -1.12712e-22
-0.00567567 0.000218414 -1.12712e-22 -0.00613451 0.0002465 -2.25417e-22 -0.00613451 0.0002465 -2.25417e-22 -0.00665309
0.000278325 -2.24513e-22 -0.00665309 0.000278325 -2.24513e-22 -0.0072374 0.0003121 -1.12283e-22 -0.0072374 0.0003121
-1.12283e-22 -0.0078908 0.000346143 0 -0.0078908 0.000346143 0 -0.00861399 0.000378957 0
-0.00861399 0.000378957 0 -0.00940473 0.000409158 -1.10738e-22 -0.00940473 0.000409158 -1.10738e-22 -0.0102574
0.000435205 -1.11223e-22 -0.0102574 0.000435205 -1.11223e-22 -0.0111627 0.000455252 0 -0.0111627 0.000455252
0 -0.0121077 0.000467373 1.10567e-22 -0.0121077 0.000467373 1.10567e-22 -0.0130759 0.000469761 1.11061e-22
-0.0130759 0.000469761 1.11061e-22 -0.0140465 0.000460827 0 -0.0140465 0.000460827 0 -0.0149948
0.000439326 1.10547e-22 -0.0149948 0.000439326 1.10547e-22 -0.0158929 0.000404566 1.1105e-22 -0.0158929 0.000404566
1.1105e-22 -0.0167107 0.000356658 0 -0.0167107 0.000356658 0 -0.0174182 0.000296652 -1.09787e-22
-0.0174182 0.000296652 -1.09787e-22 -0.0179874 0.000226712 -2.19464e-22 -0.0179874 0.000226712 -2.19464e-22 -0.0183946
0.000150405 -1.09677e-22 -0.0183946 0.000150405 -1.09677e-22 -0.0186224 7.18908e-05 1.0717e-22 -0.0186224 7.18908e-05
1.0717e-22 -0.018661 -6.46859e-06 1.07677e-22 -0.018661 -6.46859e-06 1.07677e-22 -0.0185137 -8.21194e-05 -1.04043e-22
-0.0185137 -8.21194e-05 -1.04043e-22 -0.0181879 -0.000153169 -1.0454e-22 -0.0181879 -0.000153169 -1.0454e-22 -0.0176889
-0.000219269 -9.99161e-23 -0.0176889 -0.000219269 -9.99161e-23 -0.017028 -0.000279056 -1.97962e-22 -0.017028 -0.000279056
-1.97962e-22 -0.0162197 -0.000331406 -9.80371e-23 -0.0162197 -0.000331406 -9.80371e-23 -0.0152807 -0.000375615 0
-0.0152807 -0.000375615 0 -0.01423 -0.000411322 0 -0.01423 -0.000411322 0 -0.0130872
-0.000438544 0 -0.0130872 -0.000438544 0 -0.0118722 -0.000457581 0 -0.0118722 -0.000457581
0 -0.0106042 -0.000468918 0 -0.0106042 -0.000468918 0 -0.0093012 -0.000473146 0
-0.0093012 -0.000473146 0 -0.00798032 -0.000470889 -7.76531e-23 -0.00798032 -0.000470889 -7.76531e-23 -0.006657
-0.000462835 -2.50005e-24 -0.006657 -0.000462835 -2.50005e-24 -0.00534539 -0.000449783 7.59353e-23 -0.00534539 -0.000449783
7.59353e-23 -0.00405814 -0.000432098 0 -0.00405814 -0.000432098 0 -0.00280759 -0.000410753 0
-0.00280759 -0.000410753 0 -0.00160635 -0.000385844 0 -0.00160635 -0.000385844 0 -0.000466655
-0.000359952 1.34198e-22 -0.000466655 -0.000359952 1.34198e-22 0.000603639 -0.000332867 1.34903e-22 0.000603639 -0.000332867
1.34903e-22 0.0016029 -0.000302879 -1.28905e-22 0.0016029 -0.000302879 -1.28905e-22 0.00252702 -0.000271977 -3.04601e-24
0.00252702 -0.000271977 -3.04601e-24 0.00336958 -0.00023998 1.27218e-22 0.00336958 -0.00023998 1.27218e-22 0.00412666
-0.000206826 0 0.00412666 -0.000206826 0 0.00479562 -0.000173281 0 0.00479562 -0.000173281
0 0.00537647 -0.000141755 -1.18517e-22 0.00537647 -0.000141755 -1.18517e-22 0.00587424 -0.00011561 -2.35915e-22
0.00587424 -0.00011561 -2.35915e-22 0.00629944 -9.50177e-05 -1.17391e-22 0.00629944 -9.50177e-05 -1.17391e-22 0.0066619
-7.05639e-05 -1.13385e-22 0.0066619 -7.05639e-05 -1.13385e-22 0.00695514 -2.45131e-05 -2.25766e-22 0.00695514 -2.45131e-05
-2.25766e-22 0.00714418 4.96096e-05 -2.21261e-24 0.00714418 4.96096e-05 -2.21261e-24 0.00718851 0.000128014 1.10775e-22
0.00718851 0.000128014 1.10775e-22 0.00708792 0.000172059 0 0.00708792 0.000172059 0 0.00688634
0.000161777 1.05539e-22 0.00688634 0.000161777 1.05539e-22 0.00664213 0.00010982 1.06133e-22 0.00664213 0.00010982
1.06133e-22 0.00640407 4.88868e-05 0 0.00640407 4.88868e-05 0 0.00619781 6.58399e-06 0
0.00619781 6.58399e-06 0 0.00602713 -7.58322e-06 0 0.00602713 -7.58322e-06 0 0.00588388
-1.31412e-06 -9.80012e-23 0.00588388 -1.31412e-06 -9.80012e-23 0.00575741 9.77702e-06 -1.95067e-22 0.00575741 9.77702e-06
-1.95067e-22 0.00563955 1.59642e-05 -9.70597e-23 0.00563955 1.59642e-05 -9.70597e-23 0.00552704 1.64159e-05 -9.35238e-23
0.00552704 1.64159e-05 -9.35238e-23 0.00542254 1.36347e-05 -9.4068e-23 0.00542254 1.36347e-05 -9.4068e-23 0.00533304
1.00287e-05 0 0.00533304 1.00287e-05 0 0.00526617 7.00572e-06 -8.90522e-23 0.00526617 7.00572e-06
-8.90522e-23 0.0052273 4.66332e-06 -8.95764e-23 0.0052273 4.66332e-06 -8.95764e-23 0.00521799 3.10436e-06 -8.60237e-23
0.00521799 3.10436e-06 -8.60237e-23 0.00523521 3.14958e-06 -8.65338e-23 0.00523521 3.14958e-06 -8.65338e-23 0.00527316
4.06583e-06 0 0.00527316 4.06583e-06 0 0.0053267 3.44896e-06 -8.14271e-23 0.0053267 3.44896e-06