/*--------------------------------*- C++ -*----------------------------------*\
  =========                 |
  \\      /  F ield         | OpenFOAM: The Open Source CFD Toolbox
   \\    /   O peration     | Website:  https://openfoam.org
    \\  /    A nd           | Version:  9
     \\/     M anipulation  |
\*---------------------------------------------------------------------------*/
FoamFile
{
    format      ascii;
    class       volScalarField;
    location    "0.061";
    object      k_0;
}
// * * * * * * * * * * * * * * * * * * * * * * * * * * * * * * * * * * * * * //

dimensions      [0 2 -2 0 0 0 0];

internalField   nonuniform List<scalar> 
12225
(
9.38582e-05
6.52144e-05
3.68184e-05
2.68682e-05
2.75879e-05
4.36182e-05
0.000105357
0.000153431
0.000168551
0.000168278
0.000153126
0.000110078
7.84405e-05
5.86705e-05
4.38036e-05
3.46016e-05
2.1527e-05
2.89698e-05
2.20335e-05
2.19533e-05
2.13562e-05
2.08708e-05
2.10824e-05
2.29282e-05
2.98152e-05
4.96192e-05
6.85515e-05
7.77289e-05
7.91887e-05
7.80423e-05
7.26899e-05
6.13188e-05
5.22484e-05
4.35674e-05
3.97077e-05
3.3514e-05
2.00507e-05
1.85002e-05
1.7915e-05
1.81258e-05
1.85379e-05
1.87303e-05
1.90326e-05
1.98804e-05
2.1081e-05
2.24107e-05
2.33848e-05
2.44788e-05
2.57508e-05
2.61504e-05
2.61066e-05
2.57654e-05
2.55327e-05
2.50584e-05
2.00311e-05
2.00224e-05
2.03525e-05
2.22878e-05
2.48145e-05
2.54453e-05
2.50228e-05
2.29034e-05
1.84236e-05
1.41591e-05
1.22642e-05
1.22098e-05
1.25426e-05
1.27174e-05
1.26172e-05
1.24253e-05
1.24183e-05
1.24906e-05
2.00033e-05
2.06859e-05
2.62462e-05
5.32346e-05
0.000147386
0.00020674
0.000193357
0.000119162
6.63074e-05
4.23884e-05
3.07595e-05
2.52983e-05
2.23483e-05
2.0304e-05
1.89859e-05
1.82388e-05
1.80538e-05
1.7894e-05
2.00364e-05
2.07011e-05
2.35067e-05
3.457e-05
8.78832e-05
0.000175278
0.000182396
0.000141608
7.45536e-05
4.30197e-05
3.15096e-05
2.91086e-05
2.95705e-05
3.36244e-05
4.01811e-05
4.27397e-05
4.27623e-05
4.14892e-05
2.10403e-05
2.21289e-05
2.2363e-05
2.28285e-05
2.55395e-05
3.43883e-05
3.82507e-05
3.71156e-05
3.15292e-05
2.86069e-05
2.8631e-05
3.13459e-05
3.49447e-05
3.61635e-05
3.60591e-05
3.46822e-05
3.33287e-05
3.26509e-05
2.028e-05
2.53547e-05
3.07313e-05
2.92624e-05
2.44663e-05
2.24181e-05
2.20056e-05
2.20126e-05
2.22866e-05
2.36793e-05
2.82049e-05
4.27416e-05
6.34059e-05
7.41431e-05
7.62686e-05
7.57562e-05
7.3476e-05
6.61044e-05
2.03294e-05
2.25013e-05
2.44544e-05
2.43054e-05
2.25727e-05
2.15964e-05
2.14925e-05
2.16445e-05
2.22124e-05
2.35424e-05
2.65432e-05
3.67323e-05
5.47898e-05
6.39441e-05
6.54642e-05
6.4739e-05
6.30344e-05
6.24953e-05
2.00422e-05
2.04898e-05
2.07101e-05
2.07653e-05
2.082e-05
2.0973e-05
2.1377e-05
2.22662e-05
2.43655e-05
3.18482e-05
4.26072e-05
4.69231e-05
4.65238e-05
4.10995e-05
3.65162e-05
3.56393e-05
3.58171e-05
3.76349e-05
2.04972e-05
2.35368e-05
2.39789e-05
2.26446e-05
2.14156e-05
2.12415e-05
2.1456e-05
2.24367e-05
2.35918e-05
2.48245e-05
2.68789e-05
3.28102e-05
4.28458e-05
4.54232e-05
4.40731e-05
3.88451e-05
3.63646e-05
3.64416e-05
2.18616e-05
3.28907e-05
3.70614e-05
3.51962e-05
2.75755e-05
2.38602e-05
2.35489e-05
2.49757e-05
2.66473e-05
2.68363e-05
2.62086e-05
2.57173e-05
2.60052e-05
2.72974e-05
3.02478e-05
3.32384e-05
3.49711e-05
3.82398e-05
2.38582e-05
3.18551e-05
3.18721e-05
3.05489e-05
2.58541e-05
2.28188e-05
2.17929e-05
2.1595e-05
2.15803e-05
2.15061e-05
2.11527e-05
2.09775e-05
2.0976e-05
2.11056e-05
2.16458e-05
2.33739e-05
2.88134e-05
3.54722e-05
2.19434e-05
2.21769e-05
2.35699e-05
2.5514e-05
2.58672e-05
2.55113e-05
2.45789e-05
2.40679e-05
2.34822e-05
2.26886e-05
2.18987e-05
2.13418e-05
2.10707e-05
2.10031e-05
2.10192e-05
2.11759e-05
2.17858e-05
2.36873e-05
2.18792e-05
2.27369e-05
2.23595e-05
2.1966e-05
2.19461e-05
2.20861e-05
2.25714e-05
2.28234e-05
2.28401e-05
2.27148e-05
2.25086e-05
2.24636e-05
2.25122e-05
2.28242e-05
2.31342e-05
2.33114e-05
2.34401e-05
2.34796e-05
2.04864e-05
2.22627e-05
2.24052e-05
2.21214e-05
2.17219e-05
2.15469e-05
2.15035e-05
2.15693e-05
2.2115e-05
2.3276e-05
2.39069e-05
2.41095e-05
2.41119e-05
2.39531e-05
2.34574e-05
2.30354e-05
2.25676e-05
2.2087e-05
2.14913e-05
2.13774e-05
2.17681e-05
2.13911e-05
2.09075e-05
2.0788e-05
2.08163e-05
2.09948e-05
2.15679e-05
2.20081e-05
2.22065e-05
2.22536e-05
2.22215e-05
2.19681e-05
2.1557e-05
2.13592e-05
2.13349e-05
2.13898e-05
2.01778e-05
2.10075e-05
2.15778e-05
2.1327e-05
2.12216e-05
2.11665e-05
2.1134e-05
2.11133e-05
2.10812e-05
2.09971e-05
2.08767e-05
2.07842e-05
2.07347e-05
2.07226e-05
2.07332e-05
2.08366e-05
2.13333e-05
2.27399e-05
2.12316e-05
2.13454e-05
2.11025e-05
2.11117e-05
2.10549e-05
2.11754e-05
2.15578e-05
2.18155e-05
2.18834e-05
2.18663e-05
2.16984e-05
2.12047e-05
2.08616e-05
2.07198e-05
2.07016e-05
2.07521e-05
2.10148e-05
2.20756e-05
2.03662e-05
2.11719e-05
2.12966e-05
2.13083e-05
2.14561e-05
2.27611e-05
2.57945e-05
2.70587e-05
2.71588e-05
2.66213e-05
2.44665e-05
2.27259e-05
2.20326e-05
2.19857e-05
2.27327e-05
2.37229e-05
2.37484e-05
2.34291e-05
2.34501e-05
2.41057e-05
2.30263e-05
2.19002e-05
2.12339e-05
2.12998e-05
2.20193e-05
2.45965e-05
3.39921e-05
4.54916e-05
4.90073e-05
4.71089e-05
3.84451e-05
3.05837e-05
2.62524e-05
2.41584e-05
2.34331e-05
2.33524e-05
2.06639e-05
2.15087e-05
2.17571e-05
2.18449e-05
2.22942e-05
2.47087e-05
3.60748e-05
6.14865e-05
7.28291e-05
7.16623e-05
5.66493e-05
3.89742e-05
2.99201e-05
2.54493e-05
2.34673e-05
2.28473e-05
2.28032e-05
2.28687e-05
2.02113e-05
2.08059e-05
2.16212e-05
2.17395e-05
2.17075e-05
2.18623e-05
2.31734e-05
2.56094e-05
2.63362e-05
2.61479e-05
2.48681e-05
2.3308e-05
2.26093e-05
2.23624e-05
2.2323e-05
2.23762e-05
2.27666e-05
2.33908e-05
2.0017e-05
2.06879e-05
2.23033e-05
2.27859e-05
2.2577e-05
2.15266e-05
2.12245e-05
2.09264e-05
2.05689e-05
2.05191e-05
2.05531e-05
2.07815e-05
2.11683e-05
2.14506e-05
2.16179e-05
2.16956e-05
2.17228e-05
2.17286e-05
2.00649e-05
2.11117e-05
2.1871e-05
2.18542e-05
2.1554e-05
2.15523e-05
2.14424e-05
2.12932e-05
2.13e-05
2.13938e-05
2.16793e-05
2.25513e-05
2.49899e-05
2.68439e-05
2.73949e-05
2.72484e-05
2.60638e-05
2.41826e-05
2.14823e-05
2.32088e-05
2.30891e-05
2.20249e-05
2.15637e-05
2.15565e-05
2.16669e-05
2.21393e-05
2.37714e-05
2.9022e-05
3.51738e-05
3.87996e-05
4.01297e-05
4.01295e-05
3.86236e-05
3.27048e-05
2.74315e-05
2.48411e-05
2.02512e-05
2.02347e-05
1.99915e-05
1.97129e-05
1.96585e-05
1.96294e-05
1.97229e-05
1.99297e-05
2.01155e-05
2.04873e-05
2.0961e-05
2.12654e-05
2.13243e-05
2.12381e-05
2.08039e-05
1.92196e-05
1.64774e-05
1.46856e-05
2.00563e-05
1.61021e-05
1.13291e-05
8.91174e-06
8.91158e-06
9.67485e-06
1.16684e-05
1.3106e-05
1.41958e-05
1.52413e-05
1.63246e-05
1.73999e-05
1.83724e-05
1.91563e-05
1.96319e-05
1.97813e-05
1.97339e-05
1.91775e-05
2.35925e-05
3.49396e-05
4.39848e-05
5.08313e-05
5.06544e-05
4.22029e-05
2.96948e-05
2.45015e-05
2.33683e-05
2.37047e-05
2.63401e-05
3.57905e-05
4.63921e-05
5.32648e-05
5.63632e-05
5.68288e-05
5.64089e-05
5.40896e-05
0.000298228
0.000447135
0.000495853
0.00049233
0.000417647
0.000212174
9.44176e-05
5.27096e-05
4.6561e-05
5.44908e-05
9.6516e-05
0.000138208
0.000155738
0.000159209
0.000156949
0.000139769
0.000108547
9.12109e-05
0.0656417
0.0914773
0.0979065
0.103243
0.102921
0.100046
0.092818
0.0869777
0.084641
0.0849416
0.0862202
0.0870271
0.0866237
0.0820485
0.0723372
0.0667736
0.0648537
0.0597795
0.0554827
0.0557593
0.0595414
0.0758678
0.0912614
0.0976198
0.109519
0.150587
0.203228
0.203986
0.180404
0.158404
0.149277
0.142402
0.140752
0.151263
0.168479
0.191877
0.223182
0.237616
0.241083
0.240744
0.233194
0.22036
0.21106
0.205142
0.197305
0.188358
0.18128
0.174913
0.170306
0.168686
0.168228
0.168172
0.168339
0.169033
0.170543
0.172952
0.176094
0.17989
0.184389
0.18981
0.196915
0.203235
0.20478
0.203189
0.192643
0.177723
0.17479
0.176199
0.183439
0.188435
0.189188
0.187406
0.182365
0.176791
0.17324
0.170566
0.168817
0.166867
0.159862
0.160857
0.167745
0.184986
0.223432
0.333516
0.561573
0.60496
0.451216
0.175126
0.0964583
0.0903828
0.0632366
0.0553538
0.0435202
0.0377595
0.0297827
0.0262145
0.023011
0.0217437
0.0212956
0.0211229
0.0206787
0.0204303
0.0199082
0.0196989
0.0193322
0.0190327
0.0185278
0.0182603
0.017883
0.0174978
0.017138
0.0167885
0.0166444
0.0164469
0.0163625
0.0163064
0.0162985
0.0162841
0.0163147
0.0163416
0.016406
0.016483
0.0165888
0.0166226
0.0166479
0.0167492
0.017182
0.0177933
0.0178082
0.0175744
0.0170559
0.0166179
0.0162901
0.0160599
0.0159275
0.015874
0.0158458
0.0158106
0.0157836
0.0157856
0.0158006
0.0158101
0.0157703
0.0157497
0.0157589
0.0157834
0.0158142
0.0158484
0.0158506
0.0157164
0.0155759
0.0154303
0.0150191
0.0127057
0.00418422
0.000850492
0.00049518
0.000891669
0.00138813
0.00147787
0.00145863
0.00150635
0.0015255
0.00161215
0.0026604
0.00456787
0.00385155
0.00155502
0.000876927
0.000753076
0.000765107
0.000769067
0.000754778
0.000778214
0.00085393
0.000785102
0.000407191
0.000175232
0.000118656
5.74093e-05
0.0512394
0.0998987
0.0940434
0.0778725
0.0652927
0.0624489
0.0611234
0.0605209
0.0606125
0.0608388
0.0614839
0.0634179
0.0704655
0.0746269
0.0745421
0.0741305
0.0727499
0.0643184
0.0589246
0.0621275
0.0758055
0.105056
0.13244
0.163761
0.184699
0.185172
0.178883
0.158173
0.145336
0.14284
0.141093
0.139877
0.145225
0.155003
0.166998
0.178268
0.182573
0.181651
0.17425
0.163821
0.151311
0.138271
0.126834
0.118826
0.113348
0.110562
0.109189
0.108723
0.10873
0.110134
0.113208
0.116593
0.120366
0.125039
0.13038
0.13557
0.140916
0.146088
0.150158
0.153809
0.156357
0.158502
0.160657
0.163307
0.166871
0.171461
0.17771
0.181844
0.182954
0.18359
0.181936
0.165012
0.140501
0.121115
0.114602
0.116749
0.119511
0.120685
0.11783
0.114217
0.118087
0.134515
0.178193
0.283196
0.476058
0.431981
0.150299
0.0965333
0.0685679
0.0545555
0.0418735
0.0377847
0.034844
0.0336029
0.0328576
0.0325932
0.0320475
0.0314007
0.0304415
0.0299178
0.0291161
0.0282647
0.0269515
0.0258532
0.0247497
0.0233601
0.0219917
0.0204709
0.019152
0.0177168
0.0165837
0.0153305
0.0144055
0.0135044
0.0126277
0.0119069
0.0113888
0.0107282
0.010335
0.0100895
0.00993524
0.00995262
0.0102223
0.0106494
0.0110849
0.0113648
0.0115684
0.0115945
0.0114838
0.0111747
0.0108731
0.0106661
0.0106248
0.0106364
0.0106788
0.0107879
0.0109588
0.0111327
0.011276
0.0113861
0.011492
0.0116061
0.0116935
0.0118045
0.0120435
0.0123126
0.0125294
0.0128976
0.0138081
0.0145038
0.0148661
0.0156407
0.0162963
0.0162361
0.0152646
0.0115862
0.00811495
0.00598127
0.00440395
0.00322274
0.00256419
0.00238452
0.00215677
0.00203731
0.00211402
0.00288937
0.00376912
0.00378364
0.00302273
0.0019812
0.00167303
0.0016608
0.00166833
0.00164702
0.00154833
0.00146359
0.00135072
0.0013057
0.00120622
0.00120407
0.0642411
0.0778727
0.0624617
0.0478522
0.0489537
0.0526155
0.0565077
0.0594005
0.0617517
0.0621023
0.0622136
0.0628738
0.0648074
0.0680773
0.0720028
0.0737224
0.0734845
0.0708022
0.0751971
0.107128
0.136147
0.144485
0.147494
0.152965
0.148517
0.138936
0.131786
0.130695
0.132521
0.133416
0.13351
0.134326
0.136129
0.136066
0.131072
0.125155
0.120773
0.11867
0.11387
0.10839
0.102092
0.0962916
0.0918258
0.0886267
0.085862
0.0839797
0.0830749
0.082731
0.0828029
0.0846314
0.08696
0.0910622
0.096393
0.10257
0.109674
0.116137
0.122827
0.12884
0.134139
0.138889
0.141607
0.143028
0.143518
0.143526
0.142098
0.138392
0.134412
0.129687
0.120242
0.103377
0.0820919
0.0706862
0.0714081
0.0803944
0.0947308
0.109992
0.120014
0.127533
0.121227
0.10755
0.103206
0.106142
0.128845
0.207341
0.382797
0.22781
0.0852048
0.0601187
0.0489028
0.0433047
0.040559
0.039545
0.0392636
0.0396007
0.0397491
0.0397775
0.0397878
0.0395836
0.0391928
0.0385179
0.0376752
0.0364185
0.0352554
0.0340789
0.0330822
0.0315651
0.0305889
0.0292431
0.0279039
0.0262523
0.0245232
0.0220586
0.019803
0.0173696
0.0148853
0.0127965
0.0113956
0.0102607
0.00930076
0.0086312
0.00800326
0.00751502
0.00711971
0.00696611
0.00696279
0.00703356
0.00711423
0.00716826
0.00724961
0.00735887
0.00763661
0.00805638
0.00841305
0.00866319
0.00881942
0.00890852
0.00894361
0.00893788
0.00891628
0.00887063
0.00879854
0.0087211
0.00862992
0.00849355
0.00831782
0.00818267
0.0081199
0.00811121
0.00817781
0.00842413
0.00910302
0.0101149
0.0108623
0.0127307
0.0139403
0.0137896
0.0132431
0.0128709
0.0120862
0.00925135
0.00542539
0.00356267
0.00274053
0.00237396
0.00232148
0.00242109
0.00280429
0.00281879
0.00244544
0.00207385
0.00207845
0.00228208
0.00243247
0.00243462
0.00227141
0.00196455
0.0016618
0.00138493
0.00114274
0.00108043
0.0408302
0.0401826
0.0369974
0.0398903
0.0501777
0.068375
0.0772478
0.0838038
0.0861657
0.0855181
0.0828035
0.0754104
0.0704906
0.0703685
0.071736
0.073545
0.0726219
0.0749991
0.111368
0.133166
0.124325
0.122833
0.124134
0.124286
0.124045
0.122255
0.121224
0.119987
0.118958
0.115744
0.113597
0.110845
0.10752
0.104724
0.103283
0.100734
0.0976478
0.092001
0.0839152
0.0743786
0.0647266
0.0554852
0.0479561
0.0416598
0.0365362
0.0326432
0.0297724
0.0281133
0.0273433
0.0270819
0.0273241
0.0290637
0.0312604
0.0344295
0.0389954
0.0444391
0.0515741
0.0593013
0.0673103
0.0748433
0.0799177
0.0820304
0.0827567
0.0826445
0.0797752
0.0718061
0.0607106
0.049952
0.0416379
0.0398363
0.0426341
0.0531097
0.0703643
0.0938771
0.124994
0.159038
0.190627
0.210071
0.206264
0.181727
0.125319
0.106966
0.115146
0.216161
0.316755
0.132341
0.0618969
0.0500289
0.0461244
0.044501
0.0441372
0.04477
0.0448592
0.0450105
0.045946
0.0471777
0.047866
0.0483989
0.0485787
0.0477155
0.0457512
0.0430591
0.0399485
0.0371793
0.0355096
0.0331385
0.0318764
0.0307564
0.0299531
0.0291451
0.028313
0.0271122
0.0258941
0.0242988
0.0222107
0.0194931
0.0163825
0.0138927
0.0117732
0.00997732
0.00864875
0.00766989
0.00699544
0.00655498
0.00635698
0.0063233
0.00633289
0.00636121
0.00641722
0.00654486
0.00695782
0.00766665
0.00821307
0.00858019
0.0088058
0.00892022
0.00895098
0.00894405
0.00892211
0.00891706
0.00891995
0.00893684
0.00897278
0.00901346
0.00908584
0.00924776
0.009714
0.0110686
0.0116881
0.011688
0.0114757
0.0114107
0.0115275
0.0122521
0.0136213
0.0142053
0.014246
0.014246
0.0141649
0.0133642
0.00979459
0.00586651
0.00392536
0.00330589
0.00298916
0.00278339
0.00275266
0.00266048
0.00257977
0.00287147
0.00361182
0.00401609
0.00410291
0.00395827
0.00365353
0.00323625
0.00273667
0.00214086
0.0016775
0.00117995
0.0330734
0.0366259
0.0342346
0.0491162
0.0786346
0.0873852
0.0901836
0.0947166
0.0971007
0.0965423
0.0940112
0.0868869
0.0789647
0.07351
0.0730208
0.0732704
0.0734714
0.106746
0.123375
0.110175
0.106028
0.110923
0.113382
0.1139
0.110537
0.104865
0.0995461
0.0937767
0.0883778
0.0850437
0.0824129
0.0797762
0.0777156
0.0742599
0.0703207
0.0645743
0.0576939
0.0497446
0.0413006
0.033846
0.0271147
0.0221685
0.0186698
0.0160475
0.0143588
0.0132105
0.0123945
0.0119377
0.0116994
0.0115886
0.0115441
0.0115573
0.0117858
0.0120305
0.0124522
0.0130656
0.0138731
0.0148615
0.0159128
0.0169853
0.017416
0.0175189
0.017484
0.0170322
0.0157112
0.0147922
0.014751
0.0155729
0.0182883
0.0237114
0.0341616
0.0507371
0.0717074
0.0981393
0.133517
0.176226
0.214256
0.232172
0.237797
0.227739
0.182178
0.109398
0.121571
0.229143
0.250244
0.0889374
0.0537434
0.048673
0.0475106
0.047712
0.047934
0.0485011
0.0504326
0.0543242
0.0596858
0.0665351
0.0742303
0.0815311
0.084909
0.0858218
0.0814124
0.0729101
0.0636714
0.0516186
0.0435953
0.0361444
0.0321609
0.0298784
0.0282749
0.0271298
0.0266149
0.0264632
0.0260349
0.0250336
0.0236188
0.0216044
0.0189458
0.0161586
0.0135487
0.011247
0.00937117
0.0079464
0.00703019
0.00642052
0.00611232
0.00602588
0.00602525
0.00604059
0.00609005
0.0062519
0.0068108
0.00764844
0.00834599
0.00878133
0.00896299
0.00900128
0.00899078
0.00890933
0.00875583
0.00868448
0.00867056
0.00867407
0.00869559
0.00876234
0.00892878
0.00930141
0.0102296
0.0137424
0.0179073
0.0189763
0.0187629
0.0175378
0.0165044
0.0163521
0.0164575
0.0165763
0.0166118
0.0165648
0.0163861
0.0156928
0.0129254
0.00891854
0.00620237
0.00477345
0.00421862
0.00367634
0.00311202
0.00293357
0.00315171
0.00395874
0.0044986
0.00471259
0.00469437
0.00433752
0.00405355
0.00380219
0.00356246
0.00305348
0.0026382
0.00208825
0.0366314
0.0377393
0.0337154
0.0717432
0.0878208
0.0913251
0.0939879
0.0998034
0.102724
0.102572
0.0985916
0.0872283
0.0780909
0.0729759
0.0732435
0.0757089
0.0986767
0.111042
0.100797
0.0950282
0.0973724
0.0988829
0.097642
0.0913477
0.0826631
0.074298
0.0685415
0.0631179
0.059198
0.0569756
0.053732
0.0510833
0.0476032
0.0433648
0.0384739
0.032979
0.0277806
0.0227217
0.0186971
0.0157241
0.0134321
0.0123126
0.0114513
0.0110406
0.0106972
0.010479
0.0103063
0.0101372
0.0100339
0.00986686
0.00971136
0.00953038
0.00939771
0.0091728
0.00894529
0.00879601
0.00857871
0.00844156
0.00836011
0.00832054
0.0083824
0.00841639
0.00843721
0.0084684
0.00850475
0.00858335
0.00885465
0.00952267
0.0111771
0.0152444
0.0223766
0.0339109
0.0560286
0.0909637
0.134172
0.181544
0.219794
0.23458
0.238971
0.229527
0.170999
0.11419
0.138616
0.22347
0.199046
0.0687632
0.0514303
0.049378
0.0491294
0.0497059
0.0511549
0.0549058
0.0635089
0.0803481
0.107463
0.132459
0.145534
0.15264
0.15521
0.155732
0.152374
0.144257
0.132282
0.111772
0.0868063
0.0612356
0.0428788
0.0345827
0.0292161
0.0266695
0.0248781
0.0236593
0.0231339
0.0231411
0.0229487
0.0216591
0.01931
0.0165498
0.0138928
0.0114822
0.00945209
0.00788208
0.00671728
0.00601115
0.00570878
0.00564517
0.00565219
0.00568778
0.00580111
0.00612281
0.00697139
0.00800314
0.00861337
0.00889895
0.00900551
0.00901348
0.0089628
0.00869128
0.00831547
0.00814883
0.00812007
0.00813285
0.00819846
0.00838904
0.00888905
0.0100193
0.0125961
0.0207595
0.0356288
0.0410595
0.0409695
0.0380893
0.0333442
0.030919
0.0293458
0.027966
0.0265737
0.0244034
0.0226956
0.0202321
0.0161457
0.0123496
0.00921436
0.00697206
0.005627
0.00457695
0.00378336
0.00354424
0.0037466
0.00438101
0.00472997
0.00488786
0.00484642
0.00434448
0.00390254
0.00377149
0.00369516
0.00351089
0.00320591
0.00266447
0.0451228
0.0390856
0.0352105
0.0813334
0.090483
0.0924368
0.0953902
0.101834
0.104093
0.101041
0.0944553
0.082166
0.0743584
0.0725328
0.0774589
0.0938184
0.0998514
0.09253
0.0842386
0.0840286
0.0844284
0.0806366
0.0730281
0.0633396
0.0542259
0.0483938
0.0436889
0.0394051
0.0372384
0.0345234
0.0319426
0.0293383
0.0263307
0.0234163
0.0201937
0.0177243
0.01553
0.0138701
0.013036
0.0122883
0.0119359
0.0117634
0.011681
0.0116677
0.01181
0.0119266
0.0120293
0.0120672
0.0120648
0.0118059
0.0114941
0.0110681
0.0106334
0.00993714
0.00936217
0.00892454
0.00842079
0.00795407
0.00770458
0.00740847
0.00727795
0.00719068
0.00717113
0.00721351
0.00723916
0.00723487
0.00726014
0.00736511
0.00770145
0.00847054
0.0101928
0.0144562
0.0259406
0.0577576
0.108943
0.167362
0.207591
0.222065
0.22555
0.215273
0.162051
0.134453
0.17723
0.212782
0.147697
0.0600682
0.0518684
0.0512785
0.0523648
0.0546834
0.060837
0.0752247
0.100704
0.133747
0.155869
0.165766
0.17023
0.171715
0.171904
0.171773
0.17043
0.166938
0.160042
0.149192
0.132514
0.107634
0.0749021
0.0511022
0.0371699
0.029544
0.0255706
0.023329
0.0219259
0.0211097
0.0203627
0.0196577
0.0181138
0.0156102
0.0130788
0.010648
0.00842762
0.00677117
0.0058031
0.00539397
0.00526668
0.00525846
0.0052867
0.00539269
0.00564831
0.00633776
0.00748793
0.00826191
0.00868495
0.00888478
0.00891524
0.00887802
0.00866135
0.00796217
0.00736094
0.00711881
0.00708905
0.00712749
0.00730711
0.00788311
0.00936761
0.0130102
0.0232118
0.0408342
0.0621308
0.083041
0.0911446
0.090582
0.0847313
0.0777489
0.0740209
0.070969
0.0663296
0.0562879
0.0431151
0.0319962
0.0228572
0.0162878
0.0119108
0.00895806
0.00693914
0.0053457
0.00425795
0.00390894
0.00403703
0.00447473
0.00477759
0.00496343
0.00490497
0.00415775
0.00311692
0.00294661
0.00302877
0.00328214
0.00335994
0.00323366
0.0532878
0.0402008
0.0383611
0.0846107
0.0909072
0.0920201
0.0943791
0.0990721
0.099885
0.0938163
0.0821753
0.0744743
0.0723587
0.0757757
0.090321
0.0942453
0.0890179
0.0739877
0.0717837
0.071091
0.0670505
0.0588328
0.0497159
0.0405092
0.0347924
0.0312063
0.0273648
0.0254708
0.0237265
0.0218741
0.0204537
0.0187544
0.0173633
0.0161888
0.0149815
0.0144125
0.0138199
0.0135439
0.0134275
0.0135149
0.014091
0.0150204
0.0161443
0.0174575
0.0184569
0.0191679
0.0195219
0.0196543
0.0195519
0.0191464
0.0184279
0.0176939
0.0166817
0.0153903
0.0139859
0.0125758
0.0111651
0.00964187
0.00861561
0.00774363
0.00729293
0.00698089
0.00684432
0.00676898
0.00665422
0.00650895
0.00641466
0.00639054
0.00651877
0.00683649
0.00758438
0.00923682
0.0138014
0.0278889
0.0669737
0.123561
0.181935
0.206049
0.211619
0.203855
0.179287
0.1757
0.186961
0.189548
0.0922325
0.0563589
0.053211
0.0534558
0.054804
0.0581217
0.0666464
0.083643
0.109352
0.138211
0.151915
0.15592
0.156887
0.16138
0.167643
0.169369
0.169728
0.168141
0.163005
0.154464
0.140926
0.120264
0.0904628
0.0619286
0.043263
0.0324294
0.0265764
0.02341
0.021471
0.0203818
0.0194832
0.0179927
0.0153997
0.0126745
0.0103057
0.00810803
0.00661647
0.00580215
0.00539054
0.00521115
0.00516165
0.00516431
0.00520771
0.00534911
0.00576476
0.00686736
0.00781909
0.00835989
0.00863796
0.00868424
0.00865235
0.00846868
0.00777398
0.00665381
0.005993
0.00577797
0.00577561
0.00588656
0.00634489
0.00781415
0.0118763
0.0239432
0.0467927
0.0667902
0.082589
0.0985305
0.113966
0.121969
0.122111
0.120127
0.119625
0.120409
0.118868
0.111613
0.0973249
0.0642771
0.0388911
0.0238577
0.0155574
0.0109587
0.00806999
0.00593295
0.00458295
0.00415038
0.00418977
0.00447569
0.00482604
0.00503163
0.00495983
0.00418341
0.00266626
0.00199368
0.00195143
0.0021624
0.00280693
0.00310475
0.0674623
0.0429481
0.0409211
0.0845993
0.0901267
0.0902397
0.0899683
0.0925307
0.0913217
0.0809446
0.075231
0.0734539
0.0741482
0.0853516
0.0897763
0.0853245
0.0666622
0.0614652
0.0599419
0.0568641
0.0494428
0.0408579
0.0327493
0.0270688
0.0242362
0.0217519
0.0199658
0.0190951
0.0181153
0.0172422
0.0166971
0.0159843
0.0155898
0.0151904
0.0150033
0.0149322
0.0152427
0.0161686
0.0178912
0.020114
0.0222493
0.0241898
0.0255964
0.0267075
0.0273493
0.0277425
0.0279186
0.0279607
0.0276807
0.0273937
0.0266793
0.025875
0.0249919
0.0239406
0.0225858
0.0208547
0.0185489
0.0163087
0.013586
0.0113215
0.00940284
0.00808792
0.0072222
0.00678164
0.00644546
0.00606182
0.00567824
0.00523479
0.00494163
0.00539469
0.00628382
0.00711919
0.00887514
0.0144832
0.034618
0.0897127
0.141885
0.183265
0.197166
0.19921
0.186516
0.178739
0.176935
0.134556
0.0707423
0.0562923
0.0543562
0.0544359
0.0552904
0.057943
0.0656318
0.0808237
0.104192
0.12188
0.123052
0.107473
0.0990913
0.101508
0.131409
0.148291
0.154822
0.155835
0.153559
0.148204
0.137433
0.119987
0.0920489
0.0636861
0.0442561
0.032781
0.0265648
0.0229309
0.0204556
0.0190317
0.0182862
0.0168882
0.0141723
0.010997
0.00840365
0.0068536
0.00601865
0.00556424
0.00531051
0.00518509
0.00515208
0.00515822
0.00521973
0.00547016
0.00629897
0.00736625
0.00797777
0.00831942
0.0083701
0.00833373
0.00815394
0.00756141
0.00610699
0.00496391
0.00441935
0.00430002
0.00433685
0.00458456
0.00561807
0.00883041
0.0194143
0.0398904
0.0597376
0.0770166
0.090205
0.102283
0.115792
0.128225
0.134682
0.136539
0.140221
0.143837
0.143805
0.139413
0.132143
0.114342
0.070377
0.0391187
0.0224034
0.0141742
0.00956285
0.00654891
0.00488004
0.00436575
0.0043411
0.00447956
0.00486119
0.00502489
0.00490523
0.00411238
0.00262389
0.0016627
0.00132433
0.00133458
0.00162874
0.00248162
0.0847502
0.0473534
0.0414574
0.0815574
0.0896386
0.0896855
0.0865349
0.0855336
0.0831241
0.0758807
0.0743688
0.0746686
0.0809173
0.0860721
0.0845804
0.0645254
0.0536658
0.0507152
0.0488872
0.0438758
0.0360424
0.0289272
0.0234514
0.0208396
0.0194087
0.0181607
0.0175486
0.0172064
0.0168108
0.0165504
0.0163191
0.0161519
0.0162023
0.0166019
0.0177126
0.0196906
0.0219805
0.0243927
0.0265429
0.0281778
0.0296923
0.0309009
0.0318516
0.0325799
0.0329401
0.0332109
0.0333479
0.0333992
0.0332357
0.0329222
0.03226
0.0312352
0.0300268
0.0287465
0.0274014
0.0264374
0.0254367
0.0243625
0.0226649
0.0197147
0.0164173
0.0135295
0.0109009
0.00928114
0.00813896
0.00681782
0.00591926
0.00511793
0.00419832
0.00367804
0.00377549
0.00533289
0.00679296
0.00887532
0.0154991
0.0394981
0.102829
0.143143
0.168204
0.17922
0.18015
0.167657
0.144554
0.0903156
0.0644118
0.0568296
0.0551105
0.0547712
0.0548725
0.0562204
0.0606327
0.0692282
0.0807652
0.0836464
0.0779516
0.0688145
0.0638765
0.0693829
0.0953955
0.118691
0.130859
0.135478
0.132899
0.126022
0.111942
0.0933139
0.0693328
0.0485902
0.0351649
0.0272676
0.0229996
0.0206487
0.018882
0.017796
0.0166564
0.0142476
0.0113697
0.00893575
0.00715731
0.00625064
0.00582399
0.00552634
0.00532566
0.00523332
0.0052143
0.00523565
0.00537792
0.00592609
0.00698801
0.00760522
0.00798068
0.00801791
0.00796747
0.00775866
0.00716238
0.00561996
0.00407884
0.00315442
0.00280486
0.002743
0.00282557
0.00340643
0.0054028
0.0115047
0.0292137
0.0483305
0.0649826
0.0811686
0.0927656
0.101033
0.111363
0.124285
0.133251
0.138433
0.144103
0.148586
0.149454
0.148024
0.143708
0.136462
0.106526
0.0600194
0.0328946
0.0192529
0.0118852
0.00744985
0.0052423
0.00456171
0.00446572
0.00453545
0.00485449
0.00494274
0.00479437
0.00403035
0.00267338
0.00164218
0.00108443
0.000959161
0.00100595
0.00142998
0.0935559
0.0551762
0.0415305
0.0765153
0.0894195
0.0904704
0.0853719
0.0802009
0.0779629
0.0751536
0.0750592
0.0792716
0.0842552
0.0841064
0.0706586
0.0498699
0.0442136
0.0422304
0.0397946
0.0339237
0.0273804
0.0225051
0.0196612
0.0184325
0.0178145
0.0174183
0.0172382
0.0171377
0.017043
0.0172114
0.017684
0.018715
0.0200905
0.0217897
0.023709
0.0253005
0.0268318
0.0283924
0.0300026
0.0315274
0.033113
0.0343694
0.0353886
0.0362326
0.0368417
0.0374893
0.038026
0.0383191
0.0384309
0.0381975
0.0377523
0.0370725
0.0363873
0.0352843
0.0338019
0.0318845
0.0300139
0.0286132
0.0274128
0.0253945
0.0236901
0.0212892
0.0186153
0.0151805
0.0133495
0.011021
0.00859065
0.00661168
0.00466408
0.00341938
0.00282457
0.00263542
0.004189
0.00678277
0.00885144
0.0153864
0.0450365
0.109385
0.134903
0.14634
0.150651
0.134846
0.107936
0.078277
0.0638089
0.0579737
0.0562592
0.0556244
0.0545965
0.0537193
0.0539622
0.0556385
0.0581265
0.0586273
0.0570667
0.0555317
0.0560961
0.0622978
0.0834045
0.108981
0.118891
0.120141
0.117594
0.108734
0.0898272
0.0649318
0.0429804
0.0314902
0.0250029
0.021366
0.0193879
0.0178943
0.0164895
0.0158022
0.0145007
0.0122765
0.00906304
0.00694507
0.00615063
0.00594045
0.00578546
0.00562212
0.00552032
0.00547192
0.0054668
0.00552215
0.00581917
0.00671642
0.00730878
0.00766619
0.00767187
0.00759698
0.00732953
0.0066386
0.00499213
0.00320587
0.00207832
0.00154715
0.00139271
0.00143919
0.00177696
0.00290566
0.00628373
0.0174966
0.0358864
0.0527299
0.0677281
0.0803389
0.0898513
0.0952243
0.0988881
0.1055
0.120636
0.133067
0.142073
0.147343
0.148397
0.147523
0.144821
0.141661
0.128174
0.0824876
0.0434742
0.0239893
0.0140672
0.00839074
0.00566212
0.00476221
0.00458847
0.00464556
0.0049095
0.00493864
0.00479105
0.00412107
0.00286253
0.00174452
0.00103749
0.000764078
0.000745762
0.000891021
0.0949657
0.0681375
0.043879
0.0655151
0.0873104
0.0908461
0.0878693
0.0787237
0.0755056
0.0748792
0.0770854
0.0833732
0.084844
0.0791064
0.0558448
0.0408939
0.0370704
0.0353399
0.0324261
0.0275381
0.0226766
0.0196088
0.0182739
0.0177655
0.0175469
0.0174564
0.017455
0.017733
0.01837
0.0195932
0.0207669
0.0221372
0.0235887
0.0251083
0.0264529
0.0279707
0.029903
0.0323033
0.0350157
0.0377968
0.0401405
0.0424075
0.0443952
0.0461513
0.0477683
0.0486921
0.0491755
0.0493026
0.0486264
0.0474823
0.0459853
0.0442123
0.0423436
0.0404656
0.0388159
0.0366974
0.0342286
0.0318003
0.0306822
0.0296015
0.0277875
0.0254187
0.0231277
0.0215466
0.0192826
0.0170877
0.01354
0.00961845
0.00655118
0.00417623
0.00277885
0.0021199
0.00187329
0.00344403
0.00658348
0.00818979
0.0147553
0.0484559
0.105947
0.121466
0.123996
0.11442
0.0912613
0.0776177
0.0649893
0.0604586
0.059186
0.0582998
0.055845
0.0541752
0.053306
0.0530691
0.053357
0.053784
0.0543757
0.0558431
0.0605564
0.076717
0.0962079
0.108184
0.111908
0.110024
0.102475
0.0844856
0.0616483
0.042469
0.0313562
0.0249548
0.021093
0.0188686
0.0175117
0.0157775
0.0142513
0.0131206
0.0112338
0.0083366
0.00666539
0.00589497
0.00569
0.00583476
0.00598224
0.00608216
0.00610413
0.00608798
0.00608791
0.00618714
0.00672672
0.00717383
0.00742367
0.00740117
0.00726934
0.00690327
0.00606219
0.00417525
0.00233338
0.00133131
0.000874909
0.000732662
0.000747096
0.000919211
0.00149257
0.00318546
0.00848055
0.0235489
0.0403898
0.0545039
0.0653137
0.0739502
0.0811753
0.0861268
0.088749
0.0914811
0.0975309
0.114221
0.131019
0.139109
0.140422
0.14049
0.142057
0.141748
0.136366
0.106201
0.0588738
0.031515
0.0173476
0.00976398
0.00627722
0.00505119
0.00479164
0.00484798
0.00506257
0.00513631
0.00507343
0.00453573
0.00321801
0.00196092
0.00108816
0.000678501
0.000581308
0.000627365
0.0917993
0.0783966
0.055829
0.0575805
0.081936
0.0908315
0.0905193
0.0809319
0.0750413
0.0742301
0.0773542
0.0838203
0.0841624
0.0714962
0.0446057
0.0345738
0.0315606
0.0302001
0.027696
0.0232193
0.0202241
0.0185202
0.0178652
0.0176619
0.0176027
0.0177558
0.0184271
0.0201599
0.0221181
0.0233407
0.0244923
0.0257227
0.0268505
0.0278861
0.0293026
0.0322848
0.0358818
0.03981
0.0433025
0.0464087
0.048806
0.0506367
0.0519884
0.0531063
0.0540053
0.0544699
0.0546527
0.0546421
0.0542478
0.0535176
0.0523813
0.0506344
0.0482313
0.0456791
0.043284
0.0407042
0.0369891
0.0329386
0.0307361
0.0299175
0.0298733
0.0288483
0.0269049
0.0250361
0.0242044
0.0228411
0.0193599
0.0130826
0.00802015
0.00484054
0.0030224
0.00205885
0.00152113
0.00126459
0.00196088
0.00691533
0.00870742
0.00870561
0.0325408
0.0810069
0.10671
0.107056
0.0894411
0.0791305
0.0697164
0.0675784
0.0677802
0.0684732
0.0661895
0.0628121
0.0602807
0.0591145
0.0597106
0.0614803
0.0655678
0.0722967
0.0866772
0.09449
0.102732
0.10327
0.100631
0.0924531
0.0741987
0.0515357
0.0354173
0.0261946
0.0208796
0.0176104
0.0156278
0.0145836
0.0130688
0.0113591
0.0103707
0.00909973
0.00741053
0.00604294
0.00539935
0.00527332
0.00547085
0.00606287
0.00675314
0.00721856
0.00734568
0.00733361
0.007318
0.00737455
0.00738899
0.00734815
0.00725983
0.0070226
0.00647816
0.00544368