/*--------------------------------*- C++ -*----------------------------------*\
  =========                 |
  \\      /  F ield         | OpenFOAM: The Open Source CFD Toolbox
   \\    /   O peration     | Website:  https://openfoam.org
    \\  /    A nd           | Version:  9
     \\/     M anipulation  |
\*---------------------------------------------------------------------------*/
FoamFile
{
    format      ascii;
    class       surfaceScalarField;
    location    "0.061";
    object      phi;
}
// * * * * * * * * * * * * * * * * * * * * * * * * * * * * * * * * * * * * * //

dimensions      [0 3 -1 0 0 0 0];

internalField   nonuniform List<scalar> 
24170
(
3.05643e-06
1.99259e-07
2.93576e-06
1.20666e-07
2.83951e-06
9.62538e-08
2.73466e-06
1.0485e-07
2.6364e-06
9.82607e-08
2.55472e-06
8.16748e-08
2.48188e-06
7.28394e-08
2.40617e-06
7.57102e-08
2.32312e-06
8.30574e-08
2.23413e-06
8.89862e-08
2.14171e-06
9.24209e-08
2.04522e-06
9.64843e-08
1.94369e-06
1.0153e-07
1.83507e-06
1.08623e-07
1.71668e-06
1.18389e-07
1.58736e-06
1.29322e-07
1.43654e-06
1.50814e-07
1.86114e-07
1.25043e-06
3.45526e-06
1.23452e-07
3.43571e-06
1.40217e-07
3.40251e-06
1.29459e-07
3.39752e-06
1.09832e-07
3.41071e-06
8.50781e-08
3.42015e-06
7.22285e-08
3.41441e-06
7.85844e-08
3.39661e-06
9.35064e-08
3.37494e-06
1.04731e-07
3.35396e-06
1.09963e-07
3.3326e-06
1.13782e-07
3.30592e-06
1.23167e-07
3.26853e-06
1.38916e-07
3.22023e-06
1.5693e-07
3.16254e-06
1.76073e-07
3.09568e-06
1.96183e-07
3.02625e-06
2.20248e-07
2.60245e-07
2.95212e-06
3.66835e-06
1.10443e-08
3.68031e-06
1.28261e-07
3.70272e-06
1.07043e-07
3.73605e-06
7.65062e-08
3.75e-06
7.11308e-08
3.73623e-06
8.59952e-08
3.70507e-06
1.09748e-07
3.67217e-06
1.26404e-07
3.64759e-06
1.2931e-07
3.63428e-06
1.23269e-07
3.63039e-06
1.17679e-07
3.63169e-06
1.21861e-07
3.63181e-06
1.38799e-07
3.62569e-06
1.63051e-07
3.61162e-06
1.90136e-07
3.59048e-06
2.17329e-07
3.56663e-06
2.44094e-07
2.7443e-07
3.55245e-06
3.8265e-06
3.07169e-08
3.83707e-06
1.17685e-07
3.86251e-06
8.16041e-08
3.8717e-06
6.73169e-08
3.87395e-06
6.88765e-08
3.8804e-06
7.95532e-08
3.89043e-06
9.9714e-08
3.89848e-06
1.18357e-07
3.90094e-06
1.26843e-07
3.89876e-06
1.25456e-07
3.89535e-06
1.21081e-07
3.89377e-06
1.23449e-07
3.89416e-06
1.38408e-07
3.89375e-06
1.63464e-07
3.88963e-06
1.94249e-07
3.87993e-06
2.27036e-07
3.86631e-06
2.57707e-07
2.85763e-07
3.85498e-06
4.12699e-06
6.1063e-08
4.20855e-06
3.61314e-08
4.27514e-06
1.50124e-08
4.31725e-06
2.52047e-08
4.33076e-06
5.53635e-08
4.31796e-06
9.23537e-08
4.28959e-06
1.28088e-07
4.25711e-06
1.50833e-07
4.22912e-06
1.5483e-07
4.21078e-06
1.43805e-07
4.20296e-06
1.289e-07
4.2027e-06
1.23709e-07
4.20482e-06
1.36288e-07
4.20358e-06
1.64698e-07
4.19528e-06
2.02551e-07
4.1796e-06
2.42717e-07
4.15809e-06
2.79215e-07
3.09005e-07
4.13485e-06
4.55546e-06
9.72934e-09
4.56399e-06
2.76049e-08
4.58061e-06
-1.61096e-09
4.59829e-06
7.52311e-09
4.59703e-06
5.66254e-08
4.57264e-06
1.16744e-07
4.53805e-06
1.62679e-07
4.50383e-06
1.85048e-07
4.47527e-06
1.83394e-07
4.45515e-06
1.63925e-07
4.44465e-06
1.39403e-07
4.44317e-06
1.25189e-07
4.4479e-06
1.31555e-07
4.45456e-06
1.58038e-07
4.45914e-06
1.97971e-07
4.45929e-06
2.42571e-07
4.45412e-06
2.8438e-07
3.18991e-07
4.44414e-06
4.75373e-06
-4.83567e-08
4.7716e-06
9.73804e-09
4.76869e-06
1.29109e-09
4.77699e-06
-7.70557e-10
4.79097e-06
4.26384e-08
4.80522e-06
1.02501e-07
4.81776e-06
1.50133e-07
4.82784e-06
1.74972e-07
4.83355e-06
1.77681e-07
4.83165e-06
1.65832e-07
4.81928e-06
1.51768e-07
4.79688e-06
1.47593e-07
4.76872e-06
1.59717e-07
4.74043e-06
1.86321e-07
4.71689e-06
2.21511e-07
4.70031e-06
2.59149e-07
4.69114e-06
2.93552e-07
3.22434e-07
4.6877e-06
5.18887e-06
-7.43743e-08
5.20834e-06
-9.73618e-09
5.19049e-06
1.91484e-08
5.17e-06
1.97135e-08
5.17007e-06
4.25742e-08
5.18269e-06
8.98748e-08
5.19453e-06
1.3829e-07
5.20001e-06
1.69492e-07
5.19889e-06
1.78807e-07
5.19199e-06
1.7273e-07
5.18036e-06
1.63398e-07
5.16565e-06
1.62299e-07
5.15038e-06
1.74992e-07
5.13636e-06
2.00338e-07
5.12455e-06
2.33325e-07
5.11488e-06
2.68817e-07
5.10554e-06
3.02895e-07
3.31957e-07
5.09601e-06
5.50283e-06
3.85952e-08
5.54039e-06
-4.73014e-08
5.56198e-06
-2.44083e-09
5.547e-06
3.46918e-08
5.53387e-06
5.5708e-08
5.54577e-06
7.79751e-08
5.57629e-06
1.07776e-07
5.609e-06
1.36773e-07
5.63209e-06
1.5572e-07
5.64045e-06
1.64372e-07
5.6337e-06
1.70147e-07
5.61458e-06
1.81424e-07
5.58792e-06
2.01645e-07
5.55839e-06
2.29869e-07
5.52868e-06
2.63031e-07
5.49968e-06
2.9782e-07
5.47089e-06
3.31687e-07
3.61116e-07
5.44173e-06
5.90321e-06
-1.36751e-07
5.90966e-06
-5.37594e-08
5.90753e-06
-3.05415e-10
5.90838e-06
3.38371e-08
5.92174e-06
4.23496e-08
5.94811e-06
5.16017e-08
5.97944e-06
7.64477e-08
6.00303e-06
1.13188e-07
6.00608e-06
1.52668e-07
5.98295e-06
1.87504e-07
5.93952e-06
2.1358e-07
5.89048e-06
2.30459e-07
5.8507e-06
2.41423e-07
5.82953e-06
2.51045e-07
5.8274e-06
2.65156e-07
5.83961e-06
2.85609e-07
5.8582e-06
3.13105e-07
3.45557e-07
5.87375e-06
6.24968e-06
-6.53513e-08
6.27152e-06
-7.55905e-08
6.31198e-06
-4.07656e-08
6.35912e-06
-1.33084e-08
6.40467e-06
-3.19926e-09
6.43621e-06
2.00588e-08
6.44916e-06
6.35007e-08
6.44389e-06
1.18459e-07
6.42442e-06
1.72134e-07
6.3981e-06
2.13827e-07
6.37158e-06
2.40102e-07
6.34835e-06
2.53691e-07
6.32943e-06
2.60341e-07
6.3151e-06
2.65369e-07
6.30643e-06
2.73832e-07
6.30385e-06
2.88182e-07
6.3076e-06
3.09362e-07
3.37742e-07
6.31541e-06
5.81464e-06
-1.63756e-07
5.79454e-06
-5.54899e-08
5.73446e-06
1.93146e-08
5.69804e-06
2.31113e-08
5.69691e-06
-2.06775e-09
5.71349e-06
3.46976e-09
5.72589e-06
5.11075e-08
5.72756e-06
1.16791e-07
5.72431e-06
1.75381e-07
5.72423e-06
2.13903e-07
5.7296e-06
2.34732e-07
5.7361e-06
2.47193e-07
5.73731e-06
2.59131e-07
5.72821e-06
2.74468e-07
5.70915e-06
2.9289e-07
5.68417e-06
3.13164e-07
5.65922e-06
3.3431e-07
3.56764e-07
5.6402e-06
7.00412e-06
-8.34759e-08
6.9473e-06
1.33026e-09
6.88539e-06
8.12179e-08
6.85364e-06
5.48644e-08
6.85301e-06
-1.43605e-09
6.87118e-06
-1.47037e-08
6.88913e-06
3.31608e-08
6.89217e-06
1.13753e-07
6.88246e-06
1.85082e-07
6.87199e-06
2.24378e-07
6.8728e-06
2.33921e-07
6.88926e-06
2.30733e-07
6.91668e-06
2.31707e-07
6.94468e-06
2.46475e-07
6.96226e-06
2.75307e-07
6.96287e-06
3.12557e-07
6.94522e-06
3.51958e-07
3.8747e-07
6.91451e-06
8.44889e-06
4.9855e-08
8.5212e-06
-7.09875e-08
8.61895e-06
-1.65257e-08
8.63729e-06
3.6519e-08
8.60144e-06
3.44213e-08
8.56042e-06
2.63127e-08
8.53758e-06
5.60014e-08
8.53395e-06
1.17385e-07
8.53575e-06
1.83279e-07
8.5299e-06
2.30227e-07
8.51118e-06
2.52644e-07
8.48384e-06
2.58067e-07
8.45679e-06
2.5876e-07
8.43814e-06
2.65128e-07
8.43089e-06
2.82553e-07
8.43352e-06
3.09927e-07
8.44291e-06
3.42569e-07
3.75049e-07
8.45533e-06
1.0365e-05
-1.40903e-07
1.0364e-05
-6.99968e-08
1.03192e-05
2.83293e-08
1.03042e-05
5.14254e-08
1.03058e-05
3.29101e-08
1.03125e-05
1.95788e-08
1.03267e-05
4.17979e-08
1.03529e-05
9.11942e-08
1.03924e-05
1.43726e-07
1.04382e-05
1.8443e-07
1.0478e-05
2.12864e-07
1.05003e-05
2.35749e-07
1.05003e-05
2.58789e-07
1.04816e-05
2.83823e-07
1.0454e-05
3.10119e-07
1.04275e-05
3.36485e-07
1.0409e-05
3.61078e-07
3.84378e-07
1.03996e-05
1.2996e-05
-1.59905e-07
1.29844e-05
-5.84426e-08
1.29642e-05
4.86036e-08
1.29768e-05
3.8736e-08
1.29971e-05
1.26789e-08
1.29954e-05
2.12887e-08
1.29497e-05
8.75073e-08
1.28741e-05
1.66751e-07
1.27953e-05
2.22479e-07
1.27353e-05
2.44439e-07
1.27021e-05
2.46115e-07
1.26923e-05
2.45534e-07
1.26978e-05
2.53264e-07
1.27098e-05
2.71869e-07
1.27218e-05
2.98111e-07
1.27314e-05
3.26898e-07
1.27387e-05
3.53767e-07
3.76016e-07
1.2747e-05
1.55886e-05
1.17559e-07
1.54415e-05
8.86796e-08
1.54108e-05
7.93623e-08
1.54153e-05
3.41835e-08
1.54341e-05
-6.16397e-09
1.54464e-05
9.02915e-09
1.54585e-05
7.54417e-08
1.54684e-05
1.56869e-07
1.54738e-05
2.17054e-07
1.54744e-05
2.43822e-07
1.54728e-05
2.47724e-07
1.54722e-05
2.46126e-07
1.54743e-05
2.51132e-07
1.54804e-05
2.65809e-07
1.54917e-05
2.86827e-07
1.55085e-05
3.10043e-07
1.5531e-05
3.31325e-07
3.50537e-07
1.55564e-05
1.89351e-05
3.56211e-07
1.87452e-05
2.78609e-07
1.86517e-05
1.72823e-07
1.86083e-05
7.76022e-08
1.86149e-05
-1.27683e-08
1.86535e-05
-2.95379e-08
1.86966e-05
3.23535e-08
1.87384e-05
1.15011e-07
1.87774e-05
1.78035e-07
1.88068e-05
2.14439e-07
1.88205e-05
2.34079e-07
1.88187e-05
2.47843e-07
1.88088e-05
2.61051e-07
1.88003e-05
2.74315e-07
1.8802e-05
2.85096e-07
1.88189e-05
2.93235e-07
1.88534e-05
2.968e-07
2.98715e-07
1.89052e-05
2.30152e-05
2.38463e-08
2.3199e-05
9.48358e-08
2.31872e-05
1.84606e-07
2.30327e-05
2.32146e-07
2.2836e-05
1.83865e-07
2.26896e-05
1.16915e-07
2.26401e-05
8.18405e-08
2.26765e-05
7.85941e-08
2.27687e-05
8.58699e-08
2.2886e-05
9.7067e-08
2.30022e-05
1.17908e-07
2.30969e-05
1.53177e-07
2.31604e-05
1.97478e-07
2.31953e-05
2.39455e-07
2.3213e-05
2.67423e-07
2.32279e-05
2.78334e-07
2.32525e-05
2.72158e-07
2.55457e-07
2.32958e-05
1.6344e-05
-1.11066e-08
1.65127e-05
-7.38538e-08
1.67624e-05
-6.51585e-08
1.6971e-05
2.35899e-08
1.70566e-05
9.82695e-08
1.70121e-05
1.61442e-07
1.6903e-05
1.90865e-07
1.67991e-05
1.82491e-07
1.67316e-05
1.53361e-07
1.67063e-05
1.22403e-07
1.67197e-05
1.04515e-07
1.67672e-05
1.05643e-07
1.68428e-05
1.21933e-07
1.69377e-05
1.44582e-07
1.70402e-05
1.64854e-07
1.71408e-05
1.77781e-07
1.72302e-05
1.82736e-07
1.81711e-07
1.73039e-05
1.473e-05
3.49023e-08
1.46089e-05
4.73329e-08
1.463e-05
-8.63146e-08
1.47603e-05
-1.06656e-07
1.48837e-05
-2.51559e-08
1.498e-05
6.51066e-08
1.50657e-05
1.05228e-07
1.51342e-05
1.13937e-07
1.51739e-05
1.13662e-07
1.51767e-05
1.19574e-07
1.51491e-05
1.32152e-07
1.51099e-05
1.44874e-07
1.50797e-05
1.52134e-07
1.50714e-05
1.52798e-07
1.50859e-05
1.50442e-07
1.51147e-05
1.48934e-07
1.51457e-05
1.51723e-07
1.61e-07
1.51664e-05
1.25907e-05
-1.0078e-07
1.26243e-05
1.3665e-08
1.26192e-05
-8.11633e-08
1.26219e-05
-1.09341e-07
1.26644e-05
-6.76547e-08
1.2727e-05
2.45451e-09
1.2755e-05
7.72164e-08
1.27308e-05
1.38177e-07
1.26725e-05
1.71983e-07
1.26163e-05
1.7572e-07
1.25918e-05
1.56649e-07
1.26097e-05
1.27019e-07
1.26635e-05
9.8382e-08
1.27371e-05
7.91396e-08
1.28147e-05
7.28951e-08
1.28854e-05
7.8228e-08
1.29461e-05
9.09437e-08
1.06776e-07
1.30004e-05
1.09278e-05
-1.10925e-07
1.1041e-05
-9.9567e-08
1.10526e-05
-9.2756e-08
1.10174e-05
-7.41178e-08
1.0991e-05
-4.12241e-08
1.10019e-05
-8.53113e-09
1.10441e-05
3.50454e-08
1.10909e-05
9.13778e-08
1.11235e-05
1.3942e-07
1.11396e-05
1.59604e-07
1.11484e-05
1.47794e-07
1.11604e-05
1.15095e-07
1.11813e-05
7.74162e-08
1.12134e-05
4.71022e-08
1.12566e-05
2.96378e-08
1.13102e-05
2.4603e-08
1.13728e-05
2.84331e-08
3.8015e-08
1.14415e-05
9.60921e-06
6.16891e-08
9.62872e-06
-1.1908e-07
9.68276e-06
-1.46795e-07
9.68158e-06
-7.29352e-08
9.65596e-06
-1.56083e-08
9.63979e-06
7.63705e-09
9.65658e-06
1.82562e-08
9.71426e-06
3.37013e-08
9.79886e-06
5.48217e-08
9.88694e-06
7.15171e-08
9.95823e-06
7.65091e-08
1.00044e-05
6.88829e-08
1.00287e-05
5.31386e-08
1.00403e-05
3.55082e-08
1.00483e-05
2.16254e-08
1.00584e-05
1.45128e-08
1.00723e-05
1.4581e-08
2.06502e-08
1.00896e-05
8.24522e-06
-5.76728e-08
8.33442e-06
-2.08289e-07
8.3403e-06
-1.52666e-07
8.34379e-06
-7.64268e-08
8.36325e-06
-3.50656e-08
8.40089e-06
-3.0009e-08
8.45893e-06
-3.97801e-08
8.53036e-06
-3.77347e-08
8.60075e-06
-1.55627e-08
8.6566e-06
1.56672e-08
8.68864e-06
4.44687e-08
8.69676e-06
6.07612e-08
8.68716e-06
6.27372e-08
8.66889e-06
5.37751e-08
8.65077e-06
3.97516e-08
8.63838e-06
2.68977e-08
8.63457e-06
1.83901e-08
1.63851e-08
8.63884e-06
7.38872e-06
-2.37351e-07
7.34025e-06
-1.59821e-07
7.28893e-06
-1.01339e-07
7.28745e-06
-7.49497e-08
7.30747e-06
-5.50847e-08
7.32307e-06
-4.56101e-08
7.33676e-06
-5.34719e-08
7.36163e-06
-6.26003e-08
7.39986e-06
-5.37915e-08
7.44111e-06
-2.55853e-08
7.47463e-06
1.09439e-08
7.49637e-06
3.90216e-08
7.50814e-06
5.0973e-08
7.51571e-06
4.61974e-08
7.52429e-06
3.11766e-08
7.53628e-06
1.49089e-08
7.5515e-06
3.16912e-09
-3.85734e-10
7.56827e-06
6.47153e-06
-3.08622e-07
6.43439e-06
-1.2268e-07
6.4073e-06
-7.4249e-08
6.40663e-06
-7.42734e-08
6.40703e-06
-5.54851e-08
6.38634e-06
-2.49266e-08
6.35234e-06
-1.9472e-08
6.32689e-06
-3.71481e-08
6.32255e-06
-4.94499e-08
6.33675e-06
-3.97901e-08
6.36024e-06
-1.25422e-08
6.38561e-06
1.36526e-08
6.41014e-06
2.64384e-08
6.43643e-06
1.99146e-08
6.46654e-06
1.06252e-09
6.49991e-06
-1.84632e-08
6.53421e-06
-3.11329e-08
-3.10436e-08
6.56487e-06
5.5472e-06
-1.07198e-07
5.56859e-06
-1.44077e-07
5.56547e-06
-7.11252e-08
5.53686e-06
-4.5661e-08
5.5266e-06
-4.52221e-08
5.5442e-06
-4.25336e-08
5.56574e-06
-4.10098e-08
5.56939e-06
-4.07966e-08
5.55466e-06
-3.4716e-08
5.53677e-06
-2.19096e-08
5.53191e-06
-7.67468e-09
5.54545e-06
1.05815e-10
5.57398e-06
-2.08983e-09
5.60964e-06
-1.5741e-08
5.64471e-06
-3.40072e-08
5.67541e-06
-4.91689e-08
5.70071e-06
-5.64277e-08
-5.27761e-08
5.72244e-06
4.82288e-06
-1.06934e-07
4.78278e-06
-1.0398e-07
4.75775e-06
-4.60859e-08
4.76951e-06
-5.74288e-08
4.80548e-06
-8.11844e-08
4.84441e-06
-8.14686e-08
4.87168e-06
-6.82842e-08
4.88566e-06
-5.47739e-08
4.8957e-06
-4.47562e-08
4.91226e-06
-3.84709e-08
4.93945e-06
-3.48626e-08
4.97285e-06
-3.32961e-08
5.00373e-06
-3.29676e-08
5.02206e-06
-3.40681e-08
5.0236e-06
-3.55463e-08
5.01061e-06
-3.61795e-08
4.98948e-06
-3.52974e-08
-3.1953e-08
4.96865e-06
4.14489e-06
4.04091e-06
3.99483e-06
3.9374e-06
3.85621e-06
3.77474e-06
3.70646e-06
3.65169e-06
3.60693e-06
3.56846e-06
3.5336e-06
3.5003e-06
3.46733e-06
3.43326e-06
3.39772e-06
3.36154e-06
3.32624e-06
3.29429e-06
-2.75509e-07
2.75509e-07
-2.94285e-07
1.87762e-08
7.25159e-08
-3.66801e-07
6.25013e-07
-5.52497e-07
1.2402e-06
-6.1519e-07
1.82663e-06
-5.8643e-07
2.32295e-06
-4.96315e-07
2.70197e-06
-3.79023e-07
2.95055e-06
-2.48579e-07
3.03286e-06
-8.23117e-08
2.99092e-06
4.19434e-08
2.825e-06
1.65917e-07
2.41708e-06
4.07919e-07
1.90724e-06
5.09839e-07
1.54271e-06
3.6453e-07
1.34869e-06
1.94021e-07
1.27094e-06
7.7749e-08
1.3098e-06
-3.88535e-08
1.46265e-06
-1.52858e-07
1.72331e-06
-2.60657e-07
2.08588e-06
-3.62573e-07
2.38017e-06
-2.94288e-07
2.45821e-06
-7.804e-08
2.41557e-06
4.26434e-08
2.35041e-06
6.51635e-08
2.19274e-06
1.5767e-07
1.90765e-06
2.85087e-07
1.58631e-06
3.21342e-07
1.26101e-06
3.25293e-07
8.829e-07
3.78114e-07
4.17849e-07
4.6505e-07
-1.41184e-07
5.59033e-07
-7.93989e-07
6.52805e-07
-1.51879e-06
7.24797e-07
-2.27401e-06
7.55225e-07
-3.01259e-06
7.38576e-07
-3.69875e-06
6.86163e-07
-4.31909e-06
6.20344e-07
-4.87561e-06
5.56513e-07
-5.37219e-06
4.96584e-07
-5.80743e-06
4.35234e-07
-6.17653e-06
3.691e-07
-6.4757e-06
2.99178e-07
-6.70395e-06
2.28251e-07
-6.86151e-06
1.57557e-07
-6.95117e-06
8.96563e-08
-6.97881e-06
2.76392e-08
-6.94443e-06
-3.43817e-08
-6.84739e-06
-9.70398e-08
-6.69115e-06
-1.56239e-07
-6.47956e-06
-2.11589e-07
-6.21823e-06
-2.61331e-07
-5.91541e-06
-3.02816e-07
-5.58187e-06
-3.33546e-07
-5.23115e-06
-3.50711e-07
-4.8792e-06
-3.51958e-07
-4.54352e-06
-3.35673e-07
-4.24219e-06
-3.01335e-07
-3.9921e-06
-2.50093e-07
-3.80675e-06
-1.85343e-07
-3.69341e-06
-1.13345e-07
-3.64874e-06
-4.46677e-08
-3.65306e-06
4.32477e-09
-3.66028e-06
7.22053e-09
-3.61941e-06
-4.08705e-08
-3.49703e-06
-1.22385e-07
-3.28822e-06
-2.08807e-07
-2.98835e-06
-2.9987e-07
-2.57893e-06
-4.0942e-07
-2.04249e-06
-5.36447e-07
-1.37678e-06
-6.65706e-07
-5.97866e-07
-7.78914e-07
3.26652e-07
-9.24518e-07
1.34478e-06
-1.01813e-06
2.38358e-06
-1.0388e-06
3.3343e-06
-9.50717e-07
4.0832e-06
-7.48907e-07
4.52288e-06
-4.39675e-07
4.56164e-06
-3.87603e-08
4.1661e-06
3.95544e-07
3.38835e-06
7.77742e-07
2.24346e-06
1.14489e-06
8.594e-07
1.38406e-06
-3.35812e-07
1.19521e-06
-6.95538e-07
3.59726e-07
-3.21149e-07
-3.74388e-07
-3.75419e-07
5.42694e-08
-1.82892e-06
1.4535e-06
-4.57042e-06
2.7415e-06
-6.78654e-06
2.21612e-06
-8.64363e-06
1.85709e-06
-1.01434e-05
1.49979e-06
-1.13034e-05
1.16001e-06
-1.22082e-05
9.04815e-07
-1.28615e-05
6.53273e-07
-1.33173e-05
4.55736e-07
-1.35792e-05
2.61992e-07
-1.36789e-05
9.96217e-08
-1.36308e-05
-4.81041e-08
-1.34637e-05
-1.67068e-07
-1.31887e-05
-2.75027e-07
-1.28229e-05
-3.65725e-07
-1.23812e-05
-4.41694e-07
-1.18789e-05
-5.02341e-07
-1.13296e-05
-5.49296e-07
-1.07455e-05
-5.84161e-07
-1.01366e-05
-6.08851e-07
-9.51087e-06
-6.25728e-07
-8.87457e-06
-6.363e-07
-8.23245e-06
-6.42125e-07
-7.58837e-06
-6.44077e-07
-6.94579e-06
-6.42584e-07
-6.30834e-06
-6.37448e-07
-5.67893e-06
-6.29406e-07
-5.05939e-06
-6.19539e-07
-4.45094e-06
-6.08456e-07
-3.85279e-06
-5.98147e-07
-3.26094e-06
-5.91854e-07
-2.6714e-06
-5.89537e-07
-2.08005e-06
-5.91354e-07
-1.48404e-06
-5.96009e-07
-8.88737e-07
-5.953e-07
-3.07122e-07
-5.81615e-07
2.45163e-07
-5.52285e-07
7.55385e-07
-5.10222e-07
1.2152e-06
-4.59816e-07
1.63057e-06
-4.15369e-07
2.01884e-06
-3.8827e-07
2.40287e-06
-3.84028e-07
2.80414e-06
-4.01268e-07
3.23793e-06
-4.33795e-07
3.7096e-06
-4.71668e-07
4.21301e-06
-5.03412e-07
4.7331e-06
-5.20091e-07
5.25105e-06
-5.17948e-07
5.74994e-06
-4.98887e-07
6.21857e-06
-4.68632e-07
6.65226e-06
-4.33686e-07
7.05125e-06
-3.98995e-07
7.41789e-06
-3.66638e-07
7.75345e-06
-3.35562e-07
8.05604e-06
-3.02584e-07
8.32201e-06
-2.65977e-07
8.54647e-06
-2.24458e-07
8.71862e-06
-1.72148e-07
8.8306e-06
-1.11982e-07
8.88173e-06
-5.11312e-08
8.86597e-06
1.5762e-08
8.75421e-06
1.11759e-07
8.4784e-06
2.75815e-07
8.03999e-06
4.38409e-07
7.56367e-06
4.76321e-07
6.92164e-06
6.42028e-07
5.68023e-06
1.24141e-06
3.88397e-06
1.79626e-06
2.20838e-06
1.67559e-06
1.14382e-06
1.06456e-06
7.1921e-07
4.24606e-07
6.94898e-07
2.4312e-08
8.48416e-07
-1.53518e-07
1.05291e-06
-2.04499e-07
1.24915e-06
-1.96237e-07
1.402e-06
-1.52847e-07
1.47037e-06
-6.83692e-08
1.37297e-06
9.73976e-08
1.07649e-06
2.96481e-07
6.91788e-07
3.84702e-07
3.8031e-07
3.11478e-07
1.9679e-07
1.83521e-07
1.12327e-07
8.44625e-08
1.01214e-07
1.11131e-08
1.62397e-07
-6.11825e-08
2.87964e-07
-1.25567e-07
4.52282e-07
-1.64318e-07
6.07029e-07
-1.54747e-07
7.2528e-07
-1.18251e-07
7.61781e-07
-3.65004e-08
7.71657e-07
-9.87602e-09
6.64889e-07
1.06768e-07
-3.1418e-09
6.68031e-07
5.29243e-08
2.22584e-07
5.15487e-07
-4.43786e-07
1.12405e-06
-9.75365e-07
1.73607e-06
-1.16452e-06
2.27095e-06
-1.15007e-06
2.70862e-06
-1.0241e-06
3.0476e-06
-8.35294e-07
3.28487e-06
-6.1629e-07
3.43069e-06
-3.94403e-07
3.50823e-06
-1.59848e-07
3.48797e-06
6.21966e-08
3.37834e-06
2.75544e-07
3.28035e-06
5.05908e-07
3.11866e-06
6.71533e-07
2.7449e-06
7.38296e-07
2.30422e-06
6.34694e-07
2.00183e-06
3.80146e-07
1.89984e-06
6.31297e-08
2.04558e-06
-2.98599e-07
2.1786e-06
-3.93672e-07
2.12985e-06
-3.13821e-07
2.00777e-06
-1.72216e-07
1.85275e-06
7.69837e-08
1.60992e-06
2.85472e-07
1.27839e-06
3.96695e-07
9.60435e-07
4.75625e-07
6.68411e-07
5.77111e-07
3.03369e-07
6.86384e-07
-1.84379e-07
8.13041e-07
-7.52674e-07
9.46408e-07
-1.35868e-06
1.07106e-06
-1.97759e-06
1.17794e-06
-2.58399e-06
1.25921e-06
-3.16253e-06
1.30333e-06
-3.70958e-06
1.30227e-06
-4.2284e-06
1.2574e-06
-4.72514e-06
1.1829e-06
-5.1992e-06
1.0944e-06
-5.64253e-06
9.9985e-07
-6.04695e-06
9.01004e-07
-6.41032e-06
7.98605e-07
-6.7355e-06
6.94272e-07
-7.02518e-06
5.88859e-07
-7.2785e-06
4.81576e-07
-7.49171e-06
3.7077e-07
-7.6579e-06
2.55839e-07
-7.76738e-06
1.37127e-07
-7.81799e-06
1.62285e-08
-7.80386e-06
-1.11175e-07
-7.72537e-06
-2.3473e-07
-7.58494e-06
-3.52016e-07
-7.38581e-06
-4.6046e-07
-7.13192e-06
-5.56705e-07
-6.82892e-06
-6.36547e-07
-6.4843e-06
-6.95328e-07
-6.10696e-06
-7.29302e-07
-5.70658e-06
-7.3605e-07
-5.29277e-06
-7.15144e-07
-4.87443e-06
-6.68435e-07
-4.45913e-06
-6.00648e-07
-4.05244e-06
-5.20029e-07
-3.65844e-06
-4.38672e-07
-3.2821e-06
-3.72017e-07
-2.93811e-06
-3.36764e-07
-2.63813e-06
-3.4085e-07
-2.38461e-06
-3.75908e-07
-2.14867e-06
-4.44745e-07
-1.89167e-06
-5.56869e-07
-1.58318e-06
-7.17917e-07
-1.19161e-06
-9.28017e-07
-6.96915e-07
-1.1604e-06
-7.40908e-08
-1.40174e-06
6.60199e-07
-1.65881e-06
1.50892e-06
-1.86685e-06
2.43977e-06
-1.96964e-06
3.3774e-06
-1.88835e-06
4.19072e-06
-1.56222e-06
4.72186e-06
-9.70821e-07
4.83699e-06
-1.53889e-07
4.48916e-06
7.43371e-07
3.74913e-06
1.51778e-06
2.75365e-06
2.14037e-06
1.57917e-06
2.55854e-06
5.27516e-07
2.24686e-06
-4.2784e-07
1.31508e-06
-1.82355e-06
1.02132e-06
-4.41516e-06
2.64588e-06
-6.92808e-06
3.96642e-06
-8.2125e-06
4.02592e-06
-9.43823e-06
3.44185e-06
-1.04453e-05
2.86411e-06
-1.12497e-05
2.30425e-06
-1.19054e-05
1.81571e-06
-1.24092e-05
1.40858e-06
-1.27905e-05
1.03458e-06
-1.30454e-05
7.10699e-07
-1.31836e-05
4.0019e-07
-1.32072e-05
1.23151e-07
-1.31174e-05
-1.37852e-07
-1.29169e-05
-3.67544e-07
-1.2617e-05
-5.74989e-07
-1.22303e-05
-7.52387e-07
-1.17707e-05
-9.01329e-07
-1.12532e-05
-1.0198e-06
-1.06911e-05
-1.11142e-06
-1.00968e-05
-1.17851e-06
-9.47953e-06
-1.22607e-06
-8.84731e-06
-1.25795e-06
-8.20566e-06
-1.27794e-06
-7.55927e-06
-1.28851e-06
-6.91183e-06
-1.29152e-06
-6.26664e-06
-1.28777e-06
-5.62702e-06
-1.27707e-06
-4.99642e-06
-1.26001e-06
-4.37674e-06
-1.23921e-06
-3.76858e-06
-1.21662e-06
-3.17119e-06
-1.19554e-06
-2.58021e-06
-1.18283e-06
-1.98996e-06
-1.17979e-06
-1.3931e-06
-1.18821e-06
-7.84722e-07
-1.20439e-06
-1.66787e-07
-1.21323e-06
4.45951e-07
-1.19435e-06
1.03065e-06
-1.13698e-06
1.56607e-06
-1.04564e-06
2.04331e-06
-9.37061e-07
2.46763e-06
-8.39691e-07
2.85679e-06
-7.77429e-07
3.23528e-06
-7.62515e-07
3.62806e-06
-7.94046e-07
4.05418e-06
-8.59911e-07
4.52194e-06
-9.39436e-07
5.02702e-06
-1.00849e-06
5.55427e-06
-1.04735e-06
6.08339e-06
-1.04706e-06
6.59541e-06
-1.01091e-06
7.07729e-06
-9.5051e-07
7.52329e-06
-8.7969e-07
7.93358e-06
-8.0928e-07
8.31115e-06
-7.44214e-07
8.65862e-06
-6.83026e-07
8.97601e-06
-6.19971e-07
9.2586e-06
-5.48567e-07
9.49753e-06
-4.63388e-07
9.68841e-06
-3.63034e-07
9.83187e-06
-2.55444e-07
9.92474e-06
-1.43997e-07
9.95371e-06
-1.32114e-08
9.91691e-06
1.48566e-07
9.83656e-06
3.56161e-07
9.65746e-06
6.17509e-07
9.30791e-06
8.25866e-07
8.90387e-06
1.04607e-06
8.50312e-06
1.64215e-06
7.88672e-06
2.41266e-06
6.98714e-06
2.57517e-06
6.0253e-06
2.0264e-06
5.16573e-06
1.28417e-06
4.43749e-06
7.52549e-07
3.86968e-06
4.14291e-07
3.49633e-06
1.68856e-07
3.28399e-06
1.61029e-08
3.14781e-06
-1.66664e-08
3.02212e-06
5.73171e-08
2.86142e-06
2.58102e-07
2.61612e-06
5.41775e-07
2.31332e-06
6.87507e-07
2.0189e-06
6.05901e-07
1.77892e-06
4.23494e-07
1.5986e-06
2.64789e-07
1.4914e-06
1.18307e-07
1.49217e-06
-6.19488e-08
1.61057e-06
-2.4397e-07
1.82722e-06
-3.80966e-07
2.08883e-06
-4.16357e-07
2.35472e-06
-3.84139e-07
2.58318e-06
-2.64966e-07
2.76377e-06
-1.90465e-07
2.89564e-06
-2.51062e-08
-4.5729e-08
2.93823e-06
5.44717e-07
-3.22133e-07
1.34626e-06
-1.24533e-06
1.95521e-06
-1.58431e-06
2.38238e-06
-1.59169e-06
2.6767e-06
-1.44439e-06
2.87945e-06
-1.22685e-06
3.01928e-06
-9.75126e-07
3.10951e-06
-7.06513e-07
3.14811e-06
-4.33008e-07
3.14507e-06
-1.56805e-07
3.09721e-06
1.10062e-07
3.00104e-06
3.7171e-07
2.89379e-06
6.13161e-07
2.75556e-06
8.09756e-07
2.57523e-06
9.18625e-07
2.33385e-06
8.76076e-07
2.06138e-06
6.5262e-07
1.90376e-06
2.20747e-07
1.73583e-06
-1.30668e-07
1.47075e-06
-1.28592e-07
1.11382e-06
4.3114e-08
7.4424e-07
1.9736e-07
4.62319e-07
3.58905e-07
2.07489e-07
5.40303e-07
-1.18185e-07
7.22369e-07
-5.3341e-07
8.9085e-07
-1.0128e-06
1.0565e-06
-1.53646e-06
1.21004e-06
-2.07871e-06
1.3553e-06
-2.61716e-06
1.48485e-06
-3.14205e-06
1.59596e-06
-3.64678e-06
1.68267e-06
-4.12758e-06
1.74001e-06
-4.58778e-06
1.76353e-06
-5.0385e-06
1.75299e-06
-5.4931e-06
1.712e-06
-5.95722e-06
1.64702e-06
-6.42626e-06
1.56344e-06
-6.89062e-06
1.46421e-06
-7.34048e-06
1.35086e-06
-7.76667e-06
1.2248e-06
-8.15951e-06
1.08711e-06
-8.50918e-06
9.38533e-07
-8.80785e-06
7.80242e-07
-9.05129e-06
6.14212e-07
-9.23795e-06
4.42494e-07
-9.36723e-06
2.66415e-07
-9.43702e-06
8.60104e-08
-9.4587e-06
-8.94929e-08
-9.43483e-06
-2.58599e-07
-9.36296e-06
-4.23888e-07
-9.24285e-06
-5.80572e-07
-9.07557e-06
-7.23976e-07
-8.8627e-06
-8.49426e-07
-8.60567e-06
-9.52355e-07
-8.30639e-06
-1.02858e-06
-7.96735e-06
-1.07509e-06
-7.59188e-06
-1.09061e-06
-7.18399e-06
-1.07633e-06
-6.74798e-06
-1.03665e-06
-6.28889e-06
-9.79117e-07
-5.81401e-06
-9.13552e-07
-5.33335e-06
-8.52675e-07
-4.86107e-06
-8.09045e-07
-4.40943e-06
-7.92499e-07
-3.9767e-06
-8.08629e-07
-3.55626e-06
-8.65187e-07
-3.14008e-06
-9.73047e-07
-2.71564e-06
-1.14236e-06
-2.26753e-06
-1.37612e-06
-1.76982e-06
-1.6581e-06
-1.19183e-06
-1.97974e-06
-5.20102e-07
-2.33053e-06
2.90248e-07
-2.6772e-06
1.24501e-06
-2.9244e-06
2.27716e-06
-2.92051e-06
3.2508e-06
-2.53586e-06
3.96503e-06
-1.68505e-06
4.24122e-06
-4.30078e-07
3.96437e-06
1.02023e-06
3.21447e-06
2.26768e-06
2.18985e-06
3.16499e-06
1.05476e-06
3.69364e-06
-2.26532e-07
3.52815e-06
-1.80962e-06
2.89817e-06
-4.12766e-06
3.33937e-06
-6.52367e-06
5.04189e-06
-7.91948e-06
5.36223e-06
-8.60884e-06
4.71527e-06
-9.282e-06
4.115e-06
-9.89309e-06
3.47521e-06
-1.04994e-05
2.91057e-06
-1.10598e-05
2.37607e-06
-1.15393e-05
1.88813e-06
-1.19186e-05
1.4139e-06
-1.21754e-05
9.67424e-07
-1.23086e-05
5.33415e-07
-1.23117e-05
1.26258e-07
-1.22007e-05
-2.48823e-07
-1.19821e-05
-5.86149e-07
-1.16679e-05
-8.89167e-07
-1.1272e-05
-1.14833e-06
-1.08092e-05
-1.36412e-06
-1.02942e-05
-1.53482e-06
-9.74e-06
-1.66562e-06
-9.15774e-06
-1.76077e-06
-8.55604e-06
-1.82777e-06
-7.94108e-06
-1.87292e-06
-7.31715e-06
-1.90187e-06
-6.68778e-06
-1.91788e-06
-6.05646e-06
-1.92283e-06
-5.42687e-06
-1.91736e-06
-4.80302e-06
-1.90092e-06
-4.19033e-06
-1.8727e-06
-3.59346e-06
-1.83608e-06
-3.01458e-06
-1.79549e-06
-2.45413e-06
-1.756e-06
-1.90767e-06
-1.72929e-06
-1.36693e-06
-1.72053e-06
-8.18106e-07
-1.73703e-06
-2.47806e-07
-1.77469e-06
3.47293e-07
-1.80833e-06
9.5912e-07
-1.80618e-06
1.56007e-06
-1.73793e-06
2.11744e-06
-1.60301e-06
2.61106e-06
-1.43068e-06
3.03926e-06
-1.26789e-06
3.41863e-06
-1.15681e-06
3.77681e-06
-1.12069e-06
4.14374e-06
-1.16097e-06
4.54365e-06
-1.25983e-06
4.98878e-06
-1.38457e-06
5.47637e-06
-1.49608e-06
5.99082e-06
-1.56179e-06
6.51023e-06
-1.56647e-06
7.01393e-06
-1.51461e-06
7.48739e-06
-1.42398e-06
7.92394e-06
-1.31624e-06
8.32387e-06
-1.20921e-06
8.69139e-06
-1.11173e-06
9.03095e-06
-1.02259e-06
9.34439e-06
-9.33409e-07
9.62694e-06
-8.31117e-07
9.8682e-06
-7.04647e-07
1.00632e-05
-5.58011e-07
1.02127e-05
-4.05018e-07
1.03116e-05
-2.42828e-07
1.03532e-05
-5.48507e-08
1.03427e-05
1.59128e-07
1.02832e-05
4.1561e-07
1.01404e-05
7.60293e-07
9.8531e-06
1.1132e-06
9.5001e-06
1.39907e-06
9.27441e-06
1.86784e-06
9.12206e-06
2.56502e-06
8.79442e-06
2.90281e-06
8.24022e-06
2.5806e-06
7.55808e-06
1.96632e-06
6.82363e-06
1.48699e-06
6.06269e-06
1.17523e-06
5.35305e-06
8.78495e-07
4.78426e-06
5.849e-07
4.36166e-06
4.05928e-07
4.02685e-06
3.92124e-07
3.73538e-06
5.49575e-07
3.45037e-06
8.26781e-07
3.11947e-06
1.01841e-06
2.73278e-06
9.92588e-07
2.3327e-06
8.23575e-07
1.98447e-06
6.13024e-07
1.75667e-06
3.46101e-07
1.69489e-06
-1.64795e-10
1.7961e-06
-3.45181e-07
2.02065e-06
-6.05512e-07
2.31058e-06
-7.06287e-07
2.60694e-06
-6.80497e-07
2.88652e-06
-5.44554e-07
3.1055e-06
-4.09443e-07
3.30248e-06
-2.22083e-07
-1.45083e-07
3.40183e-06
8.38906e-07
-1.16104e-06
1.4412e-06
-1.84762e-06
1.74162e-06
-1.88473e-06
1.88694e-06
-1.73701e-06
1.97684e-06
-1.53429e-06
2.04559e-06
-1.2956e-06
2.09775e-06
-1.02728e-06
2.12992e-06
-7.38682e-07
2.13803e-06
-4.41122e-07
2.12513e-06
-1.43905e-07
2.08418e-06
1.51015e-07
2.01113e-06
4.44759e-07
1.91487e-06
7.09424e-07
1.80277e-06
9.21852e-07
1.6712e-06
1.05019e-06
1.51086e-06
1.03642e-06
1.44691e-06
7.16576e-07
1.32631e-06
3.41346e-07
9.39401e-07
2.56238e-07
4.93453e-07
3.17355e-07
1.06539e-07
4.30028e-07
-3.12587e-07
6.16486e-07
-7.70059e-07
8.16377e-07
-1.24869e-06
1.01893e-06
-1.74481e-06
1.21849e-06
-2.25904e-06
1.40508e-06
-2.77822e-06
1.57568e-06
-3.29321e-06
1.72503e-06
-3.79403e-06
1.85612e-06
-4.27655e-06
1.96737e-06
-4.73942e-06
2.05882e-06
-5.18396e-06
2.12721e-06
-5.61382e-06
2.16987e-06
-6.03427e-06
2.18397e-06
-6.45029e-06
2.16901e-06
-6.86392e-06
2.12564e-06
-7.27243e-06
2.05552e-06
-7.66927e-06
1.96028e-06
-8.04683e-06
1.84177e-06
-8.39815e-06
1.70219e-06
-8.71762e-06
1.54426e-06
-9.00145e-06
1.37094e-06
-9.24821e-06
1.18529e-06
-9.45829e-06
9.90324e-07
-9.6328e-06
7.8872e-07
-9.77297e-06
5.82672e-07
-9.8809e-06
3.74345e-07
-9.96122e-06
1.66323e-07
-1.00103e-05
-4.04077e-08
-1.00275e-05
-2.41388e-07
-1.00153e-05
-4.36061e-07
-9.97497e-06
-6.20938e-07
-9.90622e-06
-7.9273e-07
-9.80771e-06
-9.4794e-07
-9.67712e-06
-1.08294e-06
-9.51142e-06
-1.19428e-06
-9.30734e-06
-1.27917e-06
-9.06186e-06
-1.33609e-06
-8.7727e-06
-1.36549e-06
-8.4387e-06
-1.37065e-06
-8.0606e-06
-1.35721e-06
-7.64235e-06
-1.33181e-06
-7.19027e-06
-1.30475e-06
-6.71204e-06
-1.28727e-06
-6.215e-06
-1.28954e-06
-5.70278e-06
-1.32085e-06
-5.17762e-06
-1.39035e-06
-4.64149e-06
-1.50918e-06
-4.09166e-06
-1.6922e-06
-3.52669e-06
-1.94108e-06
-2.93596e-06
-2.24883e-06
-2.30288e-06
-2.61282e-06
-1.60202e-06
-3.0314e-06
-8.07377e-07
-3.47184e-06
1.01469e-07
-3.83325e-06
1.1032e-06
-3.92224e-06
2.06622e-06
-3.49888e-06
2.78422e-06
-2.40305e-06
3.08163e-06
-7.27494e-07
2.84342e-06
1.25844e-06
2.13235e-06
2.97875e-06
1.09536e-06
4.20198e-06
-1.29265e-07
4.91826e-06
-1.51064e-06
4.90953e-06
-3.18481e-06
4.57234e-06
-5.36138e-06
5.51594e-06
-6.90841e-06
6.58892e-06
-7.54997e-06
6.00379e-06
-8.08645e-06
5.25176e-06
-8.63711e-06
4.66566e-06
-9.15325e-06
3.99134e-06
-9.68209e-06
3.43941e-06
-1.01636e-05
2.85759e-06
-1.0578e-05
2.30256e-06
-1.08971e-05
1.73297e-06
-1.1103e-05
1.1733e-06
-1.11903e-05
6.20763e-07
-1.11576e-05
9.35329e-08
-1.10167e-05
-3.89778e-07
-1.07736e-05
-8.29227e-07
-1.04423e-05
-1.22048e-06
-1.00364e-05
-1.55417e-06
-9.5721e-06
-1.82844e-06
-9.06471e-06
-2.04222e-06
-8.52816e-06
-2.20217e-06
-7.97276e-06
-2.31617e-06
-7.40579e-06
-2.39473e-06
-6.83105e-06
-2.44766e-06
-6.24955e-06
-2.48337e-06
-5.66093e-06
-2.5065e-06
-5.06514e-06
-2.51863e-06
-4.46328e-06
-2.51922e-06
-3.85827e-06
-2.50594e-06
-3.25628e-06
-2.47469e-06
-2.66546e-06
-2.4269e-06
-2.0947e-06
-2.36626e-06
-1.55212e-06
-2.29857e-06
-1.042e-06
-2.23941e-06
-5.60631e-07
-2.2019e-06
-8.89375e-08
-2.20872e-06
3.92896e-07
-2.25652e-06
9.06363e-07
-2.3218e-06
1.45466e-06
-2.35448e-06
2.01827e-06
-2.30154e-06
2.56303e-06
-2.14777e-06
3.05771e-06
-1.92537e-06
3.48877e-06
-1.69895e-06
3.86519e-06