/*--------------------------------*- C++ -*----------------------------------*\
  =========                 |
  \\      /  F ield         | OpenFOAM: The Open Source CFD Toolbox
   \\    /   O peration     | Website:  https://openfoam.org
    \\  /    A nd           | Version:  9
     \\/     M anipulation  |
\*---------------------------------------------------------------------------*/
FoamFile
{
    format      ascii;
    class       volScalarField;
    location    "0.061";
    object      pMean;
}
// * * * * * * * * * * * * * * * * * * * * * * * * * * * * * * * * * * * * * //

dimensions      [0 2 -2 0 0 0 0];

internalField   nonuniform List<scalar> 
12225
(
-2.80241
-3.34941
-3.64299
-3.75207
-3.79212
-3.81577
-3.83317
-3.83925
-3.82834
-3.79678
-3.74396
-3.6673
-3.56878
-3.44518
-3.31116
-3.17932
-3.11858
-3.25192
-3.03087
-3.37916
-3.64578
-3.76216
-3.8037
-3.82615
-3.84311
-3.84964
-3.83991
-3.81005
-3.76
-3.68716
-3.59489
-3.47972
-3.35932
-3.24195
-3.20543
-3.35534
-3.07936
-3.38443
-3.63982
-3.76553
-3.81236
-3.83522
-3.85215
-3.8599
-3.85225
-3.82589
-3.78033
-3.71591
-3.63405
-3.5389
-3.44154
-3.36845
-3.36782
-3.52412
-3.20747
-3.43477
-3.65283
-3.77789
-3.82884
-3.85158
-3.86747
-3.87573
-3.87064
-3.84822
-3.80872
-3.75279
-3.68416
-3.60809
-3.53782
-3.49725
-3.52143
-3.64999
-3.28869
-3.47042
-3.65797
-3.78182
-3.84025
-3.86612
-3.882
-3.89103
-3.88865
-3.87135
-3.83884
-3.79298
-3.73797
-3.68073
-3.63395
-3.61662
-3.65087
-3.75261
-3.39926
-3.52462
-3.67921
-3.79675
-3.85954
-3.88808
-3.90415
-3.91397
-3.91438
-3.90201
-3.8768
-3.84122
-3.79996
-3.76033
-3.73305
-3.73207
-3.77093
-3.85715
-3.52647
-3.58108
-3.6968
-3.80756
-3.87553
-3.90843
-3.92573
-3.93679
-3.94079
-3.93456
-3.91778
-3.89313
-3.86556
-3.84195
-3.83123
-3.84321
-3.88666
-3.96571
-3.59492
-3.63516
-3.72952
-3.82821
-3.89668
-3.93383
-3.95385
-3.9666
-3.97369
-3.97331
-3.96508
-3.95144
-3.93703
-3.92795
-3.93128
-3.95419
-4.00261
-4.07889
-3.65444
-3.6952
-3.76678
-3.85088
-3.91838
-3.95988
-3.98368
-3.99951
-4.01072
-4.01668
-4.01716
-4.01431
-4.01229
-4.01639
-4.03236
-4.06543
-4.11964
-4.19628
-3.72983
-3.74964
-3.80715
-3.88055
-3.94499
-3.98936
-4.01732
-4.03684
-4.05247
-4.06487
-4.0743
-4.08236
-4.09241
-4.10887
-4.13643
-4.17898
-4.2394
-4.31851
-3.79651
-3.81188
-3.85452
-3.91742
-3.97802
-4.0236
-4.0552
-4.07933
-4.10025
-4.11935
-4.13706
-4.15502
-4.17614
-4.20399
-4.2422
-4.29374
-4.3607
-4.44392
-3.85471
-3.85231
-3.88999
-3.9495
-4.00799
-4.05506
-4.09105
-4.12014
-4.14643
-4.17192
-4.19772
-4.22499
-4.25597
-4.29365
-4.34096
-4.4003
-4.47326
-4.56066
-3.92572
-3.91577
-3.94341
-3.99438
-4.04827
-4.09475
-4.13327
-4.16708
-4.1989
-4.2306
-4.26347
-4.29897
-4.33891
-4.38556
-4.44117
-4.50775
-4.58644
-4.6781
-3.91347
-3.94755
-3.98861
-4.03624
-4.08642
-4.13502
-4.17974
-4.22046
-4.25925
-4.29857
-4.34013
-4.3852
-4.43514
-4.49166
-4.55643
-4.63094
-4.71621
-4.8129
-3.99578
-4.02908
-4.0662
-4.10506
-4.14913
-4.19668
-4.24427
-4.29041
-4.33606
-4.38318
-4.43348
-4.48809
-4.54802
-4.61435
-4.6883
-4.77089
-4.86293
-4.96472
-4.08418
-4.09027
-4.11406
-4.15435
-4.20446
-4.25871
-4.31317
-4.36687
-4.42121
-4.47792
-4.53829
-4.60315
-4.67333
-4.74957
-4.83269
-4.92321
-5.0217
-5.12822
-4.1983
-4.1912
-4.20563
-4.24209
-4.29222
-4.34756
-4.40423
-4.46251
-4.52377
-4.58906
-4.65883
-4.73336
-4.81308
-4.89844
-4.98986
-5.0876
-5.19197
-5.30296
-4.22066
-4.24079
-4.2723
-4.31571
-4.36742
-4.42622
-4.49109
-4.5599
-4.63182
-4.70717
-4.7866
-4.87056
-4.95933
-5.05304
-5.15177
-5.25553
-5.36434
-5.47801
-4.2757
-4.30275
-4.34861
-4.40287
-4.46266
-4.52799
-4.59798
-4.67234
-4.75131
-4.83479
-4.92244
-5.0142
-5.11011
-5.21011
-5.31408
-5.42182
-5.53317
-5.64786
-4.41675
-4.40024
-4.41223
-4.4546
-4.51632
-4.58879
-4.66684
-4.74821
-4.83283
-4.92149
-5.01458
-5.11176
-5.21252
-5.31641
-5.42326
-5.53286
-5.64501
-5.75931
-4.35086
-4.36789
-4.41202
-4.47672
-4.55271
-4.63256
-4.71464
-4.79986
-4.88875
-4.98159
-5.07831
-5.1785
-5.28167
-5.38741
-5.49544
-5.6055
-5.7174
-5.83087
-4.3748
-4.37789
-4.4169
-4.48305
-4.56206
-4.64648
-4.73384
-4.82361
-4.91656
-5.01315
-5.11314
-5.21595
-5.32102
-5.42806
-5.53691
-5.64734
-5.75903
-5.87157
-4.27714
-4.33798
-4.41492
-4.49666
-4.58133
-4.6689
-4.75858
-4.85059
-4.94564
-5.04416
-5.14574
-5.24968
-5.35546
-5.46286
-5.57168
-5.68171
-5.79263
-5.90423
-4.18394
-4.26844
-4.37014
-4.4729
-4.5702
-4.6632
-4.75559
-4.85049
-4.94918
-5.05121
-5.15545
-5.26107
-5.36796
-5.47617
-5.58556
-5.69584
-5.80667
-5.91756
-4.26274
-4.29178
-4.37835
-4.48681
-4.5893
-4.68234
-4.77302
-4.86738
-4.96677
-5.06956
-5.17407
-5.27974
-5.38658
-5.49459
-5.60361
-5.7133
-5.82327
-5.93326
-4.08863
-4.19584
-4.33314
-4.46315
-4.57203
-4.6671
-4.7607
-4.85888
-4.96168
-5.06696
-5.17317
-5.27995
-5.38757
-5.49617
-5.60559
-5.71543
-5.82533
-5.93496
-4.07102
-4.20156
-4.35177
-4.48127
-4.58436
-4.6757
-4.76861
-4.8675
-4.97075
-5.07578
-5.18149
-5.28791
-5.39534
-5.50372
-5.6128
-5.7222
-5.83156
-5.94049
-3.96612
-4.12882
-4.31978
-4.46554
-4.56964
-4.66168
-4.75793
-4.86003
-4.96514
-5.07119
-5.17766
-5.28475
-5.39266
-5.50132
-5.6105
-5.71981
-5.82904
-5.93813
-3.96865
-4.14143
-4.33518
-4.47292
-4.5719
-4.66365
-4.76074
-4.86309
-4.96798
-5.07382
-5.18021
-5.28726
-5.39515
-5.50376
-5.61287
-5.72188
-5.83067
-5.93866
-3.70953
-4.10173
-4.33797
-4.466
-4.56208
-4.65649
-4.7557
-4.8589
-4.96413
-5.07021
-5.17688
-5.28421
-5.39235
-5.50112
-5.6103
-5.71916
-5.82758
-5.93442
-8.22428
-8.41378
-8.61782
-8.74418
-8.6996
-8.48492
-8.21804
-8.05161
-8.09104
-8.36038
-8.83022
-9.43985
-10.1077
-10.7572
-11.3309
-11.7991
-12.1484
-12.371
-12.4671
-12.4509
-12.3573
-12.1912
-11.9708
-11.7305
-11.5276
-11.4173
-11.4577
-11.6294
-11.8651
-12.1248
-12.426
-12.8141
-13.2959
-13.7989
-14.228
-14.5406
-14.7344
-14.9637
-15.3938
-15.9822
-16.5087
-16.8734
-17.0717
-17.2055
-17.4085
-17.6302
-17.8256
-18.0185
-18.0854
-18.0769
-18.2758
-18.6177
-19.0534
-19.6013
-20.2228
-20.8249
-21.3246
-21.9114
-22.6943
-23.6288
-24.6079
-25.5625
-26.4188
-27.1399
-27.6997
-28.0842
-28.2809
-28.2803
-28.0823
-27.7031
-27.1717
-26.5225
-25.7873
-25.014
-24.2699
-23.5698
-22.9156
-22.2969
-21.6822
-21.0216
-20.2625
-19.3697
-18.3463
-17.2558
-16.1349
-15.0687
-13.9696
-12.8793
-11.6206
-10.7783
-10.6657
-10.9759
-11.4364
-11.9082
-12.3006
-12.5677
-12.6731
-12.5892
-12.2868
-11.7393
-10.923
-9.82449
-8.44251
-6.79056
-4.89611
-2.79898
-0.547072
1.8076
4.21079
6.60705
8.94132
11.1628
13.2303
15.1157
16.804
18.2895
19.5722
20.6546
21.5399
22.232
22.7358
23.0582
23.2084
23.2001
23.0488
22.7721
22.3877
21.9132
21.3655
20.7605
20.1129
19.4368
18.7459
18.0533
17.372
16.7144
16.0916
15.5133
14.988
14.5226
14.1222
13.7904
13.529
13.3383
13.217
13.1618
13.1674
13.2264
13.3294
13.4662
13.6251
13.7939
13.9567
14.0932
14.1956
14.2901
14.4206
14.5956
14.7895
14.9758
15.1427
15.2873
15.4111
15.5165
15.6054
15.6839
15.7684
15.8772
16.0119
16.1629
16.3207
16.4798
16.6345
16.7826
16.922
17.0588
17.1979
17.3494
17.5299
17.7054
-9.08357
-9.27115
-9.44691
-9.60601
-9.5739
-9.40596
-9.23776
-9.20594
-9.37974
-9.74609
-10.2504
-10.8271
-11.4161
-11.966
-12.4393
-12.8147
-13.0888
-13.2595
-13.3232
-13.3003
-13.186
-13.0162
-12.8353
-12.6462
-12.4632
-12.3805
-12.3999
-12.5447
-12.7622
-13.0789
-13.5981
-14.2404
-14.9316
-15.5826
-16.1032
-16.4923
-16.7732
-17.0413
-17.4032
-17.8708
-18.2885
-18.5555
-18.6446
-18.6209
-18.6877
-18.7699
-19.0441
-19.5815
-19.8365
-19.9302
-20.1555
-20.4637
-20.825
-21.2412
-21.6859
-22.2358
-22.7824
-23.3719
-24.1236
-24.9701
-25.8503
-26.6918
-27.439
-28.0624
-28.5379
-28.8473
-28.9744
-28.9085
-28.6525
-28.2225
-27.6406
-26.9484
-26.1811
-25.383
-24.6116
-23.8927
-23.2345
-22.63
-22.0435
-21.4218
-20.705
-19.8433
-18.8202
-17.6765
-16.4807
-15.2948
-14.174
-13.3267
-12.4612
-11.8969
-11.8729
-12.109
-12.4595
-12.8013
-13.0799
-13.2528
-13.288
-13.1505
-12.8063
-12.2239
-11.3772
-10.2492
-8.83763
-7.15609
-5.2331
-3.10874
-0.830989
1.54802
3.97457
6.39391
8.75093
10.9935
13.0785
14.9769
16.6739
18.1652
19.4524
20.5388
21.4287
22.1258
22.6349
22.9619
23.1159
23.1111
22.9628
22.6887
22.307
21.8353
21.2906
20.6886
20.0442
19.3712
18.683
17.9929
17.3135
16.6572
16.0351
15.4574
14.9323
14.4669
14.0665
13.7347
13.4735
13.2831
13.1619
13.1065
13.1115
13.1698
13.273
13.4104
13.57
13.7397
13.9057
14.0503
14.1651
14.2757
14.4212
14.6043
14.7985
14.982
15.1464
15.2893
15.4118
15.516
15.6034
15.6798
15.7638
15.8733
16.009
16.1603
16.3178
16.4764
16.6309
16.7777
16.9161
17.0485
17.1846
17.3244
17.4936
17.6326
-8.78765
-8.89015
-9.10137
-9.41267
-9.74217
-10.0654
-10.4165
-10.8445
-11.3711
-11.9666
-12.5744
-13.1548
-13.6733
-14.1087
-14.4482
-14.6898
-14.8357
-14.8911
-14.8718
-14.802
-14.6855
-14.5257
-14.3476
-14.1805
-14.0361
-13.9668
-13.9762
-14.083
-14.3255
-14.71
-15.2351
-15.8725
-16.5867
-17.2918
-17.9181
-18.4109
-18.8413
-19.2881
-19.7562
-20.2134
-20.5239
-20.6264
-20.5105
-20.4231
-20.5503
-20.8011
-21.0863
-21.4995
-21.9099
-22.2344
-22.536
-22.8178
-23.0748
-23.3455
-23.6895
-24.1035
-24.6022
-25.1811
-25.8383
-26.5382
-27.2504
-27.9397
-28.5756
-29.1288
-29.57
-29.8663
-29.9835
-29.8933
-29.5878
-29.0805
-28.4027
-27.6117
-26.773
-25.9396
-25.149
-24.4136
-23.7562
-23.1854
-22.6548
-22.0893
-21.4186
-20.5852
-19.5565
-18.3787
-17.1156
-15.9509
-15.0356
-14.3645
-13.8975
-13.6382
-13.5924
-13.6698
-13.8267
-13.9961
-14.14
-14.2134
-14.1792
-13.9949
-13.6202
-13.0159
-12.1491
-10.998
-9.5574
-7.8394
-5.87323
-3.70236
-1.37862
1.04388
3.51193
5.97225
8.3701
10.6514
12.7693
14.6925
16.4066
17.9094
19.2053
20.3001
21.1988
21.9057
22.4247
22.7608
22.9232
22.9257
22.7837
22.5152
22.1389
21.6728
21.1339
20.5379
19.8994
19.2322
18.5495
17.8645
17.1898
16.5378
15.9196
15.3454
14.8236
14.3611
13.9632
13.6335
13.3741
13.1854
13.0657
13.0115
13.0178
13.0775
13.1821
13.3213
13.4837
13.6575
13.8304
13.9904
14.1335
14.2748
14.4364
14.6203
14.8105
14.9906
15.1525
15.294
15.4155
15.5189
15.6073
15.6874
15.7737
15.881
16.0106
16.1555
16.3093
16.4659
16.6201
16.7653
16.9016
17.0274
17.1546
17.2756
17.4152
17.5146
-8.84027
-8.93141
-9.24666
-9.75342
-10.4127
-11.1563
-11.9238
-12.6982
-13.4557
-14.1615
-14.7864
-15.318
-15.7454
-16.066
-16.287
-16.4264
-16.4992
-16.5132
-16.4876
-16.4249
-16.3415
-16.246
-16.1448
-16.0548
-16.002
-15.9934
-16.0483
-16.1693
-16.3702
-16.662
-17.0524
-17.5364
-18.0909
-18.6634
-19.2047
-19.7033
-20.22
-20.8104
-21.432
-21.9617
-22.2989
-22.4367
-22.3775
-22.3102
-22.4083
-22.6885
-23.0911
-23.5488
-23.9973
-24.3987
-24.7304
-24.9972
-25.2158
-25.4382
-25.7311
-26.0923
-26.5154
-26.9881
-27.5051
-28.056
-28.6319
-29.2167
-29.789
-30.318
-30.7697
-31.0994
-31.2548
-31.1882
-30.8706
-30.298
-29.5062
-28.5896
-27.6505
-26.7359
-25.8738
-25.1079
-24.4495
-23.8826
-23.3654
-22.8227
-22.1669
-21.338
-20.3166
-19.1739
-17.9934
-17.0089
-16.2959
-15.8564
-15.5764
-15.4166
-15.3518
-15.3463
-15.3858
-15.4372
-15.4761
-15.4657
-15.37
-15.1446
-14.7431
-14.1175
-13.2275
-12.0456
-10.5644
-8.79598
-6.77105
-4.53706
-2.15125
0.328853
2.85018
5.36261
7.81361
10.1473
12.3113
14.27
16.0087
17.5281
18.8364
19.9424
20.853
21.5729
22.1051
22.4541
22.6285
22.6412
22.5081
22.2478
21.8793
21.4212
20.8906
20.3031
19.6732
19.0145
18.34
17.6627
16.9952
16.3495
15.7369
15.1676
14.6503
14.192
13.7981
13.4727
13.2177
13.0334
12.9183
12.869
12.8804
12.9454
13.0552
13.1998
13.3686
13.5505
13.7352
13.9138
14.0825
14.2488
14.4262
14.6169
14.809
14.9888
15.1497
15.2895
15.4087
15.5102
15.5983
15.6801
15.7679
15.874
16.0013
16.1446
16.298
16.4551
16.6094
16.7533
16.8859
17.0046
17.12
17.224
17.3337
17.4013
-9.04427
-9.29851
-9.84143
-10.6386
-11.5525
-12.4977
-13.4269
-14.3057
-15.1186
-15.8492
-16.4894
-17.0288
-17.459
-17.7763
-17.9899
-18.1266
-18.2086
-18.2491
-18.2641
-18.264
-18.254
-18.2371
-18.2283
-18.2429
-18.2946
-18.3915
-18.5319
-18.7074
-18.9074
-19.1244
-19.3578
-19.612
-19.8928
-20.2029
-20.5453
-20.9376
-21.4178
-22.0051
-22.6275
-23.1757
-23.5607
-23.7918
-23.9093
-24.0085
-24.184
-24.4913
-24.9187
-25.4071
-25.907
-26.3777
-26.7786
-27.0974
-27.3453
-27.5747
-27.8392
-28.1404
-28.4762
-28.8516
-29.2683
-29.7189
-30.1966
-30.6913
-31.1881
-31.6637
-32.0881
-32.4142
-32.5788
-32.5158
-32.1828
-31.5678
-30.7119
-29.7188
-28.6944
-27.6943
-26.7411
-25.8677
-25.1198
-24.5036
-23.9671
-23.4116
-22.7477
-21.9159
-20.9357
-19.9056
-18.9406
-18.1963
-17.7286
-17.4618
-17.29
-17.1906
-17.1394
-17.1107
-17.0932
-17.0703
-17.0299
-16.949
-16.7982
-16.5347
-16.1079
-15.4623
-14.549
-13.3343
-11.8069
-9.97796
-7.88082
-5.56881
-3.10738
-0.560249
2.01911
4.58591
7.09355
9.48655
11.7062
13.7097
15.4805
17.0218
18.3461
19.4658
20.3905
21.1252
21.672
22.0355
22.2236
22.2485
22.1266
21.8769
21.5192
21.0722
20.5528
19.9767
19.358
18.7101
18.046
17.3784
16.7194
16.0815
15.4762
14.9138
14.4031
13.9512
13.5638
13.2451
12.9972
12.8206
12.7137
12.6734
12.6944
12.7694
12.8896
13.0453
13.226
13.4213
13.6219
13.8201
14.0118
14.2011
14.3961
14.5973
14.7946
14.9772
15.1393
15.2792
15.3983
15.5002
15.5896
15.6732
15.7621
15.8676
15.993
16.1344
16.2869
16.444
16.5982
16.7402
16.8681
16.9797
17.0826
17.1714
17.2542
17.2982
-9.43068
-9.92897
-10.7819
-11.7432
-12.7686
-13.7953
-14.7766
-15.6955
-16.5507
-17.3434
-18.0655
-18.7016
-19.2372
-19.663
-19.9846
-20.224
-20.3978
-20.5197
-20.608
-20.6787
-20.7407
-20.8023
-20.877
-20.977
-21.1135
-21.2894
-21.4969
-21.7185
-21.9315
-22.115
-22.2573
-22.3612
-22.4488
-22.5573
-22.723
-22.9935
-23.3843
-23.8974
-24.4669
-25.0068
-25.4459
-25.7677
-26.0049
-26.2103
-26.445
-26.765
-27.1823
-27.6694
-28.1854
-28.6843
-29.1269
-29.4959
-29.7731
-29.9788
-30.1669
-30.3688
-30.6045
-30.8872
-31.2163
-31.5825
-31.9751
-32.3791
-32.7803
-33.1613
-33.493
-33.7322
-33.8263
-33.7142
-33.349
-32.7192
-31.858
-30.8441
-29.756
-28.6518
-27.5795
-26.5848
-25.7062
-24.9638
-24.3247
-23.6974
-22.9919
-22.1912
-21.3317
-20.4995
-19.8049
-19.3393
-19.1051
-18.9974
-18.9483
-18.9392
-18.9393
-18.9272
-18.8916
-18.8248
-18.7255
-18.585
-18.3836
-18.0837
-17.6335
-16.9702
-16.0361
-14.7899
-13.214
-11.3187
-9.13962
-6.73747
-4.18838
-1.56585
1.07372
3.69078
6.24816
8.69605
10.9723
13.0253
14.8338
16.4019
17.7454
18.8818
19.8232
20.5731
21.1344
21.5118
21.7133
21.7513
21.6423
21.4061
21.0623
20.6296
20.1248
19.5629
18.9579
18.323
17.6708
17.0135
16.3642
15.7352
15.1382
14.5835
14.0802
13.6357
13.2562
12.9461
12.7078
12.5419
12.4472
12.4203
12.4556
12.5458
12.6823
12.8552
13.0541
13.2688
13.4898
13.7098
13.925
14.1371
14.3505
14.5638
14.7691
14.9573
15.1232
15.2652
15.3854
15.4877
15.5776
15.6625
15.7529
15.8586
15.9831
16.1238
16.2764
16.4338
16.5872
16.7268
16.8493
16.9532
17.0439
17.1182
17.1788
17.2036
-10.5958
-11.1338
-11.9819
-12.9062
-13.8637
-14.8449
-15.8231
-16.7805
-17.7131
-18.6157
-19.4695
-20.2523
-20.9456
-21.5366
-22.0259
-22.427
-22.7526
-23.0212
-23.2519
-23.4567
-23.6419
-23.8172
-23.9956
-24.1906
-24.4115
-24.6583
-24.9222
-25.1847
-25.4217
-25.6076
-25.724
-25.7678
-25.7603
-25.7569
-25.8192
-26.015
-26.3451
-26.7923
-27.3119
-27.8386
-28.305
-28.6823
-28.979
-29.228
-29.4775
-29.7708
-30.1308
-30.5508
-30.9966
-31.4343
-31.8364
-32.1813
-32.419
-32.5413
-32.6114
-32.6903
-32.8127
-32.9968
-33.241
-33.5322
-33.8513
-34.1746
-34.4822
-34.7584
-34.981
-35.1141
-35.107
-34.9073
-34.4814
-33.824
-32.9589
-31.9335
-30.8007
-29.6095
-28.4106
-27.2608
-26.2152
-25.3061
-24.5175
-23.7818
-23.0405
-22.2971
-21.5931
-20.9993
-20.5861
-20.3866
-20.3563
-20.4049
-20.4915
-20.5946
-20.6777
-20.7191
-20.703
-20.6236
-20.4865
-20.2963
-20.0482
-19.7147
-19.2448
-18.5683
-17.6151
-16.3359
-14.7107
-12.7475
-10.4834
-7.98562
-5.34213
-2.63798
0.0646746
2.72851
5.32622
7.81763
10.1427
12.2418
14.0873
15.6823
17.0464
18.202
19.1598
19.9239
20.4979
20.8875
21.1012
21.1522
21.0577
20.8374
20.5109
20.096
19.6086
19.0633
18.4735
17.8523
17.2121
16.5659
15.9268
15.307
14.7183
14.1712
13.675
13.238
12.8666
12.5661
12.3392
12.1871
12.1085
12.0994
12.1544
12.2659
12.4252
12.6218
12.8457
13.0863
13.3339
13.5808
13.8226
14.059
14.2918
14.5196
14.7356
14.9322
15.1044
15.2508
15.3739
15.4782
15.5703
15.6578
15.7503
15.8565
15.9802
16.1198
16.2711
16.4271
16.5783
16.7139
16.83
16.9257
17.005
17.066
17.1086
17.1177
-11.7953
-12.2402
-12.878
-13.6686
-14.5654
-15.5228
-16.5056
-17.4993
-18.5086
-19.5244
-20.5201
-21.4689
-22.3482
-23.1418
-23.8452
-24.4627
-25.0044
-25.4869
-25.9235
-26.3199
-26.6812
-27.0164
-27.3376
-27.6557
-27.9771
-28.3013
-28.6201
-28.9191
-29.1789
-29.377
-29.4953
-29.5299
-29.5006
-29.4693
-29.5125
-29.6876
-29.9949
-30.4188
-30.9247
-31.4525
-31.937
-32.3462
-32.6753
-32.9384
-33.1654
-33.3917
-33.649
-33.9433
-34.247
-34.5479
-34.8328
-35.0676
-35.1849
-35.1687
-35.0891
-35.0327
-35.0445
-35.1369
-35.2979
-35.515
-35.7671
-36.0211
-36.2529
-36.4442
-36.5723
-36.6082
-36.5121
-36.2424
-35.7683
-35.0782
-34.1829
-33.1115
-31.9054
-30.6129
-29.2868
-27.9858
-26.7707
-25.6844
-24.7327
-23.8817
-23.1161
-22.4461
-21.9039
-21.5337
-21.3616
-21.3717
-21.4975
-21.6759
-21.8846
-22.0997
-22.2834
-22.4078
-22.4427
-22.3752
-22.2143
-21.9794
-21.6842
-21.3145
-20.8225
-20.1324
-19.1607
-17.8505
-16.1808
-14.1575
-11.8185
-9.23539
-6.50496
-3.72372
-0.96136
1.74431
4.37313
6.89671
9.25817
11.3917
13.2655
14.8822
16.2664
17.4392
18.4113
19.1871
19.7712
20.1706
20.3956
20.4602
20.3821
20.1807
19.8746
19.4803
19.0125
18.4849
17.9108
17.3033
16.6751
16.0396
15.4098
14.7982
14.2166
13.6758
13.186
12.7558
12.3924
12.1018
11.8876
11.7512
11.6913
11.7043
11.7843
11.9236
12.1123
12.3401
12.596
12.8696
13.1506
13.4305
13.7038
13.9682
14.224
14.4693
14.6988
14.9059
15.0863
15.2391
15.3668
15.4746
15.5694
15.6593
15.7536
15.8603
15.9829
16.1206
16.2698
16.4234
16.5706
16.7008
16.8098
16.8973
16.9661
17.0154
17.0435
17.0397
-12.4526
-12.7899
-13.331
-14.0521
-14.9026
-15.8373
-16.8275
-17.8639
-18.9529
-20.0801
-21.2139
-22.3298
-23.4036
-24.4154
-25.3546
-26.2198
-27.0177
-27.7572
-28.441
-29.0688
-29.6441
-30.1748
-30.6693
-31.134
-31.5721
-31.9832
-32.3621
-32.7002
-32.9848
-33.2011
-33.3372
-33.3959
-33.4015
-33.4168
-33.5152
-33.7334
-34.0735
-34.5207
-35.0418
-35.5776
-36.072
-36.493
-36.8246
-37.0664
-37.2321
-37.3487
-37.4609
-37.5856
-37.7042
-37.8211
-37.9281
-37.9798
-37.9115
-37.7228
-37.4939
-37.3145
-37.226
-37.2345
-37.3198
-37.467
-37.6537
-37.8492
-38.0259
-38.1636
-38.2373
-38.2166
-38.0636
-37.74
-37.2168
-36.4788
-35.5289
-34.387
-33.0908
-31.6909
-30.2444
-28.8127
-27.4561
-26.2231
-25.1373
-24.1997
-23.4208
-22.8185
-22.4132
-22.217
-22.2148
-22.357
-22.5774
-22.8401
-23.1387
-23.4503
-23.7373
-23.957
-24.0558
-24.0069
-23.8222
-23.5402
-23.1969
-22.7903
-22.2752
-21.5702
-20.5788
-19.2366
-17.5229
-15.4458
-13.0461
-10.3964
-7.60028
-4.76186
-1.95579
0.780366
3.42923
5.97328
8.35414
10.5037
12.3925
14.0241
15.4228
16.6083
17.5904
18.3741
18.9652
19.3728
19.6087
19.688
19.6285
19.4485
19.1648
18.7922
18.344
17.8334
17.2739
16.6787
16.0614
15.4349
14.8123
14.2063
13.6293
13.0929
12.6076
12.1827
11.8266
11.5458
11.3448
11.2253
11.1865
11.2251
11.3351
11.5077
11.7329
11.9999
12.2966
12.6116
12.9341
13.2546
13.5659
13.8644
14.1486
14.4162
14.6626
14.8827
15.0732
15.234
15.3679
15.4806
15.5792
15.6721
15.7685
15.8758
15.997
16.1318
16.2771
16.4256
16.5664
16.6892
16.7902
16.8693
16.9287
16.9676
16.984
16.9695
-12.728
-13.0077
-13.4885
-14.163
-14.9878
-15.9235
-16.9375
-18.0205
-19.1782
-20.3996
-21.6599
-22.9376
-24.2075
-25.4441
-26.63
-27.7571
-28.8243
-29.8298
-30.7681
-31.6352
-32.435
-33.173
-33.8533
-34.4784
-35.0507
-35.5718
-36.0402
-36.453
-36.8027
-37.0815
-37.2861
-37.4276
-37.5379
-37.6704
-37.8803
-38.19
-38.5995
-39.0942
-39.6396
-40.18
-40.6671
-41.066
-41.3553
-41.5268
-41.5847
-41.5542
-41.4905
-41.4045
-41.2879
-41.1627
-41.0296
-40.8362
-40.5328
-40.1431
-39.7607
-39.4662
-39.2824
-39.211
-39.2349
-39.3318
-39.4739
-39.6329
-39.7803
-39.8902
-39.9342
-39.8781
-39.6834
-39.3127
-38.7371
-37.941
-36.925
-35.7074
-34.326
-32.8349
-31.2955
-29.7705
-28.3194
-26.9929
-25.8262
-24.843
-24.0654
-23.5136
-23.1986
-23.108
-23.1974
-23.3992
-23.6596
-23.9629
-24.3145
-24.6959
-25.0684
-25.3698
-25.5184
-25.4735
-25.2531
-24.9149
-24.518
-24.0727
-23.5344
-22.8146
-21.8042
-20.4303
-18.6737
-16.546
-14.0944
-11.3968
-8.56243
-5.69644
-2.87215
-0.12223
2.53403
5.07852
7.45665
9.60412
11.4935
13.1297
14.5347
15.7261
16.7124
17.4992
18.0944
18.5088
18.7558
18.8512
18.8118
18.6541
18.3926
18.0402
17.6095
17.1136
16.566
15.9803
15.37
14.7487
14.1293
13.5251
12.9492
12.4141
11.931
11.5109
11.1623
10.8921
10.7054
10.6046
10.5895
10.6569
10.8005
11.012
11.2804
11.5936
11.9389
12.3037
12.6764
13.0461
13.4039
13.7442
14.064
14.3604
14.6292
14.8663
15.0697
15.24
15.3811
15.4991
15.6017
15.6976
15.7957
15.9027
16.0216
16.1521
16.2917
16.4333
16.5658
16.6798
16.7719
16.8425
16.8931
16.9229
16.9295
16.9065
-12.7918
-13.0425
-13.5139
-14.1887
-15.0274
-15.9936
-17.0591
-18.2132
-19.4576
-20.7851
-22.178
-23.6148
-25.0697
-26.5142
-27.9258
-29.2901
-30.5969
-31.8348
-32.9938
-34.0724
-35.0758
-36.0087
-36.8732
-37.6698
-38.3984
-39.0593
-39.6529
-40.1792
-40.6355
-41.0201
-41.3361
-41.5969
-41.8345
-42.0932
-42.4127
-42.8073
-43.2769
-43.8063
-44.3606
-44.8901
-45.3498
-45.7027
-45.9249
-46.0034
-45.9379
-45.7518
-45.5044
-45.1942
-44.828
-44.4434
-44.0413
-43.5788
-43.0305
-42.4347
-41.8884
-41.4689
-41.1876
-41.0384
-41.0083
-41.0701
-41.1869
-41.3283
-41.4642
-41.5605
-41.5822
-41.4913
-41.2496
-40.8241
-40.1891
-39.3326
-38.2567
-36.9791
-35.5375
-33.9894
-32.3995
-30.8303
-29.3378
-27.9765
-26.7886
-25.8041
-25.0467
-24.5334
-24.2653
-24.2163
-24.3288
-24.5355
-24.796
-25.1087
-25.4836
-25.9031
-26.3234
-26.6625
-26.8171
-26.7421
-26.4605
-26.051
-25.5921
-25.1051
-24.5431
-23.8067
-22.7765
-21.3705
-19.5681
-17.3921
-14.9035
-12.1861
-9.34887
-6.48863
-3.67308
-0.932848
1.71209
4.23743
6.59141
8.71715
10.5912
12.2196
13.6209
14.8095
15.793
16.5781
17.1745
17.595
17.8537
17.9657
17.9463
17.8091
17.5665
17.2302
16.8126
16.3268
15.7862
15.2045
14.5953
13.9727
13.3506
12.7433
12.1652
11.6289
11.1473
10.7317
10.3916
10.1343
9.96498
9.88649
9.89884
9.999
10.181
10.4361
10.7532
11.1185
11.5185
11.9397
12.3694
12.7959
13.2085
13.5994
13.9635
14.2971
14.5958
14.8556
15.0759
15.2585
15.4084
15.5328
15.6399
15.7385
15.8376
15.9435
16.0588
16.1837
16.3157
16.4479
16.57
16.674
16.7568
16.8189
16.8612
16.8826
16.8808
16.8505
-12.8553
-13.1065
-13.5973
-14.3134
-15.2227
-16.2884
-17.4752
-18.7601
-20.1358
-21.593
-23.1187
-24.6926
-26.2899
-27.8833
-29.4501
-30.9729
-32.4359
-33.8266
-35.1407
-36.3819
-37.5549
-38.6607
-39.6975
-40.6602
-41.543
-42.3418
-43.0551
-43.6842
-44.2323
-44.7062
-45.1172
-45.4829
-45.833
-46.2002
-46.6071
-47.0605
-47.5599
-48.0916
-48.6245
-49.1154
-49.521
-49.8037
-49.9369
-49.9061
-49.711
-49.3659
-48.9104
-48.3565
-47.7376
-47.1162
-46.4966
-45.8366
-45.1219
-44.3931
-43.731
-43.2118
-42.8568
-42.6507
-42.577
-42.6154
-42.722
-42.8574
-42.9868
-43.069
-43.0617
-42.9239
-42.621
-42.1277
-41.4253
-40.5081
-39.3845
-38.0735
-36.6102
-35.0515
-33.4622
-31.9037
-30.4272
-29.0873
-27.9315
-26.9893
-26.2747
-25.7915
-25.5356
-25.4812
-25.5745
-25.7579
-26.0003
-26.3047
-26.6765
-27.097
-27.5122
-27.8256
-27.9283
-27.7792
-27.41
-26.9172
-26.3905
-25.8542
-25.2541
-24.4821
-23.4141
-21.9681
-20.1263
-17.9219
-15.4277
-12.7292
-9.92933
-7.11253
-4.33529
-1.62837
0.984197
3.46966
5.778
7.86209
9.70464
11.312
12.6986
13.8752
14.8488
15.6276
16.2232
16.6489
16.9185
17.0456
17.0426
16.9208
16.691
16.3643
15.9531
15.4703
14.9291
14.3432
13.727
13.0959
12.4658
11.852
11.2691
10.7317
10.2527
9.84365
9.51439
9.27256
9.12378
9.07128
9.11533
9.25314
9.4789
9.78323
10.1541
10.5772
11.0378
11.5212
12.0132
12.5009
12.9735
13.4214
13.8379
14.2173
14.5538
14.8429
15.0852
15.2843
15.4464
15.5793
15.6919
15.7936
15.8933
15.9972
16.1079
16.2257
16.3481
16.4689
16.5792
16.6723
16.7456
16.7992
16.8333
16.8468
16.8375
16.8008
-13.0135
-13.2876
-13.8444
-14.6699
-15.7289
-16.9718
-18.3477
-19.8166
-21.355
-22.95
-24.5888
-26.2542
-27.9242
-29.5764
-31.1941
-32.7662
-34.2824
-35.7359
-37.1283
-38.4653
-39.7489
-40.9742
-42.1324
-43.2099
-44.1947
-45.0794
-45.8645
-46.5573
-47.1691
-47.7138
-48.2063
-48.663
-49.1045
-49.5496
-50.0092
-50.4887
-50.9903
-51.5028
-51.9972
-52.432
-52.7636
-52.9555
-52.9804
-52.8244
-52.4968
-51.9953
-51.329
-50.537
-49.689
-48.8565
-48.0681
-47.2933
-46.5172
-45.7582
-45.0736
-44.5268
-44.1551
-43.9412
-43.8534
-43.878
-43.9786
-44.1118
-44.2334
-44.295
-44.2475
-44.0514
-43.6794
-43.1141
-42.3443
-41.3714
-40.2161
-38.8971
-37.4479
-35.9231
-34.385
-32.8887
-31.4796
-30.2182
-29.1454
-28.2772
-27.6161
-27.1588
-26.8969
-26.812
-26.8666
-27.0171
-27.2346
-27.5133
-27.8532
-28.2299
-28.5814
-28.8088
-28.8129
-28.5604
-28.0949
-27.5198
-26.9212
-26.3161
-25.6462
-24.8039
-23.673
-22.1822
-20.3196
-18.1202
-15.6611
-13.0253
-10.301
-7.55853
-4.8453
-2.19374
0.364164
2.78755
5.02898
7.05308
8.84922
10.4229
11.7838
12.9393
13.8965
14.665
15.257
15.6857
15.9631
16.1001
16.1066
15.9921
15.7666
15.4409
15.027
14.5375
13.9857
13.3865
12.7561
12.112
11.4712
10.85
10.264
9.72776
9.25374
8.85331
8.53675
8.31243
8.18659
8.16299
8.24222
8.42122
8.69468
9.05352
9.48414
9.97165
10.4997
11.0518
11.6117
12.1653
12.7008
13.2091
13.6827
14.1145
14.4958
14.8206
15.0898
15.3095
15.4871
15.6314
15.7517
15.8577
15.9584
16.06
16.1655
16.275
16.3864
16.4946
16.5924
16.6744
16.7383
16.7835
16.8098
16.8159
16.7996
16.7571
-13.2398
-13.5635
-14.2287
-15.2146
-16.4721
-17.9271
-19.5047
-21.1482
-22.821
-24.5048
-26.188
-27.8629
-29.5194
-31.1485
-32.7467
-34.3137
-35.8425
-37.3182
-38.7321
-40.0852
-41.3797
-42.6149
-43.7868
-44.8849
-45.8979
-46.8182
-47.6444
-48.3817
-49.0398
-49.6306
-50.1679
-50.6672
-51.145
-51.6143
-52.0848
-52.5635
-53.0504
-53.5321
-53.9792
-54.3518
-54.6093
-54.7177
-54.6533
-54.3994
-53.971
-53.3643
-52.5669
-51.6173
-50.6194
-49.6452
-48.7512
-47.928
-47.1596
-46.4523
-45.8343
-45.3437
-45.0218
-44.8478
-44.7803
-44.7996
-44.8841
-44.9997
-45.0976
-45.1255
-45.031
-44.7763
-44.3405
-43.7113
-42.8826
-41.8668
-40.7006
-39.4075
-38.0111
-36.5575
-35.1084
-33.7175
-32.4196
-31.2647
-30.2967
-29.531
-28.9473
-28.5226
-28.2453
-28.1119
-28.1161
-28.227
-28.4081
-28.6418
-28.9195
-29.2105
-29.4511
-29.5523
-29.4337
-29.0758
-28.5277
-27.8832
-27.211
-26.5172
-25.7436
-24.7953
-23.581
-22.0485
-20.189
-18.0321
-15.6447
-13.1028
-10.4787
-7.82946
-5.19784
-2.6215
-0.141526
2.19643
4.35147
6.30029
8.03739
9.566
10.8908
12.0167
12.9512
13.7049
14.2896
14.7164
14.9951
15.1338
15.1405
15.0235
14.7924
14.4574
14.0298
13.5226
12.9506
12.3313
11.6833
11.0252
10.3748
9.7492
9.16354
8.63115
8.1649
7.77535
7.47354
7.26865
7.16771
7.17455
7.29062
7.51424
7.83873
8.25431
8.74828
9.30449
9.90546
10.5327
11.1677
11.7936
12.397
12.9685
13.5014
13.9882
14.4186
14.7839
15.0847
15.3284
15.5242
15.682
15.8119
15.9237
16.0262
16.1259
16.2259
16.3268
16.4271
16.5228
16.6085
16.6799
16.7348
16.7719
16.7907
16.7896
16.7668
16.719
-13.2961
-13.6782
-14.4602
-15.6023
-17.0395
-18.6742
-20.4135
-22.1829
-23.9406
-25.6702
-27.3723
-29.0536
-30.7098
-32.3265
-33.8944
-35.4137
-36.887
-38.3004
-39.6415
-40.9095
-42.1101
-43.2526
-44.3457
-45.3851
-46.36
-47.2573
-48.0686
-48.7924
-49.437
-50.0157
-50.546
-51.0451
-51.5266
-51.9994
-52.4721
-52.9493
-53.4239
-53.8795
-54.288
-54.6139
-54.8208
-54.8758
-54.7612
-54.4652
-53.9947
-53.3592
-52.5406
-51.5628
-50.5241
-49.5175
-48.6108
-47.8112
-47.1052
-46.4906
-45.9828
-45.6047
-45.3759
-45.2827
-45.2797
-45.3236
-45.3934
-45.4723
-45.525
-45.5008
-45.3517
-45.0444
-44.5624
-43.8969
-43.0466
-42.0256
-40.8837
-39.6431
-38.3192
-36.953
-35.6088
-34.3413
-33.1784
-32.1626
-31.3221
-30.6601
-30.1512
-29.7629
-29.4751
-29.2924
-29.2378
-29.2959
-29.4223
-29.583
-29.7661
-29.9387
-30.0408
-30
-29.7602
-29.3142
-28.7061
-28.0067
-27.2628
-26.4712
-25.5808
-24.5208
-23.2264
-21.6611
-19.8199
-17.7251
-15.429
-12.9938
-10.4775
-7.92897
-5.39208
-2.91166
-0.534814
1.69506
3.74798
5.61038
7.27853
8.75184
10.0308
11.1193
12.0251
12.7587
13.3301
13.7477
14.0188
14.1494
14.146
14.0161
13.7682
13.412
12.9593
12.4247
11.8264
11.1847
10.5206
9.85237
9.19806
8.57407
7.99345
7.4691
7.01351
6.63778
6.35333
6.1696
6.09407
6.13303
6.28746
6.55474
6.93042
7.40365
7.96152
8.5878
9.26389
9.96926
10.6841
11.3887
12.0667
12.7067
13.3016
13.8445
14.3249
14.733
15.0681
15.3384
15.5543
15.7271
15.8677
15.9863
16.0916
16.1899
16.2849
16.3779
16.4679
16.5523
16.6271
16.6887
16.7349
16.7643
16.7758
16.768
16.7391
16.6863
-12.7707
-13.2228
-14.1099
-15.3816
-16.9701
-18.7601
-20.6493
-22.5528
-24.4241
-26.2463
-28.019
-29.743
-31.4041
-32.9705
-34.4229
-35.7693
-37.0392
-38.248
-39.3982
-40.4906
-41.5279
-42.52
-43.4772
-44.3971
-45.2692
-46.0793
-46.8181
-47.4835
-48.084
-48.6373
-49.16
-49.6646
-50.1581
-50.6461
-51.1363
-51.6276
-52.1066
-52.5567
-52.9531
-53.2657
-53.4625
-53.5122
-53.3971
-53.1144
-52.6681
-52.0761
-51.3286
-50.4436
-49.482
-48.55
-47.7183
-47.0245
-46.4401
-45.9513
-45.5672
-45.3088
-45.1852
-45.1777
-45.2447
-45.338
-45.4241
-45.484
-45.4931
-45.417
-45.2183
-44.8737
-44.3729
-43.711
-42.8851
-41.9045
-40.8111
-39.6356
-38.3922
-37.1208
-35.8968
-34.7688
-33.7511
-32.878
-32.1633
-31.6037
-31.1687
-30.819
-30.532
-30.3096
-30.1899
-30.1772
-30.2205
-30.2759
-30.3308
-30.3568
-30.3036
-30.1188
-29.7693
-29.2521
-28.5999
-27.857
-27.0477
-26.1642
-25.1696
-24.0155
-22.6591
-21.076
-19.2616
-17.235
-15.034
-12.7057
-10.2982
-7.85904
-5.43661
-3.08007
-0.834191
1.26794
3.20764
4.97575
6.56623
7.97402
9.19739
10.2403
11.1108
11.8176
12.3679
12.7676
13.0213
13.1335
13.1094
12.9551
12.6782
12.2889
11.8014
11.2344
10.6097
9.94994
9.2759
8.6061
7.95723
7.34257
6.77488
6.26573
5.82646
5.46901
5.20511
5.04439
4.99691
5.06671
5.25724
5.5666
5.99027
6.51929
7.13889
7.83293
8.58271
9.367
10.1641
10.9514
11.71
12.4254
13.088
13.6899
14.2214
14.6727
15.0427
15.3403
15.5771
15.7654
15.9172
16.043
16.1516
16.2493
16.3404
16.4267
16.5081
16.5828
16.6478
16.7004
16.7384
16.7603
16.7649
16.7508
16.7161
16.6586
-11.3405
-11.8968
-12.8998
-14.3024
-16.0372
-17.9897