/*--------------------------------*- C++ -*----------------------------------*\
  =========                 |
  \\      /  F ield         | OpenFOAM: The Open Source CFD Toolbox
   \\    /   O peration     | Website:  https://openfoam.org
    \\  /    A nd           | Version:  9
     \\/     M anipulation  |
\*---------------------------------------------------------------------------*/
FoamFile
{
    format      ascii;
    class       volVectorField;
    location    "0.061";
    object      U_0;
}
// * * * * * * * * * * * * * * * * * * * * * * * * * * * * * * * * * * * * * //

dimensions      [0 1 -1 0 0 0 0];

internalField   nonuniform List<vector> 
12225
(
(9.77884 0.0958406 0)
(9.39485 0.0659855 0)
(9.09954 0.035117 0)
(8.76933 0.0529042 0)
(8.44037 0.0707751 0)
(8.16176 0.0728251 0)
(7.92796 0.0702633 0)
(7.70123 0.0707381 0)
(7.44869 0.0718072 0)
(7.17896 0.070442 0)
(6.89116 0.0673426 0)
(6.60109 0.0669404 0)
(6.28437 0.0695874 0)
(5.96815 0.0784687 0)
(5.60128 0.0881184 0)
(5.24235 0.100303 0)
(4.79158 0.130618 0)
(4.41572 0.127067 0)
(10.1569 0.0747485 0)
(10.1387 0.0791642 0)
(10.0034 0.0987398 0)
(9.94929 0.100644 0)
(9.98911 0.0764663 0)
(10.0377 0.0506892 0)
(10.0398 0.042605 0)
(9.99656 0.0517258 0)
(9.93156 0.0687852 0)
(9.8714 0.0868184 0)
(9.81301 0.103205 0)
(9.74968 0.119526 0)
(9.65575 0.136175 0)
(9.53144 0.151272 0)
(9.37243 0.171878 0)
(9.20641 0.193891 0)
(9.00062 0.222404 0)
(8.85712 0.2919 0)
(10.0722 0.0656933 0)
(10.0596 0.105664 0)
(10.0826 0.0740798 0)
(10.1898 0.0486192 0)
(10.272 0.0453808 0)
(10.2639 0.0631967 0)
(10.185 0.0905732 0)
(10.0862 0.111952 0)
(10.0051 0.119043 0)
(9.95725 0.116123 0)
(9.93975 0.113774 0)
(9.94207 0.123032 0)
(9.94973 0.146963 0)
(9.94447 0.179429 0)
(9.91855 0.213056 0)
(9.87372 0.246246 0)
(9.81537 0.282972 0)
(9.76363 0.33423 0)
(9.77984 -0.00969345 0)
(9.76702 0.0869647 0)
(9.83868 0.0786644 0)
(9.88506 0.0636896 0)
(9.8937 0.0613349 0)
(9.90212 0.0692017 0)
(9.92549 0.0842553 0)
(9.95101 0.097345 0)
(9.96452 0.103426 0)
(9.96344 0.104381 0)
(9.955 0.105576 0)
(9.94869 0.114436 0)
(9.94964 0.135577 0)
(9.95419 0.166101 0)
(9.95145 0.203666 0)
(9.93765 0.246835 0)
(9.90658 0.291429 0)
(9.86863 0.341371 0)
(9.75543 0.0674973 0)
(9.94928 0.0482119 0)
(10.1168 0.0163206 0)
(10.257 0.0252531 0)
(10.328 0.0415867 0)
(10.3184 0.059409 0)
(10.2573 0.0832116 0)
(10.1767 0.105843 0)
(10.1013 0.118799 0)
(10.0475 0.12135 0)
(10.0203 0.120644 0)
(10.016 0.12778 0)
(10.0231 0.150071 0)
(10.0288 0.186331 0)
(10.0189 0.23149 0)
(9.99011 0.280043 0)
(9.94297 0.327799 0)
(9.88452 0.37236 0)
(10.1228 -0.021218 0)
(10.1494 0.0109324 0)
(10.1447 0.010747 0)
(10.2106 0.018447 0)
(10.2406 0.0438153 0)
(10.2017 0.0848811 0)
(10.125 0.124219 0)
(10.0432 0.147775 0)
(9.97301 0.150817 0)
(9.92082 0.137557 0)
(9.8893 0.119448 0)
(9.87932 0.111487 0)
(9.88737 0.124775 0)
(9.90438 0.160113 0)
(9.91985 0.212284 0)
(9.92566 0.273045 0)
(9.91904 0.334859 0)
(9.89953 0.390448 0)
(9.86383 -0.0033385 0)
(9.90631 0.00252414 0)
(9.88471 -0.0203834 0)
(9.89443 -0.0110192 0)
(9.92616 0.0440473 0)
(9.9589 0.101505 0)
(9.98542 0.14176 0)
(10.0075 0.162631 0)
(10.0255 0.164971 0)
(10.0317 0.15273 0)
(10.0169 0.136448 0)
(9.97813 0.130384 0)
(9.92262 0.145062 0)
(9.86207 0.181442 0)
(9.80803 0.233703 0)
(9.76795 0.293392 0)
(9.74218 0.351511 0)
(9.73154 0.403849 0)
(10.0319 -0.0647626 0)
(10.0889 0.0181421 0)
(10.0697 0.026959 0)
(10.0131 0.0168288 0)
(9.99767 0.0325264 0)
(10.0214 0.0693318 0)
(10.0485 0.107856 0)
(10.0634 0.133762 0)
(10.067 0.144574 0)
(10.0594 0.146255 0)
(10.0405 0.148199 0)
(10.014 0.1586 0)
(9.98459 0.181447 0)
(9.95707 0.215323 0)
(9.93267 0.256406 0)
(9.91319 0.301285 0)
(9.89553 0.346565 0)
(9.87559 0.391317 0)
(9.89887 -0.0280937 0)
(9.98043 -0.0356492 0)
(10.0516 -0.0105022 0)
(10.0347 0.00573053 0)
(9.99395 0.0266666 0)
(9.99594 0.0658949 0)
(10.0431 0.111859 0)
(10.1063 0.147177 0)
(10.1599 0.162556 0)
(10.1884 0.160451 0)
(10.187 0.152672 0)
(10.1602 0.15375 0)
(10.1159 0.172566 0)
(10.0637 0.210443 0)
(10.0094 0.262245 0)
(9.95646 0.321487 0)
(9.90398 0.382904 0)
(9.85086 0.439111 0)
(9.93267 0.00289345 0)
(9.98579 -0.0214467 0)
(9.95783 0.0189905 0)
(9.94732 0.0595652 0)
(9.96252 0.0697139 0)
(10.0006 0.0672732 0)
(10.0532 0.0716821 0)
(10.1036 0.0877348 0)
(10.1291 0.111118 0)
(10.1095 0.138548 0)
(10.0453 0.169541 0)
(9.95933 0.204013 0)
(9.8816 0.240785 0)
(9.83096 0.278808 0)
(9.81689 0.31919 0)
(9.82906 0.36236 0)
(9.86159 0.409234 0)
(9.89079 0.458374 0)
(9.77149 -0.0393636 0)
(9.86163 -0.0229527 0)
(9.88435 -0.014049 0)
(9.95763 -0.0173592 0)
(10.0435 -0.0169904 0)
(10.1054 0.0027653 0)
(10.1373 0.0439814 0)
(10.14 0.0975838 0)
(10.1173 0.153556 0)
(10.078 0.201258 0)
(10.0343 0.233037 0)
(9.99531 0.247535 0)
(9.96359 0.25117 0)
(9.93857 0.253642 0)
(9.92015 0.266578 0)
(9.91243 0.295225 0)
(9.91268 0.341572 0)
(9.92488 0.403984 0)
(10.215 -0.0393044 0)
(10.1741 -0.0779941 0)
(10.0427 -0.0305851 0)
(9.95447 0.00214548 0)
(9.93697 0.0137943 0)
(9.96482 0.0350366 0)
(9.99474 0.0700714 0)
(10.0039 0.114525 0)
(9.9987 0.159086 0)
(9.99436 0.196465 0)
(9.99995 0.226202 0)
(10.0139 0.251937 0)
(10.0228 0.276962 0)
(10.0166 0.302594 0)
(9.98733 0.328872 0)
(9.94676 0.35744 0)
(9.89734 0.390261 0)
(9.86041 0.431864 0)
(10.0828 -0.0378889 0)
(9.98801 0.0545026 0)
(9.88783 0.0829219 0)
(9.81781 0.0324648 0)
(9.809 -0.0242712 0)
(9.83205 -0.0377116 0)
(9.86073 0.00253736 0)
(9.87632 0.0730709 0)
(9.86886 0.138796 0)
(9.84933 0.182346 0)
(9.83982 0.205896 0)
(9.85441 0.222402 0)
(9.89079 0.243716 0)
(9.93498 0.276432 0)
(9.96936 0.31991 0)
(9.98084 0.36963 0)
(9.96513 0.421984 0)
(9.92402 0.473318 0)
(9.90463 -0.0107946 0)
(9.95293 -0.0433341 0)
(10.0782 0.0129457 0)
(10.1537 0.0393145 0)
(10.1378 0.0223879 0)
(10.0773 0.0238719 0)
(10.0354 0.0717457 0)
(10.0256 0.145662 0)
(10.031 0.210772 0)
(10.031 0.244866 0)
(10.015 0.247747 0)
(9.98444 0.235757 0)
(9.95015 0.229524 0)
(9.92154 0.244293 0)
(9.90776 0.285183 0)
(9.90581 0.346968 0)
(9.91557 0.420209 0)
(9.92818 0.493156 0)
(10.0192 0.0394965 0)
(9.99675 -0.0420856 0)
(9.94995 -0.0268332 0)
(9.92841 0.0226029 0)
(9.93109 0.0314487 0)
(9.93858 0.0130789 0)
(9.94593 0.00638463 0)
(9.96501 0.0324448 0)
(9.99926 0.0862795 0)
(10.0432 0.150661 0)
(10.0871 0.211177 0)
(10.1182 0.260243 0)
(10.1272 0.297184 0)
(10.1143 0.325454 0)
(10.0878 0.350846 0)
(10.0594 0.37911 0)
(10.0365 0.411947 0)
(10.0241 0.452565 0)
(10.25 -0.233285 0)
(10.2776 -0.0500564 0)
(10.2414 0.0614267 0)
(10.2526 0.034401 0)
(10.2739 0.000960677 0)
(10.2818 0.0151341 0)
(10.2626 0.0757789 0)
(10.2096 0.147401 0)
(10.1415 0.193706 0)
(10.0838 0.207068 0)
(10.0487 0.204259 0)
(10.0351 0.207623 0)
(10.0359 0.230259 0)
(10.0444 0.274071 0)
(10.0542 0.332068 0)
(10.0627 0.394666 0)
(10.0684 0.454888 0)
(10.0735 0.507806 0)
(10.0365 0.0358849 0)
(10.0213 -0.00936437 0)
(10.0051 0.0200875 0)
(10.0035 0.0287238 0)
(10.0111 0.0204806 0)
(10.0137 0.0267025 0)
(10.0215 0.0631553 0)
(10.0322 0.121082 0)
(10.0368 0.177595 0)
(10.0368 0.219216 0)
(10.0359 0.246467 0)
(10.0351 0.266266 0)
(10.0348 0.285114 0)
(10.037 0.306959 0)
(10.0424 0.333377 0)
(10.0518 0.364781 0)
(10.064 0.399544 0)
(10.0805 0.437975 0)
(10.0225 0.126171 0)
(10.0213 0.105985 0)
(9.94065 0.0618081 0)
(9.89848 -0.00251675 0)
(9.90228 -0.0478746 0)
(9.91724 -0.0204665 0)
(9.93838 0.0703935 0)
(9.96102 0.167841 0)
(9.98222 0.227367 0)
(10.0009 0.24246 0)
(10.0125 0.232603 0)
(10.0137 0.22303 0)
(10.008 0.230611 0)
(10.0014 0.259019 0)
(9.99916 0.301756 0)
(10.0044 0.350124 0)
(10.0179 0.395644 0)
(10.0423 0.436104 0)
(10.1136 0.209864 0)
(10.1225 0.233288 0)
(10.1358 0.184925 0)
(10.1045 0.121266 0)
(10.0065 0.0382417 0)
(9.91754 -0.0153952 0)
(9.88096 -0.02187 0)
(9.88526 0.00693177 0)
(9.91565 0.0584603 0)
(9.96406 0.12345 0)
(10.0183 0.192929 0)
(10.0652 0.256306 0)
(10.0982 0.303348 0)
(10.1172 0.329439 0)
(10.1261 0.3346 0)
(10.1312 0.327798 0)
(10.1385 0.314387 0)
(10.1534 0.306135 0)
(9.73758 -0.022749 0)
(9.81451 -0.0360218 0)
(9.91051 0.0775351 0)
(10.0816 0.178569 0)
(10.1788 0.184954 0)
(10.1674 0.154139 0)
(10.1033 0.13048 0)
(10.0362 0.114749 0)
(9.98627 0.0940801 0)
(9.95943 0.0711029 0)
(9.95673 0.0635091 0)
(9.97708 0.0870133 0)
(10.0163 0.140806 0)
(10.0697 0.210072 0)
(10.1304 0.273162 0)
(10.1917 0.315445 0)
(10.2488 0.32963 0)
(10.2954 0.317247 0)
(10.2002 -0.0267265 0)
(10.0105 -0.0628878 0)
(9.99847 -0.12691 0)
(10.0712 -0.100514 0)
(10.1622 0.00892013 0)
(10.2346 0.115921 0)
(10.2916 0.171401 0)
(10.3443 0.175895 0)
(10.3834 0.15514 0)
(10.3966 0.133044 0)
(10.3829 0.11919 0)
(10.3544 0.112687 0)
(10.3276 0.109771 0)
(10.3146 0.107434 0)
(10.3189 0.107697 0)
(10.336 0.11303 0)
(10.3587 0.127774 0)
(10.377 0.15484 0)
(9.9495 0.104374 0)
(9.9722 0.143311 0)
(9.92154 -0.00174163 0)
(9.90935 -0.0536307 0)
(9.94282 -0.0287675 0)
(9.99269 0.0045561 0)
(10.0306 0.02449 0)
(10.0288 0.0397254 0)
(9.98845 0.0640432 0)
(9.93597 0.100415 0)
(9.90158 0.140924 0)
(9.90127 0.175582 0)
(9.9347 0.198637 0)
(9.98967 0.210624 0)
(10.052 0.216162 0)
(10.1108 0.220653 0)
(10.1612 0.227912 0)
(10.2047 0.239986 0)
(9.85408 -0.0815724 0)
(9.94449 -0.0444988 0)
(9.98144 -0.0595091 0)
(9.97285 -0.0616428 0)
(9.9352 -0.0391458 0)
(9.92299 0.0163439 0)
(9.9533 0.100138 0)
(10.0027 0.179222 0)
(10.0409 0.217988 0)
(10.0592 0.202985 0)
(10.0665 0.145818 0)
(10.0742 0.0723832 0)
(10.0894 0.00845511 0)
(10.1138 -0.0293604 0)
(10.1486 -0.0367453 0)
(10.1931 -0.0192956 0)
(10.2469 0.0131016 0)
(10.3074 0.050976 0)
(9.86727 0.0828025 0)
(9.95608 -0.00510589 0)
(10.0286 -0.048309 0)
(10.0584 -0.0324234 0)
(10.0325 -0.0091014 0)
(9.99812 -0.0132109 0)
(9.99896 -0.0153141 0)
(10.0446 0.0101967 0)
(10.126 0.0573957 0)
(10.2217 0.104802 0)
(10.3069 0.135939 0)
(10.3664 0.144949 0)
(10.3987 0.134957 0)
(10.4132 0.113647 0)
(10.4205 0.0888478 0)
(10.4288 0.066783 0)
(10.4411 0.0503271 0)
(10.4583 0.0420264 0)
(9.79963 -0.0157559 0)
(9.886 -0.142323 0)
(9.9237 -0.107271 0)
(9.94057 -0.0448056 0)
(9.94997 -0.000418785 0)
(9.98146 0.0296777 0)
(10.0448 0.0423174 0)
(10.1288 0.0428344 0)
(10.2172 0.0375437 0)
(10.2942 0.0290953 0)
(10.3459 0.0161817 0)
(10.3665 -0.000964067 0)
(10.3609 -0.0183747 0)
(10.3401 -0.0313405 0)
(10.3154 -0.0353764 0)
(10.2965 -0.0285345 0)
(10.2873 -0.0110187 0)
(10.2896 0.0140817 0)
(10.1628 -0.0619739 0)
(10.0741 -0.124008 0)
(9.97158 -0.0849957 0)
(9.96098 -0.0405932 0)
(9.98956 -0.0321893 0)
(10.0138 -0.0568694 0)
(10.0324 -0.0851607 0)
(10.0587 -0.0857819 0)
(10.1041 -0.0497363 0)
(10.1631 0.0100647 0)
(10.217 0.0706553 0)
(10.2538 0.114508 0)
(10.2736 0.134321 0)
(10.2837 0.129867 0)
(10.2934 0.107516 0)
(10.3073 0.0773279 0)
(10.3268 0.0464273 0)
(10.3496 0.0232807 0)
(10.1673 -0.167511 0)
(10.128 -0.0500818 0)
(10.0728 -0.0411292 0)
(10.0646 -0.0593402 0)
(10.0763 -0.0476386 0)
(10.0614 -0.0210385 0)
(10.0121 -0.0146908 0)
(9.95922 -0.0304557 0)
(9.93551 -0.0468303 0)
(9.94883 -0.0493366 0)
(9.98455 -0.0387637 0)
(10.0255 -0.0243536 0)
(10.0641 -0.017051 0)
(10.1026 -0.0208064 0)
(10.147 -0.0304421 0)
(10.1978 -0.0380099 0)
(10.2529 -0.0362407 0)
(10.3044 -0.0218548 0)
(9.9816 -0.145119 0)
(9.99984 -0.088467 0)
(10.0633 -0.0441161 0)
(10.0218 -0.033462 0)
(9.97113 -0.0211239 0)
(9.98734 -0.00690942 0)
(10.0404 -0.0099818 0)
(10.0681 -0.0269564 0)
(10.0499 -0.0346058 0)
(10.0108 -0.0178712 0)
(9.9874 0.0177418 0)
(9.99859 0.0522729 0)
(10.0421 0.0664337 0)
(10.1047 0.0542678 0)
(10.1709 0.0218701 0)
(10.2304 -0.0163591 0)
(10.2795 -0.0466313 0)
(10.32 -0.0576611 0)
(10.0287 -0.0344915 0)
(9.92429 -0.0885804 0)
(9.86416 -0.0445511 0)
(9.8619 -0.0310141 0)
(9.92585 -0.0476912 0)
(10.0168 -0.0599562 0)
(10.0909 -0.0573377 0)
(10.13 -0.0432569 0)
(10.1481 -0.0279583 0)
(10.1725 -0.0220668 0)
(10.2206 -0.0287647 0)
(10.2895 -0.0452629 0)
(10.3612 -0.0649604 0)
(10.4138 -0.0818137 0)
(10.4305 -0.0911262 0)
(10.4131 -0.0912924 0)
(10.3703 -0.0832115 0)
(10.3234 -0.0685195 0)
(9.93278 -0.0679985 0)
(9.68262 -0.0406747 0)
(9.5927 -0.0214541 0)
(9.47146 -0.043884 0)
(9.28798 -0.0631407 0)
(9.08632 -0.058793 0)
(8.90853 -0.0488915 0)
(8.76592 -0.0458619 0)
(8.65128 -0.0464696 0)
(8.55463 -0.0433322 0)
(8.46892 -0.0330313 0)
(8.38899 -0.0180618 0)
(8.3103 -0.0041965 0)
(8.23038 0.00280994 0)
(8.1459 0.00226833 0)
(8.06004 -0.00379856 0)
(7.97205 -0.0126631 0)
(7.8926 -0.0204982 0)
(-0.150542 0.388081 6.22696e-20)
(-0.365952 0.194733 -6.18405e-20)
(-0.13558 -0.321609 0)
(0.28761 -0.50223 0)
(0.83079 -0.575892 0)
(1.35811 -0.550326 5.97401e-20)
(1.84335 -0.454826 0)
(2.2341 -0.347485 0)
(2.53065 -0.211565 0)
(2.69322 -0.00520307 0)
(2.70851 0.0632076 -5.68626e-20)
(2.65837 0.179556 0)
(2.38281 0.625156 0)
(1.87407 0.660122 0)
(1.46084 0.0679971 0)
(1.27083 -0.22035 -5.46962e-20)
(1.14635 -0.0599976 0)
(1.13184 -0.00989172 0)
(1.22089 -0.108941 0)
(1.42242 -0.283638 0)
(1.68273 -0.424111 0)
(2.01099 -0.345952 0)
(2.236 -0.194719 0)
(2.19898 -0.26567 -5.06672e-20)
(2.14028 -0.364644 5.01939e-20)
(2.07841 -0.120201 -4.9732e-20)
(1.86641 0.220523 -4.92963e-20)
(1.55316 0.284875 0)
(1.27682 0.196858 0)
(0.985704 0.189135 4.81073e-20)
(0.611141 0.257592 4.77467e-20)
(0.149205 0.343744 0)
(-0.39453 0.444901 0)
(-1.02085 0.53912 4.63931e-20)
(-1.70219 0.585789 0)
(-2.3929 0.566599 0)
(-3.04755 0.495548 -4.46276e-20)
(-3.6415 0.412798 0)
(-4.17388 0.349818 -4.33586e-20)
(-4.65042 0.310072 -8.54483e-20)
(-5.0743 0.276803 0)
(-5.44147 0.234678 0)
(-5.7468 0.180544 0)
(-5.98737 0.119961 0)
(-6.1638 0.0599691 0)
(-6.27922 0.00527392 -7.86951e-20)
(-6.3356 -0.0409234 -7.78004e-20)
(-6.33226 -0.0782076 -7.69792e-20)
(-6.2731 -0.109768 0)
(-6.1592 -0.136647 7.55607e-20)
(-5.99269 -0.159405 0)
(-5.77802 -0.177827 -7.44194e-20)
(-5.52051 -0.190171 -7.3934e-20)
(-5.22958 -0.194605 0)
(-4.9156 -0.188928 0)
(-4.59267 -0.171143 0)
(-4.27632 -0.14002 -7.23698e-20)
(-3.98378 -0.0953757 0)
(-3.73036 -0.038736 0)
(-3.5287 0.0263777 0)
(-3.38876 0.0935541 0)
(-3.31477 0.149616 0)
(-3.29942 0.16908 0)
(-3.31504 0.121358 0)
(-3.31954 -0.00186413 0)
(-3.26067 -0.15259 7.00053e-20)
(-3.1071 -0.266447 0)
(-2.8714 -0.341136 0)
(-2.56451 -0.411757 -6.9225e-20)
(-2.13318 -0.475814 -6.8922e-20)
(-1.56262 -0.52223 0)
(-0.917684 -0.561272 6.81612e-20)
(-0.132174 -0.639059 -6.76038e-20)
(0.774516 -0.683641 0)
(1.72072 -0.677065 6.57347e-20)
(2.64096 -0.59801 0)
(3.44144 -0.456277 0)
(4.0132 -0.270626 -6.20023e-20)
(4.2863 -0.0408776 0)
(4.15498 0.18463 6.04733e-20)
(3.69649 0.384298 0)
(2.81212 0.632972 -6.03502e-20)
(1.57681 0.768004 -6.04772e-20)
(0.0337495 0.703456 -6.0315e-20)
(-0.672161 -0.0475104 -1.19661e-19)
(-0.538078 -0.721255 1.18408e-19)
(-0.164341 -1.30139 0)
(-0.426615 -0.557728 0)
(-2.75834 1.74735 0)
(-5.7346 1.26528 1.10134e-19)
(-7.28285 1.02861 1.06257e-19)
(-9.04019 0.830249 -1.02283e-19)
(-10.1358 0.608201 0)
(-11.1543 0.479108 9.49261e-20)
(-11.8409 0.332585 9.18692e-20)
(-12.3788 0.237826 8.93222e-20)
(-12.7102 0.137129 0)
(-12.8895 0.0637602 0)
(-12.9168 -0.00609657 0)
(-12.8187 -0.0589446 8.40832e-20)
(-12.6197 -0.106382 0)
(-12.3227 -0.144009 0)
(-11.9513 -0.175552 -8.40768e-20)
(-11.5122 -0.199639 0)
(-11.0246 -0.217739 0)
(-10.496 -0.230448 -8.54238e-20)
(-9.93952 -0.238675 0)
(-9.36107 -0.243619 0)
(-8.76866 -0.245873 8.66862e-20)
(-8.16643 -0.24628 8.6962e-20)
(-7.55965 -0.24505 0)
(-6.95206 -0.242443 -8.72277e-20)
(-6.34732 -0.238477 0)
(-5.74771 -0.233594 8.70818e-20)
(-5.1554 -0.228129 0)
(-4.57164 -0.222355 8.65268e-20)
(-3.99529 -0.217061 8.61086e-20)
(-3.42369 -0.213152 0)
(-2.8549 -0.210441 0)
(-2.28573 -0.208992 0)
(-1.71244 -0.208087 0)
(-1.13632 -0.204619 0)
(-0.564152 -0.19616 0)
(-0.0111018 -0.184983 0)
(0.504873 -0.170993 8.0273e-20)
(0.973759 -0.153988 -7.91639e-20)
(1.40043 -0.140263 0)
(1.79476 -0.132851 0)
(2.17422 -0.132621 0)
(2.5602 -0.138416 0)
(2.97166 -0.147743 -1.46559e-19)
(3.4195 -0.157508 0)
(3.90387 -0.164626 1.41788e-19)
(4.41446 -0.166751 -1.39319e-19)
(4.93405 -0.16311 0)
(5.44418 -0.154653 0)
(5.93033 -0.143345 0)
(6.38451 -0.131137 1.28531e-19)
(6.80472 -0.119338 1.2568e-19)
(7.19289 -0.108364 0)
(7.55124 -0.0976554 1.19979e-19)
(7.87982 -0.085866 1.17179e-19)
(8.17461 -0.0734078 -1.14441e-19)
(8.43259 -0.0611054 0)
(8.64632 -0.0437907 0)
(8.80099 -0.0193535 -1.06847e-19)
(8.89895 0.00243201 0)
(8.93452 0.0116475 0)
(8.89594 0.0369205 0)
(8.73238 0.126433 0)
(8.35842 0.190157 9.76003e-20)
(7.90004 0.129635 9.63332e-20)
(7.49585 0.199569 0)
(6.61872 0.552533 9.45025e-20)
(4.82056 0.714647 0)
(2.85567 0.424348 0)
(1.52393 0.0579743 8.83901e-20)
(0.871177 -0.140131 0)
(0.704146 -0.189853 8.60557e-20)
(0.806251 -0.171743 0)
(1.00069 -0.131603 0)
(1.2096 -0.0894201 8.4154e-20)
(1.39526 -0.0621269 0)
(1.53152 -0.0288396 8.23906e-20)
(1.53588 0.0489029 0)
(1.30958 0.130946 0)
(0.903587 0.134417 0)
(0.520972 0.0769185 -7.66825e-20)
(0.274669 0.0172299 0)
(0.147991 -0.0150501 7.33864e-20)
(0.102597 -0.0262393 0)
(0.135833 -0.0295961 0)
(0.242171 -0.0289474 0)
(0.408782 -0.0214059 0)
(0.585351 -0.00569671 0)
(0.727835 0.0129545 0)
(0.82327 0.0328204 0)
(0.801922 0.0265938 -1.2653e-19)
(0.868957 0.0527132 0)
(0.530065 -0.0251061 0)
(-0.113834 0.589887 -1.86742e-19)
(0.198629 -0.142057 1.85334e-19)
(0.748879 -1.09877 0)
(1.29489 -1.58803 -1.21016e-19)
(1.78847 -1.70991 0)
(2.21054 -1.59652 -5.95008e-20)
(2.55585 -1.33704 1.17388e-19)
(2.81676 -1.00274 1.16257e-19)
(2.99405 -0.660332 0)
(3.09216 -0.277731 1.14178e-19)
(3.12979 0.0750669 5.67863e-20)
(3.09814 0.379377 0)
(2.95927 0.760563 0)
(2.84413 1.03573 0)
(2.68794 1.11267 0)
(2.24281 0.849301 5.45094e-20)
(1.83766 0.304377 0)
(1.68596 -0.142 -1.07463e-19)
(1.72476 -0.432319 0)
(1.9179 -0.622886 0)
(1.9428 -0.819358 1.04319e-19)
(1.83674 -0.643234 0)
(1.76266 -0.0671377 -1.0234e-19)
(1.56552 0.381746 5.07164e-20)
(1.26894 0.542593 -5.02789e-20)
(0.982473 0.574409 4.98578e-20)
(0.752665 0.616859 4.94492e-20)
(0.454199 0.670107 0)
(0.0703761 0.793622 0)
(-0.413737 0.971512 -4.81874e-20)
(-0.945689 1.15646 4.74932e-20)
(-1.50671 1.32565 0)
(-2.05763 1.46284 0)
(-2.59193 1.54803 -4.61579e-20)
(-3.10173 1.5667 0)
(-3.58626 1.52023 0)
(-4.04829 1.42683 4.44708e-20)
(-4.49073 1.31016 0)
(-4.9091 1.18327 -4.29179e-20)
(-5.29503 1.04885 8.52522e-20)
(-5.64378 0.908789 0)
(-5.9561 0.768544 0)
(-6.23553 0.633437 1.62812e-19)
(-6.4836 0.505156 1.60622e-19)
(-6.69843 0.381418 1.58552e-19)
(-6.87321 0.258733 -7.80413e-20)
(-7.00068 0.135281 7.76844e-20)
(-7.0776 0.0110363 2.30075e-19)
(-7.09807 -0.112638 -1.51697e-19)
(-7.05817 -0.23296 -7.54064e-20)
(-6.96158 -0.347467 0)
(-6.80864 -0.451951 7.42334e-20)
(-6.60443 -0.541508 -7.32866e-20)
(-6.35188 -0.611758 0)
(-6.05821 -0.658144 0)
(-5.72978 -0.677184 0)
(-5.37605 -0.666554 7.21667e-20)
(-5.00591 -0.625752 0)
(-4.6277 -0.556705 -1.42911e-19)
(-4.24747 -0.464432 0)
(-3.87031 -0.357567 -1.42074e-19)
(-3.49991 -0.248885 0)
(-3.14035 -0.154995 1.41417e-19)
(-2.80562 -0.0931907 0)
(-2.51096 -0.0789391 -1.40722e-19)
(-2.26106 -0.116861 7.01929e-20)
(-2.0398 -0.199994 0)
(-1.82228 -0.329321 1.39313e-19)
(-1.57477 -0.502091 6.93124e-20)
(-1.26707 -0.721227 6.89822e-20)
(-0.848176 -0.962132 0)
(-0.370996 -1.17236 6.80338e-20)
(0.284981 -1.40412 6.75249e-20)
(1.00153 -1.55726 0)
(1.81483 -1.59925 -6.56188e-20)
(2.6732 -1.47733 1.28188e-19)
(3.50176 -1.17974 0)
(4.1493 -0.704478 6.19416e-20)
(4.50078 -0.0768573 0)
(4.44554 0.565007 -1.79838e-19)
(3.9766 1.12918 0)
(3.18989 1.61821 1.79619e-19)
(2.14657 1.98509 6.03084e-20)
(0.911632 1.7651 -5.99849e-20)
(0.0419948 0.81731 -1.19966e-19)
(-0.750834 0.0595553 1.18556e-19)
(-2.78455 1.41449 0)
(-5.61367 3.2001 0)
(-6.91545 3.34251 0)
(-8.58543 2.75607 -3.23908e-19)
(-9.31632 2.29896 -1.05702e-19)
(-10.3492 1.82988 1.01906e-19)
(-10.8793 1.4304 0)
(-11.5134 1.10529 9.24958e-20)
(-11.8695 0.806399 -9.17985e-20)
(-12.214 0.556732 -8.93036e-20)
(-12.3761 0.321845 0)
(-12.4744 0.119888 0)
(-12.4403 -0.0639703 0)
(-12.3217 -0.221844 -8.41273e-20)
(-12.0857 -0.359864 0)
(-11.773 -0.474612 1.67071e-19)
(-11.3774 -0.56857 2.51745e-19)
(-10.9255 -0.641532 -1.68501e-19)
(-10.4217 -0.695993 0)
(-9.8834 -0.734185 -8.51039e-20)
(-9.31661 -0.759258 0)
(-8.73132 -0.774091 -1.72409e-19)
(-8.13219 -0.781161 8.64519e-20)
(-7.52485 -0.78244 8.67422e-20)
(-6.91319 -0.779146 0)
(-6.30164 -0.771831 2.61505e-19)
(-5.69384 -0.760638 -1.74241e-19)
(-5.09226 -0.746431 -8.70919e-20)
(-4.49861 -0.730315 0)
(-3.9145 -0.712864 -8.65393e-20)
(-3.33874 -0.69636 -2.58195e-19)
(-2.76704 -0.68403 0)
(-2.19743 -0.675571 -1.69917e-19)
(-1.62406 -0.671374 -1.68645e-19)
(-1.04034 -0.670661 -1.67275e-19)
(-0.445085 -0.665164 0)
(0.153775 -0.646485 0)
(0.734949 -0.60992 0)
(1.28048 -0.559931 8.00392e-20)
(1.77376 -0.503593 7.90494e-20)
(2.21477 -0.454482 0)
(2.61451 -0.423795 1.53364e-19)
(2.99201 -0.41703 1.50993e-19)
(3.37142 -0.43269 0)
(3.77553 -0.463738 1.4636e-19)
(4.2186 -0.499519 2.87773e-19)
(4.70307 -0.528569 -1.41588e-19)
(5.21949 -0.542048 -1.38922e-19)
(5.74976 -0.53647 0)
(6.27348 -0.514151 0)
(6.77408 -0.481105 0)
(7.24198 -0.443953 -1.28359e-19)
(7.67484 -0.407608 1.25336e-19)
(8.07479 -0.374032 2.45148e-19)
(8.44534 -0.342127 -1.1983e-19)
(8.78771 -0.309326 1.16851e-19)
(9.10073 -0.273233 1.14305e-19)
(9.37611 -0.231036 0)
(9.60368 -0.181351 0)
(9.78612 -0.130975 -1.06509e-19)
(9.92131 -0.0793838 0)
(10.003 -0.00987184 0)
(10.0121 0.0762249 2.00843e-19)
(9.96481 0.17804 0)
(9.87927 0.297829 9.70115e-20)
(9.63818 0.388699 -9.61405e-20)
(9.25747 0.501558 0)
(8.8792 0.833394 9.31566e-20)
(8.31017 1.26085 0)
(7.50605 1.3596 0)
(6.63464 1.03849 -8.79023e-20)
(5.74878 0.56669 1.73001e-19)
(4.91028 0.206152 -8.56979e-20)
(4.22484 0.00251163 0)
(3.74696 -0.0940883 0)
(3.46213 -0.124246 8.40578e-20)
(3.31334 -0.10268 0)
(3.20404 -0.043074 8.23278e-20)
(3.06459 0.0622273 0)
(2.84355 0.194193 0)
(2.53711 0.262055 0)
(2.23227 0.231453 7.65542e-20)
(1.96998 0.159204 0)
(1.75253 0.0941665 -7.32824e-20)
(1.60374 0.0344608 0)
(1.55165 -0.0322434 0)
(1.62717 -0.0952419 1.38077e-19)
(1.81202 -0.139716 -1.35776e-19)
(2.07825 -0.14426 0)
(2.35531 -0.126751 0)
(2.63653 -0.0689559 0)
(2.83728 -0.0386111 3.78953e-19)
(3.05366 0.04254 0)
(3.06236 0.0198146 -2.41991e-19)
(0.107003 0.306404 -6.20686e-23)
(0.864084 -1.45346 -2.46208e-19)
(1.50181 -2.46334 0)
(1.94988 -2.74131 2.4087e-19)
(2.25291 -2.59557 0)
(2.46539 -2.24026 0)
(2.6169 -1.792 -5.2187e-22)
(2.72213 -1.30894 -1.16239e-19)
(2.78666 -0.826157 -1.1474e-19)
(2.80719 -0.338086 -1.14239e-19)
(2.794 0.108401 0)
(2.73458 0.526105 0)
(2.62762 0.924849 1.11082e-19)
(2.54104 1.22869 2.20651e-19)
(2.41564 1.41718 -2.19282e-19)
(2.20039 1.2987 0)
(1.9304 0.961082 -2.16665e-19)
(1.72013 0.329256 1.07435e-19)
(1.63025 -0.53477 0)
(1.47016 -0.623796 -2.11295e-19)
(1.13101 -0.156531 -1.04604e-19)
(0.786621 0.105475 2.07489e-19)
(0.520854 0.312695 1.02698e-19)
(0.310545 0.538515 0)
(0.0504472 0.743328 -2.01679e-19)
(-0.285256 0.965105 -1.99641e-19)
(-0.68537 1.21887 0)
(-1.15343 1.45225 -1.95325e-19)
(-1.63087 1.66854 0)
(-2.12041 1.85925 -1.90967e-19)
(-2.59947 2.02132 -9.46943e-20)
(-3.0684 2.14733 0)
(-3.51115 2.22763 0)
(-3.93442 2.25109 0)
(-4.34274 2.21562 0)
(-4.75162 2.1298 0)
(-5.16873 2.00978 0)
(-5.59429 1.87036 -1.73049e-19)
(-6.01979 1.71993 2.56498e-19)
(-6.43652 1.56202 0)
(-6.8361 1.39846 0)
(-7.21072 1.22968 0)
(-7.55162 1.05401 -1.0799e-21)
(-7.85015 0.869344 -1.60058e-19)
(-8.09948 0.675399 -3.14934e-19)
(-8.2962 0.474404 3.11118e-19)
(-8.44028 0.269383 1.53283e-19)
(-8.53365 0.0632795 -1.5273e-19)
(-8.57958 -0.140782 1.01674e-21)
(-8.58233 -0.339056 -1.48837e-19)
(-8.54156 -0.526568 0)
(-8.45743 -0.698684 -1.4654e-19)
(-8.33041 -0.850171 8.55045e-22)
(-8.16161 -0.975529 0)
(-7.95186 -1.06969 0)
(-7.7028 -1.12836 1.4334e-19)
(-7.41616 -1.14912 0)
(-7.09461 -1.13199 0)
(-6.74094 -1.0799 -1.41414e-19)
(-6.35824 -0.999673 -2.82887e-19)
(-5.95012 -0.902568 1.41392e-19)
(-5.52167 -0.804103 0)
(-5.08063 -0.722599 -1.40788e-19)
(-4.63976 -0.673556 0)
(-4.21357 -0.661129 -1.40095e-19)
(-3.80661 -0.681984 -1.39816e-19)
(-3.41602 -0.737803 2.78802e-19)
(-3.03458 -0.842243 1.38879e-19)
(-2.64937 -1.0083 0)
(-2.25975 -1.23436 -2.75038e-19)
(-1.83507 -1.48708 0)
(-1.33968 -1.78311 -4.06823e-19)
(-0.779466 -2.09891 -2.68334e-19)
(-0.121941 -2.38433 -2.64904e-19)
(0.692093 -2.55561 2.60311e-19)
(1.60384 -2.49847 -3.82822e-19)
(2.54038 -2.12416 0)
(3.35463 -1.37089 0)
(3.87185 -0.29409 2.37572e-19)
(3.95863 0.884497 3.54237e-19)
(3.51714 1.88059 0)
(2.65239 2.63185 -1.19334e-19)
(1.60452 3.10215 0)
(0.481721 2.8074 3.58689e-19)
(-0.839986 1.99228 8.37223e-22)
(-2.52601 2.06427 -1.11221e-21)
(-5.25067 3.91243 -2.28461e-19)
(-7.09002 4.70531 0)
(-7.63075 4.23306 2.15925e-19)
(-8.52191 3.64539 4.49219e-21)
(-8.93507 3.01345 0)
(-9.66097 2.45145 0)
(-10.1234 1.96059 0)
(-10.6926 1.53577 -1.87367e-19)
(-11.0583 1.14097 0)
(-11.3943 0.785445 0)
(-11.5596 0.447386 0)
(-11.641 0.141286 0)
(-11.587 -0.143531 0)
(-11.4426 -0.396042 -1.66157e-19)
(-11.1928 -0.618809 0)
(-10.866 -0.805287 -1.67195e-19)
(-10.4655 -0.957987 -1.67756e-19)
(-10.0115 -1.0759 1.68598e-19)
(-9.51296 -1.16369 0)
(-8.98345 -1.22438 1.70615e-19)
(-8.42992 -1.26388 0)
(-7.85974 -1.2865 1.72471e-19)
(-7.27672 -1.29651 -1.73202e-19)
(-6.68504 -1.29666 -5.20543e-19)
(-6.08781 -1.28906 0)
(-5.48947 -1.27482 -5.22262e-19)
(-4.89503 -1.25452 -1.73642e-19)
(-4.30896 -1.22949 0)
(-3.73391 -1.20257 -3.46615e-19)
(-3.17378 -1.17501 -3.45335e-19)
(-2.63047 -1.14931 5.15763e-19)
(-2.09755 -1.13122 0)
(-1.57426 -1.12168 1.69932e-19)
(-1.04738 -1.12277 1.68649e-19)
(-0.50642 -1.13053 5.01135e-19)
(0.0595263 -1.12998 0)
(0.647739 -1.10548 0)
(1.23949 -1.04545 0)
(1.80672 -0.953919 1.5956e-19)
(2.32196 -0.848655 0)
(2.77436 -0.754744 0)
(3.17115 -0.693305 -1.53195e-19)
(3.53323 -0.674912 -1.50833e-19)
(3.88938 -0.698151 0)
(4.26777 -0.751532 0)
(4.68725 -0.816214 -2.87469e-19)
(5.15286 -0.870878 0)
(5.65549 -0.898714 2.77745e-19)
(6.17585 -0.892772 2.72328e-19)
(6.69175 -0.856686 0)
(7.18494 -0.800945 0)
(7.64459 -0.737551 -2.55998e-19)
(8.06777 -0.675587 -3.02053e-22)
(8.45767 -0.619075 -3.01325e-22)
(8.8192 -0.566897 0)
(9.15611 -0.513957 -4.67126e-19)
(9.46805 -0.454683 0)
(9.7452 -0.386109 0)
(9.97663 -0.307946 0)
(10.1645 -0.223062 2.13126e-19)
(10.3072 -0.135395 0)
(10.3943 -0.0412757 -4.08214e-19)
(10.4269 0.0708391 -2.00754e-19)
(10.4099 0.218768 0)
(10.3412 0.404879 -1.9432e-19)
(10.16 0.55421 0)
(9.81391 0.67752 0)
(9.47717 0.996212 -5.59163e-19)
(9.29962 1.4593 3.65934e-19)
(9.11676 1.60345 0)
(8.72919 1.30102 3.50886e-19)
(8.11729 0.897245 -1.72497e-19)
(7.38745 0.629776 0)
(6.60809 0.444975 0)
(5.83159 0.26638 0)
(5.16825 0.127478 -5.0348e-19)
(4.68072 0.0731343 0)
(4.31676 0.0937864 -1.64403e-19)
(3.9998 0.194554 0)
(3.70502 0.353909 0)
(3.40053 0.453609 0)
(3.04143 0.40732 0)
(2.62926 0.286903 0)
(2.22701 0.179725 0)
(1.92571 0.0804199 -2.86613e-19)
(1.78269 -0.0411073 0)
(1.82296 -0.162773 -1.3804e-19)
(2.00715 -0.252834 4.07044e-19)
(2.29304 -0.279688 0)
(2.60534 -0.262156 0)
(2.92396 -0.199253 -2.57597e-19)
(3.18882 -0.15383 -2.52518e-19)
(3.42525 -0.0752343 2.47253e-19)
(3.57459 -0.0704758 2.41891e-19)
(0.418106 -1.48166 3.72662e-19)
(1.0488 -3.17503 3.68014e-19)
(1.43585 -3.48371 2.42384e-19)
(1.62111 -3.20877 1.19617e-19)
(1.71348 -2.7617 0)
(1.78126 -2.26558 -2.355e-19)
(1.83569 -1.75355 1.16387e-19)
(1.87449 -1.23998 0)
(1.8975 -0.729097 1.1501e-19)
(1.89921 -0.226834 0)
(1.88292 0.259397 -2.2568e-19)
(1.83529 0.735134 0)
(1.76845 1.1562 -1.11291e-19)
(1.66769 1.50056 -2.21144e-19)
(1.58974 1.64842 2.19752e-19)
(1.44064 1.63583 0)
(1.26465 1.22129 2.16963e-19)
(1.28242 0.384259 0)
(1.02803 0.10081 0)
(0.596683 0.207281 2.11776e-19)
(0.264674 0.311272 0)
(-0.0970947 0.568841 2.72889e-22)
(-0.495446 0.890039 0)
(-0.902332 1.20761 0)
(-1.34243 1.5182 -6.89163e-23)
(-1.79886 1.80405 1.98691e-19)
(-2.26869 2.06528 1.96345e-19)
(-2.74002 2.29057 1.94332e-19)
(-3.19655 2.48497 0)
(-3.64108 2.64527 3.79521e-19)
(-4.0661 2.77244 0)
(-4.47643 2.86209 1.84928e-19)
(-4.86986 2.91123 0)
(-5.25393 2.91629 0)
(-5.63155 2.87824 -1.78036e-19)
(-6.0086 2.80067 0)
(-6.38338 2.68889 1.73306e-19)
(-6.75165 2.54701 1.53444e-21)
(-7.10571 2.37801 -3.38552e-19)
(-7.43928 2.18448 3.32177e-19)
(-7.74636 1.96948 0)
(-8.02271 1.73645 0)
(-8.26564 1.48952 1.5763e-19)
(-8.47485 1.23359 0)
(-8.6513 0.973041 1.56679e-19)
(-8.79648 0.710618 -1.5481e-19)
(-8.91229 0.447911 -1.53089e-19)
(-9.00052 0.1867 0)
(-9.06116 -0.0710172 1.50056e-19)
(-9.0938 -0.322393 1.48672e-19)
(-9.09999 -0.561872 -2.92292e-19)
(-9.08047 -0.785643 1.46331e-19)
(-9.03565 -0.988887 1.45347e-19)
(-8.96505 -1.16636 0)
(-8.86683 -1.31264 0)
(-8.73861 -1.42277 -1.42985e-19)
(-8.57742 -1.49329 0)
(-8.37996 -1.52291 0)
(-8.1431 -1.51344 2.82672e-19)
(-7.86451 -1.47033 2.81864e-19)
(-7.54373 -1.40267 0)
(-7.18269 -1.3226 0)
(-6.78608 -1.24456 0)
(-6.36111 -1.18357 0)
(-5.9155 -1.15209 2.79145e-19)
(-5.45402 -1.16072 -2.78132e-19)
(-4.97839 -1.22214 -2.77765e-19)
(-4.49056 -1.34871 -5.53127e-19)
(-3.99466 -1.55168 0)
(-3.48766 -1.83463 7.60047e-22)
(-2.95653 -2.18429 0)
(-2.39776 -2.57631 2.70216e-19)
(-1.79548 -3.00179 1.14511e-21)
(-1.10632 -3.4296 2.642e-19)
(-0.339037 -3.75067 -2.60047e-19)
(0.526442 -3.78552 2.07176e-21)
(1.43988 -3.34571 0)
(2.25203 -2.29289 -2.38429e-19)
(2.7655 -0.713086 -2.37913e-19)
(2.89782 1.05752 -4.65428e-19)
(2.51381 2.55375 0)
(1.64624 3.61293 2.32014e-19)
(0.534855 4.21892 0)
(-0.71628 4.16039 -4.73417e-19)
(-1.99081 3.63825 2.36999e-19)
(-3.95094 4.34892 -2.33242e-19)
(-6.16864 5.73908 2.27509e-19)
(-6.89994 5.51009 4.35589e-19)
(-7.23373 4.78584 -2.15869e-19)
(-7.91866 4.22303 2.09701e-19)
(-8.28345 3.55095 0)
(-8.90364 2.99482 -3.86447e-19)
(-9.32405 2.44957 0)
(-9.80982 1.94998 -3.63267e-19)
(-10.1315 1.46106 3.53344e-19)
(-10.4044 0.996712 3.45068e-19)
(-10.5292 0.549151 -3.38627e-19)
(-10.5655 0.133839 -3.34079e-19)
(-10.481 -0.24972 0)
(-10.3069 -0.592496 -1.63078e-19)
(-10.0376 -0.893418 0)
(-9.69575 -1.14606 0)
(-9.28891 -1.35114 -3.32121e-19)
(-8.83668 -1.50862 0)
(-8.34945 -1.62449 0)