/*--------------------------------*- C++ -*----------------------------------*\
  =========                 |
  \\      /  F ield         | OpenFOAM: The Open Source CFD Toolbox
   \\    /   O peration     | Website:  https://openfoam.org
    \\  /    A nd           | Version:  9
     \\/     M anipulation  |
\*---------------------------------------------------------------------------*/
FoamFile
{
    format      ascii;
    class       volSymmTensorField;
    location    "0.061";
    object      UPrime2Mean;
}
// * * * * * * * * * * * * * * * * * * * * * * * * * * * * * * * * * * * * * //

dimensions      [0 2 -2 0 0 0 0];

internalField   nonuniform List<symmTensor> 
12225
(
(-48.3367 -0.244238 0 0.0010161 0 0)
(-45.4693 -0.303117 0 -0.00100352 0 0)
(-42.646 -0.28508 0 -0.00120553 0 0)
(-39.8775 -0.269965 0 -0.00127188 0 0)
(-37.2365 -0.257431 0 -0.00130938 0 0)
(-34.7643 -0.244792 0 -0.00130795 0 0)
(-32.4402 -0.232103 0 -0.00127234 0 0)
(-30.2658 -0.22123 0 -0.00124227 0 0)
(-28.1844 -0.21084 0 -0.0011782 0 0)
(-26.239 -0.204212 0 -0.00116915 0 0)
(-24.3083 -0.197883 0 -0.00105867 0 0)
(-22.5297 -0.19907 0 -0.00113083 0 0)
(-20.6026 -0.200877 0 -0.000766725 0 0)
(-18.901 -0.216399 0 -0.00107966 0 0)
(-16.6906 -0.241142 0 0.000653632 0 0)
(-14.884 -0.281474 0 -0.000702571 0 0)
(-11.8271 -0.3969 0 0.0103394 0 0)
(-9.25276 -0.495402 0 0.00366438 0 0)
(-50.434 -0.250739 0 0.00148797 0 0)
(-50.9907 -0.362694 0 -0.00124343 0 0)
(-51.3549 -0.364309 0 -0.00165999 0 0)
(-51.4842 -0.371801 0 -0.00192587 0 0)
(-51.4327 -0.388667 0 -0.00226182 0 0)
(-51.2651 -0.406986 0 -0.00259014 0 0)
(-50.9964 -0.423599 0 -0.00289329 0 0)
(-50.6533 -0.440998 0 -0.00316066 0 0)
(-50.2111 -0.457736 0 -0.00341136 0 0)
(-49.7084 -0.47869 0 -0.00356407 0 0)
(-49.0835 -0.500962 0 -0.00374846 0 0)
(-48.4136 -0.533799 0 -0.00359754 0 0)
(-47.5607 -0.574612 0 -0.00359865 0 0)
(-46.6783 -0.637108 0 -0.00229114 0 0)
(-45.4837 -0.728151 0 -0.001221 0 0)
(-44.2477 -0.859753 0 0.00505874 0 0)
(-42.48 -1.08339 0 0.014267 0 0)
(-40.5362 -1.38462 0 0.0531008 0 0)
(-50.2229 -0.175977 0 0.00287441 0 0)
(-50.5197 -0.279747 0 7.80713e-05 0 0)
(-50.7914 -0.29745 0 -0.000649751 0 0)
(-50.9471 -0.311051 0 -0.000970446 0 0)
(-51.0182 -0.335374 0 -0.00134386 0 0)
(-51.0587 -0.36249 0 -0.00171792 0 0)
(-51.0899 -0.386443 0 -0.0019954 0 0)
(-51.1124 -0.410784 0 -0.00222242 0 0)
(-51.1156 -0.435416 0 -0.00231932 0 0)
(-51.0916 -0.467567 0 -0.00241891 0 0)
(-51.0342 -0.503535 0 -0.00215856 0 0)
(-50.9335 -0.555224 0 -0.00188025 0 0)
(-50.7938 -0.617158 0 -0.00043077 0 0)
(-50.5901 -0.709581 0 0.00139154 0 0)
(-50.3595 -0.832485 0 0.00725739 0 0)
(-50.0459 -1.01284 0 0.0167598 0 0)
(-49.7709 -1.26957 0 0.0423574 0 0)
(-49.4311 -1.59003 0 0.0978394 0 0)
(-49.889 -0.153479 0 0.00278447 0 0)
(-50.1554 -0.285082 0 0.000241885 0 0)
(-50.3979 -0.319384 0 -0.000761761 0 0)
(-50.5464 -0.331693 0 -0.00113029 0 0)
(-50.6209 -0.353146 0 -0.00147499 0 0)
(-50.6628 -0.38035 0 -0.0018192 0 0)
(-50.6912 -0.406366 0 -0.00208306 0 0)
(-50.7046 -0.431828 0 -0.00221871 0 0)
(-50.6997 -0.45926 0 -0.00223872 0 0)
(-50.6711 -0.492788 0 -0.00206704 0 0)
(-50.6217 -0.534663 0 -0.00165542 0 0)
(-50.5455 -0.589139 0 -0.000693825 0 0)
(-50.4511 -0.660678 0 0.00121034 0 0)
(-50.3306 -0.756806 0 0.00503234 0 0)
(-50.2081 -0.888542 0 0.0125642 0 0)
(-50.0944 -1.06545 0 0.0277306 0 0)
(-50.0369 -1.29471 0 0.0584604 0 0)
(-50.0829 -1.55437 0 0.119345 0 0)
(-50.1263 -0.112903 0 0.00362018 0 0)
(-50.339 -0.235859 0 0.0012005 0 0)
(-50.5208 -0.279897 0 -9.15487e-06 0 0)
(-50.6248 -0.298889 0 -0.00038973 0 0)
(-50.6575 -0.323931 0 -0.000643203 0 0)
(-50.6541 -0.355459 0 -0.000897525 0 0)
(-50.6399 -0.38661 0 -0.00106271 0 0)
(-50.6206 -0.417153 0 -0.00108175 0 0)
(-50.5919 -0.449251 0 -0.000871737 0 0)
(-50.5484 -0.487325 0 -0.000375414 0 0)
(-50.4855 -0.534204 0 0.000618448 0 0)
(-50.4024 -0.594156 0 0.00239578 0 0)
(-50.2985 -0.671437 0 0.00562778 0 0)
(-50.1817 -0.771807 0 0.011486 0 0)
(-50.0601 -0.902753 0 0.0220662 0 0)
(-49.9626 -1.06847 0 0.041933 0 0)
(-49.9028 -1.26557 0 0.0772277 0 0)
(-49.923 -1.47413 0 0.141295 0 0)
(-50.1855 -0.0845271 0 0.00455248 0 0)
(-50.3052 -0.235839 0 0.00159928 0 0)
(-50.4469 -0.28534 0 0.000152229 0 0)
(-50.5497 -0.307847 0 -0.0003667 0 0)
(-50.5953 -0.334539 0 -0.000672531 0 0)
(-50.606 -0.366613 0 -0.000885826 0 0)
(-50.6049 -0.398468 0 -0.000956457 0 0)
(-50.5995 -0.429663 0 -0.000815464 0 0)
(-50.5858 -0.463437 0 -0.000392978 0 0)
(-50.559 -0.503923 0 0.0004473 0 0)
(-50.5156 -0.554374 0 0.00195446 0 0)
(-50.4563 -0.618419 0 0.00456282 0 0)
(-50.3813 -0.699425 0 0.00904003 0 0)
(-50.2984 -0.801576 0 0.0168232 0 0)
(-50.2139 -0.928338 0 0.0301422 0 0)
(-50.1486 -1.08068 0 0.0533785 0 0)
(-50.1103 -1.25183 0 0.091888 0 0)
(-50.1216 -1.42912 0 0.155845 0 0)
(-49.7795 -0.0697523 0 0.00495544 0 0)
(-49.847 -0.204305 0 0.0026486 0 0)
(-49.9729 -0.263504 0 0.00122392 0 0)
(-50.0989 -0.295331 0 0.00066734 0 0)
(-50.1803 -0.324976 0 0.00046888 0 0)
(-50.2207 -0.358271 0 0.000413657 0 0)
(-50.238 -0.392777 0 0.000502044 0 0)
(-50.2427 -0.427477 0 0.000854377 0 0)
(-50.2339 -0.464653 0 0.00161762 0 0)
(-50.2098 -0.508483 0 0.00298399 0 0)
(-50.1691 -0.562461 0 0.00524707 0 0)
(-50.1171 -0.629941 0 0.00895893 0 0)
(-50.0566 -0.71337 0 0.0149759 0 0)
(-49.9983 -0.815685 0 0.0249005 0 0)
(-49.9454 -0.937687 0 0.0409313 0 0)
(-49.9154 -1.07944 0 0.0671214 0 0)
(-49.9059 -1.23398 0 0.107876 0 0)
(-49.9387 -1.39469 0 0.170557 0 0)
(-50.1372 -0.0790893 0 0.00442031 0 0)
(-50.1683 -0.171806 0 0.00221902 0 0)
(-50.2424 -0.239616 0 0.000936257 0 0)
(-50.3294 -0.278339 0 0.000393374 0 0)
(-50.3916 -0.30955 0 0.000204782 0 0)
(-50.4215 -0.344449 0 0.000229065 0 0)
(-50.4292 -0.382614 0 0.000473287 0 0)
(-50.4244 -0.422283 0 0.00104692 0 0)
(-50.4092 -0.46443 0 0.00212361 0 0)
(-50.3823 -0.512417 0 0.00395735 0 0)
(-50.3438 -0.569508 0 0.00691502 0 0)
(-50.2963 -0.638657 0 0.0116508 0 0)
(-50.2437 -0.721742 0 0.0191028 0 0)
(-50.1922 -0.820837 0 0.0309097 0 0)
(-50.1482 -0.935735 0 0.0491527 0 0)
(-50.1194 -1.06596 0 0.0773505 0 0)
(-50.1108 -1.20582 0 0.118892 0 0)
(-50.1273 -1.35085 0 0.17912 0 0)
(-50.008 -0.0762465 0 0.00495259 0 0)
(-50.0825 -0.169588 0 0.0027907 0 0)
(-50.1563 -0.239808 0 0.00154864 0 0)
(-50.2351 -0.284307 0 0.00107003 0 0)
(-50.3019 -0.318619 0 0.000994868 0 0)
(-50.3447 -0.35386 0 0.00118375 0 0)
(-50.3652 -0.392253 0 0.00166722 0 0)
(-50.3697 -0.433053 0 0.00258927 0 0)
(-50.3612 -0.477149 0 0.00414705 0 0)
(-50.341 -0.52726 0 0.00663886 0 0)
(-50.3101 -0.586309 0 0.0104721 0 0)
(-50.2733 -0.6569 0 0.0163353 0 0)
(-50.2346 -0.740118 0 0.025182 0 0)
(-50.2018 -0.836985 0 0.0386002 0 0)
(-50.178 -0.946318 0 0.0584653 0 0)
(-50.1726 -1.06737 0 0.0877373 0 0)
(-50.183 -1.19492 0 0.128922 0 0)
(-50.2202 -1.32634 0 0.185924 0 0)
(-49.8836 -0.0427042 0 0.0059259 0 0)
(-49.9139 -0.139969 0 0.00377523 0 0)
(-49.9717 -0.208517 0 0.00226601 0 0)
(-50.0481 -0.256748 0 0.00174292 0 0)
(-50.1151 -0.294937 0 0.00167655 0 0)
(-50.1587 -0.332872 0 0.00193765 0 0)
(-50.1802 -0.374585 0 0.00257732 0 0)
(-50.1868 -0.420215 0 0.00375206 0 0)
(-50.1835 -0.469441 0 0.00569791 0 0)
(-50.174 -0.523631 0 0.00875257 0 0)
(-50.161 -0.584588 0 0.0133675 0 0)
(-50.1488 -0.654462 0 0.0202619 0 0)
(-50.1395 -0.734289 0 0.0303545 0 0)
(-50.138 -0.825169 0 0.0450933 0 0)
(-50.1445 -0.925956 0 0.0660429 0 0)
(-50.1646 -1.03604 0 0.0956396 0 0)
(-50.1952 -1.15086 0 0.135558 0 0)
(-50.2433 -1.26887 0 0.188707 0 0)
(-49.9485 -0.075362 0 0.0061838 0 0)
(-49.9848 -0.146954 0 0.00430983 0 0)
(-50.0357 -0.205929 0 0.0030863 0 0)
(-50.1029 -0.254836 0 0.00256164 0 0)
(-50.16 -0.297326 0 0.00250852 0 0)
(-50.1947 -0.338474 0 0.00294804 0 0)
(-50.2095 -0.381749 0 0.00390468 0 0)
(-50.2133 -0.428042 0 0.00548839 0 0)
(-50.2122 -0.4774 0 0.00792704 0 0)
(-50.2096 -0.530913 0 0.011596 0 0)
(-50.2058 -0.590338 0 0.0169764 0 0)
(-50.2034 -0.657968 0 0.0247819 0 0)
(-50.2026 -0.734816 0 0.0358605 0 0)
(-50.2095 -0.821925 0 0.0514813 0 0)
(-50.2239 -0.91763 0 0.0728735 0 0)
(-50.2545 -1.02123 0 0.10196 0 0)
(-50.2946 -1.12809 0 0.139778 0 0)
(-50.3577 -1.23742 0 0.188477 0 0)
(-49.6324 -0.0356827 0 0.00621864 0 0)
(-49.6237 -0.115463 0 0.00422649 0 0)
(-49.6527 -0.181721 0 0.00278431 0 0)
(-49.7141 -0.235735 0 0.00227768 0 0)
(-49.7808 -0.28187 0 0.00237877 0 0)
(-49.835 -0.325035 0 0.00300892 0 0)
(-49.873 -0.369088 0 0.00420575 0 0)
(-49.8999 -0.415913 0 0.00612051 0 0)
(-49.9217 -0.465937 0 0.00899982 0 0)
(-49.9412 -0.520112 0 0.0132261 0 0)
(-49.9593 -0.579569 0 0.0192744 0 0)
(-49.9759 -0.646055 0 0.0278259 0 0)
(-49.9931 -0.719707 0 0.0396432 0 0)
(-50.014 -0.801346 0 0.0558445 0 0)
(-50.0436 -0.889041 0 0.0773818 0 0)
(-50.0843 -0.983173 0 0.105766 0 0)
(-50.1401 -1.07924 0 0.141542 0 0)
(-50.2094 -1.17851 0 0.186328 0 0)
(-50.1058 -0.0757129 0 0.00738612 0 0)
(-50.0952 -0.129051 0 0.00612197 0 0)
(-50.1223 -0.180541 0 0.00449834 0 0)
(-50.1832 -0.226873 0 0.00401688 0 0)
(-50.2507 -0.270796 0 0.00430496 0 0)
(-50.3086 -0.315717 0 0.00510727 0 0)
(-50.3548 -0.362973 0 0.00647242 0 0)
(-50.3918 -0.412506 0 0.00864349 0 0)
(-50.4247 -0.464094 0 0.0119157 0 0)
(-50.4564 -0.51899 0 0.0166628 0 0)
(-50.4894 -0.578558 0 0.0233201 0 0)
(-50.5222 -0.644428 0 0.0325031 0 0)
(-50.5568 -0.716568 0 0.0448509 0 0)
(-50.5912 -0.795152 0 0.0613042 0 0)
(-50.6321 -0.877958 0 0.0825381 0 0)
(-50.6756 -0.964934 0 0.109782 0 0)
(-50.7342 -1.0521 0 0.143119 0 0)
(-50.795 -1.14083 0 0.183908 0 0)
(-50.0554 -0.0584871 0 0.00825117 0 0)
(-50.1033 -0.103426 0 0.0069653 0 0)
(-50.1455 -0.162356 0 0.00549574 0 0)
(-50.1855 -0.215593 0 0.00489679 0 0)
(-50.2248 -0.26189 0 0.00505512 0 0)
(-50.2657 -0.306489 0 0.00593973 0 0)
(-50.3064 -0.352433 0 0.00754041 0 0)
(-50.3442 -0.39999 0 0.0100034 0 0)
(-50.3791 -0.449178 0 0.0135688 0 0)
(-50.4132 -0.501217 0 0.018588 0 0)
(-50.449 -0.557649 0 0.0254699 0 0)
(-50.4892 -0.620113 0 0.034766 0 0)
(-50.5353 -0.688492 0 0.046995 0 0)
(-50.5895 -0.762673 0 0.062915 0 0)
(-50.6516 -0.839992 0 0.082975 0 0)
(-50.7233 -0.920069 0 0.108101 0 0)
(-50.8025 -0.998623 0 0.138119 0 0)
(-50.8926 -1.07755 0 0.174049 0 0)
(-50.102 -0.0341244 0 0.00904347 0 0)
(-50.1487 -0.0945539 0 0.00803788 0 0)
(-50.1946 -0.148412 0 0.0066004 0 0)
(-50.2427 -0.195036 0 0.0061379 0 0)
(-50.2945 -0.237876 0 0.00662935 0 0)
(-50.3482 -0.281771 0 0.00790632 0 0)
(-50.4011 -0.328828 0 0.00990624 0 0)
(-50.4514 -0.37891 0 0.0127827 0 0)
(-50.4986 -0.431072 0 0.0168148 0 0)
(-50.5442 -0.485135 0 0.0223487 0 0)
(-50.5893 -0.541155 0 0.0297061 0 0)
(-50.6358 -0.599996 0 0.0393228 0 0)
(-50.6853 -0.661603 0 0.0515427 0 0)
(-50.7415 -0.726674 0 0.0669415 0 0)
(-50.8056 -0.793641 0 0.0856731 0 0)
(-50.8808 -0.863065 0 0.108447 0 0)
(-50.9651 -0.931361 0 0.13477 0 0)
(-51.0616 -1.0006 0 0.165586 0 0)
(-50.2442 -0.0284334 0 0.010574 0 0)
(-50.2288 -0.0982875 0 0.00894386 0 0)
(-50.2308 -0.142829 0 0.00667102 0 0)
(-50.2532 -0.182084 0 0.0060831 0 0)
(-50.2856 -0.224587 0 0.00666464 0 0)
(-50.3216 -0.27039 0 0.00796805 0 0)
(-50.3575 -0.316718 0 0.00994331 0 0)
(-50.3952 -0.362245 0 0.0127799 0 0)
(-50.4383 -0.407877 0 0.0167172 0 0)
(-50.4894 -0.455877 0 0.0220494 0 0)
(-50.5476 -0.507354 0 0.0290397 0 0)
(-50.6128 -0.56279 0 0.0380082 0 0)
(-50.6828 -0.620705 0 0.0491588 0 0)
(-50.7596 -0.680718 0 0.0628566 0 0)
(-50.8407 -0.740255 0 0.0790821 0 0)
(-50.9308 -0.800205 0 0.0982974 0 0)
(-51.0238 -0.856945 0 0.119959 0 0)
(-51.1294 -0.913917 0 0.144771 0 0)
(-49.8889 -0.0469237 0 0.0108159 0 0)
(-49.8879 -0.0818394 0 0.00954617 0 0)
(-49.8976 -0.121238 0 0.00647307 0 0)
(-49.9334 -0.161984 0 0.00595518 0 0)
(-49.9854 -0.20334 0 0.00696591 0 0)
(-50.0431 -0.244722 0 0.00878724 0 0)
(-50.1009 -0.286031 0 0.0112542 0 0)
(-50.1584 -0.327414 0 0.0145023 0 0)
(-50.218 -0.369135 0 0.0187439 0 0)
(-50.2822 -0.412001 0 0.0242089 0 0)
(-50.3514 -0.456264 0 0.0310623 0 0)
(-50.4261 -0.502469 0 0.0395094 0 0)
(-50.5062 -0.549876 0 0.0496193 0 0)
(-50.5926 -0.598774 0 0.0616255 0 0)
(-50.6843 -0.647347 0 0.0753957 0 0)
(-50.7828 -0.6965 0 0.091272 0 0)
(-50.8856 -0.743063 0 0.108692 0 0)
(-50.9958 -0.789816 0 0.128261 0 0)
(-49.9121 -0.0581004 0 0.0113406 0 0)
(-49.9545 -0.0757684 0 0.0107672 0 0)
(-50.0055 -0.101681 0 0.00866086 0 0)
(-50.0695 -0.134809 0 0.00813803 0 0)
(-50.1384 -0.172959 0 0.00859768 0 0)
(-50.2119 -0.212813 0 0.00982592 0 0)
(-50.2899 -0.251225 0 0.0118245 0 0)
(-50.3701 -0.287269 0 0.0145827 0 0)
(-50.452 -0.322049 0 0.0181259 0 0)
(-50.5357 -0.357613 0 0.0225969 0 0)
(-50.6223 -0.394887 0 0.028132 0 0)
(-50.7129 -0.434371 0 0.0348634 0 0)
(-50.8087 -0.474838 0 0.042791 0 0)
(-50.9098 -0.515981 0 0.052027 0 0)
(-51.0162 -0.555671 0 0.0623845 0 0)
(-51.1272 -0.594787 0 0.0740706 0 0)
(-51.2423 -0.630517 0 0.0866212 0 0)
(-51.3606 -0.666017 0 0.10041 0 0)
(-49.8853 0.0234122 0 0.010591 0 0)
(-49.8987 -0.011412 0 0.010345 0 0)
(-49.9305 -0.0375738 0 0.00849467 0 0)
(-49.9772 -0.0606618 0 0.00799443 0 0)
(-50.0383 -0.0864698 0 0.00859971 0 0)
(-50.114 -0.117071 0 0.0100082 0 0)
(-50.1985 -0.150736 0 0.0120505 0 0)
(-50.2882 -0.185241 0 0.0146859 0 0)
(-50.3819 -0.218934 0 0.0179352 0 0)
(-50.4783 -0.251227 0 0.0218542 0 0)
(-50.5761 -0.281826 0 0.026467 0 0)
(-50.6753 -0.311093 0 0.0318133 0 0)
(-50.7764 -0.338942 0 0.0378585 0 0)
(-50.8808 -0.366213 0 0.0446679 0 0)
(-50.9882 -0.392444 0 0.0521103 0 0)
(-51.0998 -0.419008 0 0.060344 0 0)
(-51.214 -0.443992 0 0.0690372 0 0)
(-51.3324 -0.469874 0 0.0784719 0 0)
(-50.1265 -0.0459883 0 0.0135458 0 0)
(-50.1416 -0.050704 0 0.0123561 0 0)
(-50.1718 -0.0611293 0 0.00925024 0 0)
(-50.2182 -0.0696737 0 0.00803437 0 0)
(-50.2719 -0.0801869 0 0.00797989 0 0)
(-50.3351 -0.0948526 0 0.00871735 0 0)
(-50.4087 -0.112923 0 0.0100712 0 0)
(-50.4915 -0.133321 0 0.0119031 0 0)
(-50.5825 -0.15545 0 0.0141435 0 0)
(-50.6812 -0.179342 0 0.0168003 0 0)
(-50.7859 -0.204563 0 0.0198977 0 0)
(-50.8948 -0.230304 0 0.023475 0 0)
(-51.0052 -0.254875 0 0.0275166 0 0)
(-51.1162 -0.277652 0 0.0320317 0 0)
(-51.2261 -0.297545 0 0.0368757 0 0)
(-51.3358 -0.315876 0 0.0421336 0 0)
(-51.4435 -0.331641 0 0.0476048 0 0)
(-51.5517 -0.34777 0 0.0534424 0 0)
(-49.9049 0.0160371 0 0.0116817 0 0)
(-49.9474 0.0204905 0 0.0110205 0 0)
(-50.0123 0.0142886 0 0.0083086 0 0)
(-50.0861 0.00043569 0 0.007257 0 0)
(-50.16 -0.0143647 0 0.00728168 0 0)
(-50.2311 -0.0267116 0 0.00795541 0 0)
(-50.3011 -0.037254 0 0.00899799 0 0)
(-50.3716 -0.0481563 0 0.0103204 0 0)
(-50.4435 -0.060881 0 0.0119412 0 0)
(-50.5192 -0.0757273 0 0.0138975 0 0)
(-50.6002 -0.0919897 0 0.0161912 0 0)
(-50.6879 -0.109145 0 0.0188199 0 0)
(-50.7813 -0.126386 0 0.0217478 0 0)
(-50.8803 -0.143742 0 0.0249812 0 0)
(-50.9819 -0.160475 0 0.0284401 0 0)
(-51.0867 -0.177001 0 0.0321929 0 0)
(-51.191 -0.192002 0 0.0360873 0 0)
(-51.2985 -0.206476 0 0.0402112 0 0)
(-49.5822 -0.00742551 0 0.0116509 0 0)
(-49.5961 0.00838609 0 0.00974696 0 0)
(-49.639 0.010226 0 0.00684755 0 0)
(-49.7169 0.00124411 0 0.0056428 0 0)
(-49.8099 -0.0104456 0 0.00546351 0 0)
(-49.9069 -0.0224166 0 0.00592497 0 0)
(-50.0041 -0.0348098 0 0.00672764 0 0)
(-50.1026 -0.0477776 0 0.00771656 0 0)
(-50.2064 -0.0609567 0 0.00886311 0 0)
(-50.3179 -0.0739461 0 0.0101926 0 0)
(-50.4369 -0.0861318 0 0.0117239 0 0)
(-50.5603 -0.0974412 0 0.0134633 0 0)
(-50.685 -0.1077 0 0.0153916 0 0)
(-50.8085 -0.11745 0 0.0175134 0 0)
(-50.9301 -0.126376 0 0.0197714 0 0)
(-51.049 -0.135188 0 0.0222232 0 0)
(-51.1663 -0.142759 0 0.0247651 0 0)
(-51.2807 -0.150293 0 0.0274282 0 0)
(-49.863 -0.00475029 0 0.00943974 0 0)
(-49.9417 0.0479533 0 0.00772952 0 0)
(-50.0258 0.0715081 0 0.00581285 0 0)
(-50.1164 0.0767124 0 0.00521728 0 0)
(-50.2144 0.0733458 0 0.00530012 0 0)
(-50.3185 0.0674607 0 0.00565446 0 0)
(-50.4241 0.0628509 0 0.00612213 0 0)
(-50.5281 0.0605691 0 0.00664133 0 0)
(-50.632 0.0594279 0 0.00722228 0 0)
(-50.7381 0.0573719 0 0.007949 0 0)
(-50.8476 0.0529459 0 0.00890169 0 0)
(-50.9596 0.0455879 0 0.0100991 0 0)
(-51.0734 0.0358024 0 0.0114897 0 0)
(-51.1872 0.0243121 0 0.0130365 0 0)
(-51.3016 0.0125012 0 0.0146787 0 0)
(-51.4139 0.000997831 0 0.0164519 0 0)
(-51.5262 -0.00894156 0 0.0182866 0 0)
(-51.634 -0.0177878 0 0.0202029 0 0)
(-50.2017 0.047731 0 0.00838186 0 0)
(-50.3123 0.0566733 0 0.00633836 0 0)
(-50.4225 0.067598 0 0.00424653 0 0)
(-50.5282 0.0706477 0 0.00344168 0 0)
(-50.6305 0.0672003 0 0.00337717 0 0)
(-50.7333 0.0608324 0 0.00363959 0 0)
(-50.8376 0.0539198 0 0.00401364 0 0)
(-50.943 0.047515 0 0.00444365 0 0)
(-51.0481 0.0418523 0 0.0049413 0 0)
(-51.1511 0.036962 0 0.00551932 0 0)
(-51.2511 0.0327955 0 0.00617792 0 0)
(-51.3488 0.0289473 0 0.00692657 0 0)
(-51.4458 0.0250361 0 0.00777566 0 0)
(-51.5439 0.0206149 0 0.00873279 0 0)
(-51.6432 0.015838 0 0.00977063 0 0)
(-51.744 0.0105581 0 0.0109112 0 0)
(-51.8448 0.00553507 0 0.0120986 0 0)
(-51.9462 0.000369425 0 0.0133325 0 0)
(-49.8055 0.0803193 0 0.00800232 0 0)
(-49.8634 0.122934 0 0.00560031 0 0)
(-49.9617 0.145059 0 0.00366178 0 0)
(-50.0813 0.152327 0 0.00287473 0 0)
(-50.1989 0.152767 0 0.00261988 0 0)
(-50.3086 0.152935 0 0.00265027 0 0)
(-50.4127 0.153861 0 0.00281972 0 0)
(-50.515 0.154106 0 0.00305912 0 0)
(-50.6167 0.152696 0 0.00336039 0 0)
(-50.7172 0.149712 0 0.00373752 0 0)
(-50.8162 0.145693 0 0.00419964 0 0)
(-50.9153 0.140914 0 0.00474673 0 0)
(-51.0164 0.135588 0 0.00536934 0 0)
(-51.1205 0.129773 0 0.0060617 0 0)
(-51.2282 0.123958 0 0.00679207 0 0)
(-51.3381 0.118299 0 0.00758745 0 0)
(-51.4499 0.113602 0 0.00840967 0 0)
(-51.5615 0.109677 0 0.00924357 0 0)
(-50.283 0.0455628 0 0.00725533 0 0)
(-50.3859 0.100895 0 0.00550994 0 0)
(-50.5296 0.116736 0 0.00373965 0 0)
(-50.6753 0.11801 0 0.00299919 0 0)
(-50.8009 0.117801 0 0.0028224 0 0)
(-50.911 0.118534 0 0.0028384 0 0)
(-51.0176 0.118079 0 0.00288175 0 0)
(-51.1275 0.115311 0 0.00294353 0 0)
(-51.2406 0.111525 0 0.00306719 0 0)
(-51.3537 0.108667 0 0.00326426 0 0)
(-51.4647 0.107744 0 0.00350463 0 0)
(-51.5737 0.108507 0 0.00375417 0 0)
(-51.6824 0.110261 0 0.00400967 0 0)
(-51.7916 0.112098 0 0.00429651 0 0)
(-51.9018 0.113548 0 0.00462161 0 0)
(-52.0119 0.114184 0 0.00502068 0 0)
(-52.122 0.114327 0 0.00547026 0 0)
(-52.2305 0.113697 0 0.00594326 0 0)
(-49.8471 0.143265 0 0.00526426 0 0)
(-49.9591 0.20744 0 0.00322234 0 0)
(-50.0964 0.226769 0 0.0019132 0 0)
(-50.2264 0.22488 0 0.001379 0 0)
(-50.3358 0.222907 0 0.00115319 0 0)
(-50.435 0.224935 0 0.00106605 0 0)
(-50.539 0.227455 0 0.00103385 0 0)
(-50.6541 0.227802 0 0.00104226 0 0)
(-50.7778 0.226059 0 0.00109648 0 0)
(-50.9046 0.223433 0 0.00119489 0 0)
(-51.0305 0.220923 0 0.00133434 0 0)
(-51.1546 0.218854 0 0.00151204 0 0)
(-51.2771 0.21721 0 0.00172296 0 0)
(-51.3984 0.215688 0 0.00196495 0 0)
(-51.5182 0.21417 0 0.00222674 0 0)
(-51.636 0.212618 0 0.00252381 0 0)
(-51.7508 0.211344 0 0.00283649 0 0)
(-51.8625 0.210463 0 0.00314952 0 0)
(-49.9239 0.0673184 0 0.00500496 0 0)
(-50.1063 0.120715 0 0.00269032 0 0)
(-50.3049 0.139508 0 0.0015973 0 0)
(-50.4633 0.144874 0 0.00119649 0 0)
(-50.5916 0.15254 0 0.00101403 0 0)
(-50.7128 0.162302 0 0.000892524 0 0)
(-50.8353 0.170155 0 0.000803909 0 0)
(-50.96 0.174868 0 0.000754559 0 0)
(-51.0876 0.177506 0 0.000741531 0 0)
(-51.2189 0.179676 0 0.000754944 0 0)
(-51.3535 0.182459 0 0.000781637 0 0)
(-51.4889 0.18637 0 0.000805152 0 0)
(-51.6233 0.190915 0 0.00082601 0 0)
(-51.7538 0.195427 0 0.00086304 0 0)
(-51.8808 0.198931 0 0.000934814 0 0)
(-52.0019 0.201391 0 0.00105412 0 0)
(-52.1206 0.202748 0 0.00120696 0 0)
(-52.2332 0.203816 0 0.00136722 0 0)
(-50.0843 0.233786 0 0.00266259 0 0)
(-50.4274 0.310289 0 -7.13214e-05 0 0)
(-50.7463 0.292876 0 -0.000468536 0 0)
(-50.9853 0.287397 0 -0.000602431 0 0)
(-51.1554 0.292216 0 -0.000746799 0 0)
(-51.2813 0.295531 0 -0.000834669 0 0)
(-51.377 0.295999 0 -0.000872682 0 0)
(-51.4496 0.295664 0 -0.000886855 0 0)
(-51.5029 0.295755 0 -0.000893244 0 0)
(-51.5402 0.29641 0 -0.000895879 0 0)
(-51.5613 0.297001 0 -0.000887403 0 0)
(-51.5681 0.297201 0 -0.00086285 0 0)
(-51.5595 0.296602 0 -0.000817948 0 0)
(-51.5406 0.295543 0 -0.000758577 0 0)
(-51.5097 0.29387 0 -0.000686952 0 0)
(-51.4765 0.29244 0 -0.000605874 0 0)
(-51.4335 0.291132 0 -0.000516663 0 0)
(-51.3966 0.291081 0 -0.00043917 0 0)
(-48.9863 0.100066 0 0.00268831 0 0)
(-47.4072 0.194766 0 0.000552947 0 0)
(-45.8101 0.189408 0 0.000251167 0 0)
(-44.2133 0.185216 0 0.000112593 0 0)
(-42.6805 0.184583 0 -9.90529e-06 0 0)
(-41.2401 0.181881 0 -8.31894e-05 0 0)
(-39.8938 0.17758 0 -0.000120105 0 0)
(-38.6345 0.172786 0 -0.000140068 0 0)
(-37.4532 0.16787 0 -0.000151093 0 0)
(-36.3435 0.163087 0 -0.000156751 0 0)
(-35.2981 0.158638 0 -0.000159027 0 0)
(-34.3143 0.154772 0 -0.000161391 0 0)
(-33.3849 0.151409 0 -0.000165106 0 0)
(-32.5114 0.148512 0 -0.000172023 0 0)
(-31.6828 0.145681 0 -0.000177163 0 0)
(-30.9076 0.143038 0 -0.000173834 0 0)
(-30.1648 0.140297 0 -0.00016685 0 0)
(-29.4778 0.138021 0 -0.000168801 0 0)
(-0.00682139 0.0163249 -2.63681e-22 -0.0327578 5.09049e-22 4.12219e-39)
(0.012834 -0.0211981 6.27897e-22 0.0252814 -3.21879e-22 4.05658e-39)
(0.198548 -0.115354 0 0.046844 0 0)
(0.533158 -0.160479 0 0.0169753 0 0)
(0.851388 -0.102723 0 -0.0335769 0 0)
(0.998112 0.0300038 -9.05217e-22 -0.0629749 -3.31392e-22 3.81567e-39)
(0.901944 0.172303 0 -0.0520193 0 0)
(0.579996 0.255849 0 -0.011477 0 0)
(0.172023 0.247657 0 0.0439297 0 0)
(-0.17096 0.15796 0 0.0932815 0 0)
(-0.300001 0.020029 -9.58525e-22 0.120278 4.76569e-22 3.51451e-39)
(-0.165541 -0.0981791 0 0.118354 0 0)
(0.191852 -0.16077 0 0.0997388 0 0)
(0.705449 -0.214498 0 0.0830542 0 0)
(1.28968 -0.309699 0 0.0788295 0 0)
(1.96103 -0.471063 -2.14472e-21 0.0769591 1.65031e-22 3.23599e-39)
(2.79729 -0.376767 0 0.0538849 0 0)
(3.32642 -0.00133951 0 0.0470904 0 0)
(3.55027 0.202968 0 0.0699677 0 0)
(3.51848 0.2712 0 0.097423 0 0)
(3.46971 0.281336 0 0.123933 0 0)
(3.60114 0.281547 0 0.152571 0 0)
(3.98247 0.220787 0 0.164301 0 0)
(4.45925 0.0218528 -3.2059e-21 0.132946 3.38058e-23 2.84845e-39)
(5.20399 -0.214883 3.22986e-21 0.123945 8.46629e-23 2.80341e-39)
(5.97877 -0.214552 -3.20725e-21 0.145238 -1.40021e-22 2.75876e-39)
(6.69817 -0.156173 -3.19478e-21 0.219162 -1.61713e-22 2.71441e-39)
(7.42496 -0.149531 0 0.293208 0 0)
(8.14845 -0.183921 0 0.267111 0 0)
(8.86414 -0.279104 3.09482e-21 0.302214 2.01365e-22 2.57762e-39)
(9.5882 -0.346038 3.06324e-21 0.311576 2.70962e-22 2.53088e-39)
(10.3169 -0.380871 0 0.303563 0 0)
(11.0508 -0.404595 0 0.291148 0 0)
(11.7432 -0.414345 3.01861e-21 0.298167 1.18643e-22 2.3956e-39)
(12.3947 -0.433113 0 0.323293 0 0)
(13.0869 -0.489943 0 0.382577 0 0)
(14.0315 -0.660356 -3.50597e-21 0.489262 1.07582e-23 2.2693e-39)
(15.4184 -0.868945 0 0.539136 0 0)
(17.1925 -0.995153 -4.48898e-21 0.492869 1.63194e-22 2.18946e-39)
(18.9825 -0.855227 -1.00832e-20 0.373609 3.70459e-22 8.60043e-39)
(20.1915 -0.526461 0 0.298189 0 0)
(20.6027 -0.317337 0 0.277287 0 0)
(20.333 -0.163568 0 0.306173 0 0)
(19.6666 -0.477277 0 0.327749 0 0)
(20.0679 -0.763546 0 0.408018 0 0)
(20.7596 -0.686414 -1.73004e-20 0.484843 8.37093e-22 7.71415e-39)
(21.513 -1.32189 -1.81328e-20 0.491421 7.64341e-22 7.57042e-39)
(21.8639 -1.47807 -1.82844e-20 0.621999 7.30236e-22 7.42775e-39)
(22.0691 -0.328718 0 0.345425 0 0)
(20.7877 0.083246 1.82592e-20 0.446449 1.55006e-22 7.14317e-39)
(20.2283 -0.102862 0 0.361408 0 0)
(19.8585 -0.173344 -1.78172e-20 0.352743 3.8903e-23 6.86774e-39)
(19.5962 -0.181269 -1.77212e-20 0.325285 3.58361e-23 6.7346e-39)
(19.3674 -0.279278 0 0.281461 0 0)
(19.5974 -0.423539 0 0.238409 0 0)
(19.7 -1.05003 0 0.261316 0 0)
(20.0352 -0.742275 -1.87519e-20 0.244488 6.94422e-22 6.22712e-39)
(19.384 -0.376741 0 0.367323 0 0)
(19.3705 -0.507057 0 0.286 0 0)
(19.8645 -0.503157 0 0.241225 0 0)
(20.6878 -0.557499 0 0.189068 0 0)
(21.9948 -0.634234 0 0.14868 0 0)
(23.6138 -0.706533 0 0.115467 0 0)
(25.3278 -0.712481 0 0.0928977 0 0)
(26.9582 -0.676674 0 0.0772131 0 0)
(28.2361 -0.593956 2.31652e-20 0.0660591 -6.57574e-22 5.20797e-39)
(29.0145 -0.488783 0 0.058572 0 0)
(29.1748 -0.351481 0 0.0551427 0 0)
(28.6679 -0.188385 -2.41681e-20 0.0553187 3.89419e-22 4.90375e-39)
(27.5543 -0.0463533 -2.37943e-20 0.0576147 2.42478e-22 4.80631e-39)
(26.1529 0.0351556 0 0.0594 0 0)
(24.7012 0.0671148 2.23886e-20 0.0597276 -9.07313e-23 4.61661e-39)
(23.5701 -0.00712584 -2.15366e-20 0.0630945 1.56991e-22 4.52364e-39)
(22.9929 -0.13856 0 0.067827 0 0)
(22.7262 -0.212696 1.95561e-20 0.066221 -2.37158e-22 4.33936e-39)
(22.6898 -0.229191 0 0.0588792 0 0)
(22.9372 -0.245105 0 0.0501475 0 0)
(23.3688 -0.244555 -1.5178e-20 0.0423987 2.41435e-22 4.07179e-39)
(23.7022 -0.174606 0 0.0371888 0 0)
(23.6849 -0.0199849 1.2059e-20 0.035693 -1.94883e-22 3.90236e-39)
(23.0602 0.224172 0 0.0403726 0 0)
(21.567 0.499401 -9.73827e-21 0.0525355 3.21592e-23 3.74084e-39)
(19.2365 0.735753 -8.97459e-21 0.0675808 -5.52668e-23 3.66304e-39)
(16.1391 0.8327 -8.34043e-21 0.0772334 -1.05875e-22 3.58706e-39)
(13.0607 0.595479 -1.57753e-20 0.0542358 1.29489e-23 1.40505e-38)
(10.1635 0.381877 1.4997e-20 0.0636585 -2.00367e-22 1.37583e-38)
(8.70688 -0.274808 0 0.0767973 0 0)
(6.63936 -0.623157 0 0.172556 0 0)
(3.14577 1.08562 0 0.171526 0 0)
(-2.57928 1.2323 1.26269e-20 0.338257 6.59239e-22 1.2613e-38)
(-5.11561 0.541327 1.14743e-20 0.235833 -9.79329e-23 1.23316e-38)
(-5.72748 0.0886133 -1.19192e-20 0.186252 6.97952e-22 1.20584e-38)
(-4.95266 -0.254219 0 0.137756 0 0)
(-3.14868 -0.485974 1.76121e-20 0.107158 -1.51228e-21 1.15389e-38)
(-0.604939 -0.645387 2.22672e-20 0.0831646 -1.70963e-21 1.12912e-38)
(2.45759 -0.748212 2.76048e-20 0.0654083 -1.80773e-21 1.10498e-38)
(5.87247 -0.805626 0 0.0507309 0 0)
(9.47231 -0.824766 0 0.038476 0 0)
(13.1247 -0.810173 0 0.0278808 0 0)
(16.6893 -0.766535 4.88322e-20 0.0187581 -1.43267e-21 1.01266e-38)
(20.0559 -0.700347 0 0.0110415 0 0)
(23.1132 -0.612685 0 0.00460781 0 0)
(25.7831 -0.51049 -5.684e-20 -0.000483597 7.09865e-22 9.45355e-39)
(27.9972 -0.398347 0 -0.00428596 0 0)
(29.7212 -0.281836 0 -0.00689283 0 0)
(30.9325 -0.165032 -5.41253e-20 -0.00844417 -1.15639e-23 8.79401e-39)
(31.6255 -0.0521961 0 -0.00908151 0 0)
(31.8134 0.0532192 0 -0.00896059 0 0)
(31.5244 0.148109 4.26822e-20 -0.00826135 4.79311e-22 8.16005e-39)
(30.8036 0.230297 3.77756e-20 -0.00716272 5.62506e-22 7.95645e-39)
(29.7091 0.298007 0 -0.00585251 0 0)
(28.3061 0.350655 -2.76089e-20 -0.00449099 -6.31474e-22 7.56307e-39)
(26.6596 0.389096 0 -0.00319671 0 0)
(24.8271 0.41557 1.81078e-20 -0.00202001 6.10176e-22 7.18853e-39)
(22.8546 0.432796 0 -0.000968013 0 0)
(20.7779 0.443219 1.0003e-20 -4.29848e-05 5.4977e-22 6.83176e-39)
(18.6257 0.448425 6.54411e-21 0.000823368 5.14479e-22 6.65937e-39)
(16.4221 0.449219 0 0.00161376 0 0)
(14.1904 0.445629 0 0.00233303 0 0)
(11.9544 0.437176 0 0.00296849 0 0)
(9.7377 0.423825 0 0.00348976 0 0)
(7.56434 0.405719 0 0.00388164 0 0)
(5.46003 0.385055 0 0.00425253 0 0)
(3.44751 0.361946 0 0.00450559 0 0)
(1.53279 0.337777 -7.97639e-21 0.0046763 2.48203e-22 5.40007e-39)
(-0.274217 0.311805 8.509e-21 0.00475514 -2.26672e-22 5.25381e-39)
(-1.97029 0.285586 0 0.00476247 0 0)
(-3.55208 0.259398 0 0.00471544 0 0)
(-5.01699 0.233028 0 0.00462624 0 0)
(-6.36167 0.206352 0 0.00450675 0 0)
(-7.58194 0.179388 1.87167e-20 0.00436149 -3.01218e-22 1.82841e-38)
(-8.67294 0.152261 0 0.00418899 0 0)
(-9.63027 0.125218 -1.84907e-20 0.00398644 2.46394e-22 1.72764e-38)
(-10.4511 0.0986285 1.82825e-20 0.00375438 -2.17067e-22 1.67895e-38)
(-11.1351 0.0728811 0 0.00350184 0 0)
(-11.684 0.0482615 0 0.00324472 0 0)
(-12.1016 0.0249921 0 0.00299606 0 0)
(-12.3933 0.0032037 -1.71289e-20 0.00276154 8.84052e-23 1.49472e-38)
(-12.5656 -0.0170339 -1.67925e-20 0.00254455 5.2335e-23 1.45114e-38)
(-12.6249 -0.0356592 0 0.00234587 0 0)
(-12.5786 -0.0526618 -1.60852e-20 0.00216582 -1.26136e-23 1.36677e-38)
(-12.4335 -0.0679333 -1.57085e-20 0.00201004 -4.91787e-23 1.32593e-38)
(-12.1978 -0.0813779 1.53019e-20 0.00189121 8.78982e-23 1.28596e-38)
(-11.88 -0.0930003 0 0.00181997 0 0)
(-11.4882 -0.102854 0 0.00181002 0 0)
(-11.0307 -0.111034 1.38291e-20 0.00189032 1.97123e-22 1.17106e-38)
(-10.515 -0.117676 0 0.00208666 0 0)
(-9.94798 -0.122848 0 0.00242606 0 0)
(-9.33548 -0.126539 0 0.00294994 0 0)
(-8.68216 -0.128917 0 0.00373961 0 0)
(-7.9903 -0.130379 -1.02562e-20 0.00474434 -3.58358e-22 9.95316e-39)
(-7.26011 -0.130466 -9.35177e-21 0.00598605 -3.56182e-22 9.62443e-39)
(-6.49146 -0.129014 0 0.00761122 0 0)
(-5.6807 -0.125901 -7.44582e-21 0.00865375 -3.62996e-22 8.98912e-39)
(-4.83901 -0.111207 0 0.00535474 0 0)
(-4.05504 -0.0748412 0 0.00121583 0 0)
(-3.43217 -0.0379069 -5.06353e-21 0.000865577 -7.71848e-23 8.08961e-39)
(-2.9791 -0.0198826 0 0.00171602 0 0)
(-2.64239 -0.0194333 -4.74136e-21 0.00199404 -4.64525e-23 7.52131e-39)
(-2.35862 -0.0284508 0 0.00173443 0 0)
(-2.08265 -0.0402052 0 0.00132079 0 0)
(-1.79174 -0.0524648 -4.46264e-21 0.00105307 -1.14677e-22 6.71796e-39)
(-1.46787 -0.0678 0 0.00102038 0 0)
(-1.08592 -0.0851016 -3.98632e-21 0.00123049 -1.6607e-22 6.21513e-39)
(-0.642009 -0.0908841 0 0.0015956 0 0)
(-0.202537 -0.0720505 0 0.00153608 0 0)
(0.129559 -0.0329217 0 0.000917461 0 0)
(0.286005 0.00594267 3.00609e-21 0.00057677 -7.93278e-24 5.28335e-39)
(0.289539 0.0264345 0 0.000604849 0 0)
(0.202803 0.0284982 -3.33273e-21 0.00058947 4.23067e-23 4.85163e-39)
(0.0878478 0.0212684 0 0.000455904 0 0)
(-0.0230899 0.0110221 0 0.000279427 0 0)
(-0.10223 0.000994694 0 0.000125481 0 0)
(-0.133135 -0.00788077 0 1.04648e-05 0 0)
(-0.121894 -0.0141151 0 -7.60802e-05 0 0)
(-0.035863 -0.0166568 0 -8.29808e-05 0 0)
(0.0178336 -0.0188337 0 -0.000220023 0 0)
(0.250782 -0.013931 7.35675e-21 -9.95754e-05 1.09092e-22 1.34067e-38)
(0.164927 -0.0240699 0 -0.000858955 0 0)
(0.725491 0.0102189 0 0.000454914 0 0)
(0.0051651 -0.0105154 9.62731e-23 0.0651261 -3.60573e-21 3.71012e-38)
(0.0433518 -0.144796 -9.51905e-23 0.477079 2.78384e-21 3.6558e-38)
(0.155327 -0.285031 0 0.611893 0 0)
(0.230144 -0.253834 4.31553e-23 0.435453 -6.97462e-22 1.57527e-38)
(0.179999 0.0318989 0 0.0196806 0 0)
(-0.0417189 0.423171 -3.63126e-22 -0.298199 6.7263e-22 3.801e-39)