/*--------------------------------*- C++ -*----------------------------------*\
  =========                 |
  \\      /  F ield         | OpenFOAM: The Open Source CFD Toolbox
   \\    /   O peration     | Website:  https://openfoam.org
    \\  /    A nd           | Version:  9
     \\/     M anipulation  |
\*---------------------------------------------------------------------------*/
FoamFile
{
    format      ascii;
    class       volScalarField;
    location    "0.067";
    object      k;
}
// * * * * * * * * * * * * * * * * * * * * * * * * * * * * * * * * * * * * * //

dimensions      [0 2 -2 0 0 0 0];

internalField   nonuniform List<scalar> 
12225
(
2.60281e-05
3.08028e-05
3.78044e-05
6.5033e-05
8.66843e-05
8.9346e-05
8.38001e-05
6.42264e-05
4.87608e-05
4.0985e-05
3.85382e-05
3.84818e-05
3.97554e-05
4.22374e-05
4.67667e-05
5.58832e-05
6.36536e-05
6.96873e-05
2.01353e-05
2.07337e-05
2.25941e-05
2.92802e-05
3.34643e-05
3.45237e-05
3.45538e-05
3.39523e-05
3.22414e-05
3.03424e-05
2.90712e-05
2.8678e-05
2.87283e-05
2.91627e-05
3.10634e-05
3.46086e-05
3.89173e-05
4.19816e-05
2.00235e-05
1.79847e-05
1.81653e-05
1.88471e-05
1.95009e-05
1.9739e-05
1.97599e-05
1.95683e-05
1.90935e-05
1.87144e-05
1.85196e-05
1.84857e-05
1.85248e-05
1.87171e-05
1.9391e-05
2.02408e-05
2.08226e-05
2.15897e-05
2.06709e-05
2.1497e-05
2.11668e-05
2.04026e-05
2.01711e-05
2.01467e-05
2.01426e-05
2.01012e-05
1.98899e-05
1.90943e-05
1.80852e-05
1.77499e-05
1.77659e-05
1.79926e-05
1.83608e-05
1.85446e-05
1.85813e-05
1.84943e-05
2.06558e-05
2.39772e-05
2.50404e-05
2.56633e-05
2.7736e-05
3.32576e-05
3.56427e-05
4.1215e-05
4.63139e-05
4.50627e-05
3.58936e-05
2.77765e-05
2.50956e-05
2.46814e-05
2.48704e-05
2.50198e-05
2.48894e-05
2.41398e-05
2.08091e-05
2.33805e-05
2.47271e-05
2.83197e-05
5.18883e-05
0.000117746
0.000141345
0.000134759
9.03856e-05
5.02435e-05
3.3823e-05
2.92343e-05
2.86901e-05
2.86335e-05
2.83643e-05
2.74324e-05
2.59787e-05
2.40897e-05
2.00113e-05
2.00607e-05
2.02756e-05
2.12315e-05
2.63387e-05
4.12808e-05
4.55127e-05
4.25193e-05
3.2139e-05
2.54239e-05
2.34431e-05
2.35794e-05
2.5636e-05
2.79211e-05
2.85095e-05
2.84857e-05
2.81545e-05
2.70555e-05
2.07543e-05
2.06028e-05
2.06154e-05
2.10112e-05
2.1585e-05
2.18896e-05
2.25401e-05
2.36466e-05
2.41118e-05
2.41338e-05
2.40551e-05
2.41104e-05
2.42824e-05
2.43891e-05
2.46846e-05
2.59958e-05
3.19949e-05
3.65285e-05
2.04316e-05
2.51337e-05
2.55756e-05
2.48593e-05
2.34198e-05
2.19538e-05
2.15778e-05
2.16475e-05
2.20975e-05
2.24636e-05
2.26424e-05
2.26773e-05
2.25864e-05
2.25203e-05
2.25926e-05
2.31502e-05
2.54205e-05
3.37687e-05
2.07771e-05
2.14513e-05
2.33944e-05
2.33674e-05
2.16512e-05
2.0891e-05
2.08249e-05
2.10358e-05
2.16491e-05
2.21166e-05
2.26488e-05
2.31095e-05
2.32179e-05
2.32477e-05
2.34068e-05
2.40713e-05
2.61769e-05
3.41695e-05
2.12001e-05
2.13683e-05
2.08419e-05
2.05448e-05
2.05555e-05
2.07631e-05
2.16506e-05
2.27751e-05
2.34559e-05
2.38843e-05
2.37718e-05
2.33176e-05
2.32922e-05
2.3853e-05
2.71916e-05
3.08811e-05
3.18784e-05
3.24901e-05
2.19823e-05
2.30216e-05
2.17298e-05
2.06075e-05
2.06282e-05
2.19694e-05
3.07338e-05
4.26176e-05
4.48644e-05
4.33022e-05
3.47015e-05
2.7593e-05
2.52233e-05
2.49176e-05
2.54782e-05
2.92462e-05
3.61382e-05
3.84115e-05
2.39661e-05
2.32121e-05
2.09736e-05
2.041e-05
2.04774e-05
2.11738e-05
2.41813e-05
3.55499e-05
4.50653e-05
4.56351e-05
3.90049e-05
3.0275e-05
2.63032e-05
2.48351e-05
2.46091e-05
2.5002e-05
2.65784e-05
2.78074e-05
2.17208e-05
2.10564e-05
2.05533e-05
2.05914e-05
2.10345e-05
2.27795e-05
2.6745e-05
2.91331e-05
3.26503e-05
4.64666e-05
6.86401e-05
7.40758e-05
6.96978e-05
4.93468e-05
3.41715e-05
2.745e-05
2.45109e-05
2.34659e-05
2.03973e-05
2.07055e-05
2.05678e-05
2.04625e-05
2.05e-05
2.09585e-05
2.36715e-05
3.49983e-05
4.41672e-05
4.70772e-05
5.09462e-05
5.8417e-05
6.20933e-05
6.17906e-05
5.5856e-05
4.14559e-05
3.31533e-05
2.84434e-05
2.06482e-05
2.03817e-05
2.02963e-05
2.0225e-05
2.02325e-05
2.02675e-05
2.04296e-05
2.10644e-05
2.19071e-05
2.30227e-05
2.54707e-05
3.22725e-05
4.52582e-05
5.75869e-05
6.60978e-05
6.93532e-05
6.94639e-05
6.8073e-05
2.06029e-05
2.05877e-05
2.06449e-05
2.10019e-05
2.12324e-05
2.10591e-05
2.09969e-05
2.11017e-05
2.1716e-05
2.41061e-05
3.3867e-05
4.96546e-05
5.80344e-05
6.02455e-05
5.99005e-05
5.61344e-05
4.70432e-05
3.96393e-05
2.01532e-05
2.12169e-05
2.25755e-05
2.30911e-05
2.32152e-05
2.23927e-05
2.13441e-05
2.11264e-05
2.11751e-05
2.15974e-05
2.31959e-05
2.62789e-05
3.00333e-05
3.46373e-05
3.97183e-05
4.41221e-05
4.68443e-05
4.78284e-05
2.16034e-05
2.24328e-05
2.27319e-05
2.29006e-05
2.35791e-05
2.45993e-05
2.41919e-05
2.27149e-05
2.17875e-05
2.13423e-05
2.11763e-05
2.11523e-05
2.11689e-05
2.12519e-05
2.15353e-05
2.24183e-05
2.31458e-05
2.36532e-05
2.01889e-05
2.03619e-05
2.05194e-05
2.06784e-05
2.09835e-05
2.18732e-05
2.3092e-05
2.32725e-05
2.29188e-05
2.18919e-05
2.119e-05
2.08123e-05
2.06216e-05
2.05432e-05
2.0527e-05
2.05342e-05
2.05813e-05
2.07737e-05
2.16668e-05
2.16172e-05
2.1276e-05
2.08659e-05
2.10235e-05
2.24284e-05
2.51347e-05
2.57271e-05
2.49702e-05
2.34215e-05
2.30887e-05
2.35061e-05
2.48962e-05
2.51588e-05
2.47429e-05
2.30365e-05
2.18169e-05
2.13335e-05
2.04147e-05
2.08176e-05
2.26367e-05
2.4167e-05
2.38581e-05
2.25337e-05
2.19165e-05
2.17998e-05
2.18287e-05
2.20473e-05
2.2714e-05
2.46965e-05
2.69835e-05
2.78933e-05
2.78008e-05
2.64851e-05
2.50214e-05
2.41743e-05
2.07347e-05
2.52664e-05
2.77931e-05
2.70841e-05
2.33521e-05
2.16971e-05
2.14e-05
2.15268e-05
2.21209e-05
2.24579e-05
2.25123e-05
2.24599e-05
2.23849e-05
2.23871e-05
2.24337e-05
2.25685e-05
2.31172e-05
2.44422e-05
2.05208e-05
2.62268e-05
2.74775e-05
2.40347e-05
2.14331e-05
2.08522e-05
2.08508e-05
2.11536e-05
2.14376e-05
2.15027e-05
2.14872e-05
2.13441e-05
2.1188e-05
2.11516e-05
2.1171e-05
2.13319e-05
2.20146e-05
2.46332e-05
2.21766e-05
2.57458e-05
2.96854e-05
3.03777e-05
2.57462e-05
2.26964e-05
2.15e-05
2.08639e-05
2.05419e-05
2.04121e-05
2.03772e-05
2.03761e-05
2.03946e-05
2.04612e-05
2.06332e-05
2.11073e-05
2.16257e-05
2.22232e-05
2.59434e-05
2.57829e-05
2.35979e-05
2.34836e-05
2.71329e-05
3.21622e-05
3.20048e-05
2.80761e-05
2.38415e-05
2.19888e-05
2.12528e-05
2.09988e-05
2.09261e-05
2.09064e-05
2.08963e-05
2.08874e-05
2.08595e-05
2.08453e-05
2.08855e-05
2.02346e-05
2.00731e-05
1.99555e-05
1.97073e-05
1.94777e-05
1.93561e-05
1.91826e-05
1.88951e-05
1.87844e-05
1.88811e-05
1.90331e-05
1.90621e-05
1.90265e-05
1.88907e-05
1.88147e-05
1.88083e-05
1.88417e-05
2.00099e-05
1.87841e-05
1.70524e-05
1.38931e-05
1.23852e-05
1.2151e-05
1.22038e-05
1.26332e-05
1.37964e-05
1.46894e-05
1.52389e-05
1.54816e-05
1.55137e-05
1.54454e-05
1.5277e-05
1.51417e-05
1.5056e-05
1.50225e-05
2.00876e-05
2.17644e-05
2.92231e-05
3.93494e-05
4.22673e-05
4.17688e-05
3.88605e-05
3.52315e-05
3.40535e-05
3.42465e-05
3.6811e-05
4.39393e-05
4.82681e-05
4.94793e-05
4.92985e-05
4.77532e-05
4.28773e-05
3.8834e-05
2.67848e-05
0.000168385
0.000293768
0.000307947
0.000276586
0.000186502
0.000127471
0.000102701
9.85492e-05
0.000103416
0.000127039
0.000142968
0.000145632
0.000142262
0.000120406
9.08107e-05
7.6384e-05
7.22471e-05
0.0913645
0.142574
0.141045
0.139221
0.127938
0.125106
0.126283
0.124076
0.118164
0.10931
0.104833
0.101732
0.0999377
0.0995013
0.0993544
0.0995112
0.0998238
0.100306
0.100874
0.101101
0.101034
0.101423
0.102175
0.103466
0.1035
0.103656
0.102098
0.0908307
0.0571277
0.0639684
0.0768891
0.0925751
0.129707
0.156904
0.185217
0.218826
0.228372
0.225408
0.202605
0.201519
0.252519
0.167322
0.0996505
0.0794396
0.0756324
0.0754585
0.0757937
0.0762739
0.0781887
0.0829927
0.0902703
0.0971283
0.101599
0.107644
0.116347
0.123167
0.129158
0.138026
0.147699
0.155161
0.158828
0.160181
0.160433
0.160276
0.159672
0.158804
0.157434
0.156029
0.162175
0.17516
0.193835
0.208081
0.222999
0.287576
0.387285
0.401324
0.367988
0.316639
0.265934
0.146228
0.0691717
0.0594867
0.0477599
0.0375311
0.0339131
0.0262137
0.0219507
0.0190818
0.016569
0.0155996
0.015256
0.0153383
0.0154896
0.0155455
0.0155749
0.0155849
0.0155335
0.0154801
0.0153363
0.0151616
0.0149793
0.0147756
0.014575
0.0142904
0.0139771
0.0136952
0.0133767
0.0131866
0.0129336
0.0125812
0.0123485
0.012168
0.0120155
0.0118779
0.0116429
0.0114118
0.0111496
0.0108842
0.0106934
0.0104411
0.0103477
0.0102764
0.0102341
0.0102268
0.010239
0.0102891
0.0104808
0.0107277
0.010761
0.0107331
0.0105919
0.0103896
0.0102627
0.0102478
0.010292
0.0104473
0.0106508
0.0108037
0.0108836
0.0109004
0.0108864
0.0108303
0.0106744
0.0104431
0.0101553
0.00985936
0.00955703
0.00922689
0.00896267
0.00873053
0.00855549
0.00851099
0.00852238
0.00854373
0.00859176
0.00866495
0.00879276
0.00896585
0.00909241
0.00933748
0.00948754
0.00968793
0.0101863
0.00957256
0.00606067
0.00873092
0.0248804
0.0309677
0.0227442
0.0108433
0.00411079
0.0023756
0.00252217
0.00265066
0.00286584
0.00293336
0.00227159
0.00132148
0.000883654
0.000604026
0.129916
0.12921
0.159909
0.149165
0.122799
0.0862454
0.0679817
0.0611302
0.0602207
0.0606519
0.061716
0.0629864
0.0643565
0.0657675
0.0667177
0.0678594
0.068635
0.0696861
0.0701754
0.0712751
0.0722359
0.074243
0.076057
0.078768
0.0824973
0.0851704
0.0917764
0.0911125
0.0875984
0.0815344
0.0770054
0.0689822
0.0680917
0.075389
0.123984
0.196969
0.209277
0.227828
0.204838
0.179483
0.157696
0.0941404
0.0737136
0.0677694
0.0671292
0.0712437
0.0795328
0.0851549
0.090264
0.0985196
0.105519
0.109898
0.117268
0.126791
0.135395
0.143901
0.153477
0.163367
0.172654
0.176993
0.178249
0.178997
0.179988
0.181302
0.182706
0.184237
0.185607
0.187143
0.193547
0.203387
0.212947
0.215475
0.217438
0.25716
0.285958
0.262607
0.195148
0.13813
0.109883
0.060866
0.039948
0.0317433
0.0255283
0.0233729
0.0224695
0.0221425
0.0222493
0.0231602
0.0242223
0.0253949
0.0265703
0.0276014
0.0283486
0.0289735
0.0294727
0.029692
0.0297706
0.0297188
0.0292623
0.0287701
0.027931
0.0270688
0.0260772
0.0248611
0.0234507
0.0217142
0.0197855
0.0182975
0.0168443
0.0153273
0.0143409
0.0137285
0.0131016
0.0127967
0.0126433
0.0126143
0.0125511
0.0123169
0.0121506
0.0118331
0.0114443
0.0109778
0.0104621
0.00997992
0.00948186
0.00898438
0.00855976
0.0081766
0.00779036
0.00740528
0.00705148
0.00674119
0.00647919
0.00626827
0.00610492
0.00598286
0.00589549
0.00584018
0.00581486
0.00580316
0.00579329
0.00578087
0.00576771
0.00574615
0.00572268
0.00572076
0.00572749
0.00576762
0.00586859
0.00600084
0.00607557
0.00614552
0.00621209
0.0062181
0.00626442
0.00632461
0.00636898
0.00649366
0.0065805
0.00682229
0.0071761
0.00748039
0.00866659
0.00930141
0.00931849
0.0099142
0.0168607
0.0248247
0.0232777
0.0110064
0.00574137
0.00551883
0.00534835
0.00490577
0.00463374
0.004934
0.00627974
0.00803576
0.00832236
0.00468422
0.101445
0.196749
0.170489
0.106644
0.0596073
0.0464812
0.047234
0.0496578
0.0552544
0.0601357
0.0637574
0.0665966
0.0687381
0.0699609
0.0706528
0.0712831
0.071712
0.0719047
0.0722803
0.072997
0.0734397
0.0745219
0.0757707
0.0770684
0.0784196
0.0796056
0.0811126
0.0848089
0.0853172
0.0842979
0.0820125
0.0776992
0.0761455
0.0880913
0.183309
0.21569
0.214344
0.201305
0.151903
0.0944088
0.0695062
0.0584119
0.0559762
0.0573883
0.0646364
0.0677818
0.0713325
0.0732573
0.0748858
0.0796338
0.0863789
0.0925918
0.0999654
0.109846
0.119733
0.128113
0.136747
0.145676
0.154175
0.163228
0.171799
0.178045
0.181207
0.183145
0.185458
0.188268
0.191435
0.194526
0.197822
0.202791
0.207948
0.209471
0.211701
0.222897
0.21912
0.159208
0.086762
0.0626161
0.0446642
0.0303685
0.0261342
0.0248376
0.0245146
0.0251011
0.0275351
0.0309687
0.0348516
0.0396703
0.0431824
0.0455455
0.048453
0.0507664
0.0526921
0.0544603
0.0555582
0.056271
0.0565934
0.0566711
0.0563959
0.0555292
0.0545101
0.0532408
0.0518819
0.0498303
0.0476116
0.0444018
0.0397745
0.0347509
0.0287025
0.0237277
0.0195057
0.0165541
0.0143267
0.013054
0.0123206
0.0118435
0.011611
0.0116081
0.0117131
0.0118472
0.0119191
0.0119123
0.0117464
0.0113049
0.0107986
0.0102351
0.00966257
0.00907733
0.00846559
0.00786094
0.00730166
0.00682389
0.00643832
0.00612852
0.00586746
0.00563707
0.00542012
0.00523105
0.00507888
0.00500399
0.00499906
0.00501418
0.00507045
0.00514068
0.00524836
0.0053827
0.00548817
0.00577768
0.00607833
0.00608939
0.00603925
0.00592853
0.0057876
0.00570944
0.00571244
0.00571537
0.00567378
0.005572
0.00535025
0.00520171
0.00525672
0.00539445
0.00578369
0.0071967
0.00810081
0.010679
0.0241714
0.0244953
0.0172009
0.00961597
0.0090506
0.00971791
0.00948655
0.00749471
0.00555894
0.00450061
0.00429152
0.00455941
0.00463342
0.00362581
0.102647
0.0918661
0.0530729
0.0350988
0.0351606
0.040081
0.051881
0.0646846
0.0695482
0.0711243
0.0722268
0.0729157
0.0732051
0.0732711
0.0732314
0.0729721
0.0728262
0.0728364
0.0730166
0.0739165
0.075179
0.0765165
0.0801719
0.0832549
0.0834257
0.083095
0.0824635
0.0830442
0.0829826
0.0830995
0.0822832
0.0798273
0.0779202
0.0980211
0.204775
0.210122
0.189012
0.124216
0.0720438
0.0531565
0.0469246
0.0457243
0.0484984
0.0512671
0.0518605
0.0494852
0.0452607
0.0441112
0.0438401
0.0451525
0.0482816
0.0513213
0.0564671
0.064785
0.0753039
0.089072
0.104769
0.120041
0.135704
0.151043
0.163683
0.172674
0.178436
0.182598
0.18551
0.188872
0.194167
0.19844
0.199871
0.201363
0.202531
0.202143
0.201845
0.195501
0.148853
0.0714758
0.0460978
0.034645
0.0289495
0.026846
0.0266013
0.027785
0.0325463
0.0403683
0.0497133
0.0548626
0.0588804
0.0635787
0.0657206
0.0686701
0.0723994
0.0743319
0.0763369
0.0781206
0.0788719
0.0791464
0.0790118
0.0773705
0.0756
0.0739126
0.0708805
0.0688188
0.0670346
0.0649348
0.062863
0.0614864
0.0593402
0.0566143
0.0516979
0.0431896
0.0332062
0.0250341
0.0193087
0.0155245
0.0132142
0.0119681
0.0112797
0.0107898
0.0104015
0.01009
0.00986
0.00973177
0.00969861
0.00971433
0.00971361
0.00965298
0.00936576
0.00885565
0.00838379
0.00795988
0.00753542
0.00707107
0.0066165
0.00624156
0.00596357
0.00582523
0.00580214
0.00582712
0.00591047
0.00610923
0.0063362
0.00649735
0.00683964
0.00711293
0.00729625
0.00779469
0.00789882
0.00774669
0.00730914
0.00666744
0.00605592
0.00561858
0.00564607
0.00585083
0.00656399
0.00728488
0.00730785
0.00713185
0.00666364
0.00582357
0.00540753
0.00537679
0.0056235
0.00638153
0.00704076
0.00956675
0.0261987
0.0302424
0.0177355
0.00985279
0.0105651
0.0116424
0.0129659
0.0138459
0.0111117
0.00721138
0.00497854
0.00424861
0.00398872
0.0038115
0.0306939
0.0338849
0.0298279
0.0306154
0.0406974
0.0624778
0.0689898
0.0711659
0.0710879
0.0706637
0.0696993
0.0693411
0.069861
0.0711387
0.0717984
0.0718312
0.0715125
0.0709383
0.0708687
0.0714473
0.0729721
0.0744924
0.0775919
0.0847389
0.0904384
0.0911982
0.08989
0.0860558
0.0836317
0.0820901
0.081555
0.0796583
0.0785268
0.12267
0.203562
0.194745
0.132224
0.0660094
0.0443183
0.0381652
0.0371115
0.038636
0.0399584
0.0395443
0.035491
0.0325005
0.0313546
0.0309713
0.0309112
0.0315164
0.0325968
0.0345681
0.0387721
0.0444934
0.0530169
0.0654037
0.0812268
0.100313
0.121026
0.1417
0.160298
0.170031
0.174329
0.176791
0.179896
0.184633
0.191052
0.195354
0.196668
0.196908
0.195106
0.191765
0.182482
0.145436
0.0714166
0.0418008
0.032283
0.028873
0.0279965
0.0280042
0.0310593
0.0393572
0.0514414
0.0579343
0.0615103
0.0656473
0.068778
0.071221
0.075304
0.0807091
0.0866378
0.0937204
0.100079
0.104014
0.106178
0.106932
0.106895
0.103622
0.0980981
0.0932208
0.0860754
0.0785073
0.0744047
0.0709002
0.0675599
0.0657624
0.0637161
0.0621741
0.0603429
0.0571953
0.0501054
0.0366415
0.0254976
0.0180777
0.0135992
0.0117277
0.0111186
0.0107495
0.0104369
0.0101224
0.00979184
0.00942683
0.00901546
0.00858783
0.00825474
0.00795464
0.00759636
0.00719146
0.00676885
0.00645755
0.00632816
0.00627527
0.006165
0.00605541
0.00602223
0.00603367
0.00612591
0.00649444
0.00704037
0.00771913
0.0085364
0.00921658
0.0100016
0.0106674
0.0107707
0.0104478
0.00935937
0.00825467
0.0067742
0.00521573
0.00507843
0.00549547
0.00711311
0.0102173
0.0162799
0.0202455
0.0203939
0.0195101
0.017356
0.0127005
0.00805249
0.00568346
0.00520514
0.00524914
0.00572264
0.007338
0.0199241
0.028396
0.0194223
0.0108011
0.0100098
0.00988317
0.0110371
0.0150992
0.0167688
0.0140388
0.00808481
0.00520683
0.00430099
0.00416222
0.0200459
0.0316676
0.0294368
0.0398746
0.0638814
0.0697321
0.0698066
0.0669586
0.0627778
0.0609032
0.0624162
0.0651062
0.068784
0.0716554
0.0746597
0.0766287
0.0766611
0.0759854
0.0753942
0.075596
0.0759358
0.0763536
0.0779881
0.0842441
0.0930305
0.0967598
0.0966796
0.0939517
0.08655
0.0819839
0.0809879
0.0790625
0.0796216
0.159627
0.198263
0.164866
0.0809594
0.0420413
0.0323721
0.0306502
0.0312745
0.0328395
0.0326928
0.0299022
0.0268467
0.0257165
0.0251625
0.0247695
0.0244645
0.0243763
0.0244881
0.0254453
0.0274826
0.0304526
0.0349551
0.041644
0.0519072
0.0681577
0.0910017
0.117244
0.141478
0.160758
0.169739
0.174089
0.176478
0.178679
0.182312
0.186227
0.187507
0.187625
0.184172
0.171637
0.142029
0.0785978
0.0424714
0.0322018
0.0294142
0.0289078
0.0291515
0.0327105
0.0420795
0.0553535
0.0610302
0.0641738
0.0670859
0.070505
0.0747118
0.0807007
0.089517
0.101322
0.11401
0.123531
0.128938
0.131694
0.133739
0.134695
0.134901
0.133786
0.130171
0.124624
0.116908
0.104481
0.0907133
0.0805395
0.0727442
0.0679772
0.0648505
0.0629756
0.0616803
0.0601215
0.05737
0.0505538
0.0346768
0.0219775
0.0139567
0.00947411
0.0083727
0.00859236
0.00909798
0.00950239
0.00969839
0.00970248
0.00954114
0.00915681
0.0086435
0.00806321
0.00750807
0.00699379
0.00650856
0.00609293
0.00579211
0.00562493
0.00557341
0.00557751
0.00563288
0.00585301
0.00648663
0.00778878
0.00949229
0.0112081
0.0125514
0.0132696
0.0134728
0.0133779
0.0128094
0.0112629
0.00928767
0.00605495
0.0044675
0.00451943
0.00571425
0.0105934
0.0234576
0.0400383
0.0590197
0.0718059
0.0725234
0.0699758
0.0632036
0.0500411
0.031518
0.0168775
0.00895315
0.00603169
0.00543569
0.00568979
0.00978795
0.0200125
0.0178704
0.012031
0.0101669
0.00979384
0.010055
0.0132523
0.0189517
0.0194518
0.0151786
0.00799044
0.00529047
0.00470536
0.0209207
0.0405671
0.0343349
0.058029
0.069002
0.0681161
0.0608159
0.0539801
0.0547237
0.057148
0.0620757
0.0674322
0.0751992
0.0812371
0.0869022
0.0911649
0.0913669
0.0905792
0.0885727
0.085481
0.0819604
0.0798968
0.0801755
0.0849886
0.0946437
0.0992432
0.099544
0.0964144
0.0868319
0.0815337
0.0800667
0.07844
0.0882437
0.180809
0.190048
0.133359
0.0529442
0.0302273
0.0258133
0.0255381
0.0275366
0.0281915
0.0271116
0.0242135
0.0231151
0.0226882
0.0224096
0.0220059
0.0214253
0.0212536
0.0212622
0.0217029
0.0229529
0.0249266
0.0274772
0.0310077
0.0359846
0.0433818
0.0550545
0.0743369
0.103572
0.134307
0.154112
0.163771
0.168773
0.17216
0.174319
0.175239
0.175331
0.171884
0.159649
0.13231
0.0846112
0.0456855
0.0335467
0.0303574
0.0297672
0.0299818
0.0335033
0.0426416
0.0556687
0.0626065
0.0656481
0.0676776
0.0703088
0.0736246
0.0782104
0.0856422
0.0961579
0.108293
0.118917
0.125746
0.129572
0.1319
0.134611
0.136997
0.137881
0.137953
0.136077
0.131841
0.126253
0.117127
0.103855
0.089162
0.0775668
0.0696115
0.0651125
0.0627175
0.0612987
0.0601542
0.0583106
0.0547315
0.0454522
0.0285517
0.0163429
0.00921997
0.00559557
0.00446239
0.00460514
0.00567242
0.0072764
0.0084738
0.0091281
0.00935639
0.0093634
0.0092095
0.00868587
0.00795854
0.0072245
0.00655835
0.00601328
0.00564301
0.00546817
0.00543442
0.00546681
0.00569017
0.00662501
0.00941998
0.0121674
0.013774
0.0143786
0.0144484
0.0143456
0.0139731
0.01291
0.00986725
0.00543628
0.00379342
0.00391153
0.00596501
0.014815
0.0403407
0.0873513
0.128802
0.157086
0.169566
0.169865
0.16705
0.159334
0.145125
0.111919
0.0666913
0.0323297
0.0141683
0.00742208
0.00588948
0.00653147
0.011479
0.0142703
0.0127386
0.0107176
0.00992849
0.00996352
0.011747
0.0186914
0.0220645
0.0208021
0.0130658
0.00694638
0.0052554
0.0257367
0.0473214
0.0372463
0.0648709
0.0674399
0.0567103
0.0494058
0.0507951
0.0541404
0.061316
0.0718056
0.0845675
0.0962392
0.104993
0.11155
0.112153
0.110777
0.1072
0.103441
0.0966583
0.0883005
0.0842631
0.0842769
0.0887716
0.0969053
0.0999826
0.0997499
0.0955819
0.0858718
0.080568
0.0781561
0.0796163
0.115256
0.183957
0.176567
0.0983522
0.0371135
0.0235011
0.0215417
0.0221972
0.0243086
0.0245247
0.0232466
0.0217688
0.0213996
0.0212429
0.021058
0.0204939
0.020113
0.0200539
0.0201237
0.0205541
0.0215262
0.0229886
0.0247996
0.0268945
0.0295558
0.0330819
0.0381457
0.0462533
0.0600431
0.0828874
0.114695
0.137456
0.147513
0.154094
0.156891
0.157657
0.155383
0.143369
0.12144
0.0886907
0.0508538
0.036666
0.0320043
0.0308238
0.0307347
0.032835
0.0394843
0.0505203
0.061473
0.0657355
0.0677168
0.0690006
0.0704911
0.0724528
0.0752155
0.0794263
0.0850607
0.0906812
0.0948573
0.0968838
0.0982861
0.102511
0.111348
0.122573
0.130264
0.133468
0.134008
0.13109
0.126246
0.117996
0.105609
0.0905325
0.0780383
0.0692616
0.0635809
0.0597997
0.0578899
0.0573386
0.0566979
0.0547484
0.0482777
0.0327643
0.0189451
0.0102341
0.00535507
0.00297012
0.00213976
0.00210368
0.00250177
0.00411955
0.00630962
0.00788305
0.00879489
0.00922308
0.00935714
0.00935902
0.0091947
0.00850428
0.00743159
0.00643775
0.00579013
0.00552957
0.00551626
0.00571733
0.0068766
0.0103189
0.0130516
0.0143266
0.0146521
0.0146287
0.0143693
0.0133702
0.00996695
0.00509503
0.00324017
0.00327516
0.00548167
0.0172278
0.0544071
0.135636
0.184224
0.202219
0.206116
0.205071
0.202655
0.199486
0.195954
0.192824
0.186565
0.16974
0.114152
0.0499131
0.0197068
0.00886753
0.00679687
0.00740364
0.00999528
0.0113789
0.0106864
0.00990737
0.00998729
0.0116177
0.0174001
0.0231724
0.0233433
0.0188674
0.00952319
0.00598499
0.0304039
0.0555329
0.0420431
0.0670925
0.0570842
0.0459951
0.0476381
0.0520412
0.0630173
0.081243
0.102157
0.120529
0.132183
0.138018
0.136904
0.133501
0.126083
0.119058
0.110044
0.0963614
0.0867432
0.0835258
0.0846366
0.0902215
0.0962032
0.0983291
0.0970469
0.0907268
0.0824427
0.0786884
0.0779317
0.0860113
0.151609
0.183231
0.163379
0.0752906
0.0275459
0.0191186
0.0182972
0.0198464
0.0216832
0.0217755
0.0210462
0.020693
0.0206598
0.020714
0.0205243
0.0200338
0.0198649
0.0198631
0.0200229
0.0205043
0.0213852
0.0226104
0.0240695
0.0257994
0.0276747
0.0294274
0.0314812
0.0347117
0.0397869
0.048149
0.0628732
0.0856064
0.10765
0.116891
0.121436
0.122967
0.121612
0.107736
0.0810955
0.0549531
0.0403896
0.0347321
0.0326195
0.032141
0.0331584
0.0376772
0.046525
0.058334
0.0652442
0.0677061
0.0688043
0.0695266
0.0702396
0.0705475
0.0707217
0.0710725
0.0714746
0.0714415
0.0713781
0.072323
0.0754433
0.0822906
0.0934091
0.105172
0.114277
0.119672
0.121609
0.119799
0.114895
0.106279
0.0955635
0.0816142
0.0695927
0.0610314
0.0555466
0.0524215
0.0509938
0.0507446
0.0508113
0.0505804
0.0473857
0.0340531
0.0195773
0.0105168
0.00535422
0.00263848
0.00141975
0.00101595
0.000990034
0.0011402
0.00181724
0.00380009
0.00601167
0.00765839
0.00876127
0.00942746
0.00975721
0.00984363
0.00973936
0.00892305
0.00724442
0.00627011
0.00600329
0.00611203
0.00711305
0.010425
0.0131403
0.0142714
0.0144323
0.0142853
0.0134837
0.0103044
0.00512805
0.00289697
0.00273033
0.00420465
0.015014
0.0578678
0.163428
0.207009
0.218698
0.216959
0.212944
0.207405
0.202963
0.200031
0.197364
0.195946
0.195147
0.192618
0.182579
0.14484
0.0630805
0.0236517
0.0102705
0.00760414
0.00769389
0.00853758
0.00951143
0.00945653
0.010241
0.0125706
0.0168468
0.0226891
0.0241332
0.0222812
0.0134827
0.00721839
0.0360655
0.0597943
0.044061
0.065655
0.0459756
0.0442991
0.049054
0.0628775
0.0890747
0.122494
0.143237
0.152623
0.156753
0.157598
0.155902
0.151157
0.140169
0.125678
0.109309
0.0926196
0.0826191
0.0797548
0.081499
0.0856896
0.0883963
0.0891262
0.0860993
0.0803109
0.0760694
0.0747582
0.0787931
0.104852
0.169748
0.180421
0.142834
0.0542247
0.0212355
0.0159804
0.0157425
0.017796
0.0197324
0.019977
0.0199469
0.0200523
0.0204918
0.0205722
0.0204101
0.0200463
0.0199363
0.0200156
0.0204583
0.0214128
0.0228834
0.0246553
0.0262814
0.0273666
0.0280108
0.028862
0.0298948
0.0316323
0.0333796
0.0354774
0.0405682
0.0503823
0.0638156
0.0766436
0.0817509
0.0836609
0.0836581
0.0766706
0.057275
0.0436497
0.0381934
0.03531
0.0342073
0.0342324
0.0362294
0.0423107
0.0519855
0.0620049
0.0670759
0.0695395
0.0708629
0.0714005
0.071526
0.0714513
0.0708713
0.0697001
0.0686291
0.0683736
0.0690282
0.070894
0.074809
0.0823473
0.0927405
0.10256
0.10874
0.110605
0.109289
0.105369
0.0965477
0.0837944
0.0698437
0.057041
0.0491478
0.0442364
0.0416764
0.0411294
0.0415548
0.0423727
0.042742
0.0424225
0.0397677
0.0302947
0.0178021
0.00942205
0.00474195
0.00232237
0.00114189
0.000647742
0.000498857
0.00049448
0.000563449
0.000851368
0.00179969
0.00385107
0.0059473
0.00771356
0.00905788
0.00989626
0.0102354
0.0102505
0.00985737
0.0083329
0.00742117
0.00735218
0.00792084
0.0105658
0.0130094
0.0137346
0.0137282
0.0133096
0.0113268
0.00628869
0.00314927
0.00240746
0.00301798
0.0096363
0.0459018
0.160495
0.216963
0.228448
0.225598
0.216343
0.203952
0.192659
0.184421
0.181912
0.182471
0.184022
0.187405
0.189824
0.189335
0.182768
0.151913
0.0670263
0.0246778
0.0109507
0.00801013
0.00759771
0.00765345
0.00820115
0.0111122
0.0142404
0.0160641
0.0209235
0.0238164
0.0232703
0.0175827
0.00913766
0.0414828
0.0606838
0.0452069
0.0552306
0.0426595
0.0447185
0.0573843
0.0864416
0.127887
0.148862
0.157289
0.160725
0.161756
0.161274
0.158914
0.154158
0.144819
0.127757
0.106988
0.0883331
0.0798243
0.0774721
0.0780786
0.0806294
0.0818447
0.0820281
0.0801424
0.0770457
0.0750271
0.0746536
0.0834599
0.140499
0.17504
0.175803
0.124636
0.0390366
0.016895
0.0137153
0.0138099
0.0161209
0.0184183
0.0189755
0.0192471
0.0197904
0.0204752
0.0205794
0.0204441
0.0202262
0.0202267
0.0206864
0.0220431
0.0245838
0.028273
0.0325496
0.0346094
0.0354651
0.0356357
0.0343971
0.0329066
0.0325878
0.0325026
0.0327361
0.0342086
0.0372226
0.0425976
0.0537643
0.0638793
0.067089
0.0676966
0.0644454
0.0531277
0.0433823
0.0394626
0.0373419
0.0366396
0.0365231
0.0382233
0.0437022
0.0530428
0.0652483
0.0716103
0.0733341
0.0740794
0.074571
0.0751206
0.0755754
0.0758856
0.0761258
0.0766837
0.0783425
0.0813366
0.085819
0.0911863
0.0959015
0.0997078
0.103535
0.105216
0.103997
0.100777
0.0927778
0.0794258
0.0670552
0.053364
0.0453049
0.0399068
0.0356569
0.0321464
0.0304698
0.030438
0.0313407
0.031725
0.0310079
0.0261957
0.0171287
0.0104822
0.00580752
0.00301356
0.00156827
0.000843207
0.000489161
0.00033478
0.000287254
0.00028779
0.000320114
0.000443688
0.00081257
0.00185836
0.00375005
0.00587378
0.0078601
0.00940673
0.0102948
0.0105588
0.010486
0.0100174
0.00990871
0.0102551
0.011914
0.0130644
0.0131924
0.013016
0.0121099
0.00868662
0.00430871
0.00242107
0.00240544
0.00514831
0.0262722
0.128054
0.215582
0.235687
0.233662
0.222017
0.194098
0.174367
0.161086
0.151305
0.149783
0.150839
0.15382
0.15942
0.172486
0.182392
0.182973
0.177301
0.14626
0.0626763
0.0234211
0.0109796
0.00800989
0.00765802
0.0081102
0.0108918
0.0142026
0.0154702
0.0184295
0.0228514
0.0230664
0.0204313
0.0116968
0.0464778
0.0605955
0.045723
0.0489219
0.0417132
0.0482044
0.0718468
0.113578
0.142186
0.153982
0.159563
0.161396
0.161111
0.158278
0.154028
0.149502
0.142899
0.131178
0.112735
0.092995
0.0837905
0.0801318
0.0795156
0.080733
0.0813665
0.0812955
0.0799036
0.0777274
0.0765654
0.079009
0.107712
0.162468
0.175226
0.166992
0.0979604
0.0281872
0.0139631
0.0120762
0.0123282
0.0146456
0.0174535
0.0183711
0.0188389
0.0196166
0.0206069
0.020778
0.0207141
0.0206595
0.0209022
0.0222372
0.0257586
0.0324819
0.0405221
0.0449416
0.0473971
0.0487736
0.0491943
0.0490781
0.0471279
0.0441674
0.0403092
0.0365864
0.0348452
0.034286
0.0344217
0.0370365
0.0430504
0.0552833
0.0628659
0.0646543
0.0613041
0.0488657
0.0436497
0.0411051
0.038748
0.0380625
0.0387833
0.0421023
0.0489798
0.0595775
0.0701068
0.0757531
0.079009
0.081345
0.0833472
0.085258
0.0869848
0.0889931
0.0903072
0.0919591
0.0932895
0.0947917
0.0961101
0.0970809
0.0973579
0.0959847
0.0929338
0.0871292
0.0790702
0.0666455
0.0569957
0.0488806
0.0439431
0.039147
0.0341191
0.0294092
0.0234124
0.018469
0.0163541
0.0158796
0.0153886
0.0137601
0.00943714
0.00619048
0.00402996
0.0026
0.00160569
0.000959131
0.000596357
0.000396342
0.000284686
0.000225275
0.00020363
0.000203168
0.00021621
0.000265547
0.000403607
0.000752937
0.00162619
0.00335755
0.00566569
0.00797881
0.00971015
0.0106796
0.01105
0.0114187
0.0122989
0.0128547
0.0128872
0.0127454
0.0122464
0.010693
0.00636296
0.00296801
0.00210385
0.00286861
0.0113539
0.0698729
0.197072
0.24017
0.24228
0.231575
0.197051
0.164161
0.144947
0.133465
0.124111
0.120633
0.121209
0.123347
0.127691
0.135536
0.156559
0.174645
0.176412
0.169961
0.133022
0.0537153
0.0207653
0.010473
0.0081531
0.00830112
0.0101376
0.0136153
0.0146357
0.0163304
0.0210311
0.0225483
0.0213924
0.0147964
0.0493369
0.0604982
0.0461786
0.0458786
0.0415213
0.0530781
0.0847628
0.124178
0.144344
0.152002
0.153691
0.153229
0.149763
0.144221
0.139975
0.13781
0.135226
0.130719
0.124578
0.116767
0.107779
0.100326
0.0944772
0.0909926
0.088857
0.0874068
0.0861869
0.0858247
0.0889696
0.106843
0.149725
0.170231
0.172941
0.149475
0.0610229
0.0202417
0.0118812
0.0108699
0.0113348
0.0134847
0.0163566
0.0177888
0.0184698
0.0193958
0.0207733
0.0211385
0.0212599
0.0214693
0.0224501
0.0257432
0.0328356
0.0426044
0.0492466
0.0523341
0.054433
0.0554817
0.0559306
0.0560274
0.0555431
0.0545632
0.0533956
0.0516709
0.0488714
0.0436095
0.03771
0.0350337
0.0340658
0.0343554
0.0393905
0.0531214
0.0642356
0.0670796
0.0649661
0.0548342
0.0449173
0.0413511
0.0405857
0.041144
0.0428404
0.0457953
0.0517659
0.0601813
0.0680286
0.0738717
0.0784587
0.0810516
0.0828417
0.0846081
0.086027
0.087467
0.087305
0.0864611
0.0847366
0.081674
0.0770412
0.071627
0.0653495
0.0581408
0.0505019
0.0461348
0.0434679
0.0409684
0.0374436
0.0318034
0.0239837
0.0163867
0.0111384
0.00778438
0.00599905
0.00514976
0.00455684
0.00374693
0.00284528
0.00203897
0.00141849
0.00100179
0.000746885
0.000576021
0.000439909
0.000338424
0.000264462
0.000213257
0.000180444
0.000165563
0.00016358
0.000167646
0.00018531
0.000234382
0.000352104
0.000623994
0.00129667
0.00322575
0.00587846
0.00805684
0.00986984
0.0112345
0.0118014
0.0118286
0.0117194
0.0114159
0.010609
0.00785851
0.00374095
0.00185791
0.00183006
0.00437433
0.0255428
0.134755
0.230813