/*--------------------------------*- C++ -*----------------------------------*\
  =========                 |
  \\      /  F ield         | OpenFOAM: The Open Source CFD Toolbox
   \\    /   O peration     | Website:  https://openfoam.org
    \\  /    A nd           | Version:  9
     \\/     M anipulation  |
\*---------------------------------------------------------------------------*/
FoamFile
{
    format      ascii;
    class       volScalarField;
    location    "0.067";
    object      nut;
}
// * * * * * * * * * * * * * * * * * * * * * * * * * * * * * * * * * * * * * //

dimensions      [0 2 -1 0 0 0 0];

internalField   nonuniform List<scalar> 
12225
(
0
0
0
0
0
0
0
0
0
0
0
0
0
0
0
0
0
0
0
0
0
0
0
0
0
0
0
0
0
0
0
0
0
0
0
0
0
0
0
0
0
0
0
0
0
0
0
0
0
0
0
0
0
0
5.08652e-10
7.69636e-09
1.96881e-09
0
0
0
0
0
0
0
0
0
0
0
0
0
0
0
0
0
0
0
5.63108e-07
1.19153e-06
1.58774e-06
1.84886e-06
1.56921e-06
6.58063e-07
1.42567e-07
0
0
0
0
1.261e-08
1.32934e-08
4.12462e-09
0
0
0
0
3.12564e-07
1.51155e-06
2.11078e-06
1.80495e-06
8.05304e-07
3.8146e-07
3.99259e-07
2.48925e-07
3.34686e-07
3.87807e-07
3.68153e-07
3.12463e-07
2.0031e-07
0
0
0
0
0
9.37906e-08
5.72213e-07
7.76471e-07
0
0
0
0
6.52474e-08
1.37163e-07
1.23394e-07
9.58315e-08
7.89058e-08
6.75453e-08
5.71513e-08
0
0
0
0
1.18603e-08
0
0
0
0
0
0
0
7.19499e-08
3.40593e-08
0
0
3.34842e-08
7.93361e-08
0
1.28663e-07
1.02787e-06
3.67065e-07
1.29868e-07
0
0
0
0
0
0
0
3.89066e-08
0
0
0
0
0
0
6.58397e-07
2.57243e-06
9.59436e-07
0
0
0
0
0
0
1.87844e-07
3.61054e-07
4.92058e-07
0
0
0
0
0
1.84896e-07
9.92518e-07
1.16499e-06
0
0
0
0
1.64156e-08
2.90036e-07
3.75347e-07
2.18525e-07
1.00881e-07
0
0
0
0
0
0
2.81548e-08
6.66222e-07
1.2487e-07
0
0
0
6.10512e-08
1.32157e-06
1.08328e-06
1.12609e-06
3.85085e-07
0
0
0
0
0
4.78404e-07
1.34089e-06
1.69177e-07
3.93402e-07
3.0403e-07
0
0
0
5.91177e-07
2.05419e-06
2.18228e-06
2.62891e-06
2.46292e-06
8.14882e-07
1.7106e-09
0
0
0
0
0
6.76632e-07
8.03558e-07
1.27282e-07
0
0
0
0
2.14431e-06
2.62706e-06
3.20315e-06
3.67481e-06
3.38643e-06
2.70411e-06
1.28433e-06
1.33094e-07
0
0
0
1.03553e-06
8.93011e-07
0
0
0
5.47637e-09
2.57753e-07
2.22672e-06
3.70508e-06
4.08414e-06
3.96214e-06
3.46135e-06
2.6127e-06
1.71157e-06
8.02725e-07
4.12516e-09
0
0
1.38379e-06
1.28894e-06
0
0
2.62531e-07
2.13192e-07
0
0
1.47026e-07
9.85525e-08
2.46355e-07
5.92519e-07
1.07362e-06
1.59548e-06
2.0867e-06
2.43166e-06
2.46693e-06
2.1373e-06
6.8095e-07
2.25371e-07
0
3.38801e-07
5.42904e-07
3.64557e-07
0
0
0
0
0
1.04895e-06
2.58351e-06
3.79087e-06
4.77771e-06
5.35462e-06
4.82569e-06
2.74093e-06
0
0
0
0
4.93357e-07
4.55377e-07
0
0
0
0
1.4529e-07
3.93897e-07
6.87966e-07
8.3892e-07
9.44042e-07
1.18145e-06
1.42063e-06
1.44788e-06
6.40073e-07
0
0
0
0
2.46173e-06
2.46456e-06
9.76073e-07
0
0
0
0
0
0
0
0
0
2.77406e-08
1.25574e-06
1.37678e-06
0
0
0
0
1.1412e-06
7.75308e-07
4.17167e-07
0
0
0
0
1.13581e-07
0
0
0
0
1.86875e-06
1.94788e-06
1.29542e-06
2.46014e-07
1.98954e-07
8.70036e-07
4.4543e-07
3.48835e-07
2.69156e-07
0
0
5.99945e-09
3.02766e-07
4.62208e-07
4.37561e-07
2.29113e-07
0
0
1.50334e-06
3.568e-07
3.9719e-08
5.07666e-07
2.1404e-07
0
0
0
0
0
0
0
1.2279e-07
3.71338e-07
4.91623e-07
3.45044e-07
0
0
0
0
2.64056e-07
5.81046e-07
0
0
0
0
0
0
0
0
0
0
3.042e-07
2.44155e-07
0
0
0
1.62037e-07
1.77134e-06
1.72923e-06
0
0
0
0
0
0
0
0
0
0
0
0
0
0
3.24269e-07
1.06559e-06
2.45233e-06
2.68801e-06
3.23113e-07
1.26361e-08
0
0
0
0
0
0
0
0
0
0
0
0
8.37968e-07
7.0796e-07
0
1.5182e-07
5.51312e-07
5.36047e-07
3.44707e-07
1.29189e-07
0
0
0
0
0
0
0
0
0
0
1.53002e-07
4.88625e-08
0
0
0
0
0
0
0
0
0
0
0
0
0
0
0
0
0
0
0
0
0
0
0
0
0
0
0
0
0
9.71738e-11
1.63617e-10
4.40923e-11
0
0
0
0
0
0
0
0
0
0
0
0
0
0
0
0
0
0
0
0
0
0
0
0
0
0
0
0
0
0
0
0
0
0
0
0
0
0
0
4.31248e-06
0
0
0
6.06536e-07
3.68296e-06
3.09837e-06
1.07049e-06
0
0
0
0
0
0
0
0
0
0
0
3.10584e-08
3.75777e-07
6.25068e-07
7.14679e-07
5.69058e-07
5.69066e-07
2.97442e-07
0
0
0
0
0
0
6.1371e-06
2.81568e-06
0
2.32096e-05
5.28615e-05
5.28052e-05
4.21954e-05
3.04144e-05
1.2087e-05
3.62277e-06
7.77198e-07
1.07865e-07
1.87365e-07
3.31187e-07
3.56277e-07
2.69394e-07
9.72661e-08
0
0
0
0
0
0
5.466e-07
1.29885e-06
1.58854e-06
0
0
0
0
0
0
0
0
1.03994e-05
2.96649e-05
3.94208e-05
2.85924e-05
1.09358e-05
4.85286e-06
5.3817e-06
5.35256e-06
2.70507e-06
0
0
0
0
0
7.31597e-07
4.7902e-07
3.28798e-07
3.52425e-07
2.84122e-07
2.21625e-07
1.62776e-07
1.00645e-07
4.67195e-08
0
0
0
0
0
0
0
0
0
0
0
0
0
0
0
0
0
0
0
0
0
0
0
0
0
0
0
0
0
2.62747e-07
2.73515e-07
2.29978e-07
1.84371e-07
1.47155e-07
1.18856e-07
9.63486e-08
7.84602e-08
6.40417e-08
5.11558e-08
3.91147e-08
2.71978e-08
1.56933e-08
5.07043e-09
0
0
0
0
0
0
0
0
0
0
0
0
0
0
0
0
0
0
0
0
0
0
0
0
0
0
0
0
0
0
0
0
0
2.71834e-07
2.06474e-06
1.06231e-05
8.73903e-06
1.8639e-06
6.91866e-08
0
0
0
0
0
0
1.60742e-06
3.82458e-07
6.9143e-07
9.3932e-06
1.79445e-06
0
0
1.69347e-06
4.01101e-06
3.8836e-06
1.92136e-06
0
0
0
0
0
0
0
0
0
0
0
3.18531e-07
7.73236e-07
1.10971e-06
1.24933e-06
8.66202e-07
8.56701e-07
7.37773e-07
0
0
0
0
0
0
0
0
0
3.29063e-07
2.27352e-06
2.2148e-06
2.77169e-07
1.037e-06
2.84196e-06
2.24993e-06
2.8097e-07
0
0
0
1.55814e-07
1.65344e-07
7.08057e-08
0
0
0
2.29881e-07
7.88468e-07
1.60584e-06
2.4923e-06
3.03164e-06
2.74362e-06
1.36081e-06
0
0
0
0
0
0
0
1.74036e-05
3.63343e-05
2.863e-05
1.42127e-05
3.74743e-06
2.36082e-07
2.34608e-06
0
0
0
0
0
0
0
8.25334e-07
4.2103e-07
3.2614e-07
3.99713e-07
3.53009e-07
3.01092e-07
2.41928e-07
1.62347e-07
7.87001e-08
0
0
0
0
0
0
0
0
0
0
0
0
0
0
0
0
0
0
0
0
0
0
0
0
0
0
0
0
0
4.78112e-08
1.94405e-07
2.47938e-07
2.56094e-07
2.43152e-07
2.2325e-07
2.00862e-07
1.7785e-07
1.54897e-07
1.3206e-07
1.09974e-07
8.98549e-08
7.28696e-08
5.93555e-08
4.79998e-08
3.66723e-08
2.45661e-08
1.31016e-08
4.29753e-09
0
0
0
0
0
0
0
0
0
0
0
0
0
0
0
0
0
0
0
0
0
0
0
0
0
0
0
0
2.94905e-07
2.93489e-06
7.22142e-06
8.75851e-06
4.35711e-06
3.37903e-07
0
0
0
0
0
0
1.4757e-06
8.94864e-07
1.66783e-05
1.07664e-05
5.93165e-06
3.30168e-06
2.29325e-06
3.37816e-06
5.0727e-06
4.52403e-06
1.20883e-06
0
0
0
0
0
0
0
0
0
0
0
3.61376e-07
2.62014e-06
4.56481e-06
5.16771e-06
2.61788e-06
9.9811e-07
2.12119e-06
0
0
0
2.42132e-08
0
0
0
0
0
0
0
1.63207e-06
5.23386e-07
0
1.21379e-06
7.08963e-07
0
0
0
0
0
0
0
4.15965e-07
9.81476e-07
1.56251e-06
2.10679e-06
2.5205e-06
2.70921e-06
2.65829e-06
2.37612e-06
1.90426e-06
1.33755e-06
7.69676e-07
2.37553e-07
0
0
0
0
0
1.32683e-06
4.16082e-06
4.07928e-06
1.68907e-06
0
0
0
0
0
0
0
0
0
3.96873e-07
1.85271e-06
8.57471e-07
1.151e-06
1.46579e-06
1.33481e-06
1.19823e-06
9.87265e-07
6.70723e-07
3.09557e-07
0
0
0
0
0
0
0
0
0
0
0
0
0
0
0
0
0
0
0
0
0
0
0
0
0
0
0
0
0
0
0
0
0
4.52794e-08
1.06533e-07
1.6192e-07
2.05145e-07
2.28016e-07
2.23364e-07
1.94667e-07
1.59199e-07
1.38243e-07
1.43241e-07
1.68267e-07
1.93361e-07
2.00324e-07
1.88779e-07
1.7095e-07
1.54654e-07
1.39885e-07
1.23921e-07
1.06177e-07
9.12078e-08
8.13825e-08
7.44724e-08
7.08924e-08
6.64886e-08
5.7167e-08
3.96406e-08
7.33192e-09
0
0
0
0
0
0
0
0
0
6.04618e-09
0
0
1.47762e-07
0
0
0
2.5523e-06
4.18947e-06
3.75314e-06
1.74077e-06
0
0
0
0
0
0
0
0
5.2935e-07
3.56574e-07
9.59378e-06
7.43788e-06
4.33978e-06
3.03178e-06
3.27691e-06
3.96693e-06
3.13256e-06
0
0
0
0
0
0
0
0
0
0
0
0
0
0
0
0
0
1.72309e-06
5.69046e-06
9.35476e-06
6.49004e-06
9.91491e-07
3.86847e-07
0
0
0
0
0
0
0
0
0
0
0
0
0
0
0
0
0
0
0
0
4.99984e-07
1.02172e-06
1.45254e-06
1.73686e-06
1.87476e-06
1.89292e-06
1.75541e-06
1.43011e-06
9.30313e-07
3.11863e-07
0
0
0
0
0
0
0
0
0
0
0
0
2.0787e-07
0
0
0
0
0
5.2259e-07
0
5.58758e-06
8.52249e-06
5.06466e-06
3.22042e-06
1.6816e-06
9.56873e-07
6.73304e-07
3.14806e-07
1.4808e-07
0
0
0
0
0
0
0
0
0
0
0
0
0
0
0
0
0
0
0
0
0
0
0
0
0
0
0
0
0
0
0
0
0
0
0
0
0
0
2.68944e-08
6.12684e-08
3.09966e-08
0
0
0
0
0
2.99095e-11
3.81737e-08
1.32453e-07
5.8468e-07
1.18633e-06
9.03911e-07
1.85116e-07
0
0
0
0
0
0
0
0
0
0
0
0
0
0
0
0
0
0
0
1.22306e-07
1.40053e-06
0
0
9.81587e-07
3.3856e-06
4.2917e-06
2.46288e-06
0
0
0
1.90456e-07
0
0
0
0
0
1.94735e-07
0
1.17709e-06
2.29983e-06
3.16829e-06
4.35884e-06
1.57249e-06
0
0
0
0
0
0
0
0
0
0
0
0
6.35906e-07
1.63066e-05
1.46625e-05
1.66891e-05
1.5616e-05
9.6254e-06
1.23736e-05
1.49635e-05
1.67157e-05
1.79063e-05
1.39358e-05
2.39391e-06
0
0
0
0
0
0
0
0
0
0
0
0
0
0
0
0
0
0
0
0
1.1392e-07
4.27926e-07
7.44239e-07
1.13203e-06
1.4675e-06
1.66768e-06
1.72349e-06
1.58872e-06
1.2317e-06
6.21366e-07
0
0
0
0
0
0
0
0
0
0
0
0
9.72339e-07
8.11138e-07
0
0
0
0
7.87146e-07
3.80969e-06
0
2.29851e-07
1.23931e-06
6.80642e-07
4.66314e-07
1.1524e-07
7.12965e-08
0
0
0
0
0
0
0
0
0
3.361e-08
9.34163e-08
1.10422e-07
9.37201e-08
3.16265e-08
0
0
0
0
0
0
0
0
0
0
0
0
0
0
0
0
0
0
0
0
0
0
0
0
0
0
0
0
0
0
0
0
0
0
0
0
0
0
0
1.02739e-06
6.52608e-07
0
0
0
0
0
0
0
0
0
0
0
0
0
0
0
0
0
0
0
0
0
1.04419e-06
0
0
6.21684e-07
2.4122e-06
2.90033e-06
1.0726e-06
0
0
0
0
1.99678e-07
0
0
1.48871e-07
4.2704e-07
4.8718e-07
1.14333e-07
9.16229e-08
4.50994e-07
1.56294e-06
5.63381e-06
0
0
0
0
0
0
0
0
0
0
0
0
0
1.14622e-05
2.4658e-05
1.52163e-05
1.62958e-05
2.52006e-05
1.91295e-05
1.4411e-05
1.46287e-05
1.53138e-05
1.51195e-05
1.26974e-05
4.70376e-06
0
0
0
0
0
0
0
0
0
0
0
0
0
0
0
0
0
7.99609e-09
1.20855e-07
1.07385e-07
8.46183e-08
9.722e-08
1.46918e-07
3.14006e-07
6.86956e-07
1.21497e-06
1.71588e-06
1.96943e-06
1.86464e-06
1.38948e-06
5.50377e-07
0
0
0
0
0
0
0
0
0
0
0
5.93074e-06
1.13463e-06
0
0
0
1.30482e-06
1.19803e-06
0
0
0
0
6.71594e-08
1.26181e-07
0
0
0
0
0
0
0
0
0
0
0
0
4.64911e-08
1.44524e-07
2.4408e-07
3.19876e-07
3.65708e-07
3.6385e-07
2.86696e-07
1.11936e-07
0
0
0
0
0
0
0
0
0
0
0
0
0
0
0
0
0
0
0
0
0
0
0
0
0
0
0
0
0
0
0
0
0
0
2.4001e-07
1.55512e-06
1.01969e-06
2.74033e-07
0
0
0
0
0
0
0
0
0
0
0
0
0
0
0
0
0
0
0
0
3.02922e-07
0
0
0
5.4093e-07
1.09874e-06
0
0
0
0
0
5.73365e-07
8.94954e-07
1.0121e-06
1.27489e-06
1.2214e-06
9.3419e-07
2.62481e-07
0
2.62696e-08
6.64111e-07
6.75957e-06
0
0
0
0
7.25393e-08
0
0
0
0
0
0
0
0
1.94097e-05
2.88265e-05
1.55594e-05
1.26824e-05
1.75191e-05
1.98555e-05
1.53356e-05
1.39563e-05
1.36816e-05
1.30313e-05
1.13667e-05
6.23744e-06
0
0
0
0
0
0
0
0
0
0
0
0
0
0
0
9.02207e-08
5.87845e-07
6.83713e-07
4.7733e-07
1.67754e-07
0
0
0
0
0
1.43507e-07
7.81694e-07
1.76921e-06
2.75818e-06
3.07658e-06
2.55219e-06
1.48559e-06
0
0
0
0
0
0
0
0
0
0
8.51813e-06
7.16623e-06
3.01728e-06
3.86515e-06
5.43461e-06
1.41617e-06
1.54389e-07
0
0
0
0
0
0
0
0
0
0
0
0
0
0
0
0
0
0
0
0
0
0
0
4.39008e-09
1.0857e-07
1.28861e-07
8.52615e-08
0
0
0
0
0
0
0
0
0
0
0
0
0
0
0
0
0
0
0
0
0
0
0
0
0
0
0
0
0
0
0
0
0
1.65076e-06
2.20937e-06
1.47091e-06
6.52395e-07
2.25169e-08
0
0
0
0
0
0
0
0
0
0
0
0
0
0
0
0
0
0
0
0
0
0
0
0
0
0
0
0
0
0
1.01732e-06
2.01983e-06
2.3304e-06
2.58092e-06
2.29804e-06
1.51108e-06
4.35856e-07
0
0
3.17479e-07
2.96316e-06
0
0
0
0
0
0
0
0
0
0
0
0
9.91498e-06
3.42788e-05
2.83242e-05
1.45706e-05
1.06397e-05
1.33771e-05
1.93472e-05
1.90288e-05
1.68932e-05
1.55415e-05
1.43765e-05
1.25383e-05
7.72801e-06
0
0
0
0
0
0
0
0
0
0
0
0
0
0
2.82545e-07
1.0447e-06
1.25231e-06
9.53989e-07
4.36514e-07
0
0
0
0
0
0
0
0
2.2826e-07
1.40949e-06
3.52073e-06
5.78396e-06
5.80062e-06
3.58691e-06
0
0
0
0
0
0
0
0
2.81675e-07
5.0282e-06
8.90762e-06
1.19961e-05
8.91815e-06
2.95695e-06
9.06473e-07
4.00915e-08
0
1.03933e-07
0
0
0
0
0
0
0
0
0
0
0
0
0
0
0
0
0
0
0
0
0
0
0
0
0
0
0
0
0
0
0
0
0
0
0
0
0
0
0
0
0
0
0
0
0
0
0
0
0
0
0
0
0
0
0
0
0
1.20157e-06
3.10475e-06
2.9557e-06
2.0595e-06
1.15965e-06
4.63178e-07
0
0
0
0
0
0
0
0
0
0
0
0
0
0
0
0
0
0
0
0
0
0
0
0
0
0
0
0
0
0
2.07239e-06
3.4051e-06
3.74766e-06
3.76456e-06
3.45063e-06
2.2087e-06
6.73964e-07
0
0
8.63545e-08
1.1265e-06
0
0
0
0
0
0
0
0
0
0
3.24511e-06
1.77445e-05
2.69944e-05
3.2641e-05
2.67222e-05
1.46466e-05
1.00281e-05
1.1557e-05
1.69846e-05
1.95166e-05
1.82323e-05
1.68635e-05
1.61529e-05
1.5355e-05
1.23285e-05
0
0
0
0
0
0
0
0
0
0
0
0
0
2.46786e-07
1.3527e-06
1.79323e-06
1.49071e-06
7.29286e-07
9.06255e-09
0
0
0
0
0
0
0
0
0
0
9.15955e-07
3.19707e-06
8.19909e-06
1.19256e-05
1.45366e-06
0
0
0
0
0
0
4.5412e-07
1.42998e-06
2.83769e-06
4.75135e-06
6.12789e-06
4.37835e-06
1.9555e-06
6.56965e-07
1.13114e-07
4.14749e-07
5.88503e-07
0
0
0
0
0
0
0
0
0
0
0
0
0
0
0
0
0
0
0
0
0
0
0
0
0
0
0
0
0
0
1.09854e-08
6.65735e-07
8.77299e-07
4.99187e-07
5.17676e-08
0
0
0
0
0
0
0
0
0
0
0
0
0
0
0
0
0
0
0
0
8.10895e-08
1.11492e-06
3.03966e-06
3.99166e-06
3.60799e-06
2.66784e-06
1.73905e-06
1.11841e-06
7.87045e-07
3.00631e-07
0
0
0
0
0
0
0
0
0
0
0
0
0
0
0
0
0
0
0
0
0
0
0
0
0
0
0
1.61272e-06
3.98435e-06
5.03228e-06
5.11629e-06
4.7851e-06
4.3237e-06
3.02913e-06
9.71339e-07
0
0
0
0
0
0
0
0
0
0
0
0
0
4.78739e-06
2.01969e-05
2.71804e-05
2.98427e-05
3.14617e-05
2.8563e-05
1.78413e-05
1.13951e-05
1.11276e-05
1.36576e-05
1.42692e-05
1.26611e-05
1.14295e-05
1.12607e-05
1.21717e-05
1.4154e-05
4.52288e-06
0
0
0
0
0
0
0
0
0
0
0
0
1.51651e-06
2.2942e-06
2.16486e-06
1.20076e-06
1.72949e-07
0
0
0
0
0
0
0
0
0
0
0
3.19947e-08
8.56537e-07
2.66128e-06
6.66989e-06
2.86348e-06
0
0
0
0
6.98147e-07
1.53981e-06
2.01367e-06
2.04748e-06
2.24886e-06
2.90651e-06
3.34605e-06
2.60935e-06
1.03296e-06
4.91586e-09
1.83126e-07
1.21902e-06
1.3147e-06
0
0
0
2.12877e-07
0
0
0
0
0
0
0
0
0
0
0
0
0
0
0
0
0
3.01104e-08
1.93631e-07
2.96094e-07
3.16633e-07
2.8283e-07
2.3454e-07
1.51019e-07
7.10421e-08
2.55403e-07
1.0269e-06
1.90541e-06
1.95618e-06
1.28641e-06
5.93604e-07
1.34748e-07
0
0
0
0
0
0
0
0
0
0
0
0
0
0
0
0
0
0
0
4.91353e-07
1.77551e-06
3.36563e-06
4.2683e-06
4.06924e-06
3.26008e-06
2.68215e-06
3.49916e-06
4.39275e-06
2.27625e-06
4.39002e-07
0
0
0
0
0
0
0
0
0
0
0
1.89648e-06
5.0199e-06
5.16385e-06
3.73447e-06
0
0
0
0
0
4.03529e-07
0
1.39214e-06
0
0
1.63799e-06
4.48507e-06
6.12355e-06
6.405e-06
6.23082e-06
5.63799e-06
4.8895e-06
3.77983e-06
1.29064e-06
0
0
0
0
1.77367e-06
4.62746e-06
2.79837e-06
3.1254e-06
8.01123e-06
2.21406e-05
4.70975e-05
6.23345e-05
5.38907e-05
3.65607e-05
2.31412e-05
1.60429e-05
1.36723e-05
1.504e-05
2.06059e-05
2.16067e-05
1.36919e-05
9.18471e-06
7.86458e-06
6.96916e-06
5.91998e-06
5.30043e-06
5.39803e-06
6.53492e-06
9.07986e-06
1.20542e-05
1.34349e-05
2.24825e-06
0
0
0
0
0
0
0
0
0
1.655e-06
3.00637e-06
3.18821e-06
2.15908e-06
6.6166e-07
0
0
0
0
0
0
0
0
0
0
0
0
8.6689e-08
6.95076e-07
1.64343e-06
2.79784e-06
9.24594e-08
0
0
0
4.42154e-08
1.47456e-06
2.21002e-06
2.53232e-06
2.4631e-06
2.3672e-06
2.48444e-06
2.40569e-06
1.46977e-06
0
0
0
1.28273e-06
2.37307e-06
1.17573e-06
0
0
0
0
0
0
0
0
0
0
0
0
0
0
0
0
0
0
0
4.1713e-08
2.92985e-07
5.38284e-07
7.7577e-07
9.42458e-07
1.02817e-06
1.05318e-06
1.00462e-06
9.7318e-07
1.33078e-06
2.25168e-06
2.6932e-06
2.01034e-06
1.06516e-06
5.17571e-07
1.99773e-07
0
0
0
0
0
0
0
0
0
0
0
0
0
0
0
0
0
0
0
3.25467e-07
1.6235e-06
3.13691e-06
4.22015e-06
4.49231e-06
4.45472e-06
6.34703e-06
6.02331e-06
3.1274e-06
1.17266e-06
1.58008e-07
0
0
0
0
0
0
0
0
0
0
4.30559e-06
7.17879e-06
7.6958e-06
6.35198e-06
4.88644e-06
2.68917e-06
0
0
0
0
9.97178e-07
1.8268e-06
4.26285e-06
1.55321e-06
1.9832e-06
3.7255e-06
5.77816e-06
7.04067e-06
7.17318e-06
6.89815e-06
6.3368e-06
5.28066e-06
4.28595e-06
1.59656e-06
0
0
0
0
3.14418e-06
5.33909e-06
8.46169e-06
1.46985e-05
2.1261e-05
2.91684e-05
4.01894e-05
5.54421e-05
7.38664e-05
6.94656e-05
0
0
0
0
0
0
0
8.86883e-07
2.05674e-06
1.95051e-06
2.09326e-06
2.63401e-06
3.72694e-06
5.53786e-06
8.28284e-06
1.32717e-05
9.03965e-06
3.30551e-06
7.04821e-07
0
0
0
0
0
0
0
1.48018e-06
4.31453e-06
5.02269e-06
3.9684e-06
1.75215e-06
1.51556e-07
0
0
0
0
0
0
0
0
2.64892e-07
6.80889e-07
1.08718e-06
1.56398e-06
2.19515e-06
3.08205e-06
4.23939e-06
4.76246e-06
1.55446e-06
0
0
0
0
7.9253e-07
1.77085e-06
2.34701e-06
2.63172e-06
2.51874e-06
2.42862e-06
2.03427e-06
6.69029e-07
0
0
0
0
9.31165e-07
1.75869e-06
1.1557e-06
4.05216e-07
2.5468e-07
3.08784e-07
2.73902e-07
1.66364e-07
0
0
0
0
0
0
0
0
0
0
0
1.14536e-08
2.55259e-07
6.09573e-07
1.09159e-06
1.69799e-06
2.28252e-06
2.66003e-06
2.8176e-06
2.67901e-06
2.2129e-06
1.62388e-06
1.36369e-06
1.53618e-06
1.42618e-06
8.106e-07
3.48399e-07
1.49238e-07
5.2907e-08
0
0
0
0
0
0
0
0
0
0
0
0
0
0
0
0
0
0
0
0
8.17638e-07
2.34569e-06
3.77484e-06
5.80593e-06
8.05543e-06
5.96231e-06
3.33721e-06
1.45255e-06
8.55445e-07
0
0
0
0
0
0
0
0
0
0
1.81739e-06
4.14679e-06
6.40487e-06
6.23777e-06
3.06064e-06
1.51781e-07
0
0
0
0
0
0
3.30369e-06
1.80269e-06
1.68186e-06
2.55977e-06
4.07643e-06
5.75199e-06
7.04895e-06
7.26359e-06
7.20458e-06
6.81047e-06
5.60714e-06
4.51547e-06
1.89656e-06
0
0
0
0
0
0
1.01218e-06
3.81593e-06
7.28116e-06
1.2019e-05
1.88426e-05
2.93774e-05
4.63635e-05
6.66997e-05
0
0
0
0
0
0
0
0
0
0
0
0
0
5.7992e-07
7.94901e-06
1.50598e-05
9.6528e-06
5.27342e-06
2.8815e-06
1.34312e-06
0
0
0
0
0
4.11505e-07
3.86156e-06
8.22125e-06
7.31149e-06
3.85221e-06
1.02906e-06
0
0
0
0
0
0
0
5.29121e-07
1.25722e-06
2.15133e-06
3.13194e-06
4.18341e-06
5.36274e-06
6.70133e-06
8.07532e-06
8.5662e-06
5.99233e-06
2.25765e-06
8.21957e-07
4.45898e-07
2.3406e-07
9.51392e-08
1.66912e-07
5.63376e-07
1.29308e-06
2.06614e-06
2.62913e-06
2.99177e-06
2.69882e-06
1.29503e-06
0
0
0
0
0
0
0
0
0
0
6.52443e-08
7.5138e-08
9.1537e-08
1.23735e-07
1.0327e-07
3.70848e-08
0
0
0
0
0
2.29763e-08
1.82687e-07
5.08604e-07
1.0889e-06
1.98687e-06
2.95856e-06
3.45629e-06
3.30708e-06
2.87891e-06
2.54796e-06
2.16324e-06
1.38173e-06
7.15603e-07
4.47881e-07
4.6702e-07
4.46563e-07
2.5786e-07
7.1051e-08
0
0
0
0
0
0
0
0
0
0
0
0
0
0
0
0
0
0
0
0
0
0
0
0
0
4.22276e-06
4.53199e-06
3.08731e-06
1.42502e-06
2.52076e-07
5.85526e-07
0
0
0
0
0
0
0
0
0
0
0
0
1.48861e-06
1.44155e-06
0
0
0
0
0
0
0
0
0
0
3.06236e-06
3.434e-06
4.32737e-06
5.52093e-06
6.61069e-06
6.94331e-06
7.21536e-06
7.05888e-06
5.87732e-06
4.63231e-06
2.13961e-06
0
0
0
0
0
0
0
0
0
1.90685e-06
5.44853e-06
1.10242e-05
2.01969e-05
3.59848e-05
2.69092e-05
0
0
0
0
0
0
0
0
0
0
0
0
0
1.17501e-05
2.30436e-05
1.57982e-05
1.02606e-05
8.0473e-06
1.04515e-05
9.55287e-06
5.22288e-06
1.76289e-06
9.31605e-07
7.6855e-07
3.31804e-09
0
0
3.08121e-06
1.78042e-06
2.74693e-07
0
0
0
0
0
0
6.5508e-07
1.5085e-06
2.54081e-06
3.77105e-06
5.08256e-06
6.37584e-06
7.47678e-06
7.97936e-06
7.40276e-06
5.20317e-06
1.8297e-06
0
0
0
5.30952e-07
9.16194e-07
9.0111e-07
8.19639e-07
7.61903e-07
7.99449e-07
1.16303e-06
2.03257e-06
2.68127e-06
2.37664e-06
7.83056e-07
0
0
0
0
0
0
0
0
0
0
0
0
0
0
0
0
0
0
0
0
0
4.65208e-07
1.54854e-06
2.74591e-06
3.33031e-06
3.18275e-06
2.84023e-06
2.59866e-06
2.604e-06
2.35226e-06
1.61446e-06
9.36477e-07
5.08096e-07
3.05459e-07
2.46458e-07
2.09456e-07
1.25873e-07
3.0337e-08
0
0
0
0
0
0
0
0
0
0
0
0
0
0
0
0
0
0
0
0
0
0
0
0
0
1.99448e-06
2.07719e-06
1.22504e-06
0
5.13169e-07
4.35973e-07
0
0
0
0
0
0
0
0
0
0
0
0
0
0
0
0
0
0
0
0
0
0
0
0
5.61066e-06
4.9723e-06
4.82125e-06
5.55415e-06
6.18165e-06
6.52347e-06
6.97399e-06
7.16399e-06
6.14159e-06
4.75253e-06
2.33182e-06
0
0
0
0
0
0
0
0
0
0
0
0
2.88614e-06
8.96709e-06
1.92876e-05
1.62585e-05
0
0
0
0
0
0
0
0
0
0
0
0
0
7.50699e-06
1.29635e-05
1.25661e-05
1.29801e-05
8.06385e-06
4.19692e-06
2.73877e-06
1.89277e-06
1.50199e-06
1.0045e-06
3.09494e-08
0
0
0
0
0
0
0
0
0
0
8.6568e-08
9.55459e-07
1.97816e-06
3.18535e-06
4.54158e-06
5.84398e-06
6.84218e-06
7.20479e-06
6.63819e-06
5.13044e-06
2.919e-06
6.21101e-07
0
0
0
0
0
5.51963e-07
9.4236e-07
1.01134e-06
9.18888e-07
8.46476e-07
7.84461e-07
6.74122e-07
5.11303e-07
4.09703e-07
4.25012e-07
1.06261e-07
0
0
0
0
0
0
0
0
0
0
0
0
0
0
0
0
0
0
0
1.34195e-06
3.07106e-06
3.2635e-06
3.24933e-06
3.30212e-06
3.19447e-06
2.96378e-06
2.32166e-06
1.57255e-06
1.05753e-06
7.16489e-07
4.70975e-07
3.16388e-07
2.38775e-07
1.89509e-07
1.33848e-07
7.18839e-08
2.4929e-08
2.98493e-09
0
0
0
0
0
0
0
0
0
0
0
0
0
0
0
0
0
0
0
0
0
0
0
5.21219e-07
5.53777e-07
2.15785e-07
0
1.14388e-06
4.47853e-07
0
0
0
9.91293e-07
0
0
0
0
0
0
0
0
0
0
0
0
0
0
0
0
0
0
0
0
8.45979e-06
7.19023e-06
5.67983e-06
5.63734e-06
5.90952e-06
6.11365e-06
6.6086e-06
7.14059e-06
6.38346e-06
4.93258e-06
2.57283e-06
0
0
0
0
0
0
0
0
0
0
0
0
0
0
1.14557e-06
7.54054e-06
1.79156e-05
2.29746e-05
0
0
0
0
0
0
0
0
0
0
0
0
4.96289e-06
8.2354e-06
7.24011e-06
4.5768e-06
2.86617e-06
2.09228e-06
1.76234e-06
1.54102e-06
1.14992e-06
5.24668e-07
0
0
0
0
0
0
0
0
0
0
0
5.80453e-07
1.60735e-06
2.84779e-06
4.2263e-06
5.42654e-06
6.02972e-06
5.74527e-06
4.64825e-06
3.07638e-06
1.37496e-06
0
0
0
0
0
0
0
3.50945e-07
7.56419e-07
1.03525e-06
1.14438e-06
9.60674e-07
5.89753e-07
2.7172e-07
3.14133e-08
0
0
0
0
0
0
0
0
0
0
0
0
0
0
0
0
0
0
0
0
8.58952e-07
5.46746e-06
4.2994e-06
3.15784e-06
2.75381e-06
2.52471e-06
2.15055e-06
1.6387e-06
1.19049e-06
9.40278e-07
8.36473e-07
7.28104e-07
5.73997e-07
4.226e-07
3.1612e-07
2.43451e-07
1.84222e-07
1.30314e-07
7.88575e-08
3.72723e-08
1.19093e-08
0
0
0
0
0
0
0
0
0
0
0
0
0
0
0
0
0
0
0
0
0
0
0
2.54034e-09
0
1.17404e-06
1.17236e-06
3.9751e-07
0
0
0
2.63341e-06
2.06884e-06
0
0
0
0
0
0
0
0
0
0
0
0
0
0
0
0
0
0
0
1.03295e-05
9.91741e-06
7.06533e-06
5.93511e-06
5.77277e-06
5.78154e-06
6.11075e-06
6.93092e-06
6.63297e-06
5.21622e-06
2.99874e-06
0
0
0
0
0
0
0
0
0
0
0
0
0
0
0
0
5.78629e-07
5.84291e-06
1.54177e-05
1.86032e-05
0
0
0
0
0
0
0
2.45858e-07
3.3446e-06
5.5353e-06
6.44447e-06
5.8789e-06
4.29224e-06
2.89274e-06
2.05988e-06
1.68552e-06
1.53623e-06
1.40815e-06
1.18024e-06
8.46104e-07
3.52042e-07
0
0
0
0
0
4.70465e-08
7.28719e-08
0
0
0
0
2.37997e-07
9.86273e-07
1.8949e-06
2.72121e-06
3.06565e-06
2.6917e-06
1.81543e-06
7.69073e-07
0
0
0
0
0
0
0
0
1.14963e-08
1.88405e-07
3.74387e-07
5.63723e-07
7.45173e-07
9.33962e-07
9.71601e-07
6.78945e-07
1.86351e-07
0
0
0
0
0
0
0
0
0
0
0
0
0
0
0
0
0
0
0
3.05005e-09
1.04157e-06
1.17939e-06
7.4819e-07
6.99811e-07
7.73707e-07
7.22045e-07
6.22699e-07
6.98781e-07
8.85446e-07
9.64125e-07
8.83178e-07
7.02159e-07
5.17179e-07
3.78667e-07
2.82088e-07
2.12934e-07
1.62451e-07
1.15944e-07
6.53655e-08
2.45331e-08
1.21041e-09
0
0
0
0
0
0
0
0
0
0
0
0
0
0
0
0
0
0
0
0
0
0
5.98581e-07
0
1.62338e-06
1.1607e-06
3.47848e-07
0
0
1.01819e-06
3.49004e-06
3.87941e-06
1.77845e-06
0
0
0
0
0
0
0
0
0
0
0
0
0
2.21624e-06
5.11009e-07
0
0
0
9.29725e-06
1.21775e-05
8.59803e-06
6.4021e-06
5.6415e-06
5.40816e-06
5.58234e-06
6.47897e-06
6.75248e-06
5.58294e-06
3.64232e-06
0
0
0
0
0
0
0
0
0
0
0
0
0
0
0
0
0
0
0
2.09853e-06
0
0
0
0
1.46209e-06
3.19355e-06
4.26051e-06
4.84347e-06
5.10577e-06
4.86476e-06
4.27415e-06
3.42117e-06
2.48891e-06
1.8468e-06
1.48906e-06
1.31264e-06
1.25819e-06
1.19621e-06
1.11235e-06
9.44641e-07
6.5527e-07
2.78329e-07
0
0
0
0
1.89457e-07
3.7391e-07
2.63793e-07
0
0
0
0
0
0
0
9.23742e-08
1.21648e-07
0
0
0
0
0
0
0
0
0
0
1.66382e-07
2.73974e-07
2.98736e-07
2.76094e-07
2.92809e-07
4.63848e-07
6.67583e-07
5.83419e-07
9.55382e-08
0
0
0
0
0
0
0
0
0
0
0
0
0
0
0
0
0
0
0
0
0
0
0
0
0
1.44321e-07
3.92052e-07
8.26471e-07
1.12501e-06
1.05283e-06
8.15617e-07
6.03359e-07
4.59085e-07
3.61698e-07
2.81639e-07
2.16187e-07
1.71894e-07
1.39869e-07
1.0095e-07
6.02547e-08
3.36945e-08
1.44432e-08
0
0
0
0
0
0
0
0
0
0
0
0
0
0
0
0
0
0
0
0
2.95914e-07
1.92441e-08
0
1.4516e-06
1.22224e-06
2.61891e-07
0
0
1.50659e-06
3.80472e-06
5.16671e-06
3.91804e-06
0
0
0
0
0
0
0
0
0
0
0
0
2.12792e-06
6.83883e-06
8.80369e-06
1.80353e-07
0
0
5.34226e-06
1.38806e-05
1.00908e-05
7.04292e-06
5.58138e-06
5.02696e-06
5.04266e-06
5.89904e-06
6.74484e-06
5.99807e-06
4.43544e-06
0
0
0
0
0
0
0
0
0
0
0
0
0
0
0
0
0
0
0
0
0
3.7607e-07
2.67983e-06
3.57052e-06
3.89881e-06
3.97985e-06
3.83287e-06
3.47708e-06
3.19276e-06
2.83144e-06
2.2989e-06
1.8006e-06
1.40182e-06
1.17104e-06
1.00034e-06
9.33182e-07
9.33233e-07
9.24814e-07
8.85349e-07
8.21411e-07
6.75054e-07
4.4161e-07
1.91602e-07
0
0
0
2.19197e-07
5.01097e-07
5.65146e-07
3.07131e-07
0
0
0
0
0
0
0
0
0
0
0
0
0
0
0
0
0
0
1.86823e-07
3.00327e-07
3.34664e-07
3.19338e-07
2.01205e-07
4.9178e-08
3.83677e-08
1.25589e-07
0
0
0
0
0
0
5.28197e-07
4.59258e-07
0
0
0
0
0
0
0
0
0
0
0
0
0
2.53503e-08
0
0
0
0
0
5.55941e-07
1.07127e-06
1.01044e-06
7.64626e-07
5.42459e-07
3.85987e-07
3.0175e-07
2.70798e-07
2.54117e-07
2.1995e-07
1.83685e-07
1.59648e-07
1.3319e-07
9.8548e-08
7.32665e-08
5.62659e-08
3.26631e-08
0
0
0
3.78617e-09
0
0
0
0
0
0
0
0
0
0
0
0
0
0
0
0
0
0
1.59203e-06
1.34906e-06
2.20582e-07
0
0
1.5471e-06
3.93873e-06
6.26848e-06
5.8069e-06
0
0
0
0
0
0
0
0
0
0
0
0
3.48545e-06
9.81143e-06
1.50197e-05
9.52527e-06
0
0
1.40673e-07
1.42457e-05
1.131e-05
7.59514e-06
5.53529e-06
4.68681e-06
4.53824e-06
5.27444e-06
6.60471e-06
6.38093e-06
5.2254e-06
0
0
0
0
0
0
0
0
0
0
0
0
0
0
0
0
0
0
0
0
0
7.86945e-07
2.206e-06
2.57403e-06
2.69755e-06
2.68826e-06
2.53626e-06
2.15228e-06
1.68491e-06
1.38114e-06
1.12041e-06
9.20045e-07
7.81625e-07
6.72632e-07
5.79104e-07
5.52491e-07
5.63614e-07
5.83209e-07
5.93917e-07
5.7874e-07
5.21174e-07
3.97103e-07
2.35409e-07
7.9787e-08
0
0
1.38763e-07
4.12981e-07
5.91044e-07
5.27757e-07
2.78713e-07
0
0
0
0
0
0
0
0
0
0
0
0
0
0
0
0
1.56474e-07
3.03761e-07
3.1084e-07
1.89532e-07
1.39387e-07
1.45286e-07
2.58608e-08
0
0
0
0
0
0
0
0
0
4.87638e-07
1.5162e-06
9.55926e-07
4.25177e-07
1.71681e-07
3.69918e-09
0
0
0
0
0
0
1.23869e-06
1.61696e-06
1.3484e-06
1.04254e-06
7.65784e-07
5.66187e-07
4.71492e-07
9.07253e-07
1.20089e-06
9.1894e-07
7.20014e-07
5.64022e-07
4.27936e-07
3.13033e-07
2.42166e-07
2.16935e-07
2.11619e-07
2.0014e-07
1.7713e-07
1.55254e-07
1.3431e-07
1.06949e-07
8.60703e-08
7.64567e-08
6.62803e-08
3.82065e-08
2.28489e-09
0
1.26291e-09
4.98701e-09
0
0
0
0
0
0
0
0
0
0
0
0
0
0
0
0
4.68078e-07
1.72804e-06
1.41846e-06
2.87135e-07
0
0
1.48926e-06
3.98697e-06
6.99165e-06
7.19181e-06
0
0
0
0
0
0
0
0
0
0
0
0
2.39355e-06
9.16296e-06
1.77327e-05
1.56498e-05
0
0
0
1.33264e-05
1.19458e-05
7.98583e-06
5.49364e-06
4.34022e-06
4.06621e-06
4.6389e-06
6.27036e-06
6.63776e-06
5.84137e-06
0
0
0
0
0
0
0
0
0
0
0
0
0
0
0
0
0
0
0
0
0
0
8.18991e-07
1.19812e-06
1.32883e-06
1.38046e-06
1.29885e-06
1.09533e-06
8.38015e-07
6.53944e-07
5.33033e-07
4.26108e-07
3.29363e-07
2.55925e-07
2.10322e-07
1.98866e-07
2.08741e-07
2.31085e-07
2.68722e-07
3.03417e-07
2.98585e-07
2.40599e-07
1.48715e-07
4.89566e-08
0
0
0
1.80066e-07
3.84965e-07
4.61084e-07
4.06919e-07
3.25016e-07
2.80746e-07
2.57827e-07
1.54844e-07
0
0
0
0
0
0
0
0
0
0
0
6.95669e-08
2.11038e-07
2.64974e-07
2.84839e-07
1.76308e-07
6.08703e-08
7.73207e-08
5.01886e-08
0
0
0
0
0
0
0
0
0
0
0
1.0336e-06
6.73353e-07
5.14488e-08
0
0
0
0
0
0
0
5.13113e-06
3.75142e-06
2.52034e-06
1.87507e-06
1.57737e-06
1.37216e-06
1.34555e-06
1.4558e-06
1.14961e-06
8.19376e-07
6.12405e-07
4.86872e-07
3.89176e-07
2.91133e-07
2.17117e-07
1.84658e-07
1.79355e-07
1.76126e-07
1.61735e-07
1.41654e-07
1.22289e-07
1.00317e-07
8.15001e-08
7.51091e-08
7.9441e-08
7.47735e-08
3.98802e-08
7.79964e-09
0
4.36153e-09
0
0
0
0
0
0
0
0
0
0
0
0
0
0
5.61508e-07
5.3509e-07
5.99123e-07
1.75312e-06
1.38432e-06
4.95913e-07
0
0
1.48845e-06
3.85988e-06
7.13692e-06
8.17864e-06
0
0
0
0
0
0
0
0
0
0
0
0
0
3.3278e-07
1.43909e-05
1.73354e-05
9.19246e-07
0
0
1.14854e-05
1.21608e-05
8.13931e-06
5.35805e-06
3.9983e-06
3.59268e-06
4.00497e-06
5.72554e-06
6.70539e-06
6.17089e-06
0
0
0
0
0
0
0
0
0
0
0
0
0
1.91765e-07
6.22411e-07
9.70357e-07
1.19439e-06
1.22878e-06
1.0423e-06
6.98376e-07
0
0
1.45056e-07
4.16533e-07
5.03286e-07
5.07153e-07
4.21399e-07
3.13803e-07
2.55685e-07
2.09647e-07
1.38537e-07
4.65578e-08
0
0
0
0
0
0
0
3.4477e-08
5.79784e-08
3.5836e-08
0
0
0
0
0
0
4.62602e-08
1.7039e-07
2.44785e-07
3.59622e-07
6.56974e-07
1.25466e-06
2.21352e-06
3.50174e-06
4.7135e-06
4.4088e-06
3.95289e-07
0
0
0
0
0
0
0
0
7.98824e-08
1.77127e-07
2.35217e-07
2.13463e-07
7.89058e-08
0
0
0
0
0
0
0
0
0
0
0
0
0
0
1.04848e-06
7.30555e-07
0
0
0
0
0
0
6.51423e-07
1.02146e-05
6.07125e-06
3.33879e-06
2.04139e-06
1.64308e-06
1.66573e-06
1.7393e-06
1.51071e-06
1.12774e-06
8.54508e-07
6.55393e-07
5.14202e-07
4.04418e-07
3.04965e-07
2.3231e-07
1.90273e-07
1.7172e-07
1.6556e-07
1.58259e-07
1.45e-07
1.28401e-07
1.04345e-07
7.81059e-08
6.56958e-08
7.38017e-08
9.275e-08
7.83376e-08
2.80886e-08
0
0
0
0
0
0
0
0
0
0
0
0
1.55183e-07
1.6095e-07
0
2.26456e-07
8.3121e-07
6.93025e-07
4.84459e-07
1.74875e-06
1.33823e-06
8.49084e-07
0
0
1.54556e-06
3.56492e-06
6.85691e-06
9.08777e-06
0
0
0
0
0
0
0
0
0
0
1.67853e-05
0
0
0
1.28986e-06
1.3563e-05
2.40746e-06
0
0
9.35438e-06
1.17308e-05
7.94742e-06
5.0647e-06
3.61488e-06
3.13841e-06
3.44192e-06
5.10386e-06
6.57039e-06
6.17445e-06
0
0
0
7.53793e-07
1.30088e-06
1.02618e-06
4.43822e-07
0
0
1.27807e-06
1.18492e-06
5.18047e-07
2.26643e-07
5.8872e-07
1.09723e-06
1.45818e-06
1.56315e-06
1.35449e-06
7.70865e-07
0
0
0
0
0
0
0
0
0
0
0
0
0
0
0
0
0
0
0
0
0
0
0
0
0
0
0
0
0
0
0
0
1.44951e-07
6.71685e-07
1.72906e-06
3.58525e-06
6.67439e-06
1.17722e-05
1.98833e-05
2.59273e-05
0
0
0
0
0
0
0
0
0
9.8897e-08
1.85038e-07
2.07533e-07
1.25394e-07
2.17223e-08
3.41083e-10
0
0
0
0
0
0
0
0
0
0
0
0
0
2.0328e-06
7.86986e-07
0
0
0
0
0
0
0
3.68383e-06
2.6409e-06
1.56529e-06
1.5083e-06
1.9025e-06
1.84722e-06
1.43172e-06
1.05586e-06
7.94483e-07
5.95632e-07
4.48524e-07
3.54713e-07
2.98357e-07
2.5756e-07
2.23624e-07
1.96506e-07
1.76867e-07
1.61457e-07
1.46834e-07
1.3045e-07
1.02764e-07
6.73611e-08
4.64566e-08
5.21267e-08
8.81653e-08
1.08729e-07
5.83613e-08
0
0
0
0
0
0
0
0
0
1.59626e-08
0
0
4.31189e-07
3.4681e-07
1.23038e-07
4.29382e-07
8.13806e-07
5.75328e-07
3.05087e-07
1.76652e-06
1.38179e-06
1.32693e-06
1.60444e-06
2.59774e-07
1.63513e-06
3.18546e-06
6.32239e-06
9.83034e-06
0
0
0
0
0
0
0
0
0
3.93792e-05
4.49229e-05
0
0
0
0
4.36342e-06
4.44847e-07
0
0
7.29657e-06
1.08426e-05
7.4925e-06
4.67328e-06
3.21993e-06
2.73546e-06
3.02672e-06
4.59662e-06
6.3064e-06
5.89281e-06
0
0
2.84221e-06
5.26522e-06
4.55255e-06
3.12266e-06
9.31669e-07
0
0
3.31048e-07
8.93087e-07
0
0
1.57412e-07
6.11288e-07
7.57457e-07
5.94764e-07
2.07079e-07
0
0
0
0
0
0
0
0
0
0
0
0
0
0
0
0
0
0
0
0
0
0
0
0
0
0
0
0
0
0
0
0
0
0
4.76967e-07
1.7547e-06
4.0331e-06
7.78937e-06
1.37658e-05
2.1112e-05
1.8794e-05
1.30262e-06
0
0
0
0
0
0
0
0
6.13399e-08
1.44982e-07
1.74988e-07
1.47329e-07
5.02033e-08
0
0
0
0
0
0
0
0
0
0
0
0
0
0
0
2.56929e-06
9.07744e-07
0
0
0
0
0
0
0
9.14205e-07
1.23672e-06
1.58485e-06
1.82273e-06
1.57213e-06
1.18796e-06
8.79674e-07
6.5573e-07
4.86173e-07
3.76562e-07
3.26916e-07
3.06054e-07
2.85089e-07
2.58102e-07
2.31258e-07
2.05303e-07
1.78456e-07
1.52218e-07
1.26848e-07
9.07755e-08
4.58554e-08
1.85825e-08
2.12001e-08
6.47492e-08
1.21963e-07
9.99283e-08
1.03031e-08
0
0
0
0
0
0
0
0
3.81998e-08
0
0
4.97188e-07
2.56581e-07
1.15664e-07
5.18531e-07
8.81461e-07