/*--------------------------------*- C++ -*----------------------------------*\
  =========                 |
  \\      /  F ield         | OpenFOAM: The Open Source CFD Toolbox
   \\    /   O peration     | Website:  https://openfoam.org
    \\  /    A nd           | Version:  9
     \\/     M anipulation  |
\*---------------------------------------------------------------------------*/
FoamFile
{
    format      ascii;
    class       surfaceScalarField;
    location    "0.067";
    object      phi_0;
}
// * * * * * * * * * * * * * * * * * * * * * * * * * * * * * * * * * * * * * //

dimensions      [0 3 -1 0 0 0 0];

internalField   nonuniform List<scalar> 
24170
(
3.04718e-06
8.55531e-08
2.94911e-06
9.80643e-08
2.82936e-06
1.19754e-07
2.72463e-06
1.04727e-07
2.64983e-06
7.47976e-08
2.58533e-06
6.45033e-08
2.51187e-06
7.34576e-08
2.42737e-06
8.45045e-08
2.34071e-06
8.66602e-08
2.25996e-06
8.07459e-08
2.18719e-06
7.27753e-08
2.11596e-06
7.12239e-08
2.03746e-06
7.85059e-08
1.94686e-06
9.05991e-08
1.84319e-06
1.03668e-07
1.73204e-06
1.11146e-07
1.61044e-06
1.21607e-07
1.43639e-07
1.4668e-06
3.35938e-06
7.11659e-08
3.4302e-06
2.72433e-08
3.46919e-06
8.07633e-08
3.49958e-06
7.4345e-08
3.52441e-06
4.9965e-08
3.52891e-06
6.00033e-08
3.51005e-06
9.23195e-08
3.47672e-06
1.17832e-07
3.4394e-06
1.23978e-07
3.40438e-06
1.15766e-07
3.37327e-06
1.03883e-07
3.34435e-06
1.0015e-07
3.3136e-06
1.09255e-07
3.27734e-06
1.26856e-07
3.23382e-06
1.47193e-07
3.1806e-06
1.64361e-07
3.11825e-06
1.83958e-07
2.14896e-07
3.04699e-06
3.69028e-06
2.0613e-09
3.68553e-06
3.19922e-08
3.68422e-06
8.20666e-08
3.68887e-06
6.96981e-08
3.7022e-06
3.66391e-08
3.72175e-06
4.04517e-08
3.73777e-06
7.63036e-08
3.74328e-06
1.12314e-07
3.73903e-06
1.28232e-07
3.7312e-06
1.23595e-07
3.72529e-06
1.09792e-07
3.72346e-06
1.01984e-07
3.7239e-06
1.08812e-07
3.72245e-06
1.2831e-07
3.71545e-06
1.54188e-07
3.69928e-06
1.80528e-07
3.67465e-06
2.08592e-07
2.44779e-07
3.64477e-06
3.98245e-06
-8.89943e-09
3.94666e-06
6.77822e-08
3.94534e-06
8.33944e-08
3.9616e-06
5.34319e-08
3.96911e-06
2.91313e-08
3.95879e-06
5.07755e-08
3.93883e-06
9.62618e-08
3.92159e-06
1.29547e-07
3.91382e-06
1.36005e-07
3.91651e-06
1.20907e-07
3.9268e-06
9.94985e-08
3.94058e-06
8.82029e-08
3.95356e-06
9.58361e-08
3.96165e-06
1.20218e-07
3.96265e-06
1.53189e-07
3.95494e-06
1.88241e-07
3.94142e-06
2.22109e-07
2.59263e-07
3.92694e-06
4.29818e-06
-1.03607e-07
4.36816e-06
-2.1948e-09
4.36146e-06
9.00921e-08
4.34528e-06
6.96155e-08
4.33258e-06
4.18296e-08
4.32028e-06
6.30813e-08
4.30665e-06
1.09892e-07
4.29028e-06
1.45915e-07
4.27046e-06
1.55827e-07
4.24818e-06
1.43184e-07
4.22588e-06
1.218e-07
4.20675e-06
1.0733e-07
4.19292e-06
1.09663e-07
4.18412e-06
1.29019e-07
4.17893e-06
1.58379e-07
4.17501e-06
1.92164e-07
4.17265e-06
2.24476e-07
2.58689e-07
4.17322e-06
4.43088e-06
-9.28334e-08
4.5033e-06
-7.46075e-08
4.56056e-06
3.2828e-08
4.5615e-06
6.86716e-08
4.52784e-06
7.54926e-08
4.50191e-06
8.90072e-08
4.50371e-06
1.08094e-07
4.52344e-06
1.26184e-07
4.5412e-06
1.38071e-07
4.54383e-06
1.40554e-07
4.52922e-06
1.36412e-07
4.50348e-06
1.33066e-07
4.47554e-06
1.37607e-07
4.45188e-06
1.52674e-07
4.43574e-06
1.74525e-07
4.42717e-06
2.00734e-07
4.42564e-06
2.26005e-07
2.5201e-07
4.43232e-06
4.85105e-06
-7.54269e-08
4.84972e-06
-7.32793e-08
4.87016e-06
1.2389e-08
4.8833e-06
5.55314e-08
4.86764e-06
9.11551e-08
4.83499e-06
1.21654e-07
4.80917e-06
1.33914e-07
4.80251e-06
1.32846e-07
4.81186e-06
1.2872e-07
4.8272e-06
1.25211e-07
4.84001e-06
1.23605e-07
4.84618e-06
1.26888e-07
4.84605e-06
1.37743e-07
4.84136e-06
1.57365e-07
4.8338e-06
1.82084e-07
4.82495e-06
2.09586e-07
4.81553e-06
2.35416e-07
2.58198e-07
4.80935e-06
5.07892e-06
-1.17734e-07
5.09306e-06
-8.74197e-08
5.12055e-06
-1.50985e-08
5.15069e-06
2.53961e-08
5.18402e-06
5.78174e-08
5.21495e-06
9.0731e-08
5.23668e-06
1.12181e-07
5.24793e-06
1.21598e-07
5.2533e-06
1.23347e-07
5.25686e-06
1.21655e-07
5.25811e-06
1.22353e-07
5.25355e-06
1.31444e-07
5.24089e-06
1.50406e-07
5.22123e-06
1.77023e-07
5.19759e-06
2.05725e-07
5.17472e-06
2.32458e-07
5.15588e-06
2.5425e-07
2.69856e-07
5.14423e-06
5.56156e-06
-2.34319e-07
5.58709e-06
-1.12954e-07
5.57188e-06
1.07356e-10
5.51966e-06
7.762e-08
5.48317e-06
9.43047e-08
5.48939e-06
8.45155e-08
5.52689e-06
7.46833e-08
5.57248e-06
7.60044e-08
5.61042e-06
8.54064e-08
5.63467e-06
9.74046e-08
5.64549e-06
1.11531e-07
5.64624e-06
1.30692e-07
5.64154e-06
1.55113e-07
5.63646e-06
1.82099e-07
5.63347e-06
2.08717e-07
5.63432e-06
2.31612e-07
5.63696e-06
2.51609e-07
2.67513e-07
5.6393e-06
5.86382e-06
-2.26216e-07
5.89698e-06
-1.46113e-07
5.88674e-06
1.03562e-08
5.85421e-06
1.10144e-07
5.83768e-06
1.10834e-07
5.85614e-06
6.60601e-08
5.89857e-06
3.22498e-08
5.94437e-06
3.02044e-08
5.97844e-06
5.13386e-08
5.99542e-06
8.04261e-08
5.99786e-06
1.09092e-07
5.99296e-06
1.35592e-07
5.98834e-06
1.59728e-07
5.98946e-06
1.80976e-07
5.99797e-06
2.00216e-07
6.01152e-06
2.18062e-07
6.02623e-06
2.3689e-07
2.57826e-07
6.03592e-06
6.36329e-06
-2.30495e-07
6.36393e-06
-1.46753e-07
6.37567e-06
-1.39213e-09
6.4094e-06
7.64206e-08
6.43429e-06
8.5938e-08
6.43609e-06
6.42623e-08
6.42286e-06
4.548e-08
6.41205e-06
4.10145e-08
6.41389e-06
4.94959e-08
6.42618e-06
6.81414e-08
6.43886e-06
9.64131e-08
6.44339e-06
1.31058e-07
6.43756e-06
1.65556e-07
6.42485e-06
1.93692e-07
6.41258e-06
2.1248e-07
6.40558e-06
2.25066e-07
6.40724e-06
2.35233e-07
2.47747e-07
6.41732e-06
5.77671e-06
-2.23765e-07
5.69948e-06
-6.9521e-08
5.67544e-06
2.26483e-08
5.7321e-06
1.9761e-08
5.80905e-06
8.99235e-09
5.8486e-06
2.47054e-08
5.83237e-06
6.17138e-08
5.78167e-06
9.17134e-08
5.73248e-06
9.86874e-08
5.71071e-06
8.99115e-08
5.72295e-06
8.41741e-08
5.7593e-06
9.47116e-08
5.803e-06
1.21848e-07
5.83747e-06
1.59226e-07
5.85307e-06
1.96876e-07
5.84895e-06
2.29189e-07
5.83056e-06
2.53617e-07
2.70015e-07
5.8083e-06
6.87299e-06
-1.85211e-07
6.87478e-06
-7.13103e-08
6.91157e-06
-1.4142e-08
6.95145e-06
-2.01181e-08
6.98505e-06
-2.46076e-08
7.00204e-06
7.72034e-09
6.99518e-06
6.85708e-08
6.96538e-06
1.2151e-07
6.92629e-06
1.37781e-07
6.89493e-06
1.21274e-07
6.88344e-06
9.56602e-08
6.89485e-06
8.32966e-08
6.92361e-06
9.3089e-08
6.95996e-06
1.22877e-07
6.99313e-06
1.6371e-07
7.01652e-06
2.05794e-07
7.0279e-06
2.42246e-07
2.68373e-07
7.02954e-06
8.49936e-06
-1.85523e-08
8.40668e-06
2.13697e-08
8.42622e-06
-3.36807e-08
8.49088e-06
-8.47811e-08
8.5565e-06
-9.02246e-08
8.60656e-06
-4.23423e-08
8.64199e-06
3.31388e-08
8.66405e-06
9.94505e-08
8.66714e-06
1.34692e-07
8.64435e-06
1.44065e-07
8.59636e-06
1.43654e-07
8.535e-06
1.4466e-07
8.47732e-06
1.50763e-07
8.43968e-06
1.60521e-07
8.43051e-06
1.72877e-07
8.4496e-06
1.86708e-07
8.49232e-06
1.99525e-07
2.14713e-07
8.54598e-06
1.02587e-05
2.82918e-08
1.02998e-05
-1.96909e-08
1.03206e-05
-5.44679e-08
1.03716e-05
-1.35753e-07
1.04309e-05
-1.49578e-07
1.04607e-05
-7.21755e-08
1.04458e-05
4.81358e-08
1.04004e-05
1.44828e-07
1.03461e-05
1.88973e-07
1.02977e-05
1.92463e-07
1.02598e-05
1.816e-07
1.02324e-05
1.72011e-07
1.02164e-05
1.66769e-07
1.02151e-05
1.61771e-07
1.0233e-05
1.54994e-07
1.02714e-05
1.48378e-07
1.03276e-05
1.43318e-07
1.45872e-07
1.03964e-05
1.27552e-05
7.24403e-08
1.27334e-05
2.17456e-09
1.27334e-05
-5.4509e-08
1.27347e-05
-1.37078e-07
1.27224e-05
-1.37252e-07
1.27057e-05
-5.54866e-08
1.2708e-05
4.58025e-08
1.27341e-05
1.18726e-07
1.27826e-05
1.4054e-07
1.28447e-05
1.30352e-07
1.29097e-05
1.1655e-07
1.29666e-05
1.15122e-07
1.30069e-05
1.26482e-07
1.30254e-05
1.43257e-07
1.30233e-05
1.57096e-07
1.30062e-05
1.65475e-07
1.29817e-05
1.67857e-07
1.69391e-07
1.29582e-05
1.5494e-05
-1.18501e-07
1.55368e-05
-4.06232e-08
1.55332e-05
-5.09001e-08
1.54537e-05
-5.76021e-08
1.53647e-05
-4.82172e-08
1.53388e-05
-2.96174e-08
1.53819e-05
2.73442e-09
1.54601e-05
4.04743e-08
1.55259e-05
7.47159e-08
1.55508e-05
1.0551e-07
1.55349e-05
1.32453e-07
1.54953e-05
1.54724e-07
1.54507e-05
1.7105e-07
1.54131e-05
1.80839e-07
1.53867e-05
1.83515e-07
1.53712e-05
1.80984e-07
1.53643e-05
1.74748e-07
1.68118e-07
1.53656e-05
1.88547e-05
-2.58201e-07
1.89531e-05
-1.39002e-07
1.89653e-05
-6.30646e-08
1.89216e-05
-1.38718e-08
1.88678e-05
5.56072e-09
1.8837e-05
1.1967e-09
1.88544e-05
-1.46962e-08
1.89012e-05
-6.3782e-09
1.89496e-05
2.63539e-08
1.89815e-05
7.3594e-08
1.90019e-05
1.12093e-07
1.90233e-05
1.33255e-07
1.90548e-05
1.39564e-07
1.90971e-05
1.38575e-07
1.91426e-05
1.37981e-07
1.91821e-05
1.41536e-07
1.92063e-05
1.50517e-07
1.63351e-07
1.92111e-05
2.34279e-05
-1.55589e-07
2.34878e-05
-1.98904e-07
2.35698e-05
-1.45018e-07
2.35919e-05
-3.60065e-08
2.35338e-05
6.3684e-08
2.34557e-05
7.93362e-08
2.33997e-05
4.12555e-08
2.33864e-05
6.89057e-09
2.34032e-05
9.56239e-09
2.34364e-05
4.03762e-08
2.34733e-05
7.52845e-08
2.35061e-05
1.00422e-07
2.35305e-05
1.15136e-07
2.35431e-05
1.25979e-07
2.35423e-05
1.38761e-07
2.3529e-05
1.54839e-07
2.3507e-05
1.72528e-07
1.87567e-07
2.34828e-05
1.67575e-05
-5.62304e-08
1.67221e-05
-1.63599e-07
1.67696e-05
-1.92426e-07
1.68573e-05
-1.2376e-07
1.69298e-05
-8.85129e-09
1.69541e-05
5.50583e-08
1.6936e-05
5.9385e-08
1.69144e-05
2.84663e-08
1.69184e-05
5.60554e-09
1.6948e-05
1.07629e-08
1.69834e-05
3.98923e-08
1.70062e-05
7.76286e-08
1.70108e-05
1.105e-07
1.70043e-05
1.32449e-07
1.69995e-05
1.43648e-07
1.70066e-05
1.47708e-07
1.70323e-05
1.46855e-07
1.45071e-07
1.70748e-05
1.52532e-05
1.03142e-07
1.50399e-05
4.96753e-08
1.4888e-05
-4.0512e-08
1.48489e-05
-8.46133e-08
1.48634e-05
-2.33829e-08
1.48378e-05
8.06009e-08
1.47565e-05
1.40701e-07
1.46626e-05
1.22397e-07
1.46079e-05
6.03559e-08
1.4612e-05
6.58976e-09
1.4662e-05
-1.01322e-08
1.47335e-05
6.13173e-09
1.48054e-05
3.86133e-08
1.48682e-05
6.96791e-08
1.49213e-05
9.05645e-08
1.49685e-05
1.00484e-07
1.5014e-05
1.01341e-07
9.81808e-08
1.50609e-05
1.28949e-05
-2.61948e-08
1.30002e-05
-5.562e-08
1.29997e-05
-3.99898e-08
1.29246e-05
-9.49159e-09
1.28605e-05
4.07666e-08
1.28498e-05
9.12937e-08
1.28777e-05
1.12712e-07
1.29102e-05
8.99055e-08
1.29274e-05
4.31713e-08
1.29324e-05
1.65342e-09
1.29429e-05
-2.06434e-08
1.29675e-05
-1.85274e-08
1.30075e-05
-1.35104e-09
1.30577e-05
1.94681e-08
1.31085e-05
3.97754e-08
1.31541e-05
5.49008e-08
1.31924e-05
6.30675e-08
6.55623e-08
1.3225e-05
1.12234e-05
9.85884e-08
1.12322e-05
-6.4437e-08
1.12491e-05
-5.68338e-08
1.12541e-05
-1.4517e-08
1.12768e-05
1.80151e-08
1.13208e-05
4.7301e-08
1.13771e-05
5.64875e-08
1.14228e-05
4.41713e-08
1.14462e-05
1.97954e-08
1.14508e-05
-2.99294e-09
1.14429e-05
-1.27054e-08
1.14319e-05
-7.57361e-09
1.1419e-05
1.16145e-08
1.14034e-05
3.50014e-08
1.13877e-05
5.55275e-08
1.13744e-05
6.82136e-08
1.13665e-05
7.08892e-08
6.47568e-08
1.13673e-05
9.72651e-06
-9.81067e-08
9.59136e-06
7.07177e-08
9.4821e-06
5.24249e-08
9.48112e-06
-1.35394e-08
9.55059e-06
-5.14555e-08
9.64733e-06
-4.94384e-08
9.72666e-06
-2.28383e-08
9.77192e-06
-1.08757e-09
9.78999e-06
1.7181e-09
9.79702e-06
-1.00177e-08
9.80553e-06
-2.12162e-08
9.81935e-06
-2.13963e-08
9.83963e-06
-8.6658e-09
9.86407e-06
1.0566e-08
9.88915e-06
3.04426e-08
9.91222e-06
4.51489e-08
9.93006e-06
5.30492e-08
5.5543e-08
9.93927e-06
8.44901e-06
-5.15055e-08
8.48336e-06
3.6371e-08
8.47318e-06
6.25982e-08
8.41963e-06
4.0009e-08
8.36183e-06
6.34742e-09
8.33512e-06
-2.27272e-08
8.35141e-06
-3.91288e-08
8.39968e-06
-4.93529e-08
8.4583e-06
-5.69012e-08
8.50977e-06
-6.14929e-08
8.54809e-06
-5.95378e-08
8.57598e-06
-4.92835e-08
8.6001e-06
-3.27851e-08
8.62517e-06
-1.45105e-08
8.6535e-06
2.1198e-09
8.68364e-06
1.50112e-08
8.71289e-06
2.37995e-08
2.97123e-08
8.73872e-06
7.31958e-06
-1.83134e-07
7.32143e-06
3.45149e-08
7.30963e-06
7.43992e-08
7.3012e-06
4.84411e-08
7.29933e-06
8.21307e-09
7.31117e-06
-3.45674e-08
7.34363e-06
-7.15825e-08
7.38665e-06
-9.23793e-08
7.42793e-06
-9.81812e-08
7.45882e-06
-9.23847e-08
7.47658e-06
-7.72927e-08
7.48288e-06
-5.55816e-08
7.48171e-06
-3.16142e-08
7.4773e-06
-1.01026e-08
7.4731e-06
6.32079e-09
7.4712e-06
1.69048e-08
7.47276e-06
2.22409e-08
2.44369e-08
7.47804e-06
6.28988e-06
5.91654e-08
6.25734e-06
6.70622e-08
6.31166e-06
2.00718e-08
6.39621e-06
-3.61034e-08
6.47525e-06
-7.08312e-08
6.52602e-06
-8.53309e-08
6.53681e-06
-8.23726e-08
6.51583e-06
-7.1407e-08
6.48066e-06
-6.30066e-08
6.44745e-06
-5.91741e-08
6.42553e-06
-5.53696e-08
6.41789e-06
-4.79455e-08
6.42349e-06
-3.72103e-08
6.43925e-06
-2.58627e-08
6.46137e-06
-1.58049e-08
6.48613e-06
-7.85349e-09
6.51012e-06
-1.74901e-09
2.71599e-09
6.53184e-06
5.61598e-06
5.28785e-09
5.59312e-06
8.99188e-08
5.60585e-06
7.34547e-09
5.62061e-06
-5.08683e-08
5.63808e-06
-8.82992e-08
5.65138e-06
-9.86276e-08
5.65534e-06
-8.63301e-08
5.65341e-06
-6.94807e-08
5.6517e-06
-6.12982e-08
5.65355e-06
-6.10189e-08
5.65901e-06
-6.08301e-08
5.66732e-06
-5.62577e-08
5.67844e-06
-4.83316e-08
5.69315e-06
-4.05773e-08
5.71211e-06
-3.47654e-08
5.73502e-06
-3.07605e-08
5.76071e-06
-2.7442e-08
-2.37609e-08
5.78719e-06
4.86712e-06
-1.24529e-08
4.94991e-06
7.12683e-09
4.98364e-06
-2.63817e-08
4.98334e-06
-5.0565e-08
4.97046e-06
-7.54187e-08
4.96363e-06
-9.17975e-08
4.96859e-06
-9.12949e-08
4.97646e-06
-7.73506e-08
4.9754e-06
-6.02325e-08
4.96205e-06
-4.76747e-08
4.94275e-06
-4.15303e-08
4.92676e-06
-4.02669e-08
4.92012e-06
-4.16877e-08
4.92364e-06
-4.4105e-08
4.93447e-06
-4.55917e-08
4.94862e-06
-4.4908e-08
4.96251e-06
-4.13382e-08
-3.55257e-08
4.97428e-06
4.1014e-06
4.10853e-06
4.08215e-06
4.03158e-06
3.95616e-06
3.86437e-06
3.77307e-06
3.69572e-06
3.63549e-06
3.58781e-06
3.54628e-06
3.50602e-06
3.46433e-06
3.42022e-06
3.37463e-06
3.32972e-06
3.28839e-06
3.25286e-06
-5.26889e-07
5.26889e-07
-8.83378e-07
3.5649e-07
-9.46768e-07
6.33902e-08
-5.85458e-07
-3.61311e-07
4.17032e-08
-6.27161e-07
8.1276e-07
-7.71057e-07
1.62485e-06
-8.1209e-07
2.40879e-06
-7.83935e-07
3.12564e-06
-7.16859e-07
3.75702e-06
-6.31372e-07
4.29761e-06
-5.40592e-07
4.75008e-06
-4.52474e-07
5.12004e-06
-3.69954e-07
5.4149e-06
-2.94866e-07
5.64147e-06
-2.26571e-07
5.80564e-06
-1.64167e-07
5.91236e-06
-1.06718e-07
5.96196e-06
-4.95997e-08
5.95715e-06
4.80653e-09
5.87471e-06
8.24372e-08
5.71292e-06
1.61792e-07
5.44695e-06
2.65975e-07
5.05781e-06
3.89135e-07
4.52357e-06
5.34239e-07
3.7943e-06
7.29276e-07
2.91864e-06
8.75659e-07
1.74285e-06
1.17579e-06
6.27126e-07
1.11572e-06
-2.06252e-08
6.47751e-07
-4.07459e-07
3.86833e-07
-5.22168e-07
1.14709e-07
-3.65155e-07
-1.57012e-07
-1.10638e-07
-2.54518e-07
2.01471e-07
-3.12109e-07
5.29618e-07
-3.28147e-07
8.33796e-07
-3.04178e-07
1.10692e-06
-2.73123e-07
1.23881e-06
-1.31894e-07
1.12844e-06
1.10373e-07
7.99899e-07
3.28541e-07
1.35902e-07
6.63996e-07
-8.76092e-07
1.01199e-06
-1.8898e-06
1.01371e-06
-2.74712e-06
8.57314e-07
-3.43572e-06
6.88599e-07
-3.96505e-06
5.2933e-07
-4.35487e-06
3.89819e-07
-4.61642e-06
2.61554e-07
-4.75868e-06
1.42262e-07
-4.78643e-06
2.7745e-08
-4.71e-06
-7.6429e-08
-4.5369e-06
-1.73096e-07
-4.2705e-06
-2.66401e-07
-3.91681e-06
-3.5369e-07
-3.4844e-06
-4.32416e-07
-2.98237e-06
-5.02024e-07
-2.42231e-06
-5.60062e-07
-1.81839e-06
-6.03916e-07
-1.18488e-06
-6.33514e-07
-5.32331e-07
-6.5255e-07
1.28937e-07
-6.61269e-07
7.85701e-07
-6.56764e-07
1.41867e-06
-6.32966e-07
1.99826e-06
-5.7959e-07
2.47314e-06
-4.74883e-07
2.79488e-06
-3.21739e-07
2.90894e-06
-1.1406e-07
2.75377e-06
1.55165e-07
2.27781e-06
4.75964e-07
1.48815e-06
7.89659e-07
4.41715e-07
1.04644e-06
-7.64176e-07
1.20589e-06
-1.98107e-06
1.21689e-06
-2.94813e-06
9.67061e-07
-3.39644e-06
4.48311e-07
-3.21391e-06
-1.82532e-07
-2.70363e-06
-5.10281e-07
-2.57841e-06
-1.25215e-07
-3.4116e-06
8.33184e-07
-5.23044e-06
1.81884e-06
-7.86093e-06
2.63049e-06
-1.01242e-05
2.26327e-06
-1.15637e-05
1.43945e-06
-1.28718e-05
1.30815e-06
-1.38517e-05
9.799e-07
-1.45506e-05
6.98908e-07
-1.51412e-05
5.90621e-07
-1.55241e-05
3.82822e-07
-1.57956e-05
2.71515e-07
-1.59427e-05
1.47123e-07
-1.59631e-05
2.04046e-08
-1.58973e-05
-6.58367e-08
-1.57316e-05
-1.65708e-07
-1.54805e-05
-2.51011e-07
-1.51434e-05
-3.37189e-07
-1.4724e-05
-4.19364e-07
-1.42299e-05
-4.94065e-07
-1.36642e-05
-5.65709e-07
-1.30357e-05
-6.28502e-07
-1.23502e-05
-6.85506e-07
-1.16154e-05
-7.34768e-07
-1.08388e-05
-7.76632e-07
-1.00264e-05
-8.12432e-07
-9.18458e-06
-8.41796e-07
-8.31844e-06
-8.66139e-07
-7.43294e-06
-8.85501e-07
-6.53424e-06
-8.98699e-07
-5.63114e-06
-9.03101e-07
-4.73724e-06
-8.93901e-07
-3.87149e-06
-8.65752e-07
-3.05653e-06
-8.14959e-07
-2.31302e-06
-7.43508e-07
-1.65657e-06
-6.56455e-07
-1.09527e-06
-5.613e-07
-6.25998e-07
-4.6927e-07
-2.428e-07
-3.83197e-07
6.84625e-08
-3.11263e-07
3.23263e-07
-2.548e-07
5.31263e-07
-2.08e-07
7.03001e-07
-1.71738e-07
8.48003e-07
-1.45003e-07
9.74124e-07
-1.26121e-07
1.08709e-06
-1.12965e-07
1.19216e-06
-1.0507e-07
1.29274e-06
-1.00578e-07
1.39118e-06
-9.84452e-08
1.48939e-06
-9.82061e-08
1.58826e-06
-9.88686e-08
1.68742e-06
-9.91641e-08
1.78557e-06
-9.81519e-08
1.88134e-06
-9.57722e-08
1.97428e-06
-9.29387e-08
2.06513e-06
-9.08448e-08
2.15503e-06
-8.99041e-08
2.24442e-06
-8.93901e-08
2.33287e-06
-8.84451e-08
2.42059e-06
-8.77227e-08
2.5103e-06
-8.97076e-08
2.60736e-06
-9.7066e-08
2.71808e-06
-1.10717e-07
2.8475e-06
-1.29417e-07
2.99862e-06
-1.51118e-07
3.17287e-06
-1.74256e-07
3.37086e-06
-1.97984e-07
3.59509e-06
-2.24237e-07
3.84973e-06
-2.5464e-07
4.13732e-06
-2.87585e-07
4.46637e-06
-3.29051e-07
4.84442e-06
-3.78052e-07
5.27059e-06
-4.26172e-07
5.7534e-06
-4.82806e-07
6.27413e-06
-5.20734e-07
6.81313e-06
-5.39003e-07
7.36497e-06
-5.51836e-07
7.85789e-06
-4.92922e-07
8.3183e-06
-4.60404e-07
8.69764e-06
-3.79346e-07
8.91248e-06
-2.14841e-07
9.13025e-06
-2.17769e-07
9.00508e-06
1.25174e-07
8.65717e-06
3.47909e-07
8.27013e-06
3.87038e-07
6.46301e-06
1.80712e-06
3.9988e-06
2.46421e-06
2.84423e-06
1.15457e-06
2.57988e-06
2.64352e-07
1.91174e-06
6.68136e-07
6.42532e-07
1.26921e-06
-8.56857e-07
1.49939e-06
-2.32698e-06
1.47012e-06
-3.19277e-06
8.65791e-07
-3.20075e-06
7.97634e-09
-2.61482e-06
-5.85927e-07
-1.82651e-06
-7.88314e-07
-1.11386e-06
-7.12648e-07
-6.17768e-07
-4.96091e-07
-3.58342e-07
-2.59426e-07
-3.03927e-07
-5.44147e-08
-3.91102e-07
8.71745e-08
-2.21614e-08
-3.6894e-07
1.06558e-07
4.20331e-07
1.73257e-07
2.89791e-07
5.8327e-07
-3.46623e-07
1.20269e-06
-9.80727e-07
1.91547e-06
-1.33994e-06
2.59419e-06
-1.44978e-06
3.20145e-06
-1.41935e-06
3.72708e-06
-1.30957e-06
4.17117e-06
-1.16095e-06
4.54088e-06
-1.00108e-06
4.8454e-06
-8.45108e-07
5.09321e-06
-7.00288e-07
5.29205e-06
-5.68791e-07
5.44792e-06
-4.50736e-07
5.56637e-06
-3.45018e-07
5.65241e-06
-2.50209e-07
5.71075e-06
-1.65062e-07
5.74529e-06
-8.41362e-08
5.75671e-06
-6.6152e-09
5.75045e-06
8.86941e-08
5.71626e-06
1.95986e-07
5.65043e-06
3.31801e-07
5.53192e-06
5.07647e-07
5.35001e-06
7.16149e-07
5.0877e-06
9.91583e-07
4.71182e-06
1.25154e-06
4.31572e-06
1.57189e-06
3.67295e-06
1.7585e-06
2.59467e-06
1.72604e-06
1.48136e-06
1.50014e-06
6.77895e-07
9.18173e-07
2.78199e-07
2.42684e-07
2.51822e-07
-2.2814e-07
4.07045e-07
-4.67332e-07
4.82323e-07
-4.03424e-07
4.12055e-07
-2.3391e-07
8.14432e-08
5.74886e-08
-5.4442e-07
4.93969e-07
-1.43012e-06
9.96068e-07
-2.41809e-06
1.31651e-06
-3.24106e-06
1.48697e-06
-3.77892e-06
1.54984e-06
-4.19783e-06
1.43263e-06
-4.5871e-06
1.24658e-06
-4.9389e-06
1.0404e-06
-5.24439e-06
8.34823e-07
-5.49703e-06
6.42456e-07
-5.69108e-06
4.55605e-07
-5.81917e-06
2.70353e-07
-5.8769e-06
8.54759e-08
-5.85417e-06
-9.91615e-08
-5.74447e-06
-2.82795e-07
-5.54796e-06
-4.62912e-07
-5.2668e-06
-6.34842e-07
-4.9056e-06
-7.93616e-07
-4.47396e-06
-9.33668e-07
-3.98368e-06
-1.05034e-06
-3.44724e-06
-1.14036e-06
-2.87668e-06
-1.20407e-06
-2.28354e-06
-1.24568e-06
-1.6763e-06
-1.26851e-06
-1.06336e-06
-1.2697e-06
-4.61129e-07
-1.2352e-06
9.87298e-08
-1.13945e-06
5.88477e-07
-9.6463e-07
9.41465e-07
-6.74728e-07
1.10063e-06
-2.73226e-07
1.03392e-06
2.21877e-07
7.124e-07
7.97483e-07
1.37535e-07
1.36452e-06
-6.81118e-07
1.86509e-06
-1.67073e-06
2.1955e-06
-2.63248e-06
2.17865e-06
-3.28667e-06
1.62125e-06
-3.50108e-06
6.62712e-07
-3.86589e-06
1.82284e-07
-5.2669e-06
8.9073e-07
-7.67784e-06
2.28572e-06
-1.01403e-05
3.29562e-06
-1.18024e-05
3.48094e-06
-1.24909e-05
3.319e-06
-1.30328e-05
2.8052e-06
-1.3694e-05
2.10068e-06
-1.41582e-05
1.77232e-06
-1.45276e-05
1.3493e-06
-1.48616e-05
1.03295e-06
-1.50943e-05
8.23302e-07
-1.5277e-05
5.65516e-07
-1.53921e-05
3.86638e-07
-1.54327e-05
1.87647e-07
-1.5412e-05
-2.37689e-10
-1.53071e-05
-1.70768e-07
-1.51188e-05
-3.5399e-07
-1.48483e-05
-5.21484e-07
-1.44954e-05
-6.90084e-07
-1.40651e-05
-8.49704e-07
-1.3561e-05
-9.98207e-07
-1.2989e-05
-1.13768e-06
-1.23557e-05
-1.26176e-06
-1.1668e-05
-1.37321e-06
-1.09332e-05
-1.46965e-06
-1.01578e-05
-1.55198e-06
-9.34815e-06
-1.62208e-06
-8.5092e-06
-1.68075e-06
-7.64521e-06
-1.73013e-06
-6.76039e-06
-1.77032e-06
-5.85922e-06
-1.79987e-06
-4.94867e-06
-1.81365e-06
-4.04128e-06
-1.80129e-06
-3.15656e-06
-1.75048e-06
-2.3218e-06
-1.64972e-06
-1.56222e-06
-1.50308e-06
-8.97364e-07
-1.32131e-06
-3.37062e-07
-1.1216e-06
1.23656e-07
-9.29989e-07
5.01664e-07
-7.61204e-07
8.03499e-07
-6.13098e-07
1.04226e-06
-4.9356e-07
1.2345e-06
-4.00237e-07
1.39256e-06
-3.29806e-07
1.52601e-06
-2.78446e-07
1.64215e-06
-2.4226e-07
1.74743e-06
-2.18252e-07
1.84557e-06
-2.03202e-07
1.93976e-06
-1.94768e-07
2.03245e-06
-1.91139e-07
2.12503e-06
-1.90785e-07
2.21789e-06
-1.91728e-07
2.31022e-06
-1.91498e-07
2.40029e-06
-1.88225e-07
2.48657e-06
-1.82047e-07
2.56906e-06
-1.75431e-07
2.64977e-06
-1.71552e-07
2.73157e-06
-1.71708e-07
2.81644e-06
-1.74255e-07
2.90465e-06
-1.76659e-07
2.9962e-06
-1.79269e-07
3.09301e-06
-1.86523e-07
3.19955e-06
-2.03603e-07
3.32106e-06
-2.32226e-07
3.4615e-06
-2.69854e-07
3.62211e-06
-3.11732e-07
3.8028e-06
-3.54946e-07
4.00481e-06
-3.99996e-07
4.22937e-06
-4.48796e-07
4.48075e-06
-5.06021e-07
4.76672e-06
-5.73558e-07
5.09182e-06
-6.54143e-07
5.46827e-06
-7.54501e-07
5.90149e-06
-8.59398e-07
6.38617e-06
-9.67487e-07
6.9254e-06
-1.05996e-06
7.48241e-06
-1.09602e-06
8.04196e-06
-1.11138e-06
8.58609e-06
-1.03706e-06
9.04676e-06
-9.21073e-07
9.46827e-06
-8.00854e-07
9.76855e-06
-5.15124e-07
9.91791e-06
-3.67123e-07
1.00756e-05
-3.2511e-08
9.92896e-06
4.94536e-07
9.6201e-06
6.95906e-07
9.60112e-06
1.8261e-06
8.68958e-06
3.37575e-06
6.25096e-06
3.59319e-06
4.126e-06
2.38931e-06
3.0813e-06
1.71284e-06
1.86513e-06
2.48538e-06
1.13155e-07
3.25137e-06
-1.36939e-06
2.95267e-06
-2.24361e-06
1.74001e-06
-2.24029e-06
4.66564e-09
-1.62193e-06
-1.20429e-06
-7.93702e-07
-1.61655e-06
-2.79434e-08
-1.47841e-06
5.42511e-07
-1.06655e-06
8.47072e-07
-5.63987e-07
9.22828e-07
-1.3017e-07
8.59251e-07
1.50751e-07
1.33725e-07
7.03365e-07
1.38559e-07
2.81772e-07
8.6056e-07
-4.32211e-07
1.74467e-06
-1.23073e-06
2.45517e-06
-1.69123e-06
2.95834e-06
-1.84312e-06
3.30609e-06
-1.79753e-06
3.53953e-06
-1.65278e-06
3.6955e-06
-1.46555e-06
3.80426e-06
-1.26971e-06
3.88771e-06
-1.08453e-06
3.95937e-06
-9.1676e-07
4.02549e-06
-7.66416e-07
4.08741e-06
-6.3071e-07
4.14358e-06
-5.06908e-07
4.19314e-06
-3.94575e-07
4.23814e-06
-2.95212e-07
4.28112e-06
-2.08037e-07
4.32323e-06
-1.26248e-07
4.36035e-06
-4.37341e-08
4.40349e-06
4.55501e-08
4.45211e-06
1.47375e-07
4.5015e-06
2.82409e-07
4.54079e-06
4.68357e-07
4.55733e-06
6.99606e-07
4.55672e-06
9.92191e-07
4.49803e-06
1.31023e-06
4.40427e-06
1.66565e-06
4.16014e-06
2.00263e-06
3.68579e-06
2.20038e-06
3.02766e-06
2.15827e-06
2.18314e-06
1.76269e-06
1.30554e-06
1.12028e-06
6.90174e-07
3.87227e-07
2.52022e-07
-2.91798e-08
-2.10958e-07
5.95557e-08
-8.34258e-07
3.8939e-07
-1.70875e-06
9.31977e-07
-2.64391e-06
1.42914e-06
-3.38636e-06
1.73852e-06
-3.97344e-06
1.90359e-06
-4.4201e-06
1.93363e-06
-4.73031e-06
1.86005e-06
-5.02203e-06
1.72434e-06
-5.34515e-06
1.5697e-06
-5.69202e-06
1.38727e-06
-6.0395e-06
1.1823e-06
-6.35194e-06
9.54898e-07
-6.60832e-06
7.1199e-07
-6.79918e-06
4.61212e-07
-6.91836e-06
2.04652e-07
-6.95637e-06
-6.11523e-08
-6.91482e-06
-3.24344e-07
-6.79275e-06
-5.84977e-07
-6.59028e-06
-8.37316e-07
-6.31072e-06
-1.07317e-06
-5.9615e-06
-1.28289e-06
-5.55391e-06
-1.45794e-06
-5.10221e-06
-1.59205e-06
-4.62108e-06
-1.6852e-06
-4.12289e-06
-1.74388e-06
-3.61488e-06
-1.77652e-06
-3.10032e-06
-1.78426e-06
-2.58665e-06
-1.74886e-06
-2.09699e-06
-1.62912e-06
-1.68392e-06
-1.3777e-06
-1.39514e-06
-9.63507e-07
-1.27514e-06
-3.93226e-07
-1.34974e-06
2.9648e-07
-1.6359e-06
1.08365e-06
-2.10901e-06
1.83763e-06
-2.72557e-06
2.48165e-06
-3.41145e-06
2.88139e-06
-4.02436e-06
2.79155e-06
-4.49606e-06
2.09295e-06
-5.24949e-06
1.41615e-06
-6.96362e-06
1.89641e-06
-9.39533e-06
3.32244e-06
-1.12502e-05
4.14063e-06
-1.20395e-05
4.08493e-06
-1.24168e-05
3.8582e-06
-1.25551e-05
3.45732e-06
-1.25947e-05
2.84473e-06
-1.2852e-05
2.35801e-06
-1.31305e-05
2.05078e-06
-1.34309e-05
1.64979e-06
-1.37436e-05
1.34557e-06
-1.3989e-05
1.06874e-06
-1.41835e-05
7.59976e-07
-1.43038e-05
5.07019e-07
-1.43455e-05
2.29254e-07
-1.43042e-05
-4.1539e-08
-1.41837e-05
-2.91175e-07
-1.39851e-05
-5.52588e-07
-1.37068e-05
-7.9984e-07
-1.33514e-05
-1.04546e-06
-1.29234e-05
-1.27775e-06
-1.24265e-05
-1.49506e-06
-1.18678e-05
-1.69638e-06
-1.12536e-05
-1.87597e-06
-1.05916e-05
-2.03518e-06
-9.88933e-06
-2.17196e-06
-9.15339e-06
-2.28793e-06
-8.38965e-06
-2.38582e-06
-7.60173e-06
-2.46867e-06
-6.79163e-06
-2.54023e-06
-5.95991e-06
-2.60204e-06
-5.10625e-06
-2.65352e-06
-4.23239e-06
-2.68752e-06
-3.34406e-06
-2.68962e-06
-2.4554e-06
-2.63914e-06
-1.59716e-06
-2.50796e-06
-8.03783e-07
-2.29646e-06
-1.07647e-07
-2.01745e-06
4.84858e-07
-1.71411e-06
9.6993e-07
-1.41506e-06
1.35152e-06
-1.1428e-06
1.64874e-06
-9.10321e-07
1.8777e-06
-7.2252e-07
2.05459e-06
-5.77126e-07
2.19345e-06
-4.68665e-07
2.30564e-06
-3.90632e-07
2.40014e-06
-3.36763e-07
2.48342e-06
-3.01528e-07
2.56015e-06
-2.79936e-07
2.63382e-06
-2.68439e-07
2.70726e-06
-2.64571e-07
2.78244e-06
-2.65973e-07
2.85965e-06
-2.68935e-07
2.93611e-06
-2.67953e-07
3.00601e-06
-2.58125e-07
3.06325e-06
-2.39292e-07
3.10548e-06
-2.17662e-07
3.13591e-06
-2.01978e-07
3.16125e-06
-1.97053e-07
3.18781e-06
-2.00815e-07
3.21927e-06
-2.08112e-07
3.25819e-06
-2.18189e-07
3.30896e-06
-2.37292e-07
3.37843e-06
-2.73076e-07
3.47326e-06
-3.27058e-07
3.59696e-06
-3.93553e-07
3.74948e-06
-4.64252e-07
3.92867e-06
-5.34133e-07
4.13319e-06
-6.04523e-07
4.36467e-06
-6.80274e-07
4.62658e-06
-7.6793e-07
4.92506e-06
-8.72031e-07
5.26725e-06
-9.96338e-07
5.6606e-06
-1.14785e-06
6.11332e-06
-1.31212e-06
6.62119e-06
-1.47535e-06
7.17548e-06
-1.61426e-06
7.75687e-06
-1.67741e-06
8.33313e-06
-1.68763e-06
8.88759e-06
-1.59151e-06
9.37941e-06
-1.4129e-06
9.79155e-06
-1.21299e-06
1.01295e-05
-8.53081e-07
1.03199e-05
-5.57525e-07
1.04084e-05
-1.2096e-07
1.04071e-05
4.95772e-07
1.01115e-05
9.91576e-07
9.9947e-06
1.94286e-06
1.0101e-05
3.26946e-06
9.14149e-06
4.55269e-06
6.63219e-06
4.89861e-06
4.2889e-06
4.05612e-06
2.72188e-06
4.05239e-06
1.09074e-06
4.88251e-06
-4.94943e-07
4.53835e-06
-1.42592e-06
2.67098e-06
-1.44134e-06
2.00899e-08
-8.71212e-07
-1.77442e-06
-1.11947e-07
-2.37581e-06
5.95475e-07
-2.18583e-06
1.12475e-06
-1.59582e-06
1.40449e-06
-8.43721e-07
1.41803e-06
-1.43718e-07
1.24712e-06
3.2167e-07
4.08536e-07
9.72304e-07
4.54902e-07
-1.73129e-07
1.40836e-06
-1.38567e-06
2.12487e-06
-1.94724e-06
2.51021e-06
-2.07657e-06
2.67195e-06
-2.00486e-06
2.72813e-06
-1.85372e-06
2.74209e-06
-1.66673e-06
2.75361e-06
-1.47707e-06
2.78875e-06
-1.30485e-06
2.85747e-06
-1.15325e-06
2.95642e-06
-1.01572e-06
3.07479e-06
-8.84785e-07
3.19906e-06
-7.54976e-07
3.3153e-06
-6.23148e-07
3.41331e-06
-4.92587e-07
3.49153e-06
-3.73434e-07
3.55085e-06
-2.67361e-07
3.59455e-06
-1.69947e-07
3.62935e-06
-7.85267e-08
3.66899e-06
5.91073e-09
3.71163e-06
1.04734e-07
3.76066e-06
2.33372e-07
3.80464e-06
4.24377e-07
3.82926e-06
6.74989e-07
3.83612e-06
9.85333e-07
3.81287e-06
1.33348e-06
3.76256e-06
1.71596e-06
3.6629e-06
2.10229e-06
3.44989e-06
2.4134e-06
3.03886e-06
2.56929e-06
2.39403e-06
2.40752e-06
1.61045e-06
1.90387e-06
8.33899e-07
1.16378e-06
6.01819e-08
7.44538e-07
-7.71975e-07
8.91712e-07
-1.72422e-06
1.34164e-06
-2.64885e-06
1.85661e-06
-3.39179e-06
2.17208e-06
-3.94033e-06
2.28705e-06
-4.34844e-06
2.31171e-06
-4.69599e-06
2.28118e-06
-5.05048e-06
2.21455e-06
-5.44287e-06
2.11673e-06
-5.84815e-06
1.97499e-06
-6.23761e-06
1.77673e-06
-6.59116e-06
1.53585e-06
-6.9029e-06
1.26664e-06
-7.17453e-06
9.83615e-07
-7.40369e-06
6.9038e-07
-7.58242e-06
3.83373e-07
-7.70464e-06
6.1075e-08
-7.76053e-06
-2.6846e-07
-7.7496e-06
-5.95901e-07
-7.66623e-06
-9.20686e-07
-7.50792e-06
-1.23148e-06
-7.27789e-06
-1.51292e-06
-6.9863e-06
-1.74953e-06
-6.64943e-06
-1.92892e-06
-6.28778e-06
-2.04685e-06
-5.92082e-06
-2.11083e-06
-5.56116e-06
-2.13618e-06
-5.21222e-06
-2.13321e-06
-4.873e-06
-2.08808e-06
-4.55049e-06
-1.95163e-06
-4.27301e-06
-1.65518e-06
-4.08435e-06
-1.15216e-06
-4.02789e-06
-4.49691e-07
-4.12693e-06
3.9552e-07
-4.35175e-06
1.30847e-06
-4.68828e-06
2.17415e-06
-5.07682e-06
2.8702e-06
-5.42764e-06
3.2322e-06
-5.72862e-06
3.09253e-06
-6.30146e-06
2.66579e-06
-7.69773e-06
2.81242e-06
-9.69202e-06
3.8907e-06
-1.11342e-05
4.76462e-06
-1.16299e-05
4.63632e-06
-1.16525e-05
4.10757e-06
-1.16115e-05
3.81717e-06
-1.16172e-05
3.46304e-06
-1.17062e-05
2.93368e-06
-1.19242e-05
2.57608e-06
-1.21547e-05
2.2813e-06
-1.23951e-05
1.89016e-06
-1.26209e-05
1.57136e-06
-1.27935e-05
1.24132e-06
-1.29145e-05
8.8096e-07
-1.2967e-05
5.59534e-07
-1.29539e-05
2.16146e-07
-1.28712e-05
-1.24165e-07
-1.27162e-05
-4.46242e-07
-1.24914e-05
-7.77339e-07
-1.2193e-05
-1.09826e-06
-1.18257e-05
-1.41271e-06
-1.13914e-05
-1.71215e-06
-1.08947e-05
-1.99173e-06
-1.03429e-05
-2.24821e-06
-9.74276e-06
-2.47606e-06
-9.10391e-06
-2.67403e-06
-8.43534e-06
-2.84053e-06
-7.74607e-06
-2.97719e-06
-7.04414e-06
-3.08775e-06
-6.33494e-06
-3.17787e-06
-5.62097e-06
-3.2542e-06
-4.90078e-06
-3.32223e-06
-4.16798e-06
-3.38632e-06
-3.41368e-06
-3.44183e-06
-2.63116e-06
-3.47214e-06
-1.82232e-06
-3.44798e-06
-1.00616e-06
-3.32412e-06
-2.22768e-07
-3.07985e-06
4.89119e-07
-2.72933e-06
1.1011e-06
-2.32608e-06
1.60056e-06
-1.91452e-06
1.99551e-06
-1.53774e-06
2.30238e-06
-1.21719e-06
2.53923e-06
-9.59377e-07
2.7224e-06
-7.60292e-07
2.86512e-06
-6.11389e-07
2.97773e-06
-5.03236e-07
3.06817e-06
-4.27207e-07
3.14252e-06
-3.75881e-07
3.20549e-06
-3.42908e-07
3.26068e-06