/*--------------------------------*- C++ -*----------------------------------*\
  =========                 |
  \\      /  F ield         | OpenFOAM: The Open Source CFD Toolbox
   \\    /   O peration     | Website:  https://openfoam.org
    \\  /    A nd           | Version:  9
     \\/     M anipulation  |
\*---------------------------------------------------------------------------*/
FoamFile
{
    format      ascii;
    class       volScalarField;
    location    "0.067";
    object      pMean;
}
// * * * * * * * * * * * * * * * * * * * * * * * * * * * * * * * * * * * * * //

dimensions      [0 2 -2 0 0 0 0];

internalField   nonuniform List<scalar> 
12225
(
-2.12796
-2.68949
-2.98853
-3.09597
-3.13175
-3.15045
-3.16153
-3.1593
-3.13813
-3.09438
-3.02731
-2.93432
-2.81695
-2.67113
-2.50898
-2.33888
-2.22142
-2.26149
-2.36789
-2.72023
-2.99095
-3.10607
-3.14358
-3.16105
-3.17161
-3.1699
-3.15003
-3.10814
-3.04396
-2.95498
-2.84384
-2.70673
-2.55799
-2.4042
-2.31349
-2.38778
-2.40944
-2.72554
-2.98523
-3.10996
-3.15315
-3.17099
-3.18144
-3.18102
-3.16342
-3.12523
-3.06583
-2.98533
-2.8848
-2.76741
-2.64237
-2.5336
-2.48615
-2.58524
-2.54057
-2.77538
-2.99758
-3.12256
-3.17021
-3.1878
-3.19718
-3.19748
-3.1827
-3.14872
-3.0956
-3.02387
-2.93675
-2.83877
-2.74173
-2.66818
-2.65282
-2.73864
-2.64691
-2.81432
-3.00252
-3.12749
-3.183
-3.20355
-3.21287
-3.21414
-3.20236
-3.17372
-3.12787
-3.06653
-2.9935
-2.91508
-2.84309
-2.79607
-2.7971
-2.86532
-2.74341
-2.86682
-3.02477
-3.14302
-3.20288
-3.22621
-3.23589
-3.23821
-3.22957
-3.20629
-3.16817
-3.1176
-3.05899
-2.99921
-2.94865
-2.92132
-2.93199
-2.99067
-2.85168
-2.92488
-3.04555
-3.15545
-3.22005
-3.24803
-3.25935
-3.26325
-3.25849
-3.2417
-3.2125
-3.17352
-3.12948
-3.08703
-3.05504
-3.04365
-3.06272
-3.11814
-2.93104
-2.98203
-3.08029
-3.17761
-3.24233
-3.27467
-3.28906
-3.2951
-3.29394
-3.28355
-3.26356
-3.23636
-3.20652
-3.18004
-3.16411
-3.16626
-3.19331
-3.24872
-2.99999
-3.04184
-3.11747
-3.20177
-3.2659
-3.30281
-3.32137
-3.33089
-3.33428
-3.33079
-3.32026
-3.30481
-3.28857
-3.2768
-3.27541
-3.28999
-3.32516
-3.38285
-3.0812
-3.1031
-3.16262
-3.23447
-3.29514
-3.33508
-3.35814
-3.37177
-3.38011
-3.38377
-3.38302
-3.37948
-3.37653
-3.37865
-3.39066
-3.41675
-3.46013
-3.52203
-3.13171
-3.16252
-3.21114
-3.27216
-3.32945
-3.37165
-3.39917
-3.41801
-3.43233
-3.44355
-3.45216
-3.45977
-3.46932
-3.48444
-3.50891
-3.54587
-3.5976
-3.66508
-3.20734
-3.21503
-3.25251
-3.30799
-3.36324
-3.40743
-3.43958
-3.46364
-3.48386
-3.50228
-3.51994
-3.53797
-3.55867
-3.58508
-3.62025
-3.66671
-3.72615
-3.79944
-3.28893
-3.27862
-3.30486
-3.35357
-3.40554
-3.45007
-3.48552
-3.51495
-3.54146
-3.56708
-3.59301
-3.62062
-3.65175
-3.68873
-3.73393
-3.78937
-3.85633
-3.9356
-3.29651
-3.32233
-3.35725
-3.40105
-3.44946
-3.49646
-3.53829
-3.57506
-3.60926
-3.64345
-3.67922
-3.71775
-3.76044
-3.80903
-3.86528
-3.9307
-4.00633
-4.09279
-3.38211
-3.40695
-3.43502
-3.46992
-3.51384
-3.56147
-3.60782
-3.65155
-3.69419
-3.73792
-3.78436
-3.83452
-3.88938
-3.95008
-4.01789
-4.09387
-4.1788
-4.27301
-3.48358
-3.48127
-3.4962
-3.53173
-3.58091
-3.63505
-3.68856
-3.74066
-3.79303
-3.84762
-3.90574
-3.96814
-4.03552
-4.10865
-4.18836
-4.27524
-4.36987
-4.47238
-3.61447
-3.58319
-3.58412
-3.61842
-3.67067
-3.72803
-3.7863
-3.84602
-3.90853
-3.97483
-4.04544
-4.12068
-4.20097
-4.28673
-4.37845
-4.47639
-4.58098
-4.69215
-3.64765
-3.64618
-3.66658
-3.70695
-3.76014
-3.8223
-3.89008
-3.96129
-4.03584
-4.1143
-4.19715
-4.28465
-4.37708
-4.47463
-4.57739
-4.6854
-4.79864
-4.91698
-3.58235
-3.64701
-3.71937
-3.78688
-3.85366
-3.92507
-4.00282
-4.0859
-4.17325
-4.26452
-4.35984
-4.45947
-4.56352
-4.67197
-4.78472
-4.90161
-5.02254
-5.14737
-3.73601
-3.75512
-3.79287
-3.85124
-3.92381
-4.00463
-4.09103
-4.1818
-4.27637
-4.37499
-4.47806
-4.58558
-4.69726
-4.81267
-4.93158
-5.05375
-5.17899
-5.3069
-3.71561
-3.74331
-3.79784
-3.87442
-3.96203
-4.05313
-4.14634
-4.24284
-4.34355
-4.44879
-4.55833
-4.67163
-4.78831
-4.90811
-5.03081
-5.15613
-5.2839
-5.41391
-3.75915
-3.76543
-3.81305
-3.89017
-3.98201
-4.07939
-4.17846
-4.27953
-4.38443
-4.49394
-4.6076
-4.72475
-4.84483
-4.96752
-5.09271
-5.22013
-5.3495
-5.48033
-3.655
-3.72776
-3.81355
-3.90533
-4.00247
-4.10303
-4.20534
-4.31028
-4.4192
-4.53237
-4.64919
-4.76895
-4.89117
-5.01568
-5.14227
-5.2707
-5.40066
-5.53196
-3.5841
-3.66889
-3.77596
-3.88799
-3.99799
-4.10385
-4.20879
-4.31684
-4.4296
-4.54646
-4.66625
-4.78827
-4.91239
-5.03857
-5.16662
-5.29623
-5.42705
-5.55854
-3.66335
-3.69292
-3.78311
-3.90209
-4.01791
-4.12408
-4.22805
-4.33659
-4.45102
-4.56954
-4.69043
-4.81327
-4.93805
-5.06468
-5.19301
-5.32272
-5.45345
-5.58492
-3.48954
-3.59486
-3.74031
-3.88293
-4.00464
-4.11204
-4.21852
-4.33092
-4.44892
-4.57007
-4.69291
-4.8172
-4.94319
-5.07094
-5.20024
-5.3307
-5.46197
-5.59366
-3.47972
-3.60432
-3.75972
-3.90126
-4.01706
-4.12097
-4.22754
-4.34129
-4.46017
-4.58146
-4.70423
-4.82859
-4.95478
-5.08269
-5.212
-5.34231
-5.47327
-5.60445
-3.3311
-3.52392
-3.73066
-3.88724
-4.00266
-4.10757
-4.21804
-4.33521
-4.45596
-4.57833
-4.70199
-4.82717
-4.95404
-5.08245
-5.21212
-5.34269
-5.47391
-5.60564
-3.34006
-3.53779
-3.74812
-3.89593
-4.00509
-4.10975
-4.22153
-4.33917
-4.45978
-4.58201
-4.70574
-4.8311
-4.95819
-5.08677
-5.21659
-5.34704
-5.47794
-5.60872
-3.08549
-3.49614
-3.75039
-3.88927
-3.99531
-4.1027
-4.21688
-4.33554
-4.45656
-4.5791
-4.70315
-4.8288
-4.95615
-5.08491
-5.21487
-5.34527
-5.47597
-5.60576
-8.1071
-8.29762
-8.45593
-8.47866
-8.36019
-8.16766
-8.02264
-8.04591
-8.29717
-8.76335
-9.3937
-10.1192
-10.8607
-11.5505
-12.142
-12.612
-12.9507
-13.1528
-13.2207
-13.1695
-13.032
-12.8186
-12.5526
-12.2697
-12.0255
-11.8752
-11.8782
-12.01
-12.1907
-12.3769
-12.5836
-12.8615
-13.2317
-13.6416
-14.0245
-14.3481
-14.6064
-14.9233
-15.4228
-16.0521
-16.6274
-17.0837
-17.4596
-17.847
-18.3466
-18.8976
-19.4428
-19.9833
-20.4004
-20.7227
-21.1737
-21.691
-22.2271
-22.7933
-23.3554
-23.8363
-24.1694
-24.5167
-24.9764
-25.5215
-26.0761
-26.5967
-27.0382
-27.3853
-27.631
-27.7743
-27.8109
-27.7334
-27.5351
-27.2177
-26.7914
-26.276
-25.6917
-25.0869
-24.5167
-23.9751
-23.4156
-22.7756
-22.0072
-21.0782
-20.0146
-18.9194
-17.8476
-16.8604
-15.9236
-15.1423
-14.361
-13.6506
-13.203
-13.4847
-14.4831
-15.7674
-17.019
-18.0642
-18.8039
-19.1897
-19.1962
-18.8127
-18.0363
-16.873
-15.3374
-13.4546
-11.2603
-8.80098
-6.13284
-3.31994
-0.430846
2.4655
5.30326
8.02296
10.5737
12.9151
15.0213
16.8818
18.4991
19.8835
21.0488
22.0083
22.7747
23.3589
23.7713
24.0223
24.1231
24.0868
23.9273
23.6596
23.2988
22.8602
22.359
21.8096
21.2252
20.6181
19.9992
19.3783
18.7642
18.1644
17.5853
17.0322
16.5098
16.0217
15.5707
15.1585
14.7866
14.4558
14.1667
13.9194
13.7134
13.5479
13.422
13.3348
13.2857
13.2744
13.3009
13.3643
13.4609
13.5818
13.7139
13.8375
13.9334
13.9877
13.9998
13.999
13.9765
13.9115
13.8683
13.8618
13.8343
13.8128
13.8579
14.0327
14.3576
14.7765
15.2011
15.5703
15.8659
16.1035
16.3056
16.5001
16.7186
16.9241
-8.98939
-9.17263
-9.32334
-9.40011
-9.34903
-9.2561
-9.23857
-9.39399
-9.75288
-10.2791
-10.9094
-11.5783
-12.228
-12.8132
-13.3045
-13.6848
-13.9512
-14.1056
-14.1475
-14.095
-13.9469
-13.7362
-13.504
-13.2574
-13.0158
-12.8658
-12.8156
-12.8802
-12.9902
-13.1793
-13.5568
-14.0516
-14.6011
-15.1419
-15.6049
-15.9915
-16.3209
-16.6635
-17.1114
-17.6773
-18.2172
-18.6496
-18.9788
-19.265
-19.6666
-20.1048
-20.7092
-21.5237
-22.083
-22.4756
-22.9344
-23.4107
-23.8736
-24.3203
-24.727
-25.1576
-25.525
-25.8726
-26.3067
-26.7814
-27.2581
-27.6911
-28.0497
-28.3256
-28.514
-28.6112
-28.6109
-28.505
-28.2891
-27.9638
-27.5301
-27.0095
-26.4259
-25.8171
-25.2308
-24.6683
-24.083
-23.4106
-22.6134
-21.6863
-20.6237
-19.5169
-18.4333
-17.4095
-16.4704
-15.6976
-15.1403
-14.81
-14.7515
-15.2195
-16.1806
-17.2954
-18.3533
-19.2097
-19.7902
-20.0476
-19.9541
-19.492
-18.6538
-17.4401
-15.8612
-13.9383
-11.7055
-9.20905
-6.50548
-3.65862
-0.736671
2.19143
5.05967
7.80826
10.3856
12.7498
14.8736
16.7462
18.3711
19.76
20.9284
21.891
22.6607
23.2487
23.6653
23.9202
24.0245
23.992
23.8362
23.572
23.2147
22.7796
22.2819
21.7358
21.1546
20.5504
19.9342
19.3157
18.7033
18.1046
17.5261
16.9733
16.4509
15.9625
15.5109
15.0982
14.7256
14.394
14.1038
13.8549
13.6468
13.4786
13.3495
13.2582
13.2035
13.1851
13.2019
13.2523
13.3318
13.431
13.5387
13.6392
13.7217
13.7847
13.832
13.8912
13.9265
13.8851
13.8416
13.8246
13.7895
13.7648
13.8113
13.9913
14.3291
14.7628
15.1986
15.5716
15.8672
16.0996
16.2976
16.4792
16.686
16.8635
-8.68787
-8.78807
-9.04415
-9.41197
-9.81866
-10.2503
-10.7311
-11.2878
-11.9244
-12.6067
-13.2815
-13.9117
-14.4661
-14.9256
-15.2794
-15.5257
-15.6689
-15.7168
-15.6847
-15.594
-15.4479
-15.251
-15.0249
-14.7937
-14.5684
-14.3977
-14.2896
-14.2656
-14.3601
-14.5903
-14.9623
-15.445
-16.0144
-16.6079
-17.1674
-17.6471
-18.1125
-18.6312
-19.2048
-19.8074
-20.3217
-20.6905
-20.9048
-21.1664
-21.6241
-22.1945
-22.7942
-23.49
-24.1627
-24.733
-25.2432
-25.6877
-26.0556
-26.3744
-26.6915
-27.0054
-27.3311
-27.6696
-28.0265
-28.3821
-28.7232
-29.0348
-29.3077
-29.5343
-29.7064
-29.8098
-29.824
-29.7268
-29.5054
-29.158
-28.694
-28.1524
-27.5704
-26.9846
-26.4151
-25.8349
-25.2057
-24.4791
-23.6105
-22.6083
-21.4939
-20.3308
-19.1907
-18.145
-17.2826
-16.7023
-16.5023
-16.6074
-16.9857
-17.6153
-18.4256
-19.2829
-20.0833
-20.7258
-21.1414
-21.2741
-21.088
-20.5558
-19.6618
-18.3995
-16.7747
-14.8059
-12.525
-9.97684
-7.21762
-4.31278
-1.33288
1.6516
4.57408
7.37421
9.99938
12.4056
14.5628
16.4592
18.0996
19.4988
20.6749
21.6448
22.4221
23.0184
23.4433
23.706
23.8184
23.7936
23.6452
23.3883
23.0382
22.6103
22.1197
21.5805
21.0059
20.4079
19.7973
19.1837
18.5757
17.9808
17.4055
16.8554
16.3352
15.8486
15.3981
14.9857
14.6127
14.2803
13.9886
13.7376
13.5268
13.3554
13.2224
13.1264
13.066
13.0403
13.0482
13.0881
13.1563
13.2451
13.3451
13.4435
13.5313
13.6062
13.6671
13.7215
13.7573
13.7638
13.7705
13.7678
13.727
13.6891
13.7328
13.9211
14.2768
14.7347
15.1877
15.5656
15.8592
16.0825
16.2706
16.4328
16.6174
16.768
-8.71329
-8.87295
-9.32318
-9.95922
-10.7194
-11.544
-12.3794
-13.2072
-14.0057
-14.7454
-15.4013
-15.962
-16.417
-16.7623
-17.0032
-17.1543
-17.2303
-17.2418
-17.2081
-17.1324
-17.0263
-16.8933
-16.7368
-16.571
-16.4188
-16.2894
-16.2032
-16.1697
-16.2081
-16.3388
-16.5792
-16.9319
-17.3811
-17.8826
-18.3934
-18.9083
-19.4847
-20.1734
-20.9342
-21.6545
-22.2415
-22.6824
-22.9757
-23.2743
-23.7184
-24.3164
-25.0116
-25.7392
-26.4361
-27.0608
-27.5857
-28.0072
-28.3334
-28.6032
-28.8692
-29.1302
-29.3852
-29.6301
-29.8677
-30.0985
-30.3263
-30.5515
-30.7718
-30.9787
-31.1605
-31.2942
-31.3452
-31.2757
-31.0559
-30.6716
-30.1397
-29.5287
-28.9124
-28.3281
-27.7756
-27.2337
-26.6184
-25.8505
-24.9019
-23.8077
-22.6115
-21.395
-20.2593
-19.2999
-18.5894
-18.2867
-18.3772
-18.7696
-19.3315
-20.0025
-20.7299
-21.4437
-22.0808
-22.5688
-22.8495
-22.8706
-22.5946
-21.9904
-21.0357
-19.7175
-18.0364
-16.0079
-13.6631
-11.047
-8.21555
-5.23552
-2.18038
0.876939
3.86878
6.73519
9.42345
11.8872
14.0914
16.0221
17.6861
19.1016
20.2903
21.2719
22.0613
22.6701
23.1073
23.3823
23.5063
23.4923
23.3545
23.108
22.7683
22.351
21.8709
21.3421
20.7775
20.1888
19.5866
18.9805
18.379
17.7894
17.2184
16.6719
16.1546
15.6702
15.2214
14.8102
14.4379
14.1056
13.8134
13.5616
13.3496
13.1765
13.0408
12.9407
12.8747
12.8421
12.8421
12.8737
12.9341
13.0173
13.1156
13.2195
13.3203
13.4154
13.499
13.5721
13.6299
13.6577
13.6677
13.6644
13.6377
13.6056
13.6414
13.8359
14.2134
14.7006
15.178
15.5618
15.851
16.0641
16.2379
16.3814
16.5382
16.6618
-9.10921
-9.44789
-10.121
-11.0022
-11.9689
-12.9487
-13.8962
-14.7834
-15.601
-16.3374
-16.9862
-17.5383
-17.9848
-18.3207
-18.5516
-18.6987
-18.7842
-18.8246
-18.8344
-18.8212
-18.7873
-18.732
-18.6643
-18.5949
-18.5364
-18.4995
-18.4886
-18.5037
-18.5434
-18.6124
-18.7251
-18.8981
-19.1404
-19.4516
-19.8315
-20.2995
-20.895
-21.6329
-22.4404
-23.2128
-23.8678
-24.4093
-24.8688
-25.3229
-25.846
-26.4779
-27.2008
-27.9569
-28.6955
-29.3737
-29.949
-30.4039
-30.7421
-31.0044
-31.236
-31.4394
-31.6155
-31.7732
-31.9212
-32.062
-32.2008
-32.3416
-32.4861
-32.6311
-32.7677
-32.8709
-32.8979
-32.7972
-32.5305
-32.0807
-31.4734
-30.788
-30.1092
-29.482
-28.903
-28.3406
-27.7226
-26.957
-25.9977
-24.874
-23.6556
-22.4507
-21.3886
-20.5834
-20.1267
-20.0923
-20.4159
-20.9537
-21.5998
-22.3083
-23.0243
-23.6876
-24.2431
-24.6335
-24.8121
-24.7373
-24.3769
-23.7009
-22.6834
-21.3053
-19.5623
-17.4672
-15.0503
-12.3559
-9.44049
-6.3733
-3.23213
-0.0938941
2.97269
5.90986
8.66712
11.1963
13.457
15.4318
17.1277
18.5662
19.7731
20.7709
21.577
22.2026
22.6558
22.9461
23.0844
23.0841
22.9596
22.7265
22.4005
21.9972
21.5313
21.0165
20.4651
19.8885
19.2971
18.7003
18.1063
17.5228
16.957
16.4149
15.9015
15.4204
14.9743
14.5652
14.1945
13.8633
13.5722
13.3213
13.11
12.9371
12.8006
12.6988
12.6296
12.5922
12.5864
12.6118
12.6672
12.7481
12.8488
12.9616
13.0782
13.1944
13.3033
13.4029
13.4894
13.5494
13.5861
13.6054
13.5992
13.5797
13.6154
13.8059
14.1935
14.6998
15.1854
15.5647
15.8421
16.0416
16.1991
16.3254
16.4562
16.5623
-9.81775
-10.3473
-11.2137
-12.1771
-13.1969
-14.211
-15.1718
-16.0673
-16.8999
-17.671
-18.3737
-18.9928
-19.5138
-19.9281
-20.242
-20.4753
-20.646
-20.7672
-20.8538
-20.9178
-20.9643
-20.9963
-21.02
-21.0422
-21.0727
-21.119
-21.1819
-21.2552
-21.3287
-21.3965
-21.4629
-21.5429
-21.6583
-21.8364
-22.1066
-22.5137
-23.0746
-23.7833
-24.57
-25.3542
-26.0729
-26.7109
-27.2937
-27.8613
-28.4579
-29.1214
-29.852
-30.6169
-31.3725
-32.0722
-32.6761
-33.1645
-33.5184
-33.7533
-33.9127
-34.0235
-34.1053
-34.1741
-34.2365
-34.2932
-34.3447
-34.3891
-34.4267
-34.456
-34.4674
-34.4383
-34.3353
-34.113
-33.7335
-33.1855
-32.4938
-31.7222
-30.9372
-30.1878
-29.4979
-28.851
-28.1753
-27.3882
-26.442
-25.3585
-24.2114
-23.1396
-22.2683
-21.7054
-21.5355
-21.7628
-22.2822
-22.952
-23.7043
-24.4936
-25.2554
-25.93
-26.4611
-26.7985
-26.9053
-26.7526
-26.3175
-25.5742
-24.4954
-23.0578
-21.2525
-19.0895
-16.5971
-13.8193
-10.8136
-7.65224
-4.41881
-1.19639
1.94409
4.94752
7.76797
10.3583
12.6772
14.7015
16.4359
17.9036
19.1338
20.1531
20.9807
21.6263
22.0981
22.4055
22.5601
22.5755
22.4668
22.25
21.941
21.5553
21.1072
20.6096
20.0742
19.512
18.9329
18.3458
17.7596
17.1825
16.6219
16.084
15.5743
15.0964
14.6532
14.2466
13.8784
13.5496
13.2613
13.0135
12.8054
12.6353
12.5012
12.4008
12.3317
12.2928
12.2845
12.307
12.3603
12.4419
12.5473
12.6704
12.8034
12.9408
13.0759
13.2043
13.3229
13.4212
13.4989
13.5599
13.5958
13.6148
13.6736
13.8682
14.2468
14.7382
15.2085
15.5724
15.8331
16.0171
16.158
16.2678
16.3759
16.4653
-11.0789
-11.6029
-12.4124
-13.302
-14.2274
-15.1659
-16.0896
-16.9892
-17.8638
-18.7076
-19.504
-20.2326
-20.8767
-21.4251
-21.8792
-22.2526
-22.5588
-22.8125
-23.0305
-23.2225
-23.3927
-23.5452
-23.6845
-23.8171
-23.9501
-24.0882
-24.2321
-24.3764
-24.5109
-24.6258
-24.717
-24.7911
-24.8668
-24.9869
-25.2049
-25.5826
-26.1218
-26.7974
-27.5621
-28.3579
-29.1277
-29.846
-30.5153
-31.1557
-31.7969
-32.4642
-33.1651
-33.8842
-34.5838
-35.2287
-35.7909
-36.2489
-36.559
-36.7114
-36.7586
-36.7524
-36.7242
-36.6948
-36.6697
-36.6455
-36.6139
-36.5635
-36.4866
-36.3801
-36.237
-36.0394
-35.7558
-35.3502
-34.7998
-34.1028
-33.281
-32.376
-31.4354
-30.504
-29.618
-28.7865
-27.9749
-27.1233
-26.1942
-25.2017
-24.214
-23.3647
-22.768
-22.5173
-22.6581
-23.143
-23.85
-24.6742
-25.567
-26.4745
-27.3272
-28.0622
-28.6162
-28.94
-29.0029
-28.7895
-28.2907
-27.4891
-26.3587
-24.8705
-23.008
-20.7786
-18.2119
-15.3522
-12.2569
-9.00128
-5.67544
-2.36915
0.842827
3.9048
6.7752
9.41482
11.785
13.8568
15.6308
17.1301
18.3871
19.4324
20.2837
20.9507
21.442
21.7673
21.939
21.9717
21.8811
21.6835
21.3949
21.0302
20.6026
20.1245
19.6067
19.0594
18.4923
17.915
17.3364
16.7651
16.2089
15.6746
15.1677
14.6925
14.2517
13.8478
13.4826
13.1579
12.8747
12.6326
12.4305
12.2665
12.138
12.042
11.9763
11.9396
11.9327
11.9566
12.0123
12.0983
12.2114
12.3469
12.4977
12.6576
12.82
12.9793
13.1326
13.2722
13.3958
13.5066
13.5995
13.6793
13.785
13.9928
14.3513
14.8082
15.244
15.5824
15.8218
15.9889
16.1138
16.2087
16.2978
16.3729
-12.2302
-12.6533
-13.2536
-13.9967
-14.8362
-15.7228
-16.6253
-17.5378
-18.4637
-19.3933
-20.3034
-21.1698
-21.973
-22.6995
-23.3454
-23.9128
-24.4084
-24.8446
-25.2343
-25.5858
-25.9064
-26.2022
-26.4779
-26.7378
-26.9863
-27.2273
-27.461
-27.6846
-27.8907
-28.0696
-28.214
-28.3263
-28.4229
-28.5553
-28.7926
-29.1877
-29.7393
-30.4253
-31.2117
-32.0472
-32.8754
-33.6647
-34.4026
-35.0901
-35.74
-36.37
-36.9964
-37.6157
-38.1987
-38.7287
-39.1893
-39.5473
-39.7427
-39.7619
-39.6654
-39.5275
-39.3887
-39.2633
-39.1473
-39.0368
-38.9207
-38.7779
-38.5946
-38.3625
-38.0707
-37.7047
-37.2421
-36.6583
-35.9355
-35.0708
-34.0777
-32.9839
-31.8274
-30.6547
-29.5145
-28.4394
-27.4292
-26.4579
-25.5105
-24.6099
-23.8257
-23.2521
-22.9745
-23.0577
-23.5013
-24.2204
-25.1002
-26.0792
-27.1202
-28.1602
-29.1301
-29.9596
-30.5707
-30.9091
-30.9483
-30.6878
-30.1357
-29.2862
-28.1156
-26.5894
-24.6814
-22.3963
-19.7671
-16.8383
-13.6683
-10.3333
-6.92718
-3.54698
-0.273291
2.83346
5.73881
8.41395
10.8228
12.9321
14.7397
16.2681
17.5537
18.6253
19.5003
20.1885
20.6987
21.0419
21.2316
21.2833
21.2134
21.0383
20.7732
20.4319
20.0268
19.5689
19.0686
18.5358
17.9802
17.4115
16.8394
16.2728
15.7198
15.1878
14.6831
14.2098
13.7709
13.3694
13.0078
12.6879
12.4106
12.1757
11.9818
11.8264
11.7062
11.6175
11.5577
11.5264
11.5249
11.5552
11.6186
11.7145
11.8402
11.9916
12.1626
12.3471
12.539
12.7318
12.922
13.1035
13.2732
13.4338
13.5851
13.7305
13.8944
14.1287
14.4716
14.8864
15.2791
15.5866
15.8059
15.9582
16.0696
16.1525
16.2267
16.2894
-12.8051
-13.1207
-13.6187
-14.2812
-15.0599
-15.9077
-16.8019
-17.7395
-18.7246
-19.7442
-20.7714
-21.784
-22.7601
-23.6812
-24.5362
-25.3203
-26.0363
-26.6911
-27.2886
-27.8326
-28.3307
-28.7909
-29.2188
-29.617
-29.9891
-30.3387
-30.6676
-30.9753
-31.2575
-31.5068
-31.7174
-31.8951
-32.0618
-32.2741
-32.5997
-33.0729
-33.692
-34.4381
-35.2804
-36.1673
-37.0466
-37.8838
-38.6553
-39.3503
-39.9693
-40.525
-41.0457
-41.5378
-41.9792
-42.3666
-42.6861
-42.8943
-42.9342
-42.8043
-42.5709
-42.3107
-42.0621
-41.8357
-41.6214
-41.4135
-41.1995
-40.9593
-40.6747
-40.3333
-39.9196
-39.4151
-38.7976
-38.0463
-37.148
-36.0995
-34.9104
-33.6016
-32.2084
-30.7801
-29.3754
-28.0483
-26.8281
-25.7217
-24.7379
-23.9114
-23.3099
-23.0007
-23.0345
-23.43
-24.1373
-25.0446
-26.062
-27.1712
-28.3437
-29.5088
-30.6024
-31.54
-32.2216
-32.5848
-32.6074
-32.3079
-31.7137
-30.8294
-29.6326
-28.0835
-26.1457
-23.8201
-21.1438
-18.1649
-14.9431
-11.5531
-8.09029
-4.66153
-1.35093
1.78196
4.70495
7.3997
9.82962
11.9601
13.7907
15.344
16.655
17.7506
18.647
19.3541
19.8818
20.2425
20.451
20.5238
20.4773
20.3272
20.0876
19.7707
19.3877
18.9489
18.4644
17.9442
17.3985
16.8369
16.2695
15.7056
15.1543
14.6236
14.1198
13.6472
13.2093
12.8093
12.4501
12.1341
11.8623
11.6345
11.4493
11.3033
11.1928
11.1137
11.0629
11.0405
11.0497
11.0929
11.1716
11.2848
11.4299
11.6028
11.7983
12.0108
12.2348
12.4642
12.6941
12.9192
13.1356
13.3456
13.5511
13.7561
13.9755
14.241
14.5764
14.9546
15.3071
15.586
15.7877
15.9282
16.029
16.1025
16.1651
16.2171
-12.9593
-13.2176
-13.6531
-14.2623
-15.004
-15.8393
-16.7437
-17.7142
-18.7532
-19.851
-20.986
-22.1375
-23.2825
-24.3968
-25.4625
-26.4699
-27.4164
-28.2998
-29.1162
-29.8657
-30.556
-31.1945
-31.7857
-32.3332
-32.8419
-33.3169
-33.762
-34.179
-34.5652
-34.916
-35.2306
-35.521
-35.8185
-36.1737
-36.6386
-37.2333
-37.9535
-38.7821
-39.687
-40.6181
-41.5287
-42.3828
-43.154
-43.8268
-44.3959
-44.873
-45.2942
-45.6577
-45.946
-46.1687
-46.3179
-46.3436
-46.1989
-45.899
-45.5204
-45.1326
-44.761
-44.4153
-44.0899
-43.774
-43.4521
-43.1068
-42.7194
-42.2719
-41.7443
-41.1126
-40.3517
-39.4401
-38.3651
-37.1255
-35.7321
-34.2081
-32.5912
-30.9348
-29.3026
-27.7599
-26.3582
-25.1327
-24.1156
-23.3512
-22.8963
-22.801
-23.0889
-23.7366
-24.649
-25.6896
-26.8021
-28.0082
-29.2813
-30.5439
-31.7412
-32.7716
-33.5108
-33.8901
-33.8928
-33.555
-32.9239
-32.0145
-30.8063
-29.2524
-27.3063
-24.9632
-22.2623
-19.2542
-16.0017
-12.5825
-9.09785
-5.65498
-2.33928
0.795509
3.71671
6.40771
8.83666
10.9721
12.8137
14.3839
15.714
16.8284
17.7416
18.464
19.007
19.3846
19.6129
19.7084
19.687
19.563
19.3487
19.0548
18.6915
18.269
17.7975
17.2871
16.7483
16.1911
15.6258
15.0625
14.5109
13.9796
13.4749
13.0019
12.5638
12.1639
11.8057
11.4919
11.2239
11.0016
10.8233
10.6861
10.5852
10.5161
10.4763
10.4674
10.4939
10.5589
10.6625
10.8028
10.9762
11.1784
11.4047
11.6502
11.9102
12.1791
12.4515
12.722
12.9866
13.2459
13.502
13.7585
14.025
14.3198
14.6541
15.0061
15.3269
15.5822
15.7696
15.9013
15.9946
16.0608
16.1145
16.1572
-12.8576
-13.0853
-13.505
-14.1048
-14.848
-15.7007
-16.6417
-17.6655
-18.7725
-19.9557
-21.1993
-22.4833
-23.7833
-25.0727
-26.3298
-27.5398
-28.6921
-29.7763
-30.7847
-31.7189
-32.5877
-33.3989
-34.1574
-34.867
-35.5314
-36.1546
-36.7404
-37.2911
-37.806
-38.2848
-38.7319
-39.1625
-39.6094
-40.1157
-40.7187
-41.4299
-42.2454
-43.1483
-44.107
-45.0765
-46.0149
-46.8867
-47.6658
-48.3333
-48.8786
-49.3086
-49.6585
-49.9132
-50.0648
-50.1314
-50.1023
-49.9321
-49.5928
-49.1124
-48.5709
-48.0353
-47.5215
-47.0345
-46.5756
-46.1333
-45.6873
-45.2212
-44.7166
-44.15
-43.4966
-42.728
-41.8172
-40.7436
-39.495
-38.0725
-36.4898
-34.7741
-32.9684
-31.1319
-29.3319
-27.6362
-26.1048
-24.7954
-23.7613
-23.0511
-22.712
-22.7762
-23.2475
-24.0724
-25.1232
-26.2422
-27.4003
-28.6612
-29.9981
-31.3188
-32.5791
-33.6604
-34.4182
-34.7855
-34.7506
-34.3681
-33.7016
-32.7767
-31.5712
-30.0302
-28.0983
-25.7617
-23.056
-20.0383
-16.7816
-13.3686
-9.90276
-6.48505
-3.19806
-0.0920751
2.8025
5.46717
7.8739
9.99639
11.8353
13.4114
14.752
15.8775
16.8013
17.5345
18.0903
18.4843
18.7326
18.8515
18.8551
18.7556
18.5636
18.2888
17.9411
17.5306
17.0679
16.5632
16.027
15.4702
14.9036
14.3382
13.7844
13.2505
12.7434
12.2679
11.828
11.427
11.0688
10.7562
10.4906
10.272
10.0985
9.96735
9.87443
9.81484
9.78792
9.79743
9.8491
9.94555
10.0846
10.2623
10.4738
10.7143
10.9791
11.2641
11.5652
11.8777
12.1959
12.5147
12.8296
13.1392
13.4444
13.7474
14.054
14.3739
14.7107
15.0455
15.3434
15.5806
15.757
15.8823
15.9701
16.0309
16.0773
16.1119
-12.6949
-12.9192
-13.3499
-13.9767
-14.7701
-15.6979
-16.7322
-17.8571
-19.066
-20.3507
-21.6986
-23.0912
-24.5054
-25.9163
-27.3019
-28.645
-29.9307
-31.1479
-32.2938
-33.3745
-34.3981
-35.3698
-36.2919
-37.1637
-37.9838
-38.7515
-39.4679
-40.1357
-40.7586
-41.3442
-41.9053
-42.4619
-43.045
-43.6875
-44.4108
-45.2195
-46.1096
-47.0672
-48.065
-49.0652
-50.0296
-50.9239
-51.7196
-52.3947
-52.9354
-53.3368
-53.6146
-53.7622
-53.7919
-53.7394
-53.5928
-53.3035
-52.85
-52.2594
-51.5966
-50.9277
-50.278
-49.6476
-49.0383
-48.451
-47.8644
-47.2585
-46.6139
-45.904
-45.1004
-44.1736
-43.0985
-41.8587
-40.4453
-38.861
-37.1233
-35.2612
-33.3201
-31.3641
-29.4628
-27.6828
-26.0846
-24.7358
-23.7066
-23.0503
-22.7974
-22.9633
-23.5421
-24.4642
-25.5893
-26.7492
-27.9255
-29.204
-30.5577
-31.8927
-33.1505
-34.2118
-34.9315
-35.2456
-35.1533
-34.7225
-34.0258
-33.0907
-31.8903
-30.3645
-28.4527
-26.138
-23.4525
-20.4583
-17.2371
-13.8745
-10.4725
-7.12396
-3.90281
-0.856562
1.98548
4.60137
6.96505
9.05615
10.8772
12.447
13.7873
14.915
15.8424
16.582
17.1483
17.5573
17.8248
17.965
17.9903
17.9106
17.7354
17.474
17.1362
16.7323
16.2726
15.7679
15.2294
14.6687
14.0978
13.5283
12.9703
12.4327
11.922
11.4431
10.9999
10.5966
10.237
9.92419
9.65912
9.44161
9.27042
9.14336
9.05679
9.00784
8.9983
9.03418
9.12054
9.25697
9.43918
9.6616
9.91872
10.205
10.5157
10.847
11.1955
11.5567
11.9254
12.2961
12.664
13.0259
13.3806
13.7281
14.0708
14.4131
14.7543
15.0784
15.3604
15.5844
15.7523
15.8728
15.9567
16.0131
16.0535
16.0809
-12.5676
-12.8088
-13.2903
-14.0019
-14.9126
-15.9802
-17.163
-18.4305
-19.764
-21.152
-22.583
-24.0408
-25.5056
-26.9571
-28.3787
-29.7588
-31.0877
-32.36
-33.5786
-34.7512
-35.8832
-36.9744
-38.0204
-39.0127
-39.9434
-40.8085
-41.61
-42.3559
-43.058
-43.7315
-44.3937
-45.0644
-45.7666
-46.5204
-47.3364
-48.2179
-49.164
-50.1646
-51.1958
-52.2231
-53.21
-54.1236
-54.9337
-55.6164
-56.1627
-56.5515
-56.7707
-56.8342
-56.7806
-56.6493
-56.444
-56.1216
-55.6551
-55.0499
-54.3488
-53.6069
-52.8644
-52.1221
-51.3743
-50.6336
-49.8907
-49.1273
-48.3211
-47.4442
-46.4663
-45.3622
-44.1143
-42.7121
-41.1501
-39.4335
-37.5862
-35.6343
-33.6206
-31.6101
-29.6741
-27.8758
-26.2712
-24.9386
-23.9425
-23.3303
-23.1295
-23.345
-23.9659
-24.9155
-26.0585
-27.2278
-28.3998
-29.6467
-30.9619
-32.2545
-33.4457
-34.4234
-35.057
-35.2875
-35.1274
-34.6503
-33.9246
-32.9716
-31.7626
-30.2391
-28.3449
-26.0655
-23.4312
-20.5012
-17.3609
-14.0969
-10.803
-7.56294
-4.4417
-1.48349
1.28106
3.82591
6.12623
8.16822
9.95664
11.507
12.8359
13.9564
14.8805
15.6219
16.1955
16.6168
16.8998
17.0566
17.0973
17.0305
16.8651
16.6102
16.2757
15.8715
15.4083
14.8975
14.3519
13.7846
13.2079
12.6331
12.0707
11.5292
11.0142
10.5305
10.0825
9.67486
9.31179
8.99565
8.72721
8.5063
8.3334
8.20879
8.12989
8.09739
8.11536
8.1893
8.32019
8.50354
8.73307
9.00354
9.30973
9.64623
10.0085
10.3926
10.7948
11.2105
11.6344
12.0615
12.4859
12.903
13.3091
13.7014
14.0793
14.4434
14.791
15.1093
15.3807
15.5953
15.7567
15.8734
15.9542
16.007
16.0422
16.0629
-12.4713
-12.7531
-13.322
-14.1615
-15.2307
-16.4669
-17.8083
-19.2099
-20.6425
-22.0909
-23.5448
-24.9964
-26.436
-27.855
-29.2488
-30.6154
-31.9492
-33.2391
-34.4803
-35.6762
-36.8317
-37.9486
-39.0254
-40.0547
-41.0285
-41.9421
-42.7966
-43.5995
-44.3633
-45.1031
-45.8364
-46.5819
-47.3582
-48.1794
-49.054
-49.9865
-50.9757
-52.0119
-53.0722
-54.1253
-55.1386
-56.0811
-56.9245
-57.6402
-58.222
-58.6454
-58.8782
-58.9304
-58.8645
-58.7153
-58.5058
-58.2074
-57.7901
-57.2465
-56.5927
-55.8605
-55.0934
-54.2914
-53.4429
-52.5582
-51.6489
-50.712
-49.7275
-48.6685
-47.5065
-46.2226
-44.808
-43.2574
-41.5678
-39.7508
-37.8399
-35.8619
-33.8476
-31.851
-29.9425
-28.187
-26.6345
-25.3481
-24.3948
-23.8285
-23.6575
-23.8728
-24.464
-25.3748
-26.4939
-27.6605
-28.8105
-29.9845
-31.2039
-32.3936
-33.4591
-34.3003
-34.8127
-34.948
-34.7245
-34.2081
-33.4546
-32.4756
-31.2418
-29.7041
-27.8227
-25.5917
-23.0372
-20.2111
-17.1917
-14.0639
-10.9121
-7.80987
-4.81423
-1.96765
0.696257
3.14828
5.36654
7.34373
9.08581
10.6043
11.9105
13.0147
13.9289
14.6669
15.2433
15.6719
15.9645
16.1308
16.1793
16.1178
15.9549
15.6992
15.36
14.9476
14.4738
13.9521
13.3968
12.8215
12.2386
11.6597
11.094
10.5486
10.0295
9.54062
9.08638
8.6721
8.30202
7.97731
7.69922
7.46987
7.29139
7.16718
7.09975
7.09279
7.1499
7.27233
7.4557
7.69086
7.97072
8.29092
8.64732
9.03582
9.45291
9.8946
10.3563
10.8326
11.3175
11.8055
12.2903
12.7659
13.2262
13.6653
14.0795
14.4668
14.8233
15.1398
15.4048
15.613
15.7697
15.8832
15.9615
16.0112
16.0417
16.056
-12.2246
-12.5546
-13.219
-14.1849
-15.3991
-16.779
-18.2474
-19.7437
-21.2348
-22.7076
-24.1624
-25.6039
-27.0276
-28.4209
-29.7752
-31.0901
-32.3687
-33.6017
-34.7812
-35.9092
-36.9927
-38.0408
-39.0614
-40.0516
-41.0037
-41.9089
-42.7638
-43.5721
-44.3466
-45.1047
-45.8669
-46.6523
-47.4758
-48.3459
-49.2692
-50.2489
-51.2799
-52.3513
-53.4429
-54.5282
-55.579
-56.5653
-57.4623
-58.2441
-58.8961
-59.4029
-59.7253
-59.8583
-59.8565
-59.7696
-59.6281
-59.4147
-59.0978
-58.6581
-58.0967
-57.4307
-56.687
-55.8749
-54.9834
-54.0077
-52.9632
-51.8665
-50.7126
-49.4798
-48.1464
-46.7025
-45.1478
-43.4834
-41.7113
-39.8434
-37.9212
-35.9659
-33.9978
-32.0631
-30.2308
-28.563
-27.1053
-25.9151
-25.0394
-24.5044
-24.3263
-24.4955
-24.993
-25.7927
-26.8313
-27.9641
-29.0767
-30.16
-31.2454
-32.2834
-33.1833
-33.8576
-34.2317
-34.2732
-33.9985
-33.4545
-32.6765
-31.6679
-30.4041
-28.8524
-26.9894
-24.8159
-22.3566
-19.6564
-16.7837
-13.8156
-10.8263
-7.87957
-5.0275
-2.31271
0.228556
2.56762
4.68843
6.58849
8.27281
9.74809
11.0211
12.1004
12.9977
13.7265
14.2999
14.7293
15.0241
15.1924
15.241
15.1772
15.0083
14.7424
14.3893
13.9606
13.4706
12.9353
12.3702
11.7889
11.2034
10.6242
10.0583
9.5115
8.98942
8.49547
8.03369
7.60964
7.22693
6.88757
6.59301
6.34719
6.15892
6.03643
5.9867
6.0137
6.11666
6.29134
6.5293
6.81854
7.15124
7.52344
7.93176
8.37372
8.84726
9.3491
9.87423
10.4166
10.9689
11.5236
12.0739
12.6118
13.1292
13.6179
14.0709
14.4837
14.8523
15.1707
15.4327
15.6371
15.7905
15.9013
15.9774
16.0242
16.0502
16.0584
-11.4877
-11.876
-12.6286
-13.7025
-15.0416
-16.5484
-18.1372
-19.7378
-21.3131
-22.8504
-24.3499
-25.8117
-27.2234
-28.5586
-29.8007
-30.9569
-32.0529
-33.1042
-34.1158
-35.0907
-36.0336
-36.9535
-37.8593
-38.7496
-39.6175
-40.4546
-41.2582
-42.033
-42.793
-43.5592
-44.3504
-45.1801
-46.0552
-46.9802
-47.9599
-48.9937
-50.0728
-51.1869
-52.3198
-53.4506
-54.5549
-55.604
-56.5729
-57.442
-58.1932
-58.8173
-59.2807
-59.5715
-59.7114
-59.7586
-59.7438
-59.6719
-59.4955
-59.1827
-58.7277
-58.1461
-57.4575
-56.6697
-55.7772
-54.7718
-53.6595
-52.4585
-51.1768
-49.8097
-48.3463
-46.7873
-45.1414
-43.417
-41.6176
-39.7529
-37.8572
-35.9561
-34.0645
-32.2234
-30.5072
-28.9716
-27.6454
-26.5729
-25.7877
-25.3104
-25.1291
-25.2329
-25.6041
-26.2283
-27.0904
-28.1038
-29.1307
-30.1052
-31.0335
-31.8893
-32.604
-33.1066
-33.3458
-33.2982
-32.9757
-32.4066
-31.6048
-30.569
-29.2839
-27.7306
-25.8988
-23.7948
-21.4414
-18.8808
-16.1712
-13.3779
-10.5645
-7.78816
-5.09844
-2.53833
-0.142478
2.06638
4.07839
5.89213
7.50881
8.93002
10.1596
11.2055
12.0791
12.7925
13.3563
13.7796
14.0695
14.2319
14.2724
14.1967
14.0113
13.7249
13.349
12.8988
12.3917
11.8454
11.2753
10.6945
10.1138
9.54053
8.98034
8.43725
7.91528
7.41679
6.94549
6.50744
6.10697
5.74332
5.4222
5.15328
4.95231
4.83505
4.80814
4.87168
5.01972
5.24451
5.53478
5.87701
6.26381
6.69106
7.15491
7.65333
8.18585
8.75015
9.34194
9.95523
10.5813
11.2103
11.8325
12.438
13.0164
13.5576
14.0526
14.4943
14.8784
15.2021
15.4641
15.6668
15.8179
15.9266
16.0004
16.0444
16.066
16.0683
-10.0177
-10.4939
-11.3465
-12.5339