/*--------------------------------*- C++ -*----------------------------------*\
  =========                 |
  \\      /  F ield         | OpenFOAM: The Open Source CFD Toolbox
   \\    /   O peration     | Website:  https://openfoam.org
    \\  /    A nd           | Version:  9
     \\/     M anipulation  |
\*---------------------------------------------------------------------------*/
FoamFile
{
    format      ascii;
    class       volScalarField;
    location    "0.067";
    object      pPrime2Mean;
}
// * * * * * * * * * * * * * * * * * * * * * * * * * * * * * * * * * * * * * //

dimensions      [0 4 -4 0 0 0 0];

internalField   nonuniform List<scalar> 
12225
(
299230
296277
292929
289336
285601
281805
278000
274221
270486
266805
263180
259606
256069
252549
249011
245398
241590
237307
299262
296304
292950
289353
285616
281817
278011
274231
270496
266816
263192
259619
256086
252571
249043
245450
241694
237608
299339
296363
292998
289392
285648
281845
278035
274253
270518
266839
263217
259649
256123
252620
249113
245559
241897
238070
299445
296461
293078
289457
285701
281890
278076
274291
270554
266877
263259
259698
256184
252700
249225
245730
242187
238611
299607
296608
293196
289552
285779
281957
278135
274345
270608
266933
263321
259771
256272
252815
249382
245961
242548
239192
299871
296813
293359
289684
285888
282049
278216
274421
270683
267010
263406
259869
256392
252967
249587
246247
242964
239793
300235
297088
293576
289858
286031
282170
278323
274521
270780
267111
263517
259996
256545
253160
249838
246584
243423
240406
300700
297442
293856
290083
286215
282326
278461
274648
270905
267240
263656
260155
256734
253393
250133
246966
243916
241026
301294
297889
294207
290363
286446
282521
278633
274807
271059
267399
263828
260349
256961
253667
250471
247387
244436
241653
301986
298436
294639
290709
286729
282760
278843
275001
271248
267591
264034
260579
257227
253981
250848
247841
244979
242284
302802
299100
295165
291129
287070
283047
279095
275233
271473
267820
264277
260847
257532
254334
251262
248326
245540
242920
303671
299833
295742
291586
287441
283359
279368
275484
271715
268064
264535
261128
257846
254692
251671
248794
246069
243507
304808
300687
296402
292105
287861
283712
279676
275766
271986
268337
264820
261436
258186
255072
252100
249275
246603
244091
306360
301833
297274
292785
288409
284170
280076
276132
272336
268687
265183
261824
258608
255538
252615
249843
247224
244760
308432
303348
298410
293665
289115
284759
280590
276601
272784
269132
265641
262306
259126
256099
253225
250504
247936
245518
311206
305326
299857
294773
289998
285494
281232
277187
273342
269684
266204
262893
259748
256763
253935
251262
248739
246363
314633
307674
301561
296076
291042
286371
282001
277893
274016
270349
266877
263589
260475
257528
254742
252111
249629
247290
318174
310100
303331
297442
292153
287321
282852
278685
274779
271105
267643
264376
261291
258378
255629
253034
250586
248278
320683
311818
304638
298519
293094
288178
283661
279471
275560
271895
268451
265208
262153
259272
256555
253992
251574
249292
318986
311261
304568
298687
293394
288562
284103
279958
276084
272452
269039
265826
262799
259945
257252
254712
252314
250050
317140
310137
303968
298418
293338
288645
284279
280199
276374
272781
269399
266213
263208
260375
257700
255175
252791
250538
315082
308892
303232
298013
293147
288597
284330
280320
276546
272990
269638
266476
263492
260674
258014
255501
253127
250882
313174
307716
302511
297586
292917
288498
284321
280374
276646
273124
269797
266655
263687
260882
258233
255729
253362
251124
311632
306738
301904
297218
292707
288396
284291
280395
276703
273208
269902
266775
263819
261025
258384
255887
253525
251292
310534
305998
301432
296927
292536
288306
284257
280400
276736
273261
269970
266855
263909
261122
258486
255994
253637
251406
309637
305445
301087
296713
292409
288237
284229
280399
276755
273295
270014
266908
263968
261186
258555
256066
253711
251483
309016
305062
300849
296565
292321
288189
284207
280397
276766
273315
270042
266941
264005
261227
258598
256112
253759
251532
308549
304810
300699
296473
292266
288158
284193
280395
276772
273327
270059
266961
264028
261252
258625
256139
253787
251562
308298
304670
300615
296422
292235
288141
284186
280393
276775
273334
270068
266972
264040
261265
258639
256154
253803
251578
308170
304611
300581
296401
292223
288134
284182
280393
276776
273336
270071
266976
264045
261271
258645
256160
253809
251584
200918
200898
200862
200812
200748
200670
200578
200467
200336
200182
200005
199805
199584
199344
199084
198807
198512
198199
197868
197519
197153
196770
196371
195956
195523
195073
194604
194116
193609
193086
192548
191992
191419
190829
190221
189599
188965
188322
187669
187005
186330
185643
184939
184216
183472
182707
181923
181118
180298
179466
178618
177757
176886
176005
175113
174216
173324
172419
171492
170549
169600
168649
167699
166749
165795
164834
163861
162876
161875
160856
159816
158752
157665
156552
155414
154259
153096
151935
150783
149642
148510
147379
146246
145112
143978
142840
141710
140586
139459
138306
137126
135949
134791
133652
132529
131411
130290
129158
128008
126836
125636
124406
123143
121847
120519
119163
117785
116389
114982
113572
112165
110766
109379
108005
106644
105297
103960
102634
101315
100003
98696.1
97393
96092.7
94794.4
93497.2
92201.1
90905.8
89611.3
88317.6
87024.8
85733.1
84442.4
83152.8
81864.1
80576.3
79289.1
78002.5
76716.3
75430.4
74144.9
72859.6
71574.7
70290.1
69006
67722.3
66439.4
65157.3
63876.1
62596.1
61317.5
60040.5
58765.4
57492.3
56221.8
54954.9
53692.9
52437.3
51189
49948.1
48715.6
47490.7
46270.6
45056
43849.2
42649.4
41457
40273.7
39099.2
37932.4
36769
35606.7
34448.3
33301
32170.4
31057.3
29961.3
28882.3
27821.5
26781.7
25772.9
200974
200954
200919
200868
200803
200724
200629
200516
200381
200224
200045
199845
199626
199387
199130
198854
198560
198247
197916
197566
197198
196812
196410
195990
195553
195100
194628
194138
193631
193108
192569
192012
191440
190850
190246
189624
188988
188343
187688
187019
186339
185645
184938
184215
183472
182707
181918
181104
180276
179439
178588
177724
176853
175977
175094
174196
173292
172381
171454
170518
169576
168633
167690
166744
165792
164832
163861
162876
161875
160855
159815
158751
157662
156548
155407
154249
153084
151921
150766
149624
148493
147365
146237
145109
143980
142847
141709
140568
139423
138263
137091
135929
134783
133655
132538
131424
130305
129174
128025
126853
125654
124423
123160
121863
120535
119178
117798
116401
114993
113582
112174
110773
109385
108010
106649
105301
103964
102637
101318
100006
98698.9
97395.6
96095.2
94796.7
93499.5
92203.3
90907.9
89613.3
88319.5
87026.8
85735
84444.3
83154.6
81865.9
80578.1
79291
78004.4
76718.2
75432.4
74146.9
72861.7
71576.7
70292.2
69008.1
67724.5
66441.6
65159.6
63878.6
62598.8
61320.4
60043.7
58769
57496.4
56226.5
54960.4
53699.3
52444.4
51196.6
49955.5
48722
47494.8
46272
45056.3
43850.5
42651.8
41459.7
40276.5
39102.3
37935.5
36772
35608.8
34449
33300.8
32169.7
31056.4
29960.3
28881
27819.6
26778.2
25763.4
201126
201108
201072
201019
200948
200860
200756
200634
200491
200329
200147
199947
199729
199493
199237
198963
198669
198356
198023
197669
197297
196906
196498
196072
195629
195168
194692
194199
193690
193165
192622
192065
191492
190903
190298
189679
189045
188399
187741
187071
186386
185688
184977
184250
183503
182731
181938
181122
180286
179438
178579
177711
176839
175962
175076
174179
173273
172357
171436
170510
169579
168645
167706
166761
165806
164841
163865
162877
161875
160857
159819
158757
157666
156547
155401
154238
153069
151901
150745
149602
148473
147351
146232
145111
143983
142845
141693
140533
139370
138207
137050
135905
134775
133657
132546
131437
130322
129194
128048
126878
125681
124452
123189
121893
120563
119205
117823
116424
115014
113601
112190
110787
109397
108021
106659
105310
103973
102645
101325
100013
98705
97401.3
96100.5
94801.6
93504.2
92207.8
90912.2
89617.5
88323.7
87030.8
85739
84448.3
83158.6
81869.8
80582
79294.8
78008.2
76722.1
75436.3
74150.8
72865.6
71580.7
70296.2
69012.1
67728.7
66445.9
65163.9
63883.1
62603.5
61325.3
60048.9
58774.5
57502.5
56233.2
54967.7
53707
52452
51203.4
49961.5
48726.7
47498.6
46276.8
45061.9
43854.7
42654.6
41462.9
40280.9
39107.9
37941.4
36777.6
35612.8
34450.5
33300.5
32168.7
31055.2
29958.8
28878.9
27816.4
26772.3
25750.5
201348
201330
201293
201237
201162
201069
200958
200828
200680
200514
200330
200129
199909
199672
199416
199139
198842
198525
198186
197827
197448
197050
196634
196200
195750
195283
194800
194303
193790
193263
192720
192162
191588
190998
190394
189777
189145
188499
187840
187167
186482
185784
185074
184347
183596
182817
182011
181183
180336
179476
178607
177732
176853
175971
175080
174181
173276
172368
171455
170538
169616
168686
167747
166797
165836
164862
163876
162879
161871
160851
159815
158755
157664
156541
155392
154224
153049
151880
150725
149585
148459
147341
146223
145099
143966
142817
141655
140486
139321
138164
137018
135886
134767
133658
132556
131453
130343
129219
128076
126910
125716
124490
123229
121933
120602
119242
117858
116456
115044
113627
112213
110808
109415
108037
106674
105324
103985
102657
101336
100023
98714.3
97410
96108.6
94809.3
93511.5
92214.7
90918.9
89624
88330
87037
85745.1
84454.3
83164.6
81875.8
80588
79300.9
78014.3
76728.2
75442.3
74156.9
72871.7
71586.9
70302.4
69018.4
67734.9
66452.2
65170.3
63889.6
62610.2
61332.2
60056.1
58782.1
57510.5
56241.8
54976.7
53716.2
52461
51211.8
49968.9
48732.5
47503
46280.2
45064.5
43856.7
42657.1
41466.5
40285.2
39113.2
37948.4
36784.6
35617.9
34452.2
33299.8
32167.1
31053.3
29956.6
28875.9
27811.9
26764.8
25736.5
201639
201621
201582
201523
201445
201349
201234
201102
200950
200781
200593
200388
200163
199920
199657
199373
199068
198742
198395
198027
197639
197232
196808
196365
195907
195432
194943
194439
193923
193393
192851
192294
191722
191136
190537
189923
189294
188648
187988
187317
186635
185942
185234
184505
183750
182964
182145
181300
180435
179555
178669
177777
176886
175995
175099
174200
173300
172396
171488
170576
169658
168732
167795
166846
165881
164901
163908
162904
161891
160866
159826
158763
157668
156542
155390
154222
153048
151880
150724
149585
148458
147338
146215
145084
143940
142781
141612
140443
139281
138130
136992
135869
134758
133659
132564
131468
130364
129245
128107
126945
125755
124533
123275
121980
120649
119287
117900
116495
115080
113661
112243
110835
109439
108058
106693
105342
104003
102673
101352
100037
98727.2
97422
96119.8
94819.8
93521.4
92224.2
90928
89632.8
88338.6
87045.5
85753.5
84462.7
83172.9
81884.2
80596.4
79309.4
78023
76736.9
75451
74165.5
72880.3
71595.6
70311.2
69027.2
67743.7
66460.9
65179
63898.4
62619
61341.2
60065.4
58791.6
57520.4
56252
54987.3
53727
52471.6
51221.8
49977.9
48740.2
47509.3
46285.1
45067.9
43858.7
42657.9
41466.3
40284.8
39113.6
37950.1
36787.5
35619.7
34451.6
33297.7
32164.8
31050.9
29953.8
28872.2
27806.4
26756.1
25721.9
202009
201986
201944
201883
201803
201704
201587
201451
201297
201123
200930
200718
200485
200233
199960
199666
199349
199011
198652
198272
197873
197454
197018
196565
196096
195613
195116
194606
194084
193550
193006
192449
191881
191300
190706
190096
189468
188824
188165
187495
186815
186123
185415
184685
183925
183129
182297
181433
180545
179642
178732
177820
176913
176012
175115
174219
173322
172423
171520
170613
169700
168779
167849
166906
165947
164972
163981
162977
161960
160928
159879
158806
157704
156574
155421
154252
153079
151912
150758
149616
148485
147355
146222
145079
143924
142755
141582
140413
139252
138104
136970
135852
134747
133654
132567
131478
130381
129268
128136
126979
125795
124577
123323
122030
120699
119335
117945
116538
115120
113699
112279
110867
109468
108084
106717
105365
104024
102693
101370
100054
98743.4
97437
96133.8
94833
93533.8
92236.1
90939.4
89643.9
88349.4
87056.1
85764.1
84473.2
83183.6
81895
80607.5
79320.6
78034.2
76748.3
75462.6
74177
72891.8
71607
70322.6
69038.6
67755.1
66472.1
65190.1
63909.4
62630.1
61352.4
60076.6
58803.1
57532.1
56264
54999.6
53739.3
52483.8
51233.5
49988.8
48749.9
47517.6
46291.9
45073.2
43862.2
42659.4
41465.6
40282
39109
37944.7
36782.1
35614.7
34447.4
33294.3
32161.9
31048.2
29950.5
28867.9
27800.2
26746.8
25707.4
202449
202426
202382
202320
202239
202139
202019
201879
201718
201538
201338
201116
200874
200609
200323
200014
199683
199331
198957
198563
198149
197716
197267
196801
196320
195827
195320
194802
194273
193734
193184
192624
192055
191476
190883
190274
189647
189003
188345
187675
186995
186302
185592
184857
184091
183287
182442
181562
180655
179731
178797
177864
176940
176032
175134
174241
173350
172458
171561
170661
169755
168842
167920
166987
166039
165075
164093
163095
162079
161044
159986
158902
157792
156657
155501
154331
153158
151991
150833
149685
148545
147403
146256
145098
143928
142749
141568
140395
139232
138083
136950
135834
134733
133644
132562
131479
130388
129283
128157
127007
125829
124618
123369
122079
120749
119384
117992
116582
115162
113739
112317
110902
109500
108114
106745
105391
104049
102716
101392
100075
98762.6
97455
96150.6
94848.8
93548.9
92250.4
90953.3
89657.4
88362.7
87069.2
85777.1
84486.3
83196.8
81908.5
80621.2
79334.7
78048.6
76762.9
75477.3
74191.9
72906.7
71621.8
70337.3
69053.2
67769.5
66486.3
65204
63923
62643.6
61365.9
60090.1
58816.7
57545.8
56277.9
55013.6
53753.4
52497.8
51247
50001.5
48761.6
47527.9
46300.7
45080.4
43867.6
42662.6
41466.3
40279.5
39102.8
37935.1
36771
35604.9
34440.5
33289.9
32158.7
31045.1
29947
28863.1
27793.4
26737
25693.3
202973
202949
202906
202843
202758
202653
202526
202378
202210
202020
201808
201574
201317
201038
200736
200411
200064
199696
199307
198898
198469
198022
197558
197078
196585
196080
195563
195036
194497
193949
193391
192824
192249
191665
191068
190455
189826
189182
188524
187855
187176
186482
185769
185030
184258
183445
182589
181694
180769
179823
178866
177912
176975
176060
175163
174276
173391
172506
171619
170727
169830
168927
168016
167095
166161
165210
164240
163249
162236
161199
160135
159045
157930
156790
155633
154462
153288
152118
150955
149798
148645
147488
146322
145145
143956
142762
141571
140389
139220
138067
136932
135815
134715
133628
132548
131469
130384
129284
128165
127022
125852
124649
123406
122121
120794
119429
118035
116623
115202
113778
112355
110939
109535
108147
106776
105420
104076
102742
101417
100098
98784.4
97475.5
96170
94867.1
93566.3
92267.2
90969.6
89673.3
88378.3
87084.8
85792.6
84502
83212.7
81924.8
80638
79351.9
78066.4
76781.1
75495.7
74210.5
72925.4
71640.5
70356
69071.7
67787.6
66504
65221
63939.5
62659.9
61382
60106.1
58832.7
57561.8
56293.9
55029.6
53769.5
52513.6
51262.4
50016.1
48775.2
47540.2
46311.5
45089.5
43874.7
42667.6
41468.6
40278.6
39098
37925.9
36759
35593.7
34432.9
33285.5
32155.6
31042
29943.1
28857.9
27786.1
26726.9
25679.4
203588
203564
203518
203449
203358
203245
203108
202950
202769
202566
202339
202090
201817
201521
201202
200860
200497
200113
199708
199283
198839
198377
197899
197407
196901
196384
195856
195317
194768
194208
193639
193062
192477
191882
191276
190656
190024
189379
188723
188058
187381
186690
185976
185234
184455
183633
182765
181852
180906
179936
178956
177983
177033
176113
175215
174331
173452
172576
171698
170818
169932
169040
168141
167232
166309
165370
164410
163427
162419
161382
160318
159225
158106
156965
155806
154636
153461
152288
151118
149951
148782
147605
146417
145215
144005
142794
141590
140396
139218
138057
136917
135797
134694
133606
132526
131449
130365
129269
128157
127022
125861
124665
123430
122151
120827
119464
118070
116659
115238
113814
112391
110974
109569
108180
106808
105451
104106
102771
101444
100123
98808.6
97498.4
96191.7
94887.8
93586
92286.2
90988.1
89691.5
88396.4
87102.8
85810.8
84520.5
83231.7
81944.3
80658
79372.7
78087.8
76803.1
75518.5
74233.6
72948.7
71664.1
70379.6
69095
67810.5
66526.1
65242.5
63960.3
62679.9
61401.5
60125.2
58851.5
57580.6
56312.5
55048.2
53787.9
52531.8
51280.1
50033
48791.1
47554.6
46324.3
45100.3
43883.4
42674
41472.6
40279.5
39095.3
37919.3
36749.5
35584.5
34426.4
33281.5
32152.4
31038.6
29938.8
28852.2
27778.4
26716.6
25665.8
204291
204264
204214
204139
204040
203916
203768
203597
203401
203183
202940
202674
202384
202070
201734
201376
200996
200594
200173
199732
199274
198798
198306
197801
197284
196755
196216
195665
195103
194530
193947
193357
192758
192150
191532
190903
190266
189620
188967
188306
187634
186946
186233
185487
184700
183865
182978
182044
181075
180080
179075
178084
177124
176199
175299
174417
173544
172675
171806
170935
170059
169177
168288
167388
166474
165545
164595
163620
162618
161586
160523
159430
158309
157165
156005
154835
153660
152486
151312
150134
148948
147750
146537
145309
144074
142845
141626
140418
139227
138056
136908
135782
134674
133582
132499
131419
130336
129242
128135
127008
125855
124668
123440
122165
120845
119484
118093
116684
115265
113842
112422
111006
109602
108214
106841
105483
104137
102801
101472
100151
98834.9
97523.4
96215.6
94910.6
93607.9
92307.4
91008.7
89711.9
88416.8
87123.4
85831.8
84542
83253.9
81967.4
80682.2
79397.9
78114.2
76830.6
75546.8
74262.6
72978.2
71693.9
70409.4
69124.7
67839.4
66554
65269.2
63986
62704.6
61425.1
60148.2
58874.2
57602.9
56334.6
55069.9
53809.5
52553
51300.6
50052.6
48809.4
47571.5
46339.2
45113.1
43893.9
42681.9
41477.8
40281.9
39094.3
37915.1
36743
35577.7
34421.3
33278
32149.3
31035
29934.1
28846.1
27770.4
26706.1
25652.5
205083
205053
204998
204916
204808
204675
204515
204331
204121
203887
203629
203346
203039
202709
202356
201980
201583
201165
200727
200270
199796
199306
198802
198284
197755
197215
196664
196101
195526
194939
194342
193735
193119
192495
191861
191221
190575
189924
189269
188609
187939
187251
186536
185783
184983
184132
183222
182264
181270
180249
179223
178216
177247
176317
175417
174536
173667
172804
171942
171076
170207
169331
168447
167553
166646
165724
164782
163816
162821
161794
160735
159643
158522
157377
156214
155043
153869
152695
151519
150334
149135
147916
146677
145423
144165
142916
141680
140457
139252
138070
136912
135777
134662
133563
132473
131387
130301
129207
128102
126981
125835
124655
123431
122160
120843
119486
118100
116695
115281
113863
112445
111033
109632
108245
106874
105516
104169
102832
101503
100180
98863
97550.4
96241.5
94935.4
93631.9
92330.7
91031.7
89734.8
88439.8
87146.8
85855.8
84567
83280.1
81995
80711.5
79429
78147.1
76865.1
75582.6
74299.2
73015.3
71731.4
70447.2
69162.1
67876
66589.1
65302.8
64018.1
62735.2
61454.3
60176.3
58901.5
57629.9
56361
55095.8
53834.9
52577.9
51324.6
50075.3
48830.7
47590.9
46356.5
45128.1
43906.1
42691.4
41484.2
40285.2
39094.7
37912.6
36738.5
35572.8
34417.2
33274.6
32146
31031
29929.1
28839.6
27762
26695.6
25639.5
205974
205942
205881
205794
205678
205536
205367
205172
204952
204706
204435
204139
203817
203472
203102
202709
202294
201858
201402
200928
200438
199933
199414
198884
198342
197789
197225
196648
196058
195455
194841
194214
193578
192932
192278
191619
190957
190293
189627
188957
188279
187584
186859
186095
185280
184411
183488
182516
181506
180468
179423
178401
177419
176481
175577
174695
173826
172964
172104
171239
170370
169494
168610
167718
166814
165896
164960
164000
163010
161987
160931
159841
158722
157576
156413
155241
154068
152897
151722
150535
149327
148094
146834
145556
144275
143006
141754
140515
139296
138102
136933
135788
134663
133552
132452
131359
130266
129169
128063
126944
125800
124622
123401
122132
120818
119467
118089
116693
115286
113874
112462
111055
109658
108275
106905
105548
104201
102863
101534
100210
98892.4
97579
96269.1
94962.2
93658
92356.3
91057.2
89760.3
88465.8
87173.6
85883.8
84596.6
83311.7
82029
80747.9
79468.2
78188.8
76908.9
75628.1
74345.8
73062.6
71779.2
70495.1
69209.7
67922.3
66633.5
65344.8
64058.1
62773.2
61490.4
60210.6
58934.7
57662.1
56392.5
55126.5
53864.8
52607.1
51352.6
50101.9
48855.5
47613.7
46376.8
45145.6
43920.6
42702.5
41492
40289.7
39096
37911.2
36735.4
35569
34413.7
33271.3
32142.4
31026.7
29923.6
28832.7
27753.4
26684.9
25626.8
206983
206949
206885
206793
206674
206527
206355
206156
205931
205678
205398
205089
204754
204392
204004
203592
203156
202700
202224
201730
201221
200698
200163
199615
199057
198486
197904
197308
196699
196077
195441
194792
194131
193458
192776
192090
191400
190711
190021
189329
188629
187913
187169
186387
185557
184677
183750
182780
181771
180732
179683
178651
177657
176705
175791
174902
174026
173157
172292
171423
170546
169663
168773
167875
166968
166050
165115
164157
163168
162146
161090
160002
158885
157741
156579
155410
154240
153073
151904
150721
149513
148272
146997
145699
144399
143114
141846
140594
139362
138156
136975
135817
134678
133554
132442
131338
130236
129133
128022
126897
125750
124570
123348
122081
120773
119431
118063
116676
115278
113874
112469
111070
109679
108300
106934
105578
104232
102895
101565
100241
98922.8
97608.7
96298.1
94990.6
93686
92384.3
91085.3
89789
88495.3
87204.6
85917.1
84632.6
83350.9
82071.6
80794.1
79517.8
78241.5
76964.3
75685.6
74404.5
73122
71839
70555.3
69269.3
67980.3
66689.1
65397.8
64108
62820.3
61535
60252.8
58974.8
57700.5
56429.4
55162.2
53899.7
52641
51385.1
50132.7
48884.3
47640.1
46400.5
45166
43937.5
42715.7
41501.3
40295.3
39098.3
37910.8
36733.1
35565.9
34410.4
33267.8
32138.5
31022
29917.8
28825.5
27744.6
26674.4
25614.4
208142
208106
208042
207950
207833
207689
207519
207319
207089
206827
206532
206206
205849
205465
205055
204621
204164
203685
203186
202669
202136
201589
201030
200459
199877
199284
198678
198059
197426
196779
196116
195437
194743
194036
193318
192596
191870
191144
190419
189692
188958
188211
187441
186639
185796
184910
183987
183031
182036
181013
179974
178944
177942
176978
176047
175143
174251
173368
172490
171611
170724
169829
168926
168017
167102
166177
165238
164276
163284
162259
161202
160114
158999
157859
156702
155537
154373
153214
152054
150879
149676
148435
147154
145845
144530
143230
141950
140688
139446
138228
137034
135862
134707
133569
132443
131328
130215
129101
127980
126845
125688
124501
123277
122014
120713
119380
118023
116647
115259
113865
112469
111078
109695
108322
106959
105606
104262
102925
101596
100272
98953.6
97639.1
96328.2
95020.6
93716.2
92414.8
91116.6
89821.4
88529.4
87241.2
85957.1
84677
83400
82125.3
80852.3
79579.7
78307
77033.3
75756.4
74476.4
73194.6
71912
70628.2
69341.4
68051
66756.8
65462
64169.2
62878.3
61589.8
60304.3
59023.1
57746.2
56472.9
55203.9
53940
52680.1
51422.8
50168.4
48917.7
47670.8
46428
45189.9
43957.3
42731.2
41512.6
40302.4
39101.7
37911.3
36731.6
35563.3
34407.4
33264.4
32134.5
31017.1
29911.8
28818.3
27735.9
26664.1
25602.4
209476
209440
209377
209289
209175
209033
208861
208653
208408
208126
207808
207456
207075
206665
206229
205768
205285
204779
204252
203705
203141
202563
201973
201373
200761
200139
199503
198852
198187
197506
196808
196094
195363
194618
193861
193097
192331
191563
190795
190026
189253
188470
187671
186849
185996
185107
184190
183248
182277
181278
180259
179240
178240
177268
176324
175401
174490
173585
172685
171788
170887
169977
169059
168136
167207
166271
165323
164353
163356
162328
161268
160181
159067
157931
156779
155621
154463
153311
152159
150995
149802
148567
147289
145978
144658
143349
142060
140789
139538
138309
137102
135915
134746
133593
132455
131326
130201
129074
127938
126790
125621
124426
123198
121937
120642
119319
117972
116607
115230
113846
112461
111081
109706
108339
106981
105631
104289
102955
101626
100303
98984.4
97670.1
96359.4
95052.3
93748.6
92448.4
91151.6
89858.4
88569.4
87285.1
86006.1
84731.8
83461.1
82192.1
80924
79655.5
78386.4
77114.8
75839.6
74560.6
73278.6
71995.7
70712.3
69424.9
68132.3
66835.5
65537.5
64241.6
62947.5
61655.2
60366.1
59081
57800.6
56524.1
55252.7
53986.8
52725.1
51466.1
50209.6
48956.4
47706.5
46459.9
45217.6
43980.3
42749.4
41525.9
40311.1
39106.3
37912.6
36730.7
35561.2
34404.5
33260.9
32130.3
31012.1
29905.8
28811
27727.3
26654.1
25591
211038
211000
210937
210847
210730
210581
210396
210170
209902
209594
209246
208864
208449
208004
207529
207027
206502
205957
205392
204807
204205
203591
202963
202323
201673
201012
200338
199649
198945
198225
197489
196736
195967
195183
194386
193582
192774
191966
191157
190347
189534
188716
187887
187042
186177
185286
184373
183441
182491
181516
180521
179516
178522
177548
176596
175658
174729
173803
172880
171959
171037
170108
169172
168231
167286
166335
165373
164394
163390
162359
161299
160211
159098
157965
156818
155665
154512
153366
152220
151062
149878
148655
147388
146088
144773
143463
142169
140891
139632
138392
137173
135973
134791
133626
132474
131331
130190
129047
127896
126733
125552
124347
123115
121854
120565
119249
117912
116557
115191
113820
112448
111078
109712
108353
107000
105654
104315
102982
101655
100333
99015.7
97702.1
96392.3
95086.3
93784.3
92486.2
91192.2
89902.6
88618.1
87339.3
86066.7
84799.3
83535.4
82272.5
81009.2
79744.4
78477.2
77206.3
75931.2
74652.2
73370
72087.3
70803.1
69514.9
68220.9
66922.5
65623.1
64324.4
63027.6
61732
60439.1
59150.1
57865.5
56585.3
55310.6
54042
52778
51516.7
50257.7
49001.7
47748.2
46497.4
45250
44007.3
42770.6
41541.5
40321.5
39112.2
37914.9
36730.5
35559.4
34401.8
33257.5
32126.2
31007.1
29899.9
28803.9
27719
26644.6
25580.3
212730
212689
212619
212519
212389
212225
212022
211773
211475
211127
210733
210298
209828
209328
208801
208248
207674
207083
206476
205849
205205
204548
203879
203197
202506
201806
201094
200369
199628
198871
198098
197309
196504
195686
194856
194018
193178
192336
191495
190652
189807
188958
188101
187235
186355
185458
184544
183615
182674
181716
180739
179750
178760
177783
176823
175875
174932
173991
173048
172106
171162
170214
169260
168301
167338
166371
165395
164404
163393
162358
161296
160208
159097
157966
156824
155676
154527
153381
152237
151082
149903
148690
147440
146158
144858
143558
142265
140983
139717
138469
137240
136030
134837
133659
132494
131335
130179
129020
127853
126676
125483
124269
123032
121770
120483
119174
117845
116501
115148
113790
112430
111071
109714
108361
107014
105673
104337
103007
101683
100362
99045.9
97733.7
96425.7
95121.9
93822.6
92528.1
91238.7
89954.6
88676.3
87404.2
86138.4
84877.5
83619.4
82360.9
81100.7
79836.9
78569.3
77297.7
76022.2
74741.2
73457.3
72173.8
70889.9
69602.2
68308.5
67010
65710.5
64412.1
63114.3
61817.1
60521.2
59229.1
57940.6
56656.5
55378.1
54106.4
52839.4
51575.1
50313.5
49054.3
47796.9
46541.1
45287.7
44038.4
42795
41559.4
40333.6
39119.3
37917.9
36730.7
35557.8
34399.1
33254
32121.9
31002
29893.8
28796.9
27710.9
26635.5
25570.2
214386
214338
214253
214133
213980
213790
213557
213273
212929
212526
212069
211569
211038
210480
209900
209299
208680
208045
207396
206728
206044
205348
204642
203926
203201
202468
201726
200969
200199
199412
198610
197792
196961
196117
195261
194398
193533
192667
191800
190933
190063
189190
188310
187424
186529
185623
184703
183771
182829
181876
180910
179931
178946
177966
176996
176036
175081
174127
173171
172213
171252
170288
169319
168346
167370
166388
165400
164399
163381
162341
161278
160190
159080
157952
156814
155668
154519
153371
152223
151066
149891
148688
147454
146192
144912
143624
142336
141055
139786
138532
137296
136078
134875
133686
132507
131334
130163
128990
127810
126619
125415
124194
122952
121689
120404
119100
117780
116447
115106
113760
112411
111061
109712
108366
107024
105688
104356
103029
101707
100388
99073.9
97763.7
96458.2
95157.6
93862.5
92573.3
91290.2
90013.3
88742.1
87476.5
86216.4
84959.7
83704.5
82447.9
81187.1
79921.7
78651.3
77376.9
76097.9
74814.4
73529.2
72245.1
70961.9
69676.3
68384.7
67088.9
65792.1
64496.5
63200.9
61904.1
60608.2
59314.7
58023.7
56736.3
55454.6
54179.3
52908.9
51641.8
50377.2
49114.7
47853.1
46591.6
45331.2
44074.1
42822.6
41579.5
40347.2
39127.5
37921.8
36731.4
35556.5
34396.6
33250.7
32117.7
30997.1
29888.1
28790.2
27703.3
26626.9
25560.7
216020
215959
215848
215692
215494
215256
214973
214636
214236
213773
213255
212696
212107
211497
210866
210218
209555
208878
208187
207483
206764
206035
205297
204551
203798
203039
202270
201488
200692
199882
199056
198216
197364
196500
195624
194741
193855
192968
192080
191191
190301
189408
188510
187606
186696
185779
184851
183912
182965
182010
181046
180073
179092
178109
177131
176158
175190
174224
173258
172288
171314
170338
169358
168374
167387
166395
165397
164388
163363
162320
161254
160167
159059
157934
156797
155652
154502
153349
152196
151036
149862
148667
147446
146200
144936
143659
142379
141102
139833
138577
137336
136111
134900
133700
132510
131325
130142
128956
127764
126562
125350
124122
122877
121613
120331
119033
117721
116399
115068
113731
112391
111049
109708
108368
107032
105701
104373
103049
101729
100413
99100.3
97792.4
96490.1
95194.1
93905
92622.9
91347.6
90078.4
88813.9
87553.2
86295.5
85039.7
83783.5
82524.5
81260.2
79989.9
78714.5
77435.3
76152.6
74866.5
73580.1
72296.5
71015.6
69733.3
68446.3
67155.7
65864
64573.2
63282.2
61989.2
60696.5
59403.9
58112.5
56823.4
55539.3
54260.8
52987.4
51717.7
50450.6
49184.9
47918.6
46650.6
45381.8
44115.1
42853.9
41602.1
40362.5
39136.8
37926.4
36732.7
35555.6
34394.3
33247.4
32113.7
30992.3
29882.5
28783.9
27696.2
26618.9
25551.9
217661
217577
217427
217217
216954
216643
216287
215879
215414
214892
214317
213705
213068
212411
211737
211050
210348
209632
208903
208162
207410
206650
205883
205110
204331
203547
202754
201951
201134
200303
199457
198598
197728
196846
195955
195055
194151
193245
192339
191431
190523
189613
188698
187779
186855
185925
184988
184042
183089
182128
181161
180188
179209
178224
177239
176255
175275
174298
173322
172343
171360
170374
169385
168392
167397
166398
165392
164376
163346
162299
161232
160144
159038
157915
156780
155636
154484
153328
152169
151005
149830
148639
147426
146190
144936
143668
142394
141122
139856
138601
137358
136128
134911
133704
132504
131309
130115
128919
127718
126508