/*--------------------------------*- C++ -*----------------------------------*\
  =========                 |
  \\      /  F ield         | OpenFOAM: The Open Source CFD Toolbox
   \\    /   O peration     | Website:  https://openfoam.org
    \\  /    A nd           | Version:  9
     \\/     M anipulation  |
\*---------------------------------------------------------------------------*/
FoamFile
{
    format      ascii;
    class       volVectorField;
    location    "0.067";
    object      U;
}
// * * * * * * * * * * * * * * * * * * * * * * * * * * * * * * * * * * * * * //

dimensions      [0 1 -1 0 0 0 0];

internalField   nonuniform List<vector> 
12225
(
(9.72585 0.0525948 0)
(9.42081 0.0826449 0)
(9.06383 0.0782003 0)
(8.70697 0.0563941 0)
(8.43154 0.0410765 0)
(8.22516 0.0440749 0)
(8.01897 0.0560754 0)
(7.77153 0.0629396 0)
(7.49602 0.0599638 0)
(7.23159 0.0516083 0)
(6.99137 0.0448082 0)
(6.77679 0.0474035 0)
(6.541 0.0600632 0)
(6.28799 0.0769115 0)
(5.97309 0.0921815 0)
(5.65222 0.0964031 0)
(5.28482 0.105561 0)
(4.95054 0.116911 0)
(9.75788 0.0756457 0)
(9.9289 0.0359155 0)
(10.0913 0.076082 0)
(10.2048 0.0884122 0)
(10.3011 0.0681048 0)
(10.3513 0.052317 0)
(10.3316 0.0572718 0)
(10.2525 0.0745737 0)
(10.1438 0.0893007 0)
(10.0368 0.0950243 0)
(9.94012 0.0937463 0)
(9.85555 0.094233 0)
(9.76708 0.103216 0)
(9.67442 0.11829 0)
(9.55643 0.13867 0)
(9.42773 0.158246 0)
(9.26739 0.180242 0)
(9.09676 0.217 0)
(10.0662 0.0191361 0)
(10.0641 -0.0100345 0)
(10.0594 0.0291189 0)
(10.0775 0.0207509 0)
(10.1007 0.00812836 0)
(10.1456 0.0364722 0)
(10.2023 0.0857873 0)
(10.2381 0.120943 0)
(10.2396 0.129477 0)
(10.2209 0.119336 0)
(10.2003 0.104552 0)
(10.1887 0.100152 0)
(10.1868 0.113366 0)
(10.1887 0.141882 0)
(10.1835 0.177302 0)
(10.1608 0.21142 0)
(10.1176 0.247083 0)
(10.0465 0.293672 0)
(10.2161 -0.0222698 0)
(10.0792 0.0407278 0)
(10.0332 0.0674653 0)
(10.0837 0.0676154 0)
(10.131 0.0385699 0)
(10.128 0.0187798 0)
(10.0835 0.0305393 0)
(10.0297 0.0621341 0)
(9.99425 0.0908002 0)
(9.98804 0.103526 0)
(10.0064 0.102252 0)
(10.0389 0.0997969 0)
(10.075 0.108377 0)
(10.1061 0.131137 0)
(10.1237 0.164053 0)
(10.123 0.201948 0)
(10.1005 0.244612 0)
(10.067 0.300322 0)
(10.1234 -0.0326633 0)
(10.3369 0.00963324 0)
(10.3864 0.0410945 0)
(10.363 0.0100273 0)
(10.3322 0.00505077 0)
(10.3045 0.0561554 0)
(10.275 0.119292 0)
(10.2401 0.152367 0)
(10.1987 0.147534 0)
(10.1506 0.119703 0)
(10.0976 0.0898197 0)
(10.0461 0.0756319 0)
(10.0052 0.0858277 0)
(9.97884 0.118556 0)
(9.96508 0.165365 0)
(9.95899 0.219287 0)
(9.95297 0.274251 0)
(9.95301 0.334571 0)
(9.77589 -0.10176 0)
(9.88302 -0.0469795 0)
(10.0739 0.054432 0)
(10.1611 0.0733665 0)
(10.1092 0.0440349 0)
(10.0229 0.0270724 0)
(9.98985 0.0452625 0)
(10.0194 0.0845044 0)
(10.0725 0.121744 0)
(10.1048 0.141564 0)
(10.095 0.143207 0)
(10.0482 0.137489 0)
(9.98493 0.138313 0)
(9.92545 0.153619 0)
(9.88039 0.181742 0)
(9.85469 0.220106 0)
(9.84299 0.261087 0)
(9.84804 0.307557 0)
(10.0526 -0.107089 0)
(10.0319 -0.103583 0)
(10.0581 -0.0320354 0)
(10.113 0.0205717 0)
(10.1224 0.070106 0)
(10.0676 0.110946 0)
(9.99368 0.126334 0)
(9.95262 0.122777 0)
(9.95829 0.11566 0)
(9.99049 0.11248 0)
(10.024 0.115138 0)
(10.046 0.124744 0)
(10.0528 0.142067 0)
(10.0493 0.167751 0)
(10.0374 0.198809 0)
(10.0225 0.234688 0)
(10.0041 0.271708 0)
(9.98561 0.310496 0)
(9.86474 -0.104644 0)
(9.81967 -0.036111 0)
(9.85463 0.0170556 0)
(9.91751 0.0289156 0)
(9.98737 0.0395375 0)
(10.0577 0.0613499 0)
(10.1106 0.0818863 0)
(10.1407 0.0962777 0)
(10.1564 0.106058 0)
(10.1668 0.111604 0)
(10.1737 0.114517 0)
(10.1738 0.120313 0)
(10.1599 0.13479 0)
(10.1305 0.161917 0)
(10.0888 0.199229 0)
(10.0428 0.243405 0)
(10.0013 0.288543 0)
(9.96839 0.330284 0)
(10.047 -0.135302 0)
(10.0618 -0.119437 0)
(10.0816 -0.0627073 0)
(10.0117 -0.00388036 0)
(9.91633 0.0416332 0)
(9.88515 0.0727914 0)
(9.92748 0.091824 0)
(10.0086 0.101831 0)
(10.0912 0.105535 0)
(10.1524 0.107398 0)
(10.1853 0.115062 0)
(10.196 0.135267 0)
(10.192 0.168077 0)
(10.1822 0.208275 0)
(10.1747 0.248649 0)
(10.1713 0.284095 0)
(10.1769 0.313558 0)
(10.1795 0.336882 0)
(9.9024 -0.176884 0)
(9.90823 -0.0740582 0)
(9.92871 0.0310265 0)
(9.88477 0.0826158 0)
(9.83201 0.0760342 0)
(9.83181 0.0439111 0)
(9.88593 0.0191182 0)
(9.96652 0.0177064 0)
(10.0415 0.0361505 0)
(10.0889 0.0623314 0)
(10.1053 0.0880626 0)
(10.1013 0.11312 0)
(10.0914 0.140124 0)
(10.0865 0.170512 0)
(10.0939 0.206128 0)
(10.1129 0.243913 0)
(10.1384 0.285618 0)
(10.1628 0.32827 0)
(10.0029 -0.0958144 0)
(9.99941 -0.158776 0)
(9.99617 -0.0493479 0)
(10.0367 0.0635767 0)
(10.0924 0.0899809 0)
(10.121 0.0607208 0)
(10.1074 0.0306793 0)
(10.0811 0.0256908 0)
(10.0723 0.0437897 0)
(10.0854 0.0745672 0)
(10.1094 0.110945 0)
(10.1263 0.148288 0)
(10.1279 0.182537 0)
(10.1126 0.210137 0)
(10.0904 0.231023 0)
(10.0734 0.249947 0)
(10.066 0.271309 0)
(10.0758 0.302861 0)
(10.1368 -0.174854 0)
(10.0132 -0.0535226 0)
(9.89993 0.0103958 0)
(9.92504 0.018667 0)
(10.0642 0.020067 0)
(10.1921 0.0272441 0)
(10.2196 0.0343935 0)
(10.152 0.0373664 0)
(10.0508 0.0382186 0)
(9.97748 0.0444438 0)
(9.96409 0.0647791 0)
(10.0092 0.101597 0)
(10.0851 0.148422 0)
(10.1622 0.196327 0)
(10.2106 0.236303 0)
(10.2249 0.267695 0)
(10.2033 0.292292 0)
(10.1655 0.314957 0)
(9.88938 -0.163433 0)
(9.79959 -0.106069 0)
(9.85835 -0.0188658 0)
(9.92443 -0.0102776 0)
(9.97684 -0.0224554 0)
(10.0187 -0.000709662 0)
(10.0318 0.0562967 0)
(10.0069 0.113714 0)
(9.95364 0.137237 0)
(9.89632 0.122898 0)
(9.85937 0.0927619 0)
(9.85726 0.0745137 0)
(9.88689 0.0833938 0)
(9.9366 0.121552 0)
(9.99009 0.179385 0)
(10.0335 0.243376 0)
(10.0605 0.303976 0)
(10.0702 0.350356 0)
(10.0283 -0.031822 0)
(9.88648 0.00550288 0)
(9.87237 -0.022565 0)
(9.92904 -0.0360532 0)
(10.0136 -0.0306901 0)
(10.0814 -0.00710202 0)
(10.1294 0.034409 0)
(10.1667 0.0725261 0)
(10.1871 0.0902426 0)
(10.1797 0.0899215 0)
(10.1391 0.0847869 0)
(10.0725 0.087273 0)
(9.9982 0.103316 0)
(9.93576 0.13318 0)
(9.90413 0.174168 0)
(9.90613 0.221437 0)
(9.94116 0.268636 0)
(9.99889 0.315283 0)
(9.81165 -0.0491369 0)
(9.93044 -0.0299661 0)
(9.93928 -0.0604318 0)
(9.9614 -0.111857 0)
(10.0213 -0.124196 0)
(10.075 -0.0802286 0)
(10.0861 0.00142104 0)
(10.055 0.086176 0)
(10.003 0.147548 0)
(9.95045 0.18179 0)
(9.90752 0.199561 0)
(9.87569 0.20917 0)
(9.85365 0.213849 0)
(9.84269 0.212269 0)
(9.84734 0.206054 0)
(9.87199 0.199745 0)
(9.9159 0.194534 0)
(9.97571 0.200264 0)
(10.0862 0.0095786 0)
(10.0928 -0.0381493 0)
(10.0857 -0.0385828 0)
(10.075 -0.0986146 0)
(10.067 -0.117362 0)
(10.0522 -0.0528343 0)
(10.0424 0.0537669 0)
(10.0515 0.13808 0)
(10.0799 0.166759 0)
(10.1233 0.152339 0)
(10.1751 0.125713 0)
(10.2262 0.10879 0)
(10.2672 0.107019 0)
(10.2931 0.11458 0)
(10.3001 0.123956 0)
(10.2934 0.133182 0)
(10.275 0.142845 0)
(10.2557 0.159218 0)
(10.0561 0.0111273 0)
(10.0796 0.019564 0)
(10.1007 -0.0331112 0)
(10.0669 -0.0781119 0)
(9.99857 -0.0783194 0)
(9.94712 -0.0444995 0)
(9.95111 0.00593243 0)
(9.99679 0.0486235 0)
(10.0498 0.071779 0)
(10.0836 0.0833031 0)
(10.0874 0.097361 0)
(10.0681 0.12293 0)
(10.0384 0.159181 0)
(10.0104 0.19981 0)
(9.98825 0.234802 0)
(9.9748 0.259097 0)
(9.96644 0.26922 0)
(9.9648 0.268209 0)
(10.1173 -0.0842605 0)
(10.0977 -0.0681404 0)
(10.0845 -0.0385832 0)
(10.0935 -0.0153551 0)
(10.0593 -0.00436011 0)
(10.0206 -0.0120017 0)
(10.0181 -0.0203266 0)
(10.041 -0.00592746 0)
(10.0682 0.0362841 0)
(10.09 0.0908697 0)
(10.104 0.138935 0)
(10.1137 0.168348 0)
(10.1261 0.177083 0)
(10.1449 0.17015 0)
(10.1693 0.15635 0)
(10.1929 0.143813 0)
(10.2125 0.138181 0)
(10.2199 0.143773 0)
(10.1809 -0.119202 0)
(10.1812 -0.0728048 0)
(10.257 -0.0258689 0)
(10.2987 0.00687814 0)
(10.3004 0.0282239 0)
(10.2626 0.0231516 0)
(10.2223 0.00145661 0)
(10.2055 -0.0093949 0)
(10.2087 0.0051651 0)
(10.2203 0.0362183 0)
(10.2357 0.0673389 0)
(10.2514 0.0905235 0)
(10.2644 0.10794 0)
(10.273 0.126835 0)
(10.2763 0.153312 0)
(10.2738 0.187773 0)
(10.266 0.228687 0)
(10.2552 0.268814 0)
(9.87813 -0.0259205 0)
(9.99688 -0.136828 0)
(9.97507 -0.154229 0)
(10.0063 -0.0653368 0)
(10.0756 0.034818 0)
(10.113 0.0720284 0)
(10.108 0.0475398 0)
(10.0881 0.0107833 0)
(10.0801 0.000633015 0)
(10.0917 0.0223271 0)
(10.1142 0.0580494 0)
(10.1338 0.0900988 0)
(10.1427 0.112063 0)
(10.1408 0.127495 0)
(10.1355 0.142988 0)
(10.1338 0.16246 0)
(10.1414 0.184992 0)
(10.161 0.207716 0)
(10.3787 -0.02142 0)
(10.3861 -0.047585 0)
(10.2472 -0.0905165 0)
(10.1693 -0.104551 0)
(10.1761 -0.0518205 0)
(10.1845 0.0213952 0)
(10.1459 0.0565634 0)
(10.0777 0.0423186 0)
(10.019 0.0103007 0)
(9.9967 -0.00243204 0)
(10.0149 0.0184578 0)
(10.0592 0.0641182 0)
(10.1109 0.115505 0)
(10.1576 0.156068 0)
(10.1972 0.177396 0)
(10.2308 0.181053 0)
(10.2621 0.171096 0)
(10.2926 0.15771 0)
(10.0795 0.11078 0)
(10.1544 0.0906406 0)
(10.2304 0.0160016 0)
(10.2091 -0.0289167 0)
(10.136 -0.00566358 0)
(10.1 0.0750485 0)
(10.1154 0.144653 0)
(10.1459 0.147317 0)
(10.1662 0.0888983 0)
(10.1723 0.0138668 0)
(10.1752 -0.0382524 0)
(10.1864 -0.0547128 0)
(10.2107 -0.0411918 0)
(10.2466 -0.0105504 0)
(10.2872 0.0233444 0)
(10.3262 0.0535495 0)
(10.3594 0.0769104 0)
(10.3872 0.0937842 0)
(10.0734 -0.0516673 0)
(10.1255 -0.138167 0)
(10.1614 -0.0858308 0)
(10.1679 -0.00439203 0)
(10.1692 0.046439 0)
(10.1999 0.0609493 0)
(10.2532 0.046971 0)
(10.3039 0.0213408 0)
(10.3361 0.00110764 0)
(10.3487 -0.00591229 0)
(10.3463 -0.000615342 0)
(10.3372 0.0122568 0)
(10.3264 0.0280247 0)
(10.3139 0.0446595 0)
(10.2988 0.0587854 0)
(10.2851 0.06859 0)
(10.2737 0.0720273 0)
(10.2697 0.0691462 0)
(10.0675 -0.00527176 0)
(10.0176 0.00842183 0)
(9.91046 -0.00746048 0)
(9.82284 -0.026217 0)
(9.85408 -0.0203357 0)
(9.95763 0.00799125 0)
(10.0608 0.0368562 0)
(10.1269 0.0458291 0)
(10.1566 0.0293995 0)
(10.1668 -0.000719357 0)
(10.1729 -0.0255349 0)
(10.1829 -0.0297395 0)
(10.1997 -0.0112105 0)
(10.2227 0.022304 0)
(10.2491 0.0579653 0)
(10.2744 0.0849231 0)
(10.2973 0.0975446 0)
(10.3122 0.0952809 0)
(10.0602 -0.115089 0)
(10.1187 0.0190419 0)
(10.1293 0.0401517 0)
(10.0807 -0.0105813 0)
(10.0054 -0.069641 0)
(9.94834 -0.0890573 0)
(9.93868 -0.0737066 0)
(9.9772 -0.0455694 0)
(10.0445 -0.0238297 0)
(10.1148 -0.0145447 0)
(10.1702 -0.0133327 0)
(10.2083 -0.0137091 0)
(10.2372 -0.0104163 0)
(10.2649 -0.00289544 0)
(10.2962 0.00742848 0)
(10.3309 0.018865 0)
(10.3671 0.0306038 0)
(10.4005 0.0434658 0)
(10.016 -0.0763216 0)
(10.0389 -0.00386162 0)
(10.0226 0.0467514 0)
(10.0102 0.0663017 0)
(10.0007 0.0690579 0)
(10.0029 0.0455685 0)
(10.0306 0.00377434 0)
(10.0828 -0.0403452 0)
(10.1435 -0.0755872 0)
(10.1963 -0.0961596 0)
(10.2313 -0.0990596 0)
(10.2477 -0.0852676 0)
(10.2503 -0.0604931 0)
(10.2458 -0.0321166 0)
(10.2388 -0.00634789 0)
(10.2338 0.0134663 0)
(10.2321 0.0259892 0)
(10.2365 0.0324914 0)
(9.91599 -0.0702793 0)
(9.85514 0.00506292 0)
(9.88124 0.0184974 0)
(9.98552 -0.0105861 0)
(10.1268 -0.0525003 0)
(10.24 -0.0930798 0)
(10.2924 -0.113442 0)
(10.2823 -0.111693 0)
(10.2329 -0.0963244 0)
(10.1739 -0.0758076 0)
(10.1266 -0.0540867 0)
(10.1003 -0.0326483 0)
(10.0969 -0.0130903 0)
(10.113 0.00267227 0)
(10.143 0.0137832 0)
(10.1801 0.0206573 0)
(10.2196 0.0240469 0)
(10.2555 0.02609 0)
(10.1291 0.0409195 0)
(10.1121 0.0718894 0)
(10.1357 0.0111998 0)
(10.1539 -0.0309968 0)
(10.1788 -0.0442365 0)
(10.2067 -0.038081 0)
(10.2227 -0.0236261 0)
(10.2231 -0.0140403 0)
(10.2172 -0.018328 0)
(10.2157 -0.0341023 0)
(10.2215 -0.0513825 0)
(10.2329 -0.061599 0)
(10.2491 -0.0623065 0)
(10.271 -0.0561131 0)
(10.3002 -0.046465 0)
(10.3368 -0.0360804 0)
(10.3804 -0.0260784 0)
(10.4275 -0.0164939 0)
(10.0016 0.00679163 0)
(10.2004 0.0322077 0)
(10.3353 -0.00434493 0)
(10.3736 -0.0495097 0)
(10.3448 -0.0936571 0)
(10.3077 -0.117952 0)
(10.3043 -0.116635 0)
(10.3255 -0.102046 0)
(10.3389 -0.0867577 0)
(10.3246 -0.0743914 0)
(10.2863 -0.0628356 0)
(10.2441 -0.0509725 0)
(10.2163 -0.0408727 0)
(10.2114 -0.0357042 0)
(10.226 -0.0360416 0)
(10.2527 -0.0398058 0)
(10.2827 -0.0440985 0)
(10.3107 -0.0462779 0)
(9.73244 -0.0212162 0)
(9.79461 -0.0195588 0)
(9.78737 -0.0233576 0)
(9.70752 -0.0163031 0)
(9.55092 -0.0145627 0)
(9.33807 -0.0243968 0)
(9.11014 -0.0349077 0)
(8.9044 -0.0346822 0)
(8.73944 -0.0260055 0)
(8.61231 -0.0192563 0)
(8.50801 -0.0210773 0)
(8.41243 -0.0308145 0)
(8.31616 -0.0437938 0)
(8.21506 -0.0550751 0)
(8.10727 -0.0607466 0)
(7.99884 -0.0598663 0)
(7.89286 -0.0528348 0)
(7.80179 -0.0422618 0)
(-0.272091 0.659953 5.72408e-20)
(-0.706122 0.0627625 -5.67379e-20)
(-0.930635 -0.0983207 0)
(-0.703853 -0.555771 0)
(-0.285945 -0.721473 0)
(0.375638 -0.846869 5.52725e-20)
(1.08675 -0.875047 0)
(1.7811 -0.836037 0)
(2.44731 -0.758009 0)
(3.05411 -0.659691 0)
(3.58343 -0.555337 -5.22378e-20)
(4.03265 -0.454639 0)
(4.40565 -0.359997 0)
(4.70636 -0.274706 0)
(4.94319 -0.197077 0)
(5.11798 -0.126421 -4.93929e-20)
(5.24258 -0.0625301 0)
(5.31138 0.00279226 0)
(5.33788 0.0630446 0)
(5.30459 0.140343 0)
(5.20251 0.214338 0)
(5.03387 0.322252 0)
(4.73981 0.439299 0)
(4.38193 0.587423 -4.67627e-20)
(3.784 0.789842 4.66169e-20)
(3.14298 0.89276 -4.64874e-20)
(2.18932 1.3401 -4.63324e-20)
(0.879932 0.885509 0)
(0.205238 -0.333878 0)
(-0.234922 -0.430642 4.54021e-20)
(-0.473405 -0.157642 4.49966e-20)
(-0.410447 -0.082659 0)
(-0.217148 -0.0983531 0)
(0.0427077 -0.188963 4.39002e-20)
(0.33989 -0.296214 0)
(0.63168 -0.34997 0)
(0.892638 -0.320296 -4.25302e-20)
(1.08538 -0.313511 0)
(1.12757 -0.453791 -4.15982e-20)
(0.950676 -0.544076 -8.2387e-20)
(0.550342 -0.0385799 0)
(-0.241559 0.762763 0)
(-1.27891 0.950418 0)
(-2.15821 0.789329 0)
(-2.84501 0.60976 0)
(-3.38895 0.440168 -7.62958e-20)
(-3.79134 0.30615 -7.49862e-20)
(-4.0788 0.191212 -7.36961e-20)
(-4.25291 0.0953104 0)
(-4.32902 0.0126641 7.12201e-20)
(-4.30117 -0.055642 0)
(-4.17834 -0.112481 -6.88762e-20)
(-3.97451 -0.167766 -6.77514e-20)
(-3.68772 -0.219258 0)
(-3.32502 -0.265481 0)
(-2.89609 -0.307518 0)
(-2.40949 -0.344371 -6.33115e-20)
(-1.8773 -0.373308 0)
(-1.31311 -0.394422 0)
(-0.727762 -0.407428 0)
(-0.130699 -0.412007 0)
(0.467639 -0.407192 0)
(1.05248 -0.390077 0)
(1.60173 -0.356084 0)
(2.081 -0.291581 0)
(2.44602 -0.195657 5.20324e-20)
(2.64951 -0.0662043 0)
(2.64481 0.0970877 0)
(2.36876 0.281201 -5.04792e-20)
(1.80257 0.457575 -5.06619e-20)
(0.954028 0.596457 0)
(-0.136982 0.680138 5.16439e-20)
(-1.32123 0.690552 -5.18142e-20)
(-2.41505 0.534772 0)
(-3.15451 0.211561 5.12691e-20)
(-3.21987 -0.177649 0)
(-2.72353 -0.62045 0)
(-2.3645 -1.09491 -4.97508e-20)
(-2.64013 -1.21924 0)
(-3.64734 0.0266287 4.89416e-20)
(-5.89274 1.94142 0)
(-8.79927 1.6726 -4.81367e-20)
(-10.4151 0.768037 -4.68055e-20)
(-11.4801 0.863424 -4.55383e-20)
(-12.6726 0.588009 -8.85832e-20)
(-13.3352 0.386877 8.63144e-20)
(-13.9457 0.365444 0)
(-14.4172 0.205256 0)
(-14.6915 0.163625 0)
(-14.9205 0.0903187 8.02871e-20)
(-14.9894 0.0231789 7.95609e-20)
(-14.9799 -0.0143559 -7.91389e-20)
(-14.8781 -0.0687664 0)
(-14.6883 -0.104519 7.91445e-20)
(-14.4225 -0.14492 7.95343e-20)
(-14.0711 -0.181143 8.01427e-20)
(-13.6505 -0.212657 0)
(-13.157 -0.243758 0)
(-12.6014 -0.268852 0)
(-11.9887 -0.292043 8.39083e-20)
(-11.325 -0.310904 0)
(-10.6187 -0.326251 0)
(-9.8738 -0.338797 -8.68595e-20)
(-9.09713 -0.34788 0)
(-8.29236 -0.354681 0)
(-7.4642 -0.35882 -8.88534e-20)
(-6.61906 -0.360233 0)
(-5.76507 -0.358087 0)
(-4.91487 -0.350483 8.93811e-20)
(-4.08366 -0.335767 8.91623e-20)
(-3.2881 -0.312931 0)
(-2.54666 -0.282832 -8.80911e-20)
(-1.87711 -0.247688 0)
(-1.29273 -0.210221 8.62625e-20)
(-0.796977 -0.174309 0)
(-0.386544 -0.139739 8.39518e-20)
(-0.0506591 -0.110892 8.2704e-20)
(0.221037 -0.0888641 0)
(0.440129 -0.0707136 0)
(0.621174 -0.0562772 0)
(0.773187 -0.0456702 0)
(0.903427 -0.0382519 0)
(1.01892 -0.0327075 0)
(1.1251 -0.0298179 0)
(1.22527 -0.028171 7.28488e-20)
(1.32248 -0.0270758 -7.17373e-20)
(1.41916 -0.0265908 0)
(1.51657 -0.0264514 0)
(1.61488 -0.0262161 0)
(1.71324 -0.0256028 0)
(1.81023 -0.0246203 -1.33031e-19)
(1.90487 -0.0235143 0)
(1.99729 -0.0225367 1.29084e-19)
(2.08851 -0.0217152 -1.27148e-19)
(2.17945 -0.0208714 0)
(2.27003 -0.0199732 0)
(2.35986 -0.019536 0)
(2.45009 -0.0205435 1.19696e-19)
(2.54469 -0.0238675 1.1793e-19)
(2.6497 -0.0296349 0)
(2.77111 -0.0372284 1.14552e-19)
(2.9131 -0.0459292 1.12937e-19)
(3.07815 -0.0546931 -1.11362e-19)
(3.26726 -0.0628739 0)
(3.48112 -0.0722802 0)
(3.72445 -0.0823484 -1.06814e-19)
(4.00033 -0.0915929 0)
(4.31097 -0.105095 0)
(4.67139 -0.118256 0)
(5.07924 -0.129768 0)
(5.5361 -0.148119 9.93322e-20)
(6.0607 -0.151654 9.76593e-20)
(6.59369 -0.15635 0)
(7.16345 -0.162957 9.38831e-20)
(7.73304 -0.125957 0)
(8.17796 -0.136833 0)
(8.71387 -0.0981845 8.74769e-20)
(8.97174 -0.0284654 0)
(9.18926 -0.106112 8.35232e-20)
(9.51608 0.119042 0)
(8.87913 0.105274 0)
(9.02327 0.0376187 7.97364e-20)
(8.33704 0.94355 0)
(4.91176 0.670176 7.85411e-20)
(3.1809 -0.296506 0)
(2.92379 -0.160939 0)
(2.56254 0.191514 0)
(1.48748 0.268796 -7.02696e-20)
(-0.0622643 0.319068 0)
(-1.78937 0.332265 6.01234e-20)
(-3.05994 0.201771 0)
(-3.43672 0.00976997 0)
(-3.06004 -0.128873 0)
(-2.31237 -0.168602 0)
(-1.51556 -0.145909 0)
(-0.865569 -0.0941262 0)
(-0.46525 -0.0439756 0)
(-0.305661 0.00702018 -1.12363e-19)
(-0.342658 0.0299396 0)
(-0.498608 -0.0568534 0)
(0.172882 1.19714 -1.71645e-19)
(-0.000852227 1.16029 1.70387e-19)
(0.277491 0.290499 0)
(0.795255 -0.873769 -1.11524e-19)
(1.41527 -1.68149 0)
(2.02874 -2.07047 -5.4894e-20)
(2.58119 -2.17349 1.08189e-19)
(3.0735 -2.09319 1.07038e-19)
(3.50501 -1.91105 0)
(3.87265 -1.68341 1.04714e-19)
(4.17907 -1.44451 5.20939e-20)
(4.43057 -1.2141 0)
(4.63421 -1.00079 0)
(4.79618 -0.807909 0)
(4.92065 -0.635061 0)
(5.01405 -0.479308 4.93943e-20)
(5.07736 -0.337435 0)
(5.12184 -0.199825 -9.67446e-20)
(5.13892 -0.0646216 0)
(5.14721 0.087588 0)
(5.12847 0.253752 9.44899e-20)
(5.10151 0.458211 0)
(5.02075 0.710927 -9.32239e-20)
(4.92256 0.992791 4.66534e-20)
(4.71896 1.37672 -4.64497e-20)
(4.46648 1.69681 4.62559e-20)
(4.10789 2.15066 4.60179e-20)
(3.52371 2.40919 0)
(2.98159 2.21109 0)
(1.82502 1.60283 -4.51393e-20)
(0.807646 0.518079 4.4894e-20)
(0.368274 -0.420928 0)
(0.17569 -0.709821 0)
(0.31253 -0.787596 -4.38704e-20)
(0.436558 -0.720251 0)
(0.454184 -0.589811 0)
(0.280368 -0.523403 4.26351e-20)
(-0.0953675 -0.0840591 0)
(-0.821408 0.778329 -4.17187e-20)
(-1.8043 1.41743 8.22395e-20)
(-2.55847 1.78361 0)
(-3.12861 1.91493 0)
(-3.61052 1.72212 1.583e-19)
(-3.98783 1.44834 1.56184e-19)
(-4.32519 1.16987 1.53903e-19)
(-4.61851 0.916371 -7.54839e-20)
(-4.86847 0.686652 7.47655e-20)
(-5.07217 0.471501 2.20125e-19)
(-5.21674 0.264709 -1.44194e-19)
(-5.29879 0.0631529 -7.10713e-20)
(-5.31407 -0.127903 0)
(-5.25461 -0.308594 6.8708e-20)
(-5.11064 -0.482309 -6.7272e-20)
(-4.89082 -0.643249 0)
(-4.59485 -0.787193 0)
(-4.23032 -0.911668 0)
(-3.80914 -1.01253 6.3074e-20)
(-3.34019 -1.08787 0)
(-2.83519 -1.13902 -1.20979e-19)
(-2.30593 -1.16873 0)
(-1.76056 -1.17942 -1.15999e-19)
(-1.20693 -1.16775 0)
(-0.657696 -1.12213 1.10855e-19)
(-0.120852 -1.02275 0)
(0.365037 -0.846881 -1.05724e-19)
(0.74385 -0.577172 5.12435e-20)
(0.975652 -0.209546 0)
(1.01608 0.237424 1.00503e-19)
(0.848648 0.727095 5.05995e-20)
(0.448998 1.21102 5.07562e-20)
(-0.203033 1.61887 0)
(-1.06554 1.86985 5.07871e-20)
(-2.01542 1.86268 5.16643e-20)
(-2.86416 1.46036 0)
(-3.28248 0.653256 -5.12323e-20)
(-3.35754 -0.273365 1.01625e-19)
(-3.94235 -0.437884 0)
(-5.81225 0.982167 4.9363e-20)
(-8.79466 3.00972 0)
(-10.5304 3.49285 -1.43616e-19)
(-11.0404 3.18969 0)
(-12.0367 2.59725 1.41111e-19)
(-12.6238 1.88226 4.6556e-20)
(-13.0152 1.58455 -4.39371e-20)
(-13.4856 1.1931 -8.60379e-20)
(-13.7483 0.897546 8.43972e-20)
(-14.0501 0.716244 0)
(-14.2376 0.488041 0)
(-14.3863 0.335643 0)
(-14.4745 0.177012 -2.40027e-19)
(-14.4802 0.0259563 -7.96256e-20)
(-14.4451 -0.0987945 7.91977e-20)
(-14.3092 -0.231473 0)
(-14.1036 -0.348844 7.84632e-20)
(-13.8183 -0.463081 -7.95711e-20)
(-13.4547 -0.570507 -8.0172e-20)
(-13.0231 -0.667434 0)
(-12.5211 -0.757454 0)
(-11.9601 -0.835524 0)
(-11.3432 -0.90402 -8.39117e-20)
(-10.6784 -0.961632 0)
(-9.97209 -1.00876 1.71363e-19)
(-9.22916 -1.04697 2.6004e-19)
(-8.45507 -1.07627 -1.74793e-19)
(-7.6528 -1.09803 0)
(-6.8262 -1.11212 -8.83351e-20)
(-5.97947 -1.11754 0)
(-5.1194 -1.11156 -1.78275e-19)
(-4.25731 -1.08948 8.89356e-20)
(-3.4088 -1.04567 8.87828e-20)
(-2.59336 -0.975837 0)
(-1.83247 -0.88291 2.64056e-19)
(-1.14848 -0.772886 -1.74374e-19)
(-0.558159 -0.654188 -8.62884e-20)
(-0.0631738 -0.541864 0)
(0.339574 -0.44252 -8.39291e-20)
(0.661036 -0.358015 -2.47791e-19)
(0.917988 -0.291033 0)
(1.12425 -0.237874 -1.59976e-19)
(1.29262 -0.197331 -1.57433e-19)
(1.43324 -0.167565 -1.54941e-19)
(1.55451 -0.1466 0)
(1.66266 -0.132242 0)
(1.7625 -0.122997 0)
(1.85745 -0.117576 7.27479e-20)
(1.94997 -0.114996 7.16795e-20)
(2.04205 -0.11447 0)
(2.1347 -0.11492 1.39036e-19)
(2.22765 -0.115044 1.36959e-19)
(2.31951 -0.113755 0)
(2.40856 -0.110805 1.32933e-19)
(2.49391 -0.107123 2.6187e-19)
(2.57658 -0.10417 -1.28994e-19)
(2.65913 -0.102614 -1.2703e-19)
(2.7442 -0.101731 0)
(2.833 -0.100408 0)
(2.92543 -0.0989584 0)
(3.02205 -0.0996244 -1.19617e-19)
(3.12588 -0.104986 1.17789e-19)
(3.24195 -0.116128 2.32204e-19)
(3.37515 -0.132125 -1.14469e-19)
(3.52866 -0.150748 1.12793e-19)
(3.70262 -0.170522 1.11276e-19)
(3.89733 -0.19111 0)
(4.11551 -0.213012 0)
(4.35732 -0.238598 -1.06657e-19)
(4.63022 -0.267634 0)
(4.94265 -0.30202 0)
(5.29583 -0.344778 2.04532e-19)
(5.70979 -0.387512 0)
(6.1765 -0.432589 9.91503e-20)
(6.69797 -0.46948 -9.75529e-20)
(7.27257 -0.482107 0)
(7.83935 -0.487325 9.3648e-20)
(8.43282 -0.451333 0)
(8.95562 -0.401793 0)
(9.42323 -0.349047 -8.73867e-20)
(9.84226 -0.224782 1.70457e-19)
(10.0516 -0.165217 -8.34494e-20)
(10.2992 -0.01646 0)
(10.2645 0.24565 0)
(10.1914 0.302216 7.8743e-20)
(9.90469 0.881149 0)
(9.64004 1.84022 7.66635e-20)
(8.28403 1.55021 0)
(4.99955 0.476307 0)
(3.65148 0.494587 0)
(2.8183 1.0093 7.01211e-20)
(1.09889 1.23662 0)
(-0.790228 1.14554 -6.0099e-20)
(-2.08215 0.678543 0)
(-2.45479 0.0200654 0)
(-2.05785 -0.446995 1.06796e-19)
(-1.26346 -0.604293 -1.10384e-19)
(-0.399808 -0.547225 0)
(0.317723 -0.387633 0)
(0.789516 -0.206564 0)
(0.971844 -0.0610117 3.37217e-19)
(0.95894 0.0460203 0)
(0.840013 0.0327387 -2.15397e-19)
(-0.0364164 0.506643 -1.21887e-22)
(0.311102 0.0332296 -2.27019e-19)
(1.15698 -1.46902 0)
(1.91385 -2.60872 2.21793e-19)
(2.46386 -3.14941 0)
(2.81808 -3.23458 0)
(3.05056 -3.04352 -5.99053e-22)
(3.21404 -2.71315 -1.06898e-19)
(3.33336 -2.33435 -1.05229e-19)
(3.42275 -1.95918 -1.04793e-19)
(3.49459 -1.61284 0)
(3.55816 -1.30412 0)
(3.61768 -1.033 1.01253e-19)
(3.67328 -0.796202 2.00612e-19)
(3.72236 -0.589344 -1.98771e-19)
(3.7648 -0.4096 0)
(3.8023 -0.254645 -1.9527e-19)
(3.84204 -0.113404 9.70761e-20)
(3.87621 0.0213346 0)
(3.91519 0.168569 -1.9043e-19)
(3.95432 0.33949 -9.47881e-20)
(4.00354 0.554538 1.87371e-19)
(4.04788 0.837809 9.3442e-20)
(4.08584 1.17938 0)
(4.0994 1.61631 -1.83337e-19)
(4.08066 2.0667 -1.82201e-19)
(4.03317 2.56482 0)
(3.86241 2.97034 -1.80281e-19)
(3.6544 3.12662 0)
(3.04908 2.96148 -1.79098e-19)
(2.3331 2.23309 -8.93097e-20)
(1.59769 1.17286 0)
(0.828172 0.0707842 0)
(0.416917 -0.541046 0)
(0.0381469 -0.420401 0)
(-0.388864 -0.0548494 0)
(-1.11778 0.707093 0)
(-1.989 1.53269 -1.68283e-19)
(-2.73708 2.07941 2.4876e-19)
(-3.37253 2.36407 0)
(-3.80416 2.45225 0)
(-4.1179 2.37441 0)
(-4.38286 2.14779 -7.09281e-22)
(-4.66693 1.89132 -1.55828e-19)
(-4.98503 1.61718 -3.06349e-19)
(-5.3133 1.3399 3.0162e-19)
(-5.62021 1.05258 1.48046e-19)
(-5.88137 0.75937 -1.463e-19)
(-6.08545 0.46475 6.19365e-22)
(-6.2248 0.171664 -1.40929e-19)
(-6.29271 -0.120943 0)
(-6.29011 -0.410803 -1.3624e-19)
(-6.21451 -0.689244 5.67457e-22)
(-6.06427 -0.951337 0)
(-5.84282 -1.1895 0)
(-5.55505 -1.39539 1.27011e-19)
(-5.20914 -1.5632 0)
(-4.81758 -1.6889 0)
(-4.39348 -1.77473 -1.19068e-19)
(-3.94909 -1.82825 -2.34549e-19)
(-3.49325 -1.85567 1.15492e-19)
(-3.03101 -1.85471 0)
(-2.56865 -1.80535 -1.1034e-19)
(-2.11982 -1.66899 0)
(-1.71511 -1.41064 -1.0353e-19)
(-1.39577 -0.9914 -1.03227e-19)
(-1.20387 -0.410659 2.01072e-19)
(-1.18278 0.289616 9.84039e-20)
(-1.34096 1.03808 0)
(-1.67541 1.76441 -1.98524e-19)
(-2.17382 2.39506 0)
(-2.79591 2.80341 -3.04034e-19)
(-3.43468 2.74325 -2.0393e-19)
(-3.95317 1.96952 -2.04756e-19)
(-4.38486 0.81798 2.04159e-19)
(-5.4695 0.758164 -3.03044e-19)
(-7.77137 2.49925 0)
(-9.89812 3.87894 0)
(-11.0345 4.06694 1.91614e-19)
(-11.5394 3.95235 2.83369e-19)
(-11.537 3.56581 0)
(-11.6863 2.87246 -9.33314e-20)
(-11.8843 2.26666 0)
(-12.1209 1.9097 2.65424e-19)
(-12.4399 1.48209 2.18623e-21)
(-12.7244 1.18547 -1.85394e-21)
(-13.0053 0.93499 -1.65701e-19)
(-13.2137 0.661296 0)
(-13.3728 0.454023 1.60529e-19)
(-13.4548 0.223704 1.21849e-21)
(-13.4561 0.013408 0)
(-13.3925 -0.191119 0)
(-13.2471 -0.400313 0)
(-13.0304 -0.590739 -1.57842e-19)
(-12.7377 -0.779582 0)
(-12.3743 -0.953273 0)
(-11.9447 -1.1134 0)
(-11.452 -1.25965 0)
(-10.9049 -1.38718 0)
(-10.3082 -1.49887 -1.66517e-19)
(-9.67022 -1.59251 0)
(-8.99755 -1.67004 -1.71423e-19)
(-8.29527 -1.73334 -1.73234e-19)
(-7.56751 -1.78391 1.74819e-19)
(-6.81587 -1.82386 0)
(-6.04102 -1.85305 1.77159e-19)
(-5.24268 -1.86973 0)
(-4.42261 -1.86828 1.78236e-19)
(-3.58608 -1.84008 -1.78251e-19)
(-2.74353 -1.77444 -5.32335e-19)
(-1.91474 -1.65956 0)
(-1.12222 -1.49981 -5.26953e-19)
(-0.400706 -1.30463 -1.7367e-19)
(0.221819 -1.09826 0)
(0.735814 -0.901695 -3.39539e-19)
(1.14894 -0.72714 -3.34576e-19)
(1.47423 -0.578098 4.94411e-19)
(1.72704 -0.458758 0)
(1.92282 -0.367037 1.59777e-19)
(2.07579 -0.299325 1.57249e-19)
(2.19805 -0.251141 4.64082e-19)
(2.29938 -0.218158 0)
(2.3873 -0.196135 0)
(2.46705 -0.181922 0)
(2.54244 -0.17339 1.45265e-19)
(2.61637 -0.168864 0)
(2.69133 -0.166806 0)
(2.76883 -0.16548 -1.38918e-19)
(2.84788 -0.163 -1.36846e-19)
(2.92404 -0.158179 0)
(2.99074 -0.151505 0)
(3.04315 -0.14523 -2.61687e-19)
(3.08159 -0.14196 0)
(3.11142 -0.14257 2.53947e-19)
(3.13963 -0.145429 2.50096e-19)
(3.17143 -0.148183 0)
(3.20966 -0.150942 0)
(3.25727 -0.157249 -2.39007e-19)
(3.3197 -0.171215 -1.01431e-22)
(3.40409 -0.193918 -1.06153e-22)
(3.51597 -0.223038 0)
(3.6572 -0.254745 -4.51054e-19)
(3.82695 -0.286488 0)
(4.02293 -0.318826 0)
(4.24499 -0.353691 0)
(4.49688 -0.394602 2.13293e-19)
(4.78172 -0.443587 0)
(5.1077 -0.502233 -4.14499e-19)
(5.48223 -0.575422 -2.04415e-19)
(5.91045 -0.652491 0)
(6.40162 -0.729883 -1.98238e-19)
(6.9459 -0.796138 0)
(7.52989 -0.819215 0)
(8.13545 -0.825307 -5.6136e-19)
(8.72658 -0.771876 3.6561e-19)
(9.27619 -0.680061 0)
(9.77694 -0.594305 3.4801e-19)
(10.1515 -0.399387 -1.70351e-19)
(10.4935 -0.274202 0)
(10.6536 -0.0692085 0)
(10.6663 0.258748 0)
(10.7611 0.446266 -4.7282e-19)
(10.2107 0.943365 0)
(10.2516 1.77182 -1.54622e-19)
(10.5541 2.31031 0)
(8.61768 2.06205 0)
(5.37336 1.36141 0)
(3.58824 1.62009 0)
(2.05706 2.09787 0)
(0.162541 1.88921 0)
(-1.22288 1.1111 -2.11698e-19)
(-1.62306 0.0409863 0)
(-1.25046 -0.771483 -1.06812e-19)
(-0.524573 -1.02483 3.3058e-19)
(0.266411 -0.931741 0)
(0.9305 -0.671395 0)
(1.39096 -0.357275 -2.28193e-19)
(1.53517 -0.0792665 -2.24796e-19)
(1.44383 0.0961567 2.20764e-19)
(1.17521 0.0971243 2.15305e-19)
(0.0234778 0.523306 3.43447e-19)
(0.836631 -1.70261 3.3972e-19)
(1.60809 -3.17593 2.23402e-19)
(2.09845 -3.7121 1.10032e-19)
(2.33152 -3.6717 0)
(2.41471 -3.35935 -2.16045e-19)
(2.4361 -2.94822 1.06523e-19)
(2.44327 -2.52991 0)
(2.4629 -2.15204 1.05489e-19)
(2.51006 -1.82993 0)
(2.58721 -1.5573 -2.06224e-19)
(2.68674 -1.32069 0)
(2.79754 -1.107 -1.01468e-19)
(2.90815 -0.907663 -2.01007e-19)
(3.00725 -0.723526 1.99139e-19)
(3.08799 -0.560886 0)
(3.15025 -0.419598 1.95604e-19)
(3.19729 -0.289438 0)
(3.22993 -0.160445 0)
(3.25862 -0.0188001 1.90783e-19)
(3.28938 0.147237 0)
(3.33454 0.36652 -7.18803e-22)
(3.38554 0.673651 0)
(3.42195 1.05906 0)
(3.43905 1.53007 9.88875e-22)
(3.43269 2.04949 1.82448e-19)
(3.42331 2.60645 1.80301e-19)
(3.3504 3.13681 1.80406e-19)
(3.27254 3.51451 0)
(2.99954 3.60673 3.57279e-19)
(2.52875 3.1861 0)
(1.82368 2.30051 1.77919e-19)
(1.07336 1.15231 0)
(0.414135 0.457729 0)
(-0.286861 0.608294 -1.74971e-19)
(-1.08517 1.24271 0)
(-2.01368 2.05594 1.70241e-19)
(-2.79222 2.63312 -1.01033e-23)
(-3.34961 2.88735 -3.3069e-19)
(-3.76234 2.95556 3.25876e-19)
(-4.07248 2.90674 0)
(-4.38017 2.7895 0)
(-4.72146 2.62299 1.55482e-19)
(-5.09766 2.41381 0)
(-5.47203 2.14147 1.52513e-19)
(-5.81706 1.81805 -1.50171e-19)
(-6.1199 1.46275 -1.47795e-19)
(-6.38472 1.09658 0)
(-6.61401 0.728469 1.43047e-19)
(-6.80211 0.355266 1.40718e-19)
(-6.93884 -0.0269547 -2.75137e-19)
(-7.01877 -0.411155 1.36037e-19)
(-7.04013 -0.785129 1.33678e-19)
(-6.99848 -1.14399 0)
(-6.88784 -1.47578 0)
(-6.7105 -1.76528 -1.26654e-19)
(-6.47269 -2.00003 0)
(-6.1865 -2.17204 0)
(-5.86954 -2.2827 2.38697e-19)
(-5.54007 -2.34343 2.33648e-19)
(-5.21274 -2.36961 0)
(-4.89543 -2.36571 0)
(-4.59091 -2.30804 0)
(-4.30375 -2.14013 0)
(-4.04748 -1.79438 2.07853e-19)
(-3.8457 -1.23086 -2.02389e-19)
(-3.73577 -0.465855 -2.00108e-19)
(-3.7578 0.437914 -3.95085e-19)
(-3.89726 1.38361 0)
(-4.13365 2.27887 7.15918e-22)
(-4.46008 3.02209 0)
(-4.8166 3.43622 2.01285e-19)
(-5.1014 3.22449 1.18282e-21)
(-5.39955 2.43178 2.04002e-19)
(-6.31028 2.14245 -2.03107e-19)
(-8.19805 3.28292 1.42046e-21)
(-9.98919 4.58628 0)
(-10.8046 4.78358 -1.92499e-19)
(-10.8616 4.25133 -1.9149e-19)
(-10.8149 3.89771 -3.75273e-19)
(-10.7814 3.54773 0)
(-10.8271 2.96979 1.80713e-19)
(-11.0153 2.5361 0)
(-11.2403 2.20479 -3.50176e-19)
(-11.48 1.78259 1.72592e-19)
(-11.716 1.46268 -1.69129e-19)
(-11.9146 1.15006 1.65932e-19)
(-12.0556 0.81885 3.23174e-19)
(-12.147 0.537754 -1.60813e-19)
(-12.169 0.238647 1.59024e-19)
(-12.127 -0.0454817 0)
(-12.0253 -0.322922 -3.11348e-19)
(-11.8504 -0.599398 0)
(-11.6095 -0.859047 -3.11613e-19)
(-11.3013 -1.11031 3.13275e-19)
(-10.9274 -1.34423 3.15824e-19)
(-10.4931 -1.55861 -3.19095e-19)
(-10.0025 -1.75218 -3.22913e-19)
(-9.46311 -1.92082 0)
(-8.88242 -2.06536 -1.64696e-19)
(-8.26943 -2.18533 0)
(-7.63321 -2.28297 0)