/*--------------------------------*- C++ -*----------------------------------*\
  =========                 |
  \\      /  F ield         | OpenFOAM: The Open Source CFD Toolbox
   \\    /   O peration     | Website:  https://openfoam.org
    \\  /    A nd           | Version:  9
     \\/     M anipulation  |
\*---------------------------------------------------------------------------*/
FoamFile
{
    format      ascii;
    class       volVectorField;
    location    "0.067";
    object      U_0;
}
// * * * * * * * * * * * * * * * * * * * * * * * * * * * * * * * * * * * * * //

dimensions      [0 1 -1 0 0 0 0];

internalField   nonuniform List<vector> 
12225
(
(9.73166 0.0497209 0)
(9.42275 0.0841484 0)
(9.05606 0.0780194 0)
(8.69494 0.0557422 0)
(8.42025 0.0411408 0)
(8.21328 0.0448878 0)
(8.00374 0.0568814 0)
(7.75247 0.06319 0)
(7.47496 0.059712 0)
(7.21043 0.0512473 0)
(6.97074 0.0447843 0)
(6.75572 0.0479811 0)
(6.51788 0.0611011 0)
(6.26194 0.0780126 0)
(5.94385 0.0928898 0)
(5.62068 0.0967376 0)
(5.2503 0.106285 0)
(4.90627 0.119422 0)
(9.76406 0.0580804 0)
(9.94261 0.0382164 0)
(10.0942 0.0799505 0)
(10.2014 0.089712 0)
(10.2942 0.0678933 0)
(10.3385 0.0524203 0)
(10.3122 0.0583131 0)
(10.2285 0.0759314 0)
(10.118 0.0902421 0)
(10.0114 0.0953706 0)
(9.91542 0.0938165 0)
(9.83119 0.0945178 0)
(9.7422 0.103885 0)
(9.64816 0.119186 0)
(9.52824 0.139717 0)
(9.3973 0.159353 0)
(9.23362 0.182637 0)
(9.0589 0.225046 0)
(10.0894 0.0147993 0)
(10.0662 -0.00483834 0)
(10.0533 0.0338478 0)
(10.0668 0.0220139 0)
(10.0882 0.0101568 0)
(10.1327 0.0405554 0)
(10.1875 0.0898157 0)
(10.2196 0.123115 0)
(10.2181 0.12963 0)
(10.1979 0.11841 0)
(10.1776 0.103754 0)
(10.1667 0.100389 0)
(10.165 0.11486 0)
(10.166 0.144257 0)
(10.1585 0.179973 0)
(10.1324 0.214342 0)
(10.0845 0.251471 0)
(10.0094 0.302919 0)
(10.2275 -0.00922647 0)
(10.0752 0.0517485 0)
(10.0266 0.0735559 0)
(10.0753 0.0701167 0)
(10.1179 0.0390485 0)
(10.1093 0.0198067 0)
(10.0609 0.0331743 0)
(10.0061 0.065314 0)
(9.97165 0.0930503 0)
(9.96727 0.104324 0)
(9.98719 0.10221 0)
(10.0203 0.10001 0)
(10.0557 0.109607 0)
(10.0848 0.133507 0)
(10.0994 0.167316 0)
(10.0948 0.206137 0)
(10.0684 0.250826 0)
(10.0328 0.311015 0)
(10.1488 -0.00689134 0)
(10.3487 0.0263122 0)
(10.3797 0.0478991 0)
(10.3483 0.0127675 0)
(10.3149 0.00979192 0)
(10.2855 0.0627846 0)
(10.2543 0.124702 0)
(10.2177 0.154568 0)
(10.1747 0.146768 0)
(10.1253 0.11755 0)
(10.0714 0.0881125 0)
(10.0197 0.0756795 0)
(9.97906 0.0880798 0)
(9.95297 0.122722 0)
(9.93893 0.170892 0)
(9.9318 0.22588 0)
(9.92469 0.282407 0)
(9.92468 0.345642 0)
(9.77356 -0.0775563 0)
(9.89 -0.0244307 0)
(10.074 0.0673517 0)
(10.1483 0.0784288 0)
(10.0876 0.0457604 0)
(10.0005 0.0294773 0)
(9.97084 0.0492728 0)
(10.003 0.0889567 0)
(10.0555 0.125166 0)
(10.0845 0.143282 0)
(10.0706 0.143636 0)
(10.0206 0.137733 0)
(9.95597 0.139498 0)
(9.89653 0.156277 0)
(9.85222 0.185896 0)
(9.82732 0.225627 0)
(9.81643 0.268181 0)
(9.82313 0.316976 0)
(10.0559 -0.0767626 0)
(10.0267 -0.0852107 0)
(10.0505 -0.0181258 0)
(10.1011 0.0302812 0)
(10.1043 0.0777886 0)
(10.0447 0.116163 0)
(9.97025 0.128982 0)
(9.93148 0.123934 0)
(9.93945 0.116412 0)
(9.97236 0.113399 0)
(10.0051 0.116491 0)
(10.0254 0.126696 0)
(10.0305 0.144798 0)
(10.0255 0.171377 0)
(10.0123 0.203398 0)
(9.99634 0.240374 0)
(9.97702 0.278674 0)
(9.95882 0.319117 0)
(9.86538 -0.0537633 0)
(9.80736 -0.0143765 0)
(9.84536 0.0302693 0)
(9.90683 0.0366629 0)
(9.97564 0.0455663 0)
(10.0445 0.0664015 0)
(10.0951 0.0857505 0)
(10.1229 0.0991467 0)
(10.1371 0.1082 0)
(10.1467 0.113202 0)
(10.1526 0.115945 0)
(10.1513 0.122189 0)
(10.1351 0.13775 0)
(10.1035 0.16631 0)
(10.0602 0.205014 0)
(10.0135 0.250372 0)
(9.97236 0.296359 0)
(9.94086 0.338758 0)
(10.0523 -0.10251 0)
(10.0463 -0.098571 0)
(10.0657 -0.0477887 0)
(9.98891 0.00765977 0)
(9.8936 0.0499388 0)
(9.86692 0.0785746 0)
(9.91305 0.0958145 0)
(9.99519 0.104543 0)
(10.0765 0.107474 0)
(10.1352 0.109273 0)
(10.1655 0.117687 0)
(10.174 0.139109 0)
(10.1685 0.173027 0)
(10.1581 0.213859 0)
(10.1506 0.254381 0)
(10.1477 0.289796 0)
(10.1538 0.319329 0)
(10.1566 0.342962 0)
(9.89006 -0.159934 0)
(9.88941 -0.0492587 0)
(9.9114 0.0472963 0)
(9.86363 0.0920401 0)
(9.81158 0.0804417 0)
(9.81493 0.0460395 0)
(9.87172 0.0212511 0)
(9.95264 0.020894 0)
(10.0257 0.0401112 0)
(10.0701 0.0663862 0)
(10.0838 0.0919229 0)
(10.0781 0.117007 0)
(10.0678 0.144374 0)
(10.0634 0.175431 0)
(10.0718 0.21186 0)
(10.0917 0.250541 0)
(10.1173 0.293314 0)
(10.1409 0.336835 0)
(9.99162 -0.091315 0)
(9.97835 -0.142464 0)
(9.97958 -0.0289164 0)
(10.0218 0.0774468 0)
(10.0766 0.0961156 0)
(10.1018 0.0629791 0)
(10.0854 0.0327342 0)
(10.0588 0.0290276 0)
(10.0513 0.0482705 0)
(10.0655 0.0796437 0)
(10.0894 0.116222 0)
(10.1049 0.153463 0)
(10.1045 0.18733 0)
(10.0877 0.214436 0)
(10.0651 0.235162 0)
(10.0487 0.254593 0)
(10.0428 0.277248 0)
(10.0541 0.31046 0)
(10.1239 -0.185441 0)
(9.98608 -0.0357159 0)
(9.87754 0.0235246 0)
(9.91138 0.0273644 0)
(10.0544 0.026714 0)
(10.1778 0.0327917 0)
(10.1968 0.0385128 0)
(10.1233 0.0404004 0)
(10.0215 0.0409223 0)
(9.95174 0.047766 0)
(9.9436 0.0694113 0)
(9.99286 0.107519 0)
(10.0703 0.15501 0)
(10.1461 0.202802 0)
(10.191 0.242224 0)
(10.2013 0.273257 0)
(10.1765 0.297929 0)
(10.1377 0.321165 0)
(9.88981 -0.163091 0)
(9.78667 -0.083776 0)
(9.84447 -0.00256909 0)
(9.90802 -0.00144977 0)
(9.95924 -0.0155481 0)
(9.99953 0.00737046 0)
(10.0097 0.0649385 0)
(9.98189 0.120227 0)
(9.92699 0.140065 0)
(9.87018 0.122951 0)
(9.83547 0.0924276 0)
(9.83627 0.0760111 0)
(9.86823 0.0877965 0)
(9.919 0.128746 0)
(9.97202 0.18836 0)
(10.0139 0.252981 0)
(10.0391 0.313137 0)
(10.0472 0.358429 0)
(10.0057 0.0145409 0)
(9.86422 0.0294564 0)
(9.8511 -0.0104022 0)
(9.91122 -0.0270768 0)
(9.99687 -0.0230885 0)
(10.0637 0.000150432 0)
(10.111 0.0415078 0)
(10.1473 0.0779754 0)
(10.1658 0.0935855 0)
(10.1554 0.0919975 0)
(10.1117 0.086902 0)
(10.0431 0.0904352 0)
(9.96864 0.107972 0)
(9.90814 0.139321 0)
(9.87986 0.181493 0)
(9.88557 0.229403 0)
(9.92413 0.276846 0)
(9.98421 0.323195 0)
(9.79783 -0.00471111 0)
(9.90876 -0.00526488 0)
(9.91236 -0.0512385 0)
(9.9392 -0.106321 0)
(10.0018 -0.117232 0)
(10.0546 -0.0706816 0)
(10.0626 0.0119174 0)
(10.0289 0.0954388 0)
(9.97599 0.154384 0)
(9.92369 0.186535 0)
(9.88157 0.203092 0)
(9.85061 0.21202 0)
(9.82956 0.21613 0)
(9.82002 0.213988 0)
(9.82669 0.207557 0)
(9.85376 0.201401 0)
(9.9 0.19693 0)
(9.96173 0.203804 0)
(10.0523 0.0336702 0)
(10.0469 -0.0227712 0)
(10.0504 -0.0307284 0)
(10.0463 -0.0952185 0)
(10.041 -0.110836 0)
(10.0275 -0.0419934 0)
(10.0193 0.0653634 0)
(10.0305 0.145842 0)
(10.0607 0.169809 0)
(10.1054 0.152631 0)
(10.1579 0.125772 0)
(10.2086 0.110053 0)
(10.2485 0.109564 0)
(10.2727 0.11777 0)
(10.2778 0.127306 0)
(10.2698 0.136682 0)
(10.2505 0.146923 0)
(10.2313 0.164591 0)
(10.0328 0.00842948 0)
(10.0332 0.0186207 0)
(10.0659 -0.0345393 0)
(10.0337 -0.078119 0)
(9.96767 -0.0756565 0)
(9.92131 -0.0393944 0)
(9.92996 0.0117315 0)
(9.97775 0.053473 0)
(10.0307 0.0753818 0)
(10.0625 0.0866238 0)
(10.0639 0.101468 0)
(10.0429 0.128279 0)
(10.0127 0.16545 0)
(9.98503 0.206164 0)
(9.96363 0.240354 0)
(9.951 0.263328 0)
(9.94335 0.271996 0)
(9.94243 0.27007 0)
(10.098 -0.129651 0)
(10.0524 -0.078704 0)
(10.0516 -0.0406839 0)
(10.0639 -0.0138005 0)
(10.0316 -0.00174967 0)
(9.99612 -0.0096871 0)
(9.99663 -0.0174904 0)
(10.0209 -0.000776748 0)
(10.0481 0.0431875 0)
(10.0692 0.0979929 0)
(10.0825 0.144858 0)
(10.0923 0.172315 0)
(10.1054 0.179159 0)
(10.125 0.170981 0)
(10.15 0.156836 0)
(10.1734 0.144765 0)
(10.1923 0.140262 0)
(10.1986 0.147307 0)
(10.1829 -0.141931 0)
(10.1809 -0.0752132 0)
(10.246 -0.0254994 0)
(10.2803 0.00996351 0)
(10.2764 0.0312778 0)
(10.2352 0.0245747 0)
(10.1959 0.00258306 0)
(10.1812 -0.00691814 0)
(10.1858 0.00939832 0)
(10.1984 0.0411383 0)
(10.2143 0.0718572 0)
(10.2301 0.0943812 0)
(10.2428 0.111643 0)
(10.251 0.131149 0)
(10.2538 0.158671 0)
(10.2508 0.194146 0)
(10.2425 0.235616 0)
(10.2315 0.275607 0)
(9.85875 -0.0170033 0)
(9.97923 -0.132998 0)
(9.95314 -0.149646 0)
(9.98844 -0.0571782 0)
(10.0572 0.0408476 0)
(10.0915 0.073375 0)
(10.0838 0.0461924 0)
(10.0637 0.0102422 0)
(10.0573 0.00289512 0)
(10.0705 0.0268289 0)
(10.0935 0.0630505 0)
(10.1125 0.0944581 0)
(10.1203 0.115598 0)
(10.1178 0.130757 0)
(10.1126 0.146558 0)
(10.1119 0.166508 0)
(10.121 0.189269 0)
(10.1422 0.211678 0)
(10.3445 -0.042507 0)
(10.3535 -0.0568708 0)
(10.2154 -0.0919062 0)
(10.1452 -0.101144 0)
(10.1546 -0.0443054 0)
(10.1603 0.0281939 0)
(10.1181 0.059415 0)
(10.0489 0.0421139 0)
(9.99226 0.0101051 0)
(9.97352 -0.000234104 0)
(9.99504 0.0234414 0)
(10.0412 0.0705874 0)
(10.0933 0.121756 0)
(10.1397 0.160763 0)
(10.1789 0.180035 0)
(10.2123 0.181862 0)
(10.2438 0.170784 0)
(10.2745 0.157278 0)
(10.0933 0.100067 0)
(10.1605 0.0854187 0)
(10.2185 0.0138698 0)
(10.1854 -0.0272701 0)
(10.1094 0.000668048 0)
(10.0762 0.0832323 0)
(10.094 0.149394 0)
(10.1248 0.14634 0)
(10.1441 0.084215 0)
(10.1496 0.0092689 0)
(10.1527 -0.0401752 0)
(10.1653 -0.0535151 0)
(10.1912 -0.0375784 0)
(10.2283 -0.00588514 0)
(10.2693 0.027994 0)
(10.3081 0.0576588 0)
(10.341 0.0802855 0)
(10.3684 0.0965348 0)
(10.0699 -0.0222426 0)
(10.1186 -0.119991 0)
(10.1438 -0.0711907 0)
(10.1467 0.00622689 0)
(10.1476 0.0528734 0)
(10.1798 0.0635338 0)
(10.234 0.0472867 0)
(10.284 0.0210456 0)
(10.3146 0.00142402 0)
(10.3257 -0.00459452 0)
(10.3224 0.00151842 0)
(10.3131 0.0148948 0)
(10.3023 0.0307978 0)
(10.2895 0.0473379 0)
(10.2744 0.061056 0)
(10.261 0.0702193 0)
(10.2503 0.0728374 0)
(10.2473 0.0692663 0)
(10.0652 0.0565524 0)
(9.99098 0.0297516 0)
(9.87967 0.00190487 0)
(9.79661 -0.0208066 0)
(9.8348 -0.0152608 0)
(9.94111 0.0128621 0)
(10.0434 0.0403505 0)
(10.1069 0.0470065 0)
(10.1345 0.0284996 0)
(10.1439 -0.00224645 0)
(10.1503 -0.0259456 0)
(10.1612 -0.0280111 0)
(10.1789 -0.00757514 0)
(10.2026 0.0269181 0)
(10.2294 0.0622398 0)
(10.2547 0.0878609 0)
(10.2773 0.0986882 0)
(10.2914 0.0949116 0)
(10.0319 -0.071109 0)
(10.0813 0.0454991 0)
(10.0985 0.0503547 0)
(10.05 -0.00848334 0)
(9.97513 -0.0691852 0)
(9.9209 -0.086732 0)
(9.91551 -0.0700448 0)
(9.95767 -0.0419993 0)
(10.0268 -0.0213597 0)
(10.0969 -0.0131524 0)
(10.1512 -0.0124698 0)
(10.1883 -0.0127956 0)
(10.2171 -0.00911257 0)
(10.2453 -0.00125927 0)
(10.2773 0.00926354 0)
(10.3126 0.0207714 0)
(10.3491 0.032603 0)
(10.3821 0.0456292 0)
(10.0034 -0.0521852 0)
(9.99987 0.0157959 0)
(9.989 0.0577162 0)
(9.98059 0.0725099 0)
(9.97351 0.0715946 0)
(9.97825 0.0452081 0)
(10.0088 0.00182323 0)
(10.0631 -0.0426531 0)
(10.1245 -0.0772667 0)
(10.1766 -0.0965687 0)
(10.2104 -0.0979058 0)
(10.2254 -0.0827366 0)
(10.2271 -0.0571504 0)
(10.2222 -0.0286623 0)
(10.2153 -0.00334048 0)
(10.2108 0.0157236 0)
(10.2097 0.027442 0)
(10.215 0.033347 0)
(9.8612 -0.0686337 0)
(9.80946 0.0179807 0)
(9.8513 0.0228417 0)
(9.96534 -0.00984545 0)
(10.1095 -0.0532557 0)
(10.2206 -0.0936694 0)
(10.2688 -0.112932 0)
(10.2549 -0.11016 0)
(10.2037 -0.0941781 0)
(10.1452 -0.0733771 0)
(10.0996 -0.0515293 0)
(10.0756 -0.0301027 0)
(10.0745 -0.0107589 0)
(10.0925 0.0045839 0)
(10.1239 0.0151877 0)
(10.1619 0.021578 0)
(10.2016 0.0245999 0)
(10.2375 0.0264766 0)
(10.1067 0.0500751 0)
(10.0725 0.0749251 0)
(10.1027 0.0120058 0)
(10.1252 -0.0302818 0)
(10.1529 -0.0425092 0)
(10.1819 -0.0356954 0)
(10.1977 -0.0215859 0)
(10.1978 -0.0132586 0)
(10.1924 -0.0189329 0)
(10.1919 -0.0353803 0)
(10.1987 -0.0523761 0)
(10.2109 -0.0617445 0)
(10.228 -0.0615986 0)
(10.2508 -0.0548744 0)
(10.2812 -0.0450371 0)
(10.3189 -0.0347053 0)
(10.3635 -0.0248394 0)
(10.4113 -0.0154008 0)
(9.97416 0.00635104 0)
(10.1702 0.0343184 0)
(10.3059 -0.00487374 0)
(10.3431 -0.051453 0)
(10.314 -0.0952954 0)
(10.2794 -0.118042 0)
(10.2796 -0.115456 0)
(10.3026 -0.100579 0)
(10.3153 -0.0855242 0)
(10.2991 -0.0732927 0)
(10.2598 -0.0616401 0)
(10.2183 -0.0497253 0)
(10.1927 -0.0398781 0)
(10.1902 -0.0352243 0)
(10.2069 -0.0360809 0)
(10.2349 -0.0401622 0)
(10.2653 -0.0444891 0)
(10.2931 -0.0464924 0)
(9.72393 -0.0328903 0)
(9.76898 -0.0194412 0)
(9.76047 -0.0217751 0)
(9.68056 -0.0150225 0)
(9.52227 -0.0141508 0)
(9.30814 -0.0247627 0)
(9.08089 -0.0351615 0)
(8.87749 -0.0343252 0)
(8.7153 -0.0254329 0)
(8.59025 -0.0191175 0)
(8.48697 -0.0216343 0)
(8.39155 -0.0318607 0)
(8.29492 -0.0449163 0)
(8.1932 -0.05586 0)
(8.08486 -0.0609488 0)
(7.97624 -0.0594614 0)
(7.87063 -0.0519556 0)
(7.78047 -0.0411966 0)
(-0.271658 0.660968 5.7057e-20)
(-0.706781 0.0635031 -5.65555e-20)
(-0.930883 -0.0977278 0)
(-0.703588 -0.556486 0)
(-0.284806 -0.721982 0)
(0.377125 -0.84725 5.5095e-20)
(1.08811 -0.875306 0)
(1.78253 -0.836159 0)
(2.44876 -0.757973 0)
(3.05544 -0.659473 0)
(3.5845 -0.554991 -5.20676e-20)
(4.03337 -0.454191 0)
(4.40594 -0.359482 0)
(4.70621 -0.274217 0)
(4.9426 -0.196597 0)
(5.11703 -0.126076 -4.92305e-20)
(5.24141 -0.0622169 0)
(5.30997 0.00302204 0)
(5.33648 0.063338 0)
(5.3028 0.140835 0)
(5.20068 0.214842 0)
(5.03104 0.323579 0)
(4.73628 0.440539 0)
(4.37665 0.590064 -4.66119e-20)
(3.77637 0.791286 4.64676e-20)
(3.13465 0.896092 -4.63394e-20)
(2.17453 1.34263 -4.61849e-20)
(0.867757 0.87559 0)
(0.196414 -0.337736 0)
(-0.243414 -0.429009 4.52567e-20)
(-0.479762 -0.157894 4.48526e-20)
(-0.415967 -0.0831278 0)
(-0.223005 -0.0975357 0)
(0.0352456 -0.187839 4.37607e-20)
(0.330623 -0.295728 0)
(0.620789 -0.349972 0)
(0.880335 -0.320578 -4.23955e-20)
(1.07224 -0.314433 0)
(1.11357 -0.454529 -4.14671e-20)
(0.935777 -0.541786 -8.21265e-20)
(0.532835 -0.0333089 0)
(-0.261864 0.763978 0)
(-1.29906 0.950436 0)
(-2.1809 0.791596 0)
(-2.87126 0.613118 0)
(-3.41883 0.443544 -7.6036e-20)
(-3.82472 0.30923 -7.47269e-20)
(-4.11556 0.193946 -7.34375e-20)
(-4.29287 0.0976979 0)
(-4.37209 0.0147471 7.09638e-20)
(-4.34749 -0.0539276 0)
(-4.22727 -0.110963 -6.86255e-20)
(-4.02587 -0.166371 -6.75048e-20)
(-3.74126 -0.218129 0)
(-3.38018 -0.264668 0)
(-2.95229 -0.307052 0)
(-2.46602 -0.344374 -6.30901e-20)
(-1.93333 -0.373845 0)
(-1.36782 -0.395491 0)
(-0.780442 -0.408962 0)
(-0.180738 -0.413977 0)
(0.420955 -0.409659 0)
(1.01006 -0.393202 0)
(1.56479 -0.360078 0)
(2.05098 -0.296795 0)
(2.4247 -0.202054 5.18375e-20)
(2.63828 -0.0737386 0)
(2.64581 0.0890151 0)
(2.38305 0.273497 -5.02451e-20)
(1.82892 0.451513 -5.04175e-20)
(0.990555 0.594109 0)
(-0.0970344 0.679887 5.13999e-20)
(-1.28501 0.694997 -5.15884e-20)
(-2.38839 0.544194 0)
(-3.14777 0.223459 5.10668e-20)
(-3.23744 -0.164728 0)
(-2.75036 -0.603016 0)
(-2.37149 -1.07695 -4.95661e-20)
(-2.62001 -1.23131 0)
(-3.59243 -0.049922 4.87299e-20)
(-5.78517 1.89767 0)
(-8.70787 1.71583 -4.79777e-20)
(-10.3756 0.777811 -4.66536e-20)
(-11.4329 0.8614 -4.53854e-20)
(-12.6366 0.602634 -8.82782e-20)
(-13.3132 0.386932 8.59997e-20)
(-13.9217 0.369877 0)
(-14.4037 0.209269 0)
(-14.6803 0.164779 0)
(-14.9137 0.0937451 7.99358e-20)
(-14.9875 0.0244913 7.92017e-20)
(-14.9805 -0.0125043 -7.87691e-20)
(-14.8825 -0.0671064 0)
(-14.6953 -0.103222 7.87568e-20)
(-14.4326 -0.143447 7.91398e-20)
(-14.0837 -0.180014 7.97429e-20)
(-13.6655 -0.211532 0)
(-13.1742 -0.242814 0)
(-12.6205 -0.268051 0)
(-12.0095 -0.291348 8.35053e-20)
(-11.3471 -0.31038 0)
(-10.6419 -0.325835 0)
(-9.89784 -0.338523 -8.64705e-20)
(-9.12169 -0.347732 0)
(-8.3172 -0.354654 0)
(-7.489 -0.358918 -8.84873e-20)
(-6.64357 -0.36043 0)
(-5.78909 -0.358359 0)
(-4.93829 -0.35078 8.90397e-20)
(-4.10648 -0.336044 8.8828e-20)
(-3.3104 -0.313157 0)
(-2.56859 -0.282991 -8.77678e-20)
(-1.8988 -0.247796 0)
(-1.31423 -0.210323 8.59474e-20)
(-0.818225 -0.174438 0)
(-0.407492 -0.139881 8.36431e-20)
(-0.0712018 -0.111036 8.23999e-20)
(0.201008 -0.0890416 0)
(0.420662 -0.0709308 0)
(0.602327 -0.056514 0)
(0.755002 -0.0459162 0)
(0.885918 -0.0384994 0)
(1.00209 -0.0329498 0)
(1.10893 -0.030054 0)
(1.20975 -0.0283938 7.25655e-20)
(1.30757 -0.0272833 -7.14562e-20)
(1.40484 -0.0267819 0)
(1.50278 -0.0266215 0)
(1.60157 -0.0263591 0)
(1.70032 -0.0257163 0)
(1.79761 -0.0247094 -1.3249e-19)
(1.8925 -0.0235897 0)
(1.98515 -0.0226092 1.28552e-19)
(2.07663 -0.0217909 -1.26621e-19)
(2.16785 -0.0209551 0)
(2.25875 -0.0200769 0)
(2.34899 -0.0196812 0)
(2.43976 -0.0207504 1.1919e-19)
(2.53506 -0.0241403 1.17429e-19)
(2.64096 -0.0299553 0)
(2.76336 -0.0375705 1.14059e-19)
(2.90636 -0.0462722 1.12448e-19)
(3.07241 -0.0550247 -1.10877e-19)
(3.26252 -0.0632126 0)
(3.47745 -0.0726558 0)
(3.72198 -0.0827385 -1.06339e-19)
(3.99917 -0.0920253 0)
(4.31132 -0.105593 0)
(4.67345 -0.118694 0)
(5.08282 -0.130227 0)
(5.5413 -0.148462 9.88635e-20)
(6.06691 -0.151663 9.71887e-20)
(6.59989 -0.156492 0)
(7.17012 -0.16245 9.34085e-20)
(7.7372 -0.125349 0)
(8.18104 -0.136874 0)
(8.71595 -0.0962353 8.70099e-20)
(8.96648 -0.0290622 0)
(9.18987 -0.105226 8.30724e-20)
(9.50496 0.123846 0)
(8.86096 0.10004 0)
(9.02389 0.04755 7.93274e-20)
(8.28289 0.957442 0)
(4.84176 0.650932 7.81048e-20)
(3.15528 -0.306114 0)
(2.90864 -0.153342 0)
(2.5356 0.196231 0)
(1.4436 0.271115 -6.97906e-20)
(-0.118515 0.319099 0)
(-1.84094 0.330558 5.96019e-20)
(-3.08886 0.195834 0)
(-3.44221 0.00364498 0)
(-3.05138 -0.131159 0)
(-2.29974 -0.168709 0)
(-1.50552 -0.144881 0)
(-0.860719 -0.0930103 0)
(-0.46598 -0.0429978 0)
(-0.311025 0.00776362 -1.116e-19)
(-0.351269 0.0304472 0)
(-0.509136 -0.056645 0)
(0.173081 1.19651 -1.71093e-19)
(-0.00118604 1.16101 1.69839e-19)
(0.279056 0.288512 0)
(0.797081 -0.876048 -1.11165e-19)
(1.41703 -1.68298 0)
(2.03008 -2.07137 -5.47177e-20)
(2.58207 -2.17398 1.07839e-19)
(3.07392 -2.09334 1.06691e-19)
(3.50497 -1.91087 0)
(3.87211 -1.6829 1.04372e-19)
(4.17803 -1.44368 5.19246e-20)
(4.429 -1.21304 0)
(4.63213 -0.999612 0)
(4.79361 -0.80677 0)
(4.91772 -0.634093 0)
(5.0109 -0.478617 4.92322e-20)
(5.07428 -0.336978 0)
(5.11899 -0.199548 -9.64257e-20)
(5.13648 -0.0643056 0)
(5.14514 0.0882533 0)
(5.12691 0.254749 9.41777e-20)
(5.10028 0.460389 0)
(5.01949 0.713591 -9.29168e-20)
(4.92117 0.996981 4.65024e-20)
(4.7159 1.38143 -4.63002e-20)
(4.46366 1.70163 4.61078e-20)
(4.10111 2.15671 4.58703e-20)
(3.51752 2.41073 0)
(2.97198 2.2084 0)
(1.81186 1.59769 -4.49962e-20)
(0.799578 0.512639 4.47513e-20)
(0.361571 -0.421857 0)
(0.170332 -0.70695 0)
(0.3061 -0.78232 -4.37313e-20)
(0.427303 -0.714767 0)
(0.441101 -0.584951 0)
(0.265261 -0.518813 4.25001e-20)
(-0.111982 -0.0794603 0)
(-0.840492 0.781583 -4.15838e-20)
(-1.8234 1.41993 8.19718e-20)
(-2.57792 1.78616 0)
(-3.15083 1.91839 0)
(-3.63478 1.72715 1.57771e-19)
(-4.01443 1.45452 1.55657e-19)
(-4.35358 1.1764 1.53376e-19)
(-4.64868 0.922749 -7.52187e-20)
(-4.90044 0.692909 7.45067e-20)
(-5.1063 0.477751 2.19346e-19)
(-5.25328 0.271049 -1.43675e-19)
(-5.33789 0.0694153 -7.08158e-20)
(-5.35574 -0.121971 0)
(-5.29934 -0.302991 6.8459e-20)
(-5.1582 -0.477236 -6.70231e-20)
(-4.94094 -0.639045 0)
(-4.64721 -0.784097 0)
(-4.2842 -0.909945 0)
(-3.86381 -1.0124 6.28537e-20)
(-3.39479 -1.08938 0)
(-2.88886 -1.14206 -1.20565e-19)
(-2.35791 -1.17308 0)
(-1.81028 -1.18495 -1.15609e-19)
(-1.25378 -1.17464 0)
(-0.701007 -1.13096 1.10479e-19)
(-0.159612 -1.03435 0)
(0.332733 -0.861977 -1.05354e-19)
(0.719945 -0.596005 5.10527e-20)
(0.961798 -0.231328 0)
(1.01351 0.214537 1.00066e-19)
(0.856935 0.705262 5.03657e-20)
(0.469658 1.19292 5.05122e-20)
(-0.172155 1.6073 0)
(-1.02957 1.86693 5.05374e-20)
(-1.97915 1.87333 5.14385e-20)
(-2.83932 1.48482 0)
(-3.27873 0.688487 -5.10291e-20)
(-3.35289 -0.247077 1.01242e-19)
(-3.89916 -0.459391 0)
(-5.70685 0.899117 4.91898e-20)
(-8.6829 2.95113 0)
(-10.497 3.49846 -1.43031e-19)
(-11.0107 3.20172 0)
(-11.9976 2.6269 1.4062e-19)
(-12.6089 1.89922 4.64021e-20)
(-12.9929 1.59469 -4.37739e-20)
(-13.4704 1.208 -8.5713e-20)
(-13.7354 0.904199 8.40671e-20)
(-14.0378 0.724143 0)
(-14.2302 0.495232 0)
(-14.3791 0.340857 0)
(-14.4718 0.183287 -2.38964e-19)
(-14.4789 0.0308262 -7.92657e-20)
(-14.4465 -0.0939289 7.88279e-20)
(-14.3143 -0.226778 0)
(-14.1111 -0.344669 7.80737e-20)
(-13.829 -0.458982 -7.91767e-20)
(-13.4677 -0.566888 -7.97724e-20)
(-13.0386 -0.664117 0)
(-12.5386 -0.754534 0)
(-11.9795 -0.833031 0)
(-11.3641 -0.901899 -8.35088e-20)
(-10.7005 -0.959936 0)
(-9.99523 -1.00744 1.70573e-19)
(-9.253 -1.04603 2.58873e-19)
(-8.47934 -1.0757 -1.74029e-19)
(-7.67721 -1.09783 0)
(-6.85047 -1.11228 -8.79683e-20)
(-6.00332 -1.11802 0)
(-5.14264 -1.11227 -1.77576e-19)
(-4.27985 -1.09027 8.85948e-20)
(-3.4307 -1.04641 8.84495e-20)
(-2.6148 -0.976423 0)
(-1.85371 -0.883294 2.63088e-19)
(-1.16972 -0.773144 -1.73736e-19)
(-0.579463 -0.654492 -8.59732e-20)
(-0.0844202 -0.542179 0)
(0.318503 -0.442931 -8.36238e-20)
(0.64027 -0.358533 -2.46884e-19)
(0.897658 -0.291674 0)
(1.10447 -0.238603 -1.59382e-19)
(1.27348 -0.198107 -1.56844e-19)
(1.41478 -0.168358 -1.54356e-19)
(1.53675 -0.14739 0)
(1.64559 -0.133012 0)
(1.7461 -0.123739 0)
(1.84168 -0.118284 7.24646e-20)
(1.93481 -0.115668 7.13985e-20)
(2.02747 -0.115097 0)
(2.12064 -0.115484 1.38483e-19)
(2.21404 -0.115521 1.36411e-19)
(2.30626 -0.114129 0)
(2.39557 -0.11109 1.32393e-19)
(2.48115 -0.107364 2.60799e-19)
(2.56404 -0.104417 -1.28463e-19)
(2.64688 -0.102892 -1.26503e-19)
(2.7323 -0.102044 0)
(2.8215 -0.10077 0)
(2.91443 -0.0994173 0)
(3.01167 -0.100238 -1.19111e-19)
(3.11632 -0.105772 1.17287e-19)
(3.23338 -0.117042 2.31209e-19)
(3.36765 -0.133089 -1.13976e-19)
(3.52222 -0.151702 1.12304e-19)
(3.69718 -0.171461 1.1079e-19)
(3.89288 -0.192068 0)
(4.11208 -0.214051 0)
(4.35502 -0.239769 -1.06181e-19)
(4.6293 -0.268942 0)
(4.94325 -0.303507 0)
(5.29818 -0.34633 2.03597e-19)
(5.71401 -0.388941 0)
(6.18218 -0.433805 9.86817e-20)
(6.70506 -0.470036 -9.70826e-20)
(7.27993 -0.482107 0)
(7.84626 -0.486693 9.31729e-20)
(8.43914 -0.449786 0)
(8.95899 -0.400519 0)
(9.42592 -0.346741 -8.69203e-20)
(9.84109 -0.222483 1.69537e-19)
(10.0477 -0.164035 -8.29992e-20)
(10.2954 -0.0111383 0)
(10.253 0.248171 0)
(10.1827 0.305816 7.83196e-20)
(9.88914 0.900607 0)
(9.62683 1.85198 7.62385e-20)
(8.22212 1.53271 0)
(4.93276 0.46494 0)
(3.61615 0.504982 0)
(2.77038 1.02105 6.96427e-20)
(1.03941 1.23902 0)
(-0.839396 1.13826 -5.95807e-20)
(-2.10774 0.660614 0)
(-2.45678 0.00429061 0)
(-2.04416 -0.454235 1.06232e-19)
(-1.24686 -0.604368 -1.09811e-19)
(-0.386681 -0.543742 0)
(0.32476 -0.383497 0)
(0.790073 -0.202896 0)
(0.966773 -0.0582927 3.34928e-19)
(0.950172 0.0478083 0)
(0.829309 0.0334017 -2.13822e-19)
(-0.0366173 0.507828 -1.22752e-22)
(0.312842 0.0305956 -2.26289e-19)
(1.15914 -1.47198 0)
(1.91546 -2.61008 2.21077e-19)
(2.46447 -3.14914 0)
(2.81772 -3.23331 0)
(3.04946 -3.04177 -5.98633e-22)
(3.21236 -2.71116 -1.06552e-19)
(3.3311 -2.33216 -1.04886e-19)
(3.41987 -1.95676 -1.04452e-19)
(3.49112 -1.61024 0)
(3.55416 -1.30143 0)
(3.61324 -1.03042 1.00921e-19)
(3.66851 -0.793986 1.99954e-19)
(3.71745 -0.587752 -1.98118e-19)
(3.76004 -0.408906 0)
(3.79814 -0.254863 -1.94626e-19)
(3.83873 -0.114326 9.67561e-20)
(3.87397 0.0200181 0)
(3.91408 0.167397 -1.89798e-19)
(3.95416 0.338912 -9.4475e-20)
(4.00424 0.555384 1.86746e-19)
(4.04885 0.840211 9.31337e-20)
(4.08683 1.18378 0)
(4.09958 1.62208 -1.82728e-19)
(4.08053 2.07348 -1.81599e-19)
(4.03098 2.57202 0)
(3.85945 2.97484 -1.79695e-19)
(3.64817 3.12917 0)
(3.03959 2.95983 -1.78527e-19)
(2.32467 2.22653 -8.90264e-20)
(1.58756 1.1671 0)
(0.819457 0.0703876 0)
(0.408715 -0.533521 0)
(0.0283195 -0.409675 0)
(-0.399608 -0.0465639 0)
(-1.12873 0.711663 0)
(-2.0012 1.53677 -1.6774e-19)
(-2.75127 2.08394 2.47952e-19)
(-3.3882 2.36932 0)
(-3.82149 2.45835 0)
(-4.13669 2.38129 0)
(-4.40256 2.15543 -7.14932e-22)
(-4.68743 1.89928 -1.55303e-19)
(-5.00653 1.62563 -3.05296e-19)
(-5.33658 1.34895 3.00571e-19)
(-5.64596 1.06233 1.47519e-19)
(-5.90993 0.769563 -1.45781e-19)
(-6.1169 0.475059 6.25628e-22)
(-6.25932 0.181962 -1.40408e-19)
(-6.33035 -0.110669 0)
(-6.33093 -0.400947 -1.35734e-19)
(-6.25855 -0.680217 5.73963e-22)
(-6.11132 -0.943568 0)
(-5.89252 -1.18353 0)
(-5.60681 -1.39171 1.26551e-19)
(-5.26209 -1.56223 0)
(-4.87064 -1.69082 0)
(-4.44557 -1.77928 -1.18649e-19)
(-3.99929 -1.83495 -2.33742e-19)
(-3.54098 -1.8641 1.15103e-19)
(-3.07596 -1.86501 0)
(-2.61042 -1.8186 -1.09965e-19)
(-2.15744 -1.68678 0)
(-1.74701 -1.4345 -1.03157e-19)
(-1.42018 -1.02186 -1.02832e-19)
(-1.21876 -0.445883 2.00243e-19)
(-1.18665 0.253089 9.79725e-20)
(-1.33463 1.00341 0)
(-1.65929 1.73507 -1.97548e-19)
(-2.1497 2.37331 0)
(-2.76736 2.797 -3.02562e-19)
(-3.4071 2.76159 -2.02986e-19)
(-3.93297 2.01422 -2.03876e-19)
(-4.36028 0.852592 2.03352e-19)
(-5.3959 0.714578 -3.01943e-19)
(-7.66171 2.41373 0)
(-9.82816 3.85025 0)
(-10.9983 4.06793 1.90926e-19)
(-11.5279 3.96041 2.82281e-19)
(-11.533 3.58562 0)
(-11.6745 2.90009 -9.30012e-20)
(-11.8743 2.2824 0)
(-12.1059 1.92326 2.64453e-19)
(-12.426 1.49675 2.20015e-21)
(-12.711 1.19384 -1.85966e-21)
(-12.9939 0.945692 -1.65038e-19)
(-13.2055 0.670278 0)
(-13.3669 0.462287 1.59833e-19)
(-13.4531 0.232706 1.22352e-21)
(-13.4571 0.0213593 0)
(-13.3966 -0.182836 0)
(-13.2543 -0.392707 0)
(-13.0405 -0.583596 -1.57064e-19)
(-12.7507 -0.772777 0)
(-12.3897 -0.947237 0)
(-11.9625 -1.10788 0)
(-11.4718 -1.25488 0)
(-10.9264 -1.3831 0)
(-10.3311 -1.49547 -1.65708e-19)
(-9.69422 -1.58982 0)
(-9.02237 -1.66798 -1.70632e-19)
(-8.3206 -1.73191 -1.72455e-19)
(-7.59303 -1.7831 1.74054e-19)
(-6.84126 -1.82367 0)
(-6.0659 -1.85345 1.76426e-19)
(-5.26668 -1.87064 0)
(-4.44541 -1.86956 1.77538e-19)
(-3.60751 -1.84145 -1.77569e-19)
(-2.76368 -1.77563 -5.30336e-19)
(-1.93393 -1.66037 0)
(-1.14104 -1.50019 -5.25023e-19)
(-0.419705 -1.30476 -1.73036e-19)
(0.20248 -1.09828 0)
(0.716184 -0.901838 -3.38308e-19)
(1.12903 -0.727563 -3.33357e-19)
(1.45428 -0.578817 4.92599e-19)
(1.70726 -0.459747 0)
(1.90336 -0.368218 1.59184e-19)
(2.05679 -0.300621 1.5666e-19)
(2.17961 -0.252486 4.62329e-19)
(2.28156 -0.219499 0)
(2.37011 -0.197433 0)
(2.4505 -0.183156 0)
(2.52652 -0.174551 1.44699e-19)
(2.60106 -0.169946 0)
(2.67662 -0.167798 0)
(2.75468 -0.166356 -1.38365e-19)
(2.83417 -0.163727 -1.36298e-19)
(2.91058 -0.158749 0)
(2.97733 -0.151957 0)
(3.02967 -0.145646 -2.60616e-19)
(3.06808 -0.142419 0)
(3.09802 -0.143107 2.52894e-19)
(3.12652 -0.146043 2.49052e-19)
(3.15874 -0.148892 0)
(3.19753 -0.151829 0)
(3.24592 -0.158414 -2.37997e-19)
(3.3094 -0.172681 -1.01005e-22)
(3.39506 -0.19558 -1.06274e-22)
(3.50829 -0.224739 0)
(3.6508 -0.256373 -4.49096e-19)
(3.82171 -0.288041 0)
(4.01876 -0.320391 0)
(4.24192 -0.355385 0)
(4.49503 -0.39653 2.12343e-19)
(4.78126 -0.445785 0)
(5.1089 -0.504731 -4.1262e-19)
(5.48524 -0.578088 -2.0348e-19)
(5.9154 -0.654959 0)
(6.40836 -0.731938 -1.97301e-19)
(6.95383 -0.797145 0)
(7.53844 -0.819102 0)
(8.14366 -0.824255 -5.58511e-19)
(8.73354 -0.769253 3.63711e-19)
(9.28151 -0.677567 0)
(9.77959 -0.590765 3.46139e-19)
(10.1519 -0.395208 -1.69431e-19)
(10.492 -0.271755 0)
(10.6468 -0.0628989 0)
(10.6611 0.263422 0)
(10.7492 0.451814 -4.70298e-19)
(10.1932 0.958099 0)
(10.255 1.7883 -1.53756e-19)
(10.5358 2.31684 0)
(8.5517 2.05444 0)
(5.30585 1.3609 0)
(3.53443 1.63417 0)
(1.99501 2.10153 0)
(0.110735 1.87272 0)
(-1.24586 1.0803 -2.09925e-19)
(-1.62036 0.0106267 0)
(-1.23415 -0.783197 -1.06247e-19)
(-0.505661 -1.02413 3.28887e-19)
(0.281227 -0.925416 0)
(0.938603 -0.663909 0)
(1.39181 -0.35055 -2.2671e-19)
(1.52956 -0.0742775 -2.23271e-19)
(1.43368 0.0993305 2.19205e-19)
(1.16301 0.0981965 2.13731e-19)
(0.025424 0.520578 3.42347e-19)
(0.838332 -1.70701 3.38629e-19)
(1.60829 -3.17731 2.22683e-19)
(2.09694 -3.71055 1.09677e-19)
(2.32881 -3.66871 0)
(2.41147 -3.35619 -2.15347e-19)
(2.4327 -2.94522 1.06177e-19)
(2.43974 -2.52696 0)
(2.45915 -2.14904 1.05146e-19)
(2.50603 -1.82688 0)
(2.5829 -1.55428 -2.0555e-19)
(2.68214 -1.31786 0)
(2.79266 -1.10454 -1.01135e-19)
(2.903 -0.905907 -2.00347e-19)
(3.00186 -0.722991 1.98485e-19)
(3.08256 -0.561913 0)
(3.14505 -0.421959 1.94959e-19)
(3.19245 -0.292567 0)
(3.22548 -0.163773 0)
(3.25504 -0.0218254 1.90151e-19)
(3.2871 0.145138 0)
(3.33363 0.366598 -7.21314e-22)
(3.38522 0.676384 0)
(3.42152 1.06426 0)
(3.43797 1.53723 9.92785e-22)
(3.43123 2.05797 1.81843e-19)
(3.42085 2.61546 1.79701e-19)
(3.34714 3.14454 1.79818e-19)
(3.26798 3.51926 0)
(2.99237 3.60623 3.56134e-19)
(2.51924 3.18225 0)
(1.81175 2.29663 1.77353e-19)
(1.06284 1.15137 0)
(0.403921 0.465046 0)
(-0.296855 0.618876 -1.74405e-19)
(-1.09393 1.25007 0)
(-2.0227 2.06213 1.69688e-19)
(-2.80271 2.64003 -3.19807e-24)
(-3.36121 2.8946 -3.29608e-19)
(-3.77477 2.96295 3.24793e-19)
(-4.08548 2.91428 0)
(-4.3933 2.79727 0)
(-4.73497 2.63147 1.54942e-19)
(-5.11234 2.42368 0)
(-5.48885 2.15313 1.51986e-19)
(-5.8365 1.83107 -1.49645e-19)
(-6.14173 1.47641 -1.4727e-19)
(-6.40849 1.11029 0)
(-6.63971 0.742312 1.42525e-19)
(-6.8302 0.369598 1.40199e-19)
(-6.9698 -0.0122422 -2.74097e-19)
(-7.05264 -0.396818 1.35535e-19)
(-7.07693 -0.771659 1.33185e-19)
(-7.03846 -1.13197 0)
(-6.93087 -1.46619 0)
(-6.75608 -1.7591 -1.26197e-19)
(-6.51994 -1.99808 0)
(-6.23413 -2.17468 0)
(-5.91608 -2.28959 2.3787e-19)
(-5.5842 -2.35355 2.32847e-19)
(-5.25362 -2.38183 0)
(-4.93283 -2.37978 0)
(-4.62489 -2.3254 0)
(-4.33411 -2.16366 0)
(-4.0734 -1.82673 2.07103e-19)
(-3.86568 -1.27218 -2.01608e-19)
(-3.74745 -0.513522 -1.9928e-19)
(-3.76079 0.388751 -3.93368e-19)
(-3.89311 1.33748 0)
(-4.122 2.24008 7.09505e-22)
(-4.44266 2.99485 0)
(-4.79819 3.43046 2.00301e-19)
(-5.08553 3.24955 1.16932e-21)
(-5.37416 2.46421 2.03132e-19)
(-6.24254 2.11968 -2.02325e-19)
(-8.10208 3.21236 1.41239e-21)
(-9.92438 4.54861 0)
(-10.785 4.79719 -1.91802e-19)
(-10.8604 4.27292 -1.90787e-19)
(-10.8111 3.90728 -3.73868e-19)
(-10.7786 3.56599 0)
(-10.819 2.99102 1.80038e-19)
(-11.0037 2.54772 0)
(-11.2288 2.21911 -3.48867e-19)
(-11.4692 1.79743 1.71942e-19)
(-11.7067 1.47377 -1.68472e-19)
(-11.9084 1.16364 1.65267e-19)
(-12.0523 0.831051 3.21803e-19)
(-12.1467 0.549456 -1.60114e-19)
(-12.1721 0.250819 1.58303e-19)
(-12.1327 -0.0342567 0)
(-12.0341 -0.311784 -3.09841e-19)
(-11.862 -0.588962 0)
(-11.6238 -0.84927 -3.10042e-19)
(-11.3182 -1.10116 3.11678e-19)
(-10.9468 -1.33601 3.14206e-19)
(-10.5147 -1.55125 -3.17464e-19)
(-10.026 -1.74582 -3.21277e-19)
(-9.48827 -1.91548 0)
(-8.90897 -2.06104 -1.63881e-19)