/*--------------------------------*- C++ -*----------------------------------*\
  =========                 |
  \\      /  F ield         | OpenFOAM: The Open Source CFD Toolbox
   \\    /   O peration     | Website:  https://openfoam.org
    \\  /    A nd           | Version:  9
     \\/     M anipulation  |
\*---------------------------------------------------------------------------*/
FoamFile
{
    format      ascii;
    class       volVectorField;
    location    "0.067";
    object      UMean;
}
// * * * * * * * * * * * * * * * * * * * * * * * * * * * * * * * * * * * * * //

dimensions      [0 1 -1 0 0 0 0];

internalField   nonuniform List<vector> 
12225
(
(9.84385 0.0472894 0)
(9.54876 0.0632263 0)
(9.24854 0.0609823 0)
(8.94383 0.0594471 0)
(8.64309 0.0588474 0)
(8.35144 0.0581566 0)
(8.06868 0.0570908 0)
(7.79535 0.0562346 0)
(7.52752 0.0552808 0)
(7.26808 0.0552583 0)
(7.00763 0.0549027 0)
(6.75658 0.0566705 0)
(6.49032 0.0572136 0)
(6.24057 0.0626585 0)
(5.9427 0.0651244 0)
(5.68448 0.0785932 0)
(5.306 0.0868539 0)
(5.0186 0.118734 0)
(10.0365 0.0494182 0)
(10.0956 0.0726259 0)
(10.1329 0.0724772 0)
(10.1444 0.073893 0)
(10.138 0.0775452 0)
(10.1205 0.081199 0)
(10.0937 0.0843487 0)
(10.0595 0.0873923 0)
(10.0164 0.0905964 0)
(9.96689 0.0943111 0)
(9.90734 0.0987899 0)
(9.84258 0.104382 0)
(9.76397 0.112086 0)
(9.68095 0.121613 0)
(9.57589 0.136876 0)
(9.46632 0.154449 0)
(9.32171 0.186945 0)
(9.16931 0.219436 0)
(10.0204 0.0341351 0)
(10.0516 0.0558574 0)
(10.0792 0.0589183 0)
(10.0951 0.0613758 0)
(10.1034 0.0663536 0)
(10.109 0.0717052 0)
(10.1132 0.0761974 0)
(10.1157 0.0806132 0)
(10.1158 0.0850411 0)
(10.1129 0.0906944 0)
(10.1073 0.0968633 0)
(10.098 0.105524 0)
(10.086 0.115486 0)
(10.069 0.130121 0)
(10.0505 0.14846 0)
(10.026 0.17497 0)
(10.0056 0.210408 0)
(9.98172 0.252791 0)
(10.0016 0.0271099 0)
(10.0244 0.0567519 0)
(10.0466 0.0630626 0)
(10.0598 0.065315 0)
(10.0655 0.069831 0)
(10.0682 0.0753372 0)
(10.07 0.0804567 0)
(10.0712 0.0852578 0)
(10.0711 0.0903303 0)
(10.0691 0.0961994 0)
(10.0652 0.103395 0)
(10.0592 0.112346 0)
(10.0517 0.123921 0)
(10.0423 0.138881 0)
(10.033 0.158855 0)
(10.025 0.184875 0)
(10.0217 0.217389 0)
(10.0274 0.253331 0)
(10.0132 0.023236 0)
(10.0285 0.0491921 0)
(10.0451 0.0571704 0)
(10.0559 0.0603007 0)
(10.0604 0.0650857 0)
(10.0616 0.0710617 0)
(10.0617 0.0766948 0)
(10.0611 0.0820309 0)
(10.0593 0.0876182 0)
(10.0559 0.0942283 0)
(10.0509 0.102246 0)
(10.0444 0.112249 0)
(10.0366 0.124766 0)
(10.0282 0.140563 0)
(10.0196 0.160548 0)
(10.0135 0.185153 0)
(10.0105 0.213569 0)
(10.0143 0.242808 0)
(10.0021 0.0182734 0)
(10.0158 0.0456981 0)
(10.0314 0.0564743 0)
(10.0427 0.0608546 0)
(10.0486 0.0657164 0)
(10.0513 0.0719586 0)
(10.0527 0.0784051 0)
(10.0533 0.0846435 0)
(10.0525 0.0910655 0)
(10.05 0.0983042 0)
(10.0458 0.10688 0)
(10.0404 0.117366 0)
(10.034 0.130264 0)
(10.0274 0.146211 0)
(10.0213 0.165573 0)
(10.0172 0.188453 0)
(10.0157 0.213556 0)
(10.0188 0.239119 0)
(9.99428 0.0151875 0)
(10.0023 0.0405045 0)
(10.0143 0.0529214 0)
(10.025 0.0588444 0)
(10.0312 0.0639405 0)
(10.0341 0.0699664 0)
(10.0356 0.0764763 0)
(10.0365 0.0831042 0)
(10.0364 0.0901017 0)
(10.035 0.0980362 0)
(10.0321 0.107375 0)
(10.028 0.118576 0)
(10.0231 0.131991 0)
(10.0181 0.148067 0)
(10.0136 0.16685 0)
(10.011 0.188321 0)
(10.0104 0.211285 0)
(10.0136 0.234868 0)
(9.99998 0.0144785 0)
(10.0068 0.0357655 0)
(10.0173 0.0492058 0)
(10.0273 0.056673 0)
(10.034 0.0625204 0)
(10.0373 0.0689992 0)
(10.0385 0.0761603 0)
(10.0387 0.0836156 0)
(10.038 0.0914052 0)
(10.0363 0.10001 0)
(10.0334 0.109919 0)
(10.0298 0.121584 0)
(10.0256 0.135255 0)
(10.0217 0.151218 0)
(10.0184 0.16934 0)
(10.0166 0.189533 0)
(10.0167 0.210843 0)
(10.0193 0.232773 0)
(10 0.0122878 0)
(10.0048 0.0324584 0)
(10.0123 0.0464326 0)
(10.0205 0.0550656 0)
(10.0273 0.0615225 0)
(10.0317 0.0681242 0)
(10.0343 0.0754146 0)
(10.0356 0.0832052 0)
(10.0359 0.0914909 0)
(10.0352 0.100616 0)
(10.0335 0.110986 0)
(10.0311 0.122967 0)
(10.0284 0.136699 0)
(10.026 0.15235 0)
(10.0242 0.169749 0)
(10.0237 0.188829 0)
(10.0245 0.208842 0)
(10.0274 0.229521 0)
(9.99005 0.0112475 0)
(9.99364 0.0289562 0)
(10.0001 0.0425952 0)
(10.0077 0.0518666 0)
(10.0144 0.0590062 0)
(10.0193 0.0661217 0)
(10.0223 0.0739527 0)
(10.0242 0.0824515 0)
(10.0251 0.0915043 0)
(10.0252 0.101311 0)
(10.0247 0.11217 0)
(10.0238 0.124419 0)
(10.0227 0.138181 0)
(10.022 0.153601 0)
(10.0219 0.170455 0)
(10.023 0.188682 0)
(10.0251 0.207628 0)
(10.0289 0.227208 0)
(9.9912 0.0114894 0)
(9.9947 0.0278577 0)
(9.99965 0.0407509 0)
(10.0056 0.0501631 0)
(10.0108 0.0576962 0)
(10.0145 0.0650147 0)
(10.0167 0.0729675 0)
(10.0181 0.0816655 0)
(10.0191 0.0910244 0)
(10.0197 0.101149 0)
(10.0198 0.112225 0)
(10.0197 0.124509 0)
(10.0195 0.138062 0)
(10.0197 0.153025 0)
(10.0206 0.169168 0)
(10.0227 0.186519 0)
(10.0258 0.204458 0)
(10.0305 0.22312 0)
(9.99615 0.00790069 0)
(9.99727 0.0247167 0)
(10.0014 0.0370854 0)
(10.0074 0.0470657 0)
(10.013 0.0556327 0)
(10.0169 0.063706 0)
(10.0193 0.0720201 0)
(10.021 0.08093 0)
(10.0226 0.0905368 0)
(10.0242 0.100955 0)
(10.0259 0.112287 0)
(10.0273 0.1247 0)
(10.0287 0.138172 0)
(10.0302 0.152787 0)
(10.0321 0.168295 0)
(10.0347 0.184786 0)
(10.0384 0.201701 0)
(10.0431 0.219332 0)
(10.0007 0.0111567 0)
(10.0017 0.0236104 0)
(10.0053 0.0354145 0)
(10.0107 0.0454713 0)
(10.0161 0.0541643 0)
(10.0206 0.0623853 0)
(10.0242 0.0707435 0)
(10.0271 0.0795493 0)
(10.0299 0.0889432 0)
(10.0327 0.0991519 0)
(10.0356 0.110332 0)
(10.0386 0.122647 0)
(10.0417 0.13602 0)
(10.0451 0.150449 0)
(10.0489 0.165598 0)
(10.0532 0.18152 0)
(10.0583 0.197674 0)
(10.064 0.214416 0)
(10.0131 0.0104607 0)
(10.0164 0.0208327 0)
(10.0206 0.0324137 0)
(10.0255 0.0427462 0)
(10.0303 0.0516985 0)
(10.0347 0.0601293 0)
(10.0384 0.0687149 0)
(10.0415 0.0777495 0)
(10.0442 0.0873591 0)
(10.0468 0.0976924 0)
(10.0496 0.108839 0)
(10.0528 0.120918 0)
(10.0564 0.133848 0)
(10.0608 0.147671 0)
(10.0658 0.162087 0)
(10.0715 0.1772 0)
(10.078 0.192459 0)
(10.0852 0.208301 0)
(9.99847 0.00558594 0)
(10.002 0.0185654 0)
(10.0055 0.0293217 0)
(10.0095 0.0389618 0)
(10.0141 0.0481175 0)
(10.0188 0.057089 0)
(10.0232 0.066014 0)
(10.0274 0.0750728 0)
(10.0317 0.0844571 0)
(10.0362 0.0943865 0)
(10.041 0.10495 0)
(10.0463 0.116274 0)
(10.0519 0.128291 0)
(10.0581 0.141098 0)
(10.0648 0.154448 0)
(10.0721 0.168508 0)
(10.08 0.182735 0)
(10.0886 0.197608 0)
(10.0274 0.00493053 0)
(10.0274 0.0172868 0)
(10.0287 0.0265098 0)
(10.032 0.0350837 0)
(10.0365 0.0439123 0)
(10.0417 0.052799 0)
(10.0468 0.0614981 0)
(10.0519 0.0701531 0)
(10.0568 0.079094 0)
(10.0619 0.0886489 0)
(10.0671 0.0988949 0)
(10.0725 0.109879 0)
(10.0782 0.121424 0)
(10.0843 0.133583 0)
(10.0909 0.14606 0)
(10.0982 0.159081 0)
(10.106 0.172082 0)
(10.1148 0.185653 0)
(9.9859 0.00670333 0)
(9.98357 0.0151415 0)
(9.98352 0.0233752 0)
(9.98659 0.0317526 0)
(9.99168 0.0400611 0)
(9.99765 0.0482166 0)
(10.0038 0.0563312 0)
(10.0101 0.0646131 0)
(10.0164 0.0732322 0)
(10.0229 0.0823352 0)
(10.0297 0.0918912 0)
(10.037 0.101922 0)
(10.0448 0.112253 0)
(10.0533 0.122971 0)
(10.0622 0.133793 0)
(10.0719 0.145011 0)
(10.0818 0.156083 0)
(10.0928 0.167692 0)
(9.99387 0.0131162 0)
(9.99392 0.0146759 0)
(9.99585 0.0194262 0)
(9.99952 0.0256215 0)
(10.0045 0.0321419 0)
(10.0106 0.0388382 0)
(10.0174 0.0458983 0)
(10.0244 0.0534171 0)
(10.0317 0.0612956 0)
(10.0392 0.0694712 0)
(10.0471 0.077851 0)
(10.0554 0.0865176 0)
(10.064 0.095393 0)
(10.0731 0.104636 0)
(10.0826 0.113999 0)
(10.0925 0.123742 0)
(10.1028 0.133317 0)
(10.1135 0.143308 0)
(10.0019 0.00509637 0)
(10.0078 0.0094329 0)
(10.0141 0.0139892 0)
(10.0198 0.0187765 0)
(10.0253 0.0238756 0)
(10.0313 0.0293515 0)
(10.0382 0.0352529 0)
(10.0457 0.0415876 0)
(10.0536 0.048234 0)
(10.0619 0.0551068 0)
(10.0706 0.0621267 0)
(10.0796 0.0693474 0)
(10.0891 0.0766828 0)
(10.0989 0.0842109 0)
(10.109 0.091696 0)
(10.1196 0.0993159 0)
(10.1305 0.106642 0)
(10.1418 0.114152 0)
(9.99992 -0.001446 0)
(10.0026 0.003137 0)
(10.0068 0.00692511 0)
(10.0128 0.0104698 0)
(10.0198 0.0141879 0)
(10.0274 0.0182871 0)
(10.0355 0.0228464 0)
(10.0441 0.0278531 0)
(10.0532 0.0331831 0)
(10.0626 0.0387303 0)
(10.0724 0.0443853 0)
(10.0825 0.050162 0)
(10.093 0.0559786 0)
(10.1038 0.0619169 0)
(10.1149 0.067793 0)
(10.1263 0.0737704 0)
(10.1379 0.0794837 0)
(10.1499 0.085354 0)
(9.99551 -0.00081197 0)
(9.99707 -7.86643e-05 0)
(10.0014 0.000870245 0)
(10.0084 0.00274164 0)
(10.0164 0.00533192 0)
(10.0248 0.00832642 0)
(10.0334 0.0115864 0)
(10.0427 0.0151516 0)
(10.0526 0.0190838 0)
(10.063 0.0233802 0)
(10.0739 0.0278868 0)
(10.0851 0.0324897 0)
(10.0963 0.0370425 0)
(10.1077 0.041585 0)
(10.1193 0.0460248 0)
(10.131 0.0505401 0)
(10.1428 0.0549049 0)
(10.1548 0.0594534 0)
(10.0023 -0.002951 0)
(10.0036 -0.00586354 0)
(10.0077 -0.00587967 0)
(10.0145 -0.00437643 0)
(10.0231 -0.00229201 0)
(10.0325 -5.37045e-05 0)
(10.0421 0.00219992 0)
(10.0519 0.00462132 0)
(10.0619 0.00743519 0)
(10.0724 0.0107577 0)
(10.0833 0.0144826 0)
(10.0945 0.0184698 0)
(10.1059 0.0225154 0)
(10.1175 0.0265675 0)
(10.1292 0.0304761 0)
(10.1411 0.0343549 0)
(10.153 0.0379957 0)
(10.165 0.0416861 0)
(9.99723 0.00177858 0)
(10.0045 -0.00666597 0)
(10.0126 -0.0102844 0)
(10.0213 -0.0112362 0)
(10.0304 -0.0108478 0)
(10.0399 -0.00990613 0)
(10.0494 -0.0086565 0)
(10.0589 -0.00702832 0)
(10.0688 -0.00497485 0)
(10.079 -0.00255493 0)
(10.0895 9.42677e-05 0)
(10.1004 0.00287708 0)
(10.1116 0.00568987 0)
(10.123 0.0085444 0)
(10.1347 0.011346 0)
(10.1465 0.014182 0)
(10.1586 0.0168853 0)
(10.1707 0.0196702 0)
(10.0063 -0.012323 0)
(10.0147 -0.0137097 0)
(10.0254 -0.0165696 0)
(10.0372 -0.0175378 0)
(10.0489 -0.0166855 0)
(10.0599 -0.0152844 0)
(10.0703 -0.0139645 0)
(10.0807 -0.0126453 0)
(10.0914 -0.0110799 0)
(10.1025 -0.00915926 0)
(10.1138 -0.00696659 0)
(10.1253 -0.00461453 0)
(10.137 -0.00224704 0)
(10.1488 8.89186e-05 0)
(10.1608 0.00229044 0)
(10.1727 0.00444271 0)
(10.1848 0.00643053 0)
(10.1968 0.00846479 0)
(9.99651 -0.0113815 0)
(10.0002 -0.0207014 0)
(10.0089 -0.0263148 0)
(10.0204 -0.0281436 0)
(10.032 -0.0279933 0)
(10.043 -0.0273779 0)
(10.054 -0.0267437 0)
(10.0654 -0.0259775 0)
(10.0771 -0.024964 0)
(10.0889 -0.0237069 0)
(10.1008 -0.0222816 0)
(10.1127 -0.0207363 0)
(10.1247 -0.0191348 0)
(10.1368 -0.0174894 0)
(10.149 -0.0158663 0)
(10.1612 -0.0142383 0)
(10.1734 -0.0127089 0)
(10.1856 -0.0111765 0)
(10.0184 -0.00946272 0)
(10.0292 -0.0220643 0)
(10.0436 -0.0263424 0)
(10.0578 -0.0269278 0)
(10.0701 -0.0270846 0)
(10.0811 -0.0275524 0)
(10.0919 -0.0278531 0)
(10.1031 -0.0276025 0)
(10.1146 -0.0268297 0)
(10.1262 -0.025743 0)
(10.1379 -0.0245161 0)
(10.1496 -0.023244 0)
(10.1614 -0.0219972 0)
(10.1735 -0.0207779 0)
(10.1857 -0.0196289 0)
(10.198 -0.0185131 0)
(10.2104 -0.0174968 0)
(10.2228 -0.0164798 0)
(9.99496 -0.0238257 0)
(10.0081 -0.0381981 0)
(10.0242 -0.0421475 0)
(10.0387 -0.04207 0)
(10.0503 -0.0420886 0)
(10.0603 -0.0424868 0)
(10.0702 -0.0425247 0)
(10.0807 -0.0420383 0)
(10.0919 -0.0412776 0)
(10.1035 -0.0404599 0)
(10.1154 -0.0396659 0)
(10.1276 -0.0388926 0)
(10.14 -0.0381387 0)
(10.1526 -0.0373954 0)
(10.1652 -0.0366891 0)
(10.1777 -0.0359972 0)
(10.1902 -0.035366 0)
(10.2026 -0.0347273 0)
(10.0027 -0.0156371 0)
(10.0212 -0.0296978 0)
(10.0414 -0.0330968 0)
(10.0572 -0.0335517 0)
(10.0692 -0.0347856 0)
(10.0803 -0.0363031 0)
(10.0918 -0.0373095 0)
(10.104 -0.0378193 0)
(10.1165 -0.0380729 0)
(10.1292 -0.0381804 0)
(10.1419 -0.0381361 0)
(10.1547 -0.0379731 0)
(10.1675 -0.0377109 0)
(10.1803 -0.0374205 0)
(10.1932 -0.0370987 0)
(10.2058 -0.036807 0)
(10.2185 -0.0365281 0)
(10.2308 -0.036321 0)
(10.0079 -0.0410361 0)
(10.044 -0.0571438 0)
(10.0751 -0.0550657 0)
(10.0961 -0.0538329 0)
(10.1104 -0.0545838 0)
(10.1214 -0.0552003 0)
(10.1304 -0.0552002 0)
(10.1377 -0.0549396 0)
(10.1432 -0.0546622 0)
(10.1472 -0.0544246 0)
(10.15 -0.054181 0)
(10.152 -0.0539461 0)
(10.1532 -0.0536788 0)
(10.1539 -0.0534261 0)
(10.1538 -0.0531139 0)
(10.1536 -0.052833 0)
(10.1523 -0.0525201 0)
(10.1514 -0.0523363 0)
(9.9115 -0.0280468 0)
(9.74939 -0.0443465 0)
(9.58379 -0.0435823 0)
(9.41542 -0.0428905 0)
(9.25058 -0.0432499 0)
(9.09294 -0.0433181 0)
(8.94341 -0.0428856 0)
(8.80171 -0.0422256 0)
(8.66721 -0.0415353 0)
(8.53946 -0.0408752 0)
(8.41793 -0.0402136 0)
(8.3026 -0.039532 0)
(8.19283 -0.0387953 0)
(8.08905 -0.0380376 0)
(7.99006 -0.0372425 0)
(7.89711 -0.0364944 0)
(7.80763 -0.0357666 0)
(7.72476 -0.0351978 0)
(-0.202766 0.455516 -1.23259e-21)
(-0.486458 0.211686 1.25012e-21)
(-0.569378 -0.0197213 0)
(-0.491308 -0.217721 0)
(-0.24183 -0.376294 0)
(0.118507 -0.479998 -1.2091e-21)
(0.547495 -0.522249 0)
(1.0022 -0.510884 0)
(1.44028 -0.463378 0)
(1.83351 -0.394556 0)
(2.166 -0.316841 1.3521e-21)
(2.43472 -0.244754 0)
(2.64205 -0.180198 0)
(2.78903 -0.113311 0)
(2.8799 -0.0429294 0)
(2.91546 0.0313136 1.6867e-21)
(2.89054 0.0611157 0)
(2.84668 0.0460736 0)
(2.78403 0.0559444 0)
(2.70369 0.0804388 0)
(2.58837 0.107985 0)
(2.42659 0.13076 0)
(2.20897 0.162577 0)
(1.95572 0.220176 1.55074e-21)
(1.64381 0.290151 -1.51131e-21)
(1.30927 0.277855 1.48331e-21)
(0.979034 0.213994 1.47046e-21)
(0.657527 0.100132 0)
(0.397576 0.0335981 0)
(0.133418 0.124223 -1.48824e-21)
(-0.149757 0.189908 -1.51012e-21)
(-0.457239 0.21298 0)
(-0.779722 0.212414 0)
(-1.08661 0.186787 -1.62312e-21)
(-1.35224 0.144238 0)
(-1.56813 0.0991208 0)
(-1.72548 0.0552598 1.70363e-21)
(-1.8345 0.0272005 0)
(-1.9299 0.0243225 1.76444e-21)
(-2.05264 0.0636796 3.6299e-21)
(-2.23549 0.134701 0)
(-2.48335 0.174353 0)
(-2.76658 0.187303 0)
(-3.05774 0.13442 0)
(-3.26338 0.0849203 0)
(-3.43887 0.0947772 4.00853e-21)
(-3.60172 -0.00254094 4.09635e-21)
(-3.78421 -0.0276039 4.20388e-21)
(-3.96761 0.13773 0)
(-4.26378 0.212263 -4.30963e-21)
(-4.503 0.174595 0)
(-4.71218 0.152828 4.43332e-21)
(-4.89899 0.133481 4.49796e-21)
(-5.06063 0.108753 0)
(-5.18296 0.07405 0)
(-5.2837 -0.0024291 0)
(-5.35746 0.012753 4.70793e-21)
(-5.47416 0.0556069 0)
(-5.56325 0.0391017 0)
(-5.61603 0.0312067 0)
(-5.64231 0.0111408 0)
(-5.62326 -0.0138392 0)
(-5.56886 -0.0412035 0)
(-5.48162 -0.0636608 0)
(-5.37076 -0.0823022 0)
(-5.24467 -0.0953062 -5.00853e-21)
(-5.11167 -0.103953 0)
(-4.97773 -0.106849 0)
(-4.84984 -0.103813 4.85492e-21)
(-4.73028 -0.0975259 4.76585e-21)
(-4.61364 -0.0912149 0)
(-4.49927 -0.0839397 -4.53914e-21)
(-4.37869 -0.0805655 4.40975e-21)
(-4.2527 -0.0767755 0)
(-4.13829 -0.0668759 -4.15413e-21)
(-4.04077 -0.0541811 0)
(-3.95672 -0.044723 0)
(-3.88902 -0.0381089 3.78329e-21)
(-3.84833 -0.0312074 0)
(-3.84846 -0.0180703 -3.45828e-21)
(-3.89679 0.00546783 0)
(-3.99726 0.0205434 3.06746e-21)
(-4.10373 0.0183542 2.87584e-21)
(-4.23053 0.00662616 2.69778e-21)
(-4.31439 -0.0303442 5.06443e-21)
(-4.43777 -0.0491391 -4.78711e-21)
(-4.57608 -0.0370809 0)
(-4.84979 0.0726048 0)
(-5.2753 0.260538 0)
(-5.78208 0.279501 -4.32769e-21)
(-6.14541 0.211303 -4.59022e-21)
(-6.41137 0.15492 4.91297e-21)
(-6.58823 0.102793 0)
(-6.68866 0.0604374 -5.45504e-21)
(-6.72409 0.0243977 -5.60519e-21)
(-6.70164 -0.00561409 -5.65536e-21)
(-6.62839 -0.0314857 0)
(-6.50859 -0.0538553 0)
(-6.34692 -0.0736312 0)
(-6.14614 -0.0912098 -4.79795e-21)
(-5.90947 -0.107159 0)
(-5.63913 -0.121241 0)
(-5.33775 -0.133618 3.13495e-21)
(-5.00837 -0.144156 0)
(-4.65475 -0.152847 0)
(-4.28041 -0.159636 9.10243e-22)
(-3.88912 -0.164502 0)
(-3.48511 -0.167411 0)
(-3.07279 -0.168381 1.41144e-21)
(-2.65667 -0.167406 2.12517e-21)
(-2.24107 -0.1646 0)
(-1.83026 -0.160147 -3.38281e-21)
(-1.42791 -0.154442 0)
(-1.03666 -0.147954 4.36885e-21)
(-0.657899 -0.141176 0)
(-0.292134 -0.134558 5.08261e-21)
(0.0608411 -0.12816 5.34733e-21)
(0.401644 -0.122149 0)
(0.730703 -0.116443 0)
(1.0484 -0.110868 0)
(1.35491 -0.105318 0)
(1.65014 -0.0996649 0)
(1.93361 -0.0941234 0)
(2.20443 -0.0887379 0)
(2.46292 -0.083366 5.78183e-21)
(2.70859 -0.077696 -5.67841e-21)
(2.94148 -0.0720834 0)
(3.16138 -0.0665746 0)
(3.36823 -0.0611652 0)
(3.56207 -0.0558891 0)
(3.74305 -0.0507818 -9.85283e-21)
(3.91139 -0.0458604 0)
(4.06735 -0.0411204 9.16265e-21)
(4.21115 -0.0365468 -8.82057e-21)
(4.34301 -0.0321168 0)
(4.46304 -0.0277924 0)
(4.5713 -0.0235515 0)
(4.66793 -0.0193746 7.55491e-21)
(4.75301 -0.0152334 7.27641e-21)
(4.82653 -0.0110899 0)
(4.88843 -0.00689972 6.77543e-21)
(4.93848 -0.00264523 6.55429e-21)
(4.97641 0.00167705 -6.35308e-21)
(5.00195 0.006051 0)
(5.01467 0.0104811 0)
(5.01422 0.015015 -5.8683e-21)
(4.99981 0.0196531 0)
(4.97086 0.0244157 0)
(4.92653 0.0293546 0)
(4.8658 0.034342 0)
(4.7878 0.0394777 5.42734e-21)
(4.69105 0.0447313 5.38836e-21)
(4.57421 0.049841 0)
(4.43626 0.0551876 5.35511e-21)
(4.27471 0.0602274 0)
(4.08955 0.0644136 0)
(3.87977 0.067547 5.38498e-21)
(3.64567 0.0668903 0)
(3.39617 0.0627544 5.39961e-21)
(3.13656 0.0540437 0)
(2.89064 0.0408186 0)
(2.67484 0.0359798 5.35025e-21)
(2.48557 0.0299246 0)
(2.34873 0.0264717 5.27089e-21)
(2.24779 0.0346242 0)
(2.14809 0.0385079 0)
(2.04556 0.0305652 0)
(1.95581 0.015658 -5.10838e-21)
(1.89714 0.00238281 0)
(1.87647 -0.00567062 5.13073e-21)
(1.88479 -0.0088581 0)
(1.91118 -0.00815379 0)
(1.93667 -0.00395504 0)
(1.95214 0.00113096 0)
(1.95025 0.00842202 0)
(1.92108 0.0125491 0)
(1.89013 0.0230486 0)
(1.7877 0.0205372 -1.15319e-20)
(1.78013 0.0498263 0)
(1.47209 0.0180541 0)
(-0.00430357 0.860722 3.78009e-21)
(0.0608134 0.506103 -3.81956e-21)
(0.227119 -0.0109843 0)
(0.496529 -0.470603 2.64662e-21)
(0.845611 -0.903899 0)
(1.25396 -1.21388 1.2044e-21)
(1.66892 -1.35536 -2.7374e-21)
(2.05536 -1.35862 -2.81209e-21)
(2.39447 -1.26034 0)
(2.67755 -1.09593 -3.06326e-21)
(2.89939 -0.902224 -1.34917e-21)
(3.06078 -0.703479 0)
(3.16716 -0.516409 0)
(3.22468 -0.350705 0)
(3.2447 -0.20492 0)
(3.24025 -0.0610496 -1.68362e-21)
(3.21478 0.0626877 0)
(3.15602 0.146047 3.76313e-21)
(3.06962 0.199124 0)
(2.96144 0.251863 0)
(2.80554 0.377254 -3.63087e-21)
(2.60885 0.534955 0)
(2.37419 0.657834 3.47425e-21)
(2.12593 0.756092 -1.54435e-21)
(1.8731 0.813045 1.50453e-21)
(1.59366 0.830109 -1.47636e-21)
(1.26988 0.871251 -1.46352e-21)
(0.889559 0.883861 0)
(0.459835 0.8465 0)
(-0.00703166 0.790159 1.4836e-21)
(-0.421622 0.762476 -1.779e-21)
(-0.787714 0.771042 0)
(-1.13091 0.767709 0)
(-1.429 0.706755 1.62046e-21)
(-1.70281 0.596467 0)
(-1.94451 0.457934 0)
(-2.14177 0.30617 -1.69941e-21)
(-2.31699 0.218536 0)
(-2.50698 0.252808 2.16856e-21)
(-2.71863 0.37854 -3.61881e-21)
(-2.94287 0.505985 0)
(-3.18164 0.603435 0)
(-3.41885 0.623978 -8.36666e-21)
(-3.69203 0.542195 -8.41793e-21)
(-3.9935 0.452939 -8.53368e-21)
(-4.25136 0.388881 4.67771e-21)
(-4.54022 0.464287 -4.08607e-21)
(-4.85309 0.523823 -1.32884e-20)
(-5.031 0.512321 9.27478e-21)
(-5.20544 0.477726 4.2987e-21)
(-5.32575 0.411595 0)
(-5.43721 0.363524 -4.42354e-21)
(-5.51125 0.304009 5.2368e-21)
(-5.5803 0.242647 0)
(-5.63598 0.203319 0)
(-5.73773 0.218815 0)
(-5.8143 0.214638 -4.70136e-21)
(-5.86513 0.171206 0)
(-5.8822 0.103808 1.01351e-20)
(-5.87008 0.0381925 0)
(-5.82946 -0.0341809 1.02943e-20)
(-5.7584 -0.103703 0)
(-5.66558 -0.165572 -1.03993e-20)
(-5.55284 -0.210839 0)
(-5.42843 -0.23812 1.04107e-20)
(-5.29991 -0.246696 -5.36913e-21)
(-5.17549 -0.240712 0)
(-5.06035 -0.225987 -1.02015e-20)
(-4.95676 -0.20999 -4.85533e-21)
(-4.86167 -0.199898 -4.76638e-21)
(-4.76917 -0.200418 0)
(-4.67709 -0.210408 -4.8614e-21)
(-4.56609 -0.227332 -4.4093e-21)
(-4.45289 -0.225593 0)
(-4.33992 -0.198215 4.15253e-21)
(-4.22866 -0.169264 -8.37889e-21)
(-4.13815 -0.140494 0)
(-4.08943 -0.0934153 -3.78141e-21)
(-4.09318 -0.0221563 0)
(-4.1484 0.061545 1.06158e-20)
(-4.23525 0.138058 0)
(-4.36353 0.188131 -9.4191e-21)
(-4.50782 0.211931 -2.87273e-21)
(-4.6881 0.209147 2.89657e-21)
(-4.89537 0.229712 5.48206e-21)
(-5.22679 0.315592 -5.26436e-21)
(-5.58142 0.445751 0)
(-6.03592 0.621077 0)
(-6.32807 0.625788 0)
(-6.54423 0.517075 1.42137e-20)
(-6.65326 0.379401 4.58407e-21)
(-6.71569 0.255294 -4.90652e-21)
(-6.72149 0.14367 0)
(-6.6899 0.0494197 -6.23144e-21)
(-6.6187 -0.032416 5.60248e-21)
(-6.51523 -0.103149 5.65439e-21)
(-6.37878 -0.165943 0)
(-6.21208 -0.222233 0)
(-6.01423 -0.273622 0)
(-5.78653 -0.32087 4.80116e-21)
(-5.52877 -0.36444 0)
(-5.24242 -0.404133 -7.92578e-21)
(-4.92849 -0.439764 -9.76575e-21)
(-4.58902 -0.470832 5.19956e-21)
(-4.2259 -0.496908 0)
(-3.84232 -0.517528 1.18214e-21)
(-3.44198 -0.532423 0)
(-3.029 -0.541431 -1.09226e-21)
(-2.60776 -0.544544 1.21535e-21)
(-2.18275 -0.541771 1.95164e-21)
(-1.75843 -0.533425 0)
(-1.33925 -0.52012 1.00105e-20)
(-0.929102 -0.503013 -7.69989e-21)
(-0.530686 -0.483554 -4.36745e-21)
(-0.145273 -0.463259 0)
(0.227002 -0.443391 -5.08107e-21)
(0.586669 -0.424489 -1.5942e-20)
(0.93447 -0.406691 0)
(1.27115 -0.389832 -1.13378e-20)
(1.5971 -0.373447 -1.15627e-20)
(1.91243 -0.357091 -1.16994e-20)
(2.21711 -0.340522 0)
(2.51049 -0.324476 0)
(2.79168 -0.30799 0)
(3.06124 -0.291355 5.70737e-21)
(3.31863 -0.274563 5.6724e-21)
(3.5637 -0.25785 0)
(3.79638 -0.241377 1.07556e-20)
(4.01666 -0.225246 1.04509e-20)
(4.22467 -0.209549 0)
(4.42063 -0.194357 9.84312e-21)
(4.60486 -0.179702 1.8901e-20)
(4.77766 -0.165566 -9.15378e-21)
(4.93933 -0.151903 -8.72351e-21)
(5.09009 -0.138659 0)
(5.23022 -0.125795 0)
(5.36001 -0.113293 0)
(5.47971 -0.101138 -7.54741e-21)
(5.58951 -0.0892877 7.19226e-21)
(5.6896 -0.0776579 1.39426e-20)
(5.78001 -0.0661495 -6.76839e-21)
(5.86077 -0.0546486 6.4727e-21)
(5.93177 -0.0430888 6.34616e-21)
(5.99281 -0.0314178 0)
(6.04364 -0.0195876 0)
(6.0839 -0.00751567 -5.78487e-21)
(6.11347 0.00491575 0)
(6.13184 0.017773 0)
(6.13857 0.0312071 1.10085e-20)
(6.13297 0.04534 0)
(6.11407 0.060247 5.33026e-21)
(6.08104 0.076176 -5.38066e-21)
(6.03238 0.0930613 0)
(5.96715 0.111031 5.23658e-21)
(5.88399 0.130133 0)
(5.78142 0.149715 0)
(5.65896 0.169361 -5.37654e-21)
(5.51391 0.187026 1.06228e-20)
(5.34607 0.199634 -5.39079e-21)
(5.15329 0.204362 0)
(4.93517 0.194246 0)
(4.69281 0.171032 5.23511e-21)
(4.43281 0.139311 0)
(4.18817 0.0988104 5.20571e-21)
(3.99082 0.0669172 0)
(3.87694 0.0596975 0)
(3.82224 0.0629031 0)
(3.77306 0.0552018 5.1e-21)
(3.73165 0.0346635 0)
(3.71246 0.0100078 -5.12244e-21)
(3.71702 -0.00942686 0)
(3.73799 -0.0195372 0)
(3.76778 -0.0171738 1.09174e-20)
(3.79094 -0.00979408 -1.1123e-20)
(3.81049 0.00578638 0)
(3.80469 0.013896 0)
(3.80855 0.0362327 0)
(3.75749 0.0336779 3.44955e-20)
(3.7792 0.0795322 0)
(3.63491 0.06412 -2.32208e-20)
(0.0915491 0.478228 -3.97683e-23)
(0.405904 -0.121013 5.08817e-21)
(0.796928 -0.801725 0)
(1.23857 -1.40382 -5.35344e-21)
(1.66799 -1.85492 0)
(2.03433 -2.09736 0)
(2.30982 -2.12331 -4.28264e-22)
(2.50521 -1.98648 2.8078e-21)
(2.63556 -1.73751 3.49196e-21)
(2.72256 -1.42386 3.06137e-21)
(2.76822 -1.09931 0)
(2.7855 -0.796951 0)
(2.77499 -0.523657 -4.03847e-21)
(2.73969 -0.285401 -8.22771e-21)
(2.68107 -0.0895568 8.3221e-21)
(2.60513 0.0703895 0)
(2.52481 0.207655 8.36073e-21)
(2.42455 0.321697 -3.76373e-21)
(2.30943 0.415192 0)
(2.14593 0.575195 8.13677e-21)
(1.95867 0.753477 3.62783e-21)
(1.77195 0.904056 -7.87271e-21)
(1.57905 1.03336 -3.46902e-21)
(1.38642 1.13087 0)
(1.17946 1.21396 7.42395e-21)
(0.926246 1.32765 7.29873e-21)
(0.646705 1.43114 0)
(0.330849 1.522 7.1342e-21)
(-0.0173864 1.57479 0)
(-0.393148 1.56911 7.14508e-21)
(-0.77905 1.50682 3.2715e-21)
(-1.14063 1.41407 0)
(-1.46343 1.29808 0)
(-1.73782 1.15914 0)
(-2.00172 1.01133 0)
(-2.23593 0.833924 0)
(-2.47692 0.681753 0)
(-2.72509 0.608608 8.43991e-21)
(-2.99149 0.645613 -1.25841e-20)
(-3.27431 0.756143 0)
(-3.53852 0.864419 0)
(-3.81254 0.920474 0)
(-4.03647 0.980871 -8.37492e-22)
(-4.29891 0.978676 8.3995e-21)
(-4.54829 0.921823 1.78618e-20)
(-4.79713 0.877018 -1.81733e-20)
(-5.03113 0.83691 -9.71128e-21)
(-5.22612 0.774874 9.07793e-21)
(-5.34891 0.701846 8.72245e-22)
(-5.45284 0.618432 1.02981e-20)
(-5.51864 0.526319 0)
(-5.57785 0.433962 1.05273e-20)
(-5.61698 0.353903 8.69042e-22)
(-5.68247 0.313015 0)
(-5.74265 0.291187 0)
(-5.78843 0.265391 -1.06975e-20)
(-5.79092 0.209373 0)
(-5.77385 0.13992 0)
(-5.742 0.0627717 1.14611e-20)
(-5.70089 -0.0202341 2.16589e-20)
(-5.64794 -0.11161 -1.02941e-20)
(-5.58484 -0.201588 0)
(-5.50946 -0.282929 1.04008e-20)
(-5.42364 -0.345627 0)
(-5.329 -0.384966 1.13623e-20)
(-5.22967 -0.398858 1.03788e-20)
(-5.12796 -0.391064 -2.15916e-20)
(-5.02758 -0.369559 -1.11821e-20)
(-4.92858 -0.342587 0)
(-4.83271 -0.322258 2.06987e-20)
(-4.74113 -0.315881 0)
(-4.65129 -0.32645 2.9099e-20)
(-4.55483 -0.343917 1.91466e-20)
(-4.45618 -0.34619 1.86226e-20)
(-4.3452 -0.335815 -1.81225e-20)
(-4.24541 -0.294045 2.60166e-20)
(-4.18186 -0.203345 0)
(-4.15883 -0.0834432 0)
(-4.1762 0.0341262 -1.58002e-20)
(-4.23645 0.146819 -2.21789e-20)
(-4.32838 0.253988 0)
(-4.46653 0.334644 6.35698e-21)
(-4.63714 0.38635 0)
(-4.85551 0.438779 -1.73737e-20)
(-5.14679 0.554116 6.63605e-22)
(-5.47974 0.681625 -8.04632e-22)
(-5.83081 0.835295 1.07409e-20)
(-6.07094 0.868398 0)
(-6.15265 0.754539 -1.1025e-20)
(-6.19396 0.587173 1.44178e-21)
(-6.19285 0.411865 0)
(-6.18627 0.252779 0)
(-6.15389 0.110831 0)
(-6.10533 -0.0121887 1.16933e-20)
(-6.02808 -0.121553 0)
(-5.9256 -0.219022 0)
(-5.79282 -0.307935 0)
(-5.63161 -0.389881 0)
(-5.44008 -0.466764 0)
(-5.21935 -0.539098 1.06908e-20)
(-4.96884 -0.607097 0)
(-4.68978 -0.670157 7.93895e-21)
(-4.38298 -0.727608 6.63877e-21)
(-4.05061 -0.77845 -5.2092e-21)
(-3.69487 -0.82173 0)
(-3.31895 -0.856325 -2.10088e-21)
(-2.92622 -0.881531 0)
(-2.5206 -0.896919 1.0885e-21)
(-2.10622 -0.902231 -2.62212e-21)
(-1.68743 -0.897548 -1.16493e-20)
(-1.26887 -0.883331 0)
(-0.855461 -0.860544 -1.94308e-20)
(-0.45179 -0.831143 -7.29113e-21)
(-0.0610849 -0.797769 0)
(0.315294 -0.763301 -1.84654e-20)
(0.67741 -0.729711 -1.97873e-20)
(1.02631 -0.698165 3.14587e-20)
(1.36308 -0.668772 0)
(1.68864 -0.641106 1.13355e-20)
(2.00368 -0.614297 1.15601e-20)
(2.3082 -0.587538 3.48097e-20)
(2.60191 -0.560881 0)
(2.88409 -0.534125 0)
(3.15458 -0.5068 0)
(3.41309 -0.47928 1.12399e-20)
(3.65931 -0.451729 0)
(3.89307 -0.424382 0)
(4.11432 -0.397488 -1.07473e-20)
(4.32311 -0.371251 -1.04434e-20)
(4.51965 -0.345833 0)
(4.70431 -0.321336 0)
(4.87759 -0.297786 -1.88901e-20)
(5.04001 -0.27514 0)
(5.19206 -0.253301 1.7527e-20)
(5.33412 -0.232189 1.67159e-20)
(5.46646 -0.211747 0)
(5.58933 -0.191941 0)
(5.70294 -0.172748 -1.48774e-20)
(5.80748 -0.154104 -1.30316e-22)
(5.90308 -0.135884 -1.27735e-22)
(5.98985 -0.117944 0)
(6.06781 -0.100145 -2.59077e-20)
(6.13694 -0.0823956 0)
(6.19717 -0.064621 0)
(6.24845 -0.046729 0)
(6.29066 -0.0286288 1.16429e-20)
(6.32362 -0.0102022 0)
(6.34707 0.00862753 -2.21148e-20)
(6.3606 0.0280693 -1.10052e-20)
(6.3638 0.0483801 0)
(6.35615 0.0696928 -1.07467e-20)
(6.33708 0.0923924 0)
(6.30614 0.116414 0)
(6.26304 0.141794 -3.14371e-20)
(6.20755 0.168669 2.08341e-20)
(6.14005 0.195964 0)
(6.06027 0.223522 2.08771e-20)
(5.96814 0.249379 -1.0619e-20)
(5.86275 0.271356 0)
(5.74098 0.288561 0)
(5.60197 0.295993 0)
(5.43879 0.294041 -3.14726e-20)
(5.24978 0.282085 0)
(5.03428 0.247702 -1.0462e-20)
(4.78758 0.187397 0)
(4.54662 0.123831 0)
(4.3782 0.0841468 0)
(4.28569 0.0613275 0)
(4.2287 0.0324015 0)
(4.19551 -0.000460303 0)
(4.18699 -0.0250226 -2.07013e-20)
(4.19371 -0.0377928 0)
(4.21034 -0.0346576 -1.09131e-20)
(4.22374 -0.0240343 3.33486e-20)
(4.24101 -0.00344353 0)
(4.24425 0.0103293 0)
(4.2579 0.0357977 -2.28194e-20)
(4.24417 0.0389928 -2.2971e-20)
(4.26795 0.0794808 2.30082e-20)
(4.23975 0.0778867 2.32085e-20)
(0.112997 -0.258605 -7.63814e-21)
(0.551042 -1.08459 -7.74091e-21)
(1.05871 -1.84549 -5.48981e-21)
(1.4827 -2.3254 -3.15514e-21)
(1.79917 -2.58322 0)
(1.97906 -2.57113 6.74635e-21)
(2.04651 -2.34458 -4.0229e-21)
(2.04996 -2.02608 0)
(2.01483 -1.67288 -3.49555e-21)
(1.9765 -1.31202 0)
(1.93407 -0.973123 8.60111e-21)
(1.89125 -0.657956 0)
(1.84011 -0.368526 4.04374e-21)
(1.77853 -0.110552 8.23869e-21)
(1.69998 0.108013 -8.3328e-21)
(1.605 0.285605 0)
(1.49688 0.441697 -8.36974e-21)
(1.37632 0.576512 0)
(1.22718 0.73034 0)
(1.04835 0.917761 -8.1398e-21)
(0.874397 1.08671 0)
(0.700144 1.23891 -8.51813e-22)
(0.528872 1.3643 0)
(0.346341 1.48673 0)
(0.135932 1.63249 9.4861e-22)
(-0.0880838 1.77454 -7.28883e-21)
(-0.324168 1.90768 -8.17551e-21)
(-0.567171 2.01488 -7.11873e-21)
(-0.81664 2.08029 0)
(-1.07572 2.09341 -1.51766e-20)
(-1.34955 2.04079 0)
(-1.62529 1.9259 -8.13244e-21)
(-1.89677 1.77795 0)
(-2.15955 1.62073 0)
(-2.42243 1.45307 8.48875e-21)
(-2.67688 1.26669 0)
(-2.95622 1.13564 -8.83267e-21)
(-3.24605 1.09291 6.48225e-22)
(-3.55081 1.15467 1.80009e-20)
(-3.85816 1.26821 -1.9195e-20)
(-4.14721 1.36851 0)
(-4.40304 1.38703 0)
(-4.61434 1.36718 -1.08235e-20)
(-4.80073 1.29781 0)
(-4.96277 1.22473 -9.33376e-21)
(-5.11312 1.16643 9.50581e-21)
(-5.22742 1.08228 9.70228e-21)
(-5.30891 0.972987 0)
(-5.36053 0.85454 -1.01273e-20)
(-5.40091 0.729564 -1.02949e-20)
(-5.42802 0.612107 2.27141e-20)
(-5.46696 0.520255 -1.05257e-20)
(-5.51741 0.464589 -1.05877e-20)
(-5.58618 0.421903 0)
(-5.63525 0.362007 0)
(-5.65995 0.286095 1.06989e-20)
(-5.6602 0.198651 0)
(-5.65597 0.113766 0)
(-5.64292 0.0240119 -2.15993e-20)
(-5.6237 -0.0727316 -2.16641e-20)
(-5.59606 -0.175383 0)
(-5.56236 -0.276951 0)
(-5.51986 -0.368339 0)
(-5.46994 -0.440132 0)
(-5.41087 -0.48679 -2.17839e-20)
(-5.3416 -0.506982 2.28122e-20)
(-5.26038 -0.503874 2.16004e-20)
(-5.16917 -0.4848 4.38738e-20)
(-5.07141 -0.458123 0)
(-4.96677 -0.434297 1.01469e-21)
(-4.86318 -0.429255 0)
(-4.75707 -0.448818 -1.96942e-20)
(-4.64686 -0.476506 8.64352e-22)
(-4.53023 -0.491083 -1.86392e-20)
(-4.40865 -0.455184 1.81432e-20)
(-4.30267 -0.370191 8.37102e-22)
(-4.20884 -0.260015 0)
(-4.1447 -0.1129 1.73375e-20)
(-4.12699 0.0517677 1.58162e-20)
(-4.16653 0.2161 3.07963e-20)
(-4.25489 0.372871 0)
(-4.39524 0.500322 -1.40042e-20)
(-4.57622 0.605738 0)
(-4.81429 0.726042 2.4343e-20)
(-5.08455 0.863425 -1.12098e-20)
(-5.35909 0.988749 1.08564e-20)
(-5.57036 1.04183 -1.07465e-20)
(-5.63992 0.94603 -2.43023e-20)
(-5.63959 0.769905 1.10314e-20)
(-5.64044 0.58418 -1.13451e-20)
(-5.62373 0.398295 0)
(-5.60645 0.226108 2.6841e-20)
(-5.56679 0.0658522 0)
(-5.51009 -0.0802888 2.7679e-20)