/*--------------------------------*- C++ -*----------------------------------*\
  =========                 |
  \\      /  F ield         | OpenFOAM: The Open Source CFD Toolbox
   \\    /   O peration     | Website:  https://openfoam.org
    \\  /    A nd           | Version:  9
     \\/     M anipulation  |
\*---------------------------------------------------------------------------*/
FoamFile
{
    format      ascii;
    class       volSymmTensorField;
    location    "0.067";
    object      UPrime2Mean;
}
// * * * * * * * * * * * * * * * * * * * * * * * * * * * * * * * * * * * * * //

dimensions      [0 2 -2 0 0 0 0];

internalField   nonuniform List<symmTensor> 
12225
(
(-48.3152 -0.241743 0 0.00102839 0 0)
(-45.4639 -0.309764 0 -0.0010959 0 0)
(-42.648 -0.288861 0 -0.00125109 0 0)
(-39.8812 -0.27193 0 -0.00128561 0 0)
(-37.2338 -0.260507 0 -0.00133472 0 0)
(-34.7436 -0.249365 0 -0.00135441 0 0)
(-32.3954 -0.237318 0 -0.00133102 0 0)
(-30.1938 -0.226249 0 -0.00130392 0 0)
(-28.0905 -0.216083 0 -0.00125344 0 0)
(-26.117 -0.209413 0 -0.00125573 0 0)
(-24.1669 -0.204043 0 -0.00118877 0 0)
(-22.3482 -0.204572 0 -0.00127938 0 0)
(-20.4113 -0.207014 0 -0.0010256 0 0)
(-18.6574 -0.2188 0 -0.00133125 0 0)
(-16.4923 -0.242264 0 -3.02019e-07 0 0)
(-14.6369 -0.273378 0 -0.00120538 0 0)
(-11.777 -0.379311 0 0.00757131 0 0)
(-9.23557 -0.46075 0 0.00167421 0 0)
(-50.5152 -0.236614 0 0.00188642 0 0)
(-51.1126 -0.357154 0 -0.00109257 0 0)
(-51.4825 -0.360505 0 -0.00156887 0 0)
(-51.5861 -0.369119 0 -0.00186757 0 0)
(-51.4979 -0.388583 0 -0.00225538 0 0)
(-51.2919 -0.408996 0 -0.00263635 0 0)
(-50.9855 -0.426502 0 -0.00297319 0 0)
(-50.6027 -0.444012 0 -0.00326691 0 0)
(-50.1229 -0.461161 0 -0.0035522 0 0)
(-49.5795 -0.482877 0 -0.00378072 0 0)
(-48.9189 -0.50693 0 -0.00406608 0 0)
(-48.2061 -0.541653 0 -0.00412524 0 0)
(-47.3205 -0.584304 0 -0.00436163 0 0)
(-46.3906 -0.646932 0 -0.00359468 0 0)
(-45.1707 -0.735284 0 -0.00316237 0 0)
(-43.8914 -0.861517 0 0.00139139 0 0)
(-42.1293 -1.07415 0 0.00776278 0 0)
(-40.1948 -1.3686 0 0.0377987 0 0)
(-50.2752 -0.178448 0 0.00287895 0 0)
(-50.5914 -0.28623 0 0.000102747 0 0)
(-50.8696 -0.304898 0 -0.000655738 0 0)
(-51.0268 -0.319297 0 -0.000987834 0 0)
(-51.1027 -0.347095 0 -0.0014195 0 0)
(-51.1462 -0.377315 0 -0.00186226 0 0)
(-51.1693 -0.403027 0 -0.00219616 0 0)
(-51.1694 -0.428103 0 -0.00248097 0 0)
(-51.139 -0.454086 0 -0.0026753 0 0)
(-51.0753 -0.48735 0 -0.00290102 0 0)
(-50.9748 -0.525825 0 -0.00287537 0 0)
(-50.831 -0.578986 0 -0.00290083 0 0)
(-50.6458 -0.643732 0 -0.00205088 0 0)
(-50.3983 -0.735859 0 -0.00102614 0 0)
(-50.1134 -0.858374 0 0.00313033 0 0)
(-49.7481 -1.03467 0 0.009913 0 0)
(-49.4009 -1.28811 0 0.029265 0 0)
(-49.0073 -1.61967 0 0.0719812 0 0)
(-49.9616 -0.129598 0 0.00324382 0 0)
(-50.1988 -0.281549 0 0.000324601 0 0)
(-50.4239 -0.31605 0 -0.000731153 0 0)
(-50.5532 -0.329234 0 -0.00111845 0 0)
(-50.601 -0.354271 0 -0.00151651 0 0)
(-50.613 -0.385762 0 -0.00195157 0 0)
(-50.6143 -0.415925 0 -0.00232842 0 0)
(-50.6061 -0.445258 0 -0.00259206 0 0)
(-50.5823 -0.476155 0 -0.00276117 0 0)
(-50.5346 -0.512742 0 -0.0027953 0 0)
(-50.4617 -0.557443 0 -0.00267584 0 0)
(-50.3581 -0.614863 0 -0.0021808 0 0)
(-50.2292 -0.689035 0 -0.00101879 0 0)
(-50.071 -0.787433 0 0.00155938 0 0)
(-49.9005 -0.919973 0 0.0069537 0 0)
(-49.7333 -1.09853 0 0.0182249 0 0)
(-49.609 -1.33177 0 0.041717 0 0)
(-49.5888 -1.60916 0 0.089207 0 0)
(-50.2368 -0.113534 0 0.00390155 0 0)
(-50.3824 -0.248464 0 0.00123755 0 0)
(-50.5292 -0.291892 0 -5.73457e-06 0 0)
(-50.6165 -0.311497 0 -0.00042124 0 0)
(-50.639 -0.340139 0 -0.000766739 0 0)
(-50.6259 -0.374618 0 -0.00112248 0 0)
(-50.5987 -0.406896 0 -0.00138649 0 0)
(-50.5612 -0.437869 0 -0.00153549 0 0)
(-50.5087 -0.471273 0 -0.00151894 0 0)
(-50.4375 -0.511891 0 -0.00130573 0 0)
(-50.3453 -0.562492 0 -0.000747355 0 0)
(-50.2333 -0.62686 0 0.000357355 0 0)
(-50.1008 -0.708656 0 0.00253325 0 0)
(-49.9544 -0.813501 0 0.0066995 0 0)
(-49.7987 -0.948418 0 0.0145116 0 0)
(-49.6601 -1.11979 0 0.0296019 0 0)
(-49.5528 -1.32578 0 0.0569413 0 0)
(-49.5228 -1.5528 0 0.107526 0 0)
(-50.0907 -0.0912642 0 0.00451488 0 0)
(-50.2449 -0.234079 0 0.00152249 0 0)
(-50.4033 -0.290401 0 2.32627e-05 0 0)
(-50.5075 -0.314407 0 -0.000527884 0 0)
(-50.553 -0.342135 0 -0.000877822 0 0)
(-50.566 -0.378173 0 -0.00120864 0 0)
(-50.5653 -0.41613 0 -0.00146376 0 0)
(-50.5515 -0.453755 0 -0.00154872 0 0)
(-50.5172 -0.493064 0 -0.0014045 0 0)
(-50.4592 -0.537951 0 -0.000943008 0 0)
(-50.3783 -0.59198 0 1.79809e-05 0 0)
(-50.2796 -0.659323 0 0.00180406 0 0)
(-50.1664 -0.743785 0 0.00500527 0 0)
(-50.0466 -0.850141 0 0.0107417 0 0)
(-49.9261 -0.982205 0 0.0207839 0 0)
(-49.8233 -1.14268 0 0.0386572 0 0)
(-49.7474 -1.32578 0 0.0687656 0 0)
(-49.723 -1.52168 0 0.119538 0 0)
(-49.9846 -0.0615711 0 0.00499456 0 0)
(-50.0637 -0.203883 0 0.00261836 0 0)
(-50.1799 -0.273425 0 0.00103309 0 0)
(-50.2799 -0.30865 0 0.000401531 0 0)
(-50.3305 -0.339042 0 0.00012783 0 0)
(-50.3441 -0.373726 0 -5.34885e-05 0 0)
(-50.3428 -0.411371 0 -0.000148407 0 0)
(-50.3345 -0.451028 0 -4.79643e-05 0 0)
(-50.3132 -0.494308 0 0.000362354 0 0)
(-50.2732 -0.544451 0 0.00122215 0 0)
(-50.2113 -0.604361 0 0.0027544 0 0)
(-50.1317 -0.677256 0 0.00539143 0 0)
(-50.037 -0.765935 0 0.00980574 0 0)
(-49.9379 -0.874014 0 0.0172655 0 0)
(-49.8384 -1.0031 0 0.0295277 0 0)
(-49.7584 -1.15445 0 0.0498782 0 0)
(-49.6979 -1.32184 0 0.0819577 0 0)
(-49.6844 -1.49935 0 0.131867 0 0)
(-49.9565 -0.075048 0 0.00420296 0 0)
(-50.0321 -0.182067 0 0.00189661 0 0)
(-50.1398 -0.253564 0 0.000562792 0 0)
(-50.2396 -0.295519 0 -2.83648e-05 0 0)
(-50.3004 -0.329555 0 -0.000295251 0 0)
(-50.3215 -0.367466 0 -0.000409039 0 0)
(-50.3167 -0.409802 0 -0.000380329 0 0)
(-50.297 -0.454865 0 -0.000113962 0 0)
(-50.2642 -0.503127 0 0.000533455 0 0)
(-50.2171 -0.557545 0 0.00175611 0 0)
(-50.1545 -0.621325 0 0.0038321 0 0)
(-50.0795 -0.697588 0 0.00726929 0 0)
(-49.9953 -0.788413 0 0.0128081 0 0)
(-49.9105 -0.896176 0 0.0217611 0 0)
(-49.8302 -1.02089 0 0.0358154 0 0)
(-49.7672 -1.1627 0 0.0578397 0 0)
(-49.7238 -1.31605 0 0.0906518 0 0)
(-49.7131 -1.47679 0 0.13868 0 0)
(-50.0375 -0.0534392 0 0.00512703 0 0)
(-50.0941 -0.163306 0 0.00273356 0 0)
(-50.163 -0.241997 0 0.00135743 0 0)
(-50.2369 -0.292515 0 0.0007394 0 0)
(-50.2975 -0.331002 0 0.000527682 0 0)
(-50.3349 -0.370175 0 0.000529871 0 0)
(-50.3498 -0.41376 0 0.000733655 0 0)
(-50.3465 -0.461275 0 0.00125896 0 0)
(-50.3262 -0.51308 0 0.00226995 0 0)
(-50.2897 -0.57138 0 0.0039971 0 0)
(-50.2383 -0.638685 0 0.00675479 0 0)
(-50.1765 -0.717413 0 0.0110896 0 0)
(-50.1082 -0.80879 0 0.0177674 0 0)
(-50.0409 -0.914344 0 0.0280627 0 0)
(-49.9786 -1.03359 0 0.0434966 0 0)
(-49.9306 -1.16637 0 0.0664844 0 0)
(-49.8975 -1.30805 0 0.0991095 0 0)
(-49.8883 -1.45554 0 0.14461 0 0)
(-49.8931 -0.0478342 0 0.00596944 0 0)
(-49.9294 -0.14777 0 0.00370919 0 0)
(-49.9898 -0.223388 0 0.00202618 0 0)
(-50.0622 -0.274683 0 0.00133791 0 0)
(-50.1267 -0.315207 0 0.00111615 0 0)
(-50.1715 -0.357381 0 0.00117141 0 0)
(-50.1949 -0.405427 0 0.00148558 0 0)
(-50.2005 -0.458722 0 0.00217739 0 0)
(-50.1914 -0.516367 0 0.00345208 0 0)
(-50.1698 -0.579548 0 0.00558575 0 0)
(-50.1377 -0.650287 0 0.00893232 0 0)
(-50.0989 -0.730903 0 0.0140584 0 0)
(-50.0565 -0.82258 0 0.0216997 0 0)
(-50.0165 -0.926377 0 0.0330242 0 0)
(-49.982 -1.04137 0 0.0493075 0 0)
(-49.9594 -1.16676 0 0.0725495 0 0)
(-49.9488 -1.29855 0 0.104146 0 0)
(-49.9564 -1.4342 0 0.146519 0 0)
(-50.0613 -0.058923 0 0.00611443 0 0)
(-50.1016 -0.145968 0 0.00412881 0 0)
(-50.1462 -0.219093 0 0.00272101 0 0)
(-50.197 -0.271553 0 0.00211214 0 0)
(-50.2383 -0.313602 0 0.00194901 0 0)
(-50.26 -0.356517 0 0.00217488 0 0)
(-50.2649 -0.40511 0 0.00276249 0 0)
(-50.2607 -0.459509 0 0.00378931 0 0)
(-50.2504 -0.519025 0 0.00545631 0 0)
(-50.2344 -0.584238 0 0.00808143 0 0)
(-50.2113 -0.656378 0 0.0120531 0 0)
(-50.1833 -0.737015 0 0.0179365 0 0)
(-50.1528 -0.826901 0 0.0264081 0 0)
(-50.1264 -0.926973 0 0.0384888 0 0)
(-50.1068 -1.03628 0 0.0551766 0 0)
(-50.1014 -1.15451 0 0.078051 0 0)
(-50.1071 -1.2778 0 0.107972 0 0)
(-50.133 -1.4052 0 0.146718 0 0)
(-49.8509 -0.0238863 0 0.00625562 0 0)
(-49.8691 -0.124251 0 0.00416304 0 0)
(-49.9111 -0.194574 0 0.00258231 0 0)
(-49.971 -0.251239 0 0.00193986 0 0)
(-50.0229 -0.3015 0 0.00187339 0 0)
(-50.0516 -0.350385 0 0.00223239 0 0)
(-50.0603 -0.401603 0 0.00301054 0 0)
(-50.0607 -0.457138 0 0.00431709 0 0)
(-50.0618 -0.517947 0 0.00634532 0 0)
(-50.0655 -0.58503 0 0.00940373 0 0)
(-50.0692 -0.65909 0 0.0138797 0 0)
(-50.0696 -0.740909 0 0.0203335 0 0)
(-50.0661 -0.830358 0 0.0293854 0 0)
(-50.0611 -0.927832 0 0.0419409 0 0)
(-50.0589 -1.03209 0 0.0587704 0 0)
(-50.0646 -1.14324 0 0.0811058 0 0)
(-50.0815 -1.25791 0 0.109413 0 0)
(-50.1132 -1.37642 0 0.145007 0 0)
(-50.0086 -0.0543358 0 0.00759576 0 0)
(-50.0214 -0.130781 0 0.00606305 0 0)
(-50.056 -0.194935 0 0.00414983 0 0)
(-50.1065 -0.249747 0 0.00347039 0 0)
(-50.1568 -0.300381 0 0.00352212 0 0)
(-50.1955 -0.350767 0 0.00403718 0 0)
(-50.2215 -0.402716 0 0.00500041 0 0)
(-50.2394 -0.457384 0 0.00655535 0 0)
(-50.2553 -0.516035 0 0.0089402 0 0)
(-50.2722 -0.580805 0 0.0124754 0 0)
(-50.2913 -0.653259 0 0.0174996 0 0)
(-50.3109 -0.734412 0 0.0244852 0 0)
(-50.3314 -0.823552 0 0.0339478 0 0)
(-50.3523 -0.920139 0 0.0466727 0 0)
(-50.3771 -1.02182 0 0.063243 0 0)
(-50.4052 -1.12831 0 0.0846717 0 0)
(-50.4426 -1.23609 0 0.111053 0 0)
(-50.4848 -1.34631 0 0.14347 0 0)
(-50.0201 -0.0457673 0 0.00813876 0 0)
(-50.0502 -0.105877 0 0.00670899 0 0)
(-50.0911 -0.17248 0 0.00505897 0 0)
(-50.1412 -0.233009 0 0.00425718 0 0)
(-50.1897 -0.286904 0 0.00416799 0 0)
(-50.2295 -0.338935 0 0.00470488 0 0)
(-50.2583 -0.392546 0 0.00581671 0 0)
(-50.2778 -0.44933 0 0.0075953 0 0)
(-50.2915 -0.510318 0 0.0102365 0 0)
(-50.304 -0.576693 0 0.014022 0 0)
(-50.3186 -0.649193 0 0.0192584 0 0)
(-50.3386 -0.728506 0 0.026372 0 0)
(-50.3655 -0.814112 0 0.0357887 0 0)
(-50.402 -0.905892 0 0.0481351 0 0)
(-50.4465 -1.00187 0 0.0637954 0 0)
(-50.5012 -1.10193 0 0.0835362 0 0)
(-50.561 -1.20263 0 0.107246 0 0)
(-50.6312 -1.30545 0 0.135749 0 0)
(-49.8728 -0.0282586 0 0.009186 0 0)
(-49.9091 -0.100565 0 0.00822488 0 0)
(-49.9368 -0.161563 0 0.00674134 0 0)
(-49.9725 -0.218456 0 0.00613653 0 0)
(-50.0146 -0.274475 0 0.00631318 0 0)
(-50.0548 -0.33054 0 0.00710243 0 0)
(-50.0901 -0.386715 0 0.00848246 0 0)
(-50.1227 -0.443637 0 0.0105688 0 0)
(-50.1567 -0.502506 0 0.0135565 0 0)
(-50.1948 -0.565063 0 0.0177221 0 0)
(-50.2379 -0.632243 0 0.0233399 0 0)
(-50.286 -0.70496 0 0.0307643 0 0)
(-50.3391 -0.782868 0 0.0402719 0 0)
(-50.3978 -0.866362 0 0.0523179 0 0)
(-50.4627 -0.953919 0 0.0670129 0 0)
(-50.5342 -1.04601 0 0.0849381 0 0)
(-50.6116 -1.13929 0 0.105702 0 0)
(-50.6946 -1.23567 0 0.130039 0 0)
(-50.3983 -0.013713 0 0.010724 0 0)
(-50.3849 -0.0887649 0 0.00901789 0 0)
(-50.3835 -0.142051 0 0.00646316 0 0)
(-50.4082 -0.19288 0 0.00560569 0 0)
(-50.4505 -0.247892 0 0.00583893 0 0)
(-50.4996 -0.30462 0 0.00670184 0 0)
(-50.5482 -0.360103 0 0.00812117 0 0)
(-50.5941 -0.414735 0 0.0102081 0 0)
(-50.6383 -0.471113 0 0.0131637 0 0)
(-50.6824 -0.532014 0 0.0172415 0 0)
(-50.7271 -0.59833 0 0.0226384 0 0)
(-50.7734 -0.670184 0 0.0295901 0 0)
(-50.8218 -0.746263 0 0.0382566 0 0)
(-50.8749 -0.826397 0 0.0489362 0 0)
(-50.9329 -0.908713 0 0.0616333 0 0)
(-50.9997 -0.994078 0 0.0767272 0 0)
(-51.0723 -1.07923 0 0.0938122 0 0)
(-51.1569 -1.16693 0 0.113436 0 0)
(-49.7278 -0.0561651 0 0.0107231 0 0)
(-49.6801 -0.0989783 0 0.00916937 0 0)
(-49.6557 -0.143795 0 0.00605464 0 0)
(-49.6761 -0.193209 0 0.00529785 0 0)
(-49.726 -0.244314 0 0.00589991 0 0)
(-49.7887 -0.295317 0 0.00720631 0 0)
(-49.8538 -0.346297 0 0.00905611 0 0)
(-49.9175 -0.398467 0 0.0115287 0 0)
(-49.9802 -0.453202 0 0.0147829 0 0)
(-50.0445 -0.511604 0 0.0190066 0 0)
(-50.1125 -0.573443 0 0.0243357 0 0)
(-50.1871 -0.638568 0 0.0309347 0 0)
(-50.268 -0.705699 0 0.0388651 0 0)
(-50.3581 -0.775056 0 0.0483151 0 0)
(-50.4534 -0.8449 0 0.059185 0 0)
(-50.5596 -0.916829 0 0.0717465 0 0)
(-50.6675 -0.987721 0 0.0855785 0 0)
(-50.7896 -1.06143 0 0.101126 0 0)
(-49.8339 -0.0812711 0 0.0107866 0 0)
(-49.8282 -0.0821417 0 0.0101811 0 0)
(-49.8423 -0.107979 0 0.00814455 0 0)
(-49.8756 -0.145483 0 0.00747074 0 0)
(-49.9243 -0.185909 0 0.00768049 0 0)
(-49.9867 -0.228008 0 0.00858629 0 0)
(-50.0567 -0.27319 0 0.0100966 0 0)
(-50.1295 -0.32198 0 0.0121881 0 0)
(-50.2043 -0.373326 0 0.0149293 0 0)
(-50.2821 -0.426457 0 0.0184368 0 0)
(-50.3637 -0.480687 0 0.0227903 0 0)
(-50.45 -0.536624 0 0.0280786 0 0)
(-50.5412 -0.593996 0 0.0343125 0 0)
(-50.6374 -0.653895 0 0.0415903 0 0)
(-50.7382 -0.714902 0 0.0497721 0 0)
(-50.8433 -0.778417 0 0.0590356 0 0)
(-50.9531 -0.841122 0 0.0690262 0 0)
(-51.0671 -0.906135 0 0.0800163 0 0)
(-50.0228 -0.0527603 0 0.011133 0 0)
(-50.0938 -0.0770075 0 0.0105664 0 0)
(-50.1636 -0.105055 0 0.00812852 0 0)
(-50.2217 -0.135261 0 0.00733227 0 0)
(-50.2738 -0.167342 0 0.00768247 0 0)
(-50.3317 -0.201909 0 0.00876528 0 0)
(-50.4003 -0.239862 0 0.0103708 0 0)
(-50.4774 -0.281391 0 0.0124254 0 0)
(-50.5604 -0.32535 0 0.0149509 0 0)
(-50.648 -0.370767 0 0.0180205 0 0)
(-50.7405 -0.417014 0 0.021677 0 0)
(-50.8377 -0.464467 0 0.0259615 0 0)
(-50.9399 -0.512688 0 0.0308478 0 0)
(-51.0468 -0.562088 0 0.0363777 0 0)
(-51.1589 -0.61117 0 0.0424301 0 0)
(-51.2756 -0.660814 0 0.04912 0 0)
(-51.3979 -0.708443 0 0.0561905 0 0)
(-51.5245 -0.756709 0 0.0638397 0 0)
(-50.0142 -0.000989037 0 0.0132031 0 0)
(-50.0666 -0.0282215 0 0.0116267 0 0)
(-50.1252 -0.0543866 0 0.00849096 0 0)
(-50.1993 -0.078869 0 0.0072261 0 0)
(-50.2792 -0.102961 0 0.00713664 0 0)
(-50.3624 -0.12883 0 0.00772844 0 0)
(-50.4516 -0.158051 0 0.00882919 0 0)
(-50.5478 -0.190881 0 0.0103209 0 0)
(-50.65 -0.226264 0 0.0121275 0 0)
(-50.757 -0.263105 0 0.0142611 0 0)
(-50.8681 -0.300494 0 0.0167552 0 0)
(-50.9834 -0.338501 0 0.0196411 0 0)
(-51.1029 -0.376705 0 0.0229043 0 0)
(-51.227 -0.415672 0 0.0265649 0 0)
(-51.3554 -0.454269 0 0.0305281 0 0)
(-51.4882 -0.493468 0 0.0348686 0 0)
(-51.6236 -0.530932 0 0.0394281 0 0)
(-51.7622 -0.569318 0 0.0442784 0 0)
(-49.9724 0.00765073 0 0.0116922 0 0)
(-49.9933 -0.00861093 0 0.0108285 0 0)
(-50.0428 -0.021383 0 0.00818294 0 0)
(-50.1201 -0.0377481 0 0.00714299 0 0)
(-50.2082 -0.0574237 0 0.00705453 0 0)
(-50.2986 -0.0785153 0 0.00757504 0 0)
(-50.3936 -0.100409 0 0.00846594 0 0)
(-50.4974 -0.124045 0 0.009613 0 0)
(-50.6117 -0.150356 0 0.0109922 0 0)
(-50.7349 -0.179347 0 0.0126185 0 0)
(-50.8635 -0.209709 0 0.014508 0 0)
(-50.9948 -0.240347 0 0.0166745 0 0)
(-51.1271 -0.270218 0 0.0190915 0 0)
(-51.2609 -0.299617 0 0.0217601 0 0)
(-51.3958 -0.328226 0 0.0246138 0 0)
(-51.5328 -0.357334 0 0.0277215 0 0)
(-51.6708 -0.385755 0 0.0309744 0 0)
(-51.8116 -0.415609 0 0.0344187 0 0)
(-49.9608 0.0115215 0 0.0118492 0 0)
(-49.9688 0.0179386 0 0.0107715 0 0)
(-50.002 0.0130418 0 0.00792297 0 0)
(-50.0688 0.000690863 0 0.00645253 0 0)
(-50.1613 -0.0150581 0 0.00597978 0 0)
(-50.2672 -0.0309302 0 0.0061557 0 0)
(-50.3763 -0.0455369 0 0.0066541 0 0)
(-50.4864 -0.0604841 0 0.00732466 0 0)
(-50.5999 -0.0782999 0 0.00819479 0 0)
(-50.719 -0.100347 0 0.00928144 0 0)
(-50.844 -0.125868 0 0.0105572 0 0)
(-50.9738 -0.15357 0 0.0120132 0 0)
(-51.107 -0.181751 0 0.013647 0 0)
(-51.2426 -0.209794 0 0.015465 0 0)
(-51.3796 -0.236674 0 0.0174108 0 0)
(-51.5182 -0.263141 0 0.019536 0 0)
(-51.6574 -0.287977 0 0.0217514 0 0)
(-51.7983 -0.313064 0 0.0240626 0 0)
(-49.993 -0.0233255 0 0.00890445 0 0)
(-50.0725 0.0171063 0 0.00748573 0 0)
(-50.1554 0.0312269 0 0.0056295 0 0)
(-50.2468 0.0329448 0 0.00500159 0 0)
(-50.3476 0.0286103 0 0.00498175 0 0)
(-50.4523 0.0216557 0 0.00522313 0 0)
(-50.5562 0.0127576 0 0.00561482 0 0)
(-50.6601 0.00118024 0 0.0061465 0 0)
(-50.7674 -0.0133216 0 0.00682364 0 0)
(-50.8798 -0.0302211 0 0.00764549 0 0)
(-50.9979 -0.0485189 0 0.00860555 0 0)
(-51.1211 -0.0675496 0 0.00970192 0 0)
(-51.249 -0.0866658 0 0.01092 0 0)
(-51.381 -0.105986 0 0.0122619 0 0)
(-51.5176 -0.124962 0 0.0136829 0 0)
(-51.6574 -0.144211 0 0.0152225 0 0)
(-51.8011 -0.162727 0 0.0168221 0 0)
(-51.9466 -0.181937 0 0.0184909 0 0)
(-49.9933 0.0613879 0 0.00830346 0 0)
(-50.0905 0.0593295 0 0.00609751 0 0)
(-50.2096 0.0689966 0 0.00399991 0 0)
(-50.3491 0.070313 0 0.00324094 0 0)
(-50.4926 0.0622922 0 0.00314575 0 0)
(-50.626 0.0518231 0 0.00332823 0 0)
(-50.7492 0.0423607 0 0.00360654 0 0)
(-50.8697 0.0330951 0 0.00394135 0 0)
(-50.9934 0.0222251 0 0.00435736 0 0)
(-51.1221 0.00884382 0 0.00488082 0 0)
(-51.2554 -0.00658908 0 0.00551025 0 0)
(-51.3921 -0.0232509 0 0.00623805 0 0)
(-51.5316 -0.0399903 0 0.00705408 0 0)
(-51.6733 -0.056314 0 0.00795126 0 0)
(-51.8162 -0.0714645 0 0.00889826 0 0)
(-51.9606 -0.0860756 0 0.0099156 0 0)
(-52.1055 -0.0995262 0 0.0109636 0 0)
(-52.2513 -0.113384 0 0.0120521 0 0)
(-49.9235 0.0450029 0 0.00814062 0 0)
(-49.9558 0.0940784 0 0.0059253 0 0)
(-50.0379 0.126117 0 0.00387525 0 0)
(-50.1582 0.135328 0 0.00297975 0 0)
(-50.288 0.131697 0 0.00269336 0 0)
(-50.4171 0.124975 0 0.00272877 0 0)
(-50.5478 0.118439 0 0.00292628 0 0)
(-50.6826 0.11165 0 0.00319814 0 0)
(-50.8206 0.10385 0 0.00351494 0 0)
(-50.9593 0.0948131 0 0.0038846 0 0)
(-51.0978 0.0847741 0 0.00432054 0 0)
(-51.2372 0.0739242 0 0.00482656 0 0)
(-51.3783 0.062657 0 0.00539733 0 0)
(-51.521 0.0510964 0 0.00602924 0 0)
(-51.6656 0.0396924 0 0.00669312 0 0)
(-51.8107 0.0282714 0 0.00741805 0 0)
(-51.9567 0.0174853 0 0.00816972 0 0)
(-52.102 0.00666633 0 0.00893012 0 0)
(-50.2034 0.0399771 0 0.00741455 0 0)
(-50.3159 0.0971285 0 0.005788 0 0)
(-50.4728 0.117759 0 0.00396671 0 0)
(-50.6348 0.120427 0 0.00312719 0 0)
(-50.7794 0.120931 0 0.00282339 0 0)
(-50.9111 0.123037 0 0.00273251 0 0)
(-51.0412 0.123641 0 0.00272745 0 0)
(-51.175 0.120405 0 0.00278349 0 0)
(-51.3118 0.113607 0 0.0029026 0 0)
(-51.4495 0.104665 0 0.00308317 0 0)
(-51.5879 0.0947774 0 0.00331967 0 0)
(-51.728 0.0846982 0 0.00360386 0 0)
(-51.8708 0.0750047 0 0.00393009 0 0)
(-52.0168 0.0657531 0 0.00429736 0 0)
(-52.1661 0.0571968 0 0.00468401 0 0)
(-52.3178 0.0490319 0 0.00511336 0 0)
(-52.4716 0.0416033 0 0.0055667 0 0)
(-52.6264 0.0341867 0 0.00602076 0 0)
(-49.9948 0.109686 0 0.00571269 0 0)
(-50.1262 0.195732 0 0.00329591 0 0)
(-50.2956 0.215946 0 0.00185549 0 0)
(-50.4585 0.214342 0 0.00132103 0 0)
(-50.5904 0.213684 0 0.00110366 0 0)
(-50.7019 0.214209 0 0.00103631 0 0)
(-50.811 0.211855 0 0.00104063 0 0)
(-50.9281 0.206446 0 0.00108345 0 0)
(-51.0549 0.199819 0 0.00116064 0 0)
(-51.1902 0.19323 0 0.00127352 0 0)
(-51.3324 0.187062 0 0.00142246 0 0)
(-51.4801 0.181235 0 0.0016068 0 0)
(-51.6317 0.175732 0 0.00182173 0 0)
(-51.7859 0.170447 0 0.00206272 0 0)
(-51.9411 0.16549 0 0.00231738 0 0)
(-52.0965 0.160636 0 0.00260253 0 0)
(-52.2512 0.156141 0 0.00290173 0 0)
(-52.4052 0.151521 0 0.00320649 0 0)
(-50.098 0.0487409 0 0.00489236 0 0)
(-50.3165 0.133997 0 0.00254169 0 0)
(-50.5364 0.153499 0 0.00143362 0 0)
(-50.7053 0.154707 0 0.00104103 0 0)
(-50.836 0.160906 0 0.0008495 0 0)
(-50.9581 0.168918 0 0.000732165 0 0)
(-51.0864 0.173996 0 0.000664295 0 0)
(-51.2225 0.176363 0 0.000630656 0 0)
(-51.364 0.177382 0 0.000623457 0 0)
(-51.5089 0.177434 0 0.000645024 0 0)
(-51.6562 0.176371 0 0.000695838 0 0)
(-51.8056 0.174421 0 0.000770873 0 0)
(-51.957 0.171844 0 0.000867649 0 0)
(-52.1092 0.169118 0 0.000983497 0 0)
(-52.2626 0.166279 0 0.00111438 0 0)
(-52.4145 0.163624 0 0.0012695 0 0)
(-52.5668 0.161086 0 0.00144064 0 0)
(-52.7154 0.158919 0 0.00161201 0 0)
(-50.1322 0.223532 0 0.0025792 0 0)
(-50.5067 0.306177 0 2.35463e-05 0 0)
(-50.823 0.292344 0 -0.000436187 0 0)
(-51.0353 0.284314 0 -0.000553816 0 0)
(-51.1827 0.287082 0 -0.000673936 0 0)
(-51.303 0.288471 0 -0.000748408 0 0)
(-51.4065 0.286121 0 -0.000771495 0 0)
(-51.4926 0.282484 0 -0.000763273 0 0)
(-51.5614 0.279117 0 -0.000738891 0 0)
(-51.6174 0.276303 0 -0.000705012 0 0)
(-51.6642 0.273739 0 -0.000662223 0 0)
(-51.7062 0.271455 0 -0.000612899 0 0)
(-51.7423 0.269205 0 -0.00055485 0 0)
(-51.7755 0.267135 0 -0.000489561 0 0)
(-51.801 0.264751 0 -0.00041454 0 0)
(-51.8253 0.262452 0 -0.000327625 0 0)
(-51.839 0.259918 0 -0.00022974 0 0)
(-51.8571 0.258012 0 -0.000137932 0 0)
(-49.1048 0.098051 0 0.00270375 0 0)
(-47.5555 0.194938 0 0.000549313 0 0)
(-45.9696 0.191139 0 0.000208786 0 0)
(-44.3715 0.186668 0 5.64446e-05 0 0)
(-42.8338 0.187455 0 -9.21137e-05 0 0)
(-41.3928 0.186355 0 -0.00018657 0 0)
(-40.0531 0.182357 0 -0.000228809 0 0)
(-38.8084 0.177132 0 -0.000245182 0 0)
(-37.6485 0.17195 0 -0.000253485 0 0)
(-36.5659 0.1672 0 -0.000259888 0 0)
(-35.5523 0.162635 0 -0.000261784 0 0)
(-34.6045 0.158038 0 -0.000256157 0 0)
(-33.7152 0.153178 0 -0.000241643 0 0)
(-32.8859 0.148205 0 -0.000222699 0 0)
(-32.1055 0.143092 0 -0.000200411 0 0)
(-31.3827 0.138297 0 -0.000173238 0 0)
(-30.6955 0.133751 0 -0.000146651 0 0)
(-30.0673 0.130139 0 -0.000132114 0 0)
(-0.00803789 0.0255194 -2.36792e-22 -0.061798 4.95898e-22 4.20104e-39)
(-0.0230302 -0.00769842 5.92453e-22 0.0237133 -2.66586e-22 4.13478e-39)
(0.156041 -0.125749 0 0.0512356 0 0)
(0.529782 -0.192234 0 0.0150837 0 0)
(0.904659 -0.121711 0 -0.0562604 0 0)
(1.05613 0.0496256 -5.20665e-22 -0.100712 -3.91725e-22 3.88629e-39)
(0.878184 0.238836 0 -0.0953969 0 0)
(0.394842 0.361422 0 -0.0532381 0 0)
(-0.236348 0.379256 0 0.00555848 0 0)
(-0.839887 0.302185 0 0.0597038 0 0)
(-1.24788 0.164148 -1.41029e-21 0.0932315 4.5914e-22 3.574e-39)
(-1.39122 0.0336353 0 0.0989172 0 0)
(-1.28573 -0.0597903 0 0.0914579 0 0)
(-0.965279 -0.161169 0 0.0867996 0 0)
(-0.492294 -0.28733 0 0.0815281 0 0)
(0.124885 -0.444499 -2.68333e-21 0.0743535 1.40496e-22 3.29205e-39)
(0.940154 -0.372278 0 0.0537876 0 0)
(1.51672 -0.055692 0 0.051243 0 0)
(1.84493 0.114578 0 0.0723539 0 0)
(1.95293 0.175231 0 0.0963321 0 0)
(2.04121 0.195084 0 0.121254 0 0)
(2.27034 0.207666 0 0.149637 0 0)
(2.69688 0.163252 0 0.161894 0 0)
(3.1999 0.000445535 -3.30127e-21 0.138637 -4.69488e-23 2.90172e-39)
(3.92827 -0.197531 3.23369e-21 0.141857 1.59486e-22 2.8565e-39)
(4.68279 -0.199795 -3.11724e-21 0.170275 -2.28098e-22 2.81169e-39)
(5.39214 -0.154839 -2.97625e-21 0.229469 -2.58997e-22 2.76715e-39)
(6.11444 -0.133121 0 0.262693 0 0)
(6.80922 -0.141614 0 0.238669 0 0)
(7.50168 -0.250262 2.67542e-21 0.272444 1.19571e-22 2.62979e-39)
(8.23236 -0.343183 2.66145e-21 0.278458 1.92342e-22 2.58288e-39)
(9.03013 -0.403205 0 0.270402 0 0)
(9.88771 -0.43942 0 0.25856 0 0)
(10.706 -0.440387 2.80855e-21 0.263917 8.01681e-23 2.4464e-39)
(11.432 -0.438678 0 0.286021 0 0)
(12.1227 -0.452789 0 0.332285 0 0)
(12.9299 -0.561757 -3.26175e-21 0.417019 2.00748e-23 2.31724e-39)
(14.0287 -0.736338 0 0.45731 0 0)
(15.3644 -0.862013 -3.99238e-21 0.421483 1.66739e-22 2.23531e-39)
(16.6078 -0.737458 -8.73568e-21 0.320135 3.58308e-22 8.77882e-39)
(17.2581 -0.346464 0 0.245355 0 0)
(17.0807 -0.0511461 0 0.235377 0 0)
(16.2583 0.111128 0 0.267143 0 0)
(15.1163 -0.15365 0 0.298774 0 0)
(14.9077 -0.431842 0 0.373884 0 0)
(15.0233 -0.40781 -1.20112e-20 0.426095 4.55701e-22 7.85046e-39)
(15.2684 -1.00494 -1.23047e-20 0.450464 4.7151e-22 7.70137e-39)
(15.2136 -1.17655 -1.20748e-20 0.555368 5.05246e-22 7.55409e-39)
(15.0671 -0.154527 0 0.287451 0 0)
(13.5818 0.221661 1.14582e-20 0.370087 2.90055e-22 7.26296e-39)
(12.7784 0.0369034 0 0.301348 0 0)
(12.1973 -0.0464256 -1.05921e-20 0.296163 -7.23442e-23 6.98272e-39)
(11.7729 -0.0798869 -1.03198e-20 0.275429 -5.66754e-23 6.8475e-39)
(11.4564 -0.193284 0 0.240553 0 0)
(11.6205 -0.349842 0 0.205093 0 0)
(11.7735 -0.917052 0 0.220957 0 0)
(12.2255 -0.687282 -1.09756e-20 0.210491 6.06121e-22 6.33401e-39)
(11.9678 -0.423568 0 0.322725 0 0)
(12.3965 -0.585475 0 0.257929 0 0)
(13.4093 -0.643254 0 0.225365 0 0)
(14.8698 -0.752342 0 0.183934 0 0)
(16.8922 -0.878607 0 0.150544 0 0)
(19.3375 -0.998376 0 0.121648 0 0)
(22.0198 -1.06174 0 0.101892 0 0)
(24.7933 -1.08338 0 0.0879389 0 0)
(27.4324 -1.05496 1.80669e-20 0.0783232 -9.02235e-22 5.31361e-39)
(29.8064 -0.992004 0 0.0719306 0 0)
(31.7891 -0.887932 0 0.0698232 0 0)
(33.3122 -0.746555 -2.02579e-20 0.0720638 7.6506e-22 5.00792e-39)
(34.365 -0.594235 -2.03414e-20 0.0768773 6.6203e-22 4.90901e-39)
(35.0931 -0.46067 0 0.0825177 0 0)
(35.5699 -0.340304 1.99064e-20 0.0890779 -5.47944e-22 4.7159e-39)
(36.0001 -0.278615 -1.95346e-20 0.100207 5.89485e-22 4.62055e-39)
(36.446 -0.244628 0 0.111833 0 0)
(36.7022 -0.174691 1.83177e-20 0.11305 -5.40396e-22 4.42887e-39)
(36.6681 -0.0588042 0 0.10119 0 0)
(36.2965 0.07046 0 0.0846862 0 0)
(35.4482 0.214306 -1.47167e-20 0.0759149 2.02227e-22 4.15422e-39)
(33.9168 0.376403 0 0.0848032 0 0)
(31.5171 0.559499 1.22218e-20 0.10069 7.88719e-23 3.98288e-39)
(28.3141 0.716733 0 0.126515 0 0)
(24.5345 0.694624 -9.77745e-21 0.157343 -2.56816e-22 3.8195e-39)
(21.0276 0.569552 -8.76956e-21 0.171675 -1.80821e-22 3.74005e-39)
(17.4545 0.339171 -7.88643e-21 0.190463 -4.38535e-23 3.66176e-39)
(14.9555 -0.138326 -1.50008e-20 0.199734 5.43721e-22 1.43367e-38)
(12.2534 -0.47105 1.43422e-20 0.271189 -9.48485e-22 1.40296e-38)
(9.63862 -0.549091 0 0.291123 0 0)
(5.24513 0.19979 0 0.37965 0 0)
(-1.10599 1.68936 0 0.270359 0 0)
(-8.05802 1.59108 7.45825e-21 0.309563 1.05809e-21 1.28163e-38)
(-11.672 0.860931 5.12213e-21 0.222444 2.40844e-22 1.25235e-38)
(-13.2049 0.344793 -4.44698e-21 0.169193 4.15654e-22 1.22407e-38)
(-13.1599 -0.0455212 0 0.12581 0 0)
(-11.949 -0.319384 8.22202e-21 0.0965046 -1.27703e-21 1.17056e-38)
(-9.87757 -0.514242 1.2023e-20 0.0743399 -1.49005e-21 1.14511e-38)
(-7.17913 -0.646206 1.65814e-20 0.0575794 -1.59589e-21 1.12037e-38)
(-4.04388 -0.72956 0 0.0438915 0 0)
(-0.634279 -0.77247 0 0.0325145 0 0)
(2.90854 -0.781408 0 0.0227334 0 0)
(6.4569 -0.761405 3.58239e-20 0.0143055 -1.31063e-21 1.02621e-38)
(9.89721 -0.719032 0 0.00709907 0 0)
(13.1275 -0.654944 0 0.00101224 0 0)
(16.0674 -0.575238 -4.45229e-20 -0.003917 6.9618e-22 9.58558e-39)
(18.647 -0.483737 0 -0.00770908 0 0)
(20.8207 -0.385259 0 -0.0104289 0 0)
(22.5563 -0.283508 -4.45637e-20 -0.0121747 4.30204e-23 8.92887e-39)
(23.8363 -0.182368 0 -0.0130582 0 0)
(24.6599 -0.085153 0 -0.0132043 0 0)
(25.0403 0.0051127 3.6819e-20 -0.0127598 4.29403e-22 8.29765e-39)
(25.0064 0.0862249 3.31001e-20 -0.0118523 5.27869e-22 8.09418e-39)
(24.6002 0.156188 0 -0.0106153 0 0)
(23.8721 0.213885 -2.49861e-20 -0.00916772 -6.33709e-22 7.69956e-39)
(22.8755 0.259238 0 -0.00762555 0 0)
(21.6619 0.293375 1.70079e-20 -0.0060747 6.39715e-22 7.32217e-39)
(20.2769 0.318009 0 -0.00458132 0 0)
(18.7589 0.334899 9.96537e-21 -0.00320196 5.88656e-22 6.96158e-39)
(17.1405 0.345686 6.90763e-21 -0.00191676 5.52855e-22 6.78711e-39)
(15.4503 0.351236 0 -0.00076697 0 0)
(13.7133 0.3521 0 0.000238504 0 0)
(11.9523 0.34851 0 0.00109554 0 0)
(10.1881 0.340799 0 0.00178309 0 0)
(8.43971 0.329384 0 0.00229601 0 0)
(6.72559 0.315884 0 0.00274793 0 0)
(5.06351 0.300988 0 0.00303824 0 0)
(3.45953 0.284942 -6.66792e-21 0.00324655 2.73012e-22 5.50789e-39)
(1.92374 0.266742 7.3265e-21 0.00337042 -2.50617e-22 5.35847e-39)
(0.459457 0.24823 0 0.0034219 0 0)
(-0.92947 0.229838 0 0.00342354 0 0)
(-2.24119 0.211696 0 0.00339164 0 0)
(-3.47548 0.194045 0 0.0033421 0 0)
(-4.63345 0.177092 1.82927e-20 0.00328899 -3.42618e-22 1.86428e-38)
(-5.71701 0.160929 0 0.00324466 0 0)
(-6.72821 0.145534 -1.89716e-20 0.00321897 2.90184e-22 1.76121e-38)
(-7.66887 0.130825 1.92098e-20 0.0032182 -2.62916e-22 1.7114e-38)
(-8.54026 0.11671 0 0.00324808 0 0)
(-9.34313 0.103095 0 0.00331626 0 0)
(-10.0777 0.089905 0 0.00342796 0 0)
(-10.7442 0.076998 -1.95703e-20 0.00358444 1.4388e-22 1.52283e-38)
(-11.3422 0.0641302 -1.95115e-20 0.00378655 1.10495e-22 1.47822e-38)
(-11.8698 0.0509848 0 0.00403209 0 0)
(-12.3237 0.0372113 -1.9229e-20 0.00431572 5.01189e-23 1.39189e-38)
(-12.6984 0.0225718 -1.90099e-20 0.0046293 1.7321e-23 1.35012e-38)
(-12.9876 0.00691306 1.87382e-20 0.00496458 1.6478e-23 1.30925e-38)
(-13.1839 -0.00970443 0 0.00531602 0 0)
(-13.2796 -0.0272345 0 0.00567779 0 0)
(-13.2669 -0.0458084 1.76589e-20 0.00604203 1.08652e-22 1.19191e-38)
(-13.1374 -0.0649984 0 0.00642351 0 0)
(-12.8844 -0.0845208 0 0.00683324 0 0)
(-12.5018 -0.104266 0 0.00727047 0 0)
(-11.9839 -0.122944 0 0.00778754 0 0)
(-11.3308 -0.140189 -1.51708e-20 0.00835511 -2.76265e-22 1.01284e-38)
(-10.5426 -0.154848 -1.45003e-20 0.00901898 -3.05681e-22 9.79388e-39)
(-9.62543 -0.165045 0 0.0100007 0 0)
(-8.59119 -0.171249 -1.28739e-20 0.0113362 -3.92132e-22 9.14734e-39)
(-7.44664 -0.170943 0 0.0136909 0 0)
(-6.2087 -0.16057 0 0.0176453 0 0)
(-4.9024 -0.13547 -8.96161e-21 0.0231292 -4.59936e-22 8.23421e-39)
(-3.56725 -0.0939064 0 0.0303353 0 0)
(-2.25158 -0.0317594 -5.30468e-21 0.0370876 -3.22018e-22 7.66253e-39)
(-1.09893 0.0400545 0 0.0412052 0 0)
(-0.184531 0.0829303 0 0.0399322 0 0)
(0.444136 0.0891535 -5.93585e-22 0.0341253 -6.1345e-24 6.85471e-39)
(0.728741 0.018601 0 0.0257684 0 0)
(1.09796 -0.0903714 6.66973e-22 0.0121392 -1.79584e-22 6.34616e-39)
(1.61694 -0.130248 0 0.0112223 0 0)
(2.18222 -0.128754 0 0.00614034 0 0)
(2.77308 -0.101713 0 0.00426916 0 0)
(3.32983 -0.0524276 -3.11043e-21 0.00313232 1.07577e-22 5.39887e-39)
(3.70544 -0.00298225 0 0.00262266 0 0)
(3.79763 0.0327757 3.44815e-21 0.00199016 5.29922e-23 4.95934e-39)
(3.58958 0.0561131 0 0.00128241 0 0)
(3.1733 0.0612266 0 0.00111342 0 0)
(2.71125 0.0500408 0 0.00108188 0 0)
(2.33135 0.0284048 0 0.000783092 0 0)
(2.09142 0.00946943 0 0.000417216 0 0)
(1.98703 -0.0087651 0 0.000108037 0 0)
(1.95981 -0.0145501 0 -0.00017636 0 0)
(2.02317 -0.0164098 1.57074e-21 -9.91652e-05 1.30348e-22 1.36867e-38)
(1.90399 -0.0126818 0 -0.000955555 0 0)
(2.08637 0.0571457 0 0.00182741 0 0)
(0.00654848 -0.00883289 3.45374e-23 -0.00886822 -3.27002e-21 3.78005e-38)
(0.0381319 -0.129488 -6.31806e-23 0.39959 2.5582e-21 3.72582e-38)
(0.133329 -0.280377 0 0.637088 0 0)
(0.176608 -0.234708 -3.97314e-22 0.461799 -1.8805e-24 1.6031e-38)
(0.0361571 0.14756 0 -0.107188 0 0)
(-0.356664 0.680536 -6.67987e-22 -0.5619 8.74288e-22 3.86582e-39)