/*--------------------------------*- C++ -*----------------------------------*\
  =========                 |
  \\      /  F ield         | OpenFOAM: The Open Source CFD Toolbox
   \\    /   O peration     | Website:  https://openfoam.org
    \\  /    A nd           | Version:  9
     \\/     M anipulation  |
\*---------------------------------------------------------------------------*/
FoamFile
{
    format      ascii;
    class       volScalarField;
    location    "0.01";
    object      k;
}
// * * * * * * * * * * * * * * * * * * * * * * * * * * * * * * * * * * * * * //

dimensions      [0 2 -2 0 0 0 0];

internalField   nonuniform List<scalar> 
12225
(
4.99379e-05
3.26371e-05
3.35509e-05
5.17978e-05
6.18198e-05
6.2296e-05
5.67314e-05
4.2063e-05
3.31912e-05
2.92879e-05
2.7767e-05
2.70659e-05
2.67201e-05
2.66199e-05
2.66298e-05
2.67721e-05
2.7294e-05
3.50058e-05
2.02728e-05
2.04628e-05
2.14936e-05
2.57576e-05
2.95731e-05
3.05059e-05
3.02662e-05
2.8533e-05
2.59374e-05
2.46644e-05
2.42413e-05
2.41953e-05
2.43669e-05
2.47915e-05
2.49992e-05
2.51015e-05
2.52215e-05
2.5606e-05
2.00076e-05
1.43414e-05
1.55157e-05
1.71286e-05
1.78503e-05
1.79329e-05
1.75881e-05
1.64717e-05
1.57298e-05
1.54303e-05
1.53795e-05
1.54109e-05
1.55897e-05
1.62472e-05
1.69662e-05
1.74929e-05
1.80959e-05
1.85311e-05
2.00489e-05
2.0244e-05
2.09719e-05
2.13043e-05
2.12052e-05
2.03972e-05
1.73826e-05
1.56601e-05
1.63947e-05
1.71046e-05
1.72654e-05
1.73333e-05
1.74101e-05
1.7434e-05
1.73921e-05
1.71117e-05
1.58932e-05
1.30091e-05
2.34118e-05
2.4345e-05
2.23133e-05
2.16415e-05
2.27418e-05
2.75158e-05
2.76407e-05
2.53762e-05
2.30197e-05
2.20217e-05
2.17763e-05
2.18178e-05
2.23074e-05
2.34824e-05
2.40762e-05
2.41865e-05
2.40731e-05
2.3312e-05
2.69812e-05
2.42459e-05
2.13099e-05
2.09059e-05
2.14341e-05
2.34044e-05
2.4361e-05
2.43584e-05
2.38913e-05
2.35292e-05
2.3509e-05
2.37477e-05
2.49778e-05
2.62672e-05
2.68131e-05
2.69218e-05
2.6867e-05
2.66084e-05
2.18094e-05
2.13788e-05
2.14979e-05
2.1947e-05
2.30412e-05
2.59487e-05
2.7286e-05
2.71703e-05
2.59501e-05
2.39222e-05
2.2905e-05
2.2487e-05
2.24077e-05
2.25094e-05
2.28143e-05
2.29846e-05
2.30339e-05
2.30834e-05
2.09148e-05
2.06104e-05
2.31439e-05
2.63895e-05
2.90856e-05
3.02896e-05
2.97005e-05
2.60306e-05
2.36664e-05
2.30713e-05
2.31567e-05
2.40152e-05
2.47384e-05
2.4799e-05
2.47196e-05
2.44079e-05
2.41232e-05
2.39819e-05
2.04788e-05
2.0304e-05
2.08566e-05
2.38759e-05
2.98327e-05
3.32031e-05
3.37953e-05
3.23876e-05
3.1512e-05
3.20557e-05
3.69087e-05
4.21913e-05
4.22383e-05
3.7965e-05
3.09592e-05
2.68302e-05
2.46722e-05
2.37247e-05
2.01204e-05
2.04766e-05
2.13875e-05
2.25461e-05
2.58229e-05
3.17562e-05
3.32704e-05
3.52367e-05
4.56666e-05
6.02903e-05
6.3913e-05
6.25565e-05
5.44479e-05
4.06115e-05
3.16215e-05
2.7083e-05
2.50174e-05
2.42934e-05
2.12015e-05
2.48399e-05
2.524e-05
2.42129e-05
2.32422e-05
2.31893e-05
2.33557e-05
2.39944e-05
2.5783e-05
3.14352e-05
4.4497e-05
5.17098e-05
5.25452e-05
5.02659e-05
4.04515e-05
3.1864e-05
2.72245e-05
2.50877e-05
2.02954e-05
2.28464e-05
2.40507e-05
2.40165e-05
2.33365e-05
2.30476e-05
2.3106e-05
2.33512e-05
2.34744e-05
2.36283e-05
2.37987e-05
2.38681e-05
2.38202e-05
2.33841e-05
2.26425e-05
2.22957e-05
2.22251e-05
2.22595e-05
2.00399e-05
2.09665e-05
2.59658e-05
3.14794e-05
3.25283e-05
2.79391e-05
2.27558e-05
2.12211e-05
2.0835e-05
2.07687e-05
2.0775e-05
2.07938e-05
2.0794e-05
2.07849e-05
2.07924e-05
2.09305e-05
2.17216e-05
2.38865e-05
2.0159e-05
2.10981e-05
2.43099e-05
2.67091e-05
2.47537e-05
2.19748e-05
2.11808e-05
2.10663e-05
2.11304e-05
2.12603e-05
2.12928e-05
2.12833e-05
2.12577e-05
2.12586e-05
2.13139e-05
2.16096e-05
2.28222e-05
2.66584e-05
2.19294e-05
2.08136e-05
2.08921e-05
2.11678e-05
2.12681e-05
2.1269e-05
2.12989e-05
2.1653e-05
2.3055e-05
2.35533e-05
2.35619e-05
2.35277e-05
2.32462e-05
2.29042e-05
2.27581e-05
2.27462e-05
2.28087e-05
2.3217e-05
2.24063e-05
2.13585e-05
2.05628e-05
2.04499e-05
2.04743e-05
2.06785e-05
2.1624e-05
2.60289e-05
4.1204e-05
4.94022e-05
4.94866e-05
4.43572e-05
3.48594e-05
2.9386e-05
2.62395e-05
2.43767e-05
2.31571e-05
2.23778e-05
2.04789e-05
2.09671e-05
2.21178e-05
2.10931e-05
2.07814e-05
2.13178e-05
2.26159e-05
2.33987e-05
2.37056e-05
2.36864e-05
2.35302e-05
2.3576e-05
2.43935e-05
2.69164e-05
2.79792e-05
2.79178e-05
2.68045e-05
2.42731e-05
2.05451e-05
2.0794e-05
2.10294e-05
2.25534e-05
2.51278e-05
2.50132e-05
2.41388e-05
2.32407e-05
2.2836e-05
2.28114e-05
2.31255e-05
2.52541e-05
2.91155e-05
3.08299e-05
3.11205e-05
3.08888e-05
2.94517e-05
2.75129e-05
2.02949e-05
2.03422e-05
2.0731e-05
2.19565e-05
2.32246e-05
2.42039e-05
2.39105e-05
2.3352e-05
2.3378e-05
2.40961e-05
2.84605e-05
3.55888e-05
3.7668e-05
3.73905e-05
3.45215e-05
2.97022e-05
2.68425e-05
2.52838e-05
2.07055e-05
2.12804e-05
2.13076e-05
2.07607e-05
2.06593e-05
2.07344e-05
2.10436e-05
2.2145e-05
2.57528e-05
2.81763e-05
2.83437e-05
2.68391e-05
2.36237e-05
2.1961e-05
2.12117e-05
2.09401e-05
2.09003e-05
2.09718e-05
2.02328e-05
2.17974e-05
2.22505e-05
2.22898e-05
2.23567e-05
2.30443e-05
2.35198e-05
2.30913e-05
2.23496e-05
2.21314e-05
2.21195e-05
2.20147e-05
2.15994e-05
2.14144e-05
2.13886e-05
2.14335e-05
2.16164e-05
2.18172e-05
2.25154e-05
2.41837e-05
2.4618e-05
2.36368e-05
2.23114e-05
2.21032e-05
2.24968e-05
2.28191e-05
2.30111e-05
2.31793e-05
2.30313e-05
2.22264e-05
2.15083e-05
2.11428e-05
2.09728e-05
2.0896e-05
2.08342e-05
2.07856e-05
2.03843e-05
2.48172e-05
2.72644e-05
2.76959e-05
2.70988e-05
2.54369e-05
2.39773e-05
2.24824e-05
2.1519e-05
2.10063e-05
2.07913e-05
2.0764e-05
2.08555e-05
2.11381e-05
2.11915e-05
2.11186e-05
2.08597e-05
2.07e-05
2.10729e-05
2.47018e-05
2.49013e-05
2.40161e-05
2.37652e-05
2.4698e-05
2.55396e-05
2.49439e-05
2.36282e-05
2.25073e-05
2.18265e-05
2.14761e-05
2.13088e-05
2.1252e-05
2.12325e-05
2.11874e-05
2.11086e-05
2.10556e-05
2.29838e-05
2.29439e-05
2.22333e-05
2.20091e-05
2.20476e-05
2.25572e-05
2.49803e-05
2.55583e-05
2.40927e-05
2.22637e-05
2.17425e-05
2.16575e-05
2.16892e-05
2.18918e-05
2.2086e-05
2.21528e-05
2.21575e-05
2.21387e-05
2.1057e-05
2.07344e-05
2.06638e-05
2.11312e-05
2.40608e-05
2.72593e-05
2.53517e-05
2.25361e-05
2.20119e-05
2.2197e-05
2.29015e-05
2.33371e-05
2.3801e-05
2.45753e-05
2.5478e-05
2.57781e-05
2.5354e-05
2.4022e-05
2.09581e-05
2.08302e-05
2.01728e-05
1.97229e-05
1.96212e-05
1.9645e-05
1.96293e-05
1.94248e-05
1.91403e-05
1.90644e-05
1.90997e-05
1.94091e-05
1.98329e-05
2.00926e-05
2.02905e-05
2.03371e-05
2.02197e-05
1.95016e-05
2.0003e-05
1.77275e-05
1.20638e-05
1.00536e-05
1.00541e-05
1.04722e-05
1.04923e-05
9.84281e-06
8.73248e-06
8.39919e-06
8.40595e-06
8.58556e-06
9.32447e-06
1.02541e-05
1.09499e-05
1.15101e-05
1.21294e-05
1.28214e-05
2.00261e-05
2.00575e-05
2.0118e-05
2.04384e-05
2.11348e-05
2.14648e-05
2.19271e-05
2.25518e-05
2.34437e-05
2.51078e-05
2.77402e-05
3.08101e-05
3.34454e-05
3.50236e-05
3.55359e-05
3.55374e-05
3.53222e-05
3.46856e-05
2.15464e-05
2.2259e-05
2.2319e-05
2.35517e-05
2.89951e-05
3.28403e-05
3.58713e-05
4.23573e-05
5.16501e-05
5.91943e-05
6.39484e-05
6.62836e-05
6.70259e-05
6.70414e-05
6.6447e-05
6.35636e-05
5.56433e-05
4.83093e-05
3.08893e-06
2.39903e-05
9.28738e-05
0.000227615
0.000401787
0.000583364
0.000762619
0.000938637
0.00111327
0.00129027
0.00147103
0.00165721
0.0018498
0.00204449
0.0022385
0.00242722
0.00258947
0.00270622
0.00276846
0.00279417
0.00275233
0.00265785
0.00250884
0.00231277
0.00208728
0.00182714
0.00153915
0.00127174
0.00102642
0.000780284
0.000550032
0.000405269
0.000278092
0.000171987
0.000120652
8.90506e-05
7.76072e-05
7.5801e-05
7.93285e-05
8.19227e-05
8.32022e-05
8.39058e-05
8.40686e-05
8.3163e-05
8.19186e-05
7.9448e-05
7.6376e-05
7.35402e-05
6.96343e-05
6.5527e-05
6.11219e-05
5.62526e-05
5.14916e-05
4.66215e-05
4.1623e-05
3.6643e-05
3.17143e-05
2.64982e-05
2.16349e-05
1.6788e-05
1.26424e-05
9.45969e-06
7.30428e-06
5.77971e-06
4.65905e-06
3.81391e-06
3.13742e-06
2.57417e-06
2.10202e-06
1.70723e-06
1.37872e-06
1.10686e-06
8.83078e-07
6.99987e-07
5.51096e-07
4.30769e-07
3.3422e-07
2.57304e-07
1.96476e-07
1.4877e-07
1.11673e-07
8.30741e-08
6.12253e-08
4.46926e-08
3.23072e-08
2.3124e-08
1.63857e-08
1.1493e-08
7.97786e-09
5.47969e-09
3.72398e-09
2.50413e-09
1.66634e-09
1.09751e-09
7.15607e-10
4.62005e-10
2.95388e-10
1.8706e-10
1.17352e-10
7.29514e-11
4.49528e-11
2.74671e-11
1.66481e-11
1.00135e-11
5.97949e-12
3.5464e-12
2.09e-12
1.22448e-12
7.13487e-13
4.13787e-13
2.38762e-13
1.37582e-13
7.92425e-14
4.56461e-14
2.63041e-14
1.51749e-14
8.77633e-15
5.10093e-15
2.99252e-15
1.78535e-15
1.09609e-15
7.04116e-16
4.82516e-16
3.58361e-16
2.89818e-16
2.52956e-16
2.34122e-16
2.25515e-16
2.22499e-16
2.22045e-16
2.22045e-16
2.22045e-16
2.22045e-16
2.22045e-16
2.22045e-16
2.22045e-16
2.22045e-16
2.22045e-16
2.22045e-16
2.22045e-16
2.22045e-16
2.22045e-16
2.22045e-16
2.22045e-16
2.22045e-16
2.22045e-16
2.22045e-16
2.22045e-16
2.22045e-16
2.22045e-16
2.22045e-16
2.22045e-16
2.22045e-16
2.22045e-16
2.22045e-16
2.22045e-16
2.22045e-16
2.22045e-16
2.22045e-16
2.22045e-16
2.22045e-16
2.22045e-16
2.22045e-16
2.22045e-16
2.22045e-16
2.22045e-16
2.22045e-16
2.22045e-16
2.22045e-16
2.22045e-16
2.23104e-16
2.42575e-16
3.98358e-16
2.23387e-15
3.74157e-14
1.45428e-12
2.02372e-11
1.63791e-10
1.1392e-09
2.6702e-07
7.74289e-06
4.47907e-05
0.000140079
0.000280038
0.00042486
0.000572951
0.000715264
0.000832343
0.000919413
0.000986807
0.00103771
0.00107616
0.00110049
0.00111016
0.00110963
0.00108743
0.00104757
0.000992584
0.000923652
0.000845884
0.000762921
0.000680133
0.000599149
0.000525234
0.000462672
0.000408189
0.000364659
0.00033586
0.000314491
0.000302672
0.000298466
0.000303037
0.00031142
0.000321679
0.000343586
0.00035717
0.000375077
0.000387326
0.000397662
0.000405668
0.000409092
0.00041001
0.000405914
0.000401033
0.000394495
0.000380475
0.000365858
0.000354059
0.000337909
0.000319674
0.000305817
0.000285799
0.000269332
0.000252187
0.000236048
0.000218667
0.000200715
0.00018092
0.000163096
0.000143167
0.000112372
8.0018e-05
5.69246e-05
4.33294e-05
3.35296e-05
2.691e-05
2.23941e-05
1.87514e-05
1.5661e-05
1.30263e-05
1.07864e-05
8.89038e-06
7.29213e-06
5.9513e-06
4.83154e-06
3.9e-06
3.12961e-06
2.4958e-06
1.97666e-06
1.55454e-06
1.21357e-06
9.39748e-07
7.21575e-07
5.493e-07
4.14538e-07
3.10113e-07
2.2995e-07
1.68975e-07
1.2302e-07
8.87081e-08
6.3342e-08
4.47835e-08
3.13515e-08
2.17353e-08
1.49246e-08
1.01512e-08
6.8397e-09
4.56515e-09
3.01841e-09
1.97731e-09
1.2837e-09
8.26192e-10
5.27325e-10
3.33897e-10
2.09817e-10
1.30892e-10
8.10882e-11
4.98991e-11
3.05086e-11
1.85366e-11
1.11954e-11
6.72274e-12
4.01516e-12
2.38625e-12
1.41037e-12
8.29798e-13
4.86414e-13
2.83987e-13
1.65114e-13
9.56063e-14
5.51544e-14
3.17301e-14
1.82355e-14
1.04999e-14
6.08465e-15
3.57211e-15
2.1438e-15
1.33062e-15
8.65837e-16
5.98752e-16
4.44195e-16
3.54049e-16
3.01058e-16
2.69686e-16
2.50995e-16
2.39795e-16
2.33043e-16
2.28946e-16
2.26437e-16
2.24886e-16
2.23914e-16
2.23295e-16
2.22894e-16
2.22631e-16
2.22454e-16
2.22333e-16
2.22249e-16
2.2219e-16
2.22149e-16
2.22119e-16
2.22097e-16
2.22081e-16
2.22069e-16
2.2206e-16
2.22054e-16
2.22049e-16
2.22047e-16
2.22045e-16
2.22045e-16
2.22045e-16
2.22045e-16
2.22045e-16
2.22045e-16
2.22045e-16
2.22045e-16
2.22045e-16
2.22045e-16
2.22045e-16
2.22045e-16
2.2205e-16
2.22113e-16
2.22695e-16
2.27329e-16
2.77814e-16
1.32222e-15
3.94946e-14
7.89984e-13
6.87752e-12
8.56973e-11
2.15857e-08
7.45315e-06
3.89901e-05
0.000110045
0.00019527
0.000257902
0.000299522
0.000333838
0.000352968
0.000361693
0.000368932
0.000374461
0.00037658
0.000375773
0.000371629
0.000365461
0.00035757
0.000349715
0.00034344
0.00034043
0.000339835
0.000343085
0.000349487
0.00035876
0.000371479
0.00038719
0.000403916
0.000423914
0.000456254
0.000494447
0.000539044
0.000587913
0.000640404
0.000694921
0.00074431
0.000787292
0.000828662
0.000863837
0.00089516
0.000923327
0.000938985
0.000944271
0.000938305
0.000913795
0.000898048
0.000868885
0.00081733
0.000771712
0.00073024
0.000686531
0.000632653
0.000608142
0.000554851
0.000519255
0.000473524
0.000429257
0.000386705
0.00034605
0.000307694
0.000271474
0.00023692
0.0002037
0.000172667
0.000144424
0.000118909
9.65785e-05
7.83584e-05
6.54456e-05
5.55077e-05
4.7024e-05
3.9684e-05
3.33406e-05
2.78787e-05
2.32003e-05
1.9223e-05
1.5857e-05
1.30138e-05
1.06274e-05
8.63323e-06
6.96673e-06
5.58911e-06
4.45548e-06
3.52e-06
2.75848e-06
2.14687e-06
1.66021e-06
1.2758e-06
9.74092e-07
7.387e-07
5.56161e-07
4.15511e-07
3.07915e-07
2.26262e-07
1.64824e-07
1.19022e-07
8.5199e-08
6.04596e-08
4.25343e-08
2.96608e-08
2.04995e-08
1.40471e-08
9.55323e-09
6.45632e-09
4.34042e-09
2.90466e-09
1.93572e-09
1.28465e-09
8.48796e-10
5.58062e-10
3.64897e-10
2.37143e-10
1.53102e-10
9.81626e-11
6.24943e-11
3.94896e-11
2.47521e-11
1.53727e-11
9.43818e-12
5.73556e-12
3.45734e-12
2.06865e-12
1.22975e-12
7.27216e-13
4.2846e-13
2.51971e-13
1.482e-13
8.73466e-14
5.16747e-14
3.0727e-14
1.83824e-14
1.10746e-14
6.72851e-15
4.13328e-15
2.57901e-15
1.64643e-15
1.0862e-15
7.49288e-16
5.46313e-16
4.23597e-16
3.48978e-16
3.03236e-16
2.74873e-16
2.57019e-16
2.45592e-16
2.38162e-16
2.33241e-16
2.29909e-16
2.27609e-16
2.26009e-16
2.24892e-16
2.24102e-16
2.23525e-16
2.2309e-16
2.22761e-16
2.22519e-16
2.22348e-16
2.22235e-16
2.22163e-16
2.22119e-16
2.22093e-16
2.22078e-16
2.22068e-16
2.22062e-16
2.22058e-16
2.22055e-16
2.22053e-16
2.2205e-16
2.22049e-16
2.22048e-16
2.22049e-16
2.22051e-16
2.2206e-16
2.22102e-16
2.22377e-16
2.24687e-16
2.56342e-16
1.11576e-15
2.09829e-14
2.09333e-13
3.54715e-12
8.65253e-10
5.74207e-06
2.33937e-05
5.97817e-05
9.99687e-05
0.00012392
0.000137006
0.000146554
0.000152925
0.000158597
0.000165535
0.000173952
0.000184533
0.000198127
0.000213712
0.000231627
0.000251719
0.000273522
0.000297234
0.000323039
0.000350197
0.000386561
0.000435764
0.000502646
0.000591982
0.000685551
0.000785602
0.000892155
0.00098101
0.00107448
0.00116828
0.00124892
0.0013366
0.00141714
0.00149825
0.00158899
0.0016635
0.0017351
0.00180387
0.00187532
0.00190716
0.00191878
0.00190256
0.00184908
0.00180571
0.00170382
0.00157273
0.00143961
0.00129494
0.00117905
0.00100935
0.000930745
0.000778891
0.000693225
0.000595916
0.000515882
0.000445274
0.000383787
0.000330641
0.000285004
0.000245402
0.000210957
0.000181679
0.000157095
0.000136369
0.00011806
0.000101853
8.76195e-05
7.50846e-05
6.40791e-05
5.44711e-05
4.61256e-05
3.89152e-05
3.27013e-05
2.73537e-05
2.27759e-05
1.88736e-05
1.55657e-05
1.27761e-05
1.04252e-05
8.46381e-06
6.83593e-06
5.47018e-06
4.36215e-06
3.47684e-06
2.76555e-06
2.19296e-06
1.73217e-06
1.36205e-06
1.06567e-06
8.29289e-07
6.41593e-07
4.93285e-07
3.76755e-07
2.85741e-07
2.15123e-07
1.60727e-07
1.19152e-07
8.76263e-08
6.38857e-08
4.61538e-08
3.30864e-08
2.36206e-08
1.6824e-08
1.19536e-08
8.46558e-09
5.96904e-09
4.18537e-09
2.91534e-09
2.01566e-09
1.38252e-09
9.40395e-10
6.34231e-10
4.24079e-10
2.81148e-10
1.84861e-10
1.20605e-10
7.81188e-11
5.02479e-11
3.21019e-11
2.03791e-11
1.28636e-11
8.08045e-12
5.05605e-12
3.15404e-12
1.96273e-12
1.21874e-12
7.55074e-13
4.66593e-13
2.87441e-13
1.76458e-13
1.07934e-13
6.58039e-14
4.00288e-14
2.43407e-14
1.48376e-14
9.10285e-15
5.64947e-15
3.5688e-15
2.3113e-15
1.5463e-15
1.07571e-15
7.82114e-16
5.96033e-16
4.76286e-16
3.97761e-16
3.45012e-16
3.08878e-16
2.8392e-16
2.66602e-16
2.54408e-16
2.45527e-16
2.38826e-16
2.33738e-16
2.29991e-16
2.27361e-16
2.2562e-16
2.24523e-16
2.23841e-16
2.23399e-16
2.23138e-16
2.2291e-16
2.22747e-16
2.2263e-16
2.225e-16
2.22371e-16
2.22318e-16
2.22322e-16
2.22385e-16
2.22574e-16
2.23123e-16
2.24954e-16
2.32713e-16
2.82026e-16
6.48564e-16
3.28081e-15
1.66062e-14
1.58447e-13
3.24414e-13
9.5162e-13
4.2966e-11
4.66211e-06
1.43989e-05
3.30667e-05
5.32051e-05
6.38914e-05
6.95734e-05
7.55271e-05
8.27336e-05
9.28292e-05
0.000106885
0.000124942
0.000146579
0.000171528
0.000198081
0.000226883
0.000257822
0.000296206
0.000346792
0.000418397
0.000527063
0.000664422
0.000769261
0.000868421
0.000948318
0.00103893
0.00111598
0.00120623
0.00134238
0.00146394
0.00159251
0.00173379
0.00188693
0.00205253
0.002219
0.00234206
0.00244996
0.0025487
0.00268032
0.00275896
0.00280095
0.00281782
0.00281408
0.00276756
0.00268118
0.00254042
0.00233238
0.0020718
0.00178275
0.00156255
0.00127955
0.00114191
0.000943433
0.000815435
0.000687644
0.000584526
0.000495948
0.000420508
0.000355476
0.000298481
0.000250294
0.00020972
0.000176065
0.000148274
0.000125301
0.000107208
9.29073e-05
8.12903e-05
7.1176e-05
6.17985e-05
5.32805e-05
4.56561e-05
3.88666e-05
3.28902e-05
2.76898e-05
2.31997e-05
1.93493e-05
1.60677e-05
1.32861e-05
1.09401e-05
8.97101e-06
7.32588e-06
5.95736e-06
4.82383e-06
3.88927e-06
3.12207e-06
2.49461e-06
1.9834e-06
1.56878e-06
1.23397e-06
9.65136e-07
7.50156e-07
5.796e-07
4.45426e-07
3.40384e-07
2.58577e-07
1.95217e-07
1.46432e-07
1.09103e-07
8.07253e-08
5.92997e-08
4.32391e-08
3.12894e-08
2.24658e-08
1.60011e-08
1.13021e-08
7.91455e-09
5.49295e-09
3.77701e-09
2.5721e-09
1.73399e-09
1.15674e-09
7.63208e-10
4.97797e-10
3.20789e-10
2.04115e-10
1.28155e-10
7.93389e-11
4.83908e-11
2.90556e-11
1.71618e-11
9.96581e-12
5.68652e-12
3.18712e-12
1.75832e-12
9.49003e-13
5.10975e-13
2.79228e-13
1.56092e-13
8.98463e-14
5.34968e-14
3.30238e-14
2.11271e-14
1.39736e-14
9.52224e-15
6.65944e-15
4.76484e-15
3.48333e-15
2.59421e-15
1.96409e-15
1.5136e-15
1.18978e-15
9.53702e-16
7.79319e-16
6.49078e-16
5.50932e-16
4.7641e-16
4.19413e-16
3.75653e-16
3.41964e-16
3.15844e-16
2.95506e-16
2.79503e-16
2.66858e-16
2.57015e-16
2.49103e-16
2.42943e-16
2.38262e-16
2.34241e-16
2.31357e-16
2.29273e-16
2.27245e-16
2.26552e-16
2.26693e-16
2.27662e-16
2.2998e-16
2.34783e-16
2.46403e-16
2.65233e-16
3.16433e-16
4.62226e-16
1.0082e-15
3.50511e-15
2.15543e-14
1.58595e-13
1.16848e-12
5.61146e-12
4.35493e-11
5.93385e-11
1.97008e-10
1.91916e-10
4.24982e-06
1.01039e-05
1.98654e-05
3.06825e-05
3.68864e-05
4.16951e-05
4.90819e-05
5.96519e-05
7.43894e-05
9.38534e-05
0.000117557
0.000144861
0.00017497
0.000210117
0.00025464
0.000317894
0.000413623
0.000560807
0.000693113
0.000810105
0.000885331
0.000971754
0.00109226
0.00122787
0.00139706
0.00162585
0.00190928
0.0021349
0.00233346
0.00254558
0.00271773
0.00285919
0.0029924
0.00306212
0.00315003
0.00320461
0.00328334
0.00334174
0.00338081
0.00339634
0.00339176
0.00334695
0.0032387
0.00317427
0.00306882
0.0029584
0.00276768
0.0025426
0.00225105
0.00189599
0.00155464
0.00127153
0.00104366
0.000858959
0.000710973
0.000592086
0.000498478
0.000421377
0.000354903
0.000293014
0.000236905
0.00018914
0.000152522
0.000123785
0.000101216
8.32312e-05
6.88312e-05
5.79593e-05
5.0225e-05
4.44599e-05
3.95726e-05
3.49189e-05
3.03386e-05
2.60954e-05
2.22377e-05
1.87904e-05
1.57592e-05
1.31276e-05
1.08674e-05
8.94418e-06
7.32092e-06
5.96073e-06
4.82867e-06
3.89207e-06
3.12171e-06
2.4914e-06
1.97857e-06
1.56311e-06
1.22852e-06
9.59941e-07
7.46045e-07
5.7586e-07
4.42224e-07
3.37768e-07
2.56522e-07
1.93659e-07
1.45291e-07
1.08295e-07
8.0174e-08
5.89393e-08
4.3014e-08
3.11555e-08
2.23905e-08
1.59617e-08
1.12837e-08
7.90778e-09
5.49222e-09
3.77901e-09
2.57503e-09
1.73692e-09
1.15925e-09
7.65167e-10
4.99215e-10
3.21746e-10
2.04712e-10
1.28486e-10
7.94869e-11
4.84239e-11
2.90211e-11
1.70918e-11
9.88076e-12
5.60029e-12
3.10845e-12
1.68777e-12
8.95478e-13
4.63891e-13
2.34533e-13
1.15731e-13
5.57905e-14
2.6343e-14
1.22532e-14
5.68117e-15
2.68673e-15
1.34721e-15
7.55806e-16
4.94279e-16
3.73401e-16
3.17725e-16
2.9258e-16
2.78884e-16
2.68538e-16
2.60169e-16
2.53285e-16
2.47595e-16
2.42901e-16
2.39036e-16
2.35863e-16
2.33272e-16
2.31152e-16
2.29444e-16
2.28025e-16
2.26912e-16
2.25934e-16
2.25224e-16
2.2457e-16
2.24045e-16
2.23755e-16
2.23224e-16
2.24115e-16
2.2946e-16
2.4525e-16
2.82586e-16
3.61278e-16
5.18919e-16
8.41971e-16
1.54127e-15
3.14859e-15
7.05266e-15
1.70151e-14
4.31681e-14
1.13918e-13
3.045e-13
8.2582e-13
2.16822e-12
5.67966e-12
1.29125e-11
4.8978e-11
5.55099e-11
8.69506e-11
1.12182e-10
4.15555e-06
8.28224e-06
1.37105e-05
2.01566e-05
2.49462e-05
3.04834e-05
3.95582e-05
5.26358e-05
7.07574e-05
9.38379e-05
0.000122652
0.000162139
0.000219244
0.000288447
0.000395395
0.000532111
0.00067993
0.000784658
0.000856831
0.000953877
0.00109657
0.00128321
0.00156389
0.00188529
0.00216995
0.00244538
0.002585
0.00271771
0.00284613
0.0029771
0.00314061
0.00329241
0.00339897
0.00351613
0.00364679
0.00380677
0.00400707
0.0041714
0.00424506
0.0042352
0.00409029
0.00382026
0.00351014
0.0032606
0.00304455
0.00295536
0.00279912
0.00266188
0.00245378
0.0021959
0.00189992
0.00158126
0.00126847
0.00102919
0.00082762
0.000664289
0.000540177
0.000449693
0.00038163
0.000329584
0.000285291
0.000241357
0.000193448
0.000147959
0.000112822
8.70427e-05
6.81946e-05
5.41304e-05
4.33922e-05
3.51162e-05
2.91331e-05
2.51775e-05
2.261e-05
2.04715e-05
1.83309e-05
1.60732e-05
1.38906e-05
1.18571e-05
1.00092e-05
8.36598e-06
6.93031e-06
5.69465e-06
4.64487e-06
3.76281e-06
3.02891e-06
2.4233e-06
1.9275e-06
1.52415e-06
1.19843e-06
9.36562e-07
7.27818e-07
5.61715e-07
4.31211e-07
3.29225e-07
2.49933e-07
1.88615e-07
1.41461e-07
1.05414e-07
7.8027e-08
5.73548e-08
4.18568e-08
3.03195e-08
2.17935e-08
1.55403e-08
1.099e-08
7.70567e-09
5.35497e-09
3.68713e-09
2.51444e-09
1.69759e-09
1.13415e-09
7.49434e-10
4.89545e-10
3.15928e-10
2.01297e-10
1.26537e-10
7.84118e-11
4.78552e-11
2.87361e-11
1.69592e-11
9.82575e-12
5.58196e-12
3.10559e-12
1.69012e-12
8.98706e-13
4.66443e-13
2.36096e-13
1.16477e-13
5.60034e-14
2.62631e-14
1.20449e-14
5.441e-15
2.46212e-15
1.15737e-15
6.02448e-16
3.7319e-16
2.81062e-16
2.45011e-16
2.31255e-16
2.26094e-16
2.24146e-16
2.23371e-16
2.2302e-16
2.22823e-16
2.22689e-16
2.22584e-16
2.22497e-16
2.22423e-16
2.22361e-16
2.22309e-16
2.22263e-16
2.22228e-16
2.22194e-16
2.2217e-16
2.22147e-16
2.22127e-16
2.22117e-16
2.22096e-16
2.22098e-16
2.24405e-16
2.3298e-16
2.53918e-16
2.99389e-16
3.95025e-16
6.02204e-16
1.06956e-15
2.19327e-15
4.99881e-15
1.23599e-14
3.17696e-14
8.46615e-14
2.23792e-13
5.99335e-13
1.51011e-12
4.13724e-12
8.27373e-12
2.82564e-11
2.96352e-11
3.1422e-11
3.92353e-11
4.18394e-06
7.67975e-06
1.10656e-05
1.54762e-05
1.97528e-05
2.58959e-05
3.60749e-05
5.10984e-05
7.19264e-05
0.000102645
0.000145574
0.000202802
0.000276105
0.000382489
0.000499116
0.000637171
0.000793418
0.000931211
0.00111233
0.00135935
0.00165928
0.00199118
0.00233878
0.00258799
0.0027226
0.00292313
0.00309233
0.00321918
0.00349102
0.00374274
0.00409755
0.00455629
0.00515445
0.00604983
0.0071864
0.00858817
0.0100098
0.0108835
0.011206
0.0107993
0.00969109
0.00842008
0.00700836
0.00544202
0.00401596
0.00331955
0.00279691
0.00255104
0.00234304
0.0021675
0.00195323
0.00169145
0.00139181
0.00112212
0.000902784
0.000726997
0.000581606
0.00046544
0.000383969
0.000329819
0.000291576
0.000260215
0.000231761
0.00020077
0.000160083
0.000117261
8.46603e-05
6.16769e-05
4.5745e-05
3.47344e-05
2.68928e-05
2.11112e-05
1.68375e-05
1.39287e-05
1.21399e-05
1.105e-05
1.01322e-05
9.1565e-06
8.08868e-06
7.02413e-06
6.00793e-06
5.06745e-06
4.22071e-06
3.47585e-06
2.83348e-06
2.28873e-06
1.8334e-06
1.45737e-06
1.15021e-06
9.01439e-07
7.01837e-07
5.42618e-07
4.16888e-07
3.1847e-07
2.41868e-07
1.82588e-07
1.36979e-07
1.02101e-07
7.55956e-08
5.5584e-08
4.05779e-08
2.94041e-08
2.11445e-08
1.50848e-08
1.06737e-08
7.48845e-09
5.2076e-09
3.58842e-09
2.44921e-09
1.65513e-09
1.10694e-09
7.32306e-10
4.78971e-10
3.09542e-10
1.97537e-10
1.24389e-10
7.72274e-11
4.72317e-11
2.84277e-11
1.68202e-11
9.77271e-12
5.56901e-12
3.10886e-12
1.69814e-12
9.0657e-13
4.72536e-13
2.40261e-13
1.19085e-13
5.75238e-14
2.70976e-14
1.24792e-14
5.65561e-15
2.56254e-15
1.20149e-15
6.20222e-16
3.79337e-16
2.82449e-16
2.44602e-16
2.30244e-16
2.24953e-16
2.23059e-16
2.22398e-16
2.22173e-16
2.22098e-16
2.22072e-16
2.22062e-16
2.22058e-16
2.22056e-16
2.22054e-16
2.22052e-16
2.22051e-16
2.2205e-16
2.22049e-16
2.22049e-16
2.22048e-16
2.22047e-16
2.22047e-16
2.22046e-16
2.22047e-16
2.23319e-16
2.29865e-16
2.46947e-16
2.84634e-16
3.63077e-16
5.30386e-16
8.98798e-16
1.76643e-15
3.8771e-15
9.30369e-15
2.31988e-14
6.00626e-14
1.5288e-13
3.91758e-13
9.3067e-13
2.63087e-12
4.51509e-12
1.09993e-11
1.20161e-11
1.27785e-11
1.56006e-11
4.27505e-06
7.60177e-06
9.99452e-06
1.35274e-05
1.76575e-05
2.41124e-05
3.49004e-05
5.11376e-05
7.52723e-05
0.000113404
0.000169965
0.000243891
0.000337174
0.000458252
0.000651947
0.000855251
0.000981523
0.00108261
0.00128502
0.00160057
0.00199987
0.00241817
0.0027208
0.00301434
0.00322235
0.00349997
0.00382654
0.00426155
0.00495466
0.0058956
0.00739329
0.0096933
0.0130409
0.0175743
0.0229248
0.02843
0.0328758
0.0349937
0.0355587
0.032808
0.0284189
0.0240925
0.0199986
0.0152233
0.010072
0.0066941
0.00446982
0.00335385
0.00250674
0.00209613
0.00188542
0.00169746
0.00145318
0.00116534
0.000924332
0.000742879
0.000599681
0.000479683
0.00038273
0.000311336
0.000268352
0.000248379
0.000231605
0.000213332
0.000193879
0.000168618
0.000130113
9.06692e-05
6.22983e-05
4.28857e-05
3.01102e-05
2.1803e-05
1.62947e-05
1.24428e-05
9.65488e-06
7.71859e-06
6.47449e-06
5.72059e-06
5.24609e-06
4.83539e-06
4.39537e-06
3.90351e-06
3.39758e-06
2.90385e-06
2.44054e-06
2.02055e-06
1.65054e-06
1.33229e-06
1.06392e-06
8.41436e-07
6.59535e-07
5.12689e-07
3.95335e-07
3.02832e-07
2.30471e-07
1.74268e-07
1.30911e-07
9.76872e-08
7.23997e-08
5.32837e-08
3.89335e-08
2.82378e-08
2.03243e-08
1.45134e-08
1.02795e-08
7.21938e-09
5.02601e-09
3.46735e-09
2.36953e-09
1.60342e-09
1.07389e-09
7.11539e-10
4.6616e-10
3.01804e-10
1.92973e-10
1.21772e-10
7.57774e-11
4.6462e-11
2.80418e-11
1.66422e-11
9.70146e-12
5.54854e-12
3.10976e-12
1.70598e-12
9.15025e-13
4.79351e-13
2.45045e-13
1.22158e-13
5.93705e-14
2.81467e-14
1.30459e-14
5.94793e-15
2.70694e-15
1.26993e-15
6.51366e-16
3.92899e-16
2.8808e-16
2.46836e-16
2.31088e-16
2.25251e-16
2.2315e-16
2.22416e-16
2.22166e-16
2.22084e-16
2.22057e-16
2.22049e-16
2.22046e-16
2.22045e-16
2.22045e-16
2.22045e-16
2.22045e-16
2.22045e-16
2.22045e-16
2.22045e-16
2.22045e-16
2.22045e-16
2.22045e-16
2.22045e-16
2.22045e-16
2.22064e-16
2.25949e-16
2.38453e-16
2.67731e-16
3.29158e-16
4.58531e-16
7.36289e-16
1.37136e-15
2.86736e-15
6.59226e-15
1.57982e-14
3.92606e-14
9.54278e-14
2.30452e-13
5.14645e-13
1.06428e-12
2.23858e-12
3.00511e-12
3.45256e-12
3.76438e-12
4.89684e-12
4.28551e-06
7.76626e-06
9.6315e-06
1.26759e-05
1.67569e-05
2.37009e-05
3.56457e-05
5.51519e-05
8.63987e-05
0.000130122
0.000189892
0.000280799
0.000428964
0.0006097
0.000764202
0.00094998
0.00114767
0.00142917
0.00172825
0.00208899
0.00255038
0.00298187
0.00336306
0.00363564
0.00402116
0.00447312
0.00520032
0.00646493
0.00845917
0.011748
0.017122
0.0255908
0.0380654
0.0514156
0.0646616
0.075
0.0800807
0.0818535
0.0783795
0.0705425
0.0589871
0.0485605
0.038757
0.0292076
0.0218591
0.0157885
0.0099593
0.00668591
0.00434573
0.00284163
0.00208419
0.00172326
0.00151049
0.00122232
0.000936042
0.000721217
0.000582974
0.000480097
0.000385738
0.000309136
0.000249619
0.000210182
0.000198784
0.000198131
0.000192664
0.000181521
0.00016654
0.000140397
0.000100977
6.68163e-05
4.34194e-05
2.83165e-05
1.89485e-05
1.31919e-05
9.56595e-06
7.14099e-06
5.43283e-06
4.25336e-06
3.47018e-06
2.95154e-06
2.61836e-06
2.40729e-06
2.23154e-06
2.04007e-06
1.81682e-06
1.57969e-06
1.34447e-06
1.12246e-06
9.21067e-07
7.44532e-07
5.93595e-07
4.67769e-07
3.64348e-07
2.81237e-07
2.15288e-07
1.63516e-07
1.2326e-07
9.22315e-08
6.85095e-08
5.0516e-08
3.69726e-08
2.68563e-08
1.93577e-08
1.38425e-08
9.81803e-09
6.90513e-09
4.81428e-09
3.32634e-09
2.27681e-09
1.54327e-09
1.03545e-09
6.8737e-10
4.51235e-10
2.92772e-10
1.87633e-10
1.18699e-10
7.40653e-11
4.55462e-11
2.75775e-11
1.64243e-11
9.61122e-12
5.52005e-12
3.10799e-12
1.71354e-12
9.24068e-13
4.86931e-13
2.50492e-13
1.25716e-13
6.15352e-14
2.93897e-14
1.37243e-14
6.30149e-15
2.88343e-15
1.3545e-15
6.90337e-16
4.10216e-16
2.95515e-16
2.49919e-16
2.32322e-16
2.25727e-16
2.23327e-16
2.22479e-16
2.22187e-16
2.2209e-16
2.22059e-16
2.22049e-16
2.22046e-16
2.22045e-16
2.22045e-16
2.22045e-16
2.22045e-16
2.22045e-16
2.22045e-16
2.22045e-16
2.22045e-16
2.22045e-16
2.22045e-16
2.22045e-16
2.22045e-16
2.22046e-16
2.23484e-16
2.30913e-16
2.50758e-16
2.93968e-16
3.84652e-16
5.7475e-16
9.94684e-16
1.94744e-15
4.22083e-15
9.59366e-15
2.25378e-14
5.15068e-14
1.27566e-13
2.38517e-13
5.79387e-13
6.59332e-13
7.21454e-13
8.5761e-13
9.55922e-13
1.31178e-12
4.26056e-06
7.90142e-06
9.63665e-06
1.23231e-05
1.61508e-05
2.3291e-05
3.65248e-05
6.02801e-05
9.95464e-05
0.000158548
0.000240632
0.000360829
0.000529673
0.000738364
0.000952531
0.0011289
0.00133126
0.00161896
0.00211459
0.00264929
0.00313769
0.00356466
0.00395843
0.00433241
0.00491551
0.00591062
0.00777629
0.0110318
0.0166137
0.0264335
0.0377078
0.0575917
0.0807148
0.105692
0.12862
0.147662
0.157831
0.160827
0.145399
0.12454
0.0962189
0.0690645
0.0483662
0.0349466
0.0261106
0.0196635
0.0143038
0.0100976
0.00726427
0.00493228
0.00327001
0.00231245
0.00179192
0.00143135
0.00103389
0.000728219
0.000538166
0.000442085
0.000375183
0.000308476
0.000249397
0.000201544
0.000167835
0.000155696
0.000160375
0.000167107
0.000167039
0.000159307
0.000142793
0.000110654
7.24802e-05
4.53138e-05
2.78613e-05
1.73317e-05
1.11795e-05
7.5789e-06
5.38982e-06
3.96095e-06
2.97594e-06
2.30599e-06
1.84622e-06
1.51995e-06
1.29395e-06
1.15059e-06
1.06417e-06
9.92317e-07
9.09625e-07
8.09464e-07
7.00874e-07
5.9246e-07
4.90138e-07
3.9787e-07
3.17551e-07
2.49734e-07
1.93994e-07
1.49035e-07
1.13346e-07
8.54009e-08
6.37798e-08
4.72305e-08
3.46877e-08
2.52692e-08
1.82588e-08
1.30856e-08
9.30022e-09
6.55385e-09
4.57829e-09
3.16954e-09
2.1739e-09
1.47663e-09
9.92927e-10
6.60667e-10
4.34771e-10
2.82828e-10
1.81765e-10
1.15331e-10
7.21966e-11
4.45544e-11
2.70825e-11
1.6199e-11
9.52426e-12
5.4985e-12
3.11349e-12
1.72729e-12
9.37875e-13
4.9793e-13
2.58269e-13
1.30792e-13
6.465e-14
3.12036e-14
1.47323e-14
6.83782e-15
3.15727e-15
1.48887e-15
7.53788e-16
4.39073e-16
3.08167e-16
2.5527e-16
2.34506e-16
2.26589e-16
2.23656e-16
2.226e-16
2.22231e-16
2.22105e-16
2.22064e-16
2.22051e-16
2.22046e-16
2.22045e-16
2.22045e-16
2.22045e-16
2.22045e-16
2.22045e-16
2.22045e-16
2.22045e-16
2.22045e-16
2.22045e-16
2.22045e-16
2.22045e-16
2.22045e-16