/*--------------------------------*- C++ -*----------------------------------*\
  =========                 |
  \\      /  F ield         | OpenFOAM: The Open Source CFD Toolbox
   \\    /   O peration     | Website:  https://openfoam.org
    \\  /    A nd           | Version:  9
     \\/     M anipulation  |
\*---------------------------------------------------------------------------*/
FoamFile
{
    format      ascii;
    class       volScalarField;
    location    "0.01";
    object      p;
}
// * * * * * * * * * * * * * * * * * * * * * * * * * * * * * * * * * * * * * //

dimensions      [0 2 -2 0 0 0 0];

internalField   nonuniform List<scalar> 
12225
(
-486.996
-477.586
-470.428
-464.758
-459.997
-455.769
-451.883
-448.215
-444.704
-441.335
-438.099
-434.963
-431.869
-428.744
-425.571
-422.24
-418.711
-414.791
-486.709
-477.531
-470.386
-464.74
-459.989
-455.764
-451.883
-448.223
-444.721
-441.355
-438.116
-434.974
-431.875
-428.757
-425.592
-422.307
-418.847
-415.183
-485.28
-477.326
-470.231
-464.639
-459.929
-455.726
-451.858
-448.214
-444.729
-441.374
-438.14
-434.997
-431.899
-428.793
-425.652
-422.435
-419.092
-415.673
-485.608
-477.102
-470.024
-464.525
-459.883
-455.719
-451.867
-448.23
-444.752
-441.403
-438.167
-435.022
-431.933
-428.852
-425.755
-422.618
-419.418
-416.22
-487.802
-476.8
-469.666
-464.298
-459.738
-455.632
-451.819
-448.212
-444.76
-441.43
-438.212
-435.081
-432.007
-428.952
-425.901
-422.844
-419.781
-416.782
-487.656
-476.196
-469.223
-464.028
-459.624
-455.599
-451.82
-448.228
-444.788
-441.47
-438.257
-435.134
-432.081
-429.069
-426.079
-423.115
-420.19
-417.371
-486.198
-475.124
-468.572
-463.66
-459.406
-455.478
-451.761
-448.211
-444.802
-441.512
-438.326
-435.233
-432.207
-429.232
-426.304
-423.427
-420.628
-417.96
-482.915
-473.634
-467.721
-463.219
-459.193
-455.397
-451.741
-448.225
-444.839
-441.566
-438.396
-435.313
-432.331
-429.413
-426.555
-423.774
-421.094
-418.556
-479.166
-471.625
-466.673
-462.701
-458.941
-455.266
-451.682
-448.218
-444.872
-441.633
-438.499
-435.464
-432.506
-429.635
-426.845
-424.149
-421.571
-419.143
-474.066
-468.944
-465.466
-462.125
-458.679
-455.161
-451.661
-448.243
-444.924
-441.704
-438.588
-435.579
-432.672
-429.862
-427.147
-424.537
-422.059
-419.731
-467.754
-466.049
-464.23
-461.655
-458.449
-455.047
-451.614
-448.246
-444.972
-441.802
-438.736
-435.768
-432.905
-430.145
-427.493
-424.954
-422.559
-420.313
-456.818
-462.864
-463.154
-461.149
-458.259
-454.996
-451.638
-448.297
-445.04
-441.885
-438.842
-435.901
-433.083
-430.383
-427.793
-425.325
-423.012
-420.836
-449.427
-460.918
-462.547
-460.971
-458.161
-454.943
-451.628
-448.327
-445.107
-441.998
-439.015
-436.105
-433.328
-430.673
-428.143
-425.751
-423.472
-421.347
-448.282
-460.622
-462.545
-461.019
-458.235
-455.054
-451.747
-448.441
-445.224
-442.122
-439.122
-436.28
-433.554
-430.958
-428.496
-426.168
-423.97
-421.908
-457.686
-463.874
-463.973
-461.665
-458.548
-455.202
-451.824
-448.523
-445.337
-442.279
-439.359
-436.567
-433.897
-431.359
-428.954
-426.68
-424.535
-422.521
-477.751
-470.975
-466.859
-462.934
-459.145
-455.566
-452.09
-448.737
-445.528
-442.478
-439.573
-436.81
-434.193
-431.72
-429.387
-427.185
-425.109
-423.155
-487.138
-477.016
-470.231
-464.711
-460.047
-456.028
-452.358
-448.906
-445.674
-442.653
-439.809
-437.123
-434.573
-432.162
-429.886
-427.736
-425.708
-423.798
-502.692
-484.049
-473.158
-465.985
-460.489
-456.121
-452.365
-448.932
-445.762
-442.801
-440.014
-437.376
-434.883
-432.53
-430.312
-428.22
-426.247
-424.387
-489.489
-477.797
-470.132
-464.377
-459.75
-455.71
-452.068
-448.718
-445.623
-442.764
-440.08
-437.537
-435.129
-432.852
-430.698
-428.661
-426.735
-424.911
-460.484
-464.3
-462.982
-460.032
-457.074
-454.024
-450.967
-448.006
-445.202
-442.525
-439.956
-437.511
-435.191
-432.987
-430.893
-428.904
-427.017
-425.228
-463.847
-463.049
-461.081
-458.884
-456.054
-453.164
-450.262
-447.474
-444.801
-442.231
-439.765
-437.406
-435.158
-433.012
-430.962
-429.01
-427.15
-425.38
-458.928
-459.918
-458.888
-457.152
-454.782
-452.268
-449.642
-447.023
-444.488
-442.032
-439.628
-437.318
-435.109
-432.996
-430.977
-429.052
-427.216
-425.465
-456.546
-459.282
-458.503
-456.484
-454.252
-451.774
-449.201
-446.66
-444.209
-441.802
-439.47
-437.215
-435.05
-432.972
-430.98
-429.072
-427.248
-425.504
-464.529
-460.071
-458.091
-456.064
-453.822
-451.427
-448.962
-446.479
-444.044
-441.675
-439.371
-437.14
-434.994
-432.935
-430.961
-429.07
-427.258
-425.523
-462.177
-459.965
-457.97
-455.84
-453.536
-451.137
-448.705
-446.272
-443.891
-441.563
-439.294
-437.088
-434.961
-432.918
-430.956
-429.073
-427.265
-425.532
-459.404
-459.729
-457.945
-455.752
-453.44
-451.049
-448.607
-446.199
-443.815
-441.493
-439.23
-437.034
-434.917
-432.885
-430.934
-429.059
-427.258
-425.53
-463.115
-460.153
-457.983
-455.651
-453.285
-450.901
-448.5
-446.102
-443.748
-441.448
-439.2
-437.015
-434.905
-432.877
-430.931
-429.059
-427.259
-425.529
-461.723
-460.267
-458.057
-455.65
-453.281
-450.892
-448.475
-446.069
-443.709
-441.399
-439.147
-436.967
-434.87
-432.856
-430.921
-429.057
-427.259
-425.527
-464.371
-460.547
-458.07
-455.615
-453.222
-450.836
-448.43
-446.038
-443.693
-441.392
-439.143
-436.964
-434.867
-432.854
-430.916
-429.05
-427.252
-425.519
-464.844
-460.626
-458.078
-455.63
-453.231
-450.843
-448.43
-446.033
-443.674
-441.359
-439.103
-436.929
-434.844
-432.845
-430.921
-429.063
-427.266
-425.527
-384.6
-384.603
-384.615
-384.632
-384.653
-384.677
-384.705
-384.737
-384.774
-384.819
-384.872
-384.938
-385.019
-385.119
-385.24
-385.387
-385.564
-385.776
-386.026
-386.318
-386.653
-387.03
-387.45
-387.907
-388.396
-388.906
-389.424
-389.933
-390.41
-390.83
-391.164
-391.378
-391.437
-391.307
-390.954
-390.348
-389.465
-388.285
-386.79
-384.976
-382.859
-380.46
-377.81
-374.947
-371.913
-368.752
-365.509
-362.227
-358.95
-355.712
-352.546
-349.478
-346.529
-343.713
-341.039
-338.512
-336.131
-333.894
-331.794
-329.823
-327.973
-326.236
-324.595
-323.041
-321.565
-320.155
-318.804
-317.502
-316.243
-315.018
-313.822
-312.649
-311.494
-310.352
-309.219
-308.093
-306.969
-305.845
-304.718
-303.588
-302.451
-301.306
-300.152
-298.989
-297.814
-296.627
-295.427
-294.214
-292.988
-291.748
-290.493
-289.224
-287.94
-286.641
-285.328
-283.999
-282.655
-281.296
-279.921
-278.532
-277.127
-275.708
-274.273
-272.823
-271.358
-269.878
-268.383
-266.873
-265.348
-263.808
-262.253
-260.684
-259.099
-257.501
-255.887
-254.259
-252.616
-250.958
-249.286
-247.599
-245.897
-244.181
-242.45
-240.704
-238.944
-237.168
-235.378
-233.573
-231.752
-229.917
-228.066
-226.201
-224.32
-222.424
-220.513
-218.586
-216.644
-214.686
-212.712
-210.723
-208.719
-206.698
-204.661
-202.609
-200.54
-198.455
-196.353
-194.235
-192.1
-189.949
-187.78
-185.595
-183.392
-181.172
-178.935
-176.68
-174.407
-172.117
-169.808
-167.481
-165.136
-162.773
-160.39
-157.988
-155.567
-153.127
-150.666
-148.185
-145.683
-143.159
-140.613
-138.042
-135.447
-132.823
-130.169
-127.474
-124.74
-121.931
-119.054
-116.025
-384.531
-384.536
-384.55
-384.57
-384.596
-384.626
-384.661
-384.702
-384.75
-384.806
-384.873
-384.954
-385.052
-385.171
-385.315
-385.486
-385.69
-385.93
-386.209
-386.53
-386.897
-387.309
-387.766
-388.263
-388.794
-389.349
-389.914
-390.472
-391
-391.471
-391.853
-392.112
-392.21
-392.11
-391.776
-391.175
-390.282
-389.077
-387.547
-385.701
-383.548
-381.11
-378.419
-375.511
-372.429
-369.22
-365.929
-362.602
-359.28
-356.001
-352.797
-349.695
-346.716
-343.873
-341.177
-338.631
-336.235
-333.986
-331.876
-329.898
-328.042
-326.299
-324.654
-323.097
-321.616
-320.204
-318.85
-317.545
-316.283
-315.056
-313.858
-312.683
-311.526
-310.382
-309.248
-308.119
-306.994
-305.868
-304.741
-303.609
-302.47
-301.324
-300.17
-299.005
-297.829
-296.641
-295.441
-294.227
-293
-291.759
-290.504
-289.234
-287.949
-286.65
-285.336
-284.006
-282.662
-281.302
-279.928
-278.538
-277.133
-275.713
-274.277
-272.827
-271.362
-269.881
-268.386
-266.876
-265.351
-263.811
-262.256
-260.686
-259.102
-257.503
-255.889
-254.261
-252.618
-250.96
-249.288
-247.6
-245.899
-244.182
-242.451
-240.705
-238.945
-237.169
-235.379
-233.573
-231.753
-229.918
-228.067
-226.201
-224.321
-222.424
-220.513
-218.586
-216.644
-214.686
-212.713
-210.724
-208.719
-206.698
-204.662
-202.609
-200.54
-198.455
-196.353
-194.235
-192.1
-189.949
-187.78
-185.595
-183.392
-181.172
-178.935
-176.68
-174.407
-172.117
-169.808
-167.482
-165.137
-162.773
-160.39
-157.989
-155.568
-153.127
-150.667
-148.186
-145.684
-143.161
-140.615
-138.045
-135.45
-132.828
-130.175
-127.486
-124.755
-121.974
-119.133
-116.288
-384.608
-384.614
-384.629
-384.651
-384.681
-384.717
-384.76
-384.81
-384.87
-384.94
-385.024
-385.124
-385.243
-385.385
-385.554
-385.754
-385.988
-386.262
-386.578
-386.94
-387.35
-387.81
-388.318
-388.872
-389.466
-390.091
-390.732
-391.372
-391.986
-392.547
-393.021
-393.369
-393.551
-393.526
-393.253
-392.698
-391.832
-390.634
-389.089
-387.202
-384.988
-382.474
-379.695
-376.692
-373.512
-370.203
-366.813
-363.39
-359.976
-356.611
-353.327
-350.153
-347.109
-344.211
-341.467
-338.882
-336.455
-334.18
-332.049
-330.055
-328.188
-326.434
-324.779
-323.214
-321.727
-320.308
-318.948
-317.638
-316.371
-315.139
-313.936
-312.756
-311.595
-310.447
-309.309
-308.177
-307.048
-305.919
-304.788
-303.653
-302.512
-301.364
-300.206
-299.039
-297.861
-296.671
-295.469
-294.253
-293.025
-291.782
-290.525
-289.254
-287.968
-286.667
-285.352
-284.022
-282.676
-281.315
-279.94
-278.549
-277.143
-275.722
-274.286
-272.835
-271.369
-269.888
-268.393
-266.882
-265.356
-263.816
-262.261
-260.691
-259.106
-257.506
-255.892
-254.264
-252.62
-250.962
-249.29
-247.603
-245.901
-244.184
-242.453
-240.707
-238.946
-237.17
-235.38
-233.574
-231.754
-229.918
-228.068
-226.202
-224.321
-222.425
-220.513
-218.587
-216.644
-214.686
-212.713
-210.724
-208.719
-206.698
-204.662
-202.609
-200.54
-198.455
-196.353
-194.235
-192.101
-189.949
-187.781
-185.595
-183.392
-181.173
-178.935
-176.68
-174.408
-172.117
-169.809
-167.482
-165.137
-162.773
-160.391
-157.989
-155.569
-153.128
-150.668
-148.187
-145.686
-143.163
-140.617
-138.049
-135.455
-132.835
-130.184
-127.503
-124.781
-122.028
-119.231
-116.462
-384.835
-384.841
-384.857
-384.881
-384.913
-384.954
-385.002
-385.059
-385.128
-385.209
-385.305
-385.419
-385.556
-385.718
-385.91
-386.138
-386.405
-386.716
-387.075
-387.487
-387.955
-388.482
-389.068
-389.712
-390.409
-391.149
-391.92
-392.701
-393.468
-394.188
-394.823
-395.33
-395.661
-395.768
-395.603
-395.124
-394.3
-393.107
-391.53
-389.576
-387.264
-384.627
-381.707
-378.553
-375.216
-371.749
-368.203
-364.628
-361.068
-357.565
-354.154
-350.864
-347.717
-344.731
-341.912
-339.266
-336.789
-334.474
-332.311
-330.288
-328.414
-326.64
-324.97
-323.392
-321.894
-320.465
-319.096
-317.777
-316.502
-315.262
-314.052
-312.865
-311.697
-310.543
-309.399
-308.261
-307.127
-305.993
-304.858
-303.718
-302.573
-301.421
-300.26
-299.089
-297.908
-296.715
-295.509
-294.291
-293.06
-291.815
-290.556
-289.282
-287.995
-286.692
-285.375
-284.043
-282.696
-281.334
-279.957
-278.565
-277.158
-275.736
-274.299
-272.847
-271.38
-269.898
-268.402
-266.89
-265.364
-263.823
-262.267
-260.697
-259.112
-257.512
-255.897
-254.268
-252.625
-250.966
-249.293
-247.606
-245.904
-244.187
-242.455
-240.709
-238.948
-237.172
-235.381
-233.576
-231.755
-229.919
-228.069
-226.203
-224.322
-222.426
-220.514
-218.587
-216.645
-214.687
-212.714
-210.724
-208.72
-206.699
-204.662
-202.609
-200.541
-198.455
-196.354
-194.236
-192.101
-189.949
-187.781
-185.595
-183.393
-181.173
-178.935
-176.681
-174.408
-172.117
-169.809
-167.482
-165.137
-162.774
-160.391
-157.99
-155.569
-153.129
-150.669
-148.189
-145.688
-143.165
-140.621
-138.053
-135.461
-132.844
-130.197
-127.523
-124.815
-122.082
-119.323
-116.596
-385.222
-385.227
-385.241
-385.264
-385.295
-385.334
-385.382
-385.441
-385.512
-385.597
-385.701
-385.826
-385.976
-386.156
-386.372
-386.627
-386.928
-387.281
-387.693
-388.169
-388.715
-389.335
-390.033
-390.806
-391.652
-392.563
-393.526
-394.52
-395.519
-396.485
-397.373
-398.131
-398.7
-399.019
-399.03
-398.678
-397.919
-396.727
-395.091
-393.025
-390.559
-387.737
-384.609
-381.231
-377.664
-373.965
-370.19
-366.392
-362.619
-358.915
-355.316
-351.856
-348.56
-345.444
-342.519
-339.786
-337.239
-334.871
-332.667
-330.615
-328.705
-326.912
-325.225
-323.631
-322.119
-320.676
-319.295
-317.965
-316.678
-315.428
-314.208
-313.012
-311.835
-310.672
-309.52
-308.375
-307.234
-306.093
-304.951
-303.806
-302.655
-301.497
-300.331
-299.156
-297.97
-296.773
-295.564
-294.342
-293.107
-291.859
-290.597
-289.321
-288.03
-286.725
-285.406
-284.071
-282.722
-281.358
-279.979
-278.586
-277.177
-275.754
-274.316
-272.862
-271.394
-269.912
-268.414
-266.901
-265.374
-263.832
-262.276
-260.705
-259.119
-257.519
-255.904
-254.274
-252.63
-250.971
-249.298
-247.61
-245.907
-244.19
-242.458
-240.712
-238.951
-237.174
-235.383
-233.578
-231.757
-229.921
-228.07
-226.204
-224.323
-222.427
-220.515
-218.588
-216.646
-214.688
-212.714
-210.725
-208.72
-206.699
-204.663
-202.61
-200.541
-198.456
-196.354
-194.236
-192.101
-189.95
-187.781
-185.596
-183.393
-181.173
-178.936
-176.681
-174.408
-172.118
-169.809
-167.483
-165.138
-162.774
-160.392
-157.991
-155.571
-153.131
-150.671
-148.191
-145.69
-143.169
-140.625
-138.059
-135.469
-132.854
-130.213
-127.546
-124.85
-122.136
-119.406
-116.708
-385.726
-385.73
-385.743
-385.762
-385.79
-385.825
-385.871
-385.928
-386
-386.088
-386.197
-386.33
-386.493
-386.691
-386.929
-387.215
-387.555
-387.96
-388.436
-388.993
-389.638
-390.379
-391.221
-392.166
-393.216
-394.365
-395.602
-396.906
-398.244
-399.574
-400.838
-401.972
-402.9
-403.543
-403.819
-403.653
-402.984
-401.782
-400.076
-397.869
-395.191
-392.097
-388.659
-384.952
-381.05
-377.02
-372.922
-368.81
-364.736
-360.744
-356.877
-353.173
-349.662
-346.364
-343.29
-340.439
-337.802
-335.364
-333.109
-331.019
-329.074
-327.255
-325.545
-323.931
-322.4
-320.941
-319.544
-318.199
-316.898
-315.635
-314.402
-313.194
-312.006
-310.833
-309.671
-308.516
-307.366
-306.217
-305.067
-303.914
-302.756
-301.592
-300.419
-299.238
-298.047
-296.844
-295.63
-294.404
-293.165
-291.913
-290.647
-289.367
-288.073
-286.765
-285.443
-284.106
-282.754
-281.388
-280.007
-278.612
-277.201
-275.776
-274.336
-272.881
-271.412
-269.928
-268.429
-266.915
-265.387
-263.844
-262.287
-260.715
-259.128
-257.527
-255.911
-254.281
-252.636
-250.977
-249.303
-247.615
-245.912
-244.194
-242.462
-240.715
-238.954
-237.177
-235.386
-233.58
-231.759
-229.923
-228.072
-226.206
-224.324
-222.428
-220.516
-218.589
-216.646
-214.688
-212.715
-210.726
-208.721
-206.7
-204.663
-202.61
-200.541
-198.456
-196.355
-194.236
-192.102
-189.95
-187.781
-185.596
-183.393
-181.173
-178.936
-176.681
-174.409
-172.118
-169.81
-167.483
-165.138
-162.775
-160.393
-157.992
-155.572
-153.132
-150.673
-148.193
-145.693
-143.173
-140.63
-138.066
-135.478
-132.867
-130.23
-127.571
-124.887
-122.188
-119.481
-116.8
-386.311
-386.314
-386.324
-386.341
-386.365
-386.398
-386.441
-386.496
-386.568
-386.658
-386.772
-386.914
-387.09
-387.306
-387.57
-387.89
-388.277
-388.741
-389.294
-389.947
-390.713
-391.603
-392.628
-393.799
-395.123
-396.6
-398.219
-399.957
-401.777
-403.626
-405.435
-407.116
-408.566
-409.671
-410.318
-410.412
-409.887
-408.703
-406.871
-404.406
-401.368
-397.849
-393.958
-389.804
-385.475
-381.042
-376.552
-372.05
-367.582
-363.2
-358.956
-354.903
-351.083
-347.524
-344.24
-341.227
-338.469
-335.945
-333.629
-331.497
-329.515
-327.665
-325.93
-324.292
-322.739
-321.259
-319.843
-318.48
-317.162
-315.882
-314.634
-313.412
-312.21
-311.024
-309.85
-308.684
-307.523
-306.364
-305.204
-304.042
-302.876
-301.704
-300.524
-299.336
-298.138
-296.929
-295.71
-294.478
-293.234
-291.977
-290.707
-289.423
-288.125
-286.813
-285.487
-284.147
-282.793
-281.424
-280.04
-278.642
-277.229
-275.802
-274.36
-272.903
-271.432
-269.947
-268.446
-266.931
-265.402
-263.858
-262.299
-260.726
-259.139
-257.537
-255.92
-254.289
-252.644
-250.984
-249.309
-247.621
-245.917
-244.199
-242.467
-240.719
-238.957
-237.181
-235.389
-233.583
-231.761
-229.925
-228.074
-226.207
-224.326
-222.429
-220.517
-218.59
-216.647
-214.689
-212.716
-210.726
-208.721
-206.701
-204.664
-202.611
-200.542
-198.457
-196.355
-194.237
-192.102
-189.95
-187.782
-185.596
-183.394
-181.174
-178.936
-176.682
-174.409
-172.119
-169.81
-167.484
-165.139
-162.776
-160.394
-157.993
-155.573
-153.134
-150.675
-148.196
-145.697
-143.177
-140.636
-138.073
-135.488
-132.88
-130.249
-127.596
-124.923
-122.237
-119.547
-116.876
-386.948
-386.95
-386.96
-386.975
-386.996
-387.027
-387.068
-387.122
-387.194
-387.286
-387.405
-387.555
-387.743
-387.978
-388.268
-388.626
-389.065
-389.596
-390.236
-391
-391.906
-392.976
-394.234
-395.701
-397.394
-399.315
-401.454
-403.78
-406.245
-408.78
-411.297
-413.677
-415.769
-417.415
-418.483
-418.865
-418.472
-417.236
-415.089
-412.135
-408.515
-404.391
-399.927
-395.266
-390.511
-385.713
-380.888
-376.043
-371.196
-366.387
-361.681
-357.162
-352.91
-348.984
-345.404
-342.166
-339.246
-336.612
-334.225
-332.037
-330.016
-328.135
-326.372
-324.709
-323.132
-321.629
-320.19
-318.805
-317.468
-316.169
-314.903
-313.664
-312.446
-311.245
-310.057
-308.878
-307.704
-306.533
-305.363
-304.191
-303.015
-301.833
-300.645
-299.449
-298.243
-297.027
-295.801
-294.563
-293.313
-292.05
-290.775
-289.486
-288.184
-286.868
-285.538
-284.195
-282.837
-281.464
-280.078
-278.677
-277.262
-275.832
-274.388
-272.929
-271.456
-269.968
-268.466
-266.95
-265.419
-263.873
-262.314
-260.739
-259.151
-257.548
-255.93
-254.299
-252.652
-250.992
-249.317
-247.627
-245.923
-244.205
-242.472
-240.724
-238.961
-237.184
-235.392
-233.586
-231.764
-229.927
-228.076
-226.209
-224.328
-222.431
-220.519
-218.591
-216.649
-214.69
-212.717
-210.727
-208.722
-206.701
-204.665
-202.612
-200.543
-198.457
-196.356
-194.237
-192.102
-189.951
-187.782
-185.597
-183.394
-181.174
-178.937
-176.682
-174.41
-172.119
-169.811
-167.485
-165.14
-162.777
-160.395
-157.994
-155.575
-153.136
-150.677
-148.199
-145.7
-143.182
-140.642
-138.081
-135.498
-132.894
-130.268
-127.622
-124.958
-122.283
-119.605
-116.94
-387.618
-387.62
-387.63
-387.643
-387.663
-387.692
-387.732
-387.785
-387.857
-387.95
-388.072
-388.229
-388.428
-388.68
-388.998
-389.393
-389.883
-390.483
-391.212
-392.095
-393.164
-394.458
-396.016
-397.87
-400.037
-402.517
-405.286
-408.302
-411.5
-414.79
-418.063
-421.187
-423.996
-426.291
-427.858
-428.512
-428.11
-426.589
-423.985
-420.42
-416.07
-411.155
-405.902
-400.526
-395.207
-390.063
-385.095
-380.183
-375.207
-370.134
-365.016
-359.984
-355.198
-350.788
-346.813
-343.277
-340.149
-337.383
-334.893
-332.638
-330.571
-328.656
-326.865
-325.177
-323.575
-322.047
-320.583
-319.174
-317.813
-316.493
-315.207
-313.948
-312.713
-311.495
-310.291
-309.096
-307.909
-306.725
-305.542
-304.358
-303.171
-301.979
-300.781
-299.575
-298.361
-297.138
-295.904
-294.659
-293.402
-292.133
-290.852
-289.558
-288.251
-286.93
-285.596
-284.248
-282.886
-281.51
-280.12
-278.716
-277.298
-275.866
-274.419
-272.958
-271.482
-269.993
-268.489
-266.971
-265.438
-263.891
-262.33
-260.754
-259.165
-257.56
-255.942
-254.309
-252.662
-251.001
-249.325
-247.635
-245.93
-244.211
-242.477
-240.729
-238.966
-237.188
-235.396
-233.589
-231.767
-229.93
-228.078
-226.212
-224.33
-222.433
-220.52
-218.593
-216.65
-214.692
-212.718
-210.728
-208.723
-206.702
-204.665
-202.612
-200.543
-198.458
-196.356
-194.238
-192.103
-189.951
-187.783
-185.597
-183.395
-181.175
-178.937
-176.683
-174.41
-172.12
-169.812
-167.485
-165.141
-162.778
-160.396
-157.996
-155.576
-153.138
-150.68
-148.202
-145.704
-143.187
-140.648
-138.089
-135.509
-132.908
-130.287
-127.647
-124.991
-122.324
-119.655
-116.995
-388.304
-388.307
-388.317
-388.329
-388.349
-388.376
-388.413
-388.465
-388.534
-388.627
-388.751
-388.911
-389.119
-389.387
-389.727
-390.158
-390.695
-391.359
-392.179
-393.194
-394.455
-396.02
-397.937
-400.238
-402.925
-405.974
-409.345
-412.994
-416.878
-420.951
-425.132
-429.293
-433.237
-436.682
-439.262
-440.584
-440.431
-438.785
-435.764
-431.409
-425.932
-419.664
-412.997
-406.305
-399.894
-393.968
-388.589
-383.642
-378.826
-373.863
-368.629
-363.221
-357.896
-352.918
-348.456
-344.554
-341.2
-338.244
-335.635
-333.3
-331.179
-329.225
-327.403
-325.687
-324.059
-322.505
-321.016
-319.582
-318.197
-316.852
-315.543
-314.264
-313.008
-311.771
-310.549
-309.338
-308.135
-306.936
-305.739
-304.542
-303.343
-302.14
-300.931
-299.716
-298.492
-297.26
-296.017
-294.764
-293.501
-292.225
-290.937
-289.637
-288.324
-286.999
-285.659
-284.307
-282.941
-281.561
-280.167
-278.76
-277.338
-275.903
-274.453
-272.99
-271.512
-270.02
-268.514
-266.994
-265.459
-263.911
-262.348
-260.771
-259.18
-257.574
-255.955
-254.321
-252.673
-251.011
-249.334
-247.643
-245.938
-244.218
-242.484
-240.735
-238.971
-237.193
-235.4
-233.593
-231.77
-229.933
-228.081
-226.214
-224.332
-222.435
-220.522
-218.595
-216.652
-214.693
-212.719
-210.73
-208.724
-206.703
-204.666
-202.613
-200.544
-198.459
-196.357
-194.239
-192.104
-189.952
-187.783
-185.598
-183.395
-181.175
-178.938
-176.683
-174.411
-172.12
-169.812
-167.486
-165.142
-162.779
-160.397
-157.997
-155.578
-153.14
-150.682
-148.205
-145.709
-143.192
-140.655
-138.098
-135.52
-132.922
-130.305
-127.671
-125.021
-122.362
-119.699
-117.042
-388.991
-388.997
-389.008
-389.021
-389.039
-389.064
-389.098
-389.145
-389.211
-389.3
-389.42
-389.58
-389.791
-390.066
-390.423
-390.879
-391.454
-392.175
-393.082
-394.232
-395.696
-397.542
-399.814
-402.525
-405.657
-409.179
-413.077
-417.369
-422.1
-427.301
-432.941
-438.86
-444.728
-450.064
-454.305
-456.9
-457.483
-455.898
-452.207
-446.593
-439.43
-431.222
-422.531
-413.882
-405.686
-398.259
-391.827
-386.413
-381.643
-376.969
-371.979
-366.501
-360.764
-355.23
-350.258
-345.988
-342.338
-339.194
-336.453
-334.027
-331.841
-329.84
-327.981
-326.234
-324.578
-322.998
-321.483
-320.024
-318.613
-317.244
-315.91
-314.608
-313.33
-312.072
-310.831
-309.602
-308.381
-307.166
-305.955
-304.743
-303.531
-302.315
-301.095
-299.868
-298.634
-297.392
-296.141
-294.88
-293.608
-292.325
-291.03
-289.724
-288.405
-287.073
-285.729
-284.371
-283
-281.616
-280.218
-278.807
-277.382
-275.943
-274.491
-273.024
-271.544
-270.049
-268.541
-267.019
-265.482
-263.932
-262.367
-260.789
-259.196
-257.59
-255.969
-254.334
-252.685
-251.021
-249.344
-247.652
-245.946
-244.225
-242.49
-240.741
-238.977
-237.198
-235.405
-233.597
-231.774
-229.937
-228.084
-226.217
-224.334
-222.437
-220.524
-218.596
-216.653
-214.695
-212.721
-210.731
-208.726
-206.704
-204.667
-202.614
-200.545
-198.459
-196.358
-194.239
-192.104
-189.953
-187.784
-185.598
-183.396
-181.176
-178.938
-176.684
-174.411
-172.121
-169.813
-167.487
-165.143
-162.78
-160.399
-157.999
-155.58
-153.142
-150.685
-148.209
-145.713
-143.197
-140.662
-138.106
-135.531
-132.937
-130.324
-127.694
-125.05
-122.396
-119.738
-117.082
-389.674
-389.684
-389.698
-389.712
-389.729
-389.751
-389.781
-389.821
-389.878
-389.958
-390.069
-390.219
-390.423
-390.695
-391.054
-391.52
-392.116
-392.875
-393.851
-395.115
-396.753
-398.837
-401.399
-404.441
-407.937
-411.883
-416.329
-421.401
-427.243
-433.953
-441.489
-449.575
-457.674
-465.045
-470.892
-474.555
-475.606
-473.852
-469.413
-462.537
-453.716
-443.59
-432.878
-422.257
-412.214
-403.083
-395.208
-388.837
-383.778
-379.34
-374.71
-369.398
-363.403
-357.465
-352.079
-347.449
-343.548
-340.23
-337.357
-334.826
-332.562
-330.502
-328.598
-326.815
-325.128
-323.519
-321.977
-320.492
-319.056
-317.662
-316.304
-314.977
-313.676
-312.396
-311.134
-309.885
-308.646
-307.414
-306.186
-304.96
-303.733
-302.504
-301.271
-300.032
-298.788
-297.535
-296.274
-295.004
-293.723
-292.432
-291.13
-289.817
-288.491
-287.153
-285.803
-284.44
-283.064
-281.676
-280.274
-278.858
-277.429
-275.987
-274.531
-273.062
-271.578
-270.081
-268.57
-267.046
-265.507
-263.955
-262.389
-260.808
-259.214
-257.606
-255.984
-254.348
-252.697
-251.033
-249.355
-247.662
-245.955
-244.233
-242.498
-240.747
-238.983
-237.204
-235.41
-233.601
-231.778
-229.94
-228.087
-226.22
-224.337
-222.439
-220.526
-218.598
-216.655
-214.696
-212.722
-210.732
-208.727
-206.706
-204.668
-202.615
-200.546
-198.46
-196.358
-194.24
-192.105
-189.953
-187.785
-185.599
-183.396
-181.176
-178.939
-176.684
-174.412
-172.122
-169.814
-167.488
-165.143
-162.781
-160.4
-158
-155.582
-153.145
-150.688
-148.212
-145.717
-143.203
-140.669
-138.115
-135.542
-132.95
-130.341
-127.715
-125.076
-122.427
-119.772
-117.116
-390.352
-390.369
-390.389
-390.407
-390.424
-390.443
-390.465
-390.495
-390.538
-390.602
-390.693
-390.824
-391.007
-391.26
-391.602
-392.053
-392.648
-393.417
-394.428
-395.757
-397.503
-399.744
-402.507
-405.791
-409.583
-413.903
-418.872
-424.709
-431.611
-439.685
-448.826
-458.619
-468.367
-477.191
-484.143
-488.477
-489.765
-487.901
-482.961
-475.162
-465.039
-453.354
-441.002
-428.877
-417.564
-407.266
-398.246
-391.004
-385.58
-381.194
-376.739
-371.59
-365.599
-359.442
-353.764
-348.874
-344.786
-341.329
-338.341
-335.706
-333.349
-331.213
-329.253
-327.427
-325.704
-324.064
-322.494
-320.983
-319.522
-318.103
-316.721
-315.369
-314.044
-312.741
-311.456
-310.187
-308.928
-307.677
-306.432
-305.19
-303.948
-302.704
-301.458
-300.207
-298.951
-297.687
-296.416
-295.136
-293.846
-292.547
-291.237
-289.916
-288.583
-287.239
-285.883
-284.514
-283.133
-281.739
-280.332
-278.913
-277.48
-276.034
-274.574
-273.101
-271.615
-270.115
-268.602
-267.075
-265.534
-263.979
-262.411
-260.829
-259.233
-257.624
-256
-254.362
-252.711
-251.045
-249.366
-247.672
-245.964
-244.242
-242.505
-240.755
-238.989
-237.209
-235.415
-233.606
-231.783
-229.944
-228.091
-226.223
-224.34
-222.442
-220.529
-218.6
-216.657
-214.698
-212.724
-210.734
-208.728
-206.707
-204.67
-202.616
-200.547
-198.461
-196.359
-194.241
-192.106
-189.954
-187.785
-185.6
-183.397
-181.177
-178.94
-176.685
-174.413
-172.122
-169.815
-167.489
-165.144
-162.782
-160.401
-158.002
-155.584
-153.147
-150.691
-148.216
-145.722
-143.208
-140.675
-138.124
-135.553
-132.964
-130.358
-127.735
-125.1
-122.454
-119.801
-117.146
-391.041
-391.066
-391.098
-391.123
-391.141
-391.154
-391.165
-391.179
-391.201
-391.239
-391.301
-391.398
-391.546
-391.763
-392.066
-392.48
-393.038
-393.782
-394.778
-396.112
-397.883
-400.171
-403.017
-406.421
-410.38
-414.934
-420.23
-426.514
-434.011
-442.813
-452.783
-463.434
-473.999
-483.544
-491.124
-495.907
-497.405
-495.49
-490.18
-481.778
-470.902
-458.385
-445.196
-432.332
-420.463
-409.783
-400.399
-392.73
-387.065
-382.712
-378.357
-373.247
-367.25
-361.006
-355.211
-350.21
-346.019
-342.466
-339.38
-336.647
-334.194
-331.975
-329.946
-328.069
-326.306
-324.632
-323.031
-321.492
-320.006
-318.563
-317.156
-315.78
-314.431
-313.104
-311.796
-310.504
-309.225
-307.955
-306.691
-305.432
-304.174
-302.916
-301.655
-300.392
-299.123
-297.848
-296.565
-295.275
-293.976
-292.668
-291.349
-290.02
-288.68
-287.329
-285.967
-284.592
-283.205
-281.806
-280.395
-278.97
-277.533
-276.083
-274.62
-273.144
-271.654
-270.151
-268.635
-267.105
-265.562
-264.005
-262.435
-260.851
-259.253
-257.642
-256.017
-254.378
-252.725
-251.059
-249.378
-247.683
-245.974
-244.251
-242.514
-240.762
-238.996
-237.216
-235.421
-233.611
-231.787
-229.948
-228.095
-226.226
-224.343
-222.445
-220.531
-218.603
-216.659
-214.7
-212.725
-210.735
-208.73
-206.708
-204.671
-202.617
-200.548
-198.462
-196.36
-194.242
-192.106
-189.955
-187.786
-185.6
-183.397
-181.178
-178.94
-176.686
-174.413
-172.123
-169.815
-167.489
-165.145
-162.783
-160.403
-158.004
-155.586
-153.149
-150.694
-148.219
-145.726
-143.214
-140.682
-138.132
-135.563
-132.977
-130.373
-127.754
-125.122
-122.478
-119.827
-117.172
-391.768
-391.802
-391.855
-391.89
-391.909
-391.914
-391.909
-391.899
-391.889
-391.89
-391.909
-391.958
-392.054
-392.214
-392.459
-392.811
-393.301
-393.976
-394.899
-396.16
-397.854
-400.071
-402.859
-406.23
-410.177
-414.739
-420.048
-426.318
-433.754
-442.454
-452.265
-462.716
-473.061
-482.397
-489.835
-494.6
-496.214
-494.254
-488.918
-480.574
-469.882
-457.668
-444.834
-432.336
-420.809
-410.407
-401.241
-393.723
-388.182
-383.952
-379.638
-374.439
-368.353
-362.106
-356.354
-351.383
-347.179
-343.575
-340.416
-337.599
-335.062
-332.765
-330.67
-328.74
-326.935
-325.225
-323.591
-322.021
-320.506
-319.038
-317.607
-316.207
-314.833
-313.481
-312.15
-310.835
-309.534
-308.244
-306.962
-305.684
-304.41
-303.136
-301.862
-300.584
-299.302
-298.015
-296.722
-295.421
-294.112
-292.794
-291.467
-290.13
-288.782
-287.424
-286.055
-284.674
-283.281
-281.877
-280.46
-279.031
-277.589
-276.135
-274.668
-273.188
-271.695
-270.189
-268.67
-267.137
-265.592
-264.033
-262.46
-260.874
-259.275
-257.662
-256.035
-254.395
-252.74
-251.072
-249.391
-247.695
-245.985
-244.261
-242.522
-240.77
-239.003
-237.222
-235.427
-233.617
-231.792
-229.953
-228.099
-226.23
-224.346
-222.448
-220.534
-218.605
-216.661
-214.702
-212.727
-210.737
-208.731
-206.71
-204.672
-202.619
-200.549
-198.463
-196.361
-194.242
-192.107
-189.955
-187.787
-185.601
-183.398
-181.178
-178.941
-176.686
-174.414
-172.124
-169.816
-167.49
-165.146
-162.784
-160.404
-158.005
-155.588
-153.152
-150.697
-148.223
-145.73
-143.219
-140.689
-138.14
-135.573
-132.988
-130.387
-127.771
-125.141
-122.5
-119.85
-117.194
-392.631
-392.668
-392.746
-392.794
-392.811
-392.799
-392.766
-392.717
-392.66
-392.606
-392.565
-392.548
-392.571
-392.653
-392.813
-393.074
-393.465
-394.026
-394.82
-395.927
-397.442
-399.455
-402.031
-405.19
-408.923
-413.24
-418.206
-423.962
-430.664
-438.393
-447.027
-456.186
-465.244
-473.423
-479.952
-484.142
-485.548
-483.948
-479.233
-471.771
-462.269
-451.484
-440.119
-429.013
-418.794
-409.448
-400.967
-393.938
-388.81
-384.772
-380.408
-375.018
-368.844
-362.695
-357.121
-352.297
-348.158
-344.559
-341.372
-338.51
-335.92