/*--------------------------------*- C++ -*----------------------------------*\
  =========                 |
  \\      /  F ield         | OpenFOAM: The Open Source CFD Toolbox
   \\    /   O peration     | Website:  https://openfoam.org
    \\  /    A nd           | Version:  9
     \\/     M anipulation  |
\*---------------------------------------------------------------------------*/
FoamFile
{
    format      ascii;
    class       volScalarField;
    location    "0.01";
    object      pMean;
}
// * * * * * * * * * * * * * * * * * * * * * * * * * * * * * * * * * * * * * //

dimensions      [0 2 -2 0 0 0 0];

internalField   nonuniform List<scalar> 
12225
(
-2.92149
-3.50229
-3.84387
-4.0071
-4.12081
-4.24284
-4.38247
-4.53564
-4.69906
-4.87269
-5.05677
-5.25274
-5.46393
-5.6948
-5.95747
-6.26262
-6.65019
-7.1807
-3.11023
-3.53429
-3.84789
-4.01549
-4.12968
-4.24903
-4.38683
-4.53876
-4.70153
-4.87338
-5.05675
-5.25007
-5.46199
-5.68817
-5.95373
-6.24289
-6.62557
-7.06617
-3.15302
-3.53034
-3.83056
-4.01181
-4.13214
-4.25014
-4.38578
-4.53689
-4.69837
-4.86904
-5.04954
-5.24179
-5.44907
-5.67558
-5.92945
-6.21856
-6.55764
-6.9427
-3.43394
-3.59133
-3.83605
-4.02228
-4.14606
-4.25916
-4.38967
-4.53738
-4.69678
-4.86447
-5.04248
-5.23131
-5.43579
-5.6576
-5.90461
-6.17965
-6.48552
-6.81623
-3.48449
-3.60214
-3.82623
-4.01477
-4.14582
-4.26032
-4.38822
-4.53355
-4.69075
-4.85639
-5.03108
-5.21648
-5.41577
-5.63156
-5.8679
-6.12623
-6.40423
-6.6943
-3.53829
-3.66023
-3.84536
-4.01811
-4.15059
-4.26512
-4.38895
-4.52977
-4.68351
-4.84599
-5.01702
-5.19828
-5.39216
-5.60076
-5.82559
-6.06681
-6.32098
-6.58139
-3.5316
-3.69672
-3.86536
-4.01857
-4.14987
-4.26718
-4.38877
-4.52479
-4.67374
-4.8319
-4.99823
-5.17388
-5.36051
-5.55988
-5.77251
-5.99764
-6.23148
-6.46851
-3.61409
-3.72541
-3.86917
-4.01497
-4.14544
-4.26267
-4.3822
-4.51418
-4.65936
-4.81376
-4.97554
-5.1453
-5.32466
-5.5146
-5.71474
-5.92431
-6.14002
-6.35812
-3.78068
-3.79632
-3.89523
-4.02651
-4.15122
-4.26489
-4.38032
-4.50682
-4.64478
-4.79186
-4.94633
-5.10849
-5.27874
-5.4577
-5.64518
-5.83994
-6.03964
-6.24172
-3.75467
-3.79145
-3.88975
-4.01765
-4.13963
-4.25197
-4.36612
-4.48892
-4.62138
-4.76249
-4.91121
-5.06643
-5.22822
-5.39653
-5.5715
-5.75187
-5.93638
-6.12242
-3.88964
-3.85159
-3.92089
-4.035
-4.14539
-4.24915
-4.35718
-4.47455
-4.60082
-4.73417
-4.87352
-5.0185
-5.16918
-5.32568
-5.48763
-5.65403
-5.82373
-5.9955
-3.80607
-3.84948
-3.92717
-4.02456
-4.12681
-4.23035
-4.33725
-4.44975
-4.56911
-4.69539
-4.82797
-4.96568
-5.10776
-5.25404
-5.40433
-5.55781
-5.71395
-5.87156
-3.71957
-3.8588
-3.96019
-4.03662
-4.1221
-4.21892
-4.32111
-4.42817
-4.54057
-4.65822
-4.78082
-4.90797
-5.03926
-5.17399
-5.31171
-5.45188
-5.59433
-5.73845
-3.81903
-3.88501
-3.95624
-4.02715
-4.1057
-4.19433
-4.28967
-4.39011
-4.4952
-4.60448
-4.7176
-4.83442
-4.95435
-5.07669
-5.20073
-5.32613
-5.4523
-5.57916
-3.9078
-3.90893
-3.94845
-4.01444
-4.09168
-4.17314
-4.25888
-4.349
-4.44277
-4.5396
-4.63921
-4.74121
-4.84536
-4.95096
-5.05749
-5.16424
-5.27137
-5.37818
-3.8912
-3.907
-3.94003
-3.99337
-4.06166
-4.13194
-4.20405
-4.28128
-4.36364
-4.44842
-4.53408
-4.62066
-4.708
-4.79537
-4.88225
-4.96826
-5.05317
-5.13645
-3.86015
-3.89742
-3.92433
-3.95854
-4.00969
-4.06785
-4.12823
-4.19247
-4.26051
-4.32969
-4.3979
-4.46482
-4.531
-4.59643
-4.66038
-4.72226
-4.78182
-4.83887
-3.94013
-3.90224
-3.89601
-3.90895
-3.94348
-3.99088
-4.04039
-4.08903
-4.13682
-4.1837
-4.22932
-4.27371
-4.31679
-4.35784
-4.39615
-4.43109
-4.46248
-4.48998
-3.76125
-3.77441
-3.79173
-3.81029
-3.83544
-3.86372
-3.89484
-3.92984
-3.96545
-3.99687
-4.02275
-4.04427
-4.06225
-4.07658
-4.08694
-4.09294
-4.09457
-4.09164
-3.65624
-3.67787
-3.69653
-3.719
-3.74535
-3.77026
-3.79329
-3.81347
-3.82919
-3.83991
-3.84656
-3.84932
-3.84785
-3.84161
-3.8304
-3.81409
-3.79273
-3.76628
-3.7393
-3.6494
-3.61783
-3.63186
-3.65294
-3.67166
-3.69024
-3.70603
-3.71547
-3.71862
-3.71614
-3.70817
-3.69417
-3.67425
-3.64868
-3.61773
-3.58145
-3.54017
-3.4992
-3.49692
-3.51842
-3.55563
-3.5885
-3.60669
-3.61794
-3.62718
-3.6312
-3.6272
-3.616
-3.59865
-3.5752
-3.54547
-3.50958
-3.46788
-3.4205
-3.36792
-3.28266
-3.3898
-3.46968
-3.51158
-3.5301
-3.54295
-3.55574
-3.56569
-3.56732
-3.55899
-3.54187
-3.51772
-3.48692
-3.44943
-3.40543
-3.35521
-3.29914
-3.23758
-3.16409
-3.27228
-3.37978
-3.44631
-3.47922
-3.49587
-3.50621
-3.51209
-3.51072
-3.49974
-3.47959
-3.45127
-3.4156
-3.37294
-3.32346
-3.26751
-3.20548
-3.13794
-3.19884
-3.25564
-3.34293
-3.41445
-3.45433
-3.47197
-3.47936
-3.48214
-3.47834
-3.46522
-3.44203
-3.40982
-3.36976
-3.32249
-3.26824
-3.20736
-3.14019
-3.0674
-3.00396
-3.14685
-3.28067
-3.37341
-3.42114
-3.43938
-3.44579
-3.44718
-3.44296
-3.42906
-3.40446
-3.37034
-3.32798
-3.27802
-3.22077
-3.15665
-3.08614
-3.00982
-3.00259
-3.13042
-3.26997
-3.36522
-3.41155
-3.42796
-3.43328
-3.43448
-3.42877
-3.41278
-3.38593
-3.34952
-3.30473
-3.25216
-3.19213
-3.12508
-3.05153
-2.97209
-2.88609
-3.07767
-3.24563
-3.34684
-3.39059
-3.40577
-3.41263
-3.41499
-3.40915
-3.3926
-3.36543
-3.32871
-3.28327
-3.22956
-3.16794
-3.09893
-3.02323
-2.94176
-2.84098
-3.06187
-3.24328
-3.34225
-3.3834
-3.39916
-3.40714
-3.40939
-3.40244
-3.38446
-3.35596
-3.31798
-3.27123
-3.21603
-3.15283
-3.08202
-3.00434
-2.92035
-2.72494
-3.03298
-3.24232
-3.33666
-3.37374
-3.38925
-3.39753
-3.39955
-3.39214
-3.374
-3.34576
-3.3081
-3.2614
-3.20584
-3.14193
-3.06999
-2.99094
-2.90488
-6.91967
-6.92817
-6.94531
-6.97056
-7.00386
-7.04502
-7.09396
-7.15062
-7.21498
-7.28701
-7.36656
-7.45342
-7.54721
-7.64728
-7.75262
-7.86198
-7.97369
-8.08555
-8.19475
-8.29796
-8.39107
-8.46935
-8.52725
-8.55849
-8.55602
-8.51212
-8.41858
-8.26682
-8.04826
-7.75456
-7.37817
-6.91245
-6.35251
-5.69524
-4.9399
-4.08826
-3.14461
-2.11582
-1.01151
0.156016
1.37249
2.62259
3.89048
5.1602
6.41642
7.64464
8.83208
9.96745
11.0419
12.0481
12.9815
13.8393
14.6207
15.326
15.9574
16.5178
17.0111
17.4416
17.8137
18.1326
18.4029
18.63
18.818
18.9712
19.0935
19.1885
19.2597
19.31
19.3424
19.3592
19.3627
19.3548
19.3375
19.3121
19.2802
19.2429
19.2013
19.1563
19.1088
19.0594
19.0088
18.9574
18.9058
18.8542
18.803
18.7525
18.7029
18.6544
18.6071
18.5611
18.5165
18.4733
18.4317
18.3917
18.3532
18.3162
18.2808
18.2469
18.2145
18.1836
18.1541
18.126
18.0993
18.0738
18.0496
18.0266
18.0048
17.9841
17.9644
17.9457
17.928
17.9112
17.8953
17.8801
17.8657
17.852
17.839
17.8267
17.8149
17.8037
17.7931
17.783
17.7733
17.7641
17.7553
17.747
17.7389
17.7313
17.7239
17.7169
17.7101
17.7036
17.6973
17.6912
17.6853
17.6796
17.6741
17.6687
17.6634
17.6583
17.6533
17.6484
17.6436
17.6389
17.6343
17.6298
17.6253
17.6209
17.6166
17.6123
17.6081
17.604
17.5999
17.596
17.5921
17.5883
17.5847
17.5813
17.5781
17.5751
17.5725
17.5703
17.5687
17.5678
17.5677
17.5689
17.5715
17.5761
17.5832
17.5938
17.6086
17.6301
17.6587
17.7005
17.7559
17.8401
17.9537
18.1422
18.4079
18.8879
-6.92201
-6.93156
-6.95146
-6.98096
-7.01994
-7.06808
-7.12515
-7.19098
-7.26541
-7.3483
-7.4394
-7.53839
-7.6448
-7.75791
-7.87684
-8.00024
-8.12639
-8.25308
-8.37755
-8.49651
-8.60585
-8.70065
-8.77518
-8.8228
-8.83621
-8.8074
-8.72768
-8.58802
-8.37933
-8.09279
-7.72036
-7.25516
-6.69205
-6.02785
-5.26207
-4.39679
-3.43694
-2.39023
-1.26709
-0.0802538
1.15602
2.42618
3.71399
5.00308
6.27786
7.52338
8.72666
9.87636
10.9633
11.9804
12.9231
13.7886
14.5763
15.2868
15.9222
16.486
16.9819
17.4144
17.7883
18.1087
18.3802
18.6085
18.7976
18.9517
19.0749
19.1708
19.2428
19.294
19.3271
19.3446
19.3488
19.3417
19.325
19.3003
19.2689
19.2322
19.1912
19.1467
19.0997
19.0508
19.0006
18.9497
18.8985
18.8473
18.7965
18.7464
18.6971
18.6489
18.6019
18.5562
18.5119
18.469
18.4277
18.3878
18.3496
18.3128
18.2776
18.2439
18.2117
18.1809
18.1516
18.1236
18.097
18.0717
18.0476
18.0247
18.003
17.9823
17.9627
17.9441
17.9265
17.9097
17.8938
17.8787
17.8644
17.8508
17.8379
17.8256
17.814
17.8029
17.7923
17.7822
17.7726
17.7635
17.7547
17.7464
17.7384
17.7308
17.7235
17.7164
17.7097
17.7032
17.6969
17.6908
17.685
17.6793
17.6737
17.6684
17.6631
17.658
17.653
17.6482
17.6434
17.6387
17.6341
17.6295
17.6251
17.6207
17.6163
17.6121
17.6079
17.6037
17.5997
17.5957
17.5918
17.5881
17.5844
17.581
17.5778
17.5748
17.5721
17.5699
17.5682
17.5672
17.5671
17.5681
17.5706
17.575
17.5819
17.5921
17.6066
17.627
17.6553
17.6946
17.7494
17.8262
17.9366
18.0911
18.3095
18.5523
-7.06717
-7.07726
-7.09901
-7.1313
-7.17422
-7.22744
-7.29084
-7.36422
-7.44747
-7.54042
-7.64294
-7.7547
-7.87532
-8.00412
-8.14015
-8.2821
-8.42822
-8.57639
-8.72381
-8.86706
-9.00195
-9.12338
-9.22543
-9.30122
-9.343
-9.3422
-9.28949
-9.17504
-8.98896
-8.72158
-8.36384
-7.90799
-7.34806
-6.68041
-5.90415
-5.02143
-4.03755
-2.96088
-1.80283
-0.577463
0.699548
2.01144
3.34089
4.67065
5.98422
7.26612
8.50271
9.68249
10.7958
11.8359
12.7981
13.6799
14.481
15.2023
15.8467
16.4174
16.919
17.3561
17.7338
18.0573
18.3316
18.5624
18.7538
18.91
19.0352
19.133
19.2068
19.2598
19.2946
19.3138
19.3196
19.314
19.2988
19.2755
19.2455
19.2101
19.1703
19.127
19.0812
19.0333
18.9842
18.9342
18.8839
18.8336
18.7837
18.7343
18.6858
18.6383
18.5919
18.5469
18.5031
18.4608
18.42
18.3807
18.3429
18.3066
18.2718
18.2385
18.2066
18.1762
18.1472
18.1196
18.0933
18.0682
18.0444
18.0217
18.0002
17.9798
17.9604
17.942
17.9245
17.9079
17.8922
17.8772
17.863
17.8495
17.8367
17.8245
17.813
17.8019
17.7915
17.7815
17.7719
17.7628
17.7542
17.7459
17.7379
17.7303
17.7231
17.7161
17.7093
17.7029
17.6966
17.6906
17.6847
17.6791
17.6735
17.6682
17.663
17.6579
17.6529
17.648
17.6433
17.6386
17.634
17.6294
17.625
17.6206
17.6162
17.612
17.6078
17.6036
17.5996
17.5956
17.5917
17.5879
17.5843
17.5808
17.5775
17.5745
17.5718
17.5695
17.5678
17.5666
17.5664
17.5672
17.5695
17.5736
17.58
17.5897
17.6035
17.6227
17.6496
17.6863
17.7378
17.8072
17.9055
18.0302
18.1979
18.3502
-7.3199
-7.33076
-7.35442
-7.38966
-7.43671
-7.49534
-7.56554
-7.64724
-7.74045
-7.8452
-7.96149
-8.08915
-8.22788
-8.37721
-8.53638
-8.70423
-8.87925
-9.05928
-9.24157
-9.42258
-9.59801
-9.76261
-9.9101
-10.0331
-10.1232
-10.1706
-10.165
-10.0951
-9.94913
-9.71574
-9.38419
-8.94509
-8.39117
-7.71791
-6.92418
-6.01259
-4.98951
-3.86475
-2.65115
-1.36441
-0.0223162
1.35634
2.7523
4.14679
5.52203
6.86169
8.15132
9.37877
10.5342
11.6106
12.6037
13.5115
14.3337
15.0722
15.7305
16.3123
16.8229
17.2671
17.6508
17.9793
18.2582
18.4929
18.6878
18.8474
18.9758
19.0766
19.1534
19.2091
19.2466
19.2684
19.2767
19.2735
19.2605
19.2394
19.2115
19.1781
19.1402
19.0987
19.0545
19.0083
18.9607
18.9121
18.8632
18.8142
18.7655
18.7173
18.6698
18.6233
18.578
18.5338
18.4909
18.4494
18.4093
18.3707
18.3336
18.2979
18.2637
18.231
18.1996
18.1697
18.1412
18.1139
18.088
18.0633
18.0398
18.0175
17.9963
17.9761
17.957
17.9388
17.9215
17.9052
17.8896
17.8748
17.8608
17.8475
17.8348
17.8228
17.8114
17.8005
17.7901
17.7802
17.7708
17.7618
17.7532
17.745
17.7371
17.7296
17.7223
17.7154
17.7087
17.7023
17.6961
17.6901
17.6843
17.6786
17.6732
17.6678
17.6626
17.6576
17.6526
17.6478
17.643
17.6383
17.6337
17.6292
17.6248
17.6204
17.616
17.6118
17.6076
17.6034
17.5994
17.5954
17.5915
17.5877
17.584
17.5805
17.5772
17.5741
17.5713
17.5689
17.567
17.5658
17.5653
17.5659
17.5678
17.5715
17.5774
17.5862
17.599
17.6167
17.6415
17.675
17.7214
17.7822
17.8649
17.9639
18.0848
18.1708
-7.67497
-7.6864
-7.71174
-7.74974
-7.80095
-7.86535
-7.94318
-8.0346
-8.13989
-8.25934
-8.39313
-8.54139
-8.70418
-8.88129
-9.07224
-9.27611
-9.49157
-9.71667
-9.94882
-10.1846
-10.4198
-10.6488
-10.8649
-11.0598
-11.224
-11.3461
-11.4139
-11.4138
-11.3316
-11.153
-10.8646
-10.4542
-9.91273
-9.23427
-8.41716
-7.46406
-6.38215
-5.18321
-3.88373
-2.50359
-1.06409
0.413088
1.90652
3.39553
4.86078
6.28462
7.65145
8.9483
10.1649
11.2941
12.332
13.2768
14.1295
14.8927
15.5707
16.1682
16.6913
17.1458
17.5378
17.8732
18.1586
18.3988
18.5988
18.763
18.8958
19.0008
19.0816
19.1411
19.1823
19.2076
19.2193
19.2193
19.2094
19.1912
19.1662
19.1354
19.1
19.0609
19.019
18.975
18.9294
18.8828
18.8357
18.7884
18.7413
18.6947
18.6487
18.6036
18.5595
18.5165
18.4748
18.4344
18.3953
18.3577
18.3214
18.2866
18.2531
18.2211
18.1905
18.1612
18.1332
18.1066
18.0812
18.057
18.0339
18.012
17.9912
17.9714
17.9526
17.9348
17.9178
17.9017
17.8864
17.8719
17.8581
17.845
17.8325
17.8207
17.8094
17.7987
17.7884
17.7787
17.7694
17.7605
17.752
17.7439
17.7361
17.7287
17.7215
17.7147
17.708
17.7017
17.6955
17.6896
17.6838
17.6782
17.6728
17.6675
17.6623
17.6572
17.6523
17.6475
17.6427
17.6381
17.6335
17.629
17.6245
17.6202
17.6158
17.6116
17.6074
17.6032
17.5991
17.5951
17.5912
17.5874
17.5837
17.5801
17.5768
17.5736
17.5707
17.5682
17.5662
17.5647
17.564
17.5642
17.5657
17.5688
17.574
17.5818
17.5933
17.6092
17.6314
17.6609
17.7013
17.7524
17.8194
17.8937
17.9749
18.0136
-8.11584
-8.12832
-8.15622
-8.19832
-8.25544
-8.32782
-8.41603
-8.52065
-8.6423
-8.78158
-8.93907
-9.11533
-9.31076
-9.52561
-9.75971
-10.0126
-10.2836
-10.5712
-10.8733
-11.1867
-11.5071
-11.8285
-12.1434
-12.4425
-12.7149
-12.9475
-13.1254
-13.2314
-13.2475
-13.1547
-12.9352
-12.5728
-12.0541
-11.3703
-10.5176
-9.49923
-8.32623
-7.01726
-5.59525
-4.08335
-2.50616
-0.889252
0.742318
2.3649
3.9568
5.49887
6.97391
8.36808
9.67029
10.8732
11.9733
12.9695
13.8642
14.6609
15.3655
15.984
16.5235
16.9914
17.3943
17.739
18.0326
18.2801
18.4867
18.6571
18.7956
18.906
18.9919
19.0564
19.1023
19.1321
19.1481
19.1521
19.1462
19.1317
19.1101
19.0827
19.0505
19.0144
18.9754
18.934
18.891
18.8468
18.802
18.7569
18.7118
18.6671
18.6229
18.5795
18.5369
18.4955
18.4552
18.4161
18.3782
18.3417
18.3066
18.2727
18.2403
18.2091
18.1793
18.1508
18.1236
18.0976
18.0729
18.0493
18.0268
18.0054
17.9851
17.9657
17.9474
17.9299
17.9133
17.8975
17.8826
17.8683
17.8548
17.8419
17.8297
17.8181
17.807
17.7965
17.7864
17.7768
17.7677
17.7589
17.7506
17.7426
17.7349
17.7276
17.7205
17.7137
17.7072
17.7009
17.6948
17.6889
17.6832
17.6776
17.6722
17.667
17.6618
17.6568
17.6519
17.6471
17.6424
17.6378
17.6332
17.6287
17.6243
17.6199
17.6156
17.6113
17.6071
17.603
17.5989
17.5949
17.5909
17.5871
17.5833
17.5797
17.5763
17.573
17.57
17.5674
17.5651
17.5634
17.5624
17.5623
17.5633
17.5657
17.57
17.5767
17.5865
17.6002
17.6193
17.6445
17.6781
17.7195
17.7707
17.8233
17.8715
17.8788
-8.6261
-8.64032
-8.67226
-8.72074
-8.78686
-8.87115
-8.97459
-9.09807
-9.24254
-9.40907
-9.59884
-9.813
-10.0525
-10.3181
-10.6105
-10.9303
-11.2775
-11.6516
-12.0507
-12.4718
-12.9108
-13.3615
-13.8164
-14.2656
-14.6967
-15.0937
-15.4375
-15.7054
-15.8724
-15.9125
-15.7995
-15.5092
-15.0218
-14.325
-13.4166
-12.3046
-11.0058
-9.54341
-7.94374
-6.23734
-4.45843
-2.64088
-0.815799
0.989914
2.75305
4.45403
6.07534
7.60211
9.02188
10.3266
11.5125
12.5796
13.5313
14.3731
15.1128
15.7585
16.3191
16.8035
17.2198
17.5765
17.88
18.1365
18.3513
18.5293
18.6749
18.7922
18.8845
18.955
19.0067
19.042
19.0631
19.0721
19.0708
19.0608
19.0435
19.0201
18.9917
18.9592
18.9236
18.8854
18.8455
18.8042
18.762
18.7195
18.6768
18.6343
18.5923
18.5509
18.5103
18.4706
18.4319
18.3944
18.3581
18.3229
18.289
18.2564
18.2251
18.195
18.1662
18.1386
18.1123
18.0871
18.0631
18.0402
18.0184
17.9976
17.9778
17.959
17.9412
17.9242
17.908
17.8926
17.878
17.8641
17.8509
17.8384
17.8264
17.8151
17.8042
17.7939
17.7841
17.7747
17.7657
17.7571
17.7489
17.741
17.7335
17.7263
17.7193
17.7126
17.7062
17.7
17.6939
17.6881
17.6825
17.677
17.6716
17.6664
17.6613
17.6564
17.6515
17.6467
17.642
17.6374
17.6329
17.6284
17.624
17.6196
17.6153
17.6111
17.6069
17.6027
17.5986
17.5946
17.5906
17.5867
17.5829
17.5792
17.5757
17.5723
17.5692
17.5664
17.564
17.562
17.5606
17.56
17.5604
17.5621
17.5654
17.5707
17.5788
17.5901
17.6058
17.6263
17.6528
17.6845
17.7208
17.7543
17.7764
17.7605
-9.19063
-9.20759
-9.2457
-9.30359
-9.38273
-9.48395
-9.60854
-9.75777
-9.9332
-10.1366
-10.37
-10.635
-10.9335
-11.2675
-11.639
-12.0496
-12.5007
-12.9923
-13.5235
-14.0925
-14.6961
-15.3297
-15.9863
-16.6556
-17.3221
-17.9646
-18.5561
-19.0644
-19.4531
-19.6837
-19.7179
-19.5221
-19.0715
-18.3521
-17.3616
-16.1092
-14.6136
-12.9022
-11.0194
-9.01788
-6.94879
-4.85702
-2.77916
-0.743489
1.2291
3.12242
4.92239
6.61514
8.18668
9.62626
10.9282
12.0918
13.1212
14.0239
14.8101
15.491
16.0781
16.5826
17.0158
17.3861
17.7014
17.9685
18.193
18.3801
18.5344
18.6597
18.7597
18.8374
18.8959
18.9377
18.9649
18.9797
18.984
18.9791
18.9667
18.948
18.924
18.8957
18.864
18.8296
18.7931
18.7551
18.7161
18.6765
18.6367
18.5968
18.5572
18.5181
18.4797
18.4421
18.4053
18.3696
18.3349
18.3014
18.269
18.2378
18.2077
18.1789
18.1512
18.1247
18.0993
18.0751
18.0519
18.0298
18.0088
17.9887
17.9696
17.9514
17.9341
17.9176
17.9019
17.887
17.8729
17.8594
17.8465
17.8343
17.8227
17.8116
17.801
17.791
17.7814
17.7722
17.7634
17.755
17.747
17.7393
17.7319
17.7248
17.718
17.7114
17.7051
17.6989
17.693
17.6872
17.6817
17.6762
17.671
17.6658
17.6608
17.6559
17.651
17.6463
17.6416
17.637
17.6325
17.6281
17.6237
17.6193
17.615
17.6108
17.6066
17.6024
17.5983
17.5942
17.5902
17.5863
17.5824
17.5787
17.5751
17.5716
17.5683
17.5653
17.5626
17.5604
17.5586
17.5575
17.5573
17.5581
17.5603
17.5642
17.5703
17.5791
17.5911
17.6067
17.6262
17.6483
17.6713
17.6881
17.6895
17.6555
-9.79158
-9.81242
-9.85908
-9.92988
-10.0267
-10.1508
-10.3038
-10.4877
-10.7049
-10.9579
-11.2495
-11.5824
-11.96
-12.386
-12.8641
-13.3975
-13.9888
-14.6398
-15.352
-16.1264
-16.9635
-17.8613
-18.8132
-19.8053
-20.8141
-21.8071
-22.7435
-23.5767
-24.2552
-24.7249
-24.9351
-24.8435
-24.4166
-23.6302
-22.4734
-20.957
-19.1167
-17.0108
-14.7146
-12.3045
-9.84998
-7.40842
-5.02287
-2.72208
-0.522519
1.56925
3.55096
5.41834
7.15934
8.75886
10.2053
11.4932
12.6244
13.6071
14.4539
15.1799
15.8002
16.3304
16.7832
17.1694
17.4982
17.7772
18.0128
18.2104
18.3745
18.5092
18.618
18.7042
18.7705
18.8197
18.854
18.8754
18.8859
18.887
18.8802
18.8667
18.8477
18.8242
18.7969
18.7667
18.7342
18.7
18.6645
18.6282
18.5915
18.5546
18.5178
18.4813
18.4453
18.41
18.3754
18.3417
18.309
18.2772
18.2465
18.2168
18.1882
18.1607
18.1343
18.109
18.0848
18.0616
18.0394
18.0182
17.998
17.9787
17.9603
17.9428
17.9262
17.9103
17.8952
17.8808
17.8671
17.854
17.8416
17.8298
17.8185
17.8077
17.7975
17.7877
17.7783
17.7694
17.7609
17.7527
17.7448
17.7373
17.7301
17.7231
17.7165
17.71
17.7038
17.6978
17.6919
17.6863
17.6808
17.6754
17.6702
17.6651
17.6601
17.6553
17.6505
17.6458
17.6412
17.6366
17.6321
17.6277
17.6233
17.619
17.6147
17.6104
17.6062
17.6021
17.5979
17.5938
17.5898
17.5858
17.5819
17.5781
17.5744
17.5708
17.5674
17.5642
17.5612
17.5586
17.5564
17.5548
17.5538
17.5537
17.5548
17.5571
17.5612
17.5672
17.5756
17.5862
17.5988
17.6119
17.6229
17.6253
17.6101
17.5619
-10.4065
-10.4329
-10.4916
-10.5799
-10.7005
-10.8551
-11.0461
-11.2762
-11.5486
-11.867
-12.2353
-12.6584
-13.1419
-13.6917
-14.3132
-15.0117
-15.7924
-16.6614
-17.6259
-18.6929
-19.867
-21.1463
-22.5177
-23.9545
-25.4167
-26.8532
-28.2054
-29.4103
-30.405
-31.1312
-31.53
-31.5396
-31.1027
-30.1786
-28.7558
-26.8595
-24.5568
-21.9441
-19.1122
-16.1588
-13.1829
-10.2685
-7.47571
-4.83893
-2.37109
-0.0671003
2.08766
4.10904
6.00225
7.7571
9.35701
10.7874
12.0412
13.1226
14.0448
14.8261
15.4875
16.0481
16.5238
16.9281
17.2721
17.5645
17.8124
18.0216
18.1966
18.3418
18.4605
18.5561
18.6313
18.6888
18.731
18.7599
18.7773
18.785
18.7844
18.7768
18.7634
18.7451
18.7227
18.6972
18.6691
18.639
18.6075
18.5749
18.5416
18.508
18.4743
18.4407
18.4074
18.3746
18.3424
18.3109
18.2803
18.2505
18.2216
18.1937
18.1667
18.1407
18.1157
18.0917
18.0687
18.0467
18.0256
18.0054
17.9861
17.9677
17.9501
17.9334
17.9174
17.9022
17.8877
17.8738
17.8607
17.8481
17.8361
17.8247
17.8139
17.8035
17.7936
17.7841
17.775
17.7664
17.7581
17.7501
17.7425
17.7352
17.7281
17.7213
17.7148
17.7085
17.7024
17.6965
17.6908
17.6852
17.6798
17.6745
17.6694
17.6644
17.6595
17.6546
17.6499
17.6453
17.6407
17.6362
17.6317
17.6273
17.6229
17.6186
17.6143
17.6101
17.6059
17.6017
17.5976
17.5935
17.5894
17.5854
17.5814
17.5775
17.5737
17.5699
17.5663
17.5629
17.5597
17.5567
17.5541
17.5519
17.5502
17.5491
17.5489
17.5497
17.5516
17.5549
17.5595
17.5652
17.5713
17.576
17.5763
17.5663
17.5378
17.4783
-11.0087
-11.0432
-11.118
-11.2293
-11.3815
-11.5763
-11.8171
-12.1076
-12.4525
-12.8573
-13.3283
-13.8727
-14.4984
-15.2133
-16.0266
-16.9483
-17.991
-19.1687
-20.4946
-21.9784
-23.6211
-25.409
-27.3108
-29.277
-31.244
-33.1442
-34.916
-36.505
-37.8573
-38.9076
-39.5763
-39.7702
-39.3978
-38.3952
-36.7404
-34.4591
-31.6204
-28.333
-24.735
-20.9854
-17.2409
-13.6314
-10.2443
-7.12441
-4.28314
-1.70568
0.643231
2.80757
4.82362
6.70294
8.43726
10.0069
11.392
12.5836
13.5912
14.4362
15.1442
15.7389
16.2402
16.6648
17.0255
17.3327
17.594
17.8156
18.0026
18.159
18.2885
18.3943
18.4792
18.5459
18.5967
18.6337
18.6588
18.6738
18.68
18.6788
18.6714
18.6588
18.6419
18.6215
18.5982
18.5726
18.5454
18.5168
18.4873
18.4572
18.4268
18.3964
18.366
18.336
18.3064
18.2774
18.249
18.2214
18.1945
18.1684
18.1432
18.1189
18.0955
18.0729
18.0512
18.0304
18.0105
17.9914
17.9731
17.9557
17.939
17.9231
17.9079
17.8934
17.8795
17.8663
17.8537
17.8417
17.8302
17.8193
17.8088
17.7988
17.7893
17.7801
17.7714
17.763
17.755
17.7473
17.7399
17.7328
17.7259
17.7193
17.713
17.7068
17.7009
17.6951
17.6895
17.684
17.6787
17.6736
17.6685
17.6636
17.6587
17.6539
17.6493
17.6447
17.6401
17.6357
17.6312
17.6268
17.6225
17.6182
17.6139
17.6097
17.6055
17.6013
17.5972
17.593
17.5889
17.5849
17.5808
17.5768
17.5729
17.569
17.5653
17.5616
17.5581
17.5547
17.5516
17.5488
17.5463
17.5443
17.5428
17.5419
17.5417
17.5422
17.5431
17.544
17.544
17.541
17.5319
17.5113
17.4718
17.4033
-11.5659
-11.6122
-11.7089
-11.8513
-12.0455
-12.2932
-12.5997
-12.9704
-13.4121
-13.9327
-14.5408
-15.2464
-16.0614
-17
-18.0793
-19.318
-20.7354
-22.3472
-24.1627
-26.1817
-28.3889
-30.7491
-33.2082
-35.6986
-38.1533
-40.5195
-42.7571
-44.8276
-46.675
-48.2115
-49.3126
-49.8307
-49.6201
-48.5645
-46.6088
-43.7773
-40.1711
-35.9557
-31.3452
-26.572
-21.8545
-17.3726
-13.2461
-9.52991
-6.22715
-3.30925
-0.725643
1.59106
3.71117
5.68256
7.52126
9.20888
10.7192
12.0178
13.1117
14.0216
14.777
15.407
15.9356
16.3821
16.7612
17.0842
17.3599
17.5949
17.7945
17.9628
18.1037
18.2203
18.3156
18.392
18.4521
18.4979
18.5313
18.554
18.5676
18.5734
18.5725
18.5661
18.5549
18.54
18.5219
18.5012
18.4785
18.4542
18.4288
18.4025
18.3757
18.3487
18.3215
18.2945
18.2677
18.2413
18.2154
18.19
18.1653
18.1413
18.118
18.0954
18.0736
18.0526
18.0324
18.0129
17.9943
17.9763
17.9592
17.9427
17.927
17.912
17.8976
17.8838
17.8707
17.8582
17.8462
17.8348
17.8238
17.8134
17.8034
17.7938
17.7847
17.7759
17.7675
17.7594
17.7517
17.7443
17.7371
17.7302
17.7236
17.7172
17.711
17.705
17.6992
17.6936
17.6881
17.6828
17.6776
17.6725
17.6675
17.6627
17.6579
17.6532
17.6486
17.644
17.6396
17.6351
17.6307
17.6264
17.6221
17.6178
17.6135
17.6093
17.6051
17.6009
17.5968
17.5926
17.5885
17.5843
17.5802
17.5762
17.5721
17.5681
17.5641
17.5602
17.5564
17.5527
17.5491
17.5457
17.5424
17.5394
17.5366
17.534
17.5317
17.5294
17.5267
17.5231
17.5173
17.5073
17.4899
17.4602
17.4116
17.3359
-12.0434
-12.1069
-12.2333
-12.4174
-12.6668
-12.9849
-13.3791
-13.8568
-14.4278
-15.1027
-15.8953
-16.8227
-17.9052
-19.1656
-20.6262
-22.3066
-24.2205
-26.373
-28.7586
-31.3593
-34.1434
-37.0616
-40.0534
-43.0572
-46.0222
-48.9162
-51.7156
-54.376
-56.8054
-58.8525
-60.3169
-60.9811
-60.6523
-59.2053
-56.6118
-52.9551
-48.406
-43.1885
-37.557
-31.7832
-26.129
-20.8168
-15.9978
-11.7389
-8.01623
-4.77538
-1.96116
0.505419
2.72004
4.76429
6.67787
8.45589
10.0633
11.4567
12.6278
13.5957
14.3943
15.0577
15.6135
16.0829
16.4816
16.8218
17.1128
17.3619
17.5746
17.7554
17.908
18.0359
18.1418
18.2285
18.2983
18.3534
18.3955
18.4265
18.4479
18.4611
18.4671
18.4673
18.4623
18.4532
18.4405
18.425
18.4072
18.3876
18.3664
18.3443
18.3213
18.2978
18.2741
18.2502
18.2264
18.2028
18.1795
18.1566
18.1342
18.1123
18.091
18.0703
18.0503
18.031
18.0123
17.9943
17.9769
17.9603
17.9443
17.9289
17.9142
17.9001
17.8866
17.8737
17.8613
17.8495
17.8382
17.8274
17.817
17.8071
17.7976
17.7885
17.7797
17.7714
17.7633
17.7556
17.7482
17.741
17.7342
17.7275
17.7211
17.7149
17.7089
17.7031
17.6975
17.692
17.6866
17.6814
17.6764
17.6714
17.6665
17.6617
17.657
17.6524
17.6479
17.6434
17.6389
17.6346
17.6302
17.6259
17.6216
17.6173
17.6131
17.6089
17.6047
17.6005
17.5963
17.5921
17.588
17.5838
17.5796
17.5755
17.5713
17.5672
17.563
17.5589
17.5547
17.5506
17.5465
17.5425
17.5384
17.5344
17.5303
17.5261
17.5216
17.5166
17.5106
17.5027
17.4916
17.4752
17.4505
17.413
17.3569
17.2753
-12.4018
-12.4893
-12.6568
-12.8984
-13.2235
-13.6373
-14.1499
-14.7724
-15.5207
-16.414
-17.4749
-18.7271
-20.1948
-21.8995
-23.8579
-26.0787
-28.5623
-31.2983
-34.2648
-37.4288
-40.7507
-44.1825
-47.671
-51.1635
-54.6145
-57.9854
-61.227
-64.2527
-66.9144
-69.0112
-70.3163
-70.613
-69.7356
-67.6058
-64.2462
-59.7786
-54.4
-48.3542
-41.9236
-35.402
-29.0931
-23.2345
-17.9751
-13.3735
-9.39139
-5.95201
-2.98142
-0.402444
1.88236
3.97781
5.94655
7.79169
9.47157
10.9336
12.1607
13.1717
14.0044
14.6967
15.2781
15.7704
16.1895
16.5479
16.8551
17.1188
17.3451
17.5386
17.7033
17.8426
17.9594
18.0566
18.1365
18.2011
18.2525
18.2922
18.3218
18.3426
18.356
18.363
18.3646
18.3616
18.3547
18.3447
18.332
18.3172
18.3006
18.2827
18.2638
18.2441
18.2239
18.2034
18.1828
18.1621
18.1416
18.1213
18.1013
18.0817
18.0625
18.0438
18.0257
18.0081
17.991
17.9745
17.9586
17.9433
17.9285
17.9143
17.9007
17.8876
17.875
17.863
17.8514
17.8403
17.8297
17.8195
17.8098
17.8004
17.7914
17.7828
17.7745
17.7666
17.7589
17.7516
17.7445
17.7376
17.731
17.7247
17.7185
17.7125
17.7067
17.7011
17.6956
17.6903
17.6851
17.68
17.6751
17.6702
17.6654
17.6607
17.6561
17.6516
17.6471
17.6427
17.6383
17.634
17.6296
17.6254
17.6211
17.6169
17.6127
17.6085
17.6043
17.6001
17.5959
17.5917
17.5875
17.5833
17.579
17.5748
17.5705
17.5662
17.5619
17.5575
17.553
17.5485
17.544
17.5393
17.5344
17.5294
17.524
17.5182
17.5117
17.5041
17.4948
17.4829
17.467
17.445
17.4138
17.3696
17.3072
17.2207
-12.6025
-12.7247
-12.9527
-13.2745
-13.7023
-14.2453
-14.9213
-15.7529
-16.7677
-17.9906
-19.4434
-21.1444
-23.1099
-25.3514
-27.8725
-30.6658
-33.7118
-36.9809
-40.4385
-44.0481
-47.7706
-51.5572
-55.3472
-59.0671
-62.6445
-66.0109
-69.0904
-71.7843
-73.9601
-75.4559
-76.0869
-75.694
-74.1462
-71.3893
-67.4518
-62.4684
-56.6289
-50.1871
-43.4354
-36.6748
-30.1959
-24.2218
-18.8851
-14.2243
-10.1953
-6.71536
-3.70469
-1.09057
1.22162
3.34626
5.3561
7.25091
8.97593
10.4729
11.7264
12.7601
13.6152
14.3304
14.9348
15.4491
15.8887
16.2655
16.5892
16.8679
17.1079
17.3144
17.4912
17.642
17.7699
17.8777
17.9678
18.0423
18.1031
18.1518
18.1899
18.2188
18.2399
18.254
18.2624
18.2658
18.2649
18.2606
18.2532
18.2435
18.2317
18.2183
18.2036
18.1879
18.1714
18.1544
18.137
18.1194
18.1018
18.0842
18.0668
18.0495
18.0326
18.016
17.9998
17.984
17.9686
17.9537
17.9393
17.9254
17.9119
17.8989
17.8864
17.8744
17.8628
17.8517
17.841
17.8307
17.8208
17.8113
17.8022
17.7934
17.785
17.7768
17.769
17.7615
17.7543
17.7473
17.7405
17.734
17.7277
17.7216
17.7157
17.71
17.7044
17.699
17.6937
17.6885
17.6835
17.6785
17.6737
17.669
17.6643
17.6597
17.6552
17.6507
17.6463
17.6419
17.6376
17.6333
17.6291
17.6248
17.6206
17.6164
17.6122
17.608
17.6038
17.5996
17.5954
17.5912
17.587
17.5827
17.5784
17.5741
17.5697
17.5652
17.5607
17.5561
17.5514
17.5465
17.5414
17.5361
17.5305
17.5245
17.5179
17.5105
17.502
17.492
17.4797
17.4641
17.4438
17.4167
17.3799
17.3299
17.2622
17.1717
-12.6107
-12.7818
-13.0988
-13.5355
-14.1106
-14.8478
-15.7834
-16.9524
-18.3813
-20.0803
-22.0517
-24.297
-26.8156
-29.5963
-32.6167
-35.85
-39.2646
-42.8236
-46.4841
-50.1967
-53.9018
-57.5292
-60.9998
-64.2473
-67.2045
-69.8312
-72.0864
-73.9077
-75.2139
-75.8788
-75.7604
-74.7201
-72.655
-69.5273
-65.3767
-60.3254
-54.5551
-48.2992
-41.8278
-35.4204
-29.3221
-23.7111
-18.6877
-14.2729
-10.4197
-7.05412
-4.1159
-1.54724
0.747022
2.88385
4.92462
6.84847
8.58369
10.0766
11.325
12.361
13.2272
13.9592
14.5832
15.1176
15.5764
15.971
16.311
16.6046
16.8585
17.0782
17.2676
17.4305
17.5699
17.6887
17.7894
17.8742
17.9448
18.0029
18.05
18.0875
18.1165
18.1383
18.1538
18.1639
18.1695
18.1711
18.1695
18.1651
18.1583
18.1497
18.1395
18.128
18.1155
18.1022
18.0883
18.074
18.0594
18.0447
18.03
18.0153
18.0007
17.9864
17.9722
17.9584
17.9448
17.9316
17.9188
17.9063
17.8942
17.8826
17.8712
17.8603
17.8498
17.8396
17.8298
17.8204
17.8113
17.8025
17.7941
17.7859
17.7781
17.7705
17.7632
17.7561
17.7493
17.7427
17.7364
17.7302
17.7242
17.7184
17.7128
17.7073
17.7019
17.6967
17.6916
17.6866
17.6817
17.6769
17.6723
17.6676
17.6631
17.6586
17.6542
17.6498
17.6455
17.6412
17.6369
17.6327
17.6285
17.6243
17.6201
17.6159
17.6117
17.6076
17.6034
17.5992
17.595
17.5907
17.5865
17.5822
17.5778
17.5734
17.5689
17.5643
17.5596
17.5547
17.5497
17.5444
17.5389
17.533
17.5266
17.5197
17.5119
17.503
17.4927
17.4803
17.4652
17.4463
17.422
17.3903
17.3487
17.2938
17.2216
17.1277
-12.4054
-12.6396
-13.0841
-13.688
-14.4879
-15.5293
-16.8606
-18.5022
-20.4472
-22.67
-25.1377
-27.8141
-30.6665
-33.6628
-36.7755
-39.9716
-43.2133
-46.4476
-49.6305
-52.7109
-55.6613
-58.4379
-61.0103
-63.3399
-65.3899
-67.1231
-68.4997
-69.4706
-69.9733
-69.921
-69.2149
-67.7657
-65.5125
-62.4384
-58.5781
-54.0234
-48.9177
-43.4448
-37.8179
-32.2617
-26.9677
-22.0666
-17.6259
-13.6567
-10.1273
-6.99219
-4.21523
-1.74576
0.511123
2.65446
4.70956
6.62288
8.31906
9.76643
10.9819
12.004
12.8707
13.6119
14.249
14.7981
15.2718
15.6809
16.0348
16.3418
16.6087
16.8409
17.0427
17.2175
17.3685
17.4985
17.6098
17.7048
17.7852
17.8527
17.9087
17.9547
17.9917
18.0211
18.0438
18.0607
18.0727
18.0804
18.0844
18.0854
18.0838
18.0799
18.0742
18.067
18.0585
18.049
18.0387
18.0277
18.0163
18.0045
17.9925
17.9804
17.9682
17.9561
17.9441
17.9322
17.9205
17.909
17.8978
17.8868
17.8762
17.8658
17.8557
17.8459
17.8365
17.8273
17.8184
17.8098
17.8015
17.7935
17.7858
17.7783
17.771
17.764
17.7572
17.7506
17.7443
17.7381
17.7321
17.7263
17.7206
17.7151
17.7097
17.7045
17.6994
17.6944
17.6895