/*--------------------------------*- C++ -*----------------------------------*\
  =========                 |
  \\      /  F ield         | OpenFOAM: The Open Source CFD Toolbox
   \\    /   O peration     | Website:  https://openfoam.org
    \\  /    A nd           | Version:  9
     \\/     M anipulation  |
\*---------------------------------------------------------------------------*/
FoamFile
{
    format      ascii;
    class       volScalarField;
    location    "0.01";
    object      s;
}
// * * * * * * * * * * * * * * * * * * * * * * * * * * * * * * * * * * * * * //

dimensions      [0 0 0 0 0 0 0];

internalField   nonuniform List<scalar> 
12225
(
1
1
1
1
1
1
1
1
1
1
1
1
1
1
1
1
1
0.999981
1
1
1
1
1
1
1
1
1
1
1
1
1
1
1
1
1
1
1
1
1
1
1
1
1
1
1
1
1
1
1
1
1
1
1
1
1
1
1
1
1
1
1
1
1
1
1
1
1
1
1
1
1
1
1
1
1
1
1
1
1
1
1
1
1
1
1
1
1
1
1
1
1
1
1
1
1
1
1
1
1
1
1
1
1
1
1
1
1
1
1
1
1
1
1
1
1
1
1
1
1
1
1
1
1
1
1
1
1
1
1
1
1
1
1
1
1
1
1
1
1
1
1
1
1
1
1
1
1
1
1
1
1
1
1
1
1
1
1
1
1
1
1
1
1
1
1
1
1
1
1
1
1
1
1
1
1
1
1
1
1
1
1
1
1
1
1
1
1
1
1
1
1
1
1
1
1
1
1
1
1
1
1
1
1
1
1
1
1
1
1
1
1
1
1
1
1
1
1
1
1
1
1
1
1
1
1
1
1
1
1
1
1
1
1
1
1
1
1
1
1
1
1
1
1
1
1
1
1
1
1
1
1
1
1
1
1
1
1
1
1
1
1
1
1
1
1
1
1
1
1
1
1
1
1
1
1
1
1
1
1
1
1
1
1
1
1
1
1
1
1
1
1
1
1
1
1
1
1
1
1
1
1
1
1
1
1
1
1
1
1
1
1
1
1
1
1
1
1
1
1
1
1
1
1
1
1
1
1
1
1
1
1
1
1
1
1
1
1
1
1
1
1
1
1
1
1
1
1
1
1
1
1
1
1
1
1
1
1
1
1
1
1
1
1
1
1
1
1
1
1
1
1
1
1
1
1
1
1
1
1
1
1
1
1
1
1
1
1
1
1
1
1
1
1
1
1
1
1
1
1
1
1
1
1
1
1
1
1
1
1
1
1
1
1
1
1
1
1
1
1
1
1
1
1
1
1
1
1
1
1
1
1
1
1
1
1
1
1
1
1
1
1
1
1
1
1
1
1
1
1
1
1
1
1
1
1
1
1
1
1
1
1
1
1
1
1
1
1
1
1
1
1
1
1
1
1
1
1
1
1
1
1
1
1
1
1
1
1
1
1
1
1
1
1
1
1
1
1
1
1
1
1
1
1
1
1
1
1
1
1
1
1
1
1
1
1
1
1
1
1
1
1
1
1
1
1
1
1
1
1
1
1
1
1
1
1
1
1
1
1
1
7.17271e-20
2.08869e-18
3.65813e-17
4.5685e-16
4.47845e-15
3.65159e-14
2.55399e-13
1.55902e-12
8.38016e-12
3.98363e-11
1.67978e-10
6.30645e-10
2.11884e-09
6.41264e-09
1.76171e-08
4.43022e-08
1.02847e-07
2.22219e-07
4.50182e-07
8.60533e-07
1.56016e-06
2.69368e-06
4.44368e-06
7.02661e-06
1.06871e-05
1.56917e-05
2.23238e-05
3.08816e-05
4.16889e-05
5.51172e-05
7.16107e-05
9.17108e-05
0.000116086
0.000145572
0.000181317
0.000225214
0.00027957
0.000344454
0.000419256
0.000483844
0.00053282
0.000565098
0.000577442
0.00056423
0.000528867
0.000475971
0.000411795
0.000341549
0.000269941
0.000208266
0.000150716
0.00010544
7.06865e-05
4.49817e-05
2.74641e-05
1.59864e-05
8.89757e-06
4.73385e-06
2.4118e-06
1.17666e-06
5.50442e-07
2.46993e-07
1.06612e-07
4.43065e-08
1.77482e-08
6.86111e-09
2.56271e-09
9.25852e-10
3.23868e-10
1.09802e-10
3.61144e-11
1.15336e-11
3.57959e-12
1.08051e-12
3.17452e-13
9.08423e-14
2.53365e-14
6.89168e-15
1.82928e-15
4.74079e-16
1.20024e-16
2.96993e-17
7.18606e-18
1.70097e-18
3.94046e-19
8.9376e-20
1.98558e-20
4.32226e-21
9.22248e-22
1.92952e-22
3.95971e-23
7.97319e-24
1.57577e-24
3.05761e-25
5.82677e-26
1.09083e-26
2.00674e-27
3.6287e-28
6.45132e-29
1.12796e-29
1.93998e-30
3.28288e-31
5.46723e-32
8.96241e-33
1.44649e-33
2.2989e-34
3.59844e-35
5.54836e-36
8.4282e-37
1.2615e-37
1.86059e-38
2.71356e-39
3.91232e-40
5.57307e-41
7.84e-42
1.08884e-42
1.49266e-43
2.01943e-44
2.69592e-45
3.55092e-46
4.61405e-47
5.91408e-48
7.47686e-49
9.3228e-50
1.14642e-50
1.39027e-51
1.66265e-52
1.96089e-53
2.28065e-54
2.61588e-55
2.95896e-56
3.30085e-57
3.63144e-58
3.94003e-59
4.21591e-60
4.4489e-61
4.63005e-62
4.75216e-63
4.81028e-64
4.80205e-65
4.72784e-66
4.59073e-67
4.39632e-68
4.15232e-69
3.86804e-70
3.55383e-71
3.22046e-72
2.87845e-73
2.53765e-74
2.2067e-75
1.8928e-76
1.6015e-77
1.33665e-78
1.10049e-79
8.9382e-81
7.16166e-82
5.66096e-83
4.41456e-84
3.39638e-85
2.57801e-86
1.93064e-87
1.42648e-88
1.03989e-89
7.47934e-91
5.30748e-92
3.71581e-93
2.5665e-94
1.74873e-95
1.17535e-96
7.79117e-98
5.093e-99
3.28188e-100
2.08435e-101
1.3036e-102
8.02731e-104
4.85603e-105
2.88604e-106
1.67413e-107
9.47855e-109
4.91425e-110
2.17438e-17
6.61486e-16
1.09853e-14
1.23123e-13
1.03341e-12
6.89224e-12
3.79873e-11
1.78015e-10
7.24773e-10
2.60824e-09
8.41634e-09
2.46569e-08
6.63143e-08
1.65374e-07
3.85848e-07
8.48971e-07
1.7736e-06
3.53803e-06
6.7695e-06
1.2463e-05
2.21255e-05
3.79391e-05
6.29301e-05
0.000101139
0.000157769
0.000239294
0.000353523
0.000509664
0.000718387
0.000991805
0.00134323
0.00178673
0.0023367
0.00300683
0.00380872
0.00475619
0.00586787
0.00712664
0.00838154
0.00948423
0.0102964
0.0108132
0.0110224
0.0107861
0.010203
0.00930076
0.0081851
0.0069631
0.00568665
0.00450003
0.0034019
0.00247007
0.00172682
0.00115106
0.000735653
0.000448879
0.000261817
0.000146011
7.78438e-05
3.97037e-05
1.94108e-05
9.09482e-06
4.09188e-06
1.77021e-06
7.37305e-07
2.9603e-07
1.14721e-07
4.29617e-08
1.55647e-08
5.46136e-09
1.8579e-09
6.134e-10
1.96736e-10
6.13538e-11
1.86203e-11
5.50399e-12
1.58578e-12
4.45654e-13
1.22246e-13
3.27516e-14
8.57528e-15
2.19546e-15
5.49908e-16
1.34821e-16
3.23687e-17
7.61346e-18
1.7551e-18
3.96684e-19
8.79363e-20
1.91255e-20
4.08235e-21
8.55438e-22
1.7602e-22
3.55746e-23
7.06358e-24
1.37819e-24
2.64292e-25
4.98228e-26
9.23465e-27
1.68318e-27
3.01736e-28
5.32072e-29
9.23034e-30
1.57551e-30
2.64627e-31
4.3742e-32
7.1164e-33
1.13961e-33
1.7965e-34
2.78809e-35
4.26019e-36
6.40936e-37
9.49502e-38
1.38517e-38
1.99002e-39
2.81731e-40
3.93265e-41
5.41238e-42
7.34399e-43
9.82444e-44
1.29571e-44
1.68473e-45
2.15959e-46
2.72918e-47
3.40031e-48
4.17667e-49
5.05795e-50
6.03883e-51
7.10836e-52
8.24946e-53
9.43896e-54
1.0648e-54
1.18428e-55
1.29865e-56
1.40404e-57
1.49666e-58
1.57298e-59
1.63001e-60
1.66543e-61
1.67779e-62
1.66661e-63
1.63239e-64
1.57658e-65
1.50148e-66
1.41008e-67
1.30588e-68
1.19263e-69
1.07415e-70
9.54101e-72
8.35805e-73
7.22121e-74
6.15351e-75
5.17198e-76
4.2877e-77
3.50623e-78
2.82824e-79
2.25044e-80
1.76646e-81
1.36785e-82
1.04492e-83
7.8749e-85
5.85511e-86
4.29496e-87
3.10828e-88
2.21932e-89
1.56334e-90
1.08645e-91
7.44863e-93
5.03755e-94
3.3605e-95
2.21085e-96
1.43424e-97
9.17126e-99
5.77946e-100
3.58578e-101
2.1899e-102
1.31292e-103
7.72582e-105
4.42249e-106
2.46779e-107
3.25938e-16
9.45072e-15
1.47421e-13
1.54217e-12
1.20901e-11
7.56024e-11
3.92859e-10
1.74624e-09
6.7872e-09
2.34728e-08
7.32817e-08
2.09111e-07
5.51441e-07
1.35723e-06
3.14518e-06
6.91396e-06
1.45065e-05
2.91889e-05
5.65182e-05
0.000105552
0.000190407
0.000332116
0.000560694
0.000917242
0.00145584
0.00224491
0.00336805
0.00492418
0.00702647
0.00979817
0.0133634
0.0178338
0.0232937
0.0297841
0.0372815
0.0457196
0.0550246
0.0648783
0.0741362
0.0819579
0.0874995
0.0909009
0.092298
0.0903636
0.0861749
0.07955
0.0713509
0.062191
0.0524891
0.0430472
0.0340048
0.0258184
0.0188884
0.0132456
0.0089182
0.00573621
0.00352452
0.00207036
0.00116105
0.00062208
0.000318744
0.000156257
7.34119e-05
3.30973e-05
1.43384e-05
5.9767e-06
2.40016e-06
9.29794e-07
3.47882e-07
1.25861e-07
4.40827e-08
1.49637e-08
4.9279e-09
1.57605e-09
4.89974e-10
1.48204e-10
4.36508e-11
1.2529e-11
3.5071e-12
9.58062e-13
2.55583e-13
6.66235e-14
1.69796e-14
4.23311e-15
1.03286e-15
2.46757e-16
5.77475e-17
1.32436e-17
2.97749e-18
6.56474e-19
1.41987e-19
3.01356e-20
6.27813e-21
1.28416e-21
2.57958e-22
5.09008e-23
9.86821e-24
1.88009e-24
3.52069e-25
6.4813e-26
1.17315e-26
2.08817e-27
3.65567e-28
6.29522e-29
1.06649e-29
1.77766e-30
2.9157e-31
4.70629e-32
7.47653e-33
1.16909e-33
1.79953e-34
2.72687e-35
4.06815e-36
5.97571e-37
8.64313e-38
1.23103e-38
1.72662e-39
2.38619e-40
3.25124e-41
4.36733e-42
5.78356e-43
7.55058e-44
9.71774e-45
1.23295e-45
1.54213e-46
1.90147e-47
2.31124e-48
2.76943e-49
3.2713e-50
3.80924e-51
4.37264e-52
4.94811e-53
5.51986e-54
6.0704e-55
6.58131e-56
7.03432e-57
7.41232e-58
7.7005e-59
7.88725e-60
7.96499e-61
7.93066e-62
7.7859e-63
7.53697e-64
7.19423e-65
6.77151e-66
6.28512e-67
5.75282e-68
5.1928e-69
4.62265e-70
4.05846e-71
3.5142e-72
3.00125e-73
2.52815e-74
2.10059e-75
1.7216e-76
1.39184e-77
1.11001e-78
8.73291e-80
6.7779e-81
5.18978e-82
3.9204e-83
2.92178e-84
2.14836e-85
1.55853e-86
1.1155e-87
7.87717e-89
5.48788e-90
3.77191e-91
2.55743e-92
1.71044e-93
1.12821e-94
7.33865e-96
4.70524e-97
2.9735e-98
1.84999e-99
1.13334e-100
6.81554e-102
4.02753e-103
2.3197e-104
1.31039e-105
1.38355e-15
4.06771e-14
6.46912e-13
6.89528e-12
5.50347e-11
3.49947e-10
1.84691e-09
8.32879e-09
3.28103e-08
1.14932e-07
3.63384e-07
1.05051e-06
2.8085e-06
7.01307e-06
1.64978e-05
3.68251e-05
7.84446e-05
0.000160173
0.000314464
0.000594829
0.00108545
0.00191263
0.00325719
0.00536678
0.00856662
0.0132681
0.019974
0.0292738
0.0418134
0.0582209
0.0789946
0.104391
0.134393
0.168794
0.207067
0.248591
0.292411
0.335214
0.370737
0.398318
0.41689
0.42742
0.431687
0.424223
0.408689
0.383741
0.351645
0.313316
0.271541
0.231006
0.192955
0.155034
0.119739
0.088727
0.0633906
0.0434815
0.0283837
0.0177064
0.0105431
0.00597886
0.00323536
0.00167095
0.000824891
0.000389795
0.000176568
7.67798e-05
3.20956e-05
1.29153e-05
5.00967e-06
1.87554e-06
6.78593e-07
2.37567e-07
8.05676e-08
2.64981e-08
8.46058e-09
2.6251e-09
7.92234e-10
2.32755e-10
6.6625e-11
1.8595e-11
5.06385e-12
1.34642e-12
3.49752e-13
8.88115e-14
2.20566e-14
5.36018e-15
1.27525e-15
2.97143e-16
6.78373e-17
1.51797e-17
3.33039e-18
7.16653e-19
1.51298e-19
3.13463e-20
6.37506e-21
1.27301e-21
2.49649e-22
4.80916e-23
9.102e-24
1.69284e-24
3.09442e-25
5.56035e-26
9.82316e-27
1.70643e-27
2.91526e-28
4.89857e-29
8.09693e-30
1.31668e-30
2.10667e-31
3.31675e-32
5.13893e-33
7.83636e-34
1.17619e-34
1.73779e-35
2.52762e-36
3.61953e-37
5.10332e-38
7.08479e-39
9.69027e-40
1.3065e-40
1.73637e-41
2.27473e-42
2.93746e-43
3.73908e-44
4.69148e-45
5.80237e-46
7.0738e-47
8.50062e-48
1.00693e-48
1.17571e-49
1.35317e-50
1.53521e-51
1.71691e-52
1.89277e-53
2.05698e-54
2.20371e-55
2.32745e-56
2.42337e-57
2.48762e-58
2.51759e-59
2.5121e-60
2.47144e-61
2.3974e-62
2.29309e-63
2.16274e-64
2.01144e-65
1.84476e-66
1.66848e-67
1.4882e-68
1.30912e-69
1.13576e-70
9.71849e-72
8.20222e-73
6.82807e-74
5.60677e-75
4.54141e-76
3.62866e-77
2.86016e-78
2.22401e-79
1.70607e-80
1.29117e-81
9.64053e-83
7.10163e-84
5.16131e-85
3.70088e-86
2.61814e-87
1.8273e-88
1.25818e-89
8.54591e-91
5.72575e-92
3.78333e-93
2.46522e-94
1.58333e-95
1.00229e-96
6.24675e-98
3.83327e-99
2.31011e-100
1.36798e-101
7.91479e-103
4.49198e-104
4.04034e-15
1.21067e-13
1.98726e-12
2.18777e-11
1.80215e-10
1.18041e-09
6.40316e-09
2.96137e-08
1.19376e-07
4.26952e-07
1.37524e-06
4.04177e-06
1.09641e-05
2.7734e-05
6.59989e-05
0.000148848
0.000320007
0.000658635
0.00130154
0.00247378
0.00452696
0.007982
0.0135725
0.0222876
0.0354214
0.054645
0.0821053
0.120533
0.173377
0.24507
0.341028
0.44846
0.530156
0.617362
0.68836
0.736866
0.780181
0.807188
0.82488
0.84072
0.851191
0.857889
0.861809
0.863671
0.86028
0.85211
0.836503
0.811484
0.774441
0.721457
0.651702
0.569604
0.477091
0.378971
0.285539
0.212132
0.149541
0.0998006
0.0637956
0.0387086
0.0223163
0.0122463
0.00639862
0.00318957
0.00151923
0.000692616
0.000302717
0.000127037
5.12654e-05
1.99234e-05
7.46733e-06
2.70288e-06
9.46053e-07
3.20606e-07
1.05319e-07
3.35735e-08
1.03967e-08
3.13054e-09
9.17413e-10
2.61877e-10
7.28711e-11
1.97813e-11
5.24192e-12
1.35685e-12
3.43266e-13
8.49222e-14
2.0555e-14
4.86991e-15
1.12984e-15
2.56789e-16
5.71951e-17
1.24886e-17
2.67412e-18
5.61675e-19
1.15757e-19
2.34144e-20
4.64937e-21
9.06521e-22
1.73591e-22
3.26534e-23
6.03479e-24
1.09599e-24
1.95627e-25
3.43244e-26
5.92092e-27
1.00427e-27
1.6751e-28
2.748e-29
4.43435e-30
7.0393e-31
1.09942e-31
1.68955e-32
2.55505e-33
3.80266e-34
5.57026e-35
8.03154e-36
1.13997e-36
1.59292e-37
2.19151e-38
2.97141e-39
3.9707e-40
5.22941e-41
6.78768e-42
8.68316e-43
1.09478e-43
1.36041e-44
1.66615e-45
2.01125e-46
2.39291e-47
2.80607e-48
3.24333e-49
3.69495e-50
4.14915e-51
4.59253e-52
5.01069e-53
5.38899e-54
5.71338e-55
5.97128e-56
6.1524e-57
6.24938e-58
6.25833e-59
6.17908e-60
6.01515e-61
5.77353e-62
5.46417e-63
5.09927e-64
4.69255e-65
4.25836e-66
3.81085e-67
3.36329e-68
2.92742e-69
2.51303e-70
2.12774e-71
1.7769e-72
1.46368e-73
1.18927e-74
9.53189e-76
7.53631e-77
5.87802e-78
4.5228e-79
3.4332e-80
2.57107e-81
1.89959e-82
1.38466e-83
9.95771e-85
7.06498e-86
4.94519e-87
3.41482e-88
2.32608e-89
1.56292e-90
1.03565e-91
6.76745e-93
4.35895e-94
2.7672e-95
1.7298e-96
1.06466e-97
6.43906e-99
3.82748e-100
2.22778e-101
1.27343e-102
9.88329e-15
2.9975e-13
5.06756e-12
5.75568e-11
4.89101e-10
3.30003e-09
1.83912e-08
8.70914e-08
3.58263e-07
1.30344e-06
4.25825e-06
1.26584e-05
3.46514e-05
8.82885e-05
0.000211338
0.000478949
0.00103386
0.00213528
0.00423378
0.00808034
0.0148781
0.0264877
0.0457002
0.0766025
0.125116
0.200001
0.314909
0.462889
0.57558
0.694285
0.764677
0.810203
0.851151
0.871502
0.889705
0.89798
0.905068
0.908364
0.909616
0.913497
0.919202
0.924181
0.932314
0.938975
0.946317
0.953058
0.958011
0.961346
0.962764
0.958849
0.949071
0.931396
0.901643
0.854234
0.778978
0.664941
0.529815
0.387305
0.265648
0.176329
0.109399
0.0645806
0.0360597
0.0191272
0.00965127
0.00464311
0.0021339
0.000938607
0.000395828
0.000160318
6.24633e-05
2.34489e-05
8.49425e-06
2.97339e-06
1.00712e-06
3.30495e-07
1.05198e-07
3.2515e-08
9.76876e-09
2.85552e-09
8.12831e-10
2.25495e-10
6.10131e-11
1.61123e-11
4.15546e-12
1.04728e-12
2.58064e-13
6.22057e-14
1.46748e-14
3.38957e-15
7.66859e-16
1.69999e-16
3.69391e-17
7.86999e-18
1.64451e-18
3.37128e-19
6.78203e-20
1.33917e-20
2.59611e-21
4.94208e-22
9.24026e-23
1.69718e-23
3.06279e-24
5.43155e-25
9.4671e-26
1.62204e-26
2.73224e-27
4.5253e-28
7.3706e-29
1.1807e-29
1.86039e-30
2.88368e-31
4.39759e-32
6.59859e-33
9.74311e-34
1.41578e-34
2.02481e-35
2.85038e-36
3.94986e-37
5.39165e-38
7.25215e-39
9.61216e-40
1.25542e-40
1.61577e-41
2.04926e-42
2.56123e-43
3.15459e-44
3.829e-45
4.58022e-46
5.39949e-47
6.27327e-48
7.18321e-49
8.10657e-50
9.01699e-51
9.88563e-52
1.06826e-52
1.13788e-53
1.19475e-54
1.2366e-55
1.26174e-56
1.26916e-57
1.25858e-58
1.2305e-59
1.18613e-60
1.12733e-61
1.05645e-62
9.76218e-64
8.89524e-65
7.99278e-66
7.08245e-67
6.18914e-68
5.33402e-69
4.5339e-70
3.80099e-71
3.14301e-72
2.5635e-73
2.0624e-74
1.63674e-75
1.28135e-76
9.89569e-78
7.53926e-79
5.66662e-80
4.20184e-81
3.07384e-82
2.21844e-83
1.57957e-84
1.10955e-85
7.68874e-87
5.25575e-88
3.54374e-89
2.35647e-90
1.54522e-91
9.98832e-93
6.36351e-94
3.9929e-95
2.46697e-96
1.49873e-97
8.95165e-99
5.24573e-100
3.02215e-101
2.19372e-14
6.67516e-13
1.15217e-11
1.33858e-10
1.16345e-09
8.01701e-09
4.55073e-08
2.19364e-07
9.15667e-07
3.37024e-06
1.11093e-05
3.32509e-05
9.15017e-05
0.000234124
0.000562537
0.0012798
0.00277519
0.00576571
0.011528
0.0222831
0.0418521
0.0767701
0.138056
0.243796
0.423076
0.577734
0.698213
0.768664
0.819306
0.846929
0.859164
0.864442
0.86602
0.864245
0.858793
0.843153
0.825054
0.810984
0.801565
0.797761
0.80722
0.825029
0.846587
0.872168
0.899552
0.926117
0.946706
0.963564
0.975117
0.982093
0.985884
0.987793
0.987548
0.983321
0.973642
0.954651
0.919303
0.85427
0.735609
0.567008
0.388424
0.249029
0.150881
0.086112
0.046476
0.0237896
0.0115783
0.00537082
0.00237969
0.00100919
0.000410441
0.000160384
6.0321e-05
2.18723e-05
7.65793e-06
2.59268e-06
8.49952e-07
2.7014e-07
8.33373e-08
2.4981e-08
7.28336e-09
2.06729e-09
5.71722e-10
1.54177e-10
4.05706e-11
1.04244e-11
2.61694e-12
6.42223e-13
1.54152e-13
3.62064e-14
8.32502e-15
1.87467e-15
4.13582e-16
8.94229e-17
1.8955e-17
3.94016e-18
8.03417e-19
1.60738e-19
3.15608e-20
6.08317e-21
1.15121e-21
2.13951e-22
3.90557e-23
7.00399e-24
1.23415e-24
2.13711e-25
3.63732e-26
6.08553e-27
1.001e-27
1.61901e-28
2.5751e-29
4.0283e-30
6.19844e-31
9.38258e-32
1.39729e-32
2.0475e-33
2.95237e-34
4.18959e-35
5.85143e-36
8.04766e-37
1.09041e-37
1.45556e-38
1.91428e-39
2.48043e-40
3.1667e-41
3.9834e-42
4.93721e-43
6.02975e-44
7.25637e-45
8.60504e-46
1.00557e-46
1.158e-47
1.31419e-48
1.46984e-49
1.62018e-50
1.76015e-51
1.88473e-52
1.98918e-53
2.06938e-54
2.1221e-55
2.1452e-56
2.13777e-57
2.10022e-58
2.0342e-59
1.94251e-60
1.82892e-61
1.69785e-62
1.55417e-63
1.40284e-64
1.24865e-65
1.09602e-66
9.48761e-68
8.09971e-69
6.81984e-70
5.66352e-71
4.63897e-72
3.74796e-73
2.9869e-74
2.34808e-75
1.82089e-76
1.39298e-77
1.05126e-78
7.82673e-80
5.74865e-81
4.16551e-82
2.97774e-83
2.09997e-84
1.46095e-85
1.0026e-86
6.78675e-88
4.53084e-89
2.98282e-90
1.9359e-91
1.23839e-92
7.804e-94
4.84309e-95
2.95719e-96
1.77609e-97
1.0482e-98
6.08768e-100
4.3605e-14
1.30789e-12
2.29279e-11
2.71478e-10
2.4069e-09
1.69755e-08
1.00735e-07
5.12259e-07
2.18647e-06
8.10273e-06
2.68185e-05
8.04846e-05
0.000221577
0.000564771
0.00134198
0.00299577
0.00638665
0.0134483
0.0274064
0.0543961
0.105899
0.203565
0.388208
0.591706
0.699756
0.776754
0.812015
0.827645
0.834067
0.835286
0.818405
0.781979
0.724757
0.643589
0.57612
0.518983
0.479441
0.45973
0.449923
0.446396
0.457523
0.479559
0.517849
0.575274
0.648783
0.734575
0.810954
0.875256
0.926745
0.95962
0.978577
0.988272
0.992984
0.995161
0.996133
0.995552
0.992483
0.984776
0.967615
0.930023
0.848033
0.684183
0.474027
0.293133
0.171849
0.0945856
0.0491886
0.0242482
0.0113628
0.00507455
0.00216499
0.000884387
0.00034664
0.000130624
4.74103e-05
1.66021e-05
5.61796e-06
1.8397e-06
5.8378e-07
1.79729e-07
5.3746e-08
1.56272e-08
4.42223e-09
1.21899e-09
3.27576e-10
8.58797e-11
2.19801e-11
5.4954e-12
1.3429e-12
3.20916e-13
7.50322e-14
1.71714e-14
3.84805e-15
8.44729e-16
1.81713e-16
3.83165e-17
7.92225e-18
1.60655e-18
3.19621e-19
6.2399e-20
1.19569e-20
2.24935e-21
4.15504e-22
7.538e-23
1.34332e-23
2.3519e-24
4.04616e-25
6.84102e-26
1.13688e-26
1.85731e-27
2.98324e-28
4.71175e-29
7.31842e-30
1.11801e-30
1.68003e-31
2.48358e-32
3.6122e-33
5.16945e-34
7.28007e-35
1.00934e-35
1.37834e-36
1.85399e-37
2.45645e-38
3.20609e-39
4.12218e-40
5.22128e-41
6.51537e-42
8.00995e-43
9.70205e-44
1.15786e-44
1.36151e-45
1.57751e-46
1.80107e-47
2.02632e-48
2.2466e-49
2.4547e-50
2.64328e-51
2.8053e-52
2.93444e-53
3.02549e-54
3.07477e-55
3.0803e-56
3.04196e-57
2.9615e-58
2.84242e-59
2.68968e-60
2.50937e-61
2.30833e-62
2.09373e-63
1.87262e-64
1.65158e-65
1.43645e-66
1.23208e-67
1.04223e-68
8.69515e-70
7.1548e-71
5.80685e-72
4.64859e-73
3.67073e-74
2.85924e-75
2.19698e-76
1.66529e-77
1.24523e-78
9.18574e-80
6.68476e-81
4.79916e-82
3.39896e-83
2.37475e-84
1.63666e-85
1.11262e-86
7.45976e-88
4.93227e-89
3.21523e-90
2.06601e-91
1.30807e-92
8.15774e-94
5.00841e-95
3.0262e-96
1.79888e-97
1.05332e-98
9.79114e-14
3.03794e-12
5.39536e-11
6.40084e-10
5.55125e-09
3.63045e-08
1.87877e-07
8.82508e-07
3.74738e-06
1.40352e-05
4.69277e-05
0.000142147
0.000395385
0.00102336
0.00249919
0.00585743
0.0134923
0.030213
0.0594331
0.119774
0.248323
0.478284
0.652236
0.744113
0.787013
0.804888
0.809886
0.808238
0.775349
0.706257
0.576251
0.490339
0.404748
0.365521
0.3383
0.325217
0.319577
0.318195
0.320334
0.322524
0.325859
0.327446
0.327878
0.329365
0.342803
0.38126
0.472583
0.607215
0.755188
0.856895
0.924755
0.96173
0.982125
0.992074
0.996375
0.998028
0.998635
0.998606
0.997445
0.993778
0.983882
0.958089
0.891467
0.727261
0.491171
0.293212
0.164843
0.0872009
0.0435715
0.0206346
0.00929013
0.00398751
0.00163596
0.000643101
0.000242765
8.81808e-05
3.0878e-05
1.04411e-05
3.41465e-06
1.08159e-06
3.32244e-07
9.90939e-08
2.87278e-08
8.10318e-09
2.22586e-09
5.95921e-10
1.55617e-10
3.96644e-11
9.87411e-12
2.40214e-12
5.71392e-13
1.32958e-13
3.02787e-14
6.75118e-15
1.47437e-15
3.1548e-16
6.61634e-17
1.36042e-17
2.74324e-18
5.42627e-19
1.05316e-19
2.00604e-20
3.75088e-21
6.88595e-22
1.24141e-22
2.19819e-23
3.82375e-24
6.53521e-25
1.09759e-25
1.81176e-26
2.93966e-27
4.68913e-28
7.35427e-29
1.13421e-29
1.72032e-30
2.56645e-31
3.76629e-32
5.43749e-33
7.72379e-34
1.07991e-34
1.48685e-35
2.01599e-36
2.69198e-37
3.5403e-38
4.5858e-39
5.85079e-40
7.35289e-41
9.10257e-42
1.11007e-42
1.33364e-43
1.5785e-44
1.84071e-45
2.11487e-46
2.39418e-47
2.67069e-48
2.93565e-49
3.17994e-50
3.39459e-51
3.57132e-52
3.70307e-53
3.78451e-54
3.81231e-55
3.78546e-56
3.70527e-57
3.57529e-58
3.40105e-59
3.18964e-60
2.94929e-61
2.6888e-62
2.41704e-63
2.14246e-64
1.87267e-65
1.61416e-66
1.37211e-67
1.15028e-68
9.51065e-70
7.75572e-71
6.23815e-72
4.9491e-73
3.87301e-74
2.98975e-75
2.27666e-76
1.71019e-77
1.26732e-78
9.26462e-80
6.68141e-81
4.7534e-82
3.33603e-83
2.30955e-84
1.57715e-85
1.06224e-86
7.05566e-88
4.62098e-89
2.98354e-90
1.89847e-91
1.19023e-92
7.34953e-94
4.46893e-95
2.67579e-96
1.57964e-97
1.24405e-13
3.67655e-12
6.59766e-11
8.02653e-10
7.51969e-09
5.90709e-08
3.80141e-07
1.97036e-06
8.6619e-06
3.28685e-05
0.000108396
0.00031596
0.000837055
0.00211592
0.00525779
0.0124646
0.0263317
0.0512458
0.112656
0.258724
0.483248
0.662693
0.745731
0.780269
0.791625
0.794884
0.772644
0.705176
0.545555
0.436564
0.366494
0.330036
0.308257
0.299414
0.295346
0.294064
0.293775
0.295756
0.302345
0.309867
0.317858
0.321444
0.320106
0.30561
0.288992
0.279796
0.280852
0.316112
0.41289
0.604726
0.789401
0.887036
0.944203
0.974378
0.989277
0.995877
0.998414
0.999247
0.999513
0.999476
0.998821
0.99641
0.988682
0.964902
0.892892
0.694561
0.436759
0.250826
0.134986
0.0683653
0.0327131
0.0148426
0.00640666
0.00263872
0.00103986
0.000393055
0.000142822
4.99891e-05
1.68846e-05
5.51265e-06
1.74235e-06
5.33841e-07
1.58754e-07
4.58738e-08
1.28937e-08
3.52834e-09
9.40833e-10
2.44648e-10
6.20819e-11
1.53838e-11
3.72476e-12
8.81656e-13
2.0412e-13
4.62438e-14
1.02562e-14
2.22768e-15
4.74031e-16
9.88534e-17
2.02088e-17
4.05116e-18
7.96566e-19
1.53665e-19
2.909e-20
5.40529e-21
9.86036e-22
1.76624e-22
3.10718e-23
5.36936e-24
9.11567e-25
1.52066e-25
2.49299e-26
4.01711e-27
6.36315e-28
9.90953e-29
1.51744e-29
2.28507e-30
3.38431e-31
4.93027e-32
7.06558e-33
9.96507e-34
1.38368e-34
1.89164e-35
2.54636e-36
3.37521e-37
4.40565e-38
5.66327e-39
7.16965e-40
8.93972e-41
1.09791e-41
1.32816e-42
1.58269e-43
1.85791e-44
2.14861e-45
2.44804e-46
2.74807e-47
3.03954e-48
3.3127e-49
3.5577e-50
3.76524e-51
3.92713e-52
4.03678e-53
4.08975e-54
4.08393e-55
4.01978e-56
3.90021e-57
3.73042e-58
3.51746e-59
3.26982e-60
2.99681e-61
2.70806e-62
2.41289e-63
2.11991e-64
1.83661e-65
1.5691e-66
1.32203e-67
1.09851e-68
9.00241e-70
7.27643e-71
5.80097e-72
4.56163e-73
3.53826e-74
2.70723e-75
2.04331e-76
1.52134e-77
1.1174e-78
8.09631e-80
5.78705e-81
4.08051e-82
2.83822e-83
1.94731e-84
1.31779e-85
8.79516e-87
5.7885e-88
3.75617e-89
2.40266e-90
1.51467e-91
9.40886e-93
5.75846e-94
3.47301e-95
2.06686e-96
1.91199e-13
5.53661e-12
9.96808e-11
1.17337e-09
9.7729e-09
6.6537e-08
4.16244e-07
2.23537e-06
1.02705e-05
4.1689e-05
0.000151936
0.000497028
0.00145645
0.00376182
0.00861473
0.0180324
0.0391028
0.0950546
0.222104
0.415924
0.633715
0.732942
0.769814
0.779808
0.781935
0.752684
0.652954
0.47421
0.379359
0.328669
0.304311
0.293392
0.284739
0.273315
0.266038
0.257626
0.250775
0.248159
0.259073
0.277775
0.305741
0.329298
0.346238
0.355222
0.329362
0.283155
0.262689
0.257785
0.27841
0.348643
0.533903
0.746639
0.867076
0.935424
0.971013
0.988099
0.995518
0.99843
0.999449
0.999753
0.999826
0.999728
0.99912
0.996673
0.987593
0.955431
0.843617
0.578135
0.338955
0.185423
0.0950924
0.0459264
0.0209778
0.00909697
0.00375797
0.00148337
0.000561008
0.000203781
7.12489e-05
2.40248e-05
7.82654e-06
2.46713e-06
7.5361e-07
2.23353e-07
6.43034e-08
1.80025e-08
4.90578e-09
1.30238e-09
3.37105e-10
8.51353e-11
2.09921e-11
5.05671e-12
1.19065e-12
2.74175e-13
6.17729e-14
1.36232e-14
2.94202e-15
6.22376e-16
1.29017e-16
2.62158e-17
5.2231e-18
1.02061e-18
1.95643e-19
3.67999e-20
6.79364e-21
1.23119e-21
2.19076e-22
3.82822e-23
6.57062e-24
1.10789e-24
1.83542e-25
2.98806e-26
4.78105e-27
7.51961e-28
1.16269e-28
1.76761e-29
2.64249e-30
3.88508e-31
5.61815e-32
7.99426e-33
1.11967e-33
1.54367e-34
2.09513e-35
2.79952e-36
3.68301e-37
4.77084e-38
6.08538e-39
7.64377e-40
9.45542e-41
1.15195e-41
1.38226e-42
1.63371e-43
1.902e-44
2.18136e-45
2.46459e-46
2.74341e-47
3.00874e-48
3.25129e-49
3.46197e-50
3.63256e-51
3.75619e-52
3.8278e-53
3.8445e-54
3.80578e-55
3.71348e-56
3.57168e-57
3.38643e-58
3.16526e-59
2.91672e-60
2.64985e-61
2.37359e-62
2.09637e-63
1.82571e-64
1.56788e-65
1.32779e-66
1.10893e-67
9.1338e-69
7.41975e-70
5.94477e-71
4.69791e-72
3.66194e-73
2.8156e-74
2.13548e-75
1.5977e-76
1.17917e-77
8.58511e-79
6.16604e-80
4.36873e-81
3.0534e-82
2.10513e-83
1.43159e-84
9.60215e-86
6.3517e-87
4.14314e-88
2.66459e-89
1.6894e-90
1.05586e-91
6.50495e-93
3.95171e-94
2.37046e-95
2.24009e-13
5.53307e-12
9.74185e-11
1.22546e-09
1.20319e-08
9.06102e-08
5.47753e-07
2.8539e-06
1.2933e-05
5.06462e-05
0.000174395
0.00054073
0.00153999
0.00403904
0.00964333
0.0225248
0.0562115
0.133619
0.287903
0.525134
0.697219
0.756234
0.772341
0.775143
0.754893
0.652792
0.466036
0.360988
0.313675
0.292303
0.282403
0.265978
0.238829
0.20494
0.168788
0.13974
0.126095
0.122718
0.134576
0.155449
0.191745
0.255685
0.332001
0.371235
0.387174
0.369711
0.298751
0.262489
0.26233
0.292242
0.392585
0.615986
0.79217
0.894608
0.949194
0.976946
0.990295
0.996239
0.998666
0.999571
0.999857
0.999926
0.999912
0.99973
0.998811
0.994762
0.97809
0.912817
0.68906
0.413448
0.229476
0.118894
0.057834
0.0265435
0.0115445
0.00477624
0.00188598
0.000712865
0.000258597
9.02376e-05
3.03522e-05
9.85886e-06
3.09749e-06
9.42708e-07
2.78296e-07
7.97843e-08
2.22372e-08
6.03147e-09
1.59343e-09
4.10358e-10
1.03094e-10
2.52836e-11
6.05681e-12
1.41806e-12
3.2465e-13
7.27128e-14
1.59394e-14
3.42112e-15
7.19226e-16
1.48152e-16
2.99114e-17
5.92077e-18
1.14935e-18
2.18861e-19
4.08914e-20
7.49791e-21
1.34954e-21
2.38482e-22
4.13837e-23
7.05322e-24
1.18087e-24
1.94242e-25
3.13962e-26
4.98734e-27
7.78716e-28
1.19527e-28
1.80379e-29
2.67666e-30
3.90607e-31
5.60814e-32
7.92371e-33
1.1018e-33
1.50792e-34
2.03136e-35
2.69378e-36
3.51669e-37
4.51997e-38
5.72e-39
7.12765e-40
8.74608e-41
1.05688e-41
1.2578e-42
1.47435e-43
1.70222e-44
1.93591e-45
2.16889e-46
2.39385e-47
2.6031e-48
2.78897e-49
2.9443e-50
3.06287e-51
3.13986e-52
3.17211e-53
3.15841e-54
3.09951e-55
2.99809e-56
2.85857e-57
2.68673e-58
2.4894e-59
2.27395e-60
2.04788e-61
1.81839e-62
1.59202e-63
1.37439e-64
1.17001e-65
9.82217e-67
8.13173e-68
6.63947e-69
5.3466e-70
4.2465e-71
3.32668e-72
2.57059e-73
1.95933e-74
1.47316e-75
1.09262e-76
7.99411e-78
5.76982e-79
4.10813e-80
2.88545e-81
1.99923e-82
1.3664e-83
9.21157e-85
6.12503e-86
4.01666e-87
2.59762e-88
1.65655e-89
1.04177e-90
6.46097e-92
3.95329e-93
2.38992e-94
2.59531e-13
5.28785e-12
8.91937e-11
1.15747e-09
1.15283e-08
8.86038e-08
5.41801e-07
2.81545e-06
1.28265e-05
5.18209e-05
0.000186347
0.000602385
0.00174497
0.00466421
0.0119218
0.0302339
0.0741728
0.170999
0.34443
0.582728
0.717739
0.761501
0.771089
0.758902
0.685322
0.534039
0.385684
0.321868
0.292475
0.275632
0.254359
0.217834
0.173632
0.128394
0.096795
0.0807524
0.0751176
0.0781797
0.0882945
0.107852
0.130213
0.162267
0.228319
0.342985
0.395453
0.409151
0.384299
0.31521
0.285731
0.291733
0.362047
0.570182
0.768418
0.882344
0.942591
0.973211
0.988186
0.995103
0.99809
0.999295
0.999758
0.999924
0.999967
0.999964
0.99989
0.999444
0.997186
0.986661
0.941061
0.755872
0.463094
0.25965
0.135384
0.0661046
0.0303967
0.0132266
0.0054688
0.00215632
0.000813312
0.000294244
0.000102354
3.43063e-05
1.11001e-05
3.47294e-06
1.0523e-06
3.09199e-07
8.82113e-08
2.4461e-08
6.5997e-09
1.73406e-09
4.44072e-10
1.10922e-10
2.70428e-11
6.43915e-12
1.49829e-12
3.40865e-13
7.58573e-14
1.65208e-14
3.52259e-15
7.35619e-16
1.50507e-16
3.01794e-17
5.93262e-18
1.14363e-18
2.16244e-19
4.01165e-20
7.3034e-21
1.30509e-21
2.28961e-22
3.94428e-23
6.67326e-24
1.10904e-24
1.81079e-25
2.90513e-26
4.58042e-27
7.0982e-28
1.08132e-28
1.6195e-29
2.38497e-30
3.45508e-31
4.9246e-32
6.90652e-33
9.53149e-34
1.29454e-34
1.73044e-35
2.2768e-36
2.94884e-37
3.75986e-38
4.71972e-39
5.83336e-40
7.0992e-41
8.50782e-42
1.0041e-42
1.16711e-43
1.33616e-44
1.50674e-45
1.67373e-46
1.83157e-47
1.97462e-48
2.09744e-49
2.19518e-50
2.26386e-51
2.30067e-52
2.30415e-53
2.27427e-54
2.21245e-55
2.12143e-56
2.00507e-57
1.86811e-58
1.7158e-59
1.55363e-60
1.38697e-61
1.2208e-62
1.0595e-63
9.06692e-65
7.65137e-66
6.36737e-67
5.22566e-68
4.22962e-69
3.37643e-70
2.65845e-71
2.06457e-72
1.58153e-73
1.19504e-74
8.90755e-76
6.54962e-77
4.75076e-78
3.39942e-79
2.39962e-80
1.67099e-81
1.14787e-82
7.77841e-84
5.1994e-85
3.42818e-86
2.22955e-87
1.43023e-88
9.05061e-90
5.65057e-91
3.48209e-92
2.12115e-93
4.05141e-13
5.20971e-12
8.17827e-11
9.7258e-10
9.50172e-09
7.54291e-08
4.7825e-07
2.52059e-06
1.15669e-05
4.71131e-05
0.000171146
0.000558889
0.00164524
0.00444193
0.0114435
0.0289287
0.0705254
0.16304
0.334117
0.572729
0.710961
0.759043
0.769807
0.755153
0.680747
0.507269
0.363088
0.299035
0.270461
0.250906
0.224189
0.183587
0.137138
0.0971206
0.0719621
0.06018
0.0595394
0.06462
0.0736725
0.092178
0.11917
0.145312
0.192417
0.297954
0.392247
0.421802
0.416116
0.362205
0.333396
0.336456
0.377036
0.565328
0.770506
0.886191
0.944892
0.973852
0.988183
0.994992
0.998002
0.999243
0.999726
0.999907
0.99997
0.999987
0.999984
0.999941
0.999655
0.99805
0.98985
0.951496
0.782729
0.484117
0.272388
0.142155
0.0693531
0.0318264
0.0138097
0.00569058
0.0022352
0.000839564
0.000302396
0.000104698
3.49205e-05
1.12415e-05
3.49872e-06
1.05437e-06
3.08083e-07
8.73903e-08
2.40914e-08
6.46095e-09
1.68719e-09
4.2936e-10
1.06561e-10
2.58103e-11
6.10493e-12
1.41095e-12
3.18798e-13
7.04541e-14
1.52362e-14
3.22558e-15
6.68753e-16
1.35833e-16
2.70375e-17
5.27576e-18
1.00945e-18
1.89443e-19
3.48799e-20
6.30196e-21
1.11757e-21
1.94565e-22
3.32604e-23
5.58395e-24
9.20839e-25
1.49185e-25
2.37485e-26
3.71517e-27
5.71239e-28
8.63401e-29
1.28303e-29
1.87526e-30
2.69606e-31
3.81319e-32
5.30616e-33
7.26521e-34
9.78888e-35
1.298e-35
1.69397e-36
2.17605e-37
2.75167e-38
3.42549e-39
4.19839e-40
5.0665e-41
6.02049e-42
7.04509e-43
8.11901e-44
9.21536e-45
1.03025e-45
1.13456e-46
1.23082e-47
1.31544e-48
1.38512e-49
1.43704e-50
1.46907e-51
1.47991e-52
1.46918e-53
1.43743e-54
1.3861e-55
1.31742e-56
1.23424e-57
1.13984e-58
1.03773e-59
9.31404e-61
8.24199e-62
7.19096e-63
6.18621e-64
5.24767e-65
4.38969e-66
3.62115e-67
2.94594e-68
2.36366e-69
1.87046e-70
1.45994e-71
1.12397e-72
8.53547e-74
6.39392e-75
4.72483e-76
3.44426e-77
2.47688e-78
1.7572e-79
1.22984e-80
8.49156e-82
5.78415e-83
3.88693e-84
2.57683e-85
1.68537e-86
1.08756e-87
6.9251e-89
4.35216e-90
2.70081e-91
1.65751e-92
5.05969e-11
1.39604e-11
7.23646e-11