/*--------------------------------*- C++ -*----------------------------------*\
  =========                 |
  \\      /  F ield         | OpenFOAM: The Open Source CFD Toolbox
   \\    /   O peration     | Website:  https://openfoam.org
    \\  /    A nd           | Version:  9
     \\/     M anipulation  |
\*---------------------------------------------------------------------------*/
FoamFile
{
    format      ascii;
    class       volScalarField;
    location    "0.01";
    object      s_0;
}
// * * * * * * * * * * * * * * * * * * * * * * * * * * * * * * * * * * * * * //

dimensions      [0 0 0 0 0 0 0];

internalField   nonuniform List<scalar> 
12225
(
1
1
1
1
1
1
1
1
1
1
1
1
1
1
1
1
1
0.999981
1
1
1
1
1
1
1
1
1
1
1
1
1
1
1
1
1
1
1
1
1
1
1
1
1
1
1
1
1
1
1
1
1
1
1
1
1
1
1
1
1
1
1
1
1
1
1
1
1
1
1
1
1
1
1
1
1
1
1
1
1
1
1
1
1
1
1
1
1
1
1
1
1
1
1
1
1
1
1
1
1
1
1
1
1
1
1
1
1
1
1
1
1
1
1
1
1
1
1
1
1
1
1
1
1
1
1
1
1
1
1
1
1
1
1
1
1
1
1
1
1
1
1
1
1
1
1
1
1
1
1
1
1
1
1
1
1
1
1
1
1
1
1
1
1
1
1
1
1
1
1
1
1
1
1
1
1
1
1
1
1
1
1
1
1
1
1
1
1
1
1
1
1
1
1
1
1
1
1
1
1
1
1
1
1
1
1
1
1
1
1
1
1
1
1
1
1
1
1
1
1
1
1
1
1
1
1
1
1
1
1
1
1
1
1
1
1
1
1
1
1
1
1
1
1
1
1
1
1
1
1
1
1
1
1
1
1
1
1
1
1
1
1
1
1
1
1
1
1
1
1
1
1
1
1
1
1
1
1
1
1
1
1
1
1
1
1
1
1
1
1
1
1
1
1
1
1
1
1
1
1
1
1
1
1
1
1
1
1
1
1
1
1
1
1
1
1
1
1
1
1
1
1
1
1
1
1
1
1
1
1
1
1
1
1
1
1
1
1
1
1
1
1
1
1
1
1
1
1
1
1
1
1
1
1
1
1
1
1
1
1
1
1
1
1
1
1
1
1
1
1
1
1
1
1
1
1
1
1
1
1
1
1
1
1
1
1
1
1
1
1
1
1
1
1
1
1
1
1
1
1
1
1
1
1
1
1
1
1
1
1
1
1
1
1
1
1
1
1
1
1
1
1
1
1
1
1
1
1
1
1
1
1
1
1
1
1
1
1
1
1
1
1
1
1
1
1
1
1
1
1
1
1
1
1
1
1
1
1
1
1
1
1
1
1
1
1
1
1
1
1
1
1
1
1
1
1
1
1
1
1
1
1
1
1
1
1
1
1
1
1
1
1
1
1
1
1
1
1
1
1
1
1
1
1
1
1
1
1
1
1
1
1
1
1
1
1
1
1
1
1
1
1
1
1
1
1
1
1
1
1
1
1
1
1
1
1
1
1
1
1
1
6.92739e-20
2.02105e-18
3.5455e-17
4.43516e-16
4.35472e-15
3.55566e-14
2.48974e-13
1.521e-12
8.17939e-12
3.88884e-11
1.63979e-10
6.15558e-10
2.06782e-09
6.25708e-09
1.71866e-08
4.32118e-08
1.00299e-07
2.16682e-07
4.38921e-07
8.38987e-07
1.52122e-06
2.62701e-06
4.33519e-06
6.85816e-06
1.04363e-05
1.53324e-05
2.18255e-05
3.02099e-05
4.08044e-05
5.39741e-05
7.0155e-05
8.98787e-05
0.000113802
0.000142743
0.00017781
0.000220846
0.000274235
0.000338213
0.000410862
0.00047389
0.000521321
0.000552321
0.000564281
0.000550537
0.000515524
0.000463459
0.000400517
0.000331801
0.000261769
0.00020166
0.000145702
0.000101721
6.8059e-05
4.32188e-05
2.63276e-05
1.52901e-05
8.49005e-06
4.50633e-06
2.29055e-06
1.11489e-06
5.20317e-07
2.32944e-07
1.00321e-07
4.15998e-08
1.66278e-08
6.41435e-09
2.39086e-09
8.62009e-10
3.00935e-10
1.01829e-10
3.34282e-11
1.06559e-11
3.30114e-12
9.94685e-13
2.91727e-13
8.33381e-14
2.32046e-14
6.30143e-15
1.66991e-15
4.32095e-16
1.09225e-16
2.69859e-17
6.51974e-18
1.54097e-18
3.56464e-19
8.07365e-20
1.79113e-20
3.89357e-21
8.29644e-22
1.73344e-22
3.5526e-23
7.14406e-24
1.41008e-24
2.73262e-25
5.20087e-26
9.72439e-27
1.78673e-27
3.22692e-28
5.73006e-29
1.00065e-29
1.71896e-30
2.90544e-31
4.83296e-32
7.91341e-33
1.2757e-33
2.02513e-34
3.16625e-35
4.87638e-36
7.39896e-37
1.10618e-37
1.62966e-38
2.37405e-39
3.4189e-40
4.86461e-41
6.83553e-42
9.48251e-43
1.29844e-43
1.75466e-44
2.33977e-45
3.0783e-46
3.99535e-47
5.11522e-48
6.45952e-49
8.04509e-50
9.88172e-51
1.19699e-51
1.42988e-52
1.68444e-53
1.95688e-54
2.24197e-55
2.53313e-56
2.8226e-57
3.10177e-58
3.36154e-59
3.59282e-60
3.78708e-61
3.93681e-62
4.03605e-63
4.08079e-64
4.06919e-65
4.00176e-66
3.88131e-67
3.71273e-68
3.5027e-69
3.2592e-70
2.99107e-71
2.70742e-72
2.41716e-73
2.12857e-74
1.84888e-75
1.58409e-76
1.33879e-77
1.11613e-78
9.179e-80
7.44679e-81
5.95999e-82
4.70581e-83
3.6656e-84
2.81701e-85
2.13585e-86
1.59772e-87
1.17919e-88
8.5866e-90
6.16898e-91
4.37277e-92
3.05801e-93
2.10983e-94
1.43598e-95
9.64082e-97
6.38368e-98
4.16836e-99
2.6831e-100
1.7022e-101
1.06343e-102
6.54126e-104
3.95277e-105
2.34668e-106
1.35979e-107
7.69061e-109
3.98316e-110
2.09495e-17
6.38083e-16
1.06078e-14
1.19016e-13
9.99963e-13
6.67606e-12
3.68342e-11
1.7279e-10
7.04217e-10
2.53676e-09
8.1934e-09
2.40248e-08
6.46658e-08
1.61378e-07
3.7676e-07
8.29428e-07
1.73362e-06
3.45984e-06
6.62292e-06
1.2199e-05
2.16686e-05
3.71774e-05
6.17051e-05
9.92334e-05
0.000154894
0.000235074
0.000347478
0.000501184
0.000706694
0.00097592
0.00132194
0.00175855
0.00229986
0.00295929
0.003748
0.00467895
0.0057714
0.00701194
0.00823652
0.0093143
0.010103
0.0106024
0.0108051
0.0105596
0.00998042
0.00909027
0.00799117
0.00679042
0.00553768
0.00437518
0.00330211
0.002393
0.00166967
0.00111062
0.000708162
0.000431095
0.00025084
0.000139544
7.4213e-05
3.7759e-05
1.84151e-05
8.60747e-06
3.86346e-06
1.66752e-06
6.92958e-07
2.77607e-07
1.07348e-07
4.01155e-08
1.45035e-08
5.07872e-09
1.72432e-09
5.68206e-10
1.81899e-10
5.66229e-11
1.71538e-11
5.06162e-12
1.45583e-12
4.0845e-13
1.11857e-13
2.992e-14
7.82151e-15
1.99937e-15
5.0003e-16
1.22408e-16
2.93453e-17
6.89228e-18
1.58657e-18
3.58087e-19
7.92691e-20
1.72167e-20
3.6699e-21
7.67974e-22
1.57812e-22
3.18526e-23
6.31626e-24
1.23078e-24
2.3572e-25
4.43799e-26
8.2154e-27
1.49552e-27
2.67761e-28
4.71575e-29
8.17075e-30
1.39294e-30
2.33677e-31
3.85792e-32
6.26887e-33
1.00268e-33
1.57875e-34
2.44723e-35
3.73492e-36
5.61245e-37
8.30464e-38
1.21009e-38
1.73645e-39
2.45547e-40
3.42359e-41
4.70631e-42
6.37853e-43
8.52304e-44
1.12278e-44
1.4582e-45
1.86706e-46
2.35679e-47
2.93297e-48
3.59851e-49
4.3528e-50
5.191e-51
6.10338e-52
7.07506e-53
8.08597e-54
9.11126e-55
1.01221e-55
1.1087e-56
1.19731e-57
1.27483e-58
1.33832e-59
1.38526e-60
1.41374e-61
1.42262e-62
1.41153e-63
1.38098e-64
1.33225e-65
1.26734e-66
1.18885e-67
1.09975e-68
1.00324e-69
9.02551e-71
8.00772e-72
7.00694e-73
6.04704e-74
5.14713e-75
4.32124e-76
3.57839e-77
2.9229e-78
2.35506e-79
1.87182e-80
1.46762e-81
1.13517e-82
8.66204e-84
6.52075e-85
4.84287e-86
3.54849e-87
2.5652e-88
1.82952e-89
1.28733e-90
8.93647e-92
6.11998e-93
4.13441e-94
2.75498e-95
1.81049e-96
1.17323e-97
7.494e-99
4.71734e-100
2.92362e-101
1.78356e-102
1.06815e-103
6.27869e-105
3.59026e-106
2.00127e-107
3.13506e-16
9.104e-15
1.42226e-13
1.49007e-12
1.16992e-11
7.32664e-11
3.81274e-10
1.69716e-09
6.60547e-09
2.28743e-08
7.15019e-08
2.04268e-07
5.39233e-07
1.32843e-06
3.08099e-06
6.77783e-06
1.42303e-05
2.86512e-05
5.55111e-05
0.000103737
0.000187257
0.000326846
0.000552179
0.00090392
0.0014356
0.00221495
0.00332466
0.00486246
0.00693997
0.00967864
0.0132007
0.0176155
0.0230054
0.0294097
0.0368028
0.0451132
0.0542715
0.0639862
0.0730544
0.0807273
0.0861273
0.0894242
0.0907833
0.0887858
0.0846076
0.0780458
0.0699327
0.0608998
0.0513472
0.0420504
0.0331582
0.0251267
0.0183465
0.0128398
0.00862493
0.00553367
0.0033917
0.00198724
0.00111151
0.000594003
0.000303556
0.000148432
6.95607e-05
3.1284e-05
1.35203e-05
5.62242e-06
2.25271e-06
8.70722e-07
3.2507e-07
1.17359e-07
4.10198e-08
1.3896e-08
4.56732e-09
1.45794e-09
4.52412e-10
1.36594e-10
4.016e-11
1.1507e-11
3.21559e-12
8.7697e-13
2.3357e-13
6.07883e-14
1.54682e-14
3.85038e-15
9.38052e-16
2.23773e-16
5.22919e-17
1.19751e-17
2.68845e-18
5.91913e-19
1.27845e-19
2.70967e-20
5.63736e-21
1.15153e-21
2.31008e-22
4.55228e-23
8.814e-24
1.67706e-24
3.13644e-25
5.76652e-26
1.04244e-26
1.85317e-27
3.24019e-28
5.57279e-29
9.42925e-30
1.56977e-30
2.57155e-31
4.14571e-32
6.57797e-33
1.02734e-33
1.57943e-34
2.39047e-35
3.56201e-36
5.22599e-37
7.54976e-38
1.07402e-38
1.50462e-39
2.07697e-40
2.82662e-41
3.79251e-42
5.0165e-43
6.54155e-44
8.40935e-45
1.06571e-45
1.33142e-46
1.63975e-47
1.99082e-48
2.38274e-49
2.81129e-50
3.26981e-51
3.7491e-52
4.23762e-53
4.72184e-54
5.18681e-55
5.61689e-56
5.99662e-57
6.31162e-58
6.54949e-59
6.70064e-60
6.75895e-61
6.72212e-62
6.59188e-63
6.37384e-64
6.07706e-65
5.71346e-66
5.29703e-67
4.8429e-68
4.36649e-69
3.88265e-70
3.40491e-71
2.94496e-72
2.51225e-73
2.11384e-74
1.75436e-75
1.43622e-76
1.15981e-77
9.23923e-79
7.2607e-80
5.62894e-81
4.30519e-82
3.24853e-83
2.41834e-84
1.7762e-85
1.28711e-86
9.20208e-88
6.49088e-89
4.51705e-90
3.1012e-91
2.10035e-92
1.40319e-93
9.24524e-95
6.0071e-96
3.84727e-97
2.42863e-98
1.50935e-99
9.23639e-101
5.54844e-102
3.2752e-103
1.88435e-104
1.06332e-105
1.33466e-15
3.92996e-14
6.25996e-13
6.68304e-12
5.34261e-11
3.40257e-10
1.79857e-09
8.1231e-09
3.20468e-08
1.12414e-07
3.55882e-07
1.03005e-06
2.75674e-06
6.89043e-06
1.62231e-05
3.62394e-05
7.72504e-05
0.000157838
0.000310084
0.000586939
0.00107181
0.00188994
0.00322086
0.00531055
0.00848206
0.0131438
0.0197943
0.0290178
0.0414541
0.0577257
0.0783252
0.1035
0.133217
0.167247
0.205037
0.245946
0.289106
0.331433
0.366568
0.393826
0.412056
0.42236
0.426537
0.418775
0.403127
0.378116
0.346036
0.307925
0.266624
0.22705
0.189213
0.151689
0.116883
0.0864296
0.0616418
0.0421608
0.0274476
0.0170788
0.0101404
0.00573451
0.00309448
0.00159378
0.000784679
0.000369816
0.000167088
7.24754e-05
3.02224e-05
1.21326e-05
4.69521e-06
1.75387e-06
6.33189e-07
2.21202e-07
7.48636e-08
2.45729e-08
7.83064e-09
2.42505e-09
7.30512e-10
2.14236e-10
6.12164e-11
1.70561e-11
4.637e-12
1.2309e-12
3.19229e-13
8.09327e-14
2.00686e-14
4.86962e-15
1.15679e-15
2.69144e-16
6.13554e-17
1.37094e-17
3.00355e-18
6.45413e-19
1.36068e-19
2.81522e-20
5.71767e-21
1.1402e-21
2.23304e-22
4.29596e-23
8.12002e-24
1.50823e-24
2.75341e-25
4.94123e-26
8.71825e-27
1.51257e-27
2.58081e-28
4.33116e-29
7.15013e-30
1.16128e-30
1.85573e-31
2.91809e-32
4.51573e-33
6.87766e-34
1.03104e-34
1.52151e-35
2.21037e-36
3.16144e-37
4.45212e-38
6.17338e-39
8.4338e-40
1.13577e-40
1.50769e-41
1.97285e-42
2.54465e-43
3.23531e-44
4.05468e-45
5.00898e-46
6.09949e-47
7.3213e-48
8.66231e-49
1.01026e-49
1.16141e-50
1.31613e-51
1.4702e-52
1.61892e-53
1.75735e-54
1.88055e-55
1.98386e-56
2.06325e-57
2.11553e-58
2.13857e-59
2.13146e-60
2.09457e-61
2.0295e-62
1.93899e-63
1.82668e-64
1.69696e-65
1.55457e-66
1.40442e-67
1.25126e-68
1.09944e-69
9.52766e-71
8.14343e-72
6.86513e-73
5.70854e-74
4.68221e-75
3.78826e-76
3.02347e-77
2.38047e-78
1.84893e-79
1.41676e-80
1.07101e-81
7.98779e-83
5.87759e-84
4.26694e-85
3.05618e-86
2.15965e-87
1.50563e-88
1.03555e-89
7.02594e-91
4.70217e-92
3.10357e-93
2.02006e-94
1.29599e-95
8.19504e-97
5.10193e-98
3.12735e-99
1.88264e-100
1.11363e-101
6.43626e-103
3.64892e-104
3.91522e-15
1.17485e-13
1.93144e-12
2.12965e-11
1.75702e-10
1.15262e-09
6.26186e-09
2.90023e-08
1.17075e-07
4.19273e-07
1.35216e-06
3.97836e-06
1.08028e-05
2.73502e-05
6.5136e-05
0.000147004
0.000316247
0.00065131
0.00128789
0.00244953
0.00448583
0.00791539
0.013469
0.0221318
0.0351911
0.0543043
0.0815953
0.119756
0.172177
0.243188
0.338089
0.445525
0.52722
0.613708
0.685346
0.734025
0.777373
0.804928
0.822734
0.838613
0.849233
0.855948
0.859724
0.861495
0.857773
0.849189
0.833005
0.80718
0.76912
0.714672
0.644315
0.561643
0.468861
0.371026
0.278992
0.207043
0.145416
0.0967721
0.0616974
0.0373124
0.0214486
0.0117342
0.00611314
0.00303853
0.00144327
0.000656212
0.000286055
0.000119739
4.82016e-05
1.8688e-05
6.98811e-06
2.52376e-06
8.81443e-07
2.98083e-07
9.77203e-08
3.10896e-08
9.60899e-09
2.88795e-09
8.44782e-10
2.40716e-10
6.68666e-11
1.81206e-11
4.79387e-12
1.23886e-12
3.12915e-13
7.72922e-14
1.86794e-14
4.41883e-15
1.02365e-15
2.32313e-16
5.16684e-17
1.12657e-17
2.40883e-18
5.05245e-19
1.03983e-19
2.10039e-20
4.16504e-21
8.10994e-22
1.55091e-22
2.91348e-23
5.37742e-24
9.75326e-25
1.73865e-25
3.04667e-26
5.24875e-27
8.89126e-28
1.48117e-28
2.42681e-29
3.91117e-30
6.20107e-31
9.67301e-32
1.48469e-32
2.2425e-33
3.33343e-34
4.87698e-35
7.02342e-36
9.9568e-37
1.38963e-37
1.90955e-38
2.58607e-39
3.45169e-40
4.54053e-41
5.88662e-42
7.52167e-43
9.47229e-44
1.17569e-44
1.43825e-45
1.73412e-46
2.06079e-47
2.41382e-48
2.78672e-49
3.17109e-50
3.55678e-51
3.93232e-52
4.28542e-53
4.60365e-54
4.87516e-55
5.08938e-56
5.23773e-57
5.3142e-58
5.31572e-59
5.24241e-60
5.09751e-61
4.88717e-62
4.62003e-63
4.3066e-64
3.9586e-65
3.58824e-66
3.20752e-67
2.82761e-68
2.45837e-69
2.108e-70
1.78279e-71
1.48715e-72
1.22362e-73
9.93096e-75
7.95065e-76
6.27907e-77
4.89193e-78
3.75985e-79
2.85086e-80
2.13259e-81
1.57387e-82
1.14595e-83
8.2319e-85
5.83404e-86
4.07906e-87
2.8136e-88
1.91443e-89
1.28491e-90
8.50495e-92
5.55143e-93
3.57179e-94
2.265e-95
1.41433e-96
8.69543e-98
5.25327e-99
3.11924e-100
1.81359e-101
1.03556e-102
9.62616e-15
2.92303e-13
4.94851e-12
5.62838e-11
4.7896e-10
3.23614e-09
1.80598e-08
8.56351e-08
3.52713e-07
1.28476e-06
4.20179e-06
1.2503e-05
3.4256e-05
8.73482e-05
0.000209228
0.000474451
0.00102472
0.00211753
0.00420083
0.00802178
0.0147784
0.0263249
0.0454446
0.0762132
0.124523
0.199054
0.313318
0.46139
0.574047
0.692561
0.763971
0.809329
0.850466
0.87085
0.889302
0.89765
0.904659
0.908209
0.909625
0.913524
0.919379
0.92436
0.932464
0.93911
0.94632
0.952976
0.957842
0.961082
0.962183
0.957901
0.94763
0.929196
0.89837
0.849332
0.771523
0.655387
0.519476
0.377507
0.258817
0.170969
0.105718
0.0622047
0.0346191
0.0183052
0.00920832
0.00441698
0.00202421
0.000887914
0.000373457
0.00015087
5.86372e-05
2.19601e-05
7.93666e-06
2.77203e-06
9.36905e-07
3.06813e-07
9.74629e-08
3.00654e-08
9.01568e-09
2.63052e-09
7.47437e-10
2.0699e-10
5.59102e-11
1.474e-11
3.79529e-12
9.54971e-13
2.34946e-13
5.65452e-14
1.33191e-14
3.07179e-15
6.93934e-16
1.53608e-16
3.33292e-17
7.09075e-18
1.47959e-18
3.02895e-19
6.08493e-20
1.19988e-20
2.32291e-21
4.41606e-22
8.24573e-23
1.51251e-23
2.72593e-24
4.82786e-25
8.40398e-26
1.43804e-26
2.4192e-27
4.00173e-28
6.5096e-29
1.04146e-29
1.63895e-30
2.53727e-31
3.86454e-32
5.7916e-33
8.54107e-34
1.23959e-34
1.77068e-35
2.48961e-36
3.44577e-37
4.69797e-38
6.31162e-39
8.35567e-40
1.09003e-40
1.40126e-41
1.77511e-42
2.21599e-43
2.72616e-44
3.30513e-45
3.94896e-46
4.6499e-47
5.39609e-48
6.17163e-49
6.95689e-50
7.72924e-51
8.46403e-52
9.13586e-53
9.72004e-54
1.0194e-54
1.0539e-55
1.0741e-56
1.07918e-57
1.06896e-58
1.04391e-59
1.00512e-60
9.54204e-62
8.93194e-63
8.2442e-64
7.50353e-65
6.73462e-66
5.96082e-67
5.20309e-68
4.47914e-69
3.80295e-70
3.18461e-71
2.63036e-72
2.14296e-73
1.72213e-74
1.36516e-75
1.06754e-76
8.23527e-78
6.26722e-79
4.70528e-80
3.48511e-81
2.54668e-82
1.83594e-83
1.30578e-84
9.16205e-86
6.34194e-87
4.33034e-88
2.91655e-89
1.93728e-90
1.26894e-91
8.19349e-93
5.21432e-94
3.26825e-95
2.01705e-96
1.22406e-97
7.30323e-99
4.27513e-100
2.46034e-101
2.1463e-14
6.53615e-13
1.12956e-11
1.31397e-10
1.14354e-09
7.89047e-09
4.48543e-08
2.16459e-07
9.04514e-07
3.33257e-06
1.09954e-05
3.29382e-05
9.07096e-05
0.000232251
0.000558357
0.00127095
0.00275732
0.0057312
0.0114638
0.022167
0.0416469
0.0764174
0.137478
0.2429
0.421747
0.577176
0.697751
0.768577
0.819019
0.846979
0.859334
0.864658
0.866253
0.864427
0.859172
0.844117
0.826234
0.812629
0.803908
0.800332
0.809969
0.827671
0.849123
0.874559
0.901587
0.927667
0.947817
0.964186
0.975444
0.98222
0.98585
0.987747
0.987247
0.982729
0.97253
0.952674
0.915778
0.848001
0.724873
0.554797
0.377253
0.241464
0.145639
0.0828437
0.0445577
0.0227333
0.0110296
0.00510098
0.00225362
0.000953083
0.000386591
0.000150678
5.65315e-05
2.04498e-05
7.14357e-06
2.41323e-06
7.89446e-07
2.50395e-07
7.70927e-08
2.30646e-08
6.71205e-09
1.90166e-09
5.24984e-10
1.41328e-10
3.71266e-11
9.52365e-12
2.38694e-12
5.84847e-13
1.4016e-13
3.28695e-14
7.54631e-15
1.69677e-15
3.73785e-16
8.07005e-17
1.70815e-17
3.54567e-18
7.21963e-19
1.4424e-19
2.82825e-20
5.44385e-21
1.02883e-21
1.90949e-22
3.48104e-23
6.23441e-24
1.09711e-24
1.89731e-25
3.22502e-26
5.38876e-27
8.85258e-28
1.42998e-28
2.27157e-29
3.54902e-30
5.45413e-31
8.24565e-32
1.22646e-32
1.79495e-33
2.58503e-34
3.66384e-35
5.11091e-36
7.02077e-37
9.50132e-38
1.2668e-38
1.66405e-39
2.15364e-40
2.74625e-41
3.45045e-42
4.27161e-43
5.21075e-44
6.26341e-45
7.41884e-46
8.6594e-47
9.96044e-48
1.12907e-48
1.26133e-49
1.38874e-50
1.50697e-51
1.61176e-52
1.69912e-53
1.76559e-54
1.80849e-55
1.82608e-56
1.81767e-57
1.7837e-58
1.72565e-59
1.64599e-60
1.54797e-61
1.4354e-62
1.31244e-63
1.1833e-64
1.05205e-65
9.22406e-67
7.97568e-68
6.80127e-69
5.72011e-70
4.7449e-71
3.88216e-72
3.13298e-73
2.494e-74
1.9584e-75
1.51701e-76
1.15921e-77
8.7386e-79
6.49874e-80
4.76795e-81
3.45105e-82
2.46427e-83
1.73593e-84
1.20635e-85
8.26964e-87
5.59169e-88
3.72891e-89
2.45219e-90
1.58977e-91
1.01586e-92
6.39468e-94
3.96416e-95
2.41789e-96
1.45062e-97
8.55192e-99
4.96143e-100
4.28931e-14
1.2875e-12
2.25906e-11
2.67724e-10
2.37557e-09
1.67619e-08
9.93779e-08
5.05723e-07
2.16111e-06
8.01607e-06
2.65532e-05
7.9749e-05
0.000219718
0.000560496
0.00133313
0.00297925
0.0063575
0.0133929
0.0273039
0.0542097
0.10556
0.202942
0.387051
0.590994
0.699565
0.776667
0.811974
0.82764
0.834083
0.835338
0.818562
0.782231
0.725288
0.64471
0.577515
0.52095
0.481321
0.461885
0.452384
0.448975
0.460623
0.483661
0.522905
0.581028
0.655018
0.740857
0.81505
0.878592
0.928788
0.96089
0.979217
0.988556
0.993102
0.995176
0.996111
0.995394
0.992102
0.983948
0.965848
0.92625
0.840032
0.671086
0.460461
0.283893
0.165648
0.0908458
0.0470791
0.0231312
0.010805
0.00481085
0.00204655
0.000833697
0.000325908
0.000122501
4.4354e-05
1.54957e-05
5.2318e-06
1.70954e-06
5.41347e-07
1.66329e-07
4.96417e-08
1.44065e-08
4.06928e-09
1.11969e-09
3.00365e-10
7.86115e-11
2.00863e-11
5.0137e-12
1.22322e-12
2.91855e-13
6.81319e-14
1.55684e-14
3.48359e-15
7.63589e-16
1.64018e-16
3.45354e-17
7.13026e-18
1.4439e-18
2.86859e-19
5.59253e-20
1.07017e-20
2.01048e-21
3.70878e-22
6.71939e-23
1.19585e-23
2.09094e-24
3.5925e-25
6.06608e-26
1.00679e-26
1.64267e-27
2.63511e-28
4.15663e-29
6.44804e-30
9.83809e-31
1.47652e-31
2.18001e-32
3.16675e-33
4.52638e-34
6.36662e-35
8.81628e-36
1.20248e-36
1.6155e-37
2.1379e-38
2.78701e-39
3.57909e-40
4.528e-41
5.64359e-42
6.93e-43
8.38407e-44
9.99392e-45
1.17379e-45
1.35842e-46
1.54912e-47
1.74084e-48
1.92783e-49
2.10396e-50
2.26297e-51
2.3989e-52
2.50643e-53
2.58123e-54
2.62026e-55
2.62195e-56
2.58635e-57
2.51506e-58
2.41117e-59
2.279e-60
2.12379e-61
1.95143e-62
1.768e-63
1.57949e-64
1.39147e-65
1.20886e-66
1.0357e-67
8.75116e-69
7.29272e-70
5.99406e-71
4.85932e-72
3.8857e-73
3.06489e-74
2.38466e-75
1.83027e-76
1.38578e-77
1.03507e-78
7.62697e-80
5.54423e-81
3.97593e-82
2.8128e-83
1.96305e-84
1.35143e-85
9.177e-87
6.14614e-88
4.05927e-89
2.64325e-90
1.69661e-91
1.07302e-92
6.68459e-94
4.09952e-95
2.47436e-96
1.46926e-97
8.59396e-99
9.63747e-14
2.99445e-12
5.32373e-11
6.32346e-10
5.49511e-09
3.60361e-08
1.86719e-07
8.75599e-07
3.71942e-06
1.39409e-05
4.66458e-05
0.000141384
0.000393489
0.00101896
0.00248954
0.00583642
0.0134404
0.0300983
0.0592671
0.119524
0.247755
0.477834
0.652083
0.743967
0.786907
0.804775
0.809781
0.808044
0.774934
0.705584
0.575403
0.489877
0.404407
0.365229
0.338194
0.325166
0.31956
0.318209
0.320408
0.322594
0.325885
0.327725
0.328327
0.330577
0.345246
0.385555
0.480148
0.615346
0.761658
0.861177
0.927077
0.963106
0.982816
0.99239
0.996486
0.998061
0.998638
0.998559
0.997292
0.993368
0.982823
0.955392
0.884617
0.713044
0.476341
0.283317
0.158615
0.0835914
0.0416203
0.0196446
0.00881633
0.00377274
0.00154341
0.000605064
0.000227812
8.25433e-05
2.8835e-05
9.72803e-06
3.17444e-06
1.00337e-06
3.07586e-07
9.15579e-08
2.64922e-08
7.45867e-09
2.04511e-09
5.46562e-10
1.42481e-10
3.62553e-11
9.01057e-12
2.18852e-12
5.19752e-13
1.20753e-13
2.74571e-14
6.11279e-15
1.33297e-15
2.84803e-16
5.96429e-17
1.22459e-17
2.46583e-18
4.87067e-19
9.44007e-20
1.79565e-20
3.35291e-21
6.14699e-22
1.1067e-22
1.95704e-23
3.39975e-24
5.8029e-25
9.73327e-26
1.60455e-26
2.60009e-27
4.14215e-28
6.48813e-29
9.99363e-30
1.51387e-30
2.25563e-31
3.30601e-32
4.76705e-33
6.76307e-34
9.44437e-35
1.29874e-35
1.7588e-36
2.34571e-37
3.08121e-38
3.98636e-39
5.07992e-40
6.37651e-41
7.88448e-42
9.60385e-43
1.15244e-43
1.36242e-44
1.58688e-45
1.82109e-46
2.05919e-47
2.29433e-48
2.51901e-49
2.72546e-50
2.90605e-51
3.05381e-52
3.16282e-53
3.22864e-54
3.24862e-55
3.22203e-56
3.15016e-57
3.03618e-58
2.8849e-59
2.70249e-60
2.496e-61
2.27296e-62
2.04091e-63
1.80701e-64
1.57767e-65
1.35835e-66
1.15336e-67
9.65804e-69
7.97637e-70
6.49724e-71
5.22006e-72
4.13675e-73
3.23367e-74
2.49343e-75
1.89659e-76
1.42311e-77
1.05341e-78
7.69228e-80
5.54133e-81
3.93795e-82
2.76068e-83
1.90912e-84
1.30227e-85
8.76145e-87
5.81317e-88
3.80307e-89
2.45277e-90
1.55903e-91
9.7636e-93
6.02239e-94
3.658e-95
2.18789e-96
1.29022e-97
1.23009e-13
3.63467e-12
6.52665e-11
7.94342e-10
7.43393e-09
5.83806e-08
3.76511e-07
1.95686e-06
8.61639e-06
3.27537e-05
0.000108237
0.000316132
0.00083857
0.00211879
0.005256
0.0124446
0.0262949
0.0512096
0.112541
0.258547
0.483466
0.662812
0.745735
0.780128
0.791401
0.794631
0.772115
0.704208
0.543872
0.435191
0.365484
0.32929
0.307662
0.298911
0.29491
0.293709
0.293589
0.295559
0.302137
0.309667
0.317548
0.321174
0.319476
0.304973
0.288918
0.279703
0.281849
0.319073
0.420005
0.614239
0.794886
0.89049
0.946188
0.975416
0.989768
0.996076
0.998478
0.999265
0.999515
0.999455
0.998735
0.996132
0.987823
0.962316
0.88516
0.678348
0.422414
0.241756
0.12959
0.0653864
0.0311773
0.0140988
0.00606654
0.00249122
0.000978978
0.000369053
0.000133759
4.67031e-05
1.5738e-05
5.12679e-06
1.61691e-06
4.94379e-07
1.46724e-07
4.23154e-08
1.18712e-08
3.24258e-09
8.63096e-10
2.24044e-10
5.67569e-11
1.4041e-11
3.39408e-12
8.02103e-13
1.8541e-13
4.19403e-14
9.28762e-15
2.01428e-15
4.27987e-16
8.91212e-17
1.8193e-17
3.64184e-18
7.15072e-19
1.37751e-19
2.60412e-20
4.83215e-21
8.80284e-22
1.57468e-22
2.76648e-23
4.77425e-24
8.09463e-25
1.34856e-25
2.20796e-26
3.55322e-27
5.62109e-28
8.7427e-29
1.33706e-29
2.01089e-30
2.97448e-31
4.3278e-32
6.19444e-33
8.72569e-34
1.2101e-34
1.65232e-35
2.2215e-36
2.94105e-37
3.83431e-38
4.92291e-39
6.22489e-40
7.75244e-41
9.50965e-42
1.14903e-42
1.36761e-43
1.60353e-44
1.85225e-45
2.10789e-46
2.36346e-47
2.61108e-48
2.84241e-49
3.04908e-50
3.22321e-51
3.35789e-52
3.44766e-53
3.48887e-54
3.47989e-55
3.42129e-56
3.31572e-57
3.16774e-58
2.98349e-59
2.77028e-60
2.53609e-61
2.28913e-62
2.03731e-63
1.7879e-64
1.54722e-65
1.32037e-66
1.11121e-67
9.22296e-69
7.5498e-70
6.09548e-71
4.85404e-72
3.81273e-73
2.95408e-74
2.25773e-75
1.70215e-76
1.26592e-77
9.28771e-79
6.72209e-80
4.79948e-81
3.38043e-82
2.34869e-83
1.60966e-84
1.0881e-85
7.25423e-87
4.76912e-88
3.09131e-89
1.97523e-90
1.24386e-91
7.71829e-93
4.71869e-94
2.84285e-95
1.69003e-96
1.90145e-13
5.50842e-12
9.92258e-11
1.16838e-09
9.73535e-09
6.61378e-08
4.13307e-07
2.22172e-06
1.0214e-05
4.14586e-05
0.000151108
0.000494496
0.0014503
0.00374997
0.00859218
0.017979
0.0389912
0.0948754
0.222146
0.416219
0.63408
0.733153
0.769846
0.779624
0.781606
0.751872
0.650891
0.472275
0.378005
0.327676
0.30355
0.292767
0.284218
0.272886
0.265746
0.257669
0.251122
0.248564
0.259686
0.27851
0.306166
0.329578
0.345517
0.354187
0.327239
0.281904
0.262049
0.257545
0.279235
0.352048
0.542988
0.752544
0.870931
0.937659
0.972214
0.988666
0.995748
0.998512
0.999474
0.999759
0.999824
0.999711
0.999044
0.996384
0.986551
0.951814
0.831138
0.560921
0.327225
0.178246
0.0910503
0.0438117
0.0199426
0.00862002
0.00355007
0.00139727
0.000527
0.000190931
6.6591e-05
2.24011e-05
7.28102e-06
2.29017e-06
6.98087e-07
2.06478e-07
5.93286e-08
1.65782e-08
4.5093e-09
1.19497e-09
3.08763e-10
7.78442e-11
1.91622e-11
4.60836e-12
1.08334e-12
2.49071e-13
5.60297e-14
1.23378e-14
2.66041e-15
5.61966e-16
1.16323e-16
2.36023e-17
4.69566e-18
9.16243e-19
1.75391e-19
3.29447e-20
6.07356e-21
1.09918e-21
1.95323e-22
3.40856e-23
5.84252e-24
9.83817e-25
1.62773e-25
2.64648e-26
4.22899e-27
6.64275e-28
1.02579e-28
1.55749e-29
2.32542e-30
3.4146e-31
4.93158e-32
7.00861e-33
9.80404e-34
1.35001e-34
1.83004e-35
2.44232e-36
3.20918e-37
4.15202e-38
5.28967e-39
6.6363e-40
8.19934e-41
9.97727e-42
1.19578e-42
1.41162e-43
1.64151e-44
1.88038e-45
2.12203e-46
2.35931e-47
2.58448e-48
2.78956e-49
2.96686e-50
3.10944e-51
3.21153e-52
3.26897e-53
3.27945e-54
3.24268e-55
3.1604e-56
3.03624e-57
2.87547e-58
2.6846e-59
2.47098e-60
2.24233e-61
2.00628e-62
1.76996e-63
1.53969e-64
1.32076e-65
1.11725e-66
9.32043e-68
7.66822e-69
6.22222e-70
4.97971e-71
3.93086e-72
3.06062e-73
2.35063e-74
1.78084e-75
1.33089e-76
9.81164e-78
7.13561e-79
5.11931e-80
3.6231e-81
2.52948e-82
1.742e-83
1.18334e-84
7.92841e-86
5.23881e-87
3.41349e-88
2.19294e-89
1.38886e-90
8.67082e-92
5.33619e-93
3.23821e-94
1.94038e-95
2.2262e-13
5.50837e-12
9.7056e-11
1.22326e-09
1.2031e-08
9.07363e-08
5.48282e-07
2.85294e-06
1.29193e-05
5.05819e-05
0.000174133
0.000539768
0.00153615
0.0040308
0.00963535
0.0225574
0.0563511
0.133882
0.288068
0.525568
0.697541
0.756384
0.772296
0.774954
0.754232
0.650874
0.463855
0.35958
0.312688
0.291548
0.281762
0.265377
0.238366
0.204475
0.168452
0.139848
0.12635
0.123072
0.135209
0.156307
0.193552
0.257979
0.333487
0.370848
0.38638
0.366576
0.295862
0.261048
0.261818
0.292376
0.395617
0.620607
0.795075
0.896339
0.950253
0.97758
0.990644
0.996405
0.998734
0.999595
0.999863
0.999926
0.999908
0.999705
0.998696
0.994274
0.976137
0.905268
0.670703
0.399737
0.220833
0.113941
0.0552114
0.0252494
0.0109451
0.0045141
0.00177724
0.000669895
0.000242369
8.43628e-05
2.83082e-05
9.17387e-06
2.87593e-06
8.73422e-07
2.57315e-07
7.36234e-08
2.04808e-08
5.54473e-09
1.46219e-09
3.75896e-10
9.42736e-11
2.30814e-11
5.52017e-12
1.29033e-12
2.94939e-13
6.59555e-14
1.44359e-14
3.09375e-15
6.49433e-16
1.33579e-16
2.693e-17
5.32295e-18
1.03183e-18
1.96207e-19
3.66077e-20
6.70318e-21
1.20485e-21
2.12623e-22
3.68469e-23
6.27158e-24
1.04861e-24
1.72259e-25
2.78066e-26
4.41138e-27
6.87895e-28
1.05451e-28
1.58933e-29
2.35542e-30
3.43294e-31
4.92268e-32
6.94655e-33
9.6473e-34
1.3187e-34
1.77427e-35
2.34997e-36
3.06411e-37
3.9335e-38
4.97181e-39
6.18785e-40
7.58378e-41
9.15331e-42
1.08804e-42
1.27384e-43
1.46898e-44
1.66868e-45
1.86729e-46
2.05855e-47
2.23587e-48
2.39272e-49
2.52303e-50
2.62159e-51
2.68437e-52
2.70881e-53
2.69399e-54
2.64071e-55
2.55137e-56
2.42985e-57
2.28117e-58
2.11121e-59
1.9263e-60
1.73282e-61
1.53689e-62
1.34404e-63
1.159e-64
9.85534e-66
8.26419e-67
6.8342e-68
5.57379e-69
4.48341e-70
3.55694e-71
2.78337e-72
2.14837e-73
1.63569e-74
1.22846e-75
9.10116e-77
6.65148e-78
4.79546e-79
3.41062e-80
2.39291e-81
1.65614e-82
1.13067e-83
7.61407e-85
5.05728e-86
3.31284e-87
2.14012e-88
1.36332e-89
8.56432e-91
5.30582e-92
3.243e-93
1.95842e-94
2.58468e-13
5.2689e-12
8.8951e-11
1.15565e-09
1.1527e-08
8.87117e-08
5.42832e-07
2.82073e-06
1.28532e-05
5.19496e-05
0.000186871
0.00060426
0.00175093
0.00467979
0.0119696
0.0303709
0.0744768
0.171592
0.345244
0.583487
0.717943
0.761537
0.771043
0.758586
0.68408
0.531946
0.384124
0.320772
0.29162
0.274821
0.253458
0.216854
0.172712
0.127653
0.0964045
0.0805749
0.0750223
0.0782869
0.0885605
0.108256
0.130565
0.163158
0.23123
0.345027
0.39541
0.407966
0.381239
0.311857
0.283289
0.290773
0.363419
0.573901
0.770647
0.883708
0.943414
0.973694
0.988449
0.99524
0.998154
0.999323
0.99977
0.999928
0.999968
0.999963
0.999879
0.999386
0.996902
0.98538
0.935638
0.737946
0.448234
0.250047
0.129815
0.0631351
0.0289254
0.0125438
0.00517008
0.00203247
0.000764452
0.000275833
9.57075e-05
3.2001e-05
1.03303e-05
3.22493e-06
9.75068e-07
2.85916e-07
8.14066e-08
2.25306e-08
6.06747e-09
1.59131e-09
4.06793e-10
1.01434e-10
2.46879e-11
5.86869e-12
1.36334e-12
3.09669e-13
6.88068e-14
1.49622e-14
3.18543e-15
6.64216e-16
1.35697e-16
2.71702e-17
5.33339e-18
1.02666e-18
1.93852e-19
3.59123e-20
6.52896e-21
1.1651e-21
2.04124e-22
3.51168e-23
5.9334e-24
9.84773e-25
1.60577e-25
2.57283e-26
4.0512e-27
6.26995e-28
9.53917e-29
1.42686e-29
2.0986e-30
3.0364e-31
4.32242e-32
6.05442e-33
8.34516e-34
1.13201e-34
1.51133e-35
1.98606e-36
2.56915e-37
3.27175e-38
4.10203e-39
5.0638e-40
6.15523e-41
7.36771e-42
8.68503e-43
1.0083e-43
1.15297e-44
1.29863e-45
1.44085e-46
1.57488e-47
1.69589e-48
1.79927e-49
1.88092e-50
1.93751e-51
1.96674e-52
1.96743e-53
1.93968e-54
1.88478e-55
1.80516e-56
1.7042e-57
1.58597e-58
1.45501e-59
1.31599e-60
1.17348e-61
1.03172e-62
8.94393e-64
7.64533e-65
6.44446e-66
5.35697e-67
4.3915e-68
3.55047e-69
2.83112e-70
2.22661e-71
1.72727e-72
1.32167e-73
9.9758e-75
7.42751e-76
5.45533e-77
3.95265e-78
2.82521e-79
1.9921e-80
1.38569e-81
9.50847e-83
6.43625e-84
4.29756e-85
2.83048e-86
1.83883e-87
1.17831e-88
7.44839e-90
4.64525e-91
2.8595e-92
1.74003e-93
4.02791e-13
5.20642e-12
8.18286e-11
9.72365e-10
9.49664e-09
7.54159e-08
4.79013e-07
2.52677e-06
1.15983e-05
4.72547e-05
0.000171731
0.000561002
0.0016525
0.00446296
0.0115022
0.0290719
0.0708277
0.163634
0.335138
0.573608
0.711192
0.759067
0.769757
0.754804
0.679523
0.505152
0.361638
0.298011
0.269612
0.249989
0.223086
0.182393
0.136003
0.0963102
0.0714945
0.0599825
0.059532
0.0646826
0.073818
0.0927188
0.119446
0.145785
0.193902
0.300914
0.393029
0.420911
0.414063
0.359336
0.331793
0.334559
0.376138
0.567717
0.771562
0.886502
0.945066
0.97407
0.988376
0.995103
0.998057
0.999268
0.999737
0.999911
0.999972
0.999987
0.999983
0.999934
0.999616
0.997841
0.98882
0.946823
0.765057
0.468772
0.262372
0.136326
0.0662433
0.0302877
0.0130974
0.00537994
0.0021069
0.000789153
0.000283483
9.79019e-05
3.25748e-05
1.04621e-05
3.24892e-06
9.76997e-07
2.84885e-07
8.06487e-08
2.21898e-08
5.93979e-09
1.54826e-09
3.93302e-10
9.74423e-11
2.35615e-11
5.56376e-12
1.28378e-12
2.89601e-13
6.39008e-14
1.37977e-14
2.91659e-15
6.03784e-16
1.22455e-16
2.43392e-17
4.74239e-18
9.06101e-19
1.69808e-19
3.12211e-20
5.6331e-21
9.9759e-22
1.7344e-22
2.96092e-23
4.96431e-24
8.17568e-25
1.32279e-25
2.10297e-26
3.28556e-27
5.04529e-28
7.6159e-29
1.13029e-29
1.64993e-30
2.36911e-31
3.34655e-32
4.651e-33
6.36026e-34
8.55897e-35
1.13351e-35
1.4775e-36
1.89565e-37
2.39418e-38
2.97684e-39
3.6441e-40
4.39231e-41
5.21309e-42
6.09299e-43
7.01341e-44
7.95101e-45
8.87851e-46
9.76589e-47
1.0582e-47
1.12962e-48
1.18807e-49
1.23116e-50
1.25714e-51
1.26495e-52
1.25433e-53
1.22581e-54
1.18068e-55
1.12089e-56
1.04891e-57
9.67586e-59
8.79899e-60
7.88849e-61
6.97261e-62
6.07657e-63
5.22163e-64
4.42444e-65
3.6969e-66
3.04623e-67
2.47545e-68
1.98395e-69
1.56823e-70
1.22267e-71
9.40261e-73
7.13247e-74
5.33702e-75
3.93947e-76
2.86859e-77
2.06063e-78
1.46029e-79
1.02091e-80
7.04132e-82
4.79107e-83
3.21607e-84
2.12978e-85
1.39146e-86
8.9693e-88
5.70511e-89
3.58158e-90
2.22023e-91
1.36112e-92
4.85686e-11
1.36939e-11
7.26056e-11