/*--------------------------------*- C++ -*----------------------------------*\
  =========                 |
  \\      /  F ield         | OpenFOAM: The Open Source CFD Toolbox
   \\    /   O peration     | Website:  https://openfoam.org
    \\  /    A nd           | Version:  9
     \\/     M anipulation  |
\*---------------------------------------------------------------------------*/
FoamFile
{
    format      ascii;
    class       volScalarField;
    location    "0.11";
    object      epsilon;
}
// * * * * * * * * * * * * * * * * * * * * * * * * * * * * * * * * * * * * * //

dimensions      [0 2 -3 0 0 0 0];

internalField   nonuniform List<scalar> 
12225
(
222.803
168.203
130.52
105.052
88.5998
78.8965
74.241
73.2773
74.8827
78.1179
82.2088
86.5386
90.6429
94.1932
97.3684
100.477
103.284
104.57
39.9294
48.6871
52.5368
56.4904
62.6323
71.9643
84.9404
101.528
121.205
143.027
165.784
188.181
209.029
227.34
242.215
252.917
259.955
263.074
19.9035
23.8858
26.6031
28.7386
30.826
33.21
36.0975
39.5699
43.5825
47.9813
52.5368
56.9866
61.0749
64.5765
67.4025
69.7206
71.4296
72.439
15.8866
17.198
18.3249
19.2644
20.1061
20.9347
21.8099
22.7618
23.7892
24.8635
25.9378
26.9561
27.8591
28.5983
29.2296
29.7409
30.1215
30.366
14.8179
15.0457
15.346
15.6416
15.9172
16.1786
16.4361
16.698
16.9663
17.2361
17.4972
17.7353
17.9347
18.1056
18.2445
18.349
18.4184
18.4526
14.5155
14.3135
14.2077
14.1531
14.1251
14.1113
14.1061
14.1071
14.1127
14.1205
14.1267
14.1256
14.1209
14.1107
14.0934
14.0684
14.0359
13.9959
14.4322
14.0725
13.7834
13.5483
13.353
13.1867
13.0419
12.9131
12.7967
12.6896
12.5883
12.4936
12.404
12.3185
12.2362
12.1568
12.0802
12.0065
14.4104
13.9987
13.6366
13.3185
13.0381
12.7893
12.5667
12.3656
12.1823
12.0136
11.858
11.714
11.5802
11.4556
11.3392
11.2306
11.1295
11.0357
14.405
13.9779
13.5902
13.239
12.9207
12.6319
12.3691
12.1291
11.909
11.7066
11.5201
11.3479
11.1885
11.0409
10.9042
10.7776
10.6606
10.5531
14.4037
13.9724
13.5769
13.214
12.8811
12.5754
12.2945
12.0358
11.7974
11.5774
11.374
11.1859
11.0117
10.8505
10.7012
10.5632
10.4355
10.3183
14.4034
13.971
13.5731
13.2067
12.8687
12.5568
12.2687
12.0023
11.7557
11.5273
11.3156
11.1194
10.9373
10.7684
10.6119
10.4667
10.3322
10.2084
14.4033
13.9706
13.5721
13.2045
12.8651
12.5512
12.2606
11.9914
11.7418
11.5101
11.2949
11.095
10.9093
10.7367
10.5763
10.4273
10.2888
10.161
14.4033
13.9704
13.5716
13.2036
12.8635
12.5488
12.2572
11.9868
11.7358
11.5025
11.2856
11.0838
10.8961
10.7214
10.5587
10.4072
10.2662
10.1359
14.4033
13.9703
13.5713
13.203
12.8626
12.5474
12.2552
11.9841
11.7322
11.498
11.2801
11.0771
10.888
10.7118
10.5475
10.3942
10.2513
10.1189
14.4033
13.9703
13.5711
13.2026
12.8618
12.5463
12.2536
11.982
11.7294
11.4945
11.2757
11.0718
10.8816
10.7042
10.5385
10.3837
10.2391
10.1051
14.4033
13.9702
13.5709
13.2022
12.8612
12.5452
12.2522
11.9799
11.7268
11.4911
11.2715
11.0667
10.8755
10.6969
10.5299
10.3738
10.2277
10.0922
14.4033
13.9702
13.5708
13.2019
12.8606
12.5443
12.2508
11.978
11.7243
11.4878
11.2674
11.0616
10.8694
10.6896
10.5214
10.3639
10.2164
10.0795
14.4033
13.9702
13.5708
13.2017
12.8602
12.5435
12.2496
11.9763
11.7219
11.4847
11.2635
11.0568
10.8635
10.6826
10.5132
10.3544
10.2056
10.0673
14.4033
13.9703
13.5708
13.2016
12.8598
12.5428
12.2485
11.9747
11.7197
11.4819
11.2598
11.0523
10.8581
10.6762
10.5057
10.3457
10.1956
10.056
14.4034
13.9703
13.5708
13.2015
12.8596
12.5424
12.2478
11.9736
11.7182
11.4799
11.2574
11.0492
10.8544
10.6718
10.5005
10.3397
10.1888
10.0483
14.4034
13.9703
13.5708
13.2015
12.8595
12.5422
12.2475
11.9732
11.7176
11.4791
11.2563
11.0479
10.8528
10.6699
10.4984
10.3373
10.1861
10.0454
14.4034
13.9704
13.5709
13.2017
12.8598
12.5427
12.2481
11.9741
11.7188
11.4807
11.2584
11.0505
10.856
10.6739
10.5032
10.3431
10.1928
10.0532
14.4035
13.9707
13.5716
13.2032
12.8625
12.547
12.2545
11.9829
11.7306
11.4958
11.2771
11.0733
10.8831
10.7057
10.5399
10.385
10.2402
10.1063
14.4041
13.9732
13.5779
13.2154
12.8825
12.5767
12.2954
12.0363
11.7973
11.5766
11.3727
11.1841
11.0096
10.8483
10.6992
10.5616
10.4347
10.3191
14.4095
13.9935
13.6226
13.292
12.9963
12.7309
12.4916
12.2748
12.0781
11.8995
11.7375
11.5909
11.459
11.3411
11.2369
11.1459
11.068
11.0034
14.4524
14.1257
13.8701
13.6637
13.4913
13.3433
13.2139
13.1006
13.0028
12.9209
12.8559
12.8094
12.7826
12.7773
12.7947
12.8362
12.9028
12.9948
14.7369
14.8189
14.9594
15.0972
15.2166
15.3199
15.4164
15.5184
15.6383
15.7883
15.9794
16.2214
16.5234
16.8937
17.3394
17.8669
18.4817
19.1844
16.4081
17.9651
19.1224
19.9584
20.6057
21.1704
21.7345
22.3646
23.1166
24.0385
25.1733
26.5601
28.2353
30.2321
32.5809
35.3088
38.439
41.9789
27.2103
32.6704
35.0015
36.2325
37.3052
38.6931
40.6824
43.4733
47.2245
52.0757
58.1585
65.598
74.5099
84.9954
97.1368
110.991
126.597
143.877
142.549
119.581
101.63
87.518
76.4314
67.7812
61.1315
56.1503
52.5797
50.2153
48.8933
48.4801
48.8655
49.9571
51.6763
53.9555
56.7363
59.9571
3.29914
2.65229
3.73245
4.85598
5.9494
7.06528
8.21102
37.5011
8.58485
46.6353
71.5001
104.191
143.627
187.732
234.046
280.132
323.871
363.606
398.199
427.005
449.808
466.752
478.249
484.916
487.505
486.882
483.942
478.125
469.803
459.294
446.858
432.723
417.111
400.246
382.37
363.75
344.687
325.528
306.689
288.711
272.412
259.21
251.92
255.521
267.312
281.455
296.539
312.041
327.363
341.362
351.855
355.408
348.109
327.864
291.561
240.658
181.948
125.723
80.9379
47.6411
7.39235
5.23307
4.14135
3.74775
3.71508
3.83708
4.00676
4.16014
4.29301
4.47489
4.8732
5.73571
7.38787
10.34
59.1049
72.1084
84.3657
103.946
155.549
291.59
467.482
639.035
790.073
910.55
997.017
1050.24
1073.44
1071.07
1048.01
1009.05
958.552
900.245
837.631
775.478
714.559
655.557
599.013
545.326
494.763
447.473
403.502
362.806
325.26
290.683
258.851
229.53
202.509
177.636
154.849
134.279
116.721
106.253
110.045
117.765
126.799
137.122
148.967
162.595
178.239
196.052
216.066
238.149
261.945
286.9
312.566
336.912
352.63
355.328
342.853
315.057
274.259
225.023
172.839
121.556
74.0666
10.6182
6.94318
4.75256
3.6697
3.2884
3.28584
3.45116
3.65992
3.8413
3.95592
3.98424
3.92158
3.77752
3.57876
3.36978
3.14776
2.91752
2.69752
2.50978
2.37716
2.32424
2.37965
2.59309
3.0677
4.01076
5.62186
7.15361
7.58681
8.01286
8.56849
9.13845
9.69081
10.2323
10.783
11.2925
11.6833
11.9028
11.8709
11.5001
10.7552
9.9327
9.61135
10.2849
13.7034
89.7961
9.01132
9.46829
16.0696
26.3437
39.1238
52.7949
66.0387
79.2595
93.4082
106.741
119.363
131.323
142.09
151.11
157.935
162.301
164.16
163.672
161.184
157.18
152.245
147.013
142.131
138.223
135.855
135.485
137.424
139.597
141.77
143.819
145.629
147.095
148.133
148.682
148.709
148.214
147.228
145.814
144.059
142.077
139.997
137.955
136.047
134.173
132.143
129.815
126.959
123.556
119.791
116.149
113.378
112.082
112.271
114.906
115.387
111.133
103.85
95.0884
84.4906
70.8746
55.7496
40.2264
26.8337
17.2896
11.7723
9.45924
9.3023
10.0256
10.8033
11.23
11.4191
12.0995
14.7699
23.4064
45.2933
86.6833
139.505
182.454
217.109
249.904
270.038
276.025
269.118
252.19
228.57
201.512
173.931
148.255
126.313
109.256
97.5851
91.2864
89.4437
87.8301
86.3857
85.1031
83.9775
83.0051
82.1798
81.4906
80.9163
80.422
79.9548
79.4421
78.7917
77.8961
76.6442
74.9411
72.7299
70.0119
66.8662
63.7184
60.9963
58.1417
55.2104
52.3076
49.5168
46.901
44.5029
42.3446
40.4295
38.7457
37.2656
35.9535
34.8015
34.1951
37.1691
42.1014
46.8451
49.8931
50.4696
48.5144
44.5418
39.4004
33.7507
28.7342
26.4156
25.8506
26.4602
27.7443
29.2308
30.5364
31.421
31.782
31.6049
30.9046
29.6889
27.9556
25.7098
22.9743
19.8869
16.6385
13.4304
10.4461
7.85581
5.83952
4.51309
3.93294
4.21963
6.35409
14.5802
27.8968
22.2303
13.5284
10.3173
9.68561
10.0979
10.8985
11.8285
12.8526
13.8851
14.734
15.1213
14.7393
13.3665
11.548
9.93425
8.68398
8.36255
9.42355
22.597
26.2687
41.7662
57.5519
70.6723
80.9636
89.0264
95.6471
101.36
106.229
110.295
113.516
115.743
116.877
116.924
116.018
114.405
112.402
110.348
108.557
107.28
106.686
106.852
107.767
109.35
111.467
113.894
116.418
118.924
121.293
123.404
125.135
126.382
127.061
127.117
126.528
125.308
123.505
121.203
118.507
115.535
112.407
109.227
106.061
102.98
100.192
97.381
94.4332
91.3201
88.1559
85.2893
83.2848
82.6275
83.1995
83.7665
83.1793
80.1588
75.9339
71.8068
67.396
61.2244
52.2396
41.2817
30.5939
22.117
16.5174
13.689
13.1804
13.9562
15.3102
17.2799
21.7042
34.9513
63.4871
99.4797
125.507
137.155
145.281
150.014
150.058
143.101
130.273
114.1
97.4263
82.4821
70.4829
61.7214
55.906
52.4825
50.8432
50.4406
50.8436
51.5914
52.4203
53.3054
54.2389
55.2221
56.2623
57.3691
58.5494
59.8016
61.1095
62.4367
63.722
64.8767
65.7861
66.3162
66.3345
65.7291
64.4154
62.3169
59.852
57.0844
54.0009
50.7187
47.3441
43.9624
40.6406
37.4296
34.3663
31.4759
28.7739
26.2678
23.9581
21.8453
19.9438
18.3409
17.2885
16.9276
17.1045
17.4901
17.6909
17.424
16.62
15.3682
13.9614
12.6972
11.6739
10.9074
10.3879
10.1034
10.0381
10.1592
10.4112
10.7208
11.01
11.2088
11.2616
11.1246
10.7603
10.1433
9.27204
8.18016
6.942
5.66812
4.48225
3.59905
3.35089
4.28311
8.62901
22.0742
30.1704
17.9197
11.2874
9.63096
9.48914
9.71358
10.0963
10.6067
11.2348
11.9406
12.5928
12.9622
12.742
11.6572
10.244
8.7946
7.45969
6.37242
5.5831
39.3634
44.4881
63.5327
78.815
88.5197
94.0846
97.1632
99.0694
100.53
101.799
102.898
103.746
104.238
104.32
104.005
103.368
102.529
101.63
100.817
100.221
99.942
100.037
100.519
101.357
102.488
103.845
105.452
107.224
109.055
110.829
112.416
113.689
114.527
114.822
114.489
113.474
111.758
109.366
106.369
102.884
99.058
95.0556
91.0457
87.1831
83.6165
80.6791
78.0698
75.7017
73.5066
71.413
69.357
67.3519
65.5942
64.49
64.4311
65.2436
65.9098
64.7463
62.0523
59.0053
55.6334
51.0047
44.5745
37.0249
29.7758
23.997
20.0931
18.4876
19.274
22.4208
29.1782
45.4713
72.5289
96.8545
106.039
108.135
107.89
106.506
102.583
95.1472
84.6073
72.9748
62.2841
53.7443
47.6502
43.7259
41.4808
40.422
40.1421
40.3396
40.8097
41.4257
42.1234
42.8488
43.5841
44.3255
45.0834
45.8793
46.7413
47.6982
48.7721
49.9702
51.2786
52.6554
54.0266
55.2859
56.2949
56.9087
56.9875
56.397
55.2397
53.643
51.6367
49.3054
46.7462
44.045
41.2721
38.4836
35.7235
33.026
30.4174
27.9177
25.5418
23.3002
21.2006
19.2506
17.4559
15.836
14.4337
13.2671
12.3342
11.5958
10.9741
10.3766
9.7332
9.03264
8.30698
7.59617
6.93355
6.3433
5.84222
5.44086
5.14277
4.94299
4.82756
4.77529
4.76145
4.76123
4.75064
4.70524
4.59928
4.40902
4.12067
3.73718
3.28493
2.85153
2.64686
3.02885
4.87666
10.9349
24.4174
25.0367
14.0481
9.92117
8.9979
8.76695
8.69483
8.73748
8.88588
9.15737
9.5546
10.0143
10.3592
10.3016
9.60327
8.61255
7.48941
6.41015
5.48212
4.7503
54.6908
59.3946
78.7632
91.8034
98.231
100.649
101.196
101.259
101.448
101.876
102.422
102.882
103.067
102.848
102.174
101.082
99.6779
98.1082
96.5308
95.0843
93.872
92.9563
92.3617
92.0818
92.0879
92.4407
93.2295
94.3745
95.7633
97.2683
98.7536
100.081
101.114
101.723
101.785
101.195
99.8699
97.7751
94.9354
91.4458
87.4622
83.1822
78.8191
74.5704
70.7329
67.5776
64.8735
62.5517
60.5486
58.7975
57.2192
55.7059
54.1501
52.5892
51.3822
51.1052
52.007
53.448
53.4155
51.7341
49.1976
46.1293
42.3258
37.7937
33.111
29.1075
26.3611
25.3578
27.8341
35.7016
52.8931
75.6868
90.3291
92.0937
89.373
86.4887
83.4222
79.1588
72.7896
64.6255
55.9982
48.3474
42.4265
38.3055
35.6849
34.1698
33.4126
33.1561
33.2271
33.5119
33.9328
34.4457
34.986
35.5067
35.9855
36.4196
36.826
37.2388
37.7035
38.2689
38.9773
39.8566
40.9114
42.1167
43.4143
44.7097
45.8675
46.7442
47.189
47.1319
46.6313
45.7201
44.4562
42.913
41.1628
39.2682
37.2787
35.2329
33.16
31.0835
29.0224
26.993
25.0096
23.0845
21.2277
19.4469
17.7488
16.1425
14.6416
13.2599
12.0082
10.8911
9.9043
9.03413
8.25978
7.56012
6.91886
6.32598
5.77694
5.27138
4.81171
4.40164
4.0446
3.74224
3.49332
3.29344
3.13557
3.01108
2.91048
2.82346
2.73853
2.64374
2.53039
2.39721
2.25583
2.16351
2.30837
3.12947
5.61666
12.2828
23.2261
20.0789
11.6424
9.04547
8.38828
8.05545
7.81861
7.64069
7.53394
7.53787
7.69511
7.9923
8.29108
8.32739
7.93088
7.22789
6.36611
5.50682
4.74921
4.13199
66.9947
69.8076
87.9468
98.8665
103.379
104.583
104.61
104.598
104.876
105.321
105.63
105.484
104.651
103.031
100.664
97.7039
94.3688
90.8931
87.4902
84.3329
81.5484
79.2224
77.4061
76.1215
75.3657
75.2683
75.8035
76.8552
78.2946
79.9887
81.8039
83.61
85.2826
86.6992
87.7301
88.2309
88.0482
87.0504
85.1682
82.4315
78.9704
74.9929
70.745
66.4608
62.6036
59.3025
56.4534
54.0169
51.9232
50.0824
48.4072
46.819
45.2347
43.5916
41.9823
40.7998
40.6125
41.6607
43.2923
43.6446
42.5327
40.5909
38.3249
35.9565
33.7888
32.3205
32.0614
33.8938
40.7042
56.7895
76.7676
86.3529
83.2792
77.7031
73.2358
69.7086
65.8082
60.6291
54.2088
47.4421
41.3682
36.5872
33.169
30.8862
29.4404
28.582
28.1406
28.0097
28.1186
28.4096
28.8254
29.3247
29.792
30.1792
30.4599
30.6324
30.722
30.7772
30.8618
31.0438
31.3832
31.9222
32.6775
33.6346
34.7461
35.9225
37.0384
37.962
38.5234
38.7324
38.5912
38.1279
37.394
36.4474
35.3411
34.117
32.8051
31.4261
29.9945
28.5217
27.0178
25.4927
23.9559
22.417
20.8847
19.3681
17.8758
16.4159
14.9979
13.6375
12.3507
11.1524
10.0529
9.05708
8.16363
7.36658
6.6568
6.02386
5.4576
4.94932
4.49256
4.08319
3.71881
3.39785
3.11862
2.87869
2.67466
2.50235
2.3571
2.23403
2.12803
2.03435
1.95116
1.88344
1.84895
1.90808
2.24987
3.33422
6.15164
12.6032
20.7852
16.6305
10.1839
8.4386
7.87463
7.49938
7.18244
6.86873
6.58759
6.40349
6.38353
6.5446
6.78615
6.87753
6.66834
6.17298
5.50687
4.81072
4.17936
3.65095
76.0685
76.1369
92.559
102.122
106.043
107.366
107.915
108.453
108.991
109.179
108.59
106.898
103.974
99.8988
94.9203
89.3773
83.6279
77.9961
72.7439
68.0653
64.0932
60.9114
58.5638
57.0615
56.3829
56.5725
57.4262
58.8101
60.5942
62.6483
64.8471
67.0819
69.2691
71.347
73.2489
74.8615
75.9978
76.4244
75.9331
74.43
71.9706
68.7381
64.9915
61.0468
57.413
54.1264
51.2142
48.6808
46.4733
44.4947
42.6369
40.8159
38.983
37.1119
35.2294
33.5298
32.4339
32.3997
33.5826
34.8998
35.2341
34.59
33.6045
32.8732
32.847
33.9439
36.6877
42.6861
55.2827
73.5906
84.6721
79.9251
71.0827
64.9723
60.9164
57.4098
53.2453
48.1502
42.6561
37.5578
33.3976
30.3077
28.143
26.6766
25.7182
25.1452
24.886
24.8911
25.1122
25.4916
25.9634
26.4578
26.8667
27.1338
27.2263
27.1423
26.9151
26.6103
26.3137
26.1151
26.0907
26.2936
26.7439
27.4293
28.3096
29.2865
30.26
31.035
31.5924
31.8914
31.9295
31.7355
31.3536
30.8285
30.1958
29.4788
28.6897
27.8337
26.9126
25.9286
24.8851
23.7875
22.6427
21.4579
20.2402
18.9967
17.7343
16.4587
15.1817
13.9183
12.6865
11.5052
10.392
9.36012
8.41743
7.56575
6.80206
6.12003
5.51167
4.96873
4.48377
4.05075
3.66505
3.32315
3.02208
2.75894
2.53069
2.33405
2.16566
2.02227
1.90096
1.79979
1.72022
1.67138
1.67779
1.80837
2.25773
3.48919
6.40373
12.2226
18.193
14.3548
9.41562
7.98228
7.45732
7.07981
6.72897
6.33603
5.94519
5.63845
5.4968
5.54545
5.71842
5.83328
5.74439
5.40307
4.88455
4.30901
3.76855
3.30418
81.9973
79.119
93.8612
102.809
106.993
109.07
110.44
111.485
111.934
111.276
109.068
105.109
99.5045
92.6156
84.9478
77.0358
69.354
62.2701
56.0363
50.8039
46.6471
43.5833
41.5894
40.6117
40.5688
41.3528
42.7203
44.5607
46.7544
49.162
51.6344
54.0428
56.3196
58.4838
60.6094
62.7319
64.7368
66.3471
67.2065
67.0416
65.7724
63.5052
60.4903
57.1896
53.9407
50.8495
48.0189
45.4885
43.2262
41.1385
39.1048
37.0299
34.8799
32.6746
30.4689
28.3939
26.7311
25.8794
26.1103
27.2716
28.2864
28.6654
28.7427
29.2404
30.8155
33.8974
38.936
47.7909
63.0829
78.8842
80.3459
69.1479
60.352
55.2131
51.7399
48.3439
44.3098
39.8122
35.4442
31.7202
28.8417
26.7428
25.2517
24.2147
23.5377
23.1718
23.084
23.2361
23.5759
24.0365
24.5439
25.0229
25.3843
25.5594
25.5013
25.1993
24.6891
24.0514
23.3981
22.8459
22.4883
22.3895
22.5671
23.0012
23.6585
24.4016
25.1291
25.7676
26.2537
26.5589
26.6891
26.6731
26.5471
26.3416
26.0743
25.75
25.3641
24.9074
24.3716
23.7519
23.0483
22.2655
21.4113
20.4945
19.5232
18.5042
17.4424
16.3428
15.2151
14.0713
12.9274
11.8026
10.7171
9.6888
8.73146
7.85307
7.05603
6.33828
5.69488
5.11948
4.60547
4.1468
3.73824
3.37538
3.05444
2.77196
2.52468
2.30946
2.12334
1.96371
1.8286
1.71749
1.63353
1.5879
1.60937
1.7738
2.27857
3.5705
6.41184
11.4621
15.8472
12.7925
9.01511
7.68564
7.14006
6.77441
6.42202
5.99579
5.54151
5.14917
4.91865
4.87292
4.97291
5.0966
5.08824
4.86274
4.45634
3.96948
3.49266
3.07194
84.8953
79.392
92.6767
101.515
106.37
109.385
111.531
112.859
112.874
110.983
106.819
100.412
92.188
82.8332
73.1076
63.6894
55.0868
47.6197
41.4454
36.6013
33.0449
30.6854
29.4091
29.0979
29.6442
30.8768
32.6549
34.9175
37.5648
40.4361
43.3097
45.9424
48.165
49.9984
51.675
53.499
55.5798
57.7307
59.513
60.4544
60.2938
59.0007
56.8502
54.2718
51.5036
48.7466
46.1367
43.7371
41.5303
39.4209
37.2701
34.9642
32.4781
29.88
27.2863
24.8486
22.7924
21.4177
21.0154
21.6406
22.6966
23.5994
24.3825
25.6807
28.2488
32.5582
39.0665
49.6862
65.2081
76.2582
71.4573
59.2943
51.9321
47.8409
44.8269
41.6365
37.9955
34.2623
30.9086
28.1968
26.1358
24.6011
23.464
22.6487
22.1246
21.8761
21.8808
22.1007
22.4815
22.956
23.4505
23.9147
24.2606
24.4055
24.2823
23.8618
23.1695
22.2927
21.3649
20.5375
19.9182
19.5873
19.5563
19.7935
20.2134
20.7383
21.2829
21.7766
22.1759
22.4689
22.6698
22.8057
22.9022
22.9733
23.0179
23.0224
22.9657
22.8259
22.5853
22.2332
21.7675
21.1942
20.5249
19.7741
18.9557
18.081
17.1564
16.1906
15.1863
14.1503
13.095
12.0369
10.9952
9.9892
9.03543
8.14612
7.32828
6.58411
5.91216
5.30857
4.76832
4.28605
3.85661
3.47528
3.13773
2.83999
2.57841
2.34962
2.15065
1.97903
1.83315
1.7132
1.62312
1.57484
1.59924
1.7761
2.30016
3.58527
6.24486
10.5374
13.8365
11.6551
8.76266
7.47592
6.89266
6.5282
6.17902
5.75758
5.29748
4.86661
4.55605
4.4253
4.46673
4.5892
4.63926
4.50284
4.18158
3.75861
3.32396
2.93011
84.8536
77.5704
89.6561
98.6448
104.302
108.247
111.079
112.574
112.066
108.924
102.916
94.3561
84.0243
72.9198
61.996
51.9822
43.3258
36.2228
30.6852
26.6069
23.8193
22.1339
21.3784
21.4233
22.2043
23.6193
25.6291
28.2251
31.3482
34.8523
38.461
41.7602
44.316
45.9496
46.9418
47.9236
49.3578
51.3035
53.3865
54.9797
55.6538
55.2332
53.9221
52.0024
49.7542
47.406
45.1143
42.9571
40.924
38.9102
36.7439
34.2699
31.4546
28.4169
25.3619
22.5135
20.1108
18.4011
17.5946
17.7962
18.6859
19.7618
20.9054
22.6064
25.6259
30.4862
37.7457
49.069
63.1338
69.7369
62.3882
51.2742
45.4485
42.2027
39.5607
36.6707
33.545
30.557
28.0096
25.9826
24.3968
23.1429
22.1572
21.424
20.9453
20.7153
20.7117
20.8978
21.2255
21.6393
22.0788
22.5167
22.8609
23.0214
22.913
22.4826
21.7354
20.7529
19.6732
18.688
17.9128
17.4416
17.2717
17.3469
17.6029
17.9626
18.3542
18.7279
19.063
19.3648
19.6534
19.9506
20.2683
20.6026
20.9335
21.2303
21.4582
21.5845
21.5835
21.4387
21.1447
20.707
20.1406
19.4671
18.7098
17.89
17.027
16.1285
15.1954
14.2305
13.241
12.2384
11.2385
10.2588
9.31601
8.42429
7.59362
6.82963
6.13405
5.50567
4.94134
4.43686
3.9876
3.58888
3.23615
2.9251
2.65171
2.41234
2.20383
2.02369
1.87042
1.74451
1.6501
1.59895
1.62208
1.79941
2.31724
3.54683
5.96645
9.57524
12.1434
10.7425
8.54998
7.32518
6.70033
6.31538
5.96552
5.56519
5.11822
4.67156
4.31348
4.12323
4.1246
4.25055
4.34907
4.28252
4.02452
3.64504
3.23528
2.85477
81.8968
74.3814
85.4677
94.7334
101.191
106.023
109.533
111.281
110.453
106.384
98.9686
88.7978
76.9835
64.7919
53.3021
43.2271
34.9049
28.3848
23.5292
20.0993
17.8251
16.4639
15.8468
15.9094
16.6898
18.1704
20.3361
23.1897
26.709
30.8157
35.2883
39.6339
43.0979
45.0741
45.6462
45.7166
46.1449
47.3268
49.1193
50.8405
51.9767
52.2244
51.5786
50.2437
48.493
46.571
44.6501
42.817
41.0632
39.2705
37.2231
34.6954
31.6052
28.105
24.5107
21.1683
18.3879
16.4065
15.3594
15.2958
16.0107
17.0828
18.3339
20.1391
23.2334
28.1887
35.6817
46.8505
58.7271
62.1207
54.3993
45.1385
40.4162
37.8161
35.5061
32.9761
30.3862
28.0384
26.0769
24.4694
23.1218
21.976
21.0284
20.2998
19.802
19.5261
19.4459
19.5273
19.7323
20.0203
20.3846
20.7653
21.0874
21.265
21.2026
20.8268
20.1184
19.1522
18.0451
17.0207
16.223
15.6935
15.4382
15.4173
15.5639
15.8054
16.0866
16.3828
16.6971
17.0484
17.4579
17.9373
18.4822
19.0695
19.6623
20.2168
20.6895
21.0429
21.2467
21.2797
21.13
20.7976
20.2951
19.647
18.8855
18.0484
17.1723
16.2673
15.3393
14.3912
13.4263
12.4509
11.4755
10.5134
9.57919
8.68642
7.8462
7.06618
6.35047
5.70009
5.1137
4.58835
4.12014
3.70465
3.33731
3.01361
2.72925
2.48035
2.26357
2.07632
1.91721
1.78689
1.68958
1.63662
1.65774
1.82928
2.32378
3.4666
5.62475
8.64608
10.7226
9.94201
8.31952
7.20151
6.55103
6.1373
5.78433
5.40269
4.96763
4.51492
4.13159
3.90966
3.8954
4.0374
4.18082
4.1685
3.95412
3.6003
3.20146
2.82397
76.7221
70.8473
80.8874
90.4754
97.6751
103.347
107.607
109.862
109.151
104.725
96.5274
85.3439
72.5557
59.658
47.8355
37.7823
29.7388
23.6262
19.1801
16.0535
13.905
12.4789
11.6702
11.5762
12.4244
14.1092
16.5607
19.7417
23.6227
28.1758
33.2996
38.5934
43.1382
45.8771
46.4757
45.9309
45.4066
45.6075
46.6255
48.0605
49.317
49.9313
49.7453
48.8715
47.5527
46.0353
44.5015
43.0441
41.654
40.2006
38.4237
36.006
32.7638
28.8328
24.6391
20.6993
17.461
15.1982
13.9799
13.7505
14.3212
15.2997
16.4942
18.2246
21.192
26.0016
33.3866
43.8227
53.4367
54.8278
47.7784
40.3412
36.5303
34.3632
32.3611
30.2074
28.0987
26.26
24.6951
23.3207
22.0723
20.9508
19.997
19.2477
18.7108
18.3669
18.1841
18.1337
18.1922
18.3405
18.5942
18.8858
19.1503
19.3125
19.2796
18.9677
18.3298
17.4462
16.4522
15.4975
14.7155
14.1815
13.9048
13.8432
13.928
14.0959
14.3137
14.5836
14.9292
15.3761
15.9396
16.6163
17.382
18.1946
19.0029
19.7571
20.415
20.9441
21.3184
21.5156
21.516
21.3063
20.8851
20.2678
19.4887
18.6082
17.6642
16.6875
15.6974
14.7035
13.7103
12.7209
11.7403
10.7763
9.83907
8.93964
8.08813
7.29257
6.55825
5.88767
5.28086
4.73597
4.24978
3.81823
3.43681
3.10089
2.80599
2.54798
2.3233
2.12928
1.96452
1.82978
1.72936
1.67434
1.69261
1.85433
2.31447
3.35333
5.25265
7.786
9.52599
9.19978
8.04181
7.07067
6.4248
5.98772
5.62549
5.24922
4.8201
4.36768
3.97774
3.75106
3.74772
3.92107
4.10716
4.13328
3.9429
3.59853
3.19972
2.81843
71.1395
69.0584
76.5187
86.4934
94.3544
100.749
105.749
108.713
108.617
104.603
96.5085
85.1078
71.8795
58.4829
46.2468
35.9347
27.7821
21.6549
17.2162
14.0481
11.7605
10.0875
8.95829
8.71065
9.84909
11.9082
14.7688
18.3659
22.648
27.5792
33.0994
38.9052
44.1038
47.4395
48.3486
47.5221
46.2375
45.4932
45.6635
46.5388
47.5774
48.2515
48.2938
47.7275
46.7487
45.59
44.4345
43.3778
42.4107
41.3955
40.0395
37.9324
34.742
30.5036
25.7087
21.075
17.2651
14.6611
13.2768
12.918
13.3423
14.1575
15.1963
16.7707
19.5344
24.0974
31.1513
40.5275
48.1182
48.3985
42.4243
36.5405
33.416
31.5629
29.8509
28.0839
26.422
24.9683
23.6563
22.3871
21.1699
20.0475
19.0845
18.3196
17.7494
17.3402
17.0577
16.8813
16.8013
16.8272
16.97
17.1545
17.3291
17.4302
17.3745
17.0963
16.5652
15.8089
14.9251
14.0583
13.3424
12.8544
12.6015
12.538
12.5975
12.7317
12.934
13.2316
13.6603
14.2436
14.9827
15.8531
16.8066
17.7817
18.7188
19.5726
20.3166
20.9376
21.4268
21.7695
21.9414
21.9101
21.6463
21.1374
20.4047
19.5093
18.4936
17.4138
16.3127
15.2173
14.1413
13.0902
12.0663
11.0724
10.1131
9.19506
8.32566
7.51155
6.75781
6.06739
5.44106
4.87762
4.37437
3.92752
3.53265
3.18505
2.88005
2.6133
2.38104
2.1804
2.00989
1.8702
1.76563
1.70702
1.72034
1.86841
2.28692
3.21433
4.87091
7.00892
8.51095
8.49731
7.70857
6.90434
6.29496
5.84803
5.47284
5.09111
4.66249
4.2155
3.83646
3.6318
3.66568
3.8839
4.10715
4.1527
3.96572
3.61629
3.21003
2.82185
65.0941
71.9835
73.4799
83.0111
91.6881
98.6622
104.285
108.029
108.863
105.857
98.7048
88.0078
75.1312
61.7303
49.2228
38.4921
29.8729
23.2891
18.4305
14.8979
12.3248
10.4711
9.288
9.09087
10.2045
12.4109
15.5432
19.4776
24.1208
29.398
35.2185
41.2857
46.7269
50.2202
51.0528
49.8237
47.857
46.2882
45.6517
45.8752
46.4949
46.9878
47.041
46.6195
45.8741
45.0124
44.2074
43.5524
43.0388
42.5298
41.7207
40.134
37.2723
32.9756
27.6926
22.322
17.8098
14.7499
13.1479
12.6482
12.8831
13.4765
14.3145
15.7144
18.2614
22.5417
29.1126
37.2885
43.2011
42.9537
38.1073
33.4664
30.8582
29.249
27.8078
26.3945
25.1027
23.9418
22.8105
21.6329
20.4423
19.3227
18.3592
17.5898
17.0003
16.5461
16.1885
15.9065
15.7101
15.6407
15.6722
15.7371
15.7966
15.8038
15.7029
15.439
14.969
14.3023
13.5194
12.7514
12.1235
11.7061
11.5004
11.4573
11.5175
11.6546
11.8893
12.2669
12.8242
13.572
14.4888
15.521
16.5919
17.6233
18.5576
19.3698
20.0634
20.6577
21.1726
21.6134
21.9607
22.1682
22.1717
21.9121
21.374
20.5626
19.5411
18.3859
17.1681
15.9422
14.7426
13.5865
12.4799
11.4236
10.418
9.46463
8.56657
7.72767
6.95138
6.23994
5.594
5.01249
4.49288
4.03146
3.62381
3.26512
2.95054
2.67552
2.43607
2.22909
2.05289
1.90793
1.79826
1.7343
1.73991
1.87043
2.24238
3.05664
4.4919
6.31449
7.6433
7.83479
7.32841
6.68787
6.13709
5.69561
5.30969
4.91803
4.48843
4.05451
3.70549
3.54977
3.64454
3.91519
4.16276
4.20387
3.9991
3.63284
3.21552
2.821
59.6773
90.2124
77.6958
80.8319
89.1398
96.8951
103.091
107.543
109.515
108.073
102.704
93.6921
82.0986
69.3981
56.9995
45.9106
36.6429
29.2887
23.6709
19.4891
16.441
14.3095
13.0183
12.8642
14.0277
16.3302
19.6238
23.7849
28.702
34.259
40.2938
46.3934
51.5541
54.4389
54.4817
52.4367
49.6847
47.3646
46.0206
45.613
45.7256
45.8761
45.7643
45.3389
44.7195
44.084
43.5853
43.3084
43.2455
43.2682
43.0827
42.19
39.9633
35.9855
30.502
24.4778
19.158
15.4706
13.5293
12.8245
12.8262
13.1697
13.8006
15.0291
17.3623
21.3363
27.3143
34.275
38.8565
38.4263
34.5972
30.9233
28.7133
27.3055
26.1079
25.0012
24.0108
23.0821
22.0998
21.0089
19.8643
18.774
17.8328
17.0771
16.4856
16.0124
15.6149
15.2705
14.9951
14.8203
14.7286
14.6714
14.6162
14.5307
14.3685
14.0797
13.6258
13.0108
12.3044
11.6244
11.0836
10.741
10.5889
10.5768
10.6589
10.8352
11.15
11.6543
12.3741
13.2972
14.3689
15.4971
16.5771
17.5265
18.309
18.9341
19.4424
19.8872
20.3182
20.7679
21.238
21.688
22.0341
22.1663
21.974
21.4251
20.554
19.4366
18.1664
16.832
15.5007
14.2146
12.994
11.8452
10.7676
9.75931
8.81888
7.94632
7.14223
6.40707
5.74042
5.14069
4.60505
4.12962
3.70982
3.34064
3.01705
2.73429
2.48811
2.27518
2.09353
1.94331
1.82808
1.75745
1.75296
1.86254
2.18478
2.88753
4.1225
5.69356
6.89514
7.21896
6.92089
6.42333
5.93855
5.51376
5.1227
4.72297
4.29754
3.88984
3.5934
3.51325
3.68674
4.00678
4.25554
4.26367
4.02139
3.6308
3.20298
2.80573
59.1388
154.736
113.48
93.2557
90.5686
95.2542
101.353
106.448
109.602
110.075
107.269
101.07
92.032
81.2227
69.871
59.0303
49.4005
41.3131
34.8163
29.7896
26.0505
23.4342
21.8508
21.523
22.4939
24.6674
27.9284
32.1487
37.1777
42.8252
48.796
54.43
58.4919
59.7781
58.2037
54.8787
51.2113
48.2078
46.278
45.3099
44.8956
44.6124
44.2167
43.6758
43.0931
42.615
42.3676
42.4223
42.7722
43.3038
43.7523
43.6455
42.3074
39.0897
33.8877
27.5056
21.3838
16.8675
14.3828
13.369
13.104
13.1976
13.6268
14.6776
16.7848
20.4068
25.6895
31.455
34.9696
34.5373
31.5874
28.6854
26.8066
25.5798
24.6026
23.7634
23.0309
22.3087
21.477
20.494
19.4252
18.3875
17.4792
16.738
16.1456
15.6607
15.2451
14.8778
14.5593
14.3057
14.1093
13.9427
13.7835
13.6053
13.3708
13.0361
12.5676
11.9707
11.3114
10.6986
10.2321
9.95666
9.85564
9.88164
10.009
10.2644
10.7049
11.3741
12.2759
13.3644
14.5391
15.6672
16.6321
17.3743
17.898
18.2515
18.5026
18.7227
18.9783
19.3245
19.7947
20.3828
21.0225
21.5552
21.822
21.7203
21.209
20.3199
19.1421
17.7894
16.3685
14.9597
13.6119
12.3484
11.1757
10.0921
9.09345
8.17597
7.33671
6.57336
5.88359
5.26454
4.71257
4.22327
3.79165
3.41242
3.08028
2.79019
2.53769
2.31918
2.1324
1.97709
1.8562
1.77822
1.76202
1.84823
2.11886
2.71267
3.76344
5.12771
6.23599
6.6506
6.5064
6.12535
5.7022
5.29875
4.90842
4.50757
4.09904
3.73712
3.51902
3.53813
3.79734
4.14832
4.36372
4.30843
4.01371
3.59707
3.16322
2.76882
76.9899
263.82
207.991
147.642
115.974
104.219
102.76
105.367
108.546
110.478
110.169
107.144
101.44
93.5924
84.4576
74.9577
65.8696
57.722
50.7971
45.1895
40.8819
37.8144
35.9514
35.5401
36.4693
38.6334
41.9012
46.1083
51.0331
56.3703
61.5826
65.6157
67.1093
65.4587
61.4321
56.4931
51.8972
48.3394
45.9587
44.4984
43.5509
42.7831
42.041
41.329
40.7366
40.3736
40.3328
40.6683
41.376
42.3646
43.4128
44.1114
43.8249
41.7908
37.5225
31.3765
24.6861
19.1602
15.805
14.2775
13.6891
13.5437
13.7858
14.6617
16.5483
19.8136
24.4237
29.1945
31.9538
31.5892
29.2824
26.9248
25.2928
24.2079
23.3989
22.7606
22.2263
21.6778
20.993
20.1326
19.1594
18.1874
17.3143
16.5833
15.9863
15.4905
15.0614
14.6735
14.3157
13.997
13.7168
13.4613
13.2146
12.9543
12.6472
12.2544
11.7489
11.1433
10.5065
9.942
9.53596
9.3188
9.26728
9.34448
9.5505
9.93311
10.5479
11.4177
12.5134
13.7391
14.9402
15.961
16.7107
17.1827
17.4273
17.5168
17.5234
17.5133
17.5498
17.6966
18.015
18.5475
19.2781
20.0684
20.7703
21.1948
21.1988
20.7273
19.8222
18.5947
17.1814
15.7048
14.2537
12.8798
11.6061
10.4379
9.37205
8.40247
7.52316
6.72884
6.01478
5.37634
4.80866
4.30645
3.86414
3.47598
3.13634
2.83991
2.58197
2.35867
2.16747
2.00771
1.88165
1.79658
1.76865
1.8316
2.05277
2.546
3.43122
4.62237
5.66377
6.14903
6.12155
5.83088
5.45757
5.07363
4.68794
4.29382
3.91653
3.62323
3.51004
3.64457
3.979
4.32282
4.46078
4.31481
3.96096
3.52301
3.09071
2.70574
80.5416
245.948
312.811
250.43
183.605
141.254
119.738
111.083
109.23
110.101
111.125
110.835
108.563
104.241
98.242
91.1881
83.7633
76.5679
70.0487
64.4934
60.0608
56.8309
54.8847
54.4504
55.2826
57.2757
60.2669
64.0166
68.1972
72.3088
75.4124
76.1518
73.6897
68.5844
62.3023
56.212
51.1452
47.3794
44.767
42.9474
41.5661
40.4048
39.3946
38.5627
37.9752
37.7041
37.8106
38.3347
39.278
40.5756
42.0536
43.375
43.9916
43.1683
40.2179
35.0115
28.4191
22.1344
17.7279
15.4543
14.4762
14.0969
14.1593
14.8624
16.5312
19.4402
23.4303
27.3935
29.6097
29.3215
27.4773
25.5093
24.0655
23.0915
22.408
21.9186
21.539
21.1415
20.6021
19.8753
19.0122
18.1162
17.2825
16.5611
15.9559
15.4436
14.9941
14.5817
14.1932
13.8346
13.5044
13.1936
12.8893
12.5696
12.2017
11.7505
11.1974
10.566
9.93295
9.39885
9.0375
8.86757
8.86568
9.0122
9.33131
9.8783
10.6928
11.7692
13.0348
14.3344
15.4768
16.328
16.8575
17.1117
17.1649
17.0874