/*--------------------------------*- C++ -*----------------------------------*\
  =========                 |
  \\      /  F ield         | OpenFOAM: The Open Source CFD Toolbox
   \\    /   O peration     | Website:  https://openfoam.org
    \\  /    A nd           | Version:  9
     \\/     M anipulation  |
\*---------------------------------------------------------------------------*/
FoamFile
{
    format      ascii;
    class       volScalarField;
    location    "0.11";
    object      p;
}
// * * * * * * * * * * * * * * * * * * * * * * * * * * * * * * * * * * * * * //

dimensions      [0 2 -2 0 0 0 0];

internalField   nonuniform List<scalar> 
12225
(
6.89401
5.90403
5.40589
5.20493
4.9968
4.73923
4.4679
4.19696
3.92187
3.63684
3.33914
3.02639
2.69448
2.33757
1.94365
1.49391
0.956063
0.316966
6.29082
5.66914
5.30843
5.14401
4.9613
4.72438
4.46685
4.2053
3.93734
3.65798
3.36479
3.05573
2.72681
2.37143
1.97696
1.52698
0.983781
0.28223
6.14212
5.77692
5.42417
5.20608
5.00318
4.76321
4.50465
4.24318
3.97731
3.70158
3.41284
3.10876
2.78532
2.43547
2.04466
1.59862
1.06036
0.357331
6.02974
5.75415
5.39844
5.15979
4.96392
4.74036
4.49438
4.24241
3.98539
3.71831
3.43783
3.14162
2.82563
2.48389
2.10583
1.67574
1.16581
0.536991
5.92314
5.70358
5.38732
5.15637
4.96893
4.75685
4.51924
4.27313
4.02187
3.7612
3.48779
3.19959
2.89275
2.56198
2.19986
1.79394
1.32883
0.793572
5.82698
5.65486
5.38398
5.15885
4.96982
4.76323
4.53309
4.29362
4.04921
3.79633
3.53155
3.25304
2.95823
2.64242
2.30068
1.92624
1.51463
1.07154
5.74281
5.6077
5.37576
5.15821
4.96937
4.77091
4.55194
4.3223
4.08702
3.84389
3.59
3.32346
3.04287
2.74527
2.42822
2.0901
1.73414
1.37494
5.66984
5.56222
5.36371
5.15862
4.97371
4.78394
4.57621
4.35658
4.13055
3.89744
3.65496
3.40173
3.13711
2.86002
2.57033
2.27017
1.96729
1.67907
5.60732
5.52019
5.3506
5.16104
4.98243
4.80095
4.60427
4.39557
4.18018
3.95865
3.72943
3.49167
3.24544
2.99124
2.73078
2.46854
2.21405
1.98384
5.55486
5.4833
5.33835
5.16553
4.99528
4.82251
4.63731
4.44074
4.23743
4.02881
3.81418
3.59328
3.36689
3.13665
2.90556
2.67912
2.46674
2.2821
5.51234
5.45284
5.32867
5.17278
5.01278
4.84963
4.67634
4.49277
4.30268
4.10813
3.9093
3.70652
3.50114
3.29551
3.09327
2.89993
2.72364
2.57466
5.48255
5.43167
5.32357
5.18287
5.03367
4.88026
4.71828
4.54727
4.37029
4.18971
4.0064
3.82116
3.63567
3.45257
3.27557
3.10965
2.96139
2.83817
5.46096
5.41712
5.32285
5.19661
5.05892
4.91591
4.76554
4.60748
4.44425
4.27833
4.1111
3.94377
3.77821
3.61709
3.46387
3.32279
3.19878
3.09683
5.44697
5.4098
5.32909
5.21833
5.09435
4.96409
4.82756
4.68485
4.5381
4.38977
4.2416
4.09513
3.95227
3.8155
3.68774
3.57221
3.4722
3.39053
5.4458
5.41457
5.34689
5.25229
5.14406
5.02912
4.90891
4.78416
4.6568
4.52915
4.40314
4.28042
4.16281
4.05237
3.9513
3.86175
3.78558
3.72406
5.46311
5.43778
5.38262
5.30448
5.21368
5.11649
5.0152
4.91109
4.806
4.70204
4.60109
4.50476
4.41456
4.33205
4.25869
4.1957
4.14395
4.10375
5.5073
5.48756
5.44427
5.3825
5.31023
5.23283
5.15284
5.07187
4.99166
4.91404
4.84067
4.77289
4.71188
4.65866
4.61408
4.57873
4.5529
4.53647
5.58797
5.57338
5.54113
5.49508
5.44152
5.38496
5.32784
5.27175
5.21821
5.16874
5.12462
5.08685
5.05622
5.03332
5.01856
5.01214
5.01409
5.02412
5.71575
5.70589
5.68343
5.65157
5.61574
5.57987
5.54602
5.51543
5.48927
5.46866
5.45449
5.44736
5.44765
5.4556
5.4713
5.4947
5.52571
5.56392
5.86127
5.85328
5.83513
5.81065
5.78569
5.76401
5.747
5.73526
5.72954
5.73068
5.7392
5.75536
5.77919
5.81067
5.84966
5.89594
5.9493
6.00926
5.98779
5.97925
5.96057
5.93744
5.91727
5.90368
5.89702
5.89717
5.90472
5.92031
5.94413
5.976
6.01566
6.06287
6.11731
6.1786
6.2464
6.32009
6.10717
6.09581
6.07206
6.04565
6.02694
6.01868
6.01901
6.02712
6.04389
6.07002
6.10533
6.14923
6.20117
6.26066
6.3272
6.40022
6.47929
6.56373
6.22039
6.20331
6.16921
6.13517
6.11588
6.11154
6.11699
6.13082
6.15436
6.18825
6.23189
6.2844
6.34511
6.41344
6.48869
6.57008
6.65696
6.74837
6.32951
6.3024
6.25199
6.20765
6.18699
6.18455
6.19245
6.21035
6.24014
6.28164
6.33338
6.39414
6.46318
6.53975
6.62298
6.71192
6.80585
6.904
6.43739
6.39301
6.31832
6.2651
6.24706
6.24584
6.25197
6.26918
6.30092
6.3461
6.4024
6.46839
6.54324
6.626
6.71552
6.81061
6.91022
7.01303
6.54742
6.47678
6.36397
6.30137
6.29276
6.29954
6.3096
6.33052
6.36677
6.41657
6.47735
6.54789
6.62744
6.71497
6.80916
6.90864
7.01231
7.1192
6.66004
6.56042
6.40242
6.31936
6.30416
6.3065
6.31533
6.339
6.38
6.43512
6.50155
6.57815
6.66409
6.75817
6.8589
6.96465
7.07386
7.184
6.76728
6.62647
6.47127
6.40848
6.39296
6.38318
6.38279
6.40195
6.44034
6.49362
6.55912
6.63582
6.72273
6.81846
6.92142
7.02985
7.14186
7.25367
6.87679
6.51459
6.33461
6.33014
6.34806
6.35067
6.36028
6.39022
6.43845
6.50042
6.57419
6.65915
6.75445
6.85872
6.97041
7.08795
7.20957
7.3338
7.4801
6.78257
6.45693
6.41766
6.41653
6.40221
6.40092
6.4248
6.46926
6.52861
6.60064
6.68453
6.77917
6.88302
6.99439
7.11175
7.23343
7.3589
2.02182
1.93436
1.74656
1.46
1.09259
0.669822
0.231396
-0.209732
-0.639876
-1.06088
-1.50296
-2.00649
-2.60603
-3.33279
-4.20321
-5.21345
-6.33718
-7.52697
-8.71849
-9.8361
-10.8003
-11.5358
-11.9787
-12.0794
-11.7847
-11.0218
-9.72933
-7.91158
-5.62691
-2.93864
0.0851314
3.37193
6.84673
10.4344
14.0623
17.6625
21.1727
24.5371
27.7065
30.6396
33.3033
35.6749
37.7424
39.4798
40.8482
41.8241
42.3909
42.5379
42.2666
41.6098
40.7011
39.7999
38.9213
37.8117
36.4167
34.8614
33.2952
31.8634
30.6563
29.6008
28.511
27.2829
25.9574
24.7348
23.908
23.5709
23.8524
24.5392
25.2389
25.6582
25.7526
25.647
25.5055
25.4471
25.3536
24.955
24.0309
22.5481
20.2689
16.8038
11.8956
5.70202
-1.24158
-8.36064
-15.1699
-21.3199
-26.591
-30.8672
-34.1062
-36.3124
-37.5118
-37.7129
-36.9377
-35.2827
-32.8546
-29.744
-26.0324
-21.7953
-17.1044
-12.0297
-6.64262
-1.02012
4.75088
10.5707
16.3265
21.895
27.1465
31.9515
36.1926
39.7819
42.6729
44.8656
46.3707
47.2018
47.4223
47.1218
46.3938
45.3341
44.0363
42.5869
41.0631
39.5322
38.0514
36.6674
35.4272
34.3987
33.4877
32.6769
31.9265
31.2074
30.4864
29.7397
28.9723
28.2183
27.5723
27.0903
26.7572
26.5826
26.5632
26.6609
26.8224
26.9961
27.1493
27.2691
27.3588
27.4311
27.5004
27.577
27.6643
27.7609
27.864
27.9759
28.1021
28.2482
28.4194
28.6233
28.8715
29.1322
29.3054
29.3317
29.0642
27.7439
24.4855
19.0422
12.3675
5.98339
1.25884
-1.12789
-0.99029
1.59525
6.21139
12.1281
18.391
24.0497
28.4598
31.3266
32.8797
33.3979
33.3898
33.2744
2.42604
2.33204
2.14603
1.86885
1.50554
1.07435
0.585623
0.0839206
-0.419044
-0.942555
-1.52079
-2.20093
-3.03427
-4.05532
-5.27237
-6.66304
-8.1756
-9.73399
-11.2457
-12.6108
-13.7297
-14.5101
-14.8722
-14.756
-14.1389
-13.0253
-11.4688
-9.48909
-7.09562
-4.32568
-1.23563
2.10676
5.6279
9.2528
12.9088
16.528
20.0496
23.4203
26.5946
29.5343
32.2063
34.5816
36.6348
38.3536
39.7189
40.7039
41.2918
41.4735
41.2587
40.6872
39.8123
38.6568
37.3758
36.2062
35.0727
33.7983
32.5007
31.3918
30.4895
29.6303
28.6109
27.3108
25.803
24.329
23.2019
22.8162
23.1671
24.0591
25.006
25.5933
25.7254
25.5811
25.3682
25.2187
25.1479
24.9594
24.1859
22.4459
19.5314
15.1925
9.32118
2.3677
-5.02025
-12.2613
-18.9404
-24.8014
-29.7021
-33.5724
-36.3903
-38.1691
-38.9509
-38.8169
-37.8471
-36.0881
-33.5952
-30.4406
-26.6997
-22.4456
-17.7473
-12.6719
-7.28736
-1.66713
4.10523
9.93271
15.7041
21.296
26.5775
31.418
35.6984
39.3283
42.2603
44.4879
46.0179
46.8698
47.1134
46.8356
46.13
45.0924
43.8155
42.3855
40.8795
39.3643
37.8948
36.5166
35.2553
34.0883
33.0787
32.2416
31.516
30.8582
30.2203
29.5607
28.8716
28.1926
27.5738
27.0715
26.7398
26.5828
26.5791
26.6866
26.8516
27.0244
27.172
27.2847
27.3687
27.4376
27.5053
27.5814
27.6686
27.7642
27.8653
27.9744
28.0978
28.2409
28.4089
28.6076
28.8556
29.1256
29.2971
29.3164
29.13
27.807
24.2409
18.1866
11.0348
4.60641
0.0930438
-2.00481
-1.65138
1.02126
5.66804
11.626
17.958
23.6971
28.1748
31.1206
32.7036
33.2507
33.2433
33.0413
3.12134
3.03119
2.85051
2.56914
2.17579
1.66642
1.03418
0.275104
-0.615965
-1.64323
-2.80933
-4.11216
-5.54216
-7.07914
-8.6915
-10.3374
-11.967
-13.5249
-14.9524
-16.1882
-17.1701
-17.8347
-18.1188
-17.9612
-17.3159
-16.1839
-14.558
-12.4623
-9.93385
-7.02358
-3.79539
-0.322467
3.31712
7.04464
10.7845
14.4671
18.0312
21.4249
24.606
27.5406
30.2007
32.562
34.6038
36.3147
37.6858
38.7005
39.3441
39.6074
39.4943
39.0316
38.2698
37.2657
36.0701
34.677
33.1318
31.6644
30.4517
29.5287
28.8223
28.1633
27.3389
26.2084
24.8134
23.4051
22.3647
22.0254
22.4821
23.5242
24.6168
25.254
25.3392
25.1762
25.093
25.0514
24.8439
24.0085
22.0539
18.5573
13.6766
7.82405
1.39379
-5.2286
-11.731
-17.8845
-23.5219
-28.5123
-32.7489
-36.1462
-38.6408
-40.1977
-40.818
-40.5429
-39.4305
-37.5431
-34.9468
-31.714
-27.9182
-23.6299
-18.9148
-13.8348
-8.45186
-2.8329
2.94468
8.78879
14.591
20.2274
25.5637
30.4644
34.8065
38.4981
41.4971
43.7837
45.3555
46.2497
46.5347
46.2966
45.6293
44.6284
43.3865
41.9894
40.5136
39.0254
37.5784
36.2137
34.9606
33.8376
32.8703
32.0008
31.2301
30.5244
29.8567
29.2174
28.6071
28.0402
27.5386
27.1423
26.8807
26.7485
26.729
26.7965
26.9151
27.0489
27.1731
27.2778
27.3644
27.4404
27.515
27.5952
27.6837
27.7795
27.8815
27.9925
28.1183
28.2654
28.4316
28.6227
28.8611
29.1267
29.2947
29.3209
29.0731
27.131
22.5346
15.6858
8.64983
2.72478
-1.35786
-3.2062
-2.74702
-0.0214209
4.6673
10.6967
17.1475
23.0285
27.6376
30.703
32.3547
32.9545
32.9666
32.7163
3.48165
3.37595
3.16352
2.80529
2.2588
1.50566
0.540007
-0.630793
-1.98865
-3.50821
-5.1606
-6.9162
-8.74672
-10.6251
-12.5238
-14.4118
-16.2513
-17.9961
-19.5897
-20.9675
-22.0594
-22.7927
-23.0981
-22.9185
-22.2201
-20.991
-19.2316
-16.966
-14.2387
-11.1112
-7.65858
-3.96439
-0.115767
3.80115
7.70512
11.5228
15.191
18.6576
21.8823
24.8352
27.4945
29.8447
31.8745
33.5808
34.9624
36.0104
36.7155
37.0699
37.0696
36.7196
36.0384
35.0621
33.8445
32.4431
30.9207
29.3456
27.8734
26.7094
25.9234
25.4053
24.9427
24.3483
23.5827
22.7926
22.2515
22.2347
22.8376
23.8725
24.8376
25.2651
25.1826
24.9466
24.7117
24.2327
22.8831
20.1404
16.0363
10.942
5.30478
-0.534282
-6.3976
-12.1861
-17.8165
-23.1849
-28.1627
-32.6114
-36.4012
-39.4243
-41.6019
-42.8903
-43.2879
-42.8216
-41.5358
-39.4936
-36.767
-33.4322
-29.564
-25.2316
-20.497
-15.4156
-10.0409
-4.43031
1.34778
7.20851
13.0473
18.7396
24.1458
29.1233
33.5449
37.3255
40.4102
42.7651
44.3971
45.349
45.69
45.5064
44.8924
43.9434
42.7513
41.4013
39.9697
38.5217
37.111
35.7791
34.5549
33.451
32.4714
31.6027
30.8409
30.1574
29.5278
28.9408
28.3957
27.9037
27.4844
27.1595
26.9397
26.8213
26.7933
26.8377
26.9288
27.04
27.1512
27.2522
27.3413
27.4228
27.5028
27.5869
27.6782
27.7773
27.8848
28.0032
28.1378
28.2938
28.4689
28.6667
28.9029
29.1678
29.3416
29.3251
28.6577
25.4747
19.7105
12.7472
6.13853
0.66129
-3.09731
-4.7412
-4.18774
-1.41724
3.31039
9.42374
16.0227
22.0909
26.8777
30.0905
31.84
32.5135
32.5657
32.3155
2.92084
2.76868
2.4582
1.93462
1.15763
0.120764
-1.16485
-2.67265
-4.36987
-6.22401
-8.20683
-10.2951
-12.469
-14.708
-16.9864
-19.2686
-21.5068
-23.6398
-25.5945
-27.2897
-28.6406
-29.5637
-29.9829
-29.84
-29.1043
-27.7617
-25.8177
-23.3066
-20.2857
-16.8322
-13.0371
-8.99991
-4.82139
-0.598775
3.57858
7.63186
11.4946
15.1139
18.4507
21.4788
24.1827
26.5553
28.5955
30.3123
31.7128
32.7943
33.5542
33.9873
34.0871
33.8485
33.2726
32.3727
31.1816
29.7572
28.1836
26.5647
25.0196
23.6964
22.7649
22.2925
22.1814
22.2567
22.3839
22.5434
22.8276
23.3781
24.2337
25.2501
25.9708
26.0773
25.7062
25.0201
23.9599
21.9877
18.6373
14.1213
8.91928
3.45266
-2.04281
-7.49001
-12.8843
-18.2078
-23.3985
-28.351
-32.9341
-37.0107
-40.4533
-43.1547
-45.0359
-46.054
-46.2088
-45.5206
-44.0319
-41.808
-38.9264
-35.4688
-31.5134
-27.1298
-22.3762
-17.3007
-11.9461
-6.35782
-0.592276
5.27508
11.1441
16.8893
22.3655
27.4255
31.9434
35.8244
38.9957
41.4272
43.1304
44.151
44.5603
44.4451
43.8991
43.017
41.8897
40.6018
39.2287
37.8353
36.4749
35.1878
34.0015
32.9308
31.9821
31.1489
30.4164
29.765
29.1767
28.6412
28.1567
27.7303
27.374
27.0999
26.9157
26.8191
26.7997
26.8404
26.9204
27.0189
27.1205
27.2166
27.3054
27.3893
27.4728
27.5599
27.6535
27.7554
27.8672
27.9918
28.1344
28.3
28.4873
28.6968
28.9434
29.2021
29.3645
29.2129
27.7871
23.3721
16.8993
10.033
3.69457
-1.5025
-5.00074
-6.45328
-5.81198
-3.01145
1.73684
7.92453
14.6774
20.9522
25.9405
29.3114
31.1773
31.942
32.0558
31.8377
1.2251
1.0221
0.604406
-0.0789685
-1.05207
-2.30761
-3.82534
-5.57625
-7.53265
-9.67237
-11.9795
-14.4412
-17.0434
-19.764
-22.5689
-25.4078
-28.2132
-30.902
-33.3786
-35.5401
-37.2823
-38.5046
-39.1167
-39.0539
-38.2855
-36.7961
-34.5998
-31.7448
-28.3077
-24.3879
-20.1002
-15.5665
-10.907
-6.23389
-1.64663
2.76928
6.9432
10.8202
14.3617
17.5448
20.3601
22.8088
24.9012
26.6592
28.0967
29.2177
30.0276
30.5253
30.7035
30.5508
30.0571
29.2217
28.0648
26.6392
25.0351
23.3723
21.7856
20.4126
19.4152
18.9624
19.1107
19.7771
20.7941
21.9994
23.2825
24.5924
25.8838
26.9324
27.456
27.2633
26.3491
24.6908
22.1137
18.2221
13.3278
7.92715
2.41004
-3.03002
-8.35404
-13.5904
-18.7621
-23.8488
-28.7832
-33.4635
-37.7677
-41.5677
-44.7402
-47.1783
-48.8007
-49.5645
-49.4746
-48.548
-46.8317
-44.3985
-41.3348
-37.7305
-33.6702
-29.2253
-24.451
-19.3873
-14.0648
-8.51442
-2.7782
3.07931
8.96347
14.7472
20.2837
25.4296
30.0434
34.0147
37.2694
39.7786
41.5565
42.6523
43.1391
43.1037
42.6388
41.8375
40.7895
39.578
38.2777
36.9533
35.6575
34.4306
33.3003
32.2822
31.3809
30.5908
29.9005
29.2951
28.7598
28.285
27.8674
27.5092
27.2167
26.9969
26.8535
26.7831
26.7754
26.8164
26.8899
26.9803
27.0755
27.1687
27.2577
27.3436
27.4294
27.5181
27.6126
27.715
27.8277
27.954
28.0989
28.2676
28.461
28.678
28.9245
29.1741
29.3052
28.9074
26.6214
21.3589
14.4395
7.58201
1.37606
-3.60739
-6.87544
-8.1607
-7.44902
-4.6391
0.103176
6.33797
13.2275
19.6959
24.8833
28.4103
30.3981
31.2642
31.4564
31.2961
-1.37711
-1.61823
-2.11929
-2.92185
-4.03813
-5.456
-7.15677
-9.12035
-11.3332
-13.7888
-16.4846
-19.4161
-22.5705
-25.9199
-29.4162
-32.9891
-36.5454
-39.9727
-43.1447
-45.9285
-48.1922
-49.812
-50.677
-50.7128
-49.8957
-48.206
-45.6685
-42.3495
-38.3506
-33.8015
-28.85
-23.6492
-18.3453
-13.0684
-7.92829
-3.01614
1.5937
5.84354
9.69371
13.1233
16.1289
18.7205
20.9225
22.7654
24.2671
25.4424
26.3049
26.8594
27.1011
27.0166
26.5892
25.8082
24.6838
23.2621
21.6353
19.9345
18.3087
16.912
15.9046
15.474
15.7797
16.8523
18.5618
20.6619
22.864
24.9119
26.626
27.819
28.2411
27.702
26.0021
23.1108
18.859
13.5912
7.87708
2.13187
-3.44714
-8.83097
-14.0669
-19.2062
-24.2671
-29.2241
-34.011
-38.53
-42.6623
-46.2801
-49.2581
-51.4867
-52.8824
-53.4044
-53.0647
-51.8796
-49.9064
-47.2298
-43.9491
-40.1666
-35.9756
-31.4519
-26.6484
-21.5967
-16.3138
-10.8143
-5.12423
0.703682
6.58231
12.387
17.9744
23.1882
27.8791
31.926
35.2524
37.8317
39.6819
40.8552
41.4256
41.4791
41.1064
40.3982
39.442
38.3199
37.106
35.8644
34.648
33.4969
32.4388
31.489
30.6525
29.9255
29.2982
28.7566
28.2877
27.8822
27.5355
27.2468
27.0185
26.8532
26.7512
26.7081
26.7155
26.7623
26.8359
26.9243
27.0178
27.1107
27.2006
27.2882
27.3755
27.465
27.5592
27.6606
27.7716
27.8957
28.0371
28.201
28.3896
28.601
28.8339
29.0578
29.1239
28.4207
25.419
19.5062
12.2948
5.4083
-0.69959
-5.49518
-8.56438
-9.71324
-8.94956
-6.14668
-1.44177
4.80115
11.7865
18.4161
23.774
27.4393
29.5428
30.5134
30.7957
30.7118
-4.45723
-4.72722
-5.29378
-6.19056
-7.4256
-8.98964
-10.8725
-13.0683
-15.5805
-18.4187
-21.5934
-25.1074
-28.9473
-33.0761
-37.4282
-41.907
-46.3862
-50.7156
-54.7303
-58.261
-61.1441
-63.2315
-64.3875
-64.5207
-63.641
-61.6989
-58.7333
-54.8315
-50.1251
-44.7827
-38.9962
-32.9626
-26.8635
-20.8501
-15.0395
-9.52228
-4.37236
0.350553
4.60345
8.36528
11.6375
14.4407
16.8125
18.7861
20.3851
21.6368
22.5622
23.1728
23.4687
23.4379
23.061
22.321
21.2199
19.7983
18.1495
16.4148
14.7614
13.3592
12.3682
11.9786
12.384
13.6808
15.8028
18.4842
21.3233
23.9089
25.9349
27.182
27.4559
26.5253
23.9907
19.9216
14.5559
8.60538
2.59451
-3.21096
-8.75549
-14.0912
-19.292
-24.4079
-29.4488
-34.3823
-39.137
-43.6094
-47.674
-51.1965
-54.0457
-56.1082
-57.3
-57.5881
-56.9875
-55.5194
-53.2558
-50.2972
-46.7594
-42.7602
-38.4055
-33.7775
-28.9283
-23.8805
-18.637
-13.1945
-7.5635
-1.78323
4.0701
9.87805
15.4932
20.7513
25.4927
29.5907
32.969
35.6047
37.52
38.7695
39.4271
39.5762
39.3041
38.6984
37.8443
36.8224
35.7064
34.5604
33.4372
32.3773
31.408
30.5446
29.7924
29.148
28.6012
28.139
27.7493
27.4227
27.1528
26.9369
26.7742
26.6644
26.6059
26.5942
26.6224
26.6813
26.7609
26.852
26.9469
27.0411
27.1328
27.2221
27.3106
27.4006
27.4942
27.5938
27.7017
27.8208
27.9547
28.1075
28.2805
28.471
28.6726
28.85
28.8168
27.8011
24.253
17.8724
10.4824
3.58679
-2.42633
-7.05666
-9.95951
-10.9971
-10.202
-7.41292
-2.78405
3.42676
10.4581
17.2042
22.6828
26.4536
28.6561
29.7271
30.1048
30.1086
-7.53615
-7.83347
-8.46228
-9.45056
-10.8077
-12.5314
-14.6234
-17.0935
-19.9623
-23.2557
-26.9964
-31.1932
-35.8304
-40.8588
-46.1903
-51.6963
-57.2114
-62.5421
-67.481
-71.8209
-75.3674
-77.9502
-79.4174
-79.6714
-78.7206
-76.506
-73.0734
-68.5233
-63.0122
-56.7493
-49.9828
-42.9729
-35.9555
-29.1114
-22.5595
-16.3779
-10.6293
-5.37185
-0.652465
3.50365
7.10162
10.1742
12.7613
14.8987
16.6254
17.9767
18.9805
19.6544
20.004
20.0209
19.6859
18.9782
17.8936
16.4676
14.7942
13.0259
11.3477
9.94713
8.99785
8.66427
9.1402
10.5354
12.8258
15.7572
18.8734
21.6677
23.7613
24.9342
24.9939
23.6279
20.4373
15.6005
9.76353
3.6431
-2.35093
-8.07745
-13.5594
-18.8759
-24.0994
-29.2693
-34.3835
-39.3972
-44.2251
-48.749
-52.8306
-56.3252
-59.0956
-61.0238
-62.028
-62.0856
-61.2147
-59.4442
-56.8622
-53.5874
-49.7553
-45.5022
-40.9494
-36.1882
-31.2707
-26.2116
-20.999
-15.6128
-10.0474
-4.32655
1.48464
7.27573
12.8934
18.1642
22.9227
27.0407
30.4452
33.1191
35.0892
36.4113
37.1568
37.4049
37.2382
36.7407
35.9952
35.0813
34.0726
33.0335
32.0171
31.0635
30.2
29.4413
28.7922
28.2491
27.8009
27.4346
27.1382
26.9013
26.7163
26.5784
26.4849
26.4338
26.4223
26.4463
26.4996
26.575
26.6649
26.7622
26.8613
26.9588
27.0531
27.1445
27.2344
27.3246
27.4171
27.5141
27.6176
27.73
27.8537
27.9908
28.1405
28.2979
28.4532
28.5646
28.407
27.1127
23.1964
16.545
9.08222
2.18737
-3.74499
-8.23871
-11.0086
-11.9573
-11.1367
-8.40143
-3.84458
2.3086
9.34239
16.1371
21.6736
25.5049
27.7813
28.9419
29.4145
29.51
-10.1117
-10.446
-11.1485
-12.2424
-13.741
-15.6501
-17.9835
-20.7659
-24.0344
-27.8297
-32.1858
-37.1161
-42.6
-48.5726
-54.9193
-61.4763
-68.0362
-74.3599
-80.1946
-85.2978
-89.4513
-92.4712
-94.2095
-94.5895
-93.5952
-91.1722
-87.3529
-82.2268
-75.9518
-68.7623
-60.9644
-52.9037
-44.9006
-37.1858
-29.8817
-23.0407
-16.7011
-10.9107
-5.71702
-1.14873
2.79987
6.16196
8.97804
11.2987
13.1723
14.641
15.7383
16.487
16.8973
16.9651
16.6728
15.998
14.9309
13.502
11.8058
10.0048
8.3029
6.90712
6.00523
5.736
6.26757
7.69076
9.98586
12.9036
15.9686
18.6516
20.5791
21.5493
21.3342
19.5901
16.0433
10.8881
4.99754
-1.01879
-6.86376
-12.4773
-17.9137
-23.2527
-28.5558
-33.8492
-39.1155
-44.2911
-49.2696
-53.9131
-58.0674
-61.578
-64.3022
-66.1192
-66.9508
-66.7886
-65.6479
-63.5691
-60.6561
-57.0464
-52.8966
-48.3632
-43.585
-38.6654
-33.6574
-28.5687
-23.3745
-18.0396
-12.54
-6.88319
-1.12409
4.62846
10.2183
15.466
20.2033
24.3055
27.7072
30.3987
32.411
33.7988
34.6289
34.9743
34.9125
34.5237
33.8891
33.0881
32.1943
31.2727
30.3765
29.5454
28.8055
28.1707
27.6448
27.2228
26.8919
26.6387
26.4503
26.315
26.224
26.1709
26.1518
26.1635
26.203
26.2663
26.3487
26.4447
26.5487
26.6556
26.7615
26.8639
26.9619
27.0558
27.147
27.237
27.3279
27.4213
27.5191
27.623
27.7342
27.8525
27.9741
28.0911
28.1898
28.2211
27.9303
26.422
22.3149
15.5913
8.13473
1.25671
-4.59661
-8.98277
-11.6579
-12.5482
-11.7184
-9.03239
-4.55232
1.5209
8.50565
15.2749
20.7975
24.6368
26.9558
28.19
28.751
28.9357
-11.6637
-12.0899
-12.894
-14.1181
-15.7834
-17.9016
-20.4955
-23.6028
-27.2743
-31.564
-36.5151
-42.1432
-48.4205
-55.2644
-62.5321
-70.0237
-77.4895
-84.6429
-91.1841
-96.8386
-101.384
-104.652
-106.525
-106.969
-105.975
-103.469
-99.4615
-94.0055
-87.2237
-79.3345
-70.6749
-61.6749
-52.7626
-44.2459
-36.2687
-28.8615
-22.0278
-15.7917
-10.1917
-5.25742
-0.990573
2.63855
5.67649
8.17995
10.2045
11.7983
12.9995
13.8348
14.3181
14.4489
14.2121
13.5839
12.55
11.1344
9.42935
7.60544
5.88488
4.49516
3.63463
3.42715
4.00234
5.41532
7.61738
10.3463
13.133
15.4889
17.0969
17.7755
17.2671
15.24
11.5385
6.35364
0.610166
-5.21345
-10.8948
-16.4153
-21.8392
-27.2401
-32.6688
-38.1373
-43.609
-48.9965
-54.1686
-58.966
-63.2199
-66.7673
-69.4625
-71.1846
-71.8616
-71.5032
-70.1095
-67.7354
-64.5008
-60.5606
-56.0912
-51.2719
-46.2588
-41.1681
-36.0558
-30.9239
-25.7371
-20.4443
-15.0051
-9.41395
-3.71811
1.97457
7.50462
12.6896
17.3639
21.4119
24.7799
27.4667
29.5053
30.9468
31.8508
32.2838
32.3183
32.032
31.5058
30.8195
30.0478
29.2557
28.4957
27.8061
27.2109
26.7221
26.3423
26.0625
25.8689
25.7468
25.6818
25.6608
25.6737
25.7134
25.7748
25.8544
25.9492
26.0561
26.1717
26.2922
26.4139
26.5335
26.6485
26.7574
26.86
26.9569
27.0493
27.1388
27.2273
27.3161
27.4069
27.5005
27.597
27.6941
27.7848
27.8575
27.8943
27.8387
27.423
25.7812
21.6469
15.0173
7.63959
0.807251
-4.96576
-9.26641
-11.8777
-12.7357
-11.9075
-9.26801
-4.86636
1.10881
7.99158
14.6575
20.0899
23.8805
26.2073
27.4954
28.1338
28.4
-11.7053
-12.3836
-13.3296
-14.7179
-16.5765
-18.9168
-21.7668
-25.173
-29.1971
-33.9031
-39.3412
-45.5278
-52.4271
-59.9391
-67.8953
-76.0615
-84.1482
-91.8258
-98.7552
-104.639
-109.268
-112.526
-114.363
-114.798
-113.828
-111.368
-107.393
-101.914
-95.0026
-86.8297
-77.7142
-68.1293
-58.5965
-49.517
-41.0812
-33.3126
-26.1722
-19.6456
-13.7585
-8.54679
-4.02732
-0.179398
3.04555
5.70884
7.87136
9.58591
10.894
11.8252
12.3959
12.6086
12.4502
11.8966
10.9286
9.56183
7.88199
6.06218
4.33935
2.96124
2.13714
1.98079
2.58468
3.96024
6.00896
8.44558
10.8285
12.7468
13.9592
14.2986
13.4899
11.2236
7.42172
2.38039
-3.19315
-8.83831
-14.3914
-19.8575
-25.3032
-30.7973
-36.3817
-42.0528
-47.7518
-53.3663
-58.74
-63.6935
-68.0461
-71.6321
-74.3065
-75.9488
-76.4913
-75.9707
-74.3546
-71.7171
-68.1942
-63.9557
-59.1952
-54.1138
-48.8851
-43.6308
-38.4134
-33.2344
-28.0489
-22.7915
-17.4081
-11.8837
-6.26176
-0.651614
4.78397
9.86339
14.4301
18.3839
21.6854
24.3414
26.3839
27.857
28.8127
29.3112
29.4224
29.2242
28.799
28.2283
27.5873
26.9406
26.3387
25.8166
25.3938
25.0796
24.8729
24.7602
24.7263
24.755
24.8299
24.9369
25.0648
25.2059
25.3548
25.5079
25.663
25.8179
25.9708
26.1195
26.2622
26.3972
26.5234
26.6403
26.7485
26.8487
26.9425
27.0313
27.1168
27.2003
27.2827
27.3644
27.4442
27.5182
27.5765
27.6036
27.5769
27.435
26.9145
25.2182
21.1948
14.7973
7.58322
0.836948
-4.85315
-9.08512
-11.6548
-12.4977
-11.6783
-9.08233
-4.75986
1.09679
7.82146
14.3036
19.568
23.2532
25.5523
26.8724
27.574
27.9105
-10.045
-11.0677
-12.2882
-13.8983
-15.9807
-18.5435
-21.6167
-25.2543
-29.5257
-34.5018
-40.2374
-46.7498
-53.9989
-61.8736
-70.1886
-78.6888
-87.0608
-94.9542
-102.015
-107.941
-112.536
-115.739
-117.561
-118.044
-117.163
-114.82
-110.979
-105.629
-98.8187
-90.6821
-81.4971
-71.7299
-61.9498
-52.6307
-44.0099
-36.1069
-28.8492
-22.1941
-16.1614
-10.7969
-6.12742
-2.13971
1.2131
3.99397
6.26654
8.08624
9.49669
10.529
11.2015
11.5186
11.4696
11.0308
10.1783
8.91719
7.3208
5.5565
3.8687
2.52199
1.73722
1.62015
2.23127
3.53735
5.38268
7.46192
9.37887
10.8154
11.6009
11.5746
10.4534
7.96028
4.07714
-0.879932
-6.30952
-11.825
-17.3
-22.7507
-28.245
-33.8493
-39.5965
-45.4679
-51.3839
-57.2077
-62.7603
-67.8452
-72.2746
-75.8875
-78.543
-80.1196
-80.5492
-79.9036
-78.1065
-75.2576
-71.505
-67.0353
-62.0533
-56.7629
-51.3533
-45.9606
-40.6568
-35.4417
-30.2609
-25.0377
-19.7091
-14.2554
-8.72081
-3.21928
2.0836
7.01177
11.4247
15.2424
18.4414
21.0329
23.0444
24.5115
25.4791
26.005
26.1603
26.0267
25.6906
25.2361
24.7389
24.2611
23.8488
23.5303
23.3186
23.2178
23.2184
23.3037
23.4567
23.6589
23.8924
24.1424
24.3973
24.6492
24.8931
25.1259
25.3464
25.5538
25.7479
25.9284
26.0951
26.2481
26.3875
26.514
26.6287
26.7329
26.8282
26.9162
26.9984
27.0758
27.149
27.2176
27.2794
27.3289
27.3541
27.336
27.2478
27.0253
26.4248
24.7416
20.94
14.8972
7.94342
1.33656
-4.25947
-8.43178
-10.9734
-11.8128
-11.0091
-8.45788
-4.22017
1.49013
7.99442
14.2103
19.2317
22.7582
24.9959
26.326
27.075
27.4689
-6.96922
-8.18579
-9.84561
-11.754
-14.0526
-16.7971
-20.0231
-23.785
-28.1542
-33.207
-39.0049
-45.5713
-52.8709
-60.795
-69.1569
-77.6982
-86.1031
-94.0217
-101.105
-107.052
-111.668
-114.898
-116.776
-117.333
-116.514
-114.243
-110.498
-105.269
-98.6106
-90.6461
-81.6302
-72.0146
-62.3795
-53.2197
-44.7699
-37.0233
-29.8829
-23.2959
-17.2864
-11.9129
-7.21344
-3.18216
0.224406
3.06813
5.4126
7.31354
8.81507
9.949
10.7349
11.1794
11.2747
10.999
10.3253
9.24699
7.8189
6.19127
4.6038
3.32888
2.59621
2.50644
3.09154
4.27938
5.86306
7.53248
8.95253
9.89541
10.2418
9.83025
8.37876
5.64429
1.64573
-3.28946
-8.64377
-14.0941
-19.5423
-25.0152
-30.5827
-36.3063
-42.2078
-48.2538
-54.3478
-60.3342
-66.0173
-71.1909
-75.6657
-79.286
-81.9197
-83.4533
-83.839
-83.0742
-81.1525
-78.1689
-74.2679
-69.6394
-64.4991
-59.0635
-53.5319
-48.0527
-42.7012
-37.4746
-32.3116
-27.1291
-21.8607
-16.4883
-11.0618
-5.70204
-0.575245
4.15396
8.36682
12.0057
15.0597
17.54
19.4669
20.8685
21.7874
22.2845
22.438
22.3375
22.0754
21.7392
21.4038
21.1271
20.9477
20.8833
20.9363
21.0994
21.3523
21.6759
22.0497
22.4529
22.867
23.2771
23.6723
24.0452
24.3919
24.7108
25.0019
25.2663
25.5055
25.721
25.9146
26.0879
26.2423
26.3798
26.5019
26.6107
26.7079
26.7952
26.874
26.9451
27.0086
27.0634
27.1065
27.1311
27.1238
27.0624
26.9169
26.6232
25.9672
24.3494
20.853
15.2705
8.68065
2.28295
-3.19184
-7.30103
-9.82038
-10.6649
-9.8863
-7.38718
-3.24967
2.27403
8.48732
14.3549
19.0648
22.3866
24.5339
25.8534
26.6339
27.0721
-3.5214
-4.47575
-6.50878
-8.78145
-11.2399
-14.0434
-17.2727
-20.9781
-25.2225
-30.0799
-35.6167
-41.8677
-48.8136
-56.3661
-64.3603
-72.5603
-80.674
-88.3751
-95.3356
-101.267
-105.965
-109.345
-111.402
-112.127
-111.43
-109.276
-105.671
-100.633
-94.2354
-86.6184
-78.0418
-68.9504
-59.8964
-51.3224
-43.4054
-36.1
-29.3011
-22.9685
-17.1455
-11.9067
-7.30038
-3.3265
0.0543661
2.9008
5.27356
7.22625
8.80172
10.0315
10.9362
11.5251
11.7945
11.7271
11.2966
10.4866
9.3288
7.9442
6.55011
5.40981
4.75093
4.67465
5.18849
6.19296
7.44946
8.66627
9.57903
10.0346
9.94082
9.13004
7.32925
4.32818
0.175155
-4.80044
-10.1503
-15.5966
-21.061
-26.5785
-32.2212
-38.0484
-44.0758
-50.2589
-56.4871
-62.5909
-68.3641
-73.5968
-78.1017
-81.7227
-84.3318
-85.8226
-86.1464
-85.3182
-83.3206
-80.262
-76.2839
-71.5771
-66.3637
-60.8689
-55.2969
-49.8002
-44.4544
-39.2528
-34.1301
-29.0021
-23.8065
-18.5338
-13.2453
-8.06949
-3.16903
1.31001
5.27468
8.6873
11.5427
13.8473
15.6136
16.8681
17.6589
18.0578
18.1555
18.0523
17.848
17.6328
17.4803
17.4423
17.5476
17.7995
18.1835
18.6725
19.237
19.8514
20.4896
21.1283
21.7496
22.34
22.8904
23.3957
23.8538
24.2653
24.6323
24.958
25.2458
25.4996
25.7227
25.9183
26.0896
26.2393
26.3699
26.4839
26.5834
26.6702
26.7457
26.8105
26.8642
26.9053
26.9298
26.9301
26.8915
26.7903
26.5937
26.2402
25.5499
24.0324
20.8956
15.8559
9.73384
3.63121
-1.67586
-5.70352
-8.19797
-9.0544
-8.30953
-5.87746
-1.86944
3.41199
9.25588
14.6973
19.0388
22.1207
24.155
25.4468
26.2441
26.7144
-1.25969
-1.62823
-3.24647
-5.58244
-8.09879
-10.8331
-13.888
-17.3147
-21.1735
-25.5406
-30.4869
-36.0594
-42.2627
-49.0424
-56.2746
-63.767
-71.2705
-78.4985
-85.1547
-90.9634
-95.7014
-99.2225
-101.438
-102.29
-101.718
-99.7378
-96.3782
-91.6805
-85.7425
-78.7304
-70.9322
-62.7875
-54.7717
-47.1992
-40.1395
-33.51
-27.2289
-21.3007
-15.8051
-10.834
-6.4404
-2.6252
0.648531
3.43478
5.78897
7.76001
9.38743
10.7012
11.7221
12.4619
12.9222
13.0928
12.9529
12.4822
11.6909
10.6612
9.56818
8.64467
8.10013
8.03423
8.43229
9.18328
10.0476
10.7764
11.1787
11.156
10.6245
9.4071
7.24414
3.95641
-0.383336
-5.45113
-10.8508
-16.3387
-21.8488
-27.4199
-33.1252
-39.0232
-45.1262
-51.383
-57.6752
-63.8267
-69.6287
-74.8725
-79.3738
-82.9792
-85.5654
-87.0352
-87.3408
-86.4836
-84.467
-81.4001
-77.4217
-72.7249
-67.5334
-62.0748
-56.5536
-51.1203
-45.8455
-40.7173
-35.668
-30.6179
-25.5154
-20.3675
-15.2535
-10.3125
-5.69963
-1.53575
2.11588
5.23474
7.81563
9.85667
11.3665
12.3775
12.9525
13.1814
13.1702
13.0305
12.8687
12.7773
12.8284
13.068
13.5153
14.1533
14.944
15.8388
16.7946
17.7711
18.7332
19.655
20.5197
21.3173
22.0427
22.6947
23.2749
23.787
24.2362
24.6281
24.9687
25.2639
25.5192
25.7396
25.9294
26.0926
26.2327
26.3527
26.4551
26.5418
26.6142
26.6728
26.7171
26.7449
26.7515
26.7287
26.6612
26.5242
26.2838
25.8828
25.1753
23.7767
21.0247
16.5841
11.0277
5.31925
0.247027
-3.66335
-6.11927
-6.98892
-6.28962
-3.9499
-0.117822
4.84927
10.2404
15.1869
19.118
21.9376
23.844
25.0951
25.8971
26.3889
-0.758778
-0.736174
-1.23519
-2.9098
-5.29376
-7.89159
-10.6278
-13.5736
-16.8147
-20.4415
-24.5387
-29.1699
-34.3632
-40.0969
-46.2883
-52.7912
-59.4027
-65.8779
-71.952
-77.3639
-81.8809
-85.3229
-87.5649
-88.5386
-88.1951
-86.5495
-83.6358
-79.5202
-74.3216
-68.2362
-61.5788
-54.7507
-48.0911
-41.7435
-35.6735
-29.7967
-24.094
-18.6411
-13.5589
-8.94834
-4.85613
-1.27723
1.82495
4.49889
6.79266
8.7483
10.4003
11.7756
12.8941
13.7689
14.4057
14.8016
14.9454
14.8219
14.4303
13.8178
13.1053
12.4729
12.0937
12.0551
12.3294
12.8096
13.2842
13.562
13.5141
13.0728
12.15
10.5618
8.06314
4.50197
-0.0319338
-5.2226
-10.7085
-16.267
-21.8367
-27.4559
-33.1969
-39.1178
-45.2303
-51.4828
-57.7574
-63.8801
-69.6459
-74.8507
-79.3148
-82.8911
-85.4614
-86.9303
-87.2451
-86.3984
-84.4166
-81.4082
-77.5098
-72.9147
-67.8444
-62.5224
-57.1471
-51.8605
-46.7237
-41.7183
-36.7778
-31.8325
-26.8491
-21.8581
-16.9615
-12.3086
-8.04176
-4.2517
-0.973807
1.78126
4.0032
5.68464
6.83969
7.51812
7.80492
7.80897
7.6494
7.44466
7.30475
7.32445
7.57565
8.1029
8.91852
9.98455
11.2419
12.6172
14.0418
15.452
16.7993
18.0533
19.1986
20.2301
21.1489
21.9602
22.6711
23.2899
23.8255
24.2868
24.6828
25.0216
25.3108