/*--------------------------------*- C++ -*----------------------------------*\
  =========                 |
  \\      /  F ield         | OpenFOAM: The Open Source CFD Toolbox
   \\    /   O peration     | Website:  https://openfoam.org
    \\  /    A nd           | Version:  9
     \\/     M anipulation  |
\*---------------------------------------------------------------------------*/
FoamFile
{
    format      ascii;
    class       surfaceScalarField;
    location    "0.11";
    object      phi;
}
// * * * * * * * * * * * * * * * * * * * * * * * * * * * * * * * * * * * * * //

dimensions      [0 3 -1 0 0 0 0];

internalField   nonuniform List<scalar> 
24170
(
3.05298e-06
1.35424e-07
2.89737e-06
1.55608e-07
2.75501e-06
1.42367e-07
2.62356e-06
1.31446e-07
2.50303e-06
1.20527e-07
2.39535e-06
1.07681e-07
2.30144e-06
9.39177e-08
2.22135e-06
8.0085e-08
2.15486e-06
6.64898e-08
2.10158e-06
5.32823e-08
2.061e-06
4.0581e-08
2.03252e-06
2.8481e-08
2.01549e-06
1.70226e-08
2.00898e-06
6.5122e-09
2.01192e-06
-2.94198e-09
2.02284e-06
-1.09175e-08
2.04185e-06
-1.90134e-08
-1.19396e-08
2.05379e-06
3.49115e-06
6.15241e-08
3.53986e-06
1.06895e-07
3.57259e-06
1.09643e-07
3.59122e-06
1.1281e-07
3.59813e-06
1.13619e-07
3.59651e-06
1.09297e-07
3.58917e-06
1.01261e-07
3.57836e-06
9.08939e-08
3.56597e-06
7.88791e-08
3.55356e-06
6.56936e-08
3.54236e-06
5.17794e-08
3.53332e-06
3.75216e-08
3.52715e-06
2.31991e-08
3.52443e-06
9.22737e-09
3.52564e-06
-4.14965e-09
3.53162e-06
-1.68983e-08
3.54207e-06
-2.94606e-08
-4.07888e-08
3.57092e-06
3.67784e-06
4.62005e-08
3.6955e-06
8.92302e-08
3.71391e-06
9.12336e-08
3.73441e-06
9.23185e-08
3.75525e-06
9.27783e-08
3.77526e-06
8.92844e-08
3.79395e-06
8.25748e-08
3.81104e-06
7.37972e-08
3.82647e-06
6.3454e-08
3.84033e-06
5.183e-08
3.85288e-06
3.92324e-08
3.86446e-06
2.59396e-08
3.87549e-06
1.21675e-08
3.88668e-06
-1.95956e-09
3.89895e-06
-1.64199e-08
3.91376e-06
-3.17058e-08
3.93318e-06
-4.88804e-08
-7.17672e-08
3.96415e-06
3.93412e-06
3.747e-08
3.94574e-06
7.76093e-08
3.95473e-06
8.22432e-08
3.96474e-06
8.23099e-08
3.97578e-06
8.17344e-08
3.9874e-06
7.767e-08
3.99956e-06
7.04108e-08
4.01223e-06
6.11318e-08
4.02526e-06
5.04251e-08
4.03854e-06
3.85439e-08
4.05206e-06
2.57089e-08
4.06589e-06
1.21171e-08
4.08018e-06
-2.12642e-09
4.09539e-06
-1.71639e-08
4.11206e-06
-3.30985e-08
4.13112e-06
-5.0765e-08
4.15401e-06
-7.17659e-08
-1.00413e-07
4.18265e-06
4.21439e-06
3.0209e-08
4.22545e-06
6.65467e-08
4.23394e-06
7.37498e-08
4.24272e-06
7.35293e-08
4.25232e-06
7.21402e-08
4.26231e-06
6.76783e-08
4.27271e-06
6.00068e-08
4.28365e-06
5.02008e-08
4.29513e-06
3.89364e-08
4.30719e-06
2.64829e-08
4.31989e-06
1.30142e-08
4.33336e-06
-1.35274e-09
4.34775e-06
-1.65139e-08
4.3633e-06
-3.27133e-08
4.38044e-06
-5.02445e-08
4.39974e-06
-7.00631e-08
4.42174e-06
-9.37645e-08
-1.24933e-07
4.44626e-06
4.51505e-06
2.42477e-08
4.52532e-06
5.62763e-08
4.5342e-06
6.48696e-08
4.54322e-06
6.45069e-08
4.5531e-06
6.22611e-08
4.56345e-06
5.73296e-08
4.57415e-06
4.9305e-08
4.5853e-06
3.90541e-08
4.59696e-06
2.72788e-08
4.60917e-06
1.42648e-08
4.62202e-06
1.67156e-10
4.63562e-06
-1.49519e-08
4.65014e-06
-3.10367e-08
4.66577e-06
-4.83454e-08
4.6828e-06
-6.72733e-08
4.70144e-06
-8.86967e-08
4.7216e-06
-1.13924e-07
-1.45499e-07
4.74216e-06
4.83759e-06
1.93768e-08
4.84706e-06
4.68098e-08
4.85622e-06
5.57023e-08
4.86547e-06
5.52606e-08
4.87554e-06
5.21889e-08
4.8862e-06
4.66693e-08
4.89726e-06
3.82436e-08
4.90877e-06
2.75452e-08
4.9208e-06
1.52554e-08
4.93338e-06
1.68517e-09
4.94658e-06
-1.30349e-08
4.96048e-06
-2.88553e-08
4.97523e-06
-4.5781e-08
4.99092e-06
-6.40367e-08
5.00766e-06
-8.40138e-08
5.02537e-06
-1.0641e-07
5.04356e-06
-1.32111e-07
-1.62577e-07
5.06064e-06
5.18362e-06
1.53371e-08
5.19231e-06
3.81199e-08
5.20155e-06
4.64602e-08
5.21095e-06
4.58617e-08
5.22114e-06
4.19999e-08
5.23203e-06
3.57789e-08
5.2434e-06
2.68707e-08
5.25524e-06
1.57047e-08
5.2676e-06
2.89703e-09
5.28051e-06
-1.12227e-08
5.29401e-06
-2.65311e-08
5.30814e-06
-4.29871e-08
5.32297e-06
-6.0617e-08
5.33853e-06
-7.95958e-08
5.35475e-06
-1.00234e-07
5.37134e-06
-1.22999e-07
5.38759e-06
-1.48362e-07
-1.76952e-07
5.40197e-06
5.55475e-06
1.19208e-08
5.56269e-06
3.01806e-08
5.57184e-06
3.7315e-08
5.58135e-06
3.63495e-08
5.59164e-06
3.17131e-08
5.6027e-06
2.47196e-08
5.61431e-06
1.52598e-08
5.6264e-06
3.61449e-09
5.63899e-06
-9.69412e-09
5.6521e-06
-2.43344e-08
5.66574e-06
-4.01743e-08
5.67993e-06
-5.71706e-08
5.69465e-06
-7.53396e-08
5.70985e-06
-9.47913e-08
5.72533e-06
-1.15715e-07
5.74068e-06
-1.38349e-07
5.75513e-06
-1.62821e-07
-1.8919e-07
5.76737e-06
5.95272e-06
8.97865e-09
5.95996e-06
2.29374e-08
5.96889e-06
2.83861e-08
5.97845e-06
2.6785e-08
5.9888e-06
2.13689e-08
5.99994e-06
1.35736e-08
6.01169e-06
3.51052e-09
6.02393e-06
-8.62369e-09
6.03665e-06
-2.24082e-08
6.04984e-06
-3.75232e-08
6.06348e-06
-5.38194e-08
6.07755e-06
-7.12372e-08
6.09197e-06
-8.97629e-08
6.10661e-06
-1.09431e-07
6.1212e-06
-1.30305e-07
6.13528e-06
-1.52425e-07
6.14814e-06
-1.75685e-07
-1.9982e-07
6.15877e-06
6.37939e-06
6.40338e-09
6.386e-06
1.6321e-08
6.39463e-06
1.97613e-08
6.40416e-06
1.72569e-08
6.4145e-06
1.10302e-08
6.42564e-06
2.42728e-09
6.43742e-06
-8.27175e-09
6.4497e-06
-2.08993e-08
6.46241e-06
-3.51237e-08
6.47554e-06
-5.06474e-08
6.48902e-06
-6.73025e-08
6.50279e-06
-8.50023e-08
6.51672e-06
-1.03693e-07
6.53062e-06
-1.23335e-07
6.5442e-06
-1.43881e-07
6.557e-06
-1.65227e-07
6.56845e-06
-1.87133e-07
-2.09185e-07
6.57781e-06
5.7428e-06
4.44263e-09
5.74795e-06
1.11644e-08
5.75495e-06
1.27607e-08
5.7629e-06
9.31061e-09
5.77157e-06
2.3586e-09
5.78092e-06
-6.92066e-09
5.79081e-06
-1.81629e-08
5.80111e-06
-3.12002e-08
5.81174e-06
-4.57581e-08
5.82266e-06
-6.15624e-08
5.83379e-06
-7.84322e-08
5.84504e-06
-9.62553e-08
5.85629e-06
-1.14941e-07
5.86735e-06
-1.34397e-07
5.87797e-06
-1.54501e-07
5.88782e-06
-1.75071e-07
5.8965e-06
-1.95812e-07
-2.16272e-07
5.90358e-06
7.00019e-06
2.40304e-09
7.00566e-06
5.70051e-09
7.01331e-06
5.11256e-09
7.0222e-06
4.19849e-10
7.03197e-06
-7.41746e-09
7.04251e-06
-1.74606e-08
7.05366e-06
-2.93126e-08
7.06526e-06
-4.2795e-08
7.07718e-06
-5.76802e-08
7.08934e-06
-7.37215e-08
7.10164e-06
-9.07276e-08
7.11394e-06
-1.08558e-07
7.12608e-06
-1.27083e-07
7.13785e-06
-1.46162e-07
7.14896e-06
-1.65619e-07
7.15911e-06
-1.85219e-07
7.16796e-06
-2.04656e-07
-2.23504e-07
7.17519e-06
8.53294e-06
3.12858e-10
8.53862e-06
1.62272e-11
8.54679e-06
-3.0582e-09
8.55651e-06
-9.29743e-09
8.56729e-06
-1.81959e-08
8.57891e-06
-2.9082e-08
8.59118e-06
-4.15841e-08
8.6039e-06
-5.55168e-08
8.61691e-06
-7.06866e-08
8.63006e-06
-8.68747e-08
8.64322e-06
-1.03885e-07
8.65621e-06
-1.21551e-07
8.66884e-06
-1.39713e-07
8.68087e-06
-1.58194e-07
8.69204e-06
-1.76787e-07
8.70207e-06
-1.95247e-07
8.7107e-06
-2.1329e-07
-2.30566e-07
8.71777e-06
1.04014e-05
-1.82403e-09
1.04071e-05
-5.76348e-09
1.04156e-05
-1.15534e-08
1.04259e-05
-1.9598e-08
1.04375e-05
-2.97186e-08
1.04499e-05
-4.15013e-08
1.04629e-05
-5.46484e-08
1.04764e-05
-6.89836e-08
1.04901e-05
-8.4339e-08
1.05037e-05
-1.00523e-07
1.05172e-05
-1.17342e-07
1.05302e-05
-1.34617e-07
1.05427e-05
-1.5217e-07
1.05543e-05
-1.6981e-07
1.05648e-05
-1.87328e-07
1.05741e-05
-2.04499e-07
1.05819e-05
-2.21089e-07
-2.36839e-07
1.05882e-05
1.26789e-05
-3.92785e-09
1.26846e-05
-1.14922e-08
1.26932e-05
-2.00966e-08
1.27037e-05
-3.01029e-08
1.27155e-05
-4.15375e-08
1.27282e-05
-5.42066e-08
1.27415e-05
-6.79159e-08
1.2755e-05
-8.25214e-08
1.27685e-05
-9.78813e-08
1.27819e-05
-1.13831e-07
1.27947e-05
-1.30194e-07
1.28069e-05
-1.46794e-07
1.28182e-05
-1.63453e-07
1.28283e-05
-1.7999e-07
1.28372e-05
-1.96217e-07
1.28447e-05
-2.11949e-07
1.28506e-05
-2.27005e-07
-2.41221e-07
1.2855e-05
1.54552e-05
-5.9215e-09
1.54607e-05
-1.69706e-08
1.54689e-05
-2.83181e-08
1.5479e-05
-4.02679e-08
1.54905e-05
-5.29645e-08
1.55026e-05
-6.63859e-08
1.55152e-05
-8.04527e-08
1.55277e-05
-9.50754e-08
1.554e-05
-1.10148e-07
1.55517e-05
-1.25538e-07
1.55626e-05
-1.41099e-07
1.55725e-05
-1.56675e-07
1.55812e-05
-1.7211e-07
1.55884e-05
-1.87247e-07
1.55941e-05
-2.01935e-07
1.55982e-05
-2.16031e-07
1.56006e-05
-2.294e-07
-2.41954e-07
1.56013e-05
1.88394e-05
-7.71215e-09
1.88444e-05
-2.19535e-08
1.88519e-05
-3.57787e-08
1.8861e-05
-4.94194e-08
1.88712e-05
-6.30966e-08
1.88817e-05
-7.69326e-08
1.88922e-05
-9.09678e-08
1.89023e-05
-1.05185e-07
1.89117e-05
-1.19526e-07
1.89201e-05
-1.33905e-07
1.89272e-05
-1.48214e-07
1.89328e-05
-1.62335e-07
1.89369e-05
-1.76145e-07
1.89392e-05
-1.89523e-07
1.89396e-05
-2.02353e-07
1.89381e-05
-2.14534e-07
1.89346e-05
-2.25965e-07
-2.36615e-07
1.89293e-05
2.29648e-05
-9.16785e-09
2.29691e-05
-2.62189e-08
2.29753e-05
-4.20529e-08
2.29827e-05
-5.68359e-08
2.29905e-05
-7.0885e-08
2.29981e-05
-8.44959e-08
2.3005e-05
-9.78475e-08
2.30108e-05
-1.11005e-07
2.30152e-05
-1.23969e-07
2.30181e-05
-1.36714e-07
2.3019e-05
-1.49187e-07
2.3018e-05
-1.61315e-07
2.30149e-05
-1.73014e-07
2.30095e-05
-1.84197e-07
2.3002e-05
-1.94784e-07
2.29921e-05
-2.04704e-07
2.29801e-05
-2.13884e-07
-2.22326e-07
2.29658e-05
1.68116e-05
-1.00416e-08
1.68141e-05
-2.8775e-08
1.68177e-05
-4.55903e-08
1.68215e-05
-6.06197e-08
1.68249e-05
-7.43526e-08
1.68277e-05
-8.72879e-08
1.68296e-05
-9.97098e-08
1.68303e-05
-1.11725e-07
1.68297e-05
-1.23377e-07
1.68277e-05
-1.34685e-07
1.68241e-05
-1.45635e-07
1.6819e-05
-1.56184e-07
1.68123e-05
-1.66271e-07
1.68039e-05
-1.7583e-07
1.67939e-05
-1.84798e-07
1.67823e-05
-1.9312e-07
1.67692e-05
-2.00733e-07
-2.07645e-07
1.67545e-05
1.46354e-05
-1.08788e-08
1.46377e-05
-3.10989e-08
1.46407e-05
-4.85266e-08
1.46434e-05
-6.33236e-08
1.46453e-05
-7.63319e-08
1.46464e-05
-8.8318e-08
1.46463e-05
-9.96273e-08
1.4645e-05
-1.1038e-07
1.46422e-05
-1.20667e-07
1.46381e-05
-1.30559e-07
1.46326e-05
-1.40075e-07
1.46256e-05
-1.49186e-07
1.46171e-05
-1.57848e-07
1.46073e-05
-1.66007e-07
1.45961e-05
-1.73612e-07
1.45836e-05
-1.80614e-07
1.45698e-05
-1.86962e-07
-1.92665e-07
1.45549e-05
1.27411e-05
-1.18769e-08
1.27437e-05
-3.37123e-08
1.27467e-05
-5.14804e-08
1.2749e-05
-6.5585e-08
1.27502e-05
-7.75607e-08
1.27503e-05
-8.84633e-08
1.27493e-05
-9.85831e-08
1.27469e-05
-1.08021e-07
1.27432e-05
-1.16936e-07
1.27381e-05
-1.25458e-07
1.27317e-05
-1.33628e-07
1.27239e-05
-1.41431e-07
1.27149e-05
-1.48829e-07
1.27047e-05
-1.55782e-07
1.26933e-05
-1.62242e-07
1.26808e-05
-1.68161e-07
1.26673e-05
-1.7348e-07
-1.78194e-07
1.26529e-05
1.10923e-05
-1.32173e-08
1.10956e-05
-3.70208e-08
1.10989e-05
-5.48225e-08
1.11011e-05
-6.77351e-08
1.11019e-05
-7.84401e-08
1.11017e-05
-8.81904e-08
1.11002e-05
-9.70859e-08
1.10974e-05
-1.05216e-07
1.10933e-05
-1.12822e-07
1.10879e-05
-1.20073e-07
1.10813e-05
-1.27015e-07
1.10735e-05
-1.3364e-07
1.10646e-05
-1.39925e-07
1.10546e-05
-1.45836e-07
1.10437e-05
-1.51332e-07
1.10319e-05
-1.56366e-07
1.10193e-05
-1.60888e-07
-1.64903e-07
1.1006e-05
9.65713e-06
-1.51351e-08
9.66142e-06
-4.13041e-08
9.66521e-06
-5.86187e-08
9.6674e-06
-6.99223e-08
9.66826e-06
-7.93045e-08
9.66793e-06
-8.78544e-08
9.66627e-06
-9.54329e-08
9.66328e-06
-1.02224e-07
9.65903e-06
-1.08571e-07
9.6536e-06
-1.14644e-07
9.64706e-06
-1.20475e-07
9.63948e-06
-1.26055e-07
9.63093e-06
-1.31372e-07
9.62149e-06
-1.36399e-07
9.61125e-06
-1.41094e-07
9.60029e-06
-1.45407e-07
9.58867e-06
-1.49269e-07
-1.52635e-07
9.57641e-06
8.4082e-06
-1.79863e-08
8.41376e-06
-4.68563e-08
8.41769e-06
-6.25538e-08
8.41974e-06
-7.1971e-08
8.42071e-06
-8.02733e-08
8.42056e-06
-8.77108e-08
8.41909e-06
-9.39595e-08
8.4163e-06
-9.94287e-08
8.41228e-06
-1.04554e-07
8.40713e-06
-1.0949e-07
8.40091e-06
-1.14256e-07
8.3937e-06
-1.18852e-07
8.38561e-06
-1.23276e-07
8.37671e-06
-1.27502e-07
8.36711e-06
-1.3149e-07
8.35688e-06
-1.35184e-07
8.34615e-06
-1.38539e-07
-1.41535e-07
8.33505e-06
7.32132e-06
-2.20191e-08
7.32867e-06
-5.42063e-08
7.33255e-06
-6.6437e-08
7.33421e-06
-7.36282e-08
7.3349e-06
-8.09613e-08
7.33447e-06
-8.72871e-08
7.33279e-06
-9.22815e-08
7.32996e-06
-9.65924e-08
7.32606e-06
-1.00661e-07
7.32117e-06
-1.04601e-07
7.31535e-06
-1.08436e-07
7.30869e-06
-1.12189e-07
7.30128e-06
-1.15869e-07
7.29324e-06
-1.1946e-07
7.28468e-06
-1.22928e-07
7.27571e-06
-1.26217e-07
7.26643e-06
-1.29256e-07
-1.31894e-07
7.25679e-06
6.375e-06
-2.69573e-08
6.38388e-06
-6.30862e-08
6.3882e-06
-7.07479e-08
6.39054e-06
-7.59701e-08
6.39197e-06
-8.23928e-08
6.39227e-06
-8.75907e-08
6.39156e-06
-9.15655e-08
6.39008e-06
-9.51211e-08
6.38802e-06
-9.85965e-08
6.38546e-06
-1.02038e-07
6.38249e-06
-1.0547e-07
6.37923e-06
-1.08924e-07
6.37577e-06
-1.12414e-07
6.37224e-06
-1.15929e-07
6.36875e-06
-1.19436e-07
6.36543e-06
-1.22902e-07
6.36242e-06
-1.26244e-07
-1.29361e-07
6.35989e-06
5.55388e-06
-3.53728e-08
5.56508e-06
-7.4287e-08
5.57451e-06
-8.01794e-08
5.58466e-06
-8.61178e-08
5.59524e-06
-9.29741e-08
5.60557e-06
-9.79232e-08
5.6155e-06
-1.01488e-07
5.62497e-06
-1.04598e-07
5.63393e-06
-1.07559e-07
5.64232e-06
-1.10419e-07
5.65007e-06
-1.13223e-07
5.65716e-06
-1.16018e-07
5.66357e-06
-1.18822e-07
5.66927e-06
-1.21624e-07
5.67422e-06
-1.24386e-07
5.67842e-06
-1.27101e-07
5.68187e-06
-1.29698e-07
-1.32489e-07
5.685e-06
4.88783e-06
-9.55929e-08
4.93376e-06
-1.20218e-07
4.97036e-06
-1.16777e-07
4.99854e-06
-1.14301e-07
5.01839e-06
-1.12823e-07
5.03078e-06
-1.10314e-07
5.0366e-06
-1.07307e-07
5.0365e-06
-1.04501e-07
5.03101e-06
-1.0207e-07
5.02058e-06
-9.9986e-08
5.00557e-06
-9.82163e-08
4.98629e-06
-9.6732e-08
4.96295e-06
-9.54899e-08
4.93577e-06
-9.4436e-08
4.90489e-06
-9.35085e-08
4.87047e-06
-9.26819e-08
4.83267e-06
-9.18947e-08
-9.13562e-08
4.79153e-06
4.10708e-06
3.98687e-06
3.87009e-06
3.75579e-06
3.64296e-06
3.53265e-06
3.42534e-06
3.32084e-06
3.21877e-06
3.11879e-06
3.02057e-06
2.92384e-06
2.82835e-06
2.73391e-06
2.6404e-06
2.54772e-06
2.45583e-06
2.36447e-06
6.56516e-08
-6.56516e-08
1.34888e-07
-6.92368e-08
2.29684e-07
-9.47955e-08
3.20873e-07
-9.11891e-08
3.72294e-07
-5.14206e-08
3.61187e-07
1.11065e-08
2.7436e-07
8.68269e-08
9.21042e-08
1.82256e-07
-1.90399e-07
2.82503e-07
-5.72765e-07
3.82366e-07
-1.04852e-06
4.75753e-07
-1.60446e-06
5.55941e-07
-2.22327e-06
6.18816e-07
-2.88512e-06
6.61844e-07
-3.56896e-06
6.83838e-07
-4.25393e-06
6.84978e-07
-4.92036e-06
6.66427e-07
-5.55049e-06
6.30126e-07
-6.12895e-06
5.78462e-07
-6.64289e-06
5.13942e-07
-7.0819e-06
4.3901e-07
-7.4379e-06
3.56002e-07
-7.70509e-06
2.67187e-07
-7.88012e-06
1.75025e-07
-7.96292e-06
8.28075e-08
-7.95952e-06
-3.40613e-09
-7.87778e-06
-8.17392e-08
-7.7247e-06
-1.5308e-07
-7.50579e-06
-2.18911e-07
-7.22576e-06
-2.80028e-07
-6.88915e-06
-3.36608e-07
-6.50056e-06
-3.88592e-07
-6.06468e-06
-4.35876e-07
-5.58626e-06
-4.78419e-07
-5.06998e-06
-5.16283e-07
-4.52034e-06
-5.49644e-07
-3.94155e-06
-5.78788e-07
-3.33747e-06
-6.04082e-07
-2.71152e-06
-6.25949e-07
-2.06672e-06
-6.44797e-07
-1.4055e-06
-6.61218e-07
-7.29259e-07
-6.76244e-07
-3.7238e-08
-6.92021e-07
6.69875e-07
-7.07113e-07
1.38857e-06
-7.18698e-07
2.11519e-06
-7.26614e-07
2.84584e-06
-7.30659e-07
3.57564e-06
-7.29796e-07
4.29507e-06
-7.19432e-07
4.97825e-06
-6.8318e-07
5.56079e-06
-5.82534e-07
5.93794e-06
-3.77152e-07
6.01939e-06
-8.14476e-08
5.79746e-06
2.21922e-07
5.34134e-06
4.56127e-07
4.7537e-06
5.87636e-07
4.14033e-06
6.13371e-07
3.58147e-06
5.58862e-07
3.11438e-06
4.67087e-07
2.7261e-06
3.88283e-07
2.37475e-06
3.5135e-07
2.02782e-06
3.46932e-07
1.69037e-06
3.37446e-07
1.41246e-06
2.77909e-07
1.27628e-06
1.36179e-07
1.31519e-06
-3.89099e-08
1.57435e-06
-2.59155e-07
2.00559e-06
-4.31243e-07
2.49245e-06
-4.86858e-07
2.90688e-06
-4.14431e-07
3.17553e-06
-2.68653e-07
3.30951e-06
-1.33978e-07
3.37389e-06
-6.43772e-08
3.42497e-06
-5.10803e-08
3.42705e-06
-2.0883e-09
3.24795e-06
1.79106e-07
2.70572e-06
5.42224e-07
1.71267e-06
9.93058e-07
3.17799e-07
1.39487e-06
-1.30438e-06
1.62218e-06
-2.96878e-06
1.6644e-06
-4.54997e-06
1.58119e-06
-5.97472e-06
1.42474e-06
-7.2083e-06
1.23358e-06
-8.24166e-06
1.03336e-06
-9.08076e-06
8.39093e-07
-9.73879e-06
6.58032e-07
-1.02314e-05
4.92574e-07
-1.05743e-05
3.42964e-07
-1.07832e-05
2.08916e-07
-1.08738e-05
9.05458e-08
-1.0868e-05
-5.74145e-09
-1.07834e-05
-8.463e-08
-1.0631e-05
-1.5246e-07
-1.0417e-05
-2.13928e-07
-1.01458e-05
-2.71219e-07
-9.82026e-06
-3.25546e-07
-9.44243e-06
-3.7783e-07
-9.01359e-06
-4.28844e-07
-8.53441e-06
-4.79179e-07
-8.00525e-06
-5.29161e-07
-7.42648e-06
-5.78767e-07
-6.79893e-06
-6.27553e-07
-6.12431e-06
-6.74621e-07
-5.40567e-06
-7.18635e-07
-4.64772e-06
-7.5795e-07
-3.85686e-06
-7.90863e-07
-3.04103e-06
-8.15825e-07
-2.20989e-06
-8.31141e-07
-1.37475e-06
-8.35144e-07
-5.46713e-07
-8.28037e-07
2.65642e-07
-8.12354e-07
1.04704e-06
-7.81395e-07
1.79047e-06
-7.43436e-07
2.48993e-06
-6.99455e-07
3.13982e-06
-6.49897e-07
3.73592e-06
-5.96095e-07
4.27523e-06
-5.39314e-07
4.75585e-06
-4.80614e-07
5.17679e-06
-4.20945e-07
5.5379e-06
-3.61109e-07
5.83908e-06
-3.01175e-07
6.0801e-06
-2.41024e-07
6.26243e-06
-1.82331e-07
6.37852e-06
-1.16089e-07
6.40246e-06
-2.39405e-08
6.29546e-06
1.07003e-07
6.0645e-06
2.30962e-07
5.71804e-06
3.46453e-07
5.2743e-06
4.43741e-07
4.76087e-06
5.1343e-07
4.21367e-06
5.47207e-07
3.6724e-06
5.41263e-07
3.17399e-06
4.98413e-07
2.74738e-06
4.26605e-07
2.40549e-06
3.41896e-07
2.14782e-06
2.57672e-07
1.96917e-06
1.78642e-07
1.85728e-06
1.11894e-07
1.79451e-06
6.2771e-08
1.76068e-06
3.3826e-08
1.73758e-06
2.31057e-08
1.7134e-06
2.41771e-08
1.68354e-06
2.98593e-08
1.64953e-06
3.40127e-08
1.61647e-06
3.30625e-08
1.59007e-06
2.63928e-08
1.57424e-06
1.58292e-08
1.57028e-06
3.96542e-09
1.57719e-06
-6.91613e-09
1.59541e-06
-1.82112e-08
1.62684e-06
-3.1438e-08
1.6753e-06
-4.84523e-08
1.7457e-06
-7.04055e-08
1.84412e-06
-9.84222e-08
1.98014e-06
-1.36014e-07
2.15871e-06
-1.7857e-07
2.35305e-06
-1.94343e-07
2.49414e-06
-1.41089e-07
2.51341e-06
-1.92707e-08
2.29102e-06
2.22394e-07
1.50316e-06
7.87853e-07
3.98263e-08
1.46334e-06
-1.74264e-06
1.78246e-06
-3.33497e-06
1.59233e-06
-4.49185e-06
1.15688e-06
-5.17176e-06
6.7991e-07
-5.40927e-06
2.37511e-07
-5.29736e-06
-1.11906e-07
-4.90169e-06
-3.95674e-07
-4.25568e-06
-6.4601e-07
-3.39148e-06
-8.64204e-07
-2.36144e-06
-1.03004e-06
-1.24483e-06
-1.11661e-06
-1.29977e-07
-1.11485e-06
9.02539e-07
-1.03252e-06
1.78577e-06
-8.83233e-07
2.4999e-06
-7.14126e-07
3.0153e-06
-5.15407e-07
-2.60653e-07
3.27596e-06
-1.12676e-07
4.70244e-08
-2.23025e-07
4.11126e-08
-3.74457e-07
5.66363e-08
-6.02262e-07
1.36616e-07
-9.14816e-07
2.61133e-07
-1.31582e-06
4.12113e-07
-1.80396e-06
5.74968e-07
-2.36016e-06
7.38455e-07
-2.96912e-06
8.91461e-07
-3.61128e-06
1.02452e-06
-4.26524e-06
1.12972e-06
-4.91112e-06
1.20182e-06
-5.53075e-06
1.23844e-06
-6.10878e-06
1.23988e-06
-6.63357e-06
1.20862e-06
-7.09728e-06
1.14869e-06
-7.49583e-06
1.06497e-06
-7.82824e-06
9.62538e-07
-8.09598e-06
8.46208e-07
-8.30228e-06
7.20242e-07
-8.45145e-06
5.8817e-07
-8.54822e-06
4.5278e-07
-8.59731e-06
3.16278e-07
-8.60261e-06
1.8032e-07
-8.56723e-06
4.74296e-08
-8.48382e-06
-8.68124e-08
-8.34739e-06
-2.18172e-07
-8.15364e-06
-3.46829e-07
-7.90208e-06
-4.70474e-07
-7.59468e-06
-5.87432e-07
-7.23482e-06
-6.96464e-07
-6.82675e-06
-7.96666e-07
-6.37516e-06
-8.87465e-07
-5.88496e-06
-9.68622e-07
-5.36101e-06
-1.04023e-06
-4.80798e-06
-1.10268e-06
-4.23012e-06
-1.15664e-06
-3.63121e-06
-1.203e-06
-3.01441e-06
-1.24275e-06
-2.38217e-06
-1.27704e-06
-1.73623e-06
-1.30716e-06
-1.07793e-06
-1.33454e-06
-4.08917e-07
-1.36103e-06
2.71181e-07
-1.38721e-06
9.62676e-07
-1.41019e-06
1.66313e-06
-1.42707e-06
2.36761e-06
-1.43514e-06
3.06794e-06
-1.43013e-06
3.7545e-06
-1.40599e-06
4.42568e-06
-1.35436e-06
5.10539e-06
-1.26224e-06
5.83427e-06
-1.10603e-06
6.60269e-06
-8.49864e-07
7.30257e-06
-4.77957e-07
7.79031e-06
-3.16202e-08
7.96688e-06
4.11073e-07
7.80146e-06
7.78784e-07
7.32847e-06
1.03186e-06
6.63207e-06
1.16348e-06
5.81965e-06
1.20071e-06
4.98726e-06
1.18374e-06
4.19928e-06
1.13492e-06
3.49593e-06
1.04079e-06
2.91953e-06
8.54315e-07
2.51662e-06
5.39083e-07
2.35666e-06
1.21052e-07
2.44028e-06
-3.42776e-07
2.74224e-06
-7.33195e-07
3.17739e-06
-9.22011e-07
3.62588e-06
-8.62921e-07
3.9902e-06
-6.32977e-07
4.22857e-06
-3.72347e-07
4.28515e-06
-1.20954e-07
3.99769e-06
2.36378e-07
3.104e-06
8.91607e-07
1.51562e-06
1.76748e-06
-5.34741e-07
2.59258e-06
-2.65705e-06
3.11537e-06
-4.58116e-06
3.31898e-06
-6.20462e-06
3.24564e-06
-7.51143e-06
2.97121e-06
-8.51797e-06
2.58772e-06
-9.26347e-06
2.17025e-06
-9.79807e-06
1.76818e-06
-1.01713e-05
1.40663e-06
-1.04255e-05
1.09322e-06
-1.05927e-05
8.25298e-07
-1.0696e-05
5.95812e-07
-1.075e-05
3.97014e-07
-1.07632e-05
2.22079e-07
-1.07381e-05
6.54724e-08
-1.06657e-05
-7.81397e-08
-1.05375e-05
-2.12859e-07
-1.03514e-05
-3.38535e-07
-1.01095e-05
-4.55806e-07
-9.81461e-06
-5.66134e-07
-9.46901e-06
-6.71147e-07
-9.07438e-06
-7.72457e-07
-8.63168e-06
-8.7155e-07
-8.14124e-06
-9.69613e-07
-7.60308e-06
-1.06732e-06
-7.0172e-06
-1.16465e-06
-6.38407e-06
-1.26069e-06
-5.7051e-06
-1.35359e-06
-4.98308e-06
-1.44065e-06
-4.22255e-06
-1.51848e-06
-3.42994e-06
-1.58347e-06
-2.61354e-06
-1.63223e-06
-1.7831e-06
-1.66158e-06
-9.48856e-07
-1.66939e-06
-1.2204e-07
-1.65485e-06
6.82616e-07
-1.61701e-06
1.45835e-06
-1.55713e-06
2.1967e-06
-1.48178e-06
2.89074e-06
-1.3935e-06
3.53551e-06
-1.29466e-06
4.1274e-06
-1.18799e-06
4.66409e-06
-1.07601e-06
5.14435e-06
-9.6088e-07
5.56785e-06
-8.44439e-07
5.93488e-06
-7.28141e-07
6.24675e-06
-6.13049e-07
6.50539e-06
-4.99661e-07
6.71071e-06
-3.87654e-07
6.87259e-06
-2.77963e-07
7.02023e-06
-1.71586e-07
7.17749e-06
-5.02514e-08
7.3319e-06
7.65502e-08
7.45284e-06
2.25518e-07
7.51401e-06
3.82569e-07
7.49455e-06
5.32888e-07
7.38483e-06
6.56929e-07
7.1892e-06
7.36891e-07
6.92443e-06
7.63189e-07
6.61605e-06
7.34981e-07
6.29198e-06
6.65962e-07
5.97462e-06
5.7504e-07
5.67626e-06
4.76997e-07
5.40217e-06
3.8598e-07
5.15216e-06
3.12786e-07
4.92362e-06
2.62368e-07
4.71341e-06
2.33312e-07
4.51805e-06
2.19543e-07
4.33425e-06
2.13659e-07
4.15919e-06
2.09072e-07
3.99078e-06
2.01468e-07
3.82783e-06
1.8934e-07
3.67018e-06
1.73488e-07
3.51873e-06
1.55415e-07
3.37602e-06
1.35785e-07
3.24464e-06
1.13177e-07
3.12809e-06
8.51102e-08
3.03102e-06
4.86173e-08
2.95923e-06
1.37874e-09
2.91896e-06
-5.8148e-08
2.92439e-06
-1.41442e-07
3.00075e-06
-2.54929e-07
3.14883e-06
-3.42428e-07
3.27166e-06
-2.63918e-07
3.09313e-06
1.59256e-07
2.16668e-06
1.14885e-06
2.92775e-07
2.66176e-06
-1.82247e-06
3.57858e-06
-3.44048e-06
3.40047e-06
-4.43918e-06
2.59103e-06
-4.96962e-06
1.68732e-06
-5.19999e-06
9.10279e-07
-5.22969e-06
2.67208e-07
-5.05486e-06
-2.86738e-07
-4.6386e-06
-8.11928e-07
-3.98358e-06
-1.30103e-06
-3.11633e-06
-1.73146e-06
-2.08898e-06
-2.05738e-06
-9.79175e-07
-2.22642e-06
1.3277e-07
-2.2268e-06
1.15235e-06
-2.05209e-06
2.03679e-06
-1.76768e-06
2.75906e-06
-1.43639e-06
3.31334e-06
-1.06969e-06
-6.55714e-07
3.7084e-06
-2.97922e-07
3.44946e-07
-6.27971e-07
3.71162e-07
-1.03134e-06
4.60006e-07
-1.51318e-06
6.18452e-07
-2.0559e-06
8.03861e-07
-2.64121e-06
9.97423e-07
-3.24983e-06
1.18358e-06
-3.8607e-06
1.34933e-06
-4.45458e-06
1.48534e-06
-5.01559e-06
1.58553e-06
-5.53296e-06
1.64709e-06
-6.00149e-06
1.67035e-06
-6.42104e-06
1.65799e-06
-6.79541e-06
1.61425e-06
-7.13073e-06
1.54394e-06
-7.43365e-06
1.45161e-06
-7.70976e-06
1.34108e-06
-7.96231e-06
1.21509e-06
-8.19157e-06
1.07548e-06
-8.39476e-06
9.23431e-07
-8.56649e-06
7.59893e-07
-8.69959e-06
5.85887e-07
-8.78612e-06
4.02803e-07
-8.81858e-06
2.1278e-07
-8.7895e-06
1.83495e-08
-8.69807e-06
-1.78241e-07
-8.54272e-06
-3.73521e-07
-8.32524e-06
-5.64307e-07
-8.04812e-06
-7.47602e-07
-7.71482e-06
-9.20723e-07
-7.32983e-06
-1.08146e-06
-6.89835e-06
-1.22815e-06
-6.42607e-06
-1.35974e-06
-5.91889e-06
-1.47581e-06
-5.38261e-06
-1.57651e-06
-4.82276e-06
-1.66253e-06
-4.24436e-06
-1.73504e-06
-3.65174e-06
-1.79561e-06
-3.0484e-06
-1.84609e-06
-2.43688e-06
-1.88855e-06
-1.81888e-06
-1.92516e-06
-1.19532e-06
-1.9581e-06
-5.66995e-07
-1.98936e-06
6.61417e-08
-2.02035e-06
7.05867e-07
-2.04992e-06
1.35335e-06
-2.07455e-06
2.00833e-06
-2.09012e-06
2.66824e-06
-2.09004e-06
3.32693e-06
-2.06468e-06
3.97464e-06
-2.00207e-06
4.60313e-06
-1.89074e-06
5.21919e-06
-1.72209e-06
5.85871e-06
-1.48938e-06
6.56213e-06
-1.18138e-06
7.30316e-06
-7.72651e-07
7.96537e-06
-2.51135e-07
8.40064e-06
3.43515e-07
8.50885e-06
9.23653e-07
8.2695e-06
1.40282e-06
7.73935e-06
1.73086e-06
7.02493e-06
1.89815e-06
6.243e-06
1.91685e-06
5.4899e-06
1.79389e-06
4.82407e-06
1.52015e-06
4.28035e-06
1.08281e-06
3.91063e-06
4.90774e-07
3.75478e-06
-1.86925e-07
3.81953e-06
-7.97947e-07
4.04297e-06
-1.14545e-06
4.29742e-06
-1.11737e-06
4.43917e-06
-7.74725e-07
4.29094e-06
-2.24124e-07
3.58446e-06
5.85532e-07
2.10276e-06
1.71808e-06
3.75469e-08
2.95682e-06
-2.14189e-06
3.94692e-06
-4.05271e-06
4.5034e-06
-5.56489e-06
4.62755e-06
-6.66609e-06
4.42017e-06
-7.42445e-06
4.00401e-06
-7.94452e-06
3.49127e-06
-8.32388e-06
2.96708e-06
-8.63336e-06
2.47974e-06
-8.91196e-06
2.04678e-06
-9.17238e-06
1.66704e-06
-9.41085e-06
1.33169e-06
-9.61646e-06
1.03092e-06
-9.77749e-06
7.56834e-07
-9.88442e-06
5.03947e-07
-9.93128e-06
2.68944e-07
-9.91587e-06
5.00621e-08
-9.83899e-06
-1.55021e-07
-9.7044e-06
-3.47454e-07
-9.51515e-06
-5.2778e-07
-9.27392e-06
-6.97041e-07
-8.98322e-06
-8.5683e-07
-8.64516e-06
-1.00921e-06
-8.26112e-06
-1.1565e-06
-7.8317e-06
-1.30097e-06
-7.35676e-06
-1.44454e-06
-6.83573e-06
-1.58836e-06
-6.26793e-06
-1.73245e-06
-5.65315e-06
-1.87547e-06
-4.99219e-06
-2.01455e-06
-4.28741e-06
-2.14544e-06
-3.54312e-06
-2.26277e-06
-2.76594e-06
-2.36064e-06
-1.9646e-06
-2.43357e-06
-1.14933e-06
-2.47686e-06
-3.31426e-07
-2.48729e-06
4.7499e-07
-2.46127e-06
1.25815e-06
-2.40017e-06
2.01078e-06
-2.30976e-06
2.72401e-06
-2.19501e-06
3.39111e-06
-2.0606e-06
4.0074e-06
-1.91095e-06
4.56968e-06
-1.75026e-06
5.07599e-06
-1.58232e-06
5.52548e-06
-1.41037e-06
5.91819e-06
-1.23715e-06
6.255e-06
-1.06496e-06
6.5376e-06
-8.95641e-07
6.76859e-06
-7.30651e-07
6.95126e-06
-5.70324e-07
7.08766e-06
-4.14367e-07
7.17906e-06
-2.62991e-07
7.24336e-06
-1.1455e-07
7.29107e-06
2.8838e-08
7.34521e-06
1.71386e-07
7.41538e-06
3.12393e-07
7.49909e-06
4.49176e-07
7.58118e-06
5.74839e-07
7.63997e-06
6.78108e-07
7.65588e-06
7.4728e-07
7.6162e-06
7.74659e-07
7.52045e-06
7.61712e-07
7.37779e-06
7.17696e-07
7.19983e-06
6.54962e-07
6.99859e-06
5.87219e-07
6.78476e-06
5.26615e-07
6.56661e-06
4.80515e-07
6.34954e-06
4.50384e-07
6.13612e-06
4.32963e-07
5.9269e-06
4.22876e-07
5.72111e-06
4.14866e-07
5.51734e-06
4.05232e-07
5.31428e-06
3.92409e-07
5.11116e-06
3.76598e-07
4.90805e-06
3.5853e-07
4.70568e-06
3.38156e-07
4.5052e-06
3.13659e-07
4.30874e-06
2.8157e-07
4.1187e-06
2.38652e-07
3.9357e-06
1.84377e-07
3.76293e-06
1.1463e-07
3.61773e-06
3.7523e-09
3.53172e-06
-1.68913e-07
3.49835e-06
-3.09058e-07
3.35418e-06
-1.1975e-07
2.7092e-06
8.04232e-07
1.20068e-06
2.65737e-06
-7.89313e-07
4.65175e-06
-2.35383e-06
5.1431e-06
-3.30856e-06
4.3552e-06
-3.91455e-06
3.19703e-06
-4.34869e-06
2.12145e-06
-4.62186e-06
1.18345e-06
-4.68877e-06
3.34114e-07
-4.52535e-06
-4.50152e-07
-4.12756e-06
-1.20972e-06
-3.50231e-06
-1.92629e-06
-2.67083e-06
-2.56294e-06
-1.68113e-06
-3.04708e-06
-6.06078e-07
-3.30146e-06
4.58015e-07
-3.29089e-06
1.43711e-06
-3.03119e-06
2.28442e-06
-2.61499e-06
2.9754e-06
-2.12737e-06
3.51429e-06
-1.60857e-06
-1.0637e-06
3.92227e-06
-4.2781e-07
7.72757e-07
-8.98975e-07
8.42326e-07
-1.42848e-06
9.8951e-07
-2.00129e-06
1.19126e-06
-2.5946e-06
1.39717e-06
-3.18713e-06
1.58995e-06
-3.76015e-06
1.75661e-06
-4.29983e-06
1.889e-06
-4.7983e-06
1.98381e-06
-5.25401e-06
2.04124e-06
-5.671e-06
2.06408e-06
-6.05708e-06
2.05643e-06
-6.42151e-06
2.02243e-06
-6.77257e-06
1.96531e-06
-7.11561e-06
1.88697e-06
-7.45192e-06
1.78793e-06
-7.77859e-06
1.66775e-06
-8.08913e-06
1.52563e-06
-8.37468e-06
1.36103e-06
-8.62532e-06
1.17407e-06
-8.83131e-06
9.65879e-07
-8.98405e-06
7.38628e-07
-9.07665e-06
4.95401e-07
-9.10397e-06
2.40105e-07
-9.0629e-06
-2.27251e-08
-8.95227e-06
-2.88866e-07
-8.77244e-06
-5.53352e-07
-8.52542e-06
-8.1133e-07
-8.21476e-06
-1.05826e-06
-7.84534e-06
-1.29014e-06
-7.42308e-06
-1.50372e-06
-6.95464e-06
-1.69658e-06
-6.44713e-06
-1.86726e-06
-5.90774e-06
-2.0152e-06
-5.34354e-06
-2.1407e-06
-4.76123e-06
-2.24484e-06
-4.1669e-06
-2.32937e-06
-3.56586e-06
-2.39664e-06
-2.96246e-06
-2.44949e-06
-2.35989e-06
-2.49113e-06
-1.76017e-06
-2.52488e-06
-1.16425e-06
-2.55402e-06
-5.72032e-07
-2.58158e-06
1.74958e-08
-2.60988e-06
6.06894e-07
-2.63932e-06
1.19926e-06
-2.66691e-06
1.79768e-06
-2.68854e-06
2.40511e-06
-2.69747e-06
3.02381e-06
-2.68338e-06
3.65365e-06
-2.63191e-06
4.28876e-06
-2.52585e-06
4.91621e-06
-2.34954e-06
5.52275e-06
-2.09593e-06
6.11058e-06
-1.76921e-06
6.71016e-06
-1.37223e-06
7.34523e-06
-8.86204e-07
7.9666e-06
-2.7785e-07
8.45154e-06
4.3871e-07
8.68223e-06
1.17213e-06
8.6096e-06
1.8035e-06
8.26384e-06
2.24391e-06
7.72855e-06
2.45214e-06
7.10061e-06
2.42182e-06
6.45916e-06
2.1616e-06
5.85823e-06
1.68373e-06
5.34375e-06
1.00525e-06
4.96994e-06
1.86892e-07
4.76874e-06
-5.96747e-07
4.68405e-06
-1.06076e-06
4.55536e-06
-9.88685e-07
4.13823e-06
-3.57597e-07
3.13022e-06
7.8389e-07
1.4053e-06
2.31045e-06
-7.10746e-07
3.83412e-06
-2.71029e-06
4.95636e-06
-4.29586e-06
5.5325e-06
-5.40653e-06
5.61407e-06
-6.11674e-06
5.33776e-06
-6.55439e-06
4.85783e-06
-6.85115e-06
4.30076e-06
-7.10727e-06
3.74739e-06
-7.375e-06
3.23481e-06
-7.66504e-06
2.76978e-06
-7.96384e-06
2.34558e-06
-8.24992e-06
1.95313e-06
-8.50359e-06
1.58536e-06
-8.71056e-06
1.23788e-06
-8.86213e-06
9.08396e-07
-8.95401e-06
5.95827e-07
-8.98466e-06
2.996e-07
-8.9552e-06
2.06037e-08
-8.8675e-06
-2.42719e-07
-8.72482e-06
-4.90138e-07
-8.53051e-06
-7.22092e-07
-8.28786e-06
-9.39691e-07
-7.99982e-06
-1.14486e-06
-7.66871e-06
-1.34033e-06
-7.29587e-06
-1.52933e-06
-6.88162e-06
-1.71523e-06
-6.42523e-06
-1.90093e-06
-5.92527e-06
-2.08832e-06
-5.38007e-06
-2.27766e-06
-4.78831e-06
-2.46722e-06
-4.14983e-06
-2.65303e-06
-3.4662e-06
-2.82907e-06
-2.74134e-06
-2.98763e-06
-1.98208e-06
-3.1199e-06
-1.19742e-06
-3.21823e-06
-3.9871e-07
-3.27556e-06
3.99038e-07
-3.28504e-06
1.1828e-06
-3.24503e-06
1.94293e-06
-3.1603e-06
2.6696e-06
-3.03643e-06
3.35455e-06
-2.87996e-06
3.99162e-06
-2.69767e-06
4.57653e-06
-2.49586e-06
5.10648e-06
-2.28021e-06