/*--------------------------------*- C++ -*----------------------------------*\
  =========                 |
  \\      /  F ield         | OpenFOAM: The Open Source CFD Toolbox
   \\    /   O peration     | Website:  https://openfoam.org
    \\  /    A nd           | Version:  9
     \\/     M anipulation  |
\*---------------------------------------------------------------------------*/
FoamFile
{
    format      ascii;
    class       volVectorField;
    location    "0.11";
    object      U;
}
// * * * * * * * * * * * * * * * * * * * * * * * * * * * * * * * * * * * * * //

dimensions      [0 1 -1 0 0 0 0];

internalField   nonuniform List<vector> 
12225
(
(9.77057 -0.0574728 0)
(9.32023 -0.0330439 0)
(8.87073 -0.00668957 0)
(8.43482 0.0117068 0)
(8.03286 0.0226664 0)
(7.6735 0.0274624 0)
(7.35758 0.0280356 0)
(7.08463 0.0259176 0)
(6.85449 0.0220251 0)
(6.66654 0.0169137 0)
(6.51944 0.0109681 0)
(6.41134 0.00446999 0)
(6.34023 -0.00245547 0)
(6.30441 -0.00947795 0)
(6.29943 -0.0161695 0)
(6.32335 -0.0213724 0)
(6.36642 -0.0297344 0)
(6.47328 -0.0181695 0)
(10.0973 0.0953002 0)
(10.2937 0.155655 0)
(10.4232 0.156398 0)
(10.4935 0.148889 0)
(10.5258 0.140794 0)
(10.5315 0.131215 0)
(10.5173 0.120462 0)
(10.4896 0.108999 0)
(10.4544 0.0969 0)
(10.417 0.0841332 0)
(10.3817 0.0707261 0)
(10.3515 0.0567692 0)
(10.3288 0.0422834 0)
(10.3155 0.0274028 0)
(10.313 0.0126665 0)
(10.3233 -0.00169989 0)
(10.3492 -0.0163798 0)
(10.4024 -0.0268877 0)
(10.009 0.0381227 0)
(10.0583 0.0490437 0)
(10.1151 0.0419415 0)
(10.1694 0.0435902 0)
(10.2244 0.0491306 0)
(10.2802 0.0526947 0)
(10.3338 0.0533578 0)
(10.383 0.0514977 0)
(10.4274 0.0472754 0)
(10.4673 0.0407848 0)
(10.5032 0.0322081 0)
(10.5359 0.0217742 0)
(10.5667 0.0097299 0)
(10.5966 -0.00376293 0)
(10.6278 -0.0186573 0)
(10.6646 -0.0348155 0)
(10.7103 -0.0534157 0)
(10.7764 -0.0748451 0)
(10.0048 0.0257895 0)
(10.0316 0.0499002 0)
(10.0629 0.0588256 0)
(10.089 0.0661443 0)
(10.1141 0.0710696 0)
(10.142 0.0716693 0)
(10.1726 0.0687325 0)
(10.2046 0.0634168 0)
(10.2374 0.0562084 0)
(10.2709 0.0472499 0)
(10.3051 0.0366465 0)
(10.3399 0.02444 0)
(10.3756 0.010721 0)
(10.413 -0.00450155 0)
(10.4533 -0.0219913 0)
(10.4985 -0.042461 0)
(10.5508 -0.0676744 0)
(10.6158 -0.103382 0)
(10.0037 0.0210531 0)
(10.0258 0.047202 0)
(10.0529 0.0552399 0)
(10.0756 0.0572339 0)
(10.0961 0.0574194 0)
(10.1184 0.0552274 0)
(10.1428 0.0506621 0)
(10.1684 0.0442542 0)
(10.1951 0.0362239 0)
(10.223 0.0265377 0)
(10.2523 0.0151601 0)
(10.2834 0.00201939 0)
(10.3164 -0.0130453 0)
(10.3519 -0.0301994 0)
(10.3905 -0.0500783 0)
(10.4335 -0.0738631 0)
(10.4819 -0.103919 0)
(10.5372 -0.146422 0)
(10.0028 0.0172289 0)
(10.0207 0.0403074 0)
(10.0447 0.0474693 0)
(10.0665 0.0487696 0)
(10.0868 0.0491329 0)
(10.1084 0.0477438 0)
(10.1317 0.0438235 0)
(10.1562 0.0376161 0)
(10.1815 0.0294141 0)
(10.2079 0.0192706 0)
(10.2356 0.00716089 0)
(10.2649 -0.00694223 0)
(10.296 -0.0232806 0)
(10.3293 -0.0422121 0)
(10.3654 -0.0643881 0)
(10.4047 -0.0911641 0)
(10.4475 -0.124868 0)
(10.493 -0.170287 0)
(10.0021 0.0138543 0)
(10.0166 0.0336184 0)
(10.0376 0.0409801 0)
(10.0585 0.0425521 0)
(10.0783 0.04251 0)
(10.0991 0.0403997 0)
(10.1215 0.0355161 0)
(10.145 0.0281337 0)
(10.1694 0.0186428 0)
(10.1948 0.00715172 0)
(10.2214 -0.00640048 0)
(10.2494 -0.0221014 0)
(10.279 -0.0401665 0)
(10.3104 -0.0610435 0)
(10.3438 -0.0854565 0)
(10.3794 -0.114692 0)
(10.4166 -0.150619 0)
(10.4536 -0.19649 0)
(10.0017 0.0110263 0)
(10.0134 0.0276668 0)
(10.0318 0.0347606 0)
(10.0514 0.0360472 0)
(10.0705 0.0350105 0)
(10.0903 0.0318629 0)
(10.1116 0.0261358 0)
(10.1342 0.0179902 0)
(10.1576 0.00773278 0)
(10.182 -0.00456105 0)
(10.2074 -0.0189825 0)
(10.234 -0.0357008 0)
(10.2619 -0.0549619 0)
(10.2912 -0.0772203 0)
(10.3219 -0.103164 0)
(10.3536 -0.13384 0)
(10.3855 -0.170552 0)
(10.4156 -0.215198 0)
(10.0013 0.00866384 0)
(10.011 0.0222609 0)
(10.027 0.0284914 0)
(10.0451 0.0292476 0)
(10.0633 0.0273115 0)
(10.0822 0.0232871 0)
(10.1024 0.0168461 0)
(10.1238 0.00798675 0)
(10.1462 -0.003092 0)
(10.1693 -0.0163278 0)
(10.1933 -0.0318094 0)
(10.2184 -0.0497092 0)
(10.2444 -0.0702742 0)
(10.2713 -0.0939015 0)
(10.299 -0.121153 0)
(10.3269 -0.152777 0)
(10.354 -0.189546 0)
(10.3785 -0.232329 0)
(10.0011 0.00665208 0)
(10.0091 0.0173161 0)
(10.023 0.0223042 0)
(10.0396 0.0223931 0)
(10.0567 0.0196155 0)
(10.0746 0.0146926 0)
(10.0937 0.00743157 0)
(10.1139 -0.00224324 0)
(10.1349 -0.0142032 0)
(10.1567 -0.028383 0)
(10.1792 -0.044855 0)
(10.2025 -0.0637801 0)
(10.2265 -0.0853849 0)
(10.2509 -0.10999 0)
(10.2755 -0.138008 0)
(10.2998 -0.169902 0)
(10.3226 -0.206024 0)
(10.3427 -0.24656 0)
(10.0009 0.00490206 0)
(10.0076 0.0127993 0)
(10.0197 0.0163192 0)
(10.0347 0.0155764 0)
(10.0507 0.0119258 0)
(10.0675 0.00606226 0)
(10.0854 -0.00207244 0)
(10.1042 -0.0125699 0)
(10.1239 -0.0253639 0)
(10.1442 -0.040406 0)
(10.1651 -0.0577577 0)
(10.1864 -0.07756 0)
(10.2082 -0.1 0)
(10.23 -0.125311 0)
(10.2517 -0.153746 0)
(10.2725 -0.185527 0)
(10.2917 -0.220708 0)
(10.3083 -0.259083 0)
(10.0007 0.00346087 0)
(10.0065 0.00895585 0)
(10.0171 0.0110014 0)
(10.0308 0.00935853 0)
(10.0456 0.00487285 0)
(10.0614 -0.00185617 0)
(10.078 -0.0107978 0)
(10.0956 -0.0220387 0)
(10.1139 -0.0355617 0)
(10.1327 -0.0513388 0)
(10.1519 -0.0694164 0)
(10.1714 -0.0899038 0)
(10.1911 -0.112937 0)
(10.2106 -0.138662 0)
(10.2296 -0.167202 0)
(10.2475 -0.198608 0)
(10.2638 -0.23276 0)
(10.2777 -0.269274 0)
(10.0006 0.00219217 0)
(10.0056 0.00546801 0)
(10.015 0.00597206 0)
(10.0272 0.00331345 0)
(10.041 -0.00203142 0)
(10.0555 -0.00960442 0)
(10.071 -0.0193362 0)
(10.0872 -0.0312972 0)
(10.1041 -0.0455 0)
(10.1214 -0.0619322 0)
(10.1389 -0.0806239 0)
(10.1565 -0.101648 0)
(10.174 -0.125089 0)
(10.1911 -0.151017 0)
(10.2076 -0.179457 0)
(10.2229 -0.210344 0)
(10.2366 -0.243469 0)
(10.2481 -0.278388 0)
(10.0005 0.000869541 0)
(10.0048 0.0017837 0)
(10.0128 0.000518171 0)
(10.0237 -0.0033852 0)
(10.036 -0.00974285 0)
(10.0492 -0.0182606 0)
(10.0632 -0.028866 0)
(10.0779 -0.0416095 0)
(10.093 -0.0565189 0)
(10.1084 -0.0735935 0)
(10.1238 -0.0928464 0)
(10.1392 -0.114311 0)
(10.1543 -0.138017 0)
(10.1688 -0.163964 0)
(10.1825 -0.192097 0)
(10.195 -0.222274 0)
(10.206 -0.254245 0)
(10.2153 -0.287585 0)
(10.0005 -0.000457185 0)
(10.004 -0.00199105 0)
(10.0108 -0.00521812 0)
(10.0201 -0.0105854 0)
(10.0308 -0.0181135 0)
(10.0424 -0.027665 0)
(10.0547 -0.0391942 0)
(10.0675 -0.0527383 0)
(10.0806 -0.0683289 0)
(10.0938 -0.0859702 0)
(10.1068 -0.105658 0)
(10.1196 -0.127388 0)
(10.132 -0.15114 0)
(10.1436 -0.176858 0)
(10.1543 -0.204434 0)
(10.1639 -0.233694 0)
(10.1722 -0.264395 0)
(10.1789 -0.296189 0)
(10.0004 -0.00176021 0)
(10.0033 -0.00576579 0)
(10.0088 -0.0110748 0)
(10.0165 -0.0180673 0)
(10.0255 -0.0268837 0)
(10.0353 -0.0375151 0)
(10.0456 -0.0499603 0)
(10.0562 -0.0642545 0)
(10.0669 -0.0804273 0)
(10.0775 -0.0984806 0)
(10.0879 -0.118395 0)
(10.0978 -0.140137 0)
(10.1071 -0.163649 0)
(10.1156 -0.188842 0)
(10.1232 -0.215588 0)
(10.1297 -0.243715 0)
(10.135 -0.273018 0)
(10.139 -0.303247 0)
(10.0003 -0.00303975 0)
(10.0025 -0.00946586 0)
(10.0069 -0.0168549 0)
(10.013 -0.0255125 0)
(10.0201 -0.035631 0)
(10.0279 -0.0472881 0)
(10.0359 -0.0605297 0)
(10.0441 -0.0753996 0)
(10.0522 -0.0919252 0)
(10.06 -0.110105 0)
(10.0673 -0.12991 0)
(10.0741 -0.15129 0)
(10.0801 -0.174169 0)
(10.0853 -0.198449 0)
(10.0895 -0.224004 0)
(10.0927 -0.250686 0)
(10.0949 -0.27833 0)
(10.0958 -0.306781 0)
(10.0002 -0.00422446 0)
(10.0019 -0.0129048 0)
(10.0051 -0.0222486 0)
(10.0096 -0.0324741 0)
(10.0149 -0.0437778 0)
(10.0205 -0.0562876 0)
(10.0261 -0.0700885 0)
(10.0316 -0.085238 0)
(10.0369 -0.101765 0)
(10.0416 -0.119667 0)
(10.0458 -0.138916 0)
(10.0492 -0.159457 0)
(10.0518 -0.181214 0)
(10.0535 -0.204093 0)
(10.0542 -0.227983 0)
(10.054 -0.252765 0)
(10.0527 -0.278302 0)
(10.0503 -0.30451 0)
(10.0001 -0.00527038 0)
(10.0013 -0.0159095 0)
(10.0035 -0.0268705 0)
(10.0066 -0.0382852 0)
(10.01 -0.0503478 0)
(10.0135 -0.0632301 0)
(10.0167 -0.0770566 0)
(10.0195 -0.0919023 0)
(10.0217 -0.107804 0)
(10.0234 -0.124767 0)
(10.0242 -0.142771 0)
(10.0242 -0.161769 0)
(10.0234 -0.181697 0)
(10.0215 -0.202472 0)
(10.0187 -0.224 0)
(10.015 -0.246185 0)
(10.0102 -0.26891 0)
(10.0044 -0.292135 0)
(10.0001 -0.00605136 0)
(10.0011 -0.0180954 0)
(10.0028 -0.0300727 0)
(10.0051 -0.0420431 0)
(10.0074 -0.0542303 0)
(10.0094 -0.0668738 0)
(10.0108 -0.0801427 0)
(10.0116 -0.0941322 0)
(10.0117 -0.108895 0)
(10.0109 -0.124456 0)
(10.0093 -0.140811 0)
(10.0067 -0.157926 0)
(10.0032 -0.175746 0)
(9.99871 -0.1942 0)
(9.99326 -0.213205 0)
(9.98684 -0.232677 0)
(9.97951 -0.252511 0)
(9.97115 -0.272676 0)
(10.0001 -0.00662624 0)
(10.0011 -0.0196506 0)
(10.0029 -0.0321751 0)
(10.005 -0.0442109 0)
(10.0068 -0.0560903 0)
(10.0079 -0.0681659 0)
(10.0082 -0.0806422 0)
(10.0078 -0.0936153 0)
(10.0064 -0.107152 0)
(10.0041 -0.121305 0)
(10.0008 -0.136094 0)
(9.99651 -0.151502 0)
(9.99125 -0.167484 0)
(9.98502 -0.183978 0)
(9.97785 -0.20091 0)
(9.96975 -0.2182 0)
(9.9608 -0.235747 0)
(9.95088 -0.25352 0)
(10.0002 -0.00723069 0)
(10.0015 -0.0212213 0)
(10.0037 -0.0341097 0)
(10.006 -0.0459098 0)
(10.0076 -0.057201 0)
(10.0082 -0.0685141 0)
(10.0078 -0.0800805 0)
(10.0065 -0.0919817 0)
(10.0041 -0.104291 0)
(10.0007 -0.117074 0)
(9.99618 -0.130361 0)
(9.9906 -0.144144 0)
(9.98402 -0.15839 0)
(9.97647 -0.17305 0)
(9.96799 -0.188061 0)
(9.95863 -0.203352 0)
(9.94847 -0.218828 0)
(9.93741 -0.23445 0)
(10.0003 -0.00799294 0)
(10.0022 -0.0230883 0)
(10.0053 -0.0361869 0)
(10.0083 -0.0475006 0)
(10.0099 -0.058015 0)
(10.0102 -0.0683995 0)
(10.0093 -0.0788718 0)
(10.0073 -0.0895501 0)
(10.0043 -0.100578 0)
(10 -0.112058 0)
(9.99459 -0.124016 0)
(9.98809 -0.136435 0)
(9.98056 -0.149275 0)
(9.97206 -0.162486 0)
(9.96265 -0.176005 0)
(9.9524 -0.189758 0)
(9.94142 -0.20365 0)
(9.92965 -0.217644 0)
(10.0004 -0.00905798 0)
(10.0034 -0.0254833 0)
(10.008 -0.0384511 0)
(10.0118 -0.048998 0)
(10.0136 -0.058826 0)
(10.0137 -0.0684964 0)
(10.0126 -0.077958 0)
(10.0102 -0.0873161 0)
(10.0065 -0.0968332 0)
(10.0015 -0.106702 0)
(9.99529 -0.116997 0)
(9.98796 -0.127731 0)
(9.9796 -0.138893 0)
(9.97028 -0.150451 0)
(9.96008 -0.162353 0)
(9.94908 -0.174526 0)
(9.9374 -0.186876 0)
(9.92495 -0.199342 0)
(10.0007 -0.0105851 0)
(10.0055 -0.0288031 0)
(10.0119 -0.0410105 0)
(10.0165 -0.0499359 0)
(10.0184 -0.0586874 0)
(10.0185 -0.0678296 0)
(10.0175 -0.0769525 0)
(10.015 -0.0859822 0)
(10.0111 -0.0951024 0)
(10.0056 -0.104448 0)
(9.99879 -0.114065 0)
(9.99079 -0.123974 0)
(9.98168 -0.134184 0)
(9.97156 -0.14469 0)
(9.96053 -0.15546 0)
(9.94872 -0.166437 0)
(9.93624 -0.177542 0)
(9.92317 -0.188725 0)
(10.0011 -0.0125237 0)
(10.0087 -0.033324 0)
(10.0179 -0.0452918 0)
(10.0233 -0.0523523 0)
(10.0246 -0.0584546 0)
(10.0241 -0.0645588 0)
(10.0225 -0.0707339 0)
(10.0196 -0.0772216 0)
(10.0151 -0.0842334 0)
(10.0091 -0.0918111 0)
(10.0017 -0.0999225 0)
(9.99317 -0.108538 0)
(9.98354 -0.117631 0)
(9.97296 -0.127164 0)
(9.96159 -0.137082 0)
(9.94956 -0.147306 0)
(9.93709 -0.157746 0)
(9.92408 -0.168239 0)
(10.0016 -0.0146768 0)
(10.0122 -0.0359796 0)
(10.0248 -0.0497459 0)
(10.032 -0.0613717 0)
(10.0344 -0.0716939 0)
(10.0349 -0.0799917 0)
(10.0344 -0.0867075 0)
(10.0329 -0.0927692 0)
(10.0301 -0.0987438 0)
(10.0264 -0.104856 0)
(10.022 -0.111228 0)
(10.0171 -0.117958 0)
(10.0118 -0.125119 0)
(10.0063 -0.132742 0)
(10.0007 -0.14083 0)
(9.9953 -0.149363 0)
(9.99035 -0.158281 0)
(9.9856 -0.167439 0)
(10.003 -0.0203183 0)
(10.0216 -0.0277568 0)
(10.0436 -0.0233073 0)
(10.0625 -0.0253089 0)
(10.0803 -0.0326451 0)
(10.0987 -0.0409966 0)
(10.1172 -0.0492433 0)
(10.1349 -0.05766 0)
(10.1516 -0.0663914 0)
(10.1672 -0.0754055 0)
(10.1818 -0.0847013 0)
(10.1952 -0.0943282 0)
(10.2074 -0.104336 0)
(10.2184 -0.114754 0)
(10.228 -0.125587 0)
(10.2363 -0.136853 0)
(10.2433 -0.148494 0)
(10.2486 -0.160657 0)
(10.0509 -0.0672098 0)
(10.1717 -0.119414 0)
(10.2657 -0.126085 0)
(10.331 -0.125279 0)
(10.3779 -0.125105 0)
(10.4108 -0.124911 0)
(10.4299 -0.124803 0)
(10.4358 -0.125336 0)
(10.4298 -0.126694 0)
(10.4132 -0.128823 0)
(10.3868 -0.131666 0)
(10.3512 -0.135188 0)
(10.3071 -0.139356 0)
(10.2547 -0.144121 0)
(10.1946 -0.14942 0)
(10.127 -0.155222 0)
(10.0522 -0.161419 0)
(9.97059 -0.168334 0)
(9.87536 0.0434891 0)
(9.62432 0.0235531 0)
(9.35652 0.00188825 0)
(9.07825 -0.0144064 0)
(8.80333 -0.0264788 0)
(8.53707 -0.0349655 0)
(8.27881 -0.0409546 0)
(8.02719 -0.0454638 0)
(7.78149 -0.0490924 0)
(7.54116 -0.0521566 0)
(7.30549 -0.0548534 0)
(7.07371 -0.0573172 0)
(6.84513 -0.059629 0)
(6.61925 -0.061829 0)
(6.39568 -0.0639238 0)
(6.17423 -0.0659241 0)
(5.9545 -0.0678028 0)
(5.73746 -0.0697564 0)
(0.0368489 -0.145584 7.99945e-21)
(0.080626 -0.130544 -7.55252e-21)
(0.153068 -0.171981 0)
(0.239831 -0.223066 0)
(0.311024 -0.245434 0)
(0.333719 -0.228391 2.84723e-21)
(0.293287 -0.16498 0)
(0.183397 -0.0638263 0)
(-0.0165545 0.0495573 0)
(-0.313499 0.174237 0)
(-0.698857 0.306171 3.87309e-21)
(-1.16346 0.430911 0)
(-1.69343 0.538278 0)
(-2.27121 0.62165 0)
(-2.87818 0.676793 0)
(-3.49542 0.702187 9.23423e-21)
(-4.10471 0.698727 0)
(-4.68929 0.669056 0)
(-5.23435 0.616997 0)
(-5.72723 0.547052 0)
(-6.15756 0.464039 0)
(-6.51716 0.37295 0)
(-6.80001 0.278734 0)
(-7.00252 0.186319 1.45734e-20)
(-7.12172 0.100417 -1.39843e-20)
(-7.15666 0.0243253 1.29392e-20)
(-7.11786 -0.0413869 1.1408e-20)
(-7.01464 -0.0993823 0)
(-6.85002 -0.151909 0)
(-6.62823 -0.199987 -4.05562e-21)
(-6.35332 -0.243992 -6.57632e-22)
(-6.02929 -0.284052 0)
(-5.66027 -0.320232 0)
(-5.25041 -0.352625 1.24929e-20)
(-4.8039 -0.381383 0)
(-4.32475 -0.406724 0)
(-3.81686 -0.428917 -3.06612e-20)
(-3.28398 -0.448217 0)
(-2.72966 -0.464756 -4.65363e-20)
(-2.15701 -0.478488 -1.12187e-19)
(-1.56898 -0.489264 0)
(-0.967154 -0.496722 0)
(-0.352222 -0.500933 0)
(0.280254 -0.503082 0)
(0.927731 -0.504309 0)
(1.58472 -0.505071 -1.39723e-19)
(2.2475 -0.506668 -1.28666e-19)
(2.91247 -0.509244 -1.18416e-19)
(3.57379 -0.505439 0)
(4.22056 -0.466128 1.00775e-19)
(4.82407 -0.333896 0)
(5.3048 -0.0690818 -9.04726e-20)
(5.52377 0.265711 -8.77191e-20)
(5.44384 0.535753 0)
(5.11546 0.649309 0)
(4.61715 0.598737 0)
(4.05201 0.443272 -8.88835e-20)
(3.51128 0.265233 0)
(3.04619 0.122852 0)
(2.65824 0.0544592 0)
(2.32323 0.0563582 0)
(2.00293 0.0811791 0)
(1.68595 0.0934464 0)
(1.40399 0.07226 0)
(1.21586 0.0112879 0)
(1.17263 -0.0833699 8.57163e-20)
(1.31143 -0.176152 0)
(1.63551 -0.229673 0)
(2.07474 -0.215404 -7.64068e-20)
(2.50999 -0.139705 -7.46777e-20)
(2.83483 -0.0453418 0)
(3.01661 0.0190626 7.19526e-20)
(3.10287 0.0327874 -7.07627e-20)
(3.16353 -0.00690875 0)
(3.20893 -0.106271 6.94738e-20)
(3.16596 -0.206025 0)
(2.88343 -0.141769 0)
(2.1844 0.175279 -6.99566e-20)
(1.01832 0.592749 0)
(-0.467597 0.870039 4.92226e-20)
(-2.0355 0.97108 0)
(-3.55989 0.958412 -8.95945e-21)
(-4.96507 0.877271 6.21711e-21)
(-6.2053 0.761657 1.87763e-20)
(-7.26281 0.63449 5.81099e-20)
(-8.13744 0.509468 -7.46843e-20)
(-8.83854 0.393746 0)
(-9.37961 0.290514 0)
(-9.77497 0.201057 0)
(-10.0387 0.125515 -1.09729e-19)
(-10.1848 0.0637921 -1.12125e-19)
(-10.226 0.0153452 1.11938e-19)
(-10.1893 -0.0225727 0)
(-10.0858 -0.0548051 -1.04866e-19)
(-9.92178 -0.0837039 -9.84146e-20)
(-9.70178 -0.110343 -9.01563e-20)
(-9.42897 -0.13533 0)
(-9.10549 -0.159119 0)
(-8.73269 -0.182082 0)
(-8.31124 -0.2045 -4.0054e-20)
(-7.84135 -0.226525 0)
(-7.32311 -0.248157 0)
(-6.75682 -0.269219 -1.58532e-20)
(-6.14349 -0.289348 0)
(-5.48517 -0.308011 0)
(-4.78536 -0.32456 -8.9144e-20)
(-4.04941 -0.338296 0)
(-3.28495 -0.34847 0)
(-2.50162 -0.354242 1.80529e-19)
(-1.70977 -0.354886 2.14907e-19)
(-0.91827 -0.350079 0)
(-0.137919 -0.339439 -2.72215e-19)
(0.623469 -0.320866 0)
(1.36026 -0.300369 2.48389e-19)
(2.05959 -0.278486 0)
(2.71426 -0.255052 2.16909e-19)
(3.31995 -0.230466 2.02319e-19)
(3.87319 -0.205175 0)
(4.37149 -0.179547 0)
(4.81335 -0.153965 0)
(5.19811 -0.128756 0)
(5.52575 -0.103648 0)
(5.79575 -0.0786445 0)
(6.00713 -0.056214 0)
(6.16593 -0.031448 1.24222e-19)
(6.25619 0.0143111 -1.19924e-19)
(6.22268 0.0799966 0)
(6.06374 0.151687 0)
(5.78596 0.21639 0)
(5.4008 0.26399 0)
(4.92936 0.286261 -2.27594e-19)
(4.40398 0.277564 0)
(3.86278 0.240778 2.32873e-19)
(3.34697 0.187179 -2.35638e-19)
(2.89722 0.11633 0)
(2.51974 0.0429783 0)
(2.22909 -0.00736333 0)
(2.02187 -0.0381694 2.4583e-19)
(1.88583 -0.0534347 2.48001e-19)
(1.8061 -0.0560094 0)
(1.76381 -0.0496668 2.51262e-19)
(1.73986 -0.0387568 2.52233e-19)
(1.71938 -0.0275022 -2.5283e-19)
(1.69449 -0.0196694 0)
(1.66411 -0.0170712 0)
(1.63205 -0.0192318 -2.53491e-19)
(1.60408 -0.0242461 0)
(1.58511 -0.0298003 0)
(1.5776 -0.0342296 0)
(1.58126 -0.0377543 0)
(1.59603 -0.0408863 2.51791e-19)
(1.62309 -0.0443402 2.50717e-19)
(1.66546 -0.0483698 0)
(1.72779 -0.0527075 2.47754e-19)
(1.81588 -0.0563007 0)
(1.93907 -0.0580028 0)
(2.10787 -0.0544631 2.40376e-19)
(2.31698 -0.039051 0)
(2.52189 -0.0144236 2.35923e-19)
(2.65171 -0.00249975 0)
(2.60948 0.0118902 0)
(2.15286 0.139247 2.26504e-19)
(0.898195 0.378716 0)
(-0.98407 0.523041 1.49781e-19)
(-2.78716 0.47433 0)
(-4.19955 0.33794 0)
(-5.13074 0.192249 0)
(-5.59117 0.0672568 9.90691e-21)
(-5.62386 -0.029015 0)
(-5.34718 -0.102692 8.29984e-21)
(-4.79177 -0.167626 0)
(-3.99115 -0.223541 0)
(-2.99675 -0.264698 0)
(-1.88053 -0.28428 0)
(-0.722004 -0.28094 0)
(0.399187 -0.255602 0)
(1.41991 -0.213986 0)
(2.28086 -0.17071 -4.84602e-19)
(2.9648 -0.119395 0)
(3.39262 -0.0570891 0)
(-0.059139 -0.0708307 -2.71391e-20)
(-0.160368 -0.0998587 2.50348e-20)
(-0.252155 -0.136877 0)
(-0.41505 -0.0691826 -1.31119e-20)
(-0.65674 0.0880814 0)
(-0.977185 0.303624 -2.16834e-21)
(-1.37248 0.54996 3.61621e-21)
(-1.83684 0.804603 7.18507e-22)
(-2.35887 1.04969 0)
(-2.92088 1.27107 -4.22134e-21)
(-3.50327 1.45453 -2.25534e-21)
(-4.08886 1.59038 0)
(-4.65936 1.67382 0)
(-5.19936 1.70407 0)
(-5.69654 1.68391 0)
(-6.14209 1.61884 -6.55705e-21)
(-6.53072 1.51599 0)
(-6.86021 1.38301 2.42337e-20)
(-7.13094 1.22729 0)
(-7.34515 1.0554 0)
(-7.50626 0.872884 -3.09424e-20)
(-7.61841 0.684363 0)
(-7.68568 0.493807 3.29412e-20)
(-7.71176 0.304896 -1.34531e-20)
(-7.70099 0.121668 1.30944e-20)
(-7.65373 -0.052121 -1.2125e-20)
(-7.56154 -0.215345 -1.06774e-20)
(-7.41685 -0.368037 0)
(-7.21986 -0.510368 0)
(-6.97147 -0.642084 3.75717e-21)
(-6.67407 -0.762744 -4.697e-21)
(-6.33106 -0.871971 0)
(-5.94643 -0.969601 0)
(-5.52447 -1.05576 -1.13192e-20)
(-5.06952 -1.1309 0)
(-4.58582 -1.19578 0)
(-4.07732 -1.2514 2.70864e-20)
(-3.54762 -1.29894 0)
(-2.99982 -1.33952 -3.55437e-20)
(-2.43659 -1.37405 9.52452e-20)
(-1.86016 -1.40312 0)
(-1.27234 -1.42673 0)
(-0.674702 -1.44488 2.86707e-19)
(-0.0666686 -1.45824 2.93583e-19)
(0.554909 -1.46657 2.73532e-19)
(1.18721 -1.46785 -1.22372e-19)
(1.82653 -1.45957 1.23036e-19)
(2.46708 -1.43848 3.34783e-19)
(3.1006 -1.39947 -2.05085e-19)
(3.7189 -1.33078 -9.85079e-20)
(4.32591 -1.20232 0)
(4.9561 -0.963243 8.55083e-20)
(5.66383 -0.574358 -7.32541e-20)
(6.37891 -0.0687476 0)
(6.94585 0.439052 0)
(7.2637 0.840545 0)
(7.2773 1.07815 6.15601e-20)
(6.98183 1.14646 0)
(6.42927 1.08693 -1.21672e-19)
(5.7148 0.973055 0)
(4.9381 0.868648 -1.32187e-19)
(4.17895 0.792179 0)
(3.48597 0.703856 1.38966e-19)
(2.89773 0.53958 0)
(2.45279 0.261143 -1.45304e-19)
(2.20888 -0.108435 6.90218e-20)
(2.18289 -0.485996 0)
(2.36321 -0.771129 1.34243e-19)
(2.71254 -0.868214 6.73962e-20)
(3.13764 -0.758178 6.66091e-20)
(3.52991 -0.525173 0)
(3.8227 -0.304212 6.37336e-20)
(3.98708 -0.187799 6.46755e-20)
(3.95259 -0.129727 0)
(3.48462 0.114223 -6.78971e-20)
(2.317 0.743491 1.46402e-19)
(0.508743 1.58181 0)
(-1.51178 2.21856 5.24472e-20)
(-3.42877 2.55152 0)
(-5.10307 2.60544 -6.79642e-20)
(-6.47237 2.45786 0)
(-7.54393 2.19315 1.80869e-21)
(-8.34996 1.87905 -4.6853e-21)
(-8.93712 1.56048 2.91876e-20)
(-9.35424 1.26238 7.41188e-20)
(-9.6446 0.995252 -8.79265e-20)
(-9.84239 0.760815 0)
(-9.97234 0.556501 0)
(-10.0514 0.37857 0)
(-10.09 0.22363 3.38986e-19)
(-10.0929 0.0893 1.12689e-19)
(-10.0609 -0.0262732 -1.12449e-19)
(-9.97687 -0.126238 0)
(-9.83748 -0.21515 -1.11645e-19)
(-9.64438 -0.295925 9.83418e-20)
(-9.39989 -0.370441 8.99035e-20)
(-9.10624 -0.440115 0)
(-8.76516 -0.506172 0)
(-8.37765 -0.569668 0)
(-7.94408 -0.631419 3.95392e-20)
(-7.46437 -0.69188 0)
(-6.93825 -0.751051 -1.52179e-20)
(-6.36571 -0.808391 4.0132e-20)
(-5.74743 -0.862795 -6.79844e-20)
(-5.08521 -0.912649 0)
(-4.38238 -0.956022 -7.9267e-20)
(-3.64422 -0.990994 0)
(-2.87823 -1.0159 -2.76064e-19)
(-2.09405 -1.02922 1.64895e-19)
(-1.30233 -1.02958 1.96698e-19)
(-0.512128 -1.016 0)
(0.26692 -0.986996 7.21859e-19)
(1.02591 -0.94215 -4.59081e-19)
(1.75701 -0.889712 -2.20809e-19)
(2.4501 -0.831244 0)
(3.09916 -0.76767 -1.97472e-19)
(3.70008 -0.7005 -5.54966e-19)
(4.2499 -0.63119 0)
(4.74676 -0.560968 -3.26651e-19)
(5.18982 -0.490863 -3.07448e-19)
(5.57893 -0.421705 -2.89814e-19)
(5.91451 -0.353915 0)
(6.19836 -0.287575 0)
(6.43298 -0.223031 0)
(6.61414 -0.156458 1.1763e-19)
(6.76012 -0.0779248 1.14716e-19)
(6.9216 0.010889 0)
(7.08886 0.109068 2.08368e-19)
(7.23907 0.210896 1.99725e-19)
(7.3435 0.309558 0)
(7.37643 0.396325 1.88663e-19)
(7.3218 0.460361 3.64608e-19)
(7.17733 0.491943 -1.80396e-19)
(6.95547 0.485344 -1.77002e-19)
(6.67418 0.445211 0)
(6.36638 0.386194 0)
(6.05531 0.317253 0)
(5.7579 0.245627 -1.82148e-19)
(5.48261 0.179807 1.86776e-19)
(5.23094 0.12668 3.79912e-19)
(5.00073 0.0895812 -1.93317e-19)
(4.78943 0.06815 1.97217e-19)
(4.59435 0.0591632 1.99885e-19)
(4.41229 0.0574533 0)
(4.24007 0.0576938 0)
(4.07515 0.0561088 -2.07163e-19)
(3.9158 0.0511373 0)
(3.76107 0.04316 0)
(3.61099 0.0335661 4.28266e-19)
(3.46749 0.0230154 0)
(3.33371 0.0113769 2.18559e-19)
(3.21278 -0.00250089 -2.2045e-19)
(3.10862 -0.0203672 0)
(3.02689 -0.0431344 2.2399e-19)
(2.97342 -0.0724588 0)
(2.95825 -0.112366 0)
(3.0026 -0.159765 -2.22318e-19)
(3.12987 -0.188156 4.41581e-19)
(3.31872 -0.153151 -2.21132e-19)
(3.42919 -0.0200693 0)
(3.02463 0.297936 0)
(1.47815 0.896642 2.07135e-19)
(-0.944412 1.3826 0)
(-2.9609 1.40408 9.73534e-20)
(-4.25933 1.12349 0)
(-4.98037 0.760859 0)
(-5.3294 0.424681 0)
(-5.44666 0.138181 -9.92841e-21)
(-5.39096 -0.102434 0)
(-5.08331 -0.310518 -8.18284e-21)
(-4.51628 -0.497823 0)
(-3.71146 -0.659415 0)
(-2.71522 -0.778833 2.37998e-19)
(-1.59807 -0.837795 -3.37125e-19)
(-0.440122 -0.832322 0)
(0.676899 -0.76148 0)
(1.69231 -0.649466 0)
(2.55708 -0.523587 1.35603e-18)
(3.25298 -0.384678 0)
(3.76287 -0.224772 -8.64579e-19)
(-0.141906 0.356042 -3.423e-21)
(-0.403739 0.353049 -3.48608e-20)
(-0.713612 0.443204 0)
(-1.11371 0.670152 2.33549e-20)
(-1.57366 0.962551 0)
(-2.07981 1.28454 0)
(-2.6156 1.60759 -7.70753e-23)
(-3.16305 1.90735 -5.50591e-22)
(-3.70412 2.16423 3.66791e-21)
(-4.22242 2.36331 3.3836e-21)
(-4.70605 2.49561 0)
(-5.14785 2.55816 0)
(-5.54553 2.55326 -1.59995e-20)
(-5.90092 2.4874 -3.83073e-20)
(-6.21872 2.36977 4.46416e-20)
(-6.505 2.21067 0)
(-6.76551 2.02015 5.69881e-20)
(-7.00441 1.807 -2.3139e-20)
(-7.22334 1.5782 0)
(-7.42111 1.33893 7.2431e-20)
(-7.59388 1.09271 2.99528e-20)
(-7.73572 0.841873 -7.86098e-20)
(-7.83955 0.58809 -3.19801e-20)
(-7.89753 0.332736 0)
(-7.90312 0.0771232 7.76882e-20)
(-7.85304 -0.176871 7.24059e-20)
(-7.74576 -0.426556 0)
(-7.58166 -0.667505 5.71595e-20)
(-7.3625 -0.895744 0)
(-7.09093 -1.10824 3.58343e-20)
(-6.77051 -1.30274 5.05113e-21)
(-6.40556 -1.47777 0)
(-6.00097 -1.63254 0)
(-5.56194 -1.76701 0)
(-5.09371 -1.88182 0)
(-4.60136 -1.97824 0)
(-4.08961 -2.05804 0)
(-3.56263 -2.12343 -1.02927e-19)
(-3.02391 -2.17685 1.95349e-19)
(-2.4762 -2.2208 0)
(-1.92159 -2.25758 0)
(-1.3617 -2.28901 0)
(-0.797392 -2.31611 -1.6884e-20)
(-0.228813 -2.33915 -2.67219e-19)
(0.347099 -2.3572 -4.97465e-19)
(0.930841 -2.36717 4.69178e-19)
(1.52231 -2.36387 2.14236e-19)
(2.1207 -2.33952 -2.12896e-19)
(2.7225 -2.28381 1.03367e-20)
(3.32083 -2.1862 -1.77203e-19)
(3.90547 -2.03932 0)
(4.47101 -1.83451 -1.56263e-19)
(5.03439 -1.54736 7.40913e-21)
(5.63801 -1.13504 0)
(6.31898 -0.565553 0)
(7.00508 0.111451 1.12895e-19)
(7.54472 0.772915 0)
(7.81434 1.31124 0)
(7.75535 1.66988 -8.63772e-20)
(7.38595 1.84869 -1.90436e-19)
(6.78748 1.88409 1.0459e-19)
(6.07312 1.81409 0)
(5.34891 1.64485 -1.08262e-19)
(4.6927 1.34803 0)
(4.14632 0.889093 -1.10818e-19)
(3.73494 0.274896 -1.21494e-19)
(3.5003 -0.397386 2.33885e-19)
(3.46021 -0.969026 1.1599e-19)
(3.60161 -1.26653 0)
(3.84239 -1.22047 -2.39754e-19)
(4.05884 -0.927894 0)
(4.12282 -0.547002 -3.81258e-19)
(3.8263 -0.0713856 -2.59903e-19)
(2.83716 0.74024 -2.73845e-19)
(1.09099 1.92832 2.59022e-19)
(-1.00717 3.07168 -3.07056e-19)
(-2.96879 3.83463 0)
(-4.57717 4.16062 0)
(-5.78195 4.12219 5.89849e-20)
(-6.62615 3.82279 5.68041e-20)
(-7.19888 3.36971 0)
(-7.60092 2.86055 4.29318e-21)
(-7.91377 2.36342 0)
(-8.18811 1.91474 -1.69752e-19)
(-8.44552 1.52625 2.79287e-20)
(-8.68739 1.19497 -2.36591e-20)
(-8.90486 0.911688 2.09511e-19)
(-9.08612 0.666055 0)
(-9.22059 0.449018 -2.44162e-19)
(-9.3008 0.253846 1.4448e-20)
(-9.32315 0.0758172 0)
(-9.28745 -0.0885926 0)
(-9.19574 -0.240812 0)
(-9.05115 -0.380925 2.23414e-19)
(-8.85624 -0.510056 0)
(-8.61339 -0.629855 0)
(-8.32464 -0.742163 0)
(-7.99149 -0.848846 0)
(-7.61467 -0.951632 0)
(-7.19414 -1.0519 9.48543e-20)
(-6.72931 -1.15043 0)
(-6.21932 -1.24721 1.53003e-20)
(-5.6635 -1.3413 -2.46818e-20)
(-5.06189 -1.43075 6.77839e-20)
(-4.41576 -1.51269 0)
(-3.7282 -1.58364 1.63259e-19)
(-3.00458 -1.64004 0)
(-2.25271 -1.67889 2.70655e-19)
(-1.48269 -1.69783 -3.28604e-19)
(-0.705105 -1.69526 -1.14819e-18)
(0.0698021 -1.66845 0)
(0.831053 -1.61685 -1.2366e-18)
(1.57057 -1.54584 -3.91366e-19)
(2.27824 -1.46049 0)
(2.94611 -1.3637 -7.39213e-19)
(3.56851 -1.25828 -7.06384e-19)
(4.14154 -1.14706 1.0136e-18)
(4.66258 -1.03254 0)
(5.13011 -0.916871 3.06934e-19)
(5.5436 -0.801791 2.9102e-19)
(5.90336 -0.688673 8.22381e-19)
(6.21045 -0.578631 0)
(6.46665 -0.472314 0)
(6.67485 -0.368845 0)
(6.83821 -0.268398 2.25975e-19)
(6.95723 -0.175645 0)
(7.03769 -0.0891807 0)
(7.09617 -6.74305e-05 -2.09135e-19)
(7.15116 0.0954792 -2.01258e-19)
(7.21931 0.197143 0)
(7.3061 0.300172 0)
(7.40166 0.394462 -3.60359e-19)
(7.48573 0.467364 0)
(7.53625 0.509353 3.3876e-19)
(7.53619 0.51654 3.31161e-19)
(7.47903 0.491323 0)
(7.3691 0.442434 0)
(7.21778 0.381737 -3.30118e-19)
(7.03744 0.321152 1.33668e-21)
(6.83913 0.269907 9.55059e-22)
(6.63221 0.2328 0)
(6.4237 0.209808 -6.99232e-19)
(6.21774 0.197275 0)
(6.01576 0.190281 0)
(5.81747 0.184536 0)
(5.62163 0.177312 3.68805e-19)
(5.42665 0.167647 0)
(5.23126 0.155963 -7.56786e-19)
(5.03496 0.14306 -3.83571e-19)
(4.83821 0.12919 0)
(4.64206 0.113372 -3.94852e-19)
(4.44821 0.0936453 0)
(4.25955 0.0679003 0)
(4.07753 0.0357609 -1.24468e-18)
(3.90164 -0.00453484 8.42321e-19)
(3.74173 -0.0624401 0)
(3.62686 -0.145211 8.52711e-19)
(3.58678 -0.214624 -4.27618e-19)
(3.57733 -0.153282 0)
(3.34919 0.201891 0)
(2.31714 0.978874 0)
(0.159752 1.96847 -1.06799e-18)
(-1.88347 2.35533 0)
(-3.09275 2.08768 -2.0133e-19)
(-3.80956 1.54589 0)
(-4.32463 1.00812 0)
(-4.69916 0.550861 0)
(-4.88303 0.160186 0)
(-4.83362 -0.19136 0)
(-4.5389 -0.521205 0)
(-3.99921 -0.825066 -9.9545e-20)
(-3.23007 -1.08883 0)
(-2.27171 -1.28418 -2.2873e-19)
(-1.19257 -1.38095 9.40908e-19)
(-0.0724762 -1.36867 0)
(1.00496 -1.25211 0)
(1.97938 -1.07315 -8.45441e-19)
(2.80534 -0.868823 -8.50893e-19)
(3.4702 -0.651432 8.31609e-19)
(3.97522 -0.415282 8.3263e-19)
(-0.194952 1.04153 5.67885e-20)
(-0.574386 1.1175 4.86964e-20)
(-1.01475 1.33505 2.58334e-20)
(-1.51514 1.66948 8.30974e-21)
(-2.03923 2.0285 0)
(-2.57193 2.37715 -5.26837e-21)
(-3.09472 2.68822 -4.17131e-21)
(-3.593 2.94215 0)
(-4.05701 3.12778 -3.32629e-21)
(-4.48266 3.24105 0)
(-4.87135 3.28417 3.08168e-20)
(-5.22884 3.2639 0)
(-5.56335 3.18942 1.53178e-20)
(-5.88318 3.07029 3.68786e-20)
(-6.19474 2.91476 -4.30885e-20)
(-6.50111 2.72876 0)
(-6.80143 2.51583 -5.49817e-20)
(-7.09123 2.27758 0)
(-7.36328 2.01468 0)
(-7.60884 1.72786 -6.97556e-20)
(-7.81886 1.41865 0)
(-7.98479 1.08986 -2.19516e-20)
(-8.09941 0.745548 0)
(-8.15737 0.391019 0)
(-8.15513 0.0319274 2.25565e-20)
(-8.09076 -0.326213 -7.02971e-20)
(-7.96386 -0.677083 -8.46307e-20)
(-7.77535 -1.01481 -5.52148e-20)
(-7.52768 -1.33395 0)
(-7.22462 -1.62984 -8.76135e-20)
(-6.871 -1.89886 0)
(-6.47246 -2.13852 -2.5503e-20)
(-6.03518 -2.34756 0)
(-5.56558 -2.52588 0)
(-5.07008 -2.67444 -2.42201e-20)
(-4.55486 -2.79517 0)
(-4.02566 -2.89078 6.20545e-20)
(-3.48762 -2.96462 1.53664e-20)
(-2.94507 -3.02052 -2.2219e-19)
(-2.40142 -3.06255 2.50068e-19)
(-1.85912 -3.09472 0)
(-1.31979 -3.12067 0)
(-0.784078 -3.14319 1.76586e-19)
(-0.251084 -3.16371 0)
(0.282002 -3.18203 2.25882e-19)
(0.817453 -3.19476 -2.15586e-19)
(1.35755 -3.19653 -2.0491e-19)
(1.90505 -3.17857 0)
(2.46263 -3.12754 1.83003e-19)
(3.03191 -3.02555 1.72209e-19)
(3.6112 -2.85367 -3.02021e-19)
(4.19191 -2.60008 1.52309e-19)
(4.75922 -2.26718 1.43527e-19)
(5.30277 -1.86529 0)
(5.83662 -1.38215 0)
(6.40131 -0.766041 -1.18918e-19)
(7.00702 0.0108745 0)
(7.55464 0.8594 0)
(7.91001 1.63356 1.78598e-19)
(7.98842 2.21662 1.72433e-19)
(7.78331 2.55571 0)
(7.35663 2.64923 0)
(6.80205 2.51387 0)
(6.20796 2.16076 0)
(5.63702 1.5939 1.88102e-19)
(5.13154 0.831532 -2.12929e-19)
(4.7248 -0.0534031 -2.11263e-19)
(4.4611 -0.867671 -4.34324e-19)
(4.34211 -1.34652 0)
(4.27893 -1.31893 -3.84758e-21)
(4.10379 -0.827228 0)
(3.54521 0.0443556 2.67621e-19)
(2.278 1.35884 6.31894e-21)
(0.355032 2.96754 2.435e-19)
(-1.67161 4.33508 -1.86048e-19)
(-3.3731 5.17872 3.32547e-20)
(-4.61733 5.47875 0)
(-5.43543 5.33887 -4.34746e-20)
(-5.93543 4.91188 -5.71256e-20)
(-6.25046 4.34137 2.23171e-21)
(-6.49422 3.73725 0)
(-6.73754 3.16679 -9.44515e-20)
(-7.00521 2.65673 0)
(-7.29088 2.20803 2.90292e-19)
(-7.57502 1.8109 -1.62231e-19)
(-7.83709 1.45419 1.92169e-19)
(-8.06109 1.12919 -2.18097e-19)
(-8.23644 0.83019 -5.23785e-19)
(-8.35719 0.553691 2.56591e-19)
(-8.42097 0.29766 -2.68683e-19)
(-8.42784 0.060668 0)
(-8.37934 -0.158997 5.66317e-19)
(-8.27778 -0.362444 0)
(-8.12605 -0.550478 5.15936e-19)
(-7.92719 -0.724345 -4.80651e-19)