/*--------------------------------*- C++ -*----------------------------------*\
  =========                 |
  \\      /  F ield         | OpenFOAM: The Open Source CFD Toolbox
   \\    /   O peration     | Website:  https://openfoam.org
    \\  /    A nd           | Version:  9
     \\/     M anipulation  |
\*---------------------------------------------------------------------------*/
FoamFile
{
    format      ascii;
    class       volScalarField;
    location    "0.091";
    object      k_0;
}
// * * * * * * * * * * * * * * * * * * * * * * * * * * * * * * * * * * * * * //

dimensions      [0 2 -2 0 0 0 0];

internalField   nonuniform List<scalar> 
12225
(
0.000158229
7.74068e-05
3.63164e-05
2.78983e-05
2.71135e-05
2.80363e-05
2.85655e-05
2.8237e-05
2.67111e-05
2.5776e-05
2.53654e-05
2.48986e-05
2.44792e-05
2.41682e-05
2.37136e-05
2.27728e-05
1.92652e-05
2.30031e-05
2.11969e-05
2.10843e-05
2.10486e-05
2.14992e-05
2.2472e-05
2.30253e-05
2.31514e-05
2.31273e-05
2.29765e-05
2.29237e-05
2.29835e-05
2.32359e-05
2.34994e-05
2.36601e-05
2.36751e-05
2.36547e-05
2.34878e-05
2.33916e-05
2.00116e-05
1.43124e-05
1.42629e-05
1.52907e-05
1.66103e-05
1.73154e-05
1.75834e-05
1.76537e-05
1.76723e-05
1.76976e-05
1.77568e-05
1.79541e-05
1.82609e-05
1.84692e-05
1.87071e-05
1.893e-05
1.91396e-05
1.93001e-05
2.00486e-05
2.00186e-05
1.98638e-05
1.95737e-05
1.87674e-05
1.8524e-05
1.86844e-05
1.84937e-05
1.72982e-05
1.66549e-05
1.67077e-05
1.67738e-05
1.65854e-05
1.61946e-05
1.6093e-05
1.60989e-05
1.61461e-05
1.6297e-05
2.01958e-05
2.20773e-05
2.42418e-05
2.48734e-05
2.63857e-05
2.89764e-05
2.87845e-05
2.73425e-05
2.53485e-05
2.47272e-05
2.46888e-05
2.48752e-05
2.56821e-05
2.63564e-05
2.6436e-05
2.62993e-05
2.56625e-05
2.34222e-05
2.3275e-05
2.40461e-05
2.34464e-05
2.33745e-05
2.42833e-05
2.5346e-05
2.66546e-05
3.05055e-05
3.25326e-05
3.28062e-05
3.24296e-05
3.04381e-05
2.79704e-05
2.691e-05
2.68073e-05
2.7458e-05
3.06915e-05
3.2166e-05
2.45286e-05
2.59201e-05
2.3975e-05
2.25307e-05
2.24273e-05
2.28387e-05
2.58157e-05
4.69968e-05
8.18057e-05
8.57416e-05
7.58355e-05
5.05695e-05
3.56591e-05
2.884e-05
2.67788e-05
2.67408e-05
2.77045e-05
3.21572e-05
2.36531e-05
2.90744e-05
2.72622e-05
2.33211e-05
2.16773e-05
2.1409e-05
2.17642e-05
2.41003e-05
3.53617e-05
5.04788e-05
5.2087e-05
4.73788e-05
3.5334e-05
2.83203e-05
2.52523e-05
2.44086e-05
2.44638e-05
2.58161e-05
2.0323e-05
2.1801e-05
2.20888e-05
2.18894e-05
2.1842e-05
2.22232e-05
2.35998e-05
2.50657e-05
2.62026e-05
2.66673e-05
2.66527e-05
2.60079e-05
2.39449e-05
2.24624e-05
2.17763e-05
2.16005e-05
2.16225e-05
2.1995e-05
2.00871e-05
2.09327e-05
2.13109e-05
2.13973e-05
2.14831e-05
2.1563e-05
2.15712e-05
2.14657e-05
2.13131e-05
2.12916e-05
2.13212e-05
2.15316e-05
2.21762e-05
2.25314e-05
2.25436e-05
2.21325e-05
2.14925e-05
2.13301e-05
2.01602e-05
2.10066e-05
2.14413e-05
2.1617e-05
2.18318e-05
2.19127e-05
2.18779e-05
2.15942e-05
2.14002e-05
2.14218e-05
2.18272e-05
2.41657e-05
2.67341e-05
2.75037e-05
2.75273e-05
2.69866e-05
2.4636e-05
2.27131e-05
2.12868e-05
2.16693e-05
2.08775e-05
2.03826e-05
2.03285e-05
2.03127e-05
2.02934e-05
2.03039e-05
2.03712e-05
2.05816e-05
2.12501e-05
2.3455e-05
2.52644e-05
2.58332e-05
2.58362e-05
2.54737e-05
2.39281e-05
2.2428e-05
2.15496e-05
2.07273e-05
2.03953e-05
2.03859e-05
2.04452e-05
2.05972e-05
2.10899e-05
2.32148e-05
2.81245e-05
3.02837e-05
3.04934e-05
3.04389e-05
3.02887e-05
2.94919e-05
2.86678e-05
2.80104e-05
2.66071e-05
2.45205e-05
2.25325e-05
2.11686e-05
2.02592e-05
2.02559e-05
2.05806e-05
2.1994e-05
2.46092e-05
2.59144e-05
2.61766e-05
2.54066e-05
2.41829e-05
2.39608e-05
2.41477e-05
2.47149e-05
2.47867e-05
2.47579e-05
2.46738e-05
2.4385e-05
2.01045e-05
2.00411e-05
2.00911e-05
2.02873e-05
2.07554e-05
2.13775e-05
2.23699e-05
2.44224e-05
2.92428e-05
3.23414e-05
3.2522e-05
3.07658e-05
2.75822e-05
2.64788e-05
2.64109e-05
2.70685e-05
3.04637e-05
3.35971e-05
2.00639e-05
2.03259e-05
2.05502e-05
2.1435e-05
2.1864e-05
2.19531e-05
2.20292e-05
2.23235e-05
2.37555e-05
3.06038e-05
4.20456e-05
4.65453e-05
4.63744e-05
4.23606e-05
3.62525e-05
3.31303e-05
3.19432e-05
3.16975e-05
2.0027e-05
2.0155e-05
2.06662e-05
2.23798e-05
2.30974e-05
2.30381e-05
2.24983e-05
2.19043e-05
2.18441e-05
2.21574e-05
2.32133e-05
2.38082e-05
2.41766e-05
2.47643e-05
2.64904e-05
2.87768e-05
2.96165e-05
2.9544e-05
2.03928e-05
2.05007e-05
2.05936e-05
2.06843e-05
2.10914e-05
2.17024e-05
2.17222e-05
2.15197e-05
2.12712e-05
2.12033e-05
2.12203e-05
2.14927e-05
2.1779e-05
2.19524e-05
2.25105e-05
2.36368e-05
2.43415e-05
2.4606e-05
2.03384e-05
2.04916e-05
2.13455e-05
2.17897e-05
2.21007e-05
2.19634e-05
2.18197e-05
2.20271e-05
2.20692e-05
2.17722e-05
2.15948e-05
2.15921e-05
2.17158e-05
2.23389e-05
2.32361e-05
2.36321e-05
2.37237e-05
2.37007e-05
2.02145e-05
2.08014e-05
2.34841e-05
2.46106e-05
2.49012e-05
2.39906e-05
2.25604e-05
2.18251e-05
2.15555e-05
2.15096e-05
2.15465e-05
2.18187e-05
2.30535e-05
2.49856e-05
2.60617e-05
2.63262e-05
2.61799e-05
2.50854e-05
2.00767e-05
2.09774e-05
2.1761e-05
2.32302e-05
2.77498e-05
2.92943e-05
2.84638e-05
2.71608e-05
2.65299e-05
2.60984e-05
2.48724e-05
2.3807e-05
2.36251e-05
2.3803e-05
2.44708e-05
2.4761e-05
2.47686e-05
2.47655e-05
2.07689e-05
2.03992e-05
2.0409e-05
2.24597e-05
3.06265e-05
3.35927e-05
3.16652e-05
2.87213e-05
2.86814e-05
3.02001e-05
3.15444e-05
3.12944e-05
2.89118e-05
2.66594e-05
2.59826e-05
2.60158e-05
2.6434e-05
2.65385e-05
2.08924e-05
2.04023e-05
2.02905e-05
2.08663e-05
2.10405e-05
2.08555e-05
2.07815e-05
2.0866e-05
2.12992e-05
2.16407e-05
2.17315e-05
2.17345e-05
2.17332e-05
2.17508e-05
2.18689e-05
2.24018e-05
2.36039e-05
2.45245e-05
2.09739e-05
2.05018e-05
2.03232e-05
2.07701e-05
2.17664e-05
2.23618e-05
2.26319e-05
2.27041e-05
2.27039e-05
2.26654e-05
2.2485e-05
2.20784e-05
2.18019e-05
2.16742e-05
2.16438e-05
2.1653e-05
2.17339e-05
2.20372e-05
2.02617e-05
2.01987e-05
2.02368e-05
2.091e-05
2.36195e-05
2.60404e-05
2.65307e-05
2.61461e-05
2.43031e-05
2.26432e-05
2.18664e-05
2.15787e-05
2.151e-05
2.15109e-05
2.15305e-05
2.15332e-05
2.15216e-05
2.14722e-05
2.06772e-05
2.06602e-05
2.04013e-05
2.06784e-05
2.28714e-05
3.46372e-05
4.8596e-05
4.96002e-05
4.40358e-05
3.31089e-05
2.7202e-05
2.46019e-05
2.36221e-05
2.32162e-05
2.27902e-05
2.23907e-05
2.18813e-05
2.14477e-05
2.01011e-05
2.00394e-05
1.98542e-05
1.98681e-05
2.02088e-05
2.1039e-05
2.13708e-05
2.13698e-05
2.11297e-05
2.05489e-05
2.01754e-05
1.97945e-05
1.90479e-05
1.75247e-05
1.58354e-05
1.46652e-05
1.42904e-05
1.4263e-05
2.00053e-05
1.64844e-05
1.54012e-05
1.5636e-05
1.638e-05
1.72024e-05
1.76929e-05
1.78685e-05
1.78478e-05
1.74751e-05
1.66823e-05
1.61801e-05
1.59068e-05
1.57868e-05
1.57643e-05
1.57907e-05
1.59089e-05
1.60719e-05
2.0083e-05
2.06036e-05
2.40983e-05
2.61031e-05
2.58988e-05
2.50111e-05
2.49448e-05
2.52181e-05
2.52182e-05
2.49127e-05
2.37304e-05
2.22344e-05
2.13253e-05
2.09087e-05
2.08146e-05
2.08541e-05
2.11335e-05
2.19184e-05
3.7176e-05
3.00679e-05
5.8795e-05
7.66973e-05
7.80985e-05
7.42532e-05
6.96077e-05
6.38138e-05
5.14933e-05
3.86134e-05
2.94594e-05
2.44626e-05
2.25265e-05
2.22265e-05
2.26473e-05
2.5266e-05
3.65079e-05
5.45368e-05
0.073091
0.093868
0.0959018
0.0933047
0.0923779
0.0920069
0.0906492
0.0896596
0.0893161
0.089051
0.0868561
0.0841129
0.0820298
0.0792156
0.0727832
0.0670862
0.0654929
0.0656748
0.0671801
0.0717714
0.078323
0.083616
0.0870336
0.0897745
0.0927881
0.0961599
0.0976145
0.100747
0.105313
0.111763
0.12502
0.169116
0.19595
0.192676
0.18866
0.203858
0.27025
0.238113
0.144022
0.122564
0.1228
0.131008
0.132964
0.133032
0.131395
0.126443
0.118846
0.113483
0.106255
0.101162
0.0970043
0.0935417
0.0917397
0.0905442
0.0902154
0.0905889
0.0913409
0.0925104
0.0937258
0.0958551
0.0980809
0.10038
0.103324
0.106736
0.110862
0.115116
0.120427
0.126461
0.131997
0.138949
0.148065
0.158725
0.168129
0.171071
0.172483
0.180324
0.181843
0.182776
0.205557
0.245745
0.249097
0.161294
0.11492
0.100119
0.0944288
0.0927591
0.100698
0.12589
0.167193
0.232738
0.283658
0.29235
0.28313
0.256849
0.197416
0.143409
0.104336
0.0805043
0.063643
0.0523094
0.045793
0.0419473
0.0415624
0.0432464
0.0512109
0.0969625
0.149766
0.233031
0.391987
0.181818
0.0977076
0.0742252
0.0618329
0.0501623
0.0417049
0.0370676
0.0344952
0.0337002
0.0335847
0.033358
0.0332923
0.0331801
0.0331704
0.0330949
0.0330778
0.032919
0.0328999
0.0328406
0.032782
0.032766
0.0328424
0.0329654
0.0332918
0.0336915
0.0340129
0.0344054
0.0346087
0.0346229
0.03442
0.034047
0.0336283
0.0332248
0.0328834
0.0325658
0.0323115
0.0320926
0.0318435
0.0316694
0.0314889
0.0312078
0.030953
0.0307971
0.0306213
0.0302786
0.0297687
0.0292987
0.0290537
0.0287339
0.0282214
0.0270783
0.024077
0.0170483
0.0106492
0.00775749
0.00690471
0.00552096
0.00536727
0.0063365
0.00717718
0.00748779
0.00760862
0.0077534
0.00799143
0.00845769
0.00871881
0.00840309
0.00780725
0.00708663
0.00683735
0.00597252
0.0672128
0.075681
0.0905453
0.0957011
0.0971137
0.0951216
0.0912517
0.0839902
0.0791624
0.0798755
0.0867474
0.0932225
0.0942587
0.0921439
0.0831701
0.0748031
0.0732936
0.0751003
0.0829795
0.0886516
0.0918467
0.0952261
0.0973044
0.10159
0.109048
0.113741
0.118189
0.127487
0.134011
0.142887
0.169385
0.21018
0.225059
0.225658
0.211832
0.2025
0.178122
0.144697
0.126038
0.120217
0.119151
0.117965
0.109086
0.0959758
0.0799139
0.0653685
0.0531266
0.0438837
0.0360851
0.0305532
0.0264973
0.0234254
0.0215076
0.0200736
0.0194006
0.0191246
0.0190868
0.0193605
0.0201166
0.020939
0.0219858
0.0235714
0.0255909
0.0283292
0.0320602
0.0369856
0.0440165
0.0542182
0.069263
0.0897561
0.116204
0.145926
0.171596
0.19127
0.210785
0.221187
0.222558
0.219487
0.222908
0.238346
0.22189
0.122284
0.0909629
0.0810034
0.0704327
0.0509803
0.0461201
0.045987
0.0587496
0.0637593
0.06421
0.0469146
0.0311224
0.0232663
0.0188741
0.0163819
0.0147781
0.014326
0.0144855
0.0157467
0.0205196
0.0224526
0.0233142
0.0258339
0.0330377
0.0505357
0.182289
0.413863
0.3197
0.110832
0.0600329
0.0448047
0.0379376
0.0345601
0.0330234
0.0323344
0.0319785
0.0316641
0.0313919
0.0311084
0.0307325
0.0303555
0.0300931
0.0299173
0.0298527
0.0296704
0.0294825
0.0293429
0.0289713
0.0286033
0.0282636
0.0277175
0.0273605
0.0272849
0.0281292
0.0297791
0.0317248
0.0336075
0.0349876
0.0357495
0.0360699
0.0361082
0.0359962
0.03567
0.0353393
0.0350335
0.0347469
0.0344877
0.0342461
0.0340137
0.0337219
0.0333651
0.0330003
0.0325682
0.0319514
0.0310557
0.0303689
0.0302362
0.0302269
0.0303517
0.0309193
0.0309525
0.030694
0.0293203
0.0227647
0.0138408
0.0105942
0.0100497
0.0100811
0.0101136
0.0102429
0.0107312
0.0109166
0.0107756
0.00984298
0.00856368
0.00783347
0.0071714
0.00690989
0.00633571
0.0533835
0.0458088
0.0625623
0.0896364
0.100169
0.100392
0.0975232
0.0875336
0.0685119
0.058709
0.0560749
0.0566693
0.0600382
0.0616108
0.062763
0.0661022
0.0712743
0.0833807
0.0915546
0.0916266
0.08616
0.085817
0.0895713
0.0992374
0.111924
0.12027
0.132174
0.153133
0.170866
0.187239
0.20027
0.207
0.201919
0.179006
0.146487
0.125045
0.109076
0.103562
0.099113
0.0941684
0.081303
0.0659654
0.0494025
0.0349857
0.0261734
0.0190182
0.0156325
0.0127727
0.0113274
0.0102285
0.00945625
0.00881743
0.00840466
0.00819966
0.008143
0.00843564
0.0088739
0.00928265
0.00955876
0.00971322
0.00986407
0.0101882
0.0107617
0.011506
0.0123451
0.013676
0.0161739
0.0200629
0.0265067
0.0380123
0.0594889
0.09787
0.149989
0.19686
0.220526
0.229895
0.23238
0.229603
0.222114
0.21974
0.176201
0.137184
0.135886
0.140697
0.126106
0.0696147
0.0394099
0.0259618
0.0205172
0.0179528
0.0159401
0.0142647
0.0127723
0.0115048
0.010687
0.0104013
0.0104157
0.0107128
0.0118409
0.0152425
0.0308293
0.0362202
0.0348747
0.0321077
0.0347738
0.0902002
0.328904
0.341956
0.135283
0.0588598
0.0412362
0.0358024
0.0335399
0.0324618
0.0319505
0.0317436
0.0316841
0.0317042
0.0316591
0.0312021
0.0307891
0.0300722
0.0294734
0.0289447
0.0286031
0.0285619
0.0284665
0.0283832
0.0281778
0.0278646
0.0274652
0.026885
0.0259669
0.0247032
0.0234108
0.0226028
0.0226117
0.0233818
0.0254832
0.0280461
0.0300016
0.0309509
0.0312247
0.0313357
0.0314567
0.0316098
0.0317786
0.0319094
0.0319743
0.0319768
0.0318795
0.0316795
0.0313655
0.0306399
0.0295246
0.0283651
0.0260891
0.0214296
0.0195303
0.019597
0.0203342
0.0222612
0.026376
0.0280616
0.0275438
0.0238874
0.0169262
0.0134475
0.0116082
0.0104758
0.0100035
0.00995581
0.0101637
0.0106822
0.0108308
0.0107642
0.01024
0.00864063
0.00782826
0.00694202
0.0520694
0.0460927
0.0634252
0.102502
0.103364
0.0989423
0.0874238
0.0711748
0.0598922
0.0531348
0.0511425
0.0509409
0.0512584
0.0522457
0.0539497
0.0556203
0.059551
0.0760697
0.0899117
0.0844357
0.0772092
0.082194
0.0996286
0.116623
0.133991
0.148744
0.160092
0.167388
0.174078
0.178285
0.174249
0.150859
0.11961
0.0927089
0.0803046
0.073148
0.0681284
0.0645123
0.059016
0.050947
0.0405518
0.0292732
0.0203078
0.0161191
0.0141754
0.0134617
0.0133456
0.0136655
0.0147104
0.0166346
0.0188357
0.0197767
0.0202096
0.0203343
0.0200615
0.0187555
0.0174065
0.0166584
0.0157514
0.0145324
0.0134217
0.012635
0.0121377
0.0117834
0.0116784
0.0117105
0.012523
0.013742
0.0152901
0.019164
0.0278663
0.0454953
0.0852923
0.153113
0.199418
0.217631
0.223017
0.222887
0.208068
0.18151
0.169046
0.165002
0.177185
0.181938
0.178796
0.150209
0.0990944
0.0465195
0.022461
0.0157624
0.013524
0.0123464
0.0116719
0.0109171
0.0100581
0.00949995
0.00947348
0.00989256
0.0118761
0.0196103
0.0543487
0.0684421
0.0650922
0.0477224
0.0459631
0.20632
0.321813
0.177985
0.069969
0.042374
0.0363647
0.0349052
0.0344507
0.0352007
0.0371017
0.0386382
0.0393198
0.0394722
0.0382723
0.0366123
0.0343683
0.0323094
0.0302775
0.0290536
0.0278706
0.0272381
0.0271497
0.0272732
0.0272733
0.0272141
0.0269719
0.0266324
0.0258948
0.0245847
0.0229497
0.0214042
0.020449
0.0202679
0.0203934
0.0208796
0.0219237
0.0228732
0.0234532
0.0238498
0.0245504
0.0255214
0.0266785
0.0278168
0.0287459
0.029597
0.0304509
0.0311095
0.0315061
0.03208
0.0327597
0.0334921
0.0345223
0.035126
0.0349661
0.0341487
0.0309739
0.0271162
0.0270194
0.0277701
0.0285916
0.0280401
0.0252342
0.0186852
0.0142278
0.0111885
0.00924744
0.00843753
0.00835881
0.00870255
0.00979588
0.0102823
0.0103143
0.0101932
0.00985571
0.00885898
0.0568128
0.0901335
0.126741
0.11756
0.0967095
0.0736679
0.0582695
0.0523107
0.0499846
0.0499324
0.0507368
0.0534896
0.0612902
0.0657948
0.0656941
0.0647002
0.0667691
0.0856302
0.0848143
0.0700693
0.0762716
0.0925175
0.110099
0.125467
0.135648
0.143209
0.146261
0.14443
0.137482
0.121788
0.0999974
0.0794442
0.0630366
0.0520492
0.0471566
0.0438374
0.0414804
0.0383614
0.0343229
0.0278335
0.0211097
0.0159164
0.0140374
0.0135641
0.0138074
0.0152065
0.0181097
0.0237295
0.0286934
0.0304724
0.0311295
0.0312649
0.030942
0.0293713
0.0273319
0.0259717
0.0247732
0.0231899
0.0217783
0.0204503
0.0191116
0.0179888
0.0169599
0.0160167
0.0151313
0.0142027
0.013475
0.0132594
0.0132909
0.0141314
0.016242
0.0214452
0.035449
0.0684984
0.139942
0.187483
0.203293
0.206143
0.199585
0.182537
0.1777
0.179335
0.188966
0.190542
0.186619
0.166967
0.134399
0.0992166
0.0536394
0.0246072
0.0162417
0.0134757
0.0125123
0.011867
0.010505
0.00927414
0.00896875
0.00942977
0.0123895
0.0240876
0.0742416
0.10209
0.0980992
0.0702754
0.0707337
0.261026
0.277341
0.099032
0.0480319
0.0377614
0.0362913
0.0361117
0.0388647
0.0439723
0.047784
0.050366
0.0517653
0.0523426
0.0519743
0.0489516
0.0440742
0.0386289
0.0341393
0.0305346
0.02833
0.0262697
0.0252817
0.0248679
0.0248212
0.0249204
0.0249471
0.0248607
0.0245696
0.0236315
0.0221655
0.0207643
0.0195635
0.0189769
0.0188965
0.0189354
0.0191006
0.0191726
0.019305
0.019716
0.0207723
0.0219321
0.0229443
0.0238652
0.0246492
0.0251691
0.0254966
0.0258174
0.0261459
0.0265831
0.0274491
0.0283471
0.0292555
0.0310563
0.0334908
0.0350409
0.0352773
0.034795
0.0314921
0.0295044
0.0297035
0.0297435
0.0292446
0.0265604
0.0190775
0.0131594
0.00968854
0.0080305
0.00752141
0.00749919
0.00771939
0.00854778
0.00937475
0.00958961
0.00976897
0.00977955
0.0567109
0.104365
0.0891711
0.0547665
0.04457
0.0457665
0.0475557
0.0497241
0.052794
0.0575915
0.0653719
0.0795802
0.0886489
0.0893432
0.0846452
0.0748887
0.0819784
0.0889552
0.0666009
0.0664539
0.0803219
0.0976483
0.10676
0.11103
0.112183
0.106507
0.0998757
0.0908554
0.0825678
0.068035
0.0552692
0.0429488
0.0358195
0.0305282
0.0283715
0.0267547
0.0256585
0.023753
0.0212881
0.0172949
0.0142764
0.0132508
0.0131458
0.0141485
0.0164367
0.0220234
0.0312206
0.035296
0.0366105
0.0369266
0.0368717
0.0357467
0.0333675
0.031172
0.0297475
0.0280661
0.0259353
0.0242391
0.0228549
0.0212264
0.0197724
0.018624
0.0174981
0.0166853
0.0159514
0.0154158
0.0148027
0.0142002
0.0135931
0.0133527
0.013315
0.0140925
0.0170179
0.0258775
0.0513708
0.113952
0.17983
0.204436
0.211192
0.205786
0.199552
0.197228
0.192979
0.187694
0.175903
0.156953
0.131839
0.108332
0.081509
0.0513546
0.0279772
0.0189443
0.0157536
0.0142463
0.0119702
0.00942889
0.00864674
0.00915644
0.013337
0.0303483
0.0925573
0.134627
0.132944
0.0989422
0.115488
0.271531
0.197835
0.065982
0.0411765
0.0375271
0.0372456
0.0406809
0.050392
0.0561376
0.0608268
0.0645298
0.0687477
0.071802
0.0729895
0.0723074
0.0653452
0.0548232
0.0444831
0.0361403
0.0312318
0.0270522
0.0248613
0.0233771
0.022915
0.0228392
0.0228751
0.0226773
0.0222129
0.0211347
0.0196023
0.0187007
0.0182005
0.0178754
0.0178302
0.0178709
0.0179389
0.0180888
0.0184989
0.0193738
0.0206728
0.0217576
0.0225935
0.0230273
0.0234754
0.0236056
0.0234541
0.0232497
0.0233364
0.0237727
0.024269
0.0252717
0.0265222
0.0273753
0.0283589
0.0306443
0.0339093
0.0357142
0.0356104
0.033572
0.0315305
0.0312822
0.0312512
0.0307602
0.0274655
0.0183898
0.01196
0.00868103
0.00757036
0.00735855
0.00740478
0.00767254
0.00788973
0.00812574
0.00874224
0.00933439
0.076775
0.0699684
0.0394858
0.0314133
0.0372471
0.0457797
0.0539545
0.062949
0.0725723
0.0806227
0.0888504
0.0970919
0.100002
0.0988363
0.0890996
0.0768059
0.0915642
0.0729022
0.0601132
0.0659557
0.0823256
0.0906435
0.0913135
0.0855107
0.076137
0.0678114
0.0637625
0.0571714
0.0484461
0.0390185
0.0318993
0.0248206
0.0210212
0.0187258
0.0178712
0.0173965
0.0170107
0.0162647
0.0151115
0.0132806
0.0126663
0.0126536
0.0137677
0.016484
0.0232005
0.0342099
0.0391294
0.0405407
0.0408104
0.0406455
0.0393867
0.0371273
0.0352019
0.033782
0.03207
0.0298657
0.0281309
0.026629
0.0246136
0.0224802
0.0205888
0.018824
0.0171249
0.0157951
0.0145992
0.0138081
0.0133186
0.0131627
0.0131369
0.0129807
0.0124825
0.0122492
0.0122422
0.0131073
0.0168605
0.0283931
0.0606818
0.133118
0.189019
0.209785
0.211242
0.185011
0.149916
0.133891
0.107695
0.084702
0.0757795
0.0857693
0.081164
0.0631878
0.0433573
0.0285862
0.0216872
0.0180845
0.0147805
0.0106946
0.00895475
0.00952914
0.0154437
0.0400747
0.112548
0.158634
0.158868
0.122243
0.148505
0.2696
0.136646
0.0519506
0.039138
0.0379779
0.0402667
0.0508786
0.0606369
0.0654603
0.072762
0.0789959
0.0867892
0.0938639
0.097614
0.0985769
0.094466
0.0822
0.0645582
0.0470434
0.0373044
0.029757
0.0248949
0.0221514
0.0209357
0.0206562
0.0206321
0.0204778
0.0199119
0.0185216
0.0167337
0.0156476
0.0156943
0.0159893
0.0164383
0.016741
0.0170959
0.0176994
0.0188494
0.0203628
0.021719
0.0222716
0.0226675
0.0226447
0.0223778
0.0216343
0.0197631
0.017628
0.0167908
0.016813
0.0172462
0.0186153
0.0215369
0.024253
0.0259373
0.027094
0.0294799
0.0338772
0.0362586
0.0362205
0.0344982
0.0328153
0.0327974
0.0329969
0.032346
0.0280929
0.0179134
0.011196
0.00798263
0.00733496
0.00732677
0.00741956
0.00748625
0.00754191
0.00765972
0.00808057
0.055298
0.0444933
0.0163451
0.0251532
0.0452261
0.0598905
0.0728318
0.0808935
0.0866678
0.0916204
0.101828
0.109661
0.109741
0.104052
0.0862841
0.0839045
0.0863731
0.0584675
0.0555565
0.0639951
0.0767755
0.079104
0.0767647
0.0654187
0.0513955
0.0454363
0.0423488
0.0371803
0.0293032
0.0228166
0.0194191
0.0155335
0.0132398
0.0124443
0.0122769
0.0122646
0.0125339
0.0126752
0.0124527
0.012111
0.0121104
0.013015
0.0154341
0.0215743
0.0330507
0.0410054
0.0431593
0.0435977
0.0435952
0.0430717
0.0419122
0.0411057
0.04094
0.0410558
0.0409675
0.0403707
0.0399036
0.0385822
0.0363013
0.0335146
0.0296863
0.0256768
0.0220461
0.0187652
0.015941
0.0137783
0.0121626
0.0111695
0.0105724
0.0102174
0.0104675
0.010632
0.0107629
0.0104909
0.0104521
0.0108492
0.012513
0.0175195
0.0297449
0.0446225
0.0479655
0.0430964
0.0324556
0.0277415
0.0206754
0.0169717
0.0192727
0.0334522
0.0555144
0.0593667
0.0506803
0.0383092
0.029596
0.0238074
0.0199331
0.0143486
0.0105514
0.0109098
0.0182571
0.0508576
0.127638
0.174437
0.17649
0.139826
0.167527
0.259304
0.102109
0.0459711
0.0391379
0.0392204
0.0466756
0.0603115
0.0680098
0.0753763
0.0836237
0.0914013
0.101153
0.107433
0.109256
0.109608
0.107489
0.101619
0.0894041
0.0641934
0.0459638
0.0330383
0.0253039
0.0208873
0.0183622
0.0173607
0.0171807
0.016813
0.0158674
0.0142973
0.0132255
0.0127364
0.0128753
0.0133888
0.0143085
0.0151392
0.0165056
0.0181229
0.0205168
0.021877
0.0223961
0.0225306
0.022439
0.0220011
0.020735
0.0178641
0.0138631
0.00985147
0.00756773
0.00714267
0.00732051
0.00807804
0.0102123
0.0156768
0.0210081
0.0241081
0.0259304
0.0298327
0.0350476
0.0371537
0.036915
0.0349552
0.0341836
0.0345923
0.0348032
0.0336749
0.0276247
0.0168753
0.0102247
0.00746386
0.0070926
0.00715898
0.00723281
0.00718182
0.00700225
0.00709012
0.0487448
0.0355561
0.00766944
0.0303142
0.0569416
0.0745805
0.0832771
0.0888479
0.0932397
0.102648
0.11467
0.117765
0.116037
0.100545
0.0853607
0.0836558
0.0732081
0.0506662
0.0502021
0.0578272
0.06769
0.0694137
0.0661575
0.0525326
0.0368401
0.0313111
0.0286409
0.0250221
0.0188108
0.0144084
0.0124749
0.010548
0.0094178
0.00919636
0.00922901
0.00956924
0.0102766
0.0109745
0.0113822
0.011661
0.0122267
0.0137328
0.0179416
0.0269994
0.0390174
0.0446007
0.046301
0.0470062
0.047402
0.0479472
0.0487866
0.0505624
0.0524852
0.0532606
0.0536626
0.053815
0.0538234
0.0533652
0.0525953
0.0512976
0.0491155
0.0458185
0.0407175
0.0348586
0.0285746
0.0223931
0.0165325
0.0130155
0.0106684
0.00934245
0.00843602
0.00785646
0.00752708
0.00812795
0.00856285
0.00884857
0.00873551
0.00912151
0.00923759
0.00914003
0.00904692
0.00831464
0.00724147
0.00612851
0.00495638
0.00446085
0.00524664
0.0103266
0.0257356
0.0416045
0.0457746
0.0423525
0.0361114
0.0310876
0.0278667
0.0219407
0.0140204
0.0134956
0.0212957
0.0610251
0.14106
0.187081
0.190305
0.153725
0.178636
0.235267
0.0828258
0.0431371
0.0393584
0.0417696
0.0536306
0.0676598
0.0746739
0.0837003
0.0914923
0.100612
0.108781
0.111854
0.112602
0.112493
0.110751
0.107124
0.0995143
0.0833264
0.0545687
0.0370246
0.0254182
0.0187316
0.0149502
0.0132055
0.0126259
0.0119631
0.0108711
0.0101259
0.00993533
0.0101549
0.0107521
0.0117842
0.0129821
0.0144772
0.0169114
0.019997
0.0217325
0.0223714
0.0225037
0.0224231
0.0219813
0.0205617
0.0168136
0.0111962
0.00707427
0.00463618
0.00334365
0.00289048
0.0028733
0.00299885
0.00347823
0.00496161
0.0104393
0.0181343
0.0218878
0.0251036
0.032003
0.0370645
0.0382006
0.0375286
0.0358524
0.0359065
0.036629
0.0364995
0.0342023
0.0251606
0.0150205
0.00963942
0.00752954
0.0069758
0.00697992
0.0069695
0.00657321
0.00612853
0.0467333
0.0328465
0.00563893
0.0379889
0.0666014
0.0814362
0.088153
0.0935685
0.100063
0.111098
0.122532
0.123829
0.113751
0.093377
0.0839494
0.079707
0.0549614
0.043723
0.0437317
0.0491307
0.0581117
0.0602439
0.0582556
0.0465742
0.0284739
0.0221292
0.0197444
0.0174915
0.013253
0.0100532
0.00883162
0.00795486
0.00753639
0.00749531
0.00768392
0.00827802
0.00914452
0.0100495
0.0108565
0.0116208
0.0125489
0.0149999
0.0207157
0.0303511
0.0424894
0.0476999
0.0496431
0.0506756
0.051897
0.0536309
0.0554807
0.0564694
0.0568615
0.0569268
0.0567015
0.0564593
0.0563473
0.0562169
0.055978
0.0555973
0.0548724
0.0537191
0.0516395
0.0486384
0.0447381
0.0405074
0.0346224
0.0259839
0.0182063
0.0129801
0.00966778
0.0077725
0.00640007
0.00542363
0.00486311
0.00528234
0.00639565
0.00745726
0.00826569
0.00830712
0.00838814
0.00802562
0.00728169
0.00617574
0.00474233
0.00368711
0.00326747
0.00354946
0.00568946
0.012983
0.0254604
0.0337203
0.0350248
0.0329006
0.030392
0.0272075
0.0190694
0.0159919
0.0231945
0.0701707
0.153332
0.196042
0.199684
0.162138
0.184759
0.216886
0.0708972
0.042049
0.0400935
0.0458198
0.0604444
0.0742664
0.0823212
0.0916309
0.0987404
0.106318
0.111887
0.113494
0.113781
0.113088
0.111328
0.108192
0.102358
0.0906442
0.0643887
0.0400247
0.025016
0.0161857
0.0121589
0.0103783
0.009613
0.00918214
0.0089326
0.00888164
0.00902623
0.0094753
0.0103302
0.0115152
0.0128297
0.0155428
0.0191989
0.0213638
0.0221949
0.0224453
0.0223864
0.0219847
0.0206348
0.016898
0.0104478
0.00624803
0.00389564
0.00264565
0.00206438
0.00185993
0.00184664
0.00189025
0.00201393
0.00233023
0.00343132
0.00834651
0.0153469
0.0196556
0.0276028
0.0355783
0.03924
0.0393459
0.0379783
0.0373422
0.0378891
0.0383501
0.0375728
0.0327585
0.0214145
0.0136272
0.00957135
0.00768771
0.00687054
0.00664227
0.00603282
0.00517442
0.0439182
0.0312379
0.00413168
0.0487977
0.0734842
0.0856407
0.091076
0.0979393
0.108368
0.120031
0.128472
0.12321
0.107804
0.0890642
0.0808224
0.0684774
0.0430529
0.036962
0.0368305
0.0397351
0.0474071
0.0508677
0.0504953
0.0436407
0.0275499
0.017114
0.0140651
0.0125491
0.0101968
0.00785687
0.00710132
0.00675263
0.00663353
0.00666211
0.00699042
0.00766071
0.00856146
0.00957962
0.0106381
0.0116499
0.0128991
0.0157853
0.0217482
0.0312642
0.043824
0.0500692
0.0522593
0.0536584
0.0552252
0.056946
0.0577502
0.0579737
0.0578599
0.0573085
0.0567799
0.0564737
0.0563344
0.0562825
0.0562495
0.0561032
0.0557781
0.0553406
0.0541586
0.0519664
0.0486203
0.0452723
0.0432219
0.0399717
0.0352491
0.0273675
0.0185783
0.0124908
0.00863413
0.00597476
0.00433594
0.00342974
0.00301747
0.00294946
0.00363929
0.00528731
0.00707747
0.00849987
0.00897976
0.00899917
0.00856837
0.0070812
0.00489797
0.00337914
0.00294704
0.00315743
0.0048713
0.0101669
0.0184092
0.0246811
0.0268918
0.0266171
0.0217458
0.0167806
0.023537
0.0823881
0.159495
0.201347
0.204443
0.164736
0.18692
0.195832
0.0682882
0.0419851
0.0408706
0.0478652
0.0664567
0.0794408
0.0865472
0.093806
0.100804
0.108735
0.112484
0.113704
0.113829
0.112567
0.110279
0.107275
0.102542
0.0927176
0.0702365
0.0424813
0.0245051
0.0156031
0.0116187
0.00983371
0.00904191
0.00870876
0.00862866
0.00867284
0.00888408
0.00943919
0.0104249
0.0118335
0.0147764
0.018879
0.021098
0.0219475
0.0222799
0.022203
0.0217594
0.0203801
0.0168174
0.0106171
0.00638088
0.00382662
0.00238516
0.00181417
0.00163836
0.00164698
0.0016797
0.00180225
0.00191645
0.00202761
0.00233263
0.0036073
0.00867078
0.0131931
0.0204866
0.0318665
0.0390225
0.040875
0.0403886
0.0390442
0.039205
0.0399231
0.0397495
0.0375555
0.028552
0.0182412
0.0127092
0.00984485
0.00793785
0.00658422
0.00554267
0.00452501
0.0415696
0.0256694
0.00288685
0.0578789
0.0767231
0.0879926
0.0945435
0.104368
0.118035
0.127425
0.128612
0.120407
0.100168
0.0839003
0.0745521
0.0551805
0.0342692
0.0293337
0.0289169
0.0308813
0.0364286
0.0419324
0.0428292
0.0399307
0.02904
0.0164158
0.0116644
0.00978429
0.00848537
0.00691049
0.0063882
0.00623862
0.00621357
0.00631648
0.00668979
0.00738491
0.00834573
0.00945675
0.0106404
0.0119044
0.0139879
0.016921
0.0215681
0.0301632
0.0426297
0.0509209
0.0542414
0.0557931
0.0569701
0.0577805
0.0580353
0.0579738
0.0575286
0.0563636
0.0549636
0.0543721
0.0542505
0.054921
0.0554734
0.0558053
0.0558674
0.0556685
0.0550484
0.0533931
0.0499542
0.0455251
0.0436775
0.0420492
0.0399907
0.0378963
0.0341258
0.0260926
0.0172963
0.0112976
0.00704811
0.00450901
0.0031467
0.00247192
0.00211989
0.00194635
0.00209103
0.0032568
0.00579914
0.00819074
0.00917281
0.00933565
0.00895509
0.00727416
0.00462975
0.00294026
0.00236397
0.00236315
0.00331907
0.00655775
0.0130447
0.0189892
0.0198089
0.0168126
0.0230716
0.0876306
0.159563
0.202382
0.205077
0.164718
0.18717
0.181547
0.0685928
0.0422911
0.0415048
0.051839
0.0716073
0.0818881
0.0870453
0.0933555
0.0997022
0.106996
0.10975
0.110222
0.109993
0.108039
0.105279
0.101998
0.0987089
0.0924887
0.0726705
0.0434813
0.0245924
0.0156913
0.0116498
0.00984258
0.00905417
0.0087586
0.00873432
0.00882781
0.00916952
0.0099743
0.0115276
0.0148079
0.0190747
0.0210077
0.0217075
0.0220291
0.0218912
0.021296
0.0196752
0.0158867
0.00999057
0.00587095
0.00338661
0.00205975
0.00152181
0.00144336
0.00151189
0.00165118
0.00185072
0.00244762
0.00279393
0.00275089
0.00271892
0.00300029
0.00478438
0.00806622
0.012648
0.0239661
0.0367848
0.0419109
0.0422923
0.0412301
0.0408292
0.0413118
0.0415222
0.0406364
0.0353186
0.0231213
0.0153128
0.0117257
0.00946719
0.0076148
0.00599782
0.00463261
0.0378121
0.0231537
0.00443789
0.0603522
0.0784509
0.0908164
0.0993281
0.112915
0.124513
0.128259
0.126987
0.114677
0.09268
0.0777153
0.0607318
0.0427067
0.0255804
0.0224593
0.0226974
0.0238723
0.0267514
0.0314678
0.03488
0.0349173
0.0298219
0.0184074
0.0116041
0.00914759
0.00790893
0.00681265
0.00622309
0.00610172
0.00610415
0.00625148
0.00665804
0.00737376
0.00836844
0.00960808
0.0110345
0.0126473
0.0145238
0.0169689
0.0208822
0.0277672
0.0392328
0.0500215
0.05415
0.0559167
0.0569822
0.0576631
0.0578593
0.0575606
0.0561387
0.0539688
0.0527635
0.0523169
0.052256
0.0530747
0.0542695
0.0552313
0.0556332
0.0556276
0.0553126
0.0541047
0.0509503
0.0442967
0.0397131
0.0394252
0.0394141
0.0388578
0.0380251
0.0364094
0.0320488
0.0235834
0.0153293
0.00993259
0.00658361
0.0045299
0.00314311
0.0021571
0.00154218
0.0012738
0.00138913
0.00254441
0.00550598
0.00824279
0.00934922
0.00952327
0.00904281
0.00678961
0.00375537
0.00217269
0.00164089
0.00162819
0.00253941
0.00695899
0.0135763
0.0142852
0.019235
0.0883996
0.14928
0.197466
0.203195
0.164565
0.187402
0.170495
0.0691908
0.0430296
0.0426513
0.0531496
0.0726248
0.0819332
0.0866845
0.091387
0.0947506
0.099834
0.101072
0.100333
0.0992733
0.0980955
0.0972658
0.0953738
0.0924336
0.0879028
0.072989
0.0432744
0.024926
0.0160738
0.0120323
0.0102902
0.0096237
0.00948605
0.0095567
0.00986141
0.0106296
0.0121609
0.0155111
0.0191749
0.0208894
0.0215046
0.0217186
0.0214905
0.0206698
0.0185985
0.0140965
0.00804655
0.00424436
0.00231531
0.00146197
0.00115808
0.00118687
0.00131056
0.00174326
0.00235533
0.00312705
0.00521067