/*--------------------------------*- C++ -*----------------------------------*\
  =========                 |
  \\      /  F ield         | OpenFOAM: The Open Source CFD Toolbox
   \\    /   O peration     | Website:  https://openfoam.org
    \\  /    A nd           | Version:  9
     \\/     M anipulation  |
\*---------------------------------------------------------------------------*/
FoamFile
{
    format      ascii;
    class       volScalarField;
    location    "0.091";
    object      p;
}
// * * * * * * * * * * * * * * * * * * * * * * * * * * * * * * * * * * * * * //

dimensions      [0 2 -2 0 0 0 0];

internalField   nonuniform List<scalar> 
12225
(
-26.5583
-33.8523
-38.1702
-41.0127
-42.9223
-44.1843
-44.9406
-45.3229
-45.471
-45.4577
-45.2909
-44.9709
-44.5294
-44.0086
-43.4297
-42.7589
-41.959
-40.9172
-27.9858
-33.9834
-38.2524
-41.0886
-42.9643
-44.2013
-44.9544
-45.3408
-45.491
-45.4777
-45.3116
-44.9972
-44.5648
-44.0555
-43.4881
-42.844
-42.0798
-41.2264
-28.4773
-34.1601
-38.3832
-41.2008
-43.044
-44.2574
-45.0019
-45.3868
-45.5344
-45.5166
-45.3491
-45.042
-44.6248
-44.1341
-43.5881
-42.9738
-42.2844
-41.5915
-28.5051
-34.5008
-38.6104
-41.3777
-43.1866
-44.363
-45.0829
-45.454
-45.5919
-45.5668
-45.3993
-45.1028
-44.7051
-44.2372
-43.7158
-43.1424
-42.5315
-41.9481
-29.0569
-35.1211
-38.9668
-41.636
-43.3753
-44.5043
-45.1963
-45.5531
-45.682
-45.6516
-45.4844
-45.1955
-44.812
-44.3622
-43.8668
-43.3378
-42.7957
-42.2907
-31.0069
-35.7521
-39.42
-41.9793
-43.647
-44.7175
-45.3645
-45.6903
-45.7991
-45.7557
-45.583
-45.2994
-44.9317
-44.5061
-44.0431
-43.5567
-43.0685
-42.6177
-32.6429
-36.6366
-40.0564
-42.4414
-43.9826
-44.9773
-45.5742
-45.8667
-45.9548
-45.8984
-45.7188
-45.4372
-45.0821
-44.6782
-44.2437
-43.7946
-43.3514
-42.9442
-32.6384
-37.3916
-40.8001
-43.0344
-44.4338
-45.3238
-45.8477
-46.0925
-46.15
-46.0723
-45.8803
-45.5983
-45.2548
-44.8717
-44.4653
-44.0511
-43.647
-43.2742
-32.2871
-38.6112
-41.7604
-43.7284
-44.9637
-45.7415
-46.1807
-46.3641
-46.3836
-46.2869
-46.0868
-45.8037
-45.4674
-45.1009
-44.7192
-44.3343
-43.9616
-43.6138
-34.4218
-40.3891
-42.9997
-44.6415
-45.6402
-46.2568
-46.5876
-46.7006
-46.6733
-46.5447
-46.3261
-46.0369
-45.7049
-45.3512
-44.9889
-44.628
-44.2802
-43.9549
-36.8511
-42.5701
-44.4829
-45.6411
-46.3925
-46.852
-47.0671
-47.0966
-47.0104
-46.8432
-46.6026
-46.3049
-45.9757
-45.6342
-45.289
-44.9467
-44.6163
-44.3058
-45.4704
-45.454
-46.1402
-46.7827
-47.2437
-47.5051
-47.5763
-47.5139
-47.3783
-47.1811
-46.9201
-46.6095
-46.2737
-45.9311
-45.5905
-45.2579
-44.941
-44.645
-50.5374
-48.1993
-47.8937
-47.9515
-48.1013
-48.1839
-48.1317
-47.9826
-47.7796
-47.5357
-47.2463
-46.9203
-46.5788
-46.2381
-45.9056
-45.5848
-45.281
-44.9985
-55.8315
-50.9652
-49.85
-49.452
-49.2536
-49.0904
-48.8588
-48.5861
-48.3046
-48.0076
-47.6822
-47.3348
-46.9826
-46.638
-46.3062
-45.9899
-45.6928
-45.4188
-57.0673
-54.1835
-52.2852
-51.2997
-50.6384
-50.1777
-49.7495
-49.3296
-48.9358
-48.5548
-48.173
-47.7961
-47.4335
-47.0893
-46.7634
-46.4559
-46.17
-45.9077
-57.6769
-55.0382
-53.9109
-52.7901
-52.0687
-51.4572
-50.8363
-50.268
-49.7625
-49.3034
-48.8683
-48.4529
-48.0603
-47.6941
-47.3546
-47.0418
-46.7543
-46.4925
-56.4552
-58.5077
-56.9335
-55.3921
-54.129
-53.1326
-52.1657
-51.3809
-50.7232
-50.1393
-49.6178
-49.1524
-48.7309
-48.3457
-47.9961
-47.6819
-47.4003
-47.1484
-70.7969
-63.4585
-59.834
-57.6402
-55.8721
-54.3886
-53.3483
-52.4949
-51.7487
-51.0853
-50.5034
-49.994
-49.5424
-49.1378
-48.7761
-48.4529
-48.1645
-47.9081
-72.3857
-67.4463
-63.2512
-60.2837
-58.0782
-56.2923
-54.8871
-53.7637
-52.836
-52.0644
-51.4168
-50.8559
-50.3643
-49.9331
-49.5566
-49.2265
-48.9357
-48.6796
-71.025
-67.1077
-63.2607
-60.3957
-58.3223
-56.6456
-55.3419
-54.3149
-53.447
-52.6806
-52.028
-51.4697
-50.9793
-50.5474
-50.167
-49.8314
-49.5356
-49.276
-77.9517
-67.6563
-63.0863
-60.4653
-58.2977
-56.7019
-55.4876
-54.5041
-53.6637
-52.9527
-52.329
-51.7932
-51.3202
-50.9021
-50.5308
-50.2033
-49.9152
-49.6617
-64.8653
-63.2149
-61.0781
-59.1666
-57.6655
-56.4638
-55.4476
-54.5693
-53.8154
-53.1457
-52.5534
-52.0259
-51.5649
-51.1554
-50.7877
-50.4621
-50.1755
-49.9232
-63.1575
-60.3597
-59.2238
-58.0214
-56.9417
-56.0254
-55.1513
-54.4399
-53.7868
-53.1798
-52.628
-52.1445
-51.7126
-51.3219
-50.9697
-50.6514
-50.3697
-50.1185
-52.0587
-56.2732
-57.229
-56.9508
-56.3717
-55.7507
-55.1047
-54.4332
-53.8158
-53.2478
-52.7284
-52.2476
-51.8158
-51.4237
-51.0711
-50.7577
-50.4776
-50.2307
-50.1537
-54.682
-55.9385
-56.1118
-55.8681
-55.3937
-54.841
-54.2855
-53.7436
-53.2233
-52.7364
-52.2897
-51.8809
-51.5067
-51.1636
-50.8516
-50.5734
-50.3275
-52.6909
-54.0276
-55.1515
-55.5769
-55.5673
-55.2336
-54.769
-54.2406
-53.7361
-53.2396
-52.7654
-52.3254
-51.9181
-51.5411
-51.1955
-50.885
-50.6117
-50.3731
-51.1126
-53.3264
-54.6073
-55.1845
-55.2745
-55.0606
-54.6232
-54.1432
-53.6849
-53.2229
-52.773
-52.3513
-51.9555
-51.5834
-51.2387
-50.9271
-50.6524
-50.4134
-51.0841
-53.007
-54.2987
-54.9777
-55.1624
-54.9969
-54.5818
-54.1302
-53.6782
-53.2254
-52.7768
-52.3551
-51.9613
-51.5907
-51.2463
-50.9362
-50.6634
-50.4289
-49.243
-52.6796
-54.1614
-54.8433
-55.0528
-54.9078
-54.5286
-54.0938
-53.6596
-53.2225
-52.7884
-52.3768
-51.9862
-51.6107
-51.2564
-50.9347
-50.656
-50.4224
-50.024
-52.6088
-54.1054
-54.8129
-55.0425
-54.8991
-54.5137
-54.0694
-53.6345
-53.2042
-52.7809
-52.3786
-51.9944
-51.6218
-51.2668
-50.9422
-50.6595
-50.4201
-41.304
-41.3578
-41.4382
-41.5049
-41.5226
-41.4824
-41.3847
-41.2633
-41.1614
-41.0997
-41.0976
-41.1743
-41.3275
-41.5003
-41.6628
-41.8217
-41.9756
-42.1028
-42.2447
-42.4658
-42.8178
-43.3032
-43.8681
-44.4452
-44.9814
-45.4279
-45.7371
-45.8839
-45.8484
-45.6078
-45.1764
-44.6841
-44.2627
-44.0054
-43.8444
-43.7495
-43.6564
-43.4332
-43.3353
-43.6832
-44.4558
-45.6436
-47.2965
-49.5018
-52.2939
-55.6
-59.249
-63.0313
-66.7482
-70.2377
-73.3794
-76.0888
-78.305
-79.9816
-81.086
-81.5991
-81.5151
-80.8305
-79.5696
-77.7669
-75.4681
-72.727
-69.6027
-66.1602
-62.4676
-58.598
-54.6334
-50.6742
-46.8544
-43.36
-40.4394
-38.3787
-37.3618
-37.2347
-37.5855
-37.5698
-36.3076
-33.6487
-29.5651
-26.1463
-23.5566
-21.6826
-19.8451
-17.836
-15.8785
-14.2205
-12.7885
-11.5181
-10.4096
-9.37656
-8.36146
-7.34612
-6.3092
-5.24185
-4.12571
-2.96933
-1.78312
-0.586543
0.638957
1.89669
3.10417
4.16563
5.09457
6.10171
6.91099
7.33874
8.02522
7.81969
8.78326
9.64673
2.49287
-10.1788
-24.1747
-37.2742
-48.1585
-56.2448
-61.2673
-63.2104
-62.2374
-58.6215
-52.8321
-45.4577
-37.1805
-28.6794
-20.536
-13.147
-6.70072
-1.2269
3.34047
7.12351
10.2586
12.8476
14.9404
16.5492
17.6708
18.3082
18.5583
18.5573
18.4417
18.3039
18.193
18.1305
18.1074
18.0984
18.0712
17.9871
17.8052
17.4902
17.0186
16.3835
15.5941
14.6754
13.6708
12.6418
11.6684
10.8426
10.2675
10.0464
10.1793
10.6611
11.4197
12.3382
13.4339
14.7661
15.3017
14.1629
12.7045
12.6754
14.155
16.0553
17.8207
19.291
20.4593
21.4438
22.364
23.2797
24.1933
25.0745
25.928
26.7404
-41.4833
-41.5565
-41.6672
-41.7739
-41.819
-41.7809
-41.6702
-41.5118
-41.3626
-41.2539
-41.2124
-41.2531
-41.3879
-41.545
-41.6692
-41.8127
-42.0218
-42.2402
-42.4477
-42.7136
-43.0968
-43.6063
-44.2007
-44.8212
-45.4142
-45.9175
-46.2828
-46.5109
-46.6005
-46.4332
-45.8978
-45.0882
-44.2101
-43.3099
-42.7344
-43.1472
-43.6492
-43.8293
-44.1109
-44.8279
-46.0058
-47.6034
-49.6295
-52.1186
-55.0725
-58.4054
-61.9618
-65.5668
-69.065
-72.3325
-75.2734
-77.8116
-79.8846
-81.4428
-82.4487
-82.8772
-82.7161
-81.9766
-80.6723
-78.834
-76.505
-73.7404
-70.6038
-67.1632
-63.4905
-59.6609
-55.7561
-51.8727
-48.1343
-44.7096
-41.8309
-39.7858
-38.7904
-38.7216
-39.1081
-39.0476
-37.4948
-34.6428
-30.6082
-26.7598
-24.04
-22.1522
-20.2593
-18.2162
-16.214
-14.418
-12.8622
-11.5306
-10.3915
-9.34326
-8.33831
-7.35159
-6.35157
-5.31464
-4.22106
-3.06981
-1.89432
-0.710161
0.505243
1.78037
3.04591
4.16192
5.10601
6.02856
6.88059
7.43764
8.04637
8.06453
7.21768
4.77903
-3.94439
-16.4796
-29.6778
-41.7893
-51.8028
-59.2009
-63.7097
-65.2637
-63.984
-60.1515
-54.1673
-46.593
-38.1031
-29.3978
-21.0819
-13.5689
-7.04887
-1.54481
3.02256
6.78669
9.89812
12.4774
14.5875
16.242
17.4223
18.1183
18.4125
18.4418
18.3456
18.2222
18.1234
18.0702
18.0527
18.0462
18.0188
17.9315
17.7434
17.4194
16.9371
16.2908
15.4911
14.5639
13.5531
12.5197
11.5395
10.7051
10.1102
9.82712
9.89031
10.2922
11.0504
12.0324
13.0997
14.2863
14.7347
13.5721
12.349
12.6596
14.2568
16.1184
17.8422
19.3148
20.5131
21.4953
22.3781
23.2697
24.1774
25.0672
25.9261
26.7147
-41.5479
-41.5992
-41.6783
-41.7651
-41.827
-41.8341
-41.7778
-41.6767
-41.5693
-41.4856
-41.4386
-41.4416
-41.5333
-41.7042
-41.8628
-41.9751
-42.0591
-42.139
-42.2949
-42.6009
-43.0579
-43.6375
-44.3025
-45.0143
-45.7399
-46.4182
-46.9728
-47.3354
-47.438
-47.1504
-46.44
-45.6952
-45.208
-44.8502
-44.5314
-44.5216
-44.8963
-45.5217
-46.3961
-47.5925
-49.1648
-51.132
-53.4811
-56.1741
-59.1536
-62.3386
-65.6341
-68.939
-72.1568
-75.1959
-77.968
-80.3882
-82.3801
-83.8792
-84.8348
-85.2134
-85.0021
-84.203
-82.831
-80.9192
-78.5172
-75.6878
-72.503
-69.0394
-65.3758
-61.5918
-57.7692
-53.9967
-50.3775
-47.0421
-44.17
-42.0002
-40.7493
-40.3658
-40.4034
-39.981
-38.2418
-35.0775
-31.1045
-27.4002
-24.7805
-22.9061
-21.0381
-18.9729
-16.7527
-14.6362
-12.8701
-11.4173
-10.2519
-9.23925
-8.30823
-7.40367
-6.47297
-5.493
-4.42574
-3.31581
-2.16123
-0.998379
0.196017
1.50284
2.87815
4.10972
5.18442
6.22788
7.16329
7.88372
8.08326
6.77164
3.00361
-3.71684
-13.6762
-25.0924
-36.7993
-47.5853
-56.6466
-63.36
-67.3919
-68.6021
-67.0502
-62.9415
-56.6569
-48.7361
-39.863
-30.7781
-22.1373
-14.3881
-7.72515
-2.1604
2.40815
6.13508
9.19557
11.7479
13.8738
15.5928
16.8649
17.6692
18.0571
18.1597
18.1202
18.0415
17.9774
17.9479
17.944
17.9434
17.9155
17.8215
17.6196
17.2753
16.7686
16.0966
15.273
14.3258
13.2981
12.2509
11.263
10.4169
9.79205
9.47767
9.51791
9.87776
10.5458
11.4327
12.4429
13.4822
13.978
13.4407
12.895
13.2744
14.6086
16.2911
17.9241
19.3207
20.4578
21.4279
22.3623
23.2868
24.2036
25.0674
25.903
26.6613
-41.2916
-41.2661
-41.2296
-41.2877
-41.4157
-41.562
-41.6943
-41.7907
-41.8509
-41.8985
-41.9505
-41.9946
-42.0327
-42.0592
-42.0548
-42.0316
-41.9701
-41.9
-41.9641
-42.2174
-42.6354
-43.2004
-43.8903
-44.6654
-45.4655
-46.1801
-46.7613
-47.2069
-47.4546
-47.4018
-47.0299
-46.54
-46.1858
-46.0519
-46.1387
-46.47
-47.0674
-47.9587
-49.1717
-50.7312
-52.6514
-54.9245
-57.5136
-60.3562
-63.3794
-66.5099
-69.6821
-72.835
-75.9062
-78.8241
-81.5088
-83.8757
-85.8411
-87.3274
-88.2687
-88.6177
-88.3646
-87.491
-86.0115
-83.9681
-81.4225
-78.451
-75.1381
-71.5719
-67.84
-64.0271
-60.2144
-56.4819
-52.911
-49.5903
-46.6282
-44.1689
-42.3686
-41.2466
-40.489
-39.3607
-37.1246
-33.8548
-30.2008
-27.0904
-24.9773
-23.3848
-21.5647
-19.5385
-17.2512
-14.942
-12.9787
-11.3856
-10.1795
-9.21156
-8.36067
-7.54768
-6.70392
-5.78745
-4.78083
-3.70555
-2.57846
-1.45579
-0.291339
1.04905
2.53223
3.90526
5.10179
6.31675
7.36443
7.79275
7.17342
3.3631
-3.66984
-12.7643
-23.0941
-33.8794
-44.6258
-54.4382
-62.6753
-68.7373
-72.2753
-73.0994
-71.2356
-66.8183
-60.1716
-51.8035
-42.407
-32.7858
-23.6773
-15.5827
-8.70115
-3.0255
1.57676
5.286
8.28697
10.7856
12.8995
14.6688
16.0427
16.9796
17.4972
17.7113
17.7662
17.7674
17.7676
17.7829
17.8036
17.8116
17.7798
17.6708
17.4431
17.0637
16.5158
15.8015
14.9378
13.9552
12.9003
11.8321
10.8208
9.95752
9.32827
8.99052
8.99497
9.31876
9.92384
10.7448
11.6837
12.6387
13.2983
13.2871
13.1394
13.6466
14.9358
16.4889
17.9659
19.2922
20.4398
21.4482
22.3767
23.2843
24.1828
25.0511
25.8867
26.6298
-41.2682
-41.245
-41.217
-41.2698
-41.4448
-41.7017
-41.9579
-42.1699
-42.3259
-42.4373
-42.5132
-42.5508
-42.5484
-42.4798
-42.3329
-42.1456
-41.9128
-41.7034
-41.6657
-41.8329
-42.1572
-42.6164
-43.1667
-43.7939
-44.4687
-45.143
-45.7297
-46.1844
-46.4949
-46.6603
-46.7137
-46.7401
-46.8396
-47.0976
-47.557
-48.2341
-49.1517
-50.3564
-51.8951
-53.7973
-56.0615
-58.6499
-61.4931
-64.5086
-67.6224
-70.7812
-73.9501
-77.0948
-80.1675
-83.102
-85.8184
-88.2296
-90.2455
-91.7812
-92.7667
-93.1399
-92.8192
-91.8159
-90.1637
-87.9162
-85.1466
-81.9444
-78.4081
-74.6384
-70.7319
-66.778
-62.8564
-59.0366
-55.379
-51.9373
-48.7605
-45.9026
-43.4279
-41.3541
-39.5146
-37.43
-34.5786
-31.2422
-27.978
-25.6231
-24.1299
-22.8864
-21.2624
-19.4223
-17.349
-15.1339
-13.159
-11.499
-10.2238
-9.31625
-8.49496
-7.75676
-6.99709
-6.16572
-5.23724
-4.22135
-3.14894
-2.0947
-0.990856
0.337215
1.84756
3.31177
4.7491
6.1509
7.22259
7.43455
4.80519
-1.98729
-11.3061
-21.4579
-31.9489
-42.5394
-52.7764
-61.9545
-69.5355
-75.0288
-78.1185
-78.5902
-76.4102
-71.6747
-64.6437
-55.7702
-45.7427
-35.4455
-25.7334
-17.1851
-10.0068
-4.16498
0.515392
4.25564
7.22169
9.68712
11.7938
13.5872
15.0395
16.0991
16.7592
17.113
17.2946
17.4056
17.4942
17.5707
17.6258
17.645
17.6051
17.4704
17.2012
16.7679
16.1598
15.3846
14.4645
13.4327
12.3332
11.2281
10.1927
9.30773
8.6479
8.2776
8.25662
8.5733
9.17634
9.98011
10.8726
11.8102
12.6236
12.9787
13.1945
13.9185
15.2202
16.6733
18.048
19.301
20.4178
21.4169
22.3587
23.2793
24.1835
25.0427
25.8579
26.5856
-41.5359
-41.5516
-41.5791
-41.7208
-41.9698
-42.2521
-42.51
-42.7215
-42.8825
-42.9915
-43.0429
-43.0303
-42.952
-42.7998
-42.5685
-42.2741
-41.939
-41.6862
-41.5844
-41.6313
-41.8086
-42.1032
-42.4995
-42.9743
-43.4991
-44.0416
-44.5684
-45.0542
-45.4897
-45.8884
-46.2851
-46.7233
-47.2416
-47.8814
-48.6842
-49.6916
-50.9479
-52.504
-54.4084
-56.6859
-59.3177
-62.2357
-65.3393
-68.5306
-71.7477
-74.971
-78.198
-81.4144
-84.5804
-87.6329
-90.4904
-93.0553
-95.2184
-96.8726
-97.9258
-98.3031
-97.9221
-96.7969
-94.9592
-92.4689
-89.4123
-85.8964
-82.0393
-77.9596
-73.7684
-69.5631
-65.4239
-61.4113
-57.5656
-53.9111
-50.4592
-47.2095
-44.1511
-41.258
-38.4347
-35.4483
-32.0757
-28.5327
-25.5171
-23.5634
-22.4541
-21.6222
-20.298
-18.7431
-17.0445
-15.1544
-13.3523
-11.7386
-10.4424
-9.4553
-8.65806
-7.97533
-7.30819
-6.58605
-5.77211
-4.85613
-3.87981
-2.92913
-1.93599
-0.726834
0.603405
1.97138
3.5048
5.10571
6.09542
5.60008
0.796237
-8.43513
-19.0114
-29.6896
-40.4088
-51.0185
-60.968
-69.6835
-76.7114
-81.6967
-84.3814
-84.5556
-82.1372
-77.1635
-69.8179
-60.4736
-49.7854
-38.7218
-28.2979
-19.1983
-11.6503
-5.59432
-0.794901
3.03111
5.96584
8.47586
10.601
12.425
13.9421
15.106
15.904
16.4123
16.7446
16.9853
17.1724
17.3113
17.396
17.417
17.3559
17.1797
16.8516
16.348
15.666
14.8197
13.8333
12.7408
11.5882
10.4353
9.35561
8.43295
7.75175
7.37331
7.33127
7.63001
8.2336
9.06154
9.99631
10.9735
11.8892
12.5367
13.1238
14.0769
15.4126
16.8126
18.1072
19.2922
20.3884
21.4039
22.3657
23.2895
24.184
25.0316
25.8374
26.5619
-41.2312
-41.464
-41.7638
-42.0814
-42.4057
-42.7211
-43.0035
-43.2394
-43.4203
-43.5355
-43.5719
-43.5194
-43.3679
-43.1193
-42.795
-42.4215
-42.0557
-41.8067
-41.6667
-41.6347
-41.7039
-41.8668
-42.1201
-42.4598
-42.8712
-43.3331
-43.829
-44.3483
-44.8883
-45.4587
-46.0806
-46.7792
-47.5792
-48.5098
-49.6096
-50.9267
-52.515
-54.4288
-56.7101
-59.366
-62.35
-65.5619
-68.8781
-72.2046
-75.5124
-78.8281
-82.1865
-85.587
-88.9849
-92.3087
-95.4685
-98.3516
-100.822
-102.732
-103.937
-104.338
-103.949
-102.729
-100.684
-97.883
-94.4356
-90.4779
-86.1575
-81.619
-76.9932
-72.3898
-67.8952
-63.5685
-59.4399
-55.514
-51.777
-48.2008
-44.7444
-41.3528
-37.9482
-34.4352
-30.8079
-27.2946
-24.3341
-22.3089
-21.1786
-20.4367
-19.3753
-18.0452
-16.7645
-15.1182
-13.5198
-12.0223
-10.722
-9.6628
-8.83184
-8.16737
-7.57896
-6.98205
-6.32494
-5.56672
-4.74791
-3.95975
-3.15602
-2.2107
-1.3121
-0.281933
1.20925
2.88055
3.62173
2.07728
-4.68441
-15.3353
-26.5029
-37.5054
-48.4928
-59.1316
-68.8396
-77.1411
-83.6692
-88.1942
-90.5284
-90.4834
-87.9133
-82.8152
-75.2987
-65.6213
-54.3503
-42.5081
-31.308
-21.5818
-13.6015
-7.29644
-2.35577
1.5387
4.61273
7.16567
9.33817
11.2126
12.7964
14.057
14.9882
15.6564
16.1525
16.5348
16.8209
17.0099
17.1031
17.1031
16.9988
16.7611
16.3584
15.7752
15.0154
14.0968
13.0449
11.8912
10.6774
9.46443
8.33013
7.3575
6.63242
6.22931
6.18626
6.49629
7.12032
7.99693
9.01157
10.0642
11.0927
12.0032
12.9184
14.0892
15.4974
16.8936
18.1534
19.3046
20.3891
21.4117
22.3796
23.3017
24.1908
25.0334
25.8295
26.5502
-41.4386
-41.7228
-42.1513
-42.521
-42.8705
-43.204
-43.5126
-43.7775
-43.9732
-44.0835
-44.098
-44.0069
-43.802
-43.4961
-43.1114
-42.6866
-42.3324
-42.0785
-41.9138
-41.8365
-41.8399
-41.9214
-42.087
-42.3421
-42.6803
-43.0897
-43.5626
-44.0962
-44.6923
-45.3591
-46.1117
-46.9713
-47.9613
-49.1107
-50.4577
-52.0499
-53.94
-56.1784
-58.7963
-61.78
-65.0544
-68.493
-71.9664
-75.4068
-78.8385
-82.3401
-85.9725
-89.7333
-93.5632
-97.3744
-101.06
-104.48
-107.463
-109.817
-111.365
-111.984
-111.614
-110.238
-107.886
-104.642
-100.645
-96.0698
-91.1029
-85.9245
-80.6909
-75.5261
-70.5213
-65.7377
-61.2065
-56.9296
-52.8829
-49.0247
-45.3076
-41.6763
-38.0603
-34.4106
-30.7866
-27.3944
-24.5354
-22.4418
-21.047
-20.0835
-19.0736
-17.8678
-16.5943
-15.1426
-13.6704
-12.2432
-10.9458
-9.84014
-8.96621
-8.30463
-7.78326
-7.31559
-6.84033
-6.29172
-5.6998
-5.15497
-4.64141
-4.14048
-3.93589
-3.46082
-2.21751
-0.649403
-0.311679
-2.83108
-10.9816
-22.2364
-33.621
-44.8269
-56.009
-66.5816
-76.016
-83.9096
-89.9748
-94.0694
-96.0717
-95.8305
-93.1694
-88.0635
-80.5599
-70.7675
-59.1069
-46.5855
-34.6109
-24.2367
-15.7928
-9.21812
-4.12771
-0.0879834
3.12959
5.78163
8.03727
9.9864
11.6474
13.0044
14.0663
14.8938
15.5534
16.0744
16.4505
16.6733
16.7533
16.7077
16.5358
16.2166
15.7285
15.0645
14.2332
13.2507
12.1377
10.9227
9.64644
8.36598
7.15934
6.11985
5.33438
4.88059
4.82031
5.15196
5.82623
6.77752
7.89758
9.07422
10.2498
11.3872
12.5637
13.9396
15.4673
16.9201
18.1905
19.3281
20.4018
21.4263
22.4011
23.3274
24.2128
25.0479
25.8327
26.5498
-42.3397
-42.5658
-42.8194
-43.0825
-43.3781
-43.6957
-43.994
-44.2307
-44.3843
-44.4434
-44.4091
-44.2724
-44.0252
-43.7006
-43.3222
-42.9377
-42.6244
-42.3886
-42.2228
-42.1271
-42.0976
-42.1374
-42.2576
-42.4663
-42.7589
-43.1291
-43.577
-44.1064
-44.7238
-45.4417
-46.2772
-47.2507
-48.3862
-49.7119
-51.264
-53.0873
-55.2305
-57.7367
-60.6232
-63.8565
-67.342
-70.9443
-74.5476
-78.1262
-81.7609
-85.5748
-89.6383
-93.9281
-98.3631
-102.842
-107.24
-111.38
-115.04
-117.979
-119.975
-120.856
-120.534
-118.985
-116.25
-112.448
-107.761
-102.417
-96.6545
-90.6992
-84.7409
-78.921
-73.3319
-68.0277
-63.0338
-58.3531
-53.9656
-49.838
-45.9257
-42.1741
-38.5221
-34.9399
-31.4777
-28.2691
-25.5114
-23.3611
-21.7534
-20.4934
-19.283
-18
-16.6662
-15.26
-13.8119
-12.404
-11.1025
-9.97365
-9.06826
-8.40247
-7.92744
-7.56702
-7.2626
-6.94046
-6.62123
-6.38963
-6.26115
-6.38564
-7.0981
-7.29733
-6.5075
-5.18678
-5.29782
-8.52026
-17.3921
-28.7651
-40.1404
-51.4525
-62.6929
-73.0955
-82.2218
-89.7182
-95.3548
-99.0408
-100.718
-100.266
-97.5303
-92.4781
-85.1153
-75.4208
-63.614
-50.6144
-37.9472
-26.9681
-18.0863
-11.2866
-5.98279
-1.78495
1.59015
4.37492
6.74201
8.7862
10.5388
11.999
13.1882
14.1622
14.9664
15.6046
16.0493
16.2855
16.334
16.2263
15.9738
15.5685
15.0008
14.2689
13.3772
12.3357
11.161
9.8781
8.52693
7.16802
5.88047
4.75797
3.89528
3.38002
3.28044
3.61287
4.33822
5.38899
6.65221
8.00076
9.35373
10.6877
12.0751
13.64
15.3229
16.8847
18.2031
19.3465
20.4185
21.4512
22.4368
23.3676
24.2479
25.0748
25.8495
26.5618
-43.0713
-43.1681
-43.3287
-43.5626
-43.8468
-44.1308
-44.3795
-44.5605
-44.6619
-44.6719
-44.5904
-44.4185
-44.1514
-43.821
-43.4604
-43.13
-42.863
-42.652
-42.4969
-42.398
-42.355
-42.3743
-42.4695
-42.6503
-42.9131
-43.2543
-43.68
-44.2011
-44.829
-45.5794
-46.4735
-47.5347
-48.7867
-50.2563
-51.9769
-53.9875
-56.3285
-59.0321
-62.1043
-65.5031
-69.1297
-72.8565
-76.5925
-80.3536
-84.2639
-88.4809
-93.0748
-97.9991
-103.147
-108.402
-113.613
-118.564
-122.976
-126.556
-129.028
-130.182
-129.902
-128.161
-125.006
-120.586
-115.134
-108.934
-102.286
-95.4677
-88.71
-82.1849
-75.9995
-70.204
-64.8025
-59.7732
-55.0853
-50.7123
-46.6348
-42.8244
-39.2191
-35.7602
-32.4513
-29.3747
-26.6615
-24.4143
-22.6018
-21.1026
-19.7125
-18.3196
-16.9007
-15.4489
-13.9918
-12.5766
-11.2654
-10.1185
-9.18694
-8.50391
-8.04503
-7.74987
-7.57123
-7.44545
-7.38608
-7.48764
-7.78502
-8.65362
-10.4085
-11.1287
-11.0679
-10.0819
-10.6169
-14.3676
-23.2653
-34.5905
-45.8223
-57.1638
-68.3405
-78.5174
-87.3416
-94.4804
-99.7527
-103.087
-104.466
-103.793
-100.964
-95.9179
-88.6995
-79.2256
-67.4787
-54.2205
-41.0154
-29.5458
-20.3433
-13.288
-7.80408
-3.4463
0.0876325
3.01882
5.51216
7.66376
9.51647
11.083
12.3887
13.4795
14.3878
15.1025
15.5816
15.8092
15.8164
15.6462
15.3218
14.846
14.2157
13.428
12.4791
11.3705
10.1169
8.74569
7.29948
5.84314
4.46093
3.24752
2.30443
1.72817
1.58261
1.90531
2.67159
3.8267
5.25614
6.81472
8.38521
9.91907
11.4903
13.2215
15.0663
16.7717
18.1785
19.357
20.4424
21.4884
22.4848
23.4191
24.295
25.1148
25.8806
26.587
-43.4846
-43.5684
-43.7117
-43.9157
-44.159
-44.3933
-44.5956
-44.7368
-44.8036
-44.7809
-44.6648
-44.4614
-44.1814
-43.8567
-43.5272
-43.2425
-43.0102
-42.821
-42.6779
-42.5809
-42.5327
-42.5412
-42.6201
-42.7813
-43.0245
-43.3469
-43.7564
-44.2693
-44.9036
-45.6786
-46.6181
-47.7481
-49.0931
-50.6768
-52.5258
-54.6723
-57.1492
-59.9799
-63.1624
-66.6528
-70.3615
-74.1813
-78.0522
-82.0183
-86.233
-90.8764
-96.0166
-101.594
-107.475
-113.518
-119.544
-125.295
-130.444
-134.647
-137.586
-139.009
-138.777
-136.856
-133.309
-128.308
-122.126
-115.101
-107.591
-99.922
-92.3635
-85.117
-78.3129
-72.0202
-66.2563
-60.983
-56.1303
-51.63
-47.4527
-43.6032
-40.0646
-36.7607
-33.6194
-30.6388
-27.9054
-25.5168
-23.4828
-21.7589
-20.2011
-18.7067
-17.2216
-15.7292
-14.2496
-12.8171
-11.4881
-10.3201
-9.35965
-8.64363
-8.16669
-7.8874
-7.77318
-7.78178
-7.91251
-8.29144
-8.95048
-10.5229
-13.4149
-15.6542
-15.2836
-14.5331
-15.4404
-19.5598
-28.3195
-39.4134
-50.4722
-61.795
-72.8447
-82.8044
-91.3933
-98.265
-103.276
-106.35
-107.479
-106.584
-103.576
-98.4202
-91.2608
-82.0132
-70.4514
-57.1237
-43.5277
-31.7845
-22.3463
-15.1033
-9.47008
-4.96993
-1.29011
1.78147
4.3999
6.66141
8.61391
10.2756
11.6682
12.8292
13.7866
14.5265
15.006
15.2127
15.1843
14.9703
14.5983
14.0751
13.3981
12.5584
11.5431
10.3488
8.98987
7.49807
5.92357
4.33993
2.83992
1.52507
0.500581
-0.133063
-0.306263
0.0233117
0.838579
2.09569
3.69581
5.48891
7.32101
9.08863
10.8418
12.7174
14.7082
16.575
18.1137
19.3621
20.4749
21.5365
22.5444
23.4829
24.3552
25.168
25.925
26.6249
-43.6608
-43.7437
-43.8627
-44.042
-44.2532
-44.4635
-44.6444
-44.7661
-44.8068
-44.7538
-44.6088
-44.3832
-44.0992
-43.7912
-43.4987
-43.2507
-43.044
-42.8726
-42.7393
-42.6443
-42.593
-42.5931
-42.6592
-42.8039
-43.031
-43.3412
-43.7415
-44.2501
-44.89
-45.6842
-46.6588
-47.8418
-49.2574
-50.9258
-52.8677
-55.1055
-57.6605
-60.5478
-63.7641
-67.2736
-71.0064
-74.8838
-78.8714
-83.0254
-87.5112
-92.5233
-98.1333
-104.283
-110.81
-117.537
-124.258
-130.683
-136.449
-141.172
-144.495
-146.147
-145.988
-143.979
-140.168
-134.729
-127.964
-120.263
-112.046
-103.687
-95.4781
-87.6277
-80.2734
-73.4991
-67.3566
-61.831
-56.8656
-52.3702
-48.242
-44.4432
-40.9847
-37.8273
-34.8575
-31.9993
-29.2642
-26.7373
-24.4737
-22.5096
-20.7479
-19.1076
-17.5391
-16.0113
-14.5165
-13.0724
-11.7267
-10.5369
-9.54824
-8.79448
-8.28042
-7.97998
-7.87017
-7.93881
-8.16496
-8.71104
-9.57644
-11.5501
-14.9848
-17.516
-17.918
-17.7019
-19.0503
-23.4842
-32.1863
-43.0115
-53.9819
-65.2366
-76.1638
-85.9746
-94.4493
-101.185
-106.055
-108.944
-109.845
-108.707
-105.445
-100.058
-92.8333
-83.7449
-72.4164
-59.0463
-45.4287
-33.5412
-23.9793
-16.6287
-10.8953
-6.28569
-2.4868
0.704064
3.43226
5.7917
7.82892
9.55909
10.9957
12.1719
13.124
13.8482
14.3083
14.4967
14.4518
14.2206
13.8275
13.2762
12.5608
11.6648
10.5675
9.26448
7.77326
6.12983
4.39289
2.64606
0.991088
-0.458038
-1.58182
-2.27439
-2.45752
-2.0884
-1.18736
0.195327
1.97374
4.01096
6.13631
8.18546
10.1443
12.1562
14.2725
16.3043
18.0096
19.3613
20.5167
21.5976
22.6185
23.5613
24.4294
25.2338
25.9818
26.6751
-43.6175
-43.6831
-43.7911
-43.9597
-44.1601
-44.3597
-44.5276
-44.635
-44.6587
-44.5831
-44.4159
-44.1776
-43.8972
-43.6134
-43.3583
-43.1417
-42.9564
-42.8013
-42.6763
-42.5822
-42.5279
-42.5191
-42.5699
-42.6975
-42.9086
-43.207
-43.6006
-44.1071
-44.7526
-45.5645
-46.5697
-47.7966
-49.2689
-51.0004
-53.0024
-55.2883
-57.8716
-60.7588
-63.945
-67.4062
-71.0975
-74.9727
-79.0193
-83.2985
-87.968
-93.2246
-99.1493
-105.7
-112.693
-119.909
-127.113
-134.003
-140.2
-145.3
-148.932
-150.814
-150.795
-148.803
-144.864
-139.156
-132.004
-123.848
-115.164
-106.368
-97.7604
-89.5395
-81.8302
-74.7089
-68.2415
-62.4604
-57.3234
-52.7824
-48.7455
-45.1084
-41.8158
-38.8547
-36.086
-33.3945
-30.7333
-28.1385
-25.6374
-23.4186
-21.4097
-19.5629
-17.8435
-16.2268
-14.6969
-13.2508
-11.9084
-10.7101
-9.69858
-8.90709
-8.34728
-8.00514
-7.857
-7.91264
-8.14012
-8.71569
-9.61322
-11.659
-15.0961
-17.7983
-18.7794
-19.1674
-21.031
-25.7978
-34.5525
-45.2583
-56.2035
-67.4196
-78.2738
-88.0556
-96.5021
-103.221
-108.038
-110.784
-111.453
-110.059
-106.499
-100.819
-93.4133
-84.3902
-73.2747
-60.0674
-46.5661
-34.7142
-25.1763
-17.8206
-12.0503
-7.37536
-3.49329
-0.213212
2.59971
5.03192
7.12334
8.88264
10.3173
11.4664
12.3817
13.0727
13.5127
13.697
13.6583
13.4335
13.0381
12.4692
11.7154
10.7527
9.55532
8.12186
6.4739
4.65076
2.71877
0.771846
-1.07801
-2.70643
-3.97223
-4.74779
-4.94314
-4.50639
-3.4679
-1.90469
0.0854568
2.37962
4.81613
7.19087
9.39815
11.5589
13.7895
15.9781
17.8674
19.3536
20.5718
21.6776
22.7105
23.6562
24.5182
25.313
26.0511
26.7368
-43.3412
-43.3988
-43.5034
-43.6641
-43.8574
-44.0488
-44.2067
-44.3047
-44.3167
-44.2271
-44.0555
-43.8255
-43.5664
-43.3168
-43.1014
-42.9159
-42.7534
-42.6165
-42.5013
-42.4075
-42.3474
-42.3299
-42.3629
-42.4658
-42.6546
-42.9367
-43.3226
-43.828
-44.4793
-45.3067
-46.3391
-47.6031
-49.1215
-50.9047
-52.9524
-55.2612
-57.8333
-60.6713
-63.7721
-67.1249
-70.7099
-74.5086
-78.5299
-82.8398
-87.574
-92.9059
-98.9342
-105.64
-112.845
-120.3
-127.737
-134.846
-141.257
-146.568
-150.409
-152.493
-152.639
-150.749
-146.838
-141.089
-133.835
-125.541
-116.713
-107.79
-99.0735
-90.7402
-82.9063
-75.637
-68.9813
-63.0048
-57.7171
-53.0809
-49.0444
-45.5245
-42.4258
-39.7731
-37.2454
-34.7784
-32.2763
-29.7603
-26.9166
-24.5153
-22.2401
-20.1345
-18.1973
-16.4217
-14.7947
-13.3045
-11.9563
-10.7658
-9.7511
-8.93266
-8.32434
-7.92649
-7.7186
-7.70544
-7.86431
-8.34218
-9.11431
-10.9386
-13.9226
-16.5575
-17.9031
-18.8618
-21.2785
-26.4305
-35.3183
-46.0543
-57.0448
-68.2515
-79.1096
-88.9332
-97.4146
-104.168
-108.96
-111.564
-111.984
-110.34
-106.515
-100.548
-92.9513
-83.9678
-73.0649
-60.1334
-46.9098
-35.287
-25.9376
-18.6884
-12.9512
-8.26031
-4.33494
-0.999678
1.86587
4.33465
6.43887
8.18615
9.58802
10.6946
11.5705
12.2354
12.6685
12.8654
12.8502
12.6465
12.2568
11.6702
10.8711
9.82816
8.51231
6.92732
5.09685
3.06182
0.896767
-1.29623
-3.39201
-5.24821
-6.70367
-7.59855
-7.82245
-7.30819
-6.08591
-4.26873
-1.99853
0.591671
3.35819
6.08988
8.59599
10.9376
13.2854
15.6159
17.6921
19.3405
20.6451
21.7815
22.8239
23.7695
24.6234
25.4067
26.1331
26.8091
-42.8626
-42.915
-43.0143
-43.1641
-43.3455
-43.5253
-43.6712
-43.7561
-43.7526
-43.6658
-43.5106
-43.3137
-43.0997
-42.8991
-42.7298
-42.5831
-42.4522
-42.3393
-42.2402
-42.1512
-42.082
-42.0484
-42.0605
-42.1319
-42.2853
-42.5372
-42.9043
-43.405
-44.0632
-44.9094
-45.9715
-47.2739
-48.8318
-50.6528
-52.7314
-55.0511
-57.5971
-60.3627
-63.3439
-66.5399
-69.9536
-73.5941
-77.4898
-81.7068
-86.3565
-91.5793
-97.4829
-104.074
-111.207
-118.629
-126.046
-133.139
-139.551
-144.899
-148.817
-151.021
-151.337
-149.64
-145.928
-140.384
-133.344
-125.269
-116.664
-107.953
-99.4214
-91.2317
-83.4835
-76.2564
-69.5954
-63.5455
-58.1526
-53.418
-49.3415
-45.8845
-42.9457
-40.4422
-38.1991
-36.0116
-33.7171
-31.2341
-28.5219
-25.8291
-23.2308
-20.8227
-18.6433
-16.674
-14.8894
-13.2859
-11.8742
-10.6673
-9.65812
-8.83161
-8.18301
-7.71534
-7.42945
-7.31893
-7.36043
-7.65696
-8.19885
-9.56606
-11.8769
-14.3415
-15.7279
-17.1382
-20.0203
-25.5264
-34.5851
-45.4108
-56.4697
-67.6744
-78.5556
-88.4352
-96.9541
-103.753
-108.518
-110.964
-111.142
-109.278
-105.276
-99.1195
-91.4156
-82.5052
-71.8365
-59.278
-46.506
-35.3137
-26.3155
-19.2793
-13.6419
-8.9821
-5.05197
-1.69684
1.18491
3.64967
5.72688
7.435
8.79733
9.87304
10.7302
11.3889
11.8318
12.0535
12.0698
11.8895
11.501
10.8876
10.0329
8.89616
7.44297
5.68322
3.64043
1.35478
-1.091
-3.58839
-6.00085
-8.15535
-9.85704
-10.9093
-11.1769
-10.5804
-9.1339
-6.98312
-4.33688
-1.37551
1.76003
4.87522
7.72915
10.2971
12.7766
15.2369
17.4943
19.3246
20.7379
21.9127
22.9621
23.9034
24.7462
25.5152
26.2275
26.8915
-42.2323
-42.2776
-42.3661
-42.4984
-42.6586
-42.815
-42.9368
-42.998
-42.9818
-42.9006
-42.7817
-42.6482
-42.5119
-42.3841
-42.2713
-42.1721
-42.0832
-42.0024
-41.9263
-41.8503
-41.7747
-41.7153
-41.6921
-41.7185
-41.8209
-42.0245
-42.3514
-42.8302
-43.4875
-44.3526
-45.4517
-46.8025
-48.411
-50.274
-52.3774
-54.6974
-57.2073
-59.8883
-62.732
-65.7414
-68.9326
-72.335
-75.9938
-79.9759
-84.374
-89.2997
-94.8517
-101.059
-107.823
-114.921
-122.058
-128.905
-135.111
-140.319
-144.193
-146.457
-146.934
-145.515
-142.173
-137.069
-130.537
-123.028
-115.017
-106.876
-98.8425
-91.0581
-83.6156
-76.5921
-70.0604
-64.078
-58.6932
-53.919
-49.7641
-46.2526
-43.3445
-40.9198
-38.8332
-36.8993
-34.898
-32.6674
-30.1234
-27.3193
-24.4253
-21.6607
-19.1807
-17.0129
-15.0821
-13.3265
-11.7757
-10.486
-9.4501
-8.61029
-7.92656
-7.38535
-6.99203
-6.76206
-6.65749
-6.72936
-6.98644
-7.741
-9.36284
-11.4294
-12.6778
-14.4555
-17.6454
-23.3647
-32.5263
-43.4084
-54.4967
-65.6572
-76.504
-86.3954
-94.9186
-101.731
-106.457
-108.761
-108.757
-106.765
-102.672
-96.4565
-88.7899
-80.0336
-69.6416
-57.5703
-45.4503
-34.8968
-26.4019
-19.6692
-14.186
-9.59577
-5.69489
-2.35463
0.507163
2.93427
4.96182
6.62599
7.96495
9.0382
9.90312
10.5751
11.0396
11.2901
11.3353