/*--------------------------------*- C++ -*----------------------------------*\
  =========                 |
  \\      /  F ield         | OpenFOAM: The Open Source CFD Toolbox
   \\    /   O peration     | Website:  https://openfoam.org
    \\  /    A nd           | Version:  9
     \\/     M anipulation  |
\*---------------------------------------------------------------------------*/
FoamFile
{
    format      ascii;
    class       volScalarField;
    location    "0.091";
    object      s_0;
}
// * * * * * * * * * * * * * * * * * * * * * * * * * * * * * * * * * * * * * //

dimensions      [0 0 0 0 0 0 0];

internalField   nonuniform List<scalar> 
12225
(
1
1
1
1
1
1
1
1
1
1
1
1
1
1
1
1
1
0.999991
1
1
1
1
1
1
1
1
1
1
1
1
1
1
1
1
1
1
1
1
1
1
1
1
1
1
1
1
1
1
1
1
1
1
1
1
1
1
1
1
1
1
1
1
1
1
1
1
1
1
1
1
1
1
1
1
1
1
1
1
1
1
1
1
1
1
1
1
1
1
1
1
1
1
1
1
1
1
1
1
1
1
1
1
1
1
1
1
1
1
1
1
1
1
1
1
1
1
1
1
1
1
1
1
1
1
1
1
1
1
1
1
1
1
1
1
1
1
1
1
1
1
1
1
1
1
1
1
1
1
1
1
1
1
1
1
1
1
1
1
1
1
1
1
1
1
1
1
1
1
1
1
1
1
1
1
1
1
1
1
1
1
1
1
1
1
1
1
1
1
1
1
1
1
1
1
1
1
1
1
1
1
1
1
1
1
1
1
1
1
1
1
1
1
1
1
1
1
1
1
1
1
1
1
1
1
1
1
1
1
1
1
1
1
1
1
1
1
1
1
1
1
1
1
1
1
1
1
1
1
1
1
1
1
1
1
1
1
1
1
1
1
1
1
1
1
1
1
1
1
1
1
1
1
1
1
1
1
1
1
1
1
1
1
1
1
1
1
1
1
1
1
1
1
1
1
1
1
1
1
1
1
1
1
1
1
1
1
1
1
1
1
1
1
1
1
1
1
1
1
1
1
1
1
1
1
1
1
1
1
1
1
1
1
1
1
1
1
1
1
1
1
1
1
1
1
1
1
1
1
1
1
1
1
1
1
1
1
1
1
1
1
1
1
1
1
1
1
1
1
1
1
1
1
1
1
1
1
1
1
1
1
1
1
1
1
1
1
1
1
1
1
1
1
1
1
1
1
1
1
1
1
1
1
1
1
1
1
1
1
1
1
1
1
1
1
1
1
1
1
1
1
1
1
1
1
1
1
1
1
1
1
1
1
1
1
1
1
1
1
1
1
1
1
1
1
1
1
1
1
1
1
1
1
1
1
1
1
1
1
1
1
1
1
1
1
1
1
1
1
1
1
1
1
1
1
1
1
1
1
1
1
1
1
1
1
1
1
1
1
1
1
1
1
1
1
1
1
1
1
1
1
1
1
1
1
1
1
1
1
1
1
1
1
1
1
1
1
1
1
1
1
1
1
1
1
1
1
1
1
1
1
1
1
1
1
1
1
1
1
1
1
0.720077
0.709573
0.708759
0.709321
0.711189
0.713814
0.715799
0.71809
0.720059
0.71887
0.71626
0.714943
0.715864
0.719849
0.730375
0.74769
0.761418
0.769885
0.7731
0.774906
0.777278
0.779134
0.780518
0.781799
0.782856
0.783484
0.784227
0.785663
0.786547
0.786578
0.785235
0.777647
0.770984
0.769987
0.771437
0.778315
0.812372
0.90226
0.922981
0.912468
0.892207
0.871783
0.863115
0.8616
0.861665
0.862836
0.865333
0.868603
0.871879
0.874646
0.876806
0.878523
0.879893
0.880915
0.881613
0.881997
0.882138
0.881873
0.880702
0.879795
0.878763
0.876782
0.874908
0.873314
0.870979
0.868291
0.866213
0.864301
0.861267
0.858325
0.855149
0.851639
0.847596
0.844489
0.841614
0.840354
0.83836
0.836761
0.835797
0.834789
0.827089
0.821378
0.840931
0.886512
0.902043
0.908116
0.908693
0.89895
0.886513
0.879895
0.878455
0.883271
0.899245
0.913579
0.925963
0.933176
0.940577
0.945268
0.948136
0.952269
0.953625
0.953167
0.951069
0.949346
0.947975
0.945638
0.94282
0.935718
0.923203
0.925761
0.929996
0.931973
0.933246
0.934482
0.935534
0.936276
0.937109
0.938088
0.938614
0.939057
0.939339
0.939471
0.939513
0.93946
0.939293
0.939009
0.938618
0.938281
0.937797
0.937195
0.936462
0.935373
0.933753
0.931714
0.929745
0.928324
0.927139
0.926451
0.926299
0.926513
0.927119
0.927828
0.92853
0.929284
0.929957
0.930643
0.931337
0.932029
0.932753
0.933544
0.934379
0.935267
0.936221
0.937233
0.938193
0.938839
0.939035
0.939042
0.939072
0.939395
0.941311
0.948118
0.953695
0.954419
0.945933
0.899761
0.874883
0.873529
0.875955
0.877763
0.879084
0.880256
0.881379
0.882184
0.882844
0.883885
0.88629
0.890103
0.894918
0.899344
0.722395
0.709905
0.708128
0.708581
0.711602
0.715412
0.718589
0.723669
0.732444
0.741866
0.746892
0.746204
0.740298
0.737247
0.736967
0.738425
0.740299
0.740236
0.741661
0.751973
0.764895
0.771601
0.773642
0.773612
0.772434
0.770593
0.770295
0.771301
0.774918
0.776845
0.776528
0.773322
0.772381
0.781266
0.841357
0.891314
0.906716
0.912746
0.902017
0.884382
0.876346
0.872925
0.872409
0.879262
0.893101
0.909174
0.923509
0.934166
0.944592
0.951639
0.95587
0.960963
0.963851
0.965511
0.966674
0.96711
0.967214
0.96704
0.966111
0.965011
0.963805
0.961748
0.959079
0.955925
0.951702
0.946285
0.939312
0.929887
0.918657
0.90486
0.890248
0.876986
0.861788
0.851387
0.844712
0.841531
0.838538
0.836646
0.835009
0.833572
0.825857
0.824824
0.852156
0.893099
0.909363
0.931072
0.940632
0.943818
0.941886
0.940596
0.942477
0.949177
0.95605
0.96204
0.967063
0.970137
0.971985
0.973069
0.973445
0.973232
0.971328
0.970293
0.969326
0.966091
0.957596
0.954106
0.94238
0.924229
0.923764
0.92928
0.936239
0.940611
0.94298
0.945222
0.946353
0.947636
0.948277
0.948854
0.949117
0.949759
0.95013
0.950645
0.950937
0.951561
0.95192
0.952364
0.952941
0.953468
0.954387
0.955058
0.956358
0.957334
0.958132
0.957803
0.955303
0.950504
0.944375
0.937305
0.931069
0.927289
0.925255
0.924298
0.924005
0.924026
0.924342
0.924801
0.925195
0.925561
0.925909
0.926282
0.926763
0.927468
0.928633
0.930379
0.933058
0.937218
0.941916
0.944677
0.945155
0.944765
0.94253
0.940302
0.940218
0.943557
0.94498
0.939675
0.923892
0.904879
0.892663
0.885493
0.882384
0.878363
0.873487
0.870261
0.869479
0.87005
0.873623
0.880399
0.88378
0.890548
0.732882
0.718786
0.711633
0.70815
0.707738
0.707801
0.708534
0.71101
0.71743
0.733721
0.75064
0.76083
0.765049
0.76615
0.76604
0.764183
0.752552
0.737451
0.73707
0.75103
0.778585
0.789068
0.79133
0.790851
0.788149
0.784769
0.781227
0.778555
0.778398
0.779284
0.783104
0.797249
0.838429
0.885355
0.908549
0.913719
0.91299
0.902395
0.891686
0.887919
0.887348
0.896504
0.91957
0.940551
0.957225
0.965541
0.970568
0.974802
0.976583
0.977737
0.978563
0.97921
0.979764
0.980329
0.98108
0.981686
0.981896
0.981991
0.98208
0.982111
0.982091
0.98185
0.981166
0.980145
0.979001
0.977375
0.974441
0.970148
0.963719
0.953127
0.933864
0.905548
0.87832
0.855233
0.844176
0.838995
0.836432
0.835231
0.833819
0.829837
0.817234
0.81308
0.814391
0.825687
0.844163
0.88028
0.925547
0.948487
0.955675
0.958629
0.962196
0.965637
0.968947
0.971755
0.974636
0.976562
0.977365
0.977346
0.977066
0.975511
0.969222
0.966785
0.966886
0.966469
0.963875
0.953405
0.927308
0.923895
0.927655
0.938214
0.942072
0.943403
0.943939
0.944136
0.943653
0.942882
0.942598
0.942592
0.943905
0.945653
0.947027
0.94866
0.949401
0.950655
0.951651
0.952278
0.952788
0.953372
0.954317
0.955194
0.956873
0.958892
0.961821
0.964322
0.96653
0.966942
0.966244
0.964145
0.959166
0.951654
0.944427
0.938888
0.935188
0.932862
0.931329
0.930076
0.928805
0.927611
0.926729
0.926045
0.925483
0.925044
0.92474
0.924612
0.924666
0.925156
0.926939
0.93405
0.946876
0.953157
0.953721
0.952369
0.9462
0.942819
0.942607
0.943443
0.94322
0.942533
0.941324
0.937171
0.92918
0.920338
0.907551
0.895184
0.88559
0.876841
0.869256
0.865175
0.864419
0.866659
0.746154
0.739534
0.72588
0.714552
0.707688
0.706731
0.707591
0.710683
0.717585
0.733607
0.751284
0.76308
0.768812
0.770671
0.770835
0.76978
0.760662
0.744999
0.747406
0.77862
0.797308
0.797722
0.797744
0.796054
0.79271
0.791553
0.792692
0.795951
0.803412
0.819652
0.848356
0.887958
0.908347
0.916835
0.919293
0.91874
0.912364
0.904359
0.901843
0.907712
0.927817
0.947335
0.964175
0.971031
0.974186
0.975163
0.975281
0.974473
0.972802
0.970648
0.967936
0.966647
0.966105
0.965958
0.966356
0.968134
0.96994
0.970888
0.972204
0.974209
0.976064
0.97732
0.978374
0.979268
0.979624
0.979715
0.979107
0.977478
0.975725
0.972945
0.965677
0.952477
0.923741
0.87879
0.852857
0.8407
0.835972
0.833937
0.831276
0.82215
0.802492
0.794927
0.794631
0.805081
0.816497
0.819365
0.838376
0.906667
0.946952
0.959064
0.964042
0.96772
0.970865
0.973893
0.97729
0.979528
0.980306
0.980285
0.979791
0.976162
0.961653
0.95627
0.957793
0.963161
0.962461
0.941306
0.923166
0.925846
0.936319
0.941104
0.941981
0.942048
0.939384
0.934396
0.927776
0.923769
0.922196
0.921973
0.925421
0.930179
0.935173
0.941257
0.943967
0.946773
0.949212
0.951283
0.952159
0.95278
0.953241
0.953785
0.954738
0.956165
0.959072
0.963488
0.967262
0.969561
0.969997
0.969807
0.96914
0.967539
0.96565
0.963673
0.961464
0.958413
0.954929
0.951446
0.948016
0.944448
0.941092
0.938056
0.935261
0.932898
0.930785
0.928753
0.92692
0.92559
0.925026
0.925075
0.926656
0.934877
0.950665
0.95801
0.958042
0.952708
0.94539
0.943948
0.944032
0.94663
0.953171
0.95565
0.955651
0.953144
0.945449
0.940113
0.932011
0.912694
0.8921
0.878211
0.867458
0.86094
0.73995
0.720215
0.702758
0.702493
0.704245
0.708114
0.715867
0.730663
0.753539
0.765601
0.76977
0.77058
0.770681
0.771026
0.770583
0.767507
0.751694
0.745344
0.774354
0.805177
0.81107
0.818067
0.816567
0.814595
0.81657
0.828657
0.843833
0.858083
0.874869
0.899378
0.920756
0.930237
0.933449
0.93389
0.931229
0.924971
0.921456
0.921199
0.93112
0.944128
0.960377
0.970759
0.974616
0.975539
0.975353
0.973162
0.968846
0.960993
0.954448
0.951935
0.950868
0.95061
0.950682
0.951847
0.953959
0.955726
0.957319
0.959439
0.961468
0.963417
0.965348
0.967077
0.968761
0.970317
0.971774
0.973488
0.975399
0.976421
0.976738
0.976666
0.974701
0.971809
0.962697
0.940356
0.892985
0.855381
0.840179
0.833846
0.830594
0.822072
0.803685
0.797317
0.800076
0.811999
0.818308
0.814812
0.814122
0.826171
0.885666
0.940515
0.958147
0.965351
0.969786
0.973877
0.97855
0.982964
0.985071
0.985099
0.983483
0.976403
0.954448
0.944329
0.945613
0.956175
0.959444
0.931462
0.92352
0.931206
0.939517
0.940927
0.94044
0.935571
0.923655
0.907823
0.900228
0.894966
0.892634
0.891915
0.895031
0.901932
0.912276
0.925424
0.934797
0.942175
0.946038
0.950539
0.95242
0.953672
0.954167
0.954463
0.954953
0.956032
0.958385
0.962956
0.967478
0.970673
0.971729
0.971739
0.971586
0.971103
0.970516
0.96993
0.968649
0.965712
0.961565
0.957509
0.954112
0.951344
0.949078
0.947386
0.94605
0.944402
0.942331
0.93977
0.936629
0.933153
0.929922
0.927876
0.927473
0.92827
0.93437
0.951576
0.960243
0.960566
0.955359
0.946948
0.945042
0.945835
0.950951
0.959997
0.964127
0.964485
0.963197
0.959697
0.956899
0.952619
0.943387
0.91871
0.890718
0.871799
0.711361
0.700307
0.706331
0.71808
0.731401
0.747545
0.767718
0.775645
0.775183
0.773997
0.770633
0.761929
0.753127
0.7536
0.758167
0.757221
0.744047
0.760489
0.814354
0.826271
0.835611
0.837276
0.838937
0.849551
0.869545
0.888277
0.898504
0.909875
0.926495
0.942411
0.950376
0.95264
0.952956
0.952131
0.949044
0.945149
0.94452
0.946745
0.95374
0.96415
0.972842
0.975575
0.976057
0.975189
0.972039
0.964067
0.952133
0.94769
0.946076
0.945631
0.9456
0.946324
0.948227
0.950284
0.951938
0.953879
0.956322
0.958556
0.960669
0.96298
0.965031
0.966804
0.968412
0.969581
0.970347
0.971267
0.972255
0.973198
0.974274
0.975448
0.976163
0.976269
0.975174
0.970291
0.956134
0.919283
0.868551
0.846013
0.835545
0.829965
0.824985
0.826498
0.833302
0.838903
0.846348
0.834356
0.820502
0.817081
0.828784
0.876131
0.931944
0.953918
0.963713
0.970331
0.976784
0.983121
0.986289
0.986441
0.984315
0.972462
0.948991
0.936976
0.937041
0.948854
0.953573
0.926021
0.924638
0.935494
0.9397
0.939942
0.93505
0.918016
0.894475
0.883699
0.874732
0.867897
0.859419
0.853949
0.851681
0.854081
0.869683
0.891701
0.911392
0.930379
0.93933
0.948519
0.953053
0.955694
0.9569
0.957293
0.95745
0.958116
0.95982
0.964349
0.969752
0.973036
0.97397
0.97388
0.973503
0.97299
0.972426
0.971225
0.96907
0.965553
0.961232
0.957344
0.954172
0.952569
0.951425
0.950741
0.950739
0.950628
0.950038
0.948762
0.946376
0.94252
0.937939
0.933865
0.931332
0.93083
0.931878
0.939151
0.956401
0.963275
0.962948
0.956073
0.94795
0.946553
0.94796
0.955682
0.964815
0.969103
0.969822
0.969549
0.968596
0.967448
0.96512
0.959574
0.945151
0.907178
0.701151
0.71731
0.748684
0.775407
0.795483
0.794049
0.788671
0.782418
0.775166
0.763126
0.736077
0.713074
0.712199
0.718544
0.740865
0.741438
0.747247
0.806579
0.837495
0.849168
0.85397
0.855568
0.863707
0.886657
0.912403
0.923461
0.930156
0.940936
0.955539
0.964176
0.967292
0.967965
0.967856
0.9669
0.964477
0.961965
0.96156
0.962417
0.966213
0.972638
0.975717
0.976219
0.975584
0.972392
0.963237
0.949682
0.9448
0.943319
0.943022
0.943117
0.944077
0.945856
0.947603
0.949248
0.951139
0.953501
0.955807
0.958037
0.960664
0.963543
0.966237
0.968991
0.971518
0.973533
0.97519
0.976096
0.976264
0.975603
0.975193
0.975036
0.975862
0.976943
0.977581
0.977795
0.976654
0.970578
0.953775
0.9168
0.882641
0.868261
0.86464
0.870354
0.880592
0.884379
0.884734
0.879777
0.861572
0.838261
0.830317
0.845092
0.889819
0.928901
0.949831
0.961451
0.970366
0.979756
0.985347
0.985984
0.982684
0.964726
0.944963
0.933667
0.932524
0.942995
0.947622
0.923654
0.927187
0.937419
0.939385
0.937241
0.923709
0.895773
0.881484
0.873084
0.859592
0.844995
0.82568
0.8147
0.811448
0.811599
0.821987
0.841383
0.870736
0.909586
0.930006
0.945276
0.953798
0.958336
0.960744
0.961597
0.961969
0.962917
0.965238
0.969934
0.97481
0.977313
0.977514
0.977257
0.976477
0.975407
0.973518
0.97093
0.966118
0.960935
0.956322
0.954258
0.953084
0.952906
0.953337
0.954743
0.958334
0.961931
0.963028
0.962844
0.961705
0.958194
0.950458
0.942471
0.936751
0.93411
0.933951
0.936287
0.94884
0.963116
0.966732
0.965312
0.956002
0.948653
0.947827
0.949977
0.959814
0.968429
0.972673
0.97399
0.974178
0.974133
0.973793
0.972614
0.969212
0.956606
0.733849
0.776997
0.815964
0.824084
0.816868
0.800014
0.784777
0.764733
0.737359
0.69468
0.669768
0.668203
0.675598
0.708363
0.736374
0.742322
0.771244
0.838067
0.859394
0.868381
0.870748
0.872567
0.884708
0.915079
0.938157
0.946269
0.951085
0.959667
0.97132
0.976038
0.977526
0.977774
0.977562
0.976684
0.974613
0.971545
0.970644
0.970809
0.972377
0.975236
0.97611
0.97596
0.973719
0.966094
0.951771
0.943959
0.941842
0.941407
0.941411
0.941886
0.942895
0.944097
0.944897
0.945238
0.945641
0.946275
0.946949
0.948335
0.95075
0.95378
0.957532
0.962342
0.967167
0.971333
0.975281
0.97841
0.980455
0.981725
0.982422
0.98168
0.979989
0.978953
0.97851
0.97951
0.980131
0.980185
0.980113
0.978123
0.97203
0.961481
0.956885
0.9575
0.960676
0.961362
0.963688
0.961802
0.947397
0.909369
0.870796
0.860621
0.876579
0.908498
0.931087
0.947887
0.959204
0.971685
0.981641
0.983569
0.979479
0.958058
0.942746
0.932639
0.930317
0.939527
0.942912
0.922946
0.92927
0.937672
0.938524
0.931327
0.906786
0.882088
0.871317
0.859569
0.844301
0.824739
0.805337
0.799469
0.798331
0.799402
0.805898
0.816989
0.836333
0.874512
0.91845
0.942442
0.955625
0.963122
0.966982
0.968394
0.96884
0.970169
0.973799
0.978096
0.980671
0.981547
0.981374
0.980585
0.979113
0.976921
0.973446
0.967211
0.9597
0.955334
0.953646
0.953186
0.953325
0.954222
0.956986
0.963272
0.971192
0.979012
0.983341
0.983953
0.983407
0.981418
0.976161
0.962783
0.949469
0.941395
0.938468
0.938949
0.945325
0.961612
0.969117
0.969672
0.966149
0.954078
0.948809
0.948612
0.952137
0.963838
0.971626
0.975475
0.977
0.97745
0.977489
0.977363
0.976739
0.973297
0.743123
0.810542
0.838987
0.83399
0.81726
0.778186
0.744522
0.701986
0.672124
0.652614
0.646656
0.649934
0.673293
0.715648
0.738032
0.751685
0.817435
0.862226
0.879127
0.885851
0.886774
0.887818
0.899205
0.930843
0.954704
0.961872
0.965614
0.971294
0.979696
0.98272
0.983461
0.983523
0.983223
0.982207
0.980164
0.977298
0.975138
0.974643
0.974937
0.97577
0.975956
0.975033
0.970427
0.959254
0.946501
0.941487
0.940188
0.939842
0.939739
0.939703
0.939405
0.938385
0.936775
0.935485
0.934852
0.934575
0.934526
0.934985
0.935642
0.936867
0.938649
0.94146
0.945596
0.951746
0.95931
0.967989
0.975724
0.980696
0.983825
0.98567
0.986573
0.987037
0.985871
0.983791
0.982454
0.981859
0.982463
0.982981
0.983357
0.984094
0.984815
0.985726
0.987371
0.989223
0.990977
0.991525
0.989682
0.981542
0.95794
0.922096
0.903932
0.908055
0.92393
0.937498
0.947164
0.958317
0.974619
0.979753
0.975377
0.953174
0.941873
0.932882
0.930014
0.938339
0.940024
0.922842
0.930376
0.937507
0.936472
0.923605
0.89502
0.878022
0.86961
0.856239
0.838246
0.813542
0.799415
0.795962
0.795636
0.797176
0.802625
0.811218
0.825045
0.850198
0.902362
0.938201
0.959412
0.970862
0.976262
0.97831
0.979079
0.980413
0.982208
0.983399
0.98379
0.983598
0.982936
0.981525
0.979739
0.976572
0.969377
0.960459
0.955307
0.953339
0.953001
0.953157
0.95413
0.957341
0.966016
0.977548
0.985895
0.990972
0.994059
0.995359
0.995451
0.995105
0.993773
0.989671
0.975283
0.95684
0.94751
0.945284
0.947564
0.959642
0.970957
0.97363
0.97254
0.963829
0.952064
0.948695
0.949194
0.955401
0.967722
0.974495
0.977639
0.978917
0.979487
0.979627
0.97957
0.978763
0.745079
0.819918
0.845958
0.835505
0.798985
0.739104
0.696719
0.667302
0.650583
0.639835
0.639269
0.65133
0.68225
0.72517
0.742934
0.776291
0.85207
0.882161
0.896807
0.9028
0.902973
0.902517
0.909214
0.934662
0.963677
0.972361
0.97566
0.978802
0.984226
0.986387
0.986752
0.986706
0.986218
0.985009
0.98297
0.98044
0.978031
0.97641
0.975769
0.975607
0.975345
0.972987
0.965873
0.955724
0.944215
0.939798
0.93835
0.937698
0.93712
0.936062
0.934679
0.933319
0.932446
0.932016
0.93183
0.931777
0.931878
0.932089
0.93235
0.932782
0.933446
0.934497
0.936047
0.938098
0.94072
0.944674
0.952173
0.963525
0.97521
0.982241
0.986499
0.988717
0.990242
0.991235
0.991553
0.989956
0.987388
0.985063
0.983567
0.983389
0.983778
0.984679
0.986353
0.988779
0.991731
0.993787
0.994852
0.994839
0.992735
0.984699
0.964989
0.943387
0.935131
0.937268
0.944791
0.951691
0.966155
0.975535
0.971604
0.949978
0.942082
0.934314
0.930274
0.93789
0.938384
0.922832
0.931216
0.937116
0.934753
0.917637
0.890565
0.878481
0.870655
0.858232
0.840939
0.814745
0.799764
0.796429
0.796454
0.798331
0.803295
0.810946
0.822747
0.842259
0.885331
0.933427
0.961379
0.975196
0.980651
0.982757
0.983615
0.98415
0.984496
0.984587
0.984432
0.984013
0.983044
0.981462
0.978245
0.971274
0.961463
0.955669
0.953395
0.952866
0.952957
0.953794
0.956795
0.965343
0.978821
0.987608
0.992713
0.995661
0.997374
0.998284
0.998576
0.998569
0.998397
0.997731
0.995179
0.984807
0.964504
0.955063
0.954006
0.959399
0.972295
0.977393
0.977491
0.973586
0.958826
0.950145
0.948541
0.950296
0.960118
0.971354
0.976821
0.979287
0.980151
0.980506
0.98132
0.981302
0.747312
0.824147
0.850404
0.832179
0.770639
0.715784
0.675838
0.654622
0.643898
0.636479
0.641586
0.659018
0.700375
0.733915
0.753154
0.811734
0.875862
0.898453
0.912399
0.919059
0.919198
0.917706
0.919875
0.934997
0.964145
0.977693
0.981883
0.983925
0.986707
0.988275
0.988484
0.988351
0.987721
0.986406
0.984421
0.982031
0.979588
0.977492
0.975977
0.975216
0.974258
0.970877
0.964555
0.955511
0.944255
0.938446
0.936729
0.935859
0.93491
0.933645
0.932281
0.931641
0.931355
0.931263
0.931252
0.931379
0.931512
0.931604
0.93177
0.931969
0.932314
0.932958
0.934016
0.935616
0.937452
0.938769
0.940351
0.943287
0.949631
0.962871
0.976635
0.98432
0.988846
0.991673
0.993549
0.994675
0.995291
0.994985
0.993186
0.989606
0.985814
0.983232
0.982401
0.982491
0.983628
0.987047
0.991589
0.99474
0.995914
0.99588
0.994125
0.987568
0.97361
0.95989
0.954046
0.954449
0.962623
0.973341
0.970133
0.947554
0.943019
0.939294
0.931394
0.938098
0.937247
0.922803
0.931105
0.936758
0.932761
0.913652
0.890734
0.880248
0.87414
0.865394
0.849927
0.822507
0.806715
0.804602
0.806293
0.809065
0.813614
0.819194
0.826026
0.840595
0.877445
0.930235
0.961732
0.975916
0.981374
0.983497
0.984334
0.984665
0.98474
0.984645
0.984329
0.983583
0.982002
0.97862
0.971243
0.960958
0.955725
0.953589
0.95293
0.953044
0.953934
0.956918
0.964962
0.978097
0.986918
0.992508
0.995878
0.997792
0.99868
0.999095
0.999246
0.999282
0.999279
0.999222
0.998848
0.996926
0.98916
0.971593
0.964007
0.96438
0.972263
0.980136
0.981505
0.979886
0.96913
0.953971
0.948874
0.948746
0.953045
0.965982
0.974679
0.978714
0.980331
0.980831
0.98163
0.982302
0.753461
0.841549
0.858214
0.82517
0.755952
0.697192
0.662884
0.650942
0.643096
0.642072
0.649098
0.675143
0.717603
0.74411
0.774072
0.844648
0.893704
0.91193
0.925247
0.934662
0.935299
0.932707
0.93224
0.938637
0.959423
0.978023
0.984065
0.986529
0.988079
0.989091
0.989252
0.989118
0.988468
0.987153
0.985229
0.982823
0.980193
0.977796
0.975914
0.974386
0.971848
0.96812
0.963407
0.956345
0.945785
0.938387
0.935595
0.934503
0.933809
0.932472
0.931493
0.931177
0.931097
0.931104
0.931261
0.931407
0.931518
0.931572
0.931661
0.931771
0.931958
0.932395
0.933187
0.934747
0.937038
0.938426
0.939232
0.940021
0.941073
0.943736
0.951383
0.966793
0.979204
0.986616
0.991327
0.994165
0.995735
0.996617
0.99708
0.997247
0.996426
0.993277
0.987882
0.983397
0.981844
0.981732
0.982748
0.986586
0.992076
0.995546
0.996786
0.996901
0.995744
0.991141
0.980543
0.970192
0.967807
0.972896
0.970033
0.944299
0.942805
0.942008
0.933914
0.938803
0.936217
0.922571
0.930715
0.936231
0.932102
0.913769
0.892
0.884098
0.88349
0.884832
0.874615
0.845126
0.832644
0.834325
0.837922
0.838295
0.836356
0.836758
0.840147
0.845414
0.874623
0.929019
0.962151
0.975847
0.981298
0.983377
0.984111
0.98425
0.984084
0.983612
0.982676
0.980949
0.977405
0.969709
0.96
0.955604
0.953872
0.953207
0.953432
0.954603
0.958009
0.966306
0.978958
0.987621
0.99312
0.996363
0.998182
0.998957
0.999224
0.999318
0.999321
0.999315
0.999334
0.999383
0.999366
0.999078
0.997345
0.989889
0.976666
0.972507
0.974485
0.981777
0.984677
0.984224
0.978644
0.960836
0.950517
0.948407
0.949882
0.959265
0.971222
0.977414
0.980028
0.980902
0.98149
0.982574
0.762525
0.853994
0.863717
0.820922
0.742377
0.680872
0.659326
0.651553
0.65111
0.653931
0.665052
0.691833
0.728372
0.751467
0.791438
0.868673
0.907663
0.922275
0.932563
0.94569
0.949869
0.948342
0.945068
0.945685
0.95571
0.974848
0.98392
0.986922
0.988409
0.98925
0.98947
0.989409
0.988838
0.987506
0.985456
0.982914
0.980145
0.977437
0.975066
0.972348
0.96955
0.96668
0.963348
0.957853
0.949266
0.939608
0.935699
0.933959
0.932854
0.931888
0.931215
0.931043
0.93104
0.931183
0.931628
0.931875
0.931936
0.931748
0.931682
0.93171
0.931848
0.93217
0.932805
0.934288
0.936956
0.939737
0.940818
0.940782
0.940698
0.940921
0.941916
0.945804
0.957422
0.972429
0.982342
0.988627
0.992404
0.994769
0.996391
0.99749
0.998101
0.998232
0.997523
0.994265
0.987908
0.983106
0.981457
0.981389
0.982742
0.98783
0.993817
0.996833
0.997831
0.997889
0.996594
0.99038
0.979132
0.976911
0.973162
0.943083
0.941963
0.943966
0.937719
0.940384
0.935582
0.922322
0.929788
0.935502
0.932178
0.915009
0.894617
0.891688
0.897547
0.903429
0.902496
0.895715
0.890145
0.893428
0.897633
0.893061
0.872523
0.854962
0.85152
0.85526
0.876085
0.931054
0.962567
0.975523
0.980568
0.98216
0.982331
0.981972
0.981148
0.979677
0.977434
0.973614
0.966203
0.958898
0.955501
0.954242
0.953665
0.954061
0.955688
0.960034
0.969653
0.982686
0.990979
0.995552
0.997824
0.99889
0.999313
0.999397
0.999362
0.999272
0.998993
0.998645
0.998668
0.998869
0.999225
0.999266
0.999013
0.997211
0.989554
0.981234
0.979922
0.982794
0.986844
0.987136
0.98445
0.970303
0.95413
0.94886
0.948866
0.953815
0.96711
0.975481
0.979364
0.980765
0.981429
0.982531
0.767233
0.858397
0.866127
0.818725
0.730278
0.675001
0.659489
0.65737
0.659853
0.669303
0.682732
0.705485
0.735328
0.757126
0.80503
0.881343
0.919188
0.933248
0.940467
0.949097
0.958959
0.961607
0.959882
0.956823
0.957359
0.96812
0.981616
0.98658
0.988305
0.98918
0.989456
0.989435
0.988959
0.987653
0.985378
0.981761
0.978018
0.974614
0.971611
0.968441
0.96654
0.964729
0.96304
0.95982
0.953826
0.9442
0.936919
0.934255
0.932882
0.931935
0.931252
0.931011
0.930943
0.931075
0.931522
0.932165
0.932131
0.931829
0.931633
0.931665
0.931814
0.9321
0.932695
0.934158
0.937244
0.941451
0.944493
0.945056
0.944228
0.942554
0.941492
0.941765
0.9437
0.950441
0.964026
0.975793
0.982804
0.987529
0.991194
0.994373
0.99683
0.998219
0.998695
0.998649
0.997596
0.993411
0.986724
0.982363
0.981024
0.981282
0.984168
0.991325
0.996246
0.998164
0.998502
0.997742
0.990932
0.982882
0.977905
0.944017
0.941718
0.946273
0.94242
0.943063
0.935754
0.922339
0.928902
0.934963
0.932533
0.917569
0.900492
0.89956
0.904622
0.913233
0.916471
0.917362
0.920621
0.924286
0.925391
0.922931
0.906082
0.872609
0.859605
0.861115
0.88315
0.93518
0.96321
0.974959
0.978734
0.979046
0.978134
0.97637
0.974042
0.970887
0.966734
0.961486
0.957689
0.955419
0.954533
0.954219
0.954812
0.956961
0.962468
0.974573
0.987453
0.993893
0.997116
0.998663
0.999327
0.999556
0.999538
0.999451
0.999095
0.998525
0.997185
0.995536
0.995526
0.99598
0.997406
0.998672
0.998913
0.998656
0.996648
0.9896
0.985822
0.985994
0.988427
0.989268
0.987982
0.979046
0.959461
0.950185
0.948771
0.951067
0.962305
0.973168
0.978423
0.980473
0.981344
0.982582
0.769416
0.862398
0.869393
0.818783
0.724918
0.673461
0.662557
0.66265
0.671067
0.683407
0.695136
0.71554
0.74224
0.766814
0.817242
0.88052
0.923917
0.943372
0.951608
0.956001
0.96168
0.967568
0.969826
0.968953
0.966439
0.967565
0.975388
0.98406
0.987687
0.988813
0.989194
0.989172
0.988683
0.987348
0.984771
0.980685
0.976106
0.97184
0.968817
0.966727
0.964941
0.9631
0.961922
0.960283
0.95711
0.950834
0.941049
0.935805
0.93343
0.93222
0.931446
0.931086
0.930952
0.930956
0.931074
0.93148
0.931479
0.931393
0.931427
0.931606
0.931814
0.932183
0.93299
0.934982
0.938841
0.943034
0.94695
0.949138
0.94958
0.948708
0.945607
0.942912
0.942322
0.94333
0.946832
0.955153
0.96513
0.973222
0.979741
0.985672
0.991118
0.995308
0.997787
0.998792
0.998999
0.998752
0.997137
0.991605
0.984617
0.981278
0.980867
0.982498
0.989461
0.995728
0.998293
0.998687
0.997312
0.988756
0.982787
0.949791
0.942096
0.948168
0.946999
0.945846
0.936162
0.92254
0.927186
0.933815
0.932828
0.922711
0.904839
0.904148
0.906888
0.914201
0.919821
0.923707
0.9277
0.930179
0.930654
0.928963
0.916406
0.880221
0.865639
0.867338
0.890388
0.938968
0.964292
0.973691
0.975313
0.974219
0.97043
0.966837
0.964109
0.961765
0.959529
0.957536
0.95599
0.954965
0.955035
0.955827
0.95842
0.964913
0.979481
0.99048
0.995629
0.998037
0.999138
0.999584
0.999704
0.999668
0.999511
0.999013
0.997399
0.995182
0.990854
0.985845
0.985609
0.98668
0.99002
0.994883
0.997728
0.99838
0.998082
0.995725
0.990925
0.990013
0.990677
0.991245
0.990563
0.985198
0.966531
0.952734
0.949146
0.950039
0.958103
0.970759
0.977446
0.980117
0.981253
0.983003
0.770146
0.865954
0.875042
0.825209
0.723592
0.674443
0.665885
0.667507
0.680547
0.694586
0.703555
0.724123
0.750519
0.775706
0.821505
0.876578
0.920532
0.945548
0.957757
0.964188
0.968159
0.971298
0.974271
0.975767
0.97542
0.973171
0.974756
0.979314
0.984448
0.987271
0.988042
0.987884
0.987142
0.985283
0.981889
0.978074
0.974467
0.970787
0.967387
0.964961
0.963998
0.962504
0.961397
0.960228
0.958432
0.955135
0.949187
0.940738
0.935718
0.933332
0.932084
0.931432
0.931111
0.931001
0.931004
0.931038
0.931065
0.931133
0.931315
0.931691
0.932099
0.93264
0.933726
0.936314
0.94207
0.947929
0.951809
0.95353
0.954036
0.95406
0.953512
0.950085
0.945522
0.943658
0.943819
0.945737
0.94963
0.954663
0.961127
0.969309
0.978565
0.986741
0.993049
0.996854
0.998618
0.999172
0.999216
0.998691
0.995856
0.987793
0.982024
0.980827
0.982061
0.98889
0.995774
0.998465
0.998626
0.995203
0.987755
0.961749
0.936419
0.947145
0.949034
0.947482
0.936286
0.922702
0.925398
0.932754
0.932706
0.92781
0.912674
0.908078
0.909215
0.913629
0.919469
0.924966
0.929503
0.931633
0.931784
0.930121
0.918772
0.882517
0.868677
0.871742
0.900587
0.945528
0.965679
0.971118
0.970971
0.967984
0.964471
0.962324
0.960891
0.959711
0.958456
0.957183
0.956194
0.956451
0.957517
0.96049
0.967706
0.983762
0.992757
0.996829
0.998645
0.999436
0.999744
0.999812
0.999771
0.999567
0.998864
0.996978
0.991963
0.983841
0.973864
0.962653
0.961505
0.96357
0.969616
0.982241
0.99197
0.996661
0.997732
0.997392
0.995238
0.993211
0.99312
0.993224
0.992798
0.98936
0.973983
0.956372
0.949996
0.949921
0.954967
0.96848
0.976503
0.979554
0.981436
0.984147
0.768293
0.86761
0.880588
0.836501
0.736036
0.678376
0.668413
0.670442
0.685686
0.701305
0.709305
0.72795
0.75316
0.777105
0.817755
0.864495
0.904052
0.941361
0.957436
0.965747
0.97167
0.975678
0.978397
0.980285
0.981099
0.980378
0.97833
0.979341
0.981663
0.984134
0.985822
0.986235
0.985903
0.984558
0.981117
0.977086
0.973483
0.970362
0.967353
0.964632
0.962698
0.961318
0.960489
0.959833
0.958495
0.956663
0.953811
0.948735
0.942233
0.936825
0.934058
0.932598
0.931811
0.931411
0.931228
0.931214
0.931241
0.931354
0.931667
0.932322
0.932891
0.933616
0.935167
0.939568
0.947563
0.954279
0.958715
0.960183
0.960109
0.959361
0.958088
0.956894
0.954659
0.950185
0.94656
0.945589
0.946414
0.948772
0.95135
0.954538
0.959996
0.969867
0.981498
0.99022
0.995565
0.998203
0.999206
0.999424
0.999273
0.997815
0.990403
0.982741
0.981053
0.982351
0.989757
0.996477
0.998647
0.998187
0.993865
0.980839
0.932482
0.942996
0.949035
0.947525
0.935644
0.922652
0.924028
0.931164
0.932407
0.930671
0.922523
0.915058
0.914169
0.915558
0.919575
0.925892
0.930352
0.931971
0.931946
0.929647
0.915084
0.879106
0.870261
0.877347
0.916601
0.953539
0.966567
0.968644
0.968068
0.965619
0.963388
0.961783
0.9607
0.959889
0.959251
0.958883
0.959323
0.960665
0.963968
0.971417
0.986842
0.994289
0.997605
0.999028
0.999619
0.999841
0.999887
0.999853
0.999653
0.998883
0.996518
0.990451
0.97675
0.955783
0.940691
0.932096
0.930304
0.931352
0.935514
0.947654
0.974032
0.989745
0.995863
0.997112
0.996856
0.995702
0.995151
0.995045
0.994631
0.99223
0.980525
0.960555
0.951409
0.950261
0.953451
0.96607
0.975399
0.979337
0.982126
0.985247
0.765748
0.868064
0.88518
0.850114
0.753404
0.683997
0.670537
0.671374
0.68589
0.703951
0.712323
0.727689
0.752229
0.774335
0.804224
0.834228
0.862418
0.918066
0.950464
0.963836
0.971307
0.976222
0.979761
0.982336
0.984076
0.984708
0.984046
0.982179
0.98218
0.983252
0.984543
0.985327
0.985311
0.984584
0.981663
0.977434
0.973651
0.970521
0.967613
0.964816
0.962702
0.960836
0.959274
0.958365
0.957901
0.956735
0.954963
0.952483
0.948545
0.943955
0.939412
0.936086
0.934022
0.932923
0.932262
0.932086
0.932141
0.932355
0.932958
0.933609
0.934114
0.935033
0.937401
0.944745
0.955185
0.961968
0.965035
0.965642
0.965324
0.963306
0.960276
0.958491
0.957518
0.956806
0.955113
0.951859
0.949342
0.948911
0.95003
0.951882
0.953758
0.956816
0.96374
0.976739
0.987896
0.994508
0.997818
0.999155
0.999471
0.999365
0.998119
0.990625
0.982869
0.981573
0.983623
0.992091
0.997571
0.998643
0.997282
0.990075
0.949215
0.941504
0.947888
0.946561
0.932545
0.921935
0.922178
0.928303
0.931766
0.931362
0.928699
0.922792
0.921496
0.921904
0.923828
0.92851
0.931322