/*--------------------------------*- C++ -*----------------------------------*\
  =========                 |
  \\      /  F ield         | OpenFOAM: The Open Source CFD Toolbox
   \\    /   O peration     | Website:  https://openfoam.org
    \\  /    A nd           | Version:  9
     \\/     M anipulation  |
\*---------------------------------------------------------------------------*/
FoamFile
{
    format      ascii;
    class       volScalarField;
    location    "0.025";
    object      k_0;
}
// * * * * * * * * * * * * * * * * * * * * * * * * * * * * * * * * * * * * * //

dimensions      [0 2 -2 0 0 0 0];

internalField   nonuniform List<scalar> 
12225
(
3.28537e-05
9.18282e-05
0.000129525
0.000140849
0.000140944
0.000132914
9.89104e-05
6.27291e-05
4.4877e-05
3.85272e-05
3.69601e-05
3.65647e-05
3.58615e-05
3.30793e-05
3.03144e-05
2.99104e-05
3.05262e-05
3.54398e-05
2.02189e-05
2.3998e-05
3.13572e-05
3.83929e-05
4.46147e-05
4.64127e-05
4.54168e-05
4.0165e-05
3.29918e-05
2.96828e-05
2.88419e-05
2.89927e-05
3.01264e-05
3.04498e-05
3.03407e-05
2.97807e-05
2.9634e-05
3.00645e-05
2.00269e-05
1.56016e-05
1.56744e-05
1.55097e-05
1.49824e-05
1.49784e-05
1.50187e-05
1.50191e-05
1.5089e-05
1.5344e-05
1.59123e-05
1.65111e-05
1.72998e-05
1.84496e-05
1.94381e-05
1.99096e-05
2.00426e-05
2.01571e-05
2.00125e-05
2.00858e-05
2.00899e-05
2.00169e-05
1.95938e-05
1.89212e-05
1.77706e-05
1.50023e-05
1.13993e-05
9.15398e-06
8.51887e-06
8.61074e-06
9.58643e-06
1.26725e-05
1.52312e-05
1.66844e-05
1.74783e-05
1.78433e-05
2.14166e-05
2.07048e-05
2.02461e-05
2.02249e-05
2.03736e-05
2.12359e-05
2.23343e-05
2.20043e-05
2.03473e-05
1.9677e-05
1.97619e-05
2.05652e-05
2.31608e-05
2.53916e-05
2.63853e-05
2.65552e-05
2.64006e-05
2.54124e-05
2.43127e-05
2.27375e-05
2.10442e-05
2.07664e-05
2.07653e-05
2.09803e-05
2.20036e-05
2.2272e-05
2.18238e-05
2.20672e-05
2.3969e-05
2.45343e-05
2.45326e-05
2.4285e-05
2.41761e-05
2.416e-05
2.40788e-05
2.37226e-05
2.78902e-05
2.79997e-05
2.29281e-05
2.25036e-05
2.35281e-05
2.57291e-05
2.67444e-05
2.52698e-05
2.24595e-05
2.16033e-05
2.16333e-05
2.21684e-05
2.22879e-05
2.1762e-05
2.13399e-05
2.1333e-05
2.16256e-05
2.25308e-05
2.64728e-05
3.18315e-05
2.43129e-05
2.25243e-05
2.26472e-05
2.27876e-05
2.27299e-05
2.24917e-05
2.25708e-05
2.36024e-05
2.49871e-05
2.49012e-05
2.42637e-05
2.3414e-05
2.34031e-05
2.52762e-05
3.45445e-05
6.85688e-05
2.21153e-05
2.20238e-05
2.14037e-05
2.14522e-05
2.15904e-05
2.15906e-05
2.1606e-05
2.18869e-05
2.38795e-05
3.19915e-05
3.59511e-05
3.53845e-05
3.10131e-05
2.81818e-05
2.78697e-05
2.88454e-05
3.34744e-05
4.82626e-05
2.15367e-05
2.09456e-05
2.10364e-05
2.23764e-05
2.27264e-05
2.2373e-05
2.16261e-05
2.15011e-05
2.17317e-05
2.298e-05
2.40336e-05
2.44387e-05
2.48203e-05
2.59292e-05
3.00826e-05
4.48761e-05
0.000102961
0.000163175
2.05251e-05
2.09175e-05
2.38169e-05
2.50681e-05
2.35079e-05
2.17918e-05
2.16091e-05
2.20943e-05
2.2995e-05
2.34284e-05
2.35913e-05
2.36834e-05
2.38674e-05
2.46052e-05
2.74497e-05
3.72276e-05
7.65374e-05
0.000153539
2.03085e-05
2.16621e-05
2.33696e-05
2.32435e-05
2.15559e-05
2.06448e-05
2.05115e-05
2.06081e-05
2.10941e-05
2.27459e-05
2.79664e-05
3.19417e-05
3.26069e-05
3.18301e-05
3.14144e-05
3.21669e-05
3.60825e-05
5.45706e-05
2.00641e-05
2.05693e-05
2.1806e-05
2.2181e-05
2.20053e-05
2.13381e-05
2.10927e-05
2.11691e-05
2.1938e-05
2.58037e-05
3.03664e-05
3.14418e-05
3.09424e-05
2.81918e-05
2.61627e-05
2.56168e-05
2.56898e-05
2.68685e-05
2.07688e-05
2.0888e-05
2.08931e-05
2.08746e-05
2.07645e-05
2.07471e-05
2.08695e-05
2.14178e-05
2.20152e-05
2.24268e-05
2.28314e-05
2.33647e-05
2.45732e-05
2.76395e-05
3.00262e-05
3.09691e-05
3.12663e-05
3.17189e-05
2.22082e-05
2.1467e-05
2.0706e-05
2.05692e-05
2.05104e-05
2.05101e-05
2.06069e-05
2.11802e-05
2.19564e-05
2.22963e-05
2.24855e-05
2.26976e-05
2.3111e-05
2.41907e-05
2.77785e-05
3.10483e-05
3.21779e-05
3.27769e-05
2.0695e-05
2.11727e-05
2.25477e-05
2.50356e-05
2.68342e-05
2.78793e-05
2.8686e-05
2.87645e-05
2.63308e-05
2.30883e-05
2.19208e-05
2.15995e-05
2.15845e-05
2.17705e-05
2.27696e-05
2.60741e-05
2.84648e-05
2.99588e-05
2.07175e-05
2.21457e-05
2.22094e-05
2.17646e-05
2.16513e-05
2.17438e-05
2.18418e-05
2.18431e-05
2.16629e-05
2.09873e-05
2.07245e-05
2.07447e-05
2.08609e-05
2.11089e-05
2.15794e-05
2.22473e-05
2.25705e-05
2.29784e-05
2.02418e-05
2.04882e-05
2.05649e-05
2.07279e-05
2.10348e-05
2.11745e-05
2.12092e-05
2.12061e-05
2.11562e-05
2.09894e-05
2.08893e-05
2.08994e-05
2.09232e-05
2.10367e-05
2.15834e-05
2.34953e-05
2.5154e-05
2.58509e-05
2.06913e-05
2.13593e-05
2.15127e-05
2.1587e-05
2.10351e-05
2.05441e-05
2.04403e-05
2.04401e-05
2.05156e-05
2.09012e-05
2.14185e-05
2.16634e-05
2.16903e-05
2.16463e-05
2.1622e-05
2.16399e-05
2.17034e-05
2.18601e-05
2.00579e-05
2.06545e-05
2.10828e-05
2.14201e-05
2.14664e-05
2.09907e-05
2.04283e-05
2.02432e-05
2.02087e-05
2.02239e-05
2.03321e-05
2.05331e-05
2.06718e-05
2.07522e-05
2.07765e-05
2.0776e-05
2.07769e-05
2.07953e-05
2.00849e-05
2.12958e-05
2.23856e-05
2.20734e-05
2.08094e-05
2.02883e-05
2.01318e-05
2.00989e-05
2.01034e-05
2.01518e-05
2.03386e-05
2.09908e-05
2.25777e-05
2.36401e-05
2.38158e-05
2.34946e-05
2.27473e-05
2.23737e-05
2.0701e-05
2.17819e-05
2.22183e-05
2.16713e-05
2.06475e-05
2.03031e-05
2.02708e-05
2.04018e-05
2.11129e-05
2.19582e-05
2.24305e-05
2.27752e-05
2.31045e-05
2.32545e-05
2.32073e-05
2.3149e-05
2.32748e-05
2.41194e-05
2.32755e-05
2.32622e-05
2.3718e-05
2.31891e-05
2.25337e-05
2.27624e-05
2.27115e-05
2.22784e-05
2.20161e-05
2.1967e-05
2.19744e-05
2.20258e-05
2.21706e-05
2.25414e-05
2.37917e-05
2.56165e-05
2.68744e-05
2.75354e-05
2.48097e-05
2.20019e-05
2.1336e-05
2.15053e-05
2.23802e-05
2.39851e-05
2.43382e-05
2.40095e-05
2.28755e-05
2.2085e-05
2.16977e-05
2.15427e-05
2.15097e-05
2.15247e-05
2.16415e-05
2.21089e-05
2.3825e-05
2.55425e-05
2.08378e-05
2.09535e-05
2.07849e-05
2.12504e-05
2.43617e-05
2.80474e-05
2.8592e-05
2.71307e-05
2.38734e-05
2.20056e-05
2.11525e-05
2.08811e-05
2.08652e-05
2.10226e-05
2.19395e-05
2.34884e-05
2.43938e-05
2.47621e-05
2.33645e-05
2.2497e-05
2.13269e-05
2.12021e-05
2.15426e-05
2.31542e-05
2.41703e-05
2.42602e-05
2.38201e-05
2.2394e-05
2.14705e-05
2.10783e-05
2.09793e-05
2.09926e-05
2.11271e-05
2.12814e-05
2.13646e-05
2.14507e-05
2.01277e-05
2.0494e-05
2.05315e-05
2.0521e-05
2.05957e-05
2.10701e-05
2.20659e-05
2.25877e-05
2.27119e-05
2.26487e-05
2.21432e-05
2.08086e-05
1.96952e-05
1.89023e-05
1.84275e-05
1.82462e-05
1.82299e-05
1.82921e-05
2.00078e-05
1.61729e-05
1.23727e-05
1.19018e-05
1.20452e-05
1.25888e-05
1.39718e-05
1.55972e-05
1.70907e-05
1.80483e-05
1.84228e-05
1.84764e-05
1.84059e-05
1.79392e-05
1.66425e-05
1.56441e-05
1.50735e-05
1.47672e-05
2.01661e-05
2.14083e-05
2.28175e-05
2.34932e-05
2.34922e-05
2.34845e-05
2.3949e-05
2.66524e-05
3.64461e-05
4.38224e-05
4.5765e-05
4.57128e-05
4.45419e-05
3.96901e-05
3.40649e-05
3.06351e-05
2.88596e-05
2.81016e-05
7.55912e-05
7.26704e-05
6.90337e-05
6.52743e-05
5.90469e-05
5.634e-05
5.72755e-05
6.74002e-05
9.59201e-05
0.000111206
0.00011447
0.000112851
0.000100355
7.48752e-05
5.77927e-05
4.81588e-05
4.35795e-05
4.19613e-05
0.00148617
0.00415817
0.00568077
0.00728723
0.00770265
0.00745263
0.00648519
0.00570609
0.00508531
0.00476027
0.00442745
0.00422337
0.00388193
0.00354133
0.00353377
0.0035969
0.00374082
0.00408638
0.00426007
0.00462191
0.00468348
0.00482404
0.00582113
0.0102443
0.012341
0.012795
0.0126941
0.0157158
0.0220015
0.0225344
0.0359882
0.108147
0.0420522
0.0153035
0.0118976
0.0117403
0.0118551
0.0108001
0.00954172
0.00773051
0.00634932
0.00476454
0.00385881
0.00273845
0.00221317
0.00161149
0.0013387
0.0010991
0.000997952
0.000960299
0.000971665
0.000987697
0.000996182
0.000999619
0.00100035
0.000995517
0.000984145
0.000976389
0.00096789
0.000955802
0.000943272
0.000930506
0.000920979
0.000910352
0.00089624
0.000880989
0.000861563
0.000837624
0.000813056
0.000788868
0.000762354
0.000731673
0.00070015
0.000669037
0.000636963
0.000606441
0.000573051
0.000539957
0.000511082
0.00048588
0.000462089
0.000441024
0.000412918
0.000396959
0.000377377
0.00035716
0.000342598
0.000323744
0.000308385
0.000292274
0.000277036
0.000262232
0.00024797
0.000234435
0.000221654
0.000209721
0.000198581
0.000188237
0.000178662
0.000169698
0.000161136
0.000152793
0.000144059
0.000134191
0.000123248
0.000111372
9.90918e-05
8.70172e-05
7.56019e-05
6.50843e-05
5.55236e-05
4.69034e-05
3.92209e-05
3.25241e-05
2.68694e-05
2.224e-05
1.85168e-05
1.54936e-05
1.29842e-05
1.08299e-05
8.93732e-06
7.268e-06
5.82034e-06
4.59229e-06
3.5729e-06
2.74451e-06
2.0837e-06
1.56475e-06
1.16278e-06
8.55429e-07
6.23415e-07
4.50453e-07
3.2303e-07
2.30136e-07
1.63003e-07
1.14827e-07
8.04514e-08
5.60463e-08
3.88068e-08
2.66937e-08
1.82292e-08
1.23475e-08
8.28682e-09
5.50505e-09
3.61681e-09
2.3484e-09
1.50612e-09
9.53706e-10
5.9612e-10
3.67773e-10
2.23966e-10
1.34655e-10
7.99529e-11
4.69027e-11
2.71976e-11
1.55982e-11
8.8527e-12
4.97469e-12
2.76915e-12
1.52748e-12
8.35164e-13
4.52714e-13
2.43332e-13
1.29713e-13
6.85942e-14
3.60062e-14
1.8779e-14
9.75421e-15
5.06521e-15
2.65287e-15
1.42074e-15
7.99566e-16
4.87781e-16
3.35444e-16
2.60947e-16
2.3013e-16
7.6048e-16
4.90868e-13
4.39854e-10
3.83927e-07
0.0018567
0.00931806
0.0075149
0.00750758
0.00775877
0.00806142
0.00877132
0.00928728
0.0093143
0.00930754
0.00936126
0.00929168
0.00907661
0.00868576
0.00784607
0.00710547
0.00622499
0.00569297
0.00514096
0.00485333
0.00476542
0.00479231
0.00501448
0.00604218
0.00651662
0.00877067
0.00918995
0.0125052
0.0362286
0.0406387
0.0372068
0.0359425
0.0147664
0.00866472
0.00684368
0.00599711
0.00478461
0.0040732
0.00335254
0.00298852
0.00274272
0.00261976
0.00257011
0.0025554
0.00259677
0.00265385
0.00270571
0.00274285
0.00277776
0.0028081
0.00282352
0.00283872
0.00284635
0.00285185
0.00285447
0.00285525
0.00285066
0.0028449
0.00283588
0.00282802
0.00281736
0.00280094
0.00278841
0.00277362
0.00275209
0.00273016
0.00269904
0.00265384
0.00259678
0.00252713
0.00244573
0.00235778
0.00225937
0.00216162
0.00206602
0.00198262
0.00189087
0.00179959
0.00170929
0.00163119
0.00154741
0.00147669
0.00139304
0.00132271
0.0012456
0.00117576
0.00110063
0.00102855
0.000953683
0.000877733
0.000803214
0.00073187
0.000662773
0.000595364
0.000531229
0.000471957
0.000418888
0.000372955
0.000334593
0.000303355
0.000278212
0.000258011
0.000241862
0.000229271
0.000218796
0.000208814
0.000198416
0.000187207
0.000174989
0.000161789
0.000147932
0.000133956
0.000120371
0.000107473
9.53195e-05
8.38736e-05
7.31476e-05
6.32745e-05
5.44095e-05
4.66689e-05
4.00567e-05
3.44769e-05
2.97683e-05
2.57597e-05
2.22989e-05
1.92635e-05
1.6565e-05
1.41442e-05
1.19652e-05
1.00085e-05
8.26591e-06
6.7339e-06
5.40888e-06
4.28357e-06
3.34549e-06
2.57749e-06
1.95932e-06
1.46975e-06
1.08825e-06
7.95925e-07
5.75596e-07
4.11632e-07
2.90818e-07
2.02803e-07
1.39493e-07
9.4581e-08
6.31885e-08
4.15833e-08
2.69506e-08
1.72014e-08
1.0813e-08
6.69603e-09
4.08633e-09
2.45875e-09
1.45961e-09
8.55466e-10
4.9537e-10
2.83604e-10
1.60624e-10
9.00429e-11
4.99809e-11
2.74797e-11
1.4968e-11
8.07837e-12
4.32033e-12
2.28978e-12
1.20263e-12
6.26107e-13
3.23063e-13
1.65336e-13
8.39097e-14
4.22982e-14
2.12048e-14
1.05896e-14
5.30708e-15
2.75325e-15
1.27103e-15
3.41446e-14
3.44331e-11
3.0313e-08
0.00137242
0.0120145
0.00816593
0.00627002
0.00676787
0.0077637
0.00962104
0.0126081
0.0140093
0.0148457
0.0160449
0.0162175
0.0160397
0.0155265
0.0143187
0.012936
0.01143
0.0105507
0.00899078
0.00676946
0.00550562
0.00495672
0.00491863
0.00510596
0.00607457
0.0156298
0.0284088
0.0313627
0.0324624
0.0256175
0.0158417
0.00849947
0.00537263
0.00419123
0.00368691
0.00339244
0.00319919
0.00310838
0.0030614
0.00304714
0.00306379
0.00315692
0.00321194
0.00328849
0.00332736
0.00334531
0.00336484
0.00337343
0.00337803
0.00337948
0.0033781
0.00337474
0.00337532
0.00337639
0.00337739
0.00337947
0.00338368
0.00339077
0.00339637
0.00340309
0.00341491
0.00342899
0.00344058
0.00344834
0.00345214
0.00345351
0.00345368
0.003448
0.0034359
0.00340984
0.00336936
0.00331896
0.00324267
0.00315491
0.00306455
0.00297007
0.00287571
0.00280255
0.00272683
0.00265382
0.00259862
0.00253418
0.00248004
0.00242552
0.00236757
0.00230579
0.00223685
0.00216136
0.00207727
0.00197961
0.00186652
0.00173527
0.00158831
0.00142767
0.00125677
0.00108037
0.000904504
0.000737111
0.000589964
0.000475
0.00038549
0.000319313
0.000273997
0.00024369
0.000223054
0.000208719
0.000197809
0.000188061
0.000177411
0.000164917
0.000150802
0.000136079
0.000122032
0.000109835
9.9904e-05
9.15592e-05
8.37032e-05
7.53772e-05
6.62557e-05
5.68728e-05
4.81355e-05
4.06189e-05
3.43676e-05
2.92617e-05
2.51479e-05
2.18453e-05
1.91652e-05
1.69356e-05
1.50171e-05
1.33067e-05
1.1736e-05
1.02673e-05
8.88635e-06
7.59439e-06
6.40089e-06
5.31734e-06
4.35281e-06
3.51139e-06
2.79147e-06
2.18655e-06
1.68701e-06
1.28185e-06
9.59158e-07
7.06528e-07
5.12179e-07
3.65393e-07
2.56515e-07
1.77189e-07
1.20422e-07
8.05253e-08
5.29887e-08
3.43242e-08
2.18985e-08
1.37707e-08
8.54425e-09
5.2372e-09
3.17516e-09
1.90497e-09
1.13092e-09
6.6432e-10
3.86103e-10
2.22017e-10
1.26292e-10
7.1062e-11
3.95466e-11
2.17668e-11
1.18473e-11
6.37811e-12
3.39543e-12
1.78864e-12
9.31728e-13
4.80661e-13
2.45091e-13
1.24118e-13
6.15392e-14
3.1571e-14
1.37076e-14
8.6765e-15
1.46978e-12
1.20664e-09
0.00198758
0.00577816
0.00496993
0.00544931
0.00741897
0.0102286
0.0142309
0.0181773
0.0206865
0.0218
0.0231183
0.0230827
0.0227153
0.0218618
0.0199358
0.0178081
0.015183
0.0128178
0.0119142
0.0101814
0.00792361
0.00586695
0.00510744
0.00594731
0.0207875
0.0268911
0.0274
0.0251888
0.0146677
0.00896807
0.0057546
0.0042261
0.00365262
0.00345293
0.00339058
0.00337205
0.00337072
0.00353122
0.00362989
0.0037699
0.0038335
0.00385941
0.00386696
0.00386506
0.00383125
0.00380292
0.00378594
0.00374545
0.00370047
0.0036638
0.00362003
0.00358413
0.00355995
0.00354509
0.0035164
0.00349373
0.0034845
0.00348059
0.00347931
0.00348076
0.00349306
0.0035124
0.00353274
0.00355597
0.00357729
0.00358703
0.00359887
0.00361618
0.00363552
0.00365462
0.0036668
0.00366972
0.00363118
0.00356731
0.00346522
0.00335516
0.00322035
0.00313378
0.00305979
0.00298057
0.00293473
0.00287485
0.0028281
0.00277989
0.00273385
0.00268243
0.00262095
0.0025546
0.00248345
0.00240992
0.00233094
0.00224605
0.00215585
0.00205471
0.00193776
0.0018031
0.00164875
0.00147282
0.00127137
0.00104411
0.000813534
0.000604296
0.000442634
0.000337631
0.000271448
0.000232496
0.000210655
0.000198374
0.000191651
0.000187807
0.000183876
0.000178294
0.000170903
0.000161828
0.000152417
0.000144392
0.00013797
0.00013225
0.000125515
0.000115936
0.000102703
8.66609e-05
6.98459e-05
5.43376e-05
4.14533e-05
3.15914e-05
2.44477e-05
1.93606e-05
1.56856e-05
1.29401e-05
1.07971e-05
9.04808e-06
7.55815e-06
6.25184e-06
5.10538e-06
4.12351e-06
3.31182e-06
2.65881e-06
2.13855e-06
1.7222e-06
1.38548e-06
1.11031e-06
8.83824e-07
6.96918e-07
5.43221e-07
4.18053e-07
3.17472e-07
2.37835e-07
1.75567e-07
1.27562e-07
9.11671e-08
6.40751e-08
4.42864e-08
3.01052e-08
2.01321e-08
1.32469e-08
8.57897e-09
5.47115e-09
3.43794e-09
2.12952e-09
1.30063e-09
7.83438e-10
4.65465e-10
2.72811e-10
1.57749e-10
9.00123e-11
5.069e-11
2.81873e-11
1.54795e-11
8.40055e-12
4.50855e-12
2.38677e-12
1.26075e-12
6.40097e-13
3.5442e-13
1.52087e-13
1.22017e-13
6.40502e-14
2.72802e-13
5.19021e-11
0.000759828
0.00317948
0.00405979
0.00638364
0.0116111
0.0150152
0.0204017
0.0251896
0.0305791
0.0354781
0.0374285
0.0366938
0.0348265
0.0317667
0.0274909
0.0230139
0.0212283
0.0182213
0.0142872
0.0122118
0.00846511
0.00589239
0.0074051
0.0192275
0.0241453
0.0245554
0.018849
0.0104681
0.00644852
0.0046683
0.00387361
0.00358454
0.00350647
0.0034866
0.00351005
0.00362338
0.00381351
0.00394514
0.00406059
0.00414325
0.00418653
0.00421768
0.00422495
0.00422503
0.00420527
0.00415278
0.0041048
0.00407283
0.00405306
0.00402555
0.00394548
0.00382914
0.00376866
0.00373922
0.00368795
0.00359575
0.00353884
0.00351451
0.00348984
0.00346868
0.00346113
0.00345826
0.00345786
0.00346881
0.00348852
0.00351483
0.00354644
0.00358957
0.00363917
0.00368466
0.0037418
0.00378771
0.00381433
0.00381766
0.00374836
0.00363466
0.00343397
0.00329044
0.00320282
0.00311881
0.00307358
0.00302487
0.00298678
0.00294544
0.00290193
0.00285071
0.00278317
0.0027024
0.00261086
0.0025169
0.00242155
0.00232427
0.00222457
0.00212516
0.0020246
0.00191735
0.00179855
0.0016696
0.00153265
0.00138659
0.0012274
0.00104654
0.000838541
0.000622992
0.000443797
0.000319887
0.000246738
0.000205965
0.000184804
0.000174451
0.000170579
0.000170058
0.000169363
0.000165935
0.000156566
0.000146306
0.000137241
0.000130673
0.000126645
0.000123953
0.000120593
0.000114689
0.000105053
9.1736e-05
7.6257e-05
6.08025e-05
4.71176e-05
3.59203e-05
2.72225e-05
2.07494e-05
1.609e-05
1.2792e-05
1.04497e-05
8.73626e-06
7.40933e-06
6.31024e-06
5.34821e-06
4.48439e-06
3.70871e-06
3.02156e-06
2.42429e-06
1.91595e-06
1.49217e-06
1.14576e-06
8.675e-07
6.47329e-07
4.75708e-07
3.44046e-07
2.44924e-07
1.71732e-07
1.18698e-07
8.09747e-08
5.4616e-08
3.64869e-08
2.41727e-08
1.58841e-08
1.03441e-08
6.66657e-09
4.24499e-09
2.66656e-09
1.65028e-09
1.00524e-09
6.02256e-10
3.54747e-10
2.0539e-10
1.16881e-10
6.53813e-11
3.59612e-11
1.94547e-11
1.03572e-11
5.44235e-12
2.79789e-12
1.45486e-12
7.16211e-13
4.04405e-13
2.2966e-13
8.21958e-13
8.36978e-13
5.75439e-12
8.71969e-12
0.000564393
0.00346542
0.00515902
0.0101308
0.0146053
0.0201559
0.0316093
0.0491987
0.0680479
0.0829651
0.0827079
0.0787217
0.0685342
0.0530535
0.0399804
0.0302535
0.0243353
0.021892
0.0164588
0.0119967
0.00795382
0.00817081
0.0180588
0.0217213
0.0220536
0.0156474
0.00852174
0.00553179
0.0042821
0.00380749
0.00365111
0.00360988
0.00360976
0.0037469
0.00398631
0.00422862
0.00436787
0.00445905
0.00453972
0.00458805
0.0046702
0.0047564
0.00485402
0.00497015
0.00502266
0.00504908
0.00505973
0.00506223
0.00507746
0.00508365
0.00500411
0.00478311
0.00458941
0.00450946
0.00439686
0.00420368
0.00402144
0.00393208
0.00383335
0.00371384
0.00364092
0.00359428
0.00352842
0.00347901
0.00345474
0.00343709
0.00343517
0.00346102
0.0034978
0.00357081
0.0036692
0.00378378
0.00389237
0.00395731
0.00397413
0.00397159
0.00389273
0.00374944
0.00358107
0.00344927
0.00333513
0.00325738
0.00319867
0.00315184
0.0031075
0.00305606
0.00299553
0.00291663
0.00281579
0.0026927
0.00254874
0.00240029
0.00225961
0.00212405
0.00199112
0.00186492
0.00175997
0.00166139
0.00154233
0.00141458
0.00128176
0.00114399
0.000999627
0.000846201
0.000682492
0.00051897
0.000376144
0.00027403
0.000212142
0.000179185
0.000163074
0.000156222
0.000154827
0.000154971
0.000154689
0.000151816
0.000141453
0.000128896
0.000119179
0.000113095
0.000110267
0.000109221
0.000108336
0.000106531
0.000102089
9.09325e-05
7.60859e-05
6.04583e-05
4.58461e-05
3.36378e-05
2.41853e-05
1.7287e-05
1.2496e-05
9.28941e-06
7.17938e-06
5.77174e-06
4.78349e-06
4.02811e-06
3.39748e-06
2.84071e-06
2.34093e-06
1.89688e-06
1.51095e-06
1.18346e-06
9.12005e-07
6.91937e-07
5.17142e-07
3.80909e-07
2.76588e-07
1.98027e-07
1.39805e-07
9.73237e-08
6.68012e-08
4.52032e-08
3.01518e-08
1.98218e-08
1.284e-08
8.19371e-09
5.14946e-09
3.18616e-09
1.94014e-09
1.16219e-09
6.8451e-10
3.96237e-10
2.25605e-10
1.26399e-10
6.96832e-11
3.77268e-11
2.00362e-11
1.05444e-11
5.63764e-12
2.92717e-12
2.46507e-12
2.73378e-12
4.45733e-12
7.68942e-12
2.90285e-11
2.81327e-11
3.88443e-11
3.75341e-11
0.000882938
0.0047277
0.00659255
0.012331
0.0201865
0.0366645
0.0660598
0.0990414
0.119064
0.128461
0.132316
0.128737
0.116568
0.093075
0.0700261
0.0495267
0.031982
0.0218264
0.0155633
0.0106554
0.00938605
0.0167809
0.0200512
0.0202064
0.0147347
0.00785351
0.0052356
0.00423464
0.0038783
0.00376172
0.00372225
0.00377895
0.00395449
0.00432802
0.00457112
0.00473636
0.00483534
0.00499225
0.00510357
0.00528773
0.00556246
0.00584109
0.0061709
0.00656172
0.00691382
0.00720294
0.00743247
0.00760712
0.0077486
0.00779994
0.00769499
0.00727933
0.0065875
0.00624771
0.005723
0.00529576
0.00486898
0.0045299
0.00425992
0.00413091
0.00394864
0.00384437
0.00377037
0.00368661
0.00362468
0.00355807
0.00349583
0.00347279
0.00346685
0.00347651
0.00354233
0.00360654
0.00369659
0.00379799
0.00389448
0.00393675
0.00395084
0.00392578
0.00385055
0.00376414
0.00366502
0.00356277
0.00346103
0.00335315
0.00325234
0.00315588
0.0030752
0.00300269
0.00293623
0.00286791
0.00278903
0.00266919
0.0024852
0.00224955
0.00202354
0.00181181
0.0016204
0.00146826
0.00137968
0.0013032
0.00120616
0.00110362
0.000992205
0.000867671
0.000734821
0.000602781
0.000479665
0.000369826
0.000279548
0.000214474
0.00017489
0.00015438
0.0001453
0.000142756
0.000142743
0.0001429
0.000142295
0.000138104
0.000125013
0.000111549
0.000102044
9.65572e-05
9.42282e-05
9.35854e-05
9.33881e-05
9.30341e-05
9.1926e-05
8.80514e-05
7.56219e-05
5.82685e-05
4.27469e-05
3.01163e-05
2.06076e-05
1.38903e-05
9.40443e-06
6.54278e-06
4.76771e-06
3.66402e-06
2.94447e-06
2.42964e-06
2.02033e-06
1.66959e-06
1.36e-06
1.08795e-06
8.538e-07
6.57463e-07
4.97146e-07
3.69484e-07
2.70133e-07
1.94413e-07
1.37802e-07
9.62294e-08
6.62157e-08
4.48996e-08
3.00011e-08
1.97517e-08
1.28107e-08
8.18389e-09
5.14826e-09
3.1883e-09
1.94327e-09
1.16532e-09
6.87276e-10
3.98538e-10
2.27128e-10
1.2712e-10
7.00066e-11
3.79329e-11
2.03379e-11
1.10471e-11
6.17968e-12
3.56895e-12
3.08623e-12
3.28394e-12
4.60359e-12
6.58217e-12
1.64341e-11
1.71531e-11
1.86116e-11
2.26282e-11
0.00135804
0.00527159
0.00786873
0.0164684
0.027746
0.0507601
0.0853726
0.115463
0.131328
0.138681
0.146498
0.143933
0.121873
0.0970933
0.0718547
0.0484504
0.030043
0.0190438
0.0128417
0.0113282
0.0154485
0.0187987
0.0190569
0.0146852
0.00782094
0.00522786
0.00430753
0.00400372
0.00391758
0.0039045
0.00412048
0.0044198
0.00479076
0.00503642
0.00514661
0.0052783
0.00547085
0.00575867
0.00611806
0.00672521
0.00751116
0.00849306
0.00974228
0.0112787
0.0129732
0.0145628
0.0159442
0.0169072
0.0173559
0.0174587
0.0166194
0.0158685
0.0140103
0.0128199
0.0108748
0.00910765
0.00780354
0.00670423
0.00533273
0.00474036
0.0042859
0.00395129
0.00380135
0.00369608
0.00362952
0.00359872
0.00358834
0.00359336
0.00359919
0.00363324
0.00367255
0.00370448
0.00371956
0.00371338
0.00372199
0.00372173
0.00370534
0.00370079
0.0037024
0.00369071
0.00364133
0.00355582
0.00344196
0.00329636
0.00313878
0.00298405
0.00285709
0.00277297
0.00275331
0.00278122
0.00279866
0.0027982
0.00275619
0.00265338
0.00239985
0.00201986
0.00166945
0.00138998
0.00116649
0.00102209
0.000950581
0.000882249
0.000822331
0.000762327
0.000687025
0.000593148
0.000490968
0.000394597
0.000312353
0.000247028
0.000198242
0.000165194
0.000145719
0.000136103
0.000132748
0.000132282
0.000132361
0.000132247
0.000130677
0.000123107
0.000107468
9.49788e-05
8.71226e-05
8.33725e-05
8.23013e-05
8.22717e-05
8.24958e-05
8.24942e-05
8.19878e-05
7.9417e-05
6.97147e-05
5.2098e-05
3.66826e-05
2.47111e-05
1.60895e-05
1.02725e-05
6.56821e-06
4.31997e-06
2.9974e-06
2.21928e-06
1.73755e-06
1.40699e-06
1.1517e-06
9.37471e-07
7.51787e-07
5.91423e-07
4.55823e-07
3.44231e-07
2.5492e-07
1.85306e-07
1.32348e-07
9.29478e-08
6.42271e-08
4.36863e-08
2.92575e-08
1.92955e-08
1.25317e-08
8.01439e-09
5.04637e-09
3.12787e-09
1.90797e-09
1.14505e-09
6.75874e-10
3.92231e-10
2.23747e-10
1.25326e-10
6.90159e-11
3.73867e-11
2.00102e-11
1.07588e-11
5.99359e-12
3.3618e-12
2.52119e-12
2.52277e-12
3.14353e-12
3.77991e-12
5.75372e-12
6.22423e-12
6.6843e-12
8.38561e-12
0.00157096
0.00553027
0.00933901
0.0178679
0.0299657
0.0541473
0.0885582
0.116708
0.131308
0.137756
0.138939
0.128792
0.109811
0.0878068
0.0634486
0.0397664
0.0220274
0.0147141
0.0131105
0.0147314
0.0176979
0.018149
0.0151858
0.00806711
0.00536926
0.00442644
0.00412292
0.00404271
0.00404502
0.00424881
0.00459134
0.00488848
0.00519545
0.00543853
0.00558202
0.00587496
0.00635094
0.00708645
0.00813949
0.00975135
0.0120086
0.0151085
0.0191041
0.0238814
0.0288018
0.0331505
0.0363807
0.0379593
0.038531
0.0377207
0.0350991
0.0323971
0.0291428
0.0255553
0.0231477
0.0190075
0.0158068
0.0141981
0.0104678
0.00791744
0.00630621
0.00492482
0.00422836
0.0038103
0.00359885
0.00350932
0.00348153
0.00348639
0.00354385
0.00364244
0.0037861
0.0039314
0.00406634
0.00416316
0.00413753
0.00400062
0.00376987
0.00358081
0.00345382
0.00335558
0.0032722
0.00318248
0.00307065
0.00292988
0.00276951
0.00260501
0.00244079
0.00227075
0.00210552
0.0020264
0.00211879
0.00238553
0.00263225
0.00272915
0.00271736
0.00257271
0.00210903
0.00156885
0.00117553
0.000903558
0.000733588
0.000644044
0.000571258
0.000522369
0.00049329
0.000467759
0.000426225
0.000369667
0.000307897
0.000250906
0.000204862
0.000171323
0.000149027
0.000135307
0.000127659
0.000124178
0.000123089
0.000122878
0.000122704
0.000121936
0.000118169
0.000105253
9.05195e-05
8.06903e-05
7.55203e-05
7.3745e-05
7.3603e-05
7.42591e-05
7.51905e-05
7.52711e-05
7.46996e-05
7.15246e-05
5.96934e-05
4.2224e-05
2.82755e-05
1.81097e-05
1.12019e-05
6.79405e-06
4.13335e-06
2.59967e-06
1.74041e-06
1.25553e-06
9.65138e-07
7.70167e-07
6.21609e-07
4.98435e-07
3.9318e-07
3.03793e-07
2.29624e-07
1.69835e-07
1.23026e-07
8.73791e-08
6.09122e-08
4.17131e-08
2.80811e-08
1.8593e-08
1.21123e-08
7.76461e-09
4.89846e-09
3.04107e-09
1.85764e-09
1.11631e-09
6.59756e-10
3.83359e-10
2.18968e-10
1.22857e-10
6.76972e-11
3.66845e-11
1.9612e-11
1.04273e-11
5.71642e-12
3.16848e-12
2.01222e-12
1.69132e-12
1.73534e-12
1.68677e-12
1.61881e-12
1.64874e-12
1.77077e-12
2.3779e-12
0.00172056
0.00559137
0.0102667
0.0178853
0.0274841
0.0424507
0.0626871
0.0820736
0.0977441
0.105858
0.107912
0.0968801
0.0839124
0.0635166
0.038683
0.0229385
0.0164672
0.0148201
0.0149006
0.0168411
0.017259
0.0153803
0.00849436
0.00560142
0.00458243
0.00425395
0.00416668
0.00417158
0.00434335
0.00457345
0.0049417
0.00540247
0.00600137
0.00631863
0.00670558
0.00741429
0.00862723
0.0104472
0.0132241
0.017414
0.0232835
0.0306799
0.0391996
0.0483677
0.0574819
0.0655066
0.0710038
0.0735041
0.0741494
0.0694143
0.0631233
0.0542534
0.0478679
0.0378147
0.0331648
0.0289706
0.0233858
0.0208281
0.0179433
0.0153384
0.0120187
0.00899248
0.00647577
0.00505229
0.00416401
0.00371979
0.00350974
0.00342778
0.00340517
0.00342433
0.00348053
0.00363137
0.00388924
0.00422325
0.0044773
0.00463225
0.00465508
0.00442604
0.00403938
0.00364329
0.00334023
0.0031622
0.00304633
0.0029463
0.00284615
0.00274145
0.00260537
0.00239197
0.00209157
0.00179204
0.00159403
0.0015357
0.00168485
0.0021788
0.00260081
0.002691
0.00260381
0.00213133
0.00142267
0.000948746
0.000662895
0.000502204
0.000427612
0.000362945
0.000312276
0.000283614
0.000273803
0.000268035
0.000254206
0.000227479
0.000197134
0.000169521
0.000148769
0.000134991
0.000126079
0.000120306
0.000116947
0.000115411
0.000114843
0.000114424
0.000113552
0.00011091
0.000101487
8.66651e-05
7.58937e-05
6.98179e-05
6.74622e-05
6.71352e-05
6.77139e-05
6.96249e-05
7.03741e-05
7.02794e-05
6.88877e-05
6.24234e-05
4.56228e-05
3.04291e-05
1.92876e-05
1.17099e-05
6.88335e-06
3.9823e-06
2.32607e-06
1.41858e-06
9.30578e-07
6.63396e-07
5.05744e-07
3.99785e-07
3.1871e-07
2.51688e-07
1.95074e-07
1.47823e-07
1.0942e-07
7.91541e-08
5.60187e-08
3.88321e-08
2.63958e-08
1.76107e-08
1.15411e-08
7.43329e-09
4.70702e-09
2.93112e-09
1.79505e-09
1.08108e-09
6.40212e-10
3.72714e-10
2.13255e-10
1.19892e-10
6.6191e-11
3.58701e-11
1.9152e-11
1.00987e-11
5.39252e-12
2.92146e-12
1.68787e-12
1.09157e-12
8.0866e-13
5.87457e-13
4.82688e-13
4.62299e-13
4.69957e-13
5.99019e-13
0.0018306
0.00516563
0.0105019
0.0154788
0.021009
0.0283004
0.0369422
0.0459551
0.0530451
0.059427
0.0622273
0.0596658
0.0500465
0.0328751
0.0228412
0.0179518
0.0163538
0.0160677
0.0164818
0.0165632
0.0150527
0.00896966
0.00589765
0.00475763
0.00438753
0.00428687
0.00427417
0.00442634
0.00478089
0.00535189
0.0059599
0.00654961
0.00688766
0.00703066
0.00754563
0.00878413
0.0107721
0.0139307
0.0189662
0.0266286
0.0373643
0.0512107
0.0680124
0.0874028
0.108453
0.125687
0.137024
0.142312
0.143525
0.133136
0.120856
0.098268
0.0804184
0.0592838
0.0439672
0.0353582
0.0274225
0.0231622
0.0200593
0.0177919
0.0159583
0.0140492
0.0116204
0.0087231
0.00630005
0.00479786
0.00406565
0.00370645
0.00354419
0.00346091
0.00340121
0.00333767
0.00329687
0.00334835
0.00370485
0.00426097
0.00472524
0.00488048
0.00485305
0.00468502
0.00442576
0.0041656
0.00400777
0.00397404
0.00403177
0.00411613
0.00411733
0.0039313
0.00336489
0.00250299
0.00181378
0.0014564
0.00136949
0.00142893
0.00184212
0.00247995
0.00262944
0.00253371
0.0019504
0.00117083
0.000708107
0.000447814
0.000316539
0.000265177
0.000231063
0.000199348
0.000177508
0.000167539
0.000166493
0.000168665
0.000168659
0.000159511
0.00014192
0.000129987
0.000122779
0.000117841
0.000113744
0.00011071
0.000108956
0.000108128
0.000107543
0.00010647
0.000103844
9.55125e-05
8.19816e-05
7.15565e-05
6.53734e-05
6.28088e-05
6.23708e-05
6.28625e-05
6.51741e-05
6.66434e-05
6.67719e-05
6.598e-05
6.14933e-05
4.67164e-05
3.08389e-05
1.93354e-05
1.15685e-05
6.65751e-06
3.72739e-06
2.06845e-06
1.17147e-06
7.01808e-07
4.5774e-07
3.26739e-07
2.49134e-07
1.95908e-07
1.54495e-07
1.20179e-07
9.14806e-08
6.79415e-08
4.9213e-08
3.47941e-08
2.40406e-08
1.62541e-08
1.07665e-08
6.99397e-09
4.45916e-09
2.79204e-09
1.71754e-09
1.03826e-09
6.1682e-10
3.60122e-10
2.066e-10
1.16428e-10
6.44536e-11
3.5023e-11
1.86754e-11
9.77911e-12
5.09228e-12
2.63568e-12
1.37416e-12
7.15519e-13
3.87314e-13
2.21998e-13
1.41644e-13
1.11028e-13
1.06281e-13
1.28493e-13
0.00206035
0.00457904
0.010154
0.0145756
0.018738
0.023135
0.0269462
0.0305496
0.033111
0.0351334
0.0362885
0.0360415
0.029129
0.0219771
0.0188486
0.0173547
0.0167029
0.0164046
0.0160734
0.0146465
0.00941724
0.00622783
0.00495564
0.00452374
0.0044053
0.00437869
0.00451002
0.00491842
0.00548399
0.00601303
0.00658121
0.0071976
0.0075633
0.00818925
0.00951723
0.0121797
0.0164949
0.0232403
0.0335999
0.0485914
0.069043
0.0982412
0.132922
0.169181
0.200099
0.223844
0.239581
0.246815
0.248502
0.235554
0.219149
0.191866
0.15528
0.115229
0.079285
0.0537869
0.0367235
0.0266125
0.0211927
0.0180055
0.0159798
0.0148513
0.0133878
0.0117763
0.0098765
0.0076643
0.0058662
0.0048169
0.0043835
0.00423742
0.00410691