/*--------------------------------*- C++ -*----------------------------------*\
  =========                 |
  \\      /  F ield         | OpenFOAM: The Open Source CFD Toolbox
   \\    /   O peration     | Website:  https://openfoam.org
    \\  /    A nd           | Version:  9
     \\/     M anipulation  |
\*---------------------------------------------------------------------------*/
FoamFile
{
    format      ascii;
    class       volVectorField;
    location    "0.025";
    object      U;
}
// * * * * * * * * * * * * * * * * * * * * * * * * * * * * * * * * * * * * * //

dimensions      [0 1 -1 0 0 0 0];

internalField   nonuniform List<vector> 
12225
(
(9.85626 -0.0434212 0)
(9.74158 -0.000625416 0)
(9.44311 0.0620983 0)
(9.1678 0.0772099 0)
(8.89436 0.074124 0)
(8.55219 0.0692692 0)
(8.16326 0.0655904 0)
(7.79059 0.0651893 0)
(7.44893 0.0686265 0)
(7.12851 0.0699684 0)
(6.81458 0.064384 0)
(6.52454 0.0553917 0)
(6.21886 0.0490022 0)
(5.94777 0.0504149 0)
(5.6001 0.064968 0)
(5.28888 0.080019 0)
(4.84802 0.0993956 0)
(4.40783 0.151537 0)
(10.2556 0.138849 0)
(10.2039 0.0968999 0)
(10.2586 0.0650854 0)
(10.2993 0.0431973 0)
(10.3059 0.0639086 0)
(10.2793 0.104213 0)
(10.2095 0.127828 0)
(10.1061 0.127177 0)
(9.98719 0.11619 0)
(9.87673 0.111281 0)
(9.77288 0.114426 0)
(9.67801 0.125797 0)
(9.5591 0.13955 0)
(9.43595 0.155546 0)
(9.26709 0.176146 0)
(9.10448 0.19857 0)
(8.90648 0.240708 0)
(8.6812 0.279789 0)
(9.94252 0.0512015 0)
(10.1027 -0.0112621 0)
(10.1854 0.0413411 0)
(10.2013 0.0769425 0)
(10.205 0.092262 0)
(10.2191 0.103871 0)
(10.2238 0.116215 0)
(10.1959 0.128825 0)
(10.1329 0.13849 0)
(10.0565 0.142384 0)
(9.98706 0.139383 0)
(9.93014 0.137351 0)
(9.87563 0.140801 0)
(9.81624 0.155248 0)
(9.74358 0.183187 0)
(9.6595 0.218637 0)
(9.57469 0.267243 0)
(9.48594 0.334296 0)
(10.0361 0.104182 0)
(10.1367 0.0525329 0)
(10.0819 0.0427595 0)
(10.049 0.0339713 0)
(10.0791 0.0506445 0)
(10.1318 0.0891416 0)
(10.1644 0.128432 0)
(10.1564 0.153504 0)
(10.1096 0.160067 0)
(10.0432 0.155322 0)
(9.97816 0.15076 0)
(9.92512 0.15691 0)
(9.88474 0.177443 0)
(9.85377 0.209898 0)
(9.826 0.248311 0)
(9.79688 0.288519 0)
(9.76518 0.332837 0)
(9.7317 0.386606 0)
(9.9607 -0.0511319 0)
(10.0008 -0.014303 0)
(9.92302 0.0625292 0)
(9.86957 0.0828308 0)
(9.90389 0.0728914 0)
(9.97648 0.0800762 0)
(10.0414 0.112745 0)
(10.0822 0.153548 0)
(10.0911 0.182825 0)
(10.0654 0.193301 0)
(10.0098 0.188521 0)
(9.93586 0.178811 0)
(9.85807 0.175108 0)
(9.79024 0.184008 0)
(9.73693 0.208392 0)
(9.69809 0.248148 0)
(9.66646 0.300071 0)
(9.64281 0.364771 0)
(9.9349 0.00650328 0)
(9.81621 0.0965264 0)
(9.79746 0.083888 0)
(9.85437 0.0451847 0)
(9.90806 0.0223392 0)
(9.9287 0.0412329 0)
(9.93991 0.0846269 0)
(9.96476 0.127171 0)
(9.99887 0.158074 0)
(10.0236 0.18008 0)
(10.0225 0.199166 0)
(9.98879 0.219205 0)
(9.92711 0.241561 0)
(9.85304 0.267191 0)
(9.78271 0.295854 0)
(9.72771 0.329183 0)
(9.69195 0.366358 0)
(9.67723 0.411166 0)
(9.95163 -0.00730675 0)
(10.0295 0.0138908 0)
(10.0937 0.0271029 0)
(10.1352 0.0392546 0)
(10.1374 0.0470103 0)
(10.0758 0.0676236 0)
(9.97901 0.103909 0)
(9.89956 0.14214 0)
(9.86249 0.171342 0)
(9.8605 0.191576 0)
(9.86964 0.207489 0)
(9.86848 0.222113 0)
(9.84506 0.236439 0)
(9.80597 0.252026 0)
(9.75973 0.26991 0)
(9.71942 0.293836 0)
(9.68758 0.324659 0)
(9.66909 0.365831 0)
(10.2096 0.102195 0)
(10.0418 0.0904607 0)
(9.91639 0.0641722 0)
(9.9385 0.0443731 0)
(10.0237 0.0575801 0)
(10.0666 0.102906 0)
(10.0514 0.148383 0)
(10.017 0.166917 0)
(9.99796 0.165109 0)
(10.0043 0.167259 0)
(10.0244 0.188486 0)
(10.0359 0.227346 0)
(10.0197 0.272175 0)
(9.97103 0.312778 0)
(9.90433 0.345295 0)
(9.83329 0.372814 0)
(9.77685 0.400618 0)
(9.73392 0.434456 0)
(9.80376 0.0764534 0)
(9.82992 0.114466 0)
(9.85882 0.0404287 0)
(9.8515 -0.0129159 0)
(9.84502 -0.013659 0)
(9.88529 0.0444053 0)
(9.96676 0.119571 0)
(10.0445 0.169926 0)
(10.0749 0.187132 0)
(10.0481 0.189694 0)
(9.98942 0.201204 0)
(9.93094 0.231688 0)
(9.89261 0.275582 0)
(9.87772 0.318462 0)
(9.88505 0.350391 0)
(9.90455 0.36998 0)
(9.93381 0.382902 0)
(9.95992 0.401454 0)
(10.1547 0.120179 0)
(10.1168 0.0956754 0)
(10.1335 0.0685212 0)
(10.1302 0.0638464 0)
(10.0779 0.0613642 0)
(10.0049 0.0653223 0)
(9.9549 0.0810046 0)
(9.94289 0.11174 0)
(9.94827 0.154342 0)
(9.95071 0.200911 0)
(9.94962 0.242671 0)
(9.95452 0.274919 0)
(9.97009 0.297075 0)
(9.99422 0.311049 0)
(10.0134 0.321653 0)
(10.0217 0.334627 0)
(10.0075 0.357125 0)
(9.98215 0.392294 0)
(9.91959 0.145361 0)
(9.97064 0.118477 0)
(9.94835 0.028074 0)
(9.9047 -0.00160238 0)
(9.91464 0.0276562 0)
(9.96182 0.0838977 0)
(9.9975 0.140954 0)
(9.99386 0.178846 0)
(9.95544 0.194401 0)
(9.90791 0.198783 0)
(9.87619 0.205813 0)
(9.86877 0.224802 0)
(9.88128 0.257013 0)
(9.89988 0.298679 0)
(9.91553 0.34302 0)
(9.91874 0.38648 0)
(9.9127 0.425922 0)
(9.89729 0.461693 0)
(9.94551 0.141068 0)
(10.076 0.106602 0)
(10.0855 0.0951435 0)
(9.98473 0.0751477 0)
(9.9088 0.0489144 0)
(9.90057 0.0456778 0)
(9.95268 0.0791599 0)
(10.0414 0.136997 0)
(10.1268 0.195176 0)
(10.1734 0.235868 0)
(10.1705 0.256229 0)
(10.1323 0.263918 0)
(10.0847 0.269793 0)
(10.0478 0.280731 0)
(10.033 0.300068 0)
(10.0363 0.32802 0)
(10.0548 0.36291 0)
(10.0745 0.404594 0)
(10.006 0.106342 0)
(10.0501 0.0457974 0)
(10.0335 0.0805805 0)
(10.0524 0.074094 0)
(10.0743 0.0558367 0)
(10.0542 0.0475878 0)
(10.0067 0.0532976 0)
(9.97259 0.0778985 0)
(9.9679 0.121543 0)
(9.98068 0.177725 0)
(9.99173 0.235555 0)
(9.992 0.284392 0)
(9.98273 0.319875 0)
(9.97274 0.344563 0)
(9.96696 0.364303 0)
(9.96947 0.385185 0)
(9.97677 0.410074 0)
(9.98944 0.440643 0)
(10.081 0.0190014 0)
(10.0275 0.0616434 0)
(10.0995 0.0868963 0)
(10.1719 0.0560198 0)
(10.2049 0.0533692 0)
(10.1902 0.0984369 0)
(10.1419 0.154104 0)
(10.0842 0.1931 0)
(10.0361 0.215963 0)
(10.0068 0.233262 0)
(9.99619 0.249055 0)
(9.99991 0.260378 0)
(10.0132 0.265914 0)
(10.0336 0.268789 0)
(10.06 0.276386 0)
(10.0895 0.293929 0)
(10.1215 0.324003 0)
(10.1495 0.365917 0)
(10.0518 0.0402631 0)
(9.98873 -0.0025016 0)
(10.0838 0.00431167 0)
(10.1225 0.0224992 0)
(10.1125 0.0455085 0)
(10.1047 0.0713379 0)
(10.1116 0.0924809 0)
(10.1248 0.11524 0)
(10.1363 0.148516 0)
(10.145 0.192028 0)
(10.1529 0.23813 0)
(10.1582 0.278226 0)
(10.1561 0.307284 0)
(10.1437 0.324975 0)
(10.1219 0.336397 0)
(10.099 0.348615 0)
(10.0779 0.367347 0)
(10.0709 0.398016 0)
(10.1798 -0.0690716 0)
(10.1853 0.0639273 0)
(10.1658 0.0516114 0)
(10.2048 0.0168626 0)
(10.2281 0.0451201 0)
(10.1872 0.110494 0)
(10.1029 0.169855 0)
(10.0141 0.207867 0)
(9.94868 0.226713 0)
(9.92423 0.234263 0)
(9.94404 0.239609 0)
(9.99455 0.249913 0)
(10.0543 0.266849 0)
(10.1045 0.288838 0)
(10.135 0.31084 0)
(10.1454 0.332218 0)
(10.141 0.350928 0)
(10.1303 0.37152 0)
(10.1699 0.0606805 0)
(10.1308 0.00642984 0)
(10.0899 -0.0443093 0)
(10.093 -0.0121843 0)
(10.1082 0.0880299 0)
(10.1066 0.193518 0)
(10.0976 0.258149 0)
(10.0918 0.26545 0)
(10.0859 0.227737 0)
(10.0786 0.174652 0)
(10.0736 0.136455 0)
(10.0742 0.131707 0)
(10.0808 0.162584 0)
(10.0929 0.219177 0)
(10.1094 0.285292 0)
(10.1279 0.347763 0)
(10.1468 0.398428 0)
(10.1637 0.434749 0)
(10.0076 0.357797 0)
(9.99999 0.251619 0)
(9.93363 0.0788791 0)
(9.89663 -0.0102167 0)
(9.91935 0.00082302 0)
(9.97106 0.0797844 0)
(10.0245 0.169745 0)
(10.0692 0.231203 0)
(10.0968 0.261285 0)
(10.1016 0.27245 0)
(10.0874 0.27317 0)
(10.0657 0.266846 0)
(10.0487 0.256537 0)
(10.0451 0.247587 0)
(10.0593 0.244555 0)
(10.0896 0.251203 0)
(10.1316 0.266538 0)
(10.1787 0.291961 0)
(9.9204 0.141471 0)
(9.97656 0.14681 0)
(10.0362 0.0656908 0)
(10.0102 -0.00484848 0)
(9.95151 0.00630034 0)
(9.92692 0.065022 0)
(9.93167 0.119136 0)
(9.95298 0.146935 0)
(9.98636 0.155969 0)
(10.0261 0.161404 0)
(10.0663 0.170073 0)
(10.1026 0.179899 0)
(10.1317 0.186737 0)
(10.1525 0.18939 0)
(10.1663 0.189569 0)
(10.1777 0.192306 0)
(10.1896 0.199806 0)
(10.2074 0.217323 0)
(9.86988 -0.0689973 0)
(9.82718 -0.00845323 0)
(9.88489 0.0866097 0)
(9.91796 0.101529 0)
(9.90262 0.1 0)
(9.8955 0.106877 0)
(9.91596 0.11774 0)
(9.95547 0.125988 0)
(10.0072 0.127487 0)
(10.0632 0.125325 0)
(10.1132 0.126843 0)
(10.1499 0.136868 0)
(10.1713 0.153845 0)
(10.1809 0.173029 0)
(10.184 0.187349 0)
(10.1869 0.195009 0)
(10.1934 0.194082 0)
(10.207 0.189622 0)
(9.83785 -0.00688868 0)
(9.81841 -0.0239108 0)
(9.9312 -0.00135389 0)
(10.0468 0.0344319 0)
(10.1053 0.0617454 0)
(10.1217 0.074073 0)
(10.1224 0.0633015 0)
(10.1152 0.0342443 0)
(10.103 0.00759402 0)
(10.0917 0.00421989 0)
(10.0878 0.0307804 0)
(10.0966 0.0777151 0)
(10.1208 0.126799 0)
(10.1605 0.162944 0)
(10.2114 0.178484 0)
(10.2649 0.175533 0)
(10.3147 0.159482 0)
(10.3517 0.139269 0)
(10.0654 -0.0475514 0)
(10.1301 -0.1524 0)
(10.1659 -0.138708 0)
(10.157 -0.0817156 0)
(10.1484 -0.00861231 0)
(10.2 0.0615179 0)
(10.2829 0.107851 0)
(10.3425 0.128221 0)
(10.3546 0.131907 0)
(10.3311 0.125319 0)
(10.301 0.110593 0)
(10.2875 0.0886271 0)
(10.2979 0.0626265 0)
(10.3276 0.0391677 0)
(10.3667 0.0261674 0)
(10.4062 0.0276077 0)
(10.4399 0.0442423 0)
(10.466 0.0712898 0)
(10.2366 -0.147866 0)
(10.2283 -0.157872 0)
(10.2041 -0.00676038 0)
(10.1158 0.045691 0)
(10.0586 0.00683026 0)
(10.0776 -0.0425056 0)
(10.1505 -0.047511 0)
(10.2328 -0.00903596 0)
(10.2908 0.0418033 0)
(10.3183 0.0778126 0)
(10.3268 0.0883515 0)
(10.3268 0.0798196 0)
(10.3229 0.065345 0)
(10.3169 0.0554781 0)
(10.31 0.0528684 0)
(10.3043 0.0559103 0)
(10.3005 0.0602113 0)
(10.3015 0.0628385 0)
(10.0805 -0.123708 0)
(9.95034 -0.114269 0)
(9.95147 -0.032623 0)
(9.98526 0.0262222 0)
(10.0253 0.00925181 0)
(10.0451 -0.0379944 0)
(10.0521 -0.0536919 0)
(10.0631 -0.0209367 0)
(10.0919 0.0362943 0)
(10.1384 0.0840968 0)
(10.1946 0.103372 0)
(10.2523 0.0964698 0)
(10.3045 0.0766002 0)
(10.348 0.0568362 0)
(10.383 0.0452014 0)
(10.4105 0.0434361 0)
(10.4321 0.0502531 0)
(10.4462 0.0619034 0)
(10.0688 -0.0120827 0)
(10.1031 -0.0753284 0)
(10.1658 -0.0274368 0)
(10.167 0.001509 0)
(10.1253 -0.0158447 0)
(10.0581 -0.0368226 0)
(9.97879 -0.0444785 0)
(9.91867 -0.0337924 0)
(9.90089 -0.0160913 0)
(9.92703 -0.00721508 0)
(9.98504 -0.0105012 0)
(10.0573 -0.0193856 0)
(10.1272 -0.0248494 0)
(10.1855 -0.0223264 0)
(10.2294 -0.0122837 0)
(10.2616 0.00242198 0)
(10.2853 0.0192148 0)
(10.3058 0.0366108 0)
(10.2191 -0.0241922 0)
(10.0801 -0.127172 0)
(10.0468 -0.0672668 0)
(10.0556 0.0286106 0)
(10.1162 0.0576029 0)
(10.1651 0.040174 0)
(10.1588 0.0219753 0)
(10.1232 0.018726 0)
(10.0991 0.0200643 0)
(10.1054 0.0129477 0)
(10.1377 -0.00479043 0)
(10.1825 -0.0251501 0)
(10.2266 -0.0381176 0)
(10.2607 -0.0386435 0)
(10.2813 -0.0283655 0)
(10.2901 -0.0121923 0)
(10.2912 0.00558016 0)
(10.2898 0.0210577 0)
(10.0324 0.0811617 0)
(10.0807 0.0127599 0)
(10.0971 -0.0166354 0)
(10.1284 -0.0338869 0)
(10.1862 -0.050764 0)
(10.2046 -0.0380133 0)
(10.1694 -0.00699084 0)
(10.1357 0.0110144 0)
(10.1386 0.000809226 0)
(10.1637 -0.0305262 0)
(10.1829 -0.0653249 0)
(10.1842 -0.0867225 0)
(10.1748 -0.0865936 0)
(10.1684 -0.0672846 0)
(10.1775 -0.0377963 0)
(10.2063 -0.00763807 0)
(10.2539 0.0170266 0)
(10.3139 0.0340353 0)
(10.1355 -0.111841 0)
(10.0024 -0.0798969 0)
(9.94254 -0.0669062 0)
(9.95707 -0.0386953 0)
(10.0284 0.00198322 0)
(10.1153 0.0353019 0)
(10.2091 0.0416093 0)
(10.3195 0.024351 0)
(10.4271 0.00176418 0)
(10.4943 -0.0113509 0)
(10.5008 -0.0157288 0)
(10.4581 -0.0202491 0)
(10.3966 -0.0294177 0)
(10.3454 -0.0422108 0)
(10.3209 -0.0552567 0)
(10.3256 -0.0652805 0)
(10.3534 -0.0704245 0)
(10.394 -0.0688204 0)
(9.84593 0.0472637 0)
(9.95756 0.0533028 0)
(10.0553 -0.00332277 0)
(10.0488 -0.0585219 0)
(10.0109 -0.0884861 0)
(9.97925 -0.0883252 0)
(9.97961 -0.0788478 0)
(10.0295 -0.0770959 0)
(10.1139 -0.0758213 0)
(10.2018 -0.0650523 0)
(10.265 -0.0474604 0)
(10.2891 -0.0319575 0)
(10.2771 -0.0234376 0)
(10.2472 -0.0223393 0)
(10.2197 -0.0265725 0)
(10.2068 -0.0329074 0)
(10.2088 -0.0378046 0)
(10.2214 -0.0379502 0)
(9.75566 -0.0528121 0)
(9.73064 -0.109189 0)
(9.60258 -0.0838909 0)
(9.41605 -0.0377686 0)
(9.27079 0.0029224 0)
(9.18595 0.0193446 0)
(9.10139 -0.000897225 0)
(8.96122 -0.044041 0)
(8.76175 -0.0772619 0)
(8.55305 -0.0788877 0)
(8.39181 -0.0541925 0)
(8.29893 -0.0243013 0)
(8.25512 -0.00825719 0)
(8.22457 -0.0130799 0)
(8.17457 -0.033036 0)
(8.09475 -0.0564855 0)
(7.98675 -0.0723813 0)
(7.87371 -0.0751201 0)
(-0.218262 0.330265 -1.97763e-20)
(-0.344965 0.0615432 1.96355e-20)
(-0.183709 -0.271216 0)
(0.183456 -0.435004 0)
(0.650817 -0.510086 0)
(1.12231 -0.513828 -1.89224e-20)
(1.58146 -0.474047 0)
(1.99648 -0.409945 0)
(2.34978 -0.333138 0)
(2.63035 -0.250408 0)
(2.83551 -0.165124 1.85416e-20)
(2.95905 -0.0813847 0)
(3.00766 0.00192891 0)
(2.9766 0.0778206 0)
(2.86646 0.152324 0)
(2.69809 0.209645 1.7881e-20)
(2.46275 0.267318 0)
(2.20252 0.300007 0)
(1.88036 0.333994 0)
(1.57742 0.345286 0)
(1.20503 0.344288 0)
(0.913328 0.342583 0)
(0.599168 0.266194 0)
(0.229412 0.154588 1.65865e-20)
(0.268792 0.0366651 -1.64395e-20)
(0.171169 -0.0754006 1.63054e-20)
(0.149292 -0.324991 1.62051e-20)
(0.454189 -0.522495 0)
(0.9902 -0.587425 0)
(0.984361 -1.51463 -1.56705e-20)
(0.837227 -1.77307 -1.56629e-20)
(0.670482 -0.045749 0)
(-0.792943 1.32866 0)
(-2.09866 1.21485 -1.50793e-20)
(-3.2815 1.11559 0)
(-4.3659 0.99179 0)
(-5.32601 0.878531 1.54182e-20)
(-6.18754 0.767816 0)
(-6.94615 0.668947 1.59288e-20)
(-7.61771 0.578633 3.23826e-20)
(-8.20556 0.498926 0)
(-8.71938 0.427222 0)
(-9.16365 0.363366 0)
(-9.54433 0.305533 0)
(-9.86505 0.253071 0)
(-10.1295 0.20482 3.44329e-20)
(-10.3406 0.160313 3.45071e-20)
(-10.5009 0.119187 3.4495e-20)
(-10.613 0.0814703 0)
(-10.6791 0.0472652 -3.42136e-20)
(-10.7018 0.0167607 0)
(-10.6851 -0.0100804 3.36075e-20)
(-10.6366 -0.0333546 3.31965e-20)
(-10.5562 -0.0536073 0)
(-10.4494 -0.0709006 0)
(-10.3185 -0.0854859 0)
(-10.1678 -0.0974583 3.10228e-20)
(-9.99992 -0.107119 0)
(-9.81815 -0.114757 0)
(-9.62476 -0.120816 0)
(-9.42165 -0.125754 0)
(-9.2099 -0.130089 0)
(-8.98987 -0.134304 0)
(-8.76124 -0.138821 0)
(-8.52308 -0.143909 0)
(-8.27419 -0.149642 -2.5014e-20)
(-8.0134 -0.155854 0)
(-7.73997 -0.162147 0)
(-7.45407 -0.167946 2.30486e-20)
(-7.15696 -0.1726 2.24151e-20)
(-6.85111 -0.175534 0)
(-6.53982 -0.17638 -2.11959e-20)
(-6.22679 -0.175053 2.06147e-20)
(-5.91567 -0.171741 0)
(-5.60955 -0.166856 -1.95141e-20)
(-5.31066 -0.160965 0)
(-5.0201 -0.154705 0)
(-4.73781 -0.148701 1.80059e-20)
(-4.46266 -0.143506 0)
(-4.1927 -0.139558 -1.70709e-20)
(-3.92534 -0.137133 0)
(-3.65766 -0.136339 1.61704e-20)
(-3.38664 -0.137135 1.57291e-20)
(-3.10945 -0.139346 1.52934e-20)
(-2.82366 -0.142664 2.97282e-20)
(-2.52758 -0.146648 -2.88863e-20)
(-2.2205 -0.150801 0)
(-1.90276 -0.15466 0)
(-1.5755 -0.157672 0)
(-1.24034 -0.159348 -2.5807e-20)
(-0.89947 -0.159965 -2.51404e-20)
(-0.555704 -0.159427 2.45236e-20)
(-0.210915 -0.157237 0)
(0.131731 -0.154554 -2.34313e-20)
(0.469868 -0.150285 -2.29417e-20)
(0.802155 -0.144856 -2.24986e-20)
(1.12535 -0.138208 0)
(1.43673 -0.13035 0)
(1.73359 -0.121376 0)
(2.01343 -0.111478 -2.11286e-20)
(2.27415 -0.100934 0)
(2.51424 -0.0900777 0)
(2.73294 -0.0792601 2.0395e-20)
(2.93017 -0.0687915 0)
(3.10654 -0.0588974 0)
(3.26309 -0.0497 1.97741e-20)
(3.40111 -0.041219 0)
(3.5219 -0.0334016 0)
(3.62663 -0.0261734 -1.91827e-20)
(3.71635 -0.019471 -1.89851e-20)
(3.79197 -0.0132789 0)
(3.85439 -0.00763385 1.85855e-20)
(3.9046 -0.00260305 0)
(3.9437 0.0017474 -1.81781e-20)
(3.97293 0.00537285 0)
(3.99362 0.00830383 -1.77622e-20)
(4.00704 0.010583 -1.75511e-20)
(4.01466 0.0123622 0)
(4.01698 0.0138497 0)
(4.01516 0.0150396 0)
(4.01004 0.015943 0)
(4.00224 0.0166267 0)
(3.99223 0.0171679 0)
(3.98031 0.0176556 0)
(3.96666 0.0181663 -1.58079e-20)
(3.95135 0.0187616 1.55862e-20)
(3.93433 0.0194798 0)
(3.91551 0.0203084 0)
(3.89475 0.0211926 0)
(3.87199 0.0220254 0)
(3.84726 0.0226737 2.89531e-20)
(3.82073 0.023028 0)
(3.7927 0.0230176 -2.80698e-20)
(3.76358 0.0226112 2.76298e-20)
(3.73384 0.0218222 0)
(3.70395 0.0207086 0)
(3.67439 0.0193596 0)
(3.64555 0.0178715 -2.58826e-20)
(3.61774 0.0163283 -2.54492e-20)
(3.59119 0.014796 0)
(3.56604 0.013325 -2.45864e-20)
(3.54237 0.0119498 -2.41572e-20)
(3.5202 0.0106907 2.37295e-20)
(3.49948 0.00955592 0)
(3.48016 0.00854505 0)
(3.46217 0.00765351 2.24562e-20)
(3.4454 0.0068752 0)
(3.42975 0.00620176 0)
(3.41511 0.00562134 0)
(3.40139 0.00512065 0)
(3.38849 0.00468958 -2.03699e-20)
(3.37633 0.00432379 -1.99584e-20)
(3.36481 0.00402092 0)
(3.35386 0.00377407 -1.91414e-20)
(3.34338 0.00356779 0)
(3.33333 0.00338263 0)
(3.32365 0.00320256 -1.79308e-20)
(3.31437 0.00302358 0)
(3.30542 0.00285239 -1.71334e-20)
(3.29684 0.00270415 0)
(3.2885 0.00259225 0)
(3.28041 0.00252701 -1.59515e-20)
(3.27233 0.00251198 0)
(3.26435 0.00254561 -1.51724e-20)
(3.25599 0.00263287 0)
(3.24763 0.00276145 0)
(3.23833 0.00296788 0)
(3.229 0.0032002 1.3633e-20)
(3.21776 0.00359969 0)
(3.2065 0.00395829 -1.28704e-20)
(3.19174 0.00475431 0)
(3.17675 0.00524146 0)
(3.15598 0.00697984 0)
(3.1329 0.00744362 0)
(3.1028 0.0116861 0)
(3.05944 0.0113583 0)
(3.01784 0.0230316 0)
(2.91577 0.0191391 1.95593e-20)
(2.87182 0.0560646 0)
(2.5709 0.045414 0)
(-0.145104 0.769611 5.94978e-20)
(-0.0139459 -0.0630065 -5.91105e-20)
(0.327772 -0.900068 0)
(0.798338 -1.34002 3.86555e-20)
(1.26628 -1.49291 0)
(1.71348 -1.46392 1.88625e-20)
(2.12681 -1.33331 -3.79029e-20)
(2.49214 -1.14753 -3.77754e-20)
(2.79812 -0.931783 0)
(3.03931 -0.700496 -3.7558e-20)
(3.20745 -0.464819 -1.85147e-20)
(3.30538 -0.231931 0)
(3.32403 -0.0117925 0)
(3.28049 0.193998 0)
(3.1736 0.372636 0)
(3.02313 0.528577 -1.78559e-20)
(2.82173 0.646886 0)
(2.60784 0.73954 3.51685e-20)
(2.35331 0.802022 0)
(2.12616 0.830365 0)
(1.86651 0.836084 -3.40037e-20)
(1.62748 0.748063 0)
(1.45409 0.80503 3.3326e-20)
(1.28853 0.517615 -1.6537e-20)
(1.05545 0.025892 1.64021e-20)
(1.07957 0.166857 -1.6255e-20)
(1.6698 -0.0135063 -1.61572e-20)
(0.849996 -1.26648 0)
(0.305081 -0.101759 0)
(-1.34606 1.70512 1.5627e-20)
(-3.14634 2.33307 -1.57544e-20)
(-4.08592 2.67521 0)
(-5.03766 2.86174 0)
(-5.74894 2.6227 1.49139e-20)
(-6.45559 2.44155 0)
(-7.06204 2.17107 0)
(-7.62612 1.93525 -1.53105e-20)
(-8.1164 1.69762 0)
(-8.56139 1.48871 1.66538e-20)
(-8.95084 1.29626 -3.22494e-20)
(-9.29991 1.12529 0)
(-9.60488 0.969775 0)
(-9.87326 0.828548 -6.82787e-20)
(-10.1034 0.698226 -6.88468e-20)
(-10.2988 0.577003 -6.92744e-20)
(-10.4586 0.463231 3.51519e-20)
(-10.5844 0.356028 -3.44802e-20)
(-10.676 0.255067 -1.04074e-19)
(-10.7343 0.160285 6.93649e-20)
(-10.7601 0.0719727 3.42079e-20)
(-10.7552 -0.00946796 0)
(-10.7205 -0.0835541 -3.36035e-20)
(-10.6536 -0.149746 3.35945e-20)
(-10.5602 -0.207913 0)
(-10.4413 -0.257937 0)
(-10.3012 -0.300077 0)
(-10.1424 -0.334729 -3.10154e-20)
(-9.96839 -0.362642 0)
(-9.78179 -0.384764 5.96275e-20)
(-9.58502 -0.402324 0)
(-9.37969 -0.416699 5.6902e-20)
(-9.16678 -0.429369 0)
(-8.94646 -0.441753 -5.4163e-20)
(-8.71811 -0.455053 0)
(-8.48051 -0.470046 5.14499e-20)
(-8.23209 -0.486903 -2.51036e-20)
(-7.97136 -0.505086 0)
(-7.69734 -0.52337 -4.74665e-20)
(-7.41008 -0.540017 -2.30392e-20)
(-7.111 -0.553102 -2.24057e-20)
(-6.8029 -0.560948 0)
(-6.48961 -0.562537 -2.12628e-20)
(-6.17533 -0.55772 -2.0606e-20)
(-5.86409 -0.547177 0)
(-5.55917 -0.532236 1.95063e-20)
(-5.2628 -0.514643 -3.80312e-20)
(-4.97587 -0.496322 0)
(-4.69799 -0.479125 -1.79994e-20)
(-4.42768 -0.464643 0)
(-4.16256 -0.454083 5.12599e-20)
(-3.89968 -0.448167 0)
(-3.63581 -0.447139 -4.8565e-20)
(-3.36768 -0.450864 -1.57233e-20)
(-3.0922 -0.458825 1.53607e-20)
(-2.80672 -0.470102 2.98593e-20)
(-2.50945 -0.483353 -2.90102e-20)
(-2.19978 -0.496905 0)
(-1.87815 -0.509115 0)
(-1.54573 -0.51865 0)
(-1.20469 -0.524522 7.74801e-20)
(-0.857576 -0.526646 2.51299e-20)
(-0.506669 -0.524783 -2.45136e-20)
(-0.154688 -0.519081 0)
(0.19585 -0.510784 -2.34946e-20)
(0.543341 -0.498612 2.29286e-20)
(0.885686 -0.483122 2.24858e-20)
(1.22011 -0.464176 0)
(1.54383 -0.441749 0)
(1.85405 -0.416061 0)
(2.14811 -0.387615 2.11171e-20)
(2.42382 -0.357182 0)
(2.67964 -0.325719 -4.1269e-20)
(2.91482 -0.294246 -6.11978e-20)
(3.12942 -0.263694 4.03815e-20)
(3.32418 -0.234775 0)
(3.50026 -0.207897 1.97974e-20)
(3.65899 -0.183171 0)
(3.80165 -0.160481 3.87662e-20)
(3.92932 -0.139603 -1.91965e-20)
(4.04284 -0.120318 -1.89962e-20)
(4.14289 -0.102486 0)
(4.23016 -0.0860718 -5.57431e-20)
(4.30551 -0.0711244 3.67602e-20)
(4.37002 -0.0577374 1.8168e-20)
(4.42499 -0.0460054 0)
(4.47178 -0.0359605 1.77516e-20)
(4.51188 -0.0275718 5.26303e-20)
(4.54632 -0.0206808 0)
(4.57674 -0.0150267 3.42313e-20)
(4.60389 -0.0104549 3.3797e-20)
(4.62834 -0.00678949 3.336e-20)
(4.65059 -0.00382948 0)
(4.67103 -0.00139545 0)
(4.68996 0.000655758 0)
(4.7077 0.00245309 -1.57987e-20)
(4.72454 0.00410896 -1.55725e-20)
(4.74076 0.00571514 0)
(4.75661 0.00731702 -3.02587e-20)
(4.77227 0.0089529 -2.98136e-20)
(4.78779 0.010619 0)
(4.80311 0.0122793 -2.89225e-20)
(4.81807 0.0138644 -5.69636e-20)
(4.83244 0.0152878 2.80378e-20)
(4.84591 0.0164853 2.76005e-20)
(4.85822 0.017406 0)
(4.86917 0.0180047 0)
(4.87863 0.0182691 0)
(4.88654 0.0182243 2.58486e-20)
(4.89295 0.0179131 -2.54157e-20)
(4.89794 0.0173833 -4.99662e-20)
(4.90163 0.0166881 2.45524e-20)
(4.90419 0.0158796 -2.41233e-20)
(4.90577 0.0150033 -2.36959e-20)
(4.90653 0.0140974 0)
(4.9066 0.0131914 0)
(4.90611 0.0123073 2.24235e-20)
(4.90517 0.011461 0)
(4.90386 0.0106633 0)
(4.90226 0.00992 -4.23359e-20)
(4.90043 0.00923265 0)
(4.89841 0.00860049 -2.03402e-20)
(4.89623 0.00802307 1.99297e-20)
(4.89394 0.00750049 0)
(4.89156 0.00703165 -1.91138e-20)
(4.88911 0.00661106 0)
(4.88661 0.00622866 0)
(4.88407 0.00587289 1.79053e-20)
(4.88151 0.00553624 -3.50126e-20)
(4.87891 0.00522065 1.71093e-20)
(4.87628 0.00493488 0)
(4.87359 0.00469719 0)
(4.87086 0.00451634 -1.59295e-20)
(4.86803 0.00441584 0)
(4.86511 0.00438219 -1.51519e-20)
(4.86196 0.00446449 0)
(4.85865 0.00460358 0)
(4.85492 0.00494737 0)
(4.85085 0.00530565 -1.36146e-20)
(4.84608 0.00610478 0)
(4.84059 0.00674644 1.28531e-20)
(4.83399 0.00843873 0)
(4.8256 0.00938484 0)
(4.81594 0.0130092 -2.34315e-20)
(4.80133 0.0140965 2.26705e-20)
(4.78715 0.0223404 0)
(4.75814 0.0229365 0)
(4.73891 0.0433916 0)
(4.67344 0.0426008 -5.86626e-20)
(4.65553 0.0996463 0)
(4.49525 0.104032 3.59543e-20)
(-0.0402355 0.687794 1.15439e-22)
(0.451332 -0.829273 7.89191e-20)
(0.988616 -1.89917 0)
(1.46962 -2.35025 -7.74154e-20)
(1.89254 -2.41297 0)
(2.27465 -2.27391 0)
(2.62276 -2.03261 -6.33553e-22)
(2.93106 -1.73191 3.76883e-20)
(3.18898 -1.39218 3.82972e-20)
(3.38524 -1.02557 3.74978e-20)
(3.51057 -0.647396 0)
(3.55989 -0.270287 0)
(3.53112 0.087028 -3.76226e-20)
(3.43078 0.412452 -7.45304e-20)
(3.26187 0.692847 7.37053e-20)
(3.04387 0.915174 0)
(2.78383 1.09139 7.18659e-20)
(2.51678 1.19017 -3.51536e-20)
(2.22284 1.26969 0)
(1.9616 1.24622 6.91284e-20)
(1.68573 1.29659 3.39977e-20)
(1.48572 1.17128 -6.7477e-20)
(1.18407 0.82283 -3.33324e-20)
(1.04335 1.21415 0)
(1.00387 0.24162 6.52533e-20)
(0.507173 -1.1851 6.50139e-20)
(0.0234517 0.347373 0)
(-1.85982 2.17411 6.37916e-20)
(-3.18873 3.00899 0)
(-4.33744 3.57197 6.30482e-20)
(-5.23809 3.67882 3.10513e-20)
(-5.85623 3.79899 0)
(-6.35672 3.71397 0)
(-6.70955 3.47799 0)
(-7.05839 3.19524 0)
(-7.35524 2.87146 0)
(-7.67184 2.5679 0)
(-7.96733 2.27726 6.61086e-20)
(-8.27189 2.01587 -9.93502e-20)
(-8.55922 1.77628 0)
(-8.84029 1.55874 0)
(-9.09997 1.35789 0)
(-9.34111 1.17074 -1.2597e-21)
(-9.55532 0.994122 6.88976e-20)
(-9.74247 0.825833 1.39753e-19)
(-9.89792 0.664651 -1.40245e-19)
(-10.0211 0.509886 -7.06902e-20)
(-10.1101 0.36157 6.96703e-20)
(-10.1653 0.219833 8.5676e-22)
(-10.1864 0.0853095 6.98484e-20)
(-10.1749 -0.0408147 0)
(-10.1319 -0.156962 6.84147e-20)
(-10.0599 -0.261767 6.17054e-22)
(-9.96199 -0.353998 0)
(-9.84154 -0.433371 0)
(-9.70199 -0.499858 -6.39862e-20)
(-9.54676 -0.554171 0)
(-9.37898 -0.59738 0)
(-9.20141 -0.631145 6.01895e-20)
(-9.01628 -0.657484 1.17065e-19)
(-8.82513 -0.678794 -5.69396e-20)
(-8.62865 -0.697626 0)
(-8.42665 -0.716503 5.41934e-20)
(-8.21798 -0.737572 0)
(-8.00073 -0.762266 5.17705e-20)
(-7.77251 -0.790926 5.01281e-20)
(-7.53097 -0.822554 -9.78912e-20)
(-7.27434 -0.854825 -4.77778e-20)
(-7.00212 -0.884424 0)
(-6.71549 -0.907674 9.00974e-20)
(-6.41751 -0.921351 0)
(-6.11266 -0.923504 1.27611e-19)
(-5.80611 -0.913905 8.27993e-20)
(-5.50286 -0.893973 8.05289e-20)
(-5.20714 -0.866335 -7.83486e-20)
(-4.92176 -0.834307 1.14291e-19)
(-4.6478 -0.801428 0)
(-4.38469 -0.771049 0)
(-4.13062 -0.746017 -7.04317e-20)
(-3.88285 -0.728463 -1.02796e-19)
(-3.63796 -0.719603 0)
(-3.3922 -0.719762 3.23994e-20)
(-3.14174 -0.728579 0)
(-2.88294 -0.744979 -9.2169e-20)
(-2.61279 -0.767155 2.2895e-22)
(-2.32926 -0.792624 -2.17332e-22)
(-2.03166 -0.818301 5.64224e-20)
(-1.72074 -0.841185 0)
(-1.39852 -0.858967 -5.32659e-20)
(-1.06791 -0.869957 1.45791e-22)
(-0.731819 -0.873793 0)
(-0.392988 -0.870787 0)
(-0.0542649 -0.862022 0)
(0.282926 -0.847679 4.68827e-20)
(0.617638 -0.827843 0)
(0.948137 -0.802526 0)
(1.27234 -0.771429 0)
(1.58768 -0.734427 0)
(1.89117 -0.691826 0)
(2.1797 -0.644486 4.23672e-20)
(2.45045 -0.593785 0)
(2.70133 -0.54146 4.12535e-20)
(2.93129 -0.489332 4.07994e-20)
(3.14051 -0.439004 -4.03695e-20)
(3.33015 -0.391627 0)
(3.50198 -0.347777 -3.95528e-20)
(3.6579 -0.307483 0)
(3.7995 -0.270381 -3.87594e-20)
(3.92792 -0.235952 3.83636e-20)
(4.04373 -0.203767 1.13969e-19)
(4.14708 -0.173667 0)
(4.23786 -0.145812 1.11544e-19)
(4.316 -0.120568 3.68046e-20)
(4.3818 -0.0983248 0)
(4.43622 -0.0793053 7.18996e-20)
(4.48083 -0.0634895 7.10572e-20)
(4.51763 -0.0506134 -1.05295e-19)
(4.54865 -0.0403029 0)
(4.57564 -0.0321666 -3.42306e-20)
(4.59995 -0.0257453 -3.37967e-20)
(4.62246 -0.0206341 -1.00099e-19)
(4.64373 -0.0165197 0)
(4.66405 -0.0131727 0)
(4.68367 -0.0104314 0)
(4.70275 -0.00817255 -3.1606e-20)
(4.72151 -0.00629066 0)
(4.74015 -0.00469375 0)
(4.7589 -0.00325935 3.0259e-20)
(4.77796 -0.00192742 2.98138e-20)
(4.79743 -0.000645754 0)
(4.81729 0.000629779 0)
(4.83741 0.00191112 5.69631e-20)
(4.8576 0.00316554 0)
(4.87757 0.0043605 -5.51964e-20)
(4.897 0.0054635 -5.43208e-20)
(4.91559 0.00643261 0)
(4.93309 0.00723024 0)
(4.94933 0.00784224 5.16969e-20)
(4.96421 0.00826842 -1.46382e-24)
(4.97769 0.00851196 -1.05077e-24)
(4.98981 0.00859183 0)
(5.00064 0.00853364 9.64837e-20)
(5.01029 0.00836501 0)
(5.01887 0.00811421 0)
(5.0265 0.00780692 0)
(5.03329 0.00746574 -4.48413e-20)
(5.03934 0.00711059 0)
(5.04473 0.00675721 8.63255e-20)
(5.04955 0.00641549 4.23294e-20)
(5.05385 0.00609034 0)
(5.05769 0.00578505 4.06741e-20)
(5.0611 0.00550378 0)
(5.06413 0.00525074 0)
(5.06682 0.00502624 1.14663e-19)
(5.06919 0.00482499 -7.48223e-20)
(5.07127 0.00463675 0)
(5.07308 0.00445378 -7.16075e-20)
(5.07462 0.00427205 3.50059e-20)
(5.07589 0.00410033 0)
(5.07689 0.00394764 0)
(5.07764 0.00384067 0)
(5.07812 0.00378624 9.55581e-20)
(5.07837 0.00382647 0)
(5.07834 0.00393841 3.02973e-20)
(5.07806 0.00420027 0)
(5.0774 0.00451863 0)
(5.07647 0.00509642 0)
(5.07492 0.0056775 0)
(5.0731 0.00681195 0)
(5.0702 0.00778952 0)
(5.06708 0.0100459 4.98955e-20)
(5.06187 0.0116155 0)
(5.05677 0.0162201 2.34264e-20)
(5.04735 0.0186099 -6.80144e-20)
(5.03917 0.0284194 0)
(5.02179 0.0321535 0)
(5.00906 0.0546124 4.07505e-20)
(4.97729 0.0627391 3.91196e-20)
(4.96057 0.119184 -3.76411e-20)
(4.91236 0.146978 -3.59409e-20)
(0.214878 -0.0812164 -1.19861e-19)
(0.901881 -2.07597 -1.18769e-19)
(1.45991 -3.01772 -7.89463e-20)
(1.88636 -3.25023 -3.99256e-20)
(2.24852 -3.17266 0)
(2.58989 -2.96109 7.85604e-20)
(2.91611 -2.6625 -4.02093e-20)
(3.20981 -2.28513 0)
(3.45232 -1.83744 -3.82434e-20)
(3.62744 -1.33513 0)
(3.72518 -0.799618 7.82251e-20)
(3.73773 -0.259921 0)
(3.66498 0.257484 3.75957e-20)
(3.50333 0.72181 7.4476e-20)
(3.2651 1.11442 -7.36566e-20)
(2.96543 1.41883 0)
(2.63043 1.63539 -7.18379e-20)
(2.28102 1.78134 0)
(1.93699 1.83127 0)
(1.59605 1.82595 -6.91406e-20)
(1.24487 1.7317 0)
(1.07177 1.59407 -4.08212e-22)
(0.520775 1.64676 0)
(0.596332 0.828105 0)
(0.258967 0.667287 3.59171e-22)
(-1.46604 2.24119 -6.47393e-20)
(-2.82415 3.46286 -6.46521e-20)
(-4.02428 4.21793 -6.32301e-20)
(-4.80284 4.52479 0)
(-5.42356 4.64598 -1.27221e-19)
(-5.82111 4.55059 0)
(-6.14904 4.42588 -6.5013e-20)
(-6.38363 4.17697 0)
(-6.6103 3.90556 0)
(-6.82645 3.59984 6.63351e-20)
(-7.04854 3.29687 0)
(-7.28638 3.00053 -6.74577e-20)
(-7.52923 2.71784 1.94551e-21)
(-7.78251 2.44979 1.35604e-19)
(-8.03157 2.19563 -1.38729e-19)
(-8.27753 1.95363 0)
(-8.50984 1.72173 0)
(-8.72719 1.49765 -7.25307e-20)
(-8.92256 1.27977 0)
(-9.0936 1.06671 -7.04935e-20)
(-9.23578 0.85809 7.07123e-20)
(-9.34703 0.654022 7.07736e-20)
(-9.42535 0.455638 0)
(-9.47011 0.264777 -7.03967e-20)
(-9.48024 0.0834409 -6.99522e-20)
(-9.45583 -0.0865751 1.40537e-19)
(-9.39909 -0.242065 -6.85078e-20)
(-9.31286 -0.381834 -6.75609e-20)
(-9.20135 -0.504566 0)
(-9.06873 -0.609608 0)
(-8.91926 -0.696951 6.40656e-20)
(-8.75719 -0.767395 0)
(-8.58632 -0.822526 0)
(-8.40997 -0.86469 -1.20003e-19)
(-8.23064 -0.896892 -1.172e-19)
(-8.05 -0.922646 0)
(-7.8687 -0.945762 0)
(-7.68628 -0.970016 0)
(-7.5012 -0.998706 0)
(-7.31101 -1.03407 -1.03335e-19)
(-7.11257 -1.07671 1.00979e-19)
(-6.90268 -1.12511 9.79613e-20)
(-6.67859 -1.17559 1.90992e-19)
(-6.43868 -1.22285 0)
(-6.18296 -1.26092 3.5818e-22)
(-5.91342 -1.28447 0)
(-5.63392 -1.2901 -8.51836e-20)
(-5.34945 -1.27712 3.06169e-22)
(-5.06539 -1.24766 -8.05481e-20)
(-4.78698 -1.20596 7.83658e-20)
(-4.51836 -1.15743 2.52885e-22)
(-4.2613 -1.10766 0)
(-4.01494 -1.06153 7.25745e-20)
(-3.77661 -1.02301 7.0444e-20)
(-3.5428 -0.995156 1.37497e-19)
(-3.30978 -0.980007 0)
(-3.07379 -0.978455 -6.53393e-20)
(-2.83087 -0.990385 0)
(-2.5771 -1.01446 1.23372e-19)
(-2.30929 -1.04796 -5.97978e-20)
(-2.02541 -1.08694 5.80914e-20)
(-1.72512 -1.12644 -5.6422e-20)
(-1.41029 -1.16151 -1.10092e-19)
(-1.08461 -1.18831 5.32642e-20)
(-0.752855 -1.20424 -5.18112e-20)
(-0.420256 -1.20913 0)
(-0.0906992 -1.20469 9.8745e-20)
(0.233207 -1.19244 0)
(0.550654 -1.17335 9.42545e-20)
(0.861631 -1.14786 -9.22986e-20)
(1.16619 -1.11546 -9.05251e-20)
(1.46411 -1.07528 8.8919e-20)