/*--------------------------------*- C++ -*----------------------------------*\
  =========                 |
  \\      /  F ield         | OpenFOAM: The Open Source CFD Toolbox
   \\    /   O peration     | Website:  https://openfoam.org
    \\  /    A nd           | Version:  9
     \\/     M anipulation  |
\*---------------------------------------------------------------------------*/
FoamFile
{
    format      ascii;
    class       volScalarField;
    location    "0.01";
    object      kU;
}
// * * * * * * * * * * * * * * * * * * * * * * * * * * * * * * * * * * * * * //

dimensions      [0 2 -2 0 0 0 0];

internalField   nonuniform List<scalar> 
12225
(
0.15723
0.132063
0.113097
0.0993462
0.090084
0.0847031
0.0826446
0.0833497
0.086254
0.0908043
0.0964822
0.102826
0.109445
0.116028
0.122346
0.128238
0.133644
0.1404
0.180987
0.175021
0.173496
0.178097
0.18888
0.205197
0.225974
0.249872
0.275475
0.301474
0.326778
0.350577
0.372336
0.391773
0.408824
0.423552
0.436364
0.446875
0.184255
0.181323
0.178528
0.17646
0.175677
0.176375
0.17852
0.181942
0.186386
0.191549
0.19713
0.202857
0.208511
0.213932
0.219023
0.22375
0.22815
0.232272
0.184877
0.182081
0.179368
0.176863
0.174739
0.173085
0.171904
0.171144
0.170726
0.17056
0.170558
0.170643
0.170756
0.170853
0.170907
0.17091
0.170868
0.170796
0.185145
0.182631
0.180149
0.17775
0.175494
0.173428
0.17157
0.169912
0.168433
0.167102
0.165885
0.164752
0.163677
0.162638
0.161622
0.160621
0.159632
0.158662
0.185257
0.182934
0.180656
0.178433
0.176291
0.174251
0.172328
0.170526
0.168839
0.167258
0.165772
0.164366
0.163029
0.161748
0.160516
0.159326
0.158174
0.157066
0.185299
0.183074
0.180925
0.178845
0.176837
0.174909
0.173065
0.171309
0.16964
0.168055
0.166548
0.165115
0.163749
0.162444
0.161195
0.159996
0.158845
0.15775
0.185313
0.18313
0.181049
0.179058
0.177149
0.175319
0.173568
0.171894
0.170295
0.168768
0.167312
0.165922
0.164595
0.163328
0.162116
0.160956
0.159847
0.158797
0.185317
0.183149
0.181098
0.179152
0.1773
0.175536
0.173854
0.172248
0.170716
0.169253
0.167857
0.166524
0.165251
0.164035
0.162874
0.161764
0.160704
0.159704
0.185317
0.183153
0.181113
0.179186
0.177362
0.175633
0.173991
0.172429
0.170944
0.169529
0.168181
0.166896
0.165671
0.164502
0.163387
0.162322
0.161307
0.160352
0.185316
0.183153
0.181116
0.179195
0.177382
0.175668
0.174045
0.172507
0.171048
0.169662
0.168345
0.167092
0.1659
0.164765
0.163683
0.162653
0.161673
0.160751
0.185315
0.183152
0.181115
0.179195
0.177385
0.175675
0.17406
0.172531
0.171083
0.16971
0.168408
0.167171
0.165996
0.16488
0.163818
0.162808
0.161848
0.160948
0.185315
0.18315
0.181113
0.179193
0.177383
0.175675
0.174061
0.172536
0.171092
0.169726
0.16843
0.167202
0.166036
0.16493
0.163879
0.162881
0.161934
0.161046
0.185314
0.183149
0.181111
0.179191
0.17738
0.175671
0.174058
0.172533
0.171091
0.169726
0.168433
0.167208
0.166047
0.164945
0.1639
0.162908
0.161968
0.161087
0.185314
0.183148
0.181109
0.179188
0.177376
0.175667
0.174052
0.172527
0.171084
0.169719
0.168427
0.167202
0.166042
0.164942
0.163899
0.162909
0.161971
0.161093
0.185314
0.183148
0.181108
0.179186
0.177373
0.175663
0.174048
0.172521
0.171078
0.169712
0.168418
0.167194
0.166033
0.164932
0.163889
0.162899
0.161962
0.161084
0.185314
0.183147
0.181107
0.179184
0.177371
0.17566
0.174044
0.172516
0.171072
0.169705
0.168411
0.167185
0.166023
0.164921
0.163877
0.162886
0.161947
0.161068
0.185313
0.183147
0.181106
0.179183
0.177369
0.175658
0.174041
0.172512
0.171067
0.169699
0.168404
0.167177
0.166013
0.164911
0.163864
0.162872
0.161931
0.161049
0.185313
0.183147
0.181106
0.179183
0.177369
0.175657
0.174039
0.17251
0.171064
0.169695
0.168398
0.16717
0.166005
0.1649
0.163852
0.162857
0.161913
0.161028
0.185313
0.183147
0.181107
0.179183
0.17737
0.175657
0.17404
0.17251
0.171064
0.169694
0.168397
0.167167
0.166001
0.164894
0.163844
0.162846
0.1619
0.161012
0.185314
0.183147
0.181107
0.179185
0.177371
0.175659
0.174041
0.172512
0.171065
0.169695
0.168396
0.167165
0.165998
0.164889
0.163836
0.162836
0.161887
0.160996
0.185314
0.183148
0.181109
0.179186
0.177373
0.17566
0.174042
0.172512
0.171062
0.16969
0.168388
0.167153
0.16598
0.164866
0.163807
0.1628
0.161843
0.160944
0.185314
0.183149
0.181109
0.179186
0.17737
0.175653
0.174029
0.17249
0.171031
0.169645
0.168329
0.167078
0.165888
0.164755
0.163677
0.162649
0.161671
0.16075
0.185314
0.183147
0.181102
0.179169
0.177337
0.175598
0.173947
0.172376
0.17088
0.169455
0.168096
0.166802
0.165567
0.16439
0.163268
0.162197
0.161178
0.160217
0.185311
0.183129
0.181057
0.17908
0.177188
0.175378
0.173646
0.17199
0.170408
0.1689
0.167463
0.166096
0.164796
0.163561
0.162388
0.161275
0.160219
0.159228
0.185287
0.183043
0.180873
0.17877
0.176732
0.174768
0.172888
0.171099
0.169407
0.167814
0.166321
0.164925
0.163622
0.162408
0.161277
0.160223
0.159242
0.158336
0.185186
0.182758
0.180341
0.177949
0.175638
0.173464
0.171462
0.169649
0.168029
0.166603
0.16536
0.16429
0.163379
0.162611
0.16197
0.161443
0.161015
0.160677
0.184846
0.182089
0.17915
0.176265
0.173725
0.171671
0.170142
0.169141
0.168653
0.168651
0.169098
0.169949
0.171158
0.172677
0.174458
0.176458
0.178637
0.180951
0.182898
0.177332
0.172717
0.17011
0.169749
0.171571
0.175423
0.1811
0.18836
0.196953
0.206629
0.217149
0.228291
0.239852
0.251659
0.263561
0.27545
0.287163
0.168316
0.151167
0.136971
0.125241
0.115645
0.107921
0.101858
0.0972731
0.0940056
0.0919058
0.0908352
0.0906641
0.0912721
0.0925472
0.0943869
0.0966977
0.0993971
0.102402
0.0174333
0.0428736
0.0555004
0.0635652
0.0677826
0.0690248
0.0698164
0.0666743
0.0662979
0.0663407
0.0663438
0.0683207
0.0679
0.0698765
0.0756982
0.0865717
0.0988149
0.112197
0.126525
0.141559
0.157029
0.172651
0.188145
0.203248
0.217727
0.231386
0.24407
0.255664
0.266093
0.275319
0.283337
0.290171
0.295868
0.300501
0.304162
0.30696
0.309032
0.310541
0.311194
0.310813
0.309403
0.306958
0.303472
0.298943
0.293375
0.286791
0.279225
0.270732
0.261384
0.251273
0.240507
0.229211
0.217523
0.205591
0.193572
0.181633
0.169951
0.158734
0.14824
0.138815
0.131038
0.125596
0.122111
0.119181
0.116594
0.114329
0.112387
0.110778
0.109508
0.108578
0.107989
0.107736
0.10781
0.108201
0.108893
0.109868
0.111104
0.112578
0.114264
0.116135
0.118163
0.12032
0.122576
0.124905
0.127281
0.129678
0.132075
0.13445
0.136786
0.139066
0.141278
0.14341
0.145455
0.147405
0.149256
0.151005
0.152652
0.154197
0.15564
0.156985
0.158233
0.15939
0.160459
0.161445
0.162352
0.163187
0.163944
0.164621
0.165222
0.165752
0.166215
0.166614
0.166952
0.167232
0.167457
0.167632
0.167763
0.167855
0.167915
0.16795
0.167964
0.167965
0.167954
0.167937
0.167915
0.167891
0.167865
0.167838
0.167811
0.167783
0.167756
0.167728
0.167701
0.167674
0.167647
0.16762
0.167594
0.167568
0.167542
0.167516
0.16749
0.167464
0.167438
0.167413
0.167387
0.167361
0.167335
0.167309
0.167283
0.167256
0.167228
0.1672
0.167171
0.167141
0.167109
0.167076
0.16704
0.167002
0.16696
0.166913
0.166861
0.166802
0.166734
0.166654
0.16656
0.166447
0.166309
0.16614
0.16593
0.165666
0.16533
0.164898
0.164336
0.163591
0.16259
0.161212
0.159282
0.156413
0.152402
0.144689
0.0395656
0.0804668
0.101263
0.114343
0.12243
0.127158
0.129982
0.132047
0.134734
0.138695
0.144237
0.151473
0.160064
0.169627
0.179638
0.190075
0.200718
0.211494
0.222366
0.233319
0.24435
0.255464
0.266671
0.277986
0.289423
0.300997
0.312721
0.324606
0.336656
0.348876
0.361262
0.373804
0.386482
0.399263
0.412102
0.424939
0.4377
0.450221
0.462113
0.473325
0.483623
0.492743
0.500421
0.506406
0.510472
0.512425
0.512115
0.509448
0.504385
0.496954
0.487246
0.475414
0.461664
0.446249
0.429453
0.411579
0.392935
0.373822
0.354523
0.335284
0.316345
0.298191
0.281686
0.266044
0.251185
0.237115
0.223844
0.211371
0.199688
0.188774
0.178605
0.169149
0.160372
0.152236
0.144706
0.137741
0.131306
0.125364
0.119879
0.11482
0.110153
0.10585
0.101883
0.0982261
0.0948555
0.0917491
0.0888863
0.0862479
0.0838165
0.0815758
0.0795109
0.0776077
0.0758537
0.0742371
0.0727469
0.0713732
0.0701068
0.0689391
0.0678624
0.0668694
0.0659535
0.0651085
0.0643288
0.0636093
0.0629451
0.062332
0.0617727
0.0612679
0.0608093
0.0603899
0.0600037
0.059646
0.0593128
0.0590036
0.0587161
0.0584477
0.0581965
0.0579612
0.057741
0.0575356
0.0573448
0.0571685
0.0570063
0.0568576
0.0567217
0.0565975
0.0564839
0.0563795
0.0562832
0.0561937
0.0561102
0.0560316
0.0559573
0.0558866
0.0558189
0.055754
0.0556913
0.0556307
0.0555719
0.0555147
0.0554589
0.0554044
0.0553511
0.0552987
0.0552473
0.0551967
0.0551468
0.0550975
0.0550488
0.0550007
0.0549529
0.0549055
0.0548585
0.0548119
0.0547655
0.0547194
0.0546736
0.0546281
0.0545829
0.0545381
0.0544938
0.0544501
0.0544072
0.0543653
0.0543248
0.054286
0.0542497
0.0542167
0.0541884
0.0541665
0.054154
0.0541552
0.054177
0.0542311
0.0543371
0.0545299
0.0548767
0.0554854
0.0566437
0.0586297
0.0648216
0.118392
0.143578
0.157736
0.165289
0.168986
0.17108
0.173361
0.177
0.182433
0.189588
0.198203
0.207992
0.218708
0.230131
0.242142
0.254684
0.26772
0.281211
0.295111
0.309362
0.32389
0.338614
0.353444
0.368295
0.383091
0.397775
0.412317
0.426714
0.440991
0.455197
0.469389
0.483623
0.497938
0.512341
0.526796
0.541217
0.55534
0.569118
0.582335
0.59472
0.605966
0.615753
0.623767
0.629709
0.633311
0.634345
0.632636
0.628072
0.620619
0.610319
0.5973
0.581769
0.563998
0.544313
0.523072
0.500651
0.477416
0.453714
0.429853
0.406055
0.383268
0.362059
0.341835
0.322546
0.304217
0.286872
0.270524
0.255168
0.240791
0.227366
0.214861
0.203237
0.192451
0.182458
0.173213
0.164669
0.156782
0.149507
0.142801
0.136625
0.130938
0.125706
0.120892
0.116466
0.112397
0.108657
0.105221
0.102063
0.0991608
0.0964944
0.0940442
0.0917924
0.0897226
0.0878197
0.0860699
0.0844603
0.0829794
0.0816163
0.0803613
0.0792054
0.0781403
0.0771585
0.076253
0.0754177
0.0746466
0.0739347
0.0732773
0.0726698
0.0721078
0.0715872
0.0711043
0.0706548
0.0702331
0.0698362
0.0694625
0.0691131
0.0687864
0.0684806
0.0681942
0.0679258
0.0676742
0.0674381
0.0672164
0.0670081
0.066812
0.0666273
0.0664529
0.066288
0.0661317
0.0659835
0.0658425
0.0657083
0.0655804
0.0654582
0.0653413
0.0652295
0.0651223
0.0650194
0.0649204
0.0648252
0.0647333
0.0646446
0.0645588
0.0644755
0.0643947
0.064316
0.0642392
0.0641641
0.0640906
0.0640184
0.0639474
0.0638774
0.0638081
0.0637396
0.0636714
0.0636037
0.063536
0.0634682
0.0634002
0.0633317
0.0632624
0.0631919
0.06312
0.063046
0.0629694
0.0628894
0.062805
0.0627148
0.0626171
0.0625094
0.0623886
0.0622498
0.0620866
0.0618892
0.0616436
0.0613251
0.0609091
0.0603141
0.0596339
0.0796512
0.142223
0.171461
0.187523
0.196027
0.200564
0.203867
0.20788
0.213687
0.221602
0.231475
0.24299
0.255831
0.269733
0.284486
0.299934
0.315958
0.332443
0.349262
0.366273
0.383315
0.400216
0.416801
0.432904
0.448386
0.463155
0.477181
0.490505
0.503236
0.515541
0.527614
0.539653
0.551824
0.564234
0.576912
0.589795
0.602729
0.615527
0.628249
0.640705
0.652639
0.663764
0.673775
0.682355
0.689187
0.693959
0.696373
0.696161
0.693101
0.687039
0.677907
0.665737
0.650664
0.632918
0.612809
0.590704
0.567001
0.542103
0.516399
0.490244
0.463974
0.438963
0.415173
0.392296
0.370352
0.349401
0.329493
0.31066
0.292914
0.276253
0.260662
0.246114
0.232574
0.220002
0.208352
0.197575
0.187623
0.178444
0.16999
0.162212
0.155062
0.148495
0.14247
0.136944
0.13188
0.127242
0.122996
0.11911
0.115557
0.112307
0.109337
0.106623
0.104144
0.101878
0.0998086
0.0979182
0.0961912
0.0946133
0.0931714
0.0918536
0.0906487
0.0895468
0.0885387
0.087616
0.0867711
0.0859971
0.0852876
0.0846368
0.0840396
0.0834911
0.0829869
0.0825231
0.0820958
0.0817016
0.081337
0.0809986
0.0806814
0.0803848
0.0801088
0.0798515
0.0796112
0.0793861
0.0791749
0.0789763
0.0787891
0.0786123
0.078445
0.0782863
0.0781355
0.077992
0.0778553
0.0777248
0.0776001
0.0774809
0.0773668
0.0772574
0.0771525
0.0770518
0.076955
0.0768619
0.0767722
0.0766856
0.076602
0.076521
0.0764424
0.0763661
0.0762919
0.0762194
0.0761485
0.0760791
0.0760109
0.0759439
0.0758777
0.0758123
0.0757475
0.0756831
0.075619
0.075555
0.0754909
0.0754266
0.0753617
0.0752961
0.0752294
0.0751613
0.0750912
0.0750187
0.0749429
0.074863
0.0747775
0.0746849
0.0745829
0.0744682
0.0743363
0.0741806
0.0739914
0.0737537
0.0734417
0.0730187
0.0723946
0.071516
0.0871889
0.154209
0.18638
0.204945
0.215941
0.223178
0.229469
0.236745
0.246037
0.257625
0.271333
0.286796
0.303632
0.321502
0.340122
0.359248
0.378651
0.398096
0.417333
0.436096
0.454117
0.471141
0.486957
0.501418
0.514469
0.52615
0.536603
0.546049
0.554762
0.563036
0.571151
0.579341
0.587777
0.596549
0.605665
0.615049
0.62455
0.634203
0.644243
0.654533
0.66486
0.67498
0.684635
0.693545
0.701409
0.707895
0.712639
0.715257
0.715368
0.712633
0.706794
0.697708
0.68537
0.669917
0.651604
0.630784
0.607869
0.583297
0.557488
0.530872
0.504074
0.478466
0.453534
0.42929
0.405839
0.383285
0.361711
0.34118
0.32173
0.303381
0.286139
0.269994
0.254924
0.240899
0.227882
0.215828
0.204692
0.194423
0.18497
0.176281
0.168306
0.160995
0.154299
0.148174
0.142575
0.137462
0.132796
0.128541
0.124662
0.12113
0.117914
0.114988
0.112327
0.109907
0.107708
0.10571
0.103895
0.102246
0.100748
0.0993877
0.0981521
0.0970296
0.0960096
0.0950827
0.09424
0.0934735
0.0927762
0.0921413
0.0915631
0.091036
0.0905553
0.0901164
0.0897153
0.0893485
0.0890123
0.0887037
0.0884195
0.0881559
0.0879109
0.0876838
0.0874729
0.0872764
0.0870929
0.0869209
0.0867594
0.0866072
0.0864634
0.0863272
0.0861979
0.086075
0.0859578
0.085846
0.0857391
0.0856368
0.0855388
0.0854449
0.0853546
0.085268
0.0851846
0.0851042
0.0850268
0.0849519
0.0848795
0.0848094
0.0847413
0.084675
0.0846104
0.0845474
0.0844856
0.0844251
0.0843656
0.084307
0.0842491
0.0841919
0.0841351
0.0840786
0.0840224
0.0839662
0.0839098
0.0838533
0.0837962
0.0837385
0.0836799
0.08362
0.0835585
0.0834949
0.0834286
0.0833588
0.0832845
0.0832043
0.0831164
0.0830183
0.0829065
0.082776
0.0826196
0.0824267
0.0821801
0.081855
0.0814007
0.0807794
0.0900905
0.158144
0.192118
0.213254
0.227478
0.238391
0.248629
0.260004
0.273495
0.289376
0.307456
0.327318
0.348487
0.370499
0.392927
0.415365
0.437421
0.458707
0.478845
0.497485
0.514327
0.529147
0.541821
0.552335
0.56079
0.567394
0.572438
0.576272
0.57927
0.581806
0.584221
0.586809
0.589793
0.59332
0.597453
0.602175
0.607388
0.613376
0.620333
0.628092
0.636451
0.645221
0.654237
0.66334
0.672339
0.68097
0.688865
0.695545
0.700449
0.702987
0.70262
0.69893
0.691677
0.680825
0.666526
0.649088
0.628928
0.606517
0.582316
0.556862
0.531538
0.506453
0.481581
0.45708
0.433119
0.409848
0.387386
0.365831
0.345252
0.325702
0.307213
0.2898
0.273466
0.258199
0.243979
0.230776
0.218553
0.207267
0.196871
0.187316
0.178551
0.170525
0.163187
0.156487
0.150378
0.144813
0.13975
0.135147
0.130966
0.127172
0.12373
0.120612
0.117787
0.11523
0.112917
0.110825
0.108933
0.107224
0.10568
0.104286
0.103026
0.101889
0.100861
0.0999339
0.0990962
0.0983394
0.0976556
0.0970376
0.0964787
0.095973
0.0955153
0.0951006
0.0947246
0.0943834
0.0940733
0.0937912
0.0935339
0.0932984
0.0930815
0.0928817
0.0926973
0.0925266
0.0923682
0.0922207
0.0920829
0.0919537
0.0918323
0.0917178
0.0916095
0.0915068
0.0914093
0.0913164
0.0912278
0.0911432
0.0910622
0.0909845
0.0909101
0.0908385
0.0907696
0.0907033
0.0906393
0.0905775
0.0905176
0.0904596
0.0904032
0.0903482
0.0902947
0.0902423
0.090191
0.0901406
0.0900911
0.0900422
0.0899939
0.0899461
0.0898986
0.0898514
0.0898042
0.0897571
0.0897099
0.0896624
0.0896145
0.089566
0.0895168
0.0894664
0.0894148
0.0893614
0.0893059
0.0892475
0.0891854
0.0891188
0.089046
0.0889653
0.0888741
0.0887689
0.0886447
0.0884946
0.088308
0.0880701
0.0877548
0.0873485
0.0904278
0.157829
0.192816
0.216272
0.233786
0.24858
0.263001
0.278687
0.296546
0.316832
0.33932
0.363511
0.388794
0.414533
0.440111
0.464941
0.488472
0.510198
0.529679
0.546551
0.560553
0.571538
0.579487
0.584506
0.58683
0.586802
0.584855
0.581491
0.577242
0.572641
0.568186
0.564308
0.561351
0.559552
0.559046
0.559857
0.561907
0.565447
0.570214
0.575871
0.582168
0.588992
0.596372
0.604431
0.613303
0.623016
0.633388
0.643973
0.654075
0.662829
0.669329
0.672756
0.672499
0.668227
0.659904
0.647736
0.632115
0.613532
0.592516
0.570321
0.547479
0.524108
0.500459
0.476783
0.453304
0.430213
0.40767
0.385807
0.364729
0.34452
0.325245
0.306948
0.289661
0.273399
0.258164
0.243948
0.230732
0.218487
0.207181
0.196771
0.187213
0.178459
0.170458
0.163162
0.15652
0.150483
0.145004
0.140037
0.13554
0.131474
0.127799
0.124482
0.12149
0.118794
0.116365
0.114178
0.112211
0.110442
0.108852
0.107424
0.106141
0.104989
0.103954
0.103026
0.102192
0.101444
0.100773
0.10017
0.0996283
0.099142
0.0987051
0.0983122
0.0979588
0.0976407
0.097354
0.0970953
0.0968616
0.0966499
0.0964573
0.0962812
0.0961201
0.0959722
0.095836
0.0957103
0.0955937
0.0954852
0.095384
0.0952892
0.0952001
0.0951162
0.0950368
0.0949616
0.0948901
0.0948221
0.0947572
0.0946951
0.0946357
0.0945787
0.094524
0.0944713
0.0944205
0.0943714
0.0943238
0.0942778
0.094233
0.0941894
0.0941468
0.0941052
0.0940643
0.0940242
0.0939847
0.0939458
0.0939072
0.093869
0.093831
0.0937932
0.0937555
0.0937177
0.0936798
0.0936417
0.0936032
0.0935642
0.0935246
0.0934841
0.0934426
0.0933996
0.093355
0.0933081
0.0932584
0.0932052
0.0931473
0.0930835
0.0930119
0.0929303
0.0928354
0.092723
0.0925872
0.09242
0.092209
0.0919527
0.0894535
0.155674
0.191167
0.21653
0.23698
0.255353
0.273688
0.29343
0.315392
0.339777
0.366294
0.394335
0.423132
0.451869
0.479746
0.506019
0.530016
0.551154
0.568951
0.583039
0.593178
0.599272
0.601378
0.599722
0.594701
0.586875
0.576941
0.565689
0.553945
0.542506
0.532079
0.523241
0.516406
0.511822
0.509576
0.509601
0.511716
0.515427
0.519803
0.524215
0.528278
0.531927
0.535457
0.539487
0.544796
0.552082
0.561705
0.573533
0.58691
0.600757
0.613765
0.624605
0.632125
0.635521
0.634438
0.628861
0.619106
0.605654
0.589639
0.571728
0.552287
0.5317
0.510319
0.488455
0.466381
0.444329
0.4225
0.401059
0.380147
0.359881
0.340355
0.321644
0.303808
0.28689
0.270918
0.25591
0.241869
0.228789
0.216653
0.205436
0.195105
0.185623
0.176946
0.169028
0.161822
0.155277
0.149346
0.143982
0.139137
0.134768
0.130834
0.127296
0.124116
0.121263
0.118703
0.11641
0.114357
0.112519
0.110875
0.109406
0.108094
0.106922
0.105875
0.104941
0.104107
0.103364
0.1027
0.102109
0.101581
0.10111
0.10069
0.100315
0.0999802
0.0996813
0.0994142
0.0991752
0.0989612
0.0987693
0.0985966
0.0984405
0.098299
0.0981705
0.0980533
0.0979461
0.0978478
0.0977573
0.0976736
0.0975959
0.0975236
0.0974561
0.0973927
0.0973331
0.0972769
0.0972236
0.0971731
0.097125
0.0970792
0.0970353
0.0969933
0.096953
0.0969142
0.0968768
0.0968406
0.0968055
0.0967714
0.0967383
0.0967059
0.0966742
0.0966432
0.0966127
0.0965826
0.0965529
0.0965235
0.0964944
0.0964654
0.0964365
0.0964076
0.0963787
0.0963497
0.0963205
0.0962909
0.096261
0.0962306
0.0961995
0.0961675
0.0961345
0.0961002
0.0960643
0.0960262
0.0959855
0.0959414
0.0958931
0.0958394
0.0957789
0.0957097
0.0956296
0.0955357
0.0954247
0.0952917
0.0951404
0.0877524
0.152786
0.188414
0.215198
0.238028
0.259407
0.281098
0.304357
0.329885
0.357811
0.387764
0.41902
0.450665
0.481722
0.51124
0.538343
0.562251
0.582298
0.597936
0.608749
0.614481
0.615065
0.610663
0.6017
0.588877
0.573145
0.555638
0.537577
0.520155
0.504434
0.491268
0.481262
0.474753
0.471814
0.472264
0.475682
0.481452
0.488094
0.494229
0.498815
0.501082
0.500728
0.498135
0.494456
0.491429
0.490907
0.494313
0.502267
0.514466
0.529807
0.54666
0.563177
0.577556
0.588292
0.594573
0.59599
0.592727
0.585562
0.575167
0.562093
0.546837
0.529853
0.511545
0.492273
0.472353
0.452059
0.431628
0.411263
0.391136
0.371395
0.35216
0.333536
0.315606
0.298438
0.282087
0.266592
0.251982
0.238272
0.225468
0.213564
0.202545
0.192388
0.183061
0.174529
0.166749
0.159678
0.15327
0.147476
0.142251
0.137548
0.133323
0.129533
0.126139
0.123104
0.120393
0.117973
0.115817
0.113895
0.112185
0.110664
0.109312
0.10811
0.107043
0.106096
0.105255
0.10451
0.103848
0.103262
0.102742
0.102282
0.101873
0.101511
0.101191
0.100906
0.100654
0.10043
0.100232
0.100055
0.0998981
0.0997576
0.0996317
0.0995186
0.0994167
0.0993247
0.0992412
0.0991653
0.099096
0.0990325
0.0989741
0.0989202
0.0988701
0.0988235
0.09878
0.0987392
0.0987007
0.0986644
0.0986301
0.0985974
0.0985662
0.0985365
0.0985079
0.0984805
0.098454
0.0984284
0.0984036
0.0983794
0.0983559
0.0983329
0.0983104
0.0982883
0.0982664
0.0982449
0.0982235
0.0982024
0.0981813
0.0981603
0.0981392
0.0981182
0.098097
0.0980756
0.0980541
0.0980322
0.0980099
0.0979871
0.0979638
0.0979396
0.0979145
0.0978882
0.0978604
0.0978307
0.0977988
0.097764
0.0977258
0.0976833
0.0976357
0.0975822
0.0975219
0.0974543
0.0973789
0.097301
0.0854712
0.149535
0.184984
0.212703
0.237301
0.261019
0.285391
0.311501
0.339941
0.370762
0.403517
0.437384
0.471329
0.504248
0.535063
0.562775
0.586491
0.605425
0.618917
0.626459
0.627749
0.622769
0.611863
0.595789
0.575715
0.553135
0.529721
0.507134
0.486862
0.470099
0.457684
0.450088
0.447412
0.449394
0.45542
0.464543
0.475551
0.486931
0.497224
0.504849
0.5082
0.506018
0.497975
0.485236
0.470534
0.45739
0.448968
0.447214
0.452604
0.464308
0.480571
0.499168
0.517755
0.533921
0.546394
0.554139
0.557275
0.55625
0.551514
0.543558
0.532875
0.519935
0.505173
0.488982
0.471712
0.453674
0.435139
0.416344
0.397493
0.378758
0.360288
0.342207
0.32462
0.307616
0.291267
0.275635
0.260767
0.246699
0.233457
0.221056
0.2095
0.198784
0.188892
0.179802
0.171483
0.163902
0.157016
0.150785
0.145162
0.140103
0.135563
0.131498
0.127865
0.124625
0.12174
0.119174
0.116895
0.114873
0.113082
0.111495
0.110091
0.10885
0.107753
0.106785
0.105929
0.105174
0.104509
0.103921
0.103404
0.102948
0.102546
0.102192
0.10188
0.101605
0.101363
0.10115
0.100963
0.100798
0.100652
0.100523
0.100408
0.100307
0.100216
0.100136
0.100064
0.0999991
0.0999408
0.0998883
0.0998406
0.0997972
0.0997576
0.0997212
0.0996876
0.0996566
0.0996277
0.0996007
0.0995754
0.0995516
0.0995291
0.0995077
0.0994874
0.099468
0.0994493
0.0994314
0.099414
0.0993972
0.0993808
0.0993649
0.0993493
0.0993339
0.0993189
0.099304
0.0992892
0.0992746
0.09926
0.0992454
0.0992309
0.0992163
0.0992016
0.0991868
0.0991718
0.0991566
0.0991411
0.0991253
0.099109
0.0990922
0.0990747
0.0990564
0.0990372
0.0990167
0.0989948
0.0989712
0.0989455
0.0989176
0.0988873
0.0988547
0.0988202
0.098785
0.0987507
0.0987229
0.0824472
0.14597
0.181003
0.209217
0.235011
0.260418
0.286788
0.31506
0.345735
0.378805
0.413766
0.449733
0.485591
0.520139
0.552195
0.580648
0.604469
0.622722
0.634588
0.639422
0.636858
0.626941
0.610256
0.587982
0.561835
0.533883
0.506272
0.480962
0.459541
0.443144
0.432441
0.427665
0.428627
0.434743
0.445036
0.458219
0.473153
0.489452
0.505873
0.520454
0.530542
0.533143
0.525837
0.50825
0.483302
0.456366
0.433133
0.417649
0.411672
0.41501
0.426053
0.442385
0.461568
0.480169
0.496221
0.508759
0.517253
0.521627
0.52209
0.519005
0.512804
0.50393
0.492816
0.479868
0.465456
0.449917
0.433553
0.416626
0.399368
0.381976
0.364619
0.347439
0.330558
0.314078
0.298086
0.282656
0.26785
0.25372
0.240308
0.227645
0.215754
0.204647
0.194327
0.184785
0.176008
0.167972
0.160647
0.153998
0.147987
0.142571
0.137708
0.133354
0.129467
0.126005
0.122928
0.120199
0.117783
0.115646
0.113759
0.112095
0.110629
0.109338
0.108203
0.107204
0.106327
0.105556
0.10488
0.104286
0.103766
0.103309
0.102909
0.102558
0.102251
0.101982
0.101747
0.101541
0.10136
0.101202
0.101064
0.100943
0.100837
0.100743
0.100661
0.100589
0.100525
0.100468
0.100418
0.100373
0.100333
0.100298
0.100266
0.100237
0.10021
0.100186
0.100165
0.100145
0.100126
0.100109
0.100093
0.100078
0.100063
0.10005
0.100037
0.100025
0.100013
0.100002
0.0999911
0.0999804
0.0999701
0.0999599
0.09995
0.0999401
0.0999304
0.0999208
0.0999112
0.0999017
0.0998921
0.0998825
0.0998728
0.0998631
0.0998532
0.0998432
0.0998329
0.0998225
0.0998117
0.0998006
0.0997891
0.0997771
0.0997645
0.0997511
0.099737
0.099722
0.099706
0.0996893
0.099672
0.0996549
0.0996392
0.0996268
0.0996206
0.0996257
0.0795001
0.141663
0.176231
0.204752
0.231311
0.257854
0.285646
0.315423
0.347669
0.382356
0.418968
0.456598
0.494096
0.530207
0.563673
0.593283
0.617875
0.636329
0.647628
0.65095
0.645814
0.632287
0.611152
0.583975
0.552962
0.520652
0.489531
0.461706
0.438748
0.421667
0.410941
0.406548
0.407967
0.41428
0.42438
0.43735
0.453259
0.472612
0.49473
0.517837
0.538859
0.553308
0.555914
0.54273
0.514824
0.478443
0.442044
0.412531
0.393537
0.385931
0.388667
0.399178
0.41472
0.432428
0.449841
0.465167
0.477309
0.48576
0.49043
0.491489
0.489245
0.484073
0.476366
0.466516
0.454898
0.441858
0.427717
0.412759
0.397234
0.38136
0.365322
0.349277
0.333358
0.317676
0.302327
0.28739
0.272937
0.259027
0.245713
0.233038
0.221039
0.209743
0.199167
0.189321
0.180204
0.171807
0.164114
0.157099
0.150734
0.144983
0.139808
0.135169
0.131024
0.127334
0.124056
0.121153
0.118588
0.116325
0.114332
0.112581
0.111043
0.109694
0.108512
0.107477
0.106572
0.105781
0.105089
0.104485
0.103957
0.103496
0.103094
0.102744
0.102438
0.102172
0.10194
0.101738
0.101562
0.101409
0.101275
0.101159
0.101058
0.10097
0.100893
0.100827
0.100768
0.100717
0.100672
0.100633
0.100599
0.100568
0.100541
0.100518
0.100496
0.100478
0.100461
0.100445
0.100431
0.100419
0.100407
0.100397
0.100387
0.100377
0.100369
0.100361
0.100353
0.100345
0.100338
0.100331
0.100325
0.100318
0.100312
0.100306
0.1003
0.100294
0.100288
0.100282
0.100276
0.10027
0.100264
0.100258
0.100251
0.100245
0.100239
0.100232
0.100225
0.100218
0.100211
0.100204
0.100196
0.100188
0.100179
0.100171
0.100162
0.100153
0.100145
0.100139
0.100136
0.100138
0.10015
0.100175
0.076333
0.13758
0.171127
0.199823
0.226881
0.254095
0.282631
0.313256
0.346391
0.382015
0.419653
0.458445
0.497274
0.534896
0.570031
0.601409
0.627753
0.647731
0.660015
0.663639
0.657931
0.642842
0.619183
0.588707
0.553929
0.51772
0.482855
0.451624
0.425683
0.406071
0.393169
0.386629
0.385471
0.388419
0.39456
0.404014
0.418388
0.438293
0.463411
0.492478
0.522907
0.550077
0.567009
0.565688
0.543721
0.506167
0.462796
0.42311
0.392946
0.374427
0.36732
0.370023
0.380096
0.394696
0.411085
0.42702
0.440931
0.451898
0.459504
0.463684
0.464583
0.462466
0.457663
0.450527
0.441414
0.43067
0.41862
0.40556
0.391752
0.377428
0.362785
0.347988
0.333178
0.31847
0.303964
0.289741
0.275873
0.262425
0.249451
0.237001
0.22512
0.213845
0.203205
0.193222
0.183911
0.175276
0.167314
0.160013
0.153354
0.147312
0.141856
0.136951
0.13256
0.128645
0.125167
0.122086
0.119365
0.116969
0.114863
0.113017
0.1114
0.109986
0.108752
0.107676
0.106738
0.105921
0.10521
0.104592
0.104054
0.103587
0.103181
0.102829
0.102523
0.102257
0.102027
0.101827
0.101653
0.101503
0.101373
0.101261
0.101163
0.101079
0.101006
0.100943
0.100888
0.100841
0.100799
0.100764
0.100733
0.100706
0.100683
0.100663
0.100645
0.100629
0.100615
0.100603
0.100592
0.100583
0.100574
0.100566
0.100559
0.100553
0.100547
0.100541
0.100536
0.100532
0.100527
0.100523
0.100518
0.100514
0.100511
0.100507
0.100503
0.100499
0.100496
0.100492
0.100489
0.100485
0.100481
0.100478
0.100474
0.10047
0.100467
0.100463
0.100459
0.100455
0.10045
0.100446
0.100442
0.100437
0.100432
0.100428
0.100424
0.10042
0.100418
0.100419
0.100424
0.100436
0.100459
0.100495
0.0728771
0.134429
0.165807
0.1943
0.221667
0.249269
0.278206
0.309243
0.3428
0.378891
0.417105
0.45666
0.496513
0.535472
0.572286
0.605663
0.634261
0.65669
0.671556
0.677616
0.673942
0.660217
0.637015
0.605924
0.569418
0.530447
0.49198
0.456611
0.426315
0.402427
0.38547
0.374911
0.369277
0.366775
0.366923
0.372377
0.385339
0.405111
0.431076
0.462317
0.497009
0.531377
0.558649
0.569965
0.558896
0.52669
0.482417
0.437311
0.399378
0.3723
0.356865
0.352214
0.356411
0.366857
0.3808
0.395786
0.409938
0.42201
0.431302
0.437517
0.440631
0.440787
0.438233
0.433271
0.426228
0.417435
0.407212
0.395856
0.383635
0.370785
0.357507
0.343973
0.330324
0.316678
0.303132
0.289766
0.276652
0.263848
0.251411
0.23939
0.227831
0.216775
0.206261
0.196318
0.186972
0.178239
0.170129
0.162643
0.155772
0.149503
0.143815
0.13868
0.134068
0.129944
0.126274
0.123019
0.120143
0.117611
0.115388
0.11344
0.111739
0.110255
0.108964
0.107841
0.106866
0.10602
0.105287
0.104652
0.104102
0.103627
0.103215
0.102859
0.102551
0.102285
0.102055
0.101857
0.101685
0.101538
0.10141
0.1013
0.101205
0.101123
0.101053
0.100993
0.100941
0.100896
0.100857
0.100824
0.100796
0.100771
0.10075
0.100732
0.100717
0.100703
0.100692
0.100682
0.100673
0.100665
0.100658
0.100652
0.100647
0.100642
0.100638
0.100634
0.100631
0.100628
0.100625
0.100622
0.10062
0.100617
0.100615
0.100612
0.10061
0.100608
0.100606
0.100604
0.100602
0.1006
0.100598
0.100596
0.100594
0.100591
0.100589
0.100587
0.100585
0.100582
0.10058
0.100578
0.100575
0.100573
0.100571
0.100569
0.100568
0.100568
0.10057
0.100575
0.100584
0.100602
0.100629
0.100671
0.06937
0.133781
0.160988
0.188
0.215192
0.242925
0.271981
0.303094
0.336713
0.372916
0.411381
0.451428
0.492107
0.532313
0.570858
0.606495
0.63791
0.663717
0.682473
0.692785
0.693502
0.683992
0.664445
0.636035
0.600874
0.5617
0.521467
0.482952
0.448465
0.41968
0.397373
0.381241
0.370022
0.36231
0.3583
0.361345
0.372472
0.390843
0.415758
0.446395
0.481366
0.51773
0.549493
0.567472
0.56327
0.535725
0.492754
0.445921
0.404115
0.371883
0.350797
0.340661
0.340031
0.346624
0.357826
0.371169
0.384641
0.39681
0.406775
0.414064
0.418509
0.420145
0.419144
0.415756
0.410277
0.403017
0.394283
0.384366
0.37353
0.362008
0.350001
0.337677
0.325176
0.312611
0.300076
0.287647
0.275388
0.263355
0.251598
0.240161
0.229091
0.218427
0.208209
0.198474
0.189251
0.180567
0.172441
0.164884
0.157901
0.151488
0.145634
0.14032
0.135526
0.131222
0.127378
0.123961
0.120936
0.11827
0.115928
0.113877
0.112087
0.110529
0.109174
0.108
0.106984
0.106105
0.105346
0.104692
0.104127
0.103641
0.103222
0.102861
0.10255
0.102283
0.102053
0.101855
0.101685
0.101539
0.101414
0.101306
0.101213
0.101134
0.101066
0.101008
0.100958
0.100915
0.100879
0.100848
0.100821
0.100799
0.100779
0.100763
0.100749
0.100737
0.100727
0.100718
0.10071
0.100704
0.100698
0.100694
0.10069
0.100686
0.100683
0.10068
0.100678
0.100675
0.100673
0.100672
0.10067
0.100668
0.100667
0.100666
0.100664
0.100663