/*--------------------------------*- C++ -*----------------------------------*\
  =========                 |
  \\      /  F ield         | OpenFOAM: The Open Source CFD Toolbox
   \\    /   O peration     | Website:  https://openfoam.org
    \\  /    A nd           | Version:  9
     \\/     M anipulation  |
\*---------------------------------------------------------------------------*/
FoamFile
{
    format      ascii;
    class       volScalarField;
    location    "0.01";
    object      nut;
}
// * * * * * * * * * * * * * * * * * * * * * * * * * * * * * * * * * * * * * //

dimensions      [0 2 -1 0 0 0 0];

internalField   nonuniform List<scalar> 
12225
(
8.99095e-06
7.55179e-06
6.46724e-06
5.68094e-06
5.15137e-06
4.84383e-06
4.72645e-06
4.76731e-06
4.9342e-06
5.19554e-06
5.52175e-06
5.88643e-06
6.2673e-06
6.64659e-06
7.01115e-06
7.35187e-06
7.66535e-06
8.05868e-06
6.74623e-05
4.77902e-05
4.04873e-05
3.70804e-05
3.5421e-05
3.46495e-05
3.4312e-05
3.4159e-05
3.40615e-05
3.39579e-05
3.3822e-05
3.3645e-05
3.34277e-05
3.31748e-05
3.28939e-05
3.25905e-05
3.2279e-05
3.1927e-05
0.000146074
0.000111132
9.19114e-05
7.92752e-05
6.9926e-05
6.25167e-05
5.64104e-05
5.1295e-05
4.70053e-05
4.34279e-05
4.0461e-05
3.80067e-05
3.59732e-05
3.42797e-05
3.28574e-05
3.16484e-05
3.06071e-05
2.96897e-05
0.000188819
0.000163366
0.000143504
0.000128074
0.000115619
0.000105187
9.61827e-05
8.82499e-05
8.11938e-05
7.49092e-05
6.93298e-05
6.43982e-05
6.00552e-05
5.6237e-05
5.28775e-05
4.99087e-05
4.72672e-05
4.49048e-05
0.000204942
0.000192284
0.000179123
0.000166873
0.000155816
0.000145887
0.000136923
0.000128764
0.000121289
0.000114417
0.000108099
0.000102299
9.6985e-05
9.21251e-05
8.76818e-05
8.36123e-05
7.98736e-05
7.64512e-05
0.000210146
0.000204755
0.000197909
0.000190456
0.000182914
0.000175564
0.000168533
0.000161862
0.000155551
0.000149591
0.00014397
0.000138677
0.000133702
0.00012903
0.000124647
0.000120532
0.000116665
0.000113065
0.000211676
0.000209336
0.000206111
0.000202215
0.000197886
0.000193329
0.000188692
0.000184076
0.00017954
0.000175122
0.000170845
0.000166722
0.000162761
0.000158964
0.00015533
0.000151855
0.000148532
0.0001454
0.000212093
0.000210829
0.000209206
0.000207219
0.000204913
0.000202359
0.000199632
0.000196796
0.000193905
0.000190997
0.000188104
0.000185248
0.000182445
0.000179706
0.000177037
0.000174443
0.000171927
0.000169529
0.000212199
0.000211267
0.000210238
0.000209076
0.000207771
0.000206329
0.000204767
0.000203108
0.000201377
0.000199596
0.000197785
0.000195961
0.000194136
0.000192323
0.000190528
0.000188758
0.000187021
0.000185348
0.000212223
0.000211383
0.000210544
0.000209685
0.000208791
0.000207854
0.00020687
0.000205843
0.000204776
0.000203677
0.000202553
0.000201412
0.000200261
0.000199106
0.000197952
0.000196804
0.000195667
0.000194566
0.000212228
0.00021141
0.000210625
0.000209862
0.000209112
0.000208369
0.000207627
0.000206882
0.000206132
0.000205377
0.000204618
0.000203856
0.000203093
0.00020233
0.000201571
0.000200816
0.000200069
0.000199346
0.000212229
0.000211415
0.000210642
0.000209904
0.000209195
0.000208512
0.000207849
0.000207204
0.000206573
0.000205954
0.000205346
0.000204748
0.000204159
0.000203579
0.000203009
0.000202448
0.000201898
0.000201372
0.000212229
0.000211416
0.000210645
0.000209914
0.000209218
0.000208554
0.00020792
0.000207312
0.000206728
0.000206166
0.000205623
0.000205099
0.000204592
0.0002041
0.000203624
0.000203163
0.000202717
0.000202295
0.000212228
0.000211415
0.000210645
0.000209915
0.000209222
0.000208563
0.000207937
0.000207342
0.000206774
0.000206232
0.000205715
0.00020522
0.000204747
0.000204294
0.000203859
0.000203444
0.000203046
0.000202675
0.000212228
0.000211415
0.000210644
0.000209914
0.000209221
0.000208563
0.000207938
0.000207345
0.000206781
0.000206244
0.000205734
0.000205247
0.000204784
0.000204343
0.000203923
0.000203522
0.000203142
0.000202789
0.000212228
0.000211414
0.000210643
0.000209912
0.000209219
0.000208561
0.000207936
0.000207343
0.000206779
0.000206243
0.000205733
0.000205248
0.000204787
0.000204348
0.00020393
0.000203533
0.000203156
0.000202807
0.000212228
0.000211414
0.000210643
0.000209911
0.000209218
0.000208559
0.000207934
0.00020734
0.000206775
0.000206239
0.000205729
0.000205243
0.000204782
0.000204342
0.000203925
0.000203527
0.000203151
0.000202801
0.000212228
0.000211414
0.000210642
0.000209911
0.000209217
0.000208558
0.000207932
0.000207338
0.000206773
0.000206235
0.000205725
0.000205239
0.000204776
0.000204336
0.000203917
0.000203519
0.000203141
0.00020279
0.000212228
0.000211414
0.000210642
0.000209911
0.000209216
0.000208557
0.000207931
0.000207336
0.000206771
0.000206233
0.000205721
0.000205234
0.000204771
0.00020433
0.000203909
0.000203509
0.000203129
0.000202777
0.000212228
0.000211414
0.000210643
0.000209911
0.000209217
0.000208558
0.000207931
0.000207336
0.00020677
0.000206232
0.000205719
0.000205231
0.000204766
0.000204323
0.000203901
0.000203499
0.000203116
0.000202761
0.000212228
0.000211414
0.000210643
0.000209911
0.000209217
0.000208557
0.00020793
0.000207334
0.000206766
0.000206225
0.000205709
0.000205217
0.000204747
0.000204298
0.000203869
0.000203458
0.000203067
0.000202701
0.000212228
0.000211414
0.000210642
0.000209909
0.000209211
0.000208546
0.00020791
0.000207302
0.000206718
0.000206158
0.000205619
0.000205099
0.000204598
0.000204113
0.000203644
0.000203191
0.000202753
0.000202338
0.000212227
0.00021141
0.000210628
0.000209874
0.000209144
0.000208432
0.000207734
0.000207046
0.000206367
0.000205696
0.000205031
0.000204373
0.000203721
0.000203076
0.000202437
0.000201807
0.000201185
0.000200582
0.000212216
0.000211358
0.000210489
0.000209591
0.000208655
0.000207676
0.000206655
0.000205598
0.00020451
0.000203398
0.00020227
0.000201131
0.000199987
0.000198842
0.000197702
0.000196569
0.000195446
0.000194349
0.000212114
0.000210949
0.000209542
0.000207894
0.000206036
0.000204011
0.000201869
0.000199653
0.000197398
0.000195131
0.000192873
0.000190637
0.000188433
0.000186268
0.000184144
0.000182065
0.00018003
0.000178059
0.00021134
0.000208439
0.000204667
0.000200359
0.000195783
0.000191139
0.000186555
0.000182105
0.000177823
0.000173721
0.000169798
0.000166044
0.000162447
0.000158996
0.000155676
0.000152478
0.000149393
0.000146434
0.00020656
0.000196635
0.000186186
0.000176315
0.000167334
0.000159279
0.000152067
0.000145575
0.000139679
0.000134276
0.000129279
0.000124621
0.000120251
0.000116131
0.00011223
0.000108528
0.000105008
0.000101676
0.000183026
0.000157117
0.000138698
0.00012522
0.000114875
0.000106633
9.9848e-05
9.4093e-05
8.90916e-05
8.46641e-05
8.06914e-05
7.70933e-05
7.38151e-05
7.0818e-05
6.80732e-05
6.55574e-05
6.32505e-05
6.11403e-05
0.000105338
7.86489e-05
6.66792e-05
6.00052e-05
5.5887e-05
5.32682e-05
5.16037e-05
5.05612e-05
4.99256e-05
4.95525e-05
4.93439e-05
4.92328e-05
4.91741e-05
4.91384e-05
4.91073e-05
4.90699e-05
4.90214e-05
4.89544e-05
1.67224e-05
1.50187e-05
1.36083e-05
1.24429e-05
1.14896e-05
1.07221e-05
1.01196e-05
9.66393e-06
9.33896e-06
9.12983e-06
9.02271e-06
9.00471e-06
9.06378e-06
9.18879e-06
9.36951e-06
9.59663e-06
9.86193e-06
1.01571e-05
2.74007e-06
3.05618e-05
3.95592e-05
4.53091e-05
4.83816e-05
4.95021e-05
4.96895e-05
1.06891e-05
1.05393e-05
1.05002e-05
1.05363e-05
4.88572e-05
4.83144e-05
5.01393e-05
1.16246e-05
1.24992e-05
1.34618e-05
1.44682e-05
1.54986e-05
1.65337e-05
1.75551e-05
1.85462e-05
1.94932e-05
2.0385e-05
2.12133e-05
2.19726e-05
2.26595e-05
2.32728e-05
2.38132e-05
2.42823e-05
2.46829e-05
2.50186e-05
2.52936e-05
2.55124e-05
2.56799e-05
2.58015e-05
2.58837e-05
2.59394e-05
2.59842e-05
2.59876e-05
2.5951e-05
2.58747e-05
2.57583e-05
2.56008e-05
2.54011e-05
2.51582e-05
2.48711e-05
2.45393e-05
2.41626e-05
2.37413e-05
2.32764e-05
2.27695e-05
2.22228e-05
2.16392e-05
2.10218e-05
2.03741e-05
1.96992e-05
1.89993e-05
1.82743e-05
1.75243e-05
1.67606e-05
1.61136e-05
1.57886e-05
1.55292e-05
1.52937e-05
1.50767e-05
1.48785e-05
1.47004e-05
1.45439e-05
1.44101e-05
1.43e-05
1.42141e-05
1.41527e-05
1.41155e-05
1.41018e-05
1.41107e-05
1.41408e-05
1.41903e-05
1.42574e-05
1.43399e-05
1.44357e-05
1.45424e-05
1.46578e-05
1.47797e-05
1.49059e-05
1.50346e-05
1.51639e-05
1.52923e-05
1.54184e-05
1.55411e-05
1.56594e-05
1.57725e-05
1.58798e-05
1.59808e-05
1.60754e-05
1.61632e-05
1.62443e-05
1.63187e-05
1.63865e-05
1.64479e-05
1.65032e-05
1.65525e-05
1.65962e-05
1.66347e-05
1.66681e-05
1.6697e-05
1.6721e-05
1.67401e-05
1.67547e-05
1.67652e-05
1.67718e-05
1.67747e-05
1.67742e-05
1.67704e-05
1.67635e-05
1.67538e-05
1.67414e-05
1.67268e-05
1.67101e-05
1.66918e-05
1.66722e-05
1.66515e-05
1.66301e-05
1.66081e-05
1.65858e-05
1.65631e-05
1.65402e-05
1.65172e-05
1.64941e-05
1.64708e-05
1.64474e-05
1.64239e-05
1.64003e-05
1.63766e-05
1.63528e-05
1.63288e-05
1.63047e-05
1.62805e-05
1.62562e-05
1.62317e-05
1.62071e-05
1.61823e-05
1.61574e-05
1.61323e-05
1.61071e-05
1.60817e-05
1.60561e-05
1.60303e-05
1.60044e-05
1.59782e-05
1.59519e-05
1.59253e-05
1.58985e-05
1.58715e-05
1.58442e-05
1.58167e-05
1.57888e-05
1.57606e-05
1.57321e-05
1.57031e-05
1.56737e-05
1.56437e-05
1.56131e-05
1.55817e-05
1.55494e-05
1.5516e-05
1.54813e-05
1.54448e-05
1.54061e-05
1.53647e-05
1.53197e-05
1.52698e-05
1.52136e-05
1.51484e-05
1.50708e-05
1.4975e-05
1.48525e-05
1.46846e-05
1.44608e-05
1.40536e-05
6.14383e-06
4.0184e-05
6.05983e-05
6.84472e-05
6.9252e-05
6.63853e-05
6.18227e-05
5.58505e-05
5.16801e-05
4.8487e-05
4.63923e-05
4.57551e-05
4.51108e-05
4.51876e-05
4.5272e-05
4.62948e-05
4.75354e-05
4.89682e-05
5.06105e-05
5.2491e-05
5.46458e-05
5.71174e-05
5.99531e-05
6.32042e-05
6.69245e-05
7.11685e-05
7.59886e-05
8.14305e-05
8.75278e-05
9.42932e-05
0.000101708
0.000109707
0.000118167
0.00012689
0.000135599
0.000143942
0.000151527
0.000157901
0.000163572
0.000169055
0.000174339
0.000179371
0.000184096
0.000188457
0.000192399
0.000195868
0.000198814
0.000201192
0.00020296
0.000204086
0.000204545
0.000204321
0.000203407
0.000201801
0.000199508
0.000196535
0.000192886
0.000188556
0.000183534
0.000177812
0.000171407
0.000164571
0.000157893
0.000151235
0.000144591
0.000137984
0.000131443
0.000124993
0.000118658
0.000112459
0.000106416
0.000100547
9.48681e-05
8.93952e-05
8.4142e-05
7.91207e-05
7.43413e-05
6.98115e-05
6.55365e-05
6.15185e-05
5.77573e-05
5.42497e-05
5.09902e-05
4.79712e-05
4.51831e-05
4.26152e-05
4.02556e-05
3.80916e-05
3.61103e-05
3.42989e-05
3.26447e-05
3.11351e-05
2.97585e-05
2.85037e-05
2.736e-05
2.63177e-05
2.53677e-05
2.45016e-05
2.37117e-05
2.2991e-05
2.2333e-05
2.17319e-05
2.11824e-05
2.06797e-05
2.02194e-05
1.97974e-05
1.94039e-05
1.90307e-05
1.86778e-05
1.83448e-05
1.80313e-05
1.77367e-05
1.74611e-05
1.72082e-05
1.69764e-05
1.67649e-05
1.65727e-05
1.63991e-05
1.6243e-05
1.61029e-05
1.59774e-05
1.58646e-05
1.57631e-05
1.56709e-05
1.55868e-05
1.55093e-05
1.54373e-05
1.53698e-05
1.53062e-05
1.52458e-05
1.51881e-05
1.51327e-05
1.50792e-05
1.50275e-05
1.49772e-05
1.49282e-05
1.48804e-05
1.48335e-05
1.47876e-05
1.47424e-05
1.46979e-05
1.46541e-05
1.46108e-05
1.45679e-05
1.45254e-05
1.44833e-05
1.44414e-05
1.43998e-05
1.43583e-05
1.4317e-05
1.42757e-05
1.42344e-05
1.41931e-05
1.41517e-05
1.41102e-05
1.40684e-05
1.40263e-05
1.39839e-05
1.39409e-05
1.38974e-05
1.38531e-05
1.38078e-05
1.37614e-05
1.37136e-05
1.36638e-05
1.36118e-05
1.35568e-05
1.34981e-05
1.34345e-05
1.33645e-05
1.32861e-05
1.31964e-05
1.30916e-05
1.29659e-05
1.28112e-05
1.26171e-05
1.23663e-05
1.20601e-05
1.16459e-05
1.13746e-05
1.02842e-05
5.44427e-05
7.9685e-05
8.9296e-05
9.04886e-05
8.75699e-05
8.32205e-05
7.90222e-05
7.59185e-05
7.40994e-05
7.34819e-05
7.39058e-05
7.51381e-05
7.71008e-05
7.96634e-05
8.28315e-05
8.6533e-05
9.07897e-05
9.56361e-05
0.000101106
0.000107224
0.000114006
0.000121445
0.000129514
0.000138157
0.000147291
0.000156802
0.00016655
0.000176377
0.000186118
0.000195613
0.000204716
0.000213313
0.000221323
0.000228702
0.000235439
0.000241545
0.000247023
0.000252357
0.000257608
0.000262751
0.000267741
0.000272521
0.000277031
0.000281204
0.000284969
0.000288256
0.000290991
0.000293104
0.000294529
0.000295209
0.000295096
0.000294159
0.000292379
0.000289757
0.000286311
0.000282072
0.000277087
0.000271412
0.000265109
0.000258245
0.000251052
0.000243854
0.000236618
0.000229363
0.000222125
0.00021494
0.00020784
0.000200849
0.000193986
0.000187266
0.000180697
0.000174287
0.00016804
0.000161958
0.000156045
0.000150301
0.00014473
0.000139335
0.000134119
0.000129087
0.000124244
0.000119592
0.000115138
0.000110883
0.00010683
0.00010298
9.93323e-05
9.58858e-05
9.26373e-05
8.95822e-05
8.67153e-05
8.403e-05
8.1519e-05
7.91747e-05
7.69888e-05
7.49529e-05
7.30583e-05
7.12968e-05
6.96598e-05
6.81393e-05
6.67274e-05
6.54167e-05
6.42e-05
6.30704e-05
6.20217e-05
6.10464e-05
6.01368e-05
5.92861e-05
5.84888e-05
5.77402e-05
5.70361e-05
5.63707e-05
5.57247e-05
5.50988e-05
5.4498e-05
5.39312e-05
5.33999e-05
5.29035e-05
5.24406e-05
5.20097e-05
5.16088e-05
5.12355e-05
5.08874e-05
5.05618e-05
5.02565e-05
4.99691e-05
4.96978e-05
4.94407e-05
4.91965e-05
4.8964e-05
4.87421e-05
4.85299e-05
4.83267e-05
4.81318e-05
4.79446e-05
4.77646e-05
4.75912e-05
4.74241e-05
4.72626e-05
4.71064e-05
4.6955e-05
4.6808e-05
4.6665e-05
4.65257e-05
4.63897e-05
4.62565e-05
4.6126e-05
4.59978e-05
4.58714e-05
4.57468e-05
4.56235e-05
4.55012e-05
4.53797e-05
4.52586e-05
4.51376e-05
4.50163e-05
4.48944e-05
4.47712e-05
4.46464e-05
4.45192e-05
4.43889e-05
4.42544e-05
4.41145e-05
4.39676e-05
4.38117e-05
4.36441e-05
4.34613e-05
4.32584e-05
4.30291e-05
4.27643e-05
4.24511e-05
4.20708e-05
4.15956e-05
4.09813e-05
4.01613e-05
3.90098e-05
3.73772e-05
3.47898e-05
3.13838e-05
1.27312e-05
6.37782e-05
9.37025e-05
0.000106292
0.000109518
0.000108223
0.000105437
0.000102967
0.0001017
0.000101868
0.000103374
0.000106021
0.000109622
0.000114035
0.000119159
0.000124929
0.000131299
0.000138238
0.000145704
0.000153637
0.000161953
0.000170547
0.000179288
0.000188034
0.000196637
0.000204953
0.00021286
0.000220264
0.000227114
0.000233396
0.000239135
0.000244387
0.000249223
0.00025372
0.000257944
0.000261942
0.000265735
0.000269413
0.000273244
0.000277253
0.000281423
0.000285716
0.000290086
0.000294476
0.000298817
0.000303035
0.000307044
0.000310748
0.000314047
0.000316837
0.000319013
0.000320478
0.000321147
0.000320954
0.000319854
0.000317828
0.000314883
0.000311049
0.00030638
0.000300937
0.0002948
0.000288253
0.000281521
0.000274642
0.00026767
0.000260668
0.000253693
0.000246796
0.000240019
0.000233395
0.000226949
0.000220697
0.000214648
0.000208806
0.000203168
0.00019773
0.000192482
0.000187415
0.00018252
0.000177786
0.000173205
0.00016877
0.000164476
0.00016032
0.000156301
0.000152418
0.000148672
0.000145067
0.000141604
0.000138285
0.000135112
0.000132087
0.000129209
0.000126477
0.000123892
0.000121448
0.000119144
0.000116975
0.000114937
0.000113023
0.000111229
0.000109549
0.000107976
0.000106505
0.00010513
0.000103844
0.000102644
0.000101521
0.000100472
9.94902e-05
9.85708e-05
9.77091e-05
9.69e-05
9.61378e-05
9.54173e-05
9.47327e-05
9.40699e-05
9.34336e-05
9.28304e-05
9.2259e-05
9.17178e-05
9.12053e-05
9.07198e-05
9.02597e-05
8.9823e-05
8.94082e-05
8.90134e-05
8.86372e-05
8.82782e-05
8.79351e-05
8.76069e-05
8.72925e-05
8.69911e-05
8.67019e-05
8.64242e-05
8.61573e-05
8.59007e-05
8.56536e-05
8.54156e-05
8.5186e-05
8.49642e-05
8.47497e-05
8.45418e-05
8.43401e-05
8.41441e-05
8.39531e-05
8.37667e-05
8.35844e-05
8.34058e-05
8.32303e-05
8.30577e-05
8.28874e-05
8.2719e-05
8.25521e-05
8.23863e-05
8.22212e-05
8.20563e-05
8.18911e-05
8.17251e-05
8.15576e-05
8.1388e-05
8.12152e-05
8.10383e-05
8.0856e-05
8.06665e-05
8.04678e-05
8.02572e-05
8.00309e-05
7.97841e-05
7.95103e-05
7.92004e-05
7.88414e-05
7.84148e-05
7.78928e-05
7.72322e-05
7.63653e-05
7.51696e-05
7.34575e-05
7.07679e-05
6.67293e-05
1.39586e-05
6.88666e-05
0.000102885
0.000118899
0.000124983
0.00012616
0.000125598
0.000125206
0.00012594
0.000128094
0.000131594
0.00013623
0.000141782
0.000148061
0.000154918
0.00016223
0.000169887
0.00017778
0.000185785
0.000193769
0.000201587
0.000209092
0.000216145
0.000222627
0.000228448
0.000233556
0.000237944
0.000241647
0.000244737
0.000247315
0.000249492
0.000251387
0.000253106
0.000254738
0.00025635
0.000257984
0.00025966
0.000261531
0.000263817
0.000266549
0.000269718
0.000273304
0.000277272
0.000281582
0.000286179
0.000290995
0.000295944
0.00030092
0.0003058
0.000310443
0.000314697
0.000318406
0.00032142
0.000323606
0.000324853
0.000325082
0.000324248
0.000322341
0.000319391
0.000315436
0.000310577
0.000305131
0.000299259
0.000293044
0.000286572
0.000279933
0.000273212
0.000266485
0.000259822
0.000253281
0.000246909
0.000240744
0.000234814
0.000229135
0.000223715
0.000218555
0.000213648
0.000208982
0.000204543
0.000200311
0.000196268
0.000192395
0.000188674
0.00018509
0.000181631
0.000178287
0.00017505
0.000171916
0.000168884
0.000165953
0.000163125
0.000160402
0.000157786
0.000155279
0.000152884
0.0001506
0.000148429
0.00014637
0.000144422
0.000142581
0.000140846
0.000139212
0.000137677
0.000136234
0.000134881
0.000133613
0.000132424
0.00013131
0.000130268
0.000129291
0.000128376
0.000127518
0.000126714
0.000125959
0.000125249
0.00012458
0.000123946
0.000123339
0.000122757
0.000122202
0.000121674
0.00012117
0.00012069
0.00012023
0.000119791
0.000119371
0.000118968
0.000118582
0.000118211
0.000117855
0.000117512
0.000117183
0.000116866
0.000116561
0.000116268
0.000115985
0.000115712
0.00011545
0.000115196
0.000114951
0.000114715
0.000114485
0.000114263
0.000114048
0.000113838
0.000113634
0.000113435
0.00011324
0.000113049
0.000112861
0.000112676
0.000112494
0.000112315
0.000112137
0.00011196
0.000111784
0.000111608
0.000111433
0.000111256
0.000111079
0.0001109
0.000110718
0.000110533
0.000110342
0.000110146
0.000109942
0.000109727
0.000109499
0.000109253
0.000108984
0.000108684
0.000108343
0.000107945
0.000107469
0.000106881
0.00010613
0.000105128
0.000103735
0.000101667
9.8622e-05
1.43931e-05
7.0911e-05
0.000108194
0.000127502
0.000136582
0.000140406
0.000142141
0.000143736
0.000146219
0.000149957
0.000154924
0.000160914
0.000167675
0.000174973
0.000182599
0.00019037
0.000198115
0.00020567
0.000212873
0.000219568
0.000225614
0.00023089
0.000235309
0.000238819
0.000241413
0.00024313
0.000244048
0.000244279
0.000243957
0.000243231
0.000242248
0.000241148
0.000240056
0.000239075
0.000238287
0.000237749
0.000237497
0.000237758
0.000238675
0.000240259
0.000242501
0.000245389
0.000248913
0.000253061
0.000257815
0.000263138
0.00026897
0.000275218
0.000281752
0.00028841
0.000294996
0.000301296
0.000307088
0.000312158
0.000316315
0.000319404
0.000321309
0.000321963
0.000321348
0.000319474
0.000316484
0.000312657
0.000308122
0.000302984
0.000297348
0.000291326
0.000285026
0.00027855
0.000271996
0.000265452
0.000258995
0.000252691
0.000246595
0.00024075
0.000235186
0.000229923
0.000224967
0.000220319
0.000215967
0.000211897
0.000208086
0.000204509
0.000201142
0.000197959
0.000194935
0.000192048
0.000189281
0.000186618
0.000184048
0.000181565
0.000179163
0.000176841
0.0001746
0.00017244
0.000170364
0.000168374
0.000166471
0.000164658
0.000162934
0.0001613
0.000159754
0.000158295
0.000156922
0.00015563
0.000154416
0.000153278
0.000152212
0.000151213
0.000150277
0.000149402
0.000148582
0.000147815
0.000147096
0.000146423
0.000145791
0.000145198
0.000144639
0.00014411
0.000143604
0.000143121
0.00014266
0.000142219
0.000141797
0.000141393
0.000141005
0.000140632
0.000140274
0.000139928
0.000139596
0.000139275
0.000138966
0.000138668
0.00013838
0.000138102
0.000137833
0.000137575
0.000137324
0.000137083
0.000136849
0.000136623
0.000136404
0.000136192
0.000135986
0.000135786
0.000135591
0.000135401
0.000135216
0.000135034
0.000134856
0.000134681
0.000134508
0.000134338
0.00013417
0.000134003
0.000133838
0.000133673
0.000133508
0.000133344
0.000133179
0.000133013
0.000132845
0.000132675
0.000132502
0.000132325
0.000132143
0.000131954
0.000131756
0.000131547
0.000131323
0.000131081
0.000130813
0.000130511
0.000130164
0.000129755
0.000129259
0.000128638
0.000127833
0.000126748
0.000125218
0.00012308
1.43822e-05
7.11291e-05
0.000110868
0.000133053
0.000144862
0.000151101
0.000154872
0.000158132
0.000161974
0.000166843
0.000172769
0.000179561
0.000186949
0.000194652
0.000202411
0.000209989
0.000217172
0.000223766
0.000229599
0.000234522
0.000238419
0.00024121
0.000242858
0.000243373
0.00024281
0.000241272
0.000238898
0.000235856
0.000232335
0.000228531
0.000224635
0.000220825
0.000217259
0.000214069
0.000211359
0.000209205
0.000207651
0.000206908
0.000206934
0.000207679
0.000209109
0.000211226
0.00021406
0.000217664
0.000222097
0.000227406
0.000233601
0.000240644
0.000248437
0.000256817
0.000265565
0.000274411
0.000283057
0.000291199
0.000298554
0.000304869
0.000309949
0.000313646
0.000315879
0.0003166
0.000316048
0.000314398
0.00031175
0.000308208
0.000303885
0.000298903
0.000293385
0.000287453
0.000281229
0.000274825
0.00026835
0.000261899
0.000255558
0.000249399
0.000243483
0.000237856
0.00023255
0.000227585
0.000222969
0.000218697
0.000214757
0.000211129
0.000207786
0.000204699
0.000201837
0.000199169
0.000196666
0.000194302
0.000192056
0.00018991
0.00018785
0.000185869
0.000183959
0.000182118
0.000180346
0.000178644
0.000177012
0.000175453
0.000173968
0.000172557
0.000171222
0.000169961
0.000168774
0.000167658
0.000166612
0.000165632
0.000164717
0.000163861
0.000163063
0.000162318
0.000161623
0.000160974
0.000160369
0.000159804
0.000159276
0.000158782
0.000158318
0.000157883
0.000157471
0.000157077
0.000156702
0.000156343
0.000156
0.000155671
0.000155355
0.000155051
0.000154758
0.000154476
0.000154204
0.000153941
0.000153687
0.000153441
0.000153203
0.000152974
0.000152751
0.000152537
0.000152329
0.000152127
0.000151932
0.000151743
0.00015156
0.000151382
0.000151209
0.000151041
0.000150877
0.000150716
0.00015056
0.000150406
0.000150255
0.000150107
0.00014996
0.000149816
0.000149673
0.000149531
0.00014939
0.000149249
0.000149109
0.000148968
0.000148827
0.000148685
0.000148542
0.000148397
0.000148249
0.000148098
0.000147942
0.000147781
0.000147613
0.000147436
0.000147247
0.000147042
0.000146818
0.000146568
0.000146283
0.00014595
0.000145551
0.000145061
0.000144438
0.000143622
0.000142514
0.00014104
1.41456e-05
7.03326e-05
0.0001118
0.000136341
0.000150438
0.000158689
0.00016412
0.000168686
0.000173533
0.000179179
0.000185706
0.000192943
0.000200601
0.000208363
0.000215922
0.000223003
0.00022936
0.000234783
0.000239096
0.000242161
0.000243884
0.000244217
0.000243163
0.000240781
0.000237188
0.000232553
0.00022709
0.000221049
0.000214698
0.000208304
0.000202123
0.000196378
0.000191257
0.000186901
0.000183407
0.00018083
0.000179186
0.000178413
0.000178232
0.000178505
0.000179168
0.000180238
0.000181816
0.000184068
0.000187197
0.0001914
0.000196832
0.000203574
0.000211608
0.000220816
0.00023098
0.000241795
0.000252885
0.000263843
0.000274286
0.000283828
0.000292204
0.00029915
0.000304397
0.000308111
0.00031043
0.000311415
0.000311134
0.000309677
0.000307149
0.000303671
0.000299371
0.000294385
0.000288848
0.000282894
0.000276653
0.000270248
0.000263791
0.000257384
0.000251118
0.000245067
0.000239294
0.000233844
0.00022875
0.00022403
0.000219689
0.000215719
0.000212104
0.00020882
0.000205835
0.000203116
0.000200629
0.000198339
0.000196215
0.00019423
0.000192361
0.000190588
0.000188899
0.000187284
0.000185737
0.000184255
0.000182837
0.000181482
0.000180193
0.000178969
0.000177811
0.00017672
0.000175694
0.000174732
0.000173833
0.000172995
0.000172215
0.00017149
0.000170817
0.000170193
0.000169614
0.000169078
0.00016858
0.000168118
0.00016769
0.000167292
0.000166921
0.000166575
0.000166251
0.000165943
0.000165651
0.000165373
0.000165108
0.000164855
0.000164612
0.000164379
0.000164154
0.000163938
0.00016373
0.000163529
0.000163335
0.000163147
0.000162965
0.000162789
0.000162618
0.000162453
0.000162293
0.000162138
0.000161988
0.000161842
0.000161701
0.000161563
0.000161429
0.000161298
0.00016117
0.000161046
0.000160923
0.000160803
0.000160686
0.000160569
0.000160455
0.000160341
0.000160229
0.000160117
0.000160006
0.000159895
0.000159785
0.000159674
0.000159562
0.00015945
0.000159336
0.000159221
0.000159104
0.000158984
0.000158861
0.000158733
0.0001586
0.00015846
0.000158311
0.00015815
0.000157974
0.000157779
0.000157558
0.000157302
0.000156999
0.000156631
0.000156172
0.000155584
0.000154811
0.00015382
1.37931e-05
6.89268e-05
0.000111455
0.000137827
0.000153756
0.000163616
0.000170357
0.000175931
0.000181524
0.000187712
0.000194622
0.000202099
0.000209841
0.000217501
0.000224737
0.000231239
0.000236738
0.000241006
0.000243862
0.00024517
0.000244846
0.000242867
0.000239277
0.000234196
0.000227823
0.000220429
0.000212345
0.000203938
0.000195584
0.000187639
0.000180416
0.000174161
0.000169047
0.000165162
0.00016251
0.00016102
0.000160561
0.000160662
0.000160901
0.000161049
0.000160979
0.000160693
0.000160345
0.000160241
0.000160793
0.000162434
0.000165549
0.000170413
0.000177157
0.000185758
0.000196043
0.000207711
0.00022033
0.000233354
0.000246334
0.000258671
0.000270116
0.000279902
0.00028825
0.000295133
0.000300514
0.000304383
0.000306769
0.000307731
0.000307356
0.000305754
0.000303053
0.000299388
0.000294905
0.000289749
0.000284065
0.000277995
0.000271674
0.000265226
0.000258768
0.0002524
0.000246214
0.000240281
0.000234663
0.000229401
0.000224523
0.000220044
0.000215962
0.000212267
0.000208935
0.00020594
0.000203246
0.000200817
0.000198616
0.000196608
0.000194762
0.000193051
0.000191451
0.000189946
0.000188522
0.000187172
0.000185889
0.00018467
0.000183514
0.00018242
0.000181389
0.000180419
0.000179511
0.000178663
0.000177874
0.000177143
0.000176466
0.00017584
0.000175264
0.000174734
0.000174246
0.000173798
0.000173387
0.000173008
0.00017266
0.00017234
0.000172045
0.000171773
0.00017152
0.000171283
0.000171061
0.00017085
0.000170651
0.000170462
0.000170283
0.000170111
0.000169947
0.000169789
0.000169638
0.000169492
0.000169351
0.000169216
0.000169085
0.000168958
0.000168835
0.000168717
0.000168602
0.00016849
0.000168382
0.000168277
0.000168175
0.000168075
0.000167978
0.000167884
0.000167791
0.000167701
0.000167612
0.000167525
0.000167439
0.000167354
0.000167271
0.000167188
0.000167105
0.000167024
0.000166942
0.000166861
0.000166779
0.000166698
0.000166616
0.000166533
0.000166449
0.000166364
0.000166277
0.000166188
0.000166097
0.000166002
0.000165904
0.0001658
0.000165689
0.000165571
0.000165441
0.000165298
0.000165137
0.000164951
0.000164734
0.000164473
0.000164153
0.000163752
0.000163237
0.000162598
1.3359e-05
6.70623e-05
0.000110027
0.000137761
0.000155148
0.000166301
0.000174094
0.000180468
0.000186635
0.000193219
0.000200384
0.000207993
0.000215742
0.000223261
0.000230183
0.000236169
0.000240924
0.0002442
0.000245798
0.000245576
0.000243453
0.000239431
0.000233606
0.000226183
0.00021748
0.00020791
0.000197956
0.000188123
0.000178898
0.000170704
0.00016387
0.000158604
0.000154983
0.000152954
0.000152337
0.000152854
0.000154164
0.000155598
0.000156752
0.000157299
0.000156965
0.000155597
0.000153259
0.000150314
0.000147396
0.000145262
0.000144634
0.000146072
0.000149927
0.000156326
0.000165187
0.000176269
0.000189164
0.000203124
0.000217752
0.000232029
0.000245492
0.000257981
0.000269267
0.00027916
0.000287524
0.000294279
0.000299398
0.000302901
0.000304848
0.00030533
0.000304462
0.000302378
0.000299223
0.000295148
0.000290309
0.000284858
0.000278944
0.000272709
0.000266287
0.000259801
0.000253363
0.00024707
0.000241006
0.000235239
0.00022982
0.000224787
0.00022016
0.000215945
0.000212135
0.000208712
0.000205651
0.000202918
0.000200477
0.000198289
0.000196318
0.000194529
0.000192894
0.000191386
0.000189986
0.000188678
0.000187451
0.000186297
0.000185211
0.000184191
0.000183233
0.000182338
0.000181503
0.000180728
0.00018001
0.000179348
0.000178739
0.00017818
0.00017767
0.000177204
0.000176779
0.000176393
0.000176041
0.000175722
0.000175432
0.000175168
0.000174928
0.000174709
0.000174509
0.000174324
0.000174152
0.000173993
0.000173844
0.000173704
0.000173573
0.000173448
0.000173331
0.000173219
0.000173112
0.00017301
0.000172913
0.000172819
0.000172729
0.000172642
0.000172558
0.000172477
0.000172399
0.000172323
0.00017225
0.000172178
0.000172109
0.000172041
0.000171976
0.000171911
0.000171849
0.000171787
0.000171727
0.000171667
0.000171609
0.000171551
0.000171494
0.000171437
0.000171381
0.000171324
0.000171268
0.000171212
0.000171156
0.0001711
0.000171043
0.000170986
0.000170928
0.000170869
0.000170809
0.000170747
0.000170684
0.000170618
0.000170549
0.000170477
0.0001704
0.000170318
0.000170228
0.000170129
0.000170019
0.000169892
0.000169746
0.000169572
0.000169363
0.000169105
0.000168783
0.000168395
1.28227e-05
6.47276e-05
0.000107548
0.000136273
0.000154869
0.000167127
0.000175822
0.000182871
0.000189508
0.000196395
0.00020374
0.000211431
0.000219173
0.000226589
0.000233292
0.000238919
0.000243147
0.000245702
0.00024636
0.000244959
0.000241419
0.000235762
0.000228145
0.000218876
0.00020841
0.00019732
0.000186244
0.000175813
0.000166589
0.000159012
0.000153362
0.000149742
0.000148075
0.000148124
0.00014952
0.000151814
0.000154539
0.00015729
0.000159734
0.000161457
0.000161968
0.000160788
0.000157625
0.000152621
0.00014649
0.000140323
0.000135303
0.000132401
0.000132268
0.000135249
0.000141381
0.000150513
0.000162441
0.000176108
0.000190784
0.000205963
0.000221101
0.000235728
0.000249447
0.000261943
0.00027298
0.000282395
0.000290096
0.000296054
0.00030029
0.000302872
0.000303898
0.000303494
0.000301802
0.000298973
0.000295167
0.000290541
0.000285254
0.000279457
0.000273295
0.000266905
0.000260415
0.00025394
0.000247582
0.00024143
0.000235558
0.000230023
0.000224867
0.000220118
0.000215786
0.000211868
0.000208352
0.000205212
0.000202418
0.000199934
0.000197722
0.000195746
0.00019397
0.000192362
0.000190897
0.000189552
0.00018831
0.000187158
0.000186086
0.000185088
0.00018416
0.000183298
0.000182498
0.00018176
0.00018108
0.000180457
0.000179887
0.000179368
0.000178896
0.000178469
0.000178084
0.000177736
0.000177423
0.000177141
0.000176888
0.000176661
0.000176457
0.000176273
0.000176108
0.000175958
0.000175821
0.000175696
0.000175581
0.000175476
0.000175378
0.000175287