/*--------------------------------*- C++ -*----------------------------------*\
  =========                 |
  \\      /  F ield         | OpenFOAM: The Open Source CFD Toolbox
   \\    /   O peration     | Website:  https://openfoam.org
    \\  /    A nd           | Version:  9
     \\/     M anipulation  |
\*---------------------------------------------------------------------------*/
FoamFile
{
    format      ascii;
    class       surfaceScalarField;
    location    "0.01";
    object      phi;
}
// * * * * * * * * * * * * * * * * * * * * * * * * * * * * * * * * * * * * * //

dimensions      [0 3 -1 0 0 0 0];

internalField   nonuniform List<scalar> 
24170
(
3.07283e-06
1.15579e-07
2.93438e-06
1.38452e-07
2.80806e-06
1.26311e-07
2.69267e-06
1.15391e-07
2.58639e-06
1.06286e-07
2.49088e-06
9.55021e-08
2.40654e-06
8.43462e-08
2.33262e-06
7.39207e-08
2.26811e-06
6.4512e-08
2.21194e-06
5.61688e-08
2.16303e-06
4.89092e-08
2.1203e-06
4.27287e-08
2.0827e-06
3.75942e-08
2.04921e-06
3.34944e-08
2.01878e-06
3.04259e-08
1.99004e-06
2.87414e-08
1.96187e-06
2.81742e-08
3.47215e-08
1.92715e-06
3.47957e-06
5.32605e-08
3.51342e-06
1.046e-07
3.53354e-06
1.06187e-07
3.54046e-06
1.08471e-07
3.5371e-06
1.09648e-07
3.52609e-06
1.06513e-07
3.50956e-06
1.00873e-07
3.48917e-06
9.43105e-08
3.46624e-06
8.7448e-08
3.44179e-06
8.06188e-08
3.41659e-06
7.4104e-08
3.3912e-06
6.81263e-08
3.36595e-06
6.28419e-08
3.34104e-06
5.83996e-08
3.31653e-06
5.49335e-08
3.2924e-06
5.28801e-08
3.26824e-06
5.23308e-08
5.52119e-08
3.24775e-06
3.67517e-06
4.0603e-08
3.69211e-06
8.76683e-08
3.7076e-06
9.06921e-08
3.72279e-06
9.32806e-08
3.73658e-06
9.58566e-08
3.74805e-06
9.50477e-08
3.75707e-06
9.18465e-08
3.76377e-06
8.76136e-08
3.76829e-06
8.29264e-08
3.77084e-06
7.80679e-08
3.77166e-06
7.32928e-08
3.77095e-06
6.88299e-08
3.76893e-06
6.48616e-08
3.76577e-06
6.15654e-08
3.76159e-06
5.91109e-08
3.75662e-06
5.78449e-08
3.75112e-06
5.7835e-08
5.94079e-08
3.74692e-06
3.93173e-06
3.42567e-08
3.94312e-06
7.62806e-08
3.95073e-06
8.30864e-08
3.95836e-06
8.56474e-08
3.96612e-06
8.80994e-08
3.97339e-06
8.77801e-08
3.98011e-06
8.51261e-08
3.98629e-06
8.14336e-08
3.99186e-06
7.73533e-08
3.99677e-06
7.31561e-08
4.00101e-06
6.90587e-08
4.00457e-06
6.52695e-08
4.00746e-06
6.19647e-08
4.00972e-06
5.93121e-08
4.01136e-06
5.7464e-08
4.01255e-06
5.66593e-08
4.0135e-06
5.68844e-08
5.82968e-08
4.01461e-06
4.21264e-06
2.87409e-08
4.22224e-06
6.66824e-08
4.22835e-06
7.69725e-08
4.23396e-06
8.00445e-08
4.23965e-06
8.24057e-08
4.24498e-06
8.24526e-08
4.24988e-06
8.02209e-08
4.25443e-06
7.68876e-08
4.25861e-06
7.31735e-08
4.2624e-06
6.93683e-08
4.26578e-06
6.56732e-08
4.26876e-06
6.2288e-08
4.27134e-06
5.93876e-08
4.27352e-06
5.71297e-08
4.27534e-06
5.56469e-08
4.2769e-06
5.51011e-08
4.27832e-06
5.54677e-08
5.683e-08
4.27978e-06
4.51374e-06
2.40844e-08
4.52208e-06
5.83427e-08
4.52829e-06
7.07622e-08
4.53375e-06
7.45831e-08
4.53918e-06
7.69778e-08
4.54423e-06
7.74048e-08
4.54878e-06
7.56687e-08
4.55291e-06
7.27566e-08
4.55667e-06
6.94213e-08
4.56005e-06
6.5987e-08
4.56307e-06
6.26546e-08
4.56573e-06
5.96193e-08
4.56807e-06
5.70553e-08
4.57009e-06
5.51105e-08
4.57183e-06
5.39016e-08
4.57339e-06
5.35425e-08
4.57484e-06
5.40139e-08
5.53652e-08
4.57631e-06
4.83651e-06
2.02979e-08
4.84391e-06
5.09437e-08
4.85028e-06
6.43859e-08
4.85582e-06
6.90399e-08
4.86124e-06
7.15607e-08
4.86634e-06
7.23065e-08
4.87096e-06
7.10503e-08
4.87514e-06
6.85737e-08
4.87894e-06
6.56204e-08
4.88238e-06
6.25506e-08
4.88546e-06
5.95696e-08
4.88822e-06
5.68655e-08
4.89067e-06
5.46066e-08
4.89285e-06
5.29311e-08
4.89481e-06
5.19421e-08
4.89662e-06
5.17245e-08
4.89837e-06
5.22722e-08
5.36683e-08
4.90006e-06
5.18268e-06
1.72031e-08
5.18927e-06
4.43478e-08
5.1956e-06
5.80533e-08
5.20119e-06
6.3456e-08
5.20661e-06
6.6135e-08
5.21182e-06
6.7105e-08
5.2166e-06
6.62621e-08
5.22097e-06
6.42031e-08
5.22497e-06
6.1621e-08
5.22862e-06
5.89006e-08
5.23194e-06
5.62532e-08
5.23495e-06
5.38569e-08
5.23768e-06
5.18708e-08
5.24019e-06
5.04222e-08
5.24253e-06
4.96026e-08
5.24478e-06
4.94808e-08
5.24699e-06
5.00594e-08
5.14412e-08
5.24922e-06
5.55391e-06
1.46338e-08
5.55976e-06
3.84919e-08
5.56591e-06
5.19096e-08
5.57151e-06
5.78492e-08
5.57696e-06
6.0685e-08
5.58226e-06
6.18068e-08
5.58722e-06
6.13034e-08
5.59179e-06
5.96294e-08
5.59602e-06
5.7397e-08
5.59992e-06
5.49991e-08
5.60352e-06
5.2654e-08
5.60685e-06
5.05299e-08
5.60994e-06
4.87738e-08
5.61286e-06
4.75018e-08
5.61567e-06
4.67946e-08
5.61844e-06
4.67098e-08
5.62125e-06
4.72503e-08
4.85278e-08
5.62416e-06
5.95194e-06
1.24722e-08
5.95713e-06
3.33021e-08
5.96301e-06
4.6027e-08
5.96862e-06
5.22409e-08
5.9741e-06
5.52074e-08
5.97947e-06
5.6432e-08
5.98458e-06
5.61931e-08
5.98936e-06
5.48553e-08
5.99381e-06
5.29391e-08
5.99798e-06
5.08275e-08
6.00189e-06
4.87439e-08
6.00558e-06
4.68474e-08
6.00908e-06
4.52709e-08
6.01246e-06
4.41184e-08
6.0158e-06
4.34597e-08
6.01917e-06
4.33422e-08
6.02265e-06
4.37621e-08
4.48269e-08
6.02635e-06
6.37865e-06
1.06302e-08
6.38326e-06
2.86918e-08
6.38885e-06
4.04407e-08
6.39443e-06
4.66658e-08
6.39993e-06
4.97062e-08
6.40537e-06
5.09906e-08
6.41062e-06
5.0941e-08
6.4156e-06
4.9878e-08
6.4203e-06
4.82347e-08
6.42476e-06
4.63678e-08
6.42901e-06
4.44998e-08
6.43307e-06
4.27805e-08
6.43702e-06
4.13285e-08
6.4409e-06
4.02343e-08
6.4448e-06
3.95563e-08
6.44881e-06
3.93313e-08
6.45303e-06
3.95454e-08
4.02957e-08
6.45756e-06
5.74221e-06
9.25942e-09
5.74571e-06
2.51825e-08
5.75019e-06
3.59608e-08
5.75486e-06
4.20048e-08
5.75952e-06
4.5041e-08
5.76417e-06
4.63419e-08
5.76871e-06
4.63967e-08
5.77308e-06
4.55124e-08
5.77725e-06
4.406e-08
5.78126e-06
4.23644e-08
5.78512e-06
4.06401e-08
5.78887e-06
3.90288e-08
5.79256e-06
3.7637e-08
5.79625e-06
3.65436e-08
5.80001e-06
3.57971e-08
5.80392e-06
3.54254e-08
5.80806e-06
3.54056e-08
3.58249e-08
5.81253e-06
6.99955e-06
7.85986e-09
7.00321e-06
2.15255e-08
7.00807e-06
3.11037e-08
7.01331e-06
3.67607e-08
7.01866e-06
3.96921e-08
7.02404e-06
4.0959e-08
7.02937e-06
4.10735e-08
7.03455e-06
4.0333e-08
7.03956e-06
3.90485e-08
7.04442e-06
3.75035e-08
7.04916e-06
3.58973e-08
7.05383e-06
3.43606e-08
7.05848e-06
3.29863e-08
7.06319e-06
3.18399e-08
7.06802e-06
3.09588e-08
7.07309e-06
3.03611e-08
7.07848e-06
3.00158e-08
2.99987e-08
7.0843e-06
8.53226e-06
6.44371e-09
8.53603e-06
1.776e-08
8.54122e-06
2.59101e-08
8.54705e-06
3.09376e-08
8.55312e-06
3.36172e-08
8.55931e-06
3.47686e-08
8.56551e-06
3.48742e-08
8.57163e-06
3.42169e-08
8.57762e-06
3.30525e-08
8.58351e-06
3.16161e-08
8.58932e-06
3.00829e-08
8.59512e-06
2.85685e-08
8.60095e-06
2.71508e-08
8.60691e-06
2.5881e-08
8.61308e-06
2.47847e-08
8.61957e-06
2.38711e-08
8.62649e-06
2.31032e-08
2.25469e-08
8.63394e-06
1.04006e-05
5.01779e-09
1.04045e-05
1.39037e-08
1.041e-05
2.04093e-08
1.04164e-05
2.4544e-08
1.04232e-05
2.67788e-08
1.04303e-05
2.76938e-08
1.04375e-05
2.76942e-08
1.04447e-05
2.7032e-08
1.04518e-05
2.59125e-08
1.04589e-05
2.45191e-08
1.0466e-05
2.29942e-08
1.04731e-05
2.14336e-08
1.04804e-05
1.98988e-08
1.04878e-05
1.84267e-08
1.04956e-05
1.70327e-08
1.05037e-05
1.5719e-08
1.05124e-05
1.44482e-08
1.32785e-08
1.05217e-05
1.26782e-05
3.57561e-09
1.26822e-05
9.93715e-09
1.2688e-05
1.4594e-08
1.2695e-05
1.75688e-08
1.27026e-05
1.91309e-08
1.27107e-05
1.9649e-08
1.2719e-05
1.94194e-08
1.27273e-05
1.86422e-08
1.27358e-05
1.7471e-08
1.27443e-05
1.60376e-08
1.27528e-05
1.44459e-08
1.27615e-05
1.27671e-08
1.27703e-05
1.10456e-08
1.27795e-05
9.3057e-09
1.27889e-05
7.55518e-09
1.27989e-05
5.79284e-09
1.28093e-05
3.98781e-09
2.19079e-09
1.28204e-05
1.54547e-05
2.09032e-09
1.54588e-05
5.78486e-09
1.5465e-05
8.38121e-09
1.54727e-05
9.93471e-09
1.54812e-05
1.05841e-08
1.54903e-05
1.05231e-08
1.54998e-05
9.92507e-09
1.55096e-05
8.91766e-09
1.55194e-05
7.5987e-09
1.55294e-05
6.04882e-09
1.55395e-05
4.33128e-09
1.55498e-05
2.49005e-09
1.55603e-05
5.51989e-10
1.55711e-05
-1.46876e-09
1.55822e-05
-3.56848e-09
1.55937e-05
-5.74724e-09
1.56058e-05
-8.02554e-09
-1.03561e-08
1.56183e-05
1.88392e-05
5.01089e-10
1.88437e-05
1.27105e-09
1.88506e-05
1.54651e-09
1.88591e-05
1.4206e-09
1.88687e-05
9.36266e-10
1.88791e-05
1.31707e-10
1.889e-05
-9.48068e-10
1.89012e-05
-2.2632e-09
1.89126e-05
-3.77786e-09
1.89241e-05
-5.46311e-09
1.89357e-05
-7.29697e-09
1.89475e-05
-9.26375e-09
1.89594e-05
-1.13534e-08
1.89714e-05
-1.35602e-08
1.89838e-05
-1.58822e-08
1.89963e-05
-1.83169e-08
1.90092e-05
-2.0872e-08
-2.3509e-08
1.90223e-05
2.29652e-05
-1.33706e-09
2.29704e-05
-4.00289e-09
2.29784e-05
-6.42765e-09
2.29883e-05
-8.48603e-09
2.29995e-05
-1.0251e-08
2.30115e-05
-1.18669e-08
2.3024e-05
-1.34405e-08
2.30368e-05
-1.50234e-08
2.30496e-05
-1.66461e-08
2.30625e-05
-1.83372e-08
2.30753e-05
-2.01209e-08
2.30881e-05
-2.20116e-08
2.31007e-05
-2.40162e-08
2.31133e-05
-2.61371e-08
2.31258e-05
-2.83743e-08
2.31382e-05
-3.0724e-08
2.31505e-05
-3.31839e-08
-3.57266e-08
2.31628e-05
1.68122e-05
-2.82486e-09
1.68164e-05
-8.18965e-09
1.68226e-05
-1.26279e-08
1.68301e-05
-1.599e-08
1.68383e-05
-1.85151e-08
1.6847e-05
-2.05543e-08
1.68559e-05
-2.23328e-08
1.68649e-05
-2.3952e-08
1.68737e-05
-2.54827e-08
1.68824e-05
-2.69962e-08
1.68908e-05
-2.85495e-08
1.68989e-05
-3.01772e-08
1.69068e-05
-3.18979e-08
1.69144e-05
-3.37217e-08
1.69217e-05
-3.56517e-08
1.69286e-05
-3.76845e-08
1.69353e-05
-3.98123e-08
-4.20144e-08
1.69416e-05
1.46361e-05
-4.35232e-09
1.46403e-05
-1.2422e-08
1.46464e-05
-1.87037e-08
1.46535e-05
-2.30652e-08
1.4661e-05
-2.60559e-08
1.46688e-05
-2.82964e-08
1.46765e-05
-3.00967e-08
1.46842e-05
-3.15837e-08
1.46915e-05
-3.28743e-08
1.46986e-05
-3.40861e-08
1.47054e-05
-3.52997e-08
1.47118e-05
-3.65593e-08
1.47178e-05
-3.78911e-08
1.47234e-05
-3.93115e-08
1.47285e-05
-4.08283e-08
1.47333e-05
-4.24415e-08
1.47376e-05
-4.41459e-08
-4.59291e-08
1.47415e-05
1.27418e-05
-6.02783e-09
1.27464e-05
-1.69798e-08
1.27526e-05
-2.49308e-08
1.27594e-05
-2.98962e-08
1.27664e-05
-3.30628e-08
1.27735e-05
-3.53557e-08
1.27804e-05
-3.70506e-08
1.27871e-05
-3.82635e-08
1.27934e-05
-3.91833e-08
1.27993e-05
-3.99862e-08
1.28048e-05
-4.07713e-08
1.28098e-05
-4.15869e-08
1.28144e-05
-4.2464e-08
1.28185e-05
-4.34239e-08
1.28222e-05
-4.44763e-08
1.28253e-05
-4.562e-08
1.2828e-05
-4.68427e-08
-4.81259e-08
1.28302e-05
1.10928e-05
-7.94572e-09
1.1098e-05
-2.20998e-08
1.11045e-05
-3.15108e-08
1.11112e-05
-3.65609e-08
1.11177e-05
-3.95934e-08
1.11242e-05
-4.18164e-08
1.11305e-05
-4.33185e-08
1.11364e-05
-4.41852e-08
1.11419e-05
-4.46887e-08
1.1147e-05
-4.50491e-08
1.11516e-05
-4.53705e-08
1.11557e-05
-4.5706e-08
1.11593e-05
-4.60962e-08
1.11625e-05
-4.65692e-08
1.11651e-05
-4.71385e-08
1.11673e-05
-4.78063e-08
1.1169e-05
-4.85716e-08
-4.94372e-08
1.11703e-05
9.65752e-06
-1.0256e-08
9.66335e-06
-2.7925e-08
9.67026e-06
-3.84249e-08
9.67682e-06
-4.31161e-08
9.68306e-06
-4.58335e-08
9.68906e-06
-4.782e-08
9.69468e-06
-4.89393e-08
9.69984e-06
-4.93432e-08
9.70455e-06
-4.93975e-08
9.70882e-06
-4.93193e-08
9.71264e-06
-4.91906e-08
9.716e-06
-4.90632e-08
9.71889e-06
-4.8986e-08
9.72131e-06
-4.89931e-08
9.72327e-06
-4.91006e-08
9.72478e-06
-4.93101e-08
9.72581e-06
-4.96057e-08
-4.99526e-08
9.72633e-06
8.40833e-06
-1.3232e-08
8.41519e-06
-3.47882e-08
8.42195e-06
-4.51797e-08
8.42808e-06
-4.92536e-08
8.43414e-06
-5.18874e-08
8.43996e-06
-5.36471e-08
8.44527e-06
-5.42399e-08
8.44999e-06
-5.40691e-08
8.4542e-06
-5.36088e-08
8.45793e-06
-5.30499e-08
8.46119e-06
-5.24498e-08
8.46399e-06
-5.1859e-08
8.46633e-06
-5.13288e-08
8.46823e-06
-5.0893e-08
8.4697e-06
-5.05685e-08
8.47075e-06
-5.0358e-08
8.47141e-06
-5.02699e-08
-5.03154e-08
8.47177e-06
7.32081e-06
-1.67554e-08
7.32981e-06
-4.37881e-08
7.33614e-06
-5.15136e-08
7.34131e-06
-5.44226e-08
7.34666e-06
-5.72357e-08
7.3519e-06
-5.88916e-08
7.35673e-06
-5.90695e-08
7.36114e-06
-5.84765e-08
7.36515e-06
-5.76183e-08
7.36875e-06
-5.66459e-08
7.37192e-06
-5.56192e-08
7.37466e-06
-5.46038e-08
7.37699e-06
-5.3656e-08
7.37891e-06
-5.28113e-08
7.38043e-06
-5.20899e-08
7.38157e-06
-5.14974e-08
7.38232e-06
-5.10214e-08
-5.05752e-08
7.38258e-06
6.3728e-06
-1.94939e-08
6.38454e-06
-5.55197e-08
6.39204e-06
-5.90175e-08
6.39801e-06
-6.03887e-08
6.40405e-06
-6.32802e-08
6.40975e-06
-6.45933e-08
6.41502e-06
-6.43353e-08
6.41999e-06
-6.34533e-08
6.42471e-06
-6.2333e-08
6.42911e-06
-6.1045e-08
6.43315e-06
-5.96568e-08
6.4368e-06
-5.82549e-08
6.44005e-06
-5.69055e-08
6.44289e-06
-5.56523e-08
6.44532e-06
-5.45252e-08
6.44738e-06
-5.3551e-08
6.44909e-06
-5.27362e-08
-5.20757e-08
6.45059e-06
5.5498e-06
-2.3831e-08
5.56298e-06
-6.86954e-08
5.57552e-06
-7.1563e-08
5.58807e-06
-7.29315e-08
5.60071e-06
-7.59222e-08
5.61239e-06
-7.62785e-08
5.62284e-06
-7.47871e-08
5.63214e-06
-7.275e-08
5.64033e-06
-7.05209e-08
5.64743e-06
-6.81453e-08
5.65348e-06
-6.57054e-08
5.65852e-06
-6.33011e-08
5.66262e-06
-6.10039e-08
5.66583e-06
-5.88618e-08
5.66821e-06
-5.69067e-08
5.66986e-06
-5.51979e-08
5.67086e-06
-5.37352e-08
-5.27135e-08
5.6715e-06
4.87904e-06
-7.52609e-08
4.91073e-06
-1.00391e-07
4.93649e-06
-9.73184e-08
4.95459e-06
-9.10384e-08
4.96624e-06
-8.75716e-08
4.97245e-06
-8.24873e-08
4.97409e-06
-7.64286e-08
4.97192e-06
-7.05751e-08
4.96661e-06
-6.52066e-08
4.95875e-06
-6.02935e-08
4.94887e-06
-5.58227e-08
4.93737e-06
-5.17983e-08
4.92458e-06
-4.82111e-08
4.91076e-06
-4.50429e-08
4.89612e-06
-4.22736e-08
4.88085e-06
-3.99242e-08
4.86511e-06
-3.80004e-08
-3.69128e-08
4.84931e-06
4.12742e-06
4.02702e-06
3.92971e-06
3.83867e-06
3.7511e-06
3.66861e-06
3.59218e-06
3.52161e-06
3.4564e-06
3.3961e-06
3.34028e-06
3.28848e-06
3.24027e-06
3.19523e-06
3.15296e-06
3.11303e-06
3.07503e-06
3.03812e-06
7.12657e-08
-7.12657e-08
1.20991e-07
-4.97257e-08
1.53046e-07
-3.20543e-08
1.7368e-07
-2.06345e-08
1.8428e-07
-1.05993e-08
1.86266e-07
-1.98667e-09
1.79928e-07
6.33849e-09
1.60576e-07
1.93518e-08
1.24495e-07
3.60805e-08
6.8622e-08
5.58735e-08
-9.32154e-09
7.79436e-08
-1.11309e-07
1.01988e-07
-2.40048e-07
1.28739e-07
-3.95488e-07
1.55439e-07
-5.79196e-07
1.83708e-07
-7.93091e-07
2.13895e-07
-1.03637e-06
2.4328e-07
-1.30801e-06
2.71638e-07
-1.60641e-06
2.984e-07
-1.92924e-06
3.22833e-07
-2.27341e-06
3.44169e-07
-2.63508e-06
3.61672e-07
-3.00977e-06
3.74689e-07
-3.39245e-06
3.8268e-07
-3.77768e-06
3.85226e-07
-4.15972e-06
3.82043e-07
-4.53273e-06
3.73009e-07
-4.89086e-06
3.5813e-07
-5.22839e-06
3.37527e-07
-5.53982e-06
3.11429e-07
-5.81998e-06
2.80164e-07
-6.06413e-06
2.44149e-07
-6.26803e-06
2.03905e-07
-6.42809e-06
1.60052e-07
-6.54155e-06
1.13463e-07
-6.60707e-06
6.55221e-08
-6.62433e-06
1.72617e-08
-6.59903e-06
-2.53003e-08
-6.53339e-06
-6.56411e-08
-6.42983e-06
-1.0356e-07
-6.29032e-06
-1.39509e-07
-6.11684e-06
-1.73483e-07
-5.91156e-06
-2.05283e-07
-5.67691e-06
-2.34647e-07
-5.41559e-06
-2.61318e-07
-5.13051e-06
-2.85077e-07
-4.82476e-06
-3.05754e-07
-4.50152e-06
-3.23237e-07
-4.16405e-06
-3.37473e-07
-3.81558e-06
-3.48468e-07
-3.45929e-06
-3.5629e-07
-3.09824e-06
-3.61057e-07
-2.7353e-06
-3.62935e-07
-2.37317e-06
-3.62132e-07
-2.01428e-06
-3.58886e-07
-1.66083e-06
-3.53455e-07
-1.31474e-06
-3.46086e-07
-9.77679e-07
-3.37064e-07
-6.50981e-07
-3.26698e-07
-3.35665e-07
-3.15316e-07
-3.20235e-08
-3.03641e-07
2.59503e-07
-2.91527e-07
5.38395e-07
-2.78892e-07
8.04351e-07
-2.65955e-07
1.05725e-06
-2.529e-07
1.29711e-06
-2.39861e-07
1.52406e-06
-2.26945e-07
1.73829e-06
-2.14237e-07
1.9401e-06
-2.01802e-07
2.12979e-06
-1.89692e-07
2.30773e-06
-1.77945e-07
2.47432e-06
-1.66591e-07
2.62998e-06
-1.55652e-07
2.77512e-06
-1.4514e-07
2.91018e-06
-1.35066e-07
3.03562e-06
-1.25434e-07
3.15186e-06
-1.16244e-07
3.25936e-06
-1.07497e-07
3.35854e-06
-9.91864e-08
3.44985e-06
-9.13086e-08
3.53371e-06
-8.38561e-08
3.61053e-06
-7.68206e-08
3.68072e-06
-7.0193e-08
3.74468e-06
-6.3963e-08
3.8028e-06
-5.81196e-08
3.85546e-06
-5.26511e-08
3.903e-06
-4.75452e-08
3.94579e-06
-4.27889e-08
3.98416e-06
-3.83686e-08
4.01843e-06
-3.42705e-08
4.04891e-06
-3.04801e-08
4.07589e-06
-2.69827e-08
4.09965e-06
-2.37635e-08
4.12046e-06
-2.08077e-08
4.13856e-06
-1.81002e-08
4.15419e-06
-1.56261e-08
4.16756e-06
-1.33707e-08
4.17888e-06
-1.13191e-08
4.18834e-06
-9.45699e-09
4.19611e-06
-7.77013e-09
4.20235e-06
-6.2447e-09
4.20722e-06
-4.86678e-09
4.21084e-06
-3.62255e-09
4.21334e-06
-2.49532e-09
4.2148e-06
-1.46237e-09
4.21527e-06
-4.73342e-10
4.21474e-06
5.28835e-10
4.21317e-06
1.57044e-09
4.21061e-06
2.56228e-09
4.20712e-06
3.49003e-09
4.20276e-06
4.35546e-09
4.19761e-06
5.15817e-09
4.19172e-06
5.88604e-09
4.18524e-06
6.48223e-09
4.17823e-06
7.0063e-09
4.17081e-06
7.42076e-09
4.16309e-06
7.72202e-09
4.15518e-06
7.90869e-09
4.14719e-06
7.99456e-09
4.13918e-06
8.00302e-09
4.13123e-06
7.95634e-09
4.12335e-06
7.87699e-09
4.11556e-06
7.7839e-09
4.10787e-06
7.69089e-09
4.10027e-06
7.60629e-09
4.09273e-06
7.53416e-09
4.08526e-06
7.4756e-09
4.07783e-06
7.42947e-09
4.07043e-06
7.39408e-09
4.06307e-06
7.36758e-09
4.05572e-06
7.34819e-09
4.04838e-06
7.33484e-09
4.04106e-06
7.32647e-09
4.03373e-06
7.32264e-09
4.02641e-06
7.32296e-09
4.01908e-06
7.3272e-09
4.01175e-06
7.33506e-09
4.0044e-06
7.34666e-09
3.99704e-06
7.36169e-09
3.98966e-06
7.38011e-09
3.98226e-06
7.4019e-09
3.97483e-06
7.42697e-09
3.96738e-06
7.45536e-09
3.95989e-06
7.48698e-09
3.95237e-06
7.5219e-09
3.94481e-06
7.56015e-09
3.93721e-06
7.60192e-09
3.92956e-06
7.64742e-09
3.92186e-06
7.69703e-09
3.91411e-06
7.75111e-09
3.9063e-06
7.81018e-09
3.89843e-06
7.87508e-09
3.89048e-06
7.94679e-09
3.88245e-06
8.02646e-09
3.87434e-06
8.11581e-09
3.86612e-06
8.21689e-09
3.85779e-06
8.33247e-09
3.84932e-06
8.46592e-09
3.8407e-06
8.62172e-09
3.83189e-06
8.80558e-09
3.82287e-06
9.025e-09
3.81358e-06
9.28956e-09
3.80397e-06
9.612e-09
3.79396e-06
1.00089e-08
3.78346e-06
1.05025e-08
3.77233e-06
1.11227e-08
3.76042e-06
1.19097e-08
3.7475e-06
1.29196e-08
3.73327e-06
1.42305e-08
3.71732e-06
1.59542e-08
3.69906e-06
1.82546e-08
3.67769e-06
2.13781e-08
3.65198e-06
2.57079e-08
3.62012e-06
3.18588e-08
3.57924e-06
4.08795e-08
3.52478e-06
5.44607e-08
3.44839e-06
7.63903e-08
3.33869e-06
1.09696e-07
3.16011e-06
1.78586e-07
2.46586e-07
2.91352e-06
-6.75101e-08
-3.75559e-09
-1.46266e-07
2.90303e-08
-2.33913e-07
5.55927e-08
-3.32761e-07
7.82137e-08
-4.44045e-07
1.00685e-07
-5.71176e-07
1.25144e-07
-7.17717e-07
1.52879e-07
-8.83064e-07
1.84699e-07
-1.06723e-06
2.20246e-07
-1.27046e-06
2.591e-07
-1.49327e-06
3.0076e-07
-1.73563e-06
3.44348e-07
-1.99555e-06
3.88655e-07
-2.27247e-06
4.32366e-07
-2.56374e-06
4.74978e-07
-2.86606e-06
5.1621e-07
-3.1773e-06
5.54523e-07
-3.49437e-06
5.88709e-07
-3.81367e-06
6.17696e-07
-4.13137e-06
6.40535e-07
-4.44365e-06
6.56445e-07
-4.74681e-06
6.64838e-07
-5.03747e-06
6.65341e-07
-5.31258e-06
6.57795e-07
-5.56959e-06
6.42236e-07
-5.80642e-06
6.18874e-07
-6.02147e-06
5.88056e-07
-6.21358e-06
5.50244e-07
-6.38203e-06
5.05974e-07
-6.52642e-06
4.55822e-07
-6.64666e-06
4.00404e-07
-6.74289e-06
3.40372e-07
-6.81541e-06
2.76426e-07
-6.86465e-06
2.09296e-07
-6.89095e-06
1.3976e-07
-6.8942e-06
6.87732e-08
-6.87291e-06
-4.02669e-09
-6.82077e-06
-7.74408e-08
-6.73497e-06
-1.51441e-07
-6.61416e-06
-2.24371e-07
-6.45866e-06
-2.95005e-07
-6.26978e-06
-3.62362e-07
-6.04946e-06
-4.25608e-07
-5.80008e-06
-4.84029e-07
-5.52436e-06
-5.37033e-07
-5.22529e-06
-5.84154e-07
-4.90599e-06
-6.25046e-07
-4.56974e-06
-6.59492e-07
-4.21981e-06
-6.87397e-07
-3.85949e-06
-7.08788e-07
-3.49197e-06
-7.23815e-07
-3.12029e-06
-7.32736e-07
-2.74731e-06
-7.35918e-07
-2.37563e-06
-7.33807e-07
-2.0076e-06
-7.26918e-07
-1.64526e-06
-7.15793e-07
-1.29036e-06
-7.0099e-07
-9.44335e-07
-6.83084e-07
-6.08391e-07
-6.62642e-07
-2.83349e-07
-6.40358e-07
2.96818e-08
-6.16672e-07
3.30179e-07
-5.92024e-07
6.17961e-07
-5.66674e-07
8.9296e-07
-5.40955e-07
1.1552e-06
-5.15137e-07
1.40479e-06
-4.8945e-07
1.64192e-06
-4.64084e-07
1.86688e-06
-4.39194e-07
2.07998e-06
-4.14899e-07
2.28158e-06
-3.91294e-07
2.47208e-06
-3.68445e-07
2.65189e-06
-3.46404e-07
2.82145e-06
-3.25203e-07
2.98117e-06
-3.04861e-07
3.13149e-06
-2.85388e-07
3.27284e-06
-2.66783e-07
3.40563e-06
-2.49041e-07
3.53029e-06
-2.32151e-07
3.6472e-06
-2.16097e-07
3.75675e-06
-2.00861e-07
3.85932e-06
-1.86423e-07
3.95526e-06
-1.7276e-07
4.04492e-06
-1.5985e-07
4.12862e-06
-1.47669e-07
4.20669e-06
-1.3619e-07
4.27943e-06
-1.25391e-07
4.34713e-06
-1.15244e-07
4.41006e-06
-1.05724e-07
4.4685e-06
-9.68054e-08
4.52269e-06
-8.8462e-08
4.57288e-06
-8.06679e-08
4.6193e-06
-7.33974e-08
4.66216e-06
-6.66249e-08
4.70167e-06
-6.0325e-08
4.73805e-06
-5.44728e-08
4.77146e-06
-4.90438e-08
4.80211e-06
-4.40136e-08
4.83015e-06
-3.93586e-08
4.85575e-06
-3.50553e-08
4.87906e-06
-3.10813e-08
4.90023e-06
-2.74139e-08
4.91939e-06
-2.40316e-08
4.93668e-06
-2.09122e-08
4.95222e-06
-1.80335e-08
4.96613e-06
-1.53731e-08
4.97858e-06
-1.29201e-08
4.98977e-06
-1.06689e-08
4.99993e-06
-8.58306e-09
5.00913e-06
-6.64337e-09
5.01746e-06
-4.84223e-09
5.02499e-06
-3.17319e-09
5.03177e-06
-1.62057e-09
5.03777e-06
-1.09046e-10
5.04309e-06
1.15643e-09
5.04771e-06
2.38739e-09
5.05165e-06
3.4804e-09
5.0549e-06
4.47896e-09
5.05746e-06
5.3488e-09
5.05934e-06
6.11147e-09
5.06056e-06
6.78037e-09
5.06115e-06
7.36774e-09
5.06114e-06
7.8885e-09
5.06057e-06
8.35661e-09
5.05947e-06
8.78385e-09
5.0579e-06
9.17978e-09
5.05588e-06
9.55149e-09
5.05345e-06
9.90388e-09
5.05064e-06
1.02402e-08
5.04747e-06
1.05626e-08
5.04397e-06
1.0872e-08
5.04015e-06
1.11693e-08
5.03603e-06
1.14549e-08
5.03163e-06
1.17291e-08
5.02696e-06
1.19925e-08
5.02203e-06
1.22455e-08
5.01687e-06
1.24883e-08
5.01149e-06
1.27219e-08
5.00589e-06
1.29465e-08
5.00008e-06
1.3163e-08
4.99409e-06
1.33719e-08
4.98792e-06
1.3574e-08
4.98158e-06
1.37699e-08
4.97507e-06
1.39604e-08
4.96841e-06
1.41462e-08
4.96161e-06
1.43281e-08
4.95466e-06
1.45067e-08
4.94758e-06
1.4683e-08
4.94037e-06
1.48576e-08
4.93303e-06
1.50317e-08
4.92558e-06
1.52063e-08
4.91801e-06
1.53825e-08
4.91032e-06
1.5562e-08
4.90252e-06
1.57461e-08
4.89461e-06
1.59372e-08
4.88659e-06
1.61377e-08
4.87845e-06
1.63508e-08
4.87021e-06
1.65802e-08
4.86184e-06
1.68309e-08
4.85335e-06
1.71089e-08
4.84474e-06
1.74222e-08
4.83598e-06
1.77808e-08
4.82707e-06
1.81976e-08
4.818e-06
1.86897e-08
4.80873e-06
1.9279e-08
4.79923e-06
1.99947e-08
4.78948e-06
2.08761e-08
4.77941e-06
2.19758e-08
4.76897e-06
2.33662e-08
4.75805e-06
2.51477e-08
4.74654e-06
2.74629e-08
4.73428e-06
3.05183e-08
4.72104e-06
3.46203e-08
4.7065e-06
4.02439e-08
4.69024e-06
4.81227e-08
4.67156e-06
5.9555e-08
4.6496e-06
7.64244e-08
4.62239e-06
1.03596e-07
4.58754e-06
1.44547e-07
4.53771e-06
2.28422e-07
3.35236e-07
4.44906e-06
-1.57967e-07
1.54211e-07
-3.31341e-07
2.02405e-07
-5.08719e-07
2.3297e-07
-6.93734e-07
2.63228e-07
-8.8882e-07
2.95772e-07
-1.09499e-06
3.31313e-07
-1.31197e-06
3.69858e-07
-1.53834e-06
4.11075e-07
-1.77255e-06
4.54451e-07
-2.01296e-06
4.99508e-07
-2.25785e-06
5.45654e-07
-2.50557e-06
5.92071e-07
-2.75472e-06
6.378e-07
-3.00433e-06
6.81972e-07
-3.2531e-06
7.2375e-07
-3.49918e-06
7.62297e-07
-3.74132e-06
7.96659e-07
-3.9786e-06
8.25987e-07
-4.21046e-06
8.49561e-07
-4.43674e-06
8.66809e-07
-4.6576e-06
8.77307e-07
-4.8735e-06
8.80744e-07
-5.08505e-06
8.76888e-07
-5.2928e-06
8.65542e-07
-5.49707e-06
8.46503e-07
-5.69773e-06
8.19538e-07
-5.89405e-06
7.84381e-07
-6.08456e-06
7.40751e-07
-6.26698e-06
6.88394e-07
-6.4383e-06
6.27139e-07
-6.59486e-06
5.56962e-07
-6.73254e-06
4.78052e-07
-6.84697e-06
3.90859e-07
-6.93382e-06
2.96149e-07
-6.98907e-06
1.9501e-07
-7.00906e-06
8.87655e-08
-6.99203e-06
-2.10649e-08
-6.93662e-06
-1.32849e-07
-6.84331e-06
-2.44754e-07
-6.71275e-06
-3.5493e-07
-6.54611e-06
-4.6164e-07
-6.34515e-06
-5.6332e-07
-6.11214e-06
-6.58621e-07
-5.84975e-06
-7.46413e-07
-5.561e-06
-8.2579e-07
-5.2491e-06
-8.96056e-07
-4.91742e-06
-9.56719e-07
-4.56944e-06
-1.00748e-06
-4.20862e-06
-1.04821e-06
-3.83841e-06
-1.079e-06
-3.46211e-06
-1.10011e-06
-3.08288e-06
-1.11197e-06
-2.70362e-06
-1.11518e-06
-2.32694e-06
-1.11049e-06
-1.95514e-06
-1.09871e-06
-1.59019e-06
-1.08075e-06
-1.23368e-06
-1.0575e-06
-8.8692e-07
-1.02984e-06
-5.50912e-07
-9.9865e-07
-2.26549e-07
-9.64721e-07
8.54614e-08
-9.28683e-07
3.84598e-07
-8.9116e-07
6.70737e-07
-8.52813e-07
9.43865e-07
-8.14083e-07
1.20407e-06
-7.75345e-07
1.45154e-06
-7.36921e-07
1.68654e-06
-6.99077e-07
1.90937e-06
-6.62027e-07
2.12041e-06
-6.25937e-07
2.32005e-06
-5.90934e-07
2.50871e-06
-5.57112e-07
2.68684e-06
-5.24534e-07
2.85488e-06
-4.93241e-07
3.01327e-06
-4.63255e-07
3.16247e-06
-4.34581e-07
3.3029e-06
-4.07214e-07
3.435e-06
-3.81138e-07
3.55917e-06
-3.56328e-07
3.67583e-06
-3.32757e-07
3.78536e-06
-3.10391e-07
3.88813e-06
-2.89195e-07
3.9845e-06
-2.6913e-07
4.07481e-06
-2.50158e-07
4.15938e-06
-2.32238e-07
4.23852e-06
-2.15332e-07
4.31253e-06
-1.99397e-07
4.38168e-06
-1.84395e-07
4.44624e-06
-1.70285e-07
4.50646e-06
-1.57029e-07
4.56259e-06
-1.44587e-07
4.61484e-06
-1.32921e-07
4.66344e-06
-1.21995e-07
4.70859e-06
-1.1177e-07
4.75047e-06
-1.02212e-07
4.78929e-06
-9.32861e-08
4.8252e-06
-8.49574e-08
4.85838e-06
-7.71929e-08
4.88898e-06
-6.99604e-08
4.91715e-06
-6.32284e-08
4.94304e-06
-5.69665e-08
4.96677e-06
-5.11452e-08
4.98847e-06
-4.57356e-08
5.00827e-06
-4.07099e-08
5.02628e-06
-3.60412e-08
5.04261e-06
-3.17041e-08
5.05737e-06
-2.76758e-08
5.07063e-06
-2.39362e-08
5.08251e-06
-2.04611e-08
5.0931e-06
-1.72284e-08
5.10248e-06
-1.42224e-08
5.11073e-06
-1.14287e-08
5.11795e-06
-8.83434e-09
5.12427e-06
-6.42865e-09
5.12967e-06
-4.2498e-09
5.13429e-06
-2.22532e-09
5.13817e-06
-4.0839e-10
5.14132e-06
1.33676e-09
5.14379e-06
2.87279e-09
5.14563e-06
4.27653e-09
5.14686e-06
5.55125e-09
5.14751e-06
6.71048e-09
5.14763e-06
7.77041e-09
5.14724e-06
8.74516e-09
5.14638e-06
9.64759e-09
5.14507e-06
1.04887e-08
5.14334e-06
1.1278e-08
5.14122e-06
1.20228e-08
5.13874e-06
1.27289e-08
5.1359e-06
1.34006e-08
5.13273e-06
1.40411e-08
5.12925e-06
1.46526e-08
5.12546e-06
1.52368e-08
5.1214e-06
1.5795e-08
5.11706e-06
1.63284e-08
5.11247e-06
1.68377e-08
5.10763e-06
1.73242e-08
5.10257e-06
1.77888e-08
5.09728e-06
1.82328e-08
5.09179e-06
1.86571e-08
5.0861e-06
1.90631e-08
5.08022e-06
1.94521e-08
5.07416e-06
1.98255e-08
5.06794e-06
2.01847e-08
5.06155e-06
2.0531e-08
5.05501e-06
2.08658e-08
5.04833e-06
2.11905e-08
5.04151e-06
2.15066e-08
5.03455e-06
2.18157e-08
5.02746e-06
2.21192e-08
5.02025e-06
2.24191e-08
5.01291e-06
2.27171e-08
5.00546e-06
2.30155e-08
4.99789e-06
2.33168e-08
4.9902e-06
2.36239e-08
4.9824e-06
2.39404e-08
4.97448e-06
2.42705e-08
4.96644e-06
2.46196e-08
4.95828e-06
2.4994e-08
4.94999e-06
2.54021e-08
4.94155e-06
2.58542e-08
4.93297e-06
2.63633e-08
4.92422e-06
2.69464e-08
4.91529e-06
2.76255e-08
4.90614e-06
2.8429e-08
4.89674e-06
2.93945e-08
4.88704e-06
3.05716e-08
4.87699e-06
3.20275e-08
4.8665e-06
3.38528e-08
4.85548e-06
3.61726e-08
4.84378e-06
3.91625e-08
4.83122e-06
4.3073e-08
4.81757e-06
4.82698e-08
4.80251e-06
5.53058e-08
4.78562e-06
6.50175e-08
4.76636e-06
7.88115e-08
4.74403e-06
9.87543e-08
4.71828e-06
1.29343e-07
4.68753e-06
1.75305e-07
4.65974e-06
2.56207e-07
3.7435e-07
4.62063e-06
-1.99649e-07
3.5386e-07
-4.07511e-07
4.10266e-07
-6.1624e-07
4.41699e-07
-8.27525e-07
4.74513e-07
-1.04199e-06
5.10236e-07
-1.2591e-06
5.48426e-07
-1.47766e-06
5.88419e-07
-1.69627e-06
6.29682e-07
-1.9137e-06
6.71884e-07
-2.12899e-06
7.14791e-07
-2.34143e-06
7.58097e-07
-2.55075e-06
8.01389e-07
-2.75712e-06
8.44178e-07
-2.96106e-06
8.85907e-07
-3.1633e-06
9.25989e-07
-3.36476e-06
9.63758e-07
-3.56666e-06
9.9856e-07
-3.77045e-06
1.02978e-06
-3.97768e-06
1.05679e-06
-4.18986e-06
1.07899e-06
-4.40821e-06
1.09566e-06
-4.63348e-06
1.10601e-06
-4.86571e-06
1.10913e-06
-5.10413e-06
1.10396e-06
-5.34698e-06
1.08936e-06
-5.59158e-06
1.06413e-06
-5.83432e-06
1.02712e-06
-6.07087e-06
9.77305e-07
-6.29637e-06
9.13895e-07
-6.50568e-06
8.36444e-07
-6.69364e-06
7.44918e-07
-6.85534e-06
6.39757e-07
-6.98637e-06
5.2189e-07
-7.08296e-06
3.92733e-07
-7.14204e-06
2.54094e-07
-7.16138e-06
1.08107e-07
-7.13972e-06
-4.27236e-08
-7.0766e-06
-1.95968e-07
-6.97237e-06
-3.48988e-07
-6.82811e-06
-4.99188e-07
-6.6456e-06
-6.44149e-07
-6.4272e-06
-7.8172e-07
-6.17575e-06
-9.10073e-07
-5.89444e-06
-1.02772e-06
-5.58673e-06
-1.13351e-06
-5.25621e-06
-1.22657e-06
-4.9066e-06
-1.30633e-06
-4.54165e-06
-1.37242e-06
-4.16511e-06
-1.42476e-06
-3.78065e-06
-1.46347e-06
-3.3918e-06
-1.48896e-06
-3.00188e-06
-1.50189e-06
-2.61389e-06
-1.50317e-06
-2.23049e-06
-1.49389e-06
-1.85393e-06
-1.47527e-06
-1.48606e-06
-1.44862e-06
-1.12832e-06
-1.41523e-06
-7.81834e-07
-1.37633e-06
-4.47399e-07
-1.33309e-06
-1.2562e-07
-1.2865e-06
1.83061e-07
-1.23736e-06
4.78446e-07
-1.18655e-06
7.60495e-07
-1.13486e-06
1.02929e-06
-1.08288e-06
1.28504e-06
-1.03109e-06
1.52801e-06
-9.79892e-07
1.75854e-06
-9.29601e-07
1.97699e-06
-8.80477e-07
2.18377e-06
-8.32718e-07
2.37931e-06
-7.86472e-07
2.56404e-06
-7.41847e-07
2.73842e-06
-6.98914e-07
2.9029e-06
-6.57719e-07
3.05793e-06
-6.1828e-07
3.20394e-06
-5.80598e-07
3.34139e-06
-5.4466e-07
3.47069e-06
-5.10437e-07
3.59225e-06
-4.77894e-07
3.70649e-06
-4.46989e-07
3.81377e-06
-4.17672e-07
3.91446e-06
-3.89891e-07
4.00893e-06
-3.63594e-07
4.09749e-06
-3.38723e-07
4.18048e-06
-3.15224e-07
4.25819e-06
-2.93039e-07
4.3309e-06
-2.72115e-07
4.3989e-06
-2.52394e-07
4.46244e-06
-2.33825e-07
4.52177e-06
-2.16353e-07
4.57711e-06
-1.99927e-07
4.62868e-06
-1.84498e-07
4.6767e-06
-1.70016e-07
4.72137e-06
-1.56433e-07
4.76286e-06
-1.43703e-07
4.80135e-06
-1.31782e-07
4.83702e-06
-1.20626e-07
4.87002e-06
-1.10194e-07
4.90051e-06
-1.00444e-07
4.92862e-06
-9.13381e-08
4.95449e-06
-8.28374e-08
4.97825e-06
-7.49058e-08
5.00002e-06
-6.7508e-08
5.01992e-06
-6.06103e-08
5.03806e-06
-5.41802e-08
5.05454e-06
-4.81869e-08
5.06947e-06
-4.26015e-08
5.08293e-06
-3.73977e-08
5.09502e-06
-3.255e-08
5.10582e-06
-2.8033e-08
5.11543e-06
-2.38248e-08
5.12391e-06
-1.99071e-08
5.13133e-06
-1.6263e-08
5.13778e-06
-1.28773e-08
5.14328e-06
-9.74896e-09
5.14791e-06
-6.85696e-09
5.1517e-06
-4.19099e-09
5.15474e-06
-1.70553e-09
5.15706e-06
5.54173e-10
5.1587e-06
2.63818e-09
5.1597e-06
4.55049e-09
5.1601e-06
6.30865e-09
5.15994e-06
7.92963e-09
5.15926e-06
9.4283e-09
5.15808e-06
1.08194e-08
5.15646e-06
1.21163e-08
5.1544e-06
1.33305e-08
5.15195e-06
1.4472e-08
5.14913e-06
1.55485e-08
5.14597e-06
1.6567e-08
5.14248e-06
1.75323e-08
5.13868e-06