/*--------------------------------*- C++ -*----------------------------------*\
  =========                 |
  \\      /  F ield         | OpenFOAM: The Open Source CFD Toolbox
   \\    /   O peration     | Website:  https://openfoam.org
    \\  /    A nd           | Version:  9
     \\/     M anipulation  |
\*---------------------------------------------------------------------------*/
FoamFile
{
    format      ascii;
    class       volVectorField;
    location    "0.01";
    object      U;
}
// * * * * * * * * * * * * * * * * * * * * * * * * * * * * * * * * * * * * * //

dimensions      [0 1 -1 0 0 0 0];

internalField   nonuniform List<vector> 
12225
(
(9.79636 -0.226987 0)
(9.40678 -0.194189 0)
(9.0131 -0.123417 0)
(8.62796 -0.0708738 0)
(8.27274 -0.0362753 0)
(7.95528 -0.0148909 0)
(7.67423 -0.00203733 0)
(7.42665 0.00558684 0)
(7.20991 0.0099466 0)
(7.02114 0.0122335 0)
(6.85696 0.0132252 0)
(6.7139 0.013441 0)
(6.58856 0.0132542 0)
(6.47774 0.0129664 0)
(6.37809 0.0127911 0)
(6.28692 0.0133148 0)
(6.19715 0.0137794 0)
(6.12092 0.0229255 0)
(10.0814 0.138084 0)
(10.2396 0.223674 0)
(10.328 0.21078 0)
(10.3609 0.184953 0)
(10.3613 0.162975 0)
(10.3389 0.144055 0)
(10.2981 0.127771 0)
(10.2433 0.113971 0)
(10.1791 0.102207 0)
(10.1091 0.0920591 0)
(10.036 0.0832779 0)
(9.96163 0.0757313 0)
(9.88731 0.0693667 0)
(9.81383 0.0642111 0)
(9.74146 0.060333 0)
(9.67059 0.0582183 0)
(9.60025 0.057923 0)
(9.53445 0.0631892 0)
(10.0079 0.0371576 0)
(10.0524 0.0343282 0)
(10.1025 0.0223791 0)
(10.1459 0.0274604 0)
(10.1843 0.0386874 0)
(10.2187 0.0477086 0)
(10.2472 0.0536551 0)
(10.2688 0.0574643 0)
(10.284 0.0597444 0)
(10.2935 0.0608943 0)
(10.2979 0.0612956 0)
(10.298 0.0613053 0)
(10.2942 0.0612316 0)
(10.287 0.061378 0)
(10.2769 0.0620533 0)
(10.2645 0.0638517 0)
(10.25 0.0671836 0)
(10.2364 0.0737275 0)
(10.0033 0.0218559 0)
(10.0262 0.04578 0)
(10.0545 0.0590165 0)
(10.0762 0.0697067 0)
(10.0943 0.0766086 0)
(10.1127 0.079145 0)
(10.1308 0.0790551 0)
(10.1476 0.0778785 0)
(10.1626 0.0762429 0)
(10.1759 0.0743776 0)
(10.1875 0.0724686 0)
(10.1975 0.0707133 0)
(10.2057 0.0693034 0)
(10.2123 0.0684581 0)
(10.2172 0.0684267 0)
(10.2209 0.0696535 0)
(10.2233 0.0723844 0)
(10.2265 0.0770304 0)
(10.0028 0.0190283 0)
(10.0209 0.0471289 0)
(10.043 0.0576595 0)
(10.0589 0.0614027 0)
(10.071 0.063819 0)
(10.0833 0.0650125 0)
(10.0957 0.0650866 0)
(10.1072 0.0645875 0)
(10.1176 0.0638188 0)
(10.127 0.0628925 0)
(10.1355 0.0619357 0)
(10.1431 0.0611246 0)
(10.1497 0.0606519 0)
(10.1554 0.0607349 0)
(10.1601 0.0616074 0)
(10.1642 0.0636053 0)
(10.1675 0.0668362 0)
(10.1711 0.0715037 0)
(10.0022 0.0166313 0)
(10.0166 0.0414463 0)
(10.0352 0.0507831 0)
(10.0499 0.0546089 0)
(10.0612 0.0583105 0)
(10.0722 0.0611594 0)
(10.0829 0.0624925 0)
(10.0928 0.0627654 0)
(10.1015 0.0624851 0)
(10.1094 0.0619123 0)
(10.1165 0.0612364 0)
(10.1228 0.0606643 0)
(10.1283 0.0604092 0)
(10.1332 0.0606908 0)
(10.1373 0.0617282 0)
(10.141 0.0637799 0)
(10.1442 0.0669368 0)
(10.1475 0.0713905 0)
(10.0016 0.0140776 0)
(10.013 0.0357699 0)
(10.029 0.0459154 0)
(10.0428 0.0509731 0)
(10.0539 0.0551478 0)
(10.0642 0.0580901 0)
(10.0743 0.0593725 0)
(10.0836 0.0595476 0)
(10.0919 0.0592077 0)
(10.0993 0.058647 0)
(10.106 0.0580435 0)
(10.1121 0.0575851 0)
(10.1175 0.0574723 0)
(10.1223 0.0579074 0)
(10.1265 0.0590856 0)
(10.1304 0.0612128 0)
(10.134 0.0643843 0)
(10.1376 0.0688027 0)
(10.0013 0.0118779 0)
(10.0103 0.0311049 0)
(10.0239 0.0417102 0)
(10.0367 0.0472657 0)
(10.0474 0.0512415 0)
(10.0572 0.0540021 0)
(10.0668 0.0553601 0)
(10.0758 0.0557338 0)
(10.0839 0.0556263 0)
(10.0913 0.0553143 0)
(10.098 0.0549653 0)
(10.1041 0.0547545 0)
(10.1096 0.054872 0)
(10.1147 0.0555066 0)
(10.1193 0.0568347 0)
(10.1237 0.0590309 0)
(10.128 0.0621959 0)
(10.1323 0.0665551 0)
(10.001 0.0100796 0)
(10.0082 0.02707 0)
(10.0197 0.0375061 0)
(10.0314 0.0432437 0)
(10.0416 0.0471058 0)
(10.051 0.0498452 0)
(10.0601 0.0513863 0)
(10.0688 0.0519886 0)
(10.0768 0.052073 0)
(10.0841 0.0519271 0)
(10.0908 0.0517337 0)
(10.097 0.0516646 0)
(10.1028 0.0518993 0)
(10.1082 0.0526124 0)
(10.1134 0.0539628 0)
(10.1184 0.0561029 0)
(10.1233 0.0591298 0)
(10.1285 0.0632852 0)
(10.0008 0.00858727 0)
(10.0066 0.0234835 0)
(10.0163 0.0333936 0)
(10.0269 0.0391952 0)
(10.0365 0.0430168 0)
(10.0454 0.045721 0)
(10.0541 0.0473461 0)
(10.0625 0.0480778 0)
(10.0703 0.0482789 0)
(10.0776 0.0482412 0)
(10.0844 0.0481551 0)
(10.0907 0.048182 0)
(10.0967 0.048484 0)
(10.1025 0.0492167 0)
(10.1081 0.0505194 0)
(10.1137 0.0525233 0)
(10.1195 0.0553113 0)
(10.1255 0.0591151 0)
(10.0006 0.00732175 0)
(10.0054 0.0202966 0)
(10.0136 0.0294868 0)
(10.023 0.0352016 0)
(10.032 0.0389404 0)
(10.0405 0.0415435 0)
(10.0488 0.0431667 0)
(10.0569 0.0439705 0)
(10.0645 0.0442564 0)
(10.0717 0.0442963 0)
(10.0785 0.0442766 0)
(10.085 0.0443461 0)
(10.0913 0.0446479 0)
(10.0974 0.0453177 0)
(10.1035 0.0464744 0)
(10.1097 0.0482273 0)
(10.1161 0.0506373 0)
(10.1229 0.0539111 0)
(10.0005 0.00630161 0)
(10.0045 0.0176528 0)
(10.0116 0.0260748 0)
(10.0201 0.031572 0)
(10.0285 0.0351784 0)
(10.0366 0.0376523 0)
(10.0445 0.0392266 0)
(10.0523 0.0400526 0)
(10.0598 0.0403775 0)
(10.0669 0.0404445 0)
(10.0738 0.0404321 0)
(10.0804 0.0404781 0)
(10.0869 0.0407087 0)
(10.0933 0.0412402 0)
(10.0997 0.0421717 0)
(10.1064 0.0435907 0)
(10.1133 0.0455338 0)
(10.1208 0.0481793 0)
(10.0004 0.00542135 0)
(10.0038 0.0152927 0)
(10.0099 0.022865 0)
(10.0176 0.0280126 0)
(10.0254 0.0314294 0)
(10.0331 0.0337475 0)
(10.0407 0.0352304 0)
(10.0482 0.0360288 0)
(10.0556 0.0363469 0)
(10.0626 0.0363965 0)
(10.0695 0.0363426 0)
(10.0762 0.0363112 0)
(10.0828 0.0364108 0)
(10.0895 0.0367377 0)
(10.0963 0.0373701 0)
(10.1033 0.0383734 0)
(10.1107 0.03976 0)
(10.1188 0.0416783 0)
(10.0004 0.00453722 0)
(10.0032 0.0128556 0)
(10.0084 0.0194114 0)
(10.0152 0.0240374 0)
(10.0224 0.0271552 0)
(10.0297 0.0292444 0)
(10.0369 0.0305646 0)
(10.0442 0.031266 0)
(10.0513 0.0315148 0)
(10.0583 0.0314853 0)
(10.0651 0.0313212 0)
(10.0719 0.0311315 0)
(10.0787 0.0310044 0)
(10.0856 0.031013 0)
(10.0927 0.0312116 0)
(10.1001 0.0316415 0)
(10.1079 0.0322904 0)
(10.1163 0.0332747 0)
(10.0003 0.00364449 0)
(10.0027 0.0103527 0)
(10.0071 0.0157424 0)
(10.0131 0.019659 0)
(10.0196 0.0223293 0)
(10.0264 0.0240838 0)
(10.0333 0.0251465 0)
(10.0402 0.025657 0)
(10.0471 0.0257465 0)
(10.0539 0.0255493 0)
(10.0608 0.0251795 0)
(10.0676 0.0247239 0)
(10.0745 0.0242475 0)
(10.0815 0.0237985 0)
(10.0888 0.0234067 0)
(10.0964 0.0230887 0)
(10.1045 0.0228112 0)
(10.1131 0.02266 0)
(10.0003 0.00274045 0)
(10.0022 0.00778557 0)
(10.006 0.0118695 0)
(10.0112 0.0148806 0)
(10.0172 0.0169252 0)
(10.0234 0.0182062 0)
(10.0299 0.0188897 0)
(10.0365 0.0190888 0)
(10.0431 0.0189003 0)
(10.0498 0.0184177 0)
(10.0565 0.0177211 0)
(10.0633 0.0168699 0)
(10.0702 0.0159037 0)
(10.0773 0.0148462 0)
(10.0846 0.0137038 0)
(10.0922 0.0124717 0)
(10.1002 0.0111025 0)
(10.1088 0.00965538 0)
(10.0002 0.00181354 0)
(10.0019 0.00512543 0)
(10.0052 0.00776504 0)
(10.0098 0.00967605 0)
(10.0152 0.0109011 0)
(10.021 0.0115445 0)
(10.027 0.0117055 0)
(10.0332 0.0114569 0)
(10.0396 0.0108583 0)
(10.046 0.00996321 0)
(10.0525 0.00881561 0)
(10.0591 0.00744516 0)
(10.0658 0.00586663 0)
(10.0727 0.00408152 0)
(10.0798 0.00207789 0)
(10.0871 -0.000163652 0)
(10.0947 -0.00269501 0)
(10.1027 -0.00547735 0)
(10.0002 0.000834195 0)
(10.0017 0.00229257 0)
(10.0046 0.00332979 0)
(10.0088 0.00394734 0)
(10.0137 0.00415548 0)
(10.0191 0.00398457 0)
(10.0248 0.00346755 0)
(10.0307 0.00263046 0)
(10.0367 0.00149315 0)
(10.0428 7.04401e-05 0)
(10.0489 -0.00162925 0)
(10.0551 -0.0036054 0)
(10.0614 -0.00586585 0)
(10.0677 -0.00842607 0)
(10.0742 -0.0113093 0)
(10.0808 -0.0145417 0)
(10.0876 -0.0181694 0)
(10.0945 -0.0221719 0)
(10.0002 -0.000266854 0)
(10.0016 -0.000889209 0)
(10.0044 -0.00165723 0)
(10.0084 -0.0025154 0)
(10.0131 -0.00348038 0)
(10.0182 -0.00459243 0)
(10.0236 -0.00588602 0)
(10.0291 -0.0073837 0)
(10.0347 -0.00910358 0)
(10.0403 -0.0110657 0)
(10.0459 -0.013293 0)
(10.0515 -0.01581 0)
(10.057 -0.0186425 0)
(10.0625 -0.0218178 0)
(10.068 -0.0253647 0)
(10.0734 -0.0293106 0)
(10.0788 -0.03369 0)
(10.0841 -0.0384997 0)
(10.0002 -0.00133523 0)
(10.0018 -0.00396361 0)
(10.0048 -0.00643015 0)
(10.009 -0.00862684 0)
(10.0138 -0.0106123 0)
(10.0189 -0.0125085 0)
(10.0242 -0.0144143 0)
(10.0295 -0.0163934 0)
(10.0348 -0.0184975 0)
(10.04 -0.020777 0)
(10.0451 -0.0232781 0)
(10.0501 -0.0260393 0)
(10.0548 -0.0290942 0)
(10.0594 -0.0324737 0)
(10.0639 -0.0362063 0)
(10.0681 -0.0403169 0)
(10.0721 -0.0448294 0)
(10.076 -0.0497456 0)
(10.0002 -0.00229913 0)
(10.0021 -0.00670808 0)
(10.0055 -0.0105865 0)
(10.0102 -0.0137808 0)
(10.0154 -0.016457 0)
(10.0207 -0.0188557 0)
(10.026 -0.0211212 0)
(10.0312 -0.0233284 0)
(10.0364 -0.0255527 0)
(10.0414 -0.0278788 0)
(10.0461 -0.0303796 0)
(10.0506 -0.0331083 0)
(10.0548 -0.0361047 0)
(10.0588 -0.0394014 0)
(10.0625 -0.0430259 0)
(10.0659 -0.0470002 0)
(10.069 -0.0513416 0)
(10.0718 -0.0560587 0)
(10.0003 -0.0033211 0)
(10.0026 -0.00956687 0)
(10.0068 -0.014759 0)
(10.0122 -0.0187118 0)
(10.0178 -0.0218214 0)
(10.0234 -0.0245279 0)
(10.0289 -0.0270193 0)
(10.0342 -0.0293525 0)
(10.0394 -0.0316007 0)
(10.0442 -0.0338609 0)
(10.0487 -0.0362176 0)
(10.0528 -0.0387336 0)
(10.0566 -0.0414587 0)
(10.06 -0.0444347 0)
(10.063 -0.0476951 0)
(10.0657 -0.0512644 0)
(10.068 -0.0551587 0)
(10.0699 -0.059382 0)
(10.0004 -0.00446891 0)
(10.0033 -0.012679 0)
(10.0086 -0.0190891 0)
(10.015 -0.0236034 0)
(10.0213 -0.0269493 0)
(10.0271 -0.0297338 0)
(10.0328 -0.0321875 0)
(10.0383 -0.0344285 0)
(10.0435 -0.0365908 0)
(10.0483 -0.038784 0)
(10.0527 -0.0410701 0)
(10.0566 -0.0434887 0)
(10.0601 -0.0460772 0)
(10.0631 -0.0488714 0)
(10.0658 -0.0519002 0)
(10.068 -0.0551846 0)
(10.0697 -0.0587377 0)
(10.0711 -0.0625759 0)
(10.0005 -0.0058449 0)
(10.0045 -0.016203 0)
(10.0112 -0.0234443 0)
(10.0188 -0.028251 0)
(10.0258 -0.0319883 0)
(10.0321 -0.0350623 0)
(10.038 -0.0374199 0)
(10.0436 -0.0392286 0)
(10.0487 -0.0408048 0)
(10.0534 -0.0423703 0)
(10.0576 -0.0440244 0)
(10.0613 -0.0458186 0)
(10.0645 -0.0477972 0)
(10.0673 -0.0499979 0)
(10.0696 -0.0524463 0)
(10.0714 -0.0551575 0)
(10.0727 -0.0581382 0)
(10.0735 -0.0613834 0)
(10.0007 -0.00752328 0)
(10.0063 -0.0207125 0)
(10.015 -0.027982 0)
(10.0236 -0.0318109 0)
(10.0309 -0.0354645 0)
(10.0377 -0.0392956 0)
(10.0443 -0.0425958 0)
(10.0504 -0.0452052 0)
(10.0557 -0.0473684 0)
(10.0604 -0.0493001 0)
(10.0646 -0.0511134 0)
(10.0682 -0.0528899 0)
(10.0713 -0.0547075 0)
(10.0738 -0.0566312 0)
(10.0758 -0.0587084 0)
(10.0773 -0.060969 0)
(10.0783 -0.0634305 0)
(10.0789 -0.0661079 0)
(10.001 -0.00904894 0)
(10.0089 -0.0266516 0)
(10.0206 -0.0351851 0)
(10.0302 -0.0370337 0)
(10.0371 -0.0375094 0)
(10.0436 -0.0383018 0)
(10.0504 -0.0392871 0)
(10.057 -0.04039 0)
(10.0628 -0.0416563 0)
(10.068 -0.0430696 0)
(10.0726 -0.0445916 0)
(10.0766 -0.0462168 0)
(10.0801 -0.0479656 0)
(10.083 -0.0498622 0)
(10.0854 -0.0519286 0)
(10.0872 -0.054178 0)
(10.0885 -0.0566208 0)
(10.0892 -0.059212 0)
(10.0007 -0.0096853 0)
(10.0106 -0.0287428 0)
(10.0271 -0.0442551 0)
(10.0404 -0.0555418 0)
(10.0495 -0.062584 0)
(10.0578 -0.0659354 0)
(10.0662 -0.0670365 0)
(10.0745 -0.0672054 0)
(10.0822 -0.0670801 0)
(10.0893 -0.0668711 0)
(10.0959 -0.0666791 0)
(10.102 -0.0665904 0)
(10.1074 -0.0666698 0)
(10.1122 -0.0669592 0)
(10.1163 -0.067489 0)
(10.1199 -0.0682826 0)
(10.1228 -0.0693515 0)
(10.1252 -0.0706343 0)
(10.001 -0.0172386 0)
(10.0166 -0.00858734 0)
(10.0412 0.00569102 0)
(10.0659 0.005207 0)
(10.0886 -0.00326605 0)
(10.1102 -0.0119279 0)
(10.1303 -0.019059 0)
(10.1483 -0.0251216 0)
(10.1641 -0.030396 0)
(10.1778 -0.0349415 0)
(10.1897 -0.0388596 0)
(10.1997 -0.0423005 0)
(10.2079 -0.0454023 0)
(10.2145 -0.0482782 0)
(10.2195 -0.0510234 0)
(10.2231 -0.0537448 0)
(10.2255 -0.0565172 0)
(10.2266 -0.059505 0)
(10.0417 -0.100258 0)
(10.1397 -0.176245 0)
(10.208 -0.172834 0)
(10.2493 -0.156126 0)
(10.2772 -0.142271 0)
(10.2954 -0.130226 0)
(10.3038 -0.119533 0)
(10.3031 -0.110506 0)
(10.295 -0.103022 0)
(10.2811 -0.0967387 0)
(10.2625 -0.0914033 0)
(10.2402 -0.0868683 0)
(10.215 -0.0830327 0)
(10.1873 -0.0798227 0)
(10.1578 -0.0771824 0)
(10.1267 -0.0751242 0)
(10.0945 -0.0736136 0)
(10.0617 -0.0730798 0)
(9.89398 0.172441 0)
(9.69288 0.151499 0)
(9.47442 0.10105 0)
(9.24721 0.0630082 0)
(9.02844 0.0363358 0)
(8.82498 0.0184036 0)
(8.63658 0.00642943 0)
(8.46198 -0.00182262 0)
(8.30044 -0.00767845 0)
(8.15119 -0.0118861 0)
(8.0132 -0.0149338 0)
(7.88534 -0.01717 0)
(7.76653 -0.0188434 0)
(7.65575 -0.0201332 0)
(7.55202 -0.0211714 0)
(7.45445 -0.0220853 0)
(7.36181 -0.0229714 0)
(7.2741 -0.0241593 0)
(0.0354335 -0.130303 -2.96762e-20)
(0.0885882 -0.113103 2.86764e-20)
(0.123648 -0.0897448 0)
(0.146309 -0.0777892 0)
(0.16014 -0.0705592 0)
(0.166619 -0.0671065 -2.82711e-20)
(0.164448 -0.0619809 0)
(0.154486 -0.0515739 0)
(0.130012 -0.0353457 0)
(0.0891638 -0.0138469 0)
(0.0298221 0.00941046 3.13255e-20)
(-0.0486299 0.0322093 0)
(-0.14963 0.0573339 0)
(-0.275206 0.0771084 0)
(-0.42921 0.102235 0)
(-0.605688 0.136161 3.08522e-20)
(-0.810326 0.170345 0)
(-1.04102 0.204907 0)
(-1.29676 0.239087 0)
(-1.57582 0.271753 0)
(-1.87582 0.301639 0)
(-2.19366 0.327477 0)
(-2.52562 0.34811 0)
(-2.86742 0.362572 2.77882e-20)
(-3.21436 0.370145 -2.77566e-20)
(-3.56138 0.37038 2.77904e-20)
(-3.90328 0.363109 2.78725e-20)
(-4.23477 0.348445 0)
(-4.55062 0.32677 0)
(-4.84573 0.298717 -2.82022e-20)
(-5.11525 0.265142 -2.82641e-20)
(-5.35466 0.227109 0)
(-5.55985 0.185886 0)
(-5.72736 0.142926 -2.79835e-20)
(-5.85449 0.0998957 0)
(-5.93866 0.0587243 0)
(-5.97906 0.0208413 2.65616e-20)
(-5.97563 -0.0128544 0)
(-5.93743 -0.0426899 2.44989e-20)
(-5.86388 -0.0702082 4.63071e-20)
(-5.75687 -0.0959228 0)
(-5.61807 -0.119916 0)
(-5.44931 -0.142101 0)
(-5.25264 -0.162337 0)
(-5.03034 -0.180486 0)
(-4.78491 -0.196433 2.1409e-20)
(-4.51904 -0.210101 1.5936e-20)
(-4.23556 -0.221451 1.01396e-20)
(-3.93737 -0.230483 0)
(-3.62741 -0.237237 2.32927e-21)
(-3.30858 -0.241784 0)
(-2.9837 -0.244224 -1.58126e-20)
(-2.6555 -0.244681 -2.2881e-20)
(-2.32652 -0.243296 0)
(-1.99911 -0.240214 0)
(-1.67545 -0.235561 0)
(-1.35738 -0.22946 -5.29223e-20)
(-1.04651 -0.222044 0)
(-0.744178 -0.213386 0)
(-0.451294 -0.203577 0)
(-0.168294 -0.19296 0)
(0.104424 -0.181832 0)
(0.366579 -0.170714 0)
(0.617431 -0.159848 0)
(0.856566 -0.14929 0)
(1.08395 -0.139079 7.72586e-20)
(1.29966 -0.129243 0)
(1.50384 -0.119802 0)
(1.69669 -0.110772 -7.22957e-20)
(1.87849 -0.102159 -7.07137e-20)
(2.04954 -0.0939685 0)
(2.21018 -0.0861997 6.77043e-20)
(2.36075 -0.0788498 -6.62848e-20)
(2.50164 -0.071914 0)
(2.63323 -0.0653849 6.36244e-20)
(2.75591 -0.0592542 0)
(2.87007 -0.053512 0)
(2.9761 -0.0481477 -6.00794e-20)
(3.0744 -0.0431498 0)
(3.16536 -0.0385062 5.79987e-20)
(3.24936 -0.0342044 0)
(3.32678 -0.0302311 -5.61264e-20)
(3.39798 -0.0265731 -5.52628e-20)
(3.46334 -0.0232165 -5.44444e-20)
(3.52319 -0.0201474 -1.07338e-19)
(3.57789 -0.0173517 1.05868e-19)
(3.62778 -0.0148148 0)
(3.67316 -0.0125225 0)
(3.71435 -0.0104602 0)
(3.75166 -0.00861353 1.00713e-19)
(3.78535 -0.00696799 9.95837e-20)
(3.81572 -0.00550935 -9.85103e-20)
(3.84302 -0.00422361 0)
(3.8675 -0.00309712 9.65174e-20)
(3.88938 -0.00211661 9.55915e-20)
(3.9089 -0.00126929 9.47086e-20)
(3.92626 -0.000542822 0)
(3.94165 7.4587e-05 0)
(3.95525 0.000594172 0)
(3.96723 0.0010266 9.15533e-20)
(3.97775 0.00138192 0)
(3.98694 0.00166969 0)
(3.99495 0.00189916 -8.95161e-20)
(4.00187 0.00208009 0)
(4.00782 0.00222429 0)
(4.01289 0.0023584 -8.77039e-20)
(4.01707 0.0025308 0)
(4.02026 0.00275562 0)
(4.02253 0.00301717 8.60651e-20)
(4.02392 0.00329746 8.5556e-20)
(4.02449 0.00358809 0)
(4.02429 0.00388632 -8.45897e-20)
(4.02339 0.00418475 0)
(4.02188 0.0044348 8.36856e-20)
(4.01986 0.00462237 0)
(4.01743 0.00473766 8.28321e-20)
(4.01468 0.004776 8.24213e-20)
(4.01172 0.00472852 0)
(4.00866 0.00460102 0)
(4.0056 0.00440931 0)
(4.00258 0.00417271 0)
(3.99967 0.00391107 0)
(3.99687 0.00364205 0)
(3.99419 0.0033791 0)
(3.99163 0.00313088 7.93903e-20)
(3.98918 0.00290181 -7.90338e-20)
(3.98683 0.00269307 0)
(3.98456 0.00250382 0)
(3.98236 0.00233226 0)
(3.98023 0.00217631 0)
(3.97815 0.00203408 -1.54611e-19)
(3.97613 0.001904 0)
(3.97414 0.0017848 1.53273e-19)
(3.9722 0.00167551 -1.52612e-19)
(3.9703 0.00157533 0)
(3.96843 0.00148358 0)
(3.96659 0.00139966 0)
(3.96478 0.00132301 1.5002e-19)
(3.963 0.00125311 1.49384e-19)
(3.96123 0.00118948 0)
(3.95948 0.00113165 1.48123e-19)
(3.95775 0.00107923 1.47499e-19)
(3.95603 0.00103182 -1.46878e-19)
(3.95432 0.000989078 0)
(3.95262 0.000950706 0)
(3.95092 0.000916433 -1.45038e-19)
(3.94922 0.000886042 0)
(3.94752 0.000859367 0)
(3.94581 0.000836298 0)
(3.94409 0.000816781 0)
(3.94235 0.000800825 1.4204e-19)
(3.9406 0.000788521 1.4145e-19)
(3.93881 0.000780049 0)
(3.937 0.0007757 1.40282e-19)
(3.93514 0.000775896 0)
(3.93323 0.000781237 0)
(3.93125 0.000792534 1.38559e-19)
(3.92919 0.000810862 0)
(3.92703 0.000837633 1.37433e-19)
(3.92474 0.000874692 0)
(3.92229 0.000924444 0)
(3.91963 0.00099002 1.3579e-19)
(3.91672 0.00107552 0)
(3.91349 0.00118632 1.34738e-19)
(3.90985 0.00132958 0)
(3.90567 0.00151486 0)
(3.90082 0.0017551 0)
(3.89509 0.00206805 -1.32815e-19)
(3.8882 0.00247851 0)
(3.87979 0.00302173 1.32016e-19)
(3.86935 0.00374904 0)
(3.85615 0.00473753 0)
(3.83917 0.00610581 0)
(3.81682 0.00804511 0)
(3.7868 0.0108764 0)
(3.7451 0.0151206 0)
(3.6866 0.0219771 0)
(3.59568 0.03217 -2.67028e-19)
(3.47827 0.0544309 0)
(3.18948 0.0716904 0)
(-0.0364475 -0.11589 8.68042e-20)
(-0.0964283 -0.0580625 -8.16588e-20)
(-0.166212 -0.0180886 0)
(-0.248321 0.0116633 4.95634e-20)
(-0.341266 0.0391466 0)
(-0.447387 0.0698029 2.43403e-20)
(-0.569249 0.106796 -4.66681e-20)
(-0.708236 0.150673 -4.58741e-20)
(-0.863561 0.199987 0)
(-1.0355 0.253952 -4.42866e-20)
(-1.22551 0.312697 -2.21986e-20)
(-1.43343 0.375927 0)
(-1.65838 0.441951 0)
(-1.89942 0.507819 0)
(-2.15361 0.571463 0)
(-2.41976 0.632937 -2.03517e-20)
(-2.69546 0.690207 0)
(-2.97817 0.741808 4.03389e-20)
(-3.26485 0.786287 0)
(-3.55214 0.822276 0)
(-3.8366 0.848615 -4.12652e-20)
(-4.11481 0.864428 0)
(-4.38356 0.869161 4.27988e-20)
(-4.63994 0.862593 -2.11044e-20)
(-4.88142 0.844817 2.1588e-20)
(-5.10587 0.816192 -2.21295e-20)
(-5.31162 0.777291 -2.27099e-20)
(-5.49742 0.728838 0)
(-5.66239 0.671666 0)
(-5.806 0.606674 2.44424e-20)
(-5.92803 0.534803 -2.73857e-20)
(-6.02846 0.457042 0)
(-6.10745 0.37446 0)
(-6.16529 0.288237 2.56706e-20)
(-6.20222 0.199867 0)
(-6.21879 0.111233 0)
(-6.21413 0.0241973 -2.47768e-20)
(-6.18712 -0.0598986 0)
(-6.12834 -0.140194 2.48766e-20)
(-6.03821 -0.216734 -4.28201e-20)
(-5.91636 -0.289158 0)
(-5.7635 -0.356915 0)
(-5.58108 -0.419418 -6.88675e-20)
(-5.37102 -0.476126 -6.04855e-20)
(-5.1356 -0.526597 -5.14605e-20)
(-4.87738 -0.570505 2.24879e-20)
(-4.59909 -0.607653 -1.43487e-20)
(-4.30361 -0.63797 -3.00925e-20)
(-3.9939 -0.661512 9.8754e-21)
(-3.67292 -0.678453 -2.07402e-21)
(-3.34361 -0.689077 0)
(-3.00878 -0.693769 1.39835e-20)
(-2.67113 -0.692994 -1.80753e-20)
(-2.33314 -0.687288 0)
(-1.99707 -0.677221 0)
(-1.66493 -0.663358 0)
(-1.33849 -0.646238 4.61927e-20)
(-1.01919 -0.62636 0)
(-0.708217 -0.604168 -1.18313e-19)
(-0.406548 -0.580096 0)
(-0.114828 -0.554524 -1.41818e-19)
(0.166261 -0.528003 0)
(0.436433 -0.501207 1.42451e-19)
(0.695287 -0.474563 0)
(0.942717 -0.448291 -1.39521e-19)
(1.17878 -0.422564 6.84232e-20)
(1.40361 -0.39752 0)
(1.6174 -0.373265 1.33597e-19)
(1.82042 -0.349878 6.60289e-20)
(2.01297 -0.327413 6.49e-20)
(2.19537 -0.305905 0)
(2.36799 -0.285374 6.21787e-20)
(2.5312 -0.265826 6.15409e-20)
(2.68538 -0.247257 0)
(2.83091 -0.229655 -5.93977e-20)
(2.96818 -0.213001 1.16417e-19)
(3.09756 -0.197274 0)
(3.21942 -0.182447 5.6407e-20)
(3.33412 -0.168491 0)
(3.44201 -0.155378 -1.63524e-19)
(3.54344 -0.143076 0)
(3.63872 -0.131554 1.58498e-19)
(3.72818 -0.120779 5.21013e-20)
(3.81211 -0.11072 -5.11876e-20)
(3.8908 -0.101346 -1.00946e-19)
(3.96454 -0.092625 9.95777e-20)
(4.03359 -0.0845254 0)
(4.0982 -0.0770166 0)
(4.15861 -0.0700682 0)
(4.21507 -0.0636502 -2.84368e-19)
(4.2678 -0.0577333 -9.37388e-20)
(4.317 -0.0522886 9.26758e-20)
(4.36288 -0.047288 0)
(4.40563 -0.0427039 9.0556e-20)
(4.44545 -0.0385098 -8.97595e-20)
(4.4825 -0.0346797 -8.88714e-20)
(4.51695 -0.0311886 0)
(4.54896 -0.0280121 0)
(4.57869 -0.025127 0)
(4.60627 -0.0225107 -8.56854e-20)
(4.63185 -0.0201415 0)
(4.65556 -0.0179985 1.68504e-19)
(4.6775 -0.0160612 2.50824e-19)
(4.69781 -0.0143085 -1.65938e-19)
(4.71659 -0.012717 0)
(4.73395 -0.0112538 -8.17579e-20)
(4.75008 -0.00987814 0)
(4.76522 -0.00857802 -1.61344e-19)
(4.7795 -0.00736601 8.01192e-20)
(4.79297 -0.00625455 7.96074e-20)
(4.80571 -0.00524615 0)
(4.81778 -0.00434216 2.35956e-19)
(4.8292 -0.00354834 -1.56352e-19)
(4.83997 -0.0028233 -7.77253e-20)
(4.85015 -0.00219272 0)
(4.85974 -0.00168033 -7.6831e-20)
(4.86873 -0.00126459 -2.29189e-19)
(4.87711 -0.000946584 0)
(4.88489 -0.000715612 -1.51149e-19)
(4.8921 -0.00055364 -1.50364e-19)
(4.89873 -0.000443417 -1.49599e-19)
(4.90483 -0.000368584 0)
(4.91042 -0.00031539 0)
(4.91554 -0.000273809 0)
(4.92024 -0.000237315 7.33536e-20)
(4.92455 -0.000202304 7.30185e-20)
(4.92849 -0.000167335 0)
(4.93212 -0.000132303 1.44702e-19)
(4.93543 -9.77515e-05 1.44054e-19)
(4.93847 -6.44115e-05 0)
(4.94124 -3.29344e-05 1.42795e-19)
(4.94377 -3.77737e-06 2.84346e-19)
(4.94607 2.28191e-05 -1.41567e-19)
(4.94815 4.67984e-05 -1.40959e-19)
(4.95004 6.8242e-05 0)
(4.95174 8.73175e-05 0)
(4.95327 0.000104247 0)
(4.95464 0.000119278 -1.3863e-19)
(4.95586 0.000132664 1.38058e-19)
(4.95694 0.000144656 2.74995e-19)
(4.9579 0.0001555 -1.36942e-19)
(4.95873 0.000165433 1.36386e-19)
(4.95946 0.000174687 1.35841e-19)
(4.9601 0.000183488 0)
(4.96063 0.000192066 0)
(4.96109 0.000200663 -1.3422e-19)
(4.96146 0.000209547 0)
(4.96176 0.000219023 0)
(4.96199 0.000229442 2.65273e-19)
(4.96216 0.000241215 0)
(4.96227 0.000254833 1.31596e-19)
(4.96232 0.00027089 -1.31083e-19)
(4.96232 0.000290111 0)
(4.96226 0.000313391 1.30061e-19)
(4.96216 0.000341836 0)
(4.962 0.000376835 0)
(4.96179 0.00042013 -1.28559e-19)
(4.96153 0.000473919 2.56126e-19)
(4.9612 0.000540983 -1.27575e-19)
(4.96081 0.000624866 0)
(4.96035 0.000730103 0)
(4.95981 0.000862536 1.26126e-19)
(4.95916 0.00102973 0)
(4.95839 0.0012416 1.25192e-19)
(4.95748 0.00151118 0)
(4.95638 0.00185587 0)
(4.95505 0.0022991 0)
(4.95343 0.00287288 1.23467e-19)
(4.95143 0.00362168 0)
(4.94896 0.00460845 -1.22707e-19)
(4.94584 0.00592446 0)
(4.94189 0.00770524 0)
(4.93683 0.0101604 2.43582e-19)
(4.93024 0.0136162 -2.43206e-19)
(4.92164 0.0186442 0)
(4.90985 0.0260817 0)
(4.89482 0.0380763 0)
(4.87019 0.055821 7.32303e-19)
(4.84651 0.0929834 0)
(4.77362 0.132913 -4.91752e-19)
(-0.0827461 0.12731 -1.60064e-21)
(-0.221493 0.206289 9.8532e-20)
(-0.370254 0.25735 0)
(-0.530728 0.304935 -8.61829e-20)
(-0.69968 0.354896 0)
(-0.878417 0.409693 0)
(-1.06723 0.470134 8.24229e-22)
(-1.26529 0.536172 3.85469e-20)
(-1.47098 0.606742 3.70837e-20)
(-1.68298 0.680709 3.70221e-20)
(-1.89997 0.75677 0)
(-2.12045 0.833209 0)
(-2.34296 0.908001 -3.55665e-20)
(-2.56676 0.979619 -7.11172e-20)
(-2.79048 1.04668 7.14227e-20)
(-3.01292 1.10767 0)
(-3.23251 1.16069 7.30044e-20)
(-3.44836 1.20408 -3.6089e-20)
(-3.65978 1.23653 0)
(-3.86643 1.25706 7.77932e-20)
(-4.06832 1.26509 3.8234e-20)
(-4.26574 1.26038 -8.24165e-20)
(-4.4592 1.24301 -4.03784e-20)
(-4.64924 1.21333 0)
(-4.83631 1.17188 9.07785e-20)
(-5.02054 1.11928 9.3728e-20)
(-5.20156 1.05621 0)
(-5.37838 0.983363 9.94644e-20)
(-5.54933 0.901364 0)
(-5.71199 0.810839 1.04474e-19)
(-5.86333 0.71241 5.01465e-20)
(-5.99979 0.606727 0)
(-6.11749 0.494503 0)
(-6.21236 0.376534 0)
(-6.28034 0.253721 0)
(-6.31802 0.127074 0)
(-6.32298 -0.00202931 0)
(-6.29375 -0.132183 1.0205e-19)
(-6.22993 -0.261231 -1.42481e-19)
(-6.13199 -0.386574 0)
(-6.0007 -0.506182 0)
(-5.83735 -0.618407 0)
(-5.64372 -0.721899 -5.46709e-21)
(-5.42202 -0.815581 5.69264e-20)
(-5.17479 -0.898638 1.01469e-19)
(-4.90482 -0.97051 -8.29023e-20)
(-4.61507 -1.03087 -3.37731e-20)
(-4.30863 -1.07961 1.95979e-20)
(-3.98861 -1.11685 3.54254e-21)
(-3.65816 -1.14289 1.72514e-21)
(-3.32032 -1.15823 0)
(-2.97803 -1.16355 -2.10763e-20)
(-2.63404 -1.15967 2.54509e-21)
(-2.29087 -1.14753 0)
(-1.95075 -1.12816 0)
(-1.61562 -1.10262 6.88432e-20)
(-1.28716 -1.07196 0)
(-0.966688 -1.03718 0)
(-0.655299 -0.999251 -1.04332e-19)
(-0.353806 -0.959088 -2.37682e-19)
(-0.0626721 -0.917304 1.2813e-19)
(0.217307 -0.874549 0)
(0.486061 -0.831459 -1.29277e-19)
(0.743232 -0.7885 0)
(0.988822 -0.746039 -1.25901e-19)
(1.22295 -0.704386 -1.27037e-19)
(1.44579 -0.66379 2.49727e-19)
(1.65761 -0.624443 1.22679e-19)
(1.8587 -0.586487 0)
(2.04939 -0.550021 -2.40973e-19)
(2.23004 -0.51511 0)
(2.40105 -0.481788 -3.5223e-19)
(2.56279 -0.450068 -2.31073e-19)
(2.71567 -0.419943 -2.27728e-19)
(2.86008 -0.391393 2.24409e-19)
(2.99642 -0.364385 -3.32137e-19)
(3.12506 -0.338879 0)
(3.2464 -0.314829 0)
(3.36078 -0.292186 2.11721e-19)
(3.46857 -0.270897 3.13439e-19)
(3.5701 -0.250907 0)
(3.6657 -0.232162 -1.0181e-19)
(3.75568 -0.214607 0)
(3.84034 -0.198187 2.96925e-19)
(3.91996 -0.182847 4.21166e-22)
(3.99482 -0.168536 -3.88591e-22)
(4.06517 -0.1552 -1.90573e-19)
(4.13125 -0.142788 0)
(4.1933 -0.131252 1.86203e-19)
(4.25153 -0.120541 2.81673e-22)
(4.30617 -0.110611 0)
(4.3574 -0.101414 0)
(4.40543 -0.0929072 0)
(4.45041 -0.0850484 -1.7689e-19)
(4.49254 -0.0777965 0)
(4.53196 -0.0711125 0)
(4.56884 -0.0649585 0)
(4.60331 -0.0592986 0)
(4.63552 -0.0540982 0)
(4.6656 -0.0493241 -1.67519e-19)
(4.69368 -0.044945 0)
(4.71986 -0.0409305 -1.65021e-19)
(4.74427 -0.0372515 -1.63783e-19)
(4.76701 -0.0338799 1.62592e-19)
(4.78819 -0.0307882 0)
(4.8079 -0.027955 1.60337e-19)
(4.82623 -0.0253707 0)
(4.84327 -0.0230217 1.58235e-19)
(4.85911 -0.0208899 -1.57238e-19)
(4.87382 -0.018957 -4.68714e-19)
(4.8875 -0.0172055 0)
(4.9002 -0.0156203 -4.6321e-19)
(4.91204 -0.0141873 -1.53473e-19)
(4.92309 -0.0128524 0)
(4.9334 -0.0116259 -3.03601e-19)
(4.94303 -0.0105141 -3.01961e-19)
(4.95203 -0.00953248 4.50513e-19)
(4.96042 -0.00865474 0)
(4.96823 -0.00786565 1.48613e-19)
(4.97551 -0.00715964 1.47854e-19)
(4.98228 -0.00652894 4.41306e-19)
(4.98857 -0.00596431 0)
(4.99441 -0.00545721 0)
(4.99984 -0.00499992 0)
(5.00489 -0.00458541 1.44291e-19)
(5.00957 -0.0042075 0)
(5.01392 -0.00386106 0)
(5.01796 -0.00354197 -1.42359e-19)
(5.0217 -0.00324699 -1.41728e-19)
(5.02517 -0.00297364 0)
(5.02839 -0.00272005 0)
(5.03136 -0.00248479 -2.79785e-19)
(5.03411 -0.00226673 0)
(5.03664 -0.00206491 2.77422e-19)
(5.03897 -0.00187848 2.76252e-19)
(5.04112 -0.00170661 0)
(5.04309 -0.00154849 0)
(5.04489 -0.00140328 -2.72853e-19)
(5.04654 -0.00127011 -6.43672e-24)
(5.04806 -0.00114814 -5.81799e-24)
(5.04944 -0.00103648 0)
(5.05069 -0.000934277 -5.36951e-19)
(5.05184 -0.000840675 0)
(5.05288 -0.000754831 0)
(5.05383 -0.000675916 0)
(5.05468 -0.000603109 2.64238e-19)
(5.05546 -0.000535589 0)
(5.05615 -0.000472524 -5.24319e-19)
(5.05678 -0.000413053 -2.61135e-19)
(5.05734 -0.000356269 0)
(5.05784 -0.000301189 -2.59098e-19)
(5.05828 -0.000246728 0)
(5.05866 -0.000191661 0)
(5.05899 -0.000134569 -7.68268e-19)
(5.05926 -7.37877e-05 5.10197e-19)
(5.05948 -7.3268e-06 0)
(5.05965 6.72262e-05 5.06275e-19)
(5.05976 0.000152836 -2.52171e-19)
(5.0598 0.000253181 0)
(5.05977 0.000372876 0)
(5.05966 0.000517754 0)
(5.05946 0.00069526 -7.45119e-19)
(5.05914 0.00091497 0)
(5.05868 0.00118931 -2.4655e-19)
(5.05806 0.00153457 0)
(5.05722 0.00197229 0)
(5.05611 0.00253132 0)
(5.05466 0.0032508 0)
(5.05278 0.00418465 0)
(5.05034 0.00540849 0)
(5.04718 0.00703089 -4.81791e-19)
(5.04307 0.00921065 0)
(5.03772 0.0121907 -2.39875e-19)
(5.03073 0.0163396 7.18201e-19)
(5.02164 0.0222966 0)
(5.00966 0.0309778 0)
(4.99452 0.0445883 -4.78055e-19)
(4.97464 0.0650116 -4.80121e-19)
(4.9534 0.103389 4.7862e-19)
(4.93517 0.156818 4.82236e-19)
(-0.102392 0.475149 -1.50836e-19)
(-0.27423 0.571472 -1.34929e-19)
(-0.452633 0.626863 -8.24121e-20)
(-0.639284 0.683115 -3.86256e-20)
(-0.828909 0.743761 0)
(-1.0213 0.808639 7.25681e-20)
(-1.21574 0.87678 -3.53796e-20)
(-1.41094 0.94716 0)
(-1.60571 1.01888 -3.43603e-20)
(-1.79907 1.09111 0)
(-1.9903 1.1628 6.80939e-20)
(-2.17893 1.23275 0)
(-2.36501 1.29978 3.37698e-20)
(-2.54882 1.36267 6.79533e-20)
(-2.73098 1.42043 -6.86461e-20)
(-2.91216 1.4719 0)
(-3.09332 1.51595 -7.08347e-20)
(-3.27567 1.55166 0)
(-3.4606 1.5783 0)
(-3.64953 1.59535 -7.59518e-20)
(-3.84372 1.60237 0)
(-4.04412 1.59896 -4.18275e-21)
(-4.25115 1.58464 0)
(-4.4645 1.55882 0)
(-4.68306 1.52076 5.58768e-21)
(-4.90486 1.46958 -9.05389e-20)
(-5.12702 1.40437 -9.97711e-20)
(-5.34596 1.32428 -9.5721e-20)
(-5.55747 1.22863 0)
(-5.75698 1.11713 -2.09056e-19)
(-5.93978 0.98995 0)
(-6.10126 0.847824 -1.13238e-19)
(-6.23716 0.692113 0)
(-6.34369 0.5248 0)
(-6.41762 0.348308 1.1645e-19)
(-6.45663 0.165374 0)
(-6.45909 -0.0209832 -1.13339e-19)
(-6.42425 -0.207748 9.61614e-21)
(-6.35198 -0.391872 1.98186e-19)
(-6.24287 -0.570302 -1.9552e-19)
(-6.09815 -0.740257 0)
(-5.91968 -0.899334 0)
(-5.70976 -1.04556 -8.30885e-20)
(-5.4711 -1.1774 0)
(-5.20665 -1.29374 -5.12423e-20)
(-4.9196 -1.39386 4.20886e-20)
(-4.61322 -1.47735 3.25032e-20)
(-4.29087 -1.54415 0)
(-3.95594 -1.59446 -1.22379e-20)
(-3.6118 -1.62879 -1.65547e-21)
(-3.26171 -1.64788 -1.06782e-20)
(-2.90879 -1.65276 2.01855e-20)
(-2.55591 -1.64465 3.13684e-20)
(-2.20565 -1.62498 0)
(-1.86025 -1.59524 0)
(-1.52158 -1.55698 -6.56474e-20)
(-1.19118 -1.51176 0)
(-0.870236 -1.46101 0)
(-0.559658 -1.40613 2.01593e-19)
(-0.259945 -1.34835 2.23395e-19)
(0.0285199 -1.28854 0)
(0.305358 -1.2276 0)
(0.570524 -1.16644 0)
(0.823827 -1.10568 0)
(1.06539 -1.04581 2.38884e-19)
(1.29541 -0.987267 -2.35645e-19)
(1.51415 -0.930357 -2.36474e-19)
(1.72192 -0.875327 -4.6731e-19)
(1.91905 -0.822356 0)
(2.10592 -0.771563 1.655e-21)
(2.2829 -0.72302 0)
(2.45039 -0.676762 2.248e-19)
(2.60879 -0.632793 1.30787e-21)
(2.7585 -0.59109 2.19192e-19)
(2.89991 -0.551614 -2.16346e-19)