# vtk DataFile Version 2.0
sampleSurface
ASCII
DATASET POLYDATA
POINTS 502 float
-0.0206 0 -0.0005 -0.0190172 0 -0.0005 -0.0190172 0 0.0005 -0.0206 0
0.0005 -0.0174976 0 -0.0005 -0.0174976 0 0.0005 -0.0160387 0 -0.0005
-0.0160387 0 0.0005 -0.0146381 0 -0.0005 -0.0146381 0 0.0005 -0.0132934
0 -0.0005 -0.0132934 0 0.0005 -0.0120025 0 -0.0005 -0.0120025 0
0.0005 -0.0107632 0 -0.0005 -0.0107632 0 0.0005 -0.00957337 0 -0.0005
-0.00957337 0 0.0005 -0.00843108 0 -0.0005 -0.00843108 0 0.0005 -0.00733443
0 -0.0005 -0.00733443 0 0.0005 -0.0062816 0 -0.0005 -0.0062816 0
0.0005 -0.00527083 0 -0.0005 -0.00527083 0 0.0005 -0.00430044 0 -0.0005
-0.00430044 0 0.0005 -0.00336883 0 -0.0005 -0.00336883 0 0.0005 -0.00247443
0 -0.0005 -0.00247443 0 0.0005 -0.00161577 0 -0.0005 -0.00161577 0
0.0005 -0.000791418 0 -0.0005 -0.000791418 0 0.0005 0 0 -0.0005
0 0 0.0005 0 -0.0254 -0.0005 0 -0.0254 0.0005 0
-0.0242711 0.0005 0 -0.0242711 -0.0005 0 -0.0231422 0.0005 0 -0.0231422
-0.0005 0 -0.0220133 0.0005 0 -0.0220133 -0.0005 0 -0.0208844 0.0005
0 -0.0208844 -0.0005 0 -0.0197556 0.0005 0 -0.0197556 -0.0005 0
-0.0186267 0.0005 0 -0.0186267 -0.0005 0 -0.0174978 0.0005 0 -0.0174978
-0.0005 0 -0.0163689 0.0005 0 -0.0163689 -0.0005 0 -0.01524 0.0005
0 -0.01524 -0.0005 0 -0.0141111 0.0005 0 -0.0141111 -0.0005 0
-0.0129822 0.0005 0 -0.0129822 -0.0005 0 -0.0118533 0.0005 0 -0.0118533
-0.0005 0 -0.0107244 0.0005 0 -0.0107244 -0.0005 0 -0.00959556 0.0005
0 -0.00959556 -0.0005 0 -0.00846667 0.0005 0 -0.00846667 -0.0005 0
-0.00726604 0.0005 0 -0.00726604 -0.0005 0 -0.00618989 0.0005 0 -0.00618989
-0.0005 0 -0.00522531 0.0005 0 -0.00522531 -0.0005 0 -0.00436073 0.0005
0 -0.00436073 -0.0005 0 -0.00358579 0.0005 0 -0.00358579 -0.0005 0
-0.00289118 0.0005 0 -0.00289118 -0.0005 0 -0.0022686 0.0005 0 -0.0022686
-0.0005 0 -0.00171055 0.0005 0 -0.00171055 -0.0005 0 -0.00121037 0.0005
0 -0.00121037 -0.0005 0 -0.000762037 0.0005 0 -0.000762037 -0.0005 0
-0.000360188 0.0005 0 -0.000360188 -0.0005 0.000528387 -0.0254 -0.0005 0.000528387 -0.0254
0.0005 0.00106088 -0.0254 -0.0005 0.00106088 -0.0254 0.0005 0.00159752 -0.0254 -0.0005
0.00159752 -0.0254 0.0005 0.00213833 -0.0254 -0.0005 0.00213833 -0.0254 0.0005 0.00268334
-0.0254 -0.0005 0.00268334 -0.0254 0.0005 0.00323259 -0.0254 -0.0005 0.00323259 -0.0254
0.0005 0.00378611 -0.0254 -0.0005 0.00378611 -0.0254 0.0005 0.00434393 -0.0254 -0.0005
0.00434393 -0.0254 0.0005 0.00490609 -0.0254 -0.0005 0.00490609 -0.0254 0.0005 0.00547262
-0.0254 -0.0005 0.00547262 -0.0254 0.0005 0.00604356 -0.0254 -0.0005 0.00604356 -0.0254
0.0005 0.00661893 -0.0254 -0.0005 0.00661893 -0.0254 0.0005 0.00719878 -0.0254 -0.0005
0.00719878 -0.0254 0.0005 0.00778313 -0.0254 -0.0005 0.00778313 -0.0254 0.0005 0.00837203
-0.0254 -0.0005 0.00837203 -0.0254 0.0005 0.00896551 -0.0254 -0.0005 0.00896551 -0.0254
0.0005 0.0095636 -0.0254 -0.0005 0.0095636 -0.0254 0.0005 0.0101663 -0.0254 -0.0005
0.0101663 -0.0254 0.0005 0.0107738 -0.0254 -0.0005 0.0107738 -0.0254 0.0005 0.0113859
-0.0254 -0.0005 0.0113859 -0.0254 0.0005 0.0120028 -0.0254 -0.0005 0.0120028 -0.0254
0.0005 0.0126245 -0.0254 -0.0005 0.0126245 -0.0254 0.0005 0.0132511 -0.0254 -0.0005
0.0132511 -0.0254 0.0005 0.0138825 -0.0254 -0.0005 0.0138825 -0.0254 0.0005 0.0145188
-0.0254 -0.0005 0.0145188 -0.0254 0.0005 0.0151601 -0.0254 -0.0005 0.0151601 -0.0254
0.0005 0.0158063 -0.0254 -0.0005 0.0158063 -0.0254 0.0005 0.0164576 -0.0254 -0.0005
0.0164576 -0.0254 0.0005 0.0171139 -0.0254 -0.0005 0.0171139 -0.0254 0.0005 0.0177754
-0.0254 -0.0005 0.0177754 -0.0254 0.0005 0.018442 -0.0254 -0.0005 0.018442 -0.0254
0.0005 0.0191137 -0.0254 -0.0005 0.0191137 -0.0254 0.0005 0.0197907 -0.0254 -0.0005
0.0197907 -0.0254 0.0005 0.020473 -0.0254 -0.0005 0.020473 -0.0254 0.0005 0.0211606
-0.0254 -0.0005 0.0211606 -0.0254 0.0005 0.0218535 -0.0254 -0.0005 0.0218535 -0.0254
0.0005 0.0225517 -0.0254 -0.0005 0.0225517 -0.0254 0.0005 0.0232555 -0.0254 -0.0005
0.0232555 -0.0254 0.0005 0.0239647 -0.0254 -0.0005 0.0239647 -0.0254 0.0005 0.0246794
-0.0254 -0.0005 0.0246794 -0.0254 0.0005 0.0253996 -0.0254 -0.0005 0.0253996 -0.0254
0.0005 0.0261255 -0.0254 -0.0005 0.0261255 -0.0254 0.0005 0.026857 -0.0254 -0.0005
0.026857 -0.0254 0.0005 0.0275942 -0.0254 -0.0005 0.0275942 -0.0254 0.0005 0.0283371
-0.0254 -0.0005 0.0283371 -0.0254 0.0005 0.0290858 -0.0254 -0.0005 0.0290858 -0.0254
0.0005 0.0298403 -0.0254 -0.0005 0.0298403 -0.0254 0.0005 0.0306007 -0.0254 -0.0005
0.0306007 -0.0254 0.0005 0.031367 -0.0254 -0.0005 0.031367 -0.0254 0.0005 0.0321393
-0.0254 -0.0005 0.0321393 -0.0254 0.0005 0.0329175 -0.0254 -0.0005 0.0329175 -0.0254
0.0005 0.0337019 -0.0254 -0.0005 0.0337019 -0.0254 0.0005 0.0344923 -0.0254 -0.0005
0.0344923 -0.0254 0.0005 0.0352888 -0.0254 -0.0005 0.0352888 -0.0254 0.0005 0.0360916
-0.0254 -0.0005 0.0360916 -0.0254 0.0005 0.0369006 -0.0254 -0.0005 0.0369006 -0.0254
0.0005 0.0377158 -0.0254 -0.0005 0.0377158 -0.0254 0.0005 0.0385375 -0.0254 -0.0005
0.0385375 -0.0254 0.0005 0.0393655 -0.0254 -0.0005 0.0393655 -0.0254 0.0005 0.0401999
-0.0254 -0.0005 0.0401999 -0.0254 0.0005 0.0410408 -0.0254 -0.0005 0.0410408 -0.0254
0.0005 0.0418883 -0.0254 -0.0005 0.0418883 -0.0254 0.0005 0.0427424 -0.0254 -0.0005
0.0427424 -0.0254 0.0005 0.0436031 -0.0254 -0.0005 0.0436031 -0.0254 0.0005 0.0444704
-0.0254 -0.0005 0.0444704 -0.0254 0.0005 0.0453446 -0.0254 -0.0005 0.0453446 -0.0254
0.0005 0.0462255 -0.0254 -0.0005 0.0462255 -0.0254 0.0005 0.0471133 -0.0254 -0.0005
0.0471133 -0.0254 0.0005 0.048008 -0.0254 -0.0005 0.048008 -0.0254 0.0005 0.0489096
-0.0254 -0.0005 0.0489096 -0.0254 0.0005 0.0498183 -0.0254 -0.0005 0.0498183 -0.0254
0.0005 0.050734 -0.0254 -0.0005 0.050734 -0.0254 0.0005 0.0516568 -0.0254 -0.0005
0.0516568 -0.0254 0.0005 0.0525868 -0.0254 -0.0005 0.0525868 -0.0254 0.0005 0.053524
-0.0254 -0.0005 0.053524 -0.0254 0.0005 0.0544686 -0.0254 -0.0005 0.0544686 -0.0254
0.0005 0.0554204 -0.0254 -0.0005 0.0554204 -0.0254 0.0005 0.0563797 -0.0254 -0.0005
0.0563797 -0.0254 0.0005 0.0573464 -0.0254 -0.0005 0.0573464 -0.0254 0.0005 0.0583206
-0.0254 -0.0005 0.0583206 -0.0254 0.0005 0.0593025 -0.0254 -0.0005 0.0593025 -0.0254
0.0005 0.0602919 -0.0254 -0.0005 0.0602919 -0.0254 0.0005 0.0612891 -0.0254 -0.0005
0.0612891 -0.0254 0.0005 0.0622939 -0.0254 -0.0005 0.0622939 -0.0254 0.0005 0.0633067
-0.0254 -0.0005 0.0633067 -0.0254 0.0005 0.0643272 -0.0254 -0.0005 0.0643272 -0.0254
0.0005 0.0653557 -0.0254 -0.0005 0.0653557 -0.0254 0.0005 0.0663923 -0.0254 -0.0005
0.0663923 -0.0254 0.0005 0.0674368 -0.0254 -0.0005 0.0674368 -0.0254 0.0005 0.0684895
-0.0254 -0.0005 0.0684895 -0.0254 0.0005 0.0695504 -0.0254 -0.0005 0.0695504 -0.0254
0.0005 0.0706195 -0.0254 -0.0005 0.0706195 -0.0254 0.0005 0.0716969 -0.0254 -0.0005
0.0716969 -0.0254 0.0005 0.0727828 -0.0254 -0.0005 0.0727828 -0.0254 0.0005 0.073877
-0.0254 -0.0005 0.073877 -0.0254 0.0005 0.0749798 -0.0254 -0.0005 0.0749798 -0.0254
0.0005 0.0760911 -0.0254 -0.0005 0.0760911 -0.0254 0.0005 0.0772111 -0.0254 -0.0005
0.0772111 -0.0254 0.0005 0.0783398 -0.0254 -0.0005 0.0783398 -0.0254 0.0005 0.0794772
-0.0254 -0.0005 0.0794772 -0.0254 0.0005 0.0806235 -0.0254 -0.0005 0.0806235 -0.0254
0.0005 0.0817787 -0.0254 -0.0005 0.0817787 -0.0254 0.0005 0.0829429 -0.0254 -0.0005
0.0829429 -0.0254 0.0005 0.0841162 -0.0254 -0.0005 0.0841162 -0.0254 0.0005 0.0852985
-0.0254 -0.0005 0.0852985 -0.0254 0.0005 0.0864901 -0.0254 -0.0005 0.0864901 -0.0254
0.0005 0.0876909 -0.0254 -0.0005 0.0876909 -0.0254 0.0005 0.0889011 -0.0254 -0.0005
0.0889011 -0.0254 0.0005 0.0901207 -0.0254 -0.0005 0.0901207 -0.0254 0.0005 0.0913497
-0.0254 -0.0005 0.0913497 -0.0254 0.0005 0.0925883 -0.0254 -0.0005 0.0925883 -0.0254
0.0005 0.0938366 -0.0254 -0.0005 0.0938366 -0.0254 0.0005 0.0950945 -0.0254 -0.0005
0.0950945 -0.0254 0.0005 0.0963622 -0.0254 -0.0005 0.0963622 -0.0254 0.0005 0.0976398
-0.0254 -0.0005 0.0976398 -0.0254 0.0005 0.0989273 -0.0254 -0.0005 0.0989273 -0.0254
0.0005 0.100225 -0.0254 -0.0005 0.100225 -0.0254 0.0005 0.101532 -0.0254 -0.0005
0.101532 -0.0254 0.0005 0.10285 -0.0254 -0.0005 0.10285 -0.0254 0.0005 0.104178
-0.0254 -0.0005 0.104178 -0.0254 0.0005 0.105517 -0.0254 -0.0005 0.105517 -0.0254
0.0005 0.106865 -0.0254 -0.0005 0.106865 -0.0254 0.0005 0.108225 -0.0254 -0.0005
0.108225 -0.0254 0.0005 0.109594 -0.0254 -0.0005 0.109594 -0.0254 0.0005 0.110975
-0.0254 -0.0005 0.110975 -0.0254 0.0005 0.112366 -0.0254 -0.0005 0.112366 -0.0254
0.0005 0.113768 -0.0254 -0.0005 0.113768 -0.0254 0.0005 0.115181 -0.0254 -0.0005
0.115181 -0.0254 0.0005 0.116605 -0.0254 -0.0005 0.116605 -0.0254 0.0005 0.11804
-0.0254 -0.0005 0.11804 -0.0254 0.0005 0.119486 -0.0254 -0.0005 0.119486 -0.0254
0.0005 0.120943 -0.0254 -0.0005 0.120943 -0.0254 0.0005 0.122412 -0.0254 -0.0005
0.122412 -0.0254 0.0005 0.123892 -0.0254 -0.0005 0.123892 -0.0254 0.0005 0.125384
-0.0254 -0.0005 0.125384 -0.0254 0.0005 0.126887 -0.0254 -0.0005 0.126887 -0.0254
0.0005 0.128402 -0.0254 -0.0005 0.128402 -0.0254 0.0005 0.129928 -0.0254 -0.0005
0.129928 -0.0254 0.0005 0.131467 -0.0254 -0.0005 0.131467 -0.0254 0.0005 0.133017
-0.0254 -0.0005 0.133017 -0.0254 0.0005 0.13458 -0.0254 -0.0005 0.13458 -0.0254
0.0005 0.136155 -0.0254 -0.0005 0.136155 -0.0254 0.0005 0.137742 -0.0254 -0.0005
0.137742 -0.0254 0.0005 0.139341 -0.0254 -0.0005 0.139341 -0.0254 0.0005 0.140953
-0.0254 -0.0005 0.140953 -0.0254 0.0005 0.142577 -0.0254 -0.0005 0.142577 -0.0254
0.0005 0.144214 -0.0254 -0.0005 0.144214 -0.0254 0.0005 0.145863 -0.0254 -0.0005
0.145863 -0.0254 0.0005 0.147526 -0.0254 -0.0005 0.147526 -0.0254 0.0005 0.149201
-0.0254 -0.0005 0.149201 -0.0254 0.0005 0.15089 -0.0254 -0.0005 0.15089 -0.0254
0.0005 0.152591 -0.0254 -0.0005 0.152591 -0.0254 0.0005 0.154306 -0.0254 -0.0005
0.154306 -0.0254 0.0005 0.156034 -0.0254 -0.0005 0.156034 -0.0254 0.0005 0.157775
-0.0254 -0.0005 0.157775 -0.0254 0.0005 0.159531 -0.0254 -0.0005 0.159531 -0.0254
0.0005 0.161299 -0.0254 -0.0005 0.161299 -0.0254 0.0005 0.163082 -0.0254 -0.0005
0.163082 -0.0254 0.0005 0.164878 -0.0254 -0.0005 0.164878 -0.0254 0.0005 0.166688
-0.0254 -0.0005 0.166688 -0.0254 0.0005 0.168513 -0.0254 -0.0005 0.168513 -0.0254
0.0005 0.170351 -0.0254 -0.0005 0.170351 -0.0254 0.0005 0.172204 -0.0254 -0.0005
0.172204 -0.0254 0.0005 0.174071 -0.0254 -0.0005 0.174071 -0.0254 0.0005 0.175953
-0.0254 -0.0005 0.175953 -0.0254 0.0005 0.177849 -0.0254 -0.0005 0.177849 -0.0254
0.0005 0.17976 -0.0254 -0.0005 0.17976 -0.0254 0.0005 0.181686 -0.0254 -0.0005
0.181686 -0.0254 0.0005 0.183627 -0.0254 -0.0005 0.183627 -0.0254 0.0005 0.185583
-0.0254 -0.0005 0.185583 -0.0254 0.0005 0.187555 -0.0254 -0.0005 0.187555 -0.0254
0.0005 0.189541 -0.0254 -0.0005 0.189541 -0.0254 0.0005 0.191543 -0.0254 -0.0005
0.191543 -0.0254 0.0005 0.193561 -0.0254 -0.0005 0.193561 -0.0254 0.0005 0.195594
-0.0254 -0.0005 0.195594 -0.0254 0.0005 0.197643 -0.0254 -0.0005 0.197643 -0.0254
0.0005 0.199708 -0.0254 -0.0005 0.199708 -0.0254 0.0005 0.201789 -0.0254 -0.0005
0.201789 -0.0254 0.0005 0.203886 -0.0254 -0.0005 0.203886 -0.0254 0.0005 0.206
-0.0254 -0.0005 0.206 -0.0254 0.0005 0.208047 -0.0251856 -0.0005 0.208047 -0.0251856
0.0005 0.210173 -0.0249628 -0.0005 0.210173 -0.0249628 0.0005 0.212382 -0.0247314 -0.0005
0.212382 -0.0247314 0.0005 0.214677 -0.024491 -0.0005 0.214677 -0.024491 0.0005 0.217061
-0.0242412 -0.0005 0.217061 -0.0242412 0.0005 0.219538 -0.0239817 -0.0005 0.219538 -0.0239817
0.0005 0.222112 -0.0237121 -0.0005 0.222112 -0.0237121 0.0005 0.224785 -0.023432 -0.0005
0.224785 -0.023432 0.0005 0.227563 -0.023141 -0.0005 0.227563 -0.023141 0.0005 0.230449
-0.0228387 -0.0005 0.230449 -0.0228387 0.0005 0.233447 -0.0225246 -0.0005 0.233447 -0.0225246
0.0005 0.236562 -0.0221983 -0.0005 0.236562 -0.0221983 0.0005 0.239797 -0.0218593 -0.0005
0.239797 -0.0218593 0.0005 0.243159 -0.0215071 -0.0005 0.243159 -0.0215071 0.0005 0.246652
-0.0211412 -0.0005 0.246652 -0.0211412 0.0005 0.250281 -0.0207611 -0.0005 0.250281 -0.0207611
0.0005 0.254051 -0.0203661 -0.0005 0.254051 -0.0203661 0.0005 0.257967 -0.0199558 -0.0005
0.257967 -0.0199558 0.0005 0.262036 -0.0195295 -0.0005 0.262036 -0.0195295 0.0005 0.266264
-0.0190867 -0.0005 0.266264 -0.0190867 0.0005 0.270655 -0.0186266 -0.0005 0.270655 -0.0186266
0.0005 0.275218 -0.0181486 -0.0005 0.275218 -0.0181486 0.0005 0.279959 -0.017652 -0.0005
0.279959 -0.017652 0.0005 0.284883 -0.017136 -0.0005 0.284883 -0.017136 0.0005 0.29
-0.0166 -0.0005 0.29 -0.0166 0.0005 
POLYGONS 250 1250
4 0 1 2 3 4 1 4 5 2 4
4 6 7 5 4 6 8 9 7 4
8 10 11 9 4 10 12 13 11 4
12 14 15 13 4 14 16 17 15 4
16 18 19 17 4 18 20 21 19 4
20 22 23 21 4 22 24 25 23 4
24 26 27 25 4 26 28 29 27 4
28 30 31 29 4 30 32 33 31 4
32 34 35 33 4 34 36 37 35 4
38 39 40 41 4 41 40 42 43 4
43 42 44 45 4 45 44 46 47 4
47 46 48 49 4 49 48 50 51 4
51 50 52 53 4 53 52 54 55 4
55 54 56 57 4 57 56 58 59 4
59 58 60 61 4 61 60 62 63 4
63 62 64 65 4 65 64 66 67 4
67 66 68 69 4 69 68 70 71 4
71 70 72 73 4 73 72 74 75 4
75 74 76 77 4 77 76 78 79 4
79 78 80 81 4 81 80 82 83 4
83 82 84 85 4 85 84 86 87 4
87 86 88 89 4 89 88 90 91 4
91 90 37 36 4 38 92 93 39 4
92 94 95 93 4 94 96 97 95 4
96 98 99 97 4 98 100 101 99 4
100 102 103 101 4 102 104 105 103 4
104 106 107 105 4 106 108 109 107 4
108 110 111 109 4 110 112 113 111 4
112 114 115 113 4 114 116 117 115 4
116 118 119 117 4 118 120 121 119 4
120 122 123 121 4 122 124 125 123 4
124 126 127 125 4 126 128 129 127 4
128 130 131 129 4 130 132 133 131 4
132 134 135 133 4 134 136 137 135 4
136 138 139 137 4 138 140 141 139 4
140 142 143 141 4 142 144 145 143 4
144 146 147 145 4 146 148 149 147 4
148 150 151 149 4 150 152 153 151 4
152 154 155 153 4 154 156 157 155 4
156 158 159 157 4 158 160 161 159 4
160 162 163 161 4 162 164 165 163 4
164 166 167 165 4 166 168 169 167 4
168 170 171 169 4 170 172 173 171 4
172 174 175 173 4 174 176 177 175 4
176 178 179 177 4 178 180 181 179 4
180 182 183 181 4 182 184 185 183 4
184 186 187 185 4 186 188 189 187 4
188 190 191 189 4 190 192 193 191 4
192 194 195 193 4 194 196 197 195 4
196 198 199 197 4 198 200 201 199 4
200 202 203 201 4 202 204 205 203 4
204 206 207 205 4 206 208 209 207 4
208 210 211 209 4 210 212 213 211 4
212 214 215 213 4 214 216 217 215 4
216 218 219 217 4 218 220 221 219 4
220 222 223 221 4 222 224 225 223 4
224 226 227 225 4 226 228 229 227 4
228 230 231 229 4 230 232 233 231 4
232 234 235 233 4 234 236 237 235 4
236 238 239 237 4 238 240 241 239 4
240 242 243 241 4 242 244 245 243 4
244 246 247 245 4 246 248 249 247 4
248 250 251 249 4 250 252 253 251 4
252 254 255 253 4 254 256 257 255 4
256 258 259 257 4 258 260 261 259 4
260 262 263 261 4 262 264 265 263 4
264 266 267 265 4 266 268 269 267 4
268 270 271 269 4 270 272 273 271 4
272 274 275 273 4 274 276 277 275 4
276 278 279 277 4 278 280 281 279 4
280 282 283 281 4 282 284 285 283 4
284 286 287 285 4 286 288 289 287 4
288 290 291 289 4 290 292 293 291 4
292 294 295 293 4 294 296 297 295 4
296 298 299 297 4 298 300 301 299 4
300 302 303 301 4 302 304 305 303 4
304 306 307 305 4 306 308 309 307 4
308 310 311 309 4 310 312 313 311 4
312 314 315 313 4 314 316 317 315 4
316 318 319 317 4 318 320 321 319 4
320 322 323 321 4 322 324 325 323 4
324 326 327 325 4 326 328 329 327 4
328 330 331 329 4 330 332 333 331 4
332 334 335 333 4 334 336 337 335 4
336 338 339 337 4 338 340 341 339 4
340 342 343 341 4 342 344 345 343 4
344 346 347 345 4 346 348 349 347 4
348 350 351 349 4 350 352 353 351 4
352 354 355 353 4 354 356 357 355 4
356 358 359 357 4 358 360 361 359 4
360 362 363 361 4 362 364 365 363 4
364 366 367 365 4 366 368 369 367 4
368 370 371 369 4 370 372 373 371 4
372 374 375 373 4 374 376 377 375 4
376 378 379 377 4 378 380 381 379 4
380 382 383 381 4 382 384 385 383 4
384 386 387 385 4 386 388 389 387 4
388 390 391 389 4 390 392 393 391 4
392 394 395 393 4 394 396 397 395 4
396 398 399 397 4 398 400 401 399 4
400 402 403 401 4 402 404 405 403 4
404 406 407 405 4 406 408 409 407 4
408 410 411 409 4 410 412 413 411 4
412 414 415 413 4 414 416 417 415 4
416 418 419 417 4 418 420 421 419 4
420 422 423 421 4 422 424 425 423 4
424 426 427 425 4 426 428 429 427 4
428 430 431 429 4 430 432 433 431 4
432 434 435 433 4 434 436 437 435 4
436 438 439 437 4 438 440 441 439 4
440 442 443 441 4 442 444 445 443 4
444 446 447 445 4 446 448 449 447 4
448 450 451 449 4 450 452 453 451 4
452 454 455 453 4 454 456 457 455 4
456 458 459 457 4 458 460 461 459 4
460 462 463 461 4 462 464 465 463 4
464 466 467 465 4 466 468 469 467 4
468 470 471 469 4 470 472 473 471 4
472 474 475 473 4 474 476 477 475 4
476 478 479 477 4 478 480 481 479 4
480 482 483 481 4 482 484 485 483 4
484 486 487 485 4 486 488 489 487 4
488 490 491 489 4 490 492 493 491 4
492 494 495 493 4 494 496 497 495 4
496 498 499 497 4 498 500 501 499 
POINT_DATA 502
FIELD attributes 1
U 3 502 float
3.2102 -0.0167487 0.00266025 1.61268 -0.00783967 0.00131097 1.61268 -0.00783967 0.00131097 3.2102 -0.0167487
0.00266025 0.059339 0.000711291 0 0.059339 0.000711291 0 0.0572637 0.00048713 0
0.0572637 0.00048713 0 0.0554334 0.000334794 0 0.0554334 0.000334794 0 0.0535134
0.000315956 0 0.0535134 0.000315956 0 0.0514952 0.000339758 0 0.0514952 0.000339758
0 0.0496127 0.000348169 0 0.0496127 0.000348169 0 0.047953 0.000354387 0
0.047953 0.000354387 0 0.0463986 0.000385105 0 0.0463986 0.000385105 0 0.0447522
0.000423371 0 0.0447522 0.000423371 0 0.0430042 0.000432663 0 0.0430042 0.000432663
0 0.0411869 0.000407915 0 0.0411869 0.000407915 0 0.0394077 0.000371965 0
0.0394077 0.000371965 0 0.0376452 0.000367961 0 0.0376452 0.000367961 0 0.0357665
0.000416926 0 0.0357665 0.000416926 0 0.0338081 0.00048755 0 0.0338081 0.00048755
0 0.0315525 0.00058615 0 0.0315525 0.00058615 0 0.0136479 0.000572475 0
0.0136479 0.000572475 0 -6.84863e-05 5.14937e-05 7.83461e-23 -6.84863e-05 5.14937e-05 7.83461e-23 0.000124455
-0.000480152 -2.11504e-22 0.000124455 -0.000480152 -2.11504e-22 0.000492627 -0.00232372 -2.50319e-22 0.000492627 -0.00232372
-2.50319e-22 0.000697804 -0.00513398 4.98384e-22 0.000697804 -0.00513398 4.98384e-22 0.000689183 -0.00803544 1.66654e-22
0.000689183 -0.00803544 1.66654e-22 0.000562529 -0.0105281 -3.31372e-22 0.000562529 -0.0105281 -3.31372e-22 0.000349242
-0.0122142 0 0.000349242 -0.0122142 0 9.05687e-05 -0.0128409 -6.67014e-22 9.05687e-05 -0.0128409
-6.67014e-22 -0.000160436 -0.0123814 1.00634e-25 -0.000160436 -0.0123814 1.00634e-25 -0.000363769 -0.0109722 6.67115e-22
-0.000363769 -0.0109722 6.67115e-22 -0.000488966 -0.00887644 -6.91155e-22 -0.000488966 -0.00887644 -6.91155e-22 -0.000519879
-0.0064442 6.73681e-25 -0.000519879 -0.0064442 6.73681e-25 -0.000465957 -0.00401742 6.91829e-22 -0.000465957 -0.00401742
6.91829e-22 -0.000293963 -0.00188935 7.1028e-22 -0.000293963 -0.00188935 7.1028e-22 2.49574e-05 -0.000432439 -3.96342e-25
2.49574e-05 -0.000432439 -3.96342e-25 0.000136309 -0.000255945 -7.23272e-22 0.000136309 -0.000255945 -7.23272e-22 -0.000170613
-0.000656716 0 -0.000170613 -0.000656716 0 -0.000359669 -0.00064532 0 -0.000359669 -0.00064532
0 -0.000264287 -0.000277711 0 -0.000264287 -0.000277711 0 -5.08161e-05 8.26799e-05 0
-5.08161e-05 8.26799e-05 0 0.000322602 -0.0004002 0 0.000322602 -0.0004002 0 0.000603644
-0.00185809 0 0.000603644 -0.00185809 0 0.000437196 -0.00316429 0 0.000437196 -0.00316429
0 -0.0001143 -0.00335776 0 -0.0001143 -0.00335776 0 -0.00079351 -0.00276545 0
-0.00079351 -0.00276545 0 -0.00113018 -0.000841043 0 -0.00113018 -0.000841043 0 -0.000680941
0.000592151 0 -0.000680941 0.000592151 0 0.000111123 -0.00020178 3.54148e-25 0.000111123 -0.00020178
3.54148e-25 0.000602913 -0.000571834 -3.89188e-23 0.000602913 -0.000571834 -3.89188e-23 0.00124436 -0.00071841 0
0.00124436 -0.00071841 0 0.00190447 -0.000740484 0 0.00190447 -0.000740484 0 0.00255488
-0.000709643 3.74844e-23 0.00255488 -0.000709643 3.74844e-23 0.0031744 -0.000657289 3.75517e-23 0.0031744 -0.000657289
3.75517e-23 0.00374977 -0.00059337 0 0.00374977 -0.00059337 0 0.00427117 -0.000519633 0
0.00427117 -0.000519633 0 0.00472811 -0.000435408 0 0.00472811 -0.000435408 0 0.0051073
-0.000339765 -3.56977e-23 0.0051073 -0.000339765 -3.56977e-23 0.00539439 -0.000232849 -3.57658e-23 0.00539439 -0.000232849
-3.57658e-23 0.00557697 -0.000115532 0 0.00557697 -0.000115532 0 0.00564351 1.12655e-05 0
0.00564351 1.12655e-05 0 0.00558302 0.000143185 0 0.00558302 0.000143185 0 0.0053882
0.000276557 -3.44886e-23 0.0053882 0.000276557 -3.44886e-23 0.00506146 0.00040309 -3.45582e-23 0.00506146 0.00040309
-3.45582e-23 0.00461002 0.000521665 0 0.00461002 0.000521665 0 0.00404965 0.000612673 0
0.00404965 0.000612673 0 0.00340312 0.000685275 0 0.00340312 0.000685275 0 0.0027167
0.000690651 0 0.0027167 0.000690651 0 0.00199951 0.000607569 0 0.00199951 0.000607569
0 0.00129398 0.00058038 0 0.00129398 0.00058038 0 0.000985601 0.000159158 -3.31857e-23
0.000985601 0.000159158 -3.31857e-23 0.00066441 -0.000181751 -3.35988e-25 0.00066441 -0.000181751 -3.35988e-25 0.000568846
-0.000348892 3.67269e-25 0.000568846 -0.000348892 3.67269e-25 0.00122434 -0.000775514 -6.50583e-23 0.00122434 -0.000775514
-6.50583e-23 0.00172843 -0.0016971 -3.24292e-23 0.00172843 -0.0016971 -3.24292e-23 0.00168258 -0.00278848 0
0.00168258 -0.00278848 0 0.00145674 -0.00206747 3.1431e-23 0.00145674 -0.00206747 3.1431e-23 0.000446047
0.000455969 6.27898e-23 0.000446047 0.000455969 6.27898e-23 -0.00174687 0.00207941 3.13592e-23 -0.00174687 0.00207941
3.13592e-23 -0.00408242 0.00213752 0 -0.00408242 0.00213752 0 -0.00617174 0.00196759 3.00375e-23
-0.00617174 0.00196759 3.00375e-23 -0.00809469 0.00178202 3.01115e-23 -0.00809469 0.00178202 3.01115e-23 -0.00982494
0.00158087 0 -0.00982494 0.00158087 0 -0.0113773 0.0013891 -2.81129e-23 -0.0113773 0.0013891
-2.81129e-23 -0.0127557 0.00120933 -2.81843e-23 -0.0127557 0.00120933 -2.81843e-23 -0.0139757 0.00104667 -2.68111e-23
-0.0139757 0.00104667 -2.68111e-23 -0.0150471 0.000899986 -7.92746e-23 -0.0150471 0.000899986 -7.92746e-23 -0.0159823
0.000768388 -5.25313e-23 -0.0159823 0.000768388 -5.25313e-23 -0.0167899 0.000649412 0 -0.0167899 0.000649412
0 -0.0174781 0.000541055 0 -0.0174781 0.000541055 0 -0.0180531 0.000441423 0
-0.0180531 0.000441423 0 -0.0185203 0.000349265 0 -0.0185203 0.000349265 0 -0.018884
0.000263853 -4.6802e-23 -0.018884 0.000263853 -4.6802e-23 -0.0191488 0.000184998 -9.31469e-23 -0.0191488 0.000184998
-9.31469e-23 -0.0193187 0.000112854 -9.20703e-23 -0.0193187 0.000112854 -9.20703e-23 -0.0193984 4.77891e-05 -4.58558e-23
-0.0193984 4.77891e-05 -4.58558e-23 -0.0193954 -1.01083e-05 4.50168e-23 -0.0193954 -1.01083e-05 4.50168e-23 -0.01932
-6.13543e-05 4.51472e-23 -0.01932 -6.13543e-05 4.51472e-23 -0.0191792 -0.000106626 -4.4618e-23 -0.0191792 -0.000106626
-4.4618e-23 -0.0189787 -0.00014622 -8.92616e-23 -0.0189787 -0.00014622 -8.92616e-23 -0.0187256 -0.000180302 -4.46446e-23
-0.0187256 -0.000180302 -4.46446e-23 -0.0184264 -0.000209053 0 -0.0184264 -0.000209053 0 -0.0180878
-0.000232688 0 -0.0180878 -0.000232688 0 -0.0177161 -0.000251526 -4.44668e-23 -0.0177161 -0.000251526
-4.44668e-23 -0.0173174 -0.00026591 -4.46045e-23 -0.0173174 -0.00026591 -4.46045e-23 -0.0168972 -0.000276253 0
-0.0168972 -0.000276253 0 -0.0164609 -0.000282999 0 -0.0164609 -0.000282999 0 -0.0160132
-0.000286663 0 -0.0160132 -0.000286663 0 -0.0155579 -0.000287832 0 -0.0155579 -0.000287832
0 -0.0150983 -0.000287175 0 -0.0150983 -0.000287175 0 -0.0146365 -0.000285433 0
-0.0146365 -0.000285433 0 -0.0141734 -0.000283402 0 -0.0141734 -0.000283402 0 -0.0137087
-0.000281894 4.46396e-23 -0.0137087 -0.000281894 4.46396e-23 -0.0132404 -0.000281689 4.47896e-23 -0.0132404 -0.000281689
4.47896e-23 -0.0127656 -0.000283474 0 -0.0127656 -0.000283474 0 -0.0122801 -0.000287767 -4.45366e-23
-0.0122801 -0.000287767 -4.45366e-23 -0.0117791 -0.000294863 -8.91849e-23 -0.0117791 -0.000294863 -8.91849e-23 -0.0112574
-0.000304774 -4.46494e-23 -0.0112574 -0.000304774 -4.46494e-23 -0.0107101 -0.000317198 4.44099e-23 -0.0107101 -0.000317198
4.44099e-23 -0.0101333 -0.000331497 1.99219e-25 -0.0101333 -0.000331497 1.99219e-25 -0.0095243 -0.00034672 -4.45262e-23
-0.0095243 -0.00034672 -4.45262e-23 -0.0088825 -0.000361653 4.42767e-23 -0.0088825 -0.000361653 4.42767e-23 -0.00820953
-0.000374945 4.44374e-23 -0.00820953 -0.000374945 4.44374e-23 -0.00750949 -0.000385312 0 -0.00750949 -0.000385312
0 -0.00678856 -0.000391784 -4.4068e-23 -0.00678856 -0.000391784 -4.4068e-23 -0.00605411 -0.000393886 -4.42319e-23
-0.00605411 -0.000393886 -4.42319e-23 -0.00531354 -0.000391662 4.38345e-23 -0.00531354 -0.000391662 4.38345e-23 -0.00457358
-0.000385556 4.40001e-23 -0.00457358 -0.000385556 4.40001e-23 -0.00384004 -0.000376289 -4.35058e-23 -0.00384004 -0.000376289
-4.35058e-23 -0.00311783 -0.000364762 -8.69786e-23 -0.00311783 -0.000364762 -8.69786e-23 -0.00241063 -0.000351844 -8.65569e-23
-0.00241063 -0.000351844 -8.65569e-23 -0.00172063 -0.000337989 -1.28932e-22 -0.00172063 -0.000337989 -1.28932e-22 -0.00104887
-0.000324009 -8.61236e-25 -0.00104887 -0.000324009 -8.61236e-25 -0.000398169 -0.00031034 8.54934e-23 -0.000398169 -0.00031034
8.54934e-23 0.000229821 -0.000296526 0 0.000229821 -0.000296526 0 0.000837524 -0.000282405 0
0.000837524 -0.000282405 0 0.00142491 -0.000267823 8.24797e-23 0.00142491 -0.000267823 8.24797e-23 0.0019893
-0.000252564 1.6454e-22 0.0019893 -0.000252564 1.6454e-22 0.00252862 -0.000236533 1.11135e-24 0.00252862 -0.000236533
1.11135e-24 0.00304069 -0.000219772 -8.12836e-23 0.00304069 -0.000219772 -8.12836e-23 0.00352355 -0.000202446 7.93482e-23
0.00352355 -0.000202446 7.93482e-23 0.00397569 -0.000184802 1.58211e-22 0.00397569 -0.000184802 1.58211e-22 0.00439613
-0.000167117 1.56563e-22 0.00439613 -0.000167117 1.56563e-22 0.00478449 -0.000149642 7.8033e-23 0.00478449 -0.000149642
7.8033e-23 0.00514089 -0.000132579 0 0.00514089 -0.000132579 0 0.00546583 -0.000116082 0
0.00546583 -0.000116082 0 0.00576013 -0.000100279 7.4367e-23 0.00576013 -0.000100279 7.4367e-23 0.00602486
-8.52914e-05 7.46925e-23 0.00602486 -8.52914e-05 7.46925e-23 0.00626131 -7.12429e-05 0 0.00626131 -7.12429e-05
0 0.00647098 -5.82586e-05 -7.18964e-23 0.00647098 -5.82586e-05 -7.18964e-23 0.00665565 -4.64442e-05 -7.22175e-23
0.00665565 -4.64442e-05 -7.22175e-23 0.00681726 -3.58647e-05 0 0.00681726 -3.58647e-05 0 0.00695794
-2.65393e-05 -6.94882e-23 0.00695794 -2.65393e-05 -6.94882e-23 0.00707988 -1.84295e-05 -6.98047e-23 0.00707988 -1.84295e-05
-6.98047e-23 0.00718525 -1.14528e-05 0 0.00718525 -1.14528e-05 0 0.00727612 -5.50714e-06 6.71534e-23
0.00727612 -5.50714e-06 6.71534e-23 0.00735436 -4.52654e-07 1.33857e-22 0.00735436 -4.52654e-07 1.33857e-22 0.00742164
3.84118e-06 6.67015e-23 0.00742164 3.84118e-06 6.67015e-23 0.00747941 7.48349e-06 -6.48911e-23 0.00747941 7.48349e-06
-6.48911e-23 0.00752886 1.06268e-05 -6.51979e-23 0.00752886 1.06268e-05 -6.51979e-23 0.00757099 1.33477e-05 6.34206e-23
0.00757099 1.33477e-05 6.34206e-23 0.00760667 1.57239e-05 6.37241e-23 0.00760667 1.57239e-05 6.37241e-23 0.00763648
1.79145e-05 6.19782e-23 0.00763648 1.79145e-05 6.19782e-23 0.00766098 1.99393e-05 1.23545e-22 0.00766098 1.99393e-05
1.23545e-22 0.00768041 2.19175e-05 6.15653e-23 0.00768041 2.19175e-05 6.15653e-23 0.00769453 2.41125e-05 0
0.00769453 2.41125e-05 0 0.00770329 2.65409e-05 0 0.00770329 2.65409e-05 0 0.00770664
2.90348e-05 0 0.00770664 2.90348e-05 0 0.00770438 3.14663e-05 0 0.00770438 3.14663e-05
0 0.00769646 3.37542e-05 0 0.00769646 3.37542e-05 0 0.00768308 3.57423e-05 0
0.00768308 3.57423e-05 0 0.00766462 3.72221e-05 5.57877e-23 0.00766462 3.72221e-05 5.57877e-23 0.00764165
3.80718e-05 9.45417e-25 0.00764165 3.80718e-05 9.45417e-25 0.00761488 3.82678e-05 -5.54085e-23 0.00761488 3.82678e-05
-5.54085e-23 0.00758511 3.78439e-05 0 0.00758511 3.78439e-05 0 0.00755317 3.6876e-05 0
0.00755317 3.6876e-05 0 0.00751991 3.54644e-05 0 0.00751991 3.54644e-05 0 0.00748606
3.37207e-05 -1.03775e-22 0.00748606 3.37207e-05 -1.03775e-22 0.00745228 3.17543e-05 -1.0432e-22 0.00745228 3.17543e-05
-1.0432e-22 0.00741912 2.9662e-05 1.01244e-22 0.00741912 2.9662e-05 1.01244e-22 0.007387 2.75274e-05 1.79097e-24
0.007387 2.75274e-05 1.79097e-24 0.00735625 2.54153e-05 -1.00523e-22 0.00735625 2.54153e-05 -1.00523e-22 0.0073271
2.33713e-05 0 0.0073271 2.33713e-05 0 0.00729971 2.14295e-05 0 0.00729971 2.14295e-05
0 0.00727413 1.9614e-05 9.50501e-23 0.00727413 1.9614e-05 9.50501e-23 0.00725041 1.79369e-05 1.894e-22
0.00725041 1.79369e-05 1.894e-22 0.00722851 1.64015e-05 9.43455e-23 0.00722851 1.64015e-05 9.43455e-23 0.00720839
1.50075e-05 9.14202e-23 0.00720839 1.50075e-05 9.14202e-23 0.00718998 1.37541e-05 1.82148e-22 0.00718998 1.37541e-05
1.82148e-22 0.00717317 1.26375e-05 1.68934e-24 0.00717317 1.26375e-05 1.68934e-24 0.00715788 1.16469e-05 -8.95286e-23
0.00715788 1.16469e-05 -8.95286e-23 0.00714398 1.07673e-05 0 0.00714398 1.07673e-05 0 0.00713138
9.98766e-06 -8.55011e-23 0.00713138 9.98766e-06 -8.55011e-23 0.00711998 9.30613e-06 -8.59826e-23 0.00711998 9.30613e-06
-8.59826e-23 0.00710967 8.72545e-06 0 0.00710967 8.72545e-06 0 0.00710033 8.24003e-06 0
0.00710033 8.24003e-06 0 0.00709186 7.82711e-06 0 0.00709186 7.82711e-06 0 0.00708417
7.45065e-06 7.97307e-23 0.00708417 7.45065e-06 7.97307e-23 0.00707723 7.07638e-06 1.58782e-22 0.00707723 7.07638e-06
1.58782e-22 0.00707106 6.68709e-06 7.90468e-23 0.00707106 6.68709e-06 7.90468e-23 0.00706569 6.28874e-06 7.63335e-23
0.00706569 6.28874e-06 7.63335e-23 0.00706112 5.90446e-06 7.67777e-23 0.00706112 5.90446e-06 7.67777e-23 0.00705735
5.56222e-06 0 0.00705735 5.56222e-06 0 0.00705428 5.28272e-06 7.29819e-23 0.00705428 5.28272e-06
7.29819e-23 0.00705183 5.07421e-06 7.34114e-23 0.00705183 5.07421e-06 7.34114e-23 0.00704986 4.9328e-06 7.07714e-23
0.00704986 4.9328e-06 7.07714e-23 0.00704826 4.8484e-06 7.11911e-23 0.00704826 4.8484e-06 7.11911e-23 0.00704689
4.80982e-06 0 0.00704689 4.80982e-06 0 0.00704564 4.80976e-06 6.74902e-23 0.00704564 4.80976e-06
6.74902e-23 0.00704433 4.84733e-06 6.78947e-23 0.00704433 4.84733e-06 6.78947e-23 0.00704288 4.9258e-06 6.53249e-23
0.00704288 4.9258e-06 6.53249e-23 0.00704101 5.05974e-06 6.57193e-23 0.00704101 5.05974e-06 6.57193e-23 0.00703865