/*--------------------------------*- C++ -*----------------------------------*\
  =========                 |
  \\      /  F ield         | OpenFOAM: The Open Source CFD Toolbox
   \\    /   O peration     | Website:  https://openfoam.org
    \\  /    A nd           | Version:  9
     \\/     M anipulation  |
\*---------------------------------------------------------------------------*/
FoamFile
{
    format      ascii;
    class       volScalarField;
    location    "0.053";
    object      k_0;
}
// * * * * * * * * * * * * * * * * * * * * * * * * * * * * * * * * * * * * * //

dimensions      [0 2 -2 0 0 0 0];

internalField   nonuniform List<scalar> 
12225
(
2.18981e-05
8.66987e-05
0.000190231
0.000211682
0.000195483
0.000119894
6.58955e-05
4.86777e-05
4.67081e-05
4.92276e-05
5.14159e-05
5.10884e-05
4.72544e-05
4.10762e-05
3.76756e-05
3.66375e-05
3.5247e-05
0.000104835
2.01167e-05
2.41526e-05
3.72228e-05
4.4743e-05
4.5448e-05
4.17632e-05
3.30562e-05
2.92673e-05
2.87025e-05
2.9597e-05
3.27967e-05
3.45103e-05
3.4761e-05
3.44587e-05
3.31063e-05
3.22169e-05
3.19173e-05
3.54039e-05
2.00233e-05
1.92692e-05
1.74513e-05
1.55351e-05
1.5108e-05
1.51463e-05
1.54847e-05
1.64847e-05
1.74522e-05
1.82184e-05
1.86579e-05
1.87725e-05
1.86966e-05
1.81611e-05
1.76606e-05
1.75757e-05
1.76656e-05
1.8013e-05
2.01076e-05
2.00324e-05
1.98998e-05
1.95992e-05
1.83421e-05
1.70226e-05
1.70771e-05
1.72135e-05
1.71405e-05
1.64862e-05
1.57255e-05
1.54758e-05
1.54808e-05
1.55072e-05
1.55722e-05
1.5655e-05
1.57574e-05
1.57519e-05
2.5784e-05
2.49815e-05
2.33524e-05
2.11428e-05
2.03229e-05
2.00834e-05
2.00479e-05
2.00042e-05
1.99472e-05
1.99991e-05
2.00406e-05
1.99155e-05
1.98342e-05
1.99798e-05
2.11752e-05
2.37313e-05
2.48778e-05
2.49751e-05
3.1867e-05
2.50425e-05
2.16879e-05
2.13454e-05
2.13196e-05
2.11524e-05
2.10019e-05
2.10292e-05
2.14637e-05
2.34514e-05
2.43835e-05
2.41868e-05
2.42101e-05
2.55558e-05
2.7913e-05
2.84605e-05
2.83626e-05
2.78741e-05
2.14794e-05
2.14549e-05
2.14748e-05
2.26913e-05
2.42944e-05
2.44805e-05
2.39129e-05
2.34145e-05
2.36517e-05
2.6406e-05
3.58943e-05
3.99568e-05
3.97933e-05
3.68818e-05
3.12972e-05
2.76674e-05
2.56175e-05
2.44901e-05
2.04794e-05
2.0793e-05
2.10129e-05
2.20935e-05
2.66158e-05
2.99154e-05
2.99145e-05
2.68695e-05
2.39397e-05
2.3439e-05
2.38445e-05
2.59128e-05
3.26869e-05
3.78029e-05
3.92006e-05
3.90698e-05
3.79685e-05
3.39566e-05
2.00041e-05
2.0098e-05
2.07673e-05
2.4717e-05
3.46021e-05
3.69207e-05
3.46198e-05
2.85424e-05
2.51145e-05
2.36995e-05
2.35781e-05
2.39894e-05
2.52741e-05
2.83773e-05
2.98525e-05
3.01088e-05
3.00141e-05
2.95885e-05
2.00042e-05
2.00864e-05
2.08471e-05
2.45641e-05
2.78272e-05
2.83092e-05
2.75141e-05
2.52847e-05
2.44824e-05
2.44946e-05
2.53251e-05
2.68509e-05
2.76482e-05
2.79676e-05
2.79979e-05
2.7874e-05
2.78114e-05
2.78976e-05
2.03561e-05
2.00585e-05
2.0083e-05
2.02218e-05
2.05152e-05
2.13264e-05
2.31492e-05
2.45597e-05
2.5362e-05
2.57181e-05
2.58293e-05
2.58201e-05
2.55689e-05
2.47291e-05
2.40343e-05
2.37037e-05
2.36334e-05
2.3706e-05
2.06868e-05
2.02676e-05
2.01293e-05
2.01587e-05
2.05484e-05
2.2876e-05
2.62857e-05
2.66017e-05
2.59727e-05
2.5364e-05
2.52247e-05
2.52435e-05
2.53204e-05
2.53204e-05
2.52839e-05
2.51388e-05
2.45395e-05
2.39935e-05
2.52073e-05
2.51368e-05
2.29194e-05
2.10114e-05
2.12387e-05
2.43775e-05
3.27419e-05
3.43752e-05
3.10784e-05
2.61112e-05
2.45791e-05
2.43616e-05
2.45755e-05
2.50811e-05
2.52475e-05
2.5241e-05
2.50203e-05
2.42725e-05
2.28606e-05
2.44079e-05
2.3826e-05
2.3649e-05
2.60761e-05
2.60879e-05
2.3948e-05
2.25183e-05
2.18249e-05
2.16268e-05
2.16667e-05
2.21646e-05
2.32522e-05
2.381e-05
2.39509e-05
2.39188e-05
2.35226e-05
2.28336e-05
2.05329e-05
2.80976e-05
3.47571e-05
3.44081e-05
2.79088e-05
2.32694e-05
2.17228e-05
2.10601e-05
2.08209e-05
2.07942e-05
2.08798e-05
2.13991e-05
2.20781e-05
2.23797e-05
2.24425e-05
2.24072e-05
2.21076e-05
2.1533e-05
2.06724e-05
2.21817e-05
2.61801e-05
2.75007e-05
2.53245e-05
2.21287e-05
2.13687e-05
2.14284e-05
2.27879e-05
2.6528e-05
2.72255e-05
2.65979e-05
2.53153e-05
2.48351e-05
2.46873e-05
2.46127e-05
2.44955e-05
2.41607e-05
2.11011e-05
2.08087e-05
2.10011e-05
2.141e-05
2.14834e-05
2.083e-05
2.06232e-05
2.0751e-05
2.20381e-05
2.54177e-05
2.65455e-05
2.63092e-05
2.5115e-05
2.46655e-05
2.47358e-05
2.52094e-05
2.54854e-05
2.55205e-05
2.26658e-05
2.24172e-05
2.07618e-05
2.02986e-05
2.02516e-05
2.02866e-05
2.04548e-05
2.10103e-05
2.32474e-05
2.56117e-05
2.59191e-05
2.46633e-05
2.28579e-05
2.23289e-05
2.22724e-05
2.24028e-05
2.26565e-05
2.28633e-05
2.07161e-05
2.15587e-05
2.16407e-05
2.13881e-05
2.10571e-05
2.10022e-05
2.10688e-05
2.1442e-05
2.18117e-05
2.18485e-05
2.1489e-05
2.12223e-05
2.12199e-05
2.14451e-05
2.2148e-05
2.27044e-05
2.2989e-05
2.30487e-05
2.03638e-05
2.04616e-05
2.04465e-05
2.04983e-05
2.09722e-05
2.22383e-05
2.29539e-05
2.31623e-05
2.31347e-05
2.28148e-05
2.25458e-05
2.25282e-05
2.27147e-05
2.3659e-05
2.44232e-05
2.4593e-05
2.45174e-05
2.39463e-05
2.02261e-05
2.08067e-05
2.10799e-05
2.1153e-05
2.11139e-05
2.09175e-05
2.08401e-05
2.08327e-05
2.0863e-05
2.10478e-05
2.18304e-05
2.52314e-05
3.0524e-05
3.23549e-05
3.19324e-05
2.87312e-05
2.5114e-05
2.31018e-05
2.00915e-05
2.05534e-05
2.09976e-05
2.1118e-05
2.13298e-05
2.15919e-05
2.15317e-05
2.14265e-05
2.14132e-05
2.14063e-05
2.14923e-05
2.18422e-05
2.27588e-05
2.53236e-05
2.85912e-05
3.06013e-05
3.08261e-05
2.92601e-05
2.02239e-05
2.0742e-05
2.14729e-05
2.24095e-05
2.54535e-05
3.31627e-05
3.6038e-05
3.58515e-05
3.36439e-05
2.69882e-05
2.3683e-05
2.27992e-05
2.28188e-05
2.36994e-05
2.75081e-05
3.13951e-05
3.24339e-05
3.14217e-05
2.02173e-05
2.0777e-05
2.14284e-05
2.32179e-05
3.45161e-05
5.99803e-05
6.35655e-05
5.21209e-05
3.34975e-05
2.59999e-05
2.36313e-05
2.32674e-05
2.36182e-05
2.58515e-05
2.85444e-05
2.91541e-05
2.84931e-05
2.6863e-05
2.03441e-05
2.04187e-05
2.34494e-05
3.79722e-05
4.6144e-05
4.1381e-05
2.86612e-05
2.3279e-05
2.13198e-05
2.06916e-05
2.05192e-05
2.04941e-05
2.05175e-05
2.06453e-05
2.10244e-05
2.19135e-05
2.40832e-05
2.82161e-05
2.01577e-05
2.14976e-05
2.39121e-05
2.45591e-05
2.33911e-05
2.14622e-05
2.07409e-05
2.05254e-05
2.04669e-05
2.04462e-05
2.04314e-05
2.04253e-05
2.0433e-05
2.0473e-05
2.05798e-05
2.08504e-05
2.15461e-05
2.24182e-05
2.00038e-05
2.01435e-05
2.05299e-05
2.06387e-05
2.06245e-05
2.05494e-05
2.03993e-05
2.00709e-05
1.9423e-05
1.88947e-05
1.86646e-05
1.8657e-05
1.87909e-05
1.89097e-05
1.88852e-05
1.87243e-05
1.87092e-05
1.887e-05
2.002e-05
1.84174e-05
1.26834e-05
9.10527e-06
9.32196e-06
1.12523e-05
1.39897e-05
1.53802e-05
1.57658e-05
1.57304e-05
1.51732e-05
1.4024e-05
1.34203e-05
1.32179e-05
1.32022e-05
1.33162e-05
1.39205e-05
1.54397e-05
2.48302e-05
2.44406e-05
2.25786e-05
2.1583e-05
2.21008e-05
2.54529e-05
3.17277e-05
3.45603e-05
3.49929e-05
3.47967e-05
3.36907e-05
3.21721e-05
3.15802e-05
3.1493e-05
3.1567e-05
3.20664e-05
3.41095e-05
3.88733e-05
0.000372037
0.000348598
0.000275383
0.000113964
6.46689e-05
5.98467e-05
6.7212e-05
7.76658e-05
8.16457e-05
8.2242e-05
8.12885e-05
7.57077e-05
7.06819e-05
6.96674e-05
7.05086e-05
7.68937e-05
9.0464e-05
9.81021e-05
0.0819581
0.07997
0.0772988
0.0776979
0.0778702
0.0741069
0.0741626
0.0701278
0.0627751
0.0585681
0.0566532
0.0551062
0.0545268
0.0554963
0.0594605
0.0612557
0.0596966
0.0559902
0.0540982
0.0529609
0.0520257
0.0515024
0.0515794
0.0530258
0.0555157
0.0591017
0.06344
0.0679135
0.0720719
0.0758888
0.0792378
0.0818982
0.0841974
0.0863089
0.0873615
0.0878441
0.0880951
0.0876186
0.0860152
0.083693
0.0772899
0.0672576
0.0546984
0.0748034
0.20328
0.27574
0.283609
0.268708
0.22997
0.215954
0.210414
0.204628
0.199907
0.197712
0.202546
0.204549
0.205038
0.199935
0.193698
0.188598
0.188224
0.191045
0.192959
0.196224
0.219732
0.245117
0.268302
0.354143
0.452755
0.468805
0.435996
0.297422
0.139923
0.0558966
0.0285654
0.0214224
0.0196802
0.0195344
0.0198738
0.0201463
0.0202866
0.0203008
0.0200998
0.0196938
0.019184
0.0183799
0.017342
0.0161365
0.0148138
0.0133235
0.0116008
0.0101951
0.0085219
0.00727338
0.00603737
0.00499522
0.00439539
0.00372582
0.00342894
0.00330675
0.00330075
0.00331641
0.00333419
0.00335287
0.00337288
0.00339242
0.00341005
0.00342438
0.00343691
0.00344678
0.00345393
0.00345876
0.0034619
0.00346289
0.00346078
0.00345305
0.00343794
0.0034202
0.00340148
0.00337559
0.00334234
0.00331064
0.00327256
0.00323196
0.00318911
0.00314498
0.00309943
0.00305089
0.0029964
0.00292529
0.0028212
0.00269262
0.00254333
0.00238413
0.00223387
0.0021173
0.00202744
0.00196935
0.00191475
0.00187078
0.00186642
0.00188211
0.00190525
0.00190924
0.00189599
0.00186061
0.00182141
0.00178176
0.00174934
0.00172401
0.0016968
0.0016663
0.0016327
0.00160043
0.00157817
0.0015697
0.00156954
0.00157404
0.00158341
0.00158014
0.00150915
0.00112108
0.000674346
0.000515556
0.000492266
0.000499977
0.000502977
0.000490001
0.000420709
0.00025984
0.000150921
9.50442e-05
6.39049e-05
4.97979e-05
4.77785e-05
5.84915e-05
5.91034e-05
4.36666e-05
5.05468e-05
2.14082e-05
0.0837088
0.0723118
0.0889186
0.0942334
0.0892378
0.076443
0.0632304
0.0589133
0.0555586
0.0514996
0.0470503
0.0453517
0.0456008
0.0468082
0.0497344
0.0518731
0.052246
0.0523401
0.0549455
0.058619
0.0658451
0.0803375
0.0938103
0.099932
0.103671
0.105522
0.107264
0.108144
0.108499
0.108606
0.108485
0.108352
0.108417
0.108821
0.109295
0.11017
0.111131
0.111803
0.111942
0.111293
0.107724
0.0982894
0.0729024
0.0634873
0.108351
0.247306
0.324782
0.33077
0.289415
0.274614
0.273275
0.274124
0.27462
0.281252
0.286606
0.286606
0.279744
0.268628
0.246548
0.20966
0.187633
0.188954
0.199105
0.203368
0.204674
0.213156
0.247287
0.350375
0.429036
0.415002
0.256996
0.118923
0.052398
0.0261635
0.0172699
0.0140166
0.0126257
0.0118431
0.0112398
0.0107223
0.0102586
0.00976405
0.00921752
0.0086171
0.00800526
0.00731961
0.00662307
0.0059671
0.00537028
0.00478502
0.00425514
0.00395131
0.00360985
0.0034535
0.00336779
0.00334254
0.00338303
0.00350809
0.00362004
0.00377804
0.00399415
0.0041964
0.00441246
0.00462956
0.0048401
0.00503529
0.00521233
0.00536108
0.00548804
0.00560032
0.00569303
0.00575941
0.0058064
0.0058287
0.00583445
0.00582585
0.00578146
0.00571511
0.00561877
0.00548812
0.00532849
0.00513516
0.00491218
0.00466444
0.00440925
0.00417302
0.00398177
0.0038469
0.00377094
0.00375349
0.00379842
0.00388176
0.00393066
0.00393102
0.00387524
0.00367739
0.00341435
0.00317357
0.0029755
0.00282175
0.00270806
0.00262701
0.00257062
0.00253217
0.00250602
0.00248693
0.00246792
0.00243868
0.00238885
0.00231433
0.00222213
0.00213327
0.00207171
0.00202858
0.00195249
0.00182154
0.00168027
0.00158267
0.00154598
0.00153832
0.00152973
0.00150393
0.00148347
0.0014844
0.0014901
0.00150142
0.00153316
0.00160344
0.00163664
0.00163696
0.00162222
0.00158765
0.00152641
0.00136657
0.00109913
0.000875542
0.000727782
0.000531196
0.000452869
0.000275076
0.0943743
0.074582
0.0776856
0.0871304
0.0828058
0.0650698
0.0575134
0.0579611
0.057231
0.0533114
0.0490849
0.0472845
0.0481399
0.050203
0.053873
0.0589264
0.0679473
0.0792086
0.0899082
0.0965236
0.0999443
0.101199
0.101372
0.100158
0.0992498
0.0972021
0.0938085
0.0910184
0.0888723
0.0875092
0.0869491
0.0868796
0.0880176
0.0892921
0.0913307
0.0945424
0.0974082
0.100331
0.101605
0.102112
0.101674
0.0956266
0.0828162
0.077012
0.0810284
0.0984406
0.144829
0.264114
0.303363
0.309785
0.309007
0.304153
0.303976
0.310205
0.315822
0.313843
0.303445
0.290526
0.276606
0.246899
0.193183
0.168008
0.175333
0.202042
0.208451
0.213586
0.241427
0.269025
0.223344
0.127009
0.0562939
0.0275498
0.0159566
0.0118059
0.0103246
0.00969105
0.00919566
0.00866532
0.00805255
0.00742273
0.00669987
0.00592889
0.00518269
0.00455099
0.00404022
0.00353105
0.00315145
0.0028183
0.00259131
0.00247756
0.00242785
0.00242104
0.00250206
0.00272908
0.00300331
0.00337472
0.00385115
0.00445149
0.00525168
0.00618692
0.00716256
0.00809369
0.00893907
0.00970563
0.0103922
0.0109875
0.0115053
0.0119816
0.0123825
0.0127674
0.0131002
0.0133961
0.0136684
0.0139121
0.0141093
0.0142651
0.0143501
0.0143869
0.0143232
0.0141277
0.0137679
0.0132083
0.0124229
0.0113748
0.0100655
0.00854213
0.00699581
0.00571683
0.00463276
0.00384555
0.00343038
0.0033195
0.00340311
0.00375097
0.00404991
0.00418331
0.00420607
0.00417576
0.00401687
0.00377264
0.00356682
0.00340606
0.00329545
0.00323464
0.00321186
0.00320703
0.00320426
0.00319554
0.00316521
0.00308753
0.00293764
0.00269274
0.0023614
0.00202188
0.0017733
0.00164354
0.00158667
0.0014979
0.00131944
0.00119095
0.00113532
0.00110573
0.00107358
0.00102419
0.000973582
0.00095173
0.000956894
0.00101567
0.00121626
0.00140998
0.00152165
0.00156601
0.00157504
0.00157217
0.00155621
0.00150983
0.00139155
0.00109867
0.000918345
0.000638534
0.100933
0.0870061
0.0835031
0.0770152
0.0624926
0.0561014
0.0575019
0.0679577
0.0656771
0.0635566
0.0648129
0.0664757
0.0710169
0.0755652
0.0809757
0.0863386
0.0903458
0.0920448
0.0927432
0.0927986
0.0886272
0.0820265
0.072395
0.0636226
0.0556772
0.0503451
0.0461855
0.0443092
0.0435103
0.0433501
0.0444811
0.0459506
0.0480792
0.0509526
0.0540635
0.0581482
0.0617566
0.0664163
0.0718427
0.0777442
0.0834852
0.0900592
0.0966434
0.103348
0.109648
0.112594
0.11244
0.114623
0.126533
0.151708
0.179969
0.20724
0.225827
0.245991
0.261218
0.26358
0.261798
0.255833
0.251149
0.242021
0.205367
0.148179
0.107159
0.108161
0.127179
0.141742
0.136636
0.105934
0.0647661
0.0327509
0.0178666
0.0119978
0.00979865
0.00892811
0.00825374
0.00759078
0.00685911
0.00606179
0.00546477
0.00484472
0.00430559
0.00386363
0.00342263
0.00316073
0.00292949
0.00276315
0.00269816
0.00267649
0.00269104
0.00288361
0.00325751
0.00387292
0.0048295
0.00619804
0.00798827
0.00970743
0.0112914
0.0129225
0.0142111
0.0153578
0.0163148
0.0171008
0.0177039
0.018051
0.0182884
0.0184876
0.0185835
0.0186237
0.0187212
0.0187553
0.0188426
0.0189508
0.0190824
0.0192475
0.0194326
0.0196423
0.0198685
0.0201172
0.0203833
0.0206666
0.0209645
0.0212078
0.0214443
0.0215927
0.0215197
0.0210132
0.0197078
0.0172424
0.0138384
0.00988352
0.00644769
0.00423353
0.00304627
0.0026724
0.00272278
0.00331283
0.00400713
0.00432605
0.00443437
0.00445554
0.00445032
0.00440618
0.00434665
0.00431711
0.00431247
0.0043268
0.00438182
0.00443202
0.00445672
0.00445742
0.00442297
0.00432385
0.00413639
0.00376444
0.00320891
0.00265811
0.00227739
0.0020713
0.00196863
0.00190904
0.00184499
0.00171394
0.00136882
0.000938956
0.000656159
0.000562186
0.000563725
0.000622433
0.000822179
0.0010257
0.00116806
0.00126623
0.00132716
0.00135691
0.00136501
0.00136101
0.00133443
0.00122114
0.00111828
0.000886627
0.0850986
0.0626868
0.0559081
0.0530232
0.0546847
0.059057
0.0686066
0.0725296
0.0759147
0.0784385
0.0804493
0.0813856
0.0828103
0.0837781
0.0846274
0.0849254
0.0832718
0.0774073
0.0671919
0.0551754
0.0439654
0.0362816
0.0301242
0.027109
0.0242596
0.0229408
0.022152
0.0218518
0.0217917
0.0222866
0.0228267
0.0238734
0.0251338
0.0267605
0.0288745
0.0314497
0.0353741
0.0397663
0.0454722
0.0529102
0.0619682
0.0728876
0.0858152
0.0990348
0.111186
0.122659
0.131695
0.136708
0.138527
0.138245
0.135872
0.131656
0.127779
0.124068
0.122859
0.12321
0.127881
0.134763
0.136257
0.134941
0.129162
0.110972
0.0703703
0.0651421
0.0719546
0.0702023
0.0565175
0.0380106
0.0216257
0.0134761
0.00998894
0.00850896
0.00772211
0.00704439
0.00632744
0.00566643
0.00489855
0.00434901
0.00381907
0.00342343
0.00312677
0.00290795
0.00279574
0.00275214
0.0027439
0.00278569
0.00291613
0.00328888
0.0040354
0.00543378
0.00764094
0.00963023
0.0114201
0.0133391
0.0145843
0.0158777
0.0174555
0.0184935
0.0198951
0.0208944
0.0216762
0.0223345
0.0225488
0.0225918
0.0225234
0.0222769
0.0220573
0.0217219
0.0215788
0.0213358
0.0211995
0.0211046
0.021058
0.0210395
0.0210438
0.0210626
0.021089
0.0211432
0.021239
0.0213592
0.0215135
0.0217764
0.0221747
0.0227536
0.0234006
0.0239901
0.0244875
0.0248008
0.0247385
0.0236324
0.0199016
0.0138917
0.0080541
0.00435437
0.00255562
0.0020369
0.00210452
0.00287218
0.00378728
0.00422287
0.00443898
0.00455969
0.00462041
0.00464752
0.00466056
0.00467853
0.00470393
0.00472467
0.00473577
0.00473725
0.00472507
0.0046497
0.00451308
0.00439948
0.00420704
0.00372307
0.00300558
0.00245104
0.00215059
0.00203748
0.00200752
0.00198481
0.00191939
0.00166812
0.00139959
0.00128793
0.00126038
0.0012714
0.00129773
0.00129571
0.00126623
0.00113789
0.00103668
0.00102229
0.00102872
0.00105602
0.0010954
0.00112659
0.00118408
0.00116326
0.0629113
0.0447595
0.0438137
0.047188
0.0616092
0.0685377
0.0722366
0.076088
0.07853
0.0797855
0.0803221
0.0804536
0.0795937
0.0767208
0.0710608
0.060006
0.048615
0.0366291
0.0291636
0.0235351
0.0195444
0.0172067
0.0155443
0.0147688
0.014248
0.0140182
0.0139036
0.01386
0.0138676
0.0138978
0.0140059
0.0140268
0.0139958
0.0138882
0.0137862
0.0136753
0.0136099
0.0138043
0.0141393
0.0152363
0.0169111
0.0201623
0.025354
0.0337686
0.0465487
0.063045
0.0854312
0.108771
0.125267
0.133114
0.140099
0.141537
0.141344
0.139463
0.130387
0.113182
0.103177
0.0977955
0.0967468
0.0988401
0.106851
0.0971475
0.0513003
0.0415547
0.0417861
0.0354855
0.0251973
0.0164601
0.0112604
0.00888434
0.00782029
0.00712104
0.00644411
0.0056463
0.00508295
0.00436379
0.00374146
0.00322885
0.0029415
0.00272754
0.00262625
0.00259889
0.00268191
0.00277692
0.00294474
0.00335432
0.00422947
0.00593605
0.00826121
0.010094
0.0117225
0.0129889
0.0149958
0.0171663
0.0194506
0.0220182
0.0249869
0.028112
0.0296711
0.0301688
0.0301817
0.0293067
0.0277683
0.0263859
0.0253519
0.0244897
0.023908
0.0232506
0.0229594
0.0225977
0.0223813
0.0222597
0.0222109
0.0222107
0.0222418
0.0222624
0.0222518
0.0221744
0.0220085
0.0217927
0.0215836
0.021449
0.0213664
0.021327
0.0216232
0.0224831
0.0236023
0.0247874
0.0257456
0.0263728
0.0265441
0.0259712
0.0225604
0.0145365
0.00761623
0.00361408
0.00187876
0.00151276
0.0016601
0.00259349
0.00364685
0.00418596
0.00445058
0.00458288
0.00466223
0.0047172
0.00474943
0.00476377
0.00476711
0.00476584
0.00475771
0.00473572
0.00468465
0.00452748
0.00436632
0.0042385
0.0039829
0.0033122
0.00260962
0.00220049
0.00202853
0.00197087
0.00194975
0.0019316
0.00189515
0.00177357
0.00157977
0.00148083
0.00146931
0.00148304
0.00148515
0.00146386
0.00141014
0.00134218
0.00123918
0.00116158
0.00114806
0.00115698
0.00120135
0.00130919
0.0372483
0.0396145
0.0497576
0.0611914
0.0662222
0.069621
0.0733561
0.0755243
0.0763545
0.0761654
0.0734509
0.0682826
0.0579817
0.0474534
0.0362729
0.0282485
0.0220255
0.0183094
0.0156344
0.0143153
0.0136179
0.0133212
0.0132217
0.0132399
0.0134069
0.0135385
0.0137346
0.0138541
0.0139833
0.0140758
0.0141376
0.01405
0.0137448
0.0132618
0.0126611
0.0119077
0.0110663
0.0102795
0.00913471
0.00840088
0.00735984
0.00669607
0.00637602
0.00706485
0.0091262
0.0136699
0.0227337
0.0403955
0.0669704
0.0805495
0.10053
0.124892
0.13982
0.143784
0.143037
0.135694
0.108129
0.0854971
0.0806663
0.0876397
0.1028
0.0818814
0.035404
0.0278875
0.0254923
0.0197358
0.0139417
0.0101713
0.00826698
0.00737065
0.0068456
0.00619017
0.00534768
0.0046967
0.00411128
0.00337152
0.00287479
0.0025808
0.00245423
0.0024072
0.00249044
0.00259602
0.00277337
0.00309591
0.00381016
0.00524672
0.00775072
0.00972982
0.0113568
0.0129134
0.0143726
0.0168951
0.0207977
0.0256408
0.0322117
0.0380922
0.0403111
0.0410006
0.0400783
0.0359414
0.0322358
0.0300058
0.0277864
0.0257743
0.0242007
0.0230223
0.0223854
0.0218514
0.0216219
0.0214091
0.0213401
0.0213569
0.0214272
0.0215953
0.0218066
0.022043
0.0222526
0.0223749
0.0223972
0.022305
0.022067
0.0217114
0.0213608
0.0210202
0.0206267
0.0203828
0.0204316
0.0210653
0.0228142
0.0249903
0.0266233
0.0274049
0.0274821
0.026524
0.021168
0.011786
0.00555319
0.00239582
0.00129066
0.00114896
0.00134629
0.00232683
0.00344515
0.00405437
0.00438736
0.00456377
0.0046435
0.00466406
0.00466205
0.00463852
0.00453252
0.0043988
0.00434707
0.00434453
0.004344
0.00431352
0.00421174
0.00398311
0.00338558
0.00265729
0.00218795
0.00196555
0.00189547
0.00187875
0.00186802
0.00184857
0.00178287
0.00163756
0.00156156
0.00155273
0.00157141
0.00168652
0.00187478
0.00195051
0.00195032
0.00189863
0.00165714
0.00142636
0.0013947
0.00141883
0.0343844
0.0468573
0.0567828
0.0624368
0.0656872
0.0685746
0.0699091
0.0698975
0.0662473
0.0588467
0.0491693
0.0390943
0.0309392
0.0240369
0.0192141
0.0165578
0.0148295
0.0141071
0.0138254
0.0137748
0.0139721
0.0145129
0.0154381
0.0167096
0.0182309
0.0198071
0.0210872
0.0220318
0.0226021
0.022814
0.0227474
0.0222614
0.0215655
0.020784
0.0193775
0.0178235
0.0162427
0.0146974
0.0121511
0.0103713
0.00833188
0.00634547
0.00487548
0.00398276
0.00350459
0.00388742
0.00599862
0.0119877
0.0257871
0.0501861
0.0792893
0.121727
0.144967
0.150432
0.149327
0.142559
0.113263
0.0823566
0.0752544
0.0856084
0.0974617
0.0656829
0.0259104
0.0199333
0.0169744
0.0127521
0.00961416
0.00790946
0.0071136
0.0066742
0.0060774
0.0052477
0.00440375
0.00385507
0.00328883
0.00266932
0.0023554
0.00224901
0.00223778
0.00234298
0.00250423
0.00270033
0.00314053
0.00403029
0.00586673
0.00866322
0.0106189
0.0120779
0.0134772
0.015528
0.019127
0.0250336
0.0348592
0.047039
0.0518752
0.0533488
0.0524962
0.0449144
0.0386618
0.0351468
0.0292417
0.0242195
0.0210877
0.018743
0.0171794
0.0161127
0.0156344
0.0154911
0.0156693
0.0161401
0.0166672
0.0171297
0.0174512
0.0178643
0.0183168
0.0187764
0.0192892
0.0198645
0.0204156
0.0208883
0.0212187
0.0213434
0.0212408
0.0209326
0.020434
0.0198579
0.0194577
0.0193434
0.0194748
0.0202991
0.0229782
0.0259745
0.027638
0.0280609
0.0277478
0.0249619
0.0155895
0.00759235
0.0032843
0.00144611
0.00089108
0.000874902
0.00107283
0.00187304
0.00302617
0.00370747
0.00405638
0.0041768
0.00418407
0.00415696
0.0040332
0.00382531
0.00372265
0.00371253
0.00376897
0.00392857
0.00396904
0.00394912
0.00384572
0.00342743
0.002629
0.00211592
0.00185813
0.0017712
0.00175688
0.00175059
0.00173713
0.00169302
0.00163252
0.00161778
0.00163209
0.00172837
0.00204342
0.00230948
0.00241815
0.00242758
0.00238447
0.00215773
0.00177042
0.00159068
0.0351371
0.0508502
0.0572864
0.060434
0.061544
0.0612169
0.0576505
0.0523532
0.0436879
0.0364182
0.0287208
0.0223938
0.0186526
0.0159923
0.014816
0.0143628
0.0142424
0.0144351
0.0151302
0.0166435
0.0192759
0.0219217
0.0246126
0.0263881
0.0279952
0.02879
0.0297364
0.0301829
0.0304302
0.0305064
0.0303014
0.0299869
0.0294217
0.0284062
0.0272102
0.0256832
0.0241101
0.0226455
0.0204262
0.0182999
0.0155807
0.0117335
0.00719461
0.0043548
0.00299047
0.00245972
0.00238978
0.00411724
0.0112863
0.0378042
0.0732337
0.122954
0.14712
0.15286
0.150616
0.136951
0.098921
0.0729087
0.0684308
0.0802398
0.0896548
0.0565619
0.0205866
0.0153021
0.0126713
0.00968548
0.00793127
0.0070122
0.00652658
0.00597942
0.00545973
0.00445908
0.0036296
0.00314128
0.00267995
0.00226786
0.00211435
0.00209261
0.00217728
0.00234976
0.00259133
0.0030263
0.00406938
0.00661548
0.00927205
0.0108131
0.0118854
0.0134445
0.0161229
0.0205759
0.0283899
0.0442738
0.0600207
0.0652783
0.0664636
0.0616241
0.0497083
0.0425871
0.032082
0.0226901
0.0195611
0.0182509
0.0172602
0.0162558
0.0152019
0.0141887
0.0134863
0.0131554
0.0130279
0.0132192
0.0136909
0.0144313
0.0153286
0.016158
0.0169009
0.0175303
0.018033
0.0183828
0.0186958
0.0190068
0.0192937
0.0195806
0.019797
0.0198351
0.0197604
0.0193527
0.0188323
0.0185582
0.0184386
0.0184718
0.0189881
0.0212225
0.0252055
0.027603
0.0283357
0.0282099
0.026364
0.0181908
0.00915826
0.0040853
0.00175388
0.00083029
0.000586648
0.000610888
0.000771777
0.00129143
0.00200749
0.00250511
0.00272376
0.00274384
0.0027135
0.00260346
0.00253213
0.00252773
0.00258072
0.00288171
0.00338483
0.00362294
0.00364544
0.00357615
0.0032592
0.00250395
0.00199377
0.00173234
0.00163051
0.00160627
0.00160743
0.00161907
0.00162383
0.00162717
0.00164801
0.00176902
0.00213613
0.00242802
0.00256991
0.00260879
0.00260136
0.00250712
0.0022888
0.00199363
0.0360586
0.0508537
0.0548599
0.05476
0.0504905
0.0455713
0.0423584
0.0357963
0.0290383
0.0235385
0.0188012
0.0162783
0.0150443
0.0145426
0.0144714
0.0147749
0.0158243
0.0183253
0.021574
0.0246879
0.026951
0.0287668
0.0302459
0.0313575
0.0322775
0.0330212
0.0336784
0.0341244
0.0344163
0.0345268
0.0343109
0.0339193
0.0333364
0.0320952
0.0307994
0.0291753
0.0273736
0.0256443
0.0238169
0.0220444
0.0203898
0.0189227
0.015405
0.00874467
0.00442599
0.00245621
0.00186542
0.00180977
0.00402422
0.0146874
0.0487466
0.100659
0.136527
0.147326
0.138766
0.109525
0.0794294
0.0650187
0.0640688
0.0773319
0.0856987
0.0552868
0.0195678
0.0128942
0.0105651
0.00845232
0.00746052
0.00684376
0.00645383
0.00589679
0.00485805
0.00370732
0.00306725
0.00265278
0.00231887
0.00208031
0.00200833
0.00203599
0.00216735
0.00239499
0.00284119
0.00381137
0.00597538
0.00824791
0.0106096
0.012028
0.0137922
0.0165845
0.0209352
0.0292628
0.0478954
0.0698117
0.0770109
0.0782454
0.0717132
0.0561246
0.0392753
0.0244087
0.0194842
0.0183893
0.0185219
0.0196675
0.0211318
0.0218861
0.0208912
0.0181116
0.0153445
0.0137087
0.0129605
0.0127468
0.0128422
0.0131778
0.0138817
0.0149553
0.0161342
0.0171542
0.0179656
0.018494
0.0188598
0.0191433
0.0193441
0.019498
0.0195674
0.0194975
0.0192721
0.0187391
0.0179404
0.0173856
0.0172726
0.0173713
0.0176873
0.0184051
0.0207342
0.0249879
0.027605
0.0284449
0.0283587
0.0267359
0.0191022
0.00989716
0.00453185
0.00194201
0.000872151
0.00044649
0.000347236
0.000368464
0.000469181
0.000737229
0.000938219
0.00102246
0.00102731
0.00101548
0.0010061
0.00101633
0.00107993
0.00129939
0.00199776
0.00276973
0.00319056
0.00328289
0.003225
0.00295906
0.00229425
0.00183024
0.00159371
0.00150312
0.00148347
0.00148696
0.00150966
0.00156249
0.00167939
0.00195668
0.00224582
0.00243982
0.00254008
0.0025761
0.00257692
0.00253531
0.00244665
0.00232985
0.0364092
0.04881
0.0497962
0.0452165
0.0383047
0.0349897
0.031664
0.0257584
0.02095
0.0173662
0.0154361
0.0146606
0.0144448
0.0145667
0.0150701
0.0166999
0.0199761
0.0235042
0.0262123
0.0286694
0.0308586
0.0331912
0.0350018
0.0368245
0.0383634
0.0397464
0.0409642
0.0421895
0.0428763
0.043125
0.0425263
0.0413249
0.0392312
0.0364913
0.0340108
0.0314803
0.0289606
0.0267006
0.0251134
0.0234685
0.0219018
0.02095
0.0203142
0.0177889
0.0102273
0.00444409
0.00209448
0.00143057
0.0014807
0.00409416
0.0161022
0.0581728
0.107031
0.122758
0.108252
0.0786018
0.0667272
0.0620252
0.0634731
0.0777768
0.0834636
0.054951
0.0197114
0.0117809
0.00954537
0.00811436
0.00744044
0.00687995
0.00651862
0.00600192
0.00490743
0.00348468
0.00266663
0.00232969
0.0021409
0.00200732
0.00196969
0.00201171
0.00217407
0.00256996
0.00344605
0.00553303
0.00780829
0.0105652
0.0121531
0.0135036
0.0153628
0.018365
0.0251382
0.0409358
0.0711239
0.0851387
0.0885763
0.0856819
0.064523
0.0354078
0.0224523
0.0184597
0.0180089
0.0196788
0.0245745
0.0319524
0.0395364
0.0435371
0.0433924
0.0360049
0.0261633
0.0192587
0.0154133
0.0136014
0.0129959
0.0129675
0.0132299
0.013909
0.0151982
0.0166637
0.0179022
0.0189608
0.0198434
0.0206004
0.0212697
0.0218019
0.0219717
0.0216336
0.0207149
0.019484
0.0180919
0.0169732
0.0163531
0.0162333
0.0165311
0.0173522
0.0184261
0.0213099
0.025291
0.02769
0.0284243
0.0282919
0.026479
0.0185947
0.00979977
0.00462134
0.00199189
0.000853887
0.000402267
0.000221027
0.000187543
0.000199863
0.000259705
0.000310142
0.000332499
0.000375731
0.000412726
0.000441527
0.000496621
0.000616091
0.00088083
0.00145309
0.00217684
0.00268838
0.00284152
0.00279599
0.00256261
0.00201171
0.00164268
0.00146554
0.00140214
0.00139162
0.0014095
0.00152584
0.00182496
0.00206471
0.00219539
0.00223574
0.00225139
0.00228924
0.00236247
0.0023867
0.00238251
0.00236216
0.0359556
0.045889
0.0453368
0.037391
0.0309894
0.0282666
0.0248382
0.0201965
0.0169489
0.0151994
0.0144974
0.0143372
0.0145095
0.0152267
0.0175837
0.0221708
0.0258951
0.0285603
0.0316374
0.034917
0.0387181
0.0421517
0.0452669
0.0481655
0.0501897
0.0521544
0.0536721
0.0547318
0.0551891
0.0553012
0.0547068
0.0537059
0.0520692
0.049404
0.0451721
0.0397364
0.0325919
0.0269825
0.0246186
0.0234701
0.0224793
0.0213554
0.0211118
0.0207588
0.0183174
0.0103557
0.00426356
0.00182593
0.0011198
0.00130934
0.0046082
0.0192283
0.0646428
0.0896262
0.0923313
0.0678589
0.0635597
0.0674579
0.0703494
0.080436
0.0775855
0.0484577
0.0183322
0.0109127
0.00911555
0.00809853
0.00749873
0.00701109
0.0067161
0.00629593
0.00527133
0.00363088
0.00266833
0.00225517
0.00209124
0.00199288
0.00196421
0.00200179
0.00217907
0.00265997
0.00403593
0.00629992
0.00940639
0.0116104
0.0129731
0.0144193
0.0167755
0.0225286
0.0333905
0.0596675
0.090486
0.0995885
0.0999334
0.0834588
0.0438132
0.0233719
0.0180022
0.0172963
0.0193711
0.0263183
0.0381539
0.0542043
0.0711946
0.0828071
0.0865374
0.0761249
0.0527173
0.0343145
0.0234418
0.0178374
0.0152638
0.0143985
0.0142273
0.0143848
0.0153035
0.0167839
0.0180361
0.0191657
0.0201552
0.0210539
0.0219302
0.0228756
0.0240723
0.0253389
0.025737
0.0242412
0.0211908
0.0184169
0.0166603
0.0160613
0.0160947
0.0167358
0.0177375
0.0190242
0.0221967
0.0256676
0.0276604
0.0281819
0.0279114
0.0254842
0.0168176
0.00893362
0.00432227
0.00191246
0.000797679
0.000351967
0.000179486
0.000115132
0.000104672
0.000105313
0.000108974
0.000122255
0.0001638
0.000196309
0.000231658
0.000320375
0.000484221
0.000660822
0.0010356
0.00167278
0.00216822
0.00234721
0.00232274
0.00212563
0.00171756
0.00146875
0.00136211
0.00134099
0.00136133
0.00150922
0.00184397
0.00203171
0.00207178
0.00205006
0.00195258
0.00193257
0.00197173
0.00211396
0.00220426
0.00224083
0.0346775
0.0426429
0.0413621
0.0320724
0.0255119
0.0230289
0.0210364
0.0174207
0.0153687
0.0145273
0.0143012
0.0143703
0.0150394
0.0168716
0.0207096
0.0248193
0.0282321
0.0324078
0.0374967
0.0426905
0.0475092
0.0510345
0.0534783
0.0552833
0.0562521
0.0576151
0.058415
0.0588158
0.0589425
0.0587191
0.0583204
0.0576285
0.0567257
0.0552261
0.0528202
0.0499542
0.0456716
0.0357302
0.0262125
0.0222128
0.0210009
0.0212407
0.0209391
0.0212601
0.0205612
0.01761
0.00921315
0.00396305
0.00151268
0.000843226
0.00111233
0.00469646
0.0208495
0.0670924
0.0851422
0.0723804
0.0653012
0.0764753
0.0911163
0.0868968
0.0712528
0.0363422
0.0166907
0.0107966
0.00910876
0.00815373
0.00763206
0.00729007
0.00715976
0.00700897
0.00642186
0.00450996
0.00292523
0.00231959