/*--------------------------------*- C++ -*----------------------------------*\
  =========                 |
  \\      /  F ield         | OpenFOAM: The Open Source CFD Toolbox
   \\    /   O peration     | Website:  https://openfoam.org
    \\  /    A nd           | Version:  9
     \\/     M anipulation  |
\*---------------------------------------------------------------------------*/
FoamFile
{
    format      ascii;
    class       volScalarField;
    location    "0.053";
    object      p;
}
// * * * * * * * * * * * * * * * * * * * * * * * * * * * * * * * * * * * * * //

dimensions      [0 2 -2 0 0 0 0];

internalField   nonuniform List<scalar> 
12225
(
823.713
816.058
809.984
804.908
800.175
795.491
790.763
786.016
781.3
776.637
772.019
767.438
762.856
758.255
753.585
748.807
743.683
737.873
824.28
815.972
809.955
804.893
800.159
795.477
790.754
786.016
781.308
776.652
772.04
767.456
762.871
758.259
753.581
748.788
743.689
737.95
824.018
815.746
809.901
804.889
800.172
795.497
790.779
786.048
781.346
776.687
772.061
767.463
762.869
758.255
753.585
748.802
743.761
738.319
822.335
815.388
809.804
804.873
800.173
795.513
790.812
786.094
781.399
776.738
772.108
767.506
762.913
758.303
753.644
748.89
743.966
738.861
819.893
814.871
809.683
804.873
800.215
795.57
790.877
786.165
781.475
776.816
772.185
767.581
762.989
758.387
753.753
749.064
744.297
739.512
819.163
814.446
809.548
804.883
800.259
795.633
790.959
786.26
781.578
776.921
772.29
767.687
763.105
758.525
753.932
749.324
744.715
740.188
818.16
813.874
809.406
804.906
800.337
795.747
791.09
786.398
781.721
777.069
772.442
767.846
763.278
758.725
754.184
749.668
745.209
740.881
816.16
813.362
809.327
804.984
800.461
795.888
791.246
786.563
781.891
777.241
772.619
768.036
763.491
758.978
754.5
750.078
745.75
741.579
814.737
812.98
809.28
805.085
800.632
796.097
791.47
786.793
782.128
777.488
772.876
768.304
763.779
759.302
754.883
750.548
746.332
742.283
815.65
812.866
809.339
805.29
800.887
796.359
791.733
787.064
782.406
777.768
773.161
768.605
764.11
759.68
755.325
751.071
746.948
742.992
813.223
813.041
809.607
805.572
801.206
796.703
792.084
787.415
782.761
778.135
773.543
769.003
764.532
760.138
755.837
751.652
747.609
743.73
815.221
813.49
810.02
805.96
801.616
797.11
792.483
787.814
783.156
778.529
773.945
769.423
764.978
760.622
756.369
752.242
748.257
744.431
817.427
814.496
810.636
806.458
802.103
797.583
792.948
788.28
783.63
779.009
774.432
769.922
765.497
761.171
756.958
752.875
748.938
745.157
821.322
815.832
811.392
807.162
802.793
798.257
793.611
788.927
784.256
779.624
775.05
770.555
766.154
761.862
757.691
753.656
749.767
746.031
825.362
817.408
812.565
808.206
803.776
799.193
794.521
789.817
785.127
780.484
775.907
771.417
767.03
762.763
758.626
754.63
750.781
747.081
818.041
817.111
813.826
809.658
805.192
800.541
795.796
791.033
786.293
781.625
777.036
772.539
768.155
763.902
759.79
755.824
752.007
748.339
822.987
820.641
816.184
811.82
807.276
802.517
797.645
792.79
787.958
783.213
778.568
774.038
769.636
765.377
761.268
757.312
753.509
749.859
834.001
825.417
819.965
815.172
810.322
805.264
800.17
795.071
790.136
785.281
780.547
775.948
771.497
767.207
763.083
759.125
755.331
751.699
821.159
825.111
823.433
819.226
814.329
809.156
803.854
798.553
793.273
788.153
783.215
778.453
773.873
769.487
765.296
761.291
757.473
753.833
840.761
837.088
832.237
826.388
820.164
813.946
807.905
802.053
796.389
790.952
785.76
780.804
776.08
771.585
767.312
763.25
759.377
755.702
858.442
847.877
839.764
832.277
824.968
817.981
811.305
804.941
798.887
793.146
787.715
782.576
777.715
773.108
768.741
764.601
760.664
756.974
865.374
855.465
846.264
837.557
829.168
821.399
814.138
807.314
800.921
794.932
789.3
784.001
779.026
774.338
769.914
765.733
761.799
758.028
867.98
861.865
851.989
842.038
832.761
824.243
816.421
809.172
802.462
796.248
790.455
785.043
779.964
775.202
770.719
766.473
762.502
758.74
881.256
869.182
857.029
845.722
835.58
826.468
818.209
810.658
803.738
797.362
791.436
785.922
780.765
775.928
771.383
767.131
763.093
759.296
895.521
876.346
861.327
848.747
837.772
828.112
819.472
811.647
804.564
798.037
792.02
786.432
781.219
776.342
771.775
767.484
763.451
759.651
901.911
881.288
864.556
850.926
839.358
829.334
820.453
812.479
805.218
798.599
792.517
786.878
781.619
776.701
772.097
767.799
763.741
759.933
909.358
884.999
866.829
852.432
840.414
830.121
821.056
812.932
805.58
798.902
792.778
787.104
781.818
776.883
772.271
767.938
763.888
760.076
913.908
887.651
868.342
853.397
841.093
830.646
821.468
813.249
805.836
799.125
792.984
787.296
781.991
777.035
772.401
768.069
764.005
760.189
914.958
888.732
869.144
853.912
841.451
830.916
821.674
813.398
805.948
799.219
793.069
787.377
782.069
777.104
772.456
768.11
764.042
760.233
917.017
889.422
869.466
854.135
841.647
831.068
821.779
813.462
805.986
799.249
793.106
787.424
782.117
777.147
772.491
768.135
764.062
760.253
665.665
665.478
665.227
665.077
665.132
665.265
665.121
664.697
664.09
663.451
662.886
662.415
662.03
661.69
661.352
660.989
660.598
660.178
659.72
659.219
658.674
658.093
657.491
656.885
656.287
655.711
655.17
654.676
654.24
653.87
653.566
653.358
653.23
653.169
653.161
653.2
653.269
653.363
653.493
653.633
653.883
654.219
654.503
654.652
654.512
654.152
653.536
652.575
651.216
649.398
647.118
644.46
641.653
639.026
636.914
635.497
634.92
635.113
635.725
636.216
635.585
633.346
629.885
626.434
623.817
621.896
620.21
618.492
616.771
614.869
612.668
610.342
608.037
605.505
602.458
598.883
594.981
590.867
586.602
582.207
577.681
573.003
568.144
563.075
557.771
552.21
546.384
540.296
533.967
527.437
520.767
514.044
507.373
500.881
494.703
488.984
483.861
479.465
475.901
473.252
471.571
470.873
471.131
472.255
474.12
476.574
479.446
482.564
485.762
488.891
491.82
494.444
496.681
498.471
499.778
500.585
500.894
500.724
500.099
499.054
497.621
495.831
493.708
491.272
488.534
485.508
482.201
478.625
474.796
470.734
466.469
462.038
457.481
452.843
448.161
443.47
438.797
434.158
429.558
425.003
420.501
416.053
411.662
407.331
403.069
398.887
394.801
390.832
386.993
383.289
379.712
376.246
372.853
369.487
366.106
362.687
359.216
355.679
352.033
348.224
344.242
340.161
336.092
332.096
328.152
324.177
320.151
316.058
311.867
307.594
303.213
298.738
294.204
289.647
285.089
280.538
275.987
271.421
266.868
262.283
665.374
665.149
664.848
664.495
664.493
664.574
664.415
663.982
663.374
662.78
662.309
661.96
661.661
661.394
661.138
660.861
660.543
660.178
659.753
659.266
658.717
658.117
657.486
656.841
656.198
655.574
654.984
654.446
653.981
653.6
653.316
653.088
652.955
652.902
652.91
652.961
653.058
653.205
653.366
653.549
653.853
654.173
654.552
654.907
654.971
654.802
654.251
653.303
651.838
649.794
647.181
644.129
640.919
637.932
635.458
633.675
632.698
632.506
632.791
633.285
632.998
631.375
628.483
625.333
622.49
620.612
619.219
617.924
616.601
615.129
613.08
610.539
607.887
605.039
601.802
598.202
594.352
590.329
586.171
581.884
577.449
572.839
568.021
562.965
557.647
552.05
546.169
540.011
533.6
526.979
520.216
513.401
506.644
500.075
493.832
488.062
482.904
478.491
474.933
472.317
470.692
470.064
470.38
471.569
473.509
476.042
478.994
482.185
485.449
488.633
491.607
494.267
496.529
498.334
499.647
500.452
500.752
500.568
499.927
498.865
497.419
495.62
493.493
491.058
488.329
485.317
482.029
478.476
474.67
470.631
466.386
461.971
457.425
452.793
448.114
443.423
438.746
434.097
429.494
424.94
420.44
415.995
411.607
407.279
403.019
398.838
394.754
390.786
386.949
383.25
379.682
376.225
372.84
369.482
366.105
362.681
359.203
355.659
352.008
348.198
344.226
340.158
336.096
332.096
328.132
324.174
320.155
316.076
311.878
307.598
303.211
298.738
294.208
289.652
285.092
280.532
275.973
271.394
266.828
262.222
666.138
665.944
665.616
665.241
664.964
664.716
664.29
663.732
663.086
662.512
662.042
661.63
661.268
660.962
660.708
660.461
660.192
659.87
659.467
658.958
658.342
657.639
656.883
656.105
655.333
654.592
653.905
653.293
652.775
652.361
652.066
651.896
651.833
651.866
651.987
652.197
652.473
652.786
653.148
653.605
654.12
654.638
655.21
655.756
656.006
655.777
655.434
654.626
653.103
650.871
648.1
644.814
641.307
637.938
635.002
632.805
631.529
631.215
631.538
632.058
632.048
630.823
628.229
625.258
622.734
620.631
619.064
617.584
615.926
614.046
611.873
609.33
606.499
603.436
600.164
596.712
593.106
589.358
585.459
581.387
577.115
572.612
567.849
562.804
557.458
551.804
545.842
539.584
533.058
526.311
519.414
512.461
505.568
498.868
492.504
486.626
481.377
476.893
473.297
470.674
469.07
468.479
468.885
470.201
472.291
474.985
478.095
481.434
484.825
488.117
491.179
493.906
496.216
498.051
499.375
500.173
500.453
500.238
499.561
498.465
496.989
495.169
493.029
490.597
487.882
484.893
481.639
478.127
474.368
470.377
466.178
461.801
457.286
452.674
448.004
443.316
438.639
433.994
429.39
424.835
420.334
415.888
411.498
407.169
402.907
398.724
394.64
390.675
386.844
383.156
379.602
376.163
372.799
369.461
366.101
362.69
359.207
355.64
351.966
348.167
344.238
340.234
336.22
332.226
328.252
324.22
320.159
316.028
311.823
307.562
303.187
298.726
294.207
289.655
285.093
280.523
275.948
271.345
266.742
262.088
667.384
667.246
666.965
666.591
666.181
665.694
665.107
664.42
663.651
663.001
662.461
661.959
661.492
661.06
660.641
660.194
659.699
659.143
658.512
657.79
656.974
656.078
655.131
654.167
653.22
652.32
651.5
650.786
650.203
649.768
649.495
649.388
649.423
649.604
649.923
650.367
650.916
651.557
652.287
653.093
653.945
654.853
655.835
656.788
657.419
657.535
657.116
656.195
654.701
652.656
649.838
646.397
642.7
639.239
636.393
634.366
633.261
632.995
633.18
633.375
633.051
631.701
629.176
626.05
623.078
620.642
618.734
616.992
615.113
612.959
610.514
607.827
604.965
601.962
598.835
595.587
592.211
588.686
584.981
581.065
576.902
572.462
567.719
562.652
557.248
551.502
545.415
539.003
532.293
525.338
518.216
511.031
503.91
496.998
490.448
484.414
479.046
474.476
470.823
468.18
466.596
466.104
466.666
468.183
470.505
473.442
476.789
480.343
483.922
487.369
490.555
493.378
495.757
497.634
498.972
499.76
500.007
499.743
499.01
497.858
496.332
494.474
492.313
489.874
487.17
484.209
481
477.546
473.853
469.93
465.793
461.469
456.997
452.42
447.782
443.119
438.456
433.815
429.214
424.664
420.166
415.72
411.329
406.998
402.734
398.553
394.471
390.512
386.694
383.026
379.5
376.088
372.749
369.429
366.086
362.685
359.209
355.652
351.98
348.181
344.266
340.28
336.267
332.256
328.239
324.226
320.16
316.034
311.86
307.554
303.177
298.724
294.213
289.664
285.094
280.506
275.909
271.28
266.637
261.933
668.43
668.313
668.075
667.681
667.242
666.724
666.125
665.465
664.751
664.026
663.301
662.581
661.873
661.171
660.453
659.683
658.837
657.904
656.881
655.773
654.592
653.358
652.098
650.845
649.635
648.508
647.5
646.648
645.982
645.527
645.296
645.291
645.504
645.924
646.531
647.301
648.21
649.235
650.352
651.528
652.732
653.95
655.15
656.232
657.014
657.328
657.134
656.418
655.115
653.108
650.252
646.634
642.772
639.379
636.857
635.288
634.56
634.384
634.488
634.623
634.196
632.746
630.414
627.718
624.759
621.974
619.392
616.951
614.53
612.015
609.38
606.647
603.837
600.952
597.984
594.914
591.709
588.336
584.753
580.922
576.806
572.371
567.59
562.442
556.914
551.002
544.715
538.074
531.114
523.893
516.492
509.026
501.638
494.486
487.734
481.536
476.039
471.378
467.673
465.019
463.485
463.123
463.876
465.642
468.258
471.51
475.162
478.991
482.803
486.441
489.781
492.723
495.189
497.119
498.477
499.251
499.455
499.126
498.316
497.087
495.491
493.578
491.38
488.922
486.218
483.278
480.11
476.719
473.106
469.27
465.218
460.968
456.552
452.013
447.399
442.754
438.112
433.494
428.914
424.38
419.894
415.461
411.083
406.763
402.509
398.337
394.268
390.325
386.526
382.882
379.383
375.998
372.694
369.415
366.092
362.694
359.215
355.646
351.976
348.189
344.293
340.327
336.336
332.339
328.32
324.276
320.179
316.042
311.847
307.55
303.174
298.724
294.215
289.662
285.083
280.481
275.862
271.209
266.527
261.778
669.773
669.633
669.379
669.042
668.622
668.104
667.469
666.77
666.005
665.178
664.288
663.335
662.315
661.226
660.06
658.806
657.456
656.006
654.461
652.833
651.146
649.43
647.723
646.065
644.503
643.085
641.856
640.858
640.121
639.672
639.526
639.688
640.139
640.858
641.814
642.97
644.287
645.724
647.239
648.783
650.313
651.784
653.139
654.292
655.136
655.58
655.573
655.059
653.93
651.951
648.951
644.994
640.839
637.518
635.403
634.389
634.112
634.153
634.248
634.26
633.822
632.633
630.679
628.212
625.46
622.585
619.695
616.85
614.067
611.332
608.623
605.917
603.193
600.423
597.578
594.623
591.521
588.227
584.696
580.883
576.746
572.246
567.353
562.049
556.329
550.197
543.671
536.776
529.554
522.061
514.382
506.643
499.001
491.619
484.659
478.276
472.617
467.822
464.029
461.361
459.848
459.574
460.523
462.589
465.574
469.22
473.252
477.415
481.503
485.364
488.882
491.965
494.537
496.538
497.926
498.689
498.841
498.437
497.53
496.207
494.524
492.536
490.284
487.79
485.07
482.135
478.996
475.659
472.124
468.386
464.439
460.286
455.949
451.466
446.886
442.262
437.633
433.033
428.476
423.975
419.521
415.113
410.756
406.459
402.232
398.087
394.047
390.132
386.364
382.75
379.285
375.935
372.652
369.381
366.077
362.704
359.239
355.665
351.99
348.21
344.331
340.386
336.405
332.396
328.357
324.285
320.189
316.047
311.846
307.554
303.176
298.726
294.218
289.663
285.074
280.454
275.812
271.133
266.415
261.626
671.67
671.545
671.287
670.911
670.475
669.934
669.272
668.481
667.563
666.518
665.345
664.041
662.603
661.028
659.317
657.473
655.503
653.419
651.239
648.986
646.693
644.4
642.156
640.014
638.034
636.271
634.778
633.604
632.785
632.342
632.287
632.628
633.347
634.407
635.758
637.347
639.116
641.006
642.958
644.909
646.799
648.556
650.103
651.363
652.271
652.781
652.86
652.441
651.378
649.368
646.199
641.967
637.738
634.809
633.39
633.092
633.241
633.439
633.599
633.627
633.182
632.116
630.428
628.15
625.466
622.533
619.523
616.551
613.674
610.905
608.221
605.578
602.933
600.246
597.477
594.587
591.531
588.26
584.722
580.866
576.643
572.012
566.944
561.43
555.48
549.116
542.369
535.266
527.835
520.118
512.185
504.152
496.19
488.491
481.242
474.611
468.744
463.775
459.835
457.055
455.565
455.418
456.622
459.059
462.498
466.625
471.108
475.655
480.049
484.148
487.856
491.095
493.792
495.879
497.311
498.068
498.16
497.673
496.669
495.237
493.454
491.382
489.064
486.521
483.767
480.815
477.681
474.381
470.916
467.274
463.435
459.391
455.153
450.754
446.238
441.652
437.045
432.457
427.919
423.438
419.018
414.656
410.351
406.103
401.917
397.813
393.813
389.938
386.21
382.634
379.196
375.871
372.619
369.381
366.09
362.712
359.237
355.668
352.005
348.237
344.376
340.446
336.471
332.465
328.423
324.337
320.22
316.066
311.858
307.567
303.189
298.736
294.225
289.664
285.062
280.424
275.759
271.055
266.305
261.482
674.214
674.044
673.795
673.415
672.885
672.202
671.363
670.36
669.183
667.825
666.28
664.545
662.616
660.496
658.189
655.706
653.064
650.286
647.4
644.44
641.449
638.478
635.587
632.847
630.331
628.116
626.27
624.852
623.903
623.452
623.523
624.122
625.199
626.69
628.52
630.612
632.887
635.27
637.692
640.092
642.404
644.541
646.4
647.886
648.936
649.526
649.647
649.251
648.2
646.239
643.128
638.82
634.844
632.488
631.797
631.996
632.437
632.771
633.007
633.014
632.521
631.488
629.91
627.745
625.12
622.204
619.202
616.255
613.42
610.706
608.089
605.515
602.934
600.3
597.57
594.703
591.653
588.364
584.775
580.826
576.464
571.651
566.366
560.622
554.454
547.905
541.008
533.776
526.195
518.257
509.996
501.54
493.12
485.017
477.46
470.601
464.545
459.397
455.298
452.402
450.916
450.915
452.398
455.242
459.187
463.861
468.851
473.813
478.52
482.85
486.742
490.137
492.966
495.149
496.627
497.374
497.417
496.836
495.723
494.181
492.298
490.145
487.766
485.175
482.377
479.383
476.221
472.922
469.502
465.946
462.22
458.294
454.163
449.853
445.412
440.893
436.342
431.795
427.28
422.822
418.434
414.118
409.866
405.677
401.557
397.518
393.579
389.763
386.085
382.551
379.15
375.85
372.602
369.356
366.072
362.71
359.248
355.684
352.023
348.265
344.419
340.505
336.545
332.543
328.493
324.393
320.258
316.095
311.881
307.589
303.209
298.75
294.233
289.664
285.05
280.396
275.709
270.982
266.203
261.35
676.932
676.782
676.444
675.949
675.288
674.442
673.399
672.146
670.67
668.964
667.016
664.822
662.379
659.689
656.76
653.608
650.254
646.725
643.056
639.294
635.491
631.715
628.045
624.57
621.388
618.601
616.307
614.591
613.521
613.129
613.457
614.428
615.988
618.054
620.52
623.265
626.159
629.085
631.959
634.741
637.408
639.921
642.187
644.078
645.485
646.361
646.706
646.499
645.679
644.096
641.524
637.962
634.711
632.893
632.578
632.808
633.054
633.199
633.277
633.097
632.451
631.322
629.677
627.491
624.871
621.984
619.028
616.139
613.367
610.718
608.16
605.642
603.105
600.5
597.787
594.916
591.837
588.501
584.828
580.75
576.217
571.194
565.685
559.733
553.398
546.737
539.772
532.466
524.732
516.495
507.762
498.737
489.801
481.337
473.576
466.594
460.414
455.094
450.787
447.711
446.122
446.152
447.846
451.093
455.604
460.92
466.507
471.933
476.961
481.508
485.569
489.119
492.085
494.372
495.896
496.628
496.602
495.913
494.678
493.018
491.037
488.815
486.393
483.775
480.948
477.912
474.695
471.352
467.93
464.429
460.806
457.003
452.993
448.787
444.43
439.979
435.489
431.001
426.543
422.134
417.789
413.517
409.323
405.206
401.165
397.208
393.348
389.602
385.986
382.499
379.124
375.834
372.591
369.347
366.057
362.69
359.23
355.675
352.028
348.289
344.463
340.568
336.618
332.619
328.568
324.467
320.323
316.143
311.919
307.622
303.237
298.772
294.246
289.669
285.042
280.372
275.665
270.915
266.109
261.228
679.317
679.142
678.775
678.214
677.446
676.45
675.213
673.719
671.957
669.913
667.573
664.926
661.969
658.704
655.141
651.299
647.203
642.883
638.376
633.731
629.008
624.285
619.66
615.25
611.186
607.614
604.697
602.579
601.353
601.065
601.597
602.97
605.143
608.01
611.409
615.145
619.009
622.806
626.388
629.662
632.624
635.354
637.918
640.241
642.164
643.559
644.371
644.602
644.271
643.332
641.685
639.309
637.077
635.798
635.412
635.289
635.097
634.849
634.585
634.05
633.125
631.77
629.933
627.63
624.951
622.053
619.115
616.255
613.516
610.9
608.375
605.889
603.38
600.793
598.082
595.197
592.079
588.663
584.883
580.656
575.938
570.71
564.999
558.882
552.442
545.734
538.756
531.394
523.464
514.831
505.507
495.852
486.467
477.805
470
462.962
456.587
450.924
446.21
442.801
440.932
440.881
442.747
446.423
451.588
457.672
463.983
469.949
475.32
480.074
484.297
488.001
491.116
493.518
495.097
495.811
495.706
494.895
493.521
491.729
489.64
487.348
484.896
482.277
479.454
476.403
473.145
469.741
466.271
462.773
459.218
455.531
451.647
447.556
443.297
438.929
434.511
430.087
425.692
421.349
417.071
412.865
408.736
404.689
400.728
396.858
393.087
389.425
385.877
382.439
379.094
375.819
372.576
369.321
366.021
362.653
359.199
355.656
352.027
348.311
344.51
340.632
336.692
332.698
328.651
324.549
320.397
316.205
311.968
307.664
303.273
298.8
294.265
289.677
285.038
280.354
275.628
270.856
266.024
261.119
681.353
681.171
680.776
680.161
679.306
678.188
676.791
675.096
673.088
670.745
668.048
664.981
661.539
657.725
653.553
649.038
644.199
639.054
633.628
627.959
622.111
616.177
610.288
604.613
599.347
594.695
590.881
588.104
586.474
586.039
586.799
588.726
591.733
595.671
600.326
605.44
610.733
615.921
620.749
625.029
628.66
631.705
634.402
636.934
639.278
641.251
642.688
643.549
643.87
643.682
642.988
641.8
640.509
639.626
639.016
638.473
637.846
637.21
636.528
635.611
634.37
632.742
630.67
628.195
625.412
622.466
619.501
616.617
613.857
611.226
608.698
606.222
603.729
601.154
598.44
595.532
592.365
588.869
584.968
580.591
575.695
570.281
564.398
558.165
551.67
544.96
537.995
530.573
522.407
513.326
503.381
493.155
483.467
474.731
466.932
459.744
452.987
446.742
441.405
437.502
435.321
435.195
437.221
441.283
447.072
453.987
461.124
467.711
473.456
478.432
482.815
486.68
489.95
492.464
494.089
494.782
494.606
493.694
492.208
490.303
488.109
485.737
483.246
480.628
477.828
474.796
471.531
468.091
464.568
461.035
457.5
453.897
450.138
446.174
442.024
437.745
433.407
429.062
424.746
420.478
416.273
412.142
408.092
404.125
400.246
396.459
392.772
389.191
385.714
382.333
379.027
375.772
372.535
369.278
365.975
362.609
359.163
355.631
352.018
348.327
344.553
340.697
336.77
332.782
328.736
324.634
320.48
316.279
312.03
307.716
303.316
298.835
294.288
289.687
285.036
280.34
275.598
270.805
265.95
261.021
683.171
682.986
682.571
681.919
681.001
679.794
678.276
676.425
674.216
671.623
668.617
665.18
661.306
656.996
652.258
647.092
641.495
635.462
628.998
622.137
614.957
607.594
600.238
593.136
586.569
580.819
576.137
572.733
570.745
570.235
571.263
573.745
577.547
582.484
588.324
594.789
601.567
608.318
614.702
620.435
625.272
629.074
632.055
634.657
637.174
639.587
641.674
643.256
644.303
644.871
645.022
644.782
644.284
643.719
643.056
642.234
641.268
640.259
639.137
637.796
636.178
634.217
631.867
629.178
626.247
623.197
620.148
617.186
614.354
611.663
609.098
606.612
604.133
601.574
598.86
595.927
592.708
589.127
585.108
580.589
575.539
569.985
563.955
557.648
551.13
544.44
537.489
530.004
521.605
512.115
501.625
490.941
481.037
472.238
464.373
456.891
449.602
442.655
436.643
432.212
429.86
429.754
431.931
436.229
442.423
450.044
457.953
465.15
471.283
476.475
481.023
485.057
488.476
491.073
492.7
493.334
493.075
492.093
490.563
488.626
486.399
483.989
481.466
478.826
476.021
473.011
469.777
466.346
462.798
459.23
455.686
452.128
448.469
444.636
440.615
436.446
432.196
427.932
423.7
419.519
415.401
411.354
407.388
403.506
399.711
396.009
392.403
388.897
385.489
382.164
378.902
375.68
372.466
369.222
365.925
362.565
359.131
355.612
352.013
348.342
344.595
340.764
336.852
332.868
328.823
324.722
320.567
316.36
312.1
307.773
303.364
298.872
294.314
289.698
285.035
280.327
275.572
270.762
265.886
260.935
685.066
684.874
684.44
683.755
682.788
681.513
679.903
677.93
675.563
672.767
669.51
665.771
661.536
656.801
651.557
645.787
639.463
632.56
625.078
617.064
608.633
599.98
591.369
583.118
575.572
569.056
563.83
560.092
557.967
557.495
558.665
561.47
565.805
571.479
578.22
585.707
593.605
601.559
609.19
616.209
622.343
627.25
630.783
633.468
635.985
638.616
641.24
643.525
645.288
646.534
647.348
647.811
647.936
647.781
647.379
646.585
645.459
644.109
642.688
640.955
638.832
636.346
633.558
630.543
627.381
624.161
620.977
617.894
614.956
612.176
609.548
607.037
604.57
602.04
599.338
596.387
593.117
589.454
585.327
580.681
575.5
569.82
563.726
557.368
550.846
544.185
537.241
529.685
521.114
511.369
500.464
489.44
479.31
470.375
462.336
454.498
446.714
439.252
432.866
428.224
425.891
425.96
428.285
432.612
438.802
446.6
454.896
462.511
468.898
474.226
478.904
483.088
486.62
489.237
490.79
491.305
490.94
489.904
488.384
486.495
484.317
481.943
479.45
476.819
473.992
470.968
467.775
464.412
460.904
457.333
453.774
450.236
446.653
442.939
439.055
435.018
430.883
426.715
422.569
418.477
414.453
410.502
406.626
402.832
399.124
395.505
391.98
388.548
385.206
381.94
378.729
375.549
372.369
369.154
365.878
362.534
359.115
355.611
352.024
348.366
344.639
340.831
336.936
332.959
328.914
324.812
320.655
316.444
312.174
307.835
303.413
298.911
294.339
289.711
285.036
280.317
275.551
270.725
265.831
260.861
687.354
687.143
686.677
685.952
684.932
683.594
681.908
679.838
677.349
674.404
670.964
667.001
662.498
657.438
651.801
645.554
638.653
631.066
622.794
613.909
604.561
594.986
585.494
576.448
568.222
561.147
555.478
551.387
549.005
548.401
549.63
552.693
557.476
563.759
571.237
579.523
588.245
597.057
605.528
613.325
620.342
626.17
630.384
633.16
635.576
638.253
641.265
644.146
646.53
648.321
649.562
650.401
650.881
650.989
650.685
649.943
648.757
647.408
646.127
644.135
641.615
638.658
635.431
632.065
628.643
625.234
621.901
618.693
615.643
612.768
610.066
607.509
605.033
602.529
599.85
596.891
593.579
589.847
585.631
580.888
575.61
569.846
563.699
557.313
550.795
544.158
537.234
529.664
521.024
511.116
500.09
488.847
478.445
469.234
460.907
452.807
444.798
437.235
430.866
426.391
424.299
424.705
427.258
431.471
437.255
444.603
452.674
460.223
466.557
471.852
476.563
480.814
484.353
486.867
488.246
488.59
488.111
487.043
485.569
483.779
481.704
479.396
476.924
474.302
471.489
468.495
465.384
462.158
458.783
455.285
451.743
448.213
444.681
441.078
437.337
433.446
429.447
425.4
421.358
417.362
413.434
409.583
405.806
402.107
398.487
394.951
391.504
388.146
384.872
381.67
378.516
375.385
372.247
369.069
365.826
362.509
359.113
355.628
352.056
348.408
344.692
340.902
337.023
333.054
329.01
324.905
320.745
316.529
312.25
307.898
303.464
298.95
294.367
289.727
285.04
280.311
275.534
270.695
265.784
260.796
690.282
690.014
689.484
688.689
687.593
686.183
684.463
682.309
679.737
676.702
673.159
669.07
664.42
659.176
653.314
646.791
639.56
631.591
622.887
613.532
603.696
593.632
583.667
574.177
565.551
558.131
552.172
547.846
545.292
544.591
545.835
549.001
553.972
560.52
568.333
577.006
586.111
595.316
604.222
612.394
619.682
625.905
630.567
633.521
635.838
638.448
641.641
644.951
647.815
650.007
651.545
652.538
653.09
653.253
652.994
652.216
650.855
649.188
647.319
645.481
643.104
640.181
636.878
633.386
629.832
626.303
622.863
619.559
616.421
613.463
610.683
608.056
605.528
603.008
600.345
597.387
594.048
590.267
585.994
581.193
575.865
570.059
563.884
557.481
550.959
544.338
537.454
529.96
521.422
511.585
500.574
489.204
478.522
468.964
460.356
452.145
444.199
436.844
430.746
426.542
424.668
425.368
428.129
432.2
437.453
444.08
451.495
458.536
464.504
469.582
474.198
478.374
481.754
484.019
485.136
485.297
484.747
483.697
482.288
480.58
478.581
476.314
473.812
471.08
468.163
465.211
462.325
459.411
456.313
452.995
449.537
446.038
442.547
439.037
435.44
431.714
427.873
423.97
420.056
416.173
412.351
408.602
404.927
401.325
397.798
394.347
390.978
387.695
384.493
381.358
378.265
375.186
372.094
368.961
365.761
362.482
359.116
355.658
352.104
348.468
344.76
340.98
337.113
333.153
329.11
325.001
320.837
316.615
312.326
307.962
303.516
298.991
294.398
289.748
285.052
280.312
275.522
270.669
265.743
260.739
694.026
693.667
693.037
692.14
690.961
689.481
687.669
685.482
682.883
679.829
676.275
672.18
667.512
662.242
656.339
649.767
642.488
634.474
625.738
616.362
606.511
596.433
586.447
576.922
568.238
560.736
554.682
550.26
547.583
546.761
547.909
550.978
555.848
562.294
569.99
578.541
587.505
596.518
605.27
613.375
620.542
626.618
631.288
634.303
636.522
639.054
642.342
645.908
649.062
651.483
653.158
654.214
654.759
654.842
654.532
653.79
652.478
650.697
648.676
646.424
643.98
641.164
637.98
634.534
630.96
627.377
623.875
620.512
617.315
614.293
611.439
608.723
606.094
603.482
600.777
597.814
594.467
590.665
586.371
581.56
576.234
570.439
564.272
557.868
551.343
544.735
537.918
530.582
522.301
512.767
502.011
490.68
479.753
469.823
460.932
452.687
444.939
437.951
432.232
428.146
426.262
427.006
429.829
433.742
438.523
444.466
451.118
457.434
462.846
467.584
471.988
475.936
479.006
480.932
481.782
481.805
481.24
480.242
478.896
477.231
475.244
472.942
470.323
467.347
464.112
460.983
458.283
455.867
453.298
450.344
447.065
443.637
440.196
436.775
433.321
429.771
426.113
422.382
418.626
414.884
411.186
407.55
403.981
400.479
397.046
393.683
390.396
387.191
384.063
381
377.972
374.951
371.911
368.829
365.679
362.445
359.119
355.693
352.166
348.545
344.845
341.07
337.211
333.258
329.216
325.103
320.933
316.702
312.403
308.028
303.57
299.035
294.433
289.776
285.07
280.319
275.516
270.649
265.709
260.689
698.368
697.904
697.095
696.069
694.798
693.257
691.415
689.234
686.671
683.678
680.208
676.22
671.68
666.558
660.831
654.472
647.455
639.762
631.413
622.478
613.105
603.513
593.988
584.861
576.478
569.159
563.166
558.696
555.858
554.953
555.898
558.671
563.141
569.081
576.173
584.048
592.316
600.623
608.646
616.065
622.651
628.219
632.474
635.278
637.426
639.978
643.365
647.029
650.214
652.616
654.259
655.271
655.771
655.833
655.457
654.683
653.562
652.018
650.076
647.866
645.289
642.414
639.21
635.738
632.114
628.468
624.906
621.491
618.247
615.172
612.239
609.42
606.667
603.914
601.091
598.082
594.74
590.961
586.695
581.926
576.662
570.938
564.832
558.464
551.954
545.364
538.62
531.481
523.568
514.542
504.314
493.301
482.332
472.12
462.936
454.617
447.002
440.294
434.889
430.925
428.908
429.51
432.222
435.903
440.276
445.627
451.496
456.989
461.77
466.113
470.209
473.798
476.474
478.078
478.739
478.689
478.116
477.125
475.773
474.097
472.093
469.733
466.982
463.745
460.072
456.489
453.676
451.648
449.715
447.308
444.343
441.046
437.663
434.322
431.007
427.638
424.178
420.644
417.074
413.504
409.954
406.444
402.986
399.585
396.245
392.969
389.765
386.638
383.588
380.6
377.644
374.688
371.707
368.68
365.584
362.399
359.118
355.731
352.235
348.636
344.946
341.174
337.318
333.369
329.327
325.21
321.032
316.792
312.481
308.094
303.627
299.083
294.472
289.808
285.094
280.332
275.515
270.634
265.68
260.646
701.971
701.579
700.807
699.779
698.496
696.953
695.141
693.028
690.567
687.701
684.382
680.57
676.235
671.356
665.917
659.907
653.313
646.132
638.386
630.138
621.508
612.678
603.892
595.431
587.6
580.696
574.98
570.67
567.916
566.727
567.301
569.586
573.41
578.532
584.673
591.51
598.709
605.976
613.03
619.563
625.333
630.138
633.763
636.256
638.409
641.109
644.617
648.252
651.282
653.476
654.955
655.865
656.28
656.271
655.904
655.164
654.038
652.607
650.905
648.831
646.381
643.538
640.325
636.807
633.119
629.411
625.796
622.332
619.04
615.908
612.902
609.986
607.117
604.236
601.281
598.186
594.84
591.113
586.923
582.243
577.084
571.477
565.482
559.198
552.736
546.174
539.494
532.534
524.995
516.55
507.019
496.602
485.92
475.692
466.35
457.927
450.324
443.818
438.757
434.963
432.882
433.277
435.665
438.94
442.849
447.554
452.552
457.181
461.344
465.279
468.984
472.125
474.386
475.702