/*--------------------------------*- C++ -*----------------------------------*\
  =========                 |
  \\      /  F ield         | OpenFOAM: The Open Source CFD Toolbox
   \\    /   O peration     | Website:  https://openfoam.org
    \\  /    A nd           | Version:  9
     \\/     M anipulation  |
\*---------------------------------------------------------------------------*/
FoamFile
{
    format      ascii;
    class       volScalarField;
    location    "0.053";
    object      pPrime2Mean;
}
// * * * * * * * * * * * * * * * * * * * * * * * * * * * * * * * * * * * * * //

dimensions      [0 4 -4 0 0 0 0];

internalField   nonuniform List<scalar> 
12225
(
297350
294545
291303
287788
284115
280370
276609
272868
269167
265517
261921
258373
254861
251366
247853
244266
240484
236232
297376
294574
291326
287806
284130
280383
276620
272878
269177
265528
261932
258386
254878
251388
247885
244316
240586
236527
297458
294637
291376
287846
284163
280411
276645
272901
269199
265551
261958
258416
254915
251436
247953
244424
240785
236983
297577
294742
291460
287913
284218
280457
276686
272939
269236
265589
262000
258465
254976
251516
248064
244592
241072
237519
297759
294898
291584
288012
284299
280526
276746
272994
269291
265646
262062
258538
255064
251630
248220
244821
241429
238094
298050
295116
291755
288149
284410
280620
276829
273071
269366
265724
262148
258636
255183
251782
248423
245105
241842
238690
298428
295406
291981
288330
284558
280745
276939
273173
269465
265826
262259
258763
255336
251974
248673
245440
242297
239299
298932
295781
292273
288562
284747
280904
277079
273302
269591
265956
262399
258923
255526
252206
248967
245819
242787
239915
299584
296253
292638
288852
284984
281104
277254
273464
269748
266116
262572
259118
255753
252480
249304
246238
243305
240537
300311
296824
293086
289209
285275
281348
277469
273661
269939
266310
262780
259349
256019
252794
249680
246691
243845
241165
301180
297522
293631
289639
285624
281642
277726
273897
270167
266542
263025
259618
256324
253147
250093
247174
244404
241799
302105
298282
294226
290109
286004
281960
278004
274152
270412
266789
263284
259900
256639
253504
250502
247641
244932
242384
303296
299166
294902
290640
286433
282319
278318
274439
270687
267065
263572
260210
256980
253886
250931
248122
245465
242967
304873
300336
295791
291333
286992
282787
278726
274811
271043
267419
263939
260600
257404
254352
251446
248690
246085
243635
307013
301864
296939
292226
287710
283387
279249
275288
271497
267870
264401
261086
257925
254915
252058
249352
246797
244392
309701
303830
298397
293347
288607
284137
279904
275886
272066
268430
264970
261679
258551
255583
252770
250111
247602
245238
312959
306145
300101
294666
289670
285031
280690
276606
272752
269106
265653
262382
259285
256353
253581
250964
248494
246167
316514
308583
301899
296065
290813
286010
281565
277419
273532
269877
266431
263180
260110
257211
254474
251892
249456
247159
319200
310432
303298
297207
291803
286907
282407
278233
274337
270686
267256
264027
260984
258115
255410
252857
250450
248178
317944
310068
303333
297444
292155
287331
282882
278747
274883
271262
267860
264658
261641
258797
256115
253585
251197
248942
316013
308977
302781
297219
292135
287442
283080
279007
275190
271605
268231
265054
262060
259235
256569
254054
251678
249434
313938
307753
302078
296843
291969
287417
283150
279143
275374
271826
268480
265326
262350
259541
256889
254384
252018
249782
312023
306590
301376
296436
291757
287333
283155
279209
275484
271966
268646
265511
262550
259753
257111
254615
252256
250026
310655
305668
300792
296083
291560
287241
283134
279238
275548
272057
268756
265635
262686
259899
257265
254776
252422
250196
309590
304946
300334
295803
291398
287159
283106
279248
275585
272114
268828
265718
262778
259998
257370
254885
252535
250312
308657
304392
299995
295596
291277
287095
283082
279251
275608
272150
268874
265773
262839
260064
257439
254958
252610
250389
307992
304006
299760
295453
291193
287050
283064
279251
275621
272173
268904
265808
262878
260106
257484
255004
252658
250439
307501
303750
299610
295363
291140
287022
283052
279250
275628
272186
268921
265829
262901
260131
257511
255033
252688
250469
307251
303608
299527
295313
291111
287006
283045
279250
275632
272193
268930
265840
262914
260145
257526
255048
252703
250485
307119
303548
299493
295293
291099
287000
283042
279250
275633
272195
268934
265844
262919
260151
257532
255054
252710
250492
200051
200031
199994
199942
199876
199799
199710
199605
199480
199335
199166
198974
198759
198523
198267
197991
197696
197382
197050
196700
196332
195947
195545
195127
194693
194244
193778
193298
192800
192287
191758
191211
190649
190068
189471
188860
188239
187614
186983
186342
185691
185024
184340
183636
182908
182155
181379
180578
179760
178929
178080
177217
176345
175459
174560
173656
172762
171845
170883
169884
168864
167835
166807
165784
164766
163751
162736
161719
160696
159665
158623
157569
156503
155426
154341
153250
152156
151061
149965
148870
147775
146682
145590
144498
143406
142314
141219
140121
139017
137906
136785
135651
134503
133340
132158
130958
129738
128498
127240
125962
124668
123360
122041
120712
119379
118042
116704
115368
114035
112705
111379
110058
108741
107429
106120
104816
103514
102215
100919
99623.7
98330.4
97038
95746.2
94454.8
93163.5
91872.1
90580.5
89288.5
87996
86703.2
85410.1
84116.5
82822.7
81528.7
80234.5
78940.4
77646.3
76352.5
75059.2
73766.3
72474.3
71183.1
69892.9
68604
67316.6
66030.9
64747.2
63465.7
62186.8
60910.8
59638
58368.8
57103.5
55842.3
54585.6
53333.7
52086.9
50845.4
49609.6
48379.5
47155.5
45937.7
44726.5
43522.2
42325.3
41136.4
39955.6
38783.4
37620.2
36466.4
35322.3
34188.4
33065.3
31953.6
30854.3
29768.3
28697.2
27643.2
26609.8
25606.5
200108
200089
200053
200000
199935
199858
199768
199660
199533
199385
199213
199020
198806
198571
198316
198041
197747
197435
197103
196752
196383
195995
195591
195169
194732
194278
193809
193325
192824
192309
191779
191235
190675
190098
189506
188897
188275
187647
187012
186366
185706
185031
184343
183640
182913
182158
181372
180552
179717
178876
178019
177149
176274
175396
174510
173602
172685
171753
170791
169806
168803
167791
166777
165763
164752
163741
162729
161714
160692
159660
158616
157560
156493
155417
154333
153244
152152
151057
149963
148868
147774
146681
145589
144497
143406
142314
141220
140122
139019
137909
136789
135657
134510
133347
132166
130966
129747
128507
127248
125970
124675
123367
122047
120718
119383
118046
116708
115372
114038
112708
111382
110060
108744
107431
106122
104818
103516
102217
100920
99625
98331.5
97039
95747.2
94455.7
93164.3
91872.8
90581.1
89289.1
87996.7
86703.9
85410.7
84117.1
82823.3
81529.2
80235.1
78940.9
77646.9
76353.1
75059.7
73766.8
72474.7
71183.5
69893.3
68604.4
67317
66031.2
64747.5
63466
62187.1
60911
59638.2
58369
57103.6
55842.5
54585.8
53333.8
52087
50845.5
49609.6
48379.5
47155.5
45937.7
44726.4
43522.1
42325.3
41136.3
39955.5
38783.3
37620.1
36466.2
35322.1
34188.2
33065
31953.3
30853.8
29767.7
28696.2
27641.6
26606.7
25598.1
200259
200242
200208
200157
200089
200007
199910
199795
199661
199506
199332
199137
198922
198686
198431
198156
197861
197546
197212
196858
196486
196096
195687
195261
194817
194357
193882
193391
192886
192367
191833
191286
190725
190150
189561
188957
188341
187716
187081
186434
185772
185098
184408
183699
182966
182199
181403
180577
179726
178863
177990
177111
176234
175354
174460
173549
172620
171675
170715
169741
168753
167755
166752
165745
164738
163729
162716
161698
160673
159638
158593
157538
156472
155399
154319
153234
152144
151053
149960
148866
147773
146680
145587
144495
143404
142312
141219
140123
139021
137913
136795
135665
134520
133358
132179
130980
129761
128521
127262
125984
124689
123379
122058
120728
119393
118054
116716
115378
114044
112713
111387
110065
108748
107435
106127
104821
103519
102220
100923
99627.8
98334
97041.2
95749.2
94457.5
93166
91874.4
90582.6
89290.5
87998
86705.1
85411.9
84118.3
82824.5
81530.4
80236.2
78942
77647.9
76354.1
75060.6
73767.8
72475.6
71184.3
69894.1
68605.2
67317.7
66031.9
64748
63466.5
62187.5
60911.4
59638.5
58369.2
57103.7
55842.5
54585.8
53333.8
52086.9
50845.4
49609.4
48379.2
47155.1
45937.3
44726.1
43521.9
42325.1
41136.2
39955.4
38783.1
37619.8
36465.9
35321.7
34187.6
33064.4
31952.5
30852.8
29766.4
28694.5
27638.9
26601.8
25587.2
200483
200467
200434
200384
200317
200233
200131
200011
199871
199711
199532
199333
199114
198875
198616
198336
198036
197716
197376
197017
196639
196243
195829
195397
194948
194482
194001
193506
192996
192472
191937
191388
190828
190254
189669
189073
188467
187850
187221
186579
185924
185254
184569
183863
183126
182349
181533
180685
179814
178930
178041
177151
176263
175370
174464
173542
172604
171655
170693
169720
168736
167741
166740
165735
164727
163717
162702
161682
160654
159618
158573
157519
156457
155387
154310
153228
152141
151051
149959
148866
147772
146679
145586
144494
143402
142310
141218
140123
139024
137918
136803
135676
134534
133375
132197
131000
129782
128543
127283
126004
124708
123397
122075
120743
119406
118066
116727
115388
114053
112722
111395
110073
108755
107442
106133
104827
103525
102225
100928
99632.1
98337.9
97044.8
95752.4
94460.4
93168.6
91876.8
90584.9
89292.6
88000.1
86707.1
85413.8
84120.2
82826.3
81532.1
80237.9
78943.6
77649.5
76355.6
75062.1
73769.2
72476.9
71185.6
69895.3
68606.2
67318.6
66032.7
64748.8
63467.1
62188
60911.8
59638.8
58369.4
57103.9
55842.6
54585.9
53333.9
52086.9
50845.3
49609.3
48379.1
47155
45937.1
44725.9
43521.8
42325
41136
39955.1
38782.9
37619.5
36465.4
35321.1
34186.9
33063.5
31951.4
30851.4
29764.5
28691.7
27634.7
26594.8
25574.3
200778
200763
200732
200683
200616
200531
200427
200303
200158
199994
199809
199603
199377
199129
198860
198570
198260
197930
197581
197213
196827
196424
196002
195564
195109
194638
194152
193653
193140
192617
192082
191538
190983
190418
189844
189260
188665
188059
187439
186808
186166
185510
184834
184132
183392
182607
181774
180902
180002
179086
178167
177251
176338
175424
174502
173569
172626
171672
170707
169731
168744
167748
166746
165740
164729
163714
162694
161670
160641
159604
158560
157508
156449
155382
154307
153226
152140
151051
149959
148866
147772
146678
145585
144492
143401
142310
141218
140125
139029
137928
136817
135694
134556
133401
132226
131030
129813
128574
127314
126034
124736
123422
122097
120763
119424
118082
116741
115401
114065
112733
111406
110083
108765
107452
106142
104836
103533
102233
100935
99638.3
98343.6
97050
95757.1
94464.7
93172.6
91880.5
90588.3
89295.9
88003.1
86710
85416.6
84122.9
82828.9
81534.6
80240.3
78945.9
77651.6
76357.6
75064
73771
72478.7
71187.2
69896.8
68607.6
67319.9
66033.9
64749.8
63467.9
62188.7
60912.3
59639.3
58369.7
57104.2
55842.8
54586
53333.9
52086.9
50845.2
49609.1
48378.9
47154.7
45936.8
44725.6
43521.5
42324.7
41135.7
39954.8
38782.5
37619
36464.8
35320.3
34186
33062.3
31949.9
30849.5
29761.9
28688.1
27629.3
26586.5
25560.5
201157
201140
201108
201058
200990
200901
200793
200665
200515
200344
200152
199936
199699
199439
199156
198853
198529
198186
197825
197446
197049
196636
196205
195759
195297
194820
194329
193827
193313
192790
192259
191720
191174
190622
190060
189489
188905
188308
187699
187079
186449
185804
185138
184440
183700
182906
182056
181158
180223
179269
178308
177352
176405
175465
174528
173587
172638
171680
170711
169732
168744
167749
166747
165741
164729
163712
162691
161665
160635
159599
158557
157507
156449
155382
154308
153228
152141
151051
149960
148867
147773
146680
145587
144495
143403
142313
141223
140133
139041
137945
136840
135723
134590
133438
132265
131070
129854
128615
127353
126070
124769
123453
122125
120788
119446
118102
116758
115417
114080
112747
111419
110096
108777
107463
106153
104846
103543
102242
100943
99646.4
98351
97056.7
95763.3
94470.3
93177.7
91885.2
90592.7
89300
88007.1
86713.8
85420.2
84126.3
82832.1
81537.8
80243.3
78948.8
77654.4
76360.2
75066.5
73773.3
72480.8
71189.2
69898.6
68609.3
67321.4
66035.2
64750.9
63468.9
62189.5
60913
59639.7
58370.1
57104.4
55843
54586
53333.9
52086.9
50845.1
49609
48378.7
47154.4
45936.5
44725.4
43521.2
42324.4
41135.4
39954.4
38782
37618.4
36464
35319.4
34184.8
33060.8
31948
30847.1
29758.7
28683.7
27623.1
26577.3
25546.4
201613
201596
201560
201506
201435
201343
201229
201093
200934
200753
200549
200321
200069
199793
199494
199174
198834
198476
198100
197707
197299
196874
196433
195978
195509
195027
194532
194027
193513
192991
192461
191927
191389
190845
190294
189732
189157
188570
187971
187361
186741
186106
185446
184752
184009
183206
182341
181418
180452
179459
178454
177452
176464
175497
174542
173591
172636
171676
170706
169727
168740
167746
166746
165740
164730
163714
162694
161669
160641
159607
158566
157518
156460
155392
154316
153233
152145
151054
149962
148870
147778
146686
145595
144504
143413
142324
141235
140148
139060
137969
136870
135760
134632
133483
132313
131119
129903
128662
127399
126113
124809
123489
122157
120816
119471
118124
116778
115436
114097
112763
111434
110111
108791
107477
106166
104859
103555
102253
100954
99656
98359.9
97064.9
95770.8
94477.3
93184.1
91891.2
90598.2
89305.2
88012
86718.4
85424.6
84130.5
82836.2
81541.7
80247
78952.3
77657.7
76363.4
75069.5
73776.1
72483.4
71191.6
69900.8
68611.2
67323.1
66036.7
64752.2
63470
62190.4
60913.7
59640.4
58370.6
57104.8
55843.2
54586.2
53334
52086.8
50845
49608.8
48378.4
47154.1
45936.2
44725
43520.8
42324
41134.9
39953.9
38781.4
37617.6
36463.1
35318.3
34183.4
33059.2
31945.9
30844.3
29755.1
28678.8
27616.2
26567.5
25532.4
202146
202126
202088
202030
201951
201849
201724
201576
201404
201209
200989
200743
200473
200178
199861
199523
199167
198792
198402
197995
197574
197138
196689
196226
195750
195263
194766
194259
193744
193221
192692
192160
191624
191085
190539
189984
189418
188841
188255
187660
187053
186428
185774
185080
184333
183521
182637
181689
180689
179654
178601
177551
176524
175529
174557
173595
172635
171671
170701
169723
168737
167744
166747
165745
164738
163726
162709
161688
160662
159631
158591
157542
156482
155412
154331
153244
152152
151059
149967
148877
147788
146699
145611
144522
143433
142344
141256
140169
139083
137997
136904
135801
134679
133536
132368
131176
129959
128718
127452
126163
124855
123530
122193
120848
119499
118149
116801
115456
114116
112781
111452
110127
108807
107492
106181
104873
103568
102266
100965
99667.1
98370.3
97074.6
95779.8
94485.6
93191.8
91898.3
90604.9
89311.4
88017.8
86724
85429.9
84135.6
82841
81546.3
80251.4
78956.5
77661.7
76367.1
75073
73779.3
72486.4
71194.3
69903.3
68613.5
67325.1
66038.4
64753.7
63471.3
62191.5
60914.6
59641.1
58371.2
57105.2
55843.5
54586.3
53334
52086.8
50844.9
49608.6
48378.1
47153.8
45935.8
44724.6
43520.4
42323.5
41134.4
39953.3
38780.7
37616.8
36462.1
35317
34181.9
33057.3
31943.5
30841.3
29751.1
28673.4
27608.9
26557.5
25518.6
202758
202736
202691
202624
202533
202418
202278
202113
201923
201709
201469
201203
200913
200599
200263
199907
199534
199143
198738
198318
197885
197439
196981
196512
196031
195541
195041
194532
194014
193490
192960
192426
191891
191353
190810
190261
189707
189147
188580
188005
187417
186806
186162
185468
184713
183885
182978
181995
180955
179872
178768
177671
176607
175584
174593
173618
172650
171681
170709
169732
168747
167757
166761
165761
164757
163749
162737
161720
160698
159669
158630
157579
156515
155438
154351
153258
152162
151067
149976
148888
147803
146719
145635
144550
143463
142374
141286
140198
139112
138028
136941
135844
134731
133594
132430
131239
130022
128779
127511
126218
124905
123575
122232
120882
119529
118175
116825
115478
114137
112801
111471
110145
108825
107509
106197
104888
103583
102280
100979
99679.6
98382
97085.6
95790.1
94495.2
93200.8
91906.7
90612.7
89318.8
88024.7
86730.5
85436.1
84141.4
82846.6
81551.6
80256.4
78961.3
77666.2
76371.4
75077
73783.1
72489.9
71197.5
69906.2
68616.1
67327.4
66040.4
64755.5
63472.8
62192.8
60915.7
59642
58371.9
57105.7
55843.9
54586.6
53334.1
52086.7
50844.7
49608.3
48377.8
47153.4
45935.4
44724.1
43519.9
42323
41133.8
39952.6
38779.9
37615.9
36461
35315.7
34180.3
33055.2
31941
30838
29746.8
28667.8
27601.3
26547.4
25505.3
203442
203415
203363
203285
203181
203051
202893
202710
202500
202264
202003
201716
201404
201070
200714
200340
199950
199543
199124
198691
198248
197794
197329
196855
196371
195878
195375
194863
194342
193813
193279
192742
192205
191666
191128
190590
190052
189513
188972
188423
187859
187267
186631
185937
185171
184321
183381
182357
181269
180133
178976
177833
176734
175685
174673
173683
172703
171727
170750
169769
168782
167790
166793
165793
164790
163785
162777
161765
160747
159719
158679
157625
156555
155470
154374
153273
152172
151077
149988
148904
147825
146747
145669
144587
143502
142414
141325
140236
139149
138066
136983
135894
134788
133658
132498
131308
130090
128844
127572
126276
124957
123622
122274
120918
119560
118203
116850
115501
114159
112822
111491
110165
108843
107527
106214
104905
103598
102295
100993
99693.3
98394.9
97097.7
95801.5
94506
93210.9
91916.2
90621.7
89327.2
88032.7
86738
85443.1
84148.1
82853
81557.6
80262.2
78966.8
77671.4
76376.3
75081.6
73787.5
72493.9
71201.2
69909.5
68619.1
67330.1
66042.8
64757.5
63474.6
62194.3
60917
59643
58372.7
57106.4
55844.4
54586.9
53334.3
52086.7
50844.6
49608.1
48377.4
47152.9
45934.9
44723.6
43519.3
42322.4
41133.1
39951.9
38779
37614.9
36459.8
35314.3
34178.5
33053
31938.2
30834.5
29742.3
28661.9
27593.7
26537.4
25492.6
204202
204171
204111
204023
203906
203759
203585
203382
203153
202896
202613
202305
201972
201618
201243
200851
200443
200022
199590
199147
198695
198234
197764
197286
196799
196302
195795
195276
194749
194212
193670
193127
192584
192045
191512
190985
190466
189950
189435
188912
188371
187796
187169
186473
185692
184816
183836
182767
181629
180440
179232
178047
176914
175838
174806
173798
172805
171819
170832
169842
168848
167849
166846
165841
164836
163832
162827
161819
160803
159776
158734
157675
156598
155504
154398
153289
152184
151089
150004
148927
147855
146785
145713
144636
143552
142464
141373
140283
139196
138114
137036
135953
134854
133727
132569
131378
130158
128910
127635
126335
125013
123672
122318
120956
119592
118231
116875
115525
114181
112844
111512
110185
108863
107545
106232
104922
103615
102311
101009
99708.2
98409
97111.1
95814.1
94517.9
93222.2
91926.9
90631.8
89336.8
88041.7
86746.5
85451.2
84155.7
82860.2
81564.5
80268.7
78973
77677.3
76381.9
75086.9
73792.3
72498.4
71205.4
69913.3
68622.5
67333.2
66045.5
64759.9
63476.6
62196.1
60918.5
59644.3
58373.7
57107.2
55844.9
54587.3
53334.4
52086.7
50844.4
49607.8
48377.1
47152.5
45934.4
44723
43518.7
42321.7
41132.4
39951.1
38778.1
37613.8
36458.6
35312.7
34176.7
33050.7
31935.3
30830.8
29737.6
28656
27586
26527.7
25480.3
205053
205017
204950
204852
204722
204562
204372
204154
203908
203634
203333
203006
202656
202283
201891
201482
201059
200624
200180
199728
199268
198801
198327
197844
197351
196847
196332
195803
195263
194714
194159
193603
193050
192505
191970
191448
190937
190435
189935
189429
188902
188337
187713
187011
186215
185317
184314
183220
182050
180823
179573
178349
177178
176070
175011
173980
172967
171963
170963
169959
168950
167937
166922
165908
164897
163890
162885
161877
160862
159833
158788
157724
156639
155536
154421
153304
152196
151104
150026
148958
147896
146834
145768
144693
143611
142522
141430
140339
139254
138175
137101
136022
134925
133798
132638
131446
130225
128976
127700
126397
125070
123724
122363
120995
119625
118259
116900
115549
114204
112866
111533
110205
108883
107565
106251
104940
103633
102328
101025
99724
98424.2
97125.5
95827.8
94530.9
93234.5
91938.6
90642.9
89347.3
88051.7
86756
85460.1
84164.2
82868.2
81572.1
80276
78979.8
77683.8
76388.1
75092.6
73797.7
72503.4
71210
69917.5
68626.3
67336.6
66048.5
64762.6
63478.9
62198
60920.1
59645.6
58374.8
57108
55845.5
54587.6
53334.6
52086.8
50844.3
49607.5
48376.7
47152.1
45933.9
44722.5
43518.1
42321
41131.6
39950.2
38777.2
37612.7
36457.3
35311.2
34174.7
33048.4
31932.4
30827.1
29732.9
28650
27578.5
26518.2
25468.7
206019
205981
205908
205802
205664
205494
205295
205067
204810
204523
204209
203866
203498
203108
202699
202273
201835
201386
200930
200467
199999
199526
199045
198554
198052
197535
197003
196456
195896
195326
194750
194173
193599
193034
192482
191947
191426
190918
190415
189906
189376
188805
188173
187463
186657
185751
184749
183659
182489
181256
179992
178743
177540
176396
175302
174242
173198
172166
171143
170119
169089
168057
167024
165996
164975
163960
162949
161938
160919
159885
158834
157764
156673
155563
154441
153319
152210
151122
150053
148996
147944
146890
145827
144754
143672
142583
141491
140402
139319
138244
137173
136094
134995
133864
132701
131509
130288
129039
127762
126456
125125
123773
122406
121031
119656
118286
116925
115572
114227
112888
111555
110227
108903
107585
106270
104959
103651
102346
101042
99740.5
98440.1
97140.8
95842.5
94544.9
93247.9
91951.3
90655
89358.8
88062.6
86766.3
85469.9
84173.4
82876.9
81580.3
80283.8
78987.3
77690.9
76394.7
75098.8
73803.5
72508.8
71214.9
69922.1
68630.4
67340.3
66051.8
64765.5
63481.4
62200.1
60921.9
59647
58375.9
57108.8
55846.1
54588
53334.8
52086.8
50844.2
49607.3
48376.3
47151.6
45933.4
44721.9
43517.4
42320.3
41130.9
39949.4
38776.2
37611.6
36456
35309.6
34172.8
33046
31929.4
30823.4
29728.3
28644.2
27571.2
26509.2
25457.7
207145
207104
207029
206922
206782
206612
206410
206175
205907
205605
205270
204905
204514
204101
203672
203229
202776
202313
201843
201368
200888
200403
199908
199402
198881
198343
197787
197214
196625
196024
195415
194802
194192
193590
193002
192432
191881
191343
190811
190276
189721
189129
188481
187762
186955
186057
185075
184015
182873
181666
180419
179170
177952
176779
175650
174553
173473
172406
171353
170304
169253
168200
167149
166104
165068
164040
163019
161998
160971
159930
158871
157793
156697
155583
154458
153334
152227
151144
150084
149037
147995
146946
145885
144811
143728
142641
141552
140466
139386
138313
137240
136158
135053
133919
132754
131562
130342
129093
127814
126504
125168
123811
122439
121061
119683
118311
116948
115595
114249
112910
111576
110248
108924
107605
106291
104979
103671
102364
101060
99757.8
98456.8
97157
95858
94559.9
93262.2
91964.9
90667.9
89371.1
88074.3
86777.4
85480.5
84183.4
82886.3
81589.2
80292.2
78995.2
77698.4
76401.8
75105.5
73809.7
72514.6
71220.3
69927
68634.9
67344.3
66055.4
64768.6
63484.1
62202.4
60923.7
59648.5
58377
57109.6
55846.7
54588.4
53335
52086.8
50844
49607
48376
47151.2
45932.9
44721.3
43516.8
42319.6
41130.1
39948.5
38775.2
37610.5
36454.6
35308
34170.8
33043.5
31926.4
30819.7
29723.7
28638.5
27564.2
26500.6
25447.4
208471
208430
208357
208252
208115
207944
207735
207485
207195
206864
206498
206101
205681
205241
204787
204323
203851
203371
202884
202391
201893
201387
200870
200339
199791
199223
198633
198022
197391
196746
196091
195431
194773
194122
193483
192863
192260
191672
191092
190512
189917
189292
188622
187893
187091
186209
185256
184235
183143
181985
180778
179554
178343
177160
176006
174876
173762
172661
171574
170498
169427
168356
167287
166225
165173
164130
163094
162059
161021
159970
158903
157818
156717
155601
154476
153353
152247
151168
150114
149076
148039
146994
145932
144856
143774
142690
141605
140522
139442
138367
137291
136203
135092
133956
132791
131599
130379
129129
127846
126532
125192
123832
122459
121080
119703
118331
116968
115615
114270
112932
111598
110270
108946
107627
106311
105000
103691
102384
101079
99776.2
98474.7
97174.2
95874.6
94575.8
93277.4
91979.4
90681.6
89384.1
88086.7
86789.3
85491.7
84194.1
82896.5
81598.8
80301.3
79003.8
77706.5
76409.4
75112.7
73816.5
72520.9
71226.1
69932.4
68639.8
67348.8
66059.4
64772.1
63487.1
62204.9
60925.7
59650.1
58378.2
57110.5
55847.2
54588.7
53335.1
52086.7
50843.8
49606.7
48375.6
47150.7
45932.3
44720.7
43516.2
42318.9
41129.3
39947.6
38774.2
37609.3
36453.2
35306.3
34168.9
33041.1
31923.5
30816.1
29719.2
28633
27557.4
26492.5
25437.7
210053
210011
209939
209835
209695
209515
209289
209014
208692
208325
207919
207483
207023
206547
206056
205557
205053
204544
204031
203510
202983
202447
201896
201326
200736
200124
199487
198826
198146
197449
196742
196028
195316
194610
193914
193234
192572
191926
191289
190654
190009
189345
188647
187903
187104
186241
185317
184335
183296
182195
181042
179855
178664
177488
176330
175185
174049
172923
171808
170706
169613
168524
167438
166358
165287
164227
163173
162123
161071
160010
158935
157843
156739
155623
154499
153378
152273
151195
150143
149107
148073
147028
145966
144890
143808
142727
141646
140564
139482
138402
137319
136225
135111
133973
132808
131616
130394
129140
127853
126537
125195
123834
122463
121088
119714
118346
116986
115634
114290
112952
111620
110292
108968
107649
106333
105021
103712
102405
101100
99796.2
98494.2
97193.2
95893
94593.5
93294.2
91995.2
90696.5
89398.3
88100.2
86802.2
85504.1
84205.9
82907.7
81609.4
80311.3
79013.3
77715.5
76417.9
75120.7
73824
72528
71232.7
69938.4
68645.4
67353.7
66063.8
64775.9
63490.4
62207.7
60928
59651.9
58379.6
57111.5
55847.9
54589.1
53335.2
52086.7
50843.7
49606.5
48375.2
47150.3
45931.8
44720.2
43515.6
42318.3
41128.6
39946.8
38773.3
37608.2
36452
35304.8
34167
33038.9
31920.7
30812.6
29715
28627.8
27551.1
26484.9
25428.8
211775
211732
211656
211546
211399
211206
210963
210662
210303
209890
209430
208934
208415
207883
207345
206802
206257
205710
205160
204601
204031
203449
202852
202232
201593
200932
200249
199541
198813
198069
197313
196551
195790
195034
194288
193555
192840
192140
191450
190763
190071
189363
188632
187869
187065
186213
185311
184358
183356
182303
181200
180056
178892
177728
176574
175429
174290
173155
172025
170904
169792
168686
167584
166488
165401
164324
163254
162188
161122
160050
158968
157873
156766
155651
154532
153413
152307
151225
150170
149130
148093
147046
145986
144913
143834
142756
141676
140591
139504
138417
137327
136227
135109
133968
132801
131606
130380
129123
127834
126517
125177
123820
122454
121084
119717
118354
116998
115650
114308
112971
111640
110313
108990
107671
106356
105043
103734
102426
101121
99816.9
98514.4
97213.1
95912.7
94612.6
93312.4
92012.3
90712.5
89413.3
88114.6
86816
85517.4
84218.6
82919.7
81620.8
80322
79023.4
77725
76426.9
75129.2
73832
72535.4
71239.6
69944.8
68651.2
67359
66068.5
64780
63493.9
62210.5
60930.3
59653.6
58380.9
57112.3
55848.4
54589.2
53335.2
52086.5
50843.3
49606
48374.7
47149.7
45931.2
44719.5
43514.8
42317.5
41127.7
39945.9
38772.2
37607
36450.5
35303.1
34165
33036.5
31917.8
30809.2
29710.8
28622.7
27545.1
26477.7
25420.5
213448
213400
213314
213190
213027
212818
212552
212220
211816
211344
210817
210253
209670
209079
208491
207904
207317
206728
206134
205531
204914
204286
203643
202981
202299
201598
200876
200131
199366
198585
197794
196998
196203
195412
194628
193856
193100
192357
191623
190893
190159
189414
188650
187862
187046
186194
185300
184361
183379
182354
181286
180178
179040
177891
176744
175602
174464
173329
172196
171065
169941
168822
167709
166602
165502
164412
163330
162252
161175
160094
159006
157908
156801
155689
154573
153458
152349
151260
150195
149146
148102
147054
145996
144928
143854
142776
141693
140606
139514
138420
137321
136213
135088
133941
132769
131570
130341
129082
127793
126479
125143
123793
122435
121074
119713
118357
117006
115661
114322
112987
111658
110333
109011
107692
106377
105064
103755
102447
101141
99837.4
98534.6
97232.9
95932.2
94631.9
93331.3
92030.1
90729.2
89429
88129.5
86830.3
85531.1
84231.8
82932.3
81632.7
80333.3
79034
77734.9
76436.2
75137.9
73840.2
72543.1
71246.9
69951.6
68657.4
67364.6
66073.5
64784.3
63497.5
62213.5
60932.7
59655.4
58382.2
57113.2
55848.9
54589.4
53335.1
52086.2
50842.9
49605.5
48374.1
47149
45930.5
44718.7
43514
42316.7
41126.9
39944.9
38771.1
37605.8
36449.2
35301.5
34163.1
33034.2
31915.1
30805.9
29706.8
28618
27539.5
26471.1
25412.8
215083
215023
214914
214760
214560
214313
214007
213632
213177
212647
212058
211432
210788
210143
209504
208873
208242
207608
206970
206324
205666
204997
204314
203613
202895
202161
201408
200634
199842
199036
198220
197401
196582
195766
194956
194154
193366
192588
191817
191050
190280
189501
188707
187895
187062
186201
185305
184369
183395
182383
181335
180253
179141
178008
176868
175728
174592
173458
172326
171194
170064
168937
167815
166700
165593
164494
163402
162315
161229
160141
159049
157950
156844
155734
154622
153509
152399
151302
150225
149164
148112
147061
146003
144937
143864
142783
141698
140606
139509
138407
137299
136181
135048
133895
132717
131514
130283
129024
127737
126428
125099
123758
122410
121057
119705
118355
117010
115669
114332
113001
111673
110350
109030
107712
106397
105085
103775
102468
101162
99857.8
98554.6
97252.4
95951.3
94650.9
93350.1
92048.4
90746.5
89445.3
88145
86845.2
85545.5
84245.7
82945.5
81645.2
80345
79045
77745.3
76445.9
75147
73848.8
72551.2
71254.4
69958.6
68663.9
67370.5
66078.7
64788.8
63501.3
62216.6
60935.1
59657.3
58383.4
57114
55849.3
54589.6
53335
52085.9
50842.5
49605
48373.5
47148.4
45929.8
44718
43513.3
42315.9
41126
39944
38770.2
37604.7
36447.9
35300
34161.4
33032.2
31912.6
30802.9
29703.2
28613.7
27534.3
26465.1
25405.9
216713
216632
216487
216282
216022
215709
215339
214901
214388
213802
213156
212476
211783
211094
210416
209749
209079
208404
207723
207034
206335
205626
204904
204168
203419
202655
201876
201079
200267
199442
198609
197772
196935
196100
195269
194445
193630
192823
192022
191223
190421
189613
188793
187958
187106
186232
185327
184389
183416
182409
181372
180305
179211
178095
176966
175830
174694
173561
172430
171299
170167
169037
167911
166790
165678
164572
163472
162377
161285
160193
159098
157999
156894
155785
154675
153564
152455
151352
150264
149192
148131
147073
146011
144942
143864
142779
141688
140591
139489
138380
137264
136137
134996
133835
132652
131446
130214
128956