/*--------------------------------*- C++ -*----------------------------------*\
  =========                 |
  \\      /  F ield         | OpenFOAM: The Open Source CFD Toolbox
   \\    /   O peration     | Website:  https://openfoam.org
    \\  /    A nd           | Version:  9
     \\/     M anipulation  |
\*---------------------------------------------------------------------------*/
FoamFile
{
    format      ascii;
    class       volVectorField;
    location    "0.053";
    object      U;
}
// * * * * * * * * * * * * * * * * * * * * * * * * * * * * * * * * * * * * * //

dimensions      [0 1 -1 0 0 0 0];

internalField   nonuniform List<vector> 
12225
(
(9.56511 0.0701233 0)
(9.35756 0.0541644 0)
(9.17841 0.0476093 0)
(8.9912 0.0634794 0)
(8.74876 0.0780741 0)
(8.44983 0.0777616 0)
(8.12174 0.0641119 0)
(7.80601 0.0434192 0)
(7.52292 0.0240101 0)
(7.29495 0.014392 0)
(7.08346 0.0180913 0)
(6.90062 0.0339166 0)
(6.66565 0.0546359 0)
(6.45476 0.0715078 0)
(6.13592 0.0852188 0)
(5.88588 0.0921671 0)
(5.43734 0.11621 0)
(5.20703 0.11933 0)
(9.90022 -0.0145035 0)
(10.0351 0.03797 0)
(9.97553 0.0349645 0)
(9.96374 0.0259928 0)
(10.0263 0.0394578 0)
(10.1033 0.0681636 0)
(10.1485 0.0971589 0)
(10.1543 0.116721 0)
(10.1184 0.12252 0)
(10.0537 0.119212 0)
(9.95521 0.109916 0)
(9.85131 0.102604 0)
(9.73391 0.098337 0)
(9.64437 0.10341 0)
(9.54168 0.121854 0)
(9.46311 0.149083 0)
(9.32403 0.188885 0)
(9.23689 0.267296 0)
(10.0887 -0.0815516 0)
(10.2711 0.0547166 0)
(10.268 0.0810056 0)
(10.2171 0.0631419 0)
(10.1482 0.0545461 0)
(10.1019 0.0571513 0)
(10.1012 0.0590228 0)
(10.1333 0.0543663 0)
(10.1701 0.0486797 0)
(10.1913 0.0530382 0)
(10.1842 0.0685601 0)
(10.1509 0.0917331 0)
(10.0995 0.11634 0)
(10.0444 0.13844 0)
(9.99328 0.161058 0)
(9.95224 0.190471 0)
(9.91907 0.231392 0)
(9.89791 0.290194 0)
(10.0957 -0.0898019 0)
(10.0377 -0.00169688 0)
(10.0479 0.0455435 0)
(10.051 0.0470042 0)
(10.037 0.0543927 0)
(10.037 0.0694828 0)
(10.0617 0.0843863 0)
(10.0907 0.0968055 0)
(10.1048 0.10881 0)
(10.1022 0.122948 0)
(10.091 0.136467 0)
(10.0805 0.146208 0)
(10.0753 0.150946 0)
(10.0754 0.15271 0)
(10.0753 0.161252 0)
(10.0721 0.183523 0)
(10.0634 0.220849 0)
(10.0533 0.278304 0)
(10.3818 -0.0638629 0)
(10.2736 0.0756158 0)
(10.1753 0.095193 0)
(10.0854 0.0797742 0)
(10.0248 0.069047 0)
(10.0003 0.0573717 0)
(9.99967 0.044491 0)
(10.0047 0.0381065 0)
(10.0125 0.0416259 0)
(10.0312 0.0539512 0)
(10.0642 0.0709856 0)
(10.1041 0.0900654 0)
(10.1376 0.111407 0)
(10.1522 0.136731 0)
(10.1397 0.168475 0)
(10.1052 0.208388 0)
(10.0556 0.255168 0)
(10.0074 0.30621 0)
(10.1897 0.0219185 0)
(10.1436 0.0694102 0)
(10.1443 0.103236 0)
(10.0808 0.0844174 0)
(10.0468 0.0663892 0)
(10.0733 0.0671392 0)
(10.1209 0.0804417 0)
(10.1386 0.0933165 0)
(10.1142 0.0996348 0)
(10.0702 0.102493 0)
(10.0322 0.106825 0)
(10.0122 0.115856 0)
(10.0089 0.131067 0)
(10.0152 0.152898 0)
(10.0218 0.18184 0)
(10.0244 0.218575 0)
(10.0202 0.260588 0)
(10.0126 0.30713 0)
(9.97726 0.108387 0)
(10.097 0.0876643 0)
(10.1865 0.114656 0)
(10.2745 0.115385 0)
(10.2574 0.0788141 0)
(10.1815 0.0382345 0)
(10.1421 0.0258289 0)
(10.159 0.0438034 0)
(10.1974 0.0724487 0)
(10.2217 0.0935725 0)
(10.2146 0.102316 0)
(10.1777 0.10583 0)
(10.1233 0.114238 0)
(10.0652 0.135277 0)
(10.0128 0.169863 0)
(9.96993 0.215453 0)
(9.93763 0.266425 0)
(9.91688 0.319014 0)
(10.2189 -0.0687225 0)
(10.1606 0.030939 0)
(10.1049 0.0546298 0)
(10.1876 0.0653868 0)
(10.2601 0.0935096 0)
(10.2494 0.102425 0)
(10.1996 0.0849746 0)
(10.167 0.0651615 0)
(10.1715 0.0637851 0)
(10.1974 0.0841254 0)
(10.2129 0.117306 0)
(10.1949 0.152357 0)
(10.145 0.183118 0)
(10.0791 0.208627 0)
(10.0228 0.231937 0)
(9.98672 0.257278 0)
(9.98206 0.285977 0)
(9.99964 0.322131 0)
(9.95767 0.0945157 0)
(9.99539 0.137901 0)
(10.1018 0.0913545 0)
(10.1634 0.0598753 0)
(10.1562 0.0604318 0)
(10.1173 0.0673005 0)
(10.085 0.0668813 0)
(10.0666 0.0641314 0)
(10.0622 0.0694796 0)
(10.0747 0.0881073 0)
(10.1014 0.117341 0)
(10.1342 0.150163 0)
(10.1644 0.180324 0)
(10.1873 0.204202 0)
(10.1996 0.222552 0)
(10.204 0.239102 0)
(10.2032 0.256093 0)
(10.2014 0.279462 0)
(10.0284 0.047932 0)
(10.2202 -0.0255621 0)
(10.2497 -0.00705119 0)
(10.1932 0.0567686 0)
(10.112 0.111229 0)
(10.0724 0.123857 0)
(10.1028 0.100454 0)
(10.1739 0.0678844 0)
(10.2435 0.0480837 0)
(10.2869 0.0494731 0)
(10.2979 0.0706266 0)
(10.2845 0.105188 0)
(10.2618 0.145117 0)
(10.2443 0.184435 0)
(10.2374 0.220744 0)
(10.2404 0.254369 0)
(10.2465 0.287509 0)
(10.2516 0.320314 0)
(9.97813 0.0922377 0)
(10.0102 0.114023 0)
(9.97355 0.102429 0)
(9.99625 0.113907 0)
(10.0601 0.112228 0)
(10.1238 0.0735114 0)
(10.175 0.0223738 0)
(10.1998 -0.00278117 0)
(10.1905 0.0173169 0)
(10.1505 0.0724588 0)
(10.0917 0.136154 0)
(10.0312 0.186005 0)
(9.98685 0.21372 0)
(9.96848 0.223744 0)
(9.97746 0.226538 0)
(10.0084 0.232726 0)
(10.0533 0.247404 0)
(10.1065 0.275834 0)
(9.80934 0.0817399 0)
(9.74589 -0.0105998 0)
(9.76515 -0.00391492 0)
(9.88963 0.031908 0)
(10.0091 0.0559803 0)
(10.0509 0.0650235 0)
(10.0186 0.0619589 0)
(9.9584 0.0573252 0)
(9.92136 0.0663547 0)
(9.92942 0.0938154 0)
(9.9731 0.129966 0)
(10.033 0.161459 0)
(10.0935 0.181011 0)
(10.147 0.189861 0)
(10.1864 0.193728 0)
(10.2136 0.200681 0)
(10.2261 0.214739 0)
(10.2333 0.240099 0)
(10.1856 0.301314 0)
(9.97416 0.173458 0)
(9.98631 0.0513508 0)
(10.0646 0.00583601 0)
(10.1252 0.0293789 0)
(10.1528 0.0670339 0)
(10.155 0.0709282 0)
(10.138 0.0501377 0)
(10.1128 0.0386426 0)
(10.0912 0.0536779 0)
(10.0783 0.08693 0)
(10.0724 0.121673 0)
(10.0702 0.147406 0)
(10.0696 0.165772 0)
(10.0708 0.182556 0)
(10.0748 0.204592 0)
(10.0819 0.233267 0)
(10.0952 0.267818 0)
(9.99019 0.209051 0)
(10.2054 0.0370014 0)
(10.2959 -0.0628858 0)
(10.312 -0.039061 0)
(10.2707 0.0117134 0)
(10.2132 0.0518842 0)
(10.1705 0.07258 0)
(10.1532 0.0814441 0)
(10.1596 0.0931005 0)
(10.1817 0.11427 0)
(10.206 0.141165 0)
(10.2187 0.166123 0)
(10.215 0.183216 0)
(10.1968 0.190564 0)
(10.1775 0.190887 0)
(10.1648 0.191091 0)
(10.1711 0.194351 0)
(10.1934 0.209193 0)
(10.1697 0.0279255 0)
(10.2277 0.0550269 0)
(10.1361 0.0300488 0)
(10.0246 0.0301213 0)
(9.9474 0.0950596 0)
(9.9141 0.140987 0)
(9.91866 0.119 0)
(9.95257 0.0574702 0)
(10.0024 0.01139 0)
(10.0533 0.0110103 0)
(10.0986 0.0525583 0)
(10.1373 0.112458 0)
(10.1716 0.167063 0)
(10.2023 0.202213 0)
(10.2304 0.215158 0)
(10.2582 0.213848 0)
(10.286 0.204757 0)
(10.3179 0.20077 0)
(10.1002 0.0502964 0)
(10.1984 0.0475405 0)
(10.2361 0.0826667 0)
(10.1744 0.0947248 0)
(10.1315 0.084936 0)
(10.1539 0.0555312 0)
(10.2137 0.0196735 0)
(10.2603 -0.00123943 0)
(10.2646 0.00333431 0)
(10.2302 0.0285926 0)
(10.1791 0.0608561 0)
(10.1352 0.0884276 0)
(10.1123 0.10511 0)
(10.1151 0.112094 0)
(10.1356 0.111868 0)
(10.1693 0.110697 0)
(10.2034 0.109782 0)
(10.2403 0.113556 0)
(10.1174 0.0453851 0)
(10.1154 -0.0285756 0)
(10.1503 0.0451356 0)
(10.1265 0.121862 0)
(10.081 0.123707 0)
(10.0504 0.077192 0)
(10.0445 0.0294679 0)
(10.0524 0.0193741 0)
(10.0677 0.0574627 0)
(10.0884 0.123281 0)
(10.1125 0.183831 0)
(10.1372 0.21639 0)
(10.1573 0.214934 0)
(10.168 0.189804 0)
(10.169 0.15493 0)
(10.1621 0.12471 0)
(10.1531 0.104717 0)
(10.1446 0.0966897 0)
(10.2852 0.140998 0)
(10.1799 0.149424 0)
(10.1359 0.135313 0)
(10.1091 0.158801 0)
(10.1246 0.148237 0)
(10.1442 0.0891294 0)
(10.1423 0.0144869 0)
(10.1327 -0.0432763 0)
(10.1363 -0.0713677 0)
(10.1624 -0.0734985 0)
(10.209 -0.0554879 0)
(10.2665 -0.0214844 0)
(10.324 0.0234008 0)
(10.3734 0.0720211 0)
(10.4124 0.114168 0)
(10.4425 0.141853 0)
(10.4679 0.150461 0)
(10.4898 0.139814 0)
(9.97188 0.0580864 0)
(9.93516 0.166677 0)
(9.96703 0.113986 0)
(10.0493 0.0532008 0)
(10.1192 0.0427015 0)
(10.1619 0.0536481 0)
(10.1743 0.0561927 0)
(10.1698 0.0474359 0)
(10.1588 0.0382165 0)
(10.1427 0.035285 0)
(10.1256 0.0366495 0)
(10.1147 0.0363323 0)
(10.1135 0.0300727 0)
(10.1234 0.0169894 0)
(10.1429 -0.000368298 0)
(10.1702 -0.0171141 0)
(10.1997 -0.029581 0)
(10.2289 -0.0325916 0)
(10.0324 -0.220428 0)
(10.0014 -0.0334159 0)
(9.97621 0.0501041 0)
(9.96272 0.0257203 0)
(10.0122 0.00304028 0)
(10.0925 -0.00309385 0)
(10.1566 -0.00599516 0)
(10.1922 -0.0116147 0)
(10.2065 -0.015949 0)
(10.2112 -0.0133362 0)
(10.2161 -0.00483657 0)
(10.2243 0.00365565 0)
(10.2312 0.00763133 0)
(10.2318 0.00743005 0)
(10.2253 0.00545649 0)
(10.2157 0.00395336 0)
(10.2055 0.00329095 0)
(10.2002 0.00303095 0)
(10.009 -0.0256716 0)
(10.0309 0.098636 0)
(10.0335 0.0840133 0)
(10.0381 -0.0163533 0)
(10.022 -0.100494 0)
(10.0026 -0.120717 0)
(10.002 -0.0823922 0)
(10.0196 -0.0278429 0)
(10.0465 0.00614808 0)
(10.0733 0.0133801 0)
(10.092 0.00839619 0)
(10.0982 0.0064927 0)
(10.092 0.0127314 0)
(10.0772 0.0218665 0)
(10.0602 0.025481 0)
(10.0479 0.0199964 0)
(10.0439 0.00398629 0)
(10.0529 -0.0160811 0)
(10.029 0.00753567 0)
(10.091 0.00170282 0)
(10.088 0.0334203 0)
(10.087 0.0414731 0)
(10.0701 0.0272999 0)
(10.0472 -0.00550362 0)
(10.0549 -0.043233 0)
(10.0959 -0.0685787 0)
(10.1516 -0.0752855 0)
(10.2048 -0.0628451 0)
(10.2474 -0.0330476 0)
(10.2766 0.00655944 0)
(10.2898 0.0424242 0)
(10.2874 0.0627414 0)
(10.2736 0.0601902 0)
(10.252 0.0365112 0)
(10.2255 -0.00164531 0)
(10.1958 -0.0426906 0)
(9.92105 0.119024 0)
(9.93024 0.0970909 0)
(9.95556 0.0521093 0)
(10.04 0.0165486 0)
(10.1338 -0.0426158 0)
(10.175 -0.0997504 0)
(10.1572 -0.129796 0)
(10.0954 -0.135569 0)
(10.0167 -0.128781 0)
(9.95157 -0.112134 0)
(9.91771 -0.0851065 0)
(9.91642 -0.0478668 0)
(9.94249 -0.00506869 0)
(9.98742 0.0357941 0)
(10.041 0.0660824 0)
(10.094 0.0806919 0)
(10.1418 0.0783251 0)
(10.1783 0.061419 0)
(10.0437 -0.0657897 0)
(10.2214 -0.0307973 0)
(10.3215 -0.0516604 0)
(10.3754 -0.0843567 0)
(10.3763 -0.0830744 0)
(10.3363 -0.0376143 0)
(10.2731 0.0230488 0)
(10.2013 0.0614532 0)
(10.1454 0.0630613 0)
(10.1235 0.0381911 0)
(10.1382 0.00724931 0)
(10.1822 -0.0167574 0)
(10.2397 -0.031291 0)
(10.2956 -0.041981 0)
(10.3357 -0.0548114 0)
(10.3531 -0.0718168 0)
(10.3448 -0.0902199 0)
(10.3165 -0.105529 0)
(10.1295 -0.0302755 0)
(10.117 -0.0966009 0)
(10.1133 -0.02975 0)
(10.0797 -0.0124329 0)
(9.99892 -0.0271313 0)
(9.91873 -0.0282448 0)
(9.88202 -0.0186162 0)
(9.89239 -0.0239497 0)
(9.93925 -0.0537219 0)
(10.0115 -0.100798 0)
(10.0957 -0.140502 0)
(10.178 -0.151878 0)
(10.2481 -0.128192 0)
(10.2976 -0.0760224 0)
(10.3194 -0.0115049 0)
(10.3131 0.0488459 0)
(10.2858 0.0914592 0)
(10.2443 0.105924 0)
(10.2845 0.0895822 0)
(10.3979 0.00605402 0)
(10.3369 -0.0470326 0)
(10.2583 -0.0128939 0)
(10.1967 0.0210416 0)
(10.1778 0.0406041 0)
(10.2123 0.0416766 0)
(10.2768 0.0191204 0)
(10.3348 -0.0238288 0)
(10.3609 -0.0737239 0)
(10.3513 -0.113628 0)
(10.317 -0.130471 0)
(10.2761 -0.121529 0)
(10.2452 -0.0926726 0)
(10.2341 -0.054655 0)
(10.2402 -0.0189014 0)
(10.2561 0.00730657 0)
(10.2747 0.0176645 0)
(10.149 -0.0977676 0)
(10.1859 -0.0593283 0)
(10.0656 0.0336717 0)
(10.0041 0.052896 0)
(9.99428 0.0119355 0)
(10.0179 -0.0361456 0)
(10.0721 -0.0721824 0)
(10.1433 -0.0964728 0)
(10.2073 -0.116041 0)
(10.2476 -0.129262 0)
(10.2606 -0.131735 0)
(10.2499 -0.120055 0)
(10.2238 -0.0948672 0)
(10.1918 -0.0595424 0)
(10.1615 -0.0202373 0)
(10.1402 0.0154759 0)
(10.1313 0.0418997 0)
(10.1345 0.0529801 0)
(9.92889 0.0627527 0)
(9.93184 0.0617105 0)
(9.97264 0.0432403 0)
(10.0716 0.0351782 0)
(10.1686 0.0189163 0)
(10.2504 -0.00345347 0)
(10.3288 -0.024958 0)
(10.386 -0.0476312 0)
(10.3886 -0.0723802 0)
(10.3261 -0.0921612 0)
(10.222 -0.0986003 0)
(10.1159 -0.0891237 0)
(10.0405 -0.0674597 0)
(10.0105 -0.0391602 0)
(10.026 -0.0108886 0)
(10.0735 0.0125255 0)
(10.1402 0.0243167 0)
(10.2119 0.0185264 0)
(9.90906 -0.101179 0)
(10.0443 -0.062319 0)
(10.0544 -0.0253586 0)
(10.0624 -0.0222175 0)
(10.0949 -0.0625035 0)
(10.1544 -0.111401 0)
(10.2206 -0.135429 0)
(10.2579 -0.125671 0)
(10.2411 -0.0938886 0)
(10.1776 -0.0597713 0)
(10.1 -0.0389407 0)
(10.0411 -0.0359479 0)
(10.0164 -0.0450565 0)
(10.0262 -0.0561613 0)
(10.0624 -0.0614557 0)
(10.1133 -0.0603923 0)
(10.1677 -0.0540053 0)
(10.2141 -0.0476213 0)
(9.78137 0.00859802 0)
(9.63285 0.00724693 0)
(9.62663 0.0384034 0)
(9.69444 0.025636 0)
(9.65339 -0.0124227 0)
(9.43913 -0.051343 0)
(9.13168 -0.0677575 0)
(8.84331 -0.0584266 0)
(8.63252 -0.0388256 0)
(8.49874 -0.0259734 0)
(8.40958 -0.0265494 0)
(8.32686 -0.0370608 0)
(8.22409 -0.0496339 0)
(8.09913 -0.0567176 0)
(7.96688 -0.0552624 0)
(7.84622 -0.0472494 0)
(7.74606 -0.0373423 0)
(7.66759 -0.0319475 0)
(-0.170972 0.400792 9.59736e-20)
(-0.477376 0.308719 -9.51789e-20)
(-0.689383 0.124375 0)
(-0.70658 -0.106907 0)
(-0.490465 -0.383775 0)
(-0.0923536 -0.51462 9.24292e-20)
(0.361426 -0.489023 0)
(0.764725 -0.396492 0)
(1.09007 -0.250725 0)
(1.29418 -0.07596 0)
(1.37702 0.0982454 -8.85904e-20)
(1.34534 0.238345 0)
(1.2199 0.341111 0)
(1.01897 0.397923 0)
(0.779692 0.383058 0)
(0.548484 0.296395 -8.53622e-20)
(0.350667 0.181265 0)
(0.187501 0.0795011 0)
(0.0537404 0.00882428 0)
(-0.0586376 -0.024804 0)
(-0.160968 -0.0292583 0)
(-0.264295 -0.0177674 0)
(-0.375485 -0.00112214 0)
(-0.495503 0.0132882 -8.01283e-20)
(-0.619318 0.0232818 7.94525e-20)
(-0.740218 0.0285257 -7.87866e-20)
(-0.852418 0.0271919 -7.81337e-20)
(-0.947713 0.0196022 0)
(-1.01857 0.00868633 0)
(-1.06198 -0.00678665 7.62787e-20)
(-1.0762 -0.0279034 7.56993e-20)
(-1.05305 -0.0469745 0)
(-0.991972 -0.0634916 0)
(-0.904248 -0.090236 7.4065e-20)
(-0.776695 -0.109111 0)
(-0.617658 -0.106153 0)
(-0.472255 -0.132513 -7.25764e-20)
(-0.279846 -0.118648 0)
(-0.131658 -0.0727534 -7.16307e-20)
(-0.0195449 -0.080982 -1.42307e-19)
(0.0907787 0.0878364 0)
(-0.0425569 0.122839 0)
(-0.0755926 0.371431 0)
(-0.610955 0.351203 0)
(-0.902487 -0.284242 0)
(-0.812023 -0.0662173 -1.3612e-19)
(-0.824484 0.0878242 -1.35074e-19)
(-0.898138 0.120831 -1.33881e-19)
(-1.14627 0.291024 0)
(-1.4822 0.394122 1.31143e-19)
(-1.87236 0.400604 0)
(-2.24926 0.333251 -1.28081e-19)
(-2.55659 0.220753 -1.26553e-19)
(-2.73936 0.0865742 0)
(-2.75677 -0.0537701 0)
(-2.61313 -0.210262 0)
(-2.28399 -0.387423 -1.21711e-19)
(-1.74601 -0.582315 0)
(-0.987329 -0.792422 0)
(0.0173114 -0.972923 0)
(1.18768 -1.03443 0)
(2.35057 -0.901219 0)
(3.32546 -0.667305 0)
(3.94525 -0.521343 0)
(4.12279 -0.355093 0)
(3.8938 0.0357563 1.11656e-19)
(3.39926 0.494791 0)
(2.90064 0.603149 0)
(2.57923 0.27066 -1.08717e-19)
(2.3983 -0.152293 -1.07584e-19)
(2.22951 -0.270012 0)
(1.90202 -0.00844255 1.05319e-19)
(1.2912 0.345068 -1.04374e-19)
(0.528505 0.497797 0)
(-0.208349 0.480753 1.02281e-19)
(-0.867445 0.422601 0)
(-1.4374 0.362254 0)
(-1.93762 0.31186 -9.80363e-20)
(-2.38656 0.274791 0)
(-2.80248 0.25136 9.5159e-20)
(-3.20143 0.240041 0)
(-3.59706 0.238468 -9.22674e-20)
(-4.00007 0.243949 -9.08027e-20)
(-4.41806 0.253861 -8.93183e-20)
(-4.85568 0.265859 -1.75621e-19)
(-5.31485 0.277921 1.72555e-19)
(-5.79497 0.28834 0)
(-6.29316 0.29572 0)
(-6.80451 0.298989 0)
(-7.32233 0.297381 1.59852e-19)
(-7.83847 0.29041 1.56633e-19)
(-8.34362 0.277902 -1.53443e-19)
(-8.82793 0.260014 0)
(-9.28133 0.237122 1.47294e-19)
(-9.69397 0.209691 1.44413e-19)
(-10.0565 0.17845 1.41714e-19)
(-10.3606 0.144466 0)
(-10.5992 0.108396 0)
(-10.766 0.0701968 0)
(-10.8556 0.0310741 1.33417e-19)
(-10.8646 -0.00583884 0)
(-10.7995 -0.0405345 0)
(-10.6576 -0.0738726 -1.3025e-19)
(-10.4438 -0.104598 0)
(-10.1613 -0.132916 0)
(-9.8165 -0.157886 -1.2933e-19)
(-9.41634 -0.179129 0)
(-8.96859 -0.196551 0)
(-8.4812 -0.21023 1.29492e-19)
(-7.96179 -0.220438 1.29565e-19)
(-7.41746 -0.227526 0)
(-6.8546 -0.231886 -1.29519e-19)
(-6.27874 -0.23393 0)
(-5.69454 -0.234097 1.29067e-19)
(-5.10575 -0.232839 0)
(-4.51535 -0.230568 1.28116e-19)
(-3.92536 -0.227668 1.27451e-19)
(-3.33683 -0.224521 0)
(-2.7503 -0.221333 0)
(-2.16596 -0.218187 0)
(-1.58367 -0.215146 0)
(-1.00377 -0.211758 0)
(-0.426793 -0.208101 0)
(0.144742 -0.204202 0)
(0.708253 -0.198382 1.18435e-19)
(1.26071 -0.190976 -1.16863e-19)
(1.79611 -0.181478 0)
(2.3078 -0.169503 0)
(2.78831 -0.154816 0)
(3.22976 -0.137422 0)
(3.6247 -0.117642 -2.1687e-19)
(3.96675 -0.0961347 0)
(4.25132 -0.0740038 2.09855e-19)
(4.47645 -0.0520373 -2.06363e-19)
(4.64082 -0.0312511 0)
(4.74814 -0.0129531 0)
(4.80231 0.00432439 0)
(4.80112 0.0209633 1.92831e-19)
(4.75333 0.0342282 1.89591e-19)
(4.6689 0.0430713 0)
(4.55708 0.0480251 1.83302e-19)
(4.4268 0.050106 1.80251e-19)
(4.2855 0.0500355 -1.7726e-19)
(4.13956 0.0481959 0)
(3.99527 0.0449464 0)
(3.85907 0.0403715 -1.68646e-19)
(3.73791 0.034005 0)
(3.63876 0.0263938 0)
(3.56589 0.0199044 0)
(3.51953 0.0152125 0)
(3.49929 0.00971947 1.55711e-19)
(3.50572 0.00375355 1.53343e-19)
(3.53385 0.00289876 0)
(3.56672 0.0112104 1.48747e-19)
(3.58765 0.0205876 0)
(3.59545 0.0232717 0)
(3.59109 0.0309503 1.41987e-19)
(3.54585 0.0639507 0)
(3.40678 0.114089 1.37484e-19)
(3.15575 0.142798 0)
(2.84933 0.12781 0)
(2.57522 0.0851962 1.30565e-19)
(2.38749 0.040349 0)
(2.29499 0.005656 1.25996e-19)
(2.27632 -0.0192299 0)
(2.29748 -0.036199 0)
(2.32948 -0.0373477 0)
(2.35358 -0.0258456 -1.17099e-19)
(2.35233 -0.00371182 0)
(2.3142 0.0180342 1.12628e-19)
(2.23586 0.0293697 0)
(2.13377 0.0279703 0)
(2.02855 0.0198395 0)
(1.93779 0.0119343 0)
(1.87072 0.0105968 0)
(1.80627 0.0114104 0)
(1.77326 0.0222468 0)
(1.65419 0.0220444 -1.89844e-19)
(1.66527 0.0540198 0)
(1.29983 0.0316314 0)
(0.0216491 0.863256 -2.88009e-19)
(-0.00412284 0.697616 2.85924e-19)
(-0.0148917 0.32644 0)
(0.00982151 -0.226549 -1.8776e-19)
(0.178636 -0.955418 0)
(0.49176 -1.39924 -9.22567e-20)
(0.748067 -1.37733 1.82843e-19)
(0.96548 -1.16879 1.8132e-19)
(1.11872 -0.853147 0)
(1.20018 -0.486541 1.78477e-19)
(1.18008 -0.184861 8.86134e-20)
(1.09922 0.0641791 0)
(1.01852 0.267797 0)
(0.930594 0.417791 0)
(0.810065 0.503965 0)
(0.649142 0.530314 8.53104e-20)
(0.446775 0.518371 0)
(0.203625 0.491003 -1.6819e-19)
(-0.0745056 0.462171 0)
(-0.374812 0.434339 0)
(-0.691704 0.420242 1.64015e-19)
(-1.01119 0.42613 0)
(-1.32397 0.439999 -1.61068e-19)
(-1.62388 0.446585 7.98563e-20)
(-1.90149 0.437315 -7.91562e-20)
(-2.14875 0.408436 7.84737e-20)
(-2.36105 0.359181 7.78112e-20)
(-2.53244 0.291913 0)
(-2.65843 0.21052 0)
(-2.73967 0.119423 -7.59589e-20)
(-2.7779 0.024251 7.52138e-20)
(-2.76878 -0.0693977 0)
(-2.71147 -0.159505 0)
(-2.61029 -0.244854 -7.37441e-20)
(-2.46841 -0.319339 0)
(-2.29251 -0.371819 0)
(-2.07982 -0.394687 7.22719e-20)
(-1.82312 -0.391783 0)
(-1.56797 -0.364096 -7.13267e-20)
(-1.31662 -0.262904 1.41851e-19)
(-0.981563 -0.0568307 0)
(-0.800564 0.105912 0)
(-0.509585 0.451957 2.78716e-19)
(-0.363857 0.807645 2.76829e-19)
(-0.43678 0.582633 2.74912e-19)
(-0.773857 0.0174167 -1.36627e-19)
(-0.787853 0.0235286 1.35202e-19)
(-0.887674 0.347822 4.02392e-19)
(-0.941677 0.495381 -2.6577e-19)
(-0.971699 0.578704 -1.31329e-19)
(-0.996446 0.599647 0)
(-1.02687 0.544202 1.28424e-19)
(-1.05215 0.407198 -1.2689e-19)
(-1.04417 0.196061 0)
(-1.01109 -0.0937801 0)
(-0.908858 -0.447977 0)
(-0.721734 -0.853682 1.22014e-19)
(-0.439822 -1.29138 0)
(-0.0606861 -1.74149 -2.39963e-19)
(0.439077 -2.15028 0)
(1.01636 -2.32 -2.36168e-19)
(1.63394 -2.05993 0)
(2.23963 -1.35058 2.31058e-19)
(2.67462 -0.405403 0)
(2.82123 0.374147 -2.25928e-19)
(2.79013 0.725836 1.11617e-19)
(2.75981 0.654322 0)
(2.69859 0.380408 2.19279e-19)
(2.31697 0.32353 1.08758e-19)
(1.45766 0.610169 1.07838e-19)
(0.368525 0.972433 0)
(-0.64079 1.22111 1.05492e-19)
(-1.48472 1.31296 1.04361e-19)
(-2.16365 1.25887 0)
(-2.71123 1.12546 -1.01777e-19)
(-3.16737 0.982081 2.00476e-19)
(-3.55575 0.852685 0)
(-3.89829 0.750207 9.76427e-20)
(-4.21187 0.678007 0)
(-4.51027 0.634488 -2.84368e-19)
(-4.80444 0.615175 0)
(-5.10277 0.614538 2.75906e-19)
(-5.41125 0.626946 9.05445e-20)
(-5.73371 0.647188 -8.90354e-20)
(-6.07217 0.670709 -1.75079e-19)
(-6.4271 0.693688 1.72019e-19)
(-6.79768 0.713012 0)
(-7.18188 0.726181 0)
(-7.57644 0.73116 0)
(-7.97686 0.726197 -4.78426e-19)
(-8.37734 0.709866 -1.56406e-19)
(-8.77086 0.681235 1.53251e-19)
(-9.14949 0.639955 0)
(-9.50484 0.586199 1.46578e-19)
(-9.82856 0.520527 -1.4432e-19)
(-10.1127 0.443869 -1.4165e-19)
(-10.3499 0.357693 0)
(-10.5334 0.263601 0)
(-10.6582 0.163211 0)
(-10.7199 0.0598369 -1.33445e-19)
(-10.7145 -0.0435333 0)
(-10.6326 -0.146431 2.61399e-19)
(-10.4774 -0.246089 3.90144e-19)
(-10.2482 -0.340002 -2.58907e-19)
(-9.95012 -0.42574 0)
(-9.58908 -0.50128 -1.28877e-19)
(-9.17257 -0.565428 0)
(-8.70881 -0.61785 -2.58432e-19)
(-8.20596 -0.65892 1.29207e-19)
(-7.67183 -0.689504 1.29323e-19)
(-7.11353 -0.710717 0)
(-6.5374 -0.723784 3.88302e-19)
(-5.94896 -0.72997 -2.58508e-19)
(-5.35278 -0.730572 -1.29031e-19)
(-4.7525 -0.726866 0)
(-4.15094 -0.720089 -1.28084e-19)
(-3.54994 -0.71146 -3.82152e-19)
(-2.95034 -0.702179 0)
(-2.35251 -0.692915 -2.51361e-19)
(-1.75649 -0.683708 -2.49367e-19)
(-1.16156 -0.674806 -2.47197e-19)
(-0.56757 -0.665764 0)
(0.0242794 -0.65538 0)
(0.612584 -0.643267 0)
(1.1947 -0.626696 1.18133e-19)
(1.76623 -0.605114 1.16722e-19)
(2.32091 -0.577343 0)
(2.851 -0.542499 2.26794e-19)
(3.34758 -0.500266 2.2344e-19)
(3.80136 -0.45105 0)
(4.20396 -0.395939 2.16648e-19)
(4.54941 -0.336467 4.26213e-19)
(4.83528 -0.274481 -2.09671e-19)
(5.06169 -0.211698 -2.06119e-19)
(5.23264 -0.150491 0)
(5.35045 -0.0931456 0)
(5.41803 -0.0394778 0)
(5.44615 0.00902689 -1.92703e-19)
(5.43753 0.0498963 1.89377e-19)
(5.39322 0.0819842 3.72454e-19)
(5.31526 0.10578 -1.83144e-19)
(5.20737 0.122287 1.80017e-19)
(5.07501 0.132052 1.77097e-19)
(4.92544 0.135182 0)
(4.76729 0.131508 0)
(4.61052 0.120806 -1.68434e-19)
(4.46625 0.103302 0)
(4.34512 0.0801173 0)
(4.25624 0.0533397 3.21017e-19)
(4.20757 0.0255417 0)
(4.20283 -0.00105688 1.55567e-19)
(4.23483 -0.0240636 -1.5324e-19)
(4.28926 -0.0389438 0)
(4.35558 -0.0428734 1.48626e-19)
(4.42273 -0.0372554 0)
(4.47523 -0.0256911 0)
(4.50993 -0.00674131 -1.41871e-19)
(4.54806 0.02982 2.79207e-19)
(4.60395 0.0884058 -1.37327e-19)
(4.65769 0.149066 0)
(4.68091 0.178369 0)
(4.6697 0.157563 1.30339e-19)
(4.64443 0.10207 0)
(4.6318 0.0452025 1.25788e-19)
(4.64422 0.0116401 0)
(4.68245 0.00399606 0)
(4.72687 0.00647889 0)
(4.74477 0.011857 1.16863e-19)
(4.7233 0.0213808 0)
(4.67569 0.0378903 -1.12401e-19)
(4.61925 0.0588771 0)
(4.55243 0.073277 0)
(4.46748 0.0759244 2.11319e-19)
(4.36066 0.062158 -2.06867e-19)
(4.25556 0.0482355 0)
(4.14767 0.0309893 0)
(4.08805 0.0395353 0)
(3.98757 0.0355495 5.68421e-19)
(3.99747 0.0819953 0)
(3.7963 0.0754137 -3.61976e-19)
(0.154276 0.469631 -2.89531e-22)
(0.378756 0.500082 -3.81072e-19)
(0.560301 0.165856 0)
(0.695551 -0.394013 3.74897e-19)
(0.91551 -1.22576 0)
(0.959292 -1.67099 0)
(0.904973 -1.50349 9.51443e-23)
(0.77171 -1.15322 -1.814e-19)
(0.605846 -0.676971 -1.8014e-19)
(0.473698 -0.094891 -1.78842e-19)
(0.288553 0.32265 0)
(0.14472 0.506183 0)
(-0.0172923 0.653348 1.74781e-19)
(-0.170916 0.786271 3.46667e-19)
(-0.36267 0.866604 -3.43753e-19)
(-0.594444 0.917492 0)
(-0.875021 0.965891 -3.37894e-19)
(-1.21032 1.02426 1.67587e-19)
(-1.59755 1.08151 0)
(-2.01423 1.1237 -3.28832e-19)
(-2.44208 1.14703 -1.63095e-19)
(-2.85667 1.14614 3.22696e-19)
(-3.24183 1.11679 1.60125e-19)
(-3.58789 1.05568 0)
(-3.88935 0.963207 -3.13854e-19)
(-4.14427 0.842997 -3.11082e-19)
(-4.35182 0.700818 0)
(-4.51193 0.543041 -3.05862e-19)
(-4.62596 0.375086 0)
(-4.69499 0.201103 -3.01102e-19)
(-4.71847 0.0250266 -1.49887e-19)
(-4.69509 -0.147839 0)
(-4.62649 -0.315016 0)
(-4.51628 -0.471592 0)
(-4.36367 -0.61193 0)
(-4.165 -0.72933 0)
(-3.92285 -0.816557 0)
(-3.64492 -0.868711 -2.85367e-19)
(-3.32285 -0.879726 4.25811e-19)
(-2.93466 -0.832908 0)
(-2.49255 -0.713541 0)
(-2.02757 -0.525048 0)
(-1.48153 -0.184769 2.7229e-22)
(-0.836503 0.22436 -2.7665e-19)
(-0.230605 0.386336 -5.50763e-19)
(0.135685 0.345602 5.47076e-19)
(0.45855 0.27769 2.71594e-19)
(0.724981 0.296116 -2.68528e-19)
(1.06388 0.368226 -5.83298e-22)
(1.40054 0.449079 -2.63444e-19)
(1.69581 0.485238 0)
(1.94832 0.440404 -2.5697e-19)
(2.14171 0.301635 -3.52004e-22)
(2.23465 0.0801836 0)
(2.25269 -0.205967 0)
(2.25073 -0.568035 2.45006e-19)
(2.24515 -1.00441 0)
(2.23226 -1.45827 0)
(2.22686 -1.86577 -2.39059e-19)
(2.18719 -2.27194 -4.74681e-19)
(2.02895 -2.53721 2.35581e-19)
(1.85738 -2.37536 0)
(1.7619 -1.82714 -2.31154e-19)
(1.76725 -1.09584 0)
(1.81385 -0.375207 -2.26607e-19)
(1.73917 0.219056 -2.23947e-19)
(1.38527 0.716063 4.43587e-19)
(0.690952 1.21199 2.19677e-19)
(-0.210614 1.66959 0)
(-1.10336 1.97474 -4.30176e-19)
(-1.84671 2.09075 0)
(-2.39649 2.06663 -6.3016e-19)
(-2.78136 1.94165 -4.14722e-19)
(-3.04516 1.74888 -4.09717e-19)
(-3.23743 1.52949 4.04722e-19)
(-3.39408 1.32324 -5.99985e-19)
(-3.53803 1.15106 0)
(-3.68449 1.02247 0)
(-3.84293 0.938008 3.84255e-19)
(-4.0196 0.892899 5.68534e-19)
(-4.21852 0.879933 0)
(-4.44247 0.891231 -1.84027e-19)
(-4.69361 0.919304 0)
(-4.97374 0.957645 5.34617e-19)
(-5.28426 1.00078 1.25195e-22)
(-5.62603 1.04415 -1.71094e-22)
(-5.99897 1.08377 -3.37946e-19)
(-6.40162 1.11586 0)
(-6.83052 1.13654 3.25035e-19)
(-7.27952 1.14179 4.97208e-22)
(-7.73946 1.12815 0)
(-8.19882 1.09306 0)
(-8.64489 1.03507 0)
(-9.06487 0.954054 -2.9378e-19)
(-9.44692 0.851211 0)
(-9.78067 0.728798 0)
(-10.057 0.589754 0)
(-10.2682 0.437163 0)
(-10.4075 0.274028 0)
(-10.471 0.103732 -2.65082e-19)
(-10.4581 -0.070799 0)
(-10.3662 -0.246274 -2.61447e-19)
(-10.1957 -0.416055 -2.59914e-19)
(-9.94989 -0.575488 2.58911e-19)
(-9.63402 -0.719961 0)
(-9.25563 -0.846323 2.58157e-19)
(-8.82328 -0.952804 0)
(-8.34601 -1.03907 2.58382e-19)
(-7.83258 -1.10608 -2.58606e-19)
(-7.29097 -1.15556 -7.75689e-19)
(-6.72827 -1.18958 0)
(-6.15064 -1.21029 -7.75784e-19)
(-5.56332 -1.2199 -2.58032e-19)
(-4.97061 -1.22056 0)
(-4.37591 -1.21431 -5.13777e-19)
(-3.78176 -1.20318 -5.11616e-19)
(-3.18961 -1.18918 7.63576e-19)
(-2.59977 -1.17435 0)
(-2.01196 -1.15989 2.5128e-19)
(-1.4251 -1.14594 2.49284e-19)
(-0.83767 -1.13296 7.408e-19)
(-0.248417 -1.11946 0)
(0.343013 -1.10421 0)
(0.936325 -1.08472 0)
(1.53016 -1.0585 2.356e-19)
(2.12119 -1.02304 0)
(2.7041 -0.975691 0)
(3.27112 -0.914147 -2.26539e-19)
(3.8117 -0.837145 -2.23189e-19)
(4.31245 -0.745335 0)
(4.75805 -0.641941 0)
(5.13348 -0.532577 -4.25777e-19)
(5.42802 -0.423624 0)
(5.63868 -0.320386 4.11967e-19)
(5.77221 -0.224891 4.04987e-19)
(5.84217 -0.137369 0)
(5.8615 -0.059254 0)
(5.84188 0.0110283 -3.85033e-19)
(5.79113 0.0735872 -1.23587e-22)
(5.71348 0.126845 -1.21047e-22)
(5.61148 0.170323 0)
(5.48747 0.203688 -7.19776e-19)
(5.3448 0.2263 0)
(5.18868 0.237306 0)
(5.02635 0.235789 0)
(4.86659 0.220658 3.36793e-19)
(4.7189 0.191128 0)
(4.59287 0.148884 -6.51868e-19)
(4.49786 0.098221 -3.20914e-19)
(4.44079 0.0437352 0)
(4.42355 -0.00903727 -3.11112e-19)
(4.44432 -0.0510346 0)
(4.5006 -0.0719422 0)
(4.58876 -0.0680075 -8.91476e-19)
(4.69308 -0.0465648 5.8529e-19)
(4.77496 -0.0233072 0)
(4.79611 -0.00897505 5.67341e-19)
(4.76714 0.00728193 -2.79152e-19)
(4.75059 0.0440419 0)
(4.79545 0.0969453 0)
(4.8874 0.133677 0)
(4.97696 0.127087 -7.81838e-19)
(5.02418 0.0804095 0)
(5.01935 0.0149566 -2.51437e-19)
(4.99462 -0.0444611 0)
(4.99479 -0.0781229 0)
(5.05111 -0.0725632 0)
(5.15386 -0.0313541 0)
(5.25099 0.0186308 0)
(5.3003 0.056489 0)
(5.30558 0.0794215 -4.40306e-19)
(5.2923 0.0934644 0)
(5.28105 0.106225 -2.11162e-19)
(5.2586 0.10935 6.20108e-19)
(5.21374 0.107244 0)
(5.12267 0.0894777 0)
(5.01982 0.0867001 -3.87156e-19)
(4.88509 0.0715736 -3.7863e-19)
(4.81131 0.104287 3.69995e-19)
(4.68311 0.103373 3.61712e-19)
(0.132294 -0.330935 5.77036e-19)
(0.434852 -0.197195 5.72624e-19)
(0.645972 -0.364128 3.78877e-19)
(0.85366 -0.831251 1.88134e-19)
(0.921107 -1.43379 0)
(0.65364 -1.40199 -3.69583e-19)
(0.357233 -0.859395 1.83789e-19)
(0.0620013 -0.504354 0)
(-0.253971 -0.132301 1.80483e-19)
(-0.431023 0.217602 0)
(-0.634703 0.479661 -3.54907e-19)
(-0.829753 0.72886 0)
(-1.09797 0.970412 -1.74172e-19)
(-1.38617 1.20497 -3.45246e-19)
(-1.73883 1.41308 3.42169e-19)
(-2.13119 1.59439 0)
(-2.55775 1.74394 3.36017e-19)
(-2.99637 1.85548 0)
(-3.43402 1.92179 0)
(-3.85859 1.94005 3.26863e-19)
(-4.26211 1.9115 0)
(-4.6362 1.83956 -1.04566e-21)
(-4.97561 1.72875 0)
(-5.27774 1.58387 0)
(-5.54206 1.41034 1.35998e-21)
(-5.76846 1.21353 3.09632e-19)
(-5.95599 0.998389 3.05533e-19)
(-6.10293 0.769159 3.04552e-19)
(-6.20749 0.529614 0)
(-6.26818 0.283843 5.9825e-19)
(-6.28209 0.0357842 0)
(-6.25022 -0.210296 2.94012e-19)
(-6.17401 -0.450065 0)
(-6.05191 -0.67824 0)
(-5.88426 -0.888793 -2.88195e-19)
(-5.6712 -1.07661 0)
(-5.41359 -1.23742 2.84903e-19)
(-5.11162 -1.36503 7.73648e-22)
(-4.76284 -1.4503 -5.64605e-19)
(-4.36529 -1.48608 5.61354e-19)
(-3.91847 -1.46854 0)
(-3.40687 -1.38683 0)
(-2.79365 -1.22955 2.77178e-19)
(-2.05659 -1.02038 0)
(-1.23984 -0.858454 2.74847e-19)
(-0.446998 -0.838513 -2.73379e-19)
(0.361308 -0.758659 -2.71332e-19)
(1.15494 -0.594591 0)
(1.93731 -0.436627 2.65758e-19)
(2.7069 -0.292011 2.62597e-19)
(3.44371 -0.15016 -5.19337e-19)
(4.11469 -0.0226315 2.55761e-19)
(4.65837 0.066912 2.52326e-19)
(5.01177 0.0945458 0)
(5.18617 0.00123496 0)
(5.18715 -0.229814 -2.43575e-19)
(5.02949 -0.570002 0)
(4.72292 -0.997561 0)
(4.29372 -1.38885 4.76002e-19)
(3.75877 -1.69856 4.73334e-19)
(3.03569 -1.89232 0)
(2.28008 -1.68782 0)
(1.63009 -1.10116 0)
(1.02648 -0.366684 0)
(0.462407 0.408533 4.53893e-19)
(-0.101646 1.14538 -4.49204e-19)
(-0.723669 1.78523 -4.43558e-19)
(-1.37068 2.26746 -8.76833e-19)
(-1.94039 2.54939 0)
(-2.35641 2.62885 7.09809e-22)
(-2.60853 2.5475 0)
(-2.72944 2.3595 4.19371e-19)
(-2.76342 2.11375 9.11069e-22)
(-2.75481 1.85135 4.09851e-19)
(-2.7392 1.60611 -4.05008e-19)
(-2.73909 1.40104 6.03465e-22)
(-2.7678 1.24653 0)
(-2.8332 1.14423 -3.89644e-19)
(-2.93994 1.09029 -3.84767e-19)
(-3.09007 1.07826 -7.5871e-19)
(-3.28471 1.10026 0)
(-3.52548 1.14827 3.68275e-19)
(-3.81386 1.21503 0)
(-4.15068 1.29382 -7.13231e-19)
(-4.53568 1.37823 3.50599e-19)
(-4.96679 1.46185 -3.44376e-19)
(-5.43936 1.53789 3.38015e-19)
(-5.94568 1.59944 6.62148e-19)
(-6.47459 1.63958 -3.24974e-19)
(-7.01162 1.65208 3.18366e-19)
(-7.54072 1.63167 0)
(-8.04653 1.57484 -6.08453e-19)
(-8.51561 1.48074 0)
(-8.937 1.35131 -5.82937e-19)
(-9.30227 1.1907 5.71103e-19)
(-9.60509 1.00422 5.60108e-19)