/*--------------------------------*- C++ -*----------------------------------*\
  =========                 |
  \\      /  F ield         | OpenFOAM: The Open Source CFD Toolbox
   \\    /   O peration     | Website:  https://openfoam.org
    \\  /    A nd           | Version:  9
     \\/     M anipulation  |
\*---------------------------------------------------------------------------*/
FoamFile
{
    format      ascii;
    class       volScalarField;
    location    "0.003";
    object      p;
}
// * * * * * * * * * * * * * * * * * * * * * * * * * * * * * * * * * * * * * //

dimensions      [0 2 -2 0 0 0 0];

internalField   nonuniform List<scalar> 
12225
(
-449.214
-440.479
-435.507
-432.028
-428.93
-426.001
-423.205
-420.528
-417.951
-415.459
-413.051
-410.744
-408.519
-406.402
-404.328
-402.36
-400.349
-398.334
-448.943
-440.319
-435.426
-432.002
-428.924
-426.003
-423.211
-420.532
-417.95
-415.453
-413.045
-410.734
-408.509
-406.367
-404.311
-402.274
-400.274
-397.878
-447.501
-440.212
-435.414
-431.979
-428.912
-425.996
-423.211
-420.535
-417.95
-415.449
-413.035
-410.715
-408.477
-406.334
-404.252
-402.195
-400.093
-397.754
-446.016
-439.519
-435.116
-431.881
-428.882
-425.991
-423.216
-420.541
-417.951
-415.445
-413.027
-410.702
-408.464
-406.305
-404.207
-402.125
-400.008
-397.796
-444.607
-439
-435.114
-431.855
-428.874
-425.995
-423.225
-420.549
-417.954
-415.444
-413.021
-410.69
-408.444
-406.274
-404.167
-402.086
-400.004
-397.922
-442.697
-438.185
-434.431
-431.657
-428.808
-425.986
-423.235
-420.562
-417.962
-415.445
-413.017
-410.678
-408.424
-406.249
-404.139
-402.071
-400.036
-398.066
-439.407
-437.249
-434.634
-431.699
-428.835
-426.019
-423.261
-420.581
-417.973
-415.451
-413.018
-410.673
-408.413
-406.234
-404.125
-402.076
-400.09
-398.209
-438.603
-436.378
-433.894
-431.342
-428.714
-426.008
-423.282
-420.602
-417.989
-415.461
-413.022
-410.67
-408.407
-406.228
-404.127
-402.099
-400.157
-398.338
-434.226
-435.29
-433.951
-431.572
-428.909
-426.079
-423.33
-420.637
-418.012
-415.474
-413.027
-410.669
-408.4
-406.221
-404.125
-402.114
-400.201
-398.423
-433.255
-434.628
-433.549
-431.452
-428.83
-426.122
-423.381
-420.679
-418.046
-415.503
-413.05
-410.684
-408.409
-406.226
-404.134
-402.135
-400.245
-398.489
-430.755
-434.324
-433.651
-431.588
-429.014
-426.236
-423.465
-420.736
-418.085
-415.528
-413.063
-410.689
-408.41
-406.229
-404.141
-402.149
-400.267
-398.514
-430.663
-434.671
-433.86
-431.683
-429.066
-426.339
-423.554
-420.809
-418.137
-415.564
-413.087
-410.703
-408.415
-406.227
-404.137
-402.146
-400.265
-398.508
-433.12
-435.76
-434.428
-432.035
-429.283
-426.496
-423.699
-420.909
-418.211
-415.611
-413.111
-410.712
-408.416
-406.223
-404.129
-402.131
-400.241
-398.467
-443.431
-438.009
-435.246
-432.437
-429.597
-426.718
-423.835
-421
-418.279
-415.67
-413.161
-410.749
-408.442
-406.239
-404.133
-402.122
-400.212
-398.412
-446.389
-440.039
-436.505
-433.226
-430.065
-427.016
-424.042
-421.163
-418.408
-415.766
-413.217
-410.771
-408.441
-406.224
-404.107
-402.08
-400.147
-398.315
-439.271
-440.776
-437.838
-434.146
-430.655
-427.417
-424.301
-421.309
-418.481
-415.798
-413.229
-410.769
-408.428
-406.2
-404.068
-402.02
-400.058
-398.188
-452.141
-445.332
-439.897
-435.309
-431.362
-427.856
-424.611
-421.548
-418.663
-415.932
-413.317
-410.807
-408.413
-406.135
-403.958
-401.87
-399.869
-397.961
-465.204
-449.749
-441.66
-436.247
-431.917
-428.193
-424.793
-421.626
-418.673
-415.889
-413.237
-410.706
-408.297
-406.005
-403.813
-401.706
-399.682
-397.741
-444.194
-442.943
-439.474
-435.306
-431.446
-427.976
-424.717
-421.639
-418.71
-415.917
-413.254
-410.705
-408.264
-405.93
-403.693
-401.542
-399.476
-397.5
-445.7
-441.345
-437.888
-434.36
-431.068
-427.763
-424.557
-421.508
-418.592
-415.799
-413.129
-410.577
-408.138
-405.807
-403.572
-401.419
-399.349
-397.366
-439.99
-439.637
-436.745
-433.765
-430.649
-427.471
-424.354
-421.364
-418.49
-415.728
-413.075
-410.527
-408.084
-405.744
-403.494
-401.326
-399.24
-397.244
-440.23
-439.812
-436.974
-433.671
-430.487
-427.342
-424.264
-421.288
-418.421
-415.662
-413.007
-410.457
-408.014
-405.674
-403.425
-401.258
-399.176
-397.182
-447.676
-440.364
-436.677
-433.441
-430.332
-427.22
-424.132
-421.165
-418.324
-415.581
-412.933
-410.389
-407.955
-405.622
-403.379
-401.218
-399.139
-397.147
-441.143
-440.801
-437.139
-433.52
-430.279
-427.143
-424.083
-421.141
-418.309
-415.563
-412.902
-410.348
-407.908
-405.574
-403.329
-401.164
-399.084
-397.093
-443.855
-439.691
-436.839
-433.462
-430.246
-427.117
-424.034
-421.066
-418.23
-415.493
-412.843
-410.295
-407.864
-405.538
-403.3
-401.143
-399.071
-397.087
-446.367
-441.075
-436.964
-433.486
-430.224
-427.077
-424.014
-421.061
-418.226
-415.485
-412.828
-410.271
-407.83
-405.501
-403.264
-401.11
-399.043
-397.065
-445.705
-440.075
-436.808
-433.463
-430.211
-427.063
-423.99
-421.024
-418.185
-415.45
-412.798
-410.244
-407.805
-405.478
-403.244
-401.096
-399.036
-397.065
-444.105
-440.589
-436.853
-433.468
-430.191
-427.043
-423.986
-421.026
-418.184
-415.444
-412.787
-410.224
-407.777
-405.446
-403.214
-401.073
-399.022
-397.06
-443.424
-440.255
-436.827
-433.457
-430.177
-427.031
-423.98
-421.018
-418.17
-415.427
-412.769
-410.203
-407.752
-405.417
-403.186
-401.053
-399.017
-397.068
-444.287
-440.369
-436.84
-433.449
-430.161
-427.018
-423.976
-421.021
-418.172
-415.425
-412.761
-410.189
-407.731
-405.393
-403.162
-401.034
-399.005
-397.062
-355.665
-355.622
-355.534
-355.399
-355.215
-354.982
-354.7
-354.368
-353.984
-353.551
-353.066
-352.53
-351.945
-351.311
-350.631
-349.906
-349.136
-348.327
-347.484
-346.608
-345.704
-344.775
-343.824
-342.857
-341.877
-340.886
-339.89
-338.89
-337.891
-336.893
-335.9
-334.913
-333.934
-332.964
-332.003
-331.051
-330.109
-329.177
-328.255
-327.34
-326.435
-325.536
-324.643
-323.756
-322.874
-321.994
-321.117
-320.241
-319.366
-318.49
-317.612
-316.732
-315.848
-314.961
-314.068
-313.17
-312.266
-311.355
-310.437
-309.511
-308.577
-307.634
-306.682
-305.721
-304.75
-303.77
-302.779
-301.779
-300.767
-299.745
-298.713
-297.669
-296.614
-295.549
-294.472
-293.383
-292.284
-291.173
-290.051
-288.917
-287.772
-286.615
-285.447
-284.267
-283.076
-281.873
-280.658
-279.432
-278.194
-276.945
-275.684
-274.411
-273.126
-271.83
-270.522
-269.202
-267.871
-266.528
-265.173
-263.806
-262.427
-261.036
-259.633
-258.218
-256.791
-255.353
-253.902
-252.438
-250.963
-249.475
-247.975
-246.462
-244.937
-243.4
-241.85
-240.287
-238.712
-237.124
-235.523
-233.909
-232.283
-230.643
-228.99
-227.324
-225.645
-223.953
-222.247
-220.527
-218.794
-217.047
-215.286
-213.512
-211.723
-209.921
-208.104
-206.273
-204.428
-202.568
-200.694
-198.805
-196.902
-194.984
-193.05
-191.102
-189.139
-187.16
-185.166
-183.156
-181.131
-179.09
-177.033
-174.96
-172.87
-170.765
-168.643
-166.504
-164.349
-162.177
-159.987
-157.781
-155.557
-153.316
-151.057
-148.779
-146.484
-144.169
-141.836
-139.484
-137.111
-134.717
-132.302
-129.864
-127.402
-124.911
-122.392
-119.83
-117.229
-114.539
-111.771
-108.768
-355.874
-355.831
-355.742
-355.605
-355.42
-355.184
-354.899
-354.562
-354.175
-353.736
-353.245
-352.703
-352.111
-351.47
-350.783
-350.05
-349.269
-348.452
-347.599
-346.715
-345.802
-344.865
-343.906
-342.932
-341.944
-340.947
-339.945
-338.94
-337.935
-336.934
-335.937
-334.947
-333.966
-332.993
-332.03
-331.077
-330.134
-329.201
-328.277
-327.362
-326.456
-325.557
-324.664
-323.776
-322.893
-322.013
-321.136
-320.26
-319.384
-318.508
-317.629
-316.749
-315.865
-314.977
-314.084
-313.185
-312.28
-311.369
-310.45
-309.524
-308.589
-307.646
-306.694
-305.732
-304.761
-303.78
-302.789
-301.788
-300.776
-299.754
-298.721
-297.677
-296.622
-295.556
-294.478
-293.39
-292.29
-291.179
-290.056
-288.922
-287.777
-286.62
-285.451
-284.271
-283.08
-281.876
-280.662
-279.435
-278.197
-276.948
-275.686
-274.413
-273.129
-271.832
-270.524
-269.204
-267.873
-266.529
-265.174
-263.807
-262.428
-261.037
-259.635
-258.22
-256.793
-255.354
-253.903
-252.439
-250.964
-249.476
-247.976
-246.463
-244.938
-243.401
-241.851
-240.288
-238.712
-237.124
-235.524
-233.91
-232.283
-230.643
-228.991
-227.325
-225.646
-223.953
-222.247
-220.527
-218.794
-217.047
-215.287
-213.512
-211.723
-209.921
-208.104
-206.273
-204.428
-202.568
-200.694
-198.806
-196.902
-194.984
-193.051
-191.102
-189.139
-187.16
-185.166
-183.156
-181.131
-179.09
-177.033
-174.96
-172.871
-170.765
-168.643
-166.505
-164.349
-162.177
-159.988
-157.781
-155.558
-153.316
-151.057
-148.78
-146.484
-144.17
-141.837
-139.484
-137.112
-134.719
-132.304
-129.867
-127.405
-124.916
-122.397
-119.842
-117.242
-114.588
-111.871
-109.142
-356.297
-356.253
-356.162
-356.022
-355.833
-355.592
-355.3
-354.956
-354.56
-354.111
-353.609
-353.054
-352.448
-351.792
-351.088
-350.338
-349.546
-348.704
-347.834
-346.932
-346.002
-345.047
-344.073
-343.083
-342.081
-341.071
-340.056
-339.041
-338.027
-337.017
-336.013
-335.017
-334.03
-333.052
-332.086
-331.13
-330.184
-329.249
-328.323
-327.407
-326.499
-325.599
-324.705
-323.817
-322.933
-322.052
-321.174
-320.297
-319.42
-318.543
-317.664
-316.782
-315.897
-315.008
-314.114
-313.215
-312.309
-311.396
-310.477
-309.549
-308.614
-307.669
-306.716
-305.754
-304.782
-303.8
-302.808
-301.806
-300.793
-299.77
-298.736
-297.691
-296.636
-295.569
-294.491
-293.402
-292.301
-291.189
-290.066
-288.932
-287.786
-286.628
-285.459
-284.279
-283.087
-281.883
-280.668
-279.441
-278.203
-276.953
-275.691
-274.418
-273.133
-271.836
-270.528
-269.208
-267.876
-266.532
-265.177
-263.81
-262.431
-261.039
-259.636
-258.222
-256.794
-255.355
-253.904
-252.441
-250.965
-249.477
-247.977
-246.464
-244.939
-243.401
-241.851
-240.288
-238.713
-237.125
-235.524
-233.91
-232.284
-230.644
-228.991
-227.325
-225.646
-223.953
-222.247
-220.527
-218.794
-217.047
-215.287
-213.512
-211.724
-209.921
-208.104
-206.273
-204.428
-202.569
-200.694
-198.806
-196.902
-194.984
-193.051
-191.102
-189.139
-187.16
-185.166
-183.156
-181.131
-179.09
-177.033
-174.96
-172.871
-170.765
-168.643
-166.505
-164.349
-162.177
-159.988
-157.782
-155.558
-153.316
-151.057
-148.78
-146.485
-144.171
-141.838
-139.485
-137.113
-134.72
-132.306
-129.869
-127.408
-124.921
-122.405
-119.855
-117.265
-114.639
-111.964
-109.301
-356.941
-356.895
-356.802
-356.658
-356.462
-356.214
-355.913
-355.557
-355.148
-354.683
-354.165
-353.592
-352.965
-352.286
-351.557
-350.781
-349.96
-349.098
-348.198
-347.267
-346.309
-345.328
-344.328
-343.314
-342.289
-341.259
-340.226
-339.194
-338.165
-337.143
-336.128
-335.122
-334.127
-333.143
-332.17
-331.209
-330.26
-329.321
-328.393
-327.474
-326.564
-325.662
-324.766
-323.877
-322.991
-322.109
-321.23
-320.351
-319.473
-318.595
-317.714
-316.831
-315.945
-315.054
-314.159
-313.258
-312.351
-311.437
-310.515
-309.586
-308.649
-307.704
-306.749
-305.785
-304.812
-303.828
-302.835
-301.832
-300.818
-299.794
-298.758
-297.712
-296.656
-295.588
-294.509
-293.419
-292.317
-291.204
-290.08
-288.945
-287.798
-286.64
-285.47
-284.289
-283.097
-281.892
-280.677
-279.449
-278.21
-276.96
-275.698
-274.424
-273.139
-271.842
-270.533
-269.213
-267.881
-266.537
-265.181
-263.813
-262.434
-261.043
-259.64
-258.224
-256.797
-255.358
-253.906
-252.443
-250.967
-249.479
-247.978
-246.465
-244.94
-243.402
-241.852
-240.289
-238.714
-237.126
-235.525
-233.911
-232.284
-230.644
-228.992
-227.326
-225.646
-223.954
-222.247
-220.528
-218.795
-217.048
-215.287
-213.512
-211.724
-209.921
-208.104
-206.274
-204.428
-202.569
-200.694
-198.806
-196.902
-194.984
-193.051
-191.103
-189.139
-187.16
-185.166
-183.157
-181.131
-179.09
-177.033
-174.96
-172.871
-170.765
-168.643
-166.505
-164.35
-162.177
-159.988
-157.782
-155.558
-153.317
-151.058
-148.781
-146.485
-144.172
-141.839
-139.487
-137.115
-134.723
-132.309
-129.873
-127.414
-124.929
-122.416
-119.874
-117.297
-114.692
-112.056
-109.451
-357.817
-357.769
-357.673
-357.523
-357.32
-357.063
-356.75
-356.381
-355.955
-355.471
-354.931
-354.332
-353.677
-352.967
-352.204
-351.392
-350.533
-349.633
-348.696
-347.727
-346.73
-345.711
-344.676
-343.629
-342.574
-341.516
-340.457
-339.403
-338.354
-337.314
-336.283
-335.265
-334.258
-333.265
-332.285
-331.317
-330.362
-329.419
-328.487
-327.565
-326.652
-325.747
-324.849
-323.957
-323.07
-322.186
-321.305
-320.425
-319.545
-318.664
-317.781
-316.896
-316.008
-315.115
-314.218
-313.315
-312.406
-311.49
-310.566
-309.635
-308.696
-307.749
-306.792
-305.826
-304.851
-303.866
-302.871
-301.866
-300.85
-299.824
-298.788
-297.74
-296.682
-295.613
-294.532
-293.441
-292.338
-291.224
-290.099
-288.963
-287.815
-286.656
-285.485
-284.303
-283.11
-281.905
-280.688
-279.46
-278.221
-276.969
-275.707
-274.432
-273.147
-271.849
-270.54
-269.219
-267.886
-266.542
-265.186
-263.818
-262.438
-261.047
-259.643
-258.228
-256.8
-255.361
-253.909
-252.445
-250.969
-249.481
-247.98
-246.467
-244.942
-243.404
-241.854
-240.291
-238.715
-237.127
-235.526
-233.912
-232.285
-230.645
-228.992
-227.326
-225.647
-223.954
-222.248
-220.528
-218.795
-217.048
-215.287
-213.512
-211.724
-209.921
-208.105
-206.274
-204.428
-202.569
-200.695
-198.806
-196.902
-194.984
-193.051
-191.103
-189.139
-187.161
-185.166
-183.157
-181.131
-179.09
-177.033
-174.96
-172.871
-170.766
-168.644
-166.505
-164.35
-162.178
-159.989
-157.782
-155.559
-153.317
-151.058
-148.781
-146.486
-144.173
-141.84
-139.488
-137.117
-134.726
-132.313
-129.878
-127.421
-124.939
-122.431
-119.896
-117.331
-114.747
-112.144
-109.574
-358.942
-358.893
-358.793
-358.638
-358.427
-358.16
-357.834
-357.449
-357.003
-356.496
-355.929
-355.3
-354.609
-353.859
-353.052
-352.193
-351.285
-350.334
-349.345
-348.324
-347.277
-346.209
-345.127
-344.036
-342.941
-341.846
-340.754
-339.67
-338.595
-337.532
-336.483
-335.447
-334.427
-333.421
-332.431
-331.455
-330.493
-329.544
-328.606
-327.68
-326.764
-325.855
-324.955
-324.06
-323.17
-322.283
-321.399
-320.516
-319.634
-318.751
-317.866
-316.978
-316.087
-315.192
-314.292
-313.386
-312.474
-311.556
-310.63
-309.696
-308.755
-307.804
-306.845
-305.877
-304.9
-303.912
-302.915
-301.908
-300.89
-299.862
-298.824
-297.774
-296.714
-295.643
-294.561
-293.468
-292.364
-291.249
-290.122
-288.985
-287.835
-286.675
-285.503
-284.32
-283.126
-281.92
-280.702
-279.473
-278.233
-276.981
-275.718
-274.443
-273.156
-271.858
-270.548
-269.227
-267.894
-266.549
-265.192
-263.824
-262.444
-261.052
-259.648
-258.232
-256.804
-255.364
-253.912
-252.448
-250.972
-249.483
-247.983
-246.469
-244.944
-243.406
-241.855
-240.292
-238.716
-237.128
-235.527
-233.913
-232.286
-230.646
-228.993
-227.327
-225.647
-223.955
-222.248
-220.529
-218.795
-217.048
-215.287
-213.513
-211.724
-209.922
-208.105
-206.274
-204.429
-202.569
-200.695
-198.806
-196.902
-194.984
-193.051
-191.103
-189.139
-187.161
-185.167
-183.157
-181.132
-179.09
-177.033
-174.96
-172.871
-170.766
-168.644
-166.505
-164.35
-162.178
-159.989
-157.783
-155.559
-153.318
-151.059
-148.782
-146.487
-144.174
-141.842
-139.491
-137.12
-134.729
-132.317
-129.885
-127.429
-124.951
-122.447
-119.92
-117.368
-114.801
-112.224
-109.672
-360.343
-360.292
-360.188
-360.028
-359.811
-359.534
-359.196
-358.795
-358.328
-357.795
-357.193
-356.531
-355.798
-354.999
-354.137
-353.218
-352.246
-351.228
-350.171
-349.082
-347.969
-346.837
-345.694
-344.547
-343.399
-342.257
-341.123
-340.002
-338.894
-337.803
-336.729
-335.673
-334.635
-333.615
-332.612
-331.625
-330.654
-329.698
-328.754
-327.822
-326.901
-325.988
-325.083
-324.185
-323.291
-322.401
-321.514
-320.628
-319.742
-318.856
-317.967
-317.077
-316.182
-315.284
-314.38
-313.471
-312.556
-311.634
-310.705
-309.769
-308.824
-307.871
-306.909
-305.938
-304.957
-303.967
-302.967
-301.958
-300.938
-299.907
-298.866
-297.815
-296.753
-295.679
-294.596
-293.501
-292.395
-291.278
-290.15
-289.01
-287.86
-286.698
-285.525
-284.34
-283.145
-281.937
-280.719
-279.489
-278.248
-276.995
-275.73
-274.455
-273.167
-271.868
-270.558
-269.236
-267.902
-266.557
-265.2
-263.831
-262.45
-261.058
-259.653
-258.237
-256.809
-255.369
-253.916
-252.452
-250.975
-249.486
-247.985
-246.472
-244.946
-243.408
-241.857
-240.294
-238.718
-237.13
-235.528
-233.914
-232.287
-230.647
-228.994
-227.328
-225.648
-223.955
-222.249
-220.529
-218.796
-217.049
-215.288
-213.513
-211.724
-209.922
-208.105
-206.274
-204.429
-202.569
-200.695
-198.806
-196.903
-194.984
-193.051
-191.103
-189.14
-187.161
-185.167
-183.157
-181.132
-179.091
-177.034
-174.961
-172.871
-170.766
-168.644
-166.506
-164.35
-162.178
-159.989
-157.783
-155.56
-153.319
-151.06
-148.783
-146.489
-144.176
-141.844
-139.493
-137.123
-134.733
-132.323
-129.891
-127.438
-124.963
-122.465
-119.946
-117.405
-114.852
-112.294
-109.755
-362.053
-362
-361.894
-361.732
-361.511
-361.229
-360.883
-360.469
-359.984
-359.427
-358.795
-358.09
-357.306
-356.446
-355.515
-354.519
-353.464
-352.359
-351.213
-350.035
-348.834
-347.619
-346.398
-345.177
-343.964
-342.762
-341.575
-340.406
-339.258
-338.132
-337.028
-335.946
-334.887
-333.848
-332.83
-331.831
-330.849
-329.883
-328.931
-327.992
-327.065
-326.147
-325.237
-324.334
-323.436
-322.541
-321.65
-320.76
-319.87
-318.979
-318.087
-317.192
-316.294
-315.391
-314.484
-313.571
-312.652
-311.726
-310.793
-309.853
-308.905
-307.948
-306.982
-306.008
-305.024
-304.031
-303.028
-302.015
-300.992
-299.959
-298.915
-297.861
-296.797
-295.721
-294.635
-293.538
-292.43
-291.311
-290.181
-289.04
-287.888
-286.724
-285.549
-284.364
-283.166
-281.958
-280.738
-279.507
-278.265
-277.011
-275.745
-274.468
-273.18
-271.88
-270.569
-269.246
-267.912
-266.566
-265.208
-263.839
-262.457
-261.064
-259.66
-258.243
-256.814
-255.373
-253.921
-252.456
-250.979
-249.49
-247.988
-246.475
-244.949
-243.41
-241.859
-240.296
-238.72
-237.131
-235.53
-233.916
-232.288
-230.648
-228.995
-227.329
-225.649
-223.956
-222.249
-220.53
-218.796
-217.049
-215.288
-213.513
-211.725
-209.922
-208.105
-206.274
-204.429
-202.569
-200.695
-198.806
-196.903
-194.985
-193.051
-191.103
-189.14
-187.161
-185.167
-183.157
-181.132
-179.091
-177.034
-174.961
-172.872
-170.766
-168.644
-166.506
-164.351
-162.179
-159.99
-157.784
-155.56
-153.319
-151.061
-148.784
-146.49
-144.177
-141.846
-139.496
-137.126
-134.737
-132.328
-129.899
-127.449
-124.977
-122.484
-119.972
-117.441
-114.899
-112.355
-109.825
-364.119
-364.066
-363.962
-363.804
-363.587
-363.309
-362.964
-362.547
-362.052
-361.476
-360.815
-360.068
-359.226
-358.295
-357.277
-356.182
-355.019
-353.798
-352.532
-351.235
-349.918
-348.593
-347.269
-345.953
-344.654
-343.376
-342.122
-340.895
-339.696
-338.527
-337.386
-336.273
-335.187
-334.127
-333.09
-332.075
-331.08
-330.102
-329.141
-328.193
-327.258
-326.333
-325.417
-324.508
-323.604
-322.704
-321.807
-320.912
-320.017
-319.121
-318.224
-317.324
-316.421
-315.514
-314.602
-313.684
-312.761
-311.831
-310.893
-309.949
-308.996
-308.035
-307.066
-306.087
-305.1
-304.103
-303.097
-302.08
-301.054
-300.018
-298.971
-297.914
-296.847
-295.768
-294.68
-293.58
-292.47
-291.349
-290.216
-289.073
-287.919
-286.754
-285.577
-284.39
-283.191
-281.981
-280.76
-279.527
-278.284
-277.028
-275.762
-274.484
-273.195
-271.894
-270.582
-269.258
-267.923
-266.576
-265.218
-263.847
-262.466
-261.072
-259.667
-258.249
-256.82
-255.379
-253.926
-252.461
-250.983
-249.494
-247.992
-246.478
-244.952
-243.413
-241.862
-240.298
-238.722
-237.133
-235.532
-233.917
-232.29
-230.649
-228.996
-227.33
-225.65
-223.957
-222.25
-220.53
-218.797
-217.049
-215.288
-213.514
-211.725
-209.922
-208.105
-206.274
-204.429
-202.569
-200.695
-198.806
-196.903
-194.985
-193.052
-191.103
-189.14
-187.161
-185.167
-183.157
-181.132
-179.091
-177.034
-174.961
-172.872
-170.766
-168.645
-166.506
-164.351
-162.179
-159.99
-157.784
-155.561
-153.32
-151.062
-148.786
-146.491
-144.179
-141.848
-139.499
-137.13
-134.742
-132.335
-129.907
-127.459
-124.991
-122.503
-119.997
-117.475
-114.943
-112.409
-109.885
-366.604
-366.553
-366.459
-366.316
-366.121
-365.866
-365.544
-365.145
-364.661
-364.08
-363.394
-362.594
-361.71
-360.699
-359.575
-358.349
-357.037
-355.656
-354.225
-352.763
-351.288
-349.813
-348.351
-346.91
-345.5
-344.123
-342.783
-341.482
-340.221
-338.997
-337.811
-336.66
-335.543
-334.455
-333.396
-332.362
-331.35
-330.359
-329.385
-328.427
-327.483
-326.549
-325.625
-324.708
-323.797
-322.891
-321.987
-321.086
-320.185
-319.283
-318.38
-317.474
-316.565
-315.653
-314.735
-313.812
-312.883
-311.948
-311.005
-310.056
-309.098
-308.133
-307.159
-306.176
-305.184
-304.183
-303.173
-302.153
-301.123
-300.083
-299.033
-297.973
-296.902
-295.821
-294.729
-293.627
-292.514
-291.39
-290.256
-289.11
-287.954
-286.786
-285.608
-284.419
-283.218
-282.007
-280.784
-279.55
-278.305
-277.048
-275.78
-274.501
-273.211
-271.909
-270.596
-269.271
-267.935
-266.587
-265.228
-263.857
-262.475
-261.08
-259.674
-258.256
-256.827
-255.385
-253.931
-252.466
-250.988
-249.498
-247.996
-246.482
-244.955
-243.416
-241.865
-240.301
-238.724
-237.135
-235.533
-233.919
-232.291
-230.651
-228.997
-227.331
-225.651
-223.957
-222.251
-220.531
-218.797
-217.05
-215.289
-213.514
-211.725
-209.922
-208.106
-206.275
-204.429
-202.57
-200.695
-198.807
-196.903
-194.985
-193.052
-191.103
-189.14
-187.161
-185.167
-183.158
-181.132
-179.091
-177.034
-174.961
-172.872
-170.767
-168.645
-166.506
-164.351
-162.18
-159.991
-157.785
-155.562
-153.321
-151.063
-148.787
-146.493
-144.181
-141.851
-139.502
-137.134
-134.747
-132.341
-129.915
-127.47
-125.006
-122.522
-120.022
-117.507
-114.983
-112.457
-109.937
-369.592
-369.55
-369.481
-369.377
-369.234
-369.04
-368.784
-368.45
-368.022
-367.482
-366.815
-366.01
-365.058
-363.943
-362.673
-361.261
-359.734
-358.12
-356.451
-354.754
-353.052
-351.367
-349.712
-348.1
-346.542
-345.034
-343.583
-342.188
-340.846
-339.556
-338.314
-337.117
-335.96
-334.84
-333.753
-332.696
-331.665
-330.656
-329.668
-328.697
-327.74
-326.796
-325.862
-324.936
-324.017
-323.102
-322.191
-321.282
-320.373
-319.464
-318.554
-317.642
-316.726
-315.807
-314.883
-313.954
-313.019
-312.077
-311.129
-310.174
-309.211
-308.24
-307.261
-306.274
-305.277
-304.272
-303.257
-302.232
-301.198
-300.155
-299.101
-298.037
-296.963
-295.878
-294.783
-293.678
-292.562
-291.436
-290.299
-289.151
-287.992
-286.822
-285.642
-284.45
-283.248
-282.035
-280.81
-279.574
-278.328
-277.07
-275.801
-274.52
-273.228
-271.926
-270.611
-269.285
-267.948
-266.6
-265.24
-263.868
-262.485
-261.089
-259.683
-258.264
-256.834
-255.392
-253.937
-252.471
-250.993
-249.503
-248
-246.486
-244.959
-243.419
-241.868
-240.304
-238.727
-237.137
-235.535
-233.921
-232.293
-230.652
-228.999
-227.332
-225.652
-223.958
-222.252
-220.531
-218.798
-217.05
-215.289
-213.514
-211.726
-209.923
-208.106
-206.275
-204.429
-202.57
-200.696
-198.807
-196.903
-194.985
-193.052
-191.104
-189.14
-187.162
-185.167
-183.158
-181.133
-179.091
-177.034
-174.961
-172.872
-170.767
-168.645
-166.507
-164.352
-162.18
-159.991
-157.785
-155.562
-153.322
-151.064
-148.788
-146.495
-144.183
-141.853
-139.505
-137.138
-134.752
-132.348
-129.924
-127.481
-125.02
-122.541
-120.046
-117.537
-115.019
-112.498
-109.981
-373.161
-373.14
-373.123
-373.102
-373.071
-373.014
-372.913
-372.741
-372.47
-372.066
-371.492
-370.72
-369.731
-368.502
-367.035
-365.352
-363.5
-361.529
-359.488
-357.425
-355.378
-353.378
-351.446
-349.593
-347.826
-346.146
-344.55
-343.033
-341.591
-340.217
-338.906
-337.651
-336.447
-335.287
-334.167
-333.082
-332.027
-330.998
-329.992
-329.004
-328.033
-327.076
-326.13
-325.193
-324.263
-323.339
-322.418
-321.5
-320.582
-319.665
-318.747
-317.826
-316.903
-315.976
-315.045
-314.109
-313.167
-312.219
-311.265
-310.303
-309.334
-308.358
-307.373
-306.38
-305.378
-304.368
-303.348
-302.319
-301.28
-300.232
-299.174
-298.106
-297.029
-295.94
-294.842
-293.734
-292.615
-291.485
-290.345
-289.195
-288.033
-286.861
-285.678
-284.485
-283.28
-282.065
-280.838
-279.601
-278.352
-277.093
-275.822
-274.54
-273.248
-271.943
-270.628
-269.301
-267.963
-266.613
-265.252
-263.879
-262.495
-261.099
-259.692
-258.273
-256.842
-255.399
-253.944
-252.477
-250.999
-249.508
-248.005
-246.49
-244.963
-243.423
-241.871
-240.306
-238.729
-237.14
-235.538
-233.923
-232.295
-230.654
-229
-227.333
-225.653
-223.959
-222.252
-220.532
-218.798
-217.051
-215.29
-213.515
-211.726
-209.923
-208.106
-206.275
-204.43
-202.57
-200.696
-198.807
-196.904
-194.985
-193.052
-191.104
-189.14
-187.162
-185.168
-183.158
-181.133
-179.092
-177.035
-174.962
-172.873
-170.767
-168.645
-166.507
-164.352
-162.18
-159.992
-157.786
-155.563
-153.323
-151.065
-148.79
-146.496
-144.185
-141.856
-139.508
-137.142
-134.758
-132.355
-129.933
-127.492
-125.034
-122.559
-120.068
-117.564
-115.052
-112.535
-110.019
-377.395
-377.419
-377.505
-377.64
-377.818
-378.024
-378.241
-378.43
-378.536
-378.487
-378.197
-377.588
-376.581
-375.317
-373.586
-371.464
-369.044
-366.434
-363.745
-361.069
-358.474
-355.998
-353.66
-351.468
-349.422
-347.509
-345.72
-344.045
-342.474
-340.995
-339.598
-338.273
-337.01
-335.803
-334.643
-333.524
-332.44
-331.386
-330.358
-329.352
-328.363
-327.391
-326.43
-325.48
-324.537
-323.601
-322.669
-321.74
-320.813
-319.886
-318.958
-318.029
-317.097
-316.161
-315.222
-314.278
-313.328
-312.373
-311.411
-310.443
-309.467
-308.484
-307.493
-306.494
-305.487
-304.471
-303.446
-302.412
-301.368
-300.316
-299.253
-298.181
-297.099
-296.007
-294.905
-293.793
-292.671
-291.538
-290.395
-289.241
-288.077
-286.903
-285.717
-284.521
-283.315
-282.097
-280.869
-279.629
-278.379
-277.118
-275.846
-274.562
-273.268
-271.962
-270.645
-269.317
-267.978
-266.627
-265.265
-263.892
-262.507
-261.11
-259.702
-258.282
-256.85
-255.406
-253.951
-252.484
-251.005
-249.513
-248.01
-246.494
-244.967
-243.427
-241.874
-240.31
-238.732
-237.143
-235.54
-233.925
-232.297
-230.656
-229.001
-227.334
-225.654
-223.96
-222.253
-220.533
-218.799
-217.051
-215.29
-213.515
-211.726
-209.923
-208.106
-206.275
-204.43
-202.57
-200.696
-198.807
-196.904
-194.986
-193.052
-191.104
-189.141
-187.162
-185.168
-183.158
-181.133
-179.092
-177.035
-174.962
-172.873
-170.768
-168.646
-166.508
-164.353
-162.181
-159.992
-157.787
-155.564
-153.324
-151.066
-148.791
-146.498
-144.187
-141.859
-139.512
-137.147
-134.763
-132.361
-129.941
-127.503
-125.048
-122.576
-120.089
-117.59
-115.081
-112.567
-110.053
-382.251
-382.35
-382.616
-383.046
-383.64
-384.378
-385.242
-386.196
-387.163
-388.007
-388.545
-388.572
-387.915
-386.435
-384.148
-381.137
-377.608
-373.807
-369.96
-366.241
-362.751
-359.526
-356.565
-353.862
-351.431
-349.187
-347.135
-345.252
-343.515
-341.903
-340.4
-338.988
-337.656
-336.391
-335.183
-334.024
-332.906
-331.823
-330.769
-329.74
-328.731
-327.74
-326.762
-325.796
-324.839
-323.889
-322.944
-322.003
-321.064
-320.126
-319.187
-318.247
-317.306
-316.361
-315.412
-314.459
-313.501
-312.538
-311.568
-310.592
-309.61
-308.62
-307.622
-306.617
-305.603
-304.581
-303.55
-302.511
-301.462
-300.404
-299.337
-298.261
-297.174
-296.078
-294.972
-293.856
-292.73
-291.594
-290.448
-289.291
-288.124
-286.947
-285.759
-284.56
-283.351
-282.131
-280.901
-279.66
-278.407
-277.144
-275.87
-274.585
-273.289
-271.982
-270.664
-269.335
-267.994
-266.643
-265.279
-263.905
-262.519
-261.121
-259.712
-258.291
-256.859
-255.414
-253.958
-252.491
-251.011
-249.519
-248.015
-246.499
-244.971
-243.431
-241.878
-240.313
-238.735
-237.145
-235.542
-233.927
-232.299
-230.657
-229.003
-227.336
-225.655
-223.961
-222.254
-220.534
-218.8
-217.052
-215.291
-213.516
-211.727
-209.924
-208.107
-206.276
-204.43
-202.57
-200.696
-198.808
-196.904
-194.986
-193.053
-191.104
-189.141
-187.162
-185.168
-183.158
-181.133
-179.092
-177.035
-174.962
-172.873
-170.768
-168.646
-166.508
-164.353
-162.181
-159.993
-157.787
-155.565
-153.325
-151.067
-148.793
-146.5
-144.19
-141.861
-139.515
-137.151
-134.768
-132.368
-129.949
-127.513
-125.061
-122.592
-120.108
-117.612
-115.107
-112.596
-110.081
-387.544
-387.763
-388.304
-389.174
-390.414
-392.06
-394.163
-396.757
-399.751
-402.84
-405.512
-407.158
-407.294
-405.658
-402.444
-397.855
-392.301
-386.247
-380.142
-374.362
-369.128
-364.508
-360.477
-356.976
-353.92
-351.219
-348.816
-346.663
-344.718
-342.944
-341.312
-339.799
-338.385
-337.053
-335.789
-334.583
-333.426
-332.308
-331.225
-330.169
-329.137
-328.124
-327.126
-326.142
-325.168
-324.202
-323.243
-322.287
-321.335
-320.384
-319.434
-318.483
-317.53
-316.574
-315.616
-314.653
-313.686
-312.714
-311.736
-310.752
-309.761
-308.763
-307.759
-306.746
-305.726
-304.698
-303.661
-302.615
-301.561
-300.498
-299.426
-298.345
-297.254
-296.153
-295.043
-293.923
-292.793
-291.654
-290.504
-289.344
-288.174
-286.994
-285.803
-284.602
-283.39
-282.168
-280.935
-279.691
-278.437
-277.172
-275.896
-274.61
-273.312
-272.004
-270.684
-269.353
-268.012
-266.658
-265.294
-263.918
-262.531
-261.133
-259.723
-258.301
-256.868
-255.423
-253.966
-252.498
-251.017
-249.525
-248.021
-246.504
-244.976
-243.435
-241.882
-240.316
-238.739
-237.148
-235.545
-233.929
-232.301
-230.659
-229.005
-227.337
-225.656
-223.962
-222.255
-220.535
-218.8
-217.053
-215.291
-213.516
-211.727
-209.924
-208.107
-206.276
-204.431
-202.571
-200.697
-198.808
-196.904
-194.986
-193.053
-191.105
-189.141
-187.162
-185.168
-183.159
-181.133
-179.092
-177.035
-174.962
-172.873
-170.768
-168.646
-166.508
-164.353
-162.182
-159.993
-157.788
-155.566
-153.326
-151.069
-148.794
-146.502
-144.192
-141.864
-139.518
-137.155
-134.773
-132.374
-129.957
-127.523
-125.073
-122.606
-120.126
-117.633
-115.131
-112.621
-110.106
-392.96
-393.37
-394.31
-395.8
-397.983
-401.149
-405.588
-411.469
-418.592
-426.242
-433.249
-438.251
-440.215
-438.66
-433.927
-426.428
-417.102
-406.876
-396.541
-386.854
-378.371
-371.292
-365.537
-360.862
-356.941
-353.622
-350.771
-348.286
-346.091
-344.127
-342.347
-340.717
-339.209
-337.8
-336.473
-335.214
-334.011
-332.854
-331.736
-330.65
-329.59
-328.552
-327.532
-326.526
-325.533
-324.549
-323.572
-322.601
-321.633
-320.668
-319.704
-318.74
-317.775
-316.807
-315.838
-314.864
-313.887
-312.904