/*--------------------------------*- C++ -*----------------------------------*\
  =========                 |
  \\      /  F ield         | OpenFOAM: The Open Source CFD Toolbox
   \\    /   O peration     | Website:  https://openfoam.org
    \\  /    A nd           | Version:  9
     \\/     M anipulation  |
\*---------------------------------------------------------------------------*/
FoamFile
{
    format      ascii;
    class       volScalarField;
    location    "0.003";
    object      pMean;
}
// * * * * * * * * * * * * * * * * * * * * * * * * * * * * * * * * * * * * * //

dimensions      [0 2 -2 0 0 0 0];

internalField   nonuniform List<scalar> 
12225
(
-4.94435
-5.41106
-5.80945
-6.05922
-6.25573
-6.5096
-6.86541
-7.31823
-7.84293
-8.45075
-9.14139
-9.97603
-10.9387
-12.1827
-13.64
-15.7778
-18.3797
-23.0564
-5.12155
-5.42657
-5.80632
-6.0579
-6.25344
-6.50432
-6.85757
-7.30469
-7.82862
-8.42742
-9.12153
-9.9321
-10.9147
-12.09
-13.6131
-15.4739
-18.0904
-20.9837
-5.0432
-5.43454
-5.80486
-6.04939
-6.24202
-6.49109
-6.83839
-7.2803
-7.7934
-8.38754
-9.06444
-9.87005
-10.8161
-11.981
-13.3937
-15.1622
-17.3275
-19.8054
-5.0241
-5.41637
-5.79111
-6.03687
-6.23093
-6.47586
-6.81828
-7.24932
-7.75588
-8.33227
-8.99978
-9.77628
-10.7013
-11.8021
-13.1363
-14.7267
-16.6033
-18.7092
-5.26783
-5.48702
-5.79017
-6.02079
-6.21092
-6.45243
-6.78534
-7.20575
-7.69812
-8.26144
-8.90762
-9.65774
-10.5395
-11.5778
-12.8041
-14.2257
-15.8458
-17.6012
-5.01675
-5.41027
-5.75037
-5.9881
-6.18287
-6.4207
-6.74423
-7.15027
-7.62704
-8.17102
-8.79157
-9.50646
-10.3364
-11.2994
-12.4082
-13.6628
-15.045
-16.4995
-5.29077
-5.52303
-5.76221
-5.9641
-6.15114
-6.3807
-6.69072
-7.07988
-7.53699
-8.05691
-8.6458
-9.31741
-10.0866
-10.9633
-11.9501
-13.0389
-14.2037
-15.3968
-5.22665
-5.4319
-5.6888
-5.90548
-6.09886
-6.32629
-6.62314
-6.9928
-7.42661
-7.91776
-8.46914
-9.09061
-9.79153
-10.5754
-11.4384
-12.3664
-13.3332
-14.2966
-5.34051
-5.521
-5.70303
-5.87441
-6.04818
-6.26061
-6.53926
-6.88693
-7.29358
-7.75104
-8.25935
-8.82465
-9.45182
-10.1395
-10.8798
-11.656
-12.4431
-13.2048
-5.3262
-5.43988
-5.62347
-5.80126
-5.97909
-6.18203
-6.44174
-6.76426
-7.14018
-7.55902
-8.01862
-8.52218
-9.0711
-9.66057
-10.2802
-10.9128
-11.5356
-12.1174
-5.48931
-5.48575
-5.59322
-5.74144
-5.89695
-6.08064
-6.31791
-6.6133
-6.95514
-7.33146
-7.73859
-8.17722
-8.64585
-9.13736
-9.64046
-10.1388
-10.6127
-11.0358
-5.28712
-5.40429
-5.53584
-5.66472
-5.80787
-5.97621
-6.1917
-6.45908
-6.76567
-7.09899
-7.45414
-7.83029
-8.22442
-8.6285
-9.03115
-9.41742
-9.77014
-10.0673
-5.1707
-5.35032
-5.47511
-5.58074
-5.7046
-5.85563
-6.04608
-6.28198
-6.55152
-6.84064
-7.1436
-7.45831
-7.78041
-8.10133
-8.41021
-8.69418
-8.93868
-9.12615
-5.35487
-5.30351
-5.36233
-5.46617
-5.57645
-5.70111
-5.86222
-6.06426
-6.29225
-6.5302
-6.77158
-7.01455
-7.25475
-7.4839
-7.69219
-7.86924
-8.00337
-8.0816
-5.03565
-5.14165
-5.24756
-5.3238
-5.39582
-5.48712
-5.61473
-5.77585
-5.95252
-6.1284
-6.29852
-6.46226
-6.61507
-6.74861
-6.85447
-6.92498
-6.95214
-6.92644
-4.5037
-4.83254
-5.0337
-5.11611
-5.15791
-5.20468
-5.28639
-5.40175
-5.52579
-5.63817
-5.73396
-5.81414
-5.87579
-5.91214
-5.91699
-5.88578
-5.81408
-5.69596
-4.88635
-4.88406
-4.88818
-4.88601
-4.88445
-4.89178
-4.92104
-4.97064
-5.02224
-5.05715
-5.06944
-5.06108
-5.03157
-4.97654
-4.89128
-4.7733
-4.62022
-4.42995
-4.2215
-4.32935
-4.43273
-4.46086
-4.44372
-4.41425
-4.39793
-4.39462
-4.3845
-4.35094
-4.29005
-4.20413
-4.09386
-3.9571
-3.79175
-3.59728
-3.37351
-3.1188
-3.72662
-4.01108
-4.11724
-4.09256
-4.03178
-3.96014
-3.89132
-3.82109
-3.73587
-3.62643
-3.48993
-3.32818
-3.14369
-2.9372
-2.70878
-2.45945
-2.19035
-1.90166
-3.87042
-3.87791
-3.83121
-3.76262
-3.65502
-3.53652
-3.42954
-3.32023
-3.19293
-3.04085
-2.86296
-2.66122
-2.43795
-2.19449
-1.93182
-1.652
-1.35658
-1.04638
-3.90161
-3.68749
-3.58689
-3.51725
-3.40483
-3.26448
-3.12716
-2.9906
-2.83863
-2.66044
-2.45436
-2.22444
-1.97477
-1.70746
-1.42411
-1.12711
-0.818322
-0.498376
-3.72615
-3.53605
-3.42049
-3.33247
-3.20884
-3.05393
-2.89734
-2.74197
-2.57281
-2.37742
-2.15444
-1.90884
-1.645
-1.36506
-1.07082
-0.764851
-0.449016
-0.124127
-2.93956
-3.12232
-3.20034
-3.15796
-3.03324
-2.87271
-2.71539
-2.55883
-2.38322
-2.17826
-1.94582
-1.69164
-1.41956
-1.13167
-0.830309
-0.518453
-0.197915
0.130309
-2.86478
-3.05921
-3.10104
-3.04964
-2.92388
-2.76157
-2.59863
-2.43349
-2.24779
-2.03283
-1.7921
-1.53166
-1.25464
-0.962684
-0.658189
-0.344392
-0.023029
0.305002
-2.44585
-2.78776
-2.96771
-2.95749
-2.83684
-2.66797
-2.4998
-2.33426
-2.14927
-1.93313
-1.68973
-1.42654
-1.14707
-0.852845
-0.546273
-0.230653
0.0924001
0.422255
-2.69591
-2.79451
-2.89689
-2.89972
-2.78482
-2.61255
-2.43906
-2.26944
-2.08116
-1.86094
-1.61306
-1.34642
-1.06515
-0.770235
-0.463531
-0.14806
0.17465
0.50419
-2.53007
-2.68463
-2.84067
-2.85907
-2.7456
-2.57011
-2.39445
-2.22478
-2.03724
-1.81686
-1.5678
-1.3001
-1.01838
-0.723399
-0.416779
-0.101431
0.2213
0.551069
-2.46232
-2.64201
-2.82415
-2.83695
-2.71438
-2.54067
-2.36737
-2.19659
-2.00684
-1.78452
-1.53388
-1.26536
-0.984073
-0.69048
-0.385544
-0.071513
0.25052
0.580089
-2.15407
-2.59015
-2.82908
-2.82661
-2.69485
-2.52352
-2.35253
-2.18081
-1.98951
-1.76627
-1.51511
-1.24647
-0.965832
-0.673828
-0.371238
-0.0593868
0.261333
0.591284
-2.04796
-2.55827
-2.82293
-2.81651
-2.68169
-2.51276
-2.3436
-2.17118
-1.97836
-1.7541
-1.5026
-1.23426
-0.954539
-0.663986
-0.363233
-0.0529938
0.266743
0.597066
5.22041
5.2499
5.30172
5.38143
5.48695
5.61908
5.77719
5.96109
6.1701
6.40317
6.65943
6.93732
7.23531
7.55142
7.88411
8.23081
8.58935
8.95712
9.33183
9.71101
10.0922
10.4729
10.8509
11.2239
11.5899
11.947
12.2935
12.6279
12.949
13.2558
13.5475
13.8236
14.0836
14.3274
14.555
14.7665
14.9623
15.1426
15.3081
15.4592
15.5967
15.7211
15.8333
15.9338
16.0236
16.1033
16.1736
16.2352
16.2889
16.3353
16.375
16.4086
16.4367
16.4599
16.4785
16.4932
16.5043
16.5123
16.5174
16.5201
16.5207
16.5195
16.5166
16.5124
16.5071
16.5008
16.4938
16.4862
16.4782
16.4698
16.4612
16.4525
16.4438
16.4351
16.4266
16.4182
16.4101
16.4022
16.3946
16.3874
16.3805
16.3741
16.368
16.3623
16.3571
16.3523
16.3479
16.344
16.3405
16.3374
16.3348
16.3325
16.3307
16.3293
16.3283
16.3277
16.3274
16.3275
16.328
16.3288
16.3299
16.3314
16.3331
16.3351
16.3374
16.3399
16.3428
16.3459
16.3493
16.3529
16.3567
16.3607
16.365
16.3695
16.3741
16.379
16.384
16.3892
16.3946
16.4001
16.4058
16.4116
16.4175
16.4236
16.4298
16.4362
16.4426
16.4492
16.4559
16.4627
16.4696
16.4766
16.4837
16.4909
16.4981
16.5055
16.5129
16.5204
16.528
16.5357
16.5435
16.5513
16.5592
16.5671
16.5752
16.5833
16.5915
16.5998
16.6082
16.6166
16.6252
16.6338
16.6426
16.6514
16.6605
16.6696
16.679
16.6886
16.6985
16.7086
16.7192
16.7303
16.7419
16.7543
16.7677
16.7822
16.7983
16.8164
16.8371
16.8612
16.8899
16.9246
16.9675
17.0226
17.0929
17.1919
17.3227
17.5373
17.8354
18.4065
5.08279
5.11248
5.16581
5.24727
5.35537
5.49061
5.65262
5.84083
6.05466
6.29312
6.55517
6.83922
7.14351
7.46647
7.80561
8.15909
8.52441
8.89874
9.27978
9.66501
10.0519
10.438
10.8208
11.1983
11.5683
11.9289
12.2785
12.6156
12.9389
13.2476
13.5409
13.8182
14.0792
14.3237
14.5518
14.7637
14.9597
15.1401
15.3056
15.4567
15.594
15.7184
15.8304
15.9308
16.0204
16.0999
16.1701
16.2316
16.2852
16.3315
16.3711
16.4047
16.4327
16.4559
16.4746
16.4892
16.5004
16.5084
16.5136
16.5164
16.517
16.5159
16.5131
16.509
16.5038
16.4976
16.4907
16.4833
16.4753
16.467
16.4586
16.45
16.4413
16.4328
16.4243
16.416
16.408
16.4002
16.3927
16.3856
16.3788
16.3724
16.3664
16.3609
16.3557
16.351
16.3467
16.3428
16.3393
16.3363
16.3337
16.3315
16.3298
16.3284
16.3274
16.3268
16.3265
16.3266
16.3271
16.3278
16.3289
16.3304
16.3321
16.3342
16.3366
16.3392
16.3421
16.3452
16.3486
16.3522
16.3561
16.3602
16.3645
16.369
16.3737
16.3785
16.3836
16.3888
16.3942
16.3997
16.4054
16.4112
16.4172
16.4233
16.4295
16.4359
16.4424
16.4489
16.4556
16.4624
16.4693
16.4763
16.4834
16.4906
16.4979
16.5052
16.5127
16.5202
16.5278
16.5355
16.5432
16.5511
16.559
16.5669
16.575
16.5831
16.5913
16.5996
16.6079
16.6164
16.6249
16.6336
16.6423
16.6512
16.6602
16.6694
16.6788
16.6883
16.6982
16.7083
16.7189
16.7299
16.7415
16.7538
16.7671
16.7816
16.7975
16.8155
16.8359
16.8597
16.888
16.9221
16.9643
17.0176
17.087
17.1793
17.3069
17.4832
17.7229
17.9891
4.80472
4.83556
4.89128
4.97652
5.08969
5.2313
5.40082
5.59785
5.82152
6.07097
6.34456
6.64114
6.95838
7.2946
7.64739
8.01445
8.39344
8.78113
9.17499
9.57244
9.97084
10.3676
10.7604
11.1468
11.5248
11.8926
12.2484
12.5908
12.9188
13.2313
13.5277
13.8075
14.0704
14.3165
14.5457
14.7583
14.9547
15.1354
15.301
15.452
15.5892
15.7133
15.8251
15.9252
16.0146
16.0938
16.1637
16.225
16.2784
16.3246
16.3641
16.3976
16.4256
16.4487
16.4674
16.4822
16.4934
16.5015
16.5068
16.5097
16.5105
16.5095
16.5069
16.503
16.498
16.4921
16.4854
16.4781
16.4703
16.4623
16.454
16.4456
16.4372
16.4288
16.4205
16.4124
16.4045
16.3969
16.3896
16.3827
16.376
16.3698
16.3639
16.3585
16.3535
16.3489
16.3447
16.3409
16.3376
16.3347
16.3322
16.3301
16.3284
16.3271
16.3262
16.3257
16.3255
16.3257
16.3262
16.3271
16.3283
16.3298
16.3316
16.3337
16.3361
16.3387
16.3417
16.3448
16.3482
16.3519
16.3558
16.3599
16.3642
16.3687
16.3734
16.3783
16.3834
16.3886
16.394
16.3995
16.4052
16.4111
16.4171
16.4232
16.4294
16.4358
16.4422
16.4488
16.4555
16.4623
16.4692
16.4762
16.4833
16.4905
16.4978
16.5052
16.5126
16.5201
16.5277
16.5354
16.5432
16.551
16.5589
16.5669
16.5749
16.583
16.5912
16.5995
16.6079
16.6163
16.6249
16.6335
16.6422
16.6511
16.6601
16.6693
16.6786
16.6882
16.698
16.7081
16.7186
16.7295
16.7411
16.7533
16.7664
16.7807
16.7965
16.8142
16.8343
16.8576
16.8852
16.9183
16.9592
17.0104
17.0766
17.1624
17.278
17.4238
17.6157
17.803
4.38132
4.41392
4.47333
4.56426
4.68518
4.83657
5.01774
5.22812
5.46681
5.73264
6.02411
6.33952
6.67677
7.03346
7.40709
7.79526
8.19477
8.6029
9.01649
9.43267
9.84866
10.2618
10.6696
11.0696
11.4599
11.8384
12.2036
12.5541
12.8889
13.2072
13.5082
13.7918
14.0577
14.306
14.5368
14.7506
14.9477
15.1289
15.2946
15.4455
15.5826
15.7064
15.8178
15.9176
16.0065
16.0854
16.155
16.216
16.2691
16.315
16.3544
16.3878
16.4157
16.4388
16.4576
16.4724
16.4837
16.4919
16.4974
16.5006
16.5016
16.5008
16.4985
16.4948
16.4901
16.4844
16.478
16.471
16.4635
16.4557
16.4477
16.4396
16.4314
16.4233
16.4153
16.4075
16.3998
16.3925
16.3854
16.3786
16.3722
16.3662
16.3605
16.3553
16.3504
16.346
16.342
16.3384
16.3352
16.3324
16.33
16.3281
16.3265
16.3253
16.3245
16.3241
16.324
16.3243
16.3249
16.3258
16.3271
16.3287
16.3305
16.3327
16.3352
16.3379
16.3409
16.3441
16.3476
16.3513
16.3552
16.3593
16.3637
16.3682
16.373
16.3779
16.383
16.3882
16.3937
16.3992
16.405
16.4108
16.4168
16.4229
16.4292
16.4356
16.442
16.4487
16.4554
16.4622
16.4691
16.4761
16.4832
16.4904
16.4977
16.5051
16.5125
16.52
16.5276
16.5353
16.5431
16.5509
16.5588
16.5668
16.5748
16.5829
16.5911
16.5994
16.6078
16.6162
16.6247
16.6334
16.6421
16.651
16.6599
16.6691
16.6784
16.6879
16.6977
16.7077
16.7182
16.729
16.7404
16.7525
16.7655
16.7796
16.795
16.8123
16.8318
16.8544
16.881
16.9128
16.9517
16.9999
17.0614
17.1388
17.2392
17.3589
17.5033
17.6126
3.80318
3.83824
3.90264
4.00145
4.13293
4.29747
4.49433
4.72301
4.98235
5.27076
5.58679
5.92835
6.29289
6.6779
7.08045
7.49745
7.92544
8.36133
8.80189
9.24411
9.68412
10.1196
10.5477
10.9663
11.373
11.766
12.1438
12.5052
12.8491
13.1749
13.4822
13.7707
14.0404
14.2916
14.5247
14.7399
14.9381
15.1197
15.2856
15.4366
15.5734
15.6968
15.8078
15.9071
15.9956
16.0741
16.1433
16.2039
16.2568
16.3024
16.3416
16.3749
16.4028
16.4259
16.4447
16.4596
16.4711
16.4796
16.4853
16.4887
16.49
16.4895
16.4875
16.4842
16.4798
16.4745
16.4684
16.4618
16.4547
16.4473
16.4396
16.4319
16.4241
16.4163
16.4086
16.4011
16.3938
16.3867
16.3799
16.3735
16.3673
16.3616
16.3562
16.3511
16.3465
16.3423
16.3385
16.3351
16.3321
16.3295
16.3273
16.3255
16.3241
16.3231
16.3224
16.3221
16.3222
16.3226
16.3233
16.3243
16.3257
16.3274
16.3293
16.3316
16.3341
16.3369
16.3399
16.3432
16.3468
16.3505
16.3545
16.3587
16.3631
16.3677
16.3725
16.3774
16.3825
16.3878
16.3933
16.3989
16.4046
16.4105
16.4165
16.4227
16.4289
16.4353
16.4418
16.4485
16.4552
16.462
16.4689
16.476
16.4831
16.4903
16.4976
16.5049
16.5124
16.5199
16.5275
16.5352
16.543
16.5508
16.5587
16.5667
16.5747
16.5829
16.5911
16.5993
16.6077
16.6161
16.6246
16.6332
16.642
16.6508
16.6598
16.6689
16.6782
16.6876
16.6973
16.7073
16.7177
16.7284
16.7397
16.7516
16.7643
16.778
16.7931
16.8098
16.8287
16.8504
16.8757
16.9057
16.9422
16.9866
17.0422
17.11
17.1948
17.2884
17.3913
17.4486
3.05777
3.09593
3.16678
3.27553
3.42054
3.60198
3.81923
4.07122
4.3569
4.67453
5.02229
5.39768
5.79813
6.21998
6.66012
7.11468
7.58008
8.05239
8.52818
9.00349
9.4749
9.93915
10.3936
10.8357
11.2634
11.6748
12.0686
12.4435
12.7988
13.134
13.449
13.7436
14.0181
14.273
14.5086
14.7257
14.9251
15.1074
15.2736
15.4245
15.5611
15.6842
15.7947
15.8936
15.9816
16.0595
16.1283
16.1886
16.2411
16.2866
16.3256
16.3588
16.3867
16.4099
16.4288
16.4439
16.4556
16.4643
16.4703
16.4741
16.4758
16.4757
16.4741
16.4712
16.4673
16.4624
16.4568
16.4506
16.444
16.437
16.4298
16.4225
16.4151
16.4078
16.4005
16.3934
16.3865
16.3798
16.3733
16.3672
16.3614
16.356
16.3509
16.3462
16.3418
16.3379
16.3343
16.3312
16.3284
16.326
16.324
16.3224
16.3212
16.3204
16.3199
16.3197
16.3199
16.3205
16.3213
16.3225
16.324
16.3258
16.3279
16.3302
16.3328
16.3357
16.3388
16.3422
16.3458
16.3496
16.3537
16.3579
16.3624
16.367
16.3719
16.3769
16.382
16.3874
16.3928
16.3985
16.4042
16.4102
16.4162
16.4224
16.4287
16.4351
16.4416
16.4482
16.455
16.4618
16.4688
16.4758
16.4829
16.4901
16.4974
16.5048
16.5123
16.5198
16.5274
16.5351
16.5429
16.5507
16.5586
16.5666
16.5746
16.5828
16.591
16.5992
16.6076
16.616
16.6245
16.6331
16.6418
16.6506
16.6596
16.6686
16.6779
16.6873
16.6969
16.7068
16.717
16.7277
16.7387
16.7504
16.7629
16.7762
16.7908
16.8069
16.8249
16.8455
16.8693
16.8973
16.9307
16.9709
17.0199
17.0778
17.1465
17.2175
17.2859
17.3116
2.12688
2.16891
2.24769
2.36857
2.53001
2.73217
2.97409
3.2549
3.57334
3.92735
4.31457
4.73257
5.17805
5.64675
6.13461
6.63712
7.15021
7.66895
8.18891
8.70644
9.2169
9.7175
10.2047
10.6761
11.1296
11.5636
11.9767
12.3681
12.7371
13.0837
13.4077
13.7096
13.9898
14.2489
14.4877
14.707
14.9078
15.0909
15.2575
15.4085
15.5449
15.6677
15.7778
15.8761
15.9636
16.0412
16.1095
16.1695
16.2217
16.267
16.306
16.3391
16.3671
16.3904
16.4095
16.4249
16.437
16.446
16.4525
16.4567
16.4588
16.4593
16.4582
16.4559
16.4525
16.4481
16.4431
16.4375
16.4314
16.425
16.4183
16.4115
16.4046
16.3978
16.391
16.3843
16.3779
16.3716
16.3656
16.3599
16.3545
16.3494
16.3447
16.3403
16.3363
16.3327
16.3294
16.3266
16.3241
16.322
16.3202
16.3189
16.3179
16.3172
16.3169
16.317
16.3174
16.3181
16.3191
16.3204
16.322
16.3239
16.3261
16.3286
16.3313
16.3343
16.3376
16.341
16.3447
16.3486
16.3527
16.3571
16.3616
16.3663
16.3712
16.3762
16.3814
16.3868
16.3923
16.398
16.4038
16.4098
16.4158
16.422
16.4284
16.4348
16.4414
16.448
16.4548
16.4616
16.4686
16.4756
16.4828
16.49
16.4973
16.5047
16.5122
16.5197
16.5273
16.535
16.5428
16.5506
16.5585
16.5665
16.5746
16.5827
16.5909
16.5991
16.6075
16.6159
16.6244
16.633
16.6417
16.6504
16.6593
16.6684
16.6776
16.6869
16.6965
16.7063
16.7164
16.7268
16.7377
16.7491
16.7612
16.7741
16.7881
16.8035
16.8206
16.8399
16.862
16.8876
16.9177
16.9532
16.9952
17.0431
17.0968
17.148
17.189
17.1906
0.985569
1.03212
1.12004
1.25506
1.43552
1.6616
1.93268
2.24767
2.60533
3.0033
3.4391
3.90941
4.41055
4.93769
5.48553
6.04865
6.62163
7.19857
7.77451
8.34448
8.90391
9.44906
9.97666
10.4839
10.9688
11.43
11.8663
12.2772
12.6625
13.0223
13.357
13.6673
13.9541
14.2181
14.4605
14.6824
14.8849
15.0692
15.2363
15.3875
15.5238
15.6463
15.7561
15.8541
15.9412
16.0184
16.0864
16.1461
16.1983
16.2435
16.2824
16.3157
16.3439
16.3674
16.3869
16.4026
16.4151
16.4247
16.4317
16.4364
16.4392
16.4402
16.4398
16.4381
16.4353
16.4317
16.4273
16.4223
16.4169
16.4111
16.405
16.3988
16.3926
16.3863
16.3801
16.374
16.368
16.3623
16.3568
16.3515
16.3466
16.3419
16.3376
16.3336
16.33
16.3267
16.3238
16.3213
16.3191
16.3173
16.3159
16.3148
16.314
16.3136
16.3136
16.3138
16.3144
16.3153
16.3165
16.318
16.3198
16.3219
16.3242
16.3268
16.3297
16.3328
16.3361
16.3397
16.3435
16.3475
16.3517
16.3561
16.3607
16.3654
16.3704
16.3755
16.3808
16.3862
16.3918
16.3975
16.4033
16.4093
16.4154
16.4217
16.428
16.4345
16.4411
16.4478
16.4545
16.4614
16.4684
16.4755
16.4826
16.4899
16.4972
16.5046
16.5121
16.5196
16.5272
16.5349
16.5427
16.5505
16.5585
16.5664
16.5745
16.5826
16.5908
16.599
16.6074
16.6158
16.6243
16.6328
16.6415
16.6502
16.6591
16.6681
16.6772
16.6865
16.696
16.7056
16.7156
16.7259
16.7365
16.7476
16.7593
16.7718
16.7852
16.7997
16.8158
16.8336
16.8538
16.8769
16.9035
16.9341
16.9691
17.0073
17.0472
17.0811
17.1005
17.0829
-0.401847
-0.350195
-0.252116
-0.101807
0.0993907
0.351857
0.655236
1.0091
1.41194
1.86166
2.3554
2.88929
3.45935
4.05942
4.68287
5.32237
5.97099
6.62187
7.26832
7.90436
8.52484
9.12543
9.7025
10.2535
10.7764
11.2701
11.734
12.1679
12.5722
12.9474
13.2945
13.6146
13.9089
14.1787
14.4254
14.6504
14.855
15.0406
15.2086
15.3602
15.4967
15.6191
15.7288
15.8265
15.9134
15.9904
16.0584
16.118
16.1701
16.2155
16.2546
16.2881
16.3166
16.3406
16.3605
16.3768
16.3899
16.4001
16.4078
16.4132
16.4167
16.4185
16.4188
16.4179
16.4159
16.413
16.4094
16.4051
16.4004
16.3954
16.39
16.3845
16.379
16.3733
16.3678
16.3623
16.3569
16.3518
16.3468
16.3421
16.3377
16.3335
16.3297
16.3262
16.323
16.3201
16.3176
16.3154
16.3136
16.3121
16.311
16.3102
16.3097
16.3096
16.3098
16.3103
16.3111
16.3122
16.3136
16.3153
16.3173
16.3195
16.322
16.3248
16.3278
16.331
16.3345
16.3382
16.3421
16.3462
16.3505
16.355
16.3597
16.3645
16.3695
16.3747
16.38
16.3855
16.3912
16.3969
16.4028
16.4088
16.415
16.4213
16.4277
16.4342
16.4408
16.4475
16.4543
16.4612
16.4682
16.4753
16.4824
16.4897
16.497
16.5044
16.5119
16.5195
16.5271
16.5348
16.5426
16.5505
16.5584
16.5663
16.5744
16.5825
16.5907
16.5989
16.6073
16.6157
16.6241
16.6327
16.6413
16.65
16.6589
16.6678
16.6769
16.6861
16.6954
16.705
16.7148
16.7248
16.7352
16.746
16.7573
16.7692
16.7819
16.7956
16.8105
16.8269
16.8451
16.8655
16.8884
16.914
16.942
16.971
16.9986
17.0176
17.0196
16.9874
-2.08359
-2.02659
-1.91873
-1.75382
-1.53274
-1.25424
-0.917665
-0.522762
-0.0703084
0.437981
0.999414
1.60983
2.26479
2.95642
3.67581
4.41347
5.16029
5.90672
6.64386
7.36446
8.06221
8.7323
9.37089
9.97556
10.5447
11.0777
11.5746
12.0358
12.4624
12.8557
13.2172
13.5487
13.8518
14.1283
14.3801
14.6087
14.816
15.0035
15.1727
15.3252
15.4621
15.5849
15.6947
15.7925
15.8795
15.9566
16.0247
16.0845
16.1369
16.1826
16.2221
16.2561
16.2852
16.3098
16.3304
16.3474
16.3612
16.3722
16.3807
16.387
16.3914
16.3941
16.3953
16.3952
16.3941
16.3921
16.3894
16.386
16.3822
16.3779
16.3734
16.3687
16.3639
16.359
16.3541
16.3493
16.3447
16.3401
16.3358
16.3317
16.3278
16.3242
16.3209
16.3179
16.3152
16.3128
16.3107
16.3089
16.3075
16.3064
16.3056
16.3051
16.305
16.3052
16.3056
16.3064
16.3075
16.3088
16.3105
16.3124
16.3145
16.317
16.3196
16.3226
16.3257
16.3291
16.3327
16.3365
16.3406
16.3448
16.3492
16.3538
16.3586
16.3635
16.3686
16.3738
16.3792
16.3848
16.3905
16.3963
16.4023
16.4083
16.4145
16.4208
16.4273
16.4338
16.4404
16.4472
16.454
16.4609
16.468
16.4751
16.4823
16.4895
16.4969
16.5043
16.5118
16.5194
16.527
16.5347
16.5425
16.5504
16.5583
16.5663
16.5743
16.5824
16.5906
16.5988
16.6072
16.6155
16.624
16.6325
16.6411
16.6498
16.6586
16.6675
16.6765
16.6856
16.6949
16.7043
16.7139
16.7237
16.7339
16.7443
16.7552
16.7665
16.7785
16.7912
16.8049
16.8197
16.8358
16.8534
16.8726
16.8933
16.9147
16.9352
16.9517
16.9579
16.9459
16.9021
-4.13277
-4.07139
-3.95674
-3.78225
-3.54752
-3.24936
-2.88538
-2.4529
-1.95113
-1.37941
-0.740363
-0.0375953
0.722552
1.53206
2.37812
3.24728
4.12561
4.99921
5.85663
6.68834
7.48684
8.24659
8.96371
9.63604
10.2626
10.8438
11.3806
11.8746
12.3278
12.7424
13.121
13.4658
13.7793
14.0639
14.3217
14.555
14.7658
14.9558
15.127
15.2808
15.4188
15.5423
15.6527
15.7511
15.8386
15.9161
15.9847
16.0451
16.0981
16.1444
16.1846
16.2194
16.2492
16.2747
16.2962
16.3141
16.3289
16.3409
16.3505
16.3578
16.3632
16.3669
16.3692
16.3702
16.3701
16.3691
16.3673
16.3649
16.362
16.3587
16.3551
16.3513
16.3473
16.3433
16.3392
16.3352
16.3313
16.3274
16.3238
16.3203
16.3171
16.3141
16.3113
16.3089
16.3067
16.3048
16.3032
16.3018
16.3008
16.3001
16.2997
16.2996
16.2998
16.3003
16.3011
16.3022
16.3035
16.3051
16.307
16.3091
16.3115
16.3142
16.317
16.3202
16.3235
16.327
16.3308
16.3348
16.3389
16.3433
16.3478
16.3525
16.3574
16.3624
16.3676
16.3729
16.3784
16.384
16.3898
16.3956
16.4016
16.4078
16.414
16.4204
16.4268
16.4334
16.4401
16.4469
16.4537
16.4607
16.4677
16.4749
16.4821
16.4894
16.4967
16.5042
16.5117
16.5193
16.5269
16.5346
16.5424
16.5503
16.5582
16.5662
16.5742
16.5823
16.5905
16.5988
16.6071
16.6154
16.6239
16.6324
16.641
16.6496
16.6584
16.6672
16.6761
16.6851
16.6943
16.7035
16.713
16.7226
16.7324
16.7425
16.7529
16.7637
16.7749
16.7867
16.7991
16.8122
16.8262
16.841
16.8566
16.8724
16.8876
16.9002
16.9069
16.9022
16.8787
16.8257
-6.6419
-6.57949
-6.46708
-6.29667
-6.06587
-5.76844
-5.3978
-4.94642
-4.40873
-3.78037
-3.05946
-2.24825
-1.35324
-0.384834
0.636304
1.68877
2.7508
3.80303
4.82916
5.81586
6.75309
7.63408
8.45517
9.21518
9.91468
10.5562
11.1422
11.6761
12.1614
12.6017
13.0006
13.3615
13.6876
13.9819
14.2474
14.4866
14.7019
14.8955
15.0693
15.2253
15.3651
15.4901
15.6017
15.7012
15.7897
15.8683
15.9378
15.9992
16.0531
16.1005
16.1417
16.1776
16.2086
16.2352
16.2579
16.277
16.293
16.3062
16.317
16.3255
16.3321
16.3371
16.3405
16.3427
16.3438
16.3439
16.3433
16.342
16.3401
16.3379
16.3353
16.3324
16.3294
16.3262
16.323
16.3198
16.3167
16.3137
16.3108
16.308
16.3055
16.3031
16.301
16.2991
16.2975
16.2961
16.295
16.2942
16.2937
16.2934
16.2934
16.2937
16.2943
16.2951
16.2963
16.2976
16.2993
16.3012
16.3033
16.3057
16.3083
16.3112
16.3143
16.3176
16.3211
16.3248
16.3287
16.3328
16.3371
16.3416
16.3463
16.3511
16.3561
16.3612
16.3665
16.3719
16.3775
16.3832
16.389
16.3949
16.401
16.4072
16.4135
16.4199
16.4264
16.433
16.4397
16.4465
16.4534
16.4604
16.4675
16.4746
16.4819
16.4892
16.4966
16.504
16.5116
16.5192
16.5268
16.5346
16.5423
16.5502
16.5581
16.5661
16.5742
16.5823
16.5904
16.5987
16.607
16.6153
16.6237
16.6322
16.6408
16.6494
16.6581
16.6669
16.6757
16.6846
16.6937
16.7028
16.712
16.7214
16.7309
16.7407
16.7506
16.7607
16.7712
16.782
16.7931
16.8046
16.8164
16.8285
16.8405
16.8517
16.8611
16.8664
16.8647
16.8505
16.8176
16.7572
-9.75819
-9.70443
-9.61672
-9.48416
-9.30134
-9.05502
-8.73155
-8.31435
-7.78574
-7.12792
-6.32961
-5.38988
-4.31877
-3.12878
-1.85127
-0.519594
0.829886
2.16233
3.44809
4.66574
5.80188
6.85124
7.81237
8.68734
9.48102
10.1991
10.847
11.4304
11.9551
12.4267
12.8504
13.2307
13.5722
13.8787
14.1537
14.4005
14.6218
14.8202
14.998
15.1572
15.2996
15.4269
15.5406
15.642
15.7322
15.8123
15.8834
15.9463
16.0017
16.0505
16.0933
16.1306
16.1631
16.1911
16.2153
16.2359
16.2534
16.268
16.2802
16.2902
16.2982
16.3045
16.3093
16.3129
16.3152
16.3167
16.3173
16.3172
16.3165
16.3154
16.3138
16.312
16.31
16.3079
16.3056
16.3034
16.3011
16.2989
16.2968
16.2949
16.293
16.2914
16.2899
16.2887
16.2877
16.2869
16.2863
16.286
16.286
16.2862
16.2867
16.2874
16.2883
16.2896
16.291
16.2928
16.2947
16.2969
16.2993
16.302
16.3049
16.308
16.3113
16.3148
16.3185
16.3224
16.3265
16.3308
16.3353
16.3399
16.3447
16.3496
16.3547
16.3599
16.3653
16.3708
16.3765
16.3823
16.3882
16.3942
16.4003
16.4066
16.4129
16.4194
16.4259
16.4326
16.4393
16.4462
16.4531
16.4601
16.4672
16.4744
16.4817
16.489
16.4964
16.5039
16.5114
16.519
16.5267
16.5345
16.5423
16.5501
16.558
16.566
16.5741
16.5822
16.5904
16.5986
16.6069
16.6152
16.6236
16.6321
16.6406
16.6492
16.6578
16.6665
16.6753
16.6841
16.693
16.702
16.7111
16.7202
16.7294
16.7388
16.7482
16.7578
16.7674
16.7772
16.787
16.7969
16.8066
16.816
16.8246
16.8315
16.8354
16.8343
16.825
16.8028
16.7621
16.6956
-13.6353
-13.6084
-13.59
-13.5677
-13.5317
-13.4582
-13.3199
-13.0769
-12.6868
-12.1059
-11.2983
-10.2391
-8.92292
-7.37195
-5.63973
-3.80575
-1.95347
-0.153654
1.54356
3.11064
4.5378
5.82652
6.98215
8.01445
8.93403
9.75241
10.4796
11.1256
11.6996
12.2099
12.664
13.0684
13.4289
13.7504
14.0375
14.2939
14.5231
14.7279
14.9111
15.0748
15.2211
15.3518
15.4685
15.5725
15.6653
15.7478
15.821
15.886
15.9435
15.9943
16.039
16.0782
16.1125
16.1424
16.1684
16.1908
16.21
16.2264
16.2402
16.2518
16.2615
16.2694
16.2757
16.2807
16.2845
16.2874
16.2893
16.2906
16.2912
16.2913
16.291
16.2903
16.2894
16.2883
16.2871
16.2858
16.2845
16.2832
16.282
16.2808
16.2798
16.2789
16.2782
16.2776
16.2772
16.2771
16.2771
16.2774
16.2778
16.2786
16.2795
16.2807
16.2821
16.2837
16.2855
16.2876
16.2899
16.2924
16.2952
16.2981
16.3012
16.3046
16.3082
16.3119
16.3158
16.3199
16.3242
16.3287
16.3333
16.338
16.343
16.348
16.3533
16.3586
16.3641
16.3697
16.3755
16.3813
16.3873
16.3934
16.3996
16.4059
16.4123
16.4188
16.4255
16.4322
16.439
16.4458
16.4528
16.4599
16.467
16.4742
16.4815
16.4888
16.4963
16.5038
16.5113
16.5189
16.5266
16.5344
16.5422
16.55
16.558
16.566
16.574
16.5821
16.5903
16.5985
16.6068
16.6151
16.6235
16.632
16.6404
16.649
16.6576
16.6662
16.6749
16.6837
16.6924
16.7013
16.7101
16.719
16.728
16.7369
16.7459
16.7548
16.7637
16.7724
16.781
16.7893
16.797
16.8038
16.8091
16.8119
16.8109
16.804
16.788
16.759
16.7118
16.6402
-18.4848
-18.5336
-18.6869
-18.9262
-19.2406
-19.6017
-19.9704
-20.2772
-20.4166
-20.2404
-19.5966
-18.3841
-16.6001
-14.3506
-11.783
-9.06102
-6.33643
-3.7301
-1.32306
0.843473
2.7584
4.43195
5.88569
7.14616
8.24238
9.19567
10.0263
10.7518
11.3873
11.9454
12.4368
12.8706
13.2543
13.5944
13.8964
14.1649
14.4041
14.6172
14.8074
14.9771
15.1286
15.2639
15.3847
15.4924
15.5885
15.6742
15.7504
15.8182
15.8783
15.9316
15.9788
16.0204
16.057
16.0891
16.1172
16.1416
16.1629
16.1812
16.197
16.2105
16.2219
16.2316
16.2396
16.2463
16.2517
16.2561
16.2596
16.2622
16.2642
16.2657
16.2667
16.2672
16.2675
16.2676
16.2675
16.2672
16.2669
16.2666
16.2663
16.266
16.2658
16.2657
16.2657
16.2659
16.2662
16.2667
16.2674
16.2682
16.2693
16.2705
16.2719
16.2736
16.2754
16.2775
16.2797
16.2822
16.2848
16.2877
16.2907
16.294
16.2974
16.301
16.3048
16.3088
16.313
16.3173
16.3218
16.3264
16.3312
16.3361
16.3412
16.3464
16.3518
16.3572
16.3628
16.3686
16.3744
16.3803
16.3864
16.3926
16.3989
16.4052
16.4117
16.4183
16.425
16.4317
16.4385
16.4455
16.4525
16.4596
16.4667
16.474
16.4813
16.4886
16.4961
16.5036
16.5112
16.5188
16.5265
16.5343
16.5421
16.55
16.5579
16.5659
16.5739
16.5821
16.5902
16.5984
16.6067
16.615
16.6234
16.6318
16.6403
16.6488
16.6573
16.6659
16.6745
16.6832
16.6918
16.7005
16.7092
16.7178
16.7265
16.735
16.7435
16.7518
16.7599
16.7678
16.7751
16.7818
16.7875
16.7919
16.7941
16.7932
16.7877
16.7755
16.7539
16.7188
16.6661
16.5904
-24.6062
-24.8164
-25.3336
-26.1421
-27.2609
-28.7032
-30.4297
-32.2651
-33.8735
-34.8053
-34.672
-33.3015
-30.7581
-27.2649
-23.0983
-18.5905
-14.0627
-9.77672
-5.91746
-2.58133
0.219177
2.53418
4.44447
6.03914
7.37774
8.50913
9.47209
10.2971
11.0082
11.6245
12.1611
12.6304
13.0423
13.405
13.7253
14.0089
14.2606
14.4842
14.6834
14.8608
15.0191
15.1604
15.2865
15.3992
15.4997
15.5895
15.6695
15.7408
15.8043
15.8608
15.911
15.9555
15.9949
16.0296
16.0603
16.0872
16.1109
16.1315
16.1495
16.1652
16.1787
16.1903
16.2003
16.2088
16.216
16.2222
16.2273
16.2315
16.2351
16.238
16.2404
16.2424
16.2439
16.2452
16.2463
16.2472
16.248
16.2487
16.2494
16.2501
16.2508
16.2516
16.2524
16.2533
16.2544
16.2556
16.2569
16.2584
16.26
16.2619
16.2638
16.266
16.2683
16.2708
16.2735
16.2764
16.2794
16.2826
16.286
16.2896
16.2933
16.2972
16.3013
16.3055
16.3099
16.3145
16.3192
16.324
16.3289
16.3341
16.3393
16.3446
16.3501
16.3557
16.3615
16.3673
16.3732
16.3793
16.3854
16.3917
16.3981
16.4045
16.411
16.4177
16.4244
16.4312
16.4381
16.4451
16.4521
16.4592
16.4664
16.4737
16.481
16.4884
16.4959
16.5034
16.511
16.5187
16.5264
16.5342
16.542
16.5499
16.5578
16.5658
16.5739
16.582
16.5901
16.5983
16.6066
16.6149
16.6233
16.6317
16.6401
16.6486
16.6571
16.6656
16.6741
16.6827
16.6912
16.6998
16.7082
16.7167
16.725
16.7332
16.7412
16.7489
16.7563
16.7632
16.7693
16.7745
16.7784
16.7804
16.7798
16.7755
16.7659
16.7491
16.7224
16.6823
16.6249
16.5458
-31.793
-32.332
-33.5851
-35.5657
-38.4667
-42.3886
-47.1484
-52.1771
-56.6265
-59.6128
-60.4331
-58.7303
-54.5825
-48.4295
-40.9525
-32.9557
-25.164
-18.0599
-11.9134
-6.84221
-2.80904
0.342159
2.83161
4.81902
6.43195
7.75957
8.86593
9.79778
10.5898
11.2684
11.8535
12.3612
12.8038
13.1914
13.5321
13.8328
14.0987
14.3346
14.5442
14.7308
14.8972
15.0456
15.1782
15.2966
15.4025
15.4971
15.5817
15.6572
15.7247
15.7849
15.8386
15.8864
15.9289
15.9667
16.0003
16.03
16.0562
16.0794
16.0999
16.1178
16.1336
16.1474
16.1594
16.1699
16.1791
16.187
16.1939
16.1998
16.205
16.2095
16.2133
16.2167
16.2197
16.2223
16.2246
16.2267
16.2286
16.2304
16.2321
16.2338
16.2354
16.237
16.2387
16.2405
16.2423
16.2442
16.2462
16.2484
16.2506
16.253
16.2555
16.2582
16.2611
16.264
16.2672
16.2704
16.2739
16.2775
16.2812
16.2851
16.2892
16.2934
16.2977
16.3022
16.3068
16.3116
16.3165
16.3215
16.3267
16.332
16.3374
16.3429
16.3485
16.3543
16.3601
16.3661
16.3721
16.3783
16.3845
16.3908
16.3973
16.4038
16.4104
16.4171
16.4239
16.4308
16.4377
16.4447
16.4518
16.459
16.4662
16.4735
16.4808
16.4883
16.4958
16.5033
16.5109
16.5186
16.5263
16.5341
16.5419
16.5498
16.5578
16.5658
16.5739
16.582
16.5901
16.5983
16.6066
16.6149
16.6232
16.6316
16.64
16.6484
16.6569
16.6654
16.6738
16.6823
16.6907
16.6991
16.7074
16.7156
16.7237
16.7315
16.7391
16.7462
16.7529
16.7589
16.7639
16.7677
16.7699
16.7697
16.7665
16.7591
16.7459
16.725
16.6939
16.6494
16.5881
16.5061
-38.7006
-39.7966
-42.3504
-46.5114
-52.6219
-60.5732
-69.7015
-78.8015
-86.4604
-91.3142
-92.2988
-88.9585
-81.6049
-71.1484
-58.9349
-46.5016
-35.0866