/*--------------------------------*- C++ -*----------------------------------*\
  =========                 |
  \\      /  F ield         | OpenFOAM: The Open Source CFD Toolbox
   \\    /   O peration     | Website:  https://openfoam.org
    \\  /    A nd           | Version:  9
     \\/     M anipulation  |
\*---------------------------------------------------------------------------*/
FoamFile
{
    format      ascii;
    class       volScalarField;
    location    "0.003";
    object      s_0;
}
// * * * * * * * * * * * * * * * * * * * * * * * * * * * * * * * * * * * * * //

dimensions      [0 0 0 0 0 0 0];

internalField   nonuniform List<scalar> 
12225
(
1
1
1
1
1
1
1
1
1
1
0.999999
0.999995
0.999981
0.999939
0.999823
0.999531
0.998895
0.997649
1
1
1
1
1
1
1
1
1
1
1
1
0.999999
0.999997
0.999992
0.999983
0.999962
0.999915
1
1
1
1
1
1
1
1
1
1
1
1
1
1
0.999999
0.999998
0.999996
0.999991
1
1
1
1
1
1
1
1
1
1
1
1
1
1
0.999999
0.999998
0.999996
0.999992
1
1
1
1
1
1
1
1
1
1
1
1
1
1
0.999999
0.999998
0.999995
0.99999
1
1
1
1
1
1
1
1
1
1
1
1
1
1
0.999999
0.999998
0.999996
0.99999
1
1
1
1
1
1
1
1
1
1
1
1
1
1
0.999999
0.999998
0.999996
0.999991
1
1
1
1
1
1
1
1
1
1
1
1
1
1
0.999999
0.999998
0.999995
0.999989
1
1
1
1
1
1
1
1
1
1
1
1
1
1
0.999999
0.999998
0.999995
0.999988
1
1
1
1
1
1
1
1
1
1
1
1
1
1
0.999999
0.999998
0.999995
0.999988
1
1
1
1
1
1
1
1
1
1
1
1
1
1
0.999999
0.999998
0.999994
0.999987
1
1
1
1
1
1
1
1
1
1
1
1
1
1
0.999999
0.999997
0.999993
0.999985
1
1
1
1
1
1
1
1
1
1
1
1
1
1
0.999999
0.999997
0.999993
0.999984
1
1
1
1
1
1
1
1
1
1
1
1
1
0.999999
0.999999
0.999997
0.999992
0.999983
1
1
1
1
1
1
1
1
1
1
1
1
1
1
0.999999
0.999997
0.999993
0.999985
1
1
1
1
1
1
1
1
1
1
1
1
1
1
0.999999
0.999997
0.999993
0.999984
1
1
1
1
1
1
1
1
1
1
1
1
1
1
0.999999
0.999997
0.999994
0.999985
1
1
1
1
1
1
1
1
1
1
1
1
1
1
0.999999
0.999998
0.999994
0.999985
1
1
1
1
1
1
1
1
1
1
1
1
1
0.999999
0.999998
0.999995
0.999988
0.999972
1
1
1
1
1
1
1
1
1
1
1
1
1
0.999999
0.999999
0.999996
0.99999
0.999977
1
1
1
1
1
1
1
1
1
1
1
1
1
0.999999
0.999998
0.999995
0.999988
0.999972
1
1
1
1
1
1
1
1
1
1
1
1
1
0.999999
0.999998
0.999995
0.999986
0.999966
1
1
1
1
1
1
1
1
1
1
1
1
1
0.999999
0.999998
0.999995
0.999988
0.999971
1
1
1
1
1
1
1
1
1
1
1
1
1
0.999999
0.999998
0.999994
0.999985
0.999962
1
1
1
1
1
1
1
1
1
1
1
1
1
0.999999
0.999998
0.999995
0.999988
0.999971
1
1
1
1
1
1
1
1
1
1
1
1
1
0.999999
0.999998
0.999995
0.999988
0.999972
1
1
1
1
1
1
1
1
1
1
1
1
1
0.999999
0.999998
0.999995
0.999989
0.999973
1
1
1
1
1
1
1
1
1
1
1
1
1
0.999999
0.999998
0.999995
0.999986
0.999965
1
1
1
1
1
1
1
1
1
1
1
1
0.999999
0.999998
0.999992
0.999975
0.999925
0.999796
1
1
1
1
1
1
1
1
1
1
1
0.999998
0.999994
0.999976
0.999917
0.999721
0.999114
0.997318
4.19634e-34
1.19455e-32
1.15226e-31
8.28917e-31
5.38961e-30
3.73951e-29
2.70346e-28
1.84008e-27
1.02868e-26
4.78608e-26
1.8246e-25
6.7917e-25
2.31644e-24
6.62355e-24
1.48818e-23
2.60126e-23
3.59083e-23
3.96672e-23
3.59228e-23
2.7109e-23
1.75038e-23
9.87283e-24
4.9264e-24
2.19364e-24
8.78894e-25
3.19567e-25
1.06291e-25
3.25716e-26
9.25426e-27
2.45163e-27
6.08653e-28
1.42246e-28
3.14212e-29
6.58412e-30
1.31305e-30
2.49952e-31
4.55383e-32
7.95962e-33
1.33768e-33
2.16579e-34
3.38428e-35
5.11225e-36
7.47652e-37
1.06002e-37
1.45879e-38
1.95086e-39
2.53778e-40
3.21432e-41
3.96738e-42
4.77575e-43
5.61071e-44
6.43761e-45
7.21821e-46
7.91375e-47
8.48815e-48
8.91118e-49
9.16113e-50
9.22657e-51
9.10715e-52
8.81329e-53
8.3649e-54
7.78919e-55
7.11818e-56
6.38583e-57
5.62545e-58
4.86746e-59
4.13771e-60
3.45646e-61
2.83802e-62
2.29088e-63
1.81837e-64
1.4195e-65
1.09005e-66
8.23541e-68
6.12253e-69
4.47974e-70
3.22639e-71
2.28766e-72
1.59711e-73
1.09803e-74
7.43499e-76
4.95902e-77
3.25847e-78
2.10954e-79
1.34576e-80
8.4607e-82
5.24266e-83
3.20222e-84
1.9282e-85
1.14472e-86
6.70089e-88
3.86813e-89
2.20214e-90
1.23652e-91
6.84872e-93
3.74215e-94
2.01723e-95
1.07284e-96
5.63031e-98
2.91597e-99
1.49016e-100
7.52278e-102
3.75327e-103
1.85057e-104
9.01683e-106
4.34154e-107
2.06572e-108
9.71264e-110
4.51271e-111
2.07192e-112
9.40038e-114
4.21459e-115
1.86727e-116
8.17524e-118
3.53705e-119
1.51229e-120
6.38975e-122
2.66805e-123
1.10096e-124
4.48975e-126
1.80947e-127
7.20719e-129
2.83708e-130
1.10376e-131
4.24407e-133
1.61288e-134
6.05811e-136
2.24904e-137
8.25252e-139
2.99305e-140
1.07297e-141
3.80196e-143
1.33164e-144
4.61035e-146
1.5778e-147
5.33763e-149
1.78498e-150
5.9008e-152
1.92837e-153
6.22989e-155
1.9897e-156
6.28229e-158
1.96102e-159
6.0518e-161
1.84644e-162
5.56984e-164
1.66117e-165
4.8984e-167
1.42815e-168
4.11701e-170
1.1735e-171
3.30739e-173
9.21715e-175
2.53994e-176
6.9211e-178
1.8649e-179
4.96903e-181
1.30927e-182
3.41141e-184
8.78998e-186
2.23973e-187
5.64362e-189
1.40629e-190
3.46529e-192
8.44405e-194
2.03467e-195
4.84791e-197
1.14211e-198
2.66022e-200
6.12544e-202
1.39413e-203
3.13556e-205
6.96724e-207
1.52868e-208
3.31085e-210
7.06689e-212
1.48694e-213
3.06544e-215
6.2036e-217
1.18048e-218
4.30372e-32
1.2468e-30
1.23811e-29
9.45811e-29
6.77666e-28
5.25948e-27
4.18163e-26
3.05058e-25
1.80755e-24
9.04206e-24
3.82466e-23
1.5736e-22
5.80478e-22
1.73763e-21
4.01789e-21
7.07585e-21
9.73212e-21
1.06096e-20
9.44842e-21
6.99515e-21
4.42395e-21
2.44065e-21
1.19324e-21
5.21893e-22
2.0579e-22
7.37744e-23
2.42361e-23
7.34793e-24
2.06885e-24
5.4396e-25
1.3422e-25
3.12172e-26
6.87074e-27
1.43609e-27
2.85965e-28
5.44046e-29
9.91454e-30
1.73477e-30
2.92054e-31
4.73996e-32
7.42903e-33
1.12623e-33
1.6538e-34
2.35542e-35
3.25767e-36
4.37994e-37
5.7304e-38
7.30216e-39
9.07045e-40
1.09913e-40
1.30022e-41
1.5025e-42
1.69706e-43
1.87459e-44
2.02612e-45
2.14377e-46
2.22145e-47
2.2554e-48
2.24442e-49
2.18996e-50
2.09587e-51
1.96803e-52
1.81371e-53
1.64095e-54
1.45791e-55
1.27229e-56
1.09085e-57
9.19108e-59
7.61179e-60
6.19748e-61
4.96179e-62
3.90695e-63
3.02617e-64
2.30611e-65
1.7293e-66
1.27623e-67
9.27109e-69
6.63032e-70
4.66877e-71
3.23739e-72
2.2109e-73
1.48724e-74
9.85565e-76
6.43476e-77
4.13974e-78
2.62456e-79
1.63995e-80
1.01005e-81
6.13249e-83
3.67076e-84
2.16642e-85
1.26078e-86
7.23578e-88
4.09563e-89
2.28657e-90
1.25925e-91
6.84129e-93
3.66692e-94
1.93927e-95
1.012e-96
5.21145e-98
2.64846e-99
1.32944e-100
6.59345e-102
3.23095e-103
1.56433e-104
7.48357e-106
3.5373e-107
1.65203e-108
7.62344e-110
3.47591e-111
1.56594e-112
6.97062e-114
3.06593e-115
1.33245e-116
5.72196e-118
2.428e-119
1.01804e-120
4.21801e-122
1.72694e-123
6.98692e-125
2.79343e-126
1.10368e-127
4.30931e-129
1.66281e-130
6.34091e-132
2.38972e-133
8.90092e-135
3.2766e-136
1.19213e-137
4.28684e-139
1.52363e-140
5.35247e-142
1.85854e-143
6.3788e-145
2.16404e-146
7.25705e-148
2.40563e-149
7.88286e-151
2.55347e-152
8.17669e-154
2.58842e-155
8.10047e-157
2.50618e-158
7.66565e-160
2.31809e-161
6.93046e-163
2.04859e-164
5.98708e-166
1.73003e-167
4.94283e-169
1.39634e-170
3.90039e-172
1.07729e-173
2.94221e-175
7.94579e-177
2.12193e-178
5.60351e-180
1.4633e-181
3.77877e-183
9.64983e-185
2.43692e-186
6.08581e-188
1.50296e-189
3.67051e-191
8.86432e-193
2.11687e-194
4.99864e-196
1.16706e-197
2.69389e-199
6.14691e-201
1.38627e-202
3.08927e-204
6.80025e-206
1.47789e-207
3.16904e-209
6.6945e-211
1.39163e-212
2.83081e-214
5.64324e-216
2.72296e-30
7.76151e-29
8.04554e-28
6.69864e-27
5.4404e-26
4.75059e-25
4.08033e-24
3.08324e-23
1.87251e-22
9.78693e-22
4.57354e-21
2.04752e-20
7.99302e-20
2.46684e-19
5.76034e-19
1.01095e-18
1.36962e-18
1.46302e-18
1.27137e-18
9.20001e-19
5.67536e-19
3.0513e-19
1.4564e-19
6.23952e-20
2.41602e-20
8.52379e-21
2.76141e-21
8.27203e-22
2.30537e-22
6.00984e-23
1.47252e-23
3.40556e-24
7.46268e-25
1.55476e-25
3.08909e-26
5.86935e-27
1.06913e-27
1.87123e-28
3.15336e-29
5.12598e-30
8.05132e-31
1.2238e-31
1.80265e-32
2.57643e-33
3.57713e-34
4.82965e-35
6.34711e-36
8.12638e-37
1.01444e-37
1.2356e-38
1.46944e-39
1.7073e-40
1.93911e-41
2.15406e-42
2.34147e-43
2.49168e-44
2.59686e-45
2.65175e-46
2.654e-47
2.60439e-48
2.50662e-49
2.3669e-50
2.19333e-51
1.99518e-52
1.78207e-53
1.56329e-54
1.34718e-55
1.14073e-56
9.49285e-58
7.76531e-59
6.24529e-60
4.93921e-61
3.84194e-62
2.93972e-63
2.21306e-64
1.63939e-65
1.19519e-66
8.5767e-68
6.05893e-69
4.21426e-70
2.88639e-71
1.94693e-72
1.29349e-73
8.46537e-75
5.45819e-76
3.46753e-77
2.17075e-78
1.33926e-79
8.14387e-81
4.88148e-82
2.8845e-83
1.68047e-84
9.65328e-86
5.46817e-87
3.05472e-88
1.68307e-89
9.14691e-91
4.90369e-92
2.59348e-93
1.35327e-94
6.96739e-96
3.53979e-97
1.77561e-98
8.79956e-100
4.30841e-101
2.08409e-102
9.96012e-104
4.70287e-105
2.1939e-106
1.01119e-107
4.60479e-109
2.07185e-110
9.21046e-112
4.04562e-113
1.7558e-114
7.52939e-116
3.19039e-117
1.33579e-118
5.52647e-120
2.25935e-121
9.12749e-123
3.64387e-124
1.43756e-125
5.60469e-127
2.15947e-128
8.22282e-130
3.09445e-131
1.15092e-132
4.23068e-134
1.53706e-135
5.51948e-137
1.95901e-138
6.87253e-140
2.38313e-141
8.16838e-143
2.76753e-144
9.26883e-146
3.06861e-147
1.00427e-148
3.24911e-150
1.03917e-151
3.2857e-153
1.02706e-154
3.17396e-156
9.69728e-158
2.92921e-159
8.74809e-161
2.58312e-162
7.54141e-164
2.17694e-165
6.21346e-167
1.75357e-168
4.89349e-170
1.35031e-171
3.68442e-173
9.94115e-175
2.65241e-176
6.99822e-178
1.82592e-179
4.71118e-181
1.20208e-182
3.03315e-184
7.56857e-186
1.86762e-187
4.55739e-189
1.09973e-190
2.62411e-192
6.19138e-194
1.44434e-195
3.33112e-197
7.59436e-199
1.71117e-200
3.8096e-202
8.37751e-204
1.81853e-205
3.89494e-207
8.21528e-209
1.70628e-210
3.47049e-212
6.93658e-214
1.20895e-28
3.35914e-27
3.72268e-26
3.50143e-25
3.30839e-24
3.21916e-23
2.90545e-22
2.21473e-21
1.36375e-20
7.38284e-20
3.81857e-19
1.84719e-18
7.51897e-18
2.36236e-17
5.52223e-17
9.59378e-17
1.2766e-16
1.32989e-16
1.12314e-16
7.92824e-17
4.76512e-17
2.49431e-17
1.16058e-17
4.86617e-18
1.84964e-18
6.42133e-19
2.05163e-19
6.07385e-20
1.67614e-20
4.33426e-21
1.05509e-21
2.42786e-22
5.30032e-23
1.10142e-23
2.18502e-24
4.14918e-25
7.55993e-26
1.32454e-26
2.23593e-27
3.64316e-28
5.73891e-29
8.75291e-30
1.29429e-30
1.85781e-31
2.59143e-32
3.51633e-33
4.64573e-34
5.98132e-35
7.51025e-36
9.20305e-37
1.10131e-37
1.2878e-38
1.47224e-39
1.64637e-40
1.80174e-41
1.93047e-42
2.02589e-43
2.0831e-44
2.09942e-45
2.07458e-46
2.01064e-47
1.91178e-48
1.78386e-49
1.63388e-50
1.46933e-51
1.29766e-52
1.12575e-53
9.59529e-55
8.03702e-56
6.61667e-57
5.35514e-58
4.26155e-59
3.33507e-60
2.56717e-61
1.94395e-62
1.44832e-63
1.06183e-64
7.66163e-66
5.44155e-67
3.80467e-68
2.61916e-69
1.77546e-70
1.18527e-71
7.79357e-73
5.04795e-74
3.2211e-75
2.02512e-76
1.2546e-77
7.65963e-79
4.609e-80
2.73367e-81
1.59833e-82
9.21322e-84
5.23627e-85
2.93453e-86
1.62181e-87
8.83981e-89
4.75234e-90
2.52017e-91
1.3184e-92
6.80453e-94
3.46507e-95
1.74179e-96
8.64938e-98
4.2431e-99
2.05633e-100
9.84505e-102
4.65655e-103
2.17589e-104
1.00448e-105
4.58127e-107
2.06431e-108
9.18999e-110
4.04216e-111
1.75662e-112
7.54249e-114
3.19988e-115
1.34135e-116
5.55583e-118
2.27386e-119
9.19596e-121
3.675e-122
1.4513e-123
5.66371e-125
2.18426e-126
8.3248e-128
3.1356e-129
1.16722e-130
4.29421e-132
1.56141e-133
5.61136e-135
1.99316e-136
6.99761e-138
2.42829e-139
8.32919e-141
2.82401e-142
9.46452e-144
3.13553e-145
1.02686e-146
3.32434e-148
1.06392e-149
3.36607e-151
1.05284e-152
3.2556e-154
9.95269e-156
3.00815e-157
8.98907e-159
2.6558e-160
7.75802e-162
2.24072e-163
6.39903e-165
1.80692e-166
5.04509e-168
1.39287e-169
3.80255e-171
1.02652e-172
2.74025e-174
7.2336e-176
1.88827e-177
4.87441e-179
1.24432e-180
3.14123e-182
7.84189e-184
1.93596e-185
4.72628e-187
1.14099e-188
2.72379e-190
6.42938e-192
1.50052e-193
3.46222e-195
7.89672e-197
1.78011e-198
3.96493e-200
8.72356e-202
1.8947e-203
4.0608e-205
8.57405e-207
1.78329e-208
3.63833e-210
7.30076e-212
4.1926e-27
1.1451e-25
1.42198e-24
1.5849e-23
1.7547e-22
1.8426e-21
1.67846e-20
1.26179e-19
7.82298e-19
4.37135e-18
2.47187e-17
1.27285e-16
5.32467e-16
1.68148e-15
3.89952e-15
6.67325e-15
8.6955e-15
8.81831e-15
7.21276e-15
4.95197e-15
2.89903e-15
1.4777e-15
6.69717e-16
2.74679e-16
1.025e-16
3.50275e-17
1.10424e-17
3.23263e-18
8.83884e-19
2.26871e-19
5.49091e-20
1.25806e-20
2.73826e-21
5.67973e-22
1.12587e-22
2.13824e-23
3.89972e-24
6.84424e-25
1.15812e-25
1.89264e-26
2.9919e-27
4.58153e-28
6.80488e-29
9.81504e-30
1.37623e-30
1.87779e-31
2.49543e-32
3.23252e-33
4.08468e-34
5.03837e-35
6.07029e-36
7.14765e-37
8.22961e-38
9.26976e-39
1.02194e-39
1.10313e-40
1.16639e-41
1.20845e-42
1.22725e-43
1.22204e-44
1.1935e-45
1.14356e-46
1.07525e-47
9.92404e-49
8.99279e-50
8.00253e-51
6.99487e-52
6.00678e-53
5.06872e-54
4.2037e-55
3.42705e-56
2.74689e-57
2.16504e-58
1.67828e-59
1.27969e-60
9.59959e-62
7.0855e-63
5.14659e-64
3.67925e-65
2.58909e-66
1.79366e-67
1.22346e-68
8.2177e-70
5.43593e-71
3.54168e-72
2.27304e-73
1.43718e-74
8.95312e-76
5.49588e-77
3.32465e-78
1.98219e-79
1.16487e-80
6.7481e-82
3.85392e-83
2.1701e-84
1.2049e-85
6.59716e-87
3.56234e-88
1.89725e-89
9.96684e-91
5.16503e-92
2.64063e-93
1.33247e-94
6.64155e-96
3.26999e-97
1.59036e-98
7.64041e-100
3.62594e-101
1.69986e-102
7.87231e-104
3.60159e-105
1.62778e-106
7.26805e-108
3.20601e-109
1.39716e-110
6.01552e-112
2.55889e-113
1.07546e-114
4.46587e-116
1.83232e-117
7.42833e-119
2.97567e-120
1.17786e-121
4.60711e-123
1.78074e-124
6.80171e-126
2.5674e-127
9.57721e-129
3.53071e-130
1.2864e-131
4.63219e-133
1.64857e-134
5.7989e-136
2.01611e-137
6.92819e-139
2.35328e-140
7.90106e-142
2.62219e-143
8.60237e-145
2.7897e-146
8.9432e-148
2.83421e-149
8.8794e-151
2.75016e-152
8.42097e-154
2.54922e-155
7.62956e-157
2.25761e-158
6.60489e-160
1.91053e-161
5.4642e-163
1.54521e-164
4.32064e-166
1.19458e-167
3.26582e-169
8.8286e-171
2.36003e-172
6.23844e-174
1.6307e-175
4.21516e-177
1.07746e-178
2.72356e-180
6.80806e-182
1.6829e-183
4.11373e-185
9.94375e-187
2.37677e-188
5.61733e-190
1.31265e-191
3.03256e-193
6.92555e-195
1.56321e-196
3.48647e-198
7.68161e-200
1.67092e-201
3.58736e-203
7.59058e-205
1.58309e-206
3.24489e-208
6.55664e-210
1.24682e-25
3.49439e-24
5.21631e-23
7.07747e-22
8.82686e-21
9.49716e-20
8.42337e-19
6.13613e-18
3.81994e-17
2.21524e-16
1.31385e-15
7.06836e-15
2.98516e-14
9.35685e-14
2.13561e-13
3.5765e-13
4.55525e-13
4.48624e-13
3.54573e-13
2.3633e-13
1.34718e-13
6.69411e-14
2.95544e-14
1.18538e-14
4.34501e-15
1.4627e-15
4.55372e-16
1.31944e-16
3.57804e-17
9.12509e-18
2.19795e-18
5.01905e-19
1.09019e-19
2.25922e-20
4.47879e-21
8.51454e-22
1.55566e-22
2.73709e-23
4.64591e-24
7.62045e-25
1.20968e-25
1.86098e-26
2.77802e-27
4.02856e-28
5.68118e-29
7.79855e-30
1.04293e-30
1.35988e-31
1.73009e-32
2.14903e-33
2.60787e-34
3.09342e-35
3.58855e-36
4.07316e-37
4.52544e-38
4.92357e-39
5.24747e-40
5.4805e-41
5.61085e-42
5.63257e-43
5.54597e-44
5.35743e-45
5.07871e-46
4.72576e-47
4.31729e-48
3.87317e-49
3.41292e-50
2.95446e-51
2.51306e-52
2.10079e-53
1.7262e-54
1.39445e-55
1.10762e-56
8.65202e-58
6.64744e-59
5.02417e-60
3.73602e-61
2.73368e-62
1.96852e-63
1.39521e-64
9.73431e-66
6.68634e-67
4.52212e-68
3.01173e-69
1.97542e-70
1.27622e-71
8.12183e-73
5.09209e-74
3.14555e-75
1.91469e-76
1.14854e-77
6.79023e-79
3.95686e-80
2.27295e-81
1.28718e-82
7.18686e-84
3.95667e-85
2.14807e-86
1.15009e-87
6.0732e-89
3.16332e-90
1.62534e-91
8.242e-93
4.12794e-94
2.04197e-95
9.97673e-97
4.81455e-98
2.29489e-99
1.08047e-100
5.0248e-102
2.30827e-103
1.04744e-104
4.69513e-106
2.07902e-107
9.09424e-109
3.92992e-110
1.67772e-111
7.07598e-113
2.94846e-114
1.21382e-115
4.9372e-117
1.98419e-118
7.87903e-120
3.09145e-121
1.19857e-122
4.59188e-124
1.7384e-125
6.50365e-127
2.40448e-128
8.78524e-130
3.17223e-131
1.13205e-132
3.99271e-134
1.39181e-135
4.79529e-137
1.63298e-138
5.49651e-140
1.82872e-141
6.01404e-143
1.95505e-144
6.28249e-146
1.9957e-147
6.26701e-149
1.94551e-150
5.97073e-152
1.81154e-153
5.43385e-155
1.61143e-156
4.72467e-158
1.3696e-159
3.92546e-161
1.11241e-162
3.11695e-164
8.63555e-166
2.36567e-167
6.40811e-169
1.71642e-170
4.54612e-172
1.19066e-173
3.0837e-175
7.8976e-177
2.00014e-178
5.00918e-180
1.24056e-181
3.03812e-183
7.3574e-185
1.76183e-186
4.17164e-188
9.76625e-190
2.26044e-191
5.1719e-193
1.16961e-194
2.61372e-196
5.77047e-198
1.25799e-199
2.70731e-201
5.74568e-203
1.2025e-204
2.47798e-206
5.03811e-208
3.61287e-24
1.13088e-22
2.12494e-21
3.34297e-20
4.33648e-19
4.54192e-18
3.84708e-17
2.71512e-16
1.69887e-15
1.01107e-14
5.92866e-14
3.25735e-13
1.36516e-12
4.18776e-12
9.32253e-12
1.51576e-11
1.88501e-11
1.80012e-11
1.37347e-11
8.87455e-12
4.9275e-12
2.39028e-12
1.02957e-12
4.0378e-13
1.45517e-13
4.83143e-14
1.48727e-14
4.27074e-15
1.15008e-15
2.91793e-16
7.00333e-17
1.59577e-17
3.46301e-18
7.17775e-19
1.42457e-19
2.71358e-20
4.97137e-21
8.7763e-22
1.49556e-22
2.46401e-23
3.93058e-24
6.07891e-25
9.12586e-26
1.33133e-26
1.88928e-27
2.61043e-28
3.51479e-29
4.61521e-30
5.91417e-31
7.40093e-32
9.04946e-33
1.08177e-33
1.26485e-34
1.4472e-35
1.62101e-36
1.77818e-37
1.91095e-38
2.01259e-39
2.0779e-40
2.1037e-41
2.08904e-42
2.0353e-43
1.94595e-44
1.82624e-45
1.68267e-46
1.52247e-47
1.35298e-48
1.18117e-49
1.01318e-50
8.54075e-52
7.07641e-53
5.76379e-54
4.61584e-55
3.63503e-56
2.81543e-57
2.14498e-58
1.60769e-59
1.18562e-60
8.60411e-62
6.14527e-63
4.32021e-64
2.98985e-65
2.03717e-66
1.36675e-67
9.02993e-69
5.8757e-70
3.76584e-71
2.37759e-72
1.47888e-73
9.06335e-75
5.47333e-76
3.25733e-77
1.91057e-78
1.10457e-79
6.29499e-81
3.53677e-82
1.95915e-83
1.07008e-84
5.76355e-86
3.06143e-87
1.60383e-88
8.28754e-90
4.22643e-91
2.12853e-92
1.05864e-93
5.19984e-95
2.52239e-96
1.20844e-97
5.7179e-99
2.67213e-100
1.23339e-101
5.62302e-103
2.53208e-104
1.12625e-105
4.94827e-107
2.14754e-108
9.20687e-110
3.89922e-111
1.63136e-112
6.74287e-114
2.75341e-115
1.11082e-116
4.42767e-118
1.74373e-119
6.78525e-121
2.60886e-122
9.91161e-124
3.721e-125
1.38041e-126
5.06061e-128
1.83338e-129
6.56406e-131
2.32259e-132
8.12198e-134
2.80707e-135
9.58868e-137
3.23733e-138
1.08032e-139
3.56335e-141
1.16178e-142
3.74414e-144
1.19277e-145
3.7562e-147
1.16933e-148
3.59856e-150
1.0948e-151
3.29282e-153
9.79117e-155
2.87835e-156
8.36572e-158
2.40394e-159
6.8299e-161
1.91859e-162
5.32887e-164
1.46346e-165
3.97401e-167
1.06705e-168
2.83306e-170
7.43786e-172
1.93093e-173
4.95696e-175
1.25834e-176
3.15877e-178
7.84103e-180
1.92469e-181
4.67171e-183
1.12127e-184
2.66099e-186
6.24393e-188
1.44851e-189
3.32193e-191
7.53025e-193
1.6869e-194
3.73374e-196
8.16203e-198
1.76177e-199
3.75222e-201
7.88508e-203
1.63381e-204
3.34285e-206
1.22271e-22
4.5785e-21
1.01625e-19
1.66812e-18
2.09742e-17
2.07467e-16
1.67183e-15
1.15109e-14
7.18724e-14
4.25046e-13
2.38243e-12
1.26506e-11
5.1657e-11
1.52833e-10
3.2852e-10
5.14309e-10
6.24194e-10
5.78117e-10
4.25859e-10
2.66571e-10
1.44207e-10
6.84542e-11
2.88603e-11
1.1071e-11
3.92732e-12
1.28818e-12
3.92754e-13
1.11954e-13
2.99866e-14
7.58048e-15
1.81558e-15
4.13382e-16
8.97458e-17
1.86282e-17
3.70572e-18
7.08065e-19
1.30208e-19
2.30866e-20
3.95327e-21
6.54777e-22
1.05045e-22
1.63441e-23
2.46922e-24
3.62609e-25
5.18116e-26
7.20969e-27
9.77839e-28
1.29362e-28
1.67044e-29
2.10676e-30
2.59663e-31
3.12926e-32
3.68908e-33
4.25628e-34
4.80787e-35
5.31921e-36
5.76585e-37
6.12545e-38
6.37971e-39
6.51586e-40
6.52774e-41
6.41625e-42
6.18909e-43
5.85997e-44
5.44726e-45
4.97235e-46
4.45788e-47
3.92609e-48
3.39728e-49
2.88881e-50
2.41431e-51
1.98346e-52
1.60205e-53
1.27238e-54
9.93829e-56
7.63515e-57
5.77027e-58
4.29047e-59
3.13907e-60
2.26016e-61
1.60166e-62
1.11725e-63
7.67239e-65
5.1875e-66
3.45369e-67
2.26439e-68
1.46222e-69
9.30058e-71
5.82759e-72
3.59744e-73
2.18809e-74
1.31144e-75
7.74611e-77
4.50933e-78
2.58745e-79
1.46354e-80
8.16109e-82
4.48684e-83
2.43231e-84
1.30023e-85
6.85459e-87
3.56401e-88
1.82886e-89
9.26671e-91
4.63638e-92
2.29061e-93
1.11752e-94
5.38393e-96
2.5615e-97
1.20352e-98
5.5845e-100
2.55917e-101
1.15826e-102
5.17752e-104
2.28589e-105
9.96827e-107
4.29367e-108
1.82682e-109
7.67775e-111
3.18756e-112
1.30732e-113
5.29688e-115
2.12024e-116
8.3848e-118
3.27608e-119
1.26469e-120
4.82389e-122
1.81805e-123
6.77048e-125
2.49146e-126
9.05987e-128
3.25563e-129
1.15612e-130
4.05736e-132
1.40723e-133
4.82367e-135
1.63416e-136
5.47178e-138
1.81088e-139
5.92364e-141
1.9153e-142
6.1213e-144
1.93384e-145
6.0392e-147
1.86435e-148
5.68955e-150
1.71648e-151
5.11939e-153
1.50948e-154
4.40024e-156
1.26816e-157
3.61349e-159
1.018e-160
2.83557e-162
7.80937e-164
2.12658e-165
5.72593e-167
1.52446e-168
4.01324e-170
1.0447e-171
2.68914e-173
6.84477e-175
1.72279e-176
4.28783e-178
1.05528e-179
2.56817e-181
6.18008e-183
1.47051e-184
3.45958e-186
8.04704e-188
1.85041e-189
4.20602e-191
9.4487e-193
2.09748e-194
4.59956e-196
9.96192e-198
2.13001e-199
4.49618e-201
9.368e-203
1.92906e-204
5.64904e-21
2.37779e-19
5.44752e-18
8.57135e-17
1.00662e-15
9.33808e-15
7.19775e-14
4.83817e-13
2.95097e-12
1.66501e-11
8.66434e-11
4.14955e-10
1.62197e-09
4.55932e-09
9.3612e-09
1.40013e-08
1.65747e-08
1.49137e-08
1.06529e-08
6.45686e-09
3.40687e-09
1.58626e-09
6.57719e-10
2.47295e-10
8.6451e-11
2.80745e-11
8.49582e-12
2.40884e-12
6.42983e-13
1.62249e-13
3.88448e-14
8.85195e-15
1.92546e-15
4.00799e-16
8.00219e-17
1.53563e-17
2.83783e-18
5.05893e-19
8.71359e-20
1.45223e-20
2.3451e-21
3.67377e-22
5.5896e-23
8.26847e-24
1.19032e-24
1.66909e-25
2.28153e-26
3.04246e-27
3.96068e-28
5.03652e-29
6.25969e-30
7.60783e-31
9.04606e-32
1.05277e-32
1.19966e-33
1.33903e-34
1.46445e-35
1.56979e-36
1.64976e-37
1.70029e-38
1.71895e-39
1.70505e-40
1.65976e-41
1.58591e-42
1.48773e-43
1.37045e-44
1.23988e-45
1.10191e-46
9.62142e-48
8.25526e-49
6.96129e-50
5.7701e-51
4.70194e-52
3.76734e-53
2.96836e-54
2.3003e-55
1.75346e-56
1.31494e-57
9.70229e-59
7.04454e-60
5.03378e-61
3.54039e-62
2.45117e-63
1.67075e-64
1.12127e-65
7.41005e-67
4.82268e-68
3.09142e-69
1.95197e-70
1.21417e-71
7.44077e-73
4.49295e-74
2.67338e-75
1.56764e-76
9.06e-78
5.16115e-79
2.89827e-80
1.60451e-81
8.75781e-83
4.71342e-84
2.50149e-85
1.30925e-86
6.76304e-88
3.44911e-89
1.73671e-90
8.634e-92
4.23814e-93
2.05413e-94
9.83061e-96
4.64563e-97
2.16787e-98
9.98978e-100
4.54599e-101
2.04297e-102
9.06719e-104
3.97442e-105
1.7206e-106
7.35706e-108
3.10717e-109
1.29621e-110
5.34134e-112
2.17423e-113
8.74289e-115
3.47308e-116
1.36301e-117
5.28469e-119
2.02439e-120
7.66185e-122
2.8652e-123
1.05869e-124
3.86536e-126
1.39454e-127
4.97173e-129
1.75158e-130
6.09832e-132
2.09828e-133
7.13509e-135
2.3979e-136
7.96475e-138
2.61476e-139
8.48443e-141
2.72117e-142
8.62664e-144
2.70329e-145
8.37371e-147
2.56406e-148
7.7613e-150
2.32245e-151
6.87027e-153
2.00921e-154
5.80917e-156
1.66053e-157
4.69279e-159
1.31123e-160
3.62239e-162
9.89447e-164
2.67225e-165
7.136e-167
1.88423e-168
4.91952e-170
1.27006e-171
3.24222e-173
8.18432e-175
2.04289e-176
5.04233e-178
1.23066e-179
2.97001e-181
7.08731e-183
1.67222e-184
3.90097e-186
8.99676e-188
2.05115e-189
4.62217e-191
1.02938e-192
2.26511e-194
4.92411e-196
1.05727e-197
2.24229e-199
4.69796e-201
9.73522e-203
3.35269e-19
1.40659e-17
3.04839e-16
4.44465e-15
4.84721e-14
4.23198e-13
3.11331e-12
2.00244e-11
1.15096e-10
5.95769e-10
2.77184e-09
1.14804e-08
4.20016e-08
1.104e-07
2.13995e-07
3.03698e-07
3.50525e-07
3.07677e-07
2.15054e-07
1.26464e-07
6.51854e-08
2.98677e-08
1.22209e-08
4.53135e-09
1.56261e-09
5.03788e-10
1.5171e-10
4.28901e-11
1.14349e-11
2.88632e-12
6.92112e-13
1.5814e-13
3.45226e-14
7.21787e-15
1.44845e-15
2.79543e-16
5.19789e-17
9.3274e-18
1.61775e-18
2.71578e-19
4.41847e-20
6.97533e-21
1.06968e-21
1.59511e-22
2.31513e-23
3.27335e-24
4.51218e-25
6.06843e-26
7.96809e-27
1.02208e-27
1.28149e-28
1.57133e-29
1.88514e-30
2.21375e-31
2.54561e-32
2.86741e-33
3.16493e-34
3.42409e-35
3.63209e-36
3.7784e-37
3.85573e-38
3.86057e-39
3.79344e-40
3.65882e-41
3.46466e-42
3.22158e-43
2.94201e-44
2.63913e-45
2.32589e-46
2.01419e-47
1.71419e-48
1.43394e-49
1.17919e-50
9.53391e-52
7.57984e-53
5.92661e-54
4.55794e-55
3.44828e-56
2.56662e-57
1.87976e-58
1.35479e-59
9.6101e-61
6.7099e-62
4.61197e-63
3.12095e-64
2.07953e-65
1.36447e-66
8.81726e-68
5.61197e-69
3.51846e-70
2.17314e-71
1.3224e-72
7.92903e-74
4.68489e-75
2.72797e-76
1.5656e-77
8.85646e-79
4.93875e-80
2.71511e-81
1.47167e-82
7.86537e-84
4.14528e-85
2.1563e-86
1.10726e-87
5.61291e-89
2.80889e-90
1.38772e-91
6.76862e-93
3.25946e-94
1.54971e-95
7.27496e-97
3.37208e-98
1.54336e-99
6.97517e-101
3.11297e-102
1.37197e-103
5.97142e-105
2.5668e-106
1.08969e-107
4.56905e-109
1.89224e-110
7.74057e-112
3.12773e-113
1.24842e-114
4.92249e-116
1.91741e-117
7.37847e-119
2.80514e-120
1.05365e-121
3.91022e-123
1.4338e-124
5.19481e-126
1.85977e-127
6.57919e-129
2.29996e-130
7.94544e-132
2.71255e-133
9.15191e-135
3.05164e-136
1.00567e-137
3.27558e-139
1.0545e-140
3.35534e-142
1.0553e-143
3.28075e-145
1.00818e-146
3.06257e-148
9.19648e-150
2.72998e-151
8.01138e-153
2.32422e-154
6.66617e-156
1.89024e-157
5.29915e-159
1.46877e-160
4.02504e-162
1.09059e-163
2.92171e-165
7.73933e-167
2.02707e-168
5.24973e-170
1.34436e-171
3.40414e-173
8.52349e-175
2.1103e-176
5.16641e-178
1.25068e-179
2.99372e-181
7.08548e-183
1.65808e-184
3.83615e-186
8.77424e-188
1.98383e-189
4.43343e-191
9.79154e-193
2.137e-194
4.60853e-196
9.8214e-198
2.06915e-199
4.31418e-201
2.16687e-17
8.48908e-16
1.6921e-14
2.27825e-13
2.31709e-12
1.90213e-11
1.31459e-10
7.84348e-10
4.09429e-09
1.88139e-08
7.62206e-08
2.72535e-07
8.82026e-07
2.13463e-06
3.8554e-06
5.16903e-06
5.81483e-06
5.01444e-06
3.47812e-06
1.99995e-06
1.00943e-06
4.56978e-07
1.85176e-07
6.81238e-08
2.32567e-08
7.46868e-09
2.24501e-09
6.34643e-10
1.69442e-10
4.28844e-11
1.03221e-11
2.36957e-12
5.20124e-13
1.09414e-13
2.2104e-14
4.29654e-15
8.04952e-16
1.45585e-16
2.54562e-17
4.30919e-18
7.07077e-19
1.12594e-19
1.74185e-20
2.62051e-21
3.83748e-22
5.47475e-23
7.61522e-24
1.03352e-24
1.36949e-25
1.77287e-26
2.24342e-27
2.77642e-28
3.36204e-29
3.9852e-30
4.6259e-31
5.2601e-32
5.86119e-33
6.4018e-34
6.85585e-35
7.20069e-36
7.41896e-37
7.50006e-38
7.44094e-39
7.24633e-40
6.92814e-41
6.50429e-42
5.99711e-43
5.43143e-44
4.83265e-45
4.22495e-46
3.62985e-47
3.06513e-48
2.54427e-49
2.07632e-50
1.66608e-51
1.31472e-52
1.02036e-53
7.78968e-55
5.85034e-56
4.32307e-57
3.14343e-58
2.2494e-59
1.58428e-60
1.09837e-61
7.49651e-63
5.03751e-64
3.33321e-65
2.17192e-66
1.39382e-67
8.81027e-69
5.48577e-70
3.36505e-71
2.03374e-72
1.21111e-73
7.10727e-75
4.11043e-76
2.34302e-77
1.31646e-78
7.29155e-80
3.98152e-81
2.14353e-82
1.13801e-83
5.96305e-85
3.08396e-86
1.57428e-87
7.93237e-89
3.94536e-90
1.93708e-91
9.38864e-93
4.49227e-94
2.12204e-95
9.89652e-97
4.55687e-98
2.07168e-99
9.29971e-101
4.12212e-102
1.80424e-103
7.79844e-105
3.32872e-106
1.4032e-107
5.84189e-109
2.40212e-110
9.75572e-112
3.9135e-113
1.55071e-114
6.0697e-116
2.34691e-117
8.96459e-119
3.38288e-120
1.26119e-121
4.64544e-123
1.6906e-124
6.07909e-126
2.15989e-127
7.58293e-129
2.63068e-130
9.01855e-132
3.05533e-133
1.02293e-134
3.38464e-136
1.1068e-137
3.57711e-139
1.14265e-140
3.6076e-142
1.12581e-143
3.47269e-145
1.05883e-146
3.19128e-148
9.50797e-150
2.80031e-151
8.15326e-153
2.34678e-154
6.67792e-156
1.87865e-157
5.22512e-159
1.43682e-160
3.90636e-162
1.05006e-163
2.79086e-165
7.33413e-167
1.9057e-168
4.89623e-170
1.24387e-171
3.12465e-173
7.76138e-175
1.9063e-176
4.62975e-178
1.11182e-179
2.64004e-181
6.19837e-183
1.43886e-184
3.30228e-186
7.49262e-188
1.68055e-189
3.72596e-191
8.16543e-193
1.76883e-194
3.78825e-196
8.0248e-198
1.68323e-199
1.30787e-15
4.73555e-14
8.73291e-13
1.09201e-11
1.03111e-10
7.82835e-10
4.95316e-09
2.66431e-08
1.23269e-07
4.94336e-07
1.72856e-06
5.31758e-06
1.46067e-05
3.21004e-05
5.32491e-05
6.73954e-05
7.38618e-05
6.33135e-05
4.43439e-05
2.53856e-05
1.26047e-05
5.66323e-06
2.28283e-06
8.37426e-07
2.84933e-07
9.14857e-08
2.75472e-08
7.81198e-09
2.09482e-09
5.33036e-10
1.291e-10
2.98424e-11
6.59984e-12
1.39951e-12
2.85118e-13
5.59074e-14
1.0569e-14
1.92924e-15
3.40523e-16
5.81947e-17
9.6412e-18
1.55018e-18
2.42158e-19
3.67879e-20
5.44001e-21
7.83702e-22
1.10078e-22
1.50856e-23
2.01849e-24
2.63854e-25
3.37145e-26
4.2132e-27
5.15173e-28
6.16636e-29
7.22785e-30
8.29945e-31
9.33883e-32
1.03007e-32
1.11402e-33
1.18163e-34
1.22951e-35
1.25527e-36
1.25772e-37
1.23698e-38
1.19438e-39
1.13241e-40
1.05442e-41
9.64372e-43
8.66484e-44
7.64937e-45
6.63596e-46
5.65789e-47
4.74174e-48
3.90672e-49
3.16472e-50
2.52094e-51
1.97492e-52
1.52178e-53
1.1535e-54
8.6021e-56
6.31191e-57
4.55761e-58
3.23879e-59
2.2654e-60
1.55982e-61
1.05734e-62
7.05687e-64
4.6378e-65
3.00163e-66
1.91334e-67
1.20132e-68
7.4302e-70
4.52747e-71
2.7181e-72
1.60794e-73
9.37363e-75
5.38539e-76
3.04954e-77
1.70216e-78
9.36586e-80
5.0806e-81
2.71807e-82
1.43498e-83
7.4763e-85
3.84414e-86
1.95075e-87
9.77034e-89
4.82994e-90
2.35675e-91
1.13513e-92
5.39695e-94
2.53305e-95
1.17367e-96
5.36877e-98
2.42463e-99
1.08113e-100
4.75979e-102
2.06917e-103
8.88214e-105
3.76508e-106
1.57609e-107
6.51567e-109
2.66026e-110
1.07274e-111
4.27258e-113
1.68084e-114
6.53158e-116
2.50718e-117
9.50701e-119
3.56131e-120
1.31795e-121
4.81868e-123
1.74065e-124
6.21249e-126
2.19081e-127
7.63387e-129
2.62845e-130
8.943e-132
3.00684e-133
9.99064e-135
3.28056e-136
1.0646e-137
3.41444e-139
1.08234e-140
3.39101e-142
1.05009e-143
3.2142e-145
9.72469e-147
2.90836e-148
8.59804e-150
2.51271e-151
7.25918e-153
2.07322e-154
5.85362e-156
1.63394e-157
4.50912e-159
1.23026e-160
3.31868e-162
8.85121e-164
2.33409e-165
6.0858e-167
1.56896e-168
3.99948e-170
1.00809e-171
2.5125e-173
6.19191e-175
1.50889e-176
3.63581e-178
8.66274e-180
2.04086e-181
4.75408e-183
1.09497e-184
2.4935e-186
5.61403e-188
1.24966e-189
2.75024e-191
5.98499e-193
1.28815e-194
2.74353e-196
5.78836e-198
6.54972e-14
2.16302e-12
3.67131e-11
4.26855e-10
3.75538e-09
2.62572e-08
1.50162e-07
7.17271e-07
2.90582e-06
1.00996e-05
3.04179e-05
8.0045e-05
0.000183774
0.000360669
0.000543415
0.000651173
0.00069656
0.000602619
0.000433458
0.000254998
0.000126081
5.6486e-05
2.27765e-05
8.37733e-06
2.86287e-06
9.23348e-07
2.7963e-07
7.98384e-08
2.15731e-08
5.53533e-09
1.35264e-09
3.15616e-10
7.04843e-11
1.50973e-11
3.10752e-12
6.15755e-13
1.17648e-13
2.17065e-14
3.87288e-15
6.69069e-16
1.12053e-16
1.82125e-17
2.87586e-18
4.41606e-19
6.60029e-20
9.60989e-21
1.36408e-21
1.88906e-22
2.55402e-23
3.37325e-24
4.35476e-25
5.49796e-26
6.79154e-27
8.21214e-28
9.72388e-29
1.12792e-29
1.28207e-30
1.4285e-31