/*--------------------------------*- C++ -*----------------------------------*\
  =========                 |
  \\      /  F ield         | OpenFOAM: The Open Source CFD Toolbox
   \\    /   O peration     | Website:  https://openfoam.org
    \\  /    A nd           | Version:  9
     \\/     M anipulation  |
\*---------------------------------------------------------------------------*/
FoamFile
{
    format      ascii;
    class       surfaceScalarField;
    location    "0.06";
    object      phi;
}
// * * * * * * * * * * * * * * * * * * * * * * * * * * * * * * * * * * * * * //

dimensions      [0 3 -1 0 0 0 0];

internalField   nonuniform List<scalar> 
24170
(
3.1336e-06
5.48084e-08
3.04826e-06
8.53381e-08
2.97311e-06
7.5147e-08
2.90424e-06
6.88693e-08
2.83937e-06
6.48758e-08
2.78209e-06
5.72803e-08
2.73311e-06
4.89745e-08
2.69149e-06
4.16195e-08
2.65593e-06
3.55623e-08
2.62525e-06
3.0684e-08
2.59845e-06
2.67919e-08
2.57472e-06
2.37337e-08
2.55331e-06
2.14118e-08
2.53345e-06
1.98618e-08
2.51433e-06
1.91133e-08
2.49347e-06
2.08648e-08
2.47137e-06
2.21011e-08
4.07105e-08
2.43066e-06
3.45362e-06
1.84393e-08
3.45617e-06
8.27841e-08
3.44962e-06
8.17003e-08
3.43798e-06
8.05062e-08
3.42347e-06
7.93885e-08
3.40589e-06
7.48547e-08
3.38622e-06
6.86478e-08
3.36526e-06
6.25797e-08
3.34378e-06
5.7041e-08
3.32239e-06
5.20796e-08
3.30147e-06
4.77112e-08
3.28124e-06
4.39601e-08
3.26181e-06
4.08388e-08
3.24316e-06
3.85132e-08
3.22538e-06
3.68928e-08
3.20845e-06
3.78029e-08
3.19338e-06
3.71697e-08
5.07388e-08
3.18335e-06
3.66536e-06
1.55988e-08
3.67825e-06
6.98884e-08
3.6853e-06
7.46514e-08
3.68956e-06
7.62448e-08
3.69121e-06
7.77421e-08
3.69004e-06
7.60228e-08
3.68654e-06
7.21459e-08
3.68129e-06
6.78344e-08
3.6747e-06
6.36295e-08
3.66712e-06
5.96573e-08
3.65883e-06
5.60042e-08
3.65002e-06
5.27665e-08
3.64084e-06
5.00224e-08
3.63137e-06
4.79798e-08
3.62159e-06
4.66767e-08
3.61205e-06
4.73426e-08
3.60125e-06
4.79671e-08
5.55297e-08
3.59646e-06
3.92465e-06
1.63358e-08
3.9358e-06
5.87427e-08
3.94253e-06
6.79227e-08
3.94798e-06
7.07924e-08
3.95236e-06
7.33613e-08
3.95524e-06
7.31427e-08
3.95674e-06
7.06433e-08
3.95716e-06
6.74146e-08
3.95668e-06
6.41073e-08
3.95545e-06
6.0889e-08
3.95359e-06
5.78651e-08
3.9512e-06
5.51559e-08
3.94835e-06
5.2871e-08
3.94513e-06
5.12075e-08
3.94153e-06
5.02763e-08
3.93809e-06
5.07817e-08
3.93418e-06
5.18727e-08
5.63192e-08
3.93339e-06
4.20777e-06
1.56936e-08
4.21599e-06
5.05179e-08
4.22164e-06
6.22759e-08
4.22655e-06
6.58863e-08
4.23121e-06
6.86963e-08
4.23513e-06
6.92289e-08
4.23817e-06
6.7601e-08
4.24047e-06
6.51103e-08
4.24215e-06
6.24336e-08
4.24327e-06
5.97639e-08
4.24392e-06
5.7215e-08
4.24416e-06
5.49159e-08
4.24404e-06
5.29877e-08
4.24365e-06
5.15986e-08
4.24306e-06
5.0866e-08
4.24269e-06
5.1158e-08
4.24247e-06
5.2095e-08
5.46217e-08
4.24416e-06
4.51044e-06
1.4339e-08
4.51686e-06
4.41031e-08
4.52215e-06
5.69831e-08
4.52678e-06
6.12545e-08
4.53136e-06
6.41192e-08
4.5355e-06
6.50832e-08
4.53903e-06
6.40725e-08
4.54201e-06
6.21337e-08
4.54451e-06
5.99302e-08
4.5466e-06
5.76788e-08
4.54831e-06
5.5499e-08
4.54971e-06
5.35195e-08
4.55084e-06
5.18586e-08
4.55179e-06
5.06492e-08
4.55267e-06
4.99823e-08
4.55381e-06
5.00232e-08
4.55536e-06
5.05453e-08
5.17065e-08
4.55827e-06
4.83412e-06
1.29363e-08
4.83957e-06
3.86517e-08
4.84481e-06
5.17506e-08
4.84937e-06
5.66931e-08
4.85384e-06
5.96471e-08
4.85802e-06
6.09012e-08
4.86173e-06
6.03643e-08
4.865e-06
5.88674e-08
4.86789e-06
5.70412e-08
4.87044e-06
5.51245e-08
4.8727e-06
5.32413e-08
4.8747e-06
5.15137e-08
4.87651e-06
5.00489e-08
4.87822e-06
4.89451e-08
4.87994e-06
4.8257e-08
4.88194e-06
4.80294e-08
4.88441e-06
4.8076e-08
4.82643e-08
4.88785e-06
5.1809e-06
1.16146e-08
5.1857e-06
3.38546e-08
5.19081e-06
4.66357e-08
5.19536e-06
5.21434e-08
5.19979e-06
5.52217e-08
5.204e-06
5.66885e-08
5.20783e-06
5.65377e-08
5.21128e-06
5.54197e-08
5.2144e-06
5.39156e-08
5.21725e-06
5.22809e-08
5.21984e-06
5.06441e-08
5.22224e-06
4.91176e-08
5.22449e-06
4.77942e-08
5.2267e-06
4.67418e-08
5.22897e-06
4.59821e-08
5.23151e-06
4.5493e-08
5.23448e-06
4.51054e-08
4.46179e-08
5.23813e-06
5.5526e-06
1.03495e-08
5.55685e-06
2.9612e-08
5.56174e-06
4.17375e-08
5.56628e-06
4.76054e-08
5.5707e-06
5.0803e-08
5.57496e-06
5.24273e-08
5.5789e-06
5.25964e-08
5.58251e-06
5.18144e-08
5.58583e-06
5.05978e-08
5.5889e-06
4.92105e-08
5.59176e-06
4.77847e-08
5.59445e-06
4.64223e-08
5.59704e-06
4.52011e-08
5.59962e-06
4.41658e-08
5.60229e-06
4.33142e-08
5.60519e-06
4.25936e-08
5.60844e-06
4.18547e-08
4.09162e-08
5.61214e-06
5.95099e-06
9.13771e-09
5.95475e-06
2.58467e-08
5.95939e-06
3.71006e-08
5.9639e-06
4.30993e-08
5.96832e-06
4.63825e-08
5.97263e-06
4.81177e-08
5.97668e-06
4.85438e-08
5.98044e-06
4.80561e-08
5.98394e-06
4.70982e-08
5.98722e-06
4.59316e-08
5.99031e-06
4.46901e-08
5.99327e-06
4.34654e-08
5.99615e-06
4.23216e-08
5.99903e-06
4.12871e-08
6.00199e-06
4.03469e-08
6.00515e-06
3.94407e-08
6.00856e-06
3.84451e-08
3.72276e-08
6.01224e-06
6.37796e-06
7.99291e-09
6.38132e-06
2.24812e-08
6.38569e-06
3.27334e-08
6.39014e-06
3.86493e-08
6.39456e-06
4.1965e-08
6.39891e-06
4.37685e-08
6.40306e-06
4.43882e-08
6.40697e-06
4.41484e-08
6.41065e-06
4.34197e-08
6.41413e-06
4.24496e-08
6.41745e-06
4.13703e-08
6.42065e-06
4.02643e-08
6.42379e-06
3.91843e-08
6.42693e-06
3.81491e-08
6.43013e-06
3.71399e-08
6.43347e-06
3.61021e-08
6.43698e-06
3.49417e-08
3.35763e-08
6.44063e-06
5.74175e-06
7.0772e-09
5.74433e-06
1.99014e-08
5.74782e-06
2.92482e-08
5.75152e-06
3.49455e-08
5.75525e-06
3.82371e-08
5.75895e-06
4.00687e-08
5.76253e-06
4.08048e-08
5.76594e-06
4.0735e-08
5.76919e-06
4.01756e-08
5.77228e-06
3.93535e-08
5.77526e-06
3.83964e-08
5.77814e-06
3.73802e-08
5.78098e-06
3.63502e-08
5.7838e-06
3.53209e-08
5.78667e-06
3.4275e-08
5.7896e-06
3.31685e-08
5.79261e-06
3.19313e-08
3.05169e-08
5.79567e-06
6.99913e-06
6.09934e-09
7.00186e-06
1.71717e-08
7.00564e-06
2.54757e-08
7.00978e-06
3.08017e-08
7.01403e-06
3.39861e-08
7.0183e-06
3.5803e-08
7.02248e-06
3.66239e-08
7.02651e-06
3.6706e-08
7.03037e-06
3.63101e-08
7.03409e-06
3.56367e-08
7.03768e-06
3.48048e-08
7.04118e-06
3.38836e-08
7.04461e-06
3.29122e-08
7.04803e-06
3.19036e-08
7.05146e-06
3.08458e-08
7.05492e-06
2.97086e-08
7.05841e-06
2.84462e-08
2.70444e-08
7.06188e-06
8.53188e-06
5.06825e-09
8.53473e-06
1.43181e-08
8.53877e-06
2.14415e-08
8.54335e-06
2.62223e-08
8.54814e-06
2.91865e-08
8.55302e-06
3.09244e-08
8.55787e-06
3.17807e-08
8.56259e-06
3.19802e-08
8.56717e-06
3.17309e-08
8.57161e-06
3.12e-08
8.57592e-06
3.04943e-08
8.58013e-06
2.96756e-08
8.58426e-06
2.87784e-08
8.58835e-06
2.78162e-08
8.59241e-06
2.67848e-08
8.59645e-06
2.56686e-08
8.60045e-06
2.44436e-08
2.3119e-08
8.60438e-06
1.04003e-05
3.99436e-09
1.04033e-05
1.13579e-08
1.04075e-05
1.71626e-08
1.04125e-05
2.12106e-08
1.04179e-05
2.38129e-08
1.04235e-05
2.53826e-08
1.0429e-05
2.62061e-08
1.04345e-05
2.6472e-08
1.04399e-05
2.63391e-08
1.04452e-05
2.59383e-08
1.04503e-05
2.53586e-08
1.04554e-05
2.46538e-08
1.04603e-05
2.38546e-08
1.04651e-05
2.29762e-08
1.04699e-05
2.20219e-08
1.04746e-05
2.09889e-08
1.04791e-05
1.98693e-08
1.86867e-08
1.04836e-05
1.26779e-05
2.88325e-09
1.2681e-05
8.28229e-09
1.26855e-05
1.26282e-08
1.2691e-05
1.57514e-08
1.2697e-05
1.78256e-08
1.27032e-05
1.91117e-08
1.27096e-05
1.98169e-08
1.2716e-05
2.00843e-08
1.27223e-05
2.00271e-08
1.27285e-05
1.97386e-08
1.27346e-05
1.9286e-08
1.27405e-05
1.87125e-08
1.27463e-05
1.80443e-08
1.2752e-05
1.7297e-08
1.27576e-05
1.64793e-08
1.2763e-05
1.55967e-08
1.27682e-05
1.46512e-08
1.36719e-08
1.27732e-05
1.54543e-05
1.72396e-09
1.54576e-05
5.03958e-09
1.54624e-05
7.76787e-09
1.54684e-05
9.76984e-09
1.54751e-05
1.11346e-08
1.54822e-05
1.20018e-08
1.54896e-05
1.24909e-08
1.54969e-05
1.26888e-08
1.55043e-05
1.26633e-08
1.55116e-05
1.24699e-08
1.55187e-05
1.21504e-08
1.55257e-05
1.17333e-08
1.55325e-05
1.12376e-08
1.55391e-05
1.06765e-08
1.55455e-05
1.00594e-08
1.55517e-05
9.39499e-09
1.55577e-05
8.689e-09
7.96954e-09
1.55634e-05
1.88389e-05
4.7532e-10
1.88424e-05
1.49797e-09
1.88478e-05
2.39231e-09
1.88545e-05
3.05532e-09
1.88621e-05
3.52208e-09
1.88703e-05
3.83114e-09
1.88788e-05
4.00869e-09
1.88874e-05
4.07508e-09
1.8896e-05
4.04902e-09
1.89045e-05
3.94637e-09
1.89129e-05
3.7792e-09
1.89211e-05
3.55653e-09
1.8929e-05
3.28559e-09
1.89367e-05
2.97267e-09
1.89442e-05
2.62365e-09
1.89513e-05
2.24497e-09
1.89582e-05
1.84142e-09
1.43575e-09
1.89647e-05
2.29648e-05
-9.69852e-10
2.29689e-05
-2.6443e-09
2.29753e-05
-3.93845e-09
2.29832e-05
-4.89274e-09
2.29922e-05
-5.51261e-09
2.30019e-05
-5.87681e-09
2.3012e-05
-6.07548e-09
2.30223e-05
-6.16577e-09
2.30325e-05
-6.18381e-09
2.30426e-05
-6.16084e-09
2.30525e-05
-6.12241e-09
2.30622e-05
-6.08502e-09
2.30715e-05
-6.05783e-09
2.30805e-05
-6.0456e-09
2.30892e-05
-6.05027e-09
2.30975e-05
-6.07118e-09
2.31055e-05
-6.10753e-09
-6.14422e-09
2.3113e-05
1.68118e-05
-2.11308e-09
1.68151e-05
-5.88651e-09
1.682e-05
-8.89169e-09
1.68262e-05
-1.10561e-08
1.68331e-05
-1.24189e-08
1.68404e-05
-1.32074e-08
1.6848e-05
-1.36228e-08
1.68556e-05
-1.37719e-08
1.68631e-05
-1.37289e-08
1.68705e-05
-1.35643e-08
1.68778e-05
-1.3333e-08
1.68847e-05
-1.30693e-08
1.68915e-05
-1.27939e-08
1.6898e-05
-1.25197e-08
1.69042e-05
-1.22548e-08
1.69101e-05
-1.20026e-08
1.69157e-05
-1.17649e-08
-1.15315e-08
1.69211e-05
1.46357e-05
-3.21936e-09
1.46388e-05
-9.05247e-09
1.46437e-05
-1.37397e-08
1.46496e-05
-1.69754e-08
1.46561e-05
-1.88975e-08
1.46629e-05
-1.9975e-08
1.46697e-05
-2.05078e-08
1.46766e-05
-2.0629e-08
1.46833e-05
-2.04576e-08
1.46899e-05
-2.01098e-08
1.46962e-05
-1.96645e-08
1.47023e-05
-1.91671e-08
1.47082e-05
-1.86462e-08
1.47138e-05
-1.81218e-08
1.47191e-05
-1.76062e-08
1.47242e-05
-1.71059e-08
1.47291e-05
-1.6624e-08
-1.61536e-08
1.47337e-05
1.27412e-05
-4.26497e-09
1.27444e-05
-1.22688e-08
1.27494e-05
-1.87191e-08
1.27552e-05
-2.28034e-08
1.27614e-05
-2.50548e-08
1.27677e-05
-2.63135e-08
1.27741e-05
-2.68816e-08
1.27803e-05
-2.68851e-08
1.27864e-05
-2.6515e-08
1.27922e-05
-2.59422e-08
1.27978e-05
-2.52616e-08
1.28032e-05
-2.45227e-08
1.28083e-05
-2.37594e-08
1.28132e-05
-2.29964e-08
1.28178e-05
-2.22483e-08
1.28222e-05
-2.15222e-08
1.28264e-05
-2.08217e-08
-2.01411e-08
1.28304e-05
1.10918e-05
-5.13957e-09
1.10951e-05
-1.55959e-08
1.11004e-05
-2.40338e-08
1.11063e-05
-2.86149e-08
1.11121e-05
-3.0934e-08
1.11181e-05
-3.22771e-08
1.1124e-05
-3.27905e-08
1.11297e-05
-3.25927e-08
1.11352e-05
-3.19749e-08
1.11404e-05
-3.1153e-08
1.11453e-05
-3.02243e-08
1.11501e-05
-2.92397e-08
1.11545e-05
-2.82388e-08
1.11588e-05
-2.72488e-08
1.11628e-05
-2.62845e-08
1.11667e-05
-2.53524e-08
1.11703e-05
-2.44553e-08
-2.35884e-08
1.11737e-05
9.65583e-06
-5.75099e-09
9.65935e-06
-1.91245e-08
9.66497e-06
-2.96518e-08
9.67068e-06
-3.43241e-08
9.67635e-06
-3.66059e-08
9.68203e-06
-3.7951e-08
9.6875e-06
-3.82674e-08
9.69269e-06
-3.77739e-08
9.69759e-06
-3.68776e-08
9.70224e-06
-3.58006e-08
9.70663e-06
-3.46226e-08
9.71079e-06
-3.33949e-08
9.71471e-06
-3.21622e-08
9.71842e-06
-3.09536e-08
9.72192e-06
-2.97832e-08
9.72522e-06
-2.86566e-08
9.72834e-06
-2.75749e-08
-2.65319e-08
9.73128e-06
8.40543e-06
-5.82859e-09
8.40981e-06
-2.3503e-08
8.41533e-06
-3.51695e-08
8.42054e-06
-3.95366e-08
8.426e-06
-4.2064e-08
8.4315e-06
-4.34547e-08
8.43669e-06
-4.34536e-08
8.44148e-06
-4.25721e-08
8.44595e-06
-4.13458e-08
8.45013e-06
-3.99746e-08
8.45402e-06
-3.85156e-08
8.45765e-06
-3.70208e-08
8.46102e-06
-3.55379e-08
8.46416e-06
-3.40958e-08
8.46709e-06
-3.27078e-08
8.46981e-06
-3.13799e-08
8.47235e-06
-3.01126e-08
-2.8901e-08
8.47472e-06
7.31506e-06
-3.59967e-09
7.32194e-06
-3.03909e-08
7.32741e-06
-4.06314e-08
7.33219e-06
-4.43233e-08
7.33753e-06
-4.73994e-08
7.34293e-06
-4.88556e-08
7.34792e-06
-4.84449e-08
7.35243e-06
-4.70849e-08
7.35651e-06
-4.54223e-08
7.36017e-06
-4.36357e-08
7.36344e-06
-4.17838e-08
7.36635e-06
-3.99299e-08
7.36893e-06
-3.81235e-08
7.37123e-06
-3.63904e-08
7.37326e-06
-3.47422e-08
7.37507e-06
-3.31834e-08
7.37666e-06
-3.17112e-08
-3.03184e-08
7.37808e-06
6.36222e-06
4.24762e-09
6.37295e-06
-4.11182e-08
6.38008e-06
-4.77674e-08
6.38628e-06
-5.05179e-08
6.39226e-06
-5.3387e-08
6.39757e-06
-5.4164e-08
6.40195e-06
-5.28266e-08
6.40556e-06
-5.06861e-08
6.40849e-06
-4.83561e-08
6.4108e-06
-4.59489e-08
6.41255e-06
-4.35321e-08
6.4138e-06
-4.11833e-08
6.41463e-06
-3.8951e-08
6.4151e-06
-3.68546e-08
6.41525e-06
-3.49007e-08
6.41516e-06
-3.30904e-08
6.41487e-06
-3.14155e-08
-2.98551e-08
6.4144e-06
5.53608e-06
1.36355e-08
5.54775e-06
-5.27934e-08
5.55745e-06
-5.74614e-08
5.56603e-06
-5.9098e-08
5.57281e-06
-6.01684e-08
5.57724e-06
-5.86012e-08
5.57941e-06
-5.49913e-08
5.57986e-06
-5.11399e-08
5.57903e-06
-4.75214e-08
5.57719e-06
-4.41074e-08
5.57456e-06
-4.09051e-08
5.57133e-06
-3.79523e-08
5.56764e-06
-3.52624e-08
5.56361e-06
-3.28269e-08
5.55934e-06
-3.06315e-08
5.55493e-06
-2.86731e-08
5.55045e-06
-2.69426e-08
-2.5379e-08
5.54598e-06
4.8575e-06
-1.62597e-08
4.8609e-06
-5.61931e-08
4.8615e-06
-5.80583e-08
4.85884e-06
-5.64387e-08
4.85484e-06
-5.61719e-08
4.84816e-06
-5.19199e-08
4.83893e-06
-4.57542e-08
4.82769e-06
-3.99069e-08
4.8151e-06
-3.49316e-08
4.80175e-06
-3.07512e-08
4.78807e-06
-2.72297e-08
4.77438e-06
-2.42638e-08
4.76088e-06
-2.17626e-08
4.7477e-06
-1.96471e-08
4.73492e-06
-1.78541e-08
4.72263e-06
-1.63738e-08
4.71092e-06
-1.52328e-08
-1.49246e-08
4.70046e-06
4.18642e-06
4.13022e-06
4.07217e-06
4.01573e-06
3.95955e-06
3.90763e-06
3.86188e-06
3.82197e-06
3.78704e-06
3.75629e-06
3.72906e-06
3.7048e-06
3.68303e-06
3.66339e-06
3.64553e-06
3.62916e-06
3.61393e-06
3.599e-06
1.61673e-08
-1.61673e-08
6.14455e-08
-4.52782e-08
1.26463e-07
-6.50176e-08
2.0613e-07
-7.96669e-08
2.94285e-07
-8.8155e-08
3.83029e-07
-8.87438e-08
4.64823e-07
-8.17946e-08
5.36776e-07
-7.19526e-08
5.97531e-07
-6.07553e-08
6.46177e-07
-4.86455e-08
6.81928e-07
-3.57514e-08
7.04108e-07
-2.21797e-08
7.0954e-07
-5.4325e-09
6.94114e-07
1.54266e-08
6.62461e-07
3.16522e-08
6.16866e-07
4.55952e-08
5.58236e-07
5.86302e-08
4.89976e-07
6.82597e-08
4.1973e-07
7.02465e-08
3.51987e-07
6.77427e-08
2.87896e-07
6.40906e-08
2.31102e-07
5.67945e-08
1.78182e-07
5.29202e-08
1.23419e-07
5.4763e-08
6.20993e-08
6.13195e-08
-9.8672e-09
7.19665e-08
-9.42285e-08
8.43613e-08
-1.92772e-07
9.85431e-08
-3.06038e-07
1.13267e-07
-4.3312e-07
1.27082e-07
-5.7164e-07
1.3852e-07
-7.18142e-07
1.46502e-07
-8.68693e-07
1.50551e-07
-1.01942e-06
1.50732e-07
-1.16691e-06
1.47486e-07
-1.30838e-06
1.41473e-07
-1.44182e-06
1.33435e-07
-1.56591e-06
1.24095e-07
-1.68001e-06
1.14094e-07
-1.78396e-06
1.03957e-07
-1.87805e-06
9.40834e-08
-1.9628e-06
8.47506e-08
-2.03893e-06
7.61309e-08
-2.10724e-06
6.83116e-08
-2.16856e-06
6.13159e-08
-2.22368e-06
5.51225e-08
-2.27336e-06
4.96811e-08
-2.31829e-06
4.49254e-08
-2.35907e-06
4.0782e-08
-2.39624e-06
3.7177e-08
-2.43028e-06
3.40395e-08
-2.46159e-06
3.13041e-08
-2.4905e-06
2.89121e-08
-2.51731e-06
2.68114e-08
-2.54227e-06
2.49566e-08
-2.56558e-06
2.33081e-08
-2.58741e-06
2.18322e-08
-2.60791e-06
2.04995e-08
-2.62719e-06
1.9285e-08
-2.64536e-06
1.81675e-08
-2.66249e-06
1.71285e-08
-2.67864e-06
1.61526e-08
-2.69387e-06
1.52265e-08
-2.70821e-06
1.43391e-08
-2.72169e-06
1.34807e-08
-2.73433e-06
1.26436e-08
-2.74615e-06
1.18211e-08
-2.75716e-06
1.10078e-08
-2.76736e-06
1.01997e-08
-2.77675e-06
9.3931e-09
-2.78534e-06
8.58586e-09
-2.79311e-06
7.77621e-09
-2.80008e-06
6.9632e-09
-2.80622e-06
6.14653e-09
-2.81155e-06
5.32631e-09
-2.81605e-06
4.5031e-09
-2.81973e-06
3.67703e-09
-2.82258e-06
2.84852e-09
-2.8246e-06
2.0181e-09
-2.82577e-06
1.17141e-09
-2.82607e-06
2.97711e-10
-2.82544e-06
-6.28366e-10
-2.824e-06
-1.44046e-09
-2.8218e-06
-2.19391e-09
-2.81893e-06
-2.87544e-09
-2.81543e-06
-3.50275e-09
-2.81134e-06
-4.08248e-09
-2.80673e-06
-4.61619e-09
-2.80162e-06
-5.10336e-09
-2.79608e-06
-5.54357e-09
-2.79014e-06
-5.93588e-09
-2.78387e-06
-6.27886e-09
-2.77729e-06
-6.57198e-09
-2.77048e-06
-6.81532e-09
-2.76347e-06
-7.00987e-09
-2.75631e-06
-7.15737e-09
-2.74905e-06
-7.26063e-09
-2.74173e-06
-7.32365e-09
-2.73438e-06
-7.3515e-09
-2.72702e-06
-7.35062e-09
-2.7197e-06
-7.32816e-09
-2.71241e-06
-7.29131e-09
-2.70516e-06
-7.24549e-09
-2.69797e-06
-7.19332e-09
-2.69083e-06
-7.13524e-09
-2.68376e-06
-7.07508e-09
-2.67673e-06
-7.02459e-09
-2.66973e-06
-7.00194e-09
-2.6627e-06
-7.02542e-09
-2.65559e-06
-7.1106e-09
-2.64832e-06
-7.27244e-09
-2.64079e-06
-7.52639e-09
-2.63291e-06
-7.88796e-09
-2.62453e-06
-8.37297e-09
-2.61554e-06
-8.99767e-09
-2.60576e-06
-9.77874e-09
-2.59502e-06
-1.07332e-08
-2.58315e-06
-1.18787e-08
-2.56991e-06
-1.32329e-08
-2.5551e-06
-1.48143e-08
-2.53846e-06
-1.66413e-08
-2.51972e-06
-1.87325e-08
-2.49862e-06
-2.11068e-08
-2.47484e-06
-2.37826e-08
-2.44806e-06
-2.67786e-08
-2.41794e-06
-3.01129e-08
-2.38414e-06
-3.38035e-08
-2.34627e-06
-3.78679e-08
-2.30395e-06
-4.23239e-08
-2.25676e-06
-4.71886e-08
-2.20428e-06
-5.24779e-08
-2.14608e-06
-5.82057e-08
-2.08169e-06
-6.4384e-08
-2.01067e-06
-7.10222e-08
-1.93254e-06
-7.81274e-08
-1.84684e-06
-8.57041e-08
-1.75309e-06
-9.37504e-08
-1.65083e-06
-1.02258e-07
-1.53962e-06
-1.11212e-07
-1.41903e-06
-1.20591e-07
-1.28867e-06
-1.30359e-07
-1.1482e-06
-1.4047e-07
-9.9734e-07
-1.50859e-07
-8.35891e-07
-1.61449e-07
-6.63754e-07
-1.72137e-07
-4.80984e-07
-1.8277e-07
-2.8786e-07
-1.93124e-07
-8.48414e-08
-2.03019e-07
1.27775e-07
-2.12617e-07
3.49485e-07
-2.2171e-07
5.79128e-07
-2.29643e-07
8.15458e-07
-2.3633e-07
1.05703e-06
-2.41571e-07
1.30218e-06
-2.45154e-07
1.54907e-06
-2.46889e-07
1.79569e-06
-2.4662e-07
2.03993e-06
-2.44236e-07
2.27961e-06
-2.3968e-07
2.51256e-06
-2.32949e-07
2.73665e-06
-2.24097e-07
2.94988e-06
-2.13226e-07
3.15037e-06
-2.00486e-07
3.33643e-06
-1.86063e-07
3.5066e-06
-1.7017e-07
3.65963e-06
-1.53029e-07
3.79448e-06
-1.34855e-07
3.91034e-06
-1.15852e-07
4.00669e-06
-9.63517e-08
4.08341e-06
-7.67265e-08
4.13887e-06
-5.54536e-08
4.16645e-06
-2.75799e-08
4.15882e-06
7.62506e-09
4.11864e-06
4.01831e-08
4.05177e-06
6.68657e-08
3.96201e-06
8.97612e-08
3.85056e-06
1.11457e-07
3.71482e-06
1.35737e-07
3.54832e-06
1.66494e-07
3.325e-06
2.2332e-07
2.85232e-07
3.03977e-06
7.56621e-08
-9.18294e-08
1.64095e-07
-1.33711e-07
2.46056e-07
-1.46979e-07
3.17544e-07
-1.51155e-07
3.77824e-07
-1.48434e-07
4.29067e-07
-1.39987e-07
4.73575e-07
-1.26303e-07
5.10899e-07
-1.09276e-07
5.40325e-07
-9.01813e-08
5.61312e-07
-6.96327e-08
5.73484e-07
-4.79231e-08
5.7644e-07
-2.5136e-08
5.72043e-07
-1.03572e-09
5.63276e-07
2.41944e-08
5.453e-07
4.96275e-08
5.16093e-07
7.48029e-08
4.7641e-07
9.83125e-08
4.26235e-07
1.18435e-07
3.6371e-07
1.32771e-07
2.891e-07
1.42353e-07
2.06165e-07
1.47025e-07
1.13e-07
1.4996e-07
1.05895e-08
1.55331e-07
-9.98435e-08
1.65196e-07
-2.19458e-07
1.80934e-07
-3.48288e-07
2.00796e-07
-4.86723e-07
2.22796e-07
-6.32881e-07
2.44701e-07
-7.8364e-07
2.64026e-07
-9.3518e-07
2.78621e-07
-1.08369e-06
2.87026e-07
-1.22588e-06
2.88693e-07
-1.35927e-06
2.83947e-07
-1.48228e-06
2.73742e-07
-1.59416e-06
2.59366e-07
-1.69488e-06
2.42185e-07
-1.78491e-06
2.23466e-07
-1.86508e-06
2.04268e-07
-1.93639e-06
1.85408e-07
-1.9999e-06
1.6746e-07
-2.0566e-06
1.50787e-07
-2.10743e-06
1.35581e-07
-2.1532e-06
1.21905e-07
-2.19463e-06
1.09733e-07
-2.23229e-06
9.89803e-08
-2.2667e-06
8.95305e-08
-2.29827e-06
8.12513e-08
-2.32735e-06
7.40077e-08
-2.35424e-06
6.76696e-08
-2.37918e-06
6.2116e-08
-2.40237e-06
5.72371e-08
-2.42401e-06
5.29354e-08
-2.44422e-06
4.91249e-08
-2.46314e-06
4.57305e-08
-2.48087e-06
4.26872e-08
-2.4975e-06
3.99384e-08
-2.5131e-06
3.74355e-08
-2.52774e-06
3.51365e-08
-2.54146e-06
3.30052e-08
-2.5543e-06
3.10106e-08
-2.5663e-06
2.9126e-08
-2.57748e-06
2.73284e-08
-2.58785e-06
2.55985e-08
-2.59743e-06
2.39197e-08
-2.60623e-06
2.2278e-08
-2.61424e-06
2.0662e-08
-2.62148e-06
1.9062e-08
-2.62795e-06
1.74706e-08
-2.63363e-06
1.58818e-08
-2.63853e-06
1.42914e-08
-2.64264e-06
1.26964e-08
-2.64596e-06
1.10953e-08
-2.64848e-06
9.4879e-09
-2.65021e-06
7.87481e-09
-2.65114e-06
6.25798e-09
-2.65128e-06
4.64011e-09
-2.65063e-06
3.02484e-09
-2.64919e-06
1.41569e-09
-2.64701e-06
-1.66424e-10
-2.64408e-06
-1.75547e-09
-2.64047e-06
-3.31052e-09
-2.63627e-06
-4.82822e-09
-2.63143e-06
-6.28192e-09
-2.62595e-06
-7.67536e-09
-2.61983e-06
-8.99642e-09
-2.61309e-06
-1.02405e-08
-2.60577e-06
-1.1404e-08
-2.59791e-06
-1.24826e-08
-2.58954e-06
-1.34713e-08
-2.58071e-06
-1.43663e-08
-2.57149e-06
-1.51637e-08
-2.5619e-06
-1.58607e-08
-2.55202e-06
-1.64552e-08
-2.54189e-06
-1.69466e-08
-2.53156e-06
-1.73358e-08
-2.5211e-06
-1.76257e-08
-2.51054e-06
-1.78207e-08
-2.49993e-06
-1.79271e-08
-2.48933e-06
-1.79535e-08
-2.47877e-06
-1.791e-08
-2.46829e-06
-1.78083e-08
-2.45792e-06
-1.76605e-08
-2.44769e-06
-1.74784e-08
-2.43761e-06
-1.72724e-08
-2.42769e-06
-1.70528e-08
-2.41793e-06
-1.68342e-08
-2.40832e-06
-1.66389e-08
-2.39882e-06
-1.64966e-08
-2.38941e-06
-1.64392e-08
-2.38002e-06
-1.64974e-08
-2.37059e-06
-1.67016e-08
-2.36104e-06
-1.70829e-08
-2.35125e-06
-1.7673e-08
-2.34112e-06
-1.85046e-08
-2.33051e-06
-1.9611e-08
-2.31926e-06
-2.10265e-08
-2.30721e-06
-2.27861e-08
-2.29416e-06
-2.49259e-08
-2.27991e-06
-2.74825e-08
-2.26423e-06
-3.04933e-08
-2.24688e-06
-3.3996e-08
-2.22758e-06
-3.80289e-08
-2.20606e-06
-4.26303e-08
-2.182e-06
-4.78382e-08
-2.15509e-06
-5.36903e-08
-2.12498e-06
-6.02238e-08
-2.09131e-06
-6.74747e-08
-2.0537e-06
-7.54785e-08
-2.01175e-06
-8.42703e-08
-1.96506e-06
-9.38839e-08
-1.91318e-06
-1.04351e-07
-1.85569e-06
-1.15699e-07
-1.79212e-06
-1.27951e-07
-1.72202e-06
-1.41125e-07
-1.64491e-06
-1.55234e-07
-1.56033e-06
-1.70286e-07
-1.4678e-06
-1.86276e-07
-1.36688e-06
-2.03185e-07
-1.25711e-06
-2.20984e-07
-1.13807e-06
-2.39626e-07
-1.00939e-06
-2.59041e-07
-8.70727e-07
-2.79132e-07
-7.21811e-07
-2.99775e-07
-5.62447e-07
-3.20812e-07
-3.92548e-07
-3.42036e-07
-2.12123e-07
-3.63195e-07
-2.12231e-08
-3.84023e-07
1.80042e-07
-4.04284e-07
3.91081e-07
-4.23656e-07
6.11026e-07
-4.41654e-07
8.39091e-07
-4.57709e-07
1.07415e-06
-4.71385e-07
1.31482e-06
-4.82241e-07
1.55951e-06
-4.89852e-07
1.80646e-06
-4.93836e-07
2.05373e-06
-4.93886e-07
2.29927e-06
-4.89782e-07
2.541e-06
-4.8141e-07
2.77682e-06
-4.68765e-07
3.00467e-06
-4.51952e-07
3.22263e-06
-4.31178e-07
3.42888e-06
-4.06741e-07
3.62183e-06
-3.79009e-07
3.80006e-06
-3.48404e-07
3.96241e-06
-3.15377e-07
4.10793e-06
-2.80378e-07
4.23594e-06
-2.4386e-07
4.34588e-06
-2.06294e-07
4.43711e-06
-1.67959e-07
4.50996e-06
-1.28294e-07
4.56875e-06
-8.63752e-08
4.61794e-06
-4.15637e-08
4.65431e-06
3.81382e-09
4.6731e-06
4.80767e-08
4.672e-06
9.08605e-08
4.64998e-06
1.33474e-07
4.6058e-06
1.79917e-07
4.538e-06
2.3429e-07
4.44075e-06
3.20576e-07
4.32035e-07
4.29394e-06
8.36492e-08
-1.75479e-07
1.672e-07
-2.17261e-07
2.3705e-07
-2.16829e-07
2.92421e-07
-2.06527e-07
3.35385e-07
-1.91398e-07
3.68146e-07
-1.72749e-07
3.93029e-07
-1.51185e-07
4.11061e-07
-1.27309e-07
4.22496e-07
-1.01616e-07
4.27282e-07
-7.44185e-08
4.25262e-07
-4.5903e-08
4.16315e-07
-1.61898e-08
4.00654e-07
1.46258e-08
3.78498e-07
4.63501e-08
3.49478e-07
7.86474e-08
3.1332e-07
1.10961e-07
2.69321e-07
1.42311e-07
2.16446e-07
1.7131e-07
1.52686e-07
1.96531e-07
7.73956e-08
2.17644e-07
-1.06987e-08
2.35119e-07
-1.11822e-07
2.51083e-07
-2.24663e-07
2.68172e-07
-3.47535e-07
2.88068e-07
-4.77626e-07
3.11025e-07
-6.12275e-07
3.35445e-07
-7.48428e-07
3.5895e-07
-8.82609e-07
3.78881e-07
-1.01151e-06
3.92932e-07
-1.13253e-06
3.99635e-07
-1.24404e-06
3.98539e-07
-1.34548e-06
3.90128e-07
-1.43707e-06
3.75544e-07
-1.5196e-06
3.56273e-07
-1.5941e-06
3.33858e-07
-1.66162e-06
3.09712e-07
-1.72318e-06
2.85018e-07
-1.7796e-06
2.6069e-07
-1.83157e-06
2.3738e-07
-1.87963e-06
2.15519e-07
-1.92419e-06
1.9535e-07
-1.96559e-06
1.76976e-07
-2.00408e-06
1.604e-07
-2.0399e-06
1.45553e-07
-2.07325e-06
1.32324e-07
-2.1043e-06
1.20579e-07
-2.13322e-06
1.10171e-07
-2.16016e-06
1.00957e-07
-2.18529e-06
9.27942e-08
-2.20873e-06
8.5553e-08
-2.2306e-06
7.91132e-08
-2.25103e-06
7.33663e-08
-2.27012e-06
6.82154e-08
-2.28797e-06
6.35744e-08
-2.30465e-06
5.93672e-08
-2.32024e-06
5.55269e-08
-2.3348e-06
5.19949e-08
-2.34838e-06
4.87198e-08
-2.36103e-06
4.56567e-08
-2.37279e-06
4.27667e-08
-2.38368e-06
4.00158e-08
-2.39372e-06
3.73748e-08
-2.40294e-06
3.48185e-08
-2.41135e-06
3.23257e-08
-2.41895e-06
2.9878e-08
-2.42575e-06
2.74605e-08
-2.43175e-06
2.50608e-08
-2.43694e-06
2.2669e-08
-2.44134e-06
2.02777e-08
-2.44493e-06
1.78814e-08
-2.44771e-06
1.54768e-08
-2.44968e-06
1.30625e-08
-2.45083e-06
1.06386e-08
-2.45116e-06
8.20717e-09
-2.45067e-06
5.77177e-09
-2.44937e-06
3.33758e-09
-2.44726e-06
9.10922e-10
-2.44434e-06
-1.49971e-09
-2.44063e-06
-3.8819e-09
-2.43615e-06
-6.23409e-09
-2.43092e-06
-8.53833e-09
-2.42497e-06
-1.07815e-08
-2.4183e-06
-1.29512e-08
-2.41094e-06
-1.50379e-08
-2.4029e-06
-1.703e-08
-2.39423e-06
-1.89161e-08
-2.38494e-06
-2.06867e-08
-2.37509e-06
-2.23323e-08
-2.36472e-06
-2.38443e-08
-2.35387e-06
-2.5215e-08
-2.3426e-06
-2.6438e-08
-2.33095e-06
-2.75078e-08
-2.31899e-06
-2.84209e-08
-2.30676e-06
-2.91756e-08
-2.29432e-06
-2.97725e-08
-2.28173e-06
-3.02145e-08
-2.26904e-06
-3.05073e-08
-2.25631e-06
-3.06591e-08
-2.24359e-06
-3.06807e-08
-2.23091e-06
-3.05856e-08
-2.21833e-06
-3.03895e-08
-2.20588e-06
-3.01095e-08
-2.19359e-06
-2.97639e-08
-2.18149e-06
-2.93717e-08
-2.16959e-06
-2.89542e-08
-2.15789e-06
-2.85371e-08
-2.14638e-06
-2.81535e-08
-2.13503e-06
-2.78434e-08
-2.12382e-06
-2.76504e-08
-2.1127e-06
-2.76191e-08
-2.1016e-06
-2.7795e-08
-2.09046e-06
-2.82247e-08
-2.07918e-06
-2.89562e-08
-2.06764e-06
-3.00389e-08
-2.05573e-06
-3.15233e-08
-2.0433e-06
-3.34614e-08
-2.03018e-06
-3.59065e-08
-2.01619e-06
-3.89131e-08
-2.00113e-06
-4.25368e-08
-1.98479e-06
-4.68342e-08
-1.96693e-06
-5.18626e-08
-1.94728e-06
-5.76798e-08
-1.92556e-06
-6.43437e-08
-1.90149e-06
-7.19122e-08
-1.87474e-06
-8.04424e-08
-1.84497e-06
-8.99906e-08
-1.81183e-06
-1.00611e-07
-1.77495e-06
-1.12358e-07
-1.73394e-06
-1.25283e-07
-1.68839e-06
-1.39437e-07
-1.63787e-06
-1.54868e-07
-1.58195e-06
-1.71616e-07
-1.52019e-06
-1.89717e-07
-1.45212e-06
-2.09197e-07
-1.37728e-06
-2.30075e-07
-1.2952e-06
-2.52361e-07
-1.20543e-06
-2.76051e-07
-1.10749e-06
-3.01116e-07
-1.00097e-06
-3.27509e-07
-8.85429e-07
-3.55166e-07
-7.60492e-07
-3.83978e-07
-6.25818e-07
-4.13806e-07
-4.81125e-07
-4.44468e-07
-3.26204e-07
-4.75733e-07
-1.60929e-07
-5.07312e-07
1.47662e-08
-5.3889e-07
2.00859e-07
-5.70116e-07
3.97116e-07
-6.0054e-07
6.03016e-07
-6.29555e-07
8.17825e-07
-6.56464e-07
1.04068e-06
-6.80559e-07
1.27046e-06
-7.0117e-07
1.50585e-06
-7.17628e-07
1.74529e-06
-7.29298e-07
1.98707e-06
-7.35615e-07
2.22931e-06
-7.36121e-07
2.47002e-06
-7.3049e-07
2.70715e-06
-7.18549e-07
2.93868e-06
-7.00292e-07
3.1626e-06
-6.75875e-07
3.37704e-06
-6.4561e-07
3.58023e-06
-6.0994e-07
3.77064e-06
-5.69418e-07
3.94692e-06
-5.24679e-07
4.10794e-06
-4.76401e-07
4.25285e-06
-4.25281e-07
4.381e-06
-3.72014e-07
4.49196e-06
-3.17255e-07
4.58544e-06
-2.61437e-07
4.66175e-06
-2.04602e-07
4.72226e-06
-1.46887e-07
4.76913e-06
-8.84361e-08
4.80297e-06
-3.00221e-08
4.82328e-06
2.77646e-08
4.82921e-06
8.49268e-08
4.81998e-06
1.42704e-07
4.79503e-06
2.04874e-07
4.7532e-06
2.76113e-07
4.69884e-06
3.74943e-07
5.04221e-07
4.62665e-06
7.24088e-08
-2.47887e-07
1.30728e-07
-2.75581e-07
1.76467e-07
-2.62567e-07
2.12143e-07
-2.42203e-07
2.39256e-07
-2.18512e-07
2.58926e-07
-1.92419e-07
2.72031e-07
-1.6429e-07
2.79074e-07
-1.34351e-07
2.80228e-07
-1.0277e-07
2.75474e-07
-6.96648e-08
2.647e-07
-3.51293e-08
2.4777e-07
7.40372e-10
2.24567e-07
3.78295e-08
1.94965e-07
7.59515e-08
1.58809e-07
1.14804e-07
1.1588e-07
1.53889e-07
6.57458e-08
1.92446e-07
7.60764e-09
2.29449e-07
-5.97306e-08
2.63869e-07
-1.37255e-07
2.95168e-07
-2.25749e-07
3.23614e-07
-3.24957e-07
3.50291e-07
-4.33225e-07
3.76441e-07
-5.47785e-07
4.02628e-07
-6.65052e-07
4.28292e-07
-7.81421e-07
4.51815e-07
-8.93553e-07
4.71082e-07
-9.98786e-07
4.84114e-07
-1.09545e-06
4.89595e-07
-1.18293e-06
4.8712e-07
-1.26155e-06
4.77155e-07
-1.33222e-06
4.60801e-07
-1.39617e-06
4.39487e-07
-1.45461e-06
4.14715e-07
-1.50862e-06
3.87875e-07
-1.55907e-06
3.60153e-07
-1.60654e-06
3.32494e-07
-1.65146e-06
3.05607e-07
-1.69407e-06
2.7999e-07
-1.73452e-06
2.55966e-07
-1.77288e-06
2.33713e-07
-1.80921e-06
2.13304e-07
-1.84354e-06
1.9473e-07
-1.87591e-06
1.77926e-07
-1.90638e-06
1.6279e-07
-1.935e-06
1.492e-07
-1.96185e-06
1.37021e-07
-1.98701e-06
1.26115e-07
-2.01056e-06
1.16347e-07
-2.03259e-06
1.07588e-07
-2.0532e-06
9.97182e-08
-2.07246e-06
9.26253e-08
-2.09045e-06
8.62081e-08
-2.10725e-06
8.03744e-08
-2.12292e-06
7.50414e-08
-2.13753e-06
7.01351e-08
-2.15113e-06
6.55892e-08
-2.16375e-06
6.13453e-08
-2.17545e-06
5.73514e-08
-2.18624e-06
5.3562e-08
-2.19616e-06
4.9937e-08
-2.20523e-06
4.64417e-08
-2.21346e-06
4.3046e-08
-2.22086e-06
3.97239e-08
-2.22743e-06
3.64536e-08
-2.23319e-06
3.32168e-08
-2.23813e-06
2.99985e-08
-2.24224e-06
2.67868e-08
-2.24554e-06
2.35727e-08
-2.24801e-06
2.03497e-08
-2.24964e-06
1.7114e-08
-2.25045e-06
1.38642e-08
-2.25041e-06
1.06013e-08
-2.24953e-06
7.32809e-09
-2.24781e-06
4.04988e-09
-2.24524e-06
7.73746e-10
-2.24184e-06
-2.49117e-09
-2.23761e-06
-5.73405e-09
-2.23255e-06
-8.94236e-09
-2.22668e-06
-1.21034e-08
-2.22001e-06
-1.52016e-08
-2.21257e-06
-1.82213e-08
-2.20438e-06
-2.11475e-08
-2.19545e-06
-2.3966e-08
-2.18582e-06
-2.66616e-08
-2.17552e-06
-2.9219e-08
-2.16458e-06
-3.1624e-08
-2.15305e-06
-3.38631e-08
-2.14097e-06
-3.59239e-08
-2.12839e-06
-3.77951e-08
-2.11536e-06
-3.94672e-08
-2.10193e-06
-4.09325e-08
-2.08817e-06
-4.21855e-08
-2.07412e-06
-4.32231e-08
-2.05985e-06
-4.40451e-08
-2.04541e-06
-4.46546e-08
-2.03086e-06
-4.50578e-08
-2.01625e-06
-4.52643e-08
-2.00165e-06
-4.52872e-08
-1.98709e-06
-4.51429e-08
-1.97263e-06
-4.48511e-08
-1.9583e-06
-4.4434e-08
-1.94415e-06
-4.39167e-08
-1.9302e-06
-4.33265e-08
-1.91645e-06
-4.26949e-08
-1.90293e-06
-4.20584e-08
-1.88963e-06
-4.14606e-08
-1.87652e-06
-4.09516e-08
-1.86358e-06
-4.05863e-08
-1.85078e-06
-4.04225e-08
-1.83805e-06
-4.052e-08
-1.82534e-06
-4.09406e-08
-1.81255e-06
-4.17482e-08
-1.79958e-06
-4.30088e-08
-1.78631e-06
-4.47903e-08
-1.77261e-06
-4.71622e-08
-1.75832e-06
-5.01959e-08
-1.74327e-06
-5.39645e-08
-1.72726e-06
-5.85426e-08