/*--------------------------------*- C++ -*----------------------------------*\
  =========                 |
  \\      /  F ield         | OpenFOAM: The Open Source CFD Toolbox
   \\    /   O peration     | Website:  https://openfoam.org
    \\  /    A nd           | Version:  9
     \\/     M anipulation  |
\*---------------------------------------------------------------------------*/
FoamFile
{
    format      ascii;
    class       volVectorField;
    location    "0.06";
    object      U;
}
// * * * * * * * * * * * * * * * * * * * * * * * * * * * * * * * * * * * * * //

dimensions      [0 1 -1 0 0 0 0];

internalField   nonuniform List<vector> 
12225
(
(9.86107 -0.874318 0)
(9.67246 -0.700186 0)
(9.4589 -0.387579 0)
(9.2245 -0.188458 0)
(9.0032 -0.0843704 0)
(8.80995 -0.0328452 0)
(8.64446 -0.00750923 0)
(8.50321 0.00508037 0)
(8.3827 0.0114113 0)
(8.27939 0.0145749 0)
(8.18984 0.0161115 0)
(8.11113 0.0168455 0)
(8.04072 0.0172357 0)
(7.97666 0.0176183 0)
(7.91534 0.01819 0)
(7.85896 0.0203145 0)
(7.77806 0.0216597 0)
(7.74342 0.0365183 0)
(10.0547 0.263068 0)
(10.1201 0.360745 0)
(10.118 0.273836 0)
(10.0826 0.187118 0)
(10.0405 0.131202 0)
(9.99376 0.0969813 0)
(9.93984 0.0756309 0)
(9.87997 0.061849 0)
(9.81722 0.0524782 0)
(9.75407 0.0457111 0)
(9.69194 0.0406135 0)
(9.63162 0.0367403 0)
(9.57347 0.0338618 0)
(9.51791 0.0320212 0)
(9.46386 0.0311017 0)
(9.4155 0.0334597 0)
(9.36132 0.0334876 0)
(9.3391 0.0571767 0)
(9.9992 0.0460826 0)
(10.0244 0.034218 0)
(10.0538 0.0149748 0)
(10.0707 0.0218559 0)
(10.0777 0.0367358 0)
(10.0781 0.0460928 0)
(10.0719 0.0500599 0)
(10.0598 0.0512863 0)
(10.0433 0.0512414 0)
(10.0237 0.0505935 0)
(10.0019 0.0497243 0)
(9.97845 0.0488992 0)
(9.95379 0.048295 0)
(9.92836 0.0482156 0)
(9.90192 0.0487518 0)
(9.87614 0.0517171 0)
(9.8481 0.0543132 0)
(9.82342 0.0689089 0)
(9.9968 0.00642079 0)
(10.0085 0.0250271 0)
(10.0342 0.0389685 0)
(10.0527 0.0503545 0)
(10.0643 0.0571848 0)
(10.0729 0.0592705 0)
(10.0786 0.0589954 0)
(10.0811 0.0581235 0)
(10.0809 0.0571821 0)
(10.0786 0.0562555 0)
(10.0746 0.0554097 0)
(10.0692 0.0547544 0)
(10.0625 0.054413 0)
(10.0547 0.0546501 0)
(10.046 0.0556493 0)
(10.0371 0.0586113 0)
(10.0277 0.0623754 0)
(10.0194 0.072546 0)
(9.99923 0.00672882 0)
(10.0081 0.0335876 0)
(10.0271 0.0460867 0)
(10.0417 0.0509162 0)
(10.0523 0.0540158 0)
(10.062 0.0556408 0)
(10.0705 0.0560327 0)
(10.077 0.0559079 0)
(10.0816 0.055619 0)
(10.0848 0.0552672 0)
(10.0869 0.054942 0)
(10.088 0.0547728 0)
(10.0881 0.0549052 0)
(10.0875 0.0555791 0)
(10.0863 0.0570103 0)
(10.0851 0.0599018 0)
(10.0841 0.0637947 0)
(10.0847 0.0707741 0)
(10.0002 0.00906439 0)
(10.0078 0.0321435 0)
(10.0225 0.0419666 0)
(10.0349 0.0457549 0)
(10.0446 0.0492521 0)
(10.0539 0.0518325 0)
(10.0627 0.0530262 0)
(10.07 0.053449 0)
(10.076 0.0535836 0)
(10.081 0.0536051 0)
(10.0852 0.0536211 0)
(10.0887 0.0537643 0)
(10.0915 0.0541809 0)
(10.0937 0.0550714 0)
(10.0957 0.0566217 0)
(10.0979 0.0592098 0)
(10.1006 0.0626126 0)
(10.1049 0.0674487 0)
(10.0004 0.00878974 0)
(10.0068 0.0275418 0)
(10.0189 0.0371506 0)
(10.0302 0.0418497 0)
(10.0393 0.0458147 0)
(10.048 0.0486914 0)
(10.0563 0.0501658 0)
(10.0636 0.0508413 0)
(10.0699 0.0512121 0)
(10.0755 0.0514613 0)
(10.0805 0.0516918 0)
(10.0849 0.052027 0)
(10.0888 0.0526003 0)
(10.0924 0.0535681 0)
(10.0959 0.055064 0)
(10.0996 0.0572634 0)
(10.1041 0.0599955 0)
(10.1099 0.063262 0)
(10.0004 0.00782556 0)
(10.0057 0.0237238 0)
(10.016 0.03345 0)
(10.0263 0.0387165 0)
(10.035 0.0426631 0)
(10.0431 0.0455166 0)
(10.0509 0.0471438 0)
(10.058 0.0480164 0)
(10.0643 0.0485675 0)
(10.0701 0.0489813 0)
(10.0753 0.0493605 0)
(10.0801 0.0498176 0)
(10.0846 0.0504678 0)
(10.0888 0.0514252 0)
(10.0931 0.0527698 0)
(10.0977 0.0545524 0)
(10.1028 0.0565997 0)
(10.1091 0.058692 0)
(10.0004 0.00693836 0)
(10.0049 0.0207417 0)
(10.0136 0.0301293 0)
(10.0229 0.035551 0)
(10.0311 0.0393943 0)
(10.0387 0.0422221 0)
(10.0461 0.043994 0)
(10.053 0.0450416 0)
(10.0592 0.0457375 0)
(10.0649 0.0462735 0)
(10.0703 0.0467549 0)
(10.0753 0.0472818 0)
(10.08 0.0479488 0)
(10.0846 0.0488334 0)
(10.0893 0.0499711 0)
(10.0942 0.0513413 0)
(10.0997 0.052769 0)
(10.1059 0.0540002 0)
(10.0004 0.00615028 0)
(10.0042 0.0181608 0)
(10.0116 0.026905 0)
(10.0199 0.0323088 0)
(10.0276 0.0360832 0)
(10.0348 0.0388877 0)
(10.0418 0.0407604 0)
(10.0484 0.0419414 0)
(10.0545 0.0427478 0)
(10.0602 0.0433718 0)
(10.0655 0.0439189 0)
(10.0706 0.0444753 0)
(10.0755 0.0451153 0)
(10.0803 0.0458873 0)
(10.0852 0.0467955 0)
(10.0903 0.0477848 0)
(10.0957 0.048693 0)
(10.1017 0.0493055 0)
(10.0003 0.0054128 0)
(10.0036 0.0158421 0)
(10.0099 0.0238311 0)
(10.0172 0.0290989 0)
(10.0244 0.0327886 0)
(10.0312 0.035533 0)
(10.0379 0.0374462 0)
(10.0442 0.0387144 0)
(10.0502 0.0395995 0)
(10.0558 0.0402823 0)
(10.0611 0.0408644 0)
(10.0662 0.041419 0)
(10.0712 0.042002 0)
(10.0761 0.0426411 0)
(10.081 0.0433219 0)
(10.0861 0.0439792 0)
(10.0915 0.0444755 0)
(10.0971 0.0446555 0)
(10.0003 0.00475871 0)
(10.0032 0.0139022 0)
(10.0085 0.0211695 0)
(10.0152 0.0262107 0)
(10.0218 0.0297789 0)
(10.0283 0.0324342 0)
(10.0346 0.0343387 0)
(10.0408 0.0356483 0)
(10.0466 0.0365773 0)
(10.0521 0.0372894 0)
(10.0574 0.03788 0)
(10.0625 0.0384116 0)
(10.0674 0.0389262 0)
(10.0723 0.0394386 0)
(10.0773 0.0399271 0)
(10.0823 0.0403299 0)
(10.0875 0.0405366 0)
(10.0928 0.0404437 0)
(10.0003 0.00415233 0)
(10.0028 0.012137 0)
(10.0075 0.0186642 0)
(10.0134 0.0233876 0)
(10.0196 0.0267905 0)
(10.0257 0.0293313 0)
(10.0317 0.0311909 0)
(10.0376 0.0325069 0)
(10.0433 0.0334529 0)
(10.0487 0.0341717 0)
(10.0539 0.0347504 0)
(10.059 0.0352424 0)
(10.0639 0.0356794 0)
(10.0688 0.0360681 0)
(10.0737 0.0363858 0)
(10.0786 0.0365803 0)
(10.0835 0.036568 0)
(10.0885 0.0362898 0)
(10.0003 0.00352013 0)
(10.0024 0.0103009 0)
(10.0064 0.0159812 0)
(10.0117 0.0202557 0)
(10.0174 0.0234054 0)
(10.0231 0.0257725 0)
(10.0288 0.0275346 0)
(10.0344 0.0288133 0)
(10.0399 0.0297439 0)
(10.0452 0.0304434 0)
(10.0503 0.0309877 0)
(10.0553 0.0314214 0)
(10.0602 0.0317675 0)
(10.065 0.0320285 0)
(10.0697 0.0321849 0)
(10.0745 0.0321981 0)
(10.0792 0.0320112 0)
(10.0839 0.0316022 0)
(10.0002 0.0028613 0)
(10.002 0.00839195 0)
(10.0055 0.0131292 0)
(10.0101 0.0168194 0)
(10.0153 0.0196055 0)
(10.0206 0.0217201 0)
(10.0259 0.0233163 0)
(10.0313 0.0244978 0)
(10.0365 0.0253655 0)
(10.0417 0.0260089 0)
(10.0467 0.0264896 0)
(10.0515 0.0268433 0)
(10.0563 0.0270871 0)
(10.061 0.0272223 0)
(10.0656 0.0272357 0)
(10.0702 0.0271039 0)
(10.0746 0.0267936 0)
(10.079 0.0263096 0)
(10.0002 0.00217586 0)
(10.0017 0.0064104 0)
(10.0047 0.0101115 0)
(10.0088 0.0130772 0)
(10.0134 0.0153698 0)
(10.0183 0.0171314 0)
(10.0233 0.0184761 0)
(10.0284 0.0194843 0)
(10.0334 0.0202273 0)
(10.0383 0.0207674 0)
(10.0432 0.02115 0)
(10.0479 0.0214021 0)
(10.0526 0.0215366 0)
(10.0571 0.0215555 0)
(10.0615 0.021453 0)
(10.0658 0.0212186 0)
(10.07 0.020837 0)
(10.0741 0.0203288 0)
(10.0002 0.0014608 0)
(10.0015 0.00433938 0)
(10.0041 0.006904 0)
(10.0077 0.00900246 0)
(10.0119 0.0106581 0)
(10.0164 0.0119471 0)
(10.0211 0.012939 0)
(10.0259 0.0136863 0)
(10.0307 0.0142327 0)
(10.0354 0.0146161 0)
(10.0401 0.0148648 0)
(10.0446 0.0149964 0)
(10.0491 0.0150199 0)
(10.0535 0.0149382 0)
(10.0577 0.0147507 0)
(10.0618 0.0144555 0)
(10.0657 0.0140482 0)
(10.0695 0.0135555 0)
(10.0001 0.0006987 0)
(10.0013 0.00212256 0)
(10.0037 0.00342534 0)
(10.0069 0.00450378 0)
(10.0108 0.0053681 0)
(10.0151 0.00604887 0)
(10.0195 0.00657346 0)
(10.0241 0.00696303 0)
(10.0287 0.00723542 0)
(10.0332 0.00740567 0)
(10.0377 0.00748476 0)
(10.0421 0.00747936 0)
(10.0464 0.00739297 0)
(10.0506 0.00722726 0)
(10.0546 0.00698309 0)
(10.0585 0.00666209 0)
(10.0622 0.00626429 0)
(10.0657 0.00581551 0)
(10.0001 -0.000156849 0)
(10.0013 -0.000372655 0)
(10.0035 -0.000516165 0)
(10.0067 -0.000634204 0)
(10.0105 -0.000717531 0)
(10.0146 -0.000774801 0)
(10.0189 -0.000823295 0)
(10.0234 -0.000876099 0)
(10.0278 -0.000941865 0)
(10.0323 -0.00102844 0)
(10.0367 -0.00114344 0)
(10.0409 -0.00129328 0)
(10.0451 -0.00148271 0)
(10.0491 -0.00171498 0)
(10.0529 -0.00199189 0)
(10.0566 -0.00231326 0)
(10.0602 -0.00267949 0)
(10.0635 -0.00307065 0)
(10.0001 -0.000979343 0)
(10.0014 -0.00277796 0)
(10.0038 -0.00432623 0)
(10.0071 -0.00559345 0)
(10.0111 -0.00656768 0)
(10.0154 -0.00730611 0)
(10.0199 -0.00787413 0)
(10.0244 -0.00831635 0)
(10.0289 -0.00866725 0)
(10.0334 -0.00895923 0)
(10.0377 -0.00921951 0)
(10.042 -0.00946753 0)
(10.046 -0.00971664 0)
(10.05 -0.00997624 0)
(10.0537 -0.0102527 0)
(10.0574 -0.0105495 0)
(10.0608 -0.0108694 0)
(10.0641 -0.0111987 0)
(10.0002 -0.00169155 0)
(10.0015 -0.00488572 0)
(10.0042 -0.00766577 0)
(10.008 -0.00987193 0)
(10.0123 -0.0115149 0)
(10.0169 -0.0127478 0)
(10.0216 -0.0136869 0)
(10.0263 -0.0143913 0)
(10.031 -0.0149149 0)
(10.0355 -0.0153171 0)
(10.0399 -0.0156452 0)
(10.0442 -0.01593 0)
(10.0483 -0.0161916 0)
(10.0522 -0.0164445 0)
(10.0559 -0.0166985 0)
(10.0595 -0.0169596 0)
(10.0629 -0.0172322 0)
(10.0662 -0.0175066 0)
(10.0002 -0.00237167 0)
(10.0017 -0.00697822 0)
(10.0049 -0.0110171 0)
(10.0092 -0.0140662 0)
(10.0141 -0.0162155 0)
(10.0191 -0.0177995 0)
(10.0241 -0.0189975 0)
(10.0291 -0.0198734 0)
(10.0339 -0.0204991 0)
(10.0386 -0.0209575 0)
(10.0431 -0.0213101 0)
(10.0474 -0.0215957 0)
(10.0515 -0.0218406 0)
(10.0554 -0.0220643 0)
(10.0591 -0.0222802 0)
(10.0627 -0.022496 0)
(10.0661 -0.0227169 0)
(10.0693 -0.0229361 0)
(10.0002 -0.00300547 0)
(10.0018 -0.00909049 0)
(10.0056 -0.0144128 0)
(10.0109 -0.0182158 0)
(10.0164 -0.020799 0)
(10.0218 -0.0226601 0)
(10.0271 -0.0239929 0)
(10.0324 -0.0249028 0)
(10.0374 -0.0255274 0)
(10.0423 -0.0259781 0)
(10.0468 -0.0263155 0)
(10.0512 -0.0265746 0)
(10.0554 -0.0267844 0)
(10.0593 -0.0269678 0)
(10.063 -0.0271397 0)
(10.0666 -0.0273085 0)
(10.0699 -0.0274794 0)
(10.0731 -0.0276477 0)
(10.0001 -0.00357983 0)
(10.0019 -0.0115243 0)
(10.0065 -0.0178786 0)
(10.0127 -0.0219727 0)
(10.019 -0.024927 0)
(10.0249 -0.0272006 0)
(10.0306 -0.0287176 0)
(10.0361 -0.029607 0)
(10.0414 -0.0301457 0)
(10.0463 -0.0305118 0)
(10.051 -0.0307715 0)
(10.0554 -0.0309569 0)
(10.0596 -0.0310977 0)
(10.0636 -0.0312174 0)
(10.0673 -0.0313298 0)
(10.0708 -0.0314419 0)
(10.0741 -0.031557 0)
(10.0773 -0.0316698 0)
(9.99996 -0.0036984 0)
(10.0018 -0.015171 0)
(10.0076 -0.0226123 0)
(10.0148 -0.0259177 0)
(10.0215 -0.0284589 0)
(10.0278 -0.0309007 0)
(10.0341 -0.03266 0)
(10.0402 -0.0336813 0)
(10.0457 -0.0342656 0)
(10.0508 -0.0346219 0)
(10.0556 -0.0348336 0)
(10.0601 -0.0349498 0)
(10.0643 -0.0350126 0)
(10.0681 -0.0350517 0)
(10.0717 -0.0350837 0)
(10.0751 -0.0351169 0)
(10.0782 -0.0351548 0)
(10.0811 -0.035194 0)
(9.99897 -0.0013163 0)
(9.99999 -0.0179679 0)
(10.0085 -0.0290406 0)
(10.0174 -0.0326459 0)
(10.0245 -0.0340529 0)
(10.0313 -0.0352634 0)
(10.0383 -0.0361955 0)
(10.045 -0.036824 0)
(10.051 -0.0372615 0)
(10.0562 -0.0375484 0)
(10.0609 -0.0376992 0)
(10.0651 -0.0377501 0)
(10.0689 -0.0377424 0)
(10.0722 -0.0377056 0)
(10.0752 -0.0376581 0)
(10.0778 -0.0376111 0)
(10.0801 -0.0375682 0)
(10.0821 -0.0375278 0)
(9.99527 0.00386338 0)
(9.99333 -0.0103098 0)
(10.007 -0.0270871 0)
(10.0212 -0.0388957 0)
(10.0311 -0.0448202 0)
(10.0392 -0.0464142 0)
(10.0467 -0.0459191 0)
(10.0531 -0.0449514 0)
(10.0583 -0.0440662 0)
(10.0623 -0.0432846 0)
(10.0655 -0.0425632 0)
(10.0678 -0.0418992 0)
(10.0695 -0.041299 0)
(10.0705 -0.0407624 0)
(10.0709 -0.0402869 0)
(10.071 -0.0398716 0)
(10.0706 -0.0395072 0)
(10.07 -0.0391662 0)
(9.99144 -0.0172972 0)
(9.99188 0.000367379 0)
(10.01 0.0176771 0)
(10.0296 0.0116093 0)
(10.0442 -0.00507727 0)
(10.0542 -0.0187853 0)
(10.0601 -0.0271253 0)
(10.0624 -0.0319967 0)
(10.0619 -0.034873 0)
(10.0593 -0.0364737 0)
(10.0552 -0.0372464 0)
(10.0499 -0.0375163 0)
(10.0436 -0.0374964 0)
(10.0366 -0.0373162 0)
(10.029 -0.0370595 0)
(10.0212 -0.0367873 0)
(10.0131 -0.0365556 0)
(10.005 -0.0363328 0)
(10.0235 -0.206009 0)
(10.0684 -0.312336 0)
(10.0788 -0.255583 0)
(10.0704 -0.184162 0)
(10.0606 -0.134881 0)
(10.0499 -0.102702 0)
(10.0343 -0.0811374 0)
(10.013 -0.0665876 0)
(9.98796 -0.0565929 0)
(9.96077 -0.0494346 0)
(9.93261 -0.0440751 0)
(9.90416 -0.039925 0)
(9.87592 -0.0366259 0)
(9.84822 -0.0339451 0)
(9.82129 -0.0317347 0)
(9.79527 -0.0299311 0)
(9.77039 -0.0285041 0)
(9.74666 -0.0277706 0)
(9.94226 0.671595 0)
(9.87996 0.567458 0)
(9.77447 0.338474 0)
(9.63243 0.183329 0)
(9.48774 0.0949164 0)
(9.35667 0.047095 0)
(9.24116 0.0213124 0)
(9.13971 0.0070929 0)
(9.05083 -0.000964748 0)
(8.9729 -0.00560448 0)
(8.9042 -0.00829239 0)
(8.84318 -0.00985359 0)
(8.78861 -0.0107583 0)
(8.73949 -0.0112752 0)
(8.695 -0.0115653 0)
(8.65443 -0.0117531 0)
(8.61693 -0.0119325 0)
(8.58212 -0.0124649 0)
(0.00473596 0.0138393 -3.50245e-20)
(0.0359144 -0.0298666 2.98294e-20)
(0.0788954 -0.0699367 0)
(0.141162 -0.102639 0)
(0.220678 -0.125491 0)
(0.301411 -0.129701 -2.96337e-20)
(0.380052 -0.11784 0)
(0.44668 -0.10403 0)
(0.505728 -0.0895364 0)
(0.555377 -0.0743491 0)
(0.59352 -0.0585418 2.66187e-20)
(0.61983 -0.0421423 0)
(0.634229 -0.0151975 0)
(0.629952 0.0213582 0)
(0.60849 0.0407985 0)
(0.574393 0.0548517 2.50492e-20)
(0.528006 0.0727457 0)
(0.467877 0.0873153 0)
(0.406829 0.0846239 0)
(0.346148 0.0712872 0)
(0.283083 0.0640052 0)
(0.231953 0.0459652 0)
(0.183328 0.033175 0)
(0.135063 0.0322819 2.78331e-20)
(0.085405 0.0364223 -2.80364e-20)
(0.0250561 0.0471102 2.82717e-20)
(-0.043224 0.0582319 2.78833e-20)
(-0.124918 0.0717938 0)
(-0.220205 0.08765 0)
(-0.328927 0.104239 -2.48152e-20)
(-0.449498 0.119363 -2.3844e-20)
(-0.579104 0.131113 0)
(-0.714236 0.138441 0)
(-0.851261 0.141146 -2.14488e-20)
(-0.986834 0.139634 0)
(-1.11815 0.134664 0)
(-1.24307 0.127144 1.99238e-20)
(-1.36011 0.117972 0)
(-1.46842 0.107946 1.92676e-20)
(-1.56767 0.0977063 3.80212e-20)
(-1.65794 0.0877306 0)
(-1.7396 0.0783401 0)
(-1.81323 0.0697258 0)
(-1.87951 0.0619772 0)
(-1.93919 0.0551099 0)
(-1.99299 0.0490909 3.58859e-20)
(-2.04161 0.0438571 3.55973e-20)
(-2.08569 0.0393306 3.53131e-20)
(-2.12581 0.0354282 0)
(-2.16249 0.0320683 -3.47475e-20)
(-2.19618 0.0291746 0)
(-2.22727 0.0266781 3.41733e-20)
(-2.25609 0.0245177 3.38797e-20)
(-2.28292 0.0226404 0)
(-2.308 0.0210003 0)
(-2.33153 0.0195586 0)
(-2.35369 0.0182819 3.26451e-20)
(-2.37462 0.0171423 0)
(-2.39443 0.016116 0)
(-2.41321 0.0151831 0)
(-2.43105 0.0143267 0)
(-2.44801 0.0135326 0)
(-2.46413 0.0127891 0)
(-2.47947 0.0120862 0)
(-2.49403 0.0114157 0)
(-2.50786 0.0107707 -2.94073e-20)
(-2.52096 0.0101458 0)
(-2.53334 0.00953634 0)
(-2.545 0.0089389 2.81642e-20)
(-2.55596 0.00835072 2.77303e-20)
(-2.5662 0.0077698 0)
(-2.57573 0.00719474 -2.68331e-20)
(-2.58454 0.00662469 2.63696e-20)
(-2.59262 0.00605919 0)
(-2.59997 0.00549807 -2.54131e-20)
(-2.60659 0.00494126 0)
(-2.61247 0.00438891 0)
(-2.61762 0.00384136 2.39061e-20)
(-2.62201 0.00329537 0)
(-2.62565 0.00274264 -2.28555e-20)
(-2.62853 0.00218155 0)
(-2.63059 0.00161561 2.17718e-20)
(-2.63181 0.00107547 2.12171e-20)
(-2.63233 0.000623117 2.06557e-20)
(-2.63222 0.000237889 4.01757e-20)
(-2.63151 -0.00010179 -3.90281e-20)
(-2.63025 -0.000404885 0)
(-2.62849 -0.000673433 0)
(-2.62627 -0.000908222 0)
(-2.62362 -0.00111084 -3.43452e-20)
(-2.6206 -0.00128219 -3.31585e-20)
(-2.61725 -0.00142216 3.19686e-20)
(-2.61361 -0.00153117 0)
(-2.60973 -0.00161046 -2.95856e-20)
(-2.60566 -0.00166176 -2.83959e-20)
(-2.60143 -0.00168742 -2.72094e-20)
(-2.59711 -0.00169041 0)
(-2.59271 -0.00167439 0)
(-2.58829 -0.00164375 0)
(-2.58386 -0.00160373 -2.25277e-20)
(-2.57946 -0.00156029 0)
(-2.5751 -0.00151932 0)
(-2.57079 -0.00148422 1.91193e-20)
(-2.56654 -0.00145347 0)
(-2.56236 -0.00142248 0)
(-2.55824 -0.00139132 1.58223e-20)
(-2.5542 -0.0013699 0)
(-2.5502 -0.00137279 0)
(-2.54622 -0.00141094 -1.26363e-20)
(-2.54221 -0.00149114 -1.15954e-20)
(-2.53809 -0.00161998 0)
(-2.53379 -0.00180486 9.5357e-21)
(-2.52922 -0.00205295 0)
(-2.52425 -0.00237131 -7.48904e-21)
(-2.51876 -0.00276714 0)
(-2.5126 -0.00324772 -5.42937e-21)
(-2.50563 -0.00382043 -4.38441e-21)
(-2.49765 -0.00449273 0)
(-2.48847 -0.00527218 0)
(-2.47788 -0.00616643 0)
(-2.46564 -0.00718314 0)
(-2.4515 -0.00832997 0)
(-2.43518 -0.00961457 0)
(-2.4164 -0.0110446 0)
(-2.39484 -0.0126276 5.10092e-21)
(-2.37017 -0.0143711 -6.53837e-21)
(-2.34204 -0.016283 0)
(-2.31008 -0.0183709 0)
(-2.2739 -0.0206428 0)
(-2.23309 -0.0231068 0)
(-2.18722 -0.0257707 -3.04556e-20)
(-2.13585 -0.0286418 0)
(-2.07852 -0.0317268 3.9242e-20)
(-2.01475 -0.0350323 -4.41294e-20)
(-1.94405 -0.0385642 0)
(-1.86594 -0.0423274 0)
(-1.7799 -0.0463248 0)
(-1.68545 -0.0505569 6.76064e-20)
(-1.58209 -0.0550227 7.45948e-20)
(-1.46934 -0.0597175 0)
(-1.34675 -0.0646302 9.01008e-20)
(-1.21391 -0.0697437 9.86666e-20)
(-1.07044 -0.0750305 -1.07803e-19)
(-0.916044 -0.08045 0)
(-0.750555 -0.0859276 0)
(-0.573934 -0.0913099 -1.38795e-19)
(-0.386301 -0.0963113 0)
(-0.188011 -0.100532 0)
(0.0205562 -0.103473 0)
(0.239328 -0.105301 0)
(0.467303 -0.106426 1.77276e-19)
(0.703448 -0.106919 1.79033e-19)
(0.946439 -0.10674 0)
(1.19474 -0.105851 1.80512e-19)
(1.44661 -0.104227 0)
(1.7001 -0.101857 0)
(1.95313 -0.0987486 1.77959e-19)
(2.20351 -0.0949273 0)
(2.449 -0.0904363 1.73635e-19)
(2.68738 -0.0853345 0)
(2.91649 -0.0796937 0)
(3.13428 -0.0735952 1.64686e-19)
(3.33886 -0.0671266 0)
(3.52854 -0.0603787 1.58071e-19)
(3.70185 -0.0534376 0)
(3.85752 -0.0463716 0)
(3.9945 -0.0392422 0)
(4.11194 -0.0322204 -1.46157e-19)
(4.20943 -0.0255561 0)
(4.28699 -0.0183717 1.41895e-19)
(4.3417 -0.00765297 0)
(4.36031 0.00572355 0)
(4.34163 0.0180736 0)
(4.29252 0.0276494 0)
(4.21787 0.0347081 0)
(4.11981 0.0403234 0)
(3.99925 0.0460624 0)
(3.84604 0.0532481 -2.88544e-19)
(3.67169 0.0691264 0)
(3.34599 0.081933 0)
(0.0429756 -0.0822207 1.04229e-19)
(0.109853 -0.149331 -8.90472e-20)
(0.182152 -0.184979 0)
(0.250971 -0.208495 4.95196e-20)
(0.310336 -0.21729 0)
(0.36018 -0.213395 2.22729e-20)
(0.402548 -0.196846 -4.35856e-20)
(0.438901 -0.172266 -4.27125e-20)
(0.468921 -0.1436 0)
(0.491729 -0.11263 -4.18794e-20)
(0.506766 -0.0800996 -2.07743e-20)
(0.513671 -0.0462801 0)
(0.512797 -0.0109581 0)
(0.507273 0.0255881 0)
(0.496524 0.0620181 0)
(0.476191 0.0968484 -2.11017e-20)
(0.446048 0.126362 0)
(0.405976 0.148655 4.24675e-20)
(0.355887 0.160723 0)
(0.294243 0.166768 0)
(0.223561 0.163332 -4.22837e-20)
(0.144895 0.157982 0)
(0.0565362 0.158164 4.3174e-20)
(-0.0383622 0.165322 -2.13679e-20)
(-0.141172 0.182876 2.05235e-20)
(-0.252418 0.207165 -1.96679e-20)
(-0.372487 0.235562 -1.88801e-20)
(-0.500941 0.265427 0)
(-0.635384 0.293355 0)
(-0.772529 0.316155 1.67975e-20)
(-0.908787 0.331421 -1.60388e-20)
(-1.04083 0.337988 0)
(-1.16599 0.335965 0)
(-1.28238 0.326406 1.48597e-20)
(-1.38899 0.3109 0)
(-1.4855 0.291211 0)
(-1.57215 0.269016 -1.40395e-20)
(-1.64957 0.245758 0)
(-1.71862 0.222579 1.3665e-20)
(-1.78025 0.200307 -2.70435e-20)
(-1.83537 0.179493 0)
(-1.88487 0.16045 0)
(-1.92954 0.143311 -5.24496e-20)
(-1.97003 0.128081 -5.19722e-20)
(-2.00694 0.114672 -5.15125e-20)
(-2.04076 0.102948 2.54703e-20)
(-2.07187 0.0927412 -2.538e-20)
(-2.10064 0.0838788 -7.53641e-20)
(-2.12733 0.0761898 4.97705e-20)
(-2.1522 0.0695145 2.47405e-20)
(-2.17544 0.0637077 0)
(-2.19722 0.0586404 -2.4311e-20)
(-2.21769 0.0541998 2.39644e-20)
(-2.23697 0.0502881 0)
(-2.25515 0.0468212 0)
(-2.27233 0.0437274 0)
(-2.28858 0.0409453 -2.31901e-20)
(-2.30395 0.0384229 0)
(-2.31849 0.0361162 4.53273e-20)
(-2.33225 0.0339876 0)
(-2.34526 0.0320057 4.43443e-20)
(-2.35753 0.0301438 0)
(-2.36909 0.0283795 -4.33161e-20)
(-2.37994 0.026694 0)
(-2.39011 0.0250718 4.22389e-20)
(-2.39958 0.0235 -2.08106e-20)
(-2.40837 0.0219684 0)
(-2.41646 0.0204684 -4.05239e-20)
(-2.42387 0.0189938 -1.99833e-20)
(-2.43058 0.0175396 -1.96737e-20)
(-2.43659 0.0161026 0)
(-2.44189 0.0146806 -1.90083e-20)
(-2.44649 0.0132726 -1.87017e-20)
(-2.45037 0.0118787 0)
(-2.45353 0.0104995 1.80179e-20)
(-2.45598 0.00913651 -3.53283e-20)
(-2.45771 0.00779154 0)
(-2.45872 0.00646644 -1.69396e-20)
(-2.45905 0.0051649 0)
(-2.45869 0.00389216 4.85749e-20)
(-2.45767 0.00264056 0)
(-2.45608 0.00141446 -4.62497e-20)
(-2.45396 0.000241776 -1.50122e-20)
(-2.45124 -0.000836537 1.46428e-20)
(-2.44793 -0.00182269 2.8483e-20)
(-2.44403 -0.00272673 -2.76723e-20)
(-2.43959 -0.00355301 0)
(-2.43463 -0.00430248 0)
(-2.42918 -0.00497453 0)
(-2.42329 -0.00556839 7.29202e-20)
(-2.41701 -0.00608355 2.34376e-20)
(-2.41037 -0.00651986 -2.25975e-20)
(-2.40343 -0.00687779 0)
(-2.39624 -0.00715881 -2.10133e-20)
(-2.38884 -0.00736545 2.00809e-20)
(-2.38129 -0.00750144 1.9247e-20)
(-2.37363 -0.00757176 0)
(-2.36591 -0.00758271 0)
(-2.35817 -0.00754191 0)
(-2.35046 -0.0074581 1.59621e-20)
(-2.34281 -0.0073407 0)
(-2.33526 -0.00719894 -2.88039e-20)
(-2.32783 -0.00704099 -4.0799e-20)
(-2.32054 -0.00687324 2.5665e-20)
(-2.3134 -0.00670084 0)
(-2.30643 -0.00653109 1.13358e-20)
(-2.29961 -0.00637763 0)
(-2.29292 -0.00626043 1.95953e-20)
(-2.28633 -0.00620075 -9.09804e-21)
(-2.27981 -0.00621751 -8.36746e-21)
(-2.27328 -0.00632795 0)
(-2.26668 -0.00654911 -2.05813e-20)
(-2.25993 -0.00689787 1.23088e-20)
(-2.2529 -0.00739099 5.37603e-21)
(-2.24548 -0.00804526 0)
(-2.23753 -0.00887744 3.90667e-21)
(-2.2289 -0.00990431 9.63423e-21)
(-2.2194 -0.0111426 0)
(-2.20884 -0.0126091 3.43661e-21)
(-2.19701 -0.0143203 1.85969e-21)
(-2.18368 -0.0162926 2.32454e-22)
(-2.16858 -0.0185421 0)
(-2.15145 -0.0210845 0)
(-2.13199 -0.0239349 0)
(-2.10989 -0.0271076 3.28896e-21)
(-2.0848 -0.0306165 4.74691e-21)
(-2.05639 -0.0344743 0)
(-2.02426 -0.0386933 1.34967e-20)
(-1.98803 -0.0432854 1.5945e-20)
(-1.94729 -0.0482616 0)
(-1.9016 -0.0536314 2.21088e-20)
(-1.85051 -0.0594021 4.86756e-20)
(-1.79356 -0.0655786 -2.84444e-20)
(-1.73028 -0.0721633 -2.99724e-20)
(-1.66018 -0.0791563 0)
(-1.58275 -0.086555 0)
(-1.49752 -0.0943512 0)
(-1.40398 -0.10253 -4.8586e-20)
(-1.30164 -0.111071 5.05463e-20)
(-1.19004 -0.119949 1.14182e-19)
(-1.06873 -0.129123 -6.41674e-20)
(-0.937312 -0.138547 6.64364e-20)
(-0.795425 -0.148156 7.61741e-20)
(-0.642781 -0.157878 0)
(-0.479186 -0.167615 0)
(-0.304547 -0.177241 -9.2233e-20)
(-0.118879 -0.186582 0)
(0.0777903 -0.195394 0)
(0.285293 -0.203269 2.2251e-19)
(0.502864 -0.210023 0)
(0.729725 -0.215631 1.15998e-19)
(0.964974 -0.219999 -1.23668e-19)
(1.20739 -0.22297 0)
(1.45552 -0.224394 1.23936e-19)
(1.70768 -0.224147 0)
(1.96202 -0.222138 0)
(2.21651 -0.218322 -1.31964e-19)
(2.46905 -0.212701 2.61083e-19)
(2.7175 -0.205324 -1.32307e-19)
(2.95971 -0.196286 0)
(3.1936 -0.185721 0)
(3.41722 -0.173795 1.27877e-19)
(3.62875 -0.160699 0)
(3.8266 -0.146641 1.26141e-19)
(4.00935 -0.131827 0)
(4.17585 -0.116458 0)
(4.32516 -0.100725 0)
(4.4566 -0.0848484 1.23455e-19)
(4.56957 -0.0689744 0)
(4.66324 -0.0524742 -1.21928e-19)
(4.73841 -0.0335422 0)
(4.80387 -0.0129386 0)
(4.8594 0.00690732 2.41827e-19)
(4.89848 0.0248923 -2.41685e-19)
(4.91766 0.0412592 0)
(4.91502 0.0569849 0)
(4.89077 0.0740536 0)
(4.83925 0.0941489 7.45328e-19)
(4.77296 0.128516 0)
(4.64022 0.167966 -5.12146e-19)
(0.0498066 -0.26385 4.02286e-22)
(0.115882 -0.347965 1.11923e-19)
(0.180983 -0.357084 0)
(0.236762 -0.345421 -8.95051e-20)
(0.280641 -0.323296 0)
(0.31415 -0.293696 0)
(0.339626 -0.258357 -2.5425e-22)
(0.358708 -0.219077 3.69996e-20)
(0.371958 -0.17716 3.66058e-20)
(0.37938 -0.133344 3.60682e-20)
(0.380824 -0.0880226 0)
(0.376129 -0.0414028 0)
(0.365289 0.00648898 -3.64804e-20)
(0.348599 0.055324 -7.31416e-20)
(0.326088 0.104187 7.352e-20)
(0.29739 0.152151 0)
(0.262091 0.197452 7.46616e-20)
(0.219301 0.237205 -3.74552e-20)
(0.167766 0.26861 0)
(0.105857 0.291563 7.55413e-20)
(0.0328189 0.307461 3.76587e-20)
(-0.0521053 0.320461 -7.36739e-20)
(-0.148483 0.33618 -3.52185e-20)
(-0.254559 0.35822 0)
(-0.368528 0.387413 6.42353e-20)
(-0.487974 0.421264 6.15057e-20)
(-0.610429 0.456047 0)
(-0.732898 0.487456 5.68104e-20)
(-0.852182 0.511489 0)
(-0.96548 0.525308 5.29813e-20)
(-1.07083 0.527636 2.55052e-20)
(-1.16724 0.518748 0)
(-1.25462 0.500124 0)
(-1.33349 0.473935 0)
(-1.4047 0.442578 0)
(-1.46923 0.408315 0)
(-1.52804 0.373074 0)
(-1.58195 0.338354 4.37702e-20)
(-1.63165 0.305227 -6.4511e-20)
(-1.67767 0.274381 0)
(-1.72043 0.246188 0)
(-1.76026 0.220785 0)
(-1.79741 0.198142 1.45137e-23)
(-1.8321 0.178115 4.02592e-20)
(-1.86452 0.160501 7.95696e-20)
(-1.89482 0.145062 -7.86978e-20)
(-1.92317 0.131555 -3.88909e-20)
(-1.94971 0.119743 3.85636e-20)
(-1.97457 0.109403 -8.56665e-23)
(-1.99787 0.100335 3.76938e-20)
(-2.01974 0.0923592 0)
(-2.04029 0.0853165 3.69324e-20)
(-2.0596 0.0790688 -8.39815e-23)
(-2.07778 0.0734959 0)
(-2.09489 0.0684943 0)
(-2.11101 0.0639746 -3.54299e-20)
(-2.12619 0.05986 0)
(-2.14049 0.0560849 0)
(-2.15396 0.0525929 3.42166e-20)
(-2.16662 0.0493358 6.77741e-20)
(-2.1785 0.0462729 -3.35431e-20)
(-2.18963 0.0433693 0)
(-2.20002 0.0405958 3.27158e-20)
(-2.20969 0.0379278 0)
(-2.21864 0.0353448 3.17808e-20)
(-2.22687 0.0328302 3.14148e-20)
(-2.2344 0.0303703 -6.18673e-20)
(-2.24122 0.0279545 -3.04515e-20)
(-2.24732 0.0255749 0)
(-2.2527 0.0232255 5.90684e-20)
(-2.25735 0.0209026 0)
(-2.26128 0.0186045 8.56624e-20)
(-2.26448 0.0163309 5.60882e-20)
(-2.26693 0.0140831 5.50537e-20)
(-2.26865 0.0118638 -5.39987e-20)
(-2.26962 0.0096773 7.9379e-20)
(-2.26986 0.00752875 0)
(-2.26936 0.00542322 0)
(-2.26813 0.00336694 -4.95697e-20)
(-2.26618 0.00137254 -7.25983e-20)
(-2.26355 -0.000552462 0)
(-2.26023 -0.00239661 2.30018e-20)
(-2.25626 -0.00414698 0)
(-2.25163 -0.00580341 -6.54356e-20)
(-2.24638 -0.0073568 6.27315e-23)
(-2.24051 -0.00879936 -6.62385e-23)
(-2.23407 -0.010126 3.99506e-20)
(-2.22708 -0.011332 0)
(-2.21958 -0.0124134 -3.7451e-20)
(-2.21161 -0.0133671 7.53004e-23)
(-2.20323 -0.0141909 0)
(-2.19446 -0.0148838 0)
(-2.18537 -0.015446 0)
(-2.17601 -0.0158792 3.10856e-20)
(-2.16642 -0.0161871 0)
(-2.15667 -0.016375 0)
(-2.14679 -0.0164501 0)
(-2.13684 -0.0164216 0)
(-2.12687 -0.0163002 0)
(-2.11692 -0.0160984 2.37725e-20)
(-2.10704 -0.0158298 0)
(-2.09727 -0.0155087 2.13283e-20)
(-2.08764 -0.0151487 2.01611e-20)
(-2.07817 -0.0147637 -1.90077e-20)
(-2.06888 -0.0143678 0)
(-2.05978 -0.0139787 -1.67417e-20)
(-2.05087 -0.0136196 0)
(-2.04213 -0.0133185 -1.45271e-20)
(-2.03353 -0.013105 1.34368e-20)
(-2.02504 -0.0130082 3.72188e-20)
(-2.01662 -0.0130564 0)
(-2.00818 -0.0132776 3.08152e-20)
(-1.99966 -0.0136997 9.33784e-21)
(-1.99095 -0.0143508 0)
(-1.98193 -0.0152587 1.42435e-20)
(-1.97249 -0.0164512 1.21042e-20)
(-1.96247 -0.0179561 -1.47641e-20)
(-1.95169 -0.019801 0)
(-1.93998 -0.0220133 -2.56366e-21)
(-1.92712 -0.0246201 -1.38827e-21)
(-1.9129 -0.0276481 -9.80027e-22)
(-1.89706 -0.0311233 0)
(-1.87934 -0.035071 0)
(-1.85944 -0.0395154 0)
(-1.83707 -0.0444794 4.52861e-21)
(-1.8119 -0.0499846 0)
(-1.78357 -0.056051 0)
(-1.75172 -0.0626967 -1.01264e-20)
(-1.71596 -0.0699391 -1.19689e-20)
(-1.67588 -0.0777935 0)
(-1.63107 -0.0862728 0)
(-1.58107 -0.095386 -3.65739e-20)
(-1.52543 -0.105138 0)
(-1.46368 -0.115527 4.65396e-20)
(-1.39534 -0.126549 5.03161e-20)
(-1.31992 -0.138195 0)
(-1.23693 -0.150446 0)
(-1.14588 -0.163271 -6.87861e-20)
(-1.04628 -0.176631 -2.30345e-21)
(-0.937682 -0.190477 -2.45582e-21)
(-0.819629 -0.204737 0)
(-0.691716 -0.219326 -2.01651e-19)
(-0.553588 -0.234138 0)
(-0.404939 -0.249044 0)
(-0.245559 -0.263885 0)
(-0.0753072 -0.278494 1.40395e-19)
(0.105888 -0.292689 0)
(0.298026 -0.306248 -3.05235e-19)
(0.500767 -0.318903 -1.63225e-19)
(0.713505 -0.330336 0)
(0.935487 -0.3402 -1.76415e-19)
(1.16578 -0.348198 0)
(1.4032 -0.354045 0)
(1.64632 -0.357479 -5.71536e-19)
(1.89353 -0.358281 3.87671e-19)
(2.14299 -0.35629 0)
(2.39277 -0.351411 4.01873e-19)
(2.64081 -0.343626 -2.06382e-19)
(2.88501 -0.332993 0)
(3.1233 -0.319646 0)
(3.35364 -0.303784 0)
(3.57414 -0.285663 -6.29437e-19)
(3.78306 -0.26558 0)
(3.97884 -0.24386 -2.11334e-19)
(4.16014 -0.220837 0)
(4.32587 -0.196844 0)
(4.47518 -0.172202 0)
(4.60745 -0.147209 0)
(4.72222 -0.122026 0)
(4.81921 -0.096582 0)
(4.89901 -0.0709326 -4.22313e-19)
(4.96394 -0.0450934 0)
(5.01568 -0.019241 -2.14814e-19)
(5.05396 0.00613638 6.46923e-19)
(5.07779 0.0309037 0)
(5.08605 0.0555665 0)
(5.0786 0.0819205 -4.43396e-19)
(5.05262 0.112024 -4.51502e-19)
(5.01505 0.155661 4.56782e-19)
(4.95227 0.213172 4.67591e-19)
(0.0429058 -0.413796 -1.92234e-19)
(0.094558 -0.477699 -1.60038e-19)
(0.137776 -0.458869 -9.3415e-20)
(0.173764 -0.424606 -4.24627e-20)
(0.201797 -0.384007 0)
(0.222581 -0.339144 7.37884e-20)
(0.237131 -0.290882 -3.55969e-20)
(0.246133 -0.239893 0)
(0.249881 -0.186703 -3.35811e-20)
(0.248417 -0.131683 0)
(0.241655 -0.0751093 6.65787e-20)
(0.229466 -0.0172151 0)
(0.211731 0.0417493 3.33304e-20)
(0.18835 0.101428 6.68577e-20)
(0.159195 0.161252 -6.73252e-20)
(0.124118 0.220379 0)
(0.0828471 0.277437 -6.86222e-20)
(0.034828 0.330521 0)
(-0.02089 0.377762 0)
(-0.0854708 0.418484 -6.72195e-20)
(-0.159805 0.453663 0)
(-0.2442 0.486048 -2.58805e-22)
(-0.337782 0.518722 0)
(-0.438475 0.553371 0)
(-0.543364 0.589502 3.27735e-22)
(-0.649173 0.624477 -5.21902e-20)
(-0.752713 0.654567 -5.05303e-20)
(-0.851194 0.676091 -4.8234e-20)
(-0.942598 0.686368 0)
(-1.02588 0.684263 -9.04917e-20)
(-1.10096 0.670201 0)
(-1.16844 0.645809 -4.28453e-20)
(-1.22936 0.613398 0)
(-1.28486 0.575472 0)
(-1.336 0.534384 3.96301e-20)
(-1.38366 0.492133 0)
(-1.42848 0.450287 -3.79229e-20)
(-1.47091 0.40999 2.50867e-22)
(-1.51123 0.372011 7.27976e-20)
(-1.5496 0.336807 -7.17546e-20)
(-1.58613 0.304599 0)
(-1.62084 0.275428 0)
(-1.65378 0.249213 -3.43437e-20)
(-1.68498 0.225793 0)
(-1.71447 0.204956 -3.33653e-20)
(-1.7423 0.186471 3.29681e-20)
(-1.76853 0.170097 3.25865e-20)
(-1.79324 0.155599 0)
(-1.81648 0.142755 -3.18594e-20)
(-1.83834 0.13136 -3.15093e-20)
(-1.8589 0.121224 6.22776e-20)
(-1.87823 0.11218 -3.08267e-20)
(-1.89641 0.104078 -3.04913e-20)
(-1.91351 0.0967833 0)
(-1.92958 0.0901801 0)
(-1.94468 0.0841654 2.94928e-20)
(-1.95887 0.0786497 0)
(-1.97218 0.073555 0)
(-1.98465 0.0688137 -5.69702e-20)
(-1.99631 0.0643675 -5.62866e-20)
(-2.00719 0.0601662 0)
(-2.01731 0.0561668 0)
(-2.02668 0.0523329 0)
(-2.0353 0.0486337 0)
(-2.04319 0.0450435 -5.27215e-20)