/*--------------------------------*- C++ -*----------------------------------*\
  =========                 |
  \\      /  F ield         | OpenFOAM: The Open Source CFD Toolbox
   \\    /   O peration     | Website:  https://openfoam.org
    \\  /    A nd           | Version:  9
     \\/     M anipulation  |
\*---------------------------------------------------------------------------*/
FoamFile
{
    format      ascii;
    class       volScalarField;
    location    "0.28";
    object      epsilonU;
}
// * * * * * * * * * * * * * * * * * * * * * * * * * * * * * * * * * * * * * //

dimensions      [0 2 -3 0 0 0 0];

internalField   nonuniform List<scalar> 
12225
(
247.462
207.835
177.967
156.36
141.973
133.996
131.731
134.513
141.692
152.658
166.877
183.944
203.635
225.969
251.297
280.389
314.866
368.77
43.7906
57.9982
67.6647
78.6454
94.1239
116.26
146.806
187.089
237.934
299.717
372.575
456.728
552.864
662.521
788.468
934.679
1107.46
1311.1
20.9364
26.7159
31.4569
35.8882
40.7776
46.7463
54.3449
64.0797
76.4129
91.7888
110.703
133.81
162.079
197.005
240.891
297.228
371.322
471.18
16.2981
18.2977
20.2717
22.1858
24.1576
26.3256
28.8271
31.7964
35.3663
39.68
44.9148
51.3206
59.2766
69.3759
82.5532
100.278
124.862
159.738
15.0561
15.6253
16.3451
17.1252
17.9507
18.8372
19.8144
20.9189
22.1913
23.6778
25.437
27.5512
30.1449
33.4131
37.6687
43.4189
51.4926
63.1323
14.6997
14.715
14.8578
15.0828
15.3653
15.6951
16.0722
16.5033
17.0001
17.578
18.2583
19.0708
20.0593
21.2904
22.8685
24.9598
27.8337
31.8799
14.5997
14.4118
14.2999
14.2519
14.2559
14.3031
14.3886
14.5112
14.6728
14.8784
15.1359
15.4573
15.8603
16.3708
17.0278
17.8904
19.0493
20.6174
14.573
14.3174
14.1037
13.9312
13.797
13.6976
13.6298
13.592
13.5839
13.6068
13.6638
13.76
13.9034
14.1053
14.3822
14.7577
15.2655
15.9384
14.5663
14.2904
14.0407
13.8179
13.6218
13.4514
13.3057
13.1839
13.0858
13.0119
12.9636
12.9434
12.9552
13.0046
13.0992
13.2494
13.4692
13.7681
14.5647
14.2834
14.0225
13.7819
13.5614
13.3606
13.179
13.0164
12.8727
12.7485
12.6445
12.5621
12.5036
12.472
12.4712
12.5062
12.5833
12.7053
14.5643
14.2817
14.0178
13.7718
13.543
13.3308
13.1347
12.9544
12.79
12.6416
12.5098
12.3955
12.3001
12.2252
12.1732
12.1466
12.1487
12.18
14.5642
14.2814
14.0169
13.7696
13.5385
13.3229
13.1221
12.9357
12.7634
12.6054
12.462
12.3337
12.2213
12.126
12.0492
11.9923
11.9571
11.944
14.5642
14.2813
14.0167
13.7692
13.5375
13.3209
13.1184
12.9297
12.7543
12.5922
12.4433
12.3081
12.1869
12.0805
11.9896
11.9151
11.8579
11.8183
14.5642
14.2813
14.0168
13.7693
13.5376
13.3208
13.118
12.9286
12.7521
12.5884
12.4372
12.2986
12.1729
12.0604
11.9614
11.8763
11.8057
11.7496
14.5641
14.2813
14.0169
13.7695
13.538
13.3213
13.1186
12.9292
12.7525
12.5882
12.4361
12.296
12.1679
12.0519
11.9481
11.8565
11.7774
11.7108
14.5641
14.2813
14.0169
13.7697
13.5384
13.3219
13.1194
12.9302
12.7536
12.5892
12.4367
12.2957
12.1662
12.0479
11.9408
11.8447
11.7597
11.6857
14.564
14.2812
14.0169
13.7698
13.5387
13.3225
13.1203
12.9314
12.755
12.5907
12.4379
12.2964
12.1658
12.0458
11.9361
11.8365
11.7468
11.667
14.5639
14.281
14.0167
13.7697
13.5389
13.323
13.1212
12.9326
12.7566
12.5924
12.4397
12.2978
12.1664
12.0451
11.9334
11.831
11.7375
11.6532
14.5637
14.2807
14.0164
13.7695
13.5389
13.3234
13.122
12.9339
12.7583
12.5945
12.442
12.3
12.1681
12.0458
11.9326
11.8281
11.7318
11.644
14.5635
14.2803
14.016
13.7693
13.539
13.3238
13.1229
12.9352
12.7601
12.5967
12.4443
12.3024
12.1703
12.0475
11.9334
11.8276
11.7297
11.6399
14.5634
14.2801
14.0159
13.7694
13.5393
13.3245
13.124
12.9368
12.7621
12.5991
12.447
12.3053
12.1732
12.0503
11.9359
11.8295
11.7307
11.6397
14.5633
14.28
14.016
13.7698
13.5402
13.326
13.1261
12.9397
12.7658
12.6037
12.4525
12.3117
12.1805
12.0584
11.9446
11.8388
11.7404
11.6496
14.5633
14.2803
14.017
13.7721
13.5442
13.3322
13.1351
12.9519
12.7815
12.6232
12.476
12.3393
12.2122
12.0942
11.9845
11.8826
11.788
11.7008
14.564
14.2835
14.025
13.7874
13.5694
13.3696
13.1866
13.0188
12.8649
12.7234
12.5933
12.4735
12.3631
12.2612
12.167
12.08
11.9995
11.9257
14.5703
14.308
14.0801
13.8829
13.7121
13.5633
13.433
13.3183
13.2164
13.1254
13.0438
12.9703
12.9038
12.8435
12.7888
12.7392
12.694
12.6533
14.6197
14.4649
14.3811
14.3449
14.3382
14.3484
14.3674
14.3907
14.4156
14.4425
14.4713
14.5016
14.5331
14.5659
14.6001
14.6354
14.6719
14.7089
14.9408
15.2797
15.6997
16.1199
16.5153
16.8811
17.2199
17.5376
17.8404
18.1316
18.4139
18.6902
18.9627
19.2382
19.5153
19.7926
20.0687
20.341
16.797
18.9704
20.7695
22.2122
23.4319
24.5243
25.5555
26.5743
27.6135
28.6913
29.8151
30.9851
32.1959
33.4328
34.6857
35.9446
37.2003
38.4427
28.56
35.8958
40.0579
42.9995
45.6854
48.534
51.7574
55.458
59.6609
64.3406
69.4414
74.8883
80.5964
86.4762
92.441
98.412
104.33
110.117
152.475
136.951
124.109
113.5
104.813
97.7908
92.223
87.9239
84.7241
82.4676
81.0107
80.2212
79.9795
80.1781
80.7223
81.5299
82.5316
83.6652
51.5564
100.661
166.783
227.423
247.101
252.756
253.982
253.751
253.431
253.691
254.927
256.395
255.765
251.245
240.711
221.515
190.614
145.758
90.3369
44.8089
8.77029
39.9457
61.7268
86.1809
100.232
102.85
101.947
95.4148
87.5398
81.1853
76.9672
84.5599
139.17
282.112
425.271
565.597
694.233
806.205
899.379
973.471
1029.34
1068.49
1092.76
1104.1
1104.43
1095.58
1079.23
1056.88
1029.86
999.281
966.106
931.556
897.583
864.161
831.31
799.075
767.492
736.588
706.375
676.846
647.978
619.726
592.028
564.794
537.919
511.273
484.72
458.119
431.347
404.316
376.998
349.443
321.79
294.263
267.158
240.814
215.573
191.752
169.635
149.573
132.246
119.485
114.018
110.993
108.631
106.701
105.143
103.925
103.022
102.41
102.067
101.969
102.094
102.418
102.911
103.541
104.265
105.024
105.702
106.035
105.544
103.807
100.307
94.8822
87.877
80.1814
72.9925
67.3763
63.8992
62.5472
62.9093
64.4718
66.9119
69.7354
72.6667
75.8367
79.4868
83.7141
88.3352
92.9027
96.9615
100.446
103.971
107.86
115.283
139.106
211.195
316.693
413.056
494.654
559.091
606.886
639.875
660.451
671.238
674.988
674.283
668.313
657.761
642.984
624.073
600.9
573.186
540.64
503.248
462.045
421.949
404.788
414.609
425.147
436.029
448.453
463.537
482.017
504.182
530.002
559.501
591.278
613.329
603.323
545.438
440.841
319.97
228.058
183.257
165.128
151.137
119.098
89.0315
77.729
16.5729
16.4982
15.8393
15.7676
16.0982
16.6597
17.421
79.8713
80.2673
79.9433
57.9522
244.717
374.232
351.708
307.57
268.085
233.968
204.563
179.997
160.188
144.761
134.184
129.381
129.296
132.455
136.862
139.768
137.636
127.433
110.599
91.4986
75.5229
72.0675
96.4001
129.106
140.647
153.599
225.783
361.533
469.529
495.22
492.25
485.625
483.4
477.354
466.09
449.346
427.813
402.515
374.56
345.052
315.055
285.565
257.487
231.604
208.555
188.818
172.717
160.438
152.029
147.368
146.447
146.149
146.078
146.194
146.47
146.884
147.418
148.055
148.776
149.559
150.373
151.175
151.909
152.5
152.85
152.842
152.339
151.193
149.26
146.413
142.569
137.702
131.859
125.162
117.795
109.985
101.976
93.9996
86.2612
78.9655
72.3032
66.9842
62.5822
58.6628
55.1542
52.0166
49.215
46.7169
44.4922
42.5127
40.7527
39.1891
37.8013
36.571
35.4827
34.5224
33.6773
32.9407
32.3329
31.977
32.4301
33.5322
34.7938
35.97
37.0833
38.3723
40.161
42.6944
46.0186
49.9234
53.9368
57.388
59.5378
59.7675
57.8754
54.2723
49.9812
46.6563
45.6396
47.7917
55.0088
74.3745
115.909
175.689
222.303
239.522
246.87
247.814
244.162
237.777
230.177
222.614
216.192
211.959
210.914
214.026
218.576
223.265
227.97
232.489
236.494
239.516
240.952
240.145
236.568
230.142
222.044
213.265
202.841
191.545
180.246
169.59
159.991
151.672
144.649
138.892
134.903
135.67
153.521
178.953
207.446
249.449
324.54
430.527
510.026
485.677
366.572
235.604
141.283
84.0062
55.9402
42.3427
36.8487
35.2031
35.6836
37.8412
42.2837
43.2799
41.8483
112.39
544.055
455.9
338.52
259.65
207.916
171.357
144.27
123.975
108.829
97.6569
89.8232
85.4919
84.31
86.0419
90.1669
95.6617
101.02
104.721
106.747
108.274
114.69
142.225
205.424
315.969
459.814
501.036
481.957
461.577
432.47
395.383
360.171
330.102
303.87
278.651
253.537
228.496
204.052
180.957
159.964
141.651
126.335
114.06
104.653
97.7974
93.111
90.1999
88.6934
88.2646
88.6389
89.5933
90.7771
92.0032
93.2498
94.5152
95.8096
97.1527
98.571
100.095
101.757
103.584
105.595
107.794
110.165
112.667
115.222
117.717
119.999
121.878
123.141
123.572
122.98
121.23
118.271
114.152
109.016
103.079
96.5994
89.8348
83.005
76.2848
69.8484
64.4627
59.719
55.4297
51.5523
48.0537
44.9012
42.0629
39.5079
37.2078
35.1361
33.2694
31.5867
30.0701
28.7042
27.4763
26.3767
25.3997
24.5486
23.8412
23.3133
22.9899
22.9351
23.1135
23.4128
23.7682
24.1721
24.6633
25.3016
26.1431
27.2084
28.4443
29.6998
30.7446
31.3744
31.657
32.2453
34.2346
39.5663
51.2418
75.8187
120.97
179.234
212.601
208.809
197.696
188.883
181.513
174.803
168.739
163.794
160.508
159.208
159.942
162.522
166.601
171.361
176.619
182.297
188.25
194.208
199.722
204.138
206.627
206.283
202.214
194.626
184.691
172.757
159.802
146.739
134.251
122.768
112.506
103.525
95.8391
89.5662
84.9816
83.3165
88.4046
100.684
120.52
152.088
200.851
267.442
338.192
376.409
346.595
263.906
179.635
123.313
92.9743
78.3443
72.4256
70.3111
70.2182
70.6098
68.336
61.6727
791.972
582.915
374.623
264.915
203.363
162.426
132.469
109.972
92.9929
80.2245
70.8045
64.2457
60.8191
60.0719
61.787
65.8518
72.2274
81.2834
94.3123
116.715
168.4
277.367
440.037
623.987
589.069
496.341
427.602
372.188
327.798
289.789
256.92
229.272
205.681
184.561
164.897
146.639
130.188
116.019
104.419
95.3978
88.7399
84.0998
81.0969
79.3708
78.6069
78.5416
78.9597
79.6883
80.5916
81.5677
82.5268
83.3168
83.9046
84.2807
84.4535
84.4527
84.3291
84.1532
84.011
83.998
84.2122
84.7461
85.6774
87.0608
88.9184
91.2302
93.9253
96.874
99.8845
102.708
105.054
106.622
107.146
106.437
104.42
101.152
96.8034
91.6286
85.9069
79.8866
73.7549
67.9664
62.9623
58.3913
54.211
50.4033
46.945
43.8095
40.9691
38.3965
36.0656
33.9525
32.0357
30.296
28.7169
27.2841
25.986
24.8138
23.7617
22.8269
22.0096
21.3127
20.7366
20.2811
19.9415
19.7184
19.5874
19.5252
19.5216
19.5861
19.7406
20.011
20.4125
20.9541
21.6601
22.6363
24.2062
27.19
33.3047
45.6283
69.4165
109.78
162.149
198.655
196.107
179.541
167.82
160.758
155.726
151.521
148.075
145.733
144.709
144.939
146.18
148.159
150.673
153.607
156.98
160.816
165.088
169.651
174.178
178.105
180.611
180.689
177.316
170.892
161.881
150.935
138.991
126.926
115.406
104.853
95.4677
87.3131
80.3828
74.6541
70.16
67.0664
65.9093
68.0359
74.4059
86.191
105.831
138.657
191.2
261.971
325.613
336.475
286.747
221.249
173.827
148.21
135.829
129.36
125.573
120.263
110.478
94.6413
1130.81
535.552
314.797
224.514
174.275
139.564
113.05
92.4094
76.4953
64.4061
55.4468
49.3351
46.8484
47.3027
50.156
55.2398
63.2465
77.6341
110.302
188.548
323.284
511.94
623.102
559.904
445.745
356.487
295.671
251.927
218.99
192.745
171.061
152.683
136.651
122.46
110.089
99.7576
91.6066
85.5806
81.4494
78.8939
77.5832
77.2202
77.5576
78.398
79.5864
81.0012
82.5443
84.1322
85.6894
87.1446
88.3106
89.0672
89.3459
89.1017
88.3182
87.0149
85.2507
83.125
80.7747
78.3669
76.0876
74.1277
72.6671
71.8592
71.8163
72.5986
74.2043
76.5609
79.5173
82.8387
86.2103
89.2586
91.5936
92.8696
92.8489
91.4491
88.7508
84.971
80.3967
75.3057
69.9612
65.0834
60.5773
56.3789
52.4991
48.9362
45.6778
42.7048
39.9952
37.5264
35.2764
33.2245
31.3521
29.6424
28.0809
26.655
25.3543
24.1704
23.097
22.1293
21.2641
20.4995
19.8318
19.2549
18.7615
18.344
17.9962
17.7148
17.5013
17.3602
17.3039
17.3553
17.5552
17.9674
18.724
20.1184
22.7721
27.9599
38.1171
57.3328
90.4668
136.715
178.275
189.109
172.929
158.199
150.575
146.777
144.142
141.794
139.899
138.723
138.237
138.219
138.435
138.743
139.134
139.742
140.686
142.084
144.011
146.454
149.216
151.862
153.658
153.593
150.951
145.751
138.183
128.848
118.574
108.164
98.2428
89.2064
81.2446
74.4051
68.6576
63.9479
60.2438
57.5414
55.8695
55.5174
56.7317
60.4338
68.4128
84.0695
113.639
166.147
244.394
320.917
346.318
316.25
271.151
239.166
223.045
214.754
205.53
189.128
166.045
138.101
1443.96
474.762
270.441
203.2
164.159
132.294
105.655
84.6932
68.9325
57.3552
49.2351
46.0059
46.852
50.0299
55.1921
63.4233
80.3256
117.005
189.912
307.511
447.197
526.146
481.706
384.301
299.662
241.475
202.501
174.847
153.927
137.087
123.008
111.089
101.099
93.0137
86.8484
82.5325
79.8755
78.6099
78.4497
79.133
80.4428
82.212
84.3179
86.6723
89.2079
91.8659
94.5845
97.2911
99.899
102.308
104.18
105.416
105.9
105.535
104.257
102.044
98.929
95.0028
90.4216
85.4037
80.2207
75.1799
70.5983
66.7695
63.9317
62.2438
61.7753
62.5068
64.3335
67.0637
70.4108
73.993
77.3557
80.0268
81.5988
81.818
80.6266
78.1627
74.6827
70.4786
66.1428
61.9793
57.9676
54.1685
50.6184
47.3297
44.3
41.5176
38.9666
36.629
34.4869
32.5229
30.7211
29.0672
27.5485
26.1539
24.8738
23.7006
22.6276
21.6496
20.7621
19.961
19.2417
18.5987
18.0268
17.5216
17.0815
16.7074
16.4042
16.1806
16.052
16.0476
16.2226
16.6853
17.6431
19.5135
23.1448
30.2049
43.7235
68.2306
106.637
150.579
177.159
173.188
155.16
144.644
140.709
139.207
137.915
136.509
135.295
134.367
133.543
132.598
131.416
129.989
128.468
127.059
125.93
125.249
125.155
125.738
126.91
128.34
129.394
129.189
127.167
123.04
116.864
109.105
100.469
91.6758
83.3038
75.7219
69.1059
63.4936
58.845
55.0904
52.1628
50.0055
48.5631
47.8234
47.8944
48.9488
52.036
59.4783
75.6497
108.017
166.64
251.014
328.847
360.867
350.794
328.819
312.778
302.542
289.49
263.411
226.111
185.042
1535.86
396.187
247.29
202.775
167.432
133.911
106.308
85.6208
71.1695
62.1582
58.7403
58.8225
61.1899
66.3922
76.1457
94.5936
128.953
187.507
272.64
364.801
413.985
390.627
323.313
255.055
204.364
170.336
147.047
129.967
116.616
105.794
97.0472
90.2306
85.268
82.0531
80.4177
80.1378
80.9621
82.6445
84.9695
87.7664
90.9129
94.3297
97.9681
101.794
105.772
109.851
113.957
117.989
121.819
125.195
127.921
129.865
130.866
130.776
129.476
126.886
122.976
117.775
111.389
104.01
95.9281
87.5375
79.3135
71.763
65.348
60.4092
57.1215
55.498
55.4329
56.7413
59.1666
62.3637
65.885
69.2032
71.7784
73.1878
73.2124
71.8654
69.3481
66.1096
62.6362
59.0592
55.5159
52.1007
48.8674
45.8416
43.0303
40.4296
38.0294
35.8165
33.7768
31.8965
30.1625
28.5627
27.0861
25.7233
24.4657
23.306
22.238
21.2561
20.3555
19.5317
18.7803
18.0971
17.4787
16.9232
16.4316
16.0083
15.6616
15.4047
15.2597
15.2654
15.494
16.0832
17.2947
19.6386
24.1385
32.7648
48.9172
76.8716
116.583
154.356
169.159
158.947
143.312
136.103
134.546
134.249
133.563
132.56
131.499
130.326
128.83
126.87
124.458
121.697
118.825
116.034
113.494
111.375
109.849
109.052
109.015
109.459
109.845
109.53
107.943
104.679
99.6819
93.2782
86.0487
78.6314
71.5578
65.176
59.6541
55.0267
51.2502
48.2474
45.9374
44.2444
43.0914
42.4082
42.2386
42.5793
43.9167
47.5521
56.3099
75.5174
113.272
177.17
260.155
332.734
370.839
379.207
374.267
364.062
346.726
315.776
269.713
220.476
1491.56
343.758
248.38
212.106
175.358
141.262
115.383
97.5097
85.4879
78.5001
76.8651
77.8647
82.9959
93.5215
111.962
141.864
186.073
241.956
294.91
321.424
308.986
267.883
219.207
178.359
149.238
129.216
114.85
103.968
95.5532
89.2072
84.7671
82.0955
81.0154
81.3124
82.7498
85.0874
88.101
91.603
95.4553
99.5737
103.92
108.484
113.266
118.256
123.421
128.697
133.983
139.144
144.019
148.272
151.838
154.535
156.176
156.592
155.645
153.239
149.315
143.852
136.861
128.398
118.601
107.748
96.3165
84.9876
74.5548
65.7433
59.0221
54.5194
52.0971
51.4988
52.4342
54.582
57.5398
60.8013
63.7616
65.8556
66.723
66.2248
64.5919
62.2325
59.4212
56.3816
53.2807
50.2306
47.2996
44.5242
41.9204
39.4912
37.232
35.1346
33.1888
31.3841
29.7103
28.1577
26.7174
25.3813
24.1421
22.9933
21.9291
20.9443
20.0342
19.1945
18.4214
17.7117
17.0634
16.4767
15.9548
15.5044
15.1371
14.871
14.7347
14.7777
15.0884
15.8293
17.3025
20.0884
25.3354
35.2012
53.1773
82.7671
121.159
152.395
159.86
148.077
135.307
130.372
129.987
130.228
129.805
128.918
127.732
126.142
123.974
121.2
117.933
114.353
110.721
107.15
103.807
100.817
98.3694
96.5941
95.6277
95.2459
95.0786
94.6154
93.3013
90.7016
86.6622
81.3749
75.2995
68.9939
62.9499
57.5026
52.8205
48.9427
45.8288
43.4007
41.5703
40.2506
39.3531
38.7905
38.5291
38.6434
39.3102
41.2535
46.0832
57.2388
80.5685
122.682
185.806
259.146
321.651
359.75
374.083
370.085
351.014
318.931
275.078
228.134
1383.66
341.174
261.624
223.768
185.907
152.918
129.356
114.214
105.132
101.314
100.561
104.363
113.733
129.666
152.958
182.891
215.304
241.931
253.6
245.843
221.746
189.882
159.338
135.192
117.761
105.26
96.0834
89.3768
84.7646
82.0358
80.9912
81.4024
83.0212
85.5965
88.8899
92.6933
96.8464
101.249
105.858
110.676
115.73
121.048
126.643
132.499
138.564
144.749
150.924
156.923
162.553
167.515
171.726
174.974
177.046
177.754
176.96
174.596
170.66
165.203
158.283
149.917
140.063
128.688
115.921
102.238
88.5382
75.9843
65.618
57.963
52.9585
50.2536
49.449
50.1971
52.1272
54.796
57.6135
59.899
61.218
61.3238
60.4081
58.7009
56.4564
53.9006
51.2082
48.5016
45.8585
43.3238
40.9205
38.6573
36.5349
34.5491
32.6938
30.9615
29.345
27.8368
26.4302
25.1187
23.8963
22.7575
21.6973
20.7112
19.7948
18.9446
18.1574
17.4311
16.7648
16.1602
15.6218
15.1588
14.7853
14.5238
14.4097
14.5018
14.9023
15.7941
17.5089
20.6762
26.5173
37.2559
56.2389
86.0143
121.838
147.712
151.306
140.069
129.662
125.994
126.028
126.447
126.167
125.296
123.931
121.976
119.33
116.062
112.34
108.387
104.429
100.445
96.6572
93.1535
90.1084
87.6693
85.9426
84.8822
84.2315
83.5849
82.448
80.373
77.1161
72.7413
67.5945
62.1626
56.908
52.1634
48.1065
44.7878
42.1751
40.1933
38.7502
37.7495
37.093
36.6821
36.4469
36.4339
36.7535
37.803
40.5264
46.9014
60.8473
87.4274
129.544
184.299
241.079
286.425
311.821
315.493
300.007
271.124
237.846
202.75
1266.38
348.526
275.598
235.847
197.079
165.374
144.252
132.158
126.502
124.922
126.74
133.053
143.844
158.431
175.091
190.893
202.223
205.931
200.436
186.303
166.331
144.815
125.63
110.55
99.3962
91.3489
85.7792
82.3296
80.7478
80.7829
82.1647
84.616
87.8701
91.6883
95.8774
100.305
104.904
109.668
114.628
119.835
125.335
131.155
137.297
143.726
150.372
157.126
163.839
170.32
176.34
181.708
186.3
189.891
192.237
193.105
192.306
189.74
185.435
179.552
172.337
164.001
154.585
143.9
131.656
117.775
102.746
87.7695
74.422
63.8991
56.4363
51.6943
49.1578
48.4293
49.1416
50.9031
53.2174
55.2912
56.6918
57.1767
56.7355
55.515
53.728
51.5836
49.2527
46.8591
44.4843
42.1781
39.9676
37.8661
35.8779
34.0028
32.2378
30.5785
29.0202
27.5578
26.1865
24.9014
23.6979
22.5717
21.5188
20.5352
19.6176
18.763
17.9691
17.2347
16.5601
15.9479
15.404
14.9391
14.5699
14.3226
14.2383
14.3839
14.8726
15.9014
17.8217
21.29
27.5481
38.7803
58.0436
87.011
119.932
141.942
143.948
134.078
125.397
122.288
122.302
122.692
122.45
121.548
120.038
117.864
115.01
111.578
107.73
103.698
99.6541
95.5815
91.5675
87.7326
84.2344
81.2587
78.9505
77.3437
76.2952
75.4993
74.5226
72.9026
70.3077
66.681
62.2669
57.4963
52.8182
48.5757
44.9647
42.0523
39.8177
38.1894
37.0714
36.3581
35.9398
35.7084
35.5733
35.5189
35.6387
36.1496
37.606
41.1639
49.1322
65.2313
92.207
128.836
169.46
205.482
228.787
235.132
225.347
204.475
179.923
158.574
1143.36
355.318
290.487
249.535
209.813
178.795
159.276
149.023
144.829
143.566
145.523
150.102
156.401
163.195
169.074
172.685
172.928
169.026
160.659
148.337
133.696
119.047
106.305
96.302
89.0173
84.1497
81.4058
80.5162
81.1986
83.1538
86.0819
89.7023
93.7736
98.1118
102.602
107.202
111.924
116.818
121.949
127.373
133.132
139.238
145.667
152.359
159.214
166.096
172.834
179.233
185.021
190.204
194.659
198.203
200.61
201.617
200.952
198.394
193.861
187.49
179.655
170.852
161.442
151.406
140.311
127.604
113.107
97.5633
82.6386
70.2169
60.8966
54.496
50.4612
48.3851
47.9194
48.6773
50.183
51.8521
53.158
53.7694
53.5868
52.6877
51.2385
49.4218
47.3948
45.2752
43.1428
41.0477
39.0189
37.072
35.2144
33.4484
31.7738
30.1889
28.6912
27.2776
25.9451
24.6904
23.5103
22.4015
21.3609
20.3855
19.4729
18.6207
17.8276
17.0931
16.4185
15.8074
15.2668
14.8085
14.4514
14.2248
14.1742
14.373
14.9421
16.0866
18.168
21.8472
28.3401
39.7131
58.6744
86.2359
116.396
135.869
137.681
129.422
121.956
118.964
118.702
118.929
118.659
117.73
116.155
113.922
111.058
107.665
103.909
99.9702
95.9606
91.8769
87.7587
83.7099
79.8947
76.5221
73.7826
71.7774
70.4604
69.6145
68.85
67.6748
65.664
62.6482
58.7881
54.4817
50.1851
46.2667
42.9488
40.3186
38.3659
37.0207
36.1804
35.7269
35.5377
35.4949
35.4975
35.4894
35.5119
35.6978
36.3536
38.1671
42.4659
51.5971
68.1086
91.9017
119.135
143.965
160.799
166.383
161.08
148.352
132.863
118.362
1020.8
360.22
305.351
264.996
224.626
193.132
172.978
161.413
154.451
151.03
149.865
150.028
150.773
151.477
151.61
150.646
147.986
143.015
135.421
125.598
114.722
104.286
95.4615
88.7977
84.3647
82.0059
81.4781
82.4943
84.7434
87.9124
91.7093
95.8851
100.255
104.708
109.209
113.783
118.489
123.404
128.6
134.134
140.036
146.293
152.843
159.564
166.284
172.801
178.908
184.419
189.203
193.377
196.922
199.759
201.737
202.63
202.136
199.912
195.672
189.348
181.232
171.962
162.244
152.413
142.186
130.907
117.847
103.179
88.1246
75.1284
64.9137
57.4875
52.4053
49.2259
47.6725
47.4824
48.2464
49.4194
50.4687
51.0228
50.9268
50.205
48.9817
47.4098
45.6268
43.7386
41.8183
39.9131
38.0513
36.2493
34.516
32.8558
31.2706
29.7606
28.3254
26.9636
25.6738
24.454
23.3022
22.2161
21.1937
20.2328
19.3315
18.4885
17.7031
16.9758
16.3084
15.7055
15.175
14.7296
14.3899
14.1873
14.1711
14.4186
15.0551
16.2892
18.4828
22.2818
28.84
40.0559
58.29
84.1363
111.868
129.83
132.257
125.618
119.026
115.907
115.222
115.19
114.848
113.921
112.372
110.205
107.466
104.246
100.68
96.8908
92.959
88.8875
84.7072
80.5151
76.483
72.8401
69.8173
67.5794
66.1628
65.417
64.9658
64.2624
62.7792
60.2451
56.763
52.7283
48.6294
44.8752
41.7206
39.2726
37.5277
36.4113
35.8076
35.5813
35.5945
35.7206
35.8561
35.9331
35.9371
35.9453
36.1151
36.8328
38.8843
43.6433
52.9864
67.7512
85.8528
103.015
115.118
119.934
117.736
110.692
101.604
92.5764
902.089
359.166
316.368
279.045
238.598
205.256
182.015
166.322
156.072
149.306
144.736
141.599
139.415
137.812
136.358
134.472
131.462
126.75
120.196
112.293
104.035
96.5118
90.5243
86.4459
84.3083
83.948
85.1064
87.481
90.7571
94.6343
98.8516
103.211
107.591
111.95
116.31
120.737
125.314
130.131
135.267
140.78
146.687
152.943
159.418
165.902
172.122
177.782
182.616
186.503
189.589
192.096
194.113
195.661
196.678
197.019
196.429
194.536
190.912
185.232
177.536
168.373
158.612
148.892
139.109
128.93
117.341
104.244
90.6312
78.0588
67.6671
59.7436
53.9888
50.0489
47.7232
46.8156
46.9681
47.671
48.4077
48.8012
48.6744
48.0204
46.9315
45.5323
43.9385
42.2406
40.502
38.7641
37.0529
35.3842
33.7673
32.208
30.7097
29.2743
27.9027
26.5951
25.3513
24.1704
23.0516
21.9935
20.9947
20.054
19.1701
18.3424
17.5709
16.8567
16.2024
15.6132
15.0976
14.6694
14.3498
14.172
14.187
14.4747
15.1614
16.4553
18.7103
22.5423
29.019
39.8464
57.0701
81.0788
106.746
123.927
127.422
122.353
116.44
113.082
111.895
111.527
111.068
110.153
108.685
106.658
104.11
101.117
97.769
94.1439
90.2992
86.2502
82.0348
77.7546
73.5926
69.7999
66.6483
64.3639
63.0492
62.5883
62.5782
62.3851
61.3694
59.1753
55.8838
51.9257
47.8495
44.1181
41.0209
38.6794
37.0885
36.1593
35.7533
35.7115
35.8785
36.1215
36.3422
36.48
36.5024
36.4265
36.3267
36.3947
37.0833
39.2127
43.9811
52.4004
63.9091
75.9125
85.2765
90.0792
90.2063
86.8346
81.6044
75.814
799.019
347.341
317.671
286.271
247.238
212.143
185.525
166.771
153.64
144.322
137.705
133.101
130.007
127.917
126.219
124.205
121.221
116.896
111.325
105.078
98.993
93.8704
90.2472
88.3364
88.0967
89.3348
91.7796
95.1287
99.079
103.354
107.733
112.068
116.294
120.421
124.507
128.639
132.913
137.423
142.25
147.454
153.041
158.932
164.944
170.794
176.125
180.549
183.755
185.671
186.802
187.451
187.763
187.808
187.593
187.045
185.991
184.099
180.943
176.066
169.259
160.86
151.671
142.459
133.435
124.129
113.779
102.118
89.8332
78.2319
68.3814
60.5945
54.6664
50.3725
47.6196
46.2714
46.0007
46.3258
46.7602
46.9496
46.7234
46.0642
45.0432
43.7609
42.3115
40.7685
39.1839
37.5921
36.0154
34.468
32.9592
31.4955
30.081
28.719
27.4115
26.1599
24.9648
23.8265
22.7448
21.7192
20.7489
19.8334
18.9722
18.165
17.4124
16.7162
16.0795
15.5079
15.0105
14.6015
14.3027
14.1478
14.1883
14.5041
15.221
16.5423
18.8073
22.5918
28.8654
39.1366
55.1805
77.3381
101.258
118.148
122.972
119.44
114.129
110.499
108.77
107.996
107.358
106.432
105.055
103.188
100.849
98.0842
94.9498
91.4849
87.7309
83.716
79.4925
75.1761
70.9686
67.1508
64.0402
61.9204
60.9366
60.964
61.5243
61.8628
61.2245
59.1974
55.8876
51.8066
47.5905
43.7641
40.6463
38.3619
36.8914
36.1181
35.8702
35.9585
36.2098
36.4898
36.7133
36.8405
36.8571
36.7382
36.505
36.233
36.1536
36.7589
38.8079
43.1101
49.8344
57.8333
65.0728
69.862
71.6112
70.6859
67.9423
64.2022
770.341
323.696
304.681
282.439
247.471
212.959
185.329
164.866
150.024
139.358
131.856
126.787
123.505
121.341
119.581
117.547
114.75
111.038
106.647
102.123
98.1192
95.1957
93.6856
93.678
95.0751
97.6646
101.169
105.292
109.746
114.281
118.708
122.922
126.9
130.684
134.354
138.006
141.734
145.63
149.792
154.24
158.98
163.926
168.886
173.56
177.551
180.431
181.922
182.125
181.629
180.714
179.524
178.173
176.729
175.19
173.463
171.321
168.389
164.181
158.351
151.015
142.777
134.338
125.987
117.405
107.987
97.5052
86.54
76.1873
67.2908
60.0501
54.3179
50.0145
47.152
45.6279
45.1223
45.1761
45.3463
45.3237
44.9652
44.2589
43.2636
42.0598
40.7213
39.3051
37.8514
36.3872
34.9305
33.4936
32.0853
30.7119
29.3786
28.089
26.846
25.6518
24.508
23.4153
22.3742
21.385
20.4475
19.5616
18.7273
17.9448
17.2154
16.5408
15.925
15.3737
14.8962
14.507
14.2279
14.0921
14.1501
14.4804
15.2056
16.5209
18.7455
22.4092
28.3799
37.9773
52.749
73.0885
95.4941
112.404
118.726
116.759
112.064
108.188
105.897
104.65
103.755
102.759
101.442
99.716
97.5662
95.008
92.0654
88.7473
85.0858
81.1209
76.9226
72.6287
68.4708
64.771
61.8989
60.185
59.7811
60.4988
61.7311
62.5742
62.167
60.0867
56.5252
52.1233
47.6267
43.6198
40.4366
38.1887
36.8245
36.1847
36.0534
36.2075
36.4592
36.6799
36.8063
36.8277
36.7606
36.592
36.2938
35.8794
35.4375
35.2393
35.7735
37.6347
41.1894
46.1163
51.3467
55.6336
58.1777
58.7874
57.7397
55.4848
168.866
250
273.369
265.142
240.137
209.882
182.806
161.642
145.962
134.672
126.811
121.577
118.226
116.026
114.288
112.453
110.201
107.513
104.653
102.062
100.208
99.4553
99.99
101.819
104.821
108.805
113.405
118.294
123.243
128.028
132.493
136.563
140.241
143.588
146.691
149.641
152.518
155.407
158.382
161.476
164.688
167.956
171.135
173.999
176.247
177.556
177.683
176.798
175.2
173.117
170.749
168.277
165.826
163.444
161.087
158.585
155.603
151.689
146.485
140.011
132.712
125.139
117.515
109.584
100.902
91.4039
81.6952
72.6752
64.8879
58.3753
53.0608
49.0085
46.2958
44.8098
44.2171
44.0846
44.0282
43.8008
43.3006
42.5288
41.537
40.3883
39.138
37.8278
36.4868
35.1351
33.7864
32.4511
31.1368
29.85
28.5956
27.3778
26.2001
25.0651
23.9748
22.9306
21.9336
20.9843
20.0832
19.2305
18.4267
17.6725
16.9693
16.3195
15.7268
15.1975
14.7408
14.3709
14.1092
13.9877
14.0546
14.3856
15.0974
16.3735
18.5091
21.9832
27.5624
36.3906
49.8224
68.3559
89.3641
106.468
114.458
114.2
110.247
106.191
103.321
101.516
100.257
99.1016
97.7762
96.1428
94.1422
91.7554
88.9779
85.8
82.245
78.3596
74.2344
70.0403
66.0541
62.6523
60.2576
59.2228
59.6537
61.2339
63.1773
64.4161
64.0146
61.6063
57.5417
52.6371
47.7555
43.5247
40.2705
38.0683
36.8148
36.2929
36.2348
36.3851
36.5488
36.6136
36.5455
36.3676
36.1307
35.8631
35.5101
35.0551
34.5036
33.9719
33.7579
34.2923
35.9507
38.7724
42.3014
45.7594
48.4116
49.8055
49.8373
48.6572
165.77
199.584
232.724
242.644
229.961
205.634
180.22
158.918
142.704
130.941
122.734
117.252
113.725
111.44
109.78
108.295
106.762
105.206
103.857
103.062
103.168
104.388
106.776
110.273
114.725
119.898
125.468
131.139
136.663
141.825
146.476
150.545
154.038
157.015
159.561
161.763
163.698
165.441
167.057
168.591
170.06
171.446
172.671
173.596
174.031
173.759
172.596
170.645
168.066
165.051
161.813
158.548
155.392
152.4
149.536
146.644
143.423
139.479
134.524
128.594
122.042
115.243
108.277
100.894
92.8282
84.2499
75.8105
68.1519
61.4837
55.7499
51.0003
47.4117
45.0547
43.7589
43.1703
42.8981
42.6369
42.2151
41.5776
40.7406
39.7485
38.6482
37.4778
36.2649
35.029
33.7836
32.5388
31.3029
30.0823
28.883
27.7099
26.5672
25.4586
24.387
23.3547
22.3637
21.4152
20.5104
19.65
18.8347
18.0653
17.3429
16.6691
16.0464
15.4789
14.9726
14.5368
14.1852
13.9381
13.8255
13.8935
14.2129
14.8927
16.1029
18.1125
21.3511
26.4936
34.5349
46.6767
63.5335
83.2813
100.645
110.353
111.925
108.88
104.774
101.358
98.9358
97.2009
95.7585
94.3082
92.6636
90.721
88.4254
85.7458
82.6593
79.1901
75.3934
71.3875
67.39
63.7385
60.8721
59.2525
59.2078
60.725
63.2866
65.8851
67.2977
66.5768
63.5066
58.6792
53.1204
47.7985
43.3512
40.0631
37.9466
36.8257
36.4114
36.3817
36.4566
36.4476
36.2703
35.9272
35.4765
34.9994
34.5748
34.1476
33.6904
33.1653
32.5895
32.1166
32.0439
32.6996
34.2545
36.5699
39.2072
41.5995
43.2451
43.8466
43.3511
134.798
158.611
198.37
220.286
219.132
202.129
179.477
158.305
141.358
128.783
119.883
113.835
109.875
107.333
105.654
104.44
103.556
103.013
102.99
103.73
105.446
108.25
112.142
117.03
122.735
129.011
135.556
142.076
148.307
154.024
159.065
163.345
166.852
169.634
171.768
173.342
174.434
175.122
175.475
175.552
175.398
175.032
174.431
173.523
172.199
170.327
167.838
164.844
161.455
157.815
154.091
150.43
146.929
143.613
140.425
137.198
133.654
129.473
124.485
118.796
112.698
106.398
99.8408
92.802
85.233
77.5183
70.2449
63.7238
57.9279
52.8546
48.6994
45.6624
43.731
42.6594
42.0913
41.6988
41.2624
40.6802
39.9347
39.0502
38.0629
37.0055
35.9026
34.7714
33.6241
32.4697
31.3152
30.167
29.0307
27.9114
26.8136
25.7414
24.6985
23.6877
22.7117
21.7726
20.8718
20.0109
19.1908
18.4126
17.6774
16.9865
16.3417
15.7456
15.2023
14.7178
14.3009
13.9647
13.7283
13.6198
13.6821
13.9807
14.6158
15.7426
17.6039
20.5816
25.2677
32.5294
43.441