/*--------------------------------*- C++ -*----------------------------------*\
  =========                 |
  \\      /  F ield         | OpenFOAM: The Open Source CFD Toolbox
   \\    /   O peration     | Website:  https://openfoam.org
    \\  /    A nd           | Version:  9
     \\/     M anipulation  |
\*---------------------------------------------------------------------------*/
FoamFile
{
    format      ascii;
    class       volScalarField;
    location    "0.28";
    object      k;
}
// * * * * * * * * * * * * * * * * * * * * * * * * * * * * * * * * * * * * * //

dimensions      [0 2 -2 0 0 0 0];

internalField   nonuniform List<scalar> 
12225
(
0.31446
0.264105
0.226149
0.198693
0.180412
0.170279
0.16741
0.17096
0.180107
0.194078
0.2122
0.233962
0.259085
0.287604
0.319975
0.357191
0.401338
0.470363
0.362039
0.350363
0.347945
0.358633
0.383166
0.420935
0.470501
0.529848
0.596751
0.669157
0.745496
0.824879
0.90722
0.993278
1.08468
1.18362
1.29365
1.41771
0.368482
0.362649
0.357224
0.353423
0.352487
0.355018
0.361221
0.371102
0.384552
0.401459
0.421828
0.445908
0.47432
0.508194
0.549332
0.600392
0.665249
0.749564
0.369745
0.364146
0.358751
0.353824
0.349727
0.3467
0.344807
0.344019
0.344268
0.34549
0.34768
0.350941
0.355546
0.362012
0.371223
0.384596
0.404335
0.433615
0.370289
0.365244
0.360253
0.355432
0.350911
0.3468
0.343155
0.339981
0.337255
0.33494
0.333004
0.331438
0.330275
0.329615
0.329666
0.33082
0.333772
0.339644
0.370518
0.365852
0.361259
0.356774
0.35245
0.348338
0.344471
0.340865
0.337522
0.334431
0.331579
0.328953
0.32655
0.324373
0.322446
0.320826
0.319632
0.319087
0.370606
0.366141
0.36181
0.357612
0.353556
0.349657
0.345931
0.342389
0.339041
0.33589
0.332939
0.330188
0.32764
0.325296
0.323158
0.321221
0.319479
0.317917
0.370636
0.366261
0.362075
0.358061
0.354208
0.350513
0.346977
0.343604
0.340403
0.337378
0.33454
0.331896
0.329459
0.327239
0.325243
0.323469
0.321906
0.320518
0.370644
0.366306
0.362188
0.358273
0.354544
0.35099
0.347605
0.344386
0.341336
0.338461
0.335769
0.333273
0.330988
0.328929
0.327109
0.325536
0.324209
0.323105
0.370646
0.366321
0.362233
0.358363
0.354699
0.351226
0.347935
0.344821
0.341883
0.339126
0.336556
0.334184
0.332027
0.330099
0.328418
0.326996
0.325838
0.324936
0.370646
0.366326
0.362249
0.3584
0.354765
0.351332
0.348092
0.345038
0.342168
0.339485
0.336995
0.334706
0.332632
0.330789
0.329191
0.327853
0.326784
0.325982
0.370646
0.366328
0.362256
0.358415
0.354792
0.351376
0.348158
0.345131
0.342294
0.339647
0.337194
0.334945
0.332909
0.331099
0.32953
0.328214
0.327161
0.326372
0.370646
0.366328
0.362259
0.358423
0.354806
0.351399
0.348192
0.345179
0.342358
0.339728
0.337294
0.33506
0.333037
0.331234
0.329662
0.328333
0.327254
0.326429
0.370645
0.366329
0.362262
0.358429
0.354817
0.351415
0.348214
0.345209
0.342395
0.339772
0.337342
0.335109
0.333079
0.33126
0.329659
0.328285
0.327144
0.326237
0.370645
0.366329
0.362264
0.358434
0.354825
0.351428
0.348232
0.345231
0.34242
0.339799
0.337366
0.335123
0.333075
0.331225
0.329578
0.328138
0.32691
0.325895
0.370644
0.366328
0.362265
0.358437
0.354833
0.351439
0.348248
0.345251
0.342443
0.339821
0.337383
0.335128
0.333058
0.331172
0.329474
0.327962
0.326639
0.325507
0.370643
0.366327
0.362264
0.358439
0.354838
0.351449
0.348263
0.345271
0.342467
0.339845
0.337403
0.335137
0.333045
0.331126
0.329379
0.3278
0.326389
0.325149
0.370641
0.366323
0.362261
0.358438
0.354841
0.351458
0.348278
0.345292
0.342493
0.339874
0.337431
0.335157
0.333049
0.331102
0.329314
0.327678
0.326193
0.324863
0.370638
0.366317
0.362254
0.358434
0.354841
0.351464
0.348292
0.345314
0.342522
0.339909
0.337467
0.33519
0.333071
0.331105
0.329285
0.327606
0.326064
0.324663
0.370634
0.366311
0.362248
0.35843
0.354842
0.351471
0.348306
0.345336
0.342552
0.339945
0.337506
0.335228
0.333104
0.331126
0.329289
0.327584
0.326007
0.324565
0.370631
0.366308
0.362245
0.35843
0.354847
0.351482
0.348324
0.345361
0.342584
0.339982
0.337546
0.335269
0.333143
0.331158
0.329309
0.327588
0.325989
0.324521
0.370629
0.366306
0.362246
0.358435
0.354856
0.351496
0.348342
0.345384
0.342609
0.340009
0.337574
0.335295
0.333163
0.331171
0.32931
0.327574
0.325955
0.324464
0.370629
0.366305
0.362248
0.358438
0.35486
0.351498
0.348339
0.345371
0.342583
0.339965
0.337507
0.335201
0.333039
0.331013
0.329115
0.327338
0.325678
0.324142
0.370628
0.366303
0.362238
0.358413
0.354808
0.351411
0.348209
0.345191
0.342345
0.339662
0.337135
0.334755
0.332517
0.330412
0.328435
0.326579
0.324838
0.323223
0.37062
0.36627
0.362157
0.35825
0.35453
0.35099
0.347628
0.344437
0.341416
0.338561
0.335867
0.333331
0.330946
0.328706
0.326603
0.324631
0.322784
0.321072
0.370574
0.3661
0.361798
0.357651
0.353654
0.349817
0.346158
0.342693
0.339427
0.336364
0.333501
0.330831
0.328347
0.326038
0.323891
0.321895
0.32004
0.31833
0.370376
0.365534
0.360713
0.355944
0.351338
0.347002
0.342993
0.339334
0.336026
0.33306
0.330413
0.328059
0.325968
0.324112
0.322461
0.320988
0.319668
0.318488
0.369705
0.364248
0.358402
0.352587
0.34737
0.343014
0.339572
0.33702
0.335299
0.334327
0.334003
0.334224
0.334888
0.335892
0.337148
0.338577
0.340114
0.341708
0.365807
0.354673
0.345291
0.339659
0.338124
0.340415
0.34609
0.354613
0.365402
0.377884
0.391529
0.405859
0.420463
0.434996
0.449188
0.462833
0.475811
0.487953
0.336636
0.302361
0.274009
0.250588
0.231407
0.215904
0.20361
0.194116
0.187048
0.182062
0.178838
0.177087
0.176542
0.176968
0.178155
0.179921
0.182113
0.184596
0.1795
0.27163
0.377354
0.465079
0.49333
0.501083
0.502802
0.502567
0.502215
0.502648
0.504391
0.506786
0.506659
0.501696
0.489076
0.464976
0.424109
0.359784
0.267841
0.168385
0.138697
0.137618
0.183984
0.234146
0.265968
0.273238
0.27181
0.262719
0.247569
0.235818
0.226141
0.230393
0.29155
0.474665
0.655421
0.809744
0.941221
1.0499
1.13713
1.20491
1.25543
1.29088
1.31337
1.32478
1.32687
1.32116
1.30901
1.29162
1.27002
1.24507
1.21751
1.18797
1.15843
1.12903
1.09977
1.07069
1.04182
1.0132
0.984838
0.956747
0.92891
0.901295
0.87385
0.846496
0.819127
0.791614
0.763799
0.735512
0.706578
0.676839
0.646176
0.614538
0.581962
0.548587
0.514656
0.480499
0.446507
0.413095
0.380697
0.349877
0.321641
0.298396
0.286313
0.280582
0.276178
0.272536
0.269532
0.267113
0.26524
0.263876
0.262984
0.262523
0.262452
0.262729
0.263306
0.264123
0.265111
0.266178
0.267174
0.267762
0.267261
0.264898
0.259791
0.251348
0.239693
0.225887
0.211846
0.199768
0.191318
0.187074
0.186571
0.188807
0.192922
0.198105
0.203431
0.208913
0.214977
0.221943
0.22971
0.237665
0.244964
0.251136
0.256749
0.262543
0.270441
0.291692
0.356809
0.486731
0.602261
0.695644
0.767051
0.819196
0.855258
0.878303
0.891166
0.896549
0.897166
0.893327
0.885123
0.87296
0.856953
0.836972
0.81268
0.783593
0.749256
0.709733
0.667374
0.634471
0.638096
0.648096
0.658008
0.668796
0.681653
0.697416
0.716427
0.73861
0.763801
0.791481
0.815123
0.816205
0.777894
0.691552
0.569511
0.45153
0.378183
0.347303
0.331031
0.294213
0.242208
0.212057
0.196305
0.190806
0.181364
0.178665
0.182052
0.188522
0.197895
0.212757
0.212994
0.211223
0.197361
0.491193
0.686467
0.69389
0.666955
0.636658
0.603426
0.567804
0.532577
0.500134
0.471766
0.448101
0.429434
0.416359
0.408692
0.405075
0.402257
0.39446
0.374315
0.340617
0.306376
0.280755
0.294479
0.37475
0.453598
0.476473
0.515957
0.644492
0.806553
0.887364
0.888346
0.868477
0.853383
0.849737
0.843391
0.831957
0.816872
0.799748
0.782064
0.764996
0.749403
0.735876
0.724787
0.716343
0.710628
0.707644
0.707342
0.709654
0.714519
0.721881
0.731656
0.743676
0.756236
0.769111
0.782294
0.795794
0.809635
0.823841
0.838434
0.853416
0.868756
0.884376
0.900131
0.915792
0.931028
0.945385
0.958286
0.969034
0.976839
0.98087
0.980335
0.97457
0.96314
0.945913
0.923095
0.895223
0.863101
0.827693
0.78998
0.750835
0.711063
0.671113
0.635399
0.603897
0.574649
0.547437
0.522164
0.49873
0.477023
0.456924
0.43831
0.421063
0.405065
0.390209
0.376396
0.363538
0.351553
0.340359
0.329887
0.320098
0.310775
0.301193
0.29151
0.28299
0.276768
0.274081
0.276211
0.284092
0.297902
0.316766
0.338663
0.360521
0.378439
0.388712
0.389176
0.379467
0.361913
0.341485
0.324279
0.313981
0.311468
0.320732
0.358609
0.438576
0.540279
0.613775
0.654837
0.700346
0.750085
0.803071
0.85816
0.913652
0.968112
1.02077
1.07145
1.1205
1.16859
1.21575
1.26242
1.30829
1.35244
1.39327
1.42839
1.45454
1.46779
1.46396
1.43913
1.39219
1.33414
1.26605
1.19165
1.11529
1.04041
0.969356
0.903455
0.842904
0.787333
0.73736
0.693148
0.657321
0.638329
0.648989
0.71079
0.846327
1.04555
1.21296
1.20152
0.997114
0.736705
0.528479
0.408377
0.358252
0.321124
0.297056
0.288906
0.291359
0.300649
0.314969
0.326066
0.329926
0.378484
0.789172
0.752093
0.672773
0.618185
0.578101
0.541525
0.506098
0.473126
0.443936
0.419021
0.398365
0.381739
0.368323
0.358193
0.351918
0.349798
0.35109
0.354034
0.359219
0.372713
0.41119
0.506418
0.662841
0.871347
1.04683
1.04432
0.98416
0.928487
0.867904
0.808912
0.760561
0.725063
0.69985
0.680773
0.666582
0.656957
0.651663
0.650313
0.652299
0.65685
0.663167
0.67056
0.67855
0.686888
0.695503
0.704414
0.713649
0.723197
0.732989
0.742893
0.752678
0.76227
0.771687
0.78101
0.790381
0.799998
0.810094
0.820924
0.832741
0.845772
0.86019
0.87608
0.893412
0.912001
0.931475
0.95125
0.97052
0.988268
1.00332
1.01443
1.02042
1.02033
1.01352
0.999831
0.979546
0.953377
0.922327
0.887509
0.849956
0.810549
0.770147
0.733818
0.700269
0.668702
0.639073
0.611351
0.585474
0.561356
0.538896
0.517983
0.498507
0.480358
0.463437
0.447652
0.432922
0.419178
0.406361
0.394417
0.383313
0.372984
0.363252
0.353942
0.344654
0.335627
0.32763
0.321168
0.316631
0.314209
0.313863
0.31537
0.31835
0.322213
0.326102
0.328949
0.329743
0.328348
0.326721
0.329371
0.342518
0.373726
0.438161
0.542696
0.658924
0.7229
0.74257
0.779834
0.846362
0.928524
1.01136
1.08495
1.14664
1.19871
1.24484
1.28807
1.33002
1.37097
1.41178
1.45298
1.4944
1.53536
1.57439
1.60898
1.63546
1.64916
1.64482
1.61695
1.566
1.49988
1.42073
1.33397
1.24492
1.1578
1.07552
0.999694
0.930954
0.86942
0.815213
0.767099
0.722888
0.680821
0.646899
0.63416
0.660876
0.742457
0.881341
1.04419
1.14528
1.09687
0.917071
0.725301
0.602276
0.529728
0.484094
0.460882
0.450807
0.448633
0.448969
0.443032
0.42519
0.583794
0.714446
0.653541
0.629039
0.611977
0.5825
0.542064
0.498372
0.457154
0.421311
0.391847
0.368355
0.349646
0.335056
0.324195
0.317605
0.317272
0.327018
0.352753
0.409694
0.54133
0.787439
1.09255
1.32948
1.23089
1.06252
0.933441
0.835078
0.760736
0.704027
0.663119
0.636551
0.62174
0.615648
0.615773
0.620602
0.62896
0.639732
0.651805
0.664165
0.67605
0.687062
0.697152
0.706492
0.715318
0.723799
0.731985
0.739804
0.7471
0.753691
0.759214
0.763246
0.76569
0.766563
0.766002
0.764273
0.761774
0.759022
0.756627
0.755255
0.755583
0.758252
0.763813
0.772671
0.78503
0.800841
0.819751
0.84107
0.863754
0.886436
0.907507
0.925254
0.938056
0.944601
0.944063
0.936213
0.921406
0.900475
0.874508
0.844569
0.811528
0.777732
0.746542
0.716675
0.688167
0.661134
0.635621
0.611619
0.589085
0.567954
0.548148
0.529585
0.512185
0.495872
0.480578
0.466241
0.452814
0.440262
0.428564
0.417702
0.407644
0.398332
0.389652
0.381458
0.373664
0.366189
0.359277
0.353138
0.347858
0.343365
0.339483
0.335982
0.33269
0.329589
0.326996
0.325732
0.327324
0.334745
0.353609
0.393495
0.466889
0.576055
0.695826
0.769308
0.786282
0.81613
0.890319
0.990965
1.09244
1.17838
1.24485
1.29567
1.33628
1.37068
1.40095
1.42796
1.45221
1.47564
1.4992
1.52336
1.54814
1.57283
1.59554
1.61299
1.6205
1.61229
1.58253
1.53397
1.46903
1.39124
1.30605
1.21888
1.13415
1.05483
0.982619
0.918224
0.861818
0.813223
0.772017
0.737041
0.705092
0.67322
0.644504
0.626087
0.631262
0.681186
0.795345
0.965709
1.12422
1.16015
1.05339
0.910358
0.804678
0.742271
0.706583
0.681507
0.661567
0.635548
0.598962
0.548764
0.816142
0.670619
0.671962
0.688562
0.666218
0.614149
0.550184
0.487571
0.433291
0.389576
0.356009
0.33107
0.315336
0.305836
0.300042
0.297841
0.303818
0.331648
0.412692
0.596574
0.877023
1.197
1.33532
1.20487
1.00572
0.850681
0.746097
0.67657
0.631843
0.605327
0.59282
0.590923
0.596647
0.607555
0.621864
0.638252
0.655573
0.672819
0.689237
0.70444
0.718407
0.731359
0.743596
0.755367
0.766804
0.777905
0.788551
0.798526
0.807549
0.815297
0.820486
0.822461
0.820876
0.815551
0.8065
0.793963
0.778427
0.760622
0.741503
0.722207
0.703992
0.68815
0.675919
0.668379
0.666356
0.670336
0.680401
0.69618
0.716819
0.740978
0.766873
0.792391
0.815287
0.833466
0.845267
0.849707
0.846569
0.836357
0.820034
0.798674
0.773379
0.747949
0.72288
0.698231
0.674329
0.65138
0.629496
0.608718
0.589047
0.570455
0.552899
0.536329
0.520693
0.50594
0.492025
0.478908
0.466559
0.454956
0.444085
0.433934
0.424488
0.415723
0.407579
0.399956
0.392751
0.385883
0.379354
0.373215
0.367506
0.362233
0.357317
0.352626
0.348038
0.343679
0.340239
0.33938
0.344187
0.35984
0.39473
0.46012
0.562649
0.685377
0.777505
0.805073
0.820554
0.885027
0.992978
1.11152
1.21479
1.29325
1.34962
1.39031
1.42019
1.44191
1.45686
1.466
1.47051
1.47303
1.47505
1.47777
1.48205
1.48811
1.49489
1.49983
1.4986
1.48524
1.45613
1.41126
1.35123
1.27945
1.20099
1.12102
1.04384
0.972389
0.90829
0.85218
0.804088
0.763765
0.730908
0.704865
0.683797
0.664281
0.642493
0.620554
0.60545
0.61062
0.6598
0.781444
0.97708
1.17048
1.2441
1.18997
1.09864
1.03224
0.996394
0.970998
0.933967
0.869525
0.78724
0.697742
0.969394
0.705497
0.761274
0.768132
0.715514
0.632005
0.543374
0.465568
0.404578
0.360159
0.330584
0.316671
0.312904
0.311179
0.310294
0.318225
0.352382
0.439475
0.606452
0.847571
1.09248
1.19815
1.09971
0.925624
0.779025
0.681515
0.622796
0.590689
0.577009
0.576258
0.584599
0.599195
0.617951
0.639315
0.662067
0.685199
0.707923
0.729762
0.750565
0.770442
0.789642
0.808437
0.827043
0.845574
0.864017
0.882226
0.899912
0.916655
0.931912
0.945065
0.953677
0.957251
0.955172
0.94697
0.932399
0.911495
0.884621
0.852503
0.816242
0.777312
0.737506
0.698854
0.66347
0.63337
0.610269
0.5954
0.589412
0.592328
0.60357
0.621988
0.645868
0.672979
0.700695
0.726252
0.747115
0.761399
0.768095
0.767175
0.759268
0.745386
0.728008
0.709296
0.689744
0.669968
0.650402
0.631318
0.612883
0.595186
0.578265
0.562129
0.546769
0.532162
0.518282
0.505103
0.492597
0.480741
0.469517
0.458909
0.448907
0.439498
0.430668
0.42239
0.414618
0.407284
0.400319
0.393672
0.387332
0.38132
0.37567
0.370395
0.36548
0.360896
0.356671
0.353053
0.350895
0.352216
0.361034
0.384332
0.432735
0.517617
0.63652
0.751734
0.809213
0.816842
0.853385
0.950756
1.07965
1.20296
1.30046
1.37004
1.41789
1.44994
1.4696
1.47868
1.47855
1.47059
1.45674
1.43997
1.42218
1.40513
1.39029
1.37877
1.37046
1.36328
1.35352
1.3363
1.30825
1.26703
1.21269
1.14796
1.07728
1.00549
0.936665
0.873647
0.817961
0.77014
0.730098
0.697462
0.671786
0.65249
0.638474
0.627721
0.616976
0.60362
0.59003
0.583493
0.599225
0.664317
0.809641
1.02749
1.23117
1.32773
1.32549
1.29119
1.26298
1.23743
1.19186
1.10129
0.977541
0.848395
1.01367
0.75732
0.8423
0.828529
0.747481
0.639629
0.538018
0.456624
0.399178
0.363623
0.346932
0.341024
0.339857
0.343734
0.358684
0.397365
0.476298
0.607941
0.784333
0.953236
1.02457
0.96524
0.838656
0.719336
0.63707
0.590327
0.569343
0.565784
0.573986
0.590203
0.611956
0.637517
0.665564
0.695011
0.724989
0.754878
0.784332
0.813245
0.841677
0.869788
0.897769
0.925796
0.953981
0.982322
1.01067
1.03868
1.06582
1.09138
1.11449
1.13332
1.14653
1.15339
1.15305
1.14474
1.12791
1.10227
1.06783
1.02499
0.974548
0.917812
0.856682
0.793671
0.731831
0.674486
0.624801
0.585303
0.557524
0.541914
0.538023
0.54476
0.560523
0.58319
0.610087
0.638108
0.663993
0.684942
0.699048
0.705513
0.704497
0.697418
0.686621
0.673376
0.658636
0.643115
0.627307
0.611543
0.596035
0.580915
0.566261
0.552117
0.538505
0.525436
0.512909
0.500922
0.489469
0.478542
0.468136
0.458241
0.448851
0.439952
0.431528
0.423553
0.415989
0.408791
0.401913
0.39533
0.389047
0.3831
0.377545
0.372433
0.367809
0.363734
0.36036
0.358089
0.357895
0.362027
0.375189
0.405738
0.465534
0.563722
0.687175
0.786065
0.819384
0.826245
0.883777
1.00466
1.14482
1.26614
1.35662
1.41891
1.46001
1.48466
1.49525
1.49333
1.4806
1.45885
1.43062
1.3988
1.36558
1.33289
1.30266
1.27649
1.25556
1.23776
1.22099
1.20077
1.17312
1.13518
1.08632
1.0284
0.965181
0.901028
0.839811
0.78425
0.73581
0.69495
0.661486
0.634922
0.614675
0.600119
0.590412
0.584303
0.580341
0.57542
0.569307
0.564636
0.569076
0.600533
0.687652
0.853595
1.07475
1.2728
1.3882
1.4296
1.43141
1.40849
1.35429
1.25396
1.10886
0.957561
0.995236
0.815713
0.903639
0.870031
0.768642
0.652201
0.554389
0.482849
0.433171
0.401837
0.387902
0.383035
0.38906
0.408748
0.448397
0.515519
0.613109
0.729563
0.830083
0.87052
0.83617
0.755238
0.669871
0.60691
0.572045
0.560012
0.563918
0.57862
0.600834
0.628484
0.660099
0.69446
0.730508
0.767385
0.804469
0.84137
0.877895
0.914016
0.94984
0.985575
1.02147
1.05774
1.09448
1.13161
1.16881
1.20554
1.24099
1.27421
1.30408
1.32803
1.34581
1.35639
1.35873
1.35197
1.33545
1.3088
1.27189
1.22481
1.16786
1.10159
1.02698
0.945809
0.861005
0.776775
0.69818
0.630154
0.576303
0.538158
0.515386
0.506623
0.510092
0.523762
0.545128
0.571132
0.598104
0.622403
0.641371
0.653214
0.657773
0.656547
0.651134
0.642733
0.632315
0.620622
0.608185
0.595373
0.582435
0.569536
0.556789
0.544272
0.53204
0.520133
0.508581
0.49741
0.486636
0.476272
0.466329
0.456809
0.447712
0.439032
0.430755
0.422859
0.415316
0.408093
0.401165
0.394528
0.388205
0.382253
0.376756
0.371806
0.367513
0.364027
0.361617
0.360821
0.362751
0.369867
0.387373
0.424415
0.492884
0.598287
0.718897
0.802044
0.823501
0.837861
0.911241
1.04134
1.18267
1.3017
1.38884
1.44618
1.48234
1.50123
1.50479
1.49467
1.47287
1.44154
1.40346
1.36112
1.31703
1.273
1.23127
1.19323
1.16187
1.13581
1.11277
1.08932
1.06163
1.02657
0.982756
0.931155
0.874722
0.817343
0.762661
0.713328
0.6708
0.635522
0.607265
0.585445
0.569353
0.558246
0.551297
0.547529
0.546034
0.545785
0.545383
0.545603
0.549101
0.564952
0.613126
0.717715
0.886855
1.08864
1.26516
1.37899
1.42736
1.41947
1.3619
1.26178
1.1258
0.982174
0.946472
0.872592
0.952587
0.901946
0.791526
0.676867
0.586956
0.524764
0.483968
0.46105
0.449147
0.450771
0.467472
0.500741
0.551305
0.615774
0.682923
0.734094
0.751783
0.731233
0.683844
0.629837
0.587012
0.563477
0.558381
0.567323
0.586295
0.612662
0.644733
0.681182
0.72077
0.762339
0.804893
0.847667
0.89014
0.932033
0.973307
1.01414
1.05488
1.09592
1.13764
1.18026
1.22376
1.26789
1.31213
1.35568
1.39754
1.43649
1.4712
1.49935
1.52066
1.53396
1.53805
1.53196
1.51502
1.48699
1.44805
1.3987
1.33951
1.27085
1.19278
1.10537
1.00953
0.908062
0.806316
0.71154
0.630817
0.568479
0.525133
0.499163
0.488286
0.490376
0.503077
0.523631
0.548422
0.572957
0.594369
0.609287
0.618185
0.621735
0.620939
0.616831
0.610325
0.602146
0.592831
0.58276
0.572202
0.561346
0.55033
0.539258
0.528215
0.51727
0.506483
0.495905
0.485579
0.475542
0.465821
0.456438
0.447405
0.438727
0.430399
0.42241
0.414743
0.40738
0.40031
0.393543
0.38712
0.381114
0.375632
0.37081
0.366817
0.363888
0.362395
0.363001
0.366953
0.376903
0.39834
0.440606
0.514712
0.622481
0.737087
0.808742
0.826657
0.84918
0.93052
1.06141
1.19943
1.31466
1.39845
1.45416
1.48816
1.50395
1.50345
1.48857
1.46147
1.42454
1.38049
1.33089
1.27911
1.22689
1.17663
1.13046
1.09034
1.05657
1.02772
1.00115
0.97338
0.94102
0.901946
0.856159
0.805799
0.754272
0.705049
0.660784
0.622999
0.59219
0.568137
0.55021
0.537588
0.52939
0.524692
0.522532
0.522106
0.523266
0.525273
0.528219
0.533098
0.542919
0.568901
0.629458
0.737662
0.887338
1.04736
1.17787
1.25216
1.26205
1.2131
1.12253
1.01766
0.9081
0.891441
0.924753
0.997668
0.932922
0.815979
0.704497
0.622847
0.570676
0.540294
0.523916
0.518576
0.526154
0.545759
0.574893
0.608772
0.640245
0.661384
0.666443
0.654329
0.629256
0.599583
0.574866
0.561828
0.562218
0.574306
0.595637
0.624371
0.659194
0.698892
0.742161
0.787676
0.834238
0.880881
0.926941
0.972084
1.01632
1.05994
1.10344
1.14738
1.19221
1.23827
1.2856
1.33404
1.38312
1.43215
1.48018
1.52603
1.56832
1.60546
1.63592
1.65921
1.67408
1.67918
1.67325
1.65535
1.62504
1.58261
1.52914
1.46618
1.39518
1.31671
1.23012
1.13415
1.02855
0.916076
0.80372
0.701343
0.617414
0.554725
0.51213
0.48689
0.476788
0.479537
0.492637
0.513108
0.535362
0.556145
0.573071
0.585128
0.592333
0.595303
0.594864
0.591814
0.586815
0.580372
0.572854
0.564528
0.555594
0.546205
0.536485
0.526543
0.516474
0.506363
0.496285
0.486309
0.476494
0.466888
0.457531
0.448452
0.439672
0.431199
0.423036
0.415179
0.407625
0.400377
0.393459
0.38692
0.380847
0.375369
0.370657
0.366932
0.364504
0.363836
0.365688
0.371428
0.38384
0.408468
0.454372
0.531272
0.638104
0.746161
0.810791
0.829417
0.85751
0.939771
1.06567
1.19774
1.30898
1.39095
1.44613
1.47942
1.49404
1.49213
1.47569
1.44669
1.40743
1.36037
1.30742
1.25082
1.19277
1.13574
1.08239
1.03498
0.994643
0.960943
0.931967
0.904578
0.875124
0.840675
0.800249
0.755204
0.708548
0.663681
0.623368
0.589276
0.562019
0.541424
0.52683
0.517322
0.511867
0.509399
0.50887
0.509407
0.510774
0.513114
0.516435
0.521216
0.528394
0.54222
0.57489
0.638355
0.732926
0.843838
0.944964
1.01019
1.02475
0.989844
0.920694
0.840699
0.771817
0.832155
0.972378
1.04348
0.968162
0.845662
0.735909
0.659776
0.613849
0.588419
0.573633
0.569045
0.572536
0.581416
0.592455
0.602307
0.608196
0.608465
0.602792
0.592296
0.579768
0.569446
0.565576
0.570592
0.584722
0.607103
0.636778
0.672853
0.714259
0.75967
0.807623
0.856718
0.905789
0.95402
1.00102
1.0468
1.09176
1.13648
1.18163
1.22778
1.2753
1.32436
1.37483
1.42633
1.47817
1.52944
1.57898
1.62549
1.66757
1.70302
1.73211
1.7542
1.76827
1.77308
1.76719
1.74918
1.71794
1.67315
1.61568
1.54774
1.47225
1.39152
1.30591
1.21355
1.11182
0.99974
0.881446
0.76683
0.668359
0.591036
0.534912
0.497233
0.476022
0.469293
0.474473
0.488434
0.507158
0.526756
0.544305
0.558191
0.567938
0.573801
0.57636
0.576255
0.574045
0.570172
0.564971
0.558693
0.551534
0.543654
0.535194
0.52628
0.517027
0.507543
0.497926
0.488266
0.478642
0.469123
0.459767
0.450619
0.441717
0.433085
0.424741
0.416696
0.408962
0.401555
0.394508
0.387881
0.38177
0.376319
0.371724
0.368255
0.366276
0.366332
0.369245
0.376482
0.390872
0.417804
0.465751
0.543097
0.64699
0.749164
0.810264
0.831265
0.861673
0.939513
1.05644
1.18071
1.2878
1.36871
1.42429
1.45821
1.47342
1.47216
1.45633
1.4279
1.38869
1.3407
1.28595
1.22634
1.16412
1.10199
1.04298
0.989904
0.944622
0.907561
0.877493
0.851493
0.825504
0.795719
0.760189
0.719603
0.676725
0.635051
0.597578
0.566207
0.541708
0.523966
0.512286
0.50563
0.502804
0.502577
0.503789
0.505486
0.507173
0.509119
0.511603
0.514882
0.519406
0.526374
0.54164
0.575327
0.630521
0.698405
0.762429
0.804786
0.814006
0.790153
0.743789
0.689967
0.641341
0.771273
1.0132
1.08912
1.00953
0.88334
0.772411
0.695565
0.647449
0.615802
0.596261
0.584716
0.578379
0.575222
0.573814
0.573235
0.572904
0.572376
0.571386
0.570275
0.570425
0.574031
0.583168
0.599025
0.621942
0.651799
0.688154
0.730159
0.776554
0.82582
0.876419
0.927003
0.976588
1.02466
1.07119
1.11657
1.16146
1.20659
1.25265
1.30016
1.3494
1.4004
1.45284
1.50602
1.55885
1.60993
1.65768
1.70053
1.73712
1.76618
1.78879
1.80497
1.81427
1.81588
1.80853
1.79059
1.76024
1.71605
1.65777
1.58707
1.50761
1.42354
1.33708
1.24724
1.15123
1.04506
0.929592
0.811761
0.70768
0.622718
0.558031
0.511719
0.481578
0.466173
0.463952
0.472218
0.487187
0.504881
0.522085
0.536799
0.548174
0.55615
0.561066
0.563383
0.563537
0.561887
0.558715
0.554245
0.548662
0.54213
0.534799
0.526809
0.518294
0.509382
0.500188
0.490821
0.481379
0.471946
0.462599
0.453399
0.444397
0.435635
0.427144
0.418951
0.411081
0.403564
0.396441
0.389779
0.383681
0.378299
0.37385
0.370634
0.369071
0.369738
0.373523
0.381948
0.39781
0.426186
0.474794
0.550844
0.650728
0.748076
0.808061
0.831821
0.861761
0.931479
1.0366
1.15143
1.2538
1.33378
1.3904
1.42602
1.44319
1.44403
1.43037
1.4039
1.36598
1.31823
1.26266
1.20116
1.13608
1.07037
1.00742
0.950555
0.902326
0.863909
0.834575
0.811373
0.789625
0.764561
0.733347
0.696192
0.655863
0.616154
0.580435
0.550902
0.52849
0.513118
0.504002
0.499937
0.499523
0.501357
0.504182
0.507012
0.50926
0.51088
0.512278
0.513641
0.515184
0.517333
0.522187
0.536128
0.56464
0.603777
0.641897
0.666724
0.670912
0.654745
0.6248
0.59002
0.557354
0.710144
1.03844
1.12662
1.05071
0.923481
0.80827
0.724536
0.666234
0.626523
0.599214
0.580268
0.567427
0.559497
0.555808
0.555783
0.558661
0.563514
0.569616
0.57694
0.586357
0.599289
0.617121
0.640825
0.670888
0.707293
0.749463
0.796298
0.846326
0.897947
0.949668
1.00031
1.04918
1.09609
1.14136
1.18564
1.22972
1.27438
1.3203
1.36796
1.41762
1.4692
1.52212
1.57528
1.627
1.67525
1.71785
1.75282
1.77907
1.79726
1.80919
1.81556
1.81658
1.81191
1.80069
1.78145
1.75209
1.71043
1.65478
1.58541
1.50548
1.42003
1.33291
1.24374
1.15234
1.05285
0.944843
0.834349
0.731321
0.643672
0.574298
0.522264
0.486003
0.464656
0.457151
0.461127
0.472987
0.488804
0.505277
0.520229
0.532587
0.542059
0.548777
0.553029
0.555122
0.555322
0.553855
0.55091
0.546662
0.541272
0.534898
0.527695
0.519811
0.511388
0.502561
0.493452
0.484175
0.474829
0.465503
0.456274
0.447206
0.438353
0.429763
0.421473
0.413523
0.405952
0.398811
0.392173
0.386143
0.380878
0.376604
0.373642
0.372442
0.373609
0.378074
0.387383
0.404239
0.433322
0.481531
0.555124
0.65054
0.744113
0.804582
0.831072
0.858685
0.918003
1.00931
1.11303
1.20949
1.28799
1.3457
1.38353
1.40341
1.40718
1.39647
1.37266
1.33666
1.28986
1.23425
1.17185
1.10518
1.03744
0.972396
0.913875
0.865055
0.827696
0.801281
0.782483
0.765755
0.745309
0.717582
0.682603
0.643451
0.604459
0.569488
0.541053
0.520214
0.506852
0.500011
0.498233
0.499866
0.503326
0.507295
0.510836
0.513432
0.514894
0.515396
0.515101
0.514026
0.51235
0.51087
0.512701
0.522943
0.542424
0.564519
0.580073
0.583238
0.573539
0.55444
0.530899
0.506867
0.65336
1.03659
1.14333
1.08022
0.956879
0.837976
0.745099
0.678456
0.631492
0.598374
0.575586
0.56116
0.553901
0.552812
0.556758
0.564431
0.574609
0.586572
0.600387
0.616856
0.637149
0.662384
0.693343
0.730308
0.772971
0.820441
0.871375
0.924189
0.977291
1.02931
1.07928
1.12678
1.17193
1.21527
1.25758
1.29973
1.34249
1.3865
1.43224
1.47994
1.5294
1.57987
1.62991
1.67742
1.71986
1.7545
1.77903
1.79244
1.79786
1.79764
1.79291
1.78426
1.77173
1.75487
1.73255
1.70266
1.66306
1.61129
1.54616
1.46969
1.38666
1.30183
1.21688
1.12966
1.03615
0.935194
0.831276
0.7329
0.647526
0.57814
0.524368
0.485462
0.461248
0.451029
0.452614
0.462537
0.476997
0.492783
0.507726
0.520673
0.531193
0.53926
0.545013
0.548637
0.550312
0.550206
0.548479
0.545293
0.54081
0.535195
0.528614
0.521229
0.513195
0.50466
0.49576
0.486619
0.477349
0.46805
0.45881
0.449704
0.440799
0.432152
0.423814
0.415833
0.408259
0.401152
0.394588
0.388674
0.383565
0.379488
0.376776
0.375873
0.377418
0.382366
0.392256
0.409667
0.438855
0.485922
0.556375
0.647245
0.737948
0.800013
0.82933
0.853816
0.901679
0.977813
1.06868
1.15752
1.23324
1.29135
1.33125
1.35398
1.36092
1.35341
1.33251
1.29877
1.25346
1.19856
1.13625
1.06929
1.00116
0.936035
0.878243
0.831506
0.797913
0.776753
0.763913
0.752735
0.73644
0.711006
0.676684
0.637238
0.597768
0.5627
0.534827
0.515244
0.503671
0.498862
0.499013
0.50217
0.506579
0.51092
0.514395
0.516689
0.517773
0.517538
0.516041
0.513157
0.508809
0.503388
0.498447
0.497391
0.503072
0.513724
0.523642
0.527586
0.523517
0.512176
0.49579
0.476587
0.621266
0.997248
1.12889
1.08841
0.976605
0.857721
0.760501
0.688609
0.637123
0.601147
0.577451
0.563954
0.559053
0.561215
0.568853
0.580469
0.594955
0.611869
0.631489
0.654615
0.682214
0.715092
0.753662
0.797808
0.846852
0.899624
0.95456
1.01002
1.06449
1.11673
1.16594
1.21191
1.25496
1.29575
1.33514
1.37397
1.41296
1.45275
1.49389
1.53624
1.57966
1.62338
1.6659
1.70509
1.73821
1.76233
1.77529
1.77703
1.77144
1.76069
1.74599
1.72822
1.70783
1.6848
1.65848
1.6274
1.58929
1.5413
1.48148
1.41065
1.3326
1.2518
1.17037
1.08685
0.998132
0.903333
0.806521
0.715118
0.635285
0.569272
0.517007
0.478598
0.454476
0.444094
0.445246
0.454534
0.468355
0.483725
0.498628
0.51195
0.523205
0.532253
0.539119
0.543885
0.546658
0.547561
0.546731
0.544321
0.540495
0.535427
0.529293
0.522264
0.514508
0.506183
0.497433
0.488392
0.479181
0.469908
0.460668
0.451546
0.442617
0.433948
0.4256
0.417629
0.410094
0.403059
0.396605
0.390838
0.385908
0.382035
0.379541
0.378869
0.380668
0.385899
0.396071
0.413626
0.442417
0.487822
0.554775
0.641199
0.729744
0.794285
0.826941
0.848557
0.885004
0.945271
1.02166
1.10075
1.17175
1.22884
1.26998
1.29513
1.30503
1.30059
1.28259
1.25131
1.20795
1.15451
1.09335
1.02747
0.960743
0.897769
0.843378
0.801673
0.774687
0.76101
0.755328
0.74971
0.736544
0.711761
0.676332
0.635106
0.594128
0.558373
0.530797
0.512372
0.502504
0.49952
0.501179
0.505205
0.509714
0.513466
0.515896
0.516985
0.516995
0.51593
0.513561
0.509683
0.50397
0.496495
0.488189
0.481241
0.478449
0.480744
0.485793
0.489713
0.489494
0.483762
0.472625
0.456994
0.617418
0.939642
1.07913
1.06873
0.98158
0.87203
0.774182
0.698779
0.644325
0.606851
0.583142
0.570817
0.567876
0.572457
0.582851
0.597691
0.61617
0.638143
0.664023
0.694516
0.730284
0.771685
0.818716
0.870888
0.927304
0.986922
1.04703
1.10568
1.16196
1.21482
1.26362
1.30826
1.34911
1.38689
1.42241
1.45641
1.48951
1.52223
1.55497
1.58775
1.62039
1.6523
1.68233
1.70884
1.72969
1.74256
1.74551
1.73925
1.72593
1.70724
1.6847
1.65957
1.6327
1.6044
1.5743
1.54124
1.50307
1.45698
1.40082
1.33487
1.26208
1.18612
1.10874
1.02882
0.944177
0.854977
0.765612
0.682505
0.610055
0.54951
0.501163
0.465913
0.444492
0.436184
0.438596
0.44839
0.462243
0.477508
0.492429
0.506007
0.517755
0.527468
0.535084
0.540612
0.544108
0.545665
0.545408
0.543486
0.540069
0.535338
0.529477
0.522667
0.515082
0.506885
0.49823
0.489254
0.480083
0.470831
0.461599
0.452478
0.443549
0.434886
0.426557
0.418627
0.411159
0.404225
0.397905
0.392305
0.387567
0.383898
0.381592
0.381084
0.383014
0.388329
0.39849
0.415788
0.44372
0.487044
0.55026
0.632334
0.719235
0.787121
0.824241
0.844228
0.870126
0.91427
0.974552
1.04143
1.10518
1.15921
1.20015
1.22681
1.23909
1.2374
1.22219
1.19361