/*--------------------------------*- C++ -*----------------------------------*\
  =========                 |
  \\      /  F ield         | OpenFOAM: The Open Source CFD Toolbox
   \\    /   O peration     | Website:  https://openfoam.org
    \\  /    A nd           | Version:  9
     \\/     M anipulation  |
\*---------------------------------------------------------------------------*/
FoamFile
{
    format      ascii;
    class       volScalarField;
    location    "0.28";
    object      p;
}
// * * * * * * * * * * * * * * * * * * * * * * * * * * * * * * * * * * * * * //

dimensions      [0 2 -2 0 0 0 0];

internalField   nonuniform List<scalar> 
12225
(
0.639809
-0.494363
-0.97957
-0.985765
-0.914782
-0.824742
-0.672526
-0.440622
-0.1309
0.256457
0.726856
1.28734
1.9433
2.69633
3.54169
4.46396
5.43041
6.38777
-0.461538
-1.06684
-1.22572
-1.12815
-1.00618
-0.882447
-0.710456
-0.467758
-0.15269
0.235899
0.703904
1.25876
1.90626
2.64876
3.48303
4.39568
5.35824
6.31168
-0.600936
-0.821386
-1.00031
-1.00701
-0.937253
-0.837833
-0.685911
-0.462729
-0.167039
0.200439
0.643286
1.16662
1.77393
2.46526
3.23548
4.06997
4.94046
5.77036
-0.691038
-0.848242
-1.06227
-1.09572
-1.01712
-0.902454
-0.743931
-0.521604
-0.231945
0.123848
0.547646
1.04245
1.60904
2.24401
2.93801
3.67201
4.41247
5.09512
-0.798923
-0.929925
-1.10595
-1.12783
-1.0439
-0.926461
-0.771556
-0.5584
-0.281942
0.0560382
0.455643
0.917773
1.44078
2.01841
2.63803
3.27807
3.90397
4.47007
-0.909794
-1.00745
-1.13698
-1.15562
-1.08166
-0.969797
-0.820975
-0.618203
-0.356557
-0.0383796
0.334772
0.761801
1.23897
1.75788
2.30401
2.85535
3.37994
3.84078
-1.01782
-1.0861
-1.18096
-1.1992
-1.13515
-1.02782
-0.884031
-0.69203
-0.447066
-0.15144
0.192007
0.580393
1.00823
1.46558
1.937
2.40096
2.82878
3.18858
-1.12438
-1.17117
-1.23974
-1.25427
-1.19729
-1.09552
-0.959053
-0.780454
-0.555247
-0.285566
0.0246654
0.370974
0.746459
1.1402
1.53654
1.91511
2.2507
2.51686
-1.2316
-1.26314
-1.31084
-1.31983
-1.26925
-1.17567
-1.04945
-0.886638
-0.683703
-0.442836
-0.168821
0.132577
0.453433
0.782371
1.10414
1.40004
1.64835
1.82748
-1.34117
-1.36188
-1.39356
-1.39742
-1.35333
-1.26997
-1.15638
-1.01144
-0.833062
-0.623654
-0.38855
-0.134405
0.130228
0.393984
0.642492
0.858992
1.02502
1.12292
-1.45451
-1.46773
-1.48792
-1.48815
-1.45081
-1.37921
-1.28053
-1.15571
-1.00419
-0.82867
-0.634755
-0.42961
-0.222036
-0.0230093
0.154293
0.295183
0.38416
0.406858
-1.56316
-1.57194
-1.58524
-1.58389
-1.55328
-1.49379
-1.41086
-1.30656
-1.18158
-1.03894
-0.884317
-0.725019
-0.569757
-0.428884
-0.3143
-0.238793
-0.215402
-0.255841
-1.6756
-1.68163
-1.69079
-1.68962
-1.66646
-1.62007
-1.55437
-1.47204
-1.37476
-1.26591
-1.1511
-1.03752
-0.933569
-0.84879
-0.793732
-0.779335
-0.816415
-0.914394
-1.81088
-1.8154
-1.82289
-1.8244
-1.81114
-1.7811
-1.73691
-1.68151
-1.61739
-1.54821
-1.47937
-1.41768
-1.37088
-1.34743
-1.35628
-1.40635
-1.50617
-1.66282
-1.97377
-1.97829
-1.9872
-1.99484
-1.9948
-1.98497
-1.96712
-1.94411
-1.91889
-1.89521
-1.87809
-1.87363
-1.88857
-1.92999
-2.00504
-2.12054
-2.28273
-2.49644
-2.16935
-2.17559
-2.18949
-2.20751
-2.22488
-2.23972
-2.25327
-2.26813
-2.28725
-2.31418
-2.3533
-2.40968
-2.48878
-2.59606
-2.73677
-2.91564
-3.13677
-3.40291
-2.40179
-2.41156
-2.43424
-2.46741
-2.507
-2.55126
-2.60108
-2.6586
-2.7264
-2.80744
-2.90514
-3.02333
-3.16594
-3.33669
-3.53898
-3.77557
-4.04868
-4.3593
-2.67142
-2.68661
-2.72181
-2.77483
-2.8413
-2.9192
-3.00899
-3.11222
-3.23072
-3.36651
-3.52185
-3.69915
-3.90076
-4.12874
-4.38477
-4.66995
-4.985
-5.32954
-2.96865
-2.9916
-3.04335
-3.12086
-3.21841
-3.33311
-3.46484
-3.61441
-3.78266
-3.97039
-4.17856
-4.40819
-4.66015
-4.93508
-5.23324
-5.55447
-5.89838
-6.26373
-3.19785
-3.22808
-3.29554
-3.39545
-3.51962
-3.66382
-3.82757
-4.01129
-4.21506
-4.43867
-4.68206
-4.9453
-5.22836
-5.53101
-5.85273
-6.19267
-6.54986
-6.92263
-3.33825
-3.37434
-3.455
-3.57308
-3.71734
-3.88238
-4.06781
-4.27404
-4.50058
-4.74663
-5.01158
-5.29502
-5.59642
-5.91505
-6.24998
-6.60004
-6.96404
-7.34029
-3.4231
-3.46578
-3.56056
-3.69633
-3.85762
-4.03885
-4.24097
-4.46442
-4.70778
-4.96954
-5.24886
-5.54516
-5.8577
-6.18553
-6.5275
-6.88224
-7.24831
-7.62376
-3.46345
-3.51397
-3.62522
-3.77954
-3.95531
-4.14831
-4.36243
-4.59898
-4.85568
-5.12993
-5.42053
-5.72685
-6.04799
-6.38279
-6.72998
-7.08818
-7.45606
-7.83197
-3.46881
-3.52921
-3.65998
-3.83354
-4.02252
-4.22597
-4.44886
-4.69313
-4.95743
-5.23869
-5.53543
-5.84701
-6.17269
-6.51124
-6.86111
-7.22076
-7.58863
-7.96269
-3.44513
-3.52105
-3.6776
-3.86445
-4.06117
-4.27658
-4.51394
-4.76932
-5.04223
-5.33088
-5.63396
-5.94978
-6.27847
-6.6193
-6.97082
-7.33119
-7.6989
-8.07263
-3.3971
-3.49223
-3.69434
-3.89505
-4.07937
-4.28527
-4.52704
-4.79204
-5.06951
-5.36232
-5.6713
-5.99203
-6.32401
-6.6669
-7.0203
-7.38221
-7.75053
-8.12324
-3.33465
-3.43102
-3.69299
-3.9424
-4.14471
-4.35809
-4.60303
-4.8679
-5.14432
-5.43351
-5.73771
-6.0588
-6.39136
-6.73286
-7.08424
-7.44405
-7.81047
-8.18225
-3.28497
-3.37103
-3.58322
-3.81461
-4.03897
-4.28319
-4.5489
-4.82644
-5.11334
-5.41231
-5.72537
-6.05229
-6.39098
-6.7396
-7.09489
-7.45627
-7.82354
-8.19631
-3.21211
-3.67821
-3.9079
-4.0138
-4.16808
-4.38756
-4.63732
-4.90072
-5.17756
-5.46997
-5.77796
-6.10019
-6.43466
-6.77893
-7.13041
-7.48815
-7.85173
-8.22086
-2.15114
-3.0765
-3.64507
-3.86327
-4.06766
-4.32466
-4.59919
-4.87791
-5.16561
-5.46644
-5.78075
-6.10747
-6.44502
-6.79136
-7.14445
-7.5029
-7.86542
-8.22832
-21.9665
-22.2113
-21.8217
-20.6014
-19.3462
-19.0652
-20.235
-22.453
-24.9279
-27.0386
-28.437
-29.0124
-28.9378
-28.4374
-27.746
-27.0853
-26.6548
-26.5589
-26.7423
-27.0104
-27.1584
-27.0819
-26.7897
-26.2656
-25.7599
-25.595
-25.7228
-25.9081
-26.0328
-26.1011
-26.1313
-26.0779
-25.9471
-25.8547
-26.1019
-26.8791
-28.2907
-30.3392
-32.9389
-35.9442
-39.1818
-42.4771
-45.6727
-48.6383
-51.2735
-53.5071
-55.2947
-56.6197
-57.4846
-57.8889
-57.8139
-57.2375
-56.1606
-54.6542
-52.7691
-50.5486
-48.0313
-45.2526
-42.2457
-39.0413
-35.668
-32.1521
-28.5185
-24.7915
-20.996
-17.1591
-13.3114
-9.48799
-5.72877
-2.07768
1.41917
4.71641
7.77293
10.5553
13.04
15.2152
17.0798
18.6438
19.9262
20.9519
21.7491
22.3499
22.784
23.0741
23.2406
23.307
23.2932
23.2159
23.0897
22.9267
22.7369
22.5287
22.3089
22.0833
21.8568
21.6333
21.4164
21.2096
21.0164
20.842
20.6997
20.562
20.4125
20.2443
20.0502
19.8364
19.6196
19.4219
19.264
19.1578
19.1036
19.0917
19.1083
19.1418
19.1883
19.252
19.3447
19.4812
19.662
19.8478
19.9662
19.9747
19.8405
19.3766
18.2026
15.9493
12.5683
8.04775
2.72008
-2.81054
-8
-12.4919
-16.0918
-18.7103
-20.3118
-20.8833
-20.4538
-18.9931
-16.5832
-13.3
-9.24318
-4.54968
0.595531
5.95547
11.2508
16.1902
20.5181
24.0691
26.7254
28.4228
29.2126
29.2252
28.6252
27.5854
26.2671
24.8146
23.3534
22.0323
21.056
20.1795
19.2097
17.8143
15.8528
13.6659
12.0569
11.6117
12.0234
12.5382
12.4324
11.4107
9.06944
5.30612
0.164184
-5.60002
-10.913
-14.5214
-15.5425
-14.017
-10.2648
-5.35199
-22.9717
-23.3168
-23.2863
-22.9932
-23.1826
-24.3601
-26.4138
-28.8626
-31.21
-33.125
-34.4483
-35.0753
-34.874
-33.8509
-32.2229
-30.3826
-28.7831
-27.7703
-27.4143
-27.4326
-27.4011
-27.195
-26.8527
-26.4836
-26.2655
-26.4349
-26.6683
-26.5811
-26.2306
-25.9599
-26.0419
-26.3047
-26.4417
-26.5863
-27.1495
-28.3778
-30.3473
-32.9877
-36.1321
-39.5706
-43.0927
-46.5156
-49.6956
-52.5281
-54.9414
-56.8895
-58.3457
-59.2953
-59.7386
-59.6984
-59.2057
-58.3199
-57.079
-55.4734
-53.522
-51.2533
-48.7
-45.8952
-42.8709
-39.6569
-36.2809
-32.7681
-29.1418
-25.4241
-21.6376
-17.8068
-13.9597
-10.1295
-6.35473
-2.67928
0.849855
4.18552
7.28425
10.1101
12.6377
14.8535
16.7562
18.3556
19.6706
20.726
21.5495
22.1716
22.6216
22.9236
23.102
23.1801
23.1773
23.1106
22.9943
22.8403
22.6589
22.4582
22.2453
22.0258
21.8047
21.5859
21.3728
21.1681
20.9742
20.7917
20.61
20.4437
20.2894
20.1489
19.9916
19.8118
19.6172
19.4286
19.2711
19.1622
19.106
19.0947
19.1144
19.1512
19.1988
19.2591
19.343
19.4681
19.6423
19.8297
19.9438
19.9246
19.7961
19.4431
18.3422
15.9325
12.16
7.14753
1.49477
-4.13802
-9.27594
-13.6431
-17.0975
-19.5688
-21.0308
-21.493
-20.962
-19.4922
-17.0973
-13.8376
-9.80586
-5.13414
-0.00230073
5.35822
10.6722
15.6482
20.0251
23.6168
26.2998
28.0228
28.8423
28.886
28.3177
27.3095
26.0212
24.5914
23.147
21.7794
20.4903
19.4453
18.5103
17.3307
15.5738
13.489
11.9837
11.6982
12.2428
12.7397
12.6936
11.6418
9.25057
5.34314
-0.00310242
-6.05304
-11.5558
-15.2244
-16.1993
-14.5169
-10.6552
-5.66313
-23.2469
-23.3691
-24.2744
-26.2741
-28.7598
-31.3096
-33.7843
-36.0544
-37.9843
-39.4788
-40.4809
-40.9497
-40.8156
-40.019
-38.5418
-36.4334
-33.8677
-31.1825
-28.7936
-26.9694
-25.735
-25.0088
-24.7159
-24.9127
-25.329
-25.7406
-26.1263
-26.4777
-26.6363
-26.8321
-27.3936
-28.3792
-29.6978
-31.3172
-33.2608
-35.522
-38.0502
-40.7617
-43.5623
-46.3636
-49.0892
-51.6744
-54.0627
-56.2029
-58.0487
-59.559
-60.6982
-61.4353
-61.7432
-61.6054
-61.0386
-60.0553
-58.688
-56.962
-54.9047
-52.5461
-49.9186
-47.055
-43.9869
-40.7438
-37.3522
-33.8354
-30.2138
-26.5057
-22.729
-18.9029
-15.0506
-11.201
-7.39061
-3.66293
-0.067174
3.34545
6.52631
9.4342
12.0393
14.3252
16.2894
17.9418
19.3016
20.3943
21.2496
21.8979
22.3728
22.696
22.8939
22.9897
23.0032
22.9515
22.8488
22.7074
22.5373
22.347
22.1435
21.9324
21.7187
21.5063
21.2984
21.0975
20.9055
20.7241
20.5544
20.3997
20.2528
20.093
19.9308
19.7632
19.5976
19.4465
19.3217
19.2311
19.1765
19.1549
19.1611
19.1877
19.2318
19.2941
19.3809
19.5048
19.6714
19.844
19.9439
19.934
19.8036
19.2604
17.6547
14.4572
9.79082
4.40814
-1.08955
-6.30791
-11.002
-15.0084
-18.2116
-20.5286
-21.9059
-22.3259
-21.7885
-20.3167
-17.936
-14.7003
-10.6951
-6.04521
-0.924237
4.44237
9.78223
14.8021
19.2371
22.8866
25.6209
27.3928
28.2583
28.3455
27.8194
26.8519
25.6016
24.2027
22.7648
21.3787
20.1046
18.9778
17.8267
16.4968
14.8847
13.2104
12.0754
11.8645
12.3064
12.8286
12.8955
11.8698
9.29881
5.03553
-0.666566
-7.03989
-12.6614
-16.3342
-17.257
-15.3876
-11.2956
-6.12642
-24.3649
-24.9644
-27.7593
-31.3
-34.3539
-36.8914
-39.0684
-40.9178
-42.4234
-43.5611
-44.3056
-44.6311
-44.4923
-43.8022
-42.4822
-40.4285
-37.5666
-34.0201
-30.2429
-26.9128
-24.5809
-23.3631
-22.9693
-23.153
-23.9867
-25.0037
-25.9587
-27.0781
-28.3729
-29.867
-31.6096
-33.5932
-35.7491
-38.003
-40.3085
-42.6432
-44.9992
-47.3708
-49.746
-52.1006
-54.3972
-56.5873
-58.6158
-60.4263
-61.9653
-63.1858
-64.0494
-64.5273
-64.5998
-64.2587
-63.5086
-62.3619
-60.8394
-58.9673
-56.7761
-54.299
-51.5708
-48.6259
-45.4974
-42.215
-38.8046
-35.2873
-31.68
-27.9953
-24.2438
-20.4367
-16.5887
-12.7216
-8.86709
-5.06782
-1.37594
2.15086
5.45542
8.48771
11.2104
13.6023
15.6583
17.3878
18.8111
19.9557
20.8536
21.5413
22.0474
22.3985
22.6215
22.74
22.7742
22.7414
22.6561
22.5307
22.3752
22.1982
22.0067
21.8065
21.6024
21.3985
21.1978
21.003
20.816
20.6379
20.4683
20.3063
20.1501
19.9955
19.8448
19.6966
19.5523
19.4191
19.3057
19.2187
19.1619
19.1346
19.1383
19.1664
19.2207
19.3037
19.4164
19.5624
19.7375
19.9137
20.0168
19.9821
19.6455
18.3962
15.7181
11.5304
6.55383
1.37505
-3.70643
-8.50153
-12.848
-16.5934
-19.6077
-21.7924
-23.0829
-23.4531
-22.8981
-21.4249
-19.0591
-15.8485
-11.8705
-7.24089
-2.12527
3.25718
8.63473
13.7123
18.2191
21.9447
24.7454
26.5763
27.4945
27.6311
27.1537
26.2346
25.0299
23.6698
22.2596
20.8769
19.5614
18.3242
17.0908
15.7557
14.2556
12.7661
11.7088
11.4199
11.8224
12.452
12.6421
11.6434
8.90992
4.31177
-1.7263
-8.2856
-14.0298
-17.7151
-18.5442
-16.4201
-12.0171
-6.59059
-27.5831
-29.2464
-32.5617
-35.6937
-38.2581
-40.4211
-42.2898
-43.8932
-45.2099
-46.1873
-46.7778
-46.9657
-46.737
-46.0267
-44.7353
-42.6963
-39.7596
-36.0193
-31.99
-28.4379
-25.8404
-24.2454
-23.7203
-24.0478
-24.9764
-26.4169
-28.1887
-30.219
-32.4191
-34.7163
-37.0504
-39.3744
-41.6623
-43.9123
-46.1382
-48.3571
-50.5814
-52.8123
-55.0364
-57.2258
-59.3412
-61.335
-63.1557
-64.7513
-66.0726
-67.0753
-67.7217
-67.9825
-67.8408
-67.294
-66.3472
-65.0125
-63.3101
-61.2675
-58.9179
-56.298
-53.4466
-50.4016
-47.1989
-43.8706
-40.4429
-36.936
-33.3628
-29.7297
-26.0381
-22.2873
-18.4792
-14.6237
-10.7433
-6.87675
-3.07861
0.585237
4.04547
7.23886
10.1166
12.6494
14.8279
16.6602
18.1687
19.3854
20.3382
21.0785
21.6266
22.0145
22.2704
22.4186
22.4798
22.4717
22.4091
22.3044
22.1678
22.008
21.8321
21.6459
21.4543
21.2614
21.0703
20.8835
20.7028
20.5293
20.3635
20.2053
20.0538
19.9066
19.7629
19.6231
19.4902
19.3701
19.2693
19.1929
19.1437
19.1226
19.1242
19.1526
19.2095
19.2993
19.4259
19.5905
19.7859
19.9685
20.0633
19.9093
19.0806
16.892
13.2071
8.55962
3.62593
-1.31725
-6.13227
-10.6799
-14.8031
-18.3505
-21.1978
-23.2508
-24.4471
-24.7615
-24.1845
-22.7134
-20.3693
-17.1932
-13.2531
-8.65338
-3.5511
1.84281
7.25753
12.3978
16.9846
20.7918
23.666
25.5618
26.5391
26.7327
26.3132
25.4531
24.3057
22.9956
21.6189
20.2431
18.9062
17.6178
16.3335
14.9844
13.5457
12.1356
11.0517
10.5971
10.8083
11.3465
11.572
10.6507
7.91329
3.19981
-3.0088
-9.69822
-15.5116
-19.1521
-19.782
-17.3683
-12.6235
-6.85451
-31.6542
-33.6989
-36.1146
-38.3162
-40.3231
-42.1509
-43.7957
-45.2435
-46.4474
-47.3413
-47.8683
-48.0138
-47.7357
-46.987
-45.6946
-43.7364
-41.0343
-37.7407
-34.2859
-31.19
-28.9348
-27.7698
-27.487
-27.9557
-29.0974
-30.8081
-32.8852
-35.1671
-37.5319
-39.9038
-42.2411
-44.5274
-46.7672
-48.9776
-51.178
-53.3809
-55.5883
-57.7903
-59.9655
-62.0826
-64.1026
-65.9812
-67.6706
-69.1225
-70.2901
-71.1304
-71.6057
-71.6871
-71.3589
-70.6208
-69.476
-67.9381
-66.0309
-63.7866
-61.2433
-58.4436
-55.4317
-52.2511
-48.943
-45.5433
-42.0817
-38.5794
-35.0478
-31.4881
-27.892
-24.2447
-20.5306
-16.7409
-12.882
-8.9828
-5.09626
-1.29619
2.33327
5.71107
8.77184
11.4738
13.8005
15.758
17.3704
18.6744
19.707
20.5063
21.1063
21.5401
21.837
22.0221
22.1169
22.1396
22.105
22.0259
21.9127
21.7741
21.6173
21.4484
21.2723
21.0931
20.914
20.7376
20.5657
20.3998
20.2403
20.0874
19.9405
19.7988
19.6623
19.5325
19.4118
19.3042
19.2141
19.1453
19.1002
19.0798
19.0836
19.114
19.1736
19.2682
19.4029
19.5787
19.7832
19.9697
20.0196
19.6174
18.155
15.1557
10.8397
5.99611
1.08956
-3.75047
-8.43009
-12.8186
-16.7684
-20.1452
-22.8412
-24.7724
-25.8807
-26.1432
-25.5474
-24.0844
-21.7705
-18.6395
-14.7498
-10.1934
-5.11896
0.273771
5.71509
10.9103
15.5733
19.4579
22.4037
24.3645
25.4032
25.6592
25.3056
24.5144
23.4346
22.1843
20.8514
19.4962
18.1527
16.829
15.5001
14.1289
12.7154
11.3583
10.2704
9.6582
9.56249
9.78548
9.84658
8.95292
6.32882
1.71607
-4.44672
-11.1126
-16.87
-20.3629
-20.7286
-18.0003
-12.9224
-6.84993
-34.2768
-35.8324
-37.3162
-38.8721
-40.4343
-41.9233
-43.31
-44.6
-45.7051
-46.56
-47.1084
-47.3183
-47.1288
-46.4812
-45.3318
-43.6646
-41.532
-39.0948
-36.6368
-34.5539
-33.1492
-32.4202
-32.3739
-33.0439
-34.3122
-36.0167
-37.9924
-40.1172
-42.3064
-44.5142
-46.723
-48.932
-51.147
-53.3753
-55.6209
-57.8816
-60.1478
-62.4015
-64.6164
-66.7587
-68.7876
-70.6573
-72.3183
-73.7205
-74.8156
-75.5591
-75.913
-75.8488
-75.353
-74.422
-73.0608
-71.2891
-69.1372
-66.6439
-63.8545
-60.8188
-57.5882
-54.2132
-50.7414
-47.2151
-43.6691
-40.1293
-36.6097
-33.1103
-29.6164
-26.1002
-22.5263
-18.8618
-15.0888
-11.2162
-7.28787
-3.38086
0.40595
3.97028
7.22476
10.1106
12.6011
14.6997
16.4334
17.84
18.9581
19.8283
20.4897
20.9777
21.3231
21.552
21.6867
21.7457
21.7444
21.6957
21.6101
21.4966
21.3626
21.2141
21.0564
20.8936
20.7291
20.5654
20.4047
20.2483
20.0972
19.9518
19.8122
19.6784
19.5509
19.4308
19.3204
19.2227
19.1414
19.0796
19.0395
19.0226
19.0295
19.0617
19.1228
19.2183
19.3538
19.5302
19.7323
19.9002
19.8466
19.1124
17.0518
13.4376
8.74522
3.76645
-1.15828
-5.95916
-10.5546
-14.8209
-18.6262
-21.8561
-24.4207
-26.2455
-27.2778
-27.498
-26.8911
-25.4431
-23.1677
-20.0917
-16.2655
-11.7644
-6.73764
-1.36445
4.08365
9.32081
14.0431
17.991
20.9975
23.0164
24.1144
24.4348
24.153
23.4386
22.4353
21.2536
19.973
18.6468
17.3055
15.9589
14.5967
13.204
11.7961
10.4582
9.34705
8.60023
8.23081
8.098
7.85499
6.85996
4.35902
-0.0104789
-5.90578
-12.3166
-17.8237
-21.04
-21.1
-18.0687
-12.74
-6.47926
-34.3157
-35.283
-36.2983
-37.488
-38.7301
-39.9456
-41.1024
-42.1841
-43.1474
-43.9359
-44.478
-44.7356
-44.6664
-44.2631
-43.5264
-42.47
-41.1409
-39.6621
-38.2421
-37.0899
-36.3418
-36.1081
-36.4629
-37.3634
-38.6886
-40.3185
-42.1485
-44.1062
-46.1475
-48.2512
-50.4104
-52.6245
-54.8938
-57.2159
-59.5842
-61.9868
-64.4052
-66.8138
-69.1795
-71.4615
-73.6124
-75.5795
-77.3076
-78.7415
-79.8291
-80.5236
-80.7859
-80.589
-79.9235
-78.7869
-77.1896
-75.1574
-72.7271
-69.9451
-66.8644
-63.5426
-60.0386
-56.41
-52.7113
-48.9913
-45.2922
-41.6467
-38.0756
-34.5832
-31.1546
-27.7544
-24.3307
-20.8254
-17.1903
-13.4053
-9.49398
-5.52852
-1.61876
2.11146
5.54988
8.61664
11.2737
13.5217
15.3854
16.8997
18.1084
19.0566
19.7863
20.335
20.735
21.0136
21.1935
21.2938
21.3303
21.3161
21.2619
21.1771
21.069
20.9441
20.8075
20.6637
20.516
20.3674
20.22
20.0754
19.9348
19.7989
19.6684
19.5436
19.4252
19.3147
19.2139
19.1256
19.0525
18.9974
18.9622
18.9486
18.9575
18.9907
19.0516
19.145
19.2759
19.4438
19.6293
19.7492
19.5434
18.4609
15.9034
11.8431
6.91056
1.84138
-3.10832
-7.89004
-12.4253
-16.5952
-20.282
-23.3889
-25.8453
-27.5816
-28.5528
-28.7426
-28.1333
-26.7062
-24.4763
-21.4635
-17.7153
-13.2757
-8.31973
-2.99145
2.44928
7.70416
12.4602
16.4483
19.497
21.5608
22.7107
23.094
22.8865
22.2541
21.3332
20.2257
19.0029
17.7114
16.3787
15.0167
13.6259
12.2064
10.7836
9.43155
8.27087
7.40285
6.81997
6.38889
5.83827
4.68179
2.29215
-1.72911
-7.15952
-13.0838
-18.1333
-20.9444
-20.68
-17.4164
-11.9848
-5.71634
-31.956
-32.5477
-33.3888
-34.4136
-35.497
-36.5631
-37.5726
-38.5092
-39.3513
-40.0655
-40.6467
-41.0418
-41.2336
-41.2101
-40.963
-40.5003
-39.868
-39.1618
-38.5159
-38.08
-37.9932
-38.3388
-39.1086
-40.239
-41.6532
-43.2819
-45.0708
-46.9865
-49.0114
-51.1385
-53.3654
-55.6903
-58.1094
-60.6152
-63.1949
-65.8293
-68.4921
-71.1487
-73.756
-76.2633
-78.6133
-80.7448
-82.5957
-84.1059
-85.2197
-85.8885
-86.0724
-85.7465
-84.9109
-83.5625
-81.7188
-79.4119
-76.6864
-73.5969
-70.2048
-66.5756
-62.7748
-58.8655
-54.9064
-50.9507
-47.046
-43.2327
-39.5413
-35.9861
-32.559
-29.2244
-25.9202
-22.5672
-19.0872
-15.4265
-11.5801
-7.60625
-3.61937
0.238347
3.83211
7.06144
9.87729
12.2695
14.2567
15.8773
17.1783
18.2074
19.0092
19.6228
20.0817
20.4142
20.6435
20.7891
20.8671
20.8909
20.8715
20.8182
20.739
20.6401
20.5272
20.4046
20.2761
20.1446
20.0125
19.8817
19.7534
19.6289
19.5089
19.3942
19.2858
19.1851
19.0939
19.0144
18.9489
18.8999
18.8692
18.8584
18.8689
18.9021
18.9608
19.0489
19.1698
19.3208
19.4747
19.521
19.1401
17.7455
14.8169
10.4645
5.39225
0.261009
-4.72069
-9.49904
-13.9891
-18.08
-21.6691
-24.6735
-27.0475
-28.7124
-29.6384
-29.8094
-29.2073
-27.8048
-25.6305
-22.6884
-19.0182
-14.6755
-9.78944
-4.51895
0.889311
6.13266
10.8913
14.89
17.9555
20.0455
21.2357
21.6765
21.5424
20.9934
20.1572
19.1261
17.9628
16.7077
15.3854
14.0099
12.589
11.1346
9.67867
8.28795
7.05955
6.0732
5.31533
4.65483
3.86426
2.58109
0.32975
-3.24212
-8.01738
-13.2301
-17.63
-19.9374
-19.3751
-16.0155
-10.6782
-4.61636
-27.592
-28.1296
-28.9261
-29.9279
-31.0126
-32.0987
-33.1346
-34.0954
-34.9709
-35.7587
-36.4462
-37.013
-37.4379
-37.7055
-37.814
-37.7856
-37.6748
-37.5724
-37.5936
-37.8469
-38.3981
-39.255
-40.3872
-41.7529
-43.3114
-45.0313
-46.8932
-48.8885
-51.0153
-53.2746
-55.6675
-58.1925
-60.844
-63.6111
-66.476
-69.4127
-72.3859
-75.3511
-78.2546
-81.0355
-83.6271
-85.9603
-87.9666
-89.5816
-90.7467
-91.4106
-91.5335
-91.0955
-90.0934
-88.532
-86.4355
-83.8441
-80.8119
-77.4036
-73.6911
-69.749
-65.6504
-61.4629
-57.2466
-53.0539
-48.9319
-44.9244
-41.0707
-37.3978
-33.9101
-30.5793
-27.3406
-24.0996
-20.7536
-17.2187
-13.4599
-9.51552
-5.4967
-1.5566
2.15436
5.51861
8.46806
10.9838
13.082
14.8013
16.1905
17.2992
18.1734
18.8534
19.3736
19.7626
20.0442
20.238
20.3603
20.4247
20.4426
20.4235
20.3754
20.3049
20.2177
20.1185
20.011
19.8985
19.7836
19.6682
19.5539
19.4422
19.3341
19.2306
19.1329
19.0423
18.9605
18.8894
18.8312
18.7878
18.7612
18.7528
18.7638
18.7955
18.85
18.9296
19.0359
19.1625
19.2727
19.231
18.6826
17.0477
13.8834
9.37571
4.23222
-0.946709
-5.96163
-10.7431
-15.2013
-19.2335
-22.7507
-25.6839
-27.9849
-29.6015
-30.4981
-30.6604
-30.0688
-28.7052
-26.5828
-23.7124
-20.1259
-15.8781
-11.076
-5.87917
-0.528283
4.67208
9.39834
13.3732
16.4257
18.5189
19.734
20.2236
20.1584
19.6905
18.9372
17.9803
16.8739
15.6524
14.3377
12.9451
11.4884
9.98812
8.48208
7.03364
5.72422
4.61949
3.70984
2.87894
1.92817
0.58664
-1.48145
-4.53338
-8.50204
-12.7996
-16.3768
-18.1089
-17.302
-14.0226
-8.98233
-3.31905
-21.8178
-22.3662
-23.1773
-24.2099
-25.3591
-26.5402
-27.6912
-28.7787
-29.7938
-30.7284
-31.5668
-32.2982
-32.9174
-33.4304
-33.8601
-34.2507
-34.6667
-35.1817
-35.8601
-36.7389
-37.8247
-39.1038
-40.5555
-42.1605
-43.9054
-45.7848
-47.8006
-49.9586
-52.2665
-54.731
-57.3559
-60.1408
-63.0793
-66.1574
-69.352
-72.6299
-75.9476
-79.2514
-82.4787
-85.5595
-88.4187
-90.9795
-93.167
-94.9118
-96.1515
-96.8309
-96.9097
-96.3728
-95.2195
-93.4564
-91.1146
-88.2428
-84.9048
-81.1765
-77.1415
-72.8862
-68.4941
-64.0395
-59.5841
-55.1765
-50.8575
-46.6667
-42.6466
-38.8352
-35.2505
-31.8749
-28.6471
-25.4648
-22.2095
-18.7747
-15.1017
-11.2076
-7.19019
-3.20425
0.585284
4.04573
7.09547
9.70765
11.8963
13.7001
15.1682
16.3509
17.2947
18.0403
18.622
19.0685
19.4036
19.6472
19.8157
19.9227
19.9798
19.9967
19.9816
19.9413
19.8816
19.8074
19.7227
19.6308
19.5345
19.4361
19.3373
19.2397
19.1446
19.0532
18.9667
18.8865
18.8142
18.7515
18.7002
18.6621
18.639
18.6322
18.6427
18.6715
18.7195
18.7878
18.8754
18.9716
19.0308
18.9003
18.2159
16.4284
13.1534
8.59679
3.43191
-1.77798
-6.81807
-11.6001
-16.0317
-20.0186
-23.4822
-26.3632
-28.617
-30.2023
-31.0837
-31.2478
-30.6739
-29.3499
-27.2833
-24.4857
-20.985
-16.8323
-12.1233
-7.01506
-1.74587
3.37902
8.03554
11.9492
14.9556
17.0262
18.2484
18.7748
18.7706
18.3775
17.7008
16.8116
15.7552
14.56
13.2453
11.8271
10.3242
8.76425
7.19082
5.66718
4.26616
3.04551
2.00259
1.04532
0.00455108
-1.32891
-3.17867
-5.69945
-8.82029
-12.1037
-14.7468
-15.8478
-14.8278
-11.7326
-7.14136
-2.00086
-15.2476
-15.7872
-16.5732
-17.5802
-18.7317
-19.9575
-21.1997
-22.41
-23.5749
-24.6671
-25.686
-26.6377
-27.538
-28.4125
-29.2959
-30.2285
-31.2485
-32.3837
-33.6466
-35.0367
-36.5464
-38.1676
-39.8951
-41.7294
-43.6766
-45.7478
-47.9571
-50.319
-52.8472
-55.5522
-58.4403
-61.5116
-64.7583
-68.1631
-71.6979
-75.3235
-78.9895
-82.635
-86.1898
-89.5755
-92.7085
-95.5036
-97.8787
-99.7597
-101.082
-101.787
-101.834
-101.224
-99.9471
-98.0131
-95.4578
-92.3363
-88.7209
-84.6973
-80.3603
-75.8086
-71.1384
-66.4347
-61.7638
-57.1715
-52.69
-48.3496
-44.1889
-40.2509
-36.5641
-33.1207
-29.8676
-26.7008
-23.4955
-20.1278
-16.518
-12.6653
-8.65847
-4.65311
-0.822164
2.6919
5.80182
8.47716
10.7305
12.5997
14.1334
15.3813
16.3891
17.1968
17.8382
18.3415
18.7303
19.0242
19.2396
19.3903
19.4878
19.542
19.5611
19.5523
19.5215
19.4737
19.4131
19.3433
19.267
19.1868
19.1047
19.0223
18.9412
18.8626
18.7879
18.7184
18.6557
18.6012
18.5565
18.5234
18.5031
18.4971
18.506
18.5304
18.5701
18.6246
18.6903
18.7525
18.7585
18.5496
17.7722
15.9176
12.6373
8.11892
2.98263
-2.23179
-7.28269
-12.0599
-16.4687
-20.4209
-23.8458
-26.6904
-28.9144
-30.482
-31.36
-31.5346
-30.9846
-29.7023
-27.6932
-24.9681
-21.5529
-17.4954
-12.886
-7.88038
-2.71682
2.29949
6.84765
10.6612
13.5871
15.608
16.8172
17.3663
17.4119
17.0832
16.4727
15.6402
14.6224
13.4419
12.1148
10.658
9.09424
7.45779
5.79861
4.18263
2.68073
1.3483
0.190548
-0.859278
-1.93557
-3.2024
-4.80781
-6.82507
-9.16046
-11.4747
-13.1867
-13.6393
-12.3987
-9.49781
-5.38429
-0.808601
-8.69979
-9.18002
-9.86005
-10.7401
-11.7842
-12.9503
-14.1872
-15.4671
-16.7496
-18.0298
-19.3134
-20.6128
-21.9446
-23.3258
-24.7704
-26.2863
-27.8742
-29.5289
-31.2436
-33.013
-34.8363
-36.7185
-38.6696
-40.7048
-42.8427
-45.1042
-47.51
-50.0799
-52.8311
-55.7766
-58.9238
-62.2725
-65.813
-69.5249
-73.376
-77.3226
-81.3093
-85.2693
-89.1252
-92.7904
-96.1725
-99.178
-101.719
-103.719
-105.113
-105.844
-105.866
-105.22
-103.854
-101.791
-99.0709
-95.7545
-91.9205
-87.6623
-83.0831
-78.2898
-73.3912
-68.4829
-63.6384
-58.9035
-54.3038
-49.86
-45.6017
-41.5699
-37.7996
-34.2931
-31.0017
-27.8262
-24.6338
-21.2907
-17.7069
-13.8742
-9.87867
-5.87616
-2.04052
1.48525
4.6146
7.31783
9.60757
11.5208
13.1047
14.4068
15.4711
16.3358
17.0335
17.5915
18.0327
18.3763
18.6384
18.8329
18.9713
19.0634
19.1177
19.1413
19.1404
19.1201
19.0847
19.0379
18.9827
18.9218
18.8574
18.7911
18.7247
18.6595
18.5971
18.5386
18.4854
18.439
18.4008
18.3721
18.3542
18.3481
18.3544
18.3729
18.4027
18.4414
18.4832
18.5099
18.4656
18.1947
17.3687
15.5226
12.3276
7.92802
2.87597
-2.30832
-7.3514
-12.1173
-16.5057
-20.432
-23.8301
-26.651
-28.8577
-30.4179
-31.3006
-31.4916
-30.9699
-29.7312
-27.7799
-25.1263
-21.7952
-17.8331
-13.329
-8.44018
-3.40675
1.46713
5.8678
9.54222
12.3535
14.2975
15.4733
16.029
16.1103
15.8322
15.2736
14.4829
13.4882
12.3063
10.9503
9.43742
7.79412
6.06132
4.29638
2.57081
0.958952
-0.481596
-1.73553
-2.84729
-3.9167
-5.06879
-6.40503
-7.94977
-9.59538
-11.0678
-11.9499
-11.7952
-10.3182
-7.56188
-3.87004
0.186623
-3.02931
-3.41271
-3.93072
-4.62486
-5.49623
-6.52572
-7.69013
-8.97499
-10.3702
-11.8723
-13.4799
-15.1901
-16.9954
-18.8818
-20.8302
-22.8188
-24.8278
-26.8434
-28.8599
-30.8804
-32.9153
-34.9814
-37.1001
-39.2953
-41.5928
-44.0183
-46.5962
-49.3492
-52.2962
-55.4513
-58.8219
-62.4067
-66.1941
-70.1611
-74.2727
-78.4818
-82.7291
-86.9431
-91.0398
-94.9247
-98.4985
-101.662
-104.323
-106.405
-107.846
-108.598
-108.637
-107.938
-106.509
-104.366
-101.548
-98.1168
-94.1545
-89.759
-85.0396
-80.1057
-75.0778
-70.0502
-65.1033
-60.2867
-55.6231
-51.1247
-46.8134
-42.7271
-38.9044
-35.3535
-32.0291
-28.8301
-25.6199
-22.2628
-18.6696
-14.8357
-10.8508
-6.87043
-3.06347
0.434755
3.54507
6.24256
8.54138
10.4775
12.0955
13.4401
14.5522
15.4677
16.2172
16.8266
17.3179
17.7097
18.0178
18.2556
18.4347
18.5649
18.6547
18.7113
18.7409
18.7488
18.7394
18.7165
18.6834
18.6426
18.5965
18.5471
18.4961
18.4449
18.3949
18.3475
18.304
18.2656
18.2336
18.209
18.1929
18.1861
18.1887
18.2002
18.2186
18.2404
18.2574
18.2494
18.1604
17.846
17.0116
15.2377
12.2058
8.00098
3.0944
-2.01659
-7.02686
-11.7709
-16.1381
-20.0435
-23.4232
-26.2301
-28.4287
-29.9893
-30.8823
-31.0943
-30.6042
-29.4102
-27.5166
-24.9333
-21.6852
-17.8196
-13.4277
-8.67163
-3.79477
0.901607
5.11576
8.61347
11.278
13.1196
14.2422
14.7877
14.8885
14.6444
14.12
13.3528
12.3623
11.1594
9.75408
8.16362
6.41847
4.56659
2.67421
0.821196
-0.910335
-2.45661
-3.78916
-4.93314
-5.95901
-6.95828
-8.00192
-9.0929
-10.1281
-10.888
-11.0726
-10.3904
-8.67914
-6.00626
-2.64678
0.974495
1.18059
0.927366
0.588999
0.0908668
-0.583095
-1.44755
-2.51866
-3.80373
-5.30247
-7.00659
-8.89841
-10.9495
-13.1219
-15.372
-17.6572
-19.9416
-22.201
-24.4244
-26.6135
-28.7799
-30.943
-33.1273
-35.3599
-37.6696
-40.0849
-42.6335
-45.3417
-48.2331
-51.3269
-54.637
-58.1701
-61.9236
-65.8841
-70.0269
-74.315
-78.6987
-83.1156
-87.4911
-91.7409
-95.7617
-99.4519
-102.709
-105.441
-107.57
-109.038
-109.806
-109.855
-109.172
-107.743
-105.593
-102.76
-99.3061
-95.3153
-90.8873
-86.1321
-81.1645
-76.099
-71.0401
-66.0703
-61.2403
-56.5702
-52.068
-47.752
-43.659
-39.8266
-36.2615
-32.9154
-29.6839
-26.4307
-23.0268
-19.3954
-15.5459
-11.5763
-7.63995
-3.89455
-0.460474
2.59593
5.25743
7.54058
9.48004
11.1169
12.4921
13.6429
14.6021
15.3979
16.0546
16.593
17.0307
17.3831
17.6632
17.8823
18.0503
18.1756
18.2653
18.3258
18.3623
18.3794
18.3811
18.3705
18.3505
18.3235
18.2914
18.2562
18.2193
18.1822
18.1461
18.1122
18.0817
18.0556
18.0348
18.0201
18.0119
18.0101
18.0136
18.0198
18.0238
18.0163
17.9758
17.8493
17.5088
16.6984
15.0465
12.2418
8.30232
3.6082
-1.37614
-6.31962
-11.0247
-15.3647
-19.2502
-22.6161
-25.4152
-27.6123
-29.1788
-30.0866
-30.323
-29.8666
-28.718
-26.8817
-24.3678
-21.2023
-17.4358
-13.1658
-8.56164
-3.87074
0.611619
4.60077
7.88646
10.375
12.0915
13.1423
13.6606
13.7634
13.5344
13.0243
12.2597
11.2518
10.0054
8.52716
6.83454
4.96226
2.96629
0.923308
-1.07569
-2.93744
-4.58814
-5.98403
-7.13233
-8.08061
-8.89506
-9.62635
-10.2725
-10.7502
-10.894
-10.4934
-9.366
-7.4385
-4.80188
-1.68878
1.5839
3.93684
3.82086
3.64107
3.31785
2.82678
2.10818
1.12486
-0.143115
-1.6978
-3.52275
-5.58326
-7.82918
-10.2011
-12.6387
-15.0894
-17.5144
-19.8914
-22.2138
-24.4883
-26.7317
-28.9677
-31.2237
-33.5292
-35.9139
-38.4074
-41.0358
-43.8281
-46.807
-49.9912
-53.394
-57.0208
-60.8678
-64.9207
-69.1536
-73.5287
-77.9951
-82.4886
-86.9319
-91.2366
-95.3043
-99.0317
-102.318
-105.071
-107.218
-108.704
-109.494
-109.567
-108.904
-107.502
-105.385
-102.593
-99.1882
-95.2535
-90.8889
-86.2034
-81.3105
-76.3226
-71.3423
-66.4497
-61.6916
-57.0858
-52.6402
-48.3752
-44.3286
-40.5344
-36.9903
-33.6377
-30.3669
-27.0466
-23.5649
-19.8709
-15.9979
-12.0557
-8.19172
-4.54483
-1.21315
1.75457
4.35077
6.59464
8.51875
10.16
11.5543
12.7349
13.7308
14.5677
15.2677
15.8501
16.3316
16.7267
17.0482
17.3071
17.5128
17.6737
17.797
17.889
17.9549
17.9994
18.0264
18.0393
18.0409
18.0338
18.0199
18.0012
17.9792
17.9553
17.9308
17.9068
17.8843
17.8641
17.8469
17.8332
17.8231
17.8163
17.8111
17.8044
17.7906
17.7592
17.689
17.5322
17.1796
16.4168
14.9214
12.3928
8.78416
4.37735
-0.41194
-5.23934
-9.87636
-14.175
-18.0353
-21.3872
-24.1812
-26.3806
-27.9571
-28.8832
-29.1465
-28.7259
-27.624
-25.8455
-23.4014
-20.3205
-16.6595
-12.5254
-8.09793
-3.62742
0.600894
4.32508
7.36351
9.64769
11.2168
12.1772
12.6504
12.7366
12.5027
11.9856
11.2013
10.1526
8.83793
7.2606
5.43853
3.41142
1.24442
-0.973493
-3.13764
-5.14073
-6.89499
-8.3415
-9.46858
-10.3068
-10.906
-11.3061
-11.51
-11.4626
-11.0527
-10.1445
-8.63513
-6.51142
-3.87966
-0.943764
2.05652
5.39896
5.35347
5.25629
5.0767
4.71714
4.11731
3.22955
2.02482
0.49811
-1.33048
-3.418
-5.70438
-8.12134
-10.6025
-13.0928