/*--------------------------------*- C++ -*----------------------------------*\
  =========                 |
  \\      /  F ield         | OpenFOAM: The Open Source CFD Toolbox
   \\    /   O peration     | Website:  https://openfoam.org
    \\  /    A nd           | Version:  9
     \\/     M anipulation  |
\*---------------------------------------------------------------------------*/
FoamFile
{
    format      ascii;
    class       surfaceScalarField;
    location    "0.28";
    object      phi;
}
// * * * * * * * * * * * * * * * * * * * * * * * * * * * * * * * * * * * * * //

dimensions      [0 3 -1 0 0 0 0];

internalField   nonuniform List<scalar> 
24170
(
3.07016e-06
1.18248e-07
2.92631e-06
1.43851e-07
2.79097e-06
1.35337e-07
2.66279e-06
1.28176e-07
2.53963e-06
1.23168e-07
2.42265e-06
1.1698e-07
2.31169e-06
1.10961e-07
2.20535e-06
1.06338e-07
2.10175e-06
1.03593e-07
1.99872e-06
1.03031e-07
1.89375e-06
1.04976e-07
1.78398e-06
1.09764e-07
1.66629e-06
1.17694e-07
1.53733e-06
1.2896e-07
1.39387e-06
1.43456e-07
1.23304e-06
1.60832e-07
1.05333e-06
1.79713e-07
2.00544e-07
8.52785e-07
3.47997e-06
5.55296e-08
3.51284e-06
1.10978e-07
3.5304e-06
1.17773e-07
3.53288e-06
1.25699e-07
3.5227e-06
1.33348e-07
3.502e-06
1.37678e-07
3.47235e-06
1.40614e-07
3.43471e-06
1.43973e-07
3.38958e-06
1.48726e-07
3.33694e-06
1.55671e-07
3.27622e-06
1.65697e-07
3.2062e-06
1.79784e-07
3.1249e-06
1.98989e-07
3.02946e-06
2.24406e-07
2.91595e-06
2.56966e-07
2.77924e-06
2.97537e-07
2.61313e-06
3.45826e-07
4.05663e-07
2.40801e-06
3.6746e-06
4.34424e-08
3.68922e-06
9.63593e-08
3.70132e-06
1.05677e-07
3.71208e-06
1.14939e-07
3.72037e-06
1.25056e-07
3.72516e-06
1.32889e-07
3.72613e-06
1.39646e-07
3.7231e-06
1.47004e-07
3.71586e-06
1.55963e-07
3.70417e-06
1.67357e-07
3.68771e-06
1.82162e-07
3.66597e-06
2.0152e-07
3.63822e-06
2.26743e-07
3.60332e-06
2.59306e-07
3.55947e-06
3.00817e-07
3.50413e-06
3.52877e-07
3.43296e-06
4.16995e-07
4.92523e-07
3.3461e-06
3.93071e-06
3.81186e-08
3.9392e-06
8.78706e-08
3.94239e-06
1.02492e-07
3.94409e-06
1.13234e-07
3.94447e-06
1.24681e-07
3.94292e-06
1.34435e-07
3.93936e-06
1.43206e-07
3.93373e-06
1.52632e-07
3.9259e-06
1.63798e-07
3.91573e-06
1.77521e-07
3.90319e-06
1.94708e-07
3.88829e-06
2.16417e-07
3.87118e-06
2.43851e-07
3.85215e-06
2.78341e-07
3.8316e-06
3.21369e-07
3.81013e-06
3.74341e-07
3.78854e-06
4.38593e-07
5.13732e-07
3.76733e-06
4.21154e-06
3.37059e-08
4.21812e-06
8.12902e-08
4.21946e-06
1.01147e-07
4.21854e-06
1.14158e-07
4.21599e-06
1.27233e-07
4.21134e-06
1.39088e-07
4.20447e-06
1.50071e-07
4.19538e-06
1.61725e-07
4.18397e-06
1.75206e-07
4.17016e-06
1.91332e-07
4.15393e-06
2.1094e-07
4.13537e-06
2.34973e-07
4.11477e-06
2.64454e-07
4.09267e-06
3.00439e-07
4.07007e-06
3.43965e-07
4.04851e-06
3.95904e-07
4.03052e-06
4.56584e-07
5.26396e-07
4.01785e-06
4.51262e-06
3.01752e-08
4.51782e-06
7.60914e-08
4.51901e-06
9.99486e-08
4.51763e-06
1.15538e-07
4.51442e-06
1.30452e-07
4.50899e-06
1.44516e-07
4.50117e-06
1.57889e-07
4.49095e-06
1.7194e-07
4.4783e-06
1.87858e-07
4.46316e-06
2.0647e-07
4.44555e-06
2.28559e-07
4.42555e-06
2.54967e-07
4.40345e-06
2.86555e-07
4.37975e-06
3.24142e-07
4.35531e-06
3.68402e-07
4.33143e-06
4.19782e-07
4.31004e-06
4.77978e-07
5.43e-07
4.29344e-06
4.83535e-06
2.75406e-08
4.83949e-06
7.19536e-08
4.84067e-06
9.87728e-08
4.83914e-06
1.17065e-07
4.83564e-06
1.33955e-07
4.82995e-06
1.50205e-07
4.82187e-06
1.6597e-07
4.81138e-06
1.82427e-07
4.79849e-06
2.00745e-07
4.78321e-06
2.21755e-07
4.76559e-06
2.46176e-07
4.74582e-06
2.7474e-07
4.72423e-06
3.08147e-07
4.70137e-06
3.47002e-07
4.67807e-06
3.91695e-07
4.6555e-06
4.42357e-07
4.63508e-06
4.98396e-07
5.59399e-07
4.61868e-06
5.1815e-06
2.56219e-08
5.18475e-06
6.87061e-08
5.18574e-06
9.77767e-08
5.18409e-06
1.18723e-07
5.18039e-06
1.37649e-07
5.1746e-06
1.56e-07
5.16649e-06
1.74073e-07
5.15606e-06
1.92864e-07
5.14333e-06
2.13472e-07
5.12838e-06
2.36708e-07
5.11133e-06
2.63221e-07
5.09245e-06
2.93617e-07
5.07217e-06
3.28434e-07
5.0511e-06
3.68069e-07
5.03011e-06
4.12681e-07
5.01032e-06
4.62148e-07
4.99297e-06
5.15746e-07
5.72906e-07
4.97947e-06
5.55272e-06
2.42438e-08
5.55517e-06
6.62489e-08
5.5559e-06
9.70509e-08
5.55417e-06
1.20455e-07
5.5504e-06
1.41416e-07
5.54462e-06
1.61774e-07
5.53667e-06
1.8203e-07
5.5265e-06
2.0303e-07
5.51421e-06
2.25766e-07
5.49991e-06
2.51002e-07
5.48383e-06
2.79308e-07
5.46628e-06
3.11162e-07
5.44777e-06
3.46942e-07
5.42899e-06
3.86857e-07
5.41079e-06
4.30874e-07
5.39425e-06
4.78691e-07
5.38048e-06
5.29519e-07
5.82757e-07
5.37063e-06
5.95074e-06
2.3275e-08
5.95253e-06
6.44675e-08
5.95298e-06
9.65993e-08
5.95125e-06
1.22188e-07
5.94754e-06
1.45124e-07
5.94193e-06
1.67383e-07
5.9343e-06
1.89657e-07
5.92465e-06
2.12685e-07
5.91308e-06
2.37333e-07
5.89979e-06
2.64291e-07
5.88505e-06
2.94043e-07
5.86927e-06
3.26946e-07
5.85299e-06
3.63225e-07
5.83691e-06
4.0293e-07
5.82191e-06
4.45877e-07
5.80895e-06
4.91647e-07
5.79905e-06
5.39425e-07
5.88633e-07
5.79317e-06
6.37748e-06
2.26119e-08
6.37872e-06
6.3225e-08
6.37894e-06
9.63725e-08
6.3773e-06
1.23836e-07
6.3738e-06
1.48622e-07
6.36854e-06
1.72644e-07
6.36147e-06
1.96728e-07
6.3526e-06
2.21549e-07
6.3421e-06
2.47838e-07
6.3302e-06
2.76192e-07
6.31723e-06
3.07008e-07
6.30365e-06
3.40525e-07
6.29004e-06
3.76833e-07
6.27712e-06
4.15854e-07
6.26571e-06
4.57293e-07
6.25669e-06
5.00662e-07
6.25096e-06
5.45156e-07
5.90252e-07
6.24934e-06
5.74123e-06
2.2216e-08
5.74197e-06
6.24807e-08
5.74206e-06
9.62877e-08
5.74081e-06
1.2508e-07
5.73816e-06
1.5128e-07
5.73415e-06
1.76649e-07
5.72881e-06
2.02073e-07
5.72217e-06
2.28185e-07
5.7144e-06
2.55614e-07
5.70572e-06
2.84868e-07
5.69646e-06
3.16264e-07
5.68704e-06
3.49951e-07
5.67795e-06
3.85926e-07
5.66978e-06
4.24019e-07
5.6632e-06
4.63875e-07
5.65888e-06
5.04977e-07
5.65749e-06
5.46548e-07
5.8813e-07
5.65961e-06
6.99849e-06
2.18852e-08
6.99912e-06
6.18477e-08
6.99919e-06
9.62204e-08
6.99802e-06
1.26244e-07
6.99547e-06
1.5383e-07
6.99159e-06
1.80533e-07
6.98642e-06
2.07241e-07
6.98006e-06
2.34544e-07
6.97271e-06
2.62962e-07
6.96468e-06
2.92898e-07
6.95637e-06
3.2458e-07
6.94825e-06
3.58064e-07
6.94092e-06
3.93259e-07
6.93502e-06
4.29922e-07
6.93124e-06
4.67652e-07
6.93029e-06
5.05929e-07
6.93281e-06
5.44025e-07
5.81558e-07
6.93938e-06
8.53114e-06
2.15926e-08
8.53175e-06
6.1236e-08
8.53197e-06
9.59988e-08
8.53119e-06
1.2703e-07
8.52918e-06
1.55835e-07
8.526e-06
1.83718e-07
8.52173e-06
2.11512e-07
8.51652e-06
2.39749e-07
8.51064e-06
2.6884e-07
8.50447e-06
2.99071e-07
8.49847e-06
3.30575e-07
8.49322e-06
3.63323e-07
8.48933e-06
3.97149e-07
8.48749e-06
4.31756e-07
8.48841e-06
4.66728e-07
8.49278e-06
5.01568e-07
8.50118e-06
5.35618e-07
5.68592e-07
8.51415e-06
1.03995e-05
2.12645e-08
1.04004e-05
6.04157e-08
1.04011e-05
9.52493e-08
1.04013e-05
1.26889e-07
1.04006e-05
1.56536e-07
1.0399e-05
1.85237e-07
1.03968e-05
2.13713e-07
1.03942e-05
2.42417e-07
1.03914e-05
2.7165e-07
1.03888e-05
3.01585e-07
1.03872e-05
3.32261e-07
1.03869e-05
3.63576e-07
1.03887e-05
3.95312e-07
1.03933e-05
4.2715e-07
1.04014e-05
4.58684e-07
1.04135e-05
4.89472e-07
1.04302e-05
5.18946e-07
5.46933e-07
1.04518e-05
1.26773e-05
2.07503e-08
1.26788e-05
5.89458e-08
1.26807e-05
9.32829e-08
1.26828e-05
1.24877e-07
1.26846e-05
1.54708e-07
1.26862e-05
1.83579e-07
1.26879e-05
2.12061e-07
1.26898e-05
2.40504e-07
1.26923e-05
2.69105e-07
1.2696e-05
2.97936e-07
1.27013e-05
3.26952e-07
1.27089e-05
3.56003e-07
1.27193e-05
3.84846e-07
1.27333e-05
4.13171e-07
1.27514e-05
4.40618e-07
1.2774e-05
4.66817e-07
1.28017e-05
4.91313e-07
5.14043e-07
1.28346e-05
1.54541e-05
1.97924e-08
1.5457e-05
5.60884e-08
1.54613e-05
8.89588e-08
1.54667e-05
1.19489e-07
1.54729e-05
1.4848e-07
1.548e-05
1.7652e-07
1.5488e-05
2.0401e-07
1.54974e-05
2.31184e-07
1.55083e-05
2.58139e-07
1.55214e-05
2.84867e-07
1.55371e-05
3.11268e-07
1.55559e-05
3.37164e-07
1.55784e-05
3.62321e-07
1.56051e-05
3.86469e-07
1.56365e-05
4.09313e-07
1.56727e-05
4.30576e-07
1.57141e-05
4.49923e-07
4.67387e-07
1.57607e-05
1.88395e-05
1.79738e-08
1.88448e-05
5.07163e-08
1.88532e-05
8.05583e-08
1.88642e-05
1.08509e-07
1.88775e-05
1.35205e-07
1.8893e-05
1.61028e-07
1.89108e-05
1.86203e-07
1.89311e-05
2.10843e-07
1.89543e-05
2.34959e-07
1.89807e-05
2.58486e-07
1.90107e-05
2.81291e-07
1.90446e-05
3.03202e-07
1.90829e-05
3.24015e-07
1.91259e-05
3.43518e-07
1.91737e-05
3.61498e-07
1.92265e-05
3.77772e-07
1.92843e-05
3.92117e-07
4.04635e-07
1.93471e-05
2.29667e-05
1.45626e-08
2.29764e-05
4.11077e-08
2.29914e-05
6.55507e-08
2.30111e-05
8.88104e-08
2.3035e-05
1.11312e-07
2.30628e-05
1.33192e-07
2.30945e-05
1.54485e-07
2.31302e-05
1.75186e-07
2.31699e-05
1.95238e-07
2.32138e-05
2.14531e-07
2.32622e-05
2.32921e-07
2.33152e-05
2.50251e-07
2.33728e-05
2.66362e-07
2.34352e-05
2.81106e-07
2.35024e-05
2.94345e-07
2.35742e-05
3.05975e-07
2.36504e-05
3.15872e-07
3.2416e-07
2.37309e-05
1.6814e-05
1.12458e-08
1.68232e-05
3.1915e-08
1.68374e-05
5.13433e-08
1.68559e-05
7.03766e-08
1.6878e-05
8.9202e-08
1.69035e-05
1.077e-07
1.69322e-05
1.25761e-07
1.6964e-05
1.43319e-07
1.6999e-05
1.60282e-07
1.7037e-05
1.76514e-07
1.70781e-05
1.9186e-07
1.71222e-05
2.06174e-07
1.71692e-05
2.19324e-07
1.72191e-05
2.31194e-07
1.72718e-05
2.41688e-07
1.7327e-05
2.50744e-07
1.73846e-05
2.58289e-07
2.64446e-07
1.74443e-05
1.4638e-05
7.79212e-09
1.46476e-05
2.23057e-08
1.46623e-05
3.66857e-08
1.4681e-05
5.16636e-08
1.47032e-05
6.70538e-08
1.47284e-05
8.24266e-08
1.47566e-05
9.756e-08
1.47876e-05
1.12343e-07
1.48212e-05
1.26647e-07
1.48574e-05
1.40315e-07
1.48961e-05
1.53188e-07
1.49372e-05
1.65127e-07
1.49805e-05
1.76018e-07
1.50259e-05
1.85767e-07
1.50733e-05
1.94302e-07
1.51224e-05
2.01581e-07
1.51732e-05
2.07551e-07
2.12313e-07
1.52253e-05
1.27437e-05
4.21452e-09
1.27536e-05
1.24209e-08
1.27683e-05
2.19657e-08
1.27866e-05
3.3366e-08
1.28079e-05
4.57257e-08
1.28321e-05
5.8299e-08
1.28588e-05
7.08625e-08
1.28878e-05
8.32886e-08
1.29191e-05
9.5389e-08
1.29524e-05
1.06971e-07
1.29877e-05
1.17869e-07
1.30249e-05
1.27951e-07
1.30638e-05
1.3711e-07
1.31043e-05
1.45271e-07
1.31462e-05
1.52384e-07
1.31894e-05
1.58425e-07
1.32336e-05
1.6337e-07
1.67321e-07
1.32786e-05
1.10946e-05
4.97045e-10
1.11048e-05
2.24747e-09
1.11194e-05
7.34051e-09
1.11369e-05
1.59047e-08
1.11569e-05
2.5737e-08
1.11793e-05
3.58838e-08
1.1204e-05
4.61831e-08
1.12307e-05
5.65721e-08
1.12593e-05
6.68343e-08
1.12895e-05
7.67078e-08
1.13214e-05
8.60201e-08
1.13547e-05
9.46453e-08
1.13893e-05
1.02475e-07
1.14251e-05
1.09445e-07
1.1462e-05
1.15514e-07
1.14998e-05
1.20666e-07
1.15383e-05
1.24875e-07
1.28194e-07
1.15774e-05
9.65914e-06
-3.42536e-09
9.66964e-06
-8.2531e-09
9.684e-06
-7.01924e-09
9.70048e-06
-5.81885e-10
9.71907e-06
7.15089e-09
9.73953e-06
1.54277e-08
9.76181e-06
2.3897e-08
9.78586e-06
3.25289e-08
9.81142e-06
4.1274e-08
9.83839e-06
4.97334e-08
9.86667e-06
5.77448e-08
9.89614e-06
6.51686e-08
9.92669e-06
7.19254e-08
9.95818e-06
7.79595e-08
9.99046e-06
8.32319e-08
1.00234e-05
8.77359e-08
1.00568e-05
9.14711e-08
9.45304e-08
1.00905e-05
8.40978e-06
-7.85104e-09
8.42085e-06
-1.93274e-08
8.43427e-06
-2.04365e-08
8.44955e-06
-1.58673e-08
8.46688e-06
-1.01729e-08
8.48578e-06
-3.47378e-09
8.50597e-06
3.70979e-09
8.52761e-06
1.08868e-08
8.55046e-06
1.84218e-08
8.57443e-06
2.57668e-08
8.59935e-06
3.28277e-08
8.62523e-06
3.92793e-08
8.65199e-06
4.51701e-08
8.6795e-06
5.04491e-08
8.70763e-06
5.51008e-08
8.73625e-06
5.9114e-08
8.76527e-06
6.24542e-08
6.51331e-08
8.79467e-06
7.3221e-06
-1.2663e-08
7.33487e-06
-3.21038e-08
7.34713e-06
-3.26893e-08
7.36023e-06
-2.8967e-08
7.37535e-06
-2.52927e-08
7.39236e-06
-2.04885e-08
7.41067e-06
-1.46051e-08
7.42997e-06
-8.40641e-09
7.4505e-06
-2.11279e-09
7.47205e-06
4.21711e-09
7.49428e-06
1.06e-08
7.51727e-06
1.62898e-08
7.54091e-06
2.15277e-08
7.56518e-06
2.61837e-08
7.58992e-06
3.03615e-08
7.61501e-06
3.40206e-08
7.64033e-06
3.71312e-08
3.97926e-08
7.66567e-06
6.37396e-06
-1.65527e-08
6.38902e-06
-4.71718e-08
6.40201e-06
-4.56747e-08
6.41495e-06
-4.19123e-08
6.42958e-06
-3.99169e-08
6.44543e-06
-3.63429e-08
6.4622e-06
-3.13702e-08
6.47983e-06
-2.60378e-08
6.49832e-06
-2.05993e-08
6.51759e-06
-1.50552e-08
6.53773e-06
-9.53832e-09
6.55834e-06
-4.31922e-09
6.57936e-06
4.99401e-10
6.60085e-06
4.69351e-09
6.62265e-06
8.57038e-09
6.64465e-06
1.20156e-08
6.66682e-06
1.49568e-08
1.74471e-08
6.68917e-06
5.55098e-06
-2.20722e-08
5.56637e-06
-6.25567e-08
5.58314e-06
-6.24411e-08
5.60098e-06
-5.97617e-08
5.62002e-06
-5.8954e-08
5.63917e-06
-5.54958e-08
5.65805e-06
-5.02491e-08
5.67665e-06
-4.46336e-08
5.69501e-06
-3.89641e-08
5.71321e-06
-3.3253e-08
5.7313e-06
-2.76242e-08
5.74926e-06
-2.22817e-08
5.76713e-06
-1.73676e-08
5.78478e-06
-1.29596e-08
5.80229e-06
-8.94314e-09
5.81971e-06
-5.40049e-09
5.83703e-06
-2.36586e-09
-9.1351e-13
5.85448e-06
4.87922e-06
-7.36891e-08
4.91213e-06
-9.54665e-08
4.93954e-06
-8.98492e-08
4.96065e-06
-8.08699e-08
4.97648e-06
-7.47792e-08
4.98822e-06
-6.7245e-08
4.99683e-06
-5.88571e-08
5.00304e-06
-5.08421e-08
5.00753e-06
-4.34541e-08
5.01091e-06
-3.66327e-08
5.01367e-06
-3.0385e-08
5.01617e-06
-2.47764e-08
5.01863e-06
-1.98346e-08
5.02121e-06
-1.55343e-08
5.02405e-06
-1.17882e-08
5.02728e-06
-8.62364e-09
5.03099e-06
-6.08095e-09
-4.68404e-09
5.03567e-06
4.12899e-06
4.03352e-06
3.94367e-06
3.8628e-06
3.78802e-06
3.72078e-06
3.66192e-06
3.61108e-06
3.56762e-06
3.53099e-06
3.50061e-06
3.47583e-06
3.456e-06
3.44046e-06
3.42867e-06
3.42005e-06
3.41397e-06
3.40928e-06
-4.95504e-07
4.95504e-07
-7.48736e-07
2.53233e-07
-3.91588e-07
-3.57148e-07
5.28625e-07
-9.20213e-07
1.72118e-06
-1.19256e-06
2.92953e-06
-1.20835e-06
4.00278e-06
-1.07324e-06
4.87361e-06
-8.70832e-07
5.51723e-06
-6.4362e-07
5.9262e-06
-4.08971e-07
6.09958e-06
-1.7338e-07
6.02805e-06
7.15312e-08
5.69617e-06
3.31875e-07
5.12718e-06
5.68992e-07
4.35551e-06
7.71672e-07
3.43841e-06
9.17097e-07
2.46058e-06
9.77838e-07
1.52956e-06
9.31017e-07
7.61436e-07
7.68123e-07
2.50853e-07
5.10583e-07
1.64592e-08
2.34394e-07
2.8254e-08
-1.17948e-08
2.1653e-07
-1.88276e-07
6.35611e-07
-4.19081e-07
1.14814e-06
-5.12529e-07
1.56178e-06
-4.13638e-07
1.81219e-06
-2.50414e-07
1.90598e-06
-9.37901e-08
1.87877e-06
2.72133e-08
1.74512e-06
1.3365e-07
1.46569e-06
2.79429e-07
9.73079e-07
4.92611e-07
2.32884e-07
7.40196e-07
-7.15607e-07
9.48491e-07
-1.79943e-06
1.08382e-06
-2.95792e-06
1.15849e-06
-4.13835e-06
1.18042e-06
-5.29697e-06
1.15862e-06
-6.39981e-06
1.10284e-06
-7.42248e-06
1.02267e-06
-8.34928e-06
9.26803e-07
-9.17165e-06
8.22362e-07
-9.88646e-06
7.14809e-07
-1.04945e-05
6.08026e-07
-1.0999e-05
5.04552e-07
-1.14049e-05
4.05906e-07
-1.17178e-05
3.12848e-07
-1.19434e-05
2.25651e-07
-1.20882e-05
1.44743e-07
-1.21595e-05
7.12723e-08
-1.21657e-05
6.20554e-09
-1.212e-05
-4.56165e-08
-1.20303e-05
-8.97146e-08
-1.19018e-05
-1.2851e-07
-1.1738e-05
-1.6379e-07
-1.15416e-05
-1.96456e-07
-1.13145e-05
-2.27033e-07
-1.10587e-05
-2.55888e-07
-1.07753e-05
-2.8334e-07
-1.04656e-05
-3.09695e-07
-1.01304e-05
-3.35245e-07
-9.77011e-06
-3.60259e-07
-9.38516e-06
-3.84949e-07
-8.97573e-06
-4.09438e-07
-8.54201e-06
-4.33717e-07
-8.0844e-06
-4.57605e-07
-7.60368e-06
-4.80726e-07
-7.10118e-06
-5.025e-07
-6.579e-06
-5.22175e-07
-6.04012e-06
-5.38881e-07
-5.48839e-06
-5.51731e-07
-4.92847e-06
-5.59925e-07
-4.3656e-06
-5.62868e-07
-3.80535e-06
-5.60251e-07
-3.25324e-06
-5.52107e-07
-2.71444e-06
-5.38801e-07
-2.1935e-06
-5.20943e-07
-1.69428e-06
-4.99212e-07
-1.22002e-06
-4.74268e-07
-7.73052e-07
-4.46964e-07
-3.54669e-07
-4.18383e-07
3.56587e-08
-3.90328e-07
3.98572e-07
-3.62914e-07
7.34344e-07
-3.35772e-07
1.0439e-06
-3.0956e-07
1.32841e-06
-2.84505e-07
1.58916e-06
-2.60754e-07
1.82756e-06
-2.38392e-07
2.04498e-06
-2.17426e-07
2.2428e-06
-1.97819e-07
2.42231e-06
-1.79508e-07
2.58472e-06
-1.62411e-07
2.73115e-06
-1.46432e-07
2.86262e-06
-1.31466e-07
2.97999e-06
-1.17368e-07
3.08385e-06
-1.03858e-07
3.17436e-06
-9.05196e-08
3.25171e-06
-7.73408e-08
3.31627e-06
-6.45628e-08
3.36371e-06
-4.7438e-08
3.38074e-06
-1.70369e-08
3.34374e-06
3.70058e-08
3.25033e-06
9.34028e-08
3.10745e-06
1.42886e-07
2.92876e-06
1.78691e-07
2.73514e-06
1.9362e-07
2.5491e-06
1.86037e-07
2.38903e-06
1.60069e-07
2.2658e-06
1.23229e-07
2.18227e-06
8.35334e-08
2.13484e-06
4.74293e-08
2.11636e-06
1.84793e-08
2.11877e-06
-2.40346e-09
2.13772e-06
-1.89526e-08
2.17284e-06
-3.51198e-08
2.22838e-06
-5.55407e-08
2.31323e-06
-8.48537e-08
2.43793e-06
-1.24702e-07
2.6049e-06
-1.66969e-07
2.79202e-06
-1.8712e-07
2.9479e-06
-1.55877e-07
3.01918e-06
-7.12784e-08
2.97115e-06
4.80292e-08
2.73538e-06
2.3577e-07
2.17558e-06
5.59801e-07
1.19349e-06
9.82088e-07
-9.64742e-08
1.28996e-06
-1.48792e-06
1.39144e-06
-2.78757e-06
1.29965e-06
-3.9049e-06
1.11732e-06
-4.81338e-06
9.08482e-07
-5.51755e-06
7.0417e-07
-6.03285e-06
5.15305e-07
-6.37579e-06
3.42933e-07
-6.56222e-06
1.86437e-07
-6.60721e-06
4.4984e-08
-6.53756e-06
-6.96492e-08
-6.3642e-06
-1.73358e-07
-6.09077e-06
-2.7343e-07
-5.71806e-06
-3.72708e-07
-5.24657e-06
-4.71489e-07
-4.67773e-06
-5.6884e-07
-4.01499e-06
-6.62743e-07
-3.26493e-06
-7.50063e-07
-2.4387e-06
-8.26223e-07
-1.55323e-06
-8.85474e-07
-6.28859e-07
-9.2437e-07
3.08675e-07
-9.37534e-07
1.2322e-06
-9.23528e-07
2.11965e-06
-8.87446e-07
2.95376e-06
-8.34113e-07
3.72203e-06
-7.68265e-07
4.41731e-06
-6.9528e-07
5.03635e-06
-6.19045e-07
5.57608e-06
-5.39731e-07
6.03552e-06
-4.59433e-07
6.42103e-06
-3.85518e-07
6.69452e-06
-2.73482e-07
6.73058e-06
-3.60647e-08
6.39142e-06
3.39162e-07
5.67601e-06
7.15412e-07
4.68038e-06
9.95623e-07
3.60086e-06
1.07952e-06
2.66639e-06
9.34471e-07
2.06139e-06
6.04998e-07
1.83615e-06
2.25236e-07
1.88942e-06
-5.32653e-08
2.03698e-06
-1.47556e-07
2.09871e-06
-6.1739e-08
1.95086e-06
1.47851e-07
1.49278e-06
4.58084e-07
7.18123e-07
7.74657e-07
-2.83061e-07
1.00118e-06
-1.32497e-06
1.04191e-06
-2.19425e-06
8.6928e-07
-2.74864e-06
5.54397e-07
-2.92116e-06
1.72515e-07
-2.75667e-06
-1.64486e-07
-2.29357e-06
-4.63106e-07
-7.00266e-07
-1.5933e-06
8.94261e-08
4.06077e-07
7.83051e-07
-4.40392e-07
1.92433e-06
-1.49842e-06
3.09075e-06
-2.08664e-06
4.09507e-06
-2.19687e-06
4.8984e-06
-2.01169e-06
5.51593e-06
-1.69077e-06
5.9742e-06
-1.3291e-06
6.2999e-06
-9.69312e-07
6.51419e-06
-6.23265e-07
6.63103e-06
-2.90218e-07
6.66543e-06
3.71281e-08
6.6196e-06
3.77702e-07
6.45876e-06
7.29837e-07
6.14587e-06
1.08456e-06
5.65593e-06
1.40704e-06
4.99417e-06
1.6396e-06
4.20974e-06
1.71544e-06
3.39423e-06
1.58364e-06
2.65883e-06
1.24598e-06
2.09515e-06
7.98074e-07
1.73186e-06
3.51505e-07
1.66241e-06
-1.18836e-07
1.77754e-06
-5.34209e-07
1.87293e-06
-6.0792e-07
1.73539e-06
-2.76098e-07
1.36852e-06
1.16456e-07
7.43241e-07
5.31493e-07
-1.84041e-07
9.54495e-07
-1.38652e-06
1.33613e-06
-2.76289e-06
1.65579e-06
-4.18642e-06
1.91615e-06
-5.55611e-06
2.10988e-06
-6.82635e-06
2.21873e-06
-7.97927e-06
2.23674e-06
-8.99538e-06
2.1746e-06
-9.86387e-06
2.04892e-06
-1.05838e-05
1.8785e-06
-1.11625e-05
1.6816e-06
-1.16138e-05
1.47394e-06
-1.19546e-05
1.26767e-06
-1.22034e-05
1.07112e-06
-1.23777e-05
8.89106e-07
-1.24934e-05
7.23692e-07
-1.25637e-05
5.74911e-07
-1.25994e-05
4.41564e-07
-1.26084e-05
3.21876e-07
-1.25968e-05
2.14003e-07
-1.25682e-05
1.16135e-07
-1.25242e-05
2.73175e-08
-1.24611e-05
-5.68711e-08
-1.2371e-05
-1.3572e-07
-1.22496e-05
-2.11104e-07
-1.20961e-05
-2.82076e-07
-1.19112e-05
-3.48688e-07
-1.16963e-05
-4.11275e-07
-1.14531e-05
-4.70271e-07
-1.11828e-05
-5.2616e-07
-1.08867e-05
-5.7947e-07
-1.05656e-05
-6.30769e-07
-1.02202e-05
-6.80637e-07
-9.85087e-06
-7.29627e-07
-9.45763e-06
-7.78194e-07
-9.04045e-06
-8.26618e-07
-8.59925e-06
-8.7491e-07
-8.13414e-06
-9.22723e-07
-7.64557e-06
-9.69292e-07
-7.13466e-06
-1.01341e-06
-6.60336e-06
-1.05348e-06
-6.0546e-06
-1.08764e-06
-5.49234e-06
-1.11399e-06
-4.92145e-06
-1.13081e-06
-4.3475e-06
-1.13682e-06
-3.77638e-06
-1.13137e-06
-3.21393e-06
-1.11456e-06
-2.66555e-06
-1.08718e-06
-2.13592e-06
-1.05057e-06
-1.62878e-06
-1.00635e-06
-1.14682e-06
-9.5623e-07
-6.91725e-07
-9.02058e-07
-2.63952e-07
-8.46156e-07
1.35149e-07
-7.89429e-07
5.05735e-07
-7.335e-07
8.49037e-07
-6.79074e-07
1.16635e-06
-6.26874e-07
1.45905e-06
-5.77208e-07
1.72858e-06
-5.30282e-07
1.97638e-06
-4.86195e-07
2.20389e-06
-4.44929e-07
2.41246e-06
-4.06392e-07
2.60339e-06
-3.70442e-07
2.77789e-06
-3.36905e-07
2.93703e-06
-3.05581e-07
3.08181e-06
-2.76245e-07
3.21308e-06
-2.48639e-07
3.33167e-06
-2.22444e-07
3.43843e-06
-1.97283e-07
3.53383e-06
-1.72732e-07
3.61752e-06
-1.48253e-07
3.69338e-06
-1.233e-07
3.77319e-06
-9.68535e-08
3.87258e-06
-6.2377e-08
3.98209e-06
-1.61088e-08
4.09011e-06
3.48621e-08
4.18087e-06
8.79369e-08
4.24623e-06
1.28259e-07
4.28445e-06
1.47818e-07
4.29867e-06
1.45844e-07
4.29348e-06
1.2842e-07
4.27187e-06
1.05148e-07
4.23407e-06
8.52254e-08
4.17841e-06
7.41335e-08
4.10417e-06
7.18418e-08
4.01189e-06
7.33293e-08
3.90653e-06
7.02421e-08
3.7991e-06
5.18847e-08
3.70871e-06
5.53576e-09
3.66067e-06
-7.66568e-08
3.67705e-06
-1.83353e-07
3.75516e-06
-2.65227e-07
3.84013e-06
-2.40848e-07
3.79962e-06
-3.07719e-08
3.40838e-06
4.39273e-07
2.43078e-06
1.21336e-06
8.64945e-07
2.12564e-06
-8.918e-07
2.73883e-06
-2.46581e-06
2.86397e-06
-3.70273e-06
2.62836e-06
-4.61605e-06
2.21298e-06
-5.263e-06
1.76427e-06
-5.70938e-06
1.35486e-06
-6.01065e-06
1.00544e-06
-6.20625e-06
7.10898e-07
-6.32139e-06
4.58071e-07
-6.36888e-06
2.33933e-07
-6.35117e-06
2.72733e-08
-6.2505e-06
-1.70321e-07
-6.05693e-06
-3.66926e-07
-5.76826e-06
-5.62107e-07
-5.38377e-06
-7.57197e-07
-4.9032e-06
-9.52057e-07
-4.32737e-06
-1.14467e-06
-3.65931e-06
-1.3308e-06
-2.90548e-06
-1.5039e-06
-2.07668e-06
-1.65502e-06
-1.18825e-06
-1.7739e-06
-2.60864e-07
-1.85176e-06
6.79613e-07
-1.87801e-06
1.608e-06
-1.85191e-06
2.50247e-06
-1.78192e-06
3.34537e-06
-1.67701e-06
4.12475e-06
-1.54764e-06
4.83362e-06
-1.40415e-06
5.46932e-06
-1.25474e-06
6.03392e-06
-1.10433e-06
6.52749e-06
-9.53005e-07
6.93688e-06
-7.94911e-07
7.28783e-06
-6.24424e-07
7.66914e-06
-4.17377e-07
8.09472e-06
-8.64155e-08
8.40027e-06
4.09858e-07
8.41268e-06
9.83214e-07
8.06598e-06
1.42622e-06
7.40967e-06
1.59078e-06
6.51497e-06
1.4997e-06
5.46862e-06
1.27158e-06
4.43917e-06
9.76181e-07
3.63501e-06
6.56607e-07
3.08689e-06
4.86384e-07
2.54168e-06
6.93054e-07
1.75677e-06
1.243e-06
7.19963e-07
1.81146e-06
-3.70787e-07
2.09193e-06
-1.32627e-06
1.99739e-06
-2.0321e-06
1.57511e-06
-2.46005e-06
9.82349e-07
-2.60222e-06
3.14686e-07
-2.46055e-06
-3.06156e-07
-2.0415e-06
-8.82159e-07
-1.32136e-06
-1.4204e-06
6.29631e-07
-2.23554e-07
2.01716e-06
-1.82792e-06
3.25284e-06
-2.7341e-06
4.05151e-06
-2.88532e-06
4.48928e-06
-2.63463e-06
4.71501e-06
-2.23742e-06
4.84045e-06
-1.81622e-06
4.92508e-06
-1.41373e-06
4.99107e-06
-1.0353e-06
5.04212e-06
-6.74309e-07
5.075e-06
-3.23103e-07
5.08786e-06
2.42687e-08
5.09085e-06
3.74715e-07
5.07994e-06
7.40745e-07
5.0333e-06
1.1312e-06
4.9087e-06
1.53164e-06
4.66234e-06
1.88595e-06
4.27475e-06
2.10303e-06
3.7636e-06
2.09479e-06
3.17601e-06
1.83356e-06
2.60671e-06
1.36738e-06
2.24149e-06
7.16727e-07
2.03638e-06
8.62668e-08
1.56475e-06
-6.25782e-08
7.08607e-07
2.48227e-07
-4.40694e-07
8.73203e-07
-1.7925e-06
1.46826e-06
-3.22335e-06
1.96234e-06
-4.64365e-06
2.37479e-06
-5.99516e-06
2.68764e-06
-7.22824e-06
2.88887e-06
-8.29446e-06
2.98237e-06
-9.16332e-06
2.97873e-06
-9.83564e-06
2.89106e-06
-1.03345e-05
2.7356e-06
-1.06922e-05
2.5323e-06
-1.09446e-05
2.30128e-06
-1.11261e-05
2.06007e-06
-1.12663e-05
1.82179e-06
-1.1387e-05
1.59465e-06
-1.15019e-05
1.38253e-06
-1.1617e-05
1.18616e-06
-1.17323e-05
1.00444e-06
-1.1844e-05
8.35452e-07
-1.19463e-05
6.77209e-07
-1.20327e-05
5.27959e-07
-1.20972e-05
3.86385e-07
-1.21348e-05
2.51593e-07
-1.21417e-05
1.23046e-07
-1.2115e-05
5.49733e-10
-1.20554e-05
-1.16431e-07
-1.19633e-05
-2.27801e-07
-1.18409e-05
-3.33533e-07
-1.16893e-05
-4.33639e-07
-1.15098e-05
-5.28229e-07
-1.13035e-05
-6.1757e-07
-1.10717e-05
-7.02096e-07
-1.08154e-05
-7.82403e-07
-1.05357e-05
-8.5923e-07
-1.0233e-05
-9.33435e-07
-9.90771e-06
-1.00594e-06
-9.55968e-06
-1.07766e-06
-9.18848e-06
-1.14939e-06
-8.79342e-06
-1.22168e-06
-8.37369e-06
-1.29464e-06
-7.9286e-06
-1.36781e-06
-7.45787e-06
-1.44002e-06
-6.96195e-06
-1.50933e-06
-6.44234e-06
-1.57309e-06
-5.90182e-06
-1.62816e-06
-5.34454e-06
-1.67128e-06
-4.77588e-06
-1.69947e-06
-4.20218e-06
-1.71052e-06
-3.63022e-06
-1.70333e-06
-3.06671e-06
-1.67806e-06
-2.51781e-06
-1.63608e-06
-1.98869e-06
-1.57969e-06
-1.4833e-06
-1.51174e-06
-1.00427e-06
-1.43526e-06
-5.53049e-07
-1.35328e-06
-1.3083e-07
-1.26837e-06
2.62847e-07
-1.18311e-06
6.27928e-07
-1.09858e-06
9.65763e-07
-1.01691e-06
1.27773e-06
-9.38839e-07
1.56532e-06
-8.64797e-07
1.83008e-06
-7.95043e-07
2.07354e-06
-7.29654e-07
2.29717e-06
-6.68559e-07
2.50236e-06
-6.11589e-07
2.69043e-06
-5.58506e-07
2.86256e-06
-5.09033e-07
3.01984e-06
-4.62864e-07
3.16327e-06
-4.19672e-07
3.29373e-06
-3.79103e-07
3.41207e-06
-3.40782e-07
3.5191e-06
-3.04317e-07
3.61558e-06
-2.69207e-07
3.70197e-06
-2.34646e-07
3.77854e-06
-1.99871e-07
3.84619e-06
-1.64499e-07
3.91101e-06
-1.27201e-07
3.98203e-06
-8.71244e-08
4.0629e-06
-4.60135e-08
4.15598e-06
-5.14384e-09
4.25417e-06
3.00767e-08
4.34792e-06
5.40601e-08
4.42947e-06
6.42937e-08
4.49565e-06
6.2241e-08
4.54743e-06
5.33679e-08
4.58725e-06
4.54054e-08
4.61556e-06
4.58253e-08
4.62885e-06
5.85521e-08
4.61908e-06
8.31046e-08
4.5779e-06
1.11418e-07
4.50215e-06
1.27631e-07
4.40018e-06
1.07513e-07
4.29555e-06
2.79708e-08
4.21407e-06
-1.01875e-07
4.14312e-06
-1.9428e-07
3.98183e-06
-7.95562e-08
3.52198e-06
4.29076e-07
2.53598e-06
1.42528e-06
1.00254e-06
2.7468e-06
-6.65408e-07
3.79359e-06
-2.03749e-06
4.11092e-06
-3.01985e-06
3.84634e-06
-3.70117e-06
3.30967e-06
-4.20574e-06
2.71755e-06
-4.617e-06
2.17554e-06
-4.96985e-06
1.70772e-06
-5.26817e-06
1.30376e-06
-5.50332e-06
9.46047e-07
-5.66474e-06
6.19488e-07
-5.74393e-06
3.13131e-07
-5.73651e-06
1.98494e-08
-5.63968e-06
-2.67155e-07
-5.45387e-06
-5.5273e-07
-5.17748e-06
-8.38494e-07
-4.80903e-06
-1.12565e-06
-4.34745e-06
-1.41364e-06
-3.79272e-06
-1.69941e-06
-3.14711e-06
-1.97641e-06
-2.41633e-06
-2.23467e-06
-1.61059e-06
-2.46076e-06
-7.44873e-07
-2.63962e-06
1.5875e-07
-2.75538e-06
1.07466e-06
-2.79392e-06
1.97882e-06
-2.75608e-06
2.84865e-06
-2.65175e-06
3.66652e-06
-2.49488e-06
4.42089e-06
-2.30201e-06
5.10583e-06
-2.0891e-06
5.71982e-06
-1.86873e-06
6.2642e-06
-1.64872e-06
6.74231e-06
-1.43112e-06
7.15748e-06
-1.21008e-06
7.50653e-06
-9.73476e-07
7.79307e-06
-7.03917e-07
8.08269e-06
-3.76027e-07
8.45574e-06
3.68077e-08
8.89151e-06
5.47442e-07
9.23394e-06
1.0838e-06
9.29973e-06
1.52498e-06
8.96962e-06
1.82981e-06
8.21032e-06
2.03089e-06
7.08119e-06
2.10531e-06
5.7544e-06
1.98339e-06
4.4793e-06
1.76149e-06
3.39082e-06
1.78154e-06
2.40077e-06
2.23304e-06
1.39987e-06
2.81237e-06
4.11558e-07
3.08024e-06
-4.61783e-07
2.87073e-06
-1.18215e-06
2.29548e-06
-1.67319e-06
1.47338e-06
-1.88481e-06
5.26311e-07
-1.80922e-06
-3.81752e-07
-1.49071e-06
-1.20067e-06
-1.79548e-06
-1.01659e-06
1.18828e-06
-1.41184e-06
2.48254e-06
-3.12219e-06
3.13845e-06
-3.39001e-06
3.32951e-06
-3.07638e-06
3.33276e-06
-2.63788e-06
3.30462e-06
-2.20929e-06
3.29933e-06
-1.81092e-06
3.31786e-06
-1.43226e-06
3.34271e-06
-1.06015e-06
3.35843e-06
-6.90038e-07
3.35876e-06
-3.23432e-07
3.34419e-06
3.88415e-08
3.3168e-06
4.02108e-07
3.2815e-06
7.7604e-07
3.2362e-06
1.1765e-06
3.16042e-06
1.60742e-06
3.01754e-06
2.02884e-06
2.77646e-06
2.3441e-06
2.43344e-06
2.43782e-06
2.03678e-06
2.23022e-06
1.71537e-06
1.68878e-06
1.36829e-06
1.06381e-06
5.87713e-07
8.66844e-07
-7.63885e-07
1.28902e-06
-2.40855e-06
1.8929e-06
-3.97851e-06
2.44316e-06
-5.4101e-06
2.89986e-06
-6.68241e-06
3.23464e-06
-7.75342e-06
3.44581e-06
-8.60352e-06
3.53774e-06
-9.23852e-06
3.52387e-06
-9.68055e-06
3.42441e-06
-9.96348e-06
3.26166e-06
-1.01295e-05
3.05704e-06
-1.02233e-05
2.82945e-06
-1.02851e-05
2.59412e-06
-1.03451e-05
2.36127e-06
-1.04214e-05
2.13632e-06
-1.05206e-05
1.92099e-06
-1.06407e-05
1.71478e-06
-1.07744e-05
1.51627e-06
-1.09123e-05
1.32401e-06
-1.10447e-05
1.13692e-06
-1.11637e-05
9.54405e-07
-1.12627e-05
7.76251e-07
-1.13373e-05
6.02561e-07
-1.13846e-05
4.33624e-07
-1.14028e-05
2.69822e-07
-1.13914e-05
1.1162e-07
-1.13503e-05
-4.0519e-08
-1.12804e-05
-1.86332e-07
-1.11827e-05
-3.2547e-07
-1.10586e-05
-4.57638e-07
-1.09096e-05
-5.82667e-07
-1.07373e-05
-7.00588e-07
-1.05431e-05
-8.11685e-07
-1.03287e-05
-9.16521e-07
-1.00952e-05
-1.01594e-06
-9.84335e-06
-1.11106e-06
-9.57359e-06
-1.2032e-06
-9.28569e-06
-1.29384e-06
-8.97887e-06
-1.38448e-06
-8.65174e-06
-1.47652e-06
-8.30241e-06
-1.571e-06
-7.92866e-06
-1.6684e-06
-7.52819e-06
-1.76828e-06
-7.09909e-06
-1.86912e-06
-6.64031e-06
-1.96811e-06
-6.15217e-06
-2.06122e-06
-5.6368e-06
-2.14354e-06
-5.0983e-06
-2.20977e-06
-4.54269e-06
-2.25508e-06
-3.97742e-06
-2.27579e-06
-3.41072e-06
-2.27003e-06
-2.85079e-06
-2.23799e-06
-2.30505e-06
-2.18182e-06
-1.77961e-06
-2.10513e-06
-1.27898e-06
-2.01237e-06
-8.06044e-07
-1.9082e-06
-3.62266e-07
-1.79705e-06
5.13794e-08
-1.68202e-06
4.35415e-07
-1.56714e-06
7.91069e-07
-1.45423e-06
1.11956e-06
-1.3454e-06
1.42239e-06
-1.24168e-06
1.70125e-06
-1.14365e-06
1.95779e-06
-1.05158e-06
2.19362e-06
-9.65483e-07
2.41025e-06
-8.85193e-07
2.6091e-06
-8.10432e-07
2.79144e-06
-7.40851e-07
2.95846e-06
-6.76057e-07
3.11124e-06
-6.15637e-07
3.25073e-06
-5.59165e-07
3.37783e-06
-5.06205e-07
3.49336e-06
-4.56307e-07
3.59805e-06
-4.09005e-07
3.69262e-06
-3.63785e-07
3.77804e-06
-3.20061e-07
3.85549e-06
-2.77318e-07
3.92615e-06
-2.3516e-07
3.99183e-06
-1.92885e-07
4.05494e-06
-1.50232e-07
4.11738e-06
-1.0845e-07
4.18176e-06
-6.95294e-08
4.24842e-06
-3.65842e-08
4.31518e-06
-1.27024e-08
4.37868e-06
7.95936e-10
4.43609e-06
4.83821e-09
4.48684e-06
2.61127e-09
4.5331e-06
-8.51732e-10
4.57755e-06
1.3723e-09
4.62091e-06
1.51945e-08
4.65498e-06
4.90298e-08
4.66473e-06
1.01668e-07
4.63542e-06
1.56949e-07
4.56476e-06
1.78168e-07
4.46523e-06
1.27501e-07
4.33858e-06
2.47812e-08
4.13077e-06
1.35273e-08
3.69501e-06
3.562e-07
2.84793e-06
1.27616e-06
1.53832e-06
2.73489e-06
3.93651e-08
4.24575e-06
-1.18578e-06
5.01873e-06
-2.01726e-06
4.9424e-06
-2.58447e-06
4.41355e-06
-3.03558e-06
3.76078e-06
-3.45377e-06
3.13574e-06
-3.85369e-06
2.57546e-06
-4.21771e-06