/*--------------------------------*- C++ -*----------------------------------*\
  =========                 |
  \\      /  F ield         | OpenFOAM: The Open Source CFD Toolbox
   \\    /   O peration     | Website:  https://openfoam.org
    \\  /    A nd           | Version:  9
     \\/     M anipulation  |
\*---------------------------------------------------------------------------*/
FoamFile
{
    format      ascii;
    class       volScalarField;
    location    "0.08";
    object      k_0;
}
// * * * * * * * * * * * * * * * * * * * * * * * * * * * * * * * * * * * * * //

dimensions      [0 2 -2 0 0 0 0];

internalField   nonuniform List<scalar> 
12225
(
1.97538e-05
2.03422e-05
2.41733e-05
2.70139e-05
2.83285e-05
3.05863e-05
3.72998e-05
5.68406e-05
7.37307e-05
8.22655e-05
8.47031e-05
8.43779e-05
7.98596e-05
7.24268e-05
7.00393e-05
7.06106e-05
7.41164e-05
0.000120135
1.99985e-05
2.00511e-05
2.04025e-05
2.08341e-05
2.11871e-05
2.18272e-05
2.32878e-05
2.72459e-05
3.61097e-05
4.45829e-05
5.09282e-05
5.4347e-05
5.51064e-05
5.49916e-05
5.40068e-05
5.29366e-05
5.30608e-05
5.57846e-05
2.00023e-05
1.93836e-05
1.85234e-05
1.66906e-05
1.54118e-05
1.50768e-05
1.51271e-05
1.55181e-05
1.68853e-05
1.89614e-05
2.06172e-05
2.18186e-05
2.2759e-05
2.32933e-05
2.35637e-05
2.39936e-05
2.44455e-05
2.53674e-05
2.00614e-05
2.02012e-05
2.01493e-05
1.98808e-05
1.91101e-05
1.84912e-05
1.90299e-05
1.92885e-05
1.86382e-05
1.7427e-05
1.75004e-05
1.7678e-05
1.75755e-05
1.67268e-05
1.59854e-05
1.58304e-05
1.59397e-05
1.66348e-05
2.22571e-05
2.24956e-05
2.11383e-05
2.05029e-05
2.05004e-05
2.08351e-05
2.21618e-05
2.45746e-05
2.5469e-05
2.54482e-05
2.52357e-05
2.52065e-05
2.56179e-05
2.61604e-05
2.61349e-05
2.57528e-05
2.47195e-05
2.35523e-05
3.01216e-05
3.19312e-05
2.70576e-05
2.55359e-05
2.4693e-05
2.25783e-05
2.19397e-05
2.1934e-05
2.21817e-05
2.302e-05
2.55001e-05
3.31575e-05
4.16582e-05
4.65431e-05
4.78874e-05
4.76717e-05
4.74391e-05
4.69692e-05
2.30114e-05
2.44058e-05
2.54649e-05
2.59937e-05
2.40078e-05
2.18968e-05
2.11928e-05
2.10514e-05
2.10812e-05
2.13485e-05
2.24321e-05
2.6494e-05
3.22864e-05
3.57842e-05
3.90996e-05
4.70239e-05
5.54664e-05
5.9051e-05
2.10932e-05
2.637e-05
2.81777e-05
2.53619e-05
2.34042e-05
2.3643e-05
2.51058e-05
2.57878e-05
2.59369e-05
2.61402e-05
2.70688e-05
3.03274e-05
4.32721e-05
7.00392e-05
8.51892e-05
8.97377e-05
8.97744e-05
8.62957e-05
2.0202e-05
2.15997e-05
2.20728e-05
2.20465e-05
2.21805e-05
2.3355e-05
2.88134e-05
3.57726e-05
3.97117e-05
4.19391e-05
4.38476e-05
4.73392e-05
5.59357e-05
6.29153e-05
6.48674e-05
6.45428e-05
6.16734e-05
5.30672e-05
2.01234e-05
2.19648e-05
2.33179e-05
2.36033e-05
2.38592e-05
2.50363e-05
2.98769e-05
3.69811e-05
4.39357e-05
5.14335e-05
5.63669e-05
5.71317e-05
5.28143e-05
4.04505e-05
3.41098e-05
3.12567e-05
2.86406e-05
2.65442e-05
2.00468e-05
2.14799e-05
2.77583e-05
3.07432e-05
2.97929e-05
2.53739e-05
2.352e-05
2.34709e-05
2.42591e-05
2.72119e-05
3.05444e-05
3.17227e-05
3.07758e-05
2.93133e-05
2.94481e-05
3.09674e-05
3.12375e-05
3.05888e-05
2.03824e-05
2.07699e-05
2.14552e-05
2.25366e-05
2.36122e-05
2.35837e-05
2.21022e-05
2.09277e-05
2.06404e-05
2.06709e-05
2.09979e-05
2.13195e-05
2.1426e-05
2.15358e-05
2.18475e-05
2.3135e-05
2.75071e-05
2.99814e-05
2.47864e-05
2.20489e-05
2.05595e-05
2.08196e-05
2.34752e-05
2.51318e-05
2.40006e-05
2.21128e-05
2.15227e-05
2.14853e-05
2.17591e-05
2.22302e-05
2.23878e-05
2.24103e-05
2.243e-05
2.25131e-05
2.28305e-05
2.35376e-05
2.13797e-05
2.36837e-05
2.27663e-05
2.16123e-05
2.14758e-05
2.1467e-05
2.14049e-05
2.13243e-05
2.13537e-05
2.16892e-05
2.27008e-05
2.33938e-05
2.37022e-05
2.3777e-05
2.37627e-05
2.35904e-05
2.32943e-05
2.29337e-05
2.13072e-05
2.31524e-05
2.3082e-05
2.20205e-05
2.19717e-05
2.24423e-05
2.27943e-05
2.28098e-05
2.30969e-05
2.50241e-05
2.6231e-05
2.6482e-05
2.72664e-05
2.83843e-05
2.96499e-05
3.10424e-05
3.21421e-05
3.24807e-05
2.13787e-05
2.30097e-05
2.3421e-05
2.28882e-05
2.26075e-05
2.31971e-05
2.32316e-05
2.30845e-05
2.36364e-05
2.60272e-05
2.69137e-05
2.70385e-05
2.7535e-05
2.81184e-05
2.85242e-05
2.872e-05
2.87406e-05
2.86829e-05
2.06437e-05
2.07715e-05
2.05269e-05
2.05058e-05
2.10341e-05
2.47004e-05
2.92263e-05
3.03066e-05
3.03239e-05
3.03668e-05
3.03683e-05
3.00567e-05
2.80657e-05
2.54159e-05
2.37859e-05
2.28746e-05
2.23067e-05
2.20707e-05
2.37576e-05
2.4215e-05
2.19883e-05
2.1365e-05
2.20382e-05
2.4079e-05
2.54636e-05
2.5709e-05
2.50258e-05
2.36217e-05
2.31329e-05
2.28528e-05
2.2388e-05
2.20489e-05
2.19014e-05
2.18941e-05
2.20466e-05
2.24584e-05
2.03206e-05
2.09134e-05
2.12226e-05
2.13206e-05
2.16625e-05
2.26392e-05
2.25964e-05
2.18525e-05
2.13976e-05
2.13444e-05
2.14591e-05
2.1728e-05
2.18635e-05
2.19224e-05
2.19897e-05
2.20759e-05
2.22328e-05
2.27156e-05
2.19965e-05
2.09605e-05
2.14186e-05
2.25674e-05
2.2723e-05
2.23078e-05
2.15176e-05
2.10965e-05
2.09542e-05
2.09409e-05
2.09759e-05
2.10785e-05
2.12438e-05
2.15814e-05
2.25225e-05
2.43817e-05
2.59177e-05
2.67365e-05
2.04943e-05
2.07593e-05
2.1009e-05
2.1022e-05
2.09462e-05
2.07596e-05
2.06388e-05
2.05851e-05
2.05735e-05
2.05795e-05
2.06243e-05
2.07982e-05
2.14019e-05
2.36467e-05
2.59848e-05
2.69545e-05
2.70837e-05
2.69057e-05
2.38283e-05
2.44177e-05
2.46503e-05
2.36327e-05
2.16411e-05
2.08365e-05
2.05862e-05
2.05215e-05
2.05101e-05
2.05129e-05
2.05409e-05
2.07182e-05
2.1176e-05
2.14072e-05
2.16057e-05
2.20193e-05
2.30549e-05
2.53616e-05
2.20602e-05
2.43219e-05
2.36061e-05
2.19369e-05
2.07292e-05
2.04772e-05
2.05884e-05
2.13102e-05
2.20877e-05
2.24521e-05
2.25767e-05
2.2596e-05
2.25587e-05
2.22515e-05
2.19645e-05
2.18925e-05
2.18986e-05
2.19227e-05
2.14472e-05
2.43501e-05
2.81524e-05
2.79472e-05
2.45451e-05
2.28119e-05
2.28364e-05
2.44082e-05
2.70129e-05
2.80664e-05
2.82289e-05
2.79888e-05
2.70561e-05
2.65645e-05
2.6492e-05
2.66367e-05
2.76398e-05
2.86885e-05
2.23105e-05
2.63326e-05
2.65325e-05
2.46062e-05
2.31568e-05
2.29093e-05
2.33204e-05
2.432e-05
2.48748e-05
2.50658e-05
2.50859e-05
2.49462e-05
2.46029e-05
2.44209e-05
2.43418e-05
2.42921e-05
2.42133e-05
2.40521e-05
2.01561e-05
2.07769e-05
2.10315e-05
2.12308e-05
2.24265e-05
2.26215e-05
2.22251e-05
2.21491e-05
2.22864e-05
2.30926e-05
2.43294e-05
2.49899e-05
2.52487e-05
2.5375e-05
2.56033e-05
2.60088e-05
2.63776e-05
2.66334e-05
2.00081e-05
1.99783e-05
1.99164e-05
1.97501e-05
1.96711e-05
1.97006e-05
1.99192e-05
2.01596e-05
2.02e-05
2.01615e-05
1.9963e-05
1.94298e-05
1.89066e-05
1.8475e-05
1.81423e-05
1.79153e-05
1.77758e-05
1.76292e-05
2.00643e-05
1.62049e-05
1.58927e-05
1.50278e-05
1.29348e-05
1.22812e-05
1.23858e-05
1.33801e-05
1.48278e-05
1.55207e-05
1.58e-05
1.59478e-05
1.60017e-05
1.59644e-05
1.57578e-05
1.54537e-05
1.51932e-05
1.50157e-05
2.35453e-05
3.11101e-05
3.09148e-05
2.76428e-05
2.34342e-05
2.13758e-05
2.05645e-05
2.04012e-05
2.04913e-05
2.11222e-05
2.35007e-05
3.15836e-05
4.17743e-05
4.79082e-05
5.03228e-05
5.06323e-05
5.02736e-05
4.84871e-05
0.000144085
0.000202392
0.000185057
0.000114164
6.08115e-05
3.47691e-05
2.47896e-05
2.25692e-05
2.31576e-05
2.87442e-05
5.42524e-05
9.06024e-05
0.000110514
0.000117472
0.000117975
0.000114442
9.91079e-05
8.54719e-05
0.0743351
0.0844465
0.0856625
0.0827323
0.0824633
0.0869827
0.0889727
0.0912783
0.0930219
0.0965124
0.0991301
0.0998749
0.0929872
0.0779757
0.0683791
0.0639145
0.0634975
0.0631859
0.0623324
0.0621888
0.0628593
0.0641631
0.0656169
0.0668921
0.067679
0.0681422
0.0684635
0.0686351
0.0686905
0.068442
0.0684574
0.0695622
0.0750825
0.0931098
0.135461
0.185878
0.199402
0.199716
0.179367
0.126333
0.0954337
0.0870856
0.0850708
0.0845134
0.0843114
0.0842512
0.0842039
0.084039
0.0836276
0.0828682
0.0817858
0.0809591
0.0806565
0.0801593
0.0799073
0.0794802
0.079106
0.0788958
0.0784603
0.0783018
0.0780202
0.0775253
0.0773362
0.0773854
0.0777622
0.0793928
0.0812591
0.0824709
0.0830338
0.0836975
0.0850821
0.087867
0.0937396
0.112589
0.285607
0.739694
0.858531
0.87655
0.781695
0.402236
0.12254
0.0466693
0.0346976
0.0326589
0.0325058
0.0326551
0.0327747
0.0328774
0.0330671
0.0332672
0.033521
0.0338036
0.0340606
0.034308
0.0344648
0.0345484
0.0344935
0.0341988
0.0337503
0.0329487
0.0319805
0.0305744
0.029076
0.0271128
0.0251816
0.0229966
0.0210739
0.019201
0.0177855
0.0166691
0.0161145
0.0158564
0.0156985
0.0155877
0.0154847
0.0154239
0.0154077
0.0154175
0.015465
0.0155322
0.0156182
0.0157132
0.0158107
0.0159016
0.0160118
0.0161145
0.0162159
0.0163268
0.0164596
0.016617
0.0167923
0.0169826
0.0171661
0.0173066
0.0173591
0.0172862
0.01706
0.0167642
0.0163614
0.0157501
0.0147279
0.0131193
0.0111074
0.00928853
0.00814099
0.00770633
0.00766225
0.00774058
0.00798461
0.00817081
0.00826772
0.00829704
0.00822347
0.00812371
0.00810157
0.00811178
0.00812968
0.00812723
0.00805857
0.00793187
0.00776971
0.00757981
0.00740708
0.00731752
0.00730423
0.00733517
0.00743867
0.00749045
0.00743974
0.0073039
0.00722645
0.00704525
0.00702514
0.00737228
0.00772914
0.0078137
0.00804259
0.0079578
0.00772778
0.00721681
0.0723958
0.0701542
0.0822959
0.0898414
0.0947586
0.0971164
0.0978066
0.0977118
0.0966001
0.0954828
0.0966658
0.10069
0.102293
0.0988823
0.0831492
0.0679281
0.0618439
0.0592631
0.0562728
0.0535954
0.0527842
0.0532707
0.0556748
0.0586191
0.0610944
0.0628444
0.0635525
0.0636798
0.0635179
0.0626663
0.0608719
0.0600663
0.0607648
0.0654002
0.0776336
0.0981271
0.106634
0.106601
0.103643
0.102322
0.101547
0.0990253
0.0932951
0.0869826
0.0847733
0.0838668
0.0833807
0.0830322
0.0827833
0.08246
0.081807
0.0805957
0.0802379
0.0799122
0.0797718
0.0794884
0.0792157
0.0789041
0.0781214
0.0772838
0.0764559
0.0757914
0.0750062
0.0745987
0.0743433
0.0736346
0.0725787
0.0717669
0.0714282
0.0714295
0.0718039
0.0729718
0.0759498
0.0863015
0.15856
0.28379
0.45804
0.534676
0.419389
0.151412
0.0540167
0.0314781
0.025361
0.0229171
0.0215756
0.0207106
0.0202479
0.0200221
0.0199564
0.0199595
0.0200519
0.020164
0.0202684
0.020325
0.0203009
0.0201513
0.0198635
0.019386
0.0187895
0.0179903
0.0171076
0.0160402
0.0150339
0.013877
0.0128972
0.0118586
0.0110127
0.0101667
0.00950513
0.00883874
0.0083396
0.00788022
0.0076128
0.00744735
0.00736842
0.00733814
0.00734218
0.00743739
0.00757347
0.00777534
0.00805093
0.00839077
0.00880299
0.00923431
0.00961492
0.00998553
0.0103512
0.0106839
0.0109366
0.0111158
0.0112168
0.011262
0.0112978
0.0114217
0.0116546
0.0120221
0.0124817
0.0129178
0.0132836
0.0136695
0.0142631
0.015149
0.0161511
0.0169149
0.0172068
0.0171541
0.0165552
0.0144918
0.0123794
0.0109575
0.0100967
0.00952705
0.00904757
0.00859684
0.00815152
0.00773199
0.00737608
0.00708539
0.00683873
0.0066134
0.00638622
0.00613925
0.00587641
0.00561839
0.00537796
0.00518357
0.00509221
0.00509425
0.00519821
0.00539022
0.00555431
0.00579273
0.0063659
0.00787313
0.00921511
0.0100325
0.0103194
0.0102804
0.00986053
0.00943865
0.0885775
0.0796291
0.0784415
0.078748
0.0806458
0.0872931
0.096033
0.099849
0.0997205
0.097138
0.0935763
0.09499
0.102979
0.10359
0.0973932
0.0776246
0.0624684
0.055747
0.0536142
0.0532643
0.0537981
0.056218
0.0606435
0.0657834
0.0707576
0.0754161
0.0783897
0.079452
0.0796935
0.0794004
0.0774725
0.0741364
0.0712074
0.0704503
0.0713243
0.072511
0.072799
0.0727104
0.072537
0.0725159
0.0728918
0.073695
0.0737709
0.0734449
0.0729773
0.0725842
0.0722039
0.0717611
0.0713792
0.0712764
0.0713134
0.0717373
0.0723874
0.0734988
0.0747894
0.0753672
0.0752152
0.0742591
0.0715886
0.0694075
0.0683493
0.0678329
0.0682367
0.0688132
0.0696764
0.0707211
0.0719906
0.0725141
0.0732706
0.0765632
0.0779648
0.0776916
0.0787085
0.0827313
0.10086
0.1581
0.352784
0.335423
0.126061
0.0436401
0.0232433
0.0179808
0.0161377
0.0153315
0.0149362
0.0145816
0.0142314
0.0138941
0.0135609
0.0131927
0.0128028
0.0123532
0.011829
0.0112652
0.0106423
0.0099614
0.00925586
0.00852422
0.00783374
0.00716457
0.00660548
0.00608623
0.00563168
0.00514032
0.00467512
0.00419493
0.00379893
0.00342409
0.00324645
0.00317477
0.00317833
0.00349032
0.00390795
0.00423177
0.00447262
0.00462076
0.00470617
0.00474519
0.00476896
0.00478548
0.00481225
0.00487472
0.00498988
0.00527029
0.00576913
0.00646194
0.00732009
0.0083061
0.00913058
0.00969375
0.010093
0.0102909
0.0103281
0.0101945
0.00989233
0.00951338
0.00910983
0.00869072
0.00814961
0.0074281
0.0066724
0.00615647
0.00598021
0.00601019
0.00639584
0.00822517
0.0110016
0.0125027
0.0129876
0.0130011
0.0126952
0.0114993
0.0103985
0.00972204
0.00931963
0.00903444
0.00874502
0.00842745
0.00807318
0.00765957
0.00717706
0.0066669
0.00621399
0.00587966
0.00560295
0.00522101
0.00465838
0.00408012
0.00375616
0.00370851
0.00379432
0.00433644
0.00635683
0.00926155
0.0111697
0.0120021
0.0121044
0.011787
0.0100434
0.00799274
0.113856
0.137177
0.140093
0.135002
0.121943
0.114209
0.10864
0.105683
0.100201
0.093196
0.0917492
0.0934231
0.104199
0.115373
0.108517
0.0775964
0.0595815
0.0551902
0.0552637
0.0592326
0.0682338
0.0810794
0.0906448
0.0974269
0.100686
0.101836
0.101115
0.0990403
0.0971038
0.0946488
0.0920123
0.0893807
0.0872349
0.0852514
0.0829753
0.0814968
0.0798429
0.0778724
0.0752363
0.0729618
0.0711877
0.0690503
0.0673548
0.0656355
0.0641067
0.0628225
0.061676
0.0607537
0.0602692
0.0601352
0.060194
0.0608829
0.0625512
0.0653883
0.0689643
0.0707032
0.0709352
0.0685065
0.0652246
0.063138
0.0635959
0.0651203
0.0686059
0.0734033
0.0816626
0.0888442
0.0960979
0.10179
0.111091
0.135924
0.135382
0.124165
0.102175
0.0927993
0.100805
0.166938
0.309432
0.166337
0.044429
0.0207058
0.0155769
0.0143044
0.0138779
0.0136911
0.0133668
0.0130298
0.0127136
0.0123588
0.0119477
0.0115412
0.0111022
0.0105843
0.00999853
0.00934607
0.0086484
0.00791533
0.00716773
0.00644518
0.00578387
0.0051138
0.00444266
0.00380076
0.00327193
0.00291278
0.00275764
0.00271023
0.00270887
0.00283918
0.00318564
0.00366339
0.00434773
0.00532847
0.00642371
0.00734457
0.00803384
0.00837466
0.00848463
0.00820051
0.00769814
0.00701638
0.0061925
0.00539353
0.00468416
0.0041269
0.00376426
0.00358284
0.00361065
0.00388921
0.00473602
0.00616727
0.00788679
0.00931658
0.0100892
0.0104332
0.0104879
0.0103807
0.0100956
0.00976521
0.00949843
0.0092192
0.008692
0.00782734
0.00687499
0.00619163
0.00589852
0.0058844
0.00618215
0.00781514
0.0111217
0.013331
0.0142931
0.0144335
0.0142346
0.0131606
0.011727
0.0108964
0.0104164
0.0100675
0.00973923
0.0093664
0.00888327
0.00825732
0.00757328
0.00699132
0.0066027
0.00637287
0.00618718
0.00593597
0.00564865
0.00551023
0.00558345
0.00646251
0.00971088
0.012391
0.0134441
0.013595
0.0135009
0.0130202
0.0112136
0.00815503
0.0837338
0.0838046
0.0923118
0.100193
0.101396
0.101251
0.0999007
0.0941669
0.0914683
0.0913029
0.0918906
0.0988326
0.110526
0.110244
0.0925568
0.0679236
0.0596989
0.0600994
0.072053
0.0918583
0.102476
0.106004
0.106899
0.10667
0.104821
0.102791
0.100278
0.0966125
0.0928575
0.0882119
0.0832088
0.0778101
0.0721551
0.0659191
0.0590927
0.0523766
0.045905
0.0408689
0.0366729
0.0332038
0.0308667
0.0287408
0.0271783
0.0260421
0.0253637
0.0250739
0.0250306
0.0254671
0.0263773
0.0276542
0.0296433
0.0325878
0.0367766
0.042429
0.049236
0.056595
0.061549
0.0633817
0.0628444
0.0618297
0.0636684
0.0719352
0.093177
0.112087
0.11731
0.126667
0.142889
0.170966
0.205859
0.235489
0.232928
0.220037
0.178175
0.126769
0.130038
0.234241
0.212473
0.0634007
0.0222373
0.0153024
0.0138251
0.0132469
0.0127765
0.0124635
0.0121155
0.0117647
0.0114277
0.0110581
0.0106408
0.0102037
0.00970527
0.00911191
0.00847839
0.00777942
0.00698501
0.00616498
0.00531817
0.00441389
0.00355292
0.00285433
0.0025195
0.0023759
0.00234891
0.00247195
0.0028448
0.00326065
0.00403969
0.0056025
0.00809422
0.0115132
0.0157271
0.0202459
0.0242752
0.0272396
0.0288869
0.0296657
0.0298623
0.028927
0.0273557
0.0251592
0.0221865
0.0187497
0.0149801
0.0114508
0.00858928
0.00613133
0.00434101
0.00331182
0.0028038
0.00274997
0.00311803
0.00441247
0.00666889
0.00876694
0.00985923
0.0102603
0.0102717
0.0100459
0.00972558
0.00949952
0.00935141
0.00912649
0.00859907
0.00735619
0.00604165
0.00514826
0.00480544
0.0048143
0.00525238
0.00739846
0.0108537
0.0128518
0.0135239
0.0135636
0.013438
0.0128177
0.0118232
0.0110736
0.0104866
0.00995708
0.00939441
0.00874366
0.00801522
0.00730202
0.00672093
0.00632759
0.00611703
0.00604717
0.00604659
0.00613076
0.00663574
0.00872009
0.0114883
0.0128035
0.0130462
0.0129657
0.0126435
0.011757
0.00935608
0.00671189
0.0767219
0.0730529
0.0738058
0.0796366
0.0842652
0.0850784
0.0852878
0.0872007
0.0901129
0.0996047
0.106584
0.108622
0.105708
0.0962399
0.0819719
0.0709502
0.0727748
0.0914572
0.104333
0.108244
0.108926
0.107579
0.106273
0.103335
0.0986716
0.0925049
0.0838838
0.0728263
0.0620352
0.0505988
0.0407412
0.0323382
0.0245452
0.0192278
0.0149491
0.0119213
0.0102515
0.00872074
0.00801799
0.00707173
0.00657572
0.00599975
0.00561709
0.00527659
0.00508064
0.00498432
0.00500187
0.00516713
0.00550481
0.00608418
0.00700892
0.00849136
0.0110403
0.0157832
0.0245559
0.0376099
0.0505792
0.0583994
0.0612544
0.0618932
0.0699458
0.102127
0.140543
0.132338
0.123042
0.14097
0.199986
0.276163
0.315691
0.33725
0.33051
0.301997
0.249872
0.213851
0.222385
0.234153
0.0914644
0.027976
0.0154967
0.0131851
0.0123364
0.0113145
0.0103045
0.00967121
0.00913174
0.00858848
0.00825177
0.00788789
0.00744487
0.00705569
0.00659611
0.00609509
0.00563615
0.00508756
0.00450612
0.00386247
0.00317421
0.00262865
0.00225316
0.00212706
0.00212816
0.00231191
0.00261511
0.00330253
0.00479549
0.00742379
0.0118406
0.018905
0.0289818
0.0391151
0.0446146
0.0468625
0.0475738
0.0476939
0.0475518
0.047092
0.0464773
0.045929
0.0453372
0.044689
0.0436973
0.042232
0.0398482
0.0359257
0.0300031
0.022893
0.0155884
0.0101308
0.00615957
0.0037414
0.00261449
0.00234293
0.0026163
0.0039308
0.00656925
0.00868063
0.00963075
0.00988324
0.00980867
0.00952472
0.00933282
0.00919846
0.008983
0.00850464
0.00737514
0.00594167
0.00471876
0.00405139
0.00391118
0.00402876
0.00483182
0.00750877
0.0100897
0.011611
0.0121066
0.0120858
0.01178
0.0110634
0.0103551
0.00971982
0.00931223
0.00911297
0.00881266
0.00821848
0.00757717
0.00703646
0.00660591
0.00632704
0.00624894
0.00629197
0.00670714
0.00866963
0.0108603
0.0114521
0.011424
0.0111785
0.0106276
0.00936251
0.0072571
0.0054169
0.0751137
0.0735069
0.0738947
0.0915135
0.0989702
0.101569
0.103624
0.111067
0.113666
0.111968
0.111503
0.109369
0.103915
0.0962553
0.0906556
0.0935956
0.103239
0.10749
0.108718
0.108119
0.105992
0.101141
0.094042
0.0824115
0.0673878
0.0524721
0.0396511
0.0296749
0.0217358
0.0166112
0.0118292
0.00931827
0.00748147
0.0064137
0.00586736
0.00547013
0.00527232
0.00500418
0.00467315
0.00431317
0.00384037
0.00340293
0.0030165
0.00255817
0.00221964
0.00189311
0.00165422
0.00147118
0.00138415
0.00135792
0.00145774
0.00170261
0.00223597
0.00336542
0.00586852
0.0121299
0.0275105
0.045265
0.0558597
0.0608932
0.0730622
0.121033
0.148689
0.111422
0.106771
0.163621
0.255677
0.314953
0.336891
0.339683
0.323213
0.293094
0.252906
0.229987
0.214819
0.126379
0.0369033
0.0170752
0.0133868
0.0123702
0.0107649
0.00844612
0.00651843
0.00557047
0.00494499
0.00466449
0.00456144
0.00447278
0.00420522
0.00393236
0.00378115
0.0035191
0.00322527
0.00296084
0.00261486
0.00231212
0.00208166
0.0019918
0.00198355
0.00213273
0.00233942
0.00299477
0.00439512
0.00726753
0.0129423
0.0233695
0.0398649
0.0481462
0.0519237
0.0534295
0.0537364
0.0528633
0.050941
0.0495669
0.0483177
0.0473062
0.0465666
0.046108
0.0459894
0.0460938
0.0463488
0.0466742
0.0468998
0.0469424
0.0467108
0.0454157
0.0415296
0.0331492
0.0223227
0.0131806
0.00723554
0.00386426
0.0024684
0.00224867
0.00269819
0.00462798
0.0072933
0.00875684
0.00931436
0.00939819
0.0092762
0.00909122
0.00892945
0.00862723
0.00784686
0.00645316
0.00503471
0.00388066
0.00322054
0.00303788
0.00308419
0.00354722
0.00546436
0.00730611
0.00829105
0.00903719
0.00933567
0.00932554
0.0090922
0.00861228
0.00831632
0.00817302
0.00807946
0.00798259
0.0079383
0.00790305
0.00779884
0.00742033
0.00702265
0.00691952
0.00705379
0.00810884
0.00932738
0.00952765
0.0094269
0.00908183
0.00831613
0.00649676
0.00470618
0.0039222
0.0762459
0.0801655
0.0856037
0.105642
0.113205
0.115137
0.117831
0.12262
0.124388
0.122112
0.117776
0.112544
0.107881
0.105418
0.105236
0.105974
0.106919
0.106946
0.104653
0.0988527
0.0882731
0.0711367
0.0540257
0.0391905
0.0290436
0.0203649
0.0145595
0.011095
0.0086417
0.00752502
0.00690851
0.00668544
0.00663106
0.00674515
0.00704325
0.00735705
0.00749399
0.00748224
0.00697376
0.00633581
0.00557517
0.0045774
0.00386326
0.00298216
0.00236788
0.00184286
0.00146305
0.00112818
0.00090503
0.000719793
0.000591873
0.000529214
0.000536007
0.00067027
0.00106484
0.0022199
0.00600388
0.0192548
0.0411329
0.0546189
0.0731653
0.123062
0.145113
0.0879416
0.103344
0.168775
0.213102
0.256434
0.287754
0.298139
0.289192
0.263882
0.231291
0.194461
0.118351
0.0440275
0.0196154
0.0142168
0.013118
0.012313
0.010542
0.00797447
0.00560605
0.00409085
0.00317177
0.00279675
0.00265576
0.00258665
0.00238891
0.00225934
0.0022131
0.00209828
0.0019774
0.00189245
0.00180973
0.00177331
0.00181355
0.00193778
0.00209792
0.00254157
0.00351316
0.00577661
0.0105045
0.0199591
0.0377598
0.0503866
0.055579
0.057343
0.0574813
0.0552552
0.0511438
0.0470751
0.0432174
0.0393882
0.036496
0.0343391
0.0329934
0.0324655
0.0325906
0.0337479
0.0356315
0.0382592
0.0413707
0.0443816
0.0467457
0.0486247
0.0497136
0.0498381
0.0474403
0.0385521
0.0244477
0.0131727
0.0064907
0.0032815
0.00232738
0.00243146
0.00356204
0.00616182
0.00788865
0.00868071
0.00894159
0.00896307
0.00888727
0.00869175
0.00828558
0.00713952
0.00544579
0.00400058
0.00294021
0.00235803
0.00218814
0.00221064
0.00249498
0.00374242
0.00548124
0.00637038
0.00656998
0.00651874
0.00616728
0.00567757
0.00546577
0.00543292
0.00552123
0.0060866
0.00697813
0.00740967
0.00751829
0.00751265
0.00743535
0.00736765
0.00738411
0.00766151
0.00822841
0.00830295
0.00817078
0.00767611
0.00625643
0.00442181
0.0031219
0.00260202
0.0773631
0.0849255
0.100047
0.115379
0.123156
0.127456
0.128156
0.127283
0.124994
0.121564
0.117118
0.112531
0.109527
0.107011
0.105794
0.104699
0.10212
0.0955992
0.0819375
0.0641963
0.0462586
0.0346591
0.0241004
0.0169091
0.0127709
0.0100766
0.00886512
0.00834043
0.00816732
0.00821606
0.00912127
0.0104338
0.0122626
0.0142344
0.0160899
0.0170448
0.0174902
0.0175713
0.0164394
0.0149826
0.0130463
0.0107271
0.00865768
0.00655274
0.00480057
0.00339834
0.00238427
0.00159826
0.00109819
0.000758467
0.000547992
0.000410668
0.000326225
0.000277373
0.000290112
0.000462529
0.00113291
0.0037333
0.0148844
0.041216
0.0656482
0.105495
0.13993
0.0855098
0.0752086
0.108157
0.131763
0.15463
0.17943
0.191412
0.193357
0.174891
0.139456
0.0865443
0.0428942
0.0215462
0.0152732
0.0139035
0.0133668
0.0128325
0.011549
0.00934089
0.00635885
0.00422706
0.0030698
0.00238848
0.00204277
0.00184405
0.0016866
0.00162164
0.00160016
0.00157368
0.00155999
0.00158209
0.00163141
0.00172067
0.0018557
0.00213352
0.00271657
0.00406345
0.0070344
0.0135344
0.0274975
0.047356
0.0559492
0.059464
0.060278
0.0584563
0.0539394
0.0495076
0.0442985
0.0402242
0.0360796
0.0325842
0.0291762
0.0265836
0.0240154
0.0222838
0.0211
0.0204874
0.0203505
0.020949
0.0224892
0.0256621
0.0308758
0.0376428
0.04485
0.0496704
0.05245
0.0532348
0.0505764
0.0377303
0.0206595
0.00998101
0.00455442
0.00264141
0.00248547
0.00321501
0.0054718
0.00722124
0.00814447
0.00855404
0.00866465
0.00864216
0.00845244
0.00783353
0.00615602
0.00441425
0.00309819
0.00220237
0.00172316
0.00157562
0.00158401
0.00176191
0.00253912
0.00349785
0.0039635
0.00406481
0.0040298
0.00380555
0.00330802
0.0030024
0.00295908
0.00313131
0.00415499
0.0053511
0.00572318
0.00592265
0.00614344
0.00646225
0.006981
0.00759016
0.00782818
0.00776262
0.00731673
0.00579267
0.00370294
0.0022538
0.00152387
0.00141366
0.079414
0.0935995
0.10954
0.119775
0.124155
0.125574
0.125928
0.125141
0.122463
0.118684
0.114419
0.110398
0.106992
0.10325
0.0992419
0.0918622
0.0776622
0.0604331
0.0442731
0.031706
0.0226578
0.016562
0.0127944
0.0107209
0.00984622
0.00949241
0.00942905
0.0103627
0.0122687
0.0156829
0.0206387
0.0262607
0.0302478
0.0338526
0.0361277
0.0373005
0.0377638
0.0375496
0.036091
0.0335519
0.029917
0.0251359
0.019932
0.0155788
0.011409
0.00792372
0.00531944
0.00349083
0.00218787
0.00134611
0.000836786
0.000534279
0.000355957
0.0002538
0.000201726
0.000185214
0.000269787
0.000705731
0.002667
0.0121192
0.0396929
0.0658817
0.133053
0.0987651
0.066468
0.0740381
0.085548
0.090919
0.0971431
0.101849
0.0969799
0.0823421
0.0604886
0.0364735
0.0224083
0.0163528
0.014772
0.0143061
0.0146187
0.0154935
0.0161688
0.0147173
0.00879152
0.00519102
0.00336346
0.00240567
0.00193376
0.00163238
0.00149584
0.00145506
0.0014499
0.0014574
0.00149208
0.00156157
0.00165536
0.00182407
0.00216131
0.00289346
0.00450215
0.0080264
0.0157907
0.0329788
0.0518154
0.0599702
0.0628037
0.0633891
0.060585
0.0559881
0.0507928
0.0476127
0.0456808
0.0420289
0.0381154
0.0344555
0.030477
0.0272419
0.0240578
0.021713
0.0199358
0.0186833
0.0177502
0.0171545
0.0169
0.0170589
0.0177543
0.0194479
0.0235837
0.0324878
0.0437574
0.052194
0.0560823
0.0565621
0.0492594
0.0288501
0.0135963
0.00587592
0.00304342
0.00263928
0.00317168
0.00510502
0.0067708
0.00775864
0.00825869
0.00841135
0.00838927
0.00810914
0.00691997
0.00484634
0.00326735
0.00220519
0.00155844
0.00123809
0.00114082
0.00114273
0.00122108
0.00153091
0.00182349
0.00192636
0.00193124
0.0018837
0.00167506
0.00146386
0.00140348
0.00143957
0.00180231
0.00250656
0.0026351
0.00258883
0.00262491
0.00313329
0.00505678
0.00642133
0.00656449
0.00629125
0.004891
0.00266748
0.00146251
0.000928063
0.000864781
0.000976838
0.0799399
0.0965661
0.110576
0.115552
0.11778
0.11963
0.120368
0.120099
0.116612
0.112532
0.107867
0.102758
0.0963294
0.0867383
0.0739547
0.0582004
0.0440905
0.0320951
0.0235884
0.0170662
0.0136983
0.0118387
0.0110674
0.0108114
0.0109665
0.0125651
0.0161682
0.0228631
0.0302805
0.0378442
0.0424264
0.0451291
0.0473419
0.0484257
0.0490062
0.0492452
0.0493056
0.049294
0.0490993
0.0487382
0.047755
0.0457145
0.0415303
0.0345873
0.0265822
0.0180554
0.011838
0.00754653
0.00463813
0.00271267
0.00155412
0.000905794
0.00055413
0.000352536
0.000227987
0.000165728
0.000146287
0.000187985
0.000482856
0.002041
0.0105397
0.0314594
0.0870113
0.121656
0.070805
0.055914
0.0589497
0.0594517
0.0554811
0.0545807
0.0505336
0.0403435
0.0307884
0.0218192
0.0173196
0.0155659
0.0150773
0.016
0.0191234
0.0215127
0.0229248
0.0203342
0.0108296
0.00599653
0.00376849
0.00256586
0.00195883
0.00162796
0.00148478
0.00144377
0.00144121
0.00146147
0.00151845
0.00163289
0.0018342
0.00222944
0.00304615
0.00478969
0.00857502
0.0168459
0.0358051
0.0544009
0.0630749
0.066206
0.066857
0.0643545
0.0593075
0.0555411
0.0539888
0.0539777
0.0549093
0.0547315
0.0512959
0.0470359
0.0410289
0.0353205
0.0299225
0.0252146
0.0217223
0.0193729
0.0178272
0.016861
0.0162686
0.0159371
0.0158499
0.0159842
0.0164693
0.0178052
0.0216485
0.0330065
0.0485825
0.0575993
0.0601683
0.0565299
0.0359868
0.0165224
0.00686232
0.00336483
0.00279243
0.00321037
0.00488719
0.00643827
0.00743715
0.00796054
0.00810376
0.00804675
0.00754205
0.00567633
0.0036139
0.00228488
0.00149209
0.00107273
0.000874885
0.000790311
0.000776135
0.000785889
0.000827134
0.000858063
0.000861301
0.000853495
0.000800556
0.000666313
0.000603332
0.000608668
0.000733838
0.000880825
0.000865242
0.000783183
0.000808351
0.00121204
0.00300377
0.00414413
0.00414001
0.00344258
0.00179218
0.000892432
0.000532724
0.000506504
0.000639834
0.0011535
0.0799522
0.0976915
0.110179
0.113383
0.11445
0.11483
0.113459
0.110259
0.103928
0.098092
0.0901606
0.0806301
0.0690471
0.0570027
0.0451402
0.0338978
0.0253459
0.0189426
0.0152493
0.0131135
0.0122523
0.0119428
0.0120727
0.0136878
0.0177082
0.0260455
0.0348544
0.0416381
0.0462818
0.0488137
0.0500475
0.0505688
0.0507589
0.0508257
0.0508814
0.05089
0.0507761
0.0506664
0.0506274
0.0508992
0.0511102
0.0511855
0.0510452
0.0492137
0.0452568
0.0389953
0.0273127
0.016172
0.00975735
0.00563391
0.00305871
0.00160432
0.000865883
0.000514714
0.000330875
0.000210606
0.000144282
0.000127107
0.00014778
0.000361368
0.0017467
0.0115123
0.0269726
0.103745
0.106572
0.0645329
0.0489492
0.0424789
0.0373041
0.033167
0.0311186
0.0253679
0.0211527
0.0178536
0.0162354
0.0156344
0.0165635
0.0195965
0.0224817
0.0263108
0.0289258
0.024802
0.0131482
0.00658687
0.0043943
0.0031271
0.00210728
0.00169901
0.00154327
0.00150043
0.00151089
0.00155001
0.00167088
0.00191965
0.00241751
0.00327538
0.00503356
0.00880111
0.0174842
0.0357478
0.0553102
0.0656148
0.0695759
0.0705088
0.0691687
0.0640405
0.0601567
0.0589269
0.0616727
0.0687697
0.0714334
0.0720292
0.0694137
0.0660707
0.0609087
0.0541596
0.0458777
0.0365449
0.0288839
0.023521
0.0199666
0.0177709
0.0165443
0.0159294
0.0156683
0.0156022
0.0156381
0.0158304
0.0164118
0.0181196
0.0243236
0.0428275
0.0583396
0.0632471
0.0610747
0.0405849
0.0180789
0.00725877
0.0035099
0.00289474
0.00324694
0.00471831
0.00614086
0.0070892
0.00755356
0.00763643
0.00747276
0.006438
0.0041928
0.00253482
0.00152744
0.000984647
0.000727939
0.000619327
0.000556775
0.000505869
0.000482298
0.000480524
0.000482118
0.000480767
0.000463571
0.000392933
0.000330836
0.000317752
0.000328213
0.00033422
0.000316951
0.000308321
0.000366178
0.000824732
0.00183872
0.00205773
0.00187865
0.00112653
0.000521678
0.000297139
0.000285826
0.000389398
0.00104795
0.00308582
0.0794884
0.0980422
0.107951
0.109833
0.108923
0.103499
0.09732
0.0917197
0.0845066
0.0757057
0.0662354
0.0566328
0.0465774
0.0369466
0.0283283
0.0216948
0.017086
0.0145842
0.0134459
0.0129965
0.0128062
0.0138854
0.0172669
0.0254739
0.0349634
0.042507
0.0478281
0.0506073
0.0519333
0.0523017
0.0519244
0.0515974
0.0514463
0.0516765
0.0518458
0.0519482
0.0517591
0.0511362
0.050486
0.0498601
0.0492462
0.0503534
0.0518062
0.0520298
0.0504567
0.0481247
0.0443641
0.0333252
0.0189548
0.0109267
0.00598842
0.00309331
0.00154047
0.000777109
0.000443004
0.000286614
0.000187466
0.00013193
0.000115106
0.00012526
0.000280903
0.00152325
0.00673412
0.031497
0.100508
0.101525
0.065334
0.0448264
0.0351381
0.0277431
0.0240265
0.020842
0.0186771
0.0171187
0.0161729
0.0160696
0.0175032
0.0216048
0.0264437
0.0301891
0.0330317
0.0309364
0.0180109