/*--------------------------------*- C++ -*----------------------------------*\
  =========                 |
  \\      /  F ield         | OpenFOAM: The Open Source CFD Toolbox
   \\    /   O peration     | Website:  https://openfoam.org
    \\  /    A nd           | Version:  9
     \\/     M anipulation  |
\*---------------------------------------------------------------------------*/
FoamFile
{
    format      ascii;
    class       surfaceScalarField;
    location    "0.08";
    object      phi;
}
// * * * * * * * * * * * * * * * * * * * * * * * * * * * * * * * * * * * * * //

dimensions      [0 3 -1 0 0 0 0];

internalField   nonuniform List<scalar> 
24170
(
2.9917e-06
1.50533e-07
2.9219e-06
6.9801e-08
2.86597e-06
5.59279e-08
2.80861e-06
5.73523e-08
2.74343e-06
6.5189e-08
2.66201e-06
8.14194e-08
2.56583e-06
9.61776e-08
2.46344e-06
1.02392e-07
2.36389e-06
9.95514e-08
2.26842e-06
9.54611e-08
2.1763e-06
9.21259e-08
2.08395e-06
9.2348e-08
1.99463e-06
8.9325e-08
1.91075e-06
8.38722e-08
1.82778e-06
8.29774e-08
1.74148e-06
8.62947e-08
1.63089e-06
1.10596e-07
1.41339e-07
1.48955e-06
3.46059e-06
1.29469e-07
3.48216e-06
4.8225e-08
3.49228e-06
4.58114e-08
3.48337e-06
6.6261e-08
3.47292e-06
7.56432e-08
3.46753e-06
8.68051e-08
3.46055e-06
1.03161e-07
3.44489e-06
1.18055e-07
3.42032e-06
1.24119e-07
3.38993e-06
1.2585e-07
3.35737e-06
1.24685e-07
3.32539e-06
1.24329e-07
3.29497e-06
1.19745e-07
3.26583e-06
1.13013e-07
3.23633e-06
1.12475e-07
3.19906e-06
1.23563e-07
3.15461e-06
1.55053e-07
1.97189e-07
3.09876e-06
3.64411e-06
9.89953e-08
3.64573e-06
4.66005e-08
3.66639e-06
2.51546e-08
3.70029e-06
3.2364e-08
3.71426e-06
6.16674e-08
3.704e-06
9.70673e-08
3.68939e-06
1.1777e-07
3.68705e-06
1.20402e-07
3.69797e-06
1.13194e-07
3.71438e-06
1.09442e-07
3.72584e-06
1.13218e-07
3.7276e-06
1.22574e-07
3.71648e-06
1.30861e-07
3.69442e-06
1.35081e-07
3.66447e-06
1.42421e-07
3.63072e-06
1.57316e-07
3.60107e-06
1.84702e-07
2.21326e-07
3.57693e-06
4.01404e-06
1.61349e-07
3.97677e-06
8.38749e-08
3.95083e-06
5.10898e-08
3.94256e-06
4.06349e-08
3.95613e-06
4.80953e-08
3.98288e-06
7.03225e-08
4.00529e-06
9.53538e-08
4.01227e-06
1.13429e-07
4.00414e-06
1.2132e-07
3.98927e-06
1.24312e-07
3.97485e-06
1.27636e-07
3.9642e-06
1.3323e-07
3.95479e-06
1.40272e-07
3.94219e-06
1.4768e-07
3.92417e-06
1.60437e-07
3.89963e-06
1.81851e-07
3.87176e-06
2.12579e-07
2.50454e-07
3.84263e-06
4.21281e-06
1.98663e-07
4.24843e-06
4.82535e-08
4.27378e-06
2.5741e-08
4.27765e-06
3.67618e-08
4.26783e-06
5.79245e-08
4.25911e-06
7.90374e-08
4.25601e-06
9.84547e-08
4.25451e-06
1.14928e-07
4.24951e-06
1.26325e-07
4.24028e-06
1.33533e-07
4.22954e-06
1.3838e-07
4.22079e-06
1.41984e-07
4.21473e-06
1.46325e-07
4.20971e-06
1.527e-07
4.20486e-06
1.65294e-07
4.19944e-06
1.8727e-07
4.19428e-06
2.17732e-07
2.5548e-07
4.18926e-06
4.58362e-06
9.15417e-09
4.55993e-06
7.19414e-08
4.52893e-06
5.67384e-08
4.53014e-06
3.55508e-08
4.53573e-06
5.2333e-08
4.54177e-06
7.29998e-08
4.54976e-06
9.04691e-08
4.55567e-06
1.09019e-07
4.55316e-06
1.28833e-07
4.54036e-06
1.46335e-07
4.52093e-06
1.57802e-07
4.50033e-06
1.62583e-07
4.4822e-06
1.64455e-07
4.46655e-06
1.68356e-07
4.45307e-06
1.78767e-07
4.44154e-06
1.98802e-07
4.43295e-06
2.26326e-07
2.59339e-07
4.42909e-06
4.88322e-06
-2.77381e-08
4.88628e-06
6.88879e-08
4.89573e-06
4.72823e-08
4.86922e-06
6.20673e-08
4.83702e-06
8.4525e-08
4.8299e-06
8.01248e-08
4.84991e-06
7.04593e-08
4.88153e-06
7.73996e-08
4.90828e-06
1.02085e-07
4.92228e-06
1.32327e-07
4.9243e-06
1.5579e-07
4.91854e-06
1.68334e-07
4.90834e-06
1.74664e-07
4.89463e-06
1.82057e-07
4.87796e-06
1.95443e-07
4.85958e-06
2.17178e-07
4.84088e-06
2.45026e-07
2.76446e-07
4.82377e-06
5.24018e-06
9.24258e-09
5.22665e-06
8.24193e-08
5.18381e-06
9.01194e-08
5.16043e-06
8.54507e-08
5.16218e-06
8.27666e-08
5.16834e-06
7.39719e-08
5.17336e-06
6.54415e-08
5.18254e-06
6.82172e-08
5.19822e-06
8.63981e-08
5.2146e-06
1.15953e-07
5.22268e-06
1.4771e-07
5.21705e-06
1.73962e-07
5.19907e-06
1.92647e-07
5.17502e-06
2.06107e-07
5.15263e-06
2.1783e-07
5.13761e-06
2.32198e-07
5.13296e-06
2.49681e-07
2.71875e-07
5.13753e-06
5.53257e-06
4.26463e-08
5.53976e-06
7.52224e-08
5.5554e-06
7.44873e-08
5.59536e-06
4.54906e-08
5.66198e-06
1.61395e-08
5.72203e-06
1.39244e-08
5.75212e-06
3.53575e-08
5.75185e-06
6.84797e-08
5.73554e-06
1.02708e-07
5.71614e-06
1.35354e-07
5.69683e-06
1.67026e-07
5.67359e-06
1.97202e-07
5.64266e-06
2.23578e-07
5.60493e-06
2.4383e-07
5.56592e-06
2.56842e-07
5.53244e-06
2.65676e-07
5.51011e-06
2.72017e-07
2.81627e-07
5.50036e-06
5.92952e-06
6.11795e-09
5.9347e-06
7.00454e-08
5.89738e-06
1.11809e-07
5.8675e-06
7.5368e-08
5.86612e-06
1.75214e-08
5.88264e-06
-2.59375e-09
5.89975e-06
1.82471e-08
5.91146e-06
5.67667e-08
5.9191e-06
9.50729e-08
5.92571e-06
1.28737e-07
5.93131e-06
1.61432e-07
5.93379e-06
1.94717e-07
5.93165e-06
2.25715e-07
5.92576e-06
2.49723e-07
5.919e-06
2.63607e-07
5.91512e-06
2.69549e-07
5.91686e-06
2.70278e-07
2.72992e-07
5.9255e-06
6.33285e-06
-1.00215e-07
6.43107e-06
-2.81682e-08
6.42714e-06
1.15739e-07
6.37765e-06
1.24853e-07
6.33956e-06
5.56085e-08
6.33549e-06
1.47975e-09
6.35493e-06
-1.19683e-09
6.37745e-06
3.4255e-08
6.38911e-06
8.34067e-08
6.38893e-06
1.28922e-07
6.38321e-06
1.67153e-07
6.37915e-06
1.98778e-07
6.38075e-06
2.24112e-07
6.38733e-06
2.43137e-07
6.39553e-06
2.55408e-07
6.40224e-06
2.62838e-07
6.40483e-06
2.67696e-07
2.71651e-07
6.40617e-06
5.64795e-06
-3.66091e-08
5.71391e-06
-9.41319e-08
5.77822e-06
5.14334e-08
5.81047e-06
9.25976e-08
5.80849e-06
5.75935e-08
5.78935e-06
2.06121e-08
5.77201e-06
1.61423e-08
5.76261e-06
4.36597e-08
5.76249e-06
8.353e-08
5.77021e-06
1.21195e-07
5.7851e-06
1.52264e-07
5.80589e-06
1.77993e-07
5.82945e-06
2.00544e-07
5.85033e-06
2.22259e-07
5.86307e-06
2.42675e-07
5.86449e-06
2.61414e-07
5.85498e-06
2.77206e-07
2.88692e-07
5.83794e-06
7.07619e-06
8.70964e-08
6.99611e-06
-1.40534e-08
7.01405e-06
3.34961e-08
7.03178e-06
7.48665e-08
7.01142e-06
7.7957e-08
6.97418e-06
5.78537e-08
6.95324e-06
3.70776e-08
6.96377e-06
3.31297e-08
6.99464e-06
5.26635e-08
7.02395e-06
9.18777e-08
7.03643e-06
1.39792e-07
7.02975e-06
1.84665e-07
7.01142e-06
2.18878e-07
6.99205e-06
2.41625e-07
6.97952e-06
2.55209e-07
6.97687e-06
2.6407e-07
6.98417e-06
2.699e-07
2.75468e-07
6.9974e-06
8.46886e-06
-1.71328e-07
8.46029e-06
-5.48203e-09
8.43854e-06
5.52443e-08
8.4668e-06
4.66063e-08
8.51708e-06
2.76844e-08
8.55446e-06
2.047e-08
8.56441e-06
2.7129e-08
8.55181e-06
4.57246e-08
8.52765e-06
7.68297e-08
8.50293e-06
1.16595e-07
8.48556e-06
1.57163e-07
8.47916e-06
1.91062e-07
8.48414e-06
2.13896e-07
8.49919e-06
2.26577e-07
8.52157e-06
2.32835e-07
8.54858e-06
2.37058e-07
8.57721e-06
2.41262e-07
2.46461e-07
8.60622e-06
1.06733e-05
-6.82349e-09
1.05484e-05
1.19377e-07
1.04738e-05
1.29906e-07
1.04286e-05
9.17916e-08
1.03926e-05
6.37e-08
1.03488e-05
6.41848e-08
1.02986e-05
7.73711e-08
1.02619e-05
8.24029e-08
1.02593e-05
7.94564e-08
1.02952e-05
8.06506e-08
1.03569e-05
9.54956e-08
1.04233e-05
1.24636e-07
1.04759e-05
1.61379e-07
1.05046e-05
1.97788e-07
1.05103e-05
2.27223e-07
1.05e-05
2.47329e-07
1.04829e-05
2.5836e-07
2.61996e-07
1.04674e-05
1.2566e-05
6.32639e-08
1.26942e-05
-8.8536e-09
1.27085e-05
1.15586e-07
1.26306e-05
1.69716e-07
1.25224e-05
1.71859e-07
1.24255e-05
1.6115e-07
1.23704e-05
1.32425e-07
1.23657e-05
8.71234e-08
1.24066e-05
3.84944e-08
1.24811e-05
6.17386e-09
1.25718e-05
4.80501e-09
1.26588e-05
3.76074e-08
1.27295e-05
9.07639e-08
1.27778e-05
1.49433e-07
1.2806e-05
1.99086e-07
1.28199e-05
2.33416e-07
1.2827e-05
2.51257e-07
2.57052e-07
1.28319e-05
1.51383e-05
-3.24164e-09
1.50938e-05
3.56174e-08
1.50916e-05
1.17773e-07
1.51758e-05
8.55828e-08
1.53042e-05
4.3451e-08
1.54272e-05
3.80986e-08
1.54983e-05
6.13132e-08
1.54941e-05
9.14091e-08
1.54211e-05
1.11487e-07
1.53099e-05
1.17287e-07
1.51992e-05
1.15514e-07
1.51213e-05
1.1557e-07
1.50903e-05
1.21773e-07
1.51062e-05
1.33471e-07
1.51583e-05
1.46984e-07
1.52319e-05
1.59844e-07
1.53136e-05
1.69556e-07
1.77988e-07
1.53927e-05
1.88904e-05
-2.37219e-07
1.88927e-05
3.33269e-08
1.89394e-05
7.1069e-08
1.9014e-05
1.10333e-08
1.90841e-05
-2.66801e-08
1.91237e-05
-1.48656e-09
1.9107e-05
7.79414e-08
1.90435e-05
1.54998e-07
1.89489e-05
2.06024e-07
1.88409e-05
2.25332e-07
1.87403e-05
2.16104e-07
1.86703e-05
1.8553e-07
1.86475e-05
1.44598e-07
1.86762e-05
1.0474e-07
1.87477e-05
7.54681e-08
1.88461e-05
6.15166e-08
1.89532e-05
6.24321e-08
7.7317e-08
1.90539e-05
2.29358e-05
-2.29614e-07
2.30366e-05
-6.74478e-08
2.30698e-05
3.78552e-08
2.30759e-05
4.93499e-09
2.30257e-05
2.34448e-08
2.29349e-05
8.93868e-08
2.28623e-05
1.50519e-07
2.28422e-05
1.75047e-07
2.28798e-05
1.68425e-07
2.29572e-05
1.48015e-07
2.30474e-05
1.25891e-07
2.31258e-05
1.07133e-07
2.31767e-05
9.36303e-08
2.31955e-05
8.59739e-08
2.31877e-05
8.32388e-08
2.31647e-05
8.45282e-08
2.31395e-05
8.77079e-08
9.18902e-08
2.31249e-05
1.67045e-05
-2.84403e-07
1.67825e-05
-1.45389e-07
1.68715e-05
-5.1194e-08
1.68724e-05
4.02622e-09
1.67945e-05
1.01323e-07
1.67194e-05
1.64542e-07
1.67087e-05
1.61193e-07
1.67668e-05
1.1694e-07
1.68613e-05
7.39253e-08
1.69546e-05
5.4697e-08
1.70222e-05
5.82987e-08
1.70566e-05
7.28046e-08
1.70633e-05
8.68875e-08
1.70557e-05
9.35536e-08
1.70491e-05
8.98185e-08
1.70554e-05
7.82865e-08
1.70816e-05
6.14985e-08
4.54451e-08
1.7128e-05
1.40969e-05
-1.78381e-07
1.4138e-05
-1.86423e-07
1.42684e-05
-1.81682e-07
1.43324e-05
-5.99131e-08
1.43613e-05
7.23952e-08
1.43865e-05
1.39351e-07
1.44168e-05
1.30882e-07
1.44488e-05
8.49676e-08
1.4482e-05
4.07056e-08
1.45216e-05
1.50823e-08
1.45729e-05
6.97924e-09
1.46374e-05
8.31305e-09
1.47114e-05
1.29595e-08
1.47887e-05
1.62361e-08
1.48631e-05
1.5345e-08
1.49301e-05
1.13561e-08
1.49867e-05
4.83696e-09
-7.70911e-10
1.5033e-05
1.2755e-05
-3.23268e-08
1.27071e-05
-1.38516e-07
1.27017e-05
-1.76332e-07
1.27502e-05
-1.08349e-07
1.28309e-05
-8.3715e-09
1.28957e-05
7.45947e-08
1.29232e-05
1.03335e-07
1.29171e-05
9.11451e-08
1.28942e-05
6.35897e-08
1.28727e-05
3.65146e-08
1.28643e-05
1.53995e-08
1.28706e-05
1.97971e-09
1.2887e-05
-3.35481e-09
1.29072e-05
-3.99642e-09
1.29261e-05
-3.53929e-09
1.29419e-05
-4.43076e-09
1.29558e-05
-9.09939e-09
-1.66672e-08
1.29717e-05
1.07818e-05
-1.1708e-07
1.07273e-05
-8.39713e-08
1.07171e-05
-1.66174e-07
1.07976e-05
-1.88822e-07
1.09327e-05
-1.43474e-07
1.10796e-05
-7.22935e-08
1.11912e-05
-8.21792e-09
1.12511e-05
3.12275e-08
1.12682e-05
4.64996e-08
1.12634e-05
4.13094e-08
1.1255e-05
2.3767e-08
1.1255e-05
2.0233e-09
1.12692e-05
-1.76229e-08
1.1295e-05
-2.97228e-08
1.13265e-05
-3.50751e-08
1.1358e-05
-3.59011e-08
1.13836e-05
-3.46953e-08
-3.34715e-08
1.14004e-05
1.00256e-05
9.21148e-08
9.98087e-06
-3.92505e-08
9.93258e-06
-1.1789e-07
9.85243e-06
-1.08664e-07
9.79266e-06
-8.37041e-08
9.77988e-06
-5.95168e-08
9.79345e-06
-2.17876e-08
9.80006e-06
2.46184e-08
9.78912e-06
5.7439e-08
9.77081e-06
5.96155e-08
9.76117e-06
3.34112e-08
9.76852e-06
-5.32897e-09
9.79213e-06
-4.1238e-08
9.82735e-06
-6.49376e-08
9.86584e-06
-7.35683e-08
9.8997e-06
-6.9759e-08
9.92256e-06
-5.75589e-08
-4.1749e-08
9.93084e-06
8.3714e-06
7.09651e-08
8.39795e-06
-6.58042e-08
8.39475e-06
-1.14683e-07
8.41983e-06
-1.33748e-07
8.45709e-06
-1.20961e-07
8.4716e-06
-7.40275e-08
8.46077e-06
-1.09641e-08
8.44444e-06
4.09578e-08
8.44212e-06
5.97519e-08
8.4551e-06
4.66365e-08
8.47261e-06
1.59036e-08
8.48587e-06
-1.85909e-08
8.49023e-06
-4.55961e-08
8.487e-06
-6.17116e-08
8.48055e-06
-6.71178e-08
8.4752e-06
-6.4402e-08
8.47416e-06
-5.65279e-08
-4.64084e-08
8.47882e-06
7.3969e-06
-3.37526e-08
7.40618e-06
-7.50839e-08
7.40511e-06
-1.13614e-07
7.4007e-06
-1.29338e-07
7.38218e-06
-1.02441e-07
7.35756e-06
-4.94118e-08
7.34593e-06
6.72019e-10
7.36389e-06
2.29911e-08
7.40671e-06
1.69379e-08
7.4576e-06
-4.25452e-09
7.49948e-06
-2.59743e-08
7.52287e-06
-4.19893e-08
7.52814e-06
-5.08657e-08
7.52025e-06
-5.38209e-08
7.50505e-06
-5.19137e-08
7.48737e-06
-4.6722e-08
7.47012e-06
-3.9275e-08
-3.12827e-08
7.45499e-06
6.4427e-06
-3.62478e-08
6.4275e-06
-5.9886e-08
6.40435e-06
-9.04643e-08
6.38745e-06
-1.1244e-07
6.3919e-06
-1.06885e-07
6.41522e-06
-7.27392e-08
6.44909e-06
-3.3195e-08
6.48508e-06
-1.29996e-08
6.51633e-06
-1.43079e-08
6.53856e-06
-2.6489e-08
6.55244e-06
-3.98565e-08
6.56128e-06
-5.08245e-08
6.56837e-06
-5.79584e-08
6.57491e-06
-6.03609e-08
6.5801e-06
-5.70986e-08
6.58263e-06
-4.92581e-08
6.58082e-06
-3.74629e-08
-2.47508e-08
6.57429e-06
5.53014e-06
-3.89999e-08
5.57586e-06
-1.05606e-07
5.59381e-06
-1.08405e-07
5.58477e-06
-1.03407e-07
5.57977e-06
-1.01885e-07
5.59904e-06
-9.2008e-08
5.64096e-06
-7.51116e-08
5.68879e-06
-6.08334e-08
5.72693e-06
-5.24432e-08
5.74994e-06
-4.94981e-08
5.76103e-06
-5.09461e-08
5.76477e-06
-5.45724e-08
5.76359e-06
-5.67786e-08
5.75755e-06
-5.43152e-08
5.74662e-06
-4.61709e-08
5.73205e-06
-3.46846e-08
5.71673e-06
-2.21413e-08
-1.24389e-08
5.70441e-06
4.91153e-06
-5.80472e-08
4.95085e-06
-1.44923e-07
4.95913e-06
-1.16684e-07
4.92988e-06
-7.41657e-08
4.88081e-06
-5.28108e-08
4.84456e-06
-5.5761e-08
4.83442e-06
-6.49658e-08
4.84126e-06
-6.76799e-08
4.852e-06
-6.31814e-08
4.85954e-06
-5.70357e-08
4.86232e-06
-5.37216e-08
4.86139e-06
-5.3652e-08
4.85879e-06
-5.41753e-08
4.85703e-06
-5.25571e-08
4.85865e-06
-4.77835e-08
4.86506e-06
-4.11007e-08
4.87686e-06
-3.39402e-08
-2.83786e-08
4.8928e-06
4.28117e-06
4.13625e-06
4.01956e-06
3.9454e-06
3.89258e-06
3.83682e-06
3.77186e-06
3.70418e-06
3.641e-06
3.58396e-06
3.53024e-06
3.47659e-06
3.42241e-06
3.36985e-06
3.32207e-06
3.28097e-06
3.24703e-06
3.21865e-06
-3.48308e-07
3.48308e-07
-6.95306e-07
3.46997e-07
-9.72794e-07
2.77488e-07
-1.1656e-06
1.92804e-07
-1.2595e-06
9.39043e-08
-1.25006e-06
-9.43953e-09
-1.15313e-06
-9.69342e-08
-9.7357e-07
-1.79559e-07
-7.18154e-07
-2.55416e-07
-4.02216e-07
-3.15938e-07
-6.41161e-08
-3.381e-07
2.30902e-07
-2.95018e-07
4.07891e-07
-1.76989e-07
4.14664e-07
-6.77354e-09
2.71669e-07
1.42995e-07
4.28772e-08
2.28792e-07
-1.99886e-07
2.42763e-07
-4.14531e-07
2.14645e-07
-5.95686e-07
1.81155e-07
-7.58276e-07
1.6259e-07
-9.19115e-07
1.60839e-07
-1.08737e-06
1.68254e-07
-1.26582e-06
1.78453e-07
-1.45531e-06
1.89491e-07
-1.65688e-06
2.01566e-07
-1.8718e-06
2.14922e-07
-2.10105e-06
2.29251e-07
-2.34465e-06
2.43599e-07
-2.60147e-06
2.56822e-07
-2.86964e-06
2.68168e-07
-3.1478e-06
2.78161e-07
-3.43722e-06
2.89416e-07
-3.74395e-06
3.06729e-07
-4.07615e-06
3.32199e-07
-4.42967e-06
3.53523e-07
-4.76608e-06
3.36415e-07
-5.01474e-06
2.48658e-07
-5.12795e-06
1.13208e-07
-5.13541e-06
7.45709e-09
-5.12466e-06
-1.07515e-08
-5.13604e-06
1.13839e-08
-5.1448e-06
8.75676e-09
-5.09723e-06
-4.75627e-08
-4.96828e-06
-1.28957e-07
-4.76796e-06
-2.00311e-07
-4.51269e-06
-2.55278e-07
-4.20558e-06
-3.0711e-07
-3.85157e-06
-3.54011e-07
-3.47205e-06
-3.79517e-07
-3.06113e-06
-4.10918e-07
-2.62254e-06
-4.38588e-07
-2.15366e-06
-4.6888e-07
-1.65657e-06
-4.97092e-07
-1.13496e-06
-5.21608e-07
-5.9535e-07
-5.39611e-07
-5.37944e-08
-5.41555e-07
4.72791e-07
-5.26585e-07
9.67715e-07
-4.94925e-07
1.41476e-06
-4.47041e-07
1.80775e-06
-3.9299e-07
2.16054e-06
-3.52791e-07
2.49242e-06
-3.31881e-07
2.80439e-06
-3.11971e-07
3.0854e-06
-2.81006e-07
3.334e-06
-2.48601e-07
3.55411e-06
-2.20108e-07
3.74792e-06
-1.93816e-07
3.90266e-06
-1.54735e-07
3.98239e-06
-7.97326e-08
3.94082e-06
4.15674e-08
3.73612e-06
2.04698e-07
3.39977e-06
3.36353e-07
2.94872e-06
4.51049e-07
2.24241e-06
7.06307e-07
1.3808e-06
8.61617e-07
9.92145e-07
3.88652e-07
1.32915e-06
-3.37006e-07
1.7686e-06
-4.39452e-07
1.7901e-06
-2.15007e-08
1.3399e-06
4.50206e-07
6.28962e-07
7.10935e-07
-6.35167e-08
6.92478e-07
-6.38671e-07
5.75155e-07
-1.10346e-06
4.64791e-07
-1.47437e-06
3.7091e-07
-1.77165e-06
2.97278e-07
-2.01583e-06
2.44179e-07
-2.22514e-06
2.09306e-07
-2.41492e-06
1.89789e-07
-2.59752e-06
1.82594e-07
-2.78495e-06
1.87429e-07
-2.98664e-06
2.01688e-07
-3.21021e-06
2.23576e-07
-3.46182e-06
2.51607e-07
-3.74608e-06
2.84263e-07
-4.06612e-06
3.20036e-07
-4.42355e-06
3.57438e-07
-4.81856e-06
3.95004e-07
-5.24972e-06
4.31163e-07
-5.71363e-06
4.63904e-07
-6.20484e-06
4.91214e-07
-6.71605e-06
5.11215e-07
-7.23793e-06
5.21879e-07
-7.75908e-06
5.21145e-07
-8.26614e-06
5.0706e-07
-8.74411e-06
4.77974e-07
-9.17698e-06
4.32863e-07
-9.54858e-06
3.71603e-07
-9.84373e-06
2.95155e-07
-1.00496e-05
2.05911e-07
-1.01576e-05
1.07962e-07
-1.01623e-05
4.65701e-09
-1.00652e-05
-9.70702e-08
-9.86959e-06
-1.95606e-07
-9.58016e-06
-2.89427e-07
-9.20343e-06
-3.76727e-07
-8.74775e-06
-4.5568e-07
-8.22281e-06
-5.24942e-07
-7.63927e-06
-5.83537e-07
-7.00826e-06
-6.31017e-07
-6.34087e-06
-6.67386e-07
-5.64785e-06
-6.93017e-07
-4.93937e-06
-7.0848e-07
-4.22493e-06
-7.14447e-07
-3.51311e-06
-7.11815e-07
-2.81167e-06
-7.01446e-07
-2.12762e-06
-6.84044e-07
-1.46756e-06
-6.60064e-07
-8.36513e-07
-6.31046e-07
-2.41538e-07
-5.94974e-07
3.19109e-07
-5.60648e-07
8.38637e-07
-5.19528e-07
1.31483e-06
-4.76192e-07
1.74582e-06
-4.30992e-07
2.13013e-06
-3.84304e-07
2.46681e-06
-3.36685e-07
2.7563e-06
-2.89489e-07
3.00155e-06
-2.45253e-07
3.20838e-06
-2.06825e-07
3.38226e-06
-1.7388e-07
3.5203e-06
-1.38043e-07
3.60558e-06
-8.52777e-08
3.6183e-06
-1.27269e-08
3.55797e-06
6.03387e-08
3.44637e-06
1.11592e-07
3.31349e-06
1.32888e-07
3.18389e-06
1.29595e-07
3.07166e-06
1.12229e-07
2.97818e-06
9.34774e-08
2.89898e-06
7.92028e-08
2.8283e-06
7.06805e-08
2.76205e-06
6.62493e-08
2.69828e-06
6.3768e-08
2.63827e-06
6.00143e-08
2.58566e-06
5.26071e-08
2.54439e-06
4.1277e-08
2.51698e-06
2.74007e-08
2.50417e-06
1.2817e-08
2.50427e-06
-1.06553e-10
2.5141e-06
-9.82989e-09
2.5311e-06
-1.70003e-08
2.55306e-06
-2.19521e-08
2.57467e-06
-2.16101e-08
2.59066e-06
-1.59948e-08
2.6062e-06
-1.55426e-08
2.63181e-06
-2.56042e-08
2.65844e-06
-2.6634e-08
2.66753e-06
-9.08369e-09
2.66587e-06
1.66043e-09
2.66194e-06
3.92723e-09
2.63006e-06
3.18792e-08
2.56615e-06
6.39065e-08
2.52305e-06
4.30984e-08
2.55644e-06
-3.33845e-08
2.60969e-06
-5.32523e-08
2.72329e-06
-1.13603e-07
2.94071e-06
-2.17421e-07
3.16769e-06
-2.2697e-07
3.25048e-06
-8.27986e-08
-1.25062e-07
3.37555e-06
-2.96649e-08
3.77973e-07
-9.93897e-08
4.16722e-07
-1.75174e-07
3.53273e-07
-2.28163e-07
2.45793e-07
-2.4565e-07
1.11391e-07
-2.28878e-07
-2.62111e-08
-1.75122e-07
-1.50691e-07
-1.00712e-07
-2.53969e-07
-1.71567e-08
-3.38971e-07
1.02697e-07
-4.35792e-07
2.76062e-07
-5.11464e-07
4.78655e-07
-4.97611e-07
6.46823e-07
-3.45157e-07
7.23042e-07
-8.29918e-08
6.88889e-07
1.77148e-07
5.53322e-07
3.64358e-07
3.52185e-07
4.439e-07
1.16681e-07
4.5015e-07
-1.37491e-07
4.35326e-07
-3.9779e-07
4.22889e-07
-6.52326e-07
4.15375e-07
-8.982e-07
4.14128e-07
-1.14098e-06
4.21236e-07
-1.38837e-06
4.36877e-07
-1.6455e-06
4.587e-07
-1.91428e-06
4.83695e-07
-2.19382e-06
5.0879e-07
-2.47992e-06
5.29704e-07
-2.76655e-06
5.43448e-07
-3.0469e-06
5.48522e-07
-3.31341e-06
5.44665e-07
-3.55638e-06
5.32392e-07
-3.76176e-06
5.12112e-07
-3.9115e-06
4.81929e-07
-3.9927e-06
4.34731e-07
-4.01582e-06
3.59533e-07
-4.02168e-06
2.54515e-07
-4.04987e-06
1.41402e-07
-4.09407e-06
5.16599e-08
-4.09521e-06
-9.61428e-09
-4.01289e-06
-7.09347e-08
-3.86175e-06
-1.42388e-07
-3.67477e-06
-2.34543e-07
-3.46994e-06
-3.33788e-07
-3.24993e-06
-4.20316e-07
-3.0134e-06
-4.91815e-07
-2.75679e-06
-5.63717e-07
-2.47497e-06
-6.35829e-07
-2.16703e-06
-6.87459e-07
-1.82972e-06
-7.48229e-07
-1.46737e-06
-8.00938e-07
-1.07491e-06
-8.61341e-07
-6.45322e-07
-9.2668e-07
-1.72695e-07
-9.94235e-07
3.43373e-07
-1.05568e-06
8.89786e-07
-1.08797e-06
1.43949e-06
-1.07629e-06
1.97158e-06
-1.02701e-06
2.46716e-06
-9.4262e-07
2.91527e-06
-8.41101e-07
3.32121e-06
-7.58728e-07
3.69811e-06
-7.0878e-07
4.05351e-06
-6.67375e-07
4.38098e-06
-6.08479e-07
4.66649e-06
-5.34106e-07
4.91144e-06
-4.65058e-07
5.11377e-06
-3.96144e-07
5.23331e-06
-2.74276e-07
5.24713e-06
-9.35559e-08
5.19784e-06
9.08584e-08
4.95782e-06
4.44716e-07
4.39395e-06
9.0023e-07
3.84044e-06
1.00455e-06
3.34619e-06
1.20056e-06
2.66273e-06
1.54508e-06
2.25269e-06
7.98684e-07
2.06741e-06
-1.51726e-07
1.50843e-06
1.19537e-07
5.89244e-07
8.97681e-07
-3.20906e-07
1.36036e-06
-1.01647e-06
1.4065e-06
-1.55588e-06
1.23188e-06
-1.99196e-06
1.01124e-06
-2.33835e-06
8.11181e-07
-2.61608e-06
6.48643e-07
-2.84516e-06
5.26357e-07
-3.04249e-06
4.41506e-07
-3.22199e-06
3.8881e-07
-3.39519e-06
3.62986e-07
-3.57202e-06
3.59423e-07
-3.75896e-06
3.74373e-07
-3.96212e-06
4.04847e-07
-4.18693e-06
4.48385e-07
-4.43707e-06
5.01749e-07
-4.71491e-06
5.62096e-07
-5.02159e-06
6.26718e-07
-5.35707e-06
6.92922e-07
-5.72008e-06
7.58014e-07
-6.10811e-06
8.19187e-07
-6.5176e-06
8.73396e-07
-6.94388e-06
9.17496e-07
-7.38098e-06
9.48312e-07
-7.8216e-06
9.62501e-07
-8.25703e-06
9.56576e-07
-8.67708e-06
9.27108e-07
-9.07021e-06
8.71105e-07
-9.42388e-06
7.86531e-07
-9.72515e-06
6.72878e-07
-9.96179e-06
5.31788e-07
-1.01233e-05
3.67408e-07
-1.0201e-05
1.8572e-07
-1.01898e-05
-6.63187e-09
-1.00796e-05
-2.07232e-07
-9.87042e-06
-4.04777e-07
-9.56604e-06
-5.93802e-07
-9.17308e-06
-7.69686e-07
-8.70001e-06
-9.28755e-07
-8.15678e-06
-1.06817e-06
-7.55418e-06
-1.18614e-06
-6.90339e-06
-1.2818e-06
-6.21555e-06
-1.35523e-06
-5.50143e-06
-1.40714e-06
-4.77112e-06
-1.43879e-06
-4.03386e-06
-1.4517e-06
-3.2982e-06
-1.44747e-06
-2.57164e-06
-1.428e-06
-1.86128e-06
-1.3944e-06
-1.17332e-06
-1.34803e-06
-5.12997e-07
-1.29137e-06
1.14346e-07
-1.22232e-06
7.03614e-07
-1.14992e-06
1.25195e-06
-1.06786e-06
1.75595e-06
-9.80195e-07
2.21304e-06
-8.88083e-07
2.62149e-06
-7.92755e-07
2.98092e-06
-6.96113e-07
3.29261e-06
-6.01183e-07
3.55915e-06
-5.11787e-07
3.7832e-06
-4.30874e-07
3.96777e-06
-3.58449e-07
4.12054e-06
-2.90814e-07
4.25785e-06
-2.22595e-07
4.39589e-06
-1.50763e-07
4.53387e-06
-7.76404e-08
4.65458e-06
-9.11928e-09
4.74052e-06
4.69452e-08
4.77105e-06
9.90721e-08
4.72742e-06
1.55852e-07
4.61098e-06
2.0992e-07
4.44446e-06
2.45726e-07
4.26143e-06
2.53707e-07
4.08762e-06
2.40056e-07
3.93235e-06
2.19044e-07
3.79633e-06
1.96034e-07
3.68052e-06
1.68416e-07
3.58773e-06
1.3407e-07
3.5197e-06
9.54251e-08
3.47499e-06
5.75296e-08
3.45007e-06
2.48117e-08
3.4418e-06
-1.55471e-09
3.44744e-06
-2.26405e-08
3.46198e-06
-3.64923e-08
3.47904e-06
-3.86781e-08
3.49976e-06
-3.6713e-08
3.53643e-06
-5.22077e-08
3.59489e-06
-8.40649e-08
3.66302e-06
-9.47681e-08
3.7237e-06
-6.97602e-08
3.74117e-06
-1.5807e-08
3.68905e-06
5.60403e-08
3.58303e-06
1.37907e-07
3.46275e-06
1.84182e-07
3.33527e-06
1.70575e-07
3.2562e-06
4.56912e-08
3.29484e-06
-9.18969e-08
3.40695e-06
-2.25711e-07
3.56473e-06
-3.75202e-07
3.76068e-06
-4.22919e-07
3.96222e-06
-2.84338e-07
-2.59604e-07
4.09676e-06
3.81338e-07
-3.36472e-09
7.77961e-07
2.00995e-08
1.09676e-06
3.44781e-08
1.3123e-06
3.02485e-08
1.45338e-06
-2.96903e-08
1.54105e-06
-1.13882e-07
1.58851e-06
-1.98145e-07
1.61585e-06
-2.81316e-07
1.59642e-06
-3.1954e-07
1.53636e-06
-3.75729e-07
1.45327e-06
-4.28374e-07
1.34229e-06
-3.86635e-07
1.23997e-06
-2.4283e-07
1.1193e-06
3.76786e-08
9.23466e-07
3.72977e-07
6.68297e-07
6.19527e-07
3.76274e-07
7.35923e-07
6.85796e-08
7.57844e-07
-2.26586e-07
7.30492e-07
-4.91269e-07
6.87573e-07
-7.30236e-07
6.54342e-07
-9.65022e-07
6.48914e-07
-1.21921e-06
6.75428e-07
-1.50431e-06
7.21971e-07
-1.81979e-06
7.74181e-07
-2.15657e-06
8.20479e-07
-2.50129e-06
8.5351e-07
-2.84095e-06
8.69358e-07
-3.16446e-06
8.66958e-07
-3.46306e-06
8.47128e-07
-3.72979e-06
8.1139e-07
-3.95845e-06
7.61056e-07
-4.14282e-06
6.96481e-07
-4.27721e-06
6.16321e-07
-4.35988e-06
5.174e-07
-4.3977e-06
3.9735e-07
-4.40484e-06
2.61657e-07
-4.38899e-06
1.2555e-07
-4.33445e-06
-2.8773e-09
-4.24447e-06
-9.95929e-08
-4.12107e-06
-1.94333e-07
-3.96722e-06
-2.96237e-07
-3.79693e-06
-4.04841e-07
-3.61786e-06
-5.1286e-07
-3.42615e-06
-6.12021e-07
-3.21737e-06
-7.00599e-07
-2.99572e-06
-7.8536e-07
-2.76475e-06
-8.66803e-07
-2.51211e-06
-9.40098e-07
-2.24235e-06
-1.01799e-06
-1.94407e-06
-1.09922e-06
-1.61625e-06
-1.18916e-06
-1.24889e-06
-1.29403e-06
-8.28615e-07
-1.41451e-06
-3.52921e-07
-1.53137e-06
1.7096e-07
-1.61185e-06
7.14936e-07
-1.62027e-06
1.24156e-06
-1.55364e-06
1.73045e-06
-1.43151e-06
2.18192e-06
-1.29257e-06
2.61733e-06
-1.19414e-06
3.04068e-06
-1.13213e-06
3.4463e-06
-1.073e-06
3.83739e-06
-9.99565e-07
4.20767e-06
-9.04393e-07
4.54929e-06
-8.06675e-07
4.86507e-06
-7.11922e-07
5.13048e-06
-5.39689e-07
5.30351e-06
-2.66592e-07
5.36959e-06
2.4779e-08
5.28881e-06
5.25502e-07
4.96541e-06
1.22363e-06
4.3995e-06
1.57046e-06
3.59811e-06
2.00194e-06
2.9807e-06
2.16249e-06
2.65908e-06
1.12031e-06
1.84325e-06
6.64099e-07
5.73302e-07
1.38949e-06
-5.02682e-07
1.97366e-06
-1.17565e-06
2.03332e-06
-1.58296e-06
1.81381e-06
-1.8635e-06
1.51242e-06
-2.07789e-06
1.22563e-06
-2.25247e-06
9.85759e-07
-2.4038e-06
7.99978e-07
-2.54343e-06
6.65984e-07
-2.67907e-06
5.77151e-07
-2.81702e-06
5.26759e-07
-2.96284e-06
5.08806e-07
-3.12163e-06
5.18212e-07
-3.29763e-06
5.50374e-07
-3.49433e-06
6.01547e-07
-3.71441e-06
6.68462e-07
-3.96048e-06
7.47821e-07
-4.23464e-06
8.36255e-07
-4.53829e-06
9.30371e-07
-4.87215e-06
1.02678e-06
-5.23616e-06
1.12202e-06
-5.62941e-06
1.21244e-06
-6.05008e-06
1.29407e-06
-6.49523e-06
1.36264e-06
-6.9604e-06
1.41349e-06
-7.43919e-06
1.44128e-06
-7.92279e-06
1.44018e-06
-8.39973e-06
1.40405e-06
-8.85579e-06
1.32716e-06
-9.27451e-06
1.20526e-06
-9.63834e-06
1.0367e-06
-9.92997e-06
8.23419e-07
-1.01345e-05
5.71939e-07
-1.02412e-05
2.92394e-07
-1.02451e-05
-2.71361e-09
-1.01393e-05
-3.12974e-07
-9.9295e-06
-6.14621e-07
-9.62057e-06
-9.02733e-07
-9.22e-06
-1.17026e-06
-8.73723e-06
-1.41152e-06
-8.18311e-06
-1.6223e-06
-7.56923e-06
-1.80003e-06
-6.90739e-06
-1.94364e-06
-6.20924e-06
-2.05338e-06
-5.4858e-06
-2.13058e-06
-4.74702e-06
-2.17757e-06
-4.00162e-06
-2.1971e-06
-3.25705e-06
-2.19205e-06
-2.52014e-06
-2.16491e-06
-1.79647e-06
-2.11807e-06
-1.09243e-06
-2.05207e-06
-4.13248e-07
-1.97055e-06
2.37182e-07
-1.87275e-06
8.50985e-07
-1.76372e-06
1.42572e-06
-1.64259e-06
1.95732e-06
-1.5118e-06
2.44158e-06
-1.37234e-06
2.87391e-06
-1.22509e-06
3.25028e-06
-1.07248e-06
3.56864e-06
-9.19543e-07
3.83038e-06
-7.73524e-07
4.04083e-06
-6.41328e-07
4.20863e-06
-5.26246e-07
4.34467e-06
-4.26857e-07
4.46126e-06
-3.39186e-07
4.57005e-06
-2.59544e-07
4.68001e-06
-1.87604e-07
4.79644e-06
-1.25554e-07
4.91483e-06
-7.14387e-08
5.02763e-06
-1.37323e-08
5.1196e-06
6.38873e-08
5.16917e-06
1.60345e-07
5.15179e-06
2.6311e-07
5.05597e-06
3.49521e-07
4.8946e-06
4.01429e-07
4.70086e-06
4.12784e-07
4.50912e-06
3.87776e-07
4.34119e-06
3.3635e-07
4.20517e-06
2.70091e-07
4.10085e-06
1.99737e-07
4.02406e-06
1.3432e-07
3.96948e-06
7.93999e-08
3.93317e-06
3.47501e-08
3.91117e-06
-6.3907e-10
3.89564e-06
-2.09621e-08
3.87853e-06
-2.15736e-08
3.86008e-06
-1.82553e-08
3.85125e-06
-4.33848e-08
3.86826e-06
-1.01075e-07
3.9134e-06
-1.39904e-07
3.95972e-06
-1.16079e-07
3.96758e-06
-2.36646e-08
3.91258e-06
1.1104e-07
3.80367e-06
2.46811e-07
3.67168e-06
3.16174e-07
3.57134e-06
2.70919e-07
3.54146e-06
7.55636e-08
3.6159e-06
-1.66335e-07
3.76213e-06
-3.71937e-07
3.93732e-06
-5.50388e-07
4.10008e-06
-5.85686e-07
4.27164e-06
-4.55895e-07
-3.84005e-07
4.39604e-06
3.66525e-07
-3.6989e-07
9.58022e-07
-5.71397e-07
1.50887e-06
-5.16367e-07
1.93194e-06
-3.92828e-07
2.25676e-06
-3.54511e-07
2.46135e-06
-3.18471e-07
2.54806e-06
-2.84852e-07
2.5789e-06
-3.12159e-07
2.54695e-06
-2.87591e-07
2.4721e-06
-3.00875e-07
2.37289e-06
-3.2916e-07
2.11774e-06
-1.31485e-07
1.67538e-06
1.99526e-07
1.17958e-06
5.33477e-07
7.17628e-07
8.34932e-07
3.17791e-07
1.01936e-06
-9.3786e-09
1.06309e-06
-2.61262e-07
1.00973e-06
-4.59771e-07
9.29e-07
-6.65398e-07
8.93199e-07
-9.31064e-07
9.20009e-07
-1.27365e-06
9.91499e-07
-1.67928e-06
1.08106e-06
-2.12268e-06
1.16538e-06
-2.57798e-06
1.22947e-06
-3.02405e-06
1.26655e-06
-3.44592e-06
1.27538e-06
-3.83394e-06
1.25738e-06
-4.18192e-06
1.21494e-06
-4.48551e-06
1.15072e-06
-4.74137e-06
1.06724e-06
-4.94698e-06
9.66666e-07
-5.10108e-06
8.50588e-07
-5.2055e-06
7.20738e-07
-5.26653e-06
5.78432e-07
-5.29465e-06
4.25471e-07
-5.29809e-06
2.65093e-07
-5.27464e-06
1.02102e-07
-5.22245e-06
-5.5069e-08
-5.11497e-06
-2.07072e-07
-4.95923e-06
-3.50077e-07
-4.77062e-06
-4.84841e-07
-4.56237e-06
-6.13095e-07
-4.33986e-06
-7.35365e-07
-4.10375e-06
-8.48138e-07
-3.85296e-06
-9.51388e-07
-3.58976e-06
-1.04856e-06
-3.31711e-06
-1.13945e-06
-3.02993e-06
-1.22727e-06
-2.73328e-06
-1.31464e-06
-2.42576e-06
-1.40674e-06
-2.10541e-06
-1.50951e-06
-1.76924e-06
-1.6302e-06
-1.41404e-06
-1.76972e-06
-1.03267e-06
-1.91274e-06
-6.17119e-07
-2.0274e-06
-1.70234e-07
-2.06715e-06
2.79083e-07
-2.00296e-06
6.89063e-07
-1.84149e-06
1.07033e-06
-1.67384e-06
1.4759e-06
-1.59971e-06
1.90839e-06
-1.56461e-06
2.32333e-06
-1.48794e-06
2.73364e-06
-1.40987e-06
3.15931e-06
-1.33006e-06
3.59373e-06
-1.24109e-06
4.01969e-06
-1.13788e-06
4.4167e-06
-9.36705e-07
4.72931e-06
-5.79199e-07
4.86096e-06
-1.06873e-07
4.80468e-06
5.81786e-07
4.64516e-06
1.38315e-06
4.16183e-06
2.05379e-06
3.51492e-06
2.64886e-06
3.211e-06
2.46641e-06
2.50383e-06
1.82747e-06
1.06814e-06
2.09979e-06
-2.2414e-07
2.68177e-06
-9.5634e-07
2.70586e-06
-1.31773e-06
2.39471e-06
-1.4967e-06
1.99279e-06
-1.59941e-06
1.61513e-06
-1.67413e-06
1.30035e-06
-1.74349e-06
1.05512e-06
-1.819e-06
8.75493e-07
-1.90597e-06
7.52948e-07
-2.00675e-06
6.77935e-07
-2.12344e-06
6.43449e-07
-2.2585e-06
6.43867e-07
-2.41496e-06
6.74669e-07
-2.59589e-06
7.31307e-07
-2.8036e-06
8.09251e-07
-3.04014e-06
9.05002e-07
-3.3078e-06
1.01549e-06
-3.60868e-06
1.13713e-06
-3.94444e-06
1.26613e-06
-4.31615e-06
1.39849e-06
-4.72419e-06
1.53006e-06
-5.16806e-06
1.65631e-06
-5.64611e-06
1.77212e-06
-6.15512e-06
1.87165e-06
-6.68972e-06
1.94809e-06
-7.24198e-06
1.99355e-06
-7.80091e-06
1.9991e-06
-8.3523e-06
1.95544e-06
-8.87891e-06
1.85377e-06
-9.36108e-06
1.68743e-06
-9.77814e-06
1.45376e-06
-1.01105e-05
1.15574e-06
-1.03419e-05
8.034e-07
-1.04619e-05
4.12394e-07
-1.04633e-05
-1.34062e-09
-1.03505e-05
-4.25799e-07
-1.01262e-05
-8.38885e-07
-9.79813e-06
-1.23081e-06
-9.37596e-06
-1.59243e-06
-8.87069e-06
-1.91679e-06
-8.29416e-06
-2.19882e-06
-7.65876e-06
-2.43543e-06
-6.97708e-06
-2.62532e-06
-6.26147e-06
-2.76899e-06
-5.52351e-06
-2.86853e-06
-4.77364e-06
-2.92744e-06
-4.02092e-06
-2.94982e-06
-3.27299e-06
-2.93998e-06
-2.53541e-06
-2.9025e-06
-1.81311e-06
-2.84037e-06