/*--------------------------------*- C++ -*----------------------------------*\
  =========                 |
  \\      /  F ield         | OpenFOAM: The Open Source CFD Toolbox
   \\    /   O peration     | Website:  https://openfoam.org
    \\  /    A nd           | Version:  9
     \\/     M anipulation  |
\*---------------------------------------------------------------------------*/
FoamFile
{
    format      ascii;
    class       surfaceScalarField;
    location    "0.08";
    object      phi_0;
}
// * * * * * * * * * * * * * * * * * * * * * * * * * * * * * * * * * * * * * //

dimensions      [0 3 -1 0 0 0 0];

internalField   nonuniform List<scalar> 
24170
(
2.99167e-06
1.30592e-07
2.92613e-06
6.55418e-08
2.8708e-06
5.53327e-08
2.81364e-06
5.71597e-08
2.74826e-06
6.53779e-08
2.66636e-06
8.18966e-08
2.5699e-06
9.64638e-08
2.4677e-06
1.02203e-07
2.36865e-06
9.90503e-08
2.27368e-06
9.49636e-08
2.18194e-06
9.17372e-08
2.09002e-06
9.19235e-08
2.00141e-06
8.86146e-08
1.91847e-06
8.29415e-08
1.83639e-06
8.20772e-08
1.75099e-06
8.53973e-08
1.64147e-06
1.09523e-07
1.37924e-07
1.50354e-06
3.46267e-06
1.44385e-07
3.48535e-06
4.28645e-08
3.49516e-06
4.5519e-08
3.48619e-06
6.61326e-08
3.47671e-06
7.48587e-08
3.47226e-06
8.63393e-08
3.46559e-06
1.03136e-07
3.44988e-06
1.17913e-07
3.42534e-06
1.23587e-07
3.39524e-06
1.25067e-07
3.36324e-06
1.23734e-07
3.33206e-06
1.2311e-07
3.30257e-06
1.18099e-07
3.27443e-06
1.11082e-07
3.24586e-06
1.10647e-07
3.20941e-06
1.21846e-07
3.16598e-06
1.52962e-07
1.92622e-07
3.11128e-06
3.64572e-06
9.9455e-08
3.64804e-06
4.05446e-08
3.67121e-06
2.23414e-08
3.70562e-06
3.17271e-08
3.71852e-06
6.1957e-08
3.70768e-06
9.71817e-08
3.69395e-06
1.16859e-07
3.69329e-06
1.18573e-07
3.70565e-06
1.11229e-07
3.72269e-06
1.08034e-07
3.73401e-06
1.12408e-07
3.73524e-06
1.21884e-07
3.72357e-06
1.29763e-07
3.70124e-06
1.33412e-07
3.6715e-06
1.40385e-07
3.6385e-06
1.54853e-07
3.61018e-06
1.81282e-07
2.15524e-07
3.58728e-06
4.01138e-06
1.37232e-07
3.97707e-06
7.48559e-08
3.95256e-06
4.68472e-08
3.94655e-06
3.77415e-08
3.9623e-06
4.62063e-08
3.99019e-06
6.92903e-08
4.01245e-06
9.4595e-08
4.01866e-06
1.12369e-07
4.01e-06
1.19889e-07
3.99525e-06
1.22783e-07
3.98146e-06
1.26198e-07
3.97154e-06
1.31803e-07
3.96264e-06
1.38659e-07
3.95026e-06
1.45797e-07
3.9323e-06
1.58342e-07
3.90783e-06
1.79328e-07
3.88016e-06
2.08945e-07
2.44606e-07
3.85108e-06
4.21466e-06
1.44569e-07
4.25303e-06
3.64857e-08
4.27801e-06
2.18755e-08
4.28155e-06
3.41949e-08
4.27207e-06
5.56889e-08
4.26424e-06
7.71174e-08
4.26202e-06
9.68233e-08
4.26098e-06
1.13403e-07
4.25615e-06
1.2472e-07
4.24717e-06
1.31765e-07
4.23696e-06
1.36405e-07
4.22898e-06
1.3978e-07
4.22373e-06
1.43913e-07
4.21941e-06
1.50117e-07
4.21517e-06
1.62581e-07
4.21031e-06
1.84189e-07
4.20555e-06
2.13704e-07
2.49754e-07
4.2004e-06
4.59532e-06
-5.49047e-09
4.55994e-06
7.1863e-08
4.53115e-06
5.06673e-08
4.5348e-06
3.05459e-08
4.54146e-06
4.90293e-08
4.54835e-06
7.02256e-08
4.55706e-06
8.81112e-08
4.56317e-06
1.07295e-07
4.56038e-06
1.27511e-07
4.54729e-06
1.44853e-07
4.52799e-06
1.55709e-07
4.50795e-06
1.59822e-07
4.49059e-06
1.61271e-07
4.47569e-06
1.65016e-07
4.4629e-06
1.75373e-07
4.45197e-06
1.95121e-07
4.44383e-06
2.21843e-07
2.53593e-07
4.43999e-06
4.88878e-06
2.55957e-08
4.88934e-06
7.13083e-08
4.89882e-06
4.11801e-08
4.87179e-06
5.75806e-08
4.84125e-06
7.9568e-08
4.83701e-06
7.44661e-08
4.85939e-06
6.57307e-08
4.89201e-06
7.46799e-08
4.91862e-06
1.009e-07
4.93209e-06
1.31376e-07
4.93376e-06
1.54047e-07
4.92797e-06
1.6561e-07
4.91788e-06
1.71362e-07
4.9043e-06
1.78596e-07
4.88772e-06
1.91949e-07
4.86942e-06
2.13423e-07
4.8507e-06
2.40557e-07
2.70912e-07
4.83339e-06
5.24179e-06
2.88189e-08
5.22728e-06
8.58152e-08
5.18492e-06
8.35435e-08
5.16471e-06
7.779e-08
5.16874e-06
7.55335e-08
5.17588e-06
6.733e-08
5.18175e-06
5.98628e-08
5.19207e-06
6.43595e-08
5.20871e-06
8.42584e-08
5.22529e-06
1.14796e-07
5.2328e-06
1.46537e-07
5.2263e-06
1.72111e-07
5.20774e-06
1.89918e-07
5.18378e-06
2.02557e-07
5.16213e-06
2.13598e-07
5.14822e-06
2.27338e-07
5.1446e-06
2.4418e-07
2.65749e-07
5.14976e-06
5.52726e-06
7.48984e-08
5.54174e-06
7.1332e-08
5.56132e-06
6.39677e-08
5.60517e-06
3.39347e-08
5.67396e-06
6.74721e-09
5.73357e-06
7.71973e-09
5.7619e-06
3.15294e-08
5.76026e-06
6.60006e-08
5.74366e-06
1.00857e-07
5.72461e-06
1.33844e-07
5.7055e-06
1.65646e-07
5.682e-06
1.95615e-07
5.65059e-06
2.21331e-07
5.61265e-06
2.40495e-07
5.57399e-06
2.52252e-07
5.54142e-06
2.59911e-07
5.52022e-06
2.65384e-07
2.74557e-07
5.51141e-06
5.92454e-06
-1.48694e-08
5.93442e-06
6.14459e-08
5.89878e-06
9.96147e-08
5.87229e-06
6.04224e-08
5.87404e-06
4.99372e-09
5.89233e-06
-1.05631e-08
5.90987e-06
1.39897e-08
5.92179e-06
5.4079e-08
5.92977e-06
9.28744e-08
5.93681e-06
1.26803e-07
5.94266e-06
1.59795e-07
5.94518e-06
1.93103e-07
5.94299e-06
2.23521e-07
5.93718e-06
2.46299e-07
5.93077e-06
2.58661e-07
5.92747e-06
2.63213e-07
5.92982e-06
2.63038e-07
2.65489e-07
5.93889e-06
6.33273e-06
-1.22666e-07
6.43474e-06
-4.05642e-08
6.42958e-06
1.04778e-07
6.38107e-06
1.08933e-07
6.3462e-06
3.98662e-08
6.34545e-06
-9.81599e-09
6.36677e-06
-7.32858e-09
6.38959e-06
3.1255e-08
6.40083e-06
8.16387e-08
6.40033e-06
1.27298e-07
6.39487e-06
1.65256e-07
6.39158e-06
1.96395e-07
6.39409e-06
2.21015e-07
6.40128e-06
2.39102e-07
6.40959e-06
2.50354e-07
6.41587e-06
2.56936e-07
6.41771e-06
2.61191e-07
2.6491e-07
6.41829e-06
5.64041e-06
-7.33824e-08
5.71987e-06
-1.20026e-07
5.78633e-06
3.83195e-08
5.81798e-06
7.72852e-08
5.81525e-06
4.25986e-08
5.79635e-06
9.08069e-09
5.78006e-06
8.95875e-09
5.77189e-06
3.94282e-08
5.77293e-06
8.05945e-08
5.78175e-06
1.18477e-07
5.79766e-06
1.49346e-07
5.81923e-06
1.74828e-07
5.84306e-06
1.97189e-07
5.86345e-06
2.18706e-07
5.87502e-06
2.38787e-07
5.8749e-06
2.57061e-07
5.86389e-06
2.72197e-07
2.83071e-07
5.84573e-06
7.06339e-06
-9.03924e-09
6.99724e-06
-5.38736e-08
7.02193e-06
1.36277e-08
7.0401e-06
5.91194e-08
7.01885e-06
6.38437e-08
6.98241e-06
4.55239e-08
6.96421e-06
2.71603e-08
6.97754e-06
2.60913e-08
7.0097e-06
4.8435e-08
7.0385e-06
8.96786e-08
7.04944e-06
1.38409e-07
7.0413e-06
1.82971e-07
7.02227e-06
2.16217e-07
7.00309e-06
2.37879e-07
6.99131e-06
2.50575e-07
6.98955e-06
2.58813e-07
6.99753e-06
2.64219e-07
2.69483e-07
7.01112e-06
8.48761e-06
-2.11773e-07
8.46677e-06
-3.30393e-08
8.44877e-06
3.16257e-08
8.48144e-06
2.64527e-08
8.53322e-06
1.20612e-08
8.56991e-06
8.83835e-09
8.57845e-06
1.86134e-08
8.56484e-06
3.97075e-08
8.54045e-06
7.28265e-08
8.51626e-06
1.13861e-07
8.49992e-06
1.54749e-07
8.49479e-06
1.88103e-07
8.50103e-06
2.09981e-07
8.5171e-06
2.21806e-07
8.54011e-06
2.27568e-07
8.56729e-06
2.31629e-07
8.59566e-06
2.35848e-07
2.411e-07
8.62405e-06
1.06693e-05
-4.67717e-08
1.05501e-05
8.61942e-08
1.0483e-05
9.87656e-08
1.04413e-05
6.8124e-08
1.04064e-05
4.69335e-08
1.03626e-05
5.26168e-08
1.0313e-05
6.82843e-08
1.02786e-05
7.40999e-08
1.02795e-05
7.19187e-08
1.03187e-05
7.46275e-08
1.03822e-05
9.12986e-08
1.04484e-05
1.21881e-07
1.0499e-05
1.5933e-07
1.05252e-05
1.9566e-07
1.05283e-05
2.24468e-07
1.05162e-05
2.4374e-07
1.04981e-05
2.5396e-07
2.57066e-07
1.04821e-05
1.25713e-05
-7.30492e-08
1.2722e-05
-6.45545e-08
1.27293e-05
9.14994e-08
1.26469e-05
1.50525e-07
1.25376e-05
1.56211e-07
1.24426e-05
1.47649e-07
1.23912e-05
1.19717e-07
1.23905e-05
7.47918e-08
1.2435e-05
2.73453e-08
1.25118e-05
-2.15519e-09
1.26032e-05
-5.72016e-11
1.26893e-05
3.57715e-08
1.27578e-05
9.0796e-08
1.28037e-05
1.49773e-07
1.28296e-05
1.98546e-07
1.28419e-05
2.31455e-07
1.2848e-05
2.47888e-07
2.52729e-07
1.28523e-05
1.51945e-05
-5.36412e-08
1.5131e-05
-1.02289e-09
1.51299e-05
9.25726e-08
1.5217e-05
6.34438e-08
1.53456e-05
2.76524e-08
1.54657e-05
2.75531e-08
1.55309e-05
5.44427e-08
1.55199e-05
8.58681e-08
1.54414e-05
1.05812e-07
1.53279e-05
1.11291e-07
1.52182e-05
1.09708e-07
1.51434e-05
1.10508e-07
1.51166e-05
1.17598e-07
1.51365e-05
1.29933e-07
1.51913e-05
1.43736e-07
1.52661e-05
1.56619e-07
1.53477e-05
1.66304e-07
1.74727e-07
1.54257e-05
1.89863e-05
-2.92173e-07
1.89846e-05
6.66588e-10
1.90054e-05
7.17303e-08
1.90705e-05
-1.62445e-09
1.91322e-05
-3.40584e-08
1.91648e-05
-5.03166e-09
1.91414e-05
7.78269e-08
1.9073e-05
1.54289e-07
1.89753e-05
2.03484e-07
1.8866e-05
2.2061e-07
1.87663e-05
2.09347e-07
1.86995e-05
1.77367e-07
1.86811e-05
1.3599e-07
1.87143e-05
9.67117e-08
1.87892e-05
6.88566e-08
1.88891e-05
5.67183e-08
1.89959e-05
5.95282e-08
7.59104e-08
1.90947e-05
2.30323e-05
-1.74228e-07
2.30895e-05
-5.64916e-08
2.31255e-05
3.56675e-08
2.31251e-05
-1.20703e-09
2.30704e-05
2.06543e-08
2.29772e-05
8.81601e-08
2.29063e-05
1.48756e-07
2.28895e-05
1.71103e-07
2.293e-05
1.62902e-07
2.30087e-05
1.41974e-07
2.3098e-05
1.20039e-07
2.31735e-05
1.01821e-07
2.32205e-05
8.90239e-08
2.32351e-05
8.20914e-08
2.3224e-05
8.0007e-08
2.31989e-05
8.18208e-08
2.3173e-05
8.53733e-08
8.97666e-08
2.31592e-05
1.6768e-05
-2.4855e-07
1.68392e-05
-1.27703e-07
1.69208e-05
-4.59847e-08
1.69113e-05
8.29279e-09
1.6827e-05
1.05024e-07
1.67518e-05
1.63346e-07
1.67452e-05
1.55326e-07
1.6807e-05
1.09372e-07
1.69023e-05
6.75339e-08
1.69937e-05
5.05607e-08
1.70578e-05
5.59433e-08
1.70885e-05
7.11833e-08
1.70924e-05
8.50924e-08
1.70835e-05
9.09929e-08
1.70772e-05
8.63521e-08
1.70848e-05
7.41388e-08
1.71131e-05
5.71002e-08
4.13337e-08
1.71615e-05
1.41106e-05
-2.36221e-07
1.41752e-05
-1.92321e-07
1.43089e-05
-1.79717e-07
1.43691e-05
-5.19141e-08
1.43961e-05
7.80426e-08
1.44203e-05
1.39167e-07
1.44498e-05
1.2583e-07
1.44809e-05
7.82458e-08
1.45137e-05
3.47753e-08
1.45535e-05
1.074e-08
1.46055e-05
3.94383e-09
1.46707e-05
5.92661e-09
1.4745e-05
1.07974e-08
1.48221e-05
1.3898e-08
1.48958e-05
1.26916e-08
1.49615e-05
8.46993e-09
1.50166e-05
1.96818e-09
-3.27074e-09
1.50612e-05
1.27771e-05
-5.31236e-08
1.2735e-05
-1.50207e-07
1.27326e-05
-1.77264e-07
1.27843e-05
-1.03606e-07
1.28639e-05
-1.57421e-09
1.29261e-05
7.69272e-08
1.295e-05
1.0193e-07
1.29409e-05
8.73213e-08
1.29167e-05
5.90056e-08
1.28953e-05
3.21209e-08
1.28877e-05
1.15681e-08
1.28947e-05
-1.10206e-09
1.29113e-05
-5.76576e-09
1.29312e-05
-6.00287e-09
1.29494e-05
-5.4958e-09
1.29645e-05
-6.60983e-09
1.29781e-05
-1.16278e-08
-1.93392e-08
1.29941e-05
1.08308e-05
-6.53848e-08
1.07544e-05
-7.37399e-08
1.07452e-05
-1.6813e-07
1.08296e-05
-1.87994e-07
1.09676e-05
-1.39536e-07
1.11129e-05
-6.84134e-08
1.12206e-05
-5.73137e-09
1.12761e-05
3.18345e-08
1.12899e-05
4.52213e-08
1.12834e-05
3.85237e-08
1.12749e-05
2.01507e-08
1.12757e-05
-1.95499e-09
1.12909e-05
-2.09621e-08
1.13173e-05
-3.23472e-08
1.13488e-05
-3.70541e-08
1.13797e-05
-3.74582e-08
1.14041e-05
-3.60577e-08
-3.47323e-08
1.14195e-05
1.00288e-05
5.59011e-08
9.99855e-06
-4.35387e-08
9.94849e-06
-1.18064e-07
9.86754e-06
-1.07045e-07
9.81031e-06
-8.2307e-08
9.79996e-06
-5.80684e-08
9.81373e-06
-1.95005e-08
9.81876e-06
2.68065e-08
9.80622e-06
5.77598e-08
9.78757e-06
5.71703e-08
9.77892e-06
2.88092e-08
9.78749e-06
-1.0524e-08
9.81237e-06
-4.58453e-08
9.84819e-06
-6.8165e-08
9.8864e-06
-7.52721e-08
9.91912e-06
-7.01708e-08
9.94014e-06
-5.70792e-08
-4.08645e-08
9.94627e-06
8.39207e-06
9.319e-08
8.41656e-06
-6.80262e-08
8.41324e-06
-1.14751e-07
8.43986e-06
-1.33658e-07
8.47662e-06
-1.19069e-07
8.48884e-06
-7.0288e-08
8.47635e-06
-7.01429e-09
8.46002e-06
4.31354e-08
8.4587e-06
5.90849e-08
8.4723e-06
4.35646e-08
8.48941e-06
1.17011e-08
8.50169e-06
-2.28036e-08
8.50486e-06
-4.90136e-08
8.50076e-06
-6.40658e-08
8.49395e-06
-6.84584e-08
8.48871e-06
-6.49297e-08
8.48812e-06
-5.64966e-08
-4.61043e-08
8.49336e-06
7.41584e-06
-3.59619e-08
7.4211e-06
-7.32873e-08
7.41997e-06
-1.13622e-07
7.41504e-06
-1.28731e-07
7.39555e-06
-9.95763e-08
7.37081e-06
-4.5548e-08
7.36084e-06
2.95332e-09
7.38093e-06
2.30446e-08
7.42507e-06
1.49519e-08
7.47572e-06
-7.08577e-09
7.51605e-06
-2.86376e-08
7.53734e-06
-4.40868e-08
7.54068e-06
-5.23525e-08
7.53139e-06
-5.47829e-08
7.51537e-06
-5.24319e-08
7.49731e-06
-4.68703e-08
7.47995e-06
-3.91429e-08
-3.10411e-08
7.46489e-06
6.45377e-06
-3.92946e-08
6.43874e-06
-5.82512e-08
6.41582e-06
-9.07055e-08
6.40011e-06
-1.13025e-07
6.40607e-06
-1.05535e-07
6.43048e-06
-6.99583e-08
6.46464e-06
-3.12024e-08
6.50039e-06
-1.27093e-08
6.53084e-06
-1.54911e-08
6.55206e-06
-2.83049e-08
6.56509e-06
-4.16736e-08
6.57339e-06
-5.2385e-08
6.58018e-06
-5.91394e-08
6.58644e-06
-6.10509e-08
6.59124e-06
-5.72304e-08
6.59322e-06
-4.88456e-08
6.5907e-06
-3.66233e-08
-2.3801e-08
6.58346e-06
5.54042e-06
-2.61637e-08
5.58851e-06
-1.06336e-07
5.60509e-06
-1.07291e-07
5.59537e-06
-1.03308e-07
5.59151e-06
-1.01667e-07
5.61277e-06
-9.12215e-08
5.65583e-06
-7.42635e-08
5.70343e-06
-6.03048e-08
5.74034e-06
-5.24031e-08
5.76195e-06
-4.99168e-08
5.77194e-06
-5.16647e-08
5.77487e-06
-5.53126e-08
5.77295e-06
-5.7222e-08
5.76614e-06
-5.42421e-08
5.75451e-06
-4.55988e-08
5.73947e-06
-3.3809e-08
5.7241e-06
-2.12506e-08
-1.18497e-08
5.71215e-06
4.92054e-06
-4.72713e-08
4.96071e-06
-1.46498e-07
4.96779e-06
-1.14374e-07
4.93653e-06
-7.20513e-08
4.88718e-06
-5.23151e-08
4.85243e-06
-5.647e-08
4.8439e-06
-6.5738e-08
4.85153e-06
-6.79302e-08
4.86223e-06
-6.31013e-08
4.86932e-06
-5.70113e-08
4.87159e-06
-5.39349e-08
4.87029e-06
-5.40149e-08
4.86755e-06
-5.44736e-08
4.86593e-06
-5.26287e-08
4.86795e-06
-4.76149e-08
4.87493e-06
-4.07922e-08
4.88731e-06
-3.36324e-08
-2.81961e-08
4.90366e-06
4.28751e-06
4.14101e-06
4.02663e-06
3.95458e-06
3.90227e-06
3.8458e-06
3.78006e-06
3.71213e-06
3.64903e-06
3.59202e-06
3.53808e-06
3.48407e-06
3.42959e-06
3.37696e-06
3.32935e-06
3.28856e-06
3.25492e-06
3.22673e-06
-3.48949e-07
3.48949e-07
-6.96592e-07
3.47643e-07
-9.74589e-07
2.77997e-07
-1.16749e-06
1.92897e-07
-1.26097e-06
9.34857e-08
-1.25075e-06
-1.02191e-08
-1.15268e-06
-9.80764e-08
-9.71677e-07
-1.81e-07
-7.14529e-07
-2.57148e-07
-3.96763e-07
-3.17766e-07
-5.73208e-08
-3.39442e-07
2.38107e-07
-2.95428e-07
4.14671e-07
-1.76564e-07
4.20757e-07
-6.08586e-09
2.77506e-07
1.43252e-07
4.88479e-08
2.28658e-07
-1.93702e-07
2.4255e-07
-4.08247e-07
2.14545e-07
-5.89384e-07
1.81137e-07
-7.519e-07
1.62516e-07
-9.12515e-07
1.60614e-07
-1.0804e-06
1.67881e-07
-1.25837e-06
1.77971e-07
-1.44728e-06
1.88913e-07
-1.64816e-06
2.00877e-07
-1.86225e-06
2.14093e-07
-2.0905e-06
2.28253e-07
-2.33291e-06
2.42409e-07
-2.58833e-06
2.55423e-07
-2.85486e-06
2.66527e-07
-3.13106e-06
2.76194e-07
-3.41798e-06
2.86927e-07
-3.72146e-06
3.03474e-07
-4.04983e-06
3.28373e-07
-4.40032e-06
3.50494e-07
-4.73687e-06
3.36542e-07
-4.98957e-06
2.52703e-07
-5.1075e-06
1.1793e-07
-5.11606e-06
8.56585e-09
-5.10276e-06
-1.33033e-08
-5.111e-06
8.23767e-09
-5.11986e-06
8.85899e-09
-5.075e-06
-4.48527e-08
-4.9492e-06
-1.25805e-07
-4.75125e-06
-1.9795e-07
-4.49774e-06
-2.5351e-07
-4.19199e-06
-3.05752e-07
-3.83852e-06
-3.53469e-07
-3.45915e-06
-3.79372e-07
-3.04831e-06
-4.10834e-07
-2.60976e-06
-4.38558e-07
-2.14089e-06
-4.68864e-07
-1.64386e-06
-4.97035e-07
-1.12246e-06
-5.21398e-07
-5.83288e-07
-5.3917e-07
-4.24271e-08
-5.40861e-07
4.83298e-07
-5.25725e-07
9.77257e-07
-4.93959e-07
1.42325e-06
-4.45993e-07
1.81528e-06
-3.9203e-07
2.16742e-06
-3.52135e-07
2.49884e-06
-3.31421e-07
2.81021e-06
-3.11376e-07
3.09063e-06
-2.8042e-07
3.3392e-06
-2.48568e-07
3.56007e-06
-2.20873e-07
3.75535e-06
-1.95274e-07
3.91174e-06
-1.56394e-07
3.99267e-06
-8.09257e-08
3.95132e-06
4.13487e-08
3.74644e-06
2.04876e-07
3.41036e-06
3.36082e-07
2.95732e-06
4.53041e-07
2.24541e-06
7.11906e-07
1.38235e-06
8.63066e-07
1.00368e-06
3.78665e-07
1.34753e-06
-3.43848e-07
1.78307e-06
-4.35542e-07
1.79541e-06
-1.23388e-08
1.33632e-06
4.59089e-07
6.20859e-07
7.15464e-07
-7.21786e-08
6.93037e-07
-6.47409e-07
5.75231e-07
-1.11171e-06
4.64302e-07
-1.48202e-06
3.70308e-07
-1.77881e-06
2.96792e-07
-2.02271e-06
2.43895e-07
-2.23195e-06
2.0924e-07
-2.42187e-06
1.89921e-07
-2.60476e-06
1.82892e-07
-2.79261e-06
1.87852e-07
-2.99481e-06
2.02195e-07
-3.21893e-06
2.24124e-07
-3.47108e-06
2.52148e-07
-3.75583e-06
2.84748e-07
-4.07624e-06
3.20415e-07
-4.4339e-06
3.57659e-07
-4.82891e-06
3.95014e-07
-5.25982e-06
4.30905e-07
-5.72315e-06
4.63329e-07
-6.21345e-06
4.90304e-07
-6.72342e-06
5.09966e-07
-7.24372e-06
5.20301e-07
-7.76299e-06
5.19269e-07
-8.26792e-06
5.0493e-07
-8.74356e-06
4.75646e-07
-9.17396e-06
4.30393e-07
-9.54301e-06
3.69052e-07
-9.83558e-06
2.92575e-07
-1.00389e-05
2.03319e-07
-1.01442e-05
1.05344e-07
-1.01465e-05
2.22544e-09
-1.00471e-05
-9.93997e-08
-9.84923e-06
-1.97844e-07
-9.5577e-06
-2.91528e-07
-9.17903e-06
-3.78673e-07
-8.7216e-06
-4.57428e-07
-8.19515e-06
-5.26452e-07
-7.61037e-06
-5.84779e-07
-6.9784e-06
-6.31969e-07
-6.31036e-06
-6.68041e-07
-5.61698e-06
-6.93381e-07
-4.90841e-06
-7.08567e-07
-4.19413e-06
-7.14279e-07
-3.48272e-06
-7.11415e-07
-2.78187e-06
-7.00842e-07
-2.09861e-06
-6.83266e-07
-1.43948e-06
-6.59129e-07
-8.09512e-07
-6.29968e-07
-2.15786e-07
-5.93726e-07
3.43686e-07
-5.59472e-07
8.61903e-07
-5.18217e-07
1.33673e-06
-4.74822e-07
1.76631e-06
-4.2959e-07
2.1492e-06
-3.82884e-07
2.48447e-06
-3.35275e-07
2.77261e-06
-2.88136e-07
3.01664e-06
-2.44034e-07
3.22244e-06
-2.05795e-07
3.3954e-06
-1.72962e-07
3.53237e-06
-1.36968e-07
3.61617e-06
-8.38046e-08
3.62725e-06
-1.10723e-08
3.56559e-06
6.16503e-08
3.4533e-06
1.12299e-07
3.32031e-06
1.32983e-07
3.19102e-06
1.29295e-07
3.07918e-06
1.11836e-07
2.98602e-06
9.31666e-08
2.90699e-06
7.90297e-08
2.83637e-06
7.06141e-08
2.77013e-06
6.62395e-08
2.70638e-06
6.37479e-08
2.64647e-06
5.9916e-08
2.59407e-06
5.23953e-08
2.5531e-06
4.09726e-08
2.52604e-06
2.70552e-08
2.51355e-06
1.24898e-08
2.51396e-06
-4.03784e-10
2.524e-06
-1.00381e-08
2.54116e-06
-1.71656e-08
2.5632e-06
-2.20334e-08
2.58478e-06
-2.15832e-08
2.60075e-06
-1.59736e-08
2.61645e-06
-1.5696e-08
2.64227e-06
-2.58173e-08
2.66886e-06
-2.65893e-08
2.67769e-06
-8.83909e-09
2.67585e-06
1.83982e-09
2.67164e-06
4.21435e-09
2.63924e-06
3.24041e-08
2.57518e-06
6.40545e-08
2.53295e-06
4.22281e-08
2.56761e-06
-3.46561e-08
2.62178e-06
-5.4168e-08
2.73692e-06
-1.15142e-07
2.95567e-06
-2.18747e-07
3.18218e-06
-2.26513e-07
3.26473e-06
-8.25527e-08
-1.26773e-07
3.39151e-06
-3.07485e-08
3.79697e-07
-1.016e-07
4.18495e-07
-1.78062e-07
3.54459e-07
-2.3108e-07
2.45915e-07
-2.48127e-07
1.10532e-07
-2.30465e-07
-2.78807e-08
-1.75686e-07
-1.52856e-07
-1.00349e-07
-2.56337e-07
-1.55475e-08
-3.4195e-07
1.0635e-07
-4.39663e-07
2.82005e-07
-5.15097e-07
4.86117e-07
-4.9954e-07
6.54445e-07
-3.44892e-07
7.30016e-07
-8.16573e-08
6.9505e-07
1.78218e-07
5.59032e-07
3.64676e-07
3.57876e-07
4.43706e-07
1.22613e-07
4.49809e-07
-1.31132e-07
4.34882e-07
-3.90872e-07
4.22256e-07
-6.44779e-07
4.14521e-07
-8.89984e-07
4.13086e-07
-1.13206e-06
4.20052e-07
-1.37869e-06
4.35534e-07
-1.63496e-06
4.57149e-07
-1.90277e-06
4.81906e-07
-2.18125e-06
5.06729e-07
-2.4662e-06
5.27365e-07
-2.75162e-06
5.40839e-07
-3.03075e-06
5.45659e-07
-3.29613e-06
5.41571e-07
-3.53831e-06
5.29109e-07
-3.7436e-06
5.0876e-07
-3.89409e-06
4.78861e-07
-3.97627e-06
4.32678e-07
-3.99899e-06
3.59265e-07
-4.00204e-06
2.55753e-07
-4.02666e-06
1.4255e-07
-4.06959e-06
5.14948e-08
-4.07215e-06
-1.07468e-08
-3.99233e-06
-7.15805e-08
-3.84194e-06
-1.41533e-07
-3.65429e-06
-2.32503e-07
-3.44839e-06
-3.31697e-07
-3.22749e-06
-4.18851e-07
-2.99036e-06
-4.90648e-07
-2.73345e-06
-5.62656e-07
-2.45147e-06
-6.3545e-07
-2.14346e-06
-6.87382e-07
-1.80592e-06
-7.48379e-07
-1.44328e-06
-8.01195e-07
-1.05063e-06
-8.61518e-07
-6.20996e-07
-9.26665e-07
-1.48582e-07
-9.93812e-07
3.67014e-07
-1.05477e-06
9.12757e-07
-1.0866e-06
1.46157e-06
-1.07454e-06
1.99261e-06
-1.02499e-06
2.48695e-06
-9.40335e-07
2.93359e-06
-8.38669e-07
3.33792e-06
-7.56468e-07
3.71333e-06
-7.06827e-07
4.06729e-06
-6.65341e-07
4.39302e-06
-6.06147e-07
4.67675e-06
-5.32299e-07
4.9206e-06
-4.64718e-07
5.12185e-06
-3.96524e-07
5.23986e-06
-2.74412e-07
5.25392e-06
-9.49798e-08
5.20509e-06
9.01777e-08
4.95967e-06
4.50291e-07
4.39304e-06
9.02714e-07
3.84428e-06
1.0018e-06
3.34717e-06
1.20902e-06
2.66338e-06
1.54686e-06
2.26241e-06
7.79633e-07
2.07485e-06
-1.56292e-07
1.50451e-06
1.34803e-07
5.78806e-07
9.13362e-07
-3.31362e-07
1.36926e-06
-1.02499e-06
1.40909e-06
-1.56339e-06
1.23144e-06
-1.99814e-06
1.00998e-06
-2.34353e-06
8.09697e-07
-2.62055e-06
6.47325e-07
-2.84916e-06
5.25396e-07
-3.04621e-06
4.40945e-07
-3.22559e-06
3.88626e-07
-3.39879e-06
3.6312e-07
-3.57571e-06
3.59807e-07
-3.76279e-06
3.7494e-07
-3.96613e-06
4.05529e-07
-4.19111e-06
4.49103e-07
-4.44139e-06
5.02428e-07
-4.7193e-06
5.6266e-07
-5.02597e-06
6.27088e-07
-5.36133e-06
6.93017e-07
-5.72407e-06
7.57753e-07
-6.11166e-06
8.18494e-07
-6.52054e-06
8.7221e-07
-6.94602e-06
9.15779e-07
-7.3821e-06
9.46049e-07
-7.8215e-06
9.59706e-07
-8.25552e-06
9.53288e-07
-8.67398e-06
9.23391e-07
-9.06538e-06
8.67036e-07
-9.41718e-06
7.82199e-07
-9.7165e-06
6.68372e-07
-9.95111e-06
5.27186e-07
-1.01106e-05
3.62781e-07
-1.01864e-05
1.81137e-07
-1.01726e-05
-1.15049e-08
-1.00602e-05
-2.11809e-07
-9.84885e-06
-4.09218e-07
-9.54235e-06
-5.98027e-07
-9.14742e-06
-7.73602e-07
-8.67258e-06
-9.32271e-07
-8.12783e-06
-1.07121e-06
-7.52397e-06
-1.18863e-06
-6.87223e-06
-1.28371e-06
-6.18374e-06
-1.35654e-06
-5.46926e-06
-1.40786e-06
-4.73886e-06
-1.43896e-06
-4.00177e-06
-1.45137e-06
-3.26651e-06
-1.44667e-06
-2.54057e-06
-1.42679e-06
-1.831e-06
-1.39283e-06
-1.14398e-06
-1.34614e-06
-4.84737e-07
-1.28921e-06
1.41477e-07
-1.21994e-06
7.29343e-07
-1.14734e-06
1.27627e-06
-1.06514e-06
1.7788e-06
-9.77357e-07
2.23438e-06
-8.85161e-07
2.64129e-06
-7.89797e-07
2.9992e-06
-6.9319e-07
3.30946e-06
-5.98396e-07
3.57468e-06
-5.09245e-07
3.79753e-06
-4.28646e-07
3.98108e-06
-3.56515e-07
4.13318e-06
-2.89069e-07
4.2703e-06
-2.20926e-07
4.40837e-06
-1.49141e-07
4.54616e-06
-7.61337e-08
4.66622e-06
-7.7661e-09
4.75108e-06
4.81193e-08
4.78e-06
1.00384e-07
4.73445e-06
1.57378e-07
4.61645e-06
2.11171e-07
4.44916e-06
2.46318e-07
4.26618e-06
2.53592e-07
4.09282e-06
2.39599e-07
3.93805e-06
2.18518e-07
3.80253e-06
1.95442e-07
3.68727e-06
1.67655e-07
3.59509e-06
1.33151e-07
3.52768e-06
9.44622e-08
3.48352e-06
5.66541e-08
3.45904e-06
2.40741e-08
3.45112e-06
-2.121e-09
3.45704e-06
-2.30893e-08
3.47174e-06
-3.6727e-08
3.48887e-06
-3.8713e-08
3.50979e-06
-3.6898e-08
3.54692e-06
-5.28234e-08
3.60584e-06
-8.47338e-08
3.67408e-06
-9.48367e-08
3.73431e-06
-6.90601e-08
3.75061e-06
-1.44607e-08
3.69714e-06
5.7681e-08
3.59033e-06
1.39214e-07
3.46996e-06
1.84425e-07
3.34309e-06
1.691e-07
3.26588e-06
4.25521e-08
3.30663e-06
-9.49195e-08
3.41996e-06
-2.28473e-07
3.57862e-06
-3.77401e-07
3.77513e-06
-4.23023e-07
3.97641e-06
-2.83833e-07
-2.61212e-07
4.11085e-06
3.81597e-07
-1.89932e-09
7.77745e-07
2.23466e-08
1.09531e-06
3.68956e-08
1.30973e-06
3.14905e-08
1.45003e-06
-2.97681e-08
1.53763e-06
-1.15478e-07
1.5859e-06
-2.01129e-07
1.61427e-06
-2.84702e-07
1.59569e-06
-3.23368e-07
1.53711e-06
-3.81084e-07
1.45516e-06
-4.33147e-07
1.34543e-06
-3.89807e-07
1.24373e-06
-2.43192e-07
1.1221e-06
3.99672e-08
9.25396e-07
3.74923e-07
6.70044e-07
6.20029e-07
3.7842e-07
7.3533e-07
7.15619e-08
7.56666e-07
-2.22566e-07
7.2901e-07
-4.86339e-07
6.86029e-07
-7.24667e-07
6.52849e-07
-9.59041e-07
6.47459e-07
-1.21284e-06
6.73849e-07
-1.49746e-06
7.20157e-07
-1.81239e-06
7.72082e-07
-2.14856e-06
8.18076e-07
-2.49264e-06
8.50802e-07
-2.83162e-06
8.66351e-07
-3.15444e-06
8.63658e-07
-3.45233e-06
8.43553e-07
-3.71835e-06
8.0759e-07
-3.94639e-06
7.57145e-07
-4.13031e-06
6.92676e-07
-4.26442e-06
6.12975e-07
-4.34669e-06
5.14949e-07
-4.38346e-06
3.96033e-07
-4.3887e-06
2.60996e-07
-4.37096e-06
1.24811e-07
-4.31513e-06
-4.34204e-09
-4.22421e-06
-1.01663e-07
-4.09986e-06
-1.95933e-07
-3.94449e-06
-2.969e-07
-3.77223e-06
-4.04766e-07
-3.59138e-06
-5.12539e-07
-3.39848e-06
-6.1176e-07
-3.1888e-06
-7.00323e-07
-2.9664e-06
-7.85056e-07
-2.73515e-06
-8.66703e-07
-2.48249e-06
-9.40038e-07
-2.21291e-06
-1.01796e-06
-1.91491e-06
-1.0992e-06
-1.58739e-06
-1.18903e-06
-1.2204e-06
-1.29366e-06
-8.00312e-07
-1.4139e-06
-3.24565e-07
-1.53051e-06
1.9943e-07
-1.6106e-06
7.43258e-07
-1.61837e-06
1.26938e-06
-1.55112e-06
1.75775e-06
-1.4287e-06
2.20855e-06
-1.28947e-06
2.64267e-06
-1.19059e-06
3.06426e-06
-1.12842e-06
3.46826e-06
-1.06933e-06
3.85765e-06
-9.95544e-07
4.22581e-06
-9.00461e-07
4.56531e-06
-8.04209e-07
4.87919e-06
-7.10411e-07
5.14246e-06
-5.3768e-07
5.31446e-06
-2.66974e-07
5.38054e-06
2.40965e-08
5.29757e-06
5.33255e-07
4.97063e-06
1.22966e-06
4.39871e-06
1.57372e-06
3.59495e-06
2.01279e-06
2.99014e-06
2.15166e-06
2.66842e-06
1.10135e-06
1.83611e-06
6.7602e-07
5.58058e-07
1.41286e-06
-5.14205e-07
1.98562e-06
-1.18221e-06
2.03726e-06
-1.58679e-06
1.81367e-06
-1.86603e-06
1.51067e-06
-2.0796e-06
1.22355e-06
-2.25376e-06
9.83858e-07
-2.40492e-06
7.9849e-07
-2.54451e-06
6.64983e-07
-2.68019e-06
5.76623e-07
-2.81822e-06
5.26655e-07
-2.96416e-06
5.09059e-07
-3.1231e-06
5.1875e-07
-3.29928e-06
5.51124e-07
-3.49619e-06
6.02431e-07
-3.71648e-06
6.69395e-07
-3.96277e-06
7.48719e-07
-4.23714e-06
8.37027e-07
-4.54097e-06
9.30919e-07
-4.87494e-06
1.02699e-06
-5.23898e-06
1.12179e-06
-5.63213e-06
1.21165e-06
-6.05254e-06
1.29261e-06
-6.4972e-06
1.36044e-06
-6.96163e-06
1.41048e-06
-7.43939e-06
1.43746e-06
-7.92167e-06
1.43557e-06
-8.39701e-06
1.39873e-06
-8.85122e-06
1.32125e-06
-9.26791e-06
1.19889e-06
-9.62957e-06
1.03002e-06
-9.91895e-06
8.16568e-07
-1.01212e-05
5.65011e-07
-1.02256e-05
2.85576e-07
-1.0227e-05
-1.01042e-08
-1.0119e-05
-3.19803e-07
-9.90695e-06
-6.21287e-07
-9.59587e-06
-9.09112e-07
-9.19328e-06
-1.17619e-06
-8.70871e-06
-1.41684e-06
-8.15302e-06
-1.62689e-06
-7.53786e-06
-1.80379e-06
-6.87506e-06
-1.94651e-06
-6.17626e-06
-2.05534e-06
-5.45246e-06
-2.13166e-06
-4.71361e-06
-2.17782e-06
-3.96838e-06
-2.19659e-06
-3.22419e-06
-2.19087e-06
-2.48784e-06
-2.16314e-06
-1.76488e-06
-2.11578e-06
-1.06171e-06
-2.04931e-06
-3.83539e-07
-1.96739e-06
2.65741e-07
-1.86922e-06
8.7826e-07
-1.75986e-06
1.45158e-06
-1.63846e-06
1.98165e-06
-1.50742e-06
2.46422e-06
-1.36773e-06
2.89473e-06
-1.22031e-06
3.2692e-06
-1.06766e-06
3.58568e-06
-9.1488e-07
3.8457e-06
-7.69261e-07
4.0547e-06
-6.37642e-07
4.22137e-06
-5.23189e-07
4.35667e-06
-4.24366e-07
4.47289e-06
-3.37148e-07
4.5816e-06
-2.57855e-07
4.69171e-06
-1.86239e-07
4.80834e-06
-1.24403e-07
4.92674e-06
-7.028e-08
5.0393e-06
-1.21734e-08
5.13054e-06
6.61382e-08
5.17869e-06
1.63021e-07
5.15938e-06
2.65629e-07
5.06166e-06
3.51311e-07
4.89909e-06
4.02171e-07
4.70511e-06
4.12501e-07
4.51386e-06
3.8669e-07
4.34675e-06
3.34764e-07
4.2116e-06
2.68301e-07
4.10807e-06
1.97994e-07
4.03192e-06
1.32805e-07
3.97783e-06
7.8164e-08
3.94195e-06
3.37609e-08
3.92021e-06
-1.34731e-09
3.90475e-06
-2.1268e-08
3.88759e-06
-2.15554e-08
3.8692e-06
-1.85111e-08
3.8608e-06
-4.44166e-08
3.87849e-06
-1.02433e-07
3.92407e-06
-1.40412e-07
3.97005e-06
-1.15036e-07
3.9768e-06
-2.12131e-08
3.92045e-06
1.14031e-07
3.81065e-06
2.49013e-07
3.67879e-06
3.16288e-07
3.57976e-06
2.68129e-07
3.55188e-06
7.04306e-08
3.62829e-06
-1.71327e-07
3.77554e-06
-3.75728e-07
3.95088e-06
-5.52738e-07
4.11347e-06
-5.85618e-07
4.28492e-06
-4.55286e-07
-3.8534e-07
4.40905e-06
3.67928e-07
-3.69827e-07
9.59433e-07
-5.69159e-07
1.50948e-06
-5.13146e-07
1.93161e-06
-3.90643e-07
2.25601e-06
-3.54174e-07
2.45983e-06
-3.19298e-07
2.54632e-06
-2.87615e-07
2.5776e-06
-3.15977e-07
2.546e-06
-2.91768e-07
2.47201e-06
-3.07097e-07
2.37212e-06
-3.3326e-07
2.11364e-06
-1.31326e-07
1.66942e-06
2.01026e-07
1.17423e-06
5.35162e-07
7.13953e-07
8.35198e-07
3.16313e-07
1.01767e-06
-8.79601e-09
1.06044e-06
-2.5919e-07
1.00706e-06
-4.5695e-07
9.2677e-07
-6.62541e-07
8.9162e-07
-9.28458e-07
9.18766e-07
-1.27126e-06
9.90262e-07
-1.67699e-06
1.07958e-06
-2.12035e-06
1.16352e-06
-2.57546e-06
1.22719e-06
-3.02121e-06
1.26382e-06
-3.44259e-06
1.27219e-06
-3.82998e-06
1.25374e-06
-4.17721e-06
1.21089e-06
-4.47998e-06
1.14632e-06
-4.73497e-06
1.06258e-06
-4.93969e-06
9.61866e-07
-5.09283e-06
8.45809e-07
-5.19603e-06
7.16176e-07
-5.25536e-06
5.74283e-07
-5.28117e-06
4.2184e-07
-5.28212e-06
2.61952e-07
-5.25664e-06
9.9327e-08
-5.20333e-06
-5.76496e-08
-5.0957e-06
-2.09293e-07
-4.9397e-06
-3.51937e-07
-4.75037e-06
-4.86235e-07
-4.54119e-06
-6.13937e-07
-4.31798e-06
-7.35749e-07
-4.08156e-06
-8.48184e-07
-3.83078e-06
-9.51102e-07
-3.56782e-06
-1.04801e-06
-3.29578e-06
-1.13875e-06
-3.0093e-06
-1.22651e-06
-2.71333e-06
-1.31393e-06
-2.40637e-06
-1.40616e-06
-2.08629e-06
-1.50911e-06
-1.74987e-06
-1.63008e-06
-1.39372e-06
-1.77004e-06
-1.01087e-06
-1.91336e-06
-5.93797e-07
-2.02768e-06
-1.45838e-07
-2.06633e-06
3.0395e-07
-2.00091e-06
7.13723e-07
-1.83848e-06
1.0944e-06
-1.67014e-06
1.49836e-06
-1.59455e-06
1.92854e-06
-1.5586e-06
2.34174e-06
-1.48253e-06
2.75087e-06
-1.40468e-06
3.17536e-06
-1.32494e-06
3.60831e-06
-1.23716e-06
4.03311e-06
-1.13521e-06
4.42933e-06
-9.33904e-07
4.7394e-06
-5.77039e-07
4.86812e-06
-1.04628e-07
4.81292e-06
5.88461e-07
4.65213e-06
1.39045e-06
4.16287e-06
2.06297e-06
3.52434e-06
2.65132e-06
3.22487e-06
2.45113e-06
2.49525e-06
1.83097e-06
1.04516e-06
2.12611e-06
-2.39313e-07
2.69733e-06
-9.63888e-07
2.7102e-06
-1.32072e-06
2.39409e-06
-1.49753e-06
1.99048e-06
-1.59934e-06
1.61249e-06
-1.67371e-06
1.29792e-06
-1.74298e-06
1.05314e-06
-1.81856e-06
8.7407e-07
-1.90567e-06
7.52084e-07
-2.00662e-06
6.77582e-07
-2.12351e-06
6.43539e-07
-2.25878e-06
6.44328e-07
-2.41546e-06
6.75432e-07
-2.59665e-06
7.32313e-07
-2.80465e-06
8.10435e-07
-3.04154e-06
9.06282e-07
-3.30959e-06
1.01677e-06
-3.61088e-06
1.13831e-06
-3.94704e-06
1.26708e-06
-4.31911e-06
1.39906e-06
-4.7274e-06
1.53008e-06
-5.17136e-06
1.6556e-06
-5.64926e-06
1.77052e-06
-6.1578e-06
1.86899e-06
-6.6916e-06
1.94428e-06
-7.24269e-06
1.98855e-06
-7.80008e-06
1.99296e-06
-8.34963e-06
1.94828e-06
-8.87418e-06
1.84579e-06
-9.35414e-06
1.67885e-06
-9.76893e-06
1.44482e-06
-1.0099e-05
1.14664e-06
-1.03282e-05
7.94232e-07
-1.04459e-05
4.03304e-07
-1.04454e-05
-1.06799e-08
-1.03303e-05
-4.34865e-07
-1.01038e-05
-8.47763e-07
-9.7736e-06
-1.23934e-06
-9.34937e-06
-1.60042e-06
-8.8422e-06
-1.92402e-06
-8.26399e-06
-2.2051e-06
-7.62719e-06
-2.4406e-06
-6.94442e-06
-2.62928e-06
-6.22806e-06
-2.7717e-06
-5.48969e-06
-2.87003e-06
-4.73972e-06
-2.92779e-06
-3.98718e-06
-2.94913e-06
-3.23967e-06
-2.93838e-06
-2.50266e-06
-2.90015e-06