/*--------------------------------*- C++ -*----------------------------------*\
  =========                 |
  \\      /  F ield         | OpenFOAM: The Open Source CFD Toolbox
   \\    /   O peration     | Website:  https://openfoam.org
    \\  /    A nd           | Version:  9
     \\/     M anipulation  |
\*---------------------------------------------------------------------------*/
FoamFile
{
    format      ascii;
    class       volScalarField;
    location    "0.08";
    object      s_0;
}
// * * * * * * * * * * * * * * * * * * * * * * * * * * * * * * * * * * * * * //

dimensions      [0 0 0 0 0 0 0];

internalField   nonuniform List<scalar> 
12225
(
1
1
1
1
1
1
1
1
1
1
1
1
1
1
1
1
1
0.99998
1
1
1
1
1
1
1
1
1
1
1
1
1
1
1
1
1
0.999999
1
1
1
1
1
1
1
1
1
1
1
1
1
1
1
1
1
1
1
1
1
1
1
1
1
1
1
1
1
1
1
1
1
1
1
1
1
1
1
1
1
1
1
1
1
1
1
1
1
1
1
1
1
1
1
1
1
1
1
1
1
1
1
1
1
1
1
1
1
1
1
1
1
1
1
1
1
1
1
1
1
1
1
1
1
1
1
1
1
1
1
1
1
1
1
1
1
1
1
1
1
1
1
1
1
1
1
1
1
1
1
1
1
1
1
1
1
1
1
1
1
1
1
1
1
1
1
1
1
1
1
1
1
1
1
1
1
1
1
1
1
1
1
1
1
1
1
1
1
1
1
1
1
1
1
1
1
1
1
1
1
1
1
1
1
1
1
1
1
1
1
1
1
1
1
1
1
1
1
1
1
1
1
1
1
1
1
1
1
1
1
1
1
1
1
1
1
1
1
1
1
1
1
1
1
1
1
1
1
1
1
1
1
1
1
1
1
1
1
1
1
1
1
1
1
1
1
1
1
1
1
1
1
1
1
1
1
1
1
1
1
1
1
1
1
1
1
1
1
1
1
1
1
1
1
1
1
1
1
1
1
1
1
1
1
1
1
1
1
1
1
1
1
1
1
1
1
1
1
1
1
1
1
1
1
1
1
1
1
1
1
1
1
1
1
1
1
1
1
1
1
1
1
1
1
1
1
1
1
1
1
1
1
1
1
1
1
1
1
1
1
1
1
1
1
1
1
1
1
1
1
1
1
1
1
1
1
1
1
1
1
1
1
1
1
1
1
1
1
1
1
1
1
1
1
1
1
1
1
1
1
1
1
1
1
1
1
1
1
1
1
1
1
1
1
1
1
1
1
1
1
1
1
1
1
1
1
1
1
1
1
1
1
1
1
1
1
1
1
1
1
1
1
1
1
1
1
1
1
1
1
1
1
1
1
1
1
1
1
1
1
1
1
1
1
1
1
1
1
1
1
1
1
1
1
1
1
1
1
1
1
1
1
1
1
1
1
1
1
1
1
1
1
1
1
1
1
1
1
1
1
1
1
1
1
1
1
1
1
1
1
1
1
1
1
1
1
1
1
1
1
1
1
1
1
1
1
1
1
1
1
1
1
1
1
1
1
1
1
1
1
1
1
1
0.776179
0.775192
0.759802
0.747013
0.739214
0.732669
0.727914
0.722259
0.717201
0.711743
0.707285
0.710672
0.732191
0.76688
0.784802
0.795417
0.801079
0.803431
0.804327
0.804843
0.805348
0.805521
0.805532
0.805432
0.80516
0.804722
0.804138
0.803392
0.802334
0.800729
0.798315
0.794629
0.78882
0.778898
0.761001
0.743284
0.739494
0.739565
0.742656
0.745173
0.745364
0.744726
0.742758
0.739435
0.737773
0.737596
0.737861
0.738542
0.739152
0.739698
0.740109
0.740801
0.742004
0.743031
0.743868
0.745412
0.745015
0.743825
0.742973
0.742461
0.742148
0.742015
0.742009
0.742073
0.742303
0.742938
0.744487
0.745105
0.745008
0.744425
0.744088
0.744361
0.747037
0.753168
0.760441
0.770459
0.785931
0.824953
0.871416
0.906946
0.922255
0.925319
0.925812
0.926131
0.926514
0.926963
0.927257
0.927618
0.927978
0.928206
0.928414
0.928663
0.928859
0.929052
0.929306
0.929547
0.929837
0.930165
0.930508
0.93089
0.931329
0.931762
0.932259
0.93283
0.933387
0.934039
0.934644
0.935252
0.935879
0.936558
0.937279
0.938059
0.938737
0.939262
0.939524
0.939606
0.93943
0.939064
0.938502
0.937623
0.936603
0.935411
0.934066
0.932469
0.930662
0.928599
0.926308
0.923668
0.92072
0.917407
0.913838
0.910012
0.905887
0.901729
0.897675
0.893561
0.88968
0.88547
0.880065
0.872987
0.864113
0.854727
0.847911
0.844971
0.844406
0.845031
0.848948
0.855129
0.859909
0.863853
0.867237
0.870131
0.872662
0.874913
0.876846
0.878461
0.87984
0.881029
0.882014
0.882845
0.883559
0.884089
0.884479
0.885097
0.886637
0.889724
0.893113
0.89695
0.900666
0.903248
0.904385
0.904526
0.904099
0.902116
0.899981
0.895969
0.89275
0.892016
0.892417
0.89372
0.775048
0.778734
0.76574
0.748258
0.736657
0.732613
0.730235
0.725225
0.718885
0.708882
0.690179
0.664004
0.650984
0.657133
0.700663
0.762578
0.78812
0.798242
0.805074
0.8105
0.81292
0.813194
0.812422
0.810349
0.808339
0.807814
0.807822
0.80852
0.810464
0.813375
0.814395
0.814202
0.812393
0.807605
0.798649
0.786124
0.779854
0.779138
0.779414
0.778467
0.773836
0.767881
0.766631
0.76688
0.768086
0.769645
0.77163
0.774238
0.775516
0.776039
0.776009
0.774669
0.774104
0.773318
0.771852
0.767607
0.760201
0.753975
0.751171
0.750936
0.75114
0.751639
0.752629
0.754844
0.757538
0.760225
0.76245
0.763678
0.763898
0.763517
0.761103
0.751805
0.746807
0.747312
0.754453
0.759244
0.768515
0.818908
0.890706
0.919621
0.930239
0.936576
0.94157
0.94499
0.947391
0.948954
0.949939
0.950683
0.95105
0.951313
0.951432
0.951614
0.951765
0.952052
0.952437
0.952996
0.953658
0.954558
0.95557
0.956775
0.958183
0.95977
0.961534
0.963548
0.965632
0.967909
0.970146
0.972376
0.974424
0.976292
0.977865
0.979171
0.980107
0.980767
0.9812
0.981424
0.981517
0.98147
0.981238
0.980866
0.980264
0.979507
0.978604
0.977634
0.976657
0.975687
0.974696
0.973726
0.972796
0.971849
0.970857
0.969742
0.968453
0.966857
0.965082
0.962796
0.960804
0.959108
0.956315
0.952223
0.948134
0.943704
0.935819
0.92307
0.907698
0.892426
0.878967
0.866892
0.856142
0.84885
0.845985
0.84587
0.848151
0.856302
0.863477
0.868801
0.873484
0.877764
0.881745
0.885547
0.889261
0.892813
0.896016
0.898806
0.90154
0.904627
0.907745
0.910154
0.91155
0.911994
0.911913
0.910964
0.906329
0.890913
0.877711
0.871591
0.870163
0.871081
0.877793
0.883997
0.767426
0.773929
0.773446
0.769939
0.767776
0.763962
0.753462
0.742517
0.735379
0.728936
0.716873
0.68891
0.647812
0.631692
0.636944
0.680259
0.758574
0.794375
0.80609
0.8099
0.810478
0.807348
0.802401
0.795755
0.789788
0.788012
0.787873
0.790792
0.797783
0.804974
0.810577
0.812585
0.81272
0.812156
0.81102
0.809738
0.808826
0.808222
0.807381
0.806196
0.805026
0.804401
0.804369
0.804574
0.80474
0.804483
0.804017
0.80355
0.8033
0.803264
0.802711
0.801201
0.798013
0.792732
0.784044
0.769848
0.750703
0.733174
0.724794
0.724188
0.725047
0.727406
0.732983
0.743278
0.752186
0.758896
0.762603
0.766242
0.769715
0.770106
0.769155
0.764393
0.752446
0.748472
0.749107
0.751691
0.769411
0.858217
0.924258
0.941183
0.949966
0.955932
0.959034
0.960886
0.962129
0.962863
0.963282
0.963447
0.963485
0.963491
0.963554
0.963599
0.963613
0.963878
0.964152
0.964567
0.965257
0.966083
0.967137
0.968627
0.970242
0.972252
0.974521
0.976909
0.979465
0.98198
0.984279
0.986258
0.987788
0.989008
0.989534
0.989682
0.989681
0.989623
0.989582
0.989568
0.989592
0.989663
0.989778
0.989894
0.989954
0.989966
0.989725
0.989137
0.98813
0.986704
0.984923
0.982993
0.981361
0.980151
0.979124
0.978235
0.977484
0.976807
0.976059
0.975299
0.974722
0.974454
0.97445
0.974734
0.975342
0.975618
0.975428
0.973585
0.966904
0.959739
0.949544
0.930914
0.906051
0.882769
0.866076
0.855351
0.84819
0.84357
0.841593
0.841299
0.841636
0.843935
0.851152
0.858881
0.865615
0.871622
0.877011
0.881967
0.887039
0.893023
0.899874
0.90589
0.909264
0.910108
0.909561
0.904542
0.886365
0.870253
0.863516
0.861974
0.862334
0.865494
0.882329
0.903845
0.718744
0.712308
0.71596
0.725124
0.726861
0.727652
0.727115
0.721535
0.717005
0.711425
0.694779
0.673702
0.644915
0.623464
0.628104
0.68501
0.767929
0.79521
0.801606
0.796816
0.779757
0.765709
0.759748
0.758529
0.765264
0.771552
0.778313
0.784098
0.789774
0.793508
0.796522
0.799163
0.800618
0.801289
0.801584
0.802191
0.803612
0.806343
0.810585
0.814419
0.818063
0.821431
0.824643
0.8276
0.830315
0.832806
0.835215
0.837451
0.838882
0.83939
0.839169
0.83683
0.831616
0.82201
0.803731
0.776256
0.746865
0.723937
0.71178
0.709378
0.71035
0.713932
0.723208
0.732641
0.742745
0.753639
0.76291
0.774172
0.791659
0.793269
0.790598
0.782623
0.767251
0.754674
0.750905
0.753273
0.791637
0.907754
0.942528
0.953173
0.958826
0.962308
0.964585
0.96601
0.967147
0.967926
0.96861
0.969315
0.970096
0.970837
0.971226
0.971607
0.972361
0.972954
0.973695
0.974916
0.976096
0.977734
0.97959
0.981626
0.983919
0.986369
0.98858
0.990795
0.99235
0.993216
0.993519
0.993591
0.993352
0.992426
0.991167
0.989582
0.987472
0.985763
0.984745
0.984248
0.984116
0.984841
0.98593
0.98746
0.989001
0.990552
0.99189
0.99292
0.993594
0.993923
0.993933
0.993314
0.991632
0.988943
0.985798
0.982997
0.981256
0.980095
0.979141
0.978097
0.977032
0.976176
0.975735
0.975683
0.976064
0.977717
0.980164
0.982021
0.982841
0.982865
0.981812
0.976043
0.964717
0.950864
0.928335
0.900169
0.876104
0.859929
0.850205
0.845503
0.8442
0.844255
0.845088
0.848453
0.855907
0.863259
0.869809
0.875293
0.879843
0.884193
0.889318
0.895202
0.900039
0.901834
0.901246
0.894568
0.87645
0.865464
0.861649
0.861148
0.861878
0.866176
0.885056
0.921137
0.625009
0.614518
0.615267
0.620075
0.627308
0.634127
0.640299
0.643056
0.644043
0.642623
0.631591
0.611396
0.610465
0.619023
0.645319
0.726233
0.770084
0.781938
0.766199
0.749808
0.743674
0.74565
0.751795
0.758885
0.767064
0.774554
0.782175
0.788565
0.794842
0.799901
0.805625
0.812354
0.820508
0.830594
0.843083
0.85794
0.874149
0.889029
0.900524
0.910558
0.918538
0.925121
0.930286
0.93437
0.937505
0.939704
0.941089
0.941645
0.941484
0.939828
0.936444
0.930814
0.92196
0.906081
0.876645
0.8342
0.781952
0.738978
0.717989
0.712712
0.716018
0.722674
0.730438
0.745485
0.771292
0.804295
0.836491
0.860108
0.859715
0.857266
0.850144
0.832807
0.796359
0.765302
0.754977
0.763655
0.863405
0.937508
0.954355
0.96171
0.966452
0.970056
0.973116
0.97523
0.976757
0.977727
0.978714
0.979659
0.980418
0.980853
0.981413
0.982085
0.982449
0.983232
0.984158
0.98529
0.986711
0.988339
0.990172
0.991941
0.993561
0.994541
0.994952
0.995026
0.994552
0.99328
0.991828
0.989206
0.984349
0.977406
0.968894
0.95963
0.951208
0.945436
0.942834
0.941908
0.942038
0.94421
0.94797
0.953236
0.959579
0.967079
0.974707
0.981104
0.986543
0.990888
0.993779
0.99545
0.996256
0.996385
0.995837
0.99388
0.990254
0.986398
0.983891
0.982235
0.980712
0.978907
0.977107
0.975877
0.975405
0.975401
0.975862
0.978098
0.982383
0.985441
0.986792
0.986916
0.986207
0.982569
0.970368
0.954399
0.936538
0.914311
0.891063
0.873758
0.864869
0.862154
0.862177
0.863581
0.868694
0.874472
0.878983
0.88304
0.886668
0.889399
0.891142
0.892249
0.892907
0.893034
0.892221
0.886074
0.872292
0.865721
0.864451
0.86468
0.86616
0.87132
0.889506
0.925836
0.596029
0.596505
0.598528
0.601921
0.610651
0.611914
0.61279
0.617512
0.616225
0.609329
0.606651
0.608913
0.617501
0.6402
0.691701
0.732312
0.746751
0.741621
0.737551
0.737962
0.742888
0.748284
0.757474
0.767679
0.779384
0.791101
0.804396
0.819233
0.837978
0.860887
0.885025
0.90989
0.93095
0.949541
0.965086
0.974594
0.980606
0.98462
0.986608
0.988634
0.98986
0.990822
0.991472
0.991854
0.992028
0.991988
0.991714
0.991187
0.990321
0.988993
0.987053
0.98422
0.979865
0.972283
0.957505
0.929025
0.871838
0.796072
0.750279
0.732494
0.737688
0.739997
0.757116
0.811541
0.87838
0.901352
0.896958
0.886527
0.869584
0.842558
0.828575
0.81094
0.783171
0.764185
0.765728
0.830721
0.925586
0.95497
0.964798
0.971161
0.976564
0.980827
0.98394
0.985764
0.986954
0.98764
0.98833
0.988911
0.989149
0.989405
0.989892
0.990228
0.990531
0.991073
0.991902
0.992644
0.993657
0.994747
0.995516
0.995948
0.99608
0.995766
0.994982
0.99391
0.991121
0.985675
0.976303
0.961183
0.938457
0.917178
0.908603
0.905498
0.905023
0.905449
0.906731
0.908303
0.909661
0.910614
0.91184
0.913014
0.914885
0.918267
0.924049
0.933938
0.947436
0.962662
0.976051
0.985361
0.991793
0.995439
0.997086
0.997557
0.997343
0.995876
0.992081
0.98803
0.985915
0.984374
0.982122
0.979281
0.97696
0.975821
0.975608
0.975841
0.977272
0.98169
0.98608
0.988684
0.989487
0.989386
0.988192
0.983676
0.969926
0.953163
0.940025
0.929852
0.921796
0.914015
0.905392
0.898121
0.893787
0.891473
0.890317
0.890079
0.890198
0.890924
0.892354
0.892886
0.892888
0.892525
0.890355
0.88137
0.872597
0.870536
0.870813
0.872238
0.87585
0.884546
0.909156
0.939862
0.598655
0.606786
0.622028
0.63606
0.645806
0.634254
0.62683
0.63706
0.628992
0.616991
0.616148
0.629751
0.654653
0.686316
0.715848
0.728953
0.732951
0.734433
0.737376
0.742248
0.751708
0.764391
0.781917
0.80336
0.830548
0.860909
0.891519
0.920606
0.94479
0.961819
0.975677
0.982979
0.989744
0.99284
0.994663
0.995551
0.995979
0.996156
0.996486
0.996867
0.997263
0.997681
0.998065
0.998373
0.998607
0.998791
0.998869
0.998836
0.998689
0.998396
0.997902
0.997104
0.995762
0.993396
0.989132
0.981692
0.962047
0.905979
0.818001
0.770317
0.758336
0.758167
0.791604
0.885676
0.917857
0.917061
0.900604
0.875053
0.844789
0.819414
0.805845
0.793729
0.782723
0.784697
0.838477
0.918203
0.953651
0.966172
0.972714
0.977966
0.983078
0.987852
0.991161
0.992615
0.993393
0.993867
0.994313
0.994479
0.994524
0.994701
0.994924
0.995128
0.995299
0.995562
0.996057
0.996366
0.996737
0.996888
0.996812
0.996466
0.995888
0.994673
0.991912
0.986075
0.973959
0.95136
0.915281
0.898163
0.890832
0.888846
0.889794
0.896315
0.902087
0.906138
0.910017
0.912601
0.913641
0.91382
0.913057
0.91176
0.910151
0.908521
0.907424
0.907101
0.907966
0.912451
0.924648
0.945541
0.967133
0.981581
0.990802
0.995663
0.997652
0.998099
0.997761
0.995659
0.991006
0.988125
0.986837
0.984621
0.980962
0.977914
0.976442
0.976188
0.976548
0.97874
0.983795
0.988026
0.99071
0.991751
0.991806
0.991215
0.988231
0.979052
0.96904
0.961175
0.955847
0.952959
0.951116
0.948092
0.940523
0.927168
0.914106
0.904094
0.898722
0.897311
0.897337
0.897428
0.897105
0.895728
0.89103
0.881591
0.877827
0.877829
0.879173
0.882993
0.891216
0.91079
0.941753
0.966029
0.612543
0.642861
0.670458
0.674624
0.671491
0.663572
0.658566
0.649678
0.644503
0.642914
0.655313
0.675617
0.691893
0.710175
0.72325
0.730475
0.734817
0.740019
0.749383
0.765784
0.790174
0.82716
0.863734
0.89926
0.92934
0.951684
0.967979
0.979996
0.98702
0.990777
0.992776
0.993584
0.993851
0.993661
0.992951
0.992276
0.991587
0.991388
0.991875
0.992728
0.993965
0.995325
0.996593
0.997727
0.998431
0.999011
0.999356
0.99955
0.99966
0.999715
0.999714
0.999621
0.999391
0.998888
0.997799
0.995614
0.989696
0.974066
0.923539
0.830696
0.784913
0.770408
0.801848
0.900687
0.926856
0.921138
0.914377
0.896882
0.871528
0.843883
0.828691
0.821801
0.833882
0.875126
0.924525
0.953236
0.966048
0.971637
0.975957
0.979827
0.983977
0.988368
0.992514
0.994616
0.995668
0.996373
0.996866
0.997033
0.997087
0.997213
0.997314
0.997398
0.997437
0.997525
0.997602
0.997573
0.997456
0.997162
0.996689
0.995791
0.993805
0.989247
0.979352
0.95848
0.917651
0.889396
0.879625
0.877625
0.882945
0.896852
0.911445
0.92706
0.938702
0.946571
0.951351
0.953848
0.954921
0.954929
0.952708
0.948436
0.942155
0.933717
0.923691
0.913496
0.906751
0.902394
0.900464
0.901792
0.912727
0.938584
0.965815
0.982751
0.992324
0.99675
0.998163
0.998203
0.997182
0.993722
0.990961
0.988977
0.985438
0.981181
0.978011
0.976663
0.976548
0.97728
0.981113
0.98678
0.990734
0.993034
0.993914
0.993983
0.993607
0.991725
0.986141
0.980477
0.976832
0.975111
0.974416
0.973768
0.972475
0.96966
0.961727
0.938779
0.919663
0.912335
0.911527
0.911821
0.911282
0.907398
0.895188
0.886305
0.884622
0.885452
0.889324
0.89927
0.922283
0.950477
0.973033
0.98616
0.631265
0.67515
0.684279
0.679329
0.671913
0.662832
0.659428
0.659073
0.66521
0.676089
0.686621
0.698374
0.710344
0.722211
0.732353
0.739894
0.751384
0.770539
0.803297
0.845591
0.886957
0.919244
0.94536
0.964198
0.976064
0.983759
0.987371
0.989043
0.989565
0.989584
0.98776
0.98443
0.979921
0.97483
0.969919
0.967324
0.965895
0.965507
0.967644
0.970885
0.97563
0.980683
0.985432
0.99006
0.993535
0.996196
0.997932
0.998929
0.999472
0.999735
0.999852
0.999896
0.999909
0.999861
0.999681
0.999169
0.997578
0.993008
0.979459
0.924293
0.827104
0.785537
0.794862
0.898664
0.931056
0.934207
0.930466
0.924354
0.913711
0.902543
0.896675
0.898716
0.913918
0.936954
0.955325
0.965119
0.969822
0.972975
0.976076
0.979012
0.981381
0.983724
0.989879
0.994076
0.995751
0.996781
0.997489
0.99785
0.997997
0.998107
0.998156
0.998165
0.998135
0.998061
0.997939
0.997703
0.997402
0.996815
0.995574
0.992847
0.986676
0.972759
0.941751
0.894501
0.87596
0.870521
0.872932
0.888676
0.908963
0.940406
0.953437
0.958562
0.961882
0.964372
0.966332
0.967746
0.968996
0.969871
0.970363
0.970522
0.970051
0.968597
0.965298
0.958338
0.944602
0.926469
0.908312
0.898296
0.8941
0.895427
0.910854
0.945038
0.972582
0.987955
0.995259
0.99787
0.998271
0.997871
0.996222
0.993219
0.98923
0.984454
0.98019
0.977626
0.976838
0.976967
0.97862
0.984494
0.989985
0.993376
0.995167
0.995812
0.995864
0.995622
0.994379
0.991456
0.989315
0.988251
0.987875
0.987767
0.987662
0.98734
0.985948
0.980226
0.960876
0.946266
0.943528
0.943901
0.94317
0.935621
0.911666
0.898459
0.897134
0.899801
0.911119
0.941658
0.96633
0.981477
0.990725
0.995148
0.644186
0.68617
0.687795
0.677047
0.670069
0.668472
0.668453
0.67416
0.684189
0.695321
0.704182
0.716241
0.729243
0.742816
0.757078
0.778044
0.815881
0.857296
0.897307
0.928194
0.951742
0.967565
0.977605
0.982581
0.984769
0.985603
0.985705
0.982692
0.976723
0.966369
0.955233
0.946761
0.939859
0.935941
0.933851
0.932863
0.932501
0.93237
0.932869
0.934333
0.937277
0.943311
0.953098
0.964928
0.976847
0.985369
0.991632
0.995587
0.997822
0.999009
0.999587
0.99984
0.999931
0.999957
0.999956
0.99989
0.999594
0.998485
0.994843
0.981845
0.916478
0.825548
0.785932
0.854228
0.930764
0.940621
0.941272
0.940335
0.938135
0.936063
0.935039
0.939276
0.947934
0.957803
0.964279
0.967888
0.970214
0.972692
0.974355
0.973603
0.968382
0.964716
0.978252
0.990872
0.994921
0.996656
0.997496
0.997958
0.998172
0.998283
0.998318
0.998312
0.998235
0.998092
0.997893
0.997512
0.996827
0.99534
0.99201
0.984564
0.967466
0.928084
0.882187
0.865031
0.861104
0.866522
0.88764
0.925647
0.947984
0.955611
0.958724
0.96039
0.96317
0.9647
0.966489
0.967937
0.969408
0.970597
0.971581
0.972329
0.97287
0.973222
0.973332
0.972918
0.971499
0.967568
0.956688
0.932459
0.905626
0.891906
0.888367
0.893903
0.924744
0.962261
0.983632
0.993766
0.997518
0.998363
0.998274
0.997148
0.993242
0.987799
0.982754
0.979227
0.977654
0.977453
0.978125
0.982161
0.988821
0.993151
0.995644
0.996882
0.997313
0.997349
0.997203
0.996481
0.995585
0.995169
0.995064
0.995073
0.995186
0.995266
0.995102
0.993613
0.986194
0.980213
0.980007
0.981386
0.981237
0.975476
0.948037
0.927599
0.92634
0.932496
0.957512
0.978282
0.988798
0.994443
0.997172
0.997829
0.647455
0.690451
0.690448
0.683612
0.682015
0.682888
0.691093
0.702111
0.711454
0.723667
0.73617
0.752921
0.773583
0.7973
0.827969
0.866706
0.900256
0.929564
0.952396
0.967059
0.976094
0.980425
0.9821
0.982487
0.981387
0.97645
0.965882
0.951786
0.939935
0.933355
0.929698
0.927877
0.927079
0.926862
0.92708
0.927404
0.927506
0.927125
0.926252
0.925418
0.924396
0.92386
0.923491
0.927126
0.93719
0.955182
0.973574
0.985444
0.992517
0.996446
0.998443
0.999384
0.999781
0.999929
0.999972
0.999979
0.999954
0.999785
0.999015
0.995952
0.982093
0.91688
0.811759
0.803772
0.898761
0.94216
0.948988
0.949707
0.948986
0.950269
0.952199
0.954387
0.959341
0.963574
0.966151
0.96798
0.969861
0.971107
0.969311
0.954671
0.941521
0.938702
0.965398
0.98622
0.993331
0.996183
0.997357
0.9979
0.998142
0.998258
0.998295
0.998278
0.998167
0.997941
0.997539
0.996725
0.995079
0.991514
0.983472
0.964955
0.920915
0.873569
0.854811
0.850417
0.853723
0.87849
0.924048
0.946065
0.952905
0.954736
0.955322
0.955658
0.956209
0.957849
0.96002
0.962494
0.965186
0.967623
0.96968
0.971251
0.972379
0.973167
0.973664
0.973929
0.973971
0.973779
0.972846
0.969418
0.956734
0.923433
0.894223
0.884278
0.885326
0.909126
0.953889
0.980397
0.992787
0.99734
0.998414
0.998342
0.997045
0.992135
0.986156
0.98168
0.979237
0.978561
0.97878
0.98097
0.987599
0.992787
0.995751
0.997318
0.998071
0.998349
0.998382
0.998323
0.998154
0.998089
0.998089
0.998138
0.998342
0.99851
0.998512
0.998183
0.996382
0.995427
0.995721
0.996364
0.995933
0.991027
0.970942
0.960971
0.962024
0.972075
0.986523
0.993725
0.997094
0.998541
0.998757
0.998556
0.647457
0.697754
0.701894
0.700384
0.705031
0.718101
0.731368
0.747012
0.762909
0.776568
0.796903
0.820609
0.844456
0.871644
0.90092
0.927598
0.94824
0.964652
0.973392
0.977881
0.979757
0.980274
0.979288
0.974144
0.961047
0.946649
0.935993
0.930871
0.928477
0.927926
0.928279
0.929004
0.930886
0.931962
0.932606
0.932854
0.933028
0.93313
0.932969
0.931752
0.929358
0.925101
0.920473
0.918116
0.916945
0.920158
0.933921
0.959622
0.979098
0.989669
0.995292
0.998037
0.999251
0.999742
0.999922
0.999977
0.999988
0.999979
0.99988
0.999321
0.99657
0.982705
0.914374
0.808477
0.820478
0.91345
0.94623
0.953329
0.956189
0.956849
0.958939
0.959936
0.962514
0.9647
0.966151
0.967631
0.968514
0.966848
0.956565
0.937569
0.926866
0.921083
0.952499
0.981776
0.990693
0.994777
0.996853
0.997632
0.997939
0.99807
0.998107
0.998044
0.997803
0.997395
0.99653
0.994754
0.991086
0.983338
0.965379
0.920614
0.866822
0.843116
0.836082
0.835747
0.859534
0.906847
0.939541
0.948715
0.950451
0.949545
0.945043
0.941223
0.93959
0.940624
0.944303
0.948936
0.954281
0.959331
0.963725
0.967109
0.969499
0.971167
0.972347
0.973175
0.973689
0.973926
0.973932
0.973599
0.972302
0.966518
0.940534
0.89907
0.881579
0.880325
0.899716
0.949146
0.979056
0.99258
0.997353
0.998421
0.998296
0.996659
0.990957
0.98527
0.981745
0.980331
0.980236
0.981263
0.986224
0.992112
0.995635
0.99753
0.998447
0.998848
0.999
0.999049
0.999091
0.99915
0.999213
0.999305
0.999441
0.999556
0.999589
0.999545
0.999273
0.999176
0.999254
0.999253
0.998588
0.993775
0.985135
0.983741
0.98575
0.992444
0.996799
0.998655
0.999336
0.999379
0.999131
0.998054
0.644215
0.702642
0.718647
0.723608
0.734742
0.757755
0.782031
0.796965
0.812069
0.831437
0.854672
0.877078
0.900004
0.922586
0.943577
0.959123
0.969756
0.9756
0.977907
0.978482
0.978283
0.9747
0.963966
0.948517
0.936382
0.930612
0.928031
0.927442
0.928474
0.929943
0.931817
0.932829
0.933223
0.933254
0.93294
0.932755
0.932864
0.933559
0.934828
0.935984
0.936678
0.937069
0.933791
0.923993
0.916089
0.913327
0.914025
0.923102
0.9517
0.975671
0.988465
0.994978
0.997984
0.999248
0.999744
0.999923
0.99998
0.999992
0.999989
0.99993
0.999522
0.997105
0.983778
0.907271
0.815796
0.8278
0.911887
0.947034
0.95575
0.959041
0.961593
0.962674
0.963744
0.964772
0.965826
0.966493
0.966171
0.963168
0.951379
0.9263
0.908806
0.905597
0.932733
0.975161
0.987808
0.992781
0.995625
0.996482
0.997266
0.997489
0.997438
0.997275
0.996864
0.995343
0.993869
0.990179
0.983526
0.968031
0.927862
0.866919
0.834466
0.822445
0.820195
0.832098
0.869922
0.921229
0.942489
0.947096
0.946661
0.941047
0.931809
0.924267
0.921064
0.920107
0.922311
0.927985
0.936933
0.945807
0.953842
0.96024
0.964662
0.967482
0.96932
0.970631
0.971616
0.9724
0.973039
0.973379
0.973274
0.972354
0.968734
0.950136
0.9023
0.878988
0.876722
0.896358
0.948926
0.979889
0.99316
0.997557
0.998437
0.998233
0.996263
0.990366
0.985524
0.983029
0.982401
0.982736
0.985488
0.99129
0.995211
0.997442
0.998592
0.99912
0.999337
0.999431
0.999502
0.999574
0.999639
0.999704
0.99978
0.999849
0.999882
0.999883
0.999859
0.999852
0.999858
0.999824
0.999453
0.997416
0.995721
0.995793
0.997035
0.998737
0.999507
0.999747
0.999739
0.999532
0.998384
0.994088
0.636227
0.699123
0.725734
0.740179
0.761744
0.783018
0.80585
0.832355
0.857554
0.876484
0.896156
0.916096
0.934596
0.951261
0.964504
0.97221
0.976373
0.977901
0.978011
0.976862
0.971556
0.956166
0.940679
0.932272
0.927952
0.926612
0.926732
0.927806
0.930102
0.931197
0.931527
0.931489
0.930453
0.92965
0.929123
0.928453
0.927712
0.92712
0.927346
0.930039
0.934305
0.93834
0.93994
0.938986
0.928661
0.915182
0.911432
0.912621
0.922874
0.95444
0.977662
0.989931
0.995784
0.998342
0.99939
0.999794
0.999938
0.999984
0.999995
0.999994
0.999959
0.999657
0.997591
0.985333
0.911764
0.827749
0.830955
0.896447
0.943509
0.956494
0.961144
0.963048
0.964152
0.964812
0.965386
0.965569
0.965217
0.962923
0.952967
0.928337
0.906331
0.891653
0.899989
0.953656
0.98282
0.989097
0.992664
0.994793
0.994947
0.99524
0.995947
0.994874
0.994424
0.993271
0.989521
0.984205
0.971597
0.936574
0.876384
0.829207
0.809217
0.803241
0.803829
0.824006
0.865256
0.919675
0.941174
0.944964
0.943652
0.937084
0.927147
0.918568
0.914455
0.912931
0.912786
0.913937
0.91786
0.928436
0.940435
0.951049
0.95867
0.963329
0.965911
0.967376
0.968268
0.968918
0.969802
0.970809
0.971608
0.971928
0.971254
0.96781
0.951061
0.900478
0.875585
0.874033
0.898948
0.953299
0.98259
0.994299
0.997872
0.998479
0.998179
0.995925
0.990579
0.986936
0.985426
0.985301
0.986303
0.990513
0.99469
0.997187
0.99854
0.999211
0.999513
0.999648
0.999722
0.999777
0.999822
0.999863
0.999902
0.999937
0.999958
0.999966
0.999967
0.99997
0.999971
0.999964
0.999884
0.999511
0.999344
0.999415
0.999685
0.999877
0.999925
0.999909
0.999758
0.998925
0.995376
0.988066
0.628799
0.690904
0.723288
0.739796
0.769481
0.806575
0.837139
0.860322
0.882723
0.903944
0.922557
0.9381
0.95306
0.96598
0.973227
0.976772
0.978113
0.978223
0.977025
0.971603
0.955268
0.939313
0.930447
0.926407
0.925038
0.92517
0.926806
0.928908
0.930596
0.931349
0.93159
0.931662
0.93166
0.932301
0.932757
0.93169
0.929251
0.926483
0.924933
0.924133
0.925248
0.931146
0.939383
0.941597
0.939799
0.927414
0.913255
0.911285
0.914698
0.934284
0.965709
0.984215
0.993339
0.997375
0.99902
0.999651
0.999882
0.999963
0.99999
0.999997
0.999997
0.999974
0.99975
0.998225
0.989297
0.92977
0.844031
0.839968
0.874018
0.932949
0.954373
0.961351
0.963746
0.964697
0.965222
0.965298
0.965073
0.963421
0.957091
0.936103
0.911048
0.890914
0.886046
0.904423
0.963777
0.984309
0.988436
0.99092
0.992589
0.992147
0.99148
0.992567
0.991294
0.988199
0.985669
0.976058
0.945656
0.890855
0.831273
0.796768
0.781149
0.77463
0.778026
0.80177
0.845837
0.909966
0.937058
0.943277
0.942641
0.938263
0.928509
0.917938
0.912492
0.91033
0.909531
0.909394
0.910132
0.913292
0.9244
0.938993
0.950994
0.958776
0.962924
0.964745
0.965296
0.965291
0.965054
0.965505
0.966627
0.967744
0.968749
0.968531
0.96448
0.94495
0.892702
0.871484
0.872685
0.908353
0.961081
0.98638
0.995653
0.998211
0.99855
0.998148
0.995717
0.991635
0.989279
0.988574
0.988743
0.9906
0.994402
0.996952
0.99843
0.999205
0.999582
0.999756
0.99984
0.999886
0.999915
0.999937
0.999957
0.999973
0.999983
0.999988
0.999991
0.999993
0.999994
0.999993
0.999979
0.999933
0.999926
0.999945
0.999976
0.999981
0.99997
0.999878
0.999344
0.996991
0.989525
0.98408
0.619561
0.67337
0.715845
0.73469
0.763889
0.803963
0.84019
0.872542
0.899709
0.923107
0.942296
0.954236
0.963245
0.972259
0.976775
0.978521
0.978882
0.97772
0.972427
0.958476
0.941018
0.930343
0.925693
0.923897
0.923633
0.924755
0.927394
0.930056
0.931555
0.932246
0.933194
0.934917
0.937672
0.939391
0.939231
0.938331
0.93617
0.931278
0.926092
0.923527
0.923346
0.925258
0.934312
0.941675
0.94218
0.936199
0.918537
0.911705
0.912966
0.926012
0.958827
0.9808
0.991958
0.996879
0.99885
0.999592
0.99986
0.999953
0.999985
0.999996
0.999999
0.999999
0.999987
0.999864
0.998953
0.993272
0.954373
0.86588
0.849821
0.860973
0.907645
0.945246
0.958667
0.963188
0.964701
0.965106
0.965046
0.964471
0.961826
0.952594
0.926855
0.898745
0.884481
0.884176
0.906752
0.964936
0.982601
0.986205
0.98693
0.988666
0.988017
0.98713
0.988048
0.984992
0.974539
0.953131
0.910844
0.848832
0.795329
0.767308
0.753519
0.748231
0.752117
0.76729
0.801662
0.877162
0.922878
0.938303
0.939811
0.937894
0.929383
0.916983
0.910382
0.907152
0.905896
0.905812
0.906319
0.90688
0.910204
0.923835
0.940295
0.952334
0.959477
0.962674
0.963647
0.963731
0.963139
0.960865
0.959031
0.959022
0.960184
0.962509
0.963031
0.958044
0.930956
0.881786
0.867412
0.874347
0.923724
0.970408
0.990276
0.996895
0.998516
0.998652
0.998169
0.995914
0.993319
0.992073
0.991862
0.992271
0.994449
0.996913
0.998379
0.999187
0.9996
0.999799
0.999892
0.999937
0.999959
0.999972
0.999982
0.999989
0.999993
0.999996
0.999997
0.999998
0.999999
0.999998
0.999996
0.999992
0.999993
0.999996
0.999996
0.99999
0.999942
0.999646
0.998168
0.992234
0.98468
0.981581
0.618356
0.638535
0.698025
0.724257
0.748823
0.790876
0.833125
0.868934
0.898582
0.923347
0.944837
0.959662
0.968437
0.974768
0.978153
0.979383
0.979338
0.977887
0.972062
0.956777
0.93981
0.929318
0.924249
0.922297
0.922397
0.923821
0.926914
0.929674
0.931364
0.932203
0.933111
0.935025
0.937995
0.939544
0.939552
0.93902
0.937455
0.933028
0.927001
0.923414
0.922689
0.92424
0.932584
0.941879
0.94336
0.938812
0.920751
0.912354
0.91287
0.92385
0.95626
0.979599
0.991486
0.99673
0.998812
0.999583
0.999858
0.999952
0.999984
0.999995
0.999999
1
1
0.999996
0.999942
0.99946
0.995889
0.971026
0.890673
0.857516
0.85915
0.880298
0.929773
0.952288
0.960929
0.963916
0.964747
0.964667
0.963974
0.960884
0.951457
0.924702
0.894996
0.883903
0.884654
0.906136
0.961282
0.978931
0.981362
0.981179
0.98321
0.982876
0.981194
0.978074
0.967357
0.939832
0.884985
0.818829
0.771816
0.745761
0.732865
0.729726
0.733388
0.747951
0.77931
0.841933
0.896768
0.92645
0.933077
0.931829
0.921649
0.910087
0.903631
0.898467
0.895692
0.895701
0.898396
0.900878
0.903223
0.910724
0.928395
0.943771
0.954282
0.959989
0.962369
0.962875
0.96252
0.960278
0.953152
0.947202
0.945767
0.947056
0.951671
0.953198
0.946269
0.909155
0.870389
0.864585
0.88295
0.943525
0.979761
0.993706
0.997895
0.998786
0.998798
0.998279
0.99658
0.995233
0.994722
0.994722
0.995286
0.997062
0.998424
0.999201
0.999612
0.999816
0.999913
0.999957
0.999977
0.999987
0.999992
0.999995
0.999997
0.999998
0.999999
0.999999
1
1
0.999999
0.999999
0.999999
0.999999
0.999997
0.999976
0.999833
0.999023
0.995159
0.986617
0.981462
0.979599
0.64742
0.630407
0.654346
0.706532
0.729259
0.762075
0.81458
0.856585
0.891378
0.919254
0.942321
0.95872
0.968351
0.974648
0.978106
0.979505
0.979565
0.978376
0.973341
0.959209
0.941972
0.930684
0.924791
0.922312
0.921725
0.922268
0.925011
0.928255
0.930428
0.931649
0.932374
0.93369
0.936133
0.936702
0.936457
0.935596
0.933574
0.928594
0.923331
0.921752
0.922065
0.924364
0.934385
0.944675
0.945632
0.939666
0.920641
0.91248
0.913766
0.92732
0.960493
0.982269
0.993011
0.997518
0.999182
0.999742
0.999919
0.999974
0.999991
0.999997
0.999999
1
1
1
0.999998
0.999966
0.999621
0.996492
0.97801
0.909239
0.865805
0.860604
0.86996
0.906327
0.942193
0.956918
0.962369
0.964076
0.964051
0.963425
0.960602
0.951795
0.927737
0.89649
0.886195
0.887463
0.906106
0.95665
0.973335
0.974861
0.97392
0.976638
0.97608
0.971497
0.957877
0.924176
0.862735
0.797723
0.753225
0.729672
0.719731
0.718382
0.723175
0.741897
0.775849
0.819761
0.869479
0.905118
0.91553
0.914772
0.910199
0.905768
0.896278
0.883468
0.876859
0.876161
0.880619
0.887793
0.893577
0.903965
0.920222