/*--------------------------------*- C++ -*----------------------------------*\
  =========                 |
  \\      /  F ield         | OpenFOAM: The Open Source CFD Toolbox
   \\    /   O peration     | Website:  https://openfoam.org
    \\  /    A nd           | Version:  9
     \\/     M anipulation  |
\*---------------------------------------------------------------------------*/
FoamFile
{
    format      ascii;
    class       volVectorField;
    location    "0.08";
    object      U;
}
// * * * * * * * * * * * * * * * * * * * * * * * * * * * * * * * * * * * * * //

dimensions      [0 1 -1 0 0 0 0];

internalField   nonuniform List<vector> 
12225
(
(9.49514 0.104645 0)
(9.24137 0.0675999 0)
(9.07787 0.048736 0)
(8.91124 0.037598 0)
(8.72266 0.0505255 0)
(8.4939 0.0739859 0)
(8.20745 0.0839291 0)
(7.89014 0.0754656 0)
(7.56584 0.0604646 0)
(7.26766 0.0513742 0)
(6.96331 0.0518658 0)
(6.69188 0.0576805 0)
(6.37442 0.0606605 0)
(6.14769 0.0553833 0)
(5.83118 0.0601098 0)
(5.66012 0.0566411 0)
(5.25449 0.092698 0)
(5.08218 0.107955 0)
(10.0762 0.0762215 0)
(10.1373 0.0359277 0)
(10.2262 0.0301312 0)
(10.2223 0.042523 0)
(10.1764 0.042457 0)
(10.1532 0.0455269 0)
(10.1396 0.0635526 0)
(10.1113 0.0902332 0)
(10.0493 0.110414 0)
(9.96982 0.12244 0)
(9.86951 0.12501 0)
(9.77954 0.126278 0)
(9.67757 0.123407 0)
(9.60778 0.121477 0)
(9.50771 0.122039 0)
(9.44236 0.137327 0)
(9.30644 0.17211 0)
(9.1969 0.225719 0)
(9.97772 0.0563361 0)
(9.9288 0.0122981 0)
(9.95338 0.0239649 0)
(10.066 0.0525437 0)
(10.1469 0.0743082 0)
(10.1398 0.0954912 0)
(10.0869 0.10986 0)
(10.0576 0.113108 0)
(10.0735 0.107888 0)
(10.1185 0.104868 0)
(10.1613 0.108098 0)
(10.182 0.117066 0)
(10.1692 0.12422 0)
(10.126 0.125275 0)
(10.0532 0.130877 0)
(9.96688 0.147367 0)
(9.87737 0.189288 0)
(9.80192 0.256455 0)
(10.2589 0.110601 0)
(10.1568 0.064429 0)
(10.0916 0.0183744 0)
(10.044 -0.00538794 0)
(10.0498 0.0119542 0)
(10.1105 0.0478122 0)
(10.1815 0.07525 0)
(10.2221 0.087702 0)
(10.2181 0.0909343 0)
(10.1828 0.0961277 0)
(10.1415 0.108446 0)
(10.1093 0.126155 0)
(10.0864 0.144367 0)
(10.0635 0.161106 0)
(10.0273 0.181752 0)
(9.9738 0.212458 0)
(9.90617 0.257587 0)
(9.82934 0.314564 0)
(9.93918 0.105617 0)
(10.0514 0.0338611 0)
(10.1447 0.0379648 0)
(10.1744 0.0609068 0)
(10.1609 0.0635936 0)
(10.1327 0.0655725 0)
(10.1162 0.0801233 0)
(10.1137 0.101635 0)
(10.1092 0.119071 0)
(10.0916 0.128744 0)
(10.0652 0.133623 0)
(10.0405 0.138246 0)
(10.0238 0.146281 0)
(10.0129 0.15866 0)
(10.0035 0.180463 0)
(9.99102 0.216326 0)
(9.97899 0.266168 0)
(9.96566 0.327995 0)
(10.174 0.0676522 0)
(10.1588 0.0283924 0)
(10.05 0.00578683 0)
(10.0386 -0.00448859 0)
(10.0559 0.0198918 0)
(10.0672 0.054692 0)
(10.0798 0.0798438 0)
(10.0982 0.0948959 0)
(10.106 0.106243 0)
(10.0887 0.118099 0)
(10.0497 0.130388 0)
(10.0029 0.141519 0)
(9.95908 0.152208 0)
(9.92327 0.164928 0)
(9.89183 0.184391 0)
(9.86488 0.215438 0)
(9.84039 0.25752 0)
(9.82698 0.311319 0)
(10.0888 -0.0387416 0)
(10.0888 0.0619744 0)
(10.1383 0.0575379 0)
(10.1138 0.0509912 0)
(10.0365 0.0573943 0)
(9.98672 0.0573208 0)
(10.0029 0.0625299 0)
(10.0656 0.0832777 0)
(10.1334 0.114748 0)
(10.1773 0.146361 0)
(10.1922 0.169819 0)
(10.1865 0.183178 0)
(10.1696 0.191583 0)
(10.145 0.202625 0)
(10.1143 0.222426 0)
(10.0772 0.254945 0)
(10.0383 0.299362 0)
(9.99908 0.352455 0)
(10.0982 0.00503003 0)
(10.1308 0.0372823 0)
(10.039 0.0197677 0)
(9.97009 0.0459474 0)
(9.96166 0.0726941 0)
(9.97478 0.0711544 0)
(9.98263 0.0550629 0)
(9.99254 0.0501062 0)
(10.0174 0.0659673 0)
(10.0528 0.0946973 0)
(10.0811 0.123661 0)
(10.0853 0.145665 0)
(10.0608 0.162542 0)
(10.0167 0.181031 0)
(9.96866 0.206596 0)
(9.93099 0.242841 0)
(9.91031 0.287651 0)
(9.91285 0.339356 0)
(9.94492 0.0204385 0)
(9.98462 0.0644834 0)
(9.97398 0.0878379 0)
(10.0224 0.0669508 0)
(10.1347 0.0427476 0)
(10.2635 0.0363596 0)
(10.3505 0.0451376 0)
(10.3727 0.0607873 0)
(10.3497 0.0844441 0)
(10.3136 0.118619 0)
(10.2801 0.160788 0)
(10.2451 0.20438 0)
(10.1976 0.242359 0)
(10.1343 0.270929 0)
(10.0619 0.2907 0)
(9.99437 0.307656 0)
(9.94113 0.326094 0)
(9.91326 0.353706 0)
(9.91673 0.0118206 0)
(9.99714 0.0429912 0)
(9.94826 0.0252579 0)
(9.87721 0.00176747 0)
(9.84828 -0.0190703 0)
(9.86982 -0.015652 0)
(9.90451 0.014607 0)
(9.92831 0.0556872 0)
(9.94217 0.0937195 0)
(9.95346 0.123891 0)
(9.96498 0.150273 0)
(9.97344 0.178423 0)
(9.97429 0.210387 0)
(9.96648 0.244251 0)
(9.9545 0.275849 0)
(9.94422 0.304507 0)
(9.94164 0.328882 0)
(9.94959 0.354627 0)
(9.83434 -0.0143001 0)
(10.0443 0.0420773 0)
(10.1106 0.1174 0)
(10.0486 0.100973 0)
(9.95828 0.0449936 0)
(9.92446 0.0103899 0)
(9.94581 0.0121554 0)
(9.9861 0.0389103 0)
(10.0152 0.0745467 0)
(10.0226 0.115444 0)
(10.0152 0.163116 0)
(10.0058 0.214914 0)
(10.003 0.263349 0)
(10.0107 0.300169 0)
(10.0234 0.320962 0)
(10.0369 0.329146 0)
(10.0448 0.330631 0)
(10.0454 0.336313 0)
(9.82861 -0.0955117 0)
(9.87556 -0.0799733 0)
(10.0086 0.0555835 0)
(10.113 0.0871466 0)
(10.1319 0.0416114 0)
(10.1029 -0.00480956 0)
(10.067 -0.0113599 0)
(10.0426 0.0214135 0)
(10.0342 0.0709321 0)
(10.0406 0.116572 0)
(10.061 0.150332 0)
(10.0934 0.174762 0)
(10.1339 0.196031 0)
(10.1753 0.220217 0)
(10.2067 0.249038 0)
(10.2205 0.281857 0)
(10.2122 0.317167 0)
(10.1874 0.349365 0)
(10.2045 0.0648582 0)
(9.99662 -0.0190708 0)
(9.99763 0.00525069 0)
(10.0507 0.0342889 0)
(10.0474 0.0414579 0)
(9.99198 0.0398383 0)
(9.9397 0.0408287 0)
(9.93267 0.0514425 0)
(9.96935 0.0732334 0)
(10.0195 0.103163 0)
(10.0533 0.139715 0)
(10.0569 0.18101 0)
(10.0354 0.223215 0)
(10.0044 0.264002 0)
(9.97967 0.300602 0)
(9.96868 0.333171 0)
(9.97211 0.360269 0)
(9.98966 0.383353 0)
(9.95361 -0.0279013 0)
(9.94217 -0.031147 0)
(9.88085 0.0395183 0)
(9.89607 0.0795781 0)
(9.95642 0.0800514 0)
(10.0113 0.0542559 0)
(10.04 0.0202111 0)
(10.0386 0.00211338 0)
(10.0131 0.0160583 0)
(9.98041 0.061461 0)
(9.95419 0.123291 0)
(9.94069 0.182346 0)
(9.9397 0.225828 0)
(9.95189 0.251796 0)
(9.97434 0.265596 0)
(10.0046 0.275737 0)
(10.0378 0.28695 0)
(10.0717 0.304164 0)
(10.2836 -0.0778526 0)
(10.1882 0.0601225 0)
(10.1065 0.0438685 0)
(10.0494 -0.0207787 0)
(10.0128 -0.052899 0)
(9.97503 -0.0326408 0)
(9.92699 0.0208346 0)
(9.88038 0.0786839 0)
(9.85756 0.125234 0)
(9.87378 0.158041 0)
(9.92518 0.180897 0)
(9.99274 0.19929 0)
(10.0536 0.216725 0)
(10.0941 0.235545 0)
(10.1092 0.2563 0)
(10.1057 0.278403 0)
(10.0895 0.300935 0)
(10.0732 0.321536 0)
(9.88836 0.0700713 0)
(9.98242 0.0598752 0)
(10.0306 0.130413 0)
(10.0106 0.171893 0)
(9.92283 0.174284 0)
(9.83264 0.155962 0)
(9.77041 0.117835 0)
(9.74732 0.0622753 0)
(9.76319 0.00653978 0)
(9.81074 -0.0255167 0)
(9.87928 -0.0183871 0)
(9.95322 0.0284035 0)
(10.018 0.100947 0)
(10.0653 0.179523 0)
(10.0946 0.24732 0)
(10.1099 0.296938 0)
(10.1166 0.327482 0)
(10.121 0.343712 0)
(9.79129 -0.00460895 0)
(9.77944 -0.0559138 0)
(9.75998 0.0216222 0)
(9.77641 0.0482513 0)
(9.8597 0.0548109 0)
(9.95077 0.0717994 0)
(10.0145 0.0841418 0)
(10.0389 0.0805819 0)
(10.0146 0.0631207 0)
(9.94859 0.0419852 0)
(9.86844 0.0321152 0)
(9.80327 0.0456489 0)
(9.76775 0.0840565 0)
(9.76402 0.138347 0)
(9.78784 0.194828 0)
(9.83054 0.244096 0)
(9.88267 0.279865 0)
(9.93622 0.303812 0)
(10.1054 -0.0112885 0)
(10.0258 0.0885542 0)
(10.0302 0.120392 0)
(10.0634 0.0726099 0)
(10.1168 0.00748857 0)
(10.1524 -0.0154318 0)
(10.1507 0.0173087 0)
(10.129 0.0827312 0)
(10.0903 0.148716 0)
(10.0337 0.194102 0)
(9.97246 0.211688 0)
(9.92388 0.204619 0)
(9.89858 0.181816 0)
(9.90054 0.154019 0)
(9.92863 0.130807 0)
(9.97548 0.118288 0)
(10.0326 0.117597 0)
(10.0889 0.131671 0)
(10.0043 -0.192396 0)
(10.0158 -0.0215373 0)
(10.0267 -0.0038798 0)
(10.0602 -0.06532 0)
(10.0558 -0.0567737 0)
(10.0072 0.0155981 0)
(9.96198 0.10328 0)
(9.94413 0.171149 0)
(9.9513 0.205215 0)
(9.97775 0.208571 0)
(10.0163 0.188417 0)
(10.0556 0.150741 0)
(10.0853 0.103691 0)
(10.1007 0.0577346 0)
(10.102 0.0247 0)
(10.094 0.0125153 0)
(10.0817 0.0231559 0)
(10.0721 0.0551681 0)
(9.9716 -0.167008 0)
(9.95245 -0.0921684 0)
(10.0085 0.0300615 0)
(10.0438 0.0519046 0)
(10.0223 0.0764009 0)
(9.9633 0.12317 0)
(9.92999 0.150488 0)
(9.94799 0.142687 0)
(9.99965 0.115064 0)
(10.0599 0.0881124 0)
(10.1103 0.074343 0)
(10.1409 0.0773862 0)
(10.1518 0.0948174 0)
(10.1491 0.120895 0)
(10.1428 0.146384 0)
(10.1411 0.164737 0)
(10.1501 0.171005 0)
(10.1718 0.165069 0)
(9.5815 -0.106277 0)
(9.64129 -0.0618204 0)
(9.71431 -0.0873967 0)
(9.7682 -0.0409799 0)
(9.80654 0.0568961 0)
(9.82212 0.112836 0)
(9.83904 0.0991384 0)
(9.86247 0.0510106 0)
(9.8846 0.0151774 0)
(9.90728 0.0124228 0)
(9.93725 0.0354667 0)
(9.97731 0.0644899 0)
(10.0257 0.0824152 0)
(10.0784 0.0802541 0)
(10.1312 0.058172 0)
(10.1801 0.0249273 0)
(10.2228 -0.0114603 0)
(10.2581 -0.0383702 0)
(9.97064 -0.0866393 0)
(9.99763 -0.151228 0)
(9.96229 -0.140161 0)
(9.97637 -0.0384966 0)
(10.0421 0.0652391 0)
(10.1019 0.118296 0)
(10.1384 0.121716 0)
(10.1474 0.0950396 0)
(10.1331 0.0566538 0)
(10.1111 0.0167447 0)
(10.097 -0.0173752 0)
(10.0969 -0.0391267 0)
(10.1076 -0.0450071 0)
(10.1233 -0.0354932 0)
(10.1389 -0.0169252 0)
(10.1527 0.00424823 0)
(10.1636 0.0212565 0)
(10.1745 0.0323973 0)
(9.74867 -0.0115884 0)
(9.69501 -0.0769679 0)
(9.64902 -0.11548 0)
(9.67399 -0.117485 0)
(9.78623 -0.0703786 0)
(9.92724 -0.00390188 0)
(10.0502 0.0427404 0)
(10.129 0.0570119 0)
(10.1603 0.0528016 0)
(10.1602 0.0457289 0)
(10.1502 0.0410587 0)
(10.145 0.037264 0)
(10.1512 0.0314119 0)
(10.1702 0.0216068 0)
(10.1972 0.00604037 0)
(10.2268 -0.0148613 0)
(10.2541 -0.0411672 0)
(10.2731 -0.0699461 0)
(10.3097 -0.0409671 0)
(10.3585 -0.00230356 0)
(10.3395 -0.099059 0)
(10.2482 -0.139352 0)
(10.1589 -0.128686 0)
(10.1236 -0.0958706 0)
(10.135 -0.0487649 0)
(10.1524 0.000530014 0)
(10.1494 0.031149 0)
(10.1291 0.0322292 0)
(10.1104 0.00800137 0)
(10.1085 -0.0275267 0)
(10.1257 -0.0582083 0)
(10.1577 -0.0747394 0)
(10.198 -0.0746329 0)
(10.2374 -0.0613743 0)
(10.2685 -0.0392508 0)
(10.2848 -0.014849 0)
(9.90279 0.075227 0)
(9.98772 -0.059745 0)
(9.98507 -0.0736895 0)
(9.99497 -0.0326348 0)
(10.042 -0.011755 0)
(10.0789 -0.00677346 0)
(10.0781 0.00899028 0)
(10.0549 0.0398628 0)
(10.0399 0.067942 0)
(10.0475 0.0732297 0)
(10.0693 0.0514045 0)
(10.0903 0.0114142 0)
(10.1013 -0.0334712 0)
(10.1009 -0.0708298 0)
(10.0934 -0.0945301 0)
(10.0855 -0.103808 0)
(10.0807 -0.100976 0)
(10.0832 -0.0892667 0)
(10.0585 0.0146498 0)
(10.1142 -0.0203966 0)
(10.1255 -0.0780148 0)
(10.1231 -0.142116 0)
(10.107 -0.152158 0)
(10.0708 -0.0998482 0)
(10.0385 -0.0247062 0)
(10.0412 0.0264517 0)
(10.0865 0.035981 0)
(10.1565 0.0145726 0)
(10.225 -0.0167678 0)
(10.2717 -0.0415079 0)
(10.2902 -0.054547 0)
(10.2862 -0.0571608 0)
(10.2686 -0.0525424 0)
(10.245 -0.0442768 0)
(10.2206 -0.0349637 0)
(10.1977 -0.0271892 0)
(10.0911 -0.0434205 0)
(10.0973 -0.0808618 0)
(10.0766 -0.0844316 0)
(10.0377 -0.0533399 0)
(10.0228 -0.0113875 0)
(10.0451 0.015982 0)
(10.0944 0.0240195 0)
(10.1533 0.0158688 0)
(10.2079 -0.00201765 0)
(10.2501 -0.0196379 0)
(10.2778 -0.0333726 0)
(10.2945 -0.0445328 0)
(10.3059 -0.0542302 0)
(10.3163 -0.0623653 0)
(10.3262 -0.067146 0)
(10.3329 -0.0677117 0)
(10.3345 -0.0630572 0)
(10.3275 -0.0542576 0)
(9.9279 0.00547495 0)
(10.0033 0.0035324 0)
(10.0796 -0.0343687 0)
(10.0917 -0.104408 0)
(10.0606 -0.142418 0)
(10.0633 -0.122006 0)
(10.1265 -0.0732741 0)
(10.2175 -0.0359923 0)
(10.2989 -0.0233797 0)
(10.3537 -0.0280683 0)
(10.3828 -0.0399468 0)
(10.3946 -0.0523465 0)
(10.3963 -0.0610475 0)
(10.39 -0.0632135 0)
(10.3747 -0.0570778 0)
(10.3514 -0.0443008 0)
(10.3226 -0.0262583 0)
(10.2961 -0.00808139 0)
(10.163 -0.0590819 0)
(10.1946 -0.1463 0)
(10.2787 -0.113039 0)
(10.2726 -0.0447404 0)
(10.163 -0.0131856 0)
(10.0564 -0.0237462 0)
(10.013 -0.0469639 0)
(10.0175 -0.0615015 0)
(10.0394 -0.063528 0)
(10.0602 -0.0597775 0)
(10.0716 -0.057112 0)
(10.0726 -0.0576259 0)
(10.0673 -0.0587545 0)
(10.0611 -0.0566083 0)
(10.0601 -0.0496644 0)
(10.0683 -0.0399726 0)
(10.0868 -0.0302255 0)
(10.1174 -0.0247541 0)
(10.3276 -0.0134479 0)
(9.99976 -0.0387622 0)
(9.69011 -0.0560048 0)
(9.46605 -0.0633038 0)
(9.32092 -0.0633018 0)
(9.20052 -0.0608878 0)
(9.05974 -0.0581777 0)
(8.89609 -0.0540948 0)
(8.73541 -0.0488158 0)
(8.59347 -0.0447437 0)
(8.46479 -0.0441387 0)
(8.33823 -0.0471265 0)
(8.20853 -0.0516401 0)
(8.07969 -0.055079 0)
(7.95867 -0.0554924 0)
(7.85295 -0.052996 0)
(7.76312 -0.048284 0)
(7.6917 -0.0424174 0)
(-0.146088 0.352212 -7.07441e-20)
(-0.488599 0.426137 7.01784e-20)
(-0.771565 0.348404 0)
(-0.9833 0.258184 0)
(-1.10907 0.141093 0)
(-1.13242 0.0249761 -6.82214e-20)
(-1.07804 -0.0844532 0)
(-0.951422 -0.176451 0)
(-0.755922 -0.250317 0)
(-0.499682 -0.294825 0)
(-0.19993 -0.285261 6.56884e-20)
(0.0883621 -0.208658 0)
(0.311411 -0.0614592 0)
(0.406249 0.118173 0)
(0.339738 0.243699 0)
(0.151616 0.288391 6.30446e-20)
(-0.0772714 0.256833 0)
(-0.285321 0.193223 0)
(-0.458219 0.140899 0)
(-0.607332 0.111101 0)
(-0.750057 0.0985546 0)
(-0.897031 0.0976225 0)
(-1.05251 0.105227 0)
(-1.21771 0.119086 5.88928e-20)
(-1.39345 0.136302 -5.83892e-20)
(-1.58085 0.1542 5.78867e-20)
(-1.78112 0.171211 5.73852e-20)
(-1.99478 0.186653 0)
(-2.22122 0.200425 0)
(-2.45882 0.213242 -5.58832e-20)
(-2.70578 0.227672 -5.53808e-20)
(-2.96167 0.24955 0)
(-3.22911 0.288388 0)
(-3.51543 0.34761 -5.3845e-20)
(-3.82833 0.397479 0)
(-4.15566 0.359715 0)
(-4.44132 0.172648 5.22599e-20)
(-4.61086 -0.0909344 0)
(-4.65022 -0.248524 5.11953e-20)
(-4.62698 -0.204533 1.01292e-19)
(-4.62519 -0.0553502 0)
(-4.65581 0.0309162 0)
(-4.65728 -0.00221829 0)
(-4.57411 -0.0923645 0)
(-4.41832 -0.174565 0)
(-4.21856 -0.235556 9.43636e-20)
(-3.96442 -0.280897 9.31926e-20)
(-3.66017 -0.303661 9.20314e-20)
(-3.32935 -0.304441 0)
(-2.96583 -0.307932 -8.97617e-20)
(-2.5873 -0.320575 0)
(-2.17016 -0.335517 8.75897e-20)
(-1.73122 -0.344044 8.65531e-20)
(-1.26791 -0.346087 0)
(-0.784477 -0.338125 0)
(-0.29346 -0.320988 0)
(0.195182 -0.294408 8.28491e-20)
(0.660592 -0.261927 0)
(1.09275 -0.227496 0)
(1.47676 -0.200064 0)
(1.81793 -0.187875 0)
(2.1327 -0.185863 0)
(2.43094 -0.180098 0)
(2.70493 -0.172071 0)
(2.94794 -0.170843 0)
(3.16093 -0.167659 -7.62133e-20)
(3.34844 -0.165885 0)
(3.52191 -0.159301 0)
(3.63541 -0.108194 7.42534e-20)
(3.68271 -0.0198058 7.35324e-20)
(3.60545 0.0523584 0)
(3.31828 0.0591691 -7.19141e-20)
(3.02806 0.213667 7.10601e-20)
(2.54013 0.543501 0)
(1.54049 0.47024 -6.94741e-20)
(0.899006 0.000739431 0)
(1.02757 -0.414613 0)
(1.45198 -0.543924 6.71277e-20)
(1.75715 -0.430084 0)
(1.59343 -0.0233424 -6.58123e-20)
(0.946251 0.37142 0)
(0.229086 0.430523 6.49085e-20)
(-0.36825 0.351151 6.44935e-20)
(-0.84829 0.274395 6.40385e-20)
(-1.22456 0.212753 1.27201e-19)
(-1.52658 0.165945 -1.26341e-19)
(-1.77426 0.13256 0)
(-1.98367 0.110489 0)
(-2.16941 0.0977796 0)
(-2.34393 0.0925492 -1.22999e-19)
(-2.51837 0.0931935 -1.22208e-19)
(-2.70276 0.0991217 1.21448e-19)
(-2.90481 0.109345 0)
(-3.13109 0.122939 -1.20053e-19)
(-3.38671 0.138972 -1.19431e-19)
(-3.67545 0.156475 -1.18869e-19)
(-3.99967 0.174507 0)
(-4.36036 0.192223 0)
(-4.75706 0.208881 0)
(-5.18763 0.223762 -1.17285e-19)
(-5.64799 0.235964 0)
(-6.13225 0.244456 0)
(-6.63255 0.248253 1.1676e-19)
(-7.13901 0.246464 0)
(-7.63962 0.23834 0)
(-8.12046 0.223357 1.16386e-19)
(-8.56613 0.201355 0)
(-8.96069 0.172656 0)
(-9.2888 0.138082 -1.15228e-19)
(-9.53689 0.0991194 -1.14456e-19)
(-9.69407 0.0580481 0)
(-9.75386 0.0169548 1.12123e-19)
(-9.71293 -0.0237768 0)
(-9.57875 -0.0618641 -1.08614e-19)
(-9.35218 -0.0976315 0)
(-9.03852 -0.130405 -1.04076e-19)
(-8.6449 -0.159457 -1.01509e-19)
(-8.17968 -0.184372 0)
(-7.65251 -0.204862 0)
(-7.07372 -0.220866 0)
(-6.45387 -0.232495 0)
(-5.80318 -0.239978 0)
(-5.13144 -0.243616 0)
(-4.44788 -0.243744 0)
(-3.76088 -0.240696 -8.00427e-20)
(-3.07807 -0.23487 7.77785e-20)
(-2.40638 -0.226708 0)
(-1.75185 -0.216162 0)
(-1.12101 -0.204297 0)
(-0.520118 -0.190158 0)
(0.0447395 -0.177355 1.37297e-19)
(0.571867 -0.162058 0)
(1.06154 -0.146371 -1.31542e-19)
(1.50955 -0.130221 1.28962e-19)
(1.91385 -0.113501 0)
(2.27283 -0.096262 0)
(2.58574 -0.0792365 0)
(2.85371 -0.064134 -1.20136e-19)
(3.08102 -0.0526346 -1.18186e-19)
(3.27434 -0.0432015 0)
(3.43717 -0.0278532 -1.14456e-19)
(3.55974 0.00325719 -1.12654e-19)
(3.61694 0.0466661 1.10889e-19)
(3.59369 0.0818148 0)
(3.50554 0.0905415 0)
(3.38157 0.07122 1.05773e-19)
(3.25142 0.038386 0)
(3.13429 0.0103043 0)
(3.03644 -0.00377814 0)
(2.95524 -0.00376066 0)
(2.88506 0.00246924 -9.74811e-20)
(2.82083 0.00723047 -9.58417e-20)
(2.75949 0.00856927 0)
(2.70085 0.00764692 -9.25916e-20)
(2.6477 0.00579817 0)
(2.6041 0.00407427 0)
(2.57344 0.00281096 -8.77397e-20)
(2.55747 0.00176419 0)
(2.55584 0.00127686 -8.44767e-20)
(2.56578 0.00180549 0)
(2.58426 0.00216615 0)
(2.60922 0.00119444 -7.95587e-20)
(2.63718 0.00094052 0)
(2.6615 0.00465851 -7.62996e-20)
(2.68068 0.00677728 0)
(2.70686 0.000607562 0)
(2.74327 -0.00141927 0)
(2.76583 0.00624818 6.9826e-20)
(2.7701 -0.000246821 0)
(2.77555 -0.0180799 -6.6638e-20)
(2.76793 -0.00798853 0)
(2.71046 0.00886072 0)
(2.65072 -0.0163388 0)
(2.64851 -0.0414961 0)
(2.72982 -0.0151581 0)
(2.75962 -0.0348632 0)
(2.99247 -0.0747908 0)
(3.23067 -0.0576315 1.07776e-19)
(3.42889 0.017554 0)
(3.4951 -0.041062 0)
(0.0130816 0.913965 2.12246e-19)
(-0.0625703 0.824431 -2.1076e-19)
(-0.128924 0.632827 0)
(-0.197874 0.407267 1.38695e-19)
(-0.222365 0.16904 0)
(-0.214576 -0.0700246 6.84126e-20)
(-0.180159 -0.299697 -1.35922e-19)
(-0.122471 -0.511911 -1.34872e-19)
(-0.0581357 -0.710846 0)
(0.026858 -0.876605 -1.3267e-19)
(0.168945 -0.947804 -6.56549e-20)
(0.338413 -0.849237 0)
(0.506814 -0.5598 0)
(0.623836 -0.142396 0)
(0.654518 0.253416 0)
(0.577364 0.497976 -6.29495e-20)
(0.415433 0.571087 0)
(0.214164 0.535292 1.24055e-19)
(-0.00654286 0.472001 0)
(-0.240251 0.437299 0)
(-0.473734 0.440998 -1.20992e-19)
(-0.697182 0.462584 0)
(-0.914174 0.484151 1.18897e-19)
(-1.13272 0.501505 -5.88889e-20)
(-1.35883 0.518055 5.8374e-20)
(-1.59564 0.537173 -5.78615e-20)
(-1.84352 0.559211 -5.73509e-20)
(-2.09994 0.581728 0)
(-2.35999 0.601167 0)
(-2.61763 0.614456 5.5833e-20)
(-2.86648 0.620596 -5.54948e-20)
(-3.09934 0.621382 0)
(-3.3056 0.620796 0)
(-3.46949 0.621241 5.38283e-20)
(-3.57443 0.615948 0)
(-3.61856 0.584126 0)
(-3.62791 0.504687 -5.23453e-20)
(-3.64159 0.387029 0)
(-3.67714 0.269331 5.14133e-20)
(-3.70972 0.173907 -1.01515e-19)
(-3.67875 0.091486 0)
(-3.56749 -0.00286518 0)
(-3.41205 -0.125386 -1.96379e-19)
(-3.23649 -0.25605 -1.9404e-19)
(-3.04448 -0.366098 -1.91684e-19)
(-2.84369 -0.451463 9.4716e-20)
(-2.62448 -0.540348 -9.34175e-20)
(-2.37277 -0.635353 -2.76847e-19)
(-2.11568 -0.695386 1.82299e-19)
(-1.8121 -0.767454 8.99226e-20)
(-1.49956 -0.81845 0)
(-1.15999 -0.873893 -8.77101e-20)
(-0.785805 -0.928349 8.68631e-20)
(-0.380602 -0.976889 0)
(0.0724621 -1.01517 0)
(0.558934 -1.02671 0)
(1.05893 -1.00552 -8.26268e-20)
(1.55487 -0.950068 0)
(2.02915 -0.859965 1.61963e-19)
(2.46827 -0.751693 0)
(2.86353 -0.663339 1.58832e-19)
(3.22031 -0.611169 0)
(3.55375 -0.566335 -1.55987e-19)
(3.87403 -0.499966 0)
(4.1622 -0.424084 1.5342e-19)
(4.39981 -0.358761 -7.61886e-20)
(4.60291 -0.296526 0)
(4.77498 -0.207705 -1.49805e-19)
(4.83406 -0.0735603 -7.40865e-20)
(4.8126 0.111415 -7.33734e-20)
(4.79324 0.413729 0)
(4.37843 0.699782 -7.22274e-20)
(3.80444 0.758297 -7.08941e-20)
(3.41569 0.942579 0)
(2.65874 1.29766 6.92533e-20)
(2.19971 0.77451 -1.37377e-19)
(2.10129 -0.340912 0)
(1.73416 -0.404703 -6.71847e-20)
(0.997001 0.383813 0)
(0.0948939 0.984511 1.97924e-19)
(-0.675205 1.1239 0)
(-1.24911 1.00016 -1.94559e-19)
(-1.69437 0.816969 -6.43122e-20)
(-2.04444 0.650584 6.40773e-20)
(-2.3244 0.514678 1.27244e-19)
(-2.55488 0.411386 -1.26334e-19)
(-2.75154 0.3388 0)
(-2.92729 0.292584 0)
(-3.09344 0.268391 0)
(-3.25936 0.262321 3.68389e-19)
(-3.4322 0.270849 1.22007e-19)
(-3.61814 0.291109 -1.21248e-19)
(-3.82275 0.320408 0)
(-4.05018 0.356602 -1.19771e-19)
(-4.30333 0.397494 1.19227e-19)
(-4.58396 0.440945 1.18663e-19)
(-4.89266 0.484867 0)
(-5.2289 0.527262 0)
(-5.59097 0.566199 0)
(-5.97611 0.599791 1.1709e-19)
(-6.38051 0.62606 0)
(-6.79919 0.642929 -2.33615e-19)
(-7.22591 0.648271 -3.50044e-19)
(-7.65305 0.63998 2.33334e-19)
(-8.07141 0.616126 0)
(-8.47023 0.575173 1.16739e-19)
(-8.83749 0.51632 0)
(-9.16038 0.439803 2.31996e-19)
(-9.42634 0.347098 -1.15808e-19)
(-9.62442 0.241169 -1.15084e-19)
(-9.74583 0.126461 0)
(-9.78395 0.00781947 -3.37037e-19)
(-9.73403 -0.111615 2.2164e-19)
(-9.58659 -0.226499 1.08592e-19)
(-9.34622 -0.334837 0)
(-9.01768 -0.434221 1.04035e-19)
(-8.60782 -0.52263 3.04879e-19)
(-8.12538 -0.598653 0)
(-7.58013 -0.661448 1.92333e-19)
(-6.9825 -0.71078 1.86649e-19)
(-6.34303 -0.746901 1.80998e-19)
(-5.67198 -0.770417 0)
(-4.97914 -0.782224 0)
(-4.2736 -0.783408 0)
(-3.56341 -0.775223 -8.01641e-20)
(-2.85606 -0.758912 -7.77394e-20)
(-2.15855 -0.735217 0)
(-1.47693 -0.705254 -1.47451e-19)
(-0.81756 -0.670482 -1.43817e-19)
(-0.188801 -0.629765 0)
(0.405038 -0.589711 -1.37193e-19)
(0.962899 -0.544487 -2.68473e-19)
(1.48154 -0.497497 1.31415e-19)
(1.95704 -0.449386 1.28898e-19)
(2.38678 -0.400717 0)
(2.7693 -0.352205 0)
(3.10481 -0.304974 0)
(3.39533 -0.260583 1.2004e-19)
(3.64367 -0.220595 -1.18107e-19)
(3.8519 -0.185507 -2.32434e-19)
(4.02286 -0.152795 1.14374e-19)
(4.16742 -0.115971 -1.12593e-19)
(4.30736 -0.0694605 -1.10804e-19)
(4.45434 -0.0159342 0)
(4.59457 0.0358107 0)
(4.71049 0.079124 1.05652e-19)
(4.783 0.108063 0)
(4.78734 0.119501 0)
(4.70994 0.113149 -2.01235e-19)
(4.56511 0.0961404 0)
(4.38745 0.0783357 -9.7333e-20)
(4.21005 0.0663019 9.57056e-20)
(4.04956 0.0602044 0)
(3.90884 0.0561092 -9.24832e-20)
(3.78747 0.0493293 0)
(3.68747 0.0380047 0)
(3.61201 0.0232887 8.76552e-20)
(3.56155 0.00753388 -1.72073e-19)
(3.53282 -0.00681699 8.44044e-20)
(3.52207 -0.018304 0)
(3.52756 -0.0268623 0)
(3.54564 -0.0314169 -7.94978e-20)
(3.56878 -0.0302907 0)
(3.59136 -0.0271719 -7.62428e-20)
(3.62463 -0.0292084 0)
(3.68469 -0.0340667 0)
(3.75977 -0.0324146 0)
(3.8328 -0.0216968 -6.97637e-20)
(3.89614 -0.00442976 0)
(3.88829 0.0155034 6.65786e-20)
(3.79637 0.0353605 0)
(3.67077 0.0507789 0)
(3.56618 0.0532751 -1.23929e-19)
(3.43707 0.00402828 1.20855e-19)
(3.41174 -0.0413813 0)
(3.51486 -0.0845671 0)
(3.6855 -0.143767 0)
(3.85642 -0.167992 -3.23198e-19)
(4.09235 -0.104219 0)
(4.29868 -0.0984757 2.0275e-19)
(0.184539 0.49196 -1.15686e-22)
(0.510706 0.710696 2.80491e-19)
(0.835988 0.664912 0)
(1.07056 0.49308 -2.76617e-19)
(1.23097 0.24041 0)
(1.34174 -0.0236813 0)
(1.40559 -0.253205 -3.04431e-23)
(1.42836 -0.411401 1.34325e-19)
(1.43405 -0.501131 1.33347e-19)
(1.41782 -0.64366 1.32127e-19)
(1.35925 -0.806172 0)
(1.26446 -0.829259 0)
(1.13556 -0.583126 -1.2909e-19)
(1.03941 -0.122645 -2.56279e-19)
(0.924651 0.362908 2.54185e-19)
(0.729005 0.727895 0)
(0.478037 0.913213 2.50186e-19)
(0.200764 0.970368 -1.23985e-19)
(-0.0791015 0.977785 0)
(-0.331924 0.957028 2.44258e-19)
(-0.552415 0.911989 1.2091e-19)
(-0.758177 0.868868 -2.40063e-19)
(-0.973333 0.855124 -1.18824e-19)
(-1.21416 0.877799 0)
(-1.48543 0.925767 2.33852e-19)
(-1.78194 0.982418 2.31807e-19)
(-2.09231 1.03287 0)
(-2.40391 1.06695 2.27786e-19)
(-2.70551 1.07996 0)
(-2.98817 1.07145 2.23854e-19)
(-3.24506 1.04267 1.10665e-19)
(-3.47065 0.994397 0)
(-3.6593 0.925037 0)
(-3.80484 0.828498 0)
(-3.90258 0.693434 0)
(-3.95488 0.509714 0)
(-3.97445 0.286996 0)
(-3.97145 0.0707567 2.07865e-19)
(-3.94135 -0.084963 -3.08389e-19)
(-3.87991 -0.17668 0)
(-3.78725 -0.251768 0)
(-3.66127 -0.347712 0)
(-3.51047 -0.469318 -2.97776e-22)
(-3.35429 -0.59881 1.93913e-19)
(-3.19488 -0.713499 3.83348e-19)
(-3.01194 -0.810735 -3.78588e-19)
(-2.81533 -0.904673 -1.87047e-19)
(-2.61868 -0.992319 1.84425e-19)
(-2.3933 -1.05848 2.77429e-22)
(-2.16368 -1.13402 1.80079e-19)
(-1.90487 -1.20714 0)
(-1.62135 -1.29082 1.75658e-19)
(-1.30939 -1.38608 3.43228e-22)
(-0.952283 -1.49299 0)
(-0.547123 -1.59883 0)
(-0.092502 -1.66861 -1.67731e-19)
(0.398329 -1.66489 0)
(0.888393 -1.59081 0)
(1.35918 -1.46399 1.62606e-19)
(1.80156 -1.31165 3.21376e-19)
(2.20957 -1.18554 -1.58918e-19)
(2.59492 -1.10227 0)
(2.97308 -1.03469 1.56057e-19)
(3.34629 -0.949424 0)
(3.70218 -0.838771 1.5384e-19)
(4.02407 -0.733146 1.52225e-19)
(4.31237 -0.633812 -3.02656e-19)
(4.59673 -0.446482 -1.50703e-19)
(4.80385 -0.170177 0)
(4.91081 0.053177 2.95871e-19)
(4.98814 0.504689 0)
(4.80885 1.21101 4.3292e-19)
(4.46296 1.41642 2.85242e-19)
(3.75236 1.66508 2.81134e-19)
(2.81863 2.06522 -2.7739e-19)
(2.73424 0.979807 4.11432e-19)
(2.31245 0.0561211 0)
(1.09373 0.689631 0)
(-0.0774913 1.54776 -2.66133e-19)
(-0.871733 1.80468 -3.95679e-19)
(-1.33432 1.68614 0)
(-1.63596 1.42717 1.29629e-19)
(-1.85442 1.15564 0)
(-2.02616 0.920772 -3.8421e-19)
(-2.17321 0.735549 4.0791e-22)
(-2.30714 0.599694 -2.97171e-22)
(-2.43563 0.507474 2.50925e-19)
(-2.56448 0.451779 0)
(-2.69905 0.426163 -2.47386e-19)
(-2.84409 0.425469 -4.83682e-24)
(-3.00382 0.445173 0)
(-3.18175 0.480809 0)
(-3.38092 0.528776 0)
(-3.6039 0.586029 2.39689e-19)
(-3.85301 0.649522 0)
(-4.12997 0.716362 0)
(-4.43583 0.783742 0)
(-4.771 0.848905 0)
(-5.13517 0.909053 0)
(-5.52715 0.961274 2.34412e-19)
(-5.94486 1.00261 0)
(-6.38501 1.03003 2.33606e-19)
(-6.84264 1.04026 2.33428e-19)
(-7.31058 1.02989 -2.33301e-19)
(-7.77912 0.995518 0)
(-8.23564 0.934131 -2.32955e-19)
(-8.66483 0.843689 0)
(-9.04959 0.723738 -2.31931e-19)
(-9.37259 0.576114 2.30922e-19)
(-9.61817 0.405319 6.90516e-19)
(-9.77395 0.217558 0)
(-9.83276 0.0200799 6.76882e-19)
(-9.78974 -0.177785 2.23748e-19)
(-9.64446 -0.37148 0)
(-9.40169 -0.554713 4.28632e-19)
(-9.06719 -0.722889 4.1881e-19)
(-8.64898 -0.872584 -6.11532e-19)
(-8.15658 -1.00133 0)
(-7.60061 -1.10777 -1.92187e-19)
(-6.99216 -1.19153 -1.86499e-19)
(-6.34231 -1.25304 -5.43578e-19)
(-5.66164 -1.29342 0)
(-4.95999 -1.31432 0)
(-4.24621 -1.31755 0)
(-3.5278 -1.30505 -1.60606e-19)
(-2.81113 -1.27872 0)
(-2.10221 -1.24021 0)
(-1.40649 -1.19059 1.47346e-19)
(-0.729121 -1.13276 1.43722e-19)
(-0.0802244 -1.06585 0)
(0.536269 -0.995038 0)
(1.1202 -0.917865 2.68256e-19)
(1.66599 -0.836605 0)
(2.16926 -0.752441 -2.57544e-19)
(2.62524 -0.666644 -2.52836e-19)
(3.02909 -0.581007 0)
(3.37721 -0.498207 0)
(3.66885 -0.421587 2.39993e-19)
(3.90708 -0.353585 -3.01428e-23)
(4.09871 -0.293659 -2.74169e-23)
(4.25331 -0.238855 0)
(4.38237 -0.187193 4.50205e-19)
(4.49805 -0.139068 0)
(4.61146 -0.0968163 0)
(4.73113 -0.0635083 0)
(4.85783 -0.0348344 -2.11257e-19)
(4.98434 0.000659766 0)
(5.09951 0.052178 4.09027e-19)
(5.1849 0.116494 2.01131e-19)
(5.21449 0.172481 0)
(5.16539 0.200735 1.9449e-19)
(5.03619 0.199716 0)
(4.85412 0.180938 0)
(4.65927 0.155523 5.54419e-19)
(4.48168 0.127693 -3.63234e-19)
(4.33465 0.0980445 0)
(4.22068 0.0681224 -3.50416e-19)
(4.13692 0.0411798 1.7197e-19)
(4.07784 0.0194832 0)
(4.03875 0.00237963 0)
(4.01724 -0.0113249 0)
(4.00721 -0.0210379 4.76787e-19)
(3.99765 -0.0248149 0)
(3.98416 -0.0268414 1.52429e-19)
(3.9752 -0.0412204 0)
(3.98413 -0.0683212 0)
(4.0255 -0.0810745 0)
(4.08748 -0.0648772 0)
(4.13428 -0.0258597 0)
(4.11777 0.0288545 0)
(4.03239 0.0883885 2.59985e-19)
(3.89797 0.120196 0)
(3.77637 0.105176 1.23893e-19)
(3.7176 0.0277434 -3.62524e-19)
(3.73718 -0.0655709 0)
(3.8674 -0.150818 0)
(4.08031 -0.237141 2.22105e-19)
(4.25114 -0.258678 2.15391e-19)
(4.42976 -0.189206 -2.09019e-19)
(4.60949 -0.152976 -2.02678e-19)
(0.119005 -0.499067 -4.23854e-19)
(0.568899 -0.613989 -4.20232e-19)
(1.09214 -0.510189 -2.77931e-19)
(1.53611 -0.360768 -1.38021e-19)
(1.86376 -0.333834 0)
(2.10632 -0.356707 2.72267e-19)
(2.26794 -0.419862 -1.35301e-19)
(2.29347 -0.548419 0)
(2.286 -0.584956 -1.3297e-19)
(2.26428 -0.634666 0)
(2.1583 -0.683902 2.62276e-19)
(2.03888 -0.561266 0)
(1.74684 -0.302548 1.28905e-19)
(1.26657 0.231107 2.55964e-19)
(0.825907 0.905768 -2.54015e-19)
(0.45181 1.3788 0)
(0.121393 1.56433 -2.50222e-19)
(-0.138489 1.54034 0)
(-0.330684 1.41073 0)
(-0.496167 1.27339 -2.44e-19)
(-0.697205 1.20741 0)
(-0.968775 1.23719 -4.9583e-22)
(-1.31062 1.33356 0)
(-1.69975 1.45226 0)
(-2.11021 1.55822 6.21272e-22)
(-2.52029 1.63213 -2.31167e-19)
(-2.91378 1.6673 -2.29859e-19)
(-3.28032 1.66362 -2.27101e-19)
(-3.6134 1.62418 0)
(-3.90862 1.55321 -4.47307e-19)
(-4.16248 1.45512 0)
(-4.37208 1.33409 -2.20338e-19)
(-4.53546 1.19358 0)
(-4.65234 1.03601 0)
(-4.72571 0.86309 2.14531e-19)
(-4.76378 0.677531 0)
(-4.77827 0.484591 -2.1047e-19)
(-4.77609 0.290219 8.39132e-22)
(-4.74997 0.0957761 4.11579e-19)
(-4.67865 -0.100203 -4.07742e-19)
(-4.5588 -0.290375 0)
(-4.40039 -0.472534 0)
(-4.2214 -0.644151 -1.9731e-19)
(-4.03172 -0.803245 0)
(-3.82647 -0.946863 -1.91452e-19)
(-3.60552 -1.07539 1.89085e-19)
(-3.37661 -1.19381 1.86729e-19)
(-3.13578 -1.30445 0)
(-2.88227 -1.41292 -1.82078e-19)
(-2.61842 -1.5208 -1.79802e-19)
(-2.34541 -1.63652 3.5593e-19)
(-2.06112 -1.76342 -1.75384e-19)
(-1.76098 -1.91215 -1.73256e-19)
(-1.44638 -2.08171 0)
(-1.11643 -2.2404 0)
(-0.760355 -2.34149 1.67406e-19)
(-0.363148 -2.33889 0)
(0.0487089 -2.22438 0)
(0.44872 -2.02435 -3.24977e-19)
(0.816261 -1.81512 -3.21771e-19)
(1.16987 -1.68107 0)
(1.54968 -1.59175 0)
(1.94401 -1.49893 0)
(2.32586 -1.39535 0)
(2.7042 -1.2705 -3.07679e-19)
(3.09633 -1.13832 3.05807e-19)
(3.48046 -1.00762 3.02936e-19)
(3.8601 -0.784379 6.02626e-19)
(4.21738 -0.427305 0)
(4.42504 -0.0146849 1.93346e-21)
(4.47188 0.620227 0)
(4.43261 1.40751 -2.89235e-19)
(4.26705 1.93115 1.87141e-21)
(3.50747 2.60808 -2.80875e-19)
(3.0448 2.5721 2.77149e-19)
(2.9717 1.42008 2.03518e-22)
(1.73028 1.35058 0)
(0.218984 2.1749 2.68573e-19)
(-0.680674 2.48567 2.65754e-19)
(-1.12753 2.3152 5.27816e-19)
(-1.33966 1.97192 0)
(-1.45515 1.61077 -2.60539e-19)
(-1.52788 1.29235 0)
(-1.58933 1.03614 5.13315e-19)
(-1.65521 0.843193 -2.54697e-19)
(-1.73111 0.707573 2.52928e-19)
(-1.81996 0.620094 -2.51144e-19)
(-1.92318 0.572734 -4.98887e-19)
(-2.04273 0.55878 2.47603e-19)
(-2.1812 0.572717 -2.45881e-19)
(-2.34176 0.609597 0)
(-2.52685 0.664988 4.85101e-19)
(-2.73849 0.735137 0)
(-2.9788 0.816613 4.79305e-19)
(-3.25005 0.9061 -4.76801e-19)