/*--------------------------------*- C++ -*----------------------------------*\
  =========                 |
  \\      /  F ield         | OpenFOAM: The Open Source CFD Toolbox
   \\    /   O peration     | Website:  https://openfoam.org
    \\  /    A nd           | Version:  9
     \\/     M anipulation  |
\*---------------------------------------------------------------------------*/
FoamFile
{
    format      ascii;
    class       volScalarField;
    location    "0.24";
    object      epsilonU;
}
// * * * * * * * * * * * * * * * * * * * * * * * * * * * * * * * * * * * * * //

dimensions      [0 2 -3 0 0 0 0];

internalField   nonuniform List<scalar> 
12225
(
222.78
168.072
130.223
104.625
88.2378
79.0072
75.4998
76.6824
81.816
90.4064
102.174
117.01
134.876
155.572
178.289
200.835
219.507
245.474
40.0572
49.0884
53.4804
58.5723
67.0938
81.161
102.98
135.013
179.978
240.806
320.511
421.746
545.661
689.748
844.899
992.967
1108.99
1158.9
19.9345
24.0202
26.9487
29.4659
32.2392
35.8658
40.9831
48.3521
58.9404
74.0317
95.3356
125.012
165.484
218.908
286.326
366.767
456.957
551.804
15.8973
17.2489
18.4607
19.5502
20.6457
21.901
23.4895
25.6167
28.5462
32.6423
38.4334
46.6753
58.3673
74.6428
96.5004
124.491
158.659
198.889
14.8222
15.0669
15.4043
15.7657
16.1489
16.5814
17.1084
17.7906
18.7074
19.9682
21.7326
24.2378
27.8276
32.9586
40.1559
49.8927
62.5066
78.0593
14.5175
14.3221
14.2325
14.2088
14.2318
14.2973
14.4123
14.593
14.8641
15.2613
15.8355
16.6611
17.8461
19.5421
21.949
25.3036
29.8637
35.82
14.4333
14.0759
13.7931
13.5717
13.4004
13.2722
13.1847
13.1403
13.1458
13.2131
13.3598
13.6116
14.0051
14.5913
15.4386
16.635
18.289
20.5011
14.4113
14.0002
13.6398
13.3267
13.0564
12.8247
12.6289
12.4681
12.3432
12.2579
12.2179
12.2324
12.3148
12.4836
12.7642
13.1898
13.8029
14.6396
14.4059
13.979
13.5913
13.2409
12.9257
12.6433
12.3918
12.1699
11.9773
11.8144
11.6829
11.586
11.5282
11.5165
11.5607
11.674
11.8738
12.1734
14.4046
13.9735
13.5774
13.214
12.8811
12.5769
12.2996
12.048
11.8213
11.6191
11.4416
11.2895
11.1642
11.0681
11.0048
10.9795
10.9995
11.0699
14.4044
13.9723
13.574
13.2066
12.8677
12.5553
12.2676
12.0031
11.7609
11.5402
11.3404
11.1615
11.0034
10.8669
10.753
10.6636
10.6016
10.5692
14.4043
13.9721
13.5734
13.205
12.8646
12.5497
12.2586
11.9897
11.7417
11.5136
11.3047
11.1144
10.9423
10.7882
10.6525
10.5355
10.4386
10.3627
14.4043
13.9721
13.5733
13.2048
12.8639
12.5484
12.2561
11.9855
11.7352
11.504
11.2909
11.0952
10.9161
10.7533
10.6064
10.4753
10.3604
10.2622
14.4043
13.9721
13.5734
13.2049
12.8641
12.5484
12.256
11.9849
11.7338
11.5014
11.2866
11.0885
10.9063
10.7392
10.5868
10.4487
10.3246
10.215
14.4043
13.9721
13.5734
13.2051
12.8644
12.5489
12.2566
11.9856
11.7344
11.5017
11.2863
11.0873
10.9036
10.7346
10.5796
10.438
10.3093
10.1939
14.4042
13.972
13.5735
13.2053
12.8648
12.5495
12.2574
11.9867
11.7356
11.503
11.2875
11.0881
10.9038
10.7338
10.5773
10.4336
10.3022
10.1834
14.4042
13.9719
13.5734
13.2054
12.8651
12.5501
12.2583
11.9879
11.7372
11.5048
11.2893
11.0898
10.9052
10.7345
10.577
10.4318
10.2984
10.177
14.404
13.9717
13.5732
13.2054
12.8653
12.5507
12.2593
11.9893
11.739
11.507
11.2918
11.0923
10.9075
10.7364
10.578
10.4316
10.2965
10.173
14.4038
13.9714
13.5729
13.2052
12.8654
12.5512
12.2603
11.9908
11.741
11.5095
11.2947
11.0954
10.9106
10.7392
10.5803
10.4329
10.2964
10.1711
14.4036
13.9711
13.5726
13.205
12.8655
12.5516
12.2612
11.9922
11.7429
11.5117
11.2973
11.0983
10.9135
10.742
10.5827
10.4347
10.2974
10.171
14.4035
13.9709
13.5724
13.205
12.8658
12.5523
12.2622
11.9936
11.7448
11.514
11.2999
11.1011
10.9165
10.7449
10.5855
10.4372
10.2993
10.1722
14.4034
13.9708
13.5725
13.2053
12.8665
12.5534
12.2639
11.9959
11.7476
11.5175
11.304
11.1058
10.9217
10.7506
10.5915
10.4435
10.3057
10.1785
14.4034
13.971
13.5733
13.207
12.8694
12.5579
12.2701
12.0041
11.758
11.53
11.3187
11.1227
10.9406
10.7715
10.6142
10.4678
10.3315
10.2057
14.4039
13.9734
13.5793
13.2183
12.8875
12.5839
12.3051
12.0485
11.812
11.5936
11.3916
11.2045
11.0309
10.8696
10.7197
10.5801
10.4501
10.3298
14.4092
13.9932
13.6221
13.2902
12.9918
12.7219
12.4764
12.2518
12.0452
11.8546
11.678
11.5142
11.3618
11.2199
11.0877
10.9642
10.8491
10.7424
14.4517
14.1226
13.8617
13.6461
13.46
13.2927
13.1377
12.9917
12.854
12.7242
12.6018
12.4866
12.3787
12.278
12.1842
12.0971
12.0164
11.9423
14.7342
14.8066
14.9272
15.0337
15.1092
15.1541
15.1744
15.1783
15.1716
15.16
15.1481
15.1403
15.1414
15.1513
15.1693
15.1946
15.2263
15.2637
16.3981
17.9248
19.0257
19.7743
20.2956
20.6852
21.0107
21.319
21.641
21.9946
22.3888
22.8248
23.2973
23.8008
24.3288
24.8741
25.4333
26.0109
27.1628
32.5192
34.6929
35.6788
36.3681
37.165
38.266
39.7597
41.6707
43.9862
46.6701
49.6723
52.9339
56.3909
59.9807
63.644
67.3314
70.9664
142.554
119.615
101.724
87.6889
76.677
68.0726
61.4084
56.3184
52.508
49.7363
47.8039
46.544
45.817
45.5059
45.5133
45.7582
46.1748
46.7071
24.5251
8.63997
44.2449
53.9573
59.086
59.7006
60.3484
62.313
65.9826
71.6291
79.604
90.4183
104.873
121.986
138.739
153.272
162.871
163.778
151.4
121.483
74.2752
38.6444
5.1808
4.59644
4.83355
5.22606
5.73559
6.25878
6.33207
6.08471
5.78648
5.61795
5.7277
6.14773
6.80891
7.72521
42.8006
110.87
262.065
434.357
616.853
793.326
951.999
1085.49
1190.09
1264.93
1311.13
1331.12
1328.11
1305.67
1267.48
1217.08
1157.69
1092.11
1022.66
955.188
889.9
826.956
766.54
708.802
653.848
601.741
552.512
506.158
462.65
421.938
383.946
348.579
315.72
285.234
256.969
230.765
206.465
183.918
162.999
143.616
125.712
109.277
94.3359
80.9558
69.2645
59.537
52.4289
50.0776
46.7597
10.7227
10.6885
46.8174
10.7946
10.8379
10.772
10.4527
10.0761
9.75505
9.6696
10.3498
50.1758
56.0445
60.7979
64.8983
68.4127
70.5936
68.6817
57.4626
10.5451
8.73036
7.29904
6.1987
5.40904
4.90805
4.65614
4.59716
4.67013
4.82194
5.00967
5.18844
5.33648
5.4521
5.5464
5.64047
5.76688
5.97441
6.33482
6.95057
7.95852
9.26195
11.1533
55.5618
62.4012
67.3483
69.9135
70.2831
80.3913
156.484
314.141
451.288
542.053
580.687
574.755
536.849
479.861
414.25
351.53
294.186
243.354
199.423
162.213
131.183
105.654
85.0583
69.351
14.4429
64.3776
78.626
98.873
126.266
162.145
207.282
261.286
322.999
391.957
455.016
475.109
436.412
342.546
222.369
117.584
13.9122
8.7713
6.82898
6.22377
5.58451
5.00699
4.53884
4.00142
3.40659
2.9489
2.93797
3.3866
4.1039
16.0812
15.7729
68.4063
91.8835
83.2946
70.9579
60.455
51.8068
44.6421
38.7993
34.1742
30.6329
28.0552
27.2429
30.0981
36.5006
45.6804
56.1448
65.6117
71.0908
69.8776
63.4306
51.3992
37.0995
24.2268
15.9128
16.5866
21.7553
24.813
24.7449
21.2486
23.8564
42.5043
89.1449
146.46
178.364
205.998
236.074
269.797
297.579
316.036
323.391
319.71
306.259
284.985
258.11
227.88
196.422
165.682
137.375
112.925
93.3699
79.2642
70.6488
67.3764
65.5914
63.9919
62.5406
61.2176
60.0083
58.9015
57.8887
56.9633
56.1191
55.3491
54.645
53.9945
53.3808
52.7802
52.1612
51.4839
50.7004
49.7574
48.6009
47.1833
45.4713
43.454
41.149
38.6033
35.8897
33.0981
30.3239
27.6496
25.124
22.7514
20.0644
18.4602
17.564
15.7139
14.2733
12.5431
11.2895
10.3371
9.5908
9.07179
9.01431
9.8324
10.2192
10.3494
10.3361
10.2455
10.1255
10.1514
10.1335
8.80107
7.88016
7.30733
7.03366
7.0315
7.27229
7.70997
8.27674
8.89057
9.46975
9.94759
10.2911
10.495
10.5661
10.5152
10.351
10.0769
9.69487
9.21653
8.67697
8.14759
7.70469
7.507
7.94638
8.75675
11.2508
19.8081
44.224
85.4046
120.258
144.456
148.134
134.245
110.36
84.3633
62.5476
48.5978
43.6331
42.3075
41.402
40.8743
40.6641
40.6639
40.705
40.5587
39.9645
38.6519
35.6455
34.4004
32.3971
30.4431
28.7885
27.5665
26.8282
26.55
26.6674
27.2136
29.3812
42.935
59.398
69.1239
69.758
66.9334
65.5548
73.5342
82.8755
83.5259
72.0131
53.864
36.175
23.0433
15.0389
10.6231
8.86553
9.21534
9.88523
13.7137
83.1475
132.217
102.927
71.6189
51.0493
38.2435
29.9246
24.252
20.27
17.4361
15.4108
13.9761
13.0673
13.1394
14.6239
18.0106
23.408
30.2072
37.0445
42.2195
44.845
43.9371
39.1552
32.4363
27.0727
28.1766
37.3779
44.7963
54.6928
85.5588
111.372
126.926
139.139
147.437
151.864
155.629
158.743
159.513
155.74
147.035
133.982
117.885
100.393
83.1667
67.5888
54.5649
44.4603
37.1794
32.3328
29.4067
27.8844
27.3183
27.3637
27.6831
28.0531
28.4493
28.8666
29.3046
29.7669
30.2596
30.7908
31.3696
32.0046
32.7032
33.4697
34.3036
35.1982
36.1376
37.0947
38.0291
38.8853
39.5944
40.077
40.2514
40.044
39.4027
38.3079
36.7796
34.8766
32.6863
30.308
27.8339
25.3414
22.9025
20.8178
19.0107
17.3798
15.8744
14.4988
13.2288
12.1063
11.1213
10.26
9.51964
8.91018
8.41741
7.97623
7.56666
7.18391
6.82817
6.50158
6.20675
5.92805
5.64042
5.38909
5.17363
4.99288
4.8484
4.74088
4.66849
4.62671
4.60925
4.6091
4.61931
4.63343
4.64568
4.65059
4.64306
4.61828
4.57099
4.49582
4.39076
4.26443
4.14647
4.10266
4.27335
4.99829
7.21011
13.7298
29.9792
55.322
72.187
78.9306
77.5532
66.9467
52.3337
39.5677
31.4141
27.5536
26.4674
26.7581
27.3319
28.0216
28.8203
29.7176
30.67
31.5739
32.2472
32.4346
31.8088
30.3138
28.4513
26.2109
23.831
21.5024
19.3411
17.4037
15.7073
14.2514
13.0453
12.1354
11.8784
13.9322
18.0347
21.9522
24.4737
25.9464
27.3705
28.7338
30.1435
31.2775
30.8061
27.9139
23.1236
17.6169
13.547
11.7855
11.6754
11.2457
13.899
128.049
90.384
55.8715
36.7082
26.3061
20.117
16.0923
13.3395
11.396
9.98364
8.93501
8.15667
7.61665
7.53016
8.01735
9.40282
12.0781
16.1629
21.2186
26.3794
30.947
34.328
36.0299
36.5071
39.5736
49.9049
79.3792
117.132
114.155
110.266
110.487
109.896
108.752
106.976
104.516
101.35
96.7919
90.1446
81.2638
70.8068
59.8284
49.4391
40.4971
33.4483
28.3357
24.9239
22.8495
21.7373
21.2662
21.1923
21.3463
21.6202
21.953
22.2731
22.5606
22.8127
23.0323
23.2277
23.4128
23.6055
23.8268
24.0997
24.4477
24.8934
25.4576
26.1573
27.0037
27.9995
29.1357
30.3868
31.7075
33.0289
34.2595
35.289
36.0005
36.2871
36.0719
35.3251
34.0716
32.3857
30.373
28.146
25.8038
23.501
21.5226
19.7092
18.0459
16.5292
15.1514
13.903
12.7773
11.765
10.8563
10.0425
9.31668
8.66966
8.08974
7.56725
7.09513
6.66809
6.28176
5.9322
5.61405
5.32198
5.05403
4.80954
4.58899
4.39097
4.214
4.05661
3.91754
3.79562
3.68959
3.59796
3.5188
3.44978
3.38827
3.33184
3.27886
3.22912
3.18447
3.1511
3.1457
3.21002
3.44292
4.08019
5.73035
10.0279
20.2117
37.05
51.3035
55.2038
54.0311
47.7017
38.1205
29.7735
24.7585
22.5387
21.8471
21.7556
21.8388
21.9918
22.2157
22.5358
22.9789
23.5477
24.1869
24.7534
25.0015
24.6276
23.7075
22.3309
20.6356
18.8077
17.0003
15.3093
13.7821
12.4346
11.266
10.269
9.44103
8.79875
8.47785
8.76295
9.66699
10.7775
11.6264
12.0807
12.2971
12.5917
13.0877
13.4993
13.5138
13.3303
13.4365
13.5081
13.2818
12.7723
11.8193
15.3464
59.4708
36.7531
24.7767
18.8848
15.3399
12.8718
11.0403
9.63045
8.50315
7.57184
6.79887
6.17659
5.70722
5.49252
5.60823
6.23752
7.69684
10.2857
13.997
18.4979
23.6125
29.4173
36.7605
50.2229
72.8736
116.67
132.383
111.909
97.9507
89.9539
85.1386
81.3851
78.0172
74.4779
70.3409
65.3125
59.2263
52.252
44.9189
37.9307
31.8866
27.1266
23.7068
21.4752
20.1783
19.5505
19.3651
19.4529
19.6986
20.0284
20.3952
20.7671
21.0857
21.3048
21.4134
21.4101
21.3021
21.1059
20.8456
20.5512
20.2564
19.9966
19.8078
19.7253
19.7832
20.014
20.4464
21.104
22.0015
23.14
24.5008
26.0378
27.672
29.2887
30.7432
31.8778
32.5474
32.6507
32.1548
31.0986
29.5796
27.7187
25.6358
23.6461
21.8034
20.0686
18.4558
16.9714
15.6139
14.3776
13.2548
12.2369
11.315
10.4805
9.72551
9.04258
8.42436
7.86416
7.35614
6.89517
6.47678
6.09698
5.75175
5.43683
5.14831
4.88284
4.63784
4.41163
4.20342
4.01296
3.83973
3.68297
3.54173
3.41496
3.30147
3.20001
3.10953
3.02955
2.96092
2.90667
2.87361
2.87567
2.94266
3.14038
3.61847
4.73642
7.39153
13.4861
24.7289
37.3407
42.9979
42.7866
39.3251
32.93
26.3683
22.0423
19.9511
19.0996
18.6989
18.4016
18.1501
17.9253
17.7502
17.665
17.7219
17.9552
18.3446
18.7757
19.0083
18.8375
18.2417
17.261
16.019
14.6647
13.3206
12.0638
10.9314
9.93429
9.06931
8.32711
7.69838
7.17676
6.76864
6.52758
6.47316
6.58328
6.75422
6.88379
6.96485
7.0772
7.29331
7.629
8.16261
9.23788
11.2271
13.4421
14.3409
13.718
12.6083
17.4169
27.3689
20.5803
17.4785
15.1948
13.2122
11.4628
9.98408
8.75619
7.70549
6.77517
5.96215
5.2902
4.7933
4.55137
4.59405
5.02497
6.08024
8.07105
11.1709
15.3815
21.1408
30.5703
48.5772
72.7675
110.54
122.377
104.051
85.6113
74.4953
67.8707
63.4756
59.9048
56.4208
52.5754
48.1865
43.308
38.1893
33.2246
28.8282
25.2995
22.7517
21.129
20.2703
19.9787
20.0725
20.4092
20.8891
21.4466
22.0378
22.6295
23.1921
23.6971
24.0129
24.1276
24.0264
23.707
23.1821
22.4801
21.6427
20.721
19.7698
18.843
17.9903
17.2569
16.6834
16.308
16.1666
16.2925
16.7147
17.4547
18.5212
19.9025
21.5541
23.3883
25.2673
27.0104
28.4161
29.3035
29.565
29.1767
28.2074
26.7715
25.0838
23.4112
21.7505
20.146
18.6279
17.2118
15.9029
14.7003
13.5992
12.5935
11.6759
10.8393
10.0769
9.38203
8.7487
8.17126
7.64457
7.16405
6.72548
6.32496
5.95865
5.6228
5.31391
5.02898
4.76552
4.52168
4.29616
4.08792
3.89646
3.72125
3.56143
3.41613
3.2845
3.16595
3.06038
2.96876
2.8938
2.84111
2.8214
2.85598
2.98915
3.3148
4.03938
5.64684
9.19717
16.201
26.1455
34.1193
35.8347
34.2809
30.3831
25.1562
20.9126
18.5395
17.4387
16.844
16.3602
15.8807
15.428
14.9744
14.5483
14.199
13.9981
14.0024
14.2142
14.5372
14.746
14.7021
14.329
13.6425
12.7372
11.7319
10.7264
9.78366
8.93347
8.18369
7.53052
6.96539
6.47896
6.06319
5.71315
5.44328
5.24784
5.11657
5.0292
4.96445
4.92252
4.9314
5.03327
5.28701
5.84702
7.13114
9.67091
12.9326
14.8724
14.6478
13.6724
19.4013
20.4691
19.0164
17.1601
15.1395
13.1206
11.3065
9.84362
8.65686
7.59211
6.5671
5.61576
4.78001
4.25064
4.14142
4.38675
5.06289
6.4268
8.81058
12.1649
17.1456
25.7478
41.0105
63.2884
89.4161
103.138
92.0873
75.2971
63.3376
56.2044
51.698
48.3185
45.199
41.9319
38.4048
34.722
31.1171
27.8672
25.2165
23.3111
22.1733
21.7206
21.8116
22.2921
23.0281
23.9193
24.8971
25.9155
26.9392
27.9349
28.8666
29.6944
30.2953
30.642
30.6948
30.4191
29.7976
28.8365
27.5685
26.0521
24.365
22.5945
20.8264
19.1372
17.5908
16.2401
15.1309
14.3034
13.793
13.6286
13.833
14.4223
15.4048
16.7708
18.4751
20.4187
22.4392
24.3148
25.796
26.7026
26.9265
26.4931
25.5131
24.2798
22.8972
21.4529
20.0131
18.6201
17.2986
16.0607
14.9105
13.8473
12.8677
11.9669
11.1394
10.3799
9.68296
9.04354
8.45684
7.91846
7.42429
6.97055
6.55366
6.17021
5.81696
5.49086
5.18921
4.9097
4.65048
4.41013
4.18757
3.98184
3.79245
3.61868
3.45981
3.31531
3.1851
3.06987
2.97167
2.89472
2.8468
2.84255
2.91096
3.11095
3.56377
4.53205
6.58782
10.7344
17.6722
25.4834
30.2128
30.3582
28.419
24.7781
20.7568
17.9538
16.5099
15.7711
15.2268
14.6849
14.1132
13.5358
12.936
12.3462
11.8229
11.4509
11.3077
11.4
11.6235
11.8322
11.884
11.6858
11.23
10.582
9.83539
9.07312
8.34933
7.69072
7.10522
6.59048
6.13962
5.74475
5.39906
5.09788
4.84163
4.63674
4.46719
4.32118
4.19239
4.08778
4.02943
4.05024
4.21355
4.68609
5.87651
8.39426
12.042
14.8597
15.4077
14.8277
21.2284
20.4918
19.9304
17.8418
15.633
13.4837
11.6826
10.3271
9.21211
8.11325
6.96722
5.90125
5.2011
5.13776
5.42044
6.15789
7.42467
9.32714
12.0959
16.3255
23.3459
34.8236
51.4023
70.3276
81.5365
77.7542
65.8674
55.1575
48.1493
43.7808
40.6697
37.9769
35.3154
32.6053
29.9446
27.5157
25.5097
24.0721
23.2703
23.0853
23.4283
24.1748
25.1997
26.4005
27.7067
29.0747
30.4766
31.8894
33.2855
34.6282
35.8702
36.9557
37.7671
38.3048
38.4953
38.2681
37.5713
36.3839
34.7262
32.6632
30.2991
27.7604
25.1741
22.6476
20.2616
18.0777
16.1514
14.5404
13.3014
12.4775
12.0907
12.1434
12.6351
13.5657
14.9225
16.6526
18.6428
20.6977
22.5239
23.8886
24.5965
24.6285
24.1302
23.2741
22.1881
20.9783
19.7225
18.4735
17.2641
16.1129
15.0293
14.0163
13.0736
12.199
11.3889
10.6396
9.94713
9.30744
8.71672
8.17129
7.6677
7.20264
6.77299
6.37575
6.00807
5.66728
5.35101
5.05719
4.78412
4.53042
4.29497
4.07682
3.87518
3.68956
3.51941
3.36447
3.22509
3.10264
3.00011
2.92299
2.88112
2.89302
2.99533
3.26081
3.83596
5.02683
7.42424
11.7977
18.0599
23.8643
26.6203
26.237
24.2969
21.1235
18.0441
16.1097
15.1453
14.58
14.074
13.5149
12.8853
12.2112
11.5039
10.8091
10.1804
9.70082
9.47221
9.47614
9.65065
9.87774
10.0218
9.97869
9.7155
9.26964
8.71458
8.12239
7.54405
7.00751
6.5239
6.0943
5.71467
5.37896
5.0813
4.81709
4.58348
4.38141
4.20472
4.04265
3.88943
3.75038
3.64598
3.61191
3.70813
4.08188
5.09846
7.36131
10.9717
14.3705
15.8098
15.819
22.9965
22.0465
21.11
18.6995
16.3514
14.2372
12.5802
11.3694
10.3369
9.29645
8.31264
7.60402
7.40369
7.5124
8.07385
9.12538
10.7531
13.1772
16.8638
22.5602
31.1092
42.7387
55.3912
63.6159
63.384
56.7665
48.696
42.4424
38.3189
35.4677
33.153
31.0212
28.9929
27.1391
25.5878
24.4634
23.8481
23.7624
24.1634
24.9602
26.0423
27.3076
28.681
30.1191
31.6037
33.1297
34.6941
36.2867
37.885
39.451
40.93
42.2466
43.3845
44.2929
44.8664
44.9923
44.5653
43.5077
41.7912
39.457
36.6233
33.4711
30.2043
26.9968
23.9567
21.1302
18.5396
16.2261
14.2698
12.7635
11.7696
11.2882
11.2934
11.7663
12.7004
14.0727
15.822
17.8165
19.7493
21.3594
22.3884
22.7991
22.6888
22.1708
21.3684
20.3908
19.3229
18.2247
17.1358
16.0802
15.0716
14.1169
13.2186
12.3769
11.5905
10.8571
10.1743
9.5391
8.94878
8.40042
7.89121
7.41842
6.97938
6.57152
6.1924
5.8397
5.51134
5.20547
4.92052
4.65513
4.4082
4.17877
3.9661
3.76977
3.5894
3.42502
3.27742
3.1486
3.04235
2.96535
2.92943
2.95692
3.09136
3.41726
4.10084
5.47014
8.07089
12.3708
17.7327
21.9494
23.5513
23.026
21.3138
18.6896
16.2881
14.8538
14.1572
13.7204
13.2714
12.7038
12.0045
11.2395
10.433
9.66999
8.99755
8.48493
8.19716
8.15713
8.3232
8.5966
8.84578
8.95185
8.85492
8.56728
8.14766
7.66397
7.16974
6.69845
6.26721
5.88212
5.54252
5.24405
4.98111
4.74831
4.54077
4.35312
4.17882
4.01021
3.84157
3.67648
3.53205
3.44521
3.48094
3.76821
4.61084
6.55132
9.87814
13.5199
15.7465
16.436
24.8326
23.8581
22.3885
19.6803
17.2739
15.2881
13.8103
12.7759
11.9526
11.1783
10.4984
10.0799
10.0761
10.3625
11.1622
12.561
14.7249
17.9338
22.5654
28.9324
36.8237
44.7914
50.2515
51.2892
48.2265
43.1199
38.174
34.4631
31.8384
29.8166
28.0939
26.5855
25.3285
24.4019
23.8775
23.7918
24.1328
24.8413
25.826
26.9875
28.2429
29.5391
30.8547
32.1922
33.5661
34.9916
36.4775
38.0216
39.6088
41.2099
42.7796
44.2709
45.7068
47.0083
48.066
48.7469
48.9028
48.3881
47.0858
44.9456
42.0254
38.5147
34.7071
30.9121
27.3477
24.0919
21.1216
18.3907
15.9312
13.8625
12.3287
11.3694
10.9466
11.0128
11.5478
12.5378
13.9534
15.7343
17.6004
19.222
20.4293
21.1217
21.3083
21.0699
20.5153
19.7498
18.8599
17.9091
16.9407
15.9829
15.0527
14.16
13.3101
12.5055
11.7467
11.0331
10.3637
9.73676
9.15041
8.60258
8.09115
7.61393
7.16875
6.75344
6.36593
6.00421
5.66647
5.35102
5.05641
4.78135
4.52477
4.28576
4.06366
3.85808
3.66885
3.49626
3.34151
3.20714
3.09771
3.02095
2.99054
3.03214
3.19496
3.57219
4.34171
5.831
8.50163
12.5395
17.0055
20.0546
20.9912
20.4762
19.0496
16.9528
15.0735
13.9503
13.3948
13.0245
12.5916
11.9886
11.2393
10.4363
9.61463
8.82268
8.12279
7.58736
7.28414
7.24578
7.44672
7.80067
8.17395
8.42729
8.47261
8.30102
7.96372
7.53183
7.06712
6.61225
6.19226
5.81901
5.4952
5.2177
4.98048
4.77645
4.59797
4.43617
4.27888
4.11484
3.93999
3.75778
3.58348
3.45039
3.42461
3.62826
4.3122
5.93306
8.85725
12.4485
15.2197
16.5652
26.3283
25.7539
23.7807
20.7621
18.2661
16.3618
15.0313
14.1807
13.6214
13.1968
12.896
12.8356
12.9628
13.5403
14.689
16.5264
19.1922
22.808
27.3537
32.4625
37.2936
40.7507
42.0096
40.9332
38.1419
34.7272
31.6517
29.2756
27.4687
26.0347
24.892
24.0497
23.5474
23.4167
23.6601
24.2422
25.0924
26.1189
27.2314
28.361
29.4719
30.56
31.6439
32.7517
33.9093
35.1326
36.4254
37.7813
39.1874
40.6266
42.0752
43.5542
45.056
46.5287
47.8869
49.01
49.7465
49.9231
49.3577
47.8877
45.4276
42.0532
38.0501
33.8471
29.8405
26.2383
23.058
20.1729
17.5056
15.1227
13.225
11.9183
11.1716
10.9218
11.131
11.789
12.8791
14.3347
15.9773
17.557
18.843
19.6941
20.0787
20.0475
19.6909
19.1051
18.3728
17.5572
16.7028
15.8395
14.9866
14.1563
13.356
12.59
11.8608
11.1694
10.5158
9.89965
9.31994
8.77539
8.26454
7.78574
7.33727
6.91737
6.52429
6.15631
5.81182
5.48931
5.18743
4.90496
4.64088
4.39431
4.16465
3.95158
3.75505
3.57562
3.41482
3.27567
3.16339
3.08667
3.06073
3.11385
3.29913
3.7148
4.5422
6.09164
8.72792
12.4152
16.0969
18.3202
18.8679
18.411
17.271
15.6358
14.1518
13.2195
12.718
12.3526
11.9042
11.29
10.5406
9.73359
8.91114
8.11893
7.42198
6.89774
6.6187
6.6251
6.90328
7.37269
7.88834
8.28353
8.44164
8.33925
8.02955
7.59503
7.11081
6.63097
6.18895
5.80186
5.47498
5.20564
4.98669
4.80886
4.66151
4.53228
4.40659
4.26692
4.1048
3.92499
3.7413
3.58153
3.50515
3.62799
4.16438
5.48843
7.96972
11.2958
14.3171
16.1923
27.414
27.5814
25.2637
21.9852
19.3522
17.4302
16.1471
15.3967
15.0324
14.9229
15.0094
15.2784
15.7874
16.7269
18.184
20.2074
22.7813
25.7808
28.9351
31.847
34.0782
35.258
35.1773
33.8958
31.8103
29.5133
27.4729
25.8518
24.6153
23.7157
23.147
22.922
23.0446
23.4942
24.2194
25.1413
26.1668
27.2097
28.21
29.1438
30.0216
30.8774
31.7526
32.6816
33.6803
34.742
35.8427
36.9545
38.0584
39.1558
40.272
41.4725
42.7612
44.1179
45.4845
46.7609
47.8107
48.4715
48.5592
47.8661
46.1855
43.4174
39.7064
35.4765
31.2557
27.4082
24.0911
21.1823
18.5141
16.0658
14.024
12.5559
11.6246
11.1696
11.1283
11.4924
12.2824
13.4661
14.9048
16.3739
17.6429
18.5527
19.0461
19.1502
18.9377
18.4931
17.892
17.1938
16.4417
15.6654
14.8853
14.1147
13.3627
12.6353
11.9361
11.2678
10.6315
10.0278
9.4566
8.91741
8.40934
7.93127
7.48192
7.05989
6.66372
6.29194
5.94313
5.61594
5.30911
5.02149
4.75209
4.50009
4.26493
4.0463
3.84429
3.65966
3.49419
3.35129
3.23669
3.15986
3.13717
3.19854
3.39906
3.83828
4.69394
6.24986
8.78104
12.0997
15.1452
16.7961
17.1058
16.7065
15.8176
14.5642
13.385
12.5769
12.0816
11.6882
11.2227
10.6148
9.88122
9.08765
8.2803
7.5091
6.84141
6.35876
6.13886
6.22986
6.6259
7.24286
7.91259
8.4335
8.66316
8.57471
8.23563
7.7479
7.20316
6.66687
6.17933
5.76121
5.41895
5.14958
4.94458
4.79265
4.68062
4.59319
4.51305
4.42156
4.30019
4.15065
3.98625
3.82782
3.72284
3.77509
4.17215
5.22207
7.26116
10.1861
13.1796
15.3841
28.0238
29.1603
26.7691
23.4
20.6739
18.6949
17.3915
16.6666
16.4008
16.4806
16.8248
17.3076
18.0602
19.125
20.513
22.1899
24.0698
26.0193
27.8712
29.4372
30.5146
30.9098
30.5119
29.3949
27.8439
26.2277
24.8216
23.7409
23.005
22.6144
22.5688
22.8569
23.4453
24.2738
25.2575
26.2996
27.3111
28.2312
29.0391
29.7546
30.4264
31.1143
31.8698
32.7184
33.6484
34.6101
35.5322
36.3535
37.0522
37.6695
38.3119
39.0651
39.9603
40.9999
42.1499
43.3314
44.4218
45.271
45.7171
45.572
44.5915
42.557
39.4495
35.5818
31.4967
27.6293
24.2729
21.4098
18.8382
16.5274
14.5654
13.0608
12.046
11.4672
11.2634
11.4328
12.0108
12.9871
14.2473
15.5873
16.7869
17.6861
18.2179
18.3954
18.2773
17.9359
17.4378
16.8367
16.1722
15.4726
14.758
14.0424
13.3357
12.645
11.9753
11.3301
10.7117
10.1214
9.56011
9.02784
8.5243
8.04886
7.60062
7.17852
6.78137
6.40793
6.05695
5.72721
5.41755
5.12688
4.85425
4.59888
4.36024
4.13802
3.93241
3.74428
3.57563
3.43008
3.31377
3.23667
3.21581
3.28177
3.4897
3.93725
4.79339
6.31228
8.69693
11.6716
14.2282
15.4889
15.6433
15.2802
14.5858
13.6324
12.6923
11.9774
11.4737
11.0438
10.5586
9.95726
9.24651
8.48022
7.70428
6.97222
6.35561
5.94132
5.81362
6.02807
6.58055
7.37075
8.19309
8.80584
9.04999
8.91231
8.48841
7.90557
7.27159
6.66041
6.11611
5.66052
5.3
5.03094
4.8439
4.72621
4.66272
4.63553
4.62407
4.60677
4.56203
4.47184
4.35304
4.22067
4.10835
4.10226
4.36595
5.15764
6.77167
9.22365
11.9688
14.2696
27.9749
30.1349
28.0583
24.8913
22.2379
20.2547
18.9044
18.1213
17.8101
17.8638
18.128
18.6112
19.3062
20.2002
21.2716
22.4832
23.7807
25.0898
26.3091
27.3027
27.9102
27.993
27.5093
26.5672
25.3993
24.2632
23.3467
22.7413
22.4762
22.5539
22.9592
23.6556
24.5812
25.6493
26.7577
27.8071
28.7229
29.4722
30.0694
30.5687
31.0466
31.5797
32.2226
32.9897
33.8456
34.7109
35.4818
36.0657
36.4173
36.5659
36.7199
37.0147
37.4786
38.1084
38.8977
39.8025
40.7223
41.5154
42.0338
42.1222
41.5472
40.0581
37.5589
34.2453
30.5853
27.0476
23.8855
21.1176
18.6646
16.4929
14.6608
13.2502
12.2745
11.6733
11.395
11.4578
11.9125
12.757
13.8847
15.104
16.2102
17.0548
17.5744
17.7772
17.7121
17.4406
17.0196
16.4954
15.9032
15.2689
14.6113
13.9445
13.2788
12.6221
11.9802
11.3575
10.757
10.1808
9.6303
9.10619
8.60864
8.13742
7.69199
7.27159
6.87528
6.50202
6.15073
5.82031
5.50969
5.21785
4.94389
4.68704
4.4468
4.22283
4.01541
3.82549
3.65512
3.5081
3.39073
3.31324
3.29281
3.35966
3.56737
4.00904
4.84154
6.29035
8.50826
11.1838
13.3831
14.3869
14.4351
14.081
13.5166
12.7828
12.0293
11.3947
10.8875
10.4258
9.92078
9.32463
8.63989
7.90946
7.17709
6.49945
5.9538
5.63422
5.63278
6.01012
6.75411
7.73112
8.68341
9.33073
9.51686
9.26453
8.70915
8.00377
7.26762
6.57801
5.97906
5.49183
5.12198
4.86547
4.7123
4.64832
4.65548
4.71168
4.79179
4.87042
4.92434
4.9308
4.87816
4.79136
4.69032
4.6398
4.77774
5.32324
6.5343
8.48966
10.8401
13.0173
26.9977
30.0084
28.6543
26.0403
23.7184
21.8817
20.5311
19.6415
19.1622
18.9902
19.0717
19.3864
19.895
20.5711
21.3909
22.3248
23.3279
24.3297
25.2287
25.8989
26.2196
26.1219
25.6317
24.8774
24.0498
23.3359
22.8681
22.7129
22.8902
23.392
24.1874
25.2209
26.411
27.6539
28.8378
29.864
30.6692
31.2409
31.6174
31.876
32.112
32.4145
32.8435
33.4163
34.1072
34.8604
35.597
36.1563
36.2665
35.9828
35.7715
35.7326
35.8066
36.0013
36.3533
36.8625
37.4595
38.0188
38.3994
38.4602
38.0222
36.8653
34.8461
32.0682
28.8896
25.7201
22.8164
20.2445
17.9769
16.0061
14.382
13.1532
12.2971
11.7428
11.4601
11.4947
11.9076
12.6905
13.7308
14.8443
15.8456
16.6077
17.0804
17.2739
17.2309
17.0027
16.6367
16.1716
15.6375
15.0571
14.4479
13.8234
13.1941
12.5682
11.9521
11.3508
10.7679
10.2061
9.66712
9.1522
8.66188
8.19628
7.75516
7.33802
6.94414
6.57269
6.22272
5.89325
5.58331
5.29194
5.0183
4.76165
4.52146
4.29743
4.08984
3.89968
3.72902
3.58164
3.46386
3.38589
3.36457
3.42891
3.62952
4.05293
4.84197
6.19636
8.23957
10.6651
12.619
13.4694
13.4482
13.0797
12.583
11.9924
11.3766
10.8129
10.3136
9.83339
9.31539
8.72614
8.06835
7.37872
6.69931
6.09013
5.63592
5.44003
5.60234
6.18266
7.1452
8.30159
9.33142
9.93104
9.97799
9.55341
8.83673
7.99995
7.16546
6.40811
5.76908
5.26744
4.90786
4.68537
4.58792
4.5973
4.68955
4.83621
5.00741
5.17622
5.32197
5.4286
5.47364
5.46143
5.40691
5.34852
5.39168
5.71839
6.55849
8.03069
9.91617
11.8035
24.83
28.3502
28.0283
26.2325
24.4806
22.9919
21.7964
20.9051
20.2974
19.9587
19.8875
20.0432
20.3939
20.9126
21.5705
22.3285
23.1293
23.8941
24.5282
24.9386
25.0626
24.8946
24.4989
23.9984
23.5405
23.2577
23.2401
23.5315
24.1397
25.0471
26.2113
27.5654
29.0156
30.4474
31.7404
32.7887
33.5062
33.9122
34.0617
34.0453
33.9701
33.9345
34.0079
34.22
34.5645
35.009
35.4983
35.9126
36.0809
35.9446
35.6162
35.2404
34.8962
34.6537
34.5748
34.6791
34.9172
35.1801
35.3348
35.2441
34.745
33.6481
31.8352
29.3934
26.6132
23.8247
21.2413
18.936
16.9169
15.2063
13.8491
12.8528
12.1551
11.6872
11.4547
11.5302
11.9709
12.7464
13.7294
14.7438
15.6303
16.291
16.6944
16.8559
16.8134
16.6089
16.2807
15.8599
15.3714
14.8351
14.2665
13.6785
13.0814
12.4835
11.8914
11.3106
10.745
10.1977
9.67092
9.16612
8.68417
8.22549
7.79007
7.37764
6.98769
6.61953
6.27237
5.94535
5.63758
5.3482
5.0764
4.82148
4.58287
4.36027
4.15398
3.96498
3.79529
3.64859
3.53103
3.45251
3.42911
3.48792
3.67542
4.07003
4.79919
6.03962
7.90239
10.118
11.9158
12.6975
12.6424
12.2457
11.7639
11.2479
10.7216
10.2153
9.73313
9.24939
8.73021
8.15473
7.53246
6.89234
6.27596
5.75048
5.41186
5.37441
5.74275
6.5637
7.75466
9.05001
10.0694
10.5202
10.3513
9.71616
8.83075
7.87293
6.95876
6.15581
5.50038
5.00866
4.68294
4.5147
4.48621
4.57167
4.73949
4.95598
5.18982
5.41645
5.62116
5.79792
5.94073
6.03075
6.07227
6.07423
6.09664
6.27405
6.804
7.84042
9.26166
10.7717
21.0581
24.8452
25.8293
25.0252
23.9935
22.9943
22.0943
21.3679
20.8385
20.5239
20.4203
20.513
20.7821
21.2024
21.7405
22.3501
22.9708
23.5321
23.964
24.2134
24.262
24.1372
23.9113
23.6877
23.5781
23.6778
24.0506
24.7287
25.7221
27.0286
28.5382
30.1832
31.8758
33.4963
34.9176
36.0253
36.7485
37.0912
37.1047
36.8776
36.5176
36.1291
35.7944
35.5639
35.4571
35.4682
35.567
35.6943
35.7418
35.5775
35.184
34.6428
34.0632
33.5557
33.1996
33.0156
32.9563
32.9224
32.7942
32.4448
31.7276
30.4943
28.6857
26.4184
23.9443
21.5117
19.2706
17.2816
15.5761
14.1941
13.1571
12.4192
11.892
11.5374
11.4079
11.5893
12.1123
12.9105
13.8419
14.7468
15.5019
16.0443
16.3628
16.478
16.4222
16.2285
15.9262
15.5394
15.0882
14.5892
14.0563
13.5012
12.9339
12.3625
11.7938
11.2334
10.6855
10.1534
9.63974
9.14614
8.67378
8.22329
7.7949
7.38852
7.00382
6.64025
6.29717
5.97383
5.66944
5.38322
5.11441
4.86235
4.6264
4.40635
4.20248
4.01573
3.84802
3.70282
3.58599
3.5069
3.48059
3.53183
3.70241
4.06212
4.72326
5.8429
7.53174
9.57877
11.2996
12.0924
12.0493
11.6285
11.1254
10.6237
10.1342
9.65915
9.19119
8.7112
8.19763
7.63842
7.04702
6.45452
5.90872
5.48755
5.29969
5.46849
6.09401
7.18796
8.5891
9.93844
10.823
11.015
10.5693
9.70969
8.66951
7.6164
6.65173
5.83261
5.18896
4.73226
4.45934
4.35443
4.39124
4.53617
4.7529
5.007
5.26974
5.52085
5.75064
5.96039
6.15775
6.33972
6.49443
6.61113
6.70084
6.83699
7.16296
7.84899
8.86593
9.99763
16.5388
20.4485
22.6785
22.786
22.4442
21.978
21.5551
21.1615
20.8434
20.6464
20.5915
20.6821
20.9088
21.2515
21.6789
22.1489
22.6115
23.0154
23.318
23.4968
23.5583
23.541
23.5121
23.5555
23.7612
24.215
24.9599
25.9891
27.3177
28.9176
30.7021
32.6012
34.522
36.3446
37.9396
39.1895
40.019
40.4128
40.4066
40.077
39.5255
38.8592
38.1731
37.539
37.0013
36.5752
36.2437
35.954
35.6101
35.1507
34.5713
33.9188
33.2667
32.6912
32.2399
31.9095
31.6437
31.352
30.9328
30.276
29.2595
27.7891
25.8812
23.6918
21.4383
19.2949
17.3585
15.6806
14.305
13.2624
12.5243
11.9989
11.611
11.3784
11.3884
11.7099
12.3284
13.1424
14.0076
14.7932
15.4159
15.8437
16.0809
16.1491
16.075
15.8837
15.5972
15.2341
14.8106
14.3407
13.8366
13.3091
12.7674
12.2195
11.672
11.1304
10.5992
10.0819
9.58115
9.09888
8.63643
8.19463
7.77387
7.37424
6.99553
6.63734
6.29913
5.98026
5.68002
5.39771
5.13264
4.88416
4.65165
4.43495
4.23431
4.0506
3.8856
3.74255
3.6269