/*--------------------------------*- C++ -*----------------------------------*\
  =========                 |
  \\      /  F ield         | OpenFOAM: The Open Source CFD Toolbox
   \\    /   O peration     | Website:  https://openfoam.org
    \\  /    A nd           | Version:  9
     \\/     M anipulation  |
\*---------------------------------------------------------------------------*/
FoamFile
{
    format      ascii;
    class       volScalarField;
    location    "0.24";
    object      kU;
}
// * * * * * * * * * * * * * * * * * * * * * * * * * * * * * * * * * * * * * //

dimensions      [0 2 -2 0 0 0 0];

internalField   nonuniform List<scalar> 
12225
(
0.0849288
0.0640727
0.0496438
0.0398852
0.0336384
0.03012
0.0287844
0.0292385
0.0312017
0.0344874
0.0389913
0.0446737
0.0515206
0.0594533
0.0681517
0.0767562
0.0838189
0.0933677
0.104762
0.0974342
0.0933134
0.0931383
0.0971325
0.105334
0.11763
0.133775
0.153459
0.176371
0.202211
0.230612
0.260948
0.292039
0.321867
0.347398
0.365266
0.370913
0.108582
0.104427
0.100805
0.0979285
0.0959851
0.0951037
0.0953847
0.0969372
0.0999142
0.104552
0.111197
0.120279
0.13223
0.147343
0.165623
0.186707
0.209964
0.234631
0.109679
0.106503
0.103421
0.10058
0.0980813
0.0959913
0.0943329
0.0931024
0.0922882
0.0918938
0.0919695
0.0926461
0.0941592
0.0968381
0.101046
0.107102
0.11526
0.125808
0.110096
0.10747
0.104853
0.102321
0.099928
0.0977114
0.0956896
0.0938636
0.0922222
0.0907489
0.0894311
0.0882723
0.0873031
0.0865884
0.0862281
0.0863549
0.0871609
0.0888822
0.110257
0.107917
0.105611
0.103361
0.101192
0.0991228
0.0971641
0.09532
0.0935863
0.0919522
0.0904017
0.0889159
0.0874769
0.0860736
0.084709
0.0834055
0.0822119
0.081203
0.110316
0.108112
0.105984
0.103929
0.10195
0.100049
0.0982302
0.0964957
0.0948442
0.0932707
0.0917667
0.0903191
0.0889109
0.0875218
0.0861299
0.0847155
0.0832666
0.0817892
0.110336
0.108189
0.106152
0.104212
0.102359
0.100589
0.0988969
0.0972818
0.0957411
0.0942711
0.0928665
0.0915196
0.0902197
0.0889536
0.0877057
0.0864582
0.0851944
0.0839057
0.110343
0.108218
0.106221
0.104339
0.102559
0.100872
0.0992704
0.0977488
0.096303
0.0949289
0.0936217
0.0923755
0.0911833
0.0900363
0.0889248
0.0878382
0.0867666
0.0857108
0.110344
0.108227
0.106247
0.104391
0.102647
0.101006
0.099458
0.097997
0.0966173
0.0953141
0.0940825
0.0929176
0.0918135
0.0907641
0.0897625
0.088802
0.087877
0.0869925
0.110345
0.10823
0.106256
0.104411
0.102683
0.101063
0.0995433
0.0981158
0.0967751
0.0955161
0.094334
0.0932243
0.0921821
0.0912024
0.0902803
0.0894109
0.088591
0.0878258
0.110345
0.108231
0.106259
0.104418
0.102696
0.101085
0.0995765
0.098164
0.0968415
0.0956042
0.0944474
0.0933669
0.0923584
0.0914179
0.0905413
0.089725
0.0889668
0.0882712
0.110345
0.108232
0.106261
0.104421
0.102702
0.101095
0.099592
0.0981867
0.0968734
0.0956472
0.0945038
0.0934392
0.0924497
0.0915318
0.0906821
0.0898977
0.0891771
0.0885243
0.110345
0.108232
0.106262
0.104423
0.102705
0.1011
0.0996003
0.0981985
0.0968894
0.0956683
0.0945308
0.0934733
0.0924922
0.0915844
0.0907469
0.0899774
0.0892743
0.0886413
0.110345
0.108232
0.106262
0.104424
0.102708
0.101104
0.0996058
0.0982059
0.0968987
0.0956794
0.0945437
0.0934878
0.0925082
0.0916018
0.090766
0.089998
0.0892966
0.0886649
0.110345
0.108232
0.106262
0.104425
0.10271
0.101108
0.0996108
0.0982123
0.0969064
0.0956881
0.0945527
0.0934963
0.0925153
0.0916062
0.0907663
0.0899928
0.0892839
0.0886427
0.110344
0.108231
0.106262
0.104426
0.102712
0.101111
0.0996156
0.0982189
0.0969147
0.0956975
0.0945625
0.0935055
0.0925224
0.0916098
0.0907643
0.0899828
0.0892633
0.0886087
0.110343
0.10823
0.106261
0.104425
0.102713
0.101114
0.0996205
0.0982262
0.0969242
0.0957088
0.094575
0.093518
0.0925336
0.0916179
0.0907672
0.0899781
0.089248
0.0885802
0.110342
0.108228
0.106259
0.104424
0.102713
0.101116
0.0996255
0.0982339
0.0969347
0.0957219
0.0945899
0.0935339
0.0925491
0.0916314
0.0907768
0.0899814
0.0892425
0.0885635
0.110341
0.108227
0.106257
0.104423
0.102713
0.101118
0.0996301
0.0982411
0.0969444
0.0957338
0.0946036
0.0935486
0.092564
0.0916452
0.0907881
0.0899887
0.0892442
0.0885579
0.110341
0.108225
0.106257
0.104423
0.102715
0.101121
0.0996351
0.0982482
0.0969535
0.0957447
0.0946159
0.0935616
0.0925769
0.0916572
0.0907982
0.0899958
0.089247
0.0885555
0.11034
0.108225
0.106256
0.104424
0.102717
0.101124
0.0996393
0.0982532
0.096959
0.0957502
0.0946208
0.0935655
0.092579
0.0916568
0.0907944
0.0899878
0.089234
0.0885365
0.11034
0.108224
0.106256
0.104423
0.102714
0.10112
0.0996306
0.0982392
0.0969381
0.095721
0.0945819
0.0935155
0.092517
0.0915817
0.0907056
0.0898846
0.0891159
0.0884033
0.110339
0.108221
0.106247
0.104404
0.10268
0.101066
0.0995533
0.0981348
0.0968042
0.0955554
0.0943835
0.0932835
0.0922512
0.0912824
0.090373
0.0895195
0.0887188
0.0879753
0.110333
0.108198
0.106191
0.104299
0.102513
0.100825
0.099232
0.09773
0.0963152
0.0949843
0.0937335
0.0925591
0.0914572
0.0904239
0.0894552
0.0885472
0.0876968
0.0869078
0.110301
0.108082
0.10595
0.103904
0.101949
0.100091
0.0983344
0.096681
0.0951298
0.0936787
0.0923246
0.0910629
0.0898883
0.0887953
0.0877783
0.0868316
0.0859505
0.0851364
0.110155
0.107652
0.105174
0.102771
0.100483
0.0983389
0.0963514
0.0945241
0.0928551
0.0913377
0.0899617
0.0887148
0.0875838
0.0865565
0.0856214
0.0847679
0.0839868
0.0832746
0.109594
0.10634
0.103152
0.100167
0.0974776
0.0951254
0.0931109
0.0914171
0.0900194
0.0888876
0.0879892
0.0872912
0.0867614
0.0863675
0.0860805
0.0858754
0.0857336
0.0856463
0.107275
0.101438
0.0964635
0.0927326
0.0902804
0.0890209
0.088826
0.089546
0.0910241
0.0931054
0.0956423
0.0984996
0.101557
0.10471
0.107873
0.110976
0.113974
0.116799
0.0944195
0.0792265
0.0673761
0.0580801
0.0507865
0.0450874
0.0406733
0.0373018
0.0347776
0.0329411
0.0316601
0.0308242
0.0303409
0.0301326
0.0301347
0.0302936
0.0305659
0.0309144
0.0256904
0.0411543
0.0470032
0.0533707
0.0567273
0.0570564
0.0574043
0.0585688
0.0607668
0.0641065
0.0687016
0.0747124
0.0823982
0.0913457
0.0998151
0.107061
0.112035
0.11325
0.108665
0.0956586
0.071194
0.0450203
0.0260785
0.02137
0.0221949
0.0238939
0.0260857
0.0287127
0.0295158
0.0285596
0.0269759
0.0258932
0.0259225
0.0274501
0.0302137
0.0340573
0.040821
0.0683899
0.134229
0.196017
0.253935
0.305316
0.348827
0.384021
0.411026
0.430325
0.442603
0.448647
0.449274
0.445298
0.437497
0.426594
0.413245
0.398016
0.381366
0.364533
0.347847
0.331354
0.31511
0.299165
0.283567
0.268356
0.253563
0.239218
0.22534
0.211947
0.19905
0.186653
0.174753
0.163339
0.152394
0.14189
0.131796
0.122079
0.112709
0.103664
0.0949385
0.0865449
0.0785215
0.0709353
0.0638973
0.0576042
0.0524408
0.0492093
0.0458752
0.048845
0.047956
0.0461818
0.0468314
0.0466265
0.0462583
0.044927
0.0432429
0.0416485
0.0407461
0.0420552
0.0478107
0.0519783
0.055183
0.0578239
0.0600498
0.0616546
0.061528
0.057076
0.046676
0.0384567
0.0319026
0.0268035
0.0230472
0.0205385
0.0191263
0.018589
0.018671
0.0191362
0.0197991
0.0204826
0.0210609
0.021503
0.0218373
0.0221329
0.0224989
0.0230978
0.0241668
0.0260447
0.0291803
0.0334263
0.0394949
0.0484454
0.0534494
0.0568395
0.0591931
0.0597533
0.0618597
0.0826948
0.142616
0.193044
0.226032
0.24201
0.243999
0.235611
0.220249
0.200671
0.180185
0.160208
0.141269
0.123732
0.107794
0.0935177
0.0808734
0.0698341
0.0607164
0.0580271
0.0538654
0.0612014
0.070946
0.083179
0.0980319
0.115383
0.134751
0.1554
0.177019
0.197531
0.207307
0.200642
0.175897
0.136644
0.0925046
0.0557464
0.0337555
0.0246333
0.0218781
0.0197715
0.0175275
0.0158643
0.0141784
0.0122093
0.0104017
0.00967139
0.0106114
0.0126896
0.0169081
0.0359013
0.064807
0.0784038
0.0732318
0.0657102
0.0591565
0.0535667
0.0487207
0.0445778
0.0411544
0.0384386
0.0364121
0.0355928
0.0369571
0.0404491
0.0457031
0.0520116
0.0582694
0.0628928
0.0638887
0.0615453
0.0547067
0.0441959
0.0332185
0.0259445
0.0277771
0.0331784
0.0361467
0.0358615
0.032769
0.0366256
0.0523297
0.0792276
0.102375
0.112924
0.121617
0.132163
0.144081
0.152403
0.156915
0.157788
0.155613
0.151161
0.145234
0.138577
0.131823
0.125463
0.119855
0.115232
0.111737
0.10945
0.108416
0.108642
0.110169
0.112063
0.114012
0.116011
0.118061
0.120163
0.122323
0.124543
0.126827
0.129175
0.131582
0.134037
0.136518
0.138987
0.141392
0.143658
0.145687
0.147359
0.148533
0.149057
0.148784
0.147586
0.145379
0.142134
0.13789
0.132751
0.126872
0.120434
0.113615
0.106548
0.0995446
0.0935436
0.0881729
0.0830692
0.0788338
0.0748398
0.0710724
0.0675321
0.0640966
0.0607807
0.0575971
0.0545639
0.0516018
0.0486887
0.0459143
0.0433035
0.0408651
0.0386286
0.0367306
0.0354548
0.0345791
0.0337927
0.0332662
0.0331884
0.0336991
0.0348302
0.0364856
0.0384625
0.0405028
0.0423529
0.0438111
0.0447979
0.0453229
0.0454173
0.0451139
0.0444287
0.0433515
0.041852
0.039901
0.0374988
0.0346956
0.0316329
0.0284675
0.0255783
0.0238914
0.0246796
0.0311929
0.0471045
0.0660167
0.0785285
0.0890303
0.092695
0.0917424
0.0892609
0.0873032
0.0867509
0.0878086
0.0906111
0.0939789
0.0972709
0.100523
0.103697
0.106654
0.109124
0.110694
0.110842
0.10898
0.104626
0.0988773
0.0924654
0.0856217
0.0787844
0.0722322
0.0661122
0.0604571
0.0552234
0.0504445
0.0466806
0.0476172
0.0517005
0.0555697
0.0575856
0.059683
0.065247
0.0739708
0.0820308
0.0823658
0.0724948
0.0570117
0.042042
0.0311668
0.0245497
0.0213129
0.0216237
0.0254596
0.0299228
0.0141499
0.0682499
0.0953735
0.0809065
0.0636108
0.0513736
0.0432274
0.0375308
0.03332
0.0301189
0.0276678
0.0257976
0.0243917
0.0234379
0.0232831
0.0241444
0.0262911
0.0298199
0.0344622
0.0395135
0.0439141
0.0470006
0.047575
0.0447525
0.0398877
0.0363186
0.0392148
0.0476329
0.0536914
0.0629563
0.0797374
0.0897151
0.0956636
0.0996329
0.101195
0.101527
0.10216
0.103133
0.103636
0.102921
0.101251
0.0990628
0.0968346
0.0949434
0.0936049
0.092878
0.0927134
0.0930139
0.0936814
0.0946397
0.0958344
0.0972205
0.0987521
0.100381
0.102107
0.10389
0.105719
0.107595
0.109528
0.111535
0.113641
0.115874
0.118264
0.120838
0.123623
0.126632
0.129871
0.133325
0.136959
0.140706
0.144463
0.148089
0.151403
0.154189
0.156218
0.157264
0.157141
0.155729
0.152999
0.149016
0.143932
0.137949
0.131283
0.124143
0.11669
0.109988
0.103835
0.0980515
0.0926765
0.0876651
0.082992
0.0786346
0.0745566
0.0707355
0.0671563
0.0638055
0.0606445
0.0576534
0.0548342
0.0521864
0.0497061
0.0473901
0.0452327
0.0432321
0.0413703
0.0396143
0.0380283
0.0366738
0.0355674
0.0347136
0.0340987
0.033691
0.033446
0.0333123
0.0332376
0.0331752
0.0330854
0.0329336
0.0326889
0.0323206
0.0317931
0.0310633
0.0300871
0.0288357
0.0273202
0.0256299
0.0239811
0.0228752
0.0234855
0.0283901
0.0400355
0.0540309
0.0611261
0.0652576
0.0694478
0.073082
0.0770952
0.0812144
0.0847308
0.0875126
0.0898244
0.0918137
0.0937303
0.0956714
0.0976891
0.0998133
0.101993
0.104036
0.10557
0.106048
0.104726
0.101397
0.0968562
0.0912619
0.085099
0.0788111
0.0727007
0.066946
0.0616337
0.0567991
0.0524685
0.0485477
0.0448212
0.0414139
0.0388454
0.0372063
0.0364991
0.0368447
0.0378906
0.0392205
0.0407951
0.0421932
0.042181
0.0399067
0.0354885
0.0304094
0.0274035
0.0281703
0.0320045
0.0351248
0.0143019
0.0865758
0.0723469
0.0543837
0.0431098
0.0363453
0.0317783
0.0283382
0.0256386
0.0235011
0.0217989
0.0204423
0.0193802
0.0186012
0.018246
0.0183907
0.0192344
0.0210344
0.0239202
0.027708
0.0319197
0.0361424
0.0397866
0.0422688
0.0441785
0.0494354
0.0607352
0.0822345
0.0996731
0.0940298
0.0898047
0.0878681
0.0861539
0.0845733
0.0832267
0.0823571
0.0820004
0.081902
0.0817957
0.0816359
0.0815833
0.081758
0.0821848
0.0828026
0.0835164
0.0842528
0.0849882
0.085743
0.0865529
0.0874416
0.0884086
0.0894326
0.090482
0.0915379
0.0925507
0.0934938
0.0943661
0.0951805
0.0959647
0.0967597
0.097618
0.0986005
0.0997736
0.101206
0.102966
0.105117
0.107711
0.110789
0.114366
0.118423
0.122901
0.127684
0.132594
0.137388
0.14177
0.145411
0.147991
0.149247
0.149012
0.14725
0.144051
0.139603
0.13414
0.127889
0.121237
0.115126
0.109251
0.103629
0.0982993
0.0932759
0.0885566
0.0841322
0.0799898
0.0761133
0.0724864
0.0690949
0.0659241
0.0629589
0.0601856
0.057593
0.0551708
0.0529078
0.0507924
0.0488092
0.0469388
0.045164
0.0434704
0.0418554
0.0403591
0.0390092
0.0378105
0.0367591
0.0358442
0.0350491
0.0343526
0.0337302
0.0331548
0.0325964
0.032023
0.0314015
0.0306977
0.0298766
0.0289064
0.0277688
0.0264864
0.025177
0.0241633
0.0242544
0.0271802
0.0349018
0.0454922
0.0523593
0.0552109
0.0593917
0.065262
0.0716966
0.0773594
0.0811898
0.0833296
0.0844161
0.0848788
0.0849472
0.0849594
0.0850202
0.0852517
0.0857801
0.0866674
0.0878282
0.0889554
0.0894833
0.0886556
0.0865027
0.083139
0.0788316
0.0740022
0.0690345
0.0642002
0.0596609
0.0554997
0.0517532
0.0484307
0.0455279
0.0429877
0.0405925
0.0380663
0.0355524
0.0332572
0.0312497
0.0295036
0.028074
0.0271593
0.0268365
0.0268496
0.026993
0.0276182
0.0290583
0.0307317
0.0326696
0.0353641
0.0374884
0.0155945
0.0568334
0.0452227
0.0377024
0.033366
0.0300124
0.0270895
0.0245677
0.022439
0.0206483
0.019135
0.0178682
0.0168423
0.0160601
0.0156163
0.0155483
0.0159376
0.016975
0.0189037
0.0218214
0.0256451
0.0304296
0.0362922
0.0440098
0.0572207
0.0767431
0.103203
0.106978
0.0933813
0.0836543
0.0779243
0.0745104
0.0723994
0.0712348
0.0708194
0.0710069
0.0716274
0.0725133
0.0735562
0.074705
0.0759081
0.0770786
0.0781288
0.079011
0.0797376
0.0803686
0.0809797
0.081633
0.0823621
0.0831726
0.0840481
0.0849575
0.0858611
0.0866257
0.0871203
0.0873247
0.087245
0.0869116
0.0863769
0.0857124
0.0850038
0.0843459
0.0838393
0.0835872
0.0836947
0.0842666
0.0854056
0.0872071
0.0897518
0.0930947
0.0972507
0.102177
0.107755
0.113773
0.11992
0.1258
0.130966
0.134981
0.137495
0.138311
0.137403
0.13491
0.131054
0.126084
0.120811
0.115566
0.11034
0.105227
0.100295
0.0955815
0.0911054
0.0868727
0.0828823
0.0791278
0.0756004
0.0722906
0.0691879
0.066281
0.0635582
0.061009
0.0586231
0.0563905
0.0543013
0.0523434
0.0505008
0.0487571
0.0470978
0.0455134
0.0439996
0.0425603
0.0412152
0.0399743
0.0388373
0.0377985
0.0368478
0.0359707
0.0351491
0.0343602
0.0335773
0.0327698
0.0319037
0.0309448
0.029866
0.0286648
0.0273988
0.0262585
0.0257411
0.0269445
0.0314041
0.0390829
0.0457448
0.0486404
0.0518628
0.0578625
0.0654449
0.0723427
0.0768517
0.078913
0.0793893
0.0789713
0.0780284
0.0768262
0.0754867
0.074145
0.0729894
0.0722455
0.0720821
0.0725116
0.0732811
0.0737934
0.0734412
0.0720339
0.0695684
0.0662852
0.0625375
0.0586539
0.0548702
0.0513261
0.0480906
0.0451891
0.0426245
0.0403921
0.0384784
0.0368397
0.0353544
0.0337935
0.0321246
0.030403
0.0286812
0.0270101
0.0254691
0.0241835
0.0233518
0.0233812
0.0249843
0.0285374
0.0327638
0.0358258
0.0378857
0.0395684
0.0176898
0.0380855
0.0358429
0.0339726
0.0313222
0.0283779
0.0255357
0.0230364
0.0209302
0.0191436
0.0176008
0.0162865
0.0152053
0.0144004
0.0140207
0.0140213
0.0143809
0.0152159
0.0168018
0.0194116
0.0232838
0.0291178
0.0388768
0.0557974
0.0760104
0.0989927
0.102424
0.0894278
0.0774949
0.0702735
0.0663393
0.0644491
0.0638732
0.0642107
0.065206
0.066676
0.0684679
0.0704488
0.0725004
0.0745136
0.0763952
0.0780891
0.0795946
0.0809602
0.0822587
0.0835582
0.0849028
0.0863063
0.0877544
0.0892102
0.0906204
0.0919203
0.0930409
0.0936005
0.0935732
0.092938
0.091708
0.0899361
0.0877137
0.0851647
0.0824346
0.0796777
0.0770453
0.074679
0.0727102
0.0712631
0.0704595
0.0704211
0.0712666
0.0731043
0.0760184
0.0800521
0.0851826
0.0912913
0.0981343
0.105327
0.112361
0.118653
0.123641
0.126934
0.128322
0.127846
0.125684
0.122274
0.11836
0.114095
0.10966
0.105194
0.100789
0.0965054
0.0923779
0.0884268
0.0846619
0.0810863
0.077699
0.0744966
0.0714744
0.0686259
0.0659441
0.0634216
0.0610511
0.0588245
0.0567332
0.0547663
0.0529112
0.0511552
0.0494872
0.0478986
0.0463845
0.0449436
0.0435743
0.0422813
0.0410702
0.0399382
0.0388792
0.0378834
0.0369368
0.0360216
0.0351151
0.0341889
0.0332094
0.0321416
0.0309641
0.0296976
0.0284495
0.027507
0.0275368
0.0296337
0.0344752
0.0402373
0.0436201
0.0456804
0.0503582
0.0579723
0.0661412
0.0721799
0.0751973
0.0759871
0.0755031
0.0742711
0.0725422
0.070513
0.0682136
0.0658192
0.0635834
0.0618333
0.060841
0.0606882
0.0611627
0.0616439
0.0616266
0.0607864
0.0590513
0.0565947
0.0537071
0.0506701
0.0476895
0.0448868
0.0423193
0.0400057
0.0379453
0.0361296
0.034549
0.0331927
0.0320736
0.0310644
0.0300441
0.0289501
0.0277786
0.026556
0.0253142
0.0241104
0.0231274
0.0228711
0.0243127
0.0282572
0.0336464
0.0378075
0.0400383
0.0417377
0.0197246
0.0342817
0.0365908
0.0345877
0.0313492
0.027966
0.0248985
0.0223966
0.0203753
0.0186233
0.0170242
0.015623
0.0144368
0.0136809
0.0134996
0.0137781
0.0144673
0.0156784
0.0177392
0.0208767
0.0259829
0.0349068
0.0495462
0.0682366
0.0859234
0.0920147
0.0831556
0.0720485
0.0646333
0.0607822
0.0593109
0.0593727
0.0604569
0.0622622
0.0645955
0.0673099
0.0702697
0.0733453
0.0764241
0.0794274
0.0823215
0.085117
0.087854
0.0905799
0.0933307
0.0961196
0.0989337
0.101734
0.10446
0.107027
0.109338
0.111283
0.112509
0.112948
0.112517
0.111151
0.10883
0.105591
0.101541
0.0968438
0.0917138
0.0863884
0.081105
0.076081
0.0715057
0.0675434
0.0643419
0.0620398
0.0607682
0.0606476
0.0617821
0.0642532
0.0681094
0.0733357
0.0798061
0.0872345
0.0951538
0.102918
0.109776
0.115147
0.118574
0.119976
0.119477
0.117677
0.115018
0.111787
0.10821
0.104455
0.100639
0.0968401
0.0931108
0.0894839
0.08598
0.0826113
0.0793846
0.0763031
0.0733677
0.0705772
0.0679293
0.0654206
0.0630469
0.0608032
0.0586833
0.0566798
0.054784
0.0529867
0.0512793
0.0496545
0.0481072
0.0466345
0.0452346
0.0439049
0.0426472
0.0414596
0.0403366
0.0392699
0.0382479
0.0372552
0.0362711
0.0352678
0.0342113
0.0330679
0.0318274
0.0305384
0.0293618
0.0286853
0.02924
0.0317887
0.0360008
0.0394959
0.0410508
0.0435656
0.0496973
0.0583299
0.0663001
0.0712706
0.0733064
0.0735213
0.0726877
0.0711167
0.0689263
0.0662435
0.0631572
0.0598997
0.0567825
0.0542148
0.0525969
0.0519989
0.0522121
0.0527073
0.0529861
0.0526589
0.0515782
0.0498383
0.047668
0.0453095
0.0429477
0.0406954
0.0386085
0.0367066
0.0349899
0.0334504
0.03208
0.0308744
0.0298411
0.0289878
0.0282175
0.0274503
0.0266412
0.0257907
0.0249227
0.0240544
0.0232756
0.0229877
0.0241398
0.0278259
0.0335738
0.0387122
0.0416994
0.0437802
0.0215982
0.0368508
0.0387562
0.0354552
0.0316574
0.0280596
0.0250538
0.0227654
0.0209095
0.0191704
0.0174677
0.0160132
0.0151168
0.0149134
0.0151513
0.0158937
0.0171101
0.018869
0.0215253
0.0258587
0.0331098
0.0442969
0.0587908
0.0728577
0.0791822
0.0750737
0.0668063
0.0602931
0.0568739
0.0558842
0.0565293
0.0582823
0.0608337
0.0639946
0.0676222
0.0715802
0.0757342
0.0799674
0.084197
0.0883794
0.0925043
0.0965832
0.100637
0.104686
0.108741
0.112796
0.116825
0.120772
0.124556
0.128064
0.131163
0.133705
0.135336
0.136095
0.135821
0.134362
0.131618
0.127563
0.122269
0.115914
0.108764
0.101145
0.093386
0.0857801
0.0785652
0.0719379
0.0660849
0.0612028
0.0574917
0.055124
0.0542183
0.0548372
0.0570252
0.0608134
0.0661784
0.0729625
0.0808308
0.0892031
0.0971771
0.104041
0.109065
0.112066
0.1131
0.112724
0.111284
0.109089
0.106387
0.103366
0.100165
0.0968798
0.0935759
0.0902985
0.0870781
0.0839358
0.0808857
0.0779377
0.0750984
0.072372
0.0697606
0.0672649
0.0648844
0.0626172
0.0604603
0.0584093
0.0564588
0.0546027
0.0528352
0.0511512
0.0495467
0.0480191
0.0465662
0.045186
0.0438754
0.0426332
0.0414539
0.0403294
0.0392492
0.0381989
0.0371584
0.0361001
0.034989
0.0337952
0.0325229
0.0312504
0.0301901
0.0297939
0.0307135
0.0332315
0.0363163
0.037959
0.0386421
0.0418411
0.0491786
0.0583197
0.0658089
0.0699996
0.0716093
0.0717481
0.0709335
0.0692389
0.0666602
0.0633447
0.059535
0.0555732
0.0517901
0.0485876
0.0465576
0.0456588
0.0457015
0.0462828
0.0468964
0.0470945
0.0466408
0.0455447
0.0439772
0.0421519
0.0402467
0.0383798
0.0366178
0.0349914
0.033509
0.0321674
0.0309594
0.0298795
0.0289251
0.0281015
0.0273799
0.0266979
0.0260071
0.0252963
0.0245964
0.0239544
0.0234216
0.0232382
0.0241695
0.0273676
0.0329403
0.0387115
0.0426506
0.0453351
0.0234049
0.0403931
0.0404425
0.0362994
0.0322745
0.0287795
0.0260388
0.0240066
0.0223064
0.0206724
0.0191786
0.0180928
0.0176729
0.0176495
0.0181474
0.0191655
0.0207711
0.0232158
0.02702
0.0328704
0.0412613
0.051767
0.0619276
0.0674364
0.066387
0.0615147
0.0567137
0.0540108
0.0534895
0.0546022
0.0568788
0.0600312
0.0638836
0.068296
0.0731234
0.0782138
0.0834255
0.0886435
0.0937872
0.0988098
0.103697
0.108461
0.113133
0.117753
0.122352
0.126946
0.131521
0.136034
0.140402
0.144506
0.148191
0.15125
0.153602
0.155159
0.155681
0.15492
0.152652
0.148723
0.143094
0.135884
0.127384
0.118031
0.108325
0.0987076
0.0894848
0.0808206
0.0728239
0.0656512
0.0595695
0.0548965
0.0518835
0.0506092
0.0510689
0.0532639
0.0572126
0.0628483
0.0699865
0.0782352
0.0866072
0.0943159
0.100398
0.104531
0.106922
0.10781
0.107496
0.10628
0.10442
0.102118
0.0995282
0.0967581
0.0938858
0.0909664
0.0880394
0.0851337
0.0822706
0.0794662
0.0767328
0.0740795
0.0715129
0.0690377
0.0666567
0.0643712
0.0621811
0.060085
0.0580802
0.0561637
0.054332
0.0525821
0.0509114
0.0493177
0.0477991
0.0463538
0.0449792
0.0436736
0.0424316
0.0412462
0.0401074
0.0390022
0.0379112
0.0368065
0.0356541
0.0344296
0.0331518
0.0319228
0.0309921
0.0308222
0.0318941
0.034044
0.0359328
0.0362791
0.0366691
0.0404177
0.0482491
0.057422
0.0645576
0.0684807
0.0701281
0.0705091
0.0699105
0.0681367
0.0650884
0.0611259
0.0565901
0.0520619
0.0478753
0.0444261
0.0420714
0.0409649
0.0409897
0.0417829
0.0428213
0.0435864
0.0437434
0.0432171
0.0421309
0.0406865
0.0390728
0.0374295
0.035847
0.0343761
0.0330393
0.03184
0.0307717
0.0298243
0.0289849
0.0282333
0.0275382
0.0268662
0.026176
0.0254578
0.0247449
0.0241181
0.0236791
0.0235876
0.0243657
0.0270299
0.0320832
0.0380331
0.0427878
0.0461406
0.0252708
0.0431839
0.0419315
0.0373332
0.0332616
0.029982
0.0275218
0.025748
0.0243253
0.0230167
0.0218645
0.0210734
0.020822
0.0209497
0.0216852
0.0230966
0.0253391
0.0286765
0.0334184
0.0396942
0.0470145
0.0538306
0.0580109
0.0585202
0.0563475
0.0535529
0.0518158
0.0517493
0.0531867
0.055795
0.0593368
0.06366
0.0686308
0.0740934
0.0798687
0.0857736
0.0916428
0.0973444
0.102791
0.107947
0.112829
0.11749
0.122007
0.126456
0.130899
0.135369
0.139869
0.144365
0.14879
0.153045
0.156995
0.16045
0.163497
0.16595
0.167551
0.167999
0.166973
0.164167
0.159346
0.152425
0.143555
0.133181
0.121988
0.110719
0.0999403
0.0899074
0.0806328
0.0720536
0.0642999
0.0577506
0.0528873
0.0499187
0.0488269
0.0495565
0.0521188
0.0564836
0.0625614
0.0701941
0.0784416
0.0861686
0.0927983
0.0978946
0.101346
0.103275
0.103928
0.103583
0.102491
0.10086
0.0988473
0.0965709
0.0941162
0.0915461
0.0889077
0.0862367
0.0835612
0.0809031
0.0782798
0.0757053
0.0731905
0.0707436
0.0683708
0.0660762
0.0638625
0.0617308
0.0596809
0.0577119
0.0558225
0.0540113
0.0522766
0.0506174
0.0490321
0.0475196
0.0460782
0.0447064
0.0433998
0.0421521
0.0409551
0.039797
0.0386596
0.0375155
0.0363324
0.0350921
0.0338242
0.0326462
0.0318225
0.0317803
0.0328092
0.034421
0.0352534
0.0347509
0.0350647
0.0390655
0.0468822
0.0557209
0.0625256
0.0664438
0.0683639
0.0690646
0.0685747
0.0666094
0.063184
0.058855
0.0540595
0.0492035
0.0447155
0.0410353
0.0385418
0.0374306
0.037629
0.0387921
0.0403631
0.0417354
0.042469
0.0424119
0.0416598
0.0404254
0.038929
0.0373479
0.0358064
0.034382
0.033114
0.0320128
0.0310711
0.0302708
0.0295858
0.0289779
0.0283854
0.027753
0.0270593
0.0262999
0.0255127
0.0247871
0.0242741
0.0241538
0.0247756
0.0269181
0.0312528
0.0369459
0.0421693
0.0461038
0.0268415
0.0456622
0.0435932
0.0385691
0.0344003
0.0312485
0.0289962
0.0274651
0.0263749
0.0254984
0.0248065
0.0244398
0.0243274
0.024771
0.0258873
0.0277736
0.0305334
0.0342267
0.0387399
0.0436132
0.0480046
0.0510043
0.0521599
0.0517657
0.0507177
0.050056
0.0504682
0.0521177
0.0548739
0.0585835
0.0631336
0.0684083
0.0742501
0.0804571
0.0868044
0.093072
0.0990724
0.104675
0.109821
0.114531
0.118884
0.122995
0.126984
0.130953
0.134969
0.139053
0.143187
0.147321
0.151388
0.155313
0.159009
0.162455
0.165674
0.168535
0.170829
0.172274
0.17253
0.17122
0.167964
0.16243
0.154459
0.144243
0.132426
0.120003
0.107938
0.0968087
0.0867601
0.0775471
0.0690119
0.0613744
0.0552631
0.0510708
0.0488068
0.0483856
0.0498025
0.0530541
0.0580825
0.0646661
0.0722005
0.0798441
0.0867894
0.0924739
0.0966584
0.0993709
0.100797
0.101178
0.100751
0.0997136
0.0982234
0.0963992
0.0943308
0.0920863
0.0897185
0.0872692
0.0847718
0.0822539
0.0797378
0.0772419
0.0747809
0.0723666
0.0700082
0.0677126
0.0654847
0.0633277
0.0612436
0.0592334
0.0572972
0.0554349
0.0536459
0.0519296
0.0502853
0.0487122
0.0472096
0.0457762
0.0444086
0.0431022
0.0418501
0.0406425
0.0394627
0.0382851
0.03708
0.0358337
0.0345818
0.0334464
0.0326873
0.0326745
0.0335283
0.0345629
0.034545
0.0334907
0.0337287
0.0376361
0.0450218
0.0532936
0.0598045
0.0638315
0.0660222
0.0668924
0.0663838
0.0643299
0.060816
0.0563484
0.0513967
0.0463861
0.0417867
0.0380772
0.0356635
0.0347664
0.0353402
0.037037
0.0392388
0.0412304
0.0424648
0.042734
0.0421367
0.0409253
0.0393718
0.0377021
0.03608
0.0346107
0.0333492
0.0323118
0.0314879
0.0308499
0.0303561
0.0299494
0.0295538
0.0290676
0.0284472
0.0277088
0.0268907
0.0260747
0.0254202
0.02515
0.0255452
0.0271602
0.030662
0.0357363
0.0409845
0.0452831
0.0279776
0.0480364
0.0454244
0.0400576
0.0357253
0.0325579
0.0303688
0.0289647
0.028121
0.0276435
0.0274393
0.0274769
0.0278155
0.028669
0.0301154
0.0321777
0.0348026
0.0378249
0.0409502
0.0438003
0.0460295
0.0474505
0.0481146
0.0483401
0.0486481
0.0495579
0.051371
0.0541504
0.0578547
0.0624278
0.0677867
0.0737898
0.08023
0.0868543
0.0933968
0.099615
0.105328
0.110444
0.114976
0.119023
0.122737
0.126291
0.129832
0.133459
0.137198
0.141
0.144766
0.148378
0.151747
0.154839
0.157688
0.160426
0.163109
0.165686
0.168005
0.169817
0.170797
0.170575
0.168749
0.164879
0.158541
0.149555
0.138252
0.125592
0.112822
0.100876
0.0902714
0.0808066
0.0720955
0.0641157
0.0574522
0.0526691
0.0497416
0.048593
0.0491254
0.0513732
0.0554211
0.0611521
0.0680862
0.07545
0.0824232
0.0883817
0.0930062
0.0962521
0.0982489
0.0992001
0.0993154
0.0987785
0.0977377
0.0963088
0.0945816
0.0926269
0.0905012
0.0882508
0.0859141
0.0835232
0.0811049
0.0786816
0.0762715
0.0738897
0.071548
0.0692558
0.0670202
0.0648463
0.0627377
0.0606967
0.058725
0.0568231
0.0549914
0.0532298
0.0515381
0.0499157
0.0483629
0.0468783
0.0454596
0.0441035
0.0428048
0.0415555
0.0403412
0.0391385
0.0379204
0.0366758
0.0354404
0.0343318
0.0335914
0.0335287
0.0341382
0.034638
0.0339732
0.0325348
0.0325969
0.0361036
0.0427489
0.0502903
0.0564826
0.0605963
0.0629726
0.0639213
0.0634116
0.0613687
0.0578735
0.0534001
0.0484357
0.0434477
0.0389368
0.0354085
0.0332901
0.0328222
0.0339687
0.0363479
0.0392447
0.0418144
0.0434149
0.04382
0.0431733
0.0417976
0.0400306
0.0381503
0.0363577
0.0347816
0.0334893
0.0325002
0.0317999
0.0313506
0.0310958
0.0309598
0.0308486
0.0306523
0.0302489
0.0296503
0.0289105
0.0280895
0.0273196
0.0268353
0.0269095
0.0279482
0.0305326
0.0347001
0.0395172
0.0438543
0.028631
0.0501293
0.047359
0.041874
0.0374348
0.0341989
0.0319816
0.0306051
0.0298827
0.0296445
0.0297709
0.0300782
0.0307189
0.0317341
0.0331258
0.0348466
0.0367994
0.0388517
0.0408595
0.0426943
0.0442629
0.0455338
0.0465831
0.0476303
0.0489938
0.050966
0.0537206
0.0573256
0.0617929
0.0670861
0.0730976
0.0796382
0.0864509
0.0932408
0.0997168
0.105638
0.11086
0.115357
0.119223
0.122638
0.125826
0.129003
0.132328
0.135866
0.13956
0.143235
0.14665
0.149584
0.151923
0.153728
0.155236
0.15673
0.158345
0.160093
0.161875
0.163477
0.164586
0.164835
0.163848
0.161203
0.15637
0.148933
0.138866
0.126883
0.114262
0.102073
0.0911766
0.0816755
0.0730874
0.0653834
0.0588598
0.0538879
0.0506471
0.0490768
0.0490813
0.0507158
0.0541153
0.0592374
0.0656784
0.0727213
0.079568
0.0855834
0.0904159
0.093979
0.0963606
0.0977274
0.0982605
0.0981226
0.0974489
0.0963478
0.0949066
0.0931963
0.0912758
0.0891946
0.0869948
0.0847125
0.0823779
0.080017
0.0776511
0.0752979
0.0729719
0.0706845
0.0684447
0.0662591
0.0641329
0.0620697
0.0600717
0.0581407
0.0562775
0.0544824
0.0527555
0.0510968
0.0495067
0.0479838
0.0465268
0.0451333
0.0437998
0.0425199
0.0412817
0.0400643
0.038843
0.037607
0.0363879
0.0352916
0.0345339
0.0343715
0.03472
0.0347719
0.0336346
0.0318939
0.0316557
0.0345272
0.0402182
0.0468927
0.0526685
0.0567615
0.0592269
0.0602148
0.059723
0.057733
0.0543314
0.0499747
0.0451542
0.0403655
0.0361352
0.0329906
0.0313764
0.0315452
0.0334463
0.0366221
0.0402189
0.0432512
0.0450162
0.0453275
0.0444231
0.0427187
0.0406212
0.0384538
0.036446
0.0347432
0.033421
0.032501
0.0319654
0.0317674
0.0318356
0.0320747
0.032369
0.0325922
0.0326105
0.0322968
0.0317535
0.0310259
0.0302002
0.0294832
0.0291496
0.0295304
0.0311134
0.0341469
0.0381165
0.0420945
0.0286225
0.0515579
0.0491409
0.0439037
0.0395654
0.0363309
0.0340562
0.0326076
0.0318364
0.0315901
0.0316377
0.0319795
0.0326029
0.0334902
0.0346179
0.0359518
0.0374483
0.0390578
0.0407245
0.0423859
0.0439869
0.0455159
0.0470503
0.0487663
0.0508905
0.0536246
0.0571071
0.0614141
0.0665622
0.0724917
0.0790534
0.0860129
0.0930722
0.0999069
0.106215
0.111771
0.116471
0.120354
0.12358
0.126398
0.129087
0.131894
0.134983
0.138385
0.141975
0.145494
0.148598
0.150961
0.152372
0.152832
0.152834
0.152946
0.15331
0.153928
0.15477
0.155696
0.156429
0.156601
0.155844
0.153785
0.149862
0.143606
0.13483
0.123994
0.112235
0.100746
0.0902448
0.0808648
0.072476
0.065056
0.0588264
0.0540852
0.0509537
0.0493429
0.0491752
0.0505533
0.0536539
0.0584605
0.0645931
0.0713679
0.0780249
0.0839588
0.0888279
0.0925351
0.0951426
0.0967866
0.097619
0.0977796
0.0973876
0.0965423
0.0953262
0.0938093
0.0920517
0.090105
0.0880142
0.0858181
0.0835502
0.0812388
0.0789078
0.0765774
0.0742637
0.0719802
0.0697373
0.0675432
0.0654041
0.0633246
0.0613078
0.0593561
0.0574708
0.0556526
0.053902
0.052219
0.0506043
0.0490564
0.0475746
0.0461574
0.0448024
0.0435049
0.0422551
0.0410349
0.0398213
0.0386021
0.0374015
0.0363097
0.0355139
0.0352301
0.0353381
0.0350494
0.0335844
0.0315812
0.0309362
0.0330163
0.0376187
0.0433062
0.0485207
0.0524382
0.054885
0.055874
0.0554046
0.0534973
0.05026
0.0461357
0.041609
0.0371902
0.0334244
0.030858
0.0299504