/*--------------------------------*- C++ -*----------------------------------*\
  =========                 |
  \\      /  F ield         | OpenFOAM: The Open Source CFD Toolbox
   \\    /   O peration     | Website:  https://openfoam.org
    \\  /    A nd           | Version:  9
     \\/     M anipulation  |
\*---------------------------------------------------------------------------*/
FoamFile
{
    format      ascii;
    class       volScalarField;
    location    "0.24";
    object      p;
}
// * * * * * * * * * * * * * * * * * * * * * * * * * * * * * * * * * * * * * //

dimensions      [0 2 -2 0 0 0 0];

internalField   nonuniform List<scalar> 
12225
(
4.92888
4.02838
3.72032
3.80753
3.97496
4.17826
4.45724
4.82838
5.28377
5.80581
6.36757
6.92742
7.43091
7.82405
8.07851
8.20781
8.28006
8.37805
4.32501
3.77794
3.60085
3.71938
3.90517
4.1201
4.40192
4.7696
5.21795
5.73175
6.2873
6.84724
7.36053
7.77305
8.0518
8.20252
8.29358
8.4332
4.15521
3.86547
3.69402
3.75185
3.90456
4.09795
4.35363
4.68779
5.0944
5.55746
6.05544
6.55824
7.02748
7.42403
7.72487
7.93363
8.1065
8.28174
4.02432
3.82681
3.64791
3.67571
3.82298
4.01665
4.26322
4.57744
4.95357
5.37435
5.81773
6.25621
6.65844
6.9967
7.26001
7.45935
7.64115
7.81525
3.8924
3.7479
3.60037
3.62507
3.7677
3.95557
4.18744
4.47743
4.82122
5.20179
5.59773
5.98417
6.33437
6.62583
6.85023
7.01735
7.15965
7.30343
3.76177
3.66096
3.55166
3.57211
3.69932
3.87369
4.08777
4.35214
4.6628
5.00347
5.35397
5.69245
5.99687
6.24956
6.44384
6.58706
6.69995
6.81092
3.63284
3.5654
3.48732
3.5033
3.61397
3.77432
3.97116
4.20987
4.48664
4.78661
5.09126
5.38163
5.63975
5.85194
6.01318
6.12907
6.21316
6.28241
3.50353
3.4597
3.40622
3.4208
3.51674
3.66175
3.83947
4.05081
4.29214
4.55045
4.8091
5.05162
5.2633
5.43334
5.55768
5.63979
5.68805
5.71046
3.37156
3.34398
3.30957
3.32439
3.40616
3.53335
3.68946
3.87196
4.07701
4.29333
4.50622
4.70139
4.86665
4.9933
5.07762
5.12111
5.12834
5.10308
3.23494
3.21829
3.19772
3.21249
3.28022
3.3878
3.52044
3.67313
3.84145
4.01566
4.18297
4.33108
4.44981
4.53188
4.57371
4.57524
4.53823
4.46386
3.09194
3.08225
3.07072
3.08411
3.1378
3.22459
3.33216
3.45402
3.58515
3.71711
3.83901
3.94033
4.01242
4.04906
4.04668
4.00403
3.9209
3.79653
2.95351
2.94744
2.94036
2.95084
2.99143
3.05835
3.14163
3.23433
3.33107
3.4244
3.50497
3.56371
3.59314
3.58773
3.54392
3.45976
3.33388
3.16454
2.80929
2.80503
2.79955
2.80552
2.83268
2.87931
2.93764
3.00085
3.06341
3.11866
3.15868
3.17566
3.16309
3.11603
3.03101
2.90567
2.73794
2.52567
2.63484
2.63089
2.62412
2.62264
2.63355
2.65642
2.68547
2.71449
2.73807
2.7504
2.74489
2.71504
2.65531
2.56137
2.42991
2.25844
2.04465
1.78642
2.42406
2.41868
2.40721
2.39453
2.38578
2.38115
2.3765
2.3666
2.34653
2.31137
2.2558
2.17461
2.06327
1.91808
1.73614
1.51518
1.25304
0.948147
2.17068
2.16203
2.14216
2.11402
2.08163
2.04559
2.00304
1.94987
1.88204
1.79559
1.68643
1.55063
1.38466
1.18567
0.951366
0.680017
0.370042
0.0206923
1.87002
1.85629
1.82432
1.77625
1.71603
1.64478
1.56071
1.46088
1.34232
1.2022
1.03767
0.84604
0.624911
0.372375
0.0869871
-0.232177
-0.585903
-0.97398
1.52254
1.50197
1.45452
1.38249
1.29078
1.1814
1.05356
0.905462
0.73535
0.541625
0.322722
0.0771643
-0.196275
-0.498451
-0.829844
-1.19048
-1.58028
-1.99817
1.14102
1.11142
1.04493
0.94512
0.818841
0.669522
0.497352
0.301598
0.081774
-0.162388
-0.431174
-0.72487
-1.0436
-1.38721
-1.75526
-2.14694
-2.56144
-2.99705
0.846554
0.80888
0.725069
0.600819
0.445911
0.26541
0.0600381
-0.170431
-0.425576
-0.704594
-1.0068
-1.33167
-1.67857
-2.04667
-2.43491
-2.84199
-3.26664
-3.70678
0.664167
0.620048
0.521838
0.377983
0.201769
-0.000454247
-0.22815
-0.481482
-0.759363
-1.06025
-1.38298
-1.72663
-2.09023
-2.47254
-2.87217
-3.28757
-3.71734
-4.15949
0.550622
0.499207
0.385537
0.222733
0.0285673
-0.190434
-0.435214
-0.706043
-1.00084
-1.31725
-1.65378
-2.0094
-2.383
-2.77317
-3.1783
-3.59667
-4.02661
-4.4658
0.491845
0.43128
0.299389
0.117227
-0.091936
-0.323247
-0.580715
-0.865053
-1.17303
-1.50162
-1.84923
-2.21471
-2.59667
-2.99347
-3.40341
-3.82475
-4.25596
-4.69522
0.476412
0.403429
0.249107
0.047467
-0.174326
-0.415747
-0.683197
-0.977165
-1.29316
-1.62805
-1.98094
-2.35111
-2.73698
-3.13656
-3.54803
-3.96956
-4.39941
-4.83508
0.496175
0.404235
0.221069
0.00350615
-0.225022
-0.476187
-0.75634
-1.06282
-1.38962
-1.73293
-2.09207
-2.46726
-2.85728
-3.26012
-3.67355
-4.09569
-4.52523
-4.96076
0.545628
0.426056
0.200707
-0.0305092
-0.252829
-0.500961
-0.786031
-1.09625
-1.42718
-1.77563
-2.13939
-2.51777
-2.90998
-3.31512
-3.73034
-4.15335
-4.58258
-5.01579
0.618021
0.468425
0.193593
-0.0651481
-0.30158
-0.561463
-0.854777
-1.16941
-1.49836
-1.84534
-2.21193
-2.59255
-2.98457
-3.389
-3.80326
-4.22511
-4.65328
-5.08639
0.70068
0.507773
0.236368
-0.00336742
-0.243977
-0.520056
-0.826039
-1.14898
-1.48597
-1.84033
-2.21198
-2.59909
-2.99861
-3.40602
-3.82121
-4.24336
-4.6714
-5.10546
0.803647
0.381024
0.0802703
-0.103726
-0.313926
-0.581649
-0.88229
-1.20011
-1.53409
-1.88659
-2.25695
-2.64267
-3.04014
-3.44605
-3.85977
-4.28012
-4.70531
-5.13358
1.38348
0.635781
0.187519
-0.0352595
-0.268008
-0.555949
-0.870559
-1.19744
-1.53815
-1.89581
-2.26998
-2.65817
-3.05734
-3.46485
-3.8794
-4.29936
-4.72262
-5.14491
-28.8545
-29.3472
-29.8379
-29.0921
-26.818
-23.8736
-22.1792
-22.5269
-24.8701
-28.3124
-31.8492
-34.7887
-36.7112
-37.4605
-37.2711
-36.4765
-35.3991
-34.3556
-33.664
-33.5342
-33.9404
-34.5744
-35.188
-35.6444
-35.8274
-35.6444
-34.9831
-33.8109
-32.8531
-32.6275
-32.9211
-33.1586
-33.2124
-33.1952
-33.2275
-33.2367
-33.1007
-32.839
-32.7348
-33.1561
-34.3665
-36.4392
-39.299
-42.762
-46.5882
-50.5274
-54.3515
-57.8735
-60.9522
-63.4943
-65.4527
-66.8155
-67.5845
-67.7546
-67.3003
-66.218
-64.6138
-62.5647
-60.1358
-57.383
-54.3551
-51.0949
-47.639
-44.0183
-40.2585
-36.381
-32.4045
-28.347
-24.2276
-20.0693
-15.9007
-11.7575
-7.68333
-3.72799
0.0547047
3.61116
6.89264
9.8594
12.4839
14.7528
16.6675
18.2421
19.501
20.4764
21.205
21.7212
22.0553
22.2357
22.2871
22.2373
22.1159
21.9376
21.7144
21.4612
21.1901
20.91
20.6214
20.3301
20.0468
19.7745
19.5166
19.2821
19.0677
18.843
18.611
18.3721
18.1154
17.8526
17.6009
17.3763
17.1912
17.0505
16.951
16.8852
16.8427
16.8159
16.8016
16.7981
16.8055
16.8251
16.8586
16.9081
16.976
17.0648
17.176
17.3109
17.4735
17.6634
17.8845
18.1183
18.2108
17.7189
15.936
12.4468
6.67596
-1.05701
-9.2882
-16.5854
-22.1321
-25.6253
-27.0508
-26.4999
-24.0839
-20.0722
-14.7281
-8.3407
-1.25504
6.10562
13.2414
19.6304
24.8413
28.65
31.0016
31.9657
31.7544
30.7088
29.1492
27.3473
25.5187
23.8208
22.3796
21.3724
20.5822
19.838
18.7718
17.182
15.1509
13.128
11.6952
11.3035
11.9034
12.8468
13.7134
14.9131
16.9515
19.1966
20.2299
19.4334
16.5458
11.2313
-30.7392
-31.5412
-32.3019
-31.9435
-30.4719
-29.186
-29.3776
-31.2023
-34.1486
-37.514
-40.7058
-43.3339
-45.1942
-46.1291
-45.94
-44.6001
-42.3827
-39.8061
-37.4951
-35.9882
-35.4918
-35.6319
-35.964
-36.4379
-36.7905
-36.7199
-36.0762
-35.004
-34.2489
-34.1773
-34.4135
-34.3214
-33.7409
-32.982
-32.6262
-32.9806
-33.4787
-33.6124
-33.8352
-34.7591
-36.6397
-39.4715
-43.062
-47.123
-51.3481
-55.4656
-59.2622
-62.5859
-65.3379
-67.46
-68.9239
-69.7296
-69.9046
-69.4997
-68.5973
-67.269
-65.5098
-63.353
-60.8432
-58.028
-54.9528
-51.6587
-48.1811
-44.5495
-40.7879
-36.9158
-32.9492
-28.9034
-24.7943
-20.6419
-16.472
-12.3187
-8.22441
-4.23952
-0.419407
3.17976
6.50619
9.51738
12.1839
14.4911
16.4394
18.0433
19.3279
20.3244
21.0694
21.5993
21.9441
22.1314
22.193
22.1575
22.0429
21.8675
21.6492
21.4008
21.1317
20.8488
20.5645
20.2843
20.0074
19.7378
19.479
19.2272
18.9804
18.753
18.5327
18.3084
18.0769
17.8385
17.6031
17.3871
17.205
17.0637
16.9613
16.8899
16.8419
16.8103
16.7917
16.7854
16.7916
16.8117
16.8471
16.8989
16.9687
17.0582
17.169
17.3025
17.4604
17.6564
17.8906
18.1065
18.2197
17.7504
15.9205
11.7404
4.84148
-3.69729
-12.0898
-19.1033
-24.1845
-27.19
-28.1788
-27.3197
-24.791
-20.7402
-15.383
-8.98982
-1.89626
5.48089
12.6455
19.0757
24.3355
28.1987
30.5926
31.5794
31.3999
30.3874
28.8622
27.0958
25.298
23.625
22.177
20.9284
19.966
19.2202
18.3131
16.9026
14.9652
12.9315
11.4861
11.2019
11.9485
12.9118
13.6675
14.768
16.8258
19.1953
20.2933
19.5266
16.6776
11.2804
-31.1887
-31.2088
-31.6173
-32.5897
-34.1888
-36.3813
-39.1301
-42.2426
-45.4188
-48.3951
-50.9842
-53.0514
-54.4981
-55.2525
-55.2224
-54.3524
-52.652
-50.1961
-47.1597
-43.8735
-40.812
-38.389
-36.7829
-35.8802
-35.3287
-34.8688
-34.3416
-33.9052
-34.1906
-34.6695
-34.7401
-34.5501
-34.3011
-34.0837
-34.1626
-34.9453
-36.3405
-38.1124
-40.2343
-42.7483
-45.6309
-48.7916
-52.1047
-55.4424
-58.6914
-61.7562
-64.5547
-67.0142
-69.0703
-70.6678
-71.7606
-72.3116
-72.3023
-71.7461
-70.6743
-69.1408
-67.189
-64.8638
-62.2119
-59.2804
-56.1142
-52.7534
-49.232
-45.5777
-41.8117
-37.9494
-34.0023
-29.9797
-25.8914
-21.7511
-17.5789
-13.4047
-9.26902
-5.22294
-1.32531
2.36216
5.78109
8.88273
11.6328
14.014
16.0257
17.6824
19.0101
20.0413
20.815
21.3695
21.7337
21.9403
22.0188
21.9972
21.8968
21.7355
21.5297
21.2923
21.034
20.763
20.4869
20.2107
19.9375
19.6709
19.4137
19.168
18.9347
18.7115
18.4882
18.2601
18.0333
17.8106
17.5994
17.4087
17.2451
17.1109
17.0053
16.9248
16.865
16.8226
16.7959
16.7839
16.7862
16.803
16.8353
16.8839
16.95
17.0357
17.1437
17.2779
17.4432
17.6471
17.8889
18.1426
18.1205
17.0768
13.8837
7.58405
-0.437762
-8.6273
-15.9741
-21.9622
-26.314
-28.8803
-29.6291
-28.638
-26.0172
-21.9196
-16.5449
-10.1456
-3.0421
4.35967
11.5679
18.058
23.3974
27.3375
29.785
30.819
30.6937
29.74
28.2779
26.576
24.8394
23.2093
21.7741
20.5728
19.6338
18.7138
17.6783
16.3374
14.7018
13.0619
11.924
11.6841
12.2193
12.9787
13.7119
14.9329
17.0645
19.5065
20.7099
19.8243
16.6034
10.6223
-30.5327
-30.6186
-32.2704
-36.0771
-40.4077
-44.3365
-47.8611
-51.0558
-53.9075
-56.3943
-58.4854
-60.1262
-61.2573
-61.8392
-61.8342
-61.1678
-59.8046
-57.6825
-54.6934
-50.7765
-46.1114
-41.2568
-36.9735
-33.7771
-31.767
-30.6653
-30.4557
-31.0725
-32.0827
-33.2835
-34.2202
-34.9451
-35.8619
-37.0847
-38.6742
-40.7184
-43.1517
-45.8152
-48.5812
-51.3871
-54.2098
-57.0419
-59.8715
-62.669
-65.383
-67.9439
-70.272
-72.2868
-73.9156
-75.0991
-75.7939
-75.9733
-75.6296
-74.7729
-73.4308
-71.642
-69.4523
-66.9117
-64.072
-60.9837
-57.6935
-54.2425
-50.6644
-46.9846
-43.221
-39.3838
-35.4777
-31.5035
-27.4617
-23.3555
-19.1957
-15.0046
-10.8185
-6.68879
-2.67932
1.13944
4.69839
7.9383
10.8166
13.3109
15.4184
17.1537
18.5441
19.6272
20.4449
21.0345
21.4282
21.6612
21.7641
21.7641
21.6836
21.541
21.3522
21.1303
20.8859
20.6274
20.3621
20.0958
19.8321
19.574
19.3239
19.0821
18.8482
18.6213
18.4
18.1834
17.9724
17.7671
17.5713
17.3908
17.2314
17.0966
16.9875
16.9027
16.8392
16.7943
16.7657
16.7521
16.7532
16.7691
16.8007
16.8487
16.9147
17.0009
17.1099
17.2457
17.413
17.6181
17.869
18.0777
17.3916
14.7945
9.23112
1.75758
-5.99179
-13.2509
-19.6536
-24.9094
-28.7388
-30.9416
-31.4551
-30.3193
-27.6087
-23.4672
-18.0814
-11.6855
-4.58191
2.83869
10.0903
16.6508
22.0788
26.0999
28.6057
29.7003
29.6466
28.7764
27.4076
25.8026
24.158
22.6088
21.2357
20.0601
19.0648
18.1235
17.1248
15.9284
14.554
13.2191
12.25
11.912
12.2112
12.8923
13.8107
15.2465
17.4922
19.896
21.1229
20.0276
16.112
9.38268
-31.5146
-32.5224
-36.6729
-42.0182
-46.7146
-50.6674
-54.0985
-57.1105
-59.7697
-62.1036
-64.0708
-65.5861
-66.5691
-66.9619
-66.7576
-65.9456
-64.526
-62.4242
-59.4607
-55.3998
-50.1478
-44.0688
-38.0553
-33.1511
-29.9389
-28.3856
-28.1006
-29.01
-30.6467
-32.5285
-34.6426
-36.928
-39.3962
-42.0334
-44.7907
-47.6067
-50.4194
-53.1933
-55.9269
-58.6365
-61.3373
-64.0329
-66.706
-69.3172
-71.8085
-74.1098
-76.1467
-77.8464
-79.1437
-79.9839
-80.3273
-80.1544
-79.467
-78.2808
-76.6238
-74.5356
-72.0657
-69.2693
-66.204
-62.9256
-59.4852
-55.9261
-52.283
-48.58
-44.8315
-41.0424
-37.2093
-33.3228
-29.3705
-25.3416
-21.2323
-17.0522
-12.8293
-8.61302
-4.47247
-0.489857
3.25026
6.67301
9.72305
12.3695
14.6056
16.4459
17.9215
19.076
19.9527
20.5886
21.0224
21.2908
21.4257
21.4546
21.4005
21.2826
21.1166
20.9158
20.6907
20.4499
20.2006
19.9481
19.6964
19.4486
19.2067
18.9721
18.7454
18.5267
18.3144
18.107
17.9048
17.7095
17.525
17.3558
17.2062
17.0785
16.9734
16.8896
16.8251
16.778
16.7467
16.7303
16.7286
16.7417
16.7699
16.8142
16.8759
16.9573
17.0615
17.1932
17.3565
17.5552
17.7731
17.6913
15.756
11.1702
4.16798
-3.39238
-10.6343
-17.2957
-23.1525
-27.9199
-31.3289
-33.2001
-33.4837
-32.202
-29.4058
-25.229
-19.8444
-13.4678
-6.38388
1.03562
8.3158
14.9445
20.4469
24.5302
27.0913
28.2504
28.2816
27.5174
26.2701
24.7928
23.2717
21.8305
20.5379
19.4137
18.4389
17.5289
16.5806
15.5044
14.3127
13.1579
12.284
11.9118
12.0959
12.7088
13.6725
15.1795
17.4338
19.8701
21.104
19.7692
15.2286
7.78744
-35.6283
-38.096
-43.0407
-47.7794
-51.8169
-55.3707
-58.5551
-61.4299
-64.0319
-66.3329
-68.2394
-69.6476
-70.4919
-70.7419
-70.3767
-69.4046
-67.866
-65.7225
-62.7894
-58.7456
-53.3688
-46.9808
-40.607
-35.4574
-31.973
-30.1729
-29.9887
-30.9727
-32.9312
-35.5005
-38.4685
-41.6142
-44.8082
-47.9686
-51.048
-54.0276
-56.9099
-59.7166
-62.478
-65.2172
-67.9408
-70.6356
-73.2698
-75.7962
-78.1564
-80.2851
-82.1143
-83.5772
-84.6122
-85.1665
-85.2028
-84.7068
-83.6863
-82.1575
-80.1534
-77.7218
-74.9216
-71.8174
-68.4758
-64.9607
-61.3293
-57.6298
-53.8987
-50.1603
-46.4268
-42.6984
-38.9645
-35.2049
-31.3929
-27.4996
-23.5014
-19.3881
-15.1725
-10.8964
-6.63185
-2.47412
1.47249
5.11147
8.36866
11.2003
13.5935
15.5632
17.1466
18.3904
19.3383
20.0326
20.5168
20.8296
21.0044
21.0697
21.049
20.9618
20.8241
20.6492
20.4478
20.2285
19.9985
19.7633
19.5269
19.2927
19.0629
18.839
18.6216
18.4109
18.2063
18.0077
17.8161
17.6332
17.4612
17.3032
17.162
17.0394
16.936
16.8518
16.7856
16.7362
16.7027
16.6842
16.6804
16.6913
16.7172
16.7587
16.817
16.8944
16.9939
17.1183
17.2696
17.4436
17.5329
16.8338
13.5105
7.34189
-0.209951
-7.66399
-14.6236
-20.9525
-26.4366
-30.8188
-33.8776
-35.4669
-35.5514
-34.1398
-31.2683
-27.0661
-21.6945
-15.3526
-8.31092
-0.920355
6.37875
13.0321
18.5824
22.7047
25.3074
26.5291
26.6548
26.0157
24.9145
23.5914
22.2192
20.9105
19.7267
18.6844
17.7621
16.896
16.008
15.0375
13.9941
12.992
12.2203
11.8544
11.9531
12.4542
13.3369
14.7713
16.9146
19.2699
20.4459
18.9323
13.9631
5.88021
-41.8204
-44.7646
-48.439
-51.8985
-55.1879
-58.2887
-61.1748
-63.865
-66.3607
-68.5815
-70.3882
-71.6581
-72.3602
-72.5177
-72.1023
-71.1274
-69.6212
-67.5203
-64.6439
-60.7313
-55.6925
-49.9776
-44.4757
-40.0003
-37.1605
-35.9688
-35.9448
-36.9859
-38.9775
-41.5954
-44.5706
-47.6854
-50.8124
-53.8859
-56.8888
-59.8313
-62.7332
-65.6129
-68.4822
-71.3422
-74.1804
-76.9704
-79.6722
-82.234
-84.594
-86.6837
-88.4317
-89.768
-90.6279
-90.9572
-90.7203
-89.9112
-88.5368
-86.6203
-84.2079
-81.3612
-78.153
-74.6619
-70.9667
-67.1418
-63.2526
-59.3524
-55.4804
-51.662
-47.9085
-44.2177
-40.5748
-36.9516
-33.3088
-29.5989
-25.7739
-21.7972
-17.6565
-13.3769
-9.02639
-4.71094
-0.556972
3.31185
6.79561
9.83317
12.4036
14.5232
16.2329
17.5791
18.6085
19.3718
19.9157
20.2814
20.5039
20.6125
20.6315
20.5808
20.4767
20.3325
20.1591
19.9654
19.7584
19.5438
19.326
19.1082
18.893
18.6821
18.4764
18.2767
18.0832
17.8961
17.7163
17.545
17.384
17.2359
17.1028
16.9865
16.8872
16.8055
16.7406
16.6916
16.6575
16.6379
16.6323
16.6409
16.6635
16.7005
16.7532
16.8237
16.9145
17.0258
17.156
17.2728
17.0995
15.568
11.0884
3.88613
-3.91714
-11.3089
-18.1057
-24.2003
-29.39
-33.4627
-36.2412
-37.6033
-37.5272
-36.0086
-33.0736
-28.8559
-23.5093
-17.2116
-10.235
-2.89279
4.37101
11.028
16.585
20.7136
23.3383
24.6169
24.8439
24.345
23.4091
22.26
21.0563
19.8993
18.843
17.9011
17.0541
16.2538
15.4414
14.5732
13.6572
12.7783
12.0791
11.7007
11.7146
12.11
12.8885
14.1705
16.0676
18.177
19.2013
17.5479
12.2956
3.68639
-46.4708
-48.7573
-51.0988
-53.6327
-56.2811
-58.89
-61.4016
-63.8244
-66.143
-68.2605
-70.0411
-71.3263
-72.0692
-72.2815
-71.9477
-71.0727
-69.6578
-67.647
-64.9117
-61.3711
-57.1893
-52.8021
-48.7559
-45.6391
-43.7561
-42.8199
-42.871
-43.909
-45.7181
-48.0361
-50.6605
-53.4402
-56.2898
-59.1719
-62.0796
-65.0198
-68.0006
-71.0244
-74.085
-77.1655
-80.2383
-83.2632
-86.187
-88.9447
-91.4608
-93.6539
-95.4416
-96.7444
-97.4924
-97.6293
-97.1225
-95.9804
-94.2095
-91.8469
-88.9543
-85.611
-81.9083
-77.9423
-73.8078
-69.5923
-65.37
-61.1996
-57.1221
-53.1619
-49.329
-45.6205
-42.0205
-38.4987
-35.009
-31.49
-27.8707
-24.0843
-20.0854
-15.8703
-11.4922
-7.06128
-2.72526
1.36212
5.07035
8.31784
11.0755
13.3582
15.2025
16.6562
17.7756
18.6159
19.2272
19.6529
19.9298
20.088
20.1524
20.1434
20.0775
19.9684
19.827
19.6623
19.4816
19.2908
19.0942
18.8956
18.6977
18.5023
18.3108
18.1242
17.9431
17.7682
17.6002
17.4405
17.2908
17.1528
17.0282
16.9181
16.8239
16.745
16.6813
16.6323
16.5974
16.5763
16.5687
16.5745
16.5936
16.6261
16.673
16.7362
16.816
16.91
17.0098
17.0287
16.4889
14.1258
8.72843
0.919836
-7.01195
-14.358
-21.0422
-26.9591
-31.9198
-35.7528
-38.315
-39.5012
-39.3012
-37.6996
-34.7098
-30.4911
-25.1871
-18.9349
-12.0515
-4.7859
2.42253
9.03818
14.5561
18.6545
21.2793
22.6081
22.9404
22.5921
21.8337
20.8705
19.8459
18.8512
17.9339
17.1059
16.3504
15.6293
14.8964
14.1193
13.3037
12.5121
11.8543
11.4506
11.3832
11.6747
12.3334
13.4273
15.0161
16.7679
17.535
15.7267
10.3025
1.34048
-47.751
-49.1492
-50.7551
-52.7196
-54.8685
-57.057
-59.2245
-61.3692
-63.4784
-65.4741
-67.2156
-68.5551
-69.4139
-69.7627
-69.5359
-68.7599
-67.4556
-65.6345
-63.3198
-60.5941
-57.6176
-54.6408
-52.0111
-49.9985
-48.6568
-48.0909
-48.4006
-49.4752
-51.1346
-53.2062
-55.559
-58.104
-60.7946
-63.6114
-66.5491
-69.6069
-72.7816
-76.0639
-79.4354
-82.8667
-86.3149
-89.722
-93.0149
-96.1072
-98.9033
-101.305
-103.216
-104.548
-105.225
-105.192
-104.425
-102.925
-100.714
-97.8466
-94.4022
-90.4822
-86.2009
-81.677
-77.025
-72.3481
-67.7312
-63.2369
-58.9048
-54.7543
-50.7896
-47.005
-43.3852
-39.9029
-36.5127
-33.1476
-29.7207
-26.1373
-22.3164
-18.2187
-13.8713
-9.37825
-4.90493
-0.633986
3.27568
6.72228
9.66472
12.105
14.0796
15.6429
16.8559
17.7779
18.4618
18.953
19.2895
19.5024
19.6171
19.6543
19.6307
19.5604
19.4544
19.322
19.1705
19.0062
18.8336
18.6566
18.4782
18.3005
18.1252
17.9535
17.7865
17.6249
17.4699
17.3226
17.1843
17.0565
16.9407
16.8378
16.7487
16.6736
16.6123
16.5645
16.5298
16.508
16.4988
16.5021
16.5174
16.5447
16.585
16.6392
16.7055
16.7779
16.8343
16.7148
15.7702
12.692
6.61419
-1.47038
-9.46918
-16.7856
-23.3923
-29.1734
-33.9614
-37.614
-40.0122
-41.0641
-40.7712
-39.1156
-36.0765
-31.8863
-26.6257
-20.4683
-13.6653
-6.49018
0.630485
7.15982
12.5928
16.6247
19.2283
20.5996
21.0385
20.8451
20.2681
19.4933
18.6498
17.8193
17.0446
16.3361
15.6788
15.0412
14.386
13.687
12.9482
12.2168
11.58
11.1408
10.9846
11.1554
11.6697
12.5574
13.8256
15.1753
15.6114
13.6269
8.12817
-1.00682
-45.6173
-46.4404
-47.7197
-49.3604
-51.191
-53.0727
-54.9336
-56.7582
-58.5409
-60.2406
-61.7666
-63.0165
-63.9189
-64.3936
-64.3976
-63.9492
-63.0917
-61.8799
-60.3679
-58.6162
-56.728
-54.8693
-53.2239
-51.9591
-51.2536
-51.2368
-51.8853
-53.0978
-54.7596
-56.7669
-59.0462
-61.5532
-64.2674
-67.1812
-70.2924
-73.5982
-77.0912
-80.7558
-84.5648
-88.4757
-92.4279
-96.3417
-100.12
-103.65
-106.817
-109.502
-111.6
-113.013
-113.657
-113.473
-112.445
-110.58
-107.904
-104.49
-100.44
-95.8795
-90.95
-85.7963
-80.5574
-75.3565
-70.293
-65.4361
-60.8223
-56.46
-52.3398
-48.4453
-44.7589
-41.2576
-37.9024
-34.6292
-31.3445
-27.9331
-24.2831
-20.321
-16.043
-11.5383
-6.98055
-2.57379
1.50213
5.12052
8.22156
10.8014
12.8963
14.564
15.8691
16.8735
17.6323
18.1922
18.5921
18.8635
19.0321
19.1189
19.1411
19.1126
19.0449
18.9474
18.8278
18.6923
18.546
18.3928
18.2359
18.0779
17.9205
17.7655
17.6139
17.4668
17.3254
17.1908
17.0642
16.947
16.8402
16.7448
16.6616
16.5907
16.5322
16.4859
16.4516
16.4291
16.4181
16.4185
16.4297
16.4514
16.4844
16.5283
16.5792
16.627
16.6291
16.3503
15.034
11.4279
4.94416
-3.25641
-11.2727
-18.583
-25.1457
-30.8294
-35.4877
-39.0068
-41.2833
-42.2357
-41.875
-40.1689
-37.1473
-32.9713
-27.7635
-21.6954
-14.9885
-7.92252
-0.921422
5.47811
10.782
14.7133
17.276
18.6817
19.224
19.1824
18.7821
18.1893
17.5201
16.8484
16.2127
15.622
15.0627
14.5072
13.9237
13.2897
12.6071
11.9132
11.2787
10.7924
10.5378
10.572
10.9197
11.5863
12.5341
13.4783
13.5584
11.3971
5.90396
-3.23696
-40.6508
-41.3029
-42.4371
-43.94
-45.642
-47.3968
-49.1131
-50.7543
-52.3113
-53.7687
-55.0881
-56.2154
-57.1066
-57.7187
-58.0339
-58.0514
-57.781
-57.2378
-56.4468
-55.4571
-54.3566
-53.2768
-52.3903
-51.883
-51.8867
-52.4268
-53.4576
-54.9121
-56.7213
-58.8318
-61.2115
-63.8462
-66.7336
-69.8769
-73.28
-76.9433
-80.8597
-85.0099
-89.3577
-93.8457
-98.3931
-102.896
-107.23
-111.258
-114.841
-117.846
-120.155
-121.666
-122.291
-121.965
-120.697
-118.481
-115.357
-111.408
-106.756
-101.55
-95.9577
-90.1499
-84.2914
-78.5287
-72.9812
-67.7312
-62.8166
-58.2348
-53.9564
-49.9457
-46.1746
-42.6201
-39.25
-36.0076
-32.8011
-29.5047
-25.986
-22.1432
-17.9462
-13.4665
-8.86893
-4.3705
-0.173858
3.57361
6.7975
9.48938
11.6856
13.4457
14.8359
15.9197
16.7528
17.3825
17.8475
18.1796
18.4046
18.5436
18.6138
18.6295
18.6024
18.542
18.4563
18.3517
18.2335
18.106
17.9725
17.8358
17.698
17.5609
17.426
17.2944
17.1674
17.0461
16.9317
16.8253
16.728
16.6405
16.5635
16.4973
16.4422
16.3979
16.3644
16.3414
16.3288
16.3262
16.333
16.3487
16.3734
16.4058
16.4395
16.4594
16.3996
15.9665
14.3619
10.4346
3.76955
-4.4255
-12.4303
-19.7352
-26.2617
-31.8746
-36.4421
-39.8661
-42.0562
-42.9419
-42.5386
-40.8079
-37.8067
-33.6676
-28.5258
-22.5511
-15.9529
-9.01492
-2.16546
4.06185
9.19482
12.9945
15.498
16.9278
17.5649
17.6645
17.4278
17.0031
16.4949
15.9706
15.4648
14.9849
14.5177
14.0378
13.5168
12.9343
12.2897
11.613
10.9641
10.4213
10.0627
9.95058
10.1151
10.5471
11.1769
11.7305
11.4641
9.14377
3.72745
-5.2542
-33.6696
-34.2926
-35.3954
-36.8851
-38.6078
-40.412
-42.1868
-43.8685
-45.4285
-46.854
-48.1363
-49.27
-50.233
-51.0017
-51.555
-51.8779
-51.964
-51.8211
-51.48
-51.0053
-50.5038
-50.1198
-50.003
-50.2613
-50.9345
-52.0094
-53.449
-55.2123
-57.266
-59.5922
-62.1873
-65.0577
-68.2156
-71.675
-75.4478
-79.5396
-83.9444
-88.6389
-93.5764
-98.6829
-103.856
-108.965
-113.859
-118.375
-122.351
-125.644
-128.133
-129.72
-130.322
-129.881
-128.433
-125.936
-122.436
-118.025
-112.839
-107.05
-100.85
-94.4366
-87.9959
-81.695
-75.6731
-70.0303
-64.8129
-60.0124
-55.5815
-51.4619
-47.6076
-43.9891
-40.5781
-37.3247
-34.1426
-30.9057
-27.4705
-23.7127
-19.5783
-15.1227
-10.5072
-5.9567
-1.68971
2.13482
5.43669
8.20549
10.4776
12.3127
13.7772
14.934
15.8382
16.5362
17.0663
17.4597
17.7422
17.9347
18.0545
18.116
18.131
18.1093
18.0591
17.9871
17.8986
17.7983
17.6897
17.5757
17.4588
17.341
17.2237
17.1085
16.9966
16.8892
16.7873
16.6921
16.6045
16.5253
16.455
16.394
16.3426
16.3006
16.2681
16.2448
16.2305
16.2247
16.2266
16.2357
16.2512
16.2705
16.2856
16.2752
16.1533
15.592
13.8024
9.73958
3.08303
-5.003
-12.9631
-20.2509
-26.7409
-32.2966
-36.7942
-40.1466
-42.2783
-43.1264
-42.704
-40.9723
-38.0041
-33.9192
-28.8553
-22.9819
-16.5049
-9.71618
-3.05247
2.96008
7.88243
11.5217
13.9479
15.3883
16.1059
16.3295
16.2371
15.9613
15.5966
15.2043
14.8154
14.4352
14.0502
13.636
13.1659
12.6206
11.9983
11.3224
10.6446
10.0368
9.57059
9.30764
9.27944
9.46899
9.78688
9.97127
9.3833
6.93564
1.66795
-6.99216
-25.4102
-26.0152
-27.1016
-28.5912
-30.3555
-32.2497
-34.1519
-35.9757
-37.671
-39.216
-40.6065
-41.844
-42.9102
-43.7894
-44.4699
-44.9491
-45.2399
-45.3768
-45.4221
-45.466
-45.6165
-45.9766
-46.619
-47.5756
-48.8447
-50.4075
-52.2412
-54.3292
-56.666
-59.2579
-62.1203
-65.2745
-68.7446
-72.5544
-76.7231
-81.2606
-86.1608
-91.3949
-96.9046
-102.599
-108.353
-114.01
-119.394
-124.317
-128.601
-132.101
-134.709
-136.346
-136.945
-136.47
-134.896
-132.202
-128.426
-123.662
-118.059
-111.805
-105.119
-98.2194
-91.312
-84.577
-78.165
-72.1904
-66.7102
-61.7166
-57.1513
-52.9374
-49.0106
-45.3316
-41.8722
-38.5881
-35.3963
-32.1724
-28.7651
-25.0386
-20.9272
-16.4803
-11.8611
-7.29771
-3.012
0.836384
4.16874
6.97626
9.29573
11.186
12.7115
13.9326
14.9025
15.6656
16.2589
16.7129
17.0526
17.2989
17.4689
17.5769
17.6351
17.6532
17.6397
17.6014
17.5439
17.472
17.3894
17.2994
17.2045
17.1068
17.0082
16.9101
16.8138
16.7207
16.6319
16.5482
16.4707
16.4
16.3367
16.2813
16.2339
16.1945
16.1631
16.1395
16.1234
16.1142
16.1109
16.1125
16.1177
16.1227
16.1176
16.0758
15.8973
15.2454
13.374
9.33761
2.85534
-5.02444
-12.892
-20.1429
-26.5926
-32.0981
-36.5413
-39.8424
-41.936
-42.7632
-42.3373
-40.6219
-37.6996
-33.6834
-28.71
-22.9487
-16.6086
-9.99535
-3.55582
2.19815
6.87184
10.3241
12.6546
14.0889
14.8676
15.1932
15.2224
15.0736
14.8326
14.5548
14.2672
13.9728
13.6571
13.2958
12.8633
12.3407
11.725
11.036
10.3187
9.63608
9.05878
8.64359
8.42041
8.3674
8.38465
8.22469
7.34641
4.81186
-0.236937
-8.42722
-16.7334
-17.2777
-18.275
-19.6618
-21.3434
-23.1989
-25.1144
-26.9978
-28.7862
-30.4465
-31.9661
-33.3127
-34.4844
-35.4838
-36.3221
-37.0238
-37.6293
-38.1962
-38.7949
-39.4986
-40.3704
-41.4524
-42.7634
-44.3034
-46.0635
-48.0336
-50.2088
-52.5935
-55.2016
-58.0554
-61.1827
-64.6153
-68.3862
-72.5265
-77.0606
-82.0005
-87.3385
-93.0393
-99.0336
-105.214
-111.436
-117.521
-123.271
-128.48
-132.964
-136.579
-139.237
-140.881
-141.461
-140.95
-139.316
-136.522
-132.599
-127.637
-121.789
-115.257
-108.274
-101.078
-93.8865
-86.8898
-80.2385
-74.0548
-68.4005
-63.2732
-58.6116
-54.3279
-50.3448
-46.6147
-43.1078
-39.7826
-36.5577
-33.3061
-29.8741
-26.1246
-21.9955
-17.5413
-12.9301
-8.38939
-4.13345
-0.311741
3.0059
5.81561
8.15492
10.0804
11.6528
12.9286
13.9573
14.781
15.4345
15.947
16.3429
16.6423
16.8622
17.0171
17.1187
17.1773
17.2012
17.1974
17.1718
17.1292
17.0737
17.0085
16.9364
16.8598
16.7804
16.7001
16.6201
16.5417
16.4662
16.3944
16.3272
16.2653
16.2093
16.1597
16.1165
16.08
16.0498
16.026
16.0079
15.995
15.986
15.9795
15.9732
15.9625
15.9359
15.8626
15.6374
14.9358
13.0759
9.20434
3.03864
-4.53447
-12.2438
-19.4249
-25.824
-31.2822
-35.6826
-38.9465
-41.0137
-41.8314
-41.4145
-39.7299
-36.8663
-32.9324
-28.0633
-22.4294
-16.2487
-9.84524
-3.67476
1.77528
6.1646
9.40565
11.6223
13.0318
13.8497
14.2531
14.3799
14.3358
14.1982
14.0163
13.8128
13.5881
13.3263
13.0032
12.5933
12.0783
11.4539
10.7369
9.96715
9.20278
8.50932
7.94143
7.52614
7.23789
6.97244
6.49825
5.36416
2.78378
-1.98535
-9.57889
-8.68671
-9.11249
-9.91693
-11.0564
-12.4727
-14.0858
-15.8146
-17.5842
-19.3305
-21.0064
-22.5749
-24.0235
-25.3561
-26.588
-27.7453
-28.8637
-29.9859
-31.1573
-32.42
-33.8065
-35.3365
-37.0182
-38.8513
-40.833
-42.962
-45.2424
-47.6855
-50.3107
-53.1442
-56.2177
-59.567
-63.2303
-67.2461
-71.6495
-76.4676
-81.7117
-87.371
-93.4048
-99.7349
-106.242
-112.768
-119.119
-125.083
-130.45
-135.03
-138.683
-141.326
-142.924
-143.47
-142.973
-141.369
-138.593
-134.669
-129.682
-123.785
-117.184
-110.12
-102.838
-95.5639
-88.4869
-81.7617
-75.5068
-69.7899
-64.6104
-59.9056
-55.5837
-51.564
-47.7966
-44.2502
-40.8803
-37.6022
-34.2864
-30.7813
-26.9608
-22.7796
-18.3087
-13.7227
-9.24145
-5.06143
-1.31237
1.9505
4.73024
7.0648
9.00719
10.6128
11.9332
13.0134
13.8919
14.6015
15.1696
15.6193
15.9705
16.2396
16.4407
16.5858
16.685
16.7466
16.7779
16.7847
16.7721
16.7443
16.7046
16.6561
16.6011
16.5417
16.4795
16.4162
16.353
16.291
16.2313
16.1748
16.122
16.0735
16.0298
15.9912
15.9575
15.9287
15.9046
15.8845
15.8676
15.8524
15.8369
15.8182
15.7907
15.7415
15.638
15.377
14.663
12.8917
9.29614
3.56775
-3.59336
-11.0601
-18.1211
-24.448
-29.8541
-34.215
-37.4492
-39.4993
-40.3197
-39.9229
-38.2819
-35.4898
-31.6524
-26.904
-21.4181
-15.4282
-9.27946
-3.43025
1.66901
5.74106
8.74997
10.8358
12.2014
13.0363
13.4939
13.6951
13.734
13.6795
13.5743
13.4366
13.264
13.0394
12.7384
12.3357
11.8127
11.1641
10.4039
9.56814
8.71037
7.89297
7.17004
6.5669
6.05584
5.53254
4.78145
3.42955
0.839819
-3.60465
-10.5028
-2.00149
-2.27106
-2.8122
-3.61388
-4.6519
-5.88958
-7.28396
-8.78193
-10.3368
-11.9137
-13.4914
-15.0622
-16.6285
-18.2011
-19.7963
-21.433
-23.1294
-24.9004
-26.7556
-28.6988
-30.7297
-32.8467
-35.0494
-37.3415
-39.732
-42.2365
-44.8775
-47.6829
-50.6858
-53.9227
-57.4335
-61.2588
-65.4386
-70.0094
-74.9982
-80.4161
-86.2508
-92.458
-98.955
-105.619
-112.286
-118.76
-124.829
-130.281
-134.931
-138.639
-141.318
-142.94
-143.515
-143.031
-141.417
-138.646
-134.75
-129.812
-123.984
-117.471
-110.509
-103.34
-96.1803
-89.2157
-82.5956
-76.4336
-70.7911
-65.6624
-60.9835
-56.6667
-52.6385
-48.8541
-45.2808
-41.8663
-38.5166
-35.0991
-31.4723
-27.5345
-23.2731
-18.7849
-14.2502
-9.87161
-5.81611
-2.18508
0.985119
3.70528
6.01268
7.95516
9.58151
10.9369
12.0614
12.9896
13.7513
14.3722
14.8741
15.2759
15.5936
15.841
16.0298
16.17
16.2701
16.3373
16.3775
16.3959
16.3967
16.3836
16.3595
16.327
16.2883
16.2452
16.1992
16.1517
16.1039
16.0567
16.0112
15.9678
15.9272
15.8898
15.8559
15.8253
15.798
15.7735
15.7512
15.7301
15.7082
15.683
15.6509
15.6054
15.5329
15.4009
15.1145
14.4175
12.791
9.55342
4.36438
-2.27203
-9.38845
-16.2536
-22.4676
-27.8034
-32.1194
-35.3266
-37.3668
-38.1955
-37.8348
-36.2515
-33.5459
-29.8229
-25.2167
-19.9086
-14.1529
-8.31709
-2.85139
1.84556
5.5665
8.32261
10.2612
11.5651
12.397
12.8878
13.1427
13.2445
13.2536
13.2063
13.116
12.9779
12.7739
12.4791
12.0685
11.5225
10.8345
10.0156
9.0982
8.13266
7.17984
6.29435
5.50351
4.78188
4.02905
3.04509
1.51959
-1.04648
-5.13901
-11.2787
2.51342
2.38005
2.08227
1.59088
0.904585
0.0324123
-1.01592
-2.20779
-3.53067
-4.97397
-6.52826
-8.18726
-9.94717
-11.8048
-13.7558
-15.7938
-17.9101
-20.0946
-22.3366
-24.6269
-26.9595
-29.3328
-31.7509
-34.2237
-36.7672
-39.4038
-42.1612
-45.0712
-48.1688
-51.4909
-55.0782
-58.9722
-63.2112
-67.8288
-72.8489
-78.2787
-84.1025
-90.2756
-96.7176
-103.309
-109.893
-116.284
-122.277
-127.671
-132.288
-135.991
-138.692
-140.356
-140.969
-140.55
-138.991
-136.305
-132.54
-127.787
-122.195
-115.965
-109.319
-102.479
-95.6474
-88.9949
-82.6618
-76.7513
-71.3126
-66.3312