/*--------------------------------*- C++ -*----------------------------------*\
  =========                 |
  \\      /  F ield         | OpenFOAM: The Open Source CFD Toolbox
   \\    /   O peration     | Website:  https://openfoam.org
    \\  /    A nd           | Version:  9
     \\/     M anipulation  |
\*---------------------------------------------------------------------------*/
FoamFile
{
    format      ascii;
    class       volVectorField;
    location    "0.16";
    object      U;
}
// * * * * * * * * * * * * * * * * * * * * * * * * * * * * * * * * * * * * * //

dimensions      [0 1 -1 0 0 0 0];

internalField   nonuniform List<vector> 
12225
(
(9.76695 -0.057812 0)
(9.29717 -0.0314568 0)
(8.80996 -0.00175431 0)
(8.31494 0.0207191 0)
(7.82997 0.0364776 0)
(7.36027 0.0469327 0)
(6.90219 0.0542005 0)
(6.45027 0.0600333 0)
(5.99884 0.0656053 0)
(5.54125 0.0717574 0)
(5.06956 0.0791137 0)
(4.5752 0.0880108 0)
(4.05038 0.0982818 0)
(3.48955 0.109002 0)
(2.8928 0.118121 0)
(2.2651 0.122758 0)
(1.62731 0.118589 0)
(0.993425 0.102323 0)
(10.0987 0.0968178 0)
(10.2948 0.162031 0)
(10.4176 0.168601 0)
(10.4725 0.167905 0)
(10.4781 0.168301 0)
(10.4428 0.169475 0)
(10.3693 0.17223 0)
(10.259 0.17758 0)
(10.1126 0.18626 0)
(9.92898 0.199035 0)
(9.70441 0.216793 0)
(9.43256 0.240375 0)
(9.10467 0.270247 0)
(8.70974 0.306054 0)
(8.23658 0.346014 0)
(7.67287 0.38684 0)
(7.01744 0.422481 0)
(6.25179 0.449199 0)
(10.0082 0.0416327 0)
(10.0517 0.0588502 0)
(10.0976 0.0584185 0)
(10.1372 0.0683798 0)
(10.1749 0.0847833 0)
(10.2113 0.102364 0)
(10.2429 0.120824 0)
(10.2669 0.141351 0)
(10.2815 0.165133 0)
(10.2854 0.193531 0)
(10.2768 0.228209 0)
(10.253 0.270959 0)
(10.21 0.323386 0)
(10.1414 0.386384 0)
(10.0379 0.459607 0)
(9.88455 0.540564 0)
(9.66933 0.625279 0)
(9.35273 0.706197 0)
(10.0039 0.0293636 0)
(10.0235 0.0601921 0)
(10.0405 0.0765921 0)
(10.0461 0.093209 0)
(10.0451 0.109753 0)
(10.0426 0.124777 0)
(10.0385 0.139771 0)
(10.0324 0.156802 0)
(10.0242 0.17746 0)
(10.0149 0.203226 0)
(10.0054 0.235799 0)
(9.99739 0.277081 0)
(9.99274 0.329026 0)
(9.99342 0.393283 0)
(10.0008 0.47103 0)
(10.0128 0.56173 0)
(10.026 0.665205 0)
(10.0231 0.774491 0)
(10.0028 0.0254714 0)
(10.018 0.0607508 0)
(10.0314 0.0790282 0)
(10.0336 0.0930333 0)
(10.0274 0.107446 0)
(10.0172 0.122288 0)
(10.0031 0.138325 0)
(9.98454 0.156966 0)
(9.96136 0.17943 0)
(9.93425 0.206851 0)
(9.90419 0.240518 0)
(9.87263 0.281857 0)
(9.84176 0.332287 0)
(9.81469 0.392983 0)
(9.79538 0.464876 0)
(9.78832 0.548048 0)
(9.79668 0.643041 0)
(9.82642 0.747911 0)
(10.002 0.0227015 0)
(10.0132 0.0570559 0)
(10.024 0.076406 0)
(10.0262 0.0915051 0)
(10.0209 0.107943 0)
(10.0114 0.125623 0)
(9.99801 0.144559 0)
(9.98003 0.16586 0)
(9.95721 0.190781 0)
(9.92997 0.220464 0)
(9.89894 0.256083 0)
(9.86497 0.298838 0)
(9.8293 0.349804 0)
(9.7937 0.40973 0)
(9.76036 0.478952 0)
(9.73214 0.557266 0)
(9.71109 0.644067 0)
(9.7035 0.739529 0)
(10.0013 0.0204076 0)
(10.0095 0.0535116 0)
(10.0179 0.0750564 0)
(10.0199 0.0925179 0)
(10.0154 0.110845 0)
(10.0067 0.130318 0)
(9.99444 0.151008 0)
(9.97821 0.174043 0)
(9.95785 0.200754 0)
(9.93376 0.232282 0)
(9.90658 0.269686 0)
(9.87711 0.313988 0)
(9.84638 0.366053 0)
(9.81568 0.426438 0)
(9.78641 0.495271 0)
(9.76006 0.572284 0)
(9.73763 0.656586 0)
(9.72103 0.748342 0)
(10.0009 0.0186667 0)
(10.0067 0.0507637 0)
(10.0131 0.0741553 0)
(10.0148 0.0935217 0)
(10.0109 0.113143 0)
(10.003 0.13396 0)
(9.99183 0.156277 0)
(9.97733 0.1811 0)
(9.95936 0.20965 0)
(9.93836 0.242968 0)
(9.91502 0.281971 0)
(9.89017 0.327505 0)
(9.86485 0.380261 0)
(9.84027 0.440663 0)
(9.81768 0.508775 0)
(9.79829 0.584359 0)
(9.78301 0.666703 0)
(9.77258 0.755743 0)
(10.0006 0.0173986 0)
(10.0047 0.0486075 0)
(10.0094 0.073276 0)
(10.0108 0.0942794 0)
(10.0075 0.115227 0)
(10.0005 0.137473 0)
(9.99071 0.161469 0)
(9.97806 0.188047 0)
(9.96258 0.218273 0)
(9.9447 0.253101 0)
(9.92513 0.293336 0)
(9.9047 0.339676 0)
(9.88443 0.392659 0)
(9.86541 0.452582 0)
(9.84881 0.519445 0)
(9.83574 0.593008 0)
(9.82705 0.672667 0)
(9.82364 0.758339 0)
(10.0004 0.0164793 0)
(10.0032 0.0469132 0)
(10.0067 0.0724685 0)
(10.0078 0.0949461 0)
(10.0052 0.117241 0)
(9.99933 0.140843 0)
(9.99101 0.166325 0)
(9.98038 0.194409 0)
(9.96755 0.226029 0)
(9.95293 0.262048 0)
(9.93723 0.303165 0)
(9.92127 0.349941 0)
(9.90597 0.402772 0)
(9.89235 0.46184 0)
(9.88142 0.527079 0)
(9.87419 0.598231 0)
(9.87141 0.674731 0)
(9.87403 0.756555 0)
(10.0003 0.0158072 0)
(10.0023 0.0455994 0)
(10.0048 0.0717716 0)
(10.0058 0.0955001 0)
(10.0039 0.119027 0)
(9.99928 0.143816 0)
(9.99263 0.170551 0)
(9.98419 0.199888 0)
(9.97414 0.232631 0)
(9.96292 0.26953 0)
(9.95119 0.311175 0)
(9.93973 0.357999 0)
(9.9294 0.410273 0)
(9.92109 0.468082 0)
(9.91571 0.531302 0)
(9.91414 0.599657 0)
(9.91703 0.672599 0)
(9.9253 0.750126 0)
(10.0002 0.0153359 0)
(10.0017 0.0446309 0)
(10.0037 0.0711847 0)
(10.0047 0.0958467 0)
(10.0035 0.120362 0)
(10.0002 0.146091 0)
(9.99522 0.173778 0)
(9.98891 0.204036 0)
(9.98154 0.237548 0)
(9.97351 0.274952 0)
(9.96545 0.316736 0)
(9.9581 0.363231 0)
(9.95225 0.41461 0)
(9.9487 0.47088 0)
(9.94826 0.53187 0)
(9.95169 0.597289 0)
(9.95957 0.666586 0)
(9.97275 0.739766 0)
(10.0002 0.0149744 0)
(10.0013 0.0438339 0)
(10.0031 0.0705827 0)
(10.0042 0.09593 0)
(10.0038 0.121249 0)
(10.0019 0.147745 0)
(9.99866 0.176165 0)
(9.99458 0.207082 0)
(9.98991 0.241074 0)
(9.98509 0.27867 0)
(9.98067 0.32026 0)
(9.97735 0.366085 0)
(9.97584 0.416232 0)
(9.97685 0.470642 0)
(9.98109 0.529099 0)
(9.98922 0.591292 0)
(10.0017 0.656666 0)
(10.0194 0.725217 0)
(10.0001 0.0146244 0)
(10.0011 0.0430067 0)
(10.0028 0.0697969 0)
(10.0043 0.0956507 0)
(10.005 0.121635 0)
(10.0047 0.148759 0)
(10.0036 0.177726 0)
(10.0022 0.20906 0)
(10.0006 0.243232 0)
(9.99946 0.280652 0)
(9.99915 0.321606 0)
(10.0003 0.36624 0)
(10.0035 0.414558 0)
(10.0095 0.466434 0)
(10.0188 0.521612 0)
(10.0319 0.579757 0)
(10.0492 0.640309 0)
(10.0716 0.703254 0)
(10.0001 0.0142406 0)
(10.0012 0.0420331 0)
(10.003 0.0686364 0)
(10.0052 0.0946971 0)
(10.0072 0.121049 0)
(10.0089 0.148499 0)
(10.0103 0.177662 0)
(10.0119 0.208989 0)
(10.014 0.242847 0)
(10.0169 0.279521 0)
(10.021 0.31919 0)
(10.027 0.361905 0)
(10.0353 0.407592 0)
(10.0464 0.456068 0)
(10.0608 0.507039 0)
(10.079 0.560157 0)
(10.1011 0.614862 0)
(10.1278 0.671138 0)
(10.0002 0.0137445 0)
(10.0014 0.0406847 0)
(10.0038 0.0667287 0)
(10.007 0.0925291 0)
(10.0107 0.118751 0)
(10.0146 0.146016 0)
(10.019 0.174812 0)
(10.024 0.205498 0)
(10.03 0.23833 0)
(10.0373 0.273478 0)
(10.0462 0.311014 0)
(10.0571 0.350899 0)
(10.0705 0.392996 0)
(10.0867 0.437073 0)
(10.1061 0.482814 0)
(10.129 0.529866 0)
(10.1555 0.577694 0)
(10.1861 0.626284 0)
(10.0002 0.0130046 0)
(10.0018 0.0385794 0)
(10.0051 0.0634651 0)
(10.0097 0.0883083 0)
(10.0154 0.113647 0)
(10.022 0.139936 0)
(10.0296 0.167527 0)
(10.0384 0.196666 0)
(10.0485 0.227503 0)
(10.0603 0.260103 0)
(10.0739 0.294442 0)
(10.0897 0.330413 0)
(10.1079 0.367828 0)
(10.1289 0.406431 0)
(10.1527 0.445902 0)
(10.1796 0.485905 0)
(10.2096 0.525956 0)
(10.243 0.566056 0)
(10.0003 0.0118148 0)
(10.0025 0.0351297 0)
(10.0069 0.057935 0)
(10.0133 0.0808403 0)
(10.0214 0.104269 0)
(10.0309 0.128524 0)
(10.0419 0.153819 0)
(10.0545 0.180285 0)
(10.0687 0.20797 0)
(10.0848 0.236848 0)
(10.1028 0.266824 0)
(10.123 0.297739 0)
(10.1454 0.329378 0)
(10.1703 0.361484 0)
(10.1976 0.39376 0)
(10.2275 0.425911 0)
(10.2597 0.457532 0)
(10.2947 0.488637 0)
(10.0004 0.00987743 0)
(10.0033 0.0294452 0)
(10.0092 0.0487102 0)
(10.0177 0.0682298 0)
(10.0285 0.0883091 0)
(10.041 0.109103 0)
(10.0554 0.130691 0)
(10.0716 0.153099 0)
(10.0896 0.176296 0)
(10.1095 0.200191 0)
(10.1313 0.224645 0)
(10.1549 0.249476 0)
(10.1805 0.274469 0)
(10.2081 0.299391 0)
(10.2375 0.323987 0)
(10.2689 0.348016 0)
(10.3019 0.371167 0)
(10.3368 0.39345 0)
(10.0005 0.00758092 0)
(10.0042 0.0226733 0)
(10.0114 0.0377213 0)
(10.0219 0.0532515 0)
(10.0348 0.0694527 0)
(10.0497 0.0863374 0)
(10.0666 0.103876 0)
(10.0853 0.122023 0)
(10.1058 0.140697 0)
(10.1281 0.159772 0)
(10.1521 0.179092 0)
(10.1777 0.19848 0)
(10.2049 0.217748 0)
(10.2336 0.236696 0)
(10.2637 0.255118 0)
(10.2951 0.272826 0)
(10.3277 0.289591 0)
(10.3615 0.305421 0)
(10.0006 0.00534683 0)
(10.0049 0.016144 0)
(10.0134 0.0272954 0)
(10.0253 0.0392963 0)
(10.0399 0.0521653 0)
(10.0565 0.0657546 0)
(10.075 0.0799628 0)
(10.0954 0.0947181 0)
(10.1174 0.109909 0)
(10.1411 0.125376 0)
(10.1663 0.140948 0)
(10.1929 0.156449 0)
(10.2208 0.171705 0)
(10.25 0.186544 0)
(10.2802 0.200793 0)
(10.3114 0.214297 0)
(10.3433 0.226879 0)
(10.3761 0.23853 0)
(10.0007 0.00304095 0)
(10.0058 0.00950142 0)
(10.0155 0.0169443 0)
(10.029 0.025786 0)
(10.045 0.0357373 0)
(10.0629 0.0464293 0)
(10.0827 0.0577106 0)
(10.1043 0.0695165 0)
(10.1275 0.0817302 0)
(10.1521 0.094196 0)
(10.178 0.106753 0)
(10.2052 0.119236 0)
(10.2334 0.131476 0)
(10.2625 0.143311 0)
(10.2925 0.154585 0)
(10.3231 0.165162 0)
(10.3543 0.174898 0)
(10.3858 0.183779 0)
(10.0008 0.000650659 0)
(10.0068 0.00275303 0)
(10.0182 0.00675963 0)
(10.0333 0.0128486 0)
(10.0505 0.0202819 0)
(10.0694 0.0285146 0)
(10.0901 0.0373769 0)
(10.1126 0.0467469 0)
(10.1367 0.0563995 0)
(10.1621 0.0661732 0)
(10.1886 0.0759606 0)
(10.2162 0.0856484 0)
(10.2447 0.0951028 0)
(10.2739 0.104181 0)
(10.3037 0.112749 0)
(10.334 0.120703 0)
(10.3645 0.127927 0)
(10.3954 0.134404 0)
(10.001 -0.00194616 0)
(10.0083 -0.00422209 0)
(10.0216 -0.00308467 0)
(10.0383 0.000758898 0)
(10.0566 0.00583914 0)
(10.0764 0.0117395 0)
(10.0979 0.0185764 0)
(10.1211 0.0262834 0)
(10.1455 0.0344344 0)
(10.1712 0.0427355 0)
(10.198 0.0510406 0)
(10.2257 0.0592334 0)
(10.2542 0.0672105 0)
(10.2833 0.0748307 0)
(10.3128 0.0819474 0)
(10.3426 0.0884582 0)
(10.3726 0.0942827 0)
(10.4026 0.0994028 0)
(10.0013 -0.00488704 0)
(10.0106 -0.0117559 0)
(10.0261 -0.0125661 0)
(10.0442 -0.00982858 0)
(10.0632 -0.00653889 0)
(10.0839 -0.00317257 0)
(10.1065 0.00075089 0)
(10.1306 0.00529749 0)
(10.1557 0.0105018 0)
(10.1819 0.0161463 0)
(10.209 0.0219634 0)
(10.2369 0.0277809 0)
(10.2655 0.0335403 0)
(10.2945 0.0391438 0)
(10.3238 0.0444428 0)
(10.3533 0.0493242 0)
(10.3828 0.0536887 0)
(10.4124 0.0575121 0)
(10.0017 -0.0080887 0)
(10.0139 -0.020067 0)
(10.0326 -0.0230549 0)
(10.0518 -0.0206485 0)
(10.0707 -0.0167509 0)
(10.0913 -0.0123555 0)
(10.1139 -0.00751358 0)
(10.1383 -0.00246511 0)
(10.1639 0.00277502 0)
(10.1905 0.00810105 0)
(10.2178 0.0133763 0)
(10.246 0.0184984 0)
(10.2748 0.0232584 0)
(10.3039 0.0276012 0)
(10.3333 0.0315736 0)
(10.3627 0.0351476 0)
(10.392 0.0382535 0)
(10.4211 0.0408801 0)
(10.0022 -0.0114418 0)
(10.0176 -0.0261357 0)
(10.04 -0.0333805 0)
(10.0616 -0.0382595 0)
(10.082 -0.0413388 0)
(10.1038 -0.0418292 0)
(10.1277 -0.0401499 0)
(10.1532 -0.0371535 0)
(10.1798 -0.0335627 0)
(10.2074 -0.0296212 0)
(10.2358 -0.0254228 0)
(10.2649 -0.0211242 0)
(10.2944 -0.0169816 0)
(10.3243 -0.0130983 0)
(10.3543 -0.0094756 0)
(10.3844 -0.00616704 0)
(10.4143 -0.00326298 0)
(10.4441 -0.000702261 0)
(10.0036 -0.0186732 0)
(10.0267 -0.021586 0)
(10.0572 -0.0119777 0)
(10.0882 -0.00843138 0)
(10.1205 -0.0096939 0)
(10.1553 -0.0113113 0)
(10.1918 -0.0121232 0)
(10.2288 -0.0123925 0)
(10.2659 -0.0123373 0)
(10.3028 -0.0119054 0)
(10.3394 -0.0110967 0)
(10.3755 -0.0100222 0)
(10.4109 -0.00872178 0)
(10.4457 -0.00730566 0)
(10.4797 -0.00594077 0)
(10.5129 -0.00477183 0)
(10.5454 -0.00389743 0)
(10.5769 -0.00351574 0)
(10.0505 -0.0650694 0)
(10.172 -0.11374 0)
(10.2691 -0.116665 0)
(10.3409 -0.111598 0)
(10.3982 -0.106643 0)
(10.4454 -0.101098 0)
(10.4836 -0.0950506 0)
(10.5139 -0.0890701 0)
(10.5378 -0.0833823 0)
(10.5571 -0.0779545 0)
(10.5729 -0.0727592 0)
(10.586 -0.0678187 0)
(10.5972 -0.0631404 0)
(10.6071 -0.058799 0)
(10.616 -0.0548843 0)
(10.6243 -0.0515046 0)
(10.6319 -0.0486789 0)
(10.6396 -0.0469372 0)
(9.87719 0.04537 0)
(9.63802 0.0276535 0)
(9.39295 0.00788617 0)
(9.14864 -0.00623065 0)
(8.91856 -0.0157855 0)
(8.70792 -0.021447 0)
(8.51625 -0.024339 0)
(8.34227 -0.0255173 0)
(8.18518 -0.0256294 0)
(8.04414 -0.0250342 0)
(7.91804 -0.0239735 0)
(7.80559 -0.0226333 0)
(7.70553 -0.0211498 0)
(7.61657 -0.0196498 0)
(7.53735 -0.0182396 0)
(7.46657 -0.0170245 0)
(7.40243 -0.0160705 0)
(7.34474 -0.0157815 0)
(-0.528666 0.428121 -8.91864e-20)
(-0.664999 0.0607135 8.94767e-20)
(0.111887 -0.808798 0)
(1.00195 -1.35938 0)
(2.02416 -1.49062 0)
(3.03932 -1.34385 -4.81292e-20)
(3.90587 -1.05892 0)
(4.52754 -0.716975 0)
(4.883 -0.351608 0)
(4.98488 0.0291252 0)
(4.79507 0.399592 4.91424e-20)
(4.34402 0.723101 0)
(3.67752 0.949426 0)
(2.85738 1.02418 0)
(1.97696 0.905105 0)
(1.1446 0.591352 7.00282e-20)
(0.538936 0.114534 0)
(0.264164 -0.418058 0)
(0.289894 -0.658786 0)
(0.514089 -0.799455 0)
(0.846336 -0.90291 0)
(1.18102 -0.867999 0)
(1.45446 -0.755933 0)
(1.60109 -0.711664 6.5194e-20)
(1.55508 -0.676771 -6.52766e-20)
(1.33585 -0.498174 6.78546e-20)
(0.898464 -0.121981 7.39094e-20)
(0.179381 0.308725 0)
(-0.737393 0.63548 0)
(-1.76285 0.866509 -5.38846e-20)
(-2.84851 1.01217 -4.76107e-20)
(-3.94907 1.08181 0)
(-5.02492 1.08795 0)
(-6.04468 1.04459 -4.18982e-20)
(-6.98547 0.965438 0)
(-7.83225 0.862819 0)
(-8.57649 0.747086 4.32876e-20)
(-9.21464 0.626428 0)
(-9.74687 0.506993 4.4663e-20)
(-10.176 0.393338 9.03873e-20)
(-10.5067 0.288909 0)
(-10.7445 0.196123 0)
(-10.8964 0.116815 0)
(-10.9685 0.0525163 0)
(-10.9677 0.00304342 0)
(-10.9186 -0.0350494 8.83718e-20)
(-10.8242 -0.0665641 8.62756e-20)
(-10.6911 -0.09348 8.3738e-20)
(-10.5235 -0.117002 0)
(-10.325 -0.137784 -7.74342e-20)
(-10.0987 -0.156291 0)
(-9.84687 -0.172918 6.96618e-20)
(-9.57159 -0.188046 6.52768e-20)
(-9.27431 -0.202041 0)
(-8.95605 -0.215252 0)
(-8.61731 -0.227979 0)
(-8.25825 -0.240442 4.46095e-20)
(-7.87874 -0.252748 0)
(-7.47859 -0.264861 0)
(-7.05784 -0.276582 0)
(-6.61697 -0.287559 0)
(-6.15721 -0.29731 0)
(-5.68068 -0.305289 0)
(-5.19051 -0.310952 0)
(-4.69075 -0.313849 0)
(-4.18614 -0.313687 2.12558e-20)
(-3.68184 -0.310378 0)
(-3.18312 -0.304031 0)
(-2.69501 -0.294891 -4.77305e-20)
(-2.22192 -0.283315 -5.66812e-20)
(-1.76744 -0.269829 0)
(-1.33461 -0.255033 7.45131e-20)
(-0.92554 -0.239071 -8.33233e-20)
(-0.54042 -0.221749 0)
(-0.180547 -0.205024 9.90305e-20)
(0.153934 -0.187897 0)
(0.467319 -0.171146 0)
(0.758015 -0.154754 -9.06114e-20)
(1.02502 -0.140219 0)
(1.27011 -0.128034 8.3107e-20)
(1.49547 -0.117493 0)
(1.70249 -0.10507 -7.74627e-20)
(1.89162 -0.0922732 -7.49101e-20)
(2.06334 -0.0817873 -7.25027e-20)
(2.21935 -0.0724146 -1.40603e-19)
(2.36054 -0.0637337 1.36586e-19)
(2.48755 -0.0557347 0)
(2.60095 -0.0491904 0)
(2.70157 -0.0449254 0)
(2.79068 -0.0379829 1.24048e-19)
(2.86428 -0.0120505 1.22126e-19)
(2.89253 0.0418852 -1.20779e-19)
(2.85517 0.108951 0)
(2.75473 0.173153 1.19522e-19)
(2.60782 0.206128 1.19669e-19)
(2.43645 0.191287 1.2031e-19)
(2.26699 0.146879 0)
(2.12108 0.090422 0)
(2.00925 0.0339569 0)
(1.93371 -0.0163115 1.21864e-19)
(1.8922 -0.0580915 0)
(1.87879 -0.0904233 0)
(1.88599 -0.112346 -1.20326e-19)
(1.90679 -0.123478 0)
(1.93897 -0.127263 0)
(1.98321 -0.126637 -1.17063e-19)
(2.04438 -0.124267 0)
(2.13127 -0.124046 0)
(2.25469 -0.124224 1.11994e-19)
(2.42442 -0.118081 1.10103e-19)
(2.63887 -0.102289 0)
(2.87216 -0.0748165 -1.06205e-19)
(3.07777 -0.0453828 0)
(3.19891 -0.0404796 1.03783e-19)
(3.17415 -0.0491127 0)
(2.88945 0.0184267 9.93306e-20)
(2.15573 0.239486 9.44544e-20)
(0.897134 0.519577 0)
(-0.667856 0.667827 0)
(-2.23323 0.67295 0)
(-3.66454 0.603056 0)
(-4.89597 0.502437 0)
(-5.90533 0.39568 0)
(-6.69531 0.294235 0)
(-7.27793 0.202679 -9.58075e-20)
(-7.66663 0.122642 1.03258e-19)
(-7.87606 0.0547541 0)
(-7.9195 -0.000632882 0)
(-7.83427 -0.0469983 0)
(-7.62875 -0.0898704 0)
(-7.30641 -0.131013 1.66837e-19)
(-6.8696 -0.170713 0)
(-6.32076 -0.208743 -9.96093e-20)
(-5.66374 -0.244618 5.51649e-20)
(-4.90522 -0.277517 0)
(-4.05613 -0.306094 0)
(-3.13196 -0.328557 0)
(-2.15152 -0.342899 1.90016e-19)
(-1.13736 -0.346977 2.65642e-19)
(-0.109098 -0.339645 0)
(0.912102 -0.323673 3.17097e-19)
(1.89779 -0.30108 3.05831e-19)
(2.8241 -0.273967 -2.89425e-19)
(3.67548 -0.244057 0)
(4.44357 -0.213486 0)
(5.12588 -0.182766 -2.30554e-19)
(5.72245 -0.150569 0)
(6.23167 -0.122194 0)
(6.6626 -0.107207 0)
(7.03987 -0.0708526 0)
(7.23931 0.0502738 1.60679e-19)
(7.06926 0.242835 1.54851e-19)
(6.47909 0.427038 0)
(5.50946 0.493346 1.4963e-19)
(4.3412 0.382298 0)
(3.27165 0.134524 0)
(2.55601 -0.149145 1.26582e-19)
(2.25074 -0.343485 0)
(2.32532 -0.382939 1.36591e-19)
(2.68481 -0.330376 0)
(3.1668 -0.202935 0)
(3.33169 -0.00798392 1.45371e-19)
(2.71346 0.244724 0)
(0.918744 0.518024 2.32297e-20)
(-1.54374 0.617437 0)
(-3.65366 0.47702 0)
(-5.05481 0.263568 0)
(-5.66378 0.0694291 2.67546e-19)
(-5.59664 -0.0774197 0)
(-5.09281 -0.177731 -2.00017e-19)
(-4.27776 -0.234499 0)
(-3.31204 -0.253354 0)
(-2.32495 -0.245427 0)
(-1.39378 -0.224679 0)
(-0.541641 -0.199815 0)
(0.245196 -0.176517 0)
(1.00463 -0.149692 0)
(1.72499 -0.101133 -3.05236e-19)
(2.27891 -0.0324994 0)
(2.4929 0.0122044 0)
(-0.302178 1.20707 2.72766e-19)
(0.844676 -0.60515 -2.06646e-19)
(2.04345 -2.60336 0)
(3.05637 -3.49166 9.1702e-20)
(3.84097 -3.44923 0)
(4.42154 -2.92013 3.6772e-20)
(4.8333 -2.21778 -9.86886e-20)
(5.10536 -1.49061 -1.04247e-19)
(5.25427 -0.786594 0)
(5.29477 -0.105114 -1.11809e-19)
(5.26118 0.567306 -4.48996e-20)
(5.11781 1.21045 0)
(4.8214 1.76951 0)
(4.35031 2.15478 0)
(3.7274 2.26724 0)
(3.02946 2.04759 -4.59708e-20)
(2.39637 1.48898 0)
(1.90626 0.835267 1.15896e-19)
(1.59486 0.219401 0)
(1.56572 -0.43161 0)
(1.51631 -0.772892 -1.26337e-19)
(1.21134 -0.697977 0)
(0.646391 -0.101944 1.5481e-19)
(-0.303533 0.597321 -7.09345e-20)
(-1.45351 1.19794 5.42121e-20)
(-2.69404 1.74394 -4.33566e-20)
(-3.96219 2.20433 -3.60096e-20)
(-5.20043 2.53415 0)
(-6.36068 2.71732 0)
(-7.41219 2.76718 2.59961e-20)
(-8.33553 2.70422 -3.44597e-20)
(-9.11975 2.55398 0)
(-9.76388 2.34296 0)
(-10.2752 2.09545 2.87762e-20)
(-10.6667 1.83161 0)
(-10.955 1.56666 0)
(-11.1575 1.31098 -3.54366e-20)
(-11.2914 1.07073 0)
(-11.3718 0.848889 4.58887e-20)
(-11.4115 0.646305 -8.27039e-20)
(-11.4208 0.462655 0)
(-11.4071 0.297265 0)
(-11.3752 0.14987 -1.85351e-19)
(-11.328 0.0207131 -1.84586e-19)
(-11.266 -0.0909028 -1.81639e-19)
(-11.1704 -0.18715 9.14116e-20)
(-11.0434 -0.271391 -8.41711e-20)
(-10.8845 -0.345582 -2.48971e-19)
(-10.6955 -0.411192 1.61057e-19)
(-10.4787 -0.469343 7.52873e-20)
(-10.2362 -0.521049 0)
(-9.9702 -0.567328 -6.75464e-20)
(-9.68236 -0.609235 6.61811e-20)
(-9.37399 -0.647842 0)
(-9.04588 -0.684185 0)
(-8.69832 -0.719178 0)
(-8.33115 -0.753502 -4.28646e-20)
(-7.94389 -0.787493 0)
(-7.53599 -0.821045 6.5051e-20)
(-7.10707 -0.85355 0)
(-6.65729 -0.883907 3.88133e-20)
(-6.18764 -0.910614 0)
(-5.70019 -0.931946 -1.00311e-20)
(-5.19817 -0.946199 0)
(-4.68592 -0.951955 -2.09623e-20)
(-4.16861 -0.948314 1.71604e-20)
(-3.6519 -0.935045 0)
(-3.14147 -0.912602 7.01386e-20)
(-2.6426 -0.881997 4.45519e-20)
(-2.15988 -0.84463 5.28695e-20)
(-1.697 -0.802148 0)
(-1.25671 -0.756214 6.76451e-20)
(-0.84061 -0.708104 7.77717e-20)
(-0.449146 -0.658743 0)
(-0.0824033 -0.609711 -9.1195e-20)
(0.259885 -0.561989 1.79355e-19)
(0.57903 -0.516686 0)
(0.87492 -0.473677 8.38995e-20)
(1.14852 -0.432732 0)
(1.40124 -0.39463 -2.3334e-19)
(1.63412 -0.359518 0)
(1.84855 -0.327454 2.18747e-19)
(2.04601 -0.297423 7.0895e-20)
(2.22773 -0.269328 -6.82794e-20)
(2.39448 -0.243121 -1.32791e-19)
(2.54717 -0.218599 1.29304e-19)
(2.68668 -0.195374 0)
(2.81369 -0.17303 0)
(2.92814 -0.151196 0)
(3.02897 -0.127982 -3.55605e-19)
(3.11958 -0.0972747 -1.16631e-19)
(3.22525 -0.0539537 1.14268e-19)
(3.35826 -0.000555364 0)
(3.50347 0.0557255 1.07729e-19)
(3.63945 0.104745 -1.05098e-19)
(3.75695 0.136824 -1.02308e-19)
(3.85222 0.148307 0)
(3.92712 0.14192 0)
(3.98598 0.124959 0)
(4.03161 0.106007 -9.5696e-20)
(4.0631 0.0918295 0)
(4.07611 0.0845187 1.89543e-19)
(4.06621 0.0798874 2.83407e-19)
(4.02953 0.072849 -1.89178e-19)
(3.96526 0.0580671 0)
(3.88057 0.0307652 -9.57337e-20)
(3.78951 -0.0123148 0)
(3.71194 -0.0713455 -1.92964e-19)
(3.67205 -0.145238 9.62694e-20)
(3.69149 -0.225282 9.56101e-20)
(3.78085 -0.288457 0)
(3.92092 -0.299172 2.84165e-19)
(4.03764 -0.224851 -1.92269e-19)
(3.96127 -0.0291753 -9.6446e-20)
(3.33824 0.373745 0)
(1.87232 1.00225 -1.01084e-19)
(-0.167775 1.60077 -2.39732e-19)
(-2.14129 1.86106 0)
(-3.78489 1.83702 -3.8097e-20)
(-5.04445 1.64013 1.1987e-20)
(-5.9662 1.3741 5.88339e-20)
(-6.621 1.10193 0)
(-7.07852 0.851183 0)
(-7.39356 0.628622 0)
(-7.60409 0.432035 -1.03406e-19)
(-7.73314 0.256862 -1.02429e-19)
(-7.79068 0.0998035 0)
(-7.77741 -0.0406781 -2.21455e-19)
(-7.66146 -0.16982 -2.11369e-19)
(-7.43562 -0.292564 0)
(-7.09887 -0.410826 -1.64016e-19)
(-6.65176 -0.524756 -2.80607e-19)
(-6.09593 -0.633496 9.64191e-20)
(-5.43467 -0.735441 6.70678e-20)
(-4.67388 -0.828245 0)
(-3.82328 -0.908703 0)
(-2.89701 -0.972652 0)
(-1.91353 -1.01565 -1.75692e-19)
(-0.895324 -1.03332 2.27379e-19)
(0.138004 -1.02256 5.46176e-19)
(1.1637 -0.982924 -2.81383e-19)
(2.15581 -0.924719 2.66703e-19)
(3.09087 -0.852401 2.63971e-19)
(3.95447 -0.771148 0)
(4.73858 -0.686527 0)
(5.44026 -0.603089 -2.11253e-19)
(6.06291 -0.523124 0)
(6.61628 -0.447155 0)
(7.09519 -0.373398 3.3922e-19)
(7.47624 -0.281994 0)
(7.87712 -0.137446 1.43798e-19)
(8.41454 0.0832634 -1.39441e-19)
(8.93361 0.377331 0)
(9.21195 0.667055 1.06381e-19)
(9.13615 0.838921 0)
(8.77609 0.837254 0)
(8.20603 0.696282 -8.41559e-20)
(7.36635 0.472168 1.82664e-19)
(6.28208 0.17868 -1.0396e-19)
(5.30004 -0.109684 0)
(4.70159 -0.139331 0)
(4.16536 0.304622 1.37141e-19)
(2.70461 1.06227 0)
(0.13046 1.64513 -2.26752e-21)
(-2.12427 1.65405 0)
(-3.53678 1.21578 0)
(-4.30927 0.670325 0)
(-4.62424 0.171445 -2.85824e-19)
(-4.54951 -0.237017 0)
(-4.05689 -0.527953 2.03107e-19)
(-3.26677 -0.687081 0)
(-2.33363 -0.733928 0)
(-1.38904 -0.706472 -1.63317e-20)
(-0.519223 -0.643424 -9.98762e-20)
(0.247947 -0.581129 0)
(0.930679 -0.548488 0)
(1.58131 -0.53768 0)
(2.2589 -0.482239 8.39101e-19)
(2.91134 -0.314814 0)
(3.31059 -0.0821333 -5.87674e-19)
(0.461311 -0.551777 9.67838e-21)
(1.73608 -3.91204 2.01685e-19)
(2.75356 -5.30992 0)
(3.31788 -5.09225 -1.80832e-19)
(3.51606 -4.19038 0)
(3.55045 -3.15996 0)
(3.54937 -2.202 -1.74081e-20)
(3.54919 -1.34703 1.25765e-19)
(3.54795 -0.564235 1.52923e-19)
(3.53603 0.185483 1.41019e-19)
(3.52563 0.920616 0)
(3.49721 1.65386 0)
(3.41683 2.34954 -1.2451e-19)
(3.24227 2.90254 -2.264e-19)
(2.94243 3.16444 2.08708e-19)
(2.51963 3.02399 0)
(2.01518 2.55483 2.04898e-19)
(1.59577 1.7856 -1.1497e-19)
(1.38471 0.35604 0)
(0.895469 -0.42172 2.79655e-19)
(-0.233392 0.462308 1.36848e-19)
(-1.6098 1.48443 -2.02342e-19)
(-2.97543 2.33048 -8.03645e-20)
(-4.32677 3.03897 0)
(-5.58442 3.58392 1.26722e-19)
(-6.71329 3.96213 1.196e-19)
(-7.67669 4.17392 0)
(-8.45735 4.22411 1.16581e-19)
(-9.06064 4.12592 0)
(-9.50709 3.90516 1.2358e-19)
(-9.82563 3.59494 5.26076e-20)
(-10.0493 3.2296 0)
(-10.2102 2.84019 0)
(-10.3355 2.45145 0)
(-10.4452 2.08055 0)
(-10.5509 1.73738 0)
(-10.6567 1.42583 0)
(-10.7608 1.14563 1.83663e-19)
(-10.8579 0.894085 -2.76743e-19)
(-10.9409 0.667358 0)
(-11.0028 0.46137 0)
(-11.0367 0.272576 0)
(-11.0381 0.0979406 -9.62929e-21)
(-11.0047 -0.0648612 1.8735e-19)
(-10.9373 -0.216974 3.76071e-19)
(-10.8373 -0.357665 -3.66792e-19)
(-10.7073 -0.485679 -1.81427e-19)
(-10.5491 -0.601133 1.68528e-19)
(-10.3648 -0.704568 5.85617e-21)
(-10.1562 -0.796906 1.59908e-19)
(-9.92515 -0.879343 0)
(-9.67343 -0.953316 1.4271e-19)
(-9.40232 -1.02047 4.59898e-21)
(-9.11271 -1.08258 0)
(-8.8049 -1.14142 0)
(-8.47863 -1.19863 -1.0302e-19)
(-8.13304 -1.25543 0)
(-7.76683 -1.31248 0)
(-7.37852 -1.36963 7.36193e-20)
(-6.96677 -1.42578 1.12037e-19)
(-6.53089 -1.4789 -3.76175e-20)
(-6.07127 -1.52619 0)
(-5.58973 -1.56438 9.65332e-21)
(-5.0897 -1.59024 0)
(-4.57618 -1.60107 -1.07439e-20)
(-4.05531 -1.59519 -3.5419e-20)
(-3.53387 -1.57216 9.40116e-20)
(-3.01864 -1.53282 5.9396e-20)
(-2.51578 -1.47914 0)
(-2.03044 -1.41382 -1.90875e-19)
(-1.56652 -1.33995 0)
(-1.1267 -1.26053 -3.85716e-19)
(-0.712588 -1.17823 -2.87206e-19)
(-0.324477 -1.09574 -3.18942e-19)
(0.0383187 -1.01441 3.33309e-19)
(0.37637 -0.935315 -4.92416e-19)
(0.690659 -0.860006 0)
(0.981465 -0.78897 0)
(1.25023 -0.722353 3.0041e-19)
(1.49842 -0.660323 4.39219e-19)
(1.7273 -0.602753 0)
(1.93813 -0.54921 -1.39077e-19)
(2.13229 -0.49937 0)
(2.31103 -0.453144 3.93686e-19)
(2.47535 -0.410241 1.46924e-21)
(2.62614 -0.370287 -1.33377e-21)
(2.76428 -0.332878 -2.4371e-19)
(2.89061 -0.297383 0)
(3.00591 -0.262668 2.33707e-19)
(3.11081 -0.227945 1.0032e-21)
(3.20559 -0.194478 0)
(3.29212 -0.162198 0)
(3.37645 -0.127265 0)
(3.46868 -0.0871995 -2.15947e-19)
(3.57668 -0.0459933 0)
(3.695 -0.0147576 0)
(3.81276 -0.00174956 0)
(3.92126 -0.00778555 0)
(4.01779 -0.0272704 0)
(4.10503 -0.0510367 -1.89428e-19)
(4.18876 -0.0689535 0)
(4.27354 -0.0721684 -1.83782e-19)
(4.35942 -0.0568705 -1.81787e-19)
(4.44002 -0.0270896 1.80292e-19)
(4.50263 0.00716164 0)
(4.53422 0.0319422 1.78464e-19)
(4.52666 0.033333 0)
(4.47883 -0.000473208 1.802e-19)
(4.40767 -0.0780594 -1.80127e-19)
(4.35282 -0.191567 -5.40985e-19)
(4.33122 -0.291585 0)
(4.28539 -0.280906 -5.64415e-19)
(4.04198 -0.0296118 -1.92489e-19)
(3.2661 0.61609 0)
(1.68151 1.62433 -3.69859e-19)
(-0.391448 2.57507 -2.91762e-19)
(-2.1945 3.02124 3.0738e-19)
(-3.50642 3.00565 0)
(-4.40519 2.7023 3.47635e-20)
(-5.03599 2.27508 -1.15605e-20)
(-5.53181 1.83968 -2.23872e-19)
(-5.96625 1.4493 0)
(-6.36034 1.11467 0)
(-6.70549 0.827064 0)
(-6.98356 0.573155 -2.2773e-19)
(-7.1767 0.341161 0)
(-7.27256 0.122953 0)
(-7.26561 -0.0868661 2.26772e-19)
(-7.15483 -0.291487 2.14812e-19)
(-6.93843 -0.490329 0)
(-6.61573 -0.683344 0)
(-6.18663 -0.869861 2.78406e-19)
(-5.652 -1.04822 0)
(-5.0143 -1.21559 -1.16992e-19)
(-4.27852 -1.36786 -4.24066e-20)
(-3.45329 -1.49963 0)
(-2.55197 -1.60411 0)
(-1.59268 -1.6742 -2.94763e-19)
(-0.595684 -1.70463 -2.04604e-20)
(0.4172 -1.68624 -1.78543e-20)
(1.42058 -1.62469 0)
(2.38878 -1.53018 -9.7734e-19)
(3.29925 -1.41095 0)
(4.13746 -1.2768 0)
(4.89605 -1.13733 0)
(5.57395 -1.00031 4.06894e-19)
(6.17437 -0.870873 0)
(6.70359 -0.748859 -6.93105e-19)
(7.17252 -0.627434 -3.28645e-19)
(7.58868 -0.504555 0)
(7.94136 -0.378907 -2.89358e-19)
(8.25321 -0.220395 0)
(8.65759 0.017601 0)
(9.22156 0.331497 -6.43329e-19)
(9.82204 0.62564 3.64813e-19)
(10.2667 0.798667 0)
(10.3957 0.851329 2.93148e-19)
(10.0872 0.85449 -1.49301e-19)
(9.30899 0.797359 0)
(8.09299 0.605878 0)
(6.52962 0.502102 0)
(4.90234 0.999479 -6.83848e-19)
(3.07815 2.02426 0)
(1.05182 2.7003 -1.56364e-20)
(-0.494682 2.49842 0)
(-1.64327 1.75649 0)
(-2.48446 0.953 0)
(-2.93243 0.229726 0)
(-2.916 -0.403666 0)
(-2.51664 -0.871528 0)
(-1.83199 -1.12572 6.18504e-19)
(-1.0083 -1.19221 0)
(-0.169269 -1.12748 1.60082e-20)
(0.588618 -0.996003 2.741e-19)
(1.23115 -0.866641 0)
(1.75492 -0.792121 0)
(2.19467 -0.780179 -4.87876e-19)
(2.63009 -0.737821 -5.2787e-19)
(3.0796 -0.510034 5.63038e-19)
(3.30484 -0.071695 5.82513e-19)
(0.712442 -3.62403 -4.10956e-19)
(1.6524 -6.44448 -3.0463e-19)
(2.08531 -6.10075 -2.21836e-19)
(2.11386 -4.89318 -1.39028e-19)
(2.00536 -3.76881 0)
(1.92594 -2.85079 3.23812e-19)
(1.89203 -2.05184 -1.90425e-19)
(1.8667 -1.31684 0)
(1.83241 -0.607927 -2.05688e-19)
(1.79107 0.100258 0)
(1.73834 0.854398 4.10446e-19)
(1.64374 1.68804 0)
(1.49078 2.56023 1.61748e-19)
(1.28024 3.33901 2.91249e-19)
(1.02679 3.82238 -2.65303e-19)
(0.758029 3.78531 0)
(0.527917 3.0153 -2.5252e-19)
(0.304826 1.64162 0)
(-0.574186 1.4286 0)
(-1.99595 2.28554 -1.69432e-19)
(-3.47649 3.27296 0)
(-4.85266 4.07239 -1.01259e-20)
(-6.05524 4.66297 0)
(-7.06321 5.06409 0)
(-7.86158 5.26842 1.55026e-20)
(-8.45715 5.29219 -1.00942e-19)
(-8.87005 5.16322 -1.23179e-19)
(-9.13393 4.91348 -1.09136e-19)
(-9.29024 4.57723 0)
(-9.38152 4.18946 -2.6834e-19)
(-9.44535 3.78105 0)
(-9.50943 3.37503 -1.62372e-19)
(-9.5895 2.98528 0)
(-9.69016 2.61762 0)
(-9.80769 2.27221 1.86878e-19)
(-9.9336 1.94643 0)
(-10.0577 1.63706 -2.00594e-19)
(-10.1706 1.34157 1.68648e-20)
(-10.2642 1.05863 4.06961e-19)
(-10.3329 0.788129 -4.3128e-19)
(-10.3728 0.530815 0)
(-10.382 0.287862 0)
(-10.3601 0.0600336 -2.33457e-19)
(-10.3071 -0.152379 0)
(-10.2243 -0.34908 -2.00376e-19)
(-10.1135 -0.530212 1.94939e-19)
(-9.97699 -0.695592 1.88672e-19)
(-9.81734 -0.845317 0)
(-9.63725 -0.979916 -1.73882e-19)
(-9.43932 -1.10041 -1.65484e-19)
(-9.2258 -1.20828 3.25589e-19)
(-8.99841 -1.30545 -1.46994e-19)
(-8.75819 -1.39419 -1.37014e-19)
(-8.50541 -1.47704 0)
(-8.23946 -1.55663 0)
(-7.9589 -1.63543 1.04581e-19)
(-7.66143 -1.71544 0)
(-7.3441 -1.7978 0)
(-7.00352 -1.88239 -1.37114e-19)
(-6.6364 -1.96754 -1.11391e-19)
(-6.24016 -2.05001 0)
(-5.81366 -2.12515 0)
(-5.35782 -2.18749 0)
(-4.87598 -2.23153 0)
(-4.37386 -2.25267 2.9931e-20)
(-3.85904 -2.24805 -4.83854e-20)
(-3.34011 -2.21697 -9.09694e-20)
(-2.82567 -2.16096 -2.33908e-19)
(-2.32345 -2.08334 0)
(-1.8397 -1.98858 8.59269e-21)
(-1.37889 -1.88162 0)
(-0.943792 -1.76722 2.46863e-19)
(-0.536051 -1.64948 7.24106e-21)
(-0.15549 -1.53187 3.03089e-19)
(0.199092 -1.4164 -3.09898e-19)
(0.528692 -1.30495 5.35544e-21)
(0.834103 -1.19933 0)
(1.11635 -1.10002 -2.87429e-19)
(1.37702 -1.0072 -2.84946e-19)
(1.61764 -0.9209 -5.53175e-19)
(1.83963 -0.840922 0)
(2.0443 -0.766869 2.62525e-19)
(2.23297 -0.698287 0)
(2.40683 -0.634775 -5.03852e-19)
(2.56696 -0.575874 2.47336e-19)
(2.71428 -0.521082 -2.41978e-19)
(2.84967 -0.469871 2.36948e-19)
(2.9739 -0.421694 4.61518e-19)
(3.08784 -0.375935 -2.27904e-19)
(3.19273 -0.331838 2.23881e-19)
(3.29018 -0.28844 0)
(3.38191 -0.244427 -4.30888e-19)
(3.4701 -0.19951 0)
(3.55741 -0.156527 -4.17735e-19)
(3.64606 -0.120525 4.10943e-19)
(3.73689 -0.0950545 4.03767e-19)
(3.82872 -0.0811033 -3.96296e-19)
(3.91862 -0.0773298 -3.88853e-19)
(4.00364 -0.0811654 0)
(4.08225 -0.0893142 -1.87447e-19)
(4.15515 -0.0977268 0)
(4.22529 -0.10155 0)
(4.29724 -0.094833 -3.62501e-19)
(4.37454 -0.0732746 0)
(4.45389 -0.0376991 0)
(4.51915 0.00389385 -3.56246e-19)
(4.54769 0.0352895 0)