/*--------------------------------*- C++ -*----------------------------------*\
  =========                 |
  \\      /  F ield         | OpenFOAM: The Open Source CFD Toolbox
   \\    /   O peration     | Website:  https://openfoam.org
    \\  /    A nd           | Version:  9
     \\/     M anipulation  |
\*---------------------------------------------------------------------------*/
FoamFile
{
    format      ascii;
    class       volScalarField;
    location    "0.2";
    object      epsilon;
}
// * * * * * * * * * * * * * * * * * * * * * * * * * * * * * * * * * * * * * //

dimensions      [0 2 -3 0 0 0 0];

internalField   nonuniform List<scalar> 
12225
(
222.782
168.082
130.247
104.66
88.264
78.9793
75.3337
76.2387
80.8751
88.6398
99.1166
112.051
127.309
144.776
164.157
184.566
204.268
228.575
40.0488
49.0574
53.3983
58.3706
66.6183
80.0902
100.693
130.398
171.203
225.082
293.981
379.735
483.704
605.811
742.789
885.727
1019.38
1123.66
19.9324
24.01
26.9197
29.3985
32.0948
35.5668
40.3749
47.1397
56.5888
69.6276
87.4336
111.539
143.834
186.401
241.089
308.832
389.033
480.294
15.8966
17.2451
18.4498
19.5248
20.593
21.7972
23.29
25.2403
27.8473
31.3684
36.1646
42.7575
51.8821
64.4926
81.6713
104.416
133.464
169.368
14.8219
15.0653
15.3996
15.7547
16.1265
16.539
17.0311
17.6525
18.4644
19.5459
21.0073
23.0107
25.7976
29.7146
35.2239
42.8627
53.1898
66.5951
14.5173
14.3214
14.2304
14.2037
14.2212
14.2775
14.3772
14.5327
14.7628
15.0938
15.5619
16.2194
17.1427
18.443
20.2793
22.8642
26.4687
31.3597
14.4332
14.0756
13.7922
13.5693
13.3953
13.2625
13.1675
13.1112
13.0983
13.1372
13.2407
13.4273
13.7237
14.1679
14.8137
15.7352
17.0321
18.8078
14.4112
14
13.6393
13.3255
13.0538
12.8198
12.6202
12.4533
12.3195
12.2207
12.1613
12.1477
12.19
12.3023
12.5043
12.8237
13.2974
13.9595
14.4058
13.9788
13.5909
13.2402
12.9243
12.6407
12.3871
12.1621
11.9648
11.7951
11.6543
11.5443
11.4689
11.4331
11.4448
11.5145
11.6567
11.8831
14.4046
13.9734
13.5771
13.2135
12.8802
12.5752
12.2968
12.0434
11.8141
11.6084
11.426
11.2675
11.1339
11.0271
10.9498
10.9062
10.902
10.9412
14.4043
13.9721
13.5737
13.2061
12.867
12.554
12.2655
12
11.7562
11.5333
11.3308
11.1484
10.9862
10.8446
10.7244
10.6272
10.5549
10.5093
14.4042
13.9719
13.573
13.2045
12.8638
12.5485
12.2568
11.987
11.7379
11.5083
11.2976
11.105
10.9304
10.7735
10.6344
10.5135
10.4116
10.3294
14.4042
13.9718
13.5729
13.2042
12.8631
12.5472
12.2544
11.9831
11.7318
11.4994
11.285
11.0876
10.9068
10.7421
10.5932
10.4598
10.3423
10.2409
14.4042
13.9718
13.573
13.2043
12.8632
12.5472
12.2542
11.9825
11.7306
11.4972
11.2812
11.0818
10.8981
10.7295
10.5756
10.4358
10.3099
10.1983
14.4042
13.9718
13.573
13.2045
12.8635
12.5477
12.2548
11.9832
11.7312
11.4976
11.2811
11.0809
10.8959
10.7255
10.569
10.4257
10.2954
10.1782
14.4041
13.9718
13.573
13.2047
12.8639
12.5482
12.2556
11.9843
11.7325
11.4989
11.2824
11.0818
10.8962
10.7247
10.5667
10.4213
10.2881
10.1673
14.404
13.9717
13.573
13.2047
12.8641
12.5488
12.2565
11.9855
11.734
11.5007
11.2843
11.0836
10.8976
10.7254
10.5662
10.4192
10.2837
10.1602
14.4039
13.9715
13.5728
13.2047
12.8644
12.5493
12.2575
11.9869
11.7358
11.5028
11.2866
11.0859
10.8997
10.727
10.5668
10.4185
10.2812
10.1553
14.4038
13.9712
13.5726
13.2046
12.8645
12.5499
12.2584
11.9883
11.7377
11.5052
11.2893
11.0887
10.9024
10.7293
10.5685
10.419
10.2803
10.1525
14.4036
13.971
13.5723
13.2045
12.8647
12.5504
12.2594
11.9897
11.7395
11.5073
11.2916
11.0912
10.9049
10.7316
10.5703
10.4202
10.2804
10.1514
14.4034
13.9708
13.5722
13.2045
12.865
12.551
12.2604
11.9911
11.7413
11.5094
11.294
11.0938
10.9075
10.7341
10.5726
10.422
10.2817
10.152
14.4034
13.9707
13.5723
13.2049
12.8657
12.5522
12.262
11.9933
11.7441
11.5128
11.2979
11.0982
10.9124
10.7394
10.5782
10.4278
10.2876
10.1577
14.4034
13.9709
13.5731
13.2066
12.8686
12.5566
12.2683
12.0015
11.7544
11.5253
11.3127
11.1152
10.9315
10.7605
10.6011
10.4525
10.3138
10.1854
14.4039
13.9734
13.5792
13.218
12.8868
12.5829
12.3035
12.0462
11.8089
11.5895
11.3865
11.1981
11.0231
10.8603
10.7087
10.5672
10.4352
10.3128
14.4092
13.9932
13.622
13.2902
12.9919
12.722
12.4764
12.2517
12.045
11.8542
11.6774
11.5133
11.3606
11.2183
11.0855
10.9616
10.8458
10.7385
14.4517
14.1228
13.8621
13.6471
13.4617
13.2957
13.1426
12.9988
12.8628
12.7346
12.6144
12.5019
12.3968
12.2991
12.2086
12.1251
12.0482
11.9782
14.7344
14.8073
14.9291
15.0376
15.1162
15.1651
15.1908
15.2015
15.205
15.2061
15.2088
15.2165
15.2307
15.2551
15.2905
15.3358
15.3898
15.4511
16.3987
17.9272
19.032
19.7869
20.3176
20.7205
21.0639
21.3962
21.7498
22.1442
22.5893
23.0886
23.6403
24.2372
24.8717
25.5361
26.2235
26.9268
27.1659
32.5287
34.7137
35.7181
36.437
37.2796
38.4487
40.0404
42.0874
44.5842
47.5026
50.7983
54.4167
58.2983
62.3815
66.606
70.923
75.263
142.553
119.613
101.718
87.6777
76.6608
68.0533
61.3905
56.3086
52.5156
49.7724
47.8817
46.6782
46.0232
45.7998
45.9103
46.273
46.8213
47.4977
22.7094
8.65487
50.3977
65.4568
69.2702
70.726
73.0514
77.0263
83.0259
91.3988
102.666
115.719
127.581
136.426
139.73
134.219
116.369
84.2571
46.1881
7.07761
5.33801
5.44007
5.9509
6.50594
6.76211
6.79953
6.95292
7.10697
7.30473
7.65104
8.21803
40.2316
92.7322
225.514
380.197
547.25
711.795
862.537
991.955
1095.84
1172.63
1222.73
1247.87
1250.68
1234.25
1201.86
1156.8
1102.15
1040.66
974.641
908.781
845.196
784.054
725.514
669.725
616.79
566.764
519.661
475.461
434.114
395.544
359.652
326.32
295.414
266.786
240.278
215.733
193
171.944
152.454
134.45
117.882
102.732
89.0117
76.7696
66.1266
57.3619
50.9126
44.767
10.2271
10.4186
45.6488
45.2023
10.7028
45.5681
10.7593
10.5813
10.3539
10.2051
10.4495
47.2729
50.4574
53.3323
56.1082
58.8158
61.3658
63.281
62.6362
54.2081
10.4126
8.89394
7.67276
6.74546
6.12215
5.78992
5.70395
5.80053
6.01815
6.2984
6.572
6.80824
7.0006
7.1595
7.31556
7.52751
7.89283
8.56388
9.78809
11.9707
59.0293
66.2204
71.543
73.9591
72.5244
69.5882
74.9034
120.674
233.731
347.233
437.377
493.332
514.283
505.186
473.623
427.659
374.237
321.273
272.28
228.27
189.704
156.595
128.662
105.464
86.5636
71.8233
62.3598
61.5802
13.9412
72.8495
94.1641
123
160.75
208.235
265.159
330.673
404.46
473.479
496.967
459.14
364.766
243.679
136.853
68.2833
10.6563
8.21657
7.16301
6.31387
5.42038
4.46542
3.63425
3.22148
3.16147
3.42299
3.73159
4.01219
4.29741
4.60428
4.94309
5.19259
5.36449
16.2897
64.5596
100.046
87.8049
72.4254
60.557
51.362
44.0812
38.4173
34.1665
31.1627
30.4607
33.431
39.4524
47.2218
54.7412
59.3865
58.4256
51.9649
41.394
31.6477
22.9697
19.216
22.3836
27.4172
26.693
31.8898
58.4842
109.67
147.128
173.356
200.071
229.522
260.131
284.955
301.275
307.679
304.216
291.927
272.444
247.67
219.567
190.039
160.87
133.68
109.861
90.4832
76.1984
67.1991
63.4232
61.7383
60.2658
58.958
57.7917
56.7483
55.8123
54.9708
54.212
53.5244
52.8957
52.3111
51.7521
51.1953
50.6113
49.9642
49.2129
48.3131
47.221
45.8993
44.3229
42.485
40.4
38.105
35.6555
33.1215
30.5823
28.1256
25.8417
23.6717
21.682
19.9301
17.9528
16.6774
15.4562
14.0383
12.6943
11.6553
10.8992
10.4487
10.6678
11.2981
11.4407
11.3873
11.2568
11.1023
10.9563
10.8836
11.1519
10.9792
9.63228
8.86833
8.48052
8.40814
8.62409
9.09123
9.75034
10.5208
11.3038
12.0063
12.5988
13.0581
13.3478
13.4125
13.1917
12.6545
11.8478
10.936
10.2119
10.1478
10.1424
10.5804
12.3442
18.0816
32.4819
56.0483
83.1884
105.531
120.915
123.65
115.255
99.4295
80.3491
61.8718
47.064
37.6742
34.1404
33.1076
32.4246
32.0385
31.8949
31.9226
32.0288
32.0982
31.9973
31.5834
30.7194
28.804
28.2685
27.0861
25.9241
24.9679
24.3393
24.1007
24.2482
24.7837
25.9242
30.1486
47.4504
64.4554
72.6145
72.2033
69.7817
68.8122
73.17
73.2742
63.2126
46.7492
30.9156
20.1914
14.3876
12.2318
10.4385
7.66576
6.77153
6.90812
7.45
8.11891
8.76381
9.14621
9.20791
17.9041
124.919
96.4689
65.6618
47.1744
36.1013
28.8262
23.7623
20.1818
17.6628
15.9387
15.0588
15.5166
17.6696
21.6837
27.0926
32.6695
36.7287
38.2783
37.3038
34.2723
30.701
33.2552
43.4609
70.0545
106.239
117.373
124.689
133.25
139.265
143.745
147.866
150.908
151.259
147.426
139.192
127.103
112.284
96.1496
80.1451
65.5067
53.0897
43.2955
36.1127
31.243
28.2442
26.6445
26.0175
26.0221
26.3556
26.7564
27.1933
27.6587
28.1499
28.6676
29.2155
29.7994
30.4259
31.1012
31.8293
32.61
33.4377
34.2983
35.1679
36.0112
36.7803
37.4168
37.8547
38.0269
37.8741
37.3542
36.4515
35.1807
33.5865
31.7368
29.7134
27.5995
25.4688
23.3659
21.3265
19.6082
18.0799
16.699
15.4334
14.263
13.1862
12.2292
11.3965
10.6876
10.1101
9.61528
9.15596
8.72587
8.32655
7.96013
7.62947
7.34004
7.09543
6.8592
6.62746
6.43026
6.26194
6.12081
6.01074
5.93432
5.89186
5.88297
5.90713
5.96793
6.05187
6.14215
6.22149
6.27093
6.27078
6.20598
6.0783
5.92714
5.85205
6.02752
6.75263
8.76121
13.9099
24.7213
40.3137
53.9675
61.0005
64.0924
61.7481
53.9909
43.6673
33.9055
26.6472
22.326
20.4173
20.0855
20.6018
21.3261
22.1274
22.9826
23.8697
24.7574
25.5947
26.3033
26.7745
26.8709
26.4145
25.3506
23.9972
22.3217
20.4796
18.6107
16.8225
15.188
13.7498
12.5326
11.5677
10.9684
11.2571
14.2792
18.9605
22.8276
25.0291
26.0814
27.0578
28.3278
29.3372
28.8548
26.5602
22.8281
19.1245
16.281
12.8011
9.93676
9.5
9.71118
10.135
10.7048
11.2084
11.1686
10.5901
22.2508
66.6677
45.724
33.7023
26.6939
21.579
17.6646
14.7364
12.5536
10.9206
9.72677
9.03553
9.1336
10.2056
12.5584
16.2948
21.04
26.0601
30.7532
35.3866
44.1183
61.4705
91.3839
126.408
116.935
109.053
104.816
102.444
101.078
99.5819
97.6658
94.9131
90.6478
84.378
76.1353
66.5335
56.4859
46.9414
38.6458
32.0095
27.1044
23.7554
21.6605
20.4925
19.9609
19.8384
19.964
20.2327
20.5825
20.9409
21.2753
21.5786
21.8499
22.0942
22.3231
22.5537
22.8075
23.1089
23.483
23.9536
24.541
25.2593
26.1138
27.0982
28.1909
29.3527
30.5246
31.6285
32.5718
33.2565
33.5931
33.5153
32.994
32.0434
30.7179
29.0993
27.2808
25.3531
23.3812
21.4912
19.8635
18.368
16.9941
15.7368
14.5888
13.5426
12.593
11.7349
10.9626
10.2701
9.64714
9.08342
8.57164
8.10705
7.68649
7.30738
6.96744
6.66384
6.39003
6.14058
5.91269
5.70498
5.51723
5.34707
5.19349
5.0568
4.93875
4.84184
4.76539
4.70656
4.66157
4.6263
4.59738
4.57472
4.5665
4.59747
4.72539
5.0714
5.87991
7.69716
11.7358
19.3674
29.958
39.1218
43.1384
43.9102
41.843
36.6103
29.8101
23.7609
19.6911
17.5876
16.8581
16.8857
17.2497
17.7375
18.2648
18.8147
19.3865
19.9838
20.6054
21.2321
21.8144
22.2624
22.4392
22.1682
21.4761
20.4198
19.0641
17.5293
15.9354
14.3808
12.9359
11.6443
10.5276
9.59322
8.84857
8.31879
8.14045
8.67706
9.7801
10.932
11.7776
12.4226
13.195
14.291
15.7194
17.7917
20.3793
21.2934
19.1978
15.3898
12.8993
12.8308
13.3286
13.947
14.5504
14.83
14.3029
13.0556
25.7012
35.1808
30.1626
26.2009
21.6652
17.632
14.4866
12.0987
10.2356
8.74982
7.56749
6.79518
6.74187
7.54391
9.42624
12.5753
16.9484
22.5811
31.1223
47.1022
69.3996
103.43
118.652
107.408
93.0247
84.0573
78.5708
74.8734
71.8699
68.7469
65.038
60.4338
54.838
48.4696
41.825
35.507
30.0212
25.6592
22.4797
20.3649
19.1062
18.4767
18.2777
18.3572
18.6098
18.9669
19.3847
19.8326
20.2644
20.6024
20.8275
20.9292
20.9061
20.7676
20.5338
20.2351
19.9101
19.6028
19.3596
19.2263
19.2455
19.4538
19.8793
20.5384
21.4332
22.5468
23.8389
25.2421
26.6595
27.9701
29.0406
29.7461
29.9941
29.7448
29.0183
27.8826
26.4364
24.7853
23.0227
21.3849
19.8676
18.4444
17.1214
15.9005
14.779
13.7519
12.8131
11.9565
11.176
10.4656
9.81905
9.23021
8.69379
8.20535
7.76104
7.35744
6.99158
6.66061
6.36074
6.0874
5.83617
5.60357
5.38758
5.18757
5.00376
4.8367
4.68672
4.55385
4.43792
4.33862
4.25596
4.19117
4.14858
4.139
4.18551
4.3338
4.67254
5.37668
6.82048
9.78072
15.1355
22.7063
29.8135
33.5278
34.1332
32.8752
29.5585
24.8225
20.3341
17.2491
15.6643
15.1172
15.1096
15.3178
15.5849
15.8657
16.1318
16.3859
16.6424
16.9246
17.2576
17.6481
18.0727
18.457
18.6624
18.5545
18.1141
17.3415
16.2938
15.0659
13.7604
12.4668
11.2527
10.161
9.21354
8.41643
7.76801
7.2624
6.89514
6.70287
6.7068
6.86011
7.09187
7.40538
7.89614
8.71646
10.2056
13.1941
18.084
22.0507
21.6058
18.3497
16.4393
16.9934
18.1701
19.0517
19.4236
19.1019
17.9205
16.023
28.8658
30.5052
30.6027
26.0966
21.0335
16.8849
13.8418
11.6042
9.83414
8.39877
7.28712
7.0946
7.61726
8.94989
11.1294
14.4069
19.6242
28.4337
43.1204
64.1924
87.9305
99.3002
91.1776
78.0858
68.2099
62.0646
57.9758
54.7547
51.6341
48.17
44.2109
39.8229
35.2517
30.8529
26.9796
23.8788
21.6437
20.2292
19.5025
19.2986
19.4619
19.8677
20.4271
21.0801
21.7865
22.5154
23.2392
23.9302
24.4765
24.8372
24.9827
24.8913
24.5535
23.9761
23.184
22.2202
21.1434
20.0229
18.9338
17.951
17.1445
16.5754
16.2924
16.3293
16.7038
17.4171
18.4517
19.7654
21.2829
22.8899
24.4358
25.7503
26.6737
27.0943
26.9762
26.3529
25.3154
23.9739
22.5214
21.1069
19.7234
18.3975
17.1464
15.9783
14.8951
13.8951
12.9746
12.1287
11.3525
10.6409
9.98884
9.39142
8.84413
8.34289
7.88406
7.46428
7.08039
6.72924
6.4074
6.11126
5.83751
5.58346
5.34726
5.12791
4.92517
4.73924
4.57052
4.41938
4.28626
4.17206
4.07891
4.01148
3.97932
4.00083
4.1109
4.37582
4.92032
5.9913
8.08455
11.8421
17.3933
23.2221
27.0888
28.2295
27.708
25.801
22.5507
18.9557
16.1877
14.643
14.0499
13.9718
14.0951
14.2647
14.4133
14.5277
14.5887
14.6052
14.603
14.6215
14.7088
14.8962
15.1793
15.4968
15.7112
15.7205
15.4647
14.9215
14.1253
13.1488
12.0789
10.9969
9.96731
9.03405
8.22111
7.53691
6.97942
6.53983
6.20461
5.95966
5.80282
5.70799
5.66787
5.7112
5.91643
6.43777
7.63001
10.3654
15.5539
21.2096
22.9491
21.1367
20.0703
21.2292
23.065
24.4522
24.548
23.2745
21.3371
18.9388
31.7207
33.2004
32.7002
27.0475
21.5681
17.4313
14.5977
12.5771
11.0527
10.1493
10.1098
10.3548
11.196
12.8013
15.522
20.0741
27.5732
39.1388
54.7658
70.5747
78.1036
74.2479
64.9508
56.5474
50.763
46.9036
43.9165
41.1358
38.2239
35.1025
31.8801
28.7661
25.9993
23.781
22.2255
21.3448
21.0667
21.2715
21.8293
22.6268
23.5786
24.6267
25.7326
26.8672
28.0026
29.1071
30.1427
31.0664
31.7674
32.2319
32.4099
32.2564
31.7398
30.8486
29.5964
28.0236
26.1961
24.2003
22.1376
20.1188
18.2583
16.6651
15.4308
14.6183
14.257
14.3478
14.8742
15.8076
17.0993
18.6643
20.368
22.0274
23.4337
24.4003
24.8258
24.6871
24.0537
23.0645
21.9361
20.7258
19.4936
18.2818
17.1166
16.0128
14.9773
14.0119
13.1156
12.2858
11.5189
10.811
10.1581
9.55617
9.00146
8.49038
8.01957
7.58586
7.18623
6.81772
6.47735
6.16219
5.86952
5.59706
5.3432
5.107
4.88823
4.6871
4.50415
4.34015
4.19629
4.07466
3.9792
3.91728
3.90251
3.95988
4.1363
4.51965
5.27345
6.70878
9.30448
13.379
18.2536
22.1243
23.9725
24.0976
23.1969
21.1951
18.4055
15.8001
14.1006
13.337
13.1665
13.2555
13.4079
13.5344
13.5983
13.591
13.4915
13.3166
13.1061
12.9105
12.795
12.8176
12.9837
13.2235
13.4407
13.5357
13.4248
13.0687
12.4799
11.7105
10.8322
9.91893
9.0334
8.22119
7.50956
6.91013
6.42337
6.04265
5.75595
5.54601
5.39487
5.28577
5.20484
5.17281
5.25392
5.57365
6.44825
8.64138
13.2185
19.3036
22.9335
23.0246
22.9736
24.5287
26.5773
28.0011
28.0373
26.3709
23.9713
21.3936
34.4556
36.7362
34.5244
28.3171
22.9065
19.1675
16.7422
15.0458
13.8543
13.2954
13.4556
14.039
15.4265
17.8938
21.8946
27.9942
36.5427
46.8473
56.1876
60.7929
59.2932
53.8601
47.7529
42.9158
39.4733
36.8347
34.4729
32.142
29.8072
27.5658
25.5726
23.9796
22.8956
22.3631
22.3552
22.7923
23.5689
24.582
25.7493
27.0155
28.3489
29.7318
31.1512
32.5908
34.026
35.4216
36.7308
37.8676
38.8173
39.5258
39.9165
39.9157
39.4634
38.5252
37.1003
35.2245
32.9644
30.4052
27.6407
24.7729
21.9242
19.2466
16.91
15.0656
13.8029
13.1359
13.0273
13.4311
14.3029
15.5845
17.1746
18.9121
20.5738
21.907
22.7535
23.0209
22.7612
22.1404
21.2803
20.2769
19.2046
18.1158
17.0449
16.013
15.0317
14.1068
13.2399
12.4306
11.6769
10.9762
10.3257
9.72222
9.16265
8.64398
8.16331
7.71781
7.30474
6.92142
6.56526
6.23373
5.92457
5.63594
5.36648
5.11541
4.88252
4.66809
4.47286
4.29811
4.14586
4.01948
3.92462
3.87103
3.87589
3.97044
4.21321
4.7123
5.66381
7.39981
10.2979
14.2592
18.1255
20.4685
21.2208
20.9822
19.9917
18.1224
15.8256
13.9368
12.8809
12.5296
12.5628
12.7327
12.9068
13.0165
13.0223
12.915
12.6827
12.3486
11.974
11.619
11.3493
11.2462
11.307
11.4899
11.7139
11.8764
11.8863
11.6884
11.2743
10.6767
9.9539
9.1733
8.39727
7.67455
7.03694
6.50046
6.06888
5.73773
5.49654
5.32896
5.21347
5.13105
5.07073
5.0404
5.09086
5.32841
5.99093
7.68011
11.3753
16.9954
21.6782
23.519
24.5134
26.3168
28.2783
29.4039
29.2133
27.6213
25.28
22.8049
37.3277
39.8176
36.4849
29.939
24.8004
21.4075
19.3169
18.0225
17.3018
17.2549
17.5731
18.7031
20.8212
24.1191
28.7186
34.4407
40.5102
45.5326
48.1017
47.6652
44.8372
40.9595
37.2909
34.3751
32.0787
30.1048
28.2822
26.5959
25.1175
23.9469
23.1706
22.8367
22.9443
23.4455
24.2609
25.3003
26.4844
27.7568
29.0869
30.4644
31.8904
33.3686
34.8981
36.4689
38.0583
39.6293
41.1304
42.501
43.7601
44.8236
45.5864
45.9347
45.7605
44.9834
43.5738
41.5698
39.0736
36.2215
33.1357
29.8918
26.5367
23.1509
19.9058
17.053
14.8248
13.3323
12.5417
12.3733
12.7573
13.6408
14.95
16.5599
18.2726
19.7844
20.9029
21.4708
21.5412
21.217
20.6027
19.7973
18.8817
17.9156
16.9405
15.9827
15.0585
14.1768
13.3423
12.5564
11.8189
11.1285
10.4834
9.8812
9.31965
8.79625
8.30855
7.8541
7.43052
7.03543
6.66659
6.32185
5.99932
5.69743
5.41505
5.15148
4.90658
4.68073
4.47494
4.29099
4.13179
4.00192
3.90863
3.86381
3.88796
4.01813
4.32261
4.92605
6.04444
7.99619
10.9974
14.5924
17.4844
18.7828
18.953
18.5839
17.6639
16.0435
14.1631
12.7286
12.0539
11.9274
12.0751
12.3034
12.5126
12.6274
12.5756
12.366
12.0213
11.5559
11.0507
10.5901
10.2317
10.0355
10.0278
10.1796
10.4194
10.6485
10.7695
10.7118
10.4478
9.9924
9.39256
8.71139
8.01299
7.35109
6.76343
6.27118
5.88185
5.59298
5.39493
5.27167
5.20105
5.1595
5.13319
5.12846
5.17968
5.38223
5.92064
7.22698
10.0843
14.7922
19.6278
22.6222
24.4856
26.4465
28.2263
29.0458
28.6213
27.164
25.1007
22.9827
39.5027
42.8907
38.4798
31.7099
26.7491
23.6465
21.9055
21.0913
20.9593
21.1855
21.9806
23.512
25.7934
28.7225
32.0224
35.2287
37.7802
39.1902
39.204
37.8887
35.655
33.1198
30.7869
28.8269
27.1757
25.7562
24.5627
23.6406
23.0446
22.812
22.9495
23.428
24.1882
25.153
26.2451
27.4021
28.585
29.7786
30.9869
32.225
33.5116
34.8622
36.2841
37.7738
39.3154
40.879
42.4199
43.9577
45.489
46.938
48.195
49.1163
49.534
49.2792
48.2235
46.3342
43.7152
40.5956
37.2392
33.8193
30.3607
26.8084
23.174
19.6692
16.6423
14.3907
12.9541
12.245
12.1601
12.6338
13.6021
14.9665
16.5808
18.1149
19.3266
20.1082
20.432
20.3478
19.9438
19.3147
18.5432
17.6931
16.8102
15.9253
15.0579
14.2202
13.419
12.6579
11.9382
11.26
10.6224
10.0239
9.46302
8.93767
8.4459
7.98562
7.55478
7.15132
6.77328
6.41881
6.08628
5.77433
5.48199
5.20867
4.95431
4.71941
4.50521
4.31399
4.14944
4.0173
3.92633
3.89045
3.93299
4.09532
4.45375
5.14387
6.38739
8.46179
11.4159
14.5562
16.651
17.2699
17.1223
16.7099
15.9012
14.552
13.0414
11.9391
11.458
11.4304
11.6383
11.9147
12.1464
12.221
12.0809
11.7778
11.3485
10.8232
10.2601
9.73384
9.31879
9.07805
9.04331
9.19721
9.47628
9.78463
10.0179
10.0905
9.95657
9.61593
9.10712
8.49226
7.84
7.21132
6.65126
6.18688
5.82946
5.57815
5.42298
5.34666
5.32568
5.33423
5.35187
5.38245
5.45177
5.63529
6.08947
7.1166
9.28759
12.9937
17.3398
20.7478
23.1097
25.1054
26.6526
27.2152
26.6425
25.3495
23.6643
22.044
41.1691
45.7635
40.7025
33.7537
28.8656
25.9333
24.4115
23.837
23.7957
24.1302
24.9242
26.1261
27.6277
29.267
30.8468
32.1627
33.0226
33.2588
32.7683
31.5927
29.9643
28.2138
26.5977
25.2229
24.1098
23.2731
22.7386
22.5288
22.6474
23.0728
23.7581
24.6366
25.6333
26.678
27.7175
28.7221
29.6857
30.6222
31.5585
32.5256
33.5497
34.6455
35.8147
37.0487
38.3343
39.6595
41.0155
42.4706
44.0191
45.6271
47.22
48.6731
49.8065
50.3884
50.1593
48.9095
46.5948
43.4267
39.8215
36.1775
32.6643
29.2096
25.6322
21.9631
18.5073
15.7356
13.8012
12.6534
12.1765
12.293
12.941
14.0296
15.404
16.8344
18.0848
18.9873
19.4736
19.5623
19.3227
18.8402
18.1944
17.4496
16.6532
15.8383
15.0267
14.2329
13.4656
12.7301
12.0294
11.3648
10.7363
10.1435
9.5853
9.06037
8.56711
8.10384
7.66877
7.26014
6.87622
6.51538
6.17618
5.85743
5.55824
5.27815
5.01715
4.77586
4.5557
4.35935
4.19117
4.05795
3.96996
3.94254
4.00095
4.19011
4.59128
5.34483
6.66697
8.78367
11.6046
14.3083
15.8067
15.9915
15.6552
15.2248
14.5347
13.4444
12.2428
11.3676
10.9861
10.9892
11.2046
11.4725
11.6586
11.6647
11.4654
11.1157
10.6452
10.0902
9.50568
8.96299
8.53948
8.30192
8.28603
8.48192
8.83225
9.24094
9.59421
9.79053
9.76719
9.51227
9.06027
8.47663
7.83809
7.21533
6.66206
6.21163
5.8787
5.66302
5.55287
5.52776
5.56132
5.62561
5.69892
5.77154
5.87152
6.04953
6.43494
7.25017
8.88793
11.7028
15.2664
18.4802
20.9024
22.765
24.0339
24.3832
23.7482
22.5928
21.3778
20.3164
42.1677
48.2243
42.975
36.0132
31.1106
28.1013
26.4003
25.5097
25.0997
25.1147
25.4373
25.9828
26.6747
27.4368
28.1833
28.8047
29.1613
29.1098
28.5704
27.5941
26.3622
25.1013
23.9886
23.1213
22.5445
22.2792
22.3289
22.6773
23.286
24.0972
25.0396
26.0376
27.0233
27.9459
28.779
29.5221
30.199
30.8508
31.5246
32.2588
33.0697
33.9451
34.8517
35.7549
36.6385
37.5213
38.4778
39.576
40.8411
42.2758
43.8451
45.4688
47.0135
48.2768
48.9593
48.6998
47.2099
44.4887
40.9425
37.1636
33.5529
30.2044
26.8482
23.349
19.8459
16.8799
14.6893
13.2652
12.514
12.3399
12.6906
13.5097
14.6718
15.9719
17.1796
18.1122
18.6779
18.8724
18.7473
18.3769
17.8345
17.1813
16.4637
15.7148
14.9576
14.2076
13.4751
12.7666
12.0864
11.437
10.8195
10.2342
9.68075
9.15839
8.66597
8.20218
7.76554
7.35454
6.96766
6.60346
6.26063
5.93809
5.63504
5.35106
5.08622
4.8412
4.61759
4.41833
4.24833
4.11545
4.03062
4.01044
4.08175
4.29138
4.72232
5.51429
6.871
8.96982
11.6237
13.9632
15.0455
14.954
14.4879
14.0356
13.4477
12.5833
11.6329
10.9173
10.5796
10.5618
10.7289
10.9325
11.0478
10.9972
10.7631
10.3885
9.90318
9.34642
8.77314
8.25332
7.86436
7.67429
7.72196
8.0024
8.46043
8.99447
9.4768
9.78825
9.8515
9.64773
9.21331
8.62238
7.96381
7.32038
6.75552
6.30865
5.99672
5.81821
5.75729
5.78775
5.87824
5.99847
6.1264
6.25086
6.3866
6.57411
6.90503
7.55148
8.77691
10.8689
13.6364
16.334
18.4731
20.0393
20.995
21.1681
20.5668
19.5952
18.8105
18.2561
42.1705
49.5222
44.6562
37.886
32.8852
29.5535
27.3572
25.929
25.0946
24.6731
24.5586
24.686
25.0042
25.4523
25.9401
26.342
26.5165
26.3543
25.8326
25.0376
24.133
23.2941
22.654
22.2878
22.2247
22.4633
22.9783
23.724
24.6378
25.6454
26.6695
27.6389
28.4983
29.2165
29.791
30.2496
30.6461
31.049
31.5207
32.0939
32.7549
33.446
34.0886
34.6229
35.0416
35.4117
35.8979
36.5547
37.4224
38.5147
39.8193
41.2881
42.835
44.3309
45.5398
46.0832
45.5225
43.5951
40.5233
36.9229
33.3205
30.0671
26.9239
23.7083
20.5095
17.6345
15.3657
13.8
12.8786
12.5161
12.6669
13.2877
14.2724
15.4356
16.5586
17.4599
18.0397
18.2812
18.2235
17.9303
17.4668
16.8889
16.2399
15.5513
14.8456
14.1385
13.4411
12.7609
12.103
11.4708
10.8664
10.2908
9.74436
9.22684
8.73759
8.27565
7.83987
7.429
7.04174
6.67679
6.33299
6.00933
5.70507
5.41983
5.15371
4.90745
4.68274
4.48269
4.31267
4.18079
4.09885
4.08437
4.16503
4.38802
4.83528
5.64157
6.99527
9.03615
11.5245
13.593
14.4089
14.1441
13.5739
13.0821
12.5634
11.879
11.1287
10.5319
10.2099
10.1411
10.2258
10.3408
10.3796
10.2735
10.0101
9.62461
9.14518
8.61091
8.07617
7.61044
7.29145
7.18861
7.34322
7.75198
8.35559
9.03909
9.65478
10.0645
10.1804
9.98402
9.52118
8.88094
8.16835
7.48025
6.88993
6.4417
6.15237
6.01576
6.00814
6.09458
6.23696
6.40277
6.57192
6.74031
6.9105
7.11815
7.41663
7.93069
8.84028
10.3595
12.4458
14.5809
16.2985
17.4874
18.126
18.1569
17.6466
16.9102
16.4619
16.3
40.762
48.7891
44.8641
38.5537
33.5164
29.8836
27.3362
25.5903
24.4343
23.7337
23.4017
23.3731
23.5795
23.9312
24.3118
24.5918
24.661
24.4677
24.042
23.4879
22.9462
22.549
22.3882
22.5077
22.9119
23.5763
24.4549
25.4855
26.5942
27.7019
28.7323
29.6199
30.3192
30.812
31.1148
31.2808
31.3878
31.5285
31.7811
32.172
32.6684
33.1877
33.6245
33.8783
33.9188
33.8538
33.9352
34.2324
34.7333
35.4441
36.3794
37.5214
38.8116
40.168
41.4353
42.2916
42.3047
41.0879
38.6771
35.5679
32.335
29.2674
26.3215
23.3643
20.4291
17.7551
15.6006
14.068
13.1157
12.6785
12.7278
13.2316
14.0932
15.1386
16.1631
16.9965
17.544
17.7866
17.7566
17.5088
17.1003
16.5805
15.9879
15.3514
14.6922
14.0253
13.3619
12.71
12.0754
11.4621
10.8727
10.3091
9.772
9.26172
8.77803
8.32034
7.88781
7.47944
7.09414
6.7308
6.38836
6.06591
5.76276
5.47856
5.21342
4.96811
4.74437
4.54536
4.37658
4.2462
4.16661
4.1559
4.24192
4.47092
4.92143
5.72041
7.04076
8.99888
11.342
13.235
13.9089
13.5455
12.8842
12.3297
11.8375
11.2792
10.6813
10.1775
9.86172
9.73395
9.72635
9.74409
9.70115
9.5405
9.25468
8.87037
8.412
7.91738
7.44079
7.05318
6.83454
6.85669
7.1622
7.74415
8.52974
9.38018
10.1212
10.5969
10.7165
10.472
9.92823
9.19529
8.39767
7.647
7.02511
6.57814
6.31827
6.22934
6.27507
6.40935
6.58744
6.77625
6.96043
7.14304
7.3365
7.56133
7.84945
8.27216
8.95132
10.0289
11.5531
13.2124
14.5652
15.433
15.8181
15.7587
15.3745
14.9152
14.6788
14.7803
37.559
45.5558
43.0648
37.4926
32.7559
29.2559
26.6582
24.7747
23.4763
22.6663
22.2648
22.1925
22.3579
22.652
22.9573
23.1692
23.2233
23.1146
22.8992
22.6756
22.554
22.6262
22.9476
23.5337
24.3673
25.4081
26.5972
27.8643
29.1325
30.3233
31.3626
32.188
32.7558
33.0511
33.0962
32.9571
32.7279
32.5263
32.4556
32.5469
32.7804
33.1043
33.4353
33.6087
33.4594
33.1539
33.0029
33.037
33.2065
33.5286
34.0521
34.795
35.721
36.7496
37.7669
38.561
38.7569
37.9641
36.0945
33.4835
30.6224
27.8159
25.095
22.3875
19.7373
17.3489
15.4317
14.056
13.1813
12.7665
12.8039
13.268
14.0615
15.0154
15.9401
16.6846
17.1688
17.3794
17.3467
17.1186
16.7442
16.2659
15.7172
15.1234
14.5037
13.8724
13.2403
12.6154
12.0039
11.41
10.837
10.2871
9.76132
9.26047
8.78462
8.33348
7.90649
7.50288
7.12175
6.76216
6.42319
6.10401
5.804
5.52282
5.2606
5.0181
4.79704
4.60056
4.43393
4.30533
4.2273
4.21811
4.30525
4.53292
4.97459
5.74748
7.01003
8.86895
11.0919
12.897
13.5366
13.1403
12.4021
11.7633
11.2513
10.7606
10.2672
9.8344
9.52424
9.34453
9.25202
9.17869
9.05929
8.84975
8.54696
8.17081
7.74223
7.29775
6.89355
6.60508
6.51731
6.70511
7.20902
8.00959
9.00718
10.0268
10.8634
11.3498
11.4055
11.0468
10.3666
9.50116
8.59583
7.77549
7.12684
6.69211
6.47183
6.43346
6.52465
6.68843
6.87671
7.05914
7.22686
7.39058
7.57522
7.80009
8.08419
8.45499
8.97961
9.74383
10.8126
12.0697
13.1739
13.8766
14.1528
14.0962
13.8671
13.6694
13.6615
13.8445
32.129
39.9031
39.3182
35.2882
31.2751
28.0066
25.4672
23.5698
22.2378
21.3985
20.974
20.8762
21.0049
21.254
21.526
21.7506
21.9004
21.9957
22.0964
22.2833
22.6358
23.2119
24.0387
25.1106
26.3986
27.8653
29.3934
30.9094
32.3552
33.6575
34.7466
35.5622
36.0595
36.2197
36.0603
35.642
35.0699
34.474
33.9622
33.5912
33.3763
33.3028
33.323
33.3499
33.2942
33.1461
32.9313
32.7094
32.5419
32.5025
32.6602
33.045
33.6284
34.3365
35.0596
35.6083
35.6682
34.9133
33.2617
30.9745
28.4422
25.9133
23.4321
20.9783
18.6325
16.5811
14.9717
13.825
13.1
12.783
12.8836
13.3716
14.1397
15.0209
15.8442
16.485
16.8847
17.041
16.9841
16.7565
16.3997
15.949
15.4326
14.8723
14.2852
13.6843
13.0799
12.4799
11.8904
11.316
10.76
10.2248
9.71195
9.22233
8.75629
8.31377
7.8944
7.49762
7.1227
6.76884
6.43526
6.12122
5.82616
5.54976
5.29216
5.05408
4.83718
4.64445
4.48074
4.35406
4.27671
4.26667
4.35054
4.56973
4.99138
5.72155
6.90505
8.64938
10.7705
12.5626
13.2689
12.911
12.1185
11.3779
10.7993
10.3157
9.87601
9.48972
9.18446
8.96484
8.80366
8.65515
8.47316
8.22589
7.91703
7.55613
7.16261
6.77554
6.45768
6.29311
6.37393
6.77647
7.53161
8.59301
9.81655
10.9795
11.8491
12.263
12.1704
11.6262
10.7587
9.73249
8.71161
7.82976
7.1714
6.76615
6.59456
6.603
6.72356
6.89289
7.0646
7.21435
7.3399
7.45777
7.59805
7.79524
8.05904
8.39689
8.82641
9.38801
10.1237
11.0254
11.9246
12.5846
12.9113
12.9777
12.9438
12.9709
13.1336
13.3414
23.4073
32.5224
35.6169
33.3741
29.8624
26.7445
24.2572
22.3624
21.0076
20.1333
19.6663
19.5191
19.5965
19.8058
20.071
20.3471
20.6272
20.9414
21.348
21.9211
22.7348
23.7853
25.083
26.6096
28.321
30.151
31.9949
33.7807
35.4433
36.9145
38.1293
39.0296
39.5692
39.722
39.4949
38.9355
38.1383
37.2279
36.3207
35.5047
34.8333
34.3261
33.9691
33.7165
33.4829
33.2028
32.8577
32.48
32.1348
31.9041
31.8542
32.0059
32.3238
32.7314
33.1175
33.3
33.0116
32.0228
30.3354
28.1992
25.9108
23.6327
21.3936
19.2183
17.2247
15.5673
14.3151
13.4419
12.9206
12.7669
12.9937
13.5509
14.3141
15.122
15.8305
16.3493
16.6464
16.7315
16.6357
16.3954
16.0445
15.6114
15.1191
14.586
14.0267
13.4531
12.8744
12.2984
11.7308
11.1764
10.6385
10.1196
9.62135
9.14487
8.69063
8.25876
7.84905
7.46109
7.09429
6.748
6.42154
6.11426
5.82567
5.55549
5.30382
5.07136
4.85962
4.67134
4.51101
4.38621
4.30863
4.29558
4.37232
4.57717
4.97056
5.64716
6.73896
8.35967
10.3905
12.2234
13.0845
12.8459
12.0452
11.2084
10.5319
10.0004
9.55938
9.18483
8.87515
8.62506
8.41391
8.20991
7.98059
7.70224
7.38448
7.03474
6.67664
6.35682
6.14911
6.14932
6.45619
7.14086
8.2095
9.56609
11.0007
12.238
13.0348
13.2621
12.9232
12.1235
11.0296
9.8314
8.70605
7.78734
7.14661
6.79007
6.67174
6.71704
6.84805
7.00166
7.13741
7.23813
7.30701
7.36362
7.43919
7.57484
7.79356
8.09208
8.46102
8.90156
9.42824
10.0565
10.747
11.3681
11.805
12.0651
12.2531
12.4741
12.746
12.9524
14.083
26.9839
32.5326
31.9956
28.979
25.8942
23.3611
21.4038
19.9732
19.0135
18.4562
18.2197
18.2175
18.3705
18.6201
18.94
19.3266
19.8162
20.4675
21.3423
22.4848
23.8975
25.5754
27.4862
29.5722
31.7528
33.9286
36.0174
37.9464
39.6483
41.0614
42.1309
42.8115
43.074
42.9153
42.3678
41.506
40.4376
39.28
38.1385
37.0913
36.1815
35.4128
34.7512
34.1516
33.579
33.0259
32.5129
32.0828
31.7844
31.6469
31.6587
31.7665
31.8892
31.9119
31.6573
30.9123
29.5668
27.7266
25.6374
23.5064
21.419
19.3977
17.5097
15.8838
14.6113
13.6854
13.0661
12.7574
12.7918
13.1635
13.792
14.5396
15.2608
15.8464
16.2411
16.4361
16.4499
16.3123
16.0538
15.7016
15.2784
14.8029
14.2903
13.7534
13.2026
12.6466
12.0922
11.5451
11.0098
10.4895
9.98686
9.50353
9.04066
8.59887
8.1784
7.77917
7.40087
7.04305
6.70514
6.38658
6.08679
5.80534
5.54198
5.2968
5.07041
4.86419
4.68058
4.52377
4.40074
4.32236
4.30487
4.37197
4.55875
4.91912
5.53655
6.53002
8.01828
9.95152
11.8424