/*--------------------------------*- C++ -*----------------------------------*\
  =========                 |
  \\      /  F ield         | OpenFOAM: The Open Source CFD Toolbox
   \\    /   O peration     | Website:  https://openfoam.org
    \\  /    A nd           | Version:  9
     \\/     M anipulation  |
\*---------------------------------------------------------------------------*/
FoamFile
{
    format      ascii;
    class       surfaceScalarField;
    location    "0.2";
    object      phi;
}
// * * * * * * * * * * * * * * * * * * * * * * * * * * * * * * * * * * * * * //

dimensions      [0 3 -1 0 0 0 0];

internalField   nonuniform List<scalar> 
24170
(
3.04805e-06
1.40357e-07
2.88148e-06
1.66567e-07
2.72059e-06
1.60895e-07
2.56206e-06
1.58526e-07
2.40446e-06
1.57604e-07
2.24787e-06
1.56583e-07
2.09113e-06
1.56747e-07
1.9319e-06
1.59226e-07
1.76733e-06
1.64571e-07
1.59434e-06
1.72993e-07
1.41006e-06
1.84276e-07
1.21261e-06
1.9745e-07
1.0021e-06
2.10509e-07
7.81702e-07
2.204e-07
5.5845e-07
2.23252e-07
3.42424e-07
2.16027e-07
1.47984e-07
1.9444e-07
1.54407e-07
-6.42296e-09
3.49196e-06
6.56439e-08
3.53893e-06
1.19603e-07
3.5671e-06
1.32724e-07
3.57717e-06
1.48454e-07
3.57013e-06
1.64642e-07
3.54753e-06
1.79182e-07
3.51013e-06
1.94147e-07
3.45766e-06
2.11698e-07
3.38886e-06
2.33371e-07
3.30144e-06
2.60409e-07
3.19205e-06
2.93673e-07
3.05642e-06
3.3308e-07
2.88996e-06
3.76967e-07
2.68877e-06
4.21585e-07
2.45087e-06
4.61153e-07
2.1778e-06
4.89099e-07
1.87359e-06
4.9865e-07
4.93052e-07
1.53494e-06
3.67653e-06
5.16335e-08
3.69026e-06
1.05872e-07
3.7031e-06
1.19887e-07
3.71678e-06
1.34766e-07
3.72979e-06
1.51635e-07
3.74097e-06
1.68004e-07
3.74964e-06
1.85477e-07
3.75514e-06
2.06199e-07
3.7567e-06
2.31805e-07
3.75332e-06
2.63795e-07
3.7434e-06
3.03592e-07
3.72435e-06
3.5213e-07
3.69206e-06
4.0926e-07
3.64058e-06
4.7306e-07
3.56214e-06
5.39598e-07
3.44827e-06
6.02962e-07
3.28896e-06
6.57959e-07
6.99101e-07
3.08292e-06
3.93224e-06
4.47842e-08
3.93863e-06
9.94798e-08
3.93949e-06
1.19027e-07
3.93876e-06
1.35501e-07
3.93673e-06
1.53662e-07
3.93329e-06
1.71444e-07
3.9288e-06
1.89965e-07
3.92371e-06
2.11288e-07
3.91855e-06
2.36963e-07
3.91411e-06
2.68234e-07
3.91147e-06
3.06235e-07
3.91181e-06
3.51796e-07
3.9159e-06
4.05164e-07
3.92331e-06
4.65653e-07
3.93115e-06
5.3176e-07
3.93355e-06
6.00563e-07
3.92097e-06
6.70539e-07
7.3532e-07
3.88475e-06
4.21244e-06
3.94673e-08
4.21813e-06
9.37975e-08
4.21804e-06
1.19116e-07
4.21515e-06
1.3839e-07
4.21006e-06
1.58754e-07
4.20242e-06
1.79079e-07
4.19237e-06
2.00017e-07
4.18022e-06
2.23442e-07
4.16636e-06
2.50818e-07
4.15146e-06
2.83135e-07
4.13658e-06
3.21119e-07
4.12324e-06
3.65128e-07
4.11343e-06
4.14976e-07
4.10929e-06
4.69796e-07
4.11266e-06
5.28385e-07
4.12414e-06
5.89087e-07
4.14309e-06
6.51589e-07
7.14897e-07
4.16351e-06
4.51307e-06
3.54804e-08
4.51781e-06
8.90588e-08
4.51787e-06
1.19061e-07
4.51493e-06
1.41326e-07
4.5098e-06
1.63884e-07
4.50214e-06
1.86735e-07
4.49191e-06
2.10253e-07
4.47929e-06
2.3606e-07
4.46456e-06
2.65544e-07
4.44814e-06
2.99561e-07
4.43064e-06
3.38612e-07
4.41296e-06
3.82809e-07
4.3962e-06
4.3174e-07
4.3816e-06
4.84397e-07
4.37058e-06
5.39409e-07
4.36434e-06
5.95325e-07
4.36471e-06
6.51221e-07
7.08061e-07
4.37154e-06
4.83558e-06
3.26164e-08
4.83937e-06
8.52696e-08
4.83951e-06
1.18929e-07
4.83656e-06
1.4427e-07
4.83141e-06
1.69034e-07
4.82392e-06
1.94224e-07
4.81403e-06
2.2015e-07
4.80194e-06
2.48147e-07
4.78799e-06
2.79494e-07
4.7726e-06
3.14949e-07
4.75635e-06
3.54868e-07
4.73992e-06
3.99237e-07
4.72406e-06
4.476e-07
4.70942e-06
4.99038e-07
4.69651e-06
5.52314e-07
4.68562e-06
6.06211e-07
4.67724e-06
6.59605e-07
7.12894e-07
4.67241e-06
5.18159e-06
3.06071e-08
5.18452e-06
8.23442e-08
5.1846e-06
1.18845e-07
5.18167e-06
1.47194e-07
5.17653e-06
1.74174e-07
5.16924e-06
2.01523e-07
5.15974e-06
2.29647e-07
5.14827e-06
2.59618e-07
5.1352e-06
2.92561e-07
5.12102e-06
3.29133e-07
5.10631e-06
3.69573e-07
5.09178e-06
4.13772e-07
5.07811e-06
4.61262e-07
5.06591e-06
5.11238e-07
5.05556e-06
5.6267e-07
5.04719e-06
6.14577e-07
5.04079e-06
6.66004e-07
7.16948e-07
5.03674e-06
5.55272e-06
2.92258e-08
5.55487e-06
8.01906e-08
5.55484e-06
1.18882e-07
5.55203e-06
1.50002e-07
5.54705e-06
1.79148e-07
5.54011e-06
2.08472e-07
5.53119e-06
2.3856e-07
5.52054e-06
2.70272e-07
5.50855e-06
3.04549e-07
5.49573e-06
3.41948e-07
5.4827e-06
3.82611e-07
5.47011e-06
4.26358e-07
5.45865e-06
4.7272e-07
5.44892e-06
5.20974e-07
5.44133e-06
5.70253e-07
5.43618e-06
6.19735e-07
5.43356e-06
6.68622e-07
7.16872e-07
5.43363e-06
5.9507e-06
2.82987e-08
5.95221e-06
7.86799e-08
5.95206e-06
1.19035e-07
5.94948e-06
1.52583e-07
5.94486e-06
1.83772e-07
5.93845e-06
2.14877e-07
5.93035e-06
2.46664e-07
5.92078e-06
2.79841e-07
5.91016e-06
3.15163e-07
5.89903e-06
3.53082e-07
5.88797e-06
3.9367e-07
5.87763e-06
4.36699e-07
5.86864e-06
4.81706e-07
5.86158e-06
5.2804e-07
5.85688e-06
5.74949e-07
5.85489e-06
6.21729e-07
5.85585e-06
6.67661e-07
7.12715e-07
5.86001e-06
6.37742e-06
2.76888e-08
6.37845e-06
7.76528e-08
6.37824e-06
1.19244e-07
6.376e-06
1.5482e-07
6.37192e-06
1.87851e-07
6.36629e-06
2.20514e-07
6.35925e-06
2.53701e-07
6.35107e-06
2.88023e-07
6.34216e-06
3.24068e-07
6.33306e-06
3.62182e-07
6.32435e-06
4.02381e-07
6.31664e-06
4.44412e-07
6.31052e-06
4.87823e-07
6.30654e-06
5.32027e-07
6.30512e-06
5.76363e-07
6.30664e-06
6.20213e-07
6.31139e-06
6.6291e-07
7.0443e-07
6.31967e-06
5.7412e-06
2.73279e-08
5.74182e-06
7.70271e-08
5.74168e-06
1.19385e-07
5.74016e-06
1.56344e-07
5.7373e-06
1.90712e-07
5.73332e-06
2.24486e-07
5.72842e-06
2.58603e-07
5.72282e-06
2.9362e-07
5.71689e-06
3.30005e-07
5.71105e-06
3.68019e-07
5.70579e-06
4.07639e-07
5.7016e-06
4.48599e-07
5.69896e-06
4.90464e-07
5.6983e-06
5.32693e-07
5.69997e-06
5.74687e-07
5.70429e-06
6.15891e-07
5.71153e-06
6.55675e-07
6.94033e-07
5.72193e-06
6.99847e-06
2.70153e-08
6.99905e-06
7.64435e-08
6.99904e-06
1.19394e-07
6.99784e-06
1.57551e-07
6.99541e-06
1.93143e-07
6.99198e-06
2.2791e-07
6.9878e-06
2.6278e-07
6.98316e-06
2.98261e-07
6.97846e-06
3.34709e-07
6.97418e-06
3.72298e-07
6.97086e-06
4.10964e-07
6.96902e-06
4.50437e-07
6.96918e-06
4.90305e-07
6.9718e-06
5.30074e-07
6.97727e-06
5.69208e-07
6.98595e-06
6.07211e-07
6.99813e-06
6.43497e-07
6.78079e-07
7.01409e-06
8.53116e-06
2.67009e-08
8.53186e-06
7.57458e-08
8.53225e-06
1.18998e-07
8.5318e-06
1.58006e-07
8.53041e-06
1.94527e-07
8.52832e-06
2.30005e-07
8.52581e-06
2.65294e-07
8.52322e-06
3.00849e-07
8.521e-06
3.36926e-07
8.51968e-06
3.73617e-07
8.51982e-06
4.10822e-07
8.52199e-06
4.48273e-07
8.52671e-06
4.85587e-07
8.53446e-06
5.22322e-07
8.54566e-06
5.58002e-07
8.56068e-06
5.92194e-07
8.57981e-06
6.24367e-07
6.54567e-07
8.60332e-06
1.03996e-05
2.62767e-08
1.04008e-05
7.46133e-08
1.04021e-05
1.1769e-07
1.04031e-05
1.56983e-07
1.04037e-05
1.93895e-07
1.04042e-05
2.29568e-07
1.04047e-05
2.6473e-07
1.04058e-05
2.99766e-07
1.04079e-05
3.34852e-07
1.04115e-05
3.70006e-07
1.04172e-05
4.05099e-07
1.04256e-05
4.39874e-07
1.04372e-05
4.73985e-07
1.04525e-05
5.07043e-07
1.04719e-05
5.38642e-07
1.04956e-05
5.68415e-07
1.05241e-05
5.95906e-07
6.21208e-07
1.05575e-05
1.26775e-05
2.55492e-08
1.26796e-05
7.24928e-08
1.26827e-05
1.14615e-07
1.26864e-05
1.53334e-07
1.26905e-05
1.89785e-07
1.26952e-05
2.24839e-07
1.27009e-05
2.59064e-07
1.27079e-05
2.92758e-07
1.27167e-05
3.26027e-07
1.27279e-05
3.58837e-07
1.27419e-05
3.9104e-07
1.27594e-05
4.22396e-07
1.27808e-05
4.52604e-07
1.28065e-05
4.81341e-07
1.28369e-05
5.08273e-07
1.28722e-05
5.33115e-07
1.29126e-05
5.55496e-07
5.75568e-07
1.29582e-05
1.54545e-05
2.42134e-08
1.54585e-05
6.85237e-08
1.54646e-05
1.08454e-07
1.54726e-05
1.45342e-07
1.54823e-05
1.80105e-07
1.54938e-05
2.13378e-07
1.55073e-05
2.4556e-07
1.55232e-05
2.76851e-07
1.55419e-05
3.07295e-07
1.55639e-05
3.36824e-07
1.55897e-05
3.65284e-07
1.56196e-05
3.92464e-07
1.56541e-05
4.18118e-07
1.56935e-05
4.41993e-07
1.57379e-05
4.63838e-07
1.57876e-05
4.83454e-07
1.58425e-05
5.00574e-07
5.15395e-07
1.59027e-05
1.884e-05
2.18074e-08
1.88471e-05
6.14661e-08
1.88582e-05
9.73347e-08
1.88729e-05
1.3062e-07
1.8891e-05
1.62045e-07
1.89124e-05
1.92021e-07
1.89371e-05
2.20776e-07
1.89656e-05
2.48405e-07
1.8998e-05
2.749e-07
1.90346e-05
3.0017e-07
1.90759e-05
3.24071e-07
1.91219e-05
3.46427e-07
1.9173e-05
3.6705e-07
1.92292e-05
3.85762e-07
1.92906e-05
4.02398e-07
1.93572e-05
4.1684e-07
1.94289e-05
4.28924e-07
4.38867e-07
1.95054e-05
2.29676e-05
1.7558e-08
2.29795e-05
4.95077e-08
2.29983e-05
7.86155e-08
2.30229e-05
1.05949e-07
2.3053e-05
1.31986e-07
2.30881e-05
1.56869e-07
2.31283e-05
1.80636e-07
2.31734e-05
2.03281e-07
2.32236e-05
2.24747e-07
2.32788e-05
2.44924e-07
2.33392e-05
2.63671e-07
2.34048e-05
2.80849e-07
2.34755e-05
2.96324e-07
2.35513e-05
3.09982e-07
2.3632e-05
3.2173e-07
2.37173e-05
3.31518e-07
2.38069e-05
3.39266e-07
3.45173e-07
2.39006e-05
1.68147e-05
1.35862e-08
1.68257e-05
3.84835e-08
1.68427e-05
6.15672e-08
1.68649e-05
8.37948e-08
1.68915e-05
1.0536e-07
1.69223e-05
1.26134e-07
1.69569e-05
1.46009e-07
1.69952e-05
1.64928e-07
1.70372e-05
1.82802e-07
1.70826e-05
1.99502e-07
1.71314e-05
2.14886e-07
1.71834e-05
2.28825e-07
1.72385e-05
2.41214e-07
1.72965e-05
2.51968e-07
1.73572e-05
2.61028e-07
1.74204e-05
2.68376e-07
1.74857e-05
2.73976e-07
2.78009e-07
1.75528e-05
1.46386e-05
9.53598e-09
1.46499e-05
2.7201e-08
1.46671e-05
4.43734e-08
1.46891e-05
6.18373e-08
1.47151e-05
7.93411e-08
1.47448e-05
9.64252e-08
1.47779e-05
1.12882e-07
1.48142e-05
1.28621e-07
1.48535e-05
1.4352e-07
1.48956e-05
1.57419e-07
1.49403e-05
1.70171e-07
1.49875e-05
1.81658e-07
1.50369e-05
1.91785e-07
1.50884e-05
2.00487e-07
1.51417e-05
2.07721e-07
1.51966e-05
2.13477e-07
1.52528e-05
2.17732e-07
2.2062e-07
1.53102e-05
1.27443e-05
5.39443e-09
1.27557e-05
1.57623e-08
1.27727e-05
2.7393e-08
1.27938e-05
4.07191e-08
1.28185e-05
5.47008e-08
1.28463e-05
6.85448e-08
1.28772e-05
8.20569e-08
1.29106e-05
9.51467e-08
1.29465e-05
1.07635e-07
1.29846e-05
1.19318e-07
1.30247e-05
1.30041e-07
1.30667e-05
1.39685e-07
1.31103e-05
1.48163e-07
1.31554e-05
1.55415e-07
1.32017e-05
1.61413e-07
1.3249e-05
1.66159e-07
1.32971e-05
1.69659e-07
1.72052e-07
1.33457e-05
1.10952e-05
1.08908e-09
1.11069e-05
4.09669e-09
1.11235e-05
1.0787e-08
1.11434e-05
2.08134e-08
1.11663e-05
3.18597e-08
1.11919e-05
4.2924e-08
1.122e-05
5.38961e-08
1.12504e-05
6.47538e-08
1.12828e-05
7.5253e-08
1.1317e-05
8.51378e-08
1.13528e-05
9.42582e-08
1.139e-05
1.02495e-07
1.14284e-05
1.09752e-07
1.14678e-05
1.15975e-07
1.15081e-05
1.21133e-07
1.1549e-05
1.25223e-07
1.15905e-05
1.28236e-07
1.3023e-07
1.16323e-05
9.65983e-06
-3.52311e-09
9.67184e-06
-7.91947e-09
9.68789e-06
-5.26042e-09
9.70644e-06
2.26373e-09
9.72747e-06
1.08276e-08
9.75071e-06
1.96886e-08
9.77603e-06
2.85702e-08
9.80317e-06
3.7617e-08
9.83192e-06
4.65045e-08
9.86211e-06
5.49483e-08
9.89357e-06
6.27929e-08
9.92617e-06
6.99033e-08
9.95971e-06
7.62117e-08
9.99402e-06
8.16661e-08
1.00289e-05
8.62251e-08
1.00643e-05
8.98918e-08
1.00998e-05
9.26938e-08
9.47557e-08
1.01353e-05
8.41063e-06
-8.80308e-09
8.42321e-06
-2.05011e-08
8.43823e-06
-2.02779e-08
8.45518e-06
-1.4681e-08
8.47454e-06
-8.53839e-09
8.49572e-06
-1.48567e-09
8.51859e-06
5.69244e-09
8.54294e-06
1.32686e-08
8.56863e-06
2.08135e-08
8.59542e-06
2.81662e-08
8.62311e-06
3.50982e-08
8.65167e-06
4.13422e-08
8.68094e-06
4.69434e-08
8.71078e-06
5.18274e-08
8.74104e-06
5.5959e-08
8.77158e-06
5.93594e-08
8.80227e-06
6.19992e-08
6.38638e-08
8.83316e-06
7.32348e-06
-1.50008e-08
7.3372e-06
-3.42195e-08
7.351e-06
-3.40751e-08
7.36588e-06
-2.95628e-08
7.3828e-06
-2.54606e-08
7.40171e-06
-2.03949e-08
7.42186e-06
-1.44581e-08
7.44323e-06
-8.0993e-09
7.46594e-06
-1.89517e-09
7.48964e-06
4.46295e-09
7.51406e-06
1.06836e-08
7.53918e-06
1.62202e-08
7.56479e-06
2.13324e-08
7.59085e-06
2.57702e-08
7.61725e-06
2.95552e-08
7.64381e-06
3.27967e-08
7.67038e-06
3.54312e-08
3.75714e-08
7.69667e-06
6.37692e-06
-2.18525e-08
6.39158e-06
-4.88776e-08
6.40489e-06
-4.73899e-08
6.41909e-06
-4.37654e-08
6.43501e-06
-4.13739e-08
6.45224e-06
-3.76291e-08
6.47049e-06
-3.27059e-08
6.48979e-06
-2.74021e-08
6.50995e-06
-2.20564e-08
6.531e-06
-1.65816e-08
6.55289e-06
-1.12067e-08
6.57533e-06
-6.2229e-09
6.5981e-06
-1.43561e-09
6.62116e-06
2.7098e-09
6.64448e-06
6.23696e-09
6.66785e-06
9.41991e-09
6.69125e-06
1.20337e-08
1.41788e-08
6.71464e-06
5.55553e-06
-3.19201e-08
5.5711e-06
-6.44435e-08
5.58725e-06
-6.35437e-08
5.60589e-06
-6.24079e-08
5.62639e-06
-6.18661e-08
5.64783e-06
-5.90761e-08
5.66981e-06
-5.46832e-08
5.69211e-06
-4.96973e-08
5.71451e-06
-4.44625e-08
5.73697e-06
-3.90359e-08
5.75936e-06
-3.36e-08
5.78151e-06
-2.83752e-08
5.80349e-06
-2.34134e-08
5.82515e-06
-1.89461e-08
5.84636e-06
-1.49775e-08
5.86725e-06
-1.14688e-08
5.88778e-06
-8.50119e-09
-6.34225e-09
5.9083e-06
4.88777e-06
-9.20785e-08
4.93477e-06
-1.11451e-07
4.97419e-06
-1.02963e-07
5.00704e-06
-9.52522e-08
5.03372e-06
-8.85452e-08
5.05542e-06
-8.0778e-08
5.07326e-06
-7.25208e-08
5.08809e-06
-6.45281e-08
5.10062e-06
-5.69984e-08
5.1115e-06
-4.99168e-08
5.12123e-06
-4.33284e-08
5.13017e-06
-3.7314e-08
5.13864e-06
-3.18852e-08
5.14679e-06
-2.70979e-08
5.15474e-06
-2.29274e-08
5.16263e-06
-1.93595e-08
5.17056e-06
-1.64309e-08
-1.46341e-08
5.17886e-06
4.1106e-06
3.99915e-06
3.89618e-06
3.80093e-06
3.71239e-06
3.63161e-06
3.55909e-06
3.49456e-06
3.43756e-06
3.38764e-06
3.34432e-06
3.307e-06
3.27512e-06
3.24802e-06
3.22509e-06
3.20573e-06
3.1893e-06
3.17467e-06
-5.70403e-07
5.70403e-07
-9.20824e-07
3.50421e-07
-5.67242e-07
-3.53582e-07
4.56105e-07
-1.02335e-06
1.80689e-06
-1.35079e-06
3.18153e-06
-1.37464e-06
4.39775e-06
-1.21622e-06
5.37604e-06
-9.78291e-07
6.08805e-06
-7.12013e-07
6.52577e-06
-4.37716e-07
6.68983e-06
-1.64062e-07
6.56163e-06
1.28201e-07
6.13566e-06
4.25968e-07
5.43894e-06
6.96724e-07
4.51618e-06
9.22757e-07
3.4413e-06
1.07488e-06
2.32162e-06
1.11969e-06
1.2899e-06
1.03172e-06
4.88074e-07
8.01826e-07
8.40253e-10
4.87234e-07
-1.98826e-07
1.99666e-07
-1.49901e-07
-4.89242e-08
1.15442e-07
-2.65344e-07
6.56246e-07
-5.40804e-07
1.24225e-06
-5.86003e-07
1.66551e-06
-4.23259e-07
1.8939e-06
-2.28393e-07
1.9575e-06
-6.36006e-08
1.90043e-06
5.70672e-08
1.71498e-06
1.85453e-07
1.33087e-06
3.84115e-07
6.74922e-07
6.55945e-07
-2.52291e-07
9.27213e-07
-1.36898e-06
1.11669e-06
-2.59859e-06
1.22961e-06
-3.87631e-06
1.27772e-06
-5.14731e-06
1.271e-06
-6.36791e-06
1.2206e-06
-7.50566e-06
1.13775e-06
-8.53869e-06
1.03303e-06
-9.45403e-06
9.15342e-07
-1.02457e-05
7.91688e-07
-1.09129e-05
6.67216e-07
-1.14584e-05
5.45436e-07
-1.18869e-05
4.28536e-07
-1.22048e-05
3.1787e-07
-1.24192e-05
2.14429e-07
-1.25385e-05
1.19314e-07
-1.25719e-05
3.33822e-08
-1.25375e-05
-3.44277e-08
-1.24466e-05
-9.08847e-08
-1.23076e-05
-1.3904e-07
-1.21261e-05
-1.81405e-07
-1.19067e-05
-2.19473e-07
-1.16526e-05
-2.54028e-07
-1.1367e-05
-2.85603e-07
-1.10524e-05
-3.14656e-07
-1.07108e-05
-3.41628e-07
-1.03438e-05
-3.66951e-07
-9.95278e-06
-3.91033e-07
-9.53855e-06
-4.14221e-07
-9.10179e-06
-4.36763e-07
-8.64303e-06
-4.58758e-07
-8.16291e-06
-4.80123e-07
-7.66235e-06
-5.00564e-07
-7.14277e-06
-5.1958e-07
-6.60627e-06
-5.36492e-07
-6.05576e-06
-5.5051e-07
-5.49494e-06
-5.60821e-07
-4.92824e-06
-5.66705e-07
-4.36061e-06
-5.6763e-07
-3.79727e-06
-5.6334e-07
-3.24338e-06
-5.53887e-07
-2.70373e-06
-5.39649e-07
-2.18247e-06
-5.21265e-07
-1.68307e-06
-4.99396e-07
-1.20863e-06
-4.7444e-07
-7.61743e-07
-4.46886e-07
-3.43471e-07
-4.18272e-07
4.76698e-08
-3.91141e-07
4.10925e-07
-3.63255e-07
7.47259e-07
-3.36334e-07
1.05746e-06
-3.102e-07
1.34215e-06
-2.84689e-07
1.60185e-06
-2.59706e-07
1.83812e-06
-2.36264e-07
2.05304e-06
-2.14926e-07
2.24846e-06
-1.95415e-07
2.42706e-06
-1.78598e-07
2.58871e-06
-1.61654e-07
2.73192e-06
-1.43208e-07
2.85757e-06
-1.25647e-07
2.96649e-06
-1.08921e-07
3.05938e-06
-9.28946e-08
3.13651e-06
-7.71308e-08
3.19324e-06
-5.67291e-08
3.21612e-06
-2.28831e-08
3.18135e-06
3.47739e-08
3.09044e-06
9.09138e-08
2.95668e-06
1.33754e-07
2.79644e-06
1.60239e-07
2.63003e-06
1.6641e-07
2.47672e-06
1.5331e-07
2.35053e-06
1.26194e-07
2.25883e-06
9.17018e-08
2.2029e-06
5.59275e-08
2.17931e-06
2.35935e-08
2.18011e-06
-8.053e-10
2.19772e-06
-1.76074e-08
2.2261e-06
-2.83841e-08
2.26172e-06
-3.56125e-08
2.30327e-06
-4.15507e-08
2.35095e-06
-4.76798e-08
2.40627e-06
-5.53183e-08
2.47201e-06
-6.57443e-08
2.55199e-06
-7.99844e-08
2.65022e-06
-9.82304e-08
2.76789e-06
-1.17668e-07
2.89895e-06
-1.31061e-07
3.02939e-06
-1.30438e-07
3.13922e-06
-1.09827e-07
3.20634e-06
-6.71185e-08
3.18621e-06
2.01255e-08
2.95222e-06
2.3399e-07
2.28358e-06
6.68645e-07
1.05689e-06
1.22669e-06
-5.93774e-07
1.65066e-06
-2.35671e-06
1.76293e-06
-3.98676e-06
1.63005e-06
-5.36643e-06
1.37967e-06
-6.45859e-06
1.09216e-06
-7.26701e-06
8.08416e-07
-7.81142e-06
5.44412e-07
-8.11739e-06
3.05971e-07
-8.21152e-06
9.41337e-08
-8.13638e-06
-7.51396e-08
-7.9192e-06
-2.17184e-07
-7.57183e-06
-3.47369e-07
-7.10038e-06
-4.71451e-07
-6.50966e-06
-5.90722e-07
-5.80494e-06
-7.04714e-07
-4.99312e-06
-8.11823e-07
-4.08398e-06
-9.09143e-07
-3.09204e-06
-9.91939e-07
-2.03842e-06
-1.05362e-06
-9.43635e-07
-1.09478e-06
1.56727e-07
-1.10036e-06
1.22969e-06
-1.07297e-06
2.24729e-06
-1.0176e-06
3.18817e-06
-9.40881e-07
4.0358e-06
-8.47626e-07
4.77912e-06
-7.4332e-07
5.41028e-06
-6.3116e-07
5.92883e-06
-5.18554e-07
6.34543e-06
-4.16601e-07
6.62121e-06
-2.75779e-07
6.63185e-06
-1.06433e-08
6.26726e-06
3.64597e-07
5.55438e-06
7.12881e-07
4.60323e-06
9.51143e-07
3.59086e-06
1.01237e-06
2.70037e-06
8.90488e-07
2.07359e-06
6.26783e-07
1.77835e-06
2.95239e-07
1.761e-06
1.73463e-08
1.90835e-06
-1.47351e-07
2.21136e-06
-3.03006e-07
2.7246e-06
-5.13239e-07
3.23079e-06
-5.06189e-07
3.29401e-06
-6.32178e-08
2.57438e-06
7.19623e-07
8.86725e-07
1.68766e-06
-1.21022e-06
2.09694e-06
-3.13379e-06
1.92357e-06
-4.4652e-06
1.33141e-06
-5.10433e-06
6.39132e-07
-5.13315e-06
2.88231e-08
-4.66983e-06
-4.63327e-07
-3.83361e-06
-8.36214e-07
-1.14896e-06
-2.68465e-06
5.72124e-08
5.13191e-07
8.32226e-07
-4.24593e-07
2.14135e-06
-1.6627e-06
3.47725e-06
-2.35925e-06
4.61715e-06
-2.4907e-06
5.51489e-06
-2.27237e-06
6.19494e-06
-1.89628e-06
6.69219e-06
-1.47553e-06
7.03926e-06
-1.05909e-06
7.2604e-06
-6.58853e-07
7.36931e-06
-2.72972e-07
7.38613e-06
1.11377e-07
7.30211e-06
5.09992e-07
7.07631e-06
9.22525e-07
6.66653e-06
1.33254e-06
6.04862e-06
1.69278e-06
5.23804e-06
1.93027e-06
4.30371e-06
1.96604e-06
3.35851e-06
1.74703e-06
2.5437e-06
1.30204e-06
1.97159e-06
7.71776e-07
1.64806e-06
2.74606e-07
1.67728e-06
-2.94571e-07
1.86676e-06
-7.30279e-07
1.95319e-06
-6.72431e-07
1.71354e-06
-1.83615e-07
1.2321e-06
2.53051e-07
4.27768e-07
7.4073e-07
-7.22476e-07
1.20731e-06
-2.1369e-06
1.59987e-06
-3.67379e-06
1.92101e-06
-5.19381e-06
2.17596e-06
-6.61281e-06
2.34622e-06
-7.90919e-06
2.41307e-06
-9.06135e-06
2.38177e-06
-1.00527e-05
2.2691e-06
-1.08777e-05
2.09599e-06
-1.15412e-05
1.88409e-06
-1.20564e-05
1.6529e-06
-1.24415e-05
1.41816e-06
-1.27173e-05
1.19117e-06
-1.29045e-05
9.78909e-07
-1.30222e-05
7.84856e-07
-1.30865e-05
6.09744e-07
-1.31106e-05
4.52638e-07
-1.31045e-05
3.1176e-07
-1.30751e-05
1.85003e-07
-1.30262e-05
7.04844e-08
-1.29582e-05
-3.46333e-08
-1.28603e-05
-1.32352e-07
-1.27264e-05
-2.24815e-07
-1.25547e-05
-3.1066e-07
-1.23465e-05
-3.89661e-07
-1.21039e-05
-4.62067e-07
-1.18295e-05
-5.28389e-07
-1.15259e-05
-5.89257e-07
-1.11951e-05
-6.45398e-07
-1.08391e-05
-6.9762e-07
-1.04593e-05
-7.4677e-07
-1.00567e-05
-7.93674e-07
-9.63184e-06
-8.39057e-07
-9.18516e-06
-8.83444e-07
-8.71686e-06
-9.27059e-07
-8.22725e-06
-9.69736e-07
-7.71695e-06
-1.01086e-06
-7.18716e-06
-1.04937e-06
-6.63986e-06
-1.0838e-06
-6.07793e-06
-1.11244e-06
-5.50522e-06
-1.13353e-06
-4.9264e-06
-1.14552e-06
-4.34674e-06
-1.14729e-06
-3.77181e-06
-1.13828e-06
-3.20705e-06
-1.11865e-06
-2.65751e-06
-1.08919e-06
-2.12755e-06
-1.05122e-06
-1.6207e-06
-1.00625e-06
-1.13938e-06
-9.55761e-07
-6.8495e-07
-9.01319e-07
-2.57822e-07
-8.45401e-07
1.40232e-07
-7.89195e-07
5.10233e-07
-7.33255e-07
8.53088e-07
-6.79189e-07
1.16982e-06
-6.26933e-07
1.46196e-06
-5.76828e-07
1.73128e-06
-5.29023e-07
1.97892e-06
-4.83907e-07
2.20581e-06
-4.41819e-07
2.41308e-06
-4.02685e-07
2.60091e-06
-3.66423e-07
2.77142e-06
-3.32161e-07
2.92718e-06
-2.98978e-07
3.0688e-06
-2.67265e-07
3.19671e-06
-2.36831e-07
3.31098e-06
-2.07164e-07
3.41143e-06
-1.77579e-07
3.50243e-06
-1.4773e-07
3.59645e-06
-1.16905e-07
3.70981e-06
-7.85812e-08
3.83214e-06
-3.14213e-08
3.94742e-06
1.84751e-08
4.04267e-06
6.49947e-08
4.11208e-06
9.69988e-08
4.15639e-06
1.09e-07
4.18097e-06
1.01608e-07
4.19263e-06
8.00418e-08
4.19671e-06
5.18519e-08
4.19554e-06
2.47662e-08
4.19107e-06
3.662e-09
4.18649e-06
-1.30289e-08
4.17956e-06
-2.14577e-08
4.16751e-06
-2.35609e-08
4.14674e-06
-2.07784e-08
4.1152e-06
-1.61431e-08
4.074e-06
-1.41138e-08
4.02839e-06
-2.01386e-08
3.98801e-06
-3.96016e-08
3.96589e-06
-7.61155e-08
3.97575e-06
-1.27519e-07
4.025e-06
-1.8032e-07
4.10297e-06
-2.08406e-07
4.15989e-06
-1.66745e-07
4.06249e-06
3.02834e-08
3.51949e-06
5.63121e-07
2.20266e-06
1.55082e-06
1.86241e-07
2.68506e-06
-2.00157e-06
3.4145e-06
-3.89368e-06
3.54277e-06
-5.35207e-06
3.22132e-06
-6.39501e-06
2.67299e-06
-7.09638e-06
2.08104e-06
-7.54451e-06
1.54029e-06
-7.81513e-06
1.07904e-06
-7.96169e-06
6.90971e-07
-8.01427e-06
3.58549e-07
-7.98449e-06
6.43562e-08
-7.85179e-06
-2.07843e-07
-7.59924e-06
-4.69736e-07
-7.2262e-06
-7.20407e-07
-6.7358e-06
-9.61849e-07
-6.13165e-06
-1.19487e-06
-5.41804e-06
-1.41833e-06
-4.60106e-06
-1.6288e-06
-3.69017e-06
-1.82004e-06
-2.69971e-06
-1.9824e-06
-1.64754e-06
-2.10579e-06
-5.61302e-07
-2.18102e-06
5.30727e-07
-2.19239e-06
1.59606e-06
-2.1383e-06
2.609e-06
-2.03053e-06
3.54764e-06
-1.87953e-06
4.39599e-06
-1.69597e-06
5.14489e-06
-1.49222e-06
5.79346e-06
-1.27973e-06
6.34009e-06
-1.06518e-06
6.77321e-06
-8.49717e-07
7.13529e-06
-6.37862e-07
7.53165e-06
-4.07008e-07
7.96919e-06
-7.29421e-08
8.29191e-06
3.90161e-07
8.3647e-06
8.78358e-07
8.16856e-06
1.20851e-06
7.787e-06
1.27205e-06
7.30315e-06
1.11063e-06
6.71226e-06
8.86134e-07
5.9926e-06
7.37005e-07
5.22941e-06
6.15838e-07
4.62176e-06
3.04644e-07
4.3495e-06
-2.40978e-07
4.2736e-06
-4.30287e-07
3.74852e-06
4.61857e-07
2.12711e-06
2.34104e-06
-1.62284e-07
3.97705e-06
-2.22288e-06
4.15754e-06
-3.59482e-06
3.29551e-06
-4.41207e-06
2.14866e-06
-4.79524e-06
1.02231e-06
-4.77066e-06
4.24009e-09
-4.3289e-06
-9.0509e-07
-3.52996e-06
-1.63515e-06
-2.18544e-06
-2.49348e-06
6.89178e-07
-1.75987e-07
2.30341e-06
-2.03882e-06
3.72736e-06
-3.08666e-06
4.61953e-06
-3.25142e-06
5.07703e-06
-2.94819e-06
5.2867e-06
-2.48205e-06
5.38891e-06
-1.99849e-06
5.45622e-06
-1.54284e-06
5.51266e-06
-1.11552e-06
5.55959e-06
-7.0579e-07
5.59063e-06
-3.04006e-07
5.60554e-06
9.64655e-08
5.6104e-06
5.05131e-07
5.59601e-06
9.36915e-07
5.53007e-06
1.39847e-06
5.35996e-06
1.8629e-06
5.03827e-06
2.25196e-06
4.55137e-06
2.45294e-06
3.93016e-06
2.36824e-06
3.2412e-06
1.991e-06
2.61135e-06
1.40163e-06
2.29457e-06
5.91384e-07
2.105e-06
-1.05e-07
1.44333e-06
-6.86071e-08
3.57808e-07
4.13087e-07
-9.99864e-07
1.17406e-06
-2.53665e-06
1.78984e-06
-4.09693e-06
2.30101e-06
-5.60157e-06
2.71195e-06
-7.0025e-06
3.0008e-06
-8.24602e-06
3.16454e-06
-9.28355e-06
3.21349e-06
-1.00982e-05
3.1609e-06
-1.07081e-05
3.02297e-06
-1.11469e-05
2.82051e-06
-1.14543e-05
2.57656e-06
-1.1671e-05
2.31261e-06
-1.18326e-05
2.04573e-06
-1.1967e-05
1.78731e-06
-1.20921e-05
1.54326e-06
-1.22163e-05
1.31533e-06
-1.234e-05
1.10266e-06
-1.24584e-05
9.03284e-07
-1.25638e-05
7.15117e-07
-1.26476e-05
5.36461e-07
-1.27021e-05
3.66232e-07
-1.27212e-05
2.04044e-07
-1.27e-05
4.93139e-08
-1.26382e-05
-9.64295e-08
-1.2536e-05
-2.34578e-07
-1.23967e-05
-3.64114e-07
-1.22226e-05
-4.84769e-07
-1.20157e-05
-5.96501e-07
-1.17783e-05
-6.99474e-07
-1.15125e-05
-7.94147e-07
-1.12205e-05
-8.81269e-07
-1.09041e-05
-9.61839e-07
-1.05647e-05
-1.03705e-06
-1.02032e-05
-1.10823e-06
-9.8202e-06
-1.17668e-06
-9.41566e-06
-1.2436e-06
-8.98922e-06
-1.30988e-06
-8.54034e-06
-1.37594e-06
-8.06851e-06
-1.44156e-06
-7.5736e-06
-1.50577e-06
-7.0562e-06
-1.56678e-06
-6.51788e-06
-1.62211e-06
-5.96147e-06
-1.66885e-06
-5.39108e-06
-1.70392e-06
-4.81197e-06
-1.72463e-06
-4.23024e-06
-1.72901e-06
-3.65237e-06
-1.71616e-06
-3.08467e-06
-1.68634e-06
-2.53291e-06
-1.64095e-06
-2.00191e-06
-1.58222e-06
-1.49534e-06
-1.51281e-06
-1.01564e-06
-1.43547e-06
-5.63858e-07
-1.3531e-06
-1.41111e-07
-1.26815e-06
2.52757e-07
-1.18306e-06
6.18136e-07
-1.09863e-06
9.55966e-07
-1.01702e-06
1.26774e-06
-9.38705e-07
1.55499e-06
-8.64076e-07
1.81934e-06
-7.93373e-07
2.06222e-06
-7.26791e-07
2.28492e-06
-6.64517e-07
2.48871e-06
-6.06478e-07
2.67465e-06
-5.52359e-07
2.84402e-06
-5.01533e-07
2.99832e-06
-4.53281e-07
3.13846e-06
-4.07404e-07
3.26536e-06
-3.6373e-07
3.37995e-06
-3.21751e-07
3.48289e-06
-2.80523e-07
3.57443e-06
-2.3927e-07
3.65539e-06
-1.97867e-07
3.73211e-06
-1.55297e-07
3.81223e-06
-1.11538e-07
3.89953e-06
-6.88271e-08
3.99396e-06
-2.94386e-08
4.08827e-06
2.69009e-09
4.17331e-06
2.39569e-08
4.24205e-06
3.28689e-08
4.29166e-06
3.04307e-08
4.3242e-06
1.93199e-08
4.34525e-06
3.70908e-09
4.35922e-06
-1.03099e-08
4.37096e-06
-2.47674e-08
4.38535e-06
-3.58439e-08
4.40482e-06
-4.30329e-08
4.42933e-06
-4.52852e-08
4.45494e-06
-4.17573e-08
4.47396e-06
-3.3134e-08
4.47821e-06
-2.43858e-08
4.46612e-06
-2.75143e-08
4.44853e-06
-5.85243e-08
4.44302e-06
-1.22005e-07
4.45084e-06
-1.88148e-07
4.42325e-06
-1.80808e-07
4.21493e-06
4.15666e-08
3.54535e-06
6.9987e-07
2.12236e-06
1.98611e-06
6.95088e-08
3.60367e-06
-1.97623e-06
4.73081e-06
-3.56923e-06
5.0075e-06
-4.66252e-06
4.63606e-06
-5.39076e-06
3.94957e-06
-5.91611e-06
3.19834e-06
-6.34174e-06
2.50668e-06
-6.70361e-06
1.90216e-06
-6.99583e-06
1.37126e-06
-7.19848e-06
8.93618e-07
-7.29342e-06
4.53494e-07
-7.27184e-06
4.27758e-08
-7.13128e-06
-3.48399e-07
-6.8759e-06
-7.25119e-07
-6.50761e-06
-1.0887e-06
-6.02855e-06
-1.4409e-06
-5.44116e-06
-1.78226e-06
-4.74861e-06
-2.11088e-06
-3.95609e-06
-2.42132e-06
-3.07206e-06
-2.70406e-06
-2.10974e-06
-2.94471e-06
-1.08808e-06
-3.12745e-06
-3.46013e-08
-3.2345e-06
1.01972e-06
-3.24672e-06
2.0466e-06
-3.16517e-06
3.01974e-06
-3.00368e-06
3.91746e-06
-2.77725e-06
4.72512e-06
-2.50363e-06
5.43459e-06
-2.20169e-06
6.04364e-06
-1.88878e-06
6.55642e-06
-1.57796e-06
6.9808e-06
-1.2741e-06
7.31737e-06
-9.74425e-07
7.57884e-06
-6.68484e-07
7.84567e-06
-3.39768e-07
8.20764e-06
2.8189e-08
8.65184e-06
4.3416e-07
9.05835e-06
8.01996e-07
9.30849e-06
1.02191e-06
9.34169e-06
1.07743e-06
9.14098e-06
1.08684e-06
8.7094e-06
1.16859e-06
8.05532e-06
1.26992e-06
7.1797e-06
1.18026e-06
6.14296e-06
7.95761e-07
5.05443e-06
6.58245e-07
3.71066e-06
1.80563e-06
1.87262e-06
4.17908e-06
-1.68264e-08
5.86649e-06
-1.52236e-06
5.66307e-06
-2.66999e-06
4.44314e-06
-3.54219e-06
3.02087e-06
-4.04045e-06
1.52056e-06
-4.08507e-06
4.88592e-08
-3.70555e-06
-1.2846e-06
-2.9922e-06
-2.3485e-06
-3.08162e-06
-2.09602e-06
1.38827e-06
-1.56426e-06
2.87526e-06
-3.52581e-06
3.58853e-06
-3.79993e-06
3.74684e-06
-3.40972e-06
3.6922e-06
-2.89355e-06
3.62028e-06
-2.41013e-06
3.59599e-06
-1.9742e-06
3.6118e-06
-1.55865e-06
3.63755e-06
-1.14127e-06
3.65231e-06
-7.20551e-07
3.65111e-06
-3.02802e-07
3.63569e-06
1.1188e-07
3.61075e-06
5.30072e-07
3.58024e-06
9.67425e-07
3.536e-06
1.44272e-06
3.44766e-06
1.95123e-06
3.27136e-06
2.42826e-06
2.97592e-06
2.74838e-06
2.56252e-06
2.78164e-06
2.10023e-06
2.45329e-06
1.77374e-06
1.72812e-06
1.34911e-06
1.01601e-06
2.94617e-07
9.49498e-07
-1.36801e-06
1.59402e-06
-3.20537e-06
2.25044e-06
-4.85787e-06
2.82656e-06
-6.34188e-06
3.27385e-06
-7.62405e-06
3.58319e-06
-8.66814e-06
3.75603e-06
-9.46979e-06
3.80246e-06
-1.00471e-05
3.74181e-06
-1.0432e-05
3.59848e-06
-1.06682e-05
3.39709e-06
-1.08055e-05
3.16023e-06
-1.08919e-05
2.90689e-06
-1.09661e-05
2.65078e-06
-1.10533e-05
2.39978e-06
-1.11644e-05
2.15683e-06
-1.12987e-05
1.92167e-06
-1.14482e-05
1.69268e-06
-1.1601e-05
1.46815e-06
-1.17453e-05
1.24696e-06
-1.18708e-05
1.02877e-06
-1.19695e-05
8.13883e-07
-1.20362e-05
6.0308e-07
-1.20674e-05
3.97444e-07
-1.20616e-05
1.98237e-07
-1.20189e-05
6.68871e-09
-1.19394e-05
-1.75968e-07
-1.18251e-05
-3.48862e-07
-1.16781e-05
-5.11106e-07
-1.15009e-05
-6.61992e-07
-1.12962e-05
-8.01208e-07
-1.10668e-05
-9.28894e-07
-1.08152e-05
-1.04569e-06
-1.05438e-05
-1.15271e-06
-1.02541e-05
-1.2515e-06
-9.94726e-06
-1.34393e-06
-9.62343e-06
-1.43205e-06
-9.28217e-06
-1.51794e-06
-8.92227e-06
-1.6035e-06
-8.54196e-06
-1.69019e-06
-8.13909e-06
-1.77881e-06
-7.71146e-06
-1.86919e-06
-7.25727e-06
-1.95995e-06
-6.77562e-06
-2.04843e-06
-6.26699e-06
-2.13074e-06
-5.73366e-06
-2.20218e-06
-5.17983e-06
-2.25774e-06
-4.61153e-06
-2.29294e-06
-4.03609e-06
-2.30446e-06
-3.46149e-06
-2.29075e-06
-2.89559e-06
-2.25224e-06
-2.34542e-06
-2.19113e-06
-1.81669e-06
-2.11094e-06
-1.31362e-06
-2.01588e-06
-8.38801e-07
-1.91029e-06
-3.93492e-07
-1.79841e-06
2.18896e-08
-1.68353e-06
4.07288e-07
-1.56846e-06
7.6411e-07
-1.45546e-06
1.09351e-06
-1.34642e-06
1.39704e-06
-1.24223e-06
1.67636e-06
-1.14339e-06
1.93316e-06
-1.05018e-06
2.16905e-06
-9.62674e-07
2.38537e-06
-8.80842e-07
2.58336e-06
-8.04466e-07
2.76415e-06
-7.3315e-07
2.92897e-06
-6.66356e-07
3.0792e-06
-6.03508e-07
3.21597e-06
-5.44175e-07
3.34019e-06
-4.87951e-07
3.45276e-06
-4.34315e-07
3.55491e-06
-3.82677e-07
3.64821e-06
-3.32567e-07
3.73395e-06
-2.8361e-07
3.81376e-06
-2.35102e-07
3.88922e-06
-1.86998e-07
3.96141e-06
-1.41023e-07
4.03152e-06
-9.95436e-08
4.09927e-06
-6.50629e-08
4.16284e-06
-3.96173e-08
4.21954e-06
-2.38295e-08
4.26679e-06
-1.68204e-08
4.30298e-06
-1.68705e-08
4.32856e-06
-2.18671e-08
4.34757e-06
-2.93237e-08
4.36175e-06
-3.89462e-08
4.37504e-06
-4.91265e-08
4.39057e-06
-5.85715e-08
4.41005e-06
-6.47647e-08
4.43161e-06
-6.33137e-08
4.44929e-06
-5.08097e-08
4.45687e-06
-3.19659e-08
4.45529e-06
-2.59418e-08
4.4548e-06
-5.80332e-08
4.45902e-06
-1.26218e-07
4.42864e-06
-1.57772e-07
4.23434e-06
1.34954e-08
3.6407e-06
6.352e-07
2.4069e-06
1.93367e-06
5.62412e-07
3.83059e-06
-1.30387e-06
5.46996e-06
-2.69032e-06
6.11725e-06
-3.57904e-06
5.89622e-06
-4.16165e-06
5.21867e-06
-4.62741e-06
4.41533e-06
-5.07039e-06
3.64133e-06
-5.49403e-06