/*--------------------------------*- C++ -*----------------------------------*\
  =========                 |
  \\      /  F ield         | OpenFOAM: The Open Source CFD Toolbox
   \\    /   O peration     | Website:  https://openfoam.org
    \\  /    A nd           | Version:  9
     \\/     M anipulation  |
\*---------------------------------------------------------------------------*/
FoamFile
{
    format      ascii;
    class       volVectorField;
    location    "0.2";
    object      U;
}
// * * * * * * * * * * * * * * * * * * * * * * * * * * * * * * * * * * * * * //

dimensions      [0 1 -1 0 0 0 0];

internalField   nonuniform List<vector> 
12225
(
(9.76628 -0.0578824 0)
(9.29293 -0.0311684 0)
(8.79868 -0.000820646 0)
(8.29238 0.0224749 0)
(7.79104 0.0392671 0)
(7.2986 0.0510482 0)
(6.80969 0.0600373 0)
(6.31667 0.0680974 0)
(5.81148 0.0764792 0)
(5.2851 0.0859811 0)
(4.72798 0.096926 0)
(4.13185 0.108882 0)
(3.49277 0.120217 0)
(2.81421 0.127888 0)
(2.11155 0.127462 0)
(1.40863 0.114829 0)
(0.745909 0.0847478 0)
(0.151387 0.0432602 0)
(10.099 0.0970828 0)
(10.295 0.163194 0)
(10.4165 0.170882 0)
(10.4685 0.171571 0)
(10.4688 0.173827 0)
(10.4249 0.17756 0)
(10.3381 0.183832 0)
(10.2078 0.193961 0)
(10.0321 0.20901 0)
(9.80633 0.229987 0)
(9.5222 0.257735 0)
(9.16829 0.292444 0)
(8.73102 0.332926 0)
(8.19656 0.37595 0)
(7.55565 0.415775 0)
(6.80414 0.445248 0)
(5.95564 0.455352 0)
(5.01798 0.440258 0)
(10.0081 0.0422679 0)
(10.0505 0.0606537 0)
(10.0945 0.0615146 0)
(10.1315 0.0731803 0)
(10.1662 0.091964 0)
(10.1993 0.112868 0)
(10.2274 0.135941 0)
(10.2476 0.162823 0)
(10.258 0.195246 0)
(10.2565 0.235122 0)
(10.2401 0.284454 0)
(10.2033 0.34483 0)
(10.1372 0.416632 0)
(10.028 0.498078 0)
(9.85714 0.584565 0)
(9.59967 0.668813 0)
(9.23767 0.742 0)
(8.72616 0.798227 0)
(10.0037 0.030011 0)
(10.0221 0.0620818 0)
(10.0365 0.0799192 0)
(10.0383 0.0984052 0)
(10.0327 0.117426 0)
(10.0247 0.135758 0)
(10.0147 0.155219 0)
(10.0026 0.178303 0)
(9.98925 0.207118 0)
(9.97649 0.243704 0)
(9.96685 0.290255 0)
(9.96329 0.348895 0)
(9.96867 0.421217 0)
(9.98388 0.507559 0)
(10.0059 0.606624 0)
(10.0227 0.714483 0)
(10.0193 0.827716 0)
(9.95587 0.938486 0)
(10.0027 0.0262677 0)
(10.0166 0.0632164 0)
(10.0275 0.0834228 0)
(10.026 0.0997836 0)
(10.0151 0.117137 0)
(9.99895 0.135724 0)
(9.97811 0.1566 0)
(9.95197 0.18151 0)
(9.92093 0.212041 0)
(9.88636 0.249668 0)
(9.85035 0.295909 0)
(9.81589 0.352172 0)
(9.78709 0.419491 0)
(9.76895 0.498205 0)
(9.76672 0.588171 0)
(9.7838 0.688213 0)
(9.8206 0.799 0)
(9.87318 0.917803 0)
(10.0018 0.023683 0)
(10.0119 0.0600893 0)
(10.0204 0.0817221 0)
(10.0191 0.099509 0)
(10.0093 0.119229 0)
(9.99426 0.141012 0)
(9.97455 0.165138 0)
(9.9495 0.193009 0)
(9.91919 0.226166 0)
(9.88446 0.265981 0)
(9.84657 0.3137 0)
(9.80714 0.370324 0)
(9.76829 0.436369 0)
(9.73266 0.511653 0)
(9.70313 0.595493 0)
(9.68311 0.686839 0)
(9.67468 0.785568 0)
(9.68544 0.892742 0)
(10.0012 0.0215774 0)
(10.0082 0.0570965 0)
(10.0144 0.0812766 0)
(10.0132 0.101792 0)
(10.0045 0.123791 0)
(9.9907 0.147766 0)
(9.97271 0.174026 0)
(9.95018 0.203948 0)
(9.92325 0.239094 0)
(9.89273 0.280759 0)
(9.85975 0.330008 0)
(9.82563 0.387626 0)
(9.79186 0.453948 0)
(9.7599 0.528718 0)
(9.73098 0.611151 0)
(9.70614 0.70025 0)
(9.68557 0.795037 0)
(9.67201 0.896635 0)
(10.0008 0.0200236 0)
(10.0055 0.0549023 0)
(10.0099 0.0812954 0)
(10.0086 0.104089 0)
(10.0008 0.127757 0)
(9.9882 0.153435 0)
(9.97187 0.181636 0)
(9.95176 0.213576 0)
(9.92807 0.250652 0)
(9.90158 0.294 0)
(9.87344 0.344495 0)
(9.84492 0.402746 0)
(9.81736 0.468991 0)
(9.79207 0.543021 0)
(9.77003 0.624231 0)
(9.75183 0.711902 0)
(9.73755 0.805203 0)
(9.72727 0.904644 0)
(10.0005 0.018941 0)
(10.0036 0.0532987 0)
(10.0065 0.0813309 0)
(10.0051 0.106119 0)
(9.99821 0.131461 0)
(9.98708 0.158889 0)
(9.97263 0.189039 0)
(9.95506 0.222913 0)
(9.93465 0.261708 0)
(9.91213 0.30642 0)
(9.8886 0.35778 0)
(9.86523 0.416252 0)
(9.84326 0.481989 0)
(9.82386 0.554801 0)
(9.808 0.634211 0)
(9.79635 0.719673 0)
(9.78926 0.810557 0)
(9.78699 0.907105 0)
(10.0003 0.0182038 0)
(10.0023 0.0521463 0)
(10.004 0.0814166 0)
(10.0026 0.10802 0)
(9.99682 0.135033 0)
(9.98729 0.164109 0)
(9.97492 0.195978 0)
(9.96007 0.231495 0)
(9.94306 0.271684 0)
(9.92462 0.317414 0)
(9.90573 0.36929 0)
(9.88748 0.427654 0)
(9.87096 0.492581 0)
(9.85719 0.563876 0)
(9.84706 0.641127 0)
(9.84125 0.723867 0)
(9.84021 0.811523 0)
(9.84458 0.904279 0)
(10.0002 0.0177077 0)
(10.0014 0.0513545 0)
(10.0024 0.0815754 0)
(10.0012 0.109747 0)
(9.99648 0.138286 0)
(9.98871 0.168801 0)
(9.97861 0.202107 0)
(9.96663 0.238964 0)
(9.95317 0.28023 0)
(9.9389 0.326639 0)
(9.92471 0.378677 0)
(9.91159 0.436582 0)
(9.90049 0.500362 0)
(9.89232 0.569812 0)
(9.88786 0.644552 0)
(9.88777 0.724158 0)
(9.89249 0.808058 0)
(9.90276 0.89639 0)
(10.0001 0.0173916 0)
(10.0009 0.0508437 0)
(10.0016 0.0817339 0)
(10.0006 0.111107 0)
(9.99706 0.140872 0)
(9.99103 0.172521 0)
(9.98315 0.206907 0)
(9.97393 0.244721 0)
(9.9638 0.286677 0)
(9.9534 0.333382 0)
(9.94353 0.385223 0)
(9.93508 0.442358 0)
(9.9289 0.504744 0)
(9.9258 0.572161 0)
(9.92647 0.644245 0)
(9.93153 0.720587 0)
(9.9414 0.800602 0)
(9.95681 0.884386 0)
(10.0001 0.0171709 0)
(10.0007 0.0504628 0)
(10.0013 0.0818079 0)
(10.0007 0.112104 0)
(9.99834 0.142876 0)
(9.99412 0.175445 0)
(9.98857 0.21065 0)
(9.98217 0.249122 0)
(9.9754 0.291452 0)
(9.96884 0.338128 0)
(9.96322 0.389446 0)
(9.95933 0.445495 0)
(9.95792 0.506186 0)
(9.95971 0.571281 0)
(9.9653 0.640413 0)
(9.97527 0.713178 0)
(9.98998 0.788978 0)
(10.0102 0.867864 0)
(10.0001 0.0169634 0)
(10.0006 0.0500578 0)
(10.0013 0.0817053 0)
(10.0015 0.112738 0)
(10.0006 0.144361 0)
(9.99859 0.177686 0)
(9.99578 0.213488 0)
(9.99269 0.252329 0)
(9.98977 0.294683 0)
(9.98757 0.340914 0)
(9.98671 0.391219 0)
(9.98788 0.445621 0)
(9.99173 0.503983 0)
(9.99887 0.566042 0)
(10.0098 0.631424 0)
(10.025 0.69972 0)
(10.0449 0.770322 0)
(10.07 0.843244 0)
(10.0001 0.0167134 0)
(10.0008 0.0494789 0)
(10.002 0.0811769 0)
(10.0032 0.112615 0)
(10.0042 0.144751 0)
(10.0047 0.178476 0)
(10.0051 0.214461 0)
(10.0058 0.253182 0)
(10.0072 0.294996 0)
(10.0098 0.340145 0)
(10.0141 0.388731 0)
(10.0208 0.440707 0)
(10.0302 0.495892 0)
(10.043 0.553997 0)
(10.0595 0.614641 0)
(10.0802 0.677411 0)
(10.1051 0.741701 0)
(10.135 0.807508 0)
(10.0001 0.016324 0)
(10.0012 0.048443 0)
(10.0032 0.0797594 0)
(10.0059 0.111068 0)
(10.0091 0.143144 0)
(10.0126 0.176674 0)
(10.0166 0.212191 0)
(10.0215 0.250065 0)
(10.0277 0.290541 0)
(10.0355 0.333749 0)
(10.0453 0.379699 0)
(10.0576 0.428277 0)
(10.0728 0.479265 0)
(10.0912 0.532355 0)
(10.1133 0.587162 0)
(10.1391 0.643284 0)
(10.1688 0.700136 0)
(10.2029 0.757719 0)
(10.0002 0.0156368 0)
(10.0018 0.0464885 0)
(10.005 0.0767142 0)
(10.0096 0.107081 0)
(10.0154 0.138219 0)
(10.0223 0.170637 0)
(10.0303 0.204718 0)
(10.0398 0.240714 0)
(10.0509 0.278765 0)
(10.064 0.318902 0)
(10.0793 0.361057 0)
(10.0973 0.405065 0)
(10.118 0.450682 0)
(10.1418 0.497594 0)
(10.1689 0.545432 0)
(10.1993 0.593822 0)
(10.233 0.642234 0)
(10.2704 0.690687 0)
(10.0003 0.0144078 0)
(10.0026 0.0429181 0)
(10.0073 0.0709552 0)
(10.0143 0.0992261 0)
(10.023 0.128226 0)
(10.0335 0.158301 0)
(10.0457 0.189688 0)
(10.0598 0.222521 0)
(10.0759 0.256841 0)
(10.0942 0.292599 0)
(10.1148 0.329665 0)
(10.1379 0.367843 0)
(10.1636 0.406879 0)
(10.192 0.446475 0)
(10.2232 0.4863 0)
(10.2572 0.526028 0)
(10.2938 0.565218 0)
(10.3334 0.603905 0)
(10.0004 0.012291 0)
(10.0037 0.036691 0)
(10.0103 0.0607994 0)
(10.0198 0.0852505 0)
(10.0318 0.110406 0)
(10.0461 0.136453 0)
(10.0625 0.16349 0)
(10.081 0.191546 0)
(10.1017 0.220588 0)
(10.1246 0.250509 0)
(10.1498 0.281147 0)
(10.1772 0.312296 0)
(10.2068 0.343715 0)
(10.2387 0.375143 0)
(10.2728 0.4063 0)
(10.3089 0.436925 0)
(10.347 0.466679 0)
(10.3871 0.495593 0)
(10.0005 0.00972802 0)
(10.0047 0.0291119 0)
(10.0129 0.0484413 0)
(10.0247 0.0683072 0)
(10.0394 0.0889452 0)
(10.0565 0.110395 0)
(10.076 0.132642 0)
(10.0976 0.155646 0)
(10.1215 0.179327 0)
(10.1475 0.203551 0)
(10.1755 0.228147 0)
(10.2055 0.252922 0)
(10.2374 0.277666 0)
(10.271 0.30216 0)
(10.3063 0.326183 0)
(10.3432 0.349532 0)
(10.3814 0.371954 0)
(10.421 0.393477 0)
(10.0006 0.00721886 0)
(10.0055 0.0217562 0)
(10.0151 0.0366318 0)
(10.0287 0.0523974 0)
(10.0453 0.0691102 0)
(10.0644 0.0866452 0)
(10.0859 0.104913 0)
(10.1096 0.123847 0)
(10.1354 0.143337 0)
(10.1633 0.163222 0)
(10.1929 0.183319 0)
(10.2243 0.203438 0)
(10.2573 0.223391 0)
(10.2918 0.242989 0)
(10.3276 0.262049 0)
(10.3647 0.280406 0)
(10.4026 0.297865 0)
(10.4416 0.314439 0)
(10.0007 0.00463699 0)
(10.0064 0.0142913 0)
(10.0174 0.0249135 0)
(10.0327 0.0369699 0)
(10.051 0.0501993 0)
(10.0717 0.0642517 0)
(10.0947 0.078981 0)
(10.1199 0.0943381 0)
(10.1472 0.110222 0)
(10.1763 0.126467 0)
(10.207 0.142893 0)
(10.2392 0.15932 0)
(10.2728 0.175572 0)
(10.3077 0.191476 0)
(10.3435 0.206868 0)
(10.3803 0.221605 0)
(10.4178 0.235529 0)
(10.4559 0.248642 0)
(10.0009 0.00198462 0)
(10.0076 0.0067615 0)
(10.0202 0.0134361 0)
(10.0372 0.0222297 0)
(10.0569 0.0324299 0)
(10.0788 0.0435084 0)
(10.1029 0.055241 0)
(10.1293 0.0675375 0)
(10.1577 0.0802607 0)
(10.1877 0.0932407 0)
(10.2193 0.106316 0)
(10.2522 0.119336 0)
(10.2863 0.132165 0)
(10.3215 0.144673 0)
(10.3574 0.15673 0)
(10.3941 0.168223 0)
(10.4312 0.179022 0)
(10.4689 0.189124 0)
(10.0011 -0.000849396 0)
(10.0091 -0.000933739 0)
(10.0237 0.00239019 0)
(10.0424 0.00843882 0)
(10.0634 0.0158012 0)
(10.0862 0.024139 0)
(10.1113 0.0334279 0)
(10.1384 0.0435305 0)
(10.1674 0.0541844 0)
(10.198 0.0651688 0)
(10.23 0.0762901 0)
(10.2631 0.0873375 0)
(10.2974 0.0981536 0)
(10.3326 0.10862 0)
(10.3685 0.118636 0)
(10.4049 0.128113 0)
(10.4416 0.136954 0)
(10.4785 0.14514 0)
(10.0014 -0.00400739 0)
(10.0114 -0.0091248 0)
(10.0284 -0.00818209 0)
(10.0485 -0.00367916 0)
(10.0703 0.00139188 0)
(10.0942 0.00647424 0)
(10.1203 0.0123608 0)
(10.1485 0.0191399 0)
(10.1783 0.0264488 0)
(10.2096 0.0341587 0)
(10.242 0.0422219 0)
(10.2755 0.0504523 0)
(10.3099 0.0586682 0)
(10.3451 0.0666845 0)
(10.3809 0.0743863 0)
(10.4171 0.0817184 0)
(10.4535 0.0885906 0)
(10.4903 0.0949892 0)
(10.0018 -0.0074069 0)
(10.0148 -0.0180266 0)
(10.0349 -0.0196325 0)
(10.0562 -0.0157602 0)
(10.0778 -0.0103438 0)
(10.1016 -0.00444566 0)
(10.1282 0.00215546 0)
(10.1568 0.00924526 0)
(10.187 0.0164838 0)
(10.2187 0.0235338 0)
(10.2516 0.030305 0)
(10.2855 0.0369908 0)
(10.3202 0.0436283 0)
(10.3556 0.0500408 0)
(10.3914 0.0560653 0)
(10.4277 0.0616838 0)
(10.464 0.066859 0)
(10.5003 0.0715857 0)
(10.0023 -0.0109472 0)
(10.0184 -0.0246163 0)
(10.0423 -0.0308601 0)
(10.0662 -0.034713 0)
(10.0894 -0.0366859 0)
(10.1146 -0.0358833 0)
(10.1424 -0.0329201 0)
(10.1721 -0.0287094 0)
(10.2032 -0.0237682 0)
(10.2355 -0.0185245 0)
(10.2692 -0.0131909 0)
(10.304 -0.00773254 0)
(10.3396 -0.00225087 0)
(10.3756 0.00326878 0)
(10.412 0.00873985 0)
(10.4487 0.0139067 0)
(10.4855 0.0186296 0)
(10.5222 0.0230269 0)
(10.0037 -0.0184422 0)
(10.0275 -0.0206746 0)
(10.0593 -0.0102788 0)
(10.0922 -0.00590323 0)
(10.1268 -0.00627679 0)
(10.1642 -0.00691846 0)
(10.2037 -0.00678368 0)
(10.2439 -0.00612447 0)
(10.2843 -0.00507413 0)
(10.3247 -0.00348792 0)
(10.3651 -0.00134306 0)
(10.4054 0.00112225 0)
(10.4452 0.00372387 0)
(10.4845 0.00648251 0)
(10.5233 0.00933665 0)
(10.5612 0.012017 0)
(10.5986 0.014383 0)
(10.6351 0.0162759 0)
(10.0505 -0.0647246 0)
(10.172 -0.112865 0)
(10.2697 -0.115231 0)
(10.3425 -0.109527 0)
(10.4013 -0.103866 0)
(10.4507 -0.0975484 0)
(10.4917 -0.090706 0)
(10.5254 -0.083906 0)
(10.5534 -0.0773204 0)
(10.5773 -0.0708604 0)
(10.5984 -0.0645392 0)
(10.6176 -0.0584776 0)
(10.6355 -0.0526809 0)
(10.6526 -0.0472503 0)
(10.6693 -0.0422736 0)
(10.6857 -0.0377844 0)
(10.702 -0.0338004 0)
(10.7188 -0.0308621 0)
(9.87746 0.045695 0)
(9.64009 0.0283319 0)
(9.39849 0.00884089 0)
(9.15933 -0.00496476 0)
(8.93599 -0.014163 0)
(8.73365 -0.0194292 0)
(8.55177 -0.0219084 0)
(8.38898 -0.0226612 0)
(8.2444 -0.0223174 0)
(8.11722 -0.0212164 0)
(8.00642 -0.0196184 0)
(7.91068 -0.0177407 0)
(7.82857 -0.0157167 0)
(7.75865 -0.0136923 0)
(7.69938 -0.0117581 0)
(7.64941 -0.00997894 0)
(7.60695 -0.00842076 0)
(7.57178 -0.00752263 0)
(-0.389246 0.454538 -9.62192e-20)
(-0.969862 0.162259 8.91896e-20)
(-0.785494 -0.344113 0)
(0.0511202 -1.10664 0)
(1.06145 -1.55179 0)
(2.19889 -1.64602 -5.23815e-20)
(3.34051 -1.50472 0)
(4.34939 -1.2423 0)
(5.13521 -0.927708 0)
(5.66191 -0.592744 0)
(5.94991 -0.244708 4.89384e-20)
(5.98151 0.115776 0)
(5.73228 0.47312 0)
(5.22669 0.796148 0)
(4.49657 1.04053 0)
(3.58607 1.15539 5.55095e-20)
(2.57011 1.09411 0)
(1.54622 0.825827 0)
(0.664057 0.337156 0)
(0.129258 -0.196612 0)
(-0.15946 -0.434059 0)
(-0.219644 -0.539403 0)
(-0.0277453 -0.68627 0)
(0.371455 -0.856608 8.91176e-20)
(0.848477 -0.865091 -7.78958e-20)
(1.30522 -0.678982 7.23866e-20)
(1.62174 -0.431373 6.9986e-20)
(1.76171 -0.283582 0)
(1.75703 -0.33421 0)
(1.65027 -0.480907 -6.88617e-20)
(1.43487 -0.476528 -7.1797e-20)
(1.01353 -0.170747 0)
(0.280013 0.286998 0)
(-0.689737 0.64077 -6.957e-20)
(-1.77641 0.882112 0)
(-2.92606 1.03066 0)
(-4.08956 1.09875 4.71986e-20)
(-5.22412 1.10097 0)
(-6.29641 1.05284 4.47874e-20)
(-7.28272 0.969183 8.98914e-20)
(-8.16793 0.862963 0)
(-8.94395 0.74478 0)
(-9.60793 0.622804 0)
(-10.1608 0.50299 0)
(-10.606 0.3896 0)
(-10.9488 0.285819 9.7286e-20)
(-11.1952 0.193905 9.7727e-20)
(-11.3524 0.11547 9.77797e-20)
(-11.427 0.0518406 0)
(-11.426 0.00281919 -9.6269e-20)
(-11.3746 -0.0350588 0)
(-11.2759 -0.0666836 9.24385e-20)
(-11.1364 -0.0939955 8.98256e-20)
(-10.9603 -0.118119 0)
(-10.7509 -0.139651 0)
(-10.5113 -0.158996 0)
(-10.2438 -0.176491 7.52685e-20)
(-9.95047 -0.192448 0)
(-9.63298 -0.207164 0)
(-9.29256 -0.220905 0)
(-8.9301 -0.233898 0)
(-8.54622 -0.2463 0)
(-8.14135 -0.258183 0)
(-7.71594 -0.269509 0)
(-7.27061 -0.280129 0)
(-6.80637 -0.28978 -2.26047e-20)
(-6.32479 -0.298114 0)
(-5.82817 -0.304726 0)
(-5.31954 -0.309211 -9.98075e-22)
(-4.80271 -0.311219 -9.46835e-21)
(-4.28206 -0.310509 0)
(-3.76237 -0.30698 2.70923e-20)
(-3.2485 -0.300703 -3.6153e-20)
(-2.74512 -0.291925 0)
(-2.2565 -0.28103 5.45341e-20)
(-1.78625 -0.268406 0)
(-1.33748 -0.254174 0)
(-0.912842 -0.237936 -8.21139e-20)
(-0.51233 -0.220355 0)
(-0.136857 -0.20436 9.72752e-20)
(0.212095 -0.187743 0)
(0.539399 -0.170686 -9.23051e-20)
(0.843048 -0.154572 -8.84231e-20)
(1.12187 -0.138853 -8.4643e-20)
(1.37755 -0.123422 -1.62038e-19)
(1.61062 -0.111014 1.55697e-19)
(1.82271 -0.10204 0)
(2.01617 -0.0949221 0)
(2.19286 -0.0910366 0)
(2.35431 -0.0822261 1.35905e-19)
(2.49993 -0.0671924 1.3192e-19)
(2.62838 -0.0540741 -1.282e-19)
(2.74081 -0.0434525 0)
(2.83811 -0.0349736 1.2178e-19)
(2.92074 -0.0283124 1.19063e-19)
(2.98982 -0.0184244 1.16766e-19)
(3.03762 0.00773417 0)
(3.03451 0.0593008 0)
(2.97653 0.1155 0)
(2.86901 0.149922 1.11914e-19)
(2.72661 0.16035 0)
(2.56931 0.146479 0)
(2.41662 0.113977 -1.12396e-19)
(2.28455 0.0728964 0)
(2.18325 0.0324837 0)
(2.11647 -0.00199883 -1.11874e-19)
(2.08264 -0.0290863 0)
(2.07551 -0.0500969 0)
(2.08781 -0.066018 1.09339e-19)
(2.11279 -0.0768863 1.08239e-19)
(2.14603 -0.0848526 0)
(2.18531 -0.0912508 -1.06007e-19)
(2.23022 -0.0958837 0)
(2.28169 -0.0980997 1.03679e-19)
(2.34189 -0.097792 0)
(2.41426 -0.0957196 1.01088e-19)
(2.50303 -0.0926839 9.96625e-20)
(2.61117 -0.0855393 0)
(2.73757 -0.0689333 0)
(2.87369 -0.0462675 0)
(3.00358 -0.0259631 0)
(3.11029 -0.0196401 0)
(3.16021 -0.036063 0)
(3.07939 -0.0410453 0)
(2.69084 0.0581823 8.82031e-20)
(1.75805 0.319899 -8.13113e-20)
(0.240691 0.596547 0)
(-1.51499 0.697395 0)
(-3.1941 0.663082 0)
(-4.66821 0.563021 0)
(-5.87553 0.441247 1.2315e-19)
(-6.80514 0.320924 0)
(-7.46982 0.212373 -1.75118e-19)
(-7.88986 0.12003 1.87514e-19)
(-8.09026 0.044744 0)
(-8.09433 -0.015097 0)
(-7.95722 -0.0631834 0)
(-7.68635 -0.107057 -1.51864e-19)
(-7.28866 -0.148535 -1.23526e-19)
(-6.76836 -0.188062 0)
(-6.12936 -0.225578 -4.50203e-20)
(-5.377 -0.260667 4.99202e-21)
(-4.52013 -0.292201 -6.18724e-20)
(-3.57238 -0.318227 0)
(-2.55337 -0.337715 0)
(-1.48942 -0.350266 -2.67666e-19)
(-0.405225 -0.346758 0)
(0.683071 -0.331222 0)
(1.7423 -0.308019 0)
(2.73989 -0.279784 0)
(3.65298 -0.247523 2.73723e-19)
(4.46766 -0.21211 2.49332e-19)
(5.17453 -0.173224 0)
(5.76549 -0.136215 2.05507e-19)
(6.2451 -0.11189 0)
(6.64133 -0.0718142 0)
(6.8475 0.041703 1.63811e-19)
(6.6828 0.213532 0)
(6.12045 0.372353 1.53292e-19)
(5.22209 0.42848 0)
(4.15226 0.345726 0)
(3.14354 0.166931 1.38386e-19)
(2.38372 -0.0426707 0)
(1.94237 -0.218967 1.30538e-19)
(1.8129 -0.304001 0)
(1.89361 -0.304168 0)
(2.13905 -0.281095 0)
(2.59365 -0.262061 -1.58719e-19)
(3.21183 -0.192806 0)
(3.60992 -0.0600377 1.68552e-19)
(3.31094 0.128949 0)
(1.97776 0.390239 0)
(-0.285741 0.539197 0)
(-2.52599 0.497988 0)
(-4.20482 0.336272 0)
(-5.19198 0.158857 0)
(-5.47614 0.00744404 0)
(-5.20565 -0.109281 4.47e-19)
(-4.49752 -0.199376 0)
(-3.45093 -0.286731 0)
(-0.215219 1.23143 2.95371e-19)
(0.180366 0.765539 -2.74263e-19)
(1.3651 -1.30294 0)
(2.58307 -3.01143 1.00936e-19)
(3.65108 -3.7631 0)
(4.52693 -3.73647 3.35764e-20)
(5.21797 -3.271 -8.96965e-20)
(5.74429 -2.62536 -9.43543e-20)
(6.12464 -1.93764 0)
(6.38342 -1.26073 -1.04831e-19)
(6.52607 -0.604063 -4.53236e-20)
(6.58649 0.0451643 0)
(6.57751 0.6968 0)
(6.46134 1.33717 0)
(6.19389 1.92673 0)
(5.73813 2.39451 -3.92541e-20)
(5.08446 2.64582 0)
(4.264 2.58994 9.35244e-20)
(3.37142 2.18319 0)
(2.57067 1.53176 0)
(1.97899 0.841994 -1.31288e-19)
(1.54588 0.175683 0)
(1.44827 -0.506401 1.38895e-19)
(1.62726 -1.1787 -6.53366e-20)
(1.70943 -1.30221 6.43049e-20)
(1.65375 -0.993615 -6.97634e-20)
(1.41836 -0.534409 -7.45799e-20)
(0.895351 0.000174476 0)
(-0.0518221 0.592176 0)
(-1.28329 1.18805 5.91357e-20)
(-2.6231 1.74497 -4.99375e-20)
(-3.99273 2.22409 0)
(-5.32423 2.57231 0)
(-6.56512 2.7633 2.95213e-20)
(-7.68241 2.81191 0)
(-8.65895 2.74215 0)
(-9.48452 2.5825 -2.75496e-20)
(-10.1595 2.36171 0)
(-10.6931 2.10563 3.99879e-20)
(-11.1003 1.83523 -6.60023e-20)
(-11.3996 1.56593 0)
(-11.6101 1.30789 0)
(-11.7502 1.06684 -1.74419e-19)
(-11.8357 0.845269 -1.81565e-19)
(-11.8799 0.643519 -1.8761e-19)
(-11.8929 0.46091 1.01037e-19)
(-11.8824 0.296561 -9.34332e-20)
(-11.853 0.14998 -2.91932e-19)
(-11.8071 0.0212381 1.96532e-19)
(-11.7449 -0.090293 9.3964e-20)
(-11.6468 -0.186883 0)
(-11.5149 -0.272008 -9.01359e-20)
(-11.3487 -0.347613 9.1519e-20)
(-11.15 -0.415096 0)
(-10.921 -0.475481 0)
(-10.6641 -0.529661 0)
(-10.3811 -0.578497 -7.29148e-20)
(-10.0741 -0.622856 0)
(-9.74426 -0.663588 1.30081e-19)
(-9.39279 -0.701488 0)
(-9.02031 -0.737227 1.09007e-19)
(-8.62717 -0.771284 0)
(-8.21352 -0.803868 -8.56669e-20)
(-7.77952 -0.834865 0)
(-7.32548 -0.863807 5.99326e-20)
(-6.85216 -0.88988 -2.46741e-20)
(-6.36096 -0.911994 0)
(-5.85411 -0.928899 -1.67129e-20)
(-5.33473 -0.93935 9.39373e-22)
(-4.80678 -0.942287 8.88794e-21)
(-4.27491 -0.937006 0)
(-3.74421 -0.92327 2.27598e-20)
(-3.21983 -0.901359 3.37259e-20)
(-2.70665 -0.872075 0)
(-2.20912 -0.836606 -5.07548e-20)
(-1.73099 -0.796157 1.16702e-19)
(-1.27515 -0.751662 0)
(-0.843224 -0.704329 7.64257e-20)
(-0.435616 -0.65676 0)
(-0.0532647 -0.609112 -2.67731e-19)
(0.30358 -0.561364 0)
(0.636757 -0.516506 2.54497e-19)
(0.945456 -0.473512 8.21072e-20)
(1.23056 -0.432662 -7.82842e-20)
(1.4938 -0.393868 -1.50982e-19)
(1.73658 -0.357016 1.45813e-19)
(1.96 -0.322356 0)
(2.16492 -0.290092 0)
(2.35171 -0.260398 0)
(2.5216 -0.234018 -3.88001e-19)
(2.67658 -0.209946 -1.26047e-19)
(2.81846 -0.187055 1.22691e-19)
(2.94773 -0.164659 0)
(3.06458 -0.142514 1.16147e-19)
(3.169 -0.120247 -1.14125e-19)
(3.25997 -0.0951702 -1.118e-19)
(3.34434 -0.0620609 0)
(3.44707 -0.0215246 0)
(3.56549 0.0236671 0)
(3.68448 0.0699562 -1.01275e-19)
(3.78935 0.109927 0)
(3.87122 0.135418 1.91991e-19)
(3.92814 0.142495 2.82484e-19)
(3.96363 0.13245 -1.85452e-19)
(3.98386 0.110102 0)
(3.99507 0.0822059 -9.09789e-20)
(4.00055 0.0561163 0)
(4.00141 0.036726 -1.78957e-19)
(4.0006 0.0246925 8.88719e-20)
(3.99982 0.0185295 8.82996e-20)
(3.99601 0.0163598 0)
(3.98533 0.0156331 2.62781e-19)
(3.96471 0.0128718 -1.74955e-19)
(3.93331 0.00436658 -8.74154e-20)
(3.89411 -0.012513 0)
(3.85449 -0.0382406 -8.73114e-20)
(3.82577 -0.071124 -2.6126e-19)
(3.82218 -0.10766 0)
(3.85591 -0.140871 -1.72304e-19)
(3.92835 -0.159334 -1.71348e-19)
(4.01916 -0.150161 -1.717e-19)
(4.06202 -0.0926994 0)
(3.86488 0.0803544 0)
(3.03119 0.493262 0)
(1.28389 1.15553 7.99724e-20)
(-0.950456 1.70956 6.35672e-20)
(-3.01019 1.90112 0)
(-4.65743 1.80406 6.40535e-21)
(-5.86094 1.5467 -4.17595e-20)
(-6.68914 1.23852 0)
(-7.23275 0.939222 -1.0957e-19)
(-7.5745 0.671511 -3.1347e-19)
(-7.77612 0.438783 1.70009e-19)
(-7.87748 0.237976 2.04716e-19)
(-7.89696 0.0646198 0)
(-7.83732 -0.0864303 0)
(-7.65654 -0.220367 0)
(-7.35556 -0.344825 1.50942e-19)
(-6.93569 -0.462552 -1.33621e-19)
(-6.3994 -0.574339 -1.84125e-19)
(-5.74964 -0.679824 4.3763e-20)
(-4.99093 -0.777702 -7.77046e-21)
(-4.13107 -0.865371 5.90905e-20)
(-3.18305 -0.938365 0)
(-2.16643 -0.992042 0)
(-1.10442 -1.02323 -2.34987e-19)
(-0.0200661 -1.02191 0)
(1.06261 -0.988294 0)
(2.11447 -0.930954 5.60521e-19)
(3.10654 -0.855941 0)
(4.01783 -0.767848 2.43933e-19)
(4.83449 -0.672204 -2.31076e-19)
(5.55023 -0.573582 0)
(6.16841 -0.475319 1.89375e-19)
(6.68343 -0.379839 0)
(7.07123 -0.273077 0)
(7.44226 -0.123454 -1.541e-19)
(7.91959 0.0847636 2.77808e-19)
(8.36568 0.341753 -1.29372e-19)
(8.59309 0.582556 0)
(8.51574 0.721855 0)
(8.19903 0.71993 9.39287e-20)
(7.76997 0.607434 0)
(7.27396 0.450226 9.06276e-20)
(6.605 0.291306 0)
(5.78598 0.131181 0)
(5.0575 -0.0868517 0)
(4.63298 -0.331264 1.37853e-19)
(4.53264 -0.37062 0)
(4.46473 0.0235124 -1.55755e-19)
(3.43357 0.735712 0)
(0.95777 1.40982 0)
(-1.58902 1.54069 -3.68788e-20)
(-3.31412 1.27353 2.25675e-19)
(-4.36191 0.838659 0)
(-4.91743 0.391086 0)
(-5.08678 -0.0140014 0)
(-4.82858 -0.355472 -1.35615e-18)
(-4.16283 -0.622312 0)
(-3.19246 -0.839456 4.87428e-19)
(0.0256128 1.07813 3.63421e-21)
(1.34195 -1.99846 2.52005e-19)
(2.74241 -4.66472 0)
(3.78559 -5.68918 -1.67362e-19)
(4.37021 -5.49015 0)
(4.63294 -4.70687 0)
(4.74757 -3.75988 -1.97616e-20)
(4.81622 -2.83969 1.01905e-19)
(4.8735 -1.99812 1.31063e-19)
(4.92415 -1.22766 1.21782e-19)
(4.96147 -0.505085 0)
(4.98335 0.192027 0)
(4.99817 0.886957 -1.4204e-19)
(5.00383 1.60399 -2.65623e-19)
(4.98615 2.341 2.45124e-19)
(4.90392 3.03793 0)
(4.70049 3.5693 2.05694e-19)
(4.33604 3.78092 -8.67205e-20)
(3.81479 3.55319 0)
(3.20817 2.86573 1.90968e-19)
(2.57729 1.92292 1.1077e-19)
(2.10338 0.968724 -2.33802e-19)
(1.98317 -0.141161 -1.31432e-19)
(1.68759 -0.959129 0)
(0.891535 -0.631414 3.09964e-19)
(-0.257015 0.552574 3.01595e-19)
(-1.58138 1.53852 0)
(-2.96329 2.38473 1.7878e-19)
(-4.36162 3.10617 0)
(-5.69592 3.66649 1.35209e-19)
(-6.90334 4.04891 5.66349e-20)
(-7.93699 4.25859 0)
(-8.77176 4.30373 0)
(-9.41217 4.19687 0)
(-9.88219 3.96379 0)
(-10.2153 3.63967 0)
(-10.4486 3.26102 0)
(-10.6178 2.86053 1.52241e-19)
(-10.7521 2.46372 -2.30778e-19)
(-10.8724 2.08782 0)
(-10.9905 1.74223 0)
(-11.1097 1.43012 0)
(-11.2274 1.15048 -1.45998e-20)
(-11.3374 0.899978 1.85896e-19)
(-11.4318 0.674327 3.95293e-19)
(-11.5031 0.469119 -4.03149e-19)
(-11.5442 0.280545 -2.09181e-19)
(-11.5504 0.105541 2.00882e-19)
(-11.5194 -0.0581578 8.69107e-21)
(-11.4515 -0.211785 2.03475e-19)
(-11.3484 -0.354579 0)
(-11.2125 -0.48524 1.92597e-19)
(-11.0458 -0.603872 6.26174e-21)
(-10.85 -0.710991 0)
(-10.6273 -0.807439 0)
(-10.3794 -0.894276 -1.6207e-19)
(-10.1083 -0.972736 0)
(-9.81522 -1.04418 0)
(-9.50137 -1.11002 1.37854e-19)
(-9.16728 -1.17161 2.45631e-19)
(-8.81311 -1.23012 -1.07292e-19)
(-8.4386 -1.2864 0)
(-8.04321 -1.34085 8.37704e-20)
(-7.62633 -1.39325 0)
(-7.18756 -1.44276 6.82312e-20)
(-6.72698 -1.48789 4.46386e-20)
(-6.24553 -1.5266 -7.12654e-20)
(-5.74519 -1.55656 -2.59646e-20)
(-5.22919 -1.57543 0)
(-4.7019 -1.5812 -1.93517e-20)
(-4.16866 -1.57254 0)
(-3.63536 -1.54903 -1.29373e-19)
(-3.10799 -1.5112 -1.16391e-19)
(-2.5922 -1.46045 -1.49391e-19)
(-2.09295 -1.3989 1.82477e-19)
(-1.61424 -1.32897 -3.26224e-19)
(-1.15894 -1.25314 0)
(-0.728772 -1.17391 0)
(-0.324199 -1.09364 3.14086e-19)
(0.0544529 -1.01399 4.94342e-19)
(0.407387 -0.935577 0)
(0.735797 -0.860438 -1.57865e-19)
(1.03951 -0.788996 0)
(1.31989 -0.72143 4.43593e-19)
(1.57848 -0.657863 2.32231e-21)
(1.81672 -0.598535 -2.05727e-21)
(2.0359 -0.543794 -2.70024e-19)
(2.23716 -0.493548 0)
(2.42152 -0.447336 2.55314e-19)
(2.59004 -0.404022 1.28317e-21)
(2.74401 -0.362635 0)
(2.88459 -0.323337 0)
(3.01259 -0.286277 0)
(3.12881 -0.250911 -2.26916e-19)
(3.23409 -0.216083 0)
(3.32892 -0.18191 0)
(3.41323 -0.150371 0)
(3.48941 -0.118942 0)
(3.56424 -0.0841795 0)
(3.64604 -0.0459292 -2.01979e-19)
(3.73688 -0.00889076 0)
(3.83215 0.0202573 -1.93113e-19)
(3.92331 0.0361989 -1.88487e-19)
(4.00181 0.0372198 1.8462e-19)
(4.0625 0.0255505 0)
(4.10497 0.00601624 1.79274e-19)
(4.13329 -0.0162311 0)
(4.15309 -0.0363724 1.75707e-19)
(4.16886 -0.0504378 -1.74099e-19)
(4.18477 -0.0586723 -5.18194e-19)
(4.20496 -0.0611359 0)
(4.23097 -0.0576788 -5.10974e-19)
(4.26102 -0.0493766 -1.69281e-19)
(4.28935 -0.039122 0)
(4.30706 -0.0321629 -3.35843e-19)
(4.30733 -0.0360688 -3.34843e-19)
(4.29395 -0.0584708 5.00222e-19)
(4.28416 -0.100597 0)
(4.29446 -0.149323 1.65327e-19)
(4.31177 -0.17326 1.66801e-19)
(4.26021 -0.114578 5.0883e-19)
(3.9386 0.155406 0)
(2.99459 0.806646 0)
(1.17257 1.8218 0)
(-1.03698 2.70595 9.62019e-20)
(-2.86758 3.0641 0)
(-4.14987 2.95784 0)
(-4.99307 2.57263 -5.98793e-21)
(-5.57141 2.0857 4.10588e-20)
(-6.02408 1.61305 0)
(-6.41347 1.20039 0)
(-6.74512 0.85103 3.24147e-19)
(-6.9998 0.552056 0)
(-7.15609 0.288704 -4.07804e-19)
(-7.20073 0.0496129 -4.40661e-19)
(-7.12864 -0.17346 0)
(-6.94116 -0.384723 0)
(-6.64052 -0.584751 3.36884e-19)
(-6.22805 -0.775148 -1.79532e-20)
(-5.70521 -0.956539 -1.81646e-20)
(-5.07388 -1.12809 0)
(-4.33759 -1.28714 2.4829e-20)
(-3.50313 -1.42904 0)
(-2.58244 -1.54704 0)
(-1.59416 -1.63371 0)
(-0.561171 -1.68062 4.46355e-19)
(0.492249 -1.67609 0)
(1.53944 -1.62216 -9.94897e-19)
(2.55186 -1.52968 -5.03955e-19)
(3.50245 -1.40664 0)
(4.3718 -1.26179 -4.5737e-19)
(5.14784 -1.1046 0)
(5.82466 -0.943935 0)
(6.40196 -0.785098 -1.08371e-18)
(6.88727 -0.627308 6.64953e-19)
(7.28889 -0.473137 0)
(7.60136 -0.325875 5.81616e-19)
(7.85274 -0.161 -2.80832e-19)
(8.16834 0.0574982 0)
(8.61267 0.320378 0)
(9.09314 0.550568 0)
(9.46615 0.66376 -5.2301e-19)
(9.64509 0.646218 0)
(9.59108 0.574589 -1.53228e-19)
(9.27419 0.54113 0)
(8.7125 0.532774 0)
(7.9681 0.417826 0)
(7.00325 0.138387 0)
(5.88676 0.00166639 0)
(4.71928 0.525773 0)
(3.04978 1.61573 -4.64083e-19)
(0.757406 2.45615 0)
(-1.04703 2.43513 3.48795e-20)
(-2.34197 1.90292 -7.5435e-19)
(-3.37483 1.25402 0)
(-4.07211 0.607873 0)
(-4.32678 -0.00344741 1.14716e-18)
(-4.12445 -0.543497 9.21442e-19)
(-3.54154 -0.969683 -7.47439e-19)
(-2.70242 -1.27186 -4.69624e-19)
(0.626238 -1.50889 -4.96605e-19)
(1.96525 -5.60696 -3.04288e-19)
(2.92124 -6.93648 -1.95077e-19)
(3.31781 -6.47562 -1.20666e-19)
(3.33264 -5.43539 0)
(3.24295 -4.39223 2.67739e-19)
(3.19154 -3.48904 -1.64117e-19)
(3.19426 -2.69692 0)
(3.22063 -1.95833 -1.61421e-19)
(3.24362 -1.23945 0)
(3.24813 -0.531233 4.04046e-19)
(3.23953 0.169578 0)
(3.2249 0.876902 1.7973e-19)
(3.20057 1.61499 3.32417e-19)
(3.17358 2.40305 -3.02094e-19)
(3.13687 3.20961 0)
(3.0507 3.91295 -2.41306e-19)
(2.86348 4.32164 0)
(2.5464 4.26819 0)
(2.10502 3.7665 -2.08013e-19)
(1.65691 2.84961 0)
(1.46035 1.18914 6.42648e-21)
(0.960519 0.0405516 0)
(-0.488165 0.957932 0)
(-2.09568 2.17212 -7.67254e-22)
(-3.64417 3.24531 -1.49739e-19)
(-5.06707 4.1023 -1.34943e-19)
(-6.3203 4.75071 -1.16301e-19)
(-7.37094 5.18171 0)
(-8.20372 5.39415 -2.26792e-19)
(-8.82337 5.4109 0)
(-9.25178 5.26818 -1.28416e-19)
(-9.52437 5.00303 0)
(-9.68562 4.6515 0)
(-9.78137 4.2497 1.50818e-19)
(-9.85198 3.82955 0)
(-9.9267 3.41453 -1.68773e-19)
(-10.0214 3.01843 2.09574e-20)
(-10.1397 2.64651 3.52328e-19)
(-10.2767 2.29832 -3.88621e-19)
(-10.4223 1.9707 0)
(-10.5655 1.66003 0)
(-10.6959 1.36352 -2.31367e-19)
(-10.8051 1.07964 0)
(-10.8873 0.808061 -2.09891e-19)
(-10.9385 0.54935 2.14224e-19)
(-10.9566 0.304441 2.17432e-19)
(-10.9409 0.0740116 0)
(-10.8915 -0.141643 -2.15323e-19)
(-10.8097 -0.342352 -2.10734e-19)
(-10.6971 -0.528182 4.29476e-19)
(-10.5557 -0.698878 -1.98866e-19)
(-10.3879 -0.854464 -1.91708e-19)
(-10.1963 -0.99538 0)
(-9.98317 -1.12252 0)
(-9.75083 -1.2372 1.66087e-19)
(-9.50099 -1.3411 0)
(-9.23485 -1.43614 0)
(-8.95295 -1.52438 -2.70932e-19)
(-8.65512 -1.60786 -2.48704e-19)
(-8.34052 -1.68837 0)
(-8.00766 -1.76725 0)
(-7.65463 -1.84516 0)
(-7.27926 -1.92182 0)
(-6.87955 -1.9959 -1.25166e-19)
(-6.45412 -2.06502 1.11404e-19)
(-6.00265 -2.12585 6.98857e-20)
(-5.52636 -2.17448 9.54064e-20)
(-5.02826 -2.20699 0)
(-4.51315 -2.21998 1.23012e-20)
(-3.98731 -2.21117 0)
(-3.45796 -2.1798 8.07054e-20)
(-2.93252 -2.12674 9.86781e-21)
(-2.41796 -2.05432 1.43909e-19)
(-1.92021 -1.96591 -1.75724e-19)
(-1.4439 -1.86535 7.78878e-21)
(-0.992329 -1.75659 0)
(-0.567364 -1.64367 -2.64163e-19)
(-0.169121 -1.52941 -2.96982e-19)
(0.20237 -1.41617 -6.0292e-19)
(0.547978 -1.30568 0)
(0.868301 -1.20012 2.8876e-19)
(1.16411 -1.10014 0)
(1.43691 -1.00606 -5.56648e-19)
(1.68829 -0.918043 2.73274e-19)
(1.91977 -0.836095 -2.66527e-19)
(2.13272 -0.760089 2.59896e-19)
(2.32833 -0.689731 5.02554e-19)
(2.50764 -0.624606 -2.47266e-19)
(2.67169 -0.564152 2.41373e-19)
(2.82168 -0.50779 0)
(2.95882 -0.455106 -4.58198e-19)
(3.08405 -0.405644 0)
(3.19814 -0.358866 -4.39559e-19)
(3.30198 -0.314189 4.3116e-19)
(3.3969 -0.270908 4.23331e-19)
(3.48429 -0.227978 -4.16008e-19)
(3.56544 -0.18403 -4.0914e-19)
(3.64183 -0.140022 0)
(3.71489 -0.0993694 -1.97267e-19)
(3.78574 -0.0646793 0)
(3.85492 -0.0376556 0)
(3.92163 -0.0190183 -3.75782e-19)
(3.98353 -0.00826456 0)
(4.03773 -0.00390408 0)
(4.08187 -0.00404515 -3.58519e-19)
(4.11524 -0.00757376 0)
(4.14011 -0.0144149 0)
(4.15954 -0.0231438 0)
(4.17622 -0.0318895 6.88301e-19)
(4.19371 -0.0394967 0)