/*--------------------------------*- C++ -*----------------------------------*\
  =========                 |
  \\      /  F ield         | OpenFOAM: The Open Source CFD Toolbox
   \\    /   O peration     | Website:  https://openfoam.org
    \\  /    A nd           | Version:  9
     \\/     M anipulation  |
\*---------------------------------------------------------------------------*/
FoamFile
{
    format      ascii;
    class       volScalarField;
    location    "0.098";
    object      k;
}
// * * * * * * * * * * * * * * * * * * * * * * * * * * * * * * * * * * * * * //

dimensions      [0 2 -2 0 0 0 0];

internalField   nonuniform List<scalar> 
12225
(
6.82958e-05
4.42755e-05
3.56702e-05
5.31133e-05
8.42476e-05
9.3058e-05
9.21246e-05
7.96783e-05
5.51908e-05
4.02412e-05
3.30597e-05
3.05477e-05
3.01346e-05
3.03419e-05
3.05896e-05
3.05191e-05
2.82646e-05
2.85309e-05
2.07461e-05
2.08489e-05
2.15336e-05
2.60022e-05
3.17682e-05
3.40958e-05
3.48328e-05
3.47494e-05
3.37702e-05
3.11603e-05
2.89054e-05
2.75935e-05
2.70486e-05
2.69497e-05
2.70092e-05
2.76155e-05
2.80887e-05
2.83183e-05
2.00243e-05
1.91337e-05
1.89538e-05
1.90729e-05
1.90748e-05
1.85556e-05
1.67067e-05
1.53587e-05
1.47779e-05
1.45957e-05
1.46255e-05
1.48384e-05
1.56999e-05
1.70948e-05
1.80105e-05
1.87758e-05
1.94587e-05
2.02713e-05
2.06517e-05
2.05446e-05
2.00503e-05
1.98747e-05
1.97331e-05
1.95475e-05
1.93246e-05
1.89908e-05
1.82348e-05
1.6788e-05
1.60659e-05
1.60162e-05
1.62073e-05
1.67246e-05
1.69838e-05
1.70366e-05
1.6954e-05
1.67226e-05
2.56184e-05
2.30988e-05
2.1243e-05
2.06079e-05
2.05846e-05
2.1006e-05
2.22137e-05
2.27703e-05
2.28362e-05
2.27054e-05
2.23499e-05
2.21721e-05
2.21233e-05
2.21334e-05
2.21342e-05
2.20935e-05
2.18845e-05
2.14014e-05
3.43038e-05
3.03606e-05
2.53314e-05
2.24314e-05
2.19653e-05
2.22924e-05
2.36437e-05
2.43149e-05
2.43759e-05
2.41305e-05
2.33e-05
2.27271e-05
2.24288e-05
2.23021e-05
2.22829e-05
2.22697e-05
2.21298e-05
2.19153e-05
2.78158e-05
2.57395e-05
2.24509e-05
2.25933e-05
2.48211e-05
2.72899e-05
2.76395e-05
2.70477e-05
2.64713e-05
2.54576e-05
2.38569e-05
2.27652e-05
2.22757e-05
2.21474e-05
2.21821e-05
2.2537e-05
2.28232e-05
2.27854e-05
2.48209e-05
2.70033e-05
2.55241e-05
2.22532e-05
2.09438e-05
2.05976e-05
2.06299e-05
2.12108e-05
2.21848e-05
2.22395e-05
2.18373e-05
2.16306e-05
2.16077e-05
2.15127e-05
2.15451e-05
2.20001e-05
2.2236e-05
2.20693e-05
2.04797e-05
2.09263e-05
2.08413e-05
2.0559e-05
2.04392e-05
2.04371e-05
2.0531e-05
2.11407e-05
2.46463e-05
2.90395e-05
2.89844e-05
2.61856e-05
2.43978e-05
2.40467e-05
2.43261e-05
2.60249e-05
2.69447e-05
2.6498e-05
2.0305e-05
2.14407e-05
2.19723e-05
2.20116e-05
2.15469e-05
2.09386e-05
2.07749e-05
2.07917e-05
2.10362e-05
2.14195e-05
2.17279e-05
2.22578e-05
2.35749e-05
2.71808e-05
3.06171e-05
3.19703e-05
3.18431e-05
2.99372e-05
2.0186e-05
2.21555e-05
2.79929e-05
3.66045e-05
3.61863e-05
2.89206e-05
2.39851e-05
2.23804e-05
2.19284e-05
2.18372e-05
2.18416e-05
2.1923e-05
2.22645e-05
2.34374e-05
2.74779e-05
4.2116e-05
5.69499e-05
6.17479e-05
2.02581e-05
2.27889e-05
2.98815e-05
3.43774e-05
3.37648e-05
2.91115e-05
2.43843e-05
2.23242e-05
2.13931e-05
2.1e-05
2.08733e-05
2.08616e-05
2.09223e-05
2.12451e-05
2.24243e-05
2.58854e-05
3.60909e-05
6.60237e-05
2.03358e-05
2.24918e-05
3.17492e-05
4.61092e-05
4.97858e-05
4.34002e-05
3.05982e-05
2.48183e-05
2.24423e-05
2.15429e-05
2.12605e-05
2.1215e-05
2.12599e-05
2.15336e-05
2.24408e-05
2.57102e-05
3.18974e-05
4.02892e-05
2.55578e-05
2.43922e-05
2.61346e-05
3.52536e-05
4.25469e-05
4.21177e-05
3.76762e-05
3.08164e-05
2.61948e-05
2.35727e-05
2.23545e-05
2.19378e-05
2.18703e-05
2.19514e-05
2.24838e-05
2.48593e-05
2.98079e-05
3.42363e-05
2.07358e-05
2.11e-05
2.1273e-05
2.14799e-05
2.15624e-05
2.15265e-05
2.13447e-05
2.09933e-05
2.0781e-05
2.07417e-05
2.08176e-05
2.1249e-05
2.14918e-05
2.14809e-05
2.15189e-05
2.18149e-05
2.20205e-05
2.22357e-05
2.03235e-05
2.0221e-05
2.04811e-05
2.12866e-05
2.23244e-05
2.27949e-05
2.28714e-05
2.27461e-05
2.21925e-05
2.19089e-05
2.1741e-05
2.135e-05
2.10285e-05
2.08969e-05
2.08671e-05
2.08778e-05
2.09666e-05
2.12884e-05
2.02555e-05
2.05071e-05
2.06388e-05
2.08497e-05
2.14699e-05
2.37966e-05
2.72733e-05
2.878e-05
2.87822e-05
2.80857e-05
2.71102e-05
2.60829e-05
2.46992e-05
2.35564e-05
2.29391e-05
2.26855e-05
2.26254e-05
2.26292e-05
2.11058e-05
2.18184e-05
2.16626e-05
2.16026e-05
2.18392e-05
2.31395e-05
2.42037e-05
2.45436e-05
2.45489e-05
2.44318e-05
2.44115e-05
2.45259e-05
2.51936e-05
2.57696e-05
2.5795e-05
2.53904e-05
2.4343e-05
2.37851e-05
2.04661e-05
2.06794e-05
2.06085e-05
2.04684e-05
2.04349e-05
2.0459e-05
2.06488e-05
2.10919e-05
2.13176e-05
2.14379e-05
2.16277e-05
2.21263e-05
2.39765e-05
2.5856e-05
2.63947e-05
2.61945e-05
2.49368e-05
2.37368e-05
2.07354e-05
2.08051e-05
2.10502e-05
2.11819e-05
2.12171e-05
2.1342e-05
2.16326e-05
2.17405e-05
2.17246e-05
2.15396e-05
2.14508e-05
2.14954e-05
2.18766e-05
2.22032e-05
2.22089e-05
2.2046e-05
2.17029e-05
2.14347e-05
2.09204e-05
2.08255e-05
2.07054e-05
2.07898e-05
2.10513e-05
2.16937e-05
2.25366e-05
2.29659e-05
2.29933e-05
2.26248e-05
2.17323e-05
2.13728e-05
2.1339e-05
2.15217e-05
2.21361e-05
2.24365e-05
2.24656e-05
2.23352e-05
2.05925e-05
2.08369e-05
2.08456e-05
2.08377e-05
2.08809e-05
2.11749e-05
2.17124e-05
2.17118e-05
2.14371e-05
2.09599e-05
2.0766e-05
2.07467e-05
2.08305e-05
2.12944e-05
2.19155e-05
2.22828e-05
2.24549e-05
2.24994e-05
2.02223e-05
2.06623e-05
2.10693e-05
2.18047e-05
2.23586e-05
2.24549e-05
2.20362e-05
2.12129e-05
2.0814e-05
2.06912e-05
2.06874e-05
2.07734e-05
2.09784e-05
2.11092e-05
2.12641e-05
2.15791e-05
2.23398e-05
2.30706e-05
2.02867e-05
2.04213e-05
2.17988e-05
2.64785e-05
2.83974e-05
2.79679e-05
2.56242e-05
2.38068e-05
2.30052e-05
2.27786e-05
2.28002e-05
2.31986e-05
2.40795e-05
2.42402e-05
2.39527e-05
2.33365e-05
2.30246e-05
2.29415e-05
2.22728e-05
2.06634e-05
2.04575e-05
2.1076e-05
2.23124e-05
2.30763e-05
2.33079e-05
2.32845e-05
2.29175e-05
2.19074e-05
2.12578e-05
2.09878e-05
2.09289e-05
2.0944e-05
2.10518e-05
2.11638e-05
2.12229e-05
2.12619e-05
2.09199e-05
2.07378e-05
2.06754e-05
2.073e-05
2.102e-05
2.25208e-05
2.54917e-05
2.64185e-05
2.63847e-05
2.55157e-05
2.32711e-05
2.18555e-05
2.12026e-05
2.10077e-05
2.10063e-05
2.11848e-05
2.18453e-05
2.24063e-05
2.02327e-05
2.01724e-05
2.00058e-05
1.99745e-05
2.00198e-05
2.03166e-05
2.0456e-05
2.03732e-05
1.98674e-05
1.9522e-05
1.93023e-05
1.88635e-05
1.80207e-05
1.70163e-05
1.62009e-05
1.58143e-05
1.57817e-05
1.6024e-05
2.00164e-05
1.5966e-05
1.63683e-05
1.70188e-05
1.68781e-05
1.54342e-05
1.3789e-05
1.34001e-05
1.34719e-05
1.3989e-05
1.44569e-05
1.45154e-05
1.43728e-05
1.37802e-05
1.32619e-05
1.3019e-05
1.29562e-05
1.29671e-05
2.06407e-05
2.22725e-05
2.22133e-05
2.12396e-05
2.07522e-05
2.09419e-05
2.26001e-05
2.97981e-05
3.90555e-05
4.28244e-05
4.30847e-05
4.16441e-05
3.58151e-05
3.02786e-05
2.73057e-05
2.61888e-05
2.60799e-05
2.6339e-05
7.32005e-05
7.67541e-05
5.88484e-05
3.55757e-05
2.96242e-05
3.32736e-05
6.23095e-05
0.000107575
0.000124968
0.000126247
0.000117182
8.33681e-05
5.84188e-05
4.80449e-05
4.5769e-05
4.65801e-05
5.34035e-05
7.52232e-05
0.0583486
0.0801376
0.0803202
0.076959
0.0770758
0.0805471
0.0862994
0.0920112
0.0932985
0.0922528
0.0904662
0.0892675
0.0883342
0.0873176
0.0865656
0.0856905
0.0851692
0.0840736
0.0832981
0.0826662
0.0815173
0.0810035
0.0797761
0.0793702
0.0795713
0.0800545
0.0810335
0.0820361
0.082605
0.0836952
0.085318
0.0855624
0.0851202
0.0850816
0.0850811
0.0834022
0.0773965
0.0747588
0.0745873
0.0753603
0.0782004
0.0847762
0.102237
0.165303
0.223417
0.315431
0.402431
0.443679
0.416862
0.255166
0.14319
0.113611
0.109122
0.12433
0.141532
0.153967
0.157064
0.157386
0.15366
0.145136
0.136067
0.127843
0.118854
0.108559
0.0967745
0.0842887
0.0717007
0.0592717
0.0479657
0.0380726
0.0307316
0.0275863
0.02625
0.0256156
0.0252859
0.0250316
0.0247362
0.0243593
0.0239111
0.0234283
0.0229558
0.0225232
0.0221479
0.0219437
0.0218982
0.0219051
0.0219465
0.0220528
0.0222841
0.0227201
0.0234469
0.0245563
0.026131
0.0282062
0.0307431
0.0335905
0.0364153
0.0384479
0.0393272
0.0397485
0.0399997
0.0404019
0.0418168
0.0445178
0.0465358
0.0474479
0.0477862
0.0470913
0.0466816
0.048522
0.0506055
0.0488682
0.0496726
0.086191
0.318223
0.526107
0.545909
0.397397
0.161557
0.0773383
0.0501206
0.0385002
0.0330977
0.0303621
0.0284056
0.0268041
0.0253828
0.0238486
0.0227625
0.0212377
0.0204855
0.0194139
0.0188529
0.0186042
0.0185887
0.0187086
0.0188537
0.01907
0.0193476
0.0196674
0.020067
0.0205053
0.0210331
0.0216115
0.0223039
0.0230179
0.0237584
0.0244025
0.0250267
0.0256025
0.0260803
0.026436
0.0266599
0.0267651
0.0267776
0.0267526
0.0266272
0.0264085
0.0260987
0.0257264
0.0254565
0.0251565
0.0248
0.0246288
0.0245992
0.0245986
0.0246345
0.0247015
0.0247753
0.0249488
0.0252593
0.0259783
0.0262224
0.0235208
0.0118577
0.0107849
0.0188724
0.0269836
0.0221451
0.0126294
0.0464701
0.0321799
0.0481974
0.0562602
0.0620804
0.0680073
0.075484
0.0816436
0.0865132
0.0889066
0.089106
0.0892289
0.0893967
0.089497
0.0894677
0.0892897
0.0887436
0.0876886
0.0865643
0.0849539
0.0827968
0.0806368
0.0786843
0.076077
0.0733732
0.0716869
0.0702209
0.0680371
0.0664759
0.0663135
0.0666212
0.0676186
0.069189
0.0732193
0.0786459
0.0802001
0.0800085
0.0791556
0.0755775
0.0679281
0.0633439
0.0627514
0.0676075
0.0971262
0.116351
0.130819
0.221643
0.327247
0.198745
0.137067
0.112619
0.0977895
0.0936741
0.093401
0.0866205
0.0809597
0.0698299
0.0596661
0.0501673
0.0429932
0.0355485
0.0308302
0.0256471
0.0224998
0.0194359
0.0177848
0.0159936
0.0152095
0.0146258
0.0143637
0.0142274
0.0141063
0.0140002
0.0139586
0.0139355
0.0139187
0.0139009
0.0138768
0.0138367
0.0137689
0.0136881
0.0135926
0.0135546
0.013544
0.0135415
0.0135463
0.0135704
0.0136317
0.0137457
0.0139228
0.0141661
0.0144545
0.0147566
0.0151181
0.0156762
0.016548
0.0176514
0.0180363
0.0180142
0.0177224
0.0175738
0.0176046
0.0185472
0.0207441
0.0226784
0.0244071
0.0247459
0.0232383
0.0231086
0.0317941
0.0577779
0.0594664
0.0571698
0.0648624
0.0978807
0.220077
0.308422
0.255101
0.114801
0.0604577
0.039431
0.0298205
0.0247152
0.0215993
0.0193433
0.0176919
0.0164013
0.0152051
0.0144431
0.0134985
0.0130056
0.0123329
0.0119887
0.0116391
0.0114526
0.0113689
0.0113559
0.0114331
0.0115582
0.0117639
0.0120489
0.0124103
0.0128659
0.0133645
0.0138736
0.0144902
0.0150002
0.015568
0.0159751
0.01632
0.0166647
0.0170006
0.0172769
0.0174988
0.0176542
0.0177939
0.0179284
0.0181337
0.0183168
0.0184409
0.0186417
0.018695
0.0188117
0.0188279
0.0187984
0.0186704
0.0184157
0.0183409
0.0182519
0.0183596
0.0187042
0.0193348
0.0223493
0.0231689
0.0219908
0.0191865
0.0231562
0.0244074
0.0202855
0.017041
0.036814
0.0369527
0.0475542
0.0534905
0.0562037
0.0620896
0.0686553
0.0736411
0.0774166
0.08047
0.0834099
0.0859905
0.088448
0.090661
0.092718
0.0945062
0.0957546
0.0964919
0.0968987
0.0970676
0.0970051
0.0964686
0.0946522
0.0907689
0.0857088
0.0803236
0.0748233
0.0700038
0.0664772
0.0630806
0.0595927
0.0570166
0.0561569
0.0563643
0.0577872
0.0622125
0.0688627
0.0711499
0.0705676
0.065945
0.0597629
0.0587719
0.0618635
0.0755661
0.100207
0.176389
0.247747
0.177924
0.105159
0.0767094
0.0637365
0.0520051
0.0416543
0.0317647
0.0269232
0.0203132
0.0164531
0.0128733
0.0106281
0.00934793
0.00823469
0.00772043
0.00746823
0.00740391
0.00768882
0.0081018
0.00881475
0.00954015
0.0103344
0.0108404
0.011319
0.0115932
0.0118428
0.0119897
0.0121119
0.0121846
0.0122198
0.0122369
0.0122427
0.0122423
0.0122196
0.012169
0.0121476
0.0121436
0.0121535
0.0121877
0.0122477
0.0123357
0.0124121
0.0124372
0.01244
0.0123772
0.0122049
0.0119893
0.0117856
0.0115622
0.0113089
0.0110456
0.0107258
0.010321
0.0101376
0.0100891
0.010321
0.011113
0.0114591
0.0113862
0.0108607
0.0105318
0.0124081
0.0247118
0.0741744
0.0820726
0.0718308
0.0692378
0.0904204
0.221979
0.247279
0.129665
0.0538971
0.0324675
0.0227314
0.0170919
0.0134503
0.0114281
0.0097387
0.00864245
0.00772717
0.00689834
0.006325
0.00572102
0.00532769
0.0050206
0.00488826
0.00495104
0.00558125
0.00686478
0.00758487
0.00786296
0.00798553
0.00813923
0.00842524
0.0088909
0.00963856
0.010556
0.0113295
0.01219
0.0128303
0.0136058
0.0141539
0.014534
0.0147967
0.0148313
0.0147881
0.0147097
0.0146743
0.0147094
0.0148842
0.0154099
0.0160332
0.0165053
0.0169928
0.0171598
0.0170873
0.0167745
0.0163512
0.0156783
0.0144673
0.0138064
0.0128469
0.0125053
0.0127025
0.0131709
0.0143478
0.018622
0.0201458
0.0240351
0.0280832
0.0219772
0.0187524
0.0195613
0.0332878
0.0480258
0.0507708
0.0514803
0.0549108
0.0617537
0.0679007
0.0723894
0.0760175
0.0792561
0.0821665
0.0845035
0.0865238
0.0883403
0.0903007
0.091769
0.0930574
0.0945263
0.0962426
0.0981384
0.100135
0.101986
0.103644
0.104061
0.103854
0.10272
0.0994946
0.0926638
0.0826423
0.0728449
0.0650508
0.0596204
0.0565985
0.0548394
0.0544867
0.0549395
0.0577526
0.0600821
0.060046
0.0577241
0.0564474
0.058589
0.0719053
0.108135
0.174209
0.212535
0.200639
0.0898548
0.0548169
0.0387601
0.0292347
0.0229947
0.0180489
0.0153208
0.0139306
0.0131286
0.0128663
0.0127836
0.0128092
0.0132676
0.0135006
0.0140363
0.0143265
0.0145385
0.0146356
0.0146647
0.0145735
0.0143473
0.0141263
0.0138333
0.0136473
0.0133682
0.0132142
0.0130129
0.0128569
0.0126956
0.0125286
0.0123847
0.0122663
0.0121892
0.0121064
0.0119789
0.0118728
0.0118346
0.0118137
0.0118064
0.0118067
0.0118127
0.0118207
0.0118227
0.0118161
0.0117789
0.0116845
0.0115215
0.0112804
0.0109577
0.0106158
0.010298
0.00992548
0.00946137
0.00912254
0.00898501
0.00894891
0.00898699
0.00886077
0.00838858
0.00780674
0.00791425
0.0104843
0.0259376
0.104461
0.12989
0.110544
0.0866048
0.105415
0.214567
0.188672
0.0669567
0.0316102
0.0210814
0.0155444
0.0125115
0.0109629
0.0101418
0.00946313
0.00899266
0.00874647
0.00843356
0.0081475
0.00783396
0.00754543
0.00741809
0.00733106
0.00716121
0.00712111
0.00700496
0.00680734
0.00653208
0.00618712
0.00574707
0.00533682
0.00501187
0.0047908
0.00496277
0.00579314
0.00735057
0.00918448
0.011077
0.0124856
0.013543
0.0144766
0.0149994
0.0155287
0.01601
0.0163769
0.0168514
0.017163
0.0174928
0.0177012
0.0176911
0.0175689
0.0172248
0.0164975
0.0149104
0.0129695
0.0107854
0.0086087
0.00711789
0.0068411
0.00698206
0.00752178
0.00936342
0.0113218
0.0156302
0.0178801
0.0228159
0.0257019
0.0217068
0.0186151
0.0183532
0.0203264
0.0514813
0.0494828
0.0523225
0.0625832
0.0680454
0.068294
0.0661842
0.0633727
0.0619483
0.0619099
0.0629066
0.0646342
0.0671489
0.0689859
0.0710108
0.0743111
0.0776456
0.0814819
0.0850397
0.088771
0.091804
0.0944658
0.0983783
0.101687
0.103206
0.10335
0.102805
0.100801
0.0956602
0.0842621
0.0718571
0.0617401
0.0565643
0.0548057
0.0548446
0.0556903
0.05564
0.0552158
0.0558976
0.0626899
0.0962089
0.15728
0.192099
0.19829
0.185398
0.0904672
0.0443962
0.0276081
0.0197398
0.0157322
0.0136729
0.0127014
0.012417
0.0125041
0.012677
0.0129552
0.0131373
0.0132783
0.013349
0.0133504
0.0132882
0.0132081
0.0130897
0.0129616
0.0128869
0.0127816
0.0127034
0.012593
0.0125039
0.0123442
0.0121843
0.0120565
0.0118927
0.0118013
0.011762
0.0117307
0.0117167
0.0117135
0.0117223
0.0117499
0.0117929
0.0118392
0.0118732
0.0118934
0.0119258
0.0119742
0.0120171
0.0120428
0.012065
0.0120821
0.0120767
0.0120092
0.0118844
0.0117212
0.0114808
0.0111857
0.0108543
0.0105011
0.0101268
0.00969765
0.00936954
0.00920752
0.00897492
0.00864532
0.00794068
0.00725247
0.00751714
0.010239
0.0290171
0.122072
0.189628
0.177116
0.134312
0.151522
0.215846
0.142332
0.041592
0.0224364
0.0166339
0.0132982
0.0117119
0.0109789
0.0106691
0.010683
0.0107375
0.0102057
0.00984204
0.0094879
0.0093718
0.00936297
0.00961513
0.0102525
0.0111182
0.0121781
0.0130695
0.0134891
0.0131483
0.0120224
0.0102992
0.00829631
0.00628659
0.00462023
0.00345101
0.00279668
0.00249552
0.00272093
0.00381622
0.0059124
0.00818596
0.0103387
0.0117846
0.012878
0.013594
0.0141105
0.0145363
0.0146855
0.0146679
0.0145144
0.0140323
0.0130048
0.0109781
0.00835492
0.00542274
0.00370426
0.00277135
0.00273185
0.00290673
0.00353939
0.00380671
0.00372074
0.00363774
0.00418998
0.00664382
0.0130396
0.0199186
0.0220803
0.0212964
0.0191069
0.0187453
0.0151603
0.0461561
0.0450373
0.0562854
0.063222
0.0534972
0.0444845
0.0452689
0.047319
0.0497526
0.0525804
0.0555158
0.0579366
0.0607794
0.0626541
0.0661858
0.0711066
0.0755053
0.080201
0.0842041
0.0879169
0.091205
0.0926005
0.0930609
0.0939348
0.0961199
0.0989373
0.100117
0.0999945
0.0987128
0.0944237
0.0837113
0.0718417
0.0627248
0.057874
0.055355
0.0543364
0.0544161
0.0566865
0.0721355
0.131631
0.183813
0.198527
0.19453
0.176676
0.0963538
0.0410501
0.022786
0.0158782
0.0131033
0.0120685
0.0117793
0.0119191
0.0123048
0.0126962
0.0131176
0.0136496
0.0139941
0.0142705
0.0145298
0.0148556
0.0151686
0.0154144
0.0156146
0.0157017
0.0157191
0.0155394
0.0153014
0.0149785
0.0146847
0.0142147
0.0137105
0.0133761
0.0128983
0.0126391
0.0125622
0.0125459
0.0125522
0.012601
0.0127231
0.012947
0.0132715
0.013625
0.0138796
0.0140086
0.0141397
0.0143231
0.0144157
0.0144286
0.0143854
0.0142851
0.0141742
0.0140312
0.0138253
0.0136354
0.0133553
0.0130144
0.0125867
0.0120897
0.0115485
0.0109589
0.0103717
0.00988791
0.00946908
0.00910901
0.00870186
0.00787005
0.00784483
0.00990603
0.0296261
0.130475
0.224231
0.227214
0.205144
0.2107
0.209047
0.0941287
0.0291074
0.018317
0.0151188
0.012966
0.0119036
0.0117956
0.0123622
0.0125074
0.0122938
0.0120586
0.0120617
0.0125041
0.0138525
0.0165031
0.0203815
0.0255842
0.0315486
0.0369103
0.0405727
0.0422024
0.0421259
0.0392327
0.0342325
0.0278689
0.0210284
0.0140414
0.00842481
0.00460905
0.00255637
0.00162784
0.00128784
0.00127664
0.00173407
0.00275359
0.00409344
0.00538033
0.00638507
0.00701966
0.00732977
0.00742909
0.00739581
0.00711671
0.00619758
0.00438993
0.00291297
0.00188842
0.0013465
0.00141111
0.00175151
0.0025977
0.00475202
0.00890658
0.00960042
0.00894415
0.00643743
0.00414613
0.00408266
0.00545047
0.0123424
0.0190474
0.0203131
0.0199476
0.0199194
0.0313407
0.0531309
0.0405624
0.0535935
0.0403692
0.0364527
0.0389044
0.0431409
0.0464109
0.0489791
0.0517545
0.0541551
0.0560032
0.0578586
0.0608508
0.0659028
0.0721598
0.0796846
0.0879164
0.0948782
0.102054
0.106568
0.106623
0.105455
0.102033
0.10014
0.100124
0.100189
0.099857
0.0984113
0.0935361
0.0822097
0.0707839
0.0623989
0.0569757
0.0545117
0.054693
0.0602612
0.0943427
0.159129
0.191909
0.198268
0.194071
0.170608
0.0968586
0.0410436
0.0211115
0.0143611
0.0121064
0.0114826
0.0114045
0.0117689
0.0122648
0.0130521
0.014034
0.0150925
0.0163731
0.0175196
0.0185459
0.0194405
0.0199304
0.0201935
0.0202748
0.0201814
0.0199451
0.0197664
0.0193412
0.0189682
0.0185061
0.0180985
0.0176162
0.0169461
0.0164011
0.0156411
0.0148706
0.0144203
0.0142546
0.0142213
0.014242
0.014383
0.0147451
0.0154093
0.016133
0.0163946
0.0164534
0.016436
0.0162935
0.0160049
0.0156417
0.015286
0.0149669
0.0147414
0.014536
0.0142898
0.0140861
0.0138185
0.0135155
0.0131433
0.0126948
0.0121604
0.0115443
0.0108848
0.0102309
0.00964253
0.00918352
0.0088151
0.00834579
0.00803338
0.00881194
0.0268949
0.133647
0.235353
0.253226
0.245751
0.229549
0.175706
0.0543626
0.022388
0.0165838
0.0147594
0.0130938
0.0126173
0.0137353
0.0142834
0.0144986
0.0146303
0.0153955
0.0173281
0.0217437
0.0303616
0.0425948
0.0544287
0.0638707
0.0712353
0.0759798
0.0792829
0.0812959
0.0822695
0.0820638
0.0795273
0.0732028
0.0616795
0.0452037
0.028802
0.016023
0.00790636
0.00352133
0.00158239
0.000889563
0.000656037
0.000603618
0.000704171
0.000925409
0.00113792
0.00131599
0.00144168
0.00150376
0.00150881
0.0014545
0.00120558
0.000853407
0.000620761
0.000656328
0.000847451
0.00160093
0.00425971
0.00944036
0.0198654
0.0336589
0.0365053
0.0346922
0.0289378
0.0154661
0.00721385
0.00560397
0.00647565
0.0119908
0.0178601
0.0194191
0.0198919
0.0354092
0.0535196
0.0301964
0.0391313
0.0324775
0.0347851
0.0402553
0.0444069
0.046849
0.0492161
0.051369
0.0524229
0.0526673
0.0554879
0.0611146
0.0714886
0.0850518
0.100931
0.112468
0.123662
0.131378
0.138599
0.138488
0.135795
0.12816
0.114853
0.106355
0.102463
0.100199
0.0958599
0.0877262
0.0771144
0.0663155
0.057869
0.0549663
0.056374
0.0707015
0.124986
0.174553
0.191263
0.194671
0.189023
0.161473
0.0893514
0.0407705
0.0208479
0.0139481
0.0118515
0.0113875
0.0113685
0.0117376
0.012717
0.0142906
0.0165682
0.0187233
0.020469
0.0216633
0.0222315
0.0225081
0.0225784
0.0223377
0.0220695
0.0216089
0.0211536
0.0207889
0.0203366
0.0199961
0.0195326
0.0192422
0.0189023
0.0186804
0.0182356
0.017998
0.0176486
0.0173235
0.0169887
0.0166699
0.0165115
0.0164395
0.016419
0.0164496
0.0166771
0.0170656
0.0171794
0.017169
0.0170216
0.0166602
0.0161013
0.0154797
0.0148966
0.0143637
0.0139547
0.0136596
0.0134284
0.0132885
0.0131901
0.0130984
0.0129471
0.0126504
0.0122221
0.0117114
0.011188
0.0106596
0.0101599
0.00954963
0.00882219
0.0083802
0.0079475
0.00800481
0.0179707
0.122287
0.237188
0.257403
0.248792
0.220786
0.106008
0.033817
0.018824
0.015992
0.0147542
0.0135572
0.014201
0.0155118
0.0162608
0.0172272
0.0190037
0.023075
0.0330538
0.0474747
0.06096
0.0700493
0.0769501
0.0816318
0.0847427
0.0869271
0.088678
0.0904119
0.0921201
0.0937708
0.095311
0.0962943
0.0957893
0.091086
0.0745928
0.0465782
0.0247992
0.0116374
0.00485844
0.00190476
0.00080874
0.000455133
0.000331064
0.000282784
0.000276045
0.000288713
0.000307491
0.00031958
0.000321717
0.000314588
0.000275415
0.000282751
0.000348531
0.000626379
0.00178245
0.00573732
0.0178514
0.038576
0.064367
0.0923538
0.0999887
0.097308
0.0875062
0.0613381
0.0287311
0.0118811
0.00757464
0.00807893
0.0117669
0.0172897
0.0189892
0.0376226
0.0521451
0.02588
0.0353531
0.0306711
0.036141
0.04192
0.0445512
0.0459694
0.0471519
0.0466281
0.0460494
0.0493156
0.055966
0.0701355
0.0912441
0.11652
0.135434
0.150899
0.163139
0.172495
0.178899
0.177715
0.172888
0.163058
0.143447
0.119024
0.107219
0.0986039
0.0902418
0.079939
0.0655243
0.0571955
0.0556294
0.0606914
0.0930939
0.149026
0.178346
0.18701
0.189091
0.17998
0.143149
0.0778248
0.0387703
0.0209529
0.0141261
0.0119858
0.0115244
0.0114901
0.0120801
0.0137391
0.0168926
0.0197422
0.0219057
0.022952
0.0234902
0.0236739
0.0235488
0.0230709
0.0225899
0.021885
0.0212575
0.0206083
0.0201317
0.0196075
0.01925
0.0188982
0.018534
0.0181208
0.0178929
0.0175777
0.0174547
0.0173907
0.017368
0.0173616
0.0172961
0.0171389
0.0169546
0.0168146
0.0167123
0.0165704
0.0164363
0.0163115
0.0161821
0.0159331
0.0154605
0.014667
0.0134469
0.012246
0.0114249
0.0111765
0.0111686
0.0110952
0.0108948
0.0106199
0.0103973
0.0102816
0.0102617
0.0102182
0.0100284
0.00979788
0.00972847
0.00989729
0.0100902
0.0100985
0.00975901
0.00887661
0.00797823
0.0077555
0.0106886
0.0824435
0.220518
0.251288
0.237381
0.163351
0.0591769
0.0244292
0.0172458
0.0158908
0.0148431
0.0143272
0.015507
0.0170742
0.0191196
0.0225832
0.0295633
0.0418881
0.0564008
0.067552
0.0744268
0.0790601
0.0818123
0.0838503
0.0854802
0.0867149
0.0880959
0.089803
0.0917156
0.0937128
0.0959187
0.0986231
0.101117
0.103138
0.103712
0.0952284
0.062572
0.0317114
0.0142164
0.00569011
0.00212673
0.000815926
0.000380824
0.000242408
0.00018805
0.000161962
0.000151379
0.000149125
0.000149195
0.000152751
0.000169692
0.000234073
0.000532448
0.00183649
0.00673098
0.0218279
0.0596187
0.105828
0.135557
0.151029
0.15648
0.155963
0.152164
0.140039
0.0978326
0.0415634
0.016417
0.0095836
0.00957808
0.0117778
0.0158923
0.0403285
0.0515281
0.0230329
0.0334136
0.030723
0.0374026
0.0416024
0.0421354
0.0422903
0.042155
0.0420784
0.0440565
0.0503783
0.0664864
0.0936371
0.124394
0.149817
0.170407
0.186938
0.198535
0.206186
0.209289
0.20706
0.2012
0.191337
0.170724
0.135333
0.107966
0.0944409
0.0824147
0.0648317
0.0585037
0.0575602
0.0678749
0.117683
0.162097
0.177551
0.181229
0.17992
0.165052
0.120893
0.0707176
0.0361098
0.020856
0.0145821
0.0124101
0.0118789
0.0117793
0.0125387
0.0148057
0.0194346
0.0221517
0.0236693
0.0243722
0.0245903
0.0246066
0.0241831
0.0237625
0.0230865
0.0224673
0.0217208
0.0212999
0.0209251
0.0208396
0.0208551
0.0209011
0.0203998
0.0196726
0.0189052
0.0181082
0.0172024
0.0165956
0.0161406
0.0158917
0.0157834
0.0158022
0.0159969
0.0161226
0.0161673
0.0159488
0.0156022
0.0151914
0.0146458
0.0139042
0.0129829
0.0119068
0.0108158
0.00989239
0.00953212
0.00965618
0.0102944
0.0108319
0.0110159
0.0108947
0.0105276
0.0100844
0.00967525
0.00929451
0.00879948
0.00811153
0.00732155
0.00657529
0.00618753
0.00676508
0.00851545
0.00983083
0.00991429
0.00896685
0.00779429
0.00860013
0.0487458
0.179497
0.220187
0.186321
0.093602
0.0375096
0.0206129
0.016916
0.0159147
0.0151852
0.0152818
0.0163375
0.0194532
0.0253533
0.0341799
0.0452801
0.0582784
0.0685756
0.0740545
0.077095
0.0791833
0.0801827
0.0802808
0.0807892
0.0822512
0.0847829
0.0870835
0.0891954
0.091028
0.0926194
0.0944307
0.0976599
0.102715
0.10721
0.109905
0.105302
0.0716358
0.034827
0.0147467
0.00560101
0.00201625
0.00075216
0.000336272
0.000201338
0.000154684
0.000136813
0.000132245
0.00013285
0.000141524
0.0001921
0.000445218
0.00159887
0.00639119
0.0235687
0.0719963
0.128548
0.153567
0.164457
0.169355
0.171496
0.171496
0.170765
0.168144
0.158395
0.120749
0.0501817
0.0197349
0.011269
0.0106985
0.0117165
0.041314
0.0511639
0.0261652
0.0327231
0.0308491
0.037596
0.0397162
0.0400409
0.0401787
0.0400774
0.040606
0.044176
0.0565535
0.079447
0.109558
0.140215
0.166886
0.18956
0.205315
0.212854
0.217746
0.220384
0.216618
0.207435
0.192053
0.165941
0.129422
0.101527
0.0833446
0.0668556
0.0619032
0.0616265
0.0781752
0.134334
0.166156
0.174398
0.175799
0.168057
0.140365
0.0960451
0.0635745
0.0346819
0.0209814
0.015134
0.0129775
0.0123794
0.0122339
0.0131417
0.0161683
0.0211667
0.0237304
0.0249521
0.0254532
0.0255817
0.0255114
0.0252911
0.0248683
0.0244919
0.0243158
0.0244601
0.0252725
0.0268514
0.0288481
0.0307943
0.0317423
0.0320474
0.0312158
0.0298016
0.0276773
0.0251027
0.0223725
0.0198588
0.017794
0.0165169
0.0157371
0.0153663
0.0152239
0.0151983
0.0152629
0.015304
0.0153197
0.0150605
0.0145748
0.0138313
0.0127875
0.011464
0.0102743
0.00961927
0.0094912
0.0100748
0.0121525
0.0147553
0.0160213
0.016456
0.0161769
0.0153681
0.0142454
0.0130015
0.0115632
0.00992206
0.00823475
0.00671302
0.00543792
0.00475553
0.00478862
0.00673102
0.00951481
0.00986146
0.00862986
0.0081649
0.0223367
0.135449
0.167116
0.120949
0.0576426
0.0286488
0.0196141
0.0169689
0.0160158
0.0156463
0.0158074
0.0177501
0.0244927
0.03489
0.0456429
0.0565246
0.0665848
0.0720737
0.0747348
0.0762611
0.0762747
0.075312
0.0764623
0.0787585
0.0819797
0.0857647
0.0890442
0.0915208
0.0927323
0.0929853
0.0932091
0.0937909
0.094928
0.10185
0.109935
0.114106
0.110205
0.0726292
0.0333448
0.0131413
0.00468785
0.00162354
0.000605586
0.000279312
0.000174176
0.000141528
0.000135198
0.000139175
0.000174135
0.000355939
0.00120164
0.00497304
0.0204446
0.0728992
0.13377
0.159054
0.168935
0.173531
0.175244
0.176083
0.176059
0.175745
0.17488
0.17244
0.162911
0.124514
0.0508899
0.0205928
0.012335
0.0115582
0.0423041
0.0506282
0.0286834
0.0305677
0.0303899
0.0367012
0.0385959
0.0389759
0.0387298
0.0384821
0.0392902
0.0448093
0.0591832
0.0840898
0.115396
0.146618
0.173986
0.197258
0.210104
0.214384
0.215051
0.213732
0.208585
0.198181
0.180058
0.149876
0.112087
0.082701
0.0709887
0.0671502
0.0687826
0.0931373
0.145397
0.166819
0.171218
0.169967
0.156606
0.11693
0.0754749
0.0536931
0.0345044
0.0212783
0.0157967
0.0136429
0.0129906
0.0128169
0.0138939
0.0176641
0.0223037
0.0248664
0.0260008
0.0264394
0.0265707
0.0265865
0.026738
0.0268869
0.0272526
0.0285799
0.0316268
0.0362336
0.0410434
0.0446685
0.0468012
0.0477183
0.0479533
0.0470695
0.0457645
0.0439102
0.041535
0.0387703
0.03559
0.0318917
0.0274485
0.023151
0.0196511
0.0174225
0.0162621
0.0156126
0.0152903
0.0151637
0.0151073
0.0150644
0.0149471
0.0147092
0.0143052
0.0136755
0.0126534
0.0122085
0.0122965
0.0134519
0.0164584
0.0200582
0.0224815
0.0235986
0.0237638
0.0233845
0.0224257
0.0207548
0.0189343
0.0172343
0.0153147
0.0126433
0.00904928
0.00594111
0.00445041
0.00439034
0.00623597
0.00944535
0.0096345
0.00837778
0.0117098
0.0852279
0.137316
0.102148
0.0483932
0.0272374
0.0197643
0.017213
0.0161969
0.0159666
0.0162936
0.0196418
0.0303248
0.0436292
0.0539026
0.0627198
0.069316
0.0721464
0.0738922
0.0733614
0.0724095
0.0737781
0.0770058
0.0821821
0.0903326
0.0971521
0.100348
0.101045
0.100359
0.0987675
0.0965434
0.0942507
0.0933213
0.093369
0.100141
0.112471
0.117932
0.110656
0.0655056
0.0276521
0.0100934
0.00340685
0.00115567
0.000443631
0.000224315
0.000163144
0.000155149
0.000170702
0.000279524
0.000812159
0.00327241
0.0143271
0.0592304
0.128301
0.159067
0.170822
0.174993
0.177306
0.177923
0.178314
0.178283
0.178029
0.177403
0.176428
0.174106
0.162986
0.116098
0.0464238
0.0199185
0.0130242
0.0425876
0.0510217
0.0309764
0.0297894
0.0299945
0.0359362
0.037073
0.0367834
0.0361785
0.0361028
0.0373786
0.0435698
0.0591637
0.0839567
0.112116
0.141012
0.168556
0.187538
0.19589
0.199653
0.200758
0.199412
0.190436
0.174868
0.150407
0.113603
0.0880313
0.0783258
0.0751482
0.080685
0.113393
0.152976
0.165949
0.168177
0.164625
0.146136
0.100323
0.0634102
0.0449285
0.0325181
0.0217829
0.0165295
0.0143855
0.0136462
0.0133998
0.0141237
0.0169687
0.0222638
0.0255165
0.0267379
0.0272496
0.027535
0.0278321
0.0284472
0.0295301
0.0316205
0.0358517
0.0412089
0.0461462
0.0492615
0.0514642
0.0525368
0.052995
0.0530913
0.0525764
0.0518404
0.0505449
0.0486774
0.0461283
0.0431659
0.0399398
0.0369208
0.0344162
0.0318239
0.0288305
0.0255131
0.0223337
0.0198347
0.0178555
0.0163507
0.0154395
0.0148353
0.0144464
0.0142374
0.0142342
0.0142997
0.0142179
0.0142088
0.0144988
0.0151627
0.0168762
0.019954
0.0225823
0.0241504
0.0246011
0.0244797
0.0238435
0.0222362
0.0203225
0.0189781
0.018041
0.0173059
0.0162188
0.0127191
0.007226
0.00467572
0.00467715
0.00708579
0.00961016
0.00904027
0.0092494
0.0382852
0.108016
0.0974015
0.0513019
0.0284066
0.0206418
0.0177727
0.0164757
0.0161976
0.0169407
0.0218082
0.0355555
0.0496214
0.0586778
0.0654117
0.0694455
0.0715641
0.0716309
0.07079
0.0713444
0.0745544
0.0824276
0.095366
0.102326
0.104331
0.104395
0.103409
0.10176
0.0998687
0.0978832
0.0955004
0.0934216
0.0916964
0.0917944
0.100188
0.116701
0.121515
0.104195
0.0517446