/*--------------------------------*- C++ -*----------------------------------*\
  =========                 |
  \\      /  F ield         | OpenFOAM: The Open Source CFD Toolbox
   \\    /   O peration     | Website:  https://openfoam.org
    \\  /    A nd           | Version:  9
     \\/     M anipulation  |
\*---------------------------------------------------------------------------*/
FoamFile
{
    format      ascii;
    class       volScalarField;
    location    "0.098";
    object      nut;
}
// * * * * * * * * * * * * * * * * * * * * * * * * * * * * * * * * * * * * * //

dimensions      [0 2 -1 0 0 0 0];

internalField   nonuniform List<scalar> 
12225
(
0
0
0
0
0
0
0
0
0
0
0
0
0
0
0
0
0
0
1.44921e-11
0
0
0
0
0
0
0
0
0
0
0
0
0
0
0
0
0
7.59953e-11
0
0
0
0
0
0
0
0
0
0
0
0
0
0
0
0
0
0
2.4112e-08
3.14773e-10
0
0
0
0
0
0
0
0
0
0
0
0
0
0
0
1.89657e-07
4.88541e-07
1.39371e-07
0
0
0
0
0
0
0
0
0
0
0
0
0
2.22334e-09
0
1.90314e-07
1.04007e-06
9.68249e-07
1.28663e-07
7.63202e-08
7.97754e-08
0
0
0
0
0
0
0
0
1.83674e-08
9.48331e-08
9.5231e-08
3.46841e-08
2.81449e-07
1.10353e-06
7.52466e-07
1.68504e-07
1.45752e-07
1.83249e-07
1.54233e-07
3.6291e-08
0
0
0
0
0
4.97315e-08
1.24883e-07
3.6904e-07
6.07169e-07
3.60966e-07
2.94825e-07
8.74064e-07
4.55463e-07
1.38086e-07
6.76198e-08
0
0
0
0
9.07297e-08
0
0
2.76533e-07
8.69085e-08
0
1.19347e-07
3.37922e-07
2.2301e-07
0
4.17991e-07
1.93896e-07
4.98949e-08
0
0
0
0
0
1.40811e-06
1.43901e-06
0
0
1.95743e-08
1.6625e-07
4.06557e-07
5.85556e-07
4.31574e-07
0
0
0
1.67209e-07
6.46464e-09
0
0
0
0
0
0
0
0
0
3.36562e-09
2.69924e-07
6.82059e-07
9.18798e-07
2.18804e-08
0
0
1.1937e-06
1.58642e-06
2.1574e-07
0
0
0
0
0
0
0
0
0
2.72633e-07
9.60507e-07
1.57575e-06
0
0
0
8.60166e-07
1.75273e-06
7.45204e-07
0
0
0
0
0
0
0
0
0
3.44716e-07
5.65761e-07
1.19769e-06
0
0
0
5.66807e-07
2.08697e-06
1.62068e-06
2.57405e-08
0
0
0
0
0
0
0
0
1.45791e-07
2.69285e-07
4.15894e-07
0
0
0
2.32114e-07
5.63658e-07
3.79438e-07
0
0
0
0
0
0
2.43473e-07
0
0
0
4.80901e-08
1.36573e-07
7.91356e-07
3.89644e-07
0
0
0
0
0
0
0
0
0
2.97648e-07
4.96549e-07
1.98613e-07
0
0
0
0
5.34806e-07
2.89991e-07
0
0
0
0
0
0
0
0
2.55059e-07
9.12712e-07
1.00325e-06
0
0
0
0
0
0
1.73896e-07
7.39892e-07
1.79302e-07
0
0
0
6.80035e-07
1.84907e-07
0
0
1.66297e-07
3.50616e-07
1.19137e-07
0
5.30472e-08
1.63568e-07
0
0
0
8.26153e-07
6.96934e-07
1.67823e-07
2.96266e-07
4.97451e-07
6.18469e-07
5.51446e-07
2.95899e-08
0
0
5.96457e-07
8.0469e-07
5.51248e-07
1.37523e-07
0
8.63898e-08
0
0
3.48518e-07
1.3066e-07
0
0
0
0
0
0
0
0
5.34921e-07
1.14162e-06
1.25742e-06
8.00656e-07
0
0
0
1.08015e-07
5.47261e-08
4.11115e-07
0
0
0
0
0
0
0
0
0
6.54361e-07
7.20014e-07
3.26207e-07
0
0
1.74949e-07
5.82659e-08
9.90693e-08
0
0
0
0
1.131e-06
1.65335e-06
8.24694e-07
5.9507e-09
0
0
0
2.11435e-07
3.33078e-07
3.1734e-07
2.10025e-07
2.06941e-07
3.09378e-07
2.83397e-07
0
0
0
3.25587e-06
1.86923e-06
2.23435e-07
0
0
0
0
0
0
0
0
0
0
0
7.23085e-08
4.24663e-07
6.28093e-07
1.06883e-06
9.61906e-07
0
0
0
0
0
0
0
0
0
0
1.49311e-07
0
0
0
4.27661e-07
2.83101e-07
4.61136e-07
2.63604e-07
0
0
0
0
0
2.40702e-08
3.86589e-07
6.7865e-08
0
0
0
1.6713e-08
0
0
1.13089e-07
0
0
2.35262e-08
0
0
0
0
0
0
0
0
0
0
0
0
0
0
0
0
0
1.55221e-07
7.44399e-08
0
0
0
0
0
0
0
0
0
0
0
0
0
0
0
0
7.19224e-09
1.50579e-08
1.53752e-08
9.54228e-09
1.14284e-09
0
0
0
0
2.99506e-09
5.22214e-09
5.16992e-09
6.86261e-10
0
0
0
0
0
0
1.7953e-10
3.08044e-10
1.62241e-10
0
0
0
0
0
4.27282e-10
7.4432e-10
7.00104e-10
6.59132e-10
0
0
0
0
0
0
0
0
0
0
0
0
0
0
0
0
0
1.03023e-09
0
0
0
0
0
0
0
0
0
0
0
0
0
0
0
0
0
0
6.12041e-07
0
0
0
1.94186e-06
3.60012e-06
3.3543e-06
1.89422e-06
2.25723e-07
0
0
0
0
0
0
0
0
0
0
0
0
0
1.07532e-07
2.78725e-07
4.03181e-07
4.85253e-07
5.16829e-07
4.99395e-07
4.3758e-07
3.18177e-07
1.74129e-07
0
0
0
0
0
0
0
0
0
1.96056e-06
6.46855e-07
0
0
0
0
0
7.57985e-06
1.60631e-05
9.15779e-06
4.04882e-06
7.52375e-07
8.05617e-08
2.916e-07
7.31743e-07
9.89951e-07
1.12317e-06
1.12048e-06
1.03411e-06
9.03361e-07
7.5599e-07
6.00612e-07
4.49442e-07
3.07974e-07
1.83617e-07
7.92338e-08
0
0
0
0
0
0
0
0
0
0
0
0
0
0
0
0
0
0
0
0
0
0
0
0
0
0
0
0
0
0
0
0
0
0
0
0
0
0
0
0
0
0
0
0
0
0
0
1.40285e-07
7.72437e-06
2.07031e-05
3.54017e-05
3.85118e-05
3.71721e-05
2.44459e-05
6.9474e-06
1.47884e-06
5.5531e-07
4.39678e-07
4.29694e-07
4.14103e-07
3.805e-07
3.36925e-07
2.80905e-07
2.23995e-07
1.61604e-07
9.91627e-08
3.50362e-08
0
0
0
0
0
0
0
0
0
0
0
0
0
0
0
0
0
0
0
0
0
0
0
0
0
0
0
0
0
0
0
0
0
0
0
0
0
0
0
0
0
0
8.66955e-07
5.80208e-06
1.75339e-05
5.37852e-06
3.235e-06
1.16225e-06
3.19815e-07
6.48812e-07
1.81006e-06
3.62517e-06
5.54261e-06
6.63034e-06
6.09233e-06
3.85326e-06
9.41677e-07
0
0
0
0
0
0
0
0
0
0
0
0
0
2.21953e-07
3.71894e-07
4.5637e-07
4.60357e-07
4.01824e-07
3.03334e-07
1.66734e-07
8.99302e-08
0
0
0
0
0
0
0
0
0
0
0
0
1.05244e-07
0
0
0
0
0
3.95467e-06
4.28737e-06
1.26589e-06
3.09494e-07
3.39592e-07
7.00589e-07
8.23048e-07
8.5283e-07
7.72379e-07
6.7053e-07
5.42835e-07
4.32181e-07
3.21728e-07
2.34725e-07
1.57651e-07
9.63915e-08
4.33491e-08
0
0
0
0
0
0
0
0
0
0
0
0
0
0
0
0
0
0
0
0
0
0
0
0
0
0
0
0
0
0
0
0
0
0
0
0
0
0
0
0
0
0
0
0
0
0
0
0
1.05503e-05
3.18903e-05
4.67285e-05
3.89838e-05
2.70556e-05
1.59953e-05
7.86519e-06
3.32161e-06
1.563e-06
9.77534e-07
7.43126e-07
6.08926e-07
5.05112e-07
4.18073e-07
3.32415e-07
2.55144e-07
1.79168e-07
1.09277e-07
4.2588e-08
0
0
0
0
0
0
0
0
0
0
0
0
0
0
0
0
0
0
0
0
0
0
0
0
0
0
0
0
0
0
0
0
0
0
0
0
0
0
0
0
0
0
1.7149e-06
2.766e-06
3.7672e-06
3.23013e-06
4.2358e-06
1.43452e-06
1.35438e-06
1.66546e-06
2.33408e-06
3.5235e-06
4.79019e-06
4.80772e-06
2.33201e-06
0
0
0
0
0
0
0
0
0
0
0
0
0
0
0
0
1.39005e-06
2.59748e-06
3.12458e-06
3.17366e-06
2.90606e-06
2.55489e-06
2.34834e-06
2.21281e-06
2.15345e-06
2.02466e-06
1.834e-06
1.31264e-06
4.98143e-08
0
0
0
0
0
0
0
0
0
0
0
0
1.59006e-06
1.1816e-06
0
0
0
4.17768e-07
6.59913e-07
7.90918e-07
7.57733e-07
6.90614e-07
5.77259e-07
4.73433e-07
3.74048e-07
2.86432e-07
2.09096e-07
1.38246e-07
7.18599e-08
3.08462e-09
0
0
0
0
0
0
0
0
0
0
0
0
0
0
0
0
0
0
0
0
0
0
0
0
0
0
0
0
0
0
0
0
0
0
0
0
0
0
0
0
2.33108e-07
7.13524e-07
0
0
0
0
8.54843e-07
1.253e-05
1.5508e-05
1.48341e-05
1.25822e-05
1.08953e-05
8.39153e-06
6.05269e-06
4.52152e-06
3.62984e-06
2.88929e-06
2.26993e-06
1.74799e-06
1.32655e-06
1.00287e-06
7.31323e-07
5.16784e-07
3.41836e-07
2.0281e-07
9.19257e-08
0
0
0
0
0
0
0
0
0
0
0
0
0
0
0
0
0
0
0
0
0
0
0
6.1854e-08
1.2316e-07
1.70893e-07
2.18779e-07
2.32491e-07
2.1364e-07
1.80804e-07
1.24019e-07
4.41954e-08
0
0
0
0
0
0
0
0
0
8.66007e-07
2.37849e-06
1.01397e-06
0
0
2.44168e-06
1.75979e-06
1.36277e-06
1.25457e-06
8.14582e-07
0
0
0
0
0
0
0
0
0
0
0
0
0
0
0
0
0
0
0
0
0
7.78923e-06
1.51877e-05
1.65536e-05
1.39733e-05
1.05443e-05
7.70837e-06
5.57314e-06
3.93861e-06
2.62388e-06
1.14179e-06
0
0
0
0
0
0
0
0
0
0
0
0
0
0
0
0
0
0
0
0
0
0
0
7.94101e-08
6.83498e-07
1.62642e-06
3.04314e-06
5.34275e-06
8.34715e-06
5.25008e-06
0
0
0
0
0
0
0
0
0
0
0
0
0
0
0
0
0
0
0
0
0
0
0
0
0
0
0
0
0
0
0
0
0
0
0
0
0
0
0
0
0
0
1.18442e-06
5.06635e-06
9.69072e-06
4.65768e-06
0
0
9.07133e-06
1.16362e-05
8.5001e-06
4.72248e-06
4.23855e-06
4.51579e-06
3.79749e-06
3.08136e-06
2.71683e-06
2.55884e-06
2.43313e-06
2.33096e-06
2.29213e-06
2.30321e-06
2.36862e-06
2.45163e-06
2.53532e-06
2.61849e-06
2.59989e-06
2.14768e-06
6.74258e-07
0
0
0
0
0
0
0
0
0
0
0
0
0
0
0
0
0
0
0
0
0
0
0
0
0
0
0
0
0
0
0
0
0
0
0
0
0
1.06592e-07
0
0
1.06942e-06
1.40442e-06
0
0
0
1.39943e-06
2.66093e-06
1.80837e-06
0
0
0
0
0
0
0
0
0
0
0
0
0
0
0
0
0
0
0
0
0
6.72848e-07
1.09108e-05
1.13459e-05
1.03556e-05
9.27527e-06
7.84477e-06
5.89071e-06
3.97813e-06
2.39251e-06
1.29176e-06
5.07861e-07
0
0
0
0
0
0
0
0
0
0
0
0
0
0
0
0
0
0
0
0
0
0
0
2.57468e-07
1.08069e-06
2.22044e-06
3.89574e-06
6.34327e-06
8.71236e-06
3.53386e-06
0
0
0
0
0
0
0
0
0
0
0
0
0
0
0
0
0
0
0
0
0
0
0
0
0
0
0
0
0
0
0
0
0
0
0
0
0
0
0
0
0
0
1.11026e-06
2.84617e-06
9.45626e-06
1.32632e-05
4.34509e-06
0
0
9.66401e-06
1.05606e-05
6.62391e-06
2.68341e-06
1.92899e-06
2.3929e-06
2.58154e-06
2.32131e-06
1.95445e-06
1.66738e-06
1.6492e-06
1.91033e-06
2.20402e-06
2.46036e-06
2.61829e-06
2.70846e-06
2.71888e-06
2.65172e-06
2.44527e-06
1.89054e-06
7.94135e-07
0
0
0
0
0
0
0
0
0
0
0
0
0
0
0
0
0
0
0
0
0
0
0
0
0
0
0
0
0
0
0
0
0
0
0
0
0
0
0
0
0
2.62034e-07
0
0
0
1.88501e-07
6.37197e-07
7.50668e-07
0
0
0
0
0
2.13325e-06
3.60096e-06
4.36518e-06
4.84488e-06
5.18073e-06
5.43827e-06
5.46773e-06
5.24422e-06
4.62973e-06
3.50003e-06
1.91022e-06
9.18658e-08
0
2.5897e-07
3.97853e-06
7.81055e-06
9.6351e-06
1.03073e-05
1.08435e-05
1.05458e-05
8.87165e-06
6.63455e-06
4.55842e-06
2.76906e-06
1.56634e-06
6.52773e-07
0
0
0
0
0
0
0
0
0
0
0
0
0
0
0
0
0
0
0
0
0
0
0
3.80603e-07
1.05941e-06
1.99137e-06
3.30426e-06
5.28216e-06
8.30361e-06
9.36853e-06
0
0
0
0
0
0
0
0
0
0
0
0
0
0
0
0
0
0
0
0
0
0
0
0
0
0
0
0
0
0
0
0
0
0
0
0
0
0
0
0
0
0
0
1.27057e-06
3.84293e-06
1.39573e-05
1.34931e-05
2.68757e-07
0
0
3.2962e-06
5.51279e-06
2.39442e-06
0
1.30917e-07
2.08673e-06
2.37939e-06
1.94151e-06
1.41364e-06
1.37864e-06
1.98531e-06
2.57092e-06
2.89226e-06
3.06834e-06
3.18708e-06
3.32317e-06
3.49e-06
3.57997e-06
3.41982e-06
2.67513e-06
1.12814e-06
0
0
0
0
0
0
0
0
0
0
0
0
0
0
0
0
0
0
0
0
0
0
0
0
0
0
0
0
0
0
0
0
0
0
0
0
0
0
0
0
0
0
0
0
0
0
4.72466e-08
1.382e-07
8.09219e-06
2.1611e-06
1.90415e-06
2.14627e-06
1.83385e-06
1.85469e-06
2.69083e-06
3.57999e-06
4.21101e-06
4.69317e-06
4.972e-06
4.82129e-06
3.99821e-06
2.2657e-06
0
0
0
0
4.10842e-06
1.00738e-05
1.10871e-05
8.57793e-06
5.66477e-06
4.24368e-06
4.26386e-06
4.66153e-06
4.48074e-06
3.53691e-06
2.24859e-06
6.44768e-07
0
0
0
0
0
0
0
0
0
0
0
0
0
0
0
0
0
0
0
0
0
0
1.30897e-07
5.14854e-07
9.16699e-07
1.37373e-06
1.92812e-06
2.59481e-06
3.39897e-06
4.05603e-06
2.28881e-06
0
0
0
0
0
0
0
1.33031e-08
9.53287e-08
1.19646e-07
1.03031e-07
5.78919e-08
0
0
0
0
0
0
0
0
0
0
0
0
1.81324e-08
5.07241e-08
3.8848e-08
0
0
0
0
0
0
0
0
0
0
0
0
0
0
0
0
5.96083e-07
5.06013e-06
1.5126e-05
1.67508e-06
0
0
0
0
0
0
0
2.09241e-09
2.08684e-06
2.04501e-06
1.41665e-06
1.06654e-06
1.84724e-06
2.84078e-06
3.25159e-06
3.44308e-06
3.66374e-06
4.04068e-06
4.60987e-06
5.11962e-06
5.11695e-06
4.26561e-06
2.37933e-06
7.50004e-07
1.60299e-06
2.25969e-07
0
0
0
0
0
0
0
0
0
0
0
0
0
0
0
0
0
0
0
0
0
0
0
0
0
0
0
0
0
0
0
0
0
0
0
0
0
0
0
0
0
0
0
0
0
1.12282e-07
1.67924e-05
4.58266e-06
2.60432e-06
1.26413e-06
8.5866e-07
2.15237e-06
3.61878e-06
4.58987e-06
5.28048e-06
5.85762e-06
6.21856e-06
5.86651e-06
4.21388e-06
4.75943e-07
0
0
0
7.92382e-07
1.81425e-05
2.46302e-05
2.17288e-05
1.44064e-05
7.55236e-06
3.70027e-06
2.1209e-06
1.86218e-06
2.43272e-06
2.64055e-06
1.08799e-06
0
0
0
0
0
0
0
0
0
0
0
0
0
0
0
0
0
0
0
0
1.38959e-07
4.14934e-07
6.14029e-07
7.15145e-07
7.98905e-07
8.65096e-07
9.78952e-07
1.15642e-06
1.36509e-06
1.50277e-06
1.18729e-06
0
0
0
0
0
0
0
0
0
0
0
0
0
0
0
0
0
0
0
0
0
0
0
0
0
0
0
0
0
0
0
0
0
0
0
0
0
0
0
0
0
0
0
0
0
1.14002e-06
0
0
0
0
0
0
0
0
0
1.28365e-06
2.00939e-06
1.63163e-06
1.00487e-06
1.29284e-06
2.653e-06
3.45392e-06
3.74592e-06
4.09806e-06
4.81735e-06
5.55885e-06
5.83643e-06
5.28204e-06
3.48151e-06
0
0
3.71678e-07
6.68789e-06
6.45191e-06
3.85783e-06
6.06242e-07
0
0
0
0
0
0
0
0
0
0
0
0
0
0
0
0
0
0
0
0
0
0
0
0
0
0
0
0
0
0
0
0
0
0
0
0
0
0
0
0
0
0
0
0
1.15274e-05
1.97346e-06
1.5644e-06
1.64002e-06
2.15275e-06
2.8208e-06
3.24158e-06
3.56744e-06
4.07538e-06
4.66383e-06
4.69765e-06
3.29399e-06
0
0
0
0
1.62465e-06
3.90118e-05
5.26663e-05
4.82745e-05
3.64522e-05
2.22934e-05
1.08828e-05
4.38846e-06
1.50609e-06
5.22458e-07
5.69063e-07
0
0
0
0
0
0
0
1.38239e-07
3.5058e-07
4.85926e-07
5.19226e-07
4.25396e-07
1.19753e-07
0
0
0
0
2.57925e-08
3.12496e-07
7.46264e-07
1.17882e-06
1.40482e-06
1.3867e-06
1.15127e-06
8.35398e-07
5.63745e-07
4.21949e-07
3.87841e-07
4.74345e-07
6.4032e-07
8.09291e-07
8.75564e-07
6.55296e-07
2.5746e-08
0
0
0
0
0
0
0
0
0
0
0
0
2.9762e-09
1.05527e-08
0
0
0
0
0
0
0
0
0
0
0
0
0
0
0
0
0
0
0
0
0
0
0
0
0
0
0
0
0
0
0
0
0
0
0
2.84826e-06
1.15981e-05
1.42767e-05
5.90663e-06
4.58306e-06
2.22732e-06
1.81048e-06
1.23486e-06
8.68725e-07
1.82467e-06
3.20759e-06
3.91863e-06
4.44233e-06
5.15737e-06
5.72423e-06
5.60995e-06
4.42993e-06
1.72183e-06
0
0
0
1.74611e-06
3.09857e-06
3.16094e-06
2.63343e-06
1.74587e-06
4.66758e-07
0
0
0
0
0
0
0
0
0
0
0
0
0
0
0
0
0
0
0
0
0
0
0
0
0
0
0
0
0
0
0
0
0
0
0
0
1.63496e-07
5.15912e-07
0
8.44614e-07
0
0
0
0
0
0
0
9.54172e-08
4.83608e-07
7.86077e-07
1.30723e-06
1.88484e-06
2.08303e-06
1.18814e-06
0
0
0
0
5.45893e-05
9.39593e-05
9.27911e-05
8.33544e-05
6.84827e-05
4.82607e-05
2.73669e-05
1.24913e-05
4.66357e-06
1.30579e-06
0
0
0
0
0
0
3.826e-07
1.27838e-06
1.40182e-06
1.41134e-06
1.49939e-06
1.59006e-06
1.5254e-06
1.37642e-06
1.17597e-06
2.44268e-07
1.36361e-06
3.45637e-06
3.59875e-06
3.5535e-06
3.64113e-06
3.68155e-06
3.45535e-06
2.67835e-06
1.8638e-06
1.1927e-06
7.49953e-07
5.4862e-07
5.42027e-07
6.55937e-07
8.60228e-07
1.09963e-06
1.28473e-06
1.29367e-06
9.53307e-07
3.15281e-07
0
8.05923e-08
5.51392e-07
9.69998e-07
1.21699e-06
1.29197e-06
1.22275e-06
1.06312e-06
8.51944e-07
6.39068e-07
4.66985e-07
3.63012e-07
3.29064e-07
3.38603e-07
3.47788e-07
3.03653e-07
1.71427e-07
0
0
0
0
0
0
0
0
0
0
0
0
0
0
0
0
0
0
0
0
0
0
0
0
0
0
0
0
0
0
1.33777e-06
4.71288e-06
7.77742e-06
1.04836e-05
5.61285e-06
2.37379e-06
3.14511e-06
2.09861e-06
1.53839e-06
9.33236e-07
9.4606e-07
2.22744e-06
3.62901e-06
4.48905e-06
4.97737e-06
5.27747e-06
4.93509e-06
3.43393e-06
5.78068e-07
0
0
0
1.06033e-06
2.05207e-06
2.15357e-06
1.85054e-06
1.41011e-06
9.06234e-07
3.30088e-07
0
0
0
0
0
0
0
0
0
0
0
0
0
0
0
0
0
0
0
0
0
0
0
0
0
0
0
0
0
0
0
0
0
0
1.4948e-06
1.66573e-06
1.72111e-06
1.03843e-06
2.91298e-06
4.47218e-06
0
0
0
0
0
0
0
0
0
0
0
0
0
0
0
6.12444e-07
2.67007e-05
7.54506e-05
9.20735e-05
9.3847e-05
9.45639e-05
9.12575e-05
7.37761e-05
4.07736e-05
1.38603e-05
2.54556e-06
0
0
0
0
0
0
4.79434e-07
2.20518e-06
2.71408e-06
2.5987e-06
2.44769e-06
2.43266e-06
2.48791e-06
2.54309e-06
3.0952e-06
4.60097e-06
3.60268e-06
2.42115e-07
0
1.09e-06
3.15122e-06
4.94707e-06
5.75119e-06
5.35342e-06
3.98268e-06
2.64872e-06
1.70365e-06
1.14115e-06
8.94526e-07
9.03363e-07
1.0917e-06
1.41637e-06
1.87638e-06
2.40922e-06
2.81758e-06
2.5289e-06
6.59704e-07
0
0
0
0
0
1.07948e-07
6.61052e-07
9.64522e-07
1.07517e-06
1.04456e-06
9.24266e-07
7.47959e-07
5.51777e-07
3.59055e-07
1.87681e-07
5.64072e-08
0
0
0
0
0
0
0
0
0
2.48641e-07
3.16214e-07
8.9756e-08
0
0
0
0
0
0
0
0
0
0
0
0
0
0
0
0
0
7.23692e-08
0
0
1.9755e-06
5.48521e-06
6.15902e-06
4.67174e-06
1.82057e-06
1.3608e-06
2.02831e-06
1.69521e-06
1.26571e-06
7.02224e-07
1.03078e-06
2.50448e-06
3.91744e-06
4.5824e-06
4.66339e-06
4.21333e-06
2.79724e-06
3.3145e-07
0
0
0
9.0271e-07
1.99768e-06
2.38906e-06
2.26704e-06
1.95707e-06
1.54606e-06
1.03651e-06
4.21864e-07
0
0
0
0
0
0
0
0
0
0
0
0
0
0
0
0
0
0
0
0
0
0
0
0
0
0
0
0
0
0
0
0
0
1.48665e-07
4.2716e-06
6.16519e-06
5.63811e-06
3.62175e-06
3.38619e-06
5.3843e-06
0
0
0
0
0
0
0
0
0
0
0
0
0
0
4.54517e-06
1.85705e-05
4.14586e-05
6.06854e-05
7.17813e-05
8.10808e-05
9.44605e-05
0.000111363
8.87974e-05
0
0
0
0
0
3.3744e-07
8.54741e-07
1.41746e-07
3.02625e-06
5.16526e-06
4.77301e-06
4.01953e-06
3.56431e-06
3.4267e-06
3.47144e-06
4.09981e-06
6.12329e-06
4.54359e-06
1.79575e-06
5.90699e-07
0
0
0
0
1.02328e-06
2.46516e-06
2.86904e-06
2.29162e-06
1.55313e-06
1.07808e-06
9.11842e-07
1.02532e-06
1.39847e-06
2.01323e-06
2.93955e-06
4.33217e-06
6.20222e-06
7.73287e-06
5.09805e-06
0
0
0
0
0
0
0
0
1.66046e-07
4.89218e-07
6.35528e-07
6.63153e-07
6.25788e-07
5.62027e-07
4.79514e-07
3.48601e-07
1.32247e-07
0
0
0
0
0
0
0
0
6.37991e-08
6.26899e-08
0
0
0
0
0
0
0
0
0
0
0
0
0
0
0
0
0
0
0
3.53362e-07
0
0
5.94905e-07
3.80731e-06
3.34424e-06
1.49725e-06
4.77155e-07
1.1212e-06
1.43053e-06
1.36655e-06
1.02061e-06
5.09185e-07
9.98294e-07
2.55737e-06
3.85077e-06
4.10803e-06
3.64195e-06
2.47989e-06
5.65641e-07
0
0
0
7.48734e-07
2.02008e-06
2.83446e-06
3.31776e-06
3.49168e-06
3.40289e-06
3.02808e-06
2.40342e-06
1.57418e-06
5.96865e-07
0
0
0
0
0
0
0
0
0
0
0
0
0
0
0
0
0
0
0
0
0
0
0
0
0
0
0
0
0
0
0
0
0
5.37879e-06
9.85542e-06
1.20484e-05
9.03761e-06
5.81978e-06
6.27364e-06
0
0
0
0
0
0
0
0
0
0
0
0
0
0
3.67618e-06
1.45775e-05
2.89403e-05
4.14192e-05
4.99606e-05
5.61142e-05
5.78516e-05
2.5974e-05
0
0
0
0
2.02895e-06
3.02853e-06
1.76001e-06
0
7.97898e-06
1.14628e-05
8.68579e-06
6.41615e-06
5.19926e-06
4.81914e-06
5.19229e-06
7.26415e-06
6.28399e-06
2.95896e-06
1.6498e-06
1.01798e-06
4.87692e-07
1.65195e-08
0
0
0
0
6.51311e-07
9.87131e-07
8.48063e-07
6.51493e-07
6.84148e-07
9.90116e-07
1.59266e-06
2.57126e-06
4.1015e-06
6.44611e-06
9.97978e-06
1.50637e-05
2.03074e-05
0
0
0
0
0
0
0
0
0
0
0
0
0
0
0
1.61488e-08
8.5537e-08
1.22746e-07
9.59857e-08
0
0
0
0
0
0
0
0
0
0
0
0
0
0
0
0
0
0
0
0
0
0
0
0
0
0
0
0
0
0
0
0
1.38727e-06
5.81769e-07
0
0
8.69595e-07
1.09273e-06
1.09998e-06
8.01736e-07
3.54783e-07
8.76063e-07
2.38339e-06
3.44344e-06
3.25443e-06
2.33523e-06
8.89631e-07
0
0
0
5.76302e-07
1.87956e-06
2.9669e-06
3.98808e-06
4.829e-06
5.28077e-06
5.19117e-06
4.61203e-06
3.7238e-06
2.68961e-06
1.62184e-06
5.76282e-07
0
0
0
0
0
0
0
0
0
0
0
0
0
0
1.25744e-07
0
0
0
0
0
0
0
0
0
0
0
0
0
0
0
0
0
5.10837e-06
1.13183e-05
1.64938e-05
1.6052e-05
1.02999e-05
8.03544e-06
0
0
0
0
0
0
0
0
0
0
0
0
0
0
0
4.68724e-06
1.31021e-05
2.16042e-05
2.70116e-05
2.52984e-05
3.87196e-06
0
0
0
0
0
0
0
0
0
2.15943e-05
1.48373e-05
9.7713e-06
7.42166e-06
6.816e-06
7.98582e-06
9.41272e-06
4.72719e-06
2.5246e-06
1.79971e-06
1.38501e-06
1.03795e-06
5.82387e-07
1.32989e-07
0
0
0
0
0
1.77955e-07
1.95469e-07
2.51748e-07
5.45948e-07
1.11961e-06
2.02612e-06
3.37857e-06
5.21748e-06
7.60715e-06
1.04018e-05
1.1809e-05
4.2177e-06
0
0
0
0
0
0
0
0
3.50707e-07
7.74073e-07
7.57222e-07
4.4411e-07
4.28707e-08
0
0
0
0
0
0
0
0
0
0
0
0
0
0
0
0
0
0
0
0
0
0
0
0
0
0
0
0
0
0
0
0
0
0
0
1.10503e-07
0
0
0
0
0
0
5.20619e-07
8.56736e-07
8.74904e-07
6.03669e-07
2.1307e-07
6.58779e-07
2.02016e-06
2.86929e-06
2.36832e-06
1.20381e-06
0
0
0
3.03638e-07
1.44491e-06
2.42977e-06
3.46694e-06
4.53814e-06
5.52119e-06
5.91117e-06
5.59091e-06
4.75388e-06
3.6714e-06
2.56024e-06
1.56003e-06
7.51308e-07
7.18391e-08
0
0
0
0
0
0
0
0
0
0
0
5.25289e-08
1.941e-07
3.19276e-07
6.3656e-07
4.15806e-07
0
0
0
0
0
0
0
0
0
0
0
0
0
0
0
4.6465e-06
1.12257e-05
1.82276e-05
2.14323e-05
1.60985e-05
1.10061e-05
0
0
0
0
0
0
0
0
0
0
0
0
0
0
0
0
1.45594e-06
6.13198e-06
9.86064e-06
9.2225e-06
0
0
0
0
0
0
0
0
0
0
6.3656e-06
7.71834e-06
7.16895e-06
7.4432e-06
8.79177e-06
8.3068e-06
4.28907e-06
2.47898e-06
1.98686e-06
1.68234e-06
1.40141e-06
1.06748e-06
6.25251e-07
2.37948e-07
7.97504e-08
3.49238e-08
0
0
0
0
3.33756e-08
1.08414e-07
3.7639e-07
8.58886e-07
1.53002e-06
2.35856e-06
3.1717e-06
3.57115e-06
2.8393e-06
9.66214e-08
0
0
0
0
0
0
0
0
0
3.15424e-07
1.21774e-06
1.54584e-06
1.34192e-06
8.92231e-07
4.40487e-07
1.12047e-08
0
0
0
0
0
0
0
0
0
0
0
0
0
0
0
0
0
0
0
0
0
0
0
0
0
0
0
0
0
0
0
0
0
4.95988e-08
0
0
0
0
0
0
1.16098e-07
6.48002e-07
6.91901e-07
4.35096e-07
6.89302e-08
3.77823e-07
1.48774e-06
2.21039e-06
1.67435e-06
5.45337e-07
0
0
3.44884e-08
9.45354e-07
1.68754e-06
2.38759e-06
3.30572e-06
4.49924e-06
5.41476e-06
5.62521e-06
5.18457e-06
4.28249e-06
3.24469e-06
2.20364e-06
1.21368e-06
3.91058e-07
0
0
0
0
0
0
0
0
0
0
0
2.29021e-07
2.73929e-07
3.09406e-07
5.17321e-07
1.36102e-06
3.1202e-07
0
0
0
0
0
0
0
0
0
0
0
0
0
0
0
4.1817e-06
1.00983e-05
1.82398e-05
2.36923e-05
2.16473e-05
1.52457e-05
0
0
0
0
0
0
0
0
0
0
0
0
0
0
0
0
0
0
0
7.9157e-08
0
0
0
0
0
0
0
0
0
2.43589e-06
4.54955e-06
5.61948e-06
6.36629e-06
7.03723e-06
6.71091e-06
4.4017e-06
2.25921e-06
1.79626e-06
1.86679e-06
1.83003e-06
1.59725e-06
1.16341e-06
6.2113e-07
2.45843e-07
1.96223e-07
2.46388e-07
8.15169e-08
0
0
0
0
0
0
0
5.2454e-08
3.29984e-08
0
0
0
0
0
0
0
0
0
0
0
0
0
0
0
5.9065e-07
9.49649e-07
9.35864e-07
7.85192e-07
6.14307e-07
3.82077e-07
0
0
0
0
0
0
0
0
0
0
0
0
0
0
0
0
0
0
0
0
0
1.7712e-07
0
0
0
0
0
0
0
0
0
0
0
0
0
0
0
0
0
0
5.21192e-07
5.79158e-07
3.24556e-07
0
7.52604e-08
9.28808e-07
1.57641e-06
1.192e-06
3.08178e-07
0
4.82245e-08
7.88873e-07
1.49462e-06
1.96149e-06
2.591e-06
3.65837e-06
4.88775e-06
5.58771e-06
5.65355e-06
5.13944e-06
4.38561e-06
3.44829e-06
2.38802e-06
1.28877e-06
2.38065e-07
0
0
0
0
0
8.07625e-07
1.7616e-06
1.76549e-06
1.16418e-06
7.78613e-07
8.38179e-07
8.11641e-07
5.73043e-07
4.48977e-07
7.99468e-07
1.20333e-06
4.06457e-07
0
0
0
0
0
0
0
0
0
0
0
0
0
0
0
2.9185e-06
7.81611e-06
1.66099e-05
2.43378e-05
2.49115e-05
1.96852e-05
0
0
0
0
0
0
0
0
0
0
0
0
0
0
0
0
0
0
0
0
0
0
0
0
0
1.71877e-06
3.41079e-06
4.36167e-06
4.85763e-06
5.17625e-06
5.44736e-06
5.71652e-06
5.99103e-06
5.8653e-06
4.59338e-06
2.34662e-06
6.91931e-07
5.66412e-07
1.15029e-06
1.58374e-06
1.64316e-06
1.31288e-06
7.2216e-07
2.29035e-07
1.42979e-07
3.16878e-07
3.21372e-07
3.93136e-08
0
0
0
0
0
0
0
0
0
0
0
0
0
0
0
0
0
0
0
0
0
0
0
0
2.85109e-07
2.52575e-07
1.26824e-07
4.75696e-08
6.28363e-08
1.50447e-07
2.19577e-09
0
0
0
0
0
0
0
0
0
0
0
0
0
0
0
0
0
0
0
0
0
0
0
0
0
0
0
0
0
0
0
0
5.86569e-08
0
0
0
0
0
2.36427e-07
5.0032e-07
2.67416e-07
0
0
3.51471e-07
9.1721e-07
7.96426e-07
3.44028e-07
3.25903e-07
9.55594e-07
1.88769e-06
2.63102e-06
3.17136e-06
3.97558e-06
5.14469e-06
6.14423e-06
6.58284e-06
6.48877e-06
6.0422e-06
5.36518e-06
4.32212e-06
2.97009e-06
1.5103e-06
0
0
0
1.42725e-07
7.03607e-07
1.27938e-06
2.68179e-06
4.54671e-06
5.36764e-06
4.75604e-06
3.13419e-06
2.22638e-06
1.5426e-06
9.35283e-07
6.54636e-07
1.04438e-06
1.30607e-06
6.38849e-07
0
0
0
0
0
0
0
0
0
0
0
0
0
0
0
0
3.61582e-06
1.29197e-05
2.34721e-05
2.6178e-05
2.33832e-05
0
0
0
0
0
0
0
0
0
0
0
0
0
0
0
0
0
0
0
0
0
0
0
0
0
2.22515e-06
3.88506e-06
4.70155e-06
5.06698e-06
5.09949e-06
5.13482e-06
5.29789e-06
5.4616e-06
5.15532e-06
3.8145e-06
1.70006e-06
0
0
8.70523e-08
8.39817e-07
1.29502e-06
1.31834e-06
9.58107e-07
4.32524e-07
1.13522e-07
1.70498e-07
3.28077e-07
2.65212e-07
1.00672e-07
7.43554e-08
4.77015e-08
0
0
0
0
0
0
0
0
0
0
0
0
0
0
0
0
0
0
0
0
0
2.94137e-07
1.20043e-07
0
0
0
0
0
0
0
0
0
0
0
0
0
0
0
0
0
0
0
0
0
0
0
0
0
0
0
0
0
0
0
0
0
0
0
0
0
9.10938e-08
0
0
0
0
0
0
2.61193e-07
1.69334e-07
0
0
0
3.30904e-07
4.79047e-07
5.57861e-07
1.13516e-06
2.30298e-06
3.66015e-06
4.76236e-06
5.61617e-06
6.59921e-06
7.87537e-06
8.70744e-06
9.01361e-06
8.86771e-06
8.52239e-06
7.78049e-06
6.32262e-06
4.31308e-06
1.96899e-06
0
0
0
0
1.74548e-06
3.3209e-06
5.0387e-06
7.49234e-06
8.92939e-06
8.72089e-06
6.22644e-06
3.96609e-06
2.39628e-06
1.33919e-06
9.11566e-07
1.21619e-06
1.55346e-06
6.8213e-07
0
0
0
0
0
0
0
0
0
0
0
0
3.76263e-06
3.53478e-06
0
0
0
6.76509e-06
2.09432e-05
2.62401e-05
2.55351e-05
0
0
0
0
0
0
0
0
0
0
0
0
0
0
0
0
0
0
0
0
0
0
0
0
0
7.27075e-07
1.97845e-06
2.63832e-06
3.05107e-06
3.40305e-06
3.67248e-06
3.91741e-06
4.20778e-06
4.24083e-06
3.54947e-06
1.98866e-06
2.81622e-07
0
0
0
5.66169e-07
9.18722e-07
9.64163e-07
6.93384e-07
2.91448e-07
9.40709e-08
1.47504e-07
2.2112e-07
2.15037e-07
2.41014e-07
2.71509e-07
1.11516e-07
0
0
0
0
0
0
0
0
0
0
0
0
0
0
0
0
0
0
0
0
5.41337e-07
4.94843e-07
6.15614e-09
0
0
0
0
0
0
0
0
0
0
0
0
0
0
0
0
0
0
0
0
0
0
0
0
0
1.80808e-07
0
0
0
0
0
0
0
0
0
0
0
0
0
0
0
0
0
0
0
0
0
0
0
1.40562e-07
7.29602e-07
1.97161e-06
3.82837e-06
5.82468e-06
7.49706e-06
8.77699e-06
9.98005e-06
1.13829e-05
1.23509e-05
1.28136e-05
1.29213e-05
1.26679e-05
1.1505e-05
9.30693e-06
6.49301e-06
2.4135e-06
0
0
0
0
8.03729e-07
5.69652e-06
8.1817e-06
1.0911e-05
1.25506e-05
1.25449e-05
9.60414e-06
5.92067e-06
3.3775e-06
1.80311e-06
1.20342e-06
1.3667e-06
1.84955e-06
2.34429e-07
0
0
0
0
0
0
0
0
0
0
0
8.63188e-06
1.41762e-05
1.20663e-05
0
0
0
0
1.64901e-05
2.52596e-05
2.62492e-05
0
0
0
0
0
0
0
0
0
0
0
0
0
0
0
0
0
0
0
0
0
0
0
0
8.96325e-08
9.52906e-07
1.28206e-06
1.37124e-06
1.38645e-06
1.42956e-06
1.59159e-06
1.90337e-06
2.26327e-06
2.51695e-06
2.49327e-06
2.01438e-06
9.8095e-07
0
0
0
0
3.13947e-07
6.01324e-07
6.46493e-07
4.44283e-07
1.84332e-07
5.3656e-08
4.81466e-08
9.57247e-08
2.02124e-07
3.43968e-07
3.73693e-07
2.06111e-07
0
0
0
0
0
0
0
0
0
0
0
0
0
0
0
0
0
0
0
5.4518e-07
8.99379e-07
3.09703e-07
0
0
0
0
0
0
0
0
0
0
0
0
0
0
0
0
0
0
0
0
0
0
0
8.68395e-08
9.96036e-07
5.26276e-07
0
0
0
0
0
0
0
0
0
0
0
0
0
0
0
0
0
0
0
0
0
0
0
0
7.97184e-07
2.66761e-06
5.27524e-06
8.06083e-06
1.04834e-05
1.23707e-05
1.40817e-05
1.58263e-05
1.72382e-05
1.82163e-05
1.86775e-05
1.80251e-05
1.60212e-05
1.31466e-05
8.60264e-06
1.23682e-06
0
0
2.26854e-06
0
0
7.22026e-06
1.2038e-05
1.48958e-05
1.62835e-05
1.60835e-05
1.28016e-05
7.85445e-06
4.40597e-06
2.31197e-06
1.48794e-06
1.5024e-06
2.14804e-06
0
0
0
0
0
0
0
0
0
0
0
8.72479e-06
2.21569e-05
2.9284e-05
2.56327e-05
4.46687e-06
0
0
0
1.00792e-05
2.31578e-05
2.6001e-05
0
0
0
0
0
0
0
0
0
0
0
0
0
0
0
0
2.94534e-07
3.45004e-07
1.57498e-07
0
0
0
0
0
1.698e-06
1.6472e-06
1.45245e-06
1.10806e-06
7.46547e-07
5.219e-07
4.60127e-07
4.98234e-07
6.02875e-07
8.03988e-07
1.03012e-06
1.11034e-06
8.28236e-07
7.60061e-08
0
0
0
0
1.09719e-07
3.09769e-07
3.33247e-07
2.20254e-07
6.18117e-08
0
0
0
1.72359e-07
3.62977e-07
4.5526e-07
4.49125e-07
4.299e-07
4.69665e-07
5.85337e-07
7.44642e-07
8.94199e-07
9.96857e-07
1.02542e-06
9.15662e-07
5.42337e-07
0
0
0
0
0
0
3.70391e-09
0
0
2.61104e-07
9.95704e-07
6.57768e-07
0
0
0
0
0
0
0
0
0
0
0
0
0
0
0
0
0
0
0
0
0
7.48051e-08
3.09478e-07
9.02785e-07
1.34019e-06
1.0662e-06
0
0
0
0
0
0
0
0
0
0
0
0
0
0
0
0
0
0
0
0
0
0
0
0
7.11625e-07
3.08875e-06
6.4328e-06
1.01376e-05
1.35744e-05
1.63796e-05
1.88673e-05
2.12528e-05
2.31754e-05
2.47708e-05
2.49261e-05
2.32676e-05
2.06947e-05
1.24686e-05
6.14198e-06
3.86097e-06
1.78984e-06
6.77812e-06
1.47166e-05
1.8362e-05
1.31579e-05
5.74045e-06
1.56708e-05
1.88965e-05
1.97514e-05
1.90977e-05
1.54913e-05
9.53215e-06
5.33793e-06
2.78223e-06
1.69434e-06
1.59556e-06
2.40139e-06
0
0
0
0
0
0
0
0
0
0
2.20119e-06
2.22187e-05
4.00482e-05
4.98744e-05
4.60422e-05
1.52547e-05
0
0
0
1.95411e-06
1.9941e-05
2.49253e-05
0
0
0
0
0
0
0
3.69103e-07
4.19141e-07
2.13583e-07
0
0
0
0
0
8.75685e-07
8.26075e-07
6.48369e-07
4.93215e-07
4.07972e-07
2.30341e-07
0
0
0
7.47602e-07
1.07219e-06
9.73027e-07
8.17257e-07
5.08724e-07
1.79375e-07
4.91284e-08
6.39997e-08
5.93507e-08
3.18529e-08
2.98196e-08
4.07916e-08
0
0
0
0
0
0
0
0
3.81008e-08
6.40905e-08
7.48359e-10
0
0
0
0
1.5156e-07
4.24198e-07
6.89177e-07
9.53416e-07
1.24366e-06
1.57807e-06
1.95443e-06
2.3528e-06
2.74998e-06
3.06037e-06
3.11115e-06
2.62193e-06
1.41425e-06
2.41836e-08
0
0
0
0
0
1.95364e-07
0
2.38085e-08
7.38409e-07
9.0148e-07
1.22136e-07
0
0
0
0
0
0
0
0
0
0
0
0
0
0
0
0
0
0
4.31175e-07
7.60451e-07
8.34459e-07
1.06032e-06
1.54579e-06
1.75871e-06
1.50855e-06
8.78549e-07
0
0
0
0
0
6.33718e-07
0
0
0
0
0
0
0
0
0
0
0
0
0
0
0
0
0
4.22647e-07
3.01275e-06
6.81047e-06
1.13119e-05
1.58123e-05
1.97522e-05
2.31426e-05
2.60495e-05
2.86733e-05
3.03592e-05
2.92983e-05
2.61328e-05
1.06704e-05
7.6786e-06
7.19684e-06
4.41857e-06
1.51014e-06
6.1342e-06
2.00933e-05
2.80994e-05
4.37217e-05
1.09623e-05
1.63133e-05
2.13365e-05
2.20659e-05
2.1083e-05
1.72287e-05
1.06405e-05
5.98514e-06
3.11259e-06
1.77449e-06
1.61971e-06
2.56959e-06
0
0
0
0
0
0
0
0
0
0
1.2706e-05
3.89955e-05
6.26184e-05
7.68921e-05
7.58484e-05
3.63333e-05
0
0
0
0
1.5791e-05
2.31141e-05
0
0
0
0
0
0
4.9844e-07
1.40593e-06
1.39383e-06
1.37337e-06
1.47184e-06
1.32395e-06
5.53352e-07
0
3.5752e-07
1.00297e-06
5.02388e-07
5.51542e-08
0
0
0
0
0
0
0
0
7.11621e-08
2.05016e-07
1.94334e-07
3.51258e-08
0
0
0
0
0
0
0
0
0
0
0
0
0
0
0
0
0
0
0
0
0
0
3.41523e-07
7.71597e-07
1.23242e-06
1.69737e-06
2.1774e-06
2.6977e-06
3.2873e-06
3.97823e-06
4.70946e-06
5.27412e-06
5.17224e-06
3.68432e-06
1.1462e-06
0
0
0
0
0
2.23194e-07
8.28884e-08
0
3.9347e-07
8.56714e-07
3.93887e-07
0
0
0
0
0
0
0
0
0
0
0
0
0
0
0
0
0
0
1.59593e-06
1.71263e-06
1.59231e-06
1.69775e-06
1.91572e-06
1.86289e-06
1.65123e-06
1.31357e-06
7.40631e-07
0
0
0
0
5.96849e-07
3.94635e-07
0
0
0
0
0
0
0
0
0
0
0
0
0
0
0
0
1.44017e-07
2.64258e-06
6.43569e-06
1.12373e-05
1.63354e-05
2.1214e-05
2.54746e-05
2.88838e-05
3.18271e-05
3.22857e-05
2.80616e-05
5.98825e-06
6.4453e-06
8.82228e-06
7.26642e-06
2.93345e-06
0
4.5561e-06
3.16825e-05
3.73123e-05
5.9804e-05
5.37934e-05
1.08755e-05
2.01348e-05
2.22002e-05
2.15494e-05
1.78354e-05
1.1097e-05
6.29361e-06
3.2623e-06
1.70894e-06
1.55336e-06
2.60593e-06
0
0
0
9.30979e-08
0
0
0
0
0
0
2.4932e-05
5.86645e-05
9.01668e-05
0.000111154
0.000118003
7.5759e-05
0
0
0
0
1.11434e-05
2.06096e-05
0
0
0
0
4.01069e-07
1.83229e-06
1.91659e-06
1.68045e-06
2.38029e-06
3.06044e-06
3.04068e-06
2.03788e-06
0
0
0
0
1.62018e-07
0
0
0
0
0
0
0
0
0
0
0
0
0
0
0
0
0
0
0
0
0
0
0
0
0
0
0
0
0
0
0
0
0
0
0
4.01104e-07
9.13163e-07
1.41799e-06
1.85807e-06
2.26899e-06
2.7259e-06
3.31044e-06
4.1097e-06
5.16537e-06
6.41618e-06
7.33916e-06
6.57427e-06
3.08198e-06
0
0
0
0
0
9.41553e-08
3.06389e-07
8.9874e-08
2.00825e-07
5.10139e-07
4.25208e-07
0
0
0
0
0
0
0
0
0
0
0
0
0
0
0
0
7.71592e-08
1.0346e-06
2.15818e-06
2.72884e-06
2.43916e-06
2.33382e-06
2.25988e-06
1.93207e-06
1.6909e-06
1.51202e-06
1.30401e-06
6.40127e-07
0
0
0
1.70505e-07
8.65456e-07
6.08344e-08
0
0
0
0
0
0
0
0
0
0
0
0
0
0
0
0
2.34282e-06
5.93587e-06
1.05807e-05
1.57754e-05
2.09228e-05
2.54388e-05
2.89485e-05
3.03939e-05
2.5642e-05
1.13172e-06
3.44147e-06
8.60477e-06
8.886e-06
5.2891e-06
8.7938e-09
0
0
1.40739e-05
3.20974e-05
6.52915e-05
0.000102079
4.00092e-06
1.44813e-05
1.96284e-05
2.03992e-05
1.73888e-05
1.09789e-05
6.29803e-06
3.24102e-06
1.47388e-06
1.37029e-06
2.45722e-06
0
0
0
2.18971e-07
0
0
0
0
0
6.47025e-06
3.74458e-05
7.99877e-05
0.000122582
0.00015405
0.000176389
0.000148859
0
0
0
0
6.65592e-06
1.75853e-05
5.20342e-07
3.32108e-07
1.42246e-07
5.71485e-08
1.73654e-08
2.95645e-08
0
3.50453e-07
1.6665e-06
1.68167e-06
9.12765e-07
0
0
0
0
0
0
0
0
0
0
0
0
0
0
0
0
0
0
0
0
0
0
0
0
0
0
0
0
0
0
0
0
0
0
0
0
0
0
0
0
3.84818e-08
5.28187e-07
1.05596e-06
1.44596e-06
1.65794e-06
1.80034e-06
2.0197e-06
2.42687e-06
3.12482e-06
4.22952e-06
5.89175e-06
7.9946e-06
9.45289e-06
6.40233e-06
0
0
0
0
0
0
5.06009e-07
3.53536e-07
2.31097e-07
9.14851e-08
3.81566e-08
0
0
0
0
0
0
0
0
0
0
0
0
0
1.63169e-07
7.06301e-08
8.56547e-08
6.05185e-07
2.95106e-06
7.36074e-07
3.22707e-06
3.13736e-06
2.81685e-06
2.49838e-06
1.96774e-06
1.60888e-06
1.47648e-06
1.44325e-06
1.23901e-06
5.13371e-07
0
0
0
8.37059e-07
5.7543e-07
0
0
0
0
0
0
0
0
0
0
0
0
0
0
0
0
1.60126e-06
5.09127e-06