/*--------------------------------*- C++ -*----------------------------------*\
  =========                 |
  \\      /  F ield         | OpenFOAM: The Open Source CFD Toolbox
   \\    /   O peration     | Website:  https://openfoam.org
    \\  /    A nd           | Version:  9
     \\/     M anipulation  |
\*---------------------------------------------------------------------------*/
FoamFile
{
    format      ascii;
    class       volScalarField;
    location    "0.098";
    object      p;
}
// * * * * * * * * * * * * * * * * * * * * * * * * * * * * * * * * * * * * * //

dimensions      [0 2 -2 0 0 0 0];

internalField   nonuniform List<scalar> 
12225
(
-910.796
-905.215
-901.678
-897.97
-893.885
-889.517
-884.827
-879.883
-874.83
-869.729
-864.563
-859.309
-853.937
-848.438
-842.77
-836.831
-830.406
-823.02
-909.516
-905.173
-901.687
-897.989
-893.908
-889.544
-884.863
-879.927
-874.876
-869.772
-864.603
-859.347
-853.979
-848.486
-842.838
-836.939
-830.644
-823.722
-909.095
-905.086
-901.685
-898.034
-893.978
-889.62
-884.944
-880.015
-874.963
-869.85
-864.667
-859.403
-854.043
-848.575
-842.97
-837.168
-831.079
-824.673
-908.758
-904.959
-901.683
-898.116
-894.096
-889.738
-885.061
-880.136
-875.086
-869.967
-864.779
-859.516
-854.174
-848.741
-843.201
-837.521
-831.675
-825.74
-907.552
-904.78
-901.708
-898.254
-894.278
-889.924
-885.242
-880.314
-875.253
-870.122
-864.929
-859.673
-854.355
-848.971
-843.514
-837.978
-832.381
-826.842
-908.39
-904.682
-901.788
-898.455
-894.525
-890.162
-885.468
-880.538
-875.478
-870.347
-865.153
-859.906
-854.617
-849.289
-843.926
-838.545
-833.19
-827.983
-906.244
-904.445
-901.954
-898.753
-894.869
-890.505
-885.79
-880.842
-875.76
-870.608
-865.412
-860.186
-854.939
-849.681
-844.425
-839.201
-834.068
-829.133
-905.62
-904.358
-902.207
-899.147
-895.299
-890.904
-886.176
-881.216
-876.123
-870.973
-865.784
-860.574
-855.365
-850.175
-845.025
-839.952
-835.018
-830.309
-903.536
-904.36
-902.643
-899.741
-895.898
-891.494
-886.704
-881.699
-876.567
-871.387
-866.191
-861.004
-855.846
-850.736
-845.698
-840.772
-836.013
-831.492
-904.261
-904.673
-903.282
-900.489
-896.628
-892.155
-887.313
-882.278
-877.117
-871.931
-866.741
-861.573
-856.454
-851.41
-846.472
-841.675
-837.067
-832.699
-901.24
-905.297
-904.347
-901.561
-897.607
-893.042
-888.085
-882.953
-877.75
-872.534
-867.334
-862.188
-857.12
-852.152
-847.311
-842.63
-838.149
-833.908
-903.033
-906.719
-905.765
-902.81
-898.668
-893.893
-888.919
-883.721
-878.472
-873.236
-868.03
-862.896
-857.856
-852.94
-848.171
-843.58
-839.197
-835.051
-909.849
-909.7
-907.793
-904.403
-899.992
-895.084
-889.916
-884.608
-879.279
-873.967
-868.746
-863.619
-858.615
-853.756
-849.06
-844.551
-840.252
-836.182
-912.707
-912.773
-910.432
-906.485
-901.731
-896.558
-891.208
-885.768
-880.345
-875
-869.748
-864.62
-859.631
-854.807
-850.165
-845.724
-841.501
-837.501
-916.492
-918.307
-914.654
-909.706
-904.35
-898.731
-893.02
-887.322
-881.732
-876.281
-870.983
-865.819
-860.844
-856.057
-851.471
-847.097
-842.941
-839.005
-934.047
-925.758
-919.966
-913.774
-907.561
-901.345
-895.255
-889.298
-883.511
-877.924
-872.57
-867.361
-862.377
-857.607
-853.051
-848.717
-844.608
-840.718
-942.061
-935.45
-927.487
-919.685
-912.132
-905.018
-898.241
-891.857
-885.75
-879.928
-874.36
-869.127
-864.132
-859.372
-854.846
-850.55
-846.479
-842.624
-966.94
-950.133
-936.852
-926.494
-917.327
-909.072
-901.605
-894.693
-888.258
-882.257
-876.608
-871.278
-866.232
-861.451
-856.921
-852.63
-848.568
-844.723
-980.042
-960.761
-945.022
-932.683
-922.253
-913.114
-905.099
-897.798
-891.087
-884.86
-879.052
-873.606
-868.484
-863.662
-859.115
-854.82
-850.761
-846.924
-985.095
-963.308
-947.081
-934.489
-923.919
-914.95
-906.882
-899.541
-892.796
-886.552
-880.735
-875.29
-870.172
-865.351
-860.801
-856.506
-852.449
-848.614
-983.151
-961.171
-946.556
-934.359
-924.309
-915.588
-907.693
-900.479
-893.82
-887.611
-881.803
-876.356
-871.244
-866.429
-861.886
-857.597
-853.545
-849.714
-962.514
-952.669
-942.33
-932.602
-923.651
-915.436
-907.847
-900.836
-894.323
-888.213
-882.463
-877.057
-871.973
-867.176
-862.643
-858.363
-854.319
-850.496
-954.087
-947.423
-939.186
-930.755
-922.703
-915.042
-907.79
-900.983
-894.598
-888.574
-882.883
-877.519
-872.467
-867.695
-863.183
-858.914
-854.877
-851.058
-944.881
-942.995
-936.601
-929.263
-921.831
-914.607
-907.634
-901.009
-894.746
-888.802
-883.163
-877.834
-872.804
-868.049
-863.547
-859.283
-855.25
-851.43
-946.782
-940.301
-934.594
-928.019
-921.133
-914.212
-907.437
-900.952
-894.784
-888.911
-883.327
-878.038
-873.032
-868.289
-863.793
-859.534
-855.504
-851.691
-942.963
-938.656
-933.26
-927.121
-920.596
-913.914
-907.305
-900.921
-894.818
-888.987
-883.431
-878.162
-873.171
-868.44
-863.953
-859.7
-855.672
-851.86
-942.587
-937.374
-932.398
-926.567
-920.235
-913.693
-907.174
-900.862
-894.815
-889.031
-883.509
-878.26
-873.279
-868.551
-864.062
-859.808
-855.78
-851.97
-938.803
-936.207
-931.787
-926.195
-919.998
-913.573
-907.125
-900.837
-894.812
-889.045
-883.537
-878.3
-873.331
-868.613
-864.131
-859.877
-855.845
-852.027
-936.838
-935.701
-931.488
-926.007
-919.865
-913.488
-907.071
-900.805
-894.802
-889.064
-883.576
-878.346
-873.377
-868.652
-864.164
-859.907
-855.874
-852.057
-935.507
-935.309
-931.347
-925.924
-919.824
-913.472
-907.061
-900.793
-894.785
-889.046
-883.567
-878.351
-873.396
-868.683
-864.197
-859.933
-855.889
-852.058
-762.049
-762.01
-761.924
-761.747
-761.456
-761.059
-760.672
-760.424
-760.402
-760.63
-761.097
-761.753
-762.536
-763.387
-764.254
-765.093
-765.865
-766.533
-767.062
-767.421
-767.584
-767.529
-767.245
-766.743
-766.032
-765.126
-764.047
-762.825
-761.498
-760.086
-758.627
-757.15
-755.665
-754.199
-752.757
-751.293
-749.703
-747.929
-746.071
-744.178
-742.132
-739.845
-737.535
-735.466
-733.466
-731.442
-729.284
-727.214
-725.928
-724.23
-722.248
-720.83
-720.828
-721.549
-722.889
-724.529
-726.328
-728.098
-729.739
-731.138
-732.236
-732.976
-733.321
-733.243
-732.732
-731.781
-730.398
-728.599
-726.405
-723.842
-720.94
-717.731
-714.254
-710.545
-706.64
-702.57
-698.365
-694.05
-689.647
-685.172
-680.639
-676.057
-671.43
-666.762
-662.05
-657.295
-652.495
-647.647
-642.752
-637.807
-632.814
-627.773
-622.686
-617.559
-612.4
-607.218
-602.022
-596.824
-591.645
-586.502
-581.423
-576.467
-571.712
-567.191
-562.882
-558.783
-554.88
-551.014
-547.119
-543.707
-541.28
-539.399
-537.114
-534.561
-531.967
-528.905
-525.905
-523.307
-521.04
-519.118
-517.627
-516.684
-516.074
-515.811
-515.818
-516.033
-516.39
-516.805
-517.17
-517.341
-517.143
-516.384
-514.867
-512.416
-508.884
-504.171
-498.238
-491.138
-483
-474.024
-464.466
-454.62
-444.782
-435.224
-426.163
-417.743
-410.037
-403.056
-396.783
-391.082
-385.856
-380.994
-376.39
-371.952
-367.602
-363.276
-358.924
-354.503
-349.982
-345.34
-340.566
-335.674
-330.701
-325.685
-320.727
-315.951
-311.359
-307.05
-303.075
-298.917
-294.731
-290.274
-283.498
-278.617
-276.967
-274.431
-273.474
-276.714
-282.025
-282.8
-762.364
-762.337
-762.284
-762.159
-761.913
-761.601
-761.361
-761.284
-761.412
-761.753
-762.277
-762.936
-763.684
-764.478
-765.281
-766.059
-766.779
-767.408
-767.915
-768.27
-768.449
-768.434
-768.209
-767.752
-767.045
-766.113
-764.992
-763.717
-762.323
-760.84
-759.3
-757.744
-756.205
-754.668
-753.144
-751.621
-749.935
-748.079
-746.226
-744.301
-742.222
-740.042
-737.783
-735.576
-733.459
-731.089
-728.728
-726.322
-724.856
-724.598
-723.311
-722.592
-722.831
-723.715
-725.081
-726.674
-728.363
-729.989
-731.475
-732.723
-733.682
-734.294
-734.522
-734.335
-733.718
-732.666
-731.184
-729.284
-726.993
-724.339
-721.36
-718.089
-714.561
-710.809
-706.866
-702.764
-698.531
-694.193
-689.772
-685.283
-680.74
-676.152
-671.522
-666.852
-662.141
-657.387
-652.589
-647.744
-642.852
-637.913
-632.926
-627.891
-622.809
-617.685
-612.525
-607.341
-602.149
-596.963
-591.797
-586.673
-581.613
-576.664
-571.903
-567.387
-563.092
-559.016
-555.181
-551.431
-547.655
-544.302
-541.846
-540.021
-537.804
-535.06
-532.119
-528.857
-525.799
-523.185
-520.967
-519.182
-517.842
-516.918
-516.345
-516.086
-516.091
-516.308
-516.678
-517.12
-517.525
-517.744
-517.597
-516.883
-515.403
-512.971
-509.439
-504.709
-498.766
-491.643
-483.468
-474.442
-464.827
-454.916
-445.011
-435.389
-426.27
-417.802
-410.06
-403.059
-396.767
-391.065
-385.843
-380.989
-376.396
-371.969
-367.628
-363.311
-358.966
-354.552
-350.036
-345.399
-340.627
-335.738
-330.767
-325.748
-320.785
-316.016
-311.43
-307.114
-303.188
-299.097
-294.954
-290.939
-284.589
-279.975
-277.441
-273.839
-273.377
-277.464
-283.12
-284.267
-762.767
-762.753
-762.756
-762.739
-762.702
-762.722
-762.859
-763.144
-763.562
-764.076
-764.655
-765.281
-765.941
-766.628
-767.329
-768.026
-768.694
-769.297
-769.799
-770.164
-770.356
-770.343
-770.104
-769.622
-768.907
-767.955
-766.788
-765.441
-763.95
-762.35
-760.681
-758.98
-757.271
-755.555
-753.843
-752.118
-750.326
-748.492
-746.653
-744.742
-742.679
-740.399
-737.95
-735.374
-732.813
-730.045
-727.23
-726.189
-725.472
-725.419
-725.534
-725.838
-726.454
-727.374
-728.561
-729.902
-731.317
-732.691
-733.948
-734.997
-735.774
-736.221
-736.296
-735.967
-735.217
-734.035
-732.425
-730.402
-727.995
-725.235
-722.151
-718.779
-715.158
-711.321
-707.303
-703.137
-698.85
-694.467
-690.01
-685.495
-680.934
-676.335
-671.702
-667.035
-662.331
-657.586
-652.797
-647.96
-643.076
-638.145
-633.167
-628.143
-623.074
-617.96
-612.808
-607.626
-602.43
-597.238
-592.071
-586.949
-581.895
-576.946
-572.171
-567.633
-563.343
-559.313
-555.616
-552.082
-548.527
-545.275
-542.794
-540.801
-538.454
-535.613
-532.261
-528.694
-525.62
-523.245
-521.302
-519.704
-518.422
-517.465
-516.847
-516.556
-516.548
-516.771
-517.168
-517.662
-518.143
-518.454
-518.407
-517.79
-516.39
-514.018
-510.529
-505.827
-499.851
-492.67
-484.417
-475.292
-465.559
-455.52
-445.483
-435.732
-426.497
-417.932
-410.117
-403.076
-396.756
-391.045
-385.83
-380.99
-376.415
-372.007
-367.684
-363.382
-359.051
-354.65
-350.145
-345.518
-340.756
-335.866
-330.895
-325.883
-320.912
-316.142
-311.589
-307.296
-303.41
-299.455
-295.406
-291.125
-286.123
-281.571
-278.414
-275.173
-274.4
-278.835
-285.123
-286.483
-763.376
-763.314
-763.412
-763.648
-763.994
-764.399
-764.816
-765.233
-765.662
-766.119
-766.615
-767.15
-767.724
-768.336
-768.985
-769.656
-770.324
-770.951
-771.499
-771.927
-772.196
-772.27
-772.115
-771.707
-771.014
-770.087
-768.935
-767.563
-766.002
-764.293
-762.472
-760.594
-758.695
-756.808
-754.935
-753.056
-751.212
-749.381
-747.503
-745.587
-743.556
-741.258
-738.812
-736.233
-733.331
-730.861
-729.14
-728.299
-728.196
-728.44
-728.878
-729.502
-730.298
-731.265
-732.38
-733.591
-734.837
-736.036
-737.113
-737.989
-738.596
-738.875
-738.783
-738.285
-737.364
-736.011
-734.229
-732.025
-729.456
-726.535
-723.295
-719.776
-716.017
-712.056
-707.929
-703.667
-699.3
-694.851
-690.341
-685.787
-681.199
-676.587
-671.951
-667.29
-662.599
-657.873
-653.103
-648.286
-643.421
-638.509
-633.55
-628.545
-623.496
-618.403
-613.268
-608.096
-602.899
-597.7
-592.526
-587.402
-582.349
-577.398
-572.599
-568.006
-563.681
-559.651
-555.989
-552.58
-549.282
-546.297
-543.961
-541.975
-539.551
-536.509
-532.746
-528.882
-525.813
-523.659
-521.9
-520.325
-519.011
-518.024
-517.406
-517.123
-517.125
-517.372
-517.822
-518.407
-519.013
-519.475
-519.587
-519.119
-517.845
-515.566
-512.126
-507.432
-501.427
-494.178
-485.817
-476.55
-466.647
-456.419
-446.188
-436.25
-426.845
-418.138
-410.212
-403.118
-396.751
-391.027
-385.819
-381.001
-376.454
-372.073
-367.776
-363.498
-359.19
-354.808
-350.32
-345.703
-340.95
-336.064
-331.087
-326.076
-321.102
-316.329
-311.825
-307.576
-303.761
-300.003
-296.124
-292.413
-287.746
-283.339
-280.326
-277.431
-276.736
-281.243
-287.567
-288.35
-763.584
-763.85
-764.333
-764.908
-765.416
-765.854
-766.271
-766.69
-767.11
-767.539
-767.996
-768.501
-769.064
-769.686
-770.36
-771.067
-771.779
-772.459
-773.061
-773.541
-773.855
-773.962
-773.83
-773.429
-772.785
-771.882
-770.744
-769.388
-767.837
-766.117
-764.247
-762.269
-760.273
-758.286
-756.301
-754.365
-752.454
-750.576
-748.771
-746.909
-744.96
-742.912
-740.59
-738.033
-735.56
-733.764
-732.684
-732.274
-732.275
-732.514
-732.969
-733.651
-734.519
-735.539
-736.66
-737.834
-738.998
-740.085
-741.023
-741.742
-742.177
-742.274
-741.987
-741.287
-740.157
-738.594
-736.608
-734.205
-731.394
-728.236
-724.776
-721.056
-717.115
-712.992
-708.723
-704.339
-699.869
-695.335
-690.759
-686.154
-681.534
-676.903
-672.264
-667.612
-662.939
-658.236
-653.493
-648.704
-643.865
-638.98
-634.049
-629.074
-624.056
-618.992
-613.881
-608.724
-603.531
-598.323
-593.133
-587.994
-582.939
-578.002
-573.208
-568.594
-564.221
-560.119
-556.396
-553.053
-549.951
-547.237
-545.15
-543.339
-540.958
-537.742
-533.615
-529.585
-526.543
-524.414
-522.612
-520.932
-519.568
-518.595
-518.017
-517.766
-517.788
-518.069
-518.601
-519.329
-520.127
-520.812
-521.155
-520.907
-519.822
-517.685
-514.322
-509.622
-503.594
-496.263
-487.762
-478.305
-468.172
-457.691
-447.196
-437.002
-427.368
-418.469
-410.403
-403.212
-396.794
-391.053
-385.856
-381.064
-376.55
-372.203
-367.937
-363.687
-359.402
-355.039
-350.566
-345.959
-341.209
-336.321
-331.331
-326.308
-321.334
-316.562
-312.103
-307.942
-304.218
-300.675
-297.061
-293.593
-289.475
-285.459
-282.65
-280.164
-279.5
-283.247
-288.451
-288.189
-764.565
-765.052
-765.821
-766.422
-766.896
-767.301
-767.67
-768.049
-768.475
-768.955
-769.494
-770.098
-770.769
-771.508
-772.307
-773.145
-773.987
-774.78
-775.465
-775.981
-776.273
-776.304
-776.052
-775.514
-774.685
-773.622
-772.367
-770.943
-769.37
-767.644
-765.769
-763.802
-761.787
-759.764
-757.776
-755.8
-753.885
-752.108
-750.418
-748.771
-747.063
-745.155
-743.111
-741.082
-739.241
-737.887
-737.109
-736.796
-736.79
-737.054
-737.567
-738.308
-739.23
-740.282
-741.403
-742.537
-743.62
-744.59
-745.385
-745.939
-746.195
-746.099
-745.607
-744.69
-743.328
-741.523
-739.304
-736.607
-733.543
-730.14
-726.443
-722.499
-718.353
-714.047
-709.617
-705.096
-700.509
-695.881
-691.23
-686.569
-681.909
-677.257
-672.61
-667.964
-663.31
-658.632
-653.921
-649.164
-644.36
-639.508
-634.613
-629.677
-624.7
-619.676
-614.597
-609.458
-604.266
-599.04
-593.815
-588.635
-583.544
-578.58
-573.784
-569.187
-564.822
-560.706
-556.908
-553.563
-550.565
-548.006
-546.121
-544.577
-542.465
-539.155
-534.848
-530.731
-527.567
-525.266
-523.279
-521.501
-520.119
-519.201
-518.672
-518.431
-518.466
-518.811
-519.489
-520.446
-521.544
-522.566
-523.248
-523.309
-522.479
-520.523
-517.261
-512.587
-506.507
-499.057
-490.371
-480.668
-470.241
-459.431
-448.595
-438.067
-428.128
-418.973
-410.713
-403.39
-396.908
-391.149
-385.966
-381.207
-376.73
-372.418
-368.184
-363.959
-359.693
-355.345
-350.879
-346.274
-341.52
-336.624
-331.617
-326.577
-321.599
-316.835
-312.43
-308.381
-304.783
-301.476
-298.144
-294.941
-291.379
-287.773
-285.123
-282.954
-282.03
-284.245
-287.442
-285.972
-766.805
-767.238
-767.738
-768.098
-768.387
-768.716
-769.101
-769.537
-770.023
-770.571
-771.196
-771.907
-772.709
-773.606
-774.597
-775.657
-776.736
-777.758
-778.63
-779.259
-779.565
-779.494
-779.035
-778.196
-777.011
-775.575
-774.002
-772.355
-770.657
-768.887
-767.011
-765.055
-763.091
-761.127
-759.156
-757.263
-755.514
-753.918
-752.45
-750.992
-749.456
-747.85
-746.171
-744.515
-743.106
-742.108
-741.528
-741.3
-741.384
-741.758
-742.372
-743.181
-744.131
-745.173
-746.257
-747.331
-748.338
-749.219
-749.912
-750.354
-750.48
-750.236
-749.572
-748.453
-746.859
-744.784
-742.226
-739.304
-735.971
-732.289
-728.317
-724.113
-719.729
-715.21
-710.594
-705.914
-701.195
-696.457
-691.717
-686.989
-682.283
-677.602
-672.946
-668.308
-663.677
-659.036
-654.367
-649.656
-644.897
-640.09
-635.241
-630.353
-625.426
-620.45
-615.412
-610.297
-605.105
-599.854
-594.58
-589.343
-584.192
-579.168
-574.315
-569.689
-565.314
-561.217
-557.388
-553.962
-550.943
-548.371
-546.48
-545.062
-543.129
-540.01
-535.749
-531.648
-528.41
-525.953
-523.824
-522.001
-520.665
-519.819
-519.311
-519.068
-519.141
-519.629
-520.574
-521.896
-523.413
-524.869
-525.965
-526.389
-525.851
-524.102
-520.953
-516.293
-510.151
-502.561
-493.657
-483.661
-472.878
-461.668
-450.413
-439.472
-429.15
-419.669
-411.154
-403.653
-397.075
-391.287
-386.122
-381.403
-376.971
-372.7
-368.497
-364.296
-360.047
-355.706
-351.245
-346.641
-341.884
-336.979
-331.955
-326.893
-321.91
-317.164
-312.824
-308.92
-305.496
-302.451
-299.456
-296.559
-293.479
-290.234
-287.678
-285.633
-284.216
-284.733
-285.704
-282.847
-769.006
-769.218
-769.44
-769.666
-769.913
-770.229
-770.616
-771.062
-771.571
-772.166
-772.873
-773.704
-774.675
-775.798
-777.072
-778.462
-779.886
-781.229
-782.36
-783.151
-783.495
-783.328
-782.637
-781.431
-779.762
-777.816
-775.774
-773.746
-771.778
-769.848
-767.932
-766.032
-764.128
-762.228
-760.404
-758.717
-757.191
-755.799
-754.464
-753.147
-751.772
-750.323
-748.873
-747.578
-746.573
-745.906
-745.567
-745.536
-745.798
-746.314
-747.032
-747.911
-748.903
-749.971
-751.071
-752.158
-753.176
-754.065
-754.754
-755.17
-755.241
-754.901
-754.096
-752.788
-750.965
-748.628
-745.792
-742.487
-738.782
-734.742
-730.431
-725.913
-721.244
-716.473
-711.64
-706.776
-701.903
-697.039
-692.2
-687.396
-682.636
-677.924
-673.26
-668.635
-664.036
-659.438
-654.818
-650.16
-645.455
-640.703
-635.908
-631.076
-626.205
-621.279
-616.279
-611.184
-605.989
-600.705
-595.364
-590.061
-584.844
-579.751
-574.817
-570.123
-565.694
-561.569
-557.72
-554.163
-551.019
-548.282
-546.12
-544.515
-542.622
-539.631
-535.692
-531.882
-528.814
-526.343
-524.199
-522.427
-521.156
-520.393
-519.897
-519.671
-519.863
-520.612
-521.942
-523.733
-525.759
-527.725
-529.295
-530.128
-529.913
-528.387
-525.357
-520.703
-514.494
-506.749
-497.601
-487.283
-476.105
-464.442
-452.697
-441.26
-430.471
-420.584
-411.75
-404.022
-397.312
-391.471
-386.31
-381.626
-377.24
-373.01
-368.841
-364.666
-360.435
-356.107
-351.655
-347.058
-342.304
-337.394
-332.353
-327.265
-322.274
-317.559
-313.309
-309.586
-306.395
-303.653
-301.044
-298.501
-295.829
-292.918
-290.391
-288.268
-286.318
-285.341
-284.294
-280.141
-770.729
-770.864
-771.024
-771.187
-771.389
-771.667
-772.018
-772.445
-772.967
-773.621
-774.429
-775.417
-776.619
-778.063
-779.74
-781.578
-783.444
-785.159
-786.538
-787.422
-787.71
-787.359
-786.368
-784.73
-782.546
-780.057
-777.492
-775.027
-772.743
-770.623
-768.623
-766.699
-764.849
-763.094
-761.468
-759.99
-758.628
-757.326
-756.044
-754.739
-753.411
-752.126
-750.99
-750.095
-749.48
-749.15
-749.104
-749.332
-749.813
-750.504
-751.37
-752.379
-753.493
-754.68
-755.898
-757.099
-758.224
-759.207
-759.969
-760.427
-760.497
-760.1
-759.172
-757.675
-755.59
-752.931
-749.711
-746.016
-741.903
-737.452
-732.747
-727.865
-722.872
-717.821
-712.752
-707.69
-702.654
-697.657
-692.708
-687.815
-682.987
-678.229
-673.538
-668.907
-664.316
-659.742
-655.162
-650.555
-645.912
-641.23
-636.51
-631.752
-626.944
-622.067
-617.091
-611.996
-606.782
-601.463
-596.01
-590.652
-585.378
-580.227
-575.229
-570.451
-565.953
-561.752
-557.857
-554.162
-550.787
-547.762
-545.116
-542.932
-540.661
-537.913
-534.593
-531.422
-528.754
-526.436
-524.389
-522.734
-521.58
-520.88
-520.426
-520.274
-520.687
-521.804
-523.612
-525.948
-528.555
-531.099
-533.198
-534.468
-534.573
-533.248
-530.312
-525.677
-519.359
-511.421
-502.009
-491.359
-479.785
-467.673
-455.433
-443.468
-432.144
-421.76
-412.528
-404.518
-397.645
-391.735
-386.564
-381.904
-377.552
-373.357
-369.218
-365.068
-360.857
-356.545
-352.108
-347.525
-342.781
-337.869
-332.808
-327.692
-322.697
-318.039
-313.922
-310.435
-307.552
-305.174
-302.987
-300.825
-298.512
-295.912
-293.369
-291.009
-288.505
-286.258
-283.513
-278.233
-772.15
-772.24
-772.334
-772.446
-772.613
-772.874
-773.202
-773.602
-774.127
-774.812
-775.691
-776.813
-778.245
-780.022
-782.117
-784.417
-786.718
-788.764
-790.319
-791.223
-791.374
-790.749
-789.372
-787.279
-784.634
-781.699
-778.728
-775.926
-773.372
-771.065
-768.981
-767.063
-765.292
-763.666
-762.195
-760.807
-759.46
-758.121
-756.788
-755.499
-754.32
-753.322
-752.558
-752.049
-751.802
-751.815
-752.087
-752.604
-753.337
-754.255
-755.333
-756.542
-757.853
-759.236
-760.655
-762.059
-763.389
-764.572
-765.517
-766.126
-766.293
-765.92
-764.925
-763.247
-760.865
-757.834
-754.22
-750.063
-745.455
-740.505
-735.324
-730.01
-724.643
-719.279
-713.954
-708.688
-703.491
-698.363
-693.307
-688.322
-683.413
-678.582
-673.83
-669.151
-664.529
-659.946
-655.38
-650.813
-646.235
-641.642
-637.028
-632.38
-627.674
-622.873
-617.936
-612.84
-607.594
-602.276
-596.501
-591.136
-585.815
-580.609
-575.559
-570.698
-566.111
-561.798
-557.806
-553.996
-550.339
-546.984
-543.834
-540.908
-538.227
-535.756
-533.154
-530.674
-528.413
-526.298
-524.411
-522.915
-521.899
-521.284
-520.925
-520.916
-521.64
-523.204
-525.552
-528.493
-531.738
-534.896
-537.513
-539.157
-539.478
-538.232
-535.273
-530.578
-524.105
-515.954
-506.289
-495.351
-483.454
-470.996
-458.374
-445.974
-434.152
-423.232
-413.524
-405.153
-398.071
-392.07
-386.885
-382.245
-377.921
-373.754
-369.641
-365.514
-361.323
-357.027
-352.606
-348.043
-343.314
-338.402
-333.325
-328.188
-323.21
-318.654
-314.741
-311.578
-309.113
-307.194
-305.489
-303.722
-301.734
-299.339
-296.693
-293.966
-290.85
-287.477
-283.33
-277.092
-773.316
-773.364
-773.429
-773.514
-773.662
-773.879
-774.156
-774.508
-774.989
-775.648
-776.527
-777.695
-779.237
-781.179
-783.484
-786.009
-788.493
-790.629
-792.18
-792.995
-792.986
-792.151
-790.52
-788.189
-785.314
-782.159
-778.996
-776.04
-773.385
-771.03
-768.933
-767.044
-765.34
-763.79
-762.313
-760.856
-759.41
-758.001
-756.691
-755.544
-754.619
-753.95
-753.549
-753.406
-753.515
-753.873
-754.475
-755.3
-756.315
-757.497
-758.833
-760.302
-761.887
-763.569
-765.318
-767.084
-768.797
-770.365
-771.671
-772.587
-772.979
-772.718
-771.699
-769.852
-767.121
-763.755
-759.623
-754.868
-749.627
-744.046
-738.27
-732.423
-726.601
-720.864
-715.244
-709.753
-704.385
-699.129
-693.969
-688.896
-683.903
-678.99
-674.158
-669.405
-664.725
-660.108
-655.543
-651.017
-646.528
-642.068
-637.619
-633.152
-628.63
-624
-619.187
-614.128
-608.793
-603.224
-597.435
-591.781
-586.314
-581.035
-575.932
-570.982
-566.27
-561.835
-557.684
-553.75
-549.857
-546.207
-542.692
-539.164
-536.231
-534.022
-531.967
-529.969
-527.972
-526.034
-524.317
-522.99
-522.125
-521.624
-521.391
-521.622
-522.71
-524.761
-527.686
-531.261
-535.142
-538.854
-541.87
-543.729
-544.103
-542.788
-539.689
-534.813
-528.12
-519.73
-509.815
-498.622
-486.471
-473.806
-461.002
-448.409
-436.304
-424.955
-414.755
-405.954
-398.595
-392.466
-387.248
-382.622
-378.327
-374.189
-370.104
-366.002
-361.829
-357.548
-353.147
-348.61
-343.903
-339
-333.918
-328.78
-323.858
-319.469
-315.858
-313.131
-311.2
-309.847
-308.703
-307.4
-305.709
-303.39
-300.499
-297.246
-293.409
-288.979
-283.633
-276.554
-774.315
-774.352
-774.392
-774.445
-774.544
-774.695
-774.897
-775.173
-775.569
-776.128
-776.91
-777.999
-779.478
-781.362
-783.599
-786.033
-788.376
-790.32
-791.663
-792.27
-792.063
-791.046
-789.294
-786.937
-784.128
-781.078
-778.035
-775.186
-772.621
-770.342
-768.309
-766.479
-764.794
-763.172
-761.561
-759.971
-758.455
-757.079
-755.9
-754.969
-754.326
-753.986
-753.936
-754.147
-754.604
-755.305
-756.241
-757.384
-758.701
-760.184
-761.837
-763.655
-765.633
-767.761
-770.006
-772.302
-774.562
-776.663
-778.461
-779.789
-780.479
-780.373
-779.351
-777.367
-774.454
-770.491
-765.735
-760.29
-754.319
-748.007
-741.538
-735.072
-728.725
-722.563
-716.615
-710.877
-705.324
-699.926
-694.65
-689.476
-684.391
-679.389
-674.471
-669.639
-664.896
-660.243
-655.679
-651.205
-646.815
-642.494
-638.213
-633.933
-629.615
-625.205
-620.598
-615.673
-610.306
-604.56
-598.54
-592.583
-586.887
-581.486
-576.326
-571.336
-566.489
-561.927
-557.619
-553.563
-549.525
-545.628
-541.915
-538.067
-534.98
-532.924
-531.189
-529.422
-527.554
-525.743
-524.17
-522.997
-522.282
-521.924
-521.86
-522.352
-523.847
-526.391
-529.887
-534.059
-538.488
-542.609
-545.846
-547.746
-548.035
-546.56
-543.274
-538.153
-531.225
-522.581
-512.394
-500.929
-488.489
-475.664
-462.806
-450.27
-438.218
-426.747
-416.178
-406.925
-399.229
-392.93
-387.658
-383.035
-378.763
-374.652
-370.594
-366.515
-362.359
-358.097
-353.725
-349.224
-344.55
-339.673
-334.605
-329.493
-324.677
-320.542
-317.34
-315.15
-313.849
-313.152
-312.636
-311.864
-310.492
-308.198
-304.95
-300.994
-296.275
-290.78
-284.339
-276.484
-775.274
-775.285
-775.294
-775.309
-775.356
-775.435
-775.544
-775.703
-775.954
-776.341
-776.929
-777.799
-779.025
-780.626
-782.549
-784.63
-786.598
-788.19
-789.219
-789.546
-789.118
-787.986
-786.245
-784.003
-781.424
-778.697
-775.999
-773.452
-771.109
-768.969
-767.004
-765.154
-763.351
-761.567
-759.825
-758.188
-756.726
-755.484
-754.494
-753.803
-753.449
-753.439
-753.735
-754.291
-755.083
-756.117
-757.386
-758.854
-760.496
-762.324
-764.363
-766.622
-769.103
-771.793
-774.64
-777.566
-780.464
-783.189
-785.561
-787.368
-788.396
-788.46
-787.432
-785.251
-781.93
-777.5
-772.107
-765.932
-759.186
-752.098
-744.896
-737.777
-730.884
-724.287
-718.009
-712.032
-706.306
-700.774
-695.386
-690.105
-684.913
-679.806
-674.79
-669.876
-665.076
-660.397
-655.838
-651.395
-647.054
-642.786
-638.548
-634.302
-630.022
-625.684
-621.209
-616.442
-611.229
-605.498
-599.377
-593.208
-587.327
-581.83
-576.609
-571.604
-566.723
-562.062
-557.644
-553.508
-549.434
-545.377
-541.553
-537.68
-534.471
-532.404
-530.757
-529.052
-527.23
-525.494
-524.025
-522.975
-522.394
-522.186
-522.315
-523.105
-524.961
-527.965
-531.981
-536.647
-541.468
-545.82
-549.115
-550.948
-551.107
-549.473
-545.996
-540.693
-533.549
-524.653
-514.176
-502.394
-489.685
-476.611
-463.681
-451.291
-439.549
-428.318
-417.657
-408.036
-399.966
-393.461
-388.125
-383.502
-379.247
-375.155
-371.114
-367.051
-362.913
-358.676
-354.341
-349.881
-345.254
-340.426
-335.395
-330.345
-325.705
-321.914
-319.215
-317.656
-317.08
-317.134
-317.33
-317.124
-316.07
-313.776
-310.119
-305.336
-299.566
-292.924
-285.405
-276.792
-776.349
-776.341
-776.317
-776.287
-776.268
-776.258
-776.256
-776.277
-776.356
-776.529
-776.851
-777.393
-778.223
-779.366
-780.784
-782.353
-783.864
-785.088
-785.841
-785.993
-785.497
-784.392
-782.766
-780.719
-778.4
-775.96
-773.53
-771.188
-768.964
-766.846
-764.804
-762.8
-760.824
-758.915
-757.155
-755.623
-754.342
-753.307
-752.539
-752.099
-752.037
-752.352
-752.99
-753.881
-754.996
-756.351
-757.945
-759.744
-761.729
-763.935
-766.407
-769.163
-772.203
-775.504
-779.004
-782.612
-786.206
-789.611
-792.595
-794.891
-796.239
-796.44
-795.373
-792.976
-789.269
-784.343
-778.347
-771.479
-763.979
-756.118
-748.169
-740.382
-732.934
-725.91
-719.326
-713.147
-707.279
-701.639
-696.155
-690.776
-685.478
-680.263
-675.148
-670.157
-665.31
-660.615
-656.065
-651.641
-647.306
-643.009
-638.69
-634.307
-629.859
-625.37
-620.823
-616.094
-611.014
-605.48
-599.567
-593.513
-587.624
-582.095
-576.853
-571.832
-566.986
-562.286
-557.826
-553.607
-549.555
-545.478
-541.603
-537.855
-534.536
-532.294
-530.576
-528.85
-527.031
-525.327
-523.919
-522.953
-522.478
-522.41
-522.735
-523.798
-525.984
-529.38
-533.789
-538.798
-543.839
-548.26
-551.509
-553.246
-553.297
-551.554
-547.946
-542.481
-535.137
-525.995
-515.24
-503.163
-490.179
-476.866
-463.835
-451.568
-440.206
-429.454
-419.016
-409.221
-400.802
-394.063
-388.65
-384.025
-379.784
-375.7
-371.668
-367.617
-363.494
-359.284
-354.987
-350.577
-346.019
-341.265
-336.295
-331.353
-326.962
-323.603
-321.495
-320.662
-320.919
-321.83
-322.833
-323.252
-322.507
-320.165
-316.031
-310.327
-303.366
-295.461
-286.816
-277.421
-777.671
-777.64
-777.584
-777.509
-777.424
-777.327
-777.217
-777.102
-777.004
-776.95
-776.985
-777.162
-777.535
-778.136
-778.953
-779.92
-780.901
-781.729
-782.238
-782.292
-781.823
-780.839
-779.387
-777.535
-775.398
-773.101
-770.747
-768.4
-766.079
-763.785
-761.523
-759.311
-757.202
-755.296
-753.694
-752.421
-751.425
-750.648
-750.125
-749.942
-750.171
-750.807
-751.776
-752.989
-754.412
-756.071
-757.979
-760.104
-762.433
-765.019
-767.931
-771.191
-774.792
-778.702
-782.846
-787.12
-791.38
-795.412
-798.932
-801.631
-803.239
-803.573
-802.522
-800.024
-796.063
-790.808
-784.344
-776.87
-768.666
-760.053
-751.36
-742.891
-734.877
-727.436
-720.569
-714.25
-708.265
-702.535
-696.96
-691.475
-686.056
-680.716
-675.489
-670.414
-665.522
-660.826
-656.314
-651.943
-647.648
-643.349
-638.964
-634.433
-629.76
-625.017
-620.263
-615.435
-610.374
-604.994
-599.379
-593.69
-588.066
-582.591
-577.283
-572.171
-567.326
-562.673
-558.226
-553.941
-549.881
-545.87
-541.992
-538.354
-535.006
-532.494
-530.601
-528.801
-526.962
-525.26
-523.875
-522.949
-522.541
-522.588
-523.091
-524.377
-526.818
-530.498
-535.166
-540.354
-545.449
-549.813
-552.963
-554.61
-554.592
-552.771
-549.064
-543.432
-535.883
-526.508
-515.513
-503.213
-490.042
-476.594
-463.539
-451.411
-440.398
-430.169
-420.152
-410.4
-401.72
-394.746
-389.244
-384.607
-380.365
-376.279
-372.251
-368.211
-364.101
-359.912
-355.653
-351.307
-346.845
-342.186
-337.303
-332.52
-328.453
-325.607
-324.176
-324.164
-325.365
-327.248
-329.149
-330.267
-329.856
-327.419
-322.718
-315.994
-307.723
-298.433
-288.574
-278.334
-779.439
-779.385
-779.294
-779.168
-779.013
-778.83
-778.617
-778.375
-778.117
-777.861
-777.635
-777.475
-777.42
-777.5
-777.72
-778.058
-778.457
-778.818
-779.012
-778.91
-778.422
-777.511
-776.183
-774.434
-772.35
-770.021
-767.537
-764.967
-762.356
-759.743
-757.18
-754.749
-752.576
-750.808
-749.521
-748.648
-748.039
-747.589
-747.344
-747.418
-747.916
-748.854
-750.146
-751.683
-753.409
-755.354
-757.555
-759.996
-762.664
-765.614
-768.938
-772.667
-776.785
-781.243
-785.952
-790.794
-795.601
-800.133
-804.075
-807.108