/*--------------------------------*- C++ -*----------------------------------*\
  =========                 |
  \\      /  F ield         | OpenFOAM: The Open Source CFD Toolbox
   \\    /   O peration     | Website:  https://openfoam.org
    \\  /    A nd           | Version:  9
     \\/     M anipulation  |
\*---------------------------------------------------------------------------*/
FoamFile
{
    format      ascii;
    class       surfaceScalarField;
    location    "0.098";
    object      phi;
}
// * * * * * * * * * * * * * * * * * * * * * * * * * * * * * * * * * * * * * //

dimensions      [0 3 -1 0 0 0 0];

internalField   nonuniform List<scalar> 
24170
(
3.07853e-06
7.2825e-08
2.9536e-06
1.24928e-07
2.82644e-06
1.27161e-07
2.72666e-06
9.97795e-08
2.65739e-06
6.92755e-08
2.60488e-06
5.25074e-08
2.54736e-06
5.75232e-08
2.46959e-06
7.77678e-08
2.37161e-06
9.79813e-08
2.26513e-06
1.06479e-07
2.16273e-06
1.02393e-07
2.07311e-06
8.96271e-08
1.99696e-06
7.61471e-08
1.93049e-06
6.64708e-08
1.87224e-06
5.82479e-08
1.81697e-06
5.52713e-08
1.75907e-06
5.7898e-08
7.37729e-08
1.6853e-06
3.50451e-06
4.46581e-08
3.52835e-06
1.01092e-07
3.51033e-06
1.45185e-07
3.47894e-06
1.31165e-07
3.44599e-06
1.02225e-07
3.4198e-06
7.86968e-08
3.40462e-06
7.27047e-08
3.39815e-06
8.42341e-08
3.39501e-06
1.0112e-07
3.39055e-06
1.10946e-07
3.38096e-06
1.11984e-07
3.36446e-06
1.06126e-07
3.34126e-06
9.93433e-08
3.31319e-06
9.45436e-08
3.28161e-06
8.98258e-08
3.25079e-06
8.60924e-08
3.21699e-06
9.16995e-08
1.01998e-07
3.18876e-06
3.72619e-06
2.66976e-08
3.68716e-06
1.40125e-07
3.67675e-06
1.55597e-07
3.67982e-06
1.28097e-07
3.67696e-06
1.05082e-07
3.67045e-06
8.52069e-08
3.6689e-06
7.4258e-08
3.67566e-06
7.74664e-08
3.68909e-06
8.76896e-08
3.70499e-06
9.50464e-08
3.71928e-06
9.76995e-08
3.72815e-06
9.72525e-08
3.73088e-06
9.66107e-08
3.72765e-06
9.77751e-08
3.71937e-06
9.81047e-08
3.70755e-06
9.79121e-08
3.69659e-06
1.02665e-07
1.10264e-07
3.68832e-06
3.9165e-06
-1.61377e-08
3.90677e-06
1.49853e-07
3.87399e-06
1.88378e-07
3.85454e-06
1.47543e-07
3.8529e-06
1.06721e-07
3.86301e-06
7.50944e-08
3.88098e-06
5.62958e-08
3.90366e-06
5.47788e-08
3.92549e-06
6.58639e-08
3.94031e-06
8.0226e-08
3.94552e-06
9.2489e-08
3.94245e-06
1.00318e-07
3.93581e-06
1.03257e-07
3.93012e-06
1.03463e-07
3.92679e-06
1.01432e-07
3.92597e-06
9.87339e-08
3.92747e-06
1.01161e-07
1.07331e-07
3.93041e-06
4.11049e-06
5.81798e-08
4.11894e-06
1.4141e-07
4.12472e-06
1.826e-07
4.13553e-06
1.36729e-07
4.16312e-06
7.91319e-08
4.19707e-06
4.11401e-08
4.22625e-06
2.71224e-08
4.24812e-06
3.29093e-08
4.26398e-06
5.0004e-08
4.27368e-06
7.05208e-08
4.27662e-06
8.95527e-08
4.27329e-06
1.03646e-07
4.26579e-06
1.10758e-07
4.25711e-06
1.12145e-07
4.24893e-06
1.09611e-07
4.24217e-06
1.05495e-07
4.23881e-06
1.04516e-07
1.06875e-07
4.23927e-06
4.53348e-06
-3.33099e-08
4.49974e-06
1.75153e-07
4.45847e-06
2.23869e-07
4.43987e-06
1.55327e-07
4.44026e-06
7.87426e-08
4.44398e-06
3.74236e-08
4.44392e-06
2.71842e-08
4.44722e-06
2.96095e-08
4.46183e-06
3.53916e-08
4.48747e-06
4.48802e-08
4.51682e-06
6.01986e-08
4.54127e-06
7.91993e-08
4.55578e-06
9.62499e-08
4.56058e-06
1.07349e-07
4.55907e-06
1.11115e-07
4.55538e-06
1.09189e-07
4.55432e-06
1.0557e-07
1.02891e-07
4.55831e-06
4.82609e-06
4.41668e-08
4.76511e-06
2.36133e-07
4.77826e-06
2.10716e-07
4.80481e-06
1.28782e-07
4.83243e-06
5.11151e-08
4.85597e-06
1.38864e-08
4.86766e-06
1.54932e-08
4.86708e-06
3.0191e-08
4.86287e-06
3.96008e-08
4.86394e-06
4.38152e-08
4.87321e-06
5.09219e-08
4.88712e-06
6.52919e-08
4.89949e-06
8.38786e-08
4.90571e-06
1.01134e-07
4.90518e-06
1.11637e-07
4.89964e-06
1.14736e-07
4.89363e-06
1.11576e-07
1.06054e-07
4.89047e-06
5.18441e-06
1.17379e-07
5.16655e-06
2.53991e-07
5.18765e-06
1.89616e-07
5.20408e-06
1.12355e-07
5.21251e-06
4.26847e-08
5.22026e-06
6.13528e-09
5.22416e-06
1.15896e-08
5.22179e-06
3.25639e-08
5.21416e-06
4.72297e-08
5.20711e-06
5.08706e-08
5.20581e-06
5.22172e-08
5.21084e-06
6.02594e-08
5.21811e-06
7.66099e-08
5.2223e-06
9.69438e-08
5.22067e-06
1.13273e-07
5.21367e-06
1.21734e-07
5.20507e-06
1.2017e-07
1.11852e-07
5.19928e-06
5.56409e-06
1.32541e-07
5.58386e-06
2.34225e-07
5.59748e-06
1.75994e-07
5.60078e-06
1.0905e-07
5.60916e-06
3.43107e-08
5.63345e-06
-1.81581e-08
5.66516e-06
-2.01171e-08
5.68462e-06
1.31073e-08
5.68041e-06
5.14336e-08
5.65468e-06
7.65987e-08
5.61917e-06
8.77275e-08
5.58684e-06
9.25893e-08
5.56553e-06
9.7923e-08
5.55746e-06
1.05016e-07
5.5601e-06
1.10636e-07
5.57039e-06
1.11435e-07
5.5846e-06
1.05962e-07
9.60116e-08
5.60044e-06
5.94111e-06
9.68771e-08
5.97914e-06
1.96197e-07
5.98135e-06
1.73782e-07
5.96092e-06
1.29486e-07
5.93427e-06
6.09622e-08
5.91133e-06
4.77668e-09
5.90239e-06
-1.11791e-08
5.9096e-06
5.90214e-09
5.92615e-06
3.48846e-08
5.94459e-06
5.8157e-08
5.96185e-06
7.04709e-08
5.97781e-06
7.66204e-08
5.99359e-06
8.21484e-08
6.01002e-06
8.85827e-08
6.02718e-06
9.34761e-08
6.04389e-06
9.47275e-08
6.05839e-06
9.14645e-08
8.40027e-08
6.0704e-06
6.28844e-06
1.42047e-07
6.35401e-06
1.3063e-07
6.39824e-06
1.29552e-07
6.40745e-06
1.20272e-07
6.39907e-06
6.93416e-08
6.38975e-06
1.41007e-08
6.39192e-06
-1.33533e-08
6.4049e-06
-7.07166e-09
6.42822e-06
1.15585e-08
6.45943e-06
2.69522e-08
6.49332e-06
3.65758e-08
6.52239e-06
4.75515e-08
6.53966e-06
6.48738e-08
6.54033e-06
8.79203e-08
6.52376e-06
1.10043e-07
6.49364e-06
1.24847e-07
6.45592e-06
1.2919e-07
1.21079e-07
6.41884e-06
5.70153e-06
8.42412e-08
5.75561e-06
7.65415e-08
5.71802e-06
1.67151e-07
5.67783e-06
1.60457e-07
5.66994e-06
7.72285e-08
5.68719e-06
-3.14234e-09
5.71347e-06
-3.9641e-08
5.73963e-06
-3.32242e-08
5.76129e-06
-1.01032e-08
5.77905e-06
9.18713e-09
5.79449e-06
2.11398e-08
5.80904e-06
3.30032e-08
5.82254e-06
5.13719e-08
5.83455e-06
7.59076e-08
5.84308e-06
1.01516e-07
5.84758e-06
1.20345e-07
5.84617e-06
1.30598e-07
1.28708e-07
5.83855e-06
7.06201e-06
-1.19471e-07
7.14105e-06
-2.49493e-09
7.1574e-06
1.50795e-07
7.155e-06
1.62855e-07
7.14901e-06
8.32257e-08
7.1473e-06
-1.43431e-09
7.15326e-06
-4.56004e-08
7.16374e-06
-4.37114e-08
7.17182e-06
-1.81806e-08
7.16724e-06
1.37697e-08
7.14696e-06
4.14226e-08
7.11903e-06
6.0929e-08
7.0951e-06
7.53044e-08
7.08475e-06
8.6258e-08
7.09017e-06
9.60951e-08
7.10676e-06
1.03756e-07
7.12776e-06
1.09594e-07
1.13455e-07
7.14301e-06
8.61634e-06
-5.57484e-08
8.5422e-06
7.16526e-08
8.5929e-06
1.00091e-07
8.62872e-06
1.27033e-07
8.60073e-06
1.11214e-07
8.5386e-06
6.06957e-08
8.49103e-06
1.9754e-09
8.48875e-06
-4.14311e-08
8.52707e-06
-5.65012e-08
8.58212e-06
-4.12838e-08
8.62723e-06
-3.68288e-09
8.64906e-06
3.90962e-08
8.64441e-06
7.99589e-08
8.62159e-06
1.09074e-07
8.59407e-06
1.23618e-07
8.57138e-06
1.26441e-07
8.56024e-06
1.20739e-07
1.12679e-07
8.56101e-06
1.01335e-05
1.46316e-07
1.01454e-05
5.97553e-08
1.01879e-05
5.7527e-08
1.02349e-05
8.01127e-08
1.02773e-05
6.87613e-08
1.03086e-05
2.94174e-08
1.03389e-05
-2.83183e-08
1.03712e-05
-7.3751e-08
1.04081e-05
-9.34392e-08
1.04451e-05
-7.82128e-08
1.04728e-05
-3.13871e-08
1.04792e-05
3.2699e-08
1.04659e-05
9.32059e-08
1.04389e-05
1.36076e-07
1.0406e-05
1.56505e-07
1.03747e-05
1.578e-07
1.03493e-05
1.46158e-07
1.2967e-07
1.03323e-05
1.25932e-05
1.94927e-07
1.26028e-05
5.00903e-08
1.26541e-05
6.22728e-09
1.27093e-05
2.48965e-08
1.27384e-05
3.97167e-08
1.27405e-05
2.72606e-08
1.27165e-05
-4.28778e-09
1.26795e-05
-3.67626e-08
1.26381e-05
-5.20345e-08
1.25965e-05
-3.66092e-08
1.25608e-05
4.36704e-09
1.25421e-05
5.14045e-08
1.25437e-05
9.15952e-08
1.25666e-05
1.13141e-07
1.26071e-05
1.15976e-07
1.26582e-05
1.06742e-07
1.27102e-05
9.41463e-08
8.64435e-08
1.27534e-05
1.53654e-05
2.52244e-07
1.53027e-05
1.12738e-07
1.53492e-05
-4.02275e-08
1.54722e-05
-9.81363e-08
1.56075e-05
-9.5582e-08
1.56934e-05
-5.85995e-08
1.57024e-05
-1.3329e-08
1.565e-05
1.5605e-08
1.55651e-05
3.28748e-08
1.5478e-05
5.04761e-08
1.54127e-05
6.96827e-08
1.5379e-05
8.51234e-08
1.53769e-05
9.37344e-08
1.53943e-05
9.57239e-08
1.54165e-05
9.3778e-08
1.54322e-05
9.10789e-08
1.54365e-05
8.9757e-08
9.07589e-08
1.54322e-05
1.85454e-05
-5.87638e-08
1.87474e-05
-8.9313e-08
1.87926e-05
-8.54197e-08
1.87871e-05
-9.26281e-08
1.87783e-05
-8.67933e-08
1.8783e-05
-6.33062e-08
1.88071e-05
-3.74149e-08
1.88392e-05
-1.64498e-08
1.88704e-05
1.6894e-09
1.88984e-05
2.24627e-08
1.8924e-05
4.41039e-08
1.89427e-05
6.63409e-08
1.89495e-05
8.69905e-08
1.89419e-05
1.03279e-07
1.89223e-05
1.13404e-07
1.88966e-05
1.16808e-07
1.88724e-05
1.13921e-07
1.06722e-07
1.88565e-05
2.25292e-05
-2.20506e-07
2.27528e-05
-3.12935e-07
2.28056e-05
-1.38172e-07
2.2745e-05
-3.20834e-08
2.26572e-05
9.96516e-10
2.26109e-05
-1.69173e-08
2.26307e-05
-5.72159e-08
2.26955e-05
-8.12956e-08
2.2773e-05
-7.58457e-08
2.28445e-05
-4.90306e-08
2.29036e-05
-1.4989e-08
2.29556e-05
1.43885e-08
2.30054e-05
3.71267e-08
2.30573e-05
5.14381e-08
2.31111e-05
5.95487e-08
2.31639e-05
6.40471e-08
2.3211e-05
6.68209e-08
6.92101e-08
2.32485e-05
1.6901e-05
-7.29897e-08
1.67412e-05
-1.53067e-07
1.664e-05
-3.70037e-08
1.65782e-05
2.9702e-08
1.65813e-05
-2.09662e-09
1.66294e-05
-6.50523e-08
1.66817e-05
-1.09512e-07
1.67068e-05
-1.06378e-07
1.66998e-05
-6.88548e-08
1.6679e-05
-2.82063e-08
1.66665e-05
-2.52167e-09
1.6672e-05
8.90941e-09
1.66944e-05
1.47677e-08
1.67229e-05
2.28901e-08
1.6747e-05
3.54776e-08
1.67604e-05
5.06056e-08
1.67624e-05
6.48048e-08
7.39136e-08
1.67577e-05
1.46704e-05
-1.23289e-07
1.45801e-05
-6.27497e-08
1.45888e-05
-4.56709e-08
1.46294e-05
-1.09179e-08
1.46692e-05
-4.18847e-08
1.47033e-05
-9.91447e-08
1.47151e-05
-1.21288e-07
1.47095e-05
-1.00832e-07
1.46965e-05
-5.58938e-08
1.46802e-05
-1.18618e-08
1.46616e-05
1.60612e-08
1.46415e-05
2.90519e-08
1.46232e-05
3.30677e-08
1.46113e-05
3.47267e-08
1.46102e-05
3.65994e-08
1.4622e-05
3.88466e-08
1.46465e-05
4.02862e-08
3.867e-08
1.46817e-05
1.26742e-05
1.96797e-07
1.25957e-05
1.57185e-08
1.25741e-05
-2.40331e-08
1.26027e-05
-3.9507e-08
1.26355e-05
-7.46758e-08
1.26369e-05
-1.00561e-07
1.26164e-05
-1.00764e-07
1.25952e-05
-7.96931e-08
1.25918e-05
-5.24906e-08
1.26131e-05
-3.31141e-08
1.26548e-05
-2.5624e-08
1.27077e-05
-2.38855e-08
1.27609e-05
-2.0147e-08
1.28052e-05
-9.55042e-09
1.28342e-05
7.561e-09
1.28479e-05
2.51734e-08
1.28489e-05
3.92488e-08
4.4032e-08
1.28436e-05
1.1164e-05
3.14096e-08
1.11816e-05
-1.88148e-09
1.11705e-05
-1.29649e-08
1.11531e-05
-2.2105e-08
1.11258e-05
-4.73579e-08
1.1105e-05
-7.96879e-08
1.11037e-05
-9.94773e-08
1.11167e-05
-9.26979e-08
1.11354e-05
-7.12401e-08
1.11564e-05
-5.41284e-08
1.11804e-05
-4.95637e-08
1.12085e-05
-5.20455e-08
1.12396e-05
-5.1216e-08
1.127e-05
-3.99655e-08
1.12958e-05
-1.82206e-08
1.13146e-05
6.40965e-09
1.13253e-05
2.84977e-08
4.04192e-08
1.13289e-05
9.78886e-06
7.36877e-08
9.80303e-06
-1.6055e-08
9.78648e-06
3.58211e-09
9.70664e-06
5.77414e-08
9.6087e-06
5.05837e-08
9.55604e-06
-2.7034e-08
9.56471e-06
-1.08141e-07
9.61186e-06
-1.39853e-07
9.66238e-06
-1.21756e-07
9.69055e-06
-8.22982e-08
9.68854e-06
-4.75556e-08
9.66428e-06
-2.77861e-08
9.63344e-06
-2.0378e-08
9.61083e-06
-1.73551e-08
9.60584e-06
-1.32252e-08
9.61944e-06
-7.19601e-09
9.64929e-06
-1.35357e-09
8.42143e-10
9.68887e-06
8.39378e-06
2.13167e-07
8.37938e-06
-1.65833e-09
8.44175e-06
-5.87798e-08
8.50512e-06
-5.63269e-09
8.52533e-06
3.03717e-08
8.49266e-06
5.63816e-09
8.43207e-06
-4.75539e-08
8.38106e-06
-8.88396e-08
8.35858e-06
-9.92735e-08
8.36232e-06
-8.60423e-08
8.37921e-06
-6.44484e-08
8.3966e-06
-4.51766e-08
8.40765e-06
-3.14247e-08
8.41188e-06
-2.15891e-08
8.41304e-06
-1.43765e-08
8.41549e-06
-9.64682e-09
8.42228e-06
-8.1476e-09
-1.14621e-08
8.43458e-06
7.24707e-06
1.95237e-07
7.29869e-06
-5.32797e-08
7.33771e-06
-9.78074e-08
7.39413e-06
-6.20445e-08
7.45922e-06
-3.4722e-08
7.48932e-06
-2.44632e-08
7.46853e-06
-2.67619e-08
7.41413e-06
-3.44422e-08
7.3565e-06
-4.16434e-08
7.31756e-06
-4.7103e-08
7.30367e-06
-5.05602e-08
7.30991e-06
-5.14143e-08
7.32748e-06
-4.8994e-08
7.34924e-06
-4.33476e-08
7.37123e-06
-3.63645e-08
7.39208e-06
-3.05027e-08
7.41137e-06
-2.74312e-08
-2.8466e-08
7.42837e-06
6.45404e-06
1.27167e-07
6.39901e-06
1.74796e-09
6.36003e-06
-5.88258e-08
6.3812e-06
-8.32112e-08
6.42682e-06
-8.03449e-08
6.45127e-06
-4.89108e-08
6.44647e-06
-2.19655e-08
6.43301e-06
-2.09808e-08
6.42876e-06
-3.73957e-08
6.43579e-06
-5.41307e-08
6.44768e-06
-6.24525e-08
6.45829e-06
-6.20211e-08
6.46589e-06
-5.65986e-08
6.47249e-06
-4.99448e-08
6.48037e-06
-4.42433e-08
6.48987e-06
-4.00035e-08
6.49862e-06
-3.61792e-08
-3.35689e-08
6.50372e-06
5.57425e-06
2.77609e-08
5.57923e-06
-3.22976e-09
5.59088e-06
-7.04808e-08
5.6204e-06
-1.12734e-07
5.64238e-06
-1.0232e-07
5.64908e-06
-5.56105e-08
5.643e-06
-1.58903e-08
5.63203e-06
-1.00073e-08
5.62334e-06
-2.87084e-08
5.62109e-06
-5.18734e-08
5.62614e-06
-6.75081e-08
5.63634e-06
-7.22248e-08
5.64688e-06
-6.71333e-08
5.65217e-06
-5.52326e-08
5.64894e-06
-4.10127e-08
5.63735e-06
-2.84125e-08
5.62077e-06
-1.95994e-08
-1.66197e-08
5.60382e-06
4.77388e-06
-8.75766e-08
4.87575e-06
-1.05102e-07
4.92225e-06
-1.16981e-07
4.90531e-06
-9.57936e-08
4.86081e-06
-5.78211e-08
4.8383e-06
-3.31021e-08
4.85458e-06
-3.21715e-08
4.89224e-06
-4.76685e-08
4.9264e-06
-6.28678e-08
4.9423e-06
-6.77706e-08
4.93773e-06
-6.29441e-08
4.91878e-06
-5.32681e-08
4.89461e-06
-4.29672e-08
4.87335e-06
-3.39677e-08
4.85967e-06
-2.73393e-08
4.85491e-06
-2.36501e-08
4.85798e-06
-2.26696e-08
-2.43322e-08
4.86569e-06
4.17161e-06
4.0665e-06
3.94952e-06
3.85373e-06
3.79591e-06
3.76281e-06
3.73064e-06
3.68297e-06
3.6201e-06
3.55233e-06
3.48938e-06
3.43612e-06
3.39315e-06
3.35918e-06
3.33184e-06
3.30819e-06
3.28552e-06
3.26119e-06
-1.0329e-07
1.0329e-07
-2.22026e-07
1.18736e-07
-2.93269e-07
7.12428e-08
-2.48229e-07
-4.50397e-08
-3.76695e-08
-2.1056e-07
3.25899e-07
-3.63569e-07
8.02198e-07
-4.76298e-07
1.34351e-06
-5.41313e-07
1.90987e-06
-5.66362e-07
2.47033e-06
-5.60452e-07
3.00451e-06
-5.34181e-07
3.50104e-06
-4.96534e-07
3.95425e-06
-4.53213e-07
4.36157e-06
-4.07315e-07
4.72179e-06
-3.60223e-07
5.03395e-06
-3.12157e-07
5.29667e-06
-2.62721e-07
5.50818e-06
-2.11513e-07
5.66641e-06
-1.58231e-07
5.76898e-06
-1.02565e-07
5.81314e-06
-4.41596e-08
5.79773e-06
1.54067e-08
5.72112e-06
7.66096e-08
5.58226e-06
1.38865e-07
5.38596e-06
1.96297e-07
5.13727e-06
2.48689e-07
4.84366e-06
2.93605e-07
4.51084e-06
3.32829e-07
4.14893e-06
3.61907e-07
3.76894e-06
3.79984e-07
3.37004e-06
3.98903e-07
2.96078e-06
4.0926e-07
2.55323e-06
4.07548e-07
2.15386e-06
3.99373e-07
1.78221e-06
3.71651e-07
1.48058e-06
3.01629e-07
1.29009e-06
1.90491e-07
1.18007e-06
1.10023e-07
1.06675e-06
1.13319e-07
9.59035e-07
1.07712e-07
9.51822e-07
7.21233e-09
1.00014e-06
-4.83138e-08
8.3743e-07
1.62706e-07
4.53916e-07
3.83514e-07
1.88945e-07
2.64972e-07
1.53694e-07
3.52512e-08
4.80932e-07
-3.27238e-07
8.55278e-07
-3.74346e-07
8.07194e-07
4.8084e-08
3.55168e-07
4.52026e-07
-8.1745e-07
1.17262e-06
-1.94807e-06
1.13062e-06
-3.03663e-06
1.08857e-06
-4.02323e-06
9.86592e-07
-4.93884e-06
9.1561e-07
-5.76134e-06
8.22504e-07
-6.50117e-06
7.39835e-07
-7.15795e-06
6.56773e-07
-7.73789e-06
5.7994e-07
-8.24753e-06
5.09645e-07
-8.68926e-06
4.41729e-07
-9.06756e-06
3.783e-07
-9.38511e-06
3.17551e-07
-9.64338e-06
2.58266e-07
-9.84496e-06
2.01583e-07
-9.99384e-06
1.48875e-07
-1.0092e-05
9.81722e-08
-1.01448e-05
5.28218e-08
-1.0156e-05
1.11332e-08
-1.01326e-05
-2.33922e-08
-1.00784e-05
-5.41998e-08
-9.99611e-06
-8.22661e-08
-9.88927e-06
-1.06835e-07
-9.76073e-06
-1.28541e-07
-9.61351e-06
-1.4722e-07
-9.4506e-06
-1.62905e-07
-9.27502e-06
-1.75583e-07
-9.08963e-06
-1.85393e-07
-8.89696e-06
-1.92671e-07
-8.69906e-06
-1.97902e-07
-8.49742e-06
-2.01635e-07
-8.29302e-06
-2.04398e-07
-8.08638e-06
-2.0664e-07
-7.87768e-06
-2.08707e-07
-7.66682e-06
-2.1086e-07
-7.45347e-06
-2.13348e-07
-7.23699e-06
-2.1648e-07
-7.01628e-06
-2.20711e-07
-6.78952e-06
-2.26761e-07
-6.55406e-06
-2.35459e-07
-6.30687e-06
-2.4719e-07
-6.04559e-06
-2.6128e-07
-5.7697e-06
-2.75889e-07
-5.48088e-06
-2.88812e-07
-5.18205e-06
-2.98834e-07
-4.87496e-06
-3.07087e-07
-4.55662e-06
-3.18345e-07
-4.21606e-06
-3.40556e-07
-3.83731e-06
-3.78757e-07
-3.4102e-06
-4.27107e-07
-2.93476e-06
-4.75443e-07
-2.42518e-06
-5.09574e-07
-1.90628e-06
-5.189e-07
-1.39576e-06
-5.10523e-07
-8.78364e-07
-5.17395e-07
-3.81226e-07
-4.97138e-07
9.44032e-08
-4.75629e-07
6.6346e-07
-5.69057e-07
1.43743e-06
-7.73969e-07
2.39659e-06
-9.59163e-07
3.30383e-06
-9.07235e-07
3.65522e-06
-3.51396e-07
3.17847e-06
4.7675e-07
2.41246e-06
7.66017e-07
2.11105e-06
3.01411e-07
2.22824e-06
-1.1719e-07
2.25725e-06
-2.90117e-08
1.96018e-06
2.97068e-07
1.39282e-06
5.67361e-07
6.93202e-07
6.99616e-07
-3.65084e-08
7.2971e-07
-7.47534e-07
7.11026e-07
-1.42394e-06
6.7641e-07
-2.06555e-06
6.41602e-07
-2.67603e-06
6.10485e-07
-3.25856e-06
5.82527e-07
-3.81459e-06
5.56037e-07
-4.34246e-06
5.27862e-07
-4.83641e-06
4.93958e-07
-5.28674e-06
4.50324e-07
-5.68083e-06
3.94096e-07
-6.00477e-06
3.23937e-07
-6.24489e-06
2.4012e-07
-6.389e-06
1.44115e-07
-6.42809e-06
3.9086e-08
-6.35756e-06
-7.05262e-08
-6.17786e-06
-1.79709e-07
-5.89012e-06
-2.87736e-07
-5.49898e-06
-3.91141e-07
-5.0131e-06
-4.85881e-07
-4.44526e-06
-5.67835e-07
-3.81231e-06
-6.32953e-07
-3.1345e-06
-6.77812e-07
-2.43436e-06
-7.0014e-07
-1.7355e-06
-6.98854e-07
-1.0592e-06
-6.76307e-07
-4.24514e-07
-6.34683e-07
1.55882e-07
-5.80395e-07
6.76756e-07
-5.20875e-07
1.13472e-06
-4.57962e-07
1.53241e-06
-3.97691e-07
1.87609e-06
-3.43681e-07
2.17417e-06
-2.98082e-07
2.43601e-06
-2.61834e-07
2.67026e-06
-2.34258e-07
2.88484e-06
-2.14574e-07
3.08941e-06
-2.04568e-07
3.29283e-06
-2.03419e-07
3.50323e-06
-2.10404e-07
3.7369e-06
-2.33674e-07
4.00023e-06
-2.63329e-07
4.29208e-06
-2.91846e-07
4.64756e-06
-3.55485e-07
5.05415e-06
-4.06586e-07
5.471e-06
-4.16854e-07
5.97364e-06
-5.0264e-07
6.47348e-06
-4.99837e-07
6.89292e-06
-4.19441e-07
7.39162e-06
-4.98698e-07
7.62884e-06
-2.3722e-07
7.64893e-06
-2.00885e-08
7.6801e-06
-3.11757e-08
6.42257e-06
1.25753e-06
4.22137e-06
2.2012e-06
2.93e-06
1.29137e-06
2.2589e-06
6.71109e-07
1.08767e-06
1.17122e-06
-4.43479e-07
1.53115e-06
-1.71834e-06
1.27486e-06
5.45591e-07
-2.26393e-06
-2.03165e-08
1.23606e-07
-4.62266e-08
1.44647e-07
4.02103e-08
-1.5194e-08
3.38217e-07
-3.43047e-07
8.07644e-07
-6.79987e-07
1.36902e-06
-9.24943e-07
1.95342e-06
-1.0607e-06
2.52095e-06
-1.10884e-06
3.05327e-06
-1.09868e-06
3.54535e-06
-1.05253e-06
3.99828e-06
-9.87104e-07
4.41474e-06
-9.13003e-07
4.79763e-06
-8.36098e-07
5.14923e-06
-7.58912e-07
5.47063e-06
-6.81624e-07
5.76139e-06
-6.02917e-07
6.01976e-06
-5.21087e-07
6.24308e-06
-4.3484e-07
6.42857e-06
-3.4372e-07
6.57373e-06
-2.47719e-07
6.67645e-06
-1.46879e-07
6.73499e-06
-4.31379e-08
6.74093e-06
7.06734e-08
6.69369e-06
1.861e-07
6.5917e-06
2.98287e-07
6.43647e-06
4.03924e-07
6.23057e-06
4.99505e-07
5.97796e-06
5.85433e-07
5.68593e-06
6.53939e-07
5.35811e-06
7.07803e-07
5.01144e-06
7.45577e-07
4.65958e-06
7.6112e-07
4.31158e-06
7.55548e-07
3.96669e-06
7.44262e-07
3.60786e-06
7.30478e-07
3.2723e-06
6.37193e-07
2.93862e-06
5.24172e-07
2.5437e-06
5.04938e-07
2.2251e-06
4.31918e-07
2.05415e-06
2.78664e-07
1.8501e-06
2.11266e-07
1.64336e-06
1.58424e-07
1.60692e-06
1.99144e-07
1.56373e-06
4.26705e-07
1.46627e-06
3.62437e-07
1.34318e-06
1.58337e-07
8.4116e-07
1.74782e-07
-2.17965e-07
6.84779e-07
-1.83126e-06
1.66138e-06
-3.26784e-06
1.88861e-06
-4.13926e-06
2.04404e-06
-4.9609e-06
1.95225e-06
-5.72622e-06
1.85389e-06
-6.4238e-06
1.68417e-06
-7.04391e-06
1.53572e-06
-7.59188e-06
1.37047e-06
-8.07824e-06
1.22619e-06
-8.50465e-06
1.08319e-06
-8.87984e-06
9.55128e-07
-9.20366e-06
8.33467e-07
-9.47958e-06
7.17643e-07
-9.70875e-06
6.07473e-07
-9.89236e-06
5.01162e-07
-1.00333e-05
3.9924e-07
-1.01346e-05
3.02879e-07
-1.0198e-05
2.12211e-07
-1.02278e-05
1.28015e-07
-1.02266e-05
5.15853e-08
-1.01966e-05
-1.8855e-08
-1.01378e-05
-8.21498e-08
-1.00537e-05
-1.38378e-07
-9.94688e-06
-1.8904e-07
-9.81991e-06
-2.33806e-07
-9.6757e-06
-2.72742e-07
-9.51705e-06
-3.05878e-07
-9.34652e-06
-3.33426e-07
-9.16643e-06
-3.55677e-07
-8.97871e-06
-3.73109e-07
-8.78495e-06
-3.8644e-07
-8.58625e-06
-3.96596e-07
-8.38322e-06
-4.04669e-07
-8.1758e-06
-4.11811e-07
-7.96335e-06
-4.19097e-07
-7.74471e-06
-4.27349e-07
-7.51858e-06
-4.36988e-07
-7.28392e-06
-4.48005e-07
-7.04028e-06
-4.60124e-07
-6.78782e-06
-4.73168e-07
-6.52709e-06
-4.87494e-07
-6.2584e-06
-5.04149e-07
-5.98121e-06
-5.24375e-07
-5.69384e-06
-5.4865e-07
-5.39382e-06
-5.75912e-07
-5.07862e-06
-6.04013e-07
-4.74614e-06
-6.31313e-07
-4.39474e-06
-6.58483e-07
-4.02387e-06
-6.89217e-07
-3.63508e-06
-7.2935e-07
-3.23022e-06
-7.83617e-07
-2.80851e-06
-8.48819e-07
-2.37356e-06
-9.10387e-07
-1.93333e-06
-9.49807e-07
-1.49955e-06
-9.52682e-07
-1.08483e-06
-9.25237e-07
-6.63631e-07
-9.38598e-07
-2.35623e-07
-9.25146e-07
1.9938e-07
-9.10631e-07
7.29915e-07
-1.09959e-06
1.47021e-06
-1.51427e-06
2.36863e-06
-1.85758e-06
3.1815e-06
-1.72011e-06
3.60798e-06
-7.77875e-07
3.51668e-06
5.68054e-07
3.12081e-06
1.16188e-06
2.79629e-06
6.25932e-07
2.46484e-06
2.14262e-07
1.86886e-06
5.66967e-07
1.028e-06
1.13793e-06
1.74591e-07
1.42077e-06
-5.68914e-07
1.44312e-06
-1.21373e-06
1.37452e-06
-1.79867e-06
1.29597e-06
-2.35234e-06
1.23008e-06
-2.88355e-06
1.17281e-06
-3.39455e-06
1.12148e-06
-3.88594e-06
1.07392e-06
-4.35735e-06
1.02744e-06
-4.80605e-06
9.7656e-07
-5.22609e-06
9.13996e-07
-5.6082e-06
8.32441e-07
-5.94095e-06
7.26839e-07
-6.21191e-06
5.94899e-07
-6.40921e-06
4.37419e-07
-6.52208e-06
2.56985e-07
-6.53934e-06
5.6342e-08
-6.45615e-06
-1.53716e-07
-6.2632e-06
-3.72659e-07
-5.96078e-06
-5.90152e-07
-5.55364e-06
-7.98282e-07
-5.05017e-06
-9.89349e-07
-4.46276e-06
-1.15525e-06
-3.80768e-06
-1.28803e-06
-3.10483e-06
-1.38067e-06
-2.37662e-06
-1.42835e-06
-1.64516e-06
-1.43031e-06
-9.32967e-07
-1.3885e-06
-2.57657e-07
-1.30999e-06
3.7009e-07
-1.20814e-06
9.37245e-07
-1.08803e-06
1.44098e-06
-9.61699e-07
1.88169e-06
-8.38396e-07
2.26386e-06
-7.25856e-07
2.59485e-06
-6.29068e-07
2.88316e-06
-5.50146e-07
3.13854e-06
-4.89641e-07
3.37048e-06
-4.46515e-07
3.58714e-06
-4.21223e-07
3.80183e-06
-4.18108e-07
4.02618e-06
-4.34755e-07
4.26531e-06
-4.72805e-07
4.54297e-06
-5.40989e-07
4.86793e-06
-6.16805e-07
5.22233e-06
-7.09887e-07
5.6433e-06
-8.27558e-07
6.11892e-06
-8.92467e-07
6.59862e-06
-9.82341e-07
7.13859e-06
-1.0398e-06
7.64035e-06
-9.21211e-07
8.05634e-06
-9.14688e-07
8.4911e-06
-6.71974e-07
8.63529e-06
-1.64276e-07
8.57564e-06
2.84726e-08
8.75602e-06
1.07715e-06
8.13333e-06
2.82389e-06
5.98464e-06
3.44006e-06
3.64506e-06
3.01069e-06
1.9949e-06
2.82138e-06
5.74529e-07
2.95152e-06
-6.03923e-07
2.45331e-06
1.02425e-06
-1.08258e-06
-7.23169e-09
1.30838e-07
1.49785e-07
-1.23696e-08
6.31145e-07
-4.96554e-07
1.28235e-06
-9.94255e-07
1.92083e-06
-1.31847e-06
2.46961e-06
-1.47372e-06
2.91245e-06
-1.50354e-06
3.26337e-06
-1.45977e-06
3.54763e-06
-1.38294e-06
3.79267e-06
-1.29757e-06
4.02022e-06
-1.21466e-06
4.24453e-06
-1.13731e-06
4.47375e-06
-1.06532e-06
4.7113e-06
-9.96454e-07
4.95628e-06
-9.26605e-07
5.20435e-06
-8.50995e-07
5.44919e-06
-7.65927e-07
5.68407e-06
-6.69711e-07
5.90252e-06
-5.62179e-07
6.09862e-06
-4.43813e-07
6.26618e-06
-3.14443e-07
6.39831e-06
-1.75266e-07
6.49866e-06
-2.96733e-08
6.55362e-06
1.3114e-07
6.56024e-06
2.91658e-07
6.51651e-06
4.47662e-07
6.42e-06
5.96009e-07
6.27249e-06
7.32945e-07
6.0763e-06
8.50127e-07
5.83738e-06
9.46726e-07
5.56203e-06
1.02093e-06
5.26338e-06
1.05977e-06
4.95313e-06
1.0658e-06
4.63438e-06
1.06301e-06
4.32041e-06
1.04446e-06
3.98187e-06
9.75732e-07
3.61931e-06
8.86726e-07
3.29705e-06
8.27205e-07
2.99335e-06
7.35618e-07
2.69685e-06
5.75165e-07
2.43819e-06
4.69923e-07
2.15473e-06
4.41878e-07
1.94025e-06
4.13628e-07
1.84118e-06
5.25777e-07
1.56476e-06
6.38851e-07
8.01633e-07
9.21466e-07
-8.06772e-07
1.78319e-06
-2.65642e-06
2.53443e-06
-3.77242e-06
2.77738e-06
-4.62893e-06
2.74512e-06
-5.24799e-06
2.6631e-06
-5.78245e-06
2.48671e-06
-6.26103e-06
2.33246e-06
-6.71947e-06
2.14262e-06
-7.15188e-06
1.96813e-06
-7.56574e-06
1.78433e-06
-7.95501e-06
1.61547e-06
-8.3166e-06
1.44477e-06
-8.64602e-06
1.28455e-06
-8.93815e-06
1.1256e-06
-9.19178e-06
9.71274e-07
-9.40477e-06
8.20457e-07
-9.57718e-06
6.73571e-07
-9.71017e-06
5.32239e-07
-9.80422e-06
3.96929e-07
-9.86062e-06
2.6861e-07
-9.88126e-06
1.48656e-07
-9.86762e-06
3.79416e-08
-9.82362e-06
-6.28585e-08
-9.75181e-06
-1.5396e-07
-9.65449e-06
-2.35693e-07
-9.53552e-06
-3.08006e-07
-9.39816e-06
-3.71169e-07
-9.24547e-06
-4.25433e-07
-9.08026e-06
-4.71089e-07
-8.90506e-06
-5.08625e-07
-8.72213e-06
-5.38611e-07
-8.53343e-06
-5.61808e-07
-8.34066e-06
-5.7921e-07
-8.14517e-06
-5.92085e-07
-7.94782e-06
-6.02014e-07
-7.74879e-06
-6.10844e-07
-7.54737e-06
-6.20521e-07
-7.34195e-06
-6.32767e-07
-7.13023e-06
-6.48702e-07
-6.90964e-06
-6.68595e-07
-6.67785e-06
-6.91914e-07
-6.43326e-06
-7.17761e-07
-6.17516e-06
-7.45598e-07
-5.90351e-06
-7.75792e-07
-5.61848e-06
-8.09407e-07
-5.3199e-06
-8.47234e-07
-5.00693e-06
-8.88877e-07
-4.67818e-06
-9.3277e-07
-4.33205e-06
-9.77437e-07
-3.96729e-06
-1.02324e-06
-3.58377e-06
-1.07274e-06
-3.18362e-06
-1.1295e-06
-2.77058e-06
-1.19666e-06
-2.34511e-06
-1.27429e-06
-1.89895e-06
-1.35655e-06
-1.41962e-06
-1.42914e-06
-9.05313e-07
-1.46699e-06
-4.02661e-07
-1.42789e-06
4.40175e-08
-1.38528e-06
4.41315e-07
-1.32244e-06
7.91252e-07
-1.26057e-06
1.16989e-06
-1.47823e-06
1.71976e-06
-2.06414e-06
2.41622e-06
-2.55403e-06
3.06186e-06
-2.36575e-06
3.45936e-06
-1.17538e-06
3.48967e-06
5.37751e-07
3.29471e-06
1.35683e-06
2.90048e-06
1.02017e-06
2.1823e-06
9.32443e-07
1.20446e-06
1.54481e-06
2.98008e-07
2.04438e-06
-3.70679e-07
2.08946e-06
-8.78065e-07
1.95051e-06
-1.32935e-06
1.82581e-06
-1.79273e-06
1.75935e-06
-2.2812e-06
1.71855e-06
-2.7772e-06
1.66881e-06
-3.26507e-06
1.60935e-06
-3.7399e-06
1.54876e-06
-4.20219e-06
1.48973e-06
-4.65029e-06
1.42466e-06
-5.07843e-06
1.34213e-06
-5.4761e-06
1.23011e-06
-5.82921e-06
1.07996e-06
-6.1219e-06
8.87586e-07
-6.33872e-06
6.5424e-07
-6.46633e-06
3.84597e-07
-6.49747e-06
8.74829e-08
-6.4167e-06
-2.34487e-07
-6.22455e-06
-5.64811e-07
-5.92166e-06
-8.93045e-07
-5.51206e-06
-1.20788e-06
-5.00432e-06
-1.49709e-06
-4.41151e-06
-1.74806e-06
-3.75116e-06
-1.94838e-06
-3.04462e-06
-2.08721e-06
-2.31565e-06
-2.15732e-06
-1.58778e-06
-2.15818e-06
-8.83436e-07
-2.09285e-06
-2.19548e-07
-1.97388e-06
3.98374e-07
-1.82606e-06
9.58862e-07
-1.64852e-06
1.46059e-06
-1.46342e-06
1.90462e-06
-1.28243e-06
2.29489e-06
-1.11612e-06
2.63791e-06
-9.72091e-07
2.94206e-06
-8.54298e-07
3.21634e-06
-7.63923e-07
3.47068e-06
-7.00852e-07
3.71566e-06
-6.662e-07
3.96146e-06
-6.63908e-07
4.22095e-06
-6.94251e-07
4.50482e-06
-7.56667e-07
4.81628e-06
-8.52454e-07
5.16531e-06
-9.65831e-07
5.55613e-06
-1.10071e-06
5.98442e-06
-1.25585e-06
6.4598e-06
-1.36784e-06
6.96151e-06
-1.48405e-06
7.47472e-06
-1.55302e-06
8.00412e-06
-1.45061e-06
8.45017e-06
-1.36074e-06
8.82741e-06
-1.04922e-06
9.13823e-06
-4.75093e-07
9.11985e-06
4.68508e-08
9.12856e-06
1.06845e-06
9.33685e-06
2.61561e-06
8.61612e-06
4.16079e-06
6.43435e-06
5.19245e-06
3.98064e-06
5.27509e-06
2.16059e-06
4.77158e-06
9.72996e-07
3.6409e-06
1.4129e-06
5.84349e-07
7.28648e-08
5.79732e-08
7.11837e-07
-6.51341e-07
1.5162e-06
-1.30091e-06
2.13278e-06
-1.61084e-06
2.49455e-06
-1.68024e-06
2.63968e-06
-1.61884e-06
2.65488e-06
-1.51875e-06
2.62444e-06
-1.42932e-06
2.60853e-06
-1.36703e-06
2.6388e-06
-1.32785e-06
2.72509e-06
-1.30094e-06
2.86552e-06
-1.27774e-06
3.05335e-06
-1.25315e-06
3.27937e-06
-1.22248e-06
3.53235e-06
-1.17958e-06
3.79963e-06
-1.11827e-06
4.06866e-06
-1.03496e-06
4.32958e-06
-9.30633e-07
4.57593e-06
-8.08525e-07
4.80365e-06
-6.71534e-07
5.00967e-06
-5.20461e-07
5.18892e-06
-3.54515e-07
5.33379e-06
-1.74544e-07
5.44888e-06
1.60423e-08
5.53969e-06
2.00855e-07
5.59724e-06
3.90107e-07
5.61587e-06
5.77383e-07
5.59229e-06
7.5652e-07
5.52151e-06
9.20913e-07
5.40047e-06
1.06777e-06
5.23826e-06
1.18313e-06
5.04016e-06
1.25787e-06
4.80675e-06
1.29921e-06
4.55801e-06
1.31174e-06
4.29673e-06
1.30574e-06
4.00584e-06
1.26663e-06
3.71947e-06
1.1731e-06
3.46261e-06
1.08407e-06
3.1817e-06
1.01652e-06
2.90273e-06
8.54131e-07
2.74218e-06
6.30473e-07
2.60391e-06
5.80148e-07
2.24887e-06
7.68675e-07
1.64244e-06
1.13221e-06
4.92753e-07
1.78854e-06
-1.28863e-06
2.70285e-06
-2.88793e-06
3.38249e-06
-3.921e-06
3.5675e-06
-4.58891e-06
3.44529e-06
-5.13653e-06
3.29274e-06
-5.60802e-06
3.13459e-06
-6.06283e-06
2.94151e-06
-6.49436e-06
2.764e-06
-6.91968e-06
2.56794e-06
-7.33075e-06
2.3792e-06
-7.72865e-06
2.18223e-06
-8.10208e-06
1.98891e-06
-8.44702e-06
1.78971e-06
-8.75602e-06
1.59354e-06
-9.02539e-06
1.39497e-06
-9.25364e-06
1.19953e-06
-9.43892e-06
1.00573e-06
-9.58192e-06
8.16576e-07
-9.68351e-06
6.3383e-07
-9.74504e-06
4.58457e-07
-9.76889e-06
2.92458e-07
-9.75672e-06
1.36484e-07
-9.70936e-06
-9.40966e-09
-9.63554e-06
-1.36687e-07
-9.53574e-06
-2.53756e-07
-9.4131e-06
-3.58332e-07
-9.2713e-06
-4.49812e-07
-9.11381e-06
-5.28656e-07
-8.94381e-06
-5.95434e-07
-8.76406e-06
-6.5084e-07
-8.57696e-06
-6.95719e-07
-8.38458e-06
-7.30993e-07
-8.18866e-06
-7.57732e-07
-7.99067e-06
-7.77194e-07
-7.79183e-06
-7.90932e-07
-7.59295e-06
-8.00893e-07
-7.39434e-06
-8.0945e-07
-7.1956e-06
-8.19265e-07
-6.99545e-06
-8.32915e-07
-6.79178e-06
-8.52373e-07
-6.58185e-06
-8.78521e-07
-6.36274e-06
-9.11025e-07
-6.13183e-06
-9.48671e-07
-5.88738e-06
-9.90051e-07
-5.62881e-06
-1.03436e-06
-5.35658e-06
-1.08164e-06
-5.07162e-06
-1.13219e-06
-4.77444e-06
-1.18606e-06
-4.46421e-06
-1.243e-06
-4.13864e-06
-1.30301e-06
-3.79498e-06
-1.36689e-06
-3.4325e-06
-1.43522e-06
-3.05406e-06
-1.50794e-06
-2.66505e-06
-1.58567e-06
-2.26951e-06
-1.66983e-06
-1.86477e-06
-1.76128e-06
-1.43105e-06
-1.86286e-06
-9.33047e-07
-1.96499e-06
-3.56244e-07
-2.00469e-06
2.38427e-07
-1.97995e-06
8.04378e-07
-1.88839e-06
1.24054e-06
-1.69673e-06
1.56851e-06
-1.80619e-06
1.97822e-06
-2.47386e-06
2.50736e-06
-3.08317e-06
3.00153e-06
-2.85993e-06
3.37278e-06
-1.54662e-06
3.58006e-06
3.30474e-07
3.50896e-06
1.42793e-06
2.94754e-06
1.58158e-06
1.92866e-06
1.95133e-06
8.71784e-07
2.60168e-06
1.37795e-07
2.77837e-06
-3.25434e-07
2.55269e-06
-7.06713e-07
2.33179e-06
-1.12714e-06
2.24624e-06
-1.60937e-06
2.24158e-06
-2.1149e-06
2.22408e-06
-2.60288e-06