/*--------------------------------*- C++ -*----------------------------------*\
  =========                 |
  \\      /  F ield         | OpenFOAM: The Open Source CFD Toolbox
   \\    /   O peration     | Website:  https://openfoam.org
    \\  /    A nd           | Version:  9
     \\/     M anipulation  |
\*---------------------------------------------------------------------------*/
FoamFile
{
    format      ascii;
    class       surfaceScalarField;
    location    "0.098";
    object      phi_0;
}
// * * * * * * * * * * * * * * * * * * * * * * * * * * * * * * * * * * * * * //

dimensions      [0 3 -1 0 0 0 0];

internalField   nonuniform List<scalar> 
24170
(
3.0873e-06
1.09303e-07
2.95895e-06
1.28354e-07
2.83183e-06
1.27114e-07
2.73382e-06
9.80142e-08
2.66639e-06
6.74276e-08
2.61472e-06
5.16717e-08
2.55687e-06
5.78549e-08
2.47824e-06
7.86228e-08
2.37971e-06
9.85291e-08
2.27341e-06
1.06304e-07
2.17183e-06
1.01584e-07
2.08332e-06
8.85057e-08
2.00828e-06
7.50362e-08
1.94291e-06
6.53789e-08
1.88593e-06
5.69723e-08
1.83221e-06
5.37227e-08
1.77724e-06
5.49663e-08
6.54082e-08
1.71184e-06
3.51418e-06
2.95452e-08
3.53533e-06
1.07206e-07
3.51513e-06
1.47313e-07
3.48395e-06
1.29196e-07
3.45211e-06
9.92678e-08
3.42735e-06
7.64234e-08
3.4136e-06
7.1604e-08
3.40832e-06
8.39087e-08
3.40601e-06
1.00834e-07
3.40204e-06
1.10282e-07
3.39264e-06
1.10983e-07
3.37619e-06
1.04953e-07
3.35313e-06
9.80973e-08
3.32547e-06
9.30344e-08
3.29484e-06
8.7603e-08
3.26565e-06
8.29125e-08
3.2343e-06
8.63161e-08
9.00817e-08
3.20963e-06
3.73258e-06
5.01344e-08
3.69227e-06
1.47516e-07
3.68325e-06
1.56331e-07
3.68719e-06
1.25255e-07
3.6848e-06
1.01656e-07
3.67915e-06
8.20794e-08
3.67878e-06
7.19703e-08
3.68672e-06
7.59715e-08
3.70106e-06
8.64899e-08
3.71755e-06
9.3795e-08
3.73214e-06
9.63959e-08
3.74115e-06
9.59378e-08
3.74405e-06
9.5197e-08
3.74116e-06
9.59284e-08
3.73352e-06
9.52459e-08
3.72288e-06
9.35442e-08
3.71367e-06
9.55349e-08
9.75992e-08
3.70615e-06
3.92685e-06
-8.81684e-09
3.91232e-06
1.6205e-07
3.87942e-06
1.89226e-07
3.86175e-06
1.42922e-07
3.86206e-06
1.01351e-07
3.87375e-06
7.03905e-08
3.89295e-06
5.27706e-08
3.91643e-06
5.24849e-08
3.93849e-06
6.44378e-08
3.95309e-06
7.91952e-08
3.95802e-06
9.14668e-08
3.955e-06
9.8952e-08
3.94894e-06
1.01258e-07
3.94428e-06
1.00587e-07
3.94222e-06
9.73086e-08
3.94277e-06
9.29926e-08
3.94536e-06
9.29422e-08
9.49308e-08
3.94803e-06
4.11609e-06
6.28232e-08
4.12703e-06
1.51108e-07
4.13307e-06
1.83184e-07
4.14561e-06
1.30388e-07
4.17512e-06
7.18374e-08
4.21008e-06
3.54301e-08
4.23956e-06
2.32907e-08
4.26155e-06
3.04943e-08
4.27747e-06
4.85192e-08
4.28715e-06
6.95197e-08
4.29006e-06
8.85554e-08
4.28688e-06
1.02132e-07
4.27982e-06
1.08314e-07
4.27189e-06
1.0852e-07
4.26465e-06
1.04545e-07
4.25893e-06
9.87116e-08
4.25639e-06
9.5484e-08
9.47375e-08
4.25658e-06
4.5449e-06
2.35025e-08
4.5041e-06
1.91901e-07
4.46463e-06
2.22654e-07
4.44854e-06
1.4648e-07
4.45071e-06
6.96731e-08
4.45518e-06
3.09548e-08
4.45582e-06
2.26518e-08
4.46042e-06
2.58937e-08
4.47668e-06
3.22626e-08
4.50368e-06
4.25156e-08
4.5337e-06
5.85376e-08
4.55816e-06
7.7673e-08
4.57241e-06
9.4061e-08
4.57711e-06
1.0382e-07
4.57588e-06
1.05782e-07
4.57278e-06
1.01806e-07
4.57232e-06
9.59446e-08
9.08853e-08
4.57617e-06
4.82764e-06
7.50529e-08
4.77033e-06
2.49216e-07
4.78819e-06
2.04788e-07
4.81669e-06
1.17981e-07
4.84539e-06
4.09684e-08
4.86936e-06
6.99011e-09
4.88093e-06
1.10786e-08
4.88042e-06
2.64074e-08
4.87694e-06
3.57442e-08
4.87925e-06
4.02049e-08
4.88976e-06
4.80223e-08
4.90446e-06
6.29742e-08
4.91708e-06
8.14467e-08
4.92321e-06
9.76838e-08
4.92258e-06
1.06417e-07
4.91704e-06
1.07347e-07
4.91109e-06
1.01893e-07
9.43441e-08
4.90763e-06
5.18532e-06
1.63489e-07
5.17342e-06
2.61119e-07
5.19772e-06
1.80482e-07
5.2154e-06
1.00301e-07
5.22488e-06
3.14981e-08
5.23352e-06
-1.65393e-09
5.23791e-06
6.68609e-09
5.2358e-06
2.8518e-08
5.2286e-06
4.29432e-08
5.22246e-06
4.63462e-08
5.22237e-06
4.81168e-08
5.22842e-06
5.69174e-08
5.2362e-06
7.36696e-08
5.24039e-06
9.34918e-08
5.2385e-06
1.08309e-07
5.23125e-06
1.14593e-07
5.22253e-06
1.10621e-07
1.00288e-07
5.21658e-06
5.56422e-06
1.18901e-07
5.59055e-06
2.3479e-07
5.60689e-06
1.64143e-07
5.6122e-06
9.49927e-08
5.62301e-06
2.06855e-08
5.64974e-06
-2.83904e-08
5.68226e-06
-2.58268e-08
5.70094e-06
9.83824e-09
5.69527e-06
4.8607e-08
5.6686e-06
7.3022e-08
5.63325e-06
8.34629e-08
5.60211e-06
8.80602e-08
5.58251e-06
9.32705e-08
5.57613e-06
9.98659e-08
5.58009e-06
1.04348e-07
5.59117e-06
1.03515e-07
5.6055e-06
9.62972e-08
8.49329e-08
5.62085e-06
5.94255e-06
1.62612e-07
5.98534e-06
1.92005e-07
5.98957e-06
1.5991e-07
5.97087e-06
1.13699e-07
5.94584e-06
4.57107e-08
5.92502e-06
-7.56924e-09
5.91826e-06
-1.90676e-08
5.92737e-06
7.32449e-10
5.94505e-06
3.09257e-08
5.96421e-06
5.38613e-08
5.98203e-06
6.56453e-08
5.99856e-06
7.15292e-08
6.01492e-06
7.69105e-08
6.03186e-06
8.29197e-08
6.04929e-06
8.69259e-08
6.06583e-06
8.69698e-08
6.07973e-06
8.23986e-08
7.39476e-08
6.09072e-06
6.28061e-06
1.20074e-07
6.36152e-06
1.11094e-07
6.40982e-06
1.11615e-07
6.42022e-06
1.0329e-07
6.413e-06
5.29335e-08
6.40591e-06
-4.78769e-10
6.41e-06
-2.31606e-08
6.4247e-06
-1.39643e-08
6.44959e-06
6.03984e-09
6.48199e-06
2.14557e-08
6.51637e-06
3.12636e-08
6.54508e-06
4.28202e-08
6.56121e-06
6.07829e-08
6.56019e-06
8.39411e-08
6.54182e-06
1.05291e-07
6.51017e-06
1.18619e-07
6.47149e-06
1.21083e-07
1.11356e-07
6.43408e-06
5.69878e-06
-9.1842e-09
5.75973e-06
5.01436e-08
5.72395e-06
1.47395e-07
5.68777e-06
1.39475e-07
5.68413e-06
5.65697e-08
5.70363e-06
-1.99776e-08
5.73133e-06
-5.08631e-08
5.75798e-06
-4.0611e-08
5.77991e-06
-1.58976e-08
5.79797e-06
3.40222e-09
5.81368e-06
1.55484e-08
5.8285e-06
2.80037e-08
5.84213e-06
4.71542e-08
5.85403e-06
7.20391e-08
5.86216e-06
9.7165e-08
5.86597e-06
1.14808e-07
5.86351e-06
1.2354e-07
1.20223e-07
5.85464e-06
7.07523e-06
-1.61626e-07
7.15163e-06
-2.62572e-08
7.16986e-06
1.29173e-07
7.16981e-06
1.39523e-07
7.16599e-06
6.03868e-08
7.16618e-06
-2.01634e-08
7.1736e-06
-5.82883e-08
7.18492e-06
-5.19267e-08
7.19294e-06
-2.39173e-08
7.18727e-06
9.07441e-09
7.16612e-06
3.66941e-08
7.13819e-06
5.59289e-08
7.11532e-06
7.0026e-08
7.10663e-06
8.07339e-08
7.11351e-06
9.02798e-08
7.13081e-06
9.75163e-08
7.1514e-06
1.0295e-07
1.06452e-07
7.16517e-06
8.6167e-06
-5.48777e-08
8.55133e-06
3.91153e-08
8.61172e-06
6.87752e-08
8.64816e-06
1.03089e-07
8.61889e-06
8.96571e-08
8.55728e-06
4.14488e-08
8.51329e-06
-1.43064e-08
8.5155e-06
-5.41347e-08
8.55693e-06
-6.53461e-08
8.61277e-06
-4.6761e-08
8.65673e-06
-7.27169e-09
8.67625e-06
3.64083e-08
8.66935e-06
7.69231e-08
8.64521e-06
1.04878e-07
8.61746e-06
1.18032e-07
8.59533e-06
1.19644e-07
8.58512e-06
1.13163e-07
1.04879e-07
8.58669e-06
1.01166e-05
1.85938e-08
1.01629e-05
-7.23494e-09
1.0214e-05
1.77105e-08
1.02647e-05
5.23614e-08
1.03089e-05
4.55337e-08
1.03408e-05
9.47271e-09
1.03723e-05
-4.57291e-08
1.04056e-05
-8.74351e-08
1.04432e-05
-1.02977e-07
1.048e-05
-8.35415e-08
1.05065e-05
-3.37574e-08
1.05107e-05
3.21144e-08
1.04956e-05
9.20653e-08
1.04673e-05
1.33181e-07
1.04338e-05
1.51509e-07
1.04024e-05
1.51022e-07
1.03773e-05
1.38296e-07
1.21497e-07
1.03607e-05
1.26237e-05
1.55199e-07
1.26346e-05
-1.815e-08
1.26929e-05
-4.06313e-08
1.27491e-05
-3.83755e-09
1.27776e-05
1.7091e-08
1.27782e-05
8.81415e-09
1.27529e-05
-2.04676e-08
1.27153e-05
-4.97984e-08
1.26736e-05
-6.1221e-08
1.26319e-05
-4.18382e-08
1.25975e-05
6.24228e-10
1.25803e-05
4.93113e-08
1.25838e-05
8.85434e-08
1.26086e-05
1.08366e-07
1.26505e-05
1.09643e-07
1.27019e-05
9.95972e-08
1.27531e-05
8.71448e-08
8.01905e-08
1.27944e-05
1.53989e-05
1.20784e-07
1.5356e-05
2.48361e-08
1.54096e-05
-9.4291e-08
1.55367e-05
-1.30871e-07
1.56693e-05
-1.15519e-07
1.57491e-05
-7.10167e-08
1.5751e-05
-2.23982e-08
1.56941e-05
7.1121e-09
1.56068e-05
2.60666e-08
1.552e-05
4.49661e-08
1.5456e-05
6.46891e-08
1.5425e-05
8.03031e-08
1.54249e-05
8.86105e-08
1.5443e-05
9.02699e-08
1.54644e-05
8.82171e-08
1.54783e-05
8.56851e-08
1.54808e-05
8.47205e-08
8.60974e-08
1.54748e-05
1.87125e-05
-1.12562e-07
1.8867e-05
-1.29645e-07
1.88863e-05
-1.13605e-07
1.8868e-05
-1.12547e-07
1.88527e-05
-1.00203e-07
1.8854e-05
-7.23626e-08
1.8876e-05
-4.43975e-08
1.89057e-05
-2.25533e-08
1.89345e-05
-2.76991e-09
1.8961e-05
1.85192e-08
1.8985e-05
4.07083e-08
1.90019e-05
6.33741e-08
1.90064e-05
8.40829e-08
1.89966e-05
1.00115e-07
1.8975e-05
1.09757e-07
1.89481e-05
1.12576e-07
1.89237e-05
1.09161e-07
1.01643e-07
1.89081e-05
2.27461e-05
-2.16916e-07
2.29228e-05
-3.06439e-07
2.29343e-05
-1.25104e-07
2.28488e-05
-2.70418e-08
2.27509e-05
-2.25549e-09
2.26995e-05
-2.10096e-08
2.2718e-05
-6.28608e-08
2.27811e-05
-8.56165e-08
2.28564e-05
-7.81417e-08
2.2925e-05
-5.00608e-08
2.29814e-05
-1.56589e-08
2.30315e-05
1.32951e-08
2.30802e-05
3.53824e-08
2.31312e-05
4.90731e-08
2.31842e-05
5.67677e-08
2.32357e-05
6.10687e-08
2.3281e-05
6.38184e-08
6.62746e-08
2.33164e-05
1.7028e-05
-3.86179e-08
1.68412e-05
-1.19628e-07
1.67208e-05
-4.64681e-09
1.66521e-05
4.16201e-08
1.66508e-05
-9.31073e-10
1.66968e-05
-6.7065e-08
1.67447e-05
-1.10693e-07
1.67645e-05
-1.054e-07
1.67534e-05
-6.71088e-08
1.67308e-05
-2.74558e-08
1.67184e-05
-3.19095e-09
1.67246e-05
7.05823e-09
1.67473e-05
1.2722e-08
1.67751e-05
2.12364e-08
1.67975e-05
3.43096e-08
1.6809e-05
4.9658e-08
1.68091e-05
6.36359e-08
7.21426e-08
1.68033e-05
1.47779e-05
4.39089e-08
1.46561e-05
2.2387e-09
1.46604e-05
-8.99539e-09
1.46934e-05
8.63088e-09
1.47273e-05
-3.48701e-08
1.4757e-05
-9.67641e-08
1.47651e-05
-1.18796e-07
1.4757e-05
-9.72464e-08
1.47422e-05
-5.22798e-08
1.47244e-05
-9.70618e-09
1.47046e-05
1.65676e-08
1.46836e-05
2.81426e-08
1.46649e-05
3.14265e-08
1.46532e-05
3.28719e-08
1.46528e-05
3.47324e-08
1.46655e-05
3.69345e-08
1.4691e-05
3.81335e-08
3.60747e-08
1.47271e-05
1.26958e-05
2.84251e-07
1.26373e-05
6.07248e-08
1.26195e-05
8.77548e-09
1.26499e-05
-2.17204e-08
1.26804e-05
-6.54072e-08
1.26785e-05
-9.48896e-08
1.26559e-05
-9.61967e-08
1.26346e-05
-7.59165e-08
1.26323e-05
-5.00182e-08
1.2655e-05
-3.2359e-08
1.26978e-05
-2.62028e-08
1.27509e-05
-2.49691e-08
1.28032e-05
-2.09504e-08
1.28459e-05
-9.73346e-09
1.28727e-05
7.853e-09
1.28843e-05
2.534e-08
1.28837e-05
3.87309e-08
4.24194e-08
1.28774e-05
1.11947e-05
1.38781e-07
1.1211e-05
4.44712e-08
1.1203e-05
1.68002e-08
1.11852e-05
-3.96494e-09
1.11583e-05
-3.84977e-08
1.11387e-05
-7.52563e-08
1.11387e-05
-9.62051e-08
1.11522e-05
-8.94617e-08
1.11709e-05
-6.87369e-08
1.11918e-05
-5.32465e-08
1.12158e-05
-5.02033e-08
1.12441e-05
-5.32299e-08
1.1275e-05
-5.18734e-08
1.13048e-05
-3.95509e-08
1.13296e-05
-1.69356e-08
1.13471e-05
7.79822e-09
1.13566e-05
2.92673e-08
3.99764e-08
1.13591e-05
9.78762e-06
7.22267e-08
9.82078e-06
1.13034e-08
9.80645e-06
3.11285e-08
9.72651e-06
7.598e-08
9.63058e-06
5.7434e-08
9.5828e-06
-2.74823e-08
9.59592e-06
-1.09318e-07
9.64499e-06
-1.38534e-07
9.69461e-06
-1.18362e-07
9.72016e-06
-7.87966e-08
9.71537e-06
-4.54071e-08
9.68936e-06
-2.72193e-08
9.65828e-06
-2.07977e-08
9.63673e-06
-1.80017e-08
9.63351e-06
-1.37088e-08
9.64888e-06
-7.5807e-09
9.68011e-06
-1.95683e-09
-3.1608e-10
9.7204e-06
8.3975e-06
2.68948e-07
8.39319e-06
1.56137e-08
8.46365e-06
-3.93337e-08
8.52891e-06
1.07207e-08
8.54729e-06
3.90554e-08
8.51235e-06
7.45949e-09
8.45145e-06
-4.84239e-08
8.40228e-06
-8.93568e-08
8.38229e-06
-9.8378e-08
8.3878e-06
-8.43064e-08
8.40523e-06
-6.28337e-08
8.42217e-06
-4.41617e-08
8.43235e-06
-3.09783e-08
8.43585e-06
-2.1499e-08
8.4367e-06
-1.4554e-08
8.43926e-06
-1.0145e-08
8.44644e-06
-9.13918e-09
-1.30473e-08
8.45917e-06
7.25063e-06
1.85943e-07
7.31087e-06
-4.46256e-08
7.35475e-06
-8.32115e-08
7.41563e-06
-5.0159e-08
7.48167e-06
-2.69838e-08
7.50943e-06
-2.02982e-08
7.48578e-06
-2.47766e-08
7.43004e-06
-3.36216e-08
7.37316e-06
-4.1493e-08
7.33621e-06
-4.73569e-08
7.32439e-06
-5.10111e-08
7.33206e-06
-5.18382e-08
7.35031e-06
-4.92277e-08
7.37221e-06
-4.33918e-08
7.39405e-06
-3.6394e-08
7.41463e-06
-3.07334e-08
7.43355e-06
-2.80527e-08
-2.95313e-08
7.45003e-06
6.45873e-06
1.78393e-07
6.40223e-06
1.18677e-08
6.37066e-06
-5.1641e-08
6.39796e-06
-7.74524e-08
6.44543e-06
-7.44614e-08
6.46891e-06
-4.37716e-08
6.4632e-06
-1.90678e-08
6.45017e-06
-2.05955e-08
6.44702e-06
-3.83412e-08
6.45488e-06
-5.52215e-08
6.46696e-06
-6.30892e-08
6.47732e-06
-6.21913e-08
6.48464e-06
-5.65511e-08
6.49117e-06
-4.99267e-08
6.49912e-06
-4.43387e-08
6.50854e-06
-4.01543e-08
6.51684e-06
-3.63522e-08
-3.38473e-08
6.52115e-06
5.57909e-06
5.08258e-08
5.58448e-06
6.4746e-09
5.60147e-06
-6.86307e-08
5.63399e-06
-1.09976e-07
5.65697e-06
-9.74433e-08
5.66366e-06
-5.04582e-08
5.65751e-06
-1.29217e-08
5.6467e-06
-9.78398e-09
5.63849e-06
-3.01283e-08
5.63687e-06
-5.3606e-08
5.64254e-06
-6.87546e-08
5.65304e-06
-7.26881e-08
5.6633e-06
-6.68094e-08
5.66776e-06
-5.4391e-08
5.66344e-06
-4.00198e-08
5.65087e-06
-2.75869e-08
5.63373e-06
-1.92097e-08
-1.67642e-08
5.61665e-06
4.7789e-06
-7.98241e-08
4.88469e-06
-9.93198e-08
4.93065e-06
-1.1459e-07
4.91277e-06
-9.20996e-08
4.86987e-06
-5.45442e-08
4.85092e-06
-3.15057e-08
4.87031e-06
-3.23133e-08
4.90911e-06
-4.85841e-08
4.94256e-06
-6.35713e-08
4.95683e-06
-6.7883e-08
4.95068e-06
-6.26049e-08
4.93076e-06
-5.27645e-08
4.90642e-06
-4.24732e-08
4.88561e-06
-3.35801e-08
4.87273e-06
-2.71345e-08
4.86881e-06
-2.36666e-08
4.87251e-06
-2.29081e-08
-2.47562e-08
4.8805e-06
4.1681e-06
4.06879e-06
3.95419e-06
3.8621e-06
3.80755e-06
3.77605e-06
3.74373e-06
3.69515e-06
3.63158e-06
3.56369e-06
3.50109e-06
3.44832e-06
3.40585e-06
3.37227e-06
3.34514e-06
3.32147e-06
3.29856e-06
3.27381e-06
-1.02415e-07
1.02415e-07
-2.20213e-07
1.17798e-07
-2.90387e-07
7.01745e-08
-2.44338e-07
-4.60491e-08
-3.30562e-08
-2.11282e-07
3.30778e-07
-3.63834e-07
8.07146e-07
-4.76368e-07
1.34843e-06
-5.41284e-07
1.9147e-06
-5.66275e-07
2.47503e-06
-5.60324e-07
3.00904e-06
-5.34008e-07
3.50533e-06
-4.96293e-07
3.9582e-06
-4.52877e-07
4.36507e-06
-4.06868e-07
4.72473e-06
-3.59661e-07
5.03622e-06
-3.11485e-07
5.29818e-06
-2.61958e-07
5.50888e-06
-2.10699e-07
5.66629e-06
-1.5741e-07
5.76806e-06
-1.01772e-07
5.8115e-06
-4.34386e-08
5.79556e-06
1.59348e-08
5.71864e-06
7.692e-08
5.57978e-06
1.38862e-07
5.38387e-06
1.95913e-07
5.13593e-06
2.4794e-07
4.84339e-06
2.9254e-07
4.51185e-06
3.31537e-07
4.15159e-06
3.60263e-07
3.77319e-06
3.78397e-07
3.37566e-06
3.97528e-07
2.96801e-06
4.07647e-07
2.56203e-06
4.05989e-07
2.16424e-06
3.97782e-07
1.79476e-06
3.69481e-07
1.49631e-06
2.98454e-07
1.30912e-06
1.87185e-07
1.20044e-06
1.08681e-07
1.08748e-06
1.12959e-07
9.81875e-07
1.05609e-07
9.77775e-07
4.09937e-09
1.02595e-06
-4.81707e-08
8.59791e-07
1.66155e-07
4.74665e-07
3.85126e-07
2.10383e-07
2.64282e-07
1.74649e-07
3.57338e-08
5.00816e-07
-3.26167e-07
8.69846e-07
-3.6903e-07
8.17317e-07
5.25292e-08
3.59259e-07
4.58058e-07
-8.19285e-07
1.17854e-06
-1.95056e-06
1.13127e-06
-3.03925e-06
1.08869e-06
-4.02461e-06
9.85366e-07
-4.93858e-06
9.13963e-07
-5.75927e-06
8.20691e-07
-6.49719e-06
7.37929e-07
-7.15211e-06
6.54918e-07
-7.73011e-06
5.77997e-07
-8.23795e-06
5.07836e-07
-8.67801e-06
4.40065e-07
-9.05477e-06
3.76764e-07
-9.37104e-06
3.1627e-07
-9.62827e-06
2.57229e-07
-9.82892e-06
2.00644e-07
-9.97704e-06
1.48126e-07
-1.00745e-05
9.74994e-08
-1.01267e-05
5.21912e-08
-1.01373e-05
1.05522e-08
-1.01134e-05
-2.38829e-08
-1.00588e-05
-5.45963e-08
-9.97623e-06
-8.25771e-08
-9.86917e-06
-1.07064e-07
-9.74046e-06
-1.28706e-07
-9.59309e-06
-1.47369e-07
-9.43002e-06
-1.63068e-07
-9.25424e-06
-1.75786e-07
-9.06859e-06
-1.85645e-07
-8.87563e-06
-1.92966e-07
-8.6774e-06
-1.98227e-07
-8.47542e-06
-2.01977e-07
-8.27067e-06
-2.04747e-07
-8.06368e-06
-2.06993e-07
-7.85462e-06
-2.09061e-07
-7.64341e-06
-2.11213e-07
-7.42972e-06
-2.13686e-07
-7.21294e-06
-2.16784e-07
-6.99199e-06
-2.20948e-07
-6.7651e-06
-2.26891e-07
-6.52963e-06
-2.35464e-07
-6.28254e-06
-2.47095e-07
-6.02137e-06
-2.61165e-07
-5.74552e-06
-2.75856e-07
-5.45659e-06
-2.88923e-07
-5.15755e-06
-2.99048e-07
-4.85031e-06
-3.07236e-07
-4.53213e-06
-3.18179e-07
-4.19223e-06
-3.39904e-07
-3.8145e-06
-3.7773e-07
-3.38846e-06
-4.26035e-07
-2.91375e-06
-4.74711e-07
-2.40439e-06
-5.09359e-07
-1.88532e-06
-5.19072e-07
-1.37456e-06
-5.10761e-07
-8.56871e-07
-5.17688e-07
-3.59144e-07
-4.97727e-07
1.17834e-07
-4.76979e-07
6.89368e-07
-5.71534e-07
1.46611e-06
-7.76745e-07
2.42576e-06
-9.59643e-07
3.32663e-06
-9.00878e-07
3.66461e-06
-3.37973e-07
3.17692e-06
4.87688e-07
2.41429e-06
7.6263e-07
2.12352e-06
2.90764e-07
2.24374e-06
-1.20215e-07
2.26727e-06
-2.35338e-08
1.9633e-06
3.03972e-07
1.39108e-06
5.72216e-07
6.8904e-07
7.02045e-07
-4.13201e-08
7.3036e-07
-7.5253e-07
7.11209e-07
-1.42871e-06
6.76183e-07
-2.06996e-06
6.4125e-07
-2.67997e-06
6.10009e-07
-3.26183e-06
5.81856e-07
-3.81691e-06
5.55077e-07
-4.34343e-06
5.26525e-07
-4.83561e-06
4.92185e-07
-5.2837e-06
4.48087e-07
-5.67511e-06
3.91409e-07
-5.99596e-06
3.20854e-07
-6.23268e-06
2.36721e-07
-6.37317e-06
1.40488e-07
-6.40862e-06
3.54499e-08
-6.33456e-06
-7.40603e-08
-6.15155e-06
-1.83012e-07
-5.86082e-06
-2.90727e-07
-5.46713e-06
-3.93693e-07
-4.97925e-06
-4.87881e-07
-4.41005e-06
-5.69197e-07
-3.77642e-06
-6.33629e-07
-3.09863e-06
-6.77793e-07
-2.39917e-06
-6.99458e-07
-1.7016e-06
-6.97571e-07
-1.02705e-06
-6.74547e-07
-3.94462e-07
-6.32592e-07
1.83692e-07
-5.78153e-07
7.02265e-07
-5.18573e-07
1.1581e-06
-4.55831e-07
1.55394e-06
-3.95847e-07
1.89615e-06
-3.42204e-07
2.19315e-06
-2.97006e-07
2.45431e-06
-2.61152e-07
2.68824e-06
-2.33935e-07
2.90283e-06
-2.1459e-07
3.10775e-06
-2.04923e-07
3.31183e-06
-2.04073e-07
3.52322e-06
-2.11397e-07
3.75824e-06
-2.35012e-07
4.02298e-06
-2.64741e-07
4.31653e-06
-2.93554e-07
4.67409e-06
-3.57557e-07
5.0818e-06
-4.07714e-07
5.49988e-06
-4.18076e-07
6.00399e-06
-5.0411e-07
6.50208e-06
-4.98089e-07
6.92119e-06
-4.19116e-07
7.41839e-06
-4.97193e-07
7.64724e-06
-2.28854e-07
7.66661e-06
-1.93691e-08
7.68652e-06
-1.99118e-08
6.39808e-06
1.28844e-06
4.19606e-06
2.20202e-06
2.92333e-06
1.27273e-06
2.2487e-06
6.74631e-07
1.06381e-06
1.18489e-06
-4.64024e-07
1.52783e-06
-1.72502e-06
1.26099e-06
5.23353e-07
-2.24837e-06
-1.98229e-08
1.22238e-07
-4.52018e-08
1.43176e-07
4.15913e-08
-1.66187e-08
3.39808e-07
-3.44266e-07
8.09448e-07
-6.80922e-07
1.37139e-06
-9.25774e-07
1.95667e-06
-1.06165e-06
2.52513e-06
-1.10975e-06
3.05838e-06
-1.09952e-06
3.55131e-06
-1.05326e-06
4.00495e-06
-9.87647e-07
4.42196e-06
-9.13297e-07
4.80517e-06
-8.36093e-07
5.15689e-06
-7.58581e-07
5.47818e-06
-6.80955e-07
5.76861e-06
-6.01918e-07
6.02645e-06
-5.19795e-07
6.24908e-06
-4.33327e-07
6.43375e-06
-3.42078e-07
6.57799e-06
-2.46017e-07
6.67975e-06
-1.45201e-07
6.7373e-06
-4.16125e-08
6.74203e-06
7.21904e-08
6.6937e-06
1.87192e-07
6.59076e-06
2.98853e-07
6.43489e-06
4.03807e-07
6.22868e-06
4.98751e-07
5.9762e-06
5.84016e-07
5.68468e-06
6.5179e-07
5.35779e-06
7.05281e-07
5.01275e-06
7.42571e-07
4.66286e-06
7.5754e-07
4.31693e-06
7.51917e-07
3.9733e-06
7.41414e-07
3.61611e-06
7.26667e-07
3.28338e-06
6.31186e-07
2.95011e-06
5.2045e-07
2.55584e-06
5.02958e-07
2.24232e-06
4.26478e-07
2.07481e-06
2.73113e-07
1.87057e-06
2.08348e-07
1.66639e-06
1.56002e-07
1.63282e-06
1.99732e-07
1.58906e-06
4.28879e-07
1.49098e-06
3.62365e-07
1.36486e-06
1.61851e-07
8.54812e-07
1.83884e-07
-2.10974e-07
6.96756e-07
-1.82956e-06
1.67111e-06
-3.26622e-06
1.89472e-06
-4.1359e-06
2.04822e-06
-4.9573e-06
1.95267e-06
-5.72161e-06
1.85301e-06
-6.41832e-06
1.68207e-06
-7.03763e-06
1.53327e-06
-7.58463e-06
1.36769e-06
-8.07008e-06
1.22338e-06
-8.4955e-06
1.08034e-06
-8.86979e-06
9.52282e-07
-9.19282e-06
8.30874e-07
-9.46798e-06
7.15223e-07
-9.69649e-06
6.05275e-07
-9.87944e-06
4.99218e-07
-1.00197e-05
3.9746e-07
-1.01202e-05
3.01218e-07
-1.01828e-05
2.10659e-07
-1.02118e-05
1.26517e-07
-1.02098e-05
5.01976e-08
-1.01791e-05
-2.01842e-08
-1.01196e-05
-8.33373e-08
-1.00348e-05
-1.39415e-07
-9.92744e-06
-1.8993e-07
-9.79995e-06
-2.34557e-07
-9.65527e-06
-2.73385e-07
-9.49618e-06
-3.06456e-07
-9.32527e-06
-3.33977e-07
-9.14483e-06
-3.56229e-07
-8.9568e-06
-3.73673e-07
-8.76276e-06
-3.87013e-07
-8.56382e-06
-3.97163e-07
-8.36059e-06
-4.05209e-07
-8.15303e-06
-4.12304e-07
-7.94049e-06
-4.19534e-07
-7.72182e-06
-4.27735e-07
-7.49569e-06
-4.37342e-07
-7.26102e-06
-4.48354e-07
-7.01732e-06
-4.60488e-07
-6.76473e-06
-4.73537e-07
-6.50379e-06
-4.87824e-07
-6.23488e-06
-5.04382e-07
-5.95749e-06
-5.2448e-07
-5.66999e-06
-5.48662e-07
-5.36993e-06
-5.75919e-07
-5.05477e-06
-6.04089e-07
-4.72237e-06
-6.3144e-07
-4.37109e-06
-6.5852e-07
-4.00032e-06
-6.88946e-07
-3.61162e-06
-7.28609e-07
-3.20688e-06
-7.82466e-07
-2.78536e-06
-8.4756e-07
-2.35073e-06
-9.09341e-07
-1.91104e-06
-9.49049e-07
-1.47813e-06
-9.51976e-07
-1.06451e-06
-9.24381e-07
-6.44035e-07
-9.38166e-07
-2.1623e-07
-9.25532e-07
2.19563e-07
-9.12772e-07
7.5245e-07
-1.10442e-06
1.49582e-06
-1.52012e-06
2.39486e-06
-1.85869e-06
3.20349e-06
-1.7095e-06
3.62051e-06
-7.54994e-07
3.52163e-06
5.86565e-07
3.12621e-06
1.15806e-06
2.80497e-06
6.12004e-07
2.47026e-06
2.14488e-07
1.86717e-06
5.79558e-07
1.02207e-06
1.14907e-06
1.68633e-07
1.42566e-06
-5.73282e-07
1.44396e-06
-1.2168e-06
1.37388e-06
-1.80072e-06
1.29513e-06
-2.35373e-06
1.22919e-06
-2.88438e-06
1.17191e-06
-3.39482e-06
1.12045e-06
-3.88553e-06
1.07256e-06
-4.35604e-06
1.02558e-06
-4.80353e-06
9.74023e-07
-5.22202e-06
9.10671e-07
-5.60221e-06
8.28274e-07
-5.93265e-06
7.21849e-07
-6.20097e-06
5.89173e-07
-6.39536e-06
4.31113e-07
-6.50513e-06
2.50262e-07
-6.51905e-06
4.93633e-08
-6.43255e-06
-1.60556e-07
-6.23633e-06
-3.79231e-07
-5.93096e-06
-5.96098e-07
-5.52131e-06
-8.03345e-07
-5.01588e-06
-9.93309e-07
-4.42713e-06
-1.15794e-06
-3.7714e-06
-1.28936e-06
-3.06854e-06
-1.38065e-06
-2.34096e-06
-1.42704e-06
-1.61068e-06
-1.42785e-06
-9.00123e-07
-1.38511e-06
-2.26802e-07
-1.30591e-06
3.98834e-07
-1.20379e-06
9.63821e-07
-1.08356e-06
1.46545e-06
-9.57462e-07
1.90426e-06
-8.34656e-07
2.28485e-06
-7.22793e-07
2.61461e-06
-6.26767e-07
2.90207e-06
-5.48615e-07
3.15698e-06
-4.88844e-07
3.38879e-06
-4.46401e-07
3.60568e-06
-4.21806e-07
3.821e-06
-4.19392e-07
4.04627e-06
-4.36667e-07
4.28667e-06
-4.75417e-07
4.56608e-06
-5.44156e-07
4.89266e-06
-6.20133e-07
5.24872e-06
-7.13616e-07
5.6718e-06
-8.30787e-07
6.14834e-06
-8.9462e-07
6.62873e-06
-9.84501e-07
7.16927e-06
-1.03863e-06
7.66852e-06
-9.18368e-07
8.08346e-06
-9.12134e-07
8.51538e-06
-6.60775e-07
8.6508e-06
-1.54787e-07
8.59315e-06
3.77369e-08
8.77046e-06
1.11113e-06
8.12e-06
2.85248e-06
5.94951e-06
3.44322e-06
3.61322e-06
3.01092e-06
1.97005e-06
2.82807e-06
5.54974e-07
2.94291e-06
-6.04873e-07
2.42084e-06
9.80771e-07
-1.06229e-06
-7.30292e-09
1.29541e-07
1.49307e-07
-1.34334e-08
6.30455e-07
-4.97766e-07
1.2822e-06
-9.96013e-07
1.92202e-06
-1.32074e-06
2.47267e-06
-1.47642e-06
2.91756e-06
-1.50655e-06
3.27067e-06
-1.46286e-06
3.55701e-06
-1.38586e-06
3.80385e-06
-1.3001e-06
4.03283e-06
-1.21663e-06
4.25821e-06
-1.13867e-06
4.48817e-06
-1.06606e-06
4.72616e-06
-9.96569e-07
4.97131e-06
-9.26102e-07
5.21929e-06
-8.49897e-07
5.46381e-06
-7.64315e-07
5.6982e-06
-6.67715e-07
5.91605e-06
-5.59933e-07
6.11142e-06
-4.41389e-07
6.27809e-06
-3.11865e-07
6.40906e-06
-1.72589e-07
6.50841e-06
-2.71608e-08
6.56179e-06
1.33814e-07
6.56673e-06
2.93911e-07
6.52129e-06
4.49251e-07
6.42319e-06
5.9685e-07
6.27437e-06
7.32835e-07
6.0772e-06
8.48965e-07
5.83773e-06
9.44748e-07
5.56239e-06
1.01791e-06
5.2645e-06
1.05543e-06
4.95529e-06
1.06112e-06
4.63801e-06
1.05869e-06
4.32553e-06
1.03915e-06
3.98728e-06
9.69437e-07
3.62654e-06
8.8119e-07
3.30788e-06
8.21613e-07
3.00629e-06
7.28072e-07
2.71274e-06
5.66657e-07
2.45822e-06
4.62866e-07
2.17792e-06
4.36304e-07
1.96676e-06
4.10892e-07
1.86807e-06
5.2757e-07
1.58399e-06
6.46448e-07
8.08493e-07
9.37345e-07
-8.09189e-07
1.80157e-06
-2.65831e-06
2.54587e-06
-3.77221e-06
2.78501e-06
-4.6269e-06
2.74941e-06
-5.2435e-06
2.66482e-06
-5.77703e-06
2.48621e-06
-6.25507e-06
2.33104e-06
-6.71351e-06
2.14051e-06
-7.14585e-06
1.96561e-06
-7.5595e-06
1.78134e-06
-7.94845e-06
1.61233e-06
-8.30954e-06
1.44143e-06
-8.63839e-06
1.28113e-06
-8.9298e-06
1.12229e-06
-9.18261e-06
9.68031e-07
-9.39469e-06
8.17352e-07
-9.56604e-06
6.70571e-07
-9.69793e-06
5.29343e-07
-9.79086e-06
3.94153e-07
-9.84612e-06
2.65919e-07
-9.86568e-06
1.46073e-07
-9.85107e-06
3.55926e-08
-9.80621e-06
-6.50442e-08
-9.7336e-06
-1.55954e-07
-9.63554e-06
-2.37467e-07
-9.51591e-06
-3.09564e-07
-9.37794e-06
-3.72525e-07
-9.2247e-06
-4.26624e-07
-9.059e-06
-4.72157e-07
-8.88337e-06
-5.0961e-07
-8.70005e-06
-5.3955e-07
-8.511e-06
-5.62723e-07
-8.3179e-06
-5.80107e-07
-8.12211e-06
-5.92955e-07
-7.92449e-06
-6.0283e-07
-7.72523e-06
-6.11569e-07
-7.52364e-06
-6.21121e-07
-7.31815e-06
-6.33227e-07
-7.10645e-06
-6.49039e-07
-6.88595e-06
-6.68857e-07
-6.65428e-06
-6.92159e-07
-6.40978e-06
-7.18029e-07
-6.15172e-06
-7.45884e-07
-5.88005e-06
-7.76058e-07
-5.59491e-06
-8.09622e-07
-5.29615e-06
-8.47416e-07
-4.98298e-06
-8.89094e-07
-4.65399e-06
-9.33079e-07
-4.30762e-06
-9.77805e-07
-3.94262e-06
-1.02352e-06
-3.55882e-06
-1.07275e-06
-3.15833e-06
-1.1291e-06
-2.74495e-06
-1.19585e-06
-2.31927e-06
-1.27324e-06
-1.87315e-06
-1.35546e-06
-1.39419e-06
-1.42801e-06
-8.80625e-07
-1.46555e-06
-3.79363e-07
-1.42564e-06
6.52442e-08
-1.38277e-06
4.60137e-07
-1.32042e-06
8.08683e-07
-1.26132e-06
1.18842e-06
-1.48415e-06
1.74084e-06
-2.07255e-06
2.43821e-06
-2.55605e-06
3.08186e-06
-2.35315e-06
3.47488e-06
-1.14801e-06
3.50117e-06
5.60275e-07
3.30521e-06
1.35402e-06
2.90672e-06
1.01049e-06
2.18095e-06
9.40252e-07
1.19901e-06
1.5615e-06
2.94704e-07
2.05337e-06
-3.70529e-07
2.09089e-06
-8.7614e-07
1.94957e-06
-1.32705e-06
1.82479e-06
-1.79069e-06
1.75877e-06
-2.27963e-06
1.71813e-06
-2.77601e-06
1.66829e-06
-3.26405e-06
1.60849e-06
-3.73881e-06
1.54732e-06
-4.20069e-06
1.48746e-06
-4.64798e-06
1.42132e-06
-5.07485e-06
1.33753e-06
-5.47074e-06
1.22417e-06
-5.82158e-06
1.0727e-06
-6.11154e-06
8.79127e-07
-6.32523e-06
6.44803e-07
-6.44946e-06
3.74495e-07
-6.47721e-06
7.71164e-08
-6.39284e-06
-2.44929e-07
-6.19739e-06
-5.74681e-07
-5.89153e-06
-9.01957e-07
-5.47945e-06
-1.21543e-06
-4.96983e-06
-1.50292e-06
-4.37584e-06
-1.75193e-06
-3.71504e-06
-1.95016e-06
-3.00877e-06
-2.08692e-06
-2.28072e-06
-2.15509e-06
-1.55429e-06
-2.15428e-06
-8.51774e-07
-2.08763e-06
-1.90005e-07
-1.96768e-06
4.25934e-07
-1.81973e-06
9.84424e-07
-1.64205e-06
1.48428e-06
-1.45731e-06
1.92666e-06
-1.27704e-06
2.31555e-06
-1.11169e-06
2.65752e-06
-9.6874e-07
2.96096e-06
-8.52055e-07
3.23487e-06
-7.62754e-07
3.48919e-06
-7.00719e-07
3.7345e-06
-6.67116e-07
3.981e-06
-6.65891e-07
4.24158e-06
-6.97247e-07
4.52678e-06
-7.60617e-07
4.83978e-06
-8.57153e-07
5.19058e-06
-9.70935e-07
5.58311e-06
-1.10615e-06
6.01304e-06
-1.26071e-06
6.48987e-06
-1.37145e-06
6.9921e-06
-1.48673e-06
7.50565e-06
-1.55218e-06
8.03414e-06
-1.44686e-06
8.47723e-06
-1.35522e-06
8.85302e-06
-1.03657e-06
9.15946e-06
-4.6122e-07
9.13281e-06
6.43884e-08
9.14685e-06
1.09709e-06
9.35029e-06
2.64904e-06
8.60398e-06
4.18952e-06
6.4068e-06
5.2081e-06
3.95934e-06
5.27553e-06
2.15167e-06
4.75057e-06
9.80042e-07
3.59247e-06
1.35399e-06
6.06828e-07
7.26548e-08
5.68864e-08
7.11416e-07
-6.52194e-07
1.51686e-06
-1.30322e-06
2.13548e-06
-1.61463e-06
2.49982e-06
-1.68508e-06
2.64753e-06
-1.62413e-06
2.66493e-06
-1.52395e-06
2.63607e-06
-1.43399e-06
2.62101e-06
-1.3708e-06
2.65157e-06
-1.33065e-06
2.73775e-06
-1.30282e-06
2.87791e-06
-1.27883e-06
3.06544e-06
-1.25359e-06
3.29123e-06
-1.22236e-06
3.54401e-06
-1.17888e-06
3.81109e-06
-1.11698e-06
4.07998e-06
-1.03321e-06
4.34091e-06
-9.28643e-07
4.58745e-06
-8.06478e-07
4.81552e-06
-6.69457e-07
5.02186e-06
-5.18199e-07
5.20118e-06
-3.51909e-07
5.34556e-06
-1.71542e-07
5.46049e-06
1.88813e-08
5.55048e-06
2.03921e-07
5.60676e-06
3.92971e-07
5.62382e-06
5.79791e-07
5.59852e-06
7.58135e-07
5.52591e-06
9.21579e-07
5.40332e-06
1.06733e-06
5.24018e-06
1.18105e-06
5.04138e-06
1.25424e-06
4.80782e-06
1.29468e-06
4.55988e-06
1.30663e-06
4.29904e-06
1.3e-06
4.00903e-06
1.25944e-06
3.72531e-06
1.16492e-06
3.4705e-06
1.07642e-06
3.19172e-06
1.00686e-06
2.91847e-06
8.39906e-07
2.76396e-06
6.17378e-07
2.62503e-06
5.75235e-07
2.26327e-06
7.72648e-07
1.64577e-06
1.14507e-06
4.82443e-07
1.80977e-06
-1.30356e-06
2.72335e-06
-2.89741e-06
3.39542e-06
-3.92595e-06
3.57442e-06
-4.59037e-06
3.44943e-06
-5.13563e-06
3.29467e-06
-5.60568e-06
3.13487e-06
-6.06004e-06
2.94057e-06
-6.49137e-06
2.76237e-06
-6.91661e-06
2.56575e-06
-7.32736e-06
2.37637e-06
-7.72483e-06
2.17882e-06
-8.09769e-06
1.98518e-06
-8.44197e-06
1.78571e-06
-8.75026e-06
1.58942e-06
-9.01877e-06
1.3908e-06
-9.24609e-06
1.19535e-06
-9.43035e-06
1.00161e-06
-9.57225e-06
8.12473e-07
-9.67272e-06
6.29809e-07
-9.7331e-06
4.54539e-07
-9.75581e-06
2.8863e-07
-9.74249e-06
1.32752e-07
-9.69429e-06
-1.26103e-08
-9.61951e-06
-1.39821e-07
-9.51886e-06
-2.56605e-07
-9.39545e-06
-3.60879e-07
-9.25294e-06
-4.52075e-07
-9.0948e-06
-5.30659e-07
-8.92421e-06
-5.97216e-07
-8.74393e-06
-6.52444e-07
-8.55635e-06
-6.97189e-07
-8.36352e-06
-7.3237e-07
-8.1672e-06
-7.59047e-07
-7.96884e-06
-7.78466e-07
-7.76964e-06
-7.92158e-07
-7.57042e-06
-8.02048e-07
-7.3715e-06
-8.10487e-07
-7.17249e-06
-8.20131e-07
-6.97215e-06
-8.33573e-07
-6.76837e-06
-8.5282e-07
-6.55842e-06
-8.788e-07
-6.33937e-06
-9.11209e-07
-6.10857e-06
-9.48834e-07
-5.86421e-06
-9.90242e-07
-5.60567e-06
-1.0346e-06
-5.33336e-06
-1.08193e-06
-5.04821e-06
-1.13257e-06
-4.75073e-06
-1.18657e-06
-4.44017e-06
-1.24364e-06
-4.11428e-06
-1.30369e-06
-3.77033e-06
-1.36747e-06
-3.40755e-06
-1.43553e-06
-3.02877e-06
-1.50788e-06
-2.63945e-06
-1.58516e-06
-2.24371e-06
-1.66898e-06
-1.8389e-06
-1.76028e-06
-1.40502e-06
-1.86188e-06
-9.06373e-07
-1.96419e-06
-3.28713e-07
-2.0033e-06
2.65782e-07
-1.97727e-06
8.2918e-07
-1.88382e-06
1.2615e-06
-1.69363e-06
1.58777e-06
-1.81042e-06
1.99847e-06
-2.48325e-06
2.52785e-06
-3.08543e-06
3.02107e-06
-2.84638e-06
3.39159e-06
-1.51852e-06
3.59751e-06
3.54355e-07
3.52126e-06
1.43027e-06
2.9495e-06
1.58225e-06
1.92327e-06
1.96648e-06
8.68135e-07
2.61664e-06
1.3982e-07
2.78169e-06
-3.20359e-07
2.55107e-06
-7.01505e-07
2.33072e-06
-1.12304e-06
2.24632e-06
-1.60655e-06
2.24228e-06
-2.11306e-06
2.22464e-06