/*--------------------------------*- C++ -*----------------------------------*\
  =========                 |
  \\      /  F ield         | OpenFOAM: The Open Source CFD Toolbox
   \\    /   O peration     | Website:  https://openfoam.org
    \\  /    A nd           | Version:  9
     \\/     M anipulation  |
\*---------------------------------------------------------------------------*/
FoamFile
{
    format      ascii;
    class       volScalarField;
    location    "0.098";
    object      pMean;
}
// * * * * * * * * * * * * * * * * * * * * * * * * * * * * * * * * * * * * * //

dimensions      [0 2 -2 0 0 0 0];

internalField   nonuniform List<scalar> 
12225
(
0.189173
-0.369571
-0.671055
-0.788339
-0.839909
-0.876075
-0.90624
-0.927044
-0.934141
-0.924412
-0.897223
-0.850708
-0.785929
-0.699693
-0.599217
-0.487455
-0.40079
-0.395975
-0.0340102
-0.398943
-0.673731
-0.798511
-0.85155
-0.886242
-0.91569
-0.936712
-0.944607
-0.936044
-0.910684
-0.866779
-0.80615
-0.725638
-0.634791
-0.534578
-0.469701
-0.501466
-0.0939754
-0.404418
-0.666457
-0.801879
-0.8601
-0.894563
-0.923562
-0.945385
-0.954797
-0.948657
-0.926362
-0.888083
-0.834478
-0.767659
-0.692652
-0.624829
-0.593127
-0.656432
-0.236138
-0.453235
-0.677952
-0.814517
-0.876832
-0.910451
-0.937891
-0.959738
-0.970803
-0.96734
-0.949182
-0.916679
-0.872159
-0.818417
-0.76309
-0.720907
-0.715505
-0.778246
-0.319214
-0.4876
-0.682705
-0.818601
-0.887498
-0.92333
-0.950306
-0.972488
-0.985473
-0.98561
-0.972345
-0.947006
-0.912232
-0.872201
-0.834805
-0.812751
-0.822455
-0.87929
-0.42018
-0.541952
-0.704932
-0.83361
-0.906359
-0.944394
-0.970979
-0.993113
-1.00778
-1.01131
-1.00311
-0.984931
-0.959943
-0.932931
-0.91107
-0.904271
-0.923557
-0.977974
-0.494419
-0.592556
-0.726579
-0.844583
-0.919843
-0.961654
-0.989266
-1.01198
-1.02896
-1.03691
-1.03495
-1.02485
-1.0101
-0.995455
-0.987159
-0.992698
-1.01982
-1.07445
-0.575825
-0.64909
-0.760049
-0.86637
-0.941184
-0.985985
-1.01531
-1.03869
-1.0574
-1.06921
-1.07326
-1.07109
-1.06607
-1.06261
-1.06603
-1.08195
-1.11596
-1.17164
-0.661757
-0.705088
-0.792106
-0.886993
-0.960379
-1.00828
-1.04042
-1.06587
-1.08725
-1.10355
-1.11404
-1.12005
-1.12462
-1.13168
-1.14563
-1.17076
-1.211
-1.26855
-0.725292
-0.765994
-0.838219
-0.9183
-0.986522
-1.03632
-1.07152
-1.09914
-1.12313
-1.1437
-1.1605
-1.17444
-1.1881
-1.20481
-1.22826
-1.26164
-1.30766
-1.36754
-0.763607
-0.816682
-0.882045
-0.95123
-1.01456
-1.06492
-1.10309
-1.13419
-1.16195
-1.18736
-1.21041
-1.23206
-1.25439
-1.28012
-1.3121
-1.35272
-1.40398
-1.4667
-0.869962
-0.879366
-0.92242
-0.984425
-1.04536
-1.09608
-1.1365
-1.17065
-1.20195
-1.23176
-1.26052
-1.28899
-1.3188
-1.35216
-1.39137
-1.43838
-1.49444
-1.56014
-0.934326
-0.931379
-0.967682
-1.0234
-1.08014
-1.12983
-1.17211
-1.20962
-1.24485
-1.27917
-1.31335
-1.34827
-1.38521
-1.42578
-1.47173
-1.52443
-1.58498
-1.65378
-0.954345
-0.985013
-1.0226
-1.06784
-1.11828
-1.16845
-1.21465
-1.25672
-1.29663
-1.33625
-1.3767
-1.41873
-1.46327
-1.51145
-1.56454
-1.62361
-1.68938
-1.76208
-1.04101
-1.05928
-1.0865
-1.12483
-1.17126
-1.2204
-1.26835
-1.31448
-1.35969
-1.40537
-1.45263
-1.50223
-1.55473
-1.61088
-1.67146
-1.73714
-1.80838
-1.88528
-1.15861
-1.14177
-1.14887
-1.1811
-1.2286
-1.28116
-1.33327
-1.38389
-1.43451
-1.48673
-1.54147
-1.59902
-1.65966
-1.72381
-1.79199
-1.8646
-1.94192
-2.02401
-1.25771
-1.22525
-1.22249
-1.25185
-1.29937
-1.35273
-1.40703
-1.46211
-1.5191
-1.57893
-1.64186
-1.70787
-1.77701
-1.84945
-1.92549
-2.00523
-2.08888
-2.17625
-1.28522
-1.27808
-1.29138
-1.32417
-1.37085
-1.4264
-1.48666
-1.54945
-1.61451
-1.68224
-1.75299
-1.82693
-1.90409
-1.98442
-2.06795
-2.15465
-2.24449
-2.33735
-1.27372
-1.30275
-1.34382
-1.39071
-1.44443
-1.50496
-1.57049
-1.64012
-1.71338
-1.78985
-1.86931
-1.9518
-2.03726
-2.12552
-2.21644
-2.30989
-2.40576
-2.50395
-1.35451
-1.35996
-1.38451
-1.42977
-1.49024
-1.55938
-1.63285
-1.70895
-1.78777
-1.86976
-1.95507
-2.04347
-2.1346
-2.22811
-2.32381
-2.42156
-2.5212
-2.62248
-1.35869
-1.35469
-1.38333
-1.44136
-1.51442
-1.59145
-1.66987
-1.75042
-1.83402
-1.92101
-2.0112
-2.10402
-2.19905
-2.29603
-2.39482
-2.49525
-2.59719
-2.70051
-1.33017
-1.33625
-1.37484
-1.44095
-1.52102
-1.60493
-1.68891
-1.7736
-1.86073
-1.95118
-2.04479
-2.14084
-2.23873
-2.33818
-2.43915
-2.54153
-2.64515
-2.74964
-1.22409
-1.28771
-1.36508
-1.44675
-1.53099
-1.61673
-1.70348
-1.79191
-1.88289
-1.97671
-2.0731
-2.17142
-2.27116
-2.37218
-2.47443
-2.57786
-2.68226
-2.78753
-1.15772
-1.22895
-1.32509
-1.42665
-1.52323
-1.61399
-1.70295
-1.79379
-1.8879
-1.98487
-2.08374
-2.1839
-2.28518
-2.38759
-2.49113
-2.59564
-2.70091
-2.80655
-1.19447
-1.22265
-1.31271
-1.42727
-1.53261
-1.62446
-1.71259
-1.80427
-1.90048
-1.9994
-2.09955
-2.20053
-2.3024
-2.40531
-2.50926
-2.61408
-2.71949
-2.82533
-1.02034
-1.13754
-1.28111
-1.41266
-1.52014
-1.61248
-1.70298
-1.798
-1.89715
-1.99819
-2.09983
-2.20191
-2.30472
-2.40849
-2.51321
-2.61865
-2.72458
-2.83075
-0.954573
-1.11875
-1.28783
-1.4226
-1.52501
-1.61444
-1.70581
-1.80291
-1.90349
-2.00505
-2.1068
-2.209
-2.31202
-2.41601
-2.52083
-2.62627
-2.73208
-2.83792
-0.881646
-1.05578
-1.25945
-1.41128
-1.5149
-1.60401
-1.69754
-1.79727
-1.8995
-2.00193
-2.1043
-2.20708
-2.3106
-2.41493
-2.51997
-2.62551
-2.73142
-2.83771
-0.865089
-1.06062
-1.27114
-1.41544
-1.51414
-1.60342
-1.69824
-1.79864
-1.90107
-2.00357
-2.10606
-2.20897
-2.31267
-2.41714
-2.52231
-2.62776
-2.73348
-2.83901
-0.602816
-1.02163
-1.27606
-1.40994
-1.50501
-1.59671
-1.6936
-1.79484
-1.89766
-2.00049
-2.10327
-2.20642
-2.3103
-2.41484
-2.52005
-2.62537
-2.73084
-2.8354
-5.33057
-5.49171
-5.66019
-5.72322
-5.64183
-5.45879
-5.27695
-5.20459
-5.30494
-5.58136
-6.00293
-6.51515
-7.07572
-7.6217
-8.12457
-8.56984
-8.94865
-9.25045
-9.46875
-9.60765
-9.68286
-9.70097
-9.67522
-9.62388
-9.57147
-9.54595
-9.57767
-9.66713
-9.78569
-9.90733
-10.0323
-10.1811
-10.367
-10.5697
-10.7632
-10.9407
-11.1074
-11.3344
-11.6783
-12.0983
-12.5031
-12.8691
-13.2497
-13.7115
-14.3122
-14.9999
-15.6925
-16.3727
-16.952
-17.3894
-17.8122
-18.2387
-18.6677
-19.0634
-19.3952
-19.615
-19.6904
-19.7029
-19.6985
-19.6683
-19.5788
-19.4282
-19.1306
-18.747
-18.389
-18.0986
-17.8475
-17.6233
-17.4071
-17.1953
-16.9928
-16.8248
-16.7256
-16.735
-16.8525
-17.0155
-17.1329
-17.1259
-16.9254
-16.5553
-16.1109
-15.7066
-15.3193
-14.8713
-14.3453
-13.8159
-13.2358
-12.6141
-12.0354
-11.7253
-11.6879
-11.7353
-11.7324
-11.6163
-11.3605
-10.9638
-10.4324
-9.77419
-8.98097
-8.02433
-6.85095
-5.43542
-3.79342
-2.03514
-0.329065
1.19263
2.73878
4.06134
4.74518
4.84964
4.53583
3.92559
3.18014
2.45457
1.88969
1.58483
1.60269
1.9779
2.72034
3.81336
5.21507
6.86078
8.66835
10.5468
12.4087
14.1823
15.8187
17.2903
18.5836
19.6935
20.6189
21.3617
21.9266
22.3241
22.5715
22.6926
22.7128
22.653
22.5333
22.3681
22.1681
21.9413
21.6937
21.4307
21.1575
20.8799
20.6037
20.3345
20.0777
19.8378
19.6186
19.4231
19.2532
19.1096
18.9908
18.8928
18.8096
18.7335
18.6568
18.5764
18.4976
18.4346
18.3949
18.3634
18.3315
18.3009
18.2584
18.1971
18.1215
18.0419
17.9623
17.8941
17.8318
17.7714
17.7387
17.739
17.7705
17.8551
18.0539
18.3162
-6.03202
-6.18505
-6.34425
-6.44209
-6.38718
-6.25677
-6.14501
-6.14494
-6.30236
-6.61174
-7.03411
-7.51467
-8.01117
-8.48336
-8.91266
-9.29352
-9.61627
-9.87529
-10.0691
-10.2099
-10.2889
-10.318
-10.3226
-10.3061
-10.2733
-10.2637
-10.2819
-10.3423
-10.4238
-10.5271
-10.701
-10.9264
-11.1749
-11.427
-11.6722
-11.913
-12.1488
-12.4152
-12.7611
-13.2062
-13.6714
-14.0842
-14.4801
-14.9094
-15.4567
-16.0776
-16.7404
-17.4296
-18.061
-18.6379
-19.1533
-19.6317
-20.0641
-20.4162
-20.6676
-20.8382
-20.8903
-20.8581
-20.7938
-20.6863
-20.5057
-20.304
-20.0486
-19.725
-19.4375
-19.1934
-18.98
-18.781
-18.5804
-18.3719
-18.1604
-17.9819
-17.8756
-17.8687
-17.956
-18.0842
-18.1833
-18.1624
-17.9362
-17.5099
-16.9586
-16.4243
-15.9484
-15.4508
-14.8765
-14.3049
-13.7876
-13.3108
-12.8878
-12.6451
-12.5773
-12.54
-12.4463
-12.2418
-11.9106
-11.4547
-10.8814
-10.1986
-9.40031
-8.45772
-7.30734
-5.9104
-4.25787
-2.46408
-0.643141
0.861538
2.18562
3.24359
3.74581
3.79174
3.47353
2.91706
2.26273
1.64625
1.18604
0.971501
1.06365
1.49853
2.2856
3.41206
4.84307
6.51801
8.35584
10.2651
12.1555
13.9532
15.608
17.0931
18.3971
19.5169
20.4527
21.2068
21.7837
22.193
22.4497
22.5807
22.6099
22.5592
22.4481
22.2908
22.0979
21.877
21.6341
21.3745
21.1035
20.827
20.5505
20.2799
20.021
19.7782
19.5551
19.3548
19.1789
19.0275
18.8988
18.7887
18.6917
18.6023
18.5164
18.4351
18.367
18.3227
18.2956
18.257
18.2088
18.1662
18.113
18.0419
17.9613
17.8846
17.8185
17.7742
17.7405
17.7006
17.6717
17.661
17.6938
17.783
17.9878
18.2158
-5.83961
-5.91656
-6.11315
-6.37696
-6.63355
-6.86748
-7.10998
-7.39989
-7.75955
-8.17872
-8.62011
-9.0431
-9.44767
-9.83909
-10.1823
-10.4718
-10.7119
-10.8999
-11.0445
-11.1591
-11.2423
-11.293
-11.3184
-11.3279
-11.3238
-11.3258
-11.3332
-11.3521
-11.3988
-11.4826
-11.6179
-11.8028
-12.0298
-12.2882
-12.5675
-12.8544
-13.1828
-13.5931
-14.0711
-14.5936
-15.1005
-15.5549
-15.9527
-16.3934
-16.9422
-17.5496
-18.2329
-18.9876
-19.7182
-20.4032
-21.0145
-21.527
-21.9254
-22.2139
-22.4125
-22.5168
-22.5305
-22.4607
-22.3133
-22.1045
-21.8676
-21.6298
-21.4163
-21.2137
-21.0329
-20.8693
-20.7138
-20.5513
-20.3653
-20.1485
-19.9135
-19.7079
-19.5734
-19.5236
-19.5416
-19.5823
-19.5863
-19.4698
-19.1575
-18.6709
-18.0434
-17.373
-16.787
-16.2189
-15.6326
-15.0972
-14.6974
-14.3943
-14.1596
-13.9837
-13.84
-13.6757
-13.4532
-13.1407
-12.7257
-12.2064
-11.5882
-10.8783
-10.0753
-9.15041
-8.02822
-6.65983
-5.03448
-3.2388
-1.46758
-0.00682017
1.09598
1.82969
2.17051
2.17118
1.88237
1.42086
0.901076
0.432394
0.10393
-0.00728495
0.161394
0.652409
1.48623
2.65796
4.13536
5.86
7.75171
9.71655
11.6598
13.5024
15.1917
16.7019
18.025
19.1621
20.1164
20.8907
21.4886
21.9179
22.1946
22.3459
22.3949
22.3639
22.2715
22.1316
21.954
21.7461
21.5135
21.2616
20.9958
20.7222
20.4468
20.1758
19.9152
19.6697
19.443
19.2376
19.0557
18.8975
18.7613
18.6437
18.5402
18.4459
18.358
18.2772
18.208
18.1544
18.1142
18.0803
18.0476
18.008
17.9508
17.8776
17.8017
17.7336
17.6743
17.6297
17.5962
17.5651
17.5517
17.5551
17.5892
17.6641
17.8613
18.0826
-5.8074
-5.8901
-6.17402
-6.60902
-7.13342
-7.68894
-8.23641
-8.76891
-9.28288
-9.76747
-10.2079
-10.5932
-10.9256
-11.2027
-11.4225
-11.6137
-11.7874
-11.9338
-12.0655
-12.1829
-12.2853
-12.3705
-12.4382
-12.4923
-12.5392
-12.5766
-12.6066
-12.6276
-12.6438
-12.6646
-12.7068
-12.7893
-12.9275
-13.1253
-13.3816
-13.7081
-14.1358
-14.6833
-15.3193
-15.9733
-16.5865
-17.1447
-17.6415
-18.1471
-18.7406
-19.4311
-20.19
-20.9806
-21.7457
-22.4499
-23.063
-23.5744
-23.9745
-24.2696
-24.4712
-24.5673
-24.5509
-24.4233
-24.2022
-23.9242
-23.6468
-23.4207
-23.2452
-23.0981
-22.9724
-22.8591
-22.7453
-22.6125
-22.4394
-22.2144
-21.9541
-21.7062
-21.5134
-21.3833
-21.3012
-21.2434
-21.1415
-20.9066
-20.4875
-19.9189
-19.1995
-18.4252
-17.757
-17.1877
-16.6567
-16.2179
-15.9169
-15.723
-15.5615
-15.3976
-15.2099
-14.973
-14.6682
-14.2767
-13.7912
-13.2131
-12.5496
-11.8108
-11.0006
-10.0903
-8.99001
-7.63363
-6.02762
-4.27911
-2.63595
-1.32492
-0.429529
0.106198
0.312812
0.242145
-0.0325634
-0.408781
-0.79992
-1.12654
-1.32363
-1.32734
-1.07612
-0.519079
0.370735
1.59409
3.12461
4.90918
6.86939
8.90863
10.9255
12.8329
14.5733
16.1211
17.4733
18.6367
19.6183
20.4215
21.0491
21.5074
21.8139
21.9942
22.0721
22.0699
22.0052
21.8908
21.7359
21.547
21.3297
21.0894
20.8318
20.5633
20.2906
20.0204
19.7585
19.5096
19.2785
19.0682
18.8806
18.7159
18.573
18.4489
18.3402
18.2435
18.1562
18.0782
18.0113
17.9567
17.9131
17.8741
17.8321
17.7839
17.7296
17.6627
17.5908
17.5285
17.4794
17.4464
17.4274
17.41
17.4063
17.4174
17.4574
17.5377
17.7325
17.949
-5.99214
-6.20382
-6.68299
-7.33134
-8.05245
-8.77833
-9.4703
-10.1109
-10.6888
-11.1999
-11.643
-12.0112
-12.3025
-12.5237
-12.6941
-12.8412
-12.9785
-13.1088
-13.2382
-13.3704
-13.4984
-13.6187
-13.7328
-13.8411
-13.943
-14.0356
-14.112
-14.163
-14.1834
-14.1745
-14.1494
-14.1358
-14.169
-14.2797
-14.4901
-14.8229
-15.3027
-15.9253
-16.6391
-17.3783
-18.0908
-18.7684
-19.423
-20.0889
-20.8028
-21.5826
-22.4153
-23.2626
-24.0828
-24.8396
-25.5004
-26.0463
-26.4648
-26.7626
-26.9496
-27.0167
-26.9568
-26.7752
-26.4996
-26.1772
-25.8811
-25.6446
-25.4455
-25.2684
-25.1118
-24.97
-24.8301
-24.6725
-24.4765
-24.228
-23.936
-23.6353
-23.3522
-23.0941
-22.864
-22.6548
-22.4195
-22.083
-21.5992
-20.9804
-20.2234
-19.4267
-18.7442
-18.2192
-17.8049
-17.4951
-17.2866
-17.1401
-17.0021
-16.8439
-16.6411
-16.3725
-16.0228
-15.5796
-15.0404
-14.4118
-13.7087
-12.9482
-12.1406
-11.2495
-10.1582
-8.78941
-7.192
-5.53362
-4.04861
-2.91644
-2.17863
-1.78051
-1.69551
-1.84843
-2.13494
-2.45658
-2.74521
-2.95023
-3.02888
-2.9305
-2.59622
-1.97189
-1.02629
0.247109
1.82962
3.67699
5.715
7.84387
9.95293
11.944
13.7526
15.3527
16.746
17.9457
18.9632
19.8035
20.4679
20.963
21.3065
21.5235
21.6388
21.674
21.6454
21.5643
21.4385
21.2741
21.0763
20.8508
20.6039
20.3425
20.0738
19.8047
19.5421
19.2915
19.0572
18.8425
18.6495
18.4788
18.3296
18.2002
18.0876
17.989
17.9023
17.8266
17.7623
17.7094
17.6667
17.629
17.5874
17.5393
17.4853
17.4212
17.3514
17.2888
17.2433
17.2206
17.2181
17.2233
17.2451
17.2801
17.3407
17.4335
17.6198
17.8285
-6.50146
-6.88274
-7.55114
-8.30472
-9.09527
-9.86548
-10.5788
-11.2457
-11.8594
-12.4123
-12.898
-13.3064
-13.6322
-13.878
-14.0621
-14.2197
-14.3701
-14.5186
-14.6709
-14.8337
-15
-15.1663
-15.3306
-15.4897
-15.6404
-15.7768
-15.8895
-15.9681
-16.0049
-15.9982
-15.9584
-15.9121
-15.9006
-15.9708
-16.1613
-16.5076
-17.0169
-17.6735
-18.4284
-19.2306
-20.0398
-20.8406
-21.6391
-22.4491
-23.2859
-24.1615
-25.0663
-25.9708
-26.8411
-27.6428
-28.3455
-28.9288
-29.3713
-29.6666
-29.8223
-29.8405
-29.7238
-29.4846
-29.1533
-28.793
-28.4695
-28.1789
-27.8964
-27.6149
-27.3408
-27.0754
-26.8162
-26.5549
-26.2781
-25.9706
-25.6255
-25.2521
-24.8515
-24.429
-24.0143
-23.6236
-23.2274
-22.7779
-22.2418
-21.6111
-20.8952
-20.1822
-19.5907
-19.1777
-18.9099
-18.7349
-18.6154
-18.5161
-18.4114
-18.2771
-18.0851
-17.8146
-17.4494
-16.9792
-16.4051
-15.739
-15.0049
-14.2311
-13.4341
-12.5639
-11.4709
-10.087
-8.51954
-6.97868
-5.65184
-4.66996
-4.04259
-3.74605
-3.76056
-3.98542
-4.29737
-4.59376
-4.81371
-4.92549
-4.90394
-4.71262
-4.30051
-3.61556
-2.62269
-1.30982
0.315289
2.22014
4.33781
6.56478
8.77793
10.8653
12.7541
14.417
15.8596
17.1019
18.1609
19.0432
19.7491
20.286
20.6726
20.9339
21.0949
21.1756
21.1904
21.1489
21.0576
20.9218
20.747
20.5391
20.3052
20.0525
19.789
19.523
19.2616
19.0105
18.7745
18.557
18.3603
18.1851
18.0312
17.8971
17.781
17.6808
17.5947
17.5214
17.4604
17.4111
17.3719
17.3384
17.3036
17.2633
17.2161
17.1599
17.0974
17.039
16.9945
16.9735
16.9819
17.0069
17.0515
17.1134
17.2027
17.3173
17.5033
17.7038
-7.48387
-7.91617
-8.57921
-9.28649
-10.0142
-10.7456
-11.4559
-12.1353
-12.7715
-13.3649
-13.9045
-14.3783
-14.777
-15.0993
-15.3562
-15.5814
-15.8027
-16.0275
-16.2581
-16.4967
-16.736
-16.9717
-17.1995
-17.4138
-17.6086
-17.7762
-17.9104
-18.0055
-18.0589
-18.0723
-18.0556
-18.0318
-18.0389
-18.1282
-18.3481
-18.7353
-19.288
-19.982
-20.7824
-21.6521
-22.5557
-23.4727
-24.3961
-25.3265
-26.268
-27.2215
-28.1794
-29.1225
-30.023
-30.8533
-31.588
-32.2022
-32.6566
-32.928
-33.0265
-32.9707
-32.7769
-32.4623
-32.0654
-31.6544
-31.2679
-30.8742
-30.4537
-30.0126
-29.5639
-29.1146
-28.6705
-28.2343
-27.8018
-27.3636
-26.9087
-26.422
-25.8865
-25.3014
-24.7013
-24.123
-23.5708
-23.0225
-22.454
-21.8516
-21.2324
-20.6704
-20.2485
-19.9969
-19.8845
-19.8408
-19.812
-19.7766
-19.7239
-19.6317
-19.4726
-19.2251
-18.8699
-18.3963
-17.8065
-17.1171
-16.3604
-15.5768
-14.7898
-13.9332
-12.838
-11.4677
-9.97672
-8.56921
-7.38464
-6.51016
-5.95328
-5.72428
-5.80585
-6.08298
-6.42562
-6.71713
-6.89568
-6.93951
-6.83916
-6.57
-6.08999
-5.35145
-4.32171
-2.98246
-1.32932
0.619807
2.80723
5.12598
7.44056
9.62455
11.5956
13.3244
14.8195
16.1082
17.2134
18.1411
18.8926
19.4766
19.9123
20.225
20.4387
20.5717
20.6359
20.6388
20.5856
20.4815
20.3323
20.1445
19.9257
19.684
19.4285
19.168
18.9099
18.6607
18.4256
18.208
18.0101
17.8329
17.6764
17.5397
17.4218
17.3211
17.2364
17.1664
17.1099
17.0657
17.0318
17.0045
16.9787
16.9502
16.9168
16.8767
16.83
16.7825
16.7432
16.7233
16.7339
16.7711
16.8333
16.9185
17.0336
17.1707
17.3616
17.5548
-8.45834
-8.8293
-9.35072
-9.96541
-10.6366
-11.3241
-12.0142
-12.6976
-13.3668
-14.0141
-14.6266
-15.1912
-15.6965
-16.1392
-16.525
-16.8802
-17.2313
-17.5807
-17.9277
-18.2709
-18.6039
-18.9199
-19.2131
-19.4771
-19.7047
-19.8917
-20.0368
-20.1426
-20.2148
-20.2614
-20.2936
-20.3318
-20.4098
-20.5777
-20.8815
-21.346
-21.9667
-22.7226
-23.5893
-24.5364
-25.531
-26.5503
-27.5777
-28.6019
-29.6173
-30.6223
-31.6147
-32.5832
-33.503
-34.3533
-35.1096
-35.7353
-36.1788
-36.4121
-36.4491
-36.3221
-36.0532
-35.6612
-35.1873
-34.6985
-34.2029
-33.6551
-33.0504
-32.4115
-31.7528
-31.0871
-30.4281
-29.7839
-29.1541
-28.5306
-27.9017
-27.2481
-26.5492
-25.8016
-25.0394
-24.307
-23.6306
-23.0076
-22.4263
-21.8809
-21.391
-21.0045
-20.773
-20.6934
-20.7249
-20.7915
-20.8434
-20.8734
-20.8785
-20.8374
-20.7264
-20.5221
-20.1982
-19.7404
-19.1503
-18.4492
-17.6768
-16.8827
-16.0978
-15.2475
-14.1684
-12.8571
-11.4871
-10.2243
-9.1595
-8.35623
-7.83927
-7.64791
-7.76671
-8.08217
-8.45494
-8.74853
-8.90023
-8.8978
-8.73863
-8.40426
-7.86101
-7.07538
-6.01857
-4.66612
-3.00222
-1.02974
1.20384
3.59156
5.98845
8.25661
10.3036
12.0952
13.6426
14.9814
16.1351
17.1108
17.9107
18.5449
19.034
19.4034
19.6753
19.8654
19.9826
20.0326
20.0198
19.9495
19.828
19.6624
19.4612
19.2337
18.9892
18.7372
18.4857
18.2418
18.0106
17.7959
17.5999
17.4236
17.2673
17.1306
17.0128
16.9135
16.8319
16.7665
16.7157
16.6777
16.6502
16.6298
16.6129
16.5961
16.5777
16.5571
16.5332
16.5075
16.4849
16.4735
16.487
16.5287
16.601
16.7013
16.8341
16.989
17.185
17.3729
-8.98569
-9.27301
-9.69518
-10.2299
-10.8486
-11.5159
-12.2076
-12.9111
-13.6227
-14.3354
-15.0356
-15.71
-16.3453
-16.9364
-17.4813
-17.9985
-18.5092
-19.0115
-19.4989
-19.9654
-20.4051
-20.8121
-21.1802
-21.5013
-21.7691
-21.9825
-22.1484
-22.2797
-22.3903
-22.4938
-22.6034
-22.7394
-22.93
-23.2165
-23.6377
-24.2062
-24.9158
-25.7494
-26.689
-27.7073
-28.7752
-29.8685
-30.9647
-32.0478
-33.109
-34.1473
-35.1682
-36.1648
-37.1129
-37.9924
-38.7733
-39.4089
-39.8456
-40.0568
-40.0565
-39.8759
-39.5371
-39.0615
-38.491
-37.8861
-37.2288
-36.4746
-35.6466
-34.7835
-33.8981
-33.0057
-32.1212
-31.2509
-30.3938
-29.5446
-28.6972
-27.8403
-26.9619
-26.0632
-25.1721
-24.3328
-23.5799
-22.925
-22.3637
-21.8933
-21.5309
-21.3062
-21.2417
-21.3135
-21.4607
-21.6082
-21.7188
-21.8009
-21.8573
-21.8677
-21.8133
-21.6647
-21.3849
-20.9538
-20.372
-19.6666
-18.8838
-18.0778
-17.2869
-16.4435
-15.4068
-14.1953
-12.9719
-11.8524
-10.8847
-10.1276
-9.63203
-9.46118
-9.60277
-9.94875
-10.3466
-10.6402
-10.7697
-10.733
-10.527
-10.1342
-9.53207
-8.70591
-7.63175
-6.27821
-4.61899
-2.64467
-0.392692
2.03276
4.48194
6.81005
8.91651
10.7616
12.3583
13.7446
14.9453
15.9677
16.8157
17.501
18.0462
18.4757
18.8089
19.0578
19.229
19.3265
19.3548
19.3194
19.2275
19.0871
18.9071
18.697
18.4672
18.2275
17.9864
17.7511
17.527
17.3182
17.127
16.9546
16.8018
16.6684
16.5546
16.4603
16.3843
16.3253
16.2815
16.2507
16.2302
16.2172
16.2087
16.2022
16.1972
16.1946
16.1944
16.1964
16.2015
16.2119
16.2378
16.2878
16.3668
16.4762
16.6188
16.7824
16.9783
17.161
-9.0313
-9.25688
-9.62198
-10.117
-10.7129
-11.3767
-12.0834
-12.8222
-13.591
-14.3831
-15.1841
-15.9787
-16.7527
-17.498
-18.2098
-18.899
-19.5752
-20.2329
-20.863
-21.4587
-22.0147
-22.5246
-22.9819
-23.3781
-23.71
-23.9821
-24.2078
-24.4067
-24.597
-24.7956
-25.0159
-25.2771
-25.607
-26.0355
-26.585
-27.2612
-28.0598
-28.9671
-29.9712
-31.0471
-32.1699
-33.3148
-34.4603
-35.5911
-36.6995
-37.7859
-38.8588
-39.9036
-40.8935
-41.8085
-42.6164
-43.2623
-43.6905
-43.8776
-43.8402
-43.6048
-43.1884
-42.6135
-41.9218
-41.1625
-40.3032
-39.3142
-38.241
-37.133
-36.0049
-34.8734
-33.7541
-32.6507
-31.5592
-30.4737
-29.3948
-28.3253
-27.2694
-26.2373
-25.2532
-24.3531
-23.5705
-22.9232
-22.4101
-22.0249
-21.7745
-21.6743
-21.7316
-21.9121
-22.1392
-22.3347
-22.4771
-22.5926
-22.6874
-22.7407
-22.7401
-22.6483
-22.4146
-22.0135
-21.4444
-20.7381
-19.9462
-19.1261
-18.3242
-17.4911
-16.5182
-15.4296
-14.3591
-13.3698
-12.4772
-11.7505
-11.271
-11.1172
-11.277
-11.6467
-12.0613
-12.3553
-12.4678
-12.4006
-12.1539
-11.7101
-11.0579
-10.1996
-9.1165
-7.76994
-6.12431
-4.16132
-1.91107
0.522821
2.99
5.34557
7.48607
9.36749
11.0025
12.4284
13.6699
14.7345
15.6276
16.3635
16.9652
17.455
17.8483
18.1538
18.3761
18.5191
18.5877
18.5881
18.5282
18.4164
18.2616
18.0736
17.8624
17.6381
17.4096
17.1846
16.9693
16.7684
16.5849
16.4204
16.2754
16.1509
16.0466
15.9615
15.8945
15.8442
15.8088
15.7863
15.774
15.7688
15.7679
15.7695
15.7744
15.7853
15.8046
15.8336
15.8715
15.9161
15.9704
16.0401
16.1328
16.2504
16.3986
16.5648
16.7553
16.9291
-8.71942
-8.91421
-9.25582
-9.73842
-10.3383
-11.0272
-11.7812
-12.5867
-13.4373
-14.3244
-15.2338
-16.1496
-17.0577
-17.9481
-18.8151
-19.6641
-20.4958
-21.3006
-22.0664
-22.7861
-23.456
-24.0713
-24.6264
-25.1154
-25.5374
-25.8995
-26.219
-26.5192
-26.8191
-27.1345
-27.4803
-27.8747
-28.3393
-28.8946
-29.5555
-30.3263
-31.2054
-32.1861
-33.2594
-34.4033
-35.5933
-36.8044
-38.0175
-39.2193
-40.4022
-41.5647
-42.711
-43.8159
-44.8527
-45.8016
-46.6241
-47.2614
-47.662
-47.8072
-47.7151
-47.4094
-46.9015
-46.2097
-45.3748
-44.4393
-43.3677
-42.1427
-40.8189
-39.4544
-38.0702
-36.6851
-35.3213
-33.9831
-32.6646
-31.359
-30.0683
-28.8039
-27.5875
-26.4431
-25.3975
-24.4771
-23.705
-23.0934
-22.639
-22.3305
-22.1685
-22.1589
-22.3002
-22.5489
-22.8187
-23.0266
-23.1686
-23.2931
-23.4082
-23.4894
-23.5301
-23.4839
-23.2879
-22.9126
-22.355
-21.6504
-20.8515
-20.0181
-19.2027
-18.3795
-17.476
-16.5074
-15.5747
-14.6929
-13.8618
-13.1639
-12.7055
-12.5748
-12.7526
-13.1394
-13.5665
-13.8607
-13.9617
-13.8697
-13.5913
-13.1091
-12.4188
-11.5359
-10.4483
-9.11119
-7.47993
-5.53152
-3.29619
-0.878964
1.57363
3.92324
6.06806
7.96303
9.61983
11.0732
12.3457
13.4445
14.3767
15.1588
15.813
16.3584
16.8059
17.1612
17.4287
17.6129
17.72
17.7566
17.7307
17.651
17.5259
17.3642
17.1746
16.967
16.7515
16.5372
16.3315
16.1403
15.9674
15.8152
15.6843
15.5748
15.4853
15.4142
15.3599
15.3214
15.2972
15.2851
15.2822
15.2846
15.2893
15.2957
15.3061
15.3255
15.3594
15.4111
15.4813
15.566
15.6621
15.7684
15.8884
16.0238
16.1793
16.3463
16.5286
16.6906
-8.28001
-8.46136
-8.80175
-9.29813
-9.93271
-10.6792
-11.5121
-12.4115
-13.3654
-14.3613
-15.3842
-16.4185
-17.4508
-18.4708
-19.472
-20.4531
-21.4077
-22.3254
-23.197
-24.0186
-24.7876
-25.498
-26.1447
-26.7239
-27.2356
-27.6877
-28.0988
-28.4918
-28.8869
-29.3028
-29.7581
-30.2719
-30.8605
-31.5342
-32.3018
-33.168
-34.1319
-35.1946
-36.3459
-37.5648
-38.8255
-40.1041
-41.3844
-42.6568
-43.9143
-45.1473
-46.3479
-47.4929
-48.5631
-49.5443
-50.3934
-51.0457
-51.449
-51.5817
-51.4515
-51.0787
-50.478
-49.6669
-48.6843
-47.5712
-46.2926
-44.84
-43.2732
-41.6537
-40.0164
-38.3836
-36.7775
-35.2121
-33.6853
-32.1891
-30.7256
-29.3107
-27.9733
-26.7481
-25.6665
-24.7488
-24.0065
-23.4403
-23.043
-22.8001
-22.7055
-22.7592
-22.9531
-23.2337
-23.5131
-23.7094
-23.8309
-23.9419
-24.0549
-24.1469
-24.205
-24.1811
-24.0075
-23.65
-23.1047
-22.4073
-21.6089
-20.7649
-19.9291
-19.1021
-18.2456
-17.368
-16.5444
-15.7501
-14.9787
-14.3193
-13.8937
-13.796
-13.9933
-14.3891
-14.8225
-15.1193
-15.2189
-15.1151
-14.8153
-14.3073
-13.5911
-12.69
-11.5971
-10.2666
-8.64677
-6.71467
-4.50675
-2.1282
0.281443
2.59404
4.71359
6.59739
8.25621
9.7208
11.01
12.1306
13.0918
13.9119
14.6107
15.202
15.6931
16.089
16.3946
16.616
16.7595
16.8321
16.8416
16.7959
16.7025
16.5681
16.401
16.2108
16.0088
15.8059
15.6117
15.4332
15.2754
15.1403
15.0282
14.9378
14.8667
14.8131
14.7753
14.7524
14.7427
14.7434
14.7502
14.7585
14.7657
14.7728
14.7846
14.8087
14.8532
14.9241
15.0238
15.1493
15.2945
15.4515
15.6155
15.7828
15.9565
16.1285
16.3037
16.4535
-7.87269
-8.05354
-8.41116
-8.94677
-9.64609
-10.4824
-11.4253
-12.4476
-13.5283
-14.6499
-15.7942
-16.944
-18.0836
-19.2017
-20.2923
-21.3525
-22.374
-23.3481
-24.2696
-25.1374
-25.9507
-26.7052
-27.3975
-28.0252
-28.59
-29.1015
-29.58
-30.0498
-30.5335
-31.0526
-31.6259
-32.2667
-32.9809
-33.7712
-34.6416
-35.5956
-36.6364
-37.7674
-38.9787
-40.2492
-41.554
-42.8741
-44.199
-45.5228
-46.8398
-48.1309
-49.3736
-50.5509
-51.6518
-52.661
-53.5417
-54.2304
-54.6708
-54.8289
-54.6989
-54.2926
-53.6303
-52.7307
-51.6251
-50.3505
-48.8847
-47.2322
-45.4529
-43.6043
-41.7341
-39.8765
-38.055
-36.2899
-34.5843
-32.9343
-31.3455
-29.8319
-28.4239
-27.161
-26.0747
-25.179
-24.4736
-23.9558
-23.611
-23.4207
-23.3794
-23.4777
-23.6978
-23.9778
-24.236
-24.3981
-24.4791
-24.5478
-24.6312
-24.7096
-24.7612
-24.7388
-24.5767
-24.2352
-23.7071
-23.0242
-22.2307
-21.374
-20.5028
-19.646
-18.7975
-17.9707
-17.2205
-16.4977
-15.7942
-15.1904
-14.81
-14.7494
-14.9642
-15.3568
-15.7864
-16.0892
-16.1961
-16.091
-15.778
-15.2558
-14.5293
-13.6184
-12.5193
-11.1905
-9.58079
-7.67219
-5.50728
-3.19085
-0.851895
1.39415
3.46011
5.30753
6.9465
8.40252
9.69037
10.8172
11.7952
12.6421
13.3729
13.9971
14.52
14.9472
15.2849
15.5396
15.7179
15.8263
15.8707
15.8573
15.7926
15.6831
15.5371
15.3643
15.1766
14.9879
14.8096
14.6496
14.5119
14.398
14.307
14.237
14.1859
14.1523
14.1346
14.1307
14.1377
14.1511
14.1655
14.1764
14.1825
14.1872
14.1983
14.2255
14.2794
14.368
14.4958
14.6616
14.8584
15.0738
15.2951
15.5105
15.7168
15.9056
16.0808
16.2211
-7.54557
-7.73865
-8.13329
-8.73168
-9.52143
-10.4711
-11.5424
-12.7003
-13.9146
-15.1596
-16.4112
-17.6489
-18.8552
-20.0184
-21.134
-22.2008
-23.2137
-24.1677
-25.0608
-25.8977
-26.6843
-27.4232
-28.1159
-28.7625
-29.3649
-29.9322
-30.4822
-31.0372
-31.6179
-32.2421
-32.9226
-33.6658
-34.4719
-35.3408
-36.2763
-37.2838
-38.3711
-39.5426
-40.7903
-42.0939
-43.4315
-44.7876
-46.1553
-47.5268
-48.8952
-50.2396
-51.5268
-52.7356
-53.8642
-54.8947
-55.7996
-56.5233
-57.0098
-57.2195
-57.1306
-56.7398
-56.0672
-55.1303
-53.955
-52.5687
-50.9622
-49.1561
-47.2107
-45.1805
-43.1222
-41.0841
-39.0936
-37.172
-35.3276
-33.5624
-31.8897
-30.328
-28.9033
-27.6478
-26.5879
-25.733
-25.0753
-24.6044
-24.3051
-24.1635
-24.1655
-24.2885
-24.5028
-24.7486
-24.9605
-25.0758
-25.1014
-25.1044
-25.1305
-25.1687
-25.1895
-25.1495
-24.9906
-24.6693
-24.1687
-23.5074
-22.7179
-21.8401
-20.9182
-20.0065
-19.1228
-18.3095
-17.5977
-16.9353
-16.3079
-15.7728
-15.446
-15.4151
-15.6361
-16.0081
-16.4169
-16.7192
-16.835
-16.7358
-16.4231
-15.9028
-15.1796
-14.2686
-13.1664
-11.8381
-10.2431
-8.37155
-6.27043
-4.04188
-1.80294
0.347025
2.33172
4.11775
5.71335
7.13841
8.40454
9.52095
10.5016
11.3612
12.1096
12.753
13.2967
13.7473
14.1124
14.3985
14.61
14.7516
14.8271
14.8407
14.7986
14.7089
14.58
14.4225
14.2505
14.0798
13.923
13.7868
13.674
13.5842
13.5155
13.4671
13.438
13.4269
13.4315
13.4478
13.4704
13.4934
13.5114
13.5208
13.5228
13.5237
13.5336
13.5646
13.6291
13.7371
13.895
14.1022
14.3517
14.6286
14.9153
15.1914
15.4457
15.6655
15.853
15.9919
-7.21665
-7.42938
-7.87081
-8.53941
-9.42518
-10.4908
-11.6903
-12.978
-14.3142
-15.6647
-17.0017
-18.3029
-19.5475
-20.7183
-21.808
-22.8198
-23.7618
-24.6391
-25.4547
-26.2169
-26.9374
-27.6264
-28.2916
-28.9335
-29.5511
-30.148
-30.7358
-31.3334
-31.9603
-32.632
-33.3601
-34.1502
-35.0021
-35.9162
-36.8959
-37.9467
-39.0734
-40.2788
-41.5553
-42.885
-44.2478
-45.6295
-47.0255
-48.4273
-49.8238
-51.2008
-52.5231
-53.7628
-54.9157
-55.9718
-56.9084
-57.6772
-58.2233
-58.5022
-58.4827
-58.1515
-57.5187
-56.6057
-55.4314
-54.0063
-52.3288
-50.4389
-48.4031
-46.2714
-44.1019
-41.9526
-39.8581
-37.8414
-35.9132
-34.0817
-32.3717
-30.8039
-29.4003
-28.1868
-27.1819
-26.3848
-25.781
-25.3617
-25.1105
-25.0034
-25.0244
-25.145
-25.3167
-25.4899
-25.63
-25.6847
-25.646
-25.5747
-25.5259
-25.5009
-25.4721
-25.4006
-25.2386
-24.9435
-24.4827
-23.8501
-23.0601
-22.1476
-21.1643
-20.1832
-19.2415
-18.4163
-17.712
-17.0965
-16.5434
-16.083
-15.8062
-15.788
-15.992
-16.3219
-16.6864
-16.9718
-17.0896
-17.0018
-16.7016
-16.1963
-15.4915
-14.5948
-13.4997
-12.1802
-10.6104
-8.79308
-6.78034
-4.66761
-2.55671
-0.53131
1.34515
3.04434
4.57177
5.94186
7.16538
8.25435
9.22273
10.0804
10.8325
11.4837
12.04
12.5092
12.8989
13.2137
13.455
13.6245
13.7237
13.7563
13.7282
13.649
13.5308
13.3862
13.2312
13.0817
12.9492
12.8391
12.7532
12.6892
12.6457
12.6222
12.6181
12.6313
12.6575
12.6908
12.7245
12.7522
12.7691
12.7738
12.7703
12.7674
12.7774
12.8145
12.8932
13.025
13.2172
13.4698
13.7747
14.1157
14.4717
14.8166
15.1309
15.396
15.6098
15.7588
-6.69202
-6.93322
-7.4239
-8.16039
-9.13926
-10.3173
-11.6455
-13.0694
-14.5406
-16.0152
-17.4546
-18.8252
-20.0972
-21.2471
-22.2694
-23.1771
-23.9935
-24.7378
-25.4193
-26.0478
-26.6381
-27.2079
-27.7709
-28.3318
-28.8886
-29.4428
-30.0067
-30.5957
-31.2283
-31.9187
-32.6757
-33.5016
-34.3945
-35.3522
-36.3763
-37.4674
-38.6257
-39.8531
-41.144
-42.4839
-43.8566
-45.2493
-46.6564
-48.0705
-49.4798
-50.8738
-52.2213
-53.4941
-54.6766
-55.7651
-56.7394
-57.5645
-58.1815
-58.5406
-58.6079
-58.3679
-57.8247
-56.995
-55.8937
-54.5193
-52.87
-50.9954
-48.9664
-46.8323
-44.6477
-42.4728
-40.3493
-38.3058
-36.3561
-34.5133
-32.8062
-31.2629
-29.9042
-28.7503
-27.8165
-27.094
-26.5557
-26.1876
-25.975
-25.8981
-25.9236
-26.015
-26.1192
-26.1893
-26.2182
-26.1829
-26.0665
-25.918
-25.7866
-25.6832
-25.5921
-25.4821
-25.3143
-25.0478
-24.6343
-24.0353
-23.2445
-22.2909
-21.242
-20.1875
-19.1892
-18.3347
-17.6166
-17.0298
-16.5373
-16.1455
-15.9061
-15.8764
-16.0344
-16.2993
-16.5975
-16.8414
-16.9479
-16.8703
-16.5924
-16.1171
-15.4473
-14.5793
-13.5036
-12.206
-10.6787
-8.93931
-7.04313
-5.0745
-3.11833
-1.24379
0.497927
2.08387
3.51698
4.80833
5.97039
7.01713
7.95932
8.8016
9.54614
10.1969
10.7614
11.2475
11.6601
11.9992
12.2634
12.4519