/*--------------------------------*- C++ -*----------------------------------*\
  =========                 |
  \\      /  F ield         | OpenFOAM: The Open Source CFD Toolbox
   \\    /   O peration     | Website:  https://openfoam.org
    \\  /    A nd           | Version:  9
     \\/     M anipulation  |
\*---------------------------------------------------------------------------*/
FoamFile
{
    format      ascii;
    class       volScalarField;
    location    "0.098";
    object      s_0;
}
// * * * * * * * * * * * * * * * * * * * * * * * * * * * * * * * * * * * * * //

dimensions      [0 0 0 0 0 0 0];

internalField   nonuniform List<scalar> 
12225
(
1
1
1
1
1
1
1
1
1
1
1
1
1
1
1
1
1
0.999996
1
1
1
1
1
1
1
1
1
1
1
1
1
1
1
1
1
1
1
1
1
1
1
1
1
1
1
1
1
1
1
1
1
1
1
1
1
1
1
1
1
1
1
1
1
1
1
1
1
1
1
1
1
1
1
1
1
1
1
1
1
1
1
1
1
1
1
1
1
1
1
1
1
1
1
1
1
1
1
1
1
1
1
1
1
1
1
1
1
1
1
1
1
1
1
1
1
1
1
1
1
1
1
1
1
1
1
1
1
1
1
1
1
1
1
1
1
1
1
1
1
1
1
1
1
1
1
1
1
1
1
1
1
1
1
1
1
1
1
1
1
1
1
1
1
1
1
1
1
1
1
1
1
1
1
1
1
1
1
1
1
1
1
1
1
1
1
1
1
1
1
1
1
1
1
1
1
1
1
1
1
1
1
1
1
1
1
1
1
1
1
1
1
1
1
1
1
1
1
1
1
1
1
1
1
1
1
1
1
1
1
1
1
1
1
1
1
1
1
1
1
1
1
1
1
1
1
1
1
1
1
1
1
1
1
1
1
1
1
1
1
1
1
1
1
1
1
1
1
1
1
1
1
1
1
1
1
1
1
1
1
1
1
1
1
1
1
1
1
1
1
1
1
1
1
1
1
1
1
1
1
1
1
1
1
1
1
1
1
1
1
1
1
1
1
1
1
1
1
1
1
1
1
1
1
1
1
1
1
1
1
1
1
1
1
1
1
1
1
1
1
1
1
1
1
1
1
1
1
1
1
1
1
1
1
1
1
1
1
1
1
1
1
1
1
1
1
1
1
1
1
1
1
1
1
1
1
1
1
1
1
1
1
1
1
1
1
1
1
1
1
1
1
1
1
1
1
1
1
1
1
1
1
1
1
1
1
1
1
1
1
1
1
1
1
1
1
1
1
1
1
1
1
1
1
1
1
1
1
1
1
1
1
1
1
1
1
1
1
1
1
1
1
1
1
1
1
1
1
1
1
1
1
1
1
1
1
1
1
1
1
1
1
1
1
1
1
1
1
1
1
1
1
1
1
1
1
1
1
1
1
1
1
1
1
1
1
1
1
1
1
1
1
1
1
1
1
1
1
1
1
1
1
1
1
1
1
1
1
1
1
1
1
1
1
1
1
1
1
1
1
1
1
1
1
1
1
1
1
1
1
1
1
1
1
1
1
1
1
1
1
1
0.712483
0.712163
0.714776
0.717118
0.722767
0.731664
0.737961
0.741568
0.743497
0.744524
0.745141
0.745469
0.745679
0.745899
0.746249
0.74655
0.746788
0.747255
0.748295
0.749317
0.750022
0.750589
0.751364
0.752301
0.753121
0.753624
0.753808
0.753811
0.753636
0.752744
0.749365
0.74143
0.734409
0.730926
0.730656
0.733629
0.744264
0.7527
0.756723
0.759242
0.763358
0.76878
0.774249
0.779532
0.783409
0.787726
0.795743
0.816056
0.848332
0.868265
0.90638
0.916697
0.919007
0.919915
0.920638
0.921742
0.923023
0.92459
0.926243
0.928117
0.930676
0.933694
0.937582
0.941963
0.946436
0.951143
0.955714
0.959742
0.962062
0.962947
0.963387
0.963692
0.964101
0.964735
0.965564
0.966444
0.967202
0.967625
0.967816
0.967948
0.968107
0.968297
0.96849
0.968694
0.968946
0.969247
0.969566
0.969887
0.970255
0.970705
0.970954
0.971037
0.971056
0.970998
0.970663
0.969968
0.969063
0.968281
0.967783
0.96747
0.966889
0.965957
0.96464
0.963166
0.962555
0.962123
0.961994
0.962235
0.962476
0.962272
0.961007
0.960167
0.959394
0.956006
0.949348
0.947131
0.947029
0.948711
0.951911
0.954525
0.957343
0.960199
0.962384
0.963798
0.964735
0.96526
0.965576
0.965759
0.965922
0.965979
0.965984
0.965957
0.965847
0.965636
0.965414
0.965258
0.964912
0.964371
0.963747
0.963102
0.962121
0.960968
0.95954
0.957738
0.955576
0.953082
0.950287
0.94738
0.944366
0.941522
0.939092
0.937258
0.936065
0.9354
0.935096
0.935028
0.935141
0.935656
0.93663
0.937757
0.93871
0.939666
0.940871
0.941458
0.94167
0.941819
0.941725
0.941378
0.94113
0.940504
0.938755
0.937345
0.935949
0.930528
0.904453
0.889119
0.887723
0.888723
0.890091
0.892322
0.713797
0.712123
0.715363
0.736225
0.753328
0.758089
0.757598
0.756393
0.754237
0.752102
0.750559
0.749371
0.748195
0.747117
0.746445
0.746186
0.746141
0.746209
0.74655
0.747619
0.749449
0.753107
0.757748
0.761799
0.764613
0.766941
0.769556
0.771889
0.773102
0.773266
0.772858
0.771058
0.767045
0.756651
0.742883
0.737458
0.736618
0.737209
0.741887
0.746338
0.748389
0.75265
0.76297
0.770954
0.773978
0.777514
0.792898
0.839213
0.884853
0.906388
0.915718
0.919807
0.921989
0.925369
0.930143
0.934859
0.938714
0.942582
0.946056
0.949515
0.952527
0.954895
0.957353
0.959221
0.960338
0.961662
0.962966
0.963672
0.964666
0.965224
0.965471
0.965773
0.96633
0.967111
0.967887
0.968478
0.9689
0.969294
0.969824
0.970519
0.97124
0.971815
0.972187
0.972541
0.973025
0.973597
0.974113
0.974454
0.974667
0.975021
0.975616
0.97628
0.97683
0.97726
0.977534
0.977728
0.977828
0.977853
0.97769
0.977548
0.977017
0.975945
0.973816
0.97145
0.970529
0.970048
0.970721
0.973281
0.975207
0.974823
0.969043
0.961796
0.959522
0.95771
0.956726
0.953661
0.950393
0.950687
0.953486
0.957004
0.96128
0.965964
0.968772
0.97078
0.972219
0.97305
0.973837
0.974385
0.974992
0.975573
0.976091
0.976682
0.977165
0.977645
0.97801
0.978238
0.978362
0.97841
0.978266
0.978
0.977637
0.977171
0.976617
0.976037
0.975418
0.974684
0.973908
0.97308
0.971874
0.970449
0.968606
0.966565
0.964741
0.963279
0.962165
0.961373
0.960652
0.960191
0.959819
0.959662
0.959432
0.958969
0.958882
0.958786
0.95878
0.958913
0.959272
0.95934
0.959346
0.958852
0.957615
0.956032
0.951625
0.943712
0.921592
0.896315
0.894851
0.905439
0.910775
0.91406
0.722233
0.722896
0.752976
0.765255
0.764169
0.758975
0.751442
0.746635
0.744992
0.743959
0.743687
0.743433
0.742704
0.741763
0.740409
0.738756
0.736684
0.734153
0.731566
0.72909
0.726901
0.72528
0.72516
0.725881
0.728362
0.735051
0.745881
0.756008
0.76409
0.769332
0.773127
0.775794
0.776327
0.775739
0.772766
0.762541
0.747047
0.74123
0.74106
0.741935
0.74581
0.750165
0.758862
0.770076
0.780304
0.794737
0.840464
0.887925
0.907368
0.915704
0.91994
0.923613
0.926321
0.930544
0.935305
0.93932
0.942242
0.944875
0.946603
0.948511
0.950034
0.951463
0.953276
0.954777
0.95576
0.956764
0.957859
0.959133
0.961123
0.96271
0.963658
0.964278
0.964919
0.965756
0.966705
0.967575
0.968356
0.969005
0.969544
0.970057
0.970684
0.971444
0.972137
0.97261
0.972905
0.973214
0.973617
0.973928
0.974062
0.974213
0.974565
0.975113
0.975763
0.976519
0.977293
0.97814
0.978912
0.979501
0.980257
0.981057
0.981455
0.981582
0.981104
0.98013
0.979905
0.980379
0.98233
0.985746
0.986465
0.984575
0.975039
0.963544
0.959303
0.957915
0.95696
0.953595
0.95092
0.952281
0.95725
0.964031
0.969706
0.972439
0.973853
0.974642
0.975103
0.975355
0.975762
0.976312
0.976963
0.977728
0.97858
0.979644
0.980712
0.981868
0.982941
0.983788
0.984295
0.984505
0.984407
0.98388
0.98308
0.981941
0.980549
0.979185
0.977951
0.976724
0.975697
0.974949
0.974178
0.973711
0.973214
0.972574
0.971968
0.971145
0.970247
0.969292
0.967915
0.966689
0.965256
0.964158
0.963218
0.962736
0.962759
0.963037
0.963638
0.964598
0.966612
0.967969
0.96831
0.968036
0.967025
0.964713
0.961364
0.956989
0.947546
0.916498
0.90092
0.905593
0.920702
0.928731
0.737045
0.766904
0.770138
0.764659
0.752794
0.744769
0.742422
0.745286
0.752585
0.762761
0.774199
0.783662
0.790305
0.794942
0.795108
0.793981
0.790953
0.784527
0.775754
0.765513
0.75363
0.743145
0.730547
0.717815
0.710539
0.708828
0.709343
0.712481
0.720371
0.739289
0.756584
0.767502
0.773576
0.775487
0.775435
0.773467
0.764436
0.751411
0.745466
0.744766
0.746348
0.752785
0.778605
0.805484
0.81723
0.838117
0.876673
0.904536
0.91459
0.922347
0.927132
0.932036
0.936344
0.942674
0.947208
0.950551
0.954083
0.957207
0.959298
0.96249
0.964889
0.966796
0.96874
0.970431
0.971734
0.972758
0.973633
0.974183
0.974664
0.975196
0.9757
0.976219
0.976683
0.977031
0.977209
0.97733
0.977524
0.977721
0.977776
0.977784
0.977773
0.977739
0.977681
0.977581
0.97743
0.977241
0.97703
0.976809
0.976584
0.976471
0.976441
0.976448
0.976577
0.976909
0.977454
0.978122
0.978841
0.979515
0.980385
0.981334
0.982162
0.98257
0.982698
0.982638
0.982958
0.983951
0.986391
0.988633
0.988552
0.985829
0.974182
0.962211
0.957657
0.956639
0.955778
0.952835
0.95145
0.955389
0.963366
0.970139
0.973319
0.974476
0.974951
0.975269
0.97571
0.97647
0.977623
0.979321
0.981831
0.984705
0.986746
0.989054
0.990645
0.991654
0.992478
0.992851
0.993293
0.993657
0.993927
0.994156
0.994217
0.993933
0.993065
0.991279
0.988493
0.984944
0.980997
0.977639
0.975265
0.973718
0.972567
0.971585
0.970916
0.969734
0.96882
0.967733
0.96638
0.965561
0.964581
0.964105
0.964209
0.964735
0.966028
0.968833
0.972506
0.976683
0.98153
0.985154
0.986503
0.986256
0.98496
0.981921
0.973843
0.964843
0.958474
0.942426
0.912173
0.90797
0.912467
0.916265
0.777272
0.778359
0.765091
0.741199
0.739055
0.744499
0.761885
0.800051
0.840657
0.870097
0.888126
0.89646
0.900521
0.902887
0.904128
0.903993
0.902936
0.900023
0.893279
0.885894
0.874683
0.858138
0.832381
0.791863
0.752158
0.724899
0.709269
0.703001
0.702759
0.705106
0.713428
0.733869
0.754487
0.768338
0.772806
0.772109
0.764671
0.752394
0.748354
0.749371
0.761386
0.804155
0.831813
0.833367
0.838587
0.864643
0.900383
0.916105
0.930141
0.938621
0.9477
0.953962
0.95927
0.964772
0.967568
0.970082
0.972351
0.973905
0.974796
0.975819
0.976301
0.976684
0.976987
0.977217
0.977376
0.97746
0.977521
0.977578
0.977708
0.977886
0.978093
0.978339
0.978555
0.978823
0.978935
0.97897
0.978978
0.978974
0.978942
0.978858
0.978703
0.978479
0.978204
0.977905
0.977595
0.977273
0.976903
0.976447
0.975956
0.975513
0.975169
0.97498
0.974894
0.974875
0.975033
0.975321
0.97593
0.976662
0.977389
0.978167
0.979118
0.980016
0.980527
0.98132
0.982393
0.984025
0.987072
0.98892
0.988658
0.984874
0.968342
0.956261
0.953175
0.953014
0.952784
0.951581
0.952271
0.959515
0.968212
0.973109
0.9746
0.974885
0.975096
0.975585
0.976778
0.979374
0.982961
0.986286
0.988828
0.990105
0.99143
0.992146
0.99259
0.992798
0.992841
0.992758
0.992922
0.99349
0.99392
0.994838
0.995635
0.996442
0.997047
0.997418
0.997601
0.997147
0.995669
0.99261
0.987759
0.982875
0.978489
0.975395
0.973509
0.971852
0.970806
0.969872
0.96919
0.969115
0.969302
0.969998
0.971727
0.975495
0.980685
0.987513
0.991864
0.994229
0.995589
0.995585
0.99535
0.99514
0.995026
0.99469
0.992765
0.985624
0.970301
0.959325
0.934961
0.915095
0.913036
0.913251
0.800128
0.776077
0.735264
0.734738
0.750647
0.800059
0.865095
0.899887
0.917112
0.924969
0.927784
0.928526
0.928999
0.930077
0.931189
0.930972
0.929471
0.926442
0.922294
0.917679
0.914737
0.90885
0.901923
0.892648
0.872219
0.816685
0.754159
0.719787
0.706647
0.70537
0.708238
0.723484
0.747113
0.761739
0.767148
0.766768
0.758941
0.753012
0.755181
0.779436
0.826991
0.843455
0.842912
0.84352
0.860497
0.899808
0.922567
0.939943
0.952427
0.960552
0.965788
0.969313
0.971919
0.973718
0.974568
0.975113
0.975411
0.975505
0.975507
0.975535
0.975285
0.974979
0.974673
0.974408
0.974294
0.97427
0.974488
0.97477
0.975001
0.975424
0.975982
0.976654
0.977072
0.97782
0.978475
0.978727
0.978817
0.978833
0.978811
0.978689
0.978406
0.977933
0.977302
0.976619
0.976047
0.975647
0.975318
0.974989
0.974687
0.974394
0.974045
0.973686
0.97343
0.973316
0.973276
0.97327
0.973474
0.974041
0.974854
0.975762
0.976847
0.977996
0.978958
0.979762
0.98049
0.981406
0.983346
0.986713
0.986919
0.983205
0.965783
0.952629
0.949705
0.949758
0.950309
0.951009
0.954279
0.963992
0.971433
0.974504
0.974973
0.974866
0.975055
0.976058
0.979045
0.982941
0.985865
0.987852
0.988826
0.989277
0.989337
0.988046
0.986241
0.984182
0.982291
0.981157
0.980707
0.98175
0.98311
0.985722
0.988629
0.991785
0.994498
0.99665
0.997955
0.998644
0.998942
0.998944
0.998427
0.99708
0.994819
0.991986
0.989192
0.98712
0.985764
0.985122
0.984952
0.985018
0.985504
0.986986
0.990452
0.993778
0.99606
0.997552
0.997944
0.997751
0.997239
0.996011
0.993989
0.993621
0.993934
0.995179
0.995578
0.994628
0.990052
0.977679
0.954844
0.931358
0.919181
0.917241
0.791075
0.741199
0.729655
0.753673
0.821392
0.884404
0.911548
0.926155
0.932846
0.934814
0.934865
0.935208
0.936155
0.9385
0.937999
0.935852
0.931344
0.926254
0.920605
0.915873
0.912501
0.908468
0.90613
0.903919
0.899211
0.886784
0.851706
0.769916
0.724479
0.712321
0.713926
0.729774
0.751348
0.760235
0.760625
0.757945
0.756823
0.76387
0.803743
0.84095
0.850378
0.849839
0.851435
0.863798
0.902345
0.928186
0.947972
0.960754
0.96751
0.971584
0.973615
0.97462
0.975024
0.975125
0.974913
0.974698
0.974142
0.97317
0.971743
0.970499
0.969477
0.968827
0.968485
0.968351
0.968336
0.968614
0.968892
0.969487
0.970051
0.970727
0.971675
0.972738
0.973779
0.974952
0.976213
0.977223
0.977803
0.978001
0.978051
0.978034
0.977815
0.977308
0.976523
0.975586
0.975013
0.974778
0.974687
0.974679
0.974681
0.974622
0.974483
0.974269
0.97401
0.973677
0.973444
0.973245
0.973161
0.973351
0.973897
0.97481
0.975994
0.977332
0.978646
0.979727
0.980555
0.98123
0.981898
0.983496
0.984695
0.982319
0.965077
0.951103
0.948451
0.948644
0.949781
0.951322
0.958277
0.967928
0.97342
0.975144
0.974969
0.974622
0.974701
0.976133
0.979898
0.983722
0.985716
0.986588
0.986041
0.983513
0.979211
0.972521
0.966436
0.961063
0.957167
0.954825
0.953769
0.954515
0.957345
0.961934
0.968127
0.975409
0.982583
0.989124
0.994045
0.99711
0.998678
0.999304
0.999527
0.999569
0.999416
0.999016
0.998543
0.998098
0.99774
0.997488
0.997355
0.997333
0.997395
0.997754
0.998394
0.999007
0.999135
0.998995
0.998452
0.99665
0.993414
0.98711
0.980932
0.979622
0.980524
0.983506
0.99074
0.993819
0.993639
0.990538
0.979697
0.952542
0.934593
0.929143
0.783485
0.73383
0.740545
0.799564
0.87979
0.912484
0.927334
0.935472
0.93804
0.937996
0.937873
0.939352
0.943064
0.942479
0.939633
0.9325
0.920304
0.906885
0.894411
0.88575
0.881037
0.882482
0.887391
0.893998
0.894736
0.892401
0.880449
0.832042
0.758878
0.732264
0.73217
0.747031
0.757206
0.758306
0.758114
0.760302
0.779991
0.825305
0.84926
0.854938
0.855792
0.858969
0.871365
0.906814
0.933757
0.953271
0.965375
0.971295
0.974011
0.975132
0.975437
0.975235
0.974891
0.974117
0.972687
0.970239
0.968169
0.966543
0.96556
0.965127
0.964963
0.964946
0.965244
0.965418
0.96584
0.966157
0.966571
0.967011
0.967305
0.967645
0.968004
0.968426
0.968976
0.969706
0.970652
0.971853
0.973284
0.974354
0.97489
0.975127
0.975162
0.974817
0.974295
0.974037
0.973989
0.974054
0.974317
0.974801
0.97544
0.976067
0.976575
0.976884
0.976971
0.976711
0.976016
0.975053
0.974056
0.97351
0.973529
0.974146
0.975163
0.97642
0.977755
0.979093
0.980501
0.981831
0.982564
0.983122
0.984255
0.982638
0.96581
0.950622
0.948239
0.948659
0.950001
0.953384
0.963322
0.970973
0.974609
0.975355
0.974793
0.973824
0.973863
0.976021
0.980033
0.982859
0.983552
0.981365
0.975336
0.964304
0.953575
0.944316
0.936715
0.930001
0.92448
0.920432
0.918353
0.917644
0.920164
0.925531
0.934193
0.945426
0.95827
0.971319
0.982689
0.990926
0.995849
0.998309
0.999337
0.999693
0.999812
0.999849
0.999835
0.999781
0.999725
0.999675
0.999641
0.999631
0.999635
0.99969
0.999717
0.999658
0.999419
0.998497
0.995552
0.987736
0.975389
0.963605
0.955235
0.953501
0.954266
0.957163
0.965641
0.982961
0.991011
0.991628
0.989358
0.978679
0.954961
0.942725
0.775876
0.730898
0.754102
0.842104
0.903157
0.924284
0.934256
0.939574
0.940513
0.940839
0.943224
0.947786
0.946947
0.943033
0.931968
0.911128
0.883326
0.861362
0.848912
0.842743
0.840821
0.842413
0.848253
0.865139
0.884711
0.888103
0.881758
0.851193
0.78134
0.752737
0.753917
0.757549
0.758685
0.758973
0.767522
0.802879
0.840208
0.854246
0.858474
0.861099
0.866511
0.881465
0.913807
0.938614
0.957104
0.967886
0.972987
0.975029
0.975649
0.975715
0.975235
0.974188
0.972342
0.968902
0.966181
0.964569
0.963843
0.963557
0.963534
0.964068
0.964531
0.965107
0.965607
0.966122
0.966637
0.967029
0.967363
0.967567
0.967677
0.967785
0.967839
0.967888
0.967933
0.968081
0.968332
0.968594
0.969013
0.969637
0.97043
0.971429
0.972362
0.973106
0.97369
0.974061
0.974427
0.974943
0.975819
0.977287
0.979144
0.980682
0.981478
0.98162
0.981676
0.98173
0.981534
0.980831
0.979328
0.977246
0.976095
0.976001
0.976469
0.977183
0.977899
0.978338
0.978857
0.980227
0.982416
0.983515
0.984344
0.984133
0.970644
0.951593
0.948581
0.949154
0.951301
0.959128
0.967452
0.97297
0.975267
0.975424
0.974061
0.972712
0.973088
0.975693
0.979059
0.979964
0.976528
0.964566
0.949472
0.937642
0.927488
0.918657
0.910717
0.903208
0.896076
0.88936
0.884148
0.881598
0.880686
0.883836
0.89178
0.904589
0.921473
0.941039
0.960878
0.97752
0.988761
0.995051
0.998052
0.999298
0.999748
0.999893
0.999943
0.999962
0.999965
0.999961
0.999956
0.999953
0.999946
0.999922
0.999853
0.999583
0.998448
0.994501
0.983848
0.963321
0.949791
0.944618
0.942937
0.94305
0.943808
0.945017
0.947379
0.95441
0.97578
0.988064
0.989576
0.9876
0.979387
0.959969
0.763686
0.727508
0.764035
0.861241
0.913424
0.929699
0.937916
0.942539
0.944215
0.946219
0.949904
0.950481
0.946749
0.933352
0.906572
0.871334
0.848901
0.838489
0.833822
0.831421
0.83033
0.830854
0.834015
0.844337
0.866255
0.880205
0.877412
0.845999
0.798039
0.772198
0.761463
0.760603
0.762686
0.778172
0.821995
0.847736
0.857604
0.861349
0.865974
0.874392
0.893789
0.92188
0.942987
0.959433
0.969256
0.973697
0.97537
0.975772
0.975678
0.97506
0.973195
0.969331
0.965876
0.963995
0.963078
0.962766
0.962729
0.963118
0.963656
0.964592
0.965373
0.966196
0.966746
0.967038
0.967203
0.967287
0.967639
0.968124
0.968376
0.968731
0.96889
0.968945
0.968817
0.968615
0.968455
0.968405
0.968474
0.968719
0.969029
0.969774
0.970979
0.972264
0.973505
0.974755
0.976315
0.978092
0.979999
0.981926
0.983179
0.983516
0.983134
0.982529
0.982273
0.982285
0.982356
0.982257
0.981736
0.980672
0.980466
0.981405
0.983053
0.984386
0.984602
0.982996
0.980022
0.978818
0.979442
0.982358
0.984406
0.984886
0.97712
0.954199
0.950317
0.951388
0.955947
0.963098
0.96937
0.973757
0.975498
0.975441
0.973339
0.971873
0.972232
0.974592
0.976301
0.972069
0.958141
0.942942
0.930524
0.921275
0.9133
0.905718
0.897488
0.887249
0.875805
0.864756
0.855952
0.850905
0.84899
0.850096
0.85386
0.862088
0.87697
0.899405
0.926716
0.953787
0.974924
0.988172
0.99505
0.998128
0.999349
0.999785
0.999927
0.999972
0.999986
0.999991
0.999991
0.999988
0.999975
0.999924
0.999684
0.998628
0.994486
0.981826
0.955557
0.943807
0.939764
0.939054
0.939817
0.940822
0.941992
0.943288
0.944109
0.945962
0.952046
0.973068
0.986176
0.987878
0.986494
0.97957
0.755512
0.726639
0.777486
0.880958
0.920184
0.934028
0.941646
0.94636
0.948188
0.950232
0.951944
0.950687
0.941189
0.918807
0.885175
0.853405
0.839137
0.833972
0.831518
0.830038
0.829579
0.830815
0.838158
0.851223
0.869459
0.875545
0.866831
0.834236
0.793913
0.773353
0.76667
0.769896
0.79393
0.834311
0.852473
0.859492
0.863932
0.8705
0.882203
0.906531
0.931149
0.948124
0.960825
0.969928
0.973919
0.975368
0.975684
0.975577
0.974553
0.971696
0.96723
0.964145
0.962716
0.962151
0.961994
0.961994
0.962131
0.962634
0.963102
0.963306
0.963225
0.962377
0.961018
0.959739
0.959061
0.958817
0.959465
0.960697
0.962403
0.964264
0.965996
0.967388
0.968104
0.968446
0.96856
0.96847
0.968456
0.968476
0.968572
0.968922
0.969498
0.97058
0.972069
0.97395
0.976139
0.97846
0.98076
0.982624
0.983375
0.983317
0.981746
0.978609
0.976645
0.975892
0.975878
0.976476
0.977414
0.978359
0.979646
0.981576
0.984265
0.987098
0.989476
0.990611
0.989222
0.982814
0.979017
0.979344
0.98299
0.984995
0.982759
0.959976
0.951982
0.953615
0.958611
0.963886
0.969493
0.973762
0.9755
0.975403
0.973065
0.971008
0.970864
0.972063
0.969675
0.957215
0.941521
0.92971
0.920146
0.913315
0.906847
0.898181
0.884957
0.867395
0.850336
0.841551
0.838314
0.837556
0.837919
0.839319
0.841222
0.844643
0.850725
0.862063
0.883887
0.919232
0.951853
0.975493
0.989188
0.995765
0.998489
0.999497
0.99984
0.999951
0.999984
0.999992
0.999993
0.999988
0.999953
0.999776
0.998972
0.995562
0.983241
0.954418
0.94109
0.936814
0.936377
0.937311
0.939372
0.940736
0.941511
0.942882
0.943954
0.944687
0.946494
0.952891
0.974009
0.985222
0.986853
0.985444
0.741783
0.724518
0.791535
0.892108
0.925747
0.93707
0.944022
0.948277
0.94987
0.952033
0.952959
0.950371
0.938594
0.912532
0.875858
0.848071
0.83752
0.834208
0.833752
0.834929
0.838803
0.845362
0.855369
0.864286
0.867252
0.865827
0.845842
0.807962
0.78669
0.779328
0.781608
0.810668
0.841266
0.854257
0.859822
0.865934
0.874844
0.891527
0.917884
0.939874
0.953447
0.962993
0.970047
0.973875
0.975218
0.9755
0.975389
0.974168
0.970522
0.965536
0.96309
0.961855
0.961299
0.96107
0.960908
0.960669
0.960433
0.959903
0.958144
0.954284
0.950208
0.946283
0.944045
0.943008
0.942738
0.943639
0.944908
0.94682
0.94913
0.951625
0.954325
0.957383
0.960245
0.962637
0.964496
0.965766
0.966703
0.967326
0.967804
0.968291
0.96881
0.96948
0.970314
0.971273
0.97257
0.97448
0.976996
0.978877
0.979388
0.978675
0.975235
0.969917
0.966236
0.964349
0.963775
0.964059
0.965054
0.967082
0.969729
0.97281
0.976578
0.981702
0.98735
0.990996
0.992266
0.991307
0.983925
0.979262
0.980059
0.984214
0.984551
0.969655
0.954079
0.954125
0.958359
0.963541
0.969118
0.973536
0.975427
0.975338
0.973085
0.969175
0.967645
0.966165
0.959402
0.944913
0.931001
0.922248
0.915313
0.909845
0.900988
0.884843
0.863374
0.845514
0.838049
0.835784
0.835559
0.836501
0.838057
0.839448
0.840523
0.842107
0.845254
0.850604
0.859917
0.880257
0.920436
0.955645
0.979042
0.991429
0.996877
0.998953
0.999668
0.999899
0.99997
0.999988
0.999988
0.99997
0.999861
0.99934
0.997016
0.987565
0.958633
0.940665
0.934933
0.934129
0.935087
0.93737
0.939499
0.941134
0.941773
0.942311
0.943725
0.944714
0.945541
0.947724
0.955591
0.976592
0.985065
0.986193
0.732696
0.722231
0.797234
0.897223
0.928586
0.939114
0.945213
0.949854
0.951736
0.953899
0.954631
0.951709
0.938464
0.911079
0.874333
0.850442
0.842158
0.839485
0.838987
0.840692
0.847565
0.854818
0.857322
0.858306
0.854408
0.835988
0.811673
0.79973
0.794466
0.798726
0.827976
0.847663
0.857212
0.861521
0.867489
0.878433
0.898483
0.924544
0.94712
0.95857
0.965547
0.970512
0.973673
0.974998
0.975302
0.975248
0.974033
0.969886
0.964885
0.962532
0.961405
0.960657
0.960162
0.959522
0.958665
0.957167
0.954296
0.949895
0.944887
0.941005
0.938594
0.937356
0.936851
0.936754
0.937506
0.938401
0.93988
0.941959
0.944637
0.947556
0.950419
0.952812
0.954756
0.956445
0.958024
0.959275
0.960238
0.96149
0.963033
0.964982
0.967096
0.96862
0.969912
0.970939
0.971771
0.972419
0.973309
0.974203
0.974296
0.973864
0.972381
0.968604
0.96492
0.962558
0.961602
0.961551
0.961988
0.96342
0.965715
0.9675
0.968996
0.970678
0.974844
0.983735
0.990761
0.992419
0.99087
0.982619
0.979609
0.981813
0.984748
0.979916
0.959064
0.954867
0.956929
0.962242
0.968021
0.972893
0.97519
0.975196
0.972951
0.966244
0.962538
0.958336
0.950042
0.936595
0.925092
0.918905
0.913204
0.905103
0.89038
0.870436
0.853719
0.843532
0.839702
0.840211
0.844342
0.849894
0.854255
0.855771
0.853812
0.849259
0.847124
0.849261
0.855
0.864168
0.886287
0.929675
0.963968
0.98439
0.994104
0.997988
0.999361
0.999809
0.999945
0.999976
0.999974
0.999924
0.999641
0.99829
0.992276
0.968277
0.943409
0.934275
0.932486
0.933114
0.935472
0.938649
0.940539
0.94175
0.942405
0.942579
0.942888
0.944102
0.945249
0.946419
0.949567
0.960804
0.979199
0.985051
0.728833
0.720456
0.799724
0.89958
0.930909
0.940813
0.946077
0.951065
0.953086
0.95474
0.956026
0.954725
0.94725
0.929072
0.899124
0.864893
0.849518
0.843159
0.840773
0.840141
0.840512
0.841191
0.841046
0.836526
0.828569
0.819726
0.814359
0.8128
0.824974
0.841991
0.851842
0.857562
0.862922
0.871611
0.88562
0.905586
0.929642
0.951124
0.96242
0.968185
0.971482
0.97361
0.974718
0.975093
0.9751
0.974035
0.970235
0.965978
0.963044
0.961178
0.96014
0.95925
0.958014
0.955868
0.952866
0.948712
0.944415
0.940411
0.937265
0.935557
0.934673
0.934303
0.934213
0.934556
0.935117
0.936014
0.937333
0.939369
0.942337
0.946032
0.950001
0.953489
0.955555
0.956512
0.957603
0.95832
0.958523
0.958564
0.958537
0.958491
0.959698
0.962815
0.966974
0.970478
0.972639
0.973968
0.974648
0.974935
0.974948
0.97473
0.97417
0.972881
0.970649
0.967959
0.965525
0.964501
0.964466
0.965131
0.967897
0.969771
0.970234
0.969906
0.970067
0.972442
0.98203
0.990403
0.991545
0.988275
0.980746
0.980262
0.983734
0.983885
0.970025
0.957017
0.956226
0.958588
0.965456
0.9715
0.9746
0.974866
0.97282
0.96404
0.957104
0.952062
0.943696
0.931776
0.922019
0.916958
0.910789
0.900444
0.885125
0.869157
0.856294
0.850994
0.853396
0.86165
0.876338
0.888866
0.896292
0.898196
0.894447
0.880801
0.86412
0.856262
0.855949
0.861398
0.872099
0.900953
0.944609
0.97431
0.989836
0.996434
0.998857
0.999663
0.999906
0.999957
0.999948
0.99983
0.999165
0.995975
0.981217
0.950892
0.935696
0.931629
0.931631
0.93306
0.937303
0.940487
0.942155
0.942855
0.943103
0.943043
0.942996
0.943207
0.944488
0.945712
0.947471
0.952237
0.967492
0.981375
0.726883
0.719085
0.796902
0.898992
0.931707
0.942069
0.946789
0.951516
0.953738
0.95516
0.957498
0.958167
0.95591
0.9471
0.927199
0.899358
0.871639
0.85768
0.84971
0.843757
0.840922
0.838968
0.83713
0.834145
0.832752
0.832461
0.838599
0.847287
0.851228
0.853947
0.855756
0.858904
0.865223
0.877542
0.897396
0.922708
0.948478
0.963757
0.96996
0.972778
0.974146
0.97483
0.97509
0.975
0.974436
0.972176
0.96732
0.962363
0.96029
0.959489
0.957908
0.955815
0.953157
0.94972
0.945833
0.941707
0.938405
0.935902
0.93413
0.933313
0.93292
0.932768
0.932736
0.932978
0.933437
0.934192
0.935131
0.936521
0.93887
0.943094
0.949046
0.95505
0.960093
0.963168
0.963806
0.963244
0.962084
0.960991
0.959809
0.958294
0.957267
0.957169
0.95818
0.961737
0.967401
0.972731
0.975575
0.977258
0.97823
0.978938
0.979547
0.980382
0.981195
0.981389
0.980114
0.977477
0.976454
0.976823
0.980677
0.983661
0.983307
0.979545
0.972625
0.971327
0.973957
0.984204
0.989757
0.989423
0.983521
0.979908
0.981576
0.984525
0.98101
0.963739
0.956989
0.956754
0.959723
0.968083
0.973082
0.974048
0.972423
0.963263
0.952933
0.946355
0.939122
0.928946
0.921575
0.917016
0.911069
0.900969
0.886425
0.871834
0.865396
0.868318
0.878979
0.898546
0.910515
0.915652
0.917133
0.916374
0.913798
0.909307
0.897987
0.878049
0.867025
0.864976
0.869887
0.883915
0.92314
0.961559
0.983933
0.994169
0.998107
0.999448
0.999848
0.999929
0.999905
0.99965
0.998221
0.991359
0.965502
0.941135
0.932176
0.93082
0.931443
0.935059
0.93992
0.94251
0.943577
0.94378
0.943647
0.943339
0.943158
0.943163
0.943521
0.945001
0.946385
0.949063
0.956752
0.974543
0.725671
0.716169
0.782669
0.890412
0.931057
0.942867
0.948045
0.951716
0.954653
0.955856
0.957519
0.959421
0.95974
0.957467
0.950928
0.939601
0.924653
0.90536
0.888063
0.878825
0.871356
0.864439
0.861339
0.859808
0.859321
0.85927
0.858344
0.855494
0.853932
0.853787
0.854707
0.85782
0.864707
0.877453
0.897634
0.923526
0.949966
0.965953
0.971923
0.974273
0.975112
0.975329
0.975241
0.974423
0.972057
0.967673
0.96403
0.961036
0.958491
0.956019
0.954051
0.951979
0.948447
0.944653
0.941364
0.937915
0.935289
0.933831
0.932768
0.932287
0.932028
0.931891
0.931828
0.931857
0.932036
0.932422
0.933218
0.934363
0.935971
0.938183
0.943234
0.952164
0.960006
0.965758
0.969983
0.972914
0.974054
0.973104
0.97091
0.967801
0.963783
0.960185
0.95779
0.956957
0.957579
0.960371
0.965823
0.971031
0.974742
0.976933
0.978585
0.980456
0.982612
0.984669
0.986178
0.987187
0.988185
0.98986
0.99311
0.994857
0.994864
0.993241
0.984312
0.974911
0.973792
0.978015
0.985815
0.987586
0.984944
0.97977
0.979705
0.983383
0.983975
0.976653
0.960912
0.957305
0.956162
0.959618
0.968413
0.971711
0.970947
0.963519
0.950709
0.943096
0.935915
0.927974
0.921846
0.917625
0.912323
0.903468
0.8904
0.879829
0.880603
0.88645
0.902575
0.914577
0.919449
0.920553
0.920155
0.918446
0.915465
0.913544
0.910877
0.903383
0.887094
0.877175
0.875398
0.881069
0.903251
0.94721
0.976564
0.991151
0.997073
0.999145
0.999768
0.999887
0.999837
0.999337
0.996578
0.983418
0.953026
0.93565
0.930872
0.930705
0.932591
0.938512
0.942596
0.94397
0.94421
0.944057
0.943648
0.943216
0.943071
0.943075
0.943205
0.944004
0.94561
0.947475
0.951835
0.965093
0.724557
0.714284
0.772426
0.876214
0.927717
0.942912
0.948505
0.951875
0.955007
0.956322
0.95714
0.95941
0.961244
0.961606
0.960411
0.95648
0.951272
0.945457
0.938963
0.930353
0.921201
0.914326
0.907933
0.900918
0.892871
0.882171
0.869563
0.85733
0.852163
0.850767
0.850715
0.852835
0.859864
0.873447
0.893099
0.918118
0.944484
0.963531
0.971181
0.974156
0.975182
0.975437
0.975365
0.974352
0.971076
0.965665
0.960376
0.958005
0.956926
0.954359
0.951155
0.948804
0.945603
0.941546
0.93838
0.935925
0.933838
0.932841
0.932211
0.931898
0.93173
0.931643
0.931607
0.931613
0.931666
0.93179
0.9321
0.933062
0.934831
0.936629
0.938825
0.944006
0.954676
0.963399
0.969649
0.974317
0.978109
0.981204
0.983219
0.983831
0.982581
0.978488
0.972176
0.964771
0.959285
0.956784
0.956262
0.956791
0.958514
0.960762
0.963454
0.96724
0.972767
0.979506
0.984671
0.987864
0.990254
0.993167
0.995724
0.996867
0.996912
0.9959
0.989861
0.979345
0.975698
0.976644
0.982601
0.985013
0.984081
0.979455
0.978314
0.980679
0.98431
0.983098
0.971658
0.960305
0.956808
0.953461
0.956784
0.964656
0.966342
0.962219
0.950385
0.941154
0.93459
0.927993
0.92271
0.919191
0.91505
0.909404
0.898184
0.894414
0.89589
0.901262
0.912404
0.918893
0.920827
0.920849
0.919727
0.915851
0.913671
0.91395
0.914007
0.913031
0.90582
0.892276
0.88632
0.886319
0.89626
0.932648
0.96845
0.987582
0.995791
0.99876
0.999663
0.999831
0.999741
0.998878
0.994178
0.973566
0.945241
0.932987
0.930593
0.931202
0.935561
0.941559
0.944074
0.944603
0.944463
0.944012
0.942874
0.942303
0.942353
0.942583
0.942845
0.94338
0.94484
0.9464
0.949351
0.957509
0.723613
0.713042
0.765042
0.855936
0.918141
0.940554
0.948457
0.951945
0.955125
0.957026
0.957613
0.958185
0.960565
0.962975
0.963509
0.963394
0.961798
0.959895
0.958632
0.956529
0.953232
0.949076
0.944051
0.938385
0.93124
0.920511
0.903144
0.877696
0.857254
0.851333
0.849963
0.850002
0.852148
0.860128
0.876715
0.899534
0.925385
0.950047
0.965154
0.971936
0.974544
0.975287
0.975343
0.974485
0.971423
0.965933
0.960051
0.955852
0.95386
0.952309
0.949209
0.946167
0.943343
0.939878
0.937063
0.935155
0.933635
0.932736
0.932195
0.931894
0.931728
0.931639
0.931609
0.931611
0.931634
0.931704
0.931886
0.932328
0.933839
0.936255
0.938177
0.940851
0.947764
0.957631
0.965146
0.97122
0.976621
0.98125
0.98489
0.98765
0.989487
0.989919
0.988824
0.985218
0.977981
0.96871
0.960762
0.956507
0.954565
0.953906
0.95397
0.954801
0.957241
0.963271
0.973744
0.983058
0.988988
0.993111
0.995844
0.997023
0.997099
0.99617
0.990339
0.980085
0.976226
0.976576
0.981492
0.984202
0.983075
0.978383
0.976881
0.977942
0.983083
0.984426
0.981573
0.96814
0.959468