/*--------------------------------*- C++ -*----------------------------------*\
  =========                 |
  \\      /  F ield         | OpenFOAM: The Open Source CFD Toolbox
   \\    /   O peration     | Website:  https://openfoam.org
    \\  /    A nd           | Version:  9
     \\/     M anipulation  |
\*---------------------------------------------------------------------------*/
FoamFile
{
    format      ascii;
    class       volVectorField;
    location    "0.098";
    object      U_0;
}
// * * * * * * * * * * * * * * * * * * * * * * * * * * * * * * * * * * * * * //

dimensions      [0 1 -1 0 0 0 0];

internalField   nonuniform List<vector> 
12225
(
(9.7882 0.0831524 0)
(9.47582 0.116636 0)
(9.10172 0.0669313 0)
(8.71725 0.0269811 0)
(8.44337 0.00889376 0)
(8.28105 0.00606572 0)
(8.12996 0.0206196 0)
(7.91635 0.0476449 0)
(7.63028 0.0719613 0)
(7.2984 0.0822285 0)
(6.9667 0.0766179 0)
(6.6618 0.062665 0)
(6.41444 0.0485231 0)
(6.18553 0.041225 0)
(6.00928 0.0325294 0)
(5.82153 0.0392545 0)
(5.68139 0.0314119 0)
(5.4525 0.0491631 0)
(10.1342 0.0108815 0)
(10.3362 0.0444212 0)
(10.3586 0.110307 0)
(10.2567 0.119028 0)
(10.1421 0.097094 0)
(10.0599 0.0765902 0)
(10.0062 0.0721512 0)
(9.97665 0.0818321 0)
(9.96747 0.096844 0)
(9.96211 0.107466 0)
(9.94705 0.112134 0)
(9.90909 0.109123 0)
(9.85348 0.103727 0)
(9.77281 0.0983595 0)
(9.69207 0.0939884 0)
(9.59553 0.0862688 0)
(9.52105 0.0989235 0)
(9.42306 0.107776 0)
(10.2043 0.0443433 0)
(10.0939 0.0967026 0)
(10.0685 0.0904873 0)
(10.0733 0.0620801 0)
(10.0667 0.045803 0)
(10.0536 0.0375969 0)
(10.043 0.0406188 0)
(10.0486 0.0578028 0)
(10.0794 0.0802709 0)
(10.1259 0.0965477 0)
(10.1724 0.103875 0)
(10.2066 0.10477 0)
(10.2237 0.104495 0)
(10.2218 0.106526 0)
(10.2083 0.106664 0)
(10.1812 0.108013 0)
(10.1514 0.112712 0)
(10.1252 0.120495 0)
(9.96954 -0.020386 0)
(9.9905 0.0965945 0)
(9.92973 0.130507 0)
(9.85288 0.121017 0)
(9.82772 0.109894 0)
(9.84993 0.0945761 0)
(9.89134 0.0783858 0)
(9.9445 0.0694511 0)
(10.0054 0.0680034 0)
(10.0568 0.0699354 0)
(10.0828 0.0739052 0)
(10.0832 0.0796178 0)
(10.0687 0.0865904 0)
(10.0524 0.0947448 0)
(10.0441 0.101682 0)
(10.0427 0.106056 0)
(10.0471 0.114934 0)
(10.0552 0.124048 0)
(9.7686 0.0403176 0)
(9.77549 0.120903 0)
(9.82426 0.126152 0)
(9.82958 0.0790048 0)
(9.87953 0.0346002 0)
(9.96872 0.00728141 0)
(10.049 0.00188609 0)
(10.1059 0.0180359 0)
(10.1491 0.0479318 0)
(10.1814 0.079884 0)
(10.1977 0.105808 0)
(10.1965 0.121832 0)
(10.1834 0.127196 0)
(10.1633 0.125475 0)
(10.1452 0.119985 0)
(10.1291 0.114327 0)
(10.119 0.114588 0)
(10.1152 0.120021 0)
(10.1409 0.000424416 0)
(10.0257 0.0708837 0)
(9.9346 0.125632 0)
(9.86906 0.110173 0)
(9.86268 0.0766092 0)
(9.88138 0.0527193 0)
(9.88446 0.0394382 0)
(9.88059 0.0329734 0)
(9.90028 0.0322621 0)
(9.95234 0.0391924 0)
(10.0218 0.0543092 0)
(10.0862 0.0733919 0)
(10.1308 0.0907224 0)
(10.1503 0.103326 0)
(10.1518 0.110162 0)
(10.1449 0.112045 0)
(10.139 0.113091 0)
(10.1422 0.114909 0)
(10.1103 0.0503104 0)
(9.86508 0.183997 0)
(9.87457 0.173028 0)
(9.93473 0.0940358 0)
(9.99663 0.0211742 0)
(10.0581 -0.0109823 0)
(10.0973 -0.00693 0)
(10.1032 0.0103347 0)
(10.0923 0.0276563 0)
(10.0884 0.0443934 0)
(10.103 0.0639237 0)
(10.1324 0.0866542 0)
(10.164 0.108342 0)
(10.1852 0.123917 0)
(10.1898 0.130339 0)
(10.1827 0.129031 0)
(10.1674 0.123628 0)
(10.158 0.119176 0)
(10.077 0.0516402 0)
(9.96494 0.14194 0)
(10.0046 0.114993 0)
(10.0568 0.079992 0)
(10.0793 0.0443171 0)
(10.0979 0.025618 0)
(10.1131 0.0281586 0)
(10.1137 0.0343499 0)
(10.1015 0.0314511 0)
(10.0861 0.022335 0)
(10.0792 0.0188391 0)
(10.0861 0.0292117 0)
(10.1024 0.0518819 0)
(10.1164 0.0796871 0)
(10.1189 0.102746 0)
(10.1091 0.116842 0)
(10.0914 0.119701 0)
(10.0758 0.114868 0)
(10.0664 0.131554 0)
(10.0384 0.196657 0)
(10.0826 0.122964 0)
(10.1092 0.0551111 0)
(10.112 -0.00274565 0)
(10.146 -0.031886 0)
(10.2093 -0.0214188 0)
(10.2625 0.0136382 0)
(10.2752 0.048446 0)
(10.2424 0.070154 0)
(10.1805 0.0819004 0)
(10.1158 0.0925985 0)
(10.0682 0.107916 0)
(10.045 0.127527 0)
(10.0448 0.144983 0)
(10.0589 0.155061 0)
(10.0849 0.153593 0)
(10.1102 0.14312 0)
(9.99466 0.069883 0)
(10.0396 0.124346 0)
(10.0612 0.113403 0)
(10.0603 0.0886593 0)
(10.0171 0.0378683 0)
(9.97079 -0.00586647 0)
(9.94602 -0.0175384 0)
(9.9492 0.00109162 0)
(9.97427 0.0305395 0)
(10.0079 0.0541688 0)
(10.0396 0.0670991 0)
(10.0685 0.0729518 0)
(10.0951 0.076907 0)
(10.1236 0.080225 0)
(10.1519 0.0817083 0)
(10.1825 0.0792787 0)
(10.2072 0.0732286 0)
(10.2303 0.0654174 0)
(9.89554 0.0982921 0)
(9.9092 0.11447 0)
(10.0063 0.0953253 0)
(10.0758 0.0652632 0)
(10.0662 0.0242576 0)
(10.0468 -0.007529 0)
(10.0453 -0.0152229 0)
(10.0592 0.0012155 0)
(10.0896 0.0283232 0)
(10.1364 0.0512553 0)
(10.1918 0.0656874 0)
(10.2448 0.0760577 0)
(10.2822 0.0879318 0)
(10.2961 0.103473 0)
(10.2796 0.118451 0)
(10.2393 0.129549 0)
(10.1803 0.133159 0)
(10.1186 0.127764 0)
(9.9135 0.0636655 0)
(10.0275 0.0418448 0)
(10.009 0.0663651 0)
(9.93284 0.0873503 0)
(9.8874 0.0584676 0)
(9.90965 0.00922936 0)
(9.96017 -0.0197254 0)
(10.0082 -0.0231029 0)
(10.0493 -0.0176402 0)
(10.0845 -0.0132859 0)
(10.1138 -0.0084102 0)
(10.1401 0.00572239 0)
(10.165 0.0339012 0)
(10.1876 0.0727843 0)
(10.2066 0.11231 0)
(10.216 0.141185 0)
(10.2203 0.154878 0)
(10.2072 0.14778 0)
(10.104 -0.116284 0)
(10.1747 -0.00897788 0)
(10.2478 0.124148 0)
(10.2508 0.104482 0)
(10.2379 0.0168841 0)
(10.2379 -0.0514829 0)
(10.2443 -0.0700105 0)
(10.2575 -0.0475596 0)
(10.2748 -0.008837 0)
(10.2804 0.0258957 0)
(10.2605 0.0480814 0)
(10.2206 0.0609318 0)
(10.1803 0.0730709 0)
(10.1551 0.0884208 0)
(10.1552 0.10876 0)
(10.1742 0.12888 0)
(10.2046 0.147984 0)
(10.2327 0.161948 0)
(10.163 -0.0518727 0)
(10.0025 -0.0116711 0)
(10.0619 0.0711982 0)
(10.1349 0.111168 0)
(10.1356 0.0877957 0)
(10.0702 0.0341124 0)
(9.99495 -0.0144765 0)
(9.9656 -0.0389552 0)
(9.99652 -0.0366871 0)
(10.0626 -0.0170518 0)
(10.1278 0.0111953 0)
(10.1674 0.0406683 0)
(10.1734 0.0643252 0)
(10.1519 0.0795901 0)
(10.1169 0.0877114 0)
(10.0868 0.0918633 0)
(10.0644 0.0936503 0)
(10.0638 0.0981242 0)
(9.72391 -0.00212601 0)
(9.76989 0.0440698 0)
(9.78501 0.000646994 0)
(9.83907 0.0107323 0)
(9.89297 0.0267093 0)
(9.93255 0.0204387 0)
(9.9599 -0.0112715 0)
(9.98729 -0.0526065 0)
(10.022 -0.0785141 0)
(10.061 -0.0704314 0)
(10.0944 -0.0276275 0)
(10.1105 0.0368704 0)
(10.1044 0.103641 0)
(10.0817 0.157311 0)
(10.0499 0.189079 0)
(10.0173 0.199562 0)
(9.98941 0.192701 0)
(9.969 0.176053 0)
(9.94607 0.0261949 0)
(9.94624 -0.0508539 0)
(9.99012 0.0380692 0)
(10.0408 0.0823475 0)
(10.0736 0.0537958 0)
(10.0851 -0.00414962 0)
(10.073 -0.059867 0)
(10.0468 -0.0976413 0)
(10.0154 -0.106886 0)
(9.98089 -0.0856728 0)
(9.94827 -0.0395476 0)
(9.92663 0.0194482 0)
(9.92127 0.0776801 0)
(9.93237 0.120873 0)
(9.95973 0.143008 0)
(9.9976 0.145898 0)
(10.0409 0.136913 0)
(10.0783 0.126309 0)
(9.98167 0.123814 0)
(9.94351 0.0192552 0)
(9.94381 -0.112322 0)
(10.0024 -0.112186 0)
(10.0993 -0.0449009 0)
(10.1789 0.014736 0)
(10.2032 0.0330338 0)
(10.1811 0.0204398 0)
(10.1314 0.00801718 0)
(10.0703 0.0188426 0)
(10.0173 0.0526076 0)
(9.98568 0.0910421 0)
(9.97743 0.11468 0)
(9.98596 0.116144 0)
(10.0006 0.100974 0)
(10.0135 0.0812871 0)
(10.0186 0.068377 0)
(10.0172 0.0708066 0)
(10.0032 -0.0661392 0)
(9.98059 -0.00689285 0)
(10.0135 -0.0154669 0)
(10.0328 -0.074862 0)
(10.0109 -0.13148 0)
(10.0005 -0.133659 0)
(10.0118 -0.0791004 0)
(10.0288 -0.00667556 0)
(10.0437 0.0465496 0)
(10.0581 0.0694339 0)
(10.0724 0.0691344 0)
(10.084 0.0605207 0)
(10.0903 0.0579046 0)
(10.0889 0.0692524 0)
(10.0801 0.0929167 0)
(10.066 0.120932 0)
(10.0516 0.144583 0)
(10.0399 0.155783 0)
(9.93964 -0.0935472 0)
(9.94395 -0.185028 0)
(9.99868 -0.147364 0)
(9.98288 -0.0780596 0)
(9.91698 -0.00146434 0)
(9.88374 0.0344147 0)
(9.88619 0.0126698 0)
(9.90566 -0.03552 0)
(9.93562 -0.0649997 0)
(9.96877 -0.051359 0)
(9.99687 0.000485328 0)
(10.0191 0.0673876 0)
(10.0396 0.124828 0)
(10.0612 0.157033 0)
(10.0843 0.161115 0)
(10.1075 0.144538 0)
(10.1292 0.117768 0)
(10.1471 0.0945861 0)
(10.0785 -0.117987 0)
(10.068 -0.155281 0)
(9.98897 -0.0204195 0)
(9.91955 0.032039 0)
(9.89433 0.00303238 0)
(9.91261 -0.0510454 0)
(9.94995 -0.0893713 0)
(9.9731 -0.090303 0)
(9.97279 -0.0641753 0)
(9.959 -0.0371434 0)
(9.94613 -0.0250381 0)
(9.94378 -0.0255923 0)
(9.95374 -0.0286998 0)
(9.97072 -0.02449 0)
(9.98681 -0.00862027 0)
(9.99738 0.0169512 0)
(10.0003 0.0475036 0)
(9.99789 0.0752494 0)
(10.0338 0.0601899 0)
(10.0428 0.000681928 0)
(10.0187 -0.000392172 0)
(10.0177 0.0230668 0)
(10.0531 -0.00374404 0)
(10.0815 -0.0588866 0)
(10.0891 -0.09741 0)
(10.0873 -0.0943472 0)
(10.0805 -0.0589514 0)
(10.0688 -0.0169593 0)
(10.0548 0.0148415 0)
(10.0403 0.0352594 0)
(10.0265 0.0500591 0)
(10.0154 0.0645736 0)
(10.0105 0.0797147 0)
(10.0143 0.0937911 0)
(10.0276 0.103474 0)
(10.0491 0.105611 0)
(9.94141 0.0134062 0)
(9.93613 0.00965615 0)
(9.90097 -0.00375866 0)
(9.91373 -0.0102731 0)
(9.94878 -0.0477749 0)
(9.96059 -0.0826566 0)
(9.94304 -0.0872861 0)
(9.92142 -0.0654005 0)
(9.91268 -0.0318136 0)
(9.92083 -0.00131598 0)
(9.94622 0.0168523 0)
(9.98556 0.0217605 0)
(10.0297 0.0176744 0)
(10.0691 0.0108324 0)
(10.0968 0.0043719 0)
(10.1112 -0.000222444 0)
(10.1148 -0.00303342 0)
(10.1106 -0.00672937 0)
(10.0811 0.232104 0)
(10.094 0.0454632 0)
(10.1017 0.00922591 0)
(10.0979 -0.0171889 0)
(10.0778 -0.0494549 0)
(10.051 -0.0702081 0)
(10.037 -0.0729632 0)
(10.0448 -0.0633207 0)
(10.064 -0.0536879 0)
(10.0825 -0.0530853 0)
(10.1005 -0.0601482 0)
(10.1233 -0.0644401 0)
(10.1514 -0.0556403 0)
(10.1802 -0.0289539 0)
(10.2057 0.0110939 0)
(10.2247 0.0533924 0)
(10.237 0.0885278 0)
(10.2419 0.104433 0)
(10.1018 -0.0198977 0)
(10.1598 0.00876426 0)
(10.1816 0.00829323 0)
(10.124 0.0064091 0)
(10.0209 -0.0095614 0)
(9.93666 -0.0506187 0)
(9.91613 -0.0855189 0)
(9.95706 -0.0895616 0)
(10.0196 -0.069359 0)
(10.0634 -0.047228 0)
(10.0721 -0.038213 0)
(10.0519 -0.0425293 0)
(10.0187 -0.0511627 0)
(9.98867 -0.053549 0)
(9.97433 -0.0450512 0)
(9.98073 -0.0280383 0)
(10.0057 -0.00852181 0)
(10.0452 0.00609026 0)
(9.98524 0.109455 0)
(9.95383 0.0180282 0)
(10.0171 0.0398629 0)
(10.1152 0.0919341 0)
(10.1809 0.0853532 0)
(10.165 0.008203 0)
(10.0911 -0.0839683 0)
(10.0166 -0.133729 0)
(9.97607 -0.129158 0)
(9.97096 -0.0916135 0)
(9.98771 -0.0477887 0)
(10.0108 -0.0144455 0)
(10.0285 0.0034323 0)
(10.0363 0.00984304 0)
(10.0372 0.0101925 0)
(10.0377 0.00765559 0)
(10.0427 0.00292378 0)
(10.0549 -0.00633225 0)
(9.84926 0.180222 0)
(9.96726 -0.00509 0)
(10.0044 -0.0824111 0)
(10.0773 -0.0636279 0)
(10.1918 -0.0201604 0)
(10.2661 0.0029685 0)
(10.2608 -0.00539245 0)
(10.1966 -0.0285914 0)
(10.1124 -0.0498902 0)
(10.0436 -0.0624928 0)
(10.0094 -0.0674258 0)
(10.0091 -0.0665399 0)
(10.0304 -0.0606455 0)
(10.0599 -0.0504237 0)
(10.0905 -0.0385564 0)
(10.1191 -0.0281804 0)
(10.1465 -0.0223964 0)
(10.1707 -0.0239404 0)
(10.1914 0.0807664 0)
(10.0996 -0.0607261 0)
(9.98947 -0.0447409 0)
(9.99659 -0.0153295 0)
(10.0896 -0.0195498 0)
(10.1553 -0.0289749 0)
(10.1566 -0.0289645 0)
(10.1318 -0.0258819 0)
(10.1184 -0.0255678 0)
(10.1246 -0.0294316 0)
(10.1422 -0.0358313 0)
(10.1611 -0.0416582 0)
(10.1751 -0.0446764 0)
(10.1852 -0.0445314 0)
(10.1958 -0.0432473 0)
(10.2095 -0.0433338 0)
(10.2249 -0.0456976 0)
(10.2357 -0.0511589 0)
(10.0724 0.0985301 0)
(10.0463 0.0697943 0)
(10.0766 -0.0220573 0)
(10.129 -0.0905181 0)
(10.1892 -0.0890874 0)
(10.2192 -0.0419346 0)
(10.211 -0.00669453 0)
(10.19 -0.010722 0)
(10.1729 -0.0383701 0)
(10.1638 -0.064198 0)
(10.1666 -0.0758569 0)
(10.1825 -0.0748082 0)
(10.2046 -0.0683971 0)
(10.2207 -0.0616204 0)
(10.2214 -0.0553452 0)
(10.2051 -0.0491174 0)
(10.176 -0.0409882 0)
(10.1432 -0.0328475 0)
(9.79119 -0.039258 0)
(10.0023 -0.0584709 0)
(10.2084 -0.0740354 0)
(10.2249 -0.0669695 0)
(10.1299 -0.053474 0)
(10.0502 -0.0328672 0)
(10.0508 -0.0116355 0)
(10.1222 -0.00592725 0)
(10.2101 -0.0188232 0)
(10.2651 -0.0410373 0)
(10.2712 -0.0617828 0)
(10.2392 -0.0721572 0)
(10.1891 -0.0683176 0)
(10.1393 -0.0530162 0)
(10.1028 -0.033364 0)
(10.0851 -0.0167957 0)
(10.0858 -0.00903535 0)
(10.1003 -0.0134203 0)
(9.96608 -0.0182974 0)
(9.81355 -0.0554387 0)
(9.55969 -0.0800824 0)
(9.28069 -0.0671066 0)
(9.10338 -0.0329616 0)
(9.02022 -0.020072 0)
(8.95582 -0.0391693 0)
(8.86029 -0.0686292 0)
(8.72339 -0.0828553 0)
(8.56165 -0.0744717 0)
(8.40135 -0.0539045 0)
(8.26239 -0.0349903 0)
(8.14988 -0.0249053 0)
(8.06113 -0.0246126 0)
(7.99001 -0.0302819 0)
(7.9312 -0.037238 0)
(7.87689 -0.0422198 0)
(7.82206 -0.0431309 0)
(-0.0357177 0.140442 2.5978e-20)
(-0.149176 0.15742 -2.57861e-20)
(-0.250582 0.0900185 0)
(-0.270118 -0.0191676 0)
(-0.159686 -0.138167 0)
(0.107437 -0.261909 2.50753e-20)
(0.50082 -0.365557 0)
(0.958669 -0.431082 0)
(1.44906 -0.461529 0)
(1.94756 -0.461304 0)
(2.43527 -0.438927 -2.37553e-20)
(2.89684 -0.404149 0)
(3.32336 -0.363114 0)
(3.71025 -0.31926 0)
(4.05565 -0.274423 0)
(4.35841 -0.229338 -2.19589e-20)
(4.61788 -0.184205 0)
(4.83233 -0.13907 0)
(5.00068 -0.0939668 0)
(5.12045 -0.0487665 0)
(5.19038 -0.00304882 0)
(5.20868 0.0429958 0)
(5.17007 0.0907958 0)
(5.07592 0.139144 -1.97066e-20)
(4.92923 0.185396 1.95344e-20)
(4.73207 0.226002 -1.93858e-20)
(4.49228 0.259586 -1.92565e-20)
(4.21166 0.287246 0)
(3.90194 0.304846 0)
(3.56899 0.312 1.89401e-20)
(3.22114 0.327076 1.88444e-20)
(2.85447 0.352181 0)
(2.48177 0.333552 0)
(2.11638 0.294034 1.85364e-20)
(1.75727 0.253386 0)
(1.45622 0.127209 0)
(1.24787 -0.0311093 -1.81935e-20)
(1.12378 -0.0865845 0)
(1.02893 -0.0595292 -1.79937e-20)
(0.918784 -0.0393354 -3.579e-20)
(0.865015 -0.000627362 0)
(0.948466 0.0893478 0)
(0.937109 0.162102 0)
(0.578107 0.30871 0)
(0.282025 0.260972 0)
(0.0884021 -0.319861 -3.47935e-20)
(0.251418 -0.489051 -3.45926e-20)
(0.703138 -0.357257 -3.43739e-20)
(0.789859 -1.11191 0)
(0.73039 -0.731814 3.35298e-20)
(-0.0337197 0.886503 0)
(-1.39406 0.841944 -3.26901e-20)
(-2.2647 0.808165 -3.19428e-20)
(-3.31501 0.708826 0)
(-4.10676 0.657856 0)
(-4.94246 0.586337 0)
(-5.62116 0.52049 -2.8083e-20)
(-6.27425 0.459508 0)
(-6.82668 0.399421 0)
(-7.33064 0.350736 0)
(-7.7638 0.303378 0)
(-8.14299 0.260928 0)
(-8.46388 0.222235 0)
(-8.73201 0.184269 0)
(-8.94677 0.147685 0)
(-9.11185 0.115431 2.14007e-20)
(-9.23061 0.0826731 0)
(-9.30438 0.0551114 0)
(-9.33958 0.0304294 -2.05305e-20)
(-9.33782 0.009403 -2.03702e-20)
(-9.3086 -0.00823266 0)
(-9.25126 -0.0242139 2.02046e-20)
(-9.17067 -0.0381687 -2.01856e-20)
(-9.06845 -0.0509196 0)
(-8.94759 -0.0621562 2.02411e-20)
(-8.81065 -0.0716748 0)
(-8.66041 -0.0792843 0)
(-8.49959 -0.0848864 -2.04701e-20)
(-8.33069 -0.0885878 0)
(-8.15584 -0.0906453 2.06672e-20)
(-7.97668 -0.0913774 0)
(-7.79431 -0.0910889 -2.08737e-20)
(-7.60935 -0.0900413 -2.09772e-20)
(-7.42207 -0.0884754 -2.10803e-20)
(-7.23247 -0.0866879 -4.23661e-20)
(-7.04033 -0.085125 4.25717e-20)
(-6.84524 -0.0844636 0)
(-6.64651 -0.0855691 0)
(-6.44292 -0.0891982 0)
(-6.23234 -0.0955613 4.34033e-20)
(-6.01195 -0.103944 4.3615e-20)
(-5.77885 -0.112607 -4.38283e-20)
(-5.53118 -0.119211 0)
(-5.26933 -0.121819 4.42573e-20)
(-4.99628 -0.120157 4.4469e-20)
(-4.71538 -0.116748 4.46747e-20)
(-4.42643 -0.117427 0)
(-4.12318 -0.129669 0)
(-3.79369 -0.157226 0)
(-3.42121 -0.195094 4.53637e-20)
(-2.99196 -0.232305 0)
(-2.51538 -0.257177 0)
(-2.02734 -0.260029 -4.55682e-20)
(-1.55157 -0.243585 0)
(-1.06239 -0.230364 0)
(-0.573289 -0.209505 -4.51681e-20)
(-0.124493 -0.191976 0)
(0.356998 -0.222201 0)
(1.0067 -0.303429 4.41913e-20)
(1.8174 -0.410216 4.36869e-20)
(2.73616 -0.435845 0)
(3.5738 -0.155841 -4.20626e-20)
(3.48049 0.265559 0)
(2.58831 0.339783 4.07009e-20)
(2.06009 0.0558941 0)
(2.09709 -0.165094 3.96116e-20)
(2.24414 -0.161738 3.90434e-20)
(2.12685 -0.0226441 0)
(1.6728 0.144771 0)
(1.02021 0.262125 0)
(0.308874 0.301903 0)
(-0.401797 0.297508 0)
(-1.07941 0.278397 0)
(-1.72083 0.258352 0)
(-2.3315 0.241833 3.10546e-20)
(-2.91517 0.228299 -2.97014e-20)
(-3.47416 0.216199 0)
(-4.00832 0.204078 0)
(-4.51338 0.190168 0)
(-4.98094 0.172966 0)
(-5.39921 0.15168 -4.61565e-20)
(-5.75478 0.126057 0)
(-6.03389 0.0963937 4.22618e-20)
(-6.22386 0.0635332 -4.0937e-20)
(-6.31442 0.0286019 0)
(-6.2975 -0.00560711 0)
(-6.17462 -0.0404802 0)
(-5.94447 -0.0747257 4.07744e-20)
(-5.60988 -0.106889 4.19436e-20)
(-5.17736 -0.13565 0)
(-4.65744 -0.159816 4.51807e-20)
(-4.06455 -0.178301 4.69988e-20)
(-3.41681 -0.190211 -4.87757e-20)
(-2.73524 -0.194877 0)
(-2.04182 -0.192181 0)
(-1.35754 -0.183807 -5.28267e-20)
(-0.701009 -0.169809 0)
(-0.0942028 -0.153318 0)
(0.453287 -0.135922 0)
(0.942845 -0.118368 0)
(1.37245 -0.102192 5.32878e-20)
(1.74634 -0.0881507 5.26835e-20)
(2.07158 -0.076809 0)
(2.35691 -0.0683253 5.11757e-20)
(2.6116 -0.0618197 0)
(2.84321 -0.0574433 0)
(3.06021 -0.0562253 4.86493e-20)
(3.27383 -0.0558443 0)
(3.48974 -0.0585915 4.70279e-20)
(3.71997 -0.0681686 0)
(3.98633 -0.0708937 0)
(4.27552 -0.0763266 4.48682e-20)
(4.60388 -0.105641 0)
(5.02805 -0.105339 4.35393e-20)
(5.44843 -0.0978347 0)
(5.90224 -0.148909 0)
(6.51695 -0.111553 0)
(6.9217 -0.0899164 -4.02429e-20)
(7.40968 -0.169075 0)
(8.02704 0.0118654 3.811e-20)
(7.82152 -0.00828922 0)
(8.25987 -0.0484179 0)
(8.08793 0.680566 0)
(5.21495 0.628077 0)
(3.43903 -0.077105 0)
(2.87433 0.0402694 0)
(1.89772 0.332921 0)
(0.250443 0.32277 -5.20394e-20)
(-1.3474 0.234791 0)
(-2.3538 0.0626727 0)
(-0.00146594 0.232772 -7.78851e-20)
(-0.034056 0.270003 7.73349e-20)
(-0.050698 0.159778 0)
(0.121115 -0.160554 -5.07421e-20)
(0.49648 -0.633757 0)
(0.974397 -1.04536 -2.49819e-20)
(1.49148 -1.3299 4.92937e-20)
(2.00141 -1.48265 4.87497e-20)
(2.48593 -1.52832 0)
(2.93978 -1.49755 4.75549e-20)
(3.36138 -1.41878 2.3661e-20)
(3.75101 -1.31313 0)
(4.10995 -1.19431 0)
(4.44018 -1.07001 0)
(4.743 -0.943726 0)
(5.0191 -0.816179 2.19029e-20)
(5.26712 -0.686689 0)
(5.48584 -0.554636 -4.21514e-20)
(5.6715 -0.419681 0)
(5.82312 -0.281622 0)
(5.93661 -0.140486 4.03806e-20)
(6.00985 0.00184662 0)
(6.04438 0.143487 -3.94146e-20)
(6.033 0.282148 1.96538e-20)
(5.97044 0.410961 -1.94758e-20)
(5.85555 0.529736 1.93215e-20)
(5.6971 0.630561 1.9187e-20)
(5.49107 0.718108 0)
(5.25015 0.782708 0)
(4.97326 0.824103 -1.88598e-20)
(4.66647 0.858943 1.85603e-20)
(4.35266 0.85183 0)
(4.03319 0.851129 0)
(3.73405 0.855995 -1.84498e-20)
(3.40197 0.803 0)
(3.0912 0.714534 0)
(2.84623 0.557673 1.81173e-20)
(2.48225 0.398926 0)
(2.10303 0.384291 -1.78989e-20)
(1.94729 0.34517 3.56968e-20)
(1.81187 0.0109085 0)
(1.57983 -0.228162 0)
(1.45296 0.270192 7.0469e-20)
(1.48265 0.711404 7.0176e-20)
(1.36343 0.422236 6.98974e-20)
(1.40076 0.40574 -3.50225e-20)
(1.02522 -0.38969 3.4534e-20)
(0.610622 -0.543843 1.03325e-19)
(-1.0073 1.2853 -6.79805e-20)
(-2.49412 1.94429 -3.3356e-20)
(-3.2667 2.14524 0)
(-4.25304 2.00294 3.24375e-20)
(-4.855 1.90314 -3.06329e-20)
(-5.62043 1.71178 0)
(-6.1458 1.5613 0)
(-6.72348 1.38495 0)
(-7.16226 1.23571 2.79669e-20)
(-7.59973 1.08717 0)
(-7.95418 0.956474 -5.13433e-20)
(-8.2862 0.833552 0)
(-8.55716 0.716996 -4.80668e-20)
(-8.79706 0.608017 0)
(-8.98743 0.503647 4.53298e-20)
(-9.14167 0.4037 0)
(-9.25674 0.310099 -4.32102e-20)
(-9.33713 0.223151 2.09978e-20)
(-9.38446 0.142837 0)
(-9.40277 0.0712448 4.11874e-20)
(-9.39312 0.00713545 2.05291e-20)
(-9.35945 -0.0489141 2.03691e-20)
(-9.29896 -0.0980497 0)
(-9.21726 -0.141073 2.00317e-20)
(-9.1152 -0.178173 2.01848e-20)
(-8.99615 -0.210043 0)
(-8.8624 -0.23667 -2.02402e-20)
(-8.71647 -0.258291 4.05156e-20)
(-8.56057 -0.275174 0)
(-8.39663 -0.287782 2.04688e-20)
(-8.22626 -0.296782 0)
(-8.05071 -0.302973 -6.19486e-20)
(-7.87077 -0.307202 0)
(-7.68668 -0.310271 6.25749e-20)
(-7.49806 -0.312837 2.09755e-20)
(-7.30395 -0.315328 -2.10384e-20)
(-7.10305 -0.317899 -4.22806e-20)
(-6.89408 -0.320495 4.2484e-20)
(-6.67625 -0.32307 0)
(-6.44949 -0.32593 0)
(-6.21428 -0.329976 0)
(-5.97116 -0.336608 -1.30123e-19)
(-5.72016 -0.347086 -4.36203e-20)
(-5.4603 -0.361627 4.38347e-20)
(-5.18943 -0.378904 0)
(-4.90481 -0.39647 4.41495e-20)
(-4.60414 -0.412162 -4.44778e-20)
(-4.28604 -0.42595 -4.4685e-20)
(-3.94971 -0.441634 0)
(-3.59508 -0.466597 0)
(-3.22365 -0.506353 0)
(-2.83716 -0.55665 -4.53774e-20)
(-2.4328 -0.604693 0)
(-2.0107 -0.637217 9.09907e-20)
(-1.59651 -0.646501 1.3658e-19)
(-1.21857 -0.645454 -9.0878e-20)
(-0.809605 -0.666555 0)
(-0.411167 -0.646906 -4.5008e-20)
(-0.0114809 -0.622804 0)
(0.435396 -0.744497 -8.87551e-20)
(1.04704 -0.995928 4.37687e-20)
(1.84058 -1.1806 4.32199e-20)
(2.66604 -1.05 0)
(3.37942 -0.415478 1.25783e-19)
(3.58527 0.461556 -8.2244e-20)
(3.18354 0.823151 -4.06464e-20)
(2.86101 0.383452 0)
(2.60753 -0.0300212 -3.95862e-20)
(2.16144 0.122052 -1.17186e-19)
(1.42408 0.508491 0)
(0.552219 0.760068 -7.52419e-20)
(-0.229081 0.827367 -7.34749e-20)
(-0.893831 0.802029 -7.14682e-20)
(-1.48192 0.751224 0)
(-2.03279 0.704804 0)
(-2.56192 0.666126 0)
(-3.0721 0.631911 3.0832e-20)
(-3.56436 0.600005 2.9662e-20)
(-4.03895 0.569101 0)
(-4.49431 0.536168 5.36269e-20)
(-4.92559 0.497445 5.08942e-20)
(-5.32437 0.449243 0)
(-5.67969 0.388965 4.61263e-20)
(-5.97946 0.315656 8.7359e-20)
(-6.21164 0.230025 -4.22462e-20)
(-6.36556 0.134235 -4.01997e-20)
(-6.43088 0.0313179 0)
(-6.40112 -0.0773699 0)
(-6.26555 -0.185984 0)
(-6.02177 -0.291646 -4.07606e-20)
(-5.67224 -0.390904 4.13031e-20)
(-5.22324 -0.480194 8.6306e-20)
(-4.68494 -0.555871 -4.51548e-20)
(-4.07135 -0.614412 4.65822e-20)
(-3.40004 -0.652882 4.87447e-20)
(-2.69145 -0.669513 0)
(-1.96743 -0.664183 0)
(-1.24833 -0.638689 -5.27198e-20)
(-0.552298 -0.59595 0)
(0.0974942 -0.543304 0)
(0.691516 -0.484293 1.07881e-19)
(1.22903 -0.423659 0)
(1.70474 -0.366138 5.32626e-20)
(2.12072 -0.314996 -5.26489e-20)
(2.48285 -0.271931 0)
(2.79899 -0.237483 5.11215e-20)
(3.07754 -0.211456 0)
(3.32917 -0.19255 0)
(3.56266 -0.181266 -4.86197e-20)
(3.78573 -0.17916 9.55298e-20)
(4.01671 -0.183221 -4.69982e-20)
(4.26226 -0.197532 0)
(4.52638 -0.225284 0)
(4.84954 -0.250704 4.47613e-20)
(5.21422 -0.287987 0)
(5.60302 -0.337482 4.34275e-20)
(6.09203 -0.354448 0)
(6.59892 -0.392356 0)
(7.12045 -0.416311 0)
(7.70866 -0.352551 4.02037e-20)
(8.1788 -0.362296 0)
(8.669 -0.259528 -3.80757e-20)
(8.99345 -0.0286043 0)
(9.09115 0.00668793 0)
(9.14813 0.534406 7.08069e-20)
(9.09061 1.45962 -6.89667e-20)
(7.956 1.35527 0)
(4.78722 0.687869 0)
(2.75969 0.866631 0)
(1.25331 1.11577 1.54367e-19)
(-0.174435 0.9323 0)
(-1.18277 0.405721 -7.36636e-20)
(0.00287806 0.240969 2.52357e-23)
(-0.0142799 0.267291 -1.03068e-19)
(0.273799 -0.220379 0)
(0.853688 -1.09698 1.01042e-19)
(1.4528 -1.83985 0)
(1.98368 -2.3142 0)
(2.417 -2.53615 -3.62039e-22)
(2.76094 -2.56997 -4.85847e-20)
(3.03861 -2.4844 -4.75796e-20)
(3.27339 -2.33533 -4.74687e-20)
(3.48481 -2.15979 0)
(3.68767 -1.97861 0)
(3.89156 -1.80174 4.51237e-20)
(4.10138 -1.63217 8.89471e-20)
(4.31857 -1.46819 -8.76249e-20)
(4.54127 -1.30523 0)
(4.76467 -1.13844 -8.4959e-20)
(4.9822 -0.964149 4.2185e-20)
(5.18829 -0.780938 0)
(5.37691 -0.588338 -8.11783e-20)
(5.54425 -0.385621 -4.04092e-20)
(5.68416 -0.174498 7.90218e-20)
(5.791 0.0430953 3.94426e-20)
(5.86461 0.260296 0)
(5.8978 0.473827 -7.64929e-20)
(5.88426 0.673865 -7.58595e-20)
(5.82355 0.858481 0)
(5.7142 1.02324 -7.48751e-20)
(5.56274 1.15421 0)
(5.3657 1.26184 -7.41769e-20)
(5.13571 1.32489 -3.72499e-20)
(4.87311 1.36592 0)
(4.60211 1.34634 0)
(4.31941 1.30872 0)
(4.02836 1.31622 0)
(3.76255 1.12389 0)
(3.42998 0.950065 0)
(3.10037 1.03543 -7.16683e-20)
(2.84753 0.812543 1.07068e-19)
(2.56423 0.409127 0)
(2.3185 0.566638 0)
(2.13608 0.670848 0)
(1.80569 0.305485 -1.62164e-22)
(1.78991 0.51463 -7.01214e-20)
(1.52645 0.617984 -1.39762e-19)
(1.41517 0.080484 1.39479e-19)
(0.147775 0.958713 6.94103e-20)
(-1.72248 2.44027 -6.86491e-20)
(-3.04326 3.06649 6.42075e-22)
(-3.90766 3.09727 -6.53972e-20)
(-4.48278 3.07936 0)
(-5.06123 2.88832 -6.2375e-20)
(-5.46868 2.69235 1.43036e-21)
(-5.95184 2.43646 0)
(-6.32241 2.20758 0)
(-6.7407 1.97 5.55577e-20)
(-7.09091 1.76222 0)
(-7.45156 1.55779 0)
(-7.76186 1.37318 -4.92693e-20)
(-8.05711 1.19539 -9.73706e-20)
(-8.30537 1.02618 4.80673e-20)
(-8.52708 0.865191 0)
(-8.70465 0.711175 -4.53395e-20)
(-8.85015 0.565578 0)
(-8.95774 0.429075 -4.19533e-20)
(-9.03077 0.301844 -4.24059e-20)
(-9.07033 0.185369 8.24296e-20)
(-9.07862 0.0795084 4.02785e-20)
(-9.05721 -0.0161217 0)
(-9.00898 -0.101502 -8.03166e-20)
(-8.93625 -0.177458 0)
(-8.84209 -0.243737 -1.2021e-19)
(-8.72952 -0.300799 -8.00099e-20)
(-8.60137 -0.34906 -8.01827e-20)
(-8.46037 -0.388964 8.0448e-20)
(-8.30891 -0.421065 -1.21315e-19)
(-8.14919 -0.445973 0)
(-7.98312 -0.464484 0)
(-7.81236 -0.477642 8.2011e-20)
(-7.63833 -0.486747 1.23746e-19)
(-7.4621 -0.493322 0)
(-7.28414 -0.499002 -4.17174e-20)
(-7.10424 -0.505336 0)
(-6.92126 -0.513542 1.2626e-19)
(-6.73326 -0.524255 1.34716e-22)
(-6.53773 -0.537403 -1.4296e-22)
(-6.3322 -0.552316 -8.53297e-20)
(-6.11481 -0.568148 0)
(-5.88453 -0.58451 8.61398e-20)
(-5.64107 -0.601885 1.74945e-22)
(-5.38453 -0.62132 0)
(-5.11498 -0.643542 0)
(-4.83197 -0.668222 0)
(-4.53434 -0.694095 -8.84232e-20)
(-4.22042 -0.720108 0)
(-3.88851 -0.746652 0)
(-3.53803 -0.775867 0)
(-3.1706 -0.811306 0)
(-2.7893 -0.856404 0)
(-2.39626 -0.909186 -9.04302e-20)
(-1.98732 -0.956946 0)
(-1.54937 -0.981929 -9.09951e-20)
(-1.07768 -0.968957 -9.10211e-20)
(-0.592923 -0.917465 9.09001e-20)
(-0.129106 -0.924718 0)
(0.256627 -0.926333 9.01319e-20)
(0.600631 -0.932801 0)
(0.93771 -1.13252 8.86419e-20)
(1.37945 -1.55541 -8.78025e-20)
(1.97455 -1.88056 -2.59187e-19)
(2.62134 -1.70586 0)
(3.20358 -0.780578 -2.50083e-19)
(3.42769 0.496905 -8.13309e-20)
(3.31316 1.02878 0)
(3.11465 0.593531 -1.59742e-19)
(2.55187 0.376363 -1.58387e-19)
(1.62644 0.795851 2.34402e-19)
(0.656037 1.2376 0)
(-0.0943708 1.36096 7.52233e-20)
(-0.627249 1.30036 7.34157e-20)
(-1.06898 1.20933 2.13665e-19)
(-1.5105 1.13857 0)
(-1.98159 1.08931 0)
(-2.46923 1.04462 0)
(-2.9536 0.998197 6.13114e-20)
(-3.42699 0.952523 0)
(-3.88933 0.907627 0)
(-4.34049 0.859329 -5.36082e-20)
(-4.77602 0.80146 -5.08778e-20)
(-5.1871 0.727509 0)
(-5.56072 0.633304 0)
(-5.88169 0.517151 -8.73409e-20)
(-6.13473 0.38008 0)
(-6.30589 0.225228 8.11221e-20)
(-6.38501 0.0571978 7.82588e-20)
(-6.36107 -0.12129 0)
(-6.22731 -0.300578 0)
(-5.98396 -0.475644 -7.96995e-20)
(-5.6329 -0.640781 -1.03156e-21)
(-5.18037 -0.789948 -9.19361e-22)
(-4.63696 -0.916946 0)
(-4.01763 -1.01583 -1.86338e-19)
(-3.34148 -1.08166 0)
(-2.6307 -1.11161 0)
(-1.90824 -1.10597 0)
(-1.19521 -1.06637 1.05448e-19)
(-0.509538 -0.999794 0)
(0.129023 -0.918176 -2.15433e-19)
(0.714441 -0.82226 -1.07818e-19)
(1.24743 -0.723226 0)
(1.72408 -0.627498 -1.06466e-19)
(2.14643 -0.540545 0)
(2.51916 -0.46599 0)
(2.84957 -0.405259 -3.06608e-19)
(3.14645 -0.358525 2.01e-19)
(3.41858 -0.325335 0)
(3.67727 -0.305644 1.94136e-19)
(3.93355 -0.302113 -9.54955e-20)
(4.19578 -0.314418 0)
(4.48175 -0.341504 0)
(4.79866 -0.386747 0)
(5.14053 -0.4396 -2.68382e-19)
(5.53465 -0.502141 0)
(5.97158 -0.574694 -8.68685e-20)
(6.43238 -0.61774 0)
(6.96413 -0.67 0)
(7.50761 -0.699223 0)
(8.02753 -0.629018 0)
(8.6205 -0.601289 0)
(9.03993 -0.451819 0)
(9.37672 -0.160974 -1.46797e-19)
(9.77987 0.0145528 0)
(9.49227 0.501167 -7.07844e-20)
(9.62821 1.35094 2.04314e-19)
(10.0256 1.97757 0)
(8.25064 2.12725 0)
(5.23149 1.88453 -1.15412e-19)
(2.90464 1.68848 -1.02113e-19)
(1.45673 1.31267 8.12901e-20)
(0.526604 0.469356 7.36471e-20)
(-0.0895908 0.219864 1.55772e-19)
(0.232576 -0.323401 1.54352e-19)
(1.02234 -1.64343 1.01592e-19)
(1.67644 -2.60202 4.99878e-20)
(2.10293 -3.07446 0)
(2.315 -3.16574 -9.78874e-20)
(2.37391 -3.02617 4.80935e-20)
(2.35644 -2.79013 0)
(2.32951 -2.54645 4.76666e-20)
(2.3332 -2.33726 0)
(2.38554 -2.16999 -9.24246e-20)
(2.48902 -2.03584 0)
(2.63734 -1.92332 -4.5262e-20)
(2.82309 -1.82089 -8.9219e-20)
(3.03865 -1.7159 8.78876e-20)
(3.27394 -1.59644 0)
(3.51685 -1.45501 8.52009e-20)
(3.75641 -1.29014 0)
(3.98586 -1.10341 0)
(4.20068 -0.897244 8.13962e-20)
(4.39877 -0.67172 0)
(4.57659 -0.427691 -6.74309e-22)
(4.72899 -0.166608 0)
(4.85046 0.108276 0)
(4.94311 0.38456 7.39192e-22)
(5.01325 0.654062 7.6026e-20)
(5.05247 0.909382 7.46915e-20)
(5.05317 1.14603 7.49562e-20)
(5.012 1.35327 0)
(4.92967 1.52108 1.47694e-19)
(4.79541 1.6641 0)
(4.63701 1.72017 7.29948e-20)
(4.44229 1.74254 0)
(4.21571 1.75485 0)
(4.00539 1.67215 -7.22262e-20)
(3.74589 1.63943 0)
(3.47112 1.53232 7.16141e-20)
(3.24617 1.27502 3.44918e-22)
(3.00442 1.23812 -1.42128e-19)
(2.72691 1.16826 1.41059e-19)
(2.53545 0.712742 0)
(2.49919 0.540004 0)
(2.20283 0.798046 6.91705e-20)
(1.89901 0.872294 0)
(1.1727 1.16606 6.99125e-20)
(-0.2822 2.37379 -6.96473e-20)
(-2.05305 3.66048 -6.90106e-20)
(-3.25679 4.18642 0)
(-3.93405 4.11482 6.6619e-20)
(-4.4443 3.92878 6.52265e-20)
(-4.8945 3.74822 -1.24709e-19)
(-5.32336 3.49367 6.22804e-20)
(-5.7169 3.25504 6.069e-20)
(-6.12865 2.98424 0)
(-6.50144 2.73102 0)
(-6.88922 2.47441 -5.54988e-20)
(-7.23729 2.23455 0)
(-7.57757 1.99428 0)
(-7.87622 1.76602 1.00521e-19)
(-8.14829 1.54001 9.7305e-20)
(-8.37711 1.3219 0)
(-8.57244 1.10971 0)
(-8.72463 0.905478 0)
(-8.84182 0.711314 0)
(-8.91956 0.527517 8.51616e-20)
(-8.96266 0.355833 -8.20728e-20)
(-8.97183 0.197119 -8.24424e-20)
(-8.94903 0.0517404 -1.6173e-19)
(-8.89814 -0.0799955 0)
(-8.82314 -0.196676 1.00422e-21)
(-8.72555 -0.299005 0)
(-8.60898 -0.38721 7.99708e-20)
(-8.47639 -0.462056 6.34803e-22)
(-8.33082 -0.524324 8.0199e-20)
(-8.17492 -0.574851 -8.04649e-20)
(-8.01104 -0.614635 3.75423e-22)
(-7.84121 -0.644713 0)
(-7.66716 -0.66625 -8.13348e-20)
(-7.49037 -0.680564 -8.20299e-20)
(-7.31209 -0.689211 -1.64738e-19)
(-7.13327 -0.694069 0)
(-6.95446 -0.697354 8.31609e-20)
(-6.77562 -0.701471 0)
(-6.59595 -0.708659 -1.6813e-19)
(-6.41379 -0.72052 8.45484e-20)
(-6.22671 -0.737636 -8.49447e-20)
(-6.03189 -0.759541 8.53415e-20)
(-5.82666 -0.785158 1.71044e-19)
(-5.60903 -0.813579 -8.61448e-20)
(-5.37788 -0.844717 8.65521e-20)
(-5.13307 -0.879226 0)
(-4.87535 -0.917634 -1.74206e-19)
(-4.60561 -0.959485 0)
(-4.32386 -1.00328 -1.75809e-19)
(-4.02859 -1.04763 1.76615e-19)
(-3.71666 -1.09273 1.77419e-19)