# vtk DataFile Version 2.0
sampleSurface
ASCII
DATASET POLYDATA
POINTS 502 float
-0.0206 0 -0.0005 -0.0190172 0 -0.0005 -0.0190172 0 0.0005 -0.0206 0
0.0005 -0.0174976 0 -0.0005 -0.0174976 0 0.0005 -0.0160387 0 -0.0005
-0.0160387 0 0.0005 -0.0146381 0 -0.0005 -0.0146381 0 0.0005 -0.0132934
0 -0.0005 -0.0132934 0 0.0005 -0.0120025 0 -0.0005 -0.0120025 0
0.0005 -0.0107632 0 -0.0005 -0.0107632 0 0.0005 -0.00957337 0 -0.0005
-0.00957337 0 0.0005 -0.00843108 0 -0.0005 -0.00843108 0 0.0005 -0.00733443
0 -0.0005 -0.00733443 0 0.0005 -0.0062816 0 -0.0005 -0.0062816 0
0.0005 -0.00527083 0 -0.0005 -0.00527083 0 0.0005 -0.00430044 0 -0.0005
-0.00430044 0 0.0005 -0.00336883 0 -0.0005 -0.00336883 0 0.0005 -0.00247443
0 -0.0005 -0.00247443 0 0.0005 -0.00161577 0 -0.0005 -0.00161577 0
0.0005 -0.000791418 0 -0.0005 -0.000791418 0 0.0005 0 0 -0.0005
0 0 0.0005 0 -0.0254 -0.0005 0 -0.0254 0.0005 0
-0.0242711 0.0005 0 -0.0242711 -0.0005 0 -0.0231422 0.0005 0 -0.0231422
-0.0005 0 -0.0220133 0.0005 0 -0.0220133 -0.0005 0 -0.0208844 0.0005
0 -0.0208844 -0.0005 0 -0.0197556 0.0005 0 -0.0197556 -0.0005 0
-0.0186267 0.0005 0 -0.0186267 -0.0005 0 -0.0174978 0.0005 0 -0.0174978
-0.0005 0 -0.0163689 0.0005 0 -0.0163689 -0.0005 0 -0.01524 0.0005
0 -0.01524 -0.0005 0 -0.0141111 0.0005 0 -0.0141111 -0.0005 0
-0.0129822 0.0005 0 -0.0129822 -0.0005 0 -0.0118533 0.0005 0 -0.0118533
-0.0005 0 -0.0107244 0.0005 0 -0.0107244 -0.0005 0 -0.00959556 0.0005
0 -0.00959556 -0.0005 0 -0.00846667 0.0005 0 -0.00846667 -0.0005 0
-0.00726604 0.0005 0 -0.00726604 -0.0005 0 -0.00618989 0.0005 0 -0.00618989
-0.0005 0 -0.00522531 0.0005 0 -0.00522531 -0.0005 0 -0.00436073 0.0005
0 -0.00436073 -0.0005 0 -0.00358579 0.0005 0 -0.00358579 -0.0005 0
-0.00289118 0.0005 0 -0.00289118 -0.0005 0 -0.0022686 0.0005 0 -0.0022686
-0.0005 0 -0.00171055 0.0005 0 -0.00171055 -0.0005 0 -0.00121037 0.0005
0 -0.00121037 -0.0005 0 -0.000762037 0.0005 0 -0.000762037 -0.0005 0
-0.000360188 0.0005 0 -0.000360188 -0.0005 0.000528387 -0.0254 -0.0005 0.000528387 -0.0254
0.0005 0.00106088 -0.0254 -0.0005 0.00106088 -0.0254 0.0005 0.00159752 -0.0254 -0.0005
0.00159752 -0.0254 0.0005 0.00213833 -0.0254 -0.0005 0.00213833 -0.0254 0.0005 0.00268334
-0.0254 -0.0005 0.00268334 -0.0254 0.0005 0.00323259 -0.0254 -0.0005 0.00323259 -0.0254
0.0005 0.00378611 -0.0254 -0.0005 0.00378611 -0.0254 0.0005 0.00434393 -0.0254 -0.0005
0.00434393 -0.0254 0.0005 0.00490609 -0.0254 -0.0005 0.00490609 -0.0254 0.0005 0.00547262
-0.0254 -0.0005 0.00547262 -0.0254 0.0005 0.00604356 -0.0254 -0.0005 0.00604356 -0.0254
0.0005 0.00661893 -0.0254 -0.0005 0.00661893 -0.0254 0.0005 0.00719878 -0.0254 -0.0005
0.00719878 -0.0254 0.0005 0.00778313 -0.0254 -0.0005 0.00778313 -0.0254 0.0005 0.00837203
-0.0254 -0.0005 0.00837203 -0.0254 0.0005 0.00896551 -0.0254 -0.0005 0.00896551 -0.0254
0.0005 0.0095636 -0.0254 -0.0005 0.0095636 -0.0254 0.0005 0.0101663 -0.0254 -0.0005
0.0101663 -0.0254 0.0005 0.0107738 -0.0254 -0.0005 0.0107738 -0.0254 0.0005 0.0113859
-0.0254 -0.0005 0.0113859 -0.0254 0.0005 0.0120028 -0.0254 -0.0005 0.0120028 -0.0254
0.0005 0.0126245 -0.0254 -0.0005 0.0126245 -0.0254 0.0005 0.0132511 -0.0254 -0.0005
0.0132511 -0.0254 0.0005 0.0138825 -0.0254 -0.0005 0.0138825 -0.0254 0.0005 0.0145188
-0.0254 -0.0005 0.0145188 -0.0254 0.0005 0.0151601 -0.0254 -0.0005 0.0151601 -0.0254
0.0005 0.0158063 -0.0254 -0.0005 0.0158063 -0.0254 0.0005 0.0164576 -0.0254 -0.0005
0.0164576 -0.0254 0.0005 0.0171139 -0.0254 -0.0005 0.0171139 -0.0254 0.0005 0.0177754
-0.0254 -0.0005 0.0177754 -0.0254 0.0005 0.018442 -0.0254 -0.0005 0.018442 -0.0254
0.0005 0.0191137 -0.0254 -0.0005 0.0191137 -0.0254 0.0005 0.0197907 -0.0254 -0.0005
0.0197907 -0.0254 0.0005 0.020473 -0.0254 -0.0005 0.020473 -0.0254 0.0005 0.0211606
-0.0254 -0.0005 0.0211606 -0.0254 0.0005 0.0218535 -0.0254 -0.0005 0.0218535 -0.0254
0.0005 0.0225517 -0.0254 -0.0005 0.0225517 -0.0254 0.0005 0.0232555 -0.0254 -0.0005
0.0232555 -0.0254 0.0005 0.0239647 -0.0254 -0.0005 0.0239647 -0.0254 0.0005 0.0246794
-0.0254 -0.0005 0.0246794 -0.0254 0.0005 0.0253996 -0.0254 -0.0005 0.0253996 -0.0254
0.0005 0.0261255 -0.0254 -0.0005 0.0261255 -0.0254 0.0005 0.026857 -0.0254 -0.0005
0.026857 -0.0254 0.0005 0.0275942 -0.0254 -0.0005 0.0275942 -0.0254 0.0005 0.0283371
-0.0254 -0.0005 0.0283371 -0.0254 0.0005 0.0290858 -0.0254 -0.0005 0.0290858 -0.0254
0.0005 0.0298403 -0.0254 -0.0005 0.0298403 -0.0254 0.0005 0.0306007 -0.0254 -0.0005
0.0306007 -0.0254 0.0005 0.031367 -0.0254 -0.0005 0.031367 -0.0254 0.0005 0.0321393
-0.0254 -0.0005 0.0321393 -0.0254 0.0005 0.0329175 -0.0254 -0.0005 0.0329175 -0.0254
0.0005 0.0337019 -0.0254 -0.0005 0.0337019 -0.0254 0.0005 0.0344923 -0.0254 -0.0005
0.0344923 -0.0254 0.0005 0.0352888 -0.0254 -0.0005 0.0352888 -0.0254 0.0005 0.0360916
-0.0254 -0.0005 0.0360916 -0.0254 0.0005 0.0369006 -0.0254 -0.0005 0.0369006 -0.0254
0.0005 0.0377158 -0.0254 -0.0005 0.0377158 -0.0254 0.0005 0.0385375 -0.0254 -0.0005
0.0385375 -0.0254 0.0005 0.0393655 -0.0254 -0.0005 0.0393655 -0.0254 0.0005 0.0401999
-0.0254 -0.0005 0.0401999 -0.0254 0.0005 0.0410408 -0.0254 -0.0005 0.0410408 -0.0254
0.0005 0.0418883 -0.0254 -0.0005 0.0418883 -0.0254 0.0005 0.0427424 -0.0254 -0.0005
0.0427424 -0.0254 0.0005 0.0436031 -0.0254 -0.0005 0.0436031 -0.0254 0.0005 0.0444704
-0.0254 -0.0005 0.0444704 -0.0254 0.0005 0.0453446 -0.0254 -0.0005 0.0453446 -0.0254
0.0005 0.0462255 -0.0254 -0.0005 0.0462255 -0.0254 0.0005 0.0471133 -0.0254 -0.0005
0.0471133 -0.0254 0.0005 0.048008 -0.0254 -0.0005 0.048008 -0.0254 0.0005 0.0489096
-0.0254 -0.0005 0.0489096 -0.0254 0.0005 0.0498183 -0.0254 -0.0005 0.0498183 -0.0254
0.0005 0.050734 -0.0254 -0.0005 0.050734 -0.0254 0.0005 0.0516568 -0.0254 -0.0005
0.0516568 -0.0254 0.0005 0.0525868 -0.0254 -0.0005 0.0525868 -0.0254 0.0005 0.053524
-0.0254 -0.0005 0.053524 -0.0254 0.0005 0.0544686 -0.0254 -0.0005 0.0544686 -0.0254
0.0005 0.0554204 -0.0254 -0.0005 0.0554204 -0.0254 0.0005 0.0563797 -0.0254 -0.0005
0.0563797 -0.0254 0.0005 0.0573464 -0.0254 -0.0005 0.0573464 -0.0254 0.0005 0.0583206
-0.0254 -0.0005 0.0583206 -0.0254 0.0005 0.0593025 -0.0254 -0.0005 0.0593025 -0.0254
0.0005 0.0602919 -0.0254 -0.0005 0.0602919 -0.0254 0.0005 0.0612891 -0.0254 -0.0005
0.0612891 -0.0254 0.0005 0.0622939 -0.0254 -0.0005 0.0622939 -0.0254 0.0005 0.0633067
-0.0254 -0.0005 0.0633067 -0.0254 0.0005 0.0643272 -0.0254 -0.0005 0.0643272 -0.0254
0.0005 0.0653557 -0.0254 -0.0005 0.0653557 -0.0254 0.0005 0.0663923 -0.0254 -0.0005
0.0663923 -0.0254 0.0005 0.0674368 -0.0254 -0.0005 0.0674368 -0.0254 0.0005 0.0684895
-0.0254 -0.0005 0.0684895 -0.0254 0.0005 0.0695504 -0.0254 -0.0005 0.0695504 -0.0254
0.0005 0.0706195 -0.0254 -0.0005 0.0706195 -0.0254 0.0005 0.0716969 -0.0254 -0.0005
0.0716969 -0.0254 0.0005 0.0727828 -0.0254 -0.0005 0.0727828 -0.0254 0.0005 0.073877
-0.0254 -0.0005 0.073877 -0.0254 0.0005 0.0749798 -0.0254 -0.0005 0.0749798 -0.0254
0.0005 0.0760911 -0.0254 -0.0005 0.0760911 -0.0254 0.0005 0.0772111 -0.0254 -0.0005
0.0772111 -0.0254 0.0005 0.0783398 -0.0254 -0.0005 0.0783398 -0.0254 0.0005 0.0794772
-0.0254 -0.0005 0.0794772 -0.0254 0.0005 0.0806235 -0.0254 -0.0005 0.0806235 -0.0254
0.0005 0.0817787 -0.0254 -0.0005 0.0817787 -0.0254 0.0005 0.0829429 -0.0254 -0.0005
0.0829429 -0.0254 0.0005 0.0841162 -0.0254 -0.0005 0.0841162 -0.0254 0.0005 0.0852985
-0.0254 -0.0005 0.0852985 -0.0254 0.0005 0.0864901 -0.0254 -0.0005 0.0864901 -0.0254
0.0005 0.0876909 -0.0254 -0.0005 0.0876909 -0.0254 0.0005 0.0889011 -0.0254 -0.0005
0.0889011 -0.0254 0.0005 0.0901207 -0.0254 -0.0005 0.0901207 -0.0254 0.0005 0.0913497
-0.0254 -0.0005 0.0913497 -0.0254 0.0005 0.0925883 -0.0254 -0.0005 0.0925883 -0.0254
0.0005 0.0938366 -0.0254 -0.0005 0.0938366 -0.0254 0.0005 0.0950945 -0.0254 -0.0005
0.0950945 -0.0254 0.0005 0.0963622 -0.0254 -0.0005 0.0963622 -0.0254 0.0005 0.0976398
-0.0254 -0.0005 0.0976398 -0.0254 0.0005 0.0989273 -0.0254 -0.0005 0.0989273 -0.0254
0.0005 0.100225 -0.0254 -0.0005 0.100225 -0.0254 0.0005 0.101532 -0.0254 -0.0005
0.101532 -0.0254 0.0005 0.10285 -0.0254 -0.0005 0.10285 -0.0254 0.0005 0.104178
-0.0254 -0.0005 0.104178 -0.0254 0.0005 0.105517 -0.0254 -0.0005 0.105517 -0.0254
0.0005 0.106865 -0.0254 -0.0005 0.106865 -0.0254 0.0005 0.108225 -0.0254 -0.0005
0.108225 -0.0254 0.0005 0.109594 -0.0254 -0.0005 0.109594 -0.0254 0.0005 0.110975
-0.0254 -0.0005 0.110975 -0.0254 0.0005 0.112366 -0.0254 -0.0005 0.112366 -0.0254
0.0005 0.113768 -0.0254 -0.0005 0.113768 -0.0254 0.0005 0.115181 -0.0254 -0.0005
0.115181 -0.0254 0.0005 0.116605 -0.0254 -0.0005 0.116605 -0.0254 0.0005 0.11804
-0.0254 -0.0005 0.11804 -0.0254 0.0005 0.119486 -0.0254 -0.0005 0.119486 -0.0254
0.0005 0.120943 -0.0254 -0.0005 0.120943 -0.0254 0.0005 0.122412 -0.0254 -0.0005
0.122412 -0.0254 0.0005 0.123892 -0.0254 -0.0005 0.123892 -0.0254 0.0005 0.125384
-0.0254 -0.0005 0.125384 -0.0254 0.0005 0.126887 -0.0254 -0.0005 0.126887 -0.0254
0.0005 0.128402 -0.0254 -0.0005 0.128402 -0.0254 0.0005 0.129928 -0.0254 -0.0005
0.129928 -0.0254 0.0005 0.131467 -0.0254 -0.0005 0.131467 -0.0254 0.0005 0.133017
-0.0254 -0.0005 0.133017 -0.0254 0.0005 0.13458 -0.0254 -0.0005 0.13458 -0.0254
0.0005 0.136155 -0.0254 -0.0005 0.136155 -0.0254 0.0005 0.137742 -0.0254 -0.0005
0.137742 -0.0254 0.0005 0.139341 -0.0254 -0.0005 0.139341 -0.0254 0.0005 0.140953
-0.0254 -0.0005 0.140953 -0.0254 0.0005 0.142577 -0.0254 -0.0005 0.142577 -0.0254
0.0005 0.144214 -0.0254 -0.0005 0.144214 -0.0254 0.0005 0.145863 -0.0254 -0.0005
0.145863 -0.0254 0.0005 0.147526 -0.0254 -0.0005 0.147526 -0.0254 0.0005 0.149201
-0.0254 -0.0005 0.149201 -0.0254 0.0005 0.15089 -0.0254 -0.0005 0.15089 -0.0254
0.0005 0.152591 -0.0254 -0.0005 0.152591 -0.0254 0.0005 0.154306 -0.0254 -0.0005
0.154306 -0.0254 0.0005 0.156034 -0.0254 -0.0005 0.156034 -0.0254 0.0005 0.157775
-0.0254 -0.0005 0.157775 -0.0254 0.0005 0.159531 -0.0254 -0.0005 0.159531 -0.0254
0.0005 0.161299 -0.0254 -0.0005 0.161299 -0.0254 0.0005 0.163082 -0.0254 -0.0005
0.163082 -0.0254 0.0005 0.164878 -0.0254 -0.0005 0.164878 -0.0254 0.0005 0.166688
-0.0254 -0.0005 0.166688 -0.0254 0.0005 0.168513 -0.0254 -0.0005 0.168513 -0.0254
0.0005 0.170351 -0.0254 -0.0005 0.170351 -0.0254 0.0005 0.172204 -0.0254 -0.0005
0.172204 -0.0254 0.0005 0.174071 -0.0254 -0.0005 0.174071 -0.0254 0.0005 0.175953
-0.0254 -0.0005 0.175953 -0.0254 0.0005 0.177849 -0.0254 -0.0005 0.177849 -0.0254
0.0005 0.17976 -0.0254 -0.0005 0.17976 -0.0254 0.0005 0.181686 -0.0254 -0.0005
0.181686 -0.0254 0.0005 0.183627 -0.0254 -0.0005 0.183627 -0.0254 0.0005 0.185583
-0.0254 -0.0005 0.185583 -0.0254 0.0005 0.187555 -0.0254 -0.0005 0.187555 -0.0254
0.0005 0.189541 -0.0254 -0.0005 0.189541 -0.0254 0.0005 0.191543 -0.0254 -0.0005
0.191543 -0.0254 0.0005 0.193561 -0.0254 -0.0005 0.193561 -0.0254 0.0005 0.195594
-0.0254 -0.0005 0.195594 -0.0254 0.0005 0.197643 -0.0254 -0.0005 0.197643 -0.0254
0.0005 0.199708 -0.0254 -0.0005 0.199708 -0.0254 0.0005 0.201789 -0.0254 -0.0005
0.201789 -0.0254 0.0005 0.203886 -0.0254 -0.0005 0.203886 -0.0254 0.0005 0.206
-0.0254 -0.0005 0.206 -0.0254 0.0005 0.208047 -0.0251856 -0.0005 0.208047 -0.0251856
0.0005 0.210173 -0.0249628 -0.0005 0.210173 -0.0249628 0.0005 0.212382 -0.0247314 -0.0005
0.212382 -0.0247314 0.0005 0.214677 -0.024491 -0.0005 0.214677 -0.024491 0.0005 0.217061
-0.0242412 -0.0005 0.217061 -0.0242412 0.0005 0.219538 -0.0239817 -0.0005 0.219538 -0.0239817
0.0005 0.222112 -0.0237121 -0.0005 0.222112 -0.0237121 0.0005 0.224785 -0.023432 -0.0005
0.224785 -0.023432 0.0005 0.227563 -0.023141 -0.0005 0.227563 -0.023141 0.0005 0.230449
-0.0228387 -0.0005 0.230449 -0.0228387 0.0005 0.233447 -0.0225246 -0.0005 0.233447 -0.0225246
0.0005 0.236562 -0.0221983 -0.0005 0.236562 -0.0221983 0.0005 0.239797 -0.0218593 -0.0005
0.239797 -0.0218593 0.0005 0.243159 -0.0215071 -0.0005 0.243159 -0.0215071 0.0005 0.246652
-0.0211412 -0.0005 0.246652 -0.0211412 0.0005 0.250281 -0.0207611 -0.0005 0.250281 -0.0207611
0.0005 0.254051 -0.0203661 -0.0005 0.254051 -0.0203661 0.0005 0.257967 -0.0199558 -0.0005
0.257967 -0.0199558 0.0005 0.262036 -0.0195295 -0.0005 0.262036 -0.0195295 0.0005 0.266264
-0.0190867 -0.0005 0.266264 -0.0190867 0.0005 0.270655 -0.0186266 -0.0005 0.270655 -0.0186266
0.0005 0.275218 -0.0181486 -0.0005 0.275218 -0.0181486 0.0005 0.279959 -0.017652 -0.0005
0.279959 -0.017652 0.0005 0.284883 -0.017136 -0.0005 0.284883 -0.017136 0.0005 0.29
-0.0166 -0.0005 0.29 -0.0166 0.0005 
POLYGONS 250 1250
4 0 1 2 3 4 1 4 5 2 4
4 6 7 5 4 6 8 9 7 4
8 10 11 9 4 10 12 13 11 4
12 14 15 13 4 14 16 17 15 4
16 18 19 17 4 18 20 21 19 4
20 22 23 21 4 22 24 25 23 4
24 26 27 25 4 26 28 29 27 4
28 30 31 29 4 30 32 33 31 4
32 34 35 33 4 34 36 37 35 4
38 39 40 41 4 41 40 42 43 4
43 42 44 45 4 45 44 46 47 4
47 46 48 49 4 49 48 50 51 4
51 50 52 53 4 53 52 54 55 4
55 54 56 57 4 57 56 58 59 4
59 58 60 61 4 61 60 62 63 4
63 62 64 65 4 65 64 66 67 4
67 66 68 69 4 69 68 70 71 4
71 70 72 73 4 73 72 74 75 4
75 74 76 77 4 77 76 78 79 4
79 78 80 81 4 81 80 82 83 4
83 82 84 85 4 85 84 86 87 4
87 86 88 89 4 89 88 90 91 4
91 90 37 36 4 38 92 93 39 4
92 94 95 93 4 94 96 97 95 4
96 98 99 97 4 98 100 101 99 4
100 102 103 101 4 102 104 105 103 4
104 106 107 105 4 106 108 109 107 4
108 110 111 109 4 110 112 113 111 4
112 114 115 113 4 114 116 117 115 4
116 118 119 117 4 118 120 121 119 4
120 122 123 121 4 122 124 125 123 4
124 126 127 125 4 126 128 129 127 4
128 130 131 129 4 130 132 133 131 4
132 134 135 133 4 134 136 137 135 4
136 138 139 137 4 138 140 141 139 4
140 142 143 141 4 142 144 145 143 4
144 146 147 145 4 146 148 149 147 4
148 150 151 149 4 150 152 153 151 4
152 154 155 153 4 154 156 157 155 4
156 158 159 157 4 158 160 161 159 4
160 162 163 161 4 162 164 165 163 4
164 166 167 165 4 166 168 169 167 4
168 170 171 169 4 170 172 173 171 4
172 174 175 173 4 174 176 177 175 4
176 178 179 177 4 178 180 181 179 4
180 182 183 181 4 182 184 185 183 4
184 186 187 185 4 186 188 189 187 4
188 190 191 189 4 190 192 193 191 4
192 194 195 193 4 194 196 197 195 4
196 198 199 197 4 198 200 201 199 4
200 202 203 201 4 202 204 205 203 4
204 206 207 205 4 206 208 209 207 4
208 210 211 209 4 210 212 213 211 4
212 214 215 213 4 214 216 217 215 4
216 218 219 217 4 218 220 221 219 4
220 222 223 221 4 222 224 225 223 4
224 226 227 225 4 226 228 229 227 4
228 230 231 229 4 230 232 233 231 4
232 234 235 233 4 234 236 237 235 4
236 238 239 237 4 238 240 241 239 4
240 242 243 241 4 242 244 245 243 4
244 246 247 245 4 246 248 249 247 4
248 250 251 249 4 250 252 253 251 4
252 254 255 253 4 254 256 257 255 4
256 258 259 257 4 258 260 261 259 4
260 262 263 261 4 262 264 265 263 4
264 266 267 265 4 266 268 269 267 4
268 270 271 269 4 270 272 273 271 4
272 274 275 273 4 274 276 277 275 4
276 278 279 277 4 278 280 281 279 4
280 282 283 281 4 282 284 285 283 4
284 286 287 285 4 286 288 289 287 4
288 290 291 289 4 290 292 293 291 4
292 294 295 293 4 294 296 297 295 4
296 298 299 297 4 298 300 301 299 4
300 302 303 301 4 302 304 305 303 4
304 306 307 305 4 306 308 309 307 4
308 310 311 309 4 310 312 313 311 4
312 314 315 313 4 314 316 317 315 4
316 318 319 317 4 318 320 321 319 4
320 322 323 321 4 322 324 325 323 4
324 326 327 325 4 326 328 329 327 4
328 330 331 329 4 330 332 333 331 4
332 334 335 333 4 334 336 337 335 4
336 338 339 337 4 338 340 341 339 4
340 342 343 341 4 342 344 345 343 4
344 346 347 345 4 346 348 349 347 4
348 350 351 349 4 350 352 353 351 4
352 354 355 353 4 354 356 357 355 4
356 358 359 357 4 358 360 361 359 4
360 362 363 361 4 362 364 365 363 4
364 366 367 365 4 366 368 369 367 4
368 370 371 369 4 370 372 373 371 4
372 374 375 373 4 374 376 377 375 4
376 378 379 377 4 378 380 381 379 4
380 382 383 381 4 382 384 385 383 4
384 386 387 385 4 386 388 389 387 4
388 390 391 389 4 390 392 393 391 4
392 394 395 393 4 394 396 397 395 4
396 398 399 397 4 398 400 401 399 4
400 402 403 401 4 402 404 405 403 4
404 406 407 405 4 406 408 409 407 4
408 410 411 409 4 410 412 413 411 4
412 414 415 413 4 414 416 417 415 4
416 418 419 417 4 418 420 421 419 4
420 422 423 421 4 422 424 425 423 4
424 426 427 425 4 426 428 429 427 4
428 430 431 429 4 430 432 433 431 4
432 434 435 433 4 434 436 437 435 4
436 438 439 437 4 438 440 441 439 4
440 442 443 441 4 442 444 445 443 4
444 446 447 445 4 446 448 449 447 4
448 450 451 449 4 450 452 453 451 4
452 454 455 453 4 454 456 457 455 4
456 458 459 457 4 458 460 461 459 4
460 462 463 461 4 462 464 465 463 4
464 466 467 465 4 466 468 469 467 4
468 470 471 469 4 470 472 473 471 4
472 474 475 473 4 474 476 477 475 4
476 478 479 477 4 478 480 481 479 4
480 482 483 481 4 482 484 485 483 4
484 486 487 485 4 486 488 489 487 4
488 490 491 489 4 490 492 493 491 4
492 494 495 493 4 494 496 497 495 4
496 498 499 497 4 498 500 501 499 
POINT_DATA 502
FIELD attributes 1
U 3 502 float
3.21033 -0.0154822 -0.0222731 1.61159 -0.00741719 -0.0109762 1.61159 -0.00741719 -0.0109762 3.21033 -0.0154822
-0.0222731 0.0573192 0.000363213 0 0.0573192 0.000363213 0 0.0555111 0.000312812 0
0.0555111 0.000312812 0 0.0537421 0.000335183 0 0.0537421 0.000335183 0 0.0521233
0.000354602 0 0.0521233 0.000354602 0 0.0506176 0.000336526 0 0.0506176 0.000336526
0 0.0491357 0.000286844 0 0.0491357 0.000286844 0 0.0476789 0.000229176 0
0.0476789 0.000229176 0 0.0462936 0.000200135 0 0.0462936 0.000200135 0 0.0449422
0.000221389 0 0.0449422 0.000221389 0 0.0435346 0.000277909 0 0.0435346 0.000277909
0 0.0420195 0.000335384 0 0.0420195 0.000335384 0 0.0403758 0.00034992 0
0.0403758 0.00034992 0 0.0387799 0.000309997 0 0.0387799 0.000309997 0 0.0372027
0.000263513 0 0.0372027 0.000263513 0 0.0359046 0.000196563 0 0.0359046 0.000196563
0 0.0344601 0.000200461 0 0.0344601 0.000200461 0 0.0157683 0.000132959 0
0.0157683 0.000132959 0 -1.61732e-05 0.000145444 2.36498e-22 -1.61732e-05 0.000145444 2.36498e-22 6.49139e-05
0.000193152 -6.39593e-22 6.49139e-05 0.000193152 -6.39593e-22 9.57003e-05 -0.000183184 -7.58035e-22 9.57003e-05 -0.000183184
-7.58035e-22 -0.00010859 -0.000409815 1.51733e-21 -0.00010859 -0.000409815 1.51733e-21 -0.000451382 -6.00275e-05 5.05887e-22
-0.000451382 -6.00275e-05 5.05887e-22 -0.000110608 -0.000712605 -1.01164e-21 -0.000110608 -0.000712605 -1.01164e-21 0.00116389
-0.00530133 0 0.00116389 -0.00530133 0 0.00162465 -0.0124149 -2.01738e-21 0.00162465 -0.0124149
-2.01738e-21 0.000821012 -0.0162493 -5.8094e-25 0.000821012 -0.0162493 -5.8094e-25 0.000125078 -0.0166942 2.0168e-21
0.000125078 -0.0166942 2.0168e-21 -0.000120756 -0.0161957 -2.03058e-21 -0.000120756 -0.0161957 -2.03058e-21 -0.000221803
-0.0152266 7.88368e-25 -0.000221803 -0.0152266 7.88368e-25 -0.000265667 -0.0140543 2.03137e-21 -0.000265667 -0.0140543
2.03137e-21 -0.000272019 -0.0127966 2.05678e-21 -0.000272019 -0.0127966 2.05678e-21 -0.000268459 -0.0115626 -1.40074e-24
-0.000268459 -0.0115626 -1.40074e-24 -0.000282562 -0.0103063 -2.09466e-21 -0.000282562 -0.0103063 -2.09466e-21 -0.000294516
-0.00896648 0 -0.000294516 -0.00896648 0 -0.000277826 -0.00775122 0 -0.000277826 -0.00775122
0 -0.00024616 -0.00671427 0 -0.00024616 -0.00671427 0 -0.000226441 -0.00582464 0
-0.000226441 -0.00582464 0 -0.000242544 -0.00501495 0 -0.000242544 -0.00501495 0 -0.000300582
-0.00422743 0 -0.000300582 -0.00422743 0 -0.000376981 -0.00341797 0 -0.000376981 -0.00341797
0 -0.000479413 -0.00237037 0 -0.000479413 -0.00237037 0 -0.00069388 -0.00158563 0
-0.00069388 -0.00158563 0 -0.000562079 -9.85872e-05 0 -0.000562079 -9.85872e-05 0 0.000358625
0.000614308 0 0.000358625 0.000614308 0 -6.42573e-05 0.000173018 9.62773e-25 -6.42573e-05 0.000173018
9.62773e-25 -0.000145351 0.000167043 -1.17588e-22 -0.000145351 0.000167043 -1.17588e-22 -0.000152382 4.8033e-05 0
-0.000152382 4.8033e-05 0 -3.28825e-05 -0.000116061 0 -3.28825e-05 -0.000116061 0 0.00021199
-0.000253404 1.14039e-22 0.00021199 -0.000253404 1.14039e-22 0.000574683 -0.0003645 1.14244e-22 0.000574683 -0.0003645
1.14244e-22 0.0010412 -0.000457289 0 0.0010412 -0.000457289 0 0.00158237 -0.000524909 0
0.00158237 -0.000524909 0 0.00217051 -0.000565896 0 0.00217051 -0.000565896 0 0.0027788
-0.000581411 -1.09264e-22 0.0027788 -0.000581411 -1.09264e-22 0.00338595 -0.000574307 -1.09472e-22 0.00338595 -0.000574307
-1.09472e-22 0.00397508 -0.000548024 0 0.00397508 -0.000548024 0 0.00453247 -0.000507468 0
0.00453247 -0.000507468 0 0.0050469 -0.000457206 0 0.0050469 -0.000457206 0 0.0055095
-0.000400375 -1.04388e-22 0.0055095 -0.000400375 -1.04388e-22 0.00591402 -0.000339105 -1.04599e-22 0.00591402 -0.000339105
-1.04599e-22 0.00625565 -0.00027466 0 0.00625565 -0.00027466 0 0.0065313 -0.000207551 0
0.0065313 -0.000207551 0 0.00673791 -0.000137228 0 0.00673791 -0.000137228 0 0.00687133
-6.28672e-05 0 0.00687133 -6.28672e-05 0 0.0069268 1.59446e-05 0 0.0069268 1.59446e-05
0 0.00689759 0.000100987 0 0.00689759 0.000100987 0 0.00677984 0.000189809 -9.76961e-23
0.00677984 0.000189809 -9.76961e-23 0.00657369 0.000272886 -9.32379e-25 0.00657369 0.000272886 -9.32379e-25 0.00627766
0.000347322 9.09797e-25 0.00627766 0.000347322 9.09797e-25 0.00589899 0.000409658 -1.92116e-22 0.00589899 0.000409658
-1.92116e-22 0.0054591 0.000447652 -9.583e-23 0.0054591 0.000447652 -9.583e-23 0.0049916 0.000457155 0
0.0049916 0.000457155 0 0.00451548 0.00045072 9.36239e-23 0.00451548 0.00045072 9.36239e-23 0.00402137
0.000420237 1.86799e-22 0.00402137 0.000420237 1.86799e-22 0.00354128 0.000307542 9.31757e-23 0.00354128 0.000307542
9.31757e-23 0.00308258 0.000144268 0 0.00308258 0.000144268 0 0.00274264 -2.78849e-05 9.08634e-23
0.00274264 -2.78849e-05 9.08634e-23 0.00264753 -0.000175141 9.10872e-23 0.00264753 -0.000175141 9.10872e-23 0.00264643
-0.000109628 0 0.00264643 -0.000109628 0 0.00274658 2.67707e-05 -8.8552e-23 0.00274658 2.67707e-05
-8.8552e-23 0.00306054 -1.63342e-05 -8.87771e-23 0.00306054 -1.63342e-05 -8.87771e-23 0.00328427 -7.88418e-05 -8.69926e-23
0.00328427 -7.88418e-05 -8.69926e-23 0.00317913 -1.40081e-05 -2.59601e-22 0.00317913 -1.40081e-05 -2.59601e-22 0.0030605
6.94382e-05 -1.72834e-22 0.0030605 6.94382e-05 -1.72834e-22 0.00325178 3.91523e-05 0 0.00325178 3.91523e-05
0 0.00361617 -0.000275592 0 0.00361617 -0.000275592 0 0.00382993 -0.000877659 0
0.00382993 -0.000877659 0 0.00379898 -0.00112591 0 0.00379898 -0.00112591 0 0.0035558
-0.00051178 -1.63019e-22 0.0035558 -0.00051178 -1.63019e-22 0.0030157 0.000436853 -3.25381e-22 0.0030157 0.000436853
-3.25381e-22 0.0023269 0.000746222 -3.23202e-22 0.0023269 0.000746222 -3.23202e-22 0.00164821 0.000224973 -1.61295e-22
0.00164821 0.000224973 -1.61295e-22 0.000613787 -0.000468757 1.58263e-22 0.000613787 -0.000468757 1.58263e-22 -0.00110245
-9.68102e-05 1.58721e-22 -0.00110245 -9.68102e-05 1.58721e-22 -0.00372864 0.00189977 -1.54866e-22 -0.00372864 0.00189977
-1.54866e-22 -0.00718457 0.00298773 -3.07954e-22 -0.00718457 0.00298773 -3.07954e-22 -0.00988947 0.00174618 -1.53085e-22
-0.00988947 0.00174618 -1.53085e-22 -0.0112312 0.000958864 0 -0.0112312 0.000958864 0 -0.0125686
0.00129489 0 -0.0125686 0.00129489 0 -0.0139594 0.00100167 -1.43733e-22 -0.0139594 0.00100167
-1.43733e-22 -0.01478 0.000435282 -1.44178e-22 -0.01478 0.000435282 -1.44178e-22 -0.0153346 0.000346529 0
-0.0153346 0.000346529 0 -0.0158583 0.000349677 0 -0.0158583 0.000349677 0 -0.016253
0.000236614 0 -0.016253 0.000236614 0 -0.0165042 0.000133077 0 -0.0165042 0.000133077
0 -0.0166459 6.19311e-05 0 -0.0166459 6.19311e-05 0 -0.0166904 -2.76171e-07 0
-0.0166904 -2.76171e-07 0 -0.0166532 -5.67202e-05 0 -0.0166532 -5.67202e-05 0 -0.0165453
-0.000106112 1.30347e-22 -0.0165453 -0.000106112 1.30347e-22 -0.0163767 -0.000145469 1.30784e-22 -0.0163767 -0.000145469
1.30784e-22 -0.0161618 -0.000175283 0 -0.0161618 -0.000175283 0 -0.0159106 -0.000197149 -1.27369e-22
-0.0159106 -0.000197149 -1.27369e-22 -0.0156331 -0.000210962 -2.54268e-22 -0.0156331 -0.000210962 -2.54268e-22 -0.0153378
-0.000217697 -1.269e-22 -0.0153378 -0.000217697 -1.269e-22 -0.0150308 -0.000218539 1.24718e-22 -0.0150308 -0.000218539
1.24718e-22 -0.0147176 -0.000214634 1.28812e-24 -0.0147176 -0.000214634 1.28812e-24 -0.0144027 -0.000207227 -1.24313e-22
-0.0144027 -0.000207227 -1.24313e-22 -0.0140905 -0.000197291 1.22201e-22 -0.0140905 -0.000197291 1.22201e-22 -0.0137853
-0.000185484 1.22644e-22 -0.0137853 -0.000185484 1.22644e-22 -0.0134912 -0.000172222 0 -0.0134912 -0.000172222
0 -0.0132111 -0.000157886 -1.19705e-22 -0.0132111 -0.000157886 -1.19705e-22 -0.012946 -0.000143292 -1.2015e-22
-0.012946 -0.000143292 -1.2015e-22 -0.012693 -0.000130058 1.18032e-22 -0.012693 -0.000130058 1.18032e-22 -0.0124458
-0.000120306 1.18478e-22 -0.0124458 -0.000120306 1.18478e-22 -0.012197 -0.000115544 -1.16358e-22 -0.012197 -0.000115544
-1.16358e-22 -0.0119396 -0.000115731 -2.32329e-22 -0.0119396 -0.000115731 -2.32329e-22 -0.0116676 -0.000119721 -2.30665e-22
-0.0116676 -0.000119721 -2.30665e-22 -0.0113768 -0.00012677 -3.42883e-22 -0.0113768 -0.00012677 -3.42883e-22 -0.0110632
-0.000137476 -2.52894e-24 -0.0110632 -0.000137476 -2.52894e-24 -0.0107214 -0.000153178 2.27002e-22 -0.0107214 -0.000153178
2.27002e-22 -0.0103452 -0.000174148 0 -0.0103452 -0.000174148 0 -0.00993084 -0.000198053 0
-0.00993084 -0.000198053 0 -0.00947873 -0.000220717 2.19719e-22 -0.00947873 -0.000220717 2.19719e-22 -0.00899262
-0.000238595 4.38765e-22 -0.00899262 -0.000238595 4.38765e-22 -0.00847947 -0.000249327 2.46435e-24 -0.00847947 -0.000249327
2.46435e-24 -0.00794821 -0.000250432 -2.17478e-22 -0.00794821 -0.000250432 -2.17478e-22 -0.00741024 -0.00024002 2.13426e-22
-0.00741024 -0.00024002 2.13426e-22 -0.00688338 -0.000219746 4.26145e-22 -0.00688338 -0.000219746 4.26145e-22 -0.0063866
-0.000197673 4.22911e-22 -0.0063866 -0.000197673 4.22911e-22 -0.00592419 -0.000186453 2.11087e-22 -0.00592419 -0.000186453
2.11087e-22 -0.00547821 -0.000193621 0 -0.00547821 -0.000193621 0 -0.00501751 -0.00021228 0
-0.00501751 -0.00021228 0 -0.00452903 -0.000220243 2.03393e-22 -0.00452903 -0.000220243 2.03393e-22 -0.00404723
-0.000202927 2.04283e-22 -0.00404723 -0.000202927 2.04283e-22 -0.00359186 -0.00019772 0 -0.00359186 -0.00019772
0 -0.0030171 -0.000294689 -1.98061e-22 -0.0030171 -0.000294689 -1.98061e-22 -0.00211568 -0.000497129 -1.98946e-22
-0.00211568 -0.000497129 -1.98946e-22 -0.000876327 -0.000640089 0 -0.000876327 -0.000640089 0 0.000524099
-0.000634393 -1.92557e-22 0.000524099 -0.000634393 -1.92557e-22 0.00187161 -0.000595103 -1.93434e-22 0.00187161 -0.000595103
-1.93434e-22 0.0030994 -0.000610227 0 0.0030994 -0.000610227 0 0.00420615 -0.000499641 1.8563e-22
0.00420615 -0.000499641 1.8563e-22 0.00472224 -2.307e-05 3.69867e-22 0.00472224 -2.307e-05 3.69867e-22 0.00419879
0.000481738 1.84232e-22 0.00419879 0.000481738 1.84232e-22 0.00340447 0.000383311 -1.79224e-22 0.00340447 0.000383311
-1.79224e-22 0.00331394 -0.000172097 -1.80072e-22 0.00331394 -0.000172097 -1.80072e-22 0.00363342 -0.000418935 1.75032e-22
0.00363342 -0.000418935 1.75032e-22 0.00327857 -3.73153e-06 1.75869e-22 0.00327857 -3.73153e-06 1.75869e-22 0.00174028
0.000615959 1.70842e-22 0.00174028 0.000615959 1.70842e-22 -0.000303829 0.000854824 3.39956e-22 -0.000303829 0.000854824
3.39956e-22 -0.00216817 0.000782884 1.69106e-22 -0.00216817 0.000782884 1.69106e-22 -0.00378663 0.000681659 0
-0.00378663 0.000681659 0 -0.0052271 0.000604664 0 -0.0052271 0.000604664 0 -0.00654903
0.000549993 0 -0.00654903 0.000549993 0 -0.00778265 0.000507053 0 -0.00778265 0.000507053
0 -0.00893479 0.00046483 0 -0.00893479 0.00046483 0 -0.00999226 0.000415566 0
-0.00999226 0.000415566 0 -0.0109298 0.000356034 1.44492e-22 -0.0109298 0.000356034 1.44492e-22 -0.0117177
0.00028673 3.40987e-24 -0.0117177 0.00028673 3.40987e-24 -0.0123296 0.00021028 -1.42544e-22 -0.0123296 0.00021028
-1.42544e-22 -0.0127463 0.000129522 0 -0.0127463 0.000129522 0 -0.0129548 4.86517e-05 0
-0.0129548 4.86517e-05 0 -0.0129522 -2.85805e-05 0 -0.0129522 -2.85805e-05 0 -0.0127435
-0.000100765 -2.64092e-22 -0.0127435 -0.000100765 -2.64092e-22 -0.0123327 -0.000167594 -2.65479e-22 -0.0123327 -0.000167594
-2.65479e-22 -0.011729 -0.000228894 2.59898e-22 -0.011729 -0.000228894 2.59898e-22 -0.0109476 -0.000283098 2.88841e-24
-0.0109476 -0.000283098 2.88841e-24 -0.0100091 -0.000328196 -2.59766e-22 -0.0100091 -0.000328196 -2.59766e-22 -0.00893895
-0.000362547 0 -0.00893895 -0.000362547 0 -0.00776652 -0.000385195 0 -0.00776652 -0.000385195
0 -0.00652382 -0.000395747 2.53769e-22 -0.00652382 -0.000395747 2.53769e-22 -0.00524313 -0.000394426 5.07612e-22
-0.00524313 -0.000394426 5.07612e-22 -0.00395661 -0.000381959 2.53842e-22 -0.00395661 -0.000381959 2.53842e-22 -0.00269595
-0.000359627 2.49221e-22 -0.00269595 -0.000359627 2.49221e-22 -0.00149085 -0.000329149 4.97838e-22 -0.00149085 -0.000329149
4.97838e-22 -0.000372113 -0.00029335 3.66627e-24 -0.000372113 -0.00029335 3.66627e-24 0.000638277 -0.000255221 -2.46307e-22
0.000638277 -0.000255221 -2.46307e-22 0.00153722 -0.000217638 0 0.00153722 -0.000217638 0 0.00232685
-0.000184214 -2.3661e-22 0.00232685 -0.000184214 -2.3661e-22 0.00301415 -0.000157684 -2.37942e-22 0.00301415 -0.000157684
-2.37942e-22 0.00361714 -0.000139272 0 0.00361714 -0.000139272 0 0.00415869 -0.000128759 0
0.00415869 -0.000128759 0 0.00466229 -0.000124849 0 0.00466229 -0.000124849 0 0.00514887
-0.0001259 2.21183e-22 0.00514887 -0.0001259 2.21183e-22 0.00563552 -0.000130682 4.40471e-22 0.00563552 -0.000130682
4.40471e-22 0.00613625 -0.000138156 2.19275e-22 0.00613625 -0.000138156 2.19275e-22 0.00666284 -0.000147656 2.11647e-22
0.00666284 -0.000147656 2.11647e-22 0.00722656 -0.000160281 2.12879e-22 0.00722656 -0.000160281 2.12879e-22 0.00784176
-0.00017589 0 0.00784176 -0.00017589 0 0.00852045 -0.000191915 2.01969e-22 0.00852045 -0.000191915
2.01969e-22 0.00926822 -0.000208693 2.03158e-22 0.00926822 -0.000208693 2.03158e-22 0.010093 -0.000223953 1.95326e-22
0.010093 -0.000223953 1.95326e-22 0.0109848 -0.000237894 1.96484e-22 0.0109848 -0.000237894 1.96484e-22 0.0119346
-0.000246026 0 0.0119346 -0.000246026 0 0.0129252 -0.000230894 1.84812e-22 0.0129252 -0.000230894
1.84812e-22 0.0138743 -0.000232228 1.8592e-22 0.0138743 -0.000232228 1.8592e-22 0.0148324 -0.000218779 1.77453e-22