# vtk DataFile Version 2.0
sampleSurface
ASCII
DATASET POLYDATA
POINTS 502 float
-0.0206 0 -0.0005 -0.0190172 0 -0.0005 -0.0190172 0 0.0005 -0.0206 0
0.0005 -0.0174976 0 -0.0005 -0.0174976 0 0.0005 -0.0160387 0 -0.0005
-0.0160387 0 0.0005 -0.0146381 0 -0.0005 -0.0146381 0 0.0005 -0.0132934
0 -0.0005 -0.0132934 0 0.0005 -0.0120025 0 -0.0005 -0.0120025 0
0.0005 -0.0107632 0 -0.0005 -0.0107632 0 0.0005 -0.00957337 0 -0.0005
-0.00957337 0 0.0005 -0.00843108 0 -0.0005 -0.00843108 0 0.0005 -0.00733443
0 -0.0005 -0.00733443 0 0.0005 -0.0062816 0 -0.0005 -0.0062816 0
0.0005 -0.00527083 0 -0.0005 -0.00527083 0 0.0005 -0.00430044 0 -0.0005
-0.00430044 0 0.0005 -0.00336883 0 -0.0005 -0.00336883 0 0.0005 -0.00247443
0 -0.0005 -0.00247443 0 0.0005 -0.00161577 0 -0.0005 -0.00161577 0
0.0005 -0.000791418 0 -0.0005 -0.000791418 0 0.0005 0 0 -0.0005
0 0 0.0005 0 -0.0254 -0.0005 0 -0.0254 0.0005 0
-0.0242711 0.0005 0 -0.0242711 -0.0005 0 -0.0231422 0.0005 0 -0.0231422
-0.0005 0 -0.0220133 0.0005 0 -0.0220133 -0.0005 0 -0.0208844 0.0005
0 -0.0208844 -0.0005 0 -0.0197556 0.0005 0 -0.0197556 -0.0005 0
-0.0186267 0.0005 0 -0.0186267 -0.0005 0 -0.0174978 0.0005 0 -0.0174978
-0.0005 0 -0.0163689 0.0005 0 -0.0163689 -0.0005 0 -0.01524 0.0005
0 -0.01524 -0.0005 0 -0.0141111 0.0005 0 -0.0141111 -0.0005 0
-0.0129822 0.0005 0 -0.0129822 -0.0005 0 -0.0118533 0.0005 0 -0.0118533
-0.0005 0 -0.0107244 0.0005 0 -0.0107244 -0.0005 0 -0.00959556 0.0005
0 -0.00959556 -0.0005 0 -0.00846667 0.0005 0 -0.00846667 -0.0005 0
-0.00726604 0.0005 0 -0.00726604 -0.0005 0 -0.00618989 0.0005 0 -0.00618989
-0.0005 0 -0.00522531 0.0005 0 -0.00522531 -0.0005 0 -0.00436073 0.0005
0 -0.00436073 -0.0005 0 -0.00358579 0.0005 0 -0.00358579 -0.0005 0
-0.00289118 0.0005 0 -0.00289118 -0.0005 0 -0.0022686 0.0005 0 -0.0022686
-0.0005 0 -0.00171055 0.0005 0 -0.00171055 -0.0005 0 -0.00121037 0.0005
0 -0.00121037 -0.0005 0 -0.000762037 0.0005 0 -0.000762037 -0.0005 0
-0.000360188 0.0005 0 -0.000360188 -0.0005 0.000528387 -0.0254 -0.0005 0.000528387 -0.0254
0.0005 0.00106088 -0.0254 -0.0005 0.00106088 -0.0254 0.0005 0.00159752 -0.0254 -0.0005
0.00159752 -0.0254 0.0005 0.00213833 -0.0254 -0.0005 0.00213833 -0.0254 0.0005 0.00268334
-0.0254 -0.0005 0.00268334 -0.0254 0.0005 0.00323259 -0.0254 -0.0005 0.00323259 -0.0254
0.0005 0.00378611 -0.0254 -0.0005 0.00378611 -0.0254 0.0005 0.00434393 -0.0254 -0.0005
0.00434393 -0.0254 0.0005 0.00490609 -0.0254 -0.0005 0.00490609 -0.0254 0.0005 0.00547262
-0.0254 -0.0005 0.00547262 -0.0254 0.0005 0.00604356 -0.0254 -0.0005 0.00604356 -0.0254
0.0005 0.00661893 -0.0254 -0.0005 0.00661893 -0.0254 0.0005 0.00719878 -0.0254 -0.0005
0.00719878 -0.0254 0.0005 0.00778313 -0.0254 -0.0005 0.00778313 -0.0254 0.0005 0.00837203
-0.0254 -0.0005 0.00837203 -0.0254 0.0005 0.00896551 -0.0254 -0.0005 0.00896551 -0.0254
0.0005 0.0095636 -0.0254 -0.0005 0.0095636 -0.0254 0.0005 0.0101663 -0.0254 -0.0005
0.0101663 -0.0254 0.0005 0.0107738 -0.0254 -0.0005 0.0107738 -0.0254 0.0005 0.0113859
-0.0254 -0.0005 0.0113859 -0.0254 0.0005 0.0120028 -0.0254 -0.0005 0.0120028 -0.0254
0.0005 0.0126245 -0.0254 -0.0005 0.0126245 -0.0254 0.0005 0.0132511 -0.0254 -0.0005
0.0132511 -0.0254 0.0005 0.0138825 -0.0254 -0.0005 0.0138825 -0.0254 0.0005 0.0145188
-0.0254 -0.0005 0.0145188 -0.0254 0.0005 0.0151601 -0.0254 -0.0005 0.0151601 -0.0254
0.0005 0.0158063 -0.0254 -0.0005 0.0158063 -0.0254 0.0005 0.0164576 -0.0254 -0.0005
0.0164576 -0.0254 0.0005 0.0171139 -0.0254 -0.0005 0.0171139 -0.0254 0.0005 0.0177754
-0.0254 -0.0005 0.0177754 -0.0254 0.0005 0.018442 -0.0254 -0.0005 0.018442 -0.0254
0.0005 0.0191137 -0.0254 -0.0005 0.0191137 -0.0254 0.0005 0.0197907 -0.0254 -0.0005
0.0197907 -0.0254 0.0005 0.020473 -0.0254 -0.0005 0.020473 -0.0254 0.0005 0.0211606
-0.0254 -0.0005 0.0211606 -0.0254 0.0005 0.0218535 -0.0254 -0.0005 0.0218535 -0.0254
0.0005 0.0225517 -0.0254 -0.0005 0.0225517 -0.0254 0.0005 0.0232555 -0.0254 -0.0005
0.0232555 -0.0254 0.0005 0.0239647 -0.0254 -0.0005 0.0239647 -0.0254 0.0005 0.0246794
-0.0254 -0.0005 0.0246794 -0.0254 0.0005 0.0253996 -0.0254 -0.0005 0.0253996 -0.0254
0.0005 0.0261255 -0.0254 -0.0005 0.0261255 -0.0254 0.0005 0.026857 -0.0254 -0.0005
0.026857 -0.0254 0.0005 0.0275942 -0.0254 -0.0005 0.0275942 -0.0254 0.0005 0.0283371
-0.0254 -0.0005 0.0283371 -0.0254 0.0005 0.0290858 -0.0254 -0.0005 0.0290858 -0.0254
0.0005 0.0298403 -0.0254 -0.0005 0.0298403 -0.0254 0.0005 0.0306007 -0.0254 -0.0005
0.0306007 -0.0254 0.0005 0.031367 -0.0254 -0.0005 0.031367 -0.0254 0.0005 0.0321393
-0.0254 -0.0005 0.0321393 -0.0254 0.0005 0.0329175 -0.0254 -0.0005 0.0329175 -0.0254
0.0005 0.0337019 -0.0254 -0.0005 0.0337019 -0.0254 0.0005 0.0344923 -0.0254 -0.0005
0.0344923 -0.0254 0.0005 0.0352888 -0.0254 -0.0005 0.0352888 -0.0254 0.0005 0.0360916
-0.0254 -0.0005 0.0360916 -0.0254 0.0005 0.0369006 -0.0254 -0.0005 0.0369006 -0.0254
0.0005 0.0377158 -0.0254 -0.0005 0.0377158 -0.0254 0.0005 0.0385375 -0.0254 -0.0005
0.0385375 -0.0254 0.0005 0.0393655 -0.0254 -0.0005 0.0393655 -0.0254 0.0005 0.0401999
-0.0254 -0.0005 0.0401999 -0.0254 0.0005 0.0410408 -0.0254 -0.0005 0.0410408 -0.0254
0.0005 0.0418883 -0.0254 -0.0005 0.0418883 -0.0254 0.0005 0.0427424 -0.0254 -0.0005
0.0427424 -0.0254 0.0005 0.0436031 -0.0254 -0.0005 0.0436031 -0.0254 0.0005 0.0444704
-0.0254 -0.0005 0.0444704 -0.0254 0.0005 0.0453446 -0.0254 -0.0005 0.0453446 -0.0254
0.0005 0.0462255 -0.0254 -0.0005 0.0462255 -0.0254 0.0005 0.0471133 -0.0254 -0.0005
0.0471133 -0.0254 0.0005 0.048008 -0.0254 -0.0005 0.048008 -0.0254 0.0005 0.0489096
-0.0254 -0.0005 0.0489096 -0.0254 0.0005 0.0498183 -0.0254 -0.0005 0.0498183 -0.0254
0.0005 0.050734 -0.0254 -0.0005 0.050734 -0.0254 0.0005 0.0516568 -0.0254 -0.0005
0.0516568 -0.0254 0.0005 0.0525868 -0.0254 -0.0005 0.0525868 -0.0254 0.0005 0.053524
-0.0254 -0.0005 0.053524 -0.0254 0.0005 0.0544686 -0.0254 -0.0005 0.0544686 -0.0254
0.0005 0.0554204 -0.0254 -0.0005 0.0554204 -0.0254 0.0005 0.0563797 -0.0254 -0.0005
0.0563797 -0.0254 0.0005 0.0573464 -0.0254 -0.0005 0.0573464 -0.0254 0.0005 0.0583206
-0.0254 -0.0005 0.0583206 -0.0254 0.0005 0.0593025 -0.0254 -0.0005 0.0593025 -0.0254
0.0005 0.0602919 -0.0254 -0.0005 0.0602919 -0.0254 0.0005 0.0612891 -0.0254 -0.0005
0.0612891 -0.0254 0.0005 0.0622939 -0.0254 -0.0005 0.0622939 -0.0254 0.0005 0.0633067
-0.0254 -0.0005 0.0633067 -0.0254 0.0005 0.0643272 -0.0254 -0.0005 0.0643272 -0.0254
0.0005 0.0653557 -0.0254 -0.0005 0.0653557 -0.0254 0.0005 0.0663923 -0.0254 -0.0005
0.0663923 -0.0254 0.0005 0.0674368 -0.0254 -0.0005 0.0674368 -0.0254 0.0005 0.0684895
-0.0254 -0.0005 0.0684895 -0.0254 0.0005 0.0695504 -0.0254 -0.0005 0.0695504 -0.0254
0.0005 0.0706195 -0.0254 -0.0005 0.0706195 -0.0254 0.0005 0.0716969 -0.0254 -0.0005
0.0716969 -0.0254 0.0005 0.0727828 -0.0254 -0.0005 0.0727828 -0.0254 0.0005 0.073877
-0.0254 -0.0005 0.073877 -0.0254 0.0005 0.0749798 -0.0254 -0.0005 0.0749798 -0.0254
0.0005 0.0760911 -0.0254 -0.0005 0.0760911 -0.0254 0.0005 0.0772111 -0.0254 -0.0005
0.0772111 -0.0254 0.0005 0.0783398 -0.0254 -0.0005 0.0783398 -0.0254 0.0005 0.0794772
-0.0254 -0.0005 0.0794772 -0.0254 0.0005 0.0806235 -0.0254 -0.0005 0.0806235 -0.0254
0.0005 0.0817787 -0.0254 -0.0005 0.0817787 -0.0254 0.0005 0.0829429 -0.0254 -0.0005
0.0829429 -0.0254 0.0005 0.0841162 -0.0254 -0.0005 0.0841162 -0.0254 0.0005 0.0852985
-0.0254 -0.0005 0.0852985 -0.0254 0.0005 0.0864901 -0.0254 -0.0005 0.0864901 -0.0254
0.0005 0.0876909 -0.0254 -0.0005 0.0876909 -0.0254 0.0005 0.0889011 -0.0254 -0.0005
0.0889011 -0.0254 0.0005 0.0901207 -0.0254 -0.0005 0.0901207 -0.0254 0.0005 0.0913497
-0.0254 -0.0005 0.0913497 -0.0254 0.0005 0.0925883 -0.0254 -0.0005 0.0925883 -0.0254
0.0005 0.0938366 -0.0254 -0.0005 0.0938366 -0.0254 0.0005 0.0950945 -0.0254 -0.0005
0.0950945 -0.0254 0.0005 0.0963622 -0.0254 -0.0005 0.0963622 -0.0254 0.0005 0.0976398
-0.0254 -0.0005 0.0976398 -0.0254 0.0005 0.0989273 -0.0254 -0.0005 0.0989273 -0.0254
0.0005 0.100225 -0.0254 -0.0005 0.100225 -0.0254 0.0005 0.101532 -0.0254 -0.0005
0.101532 -0.0254 0.0005 0.10285 -0.0254 -0.0005 0.10285 -0.0254 0.0005 0.104178
-0.0254 -0.0005 0.104178 -0.0254 0.0005 0.105517 -0.0254 -0.0005 0.105517 -0.0254
0.0005 0.106865 -0.0254 -0.0005 0.106865 -0.0254 0.0005 0.108225 -0.0254 -0.0005
0.108225 -0.0254 0.0005 0.109594 -0.0254 -0.0005 0.109594 -0.0254 0.0005 0.110975
-0.0254 -0.0005 0.110975 -0.0254 0.0005 0.112366 -0.0254 -0.0005 0.112366 -0.0254
0.0005 0.113768 -0.0254 -0.0005 0.113768 -0.0254 0.0005 0.115181 -0.0254 -0.0005
0.115181 -0.0254 0.0005 0.116605 -0.0254 -0.0005 0.116605 -0.0254 0.0005 0.11804
-0.0254 -0.0005 0.11804 -0.0254 0.0005 0.119486 -0.0254 -0.0005 0.119486 -0.0254
0.0005 0.120943 -0.0254 -0.0005 0.120943 -0.0254 0.0005 0.122412 -0.0254 -0.0005
0.122412 -0.0254 0.0005 0.123892 -0.0254 -0.0005 0.123892 -0.0254 0.0005 0.125384
-0.0254 -0.0005 0.125384 -0.0254 0.0005 0.126887 -0.0254 -0.0005 0.126887 -0.0254
0.0005 0.128402 -0.0254 -0.0005 0.128402 -0.0254 0.0005 0.129928 -0.0254 -0.0005
0.129928 -0.0254 0.0005 0.131467 -0.0254 -0.0005 0.131467 -0.0254 0.0005 0.133017
-0.0254 -0.0005 0.133017 -0.0254 0.0005 0.13458 -0.0254 -0.0005 0.13458 -0.0254
0.0005 0.136155 -0.0254 -0.0005 0.136155 -0.0254 0.0005 0.137742 -0.0254 -0.0005
0.137742 -0.0254 0.0005 0.139341 -0.0254 -0.0005 0.139341 -0.0254 0.0005 0.140953
-0.0254 -0.0005 0.140953 -0.0254 0.0005 0.142577 -0.0254 -0.0005 0.142577 -0.0254
0.0005 0.144214 -0.0254 -0.0005 0.144214 -0.0254 0.0005 0.145863 -0.0254 -0.0005
0.145863 -0.0254 0.0005 0.147526 -0.0254 -0.0005 0.147526 -0.0254 0.0005 0.149201
-0.0254 -0.0005 0.149201 -0.0254 0.0005 0.15089 -0.0254 -0.0005 0.15089 -0.0254
0.0005 0.152591 -0.0254 -0.0005 0.152591 -0.0254 0.0005 0.154306 -0.0254 -0.0005
0.154306 -0.0254 0.0005 0.156034 -0.0254 -0.0005 0.156034 -0.0254 0.0005 0.157775
-0.0254 -0.0005 0.157775 -0.0254 0.0005 0.159531 -0.0254 -0.0005 0.159531 -0.0254
0.0005 0.161299 -0.0254 -0.0005 0.161299 -0.0254 0.0005 0.163082 -0.0254 -0.0005
0.163082 -0.0254 0.0005 0.164878 -0.0254 -0.0005 0.164878 -0.0254 0.0005 0.166688
-0.0254 -0.0005 0.166688 -0.0254 0.0005 0.168513 -0.0254 -0.0005 0.168513 -0.0254
0.0005 0.170351 -0.0254 -0.0005 0.170351 -0.0254 0.0005 0.172204 -0.0254 -0.0005
0.172204 -0.0254 0.0005 0.174071 -0.0254 -0.0005 0.174071 -0.0254 0.0005 0.175953
-0.0254 -0.0005 0.175953 -0.0254 0.0005 0.177849 -0.0254 -0.0005 0.177849 -0.0254
0.0005 0.17976 -0.0254 -0.0005 0.17976 -0.0254 0.0005 0.181686 -0.0254 -0.0005
0.181686 -0.0254 0.0005 0.183627 -0.0254 -0.0005 0.183627 -0.0254 0.0005 0.185583
-0.0254 -0.0005 0.185583 -0.0254 0.0005 0.187555 -0.0254 -0.0005 0.187555 -0.0254
0.0005 0.189541 -0.0254 -0.0005 0.189541 -0.0254 0.0005 0.191543 -0.0254 -0.0005
0.191543 -0.0254 0.0005 0.193561 -0.0254 -0.0005 0.193561 -0.0254 0.0005 0.195594
-0.0254 -0.0005 0.195594 -0.0254 0.0005 0.197643 -0.0254 -0.0005 0.197643 -0.0254
0.0005 0.199708 -0.0254 -0.0005 0.199708 -0.0254 0.0005 0.201789 -0.0254 -0.0005
0.201789 -0.0254 0.0005 0.203886 -0.0254 -0.0005 0.203886 -0.0254 0.0005 0.206
-0.0254 -0.0005 0.206 -0.0254 0.0005 0.208047 -0.0251856 -0.0005 0.208047 -0.0251856
0.0005 0.210173 -0.0249628 -0.0005 0.210173 -0.0249628 0.0005 0.212382 -0.0247314 -0.0005
0.212382 -0.0247314 0.0005 0.214677 -0.024491 -0.0005 0.214677 -0.024491 0.0005 0.217061
-0.0242412 -0.0005 0.217061 -0.0242412 0.0005 0.219538 -0.0239817 -0.0005 0.219538 -0.0239817
0.0005 0.222112 -0.0237121 -0.0005 0.222112 -0.0237121 0.0005 0.224785 -0.023432 -0.0005
0.224785 -0.023432 0.0005 0.227563 -0.023141 -0.0005 0.227563 -0.023141 0.0005 0.230449
-0.0228387 -0.0005 0.230449 -0.0228387 0.0005 0.233447 -0.0225246 -0.0005 0.233447 -0.0225246
0.0005 0.236562 -0.0221983 -0.0005 0.236562 -0.0221983 0.0005 0.239797 -0.0218593 -0.0005
0.239797 -0.0218593 0.0005 0.243159 -0.0215071 -0.0005 0.243159 -0.0215071 0.0005 0.246652
-0.0211412 -0.0005 0.246652 -0.0211412 0.0005 0.250281 -0.0207611 -0.0005 0.250281 -0.0207611
0.0005 0.254051 -0.0203661 -0.0005 0.254051 -0.0203661 0.0005 0.257967 -0.0199558 -0.0005
0.257967 -0.0199558 0.0005 0.262036 -0.0195295 -0.0005 0.262036 -0.0195295 0.0005 0.266264
-0.0190867 -0.0005 0.266264 -0.0190867 0.0005 0.270655 -0.0186266 -0.0005 0.270655 -0.0186266
0.0005 0.275218 -0.0181486 -0.0005 0.275218 -0.0181486 0.0005 0.279959 -0.017652 -0.0005
0.279959 -0.017652 0.0005 0.284883 -0.017136 -0.0005 0.284883 -0.017136 0.0005 0.29
-0.0166 -0.0005 0.29 -0.0166 0.0005 
POLYGONS 250 1250
4 0 1 2 3 4 1 4 5 2 4
4 6 7 5 4 6 8 9 7 4
8 10 11 9 4 10 12 13 11 4
12 14 15 13 4 14 16 17 15 4
16 18 19 17 4 18 20 21 19 4
20 22 23 21 4 22 24 25 23 4
24 26 27 25 4 26 28 29 27 4
28 30 31 29 4 30 32 33 31 4
32 34 35 33 4 34 36 37 35 4
38 39 40 41 4 41 40 42 43 4
43 42 44 45 4 45 44 46 47 4
47 46 48 49 4 49 48 50 51 4
51 50 52 53 4 53 52 54 55 4
55 54 56 57 4 57 56 58 59 4
59 58 60 61 4 61 60 62 63 4
63 62 64 65 4 65 64 66 67 4
67 66 68 69 4 69 68 70 71 4
71 70 72 73 4 73 72 74 75 4
75 74 76 77 4 77 76 78 79 4
79 78 80 81 4 81 80 82 83 4
83 82 84 85 4 85 84 86 87 4
87 86 88 89 4 89 88 90 91 4
91 90 37 36 4 38 92 93 39 4
92 94 95 93 4 94 96 97 95 4
96 98 99 97 4 98 100 101 99 4
100 102 103 101 4 102 104 105 103 4
104 106 107 105 4 106 108 109 107 4
108 110 111 109 4 110 112 113 111 4
112 114 115 113 4 114 116 117 115 4
116 118 119 117 4 118 120 121 119 4
120 122 123 121 4 122 124 125 123 4
124 126 127 125 4 126 128 129 127 4
128 130 131 129 4 130 132 133 131 4
132 134 135 133 4 134 136 137 135 4
136 138 139 137 4 138 140 141 139 4
140 142 143 141 4 142 144 145 143 4
144 146 147 145 4 146 148 149 147 4
148 150 151 149 4 150 152 153 151 4
152 154 155 153 4 154 156 157 155 4
156 158 159 157 4 158 160 161 159 4
160 162 163 161 4 162 164 165 163 4
164 166 167 165 4 166 168 169 167 4
168 170 171 169 4 170 172 173 171 4
172 174 175 173 4 174 176 177 175 4
176 178 179 177 4 178 180 181 179 4
180 182 183 181 4 182 184 185 183 4
184 186 187 185 4 186 188 189 187 4
188 190 191 189 4 190 192 193 191 4
192 194 195 193 4 194 196 197 195 4
196 198 199 197 4 198 200 201 199 4
200 202 203 201 4 202 204 205 203 4
204 206 207 205 4 206 208 209 207 4
208 210 211 209 4 210 212 213 211 4
212 214 215 213 4 214 216 217 215 4
216 218 219 217 4 218 220 221 219 4
220 222 223 221 4 222 224 225 223 4
224 226 227 225 4 226 228 229 227 4
228 230 231 229 4 230 232 233 231 4
232 234 235 233 4 234 236 237 235 4
236 238 239 237 4 238 240 241 239 4
240 242 243 241 4 242 244 245 243 4
244 246 247 245 4 246 248 249 247 4
248 250 251 249 4 250 252 253 251 4
252 254 255 253 4 254 256 257 255 4
256 258 259 257 4 258 260 261 259 4
260 262 263 261 4 262 264 265 263 4
264 266 267 265 4 266 268 269 267 4
268 270 271 269 4 270 272 273 271 4
272 274 275 273 4 274 276 277 275 4
276 278 279 277 4 278 280 281 279 4
280 282 283 281 4 282 284 285 283 4
284 286 287 285 4 286 288 289 287 4
288 290 291 289 4 290 292 293 291 4
292 294 295 293 4 294 296 297 295 4
296 298 299 297 4 298 300 301 299 4
300 302 303 301 4 302 304 305 303 4
304 306 307 305 4 306 308 309 307 4
308 310 311 309 4 310 312 313 311 4
312 314 315 313 4 314 316 317 315 4
316 318 319 317 4 318 320 321 319 4
320 322 323 321 4 322 324 325 323 4
324 326 327 325 4 326 328 329 327 4
328 330 331 329 4 330 332 333 331 4
332 334 335 333 4 334 336 337 335 4
336 338 339 337 4 338 340 341 339 4
340 342 343 341 4 342 344 345 343 4
344 346 347 345 4 346 348 349 347 4
348 350 351 349 4 350 352 353 351 4
352 354 355 353 4 354 356 357 355 4
356 358 359 357 4 358 360 361 359 4
360 362 363 361 4 362 364 365 363 4
364 366 367 365 4 366 368 369 367 4
368 370 371 369 4 370 372 373 371 4
372 374 375 373 4 374 376 377 375 4
376 378 379 377 4 378 380 381 379 4
380 382 383 381 4 382 384 385 383 4
384 386 387 385 4 386 388 389 387 4
388 390 391 389 4 390 392 393 391 4
392 394 395 393 4 394 396 397 395 4
396 398 399 397 4 398 400 401 399 4
400 402 403 401 4 402 404 405 403 4
404 406 407 405 4 406 408 409 407 4
408 410 411 409 4 410 412 413 411 4
412 414 415 413 4 414 416 417 415 4
416 418 419 417 4 418 420 421 419 4
420 422 423 421 4 422 424 425 423 4
424 426 427 425 4 426 428 429 427 4
428 430 431 429 4 430 432 433 431 4
432 434 435 433 4 434 436 437 435 4
436 438 439 437 4 438 440 441 439 4
440 442 443 441 4 442 444 445 443 4
444 446 447 445 4 446 448 449 447 4
448 450 451 449 4 450 452 453 451 4
452 454 455 453 4 454 456 457 455 4
456 458 459 457 4 458 460 461 459 4
460 462 463 461 4 462 464 465 463 4
464 466 467 465 4 466 468 469 467 4
468 470 471 469 4 470 472 473 471 4
472 474 475 473 4 474 476 477 475 4
476 478 479 477 4 478 480 481 479 4
480 482 483 481 4 482 484 485 483 4
484 486 487 485 4 486 488 489 487 4
488 490 491 489 4 490 492 493 491 4
492 494 495 493 4 494 496 497 495 4
496 498 499 497 4 498 500 501 499 
POINT_DATA 502
FIELD attributes 1
U 3 502 float
3.21981 0.0174479 -0.0133846 1.61769 0.00882284 -0.00659595 1.61769 0.00882284 -0.00659595 3.21981 0.0174479
-0.0133846 0.0601351 0.00042311 0 0.0601351 0.00042311 0 0.0584202 0.000316992 0
0.0584202 0.000316992 0 0.0568062 0.000217602 0 0.0568062 0.000217602 0 0.0550052
0.000261843 0 0.0550052 0.000261843 0 0.0529356 0.000354778 0 0.0529356 0.000354778
0 0.0509385 0.000364063 0 0.0509385 0.000364063 0 0.0494725 0.00026279 0
0.0494725 0.00026279 0 0.0485891 0.000131207 0 0.0485891 0.000131207 0 0.0482652
2.49316e-05 0 0.0482652 2.49316e-05 0 0.0481344 1.95914e-05 0 0.0481344 1.95914e-05
0 0.0481752 3.31058e-05 0 0.0481752 3.31058e-05 0 0.0481617 0.000106011 0
0.0481617 0.000106011 0 0.0483442 2.30591e-05 0 0.0483442 2.30591e-05 0 0.0487797
-6.72155e-06 0 0.0487797 -6.72155e-06 0 0.0499384 -0.000375351 0 0.0499384 -0.000375351
0 0.0517352 -0.000585042 0 0.0517352 -0.000585042 0 0.0244966 0.000121625 0
0.0244966 0.000121625 0 -0.000751576 0.00135065 -2.85979e-23 -0.000751576 0.00135065 -2.85979e-23 -0.000407595
0.00433924 7.7687e-23 -0.000407595 0.00433924 7.7687e-23 0.00028045 0.00596149 9.15672e-23 0.00028045 0.00596149
9.15672e-23 0.00050436 0.00291919 -1.83133e-22 0.00050436 0.00291919 -1.83133e-22 -0.000136678 0.00156134 -6.08865e-23
-0.000136678 0.00156134 -6.08865e-23 0.000315331 0.000105332 1.21827e-22 0.000315331 0.000105332 1.21827e-22 0.00144904
-0.00606095 0 0.00144904 -0.00606095 0 0.000655652 -0.00966352 2.49162e-22 0.000655652 -0.00966352
2.49162e-22 -0.000670177 -0.00715071 -1.97234e-25 -0.000670177 -0.00715071 -1.97234e-25 -0.00113899 -0.00296525 -2.49359e-22
-0.00113899 -0.00296525 -2.49359e-22 -0.00142347 0.00270031 2.74125e-22 -0.00142347 0.00270031 2.74125e-22 -0.00174869
0.00986716 8.68166e-25 -0.00174869 0.00986716 8.68166e-25 -0.00187438 0.0178808 -2.73257e-22 -0.00187438 0.0178808
-2.73257e-22 -0.00167138 0.0257233 -3.69249e-22 -0.00167138 0.0257233 -3.69249e-22 -0.00117276 0.0325103 -8.92539e-25
-0.00117276 0.0325103 -8.92539e-25 -0.000575193 0.0371986 3.74886e-22 -0.000575193 0.0371986 3.74886e-22 8.80972e-05
0.0394103 0 8.80972e-05 0.0394103 0 0.000948724 0.0389598 0 0.000948724 0.0389598
0 0.00236479 0.0354263 0 0.00236479 0.0354263 0 0.00425336 0.0272645 0
0.00425336 0.0272645 0 0.00479721 0.0139878 0 0.00479721 0.0139878 0 0.00222133
0.00178694 0 0.00222133 0.00178694 0 -0.000657192 -0.00405722 0 -0.000657192 -0.00405722
0 -0.00175885 -0.00524197 0 -0.00175885 -0.00524197 0 -0.00394893 -0.00539784 0
-0.00394893 -0.00539784 0 -0.00654907 -0.000977672 0 -0.00654907 -0.000977672 0 -0.00303018
0.00207365 0 -0.00303018 0.00207365 0 -0.00127048 0.00106718 -7.84445e-26 -0.00127048 0.00106718
-7.84445e-26 -0.00214565 0.000596244 1.4257e-23 -0.00214565 0.000596244 1.4257e-23 -0.00278411 0.000206554 0
-0.00278411 0.000206554 0 -0.00311092 -0.000221558 0 -0.00311092 -0.000221558 0 -0.0029498
-0.00069032 -1.39e-23 -0.0029498 -0.00069032 -1.39e-23 -0.00235305 -0.00112154 -1.3925e-23 -0.00235305 -0.00112154
-1.3925e-23 -0.00140948 -0.00143084 0 -0.00140948 -0.00143084 0 -0.000192483 -0.0015968 0
-0.000192483 -0.0015968 0 0.00118117 -0.00163699 0 0.00118117 -0.00163699 0 0.0025774
-0.00158852 1.29272e-23 0.0025774 -0.00158852 1.29272e-23 0.00392183 -0.00147746 1.29519e-23 0.00392183 -0.00147746
1.29519e-23 0.0051865 -0.00133286 0 0.0051865 -0.00133286 0 0.00634229 -0.00117726 0
0.00634229 -0.00117726 0 0.00737825 -0.00102611 0 0.00737825 -0.00102611 0 0.00829781
-0.000886186 1.30576e-23 0.00829781 -0.000886186 1.30576e-23 0.00911034 -0.000760371 1.30839e-23 0.00911034 -0.000760371
1.30839e-23 0.00982628 -0.00064656 0 0.00982628 -0.00064656 0 0.0104527 -0.000542559 0
0.0104527 -0.000542559 0 0.0109974 -0.00044517 0 0.0109974 -0.00044517 0 0.0114603
-0.000349019 0 0.0114603 -0.000349019 0 0.0118438 -0.000253849 0 0.0118438 -0.000253849
0 0.0121411 -0.000149164 0 0.0121411 -0.000149164 0 0.0123447 -3.92729e-05 1.30834e-23
0.0123447 -3.92729e-05 1.30834e-23 0.0124487 9.21106e-05 1.30515e-25 0.0124487 9.21106e-05 1.30515e-25 0.012419
0.000241941 -1.65646e-25 0.012419 0.000241941 -1.65646e-25 0.0122498 0.000420281 2.55445e-23 0.0122498 0.000420281
2.55445e-23 0.0118698 0.000651633 1.26993e-23 0.0118698 0.000651633 1.26993e-23 0.0113037 0.000884228 0
0.0113037 0.000884228 0 0.0104472 0.00125084 -1.19395e-23 0.0104472 0.00125084 -1.19395e-23 0.00926954
0.00153218 -2.36432e-23 0.00926954 0.00153218 -2.36432e-23 0.00783831 0.00201142 -1.17034e-23 0.00783831 0.00201142
-1.17034e-23 0.00562544 0.00263254 0 0.00562544 0.00263254 0 0.00319315 0.00154643 -1.13307e-23
0.00319315 0.00154643 -1.13307e-23 0.00148249 -0.000101828 -1.13586e-23 0.00148249 -0.000101828 -1.13586e-23 0.000313861
5.35448e-07 0 0.000313861 5.35448e-07 0 -0.000594428 0.000695614 1.14156e-23 -0.000594428 0.000695614
1.14156e-23 -0.00160595 0.000869666 1.14446e-23 -0.00160595 0.000869666 1.14446e-23 -0.0027507 0.000722798 1.16664e-23
-0.0027507 0.000722798 1.16664e-23 -0.00356905 0.000319559 3.51e-23 -0.00356905 0.000319559 3.51e-23 -0.00369696
-0.000349573 2.34647e-23 -0.00369696 -0.000349573 2.34647e-23 -0.00302932 -0.00116643 0 -0.00302932 -0.00116643
0 -0.00150236 -0.00193 0 -0.00150236 -0.00193 0 0.000759469 -0.00230001 0
0.000759469 -0.00230001 0 0.00312908 -0.00212795 0 0.00312908 -0.00212795 0 0.00502257
-0.0014007 2.19321e-23 0.00502257 -0.0014007 2.19321e-23 0.00616149 -0.000727122 4.39653e-23 0.00616149 -0.000727122
4.39653e-23 0.0062444 -0.000355251 4.38032e-23 0.0062444 -0.000355251 4.38032e-23 0.00534775 0.000899141 2.18312e-23
0.00534775 0.000899141 2.18312e-23 0.00429953 0.00179163 -2.11594e-23 0.00429953 0.00179163 -2.11594e-23 0.00378799
0.000204751 -2.12207e-23 0.00378799 0.000204751 -2.12207e-23 0.00374997 -0.00184254 2.07797e-23 0.00374997 -0.00184254
2.07797e-23 0.00362875 -0.00148729 4.16155e-23 0.00362875 -0.00148729 4.16155e-23 0.00246737 0.000491356 2.08364e-23
0.00246737 0.000491356 2.08364e-23 0.000381318 0.00156082 0 0.000381318 0.00156082 0 -0.00168365
0.00146932 0 -0.00168365 0.00146932 0 -0.00362336 0.0012863 2.17129e-23 -0.00362336 0.0012863
2.17129e-23 -0.00570257 0.00134544 2.17801e-23 -0.00570257 0.00134544 2.17801e-23 -0.00811557 0.00167593 0
-0.00811557 0.00167593 0 -0.0109639 0.00212494 0 -0.0109639 0.00212494 0 -0.0141543
0.00242924 0 -0.0141543 0.00242924 0 -0.0174247 0.00244737 0 -0.0174247 0.00244737
0 -0.0204925 0.00223203 0 -0.0204925 0.00223203 0 -0.0231537 0.00187448 0
-0.0231537 0.00187448 0 -0.0252807 0.00143657 0 -0.0252807 0.00143657 0 -0.0268214
0.000991482 -2.97519e-23 -0.0268214 0.000991482 -2.97519e-23 -0.0278056 0.000601503 -2.98518e-23 -0.0278056 0.000601503
-2.98518e-23 -0.0283161 0.000288516 0 -0.0283161 0.000288516 0 -0.0284548 5.70438e-05 3.05936e-23
-0.0284548 5.70438e-05 3.05936e-23 -0.0283289 -9.94232e-05 6.11731e-23 -0.0283289 -9.94232e-05 6.11731e-23 -0.0280299
-0.000208632 3.058e-23 -0.0280299 -0.000208632 3.058e-23 -0.0275978 -0.000290111 -2.98354e-23 -0.0275978 -0.000290111
-2.98354e-23 -0.0270575 -0.000345777 -5.91903e-25 -0.0270575 -0.000345777 -5.91903e-25 -0.0264346 -0.000389686 2.94538e-23
-0.0264346 -0.000389686 2.94538e-23 -0.0257315 -0.000432389 -2.80849e-23 -0.0257315 -0.000432389 -2.80849e-23 -0.0249513
-0.000469348 -2.81868e-23 -0.0249513 -0.000469348 -2.81868e-23 -0.0241008 -0.000502651 0 -0.0241008 -0.000502651
0 -0.0231827 -0.000534994 2.56233e-23 -0.0231827 -0.000534994 2.56233e-23 -0.0222036 -0.000560948 2.57185e-23
-0.0222036 -0.000560948 2.57185e-23 -0.0211765 -0.000577091 -2.38003e-23 -0.0211765 -0.000577091 -2.38003e-23 -0.0201161
-0.000584466 -2.38903e-23 -0.0201161 -0.000584466 -2.38903e-23 -0.0190373 -0.000583391 2.20148e-23 -0.0190373 -0.000583391
2.20148e-23 -0.0179567 -0.000573423 4.32734e-23 -0.0179567 -0.000573423 4.32734e-23 -0.0168901 -0.00055538 4.16359e-23
-0.0168901 -0.00055538 4.16359e-23 -0.0158517 -0.000531085 5.97305e-23 -0.0158517 -0.000531085 5.97305e-23 -0.014853
-0.000502418 1.54151e-24 -0.014853 -0.000502418 1.54151e-24 -0.013903 -0.000470937 -3.8034e-23 -0.013903 -0.000470937
-3.8034e-23 -0.0130076 -0.000437882 0 -0.0130076 -0.000437882 0 -0.0121704 -0.000404233 0
-0.0121704 -0.000404233 0 -0.0113924 -0.000370718 -3.32621e-23 -0.0113924 -0.000370718 -3.32621e-23 -0.0106735
-0.000337848 -6.57059e-23 -0.0106735 -0.000337848 -6.57059e-23 -0.0100125 -0.000306038 -1.01777e-24 -0.0100125 -0.000306038
-1.01777e-24 -0.00940765 -0.000275741 3.15532e-23 -0.00940765 -0.000275741 3.15532e-23 -0.0088567 -0.000247401 -2.98401e-23
-0.0088567 -0.000247401 -2.98401e-23 -0.00835648 -0.000221402 -5.9098e-23 -0.00835648 -0.000221402 -5.9098e-23 -0.00790269
-0.000198177 -5.77305e-23 -0.00790269 -0.000198177 -5.77305e-23 -0.00748987 -0.0001783 -2.85959e-23 -0.00748987 -0.0001783
-2.85959e-23 -0.00711147 -0.000162438 0 -0.00711147 -0.000162438 0 -0.00675995 -0.000151043 0
-0.00675995 -0.000151043 0 -0.0064264 -0.000144126 -2.62273e-23 -0.0064264 -0.000144126 -2.62273e-23 -0.00610041
-0.000141731 -2.63421e-23 -0.00610041 -0.000141731 -2.63421e-23 -0.00577104 -0.000143961 0 -0.00577104 -0.000143961
0 -0.00542835 -0.000150289 2.47718e-23 -0.00542835 -0.000150289 2.47718e-23 -0.0050649 -0.000159481 2.48824e-23
-0.0050649 -0.000159481 2.48824e-23 -0.00467627 -0.000169974 0 -0.00467627 -0.000169974 0 -0.00426061
-0.000180248 2.33878e-23 -0.00426061 -0.000180248 2.33878e-23 -0.00381894 -0.000188996 2.34944e-23 -0.00381894 -0.000188996
2.34944e-23 -0.00335523 -0.00019521 0 -0.00335523 -0.00019521 0 -0.00287527 -0.000198537 -2.20877e-23
-0.00287527 -0.000198537 -2.20877e-23 -0.00238568 -0.000199112 -4.38732e-23 -0.00238568 -0.000199112 -4.38732e-23 -0.00189272
-0.000197379 -2.17842e-23 -0.00189272 -0.000197379 -2.17842e-23 -0.00140097 -0.000193975 2.09191e-23 -0.00140097 -0.000193975
2.09191e-23 -0.000913171 -0.000189749 2.10181e-23 -0.000913171 -0.000189749 2.10181e-23 -0.000429996 -0.000186032 -2.02039e-23
-0.000429996 -0.000186032 -2.02039e-23 5.05464e-05 -0.000183613 -2.03006e-23 5.05464e-05 -0.000183613 -2.03006e-23 0.000532115
-0.000182719 -1.9496e-23 0.000532115 -0.000182719 -1.9496e-23 0.00101908 -0.000183639 -3.87338e-23 0.00101908 -0.000183639
-3.87338e-23 0.00151597 -0.000186258 -1.92367e-23 0.00151597 -0.000186258 -1.92367e-23 0.00202673 -0.00019002 0
0.00202673 -0.00019002 0 0.00255392 -0.000194167 0 0.00255392 -0.000194167 0 0.00309812
-0.000197836 0 0.00309812 -0.000197836 0 0.00365764 -0.000200174 0 0.00365764 -0.000200174
0 0.00422866 -0.000200442 0 0.00422866 -0.000200442 0 0.00480542 -0.000198061 0
0.00480542 -0.000198061 0 0.00538077 -0.000192614 -1.65415e-23 0.00538077 -0.000192614 -1.65415e-23 0.00594655
-0.00018386 -3.41736e-25 0.00594655 -0.00018386 -3.41736e-25 0.00649419 -0.000171799 1.63674e-23 0.00649419 -0.000171799
1.63674e-23 0.00701519 -0.000156824 0 0.00701519 -0.000156824 0 0.00750183 -0.000139766 0
0.00750183 -0.000139766 0 0.0079478 -0.00012154 0 0.0079478 -0.00012154 0 0.00834844
-0.000102584 3.05068e-23 0.00834844 -0.000102584 3.05068e-23 0.00870075 -8.33595e-05 3.06671e-23 0.00870075 -8.33595e-05
3.06671e-23 0.00900473 -6.58734e-05 -2.9811e-23 0.00900473 -6.58734e-05 -2.9811e-23 0.00926589 -5.26733e-05 -5.06353e-25
0.00926589 -5.26733e-05 -5.06353e-25 0.00949387 -4.18879e-05 2.96199e-23 0.00949387 -4.18879e-05 2.96199e-23 0.00969391
-2.68089e-05 0 0.00969391 -2.68089e-05 0 0.00986143 -6.52294e-06 0 0.00986143 -6.52294e-06
0 0.00999219 8.1794e-06 -2.79672e-23 0.00999219 8.1794e-06 -2.79672e-23 0.010093 1.14054e-05 -5.56785e-23
0.010093 1.14054e-05 -5.56785e-23 0.010168 1.91807e-05 -2.77098e-23 0.010168 1.91807e-05 -2.77098e-23 0.0101983
5.35172e-05 -2.67049e-23 0.0101983 5.35172e-05 -2.67049e-23 0.010149 0.000114814 -5.31195e-23 0.010149 0.000114814
-5.31195e-23 0.00999606 0.000174544 -5.80444e-25 0.00999606 0.000174544 -5.80444e-25 0.00975026 0.000195802 2.5976e-23
0.00975026 0.000195802 2.5976e-23 0.00945542 0.000169998 0 0.00945542 0.000169998 0 0.0091559
0.00012736 2.45457e-23 0.0091559 0.00012736 2.45457e-23 0.0088691 0.000104101 2.46839e-23 0.0088691 0.000104101
2.46839e-23 0.00858864 0.000107379 0 0.00858864 0.000107379 0 0.00830831 0.00011583 0
0.00830831 0.00011583 0 0.00803983 0.000106197 0 0.00803983 0.000106197 0 0.00780784
7.34953e-05 -2.23942e-23 0.00780784 7.34953e-05 -2.23942e-23 0.007631 3.03193e-05 -4.44755e-23 0.007631 3.03193e-05
-4.44755e-23 0.00751011 -5.20973e-06 -2.20792e-23 0.00751011 -5.20973e-06 -2.20792e-23 0.0074305 -2.16539e-05 -2.10546e-23
0.0074305 -2.16539e-05 -2.10546e-23 0.00737146 -1.78209e-05 -2.11771e-23 0.00737146 -1.78209e-05 -2.11771e-23 0.00731355
6.01489e-07 0 0.00731355 6.01489e-07 0 0.00724026 2.69558e-05 -1.97414e-23 0.00724026 2.69558e-05
-1.97414e-23 0.00713642 5.74558e-05 -1.98576e-23 0.00713642 5.74558e-05 -1.98576e-23 0.00698895 8.84e-05 -1.89106e-23
0.00698895 8.84e-05 -1.89106e-23 0.00679297 0.000112275 -1.90228e-23 0.00679297 0.000112275 -1.90228e-23 0.00655872
0.000120432 0 0.00655872 0.000120432 0 0.00631089 0.000110474 -1.77266e-23 0.00631089 0.000110474
-1.77266e-23 0.00607768 8.85537e-05 -1.78329e-23 0.00607768 8.85537e-05 -1.78329e-23 0.00587852 6.43533e-05 -1.69355e-23
0.00587852 6.43533e-05 -1.69355e-23 0.00571834 4.50587e-05 -1.70378e-23 0.00571834 4.50587e-05 -1.70378e-23 0.00559106