/*--------------------------------*- C++ -*----------------------------------*\
  =========                 |
  \\      /  F ield         | OpenFOAM: The Open Source CFD Toolbox
   \\    /   O peration     | Website:  https://openfoam.org
    \\  /    A nd           | Version:  9
     \\/     M anipulation  |
\*---------------------------------------------------------------------------*/
FoamFile
{
    format      ascii;
    class       surfaceScalarField;
    location    "0.099";
    object      phi;
}
// * * * * * * * * * * * * * * * * * * * * * * * * * * * * * * * * * * * * * //

dimensions      [0 3 -1 0 0 0 0];

internalField   nonuniform List<scalar> 
24170
(
3.11936e-06
1.02277e-07
2.97258e-06
1.46787e-07
2.8422e-06
1.30376e-07
2.74955e-06
9.26556e-08
2.67095e-06
7.85914e-08
2.58352e-06
8.74329e-08
2.48459e-06
9.89269e-08
2.38874e-06
9.58526e-08
2.30966e-06
7.90799e-08
2.24991e-06
5.97553e-08
2.20199e-06
4.79205e-08
2.15339e-06
4.85985e-08
2.09424e-06
5.91513e-08
2.01743e-06
7.68022e-08
1.92864e-06
8.87961e-08
1.83669e-06
9.19528e-08
1.74067e-06
9.60184e-08
8.95676e-08
1.6511e-06
3.40154e-06
1.45292e-07
3.38222e-06
1.66109e-07
3.4062e-06
1.06398e-07
3.42648e-06
7.23679e-08
3.44048e-06
6.45991e-08
3.45501e-06
7.28971e-08
3.46883e-06
8.51115e-08
3.47535e-06
8.93253e-08
3.46963e-06
8.48013e-08
3.45083e-06
7.85539e-08
3.42184e-06
7.69173e-08
3.3876e-06
8.28319e-08
3.35284e-06
9.39115e-08
3.31927e-06
1.10372e-07
3.28512e-06
1.22952e-07
3.2529e-06
1.24168e-07
3.22089e-06
1.2803e-07
1.22507e-07
3.18795e-06
3.71049e-06
1.34593e-07
3.73032e-06
1.46281e-07
3.71134e-06
1.25374e-07
3.70828e-06
7.54285e-08
3.72175e-06
5.11349e-08
3.73847e-06
5.6177e-08
3.74925e-06
7.43269e-08
3.75082e-06
8.77559e-08
3.74428e-06
9.13437e-08
3.73219e-06
9.0643e-08
3.71764e-06
9.14623e-08
3.70367e-06
9.6809e-08
3.69244e-06
1.05133e-07
3.6864e-06
1.16417e-07
3.68407e-06
1.25281e-07
3.68227e-06
1.25968e-07
3.68355e-06
1.2675e-07
1.2413e-07
3.68193e-06
3.85115e-06
2.70428e-08
3.90326e-06
9.41674e-08
3.91264e-06
1.15995e-07
3.91516e-06
7.29067e-08
3.91918e-06
4.7117e-08
3.9292e-06
4.6154e-08
3.94067e-06
6.28628e-08
3.94486e-06
8.35677e-08
3.93724e-06
9.89642e-08
3.92028e-06
1.07598e-07
3.90067e-06
1.11075e-07
3.88524e-06
1.12232e-07
3.87792e-06
1.12456e-07
3.88027e-06
1.14066e-07
3.88992e-06
1.15629e-07
3.9027e-06
1.13197e-07
3.9177e-06
1.11741e-07
1.11545e-07
3.93029e-06
4.12728e-06
1.62484e-07
4.0984e-06
1.23044e-07
4.12477e-06
8.96298e-08
4.14434e-06
5.33335e-08
4.15772e-06
3.37345e-08
4.16489e-06
3.89855e-08
4.16602e-06
6.1735e-08
4.1613e-06
8.82817e-08
4.15247e-06
1.07794e-07
4.14383e-06
1.1624e-07
4.14017e-06
1.14732e-07
4.14464e-06
1.07769e-07
4.15713e-06
9.99616e-08
4.17593e-06
9.52635e-08
4.19813e-06
9.34318e-08
4.21944e-06
9.18846e-08
4.23905e-06
9.21347e-08
9.61457e-08
4.25445e-06
4.47138e-06
8.71442e-08
4.47279e-06
1.21636e-07
4.4591e-06
1.03317e-07
4.45913e-06
5.32995e-08
4.4754e-06
1.74676e-08
4.49962e-06
1.47646e-08
4.5174e-06
4.39574e-08
4.51797e-06
8.77098e-08
4.50348e-06
1.22285e-07
4.48388e-06
1.3584e-07
4.46833e-06
1.30278e-07
4.46065e-06
1.15457e-07
4.45965e-06
1.00954e-07
4.46252e-06
9.23943e-08
4.46721e-06
8.87448e-08
4.47174e-06
8.7353e-08
4.47726e-06
8.66196e-08
8.83562e-08
4.48505e-06
4.74043e-06
4.48188e-08
4.79094e-06
7.11294e-08
4.81986e-06
7.43943e-08
4.84374e-06
2.94216e-08
4.86342e-06
-2.21725e-09
4.87066e-06
7.52594e-09
4.85896e-06
5.56598e-08
4.83652e-06
1.10155e-07
4.81484e-06
1.4396e-07
4.80257e-06
1.48109e-07
4.80279e-06
1.30055e-07
4.81388e-06
1.04375e-07
4.83142e-06
8.34111e-08
4.85043e-06
7.33831e-08
4.86655e-06
7.26247e-08
4.877e-06
7.68999e-08
4.88139e-06
8.22298e-08
8.738e-08
4.88237e-06
5.19691e-06
-1.80949e-08
5.22402e-06
4.40183e-08
5.20977e-06
8.86464e-08
5.18275e-06
5.64435e-08
5.16642e-06
1.41125e-08
5.16001e-06
1.39343e-08
5.16224e-06
5.34285e-08
5.16882e-06
1.03575e-07
5.17773e-06
1.35047e-07
5.18803e-06
1.37813e-07
5.19924e-06
1.1885e-07
5.21126e-06
9.23552e-08
5.22408e-06
7.05874e-08
5.23722e-06
6.0245e-08
5.24859e-06
6.12518e-08
5.25663e-06
6.88574e-08
5.25956e-06
7.92977e-08
8.79804e-08
5.25896e-06
5.52709e-06
-1.26483e-07
5.54502e-06
2.60926e-08
5.54219e-06
9.14746e-08
5.53853e-06
6.01073e-08
5.54094e-06
1.17023e-08
5.55381e-06
1.05802e-09
5.57275e-06
3.44891e-08
5.59159e-06
8.47325e-08
5.60561e-06
1.2103e-07
5.61262e-06
1.30803e-07
5.61456e-06
1.16915e-07
5.61623e-06
9.06789e-08
5.62297e-06
6.38515e-08
5.63773e-06
4.54853e-08
5.65943e-06
3.95508e-08
5.68367e-06
4.46176e-08
5.70545e-06
5.75209e-08
7.36423e-08
5.71978e-06
5.81628e-06
-1.39579e-07
5.93591e-06
-9.35294e-08
6.02859e-06
-1.21425e-09
6.06252e-06
2.61848e-08
6.05161e-06
2.26109e-08
6.0252e-06
2.74643e-08
6.01076e-06
4.89258e-08
6.01267e-06
8.28299e-08
6.02035e-06
1.13349e-07
6.02363e-06
1.27519e-07
6.01769e-06
1.22853e-07
6.00372e-06
1.04656e-07
5.98655e-06
8.10209e-08
5.97167e-06
6.03655e-08
5.96356e-06
4.76637e-08
5.96285e-06
4.5326e-08
5.9694e-06
5.09712e-08
6.30107e-08
5.98003e-06
6.28149e-06
-1.18533e-07
6.26326e-06
-7.52992e-08
6.30976e-06
-4.77131e-08
6.36868e-06
-3.27419e-08
6.39368e-06
-2.38224e-09
6.39257e-06
2.85693e-08
6.38753e-06
5.39641e-08
6.39345e-06
7.69089e-08
6.40998e-06
9.6825e-08
6.42808e-06
1.09421e-07
6.43968e-06
1.11251e-07
6.44269e-06
1.01647e-07
6.44007e-06
8.36385e-08
6.43606e-06
6.43799e-08
6.43394e-06
4.97757e-08
6.43525e-06
4.40184e-08
6.44093e-06
4.52953e-08
5.26548e-08
6.45128e-06
5.75408e-06
-1.94263e-07
5.82422e-06
-1.45438e-07
5.83488e-06
-5.83711e-08
5.80291e-06
-7.71223e-10
5.76743e-06
3.30988e-08
5.75547e-06
4.05204e-08
5.76704e-06
4.24034e-08
5.7807e-06
6.3244e-08
5.78103e-06
9.6494e-08
5.76641e-06
1.24046e-07
5.74605e-06
1.31608e-07
5.73022e-06
1.17475e-07
5.72469e-06
8.91652e-08
5.73002e-06
5.90509e-08
5.74278e-06
3.70208e-08
5.75986e-06
2.69381e-08
5.77769e-06
2.74602e-08
3.44143e-08
5.79593e-06
6.98574e-06
-6.00281e-08
6.9116e-06
-7.13009e-08
6.89573e-06
-4.25046e-08
6.89565e-06
-6.92279e-10
6.91917e-06
9.57932e-09
6.96969e-06
-1.0001e-08
7.03671e-06
-2.46156e-08
7.09906e-06
8.96088e-10
7.145e-06
5.05502e-08
7.17142e-06
9.76324e-08
7.1835e-06
1.19524e-07
7.18795e-06
1.13025e-07
7.18916e-06
8.79623e-08
7.19032e-06
5.78825e-08
7.19381e-06
3.35327e-08
7.20139e-06
1.93648e-08
7.21369e-06
1.51511e-08
2.04837e-08
7.22763e-06
8.70082e-06
1.56617e-08
8.55562e-06
7.38928e-08
8.46107e-06
5.20446e-08
8.48819e-06
-2.78044e-08
8.55826e-06
-6.04998e-08
8.5978e-06
-4.95321e-08
8.60117e-06
-2.79885e-08
8.60514e-06
-3.07808e-09
8.62626e-06
2.94305e-08
8.66255e-06
6.13479e-08
8.69517e-06
8.68977e-08
8.70776e-06
1.00439e-07
8.69501e-06
1.00716e-07
8.66351e-06
8.93784e-08
8.62758e-06
6.94591e-08
8.59949e-06
4.74556e-08
8.58886e-06
2.57824e-08
1.23798e-08
8.59696e-06
1.04096e-05
7.5052e-08
1.03161e-05
1.67463e-07
1.03061e-05
6.20241e-08
1.02916e-05
-1.3334e-08
1.02696e-05
-3.84799e-08
1.02543e-05
-3.42693e-08
1.02448e-05
-1.84623e-08
1.02426e-05
-8.52596e-10
1.02557e-05
1.63708e-08
1.02802e-05
3.67988e-08
1.03098e-05
5.7319e-08
1.03385e-05
7.16771e-08
1.03637e-05
7.5534e-08
1.03852e-05
6.78536e-08
1.0405e-05
4.97251e-08
1.04258e-05
2.65994e-08
1.04494e-05
2.2302e-09
-1.65435e-08
1.04783e-05
1.2449e-05
2.01154e-08
1.26803e-05
-6.37641e-08
1.28559e-05
-1.13603e-07
1.28841e-05
-4.15642e-08
1.28154e-05
3.02975e-08
1.27247e-05
5.63647e-08
1.26617e-05
4.4604e-08
1.26419e-05
1.88871e-08
1.26585e-05
-2.49697e-10
1.26982e-05
-2.88754e-09
1.27477e-05
7.82435e-09
1.27964e-05
2.29988e-08
1.28366e-05
3.53165e-08
1.28643e-05
4.01453e-08
1.28782e-05
3.58284e-08
1.28803e-05
2.45491e-08
1.28718e-05
1.06938e-08
-1.33783e-09
1.28566e-05
1.51181e-05
3.59451e-08
1.5221e-05
-1.6665e-07
1.52929e-05
-1.85507e-07
1.53851e-05
-1.33838e-07
1.549e-05
-7.45447e-08
1.55578e-05
-1.14807e-08
1.55722e-05
3.0279e-08
1.55504e-05
4.05914e-08
1.55291e-05
2.11146e-08
1.55377e-05
-1.15226e-08
1.55835e-05
-3.79824e-08
1.56572e-05
-5.06523e-08
1.57408e-05
-4.83299e-08
1.58158e-05
-3.48023e-08
1.5868e-05
-1.64145e-08
1.58913e-05
1.28079e-09
1.58861e-05
1.58347e-08
2.72007e-08
1.58576e-05
1.89663e-05
6.54176e-08
1.88783e-05
-7.8628e-08
1.8783e-05
-9.02356e-08
1.86887e-05
-3.95773e-08
1.86172e-05
-2.96044e-09
1.8608e-05
-2.32439e-09
1.86655e-05
-2.72069e-08
1.87574e-05
-5.13667e-08
1.88444e-05
-6.58318e-08
1.8905e-05
-7.21271e-08
1.89392e-05
-7.21492e-08
1.89546e-05
-6.60741e-08
1.89623e-05
-5.60964e-08
1.8972e-05
-4.44651e-08
1.89887e-05
-3.31501e-08
1.90122e-05
-2.22259e-08
1.90405e-05
-1.23817e-08
-2.34394e-09
1.907e-05
2.35237e-05
1.36593e-08
2.35291e-05
-8.39852e-08
2.34631e-05
-2.42823e-08
2.33653e-05
5.8239e-08
2.32606e-05
1.01726e-07
2.31901e-05
6.81955e-08
2.3169e-05
-6.16804e-09
2.31852e-05
-6.75192e-08
2.3204e-05
-8.46252e-08
2.31967e-05
-6.48417e-08
2.31549e-05
-3.03704e-08
2.30901e-05
-1.27704e-09
2.30231e-05
1.09211e-08
2.29713e-05
7.29292e-09
2.29447e-05
-6.52242e-09
2.29441e-05
-2.16408e-08
2.29646e-05
-3.2839e-08
-3.66103e-08
2.29989e-05
1.69316e-05
-1.12276e-07
1.70378e-05
-1.90227e-07
1.71149e-05
-1.0141e-07
1.71606e-05
1.25383e-08
1.71964e-05
6.59275e-08
1.72069e-05
5.77269e-08
1.71784e-05
2.22976e-08
1.71145e-05
-3.5882e-09
1.70276e-05
2.30167e-09
1.69365e-05
2.6234e-08
1.68621e-05
4.40537e-08
1.6819e-05
4.17901e-08
1.68104e-05
1.94993e-08
1.68287e-05
-1.09529e-08
1.68604e-05
-3.82389e-08
1.68932e-05
-5.44373e-08
1.69176e-05
-5.71961e-08
-4.92133e-08
1.69302e-05
1.47897e-05
1.03401e-07
1.47177e-05
-1.18264e-07
1.46753e-05
-5.89121e-08
1.46458e-05
4.19646e-08
1.46487e-05
6.30747e-08
1.46691e-05
3.72735e-08
1.46873e-05
4.14174e-09
1.46951e-05
-1.14296e-08
1.47025e-05
-5.10295e-09
1.4719e-05
9.76165e-09
1.47477e-05
1.53645e-08
1.47841e-05
5.41591e-09
1.48215e-05
-1.79322e-08
1.48534e-05
-4.28726e-08
1.48763e-05
-6.11071e-08
1.48899e-05
-6.80664e-08
1.48963e-05
-6.3594e-08
-5.04257e-08
1.48975e-05
1.29044e-05
2.0379e-08
1.27829e-05
3.19436e-09
1.27421e-05
-1.81094e-08
1.28207e-05
-3.66144e-08
1.28998e-05
-1.60235e-08
1.2916e-05
2.11272e-08
1.28774e-05
4.27498e-08
1.28189e-05
4.70096e-08
1.27739e-05
3.98809e-08
1.27568e-05
2.6882e-08
1.27641e-05
8.03547e-09
1.27816e-05
-1.20345e-08
1.27969e-05
-3.32338e-08
1.28035e-05
-4.94402e-08
1.28003e-05
-5.7932e-08
1.27905e-05
-5.8273e-08
1.27788e-05
-5.18883e-08
-4.18424e-08
1.27702e-05
1.11863e-05
1.23954e-07
1.11125e-05
7.70439e-08
1.11702e-05
-7.58727e-08
1.12548e-05
-1.21183e-07
1.12994e-05
-6.06472e-08
1.13014e-05
1.91297e-08
1.12884e-05
5.5749e-08
1.12815e-05
5.39246e-08
1.12836e-05
3.77518e-08
1.12879e-05
2.26696e-08
1.12853e-05
1.05945e-08
1.12761e-05
-2.87823e-09
1.12626e-05
-1.96799e-08
1.12496e-05
-3.64445e-08
1.12419e-05
-5.01889e-08
1.12416e-05
-5.79931e-08
1.1248e-05
-5.8309e-08
-5.22514e-08
1.12584e-05
9.67943e-06
-2.69508e-07
9.7695e-06
-1.3027e-08
9.71867e-06
-2.5044e-08
9.65504e-06
-5.75497e-08
9.63763e-06
-4.32409e-08
9.68389e-06
-2.7123e-08
9.7674e-06
-2.77653e-08
9.85281e-06
-3.14823e-08
9.91111e-06
-2.05548e-08
9.92599e-06
7.79479e-09
9.89771e-06
3.88752e-08
9.84144e-06
5.33874e-08
9.77855e-06
4.32145e-08
9.7287e-06
1.34054e-08
9.70217e-06
-2.36625e-08
9.69982e-06
-5.56416e-08
9.71683e-06
-7.53186e-08
-7.97227e-08
9.7443e-06
8.44191e-06
-1.82273e-07
8.42414e-06
4.74247e-09
8.33062e-06
6.8478e-08
8.26045e-06
1.26222e-08
8.25368e-06
-3.64681e-08
8.28339e-06
-5.68342e-08
8.32383e-06
-6.82066e-08
8.36935e-06
-7.70065e-08
8.42252e-06
-7.37162e-08
8.48214e-06
-5.18272e-08
8.54027e-06
-1.92571e-08
8.58685e-06
6.80782e-09
8.61351e-06
1.65553e-08
8.61719e-06
9.72644e-09
8.60145e-06
-7.92578e-09
8.57399e-06
-2.81801e-08
8.54374e-06
-4.50651e-08
-5.43003e-08
8.51831e-06
7.28597e-06
-4.30786e-08
7.27164e-06
1.90735e-08
7.32385e-06
1.62677e-08
7.37883e-06
-4.23573e-08
7.40993e-06
-6.75669e-08
7.41488e-06
-6.17919e-08
7.40475e-06
-5.80701e-08
7.39213e-06
-6.43853e-08
7.38721e-06
-6.87952e-08
7.39883e-06
-6.34507e-08
7.43027e-06
-5.07028e-08
7.47481e-06
-3.77296e-08
7.52093e-06
-2.95665e-08
7.55724e-06
-2.65774e-08
7.57583e-06
-2.6514e-08
7.57462e-06
-2.69738e-08
7.55606e-06
-2.651e-08
-2.54018e-08
7.52717e-06
6.39877e-06
2.15673e-08
6.40387e-06
1.39742e-08
6.46483e-06
-4.46911e-08
6.52637e-06
-1.03899e-07
6.56319e-06
-1.04382e-07
6.57369e-06
-7.22928e-08
6.5592e-06
-4.35853e-08
6.52505e-06
-3.02296e-08
6.48652e-06
-3.02708e-08
6.46104e-06
-3.79712e-08
6.45697e-06
-4.66353e-08
6.47035e-06
-5.11078e-08
6.4906e-06
-4.98133e-08
6.5086e-06
-4.45743e-08
6.52016e-06
-3.80765e-08
6.52549e-06
-3.23087e-08
6.52713e-06
-2.8148e-08
-2.59401e-08
6.52767e-06
5.56686e-06
-7.7978e-09
5.59906e-06
-1.82185e-08
5.60846e-06
-5.40987e-08
5.60861e-06
-1.04047e-07
5.61512e-06
-1.1089e-07
5.62484e-06
-8.20158e-08
5.63513e-06
-5.38725e-08
5.64717e-06
-4.22669e-08
5.66005e-06
-4.31546e-08
5.67185e-06
-4.97717e-08
5.68206e-06
-5.68483e-08
5.6912e-06
-6.02482e-08
5.69925e-06
-5.78568e-08
5.70566e-06
-5.09853e-08
5.71018e-06
-4.25953e-08
5.71295e-06
-3.50825e-08
5.71406e-06
-2.92547e-08
-2.58666e-08
5.71398e-06
4.91242e-06
-1.09719e-07
4.95594e-06
-6.1732e-08
4.96322e-06
-6.13824e-08
4.91596e-06
-5.6787e-08
4.8546e-06
-4.95291e-08
4.82802e-06
-5.54319e-08
4.84858e-06
-7.4436e-08
4.89623e-06
-8.9922e-08
4.94113e-06
-8.80473e-08
4.96154e-06
-7.01842e-08
4.95243e-06
-4.77425e-08
4.92401e-06
-3.18196e-08
4.89279e-06
-2.66395e-08
4.87196e-06
-3.01569e-08
4.86653e-06
-3.71685e-08
4.87474e-06
-4.32896e-08
4.89132e-06
-4.58385e-08
-4.44559e-08
4.90991e-06
4.13214e-06
4.07041e-06
4.00902e-06
3.95224e-06
3.90271e-06
3.84728e-06
3.77284e-06
3.68292e-06
3.59487e-06
3.52469e-06
3.47694e-06
3.44512e-06
3.41848e-06
3.38833e-06
3.35116e-06
3.30787e-06
3.26203e-06
3.21757e-06
-1.36224e-07
1.36224e-07
-2.89532e-07
1.53307e-07
-4.08955e-07
1.19423e-07
-4.07075e-07
-1.87988e-09
-2.28217e-07
-1.78858e-07
1.24437e-07
-3.52654e-07
5.97426e-07
-4.72989e-07
1.13797e-06
-5.40545e-07
1.70323e-06
-5.65256e-07
2.26354e-06
-5.6031e-07
2.80202e-06
-5.3848e-07
3.31071e-06
-5.08688e-07
3.78695e-06
-4.76243e-07
4.23031e-06
-4.43365e-07
4.64086e-06
-4.10544e-07
5.01829e-06
-3.7743e-07
5.36154e-06
-3.43252e-07
5.66868e-06
-3.07137e-07
5.93662e-06
-2.67944e-07
6.16122e-06
-2.24599e-07
6.33712e-06
-1.75903e-07
6.45765e-06
-1.20531e-07
6.51625e-06
-5.85977e-08
6.50602e-06
1.02325e-08
6.41329e-06
9.27253e-08
6.23138e-06
1.81918e-07
5.95678e-06
2.74594e-07
5.58702e-06
3.69765e-07
5.1265e-06
4.6052e-07
4.58723e-06
5.39266e-07
3.98689e-06
6.0034e-07
3.36103e-06
6.25858e-07
2.73915e-06
6.21886e-07
2.14461e-06
5.94531e-07
1.58687e-06
5.57744e-07
1.07592e-06
5.10946e-07
6.62092e-07
4.13833e-07
3.57521e-07
3.0457e-07
1.77212e-07
1.80309e-07
7.76012e-08
9.96109e-08
-3.00406e-08
1.07642e-07
-3.26077e-08
2.56708e-09
1.07173e-08
-4.3325e-08
-1.12895e-07
1.23612e-07
-2.25715e-07
1.1282e-07
-1.38844e-07
-8.68714e-08
2.95827e-07
-4.3467e-07
9.69646e-07
-6.7382e-07
1.25708e-06
-2.87436e-07
1.2642e-06
-7.12277e-09
7.81365e-07
4.82839e-07
-2.11771e-07
9.93136e-07
-1.32417e-06
1.11239e-06
-2.4469e-06
1.12274e-06
-3.52144e-06
1.07454e-06
-4.52205e-06
1.00061e-06
-5.4322e-06
9.10147e-07
-6.24333e-06
8.11125e-07
-6.95793e-06
7.14601e-07
-7.58115e-06
6.2322e-07
-8.12131e-06
5.40157e-07
-8.58535e-06
4.64046e-07
-8.97995e-06
3.94603e-07
-9.31025e-06
3.30294e-07
-9.58108e-06
2.70833e-07
-9.79681e-06
2.15728e-07
-9.96195e-06
1.65145e-07
-1.00809e-05
1.1896e-07
-1.01581e-05
7.71737e-08
-1.01978e-05
3.96736e-08
-1.02032e-05
5.44077e-09
-1.0181e-05
-2.22274e-08
-1.0134e-05
-4.69437e-08
-1.00652e-05
-6.88493e-08
-9.97747e-06
-8.77083e-08
-9.87346e-06
-1.04013e-07
-9.7553e-06
-1.18162e-07
-9.62484e-06
-1.30459e-07
-9.48343e-06
-1.41414e-07
-9.33201e-06
-1.51416e-07
-9.17108e-06
-1.60929e-07
-9.00072e-06
-1.70355e-07
-8.82071e-06
-1.80015e-07
-8.63064e-06
-1.90068e-07
-8.43025e-06
-2.00395e-07
-8.21968e-06
-2.10568e-07
-7.99977e-06
-2.19906e-07
-7.77208e-06
-2.27687e-07
-7.53861e-06
-2.33472e-07
-7.30114e-06
-2.37472e-07
-7.06026e-06
-2.40875e-07
-6.81433e-06
-2.45937e-07
-6.55874e-06
-2.55591e-07
-6.2863e-06
-2.7244e-07
-5.98868e-06
-2.97612e-07
-5.6585e-06
-3.30187e-07
-5.29105e-06
-3.67443e-07
-4.88525e-06
-4.05806e-07
-4.44455e-06
-4.40701e-07
-3.97555e-06
-4.68993e-07
-3.48488e-06
-4.90672e-07
-2.97868e-06
-5.06199e-07
-2.46315e-06
-5.15532e-07
-1.94006e-06
-5.23092e-07
-1.41079e-06
-5.29265e-07
-9.16511e-07
-4.94282e-07
-4.86585e-07
-4.29927e-07
-7.48104e-08
-4.11774e-07
4.2726e-07
-5.02071e-07
1.11151e-06
-6.84251e-07
2.0218e-06
-9.10284e-07
3.118e-06
-1.09621e-06
4.04754e-06
-9.29535e-07
4.21237e-06
-1.64834e-07
3.53866e-06
6.73708e-07
2.78771e-06
7.50952e-07
2.55676e-06
2.30951e-07
2.66779e-06
-1.11033e-07
2.683e-06
-1.52057e-08
2.42658e-06
2.56415e-07
1.94187e-06
4.84713e-07
1.33615e-06
6.0572e-07
6.89333e-07
6.4682e-07
3.91144e-08
6.50218e-07
-5.9886e-07
6.37974e-07
-1.22647e-06
6.27606e-07
-1.84917e-06
6.227e-07
-2.474e-06
6.24832e-07
-3.10427e-06
6.30277e-07
-3.73756e-06
6.33288e-07
-4.36556e-06
6.28001e-07
-4.97486e-06
6.09295e-07
-5.54785e-06
5.72992e-07
-6.06378e-06
5.15928e-07
-6.50005e-06
4.36268e-07
-6.83397e-06
3.33918e-07
-7.04468e-06
2.10719e-07
-7.11436e-06
6.96704e-08
-7.0335e-06
-8.08583e-08
-6.80009e-06
-2.33404e-07
-6.41493e-06
-3.8516e-07
-5.88672e-06
-5.28212e-07
-5.23258e-06
-6.54144e-07
-4.47778e-06
-7.54799e-07
-3.65399e-06
-8.23793e-07
-2.79593e-06
-8.58061e-07
-1.93815e-06
-8.57775e-07
-1.11104e-06
-8.27109e-07
-3.40071e-07
-7.70971e-07
3.57027e-07
-6.97098e-07
9.72545e-07
-6.15518e-07
1.50084e-06
-5.28299e-07
1.94354e-06
-4.42696e-07
2.30768e-06
-3.64141e-07
2.60396e-06
-2.96279e-07
2.84388e-06
-2.3992e-07
3.03857e-06
-1.94696e-07
3.20026e-06
-1.6169e-07
3.33846e-06
-1.38192e-07
3.46136e-06
-1.22902e-07
3.58734e-06
-1.25982e-07
3.72525e-06
-1.37909e-07
3.87195e-06
-1.467e-07
4.06609e-06
-1.94139e-07
4.3234e-06
-2.57314e-07
4.6002e-06
-2.76797e-07
4.96863e-06
-3.68426e-07
5.44355e-06
-4.74927e-07
5.86613e-06
-4.22576e-07
6.38938e-06
-5.23255e-07
6.96963e-06
-5.80244e-07
7.19422e-06
-2.24588e-07
7.50421e-06
-3.09993e-07
7.6624e-06
-1.58191e-07
6.38967e-06
1.27273e-06
4.50218e-06
1.88749e-06
3.46364e-06
1.03855e-06
2.9159e-06
5.47736e-07
2.01661e-06
8.99292e-07
1.53915e-06
4.77456e-07
-3.30477e-09
1.39529e-07
-1.63703e-08
1.66373e-07
8.53767e-08
1.76763e-08
3.86165e-07
-3.02668e-07
8.42574e-07
-6.35266e-07
1.35935e-06
-8.69432e-07
1.87872e-06
-9.92358e-07
2.37355e-06
-1.03537e-06
2.83177e-06
-1.02348e-06
3.2536e-06
-9.82135e-07
3.6448e-06
-9.29685e-07
4.0124e-06
-8.76283e-07
4.36207e-06
-8.25921e-07
4.69744e-06
-7.78727e-07
5.01989e-06
-7.33001e-07
5.32903e-06
-6.8657e-07
5.62317e-06
-6.37391e-07
5.89963e-06
-5.8359e-07
6.15522e-06
-5.23536e-07
6.38598e-06
-4.55357e-07
6.58783e-06
-3.77756e-07
6.75691e-06
-2.89616e-07
6.88879e-06
-1.90474e-07
6.98072e-06
-8.16948e-08
7.03225e-06
4.11954e-08
7.03375e-06
1.80413e-07
6.97991e-06
3.28431e-07
6.86345e-06
4.86231e-07
6.6746e-06
6.4937e-07
6.40437e-06
8.09496e-07
6.04986e-06
9.54848e-07
5.60469e-06
1.07102e-06
5.08413e-06
1.14245e-06
4.51499e-06
1.16367e-06
3.93214e-06
1.1406e-06
3.38911e-06
1.05398e-06
2.85055e-06
9.52386e-07
2.31713e-06
8.37991e-07
1.8477e-06
6.49744e-07
1.42322e-06
5.2409e-07
1.11151e-06
4.19348e-07
8.9861e-07
2.1547e-07
7.78953e-07
7.63323e-08
7.96151e-07
1.06414e-07
7.83759e-07
1.25212e-07
8.42298e-07
-1.4541e-07
9.21015e-07
-5.13387e-07
3.80017e-07
-1.32822e-07
-6.81508e-07
7.74089e-07
-1.99121e-06
1.30258e-06
-3.08047e-06
1.5721e-06
-3.93791e-06
1.85058e-06
-4.73669e-06
1.91117e-06
-5.48894e-06
1.87499e-06
-6.17167e-06
1.75726e-06
-6.78218e-06
1.61113e-06
-7.32158e-06
1.44954e-06
-7.79956e-06
1.28911e-06
-8.22311e-06
1.13815e-06
-8.59764e-06
9.97752e-07
-8.92771e-06
8.70229e-07
-9.21674e-06
7.53078e-07
-9.46666e-06
6.44519e-07
-9.67889e-06
5.42527e-07
-9.85496e-06
4.46903e-07
-9.99633e-06
3.57093e-07
-1.01045e-05
2.73336e-07
-1.01809e-05
1.9534e-07
-1.02269e-05
1.23173e-07
-1.02442e-05
5.70146e-08
-1.02354e-05
-3.37939e-09
-1.02003e-05
-5.73686e-08
-1.01413e-05
-1.05952e-07
-1.00608e-05
-1.49303e-07
-9.9608e-06
-1.87727e-07
-9.84308e-06
-2.21726e-07
-9.70935e-06
-2.51894e-07
-9.56094e-06
-2.78876e-07
-9.39905e-06
-3.03303e-07
-9.22473e-06
-3.25737e-07
-9.03895e-06
-3.46708e-07
-8.84261e-06
-3.66694e-07
-8.6365e-06
-3.86119e-07
-8.42129e-06
-4.05282e-07
-8.19745e-06
-4.24238e-07
-7.96531e-06
-4.42711e-07
-7.72511e-06
-4.60104e-07
-7.47709e-06
-4.75707e-07
-7.22148e-06
-4.89079e-07
-6.95841e-06
-5.00539e-07
-6.68769e-06
-5.11604e-07
-6.40854e-06
-5.2508e-07
-6.11964e-06
-5.44492e-07
-5.81908e-06
-5.73007e-07
-5.50433e-06
-6.12363e-07
-5.1722e-06
-6.62309e-07
-4.81897e-06
-7.20673e-07
-4.44091e-06
-7.83871e-07
-4.03424e-06
-8.47366e-07
-3.59645e-06
-9.0679e-07
-3.12845e-06
-9.58666e-07
-2.63475e-06
-9.99898e-07
-2.12385e-06
-1.02644e-06
-1.61004e-06
-1.0369e-06
-1.096e-06
-1.0433e-06
-5.85679e-07
-1.00461e-06
-1.2316e-07
-8.92445e-07
3.03511e-07
-8.38445e-07
7.79893e-07
-9.78453e-07
1.42636e-06
-1.33072e-06
2.26668e-06
-1.75061e-06
3.17191e-06
-2.00144e-06
3.94258e-06
-1.7002e-06
4.29649e-06
-5.18742e-07
4.08903e-06
8.81165e-07
3.57909e-06
1.26089e-06
3.1888e-06
6.2124e-07
2.8584e-06
2.19363e-07
2.34609e-06
4.97106e-07
1.6413e-06
9.61204e-07
8.92622e-07
1.23339e-06
1.86827e-07
1.31151e-06
-4.64616e-07
1.29826e-06
-1.07711e-06
1.26271e-06
-1.66093e-06
1.2218e-06
-2.22443e-06
1.1911e-06
-2.7781e-06
1.17637e-06
-3.32897e-06
1.1757e-06
-3.87991e-06
1.18122e-06
-4.42872e-06
1.1821e-06
-4.9686e-06
1.16787e-06
-5.48848e-06
1.12918e-06
-5.97365e-06
1.05815e-06
-6.4065e-06
9.48787e-07
-6.76804e-06
7.97799e-07
-7.0391e-06
6.04985e-07
-7.20173e-06
3.73344e-07
-7.23895e-06
1.06887e-07
-7.13838e-06
-1.81425e-07
-6.88381e-06
-4.87974e-07
-6.47525e-06
-7.93716e-07
-5.92123e-06
-1.08223e-06
-5.23891e-06
-1.33647e-06
-4.45411e-06
-1.5396e-06
-3.59924e-06
-1.67866e-06
-2.71004e-06
-1.74726e-06
-1.82053e-06
-1.74728e-06
-9.61842e-07
-1.6858e-06
-1.58518e-07
-1.57429e-06
5.76325e-07
-1.43194e-06
1.22926e-06
-1.26845e-06
1.7964e-06
-1.09544e-06
2.27865e-06
-9.24951e-07
2.68133e-06
-7.66819e-07
3.01292e-06
-6.27862e-07
3.28491e-06
-5.11916e-07
3.5083e-06
-4.18088e-07
3.69171e-06
-3.45095e-07
3.84933e-06
-2.95817e-07
3.99308e-06
-2.66646e-07
4.12663e-06
-2.59534e-07
4.27351e-06
-2.8479e-07
4.45207e-06
-3.25257e-07
4.65162e-06
-3.9369e-07
4.9024e-06
-5.081e-07
5.22868e-06
-6.03072e-07
5.59538e-06
-7.35131e-07
6.03646e-06
-9.16005e-07
6.56929e-06
-9.55399e-07
7.06101e-06
-1.01498e-06
7.57682e-06
-1.09605e-06
8.12855e-06
-7.76318e-07
8.3128e-06
-4.94244e-07
8.4608e-06
-3.06197e-07
8.79278e-06
9.4075e-07
8.14075e-06
2.53952e-06
6.34725e-06
2.83205e-06
4.6809e-06
2.21408e-06
3.26536e-06
2.31484e-06
3.3939e-06
1.41061e-06
2.46551e-08
1.14874e-07
2.48411e-07
-5.73828e-08
7.70505e-07
-5.04418e-07
1.39306e-06
-9.25225e-07
1.94627e-06
-1.18847e-06
2.37856e-06
-1.30172e-06
2.69179e-06
-1.30559e-06
2.91041e-06
-1.25399e-06
3.07585e-06
-1.18892e-06
3.22568e-06
-1.13197e-06
3.38393e-06
-1.08794e-06
3.56367e-06
-1.05601e-06
3.76868e-06
-1.03093e-06
3.99651e-06
-1.00656e-06
4.24143e-06
-9.7792e-07
4.4964e-06
-9.41535e-07
4.75434e-06
-8.95333e-07
5.00873e-06
-8.37983e-07
5.25334e-06
-7.6814e-07
5.4822e-06
-6.84221e-07
5.6897e-06
-5.8525e-07
5.87135e-06
-4.71274e-07
6.02436e-06
-3.43482e-07
6.14794e-06
-2.05277e-07
6.24692e-06
-5.77779e-08
6.32964e-06
9.76942e-08
6.3913e-06
2.66767e-07
6.42686e-06
4.50671e-07
6.42524e-06
6.50987e-07
6.37303e-06
8.61709e-07
6.25588e-06
1.072e-06
6.05841e-06
1.2685e-06
5.77755e-06
1.42331e-06
5.41037e-06
1.53084e-06
4.97699e-06
1.57399e-06
4.4974e-06
1.53357e-06
3.97563e-06
1.47416e-06
3.46935e-06
1.34427e-06
2.9612e-06
1.15789e-06
2.45143e-06
1.03386e-06
2.02887e-06
8.4191e-07
1.57268e-06
6.71661e-07
1.12663e-06
5.2238e-07
8.21901e-07
4.11143e-07
6.60652e-07
2.86461e-07
6.11112e-07
-9.58702e-08
-1.82968e-07
2.80693e-07
-1.68699e-06
1.3712e-06
-2.82657e-06
1.91366e-06
-3.72124e-06
2.19724e-06
-4.5289e-06
2.37976e-06
-5.11313e-06
2.43481e-06
-5.58798e-06
2.38602e-06
-6.00279e-06
2.28981e-06
-6.39254e-06
2.14701e-06
-6.7692e-06
1.98778e-06
-7.14042e-06
1.82077e-06
-7.50685e-06
1.65553e-06
-7.86394e-06
1.49525e-06
-8.20554e-06
1.33935e-06
-8.52418e-06
1.18886e-06
-8.81373e-06
1.04263e-06
-9.07043e-06
9.01217e-07
-9.29206e-06
7.64157e-07
-9.47745e-06
6.32297e-07
-9.62631e-06
5.05951e-07
-9.73894e-06
3.85968e-07
-9.81653e-06
2.72922e-07
-9.86091e-06
1.67561e-07
-9.87387e-06
6.99661e-08
-9.8588e-06
-1.84468e-08
-9.81852e-06
-9.7646e-08
-9.75566e-06
-1.68818e-07
-9.67296e-06
-2.32001e-07
-9.57286e-06
-2.8782e-07
-9.45739e-06
-3.37202e-07
-9.32802e-06
-3.81259e-07
-9.1857e-06
-4.21197e-07
-9.03088e-06
-4.5813e-07
-8.86363e-06
-4.92987e-07
-8.68386e-06
-5.2647e-07
-8.49153e-06
-5.5903e-07
-8.28677e-06
-5.90877e-07
-8.0701e-06
-6.21951e-07
-7.84246e-06
-6.51882e-07
-7.60518e-06
-6.79989e-07
-7.35988e-06
-7.05407e-07
-7.10818e-06
-7.27401e-07
-6.85142e-06
-7.45842e-07
-6.59025e-06
-7.61708e-07
-6.32441e-06
-7.77448e-07
-6.05261e-06
-7.96873e-07
-5.77281e-06
-8.24291e-07
-5.48259e-06
-8.63232e-07
-5.17945e-06
-9.15498e-07
-4.86073e-06
-9.81031e-07
-4.52298e-06
-1.05843e-06
-4.16165e-06
-1.1452e-06
-3.77136e-06
-1.23765e-06
-3.3463e-06
-1.33185e-06
-2.88055e-06
-1.42441e-06
-2.3722e-06
-1.50825e-06
-1.8285e-06
-1.57014e-06
-1.26622e-06
-1.59917e-06
-7.0427e-07
-1.60525e-06
-1.18317e-07
-1.59056e-06
4.54696e-07
-1.46546e-06
9.19045e-07
-1.30279e-06
1.33047e-06
-1.38987e-06
1.83544e-06
-1.83569e-06
2.49897e-06
-2.41413e-06
3.2089e-06
-2.71138e-06
3.75771e-06
-2.24901e-06
3.98224e-06
-7.43272e-07
3.83276e-06
1.03064e-06
3.49513e-06
1.59853e-06
3.04947e-06
1.06691e-06
2.40196e-06
8.66872e-07
1.59088e-06
1.30819e-06
8.28597e-07
1.72348e-06
2.12641e-07
1.84935e-06
-3.08215e-07
1.83237e-06
-8.02643e-07
1.79269e-06
-1.28878e-06
1.74885e-06
-1.76997e-06
1.70299e-06
-2.24916e-06
1.67029e-06
-2.73308e-06
1.66029e-06
-3.22834e-06
1.67096e-06
-3.73899e-06
1.69187e-06
-4.26416e-06
1.70728e-06
-4.79736e-06
1.70107e-06
-5.32638e-06
1.6582e-06
-5.83379e-06
1.56557e-06
-6.29815e-06
1.41315e-06
-6.69533e-06
1.19498e-06
-7.00048e-06
9.10138e-07
-7.19003e-06
5.62891e-07
-7.24927e-06
1.66131e-07
-7.15189e-06
-2.78813e-07
-6.89562e-06
-7.44237e-07
-6.47981e-06
-1.20953e-06
-5.91102e-06
-1.65102e-06
-5.20682e-06
-2.04066e-06
-4.39496e-06
-2.35146e-06
-3.51111e-06
-2.56251e-06
-2.59487e-06
-2.6635e-06
-1.68442e-06
-2.65772e-06
-8.13467e-07
-2.55676e-06
-1.14575e-08
-2.3763e-06
7.21365e-07
-2.16476e-06
1.36318e-06
-1.91026e-06
1.9165e-06
-1.64876e-06
2.38624e-06
-1.39469e-06
2.78085e-06
-1.16143e-06
3.11104e-06
-9.58052e-07
3.38774e-06
-7.88617e-07
3.62212e-06
-6.52468e-07
3.82495e-06
-5.47924e-07
4.00545e-06
-4.76318e-07
4.17564e-06
-4.36834e-07
4.34839e-06
-4.32281e-07
4.53085e-06
-4.67248e-07
4.73206e-06
-5.26476e-07
4.9626e-06
-6.24226e-07
5.22679e-06
-7.72295e-07
5.5381e-06
-9.14378e-07
5.91083e-06
-1.10786e-06
6.33332e-06
-1.3385e-06
6.8201e-06
-1.44218e-06
7.36481e-06
-1.55969e-06
7.85624e-06
-1.58747e-06
8.36661e-06
-1.28669e-06
8.79899e-06
-9.26626e-07
8.8691e-06
-3.76302e-07
9.10877e-06
7.01077e-07
9.39279e-06
2.25549e-06
8.4688e-06
3.75605e-06
6.44903e-06
4.23385e-06
4.48101e-06
4.28285e-06
5.22057e-06
2.65435e-06
1.09552e-07
5.32198e-09
7.65866e-07
-7.13696e-07
1.49101e-06
-1.22956e-06
1.99363e-06
-1.42784e-06
2.23848e-06
-1.43332e-06
2.29244e-06
-1.35569e-06
2.25868e-06
-1.27182e-06
2.23186e-06
-1.22717e-06
2.26474e-06
-1.22181e-06
2.37283e-06
-1.24006e-06
2.55153e-06
-1.26663e-06
2.78575e-06
-1.29024e-06
3.05804e-06
-1.30322e-06
3.35244e-06
-1.30096e-06
3.65566e-06
-1.28113e-06
3.95654e-06
-1.24242e-06
4.24505e-06
-1.18385e-06
4.51221e-06
-1.10514e-06
4.7497e-06
-1.00563e-06
4.95059e-06
-8.85114e-07
5.11049e-06
-7.45148e-07
5.22711e-06
-5.8789e-07
5.30178e-06
-4.18153e-07
5.34129e-06
-2.44792e-07
5.35851e-06
-7.49955e-08
5.37223e-06
8.39691e-08
5.39979e-06
2.39215e-07
5.44459e-06
4.0587e-07
5.50203e-06
5.93547e-07
5.55674e-06
8.07e-07
5.58259e-06
1.04615e-06
5.55897e-06
1.29211e-06
5.4686e-06
1.51368e-06
5.29763e-06
1.70182e-06
5.03987e-06
1.83175e-06
4.70081e-06
1.87263e-06
4.32504e-06
1.84993e-06
3.89315e-06
1.77616e-06
3.39678e-06
1.65426e-06
2.92719e-06
1.50345e-06
2.42916e-06
1.33994e-06
1.92068e-06
1.18014e-06
1.43293e-06
1.01013e-06
1.0211e-06
8.22968e-07
7.83699e-07
5.23867e-07
-4.7788e-08
7.35617e-07
-1.53044e-06
1.76335e-06
-2.68855e-06
2.52932e-06
-3.52193e-06
2.74704e-06
-4.18616e-06
2.86147e-06
-4.71581e-06
2.90941e-06
-5.14365e-06
2.86265e-06
-5.53375e-06
2.77613e-06
-5.90352e-06
2.65957e-06
-6.27743e-06
2.52092e-06
-6.65731e-06
2.36766e-06
-7.04106e-06
2.20452e-06
-7.41886e-06
2.03333e-06
-7.7803e-06
1.85669e-06
-8.11696e-06
1.67601e-06
-8.42253e-06
1.49443e-06
-8.69309e-06
1.31319e-06
-8.92647e-06
1.1346e-06
-9.12216e-06
9.59845e-07
-9.28038e-06
7.90514e-07
-9.40216e-06
6.27737e-07
-9.48906e-06
4.72869e-07
-9.54284e-06
3.267e-07
-9.56534e-06
1.90056e-07
-9.55828e-06
6.2915e-08
-9.5261e-06
-5.06277e-08
-9.4706e-06
-1.53149e-07
-9.39424e-06
-2.45183e-07
-9.3e-06
-3.26234e-07
-9.1905e-06
-3.97326e-07
-9.06789e-06
-4.59805e-07
-8.93383e-06
-5.15319e-07
-8.78934e-06
-5.65686e-07
-8.63479e-06
-6.12684e-07
-8.46992e-06
-6.57859e-07
-8.29402e-06
-7.02369e-07
-8.10621e-06
-7.46838e-07
-7.90581e-06
-7.91279e-07
-7.69273e-06
-8.35031e-07
-7.46781e-06
-8.76805e-07
-7.23288e-06
-9.14914e-07
-6.99057e-06
-9.47718e-07
-6.74375e-06
-9.74219e-07
-6.49487e-06
-9.94728e-07
-6.24521e-06
-1.01136e-06
-5.99447e-06
-1.02819e-06
-5.74059e-06
-1.05075e-06
-5.48006e-06
-1.08483e-06
-5.20859e-06
-1.1347e-06
-4.92207e-06
-1.20202e-06
-4.61703e-06
-1.28607e-06
-4.29071e-06
-1.38475e-06
-3.94108e-06
-1.49483e-06
-3.56728e-06
-1.61145e-06
-3.16918e-06
-1.72996e-06
-2.74627e-06
-1.84732e-06
-2.2968e-06
-1.95772e-06
-1.81726e-06
-2.04968e-06
-1.29988e-06
-2.11655e-06
-7.62388e-07
-2.14275e-06
-1.75153e-07
-2.17779e-06
4.9748e-07
-2.13809e-06
1.11277e-06
-1.91808e-06
1.58043e-06
-1.85753e-06
2.01632e-06
-2.27158e-06
2.53775e-06
-2.93556e-06
3.09337e-06
-3.26701e-06
3.52189e-06
-2.67753e-06
3.70643e-06
-9.27816e-07
3.66342e-06
1.07366e-06
3.42096e-06
1.84098e-06
2.85894e-06
1.62893e-06
2.01139e-06
1.71442e-06
1.16442e-06
2.15516e-06
5.3851e-07
2.34939e-06
8.62942e-08
2.30157e-06
-3.27644e-07
2.24631e-06
-7.58236e-07
2.22328e-06
-1.19194e-06