/*--------------------------------*- C++ -*----------------------------------*\
  =========                 |
  \\      /  F ield         | OpenFOAM: The Open Source CFD Toolbox
   \\    /   O peration     | Website:  https://openfoam.org
    \\  /    A nd           | Version:  9
     \\/     M anipulation  |
\*---------------------------------------------------------------------------*/
FoamFile
{
    format      ascii;
    class       surfaceScalarField;
    location    "0.099";
    object      phi_0;
}
// * * * * * * * * * * * * * * * * * * * * * * * * * * * * * * * * * * * * * //

dimensions      [0 3 -1 0 0 0 0];

internalField   nonuniform List<scalar> 
24170
(
3.11877e-06
6.5684e-08
2.97078e-06
1.47994e-07
2.84119e-06
1.29587e-07
2.74907e-06
9.2123e-08
2.66986e-06
7.92151e-08
2.58117e-06
8.86835e-08
2.4814e-06
9.9776e-08
2.38558e-06
9.58159e-08
2.3071e-06
7.84826e-08
2.2479e-06
5.91982e-08
2.20003e-06
4.78718e-08
2.15084e-06
4.91873e-08
2.09058e-06
6.02629e-08
2.01255e-06
7.80319e-08
1.92296e-06
8.95838e-08
1.83039e-06
9.25738e-08
1.73384e-06
9.65513e-08
9.09565e-08
1.64288e-06
3.39879e-06
1.69543e-07
3.38248e-06
1.64301e-07
3.40723e-06
1.04844e-07
3.42669e-06
7.2657e-08
3.44015e-06
6.5757e-08
3.45454e-06
7.42936e-08
3.46797e-06
8.63436e-08
3.47362e-06
9.01678e-08
3.46669e-06
8.5414e-08
3.44669e-06
7.91936e-08
3.41682e-06
7.77447e-08
3.38218e-06
8.38255e-08
3.34736e-06
9.50855e-08
3.31379e-06
1.11606e-07
3.27964e-06
1.23732e-07
3.24739e-06
1.24822e-07
3.21489e-06
1.29055e-07
1.24718e-07
3.18112e-06
3.7129e-06
1.08166e-07
3.73075e-06
1.46448e-07
3.71e-06
1.25601e-07
3.70735e-06
7.53065e-08
3.72093e-06
5.21774e-08
3.73698e-06
5.82469e-08
3.74665e-06
7.66648e-08
3.74714e-06
8.96816e-08
3.73978e-06
9.27698e-08
3.72718e-06
9.17958e-08
3.71238e-06
9.25447e-08
3.69833e-06
9.78749e-08
3.68721e-06
1.0621e-07
3.68132e-06
1.17496e-07
3.67896e-06
1.26095e-07
3.67698e-06
1.26799e-07
3.67791e-06
1.28119e-07
1.26994e-07
3.67564e-06
3.85903e-06
-8.64994e-09
3.90523e-06
1.00241e-07
3.91233e-06
1.18504e-07
3.91378e-06
7.38545e-08
3.91738e-06
4.85814e-08
3.92713e-06
4.84958e-08
3.9379e-06
6.58893e-08
3.94093e-06
8.66509e-08
3.93213e-06
1.01576e-07
3.91442e-06
1.09503e-07
3.89467e-06
1.12298e-07
3.87959e-06
1.12953e-07
3.87285e-06
1.12948e-07
3.87576e-06
1.14584e-07
3.8857e-06
1.1616e-07
3.89848e-06
1.14017e-07
3.9132e-06
1.13401e-07
1.14751e-07
3.92544e-06
4.12407e-06
1.85418e-07
4.09953e-06
1.24779e-07
4.1255e-06
9.25424e-08
4.14382e-06
5.55306e-08
4.15606e-06
3.63465e-08
4.1621e-06
4.24557e-08
4.16227e-06
6.57176e-08
4.15677e-06
9.21479e-08
4.14752e-06
1.10828e-07
4.13894e-06
1.18084e-07
4.13575e-06
1.15485e-07
4.14084e-06
1.07867e-07
4.15385e-06
9.99331e-08
4.17293e-06
9.55046e-08
4.19504e-06
9.40463e-08
4.21599e-06
9.30674e-08
4.23511e-06
9.42837e-08
9.97157e-08
4.25015e-06
4.4784e-06
1.14639e-07
4.47287e-06
1.30306e-07
4.45795e-06
1.07461e-07
4.45797e-06
5.55159e-08
4.47434e-06
1.99805e-08
4.49803e-06
1.87631e-08
4.51438e-06
4.93656e-08
4.51325e-06
9.32758e-08
4.49761e-06
1.26472e-07
4.47773e-06
1.37957e-07
4.46252e-06
1.307e-07
4.45527e-06
1.15118e-07
4.45448e-06
1.00718e-07
4.45729e-06
9.26936e-08
4.46175e-06
8.95913e-08
4.46607e-06
8.87455e-08
4.47162e-06
8.87351e-08
9.14862e-08
4.47985e-06
4.7465e-06
7.11864e-08
4.7939e-06
8.2907e-08
4.8206e-06
8.07655e-08
4.84334e-06
3.27698e-08
4.86168e-06
1.63714e-09
4.86689e-06
1.35529e-08
4.85336e-06
6.28981e-08
4.83007e-06
1.16571e-07
4.80857e-06
1.4797e-07
4.79711e-06
1.49418e-07
4.79826e-06
1.29544e-07
4.81002e-06
1.03365e-07
4.82776e-06
8.29691e-08
4.84649e-06
7.39695e-08
4.86193e-06
7.41481e-08
4.87155e-06
7.91292e-08
4.8753e-06
8.49807e-08
9.06548e-08
4.87613e-06
5.20236e-06
1.00275e-08
5.22448e-06
6.07926e-08
5.20708e-06
9.81566e-08
5.17887e-06
6.09861e-08
5.16232e-06
1.81852e-08
5.15582e-06
2.00534e-08
5.15807e-06
6.06519e-08
5.16463e-06
1.10003e-07
5.17353e-06
1.39073e-07
5.18376e-06
1.39185e-07
5.19486e-06
1.1845e-07
5.20675e-06
9.14748e-08
5.21941e-06
7.03083e-08
5.23225e-06
6.11304e-08
5.24313e-06
6.32687e-08
5.25055e-06
7.17109e-08
5.2529e-06
8.26263e-08
9.15033e-08
5.25205e-06
5.53158e-06
-1.03832e-07
5.54492e-06
4.74532e-08
5.5401e-06
1.02976e-07
5.53572e-06
6.53621e-08
5.53793e-06
1.59774e-08
5.5508e-06
7.18656e-09
5.56949e-06
4.1961e-08
5.5878e-06
9.16969e-08
5.60104e-06
1.25831e-07
5.60725e-06
1.32974e-07
5.60869e-06
1.17007e-07
5.6104e-06
8.97688e-08
5.61764e-06
6.30685e-08
5.63307e-06
4.57017e-08
5.6552e-06
4.11306e-08
5.6794e-06
4.75109e-08
5.70062e-06
6.14154e-08
7.80515e-08
5.71407e-06
5.82035e-06
-1.57492e-07
5.94323e-06
-7.54224e-08
6.03115e-06
1.50526e-08
6.05996e-06
3.655e-08
6.04582e-06
3.01172e-08
6.0186e-06
3.44082e-08
6.00485e-06
5.57138e-08
6.00732e-06
8.92218e-08
6.01476e-06
1.18391e-07
6.01713e-06
1.30604e-07
6.01009e-06
1.24051e-07
5.99528e-06
1.04577e-07
5.9778e-06
8.05452e-08
5.96316e-06
6.03426e-08
5.95564e-06
4.8655e-08
5.95564e-06
4.75102e-08
5.96283e-06
5.42229e-08
6.69549e-08
5.97393e-06
6.28423e-06
-5.99084e-08
6.2634e-06
-5.45946e-08
6.31062e-06
-3.21653e-08
6.36759e-06
-2.04246e-08
6.38952e-06
8.19329e-09
6.38673e-06
3.71938e-08
6.38157e-06
6.08744e-08
6.38808e-06
8.27116e-08
6.40489e-06
1.0158e-07
6.42253e-06
1.12961e-07
6.43321e-06
1.13376e-07
6.43534e-06
1.02446e-07
6.43221e-06
8.36787e-08
6.42808e-06
6.4473e-08
6.42615e-06
5.05787e-08
6.42786e-06
4.58043e-08
6.43412e-06
4.79639e-08
5.58584e-08
6.44521e-06
5.76461e-06
-1.48283e-07
5.82697e-06
-1.16956e-07
5.83148e-06
-3.66713e-08
5.79627e-06
1.47896e-08
5.76078e-06
4.36812e-08
5.75028e-06
4.76896e-08
5.76256e-06
4.85955e-08
5.77543e-06
6.98415e-08
5.77424e-06
1.02767e-07
5.75843e-06
1.28771e-07
5.73782e-06
1.33993e-07
5.72255e-06
1.17711e-07
5.71797e-06
8.82593e-08
5.72418e-06
5.82673e-08
5.73753e-06
3.72294e-08
5.75492e-06
2.84096e-08
5.77288e-06
3.00084e-08
3.75442e-08
5.79119e-06
6.98067e-06
-3.40345e-08
6.90588e-06
-4.21643e-08
6.89023e-06
-2.10201e-08
6.89041e-06
1.46007e-08
6.91537e-06
1.8722e-08
6.96777e-06
-4.70201e-09
7.03515e-06
-1.87936e-08
7.09647e-06
8.52514e-09
7.14072e-06
5.85153e-08
7.16555e-06
1.03946e-07
7.17653e-06
1.23007e-07
7.18035e-06
1.13894e-07
7.18125e-06
8.73561e-08
7.18244e-06
5.70835e-08
7.1862e-06
3.34636e-08
7.19427e-06
2.03458e-08
7.20703e-06
1.72441e-08
2.34741e-08
7.2211e-06
8.68515e-06
7.38474e-08
8.54167e-06
1.01311e-07
8.45212e-06
6.85291e-08
8.48441e-06
-1.76824e-08
8.5543e-06
-5.11677e-08
8.59042e-06
-4.08255e-08
8.59209e-06
-2.04648e-08
8.59677e-06
3.84419e-09
8.61935e-06
3.5939e-08
8.65608e-06
6.72134e-08
8.68744e-06
9.16424e-08
8.69757e-06
1.03765e-07
8.68232e-06
1.02608e-07
8.64939e-06
9.00142e-08
8.61356e-06
6.92906e-08
8.58691e-06
4.6998e-08
8.57853e-06
2.56276e-08
1.30637e-08
8.58894e-06
1.04008e-05
1.38023e-07
1.03024e-05
1.99741e-07
1.02935e-05
7.74695e-08
1.0278e-05
-2.21212e-09
1.02562e-05
-2.93453e-08
1.02416e-05
-2.61986e-08
1.02327e-05
-1.16305e-08
1.02314e-05
5.20522e-09
1.02454e-05
2.18912e-08
1.02707e-05
4.19672e-08
1.03004e-05
6.19039e-08
1.03289e-05
7.52427e-08
1.03538e-05
7.77719e-08
1.03751e-05
6.87037e-08
1.03949e-05
4.94768e-08
1.04161e-05
2.57859e-08
1.04403e-05
1.41743e-09
-1.65638e-08
1.04699e-05
1.24408e-05
9.17506e-08
1.26745e-05
-3.39876e-08
1.28448e-05
-9.28747e-08
1.28655e-05
-2.28478e-08
1.27929e-05
4.32647e-08
1.27029e-05
6.37299e-08
1.26429e-05
4.83645e-08
1.26268e-05
2.1317e-08
1.26462e-05
2.55975e-09
1.26875e-05
6.5689e-10
1.27376e-05
1.17576e-08
1.2786e-05
2.69005e-08
1.28252e-05
3.85609e-08
1.28515e-05
4.23674e-08
1.2864e-05
3.70005e-08
1.28647e-05
2.50118e-08
1.28552e-05
1.09634e-08
-6.00029e-10
1.28392e-05
1.50626e-05
7.77236e-08
1.51887e-05
-1.60131e-07
1.52694e-05
-1.73544e-07
1.53679e-05
-1.21365e-07
1.54743e-05
-6.31825e-08
1.55402e-05
-2.10947e-09
1.55517e-05
3.68485e-08
1.55291e-05
4.38829e-08
1.55095e-05
2.21959e-08
1.55219e-05
-1.17178e-08
1.5571e-05
-3.74041e-08
1.56469e-05
-4.8947e-08
1.57309e-05
-4.54389e-08
1.58044e-05
-3.11225e-08
1.58539e-05
-1.25095e-08
1.58739e-05
5.01992e-09
1.58656e-05
1.92596e-08
3.03734e-08
1.58346e-05
1.88952e-05
2.88611e-08
1.8821e-05
-8.59685e-08
1.87358e-05
-8.83374e-08
1.8649e-05
-3.45764e-08
1.85844e-05
1.49216e-09
1.85822e-05
2.17161e-11
1.86461e-05
-2.70465e-08
1.87406e-05
-5.06011e-08
1.88272e-05
-6.43504e-08
1.88857e-05
-7.02419e-08
1.89181e-05
-6.98623e-08
1.89326e-05
-6.34471e-08
1.89405e-05
-5.32691e-08
1.89509e-05
-4.15895e-08
1.89687e-05
-3.03071e-08
1.89932e-05
-1.94215e-08
1.9022e-05
-9.60432e-09
4.48638e-10
1.9052e-05
2.34143e-05
-9.44174e-08
2.34621e-05
-1.33746e-07
2.3412e-05
-3.82306e-08
2.33205e-05
5.68832e-08
2.32206e-05
1.01387e-07
2.31558e-05
6.48473e-08
2.31385e-05
-9.78451e-09
2.3157e-05
-6.90129e-08
2.31752e-05
-8.26015e-08
2.31654e-05
-6.04636e-08
2.31211e-05
-2.55153e-08
2.30552e-05
2.44516e-09
2.29889e-05
1.29855e-08
2.29395e-05
7.87039e-09
2.2916e-05
-6.78975e-09
2.29184e-05
-2.1864e-08
2.29413e-05
-3.25235e-08
-3.55595e-08
2.29773e-05
1.69657e-05
-2.01548e-07
1.70398e-05
-2.07769e-07
1.71037e-05
-1.02157e-07
1.71439e-05
1.67197e-08
1.71771e-05
6.81231e-08
1.71845e-05
5.74522e-08
1.71531e-05
2.16118e-08
1.70865e-05
-2.43289e-09
1.69982e-05
5.6834e-09
1.69076e-05
3.01359e-08
1.68355e-05
4.65843e-08
1.67958e-05
4.21541e-08
1.67907e-05
1.814e-08
1.68113e-05
-1.2744e-08
1.6844e-05
-3.95174e-08
1.68766e-05
-5.44751e-08
1.69e-05
-5.58778e-08
-4.69565e-08
1.69114e-05
1.48023e-05
1.4637e-07
1.4719e-05
-1.24531e-07
1.46644e-05
-4.74908e-08
1.46307e-05
5.03468e-08
1.46328e-05
6.60746e-08
1.4653e-05
3.72823e-08
1.46695e-05
5.01561e-09
1.46769e-05
-9.82378e-09
1.46849e-05
-2.26612e-09
1.47026e-05
1.24033e-08
1.47326e-05
1.66143e-08
1.47698e-05
4.96727e-09
1.48073e-05
-1.93329e-08
1.48387e-05
-4.42105e-08
1.48608e-05
-6.16342e-08
1.48738e-05
-6.74034e-08
1.48797e-05
-6.17685e-08
-4.7815e-08
1.48805e-05
1.2946e-05
1.28336e-07
1.27843e-05
3.71764e-08
1.27365e-05
3.4613e-10
1.28142e-05
-2.73698e-08
1.28886e-05
-8.3339e-09
1.28988e-05
2.71116e-08
1.2857e-05
4.67451e-08
1.27981e-05
4.91067e-08
1.27549e-05
4.08937e-08
1.27403e-05
2.70331e-08
1.27495e-05
7.44631e-09
1.27674e-05
-1.29577e-08
1.27823e-05
-3.42221e-08
1.2788e-05
-4.99463e-08
1.27841e-05
-5.77024e-08
1.2774e-05
-5.72613e-08
1.27625e-05
-5.02688e-08
-3.9962e-08
1.27546e-05
1.11685e-05
1.90532e-07
1.11014e-05
1.04194e-07
1.11642e-05
-6.2412e-08
1.12467e-05
-1.09878e-07
1.12872e-05
-4.88144e-08
1.12863e-05
2.80056e-08
1.12729e-05
6.01105e-08
1.12667e-05
5.52883e-08
1.12696e-05
3.80761e-08
1.12737e-05
2.28699e-08
1.12705e-05
1.06822e-08
1.12612e-05
-3.63275e-09
1.12475e-05
-2.05577e-08
1.1235e-05
-3.7415e-08
1.12281e-05
-5.08478e-08
1.12288e-05
-5.79772e-08
1.12361e-05
-5.75064e-08
-5.09368e-08
1.1247e-05
9.68819e-06
-1.60585e-07
9.75559e-06
3.67874e-08
9.70064e-06
-7.46385e-09
9.63843e-06
-4.76599e-08
9.62557e-06
-3.59605e-08
9.67619e-06
-2.26147e-08
9.7616e-06
-2.53017e-08
9.8462e-06
-2.93112e-08
9.90163e-06
-1.73503e-08
9.91262e-06
1.18842e-08
9.88106e-06
4.22362e-08
9.82292e-06
5.45107e-08
9.76045e-06
4.19107e-08
9.71265e-06
1.03814e-08
9.6889e-06
-2.70983e-08
9.68925e-06
-5.83257e-08
9.70829e-06
-7.65384e-08
-7.94525e-08
9.7368e-06
8.4045e-06
-1.5033e-07
8.40054e-06
4.07448e-08
8.30911e-06
8.39701e-08
8.24441e-06
1.70367e-08
8.24216e-06
-3.37067e-08
8.27402e-06
-5.4474e-08
8.31545e-06
-6.67294e-08
8.36197e-06
-7.58403e-08
8.41626e-06
-7.16327e-08
8.47666e-06
-4.85196e-08
8.53459e-06
-1.56976e-08
8.57993e-06
9.17739e-09
8.60456e-06
1.72804e-08
8.60603e-06
8.9133e-09
8.58855e-06
-9.61723e-09
8.56024e-06
-3.00182e-08
8.53013e-06
-4.64347e-08
-5.48943e-08
8.50558e-06
7.24774e-06
-3.6377e-08
7.25263e-06
3.58506e-08
7.31284e-06
2.37571e-08
7.36926e-06
-3.93811e-08
7.39956e-06
-6.40008e-08
7.40356e-06
-5.84751e-08
7.39318e-06
-5.63566e-08
7.38114e-06
-6.37969e-08
7.37763e-06
-6.81177e-08
7.3913e-06
-6.21882e-08
7.42473e-06
-4.91368e-08
7.4703e-06
-3.63927e-08
7.51626e-06
-2.86782e-08
7.55123e-06
-2.60525e-08
7.56779e-06
-2.61777e-08
7.56443e-06
-2.66614e-08
7.54417e-06
-2.61747e-08
-2.5096e-08
7.51437e-06
6.3719e-06
-6.22506e-09
6.38937e-06
1.83768e-08
6.45602e-06
-4.28923e-08
6.5185e-06
-1.01854e-07
6.55455e-06
-1.00055e-07
6.56373e-06
-6.76573e-08
6.54776e-06
-4.03897e-08
6.51276e-06
-2.87951e-08
6.47484e-06
-3.01919e-08
6.45123e-06
-3.85763e-08
6.44931e-06
-4.72256e-08
6.46411e-06
-5.11905e-08
6.48474e-06
-4.93025e-08
6.50236e-06
-4.36814e-08
6.5133e-06
-3.71086e-08
6.51813e-06
-3.14949e-08
6.51957e-06
-2.76195e-08
-2.5693e-08
6.52017e-06
5.54812e-06
-6.20069e-08
5.5851e-06
-1.85979e-08
5.59621e-06
-5.40091e-08
5.59829e-06
-1.03934e-07
5.60646e-06
-1.08226e-07
5.61711e-06
-7.83053e-08
5.62796e-06
-5.12344e-08
5.64037e-06
-4.12098e-08
5.65346e-06
-4.32855e-08
5.6654e-06
-5.05165e-08
5.67578e-06
-5.76042e-08
5.68507e-06
-6.04739e-08
5.69313e-06
-5.73689e-08
5.69946e-06
-5.00046e-08
5.70384e-06
-4.14908e-08
5.70647e-06
-3.41222e-08
5.70744e-06
-2.85921e-08
-2.55771e-08
5.70732e-06
4.90326e-06
-9.7542e-08
4.94487e-06
-6.02101e-08
4.95105e-06
-6.01843e-08
4.90245e-06
-5.53385e-08
4.84285e-06
-4.86236e-08
4.82026e-06
-5.57208e-08
4.84442e-06
-7.53927e-08
4.89359e-06
-9.03787e-08
4.93772e-06
-8.74113e-08
4.956e-06
-6.87953e-08
4.94478e-06
-4.63914e-08
4.91539e-06
-3.10842e-08
4.88465e-06
-2.66291e-08
4.86528e-06
-3.06273e-08
4.86155e-06
-3.7764e-08
4.87115e-06
-4.37274e-08
4.88853e-06
-4.59658e-08
-4.43105e-08
4.90726e-06
4.12107e-06
4.06086e-06
4.00068e-06
3.94534e-06
3.89671e-06
3.84099e-06
3.7656e-06
3.67522e-06
3.58781e-06
3.51901e-06
3.47262e-06
3.44154e-06
3.41491e-06
3.38428e-06
3.34652e-06
3.30279e-06
3.25683e-06
3.21251e-06
-1.36205e-07
1.36205e-07
-2.89524e-07
1.53319e-07
-4.08843e-07
1.19319e-07
-4.06851e-07
-1.99174e-09
-2.2792e-07
-1.78931e-07
1.24765e-07
-3.52685e-07
5.97862e-07
-4.73097e-07
1.13857e-06
-5.40707e-07
1.70402e-06
-5.65452e-07
2.26452e-06
-5.60501e-07
2.80317e-06
-5.38647e-07
3.31198e-06
-5.08812e-07
3.78828e-06
-4.76299e-07
4.23161e-06
-4.43328e-07
4.64201e-06
-4.10398e-07
5.01917e-06
-3.77163e-07
5.36203e-06
-3.42858e-07
5.66863e-06
-3.06603e-07
5.93588e-06
-2.67249e-07
6.1596e-06
-2.23723e-07
6.33441e-06
-1.74802e-07
6.45359e-06
-1.19186e-07
6.51064e-06
-5.70446e-08
6.49848e-06
1.21538e-08
6.4038e-06
9.46825e-08
6.21999e-06
1.8381e-07
5.94375e-06
2.7624e-07
5.57278e-06
3.70971e-07
5.11189e-06
4.6089e-07
4.5732e-06
5.38688e-07
3.97461e-06
5.98593e-07
3.35159e-06
6.23021e-07
2.73277e-06
6.18815e-07
2.14105e-06
5.91724e-07
1.58535e-06
5.55701e-07
1.07631e-06
5.09041e-07
6.63975e-07
4.12332e-07
3.60328e-07
3.03647e-07
1.81044e-07
1.79283e-07
8.10966e-08
9.99478e-08
-2.7156e-08
1.08253e-07
-2.94291e-08
2.27307e-09
1.29571e-08
-4.23862e-08
-1.13694e-07
1.26651e-07
-2.2917e-07
1.15477e-07
-1.44044e-07
-8.51261e-08
2.8972e-07
-4.33764e-07
9.6221e-07
-6.7249e-07
1.24759e-06
-2.85385e-07
1.25275e-06
-5.15321e-09
7.62768e-07
4.8998e-07
-2.34099e-07
9.96867e-07
-1.34592e-06
1.11182e-06
-2.46722e-06
1.12131e-06
-3.54009e-06
1.07287e-06
-4.5391e-06
9.99004e-07
-5.44804e-06
9.0894e-07
-6.25828e-06
8.10242e-07
-6.97221e-06
7.13931e-07
-7.59483e-06
6.22623e-07
-8.13442e-06
5.3959e-07
-8.59791e-06
4.63489e-07
-8.99197e-06
3.94055e-07
-9.32171e-06
3.29738e-07
-9.59194e-06
2.70238e-07
-9.807e-06
2.15054e-07
-9.97136e-06
1.64362e-07
-1.00894e-05
1.18066e-07
-1.01656e-05
7.61796e-08
-1.02042e-05
3.86344e-08
-1.02086e-05
4.31605e-09
-1.01853e-05
-2.32328e-08
-1.01374e-05
-4.79611e-08
-1.00675e-05
-6.98313e-08
-9.97889e-06
-8.86439e-08
-9.87401e-06
-1.04876e-07
-9.75507e-06
-1.18942e-07
-9.62393e-06
-1.31136e-07
-9.48196e-06
-1.41971e-07
-9.33012e-06
-1.51839e-07
-9.16892e-06
-1.61205e-07
-8.99844e-06
-1.70479e-07
-8.81845e-06
-1.79991e-07
-8.62853e-06
-1.89919e-07
-8.42836e-06
-2.00167e-07
-8.21804e-06
-2.10327e-07
-7.99831e-06
-2.19729e-07
-7.77066e-06
-2.27643e-07
-7.53707e-06
-2.33595e-07
-7.29932e-06
-2.37746e-07
-7.0581e-06
-2.41222e-07
-6.81187e-06
-2.46234e-07
-6.55615e-06
-2.55712e-07
-6.28384e-06
-2.72316e-07
-5.98657e-06
-2.97265e-07
-5.65684e-06
-3.29734e-07
-5.28981e-06
-3.67026e-07
-4.88427e-06
-4.05548e-07
-4.44361e-06
-4.40655e-07
-3.97452e-06
-4.69091e-07
-3.48374e-06
-4.90783e-07
-2.97755e-06
-5.06189e-07
-2.46225e-06
-5.15302e-07
-1.9396e-06
-5.2265e-07
-1.41074e-06
-5.28855e-07
-9.16838e-07
-4.93903e-07
-4.87192e-07
-4.29646e-07
-7.48996e-08
-4.12293e-07
4.2908e-07
-5.03979e-07
1.11656e-06
-6.87479e-07
2.03058e-06
-9.14019e-07
3.1276e-06
-1.09702e-06
4.04693e-06
-9.19331e-07
4.19434e-06
-1.47414e-07
3.5112e-06
6.83149e-07
2.76705e-06
7.44149e-07
2.54675e-06
2.20293e-07
2.66001e-06
-1.13254e-07
2.67046e-06
-1.04552e-08
2.40816e-06
2.62301e-07
1.91916e-06
4.89001e-07
1.31116e-06
6.07996e-07
6.63233e-07
6.47931e-07
1.27635e-08
6.5047e-07
-6.25476e-07
6.38239e-07
-1.25291e-06
6.27433e-07
-1.87523e-06
6.22321e-07
-2.49944e-06
6.24212e-07
-3.12876e-06
6.29322e-07
-3.76065e-06
6.31884e-07
-4.3867e-06
6.26051e-07
-4.99343e-06
6.06735e-07
-5.56325e-06
5.69814e-07
-6.07544e-06
5.12191e-07
-6.50753e-06
4.32096e-07
-6.83702e-06
3.29486e-07
-7.04327e-06
2.06248e-07
-7.10871e-06
6.54436e-08
-7.02411e-06
-8.46003e-08
-6.78762e-06
-2.36486e-07
-6.40016e-06
-3.87462e-07
-5.87056e-06
-5.29606e-07
-5.21599e-06
-6.54565e-07
-4.46172e-06
-7.54274e-07
-3.63929e-06
-8.22427e-07
-2.78327e-06
-8.5602e-07
-1.92801e-06
-8.55259e-07
-1.10368e-06
-8.24336e-07
-3.35576e-07
-7.681e-07
3.5901e-07
-6.94586e-07
9.72131e-07
-6.13121e-07
1.49835e-06
-5.26219e-07
1.93935e-06
-4.41002e-07
2.30222e-06
-3.62869e-07
2.59765e-06
-2.95427e-07
2.8371e-06
-2.39447e-07
3.03166e-06
-1.94569e-07
3.19354e-06
-1.61879e-07
3.33218e-06
-1.3864e-07
3.45586e-06
-1.23676e-07
3.583e-06
-1.27144e-07
3.72222e-06
-1.3922e-07
3.87059e-06
-1.48369e-07
4.06718e-06
-1.96588e-07
4.32667e-06
-2.59495e-07
4.60564e-06
-2.78961e-07
4.97755e-06
-3.71911e-07
5.45383e-06
-4.76282e-07
5.87664e-06
-4.22813e-07
6.40298e-06
-5.26338e-07
6.97871e-06
-5.7573e-07
7.19765e-06
-2.18939e-07
7.51075e-06
-3.13099e-07
7.6494e-06
-1.38652e-07
6.34562e-06
1.30378e-06
4.46241e-06
1.88321e-06
3.44321e-06
1.01921e-06
2.89428e-06
5.48922e-07
1.97887e-06
9.15411e-07
1.55298e-06
4.25889e-07
-3.78722e-09
1.39992e-07
-1.72917e-08
1.66823e-07
8.40099e-08
1.80178e-08
3.84655e-07
-3.02637e-07
8.41225e-07
-6.355e-07
1.35838e-06
-8.69836e-07
1.87822e-06
-9.9294e-07
2.37356e-06
-1.03605e-06
2.83233e-06
-1.02422e-06
3.25472e-06
-9.8289e-07
3.64647e-06
-9.304e-07
4.01456e-06
-8.76896e-07
4.36463e-06
-8.26377e-07
4.70029e-06
-7.78986e-07
5.02294e-06
-7.33046e-07
5.33218e-06
-6.86404e-07
5.62635e-06
-6.37023e-07
5.90276e-06
-5.83017e-07
6.15823e-06
-5.22718e-07
6.38874e-06
-4.54231e-07
6.59019e-06
-3.76258e-07
6.75869e-06
-2.87688e-07
6.88979e-06
-1.88145e-07
6.98099e-06
-7.90405e-08
7.03124e-06
4.44295e-08
7.0313e-06
1.83749e-07
6.97574e-06
3.31798e-07
6.85732e-06
4.89397e-07
6.66626e-06
6.51949e-07
6.3939e-06
8.11044e-07
6.03756e-06
9.54933e-07
5.5912e-06
1.06938e-06
5.07094e-06
1.13907e-06
4.50327e-06
1.1594e-06
3.92335e-06
1.13562e-06
3.38352e-06
1.04887e-06
2.84663e-06
9.49228e-07
2.31565e-06
8.34624e-07
1.848e-06
6.46934e-07
1.42397e-06
5.23972e-07
1.11336e-06
4.18865e-07
8.99738e-07
2.15897e-07
7.79081e-07
7.82705e-08
7.9548e-07
1.10251e-07
7.81862e-07
1.29095e-07
8.38212e-07
-1.41476e-07
9.13407e-07
-5.0896e-07
3.68553e-07
-1.27636e-07
-6.985e-07
7.81668e-07
-2.01113e-06
1.30748e-06
-3.09709e-06
1.57594e-06
-3.95273e-06
1.8525e-06
-4.75151e-06
1.9106e-06
-5.50349e-06
1.87329e-06
-6.18596e-06
1.75534e-06
-6.79627e-06
1.60931e-06
-7.33541e-06
1.44809e-06
-7.81302e-06
1.28785e-06
-8.23612e-06
1.13703e-06
-8.61016e-06
9.96656e-07
-8.93972e-06
8.69157e-07
-9.22821e-06
7.5198e-07
-9.47753e-06
6.4337e-07
-9.68908e-06
5.41294e-07
-9.8644e-06
4.45557e-07
-1.0005e-05
3.55606e-07
-1.01123e-05
2.71707e-07
-1.01878e-05
1.93589e-07
-1.0233e-05
1.21318e-07
-1.02494e-05
5.50929e-08
-1.02397e-05
-5.36085e-09
-1.02037e-05
-5.9303e-08
-1.01438e-05
-1.07839e-07
-1.00625e-05
-1.51101e-07
-9.96178e-06
-1.89392e-07
-9.84343e-06
-2.23222e-07
-9.70918e-06
-2.53196e-07
-9.56034e-06
-2.79968e-07
-9.39814e-06
-3.04177e-07
-9.22359e-06
-3.26393e-07
-9.03764e-06
-3.47146e-07
-8.8412e-06
-3.6692e-07
-8.63505e-06
-3.86142e-07
-8.41984e-06
-4.05126e-07
-8.19606e-06
-4.23953e-07
-7.96401e-06
-4.42375e-07
-7.72392e-06
-4.5982e-07
-7.47598e-06
-4.75581e-07
-7.22039e-06
-4.89184e-07
-6.95725e-06
-5.00891e-07
-6.68633e-06
-5.12139e-07
-6.40689e-06
-5.25671e-07
-6.11761e-06
-5.44996e-07
-5.81661e-06
-5.73319e-07
-5.50142e-06
-6.12455e-07
-5.16892e-06
-6.62232e-07
-4.81543e-06
-7.20514e-07
-4.43727e-06
-7.83711e-07
-4.03069e-06
-8.47237e-07
-3.59313e-06
-9.06642e-07
-3.12553e-06
-9.58387e-07
-2.63235e-06
-9.99371e-07
-2.12209e-06
-1.02556e-06
-1.60912e-06
-1.03562e-06
-1.09606e-06
-1.04192e-06
-5.869e-07
-1.00306e-06
-1.25569e-07
-8.90977e-07
3.00921e-07
-8.38783e-07
7.78893e-07
-9.81952e-07
1.42851e-06
-1.33709e-06
2.27134e-06
-1.75685e-06
3.17605e-06
-2.00174e-06
3.94232e-06
-1.6856e-06
4.28516e-06
-4.90257e-07
4.06788e-06
9.00428e-07
3.55782e-06
1.25422e-06
3.17158e-06
6.06525e-07
2.83944e-06
2.18891e-07
2.32172e-06
5.07267e-07
1.61343e-06
9.70584e-07
8.64455e-07
1.23798e-06
1.5958e-07
1.31287e-06
-4.90565e-07
1.29808e-06
-1.10204e-06
1.26194e-06
-1.68474e-06
1.22094e-06
-2.24738e-06
1.19007e-06
-2.80022e-06
1.17516e-06
-3.35018e-06
1.17416e-06
-3.89999e-06
1.17914e-06
-4.44736e-06
1.17925e-06
-4.98538e-06
1.16407e-06
-5.50296e-06
1.12431e-06
-5.98533e-06
1.05219e-06
-6.41497e-06
9.41831e-07
-6.77294e-06
7.90064e-07
-7.04026e-06
5.96801e-07
-7.19908e-06
3.65073e-07
-7.23252e-06
9.88807e-08
-7.12845e-06
-1.88673e-07
-6.87081e-06
-4.94119e-07
-6.45997e-06
-7.983e-07
-5.90459e-06
-1.08499e-06
-5.2219e-06
-1.33726e-06
-4.4377e-06
-1.53848e-06
-3.58427e-06
-1.67586e-06
-2.69717e-06
-1.74312e-06
-1.81018e-06
-1.74225e-06
-9.54209e-07
-1.6803e-06
-1.53788e-07
-1.56852e-06
5.78798e-07
-1.42717e-06
1.22951e-06
-1.26383e-06
1.79469e-06
-1.0914e-06
2.2753e-06
-9.21612e-07
2.67667e-06
-7.64244e-07
3.00731e-06
-6.26062e-07
3.27871e-06
-5.10847e-07
3.5018e-06
-4.17663e-07
3.68522e-06
-3.45294e-07
3.84322e-06
-2.96641e-07
3.98759e-06
-2.68049e-07
4.1221e-06
-2.61656e-07
4.27054e-06
-2.87651e-07
4.45084e-06
-3.28675e-07
4.65232e-06
-3.98064e-07
4.90581e-06
-5.1299e-07
5.23468e-06
-6.07832e-07
5.60356e-06
-7.40784e-07
6.04762e-06
-9.20349e-07
6.58161e-06
-9.56803e-07
7.07239e-06
-1.01712e-06
7.58982e-06
-1.09315e-06
8.13695e-06
-7.66068e-07
8.31299e-06
-4.89145e-07
8.46505e-06
-2.90705e-07
8.78944e-06
9.79381e-07
8.10671e-06
2.56594e-06
6.29787e-06
2.82804e-06
4.63753e-06
2.20926e-06
3.21809e-06
2.33485e-06
3.4145e-06
1.35657e-06
2.43913e-08
1.15601e-07
2.47458e-07
-5.62432e-08
7.69184e-07
-5.03708e-07
1.39189e-06
-9.25343e-07
1.94556e-06
-1.18917e-06
2.37846e-06
-1.30273e-06
2.69227e-06
-1.30675e-06
2.91138e-06
-1.25516e-06
3.07717e-06
-1.19002e-06
3.22722e-06
-1.13294e-06
3.38557e-06
-1.08876e-06
3.56529e-06
-1.05661e-06
3.77017e-06
-1.03127e-06
3.99782e-06
-1.00664e-06
4.24255e-06
-9.7777e-07
4.49737e-06
-9.41224e-07
4.75527e-06
-8.9493e-07
5.00977e-06
-8.37509e-07
5.25459e-06
-7.67537e-07
5.48372e-06
-6.83368e-07
5.69149e-06
-5.8402e-07
5.87338e-06
-4.69588e-07
6.02662e-06
-3.41376e-07
6.15042e-06
-2.02847e-07
6.24986e-06
-5.50085e-08
6.33262e-06
1.00988e-07
6.39397e-06
2.7045e-07
6.42862e-06
4.5475e-07
6.42539e-06
6.55178e-07
6.37099e-06
8.65446e-07
6.25115e-06
1.07477e-06
6.05102e-06
1.26952e-06
5.76798e-06
1.42211e-06
5.39949e-06
1.52789e-06
4.96627e-06
1.56884e-06
4.48735e-06
1.52779e-06
3.96757e-06
1.46901e-06
3.46393e-06
1.33826e-06
2.95679e-06
1.15408e-06
2.44869e-06
1.03207e-06
2.02737e-06
8.4019e-07
1.57121e-06
6.72056e-07
1.12547e-06
5.24011e-07
8.21754e-07
4.13967e-07
6.61656e-07
2.89193e-07
6.09998e-07
-8.98178e-08
-1.88859e-07
2.89897e-07
-1.69714e-06
1.38065e-06
-2.83746e-06
1.92198e-06
-3.7327e-06
2.20272e-06
-4.53967e-06
2.38291e-06
-5.12295e-06
2.43578e-06
-5.59816e-06
2.38581e-06
-6.01374e-06
2.28886e-06
-6.40438e-06
2.14598e-06
-6.78177e-06
1.98671e-06
-7.15342e-06
1.81974e-06
-7.51997e-06
1.6544e-06
-7.87695e-06
1.49401e-06
-8.21827e-06
1.33798e-06
-8.53649e-06
1.18738e-06
-8.82552e-06
1.04101e-06
-9.0816e-06
8.99448e-07
-9.30251e-06
7.62208e-07
-9.48711e-06
6.30157e-07
-9.63512e-06
5.03615e-07
-9.74686e-06
3.83444e-07
-9.82349e-06
2.70222e-07
-9.86689e-06
1.64717e-07
-9.87882e-06
6.70146e-08
-9.86278e-06
-2.13976e-08
-9.82148e-06
-1.00599e-07
-9.75763e-06
-1.71692e-07
-9.674e-06
-2.3473e-07
-9.57306e-06
-2.9033e-07
-9.45686e-06
-3.39427e-07
-9.3269e-06
-3.83148e-07
-9.18416e-06
-4.22713e-07
-9.02908e-06
-4.59261e-07
-8.86173e-06
-4.9374e-07
-8.68201e-06
-5.26868e-07
-8.48982e-06
-5.59111e-07
-8.28527e-06
-5.90689e-07
-8.06883e-06
-6.21562e-07
-7.84141e-06
-6.51381e-07
-7.60429e-06
-6.79494e-07
-7.35905e-06
-7.05052e-07
-7.10732e-06
-7.27312e-07
-6.8504e-06
-7.46103e-07
-6.58896e-06
-7.62331e-07
-6.32275e-06
-7.78357e-07
-6.05049e-06
-7.97924e-07
-5.77016e-06
-8.25325e-07
-5.47936e-06
-8.64124e-07
-5.17564e-06
-9.16179e-07
-4.85639e-06
-9.81482e-07
-4.51825e-06
-1.05865e-06
-4.15674e-06
-1.14522e-06
-3.76651e-06
-1.23747e-06
-3.34168e-06
-1.33147e-06
-2.87624e-06
-1.42383e-06
-2.36811e-06
-1.50751e-06
-1.82447e-06
-1.5692e-06
-1.26234e-06
-1.59775e-06
-7.00878e-07
-1.60338e-06
-1.15944e-07
-1.58799e-06
4.54988e-07
-1.46191e-06
9.16973e-07
-1.30077e-06
1.32812e-06
-1.3931e-06
1.8352e-06
-1.84417e-06
2.50066e-06
-2.4223e-06
3.20932e-06
-2.7104e-06
3.75353e-06
-2.22981e-06
3.97164e-06
-7.08374e-07
3.81714e-06
1.05494e-06
3.47814e-06
1.59321e-06
3.0295e-06
1.05517e-06
2.3768e-06
8.71591e-07
1.56327e-06
1.32079e-06
8.02792e-07
1.73107e-06
1.8944e-07
1.85133e-06
-3.29785e-07
1.8321e-06
-8.23472e-07
1.79176e-06
-1.30927e-06
1.74774e-06
-1.7902e-06
1.70187e-06
-2.26924e-06
1.66911e-06
-2.753e-06
1.65893e-06
-3.248e-06
1.66916e-06
-3.75818e-06
1.68932e-06
-4.28253e-06
1.70361e-06
-4.81442e-06
1.69595e-06
-5.34152e-06
1.65141e-06
-5.84637e-06
1.55704e-06
-6.30753e-06
1.40299e-06
-6.70098e-06
1.18351e-06
-7.002e-06
8.97826e-07
-7.18728e-06
5.50353e-07
-7.24254e-06
1.54132e-07
-7.14118e-06
-2.9003e-07
-6.88172e-06
-7.53578e-07
-6.4635e-06
-1.21652e-06
-5.8933e-06
-1.65518e-06
-5.18879e-06
-2.04177e-06
-4.37769e-06
-2.34957e-06
-3.49557e-06
-2.55798e-06
-2.5818e-06
-2.65689e-06
-1.6743e-06
-2.64975e-06
-8.06416e-07
-2.54818e-06
-6.96148e-09
-2.36797e-06
7.2258e-07
-2.15671e-06
1.36202e-06
-1.90327e-06
1.91345e-06
-1.64283e-06
2.38176e-06
-1.38992e-06
2.77535e-06
-1.15784e-06
3.10489e-06
-9.556e-07
3.38125e-06
-7.87207e-07
3.61558e-06
-6.5199e-07
3.81862e-06
-5.48333e-07
3.9996e-06
-4.77627e-07
4.17062e-06
-4.39064e-07
4.3445e-06
-4.35536e-07
4.52833e-06
-4.71484e-07
4.73126e-06
-5.316e-07
4.96378e-06
-6.3059e-07
5.2302e-06
-7.79413e-07
5.54415e-06
-9.21782e-07
5.91949e-06
-1.11612e-06
6.34418e-06
-1.34504e-06
6.83333e-06
-1.44595e-06
7.37825e-06
-1.56204e-06
7.86831e-06
-1.58321e-06
8.37871e-06
-1.27646e-06
8.80379e-06
-9.14232e-07
8.86849e-06
-3.55399e-07
9.11389e-06
7.33975e-07
9.38497e-06
2.29487e-06
8.42859e-06
3.78443e-06
6.39436e-06
4.24349e-06
4.42723e-06
4.30199e-06
5.23963e-06
2.6021e-06
1.09315e-07
6.28591e-09
7.65641e-07
-7.12569e-07
1.49142e-06
-1.22949e-06
1.99459e-06
-1.42852e-06
2.23968e-06
-1.43426e-06
2.29343e-06
-1.35649e-06
2.25899e-06
-1.27231e-06
2.23118e-06
-1.22735e-06
2.26293e-06
-1.22177e-06
2.36983e-06
-1.23984e-06
2.54733e-06
-1.26625e-06
2.78043e-06
-1.2897e-06
3.05168e-06
-1.30252e-06
3.34517e-06
-1.30012e-06
3.64762e-06
-1.28022e-06
3.94791e-06
-1.24151e-06
4.23602e-06
-1.18304e-06
4.50297e-06
-1.10446e-06
4.74043e-06
-1.005e-06
4.94148e-06
-8.84414e-07
5.10167e-06
-7.44212e-07
5.21869e-06
-5.86606e-07
5.29398e-06
-4.16669e-07
5.33456e-06
-2.43424e-07
5.35337e-06
-7.38255e-08
5.36925e-06
8.51145e-08
5.39886e-06
2.40837e-07
5.4452e-06
4.08409e-07
5.50331e-06
5.97069e-07
5.5575e-06
8.11253e-07
5.5818e-06
1.05047e-06
5.55607e-06
1.29525e-06
5.46323e-06
1.51494e-06
5.29002e-06
1.70111e-06
5.03053e-06
1.82833e-06
4.69124e-06
1.86708e-06
4.31646e-06
1.84378e-06
3.88423e-06
1.7705e-06
3.38922e-06
1.64908e-06
2.92251e-06
1.49878e-06
2.42505e-06
1.33765e-06
1.91727e-06
1.17984e-06
1.43137e-06
1.00991e-06
1.02346e-06
8.21877e-07
7.85681e-07
5.26974e-07
-5.15982e-08
7.47462e-07
-1.53892e-06
1.77722e-06
-2.69879e-06
2.54051e-06
-3.5319e-06
2.7551e-06
-4.19606e-06
2.86688e-06
-4.72584e-06
2.91269e-06
-5.15438e-06
2.86432e-06
-5.54548e-06
2.7769e-06
-5.91639e-06
2.65978e-06
-6.29126e-06
2.52084e-06
-6.67177e-06
2.36722e-06
-7.05579e-06
2.20376e-06
-7.43359e-06
2.03219e-06
-7.79484e-06
1.85526e-06
-8.13117e-06
1.67432e-06
-8.43629e-06
1.4925e-06
-8.70629e-06
1.31101e-06
-8.93899e-06
1.13215e-06
-9.1339e-06
9.57115e-07
-9.29124e-06
7.87497e-07
-9.41205e-06
6.24433e-07
-9.49791e-06
4.69302e-07
-9.5506e-06
3.22913e-07
-9.57198e-06
1.86093e-07
-9.56374e-06
5.87803e-08
-9.53048e-06
-5.46661e-08
-9.47388e-06
-1.57198e-07
-9.39645e-06
-2.49115e-07
-9.30123e-06
-3.29952e-07
-9.19083e-06
-4.00733e-07
-9.06744e-06
-4.62812e-07
-8.93275e-06
-5.17844e-07
-8.78779e-06
-5.67668e-07
-8.63297e-06
-6.14089e-07
-8.46802e-06
-6.58685e-07
-8.29224e-06
-7.02647e-07
-8.10472e-06
-7.46632e-07
-7.90472e-06
-7.90688e-07
-7.69209e-06
-8.34191e-07
-7.46759e-06
-8.75885e-07
-7.23298e-06
-9.14104e-07
-6.99083e-06
-9.47203e-07
-6.74399e-06
-9.74147e-07
-6.49492e-06
-9.95174e-07
-6.24495e-06
-1.01231e-06
-5.99379e-06
-1.02951e-06
-5.73945e-06
-1.05227e-06
-5.47843e-06
-1.08635e-06
-5.2065e-06
-1.13606e-06
-4.91954e-06
-1.20314e-06
-4.61413e-06
-1.28688e-06
-4.28757e-06
-1.38522e-06
-3.93784e-06
-1.49494e-06
-3.5641e-06
-1.61121e-06
-3.16621e-06
-1.72935e-06
-2.74367e-06
-1.84637e-06
-2.29461e-06
-1.95656e-06
-1.8154e-06
-2.04841e-06
-1.29801e-06
-2.11514e-06
-7.60179e-07
-2.14121e-06
-1.71913e-07
-2.17626e-06
5.00762e-07
-2.13458e-06
1.11337e-06
-1.91338e-06
1.57865e-06
-1.85838e-06
2.01502e-06
-2.28054e-06
2.53802e-06
-2.94531e-06
3.09284e-06
-3.26521e-06
3.5177e-06
-2.65467e-06
3.69877e-06
-8.89438e-07
3.65382e-06
1.09988e-06
3.4072e-06
1.83983e-06
2.83749e-06
1.62488e-06
1.98503e-06
1.72405e-06
1.13966e-06
2.16616e-06
5.17854e-07
2.35287e-06
6.78982e-08
2.30129e-06
-3.45774e-07
2.24577e-06
-7.76664e-07
2.22265e-06
-1.2107e-06