/*--------------------------------*- C++ -*----------------------------------*\
  =========                 |
  \\      /  F ield         | OpenFOAM: The Open Source CFD Toolbox
   \\    /   O peration     | Website:  https://openfoam.org
    \\  /    A nd           | Version:  9
     \\/     M anipulation  |
\*---------------------------------------------------------------------------*/
FoamFile
{
    format      ascii;
    class       volScalarField;
    location    "0.099";
    object      pMean;
}
// * * * * * * * * * * * * * * * * * * * * * * * * * * * * * * * * * * * * * //

dimensions      [0 2 -2 0 0 0 0];

internalField   nonuniform List<scalar> 
12225
(
0.353838
-0.201391
-0.50156
-0.618474
-0.670284
-0.707766
-0.739692
-0.76178
-0.769664
-0.760886
-0.735295
-0.691229
-0.629534
-0.546793
-0.449688
-0.340576
-0.255052
-0.248621
0.132804
-0.230625
-0.504215
-0.628604
-0.681915
-0.71788
-0.749027
-0.771346
-0.780092
-0.772533
-0.748795
-0.707298
-0.649672
-0.572506
-0.484852
-0.387199
-0.323407
-0.354129
0.0720426
-0.236259
-0.496901
-0.631832
-0.690394
-0.726089
-0.756673
-0.779797
-0.790211
-0.785258
-0.764696
-0.728766
-0.67797
-0.614124
-0.541931
-0.476226
-0.445436
-0.507864
-0.0708988
-0.284912
-0.507922
-0.644137
-0.707023
-0.741873
-0.770792
-0.793938
-0.806112
-0.803937
-0.787529
-0.757277
-0.71536
-0.664319
-0.61149
-0.571191
-0.566664
-0.629036
-0.153069
-0.319341
-0.512315
-0.648031
-0.717619
-0.754624
-0.782996
-0.806513
-0.820736
-0.822249
-0.810728
-0.787528
-0.755161
-0.717582
-0.682416
-0.662072
-0.672694
-0.729585
-0.254136
-0.372648
-0.533681
-0.662391
-0.736152
-0.775463
-0.803343
-0.826794
-0.842787
-0.847793
-0.841363
-0.825249
-0.802521
-0.777766
-0.757947
-0.752761
-0.773067
-0.827911
-0.331582
-0.424065
-0.55536
-0.673374
-0.749671
-0.792615
-0.821461
-0.845509
-0.863891
-0.873339
-0.873088
-0.864928
-0.852264
-0.839693
-0.833275
-0.840354
-0.86858
-0.923885
-0.41189
-0.478212
-0.586978
-0.693982
-0.770252
-0.816427
-0.846959
-0.871711
-0.891923
-0.905332
-0.91112
-0.910853
-0.90783
-0.906329
-0.911524
-0.928957
-0.964155
-1.0207
-0.493515
-0.534623
-0.619856
-0.714912
-0.789526
-0.838606
-0.871926
-0.898732
-0.921632
-0.939506
-0.951646
-0.959437
-0.965869
-0.974745
-0.990376
-1.01697
-1.05845
-1.11702
-0.549884
-0.591737
-0.663707
-0.744391
-0.814247
-0.865588
-0.902135
-0.931246
-0.956864
-0.979113
-0.997652
-1.0134
-1.02888
-1.04734
-1.07241
-1.10725
-1.15454
-1.21555
-0.588734
-0.643403
-0.708634
-0.778029
-0.842635
-0.894262
-0.933688
-0.966207
-0.995501
-1.02247
-1.04715
-1.07047
-1.0945
-1.12186
-1.15539
-1.19744
-1.25
-1.31392
-0.688372
-0.701226
-0.745924
-0.809091
-0.871626
-0.923988
-0.966016
-1.00178
-1.03469
-1.06616
-1.09665
-1.12686
-1.15834
-1.19331
-1.23403
-1.28247
-1.33984
-1.40676
-0.751911
-0.754557
-0.792723
-0.849045
-0.906698
-0.957829
-1.00165
-1.04067
-1.0774
-1.1133
-1.14911
-1.18561
-1.22411
-1.2662
-1.31361
-1.36767
-1.42953
-1.49954
-0.772323
-0.804275
-0.843694
-0.89052
-0.942463
-0.994459
-1.04258
-1.08637
-1.12794
-1.16925
-1.21143
-1.25515
-1.30131
-1.35104
-1.4056
-1.46604
-1.53309
-1.60697
-0.858831
-0.879509
-0.908389
-0.947977
-0.996047
-1.0468
-1.09627
-1.14386
-1.19056
-1.23785
-1.28674
-1.33786
-1.39183
-1.44939
-1.51133
-1.57829
-1.65073
-1.72875
-0.978602
-0.959632
-0.967058
-1.00096
-1.05002
-1.10445
-1.15865
-1.21128
-1.26377
-1.31773
-1.37412
-1.43328
-1.49546
-1.56105
-1.63056
-1.70438
-1.7828
-1.86589
-1.07121
-1.03856
-1.03829
-1.07036
-1.12
-1.17546
-1.23177
-1.28872
-1.34749
-1.40894
-1.47336
-1.54075
-1.61124
-1.68496
-1.76216
-1.84293
-1.92753
-2.01577
-1.08992
-1.08741
-1.10281
-1.1385
-1.18884
-1.24719
-1.30937
-1.37392
-1.44083
-1.51031
-1.58263
-1.65799
-1.73649
-1.81806
-1.90269
-1.99037
-2.08106
-2.17466
-1.06103
-1.10145
-1.15013
-1.20197
-1.25908
-1.32236
-1.39062
-1.46279
-1.53814
-1.61629
-1.69726
-1.78116
-1.86788
-1.95723
-2.04909
-2.14334
-2.23991
-2.33867
-1.15388
-1.16305
-1.19269
-1.24183
-1.30498
-1.37624
-1.45184
-1.53008
-1.61076
-1.69434
-1.78111
-1.87087
-1.96325
-2.05785
-2.15451
-2.25307
-2.3534
-2.45526
-1.15179
-1.15632
-1.1915
-1.25287
-1.3282
-1.40775
-1.48852
-1.57115
-1.65665
-1.74533
-1.83696
-1.93101
-2.02713
-2.1251
-2.22475
-2.32591
-2.42846
-2.53226
-1.13147
-1.14008
-1.18248
-1.25162
-1.33461
-1.42085
-1.50666
-1.59322
-1.68228
-1.77449
-1.86956
-1.96686
-2.06588
-2.16636
-2.26824
-2.37138
-2.47561
-2.58063
-1.02878
-1.09528
-1.1744
-1.25841
-1.34546
-1.43345
-1.52178
-1.61177
-1.7045
-1.79996
-1.8977
-1.99712
-2.09788
-2.19988
-2.30304
-2.40723
-2.51227
-2.61805
-0.967889
-1.03679
-1.13398
-1.23754
-1.33673
-1.42982
-1.52062
-1.61318
-1.70908
-1.80774
-1.90803
-2.00939
-2.11176
-2.21519
-2.31963
-2.42489
-2.53078
-2.63694
-1.00674
-1.03164
-1.12166
-1.2386
-1.34676
-1.4408
-1.53053
-1.62378
-1.72166
-1.82215
-1.92362
-2.02572
-2.12865
-2.23257
-2.33744
-2.44303
-2.54909
-2.65546
-0.827986
-0.944809
-1.09002
-1.22394
-1.33386
-1.42832
-1.52057
-1.61727
-1.71816
-1.82079
-1.92376
-2.027
-2.1309
-2.2357
-2.34134
-2.44757
-2.55414
-2.66084
-0.756444
-0.925445
-1.09748
-1.23408
-1.33859
-1.43031
-1.5236
-1.62235
-1.72452
-1.82756
-1.9306
-2.03393
-2.13806
-2.2431
-2.34889
-2.45517
-2.56167
-2.66807
-0.681344
-0.861157
-1.06866
-1.22289
-1.32843
-1.4197
-1.51531
-1.61678
-1.72056
-1.82442
-1.92807
-2.03197
-2.13659
-2.242
-2.34804
-2.45445
-2.56107
-2.66789
-0.664334
-0.865778
-1.08056
-1.22709
-1.32752
-1.41901
-1.51606
-1.61823
-1.72214
-1.82602
-1.92974
-2.03378
-2.13859
-2.24418
-2.35042
-2.45681
-2.56327
-2.66936
-0.40145
-0.82647
-1.08547
-1.22149
-1.31829
-1.41229
-1.51152
-1.61458
-1.71885
-1.82298
-1.92694
-2.03117
-2.13615
-2.24185
-2.34818
-2.45448
-2.56071
-2.66582
-5.15724
-5.31519
-5.48038
-5.54128
-5.45876
-5.27455
-5.09141
-5.01885
-5.12054
-5.40031
-5.82769
-6.34837
-6.91975
-7.47914
-7.99769
-8.46041
-8.85794
-9.1792
-9.41714
-9.57507
-9.66763
-9.70061
-9.68644
-9.64276
-9.59376
-9.56705
-9.59277
-9.67208
-9.7778
-9.88542
-9.9961
-10.1305
-10.3024
-10.4919
-10.6739
-10.8413
-10.9983
-11.2129
-11.5394
-11.9394
-12.3255
-12.6717
-13.0284
-13.4714
-14.0536
-14.7221
-15.3955
-16.0549
-16.6345
-17.0726
-17.4876
-17.9025
-18.3402
-18.7629
-19.1389
-19.4163
-19.5596
-19.6447
-19.7139
-19.7556
-19.7355
-19.65
-19.414
-19.0866
-18.7764
-18.5244
-18.3029
-18.0999
-17.8969
-17.6909
-17.4873
-17.3112
-17.1968
-17.1839
-17.2726
-17.4022
-17.484
-17.4415
-17.2072
-16.805
-16.3286
-15.8904
-15.4678
-14.9851
-14.4253
-13.8616
-13.2476
-12.5925
-11.9793
-11.6288
-11.5453
-11.5444
-11.4938
-11.3316
-11.032
-10.5936
-10.0228
-9.32754
-8.50032
-7.51391
-6.31693
-4.88579
-3.23721
-1.47963
0.221694
1.7367
3.27003
4.58098
5.26584
5.38057
5.07338
4.45608
3.69727
2.96452
2.39482
2.08262
2.09034
2.44663
3.15682
4.2045
5.54793
7.1221
8.84598
10.6313
12.3932
14.0627
15.5924
16.9562
18.1423
19.1473
19.9728
20.6241
21.11
21.4454
21.6514
21.7557
21.7857
21.764
21.71
21.6358
21.5475
21.4467
21.3323
21.2016
21.0529
20.8862
20.7038
20.5095
20.3083
20.1063
19.9105
19.7265
19.5592
19.4118
19.2851
19.177
19.083
18.9965
18.9109
18.8238
18.7407
18.6759
18.6367
18.608
18.5806
18.5543
18.5145
18.4535
18.3719
18.2813
18.1909
18.1079
18.0447
18.0003
17.9472
17.8915
17.8711
17.8752
17.9228
17.9761
-5.84846
-5.99874
-6.15569
-6.25196
-6.19622
-6.06536
-5.95422
-5.95605
-6.11677
-6.43117
-6.86054
-7.35034
-7.85832
-8.34435
-8.78961
-9.18809
-9.52972
-9.80839
-10.0219
-10.1816
-10.2783
-10.3228
-10.3397
-10.3321
-10.304
-10.2939
-10.3067
-10.3574
-10.426
-10.5143
-10.6709
-10.878
-11.1085
-11.344
-11.5743
-11.8017
-12.0244
-12.2749
-12.6009
-13.0248
-13.4686
-13.8602
-14.235
-14.6446
-15.1746
-15.7744
-16.4132
-17.0849
-17.7022
-18.2962
-18.8149
-19.2941
-19.7428
-20.1281
-20.4282
-20.6581
-20.7775
-20.8167
-20.8241
-20.787
-20.6743
-20.5357
-20.3385
-20.0673
-19.8241
-19.6155
-19.429
-19.2488
-19.0594
-18.855
-18.641
-18.4532
-18.3308
-18.301
-18.3593
-18.454
-18.5173
-18.4606
-18.2007
-17.743
-17.1615
-16.5957
-16.0862
-15.5547
-14.9475
-14.3424
-13.7901
-13.2771
-12.8164
-12.5322
-12.4189
-12.3352
-12.1958
-11.9472
-11.5739
-11.0778
-10.4663
-9.74733
-8.91537
-7.94291
-6.7685
-5.35529
-3.69595
-1.90329
-0.0892329
1.40922
2.72424
3.7734
4.27735
4.33198
4.01877
3.45352
2.78251
2.15699
1.69564
1.47916
1.56333
1.97877
2.73231
3.81181
5.18222
6.78328
8.53567
10.3506
12.1404
13.8334
15.381
16.7577
17.9535
18.9673
19.8018
20.463
20.9594
21.3053
21.5199
21.6335
21.6726
21.6602
21.6151
21.5495
21.4692
21.3756
21.2673
21.1416
20.9966
20.8321
20.6504
20.4554
20.2525
20.0478
19.8483
19.6596
19.4862
19.3309
19.1944
19.0743
18.9666
18.867
18.7723
18.6842
18.6115
18.5651
18.538
18.5023
18.4591
18.4209
18.3705
18.3
18.2134
18.1248
18.047
17.9847
17.9419
17.9096
17.8612
17.8101
17.801
17.804
17.8482
17.8536
-5.65982
-5.73531
-5.92962
-6.19063
-6.44509
-6.67848
-6.92245
-7.21563
-7.5798
-8.00452
-8.45302
-8.88539
-9.30155
-9.70653
-10.0657
-10.3735
-10.6336
-10.8426
-11.0084
-11.1433
-11.2451
-11.3119
-11.3502
-11.3685
-11.3693
-11.3715
-11.375
-11.3858
-11.4206
-11.4891
-11.6062
-11.7708
-11.9766
-12.2137
-12.4723
-12.739
-13.0469
-13.4347
-13.8887
-14.3868
-14.8699
-15.3005
-15.6739
-16.0889
-16.6111
-17.1902
-17.8419
-18.5895
-19.3223
-20.0218
-20.6557
-21.1943
-21.6262
-21.9566
-22.2058
-22.3679
-22.4449
-22.442
-22.363
-22.2222
-22.0504
-21.8731
-21.7137
-21.5584
-21.4172
-21.2853
-21.1534
-21.0068
-20.8296
-20.6151
-20.3761
-20.16
-20.0081
-19.9345
-19.9233
-19.9309
-19.8998
-19.7484
-19.4032
-18.8858
-18.2291
-17.5296
-16.912
-16.3112
-15.6922
-15.1225
-14.6853
-14.3426
-14.0666
-13.848
-13.6608
-13.453
-13.1879
-12.8339
-12.3789
-11.821
-11.1656
-10.4203
-9.58386
-8.62883
-7.48197
-6.09644
-4.46308
-2.66785
-0.902193
0.55335
1.65063
2.37933
2.72058
2.72644
2.43902
1.96674
1.43046
0.952248
0.624572
0.51746
0.681629
1.15172
1.94762
3.06739
4.48021
6.12861
7.93371
9.80351
11.6456
13.3828
14.9643
16.3649
17.5783
18.6073
19.4578
20.1364
20.6512
21.0146
21.2471
21.3793
21.4371
21.4442
21.4188
21.372
21.3091
21.231
21.1359
21.0208
20.8838
20.7247
20.5459
20.3518
20.148
19.9412
19.7381
19.5443
19.3647
19.2026
19.0584
18.9307
18.8163
18.7118
18.6149
18.5271
18.4532
18.3975
18.3576
18.3263
18.2982
18.2633
18.2088
18.1358
18.0536
17.9724
17.8987
17.8353
17.786
17.7504
17.7191
17.6878
17.6821
17.6726
17.7
17.682
-5.63016
-5.71049
-5.99208
-6.42542
-6.94881
-7.50366
-8.05089
-8.58388
-9.09978
-9.58843
-10.0355
-10.4303
-10.7751
-11.0675
-11.3055
-11.5169
-11.7122
-11.8812
-12.0352
-12.174
-12.2958
-12.3978
-12.4789
-12.5428
-12.5951
-12.6336
-12.661
-12.6758
-12.6821
-12.6896
-12.7151
-12.7778
-12.8937
-13.0674
-13.2987
-13.5995
-14.0003
-14.5194
-15.1257
-15.7501
-16.3349
-16.8643
-17.3322
-17.8085
-18.3679
-19.0257
-19.7654
-20.5541
-21.3346
-22.0631
-22.7068
-23.254
-23.6955
-24.0372
-24.2911
-24.4446
-24.4902
-24.4281
-24.274
-24.0622
-23.8478
-23.679
-23.554
-23.4503
-23.3602
-23.2745
-23.1805
-23.0601
-22.8926
-22.6671
-22.4006
-22.1402
-21.9286
-21.7737
-21.6622
-21.5713
-21.4346
-21.1656
-20.7146
-20.1159
-19.3685
-18.5666
-17.8681
-17.266
-16.7011
-16.2261
-15.8858
-15.6504
-15.4465
-15.2401
-15.0103
-14.732
-14.3869
-13.9563
-13.4329
-12.8178
-12.1184
-11.3449
-10.5014
-9.56075
-8.43527
-7.06131
-5.44629
-3.6963
-2.05528
-0.745939
0.148692
0.682572
0.888688
0.819023
0.540484
0.149288
-0.260631
-0.596594
-0.789839
-0.784435
-0.534585
0.000302035
0.847994
2.01555
3.47926
5.18609
7.05817
9.00087
10.9152
12.716
14.347
15.7836
17.0234
18.0753
18.949
19.6523
20.1926
20.5812
20.8403
20.9993
21.0849
21.1207
21.1236
21.104
21.0665
21.0112
20.9355
20.8364
20.7117
20.5614
20.3882
20.1967
19.9928
19.7833
19.5761
19.3773
19.1918
19.0229
18.8716
18.7372
18.6176
18.5103
18.4137
18.3284
18.2566
18.1997
18.1565
18.1202
18.083
18.0398
17.9881
17.9207
17.8419
17.7646
17.6977
17.6423
17.6006
17.5702
17.5448
17.5182
17.5147
17.509
17.5296
17.4992
-5.80523
-6.01803
-6.49835
-7.14625
-7.86447
-8.58667
-9.27602
-9.91582
-10.495
-11.01
-11.4603
-11.8393
-12.1451
-12.3846
-12.5762
-12.7466
-12.9084
-13.0635
-13.2168
-13.3709
-13.5181
-13.6542
-13.7801
-13.8961
-14.0017
-14.0943
-14.1674
-14.2121
-14.2239
-14.2038
-14.1648
-14.1341
-14.1467
-14.2339
-14.4182
-14.7226
-15.172
-15.7621
-16.4426
-17.1487
-17.8287
-18.4739
-19.0949
-19.724
-20.4013
-21.1547
-21.98
-22.8379
-23.6789
-24.4625
-25.1556
-25.7399
-26.2026
-26.5503
-26.7922
-26.9186
-26.9219
-26.806
-26.597
-26.3396
-26.1043
-25.9224
-25.7713
-25.6347
-25.5109
-25.3938
-25.2706
-25.1222
-24.9287
-24.6764
-24.3748
-24.0588
-23.7551
-23.4716
-23.2121
-22.9703
-22.7007
-22.3302
-21.8142
-21.165
-20.3798
-19.5553
-18.8425
-18.2836
-17.833
-17.4845
-17.2351
-17.0462
-16.8658
-16.6656
-16.4217
-16.1133
-15.7252
-15.245
-14.6697
-14.0058
-13.268
-12.4733
-11.6323
-10.7101
-9.59328
-8.20704
-6.60026
-4.93824
-3.45164
-2.31703
-1.57552
-1.17605
-1.09147
-1.24637
-1.54107
-1.88181
-2.19234
-2.40782
-2.48075
-2.36978
-2.03532
-1.43431
-0.532617
0.684097
2.19938
3.96778
5.91563
7.94579
9.95044
11.8333
13.5303
15.016
16.2929
17.376
18.2799
19.0141
19.585
20.0048
20.2964
20.4889
20.6101
20.6829
20.7227
20.7388
20.7342
20.7083
20.658
20.5798
20.4715
20.3333
20.1679
19.9801
19.7771
19.5669
19.3567
19.1534
18.9622
18.7869
18.6293
18.4893
18.3655
18.2561
18.1599
18.0767
18.0073
17.9521
17.9098
17.875
17.8383
17.7953
17.7439
17.6785
17.6007
17.5211
17.4539
17.4045
17.3728
17.3556
17.3479
17.3387
17.3474
17.3509
17.369
17.3428
-6.31214
-6.69456
-7.3644
-8.11553
-8.90107
-9.66616
-10.3761
-11.042
-11.6578
-12.2159
-12.7105
-13.1317
-13.4746
-13.7416
-13.9505
-14.1353
-14.3141
-14.4909
-14.6699
-14.8561
-15.0413
-15.2215
-15.3941
-15.5563
-15.7053
-15.8361
-15.9405
-16.0096
-16.0362
-16.0186
-15.9662
-15.9049
-15.8752
-15.9236
-16.0886
-16.4064
-16.8843
-17.5072
-18.2279
-18.9958
-19.771
-20.5371
-21.2986
-22.0713
-22.8776
-23.7367
-24.6421
-25.5599
-26.4507
-27.2795
-28.0157
-28.6388
-29.1276
-29.4752
-29.6882
-29.7678
-29.7153
-29.5421
-29.2768
-28.9799
-28.7149
-28.4771
-28.2409
-27.9987
-27.7562
-27.5142
-27.2701
-27.0159
-26.7388
-26.4244
-26.0667
-25.6754
-25.2526
-24.8044
-24.3606
-23.9379
-23.5078
-23.0244
-22.4553
-21.793
-21.047
-20.3038
-19.6795
-19.2302
-18.923
-18.7067
-18.5448
-18.4026
-18.2553
-18.0792
-17.8468
-17.5377
-17.1357
-16.6301
-16.0217
-15.3219
-14.5541
-13.7463
-12.9153
-12.013
-10.8937
-9.49184
-7.91382
-6.36669
-5.03503
-4.04809
-3.4148
-3.11408
-3.12774
-3.35529
-3.67753
-3.99627
-4.24209
-4.36762
-4.3413
-4.1366
-3.7237
-3.06138
-2.111
-0.853417
0.704777
2.52925
4.5544
6.68069
8.78764
10.7644
12.5384
14.0823
15.4023
16.5207
17.4577
18.2253
18.8295
19.2839
19.6126
19.8453
20.0098
20.1276
20.2124
20.2712
20.3061
20.3153
20.2954
20.2429
20.1551
20.0322
19.8771
19.696
19.4963
19.2868
19.0753
18.8691
18.6738
18.4937
18.3309
18.1861
18.0587
17.9477
17.852
17.7712
17.7051
17.6534
17.6147
17.5843
17.5543
17.5191
17.4744
17.4156
17.3435
17.2656
17.195
17.1426
17.115
17.1075
17.1154
17.1265
17.1553
17.1802
17.2148
17.2094
-7.30131
-7.73307
-8.39225
-9.09344
-9.81461
-10.5413
-11.2493
-11.929
-12.5684
-13.1682
-13.7181
-14.2064
-14.6246
-14.9713
-15.2571
-15.5144
-15.769
-16.0263
-16.2866
-16.5499
-16.8077
-17.0544
-17.2859
-17.4968
-17.6822
-17.8359
-17.9542
-18.0336
-18.0726
-18.073
-18.0436
-18.0054
-17.9954
-18.0646
-18.2608
-18.6205
-19.1428
-19.8048
-20.5727
-21.4097
-22.2796
-23.1614
-24.0491
-24.947
-25.8652
-26.8088
-27.7697
-28.7251
-29.6454
-30.5033
-31.2726
-31.9279
-32.4298
-32.7549
-32.9122
-32.9189
-32.7902
-32.542
-32.211
-31.863
-31.5347
-31.1939
-30.8204
-30.4193
-30.0027
-29.5769
-29.1477
-28.7176
-28.2833
-27.8359
-27.3657
-26.8584
-26.2987
-25.6867
-25.0572
-24.447
-23.8611
-23.2781
-22.6752
-22.0389
-21.3864
-20.7902
-20.3316
-20.0403
-19.8854
-19.798
-19.7253
-19.6463
-19.5507
-19.4169
-19.2179
-18.9325
-18.5416
-18.0339
-17.4113
-16.6894
-15.8998
-15.0825
-14.2609
-13.3711
-12.2486
-10.859
-9.35457
-7.93706
-6.744
-5.86211
-5.29859
-5.06332
-5.14145
-5.41984
-5.7719
-6.0864
-6.29497
-6.35858
-6.25735
-5.97618
-5.49539
-4.77823
-3.7888
-2.50319
-0.916923
0.950341
3.0434
5.25998
7.46658
9.53677
11.3879
12.9906
14.3546
15.5096
16.4825
17.2849
17.9249
18.4178
18.7888
19.0683
19.2832
19.4531
19.5889
19.696
19.775
19.8238
19.8388
19.816
19.7525
19.6486
19.5079
19.3367
19.1432
18.9373
18.7274
18.5211
18.3243
18.1418
17.976
17.8284
17.6991
17.5876
17.4934
17.4158
17.3541
17.3075
17.2739
17.2496
17.2287
17.2052
17.1738
17.1297
17.0709
17.0006
16.9298
16.8726
16.8404
16.8358
16.8543
16.8836
16.9329
16.9845
17.0486
17.0774
-8.27797
-8.64603
-9.16255
-9.77123
-10.4368
-11.1207
-11.8093
-12.4934
-13.1662
-13.8206
-14.4448
-15.0264
-15.5548
-16.0267
-16.4473
-16.8409
-17.2311
-17.6175
-17.9967
-18.3647
-18.7137
-19.0361
-19.3262
-19.5787
-19.7873
-19.9505
-20.0705
-20.1528
-20.2048
-20.2343
-20.2513
-20.2745
-20.3363
-20.485
-20.7664
-21.2054
-21.7989
-22.5265
-23.364
-24.2807
-25.2434
-26.2293
-27.2242
-28.2208
-29.2182
-30.2164
-31.2124
-32.1931
-33.1334
-34.012
-34.8034
-35.4709
-35.9629
-36.2511
-36.3484
-36.2856
-36.0837
-35.7602
-35.3544
-34.9305
-34.4954
-34.0032
-33.4479
-32.851
-32.2258
-31.5845
-30.9403
-30.3015
-29.668
-29.0327
-28.3855
-27.7087
-26.9832
-26.2066
-25.4134
-24.6481
-23.9369
-23.2778
-22.6598
-22.0775
-21.5503
-21.1251
-20.8525
-20.7294
-20.7157
-20.7367
-20.7437
-20.7296
-20.6916
-20.6089
-20.4584
-20.2166
-19.8575
-19.3664
-18.7443
-18.0115
-17.2069
-16.3792
-15.5593
-14.6749
-13.5672
-12.2342
-10.8471
-9.57005
-8.49326
-7.67978
-7.155
-6.95587
-7.06807
-7.38144
-7.75963
-8.07204
-8.25318
-8.27488
-8.12091
-7.78018
-7.24024
-6.47745
-5.46055
-4.16135
-2.56492
-0.67563
1.46237
3.74689
6.03357
8.18325
10.1033
11.7599
13.1657
14.3591
15.368
16.2062
16.8834
17.417
17.8343
18.1659
18.4369
18.6639
18.8553
19.0146
19.1412
19.2329
19.2859
19.2959
19.2603
19.1794
19.0567
18.8992
18.7158
18.5172
18.3124
18.1094
17.9146
17.7328
17.5671
17.4193
17.2901
17.1799
17.0887
17.0156
16.9594
16.9186
16.8911
16.8737
16.8618
16.8497
16.8328
16.8062
16.7666
16.7133
16.6527
16.5966
16.56
16.5512
16.5731
16.6142
16.6803
16.7566
16.8519
16.9184
-8.80597
-9.09094
-9.5091
-10.0386
-10.6522
-11.3159
-12.0059
-12.7101
-13.4257
-14.1467
-14.8606
-15.5553
-16.2185
-16.845
-17.4317
-17.994
-18.5493
-19.092
-19.6123
-20.1017
-20.5529
-20.9595
-21.3159
-21.6151
-21.8531
-22.0323
-22.1639
-22.2639
-22.3482
-22.4306
-22.5224
-22.6416
-22.8147
-23.0825
-23.483
-24.0294
-24.7158
-25.5253
-26.439
-27.4294
-28.467
-29.5288
-30.5954
-31.655
-32.702
-33.7363
-34.7625
-35.7728
-36.7427
-37.6515
-38.4684
-39.147
-39.6337
-39.9018
-39.9644
-39.8512
-39.583
-39.1798
-38.6813
-38.1454
-37.553
-36.859
-36.0845
-35.2662
-34.416
-33.5484
-32.678
-31.8114
-30.9483
-30.085
-29.2167
-28.3337
-27.4256
-26.4949
-25.5702
-24.6955
-23.9054
-23.2118
-22.6108
-22.0998
-21.6958
-21.4278
-21.318
-21.3427
-21.442
-21.5425
-21.6074
-21.6451
-21.6586
-21.6278
-21.5343
-21.3489
-21.0345
-20.5708
-19.9578
-19.2215
-18.407
-17.5675
-16.7412
-15.8627
-14.7951
-13.5584
-12.3137
-11.1758
-10.193
-9.42295
-8.91714
-8.73659
-8.86773
-9.20639
-9.60315
-9.90648
-10.0583
-10.0448
-9.85132
-9.4634
-8.87473
-8.07716
-7.0451
-5.74601
-4.15567
-2.26576
-0.1102
2.21093
4.54683
6.75061
8.72178
10.4215
11.8645
13.0919
14.1337
15.0049
15.7184
16.2943
16.7621
17.1509
17.4827
17.7704
18.0204
18.2336
18.4092
18.545
18.6376
18.683
18.6779
18.6226
18.5212
18.3807
18.2112
18.0236
17.8274
17.6311
17.4414
17.2637
17.1016
16.9571
16.8319
16.7265
16.6409
16.574
16.5244
16.4903
16.4696
16.4595
16.4558
16.4537
16.4487
16.4373
16.4165
16.3844
16.3432
16.2999
16.2677
16.259
16.2817
16.3305
16.4087
16.5029
16.6219
16.7216
-8.85321
-9.07682
-9.43793
-9.92782
-10.5189
-11.1792
-11.8838
-12.6229
-13.3955
-14.1961
-15.0118
-15.829
-16.6344
-17.4194
-18.1771
-18.9145
-19.6368
-20.3344
-20.995
-21.6096
-22.1715
-22.6741
-23.1118
-23.4777
-23.7717
-24.0023
-24.1875
-24.3504
-24.5104
-24.6841
-24.8836
-25.1261
-25.438
-25.8486
-26.38
-27.0376
-27.8166
-28.7022
-29.6815
-30.7295
-31.8221
-32.9371
-34.0562
-35.1679
-36.2664
-37.3525
-38.4337
-39.4949
-40.509
-41.4552
-42.3012
-42.9925
-43.4737
-43.7212
-43.7507
-43.5873
-43.2469
-42.7502
-42.1368
-41.4533
-40.6661
-39.744
-38.7302
-37.6714
-36.5809
-35.4745
-34.3682
-33.2662
-32.1657
-31.0627
-29.959
-28.8592
-27.7695
-26.701
-25.6791
-24.7396
-23.9163
-23.2267
-22.6702
-22.2404
-21.9441
-21.7965
-21.8045
-21.9346
-22.1114
-22.2584
-22.3546
-22.4257
-22.478
-22.4912
-22.4529
-22.3257
-22.0591
-21.6271
-21.0283
-20.2922
-19.469
-18.6154
-17.7772
-16.9067
-15.8994
-14.781
-13.6843
-12.6726
-11.7619
-11.0201
-10.5271
-10.3604
-10.5057
-10.8618
-11.2677
-11.5601
-11.6826
-11.6341
-11.407
-10.983
-10.3577
-9.53611
-8.49899
-7.20927
-5.63459
-3.75749
-1.60468
0.723306
3.07337
5.29808
7.29422
9.01905
10.4871
11.7393
12.807
13.7074
14.4564
15.0775
15.6
16.0499
16.4444
16.7932
17.0997
17.3647
17.5878
17.7677
17.9008
17.9827
18.0095
17.9818
17.9034
17.7817
17.6275
17.4525
17.2672
17.0801
16.8988
16.7292
16.5751
16.4395
16.3237
16.2276
16.1508
16.0923
16.0507
16.0244
16.0113
16.0086
16.012
16.0171
16.0199
16.0179
16.0099
15.9959
15.9772
15.9572
15.9438
15.9472
15.9787
16.0368
16.1262
16.2347
16.3698
16.493
-8.54142
-8.73431
-9.07222
-9.5497
-10.1445
-10.8287
-11.5792
-12.3831
-13.2357
-14.1296
-15.0527
-15.9904
-16.9297
-17.8592
-18.7706
-19.6649
-20.5384
-21.3781
-22.1692
-22.9027
-23.5736
-24.177
-24.7082
-25.1632
-25.5442
-25.8626
-26.1401
-26.4029
-26.6714
-26.9608
-27.2847
-27.6598
-28.1071
-28.6462
-29.291
-30.0443
-30.903
-31.8601
-32.9062
-34.0203
-35.1799
-36.3635
-37.555
-38.7434
-39.9219
-41.0888
-42.2475
-43.3727
-44.4371
-45.4208
-46.2851
-46.9719
-47.4302
-47.6413
-47.6224
-47.396
-46.9724
-46.3683
-45.6219
-44.7727
-43.7836
-42.6349
-41.3781
-40.0681
-38.7244
-37.3651
-36.0124
-34.6718
-33.3388
-32.009
-30.6867
-29.3854
-28.1285
-26.9415
-25.8521
-24.8869
-24.0692
-23.411
-22.9089
-22.552
-22.3405
-22.2799
-22.3687
-22.5641
-22.7815
-22.9398
-23.0353
-23.1157
-23.1895
-23.2323
-23.2373
-23.1579
-22.9313
-22.5273
-21.9419
-21.2086
-20.3788
-19.5114
-18.658
-17.7948
-16.8529
-15.8497
-14.8861
-13.9783
-13.1263
-12.4112
-11.9363
-11.7889
-11.9483
-12.3159
-12.7274
-13.0106
-13.1111
-13.0338
-12.7807
-12.3302
-11.6775
-10.8379
-9.79994
-8.52247
-6.96461
-5.10395
-2.96744
-0.65835
1.67294
3.88493
5.87615
7.60295
9.07907
10.344
11.4294
12.3542
13.1372
13.8036
14.3807
14.8895
15.3425
15.7458
16.1027
16.4146
16.6827
16.9062
17.0806
17.1998
17.2597
17.2603
17.205
17.1014
16.9616
16.7991
16.6256
16.4502
16.2808
16.124
15.9842
15.8636
15.7626
15.6803
15.6161
15.569
15.5379
15.5214
15.5168
15.5208
15.5289
15.5372
15.5423
15.5429
15.5407
15.5385
15.5399
15.5475
15.5647
15.5963
15.6511
15.73
15.8358
15.9598
16.1078
16.2471
-8.0975
-8.27701
-8.61337
-9.10399
-9.73206
-10.4719
-11.2985
-12.1934
-13.1459
-14.1452
-15.1781
-16.2306
-17.2896
-18.3433
-19.3821
-20.401
-21.3894
-22.3342
-23.2241
-24.0534
-24.8186
-25.5139
-26.1355
-26.6817
-27.1551
-27.5675
-27.9406
-28.2999
-28.6661
-29.0577
-29.4922
-29.9877
-30.5593
-31.2158
-31.9643
-32.8085
-33.7471
-34.7813
-35.9021
-37.0903
-38.3234
-39.5801
-40.8459
-42.1122
-43.372
-44.6154
-45.8341
-47.0046
-48.1073
-49.1278
-50.0234
-50.7304
-51.1975
-51.4034
-51.3551
-51.0721
-50.5677
-49.8572
-48.9767
-47.9633
-46.7797
-45.414
-43.9222
-42.3625
-40.7682
-39.1608
-37.5629
-35.9896
-34.4407
-32.9111
-31.4064
-29.9449
-28.5579
-27.2817
-26.1486
-25.1794
-24.3857
-23.768
-23.3191
-23.0241
-22.8768
-22.8767
-23.0155
-23.2408
-23.4666
-23.6128
-23.6879
-23.7555
-23.828
-23.8826
-23.9062
-23.85
-23.6466
-23.261
-22.6884
-21.9629
-21.134
-20.2562
-19.3826
-18.5147
-17.6177
-16.7027
-15.8454
-15.0226
-14.2282
-13.5493
-13.1044
-12.9863
-13.1622
-13.5348
-13.9479
-14.2283
-14.3206
-14.2286
-13.9576
-13.488
-12.8152
-11.9612
-10.9207
-9.65224
-8.1082
-6.26593
-4.15858
-1.89055
0.393546
2.56206
4.51912
6.22362
7.68906
8.95277
10.0451
10.9863
11.7977
12.5044
13.1295
13.6882
14.1885
14.6361
15.0355
15.3901
15.7007
15.9666
16.1822
16.3386
16.4304
16.4569
16.4228
16.3361
16.21
16.0604
15.9007
15.7405
15.5878
15.449
15.3285
15.2272
15.1446
15.0797
15.0317
14.9997
14.9823
14.9774
14.9814
14.9898
14.9991
15.0057
15.0076
15.0053
15.0031
15.0072
15.0241
15.058
15.1117
15.1851
15.2805
15.3953
15.5309
15.6777
15.841
15.9941
-7.68026
-7.85888
-8.2117
-8.74027
-9.43104
-10.2578
-11.1908
-12.2042
-13.2787
-14.3982
-15.5466
-16.7077
-17.8664
-19.0099
-20.1294
-21.2183
-22.2652
-23.2587
-24.1918
-25.0621
-25.8685
-26.607
-27.2758
-27.8748
-28.4079
-28.8875
-29.3358
-29.7782
-30.2373
-30.7342
-31.2869
-31.9073
-32.6
-33.3666
-34.2105
-35.1354
-36.1451
-37.2441
-38.4248
-39.6682
-40.952
-42.2585
-43.5777
-44.9035
-46.2302
-47.5385
-48.8057
-50.0145
-51.1536
-52.2078
-53.141
-53.891
-54.4027
-54.6429
-54.6055
-54.3015
-53.7493
-52.9653
-51.9771
-50.817
-49.459
-47.9039
-46.2072
-44.4234
-42.5981
-40.7649
-38.9474
-37.1676
-35.4309
-33.7369
-32.095
-30.5226
-29.0535
-27.729
-26.582
-25.627
-24.864
-24.2899
-23.8896
-23.6443
-23.5476
-23.5899
-23.7533
-23.9771
-24.1812
-24.2933
-24.3285
-24.3545
-24.3979
-24.439
-24.4556
-24.4
-24.2067
-23.8354
-23.2787
-22.5672
-21.7439
-20.8551
-19.9482
-19.0524
-18.1647
-17.3011
-16.5165
-15.7638
-15.0353
-14.4095
-14.0075
-13.9234
-14.1145
-14.482
-14.8885
-15.1732
-15.2699
-15.1742
-14.8906
-14.4089
-13.7275
-12.865
-11.8199
-10.555
-9.02298
-7.20608
-5.14347
-2.93985
-0.730239
1.36611
3.2618
4.92041
6.35577
7.60202
8.68743
9.63371
10.4638
11.2007
11.8613
12.4557
12.9904
13.4728
13.9088
14.3015
14.6521
14.959
15.2131
15.4021
15.5196
15.5666
15.5496
15.4782
15.3665
15.2329
15.0919
14.953
14.8226
14.7064
14.6078
14.5274
14.465
14.4201
14.3918
14.3782
14.3765
14.383
14.3928
14.402
14.4081
14.409
14.4039
14.3953
14.39
14.3969
14.4257
14.4838
14.5752
14.6977
14.8471
15.0151
15.197
15.3812
15.5687
15.7378
-7.33945
-7.52981
-7.91857
-8.50809
-9.28651
-10.223
-11.2802
-12.4244
-13.6268
-14.8635
-16.112
-17.3533
-18.5702
-19.75
-20.8862
-21.9746
-23.0071
-23.9763
-24.8785
-25.7172
-26.4978
-27.2235
-27.8972
-28.5205
-29.0973
-29.6383
-30.1625
-30.6928
-31.2492
-31.8491
-32.5041
-33.2198
-33.996
-34.8327
-35.7344
-36.7078
-37.7619
-38.9026
-40.1238
-41.4072
-42.7321
-44.0835
-45.4541
-46.8356
-48.221
-49.5895
-50.9079
-52.1545
-53.3277
-54.4098
-55.3743
-56.1672
-56.7339
-57.0356
-57.0507
-56.7752
-56.2274
-55.4214
-54.3788
-53.1212
-51.6349
-49.9359
-48.0806
-46.1203
-44.1093
-42.0948
-40.1045
-38.1615
-36.2767
-34.4557
-32.7161
-31.081
-29.5807
-28.2505
-27.1186
-26.1955
-25.4735
-24.9414
-24.583
-24.3837
-24.3282
-24.3937
-24.5507
-24.7402
-24.8984
-24.9642
-24.9448
-24.9062
-24.8931
-24.8943
-24.88
-24.8062
-24.6146
-24.2619
-23.7311
-23.04
-22.2203
-21.311
-20.3552
-19.4079
-18.489
-17.6414
-16.8958
-16.2018
-15.5473
-14.9881
-14.6379
-14.5817
-14.7774
-15.124
-15.5089
-15.7933
-15.8986
-15.8062
-15.5207
-15.0399
-14.3614
-13.4986
-12.451
-11.1876
-9.67148
-7.8928
-5.89531
-3.78138
-1.67455
0.32138
2.12999
3.72033
5.10563
6.3162
7.37845
8.3159
9.15176
9.90433
10.5849
11.2007
11.7592
12.269
12.7369
13.1648
13.5521
13.8948
14.1801
14.3925
14.526
14.5853
14.5791
14.5195
14.4238
14.3115
14.1963
14.0851
13.9824
13.8921
13.8171
13.7591
13.719
13.6966
13.6902
13.6961
13.709
13.7233
13.7346
13.7403
13.7397
13.7321
13.718
13.7019
13.6926
13.7017
13.742
13.8236
13.9524
14.1265
14.3385
14.5735
14.8189
15.0569
15.2831
15.4771
-6.9973
-7.20664
-7.64091
-8.29872
-9.17043
-10.2194
-11.4008
-12.6701
-13.9891
-15.3252
-16.6522
-17.9491
-19.1957
-20.3747
-21.4774
-22.505
-23.4629
-24.3538
-25.1789
-25.945
-26.6631
-27.3436
-27.9948
-28.6182
-29.2143
-29.7874
-30.3499
-30.9208
-31.5192
-32.16
-32.8544
-33.6082
-34.422
-35.2977
-36.2404
-37.2564
-38.3517
-39.5304
-40.7866
-42.1037
-43.4623
-44.848
-46.2552
-47.6749
-49.0959
-50.504
-51.864
-53.1481
-54.3519
-55.4664
-56.4701
-57.3163
-57.9516
-58.3327
-58.4285
-58.2253
-57.7309
-56.9629
-55.9346
-54.6506
-53.1043
-51.331
-49.3932
-47.3375
-45.2189
-43.0939
-40.997
-38.9525
-36.974
-35.0739
-33.282
-31.6244
-30.1285
-28.8247
-27.7346
-26.8592
-26.1838
-25.6984
-25.3849
-25.2179
-25.1802
-25.2427
-25.3573
-25.4749
-25.562
-25.5677
-25.4846
-25.3728
-25.2862
-25.2255
-25.1629
-25.0587
-24.8645
-24.5376
-24.045
-23.3807
-22.5588
-21.6137
-20.5976
-19.5844
-18.6117
-17.7545
-17.0167
-16.3684
-15.7863
-15.3006
-14.9995
-14.9559
-15.134
-15.4393
-15.7809
-16.0492
-16.1578
-16.0744
-15.7975
-15.3286
-14.6666
-13.8173
-12.7765
-11.5219
-10.0311
-8.30699
-6.39848
-4.40127
-2.42376
-0.554637
1.14243
2.64216
3.95646
5.11144
6.13294
7.0462
7.87291
8.62609
9.31271
9.93929
10.5142
11.047
11.5432
12.0019
12.42
12.7897
13.0941
13.3169
13.4542
13.5141
13.5102
13.459
13.3808
13.2945
13.2103
13.1308
13.0587
12.9969
12.9486
12.9166
12.9019
12.9038
12.9189
12.9413
12.964
12.981
12.9888
12.9872
12.9777
12.9605
12.9371
12.914
12.9022
12.9156
12.9693
13.0761
13.2436
13.4712
13.7502
14.0615
14.3841
14.6922
14.9731
15.2048
-6.46539
-6.70247
-7.18473
-7.90867
-8.87099
-10.0294
-11.3357
-12.7368
-14.1858
-15.6404
-17.0632
-18.422
-19.6883
-20.8388
-21.8672
-22.7853
-23.6143
-24.3711
-25.0632
-25.6987
-26.2913
-26.8578
-27.4118
-27.9582
-28.4957
-29.0263
-29.5624
-30.1194
-30.7158
-31.366
-32.0798
-32.8611
-33.7104
-34.6274
-35.6149
-36.6739
-37.805
-39.0114
-40.2888
-41.624
-43.001
-44.4062
-45.8328
-47.2727
-48.7138
-50.1459
-51.5376
-52.861
-54.1006
-55.2541
-56.3028
-57.213
-57.9279
-58.3988
-58.5917
-58.4908
-58.0977
-57.4246
-56.4803
-55.2573
-53.7486
-51.9992
-50.0757
-48.0233
-45.8929
-43.7421
-41.6121
-39.5332
-37.5227
-35.5986
-33.7952
-32.1464
-30.6792
-29.4197
-28.3874
-27.5759
-26.9589
-26.5202
-26.243
-26.1052
-26.0722
-26.1064
-26.1548
-26.1709
-26.148
-26.0642
-25.9036
-25.7149
-25.5466
-25.4089
-25.2858
-25.1449
-24.9462
-24.6476
-24.2005
-23.5673
-22.7423
-21.7556
-20.6759
-19.5923
-18.5652
-17.6794
-16.9286
-16.3098
-15.7883
-15.3708
-15.107
-15.0529
-15.1862
-15.4279
-15.7055
-15.9337
-16.0324
-15.9577
-15.6985
-15.2555
-14.6257
-13.8034
-12.7811
-11.5477
-10.0984
-8.45121
-6.65878
-4.80539
-2.98209
-1.26358
0.298518
1.68491
2.90595
3.985
4.94911
5.8243
6.62845
7.36957
8.05202