/*--------------------------------*- C++ -*----------------------------------*\
  =========                 |
  \\      /  F ield         | OpenFOAM: The Open Source CFD Toolbox
   \\    /   O peration     | Website:  https://openfoam.org
    \\  /    A nd           | Version:  9
     \\/     M anipulation  |
\*---------------------------------------------------------------------------*/
FoamFile
{
    format      ascii;
    class       volScalarField;
    location    "0.099";
    object      pPrime2Mean;
}
// * * * * * * * * * * * * * * * * * * * * * * * * * * * * * * * * * * * * * //

dimensions      [0 4 -4 0 0 0 0];

internalField   nonuniform List<scalar> 
12225
(
293158
290372
287139
283645
280003
276295
272575
268877
265221
261617
258066
254564
251099
247649
244181
240639
236904
232702
293189
290401
287161
283663
280017
276307
272585
268887
265231
261627
258078
254578
251115
247671
244213
240690
237007
233000
293288
290465
287210
283702
280049
276334
272609
268909
265252
261650
258103
254607
251152
247719
244282
240798
237207
233456
293432
290572
287292
283767
280102
276379
272649
268946
265289
261688
258145
254656
251212
247798
244392
240967
237494
233989
293659
290727
287411
283862
280181
276446
272708
269000
265342
261743
258206
254727
251300
247911
244548
241194
237849
234560
293961
290942
287577
283995
280289
276537
272789
269075
265416
261819
258289
254824
251417
248062
244749
241476
238258
235152
294339
291219
287795
284169
280432
276658
272896
269174
265512
261919
258399
254949
251568
248251
244996
241808
238710
235754
294762
291572
288076
284393
280616
276814
273032
269300
265635
262046
258536
255106
251755
248481
245286
242183
239194
236363
295301
292014
288426
284674
280846
277008
273203
269458
265788
262203
258706
255297
251978
248750
245619
242596
239705
236978
295966
292559
288858
285019
281127
277245
273411
269650
265975
262393
258909
255524
252240
249059
245990
243043
240238
237598
296823
293225
289383
285437
281467
277531
273662
269880
266197
262619
259149
255788
252539
249406
246396
243519
240789
238222
297735
293964
289960
285894
281837
277841
273933
270129
266436
262860
259403
256065
252849
249758
246798
243979
241309
238798
298885
294817
290617
286411
282255
278191
274239
270408
266704
263129
259684
256368
253183
250132
247220
244451
241834
239372
300438
295961
291486
287087
282800
278646
274635
270770
267051
263475
260042
256750
253599
250590
247725
245009
242443
240029
302455
297460
292615
287962
283501
279231
275144
271234
267493
263914
260493
257224
254108
251141
248325
245659
243142
240772
305149
299406
294048
289062
284378
279960
275781
271814
268045
264459
261048
257803
254720
251794
249023
246403
243931
241602
308584
301763
295754
290360
285415
280829
276542
272512
268710
265115
261711
258488
255435
252547
249816
247237
244804
242511
312226
304219
297526
291723
286519
281771
277383
273294
269463
265860
262465
259262
256238
253382
250687
248144
245745
243482
314637
305855
298782
292766
287437
282612
278180
274069
270233
266638
263261
260082
257086
254261
251598
249085
246714
244477
312889
305262
298688
292918
287725
282987
278613
274547
270748
267186
263839
260689
257721
254922
252283
249792
247441
245222
310860
304107
298083
292649
287669
283066
278785
274784
271033
267509
264193
261069
258123
255345
252722
250247
247909
245701
308854
302869
297352
292246
287480
283019
278835
274903
271202
267716
264429
261328
258402
255639
253031
250567
248239
246039
307110
301750
296658
291833
287257
282924
278828
274957
271301
267847
264585
261504
258593
255844
253246
250791
248471
246277
305685
300822
296071
291476
287052
282824
278799
274978
271357
267930
264688
261622
258724
255984
253394
250946
248631
246441
304554
300100
295615
291194
286887
282737
278766
274984
271390
267982
264755
261701
258812
256079
253495
251052
248740
246554
303687
299563
295281
290986
286764
282671
278739
274983
271409
268016
264799
261753
258870
256142
253562
251122
248813
246629
303077
299191
295051
290845
286679
282624
278719
274981
271420
268036
264826
261785
258907
256183
253605
251167
248860
246677
302646
298951
294906
290755
286625
282595
278705
274979
271426
268048
264843
261805
258929
256207
253631
251194
248888
246706
302396
298817
294826
290706
286596
282578
278698
274978
271429
268054
264851
261816
258941
256220
253645
251209
248903
246722
302302
298762
294793
290686
286584
282571
278694
274977
271430
268057
264855
261820
258946
256225
253651
251215
248909
246728
197036
197020
196988
196940
196875
196795
196700
196588
196459
196312
196146
195960
195755
195531
195288
195024
194741
194438
194115
193772
193411
193031
192632
192216
191783
191332
190865
190382
189882
189367
188836
188290
187729
187152
186559
185951
185329
184696
184052
183398
182732
182050
181349
180628
179887
179130
178359
177577
176782
175982
175175
174360
173533
172697
171851
171000
170145
169279
168397
167503
166599
165688
164774
163852
162916
161960
160985
159999
159006
158003
156987
155955
154903
153830
152741
151644
150544
149446
148355
147271
146187
145096
143995
142891
141782
140663
139536
138402
137261
136106
134942
133781
132629
131484
130342
129195
128038
126869
125684
124484
123269
122037
120786
119517
118229
116926
115620
114315
113023
111753
110503
109270
108055
106853
105651
104436
103194
101916
100600
99246.5
97865.1
96467.7
95067.8
93677.4
92304.8
90953.6
89623.1
88310.2
87010.4
85719.4
84432.8
83146.8
81858.6
80566.3
79268.7
77966.1
76659.4
75350.3
74040.8
72733
71429.1
70130.8
68839.3
67555
66278
65007.6
63742.8
62482.5
61226.1
59972.8
58722.2
57474.3
56229.1
54986.9
53748.6
52515.1
51287.5
50066.4
48852.5
47646
46446.6
45253
44064.5
42882.9
41707.8
40537.8
39374.7
38223
37084.7
35960
34847.2
33743
32646.9
31561.6
30488.8
29428.5
28381
27349.6
26338.5
25358.5
197106
197090
197058
197010
196945
196866
196770
196658
196528
196380
196213
196027
195821
195597
195353
195089
194805
194501
194177
193832
193469
193086
192684
192265
191828
191374
190904
190418
189917
189400
188870
188326
187768
187194
186603
185995
185373
184737
184090
183429
182755
182066
181360
180637
179895
179137
178369
177592
176800
175993
175179
174358
173530
172694
171851
171000
170143
169277
168399
167511
166614
165705
164787
163858
162913
161955
160982
159997
159005
158004
156988
155957
154907
153833
152742
151643
150538
149439
148349
147266
146190
145106
144009
142906
141800
140684
139555
138417
137272
136118
134959
133805
132658
131515
130373
129225
128067
126895
125708
124506
123288
122055
120803
119533
118246
116943
115634
114328
113039
111771
110523
109295
108085
106886
105687
104471
103227
101946
100627
99270.6
97886.5
96486.2
95083.4
93690.4
92315.7
90962.9
89631.4
88317.7
87017.4
85725.8
84438.8
83152.6
81864.3
80571.8
79274
77971.2
76664.2
75354.7
74044.7
72736.5
71432.1
70133.4
68841.5
67557.1
66279.8
65009.3
63744.6
62484.4
61228.1
59974.9
58724.6
57476.9
56232
54990.3
53752.4
52519.5
51292.3
50071.6
48857.6
47650.7
46450.2
45255.4
44066.6
42885.5
41711.3
40541.6
39379.3
38228.5
37090.9
35966.8
34853.7
33748.5
32652
31566.2
30493.4
29433
28384.3
27351.6
26338.4
25354
197249
197233
197202
197155
197091
197011
196914
196801
196670
196520
196353
196168
195963
195738
195492
195226
194940
194633
194305
193957
193588
193200
192793
192368
191925
191465
190990
190499
189994
189476
188943
188398
187838
187264
186673
186065
185443
184807
184156
183493
182813
182118
181407
180681
179943
179191
178422
177638
176840
176029
175210
174383
173552
172716
171873
171022
170164
169298
168425
167542
166646
165735
164809
163869
162918
161955
160982
159999
159007
158006
156990
155958
154905
153833
152745
151647
150545
149447
148358
147278
146203
145125
144033
142934
141829
140715
139585
138444
137296
136144
134992
133844
132701
131561
130419
129270
128111
126938
125749
124544
123325
122090
120837
119565
118277
116973
115663
114358
113068
111798
110552
109330
108128
106935
105739
104523
103278
101996
100674
99314.3
97925.8
96520.5
95112.4
93714.6
92336
90980.3
89646.9
88331.8
87030.4
85738.1
84450.5
83163.9
81875.4
80582.7
79284.7
77981.4
76673.8
75363.6
74052.7
72743.5
71438.2
70138.7
68846.1
67561.1
66283.6
65012.9
63748.1
62488
61231.8
59978.8
58728.6
57481.2
56236.7
54995.3
53757.9
52525.1
51297.9
50077
48862.7
47655.3
46454.5
45260.1
44071.9
42890.2
41715.2
40546.6
39386.2
38236.7
37099.3
35974.5
34861
33756.6
32660.5
31574.7
30500.6
29438.5
28388.9
27355.1
26339.6
25348.6
197464
197448
197418
197371
197307
197226
197128
197013
196880
196729
196560
196372
196165
195938
195691
195423
195133
194822
194490
194136
193762
193368
192955
192523
192074
191608
191126
190630
190119
189595
189058
188508
187944
187365
186771
186162
185538
184901
184249
183584
182902
182204
181492
180766
180027
179271
178498
177709
176907
176094
175272
174443
173607
172765
171917
171062
170203
169339
168467
167585
166687
165770
164836
163891
162937
161972
160997
160013
159019
158015
156996
155960
154907
153838
152756
151664
150568
149474
148389
147310
146238
145165
144078
142977
141870
140754
139624
138483
137337
136189
135043
133899
132759
131620
130479
129331
128171
126997
125806
124599
123377
122140
120885
119610
118319
117013
115702
114396
113104
111836
110596
109383
108189
107003
105809
104594
103348
102064
100739
99375.5
97981.7
96569.8
95154.7
93750.2
92366
91006.2
89669.9
88352.9
87050.1
85756.7
84468.2
83180.9
81891.8
80598.8
79300.3
77996.4
76688
75376.6
74064.5
72754
71447.4
70146.7
68853.2
67567.4
66289.4
65018.5
63753.5
62493.5
61237.3
59984.5
58734.5
57487.4
56243.1
55002.1
53764.9
52532.3
51305.1
50084
48869.2
47661.2
46459.8
45265.1
44076.9
42895.3
41721
40553.9
39394.8
38246.3
37109.7
35985.1
34871.7
33767.2
32670.9
31584.2
30509.3
29446.4
28395.1
27358.9
26339.9
25342.2
197752
197737
197706
197657
197592
197509
197408
197290
197153
196999
196827
196636
196426
196196
195945
195673
195379
195063
194725
194366
193986
193585
193165
192727
192271
191798
191310
190807
190290
189760
189217
188661
188091
187508
186910
186297
185670
185029
184374
183706
183023
182325
181613
180886
180143
179382
178601
177804
176992
176170
175340
174502
173660
172814
171964
171109
170249
169385
168512
167627
166724
165803
164869
163924
162971
162007
161031
160045
159047
158036
157011
155971
154917
153852
152779
151698
150612
149526
148444
147367
146296
145223
144137
143034
141922
140802
139673
138535
137392
136249
135106
133967
132830
131693
130553
129405
128244
127068
125874
124664
123440
122200
120942
119664
118369
117062
115750
114442
113150
111887
110655
109452
108266
107084
105892
104677
103431
102145
100818
99451.2
98052.1
96633.1
95209.7
93797.1
92405.9
91040.7
89700.5
88381
87076.4
85781.5
84491.8
83203.7
81914
80620.5
79321.5
78016.8
76707.3
75394.6
74080.9
72768.6
71460.2
70157.9
68863
67576.3
66297.5
65026.2
63761.1
62501
61244.9
59992.2
58742.4
57495.4
56251.4
55010.6
53773.6
52541.2
51314
50092.7
48877.6
47669
46467.2
45272.1
44083.6
42901.8
41727.6
40561
39403.1
38255.7
37120
35996.5
34884
33779.7
32682.8
31595.4
30519.1
29454.2
28400.2
27360.6
26337.3
25332.9
198117
198100
198068
198018
197950
197864
197760
197638
197498
197339
197162
196967
196752
196518
196262
195985
195685
195363
195018
194651
194262
193854
193426
192980
192516
192035
191540
191030
190506
189969
189419
188857
188281
187692
187090
186473
185841
185194
184535
183862
183176
182476
181761
181030
180281
179511
178720
177911
177087
176253
175411
174564
173715
172864
172012
171155
170295
169429
168554
167666
166759
165838
164908
163970
163022
162063
161090
160103
159100
158082
157050
156004
154948
153887
152821
151750
150675
149598
148523
147448
146375
145299
144210
143104
141987
140864
139733
138597
137458
136318
135180
134045
132911
131776
130637
129489
128327
127148
125951
124737
123509
122264
121003
119722
118425
117117
115804
114496
113207
111950
110727
109531
108350
107171
105980
104765
103518
102232
100904
99535.3
98131.9
96706.2
95274.5
93852.9
92453.8
91082.2
89737.6
88415.2
87108.7
85812.7
84522.3
83233.6
81943.5
80649.5
79349.8
78044.1
76733.1
75418.6
74102.7
72788.2
71477.5
70173
68876.3
67588
66308.3
65036.3
63770.9
62510.7
61254.6
60002
58752.2
57505.4
56261.6
55021
53784.2
52551.9
51324.7
50103.1
48887.8
47678.9
46476.7
45281.2
44092.5
42910.5
41736.1
40569.6
39412
38264.9
37129.5
36006.5
34894.7
33791.2
32694.8
31607.3
30530.2
29463.3
28406.3
27362.5
26333.5
25321.4
198560
198543
198507
198454
198383
198294
198186
198059
197913
197750
197567
197366
197145
196904
196642
196357
196049
195718
195364
194988
194591
194174
193736
193281
192809
192320
191817
191299
190768
190224
189666
189096
188513
187917
187307
186683
186044
185392
184725
184047
183355
182650
181929
181191
180434
179653
178851
178028
177191
176341
175485
174625
173766
172910
172054
171197
170337
169471
168595
167705
166799
165884
164963
164035
163097
162146
161180
160195
159192
158170
157132
156080
155021
153959
152895
151828
150759
149689
148618
147546
146473
145392
144297
143187
142065
140937
139804
138668
137530
136393
135259
134127
132997
131865
130727
129579
128416
127234
126033
124814
123581
122331
121065
119782
118484
117177
115864
114559
113275
112024
110807
109616
108437
107258
106065
104849
103601
102316
100988
99619.5
98213.9
96783.3
95344.3
93914.6
92507.6
91129.9
89781.2
88456.3
87148.6
85851.9
84561.1
83272.1
81981.6
80686.9
79386.2
78079
76766.1
75449.3
74130.8
72813.3
71499.6
70192.4
68893.3
67603.4
66322.3
65049.4
63783.4
62522.9
61266.7
60014
58764.3
57517.6
56273.9
55033.4
53796.7
52564.4
51337.1
50115.5
48899.9
47690.7
46488.2
45292.4
44103.5
42921.5
41746.9
40580.3
39422.6
38275.1
37139
36015.2
34903.4
33800.6
32705.4
31618.6
30541.5
29473.6
28414
27365.9
26330.4
25310.2
199084
199064
199026
198969
198893
198799
198684
198551
198399
198229
198039
197829
197600
197349
197078
196784
196467
196126
195763
195377
194970
194543
194097
193632
193151
192654
192143
191618
191079
190526
189959
189379
188785
188179
187559
186925
186278
185617
184945
184260
183562
182850
182122
181375
180606
179813
178997
178159
177304
176438
175564
174690
173820
172957
172099
171242
170382
169517
168643
167754
166853
165948
165039
164123
163197
162257
161300
160322
159322
158300
157259
156204
155141
154076
153009
151941
150871
149801
148731
147660
146584
145499
144397
143281
142154
141020
139882
138743
137604
136468
135336
134208
133081
131952
130815
129667
128503
127319
126114
124891
123651
122396
121125
119840
118543
117237
115927
114626
113348
112104
110892
109703
108523
107341
106144
104925
103674
102389
101063
99695.5
98290.2
96857.5
95414.1
93978.4
92565.6
91183.2
89831.4
88505.1
87196.8
85899.8
84608.7
83319.5
82028.6
80733.1
79431.1
78122.1
76806.8
75487
74165.2
72844.1
71526.8
70216.2
68914.3
67622.2
66339.6
65065.6
63798.8
62537.7
61281.3
60028.5
58778.8
57532.1
56288.4
55047.9
53811.2
52578.9
51351.6
50129.8
48914
47704.6
46501.8
45305.8
44116.7
42934.7
41760.1
40593.5
39435.7
38287.5
37150.1
36024.5
34910.9
33807.7
32713.2
31627.9
30551.7
29483.7
28422.6
27371
26329.8
25302.2
199689
199667
199626
199565
199484
199383
199261
199119
198959
198779
198579
198359
198118
197857
197574
197269
196941
196590
196216
195820
195403
194966
194510
194037
193547
193042
192523
191989
191441
190878
190299
189707
189101
188481
187849
187205
186548
185880
185201
184511
183807
183088
182352
181594
180812
180004
179170
178313
177438
176551
175658
174768
173887
173018
172157
171299
170440
169577
168704
167819
166926
166033
165136
164231
163317
162389
161441
160472
159479
158462
157423
156368
155302
154232
153159
152085
151011
149938
148865
147791
146711
145619
144511
143388
142253
141112
139967
138822
137679
136541
135410
134284
133160
132033
130897
129750
128585
127400
126192
124964
123719
122458
121182
119895
118598
117295
115990
114695
113425
112185
110977
109788
108605
107416
106212
104986
103732
102445
101121
99756.7
98354.1
96922.6
95478.3
94040.5
92625.1
91240.6
89887.6
88560.9
87252.7
85955.8
84664.9
83375.7
82084.3
80787.8
79484.1
78172.6
76854.1
75530.6
74204.7
72879.4
71558.2
70244
68939.1
67644.5
66360.3
65085.1
63817.6
62556.1
61299.2
60045.9
58796
57549.3
56305.6
55065
53828.1
52595.7
51368.2
50146.2
48930.2
47720.4
46517.4
45321.3
44132.1
42950.1
41775.6
40609.2
39451.4
38302.8
37164.1
36036.3
34920.1
33814.8
32719.8
31634.9
30559.5
29492
28430.4
27376.7
26331.7
25298.1
200382
200359
200314
200248
200160
200051
199920
199769
199597
199405
199193
198961
198708
198434
198138
197821
197480
197117
196732
196326
195898
195451
194986
194504
194006
193492
192965
192422
191864
191289
190698
190093
189473
188840
188195
187539
186873
186197
185511
184814
184104
183377
182630
181858
181060
180232
179376
178495
177596
176686
175773
174866
173975
173099
172235
171376
170519
169657
168786
167905
167020
166136
165250
164355
163452
162534
161597
160636
159651
158640
157607
156554
155487
154412
153332
152251
151172
150095
149018
147940
146853
145754
144638
143507
142364
141214
140060
138906
137756
136614
135481
134356
133233
132107
130972
129825
128661
127476
126267
125036
123786
122520
121238
119947
118651
117349
116049
114762
113498
112265
111058
109867
108677
107479
106266
105032
103772
102483
101161
99800
98401.5
96973.7
95532.1
94096.4
92682.5
91299.1
89947.1
88621.4
87314.3
86018.3
84728
83438.7
82146.4
80848
79541.7
78226.9
76904.7
75577
74246.8
72917.3
71592.2
70274.6
68966.9
67670.2
66384.5
65108.4
63840.2
62578.2
61320.8
60067
58816.6
57569.7
56325.8
55085
53847.8
52615.1
51387.2
50164.9
48948.5
47738.5
46535.2
45339
44149.8
42967.8
41793.5
40627.3
39469.7
38321
37181.6
36052.2
34933.4
33825.4
32728.1
31642
30566.2
29498.4
28436.4
27381.6
26334.3
25296.9
201169
201143
201095
201023
200929
200811
200671
200509
200326
200122
199897
199651
199385
199097
198788
198457
198103
197727
197329
196911
196472
196015
195540
195049
194542
194021
193485
192933
192364
191778
191174
190554
189919
189271
188611
187941
187262
186575
185878
185170
184448
183709
182948
182159
181339
180488
179605
178697
177772
176837
175903
174981
174080
173199
172333
171474
170617
169757
168888
168010
167131
166254
165375
164489
163594
162685
161756
160803
159824
158820
157791
156742
155676
154598
153513
152427
151343
150263
149184
148102
147011
145905
144782
143643
142491
141331
140166
139000
137840
136691
135554
134427
133304
132177
131041
129893
128730
127547
126340
125108
123855
122583
121294
119997
118698
117396
116100
114821
113565
112336
111129
109933
108734
107526
106303
105061
103795
102503
101182
99824.3
98430.6
97008.1
95572.3
94142.3
92733.8
91354.7
90006
88682.8
87377.6
86083
84793.2
83503.4
82209.6
80908.6
79599.1
78280.9
76955
75623.6
74289.7
72956.5
71627.9
70307.5
68997.6
67699.5
66412.8
65136
63867.3
62604.8
61346.9
60092.4
58841.5
57594
56349.8
55108.6
53870.8
52637.5
51409.1
50186.1
48969.2
47758.8
46555.4
45359
44169.8
42988
41813.9
40648.2
39491.1
38342.7
37203.1
36072.8
34952.2
33841.7
32741.3
31652.3
30573.9
29504.2
28441
27385.1
26336.2
25296.5
202058
202030
201978
201901
201800
201675
201527
201356
201163
200948
200711
200453
200174
199872
199548
199202
198832
198441
198028
197596
197145
196676
196191
195690
195174
194644
194097
193534
192951
192350
191730
191092
190438
189770
189092
188403
187706
187000
186286
185561
184822
184065
183284
182474
181631
180753
179845
178913
177964
177008
176055
175119
174207
173320
172451
171592
170736
169876
169009
168133
167256
166382
165509
164629
163740
162836
161913
160964
159988
158986
157960
156913
155850
154773
153688
152601
151516
150436
149358
148275
147181
146071
144943
143797
142635
141463
140285
139106
137934
136776
135632
134501
133375
132245
131107
129959
128796
127616
126412
125181
123924
122645
121346
120041
118737
117434
116142
114869
113620
112394
111185
109981
108774
107555
106322
105071
103799
102504
101183
99828.4
98439.8
97024.2
95596.8
94175.9
92775.7
91403.4
90060
88740.5
87437.6
86144.4
84855
83564.4
82268.6
80965.1
79652.6
78331.6
77003.1
75669.1
74332.4
72996.5
71665.7
70343.2
69032
67733.2
66446.1
65168.9
63899.8
62636.8
61378.2
60123
58871.2
57623
56378
55135.9
53897.4
52663.2
51434
50210.2
48992.6
47781.8
46578
45381.6
44192.5
43011
41837.6
40672.5
39516.2
38368.4
37229.3
36098.9
34977.4
33865
32761.8
31668.8
30586
29512.3
28446
27387.8
26337.3
25295.8
203061
203031
202975
202895
202790
202660
202507
202330
202130
201907
201661
201391
201098
200781
200440
200076
199688
199277
198847
198397
197929
197446
196946
196432
195903
195357
194795
194214
193614
192993
192353
191694
191018
190327
189625
188911
188189
187459
186719
185968
185205
184423
183618
182782
181914
181014
180085
179134
178169
177198
176232
175284
174362
173466
172592
171729
170871
170009
169143
168269
167393
166520
165647
164771
163883
162981
162057
161109
160133
159130
158104
157059
155998
154925
153844
152762
151682
150606
149531
148451
147358
146248
145117
143964
142792
141608
140415
139222
138037
136868
135716
134579
133448
132316
131177
130028
128866
127686
126483
125251
123989
122701
121392
120078
118767
117463
116173
114905
113661
112436
111222
110009
108791
107562
106319
105060
103782
102484
101162
99810.1
98427.3
97020.7
95604.4
94195.4
92806
91442.5
90105.4
88790.3
87490
86198.1
84908.9
83617.6
82320.3
81015
79700.8
78378.2
77048.3
75712.9
74374.7
73037.3
71705.3
70382.4
69071.3
67772.8
66485.8
65208.6
63939.2
62675.5
61416
60159.7
58906.7
57657.2
56410.8
55167.6
53927.8
52692.7
51462.5
50237.8
49019.3
47807.9
46603.9
45407.3
44218.6
43037.7
41865.1
40701.2
39546.1
38399.5
37261.4
36131.6
35010
33896.5
32790.9
31693.9
30605.7
29526
28454.4
27391.8
26338.1
25294.4
204197
204165
204107
204025
203919
203788
203633
203453
203247
203015
202757
202472
202162
201825
201463
201075
200665
200231
199776
199303
198812
198306
197786
197250
196700
196134
195551
194949
194327
193684
193020
192335
191631
190911
190178
189434
188681
187918
187146
186364
185570
184758
183925
183065
182175
181255
180312
179351
178377
177399
176426
175470
174538
173631
172747
171877
171014
170150
169282
168410
167535
166661
165787
164909
164019
163113
162186
161233
160253
159247
158219
157175
156117
155049
153975
152902
151830
150763
149695
148620
147532
146426
145296
144137
142955
141758
140551
139344
138146
136965
135804
134660
133525
132392
131254
130105
128940
127758
126551
125312
124043
122746
121428
120106
118789
117483
116194
114928
113685
112457
111235
110012
108783
107543
106291
105025
103742
102441
101118
99768.3
98392.3
96996.6
95594
94199.2
92822.7
91469.4
90139.8
88829.5
87532
86241.4
84952.7
83661.3
82363.7
81058
79743.4
78420.3
77090.2
75754.8
74416.2
73078.8
71747.3
70425.4
69115.7
67818.6
66532.7
65255.8
63986.2
62722
61461.5
60203.8
58949.1
57697.6
56449.4
55204.3
53962.9
52726.4
51495.1
50269.3
49049.8
47837.7
46633.4
45437.1
44249
43069.2
41898
40735.7
39582.4
38437.6
37301.1
36172.5
35051.4
33937.4
32829.9
31729.1
30635.1
29548.2
28469.1
27399.7
26340.7
25293.2
205484
205450
205391
205308
205200
205067
204907
204719
204503
204257
203983
203680
203349
202988
202598
202182
201740
201276
200790
200286
199765
199230
198681
198118
197542
196949
196338
195706
195054
194379
193683
192967
192231
191479
190712
189934
189147
188349
187542
186726
185898
185056
184196
183313
182406
181473
180522
179556
178580
177601
176626
175665
174725
173808
172913
172033
171161
170291
169420
168547
167673
166798
165921
165038
164143
163230
162295
161335
160349
159339
158310
157267
156212
155150
154085
153020
151959
150900
149841
148775
147695
146595
145466
144304
143113
141903
140683
139463
138252
137060
135890
134740
133604
132474
131339
130190
129020
127826
126608
125360
124083
122778
121455
120127
118806
117497
116207
114939
113691
112455
111223
109987
108745
107496
106235
104963
103676
102373
101050
99703.9
98336.1
96953
95566
94187.1
92824.9
91483
90161.3
88856
87561.6
86272.9
84985.5
83695.2
82398.7
81094.2
79780.6
78458.2
77128.8
75793.9
74456.5
73120.6
71790.9
70471.4
69165
67870.7
66586.6
65310.5
64041.3
62777
61515.4
60256
58999.3
57745.5
56494.8
55247.3
54003.9
52765.6
51532.6
50305.3
49084.7
47872
46667.8
45472.1
44285.2
43107.1
41938
40778
39627
38484.5
37350.2
36223.4
35103.3
33989.3
32880.3
31775.8
30675.6
29580.6
28492.5
27414.1
26347.4
25294.2
206976
206939
206876
206786
206671
206528
206358
206157
205926
205664
205371
205045
204686
204292
203864
203405
202920
202413
201886
201341
200780
200206
199619
199018
198402
197770
197119
196449
195758
195048
194317
193568
192801
192016
191216
190404
189582
188751
187910
187060
186201
185331
184446
183544
182623
181682
180726
179758
178785
177808
176834
175869
174921
173996
173090
172199
171318
170439
169562
168685
167809
166931
166049
165158
164255
163332
162387
161419
160428
159415
158385
157343
156291
155233
154175
153120
152068
151018
149966
148907
147834
146740
145615
144451
143254
142034
140802
139570
138349
137147
135970
134816
133682
132558
131430
130280
129100
127890
126652
125391
124107
122798
121473
120143
118819
117508
116214
114939
113680
112430
111183
109934
108680
107420
106153
104876
103586
102282
100960
99618.7
98260.7
96891.9
95521.8
94159.8
92812.4
91482.2
90168.9
88869.3
87578.7
86292.9
85008
83720
82426
81123.7
79812.1
78491.4
77163.3
75830
74494.9
73162
71835.6
70520.3
69217.9
67927.6
66646.5
65372.7
64104.8
62840.6
61578.5
60317.8
59059
57802.8
56549.3
55299
54052.7
52811.9
51576.7
50347.5
49125.7
47912.6
46708.8
45514.5
44329.5
43153.8
41987.4
40830.2
39682.2
38542.7
37411.1
36286.7
35168.2
34054.4
32943.9
31835.4
30728.7
29624.7
28526
27436.8
26360.3
25299.4
208603
208561
208487
208384
208253
208093
207904
207685
207432
207145
206821
206456
206051
205605
205122
204606
204064
203502
202923
202329
201720
201099
200466
199821
199162
198489
197799
197091
196366
195623
194862
194083
193287
192475
191647
190806
189957
189099
188232
187356
186473
185580
184676
183759
182827
181882
180924
179958
178986
178013
177040
176074
175120
174184
173266
172364
171472
170584
169698
168815
167934
167051
166162
165261
164346
163413
162459
161483
160487
159472
158442
157399
156349
155295
154243
153195
152148
151103
150055
148999
147928
146835
145713
144552
143356
142133
140895
139656
138427
137217
136034
134879
133747
132628
131506
130356
129165
127936
126679
125404
124115
122806
121483
120154
118829
117514
116213
114927
113653
112387
111124
109861
108596
107327
106053
104772
103480
102174
100854
99519.3
98172.1
96818.4
95465.3
94119.8
92786.5
91467.5
90162.4
88869
87583.3
86301.5
85020
83735.2
82444.1
81144.5
79835.6
78516.8
77190.6
75860.2
74529
73199.7
71877.4
70567.2
69270.7
67985.8
66709.1
65438.9
64173.5
62911.2
61649.5
60388.2
59127.9
57869.8
56613.5
55359.9
54110.4
52866.3
51628.4
50397
49174.1
47961
46758.3
45566
44383.7
43211.1
42048.1
40894.6
39750
38614
37485.7
36364.1
35247.5
34134.1
33021.9
31908.9
30794.7
29680.7
28570.2
27468.7
26380.8
25310.3
210215
210164
210074
209948
209789
209600
209380
209127
208839
208510
208137
207718
207254
206745
206199
205622
205023
204409
203782
203143
202490
201827
201154
200469
199772
199062
198339
197601
196848
196079
195294
194493
193676
192843
191995
191135
190266
189389
188504
187610
186710
185801
184883
183954
183016
182067
181109
180143
179173
178201
177230
176263
175305
174360
173432
172516
171611
170712
169817
168926
168037
167146
166248
165338
164413
163470
162509
161528
160529
159514
158483
157441
156392
155340
154290
153243
152196
151150
150101
149042
147970
146877
145757
144602
143412
142193
140956
139716
138485
137270
136081
134922
133788
132669
131546
130392
129192
127950
126681
125399
124107
122802
121483
120157
118832
117513
116205
114907
113619
112338
111061
109785
108509
107232
105953
104667
103371
102064
100746
99418
98081.9
96742.3
95404.6
94073.5
92752.7
91443.9
90146.9
88860
87579.7
86302.4
85024.6
83742.6
82453.9
81156.8
79849.9
78533.4
77209.5
75882.2
74554.7
73230.1
71913.1
70609
69319.4
68041.1
66770.2
65505.1
64243.8
62984.5
61725.1
60464.6
59204.4
57945.1
56686.6
55429.8
54176.8
52929.3
51688.2
50454.8
49231.1
48018.5
46817.7
45628.2
44449.4
43280.8
42121.9
40972.5
39831.8
38699.7
37575.2
36456.9
35342.5
34229.4
33115
31996.9
30874.3
29749
28625.6
27510.5
26410
25328.6
211818
211754
211638
211475
211271
211032
210760
210454
210111
209728
209299
208820
208293
207721
207114
206484
205839
205182
204513
203833
203142
202441
201731
201011
200280
199539
198786
198023
197247
196457
195654
194836
194003
193155
192293
191418
190535
189643
188744
187837
186923
186002
185073
184136
183191
182239
181279
180314
179344
178372
177402
176435
175474
174522
173582
172653
171734
170823
169918
169017
168119
167218
166310
165391
164457
163508
162542
161558
160558
159543
158513
157471
156421
155368
154317
153267
152217
151166
150112
149049
147973
146879
145760
144611
143429
142218
140987
139752
138522
137304
136110
134944
133804
132677
131546
130386
129180
127932
126659
125375
124086
122786
121474
120153
118829
117507
116191
114884
113584
112290
111001
109714
108428
107143
105856
104564
103265
101958
100642
99320.9
97995.3
96668.3
95343.5
94024.8
92715.3
91416.3
90127.6
88847.4
87572.4
86298.9
85023.6
83743.5
82456.1
81160.4
79855.4
78540.8
77219
75894.9
74571.8
73252.3
71941.6
70644.9
69363.4
68092.9
66829
65570.2
64314.4
63059.7
61803.8
60545.9
59287.6
58028.3
56768.4
55509
54252.9
53001.8
51757.8
50522.7
49298.8
48087.6
46889.4
45703.6
44529
43365
42211
41066.1
39929.9
38801.9
37681.3
36566.2
35453.8
34340.8
33223.6
32099.5
30967.4
29829.7
28692
27562.4
26448.4
25355.3
213430
213343
213191
212976
212710
212400
212054
211675
211262
210814
210324
209788
209205
208578
207920
207247
206565
205871
205165
204448
203721
202986
202243
201491
200731
199962
199184
198398
197602
196794
195974
195142
194295
193434
192560
191674
190778
189874
188963
188044
187119
186189
185251
184307
183356
182399
181437
180470
179500
178527
177556
176587
175623
174666
173716
172775
171843
170919
170003
169092
168183
167272
166354
165425
164484
163530
162561
161576
160575
159560
158531
157489
156438
155383
154328
153274
152219
151162
150101
149032
147952
146854
145735
144590
143415
142213
140993
139766
138540
137323
136125
134952
133801
132663
131519
130349
129139
127890
126618
125338