/*--------------------------------*- C++ -*----------------------------------*\
  =========                 |
  \\      /  F ield         | OpenFOAM: The Open Source CFD Toolbox
   \\    /   O peration     | Website:  https://openfoam.org
    \\  /    A nd           | Version:  9
     \\/     M anipulation  |
\*---------------------------------------------------------------------------*/
FoamFile
{
    format      ascii;
    class       volVectorField;
    location    "0.099";
    object      U_0;
}
// * * * * * * * * * * * * * * * * * * * * * * * * * * * * * * * * * * * * * //

dimensions      [0 1 -1 0 0 0 0];

internalField   nonuniform List<vector> 
12225
(
(10.022 0.0496963 0)
(9.54201 0.124278 0)
(9.09047 0.143054 0)
(8.75932 0.0961686 0)
(8.50304 0.0648008 0)
(8.24711 0.0726141 0)
(7.94305 0.0880455 0)
(7.62317 0.0823822 0)
(7.34715 0.0562124 0)
(7.13369 0.0272706 0)
(6.97489 0.00998791 0)
(6.82986 0.0109046 0)
(6.66476 0.0264185 0)
(6.44895 0.0486791 0)
(6.17119 0.0640689 0)
(5.89319 0.0720866 0)
(5.59334 0.0674974 0)
(5.25777 0.0731494 0)
(9.98936 0.0752731 0)
(9.85676 0.0898034 0)
(9.93921 0.0381899 0)
(10.0177 0.034712 0)
(10.0486 0.0507074 0)
(10.0834 0.0613694 0)
(10.1284 0.0679285 0)
(10.1626 0.0724957 0)
(10.1669 0.0755629 0)
(10.1275 0.0774447 0)
(10.0507 0.0801612 0)
(9.95091 0.0883223 0)
(9.84583 0.101213 0)
(9.74468 0.122196 0)
(9.64536 0.139994 0)
(9.54794 0.143741 0)
(9.46153 0.1623 0)
(9.35193 0.159839 0)
(10.0917 0.0753899 0)
(10.1972 0.106233 0)
(10.1521 0.0998056 0)
(10.1187 0.0637142 0)
(10.1352 0.0439489 0)
(10.1818 0.0534699 0)
(10.2203 0.0748489 0)
(10.2351 0.0858972 0)
(10.2268 0.0822369 0)
(10.1988 0.073481 0)
(10.1585 0.0688102 0)
(10.116 0.0735221 0)
(10.0796 0.0868712 0)
(10.0541 0.107594 0)
(10.0448 0.127165 0)
(10.0415 0.139942 0)
(10.0407 0.150962 0)
(10.0365 0.155385 0)
(9.77636 0.0191411 0)
(9.90855 0.0940155 0)
(9.96278 0.0808007 0)
(9.97454 0.0520333 0)
(9.97142 0.0387319 0)
(9.98775 0.0357956 0)
(10.0188 0.0441443 0)
(10.0417 0.0585414 0)
(10.0368 0.0740944 0)
(10.0007 0.0899679 0)
(9.94725 0.106352 0)
(9.89831 0.122997 0)
(9.8684 0.137769 0)
(9.86287 0.151649 0)
(9.8814 0.161727 0)
(9.91334 0.162146 0)
(9.95069 0.161984 0)
(9.98636 0.162759 0)
(9.8395 0.0253207 0)
(9.72494 0.0508484 0)
(9.77478 0.0726632 0)
(9.83237 0.0433207 0)
(9.86828 0.0249914 0)
(9.8899 0.0385786 0)
(9.89606 0.0665154 0)
(9.8886 0.0929178 0)
(9.87088 0.108334 0)
(9.84791 0.111898 0)
(9.83071 0.106905 0)
(9.831 0.0985359 0)
(9.85299 0.0911771 0)
(9.89207 0.08899 0)
(9.9429 0.0918428 0)
(9.99673 0.0969314 0)
(10.0455 0.10758 0)
(10.088 0.123792 0)
(9.95479 0.118621 0)
(9.9324 0.0947759 0)
(9.89536 0.0600924 0)
(9.87519 0.0452409 0)
(9.89423 0.0380218 0)
(9.95035 0.0296461 0)
(10.0026 0.0360139 0)
(10.0196 0.0571635 0)
(9.99752 0.0826407 0)
(9.95339 0.102993 0)
(9.91056 0.114087 0)
(9.88443 0.117928 0)
(9.87667 0.118703 0)
(9.88042 0.120201 0)
(9.88883 0.122031 0)
(9.89994 0.122645 0)
(9.91036 0.122684 0)
(9.92627 0.126753 0)
(9.78357 0.0566323 0)
(9.88392 0.0867481 0)
(9.94807 0.0796444 0)
(9.99217 0.0236564 0)
(10.0439 -0.0171088 0)
(10.0778 -0.0057411 0)
(10.0665 0.0443904 0)
(10.0197 0.102417 0)
(9.96814 0.140776 0)
(9.93276 0.148744 0)
(9.92198 0.132389 0)
(9.93617 0.106328 0)
(9.96893 0.0840841 0)
(10.0093 0.0734387 0)
(10.0466 0.0732947 0)
(10.0735 0.0801676 0)
(10.0881 0.0900299 0)
(10.0898 0.103623 0)
(10.0355 0.00811143 0)
(10.0856 0.0158157 0)
(10.0777 0.0373352 0)
(10.0178 0.0299323 0)
(9.97304 0.0229604 0)
(9.95828 0.0329783 0)
(9.95592 0.0598114 0)
(9.96219 0.0946053 0)
(9.97755 0.119341 0)
(9.99826 0.125264 0)
(10.0192 0.115894 0)
(10.0405 0.101225 0)
(10.0638 0.0907288 0)
(10.0892 0.0896998 0)
(10.1136 0.0968274 0)
(10.1315 0.107614 0)
(10.1433 0.118283 0)
(10.1415 0.125553 0)
(9.95019 0.00664818 0)
(9.99078 0.0692137 0)
(9.98596 0.0895784 0)
(9.97025 0.0465686 0)
(9.96604 -0.00379897 0)
(9.98499 -0.00958886 0)
(10.0164 0.03279 0)
(10.0494 0.0862768 0)
(10.0792 0.12033 0)
(10.0987 0.124642 0)
(10.1042 0.105032 0)
(10.1035 0.075402 0)
(10.109 0.0492652 0)
(10.1293 0.0360272 0)
(10.1647 0.0389618 0)
(10.209 0.0543421 0)
(10.2523 0.0785852 0)
(10.2861 0.104878 0)
(9.68776 -0.135195 0)
(9.88482 -0.0187073 0)
(10.0881 0.0595432 0)
(10.1841 0.0584848 0)
(10.1805 0.0350603 0)
(10.1372 0.0258111 0)
(10.099 0.0408723 0)
(10.0894 0.0725319 0)
(10.1023 0.104641 0)
(10.1152 0.123097 0)
(10.1123 0.12274 0)
(10.0916 0.107407 0)
(10.062 0.0853504 0)
(10.0328 0.0660617 0)
(10.013 0.0561374 0)
(10.0072 0.0579436 0)
(10.013 0.0703215 0)
(10.0321 0.0907804 0)
(9.88767 -0.031384 0)
(9.79646 -0.0621667 0)
(9.85137 -0.0414109 0)
(9.95043 -0.0173284 0)
(10.0133 -1.68131e-05 0)
(10.0241 0.0175906 0)
(10.0101 0.040906 0)
(10.0063 0.0705724 0)
(10.0272 0.0958378 0)
(10.0596 0.108137 0)
(10.0842 0.106422 0)
(10.0931 0.0940385 0)
(10.0905 0.0761404 0)
(10.0835 0.0597425 0)
(10.078 0.0497369 0)
(10.0773 0.0511262 0)
(10.0832 0.0610024 0)
(10.0969 0.0795532 0)
(9.98107 -0.110041 0)
(10.1032 -0.0340613 0)
(10.188 -0.00690836 0)
(10.14 -0.00755964 0)
(10.0526 0.0169538 0)
(10.0116 0.049049 0)
(10.0233 0.0657556 0)
(10.0536 0.0759029 0)
(10.0669 0.0889912 0)
(10.0497 0.104468 0)
(10.0127 0.114459 0)
(9.97767 0.112836 0)
(9.95922 0.0994546 0)
(9.96152 0.081292 0)
(9.98073 0.0657774 0)
(10.0076 0.0577756 0)
(10.0414 0.0572318 0)
(10.07 0.0623911 0)
(10.0061 -0.0265593 0)
(9.88259 -0.0796838 0)
(9.8673 -0.0355706 0)
(9.8437 0.0298813 0)
(9.8502 0.0406004 0)
(9.90849 0.00895548 0)
(10.0027 -0.00292336 0)
(10.1012 0.0283906 0)
(10.1789 0.0834381 0)
(10.2273 0.125668 0)
(10.2504 0.135515 0)
(10.2593 0.114008 0)
(10.2618 0.0748077 0)
(10.2621 0.03522 0)
(10.2649 0.00901676 0)
(10.2728 0.000516459 0)
(10.2877 0.00879983 0)
(10.3092 0.028638 0)
(10.2447 0.017209 0)
(10.1136 0.0272423 0)
(9.9186 0.00717496 0)
(9.90012 -0.0132416 0)
(9.99011 -0.0125619 0)
(10.0611 -0.0145895 0)
(10.0752 -0.0227329 0)
(10.0705 -0.0154682 0)
(10.0845 0.0183107 0)
(10.1233 0.0639947 0)
(10.1693 0.101443 0)
(10.1974 0.118521 0)
(10.1939 0.115257 0)
(10.1622 0.0981485 0)
(10.1168 0.0749884 0)
(10.0781 0.0539991 0)
(10.0539 0.03695 0)
(10.0592 0.0312194 0)
(10.035 0.012735 0)
(9.92102 0.149327 0)
(9.91339 0.109461 0)
(9.89233 -0.0126927 0)
(9.86984 -0.078412 0)
(9.85537 -0.0645351 0)
(9.84318 -0.0163567 0)
(9.83623 0.0232223 0)
(9.84183 0.0417174 0)
(9.86175 0.0513865 0)
(9.88986 0.0624606 0)
(9.91941 0.0760176 0)
(9.94519 0.086863 0)
(9.96737 0.0883338 0)
(9.98595 0.0757304 0)
(10.0056 0.0529579 0)
(10.0266 0.0227924 0)
(10.0526 -0.00193861 0)
(9.78487 0.147796 0)
(9.91308 0.0815679 0)
(10.0749 -0.0192688 0)
(10.167 0.0113196 0)
(10.134 0.0528902 0)
(10.0504 0.0422164 0)
(9.98691 0.0050289 0)
(9.9596 -0.0156192 0)
(9.96294 -0.00344948 0)
(9.98874 0.0284909 0)
(10.0271 0.0601839 0)
(10.0682 0.0777683 0)
(10.1037 0.0767807 0)
(10.13 0.0600192 0)
(10.1452 0.0332557 0)
(10.1501 0.00353726 0)
(10.1468 -0.023302 0)
(10.1352 -0.0428395 0)
(9.78969 -0.0197405 0)
(9.80617 -0.153585 0)
(9.83431 -0.121047 0)
(9.9061 -0.0527998 0)
(9.98023 0.00100946 0)
(10.0441 0.0489056 0)
(10.0688 0.0734798 0)
(10.0587 0.0555255 0)
(10.0393 0.00873786 0)
(10.0342 -0.0340295 0)
(10.0545 -0.0507146 0)
(10.0972 -0.0386479 0)
(10.1521 -0.00824057 0)
(10.2059 0.0251307 0)
(10.2478 0.0492108 0)
(10.2706 0.058947 0)
(10.2743 0.0572701 0)
(10.2597 0.0501223 0)
(10.0586 0.087828 0)
(10.0042 -0.018924 0)
(9.97713 -0.0935134 0)
(9.9283 -0.112214 0)
(9.86801 -0.0940723 0)
(9.85183 -0.0611651 0)
(9.87906 -0.0190817 0)
(9.92317 0.0184803 0)
(9.97169 0.0349175 0)
(10.0131 0.0225091 0)
(10.038 -0.0140077 0)
(10.0484 -0.0584143 0)
(10.0524 -0.0921066 0)
(10.0564 -0.103179 0)
(10.0638 -0.0896824 0)
(10.0754 -0.0578791 0)
(10.0894 -0.0164832 0)
(10.1063 0.0246821 0)
(10.1968 -0.010745 0)
(10.2048 -0.109565 0)
(10.2146 -0.0395339 0)
(10.1851 0.0692266 0)
(10.1298 0.112855 0)
(10.0928 0.0709838 0)
(10.0759 -0.0256178 0)
(10.0767 -0.120534 0)
(10.0893 -0.173382 0)
(10.0955 -0.173821 0)
(10.0828 -0.131564 0)
(10.0553 -0.0688647 0)
(10.0242 -0.0108104 0)
(9.99823 0.0249943 0)
(9.98179 0.0323971 0)
(9.97734 0.0188083 0)
(9.98321 -0.00673173 0)
(9.99734 -0.0289345 0)
(10.0488 -0.130339 0)
(10.1033 -0.0531125 0)
(10.1633 -0.00464354 0)
(10.1854 0.0262937 0)
(10.2111 0.0459454 0)
(10.2291 0.0328919 0)
(10.2188 0.00213454 0)
(10.187 -0.0119109 0)
(10.1405 0.00351353 0)
(10.0847 0.033662 0)
(10.0326 0.0552365 0)
(9.99742 0.0545226 0)
(9.98467 0.0314606 0)
(9.99131 -0.00314773 0)
(10.0094 -0.0352104 0)
(10.03 -0.0556018 0)
(10.0481 -0.0609852 0)
(10.0576 -0.0543631 0)
(10.05 0.0116016 0)
(10.0699 -0.190627 0)
(10.0513 -0.128945 0)
(10.011 -0.00282892 0)
(9.99236 0.0594647 0)
(10.0042 0.0593806 0)
(10.0204 0.0309394 0)
(10.0274 0.00762921 0)
(10.0307 0.00592633 0)
(10.0382 0.0201353 0)
(10.0547 0.0321756 0)
(10.0789 0.0283861 0)
(10.1057 0.00662147 0)
(10.1299 -0.0254057 0)
(10.1485 -0.0551789 0)
(10.1604 -0.0735334 0)
(10.1664 -0.076582 0)
(10.1687 -0.0658639 0)
(10.2137 0.072205 0)
(10.0525 -0.00941667 0)
(10.0045 0.0485348 0)
(10.0178 0.0656693 0)
(10.0913 0.0351718 0)
(10.1386 -0.00128223 0)
(10.1185 -0.0229978 0)
(10.0668 -0.0229107 0)
(10.0227 -0.00841867 0)
(10.0005 0.00426033 0)
(10.0004 0.00298727 0)
(10.014 -0.0145785 0)
(10.0289 -0.0399012 0)
(10.0374 -0.0630588 0)
(10.0375 -0.0773641 0)
(10.0314 -0.0798348 0)
(10.022 -0.071267 0)
(10.0136 -0.0544759 0)
(10.1005 0.128567 0)
(9.99389 0.0741199 0)
(10.0346 -0.0467353 0)
(10.1051 -0.0971951 0)
(10.1647 -0.041886 0)
(10.1864 0.042329 0)
(10.1732 0.0915786 0)
(10.1578 0.0951049 0)
(10.157 0.0716141 0)
(10.1637 0.0401825 0)
(10.1658 0.010258 0)
(10.1596 -0.0149789 0)
(10.148 -0.0348434 0)
(10.1347 -0.048335 0)
(10.125 -0.0551708 0)
(10.1221 -0.0559856 0)
(10.1265 -0.0519199 0)
(10.1352 -0.0463104 0)
(10.0286 0.0374491 0)
(10.0868 0.0458857 0)
(10.0949 -0.0346682 0)
(10.0038 -0.0665553 0)
(9.95277 -0.0351356 0)
(9.98359 0.000508501 0)
(10.0632 0.0111911 0)
(10.1571 0.00608235 0)
(10.2356 0.00240751 0)
(10.2731 0.00640732 0)
(10.2604 0.0115553 0)
(10.2087 0.00910613 0)
(10.1404 -0.00643417 0)
(10.079 -0.0322061 0)
(10.0406 -0.0591305 0)
(10.0292 -0.0791465 0)
(10.0412 -0.0870777 0)
(10.0685 -0.0819006 0)
(9.98172 -0.130695 0)
(10.0363 0.0127924 0)
(9.94532 0.0216408 0)
(9.8183 -0.000254239 0)
(9.7881 -0.0143398 0)
(9.82371 -0.029844 0)
(9.86953 -0.0475144 0)
(9.91707 -0.0530039 0)
(9.97607 -0.0322721 0)
(10.0472 0.0118614 0)
(10.1213 0.0595031 0)
(10.1858 0.0876488 0)
(10.2293 0.0832752 0)
(10.2446 0.0482613 0)
(10.2329 -0.00377343 0)
(10.2033 -0.055728 0)
(10.1659 -0.0955117 0)
(10.1319 -0.114735 0)
(9.98012 -0.0561879 0)
(9.86509 0.0455163 0)
(9.93561 0.0937197 0)
(10.0357 0.0222601 0)
(10.1031 -0.0408717 0)
(10.1248 -0.0576757 0)
(10.1148 -0.0591384 0)
(10.0936 -0.0694532 0)
(10.079 -0.0840344 0)
(10.0845 -0.0882767 0)
(10.1178 -0.0771365 0)
(10.1753 -0.0567118 0)
(10.2421 -0.0367419 0)
(10.3008 -0.0234926 0)
(10.3375 -0.0182804 0)
(10.3466 -0.0192789 0)
(10.3292 -0.023953 0)
(10.2918 -0.0300839 0)
(10.078 -0.0104293 0)
(9.95997 -0.0112828 0)
(10.072 -0.0527739 0)
(10.1969 -0.0677076 0)
(10.2716 -0.0459147 0)
(10.3069 -0.0290287 0)
(10.3019 -0.0336194 0)
(10.2566 -0.0437023 0)
(10.1915 -0.0440311 0)
(10.1381 -0.0350361 0)
(10.1179 -0.0253184 0)
(10.1317 -0.0218903 0)
(10.1638 -0.0249917 0)
(10.196 -0.0311227 0)
(10.2186 -0.0366374 0)
(10.2301 -0.0387245 0)
(10.2342 -0.0367874 0)
(10.2351 -0.032977 0)
(9.90268 0.0289784 0)
(10.0443 0.0464943 0)
(10.0948 -0.00731225 0)
(10.0962 -0.0821877 0)
(10.1038 -0.106917 0)
(10.1194 -0.0776265 0)
(10.1371 -0.0321044 0)
(10.1581 -0.00505467 0)
(10.1827 -0.00736038 0)
(10.2063 -0.0304205 0)
(10.2265 -0.0570619 0)
(10.2442 -0.0729945 0)
(10.2599 -0.0735625 0)
(10.2727 -0.0628169 0)
(10.282 -0.0488653 0)
(10.2883 -0.0378844 0)
(10.2919 -0.0322142 0)
(10.2921 -0.0314784 0)
(10.1036 -0.12191 0)
(10.1783 -0.075557 0)
(10.286 -0.0624664 0)
(10.2386 -0.0617093 0)
(10.0872 -0.0507348 0)
(9.97996 -0.0430017 0)
(9.98627 -0.0502972 0)
(10.0789 -0.0629923 0)
(10.1912 -0.068393 0)
(10.2637 -0.0643248 0)
(10.2691 -0.0560705 0)
(10.2189 -0.0488327 0)
(10.1477 -0.0446129 0)
(10.0903 -0.0423593 0)
(10.0655 -0.0404159 0)
(10.0737 -0.0382815 0)
(10.1051 -0.0360311 0)
(10.1461 -0.0347464 0)
(9.85086 0.000584307 0)
(9.71285 0.00374724 0)
(9.6054 -0.0229328 0)
(9.46047 -0.0234468 0)
(9.3322 -0.0251194 0)
(9.21499 -0.041326 0)
(9.06266 -0.0662225 0)
(8.85826 -0.0838514 0)
(8.63532 -0.0817033 0)
(8.44305 -0.0607724 0)
(8.30755 -0.0339517 0)
(8.22187 -0.0158735 0)
(8.15894 -0.013863 0)
(8.09391 -0.026436 0)
(8.012 -0.0454905 0)
(7.91427 -0.0624975 0)
(7.80433 -0.0719446 0)
(7.69672 -0.0716258 0)
(-0.0508051 0.200051 7.42049e-20)
(-0.191259 0.209322 -7.36374e-20)
(-0.334949 0.143725 0)
(-0.406491 0.0492836 0)
(-0.318076 -0.102287 0)
(-0.0719013 -0.273682 7.1501e-20)
(0.31096 -0.394065 0)
(0.774239 -0.467723 0)
(1.26377 -0.50269 0)
(1.75987 -0.506441 0)
(2.24921 -0.488139 -6.82339e-20)
(2.71838 -0.457885 0)
(3.16046 -0.422712 0)
(3.57346 -0.385845 0)
(3.95698 -0.348561 0)
(4.3111 -0.311074 -6.45725e-20)
(4.63513 -0.272941 0)
(4.928 -0.233659 0)
(5.18782 -0.192252 0)
(5.41063 -0.148109 0)
(5.59429 -0.100409 0)
(5.7307 -0.0481107 0)
(5.81681 0.00905083 0)
(5.84593 0.0724617 -5.94071e-20)
(5.80346 0.142313 5.8899e-20)
(5.68408 0.219666 -5.84324e-20)
(5.48421 0.300462 -5.80078e-20)
(5.19842 0.381073 0)
(4.82601 0.451659 0)
(4.37581 0.500801 5.69368e-20)
(3.85671 0.529503 5.66177e-20)
(3.3001 0.5169 0)
(2.73266 0.474011 0)
(2.18432 0.432059 5.56362e-20)
(1.6632 0.393243 0)
(1.17024 0.343337 0)
(0.749447 0.195444 -5.45189e-20)
(0.427292 -0.002063 0)
(0.226906 -0.0832202 -5.37216e-20)
(0.123129 -0.0844405 -1.06648e-19)
(0.0213296 -0.0815073 0)
(-0.0761679 -0.0132714 0)
(0.033752 0.122342 0)
(-0.0201336 0.211593 0)
(-0.186516 0.16102 0)
(-0.23186 -0.371515 -1.01299e-19)
(-0.0420564 -0.669605 -1.00383e-19)
(0.618363 -0.586877 -9.92549e-20)
(1.05566 -0.869018 0)
(1.14334 -1.2082 9.68768e-20)
(1.14533 -0.366049 0)
(0.308606 0.548676 -9.5129e-20)
(-0.703538 0.778925 -9.41806e-20)
(-1.78141 0.81478 0)
(-2.77571 0.793527 0)
(-3.74135 0.741673 0)
(-4.60385 0.676403 -8.82405e-20)
(-5.39577 0.597573 0)
(-6.08544 0.520229 0)
(-6.69906 0.447403 0)
(-7.22828 0.38316 0)
(-7.69071 0.325977 0)
(-8.08494 0.275057 0)
(-8.42109 0.228794 0)
(-8.69985 0.186724 0)
(-8.92756 0.148502 7.51986e-20)
(-9.10646 0.114411 0)
(-9.24174 0.0844685 0)
(-9.33652 0.0584066 -7.22164e-20)
(-9.3951 0.036158 -7.13783e-20)
(-9.42092 0.0170096 0)
(-9.41767 0.000741334 6.99061e-20)
(-9.3914 -0.0122802 -6.92603e-20)
(-9.34373 -0.0231655 0)
(-9.27723 -0.0319349 6.81235e-20)
(-9.19483 -0.0390155 0)
(-9.09826 -0.0447816 0)
(-8.98964 -0.0494814 -6.67163e-20)
(-8.87027 -0.0536508 0)
(-8.74124 -0.0576816 6.59157e-20)
(-8.60319 -0.0620358 0)
(-8.45634 -0.0670494 -6.51867e-20)
(-8.30055 -0.0728405 -6.48411e-20)
(-8.13544 -0.0792525 -6.45046e-20)
(-7.96057 -0.085794 -1.2835e-19)
(-7.77578 -0.0917061 1.27702e-19)
(-7.5814 -0.0961208 0)
(-7.37849 -0.0983266 0)
(-7.16876 -0.0980741 0)
(-6.95415 -0.0958747 1.25152e-19)
(-6.73599 -0.0931933 1.24521e-19)
(-6.51394 -0.0923762 -1.23895e-19)
(-6.28524 -0.0961448 0)
(-6.04431 -0.106671 1.22676e-19)
(-5.78309 -0.124649 1.22091e-19)
(-5.49318 -0.148827 1.21527e-19)
(-5.16879 -0.175887 0)
(-4.8079 -0.201102 0)
(-4.41117 -0.220704 0)
(-3.98144 -0.233485 1.19395e-19)
(-3.52564 -0.239914 0)
(-3.05572 -0.240239 0)
(-2.58054 -0.236055 -1.17606e-19)
(-2.09249 -0.232088 0)
(-1.58729 -0.226209 0)
(-1.10036 -0.198878 -1.15224e-19)
(-0.66383 -0.163733 0)
(-0.281554 -0.150068 0)
(0.13632 -0.187858 1.12029e-19)
(0.711586 -0.2639 1.10793e-19)
(1.48294 -0.375015 0)
(2.39583 -0.504049 -1.07987e-19)
(3.4808 -0.437295 0)
(4.26588 0.0019737 1.04485e-19)
(3.84869 0.370856 0)
(2.89321 0.284169 1.01679e-19)
(2.45641 -0.0069585 1.00381e-19)
(2.50582 -0.155342 0)
(2.63484 -0.128343 0)
(2.53212 -0.0172473 0)
(2.14286 0.112152 0)
(1.5797 0.208347 0)
(0.957863 0.249056 0)
(0.324123 0.254552 0)
(-0.307109 0.248161 8.82518e-20)
(-0.925836 0.241755 -8.63377e-20)
(-1.53518 0.238321 0)
(-2.14612 0.238227 0)
(-2.76413 0.239587 0)
(-3.38925 0.240067 0)
(-4.01536 0.237391 -1.51957e-19)
(-4.63083 0.229699 0)
(-5.21943 0.215681 1.43563e-19)
(-5.7615 0.194484 -1.39648e-19)
(-6.23502 0.165803 0)
(-6.61749 0.13005 0)
(-6.88757 0.0883076 0)
(-7.02665 0.0421008 1.28684e-19)
(-7.01777 -0.00521055 1.27579e-19)
(-6.86173 -0.0539958 0)
(-6.55472 -0.101765 1.27443e-19)
(-6.10175 -0.145926 1.28219e-19)
(-5.51568 -0.183931 -1.29325e-19)
(-4.8178 -0.213452 0)
(-4.03662 -0.232864 0)
(-3.20472 -0.241358 -1.32463e-19)
(-2.35442 -0.238965 0)
(-1.51482 -0.227942 0)
(-0.710723 -0.209398 0)
(0.0261412 -0.186811 0)
(0.68119 -0.162273 1.29287e-19)
(1.2563 -0.136925 1.27337e-19)
(1.7465 -0.112759 0)
(2.15566 -0.0914563 1.22917e-19)
(2.49235 -0.0738014 0)
(2.76773 -0.0591298 0)
(2.99226 -0.0480617 1.15877e-19)
(3.17765 -0.0411499 0)
(3.33678 -0.0345938 1.11304e-19)
(3.47467 -0.0316142 0)
(3.60459 -0.0379984 0)
(3.75172 -0.0377215 1.04912e-19)
(3.90382 -0.0355155 0)
(4.07295 -0.061175 1.01037e-19)
(4.33075 -0.0728235 0)
(4.61742 -0.0605962 0)
(4.91877 -0.111348 0)
(5.41865 -0.127724 -9.40929e-20)
(5.89964 -0.0694979 0)
(6.29033 -0.171328 9.05634e-20)
(7.064 -0.146992 0)
(7.46793 0.043421 0)
(7.49954 -0.187718 0)
(8.39929 -0.0092032 0)
(7.81719 0.658528 0)
(5.36136 0.440763 0)
(4.00132 -0.0218579 0)
(3.45257 0.0108279 -1.49837e-19)
(2.80113 0.163367 0)
(1.35316 0.282288 0)
(0.00536694 0.288051 -2.22622e-19)
(-0.0110096 0.336168 2.21043e-19)
(-0.0232795 0.272943 0)
(0.163328 -0.0601963 -1.45084e-19)
(0.535022 -0.584258 0)
(0.990476 -1.03997 -7.12406e-20)
(1.45688 -1.33991 1.41026e-19)
(1.90322 -1.49669 1.39678e-19)
(2.31947 -1.54398 0)
(2.70643 -1.51843 1.36998e-19)
(3.06815 -1.45221 6.79912e-20)
(3.40813 -1.36726 0)
(3.73007 -1.27647 0)
(4.03767 -1.18549 0)
(4.33339 -1.09566 0)
(4.61751 -1.00618 6.44649e-20)
(4.88936 -0.915335 0)
(5.14708 -0.820957 -1.25871e-19)
(5.38782 -0.720612 0)
(5.60965 -0.611775 0)
(5.80662 -0.492282 1.21888e-19)
(5.97759 -0.359673 0)
(6.11619 -0.213069 -1.19482e-19)
(6.21774 -0.0528651 5.93438e-20)
(6.28793 0.122045 -5.88214e-20)
(6.32029 0.308794 5.83245e-20)
(6.30346 0.502005 5.78648e-20)
(6.23005 0.702532 0)
(6.09684 0.89773 0)
(5.8937 1.07756 -5.66713e-20)
(5.61323 1.22739 5.5893e-20)
(5.25396 1.31749 0)
(4.81628 1.35529 0)
(4.31841 1.31658 -5.52829e-20)
(3.7817 1.23606 0)
(3.27523 1.1307 0)
(2.79192 0.972481 5.42023e-20)
(2.32342 0.849747 0)
(1.89915 0.597244 -5.34824e-20)
(1.44601 0.371186 1.06253e-19)
(1.10104 0.387512 0)
(0.926698 0.0194421 0)
(0.728733 -0.250455 2.07994e-19)
(0.711822 0.111632 2.06241e-19)
(0.686094 0.12018 2.0444e-19)
(0.727134 0.116623 -1.01516e-19)
(0.860098 -0.537508 1.00221e-19)
(0.717499 -1.2779 2.9824e-19)
(0.0184806 0.160415 -1.96878e-19)
(-1.38685 1.19406 -9.69898e-20)
(-2.29206 1.56063 0)
(-3.20059 1.92785 9.44951e-20)
(-3.96459 1.97783 -9.26468e-20)
(-4.72402 1.94335 0)
(-5.36227 1.81606 0)
(-5.97164 1.65932 0)
(-6.48114 1.48371 8.77957e-20)
(-6.95483 1.30855 0)
(-7.3592 1.14488 -1.68495e-19)
(-7.73025 0.994555 0)
(-8.0515 0.859335 -1.62587e-19)
(-8.34096 0.73596 0)
(-8.58999 0.623751 1.5709e-19)
(-8.80724 0.52036 0)
(-8.98897 0.425375 -1.52141e-19)
(-9.13982 0.337923 7.47462e-20)
(-9.25887 0.258009 0)
(-9.34893 0.185194 1.45877e-19)
(-9.41029 0.11955 7.22034e-20)
(-9.44506 0.0608744 7.13727e-20)
(-9.45433 0.00857195 0)
(-9.44075 -0.0375996 6.9682e-20)
(-9.40295 -0.0776326 6.92567e-20)
(-9.34452 -0.112478 0)
(-9.26743 -0.142396 -6.81181e-20)
(-9.17305 -0.168018 1.35096e-19)
(-9.06338 -0.189869 0)
(-8.93943 -0.208426 6.67109e-20)
(-8.80245 -0.224275 0)
(-8.65336 -0.237916 -1.97661e-19)
(-8.49302 -0.249934 0)
(-8.32225 -0.260927 1.95501e-19)
(-8.14181 -0.271495 6.48422e-20)
(-7.95233 -0.282154 -6.44613e-20)
(-7.75433 -0.293178 -1.28274e-19)
(-7.5482 -0.304471 1.27633e-19)
(-7.33417 -0.315526 0)
(-7.11241 -0.325587 0)
(-6.88308 -0.333975 0)
(-6.64634 -0.340552 -3.75431e-19)
(-6.4021 -0.346172 -1.24545e-19)
(-6.14981 -0.352868 1.23924e-19)
(-5.88837 -0.363492 0)
(-5.61618 -0.380773 1.22574e-19)
(-5.33116 -0.406343 -1.22127e-19)
(-5.03063 -0.440265 -1.2156e-19)
(-4.71139 -0.480634 0)
(-4.37028 -0.523234 0)
(-4.00387 -0.562822 0)
(-3.60757 -0.595702 -1.19393e-19)
(-3.17854 -0.621125 0)
(-2.72326 -0.639703 2.36309e-19)
(-2.25575 -0.652559 3.52611e-19)
(-1.77591 -0.663509 -2.33611e-19)
(-1.27761 -0.67257 0)
(-0.797089 -0.633023 -1.15109e-19)
(-0.327805 -0.55858 0)
(0.0800452 -0.548842 -2.26155e-19)
(0.490625 -0.665081 1.11711e-19)
(1.03084 -0.891087 1.10332e-19)
(1.75974 -1.14652 0)
(2.58722 -1.30213 3.22995e-19)
(3.38938 -1.07187 -2.11705e-19)
(4.11017 -0.257627 -1.04461e-19)
(4.20486 0.642648 0)
(3.66733 0.841666 -1.01521e-19)
(3.21576 0.344034 -3.00768e-19)
(2.92559 -0.0231158 0)
(2.55018 0.107912 -1.95276e-19)
(1.94032 0.423242 -1.92393e-19)
(1.19457 0.642418 -1.89492e-19)
(0.481721 0.721683 0)
(-0.175311 0.72494 0)
(-0.790315 0.704754 0)
(-1.3696 0.678345 8.79345e-20)
(-1.92622 0.657794 8.61802e-20)
(-2.47114 0.645749 0)
(-3.01348 0.641331 1.64223e-19)
(-3.55769 0.640198 1.60066e-19)
(-4.10337 0.636521 0)
(-4.64539 0.624573 1.51759e-19)
(-5.17416 0.599463 2.94511e-19)
(-5.6761 0.557383 -1.43416e-19)
(-6.13445 0.49578 -1.38783e-19)
(-6.53047 0.4135 0)
(-6.84513 0.311027 0)
(-7.06059 0.190781 0)
(-7.15983 0.0564971 -1.28667e-19)
(-7.13174 -0.0889279 1.26635e-19)
(-6.95554 -0.235657 2.53425e-19)
(-6.62678 -0.379015 -1.27388e-19)
(-6.14954 -0.511878 1.27457e-19)
(-5.5366 -0.626697 1.29241e-19)
(-4.80954 -0.716243 0)
(-3.99752 -0.775131 0)
(-3.13371 -0.801021 -1.32137e-19)
(-2.25124 -0.795234 0)
(-1.37964 -0.76186 0)
(-0.54267 -0.706166 2.64057e-19)
(0.228175 -0.637444 0)
(0.920024 -0.560288 1.29143e-19)
(1.53487 -0.479797 -1.27242e-19)
(2.06594 -0.401667 0)
(2.51605 -0.330252 1.22792e-19)
(2.89141 -0.26861 0)
(3.20102 -0.218086 0)
(3.45764 -0.177313 -1.15811e-19)
(3.67051 -0.146278 2.26945e-19)
(3.84742 -0.126034 -1.11243e-19)
(4.00842 -0.112072 0)
(4.15967 -0.107909 0)
(4.30264 -0.119632 1.04781e-19)
(4.47894 -0.132693 0)
(4.69147 -0.158182 1.00894e-19)
(4.92033 -0.209207 0)
(5.22521 -0.242033 0)
(5.61246 -0.289572 0)
(6.02738 -0.373651 9.4009e-20)
(6.53046 -0.373037 0)
(7.12958 -0.38195 -9.04738e-20)
(7.62785 -0.447683 0)
(8.19627 -0.271733 0)
(8.73392 -0.151186 1.68986e-19)
(8.81405 -0.153897 -1.65084e-19)
(9.08307 0.5496 0)
(9.25706 1.31539 0)
(7.88228 1.02663 0)
(5.61979 0.554553 4.48014e-19)
(4.31355 0.749922 0)
(2.43952 1.18332 -2.73047e-19)
(0.0131154 0.268787 -8.32327e-23)
(0.0356596 0.320957 -2.94758e-19)
(0.394946 -0.195452 0)
(0.964445 -1.01607 2.89135e-19)
(1.51678 -1.70335 0)
(1.95859 -2.12916 0)
(2.27887 -2.30582 -2.04786e-22)
(2.5027 -2.30353 -1.39308e-19)
(2.66576 -2.19863 -1.37801e-19)
(2.80232 -2.05197 -1.36872e-19)
(2.93776 -1.90267 0)
(3.08766 -1.7689 0)
(3.25963 -1.65424 1.32672e-19)
(3.45413 -1.55446 2.62638e-19)
(3.66699 -1.46262 -2.59888e-19)
(3.89238 -1.37208 0)
(4.12375 -1.27775 -2.54325e-19)
(4.3554 -1.17565 1.26063e-19)
(4.58175 -1.06266 0)
(4.79724 -0.934971 -2.46148e-19)
(4.99728 -0.790028 -1.22094e-19)
(5.17584 -0.625959 2.41072e-19)
(5.33089 -0.442132 1.1969e-19)
(5.45995 -0.240731 0)
(5.56385 -0.0224018 -2.34334e-19)
(5.64719 0.211724 -2.32231e-19)
(5.71538 0.462629 0)
(5.76587 0.727492 -2.28296e-19)
(5.7874 1.00783 0)
(5.76787 1.28919 -2.24775e-19)
(5.69722 1.55115 -1.1211e-19)
(5.55701 1.78281 0)
(5.3437 1.93281 0)
(5.04784 2.01401 0)
(4.6748 2.01774 0)
(4.27216 1.88326 0)
(3.8085 1.76731 0)
(3.3461 1.56131 -2.14279e-19)
(2.914 1.26005 3.19675e-19)
(2.42637 1.12508 0)
(1.97665 0.805498 0)
(1.67476 0.589827 0)
(1.19265 0.482241 1.84241e-22)
(0.86894 0.21425 -2.06152e-19)
(0.59047 0.264174 -4.09341e-19)
(0.600942 -0.456198 4.06118e-19)
(0.575673 -0.723034 2.01533e-19)
(-0.953935 0.991767 -1.98663e-19)
(-2.11455 1.94781 -1.09223e-22)
(-3.07081 2.3358 -1.93088e-19)
(-3.79522 2.64157 0)
(-4.43101 2.81628 -1.87316e-19)
(-4.88061 2.78387 9.17678e-22)
(-5.31739 2.66514 0)
(-5.66795 2.46726 0)
(-6.03875 2.24827 1.76227e-19)
(-6.37087 2.0219 0)
(-6.72199 1.80527 0)
(-7.05094 1.60413 -1.66493e-19)
(-7.38074 1.41734 -3.29184e-19)
(-7.68448 1.24428 1.62605e-19)
(-7.97011 1.08134 0)
(-8.22342 0.928231 -1.57128e-19)
(-8.44836 0.78357 0)
(-8.63882 0.64765 -1.50934e-19)
(-8.7973 0.520026 -1.49953e-19)
(-8.92169 0.401164 2.94652e-19)
(-9.01385 0.290935 1.44936e-19)
(-9.07424 0.189544 0)
(-9.10561 0.0973043 -2.84248e-19)
(-9.10982 0.0143428 0)
(-9.08955 -0.0597342 -4.18288e-19)
(-9.04725 -0.125311 -2.7615e-19)
(-8.98565 -0.182633 -2.73886e-19)
(-8.90698 -0.232534 2.71805e-19)
(-8.8134 -0.275963 -4.05037e-19)
(-8.70646 -0.313981 0)
(-8.58727 -0.347655 0)
(-8.45638 -0.377894 2.64837e-19)
(-8.31394 -0.405453 3.95121e-19)
(-8.15984 -0.430906 0)
(-7.99388 -0.454687 -1.30346e-19)
(-7.81599 -0.477114 0)
(-7.62635 -0.498358 3.86828e-19)
(-7.42559 -0.518376 1.4294e-22)
(-7.21475 -0.536857 -1.34698e-22)
(-6.99527 -0.553286 -2.53982e-19)
(-6.76872 -0.567153 0)
(-6.53654 -0.578315 2.51428e-19)
(-6.29968 -0.587427 1.51525e-22)
(-6.05828 -0.5963 0)
(-5.8115 -0.607884 0)
(-5.55756 -0.625636 0)
(-5.29408 -0.652415 -2.453e-19)
(-5.01866 -0.689497 0)
(-4.72913 -0.736352 0)
(-4.42311 -0.791317 0)
(-4.0973 -0.852116 0)
(-3.74683 -0.915236 0)
(-3.36504 -0.975868 -2.38243e-19)
(-2.94533 -1.02909 0)
(-2.4856 -1.06925 -2.3623e-19)
(-1.98987 -1.08703 -2.34947e-19)
(-1.46598 -1.07907 2.33543e-19)
(-0.930096 -1.07195 0)
(-0.392164 -1.04057 2.30278e-19)
(0.176545 -0.930481 0)
(0.669223 -0.8538 2.25882e-19)
(1.07098 -0.974504 -2.23332e-19)
(1.5018 -1.32619 -6.61314e-19)
(2.06196 -1.7394 0)
(2.71335 -1.95289 -6.43451e-19)
(3.33288 -1.62548 -2.10259e-19)
(3.81103 -0.520841 0)
(3.87043 0.773395 -4.09767e-19)
(3.55524 1.11783 -4.0486e-19)
(3.194 0.602334 6.01058e-19)
(2.65377 0.365318 0)
(1.90195 0.675951 1.95279e-19)
(1.10561 1.02908 1.92445e-19)
(0.447015 1.1756 5.68344e-19)
(-0.0811509 1.18347 0)
(-0.566631 1.1488 0)
(-1.0439 1.10773 0)
(-1.5151 1.06725 1.7541e-19)
(-1.98291 1.03662 0)
(-2.45422 1.01993 0)
(-2.93627 1.01544 -1.64134e-19)
(-3.43423 1.01662 -1.59988e-19)
(-3.94927 1.01401 0)
(-4.47709 0.998363 0)
(-5.0079 0.961804 -2.9439e-19)
(-5.52622 0.898145 0)
(-6.01205 0.802866 2.7821e-19)
(-6.44228 0.673681 2.69738e-19)
(-6.79241 0.510773 0)
(-7.03904 0.316982 0)
(-7.16293 0.0984537 -2.54836e-19)
(-7.14384 -0.137512 -1.52088e-21)
(-6.96895 -0.380425 -1.44859e-21)
(-6.63622 -0.619922 0)
(-6.14784 -0.843414 -5.09741e-19)
(-5.51627 -1.03718 0)
(-4.76419 -1.18839 0)
(-3.92331 -1.28754 0)
(-3.0307 -1.33071 2.64285e-19)
(-2.12358 -1.32099 0)
(-1.23472 -1.26458 -5.29674e-19)
(-0.390753 -1.17121 -2.63884e-19)
(0.377576 -1.06173 0)
(1.06014 -0.934356 -2.58127e-19)
(1.66158 -0.803412 0)
(2.17905 -0.676279 0)
(2.61851 -0.559543 -7.36353e-19)
(2.98922 -0.457588 4.81533e-19)
(3.30173 -0.3727 0)
(3.56594 -0.30463 4.62776e-19)
(3.794 -0.251922 -2.26877e-19)
(3.99635 -0.215838 0)
(4.17966 -0.196102 0)
(4.36225 -0.193064 0)
(4.55575 -0.209502 -6.28418e-19)
(4.75717 -0.237828 0)
(4.98959 -0.286935 -2.01769e-19)
(5.26282 -0.358632 0)
(5.55777 -0.420143 0)
(5.92095 -0.508913 0)
(6.37038 -0.611088 0)
(6.8118 -0.639498 0)
(7.37596 -0.682418 0)
(8.01221 -0.695603 -3.53461e-19)
(8.40806 -0.537327 0)
(9.06638 -0.356776 -1.68888e-19)
(9.46584 -0.154965 4.93975e-19)
(9.25875 0.37234 0)
(9.83359 1.2047 0)
(10.0042 1.70426 -3.03591e-19)
(8.00444 1.5744 -2.97634e-19)
(5.68459 1.52205 2.87067e-19)
(3.59893 2.02668 2.72352e-19)
(-0.108319 0.145755 4.45797e-19)
(0.320676 -0.54114 4.41751e-19)
(1.03013 -1.66552 2.91265e-19)
(1.59094 -2.40724 1.44035e-19)
(1.92078 -2.70842 0)
(2.04201 -2.68026 -2.82837e-19)
(2.03512 -2.4772 1.40094e-19)
(1.99183 -2.23778 0)
(1.98385 -2.04868 1.3805e-19)
(2.04416 -1.93764 0)
(2.17447 -1.89068 -2.70671e-19)
(2.36209 -1.87842 0)
(2.5907 -1.87396 -1.32848e-19)
(2.84518 -1.85906 -2.62925e-19)
(3.11306 -1.82385 2.6012e-19)
(3.38418 -1.7638 0)
(3.64953 -1.67771 2.54494e-19)
(3.90053 -1.56575 0)
(4.12947 -1.42761 0)
(4.3293 -1.26306 2.4634e-19)
(4.49471 -1.07316 0)
(4.62274 -0.861715 -7.68461e-22)
(4.71235 -0.634607 0)
(4.76614 -0.401697 0)
(4.79384 -0.16664 7.1799e-22)
(4.81031 0.0773425 2.3276e-19)
(4.82873 0.337025 2.30025e-19)
(4.86302 0.620951 2.28831e-19)
(4.91698 0.928164 0)
(4.97651 1.25646 4.49424e-19)
(5.02178 1.59462 0)
(5.02984 1.91559 2.20839e-19)
(4.9813 2.18936 0)
(4.86593 2.39259 0)
(4.67457 2.48866 -2.16852e-19)
(4.39748 2.48304 0)
(4.06159 2.40391 2.14568e-19)
(3.72097 2.20961 4.50761e-22)
(3.28382 1.98013 -4.24998e-19)
(2.84086 1.77101 4.2236e-19)
(2.41834 1.54554 0)
(1.97026 1.29164 0)
(1.51182 0.979903 2.0756e-19)
(1.03611 0.898765 0)
(0.845989 0.515186 2.04709e-19)
(0.645083 0.226144 -2.03271e-19)
(-0.736764 1.47882 -2.01118e-19)
(-2.08814 2.68799 0)
(-2.89315 3.11405 1.95339e-19)
(-3.56702 3.308 1.92588e-19)
(-4.08723 3.43206 -3.78353e-19)
(-4.51827 3.41029 1.87122e-19)
(-4.87081 3.3061 1.84456e-19)
(-5.2325 3.14466 0)
(-5.56373 2.94397 0)
(-5.92608 2.72658 -1.76143e-19)
(-6.2737 2.5022 0)
(-6.63573 2.27773 0)
(-6.97542 2.05671 3.34807e-19)
(-7.30415 1.83914 3.2904e-19)
(-7.6006 1.62709 0)
(-7.8706 1.42046 0)
(-8.10439 1.221 0)
(-8.30589 1.02938 0)
(-8.47167 0.846952 3.03115e-19)
(-8.60449 0.674416 -2.97191e-19)
(-8.70398 0.512855 -2.94701e-19)
(-8.77297 0.362811 -5.80572e-19)
(-8.81215 0.224916 0)
(-8.82369 0.099076 1.15244e-21)
(-8.81046 -0.0145223 0)
(-8.77486 -0.114751 2.78756e-19)
(-8.71888 -0.202429 8.41249e-22)
(-8.64548 -0.278136 2.74007e-19)
(-8.55687 -0.343178 -2.71922e-19)
(-8.45534 -0.399116 5.65811e-22)
(-8.34263 -0.447673 0)
(-8.21997 -0.490672 -2.66099e-19)
(-8.08799 -0.529788 -2.64936e-19)
(-7.94665 -0.566396 -5.26529e-19)
(-7.79542 -0.601511 0)
(-7.63341 -0.635724 2.60328e-19)
(-7.4597 -0.669207 0)
(-7.27373 -0.701708 -5.15587e-19)
(-7.07569 -0.732561 2.56595e-19)
(-6.8668 -0.760785 -2.55308e-19)
(-6.64926 -0.785309 2.54028e-19)
(-6.42581 -0.805349 5.05141e-19)
(-6.19911 -0.820908 -2.51466e-19)
(-5.97102 -0.83325 2.50177e-19)
(-5.74204 -0.845171 0)
(-5.51091 -0.860759 -4.94677e-19)
(-5.2747 -0.884411 0)
(-5.02938 -0.919541 -4.89489e-19)