/*--------------------------------*- C++ -*----------------------------------*\
  =========                 |
  \\      /  F ield         | OpenFOAM: The Open Source CFD Toolbox
   \\    /   O peration     | Website:  https://openfoam.org
    \\  /    A nd           | Version:  9
     \\/     M anipulation  |
\*---------------------------------------------------------------------------*/
FoamFile
{
    format      ascii;
    class       volSymmTensorField;
    location    "0.099";
    object      UPrime2Mean;
}
// * * * * * * * * * * * * * * * * * * * * * * * * * * * * * * * * * * * * * //

dimensions      [0 2 -2 0 0 0 0];

internalField   nonuniform List<symmTensor> 
12225
(
(-48.1959 -0.223967 0 0.00122316 0 0)
(-45.3166 -0.282161 0 -0.000683541 0 0)
(-42.4985 -0.261023 0 -0.000876285 0 0)
(-39.7471 -0.244664 0 -0.000932658 0 0)
(-37.1278 -0.23404 0 -0.000985324 0 0)
(-34.6761 -0.223191 0 -0.00100251 0 0)
(-32.3867 -0.211233 0 -0.000983339 0 0)
(-30.2571 -0.199955 0 -0.000957121 0 0)
(-28.2526 -0.190021 0 -0.000920684 0 0)
(-26.3797 -0.182728 0 -0.000910577 0 0)
(-24.5772 -0.17686 0 -0.000868828 0 0)
(-22.894 -0.17402 0 -0.000893433 0 0)
(-21.1995 -0.172774 0 -0.000717764 0 0)
(-19.6451 -0.175293 0 -0.000797512 0 0)
(-17.9134 -0.186406 0 0.000117847 0 0)
(-16.3919 -0.198495 0 -0.000358556 0 0)
(-14.3139 -0.263546 0 0.00543509 0 0)
(-12.5061 -0.303946 0 0.00246549 0 0)
(-50.2348 -0.27561 0 0.00140681 0 0)
(-50.8374 -0.388682 0 -0.00175494 0 0)
(-51.2198 -0.386547 0 -0.00208632 0 0)
(-51.3502 -0.394308 0 -0.00235395 0 0)
(-51.308 -0.411937 0 -0.00272445 0 0)
(-51.1567 -0.427468 0 -0.00303668 0 0)
(-50.9132 -0.438963 0 -0.00327251 0 0)
(-50.5949 -0.449447 0 -0.00345733 0 0)
(-50.1932 -0.459843 0 -0.00363597 0 0)
(-49.7333 -0.472345 0 -0.00375563 0 0)
(-49.1901 -0.486148 0 -0.00390891 0 0)
(-48.6077 -0.504287 0 -0.00383896 0 0)
(-47.9199 -0.526551 0 -0.00385705 0 0)
(-47.2071 -0.557111 0 -0.00306602 0 0)
(-46.3269 -0.602412 0 -0.00239242 0 0)
(-45.4271 -0.665251 0 0.00125882 0 0)
(-44.2454 -0.784558 0 0.00667714 0 0)
(-43.0084 -0.953516 0 0.0267694 0 0)
(-49.9813 -0.142312 0 0.00291771 0 0)
(-50.2789 -0.258288 0 0.000334845 0 0)
(-50.5505 -0.269099 0 -0.000284553 0 0)
(-50.7208 -0.280874 0 -0.000583324 0 0)
(-50.8221 -0.306363 0 -0.000961529 0 0)
(-50.8967 -0.332484 0 -0.00133164 0 0)
(-50.9576 -0.354033 0 -0.00162094 0 0)
(-51.0046 -0.374198 0 -0.00185379 0 0)
(-51.0305 -0.394724 0 -0.00201478 0 0)
(-51.0349 -0.419001 0 -0.00214922 0 0)
(-51.0135 -0.445637 0 -0.00210592 0 0)
(-50.9669 -0.479084 0 -0.00198331 0 0)
(-50.8902 -0.517246 0 -0.00123263 0 0)
(-50.7792 -0.568793 0 -0.000147652 0 0)
(-50.6341 -0.634783 0 0.00312443 0 0)
(-50.4433 -0.729731 0 0.00855239 0 0)
(-50.2423 -0.870124 0 0.0225651 0 0)
(-50.02 -1.06613 0 0.0507552 0 0)
(-49.8322 -0.175872 0 0.00293604 0 0)
(-50.0531 -0.308888 0 -9.98051e-05 0 0)
(-50.2765 -0.334861 0 -0.00102688 0 0)
(-50.4231 -0.345026 0 -0.00135534 0 0)
(-50.5023 -0.365852 0 -0.00171998 0 0)
(-50.5523 -0.389904 0 -0.00208575 0 0)
(-50.5922 -0.411048 0 -0.00237079 0 0)
(-50.6234 -0.430459 0 -0.00255197 0 0)
(-50.6422 -0.450579 0 -0.00265298 0 0)
(-50.6471 -0.473567 0 -0.00262941 0 0)
(-50.6384 -0.500457 0 -0.00246008 0 0)
(-50.6157 -0.533033 0 -0.00194949 0 0)
(-50.5779 -0.573849 0 -0.000908858 0 0)
(-50.5237 -0.626433 0 0.0012256 0 0)
(-50.4534 -0.697275 0 0.00540951 0 0)
(-50.3769 -0.793539 0 0.0136583 0 0)
(-50.3062 -0.925091 0 0.0299287 0 0)
(-50.284 -1.09033 0 0.0606548 0 0)
(-49.9887 -0.098736 0 0.00357712 0 0)
(-50.1718 -0.218902 0 0.00130677 0 0)
(-50.3733 -0.257796 0 0.00026067 0 0)
(-50.5187 -0.273337 0 -0.000118811 0 0)
(-50.5997 -0.296279 0 -0.000418034 0 0)
(-50.6463 -0.324547 0 -0.000715375 0 0)
(-50.6812 -0.350925 0 -0.000940299 0 0)
(-50.7093 -0.375053 0 -0.00105595 0 0)
(-50.7269 -0.399251 0 -0.00102963 0 0)
(-50.731 -0.426435 0 -0.00082579 0 0)
(-50.7199 -0.457901 0 -0.000324959 0 0)
(-50.6946 -0.495984 0 0.000635901 0 0)
(-50.6531 -0.542771 0 0.002427 0 0)
(-50.5986 -0.601961 0 0.00566667 0 0)
(-50.5308 -0.677805 0 0.0114878 0 0)
(-50.4644 -0.77565 0 0.0221256 0 0)
(-50.4042 -0.897092 0 0.0406243 0 0)
(-50.3826 -1.03931 0 0.0729193 0 0)
(-49.7519 -0.122259 0 0.00416393 0 0)
(-49.8844 -0.235047 0 0.00150299 0 0)
(-50.0527 -0.287266 0 0.000146523 0 0)
(-50.1944 -0.309234 0 -0.000393418 0 0)
(-50.2851 -0.330718 0 -0.000740726 0 0)
(-50.339 -0.357396 0 -0.00103566 0 0)
(-50.3761 -0.384617 0 -0.00123429 0 0)
(-50.4049 -0.410453 0 -0.00127354 0 0)
(-50.4244 -0.436398 0 -0.00111799 0 0)
(-50.4329 -0.464926 0 -0.000703945 0 0)
(-50.4294 -0.497831 0 0.000101505 0 0)
(-50.4146 -0.537248 0 0.00153951 0 0)
(-50.3884 -0.585213 0 0.00403923 0 0)
(-50.3535 -0.645065 0 0.00834242 0 0)
(-50.3123 -0.719516 0 0.0156271 0 0)
(-50.2747 -0.811996 0 0.0280459 0 0)
(-50.2469 -0.921099 0 0.0482638 0 0)
(-50.2466 -1.04486 0 0.0809328 0 0)
(-50.2403 -0.0724814 0 0.00512533 0 0)
(-50.3577 -0.176662 0 0.00278239 0 0)
(-50.4914 -0.232939 0 0.00133211 0 0)
(-50.6066 -0.261691 0 0.000720255 0 0)
(-50.6797 -0.287113 0 0.000424987 0 0)
(-50.7177 -0.31671 0 0.00023012 0 0)
(-50.7398 -0.347259 0 0.000145222 0 0)
(-50.7573 -0.376162 0 0.000257724 0 0)
(-50.7703 -0.404504 0 0.000642249 0 0)
(-50.775 -0.435249 0 0.00139847 0 0)
(-50.7687 -0.470997 0 0.00268536 0 0)
(-50.7511 -0.514112 0 0.00479792 0 0)
(-50.7229 -0.566234 0 0.00820434 0 0)
(-50.6868 -0.629804 0 0.0137349 0 0)
(-50.6472 -0.705909 0 0.022551 0 0)
(-50.6106 -0.796653 0 0.0366667 0 0)
(-50.5856 -0.899227 0 0.0583154 0 0)
(-50.5805 -1.01264 0 0.090975 0 0)
(-50.1794 -0.0863294 0 0.00456302 0 0)
(-50.2569 -0.187455 0 0.00246602 0 0)
(-50.3622 -0.245588 0 0.000997679 0 0)
(-50.4676 -0.27955 0 0.000281459 0 0)
(-50.5469 -0.306644 0 -3.95823e-05 0 0)
(-50.5986 -0.335632 0 -0.000162146 0 0)
(-50.6342 -0.366583 0 -0.000127778 0 0)
(-50.6626 -0.397552 0 0.000120611 0 0)
(-50.6838 -0.428596 0 0.000678686 0 0)
(-50.6956 -0.461963 0 0.0016843 0 0)
(-50.6958 -0.499995 0 0.00334465 0 0)
(-50.6864 -0.544866 0 0.00601076 0 0)
(-50.6679 -0.597988 0 0.0101947 0 0)
(-50.6455 -0.661039 0 0.016755 0 0)
(-50.62 -0.734518 0 0.0267965 0 0)
(-50.6014 -0.819382 0 0.042102 0 0)
(-50.5889 -0.913137 0 0.0644523 0 0)
(-50.5984 -1.01436 0 0.0964866 0 0)
(-50.1789 -0.0530608 0 0.00541381 0 0)
(-50.2355 -0.141542 0 0.00362729 0 0)
(-50.3262 -0.204587 0 0.00206999 0 0)
(-50.4243 -0.243632 0 0.00132904 0 0)
(-50.5018 -0.272747 0 0.0010488 0 0)
(-50.5535 -0.302796 0 0.00100263 0 0)
(-50.5879 -0.335268 0 0.00116553 0 0)
(-50.6133 -0.368284 0 0.00161776 0 0)
(-50.632 -0.401593 0 0.00246871 0 0)
(-50.6432 -0.437167 0 0.00387741 0 0)
(-50.646 -0.477341 0 0.00607223 0 0)
(-50.6424 -0.524279 0 0.00942525 0 0)
(-50.6331 -0.579063 0 0.0144571 0 0)
(-50.6223 -0.642953 0 0.0219998 0 0)
(-50.6105 -0.715535 0 0.0330753 0 0)
(-50.605 -0.797216 0 0.0492201 0 0)
(-50.6043 -0.88488 0 0.0718315 0 0)
(-50.6204 -0.977608 0 0.102901 0 0)
(-50.0227 -0.0712822 0 0.0055956 0 0)
(-50.0983 -0.140193 0 0.00359223 0 0)
(-50.1771 -0.205862 0 0.00198724 0 0)
(-50.2509 -0.250303 0 0.00126221 0 0)
(-50.3104 -0.282326 0 0.00101932 0 0)
(-50.3538 -0.312856 0 0.00104646 0 0)
(-50.3853 -0.345632 0 0.00131785 0 0)
(-50.4107 -0.379947 0 0.00192167 0 0)
(-50.4312 -0.415194 0 0.00299266 0 0)
(-50.4463 -0.452485 0 0.00472092 0 0)
(-50.4548 -0.493656 0 0.00735774 0 0)
(-50.4593 -0.540672 0 0.0112928 0 0)
(-50.4605 -0.594549 0 0.0170315 0 0)
(-50.4638 -0.656244 0 0.0253475 0 0)
(-50.4688 -0.725215 0 0.0371051 0 0)
(-50.4833 -0.801408 0 0.0536076 0 0)
(-50.5023 -0.881967 0 0.0758619 0 0)
(-50.5384 -0.966008 0 0.105437 0 0)
(-49.9942 -0.0332727 0 0.0062187 0 0)
(-50.0925 -0.116024 0 0.00475348 0 0)
(-50.1813 -0.177468 0 0.00335887 0 0)
(-50.2573 -0.222346 0 0.00259164 0 0)
(-50.3198 -0.257866 0 0.00230985 0 0)
(-50.3677 -0.290429 0 0.00241813 0 0)
(-50.4042 -0.323696 0 0.00287248 0 0)
(-50.434 -0.358684 0 0.00372153 0 0)
(-50.4585 -0.39528 0 0.00509669 0 0)
(-50.4774 -0.434298 0 0.0072112 0 0)
(-50.4902 -0.476929 0 0.0103371 0 0)
(-50.4986 -0.524755 0 0.0148633 0 0)
(-50.5041 -0.578397 0 0.0212622 0 0)
(-50.5106 -0.638672 0 0.0302234 0 0)
(-50.519 -0.704706 0 0.0424551 0 0)
(-50.5341 -0.776596 0 0.0590241 0 0)
(-50.5543 -0.851331 0 0.08062 0 0)
(-50.5852 -0.928972 0 0.108435 0 0)
(-50.0404 -0.0182835 0 0.00658419 0 0)
(-50.0717 -0.110637 0 0.00442264 0 0)
(-50.1132 -0.169095 0 0.0028607 0 0)
(-50.1694 -0.214958 0 0.0021968 0 0)
(-50.2292 -0.253521 0 0.00206022 0 0)
(-50.2823 -0.287972 0 0.0023074 0 0)
(-50.3251 -0.321928 0 0.00291742 0 0)
(-50.3595 -0.357447 0 0.00397557 0 0)
(-50.3888 -0.394964 0 0.00563453 0 0)
(-50.4156 -0.434883 0 0.00811378 0 0)
(-50.4412 -0.477955 0 0.0116767 0 0)
(-50.4663 -0.525269 0 0.0166981 0 0)
(-50.491 -0.577448 0 0.0235995 0 0)
(-50.5168 -0.63516 0 0.032997 0 0)
(-50.5437 -0.697693 0 0.0454528 0 0)
(-50.5747 -0.764929 0 0.06184 0 0)
(-50.6086 -0.83434 0 0.0825904 0 0)
(-50.6498 -0.905933 0 0.10867 0 0)
(-49.9939 -0.0347397 0 0.00750405 0 0)
(-50.0181 -0.0968353 0 0.00577416 0 0)
(-50.0679 -0.155959 0 0.00393327 0 0)
(-50.1348 -0.202319 0 0.00332358 0 0)
(-50.204 -0.238607 0 0.00337517 0 0)
(-50.2654 -0.272232 0 0.00382124 0 0)
(-50.3147 -0.30758 0 0.00460142 0 0)
(-50.3531 -0.344869 0 0.00583146 0 0)
(-50.3837 -0.383282 0 0.00770832 0 0)
(-50.41 -0.423094 0 0.0104648 0 0)
(-50.4335 -0.465405 0 0.0143533 0 0)
(-50.4567 -0.511742 0 0.0197249 0 0)
(-50.4793 -0.562784 0 0.0269466 0 0)
(-50.505 -0.61907 0 0.0365481 0 0)
(-50.5316 -0.679475 0 0.0489476 0 0)
(-50.5656 -0.743732 0 0.0648818 0 0)
(-50.6002 -0.80909 0 0.0845369 0 0)
(-50.6468 -0.876009 0 0.10873 0 0)
(-49.8549 -0.0230852 0 0.00787553 0 0)
(-49.8818 -0.0861674 0 0.00659324 0 0)
(-49.921 -0.141332 0 0.0048154 0 0)
(-49.9731 -0.186489 0 0.00395845 0 0)
(-50.0282 -0.224922 0 0.0038839 0 0)
(-50.0794 -0.260938 0 0.00436771 0 0)
(-50.1245 -0.297383 0 0.00528704 0 0)
(-50.1652 -0.335534 0 0.00669873 0 0)
(-50.2026 -0.375197 0 0.00877971 0 0)
(-50.2379 -0.416361 0 0.0117616 0 0)
(-50.2706 -0.459264 0 0.0158828 0 0)
(-50.3024 -0.504943 0 0.0214546 0 0)
(-50.3338 -0.553693 0 0.0287847 0 0)
(-50.3688 -0.606251 0 0.0383153 0 0)
(-50.4065 -0.661638 0 0.0503267 0 0)
(-50.4523 -0.720287 0 0.0653771 0 0)
(-50.4999 -0.779565 0 0.08347 0 0)
(-50.5585 -0.840722 0 0.105251 0 0)
(-49.7138 -0.0105804 0 0.009081 0 0)
(-49.7379 -0.0812255 0 0.00814038 0 0)
(-49.7673 -0.12659 0 0.00642868 0 0)
(-49.811 -0.165239 0 0.00577165 0 0)
(-49.8648 -0.203544 0 0.00591997 0 0)
(-49.921 -0.24157 0 0.00659111 0 0)
(-49.9756 -0.278821 0 0.00770882 0 0)
(-50.0284 -0.315995 0 0.00934831 0 0)
(-50.0798 -0.354092 0 0.0116693 0 0)
(-50.1303 -0.394055 0 0.0148894 0 0)
(-50.1801 -0.436149 0 0.0192247 0 0)
(-50.2294 -0.480805 0 0.0249477 0 0)
(-50.2788 -0.527742 0 0.0322874 0 0)
(-50.3292 -0.577366 0 0.0415969 0 0)
(-50.381 -0.62877 0 0.0529911 0 0)
(-50.4355 -0.68265 0 0.0669195 0 0)
(-50.4922 -0.736744 0 0.0831749 0 0)
(-50.5519 -0.792753 0 0.102289 0 0)
(-50.0716 -0.0140474 0 0.010793 0 0)
(-50.0574 -0.0686572 0 0.00931907 0 0)
(-50.0563 -0.111125 0 0.00665541 0 0)
(-50.0785 -0.147562 0 0.00568813 0 0)
(-50.1177 -0.18063 0 0.00591786 0 0)
(-50.1667 -0.213459 0 0.00678721 0 0)
(-50.2189 -0.248092 0 0.00805552 0 0)
(-50.2711 -0.284805 0 0.0097663 0 0)
(-50.3233 -0.32301 0 0.012108 0 0)
(-50.3759 -0.362437 0 0.0153123 0 0)
(-50.4288 -0.403011 0 0.0195636 0 0)
(-50.4817 -0.445288 0 0.0250637 0 0)
(-50.5347 -0.489257 0 0.0319481 0 0)
(-50.5885 -0.535524 0 0.0404566 0 0)
(-50.644 -0.583163 0 0.0506098 0 0)
(-50.7019 -0.632919 0 0.0627167 0 0)
(-50.7625 -0.682501 0 0.0765142 0 0)
(-50.8264 -0.73376 0 0.0924193 0 0)
(-49.9036 -0.0401714 0 0.0116903 0 0)
(-49.8857 -0.0704858 0 0.0101736 0 0)
(-49.8909 -0.106105 0 0.00688061 0 0)
(-49.9268 -0.140485 0 0.00585889 0 0)
(-49.9779 -0.172859 0 0.00620517 0 0)
(-50.0314 -0.203587 0 0.00721232 0 0)
(-50.083 -0.233424 0 0.00866986 0 0)
(-50.1347 -0.264226 0 0.0106135 0 0)
(-50.1888 -0.297585 0 0.0131657 0 0)
(-50.2467 -0.334137 0 0.0164719 0 0)
(-50.3069 -0.373201 0 0.0206527 0 0)
(-50.369 -0.414187 0 0.0258673 0 0)
(-50.4308 -0.456017 0 0.0321976 0 0)
(-50.4938 -0.498724 0 0.0398064 0 0)
(-50.5561 -0.541269 0 0.0486246 0 0)
(-50.6218 -0.584678 0 0.0588867 0 0)
(-50.6865 -0.627079 0 0.0702762 0 0)
(-50.758 -0.670784 0 0.0831565 0 0)
(-49.7476 -0.0410805 0 0.0111982 0 0)
(-49.7532 -0.0455917 0 0.0106505 0 0)
(-49.7694 -0.0665095 0 0.00852703 0 0)
(-49.806 -0.0942579 0 0.007691 0 0)
(-49.8609 -0.122963 0 0.0076939 0 0)
(-49.9259 -0.15124 0 0.00832646 0 0)
(-49.9933 -0.179311 0 0.00946196 0 0)
(-50.0606 -0.207847 0 0.0110678 0 0)
(-50.1273 -0.237394 0 0.0132121 0 0)
(-50.1937 -0.268592 0 0.0160144 0 0)
(-50.2607 -0.30168 0 0.0195517 0 0)
(-50.3297 -0.337121 0 0.0238834 0 0)
(-50.4011 -0.374313 0 0.0289927 0 0)
(-50.475 -0.4132 0 0.0349583 0 0)
(-50.5508 -0.452193 0 0.0416876 0 0)
(-50.6286 -0.491773 0 0.049366 0 0)
(-50.7075 -0.529714 0 0.0577355 0 0)
(-50.7881 -0.568178 0 0.0670371 0 0)
(-49.8613 -0.0316293 0 0.0107286 0 0)
(-49.8876 -0.0456682 0 0.010481 0 0)
(-49.9194 -0.0615807 0 0.00804847 0 0)
(-49.9581 -0.0771143 0 0.00710484 0 0)
(-50.0064 -0.0927191 0 0.00723634 0 0)
(-50.0638 -0.110172 0 0.00800733 0 0)
(-50.1277 -0.131352 0 0.00923131 0 0)
(-50.1959 -0.156691 0 0.0108142 0 0)
(-50.2668 -0.185028 0 0.01274 0 0)
(-50.34 -0.215047 0 0.0150796 0 0)
(-50.4161 -0.245447 0 0.0179093 0 0)
(-50.4959 -0.275716 0 0.0212967 0 0)
(-50.5795 -0.305291 0 0.0252305 0 0)
(-50.6661 -0.334776 0 0.0297425 0 0)
(-50.7559 -0.363838 0 0.0347305 0 0)
(-50.8473 -0.393821 0 0.0402916 0 0)
(-50.941 -0.42327 0 0.0462194 0 0)
(-51.0349 -0.454395 0 0.0526611 0 0)
(-50.0173 -0.011281 0 0.0129632 0 0)
(-50.0403 -0.0229194 0 0.0115983 0 0)
(-50.0699 -0.028633 0 0.00858182 0 0)
(-50.1143 -0.0350266 0 0.0072616 0 0)
(-50.1699 -0.0447781 0 0.00711335 0 0)
(-50.2321 -0.0579695 0 0.00765142 0 0)
(-50.299 -0.0739693 0 0.00855145 0 0)
(-50.3697 -0.0919442 0 0.00966836 0 0)
(-50.4448 -0.111035 0 0.011014 0 0)
(-50.5252 -0.130896 0 0.0126692 0 0)
(-50.6114 -0.151359 0 0.0146823 0 0)
(-50.7023 -0.172744 0 0.017072 0 0)
(-50.7965 -0.194923 0 0.019806 0 0)
(-50.8927 -0.218373 0 0.0228829 0 0)
(-50.9901 -0.242336 0 0.0262105 0 0)
(-51.088 -0.267407 0 0.0298648 0 0)
(-51.1867 -0.291835 0 0.0337189 0 0)
(-51.2855 -0.317312 0 0.0378472 0 0)
(-49.9922 -0.0148178 0 0.0113267 0 0)
(-50.0055 -0.00937443 0 0.0113303 0 0)
(-50.0387 -0.00890939 0 0.00890424 0 0)
(-50.0993 -0.0093995 0 0.00764416 0 0)
(-50.177 -0.0125817 0 0.00736565 0 0)
(-50.2602 -0.0192489 0 0.00768405 0 0)
(-50.3437 -0.0288026 0 0.00831371 0 0)
(-50.4279 -0.0407335 0 0.00911998 0 0)
(-50.5142 -0.0544761 0 0.0100996 0 0)
(-50.6034 -0.0695436 0 0.0113142 0 0)
(-50.6951 -0.0854564 0 0.0128027 0 0)
(-50.7885 -0.102257 0 0.0145685 0 0)
(-50.8829 -0.119762 0 0.016576 0 0)
(-50.9783 -0.138319 0 0.0188124 0 0)
(-51.0743 -0.157379 0 0.0211918 0 0)
(-51.1715 -0.177376 0 0.0237875 0 0)
(-51.2688 -0.196982 0 0.0265057 0 0)
(-51.368 -0.217359 0 0.0293741 0 0)
(-49.865 -0.0212196 0 0.0116147 0 0)
(-49.8821 0.0112982 0 0.0101967 0 0)
(-49.9266 0.0247465 0 0.00736149 0 0)
(-49.9992 0.0286818 0 0.0060549 0 0)
(-50.0834 0.0273427 0 0.0056545 0 0)
(-50.1665 0.0226659 0 0.00574386 0 0)
(-50.2482 0.0155863 0 0.00610928 0 0)
(-50.3328 0.00660992 0 0.00665548 0 0)
(-50.4223 -0.00376087 0 0.00735663 0 0)
(-50.5165 -0.0152385 0 0.00822115 0 0)
(-50.6142 -0.0275772 0 0.00926086 0 0)
(-50.7137 -0.0409811 0 0.0104822 0 0)
(-50.8141 -0.0552349 0 0.0118697 0 0)
(-50.9154 -0.0705072 0 0.0134168 0 0)
(-51.0177 -0.0860821 0 0.0150685 0 0)
(-51.1211 -0.102346 0 0.0168777 0 0)
(-51.2253 -0.118007 0 0.0187768 0 0)
(-51.3305 -0.134269 0 0.0207645 0 0)
(-49.8543 -0.016425 0 0.00996123 0 0)
(-49.9327 0.0323974 0 0.00912657 0 0)
(-50.0196 0.057571 0 0.00691038 0 0)
(-50.1074 0.0641634 0 0.00583495 0 0)
(-50.1939 0.0632783 0 0.00555365 0 0)
(-50.2783 0.0618714 0 0.00564757 0 0)
(-50.3629 0.0609876 0 0.00586506 0 0)
(-50.4501 0.0591808 0 0.00615519 0 0)
(-50.5406 0.0551742 0 0.00656614 0 0)
(-50.6339 0.0486058 0 0.00713892 0 0)
(-50.7294 0.040047 0 0.00787481 0 0)
(-50.8268 0.0300909 0 0.00875517 0 0)
(-50.9261 0.0193685 0 0.00974794 0 0)
(-51.0268 0.00796921 0 0.010843 0 0)
(-51.1293 -0.0036019 0 0.0119972 0 0)
(-51.2322 -0.0156355 0 0.0132568 0 0)
(-51.3367 -0.0273395 0 0.0145755 0 0)
(-51.4404 -0.0395329 0 0.0159466 0 0)
(-50.1522 0.0258236 0 0.00901972 0 0)
(-50.2248 0.0498634 0 0.0063554 0 0)
(-50.3149 0.0775574 0 0.00400388 0 0)
(-50.4181 0.0903193 0 0.00318097 0 0)
(-50.5241 0.0917333 0 0.00299286 0 0)
(-50.6242 0.090081 0 0.00302115 0 0)
(-50.718 0.088506 0 0.00314244 0 0)
(-50.8084 0.0862383 0 0.00335028 0 0)
(-50.898 0.082376 0 0.00365663 0 0)
(-50.988 0.0769652 0 0.00406449 0 0)
(-51.0798 0.0706317 0 0.00456642 0 0)
(-51.1748 0.0636497 0 0.00515599 0 0)
(-51.2736 0.0561635 0 0.00582586 0 0)
(-51.3765 0.0478523 0 0.00657179 0 0)
(-51.4821 0.0389794 0 0.00736546 0 0)
(-51.5895 0.0293002 0 0.00823134 0 0)
(-51.697 0.0197238 0 0.00912811 0 0)
(-51.8043 0.00968187 0 0.0100595 0 0)
(-49.7332 0.0252234 0 0.00728537 0 0)
(-49.7738 0.0883902 0 0.00555384 0 0)
(-49.8699 0.121936 0 0.00389393 0 0)
(-50.0014 0.134171 0 0.0031457 0 0)
(-50.1296 0.137881 0 0.00283402 0 0)
(-50.2424 0.139821 0 0.00275613 0 0)
(-50.3477 0.140892 0 0.00282257 0 0)
(-50.4537 0.140202 0 0.00297458 0 0)
(-50.5613 0.137742 0 0.00318522 0 0)
(-50.6682 0.134469 0 0.00344932 0 0)
(-50.7727 0.13129 0 0.00376195 0 0)
(-50.8748 0.128336 0 0.00411846 0 0)
(-50.9757 0.125296 0 0.00452272 0 0)
(-51.0766 0.121489 0 0.00499132 0 0)
(-51.1787 0.116703 0 0.00550681 0 0)
(-51.2822 0.110637 0 0.00608672 0 0)
(-51.3877 0.103901 0 0.0066969 0 0)
(-51.4943 0.0962892 0 0.00731365 0 0)
(-50.2007 0.0204163 0 0.00687518 0 0)
(-50.3368 0.11357 0 0.00480732 0 0)
(-50.4981 0.141065 0 0.00311957 0 0)
(-50.6409 0.146026 0 0.00241285 0 0)
(-50.754 0.149086 0 0.00215627 0 0)
(-50.8496 0.153507 0 0.00206072 0 0)
(-50.9431 0.156685 0 0.00202558 0 0)
(-51.042 0.157085 0 0.00203491 0 0)
(-51.1461 0.155007 0 0.00209863 0 0)
(-51.2524 0.151525 0 0.0022194 0 0)
(-51.3586 0.147615 0 0.00239205 0 0)
(-51.4632 0.143756 0 0.00260792 0 0)
(-51.5662 0.140123 0 0.00286024 0 0)
(-51.6676 0.136488 0 0.00314702 0 0)
(-51.7686 0.132883 0 0.0034539 0 0)
(-51.869 0.129006 0 0.0038017 0 0)
(-51.9707 0.125197 0 0.00417389 0 0)
(-52.0729 0.120998 0 0.00455232 0 0)
(-50.0553 0.083306 0 0.005531 0 0)
(-50.2455 0.165099 0 0.00285722 0 0)
(-50.4305 0.195763 0 0.00151844 0 0)
(-50.5699 0.199028 0 0.00107419 0 0)
(-50.6713 0.200775 0 0.00087802 0 0)
(-50.7569 0.206107 0 0.000754153 0 0)
(-50.8434 0.210649 0 0.000680204 0 0)
(-50.9371 0.212153 0 0.000661271 0 0)
(-51.0378 0.21156 0 0.000691035 0 0)
(-51.1428 0.210282 0 0.000756828 0 0)
(-51.25 0.208948 0 0.000850575 0 0)
(-51.3579 0.207537 0 0.000970623 0 0)
(-51.4657 0.20588 0 0.00111771 0 0)
(-51.5732 0.203841 0 0.00129262 0 0)
(-51.6807 0.201551 0 0.00148773 0 0)
(-51.7883 0.199016 0 0.00171482 0 0)
(-51.8961 0.196601 0 0.00195914 0 0)
(-52.0039 0.194108 0 0.00221349 0 0)
(-50.026 0.0973829 0 0.00507339 0 0)
(-50.2283 0.15521 0 0.00247863 0 0)
(-50.4495 0.178115 0 0.00124363 0 0)
(-50.6198 0.182783 0 0.000852188 0 0)
(-50.7423 0.186837 0 0.000677052 0 0)
(-50.8497 0.192615 0 0.000562059 0 0)
(-50.9604 0.197917 0 0.000477023 0 0)
(-51.0763 0.201918 0 0.000415345 0 0)
(-51.194 0.204804 0 0.000377301 0 0)
(-51.3109 0.206733 0 0.000366374 0 0)
(-51.4266 0.207661 0 0.000381035 0 0)
(-51.5413 0.20784 0 0.000415728 0 0)
(-51.6557 0.207485 0 0.000468967 0 0)
(-51.7694 0.20705 0 0.000538461 0 0)
(-51.8833 0.206546 0 0.000621409 0 0)
(-51.9956 0.206218 0 0.000726379 0 0)
(-52.1087 0.205917 0 0.000846058 0 0)
(-52.2188 0.205803 0 0.000969188 0 0)
(-50.1716 0.169642 0 0.00330491 0 0)
(-50.5542 0.265477 0 0.000604496 0 0)
(-50.8804 0.255451 0 1.62622e-05 0 0)
(-51.0989 0.251862 0 -0.000182964 0 0)
(-51.2475 0.259626 0 -0.000383471 0 0)
(-51.3652 0.266948 0 -0.000540963 0 0)
(-51.4632 0.270793 0 -0.000643756 0 0)
(-51.5391 0.272451 0 -0.000706158 0 0)
(-51.5903 0.273126 0 -0.000742174 0 0)
(-51.6197 0.273519 0 -0.000760646 0 0)
(-51.632 0.273753 0 -0.000764519 0 0)
(-51.6342 0.274032 0 -0.000757519 0 0)
(-51.6283 0.274103 0 -0.000737644 0 0)
(-51.6193 0.274178 0 -0.000707589 0 0)
(-51.6027 0.273893 0 -0.000666131 0 0)
(-51.5845 0.273739 0 -0.000613222 0 0)
(-51.555 0.273379 0 -0.000549415 0 0)
(-51.5285 0.273608 0 -0.000491006 0 0)
(-49.1539 0.151397 0 0.00228353 0 0)
(-47.6059 0.236587 0 0.000103716 0 0)
(-46.0339 0.22567 0 -0.000174561 0 0)
(-44.4502 0.216844 0 -0.000261454 0 0)
(-42.9155 0.214301 0 -0.000357419 0 0)
(-41.4624 0.210498 0 -0.00041171 0 0)
(-40.0989 0.204275 0 -0.000422259 0 0)
(-38.824 0.19687 0 -0.000412057 0 0)
(-37.6321 0.189341 0 -0.000396397 0 0)
(-36.5176 0.182415 0 -0.000379747 0 0)
(-35.4718 0.176384 0 -0.000364637 0 0)
(-34.4902 0.171245 0 -0.000354299 0 0)
(-33.564 0.166556 0 -0.000345295 0 0)
(-32.6947 0.162076 0 -0.000335168 0 0)
(-31.8716 0.157408 0 -0.000320186 0 0)
(-31.1039 0.152808 0 -0.000298562 0 0)
(-30.3706 0.148132 0 -0.000276963 0 0)
(-29.696 0.144088 0 -0.000266748 0 0)
(0.00365754 -0.00201384 -3.08404e-23 -0.00107476 5.40428e-23 4.10894e-39)
(2.30836e-05 0.00860996 1.13285e-22 0.00304552 -7.87168e-23 4.0439e-39)
(0.0460815 -0.0267881 0 0.0340443 0 0)
(0.195407 -0.0864904 0 0.0563343 0 0)
(0.428399 -0.123611 0 0.0504365 0 0)
(0.682214 -0.125073 -4.90209e-22 0.0350482 2.51161e-23 3.80439e-39)
(0.908692 -0.0953792 0 0.0181294 0 0)
(1.0805 -0.0538512 0 0.00803696 0 0)
(1.21365 -0.0233932 0 0.0113136 0 0)
(1.33483 -0.0322001 0 0.0300216 0 0)
(1.47913 -0.0645426 6.48201e-22 0.045149 1.02169e-22 3.50816e-39)
(1.57868 -0.0595114 0 0.0458917 0 0)
(1.66398 -0.143105 0 0.062815 0 0)
(1.93337 -0.205537 0 0.0638001 0 0)
(2.25435 -0.183801 0 0.0565149 0 0)
(2.53919 -0.145674 4.79184e-22 0.0554365 1.7048e-22 3.23006e-39)
(2.79777 -0.0552295 0 0.0467575 0 0)
(2.94118 0.0991714 0 0.04035 0 0)
(2.99005 0.20055 0 0.0502878 0 0)
(2.97617 0.224581 0 0.0630102 0 0)
(2.98268 0.165968 0 0.0775937 0 0)
(3.10947 0.0844706 0 0.0955618 0 0)
(3.37542 0.0436056 0 0.10396 0 0)
(3.7143 -0.0273697 -9.81481e-22 0.104371 1.23315e-22 2.83472e-39)
(4.22281 -0.149527 1.15318e-21 0.122042 -9.06165e-23 2.78873e-39)
(4.8501 -0.198202 -1.29351e-21 0.128446 3.49157e-23 2.7434e-39)
(5.55161 -0.202862 -1.40844e-21 0.143548 -3.21299e-23 2.69871e-39)
(6.33733 -0.181568 0 0.157677 0 0)
(7.10491 -0.135307 0 0.137426 0 0)
(7.8426 -0.182496 1.67232e-21 0.148119 9.11358e-23 2.56578e-39)
(8.57569 -0.243549 1.79058e-21 0.145559 9.34904e-23 2.52156e-39)
(9.31338 -0.275899 0 0.137194 0 0)
(10.0642 -0.286352 0 0.1334 0 0)
(10.7657 -0.2802 2.34936e-21 0.143013 4.53918e-23 2.39267e-39)
(11.3696 -0.277255 0 0.164184 0 0)
(11.909 -0.274012 0 0.196642 0 0)
(12.4401 -0.303973 -2.84635e-21 0.254913 -2.02955e-23 2.26841e-39)
(13.0506 -0.398011 0 0.284798 0 0)
(13.8275 -0.520716 -3.05305e-21 0.285441 -7.48332e-23 2.18768e-39)
(14.5702 -0.568028 -6.21648e-21 0.266782 -1.30421e-22 8.59091e-39)
(15.0382 -0.431682 0 0.242711 0 0)
(15.0913 -0.173389 0 0.235779 0 0)
(14.6183 -0.000988509 0 0.23742 0 0)
(13.9477 0.0130914 0 0.24332 0 0)
(13.3413 -0.0737921 0 0.290065 0 0)
(13.01 -0.423987 -5.37788e-21 0.289237 2.49634e-22 7.67964e-39)
(13.2292 -0.76036 -5.43811e-21 0.299127 4.71752e-22 7.53431e-39)
(13.695 -0.840293 -5.5893e-21 0.33097 5.33966e-22 7.39107e-39)
(14.0387 -0.853775 0 0.24055 0 0)
(13.9231 -0.668618 6.00819e-21 0.268577 -5.57056e-22 7.11125e-39)
(13.5823 -0.000478221 0 0.224813 0 0)
(12.8504 0.0716668 -6.30226e-21 0.224666 7.11371e-23 6.84037e-39)
(12.6651 0.039367 -6.63694e-21 0.20368 5.6965e-23 6.70928e-39)
(12.5821 -0.0419736 0 0.183327 0 0)
(12.8645 -0.144507 0 0.163608 0 0)
(13.2093 -0.369502 0 0.170883 0 0)
(13.7746 -0.352941 -9.75327e-21 0.162333 5.34996e-22 6.21394e-39)
(14.1963 -0.358851 0 0.211146 0 0)
(15.1152 -0.483777 0 0.172951 0 0)
(16.2788 -0.611811 0 0.15078 0 0)
(18.0438 -0.714609 0 0.128088 0 0)
(19.6988 -1.04685 0 0.141144 0 0)
(21.4089 -0.890395 0 0.109255 0 0)
(22.241 -0.545773 0 0.197483 0 0)
(23.1338 -0.562879 0 0.193419 0 0)
(24.2181 -0.573885 1.8753e-20 0.19465 -3.65429e-22 5.21511e-39)
(25.4024 -0.602145 0 0.189428 0 0)
(26.6772 -0.599724 0 0.186261 0 0)
(27.9583 -0.57601 -2.10685e-20 0.18393 6.48252e-22 4.91126e-39)
(29.1903 -0.534927 -2.21486e-20 0.184199 6.6155e-22 4.81361e-39)
(30.3489 -0.503276 0 0.187993 0 0)
(31.4224 -0.480182 2.43923e-20 0.195956 -6.47712e-22 4.62317e-39)
(32.4447 -0.437373 -2.52446e-20 0.209593 5.48269e-22 4.52966e-39)
(33.3638 -0.390576 0 0.21721 0 0)
(34.1091 -0.3298 2.55876e-20 0.203262 -2.94422e-22 4.34368e-39)
(34.5509 -0.193448 0 0.180422 0 0)
(34.3447 -0.00743753 0 0.160757 0 0)
(33.4175 0.255647 -2.31057e-20 0.145932 -1.97958e-22 4.07493e-39)
(31.3471 0.535004 0 0.145264 0 0)
(28.2287 0.780069 2.11369e-20 0.156016 2.61306e-22 3.90762e-39)
(24.0512 0.763973 0 0.156433 0 0)
(20.1656 0.356961 -1.92903e-20 0.119221 4.33981e-23 3.74853e-39)
(18.0703 0.230731 -1.89439e-20 0.11096 1.16122e-22 3.67025e-39)
(16.3742 0.0558828 -1.87749e-20 0.113036 2.23873e-22 3.59307e-39)
(15.9947 -0.351621 -3.81682e-20 0.109001 9.26582e-22 1.40693e-38)
(15.8569 -0.492608 3.87803e-20 0.138681 -9.90996e-22 1.37711e-38)
(15.6945 -0.423743 0 0.142839 0 0)
(14.5396 -0.0616316 0 0.187295 0 0)
(12.6982 0.419105 0 0.182054 0 0)
(10.9435 0.266424 3.66359e-20 0.207122 2.40041e-23 1.26064e-38)
(10.507 -0.050899 3.5975e-20 0.145646 -3.1125e-22 1.23272e-38)
(10.9365 -0.274416 -3.61912e-20 0.107795 6.112e-22 1.20555e-38)
(11.9726 -0.404534 0 0.0776375 0 0)
(13.4473 -0.471655 3.87391e-20 0.0577162 -9.2862e-22 1.15323e-38)
(15.2829 -0.511087 4.05734e-20 0.0435466 -9.81934e-22 1.12796e-38)
(17.3449 -0.532069 4.23954e-20 0.0337283 -9.86215e-22 1.1032e-38)
(19.5589 -0.53367 0 0.0265593 0 0)
(21.6779 -0.492837 0 0.0215181 0 0)
(23.5811 -0.39355 0 0.0183819 0 0)
(24.9209 -0.252333 4.54715e-20 0.0169788 -5.67023e-22 1.00825e-38)
(25.6936 -0.0607966 0 0.0197136 0 0)
(25.597 0.13653 0 0.0302109 0 0)
(24.5627 0.351057 -4.40381e-20 0.052156 1.73642e-22 9.41022e-39)
(22.7977 0.354012 0 0.0657681 0 0)
(21.3185 0.268035 0 0.0676567 0 0)
(20.3457 -0.217172 -3.96237e-20 0.0589356 5.94321e-23 8.76743e-39)
(19.841 -0.0199814 0 0.0931072 0 0)
(17.8164 0.0589469 0 0.278527 0 0)
(17.204 -0.183153 3.38781e-20 0.244922 -4.17845e-22 8.14045e-39)
(17.4779 -0.334427 3.26195e-20 0.223348 -2.62699e-22 7.94033e-39)
(18.4796 -0.426299 0 0.194806 0 0)
(19.8913 -0.459209 -3.31256e-20 0.160923 3.92489e-22 7.55791e-39)
(21.6206 -0.444938 0 0.123327 0 0)
(23.3584 -0.416792 3.76436e-20 0.0915922 -6.56125e-22 7.19863e-39)
(25.156 -0.417283 0 0.0658712 0 0)
(27.0194 -0.403733 4.26958e-20 0.0451273 -6.25644e-22 6.85406e-39)
(28.7949 -0.339414 4.43252e-20 0.0314481 -5.0981e-22 6.68498e-39)
(30.2049 -0.234942 0 0.0232529 0 0)
(31.1387 -0.119852 0 0.0188206 0 0)
(31.5688 -0.0121673 0 0.017008 0 0)
(31.5438 0.078845 0 0.0165639 0 0)
(31.1194 0.150951 0 0.0164134 0 0)
(30.3635 0.205186 0 0.0161406 0 0)
(29.3426 0.243657 0 0.0156733 0 0)
(28.1335 0.268416 2.41077e-20 0.0150557 1.80546e-22 5.39872e-39)
(26.7973 0.282549 -2.02828e-20 0.0142955 -1.52279e-22 5.25182e-39)
(25.3813 0.288788 0 0.0134477 0 0)
(23.9132 0.290338 0 0.0126044 0 0)
(22.4098 0.289502 0 0.0118134 0 0)
(20.881 0.287185 0 0.011049 0 0)
(19.3326 0.283448 -1.42812e-20 0.0102298 -6.9551e-23 1.83045e-38)
(17.7691 0.278081 0 0.00928949 0 0)
(16.1963 0.271089 8.18349e-21 0.00821706 6.99879e-23 1.73077e-38)
(14.6214 0.262394 -5.59908e-21 0.00706092 -9.44664e-23 1.68232e-38)
(13.0539 0.252799 0 0.00596295 0 0)
(11.499 0.250906 0 0.0053615 0 0)
(9.95217 0.243196 0 0.00473947 0 0)
(8.40873 0.236007 -4.34585e-21 0.00437137 2.37985e-22 1.49464e-38)
(6.87738 0.228892 -6.98211e-21 0.00422337 2.57436e-22 1.44985e-38)
(5.36526 0.221125 0 0.00424915 0 0)
(3.88194 0.212334 -1.22051e-20 0.00440926 2.56388e-22 1.36331e-38)
(2.44074 0.201998 -1.46227e-20 0.00466005 2.33781e-22 1.32158e-38)
(1.05649 0.189871 1.67919e-20 0.00496504 -1.99994e-22 1.28087e-38)
(-0.254477 0.175769 0 0.0052905 0 0)
(-1.47649 0.159684 0 0.00561258 0 0)
(-2.59582 0.142372 2.12521e-20 0.00593886 -7.20112e-23 1.16465e-38)
(-3.60288 0.123933 0 0.00627535 0 0)
(-4.48956 0.105416 0 0.00666844 0 0)
(-5.25234 0.0871244 0 0.00713516 0 0)
(-5.89055 0.0697129 0 0.00770016 0 0)
(-6.4062 0.0530363 -2.23765e-20 0.00836037 -9.68389e-23 9.88411e-39)
(-6.80149 0.0373587 -2.1999e-20 0.00914101 -1.2328e-22 9.55538e-39)
(-7.07673 0.0226606 0 0.0100828 0 0)
(-7.23088 0.00864142 -2.08807e-20 0.0112872 -1.98528e-22 8.92051e-39)
(-7.25895 -0.00454836 0 0.0129599 0 0)
(-7.15404 -0.0152383 0 0.0152881 0 0)
(-6.91177 -0.0213062 -1.83137e-20 0.0183022 -2.53229e-22 8.02385e-39)
(-6.53149 -0.0212324 0 0.0216654 0 0)
(-6.02289 -0.0122053 -1.61953e-20 0.0247104 -1.88816e-22 7.4624e-39)
(-5.42995 0.00475691 0 0.0264305 0 0)
(-4.81878 0.018232 0 0.0258255 0 0)
(-4.24896 0.0124956 -1.35215e-20 0.0237284 -1.30747e-23 6.67099e-39)
(-3.74444 -0.0151422 0 0.0226503 0 0)
(-3.21986 -0.0621342 -1.25851e-20 0.0232814 -1.0316e-22 6.17469e-39)
(-2.57975 -0.0854732 0 0.0237913 0 0)
(-1.84817 -0.0768592 0 0.0237347 0 0)
(-1.05963 -0.0526994 0 0.0255032 0 0)
(-0.249061 -0.0120039 9.96539e-21 0.0284133 2.45765e-22 5.25356e-39)
(0.489693 0.0341458 0 0.0313081 0 0)
(1.08925 0.072551 -7.20106e-21 0.032683 -1.5989e-22 4.82993e-39)
(1.52186 0.0942462 0 0.0306778 0 0)
(1.76937 0.0840785 0 0.0265076 0 0)
(1.89685 0.0537045 0 0.022582 0 0)
(1.9352 0.0240679 0 0.0201898 0 0)
(1.93941 -0.00895691 0 0.0183721 0 0)
(2.05126 -0.0147523 0 0.0142432 0 0)
(2.18204 0.00588466 0 0.0116575 0 0)
(2.2708 0.0154594 -3.01118e-22 0.00951906 1.02704e-22 1.34102e-38)
(2.26019 0.0313641 0 0.00766274 0 0)
(2.2014 0.0573996 0 0.00844781 0 0)
(0.00484094 -0.00664347 2.3212e-23 0.0194239 -7.10541e-22 3.6974e-38)
(0.0388187 -0.0546783 -1.99439e-22 0.133415 9.32699e-22 3.6444e-38)
(0.152336 -0.203318 0 0.348547 0 0)
(0.33474 -0.333658 4.03427e-22 0.437445 -7.08723e-22 1.57031e-38)
(0.529374 -0.354123 0 0.341258 0 0)
(0.701184 -0.29375 2.42981e-22 0.231878 -1.79892e-22 3.7929e-39)