/*--------------------------------*- C++ -*----------------------------------*\
  =========                 |
  \\      /  F ield         | OpenFOAM: The Open Source CFD Toolbox
   \\    /   O peration     | Website:  https://openfoam.org
    \\  /    A nd           | Version:  9
     \\/     M anipulation  |
\*---------------------------------------------------------------------------*/
FoamFile
{
    format      ascii;
    class       volScalarField;
    location    "0.035";
    object      k_0;
}
// * * * * * * * * * * * * * * * * * * * * * * * * * * * * * * * * * * * * * //

dimensions      [0 2 -2 0 0 0 0];

internalField   nonuniform List<scalar> 
12225
(
3.8042e-05
4.37318e-05
3.85874e-05
2.8458e-05
2.83121e-05
3.83942e-05
5.45538e-05
5.87328e-05
5.74194e-05
4.69335e-05
3.50694e-05
3.14897e-05
3.17768e-05
3.69629e-05
4.77482e-05
5.2816e-05
5.36931e-05
5.13651e-05
2.06153e-05
2.13878e-05
2.12648e-05
2.09163e-05
2.1163e-05
2.33631e-05
2.9829e-05
3.33948e-05
3.40787e-05
3.36228e-05
3.09215e-05
2.7759e-05
2.66182e-05
2.66203e-05
2.71822e-05
2.88161e-05
3.5375e-05
3.99358e-05
2.00113e-05
1.71775e-05
1.61063e-05
1.62485e-05
1.6941e-05
1.77138e-05
1.81455e-05
1.82284e-05
1.81235e-05
1.77778e-05
1.7535e-05
1.73922e-05
1.73795e-05
1.74685e-05
1.78438e-05
1.92416e-05
2.13967e-05
2.32854e-05
2.00646e-05
2.0043e-05
2.00779e-05
2.03338e-05
2.0391e-05
2.02086e-05
1.95268e-05
1.81734e-05
1.71671e-05
1.66291e-05
1.57002e-05
1.42634e-05
1.36418e-05
1.3624e-05
1.3932e-05
1.52551e-05
1.65775e-05
1.7307e-05
2.66679e-05
2.32711e-05
2.78558e-05
4.64444e-05
5.26473e-05
4.07493e-05
2.95052e-05
2.49276e-05
2.27188e-05
2.17223e-05
2.13825e-05
2.13115e-05
2.14216e-05
2.21947e-05
2.32145e-05
2.36799e-05
2.38221e-05
2.37756e-05
2.59091e-05
2.26502e-05
2.11638e-05
2.3479e-05
3.46824e-05
4.08122e-05
4.08123e-05
3.56903e-05
2.763e-05
2.46422e-05
2.44638e-05
2.52934e-05
2.60154e-05
2.58662e-05
2.51969e-05
2.48674e-05
2.47784e-05
2.48813e-05
2.3514e-05
2.1467e-05
2.05937e-05
2.1102e-05
2.49581e-05
3.05596e-05
3.27154e-05
3.24523e-05
3.23547e-05
3.53178e-05
3.57844e-05
3.21468e-05
2.73051e-05
2.48643e-05
2.34204e-05
2.28023e-05
2.26899e-05
2.27701e-05
2.2073e-05
2.1819e-05
2.15022e-05
2.24967e-05
2.91023e-05
3.67946e-05
3.6256e-05
3.15901e-05
3.13359e-05
3.89435e-05
5.99422e-05
6.40254e-05
6.02458e-05
4.48365e-05
3.25012e-05
2.6493e-05
2.37442e-05
2.27503e-05
2.39987e-05
2.99957e-05
3.02562e-05
2.52739e-05
2.22609e-05
2.21933e-05
2.30242e-05
2.544e-05
3.79589e-05
5.6134e-05
5.56395e-05
4.64632e-05
3.58173e-05
2.95937e-05
2.61317e-05
2.43304e-05
2.34647e-05
2.31186e-05
2.32199e-05
2.42375e-05
2.96796e-05
3.24146e-05
2.70922e-05
2.237e-05
2.18989e-05
2.27863e-05
2.51015e-05
2.56409e-05
2.53649e-05
2.43562e-05
2.36498e-05
2.32351e-05
2.30284e-05
2.29723e-05
2.3004e-05
2.30343e-05
2.0247e-05
2.82464e-05
3.65097e-05
3.00866e-05
2.2808e-05
2.10271e-05
2.07722e-05
2.08194e-05
2.10589e-05
2.16108e-05
2.29079e-05
2.70233e-05
4.00544e-05
5.03675e-05
5.37654e-05
5.37058e-05
5.11896e-05
4.118e-05
2.20573e-05
2.49838e-05
2.65519e-05
2.6774e-05
2.30156e-05
2.11284e-05
2.08304e-05
2.08131e-05
2.08595e-05
2.10152e-05
2.14066e-05
2.25391e-05
2.58514e-05
3.5062e-05
6.28763e-05
8.63141e-05
9.40259e-05
9.35409e-05
2.10755e-05
2.15914e-05
2.17612e-05
2.13429e-05
2.15555e-05
2.18254e-05
2.18293e-05
2.1577e-05
2.10147e-05
2.08345e-05
2.08749e-05
2.13901e-05
2.37911e-05
3.34303e-05
5.75718e-05
7.44231e-05
8.13887e-05
8.24376e-05
2.27519e-05
2.20896e-05
2.40203e-05
2.42228e-05
2.37026e-05
2.24195e-05
2.1615e-05
2.12136e-05
2.10495e-05
2.10105e-05
2.10197e-05
2.11096e-05
2.14836e-05
2.27651e-05
2.61891e-05
3.6194e-05
5.81528e-05
7.30967e-05
2.01635e-05
2.09363e-05
2.11633e-05
2.10597e-05
2.09054e-05
2.09049e-05
2.10957e-05
2.21097e-05
2.32539e-05
2.36388e-05
2.3661e-05
2.34048e-05
2.2892e-05
2.27749e-05
2.28477e-05
2.33686e-05
2.51471e-05
3.24201e-05
2.14695e-05
2.2421e-05
2.19362e-05
2.13196e-05
2.12248e-05
2.12627e-05
2.1441e-05
2.1988e-05
2.42258e-05
2.84995e-05
3.03523e-05
3.02054e-05
2.79363e-05
2.47676e-05
2.30388e-05
2.23252e-05
2.21816e-05
2.23298e-05
2.11944e-05
2.27722e-05
2.18135e-05
2.12779e-05
2.11927e-05
2.11517e-05
2.09335e-05
2.08444e-05
2.09081e-05
2.1254e-05
2.23152e-05
2.30506e-05
2.30749e-05
2.25352e-05
2.15938e-05
2.10613e-05
2.08075e-05
2.07505e-05
2.00647e-05
2.19007e-05
2.35573e-05
2.58499e-05
2.90926e-05
2.87772e-05
2.45394e-05
2.22825e-05
2.19595e-05
2.16698e-05
2.10805e-05
2.08129e-05
2.07521e-05
2.07459e-05
2.07916e-05
2.10436e-05
2.14543e-05
2.15676e-05
2.07859e-05
2.1462e-05
2.12353e-05
2.09636e-05
2.09936e-05
2.1152e-05
2.11212e-05
2.10554e-05
2.09537e-05
2.08152e-05
2.07392e-05
2.07103e-05
2.07073e-05
2.0726e-05
2.08289e-05
2.1183e-05
2.25073e-05
2.47192e-05
2.01811e-05
2.01884e-05
2.02863e-05
2.07812e-05
2.13355e-05
2.16705e-05
2.17815e-05
2.17786e-05
2.16546e-05
2.13553e-05
2.11831e-05
2.11107e-05
2.10916e-05
2.10943e-05
2.11212e-05
2.12248e-05
2.15218e-05
2.23274e-05
2.18535e-05
2.1745e-05
2.08166e-05
2.05496e-05
2.05662e-05
2.08877e-05
2.20141e-05
2.29734e-05
2.31534e-05
2.26767e-05
2.17172e-05
2.13484e-05
2.12832e-05
2.13418e-05
2.15292e-05
2.19176e-05
2.2173e-05
2.26164e-05
2.09688e-05
2.43225e-05
2.43177e-05
2.23412e-05
2.09949e-05
2.07355e-05
2.07743e-05
2.10368e-05
2.1266e-05
2.13586e-05
2.1376e-05
2.13669e-05
2.12867e-05
2.1097e-05
2.09925e-05
2.09628e-05
2.09643e-05
2.10044e-05
2.05644e-05
2.10244e-05
2.10041e-05
2.07235e-05
2.06301e-05
2.0695e-05
2.12095e-05
2.23467e-05
2.29145e-05
2.30396e-05
2.29868e-05
2.2553e-05
2.18861e-05
2.15301e-05
2.13966e-05
2.13756e-05
2.14006e-05
2.15425e-05
2.00698e-05
2.08789e-05
2.19328e-05
2.20203e-05
2.14038e-05
2.12124e-05
2.1605e-05
2.30851e-05
2.40604e-05
2.44168e-05
2.4696e-05
2.52322e-05
2.65877e-05
2.78983e-05
2.86846e-05
2.90013e-05
2.90455e-05
2.89218e-05
2.00627e-05
2.07094e-05
2.57988e-05
3.39445e-05
3.3669e-05
2.77682e-05
2.30467e-05
2.19961e-05
2.21116e-05
2.31731e-05
2.62852e-05
2.92152e-05
3.12712e-05
3.25013e-05
3.30778e-05
3.32501e-05
3.32533e-05
3.3099e-05
2.03486e-05
2.07522e-05
2.13188e-05
2.29944e-05
2.62728e-05
2.65307e-05
2.53335e-05
2.39597e-05
2.36361e-05
2.36573e-05
2.39235e-05
2.42219e-05
2.44052e-05
2.45759e-05
2.48727e-05
2.55348e-05
2.73323e-05
3.37289e-05
2.00938e-05
2.07713e-05
2.11845e-05
2.10709e-05
2.0347e-05
1.95387e-05
1.93106e-05
1.91198e-05
1.88732e-05
1.90219e-05
1.95975e-05
1.98628e-05
1.99205e-05
1.99132e-05
1.98285e-05
1.97183e-05
1.96327e-05
1.96334e-05
2.00345e-05
1.96056e-05
1.86424e-05
1.54708e-05
9.93048e-06
7.20979e-06
6.50356e-06
6.50809e-06
6.98833e-06
9.12984e-06
1.22131e-05
1.4381e-05
1.56955e-05
1.63129e-05
1.64672e-05
1.6457e-05
1.63618e-05
1.61285e-05
2.14603e-05
2.25855e-05
2.21555e-05
2.11582e-05
2.07213e-05
2.06608e-05
2.08515e-05
2.18736e-05
2.58203e-05
3.59406e-05
4.39251e-05
4.80892e-05
4.92681e-05
4.91507e-05
4.79001e-05
4.39549e-05
4.09795e-05
3.9482e-05
5.98774e-05
9.30933e-05
9.69987e-05
8.99668e-05
4.84085e-05
3.09416e-05
2.90795e-05
3.3993e-05
6.3231e-05
0.000104639
0.000124321
0.000129145
0.000128015
0.000116929
9.71752e-05
8.57518e-05
8.04463e-05
7.86119e-05
0.0613594
0.0763179
0.0733637
0.064343
0.0658302
0.0661826
0.0619117
0.0602771
0.065223
0.0766902
0.0778142
0.0761704
0.0720304
0.0682025
0.0653644
0.0630749
0.0616403
0.0604845
0.0602725
0.0597405
0.0597707
0.0598792
0.0597741
0.0592293
0.0584849
0.0613848
0.0597287
0.0194647
0.0347241
0.043904
0.0428067
0.0445056
0.0442944
0.0505007
0.0546778
0.0612188
0.0755735
0.07244
0.0597102
0.0521556
0.0495577
0.0510096
0.0634004
0.158345
0.243462
0.100247
0.0379307
0.0281828
0.026974
0.0273221
0.0269557
0.0250559
0.0227806
0.0200499
0.0170145
0.0146275
0.0121265
0.0102647
0.00818587
0.00710132
0.0056665
0.00497969
0.00402106
0.00360759
0.00318382
0.00290106
0.0027654
0.00271319
0.00272119
0.00272362
0.00272481
0.00272267
0.00271347
0.00270174
0.00269192
0.00268148
0.00266851
0.00265443
0.00263999
0.0026245
0.00260751
0.00258945
0.00257133
0.00255389
0.0025367
0.0025187
0.0024995
0.00247931
0.00245839
0.00243829
0.00241908
0.00239877
0.00237688
0.00235802
0.0023427
0.00232951
0.00231266
0.00229567
0.00228463
0.00227204
0.00226179
0.0022507
0.00224062
0.00223001
0.00221441
0.0021935
0.0021622
0.0021182
0.00206344
0.00200213
0.00193948
0.00187859
0.0018143
0.00173892
0.00164894
0.0015365
0.00139587
0.00123064
0.00105568
0.000889605
0.000746221
0.000632443
0.000543535
0.000474532
0.000420955
0.000377732
0.000340475
0.000306665
0.000275182
0.000245801
0.000218987
0.000194894
0.000173483
0.000154856
0.000138277
0.000122866
0.000107891
9.25915e-05
7.63845e-05
5.968e-05
4.42057e-05
3.19168e-05
2.32913e-05
1.73621e-05
1.32157e-05
1.01992e-05
7.90607e-06
6.11012e-06
4.69093e-06
3.57813e-06
2.71946e-06
2.06776e-06
1.57874e-06
1.21282e-06
9.37292e-07
7.27111e-07
5.64323e-07
4.36603e-07
3.35606e-07
2.55597e-07
1.92454e-07
1.43057e-07
1.04889e-07
7.58502e-08
5.41027e-08
3.80727e-08
2.64111e-08
1.80541e-08
1.21398e-08
8.03168e-09
5.21275e-09
3.32545e-09
2.07288e-09
1.26956e-09
7.54481e-10
4.39356e-10
2.49814e-10
1.19631e-10
5.93758e-10
4.13991e-07
0.0492122
0.0561195
0.0553954
0.0682791
0.0805439
0.0772793
0.0676275
0.061695
0.0588317
0.0526843
0.0461027
0.0396002
0.0345591
0.031159
0.0288703
0.0273784
0.0264975
0.0257824
0.0258339
0.0262728
0.0272873
0.0297006
0.0319197
0.0366695
0.0400052
0.0483135
0.0534207
0.0506135
0.0468688
0.0512274
0.0653432
0.0899667
0.0792584
0.0553513
0.0532779
0.0531736
0.0647798
0.0695502
0.0642753
0.0509703
0.0490683
0.0737943
0.111668
0.119943
0.082284
0.0387696
0.0231551
0.0178396
0.0153726
0.012711
0.0105825
0.00869949
0.00725642
0.00624295
0.00532619
0.00487528
0.00443359
0.00422712
0.00406894
0.00400289
0.00397264
0.00396675
0.00397953
0.00399762
0.00402466
0.00403665
0.00404489
0.0040466
0.00404213
0.00401786
0.00398023
0.00394653
0.00391306
0.00386738
0.00381312
0.0037598
0.00370788
0.00365541
0.00360399
0.00355425
0.00350324
0.00344837
0.0033918
0.00333663
0.00328172
0.00322414
0.00316496
0.00310415
0.00303726
0.00297208
0.00291309
0.00285427
0.00278765
0.00272828
0.00267461
0.00263497
0.00258517
0.00254094
0.00250258
0.00246442
0.00242677
0.00239112
0.00235941
0.00233862
0.00234302
0.00238697
0.00246247
0.00252874
0.00256002
0.00256569
0.00255086
0.00250142
0.0024528
0.00241445
0.00239087
0.00238161
0.00237954
0.00237531
0.00235483
0.00227128
0.00209153
0.00190127
0.00171613
0.00154442
0.00138783
0.00124383
0.0011085
0.00097964
0.000857588
0.000743378
0.000638035
0.000543213
0.000459621
0.000386747
0.000325346
0.0002764
0.000239384
0.00021207
0.000191637
0.000175851
0.000162853
0.000150705
0.000138338
0.00012587
0.000113348
0.000100648
8.77853e-05
7.51641e-05
6.33139e-05
5.2659e-05
4.3433e-05
3.56721e-05
2.92648e-05
2.40196e-05
1.97244e-05
1.61848e-05
1.32431e-05
1.07809e-05
8.71187e-06
6.97276e-06
5.51533e-06
4.30213e-06
3.30313e-06
2.49417e-06
1.8528e-06
1.3564e-06
9.788e-07
6.95909e-07
4.8662e-07
3.34708e-07
2.25806e-07
1.49653e-07
9.69367e-08
6.16551e-08
3.80735e-08
2.31856e-08
1.33415e-08
7.99248e-09
3.59137e-09
3.75199e-08
0.050583
0.0457692
0.0593431
0.0910617
0.086818
0.0744938
0.0554378
0.0405816
0.0307636
0.0259839
0.0232575
0.021552
0.020319
0.0194869
0.0189294
0.018551
0.0182937
0.0180567
0.0179574
0.0180076
0.0181739
0.0186109
0.0192217
0.0205862
0.0224954
0.0250932
0.0301046
0.0400002
0.0426185
0.0465996
0.0530986
0.0694506
0.0734821
0.0716731
0.0640164
0.0553357
0.0558769
0.0576978
0.0619138
0.0670883
0.0759156
0.0773769
0.0691761
0.0362369
0.0227893
0.0137176
0.0100209
0.00817781
0.00680934
0.00580408
0.00525432
0.00479874
0.00458611
0.00442487
0.00433265
0.00428654
0.00425925
0.00425088
0.0042545
0.00432575
0.00439251
0.00450357
0.00461743
0.00472893
0.00482482
0.00490601
0.00495173
0.00497792
0.00498924
0.00499243
0.00498635
0.00495043
0.00488735
0.00482369
0.00476993
0.00471783
0.00466928
0.00463348
0.00460704
0.00458311
0.00455785
0.00452454
0.00448459
0.00444621
0.00439574
0.00432092
0.004232
0.00412569
0.00399029
0.00385014
0.00371969
0.00359479
0.00346158
0.00334805
0.00322965
0.00313634
0.00303902
0.0029563
0.0028795
0.00281052
0.00272955
0.00263008
0.00250752
0.00235187
0.00219177
0.00210261
0.00207817
0.00213088
0.00233523
0.00252605
0.00260203
0.00260106
0.00251697
0.00229253
0.00208498
0.00196322
0.00192068
0.0019076
0.00189508
0.00188359
0.00186755
0.00182802
0.0017322
0.00161152
0.00147189
0.00131241
0.00114178
0.000974676
0.000824715
0.000699402
0.000597461
0.000514256
0.000443858
0.000380149
0.000319772
0.000262855
0.000213224
0.000175346
0.000149401
0.000132934
0.000122466
0.0001158
0.00011157
0.000107612
0.000102577
9.65757e-05
9.00587e-05
8.29693e-05
7.51618e-05
6.67153e-05
5.79412e-05
4.93172e-05
4.135e-05
3.44002e-05
2.85939e-05
2.38765e-05
2.00898e-05
1.7037e-05
1.45279e-05
1.24068e-05
1.05631e-05
8.92941e-06
7.4699e-06
6.16778e-06
5.01421e-06
4.00589e-06
3.14079e-06
2.41634e-06
1.82244e-06
1.34764e-06
9.74904e-07
6.90714e-07
4.77279e-07
3.23659e-07
2.1238e-07
1.38179e-07
8.44462e-08
5.2923e-08
2.97514e-08
1.60671e-08
0.0471123
0.0844951
0.115688
0.0998686
0.064465
0.0357495
0.0252206
0.0213398
0.0203419
0.0198136
0.0194517
0.0191603
0.01869
0.0183439
0.0180823
0.0179061
0.0178144
0.017762
0.0177393
0.0177681
0.0178628
0.0180851
0.0184064
0.0187567
0.019453
0.0202037
0.0217939
0.0244457
0.0298682
0.035544
0.0397571
0.0504437
0.0579893
0.057077
0.0516013
0.0525501
0.061507
0.0687575
0.0672613
0.0675873
0.0661533
0.0446448
0.0228335
0.0137135
0.00949858
0.00709672
0.00599091
0.00526965
0.00481271
0.00453944
0.00440161
0.00433425
0.0043167
0.00435921
0.00445725
0.00453247
0.00467748
0.00483412
0.00502296
0.00524183
0.00548884
0.00575799
0.00589102
0.00593828
0.0059586
0.00596627
0.00596793
0.00596254
0.00593972
0.00590484
0.00587705
0.0058613
0.00585425
0.00585526
0.00586555
0.00588684
0.00591122
0.00592706
0.00594213
0.00595763
0.00598454
0.00599447
0.00598094
0.00589945
0.00575527
0.00557613
0.00540357
0.00522887
0.00503131
0.00482173
0.00461984
0.00441757
0.0041986
0.00401008
0.00382417
0.00365612
0.00349326
0.00333616
0.00318725
0.00306015
0.00297677
0.00294357
0.00292853
0.00290786
0.00281114
0.00250434
0.00214393
0.0019574
0.00194166
0.00205597
0.0024484
0.00275929
0.00286775
0.00287183
0.00278724
0.00256
0.0024093
0.00233724
0.00232028
0.0023369
0.00243789
0.00254484
0.00257444
0.00257224
0.0025393
0.00242664
0.0023027
0.00217595
0.00202089
0.00183536
0.00163931
0.00145327
0.00128505
0.00113271
0.000989499
0.000845922
0.000693941
0.000537498
0.000393834
0.000278507
0.000195764
0.000138581
9.75452e-05
6.90435e-05
5.2353e-05
4.5004e-05
4.29504e-05
4.27723e-05
4.27873e-05
4.26389e-05
4.19082e-05
3.89925e-05
3.09774e-05
2.32694e-05
1.74377e-05
1.31926e-05
1.02368e-05
8.28515e-06
7.04675e-06
6.23906e-06
5.63379e-06
5.0907e-06
4.55199e-06
4.0051e-06
3.4574e-06
2.9277e-06
2.43433e-06
1.98701e-06
1.58959e-06
1.24537e-06
9.57546e-07
7.24148e-07
5.3859e-07
3.93133e-07
2.82494e-07
1.97472e-07
1.37882e-07
8.9723e-08
6.37727e-08
3.43085e-08
0.0348438
0.113234
0.0778157
0.0355688
0.0226318
0.0193906
0.0191341
0.0195068
0.0202603
0.0209434
0.0207018
0.0200037
0.0194283
0.0191761
0.0191326
0.0191739
0.0193489
0.0195864
0.0202455
0.0206478
0.0206552
0.0207676
0.0208488
0.0208223
0.0207927
0.0209019
0.0213851
0.0222814
0.0240453
0.0281519
0.0310554
0.0366724
0.0449807
0.0453826
0.0463215
0.0609438
0.0674538
0.0661844
0.0609527
0.0513896
0.0313958
0.0165809
0.0101131
0.00726751
0.00588307
0.00499411
0.00455536
0.0042533
0.00411458
0.00405512
0.00404026
0.00408164
0.00422304
0.00436005
0.00451962
0.00469221
0.00491235
0.0051809
0.00551511
0.00593652
0.00616759
0.00624497
0.00627445
0.00628303
0.00628359
0.0062694
0.0062282
0.00617486
0.00615078
0.0061487
0.00615616
0.00617624
0.00621143
0.00626686
0.00635101
0.00646905
0.00661004
0.00676113
0.00687298
0.00689483
0.006876
0.00678025
0.00660815
0.00636821
0.0061087
0.00585579
0.00562944
0.00542373
0.00521317
0.00499374
0.00478846
0.00458908
0.00436872
0.0041683
0.00397518
0.00379634
0.003627
0.0034599
0.00329164
0.00312486
0.00296761
0.00283856
0.00279936
0.00287765
0.00300849
0.00302887
0.00292682
0.00248005
0.00205145
0.00196056
0.00203502
0.00241072
0.00283124
0.00299512
0.00301831
0.00298015
0.00275504
0.00250158
0.00236712
0.00231824
0.00231737
0.00236079
0.00245727
0.00250424
0.00251667
0.00251228
0.00247996
0.00241197
0.00230723
0.00214067
0.00191874
0.00167369
0.00144155
0.00124284
0.00107927
0.000941412
0.000816707
0.000694699
0.000574
0.000462958
0.000370982
0.000302116
0.000253366
0.000216112
0.000181553
0.000146713
0.000117443
0.000102608
9.98294e-05
9.96538e-05
9.89552e-05
9.57565e-05
8.52905e-05
7.14156e-05
5.75931e-05
4.34524e-05
2.98557e-05
1.83764e-05
1.04781e-05
6.57705e-06
5.40856e-06
5.16262e-06
4.86949e-06
4.32839e-06
3.61992e-06
2.87975e-06
2.201e-06
1.64692e-06
1.22155e-06
9.12334e-07
6.84452e-07
5.1683e-07
3.90222e-07
2.93793e-07
2.20119e-07
1.61788e-07
1.1867e-07
8.30882e-08
5.95886e-08
3.85961e-08
0.0608733
0.0490928
0.0244852
0.0174746
0.0175351
0.0187566
0.0213055
0.0235419
0.0233727
0.0223685
0.0210136
0.0200716
0.0197343
0.0197846
0.0200801
0.0209604
0.0219828
0.0236686
0.0263742
0.0272953
0.0275917
0.0286957
0.0291218
0.0287462
0.0276297
0.0255929
0.0236954
0.0233208
0.0238998
0.0254399
0.0272831
0.0316941
0.0374754
0.042125
0.057572
0.0645285
0.0632499
0.0542788
0.0372495
0.0216058
0.0133761
0.00837233
0.00623254
0.00522118
0.0046106
0.00421352
0.00403103
0.00394407
0.00391552
0.00391266
0.00396427
0.00408151
0.00424186
0.00443846
0.00468318
0.00497342
0.00531473
0.00577153
0.00623519
0.00643373
0.00652345
0.00656701
0.00658624
0.00659075
0.0065827
0.00654128
0.00652355
0.00652531
0.00655201
0.00661159
0.00667949
0.00675731
0.00684691
0.00697279
0.00715406
0.0073862
0.00746897
0.00746257
0.00738266
0.00728987
0.00715872
0.00695416
0.00669777
0.00636868
0.00599736
0.00559446
0.00524405
0.00495886
0.00471099
0.00446894
0.00425843
0.0041067
0.00397261
0.00385718
0.00373301
0.00360182
0.00348643
0.00337519
0.00325886
0.00313578
0.00299137
0.00281732
0.00263362
0.00250475
0.00254422
0.00285793
0.00303022
0.00300285
0.00273481
0.0022926
0.00217299
0.0022521
0.00263679
0.00297136
0.00308233
0.00309105
0.00304877
0.00279395
0.00256868
0.0024499
0.00240339
0.00240062
0.0024335
0.002455
0.00244427
0.00238711
0.00225942
0.0021683
0.00211477
0.00207292
0.00200051
0.00182664
0.00155947
0.00129748
0.00107945
0.000913571
0.000786735
0.000681943
0.000587435
0.000497297
0.000412246
0.000337787
0.000279535
0.000238277
0.000208151
0.000181365
0.000154884
0.000131772
0.000117145
0.000111917
0.000111018
0.000110674
0.000109812
0.000107611
0.000101675
8.68953e-05
6.96996e-05
5.38943e-05
4.08485e-05
3.08097e-05
2.33306e-05
1.77204e-05
1.3425e-05
1.01648e-05
7.72755e-06
5.9124e-06
4.54795e-06
3.50129e-06
2.68425e-06
2.03667e-06
1.52433e-06
1.12365e-06
8.18142e-07
5.85632e-07
4.14468e-07
2.86835e-07
1.968e-07
1.31534e-07
8.69063e-08
5.52402e-08
0.0188177
0.0178382
0.0152431
0.0160081
0.0198316
0.0250416
0.0259894
0.0256642
0.0241783
0.022192
0.0209897
0.0209282
0.0212155
0.0221541
0.0241208
0.0274515
0.031936
0.0416184
0.0493578
0.0518118
0.0570181
0.0576283
0.0560827
0.0523078
0.0456071
0.0372672
0.0298482
0.0259569
0.0247672
0.0254317
0.0270075
0.0319258
0.0375445
0.0494194
0.0601552
0.0607215
0.0479758
0.0289457
0.017962
0.0108153
0.0075107
0.00573751
0.00490653
0.00444386
0.00410315
0.00394463
0.00388184
0.00386363
0.00386357
0.00389661
0.00398019
0.00413818
0.00436938
0.00468135
0.00508388
0.00560126
0.00609831
0.00649654
0.00674519
0.00694466
0.00712462
0.00724906
0.00734058
0.00748114
0.00765936
0.00781748
0.00796326
0.00809132
0.00823875
0.00840185
0.0085049
0.00853954
0.00852857
0.00847422
0.00835536
0.00817883
0.00802762
0.00781119
0.00752199
0.00733571
0.00710252
0.00672991
0.00632642
0.00579043
0.00528113
0.00491166
0.00467001
0.00446625
0.00423247
0.00392005
0.00353424
0.0031708
0.00281318
0.00252537
0.00236854
0.00232045
0.00233139
0.00238907
0.00247528
0.00259454
0.00271539
0.00276466
0.00267168
0.00247279
0.00232679
0.00233735
0.00262825
0.00292615
0.00293596
0.00275629
0.00250014
0.00245585
0.00256211
0.00291865
0.00310448
0.00313708
0.00310673
0.00288369
0.00261343
0.00251534
0.00249095
0.00249392
0.00252876
0.00255581
0.00255368
0.00252529
0.00242669
0.00232927
0.00227145
0.00223082
0.00216749
0.00202466
0.0017171
0.00137382
0.00106137
0.00081676
0.000649973
0.000543722
0.000471361
0.000415088
0.00036648
0.000320378
0.000274101
0.000233596
0.000205897
0.000187662
0.000168318
0.000143097
0.000118113
0.000102481
9.88338e-05
9.96565e-05
0.000101831
0.000102242
0.000101824
0.000100006
9.42766e-05
8.04031e-05
6.51371e-05
5.09055e-05
3.85854e-05
2.85569e-05
2.07149e-05
1.47718e-05
1.04418e-05
7.40113e-06
5.31274e-06
3.88133e-06
2.88399e-06
2.16603e-06
1.63103e-06
1.22151e-06
9.05463e-07
6.608e-07
4.74674e-07
3.34335e-07
2.31064e-07
1.56528e-07
1.04136e-07
6.76532e-08
0.0132769
0.0167126
0.0149253
0.0195052
0.0258612
0.027393
0.0272795
0.0264347
0.0240717
0.022687
0.0227811
0.0234437
0.0254274
0.0302127
0.0372174
0.0478313
0.0702315
0.0936307
0.113749
0.130975
0.134438
0.131197
0.121439
0.108654
0.0938273
0.0729016
0.0506756
0.0351473
0.027842
0.0260923
0.0274628
0.0333929
0.0418128
0.0549176
0.0575359
0.0474025
0.0261512
0.0159981
0.00985468
0.00689273
0.00549607
0.00478429
0.00440379
0.00413037
0.00394651
0.00387416
0.00385323
0.00385174
0.00386922
0.00393488
0.00408469
0.00434283
0.0047131
0.00521374
0.00586189
0.00640257
0.00687934
0.00715895
0.00757975
0.00800985
0.00844621
0.00894762
0.00951991
0.0102521
0.0111022
0.0119402
0.0127003
0.0133064
0.0137202
0.0139535
0.0140428
0.0137956
0.0133047
0.0126795
0.0116996
0.010631
0.00983986
0.00901941
0.00814896
0.00761945
0.00708348
0.00650146
0.00600043
0.00550348
0.0051126
0.0048576
0.00470899
0.00465447
0.00456796
0.00428938
0.00370929
0.00315951
0.00263606
0.00212923
0.00166714
0.00130046
0.00106206
0.000944943
0.000931336
0.00102093
0.00131552
0.00185449
0.00233194
0.00242831
0.00230194
0.00219272
0.00221964
0.00251029
0.00279029
0.00280096
0.00264068
0.00252601
0.00255421
0.0028013
0.00306523
0.00312168
0.00308508
0.00283413
0.00254596
0.00247778
0.00247789
0.00250001
0.00260413
0.00269318
0.00270199
0.00266156
0.00243221
0.00223039
0.00217915
0.00216064
0.00213799
0.00209198
0.00197592
0.00168307
0.00132812
0.00098361
0.000687311
0.00047197
0.000346549
0.000288229
0.00026499
0.000253306
0.00023923
0.000218092
0.000194797
0.00017575
0.000162147
0.000148156
0.000127105
0.000100965
8.11121e-05
7.69571e-05
8.09161e-05
8.84592e-05
9.16378e-05
9.21071e-05
9.16104e-05
8.95093e-05
8.32013e-05
7.0431e-05
5.66949e-05
4.36138e-05
3.22027e-05
2.29111e-05
1.57826e-05
1.06259e-05
7.08921e-06
4.75705e-06
3.24902e-06
2.27206e-06
1.62542e-06
1.18179e-06
8.65465e-07
6.31953e-07
4.56472e-07
3.24458e-07
2.26347e-07
1.54843e-07
1.03766e-07
6.82826e-08
0.0143764
0.0180481
0.0154982
0.0241485
0.0276738
0.0283025
0.0281079
0.0268517
0.0250749
0.0248635
0.025678
0.0285123
0.0351222
0.0476951
0.0659692
0.0947665
0.13144
0.161975
0.179104
0.189459
0.189687
0.186275
0.174717
0.155001
0.127479
0.0898742
0.0558852
0.0360272
0.0280709
0.0266705
0.029028
0.0376286
0.0497016
0.0536966
0.0490855
0.0262372
0.0151127
0.00962884
0.00668782
0.00536832
0.00474178
0.00442368
0.00421364
0.00404264
0.00393001
0.00387082
0.00385817
0.00386705
0.00392237
0.00406808
0.00435282
0.00482495
0.00557591
0.0063482
0.0067703
0.00723612
0.00772433
0.00849831
0.00935393
0.0101731
0.0113091
0.0128923
0.0147039
0.016853
0.0190981
0.0213712
0.0236644
0.025571
0.0270298
0.0279827
0.0283283
0.0276651
0.0263204
0.0244125
0.0219206
0.0190581
0.0165029
0.0140269
0.0117312
0.00996801
0.00837645
0.00722959
0.00638734
0.00575447
0.00536723
0.00526144
0.00536582
0.00583168
0.00617101
0.00611753
0.00518625
0.0039977
0.00310156
0.00232226
0.00167926
0.00120394
0.00086203
0.000626026
0.000491723
0.000449201
0.000468093
0.000580736
0.00105046
0.00180543
0.00209217
0.0020914
0.00207305
0.00213468
0.00246363
0.0026449
0.00262711
0.00249864
0.00247559
0.00257684
0.00289811
0.00303081
0.00302308
0.00287649
0.00256632
0.002398
0.00237055
0.0023945
0.00252818
0.00273542
0.00282836
0.00283578
0.0027816
0.00252194
0.00236198
0.0023222
0.00224079
0.00203555
0.00175596
0.00148294
0.00122034
0.000958098
0.000711545
0.000507103
0.000360972
0.000269739
0.00021835
0.000193697
0.000185371
0.000181688
0.000174048
0.000163384
0.000153396
0.000140776
0.0001221
9.92897e-05
7.83445e-05
6.76815e-05
7.08131e-05
8.05686e-05
8.4258e-05
8.49021e-05
8.46896e-05
8.35498e-05
8.17696e-05
7.88588e-05
7.19923e-05
5.97538e-05
4.66238e-05
3.44551e-05
2.42449e-05
1.63383e-05
1.06347e-05
6.77082e-06
4.28512e-06
2.74181e-06
1.79661e-06
1.21122e-06
8.37301e-07
5.89889e-07
4.19332e-07
2.97705e-07
2.09179e-07
1.44888e-07
9.83166e-08
6.57655e-08
0.0147898
0.0185543
0.0168896
0.0261008
0.0284723
0.029041
0.028737
0.0275186
0.0268566
0.0274264
0.0301127
0.0357301
0.0460235
0.0642978
0.0903139
0.124435
0.160229
0.188899
0.206163
0.207631
0.201135
0.190788
0.174573
0.152935
0.122363
0.0836189
0.0510495
0.0336335
0.0281419
0.0279862
0.0336574
0.0454855
0.0494424
0.0485232
0.0286938
0.0153569
0.00958522
0.00674472
0.0053609
0.00474062
0.00444342
0.00428546
0.0041567
0.00404519
0.00393833
0.00389303
0.00389205
0.00393777
0.00407514
0.00437788
0.00496366
0.00577432
0.0063655
0.00676405
0.00735578
0.0080619
0.00888789
0.0101946
0.0118792
0.0140634
0.0170272
0.0209454
0.0258703
0.0304957
0.0351248
0.0400992
0.0449865
0.0509352
0.0555924
0.0589491
0.0602287
0.0598124
0.0563983
0.0513311
0.0452185
0.0384582
0.0320736
0.0262553
0.0213999
0.0174636
0.0139185
0.0111767
0.00906054
0.00752034
0.0066663
0.0063473
0.00650264
0.00727645
0.00762299
0.00759879
0.00715667
0.00577898
0.00417374
0.00293674
0.0019966
0.00130209
0.00086815
0.000594447
0.000419363
0.000326101
0.000300964
0.000312981
0.000385251
0.000701812
0.00141361
0.00176288
0.00187251
0.00193078
0.0021227
0.00242853
0.00249077
0.00240548
0.0022773
0.00229409
0.00251774
0.00283398
0.00293015
0.00291621
0.00275261
0.00240481
0.00222477
0.00219371
0.00223828
0.00247017
0.00272696
0.00284236
0.00286136
0.00283616
0.002691
0.0025263
0.00239554
0.00219982
0.00191473
0.00156756
0.00121429
0.000904557
0.000661263
0.000481859
0.000353213
0.000263462
0.000204009
0.000168808
0.000151527
0.000144968
0.000142809
0.000140614
0.000135611
0.000128911
0.000121006
0.000110832
9.87549e-05
8.83416e-05
8.36513e-05
8.39053e-05
8.39288e-05
8.18967e-05
7.89663e-05
7.70964e-05
7.59405e-05
7.48189e-05
7.31153e-05
6.96409e-05
6.07603e-05
4.76149e-05
3.50091e-05
2.43242e-05
1.60833e-05
1.02037e-05
6.27722e-06
3.79682e-06
2.2974e-06
1.41557e-06
8.98985e-07
5.89592e-07
3.97672e-07
2.73791e-07
1.89882e-07
1.31405e-07
8.96426e-08
6.06545e-08
0.0152638
0.0192502
0.0191915
0.026846
0.0288427
0.0294805
0.0294986
0.0292027
0.0292317
0.03017
0.0329483
0.0388065
0.0500862
0.0701633
0.0984033
0.133885
0.167164
0.185896
0.193824
0.195492
0.189192
0.177661
0.159639
0.135015
0.0994508
0.0601448
0.0384562
0.0302835
0.028771
0.0317797
0.0416803
0.0457362
0.0466039
0.034653
0.0164501
0.00986736
0.00688101
0.0054405
0.00476954
0.0044655
0.0043183
0.00423599
0.00415998
0.00406155
0.00399645
0.00398429
0.00405519
0.00422548
0.00456856
0.00515296
0.00589459
0.00661882
0.00724587
0.00792672
0.00888787
0.0102297
0.0120943
0.014771
0.0186171
0.0241645
0.0308513
0.0374285
0.043394
0.0505453
0.0601214
0.072883
0.087879
0.101879
0.114858
0.122565
0.125622
0.125084
0.117938
0.105923
0.0910614
0.0747871
0.0597166
0.0473996
0.0379699
0.0304643
0.0250886
0.0199732
0.0158964
0.0126814
0.010284
0.00880538
0.00821586
0.00817024
0.00812183
0.00799172
0.0077242
0.00704526
0.00522243
0.00355723
0.00237475
0.00152558
0.000963492
0.000618129
0.000416619
0.000306206
0.000256124
0.000247353
0.000260629
0.00033161
0.000622232
0.00118738
0.00149527
0.0016266
0.00183213
0.00216893
0.00231584
0.00229999
0.00208583
0.00194023
0.00197967
0.00227989
0.00259213
0.00267847
0.00265221
0.00239699
0.00198596
0.00182001
0.00180888
0.00189755
0.00223617
0.00252662
0.00266512
0.00269708
0.0026797
0.00255394
0.00228583
0.00207773
0.00185897
0.00159309
0.00128915
0.000981307
0.000708045
0.000498475
0.000359618
0.000267124
0.000202168
0.000160739
0.000138573
0.000129304
0.000126079
0.000123583
0.000120308
0.000116687
0.000113144
0.000110282
0.00010822
0.000104402
9.67227e-05
8.93438e-05
8.5009e-05
8.11782e-05
7.70279e-05
7.35233e-05
7.11697e-05
6.98821e-05
6.90624e-05
6.78894e-05
6.551e-05
5.94281e-05
4.66199e-05
3.38424e-05
2.31099e-05
1.4977e-05
9.28503e-06
5.55574e-06
3.24474e-06
1.87726e-06
1.09615e-06
6.57652e-07
4.09025e-07
2.63519e-07
1.74958e-07
1.18534e-07
8.03711e-08
5.47194e-08
0.0155155
0.0195833
0.0207704
0.0269289
0.0289126
0.0296321
0.0298026
0.0298316
0.0300228
0.0309295
0.0337027
0.0391678
0.0463511
0.057267
0.0730841
0.0950186
0.119377
0.138367
0.147596
0.151077
0.146391
0.13157
0.109602
0.0817322
0.0534779
0.0385256
0.0319513
0.0303657
0.031085
0.0391091
0.0431051
0.044263
0.0385871
0.0190829
0.0104929
0.00711586
0.00555956
0.00482881
0.0044957
0.00434375
0.00426968
0.00422674
0.00417095
0.0041125
0.00409424
0.00413351
0.00430435
0.00460067
0.00500039
0.00556906
0.00627974
0.00696516
0.00768315
0.00859941
0.00986374
0.0113583
0.0138543
0.0176133
0.0232388
0.0309999
0.0400052
0.0493776
0.0609897
0.0777949
0.102802
0.13325
0.164384
0.191292
0.211657
0.222626
0.226618
0.222361
0.209789
0.189338
0.162385
0.130675
0.0994234
0.0739314
0.0553036
0.0423854
0.0327213
0.0260377
0.0207684
0.0166135
0.0135795
0.0113793
0.00987736
0.00894592
0.00841693
0.00813785
0.00789428
0.00746649
0.00636792
0.0044839
0.00300955
0.00194522
0.0012041
0.000731299
0.000457443
0.000314391
0.000250789
0.000229152
0.000229098
0.000247689
0.000330502
0.000635161
0.00102942
0.00121656
0.00144431
0.00178502
0.00202215
0.00207548
0.00199476
0.00165365
0.00149053
0.00152187
0.00179917
0.00209233
0.00217119
0.00213715
0.00184164
0.00144646
0.00131238
0.00131531
0.00144976
0.00183482
0.00209241
0.00220167
0.00222304
0.00219752
0.00202512
0.00174242
0.0015588
0.00138286
0.00117139