/*--------------------------------*- C++ -*----------------------------------*\
  =========                 |
  \\      /  F ield         | OpenFOAM: The Open Source CFD Toolbox
   \\    /   O peration     | Website:  https://openfoam.org
    \\  /    A nd           | Version:  9
     \\/     M anipulation  |
\*---------------------------------------------------------------------------*/
FoamFile
{
    format      ascii;
    class       volScalarField;
    location    "0.035";
    object      nut;
}
// * * * * * * * * * * * * * * * * * * * * * * * * * * * * * * * * * * * * * //

dimensions      [0 2 -1 0 0 0 0];

internalField   nonuniform List<scalar> 
12225
(
4.47673e-10
0
0
0
0
0
0
0
0
0
0
0
0
0
0
0
0
0
3.28038e-10
0
0
0
0
0
0
0
0
0
0
0
0
0
0
0
0
0
1.29758e-10
0
0
0
0
0
0
0
0
0
0
0
0
0
0
0
0
0
0
0
0
0
0
0
0
0
0
5.08611e-11
8.37327e-10
6.66412e-10
0
0
0
0
0
0
1.03653e-08
5.77372e-08
2.57868e-08
3.03421e-07
1.59848e-06
6.20836e-07
1.17107e-07
2.19329e-07
1.50903e-07
0
0
0
1.58451e-08
3.48864e-08
2.92812e-08
1.21929e-08
0
0
7.04536e-07
5.72781e-07
0
0
1.07441e-06
1.13558e-06
6.84054e-07
5.80995e-07
2.08833e-07
3.16984e-08
6.40426e-08
1.44098e-07
1.58818e-07
1.33498e-07
1.0606e-07
1.05555e-07
4.72936e-08
1.09203e-08
4.63759e-07
1.06352e-07
0
0
0
9.71624e-07
1.29239e-06
7.23146e-07
3.26444e-07
4.57867e-07
8.65718e-07
9.1449e-07
6.20936e-07
3.85909e-07
1.54543e-07
0
0
0
6.27355e-08
2.15422e-07
8.78714e-08
0
0
1.06236e-06
8.45128e-07
4.1481e-07
3.38742e-07
9.71974e-07
1.68037e-06
1.19863e-06
5.53739e-07
1.58283e-07
0
0
0
0
5.69755e-07
3.77132e-07
5.39695e-07
7.33432e-07
4.64418e-07
4.73338e-07
6.55523e-07
3.60059e-07
4.8527e-07
1.71302e-06
2.04219e-06
8.8873e-07
1.38786e-07
0
0
0
0
0
7.96515e-07
6.14757e-07
1.57198e-06
2.28473e-06
1.23749e-06
0
0
0
7.26204e-07
4.22987e-07
0
0
9.82671e-09
9.55707e-08
5.11411e-08
0
0
0
0
9.25368e-07
2.36455e-06
1.89912e-06
1.2304e-06
0
0
0
0
0
0
0
1.30312e-07
3.16319e-07
3.95687e-07
4.18601e-07
3.33712e-07
9.71183e-08
0
6.43271e-07
1.47897e-06
1.54047e-06
4.29576e-07
0
0
0
0
0
0
0
1.70038e-08
2.64154e-07
8.3903e-07
1.6673e-06
2.05705e-06
1.32261e-06
8.03573e-07
1.47526e-06
9.9432e-07
6.81608e-07
0
0
0
0
0
0
0
0
0
2.59299e-07
8.79249e-07
1.17539e-06
9.50643e-07
5.2267e-07
5.31986e-07
6.35565e-07
4.82639e-07
4.96547e-07
0
0
0
0
0
0
0
0
0
0
0
0
0
0
2.9208e-07
2.11348e-07
0
0
0
0
0
0
3.71537e-08
0
0
0
0
0
0
0
0
0
0
8.57394e-08
0
0
0
0
0
0
2.51068e-07
3.25996e-07
3.72225e-07
4.71227e-07
0
0
0
0
0
0
0
1.09824e-06
2.75468e-07
0
0
1.26134e-06
1.72218e-07
0
0
3.30834e-07
4.57492e-07
8.06525e-07
9.90519e-07
0
0
0
0
0
0
7.48379e-07
7.20633e-07
0
1.30292e-06
2.79726e-06
2.03464e-06
3.75674e-07
4.00512e-07
4.43632e-07
2.28372e-07
0
3.56436e-08
2.32931e-08
0
0
3.63854e-07
1.21791e-06
0
3.56619e-07
4.4057e-07
0
0
1.68527e-07
0
0
7.37235e-08
0
0
0
0
0
0
0
0
0
0
3.05755e-07
1.19405e-08
0
0
0
0
0
0
0
0
0
0
0
0
0
0
0
4.09841e-07
3.92733e-07
0
0
0
0
0
2.47939e-07
1.30232e-06
1.84603e-06
7.47564e-08
0
0
0
0
0
0
0
9.20442e-08
0
0
0
0
0
0
0
0
0
0
0
0
0
0
0
0
0
3.10778e-07
0
1.0184e-07
1.37261e-08
0
0
0
0
0
0
0
0
0
0
0
0
0
0
1.3043e-08
5.33165e-08
4.50214e-07
6.88218e-07
4.95066e-07
0
0
0
0
0
0
0
0
0
0
0
0
0
0
0
2.13271e-07
6.1212e-07
7.06403e-07
2.9486e-07
0
0
9.5743e-08
1.10404e-07
0
0
0
0
0
0
0
0
0
0
0
2.12872e-08
9.16774e-08
0
0
0
0
2.3746e-08
0
0
0
0
0
0
0
0
0
6.09163e-09
2.50137e-08
8.5099e-09
0
0
0
0
0
0
0
0
0
0
2.06363e-09
3.70314e-09
4.85529e-09
5.97902e-09
0
0
3.60825e-10
2.27943e-10
0
0
0
0
0
0
0
0
0
0
0
3.75536e-10
1.02433e-09
1.49548e-09
4.7921e-10
0
0
1.86671e-10
7.19081e-11
0
0
0
0
0
0
0
0
0
0
0
0
1.67472e-10
8.00623e-10
0
0
3.05273e-10
1.16368e-10
0
0
0
0
0
0
0
0
0
0
0
0
0
0
5.97766e-06
1.64894e-05
0
0
0
0
0
2.09646e-06
2.72249e-06
1.70648e-06
4.4566e-07
0
0
0
0
0
0
0
0
1.06982e-07
1.5329e-07
7.3155e-08
0
1.06918e-08
7.34546e-07
8.04342e-07
5.20656e-08
2.58516e-06
1.21841e-05
2.61214e-05
3.45924e-05
1.22399e-05
0
0
0
1.79963e-06
2.90695e-06
1.49565e-07
0
0
0
0
2.00719e-05
3.31846e-05
1.242e-05
2.97458e-06
5.9564e-07
5.73533e-08
1.04988e-07
2.63137e-07
3.74891e-07
4.2201e-07
4.17927e-07
3.82083e-07
3.3852e-07
2.87214e-07
2.41858e-07
1.95103e-07
1.61946e-07
1.26994e-07
1.02474e-07
7.73635e-08
5.92142e-08
4.21076e-08
2.71966e-08
1.36875e-08
9.17614e-10
0
0
0
0
0
0
0
0
0
0
0
0
0
0
0
0
0
0
0
0
0
0
0
0
0
0
0
0
0
0
0
0
0
0
0
0
0
0
0
0
0
0
0
0
0
0
0
0
0
0
0
0
0
0
0
0
0
0
0
0
0
0
0
0
0
0
0
0
0
0
0
0
0
0
0
0
0
0
0
0
0
0
0
0
0
0
0
0
0
0
0
0
0
0
0
0
0
0
0
0
0
0
0
0
0
0
0
0
0
0
0
0
0
0
0
0
0
0
0
1.70053e-06
3.90794e-06
4.45393e-06
3.55523e-06
1.94787e-06
5.31262e-07
0
0
0
0
0
0
6.17328e-08
2.26489e-07
2.84166e-07
2.12437e-07
0
5.95434e-08
1.07351e-06
0
0
0
3.27623e-06
7.80954e-06
1.43575e-05
1.82928e-05
0
0
0
8.88853e-06
1.09025e-05
4.26322e-06
0
0
0
0
0
1.88316e-06
3.65742e-06
2.33153e-06
8.63629e-07
2.82517e-07
2.45058e-07
3.24453e-07
3.67585e-07
3.67219e-07
3.43979e-07
3.06537e-07
2.74884e-07
2.41082e-07
2.13594e-07
1.88028e-07
1.65431e-07
1.4424e-07
1.23966e-07
1.04196e-07
8.44993e-08
6.47121e-08
4.45805e-08
2.4237e-08
4.00683e-09
0
0
0
0
0
0
0
0
0
0
0
0
0
0
0
0
0
0
0
0
0
0
0
0
0
0
0
0
0
0
0
0
0
0
0
0
0
0
0
0
0
0
0
0
0
0
0
0
0
0
0
0
0
0
0
0
0
0
0
0
0
0
0
0
0
0
0
0
0
0
0
0
0
0
0
0
0
0
0
0
0
0
0
0
0
0
0
0
0
0
0
0
0
0
0
0
0
0
0
0
0
0
0
0
0
0
0
0
0
0
0
0
3.34872e-06
4.31773e-06
2.15136e-06
1.64227e-06
1.04788e-06
1.20981e-06
2.28996e-06
3.67222e-06
4.47112e-06
4.5964e-06
4.0802e-06
2.935e-06
1.13042e-06
0
0
0
0
0
0
1.10749e-06
2.19525e-06
2.66841e-06
2.37298e-06
1.43688e-06
5.40838e-07
1.56912e-06
5.98546e-07
0
4.10898e-07
3.70991e-06
5.64336e-06
1.02834e-05
1.88489e-05
1.80873e-05
0
0
1.6611e-06
1.42313e-06
4.06261e-07
0
0
0
0
0
1.87619e-07
1.49141e-06
1.26988e-06
7.73862e-07
7.27649e-07
9.38262e-07
1.16359e-06
1.26862e-06
1.27088e-06
1.1982e-06
1.09626e-06
9.87898e-07
8.81765e-07
7.82864e-07
6.91535e-07
6.11068e-07
5.34019e-07
4.62058e-07
3.91171e-07
3.20545e-07
2.49353e-07
1.77896e-07
1.0629e-07
3.55282e-08
0
0
0
0
0
0
0
0
0
0
0
0
0
0
0
0
0
0
0
0
0
0
0
0
0
0
0
0
0
0
0
0
0
0
0
0
0
0
0
0
0
0
0
0
0
6.55882e-09
2.22956e-09
0
0
0
0
0
0
0
0
0
0
0
0
1.78803e-09
2.97785e-09
3.32336e-09
2.92701e-09
2.13174e-09
1.22322e-09
2.95277e-10
0
0
0
0
0
0
0
0
0
0
0
0
0
0
0
0
0
0
0
0
0
0
0
0
0
0
0
0
0
0
0
0
0
0
0
0
0
0
0
0
0
0
0
0
2.06639e-11
0
9.17159e-06
4.34691e-06
4.01267e-06
3.64737e-06
3.05541e-06
2.69698e-06
3.35722e-06
5.00528e-06
6.7684e-06
8.14733e-06
9.49819e-06
9.84127e-06
2.08513e-06
0
0
0
0
0
0
0
0
0
3.95798e-06
5.33332e-06
1.31975e-06
1.68745e-06
3.55187e-06
2.58605e-06
6.07303e-06
7.8308e-06
6.76743e-06
5.40179e-06
2.91263e-06
0
0
0
0
0
0
7.16529e-08
0
0
0
0
0
6.41941e-07
9.55296e-07
1.61186e-06
2.24695e-06
2.33154e-06
1.94792e-06
1.49871e-06
1.13922e-06
8.8898e-07
7.19047e-07
5.97673e-07
5.13336e-07
4.4971e-07
4.02051e-07
3.67799e-07
3.46242e-07
3.35748e-07
3.28911e-07
3.21909e-07
3.05645e-07
2.68243e-07
1.98766e-07
8.80309e-08
0
0
0
0
0
0
0
0
0
0
0
0
0
0
0
0
0
0
0
0
0
0
0
0
0
0
0
0
0
0
0
0
0
0
0
0
0
0
0
0
0
0
0
0
0
0
0
0
0
0
0
0
0
0
0
0
0
0
0
0
0
8.12985e-10
8.22997e-08
1.33598e-07
1.56659e-07
1.58954e-07
1.45858e-07
1.23468e-07
9.88724e-08
7.64799e-08
5.68895e-08
3.85669e-08
2.11678e-08
6.43797e-09
0
0
0
0
0
0
0
0
0
0
0
0
0
0
0
0
0
0
0
0
0
0
0
0
0
0
0
0
0
0
0
0
2.00608e-11
0
1.42664e-10
0
2.60166e-10
0
4.35025e-06
4.30023e-06
2.77795e-06
2.04078e-06
2.02527e-06
2.63703e-06
6.87737e-06
1.57721e-05
1.86939e-05
2.2292e-05
2.90163e-05
2.95778e-05
0
0
0
0
0
0
0
0
0
1.50551e-06
5.51036e-06
8.9461e-06
1.2543e-05
1.44357e-05
1.09646e-05
7.26566e-06
5.22771e-06
3.03328e-06
9.71364e-07
0
0
0
0
0
0
0
4.17542e-07
9.50671e-07
5.71223e-07
0
0
0
6.50939e-07
2.89898e-06
3.60493e-06
2.86101e-06
1.92153e-06
1.25809e-06
8.29326e-07
5.68361e-07
4.11725e-07
3.10113e-07
2.41497e-07
1.91055e-07
1.54449e-07
1.30125e-07
1.19909e-07
1.25971e-07
1.45918e-07
1.77076e-07
2.14064e-07
2.49756e-07
2.74039e-07
2.69996e-07
2.15715e-07
9.17215e-08
0
0
0
0
0
0
0
0
0
0
0
0
0
0
0
0
0
0
0
0
0
0
0
0
0
0
0
0
0
0
0
0
0
0
0
0
0
0
0
0
0
0
0
0
0
0
0
0
0
0
0
0
0
0
0
0
0
0
0
0
2.49258e-08
1.47086e-09
0
0
0
0
0
0
0
0
0
0
0
0
0
0
0
0
0
0
0
0
0
0
0
0
0
0
0
0
3.00049e-09
4.54377e-09
5.26202e-09
5.53957e-09
5.25551e-09
4.54489e-09
3.6858e-09
2.81056e-09
2.0769e-09
1.38872e-09
9.37198e-10
4.16027e-10
2.69643e-10
0
0
0
1.65362e-11
0
2.69915e-10
0
2.83552e-10
0
3.35989e-06
3.90732e-06
2.61616e-06
1.94653e-06
1.29383e-06
4.73372e-06
2.34752e-05
2.21557e-05
1.83464e-05
9.56512e-06
0
0
0
0
4.72465e-07
6.4643e-08
0
0
0
0
3.68408e-06
7.69221e-06
8.62742e-06
7.45529e-06
5.86203e-06
4.87022e-06
4.50451e-06
3.80808e-06
2.19804e-06
2.11166e-07
0
0
0
0
0
0
0
0
1.56211e-09
5.49374e-07
9.27839e-07
1.31032e-06
2.8097e-06
4.99191e-06
5.79683e-06
4.4464e-06
3.10717e-06
2.16576e-06
1.53693e-06
1.12249e-06
8.43596e-07
6.48229e-07
5.05107e-07
3.952e-07
3.13176e-07
2.55223e-07
2.21824e-07
2.13206e-07
2.25038e-07
2.4977e-07
2.86046e-07
3.30185e-07
3.7795e-07
4.26494e-07
4.69689e-07
4.84638e-07
4.27309e-07
2.31625e-07
0
0
0
0
0
0
0
0
0
0
0
0
0
0
0
0
0
0
0
0
0
0
0
0
0
0
0
0
0
0
0
0
0
0
0
0
0
0
0
0
0
0
0
0
0
0
0
0
9.393e-06
4.57633e-06
6.58504e-07
0
0
0
0
0
0
0
1.19632e-07
1.19769e-06
1.3991e-06
1.091e-06
5.50079e-07
9.05085e-08
0
0
0
8.97093e-08
1.63744e-07
1.71998e-07
1.14719e-07
2.12763e-08
0
0
0
0
0
0
0
0
0
3.14548e-09
8.54678e-08
8.40731e-08
6.62305e-08
4.63245e-08
2.53829e-08
4.88954e-10
0
0
0
0
0
0
0
0
0
0
0
0
0
0
0
0
0
0
6.43811e-09
5.08683e-10
4.09837e-09
0
0
0
3.42112e-07
6.6763e-07
1.35486e-06
2.37683e-06
0
0
0
0
0
0
0
0
0
0
0
0
0
0
0
6.47906e-06
2.45498e-05
2.5191e-05
1.88806e-05
1.22208e-05
7.13232e-06
4.1021e-06
2.54564e-06
1.63483e-06
6.64876e-07
0
0
0
0
0
0
0
0
0
0
0
2.60644e-06
5.5919e-06
4.75405e-06
3.54499e-06
3.12494e-06
2.64293e-06
2.09111e-06
1.62624e-06
1.28007e-06
1.02629e-06
8.32014e-07
6.74998e-07
5.4837e-07
4.49138e-07
3.78866e-07
3.34966e-07
3.08699e-07
2.93652e-07
2.86167e-07
2.88959e-07
3.06044e-07
3.41122e-07
3.97436e-07
4.79601e-07
5.91022e-07
7.24055e-07
8.31046e-07
7.11039e-07
0
0
0
0
0
0
0
0
0
0
0
0
0
0
0
0
0
0
0
0
0
5.13429e-08
5.23022e-08
0
0
0
0
0
0
0
0
0
0
0
0
0
0
0
0
0
0
0
0
0
0
0
0
1.14883e-07
3.64479e-06
5.33221e-06
2.84033e-06
4.61499e-07
2.64908e-08
0
0
0
1.01881e-07
1.71415e-07
2.45288e-07
1.49991e-06
1.88955e-06
1.7513e-06
1.38232e-06
9.31949e-07
4.88505e-07
2.9623e-07
4.94254e-07
7.18121e-07
7.70881e-07
6.73128e-07
4.4723e-07
1.23746e-07
0
0
0
0
0
0
0
9.26472e-08
1.32496e-07
1.21187e-07
2.21603e-07
1.3038e-07
6.10509e-08
2.10527e-08
0
0
0
0
0
0
0
0
0
0
0
0
0
0
0
0
0
0
0
0
2.20227e-09
0
0
0
0
0
9.35418e-09
8.08689e-08
4.05429e-07
0
0
0
0
0
0
0
0
0
0
0
0
0
0
0
4.28264e-05
0.00010094
8.00601e-05
5.63221e-05
3.7248e-05
2.30518e-05
1.33708e-05
7.29712e-06
3.7207e-06
1.7468e-06
4.33194e-07
0
0
0
0
0
0
0
0
0
0
1.13169e-06
2.87328e-06
6.16838e-07
3.2543e-07
1.09742e-06
1.5883e-06
1.62916e-06
1.46434e-06
1.2621e-06
1.07537e-06
9.14127e-07
7.77062e-07
6.60053e-07
5.64432e-07
4.89736e-07
4.32199e-07
3.74256e-07
3.13496e-07
2.49318e-07
1.9702e-07
1.64523e-07
1.59802e-07
1.87116e-07
2.50091e-07
3.59259e-07
5.38763e-07
8.36484e-07
1.3338e-06
2.0674e-06
8.18187e-07
0
0
0
0
0
0
3.62008e-08
3.38264e-08
9.07388e-09
0
0
0
0
0
0
0
0
0
0
0
2.32057e-08
1.39273e-07
1.77417e-07
1.24719e-07
7.28149e-09
0
0
0
0
0
0
0
0
0
0
0
0
0
0
0
0
0
0
0
0
0
0
0
1.72605e-06
2.50355e-06
5.42079e-07
0
0
0
0
0
1.20079e-07
3.58711e-07
1.43381e-06
2.45233e-06
2.49088e-06
1.76428e-06
6.68367e-07
1.43874e-08
9.43408e-08
5.93638e-07
1.05212e-06
1.32843e-06
1.45154e-06
1.23181e-06
6.16121e-07
0
0
0
0
0
0
0
3.27231e-07
5.12034e-07
5.20957e-07
4.1191e-07
9.65138e-08
1.09877e-08
0
0
0
0
0
0
0
0
0
5.97152e-09
0
0
0
0
0
0
0
0
0
0
0
0
0
0
0
0
0
0
0
1.81069e-07
0
0
0
0
0
0
0
0
0
0
0
0
0
0
6.51741e-05
0.000108098
0.00010994
9.19149e-05
7.07282e-05
5.03509e-05
3.26594e-05
1.93849e-05
1.06968e-05
5.61072e-06
2.74363e-06
6.97349e-07
0
0
0
0
0
0
0
0
0
0
0
0
0
0
9.91651e-08
7.76773e-07
9.86899e-07
1.00244e-06
9.4774e-07
8.68023e-07
7.82424e-07
6.98945e-07
6.20665e-07
5.53256e-07
4.80778e-07
3.91177e-07
2.97136e-07
1.99271e-07
1.11057e-07
4.62981e-08
2.11638e-08
3.97695e-08
9.69078e-08
1.93109e-07
3.50191e-07
6.1878e-07
1.09755e-06
1.97011e-06
3.68178e-06
5.09656e-06
0
0
0
6.96143e-07
1.05701e-06
1.19586e-06
1.19012e-06
1.11151e-06
9.78358e-07
7.98576e-07
5.86748e-07
3.45416e-07
1.15253e-07
0
0
0
0
0
0
0
0
0
0
9.47164e-10
1.0765e-07
7.066e-08
0
0
0
0
0
0
0
0
0
0
0
0
0
0
0
0
0
0
0
0
0
0
0
0
0
0
0
0
0
0
0
0
6.81431e-08
1.38128e-06
4.71956e-06
3.42857e-06
3.0642e-07
0
0
3.9078e-07
8.02581e-07
6.84006e-07
3.5669e-07
3.52095e-08
0
0
0
0
1.69723e-09
0
0
0
1.3066e-07
5.29475e-07
5.73646e-07
4.09853e-07
8.78786e-08
0
0
0
0
0
0
0
0
0
0
0
0
0
0
0
0
0
0
0
0
0
0
0
0
0
0
0
0
0
0
9.38947e-09
0
0
7.15256e-08
8.1205e-08
0
0
0
0
0
2.46275e-07
4.57346e-06
1.5837e-05
3.43334e-05
5.63066e-05
7.85218e-05
9.63146e-05
0.00010111
9.36212e-05
7.975e-05
6.16873e-05
4.10717e-05
2.41036e-05
1.42734e-05
8.30399e-06
4.10532e-06
1.34829e-06
0
0
0
0
0
0
0
0
0
0
0
0
0
0
0
2.04782e-07
4.86237e-07
5.99181e-07
6.35869e-07
6.33629e-07
6.0859e-07
5.70155e-07
5.15652e-07
4.37558e-07
3.51957e-07
2.68123e-07
1.79569e-07
9.19206e-08
2.07995e-08
0
0
5.55756e-08
1.82005e-07
4.05583e-07
7.91522e-07
1.45464e-06
2.54844e-06
4.09483e-06
5.0186e-06
0
0
0
0
0
0
0
4.2139e-07
7.46298e-07
8.98417e-07
9.18332e-07
8.3483e-07
6.72874e-07
4.89403e-07
2.90081e-07
4.9054e-08
0
0
0
0
0
0
0
0
0
0
6.3073e-08
2.81094e-08
0
0
0
0
0
0
0
0
0
0
0
0
0
0
0
0
0
0
0
0
0
0
0
0
0
0
0
0
0
0
0
0
0
0
0
0
0
8.7485e-08
2.61956e-07
2.25776e-07
3.3927e-09
0
0
0
0
0
8.62786e-08
1.89142e-07
1.58812e-07
0
0
0
1.66452e-07
2.23261e-07
1.09969e-07
0
0
0
0
0
0
0
0
0
0
0
0
0
0
0
0
0
0
0
0
0
0
0
0
0
0
0
0
0
0
0
0
1.11875e-06
2.1168e-06
3.16132e-06
5.58166e-06
1.17464e-05
1.1929e-05
5.87399e-06
4.39376e-06
5.26556e-06
8.52267e-06
1.54282e-05
2.68969e-05
4.30801e-05
6.26825e-05
8.40348e-05
0.000106314
0.000123296
0.000126159
0.0001137
8.07659e-05
3.32135e-05
1.77641e-05
1.6958e-05
1.26397e-05
7.39489e-06
4.28994e-06
3.68662e-06
8.82288e-07
0
0
0
0
0
0
0
0
0
0
0
0
0
0
1.02487e-07
2.53144e-07
3.38861e-07
3.8473e-07
3.97208e-07
3.75977e-07
3.29647e-07
2.76075e-07
2.24936e-07
1.75318e-07
1.22079e-07
6.51462e-08
1.93141e-08
1.14839e-08
7.69684e-08
2.48209e-07
5.54438e-07
1.03708e-06
1.77233e-06
2.79171e-06
3.8517e-06
3.8501e-06
9.67652e-07
0
0
0
0
0
0
0
0
1.58459e-07
6.38376e-07
8.96225e-07
9.85406e-07
9.74467e-07
9.02341e-07
7.95821e-07
5.57577e-07
1.0218e-07
0
0
0
0
0
0
0
0
0
0
0
0
0
0
0
0
0
0
0
0
0
0
0
0
0
0
0
0
0
0
0
0
0
0
0
0
0
0
0
0
0
0
0
0
0
0
0
0
1.2228e-07
3.37655e-07
3.21933e-07
1.80099e-07
0
0
0
0
3.20408e-08
3.04434e-07
2.77866e-07
0
0
0
0
6.43731e-08
1.23549e-07
4.03336e-08
0
0
0
0
0
0
0
0
0
0
0
0
0
0
0
0
0
0
0
0
0
0
0
0
0
0
0
0
0
0
0
0
9.68036e-07
2.8155e-06
4.23026e-06
6.46743e-06
8.93889e-06
7.91815e-06
5.28396e-06
4.33703e-06
5.0583e-06
7.40735e-06
1.19803e-05
1.96741e-05
3.18586e-05
4.99114e-05
7.43849e-05
9.78218e-05
8.22666e-05
1.56439e-05
0
0
0
0
0
0
0
0
4.39948e-06
3.25738e-06
1.87689e-06
1.13661e-06
1.23952e-06
9.85331e-07
0
0
0
0
0
0
0
0
0
0
0
0
7.3105e-08
1.25596e-07
1.43089e-07
1.36954e-07
1.26657e-07
1.21424e-07
1.1492e-07
1.04599e-07
8.76684e-08
5.8558e-08
2.93296e-08
4.62976e-08
1.72718e-07
4.49691e-07
8.79553e-07
1.45088e-06
2.10176e-06
2.55175e-06
2.08462e-06
9.78491e-08
0
0
0
0
0
0
0
0
0
0
2.21547e-07
5.61235e-07
7.0788e-07
7.47621e-07
7.24424e-07
6.81407e-07
6.70173e-07
6.01353e-07
2.15943e-07
0
0
0
0
0
0
0
0
0
0
0
0
0
0
0
0
0
0
0
0
0
0
0
0
0
0
0
0
0
0
0
0
0
0
0
0
0
0
0
0
0
0
0
0
0
0
0
8.48091e-08
4.42931e-07
4.46604e-07
3.22709e-07
1.56709e-07
0
0
0
0
6.56067e-07
2.02919e-08
0
0
0
0
4.45293e-08
1.14962e-07
2.26829e-08
0
0
0
0
0
0
0
0
0
0
0
0
0
0
0
0
0
0
0
0
0
0
0
0
0
0
0
0
0
0
0
0
0
1.79427e-06
3.20505e-06
4.63206e-06
5.51469e-06
4.93169e-06
3.61075e-06
2.81375e-06
2.93312e-06
4.18556e-06
6.90318e-06
1.17027e-05
1.97015e-05
3.31142e-05
5.02439e-05
3.69843e-05
0
0
0
0
0
0
0
0
0
0
3.97541e-06
4.86713e-06
5.18224e-06
6.2953e-06
3.97135e-06
3.9789e-07
0
0
0
0
0
0
0
0
0
0
0
0
0
0
0
0
0
2.74025e-08
4.83632e-08
5.36281e-08
5.71751e-08
4.12301e-08
7.67081e-09
2.08811e-08
1.67459e-07
4.5759e-07
8.09298e-07
1.10055e-06
1.09069e-06
3.88184e-07
0
0
0
0
0
0
0
0
0
0
0
0
0
7.82798e-08
2.52673e-07
3.60315e-07
4.04709e-07
2.24905e-07
0
0
0
0
0
0
0
0
0
0
0
0
0
0
0
0
0
0
0
0
0
0
0
0
0
0
0
0
0
0
0
0
0
0
0
0
0
0
0
0
0
0
0
0
0
0
0
0
0
0
0
5.20917e-07
6.15972e-07
4.76033e-07
2.70359e-07
6.88469e-08
0
0
0
0
0
0
0
0
0
1.11947e-08
1.14425e-07
3.99982e-08
0
0
0
0
0
0
0
0
0
0
0
0
0
0
0
1.3365e-09
3.55574e-10
0
0
0
0
0
0
0
0
0
0
0
0
0
0
0
0
0
9.75653e-07
2.04744e-06
2.72509e-06
2.70329e-06
2.16737e-06
1.66135e-06
1.56764e-06
2.10024e-06
3.54316e-06
6.41276e-06
1.18631e-05
2.20394e-05
2.32377e-05
0
0
0
0
0
0
0
0
0
0
1.90929e-06
4.06911e-06
6.33371e-06
8.13599e-06
4.76388e-06
1.50035e-06
3.84135e-07
0
0
0
0
0
0
0
0
0
0
0
0
0
0
0
0
0
0
0
6.47053e-09
9.99055e-09
0
0
0
0
0
0
0
0
0
0
0
0
0
0
0
0
0
0
0
0
0
0
0
7.28236e-08
1.00122e-07
2.47149e-07
3.10629e-07
0
0
0
0
0
0
0
0
0
0
0
0
0
0
0
0
0
0
0
0
0
0
0
0
0
0
0
0
0
0
0
0
0
0
0
0
0
5.10304e-08
0
0
0
0
0
0
0
0
0
0
0
0
0
3.96236e-07
7.13794e-07
5.60558e-07
2.80792e-07
6.86741e-08
2.07718e-08
8.92538e-08
0
0
0
0
0
0
0
0
5.03764e-08
4.4495e-08
0
0
0
0
0
0
3.28664e-07
1.87069e-07
0
0
0
0
0
0
0
2.27271e-08
3.67603e-08
2.40054e-08
0
0
0
0
0
0
0
0
0
0
0
0
0
0
0
0
0
0
2.79735e-07
6.49364e-07
7.12939e-07
6.45198e-07
6.74761e-07
9.84645e-07
1.73459e-06
3.09661e-06
5.10776e-06
4.99842e-06
0
0
0
0
0
3.99939e-07
7.2665e-07
6.08728e-07
2.47233e-07
1.8984e-07
1.03431e-06
2.64499e-06
4.81776e-06
6.26599e-06
4.37469e-06
2.14503e-06
9.86244e-07
4.33793e-07
1.05707e-07
0
0
0
0
0
0
0
0
0
0
0
0
0
0
0
0
0
0
1.3403e-08
2.71523e-08
0
0
0
0
0
0
0
0
0
0
0
0
0
0
0
0
0
0
0
0
0
0
0
8.35105e-08
0
0
7.7978e-08
2.16193e-07
0
0
0
0
0
0
0
0
0
0
0
0
0
0
0
0
0
0
0
0
0
0
0
0
0
0
0
0
0
0
0
0
0
0
0
3.75051e-08
2.04427e-07
7.59426e-08
0
0
0
0
0
0
0
0
0
1.44527e-07
5.05592e-07
6.86251e-07
9.71675e-08
3.56929e-07
3.80375e-07
1.52568e-07
2.12219e-08
9.79362e-09
6.27396e-08
0
0
0
0
0
0
0
0
0
0
0
0
0
0
0
1.1158e-07
2.29453e-07
1.45902e-07
1.21344e-07
1.16911e-07
0
0
0
0
0
5.27333e-08
7.9492e-08
6.95217e-08
3.29367e-08
0
0
0
0
0
0
0
0
0
0
0
0
0
0
0
0
0
0
0
0
0
0
0
2.03576e-07
4.47448e-07
3.12279e-08
0
0
0
0
0
0
0
0
7.91022e-08
3.58833e-07
1.04508e-06
2.15921e-06
3.54288e-06
4.36151e-06
3.65607e-06
2.37321e-06
1.42181e-06
8.35679e-07
4.95287e-07
2.69052e-07
1.02118e-07
1.0445e-08
0
0
0
0
0
0
0
0
0
0
0
0
0
0
0
0
3.77656e-08
1.23995e-07
5.89098e-08
0
0
0
0
0
0
0
0
0
0
0
0
0
0
0
0
0
0
0
0
0
0
1.62712e-07
8.31208e-08
0
0
1.21011e-08
1.20066e-07
0
0
0
0
1.13778e-07
0
0
0
0
0
0
0
0
0
0
0
0
0
0
0
1.93804e-09
0
0
0
0
0
0
0
0
0
2.39298e-08
5.30897e-08
7.36324e-08
1.01094e-07
1.13319e-07
1.83935e-07
2.4692e-07
0
0
0
0
0
0
0
0
0
0
2.33127e-07
5.46202e-07
8.32568e-07
2.85528e-07
1.90946e-07
9.40852e-08
1.64834e-08
0
0
0
0
6.45515e-08
8.2823e-08
4.75284e-08
0
0
0
0
0
0
0
0
0
0
1.2677e-07
2.06741e-07
3.71841e-08
0
0
0
0
0
0
3.43612e-08
1.04959e-07
1.38576e-07
1.31084e-07
8.2829e-08
6.75681e-09
0
0
0
0
0
0
0
0
0
0
0
0
0
0
0
0
0
0
0
0
0
0
0
0
0
0
0
0
2.79033e-07
8.73003e-07
1.23746e-06
1.418e-06
1.49735e-06
1.58995e-06
1.80765e-06
2.20445e-06
2.67754e-06
2.91137e-06
2.70414e-06
2.07551e-06
1.48391e-06
1.01348e-06
6.97112e-07
4.94999e-07
3.56319e-07
2.63638e-07
2.27046e-07
2.14278e-07
1.91131e-07
1.48618e-07
9.17426e-08
3.22242e-08
0
0
0
0
0
0
0
0
0
0
0
1.9662e-08
2.66002e-07
3.50777e-07
1.30234e-07
0
0
0
0
0
0
0
0
0
0
0
0
0
0
0
0
0
0
2.11477e-07
2.81134e-07
1.64335e-07
1.41028e-07
1.52713e-07
6.98803e-09
0
0
1.05321e-07
2.27152e-08
0
0
0
0
2.92315e-08
0
0
0
0
0
0
0
5.99992e-08
6.97654e-08
1.88423e-08
0
0
0
0
2.73892e-08
5.19983e-08
4.37069e-08
1.30518e-08
0
0
0
0
0
8.10511e-09
9.06072e-08
1.03301e-07
1.10572e-07
1.14478e-07
1.15174e-07
1.70514e-07
2.82883e-07
0
0
0
0
0
0
0
1.90214e-08
9.49855e-08
0
0
0
3.4564e-07
9.49169e-07
7.47595e-07
1.94613e-07
5.31283e-08
4.40738e-09
0
0
0
1.13268e-07
1.65483e-07
2.08726e-07
2.40118e-07
1.53862e-07
0
0
0
0
0
0
0
0
0
2.03694e-07
5.41188e-08
0
0
0
0
0
0
1.16645e-07
1.90835e-07
2.2107e-07
2.143e-07
1.51986e-07
3.99427e-08
0
0
0
0
0
0
0
0
0
0
0
0
0
0
0
0
0
0
0
0
0
0
0
0
0
0
5.46928e-07
1.50351e-06
2.12891e-06
2.44823e-06
2.53308e-06
2.48886e-06
2.39292e-06
2.28426e-06
2.20359e-06
2.15859e-06
2.1171e-06
1.97416e-06
1.6855e-06
1.32691e-06
1.00301e-06
7.42167e-07
5.5912e-07
4.26134e-07
3.40975e-07
2.94649e-07
2.85756e-07
2.87269e-07
2.7056e-07
2.30129e-07
1.71487e-07
1.04771e-07
4.29856e-08
0
0
0
0
0
0
0
0
0
0
0
2.01248e-07
5.33809e-07
6.36337e-07
4.00069e-07
0
0
0
0
0
0
0
0
0
0
0
0
0
0
0
0
1.38825e-07
2.93989e-07
3.01081e-07
1.24436e-07
1.98947e-08
8.95966e-08
7.32524e-08
0
0
4.80719e-08
9.63346e-08
0
0
0
0
0
0
0
0
0
0
0
0
8.76905e-08
1.73292e-07
1.37599e-07
8.45774e-08
4.02134e-08
1.05835e-08
3.53179e-09
2.46357e-08
6.51801e-08
9.14328e-08
8.47324e-08
5.48598e-08
7.88281e-09
0
0
0
8.3921e-08
2.53165e-07
2.07254e-07
6.9213e-08
0
0
1.16002e-07
2.39696e-07
1.24243e-07
0
0
0
0
0
0
7.95634e-08
2.1254e-07
7.7433e-08
0
0
3.64568e-08
5.56308e-07
9.12217e-07
3.91276e-07
1.60682e-07
1.05292e-07
3.66046e-08
0
0
9.7546e-08
1.59066e-07
2.22164e-07
2.74031e-07
2.11436e-07
0
0
0
0
0
0
0
0
0
0
1.12997e-07
0
0
0
0
0
0
2.70798e-07
3.18384e-07
3.32464e-07
3.21841e-07
2.55779e-07
9.49275e-08
0
0
0
0
0
0
0
0
0
0
0
0
0
0
0
0
0
0
0
0
0
0
0
0
0
0
5.95963e-07
1.56953e-06
2.19199e-06
2.46814e-06
2.37098e-06
2.07606e-06
1.83384e-06
1.67106e-06
1.56176e-06
1.47316e-06
1.37794e-06
1.25195e-06
1.06323e-06
8.7611e-07
6.9411e-07
5.36531e-07
4.03438e-07
3.02366e-07
2.55646e-07
2.3681e-07
2.39554e-07
2.49745e-07
2.44464e-07
2.19381e-07
1.75326e-07
1.1933e-07
6.23641e-08
1.64207e-08
0
0
0
0
0
0
0
0
0
0
0
2.41383e-07
5.68148e-07
6.95201e-07
5.9866e-07
3.62451e-07
4.52795e-08
0
0
0
0
0
0
0
0
0
0
0
0
0
0
0
1.05867e-07
3.01591e-08
0
3.05997e-08
1.36482e-07
0
0
0
9.20931e-08
0
0
0
0
0
0
0
0
0
0
0
0
1.54421e-07
2.40493e-07
2.06556e-07
1.60679e-07
1.2085e-07
7.82125e-08
4.57064e-08
4.06679e-08
6.72667e-08
1.1474e-07
1.42575e-07
1.48983e-07
1.46046e-07
1.16671e-07
2.37935e-08
0
2.2783e-08
2.91597e-07
3.06914e-07
1.61488e-07
0
0
2.00304e-09
1.71579e-07
9.81138e-08
0
0
0
0
0
0
7.14243e-08
2.87936e-07
2.07195e-07
0
0
0
4.51507e-07
7.21801e-07
2.13163e-07
1.02342e-07
1.26745e-07
1.30142e-07
0
0
5.03793e-08
1.13844e-07
1.73518e-07
1.9098e-07
0
0
1.25056e-07
0
0
0
0
0
0
0
0
0
0
0
0
0
0
0
2.83542e-07
3.73012e-07
4.08769e-07
4.15216e-07
3.73654e-07
2.2184e-07
0
0
0
0
0
0
0
0
0
0
0
0
0
0
0
0
0
0
0
3.89879e-07
8.90265e-07
1.5003e-06
2.0116e-06
0
0
0
0
0
6.23979e-07
1.34459e-06
1.56677e-06
1.33292e-06
1.02518e-06
8.66205e-07
8.35692e-07
8.37977e-07
8.24866e-07
7.78169e-07
6.89502e-07
5.79227e-07
4.64177e-07
3.5167e-07
2.41776e-07
1.70221e-07
1.54099e-07
1.48879e-07
1.54997e-07
1.68951e-07
1.72806e-07
1.62686e-07
1.36e-07
9.6209e-08
5.13175e-08
1.08116e-08
0
0
0
0
1.27872e-08
1.96922e-08
0
0
0
0
0
0
1.14424e-07
2.9585e-07
3.66669e-07
3.5075e-07
2.7874e-07
2.0522e-07
1.33322e-07
7.83037e-08
4.07669e-08
5.3929e-08
2.23022e-07
7.32997e-07
1.66501e-06
2.51879e-06
8.17952e-08
0
0
0
0
0
0
3.1053e-09
0
0
1.40226e-07
9.44482e-08
0
0
0
6.43121e-08
0
0
0
0
0
0
0
0
0
0
0
3.6422e-07
4.00493e-07
3.14513e-07
2.30897e-07
1.81407e-07
1.41658e-07
9.6564e-08
6.87718e-08
7.60165e-08
1.22311e-07
1.80822e-07
2.18084e-07
2.528e-07
2.86043e-07
2.71978e-07
1.81079e-07
3.81013e-08
1.24962e-07
2.72008e-07
2.6942e-07
1.65715e-07
0
0
1.05245e-07
8.20495e-08
6.45538e-08
0
0
0
0
1.33939e-07
1.02822e-07
3.54406e-07
2.91742e-07
7.72645e-08
0
0
5.14243e-07
5.60245e-07
1.0961e-07
4.9426e-08
7.45536e-08
1.03703e-07
0
0
0
5.00624e-08
1.02601e-07
7.84933e-08
0
0
6.18094e-07
2.53422e-07
3.06837e-08
0
0
0
0
0
0
0
0
0
2.12789e-07
4.22923e-08
0
0
0
1.68861e-07
3.06878e-07
3.62199e-07
3.51729e-07
2.67515e-07
0
0
0
0
0
0
0
0
0
0
0
0
0
0
0
0
8.07485e-09
3.15944e-07
5.81594e-07
7.26599e-07
7.54202e-07
5.07225e-07
0
0
0
0
0
0
0
7.80234e-08
6.22746e-07
6.67715e-07
5.10934e-07
3.85151e-07
3.67235e-07
4.26732e-07
4.64724e-07
4.49271e-07
3.94234e-07
3.20291e-07
2.51521e-07
1.82248e-07
1.04075e-07
6.3585e-08
6.7344e-08
6.88727e-08
7.52475e-08
8.88012e-08
9.64716e-08
9.59786e-08
8.40646e-08
6.17174e-08
3.32675e-08
4.94105e-09
0
0
0
0
3.95656e-09
4.01814e-08
7.57713e-08
9.91877e-08
1.03275e-07
8.40221e-08
5.70449e-08
4.72754e-08
4.63787e-08
2.32469e-08
0
0
0
0
0
0
0
1.6074e-07
6.27463e-07
1.48741e-06
3.00461e-06
5.9132e-06
4.26651e-06
0
0
0
0
0
0
0
0
0
5.23863e-08
1.25901e-07
0
0
0
4.54076e-09
0
0
0
0
0
0
0
0
0
0
2.38256e-07
5.96335e-07
5.80041e-07
4.50024e-07
3.29828e-07
2.53495e-07
2.10734e-07
1.66577e-07
1.20491e-07
1.01643e-07
1.27995e-07
2.00299e-07
2.60089e-07
3.01916e-07
3.52924e-07
3.93767e-07
3.80131e-07
2.75466e-07
1.22322e-07
1.90943e-07
2.8927e-07
3.12657e-07
2.66096e-07
1.66122e-07
1.78374e-08
7.66716e-08
1.80279e-07
2.07715e-07
6.01738e-08
0
0
5.27323e-07
5.96616e-07
3.7218e-07
3.38074e-07
1.65495e-07
0
0
5.3174e-07
2.66956e-07
7.88303e-08
5.8859e-08
6.97882e-08
7.78863e-08
0
0
0
0
2.15947e-08
0
0
0
1.19058e-06
6.48756e-07
2.42126e-07
0
0
0
0
0
0
0
0
0
0
0
1.01536e-07
1.5964e-07
0
1.79274e-08
1.5087e-07
2.10683e-07
1.82242e-07
5.43691e-08
0
0
0
0
0
0
0
0
0
0
0
0
0
0
0
0
1.39667e-07
2.40546e-07
1.77558e-07
3.07784e-08
0
0
0
0
0
0
0
0
0
0
0
2.62599e-07
2.53735e-07
2.10122e-07
1.75206e-07
1.89377e-07
2.31381e-07
2.35627e-07
1.88797e-07
1.32808e-07
9.37312e-08
5.76211e-08
8.27238e-09
0
3.547e-09
9.57491e-09
1.573e-08
2.68773e-08
3.46809e-08
3.80162e-08
3.54638e-08
2.6367e-08
1.27814e-08
0
0
0
0
0
0
3.01405e-08
8.30352e-08
1.61011e-07
2.7632e-07
4.43016e-07
6.41813e-07
6.97752e-07
5.30552e-07
2.36364e-07
0
0
0
0
0
0
0
0
4.12632e-07
1.21204e-06
2.58519e-06
5.13199e-06
5.03523e-06
0
0
0
0
0
0
0
0
0
0
9.3007e-08
2.89461e-09
0
0
0
5.33947e-09
0
0
0
0
0
0
0
0
0
5.56105e-07
7.98988e-07
7.27415e-07
5.65284e-07
4.20139e-07
3.24006e-07
2.72398e-07
2.3903e-07
1.97357e-07
1.62454e-07
1.62517e-07
2.20605e-07
2.89877e-07
3.22334e-07
3.63545e-07
4.22912e-07
4.58381e-07
4.1233e-07
2.49903e-07
1.70836e-07
2.4911e-07
3.14352e-07
3.29333e-07
2.81672e-07
9.6681e-08
0
2.03458e-07
2.82042e-07
2.42556e-07
0
0
3.70848e-07
1.26973e-06
3.06941e-07
3.10185e-07
1.86536e-07
0
0
0
1.152e-07
5.57637e-08
5.78376e-08
7.32183e-08
7.31308e-08
0
0
0
0
0
0
0
0
1.53837e-06
1.21953e-06
6.2364e-07
1.42608e-07
0
0
0
0
0
0
0
0
0
0
1.45779e-07
2.59084e-07
7.76345e-08
1.75105e-08
7.77193e-08
1.0402e-07
5.1594e-08
0
0
0
0
0
0
0
0
0
0
0
0
0
0
0
0
0
0
0
0
0
0
0
0
0
0
4.54634e-09
2.455e-07
0
0
0
0
1.0216e-07
1.4951e-07
1.07042e-07
5.63119e-08
1.6229e-08
2.13628e-08
2.64438e-08
3.53258e-09
0
0
0
0
0
0
0
0
0
0
0
0
0
0
0
0
0
0
0
0
6.26752e-09
3.9305e-08
1.09245e-07
2.6563e-07
6.21633e-07
1.29223e-06
1.6614e-06
1.18166e-06
5.36764e-07
6.47684e-08
0
0
0
0
0
0
0
7.41381e-08
7.29223e-07
1.9062e-06
4.13126e-06
5.50356e-06
0
0
0
0
0
0
0
0
0
0
6.32623e-08
5.82973e-08
0
0
0
4.84857e-10
0
0
0
0
5.33416e-08
5.85648e-08
0
0
2.80965e-07
8.1035e-07
9.1891e-07
8.05344e-07
6.36035e-07
4.90891e-07
3.90071e-07
3.29267e-07
2.92949e-07
2.60984e-07
2.28855e-07
2.17511e-07
2.56823e-07
3.22192e-07
3.39062e-07
3.52064e-07
4.07083e-07
4.61164e-07
4.55898e-07
3.26379e-07
1.90344e-07
2.05963e-07
2.48408e-07
2.43948e-07
1.52752e-07
0
0
6.71287e-08
2.16425e-07
2.70834e-07
1.43112e-07
0
0
1.28688e-06
2.84193e-07
2.03771e-07
1.31725e-07
4.50126e-08
0
0
4.90984e-08
3.64573e-08
3.8255e-08
6.15368e-08
6.50717e-08
0
0
0
0
0
2.12006e-08
5.31698e-07
8.70121e-07
1.33968e-06
1.90045e-06
1.28853e-06
3.29559e-07
4.58104e-08
9.67386e-08
1.53359e-07
1.28137e-07
0
0
0
0
0
0
2.52911e-07
3.23353e-07
2.02459e-07
8.60147e-08
6.82281e-08
4.81838e-08
0
0
0
0
0
0
0
0
0
0
0
0
0
0
0
0
0
0
0
0
0
0
0
0
0
0
0
0
3.53887e-07
7.46587e-08
0
0
4.92631e-08
2.10708e-07
1.6032e-07
5.81188e-08
0
0
0
0
0
0
0
0
0
0
0
0
0
0
0
0
0
0
0
0
0
0
0
4.5179e-09
7.84121e-09
4.89349e-09
2.71781e-09
2.12738e-08
1.09385e-07
4.39067e-07
1.64509e-06
2.98612e-06
1.69223e-06
5.94743e-07
1.00403e-08
0
0
0
0
0
0
0
0
2.35678e-07
1.13788e-06
2.68784e-06
2.91955e-06
0
0
0
0
0
0
0
0
0
1.2284e-08
6.21124e-08
8.27905e-08
5.49987e-08
1.84168e-08
9.38609e-09
1.08911e-08
2.35644e-08
4.0211e-08
4.52226e-08
1.21793e-07
2.06054e-07
1.74482e-07
3.19695e-08
5.09798e-08
5.79265e-07
9.2944e-07
9.41356e-07
8.06797e-07
6.43483e-07
5.13676e-07
4.33715e-07
3.85032e-07
3.49194e-07
3.16547e-07
2.86723e-07
2.72713e-07
3.00751e-07
3.57911e-07
3.63716e-07
3.3955e-07
3.69536e-07
4.2662e-07
4.4254e-07
3.62136e-07
2.21063e-07
1.90528e-07
1.93469e-07
1.56919e-07
5.34842e-08
0
0
0
1.01184e-07
2.21433e-07
2.004e-07
0
0
7.32113e-07
3.79401e-07
8.83416e-08
3.85697e-09
3.95028e-08
3.20745e-08
1.0649e-08
4.66002e-08
2.59133e-08
1.12998e-08
3.03846e-08
4.22686e-08
0
0
0
0
6.72541e-08
7.5057e-07
4.59736e-07
4.97801e-07
8.56593e-07
1.92355e-06
9.80126e-07
0
0
1.95543e-07
3.90087e-07
2.93648e-07
1.24746e-09
0
0
0
0
1.21655e-07
3.34092e-07
3.59282e-07
2.82195e-07
1.69405e-07
9.0159e-08
1.5804e-08
0
0
0
0
0
0
0
0
0
0
0
0
0
0
0
0
0
0
0
0
0
0
0
0
0
0
0
0
3.77354e-07
7.75594e-08
0
0
3.40094e-07
4.32535e-07
2.78e-07
9.01513e-08
0
0
0
0
0
0
0
0
0
0
0
0
0
0
0
0
0
0
0
0
0
0
1.07481e-08
2.35906e-08
1.44671e-08
0
0
0
0
0
2.53473e-07
3.60394e-06
1.49853e-06
3.50795e-07
0
0
0
0
0
0
0
0
0
0
7.45259e-07
1.81595e-06
1.66168e-06
0
0
0
0
0
0
0
9.43666e-08
8.68005e-08
7.29072e-08
8.47507e-08
1.02625e-07
1.07172e-07
8.53038e-08
5.90861e-08
4.76911e-08
6.22212e-08
1.19431e-07
2.17875e-07
3.41113e-07
3.75423e-07
2.71905e-07
1.23807e-07
2.99051e-07
7.76422e-07
9.4214e-07
8.85196e-07
7.63911e-07
6.24471e-07
5.08322e-07
4.4716e-07
4.21644e-07
3.99829e-07
3.71055e-07
3.42701e-07
3.27782e-07
3.47502e-07
3.98078e-07
4.07238e-07
3.49204e-07
3.34223e-07
3.8163e-07
4.11609e-07
3.74396e-07
2.63851e-07
2.06714e-07
1.78238e-07
1.08456e-07
1.88888e-08
0
0
6.33408e-09
5.5609e-08
1.66762e-07
2.15282e-07
6.08621e-08
0
2.96367e-08
5.45412e-07
7.85683e-08
0
0
8.80186e-08
1.47438e-07
1.32006e-07
3.78682e-08
0
0
0
0
0
0
0
2.29729e-07
6.16827e-07
1.0302e-07
1.7314e-07
4.326e-07
1.13801e-06
0
0
0
5.43926e-08
6.41887e-07
3.00509e-07
0
0
0
0
0
2.86969e-07
3.75091e-07
3.75186e-07
3.27722e-07