/*--------------------------------*- C++ -*----------------------------------*\
  =========                 |
  \\      /  F ield         | OpenFOAM: The Open Source CFD Toolbox
   \\    /   O peration     | Website:  https://openfoam.org
    \\  /    A nd           | Version:  9
     \\/     M anipulation  |
\*---------------------------------------------------------------------------*/
FoamFile
{
    format      ascii;
    class       volScalarField;
    location    "0.035";
    object      p;
}
// * * * * * * * * * * * * * * * * * * * * * * * * * * * * * * * * * * * * * //

dimensions      [0 2 -2 0 0 0 0];

internalField   nonuniform List<scalar> 
12225
(
-121.184
-120.032
-118.415
-116.684
-115.063
-113.55
-112.185
-110.929
-109.715
-108.534
-107.409
-106.323
-105.209
-103.971
-102.551
-100.918
-99.0977
-97.038
-120.952
-120.059
-118.424
-116.697
-115.072
-113.558
-112.19
-110.932
-109.723
-108.549
-107.431
-106.351
-105.248
-104.035
-102.652
-101.084
-99.3624
-97.5821
-120.189
-120.07
-118.421
-116.69
-115.064
-113.554
-112.184
-110.928
-109.73
-108.575
-107.471
-106.398
-105.298
-104.109
-102.793
-101.36
-99.8745
-98.4545
-121.508
-120.29
-118.468
-116.706
-115.064
-113.551
-112.181
-110.93
-109.747
-108.608
-107.515
-106.45
-105.372
-104.234
-103.014
-101.731
-100.458
-99.3212
-121.34
-120.386
-118.507
-116.678
-115.025
-113.522
-112.16
-110.922
-109.758
-108.638
-107.562
-106.519
-105.474
-104.394
-103.269
-102.129
-101.05
-100.142
-122.876
-120.786
-118.576
-116.663
-115.004
-113.502
-112.142
-110.914
-109.769
-108.672
-107.62
-106.604
-105.597
-104.58
-103.554
-102.552
-101.645
-100.925
-125.057
-121.142
-118.631
-116.615
-114.94
-113.452
-112.109
-110.903
-109.784
-108.712
-107.683
-106.695
-105.732
-104.783
-103.856
-102.982
-102.223
-101.656
-126.901
-121.476
-118.615
-116.503
-114.837
-113.38
-112.062
-110.882
-109.793
-108.754
-107.759
-106.807
-105.892
-105.009
-104.17
-103.406
-102.769
-102.321
-126.524
-121.497
-118.615
-116.42
-114.75
-113.311
-112.015
-110.857
-109.794
-108.788
-107.83
-106.923
-106.061
-105.245
-104.49
-103.824
-103.29
-102.936
-124.383
-121.144
-118.365
-116.154
-114.522
-113.16
-111.924
-110.812
-109.792
-108.828
-107.915
-107.058
-106.253
-105.503
-104.824
-104.24
-103.786
-103.496
-125.719
-120.821
-118.059
-115.967
-114.391
-113.058
-111.856
-110.776
-109.789
-108.863
-107.992
-107.179
-106.428
-105.741
-105.132
-104.621
-104.233
-103.989
-123.904
-120.093
-117.509
-115.551
-114.052
-112.815
-111.709
-110.698
-109.764
-108.888
-108.068
-107.307
-106.608
-105.975
-105.418
-104.953
-104.599
-104.371
-122.382
-119.161
-116.958
-115.19
-113.843
-112.683
-111.623
-110.649
-109.75
-108.916
-108.14
-107.421
-106.764
-106.175
-105.664
-105.242
-104.921
-104.707
-120.116
-117.85
-116.023
-114.529
-113.368
-112.329
-111.371
-110.495
-109.682
-108.92
-108.209
-107.55
-106.946
-106.404
-105.93
-105.536
-105.228
-105.015
-114.878
-115.926
-114.953
-113.839
-112.894
-112.034
-111.212
-110.423
-109.671
-108.96
-108.296
-107.684
-107.129
-106.632
-106.2
-105.833
-105.536
-105.306
-118.429
-114.641
-113.41
-112.754
-112.159
-111.493
-110.825
-110.172
-109.526
-108.9
-108.317
-107.783
-107.295
-106.852
-106.456
-106.106
-105.806
-105.552
-111.333
-111.264
-111.527
-111.651
-111.473
-111.089
-110.595
-110.08
-109.538
-108.978
-108.438
-107.939
-107.477
-107.049
-106.659
-106.308
-105.997
-105.722
-98.555
-106.881
-109.481
-110.52
-110.743
-110.509
-110.148
-109.748
-109.304
-108.837
-108.387
-107.962
-107.557
-107.174
-106.817
-106.486
-106.181
-105.9
-108.039
-109.69
-110.411
-110.797
-110.862
-110.652
-110.325
-109.905
-109.46
-109.003
-108.577
-108.157
-107.75
-107.361
-106.998
-106.661
-106.344
-106.044
-124.157
-115.481
-112.645
-111.64
-111.075
-110.618
-110.192
-109.784
-109.369
-108.968
-108.552
-108.16
-107.782
-107.418
-107.07
-106.742
-106.43
-106.132
-109.509
-112.879
-112.716
-112.098
-111.551
-111.05
-110.553
-110.059
-109.58
-109.122
-108.678
-108.264
-107.875
-107.504
-107.149
-106.812
-106.494
-106.193
-116.385
-114.12
-113.087
-112.254
-111.534
-111.009
-110.519
-110.028
-109.56
-109.127
-108.709
-108.306
-107.923
-107.557
-107.208
-106.875
-106.558
-106.255
-117.211
-114.138
-113.181
-112.491
-111.811
-111.243
-110.715
-110.18
-109.669
-109.204
-108.771
-108.352
-107.96
-107.59
-107.239
-106.907
-106.591
-106.291
-112.706
-113.451
-113.196
-112.599
-111.879
-111.267
-110.735
-110.21
-109.704
-109.238
-108.807
-108.39
-108
-107.629
-107.276
-106.94
-106.621
-106.322
-109.452
-113.15
-113.245
-112.699
-111.992
-111.351
-110.787
-110.245
-109.727
-109.249
-108.802
-108.394
-108.006
-107.643
-107.299
-106.97
-106.642
-106.355
-111.866
-114.011
-113.544
-112.854
-112.122
-111.423
-110.825
-110.276
-109.755
-109.277
-108.83
-108.417
-108.028
-107.669
-107.332
-107.015
-106.72
-106.397
-117.284
-115.157
-113.901
-112.997
-112.179
-111.446
-110.83
-110.28
-109.757
-109.265
-108.827
-108.416
-108.033
-107.669
-107.331
-107.011
-106.705
-106.397
-120.342
-116.1
-114.246
-113.119
-112.223
-111.465
-110.848
-110.298
-109.769
-109.278
-108.834
-108.429
-108.051
-107.696
-107.364
-107.045
-106.733
-106.421
-121.71
-116.528
-114.415
-113.182
-112.248
-111.471
-110.845
-110.294
-109.765
-109.275
-108.83
-108.421
-108.038
-107.683
-107.354
-107.043
-106.739
-106.433
-120.556
-116.694
-114.526
-113.224
-112.245
-111.461
-110.84
-110.295
-109.767
-109.273
-108.827
-108.423
-108.049
-107.703
-107.382
-107.071
-106.762
-106.449
-99.1802
-99.5234
-99.8965
-100.174
-99.9087
-99.0486
-97.8355
-96.7109
-96.1454
-96.2381
-97.0128
-98.3298
-99.9528
-101.658
-103.262
-104.631
-105.67
-106.316
-106.53
-106.312
-105.685
-104.721
-103.496
-102.172
-100.966
-100.134
-100.291
-101.171
-102.281
-103.431
-104.357
-104.801
-104.7
-103.886
-102.153
-99.6227
-97.5901
-96.8348
-96.7551
-96.5464
-96.1884
-95.3677
-95.0774
-95.1107
-94.2774
-92.5502
-92.1049
-93.5066
-96.399
-100.321
-104.841
-109.641
-114.493
-119.251
-123.825
-128.162
-132.234
-136.026
-139.529
-142.732
-145.626
-148.194
-150.419
-152.278
-153.747
-154.798
-155.409
-155.557
-155.225
-154.402
-153.086
-151.287
-149.027
-146.335
-143.248
-139.807
-136.055
-132.036
-127.791
-123.359
-118.78
-114.089
-109.322
-104.508
-99.6729
-94.835
-90.0121
-85.2257
-80.5049
-75.8866
-71.4136
-67.1304
-63.0789
-59.2949
-55.8066
-52.635
-49.7953
-47.2985
-45.1521
-43.3586
-41.9144
-40.8136
-40.0362
-39.5415
-39.2923
-39.2425
-39.3435
-39.5484
-39.816
-40.1145
-40.4203
-40.714
-40.9775
-41.1952
-41.3586
-41.469
-41.5357
-41.5701
-41.5795
-41.5659
-41.5271
-41.4624
-41.3728
-41.2575
-41.1157
-40.9471
-40.752
-40.5311
-40.2875
-40.0141
-39.7228
-39.4141
-39.0894
-38.7508
-38.4006
-38.0395
-37.6674
-37.2851
-36.8937
-36.4946
-36.0893
-35.6784
-35.2615
-34.8374
-34.4045
-33.9619
-33.5091
-33.0469
-32.5765
-32.0992
-31.616
-31.1277
-30.6339
-30.1343
-29.628
-29.1143
-28.5927
-28.0633
-27.5262
-26.9818
-26.4304
-25.8725
-25.3084
-24.7382
-24.1621
-23.58
-22.9917
-22.3968
-21.795
-21.1854
-20.5674
-19.9395
-19.3008
-18.6482
-17.9806
-17.2929
-16.5822
-15.8439
-15.0687
-14.2767
-100.756
-101.078
-101.398
-101.738
-101.489
-100.639
-99.5627
-98.74
-98.4791
-98.8522
-99.7984
-101.142
-102.677
-104.221
-105.635
-106.817
-107.704
-108.268
-108.503
-108.408
-107.945
-107.131
-106.065
-104.849
-103.747
-102.884
-102.747
-103.35
-103.464
-103.923
-105.312
-106.517
-106.782
-106.36
-105.125
-102.146
-99.5628
-98.1567
-97.8169
-97.304
-96.3315
-94.6752
-92.9283
-94.5606
-95.6735
-95.3633
-95.8058
-97.6193
-100.609
-104.396
-108.634
-113.063
-117.517
-121.885
-126.104
-130.131
-133.942
-137.518
-140.848
-143.917
-146.707
-149.199
-151.369
-153.187
-154.626
-155.652
-156.236
-156.354
-155.988
-155.128
-153.776
-151.94
-149.641
-146.907
-143.778
-140.295
-136.505
-132.453
-128.181
-123.729
-119.136
-114.438
-109.672
-104.868
-100.049
-95.2319
-90.4278
-85.6534
-80.9352
-76.3104
-71.8242
-67.5245
-63.4566
-59.658
-56.1571
-52.9739
-50.1223
-47.612
-45.4491
-43.6355
-42.168
-41.054
-40.2477
-39.7281
-39.4544
-39.3823
-39.464
-39.6517
-39.9043
-40.191
-40.4893
-40.7787
-41.0388
-41.2525
-41.4102
-41.5131
-41.5719
-41.5997
-41.6045
-41.5876
-41.5479
-41.4835
-41.3921
-41.2737
-41.1288
-40.9575
-40.7601
-40.537
-40.2856
-40.0189
-39.7285
-39.42
-39.096
-38.7591
-38.4101
-38.0494
-37.6775
-37.2954
-36.9041
-36.5049
-36.0989
-35.6869
-35.2686
-34.8429
-34.4086
-33.9646
-33.5108
-33.0479
-32.5771
-32.0995
-31.6162
-31.1275
-30.6334
-30.1335
-29.6269
-29.113
-28.5914
-28.0621
-27.5252
-26.981
-26.43
-25.8723
-25.3084
-24.7384
-24.1625
-23.5805
-22.9924
-22.3978
-21.7964
-21.1873
-20.57
-19.943
-19.3053
-18.6548
-17.9889
-17.3059
-16.5989
-15.8725
-15.1072
-14.3565
-100.351
-100.452
-100.556
-100.896
-101.193
-101.336
-101.453
-101.788
-102.508
-103.616
-104.985
-106.454
-107.889
-109.197
-110.32
-111.223
-111.884
-112.272
-112.364
-112.162
-111.721
-111.063
-110.217
-109.213
-108.153
-107.127
-106.256
-105.684
-105.311
-105.391
-105.854
-106.112
-105.748
-105.054
-104.151
-102.552
-101.411
-101.341
-100.565
-98.5327
-97.2422
-96.9503
-96.5323
-97.0244
-98.4617
-100.036
-101.961
-104.327
-107.172
-110.402
-113.919
-117.604
-121.371
-125.143
-128.862
-132.483
-135.97
-139.297
-142.436
-145.366
-148.062
-150.497
-152.639
-154.454
-155.903
-156.949
-157.553
-157.683
-157.318
-156.444
-155.059
-153.172
-150.806
-147.995
-144.78
-141.213
-137.343
-133.22
-128.892
-124.399
-119.78
-115.073
-110.315
-105.537
-100.759
-95.9888
-91.2281
-86.4828
-81.7737
-77.1384
-72.627
-68.2947
-64.1939
-60.367
-56.8428
-53.6393
-50.7669
-48.2316
-46.0379
-44.1896
-42.6889
-41.534
-40.693
-40.1368
-39.823
-39.7081
-39.7494
-39.9018
-40.1207
-40.3734
-40.6414
-40.9122
-41.1652
-41.3737
-41.5219
-41.6111
-41.6551
-41.6704
-41.6667
-41.6441
-41.5985
-41.5267
-41.4283
-41.3041
-41.1548
-40.9809
-40.7818
-40.5575
-40.3098
-40.0392
-39.7471
-39.4379
-39.1131
-38.7747
-38.4243
-38.0629
-37.6909
-37.309
-36.9179
-36.5184
-36.1114
-35.6974
-35.2765
-34.8481
-34.4115
-33.9662
-33.5118
-33.0489
-32.5783
-32.1008
-31.6173
-31.128
-30.633
-30.1318
-29.624
-29.1092
-28.5871
-28.0577
-27.521
-26.9773
-26.4268
-25.8698
-25.3065
-24.7372
-24.162
-23.5807
-22.9933
-22.3995
-21.7989
-21.1909
-20.5749
-19.95
-19.3145
-18.6679
-18.0067
-17.3321
-16.6364
-15.9305
-15.1983
-14.5004
-100.043
-100.016
-100.307
-100.918
-101.89
-103.111
-104.442
-105.807
-107.178
-108.54
-109.855
-111.076
-112.164
-113.096
-113.864
-114.463
-114.89
-115.141
-115.203
-115.06
-114.717
-114.18
-113.46
-112.567
-111.523
-110.364
-109.119
-107.835
-106.513
-105.141
-103.725
-102.338
-100.966
-99.8952
-99.1129
-99.1264
-99.7014
-100.604
-101.322
-100.739
-99.9168
-99.9121
-100.596
-101.83
-103.478
-105.425
-107.637
-110.072
-112.73
-115.59
-118.636
-121.825
-125.111
-128.443
-131.775
-135.064
-138.277
-141.385
-144.36
-147.174
-149.798
-152.199
-154.338
-156.173
-157.659
-158.747
-159.392
-159.555
-159.203
-158.318
-156.891
-154.931
-152.465
-149.533
-146.188
-142.488
-138.494
-134.265
-129.851
-125.297
-120.642
-115.923
-111.18
-106.446
-101.737
-97.0504
-92.3683
-87.6791
-82.9921
-78.3439
-73.7922
-69.4047
-65.2475
-61.3718
-57.8088
-54.5737
-51.6708
-49.1
-46.8634
-44.9665
-43.4157
-42.2048
-41.317
-40.7221
-40.3701
-40.2066
-40.1906
-40.2879
-40.4586
-40.6665
-40.8929
-41.1257
-41.3476
-41.5373
-41.674
-41.7499
-41.7772
-41.7762
-41.7593
-41.7261
-41.6712
-41.5913
-41.485
-41.3533
-41.1967
-41.0161
-40.8118
-40.5839
-40.3332
-40.0596
-39.7665
-39.457
-39.1312
-38.7921
-38.4412
-38.0793
-37.7074
-37.3254
-36.9338
-36.5333
-36.1249
-35.7091
-35.2861
-34.8558
-34.4176
-33.9711
-33.5159
-33.0525
-32.5814
-32.1034
-31.6191
-31.1288
-30.6327
-30.1306
-29.6222
-29.107
-28.5849
-28.0556
-27.5193
-26.9761
-26.426
-25.8695
-25.3067
-24.7378
-24.163
-23.5822
-22.9954
-22.4023
-21.8025
-21.1958
-20.5812
-19.9584
-19.3256
-18.6829
-18.0272
-17.3608
-16.6777
-15.9898
-15.2888
-14.6257
-100.132
-100.173
-100.737
-102.083
-103.944
-105.905
-107.742
-109.387
-110.835
-112.093
-113.174
-114.095
-114.878
-115.55
-116.121
-116.591
-116.945
-117.17
-117.254
-117.177
-116.896
-116.387
-115.654
-114.719
-113.611
-112.337
-110.883
-109.211
-107.278
-104.996
-102.501
-99.8733
-97.5157
-95.6963
-94.8021
-95.1833
-97.0741
-98.4708
-99.7539
-100.902
-101.968
-103.2
-104.705
-106.426
-108.281
-110.28
-112.439
-114.763
-117.249
-119.888
-122.667
-125.562
-128.544
-131.578
-134.632
-137.675
-140.682
-143.626
-146.484
-149.226
-151.822
-154.233
-156.413
-158.31
-159.868
-161.031
-161.744
-161.961
-161.639
-160.732
-159.241
-157.179
-154.575
-151.479
-147.95
-144.063
-139.892
-135.507
-130.97
-126.328
-121.621
-116.888
-112.171
-107.507
-102.912
-98.3631
-93.8135
-89.2203
-84.5739
-79.9098
-75.2992
-70.8302
-66.5901
-62.6442
-59.0286
-55.7554
-52.8193
-50.21
-47.9231
-45.9639
-44.3376
-43.0465
-42.0809
-41.4187
-41.0207
-40.8216
-40.7564
-40.7907
-40.9022
-41.0584
-41.2325
-41.4167
-41.5991
-41.7527
-41.8585
-41.9145
-41.9276
-41.9125
-41.8824
-41.8379
-41.7718
-41.6798
-41.5623
-41.4195
-41.2532
-41.0636
-40.8516
-40.618
-40.3635
-40.0885
-39.7958
-39.486
-39.1593
-38.8191
-38.4667
-38.1032
-37.7294
-37.3458
-36.9529
-36.5513
-36.1414
-35.7237
-35.2987
-34.8662
-34.426
-33.9779
-33.5216
-33.0574
-32.5855
-32.1068
-31.6218
-31.1308
-30.6339
-30.131
-29.6219
-29.1062
-28.5837
-28.0542
-27.5179
-26.9747
-26.4249
-25.8687
-25.3063
-24.7379
-24.1636
-23.5834
-22.9973
-22.4051
-21.8064
-21.201
-20.5882
-19.9675
-19.3378
-18.6993
-18.0497
-17.3912
-16.7211
-16.0493
-15.3752
-14.7353
-98.8448
-99.8499
-101.808
-104.166
-106.522
-108.691
-110.597
-112.216
-113.568
-114.696
-115.652
-116.486
-117.239
-117.943
-118.608
-119.225
-119.761
-120.16
-120.362
-120.325
-120.014
-119.396
-118.472
-117.276
-115.85
-114.239
-112.46
-110.49
-108.258
-105.662
-102.76
-99.6862
-96.8996
-94.858
-94.2943
-94.731
-96.1914
-98.0668
-100.076
-102.149
-104.225
-106.255
-108.25
-110.232
-112.227
-114.269
-116.398
-118.645
-121.021
-123.523
-126.14
-128.851
-131.634
-134.466
-137.328
-140.201
-143.067
-145.909
-148.706
-151.429
-154.045
-156.508
-158.769
-160.765
-162.433
-163.707
-164.52
-164.812
-164.547
-163.613
-162.053
-159.868
-157.087
-153.766
-149.983
-145.829
-141.401
-136.792
-132.075
-127.307
-122.531
-117.785
-113.116
-108.563
-104.136
-99.7871
-95.4289
-90.977
-86.3989
-81.7299
-77.0574
-72.4925
-68.1467
-64.1079
-60.4239
-57.1101
-54.1491
-51.5129
-49.184
-47.1615
-45.4556
-44.0719
-43.0061
-42.2448
-41.7578
-41.4931
-41.3809
-41.3617
-41.4092
-41.5064
-41.6296
-41.7629
-41.8949
-42.0056
-42.0735
-42.0961
-42.0877
-42.0613
-42.0213
-41.9655
-41.8879
-41.7837
-41.6533
-41.4986
-41.3218
-41.1222
-40.901
-40.6599
-40.4001
-40.122
-39.8266
-39.5133
-39.1869
-38.8462
-38.4932
-38.1288
-37.7536
-37.3684
-36.9741
-36.5709
-36.1594
-35.7398
-35.3126
-34.878
-34.436
-33.9863
-33.5287
-33.0635
-32.5908
-32.1113
-31.6255
-31.1336
-30.6358
-30.132
-29.622
-29.1057
-28.5829
-28.0534
-27.5171
-26.9743
-26.4248
-25.869
-25.3069
-24.739
-24.1651
-23.5855
-23.0001
-22.4087
-21.8112
-21.2071
-20.5961
-19.9778
-19.3513
-18.717
-18.0736
-17.4231
-16.765
-16.1076
-15.4547
-14.8317
-100.163
-101.769
-104.488
-107.093
-109.397
-111.394
-113.11
-114.57
-115.808
-116.872
-117.827
-118.731
-119.636
-120.566
-121.511
-122.422
-123.229
-123.848
-124.207
-124.234
-123.88
-123.118
-121.95
-120.407
-118.557
-116.508
-114.354
-112.14
-109.765
-107.148
-104.256
-101.328
-98.5635
-96.9405
-96.3653
-96.8347
-98.2434
-100.201
-102.404
-104.682
-106.946
-109.147
-111.278
-113.356
-115.418
-117.503
-119.646
-121.873
-124.199
-126.624
-129.139
-131.73
-134.383
-137.082
-139.819
-142.584
-145.37
-148.163
-150.947
-153.693
-156.366
-158.922
-161.309
-163.46
-165.302
-166.749
-167.713
-168.107
-167.853
-166.965
-165.343
-163.002
-159.982
-156.358
-152.229
-147.716
-142.943
-138.028
-133.067
-128.127
-123.254
-118.487
-113.869
-109.438
-105.2
-101.094
-96.9922
-92.7621
-88.3352
-83.7307
-79.0356
-74.3777
-69.8963
-65.7177
-61.9196
-58.5355
-55.545
-52.8907
-50.5368
-48.4673
-46.6936
-45.2285
-44.0663
-43.1929
-42.5934
-42.2334
-42.0462
-41.9645
-41.949
-41.9811
-42.0435
-42.1209
-42.2037
-42.2727
-42.3039
-42.2939
-42.2606
-42.2185
-42.1682
-42.1019
-42.0124
-41.8964
-41.7546
-41.5892
-41.4009
-41.1913
-40.9611
-40.7123
-40.4465
-40.1645
-39.8665
-39.5523
-39.2237
-38.8815
-38.5265
-38.1599
-37.7825
-37.3951
-36.9986
-36.5933
-36.1797
-35.7581
-35.3289
-34.8923
-34.4483
-33.9968
-33.5377
-33.0712
-32.5975
-32.117
-31.6301
-31.1372
-30.6384
-30.1337
-29.6231
-29.1063
-28.5831
-28.0535
-27.5173
-26.9746
-26.4253
-25.8697
-25.3079
-24.7402
-24.1668
-23.5877
-23.003
-22.4126
-21.8162
-21.2136
-20.6045
-19.9886
-19.3656
-18.7355
-18.0982
-17.4554
-16.8082
-16.1634
-15.5272
-14.9172
-104.749
-106.303
-108.295
-110.242
-112.057
-113.715
-115.2
-116.504
-117.654
-118.708
-119.737
-120.811
-121.969
-123.21
-124.473
-125.665
-126.683
-127.436
-127.85
-127.875
-127.457
-126.559
-125.183
-123.368
-121.197
-118.816
-116.382
-113.978
-111.543
-109.011
-106.339
-103.795
-101.572
-100.372
-99.9467
-100.487
-101.79
-103.568
-105.582
-107.679
-109.783
-111.867
-113.932
-115.986
-118.052
-120.153
-122.312
-124.543
-126.854
-129.242
-131.701
-134.22
-136.791
-139.407
-142.067
-144.77
-147.518
-150.305
-153.118
-155.935
-158.725
-161.446
-164.042
-166.44
-168.547
-170.257
-171.451
-172.02
-171.871
-170.951
-169.21
-166.656
-163.337
-159.343
-154.797
-149.847
-144.648
-139.347
-134.062
-128.877
-123.841
-118.995
-114.381
-110.044
-106.004
-102.206
-98.4811
-94.6165
-90.4756
-86.0382
-81.3762
-76.6303
-71.9758
-67.589
-63.6033
-60.0773
-56.9923
-54.2894
-51.9071
-49.804
-47.9773
-46.4432
-45.198
-44.2217
-43.5026
-43.0253
-42.7459
-42.5927
-42.5083
-42.4724
-42.4709
-42.4865
-42.5088
-42.5283
-42.5281
-42.4979
-42.4477
-42.3913
-42.3277
-42.2466
-42.1418
-42.0123
-41.8591
-41.6836
-41.4862
-41.2681
-41.0293
-40.7738
-40.5028
-40.2163
-39.9141
-39.5964
-39.2646
-38.9197
-38.5625
-38.1935
-37.8138
-37.4239
-37.0248
-36.6171
-36.2014
-35.7778
-35.3466
-34.908
-34.4622
-34.009
-33.5482
-33.0801
-32.605
-32.1233
-31.6354
-31.1415
-30.6417
-30.1362
-29.6248
-29.1074
-28.5838
-28.0541
-27.5179
-26.9752
-26.4261
-25.8707
-25.3092
-24.7418
-24.1689
-23.5904
-23.0064
-22.4169
-21.8216
-21.2206
-20.6134
-20.0001
-19.3804
-18.7547
-18.1231
-17.4876
-16.8501
-16.2164
-15.5931
-14.9933
-108.86
-109.867
-111.145
-112.579
-114.03
-115.41
-116.684
-117.847
-118.938
-120.022
-121.168
-122.435
-123.83
-125.314
-126.789
-128.142
-129.27
-130.091
-130.53
-130.521
-130.021
-129.011
-127.489
-125.486
-123.108
-120.543
-118.005
-115.564
-113.178
-110.758
-108.407
-106.295
-104.761
-103.821
-103.595
-104.145
-105.28
-106.804
-108.544
-110.39
-112.287
-114.215
-116.174
-118.168
-120.211
-122.313
-124.483
-126.725
-129.039
-131.417
-133.853
-136.336
-138.86
-141.426
-144.04
-146.716
-149.466
-152.295
-155.199
-158.162
-161.155
-164.135
-167.037
-169.777
-172.243
-174.303
-175.807
-176.61
-176.591
-175.679
-173.849
-171.097
-167.47
-163.068
-158.04
-152.564
-146.829
-141.016
-135.275
-129.711
-124.391
-119.365
-114.684
-110.404
-106.558
-103.092
-99.8004
-96.3857
-92.6334
-88.4801
-83.9681
-79.2299
-74.4566
-69.8628
-65.6448
-61.8942
-58.624
-55.7901
-53.3227
-51.1601
-49.2771
-47.679
-46.364
-45.3044
-44.4743
-43.8693
-43.4732
-43.2315
-43.0788
-42.9763
-42.91
-42.8665
-42.8307
-42.7945
-42.7523
-42.7018
-42.6445
-42.5811
-42.505
-42.4062
-42.2817
-42.1343
-41.9672
-41.7813
-41.5757
-41.3513
-41.1043
-40.8426
-40.5669
-40.2765
-39.9702
-39.6482
-39.3119
-38.9631
-38.6024
-38.2306
-37.8481
-37.4556
-37.0539
-36.6438
-36.2256
-35.7996
-35.3662
-34.9256
-34.4779
-34.0229
-33.5604
-33.0906
-32.6139
-32.1308
-31.6416
-31.1466
-30.6458
-30.1393
-29.6271
-29.1091
-28.5851
-28.0551
-27.5189
-26.9764
-26.4275
-25.8723
-25.311
-24.7439
-24.1713
-23.5933
-23.01
-22.4214
-21.8274
-21.2279
-20.6227
-20.012
-19.3956
-18.774
-18.1479
-17.5192
-16.8902
-16.266
-15.6531
-15.0615
-111.213
-111.896
-112.801
-113.893
-115.05
-116.207
-117.328
-118.406
-119.472
-120.581
-121.802
-123.175
-124.687
-126.262
-127.788
-129.154
-130.269
-131.056
-131.445
-131.379
-130.823
-129.745
-128.157
-126.111
-123.729
-121.221
-118.769
-116.411
-114.139
-111.948
-109.961
-108.323
-107.185
-106.492
-106.437
-106.963
-107.956
-109.274
-110.798
-112.454
-114.202
-116.023
-117.911
-119.869
-121.901
-124.012
-126.2
-128.465
-130.797
-133.187
-135.622
-138.091
-140.591
-143.129
-145.725
-148.409
-151.21
-154.144
-157.211
-160.395
-163.665
-166.979
-170.27
-173.447
-176.381
-178.91
-180.847
-181.993
-182.193
-181.369
-179.502
-176.561
-172.595
-167.721
-162.116
-155.998
-149.597
-143.137
-136.804
-130.737
-125.029
-119.742
-114.928
-110.629
-106.861
-103.561
-100.549
-97.5135
-94.1667
-90.4251
-86.2775
-81.7894
-77.0943
-72.4196
-68.0209
-64.0277
-60.511
-57.4653
-54.8395
-52.5661
-50.596
-48.9134
-47.5113
-46.3679
-45.453
-44.7454
-44.2319
-43.8848
-43.6521
-43.485
-43.3587
-43.2592
-43.1733
-43.0907
-43.0084
-42.9287
-42.8547
-42.7808
-42.6932
-42.5793
-42.4361
-42.2691
-42.0842
-41.8843
-41.6684
-41.4336
-41.1846
-40.9175
-40.6364
-40.3415
-40.0312
-39.7048
-39.3639
-39.0103
-38.6457
-38.2704
-37.885
-37.4897
-37.0853
-36.6724
-36.2515
-35.8231
-35.3873
-34.9446
-34.4948
-34.0379
-33.5736
-33.1021
-32.6237
-32.1391
-31.6485
-31.1522
-30.6504
-30.143
-29.63
-29.1113
-28.5869
-28.0566
-27.5203
-26.9778
-26.429
-25.874
-25.3129
-24.7461
-24.1739
-23.5964
-23.0139
-22.4262
-21.8334
-21.2355
-20.6323
-20.024
-19.4108
-18.7933
-18.1724
-17.5498
-16.9283
-16.3123
-15.7077
-15.1226
-111.834
-112.326
-113.031
-113.938
-114.953
-116.005
-117.052
-118.086
-119.13
-120.237
-121.476
-122.866
-124.375
-125.909
-127.351
-128.597
-129.569
-130.2
-130.429
-130.215
-129.54
-128.402
-126.828
-124.893
-122.718
-120.454
-118.223
-116.071
-114.025
-112.149
-110.563
-109.331
-108.453
-108.004
-108.09
-108.638
-109.576
-110.791
-112.206
-113.769
-115.448
-117.228
-119.101
-121.064
-123.117
-125.259
-127.487
-129.791
-132.16
-134.578
-137.029
-139.5
-141.991
-144.52
-147.125
-149.854
-152.752
-155.843
-159.127
-162.587
-166.195
-169.914
-173.687
-177.415
-180.941
-184.054
-186.515
-188.086
-188.578
-187.874
-185.934
-182.748
-178.382
-172.976
-166.739
-159.926
-152.808
-145.651
-138.689
-132.094
-125.981
-120.419
-115.439
-111.033
-107.18
-103.789
-100.732
-97.7924
-94.7531
-91.4877
-87.906
-83.9262
-79.5442
-74.9625
-70.4575
-66.2468
-62.4735
-59.1857
-56.3641
-53.9507
-51.8826
-50.1167
-48.6258
-47.3854
-46.3738
-45.5744
-44.9698
-44.532
-44.2207
-43.992
-43.813
-43.6648
-43.5337
-43.4111
-43.2941
-43.1856
-43.088
-42.995
-42.8912
-42.7624
-42.6038
-42.4198
-42.2175
-42.0014
-41.7725
-41.5298
-41.273
-41.0004
-40.7129
-40.4118
-40.0965
-39.7659
-39.4206
-39.0623
-38.693
-38.3138
-37.925
-37.5266
-37.1191
-36.7032
-36.2795
-35.8484
-35.4102
-34.9652
-34.5134
-34.0544
-33.588
-33.1145
-32.6343
-32.1481
-31.6561
-31.1585
-30.6556
-30.1472
-29.6334
-29.1141
-28.5891
-28.0584
-27.5219
-26.9794
-26.4308
-25.876
-25.3151
-24.7486
-24.1767
-23.5998
-23.0179
-22.4312
-21.8396
-21.2432
-20.642
-20.0361
-19.426
-18.8123
-18.1961
-17.5792
-16.9643
-16.3553
-15.7575
-15.1775
-110.867
-111.266
-111.925
-112.783
-113.76
-114.791
-115.831
-116.868
-117.911
-119.007
-120.213
-121.538
-122.945
-124.349
-125.638
-126.711
-127.488
-127.905
-127.918
-127.507
-126.687
-125.475
-123.923
-122.117
-120.167
-118.174
-116.211
-114.337
-112.624
-111.146
-109.95
-109.038
-108.419
-108.226
-108.488
-109.146
-110.134
-111.363
-112.78
-114.345
-116.036
-117.841
-119.75
-121.761
-123.87
-126.072
-128.361
-130.725
-133.148
-135.61
-138.09
-140.578
-143.078
-145.617
-148.251
-151.052
-154.079
-157.357
-160.888
-164.654
-168.636
-172.807
-177.111
-181.431
-185.569
-189.252
-192.182
-194.091
-194.777
-194.128
-192.096
-188.673
-183.945
-178.074
-171.287
-163.859
-156.101
-148.318
-140.792
-133.729
-127.259
-121.451
-116.33
-111.825
-107.825
-104.211
-100.904
-97.8269
-94.8816
-91.9516
-88.8802
-85.4681
-81.5578
-77.2224
-72.7274
-68.3568
-64.3334
-60.784
-57.739
-55.1621
-52.9859
-51.1476
-49.5997
-48.3033
-47.2251
-46.3447
-45.6534
-45.1368
-44.7611
-44.4827
-44.2633
-44.0781
-43.9116
-43.755
-43.6061
-43.468
-43.3434
-43.2267
-43.1031
-42.9578
-42.7843
-42.5853
-42.3675
-42.1362
-41.8934
-41.6394
-41.3736
-41.094
-40.7995
-40.4907
-40.1682
-39.8322
-39.4823
-39.1192
-38.745
-38.3611
-37.9682
-37.5662
-37.1554
-36.7362
-36.3093
-35.8752
-35.4343
-34.987
-34.5331
-34.072
-33.6035
-33.1278
-32.6457
-32.1578
-31.6643
-31.1654
-30.6613
-30.152
-29.6374
-29.1174
-28.5918
-28.0606
-27.5238
-26.9811
-26.4326
-25.8779
-25.3174
-24.7511
-24.1797
-23.6032
-23.0221
-22.4363
-21.8459
-21.2509
-20.6516
-20.0481
-19.4409
-18.8308
-18.219
-17.6071
-16.9979
-16.3949
-15.8027
-15.2269
-108.493
-108.886
-109.563
-110.463
-111.507
-112.617
-113.738
-114.843
-115.935
-117.045
-118.214
-119.45
-120.718
-121.944
-123.031
-123.883
-124.422
-124.599
-124.388
-123.776
-122.783
-121.457
-119.876
-118.131
-116.318
-114.525
-112.828
-111.298
-109.986
-108.904
-108.038
-107.406
-107.102
-107.217
-107.736
-108.599
-109.737
-111.081
-112.594
-114.244
-116.017
-117.904
-119.899
-121.996
-124.191
-126.479
-128.85
-131.291
-133.783
-136.302
-138.827
-141.347
-143.87
-146.435
-149.114
-151.994
-155.151
-158.612
-162.38
-166.438
-170.767
-175.345
-180.109
-184.916
-189.524
-193.614
-196.847
-198.944
-199.701
-199.085
-196.975
-193.38
-188.394
-182.196
-175.015
-167.148
-158.926
-150.684
-142.742
-135.327
-128.611
-122.61
-117.347
-112.773
-108.73
-104.998
-101.443
-98.0868
-95.0009
-92.1553
-89.3844
-86.4328
-83.0342
-79.0996
-74.7854
-70.3721
-66.1494
-62.3354
-59.0329
-56.242
-53.9101
-51.9717
-50.3651
-49.0357
-47.936
-47.0282
-46.2897
-45.7113
-45.2785
-44.9575
-44.7065
-44.4935
-44.3005
-44.118
-43.9428
-43.7773
-43.6244
-43.4806
-43.3336
-43.1692
-42.9797
-42.766
-42.5334
-42.2874
-42.0308
-41.7644
-41.4877
-41.1991
-40.8962
-40.5787
-40.2481
-39.9051
-39.5495
-39.1812
-38.8015
-38.4123
-38.0145
-37.6082
-37.1936
-36.7708
-36.3406
-35.9034
-35.4598
-35.0099
-34.5538
-34.0907
-33.6201
-33.1422
-32.6581
-32.1684
-31.6734
-31.1731
-30.6677
-30.1573
-29.6419
-29.1211
-28.5948
-28.0631
-27.5258
-26.9829
-26.4343
-25.8799
-25.3196
-24.7537
-24.1826
-23.6068
-23.0263
-22.4414
-21.8522
-21.2587
-20.6612
-20.0599
-19.4555
-18.8487
-18.2408
-17.6335
-17.0293
-16.4314
-15.8439
-15.2714
-105.011
-105.432
-106.172
-107.169
-108.34
-109.605
-110.9
-112.179
-113.427
-114.651
-115.866
-117.068
-118.223
-119.264
-120.108
-120.669
-120.878
-120.7
-120.132
-119.205
-117.971
-116.493
-114.853
-113.145
-111.461
-109.885
-108.477
-107.273
-106.279
-105.483
-104.893
-104.595
-104.685
-105.183
-106.038
-107.183
-108.547
-110.083
-111.761
-113.558
-115.468
-117.484
-119.602
-121.817
-124.124
-126.518
-128.987
-131.519
-134.093
-136.682
-139.266
-141.832
-144.394
-146.997
-149.723
-152.667
-155.919
-159.514
-163.455
-167.722
-172.291
-177.131
-182.168
-187.244
-192.091
-196.37
-199.741
-201.922
-202.736
-202.077
-199.893
-196.181
-191.018
-184.635
-177.26
-169.195
-160.777
-152.339
-144.206
-136.648
-129.819
-123.731
-118.357
-113.682
-109.601
-105.868
-102.23
-98.6491
-95.3063
-92.3465
-89.6901
-87.0782
-84.1681
-80.6993
-76.6658
-72.2948
-67.9262
-63.8763
-60.3325
-57.3345
-54.8321
-52.7564
-51.0517
-49.6641
-48.5358
-47.615
-46.8644
-46.2622
-45.7941
-45.4372
-45.1569
-44.9193
-44.7028
-44.4978
-44.3
-44.1098
-43.93
-43.7589
-43.5864
-43.3998
-43.192
-42.9628
-42.7156
-42.4545
-42.1829
-41.9025
-41.6132
-41.3134
-41.0007
-40.6741
-40.3346
-39.9838
-39.6216
-39.2474
-38.8618
-38.4668
-38.0636
-37.6525
-37.2336
-36.8071
-36.3734
-35.933
-35.4863
-35.0336
-34.5749
-34.1097
-33.6372
-33.1575
-32.6714
-32.1801
-31.6836
-31.1818
-30.675
-30.1633
-29.6469
-29.1253
-28.5983
-28.0659
-27.528
-26.9848
-26.436
-25.8817
-25.3217
-24.7562
-24.1856
-23.6103
-23.0305
-22.4465
-21.8584
-21.2663
-20.6705
-20.0714
-19.4695
-18.8658
-18.2614
-17.6582
-17.0584
-16.4649
-15.8812
-15.3114
-100.864
-101.307
-102.105
-103.204
-104.521
-105.978
-107.507
-109.054
-110.582
-112.07
-113.495
-114.826
-116.009
-116.974
-117.637
-117.927
-117.793
-117.214
-116.213
-114.871
-113.262
-111.486
-109.648
-107.85
-106.178
-104.692
-103.423
-102.377
-101.557
-100.984
-100.726
-100.87
-101.442
-102.39
-103.641
-105.118
-106.76
-108.537
-110.423
-112.407
-114.49
-116.666
-118.933
-121.288
-123.725
-126.239
-128.818
-131.449
-134.112
-136.782
-139.436
-142.064
-144.679
-147.328
-150.092
-153.067
-156.347
-159.982
-163.978
-168.313
-172.95
-177.842
-182.908
-187.984
-192.806
-197.045
-200.369
-202.516
-203.302
-202.615
-200.404
-196.671
-191.503
-185.1
-177.746
-169.743
-161.407
-153.06
-145.007
-137.508
-130.728
-124.679
-119.283
-114.512
-110.341
-106.595
-102.974
-99.3171
-95.7739
-92.6241
-89.9604
-87.5845
-85.0906
-82.0642
-78.334
-74.0474
-69.5684
-65.3072
-61.5493
-58.386
-55.767
-53.5982
-51.803
-50.3322
-49.1431
-48.1868
-47.4185
-46.8047
-46.3205
-45.9399
-45.6317
-45.3668
-45.1257
-44.8979
-44.6777
-44.4632
-44.2561
-44.0569
-43.858
-43.6481
-43.4204
-43.1744
-42.9121
-42.636
-42.3488
-42.0527
-41.7487
-41.4358
-41.1118
-40.7752
-40.4264
-40.0672
-39.6977
-39.317
-38.9252
-38.5241
-38.1152
-37.699
-37.2756
-36.8451
-36.4077
-35.9638
-35.5139
-35.0581
-34.5965
-34.1288
-33.6545
-33.1732
-32.6856
-32.1925
-31.6945
-31.1913
-30.683
-30.1699
-29.6524
-29.13
-28.6022
-28.069
-27.5305
-26.9868
-26.4378
-25.8835
-25.3237
-24.7586
-24.1885
-23.6138
-23.0347
-22.4515
-21.8645
-21.2737
-20.6795
-20.0824
-19.4829
-18.8819
-18.2808
-17.6812
-17.0852
-16.4954
-15.915
-15.3474
-96.5854
-97.0199
-97.8279
-98.9658
-100.375
-101.991
-103.756
-105.615
-107.516
-109.407
-111.224
-112.889
-114.305
-115.362
-115.962
-116.032
-115.54
-114.497
-112.964
-111.049
-108.88
-106.599
-104.343
-102.22
-100.312
-98.6785
-97.353
-96.3525
-95.7062
-95.4743
-95.7154
-96.4386
-97.5779
-99.0384
-100.728
-102.573
-104.527
-106.572
-108.69
-110.886
-113.161
-115.515
-117.95
-120.459
-123.04
-125.683
-128.38
-131.117
-133.876
-136.636
-139.375
-142.082
-144.764
-147.462
-150.246
-153.206
-156.431
-159.984
-163.88