/*--------------------------------*- C++ -*----------------------------------*\
  =========                 |
  \\      /  F ield         | OpenFOAM: The Open Source CFD Toolbox
   \\    /   O peration     | Website:  https://openfoam.org
    \\  /    A nd           | Version:  9
     \\/     M anipulation  |
\*---------------------------------------------------------------------------*/
FoamFile
{
    format      ascii;
    class       surfaceScalarField;
    location    "0.035";
    object      phi;
}
// * * * * * * * * * * * * * * * * * * * * * * * * * * * * * * * * * * * * * //

dimensions      [0 3 -1 0 0 0 0];

internalField   nonuniform List<scalar> 
24170
(
3.05189e-06
1.1022e-07
2.95998e-06
9.19073e-08
2.87648e-06
8.34983e-08
2.78751e-06
8.89735e-08
2.69384e-06
9.36706e-08
2.59625e-06
9.75913e-08
2.50326e-06
9.29868e-08
2.42101e-06
8.22558e-08
2.34444e-06
7.65616e-08
2.26262e-06
8.18258e-08
2.17111e-06
9.15063e-08
2.07445e-06
9.66582e-08
1.98101e-06
9.34408e-08
1.89353e-06
8.74852e-08
1.80228e-06
9.12463e-08
1.69453e-06
1.07757e-07
1.54174e-06
1.52789e-07
2.21355e-07
1.32038e-06
3.42725e-06
1.0737e-07
3.4296e-06
8.95497e-08
3.43414e-06
7.89594e-08
3.45298e-06
7.01384e-08
3.47498e-06
7.16708e-08
3.48012e-06
9.24487e-08
3.46156e-06
1.1155e-07
3.42758e-06
1.16236e-07
3.39195e-06
1.12185e-07
3.3634e-06
1.10383e-07
3.34297e-06
1.11929e-07
3.32646e-06
1.13175e-07
3.30852e-06
1.11379e-07
3.28327e-06
1.12731e-07
3.24371e-06
1.30804e-07
3.18117e-06
1.70304e-07
3.0925e-06
2.41457e-07
3.4574e-07
2.96812e-06
3.6609e-06
8.81278e-08
3.67412e-06
7.63286e-08
3.67677e-06
7.63097e-08
3.69568e-06
5.12285e-08
3.72281e-06
4.45381e-08
3.73729e-06
7.79628e-08
3.73077e-06
1.18074e-07
3.70957e-06
1.37437e-07
3.68619e-06
1.35569e-07
3.6702e-06
1.26373e-07
3.66287e-06
1.19253e-07
3.6589e-06
1.17143e-07
3.65023e-06
1.20049e-07
3.63181e-06
1.31161e-07
3.60378e-06
1.58834e-07
3.56741e-06
2.06665e-07
3.52996e-06
2.78913e-07
3.76901e-07
3.4988e-06
3.84877e-06
-3.6468e-08
3.9025e-06
2.26027e-08
3.90248e-06
7.63313e-08
3.8911e-06
6.26108e-08
3.88981e-06
4.58214e-08
3.9009e-06
6.68762e-08
3.91215e-06
1.06827e-07
3.91513e-06
1.34452e-07
3.91244e-06
1.38264e-07
3.91133e-06
1.27478e-07
3.91535e-06
1.15229e-07
3.92232e-06
1.10173e-07
3.9264e-06
1.15969e-07
3.92226e-06
1.35304e-07
3.90855e-06
1.72543e-07
3.8862e-06
2.29016e-07
3.86215e-06
3.02963e-07
3.9437e-07
3.84468e-06
4.21628e-06
-6.64383e-09
4.26028e-06
-2.13906e-08
4.25799e-06
7.8616e-08
4.23215e-06
8.84518e-08
4.21041e-06
6.75611e-08
4.20262e-06
7.46644e-08
4.20514e-06
1.04307e-07
4.2119e-06
1.27693e-07
4.22038e-06
1.2978e-07
4.22976e-06
1.18099e-07
4.23778e-06
1.07213e-07
4.24086e-06
1.07095e-07
4.23624e-06
1.20584e-07
4.22351e-06
1.4804e-07
4.20591e-06
1.90142e-07
4.18759e-06
2.47337e-07
4.17417e-06
3.16379e-07
3.97457e-07
4.17108e-06
4.6285e-06
6.81124e-08
4.57496e-06
3.21517e-08
4.57008e-06
8.34958e-08
4.57328e-06
8.52534e-08
4.55439e-06
8.64457e-08
4.51468e-06
1.14377e-07
4.47396e-06
1.4503e-07
4.44819e-06
1.53457e-07
4.44159e-06
1.3638e-07
4.44927e-06
1.10426e-07
4.46243e-06
9.40555e-08
4.47263e-06
9.68938e-08
4.4749e-06
1.18312e-07
4.46868e-06
1.54259e-07
4.45781e-06
2.01012e-07
4.44733e-06
2.57812e-07
4.44277e-06
3.20938e-07
3.91128e-07
4.4491e-06
4.81923e-06
9.43504e-08
4.78995e-06
6.14365e-08
4.79544e-06
7.8008e-08
4.80379e-06
7.69028e-08
4.79452e-06
9.5712e-08
4.77323e-06
1.35664e-07
4.75582e-06
1.62448e-07
4.75006e-06
1.59209e-07
4.75094e-06
1.35506e-07
4.74989e-06
1.11477e-07
4.7432e-06
1.00739e-07
4.73312e-06
1.06973e-07
4.72417e-06
1.27268e-07
4.72004e-06
1.58384e-07
4.72327e-06
1.97788e-07
4.73484e-06
2.46242e-07
4.75551e-06
3.00262e-07
3.61282e-07
4.78536e-06
5.13507e-06
9.43393e-08
5.11044e-06
8.60678e-08
5.13111e-06
5.73459e-08
5.15767e-06
5.0337e-08
5.16694e-06
8.64483e-08
5.17725e-06
1.25352e-07
5.20126e-06
1.38437e-07
5.23172e-06
1.28747e-07
5.25095e-06
1.16274e-07
5.24607e-06
1.1636e-07
5.21625e-06
1.30556e-07
5.17103e-06
1.52192e-07
5.1239e-06
1.74404e-07
5.08631e-06
1.95967e-07
5.06495e-06
2.19148e-07
5.06217e-06
2.49022e-07
5.07761e-06
2.84822e-07
3.29237e-07
5.10966e-06
5.52595e-06
1.46186e-07
5.48044e-06
1.31577e-07
5.51572e-06
2.2064e-08
5.55346e-06
1.25983e-08
5.57417e-06
6.57468e-08
5.57309e-06
1.26432e-07
5.5562e-06
1.55326e-07
5.53447e-06
1.50473e-07
5.51823e-06
1.32511e-07
5.5116e-06
1.22995e-07
5.51241e-06
1.29746e-07
5.51614e-06
1.48459e-07
5.51978e-06
1.70764e-07
5.5236e-06
1.92147e-07
5.52995e-06
2.12804e-07
5.54265e-06
2.36318e-07
5.56423e-06
2.63242e-07
2.96032e-07
5.59744e-06
6.1327e-06
1.44978e-07
6.12863e-06
1.35646e-07
6.07024e-06
8.04488e-08
6.00429e-06
7.85544e-08
5.95862e-06
1.11411e-07
5.93477e-06
1.50281e-07
5.91815e-06
1.71945e-07
5.90286e-06
1.65765e-07
5.89153e-06
1.43842e-07
5.88895e-06
1.25582e-07
5.89676e-06
1.21931e-07
5.91185e-06
1.33365e-07
5.92881e-06
1.53803e-07
5.94283e-06
1.78134e-07
5.95266e-06
2.02976e-07
5.96018e-06
2.28798e-07
5.96944e-06
2.53976e-07
2.80186e-07
5.98529e-06
6.39601e-06
5.20959e-08
6.36593e-06
1.65727e-07
6.31088e-06
1.35494e-07
6.27444e-06
1.15e-07
6.27965e-06
1.06198e-07
6.3199e-06
1.1003e-07
6.37213e-06
1.19713e-07
6.4121e-06
1.25796e-07
6.42684e-06
1.29109e-07
6.41701e-06
1.35407e-07
6.39326e-06
1.45678e-07
6.36884e-06
1.57787e-07
6.35311e-06
1.69536e-07
6.34946e-06
1.81778e-07
6.35694e-06
1.95499e-07
6.37304e-06
2.12694e-07
6.39509e-06
2.31934e-07
2.52414e-07
6.42286e-06
5.84179e-06
-4.84401e-08
5.81635e-06
1.91168e-07
5.75971e-06
1.92132e-07
5.73822e-06
1.36493e-07
5.72023e-06
1.24192e-07
5.69899e-06
1.31268e-07
5.6833e-06
1.35399e-07
5.6805e-06
1.28601e-07
5.6935e-06
1.16112e-07
5.72065e-06
1.08256e-07
5.75633e-06
1.0999e-07
5.79244e-06
1.2168e-07
5.82128e-06
1.40693e-07
5.83735e-06
1.65709e-07
5.84011e-06
1.92743e-07
5.83293e-06
2.19878e-07
5.82211e-06
2.42747e-07
2.5985e-07
5.81468e-06
6.91018e-06
5.51269e-08
6.94414e-06
1.57204e-07
7.01184e-06
1.24438e-07
7.05823e-06
9.00956e-08
7.07584e-06
1.06587e-07
7.06744e-06
1.39671e-07
7.0503e-06
1.52539e-07
7.03808e-06
1.40816e-07
7.03473e-06
1.19458e-07
7.03782e-06
1.05173e-07
7.04195e-06
1.05859e-07
7.04161e-06
1.22017e-07
7.03376e-06
1.48547e-07
7.01919e-06
1.80278e-07
7.00094e-06
2.10992e-07
6.984e-06
2.36815e-07
6.97332e-06
2.53433e-07
2.60323e-07
6.97285e-06
8.59868e-06
1.23779e-07
8.51465e-06
2.4123e-07
8.45821e-06
1.8088e-07
8.43513e-06
1.13176e-07
8.45219e-06
8.95258e-08
8.48451e-06
1.07354e-07
8.50998e-06
1.27073e-07
8.52168e-06
1.29112e-07
8.52397e-06
1.17167e-07
8.52756e-06
1.01584e-07
8.54132e-06
9.21044e-08
8.56774e-06
9.55903e-08
8.60283e-06
1.13457e-07
8.64195e-06
1.4116e-07
8.68071e-06
1.72234e-07
8.71845e-06
1.99068e-07
8.75428e-06
2.17611e-07
2.25097e-07
8.7895e-06
1.03856e-05
2.2396e-07
1.03372e-05
2.89635e-07
1.02987e-05
2.19407e-07
1.02838e-05
1.27987e-07
1.03129e-05
6.04956e-08
1.03748e-05
4.54699e-08
1.04344e-05
6.74779e-08
1.04661e-05
9.73789e-08
1.04705e-05
1.12781e-07
1.0464e-05
1.08086e-07
1.04639e-05
9.22018e-08
1.04803e-05
7.91656e-08
1.05157e-05
7.80615e-08
1.05658e-05
9.10918e-08
1.06231e-05
1.14889e-07
1.06797e-05
1.42488e-07
1.07296e-05
1.67696e-07
1.86158e-07
1.07685e-05
1.26183e-05
2.63253e-07
1.26317e-05
2.76291e-07
1.26735e-05
1.77557e-07
1.27236e-05
7.79121e-08
1.27505e-05
3.35958e-08
1.27603e-05
3.56216e-08
1.27642e-05
6.35882e-08
1.27538e-05
1.07778e-07
1.27161e-05
1.50536e-07
1.26503e-05
1.7381e-07
1.25719e-05
1.7061e-07
1.25041e-05
1.47002e-07
1.2466e-05
1.16151e-07
1.24658e-05
9.12722e-08
1.25008e-05
7.98882e-08
1.25603e-05
8.30094e-08
1.26322e-05
9.5771e-08
1.1422e-07
1.27042e-05
1.53152e-05
3.24417e-07
1.52002e-05
3.91274e-07
1.52034e-05
1.74351e-07
1.5258e-05
2.33649e-08
1.52818e-05
9.77231e-09
1.52777e-05
3.97303e-08
1.52811e-05
6.01362e-08
1.53131e-05
7.57934e-08
1.53619e-05
1.01728e-07
1.54011e-05
1.34634e-07
1.54134e-05
1.58266e-07
1.54e-05
1.60476e-07
1.53745e-05
1.41617e-07
1.53549e-05
1.10829e-07
1.5356e-05
7.8785e-08
1.53846e-05
5.44353e-08
1.54408e-05
3.95817e-08
3.74231e-08
1.55176e-05
1.87077e-05
2.02008e-07
1.89242e-05
1.74805e-07
1.90535e-05
4.50841e-08
1.9063e-05
1.38752e-08
1.89763e-05
9.6458e-08
1.88648e-05
1.51239e-07
1.87931e-05
1.31843e-07
1.87868e-05
8.20788e-08
1.88312e-05
5.73327e-08
1.88918e-05
7.40631e-08
1.89366e-05
1.13377e-07
1.89469e-05
1.502e-07
1.89201e-05
1.6842e-07
1.88668e-05
1.64106e-07
1.88047e-05
1.40942e-07
1.87506e-05
1.08565e-07
1.87157e-05
7.44608e-08
4.68408e-08
1.87063e-05
2.20858e-05
7.57517e-09
2.24178e-05
-1.572e-07
2.26068e-05
-1.43941e-07
2.26626e-05
-4.18916e-08
2.26996e-05
5.94949e-08
2.27495e-05
1.01282e-07
2.28108e-05
7.05414e-08
2.28767e-05
1.62095e-08
2.29504e-05
-1.63696e-08
2.30236e-05
8.12421e-10
2.30921e-05
4.48937e-08
2.31406e-05
1.01754e-07
2.3162e-05
1.4701e-07
2.31587e-05
1.67396e-07
2.31382e-05
1.61415e-07
2.31097e-05
1.37118e-07
2.308e-05
1.04136e-07
7.36029e-08
2.30532e-05
1.65121e-05
-8.44945e-08
1.65382e-05
-1.83257e-07
1.65993e-05
-2.05039e-07
1.67266e-05
-1.6916e-07
1.68592e-05
-7.31195e-08
1.69271e-05
3.3323e-08
1.6905e-05
9.27083e-08
1.68325e-05
8.86515e-08
1.67597e-05
5.64709e-08
1.67251e-05
3.5349e-08
1.67306e-05
3.94517e-08
1.67721e-05
6.02113e-08
1.68379e-05
8.12023e-08
1.6916e-05
8.9346e-08
1.69965e-05
8.08534e-08
1.70724e-05
6.12249e-08
1.71385e-05
3.80397e-08
2.07152e-08
1.71914e-05
1.44855e-05
2.22676e-07
1.43345e-05
-3.22948e-08
1.43328e-05
-2.03289e-07
1.43894e-05
-2.25751e-07
1.44758e-05
-1.59565e-07
1.45585e-05
-4.93838e-08
1.46151e-05
3.6066e-08
1.46384e-05
6.53954e-08
1.46459e-05
4.89566e-08
1.46615e-05
1.97469e-08
1.46973e-05
3.6973e-09
1.47503e-05
7.20169e-09
1.48071e-05
2.43453e-08
1.4854e-05
4.24796e-08
1.48822e-05
5.26801e-08
1.48901e-05
5.33153e-08
1.48821e-05
4.60738e-08
3.64491e-08
1.48663e-05
1.28806e-05
-5.91336e-09
1.28536e-05
-5.31317e-09
1.27099e-05
-5.96272e-08
1.25865e-05
-1.02301e-07
1.25192e-05
-9.23257e-08
1.25188e-05
-4.89938e-08
1.2569e-05
-1.40846e-08
1.26401e-05
-5.69937e-09
1.27007e-05
-1.16963e-08
1.27342e-05
-1.37704e-08
1.27408e-05
-2.80887e-09
1.27322e-05
1.57393e-08
1.2723e-05
3.3589e-08
1.27217e-05
4.37328e-08
1.27308e-05
4.35776e-08
1.27486e-05
3.55066e-08
1.27719e-05
2.28295e-08
1.10699e-08
1.27973e-05
1.11634e-05
-1.20232e-07
1.11526e-05
5.55344e-09
1.11026e-05
-9.69298e-09
1.10992e-05
-9.88153e-08
1.11299e-05
-1.23083e-07
1.1166e-05
-8.50683e-08
1.1188e-05
-3.60769e-08
1.11886e-05
-6.30122e-09
1.11732e-05
3.68481e-09
1.11536e-05
5.85806e-09
1.11418e-05
9.00724e-09
1.11436e-05
1.38982e-08
1.11596e-05
1.75838e-08
1.11857e-05
1.76493e-08
1.12159e-05
1.33835e-08
1.1245e-05
6.41668e-09
1.12696e-05
-1.75981e-09
-8.2463e-09
1.12889e-05
9.77604e-06
-1.39206e-07
9.77144e-06
1.01522e-08
9.72806e-06
3.36846e-08
9.67803e-06
-4.87799e-08
9.65757e-06
-1.02629e-07
9.6732e-06
-1.00697e-07
9.70474e-06
-6.76128e-08
9.73255e-06
-3.41163e-08
9.75168e-06
-1.54418e-08
9.76537e-06
-7.83387e-09
9.77473e-06
-3.54583e-10
9.77857e-06
1.00627e-08
9.77337e-06
2.27804e-08
9.75882e-06
3.22035e-08
9.73881e-06
3.33904e-08
9.71908e-06
2.61484e-08
9.70565e-06
1.16646e-08
-4.04298e-09
9.70145e-06
8.50215e-06
-1.89128e-07
8.54832e-06
-3.60181e-08
8.5223e-06
5.97037e-08
8.45229e-06
2.12267e-08
8.37958e-06
-2.99112e-08
8.33804e-06
-5.91648e-08
8.33192e-06
-6.14835e-08
8.34509e-06
-4.72892e-08
8.35695e-06
-2.7305e-08
8.35373e-06
-4.60935e-09
8.33246e-06
2.09167e-08
8.30025e-06
4.22699e-08
8.26879e-06
5.42428e-08
8.2471e-06
5.38877e-08
8.23817e-06
4.23192e-08
8.24053e-06
2.37899e-08
8.2498e-06
2.3924e-09
-1.59181e-08
8.26168e-06
7.08562e-06
-1.71275e-07
7.15452e-06
-1.04922e-07
7.18141e-06
3.28157e-08
7.17382e-06
2.88224e-08
7.18189e-06
-3.79814e-08
7.21384e-06
-9.11142e-08
7.24782e-06
-9.54636e-08
7.26275e-06
-6.22196e-08
7.25884e-06
-2.33984e-08
7.2525e-06
1.73498e-09
7.26201e-06
1.14073e-08
7.29386e-06
1.04158e-08
7.34459e-06
3.51154e-09
7.40482e-06
-6.34488e-09
7.46184e-06
-1.46949e-08
7.50565e-06
-2.0025e-08
7.52987e-06
-2.18307e-08
-2.09661e-08
7.53492e-06
6.24008e-06
-1.20166e-07
6.24224e-06
-1.07084e-07
6.31924e-06
-4.41851e-08
6.37929e-06
-3.12238e-08
6.39612e-06
-5.48071e-08
6.38371e-06
-7.87111e-08
6.36201e-06
-7.37612e-08
6.34272e-06
-4.29332e-08
6.33053e-06
-1.12009e-08
6.32707e-06
5.19275e-09
6.33417e-06
4.30229e-09
6.35044e-06
-5.84993e-09
6.37284e-06
-1.88863e-08
6.39689e-06
-3.03931e-08
6.41971e-06
-3.75227e-08
6.43971e-06
-4.0022e-08
6.4563e-06
-3.8417e-08
-3.38515e-08
6.46918e-06
5.44448e-06
-1.85247e-07
5.4495e-06
-1.12102e-07
5.46919e-06
-6.3877e-08
5.4864e-06
-4.84251e-08
5.48535e-06
-5.37617e-08
5.46961e-06
-6.29722e-08
5.45949e-06
-6.36421e-08
5.47113e-06
-5.45738e-08
5.50533e-06
-4.54002e-08
5.55314e-06
-4.26156e-08
5.60295e-06
-4.55028e-08
5.64665e-06
-4.95585e-08
5.67962e-06
-5.1849e-08
5.70019e-06
-5.09673e-08
5.70896e-06
-4.62916e-08
5.7079e-06
-3.89629e-08
5.69949e-06
-3.00107e-08
-2.19267e-08
5.68757e-06
4.91821e-06
-1.62551e-07
4.90634e-06
-1.00228e-07
4.86919e-06
-2.67325e-08
4.81947e-06
1.29742e-09
4.78331e-06
-1.75996e-08
4.77094e-06
-5.06001e-08
4.77773e-06
-7.04412e-08
4.79533e-06
-7.21712e-08
4.81601e-06
-6.60742e-08
4.83445e-06
-6.10565e-08
4.84812e-06
-5.91751e-08
4.85701e-06
-5.84468e-08
4.86208e-06
-5.69178e-08
4.8646e-06
-5.34875e-08
4.86591e-06
-4.76078e-08
4.86714e-06
-4.01861e-08
4.86886e-06
-3.1732e-08
-2.41268e-08
4.87106e-06
4.02188e-06
3.92165e-06
3.89492e-06
3.89621e-06
3.87861e-06
3.82801e-06
3.75757e-06
3.6854e-06
3.61933e-06
3.55827e-06
3.4991e-06
3.44065e-06
3.38373e-06
3.33024e-06
3.28264e-06
3.24245e-06
3.21072e-06
3.18659e-06
-6.27887e-07
6.27887e-07
-1.10712e-06
4.79233e-07
-1.4196e-06
3.12481e-07
-1.5528e-06
1.33194e-07
-1.36609e-06
-1.86708e-07
-8.79191e-07
-4.86897e-07
-1.55434e-07
-7.23757e-07
6.936e-07
-8.49034e-07
1.59293e-06
-8.9933e-07
2.47407e-06
-8.81144e-07
3.28894e-06
-8.14867e-07
4.00991e-06
-7.20966e-07
4.62298e-06
-6.13077e-07
5.12362e-06
-5.00637e-07
5.51249e-06
-3.88866e-07
5.7936e-06
-2.8111e-07
5.96789e-06
-1.74294e-07
6.03444e-06
-6.65447e-08
5.99097e-06
4.34667e-08
5.83039e-06
1.60577e-07
5.5508e-06
2.79593e-07
5.13563e-06
4.15172e-07
4.59266e-06
5.42971e-07
3.87941e-06
7.13251e-07
3.04406e-06
8.35346e-07
1.99238e-06
1.05168e-06
8.55605e-07
1.13677e-06
4.73245e-08
8.0828e-07
-6.21416e-07
6.68741e-07
-1.2128e-06
5.9138e-07
-1.66467e-06
4.51875e-07
-1.90697e-06
2.42303e-07
-1.93456e-06
2.75887e-08
-1.72526e-06
-2.09307e-07
-1.12044e-06
-6.04818e-07
-1.3073e-07
-9.89709e-07
9.25927e-07
-1.05666e-06
1.71134e-06
-7.85411e-07
2.00287e-06
-2.91535e-07
1.72979e-06
2.73082e-07
1.33564e-06
3.94146e-07
1.39141e-06
-5.57687e-08
1.53275e-06
-1.41337e-07
1.37436e-06
1.58389e-07
4.63237e-07
9.11124e-07
-1.03495e-06
1.49818e-06
-2.57019e-06
1.53524e-06
-4.02287e-06
1.45268e-06
-5.34371e-06
1.32084e-06
-6.52566e-06
1.18196e-06
-7.57311e-06
1.04745e-06
-8.49807e-06
9.24954e-07
-9.31473e-06
8.16664e-07
-1.00367e-05
7.22003e-07
-1.06763e-05
6.39527e-07
-1.12433e-05
5.67067e-07
-1.17462e-05
5.02831e-07
-1.21912e-05
4.45075e-07
-1.25837e-05
3.9245e-07
-1.29275e-05
3.4385e-07
-1.32259e-05
2.9835e-07
-1.34811e-05
2.55168e-07
-1.36947e-05
2.13637e-07
-1.38679e-05
1.73219e-07
-1.40014e-05
1.33511e-07
-1.40957e-05
9.42325e-08
-1.4151e-05
5.52999e-08
-1.41676e-05
1.66535e-08
-1.41487e-05
-1.88817e-08
-1.40959e-05
-5.28404e-08
-1.40099e-05
-8.59654e-08
-1.38921e-05
-1.17803e-07
-1.3744e-05
-1.48081e-07
-1.35673e-05
-1.76757e-07
-1.33632e-05
-2.04031e-07
-1.3133e-05
-2.302e-07
-1.28772e-05
-2.55822e-07
-1.25958e-05
-2.81433e-07
-1.22882e-05
-3.07572e-07
-1.19537e-05
-3.34488e-07
-1.15916e-05
-3.62104e-07
-1.12017e-05
-3.89967e-07
-1.07842e-05
-4.17462e-07
-1.03401e-05
-4.44087e-07
-9.87043e-06
-4.69686e-07
-9.37603e-06
-4.94393e-07
-8.85769e-06
-5.18346e-07
-8.3163e-06
-5.41387e-07
-7.75333e-06
-5.62969e-07
-7.171e-06
-5.82328e-07
-6.57221e-06
-5.98793e-07
-5.96026e-06
-6.1195e-07
-5.33849e-06
-6.21768e-07
-4.70986e-06
-6.28635e-07
-4.07685e-06
-6.33007e-07
-3.44176e-06
-6.35094e-07
-2.80677e-06
-6.34989e-07
-2.17483e-06
-6.31938e-07
-1.55027e-06
-6.24558e-07
-9.38158e-07
-6.12114e-07
-3.43737e-07
-5.94421e-07
2.26151e-07
-5.69888e-07
7.65838e-07
-5.39687e-07
1.26758e-06
-5.01741e-07
1.72523e-06
-4.57654e-07
2.13468e-06
-4.09445e-07
2.49468e-06
-3.60003e-07
2.80684e-06
-3.1216e-07
3.07431e-06
-2.67468e-07
3.30025e-06
-2.25937e-07
3.48779e-06
-1.87544e-07
3.64191e-06
-1.54117e-07
3.77081e-06
-1.28907e-07
3.88453e-06
-1.13713e-07
3.99063e-06
-1.06105e-07
4.09054e-06
-9.99139e-08
4.17957e-06
-8.90202e-08
4.25066e-06
-7.10902e-08
4.299e-06
-4.83484e-08
4.32426e-06
-2.52519e-08
4.32924e-06
-4.97972e-09
4.31883e-06
1.04054e-08
4.29893e-06
1.98993e-08
4.27521e-06
2.37159e-08
4.25218e-06
2.30343e-08
4.23317e-06
1.90069e-08
4.22014e-06
1.30358e-08
4.21373e-06
6.40502e-09
4.21353e-06
2.04496e-10
4.21812e-06
-4.59028e-09
4.22472e-06
-6.60209e-09
4.23064e-06
-5.92414e-09
4.23289e-06
-2.2416e-09
4.22868e-06
4.20827e-09
4.21673e-06
1.19524e-08
4.19662e-06
2.0107e-08
4.16773e-06
2.88909e-08
4.12908e-06
3.8648e-08
4.07968e-06
4.9404e-08
4.01933e-06
6.03425e-08
3.94936e-06
6.99747e-08
3.87255e-06
7.68118e-08
3.79254e-06
8.00055e-08
3.71288e-06
7.9661e-08
3.63618e-06
7.67041e-08
3.56375e-06
7.24295e-08
3.4957e-06
6.80455e-08
3.43131e-06
6.43882e-08
3.36951e-06
6.1801e-08
3.30937e-06
6.01379e-08
3.25043e-06
5.89449e-08
3.19278e-06
5.7645e-08
3.13706e-06
5.57246e-08
3.08417e-06
5.28893e-08
3.035e-06
4.91692e-08
2.99015e-06
4.48462e-08
2.94984e-06
4.0316e-08
2.91389e-06
3.59492e-08
2.88188e-06
3.20118e-08
2.85323e-06
2.86471e-08
2.82733e-06
2.59035e-08
2.80357e-06
2.37542e-08
2.78141e-06
2.21586e-08
2.76039e-06
2.10276e-08
2.74004e-06
2.0349e-08
2.72004e-06
1.99978e-08
2.69993e-06
2.01123e-08
2.67948e-06
2.04442e-08
2.65797e-06
2.15104e-08
2.63542e-06
2.25507e-08
2.61032e-06
2.51045e-08
2.58338e-06
2.69393e-08
2.55089e-06
3.24843e-08
2.51568e-06
3.52182e-08
2.46786e-06
4.78189e-08
2.41687e-06
5.09867e-08
2.33483e-06
8.20362e-08
2.25139e-06
8.34446e-08
2.08394e-06
1.67449e-07
1.64587e-07
1.91935e-06
-1.66024e-08
6.44489e-07
-4.45738e-08
5.07205e-07
-7.0744e-08
3.38652e-07
1.3396e-07
-7.151e-08
6.60797e-07
-7.13545e-07
1.41134e-06
-1.23744e-06
2.25866e-06
-1.57108e-06
3.1119e-06
-1.70227e-06
3.90797e-06
-1.69541e-06
4.62098e-06
-1.59415e-06
5.23914e-06
-1.43303e-06
5.75974e-06
-1.24156e-06
6.18634e-06
-1.03968e-06
6.52504e-06
-8.39336e-07
6.78271e-06
-6.46533e-07
6.96497e-06
-4.63368e-07
7.08035e-06
-2.89675e-07
7.13747e-06
-1.23667e-07
7.14048e-06
4.04573e-08
7.07437e-06
2.26681e-07
6.94488e-06
4.09088e-07
6.75131e-06
6.08744e-07
6.48152e-06
8.12758e-07
6.14881e-06
1.04596e-06
5.71464e-06
1.26952e-06
5.26425e-06
1.50207e-06
4.69678e-06
1.70424e-06
3.74997e-06
1.75509e-06
2.68069e-06
1.73802e-06
1.73239e-06
1.53969e-06
1.02781e-06
1.15646e-06
5.57321e-07
7.1279e-07
3.37048e-07
2.47862e-07
3.32092e-07
-2.04351e-07
6.08027e-07
-8.80753e-07
1.21781e-06
-1.59949e-06
1.80617e-06
-1.64502e-06
2.19344e-06
-1.17267e-06
2.20798e-06
-3.06081e-07
2.0676e-06
4.13463e-07
1.80272e-06
6.59031e-07
6.96885e-07
1.05006e-06
-1.34861e-06
1.90416e-06
-3.43642e-06
2.2462e-06
-4.9828e-06
2.4575e-06
-6.08104e-06
2.59643e-06
-7.04674e-06
2.50094e-06
-7.91544e-06
2.32138e-06
-8.6844e-06
2.0898e-06
-9.35956e-06
1.85711e-06
-9.9518e-06
1.63969e-06
-1.04726e-05
1.44577e-06
-1.09332e-05
1.27723e-06
-1.13421e-05
1.13097e-06
-1.17066e-05
1.00395e-06
-1.20318e-05
8.92328e-07
-1.23222e-05
7.93159e-07
-1.25809e-05
7.03821e-07
-1.28111e-05
6.22651e-07
-1.3015e-05
5.47703e-07
-1.3194e-05
4.77341e-07
-1.3349e-05
4.10177e-07
-1.34803e-05
3.44942e-07
-1.35876e-05
2.80573e-07
-1.36703e-05
2.16222e-07
-1.37275e-05
1.51361e-07
-1.37581e-05
8.59185e-08
-1.37611e-05
1.96928e-08
-1.37337e-05
-4.62729e-08
-1.36748e-05
-1.1173e-07
-1.35849e-05
-1.75915e-07
-1.34647e-05
-2.37982e-07
-1.33155e-05
-2.97302e-07
-1.31386e-05
-3.53667e-07
-1.29353e-05
-4.07289e-07
-1.27066e-05
-4.58879e-07
-1.2453e-05
-5.09498e-07
-1.2174e-05
-5.60406e-07
-1.18689e-05
-6.12693e-07
-1.15364e-05
-6.6692e-07
-1.11757e-05
-7.22798e-07
-1.07865e-05
-7.79202e-07
-1.03694e-05
-8.346e-07
-9.92565e-06
-8.87804e-07
-9.4568e-06
-9.38535e-07
-8.96387e-06
-9.87327e-07
-8.44745e-06
-1.03476e-06
-7.90817e-06
-1.08067e-06
-7.34727e-06
-1.12387e-06
-6.76701e-06
-1.16259e-06
-6.17053e-06
-1.19527e-06
-5.5615e-06
-1.22098e-06
-4.94367e-06
-1.2396e-06
-4.32024e-06
-1.25206e-06
-3.69361e-06
-1.25964e-06
-3.06561e-06
-1.2631e-06
-2.43823e-06
-1.26236e-06
-1.81377e-06
-1.2564e-06
-1.19557e-06
-1.24276e-06
-5.87589e-07
-1.22009e-06
5.094e-09
-1.1871e-06
5.81345e-07
-1.14614e-06
1.13108e-06
-1.08943e-06
1.64842e-06
-1.01907e-06
2.12482e-06
-9.3406e-07
2.55226e-06
-8.3688e-07
2.92689e-06
-7.34633e-07
3.24909e-06
-6.3436e-07
3.52014e-06
-5.3852e-07
3.74125e-06
-4.47047e-07
3.91664e-06
-3.62934e-07
4.05617e-06
-2.93651e-07
4.17398e-06
-2.46713e-07
4.28461e-06
-2.24344e-07
4.39818e-06
-2.1967e-07
4.51598e-06
-2.17713e-07
4.63039e-06
-2.03437e-07
4.72999e-06
-1.70691e-07
4.80557e-06
-1.23926e-07
4.85317e-06
-7.28489e-08
4.87466e-06
-2.64748e-08
4.87528e-06
9.78918e-09
4.86105e-06
3.41275e-08
4.83786e-06
4.6904e-08
4.81152e-06
4.93817e-08
4.78723e-06
4.32965e-08
4.76936e-06
3.09071e-08
4.76088e-06
1.48816e-08
4.76259e-06
-1.50725e-09
4.77332e-06
-1.53163e-08
4.79145e-06
-2.47298e-08
4.81413e-06
-2.86092e-08
4.83891e-06
-2.70188e-08
4.86407e-06
-2.09591e-08
4.88796e-06
-1.19318e-08
4.9093e-06
-1.23891e-09
4.92791e-06
1.02881e-08
4.94464e-06
2.19162e-08
4.96039e-06
3.36582e-08
4.97534e-06
4.53833e-08
4.98851e-06
5.6805e-08
4.99783e-06
6.74963e-08
5.00089e-06
7.69422e-08
4.99586e-06
8.46924e-08
4.98207e-06
9.04931e-08
4.9602e-06
9.43014e-08
4.93195e-06
9.62927e-08
4.89952e-06
9.68179e-08
4.86506e-06
9.62664e-08
4.83028e-06
9.49126e-08
4.79637e-06
9.28592e-08
4.76399e-06
9.00261e-08
4.73347e-06
8.62441e-08
4.70498e-06
8.13769e-08
4.67868e-06
7.54693e-08
4.65475e-06
6.8779e-08
4.63334e-06
6.17199e-08
4.61454e-06
5.47523e-08
4.59826e-06
4.82953e-08
4.58424e-06
4.26661e-08
4.57206e-06
3.80822e-08
4.5612e-06
3.46193e-08
4.55105e-06
3.23019e-08
4.54109e-06
3.09901e-08
4.53079e-06
3.06512e-08
4.5198e-06
3.09817e-08
4.50776e-06
3.21555e-08
4.49456e-06
3.36443e-08
4.47978e-06
3.62876e-08
4.46356e-06
3.87708e-08
4.44507e-06
4.35959e-08
4.42479e-06
4.72211e-08
4.40068e-06
5.65961e-08
4.3741e-06
6.17957e-08
4.34024e-06
8.16755e-08
4.3022e-06
8.90314e-08
4.2496e-06
1.34638e-07
4.18699e-06
1.46047e-07
4.09564e-06
2.58803e-07
2.87776e-07
3.97245e-06
2.15587e-07
4.28902e-07
3.00502e-07
4.2229e-07
7.65172e-07
-1.26019e-07
1.64782e-06
-9.54161e-07
2.61419e-06
-1.67991e-06
3.51055e-06
-2.1338e-06
4.26567e-06
-2.32621e-06
4.87836e-06
-2.31495e-06
5.35272e-06
-2.16977e-06
5.7077e-06
-1.94914e-06
5.96834e-06
-1.69367e-06
6.15676e-06
-1.42999e-06
6.29085e-06
-1.17376e-06
6.385e-06
-9.33487e-07
6.45185e-06
-7.1339e-07
6.4968e-06
-5.08318e-07
6.5208e-06
-3.13671e-07
6.52173e-06
-1.24599e-07
6.5008e-06
6.13836e-08
6.4774e-06
2.50084e-07
6.43899e-06
4.47503e-07
6.38852e-06
6.59208e-07
6.32002e-06
8.8126e-07
6.24436e-06
1.12162e-06
6.14219e-06
1.37169e-06
6.02185e-06
1.62241e-06
5.85659e-06
1.86951e-06
5.56506e-06
2.04662e-06
5.19682e-06
2.10626e-06
4.70674e-06
2.02976e-06
4.10586e-06
1.75734e-06
3.50431e-06
1.31434e-06
3.14008e-06
6.12094e-07
2.87863e-06
5.70985e-08
2.87001e-06
-8.72133e-07
3.09602e-06
-1.8255e-06
2.92567e-06
-1.47466e-06
2.14685e-06
-3.93854e-07
1.15051e-06
6.90253e-07
-1.69296e-07
1.73327e-06
-1.95134e-06
2.44107e-06
-3.7982e-06
2.89693e-06
-5.11737e-06
3.22333e-06
-6.19106e-06
3.31989e-06
-7.037e-06
3.30344e-06
-7.60086e-06
3.16028e-06
-8.03111e-06
2.93119e-06
-8.3888e-06
2.67908e-06
-8.7214e-06
2.4224e-06
-9.04597e-06
2.18168e-06
-9.36962e-06
1.96334e-06
-9.69223e-06
1.76839e-06
-1.00109e-05
1.59588e-06
-1.03217e-05
1.44181e-06
-1.06212e-05
1.30345e-06
-1.09068e-05
1.17797e-06
-1.1177e-05
1.06335e-06
-1.1431e-05
9.57807e-07
-1.16681e-05
8.59738e-07
-1.18879e-05
7.67463e-07
-1.20897e-05
6.79118e-07
-1.22723e-05
5.92828e-07
-1.24342e-05
5.06825e-07
-1.25733e-05
4.19675e-07
-1.26874e-05
3.30367e-07
-1.27744e-05
2.3833e-07
-1.28319e-05
1.4346e-07
-1.28587e-05
4.64015e-08
-1.28532e-05
-5.16887e-08
-1.28157e-05
-1.49235e-07
-1.27464e-05
-2.45224e-07
-1.26462e-05
-3.3824e-07
-1.25163e-05
-4.27184e-07
-1.23584e-05
-5.11592e-07
-1.21739e-05
-5.91765e-07
-1.19639e-05
-6.68854e-07
-1.17287e-05
-7.44677e-07
-1.14677e-05
-8.21411e-07
-1.11795e-05
-9.00947e-07
-1.08622e-05
-9.84174e-07
-1.05146e-05
-1.07037e-06
-1.01366e-05
-1.15722e-06
-9.72959e-06
-1.24164e-06
-9.29597e-06
-1.32142e-06
-8.83815e-06
-1.39636e-06
-8.35737e-06
-1.46811e-06
-7.85366e-06
-1.53846e-06
-7.32681e-06
-1.60752e-06
-6.77751e-06
-1.67317e-06
-6.20815e-06
-1.73195e-06
-5.6226e-06
-1.78082e-06
-5.02549e-06
-1.81809e-06
-4.42174e-06
-1.84335e-06
-3.81552e-06
-1.85828e-06
-3.20968e-06
-1.86548e-06
-2.6059e-06
-1.86687e-06
-2.00577e-06
-1.86249e-06
-1.41122e-06
-1.85096e-06
-8.25375e-07
-1.82861e-06
-2.52292e-07
-1.79317e-06
3.05282e-07
-1.74468e-06
8.39262e-07
-1.68012e-06
1.35136e-06
-1.60152e-06
1.84438e-06
-1.5121e-06
2.31793e-06
-1.40761e-06
2.76119e-06
-1.28014e-06
3.16065e-06
-1.13409e-06
3.51373e-06
-9.87441e-07
3.8238e-06
-8.48593e-07
4.08197e-06
-7.0521e-07
4.26807e-06
-5.49039e-07
4.37668e-06
-4.02259e-07
4.43306e-06
-3.03094e-07
4.47851e-06
-2.69793e-07
4.54579e-06
-2.86951e-07
4.64556e-06
-3.17481e-07
4.7663e-06
-3.24179e-07
4.88588e-06
-2.9027e-07
4.98629e-06
-2.24332e-07
5.05979e-06
-1.46355e-07
5.10535e-06
-7.20368e-08
5.12348e-06
-8.34017e-09
5.11597e-06
4.16417e-08
5.0873e-06
7.55784e-08
5.04531e-06
9.13677e-08
4.99919e-06
8.94118e-08
4.95699e-06
7.31081e-08
4.92386e-06
4.80134e-08
4.90187e-06
2.04805e-08
4.89098e-06
-4.41933e-09
4.88917e-06
-2.29258e-08
4.89393e-06
-3.33688e-08
4.90291e-06
-3.59971e-08
4.91408e-06
-3.2126e-08
4.92584e-06
-2.36934e-08
4.93731e-06
-1.27084e-08
4.94846e-06
-8.62516e-10
4.9602e-06
1.01711e-08
4.97375e-06
2.01109e-08
4.99038e-06
2.87536e-08
5.01035e-06
3.68364e-08
5.03234e-06
4.55035e-08
5.05349e-06
5.57943e-08
5.0701e-06
6.80879e-08
5.07879e-06
8.17971e-08
5.07766e-06
9.54353e-08
5.06678e-06
1.0717e-07
5.04804e-06
1.15561e-07
5.02428e-06
1.20019e-07
4.9984e-06
1.20799e-07
4.97262e-06
1.18637e-07
4.9483e-06
1.14342e-07
4.92601e-06
1.08541e-07
4.90577e-06
1.01616e-07
4.88744e-06
9.37992e-08
4.87091e-06
8.53047e-08
4.85621e-06
7.64183e-08
4.84348e-06
6.74877e-08
4.83286e-06
5.89157e-08
4.82442e-06
5.1104e-08
4.81805e-06
4.44514e-08
4.81345e-06
3.92212e-08
4.81013e-06
3.56254e-08
4.80752e-06
3.35959e-08
4.80502e-06
3.31497e-08
4.80213e-06
3.3871e-08
4.79839e-06
3.59019e-08
4.79353e-06
3.84988e-08
4.7873e-06
4.25173e-08
4.7796e-06
4.64726e-08
4.77023e-06
5.29683e-08
4.75897e-06
5.84796e-08
4.74576e-06
6.98091e-08
4.72959e-06
7.7958e-08
4.71132e-06
9.99494e-08
4.68707e-06
1.13283e-07
4.66208e-06
1.5963e-07
4.62273e-06
1.85398e-07
4.59255e-06
2.88973e-07
3.50014e-07
4.53032e-06
3.11491e-08
3.97753e-07
6.16512e-07
-1.63073e-07
1.77677e-06
-1.28628e-06
2.9746e-06
-2.15199e-06
3.91382e-06
-2.61913e-06
4.54269e-06
-2.76267e-06
4.9013e-06
-2.68482e-06
5.06558e-06
-2.47922e-06
5.10997e-06
-2.21416e-06
5.08667e-06
-1.92584e-06
5.03223e-06
-1.63922e-06
4.97081e-06
-1.36857e-06
4.91668e-06
-1.11963e-06
4.87799e-06
-8.94787e-07
4.85706e-06
-6.92463e-07
4.85546e-06
-5.06722e-07
4.87107e-06
-3.29283e-07
4.89688e-06
-1.50404e-07
4.92243e-06
3.58285e-08
4.9568e-06
2.15717e-07
4.9921e-06
4.12208e-07
5.02821e-06
6.23095e-07
5.06602e-06
8.43447e-07
5.11515e-06
1.07249e-06
5.17577e-06
1.31107e-06
5.24815e-06
1.55003e-06
5.31631e-06
1.80135e-06
5.35099e-06
2.01193e-06
5.27923e-06
2.17802e-06
5.09852e-06
2.21047e-06
4.75455e-06
2.1013e-06
4.331e-06
1.73789e-06
3.82411e-06
1.11899e-06
3.48951e-06
3.91692e-07
3.28465e-06
-6.67271e-07
2.37615e-06
-9.16998e-07
8.51108e-07
5.03761e-08
-9.00101e-07
1.35736e-06
-2.51956e-06
2.30972e-06
-3.85168e-06
3.06539e-06
-4.97781e-06
3.5672e-06
-5.89812e-06
3.81724e-06
-6.52034e-06
3.84554e-06
-6.95512e-06
3.75468e-06
-7.2458e-06
3.59412e-06
-7.45029e-06
3.36476e-06
-7.629e-06
3.1099e-06
-7.8103e-06
2.86037e-06
-8.01462e-06
2.62673e-06
-8.24623e-06
2.41329e-06
-8.50216e-06
2.21926e-06
-8.77501e-06
2.04124e-06
-9.05628e-06
1.87715e-06
-9.33869e-06
1.72422e-06
-9.61716e-06
1.58191e-06
-9.88872e-06
1.44953e-06
-1.01519e-05
1.32648e-06
-1.04058e-05
1.21173e-06
-1.06497e-05
1.10368e-06
-1.08825e-05
1.00025e-06
-1.11024e-05
8.98993e-07
-1.1307e-05
7.97403e-07
-1.14933e-05
6.93157e-07
-1.1658e-05
5.84423e-07
-1.17978e-05
4.7012e-07
-1.19094e-05
3.49975e-07
-1.19904e-05
2.24403e-07
-1.20381e-05
9.41113e-08
-1.20519e-05
-3.78694e-08
-1.20313e-05
-1.69845e-07
-1.19761e-05
-3.00415e-07
-1.18874e-05
-4.26923e-07
-1.17669e-05
-5.47682e-07
-1.16166e-05
-6.61922e-07
-1.14382e-05
-7.70126e-07
-1.12331e-05
-8.73998e-07
-1.10015e-05
-9.76303e-07
-1.07426e-05
-1.08029e-06
-1.04548e-05
-1.18871e-06
-1.01364e-05
-1.30255e-06
-9.78675e-06
-1.42007e-06
-9.40712e-06
-1.53685e-06
-9.00119e-06
-1.64757e-06
-8.5737e-06
-1.74891e-06
-8.12822e-06
-1.84183e-06
-7.66534e-06
-1.93099e-06
-7.18267e-06
-2.02113e-06
-6.67692e-06
-2.11327e-06
-6.1465e-06
-2.20359e-06
-5.59303e-06
-2.28542e-06
-5.02107e-06
-2.35277e-06
-4.43671e-06
-2.40246e-06
-3.8466e-06
-2.43346e-06
-3.25606e-06
-2.44881e-06
-2.66819e-06
-2.45336e-06
-2.08382e-06
-2.45124e-06
-1.50329e-06
-2.44302e-06
-9.27592e-07
-2.42665e-06
-3.60088e-07
-2.39611e-06
1.93818e-07
-2.34708e-06
7.21835e-07
-2.2727e-06
1.21093e-06
-2.16922e-06
1.65132e-06
-2.04191e-06
2.04851e-06
-1.90929e-06
2.42867e-06
-1.78777e-06
2.81185e-06
-1.66333e-06
3.18486e-06
-1.5071e-06
3.52491e-06
-1.32749e-06
3.84121e-06
-1.1649e-06
4.15718e-06
-1.02118e-06
4.45209e-06
-8.4394e-07
4.65889e-06
-6.09066e-07
4.73718e-06
-3.8138e-07
4.72296e-06
-2.55578e-07
4.69577e-06
-2.59758e-07
4.71742e-06
-3.39132e-07
4.80217e-06
-4.08928e-07
4.92362e-06
-4.11723e-07
5.04293e-06
-3.43641e-07
5.1364e-06
-2.39826e-07
5.20212e-06
-1.3776e-07
5.24762e-06
-5.38393e-08
5.27604e-06
1.32258e-08
5.28494e-06
6.66761e-08
5.27212e-06
1.04184e-07
5.24086e-06
1.20672e-07
5.19959e-06
1.14382e-07
5.15773e-06
8.98745e-08
5.12203e-06
5.61809e-08
5.09485e-06
2.27571e-08
5.07523e-06
-3.30606e-09
5.06086e-06
-1.89947e-08
5.04949e-06
-2.46316e-08