/*--------------------------------*- C++ -*----------------------------------*\
  =========                 |
  \\      /  F ield         | OpenFOAM: The Open Source CFD Toolbox
   \\    /   O peration     | Website:  https://openfoam.org
    \\  /    A nd           | Version:  9
     \\/     M anipulation  |
\*---------------------------------------------------------------------------*/
FoamFile
{
    format      ascii;
    class       volScalarField;
    location    "0.035";
    object      pMean;
}
// * * * * * * * * * * * * * * * * * * * * * * * * * * * * * * * * * * * * * //

dimensions      [0 2 -2 0 0 0 0];

internalField   nonuniform List<scalar> 
12225
(
-2.83358
-3.37872
-3.6601
-3.75105
-3.77
-3.7684
-3.75423
-3.7215
-3.66508
-3.58138
-3.46886
-3.322
-3.13937
-2.90981
-2.63711
-2.30204
-1.9329
-1.52148
-3.06557
-3.41102
-3.66428
-3.76241
-3.78292
-3.77999
-3.76529
-3.7332
-3.67814
-3.59634
-3.4863
-3.34342
-3.16586
-2.9457
-2.68387
-2.37336
-2.03741
-1.73789
-3.10317
-3.41438
-3.6568
-3.7658
-3.79249
-3.79004
-3.77547
-3.745
-3.69261
-3.61452
-3.50921
-3.37371
-3.20633
-3.00365
-2.76665
-2.50246
-2.23601
-2.03469
-3.26955
-3.46833
-3.67113
-3.78116
-3.81205
-3.809
-3.79333
-3.76378
-3.71417
-3.64034
-3.54099
-3.41436
-3.25985
-3.07704
-2.86999
-2.65117
-2.44611
-2.30251
-3.35254
-3.50089
-3.67423
-3.78657
-3.82644
-3.82673
-3.81146
-3.78349
-3.73748
-3.66922
-3.57734
-3.46131
-3.32167
-3.16056
-2.98434
-2.80665
-2.64981
-2.54468
-3.46023
-3.55853
-3.69871
-3.80326
-3.84717
-3.85064
-3.83617
-3.80969
-3.76752
-3.70553
-3.62234
-3.51825
-3.39507
-3.25663
-3.11042
-2.96912
-2.85097
-2.77762
-3.54198
-3.61569
-3.72554
-3.82027
-3.86866
-3.87741
-3.8652
-3.84067
-3.80259
-3.74757
-3.67424
-3.58343
-3.47787
-3.36233
-3.24454
-3.13559
-3.05016
-3.00413
-3.591
-3.66103
-3.75641
-3.84227
-3.89245
-3.90632
-3.89798
-3.87697
-3.8442
-3.79724
-3.73496
-3.65851
-3.57124
-3.47833
-3.3872
-3.30732
-3.25034
-3.22779
-3.7362
-3.74639
-3.80385
-3.87621
-3.92476
-3.94195
-3.93765
-3.9206
-3.8933
-3.85474
-3.80418
-3.74286
-3.67424
-3.60348
-3.53743
-3.48394
-3.45201
-3.44956
-3.74017
-3.7792
-3.84053
-3.9063
-3.95545
-3.97853
-3.98052
-3.9694
-3.94912
-3.92007
-3.88209
-3.83643
-3.78647
-3.73711
-3.6944
-3.66472
-3.65478
-3.66992
-3.83043
-3.86582
-3.90942
-3.95816
-4.00014
-4.02439
-4.03113
-4.02612
-4.01342
-3.99426
-3.96901
-3.93905
-3.90747
-3.87868
-3.85775
-3.84978
-3.85961
-3.89097
-3.88651
-3.90725
-3.94585
-3.99486
-4.03918
-4.0678
-4.08063
-4.08283
-4.07848
-4.06934
-4.05625
-4.04077
-4.02567
-4.0148
-4.01237
-4.02252
-4.04886
-4.09416
-3.98267
-3.98243
-4.01079
-4.0534
-4.09298
-4.12114
-4.1378
-4.1466
-4.15055
-4.15126
-4.15002
-4.14858
-4.14938
-4.15554
-4.17046
-4.19737
-4.23899
-4.29729
-4.0215
-4.03951
-4.06995
-4.11046
-4.14868
-4.18013
-4.20502
-4.22411
-4.23907
-4.25204
-4.26485
-4.27932
-4.29756
-4.32205
-4.35541
-4.4001
-4.458
-4.53029
-4.08985
-4.12629
-4.162
-4.19575
-4.2304
-4.26439
-4.29556
-4.32351
-4.34958
-4.37583
-4.40405
-4.43574
-4.47253
-4.51622
-4.56869
-4.63159
-4.70635
-4.79379
-4.21316
-4.22791
-4.24874
-4.27916
-4.31724
-4.35875
-4.3998
-4.43955
-4.47957
-4.5218
-4.56759
-4.61803
-4.67432
-4.73774
-4.80962
-4.89102
-4.98271
-5.08496
-4.39731
-4.36339
-4.36267
-4.39222
-4.43596
-4.48348
-4.53227
-4.58288
-4.63657
-4.69461
-4.75791
-4.827
-4.90258
-4.98553
-5.07665
-5.17642
-5.28536
-5.40352
-4.47579
-4.47178
-4.48816
-4.52049
-4.5632
-4.61678
-4.67878
-4.74535
-4.81558
-4.89073
-4.97199
-5.05979
-5.15439
-5.25606
-5.36514
-5.48182
-5.60629
-5.73841
-4.46747
-4.51461
-4.56937
-4.62562
-4.6861
-4.75355
-4.82799
-4.90911
-4.99672
-5.09044
-5.18997
-5.29564
-5.40771
-5.52626
-5.65125
-5.78248
-5.91976
-6.06279
-4.76765
-4.70944
-4.69908
-4.73714
-4.80382
-4.88287
-4.96816
-5.05901
-5.15597
-5.25959
-5.3701
-5.48695
-5.60983
-5.73849
-5.87278
-6.01242
-6.15721
-6.30688
-4.64483
-4.66401
-4.70782
-4.77605
-4.8574
-4.94473
-5.03726
-5.13644
-5.2426
-5.35543
-5.47462
-5.59968
-5.73009
-5.86549
-6.00557
-6.15002
-6.29837
-6.45014
-4.6497
-4.6852
-4.7418
-4.81389
-4.89966
-4.99484
-5.09555
-5.20118
-5.31308
-5.43164
-5.55622
-5.68619
-5.821
-5.96025
-6.10369
-6.25087
-6.4014
-6.55481
-4.61107
-4.6711
-4.74633
-4.83127
-4.92647
-5.02751
-5.13211
-5.24209
-5.35873
-5.4819
-5.6108
-5.74464
-5.88281
-6.02494
-6.17061
-6.31945
-6.4711
-6.6251
-4.56649
-4.63082
-4.72544
-4.83072
-4.93789
-5.04423
-5.15193
-5.26513
-5.38589
-5.51337
-5.64589
-5.78241
-5.92269
-6.06658
-6.21386
-6.364
-6.51642
-6.67045
-4.61537
-4.63564
-4.7226
-4.84005
-4.95526
-5.063
-5.17105
-5.28612
-5.40955
-5.53945
-5.67388
-5.81204
-5.95374
-6.09879
-6.24687
-6.39751
-6.55015
-6.70434
-4.50003
-4.58555
-4.71005
-4.83829
-4.95381
-5.06203
-5.1729
-5.29165
-5.4183
-5.55065
-5.68698
-5.82672
-5.96977
-6.11601
-6.26501
-6.41621
-6.56912
-6.72322
-4.39318
-4.54742
-4.71142
-4.84801
-4.96033
-5.06651
-5.1789
-5.30026
-5.4288
-5.56225
-5.69928
-5.83965
-5.9834
-6.13029
-6.27979
-6.43132
-6.58437
-6.73836
-4.3917
-4.52081
-4.69636
-4.84297
-4.95604
-5.06217
-5.17659
-5.30033
-5.43048
-5.56487
-5.70268
-5.84374
-5.98808
-6.13537
-6.28508
-6.43662
-6.58961
-6.74379
-4.30112
-4.50356
-4.70433
-4.84638
-4.95466
-5.06135
-5.1778
-5.30287
-5.43372
-5.56865
-5.70702
-5.8487
-5.99367
-6.14151
-6.29168
-6.44335
-6.59621
-6.74958
-4.12478
-4.47913
-4.70999
-4.84368
-4.94861
-5.05712
-5.17542
-5.30126
-5.43241
-5.56763
-5.70634
-5.84833
-5.99355
-6.14149
-6.29167
-6.44313
-6.59564
-6.74795
-11.4771
-11.6069
-11.7323
-11.7692
-11.6787
-11.5089
-11.3743
-11.3985
-11.6618
-12.1483
-12.8117
-13.5648
-14.3083
-14.9565
-15.4465
-15.7416
-15.831
-15.728
-15.4693
-15.1064
-14.7018
-14.3179
-14.0202
-13.8373
-13.8141
-13.9167
-14.1443
-14.3878
-14.603
-14.7625
-14.8648
-14.9936
-15.2614
-15.7774
-16.6223
-17.8368
-19.3852
-21.1521
-23.0058
-24.8591
-26.6624
-28.3933
-30.0401
-31.5776
-33.0223
-34.4149
-35.769
-37.0234
-38.1239
-39.0307
-39.7208
-40.1852
-40.4256
-40.4515
-40.2766
-39.917
-39.389
-38.7085
-37.8897
-36.9453
-35.8858
-34.72
-33.4548
-32.0955
-30.6466
-29.1122
-27.4967
-25.8057
-24.046
-22.226
-20.356
-18.4481
-16.5149
-14.5691
-12.623
-10.6872
-8.77042
-6.87823
-5.01313
-3.17457
-1.35948
0.436714
2.21883
3.99065
5.75369
7.50588
9.24099
10.9483
12.6127
14.2159
15.7374
17.156
18.4516
19.6065
20.6065
21.4424
22.1106
22.6131
22.9565
23.153
23.2187
23.1737
23.0392
22.8361
22.5843
22.3011
22.001
21.6953
21.3927
21.099
20.8181
20.5526
20.3034
20.0708
19.8543
19.6532
19.4664
19.2932
19.1328
18.9846
18.8477
18.7215
18.6052
18.4982
18.3998
18.3094
18.2263
18.1499
18.0796
18.0149
17.9552
17.9
17.8491
17.8019
17.7582
17.7177
17.6802
17.6454
17.613
17.583
17.5552
17.5295
17.5058
17.4841
17.4643
17.4461
17.4295
17.4144
17.4005
17.3877
17.3762
17.3657
17.3564
17.3481
17.341
17.3348
17.3296
17.3254
17.3219
17.3192
17.3174
17.3163
17.316
17.3168
17.3187
17.322
17.327
17.3342
17.344
17.3574
17.3751
17.3991
17.4303
17.473
17.5285
17.6061
17.7088
17.8568
18.0587
18.3445
-12.1672
-12.302
-12.4208
-12.4771
-12.3827
-12.2557
-12.2173
-12.3733
-12.7558
-13.3383
-14.055
-14.8177
-15.5411
-16.1548
-16.6088
-16.8734
-16.9393
-16.8151
-16.5238
-16.1061
-15.6209
-15.1411
-14.7349
-14.4598
-14.343
-14.4207
-14.5817
-14.8336
-15.1466
-15.5821
-16.0648
-16.5581
-17.1265
-17.8567
-18.8109
-20.0351
-21.517
-23.1695
-24.8834
-26.5929
-28.2911
-29.9803
-31.6795
-33.3012
-34.7694
-36.133
-37.4108
-38.5623
-39.5457
-40.3286
-40.894
-41.238
-41.3665
-41.2914
-41.0277
-40.591
-39.9968
-39.2596
-38.3923
-37.4063
-36.3113
-35.1152
-33.824
-32.4422
-30.9735
-29.4211
-27.7885
-26.0808
-24.3044
-22.4683
-20.5827
-18.6594
-16.7112
-14.7512
-12.7923
-10.8458
-8.92095
-7.02381
-5.15704
-3.31986
-1.50867
0.28184
2.05741
3.82281
5.58037
7.32878
9.06225
10.7702
12.4375
14.0456
15.5734
16.9994
18.303
19.4662
20.4748
21.3192
21.9961
22.507
22.8585
23.0623
23.1351
23.097
22.969
22.7721
22.5261
22.2484
21.9535
21.6527
21.3546
21.065
20.788
20.5259
20.2799
20.0501
19.8362
19.6372
19.4522
19.2805
19.1214
18.9742
18.8382
18.7128
18.5973
18.491
18.3933
18.3034
18.2207
18.1447
18.0747
18.0103
17.9508
17.8959
17.8452
17.7982
17.7548
17.7147
17.6774
17.6429
17.6109
17.5813
17.5537
17.5283
17.5049
17.4834
17.4638
17.4458
17.4293
17.4143
17.4005
17.3878
17.3763
17.3659
17.3566
17.3483
17.3412
17.335
17.3298
17.3254
17.3219
17.3192
17.3172
17.3161
17.3158
17.3164
17.3182
17.3213
17.3261
17.333
17.3425
17.3554
17.3726
17.3956
17.4259
17.4663
17.5202
17.592
17.6906
17.8188
17.9971
18.1772
-12.0259
-12.0732
-12.2186
-12.4404
-12.7066
-13.0379
-13.4791
-14.0668
-14.8029
-15.6434
-16.5144
-17.3407
-18.0589
-18.6209
-18.9912
-19.1511
-19.0986
-18.8484
-18.4323
-17.8932
-17.2778
-16.6355
-16.0249
-15.5181
-15.1335
-14.9744
-15.0002
-15.1997
-15.6222
-16.2399
-17.0013
-17.872
-18.8823
-20.0643
-21.4138
-22.917
-24.5379
-26.1989
-27.8512
-29.5047
-31.1845
-32.8481
-34.4808
-36.0629
-37.5333
-38.8592
-40.0236
-41.006
-41.7891
-42.3622
-42.7239
-42.8789
-42.8371
-42.6115
-42.2163
-41.6661
-40.9747
-40.1543
-39.2162
-38.17
-37.0239
-35.7848
-34.4578
-33.0464
-31.5527
-29.9782
-28.3249
-26.5962
-24.7975
-22.937
-21.0249
-19.0739
-17.0976
-15.1105
-13.1265
-11.1585
-9.2171
-7.30931
-5.43821
-3.60269
-1.79823
-0.0181203
1.74514
3.49815
5.24495
6.98565
8.71544
10.4241
12.0965
13.7132
15.2525
16.6918
18.0097
19.1875
20.2107
21.07
21.7619
22.2878
22.6534
22.8712
22.9575
22.9326
22.8175
22.6332
22.3995
22.1337
21.8502
21.5602
21.2721
20.9918
20.723
20.4683
20.2289
20.0052
19.7967
19.6024
19.4215
19.2533
19.0971
18.9525
18.8189
18.6955
18.5818
18.477
18.3806
18.2918
18.2102
18.1351
18.066
18.0023
17.9436
17.8894
17.8393
17.7929
17.7501
17.7104
17.6736
17.6396
17.6081
17.5789
17.5518
17.5269
17.5039
17.4827
17.4634
17.4456
17.4294
17.4145
17.4008
17.3884
17.377
17.3668
17.3576
17.3494
17.3422
17.336
17.3307
17.3262
17.3225
17.3196
17.3175
17.3161
17.3156
17.316
17.3175
17.3203
17.3247
17.3311
17.3399
17.3519
17.3681
17.3893
17.4177
17.4545
17.5041
17.5672
17.6535
17.7558
17.8908
17.9962
-12.093
-12.1391
-12.3919
-12.8868
-13.5883
-14.4281
-15.3554
-16.3313
-17.3192
-18.2841
-19.1867
-19.985
-20.6389
-21.112
-21.3758
-21.4195
-21.2503
-20.8918
-20.3782
-19.7475
-19.0409
-18.3071
-17.592
-16.9649
-16.5036
-16.2181
-16.1535
-16.2986
-16.6664
-17.2647
-18.093
-19.1435
-20.4152
-21.9019
-23.579
-25.3914
-27.2639
-29.1344
-30.9506
-32.728
-34.4882
-36.2117
-37.8614
-39.4023
-40.7985
-42.0204
-43.0439
-43.8525
-44.4407
-44.8108
-44.9701
-44.9305
-44.7065
-44.314
-43.7689
-43.086
-42.2782
-41.3566
-40.3304
-39.2077
-37.9956
-36.7004
-35.3266
-33.8765
-32.3508
-30.7488
-29.0702
-27.3159
-25.4894
-23.5975
-21.6505
-19.6617
-17.6461
-15.62
-13.5994
-11.5994
-9.63241
-7.70735
-5.82801
-3.99304
-2.19677
-0.430486
1.31571
3.05104
4.78204
6.51102
8.23469
9.94354
11.6221
13.2499
14.8038
16.2598
17.5953
18.7908
19.8318
20.7095
21.42
21.9644
22.349
22.5855
22.6906
22.6844
22.5879
22.4224
22.2075
21.9603
21.6946
21.4215
21.1491
20.8831
20.6273
20.3841
20.155
19.9403
19.7397
19.5525
19.3777
19.2147
19.0631
18.9224
18.7922
18.6718
18.5606
18.4581
18.3636
18.2765
18.1963
18.1225
18.0546
17.9919
17.9341
17.8807
17.8314
17.7857
17.7435
17.7045
17.6684
17.6349
17.6039
17.5753
17.5488
17.5243
17.5018
17.481
17.462
17.4445
17.4285
17.4138
17.4004
17.3881
17.3769
17.3668
17.3577
17.3496
17.3424
17.3362
17.3308
17.3262
17.3224
17.3194
17.3171
17.3156
17.3149
17.315
17.3162
17.3187
17.3226
17.3284
17.3365
17.3474
17.3622
17.3815
17.4072
17.4401
17.4841
17.5384
17.6101
17.6897
17.7849
17.8404
-12.1609
-12.4152
-13.0245
-13.9312
-15.0226
-16.1953
-17.3813
-18.5329
-19.6207
-20.628
-21.5362
-22.3137
-22.9218
-23.3212
-23.4882
-23.4219
-23.1445
-22.6919
-22.1065
-21.431
-20.7025
-19.961
-19.2687
-18.6848
-18.2608
-18.0348
-18.0237
-18.2293
-18.6479
-19.284
-20.1499
-21.2582
-22.6208
-24.2305
-26.0576
-28.034
-30.0716
-32.1162
-34.1386
-36.112
-38.015
-39.8225
-41.5032
-43.0242
-44.3563
-45.4735
-46.3565
-46.9998
-47.4048
-47.5791
-47.5375
-47.2994
-46.8858
-46.3168
-45.6111
-44.784
-43.8482
-42.8133
-41.6869
-40.4755
-39.1851
-37.8218
-36.3903
-34.8927
-33.3287
-31.6956
-29.9899
-28.2086
-26.3518
-24.4243
-22.4361
-20.4014
-18.3372
-16.2619
-14.1939
-12.1511
-10.1492
-8.1994
-6.30691
-4.47031
-2.68244
-0.932236
0.793217
2.50643
4.21716
5.93057
7.64552
9.35353
11.0387
12.6791
14.2494
15.7238
17.0784
18.2934
19.3544
20.2524
20.9838
21.549
21.9552
22.214
22.3419
22.3587
22.2857
22.1441
21.9535
21.7305
21.4885
21.2379
20.9864
20.7396
20.5012
20.2734
20.0578
19.855
19.6647
19.4864
19.3194
19.1632
19.0175
18.8819
18.7561
18.6397
18.5319
18.4324
18.3405
18.2557
18.1775
18.1054
18.0389
17.9776
17.9211
17.8688
17.8206
17.7759
17.7347
17.6965
17.6613
17.6286
17.5984
17.5705
17.5446
17.5208
17.4987
17.4785
17.4598
17.4427
17.4271
17.4127
17.3996
17.3875
17.3766
17.3666
17.3576
17.3496
17.3425
17.3363
17.3309
17.3262
17.3224
17.3192
17.3168
17.315
17.3141
17.3139
17.3148
17.3168
17.3202
17.3252
17.3324
17.3421
17.3552
17.3723
17.395
17.4237
17.4612
17.5064
17.5631
17.6219
17.6831
17.7039
-12.7027
-13.2458
-14.2385
-15.4153
-16.685
-17.9885
-19.2689
-20.4872
-21.6339
-22.7115
-23.6954
-24.5383
-25.1862
-25.5903
-25.7251
-25.5976
-25.2403
-24.7029
-24.0444
-23.3201
-22.5783
-21.8693
-21.2471
-20.7598
-20.4509
-20.3474
-20.4555
-20.7701
-21.2828
-21.9976
-22.9308
-24.105
-25.533
-27.2138
-29.1068
-31.1534
-33.2915
-35.4629
-37.6251
-39.7391
-41.7656
-43.6651
-45.3981
-46.9266
-48.2187
-49.2535
-50.0201
-50.5133
-50.7391
-50.7141
-50.4618
-50.0097
-49.3869
-48.6209
-47.7347
-46.7462
-45.6681
-44.5089
-43.2732
-41.9641
-40.5844
-39.139
-37.6335
-36.0724
-34.456
-32.7806
-31.04
-29.2275
-27.3384
-25.3738
-23.3422
-21.2581
-19.1401
-17.0087
-14.885
-12.7903
-10.744
-8.76092
-6.84877
-5.00658
-3.22588
-1.49288
0.208979
1.89603
3.582
5.27543
6.97813
8.68329
10.3747
12.0284
13.6161
15.1096
16.484
17.7191
18.8009
19.7193
20.4711
21.0579
21.4866
21.7693
21.9227
21.9665
21.9219
21.8096
21.6485
21.4548
21.2415
21.0183
20.7923
20.5688
20.3513
20.1422
19.9429
19.7543
19.5763
19.4085
19.2505
19.1021
18.9633
18.8338
18.7134
18.6017
18.4981
18.4021
18.3134
18.2313
18.1555
18.0855
18.0209
17.9612
17.9061
17.8553
17.8083
17.7649
17.7247
17.6875
17.6532
17.6214
17.592
17.5648
17.5396
17.5164
17.495
17.4753
17.4571
17.4405
17.4252
17.4111
17.3983
17.3865
17.3758
17.366
17.3572
17.3493
17.3422
17.336
17.3306
17.3259
17.3219
17.3187
17.3161
17.3141
17.3129
17.3125
17.313
17.3145
17.3172
17.3214
17.3276
17.3359
17.3473
17.362
17.3813
17.4054
17.4361
17.472
17.5142
17.5546
17.5881
17.5841
-14.2583
-14.87
-15.8403
-16.969
-18.1943
-19.4606
-20.7144
-21.932
-23.1265
-24.294
-25.3801
-26.311
-27.0186
-27.4496
-27.586
-27.4454
-27.0729
-26.5314
-25.8868
-25.1976
-24.516
-23.8927
-23.3793
-23.0245
-22.8623
-22.9072
-23.1582
-23.6048
-24.2391
-25.065
-26.0964
-27.3527
-28.8483
-30.5816
-32.5196
-34.6259
-36.847
-39.1278
-41.4186
-43.6713
-45.8356
-47.8572
-49.682
-51.2611
-52.5564
-53.5433
-54.2091
-54.5539
-54.5906
-54.3439
-53.8479
-53.1424
-52.2687
-51.265
-50.1623
-48.9826
-47.7394
-46.4394
-45.0835
-43.6693
-42.1935
-40.6569
-39.0648
-37.4239
-35.7372
-34.0018
-32.2104
-30.3533
-28.4227
-26.4157
-24.3371
-22.1998
-20.0234
-17.8309
-15.6461
-13.4934
-11.3955
-9.37148
-7.43242
-5.57895
-3.80202
-2.08504
-0.407689
1.25069
2.9081
4.57725
6.26366
7.96282
9.65868
11.3247
12.9294
14.4421
15.8365
17.0918
18.1922
19.1289
19.8988
20.5047
20.9547
21.262
21.4434
21.5184
21.5075
21.4304
21.3046
21.1455
20.9654
20.7735
20.5764
20.379
20.1847
19.9961
19.8146
19.6414
19.4766
19.3202
19.1721
19.0323
18.901
18.7782
18.6637
18.5571
18.4581
18.3662
18.281
18.202
18.129
18.0614
17.999
17.9413
17.888
17.8387
17.7932
17.7512
17.7124
17.6765
17.6433
17.6125
17.5841
17.5578
17.5335
17.5111
17.4904
17.4712
17.4537
17.4375
17.4226
17.409
17.3965
17.385
17.3745
17.365
17.3564
17.3486
17.3417
17.3355
17.3301
17.3254
17.3213
17.3179
17.3152
17.3131
17.3116
17.3109
17.3109
17.3119
17.3139
17.3173
17.3223
17.3291
17.3385
17.3506
17.3663
17.3857
17.4095
17.4363
17.4652
17.4892
17.5007
17.4778
-15.8093
-16.3017
-17.0519
-18.0024
-19.0838
-20.2222
-21.3705
-22.5198
-23.6993
-24.8832
-25.9899
-26.9385
-27.6648
-28.1268
-28.3151
-28.2511
-27.982
-27.5686
-27.0725
-26.5474
-26.0391
-25.5941
-25.2628
-25.0899
-25.1046
-25.3189
-25.7283
-26.3217
-27.0926
-28.0438
-29.189
-30.5455
-32.1339
-33.9476
-35.9762
-38.1921
-40.5506
-43.0006
-45.487
-47.9504
-50.3251
-52.541
-54.5285
-56.2218
-57.566
-58.5249
-59.0859
-59.2579
-59.0632
-58.5398
-57.7382
-56.7159
-55.5303
-54.2334
-52.8666
-51.457
-50.0183
-48.5545
-47.0634
-45.5371
-43.9652
-42.3408
-40.6644
-38.9419
-37.178
-35.3708
-33.5131
-31.5949
-29.6073
-27.5444
-25.4074
-23.2073
-20.9645
-18.704
-16.4525
-14.2369
-12.0833
-10.0144
-8.04442
-6.17523
-4.39722
-2.69177
-1.03543
0.596209
2.22484
3.86725
5.5332
7.221
8.91582
10.5899
12.2099
13.742
15.1565
16.4305
17.5471
18.4983
19.2821
19.904
20.3747
20.7084
20.9219
21.0334
21.0618
21.0252
20.9396
20.819
20.6749
20.5164
20.3497
20.1795
20.0093
19.8416
19.6782
19.5204
19.369
19.2243
19.0864
18.9556
18.8324
18.7167
18.6085
18.5075
18.4134
18.3259
18.2446
18.1691
18.0992
18.0344
17.9745
17.919
17.8678
17.8205
17.7768
17.7363
17.699
17.6644
17.6324
17.6028
17.5755
17.5501
17.5267
17.505
17.4851
17.4666
17.4496
17.434
17.4197
17.4065
17.3943
17.3832
17.373
17.3637
17.3553
17.3477
17.3408
17.3347
17.3293
17.3246
17.3205
17.317
17.3141
17.3118
17.3101
17.309
17.3086
17.309
17.3103
17.3127
17.3165
17.3218
17.329
17.3385
17.3505
17.365
17.382
17.4
17.417
17.4266
17.4207
17.3828
-16.6173
-16.9746
-17.5446
-18.311
-19.2039
-20.1566
-21.1341
-22.1419
-23.2163
-24.3208
-25.3633
-26.277
-27.008
-27.522
-27.8121
-27.8978
-27.8214
-27.6335
-27.3821
-27.1086
-26.8537
-26.6618
-26.5778
-26.6395
-26.8723
-27.2864
-27.8768
-28.6343
-29.5547
-30.6447
-31.9237
-33.4138
-35.1342
-37.0927
-39.291
-41.7069
-44.3018
-47.0242
-49.8111
-52.5884
-55.2721
-57.7711
-59.9911
-61.8432
-63.2582
-64.1967
-64.6469
-64.6194
-64.1499
-63.2957
-62.1285
-60.7273
-59.1693
-57.523
-55.8417
-54.1594
-52.4912
-50.838
-49.1931
-47.5438
-45.8733
-44.1658
-42.4128
-40.6152
-38.7756
-36.8924
-34.9589
-32.9661
-30.9041
-28.767
-26.5548
-24.278
-21.9581
-19.6217
-17.2973
-15.0142
-12.8022
-10.687
-8.68439
-6.79541
-5.00959
-3.30722
-1.66335
-0.0517369
1.5515
3.16662
4.80694
6.47575
8.16203
9.83953
11.4727
13.0234
14.4571
15.7473
16.8769
17.8386
18.6341
19.2725
19.767
20.132
20.3824
20.5346
20.6057
20.6122
20.5685
20.4874
20.3797
20.2543
20.1176
19.9742
19.8276
19.6806
19.5352
19.3929
19.2547
19.1216
18.994
18.8727
18.7579
18.6498
18.5483
18.4531
18.3642
18.2812
18.2041
18.1324
18.0658
18.0041
17.9469
17.894
17.8451
17.7999
17.7581
17.7195
17.6837
17.6507
17.6201
17.5917
17.5655
17.5413
17.5189
17.4981
17.479
17.4613
17.445
17.43
17.4162
17.4034
17.3917
17.381
17.3711
17.3621
17.3539
17.3465
17.3398
17.3337
17.3284
17.3237
17.3195
17.3159
17.3129
17.3104
17.3084
17.3069
17.306
17.3058
17.3064
17.3078
17.3103
17.314
17.3191
17.3257
17.334
17.3437
17.3542
17.364
17.3703
17.3674
17.3474
17.2975
-16.6287
-16.883
-17.3034
-17.8932
-18.591
-19.3461
-20.1232
-20.9364
-21.8209
-22.7516
-23.66
-24.5001
-25.2302
-25.8165
-26.2475
-26.5319
-26.6962
-26.7754
-26.806
-26.8238
-26.8681
-26.9783
-27.1894
-27.53
-28.0188
-28.6615
-29.4538
-30.3913
-31.4775
-32.7289
-34.1724
-35.8377
-37.7512
-39.9344
-42.392
-45.1035
-48.0305
-51.1157
-54.2845
-57.4453
-60.4931
-63.3141
-65.7931
-67.8259
-69.3332
-70.2691
-70.6199
-70.4008
-69.6585
-68.4675
-66.9221
-65.1239
-63.1705
-61.1477
-59.1233
-57.1413
-55.2197
-53.3565
-51.5396
-49.7517
-47.97
-46.1703
-44.3354
-42.4589
-40.5397
-38.5748
-36.5562
-34.4737
-32.3191
-30.0891
-27.7853
-25.4191
-23.0116
-20.5902
-18.1855
-15.8302
-13.5574
-11.3943
-9.35545
-7.44041
-5.63747
-3.92669
-2.28363
-0.682539
0.901022
2.48942
4.10032
5.74475
7.4174
9.09363
10.7363
12.3014
13.7496
15.0512
16.19
17.1616
17.972
18.6331
19.1577
19.5582
19.8477
20.0409
20.1539
20.2018
20.1985
20.1555
20.0831
19.9897
19.8817
19.764
19.6403
19.5134
19.3857
19.2588
19.1342
19.0129
18.896
18.7842
18.6782
18.578
18.4835
18.3945
18.3111
18.2331
18.1602
18.0925
18.0295
17.9711
17.917
17.8668
17.8205
17.7776
17.738
17.7012
17.6673
17.6358
17.6067
17.5798
17.5548
17.5317
17.5104
17.4906
17.4723
17.4554
17.4398
17.4255
17.4123
17.4001
17.3888
17.3785
17.369
17.3603
17.3523
17.3451
17.3385
17.3326
17.3273
17.3225
17.3184
17.3147
17.3115
17.3088
17.3065
17.3047
17.3033
17.3025
17.3022
17.3027
17.3038
17.3058
17.3087
17.3126
17.3172
17.3221
17.3266
17.3287
17.3255
17.3118
17.2803
17.2208
-15.9869
-16.1702
-16.49
-16.9448
-17.4821
-18.0588
-18.6482
-19.2593
-19.9264
-20.6472
-21.3901
-22.1265
-22.8278
-23.4653
-24.0217
-24.4934
-24.8898
-25.2296
-25.5393
-25.8513
-26.2013
-26.622
-27.1401
-27.7737
-28.5309
-29.4118
-30.4153
-31.5463
-32.8198
-34.2626
-35.9091
-37.7963
-39.9594
-42.4249
-45.1946
-48.2457
-51.5338
-54.9935
-58.5402
-62.071
-65.4674
-68.6001
-71.3377
-73.5602
-75.1768
-76.1365
-76.4272
-76.0682
-75.1134
-73.6497
-71.7879
-69.6475
-67.3434
-64.9773
-62.6316
-60.3629
-58.1938
-56.1238
-54.1384
-52.213
-50.3169
-48.4166
-46.4887
-44.5218
-42.5105
-40.4472
-38.3221
-36.1274
-33.8593
-31.518
-29.1063
-26.6351
-24.1261
-21.6085
-19.1165
-16.6856
-14.3497
-12.1346
-10.0527
-8.10258
-6.27212
-4.54214
-2.89
-1.29108
0.278734
1.84341
3.42688
5.0479
6.70698
8.3801
10.0245
11.5946
13.0485
14.356
15.5029
16.4886
17.321
18.0107
18.5678
19.003
19.3287
19.5597
19.7113
19.7977
19.8318
19.8245
19.7853
19.7222
19.6416
19.5485
19.4467
19.3394
19.2291
19.1176
19.0067
18.8977
18.7917
18.6899
18.5928
18.5006
18.4135
18.3312
18.2537
18.181
18.1129
18.0494
17.9903
17.9354
17.8845
17.8374
17.7938
17.7534
17.716
17.6814
17.6494
17.6197
17.5922
17.5667
17.5431
17.5213
17.501
17.4823
17.465
17.449
17.4342
17.4205
17.408
17.3963
17.3856
17.3757
17.3666
17.3582
17.3505
17.3434
17.337
17.3312
17.326
17.3213
17.3171
17.3133
17.31
17.3071
17.3045
17.3023
17.3005
17.299
17.2979
17.2973
17.2972
17.2975
17.2982
17.2992
17.3003
17.3007
17.2994
17.2945
17.2829
17.2599
17.219
17.1517
-14.8969
-15.0405
-15.2987
-15.6681
-16.1035
-16.5667
-17.0324
-17.4995
-17.996
-18.5349
-19.1163
-19.7295
-20.3611
-20.9935
-21.611
-22.2046
-22.7743
-23.3292
-23.8855
-24.4658
-25.095
-25.7966
-26.5894
-27.4837
-28.4829
-29.5877
-30.8023
-32.1392
-33.6201
-35.2773
-37.1492
-39.2764
-41.6965
-44.4323
-47.48
-50.8146
-54.3904
-58.1415
-61.9809
-65.8006
-69.4727
-72.8549
-75.8033
-78.1896
-79.9184
-80.9383
-81.237
-80.8324
-79.7795
-78.1719
-76.1311
-73.7858
-71.262
-68.6714
-66.1052
-63.6293
-61.2739
-59.0445
-56.925
-54.8838
-52.8805
-50.8772
-48.8476
-46.777
-44.6555
-42.4729
-40.2209
-37.8962
-35.4984
-33.0287
-30.4904
-27.8972
-25.274
-22.6533
-20.0712
-17.5635
-15.1619
-12.8896
-10.7576
-8.76504
-6.90077
-5.14743
-3.48373
-1.88436
-0.324326
1.22456
2.7921
4.40103
6.05226
7.71992
9.3595
10.9247
12.3756
13.6853
14.8421
15.8466
16.7041
17.4216
18.007
18.4712
18.8278
19.092
19.2785
19.4004
19.4694
19.4954
19.4872
19.4524
19.3974
19.3274
19.2465
19.1581
19.0648
18.9687
18.8716
18.7751
18.6804
18.5888
18.501
18.4173
18.3378
18.2625
18.1914
18.1244
18.0615
18.0027
17.9479
17.8969
17.8496
17.8057
17.765
17.7273
17.6924
17.6601
17.6302
17.6024
17.5766
17.5527
17.5306
17.5101
17.4911
17.4735
17.4571
17.442
17.4281
17.4152
17.4033
17.3923
17.3821
17.3726
17.3639
17.3558
17.3484
17.3416
17.3354
17.3297
17.3246
17.3199
17.3157
17.3118
17.3084
17.3052
17.3024
17.2998
17.2975
17.2954
17.2935
17.2919
17.2904
17.289
17.2876
17.2859
17.2835
17.2796
17.273
17.2617
17.2427
17.2117
17.1629
17.0893
-13.5057
-13.6322
-13.8671
-14.2026
-14.5984
-15.0185
-15.4357
-15.8425
-16.2551
-16.6938
-17.1708
-17.6896
-18.2484
-18.8419
-19.462
-20.1027
-20.7632
-21.4496
-22.1725
-22.9448
-23.7808
-24.6948
-25.6988
-26.7988
-27.9982
-29.3013
-30.7155
-32.2542
-33.9372
-35.7942
-37.8614
-40.1789
-42.7808
-45.687
-48.8954
-52.3853
-56.1163
-60.0249
-64.0227
-67.9973
-71.8168
-75.3364
-78.4123
-80.9189
-82.7625
-83.8881
-84.2754
-83.9406
-82.9365
-81.3561
-79.3224
-76.9665
-74.4144
-71.7778
-69.1497
-66.6015
-64.1709
-61.8672
-59.6738
-57.5533
-55.4621
-53.3628
-51.2303
-49.0497
-46.8096
-44.5002
-42.1169
-39.6584
-37.1253
-34.5189
-31.8473
-29.1292
-26.3935
-23.6739
-21.0053
-18.4223
-15.9548
-13.6247
-11.4434
-9.41072
-7.51716
-5.74573
-4.07457
-2.47656
-0.920887
0.626706
2.19887
3.81513
5.47048
7.13468
8.76366
10.3148
11.7549
13.0629
14.2291
15.2511
16.1294
16.8681
17.4751
17.9629
18.3463
18.6401
18.8579
19.0117
19.112
19.1682
19.1884
19.1797
19.1485
19.1001
19.039
18.9688
18.8921
18.8113
18.7283
18.6446
18.5617
18.4808
18.4027
18.3279
18.2565
18.1887
18.1243
18.0635
18.0062
17.9525
17.9023
17.8556
17.8121
17.7718
17.7343
17.6996
17.6674
17.6375
17.6097
17.584
17.5601
17.5379
17.5173
17.4982
17.4805
17.464
17.4487
17.4346
17.4215
17.4094
17.3982
17.3879
17.3782
17.3693
17.361
17.3533
17.3462
17.3396
17.3336
17.3281
17.3231
17.3184
17.3142
17.3103
17.3067
17.3033
17.3002
17.2973
17.2945
17.2917
17.2891
17.2864
17.2836
17.2805
17.277
17.2727
17.2671
17.2592
17.2477
17.2306
17.2051
17.1671
17.1118
17.0329
-11.8946
-12.0216
-12.2606
-12.601
-13.0067
-13.4415
-13.8752
-14.2934
-14.701
-15.1165
-15.556
-16.0319
-16.5501
-17.1129
-17.72
-18.3701
-19.0644
-19.8082
-20.6099
-21.4793
-22.4276
-23.4664
-24.6043
-25.8454
-27.1929
-28.6506
-30.2222
-31.9144
-33.7405
-35.7244
-37.8996
-40.304
-42.9694
-45.9153
-49.1445
-52.6414
-56.3698
-60.2703
-64.2582
-68.2267
-72.0519
-75.5975
-78.7264
-81.3182
-83.2792
-84.5525
-85.1126
-84.9631
-84.1528
-82.7728
-80.9383
-78.7721
-76.3897
-73.894
-71.373
-68.8971
-66.5093
-64.2234
-62.0248
-59.8756
-57.7325
-55.562
-53.3443
-51.0682
-48.7251
-46.3074
-43.8108
-41.2336
-38.5766
-35.8446
-33.0529
-30.226
-27.3944
-24.5904
-21.8488
-19.2025
-16.682
-14.3086
-12.0928
-10.0349
-8.12524
-6.34561
-4.67092
-3.06929
-1.50309
0.0663158
1.66831
3.31161
4.98004
6.63906
8.249
9.77644
11.1982
12.499
13.6688
14.7005
15.5912
16.344
16.9681
17.4768
17.8847
18.2052
18.4507
18.6322
18.7599
18.8426
18.888
18.9031
18.894
18.8661
18.8241
18.7715
18.7114
18.646
18.5772
18.5068
18.4361
18.3664
18.2985
18.2331
18.1703
18.1103
18.0532
17.999
17.9477
17.8995
17.8543
17.812
17.7727
17.7361
17.702
17.6704
17.641
17.6137
17.5883
17.5647
17.5428
17.5223
17.5034
17.4857
17.4693
17.454
17.4399
17.4267
17.4146
17.4033
17.3928
17.3831
17.3741
17.3657
17.3578
17.3505
17.3438
17.3375
17.3317
17.3264
17.3214
17.3169
17.3126
17.3086
17.3049
17.3014
17.298
17.2947
17.2914
17.2881
17.2846
17.2809
17.2768
17.2722
17.2667
17.2599
17.2512
17.2395
17.2235
17.2013
17.17
17.1261
17.0651
16.9819
-10.124
-10.2569
-10.5118
-10.8788
-11.3232
-11.8066
-12.2971
-12.7745
-13.2355
-13.6909
-14.1548
-14.6406
-15.1587
-15.7162
-16.3173
-16.9645
-17.6607
-18.41
-19.2205
-20.105
-21.0789
-22.1557
-23.3436
-24.6455
-26.062
-27.5931
-29.2366
-30.9928
-32.8709
-34.8915
-37.0826
-39.4766
-42.1001
-44.9701
-48.0914
-51.4543
-55.0292
-58.7654
-62.5898
-66.4095
-70.1151
-73.5851
-76.6955
-79.3333
-81.4072
-82.8557
-83.6471
-83.7798
-83.2902
-82.2563
-80.7811
-78.9712
-76.9251
-74.7308
-72.4648
-70.191
-67.9543
-65.7732
-63.6373
-61.5132
-59.3642
-57.1649
-54.9023
-52.5696
-50.1616
-47.6723
-45.0964
-42.4306
-39.6791
-36.8545
-33.9789
-31.0774
-28.1815
-25.3244
-22.5406
-19.8626
-17.3187
-14.9286
-12.7019
-10.6379
-8.72488
-6.94108
-5.25632
-3.63369
-2.03279
-0.417978
1.22986
2.90557
4.583
6.22756
7.80865
9.305
10.7027
11.9899
13.1547
14.1872
15.0831
15.8454
16.4838
17.011
17.4404
17.7843
18.0539
18.2598
18.4114
18.5175
18.5855
18.6223
18.6339
18.6258
18.6024
18.5673
18.5237
18.4738
18.4196
18.3628
18.3048
18.2467
18.1895
18.1339
18.0801
18.0283
17.9788
17.9315
17.8866
17.8441
17.8041
17.7666
17.7316
17.6989
17.6684
17.64
17.6135
17.5889
17.566
17.5446
17.5247
17.5061
17.4888
17.4727
17.4576
17.4436
17.4306
17.4185
17.4072
17.3968
17.3871
17.3781
17.3697
17.3618
17.3544
17.3476
17.3412
17.3352
17.3297
17.3245
17.3197
17.3152
17.311
17.307
17.3031
17.2994
17.2958
17.2921
17.2883
17.2844
17.2802
17.2755
17.2702
17.264
17.2566
17.2475
17.2359
17.2208
17.2008
17.1739
17.1376
17.0885
17.0228
16.9359
-8.22553
-8.36116
-8.62261
-9.01473
-9.50215
-10.0444
-10.6081
-11.1682
-11.7142
-12.2472
-12.7758
-13.3079
-13.8525
-14.4165
-15.0047
-15.6227
-16.2769
-16.9766
-17.735
-18.5698
-19.4993
-20.5375
-21.6916
-22.9657
-24.3614
-25.8797
-27.5184
-29.2751
-31.1548
-33.168
-35.3301
-37.6596
-40.1745
-42.889
-45.8106
-48.9362
-52.2473
-55.7068
-59.2577
-62.8245
-66.3152
-69.6261
-72.6493
-75.283
-77.4424
-79.0661
-80.12
-80.5941
-80.5112
-79.9284
-78.9253
-77.588
-75.996
-74.218
-72.3143
-70.3383
-68.3327
-66.3202
-64.2995
-62.2504
-60.1485
-57.9762
-55.724
-53.388
-50.9654
-48.4515
-45.841
-43.1328
-40.3356
-37.468
-34.5555
-31.6265
-28.713
-25.8487
-23.0669
-20.3974
-17.8652
-15.4879
-13.2734
-11.2185
-9.30782
-7.51443
-5.80333
-4.13638
-2.47818
-0.804497
0.889389
2.58712
4.25951
5.8779
7.42293
8.88396
10.2528
11.519
12.67
13.6959
14.5921
15.3613
16.0115
16.5541
17.0013
17.365
17.6558
17.8837
18.0575
18.1853
18.2747
18.3322
18.3641
18.3755
18.3709
18.3538
18.3272
18.2934
18.2543
18.2117
18.1669
18.121
18.0751
18.0296
17.9852
17.9421
17.9005
17.8605
17.8223
17.7859
17.7514
17.7189
17.6884
17.6598
17.633
17.608
17.5846
17.5628
17.5425
17.5234
17.5056
17.489
17.4734
17.4589
17.4454
17.4327
17.4208
17.4098
17.3995
17.3899
17.381
17.3727
17.3649
17.3576
17.3508
17.3444
17.3384
17.3328
17.3275
17.3225
17.3179
17.3135
17.3093
17.3052
17.3013
17.2974
17.2935
17.2895
17.2853
17.2808
17.2758
17.2702
17.2638
17.2562
17.247
17.2356
17.2214
17.2031
17.1794
17.1484
17.1077
17.0542
16.9845
16.8946
-6.38084
-6.5062
-6.76913
-7.17476
-7.69452
-8.28913
-8.924
-9.57018
-10.208
-10.8279
-11.4268
-12.0038
-12.5598
-13.0972
-13.6223
-14.146
-14.6836
-15.255
-15.8849
-16.599
-17.4208
-18.3652
-19.4408
-20.6523
-22.0022
-23.49
-25.1109
-26.8594
-28.7332
-30.7321
-32.8573
-35.1149
-37.5153
-40.069
-42.7831
-45.6584
-48.6848
-51.8371
-55.0741
-58.3379
-61.5563
-64.6458
-67.5177
-70.0868
-72.2797
-74.0383
-75.3256
-76.1219
-76.4341
-76.2974
-75.7679
-74.9105
-73.7856
-72.4436