/*--------------------------------*- C++ -*----------------------------------*\
  =========                 |
  \\      /  F ield         | OpenFOAM: The Open Source CFD Toolbox
   \\    /   O peration     | Website:  https://openfoam.org
    \\  /    A nd           | Version:  9
     \\/     M anipulation  |
\*---------------------------------------------------------------------------*/
FoamFile
{
    format      ascii;
    class       volScalarField;
    location    "0.035";
    object      s_0;
}
// * * * * * * * * * * * * * * * * * * * * * * * * * * * * * * * * * * * * * //

dimensions      [0 0 0 0 0 0 0];

internalField   nonuniform List<scalar> 
12225
(
1
1
1
1
1
1
1
1
1
1
1
1
1
1
1
1
1
0.999972
1
1
1
1
1
1
1
1
1
1
1
1
1
1
1
1
1
0.999998
1
1
1
1
1
1
1
1
1
1
1
1
1
1
1
1
1
1
1
1
1
1
1
1
1
1
1
1
1
1
1
1
1
1
1
1
1
1
1
1
1
1
1
1
1
1
1
1
1
1
1
1
1
1
1
1
1
1
1
1
1
1
1
1
1
1
1
1
1
1
1
1
1
1
1
1
1
1
1
1
1
1
1
1
1
1
1
1
1
1
1
1
1
1
1
1
1
1
1
1
1
1
1
1
1
1
1
1
1
1
1
1
1
1
1
1
1
1
1
1
1
1
1
1
1
1
1
1
1
1
1
1
1
1
1
1
1
1
1
1
1
1
1
1
1
1
1
1
1
1
1
1
1
1
1
1
1
1
1
1
1
1
1
1
1
1
1
1
1
1
1
1
1
1
1
1
1
1
1
1
1
1
1
1
1
1
1
1
1
1
1
1
1
1
1
1
1
1
1
1
1
1
1
1
1
1
1
1
1
1
1
1
1
1
1
1
1
1
1
1
1
1
1
1
1
1
1
1
1
1
1
1
1
1
1
1
1
1
1
1
1
1
1
1
1
1
1
1
1
1
1
1
1
1
1
1
1
1
1
1
1
1
1
1
1
1
1
1
1
1
1
1
1
1
1
1
1
1
1
1
1
1
1
1
1
1
1
1
1
1
1
1
1
1
1
1
1
1
1
1
1
1
1
1
1
1
1
1
1
1
1
1
1
1
1
1
1
1
1
1
1
1
1
1
1
1
1
1
1
1
1
1
1
1
1
1
1
1
1
1
1
1
1
1
1
1
1
1
1
1
1
1
1
1
1
1
1
1
1
1
1
1
1
1
1
1
1
1
1
1
1
1
1
1
1
1
1
1
1
1
1
1
1
1
1
1
1
1
1
1
1
1
1
1
1
1
1
1
1
1
1
1
1
1
1
1
1
1
1
1
1
1
1
1
1
1
1
1
1
1
1
1
1
1
1
1
1
1
1
1
1
1
1
1
1
1
1
1
1
1
1
1
1
1
1
1
1
1
1
1
1
1
1
1
1
1
1
1
1
1
1
1
1
1
1
1
1
1
1
1
1
1
1
1
1
1
1
1
1
1
1
1
1
1
1
1
1
1
1
1
1
1
1
1
1
1
1
1
1
1
1
1
1
1
0.189812
0.199188
0.229077
0.261033
0.287376
0.330997
0.370696
0.413771
0.432554
0.467147
0.489207
0.506846
0.515699
0.523105
0.524952
0.524336
0.522408
0.518132
0.512441
0.504923
0.496335
0.490867
0.479416
0.470811
0.455806
0.437464
0.399811
0.201571
0.119552
0.192204
0.24067
0.281697
0.316678
0.349501
0.381022
0.421718
0.448458
0.445091
0.420803
0.343804
0.227651
0.179086
0.186059
0.253945
0.618147
0.823032
0.831022
0.832182
0.83456
0.836893
0.838919
0.840066
0.840516
0.840779
0.841166
0.841725
0.842115
0.842333
0.842668
0.842765
0.84279
0.842806
0.842831
0.842897
0.843042
0.843293
0.843633
0.844016
0.844448
0.845082
0.845986
0.847041
0.84796
0.848817
0.849766
0.850922
0.852154
0.853358
0.854559
0.855853
0.857269
0.858758
0.860288
0.861812
0.863234
0.864606
0.86594
0.86715
0.868242
0.869232
0.870183
0.871072
0.871842
0.872411
0.872873
0.873129
0.873255
0.873168
0.872743
0.871987
0.870907
0.869346
0.867372
0.865349
0.863796
0.862576
0.86161
0.860915
0.86036
0.859832
0.85918
0.85821
0.857044
0.855866
0.854888
0.854254
0.853928
0.85386
0.85399
0.854255
0.854315
0.854267
0.853898
0.852748
0.850124
0.843677
0.837081
0.832167
0.824006
0.809605
0.790182
0.766407
0.737581
0.7022
0.656796
0.598839
0.528942
0.45088
0.37023
0.292641
0.222653
0.163177
0.115409
0.0790218
0.0526015
0.034206
0.021831
0.0137145
0.00848458
0.00516419
0.00308842
0.00181321
0.00104488
0.000591302
0.000328908
0.000179994
9.69685e-05
5.14358e-05
2.68554e-05
1.37921e-05
6.96068e-06
3.44853e-06
1.67535e-06
7.97314e-07
3.71371e-07
1.69165e-07
7.53086e-08
3.27481e-08
1.39028e-08
5.76027e-09
2.3278e-09
9.17272e-10
3.52068e-10
1.31584e-10
4.777e-11
1.68374e-11
5.7284e-12
1.87622e-12
5.93413e-13
1.29982e-13
0.191564
0.190744
0.192625
0.190143
0.240097
0.326456
0.448684
0.530783
0.590227
0.618646
0.630922
0.636831
0.636823
0.635901
0.633528
0.631975
0.628746
0.626566
0.624053
0.618951
0.613856
0.60225
0.592208
0.571706
0.555225
0.520736
0.48626
0.42715
0.286301
0.215683
0.190891
0.180798
0.190188
0.263917
0.302772
0.38432
0.481077
0.52356
0.5273
0.497981
0.334495
0.320214
0.683433
0.766823
0.809838
0.830358
0.832003
0.833819
0.836031
0.837376
0.83801
0.838206
0.838149
0.837586
0.836519
0.83516
0.8336
0.832154
0.831339
0.830717
0.829399
0.82741
0.825552
0.824379
0.823635
0.822874
0.822364
0.822233
0.822272
0.823067
0.825195
0.827924
0.830315
0.832694
0.83579
0.839575
0.843592
0.84714
0.849843
0.852335
0.855277
0.858405
0.861291
0.864106
0.86715
0.870214
0.873031
0.875598
0.878145
0.880675
0.883113
0.885538
0.887886
0.890129
0.892277
0.893969
0.895745
0.8975
0.898975
0.900432
0.901917
0.903257
0.903992
0.903451
0.900034
0.893723
0.886443
0.880957
0.877427
0.875458
0.874739
0.874796
0.875496
0.876139
0.876225
0.875276
0.870807
0.864846
0.860712
0.858778
0.858489
0.859228
0.863497
0.874354
0.885294
0.895521
0.904842
0.913185
0.920888
0.927814
0.934149
0.940988
0.947029
0.949544
0.949661
0.948667
0.945091
0.933687
0.914156
0.898593
0.883945
0.856754
0.800831
0.714792
0.605388
0.486968
0.375484
0.280788
0.2039
0.143475
0.0977991
0.0646342
0.0414771
0.0258911
0.0157498
0.00935119
0.00542578
0.00307909
0.00170978
0.000929112
0.000493998
0.000256891
0.000130591
6.48609e-05
3.1456e-05
1.48894e-05
6.87509e-06
3.09603e-06
1.35902e-06
5.81521e-07
2.42356e-07
9.84298e-08
3.888e-08
1.49602e-08
5.57971e-09
2.02576e-09
7.0704e-10
2.39563e-10
7.7335e-11
2.05422e-11
0.192626
0.189826
0.195402
0.251539
0.390671
0.545164
0.620983
0.651443
0.660922
0.659791
0.656537
0.650936
0.643868
0.635988
0.628297
0.621899
0.615935
0.611728
0.60959
0.607151
0.605905
0.602602
0.599918
0.59408
0.588988
0.577493
0.565365
0.543785
0.507272
0.425739
0.332754
0.256057
0.246638
0.254105
0.282242
0.359493
0.476628
0.528823
0.532643
0.507969
0.606831
0.741294
0.803891
0.820833
0.828067
0.830723
0.831828
0.833659
0.834335
0.834412
0.833768
0.832135
0.83034
0.827958
0.824431
0.820119
0.815939
0.812437
0.809523
0.807241
0.805366
0.803215
0.800394
0.797052
0.795068
0.794469
0.794306
0.794361
0.79524
0.797587
0.800976
0.804592
0.80799
0.811143
0.814318
0.817663
0.820823
0.823773
0.826863
0.830295
0.833793
0.837019
0.840034
0.843323
0.847049
0.851056
0.855437
0.860103
0.864694
0.869574
0.874556
0.878982
0.882829
0.886959
0.890535
0.89346
0.896184
0.898127
0.899752
0.901051
0.902491
0.904791
0.908703
0.914481
0.920625
0.924131
0.924654
0.918162
0.902849
0.889024
0.880459
0.877099
0.876688
0.877871
0.882368
0.887225
0.89018
0.890877
0.889502
0.880819
0.86622
0.856512
0.851784
0.850287
0.850176
0.85073
0.853762
0.863393
0.875191
0.886679
0.898365
0.910804
0.924001
0.937324
0.950284
0.962396
0.972703
0.980103
0.984174
0.985524
0.985567
0.984866
0.981823
0.973498
0.964354
0.951311
0.924272
0.853528
0.691618
0.524978
0.382923
0.271397
0.187469
0.126153
0.0827364
0.0529309
0.0330617
0.020176
0.0120331
0.00701326
0.00399291
0.00221931
0.00120333
0.000636053
0.000327542
0.00016426
8.01859e-05
3.81015e-05
1.76151e-05
7.92619e-06
3.46851e-06
1.47733e-06
6.11263e-07
2.46165e-07
9.60245e-08
3.64468e-08
1.3306e-08
4.7194e-09
1.58938e-09
4.97865e-10
0.162687
0.181622
0.300911
0.524409
0.631044
0.669958
0.677801
0.675677
0.66864
0.653746
0.630226
0.605443
0.57673
0.550376
0.532851
0.517075
0.505213
0.497387
0.491563
0.492765
0.497517
0.507203
0.52565
0.544424
0.562108
0.566181
0.564138
0.558774
0.549482
0.528981
0.493525
0.430267
0.392891
0.393808
0.415055
0.527023
0.627322
0.585475
0.60567
0.68694
0.777268
0.809787
0.821743
0.825571
0.827599
0.828872
0.830786
0.831603
0.831595
0.831503
0.831025
0.829956
0.828208
0.825589
0.82199
0.817635
0.812919
0.808092
0.803141
0.797626
0.790202
0.784172
0.782537
0.782052
0.781969
0.782295
0.783926
0.787007
0.790768
0.794684
0.79876
0.802369
0.805203
0.807495
0.808665
0.808782
0.808469
0.807771
0.806966
0.806127
0.805174
0.804237
0.802969
0.802018
0.802269
0.805783
0.812519
0.820673
0.828173
0.837481
0.848912
0.85967
0.868758
0.878641
0.886287
0.892841
0.898348
0.903335
0.906276
0.906638
0.903794
0.899983
0.897988
0.898346
0.903916
0.918008
0.932659
0.939846
0.940906
0.935576
0.91379
0.890572
0.878488
0.874571
0.874343
0.876371
0.885177
0.895252
0.900304
0.901357
0.900358
0.893427
0.876004
0.862857
0.855099
0.851386
0.850234
0.850228
0.851231
0.856457
0.872358
0.889123
0.902822
0.914523
0.925745
0.937475
0.949661
0.961539
0.972203
0.981062
0.987817
0.992221
0.994338
0.994862
0.994803
0.994234
0.992235
0.986609
0.973044
0.942266
0.858641
0.680771
0.507527
0.363821
0.253077
0.171651
0.113648
0.0734477
0.0463229
0.0284942
0.0170787
0.00996368
0.00565159
0.00311407
0.00166573
0.000864746
0.000435624
0.000213007
0.000101099
4.66046e-05
2.08606e-05
9.07463e-06
3.83189e-06
1.57292e-06
6.25616e-07
2.41764e-07
9.01023e-08
3.25457e-08
1.12533e-08
3.64126e-09
0.164675
0.390471
0.611803
0.677533
0.693264
0.690849
0.681783
0.660431
0.616371
0.565934
0.518736
0.493122
0.473769
0.459681
0.452378
0.440814
0.433578
0.42423
0.420219
0.41601
0.413655
0.415033
0.419835
0.430966
0.452568
0.496938
0.532463
0.546669
0.546006
0.541222
0.529994
0.503945
0.467284
0.454955
0.478698
0.641411
0.677198
0.692463
0.7533
0.790775
0.811939
0.819272
0.821978
0.823353
0.823834
0.826091
0.82935
0.830191
0.830302
0.83024
0.829858
0.828888
0.827054
0.824136
0.820083
0.815022
0.808998
0.801745
0.792192
0.781467
0.777867
0.776843
0.776686
0.777097
0.779136
0.78328
0.789053
0.795967
0.803473
0.808475
0.809751
0.809935
0.809718
0.808584
0.805724
0.800448
0.792625
0.782489
0.770439
0.758373
0.749165
0.745309
0.745242
0.748395
0.755409
0.765296
0.776946
0.788636
0.798962
0.80962
0.822019
0.834728
0.846939
0.860161
0.873398
0.886051
0.897583
0.907394
0.916349
0.924776
0.931264
0.931889
0.922
0.905591
0.896248
0.895994
0.904678
0.927813
0.943912
0.947599
0.946157
0.934174
0.904511
0.885369
0.877437
0.875962
0.877056
0.884198
0.897048
0.904272
0.906456
0.906337
0.903654
0.891954
0.875907
0.864258
0.857057
0.853582
0.852605
0.852682
0.854152
0.861574
0.88337
0.904069
0.919411
0.93134
0.941709
0.951546
0.9611
0.970174
0.978337
0.985208
0.990547
0.994282
0.996492
0.997403
0.99753
0.997354
0.996439
0.993478
0.985233
0.964447
0.909614
0.75738
0.572545
0.415524
0.291576
0.198824
0.13211
0.0855241
0.0538476
0.0329148
0.0195015
0.0111862
0.00620743
0.00333177
0.00172987
0.00086929
0.000422979
0.000199454
9.11671e-05
4.04291e-05
1.73859e-05
7.25717e-06
2.93489e-06
1.15133e-06
4.3623e-07
1.5987e-07
5.63716e-08
1.86535e-08
0.554843
0.659461
0.703506
0.704648
0.698515
0.676371
0.629311
0.555954
0.510618
0.483438
0.464325
0.450868
0.441106
0.429224
0.423528
0.412065
0.402446
0.397028
0.388535
0.383925
0.378694
0.374918
0.375545
0.378692
0.38636
0.402161
0.438948
0.502507
0.531946
0.536195
0.532277
0.520698
0.483884
0.47479
0.621521
0.72127
0.736015
0.775212
0.800716
0.812466
0.817278
0.818843
0.819422
0.819268
0.820388
0.823619
0.827778
0.829023
0.829199
0.829121
0.828602
0.827295
0.824876
0.821059
0.81561
0.808269
0.798425
0.785379
0.778015
0.775578
0.774991
0.775081
0.776506
0.780228
0.78593
0.792379
0.799496
0.807194
0.809521
0.809549
0.808594
0.806635
0.803852
0.799536
0.792098
0.779985
0.761783
0.736669
0.719828
0.716585
0.716826
0.72018
0.727646
0.737284
0.750317
0.765063
0.780469
0.795697
0.808523
0.818941
0.828309
0.837546
0.847325
0.85784
0.868998
0.880431
0.892253
0.90368
0.914546
0.925154
0.935459
0.94503
0.952246
0.95197
0.934703
0.908337
0.900224
0.904346
0.923722
0.942967
0.947636
0.946083
0.934278
0.90857
0.89183
0.884586
0.883241
0.884366
0.892112
0.902939
0.907998
0.909133
0.908721
0.905278
0.893632
0.880588
0.870079
0.862726
0.858754
0.857442
0.857408
0.858399
0.864077
0.885833
0.912692
0.931137
0.943561
0.952799
0.96068
0.967981
0.974828
0.981083
0.986564
0.991079
0.994474
0.996759
0.998059
0.998571
0.99863
0.998498
0.997817
0.995551
0.988944
0.970849
0.920552
0.774579
0.589244
0.431057
0.30431
0.207795
0.137369
0.0878793
0.0543422
0.0324358
0.01867
0.0103617
0.00554658
0.00286598
0.00143063
0.000690652
0.000322667
0.000146025
6.40189e-05
2.72079e-05
1.11994e-05
4.46647e-06
1.72181e-06
6.41388e-07
2.30551e-07
7.80339e-08
0.700334
0.718789
0.716061
0.703567
0.665739
0.590149
0.53233
0.49482
0.472206
0.455954
0.44072
0.429518
0.416337
0.405653
0.399142
0.387737
0.378284
0.369377
0.35551
0.346735
0.338613
0.335512
0.336732
0.340536
0.348776
0.367586
0.391903
0.44024
0.496095
0.522055
0.528279
0.518811
0.482585
0.557581
0.723117
0.763516
0.782182
0.803933
0.8126
0.815902
0.816873
0.817046
0.816842
0.817039
0.818002
0.820856
0.825156
0.826935
0.827195
0.827074
0.826292
0.824332
0.820565
0.81422
0.804393
0.78941
0.777833
0.773628
0.772052
0.771614
0.771565
0.772203
0.773845
0.776546
0.780155
0.781335
0.781424
0.780178
0.776617
0.77075
0.763811
0.75738
0.752288
0.747023
0.739645
0.729942
0.715502
0.702595
0.700951
0.702727
0.708742
0.718998
0.731809
0.751812
0.781775
0.814307
0.840925
0.858996
0.872317
0.88427
0.895196
0.901952
0.904842
0.90531
0.905326
0.906189
0.909537
0.914861
0.920875
0.927498
0.935469
0.944762
0.954704
0.962783
0.964313
0.957127
0.927735
0.9116
0.912821
0.92736
0.941984
0.944632
0.941418
0.92449
0.905521
0.89557
0.892291
0.892192
0.894461
0.903005
0.908999
0.91082
0.910793
0.909015
0.900724
0.88884
0.879851
0.873588
0.869944
0.868432
0.868152
0.868313
0.869593
0.87578
0.899345
0.929112
0.948807
0.960561
0.967792
0.973095
0.977764
0.982193
0.986355
0.990089
0.993246
0.995721
0.997471
0.998554
0.999096
0.999255
0.999246
0.999078
0.998371
0.996071
0.989177
0.969263
0.910035
0.74782
0.565966
0.411801
0.288176
0.193947
0.125462
0.0779764
0.0465595
0.0267205
0.0147516
0.00784238
0.00401943
0.00198862
0.000950733
0.000439683
0.000196793
8.52955e-05
3.5791e-05
1.454e-05
5.71198e-06
2.1679e-06
7.95383e-07
2.75782e-07
0.719393
0.724901
0.711313
0.663804
0.589155
0.533888
0.496578
0.470137
0.453617
0.434507
0.418235
0.410225
0.404051
0.397878
0.389428
0.376733
0.357556
0.334221
0.314288
0.301307
0.28975
0.289496
0.292565
0.300329
0.311995
0.323134
0.345562
0.413927
0.485768
0.519317
0.522117
0.506933
0.506192
0.694168
0.76748
0.789978
0.804707
0.81223
0.814776
0.815482
0.814923
0.81433
0.814408
0.814332
0.814677
0.815894
0.81871
0.821383
0.821799
0.821672
0.821002
0.818652
0.811676
0.799454
0.781958
0.770704
0.766033
0.764051
0.763154
0.762633
0.76107
0.758334
0.753621
0.744488
0.732515
0.717212
0.696663
0.677046
0.663331
0.654391
0.648702
0.6454
0.644005
0.644527
0.64618
0.650459
0.659398
0.668202
0.679761
0.69035
0.704418
0.721519
0.744996
0.778571
0.815093
0.844463
0.863137
0.875768
0.886442
0.899062
0.915134
0.929833
0.942771
0.953454
0.96083
0.965125
0.966656
0.966303
0.963945
0.960426
0.956072
0.953287
0.956121
0.964331
0.970782
0.971538
0.966492
0.941154
0.92441
0.92441
0.935188
0.943446
0.943193
0.934232
0.914361
0.902925
0.898703
0.898241
0.899574
0.905777
0.911005
0.912663
0.912695
0.911528
0.905133
0.892188
0.883764
0.879971
0.879093
0.879301
0.880638
0.881992
0.883649
0.887291
0.898324
0.92458
0.948535
0.965928
0.976851
0.982917
0.986164
0.988233
0.990065
0.991996
0.993966
0.99577
0.997248
0.998341
0.999053
0.999444
0.999593
0.99961
0.999564
0.99931
0.998389
0.995452
0.98646
0.959455
0.873333
0.686774
0.510271
0.362292
0.246016
0.159784
0.0992839
0.0590616
0.033675
0.0184323
0.00970246
0.00492066
0.0024083
0.00113883
0.000520723
0.00023037
9.8624e-05
4.08574e-05
1.63714e-05
6.33878e-06
2.37522e-06
8.4402e-07
0.725177
0.724848
0.683699
0.619968
0.558352
0.511975
0.47913
0.453614
0.433345
0.419291
0.411485
0.407788
0.403712
0.396255
0.379878
0.347659
0.300599
0.261824
0.24291
0.233244
0.232142
0.23505
0.242687
0.258043
0.277394
0.302891
0.345718
0.424942
0.492981
0.517129
0.516178
0.514149
0.616049
0.758151
0.792418
0.805814
0.812411
0.814722
0.815171
0.814169
0.812017
0.811188
0.808971
0.807677
0.807392
0.807579
0.809745
0.813821
0.815119
0.815208
0.812856
0.805567
0.791452
0.773743
0.76121
0.755591
0.752848
0.750982
0.748897
0.743779
0.732711
0.715788
0.687252
0.645419
0.614029
0.591571
0.574989
0.56651
0.56023
0.557364
0.556463
0.559425
0.562863
0.571204
0.582834
0.592815
0.609405
0.625052
0.644201
0.663792
0.685188
0.709903
0.739375
0.775964
0.812212
0.83911
0.852799
0.857646
0.858035
0.865958
0.892126
0.919891
0.941191
0.956695
0.968193
0.977278
0.984025
0.98809
0.989837
0.989962
0.988861
0.985029
0.976778
0.971702
0.973785
0.977119
0.976934
0.970743
0.946956
0.934787
0.935222
0.943828
0.94783
0.945651
0.930891
0.913533
0.905956
0.904348
0.905069
0.909947
0.915099
0.916645
0.916626
0.915444
0.909522
0.896485
0.88762
0.883704
0.883013
0.883778
0.888624
0.894238
0.897217
0.90116
0.910584
0.930506
0.950551
0.967017
0.979004
0.986935
0.991718
0.994272
0.995379
0.995768
0.996163
0.99685
0.99769
0.998467
0.999064
0.999462
0.999689
0.999785
0.999801
0.999785
0.999675
0.999248
0.997811
0.993231
0.978791
0.93301
0.788838
0.590885
0.42125
0.285932
0.184936
0.114131
0.06732
0.0380249
0.0206071
0.0107347
0.00538401
0.00260406
0.00121616
0.000549044
0.000239803
0.000101336
4.14273e-05
1.63709e-05
6.266e-06
2.28138e-06
0.727485
0.719263
0.660223
0.603697
0.544464
0.502506
0.469081
0.442767
0.427197
0.417414
0.413794
0.416232
0.412482
0.393455
0.351453
0.301079
0.255748
0.228578
0.212467
0.21064
0.216238
0.225124
0.238346
0.256695
0.278982
0.31116
0.369255
0.46146
0.506026
0.517635
0.521098
0.559036
0.729671
0.789102
0.805897
0.812589
0.815122
0.815655
0.815027
0.812755
0.808748
0.804664
0.801937
0.801283
0.801311
0.80174
0.802723
0.803777
0.803651
0.800505
0.794636
0.783168
0.76854
0.752992
0.745501
0.741869
0.739159
0.735818
0.725887
0.703065
0.662876
0.612511
0.57583
0.555848
0.538726
0.530559
0.522956
0.515416
0.509413
0.5059
0.504397
0.507011
0.511461
0.520943
0.534398
0.547658
0.563135
0.579612
0.595018
0.61083
0.630201
0.65511
0.685288
0.720619
0.760974
0.790178
0.797847
0.789843
0.767398
0.7594
0.801137
0.865139
0.911993
0.944169
0.964433
0.977103
0.985421
0.991037
0.994419
0.995969
0.99624
0.995911
0.994745
0.991225
0.985414
0.983007
0.982431
0.981089
0.970686
0.949491
0.942698
0.944267
0.951927
0.953673
0.949767
0.932948
0.919339
0.914315
0.91383
0.915842
0.921884
0.924581
0.924802
0.923958
0.919405
0.906306
0.895283
0.889502
0.887798
0.88796
0.890566
0.898033
0.904688
0.913059
0.925298
0.940456
0.95599
0.969665
0.980342
0.987922
0.99287
0.995821
0.997387
0.998091
0.998345
0.99844
0.998568
0.998865
0.999224
0.999522
0.999725
0.999841
0.999891
0.9999
0.999891
0.999834
0.999598
0.998775
0.996033
0.986968
0.956845
0.853189
0.645371
0.458316
0.30858
0.197504
0.120449
0.0701662
0.0391388
0.0209522
0.0107862
0.00534869
0.00255824
0.00118124
0.000526869
0.000227096
9.46362e-05
3.81249e-05
1.48901e-05
5.54797e-06
0.728343
0.709426
0.651484
0.5974
0.540257
0.49981
0.465572
0.440788
0.428969
0.426712
0.431059
0.432706
0.420248
0.387619
0.339626
0.285469
0.242594
0.224161
0.217758
0.216953
0.222669
0.232498
0.247395
0.268651
0.30008
0.353791
0.445743
0.4946
0.5127
0.523241
0.550859
0.685157
0.778947
0.80432
0.812332
0.815236
0.816004
0.815944
0.81465
0.811158
0.805855
0.799514
0.795638
0.794222
0.793541
0.792605
0.792044
0.791883
0.791562
0.788327
0.780683
0.768455
0.749201
0.733026
0.726282
0.72243
0.717466
0.705574
0.676449
0.624202
0.572171
0.54031
0.524741
0.514948
0.500813
0.480129
0.45971
0.43776
0.417687
0.403708
0.397456
0.395718
0.406485
0.422561
0.443509
0.46779
0.490851
0.514521
0.535127
0.555316
0.574142
0.592132
0.610544
0.628228
0.65105
0.679688
0.694684
0.690267
0.673517
0.669947
0.691664
0.780815
0.861638
0.91635
0.951225
0.972237
0.984267
0.991082
0.995035
0.997281
0.998301
0.998493
0.998315
0.997705
0.996338
0.993241
0.990328
0.988073
0.983409
0.966336
0.952044
0.949375
0.952761
0.960634
0.961793
0.957723
0.943005
0.932593
0.929026
0.928925
0.931684
0.93614
0.937181
0.936884
0.934675
0.925816
0.913412
0.905144
0.901156
0.90016
0.900381
0.90243
0.910403
0.92259
0.935088
0.948263
0.961194
0.97263
0.981797
0.988553
0.993175
0.996111
0.997825
0.998721
0.999122
0.999263
0.999312
0.999382
0.999518
0.999668
0.999794
0.99988
0.999929
0.999948
0.999951
0.999944
0.999905
0.999747
0.999175
0.997174
0.990194
0.965735
0.879096
0.668175
0.468864
0.311335
0.196297
0.117896
0.0676526
0.0371923
0.0196354
0.00997466
0.00488351
0.00230705
0.00105265
0.000464121
0.000197839
8.14953e-05
3.25091e-05
1.23815e-05
0.728602
0.70532
0.648875
0.596815
0.543314
0.505663
0.467768
0.451597
0.447552
0.446255
0.443997
0.440108
0.432985
0.409811
0.371693
0.328116
0.285965
0.261268
0.250067
0.246593
0.25068
0.264816
0.287683
0.325462
0.384294
0.454381
0.491446
0.508792
0.524134
0.549816
0.646111
0.76228
0.80031
0.811412
0.815015
0.816118
0.816294
0.815877
0.813899
0.809289
0.802858
0.794242
0.788922
0.786907
0.785663
0.785045
0.784907
0.784833
0.783037
0.778627
0.769617
0.748846
0.724782
0.71614
0.713534
0.711344
0.703809
0.678029
0.62198
0.56257
0.525823
0.507172
0.489574
0.463871
0.426975
0.382631
0.340396
0.30569
0.281467
0.270046
0.26624
0.271343
0.28414
0.306953
0.341818
0.384548
0.427332
0.465788
0.50093
0.532009
0.555314
0.574164
0.590818
0.604797
0.616567
0.628675
0.637373
0.640536
0.641274
0.643694
0.655883
0.712112
0.812557
0.884435
0.932191
0.962268
0.979908
0.989599
0.994713
0.997355
0.998678
0.99926
0.999372
0.999266
0.99893
0.99816
0.997094
0.995592
0.992357
0.98201
0.964648
0.956971
0.956576
0.962152
0.97003
0.971495
0.969234
0.959729
0.952098
0.949361
0.949205
0.950881
0.952443
0.952428
0.951434
0.94705
0.938797
0.932191
0.927791
0.925427
0.924569
0.924545
0.925451
0.930159
0.94259
0.955116
0.966355
0.976022
0.983779
0.989579
0.993643
0.996318
0.997961
0.998898
0.999374
0.999574
0.999649
0.999698
0.999758
0.999824
0.999884
0.999929
0.999958
0.999973
0.999977
0.999977
0.99997
0.999937
0.999805
0.999308
0.997481
0.990769
0.966162
0.876218
0.656613
0.452848
0.295304
0.182857
0.10792
0.0609051
0.0329592
0.0171423
0.00858526
0.00414616
0.00193309
0.000870756
0.000379236
0.000159698
6.51827e-05
2.54743e-05
0.728743
0.703934
0.650525
0.612483
0.569147
0.530339
0.496313
0.479629
0.468218
0.46196
0.458671
0.455203
0.449663
0.442248
0.427034
0.406998
0.386545
0.364902
0.354431
0.350211
0.355179
0.374959
0.403854
0.437004
0.469084
0.492814
0.509257
0.526351
0.555418
0.631324
0.745414
0.793546
0.809349
0.814262
0.815808
0.81623
0.816269
0.815587
0.813089
0.80806
0.80073
0.791109
0.783973
0.781138
0.779647
0.778606
0.77764
0.776733
0.774963
0.770748
0.756741
0.731295
0.712625
0.705438
0.69917
0.694104
0.675919
0.631342
0.571642
0.516027
0.479537
0.458676
0.432721
0.38736
0.333526
0.285017
0.249223
0.228184
0.218347
0.21526
0.216789
0.224506
0.237362
0.255588
0.28293
0.326069
0.379285
0.43097
0.476452
0.515749
0.547107
0.569354
0.586101
0.600542
0.612688
0.622803
0.629317
0.632155
0.633741
0.636705
0.644736
0.675702
0.76371
0.843674
0.902962
0.94419
0.970223
0.98508
0.992879
0.996745
0.998563
0.99935
0.999661
0.999728
0.999675
0.999462
0.999132
0.998674
0.997715
0.994922
0.984277
0.970821
0.9658
0.966028
0.97222
0.979049
0.980736
0.980197
0.976709
0.97255
0.97042
0.969735
0.969517
0.969227
0.96833
0.964746
0.959473
0.956629
0.955612
0.955352
0.955047
0.95412
0.953426
0.953478
0.954981
0.961885
0.972392
0.980702
0.987028
0.99163
0.99482
0.996935
0.998272
0.999065
0.999496
0.999705
0.999799
0.999849
0.999886
0.999919
0.999946
0.999966
0.99998
0.999987
0.99999
0.99999
0.999989
0.999981
0.999947
0.999807
0.999266
0.997181
0.989193
0.958966
0.846029
0.613501
0.414272
0.264509
0.160539
0.09298
0.0515561
0.0274417
0.0140515
0.0069333
0.00330108
0.00151805
0.000674913
0.000290178
0.000120952
4.83709e-05
0.729048
0.704248
0.666548
0.643544
0.597747
0.558354
0.532128
0.509574
0.496074
0.48644
0.480055
0.474321
0.470591
0.466324
0.462713
0.455703
0.449634
0.44593
0.444219
0.443953
0.449695
0.458941
0.471929
0.485119
0.500029
0.513669
0.534653
0.567594
0.639791
0.737498
0.786133
0.805812
0.812634
0.814894
0.815777
0.816045
0.815826
0.814569
0.811294
0.80585
0.798269
0.788082
0.778645
0.774954
0.773743
0.773338
0.772748
0.77138
0.769336
0.763421
0.748802
0.723506
0.700802
0.691058
0.687379
0.679464
0.655783
0.609883
0.544162
0.48714
0.455857
0.43353
0.391108
0.333974
0.279335
0.238174
0.214597
0.202881
0.19845
0.197975
0.201313
0.208699
0.222491
0.242186
0.265288
0.302695
0.357871
0.416661
0.467143
0.509275
0.544267
0.569619
0.587121
0.600603
0.612651
0.623121
0.629928
0.632695
0.633905
0.636178
0.642032
0.658994
0.716048
0.789755
0.856878
0.912887
0.952404
0.976208
0.988882
0.99507
0.997931
0.999179
0.999669
0.999841
0.99988
0.999856
0.99975
0.999588
0.999344
0.9988
0.99718
0.991396
0.982286
0.977731
0.977612
0.981834
0.986805
0.988233
0.988225
0.987374
0.986236
0.985448
0.984868
0.984437
0.98386
0.982558
0.978617
0.974996
0.973884
0.974026
0.975325
0.97599
0.975885
0.975385
0.975341
0.976075
0.979981
0.986587
0.991414
0.994664
0.996759
0.998074
0.998885
0.999374
0.999654
0.999804
0.999881
0.999922
0.999948
0.999966
0.999978
0.999987
0.999992
0.999995
0.999996
0.999996
0.999996
0.999994
0.999983
0.999939
0.999757
0.999026
0.996105
0.984622
0.940489
0.782104
0.546745
0.359879
0.224582
0.133448
0.0757884
0.0412645
0.0215928
0.01088
0.00528708
0.00248068
0.00112509
0.000493488
0.000209856
8.57658e-05
0.730426
0.709437
0.686693
0.663115
0.625811
0.600343
0.573835
0.5518
0.535643
0.522664
0.513916
0.506118
0.50086
0.494684
0.490592
0.487059
0.484782
0.483387
0.482987
0.485223
0.489422
0.495069
0.505133
0.517212
0.533709
0.557623
0.600457
0.666027
0.740259
0.782101
0.801834
0.810021
0.813143
0.814575
0.815046
0.814632
0.813217
0.810868
0.807251
0.802323
0.794815
0.785422
0.775994
0.769782
0.767256
0.766414
0.766291
0.765731
0.764105
0.757947
0.742784
0.717648
0.692074
0.682988
0.677478
0.669765
0.650164
0.606729
0.545069
0.479608
0.431048
0.39788
0.361037
0.313342
0.266532
0.230193
0.207925
0.196349
0.194288
0.195231
0.198322
0.20502
0.218844
0.241754
0.265381
0.299156
0.353241
0.415201
0.469922
0.512275
0.550523
0.584117
0.605406
0.614837
0.622085
0.630439
0.637305
0.64007
0.640315
0.640549
0.642868
0.651141
0.675337
0.720642
0.786853
0.861034
0.921235
0.960307
0.981756
0.992149
0.996777
0.998742
0.999538
0.999832
0.999927
0.999948
0.999936
0.999883
0.999805
0.999698
0.99947
0.998855
0.996848
0.992711
0.989563
0.988793
0.990086
0.99269
0.993476
0.993497
0.993288
0.99324
0.993222
0.993173
0.993045
0.992741
0.991921
0.989794
0.988243
0.987783
0.987837
0.988309
0.988452
0.988347
0.988197
0.988266
0.98898
0.991794
0.994983
0.997074
0.998337
0.999057
0.999461
0.99969
0.999822
0.999897
0.999939
0.999963
0.999977
0.999986
0.999992
0.999995
0.999997
0.999998
0.999999
0.999999
0.999999
0.999998
0.999994
0.999978
0.999908
0.999618
0.998417
0.993536
0.974168
0.899607
0.684068
0.463644
0.297422
0.18124
0.105372
0.0586556
0.0313487
0.016121
0.0079907
0.00382278
0.00176737
0.000790185
0.000342488
0.000142849
0.732218
0.715121
0.697815
0.684331
0.669258
0.6512
0.629305
0.614935
0.602816
0.592604
0.586099
0.578502
0.57314
0.569321
0.564016
0.558273
0.555461
0.553587
0.552852
0.553329
0.555293
0.562279
0.577063
0.595328
0.622059
0.661953
0.706586
0.751569
0.783005
0.799088
0.807009
0.810603
0.812591
0.813168
0.813032
0.811217
0.809323
0.807181
0.803849
0.798981
0.792031
0.783324
0.774689
0.768623
0.764398
0.761671
0.760171
0.759332
0.757379
0.751969
0.739418
0.717946
0.691669
0.673238
0.664241
0.659621
0.647314
0.614106
0.557262
0.491745
0.437633
0.399507
0.365184
0.323592
0.28121
0.246592
0.224568
0.20977
0.205151
0.206345
0.210493
0.218735
0.233369
0.268453
0.305906
0.33955
0.390837
0.456907
0.515522
0.55556
0.580993
0.606893
0.630584
0.64457
0.648076
0.648731
0.651181
0.652268
0.651412
0.648946
0.647976
0.649193
0.654011
0.664428
0.690656
0.77112
0.86717
0.931873
0.968699
0.986844
0.994817
0.998043
0.999289
0.999756
0.999918
0.999968
0.999977
0.999972
0.999944
0.999911
0.999875
0.999802
0.999611
0.99899
0.99761
0.996441
0.995917
0.99602
0.996832
0.99732
0.997449
0.997484
0.99748
0.997449
0.997377
0.997261
0.997018
0.996426
0.995865
0.995589
0.995524
0.995494
0.995421
0.995214
0.995052
0.995041
0.995205
0.9961
0.997597
0.998623
0.999241
0.999585
0.999768
0.999866
0.999921
0.999953
0.999972
0.999984
0.999991
0.999995
0.999997
0.999998
0.999999
1
1
1
1
0.999999
0.999998
0.999991
0.99996
0.99983
0.999277
0.99697
0.987581
0.95057
0.811011
0.570438
0.375884
0.234749
0.139647
0.0794353
0.0433406
0.022736
0.0114899
0.00560207
0.0026389
0.00120201
0.000530699
0.000225748
0.735034
0.717323
0.708403
0.707629
0.706488
0.702815
0.697638
0.691698
0.689487
0.688206
0.687295
0.68645
0.684514
0.682114
0.680969
0.679913
0.677422
0.674401
0.671908
0.670944
0.670879
0.675924
0.685677
0.699078
0.71792
0.740918
0.765654
0.786113
0.796603
0.803701
0.807448
0.810039
0.811095
0.811316
0.810411
0.808428
0.806941
0.805032
0.801972
0.797411
0.790744
0.781772
0.772893
0.767335
0.7639
0.760723
0.757936
0.756102
0.753692
0.749371
0.740105
0.720795
0.694864
0.674355
0.659153
0.649384
0.641528
0.625182
0.588609
0.524516
0.464591
0.417243
0.382227
0.348186
0.315622
0.287379
0.269237
0.252853
0.24527
0.246847
0.252981
0.265349
0.289881
0.327773
0.36615
0.41544
0.474328
0.529694
0.569709
0.597683
0.618545
0.632068
0.64443
0.657227
0.666263
0.669002
0.668835
0.667723
0.664711
0.658602
0.653647
0.651685
0.652098
0.655181
0.663099
0.690389
0.79052
0.890456
0.948673
0.978245
0.991525
0.996905
0.998916
0.999632
0.999881
0.999963
0.999986
0.999989
0.999986
0.999971
0.999958
0.999946
0.999921
0.999853
0.999611
0.999178
0.998856
0.99872
0.998729
0.998886
0.999037
0.999131
0.999172
0.999174
0.999161
0.999122
0.999026
0.998846
0.998678
0.998588
0.998557
0.998523
0.998425
0.998274
0.998194
0.998193
0.998296
0.998732
0.99922
0.999547
0.999746
0.999859
0.999918
0.99995
0.999969
0.999981
0.999988
0.999993
0.999996
0.999998
0.999999
1
1
1
1
1
1
1
0.999999
0.999996
0.99998
0.999914
0.999628
0.998409
0.993351
0.972994
0.893936
0.672528
0.454072
0.290337
0.176533
0.102514
0.057048
0.0305027
0.0157032
0.00779657
0.00373893
0.00173364
0.000779003
0.000337651
0.736962
0.722616
0.716376
0.717198
0.722266
0.726263
0.72761
0.729573
0.734178
0.738465
0.741245
0.745433
0.748931
0.751687
0.753231
0.753698
0.751597
0.749034
0.745761
0.744178
0.743464
0.744635
0.747576
0.752556
0.763467
0.7745
0.785648
0.793502
0.799373
0.803689
0.806869
0.808537
0.808893
0.808029
0.806047
0.804028
0.802802
0.801472
0.799312
0.795914
0.790362
0.782102
0.773244
0.766987
0.763248
0.760332
0.75765
0.755453
0.753155
0.748831