/*--------------------------------*- C++ -*----------------------------------*\
  =========                 |
  \\      /  F ield         | OpenFOAM: The Open Source CFD Toolbox
   \\    /   O peration     | Website:  https://openfoam.org
    \\  /    A nd           | Version:  9
     \\/     M anipulation  |
\*---------------------------------------------------------------------------*/
FoamFile
{
    format      ascii;
    class       volVectorField;
    location    "0.035";
    object      UMean;
}
// * * * * * * * * * * * * * * * * * * * * * * * * * * * * * * * * * * * * * //

dimensions      [0 1 -1 0 0 0 0];

internalField   nonuniform List<vector> 
12225
(
(9.8559 0.0435747 0)
(9.56031 0.0601362 0)
(9.25849 0.0588655 0)
(8.9515 0.0578605 0)
(8.64779 0.0575045 0)
(8.35312 0.0568947 0)
(8.0675 0.0560179 0)
(7.79113 0.0553707 0)
(7.51941 0.0548829 0)
(7.25516 0.0548574 0)
(6.98964 0.0548648 0)
(6.73325 0.0557236 0)
(6.4636 0.0571307 0)
(6.20858 0.0601702 0)
(5.91208 0.0656787 0)
(5.6462 0.0722965 0)
(5.27976 0.0901171 0)
(4.97854 0.105204 0)
(10.0235 0.0533858 0)
(10.0818 0.0753013 0)
(10.1187 0.0747113 0)
(10.1304 0.0761812 0)
(10.1237 0.0799968 0)
(10.1052 0.083693 0)
(10.0766 0.0867568 0)
(10.0403 0.0899066 0)
(9.99472 0.0932868 0)
(9.94268 0.0974538 0)
(9.87983 0.101975 0)
(9.81169 0.107886 0)
(9.72848 0.114827 0)
(9.64167 0.124563 0)
(9.53079 0.137768 0)
(9.41853 0.155858 0)
(9.26696 0.186252 0)
(9.11638 0.226713 0)
(10.0019 0.0316926 0)
(10.0328 0.0551632 0)
(10.0593 0.0582459 0)
(10.0744 0.0610787 0)
(10.0813 0.0665522 0)
(10.0848 0.0722223 0)
(10.0863 0.0770066 0)
(10.0861 0.0816999 0)
(10.0834 0.0866107 0)
(10.0781 0.0925758 0)
(10.0692 0.0992665 0)
(10.0566 0.107843 0)
(10.0394 0.11816 0)
(10.0173 0.132119 0)
(9.9903 0.150712 0)
(9.95757 0.176426 0)
(9.92289 0.214473 0)
(9.88627 0.265863 0)
(10.0023 0.0277188 0)
(10.0236 0.0572516 0)
(10.0442 0.0631667 0)
(10.0564 0.0659872 0)
(10.0615 0.0714732 0)
(10.0633 0.0777099 0)
(10.0635 0.0832129 0)
(10.0622 0.0883762 0)
(10.0588 0.0938745 0)
(10.0533 0.100367 0)
(10.0453 0.108105 0)
(10.0346 0.117678 0)
(10.021 0.129655 0)
(10.0046 0.145094 0)
(9.98552 0.165554 0)
(9.96569 0.192982 0)
(9.94668 0.229936 0)
(9.93491 0.27734 0)
(10.0017 0.025246 0)
(10.0163 0.0510449 0)
(10.0321 0.0590743 0)
(10.0427 0.0621383 0)
(10.047 0.0670214 0)
(10.048 0.0734238 0)
(10.0475 0.0797142 0)
(10.0457 0.0857546 0)
(10.0419 0.0920833 0)
(10.0359 0.0994706 0)
(10.0273 0.108297 0)
(10.0164 0.119166 0)
(10.0029 0.132609 0)
(9.98752 0.14965 0)
(9.97035 0.171431 0)
(9.95378 0.199504 0)
(9.93847 0.234541 0)
(9.92971 0.276746 0)
(9.98248 0.0170805 0)
(9.99082 0.0442833 0)
(10.004 0.0564449 0)
(10.0139 0.0619089 0)
(10.0179 0.067626 0)
(10.0184 0.0746728 0)
(10.0179 0.081879 0)
(10.0169 0.0889119 0)
(10.0146 0.0962739 0)
(10.0105 0.104718 0)
(10.004 0.114691 0)
(9.9953 0.126725 0)
(9.9843 0.141281 0)
(9.97187 0.159298 0)
(9.95828 0.18149 0)
(9.94563 0.209048 0)
(9.93449 0.241674 0)
(9.92872 0.27954 0)
(9.96662 0.0237594 0)
(9.97526 0.0433665 0)
(9.98741 0.0548299 0)
(9.99771 0.0608281 0)
(10.0033 0.0663692 0)
(10.0052 0.0729953 0)
(10.0053 0.0801171 0)
(10.0045 0.0874373 0)
(10.0023 0.0953584 0)
(9.9984 0.104568 0)
(9.99261 0.115525 0)
(9.98515 0.128709 0)
(9.97619 0.144468 0)
(9.96629 0.163529 0)
(9.95589 0.186248 0)
(9.94632 0.213418 0)
(9.9384 0.244407 0)
(9.93434 0.279328 0)
(10.0054 0.0119348 0)
(10.0133 0.0362761 0)
(10.0238 0.0502647 0)
(10.0328 0.0587623 0)
(10.0379 0.0658813 0)
(10.0394 0.0733711 0)
(10.0387 0.0813514 0)
(10.0363 0.0897333 0)
(10.0323 0.0987702 0)
(10.0267 0.10897 0)
(10.0196 0.120757 0)
(10.0114 0.134599 0)
(10.0026 0.150864 0)
(9.99371 0.170144 0)
(9.98511 0.192669 0)
(9.97774 0.218891 0)
(9.97221 0.24816 0)
(9.96991 0.280366 0)
(9.98086 0.0165282 0)
(9.98436 0.0346154 0)
(9.99197 0.0479957 0)
(10.0003 0.057367 0)
(10.0058 0.0649383 0)
(10.0081 0.0726 0)
(10.0083 0.0809914 0)
(10.0074 0.0901174 0)
(10.0058 0.100005 0)
(10.0031 0.110961 0)
(9.99928 0.123347 0)
(9.99431 0.137633 0)
(9.98834 0.154178 0)
(9.98218 0.173492 0)
(9.97609 0.195691 0)
(9.97145 0.221052 0)
(9.96813 0.248887 0)
(9.96824 0.279032 0)
(9.99417 0.0151873 0)
(9.99557 0.0294059 0)
(9.9989 0.0437957 0)
(10.0039 0.0548417 0)
(10.0083 0.06365 0)
(10.0107 0.0720213 0)
(10.0114 0.0807223 0)
(10.0109 0.0900854 0)
(10.0097 0.100422 0)
(10.0078 0.112129 0)
(10.0049 0.125478 0)
(10.0012 0.14076 0)
(9.99669 0.158092 0)
(9.99212 0.177788 0)
(9.98777 0.19977 0)
(9.98479 0.224249 0)
(9.98313 0.250522 0)
(9.98438 0.27858 0)
(9.96976 0.0132206 0)
(9.97374 0.0300775 0)
(9.97854 0.0437907 0)
(9.98463 0.0544294 0)
(9.9905 0.0633504 0)
(9.99452 0.0720124 0)
(9.99628 0.0811595 0)
(9.99622 0.0911045 0)
(9.99489 0.102005 0)
(9.99276 0.114093 0)
(9.99012 0.127585 0)
(9.98724 0.142818 0)
(9.98434 0.159942 0)
(9.9818 0.179231 0)
(9.9799 0.200524 0)
(9.97918 0.223931 0)
(9.97983 0.248755 0)
(9.98248 0.275045 0)
(10.0146 0.0124098 0)
(10.015 0.0275604 0)
(10.0177 0.0392808 0)
(10.0221 0.0499541 0)
(10.0263 0.0598773 0)
(10.0292 0.06955 0)
(10.0308 0.0795629 0)
(10.0316 0.0903213 0)
(10.0317 0.102019 0)
(10.0311 0.114822 0)
(10.0297 0.128889 0)
(10.0277 0.144517 0)
(10.0253 0.161827 0)
(10.0229 0.181021 0)
(10.0212 0.201879 0)
(10.0206 0.224476 0)
(10.0216 0.248129 0)
(10.0243 0.273003 0)
(10.0019 0.0116898 0)
(10.0041 0.0264623 0)
(10.0078 0.0391171 0)
(10.012 0.0506612 0)
(10.0154 0.0609163 0)
(10.0176 0.0703921 0)
(10.0188 0.0800658 0)
(10.0194 0.0906162 0)
(10.0197 0.102323 0)
(10.0198 0.115336 0)
(10.0195 0.129714 0)
(10.0192 0.145569 0)
(10.0191 0.162859 0)
(10.0195 0.181668 0)
(10.0207 0.201714 0)
(10.0232 0.22312 0)
(10.0271 0.245241 0)
(10.0327 0.268447 0)
(10.025 0.0124921 0)
(10.0264 0.0233065 0)
(10.0298 0.0357328 0)
(10.0348 0.0475493 0)
(10.0397 0.0581913 0)
(10.0437 0.0681739 0)
(10.0467 0.0783746 0)
(10.0489 0.089407 0)
(10.0506 0.101476 0)
(10.0521 0.11468 0)
(10.0535 0.129034 0)
(10.0549 0.144635 0)
(10.0564 0.161424 0)
(10.0583 0.17949 0)
(10.0607 0.19858 0)
(10.064 0.218819 0)
(10.0683 0.239649 0)
(10.0737 0.261433 0)
(10.0092 0.00959048 0)
(10.0134 0.0219352 0)
(10.0177 0.0334023 0)
(10.0222 0.044069 0)
(10.027 0.0545773 0)
(10.0315 0.0653395 0)
(10.0351 0.0764072 0)
(10.0381 0.0879007 0)
(10.0407 0.100081 0)
(10.0434 0.113291 0)
(10.0463 0.127688 0)
(10.0496 0.143375 0)
(10.0532 0.160163 0)
(10.0574 0.178016 0)
(10.0621 0.196538 0)
(10.0676 0.215849 0)
(10.0738 0.235345 0)
(10.0813 0.255532 0)
(10.0104 0.00543979 0)
(10.0129 0.0198629 0)
(10.016 0.0309146 0)
(10.0194 0.0410693 0)
(10.0231 0.0514218 0)
(10.0271 0.0621239 0)
(10.031 0.0731415 0)
(10.0349 0.0845204 0)
(10.0388 0.0963753 0)
(10.0431 0.108942 0)
(10.0481 0.12237 0)
(10.0539 0.136844 0)
(10.0606 0.152261 0)
(10.0681 0.168694 0)
(10.0763 0.185754 0)
(10.0853 0.203604 0)
(10.0949 0.221538 0)
(10.1053 0.240151 0)
(10.0041 0.00427133 0)
(10.0026 0.0151709 0)
(10.0046 0.0253918 0)
(10.0092 0.0360128 0)
(10.0146 0.0467348 0)
(10.0203 0.0574046 0)
(10.0264 0.068206 0)
(10.0326 0.0792928 0)
(10.0388 0.0906613 0)
(10.0454 0.102413 0)
(10.0522 0.114673 0)
(10.0595 0.127724 0)
(10.0675 0.141586 0)
(10.0764 0.156423 0)
(10.086 0.171863 0)
(10.0966 0.188057 0)
(10.1076 0.204237 0)
(10.1198 0.221018 0)
(9.99232 0.0146102 0)
(9.9928 0.0167449 0)
(9.99463 0.022449 0)
(9.99724 0.0309042 0)
(10.0007 0.0399119 0)
(10.0058 0.0487379 0)
(10.0122 0.0577629 0)
(10.0193 0.0674708 0)
(10.0268 0.0779333 0)
(10.0347 0.0889957 0)
(10.0429 0.100393 0)
(10.0516 0.112126 0)
(10.0609 0.124136 0)
(10.071 0.136673 0)
(10.0819 0.149556 0)
(10.0938 0.163142 0)
(10.1063 0.176805 0)
(10.12 0.19122 0)
(9.99119 -6.63309e-05 0)
(9.99926 0.010541 0)
(10.0069 0.0196578 0)
(10.0139 0.0274406 0)
(10.0212 0.0345229 0)
(10.029 0.041548 0)
(10.0372 0.0490258 0)
(10.0459 0.0572831 0)
(10.055 0.0662671 0)
(10.0645 0.0757598 0)
(10.0744 0.0854589 0)
(10.0847 0.0952806 0)
(10.0955 0.105079 0)
(10.1069 0.115036 0)
(10.1189 0.12497 0)
(10.1316 0.135241 0)
(10.1448 0.145346 0)
(10.1588 0.155961 0)
(9.99828 -0.00917494 0)
(9.99549 -0.00262496 0)
(9.99649 0.00336549 0)
(10.0015 0.00937516 0)
(10.0086 0.0155758 0)
(10.0161 0.0218938 0)
(10.0241 0.0285685 0)
(10.0329 0.0358715 0)
(10.0425 0.0437469 0)
(10.0532 0.0519581 0)
(10.0646 0.0601914 0)
(10.0767 0.068328 0)
(10.0891 0.0762533 0)
(10.1019 0.084151 0)
(10.115 0.091979 0)
(10.1284 0.100078 0)
(10.1419 0.108117 0)
(10.1559 0.116591 0)
(10.0095 0.00788164 0)
(10.0133 0.00476415 0)
(10.0199 0.00711199 0)
(10.0286 0.0118807 0)
(10.0382 0.0171044 0)
(10.0477 0.0220081 0)
(10.0574 0.0264902 0)
(10.0674 0.0308873 0)
(10.078 0.0356633 0)
(10.0893 0.0410919 0)
(10.1011 0.0470799 0)
(10.1133 0.0534731 0)
(10.1259 0.0600296 0)
(10.1386 0.0667253 0)
(10.1518 0.0733878 0)
(10.1651 0.0801765 0)
(10.1789 0.0867639 0)
(10.1929 0.0934968 0)
(10.0117 -0.011045 0)
(10.0148 -0.0129088 0)
(10.0201 -0.0111703 0)
(10.0277 -0.00782342 0)
(10.0377 -0.00373668 0)
(10.049 0.000734717 0)
(10.0607 0.00531984 0)
(10.0726 0.0100173 0)
(10.0846 0.0149676 0)
(10.097 0.0202635 0)
(10.1098 0.0258059 0)
(10.1231 0.0314643 0)
(10.1369 0.0370315 0)
(10.1511 0.0424865 0)
(10.1658 0.0476954 0)
(10.1807 0.0528555 0)
(10.1958 0.0577629 0)
(10.2112 0.0628399 0)
(10.0026 0.000962165 0)
(10.0085 -0.00359137 0)
(10.0158 -0.00620655 0)
(10.0245 -0.00601575 0)
(10.0343 -0.00396002 0)
(10.0444 -0.00128528 0)
(10.0546 0.00147898 0)
(10.0652 0.00443897 0)
(10.0765 0.00775156 0)
(10.0885 0.0113985 0)
(10.1013 0.0152184 0)
(10.1146 0.0191072 0)
(10.1283 0.0229998 0)
(10.1423 0.026985 0)
(10.1565 0.0310217 0)
(10.1709 0.0352235 0)
(10.1854 0.0393668 0)
(10.2001 0.0436257 0)
(10.0169 -0.0150155 0)
(10.0228 -0.0171864 0)
(10.0312 -0.0202152 0)
(10.041 -0.0202883 0)
(10.0517 -0.0179431 0)
(10.0626 -0.0149127 0)
(10.0734 -0.0120632 0)
(10.0845 -0.00943432 0)
(10.0962 -0.00677515 0)
(10.1084 -0.00387231 0)
(10.1211 -0.000708149 0)
(10.1341 0.00266137 0)
(10.1475 0.00609732 0)
(10.1612 0.00954991 0)
(10.1754 0.0128836 0)
(10.1899 0.0161868 0)
(10.2048 0.0192921 0)
(10.2198 0.0224483 0)
(9.99869 -0.0115393 0)
(10.001 -0.0170591 0)
(10.0087 -0.0205616 0)
(10.0194 -0.0212859 0)
(10.0309 -0.020408 0)
(10.0426 -0.0190804 0)
(10.0546 -0.0176315 0)
(10.0673 -0.0159826 0)
(10.0807 -0.0140743 0)
(10.0945 -0.0119556 0)
(10.1087 -0.00976081 0)
(10.1234 -0.00758117 0)
(10.1387 -0.00548397 0)
(10.1545 -0.00341522 0)
(10.1706 -0.00136218 0)
(10.187 0.000788849 0)
(10.2035 0.00295473 0)
(10.2199 0.00530243 0)
(10.0139 -0.0109151 0)
(10.0255 -0.0254658 0)
(10.04 -0.0292829 0)
(10.0544 -0.0291896 0)
(10.0678 -0.0287425 0)
(10.0803 -0.0284435 0)
(10.0927 -0.0278262 0)
(10.1054 -0.0267304 0)
(10.1187 -0.0253378 0)
(10.1326 -0.023856 0)
(10.1469 -0.0224087 0)
(10.1616 -0.0209931 0)
(10.1762 -0.0195766 0)
(10.1908 -0.0180742 0)
(10.2051 -0.0164996 0)
(10.2193 -0.0148067 0)
(10.2334 -0.0131118 0)
(10.2475 -0.0113247 0)
(9.97841 -0.0213117 0)
(9.99608 -0.0311787 0)
(10.0146 -0.0351907 0)
(10.0292 -0.0357353 0)
(10.0408 -0.0356127 0)
(10.0517 -0.0353824 0)
(10.0634 -0.0347824 0)
(10.0762 -0.0339106 0)
(10.0899 -0.0330135 0)
(10.1043 -0.0321438 0)
(10.1189 -0.0312211 0)
(10.1338 -0.0301579 0)
(10.1488 -0.0289354 0)
(10.1639 -0.0275772 0)
(10.1789 -0.0261775 0)
(10.194 -0.0247769 0)
(10.209 -0.0234825 0)
(10.2239 -0.0222601 0)
(10.0027 -0.027506 0)
(10.018 -0.0369531 0)
(10.0375 -0.0385616 0)
(10.0542 -0.0382134 0)
(10.0677 -0.0386406 0)
(10.0807 -0.039421 0)
(10.0947 -0.0398304 0)
(10.1097 -0.0398343 0)
(10.1252 -0.0396548 0)
(10.1406 -0.0394241 0)
(10.1558 -0.0391227 0)
(10.1705 -0.0387231 0)
(10.1851 -0.0381732 0)
(10.1995 -0.0374944 0)
(10.214 -0.0366879 0)
(10.2284 -0.035836 0)
(10.243 -0.0349708 0)
(10.2575 -0.0341667 0)
(10.0078 -0.0296468 0)
(10.0425 -0.0472821 0)
(10.0725 -0.0468359 0)
(10.094 -0.0465292 0)
(10.1102 -0.0477988 0)
(10.1239 -0.0488292 0)
(10.1359 -0.049173 0)
(10.1462 -0.0491475 0)
(10.1547 -0.0489613 0)
(10.1616 -0.0486481 0)
(10.1672 -0.0481676 0)
(10.1718 -0.0475685 0)
(10.1756 -0.0468678 0)
(10.1791 -0.0461793 0)
(10.1818 -0.0454982 0)
(10.1847 -0.0449549 0)
(10.1868 -0.0444927 0)
(10.1895 -0.0442659 0)
(9.91045 -0.043441 0)
(9.74663 -0.0529734 0)
(9.58326 -0.0507412 0)
(9.41786 -0.0494436 0)
(9.25487 -0.0493987 0)
(9.09821 -0.0490725 0)
(8.9495 -0.0481335 0)
(8.80892 -0.0469053 0)
(8.67608 -0.045678 0)
(8.5506 -0.0445578 0)
(8.43192 -0.0435191 0)
(8.32008 -0.0425246 0)
(8.21444 -0.0415117 0)
(8.11539 -0.0404903 0)
(8.02161 -0.0394349 0)
(7.9342 -0.0384283 0)
(7.85045 -0.0374485 0)
(7.7734 -0.0366374 0)
(-0.146904 0.283813 -1.70396e-21)
(-0.301238 0.0999272 1.70939e-21)
(-0.32354 -0.0656395 0)
(-0.229751 -0.197389 0)
(-0.0104936 -0.318375 0)
(0.289375 -0.399547 -1.64803e-21)
(0.659491 -0.445639 0)
(1.06002 -0.449262 0)
(1.46028 -0.426765 0)
(1.83322 -0.38225 0)
(2.16715 -0.322424 1.78798e-21)
(2.44801 -0.253174 0)
(2.66593 -0.178508 0)
(2.81394 -0.101579 0)
(2.88769 -0.0240383 0)
(2.8869 0.0524967 2.08889e-21)
(2.81041 0.127377 0)
(2.66208 0.198422 0)
(2.44167 0.264881 0)
(2.16129 0.321123 0)
(1.81943 0.366152 0)
(1.44646 0.387516 0)
(1.03229 0.391053 0)
(0.639534 0.336023 1.71891e-21)
(0.238463 0.296773 -1.69956e-21)
(-0.0852752 0.144017 1.69912e-21)
(-0.319343 -0.0749494 1.71057e-21)
(-0.497479 -0.176447 0)
(-0.680307 -0.138543 0)
(-0.890447 -0.0879843 -1.7657e-21)
(-1.14002 -0.0183454 -1.78535e-21)
(-1.44498 0.0813763 0)
(-1.79187 0.168452 0)
(-2.16064 0.232246 -1.89409e-21)
(-2.5432 0.274214 0)
(-2.93972 0.319094 0)
(-3.36332 0.366267 2.24511e-21)
(-3.81409 0.39017 0)
(-4.27831 0.399136 2.58538e-21)
(-4.75078 0.390979 5.5111e-21)
(-5.20518 0.32371 0)
(-5.62852 0.241316 0)
(-6.03869 0.238284 0)
(-6.45183 0.297821 0)
(-6.8685 0.337613 0)
(-7.2579 0.318881 7.21551e-21)
(-7.59102 0.274487 7.42953e-21)
(-7.8698 0.22947 7.61775e-21)
(-8.09602 0.186465 0)
(-8.27359 0.146974 -7.88275e-21)
(-8.40635 0.111442 0)
(-8.4987 0.0799861 7.97207e-21)
(-8.55465 0.0523884 7.95095e-21)
(-8.57807 0.0283427 0)
(-8.57272 0.00743675 0)
(-8.54158 -0.0107405 0)
(-8.48755 -0.0265609 7.49955e-21)
(-8.41302 -0.0403626 0)
(-8.32021 -0.0524376 0)
(-8.21093 -0.0630263 0)
(-8.08679 -0.0723567 0)
(-7.94915 -0.0806151 0)
(-7.79912 -0.0879942 0)
(-7.63757 -0.0946565 0)
(-7.46514 -0.10075 0)
(-7.28228 -0.106362 -5.18624e-21)
(-7.08933 -0.111583 0)
(-6.88663 -0.116385 0)
(-6.67467 -0.120772 4.19298e-21)
(-6.45435 -0.124664 3.84796e-21)
(-6.22601 -0.128034 0)
(-5.99065 -0.130779 -3.14818e-21)
(-5.74911 -0.132879 2.79779e-21)
(-5.50256 -0.134272 0)
(-5.25212 -0.134988 -2.10679e-21)
(-4.99899 -0.135056 0)
(-4.74418 -0.134601 0)
(-4.48855 -0.133775 1.12082e-21)
(-4.23251 -0.132781 0)
(-3.97608 -0.131873 -5.06705e-22)
(-3.7189 -0.13125 0)
(-3.46016 -0.131101 -7.57746e-23)
(-3.19879 -0.131577 -3.57395e-22)
(-2.9336 -0.132736 -6.33671e-22)
(-2.66324 -0.134526 -1.81006e-21)
(-2.38649 -0.136906 2.34267e-21)
(-2.10243 -0.139657 0)
(-1.81044 -0.142559 0)
(-1.51038 -0.145378 0)
(-1.20263 -0.147786 4.31816e-21)
(-0.888104 -0.149568 4.75016e-21)
(-0.568303 -0.150463 -5.14603e-21)
(-0.245071 -0.150241 0)
(0.079345 -0.148799 5.80841e-21)
(0.402335 -0.146009 6.06687e-21)
(0.72119 -0.141834 6.27381e-21)
(1.03322 -0.136276 0)
(1.33576 -0.129419 0)
(1.626 -0.121388 0)
(1.90132 -0.112398 6.60489e-21)
(2.15903 -0.103406 0)
(2.39729 -0.0935379 0)
(2.61602 -0.0834549 -6.43985e-21)
(2.81463 -0.0735148 0)
(2.99315 -0.0639409 0)
(3.15224 -0.0549269 -6.10689e-21)
(3.29296 -0.0466026 0)
(3.41662 -0.0390321 0)
(3.52469 -0.0322308 5.74086e-21)
(3.61866 -0.0261884 5.62433e-21)
(3.70001 -0.0208754 0)
(3.77015 -0.0162374 -5.40632e-21)
(3.83041 -0.0121883 0)
(3.88193 -0.00862328 5.21027e-21)
(3.92561 -0.00544562 0)
(3.96217 -0.00258992 5.03516e-21)
(3.99217 -3.11238e-05 4.9547e-21)
(4.01623 0.00223492 0)
(4.03495 0.00420858 0)
(4.04901 0.00590048 0)
(4.05906 0.00733585 0)
(4.06565 0.00853926 0)
(4.06928 0.00954523 0)
(4.07031 0.0104105 0)
(4.069 0.011191 4.44552e-21)
(4.06547 0.0119331 -4.39519e-21)
(4.0598 0.0126626 0)
(4.05199 0.0133848 0)
(4.04202 0.0140968 0)
(4.02985 0.0147854 0)
(4.01548 0.0154281 -8.34786e-21)
(3.99892 0.0160103 0)
(3.98026 0.0165197 8.19334e-21)
(3.95962 0.016929 -8.11989e-21)
(3.93719 0.0172153 0)
(3.91321 0.0173725 0)
(3.88792 0.0173921 0)
(3.86158 0.0172539 7.84749e-21)
(3.83449 0.0169308 7.78399e-21)
(3.80701 0.0164055 0)
(3.77949 0.0156905 7.66171e-21)
(3.75229 0.0148343 7.60279e-21)
(3.7257 0.013908 -7.54526e-21)
(3.69993 0.0129836 0)
(3.67509 0.0121129 0)
(3.65124 0.0113179 -7.38045e-21)
(3.62838 0.0105925 0)
(3.60649 0.00991258 0)
(3.58559 0.00924832 0)
(3.5657 0.00857572 0)
(3.54688 0.00788355 7.12731e-21)
(3.52917 0.00717626 7.07942e-21)
(3.51264 0.00647092 0)
(3.4973 0.00579097 6.98619e-21)
(3.48313 0.00515889 0)
(3.47008 0.00459198 0)
(3.45802 0.00409895 6.85243e-21)
(3.44687 0.00368228 0)
(3.43644 0.00333825 6.76694e-21)
(3.42665 0.00306251 0)
(3.41729 0.00284833 0)
(3.40834 0.00269213 6.64371e-21)
(3.39952 0.00259013 0)
(3.39091 0.00254026 6.56495e-21)
(3.38207 0.00254802 0)
(3.37332 0.00260493 0)
(3.36377 0.00274678 0)
(3.35426 0.00292541 -6.41744e-21)
(3.34303 0.00327878 0)
(3.33183 0.00359818 6.35084e-21)
(3.31737 0.00436117 0)
(3.30268 0.00480616 0)
(3.2826 0.00651662 0)
(3.26021 0.00690278 0)
(3.23126 0.0110972 0)
(3.18941 0.0105929 0)
(3.14933 0.0221124 0)
(3.05055 0.0179022 -1.24651e-20)
(3.00731 0.0552048 0)
(2.71446 0.044878 0)
(0.00452509 0.563695 5.18993e-21)
(0.0681523 0.214932 -5.19729e-21)
(0.133472 -0.115176 0)
(0.342984 -0.446048 3.50923e-21)
(0.645531 -0.78662 0)
(1.01637 -1.03651 1.64381e-21)
(1.40258 -1.17481 -3.52349e-21)
(1.77398 -1.20857 -3.59441e-21)
(2.11446 -1.15953 0)
(2.41497 -1.04772 -3.87556e-21)
(2.66729 -0.892203 -1.78281e-21)
(2.86594 -0.708756 0)
(3.00639 -0.509427 0)
(3.08864 -0.302623 0)
(3.11331 -0.0949773 0)
(3.08195 0.108666 -2.08501e-21)
(2.99581 0.303252 0)
(2.8589 0.485158 4.49419e-21)
(2.67246 0.649255 0)
(2.441 0.7945 0)
(2.16844 0.910894 -4.0597e-21)
(1.8603 0.997191 0)
(1.53312 1.02795 3.74491e-21)
(1.18519 1.02814 -1.71158e-21)
(0.858702 0.932552 1.69167e-21)
(0.502751 0.777683 -1.69077e-21)
(0.0624212 0.760715 -1.70188e-21)
(-0.462509 0.763285 0)
(-1.05887 0.766723 0)
(-1.64807 0.820734 1.75836e-21)
(-2.20836 0.872468 -2.02215e-21)
(-2.7276 0.910564 0)
(-3.19936 0.91237 0)
(-3.62786 0.890381 1.88509e-21)
(-4.03703 0.880408 0)
(-4.43956 0.906315 0)
(-4.8471 0.95834 -2.23572e-21)
(-5.26528 1.00657 0)
(-5.69377 1.02407 3.0981e-21)
(-6.12917 1.00824 -5.49285e-21)
(-6.56358 0.986082 0)
(-7.01087 0.990577 0)
(-7.44399 0.974832 -1.38086e-20)
(-7.79942 0.908023 -1.43687e-20)
(-8.08709 0.814833 -1.48668e-20)
(-8.32532 0.704139 8.10838e-21)
(-8.51584 0.588513 -7.41448e-21)
(-8.66523 0.476097 -2.36135e-20)
(-8.77572 0.370526 1.62486e-20)
(-8.85042 0.273812 7.87038e-21)
(-8.89257 0.186773 0)
(-8.90513 0.109352 -7.96154e-21)
(-8.89115 0.0410794 8.41013e-21)
(-8.85336 -0.0188178 0)
(-8.79405 -0.0712012 0)
(-8.71558 -0.11697 0)
(-8.61984 -0.156981 -7.49402e-21)
(-8.50864 -0.192009 0)
(-8.38352 -0.222744 1.44486e-20)
(-8.24586 -0.249778 0)
(-8.09686 -0.273669 1.34628e-20)
(-7.93757 -0.294909 0)
(-7.76875 -0.314 -1.23602e-20)
(-7.59097 -0.331406 0)
(-7.40455 -0.347528 1.11603e-20)
(-7.20963 -0.362671 -5.34089e-21)
(-7.00627 -0.377018 0)
(-6.7945 -0.390556 -9.20524e-21)
(-6.57431 -0.403165 -4.19414e-21)
(-6.34554 -0.414614 -3.84915e-21)
(-6.10906 -0.424605 0)
(-5.86546 -0.43287 -3.25651e-21)
(-5.61584 -0.43919 -2.79905e-21)
(-5.36123 -0.443424 0)
(-5.10288 -0.445588 2.10808e-21)
(-4.84199 -0.445826 -3.62133e-21)
(-4.57968 -0.44446 0)
(-4.31683 -0.441985 -1.12208e-21)
(-4.05391 -0.438999 0)
(-3.79091 -0.436234 1.59323e-21)
(-3.52737 -0.434316 0)
(-3.26246 -0.43383 1.51157e-22)
(-2.99501 -0.435196 3.56351e-22)
(-2.72369 -0.438619 -5.54762e-22)
(-2.4471 -0.444001 -1.64825e-21)
(-2.16397 -0.4511 2.17835e-21)
(-1.87328 -0.459368 0)
(-1.57447 -0.468103 0)
(-1.26739 -0.476511 0)
(-0.952468 -0.483741 -1.27952e-20)
(-0.63071 -0.48904 -4.74794e-21)
(-0.303624 -0.491658 5.14368e-21)
(0.0268497 -0.491014 0)
(0.358404 -0.48672 5.68137e-21)
(0.688449 -0.478515 -6.06414e-21)
(1.01429 -0.466258 -6.27099e-21)
(1.33331 -0.449928 0)
(1.64295 -0.429672 0)
(1.94044 -0.405958 0)
(2.22297 -0.379691 -6.60098e-21)
(2.4882 -0.351627 0)
(2.73473 -0.322032 1.29665e-20)
(2.96202 -0.2919 1.92429e-20)
(3.16949 -0.262185 -1.26131e-20)
(3.35725 -0.233625 0)
(3.52598 -0.206801 -6.05689e-21)
(3.67683 -0.182099 0)
(3.81122 -0.159696 -1.16785e-20)
(3.9307 -0.139603 5.70489e-21)
(4.03686 -0.121724 5.59225e-21)
(4.1313 -0.105934 0)
(4.21557 -0.0920869 1.61867e-20)
(4.29101 -0.0799752 -1.0585e-20)
(4.35873 -0.0693055 -5.207e-21)
(4.41951 -0.0597665 0)
(4.47389 -0.0511342 -5.03192e-21)
(4.52228 -0.043328 -1.4843e-20)
(4.56515 -0.0363709 0)
(4.60311 -0.0303065 -9.59742e-21)
(4.63684 -0.0251184 -9.46176e-21)
(4.66707 -0.0207135 -9.3331e-21)
(4.69449 -0.0169606 0)
(4.71963 -0.0137293 0)
(4.7429 -0.0108912 0)
(4.76461 -0.0083308 4.43734e-21)
(4.78497 -0.00594664 4.3916e-21)
(4.80408 -0.0036562 0)
(4.82198 -0.001402 8.59132e-21)
(4.8386 0.00084881 8.5033e-21)
(4.85388 0.00309987 0)
(4.86776 0.00532624 8.33999e-21)
(4.88017 0.00748929 1.65176e-20)
(4.89111 0.00954416 -8.18518e-21)
(4.90059 0.0114374 -8.1075e-21)
(4.90862 0.0131275 0)
(4.91526 0.0145977 0)
(4.92056 0.0158382 0)
(4.9246 0.0168392 -7.83864e-21)
(4.92743 0.017589 7.77283e-21)
(4.92907 0.018073 1.54242e-20)
(4.92956 0.0182833 -7.65258e-21)
(4.92894 0.0182286 7.59246e-21)
(4.9273 0.0179382 7.53602e-21)
(4.9248 0.0174586 0)
(4.92164 0.0168444 0)
(4.91803 0.016146 -7.37096e-21)
(4.91418 0.0154012 0)
(4.91028 0.0146315 0)
(4.90644 0.0138447 1.44331e-20)
(4.90277 0.0130391 0)
(4.8993 0.0122106 7.11849e-21)
(4.89607 0.0113594 -7.07029e-21)
(4.89308 0.0104947 0)
(4.89032 0.00963563 6.97768e-21)
(4.88779 0.00880703 0)
(4.88547 0.00803479 0)
(4.88333 0.00733998 -6.8436e-21)
(4.88132 0.00673589 1.36015e-20)
(4.8794 0.00622844 -6.75825e-21)
(4.8775 0.00581584 0)
(4.87556 0.0054967 0)
(4.87352 0.00526096 6.63521e-21)
(4.87129 0.00511609 0)
(4.86885 0.00504265 6.55635e-21)
(4.86608 0.00508226 0)
(4.86297 0.00517971 0)
(4.85936 0.00547103 0)
(4.85523 0.00577561 6.40946e-21)
(4.85036 0.00649652 0)
(4.84455 0.00706344 -6.343e-21)
(4.83773 0.00863975 0)
(4.82886 0.00948866 0)
(4.81905 0.0129419 1.25132e-20)
(4.80399 0.0139024 -1.24686e-20)
(4.78987 0.0218772 0)
(4.76081 0.0222706 0)
(4.74167 0.0423273 0)
(4.67783 0.041206 3.7277e-20)
(4.65862 0.0987361 0)
(4.508 0.103907 -2.49631e-20)
(0.0624185 0.228776 -1.0685e-23)
(0.188613 -0.0627164 6.9451e-21)
(0.466508 -0.573393 0)
(0.869486 -1.15366 -7.05213e-21)
(1.28949 -1.60471 0)
(1.66959 -1.8699 0)
(1.99401 -1.96155 -4.27629e-22)
(2.26256 -1.91262 3.58292e-21)
(2.48045 -1.75972 4.31705e-21)
(2.65068 -1.53531 3.86739e-21)
(2.77444 -1.26512 0)
(2.85273 -0.968043 0)
(2.88673 -0.65802 -5.05203e-21)
(2.87695 -0.345122 -1.03009e-20)
(2.82332 -0.0372176 1.03912e-20)
(2.72631 0.259805 0)
(2.58861 0.540045 1.02402e-20)
(2.41425 0.798574 -4.49419e-21)
(2.20874 1.03068 0)
(1.97772 1.23253 9.34925e-21)
(1.72711 1.3984 4.0573e-21)
(1.45316 1.51298 -8.55614e-21)
(1.16425 1.58129 -3.74028e-21)
(0.866938 1.54212 0)
(0.536611 1.47779 7.5835e-21)
(0.0678513 1.57062 7.42208e-21)
(-0.45453 1.67028 0)
(-1.03571 1.80277 7.38063e-21)
(-1.65413 1.89821 0)
(-2.25002 1.92462 7.72607e-21)
(-2.80886 1.88434 3.78431e-21)
(-3.32086 1.80388 0)
(-3.79299 1.71507 0)
(-4.22947 1.64513 0)
(-4.64681 1.60898 0)
(-5.06374 1.62908 0)
(-5.48782 1.68388 0)
(-5.91317 1.73546 1.19884e-20)
(-6.32889 1.75966 -1.83122e-20)
(-6.7317 1.737 0)
(-7.1062 1.67165 0)
(-7.43312 1.56891 0)
(-7.70676 1.43442 -1.29108e-21)
(-7.92654 1.28067 1.43627e-20)
(-8.10276 1.1166 3.09693e-20)
(-8.24123 0.945991 -3.18194e-20)
(-8.34727 0.776501 -1.68383e-20)
(-8.42503 0.613902 1.60145e-20)
(-8.47687 0.462355 9.79138e-22)
(-8.50481 0.32379 1.73004e-20)
(-8.51053 0.199001 0)
(-8.4955 0.0877347 1.71838e-20)
(-8.4612 -0.0107309 6.49622e-22)
(-8.40902 -0.0974696 0)
(-8.34028 -0.173648 0)
(-8.25624 -0.240475 -1.61282e-20)
(-8.15805 -0.299131 0)
(-8.04676 -0.350678 0)
(-7.92332 -0.396053 1.51858e-20)
(-7.78866 -0.436074 2.86392e-20)
(-7.64362 -0.471494 -1.34765e-20)
(-7.48901 -0.503033 0)
(-7.32544 -0.53146 1.23737e-20)
(-7.15334 -0.557543 0)
(-6.97286 -0.581974 1.16669e-20)
(-6.78392 -0.605294 1.05404e-20)
(-6.5863 -0.627778 -2.02288e-20)
(-6.37979 -0.649453 -9.65099e-21)
(-6.16433 -0.669985 0)
(-5.94003 -0.688867 1.60554e-20)
(-5.70746 -0.705425 0)
(-5.46745 -0.719102 1.95881e-20)
(-5.22112 -0.729427 1.17293e-20)
(-4.96976 -0.736143 1.02972e-20)
(-4.71483 -0.73924 -8.88695e-21)
(-4.45779 -0.738957 1.11354e-20)
(-4.2 -0.735878 0)
(-3.94257 -0.730851 0)
(-3.68611 -0.724998 -3.61123e-21)
(-3.43063 -0.719562 -3.48804e-21)
(-3.17556 -0.715714 0)
(-2.9199 -0.714473 -7.3163e-23)
(-2.66221 -0.716534 0)
(-2.40087 -0.722214 3.31091e-21)
(-2.13419 -0.731377 2.51003e-22)
(-1.8607 -0.743484 -2.55423e-22)
(-1.57925 -0.757614 -5.30054e-21)
(-1.2892 -0.772522 0)
(-0.990481 -0.786811 7.298e-21)
(-0.68367 -0.799044 2.42212e-22)
(-0.369924 -0.807896 0)
(-0.0509456 -0.812182 0)
(0.271097 -0.810992 0)
(0.593753 -0.803738 -1.14852e-20)
(0.914337 -0.790142 0)
(1.23018 -0.77002 0)
(1.53883 -0.743239 0)
(1.83784 -0.709903 0)
(2.12432 -0.671125 0)
(2.39573 -0.627622 -1.29773e-20)
(2.65026 -0.580636 0)
(2.88645 -0.531206 -1.29585e-20)
(3.10369 -0.481005 -1.28007e-20)
(3.30167 -0.431477 1.26066e-20)
(3.48053 -0.383881 0)
(3.64079 -0.33925 1.21546e-20)
(3.78344 -0.298274 0)
(3.9099 -0.261266 1.16747e-20)
(4.02169 -0.228279 -1.14388e-20)
(4.12026 -0.199242 -3.35337e-20)
(4.20714 -0.173973 0)
(4.28416 -0.152108 -3.22703e-20)
(4.35329 -0.133102 -1.05179e-20)
(4.41605 -0.116332 0)
(4.47326 -0.101224 -2.03855e-20)
(4.52515 -0.0874006 -2.00557e-20)
(4.57165 -0.0747645 2.96331e-20)
(4.61284 -0.0634316 0)
(4.64906 -0.0535565 9.59653e-21)
(4.68091 -0.0452057 9.46099e-21)
(4.70903 -0.0383151 2.79744e-20)
(4.73408 -0.0327069 0)
(4.75668 -0.0281314 0)
(4.77744 -0.0243271 0)
(4.79688 -0.0210387 8.86459e-21)
(4.81537 -0.0180513 0)
(4.83315 -0.0152035 0)
(4.85028 -0.0123833 -8.59102e-21)
(4.86673 -0.00953027 -8.50301e-21)
(4.88243 -0.0066332 0)
(4.8973 -0.00372709 0)
(4.91127 -0.000874866 -1.6517e-20)
(4.9243 0.00185087 0)
(4.9364 0.00438818 1.62185e-20)
(4.94759 0.00669495 1.60711e-20)
(4.95792 0.00874434 0)
(4.96744 0.0105274 0)
(4.97619 0.0120464 -1.56702e-20)
(4.9842 0.0132995 -3.08919e-24)
(4.99146 0.0142869 -2.61347e-24)
(4.99793 0.0150101 0)
(5.00353 0.0154703 -3.03677e-20)
(5.00823 0.0156737 0)
(5.01204 0.0156334 0)
(5.01505 0.0153702 0)
(5.01741 0.0149115 1.47405e-20)
(5.01932 0.0142899 0)
(5.02101 0.0135389 -2.90644e-20)
(5.02263 0.0126888 -1.44313e-20)
(5.02431 0.0117648 0)
(5.02611 0.0107886 -1.42347e-20)
(5.02803 0.00978139 0)
(5.03005 0.00876811 0)
(5.03215 0.00777839 -4.18595e-20)
(5.0343 0.00684484 2.77254e-20)
(5.03648 0.00599733 0)
(5.03866 0.00526149 2.73718e-20)
(5.04082 0.00465261 -1.35994e-20)
(5.04294 0.00418186 0)
(5.04497 0.00384586 0)
(5.04687 0.00364835 0)
(5.04858 0.0035694 -3.98044e-20)
(5.05005 0.00362473 0)
(5.05119 0.00377342 -1.31108e-20)
(5.05201 0.00408051 0)
(5.05235 0.00445233 0)
(5.05232 0.00508393 0)
(5.05157 0.00572497 0)
(5.05041 0.00690171 0)
(5.04809 0.007921 0)
(5.04543 0.0101606 -2.52321e-20)
(5.04061 0.0117204 0)
(5.03576 0.0161855 -1.25107e-20)
(5.02657 0.0185019 3.73795e-20)
(5.01841 0.0279736 0)
(5.00116 0.0316008 0)
(4.98805 0.0534185 -2.47454e-20)
(4.95641 0.0615978 -2.48214e-20)
(4.93842 0.117101 2.47487e-20)
(4.89088 0.145891 2.49545e-20)
(-0.0217323 -0.0093516 -1.04615e-20)
(0.305236 -0.704238 -1.04675e-20)
(0.802849 -1.57446 -7.18315e-21)
(1.25624 -2.17204 -3.96016e-21)
(1.61722 -2.4816 0)
(1.88108 -2.55879 8.41647e-21)
(2.06347 -2.46596 -4.99329e-21)
(2.18285 -2.25403 0)
(2.25449 -1.96401 -4.31617e-21)
(2.29072 -1.62782 0)
(2.30028 -1.26659 1.07901e-20)
(2.28721 -0.892877 0)
(2.25114 -0.514211 5.05883e-21)
(2.1879 -0.137423 1.03152e-20)
(2.09319 0.230455 -1.04054e-20)
(1.96445 0.581884 0)
(1.80445 0.909254 -1.02521e-20)
(1.6161 1.20616 0)
(1.40518 1.46884 0)
(1.17558 1.69351 -9.35637e-21)
(0.935644 1.87921 0)
(0.679309 2.01909 -8.14406e-22)
(0.426206 2.07152 0)
(0.114658 2.13617 0)
(-0.302683 2.30451 7.48074e-22)
(-0.775589 2.48199 -7.41094e-21)
(-1.28926 2.65321 -8.0535e-21)
(-1.81321 2.7777 -7.3634e-21)
(-2.32767 2.82249 0)
(-2.82347 2.78646 -1.61166e-20)
(-3.30057 2.68659 0)
(-3.75594 2.55323 -9.15012e-21)
(-4.19957 2.43148 0)
(-4.62821 2.34528 0)
(-5.05092 2.30281 1.09886e-20)
(-5.47663 2.33117 0)
(-5.88865 2.39049 -1.25073e-20)
(-6.26593 2.39921 1.28003e-21)
(-6.59959 2.3471 2.66189e-20)
(-6.89405 2.24651 -2.93595e-20)
(-7.14718 2.10257 0)
(-7.35739 1.92563 0)
(-7.52943 1.72678 -1.80242e-20)
(-7.66918 1.51631 0)
(-7.78152 1.30111 -1.61125e-20)
(-7.8689 1.08697 1.65212e-20)
(-7.93391 0.879531 1.68502e-20)
(-7.97742 0.682914 0)
(-8.00048 0.499878 -1.72484e-20)
(-8.00386 0.331849 -1.73155e-20)
(-7.98851 0.179473 3.64958e-20)
(-7.95543 0.0426032 -1.72002e-20)
(-7.90591 -0.079444 -1.70292e-20)
(-7.84122 -0.187724 0)
(-7.76267 -0.283529 0)
(-7.67145 -0.368227 1.61456e-20)
(-7.5686 -0.443147 0)
(-7.45497 -0.509533 0)
(-7.33133 -0.568447 -2.96828e-20)
(-7.19842 -0.620803 -2.86734e-20)
(-7.05694 -0.667425 0)
(-6.90762 -0.709144 0)
(-6.75104 -0.746901 0)
(-6.58747 -0.781738 0)
(-6.41679 -0.814682 -2.28701e-20)
(-6.23851 -0.846554 2.21945e-20)
(-6.05194 -0.877828 2.02564e-20)
(-5.8563 -0.908513 3.83551e-20)
(-5.65099 -0.938028 0)
(-5.43579 -0.965416 5.16405e-22)
(-5.21101 -0.989523 0)
(-4.97758 -1.00931 -1.31929e-20)
(-4.73678 -1.02407 4.22113e-22)
(-4.49024 -1.03342 -1.03142e-20)
(-4.23974 -1.03728 8.90277e-21)
(-3.98708 -1.03596 3.31544e-22)
(-3.73406 -1.03024 0)
(-3.4821 -1.0214 5.17211e-21)
(-3.23215 -1.01115 3.62215e-21)
(-2.98438 -1.00149 5.09822e-21)
(-2.73828 -0.994335 0)
(-2.49272 -0.991295 -3.82818e-22)
(-2.24604 -0.993452 0)
(-1.99624 -1.00124 -3.92754e-21)
(-1.74125 -1.01441 3.19737e-21)
(-1.47926 -1.03205 -4.2572e-21)
(-1.20884 -1.05269 5.29789e-21)
(-0.929244 -1.07442 1.19673e-20)
(-0.640426 -1.09513 -7.29626e-21)
(-0.343114 -1.11268 8.23366e-21)
(-0.0387874 -1.12519 0)
(0.270585 -1.13105 -1.92627e-20)