/*--------------------------------*- C++ -*----------------------------------*\
  =========                 |
  \\      /  F ield         | OpenFOAM: The Open Source CFD Toolbox
   \\    /   O peration     | Website:  https://openfoam.org
    \\  /    A nd           | Version:  9
     \\/     M anipulation  |
\*---------------------------------------------------------------------------*/
FoamFile
{
    format      ascii;
    class       volSymmTensorField;
    location    "0.035";
    object      UPrime2Mean;
}
// * * * * * * * * * * * * * * * * * * * * * * * * * * * * * * * * * * * * * //

dimensions      [0 2 -2 0 0 0 0];

internalField   nonuniform List<symmTensor> 
12225
(
(-48.4494 -0.205174 0 0.00139743 0 0)
(-45.5765 -0.280317 0 -0.000699227 0 0)
(-42.7152 -0.269762 0 -0.00100415 0 0)
(-39.8878 -0.258735 0 -0.0011292 0 0)
(-37.1631 -0.250389 0 -0.00122038 0 0)
(-34.5893 -0.24064 0 -0.00125857 0 0)
(-32.1552 -0.231459 0 -0.00128034 0 0)
(-29.8574 -0.22269 0 -0.00130302 0 0)
(-27.6419 -0.21763 0 -0.00134752 0 0)
(-25.5327 -0.210996 0 -0.00140058 0 0)
(-23.4486 -0.210365 0 -0.00146242 0 0)
(-21.472 -0.204401 0 -0.00156534 0 0)
(-19.4307 -0.215409 0 -0.00166628 0 0)
(-17.5005 -0.211537 0 -0.00196305 0 0)
(-15.3361 -0.251917 0 -0.00206726 0 0)
(-13.2896 -0.243812 0 -0.00288304 0 0)
(-10.7509 -0.360969 0 -0.00198424 0 0)
(-8.2628 -0.348387 0 -0.00590201 0 0)
(-50.4018 -0.276464 0 0.00134678 0 0)
(-50.9615 -0.385385 0 -0.00146748 0 0)
(-51.3064 -0.386188 0 -0.00195837 0 0)
(-51.3937 -0.396905 0 -0.00231432 0 0)
(-51.2785 -0.419083 0 -0.00278749 0 0)
(-51.0227 -0.441888 0 -0.00324866 0 0)
(-50.6484 -0.460905 0 -0.00364807 0 0)
(-50.1791 -0.482758 0 -0.00406806 0 0)
(-49.6038 -0.505009 0 -0.00453171 0 0)
(-48.9426 -0.535748 0 -0.00508921 0 0)
(-48.1536 -0.565457 0 -0.00573711 0 0)
(-47.2732 -0.610154 0 -0.00650025 0 0)
(-46.2131 -0.655055 0 -0.00757047 0 0)
(-45.0546 -0.73001 0 -0.00879181 0 0)
(-43.619 -0.815501 0 -0.0110855 0 0)
(-42.062 -0.955974 0 -0.0133244 0 0)
(-40.0705 -1.15805 0 -0.0190251 0 0)
(-37.9024 -1.48012 0 -0.022223 0 0)
(-49.8374 -0.155578 0 0.00286761 0 0)
(-50.1359 -0.276143 0 0.000249697 0 0)
(-50.3863 -0.301179 0 -0.000620313 0 0)
(-50.5208 -0.32212 0 -0.00107763 0 0)
(-50.5601 -0.356505 0 -0.00162053 0 0)
(-50.546 -0.392131 0 -0.00218367 0 0)
(-50.4959 -0.424675 0 -0.00269894 0 0)
(-50.416 -0.456429 0 -0.00322339 0 0)
(-50.3006 -0.493292 0 -0.0037871 0 0)
(-50.1477 -0.535598 0 -0.0044953 0 0)
(-49.9433 -0.58913 0 -0.00527642 0 0)
(-49.6797 -0.651367 0 -0.00638366 0 0)
(-49.343 -0.736394 0 -0.00760702 0 0)
(-48.9261 -0.840019 0 -0.00968812 0 0)
(-48.426 -0.992787 0 -0.0120872 0 0)
(-47.8296 -1.19095 0 -0.0164377 0 0)
(-47.18 -1.49822 0 -0.0216737 0 0)
(-46.4853 -1.93051 0 -0.0276647 0 0)
(-50.0484 -0.14701 0 0.00296518 0 0)
(-50.2637 -0.288557 0 0.000434749 0 0)
(-50.4457 -0.323918 0 -0.00056384 0 0)
(-50.5395 -0.344921 0 -0.00106755 0 0)
(-50.559 -0.38129 0 -0.00171075 0 0)
(-50.5343 -0.423063 0 -0.00240713 0 0)
(-50.4774 -0.461109 0 -0.00302986 0 0)
(-50.3877 -0.498831 0 -0.00362455 0 0)
(-50.2642 -0.539861 0 -0.00428856 0 0)
(-50.1049 -0.590058 0 -0.00508178 0 0)
(-49.9059 -0.650096 0 -0.00608206 0 0)
(-49.6606 -0.726145 0 -0.00731602 0 0)
(-49.3639 -0.820834 0 -0.00895668 0 0)
(-49.0153 -0.944808 0 -0.0110677 0 0)
(-48.6168 -1.10823 0 -0.0139993 0 0)
(-48.1915 -1.33054 0 -0.0179253 0 0)
(-47.7657 -1.63441 0 -0.0226561 0 0)
(-47.4333 -2.04015 0 -0.0275246 0 0)
(-50.1176 -0.121669 0 0.00394788 0 0)
(-50.2712 -0.267194 0 0.00104814 0 0)
(-50.3968 -0.31593 0 -0.000384286 0 0)
(-50.4646 -0.339077 0 -0.000948835 0 0)
(-50.4696 -0.373295 0 -0.00148487 0 0)
(-50.4335 -0.416825 0 -0.00211872 0 0)
(-50.3708 -0.461375 0 -0.00276166 0 0)
(-50.281 -0.505763 0 -0.00340616 0 0)
(-50.1571 -0.554306 0 -0.00409523 0 0)
(-49.9957 -0.611453 0 -0.00492161 0 0)
(-49.7921 -0.681339 0 -0.00592017 0 0)
(-49.5468 -0.767761 0 -0.00720619 0 0)
(-49.2562 -0.875877 0 -0.00882369 0 0)
(-48.9296 -1.01374 0 -0.0109412 0 0)
(-48.568 -1.19047 0 -0.0136659 0 0)
(-48.2044 -1.42245 0 -0.0169447 0 0)
(-47.8537 -1.71562 0 -0.0205169 0 0)
(-47.5967 -2.08351 0 -0.0221422 0 0)
(-49.8846 -0.0779347 0 0.00477321 0 0)
(-49.9269 -0.230673 0 0.0017731 0 0)
(-50.0232 -0.298231 0 0.000191893 0 0)
(-50.0843 -0.33438 0 -0.00055699 0 0)
(-50.078 -0.374705 0 -0.00126587 0 0)
(-50.0301 -0.42343 0 -0.0020188 0 0)
(-49.9674 -0.474388 0 -0.00275283 0 0)
(-49.8944 -0.526602 0 -0.00348124 0 0)
(-49.8003 -0.583785 0 -0.00427737 0 0)
(-49.6754 -0.650931 0 -0.00522485 0 0)
(-49.5109 -0.731306 0 -0.00636732 0 0)
(-49.3073 -0.828868 0 -0.00775989 0 0)
(-49.0624 -0.947588 0 -0.00942537 0 0)
(-48.7893 -1.09528 0 -0.0114591 0 0)
(-48.4915 -1.27854 0 -0.0138235 0 0)
(-48.2024 -1.50914 0 -0.0164121 0 0)
(-47.9321 -1.78721 0 -0.0184805 0 0)
(-47.7471 -2.1192 0 -0.0184985 0 0)
(-49.3671 -0.137778 0 0.00451789 0 0)
(-49.4465 -0.237838 0 0.00235649 0 0)
(-49.5549 -0.302135 0 0.000584061 0 0)
(-49.6395 -0.342523 0 -0.000330072 0 0)
(-49.6647 -0.383165 0 -0.000984125 0 0)
(-49.6429 -0.43012 0 -0.00164269 0 0)
(-49.5956 -0.480801 0 -0.00233698 0 0)
(-49.5294 -0.535316 0 -0.00305677 0 0)
(-49.4383 -0.597132 0 -0.0038264 0 0)
(-49.3181 -0.671045 0 -0.00471221 0 0)
(-49.1662 -0.760234 0 -0.00577832 0 0)
(-48.9859 -0.868565 0 -0.00707489 0 0)
(-48.7778 -0.998796 0 -0.00861098 0 0)
(-48.5511 -1.15733 0 -0.0103807 0 0)
(-48.3107 -1.34764 0 -0.0122904 0 0)
(-48.0793 -1.57774 0 -0.0140654 0 0)
(-47.8699 -1.84436 0 -0.0149809 0 0)
(-47.7249 -2.15016 0 -0.013962 0 0)
(-50.1094 -0.0492177 0 0.00559584 0 0)
(-50.1798 -0.188435 0 0.00302597 0 0)
(-50.2678 -0.271936 0 0.00122052 0 0)
(-50.3335 -0.329652 0 0.000196033 0 0)
(-50.348 -0.381778 0 -0.000588009 0 0)
(-50.3157 -0.43644 0 -0.00127761 0 0)
(-50.249 -0.495114 0 -0.00197212 0 0)
(-50.1518 -0.55897 0 -0.00274744 0 0)
(-50.0233 -0.630574 0 -0.0036408 0 0)
(-49.8656 -0.71345 0 -0.00467398 0 0)
(-49.6835 -0.810456 0 -0.00585096 0 0)
(-49.4843 -0.925262 0 -0.00717074 0 0)
(-49.2736 -1.06104 0 -0.00861722 0 0)
(-49.0594 -1.22313 0 -0.0101457 0 0)
(-48.8485 -1.41415 0 -0.0116082 0 0)
(-48.6545 -1.63869 0 -0.0126643 0 0)
(-48.4899 -1.89262 0 -0.0126813 0 0)
(-48.3773 -2.17528 0 -0.0108048 0 0)
(-49.6445 -0.105121 0 0.00516507 0 0)
(-49.6754 -0.193835 0 0.00251272 0 0)
(-49.7354 -0.272897 0 0.00088859 0 0)
(-49.8002 -0.337143 0 -9.67073e-05 0 0)
(-49.8241 -0.393055 0 -0.00082568 0 0)
(-49.8022 -0.449848 0 -0.00151031 0 0)
(-49.7501 -0.512641 0 -0.00222968 0 0)
(-49.6803 -0.583074 0 -0.00300028 0 0)
(-49.5955 -0.66219 0 -0.00382882 0 0)
(-49.4938 -0.752046 0 -0.00472211 0 0)
(-49.3706 -0.854784 0 -0.00567911 0 0)
(-49.2272 -0.973978 0 -0.00669936 0 0)
(-49.0654 -1.11281 0 -0.00775573 0 0)
(-48.8973 -1.27604 0 -0.00877933 0 0)
(-48.7287 -1.46539 0 -0.00959417 0 0)
(-48.5806 -1.68358 0 -0.00988839 0 0)
(-48.4557 -1.92573 0 -0.00910228 0 0)
(-48.3853 -2.19008 0 -0.00659768 0 0)
(-49.9617 -0.072073 0 0.00583799 0 0)
(-49.9445 -0.152566 0 0.00361273 0 0)
(-49.9289 -0.245001 0 0.00186551 0 0)
(-49.9372 -0.320945 0 0.000816266 0 0)
(-49.942 -0.385324 0 -2.15793e-05 0 0)
(-49.9231 -0.448529 0 -0.000781342 0 0)
(-49.8798 -0.515086 0 -0.00152239 0 0)
(-49.8186 -0.588212 0 -0.00228027 0 0)
(-49.7434 -0.671384 0 -0.00308546 0 0)
(-49.6548 -0.768038 0 -0.00398654 0 0)
(-49.5504 -0.880041 0 -0.00499193 0 0)
(-49.4299 -1.00928 0 -0.00605439 0 0)
(-49.2957 -1.15674 0 -0.00707219 0 0)
(-49.156 -1.32494 0 -0.00793206 0 0)
(-49.0197 -1.51399 0 -0.00842704 0 0)
(-48.9016 -1.72553 0 -0.00826749 0 0)
(-48.8099 -1.95467 0 -0.00696356 0 0)
(-48.7609 -2.20018 0 -0.00408805 0 0)
(-49.7008 -0.0936244 0 0.00568864 0 0)
(-49.735 -0.185539 0 0.00359624 0 0)
(-49.7559 -0.272596 0 0.00172881 0 0)
(-49.7944 -0.343734 0 0.000517796 0 0)
(-49.8347 -0.406632 0 -0.000284172 0 0)
(-49.8495 -0.471449 0 -0.000893554 0 0)
(-49.8269 -0.542047 0 -0.00149307 0 0)
(-49.771 -0.620439 0 -0.00215971 0 0)
(-49.6908 -0.708463 0 -0.00288211 0 0)
(-49.5957 -0.808165 0 -0.00361922 0 0)
(-49.4919 -0.921216 0 -0.00432056 0 0)
(-49.3844 -1.04998 0 -0.00494832 0 0)
(-49.2764 -1.1959 0 -0.00543163 0 0)
(-49.1739 -1.36111 0 -0.00567507 0 0)
(-49.0805 -1.54485 0 -0.00548597 0 0)
(-49.0063 -1.7476 0 -0.00460055 0 0)
(-48.954 -1.96434 0 -0.0026132 0 0)
(-48.9364 -2.19392 0 0.000807564 0 0)
(-50.0611 -0.0633525 0 0.00601221 0 0)
(-50.0698 -0.162321 0 0.00382654 0 0)
(-50.0765 -0.233256 0 0.00206856 0 0)
(-50.0962 -0.304414 0 0.00098344 0 0)
(-50.1134 -0.377891 0 0.000190193 0 0)
(-50.1133 -0.453551 0 -0.000484041 0 0)
(-50.0946 -0.533525 0 -0.00117807 0 0)
(-50.0614 -0.620682 0 -0.00193215 0 0)
(-50.0162 -0.717188 0 -0.00271535 0 0)
(-49.9573 -0.824646 0 -0.0034743 0 0)
(-49.8842 -0.944268 0 -0.00415223 0 0)
(-49.7968 -1.0781 0 -0.00470876 0 0)
(-49.7017 -1.22724 0 -0.00507002 0 0)
(-49.6041 -1.39318 0 -0.005135 0 0)
(-49.5174 -1.57466 0 -0.00472101 0 0)
(-49.4459 -1.77171 0 -0.00358886 0 0)
(-49.4047 -1.97952 0 -0.00139487 0 0)
(-49.3895 -2.19758 0 0.00209328 0 0)
(-50.236 -0.0615582 0 0.00709783 0 0)
(-50.2411 -0.179296 0 0.00485575 0 0)
(-50.2527 -0.257805 0 0.00248203 0 0)
(-50.2711 -0.333328 0 0.00133057 0 0)
(-50.2743 -0.408126 0 0.00062211 0 0)
(-50.2565 -0.481562 0 6.55809e-05 0 0)
(-50.2228 -0.558387 0 -0.000482633 0 0)
(-50.1797 -0.643648 0 -0.0010673 0 0)
(-50.1305 -0.740221 0 -0.00166629 0 0)
(-50.0754 -0.849611 0 -0.00224401 0 0)
(-50.0151 -0.972348 0 -0.00274934 0 0)
(-49.9518 -1.10897 0 -0.00310024 0 0)
(-49.8907 -1.25907 0 -0.00317291 0 0)
(-49.837 -1.42289 0 -0.00283071 0 0)
(-49.7983 -1.59849 0 -0.00189267 0 0)
(-49.7782 -1.78621 0 -0.000162821 0 0)
(-49.7841 -1.98149 0 0.0026151 0 0)
(-49.8136 -2.18579 0 0.00656159 0 0)
(-50.2948 -0.0845999 0 0.0086057 0 0)
(-50.2682 -0.140576 0 0.00626049 0 0)
(-50.277 -0.223761 0 0.00440735 0 0)
(-50.3254 -0.310703 0 0.00319491 0 0)
(-50.3728 -0.392389 0 0.00226784 0 0)
(-50.4009 -0.470918 0 0.00160621 0 0)
(-50.4089 -0.553002 0 0.00103539 0 0)
(-50.4017 -0.64389 0 0.000458336 0 0)
(-50.3845 -0.745429 0 -0.000105563 0 0)
(-50.3624 -0.858281 0 -0.000592214 0 0)
(-50.3375 -0.98247 0 -0.000915551 0 0)
(-50.3118 -1.11846 0 -0.000994679 0 0)
(-50.286 -1.26583 0 -0.00073685 0 0)
(-50.2648 -1.4248 0 -2.87754e-05 0 0)
(-50.2503 -1.59375 0 0.00123573 0 0)
(-50.2497 -1.77284 0 0.00324301 0 0)
(-50.2634 -1.95854 0 0.00615373 0 0)
(-50.2976 -2.15194 0 0.0100796 0 0)
(-50.103 -0.0803824 0 0.00823072 0 0)
(-50.17 -0.15191 0 0.00621994 0 0)
(-50.215 -0.228201 0 0.004182 0 0)
(-50.2546 -0.304115 0 0.00317335 0 0)
(-50.2942 -0.383371 0 0.0024924 0 0)
(-50.3248 -0.468766 0 0.0018751 0 0)
(-50.3394 -0.559724 0 0.00132155 0 0)
(-50.3399 -0.656099 0 0.0008804 0 0)
(-50.3331 -0.759655 0 0.000568153 0 0)
(-50.3264 -0.873439 0 0.000378911 0 0)
(-50.3232 -0.99914 0 0.000309002 0 0)
(-50.3257 -1.13748 0 0.000388821 0 0)
(-50.3336 -1.28671 0 0.000725909 0 0)
(-50.349 -1.44596 0 0.00147437 0 0)
(-50.3713 -1.61201 0 0.00280666 0 0)
(-50.406 -1.78506 0 0.00488138 0 0)
(-50.4501 -1.96093 0 0.00783848 0 0)
(-50.5144 -2.1423 0 0.0117445 0 0)
(-50.002 -0.0125396 0 0.0101832 0 0)
(-50.014 -0.127091 0 0.00865784 0 0)
(-50.0268 -0.207855 0 0.00646479 0 0)
(-50.0458 -0.282189 0 0.00513015 0 0)
(-50.069 -0.362447 0 0.00430086 0 0)
(-50.0936 -0.449918 0 0.00367637 0 0)
(-50.1145 -0.542998 0 0.00311596 0 0)
(-50.1306 -0.640653 0 0.00266178 0 0)
(-50.1471 -0.743281 0 0.00240428 0 0)
(-50.1711 -0.852946 0 0.00240423 0 0)
(-50.2074 -0.971396 0 0.00268414 0 0)
(-50.2587 -1.10032 0 0.00324326 0 0)
(-50.3248 -1.23908 0 0.00410571 0 0)
(-50.4052 -1.38787 0 0.00532476 0 0)
(-50.4972 -1.54362 0 0.00697825 0 0)
(-50.6005 -1.70678 0 0.00921716 0 0)
(-50.7121 -1.8722 0 0.0121614 0 0)
(-50.8351 -2.04317 0 0.0158056 0 0)
(-50.0576 -0.0702834 0 0.0112754 0 0)
(-50.0029 -0.127165 0 0.00978031 0 0)
(-50.0011 -0.194413 0 0.00638127 0 0)
(-50.0438 -0.275383 0 0.00476831 0 0)
(-50.1 -0.361981 0 0.00420475 0 0)
(-50.158 -0.450477 0 0.00402102 0 0)
(-50.2172 -0.541942 0 0.00385695 0 0)
(-50.2769 -0.637541 0 0.00368742 0 0)
(-50.3369 -0.737043 0 0.0036605 0 0)
(-50.3997 -0.841068 0 0.00390959 0 0)
(-50.4673 -0.950729 0 0.00449742 0 0)
(-50.5433 -1.06852 0 0.0054261 0 0)
(-50.6295 -1.19498 0 0.00665954 0 0)
(-50.7302 -1.33135 0 0.00818019 0 0)
(-50.8435 -1.47479 0 0.00997635 0 0)
(-50.9727 -1.62582 0 0.0121672 0 0)
(-51.1103 -1.77847 0 0.0148666 0 0)
(-51.2641 -1.93657 0 0.0181045 0 0)
(-49.7405 -0.113729 0 0.0131941 0 0)
(-49.7641 -0.119676 0 0.0121888 0 0)
(-49.791 -0.161623 0 0.00885371 0 0)
(-49.8115 -0.231905 0 0.00751226 0 0)
(-49.833 -0.308762 0 0.00710914 0 0)
(-49.8744 -0.384732 0 0.007041 0 0)
(-49.9376 -0.463438 0 0.00698935 0 0)
(-50.0135 -0.549633 0 0.00694195 0 0)
(-50.0958 -0.644028 0 0.00702591 0 0)
(-50.1833 -0.744916 0 0.00739037 0 0)
(-50.2763 -0.849735 0 0.00812206 0 0)
(-50.3772 -0.958295 0 0.00922326 0 0)
(-50.4882 -1.07033 0 0.0106711 0 0)
(-50.6134 -1.18801 0 0.0124581 0 0)
(-50.7528 -1.31033 0 0.0145193 0 0)
(-50.9101 -1.4401 0 0.0168825 0 0)
(-51.0801 -1.57261 0 0.0195015 0 0)
(-51.2685 -1.71279 0 0.0222617 0 0)
(-49.8264 0.00221596 0 0.0110613 0 0)
(-49.9447 -0.101193 0 0.0107561 0 0)
(-50.0432 -0.18753 0 0.00810131 0 0)
(-50.1326 -0.258955 0 0.00651176 0 0)
(-50.2258 -0.322301 0 0.00588203 0 0)
(-50.3256 -0.384813 0 0.00569624 0 0)
(-50.4292 -0.452263 0 0.00578713 0 0)
(-50.5378 -0.528079 0 0.00607562 0 0)
(-50.6533 -0.611739 0 0.0064792 0 0)
(-50.7759 -0.700961 0 0.00700994 0 0)
(-50.9051 -0.792803 0 0.0077402 0 0)
(-51.0419 -0.886366 0 0.00872424 0 0)
(-51.1875 -0.980513 0 0.00998585 0 0)
(-51.3441 -1.07691 0 0.0115507 0 0)
(-51.5121 -1.17431 0 0.0134201 0 0)
(-51.6925 -1.27583 0 0.0156451 0 0)
(-51.8845 -1.37751 0 0.0181998 0 0)
(-52.0882 -1.4848 0 0.0210419 0 0)
(-50.0668 0.0666287 0 0.0112396 0 0)
(-50.0082 0.0102158 0 0.0115044 0 0)
(-50.0027 -0.0460419 0 0.00792647 0 0)
(-50.0627 -0.102672 0 0.00581885 0 0)
(-50.1508 -0.160124 0 0.00513133 0 0)
(-50.2426 -0.218032 0 0.00518502 0 0)
(-50.3383 -0.279575 0 0.00554824 0 0)
(-50.447 -0.347913 0 0.00597044 0 0)
(-50.5739 -0.422685 0 0.00635319 0 0)
(-50.7198 -0.501489 0 0.00677798 0 0)
(-50.8811 -0.581252 0 0.00738318 0 0)
(-51.0539 -0.660708 0 0.00824494 0 0)
(-51.2345 -0.73895 0 0.00936425 0 0)
(-51.4218 -0.81771 0 0.0107284 0 0)
(-51.6145 -0.897012 0 0.012302 0 0)
(-51.8134 -0.979904 0 0.0141192 0 0)
(-52.0173 -1.06383 0 0.0161148 0 0)
(-52.2287 -1.15284 0 0.0182309 0 0)
(-50.2499 -0.0749329 0 0.010259 0 0)
(-50.3147 -0.0616129 0 0.00988815 0 0)
(-50.4092 -0.0984342 0 0.00741087 0 0)
(-50.5338 -0.153942 0 0.00587749 0 0)
(-50.6673 -0.210077 0 0.00508372 0 0)
(-50.7982 -0.260779 0 0.00488891 0 0)
(-50.9286 -0.306257 0 0.00503283 0 0)
(-51.0652 -0.35056 0 0.00531443 0 0)
(-51.2131 -0.39855 0 0.00572936 0 0)
(-51.3734 -0.453026 0 0.00630676 0 0)
(-51.5454 -0.513315 0 0.00703133 0 0)
(-51.7258 -0.578049 0 0.00789206 0 0)
(-51.9129 -0.645084 0 0.00889014 0 0)
(-52.1054 -0.714194 0 0.0100312 0 0)
(-52.3047 -0.783983 0 0.0112869 0 0)
(-52.5107 -0.855876 0 0.0126884 0 0)
(-52.7255 -0.927131 0 0.014207 0 0)
(-52.9474 -1.00069 0 0.0158362 0 0)
(-49.9845 0.0819828 0 0.0114537 0 0)
(-50.0314 0.0759911 0 0.00957649 0 0)
(-50.0879 0.0485226 0 0.00642807 0 0)
(-50.1791 0.0115375 0 0.00513571 0 0)
(-50.3114 -0.0313347 0 0.00480196 0 0)
(-50.4692 -0.0775418 0 0.00484459 0 0)
(-50.6361 -0.124362 0 0.00505894 0 0)
(-50.8063 -0.171855 0 0.00537207 0 0)
(-50.9801 -0.221666 0 0.00574925 0 0)
(-51.1602 -0.274981 0 0.00617758 0 0)
(-51.3491 -0.331026 0 0.00667488 0 0)
(-51.5494 -0.388684 0 0.00727935 0 0)
(-51.7608 -0.446102 0 0.00802112 0 0)
(-51.9832 -0.503123 0 0.00891352 0 0)
(-52.2139 -0.558631 0 0.0099192 0 0)
(-52.4533 -0.614546 0 0.0110752 0 0)
(-52.6967 -0.669168 0 0.0123452 0 0)
(-52.9478 -0.726428 0 0.0136826 0 0)
(-50.0464 -0.0131503 0 0.00984209 0 0)
(-50.101 -0.0178094 0 0.00792825 0 0)
(-50.1695 -0.0201133 0 0.0055994 0 0)
(-50.2712 -0.0359784 0 0.00466572 0 0)
(-50.3982 -0.0637942 0 0.00450627 0 0)
(-50.5316 -0.0956313 0 0.00473217 0 0)
(-50.6664 -0.127686 0 0.00503067 0 0)
(-50.8093 -0.161033 0 0.00528466 0 0)
(-50.9665 -0.197161 0 0.00552815 0 0)
(-51.14 -0.236148 0 0.00582836 0 0)
(-51.3289 -0.276792 0 0.0062319 0 0)
(-51.5309 -0.318384 0 0.00676102 0 0)
(-51.7427 -0.360531 0 0.00741071 0 0)
(-51.9625 -0.404189 0 0.00817663 0 0)
(-52.1881 -0.449128 0 0.00901468 0 0)
(-52.4193 -0.496431 0 0.00994075 0 0)
(-52.6549 -0.544127 0 0.0109126 0 0)
(-52.8959 -0.593737 0 0.0118997 0 0)
(-50.3784 0.0946112 0 0.0085932 0 0)
(-50.4257 0.0916634 0 0.00592285 0 0)
(-50.4984 0.0970981 0 0.00374298 0 0)
(-50.6053 0.0843835 0 0.00304913 0 0)
(-50.7414 0.0558286 0 0.00297708 0 0)
(-50.8883 0.0226869 0 0.00307903 0 0)
(-51.0367 -0.00888056 0 0.00324473 0 0)
(-51.1908 -0.0383196 0 0.00344504 0 0)
(-51.356 -0.0675544 0 0.00367343 0 0)
(-51.5332 -0.0986817 0 0.00395313 0 0)
(-51.7208 -0.132301 0 0.00429811 0 0)
(-51.9176 -0.168244 0 0.00471319 0 0)
(-52.1238 -0.205383 0 0.0051975 0 0)
(-52.3398 -0.243271 0 0.00575226 0 0)
(-52.5661 -0.280667 0 0.00635979 0 0)
(-52.8026 -0.318388 0 0.00703641 0 0)
(-53.0474 -0.354953 0 0.00776015 0 0)
(-53.2998 -0.392702 0 0.00851053 0 0)
(-49.7523 0.0430714 0 0.00786891 0 0)
(-49.751 0.0506351 0 0.00563769 0 0)
(-49.8092 0.0588232 0 0.00385379 0 0)
(-49.922 0.0539598 0 0.00316643 0 0)
(-50.0642 0.0394436 0 0.00300994 0 0)
(-50.2213 0.0212157 0 0.00308443 0 0)
(-50.3898 0.00149609 0 0.0032485 0 0)
(-50.5705 -0.019599 0 0.00343024 0 0)
(-50.7634 -0.042231 0 0.00361388 0 0)
(-50.9675 -0.0662612 0 0.0038213 0 0)
(-51.1832 -0.0908973 0 0.00407965 0 0)
(-51.4123 -0.115543 0 0.0043965 0 0)
(-51.6553 -0.139661 0 0.00476114 0 0)
(-51.9115 -0.163824 0 0.00517171 0 0)
(-52.178 -0.188251 0 0.00561551 0 0)
(-52.4525 -0.21419 0 0.00612444 0 0)
(-52.7315 -0.240967 0 0.00667954 0 0)
(-53.0145 -0.270295 0 0.00725423 0 0)
(-50.1129 0.0583101 0 0.00668713 0 0)
(-50.2323 0.130932 0 0.0046878 0 0)
(-50.3897 0.141795 0 0.00314782 0 0)
(-50.564 0.133234 0 0.00252646 0 0)
(-50.7442 0.123933 0 0.00233438 0 0)
(-50.9257 0.11469 0 0.00233266 0 0)
(-51.1063 0.102178 0 0.00241094 0 0)
(-51.2913 0.0862884 0 0.00251797 0 0)
(-51.4879 0.0688961 0 0.00263673 0 0)
(-51.6993 0.0513702 0 0.0027649 0 0)
(-51.9237 0.0343655 0 0.00290807 0 0)
(-52.1567 0.0175692 0 0.00307099 0 0)
(-52.3935 0.000524437 0 0.00326354 0 0)
(-52.6314 -0.0177132 0 0.00350415 0 0)
(-52.8679 -0.0371104 0 0.00378335 0 0)
(-53.1039 -0.058171 0 0.00412141 0 0)
(-53.3397 -0.0798156 0 0.00450034 0 0)
(-53.5789 -0.10292 0 0.00489008 0 0)
(-49.6127 0.0819884 0 0.00586234 0 0)
(-49.835 0.125688 0 0.00375955 0 0)
(-50.0502 0.145508 0 0.00236433 0 0)
(-50.2206 0.147608 0 0.00173521 0 0)
(-50.3643 0.142927 0 0.00153191 0 0)
(-50.5108 0.134724 0 0.00148143 0 0)
(-50.6747 0.123314 0 0.00146907 0 0)
(-50.8585 0.110964 0 0.0014985 0 0)
(-51.0608 0.099594 0 0.00156075 0 0)
(-51.2778 0.0888892 0 0.00164363 0 0)
(-51.5054 0.0776041 0 0.00175727 0 0)
(-51.7405 0.0647022 0 0.00191133 0 0)
(-51.9808 0.0499676 0 0.00210437 0 0)
(-52.2251 0.033577 0 0.00232956 0 0)
(-52.4723 0.0164105 0 0.00257331 0 0)
(-52.7223 -0.00117371 0 0.00284828 0 0)
(-52.9746 -0.0181458 0 0.0031409 0 0)
(-53.2298 -0.0348286 0 0.00343925 0 0)
(-50.2047 0.167655 0 0.00374633 0 0)
(-50.3562 0.199349 0 0.0012301 0 0)
(-50.5636 0.201048 0 0.000562639 0 0)
(-50.759 0.193652 0 0.000382921 0 0)
(-50.9306 0.190502 0 0.000301906 0 0)
(-51.1066 0.189692 0 0.000255478 0 0)
(-51.3026 0.187269 0 0.000234942 0 0)
(-51.5166 0.182921 0 0.000233291 0 0)
(-51.7407 0.177806 0 0.000241149 0 0)
(-51.9673 0.172502 0 0.000254929 0 0)
(-52.1922 0.166666 0 0.000281476 0 0)
(-52.4146 0.159861 0 0.000330286 0 0)
(-52.6366 0.151616 0 0.000409698 0 0)
(-52.8599 0.141884 0 0.000522824 0 0)
(-53.0874 0.130784 0 0.000664856 0 0)
(-53.3189 0.118775 0 0.000834032 0 0)
(-53.5579 0.106384 0 0.00102354 0 0)
(-53.8014 0.0939148 0 0.00122614 0 0)
(-50.1707 0.124037 0 0.0034958 0 0)
(-50.4961 0.218723 0 0.000636819 0 0)
(-50.783 0.21595 0 0.000153503 0 0)
(-51.0108 0.21487 0 7.31689e-06 0 0)
(-51.2099 0.221308 0 -0.000110892 0 0)
(-51.4015 0.225177 0 -0.000177658 0 0)
(-51.5844 0.224623 0 -0.000188015 0 0)
(-51.7539 0.221777 0 -0.000160401 0 0)
(-51.9093 0.21775 0 -0.000108784 0 0)
(-52.0535 0.212482 0 -3.88597e-05 0 0)
(-52.1884 0.205679 0 4.70823e-05 0 0)
(-52.3192 0.197713 0 0.000144155 0 0)
(-52.4471 0.188938 0 0.000252816 0 0)
(-52.5781 0.180165 0 0.000370338 0 0)
(-52.7086 0.171627 0 0.000489864 0 0)
(-52.8461 0.164114 0 0.000612914 0 0)
(-52.9808 0.157431 0 0.000733924 0 0)
(-53.1274 0.152301 0 0.000829674 0 0)
(-49.0752 0.225312 0 0.00135922 0 0)
(-47.5024 0.268155 0 -3.10771e-05 0 0)
(-45.9621 0.249335 0 -0.00019051 0 0)
(-44.427 0.23955 0 -0.000280711 0 0)
(-42.9353 0.237434 0 -0.000426644 0 0)
(-41.5263 0.233016 0 -0.000504923 0 0)
(-40.2164 0.224384 0 -0.000505788 0 0)
(-39.0076 0.213888 0 -0.000480499 0 0)
(-37.895 0.203693 0 -0.000456301 0 0)
(-36.8722 0.194621 0 -0.000440504 0 0)
(-35.9307 0.186497 0 -0.000431124 0 0)
(-35.0677 0.178937 0 -0.000422239 0 0)
(-34.2753 0.171446 0 -0.000407426 0 0)
(-33.5547 0.163936 0 -0.000386702 0 0)
(-32.8922 0.156286 0 -0.000358851 0 0)
(-32.2948 0.148931 0 -0.000324806 0 0)
(-31.7373 0.141844 0 -0.000290499 0 0)
(-31.2429 0.13575 0 -0.000263172 0 0)
(0.00548519 -0.0166565 -1.60994e-22 0.0478839 3.17336e-22 4.16406e-39)
(0.105797 -0.100206 3.27447e-22 0.082511 -1.1523e-22 4.09901e-39)
(0.353625 -0.163411 0 0.0553588 0 0)
(0.655874 -0.157105 0 0.00731744 0 0)
(0.849552 -0.0586733 0 -0.0482639 0 0)
(0.860394 0.0796064 1.73116e-22 -0.0820254 -4.36303e-22 3.85235e-39)
(0.599037 0.228689 0 -0.0946813 0 0)
(0.099799 0.337651 0 -0.0871792 0 0)
(-0.567154 0.403477 0 -0.0698792 0 0)
(-1.30168 0.416613 0 -0.047767 0 0)
(-2.03164 0.38073 -2.46255e-21 -0.0251724 4.46807e-22 3.53947e-39)
(-2.66879 0.303502 0 -0.00513927 0 0)
(-3.13572 0.194756 0 0.0104494 0 0)
(-3.37215 0.0652148 0 0.0202704 0 0)
(-3.33756 -0.0744955 0 0.0236333 0 0)
(-3.02267 -0.211313 -4.04644e-21 0.0200697 -4.89234e-23 3.26003e-39)
(-2.43479 -0.333336 0 0.00958221 0 0)
(-1.62459 -0.424918 0 -0.00716961 0 0)
(-0.643542 -0.475676 0 -0.0290411 0 0)
(0.385781 -0.471143 0 -0.0517382 0 0)
(1.4076 -0.41139 0 -0.0719471 0 0)
(2.23038 -0.294696 0 -0.0765483 0 0)
(2.87163 -0.151104 0 -0.0660089 0 0)
(3.13241 -0.0056546 -1.32342e-21 0.00541269 -3.66871e-22 2.88871e-39)
(3.22678 0.0346584 9.62705e-22 0.057652 3.18742e-22 2.84529e-39)
(3.13497 -0.0681821 -6.84583e-22 0.17469 -8.23452e-23 2.80072e-39)
(3.30456 -0.389294 -5.70436e-22 0.233889 2.50664e-22 2.75521e-39)
(3.78689 -0.66409 0 0.326566 0 0)
(4.46285 -0.863409 0 0.425003 0 0)
(5.33779 -1.08847 5.44233e-22 0.550744 -2.62067e-22 2.61074e-39)
(6.3733 -1.27297 5.80407e-22 0.667954 -2.07608e-22 2.56283e-39)
(7.5551 -1.38905 0 0.719177 0 0)
(8.93226 -1.45092 0 0.709557 0 0)
(10.5502 -1.48329 9.72359e-22 0.667839 -7.70427e-23 2.4203e-39)
(12.368 -1.46543 0 0.595992 0 0)
(14.1684 -1.24475 0 0.46318 0 0)
(15.4842 -0.780079 -1.54172e-21 0.315361 -3.24299e-22 2.28125e-39)
(15.8703 -0.244368 0 0.203659 0 0)
(15.1261 0.32175 -1.11916e-21 0.141208 -4.68038e-22 2.19406e-39)
(13.1136 0.776391 -1.31249e-21 0.136993 -9.52574e-22 8.6086e-39)
(10.303 0.52727 0 0.175012 0 0)
(7.05789 -0.013021 0 0.227612 0 0)
(3.02665 0.345975 0 0.259026 0 0)
(-2.1614 1.56327 0 0.116409 0 0)
(-8.52973 2.57261 0 0.0361517 0 0)
(-15.1377 2.70551 1.59698e-20 0.058038 -2.42257e-21 7.65546e-39)
(-21.0221 2.41459 2.03359e-20 0.0711913 -2.14999e-21 7.50268e-39)
(-26.1295 2.06954 2.45002e-20 0.0763262 -1.81776e-21 7.3535e-39)
(-30.4223 1.71678 0 0.0765399 0 0)
(-33.9212 1.38204 -3.13426e-20 0.0744079 1.10913e-21 7.06709e-39)
(-36.6694 1.07438 0 0.0710989 0 0)
(-38.72 0.797395 3.54444e-20 0.0672249 -4.70192e-22 6.79687e-39)
(-40.129 0.550511 3.63936e-20 0.0630663 -1.95428e-22 6.66755e-39)
(-40.9523 0.33216 0 0.0587185 0 0)
(-41.2461 0.13989 0 0.0542493 0 0)
(-41.0604 -0.0286583 0 0.0496924 0 0)
(-40.4456 -0.175513 3.37232e-20 0.0450825 5.91936e-22 6.18393e-39)
(-39.4479 -0.302457 0 0.0404586 0 0)
(-38.1136 -0.41102 0 0.0358643 0 0)
(-36.4855 -0.50236 0 0.0313348 0 0)
(-34.6055 -0.577799 0 0.0269244 0 0)
(-32.514 -0.638403 0 0.0226759 0 0)
(-30.2483 -0.685597 0 0.0186438 0 0)
(-27.8432 -0.72074 0 0.0148718 0 0)
(-25.3299 -0.745399 0 0.0114027 0 0)
(-22.7355 -0.760797 -8.03799e-21 0.00825948 -9.36635e-22 5.2331e-39)
(-20.0844 -0.768579 0 0.005465 0 0)
(-17.3988 -0.769337 0 0.00300746 0 0)
(-14.6989 -0.764227 -8.61254e-22 0.000881091 8.1135e-22 4.94363e-39)
(-12.0037 -0.75355 -3.52787e-21 -0.000944427 7.59771e-22 4.84946e-39)
(-9.33215 -0.737626 0 -0.00250718 0 0)
(-6.70275 -0.716412 8.26605e-21 -0.00382815 -6.46101e-22 4.66438e-39)
(-4.13412 -0.690336 -1.03015e-20 -0.00492575 5.85125e-22 4.57342e-39)
(-1.64401 -0.659543 0 -0.0058148 0 0)
(0.75017 -0.624569 1.36453e-20 -0.00651836 -4.58333e-22 4.39475e-39)
(3.03212 -0.585727 0 -0.00706799 0 0)
(5.18673 -0.543635 0 -0.00750304 0 0)
(7.20052 -0.498769 -1.67797e-20 -0.00786615 2.66496e-22 4.1345e-39)
(9.06239 -0.451558 0 -0.00819642 0 0)
(10.7631 -0.402649 1.76519e-20 -0.00852167 -1.43567e-22 3.96638e-39)
(12.2933 -0.352182 0 -0.00885982 0 0)
(13.6452 -0.300394 -1.76289e-20 -0.00921336 2.77823e-23 3.80277e-39)
(14.8108 -0.247574 -1.7307e-20 -0.00957368 -2.68618e-23 3.72267e-39)
(15.7817 -0.193882 -1.67922e-20 -0.00992325 -7.89729e-23 3.64375e-39)
(16.5511 -0.139348 -3.21945e-20 -0.0102365 -2.56728e-22 1.42641e-38)
(17.1127 -0.0845788 3.04719e-20 -0.0104916 3.48777e-22 1.3958e-38)
(17.461 -0.0297751 0 -0.0106582 0 0)
(17.593 0.0244717 0 -0.0107126 0 0)
(17.5083 0.0773742 0 -0.0106376 0 0)
(17.2094 0.12826 2.09688e-20 -0.010406 6.31246e-22 1.27842e-38)
(16.7022 0.176097 1.81695e-20 -0.0100147 6.75035e-22 1.25037e-38)
(15.9966 0.219915 -1.53082e-20 -0.00945712 -7.06355e-22 1.22285e-38)
(15.1066 0.258762 0 -0.00873526 0 0)
(14.0507 0.291676 9.62831e-21 -0.00788154 7.30615e-22 1.16934e-38)
(12.8514 0.317821 6.91949e-21 -0.00692642 7.24028e-22 1.14332e-38)
(11.5346 0.336506 4.36299e-21 -0.00591641 7.06024e-22 1.11777e-38)
(10.1278 0.347259 0 -0.00489897 0 0)
(8.66069 0.35001 0 -0.00391923 0 0)
(7.16604 0.344944 0 -0.00301737 0 0)
(5.67633 0.332831 -3.71848e-21 -0.00221938 5.48486e-22 1.0198e-38)
(4.22569 0.317627 0 -0.0015206 0 0)
(2.84186 0.296008 0 -0.000962703 0 0)
(1.53706 0.270724 7.24542e-21 -0.000542186 -3.97326e-22 9.49319e-39)
(0.326357 0.243624 0 -0.000235983 0 0)
(-0.780891 0.215948 0 -2.45418e-05 0 0)
(-1.78172 0.188793 9.0558e-21 0.00011445 -2.54597e-22 8.82782e-39)
(-2.67753 0.162958 0 0.00020092 0 0)
(-3.47287 0.13893 0 0.000250001 0 0)
(-4.17426 0.116968 -9.78571e-21 0.000272901 1.45724e-22 8.20435e-39)
(-4.78925 0.0971967 -9.88172e-21 0.000278282 1.18099e-22 8.00506e-39)
(-5.32591 0.0796484 0 0.000272686 0 0)
(-5.79251 0.064224 9.93846e-21 0.000259987 -7.47871e-23 7.61845e-39)
(-6.19692 0.0506744 0 0.000241882 0 0)
(-6.54607 0.0386571 -9.87898e-21 0.000219127 4.41495e-23 7.24707e-39)
(-6.84532 0.0278517 0 0.000192207 0 0)
(-7.09866 0.0180587 -9.74923e-21 0.000162029 2.07485e-23 6.89023e-39)
(-7.30948 0.00923192 -9.66382e-21 0.000130591 1.05709e-23 6.71708e-39)
(-7.4814 0.00139992 0 0.000100745 0 0)
(-7.61849 -0.00541397 0 7.45662e-05 0 0)
(-7.72537 -0.011242 0 5.25062e-05 0 0)
(-7.80639 -0.0161778 0 3.39743e-05 0 0)
(-7.8653 -0.0203106 0 1.82487e-05 0 0)
(-7.90552 -0.0237638 0 4.63936e-06 0 0)
(-7.92946 -0.0267483 0 -7.34703e-06 0 0)
(-7.93867 -0.0294769 -8.70533e-21 -1.80777e-05 -3.21698e-23 5.44908e-39)
(-7.93393 -0.0321272 8.57937e-21 -2.82086e-05 3.40504e-23 5.30434e-39)
(-7.91538 -0.0347947 0 -3.85712e-05 0 0)
(-7.88278 -0.0374924 0 -4.97512e-05 0 0)
(-7.83565 -0.0402021 0 -6.20046e-05 0 0)
(-7.77349 -0.0428626 0 -7.49024e-05 0 0)
(-7.69601 -0.0453763 1.5911e-20 -8.73012e-05 9.07022e-23 1.84918e-38)
(-7.60332 -0.0476801 0 -9.82881e-05 0 0)
(-7.49579 -0.0497237 -1.5385e-20 -0.000107082 -9.91762e-23 1.74772e-38)
(-7.37431 -0.0514038 1.51124e-20 -0.000112319 1.02501e-22 1.69855e-38)
(-7.24032 -0.05264 0 -0.000113118 0 0)
(-7.09541 -0.0534177 0 -0.000109547 0 0)
(-6.94127 -0.0537145 0 -0.000101863 0 0)
(-6.77976 -0.0534654 -1.39762e-20 -9.04717e-05 -1.08706e-22 1.51179e-38)
(-6.61292 -0.0525808 -1.36859e-20 -7.65784e-05 -1.08048e-22 1.46751e-38)
(-6.44309 -0.051002 0 -6.25621e-05 0 0)
(-6.27274 -0.0487709 -1.31097e-20 -5.11032e-05 -1.01697e-22 1.38171e-38)
(-6.10423 -0.0460503 -1.28292e-20 -4.34376e-05 -9.60433e-23 1.34016e-38)
(-5.93956 -0.0430835 1.25571e-20 -3.86494e-05 8.93923e-23 1.29949e-38)
(-5.78014 -0.0401198 0 -3.47727e-05 0 0)
(-5.62676 -0.0373429 0 -3.03977e-05 0 0)
(-5.4797 -0.0348328 1.18066e-20 -2.52748e-05 6.99204e-23 1.18264e-38)
(-5.33896 -0.0325688 0 -1.98649e-05 0 0)
(-5.20445 -0.030462 0 -1.47174e-05 0 0)
(-5.07619 -0.0284006 0 -1.02219e-05 0 0)
(-4.95439 -0.0262906 0 -6.65945e-06 0 0)
(-4.83943 -0.024084 -1.07724e-20 -4.24391e-06 -4.73759e-23 1.00426e-38)
(-4.73182 -0.0217897 -1.05957e-20 -3.03798e-06 -4.29036e-23 9.70926e-39)
(-4.63199 -0.0194651 0 -2.85573e-06 0 0)
(-4.54021 -0.0171934 -1.02737e-20 -3.31339e-06 -3.38533e-23 9.06498e-39)
(-4.45645 -0.0150581 0 -3.98225e-06 0 0)
(-4.3804 -0.0131246 0 -4.55254e-06 0 0)
(-4.31142 -0.0114295 -9.86775e-21 -4.88049e-06 -2.23741e-23 8.15294e-39)
(-4.24878 -0.00998315 0 -4.96752e-06 0 0)
(-4.19153 -0.0087759 -9.64035e-21 -4.87234e-06 -1.7109e-23 7.57988e-39)
(-4.13892 -0.00778907 0 -4.67986e-06 0 0)
(-4.08986 -0.00700047 0 -4.45121e-06 0 0)
(-4.04396 -0.0063892 -9.34387e-21 -4.24426e-06 -1.24055e-23 6.77064e-39)
(-3.9999 -0.0059416 0 -4.09347e-06 0 0)
(-3.95788 -0.00563919 -9.16557e-21 -4.02912e-06 -1.09358e-23 6.26356e-39)
(-3.91594 -0.00549079 0 -4.09578e-06 0 0)
(-3.87527 -0.00546638 0 -4.29077e-06 0 0)
(-3.83242 -0.00563205 0 -4.76217e-06 0 0)
(-3.79038 -0.00589584 8.83144e-21 -5.38651e-06 1.14387e-23 5.32377e-39)
(-3.74276 -0.00648661 0 -6.73932e-06 0 0)
(-3.6955 -0.00708204 -8.665e-21 -8.11397e-06 -1.37452e-23 4.88967e-39)
(-3.63766 -0.00838686 0 -1.18524e-05 0 0)
(-3.57827 -0.00936568 0 -1.44796e-05 0 0)
(-3.50255 -0.0121346 0 -2.628e-05 0 0)
(-3.41547 -0.0134703 0 -2.99881e-05 0 0)
(-3.31336 -0.0196364 0 -7.51084e-05 0 0)