/*--------------------------------*- C++ -*----------------------------------*\
  =========                 |
  \\      /  F ield         | OpenFOAM: The Open Source CFD Toolbox
   \\    /   O peration     | Website:  https://openfoam.org
    \\  /    A nd           | Version:  9
     \\/     M anipulation  |
\*---------------------------------------------------------------------------*/
FoamFile
{
    format      ascii;
    class       volScalarField;
    location    "0.051";
    object      k;
}
// * * * * * * * * * * * * * * * * * * * * * * * * * * * * * * * * * * * * * //

dimensions      [0 2 -2 0 0 0 0];

internalField   nonuniform List<scalar> 
12225
(
5.82864e-05
6.13668e-05
5.55338e-05
5.51777e-05
5.51621e-05
5.30941e-05
4.51583e-05
3.88492e-05
3.3138e-05
2.74333e-05
2.34686e-05
2.1992e-05
2.19911e-05
2.35511e-05
3.15361e-05
4.73672e-05
5.24756e-05
0.00010662
2.08082e-05
2.20154e-05
2.3601e-05
2.59825e-05
2.74279e-05
2.75977e-05
2.72353e-05
2.65063e-05
2.60358e-05
2.54186e-05
2.41761e-05
2.28655e-05
2.22163e-05
2.21985e-05
2.25255e-05
2.36454e-05
2.57558e-05
3.17392e-05
2.00166e-05
1.63078e-05
1.5411e-05
1.53571e-05
1.54949e-05
1.60501e-05
1.6784e-05
1.70603e-05
1.70831e-05
1.712e-05
1.71076e-05
1.69852e-05
1.68808e-05
1.68493e-05
1.69247e-05
1.72095e-05
1.77739e-05
1.87324e-05
2.08324e-05
2.04073e-05
1.98771e-05
1.96164e-05
1.94284e-05
1.92017e-05
1.86176e-05
1.76266e-05
1.74125e-05
1.75151e-05
1.7704e-05
1.77097e-05
1.74829e-05
1.64186e-05
1.55878e-05
1.53537e-05
1.53792e-05
1.55778e-05
2.55876e-05
2.36578e-05
2.13456e-05
2.10029e-05
2.1017e-05
2.11377e-05
2.14361e-05
2.22269e-05
2.50019e-05
2.96399e-05
3.12815e-05
3.09711e-05
2.85518e-05
2.43986e-05
2.14854e-05
1.98222e-05
1.92868e-05
1.90482e-05
2.07482e-05
2.10395e-05
2.1217e-05
2.12317e-05
2.12533e-05
2.13608e-05
2.18007e-05
2.377e-05
2.8337e-05
3.02255e-05
3.13773e-05
3.40752e-05
3.39021e-05
2.96202e-05
2.5361e-05
2.34129e-05
2.2677e-05
2.24725e-05
2.03643e-05
2.1927e-05
2.27806e-05
2.28073e-05
2.25957e-05
2.27405e-05
2.25928e-05
2.29712e-05
2.48223e-05
2.61132e-05
2.6483e-05
2.6468e-05
2.58562e-05
2.40786e-05
2.2883e-05
2.23472e-05
2.2215e-05
2.22207e-05
2.0102e-05
2.1575e-05
2.72962e-05
4.05204e-05
4.75809e-05
4.4647e-05
3.18691e-05
2.73342e-05
2.67267e-05
2.69517e-05
2.7148e-05
2.70635e-05
2.62713e-05
2.47078e-05
2.39357e-05
2.37583e-05
2.38532e-05
2.45965e-05
2.01197e-05
2.30757e-05
4.25826e-05
7.11208e-05
6.90985e-05
4.43735e-05
2.98588e-05
2.57189e-05
2.47361e-05
2.45547e-05
2.44782e-05
2.4273e-05
2.38033e-05
2.3531e-05
2.34496e-05
2.34502e-05
2.35201e-05
2.38412e-05
2.0116e-05
2.34019e-05
3.7849e-05
4.26084e-05
3.82644e-05
3.19637e-05
3.16341e-05
3.24352e-05
3.17015e-05
2.94212e-05
2.81736e-05
2.78599e-05
2.79926e-05
2.93387e-05
3.06851e-05
3.08223e-05
3.03824e-05
2.83342e-05
2.02287e-05
2.16727e-05
2.37182e-05
2.42994e-05
2.51458e-05
2.59752e-05
2.69181e-05
2.79582e-05
2.90812e-05
2.90757e-05
2.75693e-05
2.61632e-05
2.59131e-05
2.61721e-05
2.77224e-05
3.22353e-05
3.47207e-05
3.51695e-05
2.01228e-05
2.21169e-05
2.45142e-05
2.45151e-05
2.46229e-05
2.72267e-05
4.43335e-05
6.08829e-05
6.08906e-05
4.85427e-05
3.54834e-05
3.09989e-05
3.05964e-05
3.12831e-05
3.4568e-05
3.7373e-05
3.78203e-05
3.77272e-05
2.01135e-05
2.13818e-05
2.29698e-05
2.33409e-05
2.35395e-05
2.40449e-05
2.63137e-05
2.87081e-05
2.89125e-05
2.71088e-05
2.61071e-05
2.65695e-05
2.87645e-05
2.91471e-05
2.88992e-05
2.8755e-05
2.86932e-05
2.85943e-05
2.03248e-05
2.07336e-05
2.18445e-05
2.39753e-05
2.54584e-05
2.52179e-05
2.30641e-05
2.16961e-05
2.13888e-05
2.14609e-05
2.22091e-05
2.51054e-05
2.78884e-05
2.85465e-05
2.82227e-05
2.69317e-05
2.50694e-05
2.38437e-05
2.0359e-05
2.01332e-05
2.02431e-05
2.10824e-05
2.42756e-05
2.63111e-05
2.63921e-05
2.58114e-05
2.41412e-05
2.31746e-05
2.25777e-05
2.21874e-05
2.21212e-05
2.21821e-05
2.18751e-05
2.12546e-05
2.09347e-05
2.07765e-05
2.01951e-05
2.078e-05
2.10198e-05
2.10395e-05
2.10872e-05
2.13227e-05
2.2168e-05
2.30051e-05
2.33886e-05
2.35178e-05
2.3602e-05
2.37874e-05
2.46317e-05
2.68607e-05
2.76362e-05
2.7436e-05
2.62338e-05
2.41204e-05
2.03733e-05
2.06293e-05
2.08831e-05
2.09956e-05
2.11619e-05
2.15085e-05
2.1914e-05
2.2281e-05
2.25806e-05
2.27384e-05
2.2704e-05
2.2383e-05
2.2285e-05
2.23848e-05
2.30604e-05
2.38217e-05
2.41802e-05
2.4505e-05
2.37805e-05
2.13763e-05
2.2781e-05
2.3626e-05
2.37766e-05
2.30694e-05
2.15398e-05
2.1106e-05
2.09919e-05
2.09508e-05
2.09519e-05
2.09559e-05
2.10103e-05
2.14141e-05
2.23575e-05
2.27039e-05
2.27206e-05
2.26343e-05
2.09563e-05
2.12398e-05
2.18768e-05
2.20574e-05
2.17548e-05
2.1242e-05
2.08986e-05
2.07616e-05
2.07497e-05
2.07867e-05
2.08837e-05
2.09384e-05
2.10036e-05
2.12224e-05
2.14633e-05
2.16128e-05
2.16768e-05
2.16907e-05
2.05155e-05
2.03314e-05
2.0493e-05
2.1464e-05
2.27576e-05
2.31346e-05
2.30936e-05
2.25834e-05
2.19173e-05
2.16177e-05
2.15042e-05
2.14463e-05
2.13579e-05
2.11514e-05
2.0931e-05
2.07577e-05
2.06333e-05
2.05638e-05
2.06304e-05
2.03066e-05
2.05157e-05
2.14876e-05
2.21755e-05
2.23477e-05
2.23018e-05
2.19599e-05
2.16829e-05
2.16346e-05
2.16831e-05
2.19087e-05
2.20455e-05
2.20699e-05
2.20579e-05
2.19394e-05
2.18057e-05
2.16667e-05
2.02264e-05
2.1758e-05
2.23488e-05
2.2246e-05
2.17461e-05
2.14456e-05
2.13044e-05
2.12609e-05
2.12659e-05
2.13453e-05
2.17592e-05
2.26165e-05
2.31558e-05
2.34877e-05
2.38872e-05
2.46411e-05
2.66687e-05
2.89276e-05
2.03982e-05
2.10677e-05
2.14733e-05
2.15139e-05
2.13963e-05
2.10691e-05
2.08873e-05
2.08228e-05
2.08159e-05
2.08368e-05
2.09523e-05
2.1253e-05
2.15242e-05
2.18367e-05
2.23776e-05
2.34477e-05
2.58078e-05
3.32492e-05
2.02784e-05
2.17235e-05
2.27985e-05
2.17623e-05
2.09057e-05
2.06755e-05
2.06286e-05
2.06167e-05
2.05935e-05
2.05734e-05
2.05732e-05
2.05801e-05
2.06051e-05
2.06756e-05
2.0863e-05
2.13616e-05
2.2753e-05
2.70365e-05
2.31416e-05
2.74597e-05
2.6555e-05
2.21683e-05
2.06361e-05
2.02879e-05
2.02436e-05
2.02648e-05
2.02861e-05
2.02842e-05
2.02544e-05
2.02157e-05
2.02084e-05
2.02164e-05
2.02697e-05
2.04797e-05
2.11759e-05
2.38915e-05
2.05451e-05
2.15443e-05
2.29213e-05
2.29644e-05
2.23283e-05
2.16535e-05
2.14643e-05
2.14387e-05
2.14321e-05
2.14029e-05
2.12403e-05
2.08948e-05
2.06914e-05
2.06131e-05
2.05994e-05
2.06073e-05
2.06667e-05
2.0931e-05
2.00413e-05
2.00575e-05
2.0028e-05
1.98989e-05
1.9726e-05
1.96204e-05
1.94024e-05
1.88295e-05
1.85235e-05
1.84755e-05
1.84828e-05
1.85155e-05
1.86275e-05
1.87914e-05
1.89011e-05
1.89352e-05
1.89293e-05
1.88852e-05
2.00282e-05
1.84663e-05
1.80618e-05
1.75762e-05
1.57481e-05
1.26821e-05
1.13177e-05
1.10467e-05
1.11148e-05
1.16446e-05
1.22196e-05
1.25824e-05
1.31292e-05
1.44284e-05
1.68044e-05
1.88436e-05
2.03673e-05
2.08856e-05
2.04086e-05
2.79369e-05
3.33294e-05
3.19847e-05
2.73697e-05
2.64607e-05
2.72053e-05
2.82615e-05
2.83414e-05
2.82603e-05
2.84326e-05
2.9875e-05
3.48582e-05
5.10231e-05
7.35879e-05
8.77777e-05
9.31181e-05
9.3448e-05
4.32027e-05
0.000153737
0.000184252
0.000166811
0.0001192
9.91776e-05
8.37373e-05
7.1749e-05
6.75152e-05
6.80488e-05
7.61825e-05
0.000117448
0.000191703
0.000235702
0.000252486
0.000254376
0.000248374
0.000213302
0.104227
0.0952554
0.0818414
0.0779883
0.0777094
0.0681096
0.0618441
0.0612308
0.0593781
0.0573804
0.0560504
0.0557816
0.0560014
0.0566458
0.0570944
0.0569257
0.0565241
0.0559995
0.0554372
0.0549813
0.0547139
0.054834
0.0552095
0.055947
0.0569801
0.0581642
0.0597007
0.061406
0.0631221
0.0648398
0.0661971
0.0674638
0.0687538
0.0690642
0.068897
0.0684142
0.0670102
0.0649455
0.0632727
0.0585992
0.0553052
0.0551494
0.0593988
0.142412
0.250907
0.282737
0.294584
0.262637
0.227329
0.197153
0.179665
0.170794
0.167958
0.160506
0.157591
0.157517
0.168397
0.170333
0.162052
0.166483
0.186293
0.255315
0.368902
0.388134
0.331099
0.171259
0.0948289
0.0646512
0.0392506
0.0231642
0.0175684
0.0162722
0.0164487
0.0167254
0.0168464
0.0165672
0.0161119
0.015471
0.0146823
0.0139243
0.0129819
0.0119876
0.0111354
0.00997008
0.0091034
0.00817617
0.00712127
0.00637039
0.00567269
0.00491894
0.00452143
0.00401121
0.00377337
0.00362215
0.00356937
0.00356733
0.00356315
0.00355985
0.00354496
0.00352802
0.00351406
0.00350811
0.00349833
0.0034893
0.00347545
0.00346353
0.00344793
0.00343332
0.00341479
0.00340311
0.00338746
0.00336512
0.00333901
0.00331242
0.00328746
0.00324785
0.00321436
0.00318378
0.00313119
0.00306582
0.00296955
0.00285613
0.00273057
0.00259986
0.00247629
0.0023657
0.0022719
0.00219762
0.00213992
0.0020916
0.00205137
0.0020185
0.00199192
0.00197039
0.00195279
0.00193809
0.00192541
0.00191373
0.00190195
0.00188923
0.00187489
0.00185809
0.00183814
0.00181504
0.00178911
0.00176058
0.00172985
0.0016968
0.00166334
0.00163792
0.00162622
0.00162503
0.00162836
0.00164141
0.00166177
0.00166771
0.00166083
0.00158875
0.00121984
0.000721602
0.000508066
0.000464384
0.000472814
0.000501101
0.000502759
0.000477635
0.000357045
0.000203625
0.000113452
6.69242e-05
4.42929e-05
3.27971e-05
2.6195e-05
2.15523e-05
1.70145e-05
1.35043e-05
1.0967e-05
8.55318e-06
7.06739e-06
9.61421e-07
0.103896
0.0918039
0.0945974
0.0983974
0.0955682
0.0765656
0.0595803
0.0494019
0.0467217
0.0443262
0.043109
0.0423219
0.0418109
0.0417646
0.0420435
0.0424409
0.0429368
0.0441171
0.0468992
0.0516114
0.0578105
0.0652229
0.0728484
0.0798224
0.0859891
0.0915212
0.0960395
0.0998282
0.103062
0.105919
0.108339
0.110645
0.112612
0.113713
0.114064
0.113991
0.113258
0.111249
0.106912
0.0958822
0.0807564
0.0647465
0.0621372
0.0789075
0.151231
0.28883
0.365856
0.33654
0.311145
0.295415
0.289128
0.286989
0.274577
0.247842
0.211419
0.181753
0.180607
0.20015
0.199921
0.181233
0.196858
0.293673
0.326327
0.238003
0.132696
0.0863934
0.0571582
0.0355308
0.0217759
0.0150888
0.0121184
0.0107637
0.00988454
0.00912428
0.00845942
0.00788922
0.00738482
0.00694798
0.00655229
0.00624402
0.00590509
0.00563802
0.00543747
0.00515864
0.00502037
0.00482106
0.00465657
0.00452443
0.00442129
0.00430187
0.00424341
0.00415928
0.00411643
0.00404047
0.00395975
0.00387606
0.00382582
0.00377117
0.00372608
0.0036904
0.00367061
0.00365676
0.00365191
0.00365125
0.00365725
0.00366721
0.00368399
0.00370621
0.00373075
0.00376304
0.00379763
0.00384077
0.00388713
0.00393736
0.00399036
0.00404003
0.00408472
0.00413327
0.00418012
0.00421875
0.00424181
0.00424444
0.0042266
0.00418915
0.00412091
0.00401903
0.00388555
0.00372369
0.0035443
0.00336775
0.0032036
0.00306092
0.00294677
0.00285999
0.00279282
0.0027401
0.00269825
0.00266351
0.00263179
0.00259853
0.00255912
0.00250895
0.00244384
0.00236208
0.00226659
0.00216777
0.00208316
0.00202717
0.00199296
0.0019428
0.00182896
0.00167371
0.00154592
0.0014859
0.00147702
0.00148272
0.00151371
0.00155583
0.00156345
0.00156473
0.0015705
0.00158733
0.00163147
0.00168336
0.00171339
0.0017198
0.00171588
0.00169333
0.00163678
0.00149554
0.00118601
0.000895328
0.000682131
0.000523254
0.000403742
0.000311174
0.000244587
0.000186041
0.000162024
0.000111964
0.105408
0.0880828
0.0948471
0.103826
0.0956494
0.067264
0.0476817
0.0453292
0.0467267
0.0459043
0.0454488
0.0458165
0.0498607
0.055775
0.0629538
0.0689237
0.0750143
0.0809461
0.0863686
0.0912118
0.0955496
0.0990006
0.101463
0.10368
0.105545
0.107344
0.109047
0.110707
0.112144
0.113916
0.115634
0.117386
0.118994
0.12063
0.122283
0.123597
0.12515
0.126206
0.126492
0.124983
0.117586
0.0916159
0.0695879
0.0694742
0.0811916
0.142004
0.296516
0.322358
0.318225
0.316604
0.326327
0.336476
0.329973
0.316936
0.297834
0.231237
0.174241
0.195158
0.226663
0.247938
0.256772
0.222915
0.107421
0.0563494
0.0373806
0.0271805
0.0185607
0.0130636
0.0102569
0.00890166
0.00824975
0.00787626
0.00764065
0.00742402
0.00714615
0.00684889
0.00655296
0.00620986
0.00590913
0.00556133
0.00521893
0.00484978
0.0045332
0.00410573
0.00374924
0.0033933
0.00313066
0.00284933
0.00263717
0.00244692
0.00227251
0.0021115
0.001993
0.00191835
0.00188807
0.00188217
0.00188674
0.00190245
0.00192305
0.00194341
0.00196199
0.00197604
0.00199237
0.00201601
0.00202956
0.00204552
0.0020731
0.0020898
0.0021151
0.00214386
0.00217193
0.00220695
0.00224669
0.00229877
0.00236931
0.00246947
0.00260873
0.00278681
0.00301051
0.00328388
0.00360339
0.00390467
0.00411545
0.00426261
0.00436267
0.00441578
0.00443273
0.00442898
0.00440437
0.0043512
0.00427094
0.00416548
0.00404408
0.00392245
0.00381526
0.00372914
0.00366601
0.0036226
0.00359231
0.00356327
0.00352015
0.0034487
0.00333731
0.0031816
0.00298101
0.00271853
0.00238744
0.0020513
0.00180461
0.00166881
0.00161524
0.00158683
0.00152995
0.00133856
0.00105053
0.000913074
0.000885947
0.000890167
0.000904294
0.00091011
0.000923353
0.000977074
0.00114232
0.00132752
0.0014603
0.00154188
0.00158415
0.00159661
0.00159483
0.00158184
0.00154441
0.00144529
0.00122118
0.000977566
0.000780651
0.000613565
0.000497699
0.000385564
0.00032151
0.000233989
0.11294
0.0869179
0.0927198
0.0924991
0.0654919
0.0466861
0.0450713
0.0561956
0.0598908
0.0611173
0.0637031
0.0696999
0.074972
0.0792481
0.0820509
0.0847452
0.086905
0.0889682
0.0905065
0.0917263
0.0921097
0.0920353
0.0909703
0.0890469
0.0868993
0.0853159
0.0843342
0.0838757
0.0839305
0.0848537
0.0860001
0.0880535
0.0902515
0.0931075
0.0963182
0.0997983
0.105185
0.109843
0.114468
0.1179
0.118525
0.112561
0.089204
0.0732014
0.07306
0.0810804
0.115658
0.195064
0.256573
0.282539
0.296943
0.306705
0.314842
0.314294
0.308178
0.273714
0.17713
0.167086
0.216963
0.224327
0.158572
0.0678096
0.0334609
0.0217912
0.0167644
0.0128432
0.0101569
0.00875376
0.00806987
0.00769885
0.00744965
0.00717175
0.00691883
0.00664431
0.00638625
0.00606372
0.00570744
0.0053003
0.00486776
0.00432231
0.00382148
0.00329694
0.00285508
0.00248163
0.00225675
0.00200106
0.00187708
0.00174004
0.0016733
0.00161106
0.00158777
0.00158003
0.00158568
0.00163194
0.00169864
0.00181544
0.0019196
0.00200971
0.00211203
0.00219713
0.00226438
0.00231437
0.00236262
0.00239138
0.00240476
0.00241063
0.00241449
0.00238362
0.00235996
0.00232225
0.00227233
0.00221393
0.00214074
0.00205177
0.00195131
0.00184285
0.00173294
0.00163525
0.00156759
0.00154501
0.00157541
0.0017517
0.00215988
0.00271207
0.00331918
0.00382416
0.00414679
0.00435032
0.00446108
0.00451371
0.00453369
0.00453706
0.00453234
0.00451721
0.00450685
0.00450314
0.00450379
0.00451136
0.00453019
0.00454483
0.00455147
0.00455001
0.00452703
0.00443504
0.00427128
0.00410633
0.00391583
0.00359304
0.00308149
0.00253776
0.00216847
0.00201402
0.00199402
0.00203669
0.00208077
0.00206738
0.00195048
0.00144642
0.000837817
0.000550924
0.000483387
0.000507203
0.000670531
0.000961281
0.00116296
0.001265
0.00129512
0.0012959
0.00129084
0.00129075
0.00128872
0.00127574
0.00122993
0.00111894
0.00100673
0.00090669
0.000805733
0.000677863
0.000569991
0.000408361
0.110421
0.0797751
0.0824414
0.0727689
0.0470456
0.0472017
0.0573166
0.0609791
0.0639885
0.066226
0.0687551
0.0711906
0.0725371
0.0729713
0.0714602
0.0690537
0.0647343
0.0602171
0.0547663
0.0498978
0.0436706
0.0397557
0.0356866
0.0332028
0.0315112
0.0306068
0.0302576
0.0303752
0.031367
0.0330479
0.0353423
0.0385604
0.0421689
0.0460254
0.0498228
0.0542583
0.0599457
0.0654889
0.0711322
0.077943
0.084356
0.0888329
0.0892762
0.0833271
0.0785407
0.079188
0.0825775
0.0928106
0.111693
0.149436
0.170327
0.187848
0.196936
0.196379
0.19107
0.175393
0.139053
0.141335
0.174455
0.133329
0.0594655
0.0264998
0.0165469
0.0129717
0.0110595
0.00918113
0.00824032
0.00756126
0.0072184
0.00689988
0.00665773
0.00642645
0.0062066
0.00577119
0.00522264
0.00459175
0.00409895
0.00349278
0.00296032
0.00252564
0.00219202
0.00197726
0.00183527
0.00178488
0.00177051
0.00177183
0.00182846
0.00186895
0.00198818
0.00221402
0.00251736
0.0028819
0.00332373
0.00381168
0.00432941
0.0048054
0.00519064
0.00553568
0.0058981
0.00625802
0.00653318
0.0067472
0.00697213
0.00713711
0.00725651
0.00737465
0.00745513
0.00745111
0.00741404
0.00732541
0.00717283
0.00695101
0.00662269
0.00616431
0.00558193
0.00494328
0.0042569
0.00348264
0.0027096
0.00203757
0.00152016
0.00117072
0.00098622
0.000942597
0.00103085
0.00146984
0.00223951
0.00304947
0.00370616
0.00411663
0.00436155
0.00449527
0.00456557
0.00460712
0.004639
0.00466918
0.00469882
0.00472575
0.00474644
0.00475871
0.00476329
0.00476337
0.00475848
0.00473759
0.00467256
0.00448244
0.00424745
0.00408013
0.00393022
0.0036234
0.0029321
0.0022998
0.00197688
0.00189995
0.00192118
0.00204661
0.00209647
0.00205201
0.00174104
0.00135584
0.00123315
0.00122284
0.00125826
0.00135753
0.00138392
0.00137358
0.00132253
0.00116959
0.00107967
0.00107133
0.00107854
0.00109996
0.0011282
0.00118598
0.00126972
0.00133364
0.0013532
0.0013478
0.00130445
0.00107687
0.0913534
0.0580454
0.0440328
0.0403031
0.0482846
0.0542205
0.0585
0.0603533
0.0611977
0.0612132
0.0588106
0.0536952
0.0466084
0.0407014
0.0345165
0.0303174
0.0258424
0.0230501
0.0199877
0.0180843
0.0162113
0.0150857
0.0143482
0.013784
0.0135069
0.0133413
0.0132871
0.0133783
0.0136732
0.0141759
0.0151014
0.0167067
0.0191266
0.0228297
0.0277414
0.0323971
0.0366414
0.0421637
0.0463915
0.0511475
0.0548882
0.0579937
0.0601981
0.0643409
0.0679712
0.0721377
0.075573
0.0775474
0.0793855
0.0831529
0.0918018
0.0971182
0.102024
0.110415
0.11243
0.111325
0.109803
0.126117
0.136107
0.0762919
0.0281278
0.0146496
0.0111384
0.00986632
0.00890227
0.00797475
0.00752963
0.00706903
0.00674886
0.00645664
0.00615695
0.0057494
0.0050314
0.00408099
0.00358114
0.00305274
0.00258365
0.00221645
0.00196588
0.00184752
0.00180065
0.00179084
0.00182336
0.00191144
0.00210321
0.00239392
0.00285101
0.00346634
0.00429656
0.00538503
0.00669382
0.00789404
0.00893472
0.00986904
0.0106155
0.0112218
0.0116808
0.0120621
0.0122898
0.0123881
0.0124382
0.0124492
0.0124408
0.0125046
0.0125632
0.0126888
0.0128897
0.0131445
0.0134323
0.0137802
0.0141834
0.0146172
0.0150398
0.0153626
0.0154831
0.0150932
0.0140225
0.0122733
0.00991392
0.00742253
0.00528049
0.00341409
0.00203929
0.00117318
0.000730846
0.000559083
0.000542265
0.000684369
0.00128201
0.00222855
0.00311491
0.00376191
0.00416287
0.0044056
0.00455341
0.0046462
0.00470862
0.0047509
0.00477511
0.00478367
0.00478422
0.00478211
0.00477303
0.00475295
0.00472774
0.00467604
0.0045364
0.00424906
0.00401202
0.0038739
0.00370926
0.00329129
0.00251163
0.00199135
0.00180148
0.00179666
0.00189116
0.00199188
0.00199776
0.0019534
0.00173001
0.00148372
0.00139756
0.00140132
0.00148891
0.00160214
0.00160756
0.00157373
0.00154123
0.00149268
0.00135897
0.00126053
0.00125143
0.00127713
0.00139235
0.0015337
0.00159845
0.00160843
0.00159078
0.00146607
0.0464194
0.0397022
0.0391936
0.0448404
0.0512902
0.0539859
0.0551173
0.0529753
0.0468695
0.0385864
0.030962
0.0254567
0.021578
0.0184273
0.0162694
0.01453
0.0132717
0.0124616
0.0118977
0.0115542
0.0113067
0.0111575
0.0110438
0.0109339
0.0108199
0.0106072
0.0104525
0.0102548
0.00993754
0.00954457
0.0092096
0.00900248
0.00909023
0.00973613
0.0115031
0.0149878
0.0203839
0.0270537
0.0344899
0.0401433
0.0453258
0.0500498
0.0539031
0.0559192
0.0571827
0.0636406
0.0669294
0.0656949
0.0621363
0.0595606
0.0595465
0.0606511
0.0649362
0.0690028
0.0777248
0.0854867
0.0905972
0.114572
0.114813
0.0511238
0.0171968
0.0107978
0.0092483
0.00866554
0.00814119
0.00762608
0.0073743
0.00701059
0.00661827
0.00618086
0.00555244
0.00451877
0.00337842
0.00280242
0.00243078
0.0021687
0.00195928
0.00186405
0.00183133
0.00183005
0.00187747
0.00203081
0.00232936
0.00287769
0.00370546
0.004916
0.0067122
0.00872847
0.0105128
0.0119553
0.0129433
0.0136531
0.0141867
0.0145398
0.0149261
0.0151458
0.0153248
0.0153976
0.0153723
0.0150888
0.0149454
0.0147053
0.0143508
0.0141872
0.013993
0.013914
0.0138898
0.0139807
0.0142401
0.0146473
0.0152282
0.0159652
0.0168069
0.0177892
0.0188966
0.0200731
0.0212082
0.0219386
0.0218384
0.0201157
0.0164629
0.0118618
0.0076846
0.00451515
0.00238016
0.00115432
0.0005669
0.000344428
0.000297087
0.000336155
0.000607777
0.00142551
0.00238342
0.00317801
0.00374043
0.00411625
0.00436116
0.00450747
0.00457577
0.00459257
0.00459113
0.00457906
0.00453609
0.00442965
0.00437046
0.00436442
0.00437091
0.00436224
0.00425773
0.00391872
0.00368287
0.00354856
0.00330694
0.00265641
0.00202903
0.00173409
0.00167758
0.00171852
0.0018542
0.00188617
0.00186991
0.00175314
0.00156735
0.00150635
0.00151405
0.00159007
0.00183341
0.00205888
0.00218149
0.00220743
0.00218281
0.002034
0.00169761
0.00156531
0.00156466
0.00159565
0.00162256
0.00162255
0.00159326
0.00145439
0.0329797
0.0373977
0.0411302
0.0470157
0.0492411
0.0491056
0.0423413
0.0326392
0.0246146
0.0201607
0.0161641
0.0142924
0.0129199
0.0122452
0.0119437
0.0118472
0.0118789
0.0119782
0.0121349
0.0123945
0.0128001
0.0132222
0.0135593
0.0137263
0.0137835
0.0135796
0.0131768
0.012543
0.0116735
0.0105078
0.00954941
0.00828821
0.00735769
0.00644297
0.00583795
0.00553908
0.00599138
0.00809755
0.013087
0.022834
0.0350636
0.0454147
0.0553133
0.0643076
0.0733862
0.0889757
0.101139
0.101534
0.093333
0.0740888
0.0567765
0.0493969
0.0485798
0.0492793
0.0529224
0.0606039
0.0743423
0.109541
0.101
0.036613
0.0132041
0.00976849
0.00883823
0.00840817
0.00803603
0.00762143
0.00740694
0.00707161
0.00662419
0.00584388
0.00463024
0.00315484
0.00248594
0.00219021
0.00203973
0.00195976
0.0018986
0.00187989
0.00192022
0.00206863
0.00241893
0.00305653
0.00415304
0.00598197
0.00838144
0.0107446
0.0127234
0.0139981
0.0147668
0.0152189
0.0157778
0.0163478
0.0172251
0.0181326
0.0191421
0.0201818
0.0211176
0.0216221
0.0217875
0.0211222
0.0203235
0.0194168
0.0179611
0.0170518
0.0159776
0.0152079
0.014619
0.0142554
0.0140875
0.0140785
0.0142245
0.0146026
0.0153394
0.0164287
0.0179249
0.0197502
0.0216029
0.0233177
0.0247879
0.0258476
0.0260346
0.0247383
0.020378
0.0139683
0.008271
0.00440492
0.00210882
0.000926196
0.000402214
0.000212686
0.000167967
0.000178529
0.000285718
0.000703944
0.00146947
0.00222652
0.00287191
0.00335503
0.00366284
0.00381083
0.00384756
0.00384508
0.00382332
0.00373455
0.00362162
0.00359685
0.0036118
0.00371648
0.00385846
0.00387355
0.0037913
0.00353606
0.00337035
0.00312619
0.00252278
0.00193495
0.00163076
0.00155239
0.00156865
0.00168578
0.00174866
0.00174525
0.00169378
0.00162031
0.00161224
0.00165183
0.00186823
0.00224823
0.00248543
0.00258256
0.00259434
0.00256146
0.00237594
0.00202151
0.00180924
0.00173497
0.00170524
0.00166256
0.00154681
0.00131681
0.0306187
0.0374074
0.0417434
0.0447715
0.0436104
0.0353697
0.0246674
0.018694
0.0145948
0.0126358
0.0116557
0.0113537
0.0113896
0.011768
0.012123
0.0127746
0.0138916
0.0155086
0.0177301
0.0202787
0.0219807
0.0236578
0.0244907
0.0249706
0.0251303
0.0248502
0.0243244
0.0232505
0.0219775
0.0202709
0.018152
0.0154095
0.0124356
0.00951726
0.00686458
0.00500885
0.00397818
0.00359033
0.0035836
0.00538082
0.0105373
0.0234297
0.0416851
0.0617667
0.0778807
0.0939522
0.112266
0.131351
0.139555
0.137325
0.117228
0.0727701
0.0536117
0.0499022
0.0507258
0.0558251
0.0740238
0.106939
0.0904432
0.0306499
0.0125984
0.00973442
0.00891469
0.00848522
0.00816584
0.00780774
0.0076383
0.00731569
0.00673142
0.00562006
0.00379505
0.0024812
0.00210717
0.00201031
0.0019963
0.00197322
0.00197123
0.00207253
0.0023558
0.00294291
0.00406508
0.00615534
0.00880021
0.0113559
0.0131475
0.0145364
0.015919
0.0165914
0.0174731
0.0187835
0.0204194
0.0229261
0.0264179
0.0310983
0.0364517
0.0412505
0.0446323
0.0462116
0.0466419
0.0445864
0.0414903
0.0378919
0.0334598
0.0294468
0.0257368
0.0225081
0.0198275
0.0176783
0.0160523
0.0149365
0.0143127
0.0140862
0.0142008
0.014628
0.0153688
0.0166261
0.018643
0.0214593
0.0242919
0.0262236
0.0275435
0.0282498
0.0280885
0.0263697
0.0205784
0.0126147
0.00680347
0.00330207
0.00146058
0.000603623
0.000252039
0.000130445
0.000100828
0.000102523
0.000136556
0.000266683
0.000616205
0.00109341
0.0015821
0.00197983
0.00222023
0.00231019
0.0023196
0.00230594
0.00229531
0.0023028
0.00233994
0.00245373
0.00281751
0.00319066
0.0033041
0.0032951
0.00322722
0.00311073
0.00290139
0.00235132
0.0017896
0.00150363
0.00142641
0.00143566
0.00153044
0.00162795
0.00165623
0.00166017
0.00166455
0.00170721
0.001931
0.00232976
0.00256305
0.0026578
0.0026769
0.00266345
0.00256195
0.00234075
0.00220458
0.00213778
0.00207193
0.00193867
0.00168593
0.00138224
0.0304046
0.0371653
0.0399043
0.0392033
0.0315875
0.0226477
0.0155554
0.012478
0.0110722
0.0106371
0.0105836
0.0112686
0.0117661
0.013034
0.0150209
0.0185144
0.0225164
0.0258671
0.0285206
0.0298695
0.0312927
0.0319719
0.0325108
0.0327641
0.0328659
0.0328266
0.0323744
0.0316952
0.0308223
0.0296608
0.0283138
0.02673
0.0246309
0.021201
0.0163487
0.0104396
0.00637325
0.00363871
0.00246888
0.0020561
0.00213653
0.00369707
0.00844736
0.0205989
0.0456757
0.0701022
0.106812
0.133496
0.148808
0.159475
0.159135
0.144329
0.0892708
0.0598835
0.0538344
0.055964
0.0726161
0.102328
0.0874884
0.0313913
0.0129989
0.0100798
0.00950991
0.00906803
0.00888928
0.00864326
0.00845379
0.00802195
0.00712732
0.00573204
0.0033346
0.00218079
0.00196989
0.00198364
0.00203705
0.00211274
0.00230084
0.00273176
0.00367459
0.00570967
0.00804366
0.0103404
0.0122933
0.0140149
0.0161297
0.018105
0.0189743
0.0205048
0.0232548
0.0275809
0.0343922
0.0446366
0.0582196
0.0745346
0.0913445
0.10328
0.108484
0.10991
0.107524
0.100877
0.0924761
0.0819294
0.0711971
0.0605859
0.0512363
0.0431945
0.0365234
0.0309754
0.0262888
0.0223017
0.0190704
0.0169457
0.0157338
0.0152397
0.0153507
0.0160358
0.0171835
0.0186774
0.0212564
0.0247691
0.0271847
0.028623
0.0293494
0.0294136
0.0287138
0.025375
0.0165986
0.00900859
0.00440939
0.00197642
0.000826614
0.000335365
0.000146
8.18465e-05
6.46967e-05
6.35626e-05
7.14066e-05
0.000106699
0.0002264
0.000407316
0.000549665
0.000646195
0.000694374
0.000713496
0.00074576
0.000799821
0.000865912
0.00098737
0.00129796
0.00185869
0.00232405
0.00261167
0.00274555
0.00277415
0.00274024
0.00260314
0.00215299
0.00162668
0.00138002
0.00132132
0.0013352
0.00144316
0.00155854
0.00160787
0.00165496
0.00176355
0.00206857
0.00236729
0.00252278
0.00257424
0.00258335
0.00257555
0.00251432
0.00242205
0.00237118
0.00233107
0.00225234
0.00205434
0.00177975
0.00146949
0.0302685
0.0355474
0.0359529
0.0309866
0.0224963
0.0154847
0.0115665
0.0102765
0.00995039
0.0100212
0.0107663
0.0120315
0.0141524
0.018619
0.0230867
0.0272639
0.0297274
0.0321597
0.0334213
0.0345144
0.0351489
0.0356521
0.0360105
0.0364776
0.0367451
0.0368594
0.0364736
0.0357729
0.0347049
0.0333808
0.0320432
0.0308143
0.0295522
0.0285072
0.0268017
0.0237417
0.0168816
0.00858094
0.0042084
0.00210978
0.00133679
0.00108862
0.0015578
0.00420416
0.0137377
0.0471897
0.102585
0.13321
0.148686
0.162421
0.170108
0.168865
0.15109
0.0913036
0.0616626
0.0573147
0.0657097
0.0973243
0.0898606
0.0385907
0.0150876
0.0111206
0.0102854
0.00975264
0.00954756
0.00935104
0.00914969
0.00873691
0.00788571
0.00621458
0.00347169
0.00207758
0.00191638
0.0019989
0.0021765
0.00261197
0.00379624
0.00501399
0.00676698
0.00874793
0.0108456
0.0128966
0.0152448
0.0179408
0.0203576
0.0219627
0.0242926
0.028954
0.0370831
0.0510602
0.0742665
0.110112
0.143065
0.157224
0.161695
0.161401
0.155802
0.147293
0.139396
0.12984
0.119115
0.106553
0.0929268
0.0792305
0.066616
0.0559552
0.0476652
0.0415336
0.0369864
0.033411
0.030111
0.0264013
0.0227663
0.0199225
0.0182601
0.0176275
0.0177083
0.0184966
0.0197133
0.0220906
0.0255666
0.0280681
0.0294147
0.0299697
0.0300329
0.0296424
0.0274666
0.019371
0.0104892
0.00514258
0.00232189
0.000983751
0.000403259
0.000170549
8.39747e-05
5.44034e-05
4.59869e-05
4.51846e-05
4.87193e-05
6.88397e-05
9.37838e-05
0.000128057
0.000165416
0.000187974
0.000216548
0.000283751
0.000350365
0.000400656
0.000490958
0.000757591
0.00105685
0.00126526
0.00161494
0.00205257
0.0023192
0.00234289
0.00225278
0.00187197
0.00143953
0.00126602
0.00124213
0.00128463
0.00143486
0.001521
0.00162368
0.00185944
0.00211429
0.00224798
0.00226383
0.00223954
0.00223242
0.00225817
0.00232436
0.00233903
0.00233409
0.00231007
0.00223031
0.00199222
0.00169864
0.00139626
0.0298152
0.0332128
0.0310697
0.0245722
0.0168179
0.0119051
0.00988385
0.00942442
0.00939291
0.0101351
0.0114795
0.0141986
0.0193553
0.024661
0.0286569
0.0321214
0.0338266
0.0361473
0.0373063
0.0391196
0.0402577
0.0416783
0.0431608
0.0447952
0.0459085
0.0463862
0.0462079
0.0447332
0.0422486
0.0388744
0.0357475
0.0330046
0.0313767
0.030084
0.0293222
0.0288092
0.0275663
0.0223051
0.0113736
0.0049425
0.00207868
0.0010084
0.000744777
0.00110649
0.00424072
0.0212526
0.0670077
0.111782
0.129905
0.145112
0.162883
0.16972
0.163233
0.132068
0.0853103
0.0671578
0.0712308
0.0975868
0.0905422
0.0411561
0.0168685
0.0117371
0.0105066
0.00987358
0.00962238
0.00945171
0.00928635
0.00897483
0.00832681
0.00705498
0.00396238
0.00215713
0.00191063
0.00204979
0.00257426
0.00338375
0.00485505
0.00734386
0.00928522
0.0106634
0.0120826
0.0146554
0.0177678
0.0211251
0.0246211
0.0285049
0.0345782
0.0474652
0.0718567
0.119936
0.162028
0.181753
0.189528
0.190503
0.179534
0.167091
0.155782
0.144675
0.135509
0.127018
0.11801
0.106829
0.0939547
0.0805403
0.0677847
0.0568
0.0482666
0.0421838
0.0380451
0.0352708
0.0333255
0.0316373
0.029759
0.0273755
0.024472
0.0219266
0.0204868
0.0199378
0.0199741
0.0207076
0.0233722
0.0267646
0.0289384
0.0299571
0.0302686
0.0302708
0.0299197
0.0279711
0.02012
0.0108531
0.00532633
0.00241634
0.001033
0.000428716
0.000182446
8.75619e-05
5.26637e-05
4.05363e-05
3.69214e-05
3.63725e-05
3.68474e-05
3.95947e-05
4.81298e-05
5.70496e-05
7.28129e-05
0.000113
0.000158259
0.000185868
0.000221456
0.000317017
0.000480263
0.000595576
0.000719845
0.000990204
0.00155291
0.00191557
0.00198167
0.00189976
0.00155542
0.00126386
0.00118438
0.00119445
0.00129025
0.00143138
0.00162108
0.00186103
0.00204016
0.00210229
0.00210053
0.00203692
0.00195401
0.00196045
0.00204211
0.00214685
0.00217181
0.00215302
0.00201761
0.00165963
0.00136687
0.00107807
0.0287092
0.0310632
0.0265213
0.0198279
0.0134708
0.0101934
0.00905848
0.0089236
0.00939135
0.0106558
0.0137551
0.0192532
0.0253346
0.0294717
0.0336541
0.0360064
0.0388387
0.0422252
0.0452002
0.0484179
0.0511641
0.0537395
0.0557093
0.0572335
0.0579791
0.0582013
0.0580553
0.0573844
0.0559249
0.0530096
0.0471764
0.0391605
0.0329413
0.0303425
0.0295009
0.0294989
0.0296238
0.0295076
0.0252312
0.0126508
0.00518439
0.00196493
0.000783447
0.000543114
0.00088234