/*--------------------------------*- C++ -*----------------------------------*\
  =========                 |
  \\      /  F ield         | OpenFOAM: The Open Source CFD Toolbox
   \\    /   O peration     | Website:  https://openfoam.org
    \\  /    A nd           | Version:  9
     \\/     M anipulation  |
\*---------------------------------------------------------------------------*/
FoamFile
{
    format      ascii;
    class       volScalarField;
    location    "0.051";
    object      s_0;
}
// * * * * * * * * * * * * * * * * * * * * * * * * * * * * * * * * * * * * * //

dimensions      [0 0 0 0 0 0 0];

internalField   nonuniform List<scalar> 
12225
(
1
1
1
1
1
1
1
1
1
1
1
1
1
1
1
1
1
0.999988
1
1
1
1
1
1
1
1
1
1
1
1
1
1
1
1
1
0.999999
1
1
1
1
1
1
1
1
1
1
1
1
1
1
1
1
1
1
1
1
1
1
1
1
1
1
1
1
1
1
1
1
1
1
1
1
1
1
1
1
1
1
1
1
1
1
1
1
1
1
1
1
1
1
1
1
1
1
1
1
1
1
1
1
1
1
1
1
1
1
1
1
1
1
1
1
1
1
1
1
1
1
1
1
1
1
1
1
1
1
1
1
1
1
1
1
1
1
1
1
1
1
1
1
1
1
1
1
1
1
1
1
1
1
1
1
1
1
1
1
1
1
1
1
1
1
1
1
1
1
1
1
1
1
1
1
1
1
1
1
1
1
1
1
1
1
1
1
1
1
1
1
1
1
1
1
1
1
1
1
1
1
1
1
1
1
1
1
1
1
1
1
1
1
1
1
1
1
1
1
1
1
1
1
1
1
1
1
1
1
1
1
1
1
1
1
1
1
1
1
1
1
1
1
1
1
1
1
1
1
1
1
1
1
1
1
1
1
1
1
1
1
1
1
1
1
1
1
1
1
1
1
1
1
1
1
1
1
1
1
1
1
1
1
1
1
1
1
1
1
1
1
1
1
1
1
1
1
1
1
1
1
1
1
1
1
1
1
1
1
1
1
1
1
1
1
1
1
1
1
1
1
1
1
1
1
1
1
1
1
1
1
1
1
1
1
1
1
1
1
1
1
1
1
1
1
1
1
1
1
1
1
1
1
1
1
1
1
1
1
1
1
1
1
1
1
1
1
1
1
1
1
1
1
1
1
1
1
1
1
1
1
1
1
1
1
1
1
1
1
1
1
1
1
1
1
1
1
1
1
1
1
1
1
1
1
1
1
1
1
1
1
1
1
1
1
1
1
1
1
1
1
1
1
1
1
1
1
1
1
1
1
1
1
1
1
1
1
1
1
1
1
1
1
1
1
1
1
1
1
1
1
1
1
1
1
1
1
1
1
1
1
1
1
1
1
1
1
1
1
1
1
1
1
1
1
1
1
1
1
1
1
1
1
1
1
1
1
1
1
1
1
1
1
1
1
1
1
1
1
1
1
1
1
1
1
1
1
1
1
1
1
1
1
1
1
1
1
1
1
1
1
1
1
1
1
1
1
1
1
1
1
1
1
1
1
1
1
1
1
1
1
1
1
0.663066
0.649257
0.647968
0.647978
0.648883
0.653285
0.65486
0.654918
0.6549
0.65568
0.657597
0.660057
0.662225
0.663941
0.665134
0.665462
0.665371
0.664806
0.663217
0.659293
0.650614
0.639586
0.627259
0.614037
0.601202
0.589503
0.577611
0.565893
0.555313
0.545069
0.536318
0.530087
0.523779
0.520248
0.520256
0.521265
0.524904
0.533542
0.546177
0.564732
0.576138
0.592615
0.629571
0.642271
0.66406
0.681829
0.681432
0.679036
0.677448
0.677441
0.679368
0.683498
0.698119
0.709601
0.724588
0.732351
0.742707
0.752408
0.760775
0.766172
0.766699
0.760709
0.756855
0.765193
0.80968
0.859948
0.881994
0.887737
0.887087
0.883422
0.879536
0.876637
0.874231
0.871978
0.8701
0.868552
0.867089
0.865621
0.864398
0.863447
0.8624
0.861395
0.860752
0.860302
0.859784
0.859257
0.858813
0.858517
0.858396
0.858298
0.85815
0.858025
0.857926
0.857896
0.85792
0.85803
0.858431
0.858757
0.859077
0.859483
0.859903
0.860361
0.861048
0.861745
0.862434
0.863381
0.864106
0.864814
0.865672
0.866814
0.868095
0.869228
0.87061
0.872087
0.873972
0.875926
0.878333
0.881025
0.884135
0.887677
0.891651
0.896027
0.900275
0.903898
0.90673
0.909204
0.9114
0.913286
0.914871
0.916203
0.917341
0.918337
0.919232
0.920051
0.920818
0.921548
0.922258
0.922971
0.923701
0.924444
0.925195
0.92597
0.926794
0.927696
0.928713
0.929854
0.931021
0.932019
0.932595
0.932732
0.932562
0.931292
0.926648
0.920268
0.912442
0.901229
0.887462
0.874647
0.867028
0.863411
0.859766
0.855577
0.852288
0.849719
0.84573
0.837095
0.813509
0.734951
0.543892
0.369552
0.246335
0.168956
0.122628
0.0942689
0.0762799
0.0624489
0.0536203
0.0428989
0.0369428
0.0133785
0.667057
0.644516
0.633158
0.631628
0.645319
0.648038
0.644525
0.636383
0.627963
0.625896
0.62736
0.629959
0.630852
0.629391
0.624503
0.614147
0.596501
0.572911
0.547211
0.524544
0.506708
0.490934
0.477178
0.463109
0.450042
0.436255
0.423568
0.410501
0.398285
0.386749
0.376606
0.368237
0.360521
0.353257
0.347896
0.345999
0.3464
0.3486
0.355127
0.385019
0.418073
0.478466
0.573764
0.616471
0.649931
0.667076
0.657601
0.63126
0.604443
0.584848
0.577285
0.582818
0.600352
0.626206
0.649437
0.677289
0.714837
0.745206
0.760463
0.766077
0.763416
0.761874
0.78015
0.845776
0.875765
0.883141
0.884637
0.882979
0.877725
0.869879
0.86103
0.851221
0.844184
0.837537
0.833197
0.828971
0.82643
0.824048
0.822408
0.821363
0.820471
0.820103
0.819945
0.819897
0.819976
0.820443
0.821116
0.821782
0.822844
0.824231
0.825622
0.827291
0.829091
0.831124
0.833522
0.836072
0.838682
0.840639
0.842473
0.843707
0.844728
0.845369
0.84568
0.84575
0.845488
0.845213
0.844515
0.843717
0.842787
0.841798
0.840701
0.839537
0.838388
0.837173
0.835831
0.834389
0.83295
0.831603
0.830553
0.83
0.83015
0.831151
0.833789
0.838749
0.845938
0.854543
0.864009
0.873771
0.882655
0.88993
0.895445
0.899522
0.902692
0.90515
0.907036
0.908487
0.909649
0.910679
0.91174
0.91299
0.914551
0.916482
0.918746
0.921155
0.923451
0.925291
0.926404
0.926843
0.927127
0.927949
0.931529
0.942394
0.950986
0.953801
0.953697
0.951822
0.944846
0.930201
0.920174
0.912988
0.90399
0.893979
0.886171
0.879756
0.873511
0.86916
0.865758
0.859051
0.84389
0.806491
0.756491
0.727572
0.700641
0.675886
0.631769
0.594999
0.548831
0.525917
0.502131
0.431494
0.680488
0.658285
0.64668
0.65975
0.657705
0.651604
0.635781
0.599662
0.576225
0.573215
0.560299
0.545342
0.53284
0.51852
0.508786
0.499399
0.490794
0.483866
0.477063
0.469072
0.460497
0.449689
0.439259
0.427487
0.417412
0.405959
0.396623
0.385697
0.377301
0.367846
0.35958
0.351131
0.343112
0.335859
0.329756
0.325051
0.321576
0.319506
0.319079
0.322299
0.336112
0.363718
0.42901
0.536715
0.604745
0.6431
0.649055
0.64203
0.618781
0.592545
0.560341
0.550023
0.563265
0.596148
0.611994
0.626073
0.66168
0.725674
0.752432
0.758118
0.768334
0.813613
0.863281
0.877122
0.879463
0.878553
0.87146
0.856286
0.841584
0.82787
0.81973
0.815523
0.813594
0.812874
0.812906
0.814252
0.815587
0.817411
0.819115
0.821903
0.823922
0.827644
0.832126
0.837534
0.844328
0.852164
0.861806
0.872742
0.883868
0.893504
0.90297
0.911348
0.918714
0.925213
0.930198
0.933982
0.937083
0.939134
0.9407
0.941717
0.942294
0.942551
0.94263
0.942248
0.94148
0.940687
0.939399
0.937916
0.936046
0.93382
0.931041
0.927673
0.923496
0.918469
0.912371
0.904954
0.8959
0.884849
0.871732
0.85738
0.842951
0.830619
0.821881
0.815043
0.81045
0.808274
0.807976
0.809111
0.813256
0.81987
0.827915
0.836401
0.844133
0.850436
0.855141
0.858468
0.86086
0.862826
0.864878
0.867549
0.871384
0.876762
0.883741
0.892362
0.902855
0.914508
0.92454
0.93019
0.931864
0.931204
0.926652
0.924052
0.924333
0.928751
0.944197
0.956179
0.960641
0.961241
0.960856
0.959435
0.95794
0.954903
0.946489
0.929561
0.915415
0.904717
0.895381
0.888727
0.882166
0.871794
0.859248
0.850339
0.845973
0.844971
0.844835
0.845862
0.845724
0.844919
0.84058
0.810636
0.690039
0.683541
0.679133
0.660266
0.657361
0.635237
0.572913
0.53637
0.525792
0.523978
0.523413
0.520109
0.517536
0.51478
0.512324
0.509801
0.507357
0.504301
0.498734
0.489855
0.481826
0.476283
0.473137
0.472994
0.474089
0.472883
0.472387
0.465942
0.461377
0.448696
0.43895
0.423345
0.409531
0.39418
0.379306
0.365272
0.352693
0.341821
0.333007
0.327301
0.326321
0.332238
0.351715
0.394615
0.487447
0.570717
0.614794
0.630789
0.629588
0.625
0.612559
0.605915
0.605694
0.606912
0.609752
0.616808
0.63534
0.698967
0.754732
0.781143
0.825593
0.861438
0.872416
0.874854
0.869523
0.852847
0.832466
0.818635
0.811564
0.807929
0.806948
0.808694
0.810119
0.813124
0.815606
0.820475
0.826001
0.833519
0.842633
0.855851
0.872321
0.887854
0.904743
0.919541
0.933729
0.944647
0.953821
0.959415
0.963595
0.966589
0.968687
0.969775
0.970338
0.970537
0.97035
0.96929
0.968428
0.96755
0.967018
0.966502
0.96606
0.965709
0.965558
0.965499
0.96543
0.965429
0.965544
0.965688
0.965855
0.966091
0.966395
0.966745
0.967175
0.967663
0.968141
0.968539
0.968733
0.968517
0.967415
0.963572
0.95522
0.940128
0.916883
0.88885
0.859507
0.834135
0.81734
0.80672
0.800605
0.797759
0.797
0.797279
0.798926
0.801642
0.804898
0.808573
0.81251
0.816904
0.821994
0.827841
0.834178
0.840934
0.848465
0.856601
0.864436
0.873024
0.886225
0.905423
0.925338
0.938866
0.943437
0.943133
0.937111
0.928421
0.926844
0.928835
0.940087
0.954271
0.962552
0.967105
0.969117
0.969517
0.969053
0.96572
0.951724
0.929974
0.915471
0.906931
0.899927
0.89121
0.881327
0.87334
0.868985
0.867656
0.867581
0.867954
0.869534
0.874417
0.894687
0.904457
0.660515
0.667472
0.654001
0.645354
0.653809
0.580794
0.548763
0.537123
0.533488
0.533681
0.538739
0.544203
0.551524
0.560893
0.570721
0.580299
0.590174
0.601825
0.615873
0.635738
0.656801
0.679903
0.697763
0.713833
0.723195
0.726931
0.726814
0.718306
0.705001
0.68263
0.658518
0.626442
0.594854
0.562566
0.531805
0.500924
0.472539
0.446313
0.422299
0.401109
0.382927
0.369571
0.362742
0.365222
0.38192
0.420238
0.493242
0.555742
0.589905
0.606816
0.610277
0.611426
0.61266
0.614321
0.616043
0.619771
0.631577
0.687619
0.76437
0.810876
0.849363
0.864082
0.867965
0.860255
0.838545
0.818276
0.807643
0.802861
0.801331
0.803308
0.807075
0.811656
0.818018
0.828148
0.840777
0.858883
0.876862
0.898685
0.914604
0.933964
0.943837
0.954502
0.961314
0.965545
0.968224
0.969264
0.969544
0.968771
0.96678
0.965238
0.962966
0.958342
0.952934
0.94669
0.940493
0.934467
0.92852
0.923794
0.920377
0.917436
0.915107
0.913276
0.912449
0.912219
0.912325
0.912737
0.913959
0.915636
0.917559
0.920048
0.922991
0.926505
0.930829
0.936111
0.942322
0.949453
0.957161
0.964903
0.971887
0.977694
0.981859
0.98404
0.984405
0.982066
0.972782
0.951921
0.918951
0.881372
0.847962
0.82505
0.81071
0.802637
0.798996
0.798043
0.798264
0.80025
0.80455
0.809241
0.815032
0.822535
0.831068
0.839129
0.846928
0.855832
0.864744
0.870853
0.874469
0.879458
0.890952
0.912778
0.934793
0.947689
0.950545
0.94909
0.940363
0.933518
0.932778
0.934901
0.945871
0.959566
0.967653
0.971476
0.972451
0.972145
0.969021
0.954568
0.93275
0.919233
0.910698
0.902995
0.894518
0.885987
0.878621
0.873367
0.870564
0.869741
0.869828
0.871072
0.876926
0.895579
0.606906
0.631122
0.67412
0.637773
0.588778
0.568605
0.560241
0.559666
0.575177
0.598058
0.633494
0.671889
0.702301
0.734356
0.760611
0.787223
0.81499
0.840461
0.866269
0.884951
0.904085
0.914926
0.926705
0.932383
0.935566
0.93677
0.936335
0.933098
0.927126
0.918094
0.904803
0.885794
0.859612
0.823417
0.779889
0.730923
0.680298
0.634735
0.595211
0.559742
0.52559
0.492518
0.462554
0.433925
0.414706
0.409841
0.412526
0.423018
0.453799
0.49576
0.534099
0.562959
0.580763
0.593479
0.604152
0.612646
0.629795
0.688788
0.765808
0.815426
0.848775
0.858302
0.852088
0.829733
0.811795
0.800277
0.79572
0.794468
0.798025
0.804798
0.81348
0.829994
0.856264
0.885252
0.903466
0.920677
0.935652
0.947569
0.955059
0.961924
0.964815
0.966431
0.96694
0.966903
0.96565
0.961768
0.95569
0.946197
0.933107
0.916648
0.895778
0.874746
0.857134
0.83969
0.827085
0.816176
0.806233
0.798474
0.792268
0.78726
0.783352
0.780228
0.777534
0.775605
0.77416
0.773237
0.772859
0.773818
0.775443
0.778248
0.782118
0.787351
0.794338
0.803764
0.816185
0.83248
0.852917
0.877576
0.905216
0.93171
0.954194
0.972012
0.983394
0.989504
0.992114
0.992537
0.990858
0.982998
0.961408
0.92598
0.887535
0.855509
0.833894
0.820776
0.814122
0.811927
0.811886
0.813437
0.819397
0.828549
0.839395
0.850994
0.863065
0.876497
0.889715
0.89841
0.900931
0.900753
0.899811
0.9001
0.905155
0.926816
0.947788
0.955465
0.955805
0.951353
0.941606
0.939284
0.939908
0.944621
0.957707
0.967181
0.971621
0.972617
0.972046
0.967429
0.949461
0.929427
0.91802
0.911237
0.904434
0.895988
0.887102
0.879441
0.873815
0.870341
0.868842
0.868708
0.869557
0.876067
0.629813
0.655327
0.656799
0.610275
0.59327
0.589309
0.609805
0.656036
0.718816
0.763486
0.808429
0.833321
0.862323
0.885269
0.903938
0.925472
0.938735
0.954289
0.962727
0.971722
0.976185
0.980391
0.982454
0.983928
0.984641
0.985023
0.985149
0.984848
0.984145
0.982986
0.980825
0.977229
0.971533
0.962803
0.949234
0.928533
0.897338
0.850768
0.794394
0.743101
0.704907
0.667993
0.636912
0.605821
0.57538
0.55261
0.534376
0.508278
0.479844
0.46045
0.456849
0.463191
0.490546
0.527695
0.564737
0.588088
0.619038
0.692789
0.765555
0.813327
0.839082
0.83689
0.821054
0.806609
0.794641
0.788996
0.787312
0.790077
0.798416
0.810709
0.834004
0.881754
0.915947
0.932503
0.942015
0.9506
0.957589
0.961331
0.963449
0.964449
0.964563
0.963254
0.959057
0.950853
0.935817
0.912248
0.881155
0.854204
0.825071
0.803895
0.787862
0.778064
0.765794
0.75741
0.751596
0.745134
0.739959
0.735413
0.731652
0.728441
0.725861
0.724048
0.722149
0.720575
0.718841
0.717119
0.715584
0.714329
0.713624
0.71335
0.713607
0.71439
0.715906
0.718345
0.72212
0.728056
0.737163
0.750496
0.770336
0.801536
0.845828
0.896476
0.938168
0.966477
0.983418
0.991941
0.995437
0.996414
0.996215
0.993758
0.984756
0.960029
0.924992
0.891413
0.866019
0.850172
0.842164
0.839492
0.839316
0.840018
0.843045
0.851603
0.864667
0.881606
0.901534
0.920538
0.933566
0.938345
0.938387
0.934854
0.929082
0.928628
0.93122
0.944998
0.957691
0.960401
0.95929
0.952398
0.948196
0.948486
0.951912
0.962224
0.969531
0.972074
0.972141
0.970117
0.959662
0.938384
0.922599
0.914038
0.909549
0.904468
0.896872
0.887832
0.879441
0.873401
0.870236
0.869316
0.869445
0.871521
0.674072
0.665457
0.637632
0.620573
0.62095
0.662775
0.743086
0.803224
0.845628
0.878349
0.904702
0.923212
0.941129
0.953605
0.964694
0.973902
0.978619
0.983432
0.985573
0.98745
0.988309
0.98908
0.989427
0.989733
0.989906
0.990276
0.990528
0.990804
0.991164
0.991695
0.991941
0.992047
0.992128
0.991583
0.989695
0.98578
0.977865
0.963531
0.937503
0.891901
0.832936
0.786705
0.746595
0.721957
0.709585
0.709794
0.720338
0.717566
0.703039
0.66143
0.58153
0.529552
0.521247
0.529343
0.561525
0.587886
0.624174
0.700505
0.766435
0.804371
0.809448
0.801414
0.792437
0.785424
0.78066
0.778938
0.780661
0.787455
0.80085
0.826499
0.877071
0.924354
0.943648
0.952099
0.956459
0.959331
0.961034
0.961693
0.962029
0.960164
0.954477
0.942172
0.920628
0.884821
0.849273
0.819836
0.800845
0.782161
0.771096
0.760448
0.754228
0.748309
0.741215
0.735419
0.72888
0.723066
0.717318
0.712873
0.709702
0.70727
0.706285
0.70609
0.706134
0.706528
0.706733
0.706901
0.707152
0.707403
0.707209
0.70683
0.706507
0.70657
0.707056
0.707993
0.709564
0.712167
0.716267
0.721661
0.728895
0.738033
0.751272
0.776185
0.825976
0.889829
0.939505
0.969901
0.986425
0.994245
0.997336
0.99827
0.998329
0.99766
0.99468
0.985273
0.961273
0.932849
0.908442
0.892073
0.88431
0.882519
0.882701
0.883897
0.887236
0.89632
0.91043
0.927215
0.944475
0.957312
0.963207
0.964084
0.962828
0.955452
0.950955
0.95133
0.955451
0.963332
0.96584
0.965554
0.962387
0.95936
0.959607
0.96309
0.969562
0.972178
0.972321
0.970644
0.961554
0.940919
0.925031
0.915157
0.910151
0.907675
0.90416
0.897319
0.888612
0.880417
0.874744
0.872181
0.871792
0.872526
0.689621
0.664478
0.64789
0.649757
0.701816
0.78616
0.844659
0.891237
0.914841
0.939247
0.951753
0.965236
0.97287
0.978295
0.982522
0.984525
0.985509
0.986184
0.986454
0.986571
0.986223
0.985732
0.984991
0.984619
0.984459
0.984625
0.985117
0.985991
0.986876
0.988504
0.990101
0.991415
0.992803
0.994124
0.994911
0.995209
0.99499
0.992731
0.986814
0.97297
0.943258
0.888812
0.822543
0.778284
0.757643
0.752876
0.75605
0.758045
0.757618
0.75603
0.747368
0.695941
0.595668
0.568171
0.575175
0.600515
0.651703
0.718414
0.768838
0.78905
0.785002
0.777677
0.772265
0.769219
0.767996
0.769672
0.774132
0.783549
0.801258
0.841885
0.909691
0.944607
0.955109
0.958049
0.958926
0.959536
0.959794
0.957822
0.952268
0.939877
0.913933
0.876671
0.83977
0.813244
0.792524
0.777622
0.769352
0.761617
0.756791
0.750425
0.742514
0.73442
0.723431
0.710912
0.696177
0.681911
0.670411
0.664389
0.661759
0.661486
0.665316
0.671788
0.678467
0.685866
0.692272
0.697752
0.7021
0.705395
0.707762
0.709998
0.712294
0.713852
0.7149
0.715443
0.715758
0.716241
0.718069
0.721227
0.726201
0.732122
0.738582
0.74591
0.757464
0.783681
0.844921
0.911673
0.954776
0.979007
0.991113
0.996491
0.998557
0.999201
0.999297
0.999144
0.998299
0.995336
0.985678
0.972256
0.963048
0.959314
0.958911
0.95933
0.960748
0.964761
0.969518
0.972669
0.975152
0.977706
0.979323
0.979592
0.979369
0.978181
0.973176
0.966567
0.965402
0.966502
0.970419
0.972013
0.971822
0.970299
0.969886
0.970525
0.973243
0.974561
0.974369
0.971875
0.960241
0.939472
0.92475
0.916066
0.911721
0.909705
0.907847
0.903957
0.895591
0.887023
0.8809
0.877858
0.877122
0.877094
0.691674
0.671471
0.670912
0.715375
0.794866
0.859889
0.910252
0.935844
0.953222
0.967189
0.973809
0.979839
0.982468
0.983799
0.984338
0.984445
0.984082
0.982655
0.980174
0.976631
0.973399
0.970903
0.968924
0.96795
0.967556
0.96756
0.968124
0.969502
0.971333
0.973766
0.976212
0.979283
0.983152
0.987299
0.9917
0.994846
0.996481
0.997157
0.997389
0.99601
0.991394
0.979146
0.948867
0.875256
0.806361
0.774298
0.762373
0.758699
0.757451
0.758298
0.761105
0.757705
0.73155
0.640861
0.60341
0.616012
0.6627
0.722232
0.767549
0.779061
0.774262
0.767707
0.764133
0.762259
0.761743
0.763623
0.76844
0.777618
0.798013
0.84557
0.922936
0.953198
0.959267
0.959229
0.958287
0.957255
0.953109
0.942615
0.918858
0.881904
0.846926
0.818595
0.795051
0.779973
0.770267
0.763696
0.758188
0.752778
0.743746
0.731436
0.713337
0.688572
0.653848
0.612689
0.571224
0.539756
0.524459
0.518443
0.517566
0.529223
0.543004
0.564475
0.587358
0.612186
0.63582
0.656945
0.674721
0.688972
0.700128
0.708318
0.714329
0.719903
0.725353
0.731103
0.736402
0.740065
0.740109
0.737273
0.736543
0.738646
0.742215
0.746452
0.751582
0.759227
0.774098
0.816963
0.890292
0.942828
0.9728
0.988121
0.995216
0.998195
0.99931
0.999659
0.999719
0.999665
0.99929
0.99766
0.994726
0.992788
0.991956
0.991802
0.991837
0.991969
0.992359
0.993384
0.994015
0.994083
0.993918
0.993201
0.992202
0.991079
0.988682
0.982114
0.97654
0.97491
0.975113
0.976652
0.977519
0.977447
0.977447
0.977748
0.978852
0.979184
0.978551
0.974269
0.957647
0.937481
0.924865
0.918301
0.915372
0.913899
0.912018
0.907622
0.898998
0.890969
0.88564
0.883257
0.882835
0.882878
0.696667
0.688655
0.715784
0.783883
0.854279
0.90724
0.94443
0.960776
0.972068
0.978642
0.981765
0.983298
0.983647
0.983528
0.982568
0.979652
0.973526
0.968158
0.962983
0.960206
0.957626
0.955534
0.95419
0.953386
0.953084
0.953256
0.954021
0.95543
0.957747
0.960458
0.963705
0.966506
0.969273
0.97197
0.976444
0.984049
0.991865
0.995973
0.997893
0.998464
0.998468
0.996716
0.989883
0.967454
0.890701
0.805724
0.767609
0.75604
0.752015
0.751799
0.753621
0.759139
0.755186
0.722779
0.655048
0.642906
0.663684
0.712253
0.758711
0.773179
0.771321
0.766166
0.763464
0.761987
0.761451
0.762725
0.766438
0.77407
0.791117
0.838859
0.919553
0.956428
0.96068
0.958782
0.955281
0.948987
0.932942
0.897389
0.860397
0.827489
0.803854
0.786907
0.772654
0.765643
0.760932
0.755111
0.747429
0.735248
0.714049
0.679124
0.62197
0.534617
0.462742
0.432366
0.423137
0.423298
0.429496
0.438196
0.447597
0.458658
0.472991
0.492617
0.517534
0.547108
0.579226
0.610077
0.636317
0.656976
0.673074
0.686562
0.699442
0.712146
0.722978
0.731868
0.740427
0.748963
0.75768
0.763256
0.761938
0.7594
0.758886
0.760075
0.761895
0.763007
0.766656
0.777576
0.808127
0.880016
0.936625
0.969425
0.986389
0.99437
0.997826
0.999209
0.999711
0.999862
0.999882
0.999846
0.999614
0.999146
0.998828
0.998643
0.99853
0.99846
0.998423
0.998399
0.998367
0.998298
0.998149
0.997725
0.997092
0.996533
0.995536
0.993088
0.987007
0.982676
0.981233
0.981195
0.981772
0.98232
0.98258
0.983195
0.983981
0.984078
0.983082
0.976998
0.956681
0.937418
0.926828
0.922356
0.92066
0.919318
0.916672
0.909912
0.900745
0.893429
0.889156
0.887621
0.887568
0.888314
0.706018
0.707465
0.754552
0.834008
0.889802
0.936129
0.962656
0.973957
0.980087
0.982788
0.983575
0.983597
0.983149
0.981252
0.97658
0.967564
0.96284
0.958173
0.955067
0.952129
0.949069
0.946552
0.944586
0.94326
0.942657
0.942469
0.943807
0.946191
0.949289
0.952996
0.957678
0.961782
0.964569
0.967019
0.968432
0.97053
0.975834
0.986617
0.994525
0.99789
0.998966
0.999209
0.998376
0.99324
0.970908
0.878018
0.790579
0.759801
0.752808
0.751727
0.75132
0.753726
0.754212
0.744082
0.706946
0.689121
0.684767
0.70885
0.756447
0.771905
0.771265
0.767655
0.76696
0.767209
0.767072
0.767207
0.769333
0.775216
0.789682
0.827843
0.908456
0.954666
0.96118
0.957279
0.948035
0.925109
0.891992
0.855494
0.819451
0.792721
0.779368
0.770511
0.763123
0.759278
0.753031
0.742875
0.726334
0.695319
0.634321
0.516352
0.432873
0.394357
0.379919
0.378624
0.39869
0.421055
0.442204
0.457738
0.467885
0.472427
0.478393
0.491944
0.513386
0.5412
0.573163
0.605217
0.632663
0.653398
0.667936
0.67756
0.684582
0.691813
0.70264
0.71745
0.732973
0.746251
0.758481
0.769751
0.776705
0.777795
0.775636
0.77366
0.774437
0.779074
0.779611
0.779488
0.786648
0.814047
0.881547
0.936765
0.969243
0.986186
0.994209
0.997719
0.999153
0.999701
0.999892
0.999945
0.99995
0.999935
0.999882
0.999827
0.999779
0.999736
0.999698
0.999653
0.999604
0.999556
0.999472
0.99925
0.998932
0.998676
0.998277
0.997381
0.994657
0.989476
0.986402
0.985418
0.985373
0.985678
0.986371
0.987275
0.987942
0.987979
0.986811
0.97971
0.957748
0.939806
0.931344
0.928584
0.927733
0.926544
0.923479
0.914342
0.903376
0.895792
0.891887
0.890743
0.890872
0.89251
0.714381
0.725875
0.791155
0.870327
0.91349
0.954062
0.972815
0.980124
0.983157
0.984026
0.983963
0.982825
0.979973
0.973897
0.964162
0.957316
0.95274
0.947533
0.943518
0.938979
0.935178
0.932257
0.929694
0.928374
0.927709
0.92751
0.92825
0.92992
0.933057
0.938173
0.945067
0.954859
0.961518
0.965386
0.967116
0.967742
0.968795
0.972192
0.983349
0.993572
0.997774
0.99925
0.999554
0.999091
0.994605
0.969694
0.857932
0.780837
0.759382
0.755322
0.752713
0.748332
0.747742
0.739632
0.720727
0.710185
0.707895
0.719867
0.759783
0.772844
0.77449
0.778062
0.788282
0.797081
0.799333
0.796912
0.790906
0.792052
0.800306
0.828783
0.892669
0.949003
0.960953
0.953968
0.926795
0.888269
0.834007
0.815286
0.798961
0.777885
0.765839
0.758196
0.752428
0.749097
0.740615
0.722041
0.682222
0.593332
0.466365
0.391613
0.358383
0.349016
0.361933
0.41103
0.474587
0.548571
0.609939
0.63884
0.646513
0.629908
0.601372
0.583059
0.583222
0.597178
0.619619
0.6474
0.672923
0.689613
0.697225
0.697107
0.69171
0.690068
0.693614
0.700101
0.711283
0.730297
0.751109
0.768796
0.782209
0.786436
0.785821
0.782044
0.780752
0.784678
0.795366
0.797698
0.797518
0.802956
0.830246
0.892994
0.942505
0.971921
0.987357
0.99469
0.997901
0.999215
0.999721
0.999904
0.999965
0.999982
0.999985
0.999983
0.999973
0.999961
0.999948
0.999929
0.999909
0.999891
0.999859
0.999773
0.999635
0.999526
0.999365
0.999013
0.998024
0.994702
0.990791
0.988912
0.988427
0.988468
0.989003
0.990138
0.990824
0.990873
0.989856
0.983272
0.962402
0.946418
0.939786
0.938234
0.938025
0.93746
0.934517
0.923161
0.909062
0.900115
0.895668
0.89434
0.894448
0.896197
0.722761
0.742738
0.817103
0.889513
0.927415
0.96232
0.977316
0.982688
0.984562
0.984868
0.983968
0.981937
0.977169
0.967237
0.955918
0.949393
0.943593
0.938668
0.934732
0.931134
0.927796
0.925856
0.924153
0.923347
0.922927
0.922772
0.922925
0.923571
0.925208
0.928408
0.932252
0.939646
0.953118
0.962664
0.966781
0.967607
0.967812
0.96849
0.971826
0.983983
0.993737
0.99797
0.999464
0.999762
0.999412
0.994752
0.963282
0.840157
0.775072
0.762905
0.762333
0.750795
0.74212
0.735873
0.727183
0.722081
0.724099
0.741403
0.769182
0.780988
0.798347
0.831366
0.864044
0.879799
0.882611
0.879067
0.863679
0.851467
0.849304
0.855636
0.889946
0.941157
0.96004
0.954454
0.918799
0.835556
0.802698
0.776715
0.765367
0.761492
0.755229
0.748639
0.74222
0.734052
0.713499
0.674816
0.588405
0.464971
0.376965
0.340008
0.328936
0.352797
0.420109
0.551411
0.702726
0.792664
0.828726
0.84019
0.838619
0.824911
0.801265
0.777794
0.76467
0.761965
0.763658
0.771651
0.780501
0.784391
0.783015
0.774853
0.74583
0.713509
0.701036
0.699806
0.704406
0.713901
0.73385
0.76174
0.784238
0.796752
0.800182
0.79918
0.794204
0.792833
0.799897
0.814312
0.818014
0.818786
0.825081
0.8563
0.911126
0.952223
0.976669
0.989519
0.995623
0.998282
0.999361
0.999772
0.999922
0.999974
0.99999
0.999995
0.999996
0.999995
0.999993
0.999987
0.999981
0.999975
0.999965
0.999938
0.999888
0.999846
0.999783
0.999642
0.999237
0.997773
0.994175
0.991794
0.990896
0.99079
0.991066
0.992142
0.992902
0.992985
0.992229
0.987051
0.969514
0.95573
0.950734
0.950144
0.9505
0.950467
0.948622
0.938946
0.921133
0.90954
0.903669
0.901632
0.901532
0.902415
0.73206
0.75554
0.834164
0.903779
0.935631
0.966511
0.980355
0.984443
0.985366
0.985363
0.984085
0.97988
0.970999
0.95854
0.949056
0.943841
0.938592
0.934392
0.930615
0.927786
0.92507
0.923571
0.922603
0.922116
0.921778
0.921478
0.921307
0.921445
0.922255
0.924794
0.928302
0.933749
0.94488
0.957822
0.966326
0.968456
0.968126
0.968042
0.969154
0.975041
0.987466
0.995054
0.998435
0.999645
0.999886
0.999682
0.995414
0.95846
0.828582
0.774832
0.76947
0.773036
0.766189
0.753597
0.748275
0.746967
0.755135
0.773972
0.797519
0.835049
0.883188
0.918021
0.938727
0.945968
0.94604
0.942988
0.930824
0.916088
0.905908
0.903094
0.906106
0.934178
0.958323
0.955984
0.923468
0.826694
0.760382
0.753198
0.745969
0.742445
0.740248
0.737995
0.736655
0.725053
0.694824
0.611838
0.495675
0.38907
0.331949
0.311909
0.320951
0.383308
0.553138
0.752705
0.838087
0.867631
0.878942
0.882485
0.880946
0.872919
0.85751
0.843054
0.83386
0.828509
0.82386
0.820189
0.817774
0.816317
0.814999
0.812318
0.803897
0.772401
0.733127
0.714971
0.710271
0.712711
0.72329
0.748564
0.782314
0.806603
0.816149
0.817149
0.813798
0.808036
0.808234
0.821279
0.836577
0.840621
0.843313
0.853843
0.891212
0.933353
0.964053
0.982473
0.992167
0.996752
0.998735
0.999532
0.999834
0.999944
0.999981
0.999994
0.999998
0.999999
0.999999
0.999998
0.999997
0.999995
0.999992
0.999985
0.99997
0.999956
0.999931
0.999875
0.999702
0.999048
0.996667
0.994083
0.992909
0.992659
0.992791
0.993624
0.994424
0.994548
0.994033
0.99025
0.976657
0.965738
0.962136
0.961944
0.962803
0.963213
0.962385
0.956942
0.941786
0.929482
0.922249
0.918858
0.918059
0.91733
0.741975
0.766785
0.840285
0.906724
0.938868
0.965679
0.980034
0.985061
0.986286
0.986106
0.984635
0.980519
0.971392
0.958378
0.947462
0.940295
0.934591
0.930519
0.927113
0.924965
0.923352
0.922558
0.922205
0.922016
0.921802
0.921229
0.920776
0.920809
0.921283
0.923163
0.926985
0.931903
0.942563
0.956237
0.965795
0.969677
0.969608
0.968464
0.968815
0.972278
0.983556
0.992743
0.997261
0.999116
0.999789
0.999946
0.999841
0.996753
0.959522
0.831901
0.7709
0.777013
0.792386
0.803185
0.812144
0.822594
0.837234
0.854774
0.88173
0.914998
0.939014
0.956105
0.968523
0.975564
0.977516
0.976112
0.970692
0.958625
0.949029
0.940456
0.936938
0.941453
0.95801
0.958269
0.93632
0.840074
0.753415
0.720758
0.721255
0.729214
0.729978
0.728886
0.723535
0.70359
0.65352
0.553592
0.432552
0.347648
0.309847
0.302649
0.318663
0.427123
0.689259
0.816542
0.858485
0.87493
0.883491
0.88852
0.890604
0.888615
0.878188
0.863614
0.851836
0.842415
0.834361
0.827563
0.82279
0.820224
0.818745
0.817203
0.814196
0.804999
0.774677
0.743477
0.728033
0.723839
0.725681
0.739884
0.775185
0.809148
0.828614
0.833885
0.833132
0.827262
0.824316
0.828431
0.849526
0.862315
0.866359
0.87194
0.890527
0.925106
0.954225
0.975316
0.988016
0.994679
0.997808
0.999151
0.999689
0.999891
0.999964
0.999988
0.999996
0.999999
1
1
0.999999
0.999999
0.999999
0.999997
0.999993
0.999989
0.99998
0.999957
0.99988
0.999566
0.998218
0.99584
0.994551
0.99419
0.994237
0.994812
0.99558
0.995739
0.995418
0.992862
0.983199
0.975326
0.972918
0.972879
0.973797
0.974435
0.974159
0.971665
0.962536
0.952722
0.9461
0.942017
0.940726
0.938881
0.75491
0.772387
0.835972
0.903092
0.936957
0.962664
0.978281
0.984594
0.986644
0.986766
0.985889
0.982601
0.974207
0.960923
0.949329
0.941259
0.935061
0.930713
0.927248
0.924829
0.923054
0.921818
0.921167
0.920883
0.920619
0.920493
0.9205
0.920631
0.92116
0.922921
0.927088
0.932704
0.944192
0.958595
0.968171
0.971054
0.970543
0.96917
0.969189
0.971759
0.982186
0.991942
0.996866
0.998936
0.999678
0.999918
0.99998
0.999929
0.998142
0.974816
0.853823
0.773843
0.774158
0.796445
0.816977
0.844797
0.873541
0.900027
0.925412
0.943411
0.95143
0.959647
0.969996
0.978461
0.983983
0.986783
0.985923
0.982192
0.975697
0.968905
0.96129
0.958323
0.961737
0.962112
0.950814
0.874077
0.764254
0.710639
0.695644
0.702139
0.718325
0.720997
0.71338
0.670749
0.58416
0.496015
0.406347
0.341759
0.309114
0.304366
0.326378
0.495104
0.728332
0.820647
0.848451
0.859932
0.872878
0.885267
0.89294
0.894519
0.89124
0.877138
0.860869
0.847187
0.835823
0.82748
0.821603
0.818573
0.817422
0.81692
0.815652
0.812387
0.797575
0.766571
0.74695
0.73973
0.738951
0.743479
0.76922
0.808238
0.836885
0.849959
0.851954
0.849374
0.844691
0.845054
0.859584
0.883567
0.89221
0.896307
0.904879
0.926607
0.950608
0.970399
0.984266
0.992468
0.9967
0.998657
0.999486
0.999814
0.999936
0.999979
0.999994
0.999998
0.999999
1
1
1
1
0.999999
0.999999
0.999997
0.999994
0.999985
0.999949
0.999788
0.999068
0.997134
0.995853
0.995427
0.995425
0.995791
0.996474
0.996653
0.996472
0.99485
0.98849
0.983406
0.982015
0.982056
0.982793
0.983311
0.983228
0.982135
0.97764
0.971476
0.966492
0.962532
0.960987
0.958962
0.766222
0.775451
0.824198
0.893057
0.931344
0.95695
0.974512
0.983034
0.9863
0.987102
0.986905
0.985516
0.980671
0.967802
0.954654
0.944901
0.937529
0.932329
0.928454
0.925676
0.923701
0.922268
0.921471
0.920893
0.920525
0.9205
0.920619
0.921097
0.922448
0.92633
0.932539
0.941764
0.956288
0.968536
0.97262
0.972678
0.970961
0.969669
0.970034
0.973311
0.983461
0.992392
0.996982
0.998947
0.99967
0.999907
0.999977
0.999994
0.999971
0.999155
0.985732
0.885342
0.782798
0.772542
0.786071
0.827283
0.865941
0.898819
0.927286
0.94545
0.95195
0.952178
0.95649
0.967375
0.978809
0.985763
0.988454
0.989161
0.98791
0.985072
0.979281
0.974491
0.97209
0.970493
0.963141
0.923904
0.800045
0.719384
0.683424
0.679936
0.69287
0.706647
0.702164
0.668432
0.57907
0.491854
0.410226
0.347503
0.314836
0.313052
0.344266
0.523074
0.723999
0.795139
0.806839
0.818837
0.845865
0.875728
0.89272
0.898751
0.899248
0.893556
0.872016
0.850038
0.832452
0.819367
0.812085
0.80973
0.810149
0.81301
0.815418
0.815405
0.809915
0.785511
0.762966
0.754613
0.753936
0.756443
0.770857
0.807688