/*--------------------------------*- C++ -*----------------------------------*\
  =========                 |
  \\      /  F ield         | OpenFOAM: The Open Source CFD Toolbox
   \\    /   O peration     | Website:  https://openfoam.org
    \\  /    A nd           | Version:  9
     \\/     M anipulation  |
\*---------------------------------------------------------------------------*/
FoamFile
{
    format      ascii;
    class       volSymmTensorField;
    location    "0.051";
    object      UPrime2Mean;
}
// * * * * * * * * * * * * * * * * * * * * * * * * * * * * * * * * * * * * * //

dimensions      [0 2 -2 0 0 0 0];

internalField   nonuniform List<symmTensor> 
12225
(
(-48.5497 -0.211667 0 0.00124609 0 0)
(-45.6744 -0.284384 0 -0.000731971 0 0)
(-42.8508 -0.267135 0 -0.000945004 0 0)
(-40.0824 -0.255118 0 -0.00106575 0 0)
(-37.4528 -0.245102 0 -0.00113714 0 0)
(-35.0016 -0.233508 0 -0.001146 0 0)
(-32.7285 -0.221073 0 -0.00111143 0 0)
(-30.6144 -0.210926 0 -0.00109089 0 0)
(-28.6357 -0.20019 0 -0.00101035 0 0)
(-26.7852 -0.193658 0 -0.000987682 0 0)
(-25.0165 -0.184948 0 -0.000789644 0 0)
(-23.3512 -0.186964 0 -0.000827032 0 0)
(-21.6478 -0.184617 0 -0.000181495 0 0)
(-20.0307 -0.205665 0 -0.000464572 0 0)
(-18.1065 -0.223194 0 0.00238206 0 0)
(-16.2549 -0.281293 0 0.00086777 0 0)
(-13.5517 -0.386706 0 0.0179228 0 0)
(-10.4567 -0.527529 0 0.0100145 0 0)
(-50.1736 -0.265646 0 0.00120326 0 0)
(-50.7854 -0.386986 0 -0.0016552 0 0)
(-51.1837 -0.381207 0 -0.00196611 0 0)
(-51.3358 -0.383441 0 -0.00216069 0 0)
(-51.3219 -0.395987 0 -0.00242567 0 0)
(-51.1969 -0.407443 0 -0.00262067 0 0)
(-50.9929 -0.416759 0 -0.00276364 0 0)
(-50.7143 -0.423842 0 -0.00279196 0 0)
(-50.3791 -0.431419 0 -0.00281008 0 0)
(-49.9782 -0.438488 0 -0.00258116 0 0)
(-49.5326 -0.451494 0 -0.00243082 0 0)
(-49.0067 -0.467517 0 -0.00156628 0 0)
(-48.4312 -0.502015 0 -0.00093273 0 0)
(-47.7133 -0.543555 0 0.00205893 0 0)
(-46.9316 -0.629781 0 0.00506474 0 0)
(-45.8387 -0.731299 0 0.016555 0 0)
(-44.6779 -0.926405 0 0.0346187 0 0)
(-42.7395 -1.15147 0 0.0965985 0 0)
(-49.8887 -0.14879 0 0.00284132 0 0)
(-50.2295 -0.253431 0 0.000377478 0 0)
(-50.5439 -0.274438 0 -0.000304812 0 0)
(-50.7515 -0.29004 0 -0.00062758 0 0)
(-50.8903 -0.31341 0 -0.000951508 0 0)
(-51.0038 -0.336608 0 -0.00122644 0 0)
(-51.1147 -0.355657 0 -0.00137577 0 0)
(-51.2112 -0.373128 0 -0.00141851 0 0)
(-51.2992 -0.389011 0 -0.00124066 0 0)
(-51.3564 -0.408572 0 -0.000943312 0 0)
(-51.4092 -0.429261 0 -4.82946e-05 0 0)
(-51.4191 -0.46244 0 0.00110655 0 0)
(-51.4451 -0.50348 0 0.00412769 0 0)
(-51.404 -0.57211 0 0.00823794 0 0)
(-51.4234 -0.662581 0 0.0188434 0 0)
(-51.3394 -0.799395 0 0.0361609 0 0)
(-51.4027 -0.972223 0 0.0790614 0 0)
(-51.3093 -1.15185 0 0.166781 0 0)
(-50.1765 -0.155662 0 0.00262841 0 0)
(-50.4155 -0.288724 0 0.000124418 0 0)
(-50.655 -0.319344 0 -0.000793201 0 0)
(-50.8185 -0.324337 0 -0.00102698 0 0)
(-50.9227 -0.33751 0 -0.00122282 0 0)
(-51.0048 -0.355609 0 -0.00137082 0 0)
(-51.0861 -0.373081 0 -0.00140398 0 0)
(-51.1643 -0.387588 0 -0.00121674 0 0)
(-51.2406 -0.402216 0 -0.000812639 0 0)
(-51.3056 -0.417791 0 -7.2607e-06 0 0)
(-51.3694 -0.440227 0 0.00126708 0 0)
(-51.4202 -0.469538 0 0.00357682 0 0)
(-51.4798 -0.514732 0 0.00753708 0 0)
(-51.5326 -0.576225 0 0.0147827 0 0)
(-51.6214 -0.665846 0 0.0282044 0 0)
(-51.7391 -0.780332 0 0.0538934 0 0)
(-51.9423 -0.913918 0 0.103628 0 0)
(-52.2223 -1.02634 0 0.197284 0 0)
(-50.0412 -0.0948675 0 0.00412267 0 0)
(-50.2706 -0.227902 0 0.00150712 0 0)
(-50.5126 -0.264307 0 0.000381457 0 0)
(-50.6928 -0.276985 0 0.000104159 0 0)
(-50.8047 -0.296562 0 -4.24445e-05 0 0)
(-50.8824 -0.320799 0 -0.000124926 0 0)
(-50.9534 -0.342731 0 -2.97083e-05 0 0)
(-51.0245 -0.360947 0 0.000333516 0 0)
(-51.0928 -0.377431 0 0.00109016 0 0)
(-51.1533 -0.395533 0 0.0023746 0 0)
(-51.2049 -0.419168 0 0.0045226 0 0)
(-51.2502 -0.450909 0 0.00803578 0 0)
(-51.2958 -0.49563 0 0.0139751 0 0)
(-51.3533 -0.55484 0 0.024215 0 0)
(-51.4354 -0.633534 0 0.0420097 0 0)
(-51.5653 -0.726323 0 0.0741444 0 0)
(-51.7474 -0.822268 0 0.129328 0 0)
(-51.9954 -0.890991 0 0.225532 0 0)
(-50.1975 -0.0822248 0 0.0045346 0 0)
(-50.3357 -0.220423 0 0.00156932 0 0)
(-50.5115 -0.263176 0 0.000324401 0 0)
(-50.6611 -0.276178 0 4.1998e-07 0 0)
(-50.7648 -0.291289 0 -8.84053e-05 0 0)
(-50.842 -0.311931 0 -2.40055e-05 0 0)
(-50.9103 -0.332849 0 0.000267386 0 0)
(-50.974 -0.351279 0 0.000907027 0 0)
(-51.0317 -0.369132 0 0.00202425 0 0)
(-51.0841 -0.388473 0 0.00386911 0 0)
(-51.1339 -0.412233 0 0.00685338 0 0)
(-51.1869 -0.442541 0 0.0116955 0 0)
(-51.2469 -0.482616 0 0.0195911 0 0)
(-51.3229 -0.533787 0 0.0327364 0 0)
(-51.4204 -0.597219 0 0.0544597 0 0)
(-51.5537 -0.667182 0 0.091097 0 0)
(-51.721 -0.733311 0 0.150016 0 0)
(-51.927 -0.776243 0 0.244964 0 0)
(-49.8224 -0.0690934 0 0.004709 0 0)
(-49.94 -0.185265 0 0.00263375 0 0)
(-50.111 -0.236765 0 0.00138602 0 0)
(-50.2741 -0.257017 0 0.0010453 0 0)
(-50.3938 -0.275472 0 0.00105756 0 0)
(-50.4824 -0.299489 0 0.00124183 0 0)
(-50.5615 -0.323918 0 0.00171113 0 0)
(-50.6426 -0.344255 0 0.00267825 0 0)
(-50.7246 -0.361497 0 0.00434136 0 0)
(-50.8042 -0.379207 0 0.00698922 0 0)
(-50.8783 -0.401034 0 0.0110934 0 0)
(-50.9506 -0.429439 0 0.0175357 0 0)
(-51.0227 -0.466371 0 0.0276246 0 0)
(-51.106 -0.512106 0 0.0437597 0 0)
(-51.202 -0.565151 0 0.0691403 0 0)
(-51.3276 -0.620448 0 0.109542 0 0)
(-51.4719 -0.669051 0 0.170939 0 0)
(-51.6517 -0.699663 0 0.26336 0 0)
(-50.0179 -0.0441759 0 0.00490813 0 0)
(-50.0784 -0.145954 0 0.00260446 0 0)
(-50.1695 -0.208121 0 0.00138152 0 0)
(-50.2628 -0.234818 0 0.00108861 0 0)
(-50.3421 -0.250983 0 0.00123511 0 0)
(-50.4155 -0.269952 0 0.00168094 0 0)
(-50.4912 -0.291301 0 0.00248401 0 0)
(-50.5678 -0.311753 0 0.0038229 0 0)
(-50.6394 -0.330776 0 0.00596378 0 0)
(-50.7034 -0.350513 0 0.00931038 0 0)
(-50.761 -0.373445 0 0.0144407 0 0)
(-50.8187 -0.401204 0 0.0223585 0 0)
(-50.8813 -0.434382 0 0.0344668 0 0)
(-50.9561 -0.472671 0 0.0531755 0 0)
(-51.044 -0.513621 0 0.0814578 0 0)
(-51.151 -0.553327 0 0.124286 0 0)
(-51.2715 -0.584731 0 0.186196 0 0)
(-51.4069 -0.600856 0 0.274458 0 0)
(-49.9952 -0.0685184 0 0.00505606 0 0)
(-50.0386 -0.151954 0 0.00301675 0 0)
(-50.1269 -0.209685 0 0.00199178 0 0)
(-50.2345 -0.237792 0 0.00183535 0 0)
(-50.3328 -0.253989 0 0.0021685 0 0)
(-50.4141 -0.270556 0 0.00287249 0 0)
(-50.4848 -0.29004 0 0.00402788 0 0)
(-50.5535 -0.310519 0 0.00585217 0 0)
(-50.6229 -0.330632 0 0.00865776 0 0)
(-50.6916 -0.350585 0 0.0129247 0 0)
(-50.7579 -0.37176 0 0.0192931 0 0)
(-50.8244 -0.395865 0 0.028808 0 0)
(-50.8945 -0.423659 0 0.0428665 0 0)
(-50.9735 -0.454929 0 0.0637535 0 0)
(-51.0631 -0.487307 0 0.0940981 0 0)
(-51.1662 -0.51713 0 0.138055 0 0)
(-51.2775 -0.538282 0 0.198951 0 0)
(-51.3964 -0.545195 0 0.282132 0 0)
(-49.7868 -0.0230557 0 0.00576544 0 0)
(-49.8167 -0.115759 0 0.00386486 0 0)
(-49.876 -0.17107 0 0.00273915 0 0)
(-49.9669 -0.201069 0 0.00259083 0 0)
(-50.0673 -0.221077 0 0.00294882 0 0)
(-50.1589 -0.239616 0 0.00377495 0 0)
(-50.2401 -0.258507 0 0.00522551 0 0)
(-50.3182 -0.277313 0 0.00753087 0 0)
(-50.3985 -0.295933 0 0.0110043 0 0)
(-50.4814 -0.315313 0 0.0161364 0 0)
(-50.5645 -0.33603 0 0.0236127 0 0)
(-50.6476 -0.358379 0 0.0345217 0 0)
(-50.731 -0.381957 0 0.0502129 0 0)
(-50.8193 -0.405891 0 0.0727764 0 0)
(-50.9124 -0.427985 0 0.104378 0 0)
(-51.0153 -0.445418 0 0.148412 0 0)
(-51.1203 -0.453695 0 0.207013 0 0)
(-51.233 -0.449084 0 0.284187 0 0)
(-49.8643 -0.0566358 0 0.0055136 0 0)
(-49.8663 -0.131651 0 0.00413575 0 0)
(-49.8995 -0.172631 0 0.00327329 0 0)
(-49.9626 -0.198321 0 0.00320013 0 0)
(-50.0319 -0.216872 0 0.00370825 0 0)
(-50.0939 -0.233209 0 0.00488604 0 0)
(-50.1464 -0.250318 0 0.00681092 0 0)
(-50.1943 -0.267995 0 0.00966658 0 0)
(-50.2429 -0.285479 0 0.0137906 0 0)
(-50.2957 -0.302809 0 0.0197447 0 0)
(-50.3535 -0.320588 0 0.0282486 0 0)
(-50.4182 -0.33955 0 0.0403588 0 0)
(-50.4899 -0.359392 0 0.0572917 0 0)
(-50.5705 -0.379497 0 0.0808715 0 0)
(-50.6577 -0.397105 0 0.112785 0 0)
(-50.7537 -0.409944 0 0.155711 0 0)
(-50.8513 -0.413292 0 0.210893 0 0)
(-50.9544 -0.405126 0 0.281325 0 0)
(-49.6568 -0.0378324 0 0.00593486 0 0)
(-49.6512 -0.106138 0 0.00434527 0 0)
(-49.691 -0.148348 0 0.0032896 0 0)
(-49.7745 -0.176882 0 0.00324501 0 0)
(-49.8675 -0.196346 0 0.00395272 0 0)
(-49.9514 -0.212053 0 0.00539915 0 0)
(-50.0266 -0.227832 0 0.00765642 0 0)
(-50.1017 -0.244266 0 0.0109545 0 0)
(-50.1848 -0.260306 0 0.0156759 0 0)
(-50.2748 -0.275142 0 0.0224048 0 0)
(-50.368 -0.288772 0 0.0318389 0 0)
(-50.4585 -0.301792 0 0.0449692 0 0)
(-50.5477 -0.313944 0 0.0628617 0 0)
(-50.6328 -0.324742 0 0.0870965 0 0)
(-50.7216 -0.332146 0 0.118932 0 0)
(-50.8069 -0.334755 0 0.160468 0 0)
(-50.9006 -0.328966 0 0.212271 0 0)
(-50.9822 -0.313725 0 0.276602 0 0)
(-50.1203 -0.0526085 0 0.00735192 0 0)
(-50.1035 -0.0947853 0 0.00604512 0 0)
(-50.1333 -0.133079 0 0.00448918 0 0)
(-50.2029 -0.1609 0 0.00445889 0 0)
(-50.2808 -0.181151 0 0.00546449 0 0)
(-50.3539 -0.197881 0 0.00722704 0 0)
(-50.4231 -0.21191 0 0.00982899 0 0)
(-50.4944 -0.224049 0 0.013567 0 0)
(-50.5718 -0.23529 0 0.0188643 0 0)
(-50.6542 -0.247223 0 0.0263014 0 0)
(-50.739 -0.260649 0 0.0365088 0 0)
(-50.8229 -0.275466 0 0.0503623 0 0)
(-50.9065 -0.290175 0 0.0687608 0 0)
(-50.9871 -0.302671 0 0.0930657 0 0)
(-51.0685 -0.310249 0 0.124187 0 0)
(-51.145 -0.311021 0 0.163821 0 0)
(-51.223 -0.302378 0 0.211919 0 0)
(-51.2883 -0.283537 0 0.270377 0 0)
(-50.1696 -0.0787418 0 0.00825134 0 0)
(-50.2054 -0.0853497 0 0.00725246 0 0)
(-50.2396 -0.123239 0 0.006216 0 0)
(-50.2795 -0.154886 0 0.00613353 0 0)
(-50.3334 -0.173158 0 0.00697244 0 0)
(-50.403 -0.184476 0 0.00878197 0 0)
(-50.4809 -0.195322 0 0.0115799 0 0)
(-50.5582 -0.207198 0 0.0155884 0 0)
(-50.631 -0.219007 0 0.0211982 0 0)
(-50.699 -0.229626 0 0.0289505 0 0)
(-50.7649 -0.238803 0 0.0394222 0 0)
(-50.8313 -0.24654 0 0.0533883 0 0)
(-50.9013 -0.252265 0 0.0715563 0 0)
(-50.9739 -0.25502 0 0.0949819 0 0)
(-51.0493 -0.253156 0 0.124208 0 0)
(-51.1223 -0.245504 0 0.160499 0 0)
(-51.1927 -0.229973 0 0.203463 0 0)
(-51.2524 -0.206533 0 0.254589 0 0)
(-50.1051 -0.0261676 0 0.00977477 0 0)
(-50.1684 -0.0709582 0 0.00851351 0 0)
(-50.2127 -0.102633 0 0.00714113 0 0)
(-50.2467 -0.122028 0 0.00731319 0 0)
(-50.285 -0.133853 0 0.00859417 0 0)
(-50.3353 -0.141776 0 0.0108774 0 0)
(-50.3971 -0.148702 0 0.0142434 0 0)
(-50.4676 -0.156647 0 0.0189127 0 0)
(-50.5443 -0.166026 0 0.0251984 0 0)
(-50.6248 -0.175989 0 0.0335595 0 0)
(-50.7063 -0.185363 0 0.0444831 0 0)
(-50.7871 -0.193068 0 0.0586333 0 0)
(-50.8655 -0.198235 0 0.0764986 0 0)
(-50.9418 -0.200075 0 0.0988724 0 0)
(-51.0143 -0.197814 0 0.125898 0 0)
(-51.0841 -0.190521 0 0.158523 0 0)
(-51.1461 -0.177164 0 0.195941 0 0)
(-51.2033 -0.156877 0 0.239533 0 0)
(-49.9957 -0.0256746 0 0.0111409 0 0)
(-49.9661 -0.0877946 0 0.0095011 0 0)
(-49.9641 -0.114337 0 0.00742196 0 0)
(-50.0016 -0.129256 0 0.00744584 0 0)
(-50.0566 -0.140778 0 0.00884052 0 0)
(-50.1148 -0.148188 0 0.0111093 0 0)
(-50.1711 -0.151346 0 0.0142349 0 0)
(-50.2255 -0.152765 0 0.0185575 0 0)
(-50.2796 -0.154932 0 0.0244857 0 0)
(-50.3361 -0.158763 0 0.0324313 0 0)
(-50.3956 -0.163301 0 0.0427319 0 0)
(-50.4586 -0.166984 0 0.0558377 0 0)
(-50.5224 -0.167919 0 0.0720178 0 0)
(-50.5879 -0.165254 0 0.0917806 0 0)
(-50.6505 -0.157914 0 0.115033 0 0)
(-50.7127 -0.146321 0 0.142428 0 0)
(-50.7663 -0.129317 0 0.173096 0 0)
(-50.8177 -0.108266 0 0.208092 0 0)
(-50.0036 -0.047401 0 0.0110568 0 0)
(-49.9789 -0.0445495 0 0.0100546 0 0)
(-49.9845 -0.0505505 0 0.00737543 0 0)
(-50.0355 -0.061104 0 0.0073187 0 0)
(-50.0976 -0.0720905 0 0.00902131 0 0)
(-50.1533 -0.0802996 0 0.0118341 0 0)
(-50.2008 -0.0850839 0 0.0155903 0 0)
(-50.2432 -0.0877945 0 0.0204333 0 0)
(-50.2838 -0.089818 0 0.0266481 0 0)
(-50.3253 -0.0914501 0 0.0345779 0 0)
(-50.3691 -0.0918951 0 0.0444616 0 0)
(-50.4149 -0.0904119 0 0.0565842 0 0)
(-50.4618 -0.0864741 0 0.0710162 0 0)
(-50.5077 -0.0801225 0 0.0880659 0 0)
(-50.5511 -0.0712283 0 0.107498 0 0)
(-50.5894 -0.0599645 0 0.129792 0 0)
(-50.6222 -0.0459642 0 0.154082 0 0)
(-50.6464 -0.0294149 0 0.181293 0 0)
(-50.0203 -0.0838011 0 0.0114599 0 0)
(-50.0607 -0.0662823 0 0.0107033 0 0)
(-50.0958 -0.0733542 0 0.00809484 0 0)
(-50.1259 -0.0866528 0 0.00770789 0 0)
(-50.1585 -0.0976118 0 0.00880918 0 0)
(-50.2007 -0.103081 0 0.0109819 0 0)
(-50.2511 -0.103641 0 0.0140946 0 0)
(-50.3048 -0.101706 0 0.018189 0 0)
(-50.3593 -0.0991397 0 0.0234192 0 0)
(-50.4129 -0.0963784 0 0.0299845 0 0)
(-50.4654 -0.0927769 0 0.0380111 0 0)
(-50.5156 -0.0878321 0 0.0476579 0 0)
(-50.564 -0.0811872 0 0.0589264 0 0)
(-50.6086 -0.0731467 0 0.0719764 0 0)
(-50.651 -0.0636016 0 0.0865552 0 0)
(-50.688 -0.0530689 0 0.102944 0 0)
(-50.7234 -0.0410389 0 0.120462 0 0)
(-50.7501 -0.0282909 0 0.139697 0 0)
(-50.1295 0.0218889 0 0.00983071 0 0)
(-50.1739 0.00736211 0 0.0101041 0 0)
(-50.2189 -0.00159285 0 0.00897742 0 0)
(-50.2719 -0.00256333 0 0.00904005 0 0)
(-50.333 0.00118618 0 0.0100951 0 0)
(-50.3974 0.00638905 0 0.0120487 0 0)
(-50.4611 0.0116365 0 0.0148687 0 0)
(-50.522 0.0160752 0 0.0185574 0 0)
(-50.5798 0.0194265 0 0.0231263 0 0)
(-50.6347 0.0218881 0 0.02862 0 0)
(-50.6872 0.0242285 0 0.0350597 0 0)
(-50.7373 0.0273689 0 0.0425214 0 0)
(-50.7848 0.0322623 0 0.0509682 0 0)
(-50.829 0.0391304 0 0.0604808 0 0)
(-50.8704 0.0479433 0 0.0708447 0 0)
(-50.9079 0.0576503 0 0.0822562 0 0)
(-50.9424 0.0679917 0 0.0942242 0 0)
(-50.9716 0.0774097 0 0.107185 0 0)
(-50.0107 -0.0297548 0 0.0128892 0 0)
(-50.0504 -0.0304218 0 0.012519 0 0)
(-50.0957 -0.0220217 0 0.00956335 0 0)
(-50.1524 -0.0129269 0 0.00847812 0 0)
(-50.2109 -0.00769613 0 0.00882727 0 0)
(-50.2665 -0.00531023 0 0.010085 0 0)
(-50.321 -0.00341118 0 0.012042 0 0)
(-50.3747 -0.000488412 0 0.0146062 0 0)
(-50.4252 0.00365314 0 0.0177401 0 0)
(-50.4724 0.00834492 0 0.0214601 0 0)
(-50.517 0.0132595 0 0.0257751 0 0)
(-50.5609 0.0186015 0 0.030709 0 0)
(-50.6039 0.0249974 0 0.0362262 0 0)
(-50.6466 0.0325261 0 0.0423576 0 0)
(-50.6866 0.0411159 0 0.0489484 0 0)
(-50.7247 0.0496197 0 0.056142 0 0)
(-50.7573 0.0577616 0 0.0636371 0 0)
(-50.7875 0.0639234 0 0.0716436 0 0)
(-49.67 0.0418835 0 0.0109894 0 0)
(-49.7028 0.0484437 0 0.00983072 0 0)
(-49.7426 0.0558173 0 0.00761467 0 0)
(-49.8035 0.063481 0 0.00717476 0 0)
(-49.8688 0.071417 0 0.0076594 0 0)
(-49.9321 0.0787236 0 0.00869855 0 0)
(-49.9937 0.084464 0 0.0101909 0 0)
(-50.0532 0.0885035 0 0.0120972 0 0)
(-50.1105 0.09138 0 0.0143937 0 0)
(-50.1658 0.0941673 0 0.017102 0 0)
(-50.2189 0.0981201 0 0.0202304 0 0)
(-50.2696 0.103861 0 0.023778 0 0)
(-50.3177 0.111394 0 0.0276909 0 0)
(-50.3631 0.119709 0 0.0319872 0 0)
(-50.406 0.127908 0 0.0365793 0 0)
(-50.4461 0.134639 0 0.0415675 0 0)
(-50.4836 0.139844 0 0.0467352 0 0)
(-50.5184 0.142542 0 0.052222 0 0)
(-49.6368 -0.000620376 0 0.0123835 0 0)
(-49.6415 0.0398407 0 0.0107829 0 0)
(-49.6789 0.0485429 0 0.00759747 0 0)
(-49.7577 0.0516749 0 0.00616215 0 0)
(-49.8499 0.0574784 0 0.00591291 0 0)
(-49.9374 0.0653667 0 0.00643883 0 0)
(-50.0168 0.0729082 0 0.0074358 0 0)
(-50.0909 0.0788474 0 0.00871493 0 0)
(-50.1628 0.0835157 0 0.0102064 0 0)
(-50.234 0.0878066 0 0.0119301 0 0)
(-50.3043 0.0926733 0 0.0139237 0 0)
(-50.3727 0.098583 0 0.0162106 0 0)
(-50.438 0.105791 0 0.0187638 0 0)
(-50.4992 0.113817 0 0.0215782 0 0)
(-50.5565 0.122298 0 0.0245728 0 0)
(-50.6095 0.129988 0 0.0278261 0 0)
(-50.6596 0.136781 0 0.0312076 0 0)
(-50.7057 0.141134 0 0.0347782 0 0)
(-49.8878 0.00170953 0 0.00948058 0 0)
(-49.9591 0.0748449 0 0.00777946 0 0)
(-50.022 0.110159 0 0.0055039 0 0)
(-50.0919 0.124952 0 0.00473322 0 0)
(-50.1628 0.134251 0 0.00482261 0 0)
(-50.2288 0.143723 0 0.00527831 0 0)
(-50.2912 0.152757 0 0.0059169 0 0)
(-50.3528 0.159874 0 0.00673203 0 0)
(-50.4141 0.165305 0 0.00774343 0 0)
(-50.474 0.170138 0 0.00896317 0 0)
(-50.5308 0.175339 0 0.010385 0 0)
(-50.5831 0.181154 0 0.0120064 0 0)
(-50.6304 0.187418 0 0.013809 0 0)
(-50.6728 0.193545 0 0.015801 0 0)
(-50.7112 0.199213 0 0.0179239 0 0)
(-50.7453 0.203786 0 0.0202232 0 0)
(-50.7773 0.207393 0 0.0225952 0 0)
(-50.8059 0.209454 0 0.0250788 0 0)
(-50.0712 0.0688186 0 0.00832241 0 0)
(-50.1471 0.0887912 0 0.00599168 0 0)
(-50.2407 0.108561 0 0.00386363 0 0)
(-50.3398 0.119355 0 0.00305399 0 0)
(-50.4294 0.125471 0 0.0029793 0 0)
(-50.5044 0.13199 0 0.00321787 0 0)
(-50.5693 0.139823 0 0.00357683 0 0)
(-50.63 0.147165 0 0.00403505 0 0)
(-50.6893 0.152544 0 0.00461856 0 0)
(-50.7475 0.156142 0 0.0053487 0 0)
(-50.8035 0.159147 0 0.00622709 0 0)
(-50.8562 0.162537 0 0.00724754 0 0)
(-50.9051 0.166821 0 0.00838785 0 0)
(-50.9503 0.171841 0 0.00963412 0 0)
(-50.9924 0.177337 0 0.0109522 0 0)
(-51.0318 0.182508 0 0.0123776 0 0)
(-51.0688 0.187163 0 0.0138578 0 0)
(-51.104 0.190474 0 0.0154144 0 0)
(-49.5894 0.0493398 0 0.00813365 0 0)
(-49.6458 0.116863 0 0.00586713 0 0)
(-49.7475 0.159858 0 0.00367158 0 0)
(-49.8668 0.176564 0 0.00287832 0 0)
(-49.975 0.183023 0 0.00261695 0 0)
(-50.0661 0.189545 0 0.00265062 0 0)
(-50.1456 0.197495 0 0.00285671 0 0)
(-50.2195 0.205021 0 0.00316207 0 0)
(-50.2904 0.210957 0 0.0035477 0 0)
(-50.3581 0.215709 0 0.00401973 0 0)
(-50.4215 0.220211 0 0.00458644 0 0)
(-50.4798 0.224906 0 0.0052475 0 0)
(-50.5328 0.229864 0 0.00599105 0 0)
(-50.581 0.234735 0 0.00681454 0 0)
(-50.6255 0.239368 0 0.00768692 0 0)
(-50.6678 0.243334 0 0.00864071 0 0)
(-50.7093 0.246712 0 0.00963385 0 0)
(-50.7514 0.249013 0 0.0106614 0 0)
(-50.0158 0.065278 0 0.00699172 0 0)
(-50.1192 0.141748 0 0.00510276 0 0)
(-50.2306 0.167432 0 0.00341514 0 0)
(-50.3326 0.172049 0 0.00271896 0 0)
(-50.4186 0.176161 0 0.00249014 0 0)
(-50.4911 0.183585 0 0.00242662 0 0)
(-50.5563 0.191658 0 0.00242558 0 0)
(-50.6199 0.198128 0 0.00248525 0 0)
(-50.685 0.202544 0 0.00261805 0 0)
(-50.751 0.205385 0 0.00282287 0 0)
(-50.8163 0.207431 0 0.00309219 0 0)
(-50.8794 0.209381 0 0.0034184 0 0)
(-50.9397 0.211858 0 0.00379813 0 0)
(-50.9966 0.215106 0 0.00423374 0 0)
(-51.0508 0.219363 0 0.00469825 0 0)
(-51.102 0.224377 0 0.00521216 0 0)
(-51.1515 0.230128 0 0.00574811 0 0)
(-51.1987 0.235922 0 0.00629509 0 0)
(-49.9126 0.111282 0 0.00544562 0 0)
(-50.0827 0.190831 0 0.00292947 0 0)
(-50.2377 0.219096 0 0.00160112 0 0)
(-50.3482 0.224967 0 0.00110456 0 0)
(-50.419 0.229303 0 0.000914754 0 0)
(-50.4729 0.236416 0 0.000830738 0 0)
(-50.5251 0.243674 0 0.000784073 0 0)
(-50.5792 0.24941 0 0.000775855 0 0)
(-50.6324 0.25391 0 0.000819592 0 0)
(-50.6829 0.257846 0 0.000919526 0 0)
(-50.7316 0.261542 0 0.00107144 0 0)
(-50.7804 0.265088 0 0.00126993 0 0)
(-50.8307 0.268595 0 0.00150831 0 0)
(-50.882 0.272103 0 0.00178111 0 0)
(-50.9336 0.275719 0 0.00207441 0 0)
(-50.9838 0.279307 0 0.0024041 0 0)
(-51.0323 0.282902 0 0.00275139 0 0)
(-51.0779 0.286138 0 0.00311163 0 0)
(-49.9444 0.11929 0 0.00463518 0 0)
(-50.1167 0.16778 0 0.00207329 0 0)
(-50.2775 0.186998 0 0.0010649 0 0)
(-50.3882 0.191343 0 0.000686161 0 0)
(-50.467 0.197137 0 0.000492101 0 0)
(-50.54 0.206835 0 0.00035542 0 0)
(-50.6145 0.216647 0 0.000245563 0 0)
(-50.6872 0.224112 0 0.000176045 0 0)
(-50.7556 0.229392 0 0.00014692 0 0)
(-50.8212 0.233915 0 0.000145297 0 0)
(-50.8877 0.238629 0 0.000164162 0 0)
(-50.9569 0.243964 0 0.000199153 0 0)
(-51.0289 0.249684 0 0.000251174 0 0)
(-51.1009 0.255621 0 0.000324692 0 0)
(-51.1718 0.261417 0 0.000420988 0 0)
(-51.2376 0.267322 0 0.000544875 0 0)
(-51.3005 0.273214 0 0.000690403 0 0)
(-51.3563 0.279528 0 0.000843433 0 0)
(-50.0358 0.211275 0 0.00309248 0 0)
(-50.3506 0.277115 0 0.000372562 0 0)
(-50.6205 0.271927 0 -0.000188103 0 0)
(-50.7974 0.269726 0 -0.000357817 0 0)
(-50.9112 0.275964 0 -0.000512022 0 0)
(-50.9938 0.282528 0 -0.000628899 0 0)
(-51.0519 0.286425 0 -0.000701645 0 0)
(-51.0841 0.288571 0 -0.000742749 0 0)
(-51.0916 0.290838 0 -0.00076561 0 0)
(-51.0791 0.294527 0 -0.000786018 0 0)
(-51.0493 0.299487 0 -0.000811394 0 0)
(-51.0049 0.305011 0 -0.000835273 0 0)
(-50.9435 0.309918 0 -0.000838343 0 0)
(-50.8686 0.313863 0 -0.00081411 0 0)
(-50.7768 0.3164 0 -0.00076446 0 0)
(-50.6764 0.318314 0 -0.000696296 0 0)
(-50.5598 0.319573 0 -0.000613457 0 0)
(-50.4431 0.321344 0 -0.000538473 0 0)
(-49.0684 0.155449 0 0.0024708 0 0)
(-47.4095 0.224656 0 0.00032534 0 0)
(-45.7767 0.216531 0 8.21097e-06 0 0)
(-44.1734 0.208989 0 -0.0001124 0 0)
(-42.6253 0.208097 0 -0.00024291 0 0)
(-41.146 0.207409 0 -0.00035206 0 0)
(-39.744 0.204224 0 -0.000408129 0 0)
(-38.4243 0.199047 0 -0.000425109 0 0)
(-37.1825 0.193383 0 -0.00042937 0 0)
(-36.0102 0.188286 0 -0.000433513 0 0)
(-34.8966 0.183812 0 -0.000438472 0 0)
(-33.8377 0.179661 0 -0.000440955 0 0)
(-32.8274 0.17544 0 -0.0004369 0 0)
(-31.8701 0.171191 0 -0.000428582 0 0)
(-30.9576 0.166948 0 -0.00041688 0 0)
(-30.0999 0.163204 0 -0.000401217 0 0)
(-29.2766 0.159907 0 -0.000388308 0 0)
(-28.5099 0.157722 0 -0.000392121 0 0)
(-0.0243594 0.0474162 -2.1765e-22 -0.0877658 4.16973e-22 4.23959e-39)
(-0.0921161 0.0180743 5.57217e-22 0.013104 -3.07158e-22 4.16996e-39)
(-0.0648687 -0.0753217 0 0.0421005 0 0)
(0.131714 -0.172705 0 0.0253607 0 0)
(0.486693 -0.21386 0 -0.032786 0 0)
(0.842556 -0.153263 -1.20422e-21 -0.104895 -1.89097e-22 3.92378e-39)
(1.04771 -0.00223621 0 -0.159196 0 0)
(0.945809 0.188107 0 -0.176799 0 0)
(0.520456 0.351054 0 -0.159208 0 0)
(-0.177702 0.461551 0 -0.123935 0 0)
(-1.01775 0.497044 -4.96423e-23 -0.0808385 4.39747e-22 3.60924e-39)
(-1.91226 0.47613 0 -0.0430355 0 0)
(-2.76354 0.415681 0 -0.0137941 0 0)
(-3.49584 0.330932 0 0.00752995 0 0)
(-4.05764 0.232589 0 0.0232398 0 0)
(-4.41571 0.126796 -2.28403e-21 0.0355407 3.36508e-22 3.31314e-39)
(-4.54428 0.0146004 0 0.0462077 0 0)
(-4.4317 -0.102098 0 0.0557552 0 0)
(-4.05896 -0.224272 0 0.0642339 0 0)
(-3.4423 -0.342848 0 0.0705596 0 0)
(-2.55621 -0.454218 0 0.0746183 0 0)
(-1.49462 -0.531715 0 0.07707 0 0)
(-0.199706 -0.582704 0 0.0811326 0 0)
(1.08906 -0.535678 -3.92774e-21 0.101415 1.27207e-22 2.92038e-39)
(2.53521 -0.54039 4.06815e-21 0.125713 -7.19991e-23 2.87625e-39)
(3.83737 -0.387048 -4.18133e-21 0.19224 -4.0337e-24 2.8324e-39)
(5.10745 -0.158975 -4.29803e-21 0.303595 -9.00409e-23 2.78879e-39)
(6.39656 0.0665831 0 0.391754 0 0)
(7.51487 0.123821 0 0.33712 0 0)
(8.75736 -0.279162 4.49482e-21 0.420202 1.95163e-22 2.6512e-39)
(10.2443 -0.568253 4.59248e-21 0.435458 2.58424e-22 2.60313e-39)
(11.9343 -0.69281 0 0.41788 0 0)
(13.6806 -0.730948 0 0.397331 0 0)
(15.2502 -0.697335 4.98935e-21 0.408605 1.13057e-22 2.46458e-39)
(16.5674 -0.666562 0 0.447023 0 0)
(17.7876 -0.697052 0 0.531428 0 0)
(19.2198 -0.89192 -5.74497e-21 0.679775 -2.19526e-24 2.33568e-39)
(21.1724 -1.19337 0 0.751287 0 0)
(23.7167 -1.39967 -7.0972e-21 0.689344 2.27952e-22 2.254e-39)
(26.3411 -1.28942 -1.5744e-20 0.52136 5.33342e-22 8.85346e-39)
(28.3736 -0.947617 0 0.409276 0 0)
(29.4275 -0.661987 0 0.369082 0 0)
(29.5159 -0.613415 0 0.387444 0 0)
(29.4072 -0.878239 0 0.429143 0 0)
(30.1767 -0.9056 0 0.559908 0 0)
(30.8432 -0.924121 -2.40301e-20 0.671362 1.01096e-21 7.92705e-39)
(31.4949 -1.9768 -2.43888e-20 0.674569 1.23974e-21 7.77557e-39)
(31.4267 -2.2429 -2.37174e-20 0.857364 1.30672e-21 7.62526e-39)
(31.0369 -0.346712 0 0.452423 0 0)
(27.7308 0.499208 2.17307e-20 0.554639 6.43794e-22 7.32427e-39)
(25.2604 0.243339 0 0.457438 0 0)
(22.8604 0.190068 -1.86792e-20 0.453785 -3.31109e-22 7.03295e-39)
(20.4959 0.25981 -1.71532e-20 0.414701 -4.05986e-22 6.89259e-39)
(18.1117 0.288649 0 0.343558 0 0)
(16.3093 0.275474 0 0.272626 0 0)
(13.9907 -0.587876 0 0.317226 0 0)
(11.4354 0.396952 -1.03228e-20 0.23254 -3.49059e-22 6.35839e-39)
(5.67274 1.6158 0 0.318301 0 0)
(-0.0940675 1.6152 0 0.201501 0 0)
(-5.63503 1.74365 0 0.147078 0 0)
(-10.7172 1.5351 0 0.10909 0 0)
(-14.5744 1.17718 0 0.0871731 0 0)
(-17.5971 0.821591 0 0.0697171 0 0)
(-19.8336 0.600043 0 0.0570067 0 0)
(-21.6354 0.460497 0 0.0472528 0 0)
(-23.0761 0.38575 -1.58445e-20 0.0411011 6.63111e-23 5.28857e-39)
(-24.3268 0.352472 0 0.038265 0 0)
(-25.3863 0.342436 0 0.0386275 0 0)
(-26.2853 0.317126 1.70426e-20 0.0404935 1.88862e-23 4.9799e-39)
(-26.9212 0.254458 1.69561e-20 0.0410737 6.40239e-23 4.88071e-39)
(-27.2423 0.161939 0 0.0394561 0 0)
(-27.2227 0.0623215 -1.61055e-20 0.0367356 -2.02802e-22 4.68804e-39)
(-26.8905 -0.0315634 1.53635e-20 0.0337935 2.68985e-22 4.59461e-39)
(-26.275 -0.114212 0 0.031027 0 0)
(-25.4173 -0.184635 -1.33626e-20 0.0285539 -3.72428e-22 4.41329e-39)
(-24.3519 -0.243256 0 0.0263801 0 0)
(-23.1127 -0.291681 0 0.0244505 0 0)
(-21.7267 -0.331618 9.46701e-21 0.0226884 4.61503e-22 4.15398e-39)
(-20.2159 -0.364783 0 0.021016 0 0)
(-18.5962 -0.392831 -6.47569e-21 0.0193748 -4.93375e-22 3.98897e-39)
(-16.8809 -0.416833 0 0.0177146 0 0)
(-15.0791 -0.437632 3.24659e-21 0.0160046 5.16105e-22 3.82989e-39)
(-13.1987 -0.4558 1.55315e-21 0.014225 5.24215e-22 3.75247e-39)
(-11.2475 -0.471439 -1.83389e-22 0.0123572 5.29161e-22 3.67642e-39)
(-9.23364 -0.484153 -3.90081e-21 0.0103754 1.05889e-21 1.44067e-38)
(-7.16768 -0.493665 7.45635e-21 0.00825742 -1.04775e-21 1.41128e-38)
(-5.06404 -0.498784 0 0.00599405 0 0)
(-2.94106 -0.498357 0 0.003615 0 0)
(-0.822462 -0.491362 0 0.00118816 0 0)
(1.26338 -0.476781 2.06978e-20 -0.00118824 -8.53424e-22 1.29833e-38)
(3.28537 -0.454566 2.33864e-20 -0.00340138 -7.62688e-22 1.27112e-38)
(5.21147 -0.425078 -2.56745e-20 -0.0053115 6.58492e-22 1.24426e-38)
(7.01364 -0.389355 0 -0.00679997 0 0)
(8.66879 -0.349166 2.88644e-20 -0.00781726 -4.30503e-22 1.19156e-38)
(10.1601 -0.306155 2.97311e-20 -0.00838575 -3.16925e-22 1.16569e-38)
(11.4773 -0.261842 3.01247e-20 -0.00859318 -2.09051e-22 1.14015e-38)
(12.615 -0.217252 0 -0.00854966 0 0)
(13.5704 -0.172937 0 -0.00836258 0 0)
(14.3416 -0.129086 0 -0.00811193 0 0)
(14.9268 -0.0857605 2.75956e-20 -0.00783935 1.40344e-22 1.04126e-38)
(15.3231 -0.0439593 0 -0.00755949 0 0)
(15.5292 -0.00232475 0 -0.00725742 0 0)
(15.548 0.037936 -2.24827e-20 -0.00690269 -3.10803e-22 9.70218e-39)
(15.3825 0.0762682 0 -0.00646521 0 0)
(15.0401 0.111829 0 -0.00593094 0 0)
(14.5315 0.143771 -1.59848e-20 -0.00530097 -3.9819e-22 9.02568e-39)
(13.8713 0.171477 0 -0.00459743 0 0)
(13.0771 0.19451 0 -0.00384926 0 0)
(12.1692 0.212837 9.34319e-21 -0.00309225 4.06043e-22 8.38678e-39)
(11.1681 0.226388 7.27156e-21 -0.00235409 3.95419e-22 8.1818e-39)
(10.0938 0.235393 0 -0.00165735 0 0)
(8.96576 0.240065 -3.4885e-21 -0.00101622 -3.61141e-22 7.78381e-39)
(7.80289 0.240891 0 -0.000444061 0 0)
(6.62255 0.238267 2.8021e-22 5.18258e-05 3.16212e-22 7.40136e-39)
(5.43976 0.232702 0 0.00046629 0 0)
(4.27 0.225328 -2.3029e-21 0.000799144 2.68934e-22 7.03385e-39)
(3.12626 0.215169 -3.36013e-21 0.00105592 2.45322e-22 6.85528e-39)
(2.0168 0.203619 0 0.00124418 0 0)
(0.952091 0.190891 0 0.0013721 0 0)
(-0.060675 0.177181 0 0.00144498 0 0)
(-1.01693 0.16287 0 0.00147304 0 0)
(-1.91359 0.148304 0 0.00146756 0 0)
(-2.74872 0.133855 0 0.00144266 0 0)
(-3.52166 0.119734 0 0.00140703 0 0)
(-4.23299 0.10608 -7.4329e-21 0.00136665 9.90849e-23 5.5495e-39)
(-4.88401 0.0929872 7.58137e-21 0.00132472 -8.64684e-23 5.40121e-39)
(-5.47656 0.0805169 0 0.00128254 0 0)
(-6.01269 0.0686921 0 0.00124019 0 0)
(-6.49463 0.0575097 0 0.0011968 0 0)
(-6.92465 0.0469441 0 0.00115158 0 0)
(-7.30499 0.0369726 1.56353e-20 0.0011037 -6.99441e-23 1.882e-38)
(-7.63785 0.0275697 0 0.00105276 0 0)
(-7.92538 0.018703 -1.55508e-20 0.000998665 4.04802e-23 1.77856e-38)
(-8.16958 0.0103326 1.54824e-20 0.000941648 -2.68556e-23 1.72845e-38)
(-8.37233 0.00242409 0 0.000882311 0 0)
(-8.53534 -0.00505282 0 0.000821398 0 0)
(-8.66012 -0.012141 0 0.00075962 0 0)
(-8.74784 -0.0189102 -1.51304e-20 0.000697691 -2.37053e-23 1.53822e-38)
(-8.79929 -0.0254217 -1.50227e-20 0.000636145 -3.94258e-23 1.49314e-38)
(-8.81492 -0.0316946 0 0.000575069 0 0)
(-8.79492 -0.0377273 -1.477e-20 0.00051415 -6.14306e-23 1.4058e-38)
(-8.73932 -0.0435259 -1.4626e-20 0.000452734 -6.89666e-23 1.36352e-38)
(-8.64807 -0.0490793 1.44677e-20 0.000390692 7.87818e-23 1.32215e-38)
(-8.52139 -0.0543243 0 0.000329574 0 0)
(-8.35996 -0.0591514 0 0.000272695 0 0)
(-8.16531 -0.0633723 1.38518e-20 0.000226135 1.17834e-22 1.20332e-38)
(-7.94007 -0.0667835 0 0.000196756 0 0)
(-7.68764 -0.0694038 0 0.000184455 0 0)
(-7.41136 -0.0714512 0 0.000184591 0 0)
(-7.11433 -0.0728669 0 0.000201991 0 0)
(-6.80034 -0.0733536 -1.2324e-20 0.000246061 -1.52271e-22 1.02204e-38)
(-6.47365 -0.0730767 -1.19504e-20 0.000311571 -1.56716e-22 9.8818e-39)
(-6.13722 -0.0724797 0 0.000389132 0 0)
(-5.79321 -0.0712564 -1.11647e-20 0.000481412 -1.54158e-22 9.22742e-39)
(-5.44606 -0.0681873 0 0.00058033 0 0)
(-5.10505 -0.0621892 0 0.000612673 0 0)
(-4.7827 -0.0534027 -9.99689e-21 0.000515136 -1.12429e-22 8.30107e-39)
(-4.49027 -0.0432928 0 0.000355285 0 0)
(-4.23307 -0.0338329 -9.37725e-21 0.000246772 -6.94083e-23 7.71862e-39)
(-4.0094 -0.0266692 0 0.000226729 0 0)
(-3.81157 -0.0226253 0 0.000253025 0 0)
(-3.63001 -0.0215474 -8.72403e-21 0.000264895 -4.16868e-23 6.89535e-39)
(-3.45517 -0.0224836 0 0.000236661 0 0)
(-3.28119 -0.024159 -8.34118e-21 0.000185508 -4.78242e-23 6.37925e-39)
(-3.10365 -0.0256431 0 0.000135715 0 0)
(-2.92356 -0.0263326 0 0.000100272 0 0)
(-2.74217 -0.0257432 0 8.1234e-05 0 0)
(-2.56835 -0.0233813 7.51984e-21 6.96518e-05 4.74756e-23 5.42281e-39)
(-2.40637 -0.0195051 0 4.60904e-05 0 0)
(-2.26596 -0.0150635 -7.16536e-21 1.51363e-05 -3.11936e-23 4.98092e-39)
(-2.14296 -0.011728 0 -9.20818e-06 0 0)
(-2.03719 -0.00988368 0 -1.73743e-05 0 0)
(-1.93789 -0.0103872 0 -2.77103e-05 0 0)
(-1.83119 -0.0116315 0 -3.34364e-05 0 0)
(-1.7283 -0.0157683 0 -7.57317e-05 0 0)
(-1.56552 -0.018715 0 -8.89705e-05 0 0)
(-1.45814 -0.0284616 0 -0.000294348 0 0)
(-1.13366 -0.0307981 1.15513e-20 -0.000270107 1.56297e-22 1.3774e-38)
(-1.10816 -0.0521059 0 -0.0014433 0 0)
(-0.366578 -0.0314913 0 -0.000846371 0 0)
(0.00369333 -0.0110977 7.37012e-23 -0.317068 -3.1983e-21 3.81585e-38)
(0.0368421 -0.0767011 -2.11176e-22 0.118318 2.94497e-21 3.76162e-38)
(0.104569 -0.166406 0 0.363268 0 0)
(0.19967 -0.246095 5.15401e-22 0.431942 -1.40275e-21 1.6223e-38)
(0.267042 -0.150435 0 0.134428 0 0)