/*--------------------------------*- C++ -*----------------------------------*\
  =========                 |
  \\      /  F ield         | OpenFOAM: The Open Source CFD Toolbox
   \\    /   O peration     | Website:  https://openfoam.org
    \\  /    A nd           | Version:  9
     \\/     M anipulation  |
\*---------------------------------------------------------------------------*/
FoamFile
{
    format      ascii;
    class       volScalarField;
    location    "0.28";
    object      k;
}
// * * * * * * * * * * * * * * * * * * * * * * * * * * * * * * * * * * * * * //

dimensions      [0 2 -2 0 0 0 0];

internalField   nonuniform List<scalar> 
12225
(
0.353921
0.335043
0.316966
0.300961
0.288125
0.278906
0.273297
0.271001
0.271563
0.274465
0.279194
0.28528
0.292317
0.299969
0.307979
0.316134
0.324476
0.336554
0.436864
0.448979
0.438084
0.43306
0.438785
0.453583
0.474794
0.499971
0.527124
0.55477
0.581878
0.607783
0.632109
0.654676
0.67559
0.694746
0.714208
0.729495
0.395187
0.410874
0.410631
0.405747
0.40201
0.400923
0.402613
0.406805
0.413078
0.420973
0.430057
0.439949
0.450339
0.460983
0.47174
0.482498
0.493536
0.504226
0.379641
0.38484
0.386546
0.38573
0.383905
0.382026
0.380567
0.379738
0.379605
0.380146
0.381299
0.382981
0.385112
0.387614
0.390436
0.39354
0.396945
0.400548
0.374976
0.3759
0.376239
0.375721
0.37457
0.373084
0.371496
0.369967
0.368593
0.367426
0.366484
0.365767
0.365266
0.364965
0.364852
0.364916
0.365154
0.365533
0.373488
0.372555
0.371759
0.370807
0.369631
0.368275
0.366809
0.3653
0.363804
0.362358
0.36099
0.359714
0.358537
0.357461
0.356487
0.355615
0.354843
0.354165
0.373012
0.371296
0.369813
0.368416
0.367025
0.36561
0.364169
0.362712
0.361258
0.359824
0.358426
0.357073
0.355774
0.354533
0.353354
0.35224
0.351191
0.350215
0.372865
0.370838
0.369004
0.367311
0.365711
0.364174
0.362679
0.361216
0.359783
0.358382
0.357015
0.355688
0.354402
0.353161
0.351968
0.350822
0.349729
0.348696
0.37282
0.37068
0.368691
0.366836
0.365095
0.363449
0.36188
0.360376
0.358928
0.357532
0.356183
0.35488
0.353622
0.352409
0.351241
0.350119
0.349042
0.348023
0.372806
0.370628
0.368578
0.366648
0.364829
0.36311
0.361482
0.359934
0.358457
0.357046
0.355694
0.354397
0.353153
0.351959
0.350812
0.349713
0.34866
0.347664
0.372801
0.370609
0.368537
0.366576
0.36472
0.362964
0.361299
0.359719
0.358216
0.356785
0.355421
0.354118
0.352874
0.351685
0.350547
0.34946
0.348421
0.34744
0.372799
0.370602
0.368522
0.36655
0.36468
0.362907
0.361225
0.359627
0.358109
0.356664
0.355289
0.353978
0.352729
0.351537
0.3504
0.349315
0.34828
0.347304
0.372797
0.370599
0.368514
0.366537
0.364661
0.36288
0.361188
0.359581
0.358053
0.3566
0.355216
0.353899
0.352644
0.351448
0.350308
0.349221
0.348185
0.34721
0.372796
0.370596
0.368509
0.366528
0.364649
0.362864
0.361168
0.359555
0.358022
0.356563
0.355174
0.353852
0.352592
0.351392
0.350248
0.349157
0.348119
0.347141
0.372795
0.370593
0.368505
0.366523
0.364641
0.362853
0.361154
0.359539
0.358003
0.35654
0.355148
0.353823
0.35256
0.351357
0.35021
0.349116
0.348074
0.347094
0.372794
0.370592
0.368502
0.366518
0.364634
0.362845
0.361145
0.359527
0.357989
0.356525
0.355131
0.353803
0.352538
0.351333
0.350184
0.349088
0.348044
0.347061
0.372794
0.37059
0.368499
0.366515
0.36463
0.362839
0.361137
0.359519
0.357979
0.356514
0.355118
0.353789
0.352523
0.351316
0.350165
0.349067
0.348021
0.347037
0.372794
0.370589
0.368498
0.366512
0.364627
0.362835
0.361132
0.359513
0.357972
0.356506
0.355109
0.353779
0.352511
0.351303
0.350151
0.349052
0.348005
0.347019
0.372793
0.370589
0.368497
0.366512
0.364626
0.362834
0.361131
0.359511
0.357969
0.356502
0.355105
0.353774
0.352506
0.351297
0.350144
0.349044
0.347996
0.34701
0.372794
0.37059
0.368498
0.366513
0.364628
0.362836
0.361133
0.359514
0.357973
0.356506
0.355109
0.353779
0.352511
0.351302
0.350149
0.349049
0.348001
0.347015
0.372794
0.370591
0.3685
0.366516
0.364632
0.362841
0.36114
0.359522
0.357982
0.356517
0.355122
0.353793
0.352526
0.351319
0.350167
0.349069
0.348022
0.347037
0.372795
0.370593
0.368504
0.366522
0.364641
0.362855
0.361158
0.359546
0.358012
0.356552
0.355163
0.353839
0.352578
0.351375
0.350228
0.349134
0.348091
0.347108
0.372796
0.370598
0.368518
0.366547
0.364681
0.362912
0.361235
0.359641
0.358127
0.356685
0.355311
0.354001
0.35275
0.351556
0.350415
0.349324
0.348281
0.347298
0.372804
0.370631
0.368592
0.366676
0.364872
0.363166
0.361548
0.360006
0.358532
0.35712
0.355767
0.354467
0.353219
0.352019
0.350867
0.349761
0.348701
0.347697
0.372856
0.370818
0.368973
0.367264
0.365645
0.364085
0.362567
0.361083
0.359631
0.358213
0.356833
0.355493
0.354196
0.352946
0.351743
0.35059
0.349486
0.348445
0.373166
0.37177
0.370579
0.369371
0.368049
0.366605
0.365072
0.363492
0.361905
0.360342
0.358826
0.357372
0.355991
0.354688
0.353468
0.352329
0.351272
0.350303
0.374797
0.375829
0.376175
0.375401
0.373834
0.371876
0.369792
0.36774
0.365814
0.364067
0.362524
0.361195
0.360076
0.359157
0.358425
0.357864
0.357457
0.35719
0.382729
0.39167
0.392375
0.388805
0.384384
0.380403
0.377247
0.374998
0.373621
0.373039
0.373153
0.373867
0.375084
0.376717
0.378687
0.380923
0.383366
0.385947
0.407499
0.414514
0.405423
0.395992
0.390555
0.389292
0.391457
0.396217
0.402838
0.410729
0.419437
0.428624
0.438034
0.447479
0.456824
0.465974
0.474884
0.483467
0.360554
0.347547
0.334933
0.322917
0.311965
0.302353
0.29419
0.287471
0.282115
0.278005
0.275002
0.272968
0.271768
0.271277
0.27138
0.271976
0.272979
0.274307
0.000659014
0.00375497
0.00623755
0.00841453
0.0106146
0.0132439
0.0163006
0.0198805
0.0240893
0.0289124
0.0340108
0.0393987
0.0450394
0.0508842
0.0568838
0.0629908
0.0691598
0.0753473
0.0815106
0.0876081
0.0935981
0.0994396
0.105092
0.110515
0.11567
0.120519
0.125024
0.129143
0.132831
0.136034
0.138696
0.140775
0.14227
0.143247
0.143832
0.144162
0.144355
0.144292
0.142688
0.143535
0.142648
0.144205
0.147003
0.146045
0.150467
0.157251
0.164454
0.1719
0.179555
0.187403
0.195433
0.203638
0.212013
0.220553
0.229257
0.23812
0.24714
0.256314
0.26564
0.275114
0.284733
0.294494
0.304392
0.314423
0.324583
0.334866
0.345267
0.35578
0.3664
0.377119
0.38793
0.398827
0.409803
0.420848
0.431956
0.443118
0.454326
0.465571
0.476844
0.488136
0.499438
0.510742
0.522037
0.533314
0.544565
0.555779
0.566947
0.578059
0.589105
0.600076
0.610961
0.621751
0.632434
0.643001
0.653443
0.66375
0.673919
0.683951
0.693858
0.703676
0.71338
0.722861
0.732122
0.741159
0.749964
0.758527
0.766838
0.774884
0.782656
0.790143
0.797334
0.804221
0.810793
0.817042
0.82296
0.828538
0.833769
0.838646
0.843163
0.847314
0.851094
0.854499
0.857524
0.860166
0.862423
0.864292
0.865772
0.866862
0.867563
0.867875
0.867798
0.867336
0.866491
0.865266
0.863665
0.861693
0.859355
0.856656
0.853605
0.850207
0.846471
0.842405
0.838017
0.833318
0.828316
0.823023
0.817449
0.811605
0.805503
0.799155
0.792573
0.785769
0.778756
0.771548
0.764157
0.756594
0.748879
0.741019
0.73303
0.724929
0.716712
0.70843
0.700053
0.691649
0.683293
0.675814
0.671858
0.668442
0.665037
0.661616
0.658179
0.654725
0.651248
0.647725
0.644113
0.64031
0.636085
0.630838
0.623094
0.606344
0.00254469
0.0108035
0.0163271
0.0207257
0.0248694
0.0289454
0.0331787
0.037736
0.0426836
0.0480127
0.0536653
0.0595918
0.0657454
0.0720821
0.0785615
0.0851463
0.0918011
0.0984928
0.10519
0.111861
0.118478
0.125012
0.131439
0.137734
0.143877
0.149848
0.155632
0.161214
0.16659
0.171765
0.17677
0.181662
0.18652
0.191418
0.196407
0.201574
0.207174
0.2136
0.221012
0.228921
0.238153
0.249248
0.260875
0.273116
0.284521
0.296028
0.307987
0.320387
0.333175
0.346322
0.359812
0.373634
0.387782
0.402252
0.417041
0.432148
0.447569
0.463304
0.479349
0.495704
0.512364
0.529327
0.546589
0.564146
0.581993
0.600124
0.618534
0.637215
0.656159
0.67536
0.694806
0.71449
0.734401
0.754527
0.774858
0.795381
0.816084
0.836953
0.857976
0.879137
0.900423
0.921819
0.943311
0.964881
0.986517
1.0082
1.02992
1.05165
1.07338
1.0951
1.11678
1.13842
1.15999
1.18147
1.20285
1.22411
1.24523
1.26618
1.28695
1.30746
1.32751
1.34727
1.36675
1.38591
1.40476
1.42327
1.44141
1.45916
1.4765
1.49342
1.50988
1.52587
1.54137
1.55636
1.57082
1.58473
1.59808
1.61084
1.62301
1.63456
1.64549
1.65577
1.66541
1.67438
1.68269
1.69031
1.69724
1.70348
1.70902
1.71385
1.71798
1.72139
1.7241
1.7261
1.7274
1.72799
1.72789
1.72709
1.7256
1.72344
1.72062
1.71713
1.713
1.70824
1.70287
1.69689
1.69032
1.68319
1.6755
1.66729
1.65856
1.64934
1.63964
1.62951
1.61894
1.60797
1.59662
1.58492
1.57289
1.56056
1.54791
1.53506
1.52191
1.50863
1.49529
1.48205
1.46937
1.45678
1.44414
1.43145
1.41873
1.406
1.39325
1.3805
1.36771
1.35485
1.34178
1.32836
1.31336
1.29393
0.0051077
0.0179623
0.0255027
0.0312865
0.0363828
0.0413182
0.0463516
0.0516264
0.0572083
0.0631074
0.0693
0.0757492
0.0824153
0.0892605
0.0962509
0.103356
0.11055
0.117808
0.125109
0.132435
0.139769
0.147099
0.154414
0.16171
0.168985
0.176246
0.183504
0.190783
0.198119
0.205566
0.2132
0.221105
0.229366
0.238038
0.24715
0.256736
0.266896
0.277762
0.289379
0.301607
0.314627
0.328609
0.343199
0.358114
0.373235
0.388671
0.404525
0.420828
0.437575
0.454755
0.472356
0.490371
0.508793
0.527617
0.546838
0.566454
0.586459
0.606851
0.627626
0.648781
0.670311
0.692212
0.714478
0.737103
0.760081
0.783405
0.807066
0.831055
0.855362
0.879978
0.90489
0.930086
0.955554
0.98128
1.00725
1.03345
1.05985
1.08646
1.11324
1.14019
1.16728
1.19449
1.22181
1.24921
1.27668
1.3042
1.33175
1.3593
1.38685
1.41435
1.44181
1.46919
1.49648
1.52365
1.55069
1.57757
1.60428
1.6308
1.6571
1.68303
1.70861
1.73385
1.75872
1.78321
1.80728
1.83092
1.85409
1.87676
1.89891
1.92051
1.94152
1.96193
1.98171
2.00083
2.01927
2.037
2.05401
2.07026
2.08575
2.10045
2.11435
2.12742
2.13965
2.15104
2.16156
2.1712
2.17996
2.18783
2.1948
2.20086
2.20601
2.21026
2.21359
2.21601
2.21753
2.21815
2.21787
2.2167
2.21465
2.21173
2.20796
2.20335
2.19791
2.19166
2.18462
2.1768
2.16824
2.15894
2.14894
2.13826
2.12692
2.11495
2.10238
2.08923
2.07554
2.06131
2.04662
2.03146
2.01587
1.99992
1.98351
1.96691
1.95003
1.93295
1.91572
1.89849
1.88146
1.86445
1.8474
1.83031
1.81319
1.79608
1.77898
1.76194
1.74496
1.72807
1.71125
1.69458
1.67748
1.6596
0.00819282
0.0247885
0.0340346
0.040776
0.0466617
0.0522749
0.0579021
0.0637004
0.06975
0.0760789
0.0826824
0.0895373
0.0966138
0.103881
0.111311
0.118879
0.126565
0.134353
0.14223
0.150188
0.15822
0.166326
0.174508
0.182774
0.191139
0.199622
0.208253
0.217071
0.226125
0.235477
0.245194
0.255346
0.265991
0.27717
0.288906
0.301226
0.31417
0.327784
0.342085
0.357048
0.372694
0.389039
0.405977
0.423393
0.441232
0.45949
0.478192
0.497356
0.516987
0.537087
0.557652
0.578681
0.600169
0.622114
0.644512
0.667361
0.690659
0.714402
0.738588
0.763212
0.788272
0.813762
0.839676
0.86601
0.892756
0.919907
0.947453
0.975386
1.00369
1.03237
1.06139
1.09075
1.12043
1.15042
1.1807
1.21125
1.24206
1.2731
1.30436
1.33581
1.36744
1.39922
1.43112
1.46313
1.49523
1.52738
1.55957
1.59177
1.62396
1.65611
1.68821
1.72022
1.75212
1.7839
1.81552
1.84696
1.87821
1.90923
1.93996
1.9703
2.00026
2.02981
2.05894
2.08761
2.11579
2.14345
2.17055
2.19707
2.22296
2.24819
2.27273
2.29655
2.31962
2.34191
2.3634
2.38404
2.40382
2.42271
2.44069
2.45774
2.47383
2.48894
2.50306
2.51618
2.52827
2.53932
2.54933
2.55829
2.56618
2.573
2.57875
2.58343
2.58703
2.58956
2.59102
2.59142
2.59077
2.58907
2.58634
2.58258
2.57782
2.57208
2.56536
2.5577
2.54911
2.53961
2.52923
2.518
2.50594
2.49309
2.47947
2.46511
2.45004
2.43431
2.41794
2.40094
2.38341
2.36532
2.34674
2.32777
2.30838
2.28867
2.26866
2.2484
2.22795
2.20742
2.18693
2.16644
2.14589
2.12531
2.10473
2.08417
2.06368
2.04331
2.02311
2.00319
1.98362
1.96463
1.94602
1.92798
0.0112934
0.0311411
0.0417022
0.0493498
0.0559391
0.0621277
0.0682366
0.0744444
0.0808493
0.087498
0.0944027
0.101555
0.108937
0.116525
0.124299
0.132239
0.140332
0.148568
0.15694
0.165446
0.174089
0.182877
0.19182
0.200936
0.210248
0.219785
0.229583
0.239686
0.250145
0.261015
0.272354
0.284216
0.296645
0.309672
0.323319
0.337599
0.352531
0.368128
0.384392
0.401313
0.418886
0.437099
0.455911
0.47527
0.495141
0.51551
0.536378
0.55775
0.579632
0.602026
0.624934
0.648355
0.672289
0.696737
0.721697
0.747168
0.77315
0.799641
0.826639
0.854142
0.882147
0.910649
0.939644
0.969128
0.999092
1.02953
1.06043
1.09179
1.12359
1.15582
1.18847
1.22152
1.25495
1.28876
1.32291
1.35739
1.39218
1.42726
1.4626
1.49817
1.53396
1.56994
1.60608
1.64235
1.67873
1.71519
1.7517
1.78823
1.82477
1.86127
1.89771
1.93406
1.97029
2.00639
2.04231
2.07803
2.11353
2.14878
2.18362
2.21806
2.25206
2.2856
2.31865
2.35118
2.38314
2.4145
2.44522
2.47525
2.50457
2.53313
2.56089
2.58782
2.61389
2.63906
2.66329
2.68656
2.70884
2.73009
2.7503
2.76943
2.78746
2.80437
2.82014
2.83475
2.8482
2.86045
2.87151
2.88136
2.89
2.89741
2.90359
2.90855
2.91229
2.9148
2.9161
2.91618
2.91507
2.91277
2.90929
2.90466
2.89888
2.89198
2.88399
2.87492
2.86479
2.85364
2.84151
2.8284
2.81436
2.79942
2.78362
2.76699
2.74955
2.73137
2.71248
2.69285
2.67266
2.6519
2.6306
2.60884
2.58663
2.56404
2.5411
2.51788
2.49443
2.47085
2.44721
2.42353
2.3998
2.37604
2.35229
2.3286
2.30503
2.28167
2.25859
2.23595
2.21392
2.19279
2.17252
2.1533
0.0142109
0.0366304
0.0484464
0.0569358
0.0641637
0.0708595
0.0773788
0.0839219
0.0906054
0.0974932
0.104614
0.111976
0.11957
0.127385
0.135407
0.143624
0.152027
0.160611
0.169376
0.178325
0.187467
0.196816
0.206388
0.216208
0.226302
0.236704
0.247454
0.258594
0.270172
0.282235
0.294832
0.308005
0.321788
0.336206
0.351275
0.367005
0.383402
0.40047
0.418206
0.436602
0.455651
0.47534
0.495648
0.516551
0.538027
0.560064
0.582661
0.605816
0.629535
0.653819
0.678671
0.704096
0.730094
0.756668
0.783821
0.811552
0.839864
0.868756
0.898229
0.928282
0.958912
0.990118
1.0219
1.05424
1.08714
1.1206
1.15461
1.18914
1.2242
1.25978
1.29584
1.33238
1.36939
1.40683
1.44469
1.48295
1.52158
1.56055
1.59985
1.63943
1.67928
1.71936
1.75964
1.80009
1.84067
1.88137
1.92213
1.96294
2.00375
2.04454
2.08527
2.12591
2.16642
2.20678
2.24695
2.28689
2.32657
2.36594
2.40485
2.4433
2.48127
2.51871
2.55559
2.59188
2.62753
2.66249
2.69671
2.73017
2.7628
2.79458
2.82545
2.85538
2.88433
2.91225
2.93913
2.96491
2.98956
3.01306
3.03537
3.05646
3.07632
3.09491
3.11221
3.12821
3.14289
3.15624
3.16823
3.17887
3.18814
3.19604
3.20257
3.20772
3.21149
3.2139
3.21495
3.21465
3.213
3.21003
3.20575
3.20018
3.19334
3.18525
3.17594
3.16543
3.15376
3.14094
3.12703
3.11206
3.09605
3.07902
3.06107
3.0422
3.02239
3.00182
2.98048
2.95838
2.93564
2.91226
2.8883
2.86382
2.83885
2.81346
2.78769
2.76159
2.73523
2.70869
2.68204
2.65531
2.62852
2.60172
2.57495
2.54828
2.52178
2.49555
2.46974
2.4445
2.42007
2.39675
2.37454
2.35355
0.016721
0.041353
0.0542551
0.0634851
0.0712755
0.0784137
0.0852834
0.0921034
0.0990062
0.106071
0.113342
0.12084
0.12857
0.136529
0.144714
0.153117
0.161736
0.170572
0.179629
0.188915
0.198443
0.208231
0.218301
0.228678
0.239394
0.250483
0.261983
0.273935
0.28638
0.299361
0.312916
0.327079
0.341878
0.357333
0.373458
0.390259
0.407742
0.425908
0.444753
0.464273
0.484463
0.505313
0.526815
0.548955
0.571722
0.595111
0.619118
0.643745
0.668995
0.694873
0.721383
0.74853
0.77632
0.804757
0.833845
0.863588
0.89399
0.925053
0.95678
0.98917
1.02222
1.05594
1.09032
1.12535
1.16104
1.19737
1.23434
1.27193
1.31014
1.34894
1.38833
1.42828
1.46878
1.5098
1.55131
1.5933
1.63574
1.67858
1.72182
1.7654
1.8093
1.85348
1.89791
1.94254
1.98735
2.03229
2.07733
2.12243
2.16755
2.21265
2.25769
2.30264
2.34745
2.39209
2.43652
2.4807
2.5246
2.56805
2.61102
2.65347
2.69538
2.73671
2.7774
2.81742
2.85672
2.89524
2.93294
2.96976
3.00567
3.04061
3.07453
3.10739
3.13916
3.16978
3.19921
3.22743
3.25438
3.28004
3.30438
3.32735
3.34894
3.36912
3.38787
3.40517
3.42099
3.43534
3.44818
3.45952
3.46934
3.47764
3.48442
3.48968
3.49342
3.49564
3.49637
3.4956
3.49336
3.48966
3.48451
3.47795
3.46999
3.46065
3.44999
3.43801
3.42475
3.41024
3.39454
3.37768
3.35968
3.34055
3.32044
3.29935
3.2773
3.25437
3.23061
3.20606
3.18078
3.15482
3.12823
3.10107
3.07338
3.04523
3.01666
2.98773
2.95852
2.92908
2.89949
2.86979
2.84003
2.81027
2.78056
2.75098
2.72162
2.69262
2.66411
2.63632
2.60946
2.58385
2.55946
2.53633
0.018866
0.0453263
0.0591291
0.0689807
0.0772454
0.0847552
0.0919149
0.0989575
0.106028
0.113217
0.120583
0.128158
0.13596
0.143996
0.152268
0.16078
0.169533
0.178534
0.18779
0.197314
0.207123
0.217236
0.227678
0.238477
0.249663
0.261271
0.273336
0.285896
0.298986
0.312644
0.326901
0.341787
0.357324
0.373531
0.39042
0.407999
0.426274
0.445246
0.464917
0.485284
0.506347
0.528102
0.550545
0.573673
0.597482
0.621971
0.647141
0.672995
0.699539
0.726778
0.754722
0.783376
0.812749
0.842847
0.873679
0.905251
0.937569
0.970637
1.00446
1.03904
1.07439
1.11049
1.14735
1.18497
1.22334
1.26246
1.30231
1.3429
1.38419
1.42618
1.46886
1.51219
1.55617
1.60075
1.64592
1.69165
1.7379
1.78464
1.83183
1.87944
1.92742
1.97574
2.02435
2.07321
2.12228
2.17152
2.22087
2.2703
2.31976
2.36921
2.4186
2.46789
2.51703
2.56598
2.6147
2.66313
2.71122
2.75878
2.8058
2.85225
2.8981
2.94328
2.98777
3.03149
3.0744
3.11644
3.15756
3.19771
3.23682
3.27486
3.31177
3.34749
3.382
3.41523
3.44714
3.47771
3.50687
3.53461
3.56087
3.58564
3.60887
3.63054
3.65063
3.66913
3.686
3.70124
3.71484
3.72679
3.73707
3.74568
3.75262
3.75789
3.76151
3.76348
3.7638
3.7625
3.75959
3.75509
3.74902
3.74141
3.73227
3.72165
3.70958
3.6961
3.68123
3.66498
3.64746
3.62871
3.60874
3.58759
3.56535
3.54206
3.51775
3.4925
3.46635
3.43935
3.41157
3.38306
3.35387
3.32406
3.29369
3.26282
3.2315
3.19979
3.16776
3.13548
3.10302
3.07043
3.03777
3.00512
2.97253
2.94011
2.90796
2.87623
2.84507
2.81472
2.7854
2.7574
2.73064
2.70515
0.0206298
0.0485621
0.0630829
0.0734327
0.0820774
0.0898828
0.0972693
0.10448
0.111668
0.118935
0.126348
0.133952
0.141772
0.149827
0.158127
0.16668
0.175497
0.184585
0.193958
0.203632
0.213624
0.223957
0.234655
0.245748
0.257264
0.269236
0.281697
0.294681
0.308219
0.322344
0.337084
0.352465
0.368507
0.385229
0.402644
0.420762
0.43959
0.459134
0.479399
0.500388
0.522104
0.544549
0.567725
0.591635
0.616281
0.641667
0.6678
0.694686
0.722333
0.750752
0.779952
0.809944
0.840739
0.872347
0.904779
0.938044
0.972152
1.00711
1.04292
1.0796
1.11714
1.15555
1.19483
1.23497
1.27598
1.31784
1.36055
1.4041
1.44847
1.49364
1.5396
1.58633
1.63379
1.68196
1.7308
1.78029
1.83039
1.88105
1.93224
1.98392
2.03602
2.08852
2.14135
2.19448
2.24785
2.3014
2.3551
2.40888
2.4627
2.51651
2.57026
2.6239
2.67738
2.73065
2.78365
2.83634
2.88854
2.94017
2.9912
3.04161
3.09133
3.14033
3.18853
3.23589
3.28233
3.32781
3.37226
3.41563
3.45785
3.49888
3.53866
3.57713
3.61425
3.64997
3.68425
3.71703
3.74828
3.77797
3.80603
3.83245
3.8572
3.88023
3.90154
3.92111
3.93891
3.95493
3.96916
3.9816
3.99222
4.00104
4.00804
4.01324
4.01664
4.01825
4.0181
4.01618
4.01253
4.00716
4.00011
3.9914
3.98103
3.96908
3.95558
3.94057
3.92408
3.90615
3.88684
3.8662
3.84428
3.82111
3.79678
3.77131
3.74478
3.71723
3.68873
3.65932
3.62909
3.59807
3.56633
3.53394
3.50094
3.46741
3.4334
3.39898
3.36421
3.32915
3.29389
3.25849
3.22302
3.18756
3.15218
3.11699
3.08212
3.04771
3.01394
2.98104
2.94924
2.91876
2.88952
2.86154
0.0220118
0.0510898
0.0661537
0.0768794
0.0858083
0.0938312
0.101379
0.108701
0.115958
0.123258
0.130676
0.138265
0.146059
0.154085
0.162361
0.170901
0.179719
0.188829
0.198246
0.207988
0.218076
0.228531
0.239379
0.250647
0.262364
0.274559
0.287263
0.300507
0.31432
0.32873
0.343765
0.359448
0.3758
0.39284
0.410583
0.429043
0.44823
0.468154
0.488825
0.510251
0.532439
0.555398
0.579136
0.60366
0.628979
0.655104
0.682043
0.70981
0.738416
0.767875
0.7982
0.829407
0.861509
0.894521
0.928456
0.963327
0.999146
1.03592
1.07367
1.11239
1.15209
1.19277
1.23444
1.27709
1.32073
1.36534
1.41091
1.45743
1.50489
1.55327
1.60254
1.65268
1.70366
1.75544
1.808
1.86129
1.91527
1.96989
2.02511
2.08088
2.13714
2.19383
2.25091
2.30831
2.36597
2.42385
2.48188
2.54
2.59816
2.65631
2.71438
2.77233
2.83009
2.88761
2.94484
3.00165
3.05787
3.11348
3.16842
3.22266
3.27615
3.32882
3.38061
3.43145
3.48129
3.53004
3.57766
3.62408
3.66924
3.71308
3.75555
3.79658
3.83614
3.87416
3.9106
3.94542
3.97858
4.01002
4.03971
4.06761
4.09369
4.11791
4.14027
4.16074
4.1793
4.19595
4.21067
4.22346
4.23429
4.24318
4.25012
4.25512
4.2582
4.25936
4.25863
4.25602
4.25155
4.24525
4.23716
4.22731
4.21571
4.20243
4.1875
4.17096
4.15286
4.13324
4.11217
4.08968
4.06583
4.04068
4.01429
3.98671
3.958
3.92822
3.89743
3.86569
3.83307
3.79963
3.76543
3.73054
3.69501
3.65891
3.62231
3.58526
3.54784
3.51012
3.47217
3.43407
3.39589
3.35772
3.31965
3.28179
3.24428
3.20727
3.17095
3.13553
3.10124
3.06828
3.0365
3.00599
0.0230263
0.052957
0.0684007
0.0793857
0.0885052
0.0966675
0.104311
0.111688
0.118965
0.126254
0.133636
0.141171
0.148901
0.156857
0.165064
0.173542
0.182309
0.191381
0.200777
0.210516
0.220619
0.231108
0.242008
0.253344
0.265144
0.277436
0.290249
0.30361
0.317548
0.33209
0.347261
0.363086
0.379586
0.396783
0.414694
0.433337
0.452727
0.472879
0.493807
0.515525
0.538046
0.561384
0.585554
0.610568
0.636442
0.66319
0.690829
0.719375
0.748845
0.779258
0.810631
0.842983
0.876333
0.910697
0.946094
0.982539
1.02005
1.05863
1.0983
1.13907
1.18094
1.22392
1.26801
1.3132
1.3595
1.40689
1.45537
1.50492
1.55552
1.60715
1.65978
1.71339
1.76793
1.82338
1.87969
1.93681
1.9947
2.0533
2.11256
2.17242
2.23283
2.29371
2.35501
2.41665
2.47857
2.5407
2.60299
2.66538
2.72779
2.79017
2.85245
2.91459
2.9765
3.03814
3.09944
3.16013
3.22019
3.27957
3.33822
3.39609
3.45311
3.50923
3.56437
3.61847
3.67144
3.72322
3.77375
3.82295
3.87078
3.91717
3.96205
4.00538
4.0471
4.08716
4.12551
4.1621
4.19689
4.22986
4.26093
4.29006
4.31723
4.34242
4.36561
4.38677
4.40589
4.42297
4.43799
4.45095
4.46184
4.47064
4.47737
4.48204
4.48468
4.48528
4.48388
4.4805
4.47516
4.46789
4.45873
4.4477
4.43486
4.42023
4.40387
4.38583
4.36615
4.34487
4.32207
4.29778
4.27208
4.24501
4.21663
4.18701
4.15621
4.1243
4.09132
4.05736
4.02247
3.98673
3.95018
3.91291
3.87498
3.83644
3.79738
3.75785
3.71792
3.67767
3.63718
3.59652
3.55577
3.51504
3.47441
3.43401
3.39398
3.35447
3.31568
3.27782
3.24108
3.20565
3.17136
3.13833
0.0237014
0.0542259
0.0699012
0.0810369
0.0902583
0.0984844
0.106158
0.113534
0.120781
0.128017
0.135325
0.14277
0.150399
0.15825
0.16635
0.174724
0.183393
0.192376
0.201693
0.211364
0.221409
0.231852
0.242716
0.254026
0.265808
0.278088
0.290894
0.304253
0.318193
0.33274
0.34792
0.36376
0.380283
0.397512
0.41547
0.434178
0.453658
0.473928
0.49501
0.516922
0.539684
0.563317
0.587841
0.613276
0.639642
0.66696
0.695253
0.724541
0.754848
0.786196
0.818609
0.852108
0.886717
0.922456
0.959347
0.997409
1.03666
1.07711
1.11878
1.16168
1.2058
1.25116
1.29776
1.34559
1.39464
1.44492
1.49639
1.54905
1.60288
1.65784
1.7139
1.77104
1.8292
1.88835
1.94843
2.00941
2.07121
2.13378
2.19705
2.26098
2.32548
2.39048
2.4559
2.52167
2.58772
2.65397
2.72037
2.78683
2.8533
2.91971
2.98599
3.05209
3.11793
3.18346
3.2484
3.31269
3.37628
3.43912
3.50115
3.5623
3.62251
3.68172
3.73985
3.79685
3.85259
3.90702
3.96007
4.01169
4.06181
4.11036
4.15729
4.20254
4.24606
4.28779
4.32768
4.3657
4.4018
4.43596
4.4681
4.49815
4.52612
4.55197
4.57571
4.59729
4.61673
4.63399
4.64909
4.662
4.67274
4.68128
4.68766
4.69187
4.69395
4.6939
4.69175
4.68752
4.68124
4.67295
4.66269
4.65048
4.63638
4.62042
4.60266
4.58314
4.56192
4.53905
4.51458
4.48858
4.46111
4.43221
4.40197
4.37043
4.33767
4.30375
4.26874
4.2327
4.1957
4.15781
4.11909
4.07961
4.03944
3.99865
3.95731
3.91547
3.87322
3.83063
3.78777
3.74474
3.70161
3.65849
3.61548
3.5727
3.5303
3.48844
3.44731
3.4071
3.36801
3.33019
3.29346
3.258
0.0240764
0.0549703
0.070745
0.0819333
0.0911744
0.099393
0.107033
0.114354
0.121524
0.128664
0.135861
0.143182
0.150678
0.15839
0.166349
0.174583
0.183113
0.191961
0.201148
0.210694
0.22062
0.230949
0.241703
0.252907
0.264587
0.276767
0.289476
0.30274
0.316588
0.331048
0.346146
0.361912
0.378373
0.395556
0.413487
0.432194
0.451702
0.472038
0.493228
0.515299
0.538278
0.56219
0.587064
0.612926
0.639803
0.667723
0.696711
0.726797
0.758007
0.79037
0.823913
0.858663
0.894646
0.931887
0.970409
1.01023
1.05138
1.09387
1.1377
1.1829
1.22946
1.27738
1.32666
1.37729
1.42927
1.48258
1.53719
1.5931
1.65027
1.70866
1.76824
1.82897
1.89079
1.95367
2.01753
2.08233
2.14799
2.21445
2.28165
2.34951
2.41796
2.48692
2.55628
2.62596
2.69589
2.76599
2.8362
2.90644
2.97665
3.04674
3.11667
3.18635
3.25574
3.32457
3.39272
3.46016
3.52682
3.59264
3.65754
3.72148
3.78437
3.84615
3.90678
3.96618
4.02418
4.08073
4.1358
4.18931
4.24121
4.29143
4.33991
4.3866
4.43143
4.47437
4.51536
4.55435
4.59131
4.6262
4.65897
4.68956
4.71797
4.74417
4.76813
4.78985
4.80931
4.8265
4.84143
4.85408
4.86446
4.87257
4.87843
4.88203
4.88342
4.8826
4.8796
4.87446
4.8672
4.85785
4.84646
4.83307
4.81772
4.80046
4.78134
4.76041
4.73773
4.71334
4.68732
4.65972
4.6306
4.60003
4.56806
4.53478
4.50023
4.46449
4.42762
4.3897
4.3508
4.31097
4.27029
4.22883
4.18665
4.14383
4.10043
4.05652
4.01218
3.96748
3.9225
3.87732
3.83204
3.78676
3.74158
3.69663
3.65207
3.60804
3.56473
3.52234
3.48104
3.44096
3.40193
3.36414
0.0242006
0.055272
0.0710307
0.0821842
0.0913704
0.0995151
0.107064
0.114277
0.121324
0.128328
0.135378
0.142543
0.149877
0.157422
0.16521
0.17327
0.181627
0.190302
0.199317
0.208693
0.21845
0.228611
0.239199
0.250239
0.261756
0.273776
0.286329
0.299442
0.313144
0.327467
0.342441
0.358098
0.374469
0.391588
0.409485
0.428194
0.447747
0.468178
0.489519
0.511806
0.535072
0.559353
0.584684
0.611098
0.638631
0.667312
0.697174
0.72825
0.760574
0.794177
0.829091
0.865346
0.902971
0.941992
0.982432
1.02431
1.06766
1.11248
1.15879
1.2066
1.2559
1.30668
1.35891
1.41261
1.46774
1.5243
1.58225
1.64156
1.70221
1.76413
1.8273
1.89166
1.95715
2.02371
2.09128
2.15978
2.22916
2.29933
2.37021
2.44174
2.51385
2.58649
2.65943
2.73262
2.80601
2.87952
2.95306
3.02658
3.1
3.17326
3.24627
3.31899
3.39113
3.46259
3.53332
3.60324
3.67229
3.7404
3.80751
3.87353
3.9384
4.00206
4.06443
4.12544
4.18498
4.24299
4.29941
4.35417
4.40721
4.45847
4.50789
4.55542
4.601
4.64458
4.68612
4.72557
4.76289
4.79805
4.83099
4.86169
4.89012
4.91626
4.94009
4.96159
4.98076
4.99759
5.01207
5.02421
5.03401
5.04148
5.04663
5.04948
5.05004
5.04834
5.04442
5.03829
5.02999
5.01957
5.00705
4.9925
4.97594
4.95743
4.93703
4.91478
4.89075
4.86498
4.83755
4.80851
4.77792
4.74585
4.71237
4.67754
4.64143
4.6041
4.56563
4.52608
4.48552
4.44402
4.40165
4.35848
4.31458
4.27001
4.22485
4.17915
4.13301
4.08649
4.03967
3.99263
3.94548
3.89831
3.85124
3.80438
3.75789
3.71193
3.66667
3.6223
3.57898
3.53683
3.49568
3.45576
0.0241314
0.0552177
0.0708604
0.0819019
0.090966
0.0989765
0.106379
0.113436
0.120319
0.12715
0.134022
0.141004
0.148149
0.155501
0.163094
0.170957
0.179114
0.187588
0.196401
0.205575
0.215132
0.225094
0.235487
0.246335
0.257666
0.269508
0.281892
0.294849
0.308413
0.322616
0.337496
0.353088
0.369431
0.386564
0.404526
0.423356
0.443094
0.46378
0.485457
0.508168
0.531956
0.556866
0.582943
0.610231
0.638771
0.66859
0.699724
0.73221
0.766086
0.801388
0.838149
0.876398
0.916164
0.957471
1.00034
1.04478
1.09083
1.13847
1.18774
1.23866
1.29117
1.34521
1.40077
1.45786
1.51645
1.5765
1.63799
1.70086
1.76508
1.83059
1.89733
1.96524
2.03427
2.10433
2.17536
2.24729
2.32003
2.3935
2.46762
2.54231
2.61749
2.69306
2.76892
2.84496
2.92111
2.9973
3.07345
3.14949
3.22536
3.301
3.37626
3.45091
3.52489
3.59811
3.67051
3.74201
3.81255
3.88204
3.95043
4.01764
4.08359
4.14823
4.21147
4.27326
4.33349
4.39212
4.44906
4.50427
4.55767
4.60922
4.65884
4.7065
4.75214
4.7957
4.83716
4.87645
4.91355
4.94842
4.98102
5.01133
5.03931
5.06495
5.08822
5.10912
5.12765
5.14378
5.15753
5.1689
5.17788
5.1845
5.18877
5.19069
5.19031
5.18764
5.18271
5.17555
5.1662
5.1547
5.14109
5.12542
5.10773
5.08808
5.06651
5.04308
5.01785
4.99088
4.96223
4.93196
4.90013
4.86682
4.83207
4.79597
4.75857
4.71995
4.68017
4.63931
4.59742
4.55458
4.51086
4.46632
4.42103
4.37506
4.32847
4.28134
4.23375
4.18575
4.13743
4.08889
4.0402
3.99147
3.94282
3.89437
3.84626
3.79865
3.75171
3.70563
3.66053
3.61656
3.57354
3.53171
0.0239221
0.0548841
0.0703193
0.0811759
0.0900526
0.0978686
0.105071
0.111923
0.118598
0.12522
0.131881
0.13865
0.145582
0.152718
0.160094
0.167738
0.175677
0.183934
0.192532
0.201494
0.210846
0.220611
0.230819
0.241496
0.252675
0.264388
0.27667
0.289558
0.303091
0.31731
0.332257
0.347976
0.364515
0.381925
0.400255
0.419553
0.439861
0.46123
0.483713
0.507364
0.532236
0.558385
0.585866
0.61474
0.645082
0.676855
0.710096
0.744855
0.781173
0.819082
0.858612
0.899785
0.942619
0.98713
1.03332
1.08121
1.13078
1.18205
1.23499
1.28959
1.34582
1.40363
1.463
1.52387
1.58623
1.65001
1.71518
1.78167
1.84944
1.91842
1.98854
2.05974
2.13194
2.20508
2.27906
2.35382
2.42927
2.50533
2.58191
2.65893
2.73631
2.81395
2.89176
2.96965
3.04754
3.12537
3.20305
3.28054
3.35775
3.43445
3.51052
3.5859
3.6605
3.73426
3.80711
3.87897
3.94978
4.01945
4.08793
4.15515
4.22103
4.28551
4.34852
4.40999
4.46986
4.52805
4.58451
4.63918
4.69199
4.74289
4.79183
4.83875
4.88361
4.92637
4.96698
5.00539
5.04159
5.07552
5.10716
5.13648
5.16347
5.18809
5.21034
5.2302
5.24767
5.26274
5.27542
5.2857
5.29361
5.29914
5.30232
5.30317
5.3017
5.29794
5.29193
5.2837
5.27329
5.26073
5.24606
5.22934
5.21061
5.18992
5.16733
5.14289
5.11665
5.08868
5.05904
5.02778
4.99497
4.96068
4.92496
4.88789
4.84953
4.80995
4.7692
4.72737
4.68451
4.6407
4.59599
4.55045
4.50416
4.45717
4.40955
4.36137
4.3127
4.26361
4.21418
4.1645
4.11465
4.06473
4.01485
3.96514
3.91574
3.86681
3.81849
3.77098
3.7244
3.67888
3.63424
3.59078
0.0236893
0.0544143
0.0695721
0.0801858
0.0888233
0.0963996
0.103364
0.109981
0.116426
0.122823
0.129264
0.135816
0.142535
0.149462
0.156632
0.164077
0.171823
0.179898
0.188329
0.197143
0.206369
0.216038
0.226184
0.236842
0.248052
0.259855
0.272294
0.285417
0.299276
0.313925
0.329408
0.345782
0.363112
0.381467
0.400929
0.421557
0.443347
0.466381
0.490726
0.516448
0.543605
0.572254
0.602449
0.634241
0.667672
0.702757
0.739517
0.777979
0.818162
0.860081
0.903743
0.949151
0.996299
1.04518
1.09578
1.14807
1.20204
1.25766
1.31488
1.37369
1.43402
1.49583