/*--------------------------------*- C++ -*----------------------------------*\
  =========                 |
  \\      /  F ield         | OpenFOAM: The Open Source CFD Toolbox
   \\    /   O peration     | Website:  https://openfoam.org
    \\  /    A nd           | Version:  9
     \\/     M anipulation  |
\*---------------------------------------------------------------------------*/
FoamFile
{
    format      ascii;
    class       volScalarField;
    location    "0.28";
    object      p;
}
// * * * * * * * * * * * * * * * * * * * * * * * * * * * * * * * * * * * * * //

dimensions      [0 2 -2 0 0 0 0];

internalField   nonuniform List<scalar> 
12225
(
-1.11261
-3.39563
-4.55817
-4.86645
-5.03485
-5.19475
-5.31954
-5.40821
-5.47811
-5.53947
-5.59409
-5.64181
-5.68294
-5.71682
-5.74236
-5.74929
-5.74733
-5.64084
-4.58011
-5.28225
-5.37254
-5.23759
-5.19767
-5.26513
-5.3461
-5.41222
-5.46954
-5.5233
-5.57329
-5.61836
-5.65825
-5.69207
-5.71944
-5.73337
-5.74666
-5.73243
-4.78486
-4.68193
-4.83877
-4.961
-5.06852
-5.19102
-5.29954
-5.38248
-5.45001
-5.51024
-5.56484
-5.61359
-5.65666
-5.6938
-5.72544
-5.74852
-5.77725
-5.81056
-4.64756
-4.56946
-4.84559
-5.02443
-5.11904
-5.21636
-5.31171
-5.38955
-5.45447
-5.51307
-5.56682
-5.61537
-5.65886
-5.69745
-5.73218
-5.76311
-5.80191
-5.85481
-4.65453
-4.67181
-4.91196
-5.06197
-5.13816
-5.22306
-5.31291
-5.38927
-5.45358
-5.51171
-5.56533
-5.61427
-5.65878
-5.69943
-5.73771
-5.77531
-5.8208
-5.88093
-4.7162
-4.75869
-4.93654
-5.06739
-5.14553
-5.22827
-5.31482
-5.38996
-5.45392
-5.51181
-5.56546
-5.61489
-5.66049
-5.70314
-5.74451
-5.78689
-5.83637
-5.89831
-4.77594
-4.81548
-4.95195
-5.07427
-5.15681
-5.23673
-5.31865
-5.3918
-5.45521
-5.5128
-5.56641
-5.61628
-5.6629
-5.70728
-5.75113
-5.79669
-5.84816
-5.90903
-4.82907
-4.86399
-4.97435
-5.08709
-5.1698
-5.24589
-5.32308
-5.39405
-5.45679
-5.51403
-5.56755
-5.6178
-5.66532
-5.71113
-5.75679
-5.80423
-5.85621
-5.91458
-4.87884
-4.9106
-5.00145
-5.10236
-5.18257
-5.25523
-5.32821
-5.39684
-5.45869
-5.51547
-5.56883
-5.61933
-5.66753
-5.71438
-5.76119
-5.80946
-5.86088
-5.91623
-4.92618
-4.95483
-5.03006
-5.11906
-5.19558
-5.26515
-5.33429
-5.40036
-5.46103
-5.51721
-5.57026
-5.62083
-5.66944
-5.71689
-5.76422
-5.8125
-5.86272
-5.91497
-4.97093
-4.99623
-5.05908
-5.13724
-5.20925
-5.27569
-5.34124
-5.40463
-5.46388
-5.51928
-5.57187
-5.62229
-5.67099
-5.71862
-5.76595
-5.81366
-5.86229
-5.9116
-5.00941
-5.03176
-5.08565
-5.155
-5.22238
-5.28581
-5.34826
-5.40917
-5.46693
-5.52146
-5.57348
-5.62355
-5.67206
-5.71951
-5.76644
-5.81328
-5.86031
-5.90714
-5.04508
-5.06489
-5.11146
-5.17306
-5.23573
-5.29609
-5.35563
-5.41413
-5.4703
-5.52382
-5.57514
-5.6247
-5.67281
-5.71982
-5.7661
-5.81188
-5.85727
-5.90186
-5.08256
-5.09988
-5.1397
-5.19376
-5.25119
-5.30799
-5.36439
-5.42021
-5.47448
-5.52671
-5.57706
-5.62583
-5.67323
-5.71948
-5.76476
-5.80918
-5.85272
-5.89502
-5.12063
-5.13554
-5.16941
-5.21648
-5.26845
-5.3213
-5.37439
-5.42735
-5.47942
-5.53004
-5.57912
-5.62678
-5.67313
-5.71825
-5.76221
-5.80499
-5.84654
-5.88658
-5.15732
-5.17008
-5.19896
-5.23991
-5.28662
-5.3354
-5.3851
-5.43515
-5.48482
-5.53355
-5.58105
-5.62729
-5.67226
-5.71593
-5.75828
-5.79925
-5.83877
-5.87663
-5.18976
-5.20077
-5.22576
-5.26179
-5.30392
-5.34893
-5.39543
-5.44268
-5.48995
-5.53663
-5.58236
-5.62694
-5.67027
-5.71227
-5.75285
-5.79195
-5.82949
-5.86533
-5.21359
-5.22339
-5.24578
-5.27846
-5.3173
-5.35942
-5.40339
-5.44834
-5.49352
-5.53832
-5.5823
-5.62521
-5.66687
-5.70716
-5.74599
-5.78329
-5.819
-5.85305
-5.22184
-5.23119
-5.25265
-5.28417
-5.32183
-5.3628
-5.40558
-5.44931
-5.49327
-5.53684
-5.57955
-5.62112
-5.66139
-5.70024
-5.73758
-5.77337
-5.80757
-5.84017
-5.20675
-5.21679
-5.23976
-5.27337
-5.31312
-5.35567
-5.39948
-5.44388
-5.48823
-5.5319
-5.57444
-5.61564
-5.65537
-5.69355
-5.73013
-5.76508
-5.79842
-5.83015
-5.18046
-5.19164
-5.2174
-5.25509
-5.2988
-5.3443
-5.39028
-5.43641
-5.48206
-5.52654
-5.56951
-5.61087
-5.65057
-5.68857
-5.72485
-5.75943
-5.79234
-5.82364
-5.14544
-5.15781
-5.18782
-5.23225
-5.28169
-5.33075
-5.37941
-5.42802
-5.47564
-5.52138
-5.56508
-5.60685
-5.64675
-5.68478
-5.72095
-5.75534
-5.78801
-5.81904
-5.10477
-5.11736
-5.1527
-5.20724
-5.2643
-5.31723
-5.36872
-5.42002
-5.4697
-5.51676
-5.56132
-5.60368
-5.64392
-5.68209
-5.71826
-5.75257
-5.78511
-5.81599
-5.0609
-5.07245
-5.1148
-5.18136
-5.24599
-5.30356
-5.35937
-5.41395
-5.46536
-5.51331
-5.55852
-5.60137
-5.64189
-5.68015
-5.7163
-5.75053
-5.78296
-5.81371
-5.01401
-5.02176
-5.08276
-5.1625
-5.22756
-5.28714
-5.34894
-5.40841
-5.46205
-5.51097
-5.55687
-5.6002
-5.64094
-5.67923
-5.71532
-5.74945
-5.78177
-5.81245
-4.96605
-4.94238
-5.05314
-5.16201
-5.22251
-5.27651
-5.33983
-5.40207
-5.45722
-5.50709
-5.5538
-5.59773
-5.63879
-5.67723
-5.71337
-5.74749
-5.77978
-5.8104
-4.95672
-4.81237
-4.97136
-5.1375
-5.22191
-5.28282
-5.3475
-5.40852
-5.46212
-5.5111
-5.55733
-5.60082
-5.64143
-5.67942
-5.71514
-5.74887
-5.78085
-5.81128
-5.10212
-4.8183
-4.853
-4.98337
-5.10286
-5.20975
-5.30368
-5.3793
-5.44138
-5.49643
-5.54698
-5.59336
-5.63593
-5.67529
-5.71198
-5.74637
-5.77899
-5.81046
-5.03892
-5.53859
-5.54866
-5.38932
-5.30824
-5.33233
-5.38634
-5.43559
-5.48052
-5.52489
-5.56832
-5.60954
-5.64817
-5.68441
-5.71847
-5.75045
-5.78061
-5.8108
-1.70023
-3.57077
-4.642
-4.93497
-5.06971
-5.20633
-5.31811
-5.39794
-5.46072
-5.51655
-5.56764
-5.61408
-5.65645
-5.69548
-5.73158
-5.76478
-5.79474
-5.81967
-6.71847
-6.71843
-6.71874
-6.71935
-6.72017
-6.72113
-6.72227
-6.72358
-6.72509
-6.72682
-6.7288
-6.73106
-6.73364
-6.73658
-6.7399
-6.74366
-6.7479
-6.75265
-6.75794
-6.76383
-6.77036
-6.77755
-6.78546
-6.79413
-6.80359
-6.81391
-6.82512
-6.83731
-6.85054
-6.86493
-6.88068
-6.8981
-6.91787
-6.94112
-6.96466
-6.97449
-6.97887
-7.00492
-7.0432
-7.07253
-7.09935
-7.13834
-7.16229
-7.17198
-7.19497
-7.2228
-7.25083
-7.28012
-7.31025
-7.34102
-7.3723
-7.40394
-7.4358
-7.46779
-7.49977
-7.53164
-7.56329
-7.59459
-7.62544
-7.65571
-7.68527
-7.71399
-7.74174
-7.76837
-7.79374
-7.81769
-7.84007
-7.86071
-7.87944
-7.8961
-7.91051
-7.92248
-7.93184
-7.9384
-7.94197
-7.94236
-7.93939
-7.93286
-7.92259
-7.90838
-7.89005
-7.86741
-7.84029
-7.8085
-7.77187
-7.73022
-7.6834
-7.63123
-7.57357
-7.51026
-7.44116
-7.36614
-7.28507
-7.19784
-7.10432
-7.00444
-6.89815
-6.78548
-6.66639
-6.54066
-6.4081
-6.26844
-6.12185
-5.9684
-5.8081
-5.641
-5.4671
-5.28647
-5.09915
-4.90522
-4.70477
-4.4979
-4.28475
-4.06544
-3.84013
-3.60898
-3.37218
-3.12992
-2.88242
-2.62989
-2.37257
-2.11071
-1.84457
-1.57441
-1.30051
-1.02316
-0.742646
-0.459274
-0.173348
0.114824
0.404926
0.696642
0.989656
1.28365
1.5783
1.87331
2.16834
2.4631
2.75728
3.05058
3.34271
3.63339
3.92234
4.20929
4.49398
4.77617
5.05563
5.33212
5.60544
5.87539
6.14177
6.40442
6.66316
6.91785
7.16836
7.41455
7.65631
7.89353
8.12614
8.35403
8.57716
8.79544
9.00885
9.21736
9.42094
9.61956
9.81305
10.0013
10.1842
10.3619
10.5343
10.7015
10.8634
11.0202
11.1718
11.3187
11.4616
11.602
11.7489
11.9028
-6.71751
-6.71769
-6.71804
-6.71855
-6.71909
-6.71962
-6.72018
-6.72087
-6.72179
-6.72297
-6.72445
-6.72626
-6.7284
-6.73092
-6.73383
-6.73717
-6.74096
-6.74525
-6.75006
-6.75543
-6.7614
-6.76799
-6.77526
-6.78324
-6.79197
-6.80148
-6.81184
-6.82306
-6.83519
-6.84823
-6.86216
-6.87681
-6.89177
-6.90531
-6.91531
-6.93476
-6.96837
-6.99193
-7.00444
-7.02222
-7.04831
-7.066
-7.08803
-7.1282
-7.16594
-7.19697
-7.22743
-7.25805
-7.28892
-7.32007
-7.35151
-7.38317
-7.41498
-7.44687
-7.47874
-7.51048
-7.54201
-7.57321
-7.60396
-7.63416
-7.66367
-7.69237
-7.72013
-7.7468
-7.77224
-7.7963
-7.81882
-7.83964
-7.8586
-7.87552
-7.89023
-7.90255
-7.9123
-7.91929
-7.92334
-7.92425
-7.92184
-7.91592
-7.9063
-7.89279
-7.87521
-7.85336
-7.82708
-7.79617
-7.76047
-7.71981
-7.67401
-7.62293
-7.5664
-7.50429
-7.43644
-7.36272
-7.28301
-7.19719
-7.10515
-7.00678
-6.90196
-6.79059
-6.67255
-6.54759
-6.41573
-6.27736
-6.13227
-5.9804
-5.82173
-5.65627
-5.48403
-5.30506
-5.11941
-4.92714
-4.72836
-4.52315
-4.31164
-4.09397
-3.87027
-3.64071
-3.40548
-3.16476
-2.91877
-2.66772
-2.41184
-2.15138
-1.88659
-1.61774
-1.3451
-1.06896
-0.789613
-0.507346
-0.222467
0.0647144
0.353887
0.644735
0.936943
1.23019
1.52417
1.81856
2.11304
2.40732
2.70108
2.99403
3.28587
3.57631
3.86509
4.15194
4.43658
4.71879
4.99831
5.27492
5.54841
5.81857
6.08522
6.34817
6.60726
6.86234
7.11327
7.35991
7.60215
7.83989
8.07302
8.30148
8.52517
8.74406
8.95809
9.16722
9.37143
9.57067
9.76478
9.95364
10.1373
10.3156
10.4887
10.6566
10.8194
10.977
11.1297
11.2778
11.4226
11.5651
11.7154
11.8633
-6.71451
-6.71535
-6.71626
-6.71712
-6.71774
-6.7182
-6.71864
-6.71917
-6.7199
-6.72088
-6.72216
-6.72376
-6.72571
-6.72804
-6.73077
-6.73394
-6.73758
-6.74171
-6.74638
-6.75161
-6.75743
-6.7639
-6.77103
-6.77886
-6.78744
-6.79679
-6.80694
-6.81793
-6.82979
-6.84254
-6.85618
-6.87072
-6.88605
-6.90189
-6.91808
-6.93715
-6.96098
-6.98517
-7.00658
-7.02729
-7.05028
-7.0736
-7.09702
-7.12516
-7.15506
-7.18446
-7.21418
-7.24429
-7.27471
-7.30543
-7.3364
-7.36756
-7.39886
-7.43023
-7.46157
-7.4928
-7.52383
-7.55454
-7.58484
-7.61461
-7.64374
-7.67208
-7.69952
-7.72592
-7.75113
-7.775
-7.79738
-7.81812
-7.83703
-7.85396
-7.86874
-7.88117
-7.89109
-7.89831
-7.90265
-7.90391
-7.90191
-7.89645
-7.88736
-7.87444
-7.85751
-7.83638
-7.81087
-7.7808
-7.746
-7.7063
-7.66153
-7.61153
-7.55614
-7.49522
-7.42863
-7.35622
-7.27788
-7.19347
-7.10288
-7.00601
-6.90274
-6.79292
-6.67643
-6.55335
-6.42347
-6.28692
-6.14365
-5.99363
-5.83683
-5.67327
-5.50295
-5.3259
-5.14219
-4.95187
-4.75503
-4.55177
-4.3422
-4.12645
-3.90467
-3.67701
-3.44365
-3.20478
-2.9606
-2.71133
-2.4572
-2.19844
-1.93531
-1.66807
-1.39699
-1.12236
-0.844451
-0.563571
-0.280016
0.00590773
0.293889
0.583616
0.874774
1.16705
1.46012
1.75368
2.04741
2.34101
2.63417
2.92659
3.21798
3.50805
3.79653
4.08315
4.36764
4.64976
4.92926
5.20592
5.47952
5.74986
6.01674
6.27999
6.53942
6.79489
7.04625
7.29337
7.53613
7.77442
8.00815
8.23721
8.46154
8.68107
8.89574
9.10551
9.31034
9.51016
9.70493
9.89456
10.079
10.2582
10.4322
10.601
10.7647
10.9233
11.0772
11.2268
11.3735
11.5177
11.6708
11.8086
-6.70975
-6.71126
-6.71304
-6.71459
-6.71568
-6.71646
-6.71711
-6.71779
-6.71859
-6.7196
-6.72087
-6.72245
-6.72438
-6.72667
-6.72937
-6.7325
-6.7361
-6.74019
-6.74481
-6.74999
-6.75576
-6.76217
-6.76923
-6.77699
-6.78547
-6.79472
-6.80476
-6.81562
-6.82733
-6.83991
-6.85339
-6.86777
-6.88305
-6.89925
-6.91658
-6.93551
-6.95626
-6.97815
-7.00044
-7.02318
-7.04667
-7.07098
-7.09627
-7.12307
-7.15091
-7.17932
-7.20831
-7.23778
-7.26764
-7.29783
-7.3283
-7.35899
-7.38983
-7.42074
-7.45164
-7.48246
-7.51309
-7.54344
-7.5734
-7.60286
-7.6317
-7.65981
-7.68704
-7.71327
-7.73835
-7.76213
-7.78446
-7.80518
-7.82413
-7.84113
-7.85602
-7.86862
-7.87874
-7.8862
-7.89083
-7.89242
-7.89079
-7.88577
-7.87714
-7.86473
-7.84836
-7.82783
-7.80297
-7.7736
-7.73954
-7.70062
-7.65667
-7.60754
-7.55306
-7.4931
-7.4275
-7.35612
-7.27883
-7.19551
-7.10604
-7.01029
-6.90817
-6.79956
-6.68435
-6.56254
-6.43409
-6.29896
-6.15712
-6.00854
-5.85321
-5.69112
-5.52228
-5.34674
-5.16453
-4.97572
-4.78039
-4.57863
-4.37056
-4.1563
-3.936
-3.70981
-3.4779
-3.24047
-2.9977
-2.74981
-2.49704
-2.2396
-1.97777
-1.71178
-1.44192
-1.16847
-0.891693
-0.611901
-0.329386
-0.0444533
0.242589
0.531429
0.821754
1.11325
1.4056
1.69849
1.99162
2.28467
2.57734
2.86934
3.16036
3.45012
3.73834
4.02476
4.30911
4.59115
4.87062
5.14731
5.42098
5.69144
5.95849
6.22194
6.48163
6.7374
6.98909
7.23658
7.47974
7.71846
7.95263
8.18216
8.40699
8.62704
8.84225
9.05257
9.25791
9.45821
9.65344
9.84358
10.0286
10.2084
10.383
10.5524
10.7168
10.8762
11.0309
11.1814
11.329
11.4733
11.6253
11.751
-6.70429
-6.70652
-6.70935
-6.71176
-6.71349
-6.71474
-6.71577
-6.71675
-6.71779
-6.719
-6.72043
-6.72215
-6.72419
-6.72659
-6.7294
-6.73263
-6.73632
-6.7405
-6.74521
-6.75047
-6.75633
-6.76282
-6.76997
-6.77782
-6.7864
-6.79574
-6.80588
-6.81686
-6.82871
-6.84144
-6.8551
-6.8697
-6.88527
-6.90184
-6.91953
-6.93847
-6.95866
-6.97984
-7.00182
-7.02467
-7.04841
-7.07291
-7.09831
-7.12475
-7.15204
-7.17997
-7.20845
-7.23742
-7.26681
-7.29657
-7.32662
-7.35691
-7.38737
-7.41793
-7.4485
-7.479
-7.50933
-7.53942
-7.56914
-7.59838
-7.62704
-7.65499
-7.68209
-7.70822
-7.73323
-7.75698
-7.7793
-7.80004
-7.81904
-7.83613
-7.85113
-7.86387
-7.87417
-7.88184
-7.8867
-7.88855
-7.88723
-7.88252
-7.87425
-7.86223
-7.84628
-7.82619
-7.80181
-7.77294
-7.73941
-7.70105
-7.6577
-7.60919
-7.55536
-7.49607
-7.43117
-7.36052
-7.28399
-7.20144
-7.11277
-7.01784
-6.91657
-6.80884
-6.69459
-6.57375
-6.44628
-6.31214
-6.1713
-6.02372
-5.86939
-5.70832
-5.5405
-5.36597
-5.18479
-4.997
-4.80269
-4.60196
-4.39491
-4.18166
-3.96236
-3.73717
-3.50624
-3.26978
-3.02797
-2.78102
-2.52916
-2.27263
-2.01167
-1.74654
-1.47751
-1.20485
-0.928854
-0.649804
-0.368001
-0.0837482
0.202648
0.490878
0.780628
1.07158
1.36344
1.65587
1.94857
2.24124
2.53357
2.82525
3.11601
3.40555
3.69359
3.97986
4.2641
4.54607
4.82551
5.1022
5.37591
5.64645
5.9136
6.1772
6.43706
6.69302
6.94494
7.19268
7.4361
7.67511
7.9096
8.13948
8.36467
8.58508
8.80066
9.01134
9.21702
9.41763
9.61315
9.80359
9.9889
10.1691
10.344
10.5139
10.6787
10.8385
10.9936
11.1444
11.292
11.4351
11.5843
11.6983
-6.6991
-6.70206
-6.70585
-6.70915
-6.71156
-6.71338
-6.71489
-6.71627
-6.71766
-6.71917
-6.72088
-6.72285
-6.72512
-6.72776
-6.73078
-6.73422
-6.73813
-6.74252
-6.74744
-6.75293
-6.75901
-6.76572
-6.7731
-6.78119
-6.79001
-6.79962
-6.81003
-6.82129
-6.83343
-6.84647
-6.86044
-6.87537
-6.89128
-6.90821
-6.92618
-6.94524
-6.96534
-6.9864
-7.00831
-7.03107
-7.05468
-7.07909
-7.10431
-7.13036
-7.15718
-7.18464
-7.21268
-7.24124
-7.27024
-7.29963
-7.32935
-7.35932
-7.38949
-7.41977
-7.4501
-7.48037
-7.51051
-7.54041
-7.56998
-7.59909
-7.62765
-7.65551
-7.68256
-7.70865
-7.73365
-7.75741
-7.77977
-7.80057
-7.81965
-7.83684
-7.85196
-7.86484
-7.8753
-7.88315
-7.88821
-7.89029
-7.8892
-7.88475
-7.87676
-7.86503
-7.84938
-7.82963
-7.80559
-7.77708
-7.74393
-7.70597
-7.66304
-7.61496
-7.56159
-7.50277
-7.43835
-7.36821
-7.2922
-7.2102
-7.12209
-7.02775
-6.92708
-6.81999
-6.70639
-6.58623
-6.45944
-6.32598
-6.1858
-6.0389
-5.88524
-5.72484
-5.55769
-5.38384
-5.20333
-5.01622
-4.82259
-4.62252
-4.41614
-4.20356
-3.98493
-3.76039
-3.53012
-3.29429
-3.05311
-2.80679
-2.55555
-2.29962
-2.03924
-1.77469
-1.50622
-1.2341
-0.958632
-0.68009
-0.398775
-0.11499
0.17096
0.458764
0.748111
1.03869
1.33018
1.62229
1.91468
2.20707
2.49914
2.7906
3.08116
3.37052
3.65841
3.94456
4.22871
4.5106
4.79
5.06667
5.34039
5.61096
5.87817
6.14184
6.40179
6.65787
6.90993
7.15782
7.40143
7.64064
7.87534
8.10544
8.33086
8.55151
8.76732
8.97822
9.18412
9.38494
9.58067
9.7713
9.95681
10.1372
10.3124
10.4825
10.6475
10.8075
10.9627
11.1134
11.2605
11.4019
11.548
11.6517
-6.69517
-6.69868
-6.70328
-6.70734
-6.71041
-6.71278
-6.71477
-6.71659
-6.71837
-6.72025
-6.72229
-6.72458
-6.72716
-6.73009
-6.73341
-6.73714
-6.74134
-6.74603
-6.75124
-6.75703
-6.76341
-6.77043
-6.77813
-6.78654
-6.79569
-6.80562
-6.81637
-6.82796
-6.84043
-6.85379
-6.86807
-6.8833
-6.89949
-6.91665
-6.9348
-6.95393
-6.97401
-6.99501
-7.01686
-7.03955
-7.06305
-7.08733
-7.11238
-7.13818
-7.16469
-7.19184
-7.21957
-7.24782
-7.27654
-7.30567
-7.33515
-7.36491
-7.39488
-7.42499
-7.45516
-7.4853
-7.51533
-7.54515
-7.57464
-7.60372
-7.63224
-7.6601
-7.68716
-7.71329
-7.73834
-7.76216
-7.78459
-7.80549
-7.82468
-7.84198
-7.85724
-7.87026
-7.88087
-7.88889
-7.89412
-7.89638
-7.89547
-7.89122
-7.88343
-7.87192
-7.85649
-7.83696
-7.81316
-7.7849
-7.752
-7.7143
-7.67164
-7.62384
-7.57076
-7.51225
-7.44815
-7.37834
-7.30267
-7.22103
-7.13328
-7.03932
-6.93905
-6.83237
-6.71921
-6.59947
-6.47311
-6.34007
-6.20032
-6.05383
-5.90059
-5.7406
-5.57387
-5.40043
-5.22033
-5.03363
-4.84042
-4.64077
-4.4348
-4.22264
-4.00442
-3.78029
-3.55043
-3.31502
-3.07424
-2.82832
-2.57748
-2.32194
-2.06196
-1.79778
-1.52968
-1.25794
-0.982824
-0.704631
-0.423654
-0.140197
0.145437
0.432936
0.721991
1.01229
1.30352
1.59537
1.88754
2.1797
2.47157
2.76284
3.05323
3.34244
3.63019
3.91622
4.20027
4.48208
4.76141
5.03803
5.31172
5.58227
5.84948
6.11317
6.37316
6.6293
6.88143
7.12941
7.37312
7.61244
7.84726
8.07749
8.30305
8.52384
8.73979
8.95083
9.15687
9.35783
9.5537
9.74447
9.93013
10.1106
10.286
10.4562
10.6213
10.7814
10.9365
11.0869
11.233
11.3726
11.5158
11.6103
-6.6929
-6.69683
-6.70205
-6.70673
-6.71035
-6.71323
-6.71568
-6.71792
-6.7201
-6.72234
-6.72474
-6.72737
-6.73028
-6.73354
-6.73718
-6.74124
-6.74576
-6.75077
-6.75632
-6.76243
-6.76915
-6.77651
-6.78455
-6.7933
-6.80279
-6.81306
-6.82414
-6.83605
-6.84883
-6.86248
-6.87704
-6.89251
-6.9089
-6.92623
-6.94449
-6.96368
-6.98377
-7.00472
-7.02653
-7.04915
-7.07256
-7.09673
-7.12166
-7.14729
-7.17361
-7.20057
-7.2281
-7.25617
-7.28472
-7.3137
-7.34304
-7.37268
-7.40255
-7.43259
-7.4627
-7.49281
-7.52282
-7.55264
-7.58215
-7.61126
-7.63983
-7.66775
-7.69489
-7.7211
-7.74625
-7.77017
-7.79272
-7.81374
-7.83305
-7.85049
-7.86588
-7.87904
-7.88979
-7.89794
-7.90331
-7.9057
-7.90494
-7.90083
-7.89317
-7.88179
-7.8665
-7.84711
-7.82344
-7.79532
-7.76257
-7.72501
-7.68249
-7.63485
-7.58193
-7.52358
-7.45965
-7.39002
-7.31454
-7.23309
-7.14555
-7.0518
-6.95175
-6.84531
-6.73237
-6.61286
-6.48673
-6.35391
-6.21438
-6.0681
-5.91507
-5.75528
-5.58876
-5.41554
-5.23565
-5.04917
-4.85617
-4.65674
-4.45099
-4.23906
-4.02106
-3.79717
-3.56754
-3.33236
-3.09183
-2.84615
-2.59554
-2.34024
-2.0805
-1.81657
-1.54871
-1.27721
-1.00233
-0.724379
-0.443637
-0.160409
0.124997
0.412274
0.701111
0.991196
1.28222
1.57387
1.86585
2.15783
2.44953
2.74063
3.03086
3.31992
3.60754
3.89345
4.17739
4.45909
4.73833
5.01487
5.28849
5.55899
5.82616
6.08982
6.3498
6.60593
6.85807
7.10608
7.34982
7.58918
7.82406
8.05436
8.27998
8.50084
8.71687
8.92799
9.13411
9.33517
9.53113
9.72199
9.90774
10.0883
10.2638
10.434
10.5991
10.7591
10.914
11.0638
11.2089
11.3464
11.4871
11.5737
-6.69259
-6.6968
-6.70243
-6.70756
-6.71162
-6.71491
-6.71775
-6.72037
-6.72291
-6.7255
-6.72823
-6.73118
-6.73442
-6.73799
-6.74194
-6.74631
-6.75114
-6.75647
-6.76234
-6.76877
-6.77581
-6.78349
-6.79184
-6.8009
-6.8107
-6.82127
-6.83264
-6.84482
-6.85786
-6.87175
-6.88652
-6.90218
-6.91873
-6.93618
-6.95452
-6.97374
-6.99384
-7.01478
-7.03655
-7.05913
-7.08248
-7.10659
-7.13144
-7.15699
-7.18321
-7.21006
-7.23751
-7.2655
-7.29398
-7.3229
-7.35221
-7.38183
-7.4117
-7.44175
-7.4719
-7.50205
-7.53212
-7.56202
-7.59162
-7.62083
-7.64951
-7.67755
-7.70481
-7.73115
-7.75643
-7.78049
-7.80318
-7.82432
-7.84377
-7.86133
-7.87684
-7.89012
-7.90098
-7.90923
-7.91469
-7.91718
-7.9165
-7.91245
-7.90487
-7.89355
-7.87831
-7.85897
-7.83535
-7.80726
-7.77455
-7.73703
-7.69455
-7.64694
-7.59405
-7.53574
-7.47187
-7.40228
-7.32686
-7.24547
-7.158
-7.06433
-6.96436
-6.85799
-6.74512
-6.62568
-6.4996
-6.36684
-6.22736
-6.08114
-5.92816
-5.76842
-5.60195
-5.42878
-5.24895
-5.06253
-4.8696
-4.67024
-4.46458
-4.25272
-4.03482
-3.81103
-3.58151
-3.34644
-3.10602
-2.86046
-2.60999
-2.35483
-2.09523
-1.83145
-1.56374
-1.29239
-1.01768
-0.739891
-0.459316
-0.176258
0.108976
0.39608
0.684744
0.974656
1.26551
1.55699
1.84879
2.14061
2.43214
2.72309
3.01316
3.30206
3.58954
3.8753
4.1591
4.44068
4.7198
4.99624
5.26976
5.54016
5.80725
6.07084
6.33076
6.58684
6.83894
7.08691
7.33064
7.56999
7.80487
8.03517
8.26081
8.4817
8.69775
8.9089
9.11505
9.31616
9.51218
9.7031
9.88889
10.0695
10.245
10.4152
10.5802
10.74
10.8946
11.0437
11.1877
11.3231
11.4615
11.5413
-6.69433
-6.69866
-6.70451
-6.70991
-6.71427
-6.71788
-6.72104
-6.72396
-6.7268
-6.72968
-6.73269
-6.73592
-6.73942
-6.74326
-6.74748
-6.75212
-6.75722
-6.76282
-6.76895
-6.77565
-6.78295
-6.79089
-6.7995
-6.80881
-6.81886
-6.82966
-6.84125
-6.85365
-6.86687
-6.88094
-6.89586
-6.91165
-6.92831
-6.94584
-6.96424
-6.9835
-7.00361
-7.02455
-7.04632
-7.06888
-7.09222
-7.11631
-7.14114
-7.16667
-7.19287
-7.21972
-7.24716
-7.27516
-7.30366
-7.33262
-7.36198
-7.39166
-7.42162
-7.45176
-7.48201
-7.51229
-7.54249
-7.57252
-7.60227
-7.63162
-7.66046
-7.68865
-7.71607
-7.74256
-7.76798
-7.79218
-7.815
-7.83627
-7.85583
-7.87349
-7.88909
-7.90245
-7.91337
-7.92168
-7.92718
-7.92969
-7.92902
-7.92497
-7.91738
-7.90603
-7.89076
-7.87138
-7.84771
-7.81957
-7.7868
-7.74922
-7.70667
-7.659
-7.60605
-7.54767
-7.48374
-7.4141
-7.33862
-7.25719
-7.16968
-7.07597
-6.97595
-6.86953
-6.75659
-6.63708
-6.51094
-6.3781
-6.23855
-6.09225
-5.93919
-5.77939
-5.61285
-5.43962
-5.25974
-5.07327
-4.8803
-4.68092
-4.47523
-4.26337
-4.04547
-3.82169
-3.59219
-3.35715
-3.11678
-2.87127
-2.62086
-2.36577
-2.10626
-1.84257
-1.57497
-1.30373
-1.02914
-0.751472
-0.471032
-0.188117
0.0969694
0.38392
0.672426
0.962176
1.25286
1.54417
1.8358
2.12744
2.41879
2.70956
2.99946
3.2882
3.5755
3.8611
4.14474
4.42616
4.70513
4.98142
5.2548
5.52507
5.79204
6.05551
6.31532
6.57131
6.82332
7.07121
7.31487
7.55416
7.78899
8.01926
8.24487
8.46573
8.68177
8.8929
9.09906
9.30019
9.49623
9.68717
9.87297
10.0536
10.229
10.3992
10.5641
10.7236
10.8777
11.026
11.1688
11.3023
11.4385
11.5124
-6.69803
-6.70236
-6.70824
-6.71375
-6.71828
-6.72209
-6.72546
-6.7286
-6.73166
-6.73475
-6.73797
-6.7414
-6.74511
-6.74915
-6.75356
-6.75839
-6.76368
-6.76947
-6.77579
-6.78267
-6.79016
-6.79828
-6.80707
-6.81656
-6.82677
-6.83773
-6.84946
-6.862
-6.87534
-6.88952
-6.90454
-6.92041
-6.93714
-6.95473
-6.97317
-6.99246
-7.01259
-7.03356
-7.05534
-7.07792
-7.10129
-7.12541
-7.15028
-7.17585
-7.20211
-7.22902
-7.25653
-7.28462
-7.31322
-7.34229
-7.37177
-7.40159
-7.43169
-7.46198
-7.4924
-7.52284
-7.55321
-7.58341
-7.61334
-7.64286
-7.67186
-7.70021
-7.72778
-7.75441
-7.77996
-7.80428
-7.8272
-7.84856
-7.86818
-7.8859
-7.90154
-7.9149
-7.92582
-7.93411
-7.93957
-7.94203
-7.94129
-7.93716
-7.92946
-7.91801
-7.90262
-7.88311
-7.85929
-7.83101
-7.79809
-7.76035
-7.71765
-7.66983
-7.61672
-7.5582
-7.49412
-7.42433
-7.34872
-7.26716
-7.17952
-7.08567
-6.9855
-6.8789
-6.7658
-6.64612
-6.5198
-6.3868
-6.24708
-6.10061
-5.9474
-5.78744
-5.62076
-5.44739
-5.26739
-5.08081
-4.88773
-4.68826
-4.4825
-4.27057
-4.05262
-3.8288
-3.59928
-3.36424
-3.12387
-2.87839
-2.62801
-2.37297
-2.11352
-1.8499
-1.58239
-1.31125
-1.03677
-0.759228
-0.478927
-0.196161
0.0887675
0.375552
0.663884
0.953455
1.24395
1.53507
1.8265
2.11794
2.40909
2.69966
2.98935
3.27788
3.56498
3.85037
4.1338
4.41503
4.6938
4.9699
5.24309
5.51319
5.77998
6.04329
6.30295
6.55879
6.81067
7.05844
7.30198
7.54117
7.77591
8.00609
8.23163
8.45243
8.66842
8.87952
9.08565
9.28675
9.48279
9.67372
9.85951
10.0401
10.2155
10.3855
10.5502
10.7094
10.863
11.0105
11.152
11.2836
11.4178
11.4868
-6.70351
-6.70772
-6.7135
-6.71897
-6.72354
-6.72743
-6.73091
-6.73417
-6.73734
-6.74055
-6.74388
-6.74742
-6.75123
-6.75537
-6.75988
-6.76481
-6.7702
-6.77608
-6.78249
-6.78947
-6.79705
-6.80527
-6.81414
-6.82372
-6.83401
-6.84505
-6.85686
-6.86945
-6.88286
-6.8971
-6.91217
-6.92808
-6.94485
-6.96247
-6.98094
-7.00026
-7.02043
-7.04144
-7.06326
-7.0859
-7.10933
-7.13352
-7.15847
-7.18415
-7.21051
-7.23754
-7.26518
-7.29341
-7.32216
-7.35139
-7.38104
-7.41103
-7.44131
-7.47179
-7.50238
-7.53301
-7.56356
-7.59393
-7.62401
-7.65369
-7.68283
-7.71131
-7.73899
-7.76571
-7.79134
-7.81571
-7.83867
-7.86004
-7.87966
-7.89734
-7.91293
-7.92622
-7.93705
-7.94522
-7.95055
-7.95285
-7.95194
-7.94764
-7.93975
-7.92809
-7.91248
-7.89275
-7.86871
-7.8402
-7.80705
-7.76908
-7.72615
-7.6781
-7.62478
-7.56604
-7.50174
-7.43176
-7.35596
-7.2742
-7.18634
-7.09225
-6.99184
-6.885
-6.77166
-6.65174
-6.52518
-6.39195
-6.252
-6.10532
-5.95189
-5.79174
-5.62487
-5.45133
-5.27116
-5.08444
-4.89124
-4.69165
-4.48579
-4.27379
-4.05577
-3.83191
-3.60236
-3.36731
-3.12695
-2.8815
-2.63117
-2.3762
-2.11682
-1.8533
-1.58589
-1.31488
-1.04053
-0.763147
-0.483012
-0.200425
0.0843132
0.370897
0.65902
0.948371
1.23864
1.52953
1.82071
2.11191
2.4028
2.69312
2.98255
3.27082
3.55766
3.84279
4.12597
4.40694
4.68546
4.96131
5.23427
5.50414
5.77071
6.03381
6.29326
6.5489
6.8006
7.0482
7.29158
7.53063
7.76524
7.9953
8.22073
8.44143
8.65734
8.86837
9.07444
9.27551
9.47151
9.66241
9.84816
10.0287
10.204
10.3739
10.5383
10.6971
10.8501
10.9967
11.137
11.2668
11.3991
11.4641
-6.71052
-6.71455
-6.7201
-6.72541
-6.7299
-6.73376
-6.73722
-6.74048
-6.74365
-6.74686
-6.75019
-6.75372
-6.75753
-6.76165
-6.76615
-6.77107
-6.77645
-6.78232
-6.78872
-6.7957
-6.80327
-6.81149
-6.82036
-6.82993
-6.84023
-6.85127
-6.86308
-6.87569
-6.8891
-6.90334
-6.91842
-6.93434
-6.95112
-6.96876
-6.98726
-7.00662
-7.02683
-7.04789
-7.06978
-7.09249
-7.11601
-7.14031
-7.16538
-7.19118
-7.21769
-7.24486
-7.27266
-7.30105
-7.32997
-7.35938
-7.3892
-7.41936
-7.44981
-7.48045
-7.5112
-7.54197
-7.57265
-7.60314
-7.63333
-7.66309
-7.6923
-7.72082
-7.74852
-7.77525
-7.80085
-7.82517
-7.84805
-7.86933
-7.88882
-7.90636
-7.92178
-7.93488
-7.9455
-7.95344
-7.95853
-7.96058
-7.9594
-7.95481
-7.94663
-7.93468
-7.91877
-7.89874
-7.8744
-7.84559
-7.81215
-7.7739
-7.73069
-7.68236
-7.62877
-7.56978
-7.50524
-7.43502
-7.35898
-7.27695
-7.1888
-7.09443
-6.99372
-6.88659
-6.77296
-6.65277
-6.52594
-6.39245
-6.25225
-6.10534
-5.9517
-5.79134
-5.62429
-5.45058
-5.27027
-5.08341
-4.8901
-4.69042
-4.48449
-4.27243
-4.05438
-3.8305
-3.60096
-3.36594
-3.12563
-2.88025
-2.63
-2.37513
-2.11588
-1.8525
-1.58526
-1.31442
-1.04027
-0.763089
-0.483178
-0.200829
0.0836573
0.369978
0.657825
0.946892
1.23687
1.52745
1.81833
2.10921
2.39979
2.68978
2.97888
3.26683
3.55334
3.83815
4.12101
4.40166
4.67987
4.95542
5.22808
5.49765
5.76394
6.02677
6.28597
6.54137
6.79283
7.04021
7.28339
7.52225
7.75668
7.98659
8.21187
8.43245
8.64825
8.85918
9.06518
9.26618
9.46213
9.65298
9.83867
10.0191
10.1943
10.364
10.5282
10.6866
10.839
10.9847
11.1237
11.2518
11.3823
11.444
-6.71883
-6.72263
-6.72789
-6.73294
-6.73723
-6.74092
-6.74424
-6.74736
-6.75039
-6.75346
-6.75666
-6.76005
-6.76372
-6.76771
-6.77208
-6.77686
-6.78212
-6.78787
-6.79417
-6.80104
-6.80851
-6.81663
-6.82543
-6.83492
-6.84514
-6.85612
-6.86787
-6.88043
-6.8938
-6.908
-6.92305
-6.93896
-6.95573
-6.97338
-6.99189
-7.01128
-7.03153
-7.05264
-7.0746
-7.09739
-7.12101
-7.14541
-7.1706
-7.19652
-7.22316
-7.25047
-7.27841
-7.30693
-7.33599
-7.36551
-7.39545
-7.42573
-7.45626
-7.48698
-7.5178
-7.54861
-7.57931
-7.60981
-7.63997
-7.66969
-7.69883
-7.72725
-7.75483
-7.7814
-7.80683
-7.83096
-7.85362
-7.87465
-7.89388
-7.91113
-7.92624
-7.93903
-7.94931
-7.95691
-7.96163
-7.96331
-7.96176
-7.9568
-7.94825
-7.93593
-7.91966
-7.89927
-7.87459
-7.84545
-7.81168
-7.77312
-7.72962
-7.68101
-7.62716
-7.56791
-7.50313
-7.43267
-7.35633
-7.27399
-7.18553
-7.09084
-6.98983
-6.88241
-6.7685
-6.64803
-6.52095
-6.38722
-6.2468
-6.09968
-5.94585
-5.78533
-5.61813
-5.4443
-5.26388
-5.07694
-4.88356
-4.68384
-4.4779
-4.26585
-4.04783
-3.824
-3.59454
-3.35961
-3.11942
-2.87418
-2.62411
-2.36942
-2.11038
-1.84722
-1.58022
-1.30964
-1.03577
-0.758887
-0.479286
-0.197263
0.0868853
0.372854
0.660339
0.949034
1.23863
1.52882
1.81931
2.10979
2.39996
2.68954
2.97824
3.26578
3.55189
3.8363
4.11876
4.39902
4.67685
4.95202
5.22431
5.49353
5.75948
6.02198
6.28085
6.53595
6.78713
7.03425
7.27718
7.51581
7.75003
7.97974
8.20485
8.42528
8.64094
8.85175
9.05766
9.25858
9.45447
9.64525
9.83086
10.0112
10.1862
10.3558
10.5197
10.6776
10.8294
10.9742
11.1119
11.2385
11.3672
11.4264
-6.72828
-6.73184
-6.73675
-6.74146
-6.74544
-6.74883
-6.75184
-6.75465
-6.75738
-6.76014
-6.76304
-6.76614
-6.76953
-6.77325
-6.77735
-6.78189
-6.78691
-6.79244
-6.79853
-6.8052
-6.81249
-6.82044
-6.82907
-6.83841
-6.84849
-6.85934
-6.87098
-6.88343
-6.8967
-6.91083
-6.92581
-6.94166
-6.95839
-6.97601
-6.99451
-7.01389
-7.03416
-7.05529
-7.07728
-7.10012
-7.12378
-7.14825
-7.17349
-7.19947
-7.22616
-7.25351
-7.28149
-7.31004
-7.3391
-7.36862
-7.39853
-7.42876
-7.45923
-7.48986
-7.52056
-7.55123
-7.58177
-7.61207
-7.64202
-7.6715
-7.70037
-7.72852
-7.75578
-7.78203
-7.80711
-7.83087
-7.85315
-7.87378
-7.8926
-7.90943
-7.92411
-7.93646
-7.94629
-7.95344
-7.95773
-7.95897
-7.95698
-7.95159
-7.94262
-7.9299
-7.91324
-7.89249
-7.86746
-7.83798
-7.8039
-7.76506
-7.72128
-7.67244
-7.61836
-7.5589
-7.49388
-7.42312
-7.34647
-7.26382
-7.17506
-7.08009
-6.97881
-6.87113
-6.75698
-6.63629
-6.50901
-6.3751
-6.23452
-6.08726
-5.93332
-5.77271
-5.60545
-5.43158
-5.25114
-5.06421
-4.87087
-4.67121
-4.46535
-4.25341
-4.03552
-3.81186
-3.58257
-3.34785
-3.1079
-2.86291
-2.61311
-2.35872
-2.09999
-1.83718
-1.57053
-1.30033
-1.02685
-0.750375
-0.471197
-0.189611
0.0940865
0.379593
0.666606
0.954818
1.24393
1.53362
1.82361
2.11359
2.40326
2.69233
2.98053
3.26757
3.55318
3.8371
4.11908
4.39887
4.67623
4.95094
5.2228
5.49159
5.75713
6.01923
6.27774
6.53248
6.78332
7.03012
7.27276
7.51111
7.74508
7.97457
8.19948
8.41973
8.63523
8.84592
9.05171
9.25254
9.44835
9.63906
9.8246
10.0049
10.1797
10.3491
10.5126
10.6702
10.8212
10.9651
11.1018
11.2268
11.3537
11.411
-6.73917
-6.74252
-6.74707
-6.75135
-6.75486
-6.75774
-6.76023
-6.76251
-6.76471
-6.76695
-6.76935
-6.77197
-6.7749
-6.77819
-6.7819
-6.78606
-6.79072
-6.79591
-6.80168
-6.80805
-6.81507
-6.82275
-6.83113
-6.84023
-6.85009
-6.86072
-6.87216
-6.88442
-6.89752
-6.91148
-6.92632
-6.94203
-6.95863
-6.97613
-6.99452
-7.0138
-7.03397
-7.05501
-7.07691
-7.09965
-7.12321
-7.14757
-7.17269
-7.19855
-7.22509
-7.25229
-7.28009
-7.30844
-7.33728
-7.36655
-7.39619
-7.42613
-7.45628
-7.48656
-7.51689
-7.54717
-7.5773
-7.60717
-7.63668
-7.66569
-7.69408
-7.72172
-7.74848
-7.77421
-7.79876
-7.82198
-7.84372
-7.86381
-7.88208
-7.89837
-7.91251
-7.92433
-7.93364
-7.94028
-7.94406
-7.94482
-7.94237
-7.93654
-7.92715
-7.91404
-7.89702
-7.87593
-7.85059
-7.82084
-7.78652
-7.74746
-7.70352
-7.65452
-7.60028
-7.54061
-7.47532
-7.40428
-7.32737
-7.24448
-7.15549
-7.06032
-6.95885
-6.85101
-6.73672
-6.61591
-6.48854
-6.35456
-6.21394
-6.06666
-5.91274
-5.75216
-5.58497
-5.41118
-5.23087
-5.04408
-4.85092
-4.65146
-4.44583
-4.23414
-4.01654
-3.79318
-3.56423
-3.32987
-3.09029
-2.84571
-2.59634
-2.3424
-2.08415
-1.82182
-1.55569
-1.28602
-1.01308
-0.737165