/*--------------------------------*- C++ -*----------------------------------*\
  =========                 |
  \\      /  F ield         | OpenFOAM: The Open Source CFD Toolbox
   \\    /   O peration     | Website:  https://openfoam.org
    \\  /    A nd           | Version:  9
     \\/     M anipulation  |
\*---------------------------------------------------------------------------*/
FoamFile
{
    format      ascii;
    class       surfaceScalarField;
    location    "0.28";
    object      phi;
}
// * * * * * * * * * * * * * * * * * * * * * * * * * * * * * * * * * * * * * //

dimensions      [0 3 -1 0 0 0 0];

internalField   nonuniform List<scalar> 
24170
(
3.1336e-06
5.48062e-08
3.04827e-06
8.53261e-08
2.97315e-06
7.51231e-08
2.90432e-06
6.88354e-08
2.83949e-06
6.48282e-08
2.78227e-06
5.72204e-08
2.73337e-06
4.88983e-08
2.69185e-06
4.15226e-08
2.65641e-06
3.54373e-08
2.62589e-06
3.05195e-08
2.59932e-06
2.65699e-08
2.57589e-06
2.34243e-08
2.55493e-06
2.09638e-08
2.53576e-06
1.91743e-08
2.51773e-06
1.8024e-08
2.49909e-06
1.86406e-08
2.47858e-06
2.05144e-08
3.76262e-08
2.44095e-06
3.45361e-06
1.84442e-08
3.45616e-06
8.27725e-08
3.44962e-06
8.16672e-08
3.438e-06
8.0456e-08
3.42351e-06
7.93156e-08
3.40597e-06
7.476e-08
3.38634e-06
6.85263e-08
3.36544e-06
6.24246e-08
3.34404e-06
5.68422e-08
3.32274e-06
5.18213e-08
3.30194e-06
4.73696e-08
3.28186e-06
4.34968e-08
3.26263e-06
4.01955e-08
3.24423e-06
3.75752e-08
3.22671e-06
3.55485e-08
3.2099e-06
3.54467e-08
3.19471e-06
3.57042e-08
4.58336e-08
3.1865e-06
3.66535e-06
1.56073e-08
3.67825e-06
6.98729e-08
3.68531e-06
7.46055e-08
3.6896e-06
7.61731e-08
3.69127e-06
7.7641e-08
3.69014e-06
7.58907e-08
3.68669e-06
7.19765e-08
3.6815e-06
6.76185e-08
3.67499e-06
6.33532e-08
3.66751e-06
5.92997e-08
3.65934e-06
5.55343e-08
3.65071e-06
5.21351e-08
3.64174e-06
4.91569e-08
3.63257e-06
4.67484e-08
3.62319e-06
4.49334e-08
3.61402e-06
4.46121e-08
3.60474e-06
4.49833e-08
4.9556e-08
3.60102e-06
3.92465e-06
1.63465e-08
3.9358e-06
5.87206e-08
3.94255e-06
6.78608e-08
3.94802e-06
7.06958e-08
3.95244e-06
7.32277e-08
3.95536e-06
7.29689e-08
3.95691e-06
7.04218e-08
3.9574e-06
6.71339e-08
3.957e-06
6.37503e-08
3.95587e-06
6.04302e-08
3.95414e-06
5.72674e-08
3.95191e-06
5.43622e-08
3.94927e-06
5.17974e-08
3.9463e-06
4.97155e-08
3.94304e-06
4.81936e-08
3.93992e-06
4.77316e-08
3.93695e-06
4.79578e-08
4.98171e-08
3.93669e-06
4.20777e-06
1.5706e-08
4.216e-06
5.0488e-08
4.22167e-06
6.21957e-08
4.2266e-06
6.57621e-08
4.2313e-06
6.85269e-08
4.23526e-06
6.90099e-08
4.23836e-06
6.73237e-08
4.24073e-06
6.47612e-08
4.24249e-06
6.19928e-08
4.24371e-06
5.92025e-08
4.24449e-06
5.64912e-08
4.24489e-06
5.39678e-08
4.24496e-06
5.17262e-08
4.24478e-06
4.98877e-08
4.24445e-06
4.85303e-08
4.24428e-06
4.78969e-08
4.24447e-06
4.77669e-08
4.8178e-08
4.24611e-06
4.51044e-06
1.4353e-08
4.51686e-06
4.40646e-08
4.52218e-06
5.6883e-08
4.52684e-06
6.11008e-08
4.53145e-06
6.39115e-08
4.53565e-06
6.48163e-08
4.53923e-06
6.37367e-08
4.54228e-06
6.17138e-08
4.54487e-06
5.9404e-08
4.54706e-06
5.70149e-08
4.5489e-06
5.46529e-08
4.55044e-06
5.24276e-08
4.55173e-06
5.04324e-08
4.55285e-06
4.87624e-08
4.55391e-06
4.74736e-08
4.55515e-06
4.6658e-08
4.55678e-06
4.61374e-08
4.56759e-08
4.55928e-06
4.83412e-06
1.29517e-08
4.83958e-06
3.86045e-08
4.84483e-06
5.16297e-08
4.84943e-06
5.65086e-08
4.85394e-06
5.93994e-08
4.85817e-06
6.05847e-08
4.86194e-06
5.99684e-08
4.86528e-06
5.83756e-08
4.86825e-06
5.643e-08
4.8709e-06
5.43609e-08
4.87328e-06
5.22803e-08
4.87541e-06
5.02931e-08
4.87736e-06
4.84856e-08
4.87919e-06
4.69283e-08
4.88102e-06
4.56506e-08
4.88301e-06
4.46611e-08
4.88535e-06
4.38001e-08
4.28034e-08
4.88822e-06
5.1809e-06
1.16315e-08
5.18571e-06
3.37987e-08
5.19084e-06
4.64939e-08
5.19542e-06
5.19276e-08
5.19989e-06
5.49333e-08
5.20415e-06
5.63218e-08
5.20804e-06
5.60816e-08
5.21156e-06
5.4857e-08
5.21477e-06
5.32221e-08
5.2177e-06
5.14238e-08
5.2204e-06
4.95795e-08
5.22291e-06
4.77878e-08
5.22527e-06
4.61254e-08
5.22756e-06
4.46423e-08
5.22986e-06
4.3347e-08
5.23231e-06
4.22075e-08
5.23503e-06
4.10853e-08
3.97675e-08
5.23806e-06
5.5526e-06
1.0368e-08
5.55685e-06
2.95479e-08
5.56177e-06
4.15748e-08
5.56634e-06
4.73584e-08
5.5708e-06
5.04742e-08
5.57511e-06
5.20111e-08
5.57911e-06
5.20818e-08
5.58278e-06
5.1184e-08
5.58618e-06
4.98277e-08
5.58933e-06
4.82692e-08
5.59228e-06
4.66315e-08
5.59506e-06
4.50063e-08
5.59773e-06
4.34606e-08
5.60034e-06
4.20302e-08
5.60297e-06
4.07103e-08
5.60573e-06
3.94555e-08
5.60866e-06
3.81537e-08
3.66573e-08
5.61177e-06
5.95099e-06
9.15776e-09
5.95476e-06
2.57749e-08
5.95942e-06
3.69177e-08
5.96395e-06
4.2822e-08
5.96841e-06
4.60145e-08
5.97277e-06
4.76541e-08
5.97688e-06
4.79738e-08
5.9807e-06
4.73632e-08
5.98427e-06
4.62597e-08
5.98762e-06
4.49185e-08
5.99078e-06
4.34666e-08
5.9938e-06
4.19889e-08
5.99672e-06
4.0544e-08
5.99959e-06
3.91585e-08
6.00247e-06
3.7823e-08
6.00544e-06
3.64937e-08
6.0085e-06
3.50865e-08
3.35109e-08
6.01165e-06
6.37796e-06
8.0144e-09
6.38133e-06
2.24023e-08
6.38571e-06
3.25315e-08
6.39019e-06
3.83432e-08
6.39465e-06
4.15601e-08
6.39904e-06
4.32609e-08
6.40325e-06
4.37679e-08
6.40721e-06
4.34002e-08
6.41095e-06
4.25233e-08
6.41448e-06
4.13796e-08
6.41785e-06
4.00969e-08
6.42109e-06
3.87542e-08
6.42423e-06
3.74033e-08
6.42732e-06
3.60659e-08
6.43041e-06
3.47337e-08
6.43353e-06
3.33725e-08
6.4367e-06
3.19241e-08
3.03411e-08
6.43987e-06
5.74175e-06
7.09958e-09
5.74433e-06
1.9817e-08
5.74783e-06
2.9031e-08
5.75156e-06
3.46165e-08
5.75532e-06
3.78033e-08
5.75905e-06
3.95272e-08
5.76267e-06
4.01469e-08
5.76613e-06
3.9947e-08
5.76941e-06
3.92396e-08
5.77254e-06
3.82482e-08
5.77554e-06
3.70975e-08
5.77843e-06
3.58625e-08
5.78125e-06
3.45903e-08
5.78401e-06
3.33014e-08
5.78675e-06
3.19907e-08
5.78949e-06
3.06341e-08
5.79222e-06
2.91919e-08
2.76448e-08
5.79492e-06
6.99913e-06
6.12194e-09
7.00187e-06
1.70827e-08
7.00566e-06
2.52432e-08
7.00982e-06
3.04497e-08
7.0141e-06
3.35233e-08
7.0184e-06
3.52282e-08
7.02262e-06
3.59302e-08
7.02668e-06
3.5882e-08
7.03058e-06
3.53414e-08
7.03432e-06
3.45064e-08
7.03792e-06
3.34955e-08
7.04141e-06
3.23787e-08
7.0448e-06
3.11993e-08
7.04812e-06
2.99776e-08
7.0514e-06
2.87142e-08
7.05464e-06
2.73961e-08
7.05783e-06
2.60009e-08
2.45308e-08
7.06094e-06
8.53188e-06
5.09071e-09
8.53474e-06
1.42258e-08
8.53878e-06
2.11952e-08
8.54338e-06
2.58489e-08
8.54821e-06
2.86973e-08
8.55312e-06
3.03203e-08
8.55799e-06
3.10571e-08
8.56274e-06
3.11291e-08
8.56734e-06
3.07418e-08
8.57179e-06
3.00617e-08
8.57609e-06
2.91963e-08
8.58026e-06
2.821e-08
8.58431e-06
2.71424e-08
8.58828e-06
2.60148e-08
8.59216e-06
2.48337e-08
8.59595e-06
2.35972e-08
8.59966e-06
2.22966e-08
2.09484e-08
8.60324e-06
1.04003e-05
4.01643e-09
1.04033e-05
1.12639e-08
1.04075e-05
1.69055e-08
1.04126e-05
2.08204e-08
1.0418e-05
2.33037e-08
1.04235e-05
2.47579e-08
1.04291e-05
2.54646e-08
1.04346e-05
2.56092e-08
1.044e-05
2.53494e-08
1.04453e-05
2.48161e-08
1.04504e-05
2.41003e-08
1.04553e-05
2.3259e-08
1.04601e-05
2.2328e-08
1.04648e-05
2.13292e-08
1.04694e-05
2.0274e-08
1.04738e-05
1.91686e-08
1.04781e-05
1.80141e-08
1.68348e-08
1.04822e-05
1.26779e-05
2.90475e-09
1.2681e-05
8.18871e-09
1.26855e-05
1.23658e-08
1.2691e-05
1.5353e-08
1.2697e-05
1.73079e-08
1.27033e-05
1.84814e-08
1.27096e-05
1.90761e-08
1.2716e-05
1.92327e-08
1.27223e-05
1.90638e-08
1.27285e-05
1.86634e-08
1.27345e-05
1.81009e-08
1.27403e-05
1.74225e-08
1.2746e-05
1.66586e-08
1.27515e-05
1.58298e-08
1.27568e-05
1.49498e-08
1.27619e-05
1.40291e-08
1.27669e-05
1.30738e-08
1.21102e-08
1.27716e-05
1.54543e-05
1.74462e-09
1.54576e-05
4.94948e-09
1.54624e-05
7.50913e-09
1.54684e-05
9.37679e-09
1.54751e-05
1.06267e-08
1.54822e-05
1.13885e-08
1.54895e-05
1.17776e-08
1.54968e-05
1.18791e-08
1.55041e-05
1.17602e-08
1.55113e-05
1.14774e-08
1.55184e-05
1.10742e-08
1.55252e-05
1.05814e-08
1.55318e-05
1.0021e-08
1.55383e-05
9.40867e-09
1.55444e-05
8.75684e-09
1.55504e-05
8.07603e-09
1.55561e-05
7.3732e-09
6.67246e-09
1.55615e-05
1.88389e-05
4.94664e-10
1.88424e-05
1.41535e-09
1.88478e-05
2.14972e-09
1.88545e-05
2.68702e-09
1.8862e-05
3.04887e-09
1.88702e-05
3.26461e-09
1.88786e-05
3.35673e-09
1.88871e-05
3.34393e-09
1.88956e-05
3.24445e-09
1.8904e-05
3.07468e-09
1.89123e-05
2.84774e-09
1.89203e-05
2.57401e-09
1.8928e-05
2.26216e-09
1.89355e-05
1.91975e-09
1.89427e-05
1.55359e-09
1.89496e-05
1.17055e-09
1.89562e-05
7.75203e-10
3.86599e-10
1.89625e-05
2.29648e-05
-9.5195e-10
2.29689e-05
-2.71483e-09
2.29752e-05
-4.149e-09
2.29831e-05
-5.21185e-09
2.29921e-05
-5.92027e-09
2.30017e-05
-6.36099e-09
2.30117e-05
-6.62734e-09
2.30218e-05
-6.77799e-09
2.30319e-05
-6.84969e-09
2.30419e-05
-6.87358e-09
2.30516e-05
-6.87479e-09
2.3061e-05
-6.86931e-09
2.30701e-05
-6.8658e-09
2.30789e-05
-6.86873e-09
2.30874e-05
-6.88001e-09
2.30954e-05
-6.89926e-09
2.31031e-05
-6.92626e-09
-6.94888e-09
2.31105e-05
1.68118e-05
-2.09653e-09
1.68151e-05
-5.94722e-09
1.682e-05
-9.07333e-09
1.68261e-05
-1.13308e-08
1.6833e-05
-1.27686e-08
1.68402e-05
-1.36208e-08
1.68477e-05
-1.40914e-08
1.68552e-05
-1.42887e-08
1.68626e-05
-1.42874e-08
1.68699e-05
-1.41582e-08
1.6877e-05
-1.39559e-08
1.68839e-05
-1.37147e-08
1.68904e-05
-1.34549e-08
1.68968e-05
-1.31898e-08
1.69028e-05
-1.29276e-08
1.69086e-05
-1.2672e-08
1.69141e-05
-1.24256e-08
-1.21804e-08
1.69193e-05
1.46357e-05
-3.20453e-09
1.46388e-05
-9.10409e-09
1.46437e-05
-1.38935e-08
1.46495e-05
-1.72073e-08
1.4656e-05
-1.91918e-08
1.46627e-05
-2.03219e-08
1.46695e-05
-2.08996e-08
1.46762e-05
-2.10593e-08
1.46829e-05
-2.09207e-08
1.46893e-05
-2.06001e-08
1.46955e-05
-2.01766e-08
1.47015e-05
-1.96955e-08
1.47072e-05
-1.91856e-08
1.47127e-05
-1.86668e-08
1.47179e-05
-1.81521e-08
1.47229e-05
-1.76479e-08
1.47277e-05
-1.71583e-08
-1.6678e-08
1.47321e-05
1.27412e-05
-4.25196e-09
1.27444e-05
-1.23122e-08
1.27493e-05
-1.8847e-08
1.27551e-05
-2.29958e-08
1.27612e-05
-2.52985e-08
1.27675e-05
-2.65999e-08
1.27738e-05
-2.72044e-08
1.278e-05
-2.72387e-08
1.2786e-05
-2.68944e-08
1.27917e-05
-2.63428e-08
1.27972e-05
-2.56789e-08
1.28025e-05
-2.49521e-08
1.28075e-05
-2.41967e-08
1.28123e-05
-2.34374e-08
1.28168e-05
-2.26892e-08
1.28211e-05
-2.19595e-08
1.28252e-05
-2.12523e-08
-2.05636e-08
1.28291e-05
1.10918e-05
-5.12836e-09
1.10951e-05
-1.56316e-08
1.11004e-05
-2.41383e-08
1.11062e-05
-2.87715e-08
1.1112e-05
-3.1132e-08
1.11179e-05
-3.25095e-08
1.11238e-05
-3.3052e-08
1.11294e-05
-3.28787e-08
1.11348e-05
-3.22813e-08
1.11399e-05
-3.1476e-08
1.11448e-05
-3.05601e-08
1.11495e-05
-2.95848e-08
1.11538e-05
-2.85897e-08
1.1158e-05
-2.76023e-08
1.1162e-05
-2.66375e-08
1.11657e-05
-2.57022e-08
1.11693e-05
-2.47994e-08
-2.39259e-08
1.11726e-05
9.65583e-06
-5.74157e-09
9.65935e-06
-1.91532e-08
9.66495e-06
-2.97351e-08
9.67062e-06
-3.44487e-08
9.67625e-06
-3.67631e-08
9.68188e-06
-3.81356e-08
9.6873e-06
-3.8475e-08
9.69243e-06
-3.80009e-08
9.69726e-06
-3.71206e-08
9.70185e-06
-3.60565e-08
9.70617e-06
-3.48885e-08
9.71026e-06
-3.3668e-08
9.71411e-06
-3.24397e-08
9.71774e-06
-3.12329e-08
9.72116e-06
-3.0062e-08
9.72439e-06
-2.89327e-08
9.72744e-06
-2.78462e-08
-2.67979e-08
9.73031e-06
8.40543e-06
-5.82074e-09
8.4098e-06
-2.35252e-08
8.4153e-06
-3.52337e-08
8.42049e-06
-3.96326e-08
8.42591e-06
-4.21853e-08
8.43137e-06
-4.35973e-08
8.43651e-06
-4.36143e-08
8.44126e-06
-4.27478e-08
8.44567e-06
-4.1534e-08
8.44979e-06
-4.01728e-08
8.45362e-06
-3.87216e-08
8.45718e-06
-3.72323e-08
8.4605e-06
-3.57528e-08
8.46358e-06
-3.43121e-08
8.46644e-06
-3.29237e-08
8.4691e-06
-3.15936e-08
8.47157e-06
-3.03224e-08
-2.91065e-08
8.47388e-06
7.31506e-06
-3.59271e-09
7.32194e-06
-3.04074e-08
7.32738e-06
-4.06792e-08
7.33215e-06
-4.43944e-08
7.33745e-06
-4.74893e-08
7.34281e-06
-4.8962e-08
7.34777e-06
-4.8565e-08
7.35223e-06
-4.72165e-08
7.35626e-06
-4.55635e-08
7.35988e-06
-4.37845e-08
7.36309e-06
-4.19386e-08
7.36595e-06
-4.00889e-08
7.36848e-06
-3.82851e-08
7.37072e-06
-3.65531e-08
7.3727e-06
-3.49046e-08
7.37445e-06
-3.33441e-08
7.376e-06
-3.18689e-08
-3.04725e-08
7.37737e-06
6.36222e-06
4.25363e-09
6.37294e-06
-4.11295e-08
6.38006e-06
-4.78015e-08
6.38624e-06
-5.05684e-08
6.3922e-06
-5.34504e-08
6.39748e-06
-5.42398e-08
6.40182e-06
-5.29124e-08
6.40539e-06
-5.07803e-08
6.40828e-06
-4.84573e-08
6.41055e-06
-4.60557e-08
6.41226e-06
-4.36432e-08
6.41347e-06
-4.12975e-08
6.41425e-06
-3.9067e-08
6.41467e-06
-3.69714e-08
6.41478e-06
-3.50173e-08
6.41464e-06
-3.32058e-08
6.4143e-06
-3.15286e-08
-2.99654e-08
6.41379e-06
5.53608e-06
1.3639e-08
5.54775e-06
-5.2801e-08
5.55743e-06
-5.74839e-08
5.566e-06
-5.9132e-08
5.57276e-06
-6.02102e-08
5.57717e-06
-5.86519e-08
5.57931e-06
-5.50487e-08
5.57973e-06
-5.12029e-08
5.57886e-06
-4.75889e-08
5.57698e-06
-4.41784e-08
5.57432e-06
-4.09788e-08
5.57105e-06
-3.80278e-08
5.56732e-06
-3.53389e-08
5.56325e-06
-3.29037e-08
5.55894e-06
-3.07079e-08
5.55449e-06
-2.87485e-08
5.54997e-06
-2.70163e-08
-2.54506e-08
5.54546e-06
4.85751e-06
-1.62615e-08
4.86091e-06
-5.62011e-08
4.8615e-06
-5.80741e-08
4.85883e-06
-5.64602e-08
4.85481e-06
-5.61984e-08
4.84811e-06
-5.19502e-08
4.83885e-06
-4.57877e-08
4.82759e-06
-3.99427e-08
4.81497e-06
-3.49693e-08
4.80158e-06
-3.07902e-08
4.78787e-06
-2.72694e-08
4.77415e-06
-2.43039e-08
4.76061e-06
-2.18027e-08
4.7474e-06
-1.96869e-08
4.73458e-06
-1.78933e-08
4.72225e-06
-1.64121e-08
4.7105e-06
-1.52699e-08
-1.49595e-08
4.70001e-06
4.18641e-06
4.13021e-06
4.07214e-06
4.01568e-06
3.95948e-06
3.90753e-06
3.86174e-06
3.8218e-06
3.78683e-06
3.75604e-06
3.72877e-06
3.70447e-06
3.68266e-06
3.66298e-06
3.64508e-06
3.62867e-06
3.6134e-06
3.59844e-06
9.16861e-09
-9.16861e-09
1.99954e-08
-1.08268e-08
2.79876e-08
-7.99215e-09
3.19139e-08
-3.92634e-09
3.14654e-08
4.48491e-10
2.71562e-08
4.30924e-09
1.9653e-08
7.50316e-09
9.67758e-09
9.97545e-09
-2.17382e-09
1.18514e-08
-1.54862e-08
1.33124e-08
-3.00006e-08
1.45145e-08
-4.55605e-08
1.55598e-08
-6.20751e-08
1.65147e-08
-7.94915e-08
1.74164e-08
-9.7776e-08
1.82845e-08
-1.16904e-07
1.9128e-08
-1.36855e-07
1.99506e-08
-1.57608e-07
2.07532e-08
-1.79144e-07
2.1536e-08
-2.01443e-07
2.22994e-08
-2.24488e-07
2.30446e-08
-2.48261e-07
2.37734e-08
-2.72749e-07
2.44877e-08
-2.97936e-07
2.51871e-08
-3.23804e-07
2.5868e-08
-3.50325e-07
2.65215e-08
-3.77458e-07
2.71326e-08
-4.05134e-07
2.76756e-08
-4.3324e-07
2.81065e-08
-4.61593e-07
2.83532e-08
-4.89923e-07
2.833e-08
-5.17951e-07
2.80274e-08
-5.45664e-07
2.77133e-08
-5.73949e-07
2.82844e-08
-6.06908e-07
3.29596e-08
-6.43192e-07
3.62841e-08
-6.75927e-07
3.27346e-08
-7.08609e-07
3.26817e-08
-7.45726e-07
3.71176e-08
-7.90864e-07
4.51376e-08
-8.33056e-07
4.21925e-08
-8.69015e-07
3.59589e-08
-9.15988e-07
4.69729e-08
-9.60593e-07
4.46047e-08
-9.98149e-07
3.75566e-08
-1.03956e-06
4.14063e-08
-1.08261e-06
4.30528e-08
-1.12661e-06
4.40053e-08
-1.17119e-06
4.45734e-08
-1.21607e-06
4.4879e-08
-1.26108e-06
4.50147e-08
-1.30612e-06
4.50349e-08
-1.35109e-06
4.4973e-08
-1.39594e-06
4.48498e-08
-1.44062e-06
4.46786e-08
-1.48508e-06
4.44675e-08
-1.52931e-06
4.42217e-08
-1.57325e-06
4.39439e-08
-1.61689e-06
4.36357e-08
-1.66018e-06
4.32975e-08
-1.70311e-06
4.29292e-08
-1.74564e-06
4.25302e-08
-1.78774e-06
4.20995e-08
-1.82938e-06
4.1636e-08
-1.87052e-06
4.11388e-08
-1.91112e-06
4.06066e-08
-1.95116e-06
4.00384e-08
-1.9906e-06
3.94332e-08
-2.02939e-06
3.87903e-08
-2.06749e-06
3.81087e-08
-2.10488e-06
3.73881e-08
-2.14151e-06
3.66281e-08
-2.17734e-06
3.58283e-08
-2.21233e-06
3.49888e-08
-2.24644e-06
3.41096e-08
-2.27963e-06
3.3191e-08
-2.31186e-06
3.22334e-08
-2.3431e-06
3.12371e-08
-2.3733e-06
3.02029e-08
-2.40243e-06
2.91314e-08
-2.43046e-06
2.80233e-08
-2.45734e-06
2.68794e-08
-2.48304e-06
2.57006e-08
-2.50752e-06
2.44874e-08
-2.53076e-06
2.32406e-08
-2.55273e-06
2.19607e-08
-2.57337e-06
2.0648e-08
-2.59268e-06
1.93024e-08
-2.6106e-06
1.79236e-08
-2.62711e-06
1.65107e-08
-2.64217e-06
1.5062e-08
-2.65575e-06
1.35748e-08
-2.66779e-06
1.20456e-08
-2.67826e-06
1.04677e-08
-2.68709e-06
8.83261e-09
-2.69422e-06
7.12851e-09
-2.69956e-06
5.33833e-09
-2.70301e-06
3.45103e-09
-2.70448e-06
1.46982e-09
-2.70395e-06
-5.3456e-10
-2.70175e-06
-2.19643e-09
-2.69796e-06
-3.78761e-09
-2.69261e-06
-5.3488e-09
-2.68571e-06
-6.90261e-09
-2.67725e-06
-8.46067e-09
-2.66722e-06
-1.0025e-08
-2.65563e-06
-1.15951e-08
-2.64246e-06
-1.31693e-08
-2.62771e-06
-1.47457e-08
-2.61139e-06
-1.63223e-08
-2.5935e-06
-1.78968e-08
-2.57403e-06
-1.94672e-08
-2.553e-06
-2.10314e-08
-2.53041e-06
-2.25872e-08
-2.50628e-06
-2.41325e-08
-2.48061e-06
-2.56654e-08
-2.45343e-06
-2.71837e-08
-2.42474e-06
-2.86853e-08
-2.39457e-06
-3.01682e-08
-2.36294e-06
-3.16303e-08
-2.32987e-06
-3.30697e-08
-2.29539e-06
-3.44844e-08
-2.25952e-06
-3.58725e-08
-2.22229e-06
-3.72323e-08
-2.18372e-06
-3.85619e-08
-2.14386e-06
-3.98597e-08
-2.10274e-06
-4.1124e-08
-2.06039e-06
-4.23532e-08
-2.01684e-06
-4.35457e-08
-1.97214e-06
-4.46999e-08
-1.92633e-06
-4.58144e-08
-1.87944e-06
-4.68879e-08
-1.83152e-06
-4.79193e-08
-1.78261e-06
-4.89075e-08
-1.73276e-06
-4.98514e-08
-1.68201e-06
-5.07503e-08
-1.63041e-06
-5.1603e-08
-1.578e-06
-5.2409e-08
-1.52483e-06
-5.31677e-08
-1.47095e-06
-5.38788e-08
-1.41641e-06
-5.4542e-08
-1.36125e-06
-5.51572e-08
-1.30553e-06
-5.57242e-08
-1.24929e-06
-5.62431e-08
-1.19257e-06
-5.67145e-08
-1.13543e-06
-5.71388e-08
-1.07792e-06
-5.75165e-08
-1.02007e-06
-5.78483e-08
-9.61932e-07
-5.81354e-08
-9.03553e-07
-5.83788e-08
-8.44973e-07
-5.85799e-08
-7.86233e-07
-5.874e-08
-7.27372e-07
-5.88607e-08
-6.68428e-07
-5.89439e-08
-6.09437e-07
-5.89914e-08
-5.50432e-07
-5.9005e-08
-4.91445e-07
-5.89868e-08
-4.32507e-07
-5.89385e-08
-3.73645e-07
-5.88615e-08
-3.14889e-07
-5.87566e-08
-2.56264e-07
-5.86247e-08
-1.97802e-07
-5.84618e-08
-1.39534e-07
-5.82682e-08
-8.14906e-08
-5.80434e-08
-2.37136e-08
-5.7777e-08
3.37614e-08
-5.7475e-08
9.08947e-08
-5.71333e-08
1.47686e-07
-5.67915e-08
2.04157e-07
-5.64712e-08
2.60325e-07
-5.61672e-08
3.16184e-07
-5.58599e-08
3.71707e-07
-5.5523e-08
4.26825e-07
-5.51175e-08
4.81401e-07
-5.45764e-08
5.35171e-07
-5.37695e-08
5.87602e-07
-5.24311e-08
6.37485e-07
-4.98827e-08
6.81973e-07
-4.44883e-08
7.13534e-07
-3.15607e-08
8.33868e-09
7.05195e-07
7.03637e-09
-1.6205e-08
9.69144e-09
-1.34819e-08
8.46695e-09
-6.76766e-09
4.50203e-09
3.85841e-11
-1.58781e-09
6.53833e-09
-9.67613e-09
1.23976e-08
-1.96832e-08
1.75102e-08
-3.15478e-08
2.18401e-08
-4.51503e-08
2.5454e-08
-6.03222e-08
2.84842e-08
-7.6888e-08
3.10802e-08
-9.46986e-08
3.33704e-08
-1.13637e-07
3.54528e-08
-1.33617e-07
3.73963e-08
-1.54578e-07
3.92463e-08
-1.76482e-07
4.10316e-08
-1.99302e-07
4.27702e-08
-2.23022e-07
4.44735e-08
-2.47636e-07
4.61496e-08
-2.73141e-07
4.78051e-08
-2.99543e-07
4.94465e-08
-3.2685e-07
5.10798e-08
-3.55072e-07
5.27102e-08
-3.84226e-07
5.43406e-08
-4.14328e-07
5.59707e-08
-4.45403e-07
5.75964e-08
-4.77481e-07
5.92102e-08
-5.10606e-07
6.08008e-08
-5.44853e-07
6.23535e-08
-5.80355e-07
6.3855e-08
-6.1734e-07
6.53156e-08
-6.56134e-07
6.6821e-08
-6.97023e-07
6.86022e-08
-7.39861e-07
7.11224e-08
-7.81719e-07
7.4818e-08
-8.2366e-07
7.8225e-08
-8.70409e-07
7.9483e-08
-9.18207e-07
8.04805e-08
-9.64234e-07
8.31448e-08
-1.00564e-06
8.65425e-08
-1.05033e-06
8.6886e-08
-1.1001e-06
8.57277e-08
-1.14092e-06
8.77939e-08
-1.18401e-06
8.76902e-08
-1.23237e-06
8.59228e-08
-1.27704e-06
8.60754e-08
-1.32031e-06
8.63183e-08
-1.36271e-06
8.64027e-08
-1.40448e-06
8.63449e-08
-1.44576e-06
8.61568e-08
-1.4866e-06
8.58585e-08
-1.52703e-06
8.54697e-08
-1.56707e-06
8.50057e-08
-1.60669e-06
8.44781e-08
-1.64591e-06
8.38944e-08
-1.6847e-06
8.32596e-08
-1.72306e-06
8.25762e-08
-1.76096e-06
8.18452e-08
-1.79839e-06
8.10662e-08
-1.83533e-06
8.0238e-08
-1.87176e-06
7.9359e-08
-1.90766e-06
7.8427e-08
-1.943e-06
7.74399e-08
-1.97776e-06
7.63954e-08
-2.01191e-06
7.52911e-08
-2.04543e-06
7.41252e-08
-2.07828e-06
7.28955e-08
-2.11045e-06
7.16006e-08
-2.1419e-06
7.02388e-08
-2.1726e-06
6.88092e-08
-2.20252e-06
6.73108e-08
-2.23164e-06
6.5743e-08
-2.25992e-06
6.41056e-08
-2.28732e-06
6.23985e-08
-2.31384e-06
6.06219e-08
-2.33942e-06
5.87763e-08
-2.36405e-06
5.68623e-08
-2.3877e-06
5.48808e-08
-2.41033e-06
5.28329e-08
-2.43191e-06
5.07196e-08
-2.45243e-06
4.85423e-08
-2.47186e-06
4.63021e-08
-2.49015e-06
4.40005e-08
-2.50731e-06
4.16386e-08
-2.52328e-06
3.92178e-08
-2.53806e-06
3.67389e-08
-2.55162e-06
3.42029e-08
-2.56392e-06
3.16103e-08
-2.57496e-06
2.89614e-08
-2.58471e-06
2.62561e-08
-2.59314e-06
2.34941e-08
-2.60024e-06
2.06745e-08
-2.60599e-06
1.77968e-08
-2.61038e-06
1.48604e-08
-2.61342e-06
1.18656e-08
-2.6151e-06
8.81571e-09
-2.61548e-06
5.71914e-09
-2.61463e-06
2.5976e-09
-2.61267e-06
-4.86838e-10
-2.60962e-06
-3.58832e-09
-2.60522e-06
-6.59579e-09
-2.59938e-06
-9.62564e-09
-2.59205e-06
-1.26772e-08
-2.58321e-06
-1.57473e-08
-2.57283e-06
-1.88356e-08
-2.56092e-06
-2.19396e-08
-2.54746e-06
-2.50559e-08
-2.53245e-06
-2.81807e-08
-2.51588e-06
-3.13098e-08
-2.49777e-06
-3.44391e-08
-2.4781e-06
-3.75642e-08
-2.45689e-06
-4.06809e-08
-2.43413e-06
-4.37851e-08
-2.40985e-06
-4.68725e-08
-2.38404e-06
-4.9939e-08
-2.35673e-06
-5.29806e-08
-2.32792e-06
-5.59929e-08
-2.29763e-06
-5.89721e-08
-2.26588e-06
-6.19139e-08
-2.2327e-06
-6.48144e-08
-2.1981e-06
-6.76695e-08
-2.16211e-06
-7.04754e-08
-2.12475e-06
-7.32284e-08
-2.08606e-06
-7.59247e-08
-2.04606e-06
-7.85611e-08
-2.00479e-06
-8.1134e-08
-1.96227e-06
-8.36401e-08
-1.91855e-06
-8.60763e-08
-1.87365e-06
-8.84393e-08
-1.82763e-06
-9.07261e-08
-1.78051e-06
-9.29338e-08
-1.73234e-06
-9.50599e-08
-1.68315e-06
-9.71019e-08
-1.633e-06
-9.90578e-08
-1.58193e-06
-1.00926e-07
-1.52998e-06
-1.02703e-07
-1.47719e-06
-1.0439e-07
-1.42362e-06
-1.05983e-07
-1.3693e-06
-1.07481e-07
-1.3143e-06
-1.08885e-07
-1.25864e-06
-1.10194e-07
-1.2024e-06
-1.11406e-07
-1.1456e-06
-1.12523e-07
-1.0883e-06
-1.13544e-07
-1.03054e-06
-1.1447e-07
-9.72376e-07
-1.15303e-07
-9.1385e-07
-1.16043e-07
-8.55007e-07
-1.16691e-07
-7.95892e-07
-1.1725e-07
-7.36549e-07
-1.17723e-07
-6.77018e-07
-1.18111e-07
-6.17341e-07
-1.18417e-07
-5.57556e-07
-1.18645e-07
-4.97701e-07
-1.18799e-07
-4.37811e-07
-1.18882e-07
-3.77919e-07
-1.18897e-07
-3.18056e-07
-1.18849e-07
-2.58253e-07
-1.18742e-07
-1.98536e-07
-1.18578e-07
-1.38932e-07
-1.1836e-07
-7.94669e-08
-1.1809e-07
-2.01634e-08
-1.17765e-07
3.89516e-08
-1.17383e-07
9.78519e-08
-1.16944e-07
1.5652e-07
-1.16445e-07
2.14944e-07
-1.15899e-07
2.73127e-07
-1.15316e-07
3.31065e-07
-1.1473e-07
3.88753e-07
-1.14159e-07
4.4618e-07
-1.13594e-07
5.03327e-07
-1.13007e-07
5.60153e-07
-1.1235e-07
6.16582e-07
-1.11546e-07
6.72469e-07
-1.10463e-07
7.27546e-07
-1.08847e-07
7.81322e-07
-1.06206e-07
8.3283e-07
-1.01391e-07
8.80464e-07
-9.2123e-08
9.20932e-07
-7.20287e-08
-2.50872e-08
9.54358e-07
3.45474e-10
-1.65505e-08
-4.19396e-09
-8.94246e-09
-1.12048e-08
2.4322e-10
-1.97439e-08
8.57763e-09
-2.9507e-08
1.63014e-08
-4.04531e-08
2.33437e-08
-5.26145e-08
2.96716e-08
-6.60514e-08
3.52769e-08
-8.07988e-08
4.02013e-08
-9.68456e-08
4.45311e-08
-1.14142e-07
4.83766e-08
-1.3262e-07
5.18489e-08
-1.52213e-07
5.50455e-08
-1.72861e-07
5.80446e-08
-1.9452e-07
6.09049e-08
-2.17157e-07
6.36687e-08
-2.40753e-07
6.63665e-08
-2.653e-07
6.90198e-08
-2.90796e-07
7.16454e-08
-3.17247e-07
7.42564e-08
-3.44664e-07
7.68641e-08
-3.73063e-07
7.94783e-08
-4.02459e-07
8.21064e-08
-4.32872e-07
8.47535e-08
-4.64322e-07
8.74211e-08
-4.96834e-07
9.01075e-08
-5.30432e-07
9.28086e-08
-5.6515e-07
9.55187e-08
-6.01029e-07
9.82329e-08
-6.38126e-07
1.00952e-07
-6.76503e-07
1.03693e-07
-7.1618e-07
1.06498e-07
-7.57017e-07
1.09438e-07
-7.98476e-07
1.12582e-07
-8.39477e-07
1.15819e-07
-8.79961e-07
1.18709e-07
-9.21299e-07
1.20821e-07
-9.63259e-07
1.22441e-07
-1.00413e-06
1.24015e-07
-1.0428e-06
1.25215e-07
-1.08149e-06
1.25575e-07
-1.1213e-06
1.25539e-07
-1.15918e-06
1.25669e-07
-1.19685e-06
1.25363e-07
-1.23563e-06
1.24708e-07
-1.27378e-06
1.24225e-07
-1.31125e-06
1.23784e-07
-1.34817e-06
1.23325e-07
-1.38464e-06
1.22818e-07
-1.42074e-06
1.22249e-07
-1.45649e-06
1.21613e-07
-1.49193e-06
1.20912e-07
-1.52707e-06
1.20147e-07
-1.56192e-06
1.19321e-07
-1.59646e-06
1.18435e-07
-1.63069e-06
1.1749e-07
-1.6646e-06
1.16483e-07
-1.69816e-06
1.15414e-07
-1.73138e-06
1.14279e-07
-1.76421e-06
1.13075e-07
-1.79665e-06
1.118e-07
-1.82868e-06
1.10449e-07
-1.86026e-06
1.09018e-07
-1.89136e-06
1.07505e-07
-1.92198e-06
1.05906e-07
-1.95207e-06
1.04217e-07
-1.98161e-06
1.02437e-07
-2.01057e-06
1.00562e-07
-2.03893e-06
9.85902e-08
-2.06664e-06
9.65205e-08
-2.09368e-06
9.43514e-08
-2.12002e-06
9.20821e-08
-2.14562e-06
8.9712e-08
-2.17047e-06
8.72411e-08
-2.19451e-06
8.46696e-08
-2.21774e-06
8.19981e-08
-2.2401e-06
7.92275e-08
-2.26158e-06
7.6359e-08
-2.28214e-06
7.33939e-08
-2.30175e-06
7.0334e-08
-2.32039e-06
6.71809e-08
-2.33803e-06
6.39366e-08
-2.35463e-06
6.0603e-08
-2.37017e-06
5.71822e-08
-2.38463e-06
5.36762e-08
-2.39798e-06
5.00868e-08
-2.41019e-06
4.64158e-08
-2.42125e-06
4.26651e-08
-2.43112e-06
3.8836e-08
-2.4398e-06
3.49302e-08
-2.44725e-06
3.09491e-08
-2.45347e-06
2.68945e-08
-2.45844e-06
2.27689e-08
-2.46216e-06
1.85758e-08
-2.46461e-06
1.43208e-08
-2.46581e-06
1.00118e-08
-2.46575e-06
5.66116e-09
-2.46444e-06
1.28597e-09
-2.46183e-06
-3.0925e-09
-2.45793e-06
-7.49101e-09
-2.45262e-06
-1.1908e-08
-2.44588e-06
-1.63678e-08
-2.43769e-06
-2.08691e-08
-2.42803e-06
-2.54073e-08
-2.41688e-06
-2.99768e-08
-2.40425e-06
-3.45717e-08
-2.39012e-06
-3.91858e-08
-2.37449e-06
-4.3813e-08
-2.35735e-06
-4.84469e-08
-2.33871e-06
-5.3081e-08
-2.31857e-06
-5.77093e-08
-2.29692e-06
-6.23252e-08
-2.27378e-06
-6.69225e-08
-2.24916e-06
-7.14951e-08
-2.22306e-06
-7.60368e-08
-2.1955e-06
-8.05415e-08
-2.16649e-06
-8.50031e-08
-2.13605e-06
-8.94156e-08
-2.10419e-06
-9.37728e-08
-2.07094e-06
-9.80687e-08
-2.03631e-06
-1.02297e-07
-2.00033e-06
-1.06453e-07
-1.96303e-06
-1.10531e-07
-1.92443e-06
-1.14524e-07
-1.88456e-06
-1.18428e-07
-1.84346e-06
-1.22238e-07
-1.80115e-06
-1.2595e-07
-1.75767e-06
-1.29557e-07
-1.71305e-06
-1.33056e-07
-1.66734e-06
-1.36441e-07
-1.62056e-06
-1.3971e-07
-1.57276e-06
-1.42857e-07
-1.52399e-06
-1.45879e-07
-1.47427e-06
-1.48773e-07
-1.42366e-06
-1.51537e-07
-1.3722e-06
-1.54167e-07
-1.31992e-06
-1.56661e-07
-1.26689e-06
-1.59016e-07
-1.21314e-06
-1.61231e-07
-1.15872e-06
-1.63306e-07
-1.10368e-06
-1.65238e-07
-1.04805e-06
-1.67029e-07
-9.919e-07
-1.68677e-07
-9.35261e-07
-1.70183e-07
-8.78184e-07
-1.71548e-07
-8.20713e-07
-1.72773e-07
-7.62894e-07
-1.73861e-07
-7.04771e-07
-1.74814e-07
-6.46388e-07
-1.75634e-07
-5.87785e-07
-1.76325e-07
-5.29005e-07
-1.76891e-07
-4.70086e-07
-1.77336e-07
-4.11067e-07
-1.77665e-07
-3.51983e-07
-1.77883e-07
-2.92869e-07
-1.77996e-07
-2.33757e-07
-1.78009e-07
-1.74677e-07
-1.77929e-07
-1.15658e-07
-1.77761e-07
-5.67253e-08
-1.77511e-07
2.09688e-09
-1.77182e-07
6.07842e-08
-1.76778e-07
1.19315e-07
-1.76296e-07
1.77671e-07
-1.7574e-07
2.35837e-07
-1.75109e-07
2.93807e-07
-1.74415e-07
3.51589e-07
-1.7368e-07
4.0919e-07
-1.72918e-07
4.666e-07
-1.7214e-07
5.23799e-07
-1.71357e-07
5.80765e-07
-1.7056e-07
6.37472e-07
-1.69714e-07
6.93875e-07
-1.68753e-07
7.49896e-07
-1.67567e-07
8.05397e-07
-1.65964e-07
8.60144e-07
-1.63594e-07
9.13735e-07
-1.59798e-07
9.65542e-07
-1.53197e-07
1.01467e-06
-1.41247e-07
1.0606e-06
-1.17961e-07
-7.19807e-08
1.10749e-06
-5.92411e-09
-1.06263e-08
-1.56647e-08
7.98118e-10
-2.65865e-08
1.11651e-08
-3.83735e-08
2.03646e-08
-5.08611e-08
2.8789e-08
-6.40697e-08
3.65523e-08
-7.80751e-08
4.3677e-08
-9.29703e-08
5.01722e-08
-1.08836e-07
5.60669e-08
-1.25723e-07
6.14181e-08
-1.4365e-07
6.63035e-08
-1.6261e-07
7.08093e-08
-1.82584e-07
7.50191e-08
-2.03546e-07
7.90062e-08
-2.25472e-07
8.2831e-08
-2.48344e-07
8.6541e-08
-2.7215e-07
9.01724e-08
-2.96883e-07
9.37528e-08
-3.22541e-07
9.73035e-08
-3.49125e-07
1.00841e-07
-3.76638e-07
1.04377e-07
-4.05081e-07
1.07921e-07
-4.34453e-07
1.11479e-07
-4.6475e-07
1.1505e-07
-4.95962e-07
1.18633e-07
-5.28072e-07
1.22218e-07
-5.61058e-07
1.25794e-07
-5.94883e-07
1.29344e-07
-6.29503e-07
1.32853e-07
-6.64854e-07
1.36303e-07
-7.00844e-07
1.39683e-07
-7.37328e-07
1.42981e-07
-7.7407e-07
1.46181e-07
-8.10728e-07
1.4924e-07
-8.46963e-07
1.52053e-07
-8.82701e-07
1.54448e-07
-9.18183e-07
1.56303e-07
-9.53441e-07
1.57698e-07
-9.88165e-07
1.58739e-07
-1.02229e-06
1.59337e-07
-1.05618e-06
1.59465e-07
-1.09e-06
1.59366e-07
-1.12348e-06
1.59144e-07
-1.15679e-06
1.58673e-07
-1.19012e-06
1.58038e-07
-1.22327e-06
1.57379e-07
-1.25619e-06
1.56702e-07
-1.28887e-06
1.55999e-07
-1.32131e-06
1.55259e-07
-1.35353e-06
1.54471e-07
-1.38554e-06
1.53629e-07
-1.41736e-06
1.52728e-07
-1.44898e-06
1.51766e-07
-1.4804e-06
1.50738e-07
-1.5116e-06
1.49643e-07
-1.54259e-06
1.48475e-07
-1.57334e-06
1.47232e-07
-1.60384e-06
1.45909e-07
-1.63406e-06
1.44501e-07
-1.66398e-06
1.43002e-07
-1.69359e-06
1.41409e-07
-1.72286e-06
1.39715e-07
-1.75176e-06
1.37916e-07
-1.78026e-06
1.36008e-07
-1.80834e-06
1.33985e-07
-1.83597e-06
1.31844e-07
-1.86311e-06
1.29581e-07
-1.88974e-06
1.27194e-07
-1.91583e-06
1.24679e-07
-1.94135e-06
1.22035e-07
-1.96625e-06
1.19259e-07
-1.99052e-06
1.16352e-07
-2.01412e-06
1.13312e-07
-2.03702e-06
1.10139e-07
-2.05918e-06
1.06833e-07
-2.08058e-06
1.03396e-07
-2.10118e-06
9.98283e-08
-2.12095e-06
9.61316e-08
-2.13987e-06
9.23079e-08
-2.15789e-06
8.83592e-08
-2.175e-06
8.4288e-08
-2.19116e-06
8.00968e-08
-2.20635e-06
7.57884e-08
-2.22053e-06
7.13658e-08
-2.23369e-06
6.68316e-08
-2.24579e-06
6.21889e-08
-2.25681e-06
5.74404e-08
-2.26674e-06
5.25893e-08
-2.27554e-06
4.7638e-08
-2.2832e-06
4.25898e-08
-2.2897e-06
3.74475e-08
-2.29502e-06
3.22147e-08
-2.29914e-06
2.68955e-08
-2.30206e-06
2.1495e-08
-2.30376e-06
1.60199e-08
-2.30423e-06
1.04779e-08
-2.30344e-06
4.87852e-09
-2.30139e-06
-7.6848e-10
-2.29803e-06
-6.45645e-09
-2.29333e-06
-1.21909e-08
-2.28726e-06
-1.79794e-08
-2.27979e-06
-2.3829e-08
-2.27093e-06
-2.97357e-08
-2.26064e-06
-3.56927e-08
-2.24893e-06
-4.16923e-08
-2.23577e-06
-4.77262e-08
-2.22117e-06
-5.37861e-08
-2.20512e-06
-5.98633e-08
-2.18762e-06
-6.59496e-08
-2.16866e-06
-7.20366e-08
-2.14826e-06
-7.81158e-08
-2.1264e-06
-8.4179e-08
-2.10311e-06
-9.02179e-08
-2.07838e-06
-9.62244e-08
-2.05222e-06
-1.0219e-07
-2.02466e-06
-1.08108e-07
-1.99569e-06
-1.13969e-07
-1.96534e-06
-1.19765e-07