/*--------------------------------*- C++ -*----------------------------------*\
  =========                 |
  \\      /  F ield         | OpenFOAM: The Open Source CFD Toolbox
   \\    /   O peration     | Website:  https://openfoam.org
    \\  /    A nd           | Version:  9
     \\/     M anipulation  |
\*---------------------------------------------------------------------------*/
FoamFile
{
    format      ascii;
    class       volVectorField;
    location    "0.28";
    object      U;
}
// * * * * * * * * * * * * * * * * * * * * * * * * * * * * * * * * * * * * * //

dimensions      [0 1 -1 0 0 0 0];

internalField   nonuniform List<vector> 
12225
(
(9.86107 -0.874318 0)
(9.67248 -0.700192 0)
(9.45897 -0.387593 0)
(9.22467 -0.188479 0)
(9.00349 -0.0843948 0)
(8.81041 -0.0328774 0)
(8.64513 -0.00755274 0)
(8.50414 0.00502217 0)
(8.38397 0.0113333 0)
(8.28111 0.0144686 0)
(8.19215 0.0159627 0)
(8.11424 0.0166309 0)
(8.04499 0.0169156 0)
(7.98257 0.0171082 0)
(7.92409 0.0174007 0)
(7.87052 0.0184976 0)
(7.8013 0.0214583 0)
(7.77503 0.0298287 0)
(10.0547 0.263069 0)
(10.1201 0.36074 0)
(10.118 0.27382 0)
(10.0826 0.187085 0)
(10.0405 0.131159 0)
(9.99393 0.0969234 0)
(9.94013 0.0755527 0)
(9.88041 0.0617442 0)
(9.81785 0.0523371 0)
(9.75494 0.0455184 0)
(9.69311 0.0403447 0)
(9.63319 0.0363551 0)
(9.57556 0.0332932 0)
(9.5206 0.031139 0)
(9.46753 0.029726 0)
(9.4188 0.0308121 0)
(9.36748 0.0318748 0)
(9.34223 0.0521581 0)
(9.99919 0.0460864 0)
(10.0244 0.0342081 0)
(10.0538 0.0149474 0)
(10.0708 0.0218069 0)
(10.0778 0.0366674 0)
(10.0783 0.0460022 0)
(10.0722 0.0499408 0)
(10.0603 0.0511298 0)
(10.0439 0.0510338 0)
(10.0246 0.0503142 0)
(10.0031 0.0493419 0)
(9.98005 0.0483628 0)
(9.95592 0.0475263 0)
(9.93115 0.0470651 0)
(9.9057 0.0470514 0)
(9.88059 0.0488122 0)
(9.85508 0.0515244 0)
(9.8352 0.0628146 0)
(9.9968 0.00642729 0)
(10.0085 0.0250163 0)
(10.0342 0.0389343 0)
(10.0528 0.0502969 0)
(10.0644 0.0570999 0)
(10.0731 0.0591535 0)
(10.079 0.0588386 0)
(10.0817 0.0579151 0)
(10.0816 0.0569045 0)
(10.0795 0.0558821 0)
(10.0758 0.0549003 0)
(10.0707 0.0540454 0)
(10.0645 0.053407 0)
(10.0573 0.0531774 0)
(10.0494 0.0534889 0)
(10.0412 0.0552108 0)
(10.0333 0.0580081 0)
(10.0279 0.0643573 0)
(9.99922 0.00673654 0)
(10.0081 0.0335709 0)
(10.0271 0.0460381 0)
(10.0418 0.0508372 0)
(10.0524 0.0539028 0)
(10.0622 0.055488 0)
(10.0708 0.0558308 0)
(10.0775 0.0556423 0)
(10.0823 0.0552683 0)
(10.0858 0.0547999 0)
(10.0881 0.0543112 0)
(10.0895 0.053906 0)
(10.09 0.0536933 0)
(10.0899 0.0538456 0)
(10.0892 0.0545119 0)
(10.0885 0.0561777 0)
(10.0884 0.0586545 0)
(10.09 0.062421 0)
(10.0002 0.00907285 0)
(10.0078 0.0321209 0)
(10.0225 0.0419046 0)
(10.035 0.0456555 0)
(10.0448 0.0491116 0)
(10.0542 0.051644 0)
(10.063 0.0527784 0)
(10.0705 0.053125 0)
(10.0767 0.0531591 0)
(10.0819 0.0530444 0)
(10.0864 0.0528723 0)
(10.0901 0.0527499 0)
(10.0932 0.052787 0)
(10.0959 0.0531252 0)
(10.0983 0.0538862 0)
(10.1007 0.0553075 0)
(10.1037 0.0572297 0)
(10.1081 0.0594982 0)
(10.0003 0.008799 0)
(10.0068 0.0275134 0)
(10.019 0.0370748 0)
(10.0303 0.0417288 0)
(10.0395 0.0456451 0)
(10.0482 0.0484651 0)
(10.0566 0.04987 0)
(10.0641 0.0504572 0)
(10.0706 0.0507126 0)
(10.0764 0.0508081 0)
(10.0816 0.0508298 0)
(10.0862 0.050877 0)
(10.0904 0.0510501 0)
(10.0943 0.0514573 0)
(10.098 0.0521798 0)
(10.1019 0.0533075 0)
(10.1063 0.054679 0)
(10.1116 0.0559754 0)
(10.0004 0.00783576 0)
(10.0057 0.0236897 0)
(10.016 0.0333597 0)
(10.0264 0.0385733 0)
(10.0351 0.0424633 0)
(10.0433 0.0452514 0)
(10.0512 0.0467992 0)
(10.0585 0.047572 0)
(10.0649 0.0479944 0)
(10.0708 0.0482395 0)
(10.0763 0.0483941 0)
(10.0813 0.0485492 0)
(10.086 0.0487921 0)
(10.0904 0.0492009 0)
(10.0948 0.0498187 0)
(10.0993 0.0506523 0)
(10.1043 0.0515413 0)
(10.1098 0.0521782 0)
(10.0004 0.00694955 0)
(10.0049 0.020702 0)
(10.0136 0.0300246 0)
(10.023 0.0353853 0)
(10.0312 0.0391641 0)
(10.0389 0.041918 0)
(10.0464 0.0436011 0)
(10.0534 0.0445385 0)
(10.0598 0.0450944 0)
(10.0657 0.04545 0)
(10.0711 0.0456965 0)
(10.0763 0.0459161 0)
(10.0812 0.0461819 0)
(10.0859 0.0465468 0)
(10.0906 0.0470255 0)
(10.0954 0.0475837 0)
(10.1005 0.0480754 0)
(10.106 0.0482617 0)
(10.0004 0.0061626 0)
(10.0042 0.018116 0)
(10.0116 0.0267863 0)
(10.0199 0.0321212 0)
(10.0277 0.0358235 0)
(10.035 0.0385461 0)
(10.0421 0.0403216 0)
(10.0488 0.0413835 0)
(10.055 0.0420411 0)
(10.0608 0.0424772 0)
(10.0663 0.0427852 0)
(10.0715 0.0430376 0)
(10.0764 0.0432936 0)
(10.0813 0.0435878 0)
(10.0861 0.0439172 0)
(10.091 0.0442328 0)
(10.096 0.0444126 0)
(10.1013 0.0442918 0)
(10.0003 0.00542564 0)
(10.0036 0.0157929 0)
(10.0099 0.0236994 0)
(10.0173 0.0288906 0)
(10.0245 0.032501 0)
(10.0314 0.0351564 0)
(10.0381 0.0369653 0)
(10.0446 0.0381077 0)
(10.0506 0.0388384 0)
(10.0563 0.0393301 0)
(10.0617 0.0396752 0)
(10.0669 0.0399372 0)
(10.0719 0.040163 0)
(10.0768 0.0403749 0)
(10.0816 0.0405616 0)
(10.0864 0.0406746 0)
(10.0914 0.0406198 0)
(10.0964 0.0402938 0)
(10.0003 0.00477306 0)
(10.0031 0.0138474 0)
(10.0086 0.0210245 0)
(10.0152 0.0259824 0)
(10.0219 0.029465 0)
(10.0285 0.0320254 0)
(10.0349 0.0338199 0)
(10.041 0.0349989 0)
(10.0469 0.0357702 0)
(10.0525 0.0362913 0)
(10.0578 0.0366506 0)
(10.063 0.0369044 0)
(10.0679 0.0370907 0)
(10.0728 0.0372248 0)
(10.0776 0.0372937 0)
(10.0823 0.0372568 0)
(10.0871 0.037044 0)
(10.0919 0.0365965 0)
(10.0003 0.00416647 0)
(10.0028 0.0120799 0)
(10.0075 0.0185097 0)
(10.0134 0.0231438 0)
(10.0197 0.0264562 0)
(10.0258 0.0288976 0)
(10.0319 0.0306439 0)
(10.0378 0.0318273 0)
(10.0436 0.0326165 0)
(10.049 0.0331491 0)
(10.0543 0.033508 0)
(10.0593 0.0337433 0)
(10.0642 0.0338864 0)
(10.069 0.0339486 0)
(10.0737 0.0339184 0)
(10.0784 0.0337653 0)
(10.083 0.0334393 0)
(10.0875 0.0329142 0)
(10.0003 0.0035345 0)
(10.0024 0.0102413 0)
(10.0064 0.0158167 0)
(10.0117 0.019996 0)
(10.0174 0.0230502 0)
(10.0232 0.0253143 0)
(10.0289 0.0269607 0)
(10.0346 0.0281067 0)
(10.0401 0.0288837 0)
(10.0454 0.0294052 0)
(10.0505 0.0297452 0)
(10.0555 0.0299478 0)
(10.0603 0.0300386 0)
(10.065 0.0300269 0)
(10.0696 0.0299056 0)
(10.0741 0.029655 0)
(10.0785 0.0292444 0)
(10.0828 0.0286716 0)
(10.0002 0.00287553 0)
(10.002 0.00833058 0)
(10.0055 0.0129559 0)
(10.0101 0.0165454 0)
(10.0153 0.0192323 0)
(10.0206 0.0212416 0)
(10.026 0.0227219 0)
(10.0314 0.0237735 0)
(10.0366 0.0244946 0)
(10.0418 0.024973 0)
(10.0467 0.0252701 0)
(10.0516 0.0254233 0)
(10.0563 0.025454 0)
(10.0608 0.025371 0)
(10.0653 0.0251723 0)
(10.0696 0.0248492 0)
(10.0738 0.0243861 0)
(10.0778 0.0237971 0)
(10.0002 0.00218988 0)
(10.0017 0.00634857 0)
(10.0047 0.00993234 0)
(10.0088 0.0127937 0)
(10.0134 0.0149852 0)
(10.0183 0.0166419 0)
(10.0233 0.0178738 0)
(10.0284 0.0187589 0)
(10.0334 0.0193668 0)
(10.0383 0.0197598 0)
(10.0431 0.0199842 0)
(10.0478 0.0200698 0)
(10.0523 0.0200341 0)
(10.0567 0.0198861 0)
(10.061 0.0196282 0)
(10.0651 0.01926 0)
(10.0691 0.0187764 0)
(10.0729 0.0182 0)
(10.0002 0.00147449 0)
(10.0015 0.0042788 0)
(10.0041 0.00672402 0)
(10.0077 0.00871745 0)
(10.0119 0.0102734 0)
(10.0164 0.0114612 0)
(10.0211 0.0123475 0)
(10.0258 0.0129827 0)
(10.0306 0.0134101 0)
(10.0353 0.013668 0)
(10.0399 0.0137865 0)
(10.0444 0.0137861 0)
(10.0487 0.0136796 0)
(10.053 0.013475 0)
(10.0571 0.0131772 0)
(10.061 0.01279 0)
(10.0648 0.012314 0)
(10.0684 0.0117741 0)
(10.0001 0.000711764 0)
(10.0013 0.00206559 0)
(10.0037 0.00325186 0)
(10.0069 0.00422904 0)
(10.0108 0.0049993 0)
(10.015 0.00558713 0)
(10.0194 0.00601738 0)
(10.0239 0.00631005 0)
(10.0285 0.00648283 0)
(10.033 0.00655157 0)
(10.0374 0.00652885 0)
(10.0417 0.00642361 0)
(10.0459 0.00624211 0)
(10.05 0.00598903 0)
(10.0539 0.00566824 0)
(10.0576 0.00528406 0)
(10.0612 0.00483853 0)
(10.0646 0.0043544 0)
(10.0001 -0.000144853 0)
(10.0013 -0.000422773 0)
(10.0035 -0.000672582 0)
(10.0066 -0.000881856 0)
(10.0104 -0.00104816 0)
(10.0145 -0.00118538 0)
(10.0188 -0.00131279 0)
(10.0232 -0.00144427 0)
(10.0276 -0.00158851 0)
(10.032 -0.00175269 0)
(10.0363 -0.0019433 0)
(10.0405 -0.0021653 0)
(10.0445 -0.00242186 0)
(10.0484 -0.00271462 0)
(10.0522 -0.00304401 0)
(10.0558 -0.00340877 0)
(10.0592 -0.00380871 0)
(10.0625 -0.00422687 0)
(10.0001 -0.000968258 0)
(10.0014 -0.00282132 0)
(10.0037 -0.00446143 0)
(10.0071 -0.00580665 0)
(10.011 -0.00685078 0)
(10.0153 -0.00765537 0)
(10.0197 -0.0082874 0)
(10.0242 -0.00879214 0)
(10.0286 -0.00920411 0)
(10.033 -0.00955531 0)
(10.0373 -0.00987224 0)
(10.0415 -0.0101735 0)
(10.0455 -0.0104714 0)
(10.0493 -0.0107745 0)
(10.053 -0.0110887 0)
(10.0565 -0.0114169 0)
(10.0599 -0.0117616 0)
(10.0631 -0.0121117 0)
(10.0002 -0.00168154 0)
(10.0015 -0.00492274 0)
(10.0042 -0.00778108 0)
(10.0079 -0.0100534 0)
(10.0123 -0.0117551 0)
(10.0168 -0.013043 0)
(10.0215 -0.0140348 0)
(10.0261 -0.0147899 0)
(10.0307 -0.0153625 0)
(10.0352 -0.0158115 0)
(10.0395 -0.0161839 0)
(10.0437 -0.0165099 0)
(10.0477 -0.016809 0)
(10.0515 -0.0170951 0)
(10.0552 -0.0173777 0)
(10.0587 -0.0176628 0)
(10.062 -0.0179544 0)
(10.0651 -0.0182451 0)
(10.0002 -0.00236283 0)
(10.0017 -0.0070095 0)
(10.0048 -0.0111139 0)
(10.0092 -0.014218 0)
(10.014 -0.0164159 0)
(10.019 -0.0180452 0)
(10.0239 -0.0192861 0)
(10.0288 -0.020203 0)
(10.0336 -0.020868 0)
(10.0382 -0.0213636 0)
(10.0427 -0.0217512 0)
(10.0469 -0.0220689 0)
(10.0509 -0.0223429 0)
(10.0547 -0.0225924 0)
(10.0584 -0.0228305 0)
(10.0619 -0.0230647 0)
(10.0652 -0.0233004 0)
(10.0683 -0.0235326 0)
(10.0002 -0.00299781 0)
(10.0018 -0.00911657 0)
(10.0056 -0.0144926 0)
(10.0108 -0.0183406 0)
(10.0163 -0.0209635 0)
(10.0217 -0.0228614 0)
(10.027 -0.0242288 0)
(10.0321 -0.0251717 0)
(10.0371 -0.0258276 0)
(10.0419 -0.0263079 0)
(10.0464 -0.0266728 0)
(10.0507 -0.0269573 0)
(10.0548 -0.02719 0)
(10.0586 -0.0273935 0)
(10.0623 -0.0275826 0)
(10.0657 -0.0277658 0)
(10.069 -0.0279481 0)
(10.0721 -0.0281266 0)
(10.0001 -0.0035733 0)
(10.0019 -0.0115457 0)
(10.0064 -0.017943 0)
(10.0127 -0.0220731 0)
(10.0189 -0.0250591 0)
(10.0247 -0.0273621 0)
(10.0304 -0.0289069 0)
(10.0359 -0.0298226 0)
(10.0411 -0.0303862 0)
(10.046 -0.0307756 0)
(10.0506 -0.0310571 0)
(10.0549 -0.0312624 0)
(10.059 -0.0314211 0)
(10.0629 -0.0315565 0)
(10.0665 -0.0316823 0)
(10.07 -0.0318056 0)
(10.0732 -0.0319295 0)
(10.0763 -0.0320503 0)
(9.99997 -0.00369257 0)
(10.0018 -0.015188 0)
(10.0076 -0.0226633 0)
(10.0148 -0.0259967 0)
(10.0214 -0.0285624 0)
(10.0277 -0.0310271 0)
(10.034 -0.0328082 0)
(10.0399 -0.0338501 0)
(10.0454 -0.0344539 0)
(10.0505 -0.0348285 0)
(10.0552 -0.0350573 0)
(10.0596 -0.035189 0)
(10.0637 -0.0352657 0)
(10.0675 -0.0353171 0)
(10.071 -0.0353596 0)
(10.0743 -0.0354014 0)
(10.0773 -0.0354461 0)
(10.0802 -0.0354912 0)
(9.99898 -0.00131122 0)
(9.99999 -0.0179801 0)
(10.0085 -0.0290794 0)
(10.0174 -0.0327069 0)
(10.0244 -0.0341327 0)
(10.0311 -0.0353607 0)
(10.0382 -0.0363094 0)
(10.0448 -0.0369536 0)
(10.0507 -0.037406 0)
(10.0558 -0.0377068 0)
(10.0605 -0.0378706 0)
(10.0646 -0.0379334 0)
(10.0683 -0.0379363 0)
(10.0716 -0.0379089 0)
(10.0744 -0.0378693 0)
(10.077 -0.0378289 0)
(10.0792 -0.0377909 0)
(10.0812 -0.0377548 0)
(9.99528 0.00386751 0)
(9.99333 -0.0103156 0)
(10.007 -0.0271095 0)
(10.0212 -0.0389344 0)
(10.0311 -0.0448742 0)
(10.0391 -0.0464823 0)
(10.0465 -0.0460004 0)
(10.0529 -0.045045 0)
(10.058 -0.0441714 0)
(10.062 -0.0434006 0)
(10.0651 -0.0426891 0)
(10.0673 -0.0420341 0)
(10.0689 -0.041442 0)
(10.0698 -0.0409125 0)
(10.0702 -0.040443 0)
(10.0702 -0.0400326 0)
(10.0698 -0.0396718 0)
(10.0691 -0.0393337 0)
(9.99144 -0.0172943 0)
(9.99188 0.000362866 0)
(10.01 0.0176611 0)
(10.0295 0.0115818 0)
(10.0441 -0.00511782 0)
(10.0541 -0.0188361 0)
(10.0599 -0.0271845 0)
(10.0622 -0.0320637 0)
(10.0616 -0.0349475 0)
(10.059 -0.0365552 0)
(10.0548 -0.0373345 0)
(10.0494 -0.0376104 0)
(10.043 -0.0375958 0)
(10.036 -0.0374203 0)
(10.0284 -0.0371676 0)
(10.0204 -0.0368988 0)
(10.0123 -0.0366693 0)
(10.0041 -0.0364482 0)
(10.0236 -0.206008 0)
(10.0684 -0.312341 0)
(10.0788 -0.255595 0)
(10.0704 -0.184181 0)
(10.0605 -0.134907 0)
(10.0498 -0.102733 0)
(10.0342 -0.081174 0)
(10.0129 -0.066629 0)
(9.98772 -0.0566387 0)
(9.96047 -0.0494844 0)
(9.93224 -0.0441285 0)
(9.90372 -0.0399815 0)
(9.8754 -0.0366851 0)
(9.84763 -0.0340066 0)
(9.82063 -0.031798 0)
(9.79453 -0.0299957 0)
(9.76957 -0.0285694 0)
(9.74577 -0.0278358 0)
(9.94226 0.671595 0)
(9.87995 0.567454 0)
(9.77443 0.338465 0)
(9.63235 0.183316 0)
(9.4876 0.0949031 0)
(9.35646 0.0470797 0)
(9.24087 0.0212941 0)
(9.13934 0.00707193 0)
(9.05037 -0.000988189 0)
(8.97235 -0.00563009 0)
(8.90356 -0.00831991 0)
(8.84245 -0.00988276 0)
(8.78778 -0.0107889 0)
(8.73856 -0.011307 0)
(8.69398 -0.011598 0)
(8.65331 -0.0117866 0)
(8.61573 -0.0119665 0)
(8.58083 -0.0124987 0)
(0.0037797 -0.00905999 -3.50278e-20)
(0.0134035 -0.0143002 3.46322e-20)
(0.0219041 -0.0126632 0)
(0.0273798 -0.0079062 0)
(0.0290809 -0.00220354 0)
(0.0268159 0.00307593 -3.25601e-20)
(0.0214117 0.00720052 0)
(0.013517 0.0100922 0)
(0.00369686 0.0120075 0)
(-0.00757377 0.013299 0)
(-0.0199983 0.014245 3.00916e-20)
(-0.0334257 0.015014 0)
(-0.0477469 0.0157004 0)
(-0.0629026 0.0163508 0)
(-0.0788585 0.0169852 0)
(-0.0955919 0.0176103 2.6868e-20)
(-0.113085 0.0182266 0)
(-0.13132 0.0188324 0)
(-0.150282 0.0194258 0)
(-0.169954 0.0200056 0)
(-0.19032 0.0205725 0)
(-0.211367 0.0211286 0)
(-0.233081 0.0216761 0)
(-0.255451 0.022214 2.28629e-20)
(-0.278465 0.0227351 -2.24748e-20)
(-0.302105 0.0232245 2.21112e-20)
(-0.326341 0.0236572 2.17719e-20)
(-0.35113 0.0239928 0)
(-0.376392 0.0241588 0)
(-0.402 0.0240321 -2.09013e-20)
(-0.427757 0.0234684 -2.06627e-20)
(-0.453364 0.0224977 0)
(-0.478613 0.0218274 0)
(-0.504241 0.0240091 -2.01001e-20)
(-0.531494 0.0376048 0)
(-0.561962 0.0423273 0)
(-0.595079 0.0250563 2.15342e-20)
(-0.625254 0.0259702 0)
(-0.657006 0.0433021 1.93228e-20)
(-0.693235 0.0657972 3.82639e-20)
(-0.731983 0.0527713 0)
(-0.77286 0.0351773 0)
(-0.807682 0.0667794 0)
(-0.84811 0.0526856 0)
(-0.889011 0.0255133 0)
(-0.923436 0.0318194 4.01107e-20)
(-0.962781 0.0334024 3.96569e-20)
(-1.00298 0.0342104 3.92095e-20)
(-1.04391 0.0346435 0)
(-1.08528 0.0347998 -3.83448e-20)
(-1.1269 0.0347895 0)
(-1.16864 0.0346698 3.75271e-20)
(-1.21041 0.0344757 3.71358e-20)
(-1.25216 0.0342289 0)
(-1.29384 0.0339433 0)
(-1.3354 0.0336273 0)
(-1.37681 0.0332866 3.5675e-20)
(-1.41805 0.0329243 0)
(-1.45909 0.0325425 0)
(-1.49989 0.0321422 0)
(-1.54044 0.0317238 0)
(-1.5807 0.0312872 0)
(-1.62064 0.0308323 0)
(-1.66025 0.0303585 0)
(-1.69947 0.0298654 0)
(-1.73829 0.0293527 -3.2813e-20)
(-1.77667 0.0288198 0)
(-1.81458 0.0282666 0)
(-1.85198 0.0276927 3.1926e-20)
(-1.88884 0.0270981 3.16324e-20)
(-1.92512 0.0264828 0)
(-1.96078 0.025847 -3.10447e-20)
(-1.99579 0.0251908 3.07495e-20)
(-2.0301 0.0245148 0)
(-2.06369 0.0238194 -3.01533e-20)
(-2.09651 0.0231051 0)
(-2.12853 0.0223725 0)
(-2.1597 0.0216225 2.92368e-20)
(-2.19 0.0208558 0)
(-2.21938 0.0200731 -2.86046e-20)
(-2.2478 0.0192753 0)
(-2.27525 0.0184631 2.79509e-20)
(-2.30167 0.0176371 2.76147e-20)
(-2.32704 0.016798 2.72717e-20)
(-2.35131 0.0159462 5.38427e-20)
(-2.37447 0.0150819 -5.31268e-20)
(-2.39647 0.0142049 0)
(-2.41728 0.0133146 0)
(-2.43686 0.0124099 0)
(-2.4552 0.011489 -5.00927e-20)
(-2.47223 0.0105489 -4.9288e-20)
(-2.48795 0.00958589 4.84636e-20)
(-2.50229 0.00859531 0)
(-2.51521 0.00757176 -4.67531e-20)
(-2.52667 0.00650858 -4.58662e-20)
(-2.53659 0.00539939 -4.49578e-20)
(-2.5449 0.00424372 0)
(-2.55154 0.00305887 0)
(-2.55637 0.00188812 0)
(-2.55928 0.000786708 -4.11044e-20)
(-2.5604 -0.00019307 0)
(-2.56012 -0.00104477 0)
(-2.55836 -0.00186497 3.79421e-20)
(-2.55513 -0.00267068 0)
(-2.55044 -0.00346973 0)
(-2.54427 -0.00426351 3.45446e-20)
(-2.53662 -0.00505207 0)
(-2.52746 -0.00583484 0)
(-2.51681 -0.00661102 -3.09078e-20)
(-2.50465 -0.00737978 -2.96425e-20)
(-2.49097 -0.00814024 0)
(-2.47578 -0.00889156 2.70334e-20)
(-2.45907 -0.0096329 0)
(-2.44084 -0.0103634 -2.43214e-20)
(-2.42111 -0.0110824 0)
(-2.39987 -0.0117889 -2.15095e-20)
(-2.37713 -0.0124823 -2.00673e-20)
(-2.35291 -0.0131618 0)
(-2.32721 -0.0138266 0)
(-2.30005 -0.0144761 0)
(-2.27144 -0.0151095 0)
(-2.2414 -0.0157263 0)
(-2.20995 -0.0163259 0)
(-2.1771 -0.0169076 0)
(-2.14289 -0.017471 -7.748e-21)
(-2.10734 -0.0180156 6.12275e-21)
(-2.07047 -0.0185408 0)
(-2.03231 -0.0190462 0)
(-1.99289 -0.0195314 0)
(-1.95224 -0.0199959 0)
(-1.9104 -0.0204395 -4.43468e-21)
(-1.86739 -0.0208618 0)
(-1.82325 -0.0212626 1.12622e-20)
(-1.77802 -0.0216417 -1.46993e-20)
(-1.73174 -0.021999 0)
(-1.68444 -0.0223342 0)
(-1.63617 -0.0226473 0)
(-1.58696 -0.0229383 2.85402e-20)
(-1.53686 -0.0232071 3.20099e-20)
(-1.4859 -0.023454 0)
(-1.43414 -0.023679 3.89411e-20)
(-1.38161 -0.0238822 4.23971e-20)
(-1.32835 -0.024064 -4.58428e-20)
(-1.27442 -0.0242245 0)
(-1.21985 -0.0243642 0)
(-1.16468 -0.0244836 -5.6091e-20)
(-1.10896 -0.024583 0)
(-1.05273 -0.0246629 0)
(-0.99603 -0.024724 0)
(-0.938904 -0.024767 0)
(-0.881389 -0.0247926 7.27141e-20)
(-0.823523 -0.0248014 7.59471e-20)
(-0.765344 -0.0247943 0)
(-0.706887 -0.0247723 8.23026e-20)
(-0.648186 -0.0247361 0)
(-0.589273 -0.0246867 0)
(-0.530178 -0.0246251 9.15274e-20)
(-0.470929 -0.024552 0)
(-0.411554 -0.024468 9.74485e-20)
(-0.352078 -0.0243735 0)
(-0.292527 -0.0242684 0)
(-0.232927 -0.0241505 1.05953e-19)
(-0.173307 -0.0240129 0)
(-0.113696 -0.0238514 1.11353e-19)
(-0.0541187 -0.0236603 0)
(0.00539751 -0.0233935 0)
(0.0647072 -0.0230229 0)
(0.123907 -0.0226393 -1.18206e-19)
(0.182996 -0.0222793 0)
(0.241985 -0.0219379 1.19714e-19)
(0.300881 -0.0216045 0)
(0.359672 -0.0212683 0)
(0.418312 -0.0209148 0)
(0.476697 -0.0205205 0)
(0.534649 -0.0200396 0)
(0.591669 -0.0193802 0)
(0.647337 -0.0182965 0)
(0.697586 -0.0161596 -2.4672e-19)
(0.746455 -0.0113602 0)
(0.748871 0.00624201 0)
(0.00384103 -0.0270535 1.04132e-19)
(0.00855846 -0.027407 -1.00205e-19)
(0.00860386 -0.0174841 0)
(0.00619398 -0.00645481 6.08435e-20)
(0.00173249 0.00412637 0)
(-0.00452913 0.0135157 2.87128e-20)
(-0.0125892 0.0213442 -5.60325e-20)
(-0.0223594 0.027591 -5.47641e-20)
(-0.0337422 0.0324661 0)
(-0.0466024 0.0362887 -5.23166e-20)
(-0.0607871 0.0393804 -2.55671e-20)
(-0.0761519 0.041989 0)
(-0.0925796 0.0442822 0)
(-0.109983 0.0463652 0)
(-0.128301 0.0483002 0)
(-0.147491 0.0501217 -2.27525e-20)
(-0.167527 0.0518484 0)
(-0.188392 0.0534906 4.35038e-20)
(-0.210078 0.0550548 0)
(-0.232583 0.0565469 0)
(-0.25591 0.0579731 -4.09067e-20)
(-0.280066 0.0593401 0)
(-0.305062 0.0606534 3.94155e-20)
(-0.330911 0.0619153 -1.9393e-20)
(-0.35763 0.0631223 1.90816e-20)
(-0.385239 0.064264 -1.87951e-20)
(-0.413762 0.0653216 -1.85338e-20)
(-0.443234 0.066265 0)
(-0.473705 0.0670468 0)
(-0.505264 0.0676022 1.79111e-20)
(-0.538074 0.0678799 -1.7697e-20)
(-0.572396 0.0679424 0)
(-0.60865 0.0681069 0)
(-0.646752 0.0690203 1.74728e-20)
(-0.68494 0.0717461 0)
(-0.723674 0.0762163 0)
(-0.764256 0.0785651 -1.75134e-20)
(-0.807039 0.0773806 0)
(-0.850015 0.0773407 1.69024e-20)
(-0.889453 0.0812655 -3.36593e-20)
(-0.930498 0.0834583 0)
(-0.972821 0.0812587 0)
(-1.01346 0.0833932 -6.55874e-20)
(-1.05363 0.0862556 -6.49573e-20)
(-1.09535 0.0867416 -6.43433e-20)
(-1.13812 0.0881478 3.16992e-20)
(-1.17877 0.0890154 -3.14926e-20)
(-1.21834 0.0892275 -9.3237e-20)
(-1.25732 0.0890333 6.14097e-20)
(-1.29586 0.0885591 3.0441e-20)
(-1.33405 0.0878886 0)
(-1.37191 0.0870799 -2.97951e-20)
(-1.40946 0.086171 2.93399e-20)
(-1.4467 0.0851871 0)
(-1.48362 0.0841447 0)
(-1.52022 0.0830546 0)
(-1.55649 0.0819233 -2.83338e-20)
(-1.5924 0.0807547 0)
(-1.62796 0.0795509 5.54463e-20)
(-1.66313 0.0783125 0)
(-1.6979 0.0770395 5.44145e-20)
(-1.73225 0.0757312 0)
(-1.76616 0.0743868 -5.34154e-20)
(-1.7996 0.0730054 0)
(-1.83256 0.0715859 5.24406e-20)
(-1.86501 0.0701275 -2.59087e-20)
(-1.89692 0.0686295 0)
(-1.92827 0.0670916 -5.10065e-20)
(-1.95902 0.0655134 -2.53343e-20)
(-1.98916 0.0638951 -2.50959e-20)
(-2.01865 0.0622368 0)
(-2.04746 0.0605392 -2.44889e-20)
(-2.07558 0.058803 -2.43764e-20)
(-2.10296 0.0570292 0)
(-2.12958 0.055219 2.38884e-20)
(-2.1554 0.0533738 -4.71667e-20)
(-2.18041 0.0514953 0)
(-2.20458 0.0495849 -2.31356e-20)
(-2.22787 0.0476446 0)
(-2.25025 0.0456762 6.77486e-20)
(-2.27171 0.0436816 0)
(-2.29221 0.0416626 -6.61423e-20)
(-2.31172 0.039621 -2.17993e-20)
(-2.33022 0.0375587 2.14401e-20)
(-2.34769 0.0354773 4.23141e-20)
(-2.36409 0.033378 -4.17358e-20)
(-2.37941 0.0312623 0)
(-2.39361 0.0291308 0)
(-2.40667 0.0269841 0)
(-2.41858 0.0248223 1.18026e-19)
(-2.4293 0.0226447 3.87071e-20)
(-2.43881 0.0204499 -3.80302e-20)
(-2.4471 0.0182362 0)
(-2.45414 0.0160012 -3.66056e-20)
(-2.45994 0.0137418 3.59016e-20)
(-2.46448 0.0114538 3.51582e-20)
(-2.46779 0.00913352 0)
(-2.46992 0.00679021 0)
(-2.47096 0.00446483 0)
(-2.47101 0.00222166 3.20007e-20)
(-2.47 8.14193e-05 0)
(-2.46762 -0.00196268 -6.06874e-20)
(-2.46385 -0.00396782 -8.83686e-20)
(-2.45867 -0.00594746 5.71708e-20)
(-2.45205 -0.00790855 0)
(-2.44397 -0.00985161 2.68304e-20)
(-2.43442 -0.0117755 0)
(-2.42339 -0.0136781 4.97004e-20)
(-2.41088 -0.0155571 -2.39713e-20)
(-2.39688 -0.0174104 -2.29824e-20)
(-2.38138 -0.0192356 0)
(-2.36438 -0.0210304 -6.23612e-20)
(-2.34589 -0.0227929 3.95593e-20)
(-2.3259 -0.0245208 1.85755e-20)
(-2.30442 -0.0262122 0)
(-2.28145 -0.0278653 1.6382e-20)
(-2.257 -0.0294782 4.61084e-20)
(-2.23108 -0.0310492 0)
(-2.20371 -0.0325765 2.63082e-20)
(-2.17489 -0.0340585 2.39976e-20)
(-2.14464 -0.0354938 2.16609e-20)
(-2.11297 -0.0368809 0)
(-2.07992 -0.0382186 0)
(-2.04549 -0.0395057 0)
(-2.00971 -0.0407412 -6.25264e-21)
(-1.97261 -0.041924 -4.59888e-21)
(-1.9342 -0.0430535 0)
(-1.89452 -0.0441287 -4.69078e-21)
(-1.8536 -0.0451489 -2.19735e-21)
(-1.81146 -0.0461135 0)
(-1.76815 -0.047022 3.30878e-21)
(-1.72368 -0.047874 1.06991e-20)
(-1.67811 -0.0486695 -8.3812e-21)
(-1.63145 -0.0494084 -9.9116e-21)
(-1.58376 -0.0500907 0)
(-1.53507 -0.0507165 0)
(-1.48541 -0.051286 0)
(-1.43484 -0.0517995 -2.11083e-20)
(-1.38338 -0.0522576 2.25799e-20)
(-1.33108 -0.0526611 5.12821e-20)
(-1.27799 -0.0530107 -2.87009e-20)
(-1.22414 -0.0533073 3.01279e-20)
(-1.16958 -0.0535518 3.37132e-20)
(-1.11435 -0.0537455 0)
(-1.05849 -0.0538896 0)
(-1.00205 -0.0539857 -4.00263e-20)
(-0.94507 -0.0540352 0)
(-0.887588 -0.0540398 0)
(-0.829646 -0.0540012 9.56194e-20)
(-0.771285 -0.0539216 0)
(-0.712544 -0.0538028 5.19751e-20)
(-0.653461 -0.0536469 -5.53726e-20)
(-0.594072 -0.0534562 0)
(-0.534413 -0.0532331 5.88409e-20)
(-0.474516 -0.0529798 0)
(-0.414413 -0.0526987 0)
(-0.354133 -0.0523921 -6.6479e-20)
(-0.293705 -0.0520621 1.36162e-19)
(-0.233155 -0.0517104 -7.06862e-20)
(-0.172508 -0.0513379 0)
(-0.111786 -0.0509438 0)
(-0.0510122 -0.0505263 7.57166e-20)
(0.00978994 -0.050082 0)
(0.0705965 -0.0496081 7.86504e-20)
(0.13139 -0.0491107 0)
(0.192154 -0.0485911 0)
(0.252871 -0.0480363 0)
(0.31357 -0.0474698 8.36002e-20)
(0.37424 -0.0469178 0)
(0.434874 -0.0463796 -8.53497e-20)
(0.495461 -0.0458428 0)
(0.555977 -0.0452878 0)
(0.616366 -0.0446841 1.7438e-19)
(0.676518 -0.0439798 -1.75703e-19)
(0.736248 -0.0430749 0)
(0.795123 -0.0417754 0)
(0.852694 -0.0395825 0)
(0.906431 -0.0355452 5.42342e-19)
(0.958899 -0.0264374 0)
(0.989492 -0.00434668 -3.68963e-19)
(0.00131484 -0.0337446 -3.98037e-23)
(-0.00102612 -0.0233681 1.30017e-19)
(-0.00660543 -0.00794082 0)
(-0.0134509 0.00654294 -1.12491e-19)
(-0.0215607 0.0197464 0)
(-0.0307697 0.0315378 0)
(-0.0410502 0.0418242 1.14038e-23)
(-0.0524463 0.0505999 4.86984e-20)
(-0.0650077 0.0579815 4.75044e-20)
(-0.0787481 0.06418 4.64043e-20)
(-0.0936397 0.0694433 0)
(-0.109628 0.0740044 0)
(-0.126653 0.0780548 -4.32906e-20)
(-0.144659 0.0817386 -8.46477e-20)
(-0.163599 0.0851576 8.27871e-20)
(-0.183443 0.0883809 0)
(-0.204169 0.091455 7.92995e-20)
(-0.225766 0.0944117 -3.88531e-20)
(-0.248232 0.0972747 0)
(-0.271571 0.100063 7.46792e-20)
(-0.295793 0.102793 3.66671e-20)
(-0.320912 0.10548 -7.20097e-20)
(-0.346942 0.108136 -3.54141e-20)
(-0.373902 0.110771 0)
(-0.401811 0.113387 6.86084e-20)
(-0.430691 0.115986 6.763e-20)
(-0.460566 0.118563 0)
(-0.491463 0.121116 6.58928e-20)
(-0.523417 0.123643 0)
(-0.556473 0.126162 6.44201e-20)
(-0.590693 0.128725 3.19027e-20)
(-0.626132 0.131462 0)
(-0.662784 0.134591 0)
(-0.700381 0.138394 0)
(-0.738026 0.142762 0)
(-0.775129 0.146403 0)
(-0.812387 0.148395 0)
(-0.850646 0.150072 5.95195e-20)
(-0.888742 0.152155 -8.82412e-20)
(-0.924902 0.153341 0)
(-0.96045 0.152515 0)
(-0.996639 0.151281 0)
(-1.03226 0.150751 -3.24085e-23)
(-1.06704 0.14885 5.51009e-20)
(-1.10243 0.146407 1.08844e-19)
(-1.13811 0.144878 -1.0746e-19)
(-1.17311 0.14353 -5.30135e-20)
(-1.20759 0.142172 5.24217e-20)
(-1.24167 0.140743 -7.56594e-23)
(-1.27544 0.139221 5.10742e-20)
(-1.30894 0.137608 0)
(-1.34219 0.135916 4.98714e-20)
(-1.37522 0.134156 -8.38483e-23)
(-1.40803 0.132339 0)
(-1.44061 0.13047 0)
(-1.47297 0.128554 -4.76533e-20)
(-1.50508 0.126594 0)
(-1.53695 0.12459 0)
(-1.56856 0.122542 4.60309e-20)
(-1.59988 0.120449 9.12693e-20)
(-1.6309 0.118308 -4.52486e-20)
(-1.6616 0.116119 0)
(-1.69196 0.113878 4.43107e-20)
(-1.72195 0.111584 0)
(-1.75155 0.109235 4.32069e-20)
(-1.78074 0.106829 4.29459e-20)
(-1.80948 0.104367 -8.48108e-20)
(-1.83776 0.101847 -4.18695e-20)
(-1.86555 0.0992684 0)
(-1.89281 0.0966319 8.21617e-20)
(-1.91952 0.0939378 0)
(-1.94565 0.0911871 1.20693e-19)
(-1.97116 0.0883811 7.9524e-20)
(-1.99604 0.0855211 7.86406e-20)
(-2.02025 0.0826093 -7.77529e-20)
(-2.04375 0.0796476 1.15367e-19)
(-2.06653 0.0766385 0)
(-2.08855 0.0735844 0)
(-2.10977 0.0704882 -7.41325e-20)
(-2.13019 0.0673525 -1.09871e-19)
(-2.14975 0.0641803 0)
(-2.16844 0.0609744 3.57131e-20)
(-2.18622 0.0577376 0)
(-2.20308 0.0544728 -1.04091e-19)
(-2.21898 0.0511824 -9.2427e-23)
(-2.23389 0.0478691 8.38983e-23)
(-2.2478 0.0445349 6.63134e-20)
(-2.26067 0.0411819 0)
(-2.27248 0.0378119 -6.41897e-20)
(-2.28322 0.0344266 -4.7103e-23)
(-2.29286 0.0310273 0)
(-2.30137 0.0276158 0)
(-2.30875 0.0241941 0)
(-2.31499 0.0207653 5.85191e-20)
(-2.32006 0.0173347 0)
(-2.32397 0.0139106 0)
(-2.32672 0.0105053 0)
(-2.32831 0.00713617 0)
(-2.32873 0.00382242 0)
(-2.32794 0.000575595 5.08905e-20)
(-2.32589 -0.00263284 0)
(-2.3225 -0.00583163 4.80413e-20)
(-2.31775 -0.00901266 4.6609e-20)
(-2.31162 -0.0121723 -4.51513e-20)
(-2.30409 -0.0153071 0)
(-2.29515 -0.0184134 -4.21596e-20)
(-2.28479 -0.0214876 0)
(-2.27299 -0.0245255 -3.90672e-20)
(-2.25975 -0.0275234 3.7484e-20)
(-2.24506 -0.0304773 1.07982e-19)
(-2.22892 -0.0333836 0)
(-2.21132 -0.0362386 9.81714e-20)
(-2.19227 -0.0390389 3.13349e-20)
(-2.17176 -0.0417813 0)
(-2.14981 -0.0444625 5.54541e-20)
(-2.12641 -0.0470797 5.19938e-20)
(-2.10157 -0.0496298 -7.24868e-20)
(-2.0753 -0.0521101 0)
(-2.04761 -0.054518 -2.04162e-20)
(-2.01852 -0.0568509 -1.86018e-20)
(-1.98804 -0.0591064 -5.0901e-20)
(-1.95619 -0.0612823 0)
(-1.92297 -0.0633767 0)
(-1.88843 -0.0653877 0)
(-1.85257 -0.0673139 -9.96891e-21)
(-1.81542 -0.0691536 0)
(-1.777 -0.0709057 0)
(-1.73734 -0.072569 3.60374e-21)
(-1.69648 -0.0741425 1.68632e-21)
(-1.65443 -0.0756251 0)
(-1.61123 -0.0770163 0)
(-1.56691 -0.0783156 -8.18484e-21)
(-1.52152 -0.0795229 0)
(-1.47507 -0.0806382 1.59073e-20)
(-1.42761 -0.0816618 1.89804e-20)
(-1.37918 -0.082594 0)
(-1.32981 -0.0834352 0)
(-1.27954 -0.084186 -3.04891e-20)
(-1.22841 -0.0848476 -8.14463e-22)
(-1.17647 -0.0854211 -8.19722e-22)
(-1.12375 -0.0859081 0)
(-1.07029 -0.0863102 -9.21171e-20)
(-1.01615 -0.0866289 0)
(-0.961346 -0.0868662 0)
(-0.905935 -0.0870246 0)
(-0.849956 -0.0871064 6.12685e-20)
(-0.793448 -0.0871143 0)
(-0.736454 -0.0870509 -1.35286e-19)
(-0.679011 -0.0869193 -7.20254e-20)
(-0.62116 -0.0867228 0)
(-0.562939 -0.0864647 -7.90022e-20)
(-0.504384 -0.0861484 0)
(-0.44553 -0.0857776 0)
(-0.386412 -0.0853562 -2.65779e-19)
(-0.327062 -0.0848878 1.83218e-19)
(-0.26751 -0.0843765 0)
(-0.207785 -0.0838257 1.96066e-19)
(-0.147914 -0.083239 -1.01959e-19)
(-0.0879221 -0.082619 0)
(-0.0278312 -0.0819685 0)
(0.0323368 -0.0812892 0)
(0.0925613 -0.0805807 -3.36349e-19)
(0.152825 -0.0798418 0)
(0.213111 -0.0790727 -1.16477e-19)
(0.27341 -0.0782793 0)
(0.333724 -0.0774744 0)
(0.394073 -0.0766687 0)
(0.454458 -0.0758683 0)
(0.514859 -0.0750799 0)
(0.575261 -0.074299 0)
(0.635643 -0.0735093 -2.5482e-19)
(0.695973 -0.0726829 0)
(0.756193 -0.071773 -1.30768e-19)
(0.816198 -0.0706996 3.94853e-19)
(0.875814 -0.0693145 0)
(0.93468 -0.0673356 0)
(0.992455 -0.0641497 -2.69945e-19)
(1.04744 -0.0585877 -2.73473e-19)
(1.10231 -0.0477272 2.75467e-19)
(1.14502 -0.0253139 2.8026e-19)
(-0.0022654 -0.0274524 -2.05477e-19)
(-0.00963246 -0.00934523 -1.9054e-19)
(-0.0187278 0.00915706 -1.14805e-19)
(-0.028633 0.025586 -5.28864e-20)
(-0.0394031 0.0404204 0)
(-0.0508392 0.0537856 9.53893e-20)
(-0.0629457 0.0657113 -4.60291e-20)
(-0.0758065 0.0762329 0)
(-0.0895092 0.085441 -4.35287e-20)
(-0.104116 0.0934859 0)
(-0.119659 0.100554 8.29516e-20)
(-0.136144 0.106839 0)
(-0.153557 0.112515 3.96439e-20)
(-0.171878 0.117729 7.75652e-20)
(-0.191087 0.122595 -7.59145e-20)
(-0.211166 0.127201 0)
(-0.232103 0.13161 -7.28286e-20)
(-0.253891 0.135868 0)
(-0.276527 0.140012 0)
(-0.300014 0.144069 -6.87366e-20)
(-0.324355 0.148063 0)
(-0.349553 0.152011 5.27073e-24)
(-0.375611 0.155925 0)
(-0.402529 0.159814 0)
(-0.430302 0.163677 -4.85829e-24)
(-0.45892 0.16751 -6.23384e-20)
(-0.488368 0.171303 -6.14638e-20)
(-0.518621 0.175041 -6.06417e-20)
(-0.549645 0.178712 0)
(-0.581395 0.182306 -1.18174e-19)
(-0.613807 0.185825 0)
(-0.64678 0.18928 -5.76125e-20)
(-0.680151 0.192678 0)
(-0.71366 0.195989 0)
(-0.746959 0.19906 5.5427e-20)
(-0.779818 0.201461 0)
(-0.812351 0.202866 -5.39696e-20)
(-0.844769 0.203607 -2.03102e-23)
(-0.876902 0.204 1.04997e-19)
(-0.908468 0.20375 -1.03482e-19)
(-0.939695 0.202536 0)
(-0.970917 0.200985 0)
(-1.00197 0.199495 -4.95303e-20)
(-1.03278 0.19747 0)
(-1.06362 0.195109 -4.81508e-20)
(-1.09446 0.192865 4.74903e-20)
(-1.12512 0.190677 4.68472e-20)
(-1.1556 0.1885 0)
(-1.18591 0.186305 -4.56157e-20)
(-1.21606 0.184073 -4.50265e-20)
(-1.24606 0.181794 8.8849e-20)
(-1.27593 0.179466 -4.38978e-20)
(-1.30565 0.177088 -4.33568e-20)
(-1.33525 0.174659 0)
(-1.3647 0.172181 0)
(-1.39401 0.169651 4.18163e-20)