/*--------------------------------*- C++ -*----------------------------------*\
  =========                 |
  \\      /  F ield         | OpenFOAM: The Open Source CFD Toolbox
   \\    /   O peration     | Website:  https://openfoam.org
    \\  /    A nd           | Version:  9
     \\/     M anipulation  |
\*---------------------------------------------------------------------------*/
FoamFile
{
    format      ascii;
    class       volScalarField;
    location    "0.056";
    object      s_0;
}
// * * * * * * * * * * * * * * * * * * * * * * * * * * * * * * * * * * * * * //

dimensions      [0 0 0 0 0 0 0];

internalField   nonuniform List<scalar> 
12225
(
1
1
1
1
1
1
1
1
1
1
1
1
1
1
1
1
1
0.999991
1
1
1
1
1
1
1
1
1
1
1
1
1
1
1
1
1
1
1
1
1
1
1
1
1
1
1
1
1
1
1
1
1
1
1
1
1
1
1
1
1
1
1
1
1
1
1
1
1
1
1
1
1
1
1
1
1
1
1
1
1
1
1
1
1
1
1
1
1
1
1
1
1
1
1
1
1
1
1
1
1
1
1
1
1
1
1
1
1
1
1
1
1
1
1
1
1
1
1
1
1
1
1
1
1
1
1
1
1
1
1
1
1
1
1
1
1
1
1
1
1
1
1
1
1
1
1
1
1
1
1
1
1
1
1
1
1
1
1
1
1
1
1
1
1
1
1
1
1
1
1
1
1
1
1
1
1
1
1
1
1
1
1
1
1
1
1
1
1
1
1
1
1
1
1
1
1
1
1
1
1
1
1
1
1
1
1
1
1
1
1
1
1
1
1
1
1
1
1
1
1
1
1
1
1
1
1
1
1
1
1
1
1
1
1
1
1
1
1
1
1
1
1
1
1
1
1
1
1
1
1
1
1
1
1
1
1
1
1
1
1
1
1
1
1
1
1
1
1
1
1
1
1
1
1
1
1
1
1
1
1
1
1
1
1
1
1
1
1
1
1
1
1
1
1
1
1
1
1
1
1
1
1
1
1
1
1
1
1
1
1
1
1
1
1
1
1
1
1
1
1
1
1
1
1
1
1
1
1
1
1
1
1
1
1
1
1
1
1
1
1
1
1
1
1
1
1
1
1
1
1
1
1
1
1
1
1
1
1
1
1
1
1
1
1
1
1
1
1
1
1
1
1
1
1
1
1
1
1
1
1
1
1
1
1
1
1
1
1
1
1
1
1
1
1
1
1
1
1
1
1
1
1
1
1
1
1
1
1
1
1
1
1
1
1
1
1
1
1
1
1
1
1
1
1
1
1
1
1
1
1
1
1
1
1
1
1
1
1
1
1
1
1
1
1
1
1
1
1
1
1
1
1
1
1
1
1
1
1
1
1
1
1
1
1
1
1
1
1
1
1
1
1
1
1
1
1
1
1
1
1
1
1
1
1
1
1
1
1
1
1
1
1
1
1
1
1
1
1
1
1
1
1
1
1
1
1
1
1
1
1
1
1
1
1
1
1
1
1
1
1
1
1
1
1
1
1
1
1
1
1
1
1
1
1
1
1
1
1
1
1
1
0.650457
0.650428
0.651336
0.651332
0.651144
0.651059
0.650718
0.649886
0.64827
0.644472
0.633859
0.624298
0.62246
0.622795
0.624635
0.63158
0.649636
0.661182
0.661411
0.653553
0.636744
0.611878
0.579402
0.539337
0.493847
0.452342
0.439705
0.446274
0.491578
0.596098
0.662013
0.675308
0.679068
0.680871
0.682953
0.686633
0.691237
0.696017
0.70126
0.705848
0.70972
0.71237
0.714246
0.716943
0.718125
0.717986
0.714304
0.706168
0.695752
0.686586
0.677606
0.668171
0.657519
0.648511
0.644089
0.640695
0.636704
0.633232
0.629928
0.627111
0.624468
0.621872
0.620237
0.619672
0.620152
0.621961
0.626297
0.636766
0.663032
0.697683
0.718066
0.72769
0.733907
0.745022
0.774672
0.81433
0.839672
0.852341
0.85688
0.857925
0.858432
0.859743
0.862742
0.866636
0.871363
0.875819
0.876703
0.876139
0.873978
0.870548
0.866836
0.863248
0.859516
0.855507
0.851318
0.847088
0.843185
0.839927
0.837161
0.834604
0.832206
0.830045
0.828189
0.826606
0.825267
0.824424
0.823762
0.82347
0.823323
0.823293
0.823327
0.823506
0.823798
0.824097
0.824602
0.824861
0.825366
0.825897
0.826437
0.827363
0.828338
0.829879
0.831525
0.833832
0.836971
0.841031
0.84606
0.852026
0.858458
0.86414
0.868434
0.871715
0.874302
0.876175
0.877643
0.878672
0.879323
0.879989
0.880633
0.881275
0.882425
0.885055
0.891483
0.899082
0.905814
0.911129
0.915034
0.917788
0.919844
0.921552
0.92297
0.924152
0.925353
0.926811
0.928483
0.930038
0.931121
0.931644
0.931772
0.931728
0.931289
0.929035
0.919118
0.896329
0.878452
0.866788
0.861523
0.86015
0.858706
0.855754
0.849103
0.831148
0.771437
0.588039
0.393597
0.259828
0.184544
0.13497
0.116301
0.0683054
0.651422
0.65047
0.648783
0.64667
0.646074
0.646275
0.647402
0.648695
0.648697
0.647479
0.64119
0.614523
0.590172
0.587327
0.590772
0.607705
0.63792
0.656961
0.658538
0.64238
0.554667
0.487422
0.465866
0.440563
0.42819
0.426779
0.441453
0.479433
0.54981
0.638979
0.674109
0.687955
0.698044
0.717063
0.743722
0.768376
0.788192
0.80875
0.831122
0.845541
0.849174
0.849447
0.845915
0.836199
0.820772
0.801184
0.779629
0.758917
0.741637
0.733629
0.727374
0.723244
0.720113
0.712317
0.685274
0.652425
0.634096
0.624011
0.617603
0.611622
0.60569
0.603357
0.604696
0.607545
0.60871
0.608304
0.607055
0.607798
0.616462
0.661615
0.721573
0.739282
0.742454
0.748198
0.768597
0.822955
0.850302
0.857408
0.859273
0.860846
0.86358
0.867986
0.873272
0.875236
0.875833
0.875686
0.874057
0.871148
0.865755
0.857849
0.847997
0.835268
0.819496
0.808215
0.802171
0.794695
0.791149
0.789507
0.788764
0.788548
0.788989
0.791328
0.794563
0.797354
0.800139
0.802261
0.803853
0.805201
0.806581
0.807966
0.809192
0.809964
0.810632
0.811083
0.81106
0.810927
0.810466
0.809712
0.808573
0.807003
0.80487
0.802278
0.799173
0.795744
0.79283
0.790277
0.788431
0.787767
0.788533
0.79348
0.803238
0.815192
0.828186
0.840701
0.85138
0.859326
0.86515
0.86965
0.872885
0.874465
0.874623
0.873555
0.867738
0.862797
0.862299
0.864041
0.874374
0.893095
0.90491
0.912089
0.916489
0.919122
0.920767
0.92211
0.923545
0.925058
0.926033
0.926266
0.926234
0.926465
0.928692
0.933464
0.933976
0.932898
0.929847
0.923945
0.920311
0.9194
0.919462
0.919324
0.918033
0.914195
0.905376
0.886062
0.857728
0.83521
0.786054
0.731318
0.694074
0.610696
0.645068
0.638986
0.631325
0.627355
0.627675
0.629213
0.632936
0.635479
0.635912
0.635008
0.628661
0.598758
0.567457
0.564529
0.581484
0.617623
0.643349
0.648756
0.605494
0.49112
0.439141
0.42494
0.419283
0.41757
0.420678
0.434718
0.464978
0.526656
0.605639
0.689127
0.746259
0.797884
0.877193
0.918697
0.937302
0.946925
0.950791
0.951749
0.951098
0.945541
0.934254
0.918542
0.897702
0.87034
0.837733
0.802633
0.769087
0.740562
0.717129
0.705812
0.701723
0.700255
0.710418
0.722602
0.732048
0.732171
0.726224
0.711606
0.688011
0.662834
0.650438
0.637865
0.633542
0.636616
0.639988
0.637153
0.628418
0.621686
0.622653
0.650032
0.724317
0.747652
0.752148
0.768451
0.828332
0.853226
0.858144
0.861592
0.864944
0.870658
0.876396
0.877983
0.878364
0.877515
0.874188
0.871368
0.865298
0.855113
0.837905
0.810366
0.790843
0.78187
0.778222
0.77731
0.778935
0.784476
0.790856
0.795264
0.800535
0.809413
0.815576
0.817556
0.818054
0.817776
0.816061
0.814454
0.812949
0.812303
0.812572
0.815813
0.819221
0.82331
0.826395
0.831522
0.833955
0.837175
0.839324
0.841312
0.842966
0.844534
0.845516
0.84565
0.844559
0.841219
0.833965
0.823659
0.810621
0.795967
0.782796
0.774403
0.770059
0.768952
0.769639
0.773784
0.782143
0.79221
0.802791
0.813132
0.824674
0.839577
0.858415
0.875783
0.884623
0.885977
0.883093
0.866879
0.85201
0.849672
0.852993
0.871519
0.893813
0.904856
0.909795
0.911659
0.912178
0.912241
0.912268
0.913173
0.916797
0.920684
0.923541
0.925714
0.927152
0.928361
0.930317
0.933821
0.937904
0.942002
0.946476
0.951003
0.954521
0.956095
0.956132
0.954958
0.950085
0.933942
0.921345
0.896212
0.880873
0.843479
0.623343
0.607263
0.582665
0.568489
0.56373
0.56471
0.5697
0.57667
0.577914
0.567179
0.546398
0.542662
0.552524
0.578
0.60573
0.624058
0.618334
0.532566
0.460046
0.435407
0.426789
0.423447
0.422318
0.426749
0.442537
0.478777
0.545156
0.648666
0.777503
0.868284
0.927331
0.958421
0.972209
0.978018
0.980108
0.98065
0.980348
0.977812
0.974318
0.969258
0.960518
0.946637
0.928533
0.905731
0.876149
0.837884
0.793452
0.75471
0.720865
0.696218
0.681212
0.664976
0.657766
0.665353
0.69058
0.71699
0.731536
0.738731
0.739772
0.738854
0.736319
0.728976
0.718453
0.708607
0.687237
0.658918
0.647812
0.648996
0.656327
0.715819
0.759069
0.766202
0.790626
0.833975
0.853388
0.859558
0.864591
0.869859
0.877653
0.882394
0.883414
0.883194
0.880617
0.875696
0.869519
0.860503
0.84494
0.815552
0.786874
0.775332
0.770678
0.769688
0.772617
0.7804
0.788408
0.805281
0.818438
0.823094
0.824627
0.82444
0.819756
0.808757
0.793037
0.772858
0.752012
0.732385
0.71705
0.710194
0.709026
0.719295
0.733914
0.754085
0.76758
0.788533
0.802388
0.815953
0.825757
0.833902
0.840244
0.845328
0.849414
0.852867
0.855661
0.858036
0.859783
0.860388
0.859698
0.856093
0.845601
0.823782
0.79891
0.779388
0.769435
0.766223
0.766116
0.767773
0.773267
0.779263
0.783658
0.786779
0.791291
0.799833
0.823425
0.864135
0.887399
0.891804
0.88967
0.874096
0.851969
0.845295
0.846854
0.858876
0.877565
0.884444
0.884613
0.881914
0.877158
0.875698
0.87678
0.883919
0.897336
0.910456
0.921457
0.928582
0.932018
0.933534
0.934423
0.935681
0.938583
0.946079
0.954759
0.961212
0.964826
0.966114
0.966138
0.964804
0.959777
0.942548
0.930776
0.906771
0.615799
0.577862
0.545783
0.529413
0.52038
0.515584
0.51639
0.515719
0.516723
0.519157
0.525716
0.544869
0.568959
0.586712
0.593619
0.554372
0.492658
0.457927
0.444929
0.440501
0.44143
0.448576
0.463416
0.493224
0.551547
0.657069
0.777518
0.8849
0.940046
0.967139
0.979579
0.984345
0.985776
0.986063
0.985862
0.984892
0.984227
0.983686
0.982774
0.982127
0.981284
0.979616
0.977172
0.972827
0.964951
0.950644
0.924602
0.87774
0.819216
0.754815
0.709265
0.669448
0.644945
0.63197
0.626489
0.647063
0.675717
0.703291
0.72164
0.730381
0.734327
0.731776
0.721523
0.689702
0.657159
0.667947
0.704388
0.793919
0.808577
0.801684
0.801561
0.814804
0.838495
0.852512
0.858557
0.863953
0.871012
0.88088
0.889319
0.891174
0.890968
0.888043
0.88171
0.872532
0.860626
0.840981
0.808085
0.777759
0.7668
0.763798
0.763713
0.769662
0.780838
0.801027
0.817471
0.822077
0.822373
0.817173
0.803956
0.779305
0.739499
0.684414
0.621246
0.567719
0.533332
0.519846
0.51637
0.517579
0.528535
0.547014
0.570163
0.601572
0.634213
0.668499
0.701111
0.732483
0.760443
0.784543
0.804912
0.821655
0.835103
0.845509
0.852819
0.8577
0.861363
0.864433
0.86659
0.86706
0.86672
0.865181
0.860181
0.843055
0.810225
0.786385
0.774381
0.770714
0.770518
0.771816
0.777246
0.783696
0.787798
0.78999
0.792469
0.798126
0.815172
0.861041
0.888979
0.893708
0.887424
0.862401
0.842623
0.836698
0.837375
0.841136
0.84881
0.854358
0.858373
0.861287
0.862885
0.865529
0.872062
0.886679
0.901513
0.914384
0.925067
0.932242
0.935851
0.937244
0.937924
0.939151
0.942586
0.951488
0.959832
0.965058
0.967314
0.967673
0.967121
0.962626
0.952638
0.932747
0.613971
0.562726
0.529687
0.513292
0.503399
0.498383
0.497865
0.495592
0.496355
0.505658
0.527481
0.547883
0.558727
0.546322
0.510254
0.483011
0.470652
0.465805
0.473241
0.496321
0.531591
0.578803
0.643135
0.71143
0.802418
0.874878
0.938397
0.966778
0.979262
0.983881
0.985257
0.985507
0.985198
0.984305
0.983577
0.983015
0.982761
0.982662
0.982685
0.982922
0.983065
0.983202
0.983233
0.98321
0.982864
0.981673
0.977876
0.969496
0.951276
0.915224
0.842228
0.76489
0.685856
0.634768
0.61177
0.604671
0.604087
0.616449
0.636792
0.653732
0.660333
0.655134
0.626597
0.658527
0.756544
0.83636
0.840848
0.833155
0.828116
0.826306
0.832047
0.842302
0.850933
0.855966
0.8607
0.86743
0.877023
0.891551
0.898913
0.90006
0.898876
0.893426
0.882851
0.867949
0.849269
0.821152
0.78031
0.762404
0.757934
0.757565
0.762192
0.776212
0.802931
0.818666
0.821735
0.819601
0.807381
0.775572
0.712787
0.613774
0.514943
0.470987
0.452593
0.44692
0.446736
0.452495
0.463478
0.475444
0.489286
0.506537
0.526911
0.553248
0.587424
0.625069
0.660115
0.694485
0.72753
0.759213
0.787793
0.811501
0.829905
0.843177
0.852112
0.858583
0.863375
0.867177
0.870698
0.872297
0.8723
0.871976
0.871141
0.869211
0.864636
0.8493
0.815862
0.792466
0.780832
0.777732
0.778021
0.779545
0.785508
0.793626
0.797816
0.799447
0.801407
0.807227
0.832443
0.876157
0.891725
0.890215
0.870148
0.845202
0.831256
0.825928
0.82589
0.827158
0.831617
0.843115
0.85698
0.874008
0.888758
0.898435
0.903739
0.906711
0.911998
0.922617
0.931784
0.937411
0.939996
0.940951
0.941821
0.943796
0.949785
0.958324
0.964136
0.966671
0.967033
0.966219
0.962209
0.948076
0.613673
0.556972
0.522319
0.506047
0.49686
0.492937
0.491444
0.492641
0.498082
0.507722
0.518659
0.522847
0.514658
0.501726
0.493838
0.490481
0.501898
0.540344
0.620806
0.684641
0.751168
0.789914
0.842513
0.886115
0.930959
0.961415
0.975641
0.98107
0.982746
0.983109
0.982433
0.980041
0.978936
0.977727
0.977253
0.97702
0.976924
0.976907
0.977002
0.977145
0.977537
0.978355
0.979605
0.981417
0.983452
0.984711
0.98549
0.985803
0.98458
0.979234
0.965641
0.933028
0.861454
0.754709
0.659659
0.616923
0.600321
0.597692
0.610832
0.643151
0.658648
0.691185
0.78619
0.842421
0.846911
0.843079
0.839801
0.838321
0.837755
0.839204
0.844245
0.848634
0.852794
0.856864
0.862577
0.871691
0.886037
0.901932
0.908026
0.908893
0.907104
0.900369
0.886587
0.867202
0.839101
0.801757
0.764017
0.752698
0.750829
0.753103
0.763985
0.789486
0.815508
0.821369
0.819968
0.805223
0.758546
0.653663
0.511879
0.45388
0.429314
0.421404
0.420129
0.425053
0.438059
0.453431
0.467968
0.479486
0.491095
0.505879
0.523313
0.545351
0.575326
0.614396
0.652122
0.68759
0.721539
0.754693
0.785094
0.810638
0.830452
0.845628
0.85705
0.866475
0.872994
0.877418
0.882088
0.884132
0.883906
0.882783
0.879828
0.876175
0.873585
0.870483
0.864324
0.848843
0.822264
0.801678
0.790358
0.787346
0.787935
0.789907
0.796489
0.804155
0.806818
0.808277
0.81168
0.825849
0.869082
0.891546
0.892488
0.879369
0.845608
0.829522
0.822413
0.820448
0.8208
0.823648
0.833626
0.850912
0.870875
0.891997
0.910151
0.921951
0.926879
0.928977
0.933244
0.938883
0.942858
0.944679
0.945409
0.94636
0.9487
0.955671
0.962818
0.966431
0.967361
0.967111
0.964913
0.955737
0.613637
0.554847
0.51943
0.5035
0.495637
0.493477
0.493365
0.495748
0.502329
0.509566
0.512237
0.512532
0.510399
0.508997
0.521806
0.56059
0.652185
0.738948
0.806252
0.846497
0.881369
0.909815
0.933244
0.957034
0.970217
0.977734
0.980133
0.980709
0.98059
0.978181
0.977112
0.976473
0.976179
0.97603
0.975971
0.975953
0.975949
0.975939
0.975883
0.975703
0.975443
0.975075
0.974778
0.974639
0.975281
0.977753
0.981766
0.986131
0.988144
0.989074
0.989276
0.985407
0.973463
0.941361
0.868186
0.746529
0.672168
0.650988
0.664809
0.748882
0.816363
0.839921
0.847242
0.848152
0.845096
0.841233
0.84026
0.840136
0.840705
0.842776
0.846009
0.848816
0.852684
0.857767
0.865966
0.879765
0.897015
0.911584
0.917563
0.918119
0.915772
0.908155
0.893085
0.869861
0.839343
0.789995
0.755345
0.74639
0.745756
0.749067
0.765533
0.799854
0.819536
0.822194
0.813529
0.771812
0.666143
0.506616
0.436696
0.415633
0.411195
0.411686
0.422022
0.448703
0.481772
0.517925
0.538971
0.544383
0.539638
0.539315
0.545386
0.553051
0.574355
0.612435
0.652157
0.689413
0.724877
0.760065
0.79337
0.822232
0.843933
0.860111
0.871831
0.881835
0.889836
0.895161
0.900083
0.904739
0.905015
0.903988
0.901089
0.894164
0.885063
0.878923
0.875483
0.868915
0.859852
0.848476
0.833794
0.817143
0.803883
0.799522
0.799989
0.802155
0.808797
0.812577
0.814135
0.817281
0.828849
0.868819
0.894597
0.896837
0.886704
0.851729
0.830352
0.822574
0.821248
0.821866
0.825065
0.831873
0.846026
0.871935
0.900093
0.921977
0.934864
0.940091
0.942098
0.944741
0.947967
0.950297
0.951358
0.952096
0.953612
0.958147
0.964579
0.968069
0.968929
0.968659
0.966357
0.956912
0.617866
0.555497
0.520815
0.50809
0.502156
0.499771
0.499485
0.502839
0.509056
0.514753
0.517783
0.523143
0.535117
0.568318
0.649262
0.745393
0.82375
0.871482
0.902216
0.928166
0.942694
0.958537
0.966912
0.974914
0.978007
0.979201
0.979442
0.978482
0.976982
0.976321
0.975753
0.975483
0.975384
0.975368
0.975493
0.975659
0.975726
0.975868
0.97601
0.976065
0.976001
0.975645
0.974973
0.9739
0.972762
0.97179
0.971266
0.973651
0.981062
0.987523
0.990691
0.992325
0.992789
0.989092
0.976104
0.939365
0.843987
0.753225
0.72528
0.757431
0.829774
0.846896
0.848749
0.84566
0.841081
0.839956
0.839753
0.839839
0.840478
0.842243
0.844864
0.847551
0.852412
0.860462
0.875528
0.891885
0.906513
0.919487
0.926481
0.927813
0.924864
0.916451
0.901473
0.877705
0.843621
0.79075
0.749361
0.741304
0.739253
0.745596
0.762799
0.798515
0.821117
0.822667
0.806731
0.742885
0.605835
0.468383
0.426721
0.417941
0.418737
0.439068
0.489528
0.562529
0.642235
0.697928
0.719218
0.705046
0.646741
0.607642
0.589584
0.588286
0.592346
0.622178
0.66784
0.709659
0.749055
0.787824
0.823871
0.852154
0.870459
0.881277
0.889869
0.89869
0.908736
0.917934
0.922874
0.929541
0.931498
0.930658
0.928
0.923187
0.913071
0.898732
0.888223
0.882498
0.875789
0.86541
0.855629
0.848944
0.83985
0.826999
0.815162
0.811374
0.811819
0.81492
0.818056
0.819521
0.822704
0.834359
0.873995
0.90095
0.904113
0.896824
0.865071
0.838528
0.829164
0.828192
0.829793
0.83534
0.850349
0.886382
0.921685
0.945197
0.956274
0.959424
0.959602
0.958972
0.958319
0.958133
0.95812
0.958351
0.959453
0.963572
0.969379
0.972298
0.972828
0.972251
0.968505
0.955078
0.628281
0.572527
0.538964
0.524372
0.517223
0.514776
0.5147
0.519354
0.526525
0.535119
0.54851
0.577427
0.639688
0.726113
0.810244
0.870942
0.907561
0.934941
0.948808
0.961608
0.967658
0.973607
0.976301
0.977922
0.978388
0.978504
0.977309
0.975859
0.974924
0.973965
0.973081
0.972435
0.971585
0.971103
0.97089
0.970904
0.971783
0.972875
0.973874
0.975336
0.976019
0.976331
0.9764
0.976084
0.974818
0.97201
0.969501
0.968305
0.967944
0.971548
0.981501
0.989981
0.993815
0.995009
0.995021
0.989725
0.968592
0.900917
0.792028
0.74731
0.791517
0.839809
0.848326
0.842006
0.836489
0.835871
0.836301
0.837218
0.837753
0.838615
0.840992
0.844852
0.851232
0.86261
0.880818
0.900475
0.915211
0.927223
0.933997
0.935809
0.933698
0.926271
0.911189
0.889805
0.854368
0.797702
0.749314
0.733524
0.735051
0.737285
0.75582
0.79136
0.820823
0.825669
0.811656
0.754954
0.626748
0.480139
0.435006
0.430738
0.458246
0.537958
0.648326
0.737512
0.790803
0.812335
0.816752
0.800261
0.732277
0.646269
0.607534
0.603917
0.611242
0.641168
0.6868
0.73198
0.777584
0.819906
0.853413
0.872806
0.884147
0.893012
0.902724
0.914913
0.927652
0.942754
0.954411
0.962218
0.964346
0.963295
0.959744
0.95317
0.945182
0.932516
0.916311
0.902193
0.892294
0.883446
0.875699
0.870987
0.866596
0.857011
0.839308
0.82557
0.819129
0.818811
0.820891
0.823388
0.824781
0.828228
0.841611
0.882604
0.910478
0.915616
0.911234
0.889953
0.862634
0.856634
0.858417
0.866694
0.892495
0.928851
0.955995
0.971954
0.978458
0.979619
0.979209
0.976425
0.971604
0.968701
0.967167
0.966656
0.966759
0.968058
0.972775
0.976062
0.976606
0.975669
0.969791
0.951554
0.641401
0.599349
0.567984
0.557681
0.554613
0.555907
0.554344
0.565928
0.58059
0.6043
0.647668
0.710439
0.778887
0.845538
0.89527
0.930564
0.947822
0.962022
0.968639
0.973587
0.975923
0.977331
0.977794
0.977906
0.977692
0.976565
0.974463
0.972472
0.97039
0.967757
0.964503
0.960762
0.957075
0.954995
0.953906
0.953636
0.955953
0.959168
0.962921
0.967549
0.971869
0.974696
0.976026
0.976476
0.97646
0.975706
0.972622
0.967818
0.965375
0.964306
0.965825
0.973865
0.987102
0.993892
0.996489
0.9972
0.995822
0.986282
0.950936
0.844965
0.7734
0.801522
0.840926
0.841567
0.832541
0.83189
0.832859
0.832508
0.832466
0.833833
0.836528
0.841307
0.852137
0.872839
0.888842
0.903906
0.918347
0.931181
0.939549
0.941942
0.940854
0.935922
0.923102
0.902525
0.871531
0.814675
0.754287
0.731233
0.72651
0.72923
0.740374
0.773389
0.815303
0.827353
0.826295
0.792585
0.693051
0.534355
0.460314
0.451179
0.491267
0.597995
0.698485
0.770186
0.813398
0.82968
0.829699
0.817492
0.759526
0.662115
0.620557
0.613219
0.620614
0.653668
0.700632
0.74717
0.795641
0.837478
0.867249
0.882867
0.891371
0.901115
0.91582
0.935001
0.954357
0.970195
0.97808
0.981814
0.983498
0.983667
0.983112
0.980952
0.975155
0.964137
0.950623
0.936708
0.922181
0.907516
0.896334
0.890636
0.888131
0.885016
0.878693
0.860045
0.838143
0.827211
0.825257
0.826179
0.82787
0.829507
0.833836
0.851018
0.894261
0.922093
0.931583
0.92951
0.919715
0.917538
0.919647
0.926879
0.945667
0.965535
0.979414
0.987257
0.990386
0.990882
0.990569
0.988732
0.983304
0.978533
0.975379
0.973736
0.973391
0.973782
0.976387
0.97929
0.979717
0.978461
0.970858
0.950226
0.64972
0.625337
0.609399
0.608409
0.619539
0.624401
0.64313
0.655797
0.679766
0.713002
0.7573
0.810161
0.86393
0.908971
0.93787
0.957241
0.966394
0.972736
0.975696
0.977208
0.97778
0.97795
0.97772
0.977133
0.975521
0.972558
0.968606
0.963679
0.957282
0.950432
0.943967
0.93938
0.936057
0.934401
0.933721
0.933642
0.935148
0.937666
0.941565
0.947652
0.956075
0.965912
0.972106
0.975265
0.976394
0.976534
0.975639
0.972072
0.965286
0.962357
0.961108
0.961622
0.968476
0.984709
0.993194
0.997123
0.99834
0.9985
0.995248
0.977559
0.897519
0.792601
0.81007
0.837909
0.837061
0.829708
0.826202
0.825922
0.826845
0.827697
0.829388
0.834204
0.846985
0.87096
0.893559
0.911371
0.924215
0.935128
0.943499
0.946538
0.946193
0.943436
0.93524
0.917664
0.89115
0.844171
0.768924
0.734464
0.720348
0.720016
0.726416
0.746967
0.794291
0.82261
0.83022
0.82454
0.791098
0.7009
0.559946
0.509158
0.525546
0.567357
0.645411
0.742688
0.80491
0.828135
0.829182
0.817365
0.761601
0.664564
0.626338
0.626044
0.641241
0.687111
0.737434
0.787549
0.833275
0.866549
0.887569
0.89757
0.903992
0.917878
0.938538
0.962326
0.977399
0.983659
0.985658
0.986302
0.986843
0.987585
0.988326
0.988553
0.988157
0.986156
0.979418
0.96701
0.957741
0.948911
0.93762
0.927777
0.922834
0.920899
0.918002
0.910651
0.884759
0.850493
0.834575
0.83076
0.831043
0.83206
0.834141
0.839898
0.862568
0.908279
0.93398
0.947789
0.951255
0.953425
0.957232
0.965352
0.97625
0.985586
0.991696
0.994905
0.996104
0.996259
0.996069
0.99509
0.991537
0.986494
0.982502
0.979892
0.97891
0.978944
0.980183
0.982252
0.982485
0.980999
0.972279
0.951436
0.657355
0.650736
0.640546
0.643472
0.675167
0.701406
0.71313
0.738035
0.762469
0.790488
0.830836
0.870539
0.909761
0.940987
0.95854
0.968722
0.97387
0.976574
0.977726
0.978089
0.978084
0.977766
0.976781
0.974342
0.969979
0.964008
0.957313
0.94992
0.942585
0.936619
0.932159
0.929114
0.92744
0.926649
0.926397
0.926868
0.927792
0.929507
0.932085
0.935758
0.940218
0.947706
0.960496
0.970163
0.974813
0.976393
0.976359
0.974783
0.967755
0.961657
0.95922
0.957612
0.959076
0.96993
0.984531
0.992953
0.997313
0.998952
0.999369
0.998749
0.992149
0.938604
0.828129
0.807625
0.82474
0.831073
0.829245
0.824167
0.820285
0.819842
0.820591
0.822986
0.831185
0.855907
0.885858
0.908201
0.923875
0.935994
0.945987
0.950479
0.950542
0.949197
0.94424
0.931797
0.91278
0.876978
0.801468
0.746731
0.722687
0.713362
0.713212
0.721919
0.746505
0.799494
0.823638
0.829206
0.82516
0.806407
0.76545
0.690632
0.670629
0.682884
0.714655
0.768536
0.809078
0.824208
0.820497
0.79296
0.707994
0.640194
0.627138
0.633549
0.667056
0.72286
0.77035
0.821528
0.863409
0.888623
0.900372
0.907598
0.917313
0.937852
0.964774
0.97989
0.985737
0.987173
0.986933
0.986426
0.986493
0.987008
0.98826
0.989816
0.990719
0.990709
0.989887
0.986413
0.979912
0.974937
0.970157
0.963718
0.95923
0.958078
0.957169
0.954154
0.943437
0.904526
0.859316
0.840274
0.835999
0.835876
0.836468
0.838869
0.846895
0.877732
0.922839
0.946807
0.962054
0.970628
0.976876
0.983342
0.989482
0.994042
0.996739
0.998033
0.998481
0.998531
0.998431
0.997949
0.996297
0.992277
0.988197
0.985038
0.983453
0.983211
0.983704
0.984962
0.985036
0.983463
0.974668
0.95522
0.665447
0.673094
0.662411
0.680026
0.714563
0.739943
0.770348
0.796192
0.816858
0.844856
0.875126
0.907521
0.935105
0.956283
0.967954
0.973803
0.976639
0.97786
0.978267
0.978322
0.978014
0.977131
0.974904
0.970241
0.963757
0.956118
0.947912
0.940229
0.934145
0.929533
0.926705
0.924915
0.924061
0.923707
0.923624
0.924131
0.924986
0.926292
0.92829
0.931808
0.935556
0.940437
0.94915
0.960524
0.970411
0.97516
0.976376
0.975718
0.971512
0.961481
0.956872
0.955561
0.955211
0.961689
0.976685
0.987912
0.994386
0.99773
0.999217
0.999658
0.999543
0.996698
0.974177
0.881221
0.818345
0.815556
0.824441
0.825565
0.82381
0.819039
0.815351
0.815076
0.816948
0.824947
0.851433
0.890011
0.916306
0.93302
0.944646
0.951459
0.953664
0.95325
0.950829
0.943405
0.930242
0.906454
0.850618
0.778013
0.734289
0.715903
0.707777
0.704502
0.711618
0.73541
0.785119
0.815043
0.824232
0.824473
0.820873
0.809832
0.800346
0.803659
0.811817
0.820558
0.824895
0.820197
0.796567
0.721358
0.647083
0.628903
0.630909
0.652628
0.708664
0.747706
0.790354
0.839516
0.877446
0.897853
0.906151
0.912847
0.927497
0.957607
0.978865
0.986612
0.988024
0.987533
0.985316
0.981685
0.981129
0.981716
0.983643
0.987228
0.990304
0.992088
0.992402
0.992029
0.990209
0.987989
0.985995
0.983683
0.981531
0.979626
0.978652
0.976609
0.970663
0.951468
0.898886
0.859596
0.843675
0.840158
0.840012
0.840748
0.844138
0.856174
0.897034
0.938139
0.96024
0.974425
0.983795
0.99018
0.994532
0.997194
0.998582
0.999189
0.999388
0.99941
0.999361
0.99913
0.998418
0.996297
0.992515
0.989165
0.987163
0.986609
0.986755
0.987397
0.987412
0.986048
0.978656
0.961385
0.664601
0.690193
0.6941
0.689539
0.741472
0.779233
0.801683
0.837032
0.855311
0.876725
0.899644
0.924442
0.947025
0.963582
0.971781
0.975672
0.977515
0.978275
0.978435
0.978232
0.977335
0.975038
0.970532
0.964439
0.957224
0.949465
0.941889
0.935181
0.930287
0.926819
0.924665
0.923365
0.922655
0.922363
0.9225
0.923125
0.924046
0.925309
0.926868
0.929996
0.93428
0.938415
0.945443
0.956225
0.966781
0.97349
0.975813
0.975839
0.973604
0.963336
0.954568
0.952437
0.953024
0.957709
0.972634
0.985607
0.993156
0.996976
0.998726
0.999509
0.999811
0.999816
0.998876
0.99023
0.936136
0.844689
0.815181
0.815918
0.820836
0.820806
0.819487
0.815106
0.810927
0.811278
0.816075
0.833453
0.880936
0.916948
0.937774
0.949189
0.953966
0.955448
0.954901
0.951951
0.9446
0.929702
0.896761
0.830593
0.767311
0.729448
0.711287
0.703356
0.695789
0.698769
0.711523
0.741206
0.786706
0.806881
0.815187
0.817529
0.818897
0.822998
0.822473
0.818695
0.807248
0.776344
0.70334
0.644285
0.627296
0.628899
0.646919
0.704837
0.751108
0.784624
0.831565
0.876457
0.901063
0.91014
0.91469
0.924652
0.950109
0.976132
0.986718
0.989027
0.988355
0.984851
0.976361
0.96841
0.96662
0.967931
0.97105
0.978638
0.986174
0.99026
0.992559
0.993797
0.9938
0.993459
0.992962
0.992445
0.991654
0.990749
0.989165
0.985964
0.980648
0.968666
0.931575
0.881008
0.853217
0.844362
0.843278
0.843669
0.845421
0.850975
0.870335
0.91834
0.953002
0.972521
0.984237
0.991577
0.995851
0.9981
0.999151
0.999578
0.999717
0.999739
0.99972
0.999615
0.999289
0.998379
0.995738
0.992381
0.990152
0.989314
0.989281
0.989505
0.989478
0.988371
0.982501
0.968036
0.666568
0.682763
0.71777
0.714127
0.739626
0.788842
0.821342
0.855755
0.882718
0.902019
0.919965
0.936771
0.952989
0.966534
0.973248
0.976506
0.977951
0.97837
0.978494
0.978241
0.977083
0.974111
0.969643
0.96416
0.957254
0.949657
0.942301
0.935716
0.930814
0.927345
0.925107
0.923753
0.922914
0.922625
0.922679
0.922974
0.923825
0.925431
0.926798
0.929501
0.934308
0.938421
0.944695
0.954928
0.965643
0.972876
0.975617
0.975767
0.974078
0.96508
0.954324
0.950995
0.951268
0.955813
0.970916
0.984763
0.992773
0.996795
0.998635
0.999429
0.999772
0.999914
0.99993
0.999685
0.997009
0.977716
0.89521
0.828648
0.813948
0.814015
0.816662
0.816339
0.814765
0.809282
0.805224
0.806891
0.816475
0.850666
0.905195
0.935457
0.949614
0.954643
0.955948
0.955567
0.953154
0.946265
0.92985
0.888503
0.825798
0.771272
0.730552
0.710942
0.69718
0.690538
0.684899
0.687319
0.696056
0.715311
0.737083
0.75095
0.765398
0.763997
0.756521
0.73654
0.704192
0.656244
0.62961
0.622567
0.625391
0.644275
0.698374
0.758203
0.779458
0.817331
0.872755
0.903015
0.912763
0.916592
0.922771
0.938953
0.969544
0.98541
0.989969
0.989601
0.985911
0.972754
0.95876
0.955315
0.956681
0.961325
0.964465
0.968042
0.977118
0.985796
0.990902
0.993315
0.994775
0.995587
0.995898
0.99591
0.99581
0.995477
0.994673
0.992742
0.988181
0.978031
0.949676
0.898509
0.86314
0.848717
0.846169
0.846739
0.848073
0.85137
0.861019
0.893807
0.937356
0.966079
0.982292
0.991113
0.995805
0.998171
0.999252
0.999686
0.999833
0.999867
0.999864
0.999824
0.999675
0.999232
0.997795
0.994774
0.992516
0.991489
0.9913
0.991326
0.991264
0.990398
0.985901
0.974688
0.697039
0.683434
0.707739
0.735184
0.742059
0.782274
0.82005
0.854545
0.885066
0.908032
0.926665
0.942284
0.954353
0.966036
0.972878
0.976343
0.977908
0.978516
0.97856
0.978338
0.977353
0.974639
0.97037
0.965273
0.958875
0.951728
0.944761
0.938368
0.933286
0.929591
0.927032
0.925523
0.924389
0.924148
0.924306
0.924815
0.92585
0.928201
0.930227
0.933025
0.9386
0.944075
0.949979
0.958753
0.967802
0.973748
0.975768
0.975684
0.973646
0.96462
0.953644
0.949752
0.949926
0.955219
0.972011
0.986817
0.99447
0.997768
0.99908
0.999598
0.99981
0.999916
0.99997
0.999979
0.999929
0.999269
0.993578
0.955478
0.86379
0.823304
0.812857
0.812333
0.812598
0.811364
0.807186
0.798974
0.798641
0.803345
0.822318
0.878472
0.9246
0.945617
0.953564
0.955468
0.955345
0.953688
0.947639
0.930956
0.886679
0.829597
0.781341
0.741501
0.712493
0.696916
0.685623
0.678187
0.672674
0.666843
0.665481
0.663786
0.660243
0.652903
0.643941
0.631754
0.623937
0.617755
0.618535
0.625361
0.650128
0.713454
0.767017
0.78677
0.809497
0.859425
0.900349
0.914682
0.917659
0.919915
0.92744
0.953196
0.979214
0.989908
0.991162
0.988838
0.976707
0.956362
0.95147
0.952127
0.955739
0.963371
0.966498
0.967431
0.969974
0.978783
0.987221
0.991974
0.994396
0.995924
0.996934
0.997384
0.997449
0.997379
0.997051
0.995978
0.992722
0.983952
0.959397
0.912267
0.872924
0.853025
0.848224
0.848977
0.851336
0.853599
0.859657
0.878959
0.922133
0.955979
0.977429
0.989281
0.99523
0.997998
0.999205
0.999693
0.99987
0.999921
0.999927
0.999914
0.999847
0.999613
0.998808
0.996456
0.994302
0.993222
0.992908
0.992866
0.992782
0.992121
0.988803
0.98088
0.809729
0.706965
0.703795
0.72914
0.747325
0.771321
0.813208
0.848073
0.881394
0.906227
0.925699
0.94178
0.95352
0.964457
0.97168
0.975695
0.977657
0.978478
0.978699
0.978586
0.978
0.976195
0.972199
0.96756
0.962398
0.956386
0.95033
0.944378
0.939184
0.934998
0.931687
0.929895
0.928295
0.928147
0.928426
0.929145
0.930529
0.932966
0.934953
0.938686
0.944556
0.949438
0.95622
0.965676
0.973187
0.975872
0.976189
0.975549
0.97156
0.95865
0.949155
0.946461
0.948326
0.958077
0.979086
0.991148
0.996592
0.998783
0.99958
0.99985
0.99994
0.999969
0.999982
0.999992
0.999993
0.999979
0.999765
0.997668
0.981816
0.908005
0.841565
0.816806
0.809585
0.808482
0.806749
0.802218
0.793215
0.791171
0.793415
0.804966
0.841678
0.904425
0.936678
0.950057
0.95429
0.954439
0.953361
0.948283
0.932432
0.892759
0.832037
0.795023
0.759805
0.726948
0.702148
0.686799
0.676032
0.666367
0.657504
0.649543
0.641329
0.633439
0.626959
0.621663
0.622186
0.627094
0.641952
0.674549
0.743845
0.778066
0.794484
0.810014
0.848591
0.903963