/*--------------------------------*- C++ -*----------------------------------*\
  =========                 |
  \\      /  F ield         | OpenFOAM: The Open Source CFD Toolbox
   \\    /   O peration     | Website:  https://openfoam.org
    \\  /    A nd           | Version:  9
     \\/     M anipulation  |
\*---------------------------------------------------------------------------*/
FoamFile
{
    format      ascii;
    class       volVectorField;
    location    "0.056";
    object      U;
}
// * * * * * * * * * * * * * * * * * * * * * * * * * * * * * * * * * * * * * //

dimensions      [0 1 -1 0 0 0 0];

internalField   nonuniform List<vector> 
12225
(
(9.90561 0.0774724 0)
(9.52172 0.0884144 0)
(9.29102 0.0582599 0)
(9.0502 0.0609007 0)
(8.74389 0.0733727 0)
(8.3644 0.0800384 0)
(7.96152 0.0784558 0)
(7.60624 0.0703069 0)
(7.31897 0.0615353 0)
(7.09383 0.0621817 0)
(6.84572 0.0766552 0)
(6.56806 0.0966366 0)
(6.18308 0.111258 0)
(5.82963 0.111682 0)
(5.36843 0.10598 0)
(5.07644 0.0947628 0)
(4.57079 0.112628 0)
(4.29743 0.106422 0)
(10.0384 0.0503753 0)
(10.1033 0.0628931 0)
(10.0799 0.0422449 0)
(10.0922 0.0567014 0)
(10.1519 0.083582 0)
(10.1764 0.112338 0)
(10.1274 0.122243 0)
(10.0399 0.108376 0)
(9.94326 0.0843326 0)
(9.86181 0.0729215 0)
(9.77174 0.0805868 0)
(9.68521 0.106772 0)
(9.55787 0.13254 0)
(9.44236 0.15591 0)
(9.28098 0.171378 0)
(9.15432 0.181611 0)
(8.96128 0.211794 0)
(8.7915 0.241836 0)
(10.0964 0.0339396 0)
(10.1205 0.0983827 0)
(10.1224 0.0715115 0)
(10.067 0.0490957 0)
(10.0456 0.0527819 0)
(10.0831 0.0805132 0)
(10.1562 0.107506 0)
(10.2251 0.115716 0)
(10.2509 0.109899 0)
(10.2242 0.110799 0)
(10.1553 0.128763 0)
(10.0733 0.161997 0)
(9.9935 0.19487 0)
(9.92751 0.217254 0)
(9.87379 0.229386 0)
(9.82816 0.237821 0)
(9.79211 0.263992 0)
(9.75467 0.300876 0)
(9.90352 0.114641 0)
(9.92895 0.0589271 0)
(10.0311 0.0519928 0)
(10.0388 0.0715683 0)
(10.0152 0.0810369 0)
(10.0304 0.086769 0)
(10.0981 0.0885936 0)
(10.171 0.0867098 0)
(10.1933 0.0904151 0)
(10.1506 0.110055 0)
(10.0675 0.142314 0)
(9.97853 0.176902 0)
(9.90702 0.200875 0)
(9.85664 0.209768 0)
(9.82198 0.21192 0)
(9.7955 0.217022 0)
(9.77133 0.239739 0)
(9.75408 0.281726 0)
(10.075 0.0854095 0)
(10.0658 0.0741879 0)
(10.0744 0.0558593 0)
(10.0463 0.0593197 0)
(10.0197 0.0537057 0)
(10.0376 0.0476179 0)
(10.0942 0.0555559 0)
(10.1396 0.0794991 0)
(10.1278 0.113534 0)
(10.0566 0.151758 0)
(9.95961 0.187703 0)
(9.87516 0.217041 0)
(9.8239 0.236463 0)
(9.80455 0.247421 0)
(9.80056 0.255338 0)
(9.79765 0.267667 0)
(9.7825 0.291028 0)
(9.7509 0.328822 0)
(10.1785 0.0207879 0)
(10.1711 0.0641087 0)
(9.99914 0.0569598 0)
(9.92826 0.075372 0)
(9.97025 0.0813453 0)
(10.0239 0.066891 0)
(10.0437 0.0604467 0)
(10.0326 0.0813118 0)
(9.99922 0.125836 0)
(9.95207 0.17698 0)
(9.90127 0.216162 0)
(9.85755 0.234666 0)
(9.82746 0.234362 0)
(9.81096 0.225398 0)
(9.80419 0.220588 0)
(9.80251 0.230476 0)
(9.80374 0.26101 0)
(9.80221 0.3155 0)
(9.87806 -0.000997321 0)
(9.97007 0.145174 0)
(10.0033 0.147851 0)
(10.0548 0.076599 0)
(10.1022 0.0251293 0)
(10.0808 0.0184691 0)
(10.0025 0.0478503 0)
(9.92756 0.0940692 0)
(9.89771 0.143589 0)
(9.91466 0.18938 0)
(9.94897 0.225509 0)
(9.96693 0.248632 0)
(9.94884 0.25895 0)
(9.89582 0.260829 0)
(9.82244 0.260725 0)
(9.75117 0.267386 0)
(9.69497 0.286245 0)
(9.66817 0.328114 0)
(9.7186 -0.0544333 0)
(9.73589 0.00809292 0)
(9.921 0.0111284 0)
(10.0612 0.0247501 0)
(10.0467 0.0717037 0)
(9.91414 0.110891 0)
(9.77095 0.126921 0)
(9.69469 0.127545 0)
(9.70463 0.132326 0)
(9.78288 0.154399 0)
(9.89423 0.191762 0)
(10.0052 0.233734 0)
(10.0905 0.268831 0)
(10.1387 0.29087 0)
(10.1417 0.300037 0)
(10.1058 0.305339 0)
(10.0379 0.315458 0)
(9.9555 0.342745 0)
(10.0717 0.0916659 0)
(9.89432 0.107572 0)
(9.89169 0.0488077 0)
(9.9685 0.0541886 0)
(10.0549 0.093146 0)
(10.1089 0.124974 0)
(10.1145 0.129558 0)
(10.0697 0.113485 0)
(10.0004 0.0966603 0)
(9.94666 0.0947951 0)
(9.93118 0.111863 0)
(9.95285 0.144502 0)
(9.99223 0.185856 0)
(10.0281 0.231681 0)
(10.0383 0.278395 0)
(10.0191 0.326223 0)
(9.96949 0.37495 0)
(9.90842 0.422583 0)
(9.87204 0.0914919 0)
(9.96566 0.0582337 0)
(9.9573 -0.0367732 0)
(9.95822 -0.0575831 0)
(9.99927 -0.000194347 0)
(10.0488 0.0852483 0)
(10.0743 0.155964 0)
(10.0729 0.194732 0)
(10.059 0.20504 0)
(10.0471 0.201295 0)
(10.0407 0.198736 0)
(10.0351 0.207897 0)
(10.023 0.231321 0)
(9.99785 0.267143 0)
(9.95795 0.308563 0)
(9.90665 0.352498 0)
(9.85417 0.3943 0)
(9.80857 0.435573 0)
(9.96892 0.0595993 0)
(10.0265 0.0835944 0)
(10.0893 0.0738361 0)
(10.058 0.0532685 0)
(9.93579 0.0673126 0)
(9.82239 0.0923743 0)
(9.78115 0.104202 0)
(9.80913 0.0995977 0)
(9.87822 0.0898656 0)
(9.95703 0.0893774 0)
(10.0186 0.107666 0)
(10.0502 0.148282 0)
(10.0547 0.206854 0)
(10.0415 0.275376 0)
(10.0244 0.342728 0)
(10.007 0.401665 0)
(10.0013 0.448297 0)
(9.99606 0.482845 0)
(10.0745 -0.0429018 0)
(10.0528 -0.000104211 0)
(10.0807 -0.0537612 0)
(10.0989 -0.00278442 0)
(10.0645 0.0960568 0)
(10.0014 0.160222 0)
(9.95741 0.173056 0)
(9.94851 0.156471 0)
(9.9614 0.136573 0)
(9.97871 0.131791 0)
(9.98885 0.149106 0)
(9.98934 0.185465 0)
(9.98624 0.233119 0)
(9.98477 0.282344 0)
(9.99271 0.327092 0)
(10.009 0.364749 0)
(10.0362 0.397081 0)
(10.0688 0.431176 0)
(10.2556 0.00299361 0)
(10.1584 0.107429 0)
(10.0688 0.0743053 0)
(9.9818 0.0845422 0)
(9.92479 0.129307 0)
(9.92432 0.143244 0)
(9.9753 0.118009 0)
(10.0362 0.0789596 0)
(10.0768 0.0549385 0)
(10.0894 0.0601693 0)
(10.0783 0.0947975 0)
(10.0525 0.150145 0)
(10.0254 0.215272 0)
(10.0055 0.27966 0)
(9.99814 0.334565 0)
(10.0058 0.378866 0)
(10.0252 0.410519 0)
(10.0611 0.438866 0)
(10.0186 0.137464 0)
(10.0161 0.0732805 0)
(10.1273 -0.00238378 0)
(10.26 0.0388834 0)
(10.3324 0.0976615 0)
(10.3274 0.123427 0)
(10.2606 0.122585 0)
(10.1607 0.119898 0)
(10.059 0.131634 0)
(9.97437 0.158273 0)
(9.91134 0.193597 0)
(9.86995 0.231622 0)
(9.84809 0.267751 0)
(9.84665 0.297844 0)
(9.86046 0.317808 0)
(9.89021 0.330782 0)
(9.92887 0.33665 0)
(9.97757 0.347539 0)
(10.0797 0.122872 0)
(10.2006 0.0106325 0)
(10.2115 -0.0700018 0)
(10.1954 -0.0163306 0)
(10.1722 0.108836 0)
(10.1464 0.212878 0)
(10.1147 0.245476 0)
(10.0827 0.219896 0)
(10.0639 0.179865 0)
(10.0628 0.158905 0)
(10.0746 0.166098 0)
(10.0957 0.19468 0)
(10.1233 0.232185 0)
(10.1554 0.269032 0)
(10.1858 0.29817 0)
(10.2094 0.318824 0)
(10.2228 0.333011 0)
(10.2223 0.344168 0)
(9.96652 0.0142451 0)
(9.97163 -0.0230891 0)
(9.9673 0.0423209 0)
(9.88512 0.0869112 0)
(9.85046 0.115906 0)
(9.90712 0.140769 0)
(9.99061 0.150872 0)
(10.043 0.147691 0)
(10.0539 0.144246 0)
(10.0384 0.148723 0)
(10.0171 0.160852 0)
(10.0052 0.178199 0)
(10.0097 0.198809 0)
(10.0282 0.222835 0)
(10.057 0.250342 0)
(10.0905 0.281854 0)
(10.1262 0.316406 0)
(10.1626 0.353691 0)
(10.1661 0.140821 0)
(10.0733 0.050194 0)
(10.0565 -0.00157748 0)
(10.0261 0.0354948 0)
(9.99614 0.0770951 0)
(9.98672 0.100328 0)
(9.97989 0.126008 0)
(9.96372 0.162235 0)
(9.9467 0.196243 0)
(9.93878 0.214954 0)
(9.94294 0.217655 0)
(9.95947 0.212904 0)
(9.98615 0.209083 0)
(10.0196 0.209242 0)
(10.0558 0.210585 0)
(10.0935 0.212943 0)
(10.1308 0.213727 0)
(10.169 0.220165 0)
(9.93698 -0.0753154 0)
(9.95278 0.0827722 0)
(9.96124 0.188926 0)
(9.93159 0.189608 0)
(9.90594 0.177069 0)
(9.91558 0.182176 0)
(9.92447 0.189478 0)
(9.91851 0.184297 0)
(9.91251 0.164807 0)
(9.9156 0.13764 0)
(9.92829 0.111532 0)
(9.95238 0.0941934 0)
(9.98813 0.0899696 0)
(10.0325 0.0997475 0)
(10.078 0.121263 0)
(10.1199 0.151276 0)
(10.1538 0.186084 0)
(10.1799 0.222912 0)
(9.76394 -0.0396745 0)
(9.78424 -0.00905608 0)
(9.77631 0.027075 0)
(9.78302 0.0296766 0)
(9.83325 0.0314191 0)
(9.90926 0.0487536 0)
(9.98833 0.0952428 0)
(10.0606 0.156839 0)
(10.1206 0.199414 0)
(10.1577 0.201673 0)
(10.166 0.165354 0)
(10.1527 0.110165 0)
(10.131 0.0587287 0)
(10.1131 0.0271964 0)
(10.1048 0.0205393 0)
(10.1082 0.0355346 0)
(10.1206 0.0639701 0)
(10.1396 0.0977476 0)
(10.228 0.117873 0)
(10.156 0.127927 0)
(10.1258 0.13415 0)
(10.0692 0.0927156 0)
(9.99254 0.0253047 0)
(9.94779 -0.0297423 0)
(9.95627 -0.0506939 0)
(10.0025 -0.0304405 0)
(10.0689 0.0207569 0)
(10.133 0.0813739 0)
(10.1732 0.135502 0)
(10.1848 0.169028 0)
(10.1767 0.175263 0)
(10.1611 0.159024 0)
(10.1471 0.134275 0)
(10.1384 0.114837 0)
(10.1362 0.10954 0)
(10.1389 0.12095 0)
(9.91636 0.187587 0)
(9.88179 0.13939 0)
(9.95704 0.138654 0)
(10.0576 0.152034 0)
(10.1369 0.12821 0)
(10.1667 0.0629147 0)
(10.1669 -0.0121047 0)
(10.1629 -0.0525888 0)
(10.1577 -0.0397445 0)
(10.157 0.0110776 0)
(10.1669 0.0670338 0)
(10.1827 0.102097 0)
(10.2017 0.10819 0)
(10.222 0.0937468 0)
(10.2408 0.0743893 0)
(10.2563 0.0625224 0)
(10.2685 0.0634317 0)
(10.2796 0.0762015 0)
(10.0898 0.113684 0)
(10.0209 0.118721 0)
(10.0518 0.0196009 0)
(10.0954 -0.0397568 0)
(10.139 -0.0406393 0)
(10.1561 -0.0265964 0)
(10.1411 -0.0192458 0)
(10.1117 -0.00658937 0)
(10.0988 0.0262318 0)
(10.1203 0.0745962 0)
(10.168 0.114179 0)
(10.2217 0.131009 0)
(10.2623 0.124548 0)
(10.2805 0.104957 0)
(10.2772 0.0852305 0)
(10.2606 0.0739749 0)
(10.2393 0.0734979 0)
(10.223 0.0805009 0)
(9.95555 -0.037948 0)
(10.0609 0.100154 0)
(10.108 0.0450162 0)
(10.0691 0.0316836 0)
(10.0246 0.0360444 0)
(10.0384 0.0365767 0)
(10.0998 0.019391 0)
(10.1624 -0.0166957 0)
(10.1946 -0.052747 0)
(10.1969 -0.0683301 0)
(10.1876 -0.0551388 0)
(10.18 -0.0198504 0)
(10.1778 0.0238837 0)
(10.1828 0.0631438 0)
(10.1972 0.0907108 0)
(10.2198 0.105477 0)
(10.2491 0.109453 0)
(10.2806 0.105355 0)
(10.0527 -0.146019 0)
(10.1262 -0.00425739 0)
(10.1558 0.0418664 0)
(10.2027 0.0505335 0)
(10.2274 0.00897778 0)
(10.2411 -0.0634246 0)
(10.2481 -0.100856 0)
(10.2464 -0.0744646 0)
(10.2245 -0.00484065 0)
(10.1735 0.0696532 0)
(10.1042 0.121246 0)
(10.0412 0.136934 0)
(10.005 0.122208 0)
(10.0032 0.0901469 0)
(10.0332 0.0550192 0)
(10.0843 0.0270627 0)
(10.1453 0.0114958 0)
(10.2056 0.0106147 0)
(9.87305 -0.160543 0)
(9.91296 -0.0146991 0)
(10.0287 -0.011894 0)
(10.1686 -0.0265298 0)
(10.2131 -0.00704579 0)
(10.1271 -0.00391525 0)
(9.98425 -0.0198051 0)
(9.88058 -0.0234353 0)
(9.86637 -0.00057196 0)
(9.9353 0.0352996 0)
(10.0498 0.0649359 0)
(10.1698 0.0733098 0)
(10.2675 0.0577426 0)
(10.3299 0.0270682 0)
(10.3583 -0.00559466 0)
(10.364 -0.0307947 0)
(10.3597 -0.0442713 0)
(10.3554 -0.0437753 0)
(10.1059 -0.0326432 0)
(10.1481 -0.103448 0)
(10.1484 -0.103749 0)
(10.1228 -0.0471196 0)
(10.1521 0.0428401 0)
(10.231 0.0984476 0)
(10.3083 0.0810838 0)
(10.3505 0.019543 0)
(10.3527 -0.0342747 0)
(10.3301 -0.0554319 0)
(10.2994 -0.0485377 0)
(10.2712 -0.0263396 0)
(10.2541 -0.00272952 0)
(10.2533 0.0145842 0)
(10.2682 0.0222351 0)
(10.2926 0.0226769 0)
(10.3211 0.0183078 0)
(10.3482 0.0116935 0)
(9.89197 -0.0816682 0)
(9.87679 -0.0364026 0)
(9.83532 -0.0179191 0)
(9.79183 -0.0382922 0)
(9.78944 -0.0672347 0)
(9.83545 -0.0824306 0)
(9.89867 -0.0782615 0)
(9.95745 -0.0505237 0)
(10.0091 -0.00225096 0)
(10.0604 0.0493339 0)
(10.1187 0.0805861 0)
(10.1834 0.0808249 0)
(10.246 0.0530046 0)
(10.2973 0.00832985 0)
(10.3321 -0.0379131 0)
(10.3524 -0.0725673 0)
(10.3612 -0.088069 0)
(10.3661 -0.0833524 0)
(9.85117 -0.0714202 0)
(10.007 -0.0448148 0)
(10.084 -0.0511307 0)
(10.1419 -0.0231628 0)
(10.1801 0.0173688 0)
(10.1831 0.0313579 0)
(10.15 0.00702983 0)
(10.1079 -0.036964 0)
(10.091 -0.075077 0)
(10.118 -0.09322 0)
(10.1856 -0.092025 0)
(10.2722 -0.0784954 0)
(10.3502 -0.0575268 0)
(10.3986 -0.0340957 0)
(10.4108 -0.0139879 0)
(10.3953 -0.00211821 0)
(10.3672 -0.00136516 0)
(10.3434 -0.00929141 0)
(10.0358 -0.0980582 0)
(10.0612 -0.0923835 0)
(10.0579 -0.0804708 0)
(10.0807 -0.0865173 0)
(10.1472 -0.0778987 0)
(10.2389 -0.0585774 0)
(10.304 -0.0432012 0)
(10.3158 -0.0340847 0)
(10.287 -0.0281234 0)
(10.2472 -0.0255899 0)
(10.2193 -0.0275207 0)
(10.2097 -0.0326238 0)
(10.2142 -0.0373805 0)
(10.2276 -0.0401424 0)
(10.2465 -0.0415339 0)
(10.2697 -0.0426011 0)
(10.2945 -0.0450207 0)
(10.3192 -0.048019 0)
(10.0061 -0.0641791 0)
(9.82351 -0.0432607 0)
(9.60259 -0.0513789 0)
(9.35296 -0.0506968 0)
(9.13071 -0.0431629 0)
(8.97193 -0.0320483 0)
(8.85961 -0.0241222 0)
(8.76987 -0.0244591 0)
(8.68494 -0.0333777 0)
(8.59106 -0.0463229 0)
(8.48253 -0.0564519 0)
(8.36383 -0.0587675 0)
(8.24635 -0.0522504 0)
(8.14319 -0.0411536 0)
(8.05576 -0.0321105 0)
(7.98073 -0.029467 0)
(7.90516 -0.0342444 0)
(7.82487 -0.0412573 0)
(-0.0121881 0.167235 8.02905e-20)
(0.0220883 0.0631136 -7.97206e-20)
(0.11406 -0.0465574 0)
(0.224567 -0.133386 0)
(0.3307 -0.192326 0)
(0.41622 -0.243448 7.7162e-20)
(0.48986 -0.278713 0)
(0.586387 -0.308722 0)
(0.71347 -0.32701 0)
(0.877191 -0.326187 0)
(1.06453 -0.295208 -7.4009e-20)
(1.24462 -0.213448 0)
(1.37698 -0.0578565 0)
(1.38236 0.136253 0)
(1.25947 0.345174 0)
(0.975473 0.530217 -7.13177e-20)
(0.54441 0.444029 0)
(0.18712 0.148922 0)
(-0.0189934 -0.0151701 0)
(-0.0810691 -0.0684326 0)
(-0.0857293 -0.0960033 0)
(-0.135201 -0.110512 0)
(-0.248686 -0.0791565 0)
(-0.441069 0.0208324 -6.71434e-20)
(-0.739409 0.160869 6.65589e-20)
(-1.15571 0.296053 -6.59545e-20)
(-1.68423 0.408679 -6.5321e-20)
(-2.32034 0.526246 0)
(-3.06527 0.67749 0)
(-3.88472 0.799654 6.32078e-20)
(-4.65225 0.745041 6.24505e-20)
(-5.21523 0.512163 0)
(-5.55144 0.304128 0)
(-5.77343 0.244955 6.03467e-20)
(-5.97205 0.255792 0)
(-6.1469 0.225314 0)
(-6.25859 0.129549 -5.86552e-20)
(-6.26865 0.0111021 0)
(-6.1651 -0.0847134 -5.77864e-20)
(-5.97156 -0.152935 -1.14857e-19)
(-5.69062 -0.20705 0)
(-5.3303 -0.25351 0)
(-4.89785 -0.296253 0)
(-4.40012 -0.336822 0)
(-3.84754 -0.370779 0)
(-3.25688 -0.388617 -1.11689e-19)
(-2.65131 -0.379143 -1.11145e-19)
(-2.05841 -0.336824 -1.10551e-19)
(-1.50376 -0.268397 0)
(-1.00323 -0.190686 1.09197e-19)
(-0.561796 -0.112048 0)
(-0.219845 -0.0200876 -1.07621e-19)
(-0.00361907 0.0518503 -1.06746e-19)
(0.0681737 0.0383998 0)
(0.0381255 -0.0108444 0)
(-0.104378 -0.0647387 0)
(-0.31831 -0.0645496 -1.028e-19)
(-0.550873 0.0171747 0)
(-0.780649 0.133469 0)
(-1.00118 0.220834 0)
(-1.18462 0.228613 0)
(-1.24019 0.137073 0)
(-1.12944 -0.0232751 0)
(-0.870331 -0.190805 0)
(-0.46738 -0.324593 0)
(0.0494256 -0.408022 9.44586e-20)
(0.621555 -0.460186 0)
(1.19196 -0.512413 0)
(1.74942 -0.552888 -9.18865e-20)
(2.29036 -0.409726 -9.09748e-20)
(2.76133 -0.120047 0)
(2.91502 -0.030469 8.92631e-20)
(2.45325 0.0940842 -8.85233e-20)
(1.76646 0.329045 0)
(1.54365 0.167865 8.70183e-20)
(1.64886 -0.184222 0)
(1.82041 -0.402021 0)
(1.94757 -0.409128 -8.40622e-20)
(1.97051 -0.263741 0)
(1.87561 -0.102368 8.20397e-20)
(1.69732 -0.000949168 0)
(1.46426 0.052168 -8.00529e-20)
(1.16357 0.0918486 -7.90974e-20)
(0.758828 0.142442 -7.81545e-20)
(0.220175 0.223516 -1.54385e-19)
(-0.470312 0.333224 1.52268e-19)
(-1.32228 0.450353 0)
(-2.31784 0.550108 0)
(-3.40966 0.615519 0)
(-4.54207 0.642944 1.41772e-19)
(-5.66879 0.638401 1.38663e-19)
(-6.75754 0.611441 -1.3541e-19)
(-7.7873 0.570626 0)
(-8.74693 0.523439 1.28686e-19)
(-9.63261 0.474948 1.25319e-19)
(-10.4436 0.426866 1.22012e-19)
(-11.1786 0.379189 0)
(-11.8349 0.331595 0)
(-12.4088 0.283477 0)
(-12.8953 0.23412 1.10358e-19)
(-13.2889 0.182822 0)
(-13.5813 0.128984 0)
(-13.7623 0.0727498 -1.04726e-19)
(-13.8202 0.0152259 0)
(-13.7485 -0.0425202 0)
(-13.5566 -0.0998351 -1.03033e-19)
(-13.2313 -0.156082 0)
(-12.7823 -0.208631 0)
(-12.2141 -0.255978 1.05171e-19)
(-11.5421 -0.295787 1.0642e-19)
(-10.7823 -0.326953 0)
(-9.95568 -0.348533 -1.09074e-19)
(-9.08306 -0.360945 0)
(-8.18419 -0.365385 1.11266e-19)
(-7.27416 -0.364238 0)
(-6.36176 -0.360516 1.12532e-19)
(-5.4502 -0.356835 1.12798e-19)
(-4.53796 -0.355015 0)
(-3.62001 -0.355727 0)
(-2.69028 -0.358222 0)
(-1.74521 -0.359345 0)
(-0.786673 -0.356188 0)
(0.173681 -0.352339 0)
(1.11785 -0.341225 0)
(2.0326 -0.322147 1.07237e-19)
(2.89658 -0.295648 -1.05423e-19)
(3.69086 -0.263093 0)
(4.39986 -0.226178 0)
(5.01182 -0.186662 0)
(5.51903 -0.14625 0)
(5.91808 -0.106583 -1.88768e-19)
(6.21006 -0.0692153 0)
(6.40027 -0.0354511 1.79621e-19)
(6.4981 -0.00630831 -1.75242e-19)
(6.51566 0.0173932 0)
(6.46684 0.0355939 0)
(6.37023 0.0481481 0)
(6.24314 0.0539331 1.59644e-19)
(6.10248 0.0560541 1.56296e-19)
(5.95479 0.0576862 0)
(5.80647 0.056148 1.50296e-19)
(5.66191 0.0535673 1.47637e-19)
(5.51761 0.0587179 -1.45189e-19)
(5.36137 0.0757693 0)
(5.17572 0.0999426 0)
(4.94688 0.121166 -1.38847e-19)
(4.67335 0.130718 0)
(4.36953 0.125695 0)
(4.06073 0.109351 0)
(3.7701 0.0875813 0)
(3.5108 0.0653171 1.29775e-19)
(3.28599 0.0472422 1.27985e-19)
(3.08802 0.0377023 0)
(2.90163 0.0363723 1.24313e-19)
(2.7172 0.0361758 0)
(2.53748 0.0333013 0)
(2.36857 0.0327166 1.18545e-19)
(2.21536 0.0352102 0)
(2.0916 0.0309086 1.14745e-19)
(2.02093 0.0205882 0)
(2.004 0.0289641 0)
(1.98404 0.0724621 1.09486e-19)
(1.88271 0.117732 0)
(1.69587 0.116391 1.0607e-19)
(1.50375 0.0711097 0)
(1.38469 0.0198398 0)
(1.36257 -0.0195184 0)
(1.4197 -0.038429 -9.89758e-20)
(1.51488 -0.0383062 0)
(1.61253 -0.0288372 9.54141e-20)
(1.68306 -0.0168189 0)
(1.7127 -0.00398028 0)
(1.69434 0.00977538 0)
(1.63961 0.0192095 0)
(1.567 0.0194135 0)
(1.48231 0.00790529 0)
(1.43178 0.0051523 0)
(1.30955 -0.00477439 -1.61554e-19)
(1.34769 0.0286788 0)
(1.00895 0.0185853 0)
(0.10094 -0.181958 -2.4083e-19)
(0.434561 -0.326359 2.38759e-19)
(0.821571 -0.351147 0)
(1.16484 -0.307278 -1.56358e-19)
(1.42764 -0.209434 0)
(1.61655 -0.0890434 -7.68573e-20)
(1.74118 -0.0280407 1.52333e-19)
(1.80093 -0.109556 1.51065e-19)
(1.80691 -0.275017 0)
(1.77902 -0.406417 1.48663e-19)
(1.72939 -0.460476 7.38427e-20)
(1.68159 -0.387434 0)
(1.64425 -0.171907 0)
(1.55305 0.107462 0)
(1.38286 0.408296 0)
(1.17265 0.739632 7.12156e-20)
(0.894677 0.964756 0)
(0.636045 0.904461 -1.40418e-19)
(0.451321 0.549903 0)
(0.252413 0.19804 0)
(-0.0339198 0.195579 1.37466e-19)
(-0.418391 0.423939 0)
(-0.923915 0.659993 -1.34945e-19)
(-1.50287 0.913352 6.68899e-20)
(-2.136 1.17093 -6.62383e-20)
(-2.82925 1.41257 6.55804e-20)
(-3.57105 1.65719 6.49108e-20)
(-4.31317 1.86958 0)
(-4.96006 1.92911 0)
(-5.43542 1.73524 -6.28837e-20)
(-5.74874 1.32347 6.16533e-20)
(-5.97971 0.875928 0)
(-6.20054 0.572255 0)
(-6.40479 0.430674 -6.0233e-20)
(-6.53828 0.346981 0)
(-6.57739 0.230148 0)
(-6.54169 0.0580239 5.86166e-20)
(-6.45832 -0.144289 0)
(-6.32837 -0.34973 -5.74168e-20)
(-6.12768 -0.549518 1.1476e-19)
(-5.85828 -0.739738 0)
(-5.51919 -0.91333 0)
(-5.11249 -1.06703 2.25313e-19)
(-4.64452 -1.19535 2.24296e-19)
(-4.12478 -1.29145 2.23298e-19)
(-3.56442 -1.34735 -1.10806e-19)
(-2.97377 -1.35604 1.1093e-19)
(-2.36109 -1.31567 3.3046e-19)
(-1.73159 -1.23076 -2.18945e-19)
(-1.09032 -1.10799 -1.09058e-19)
(-0.444475 -0.949652 0)
(0.169225 -0.72862 1.07514e-19)
(0.757424 -0.433786 -1.06281e-19)
(1.27441 -0.0999446 0)
(1.6635 0.246505 0)
(1.87068 0.545369 0)
(1.86336 0.694838 1.02477e-19)
(1.6798 0.656578 0)
(1.41934 0.49586 -2.00997e-19)
(1.17252 0.29281 0)
(1.01024 0.0667597 -1.9698e-19)
(0.91709 -0.191951 0)
(0.947193 -0.478009 1.93161e-19)
(1.11452 -0.751398 0)
(1.38931 -0.948248 -1.89713e-19)
(1.70932 -1.05039 9.39638e-20)
(2.02168 -1.0553 0)
(2.30753 -0.949819 1.84805e-19)
(2.47216 -0.872015 9.17092e-20)
(2.49768 -0.863292 9.08879e-20)
(2.57564 -0.535977 0)
(2.54225 0.343636 8.91773e-20)
(2.15303 1.06902 8.8508e-20)
(2.0082 0.74781 0)
(2.06071 -0.0457407 -8.69927e-20)
(1.71473 -0.188699 1.72449e-19)
(1.06161 0.090346 0)
(0.376671 0.286743 8.44272e-20)
(-0.221058 0.370252 0)
(-0.734177 0.420041 -2.47057e-19)
(-1.20612 0.473496 0)
(-1.68734 0.560193 2.4038e-19)
(-2.2165 0.695967 7.89782e-20)
(-2.8182 0.875921 -7.78844e-20)
(-3.50527 1.08066 -1.53364e-19)
(-4.2697 1.28054 1.50861e-19)
(-5.08715 1.44426 0)
(-5.92585 1.55025 0)
(-6.7545 1.59206 0)
(-7.54988 1.57644 -4.21551e-19)
(-8.29923 1.51693 -1.37919e-19)
(-8.99772 1.42874 1.34779e-19)
(-9.64537 1.32522 0)
(-10.2448 1.2163 1.2711e-19)
(-10.7989 1.10731 -1.24981e-19)
(-11.3094 0.999582 -1.2175e-19)
(-11.7755 0.892091 0)
(-12.1941 0.782517 0)
(-12.5602 0.668292 0)
(-12.8681 0.547549 -1.10312e-19)
(-13.1112 0.418854 0)
(-13.2816 0.280716 2.11438e-19)
(-13.3696 0.132234 3.13295e-19)
(-13.3655 -0.0260363 -2.06479e-19)
(-13.2569 -0.191609 0)
(-13.0183 -0.359706 -1.02062e-19)
(-12.6575 -0.524849 0)
(-12.1702 -0.679854 -2.07375e-19)
(-11.5688 -0.818799 1.04348e-19)
(-10.8648 -0.935939 1.0568e-19)
(-10.0773 -1.0273 0)
(-9.22692 -1.09051 3.26633e-19)
(-8.33604 -1.12617 -2.20039e-19)
(-7.42511 -1.13803 -1.11247e-19)
(-6.5095 -1.13283 0)
(-5.5974 -1.1196 -1.12515e-19)
(-4.69056 -1.10641 -3.37947e-19)
(-3.78629 -1.09868 0)
(-2.87785 -1.09871 -2.24896e-19)
(-1.95746 -1.10512 -2.24221e-19)
(-1.02166 -1.10951 -2.23218e-19)
(-0.0726087 -1.10481 0)
(0.88053 -1.0925 0)
(1.81599 -1.05683 0)
(2.71714 -0.999579 1.06764e-19)
(3.56274 -0.92242 1.05243e-19)
(4.33434 -0.828493 0)
(5.0184 -0.721874 2.02122e-19)
(5.60638 -0.607014 1.97681e-19)
(6.09399 -0.488647 0)
(6.48015 -0.371485 1.88587e-19)
(6.76662 -0.259933 3.67776e-19)
(6.95831 -0.157715 -1.79491e-19)
(7.06354 -0.0682173 -1.7489e-19)
(7.09539 0.0054643 0)
(7.06974 0.0622351 0)
(6.99966 0.101684 0)
(6.90017 0.124465 -1.59518e-19)
(6.7828 0.134024 1.55874e-19)
(6.6631 0.136148 3.05815e-19)
(6.55145 0.134422 -1.50164e-19)
(6.44577 0.130818 1.47249e-19)
(6.33841 0.129255 1.45052e-19)
(6.22495 0.134049 0)
(6.10722 0.149298 0)
(5.9893 0.176817 -1.38531e-19)
(5.8693 0.210002 0)
(5.73611 0.235401 0)
(5.57547 0.244566 2.66158e-19)
(5.37851 0.238306 0)
(5.14562 0.221634 1.29542e-19)
(4.88199 0.201732 -1.27764e-19)
(4.5934 0.186557 0)
(4.28883 0.179382 1.24139e-19)
(3.98037 0.17564 0)
(3.68049 0.168241 0)
(3.40731 0.152145 -1.18412e-19)
(3.18713 0.123605 2.32981e-19)
(3.0372 0.0813666 -1.14639e-19)
(2.94988 0.0304746 0)
(2.9179 -0.0112479 0)
(2.95548 -0.0164664 1.09373e-19)
(3.06614 0.021532 0)
(3.21854 0.0705057 1.05946e-19)
(3.36826 0.0868243 0)
(3.49324 0.0547706 0)
(3.58733 0.000821393 0)
(3.66003 -0.0441996 9.87842e-20)
(3.72818 -0.0648729 0)
(3.80292 -0.0600254 -9.52346e-20)
(3.88558 -0.0358102 0)
(3.96793 -0.00449475 0)
(4.03522 0.0251477 1.79507e-19)
(4.071 0.041392 -1.75807e-19)
(4.0781 0.0542817 0)
(4.04515 0.0552592 0)
(4.01012 0.0675657 0)
(3.88302 0.0559512 4.83635e-19)
(3.84152 0.0845094 0)
(3.54365 0.0563971 -3.08218e-19)
(0.142072 -0.875879 5.13036e-23)
(0.605691 -1.52538 -3.17749e-19)
(1.06554 -1.53194 0)
(1.45322 -1.33724 3.11841e-19)
(1.76558 -1.09896 0)
(2.01018 -0.855471 0)
(2.21301 -0.591515 -2.47976e-22)
(2.36128 -0.384529 -1.50766e-19)
(2.39913 -0.284723 -1.49254e-19)
(2.37208 -0.204708 -1.48323e-19)
(2.24193 -0.1584 0)
(1.95357 -0.0817669 0)
(1.6212 0.22827 1.45179e-19)
(1.28184 0.68958 2.88373e-19)
(0.937134 1.10472 -2.86418e-19)
(0.666766 1.39931 0)
(0.493371 1.41027 -2.82544e-19)
(0.394539 1.05259 1.40461e-19)
(0.217239 0.736477 0)
(-0.214863 0.823401 -2.76417e-19)
(-0.788467 1.13525 -1.37063e-19)
(-1.39696 1.48182 2.7082e-19)
(-2.05327 1.80944 1.34339e-19)
(-2.72029 2.13054 0)
(-3.38413 2.43698 -2.62174e-19)
(-4.03102 2.69019 -2.59308e-19)
(-4.61693 2.84157 0)
(-5.09079 2.829 -2.53744e-19)
(-5.43142 2.60991 0)
(-5.67819 2.21594 -2.4855e-19)
(-5.91552 1.77063 -1.23727e-19)
(-6.20695 1.4059 0)
(-6.5315 1.14046 0)
(-6.80748 0.888045 0)
(-6.98202 0.594558 0)
(-7.06267 0.284954 0)
(-7.07494 -0.0117531 0)
(-7.0328 -0.3006 -2.30374e-19)
(-6.93989 -0.59023 3.43655e-19)
(-6.79787 -0.873919 0)
(-6.6068 -1.1464 0)
(-6.36749 -1.40709 0)
(-6.07979 -1.64938 -1.23266e-21)
(-5.74375 -1.8639 -2.2354e-19)
(-5.3605 -2.03963 -4.43737e-19)
(-4.93138 -2.16446 4.41617e-19)
(-4.45797 -2.23002 2.1921e-19)
(-3.93901 -2.23583 -2.19095e-19)
(-3.36924 -2.18993 8.29239e-22)
(-2.74808 -2.10283 -2.15936e-19)
(-2.08493 -1.9754 0)
(-1.38287 -1.79125 -2.13481e-19)
(-0.632555 -1.5204 4.08154e-22)
(0.123577 -1.19492 0)
(0.878194 -0.800323 0)
(1.62847 -0.348983 2.06639e-19)
(2.31406 0.0786603 0)
(2.90989 0.430882 0)
(3.37199 0.643362 -2.00422e-19)
(3.69593 0.678694 -3.96591e-19)
(3.89637 0.555819 1.95896e-19)
(3.99602 0.300779 0)
(4.03826 -0.100684 -1.91993e-19)
(4.05341 -0.566658 0)
(4.02458 -0.923959 -1.89245e-19)
(3.96445 -1.08258 -1.87214e-19)
(3.8336 -1.09796 3.7099e-19)
(3.65074 -0.942148 1.83468e-19)
(3.40652 -0.650353 0)
(2.92934 -0.394705 -3.62334e-19)
(2.32483 0.00857684 0)
(1.86178 0.630431 -5.35544e-19)
(1.68107 0.767822 -3.54272e-19)
(1.45652 0.518636 -3.51756e-19)
(0.63414 0.692264 3.49059e-19)
(-0.366818 0.980964 -5.18197e-19)
(-1.14279 1.05265 0)
(-1.71455 1.01271 0)
(-2.17663 0.960678 3.32664e-19)
(-2.58707 0.948404 4.92547e-19)
(-2.98529 0.9962 0)
(-3.40399 1.11503 -1.59752e-19)
(-3.8649 1.30146 0)
(-4.37279 1.53347 4.65706e-19)
(-4.91577 1.77575 1.40817e-22)
(-5.47271 1.99046 -4.1171e-22)
(-6.0228 2.14681 -2.95612e-19)
(-6.552 2.22823 0)
(-7.05614 2.23527 2.8474e-19)
(-7.53969 2.18131 1.38636e-21)
(-8.01111 2.08477 0)
(-8.47782 1.9629 0)
(-8.9433 1.82877 0)
(-9.40673 1.69071 -2.5548e-19)
(-9.86416 1.55249 0)
(-10.3099 1.41415 0)
(-10.7367 1.27299 0)
(-11.1346 1.12457 0)
(-11.4923 0.964719 0)
(-11.7987 0.790931 -2.18591e-19)
(-12.0432 0.601424 0)
(-12.2149 0.393914 -2.11717e-19)
(-12.3006 0.166106 -2.08819e-19)
(-12.2858 -0.0826363 2.06766e-19)
(-12.1557 -0.348788 0)
(-11.8993 -0.623553 2.05359e-19)
(-11.5126 -0.894705 0)
(-10.9986 -1.15017 2.07541e-19)
(-10.3667 -1.3787 -2.09667e-19)
(-9.63174 -1.57123 -6.34349e-19)
(-8.81312 -1.72032 0)
(-7.93479 -1.82175 -6.51296e-19)
(-7.02264 -1.87585 -2.18641e-19)
(-6.10057 -1.88919 0)
(-5.18723 -1.87295 -4.46272e-19)
(-4.2909 -1.84286 -4.48316e-19)
(-3.4113 -1.81402 6.74543e-19)
(-2.54247 -1.79734 0)
(-1.67273 -1.79595 2.24979e-19)
(-0.788528 -1.80735 2.24289e-19)
(0.116839 -1.81725 6.67864e-19)
(1.04234 -1.81629 0)
(1.97817 -1.78955 0)
(2.90501 -1.72535 0)
(3.79754 -1.62216 2.12303e-19)
(4.62813 -1.48462 0)
(5.37064 -1.32102 0)
(6.00473 -1.14094 -2.01749e-19)
(6.51955 -0.95268 -1.97361e-19)
(6.91547 -0.762436 0)
(7.20146 -0.575687 0)
(7.39002 -0.398715 -3.6744e-19)
(7.49288 -0.237997 0)
(7.52068 -0.098416 3.49833e-19)
(7.48616 0.0165174 3.40989e-19)
(7.40391 0.104919 0)
(7.28829 0.165307 0)
(7.15479 0.199512 -3.18115e-19)
(7.01852 0.212071 -4.89258e-22)
(6.8935 0.207641 -4.77067e-22)
(6.79074 0.194655 0)
(6.71821 0.187755 -5.88854e-19)
(6.67526 0.198223 0)
(6.64167 0.224905 0)
(6.57923 0.256087 0)
(6.45845 0.280376 2.7704e-19)
(6.28574 0.296318 0)
(6.09312 0.310268 -5.38959e-19)
(5.90234 0.324766 -2.66017e-19)
(5.70992 0.337024 0)
(5.49966 0.346728 -2.58932e-19)
(5.25557 0.355864 0)
(4.96884 0.365586 0)
(4.64554 0.373862 -7.44287e-19)
(4.30507 0.372396 4.88644e-19)
(3.9691 0.349496 0)
(3.65991 0.300741 4.73271e-19)
(3.40565 0.233111 -2.32888e-19)
(3.23566 0.158756 0)
(3.16586 0.0875337 0)
(3.18274 0.0248005 0)
(3.25389 -0.0173458 -6.56035e-19)
(3.36679 -0.0323246 0)
(3.5219 -0.037739 -2.11823e-19)
(3.70063 -0.0518853 0)
(3.86921 -0.0769833 0)
(4.00698 -0.0992732 0)
(4.10936 -0.110022 0)
(4.1837 -0.110666 0)
(4.23061 -0.107401 0)
(4.2596 -0.10022 -3.73552e-19)
(4.29552 -0.0820953 0)
(4.37213 -0.0459643 -1.7945e-19)
(4.48782 -0.00923418 5.27197e-19)
(4.6298 0.0264019 0)
(4.7375 0.042581 0)
(4.82692 0.0688269 -3.29361e-19)
(4.82581 0.0758279 -3.22155e-19)
(4.8706 0.13221 3.14888e-19)
(4.7569 0.134987 3.07916e-19)
(0.283827 -1.83149 4.80061e-19)
(0.73396 -2.55499 4.75257e-19)
(1.07877 -2.32144 3.13737e-19)
(1.33145 -1.91169 1.55208e-19)
(1.53814 -1.49813 0)
(1.68057 -1.12906 -3.05821e-19)
(1.78357 -0.786339 1.51383e-19)
(1.82444 -0.533046 0)
(1.73118 -0.369211 1.4956e-19)
(1.58007 -0.0662821 0)
(1.36284 0.387139 -2.94467e-19)
(1.05127 0.775089 0)
(0.732821 1.09658 -1.45427e-19)
(0.456568 1.39488 -2.88821e-19)
(0.231841 1.59495 2.86798e-19)
(0.0783381 1.61738 0)
(-0.0551575 1.47018 2.82722e-19)
(-0.339977 1.41119 0)
(-0.871893 1.63904 0)
(-1.53477 2.00038 2.75032e-19)
(-2.20088 2.35655 0)
(-2.85129 2.68833 -9.48436e-22)
(-3.49129 2.99936 0)
(-4.10054 3.28279 0)
(-4.66285 3.5002 1.46807e-21)
(-5.15704 3.60096 2.58218e-19)
(-5.56519 3.54723 2.53825e-19)
(-5.88747 3.32998 2.53e-19)
(-6.15628 2.98518 0)
(-6.42439 2.58703 4.93894e-19)
(-6.72025 2.20336 0)
(-7.01654 1.84681 2.40807e-19)
(-7.25957 1.48879 0)
(-7.42876 1.11462 0)
(-7.54088 0.735631 -2.33838e-19)
(-7.60901 0.360661 0)
(-7.63063 -0.0128766 2.30052e-19)
(-7.60454 -0.3852 1.84325e-21)
(-7.53703 -0.749888 -4.54826e-19)
(-7.43024 -1.1015 4.49972e-19)
(-7.28653 -1.43654 0)
(-7.10762 -1.75054 0)
(-6.89567 -2.03979 2.19545e-19)
(-6.65024 -2.29958 0)
(-6.36934 -2.52269 2.20619e-19)
(-6.04966 -2.70083 -2.19523e-19)
(-5.6871 -2.82699 -2.18418e-19)
(-5.27667 -2.89979 0)
(-4.81325 -2.926 2.16146e-19)
(-4.29373 -2.9144 2.14957e-19)
(-3.718 -2.86105 -4.25875e-19)
(-3.09122 -2.74287 2.1241e-19)
(-2.42524 -2.53496 2.11064e-19)
(-1.72832 -2.2366 0)
(-1.00563 -1.86006 0)
(-0.223815 -1.42346 -2.06899e-19)
(0.522672 -1.04226 0)
(1.28573 -0.693086 0)
(2.0005 -0.424754 4.01775e-19)
(2.61819 -0.262961 3.97467e-19)
(3.10375 -0.2166 0)
(3.47164 -0.312201 0)
(3.72313 -0.519019 0)
(3.82095 -0.742582 0)
(3.77684 -0.88264 3.78089e-19)
(3.67218 -0.902046 -3.74602e-19)
(3.53193 -0.798614 -3.71299e-19)
(3.32723 -0.561468 -7.35514e-19)
(3.0309 -0.167958 0)
(2.45085 0.287935 9.19993e-22)
(1.67181 0.71834 0)
(1.01131 1.12821 3.57277e-19)
(0.354748 1.46191 3.08154e-22)
(-0.502758 1.73386 3.51843e-19)
(-1.29828 1.83682 -3.48179e-19)
(-1.85264 1.73532 4.62804e-22)
(-2.23944 1.58402 0)
(-2.53859 1.44001 -3.35947e-19)
(-2.80152 1.34234 -3.32122e-19)
(-3.06386 1.31929 -6.55831e-19)
(-3.34942 1.38495 0)
(-3.67316 1.53719 3.19413e-19)
(-4.03843 1.75738 0)
(-4.43599 2.01212 -6.20436e-19)
(-4.8477 2.26027 3.05496e-19)
(-5.25472 2.46425 -3.0062e-19)
(-5.64545 2.60013 2.95574e-19)
(-6.01956 2.66125 5.78771e-19)
(-6.38589 2.65575 -2.8484e-19)
(-6.75672 2.59944 2.79117e-19)
(-7.14181 2.50831 0)
(-7.54441 2.39411 -5.31364e-19)
(-7.9608 2.26402 0)
(-8.38331 2.12267 -5.06122e-19)
(-8.80454 1.97316 4.93417e-19)
(-9.21933 1.81628 4.80781e-19)
(-9.62233 1.6494 -4.68342e-19)
(-10.0043 1.46723 -4.56302e-19)
(-10.3522 1.26454 0)
(-10.6535 1.03816 -2.15668e-19)
(-10.8982 0.786137 0)
(-11.0755 0.505875 0)
(-11.1708 0.194326 -4.11568e-19)
(-11.1657 -0.14912 0)
(-11.0411 -0.519516 0)
(-10.7829 -0.905419 -4.04195e-19)
(-10.3854 -1.2887 0)