/*--------------------------------*- C++ -*----------------------------------*\
  =========                 |
  \\      /  F ield         | OpenFOAM: The Open Source CFD Toolbox
   \\    /   O peration     | Website:  https://openfoam.org
    \\  /    A nd           | Version:  9
     \\/     M anipulation  |
\*---------------------------------------------------------------------------*/
FoamFile
{
    format      ascii;
    class       volVectorField;
    location    "0.056";
    object      UMean;
}
// * * * * * * * * * * * * * * * * * * * * * * * * * * * * * * * * * * * * * //

dimensions      [0 1 -1 0 0 0 0];

internalField   nonuniform List<vector> 
12225
(
(9.84361 0.0471613 0)
(9.54864 0.062427 0)
(9.24863 0.0601954 0)
(8.94391 0.0587033 0)
(8.64376 0.057883 0)
(8.35427 0.0568599 0)
(8.07609 0.0554375 0)
(7.80922 0.0543454 0)
(7.54977 0.053097 0)
(7.2996 0.0528943 0)
(7.05066 0.0519353 0)
(6.81248 0.0533122 0)
(6.56325 0.0525744 0)
(6.33267 0.0577989 0)
(6.05937 0.0581124 0)
(5.82817 0.0722731 0)
(5.48417 0.0756577 0)
(5.23222 0.107996 0)
(10.0154 0.0503343 0)
(10.0745 0.0734086 0)
(10.1131 0.0732024 0)
(10.1269 0.0746037 0)
(10.1234 0.0779335 0)
(10.1091 0.0808913 0)
(10.0864 0.0832008 0)
(10.0568 0.0853474 0)
(10.0195 0.0878325 0)
(9.97624 0.0907077 0)
(9.92479 0.0943707 0)
(9.86832 0.0985527 0)
(9.8013 0.10488 0)
(9.72936 0.112101 0)
(9.64134 0.125422 0)
(9.54616 0.139352 0)
(9.42688 0.167589 0)
(9.29163 0.190397 0)
(10.0111 0.0331753 0)
(10.0417 0.0542555 0)
(10.0694 0.057202 0)
(10.0862 0.0594061 0)
(10.0964 0.0638292 0)
(10.1044 0.0684825 0)
(10.1114 0.072207 0)
(10.1168 0.0758283 0)
(10.1204 0.0793806 0)
(10.1213 0.0840432 0)
(10.1208 0.0888203 0)
(10.117 0.0957414 0)
(10.1123 0.103322 0)
(10.1029 0.11531 0)
(10.0946 0.130209 0)
(10.0802 0.152472 0)
(10.0734 0.181192 0)
(10.0609 0.211642 0)
(10.0091 0.0295034 0)
(10.0338 0.0572423 0)
(10.0567 0.0634295 0)
(10.0707 0.0651914 0)
(10.0783 0.0689159 0)
(10.0835 0.0734112 0)
(10.088 0.0774235 0)
(10.0916 0.0810213 0)
(10.0941 0.0848984 0)
(10.0952 0.0893333 0)
(10.0955 0.0948459 0)
(10.0946 0.1015 0)
(10.0934 0.110391 0)
(10.0913 0.121949 0)
(10.0905 0.137999 0)
(10.0918 0.158652 0)
(10.0987 0.183695 0)
(10.1136 0.20814 0)
(10.0032 0.02152 0)
(10.0214 0.0473665 0)
(10.0406 0.0550305 0)
(10.0543 0.0574521 0)
(10.0623 0.0613054 0)
(10.0674 0.0664032 0)
(10.0715 0.071267 0)
(10.0747 0.0757471 0)
(10.0769 0.0801728 0)
(10.0782 0.0851411 0)
(10.0785 0.0909829 0)
(10.0781 0.0982024 0)
(10.0772 0.107409 0)
(10.0763 0.119227 0)
(10.0761 0.134513 0)
(10.0787 0.153058 0)
(10.0849 0.173628 0)
(10.0971 0.1924 0)
(10.0034 0.0188759 0)
(10.015 0.0456203 0)
(10.0308 0.0551265 0)
(10.0442 0.0586435 0)
(10.0527 0.0625362 0)
(10.058 0.0675818 0)
(10.062 0.0727267 0)
(10.0655 0.0775403 0)
(10.0684 0.0823423 0)
(10.0705 0.0875823 0)
(10.0716 0.0936832 0)
(10.0722 0.101115 0)
(10.0724 0.110395 0)
(10.073 0.122037 0)
(10.0744 0.136293 0)
(10.0781 0.15281 0)
(10.0845 0.170097 0)
(10.0948 0.18602 0)
(9.9892 0.0153896 0)
(9.99783 0.0397569 0)
(10.0108 0.0498155 0)
(10.0231 0.0541276 0)
(10.0314 0.0582766 0)
(10.0365 0.0635473 0)
(10.0405 0.0691041 0)
(10.0445 0.0743239 0)
(10.0481 0.0794084 0)
(10.0509 0.0849166 0)
(10.0527 0.0913127 0)
(10.0538 0.0990117 0)
(10.0546 0.108352 0)
(10.056 0.119673 0)
(10.0585 0.132905 0)
(10.0633 0.147776 0)
(10.0701 0.162999 0)
(10.0802 0.177637 0)
(10.0035 0.0137316 0)
(10.0102 0.034444 0)
(10.021 0.0469132 0)
(10.0316 0.0533561 0)
(10.0393 0.057912 0)
(10.0448 0.0628206 0)
(10.0496 0.0681919 0)
(10.0543 0.0736515 0)
(10.0586 0.079208 0)
(10.0622 0.085215 0)
(10.0647 0.0920074 0)
(10.0663 0.099896 0)
(10.0675 0.109078 0)
(10.0688 0.119782 0)
(10.071 0.131856 0)
(10.0748 0.145119 0)
(10.0803 0.158626 0)
(10.088 0.171917 0)
(9.99289 0.0146923 0)
(9.99802 0.030645 0)
(10.0071 0.04287 0)
(10.0173 0.0500295 0)
(10.0257 0.0548001 0)
(10.0315 0.0595457 0)
(10.0356 0.0647898 0)
(10.0393 0.0703596 0)
(10.0429 0.0762455 0)
(10.0465 0.0826741 0)
(10.0497 0.0899023 0)
(10.0528 0.0981681 0)
(10.0557 0.107522 0)
(10.059 0.118049 0)
(10.0629 0.129497 0)
(10.0683 0.141757 0)
(10.0748 0.154052 0)
(10.0834 0.166291 0)
(9.99024 0.010853 0)
(9.99475 0.0266285 0)
(10.0018 0.0388551 0)
(10.0103 0.0473069 0)
(10.0181 0.0534921 0)
(10.0241 0.0589699 0)
(10.0285 0.0643775 0)
(10.0322 0.0698744 0)
(10.0356 0.0755689 0)
(10.039 0.081748 0)
(10.0421 0.0886549 0)
(10.0453 0.0965124 0)
(10.0485 0.105318 0)
(10.0524 0.115117 0)
(10.057 0.125596 0)
(10.063 0.13672 0)
(10.07 0.147798 0)
(10.0789 0.159003 0)
(9.975 0.0117231 0)
(9.97767 0.0259398 0)
(9.98243 0.0358688 0)
(9.98911 0.0434645 0)
(9.99636 0.0496072 0)
(10.0031 0.0550492 0)
(10.0089 0.0605551 0)
(10.014 0.0664363 0)
(10.0186 0.0727288 0)
(10.0228 0.0795129 0)
(10.0265 0.0868672 0)
(10.0302 0.0949159 0)
(10.0338 0.103572 0)
(10.0382 0.112893 0)
(10.0431 0.122557 0)
(10.0494 0.132661 0)
(10.0564 0.142588 0)
(10.0651 0.15271 0)
(9.9857 0.00999287 0)
(9.98634 0.0227694 0)
(9.9903 0.0331739 0)
(9.99638 0.0417565 0)
(10.0028 0.0483219 0)
(10.0086 0.0536877 0)
(10.0137 0.0589095 0)
(10.0184 0.0645392 0)
(10.0229 0.0706618 0)
(10.0273 0.0772809 0)
(10.0317 0.0843662 0)
(10.0361 0.0920283 0)
(10.0408 0.100163 0)
(10.0459 0.10885 0)
(10.0516 0.11778 0)
(10.0579 0.127093 0)
(10.0652 0.136203 0)
(10.073 0.145525 0)
(10.0056 0.0115125 0)
(10.0045 0.0203675 0)
(10.0073 0.0301582 0)
(10.0131 0.0384762 0)
(10.0198 0.0447412 0)
(10.0261 0.0500329 0)
(10.0315 0.0553806 0)
(10.0363 0.0612825 0)
(10.0408 0.0677225 0)
(10.0452 0.0746179 0)
(10.0497 0.0818439 0)
(10.0545 0.0894388 0)
(10.0597 0.097327 0)
(10.0653 0.105569 0)
(10.0716 0.113934 0)
(10.0783 0.122543 0)
(10.086 0.130935 0)
(10.0936 0.139495 0)
(10.0259 0.0141589 0)
(10.0295 0.0192235 0)
(10.0335 0.0284546 0)
(10.0377 0.0368108 0)
(10.0418 0.0431394 0)
(10.0459 0.048447 0)
(10.0499 0.0537591 0)
(10.0541 0.0594455 0)
(10.0586 0.0654711 0)
(10.0635 0.0717728 0)
(10.069 0.0783229 0)
(10.0748 0.0851972 0)
(10.081 0.0923443 0)
(10.0876 0.0998343 0)
(10.0947 0.107447 0)
(10.1022 0.115331 0)
(10.1103 0.122997 0)
(10.1187 0.130917 0)
(10.0115 0.00603812 0)
(10.0165 0.0163369 0)
(10.0209 0.0252631 0)
(10.0249 0.0327506 0)
(10.0294 0.0389406 0)
(10.0346 0.0442346 0)
(10.04 0.0491765 0)
(10.0454 0.0542954 0)
(10.051 0.0598391 0)
(10.0567 0.0658266 0)
(10.0626 0.0721274 0)
(10.0689 0.0786933 0)
(10.0754 0.0853915 0)
(10.0823 0.0922787 0)
(10.0894 0.0991391 0)
(10.0972 0.106164 0)
(10.1052 0.112901 0)
(10.1142 0.119827 0)
(10.0084 0.00527539 0)
(10.0095 0.016761 0)
(10.0117 0.0240664 0)
(10.0162 0.0297459 0)
(10.0225 0.0351388 0)
(10.0292 0.0404009 0)
(10.0355 0.0454765 0)
(10.0415 0.0505365 0)
(10.0474 0.0557522 0)
(10.0535 0.0612293 0)
(10.0599 0.0669123 0)
(10.0668 0.0728134 0)
(10.074 0.0787865 0)
(10.0816 0.0849063 0)
(10.0893 0.0909072 0)
(10.0975 0.0969994 0)
(10.1057 0.102677 0)
(10.1146 0.108483 0)
(9.99604 0.00564842 0)
(9.99497 0.0102047 0)
(9.99623 0.015912 0)
(9.99997 0.0217243 0)
(10.0054 0.0270289 0)
(10.0114 0.0318926 0)
(10.0175 0.0365304 0)
(10.0238 0.0410849 0)
(10.0304 0.0456223 0)
(10.0373 0.0502464 0)
(10.0445 0.0549849 0)
(10.0519 0.0599117 0)
(10.0596 0.0649219 0)
(10.0674 0.0700711 0)
(10.0754 0.0751327 0)
(10.0837 0.0802942 0)
(10.0921 0.0851383 0)
(10.1008 0.0901445 0)
(10.0028 0.0114931 0)
(10.0059 0.0137387 0)
(10.0098 0.0166301 0)
(10.0145 0.0199591 0)
(10.0202 0.0234515 0)
(10.0267 0.0268846 0)
(10.0335 0.0302974 0)
(10.0406 0.0338466 0)
(10.048 0.0376127 0)
(10.0557 0.041633 0)
(10.0635 0.0458374 0)
(10.0716 0.0502141 0)
(10.0797 0.0546156 0)
(10.088 0.0590595 0)
(10.0964 0.063311 0)
(10.1048 0.0675204 0)
(10.1133 0.0713092 0)
(10.1219 0.075104 0)
(9.99662 -0.00430931 0)
(10.0018 -3.80711e-05 0)
(10.0077 0.00303014 0)
(10.0144 0.00570152 0)
(10.0214 0.00846167 0)
(10.0285 0.0114245 0)
(10.0355 0.014423 0)
(10.0425 0.0172657 0)
(10.0496 0.0199222 0)
(10.0567 0.0225588 0)
(10.064 0.025324 0)
(10.0716 0.0283443 0)
(10.0794 0.0315487 0)
(10.0876 0.0349234 0)
(10.0959 0.0382242 0)
(10.1044 0.0415141 0)
(10.1129 0.0444532 0)
(10.1216 0.0473758 0)
(9.99711 -0.00169545 0)
(9.99655 8.0481e-06 0)
(9.99802 0.000558532 0)
(10.0019 0.0011347 0)
(10.0077 0.00247305 0)
(10.0147 0.00458089 0)
(10.022 0.00713164 0)
(10.0294 0.00979636 0)
(10.0368 0.0123361 0)
(10.0442 0.0146892 0)
(10.0516 0.0168502 0)
(10.0591 0.0188998 0)
(10.0667 0.0208569 0)
(10.0746 0.0228516 0)
(10.0826 0.0248082 0)
(10.0908 0.0268423 0)
(10.0989 0.0286921 0)
(10.1073 0.0305856 0)
(9.98607 -3.74507e-06 0)
(9.98741 -0.00357079 0)
(9.99093 -0.00570143 0)
(9.99657 -0.00680923 0)
(10.0031 -0.00713477 0)
(10.0098 -0.00673518 0)
(10.0165 -0.00563734 0)
(10.0233 -0.00403485 0)
(10.0305 -0.00223217 0)
(10.0379 -0.000459733 0)
(10.0455 0.00116109 0)
(10.0533 0.00266553 0)
(10.0611 0.00408725 0)
(10.0689 0.00553577 0)
(10.0767 0.00696018 0)
(10.0845 0.00842911 0)
(10.0923 0.0097453 0)
(10.1 0.0110611 0)
(9.99517 -0.00196366 0)
(9.99699 -0.00843244 0)
(10.0012 -0.0107135 0)
(10.0073 -0.0108149 0)
(10.0142 -0.0102809 0)
(10.0214 -0.00958597 0)
(10.0287 -0.00872374 0)
(10.0362 -0.00768773 0)
(10.044 -0.00659244 0)
(10.0519 -0.00555123 0)
(10.0599 -0.00462061 0)
(10.0679 -0.00374042 0)
(10.0757 -0.00288224 0)
(10.0835 -0.00196812 0)
(10.0913 -0.00106518 0)
(10.0991 -0.000120921 0)
(10.1071 0.000686492 0)
(10.115 0.00150421 0)
(9.98793 0.000549507 0)
(9.9946 -0.0101018 0)
(10.0015 -0.0163125 0)
(10.0088 -0.0190894 0)
(10.0167 -0.0201191 0)
(10.0248 -0.0205434 0)
(10.0326 -0.0207629 0)
(10.0403 -0.0206804 0)
(10.0478 -0.0201979 0)
(10.0556 -0.0193869 0)
(10.0634 -0.0184398 0)
(10.0714 -0.017518 0)
(10.0795 -0.0167428 0)
(10.0875 -0.0161103 0)
(10.0956 -0.0156405 0)
(10.1034 -0.0152375 0)
(10.1113 -0.0149627 0)
(10.1189 -0.0146729 0)
(10.0179 -0.0114654 0)
(10.0243 -0.0147904 0)
(10.0331 -0.019354 0)
(10.0421 -0.0219907 0)
(10.0501 -0.0227437 0)
(10.0574 -0.0225454 0)
(10.0644 -0.022055 0)
(10.0716 -0.0215646 0)
(10.079 -0.0211762 0)
(10.0868 -0.0209272 0)
(10.0949 -0.020821 0)
(10.1033 -0.0207825 0)
(10.1118 -0.0207322 0)
(10.1203 -0.0205912 0)
(10.1288 -0.0203805 0)
(10.1371 -0.0200843 0)
(10.1451 -0.0198204 0)
(10.1529 -0.019538 0)
(9.98711 -0.0110921 0)
(9.99176 -0.0226376 0)
(10.0007 -0.0284764 0)
(10.0109 -0.0308278 0)
(10.0198 -0.0319079 0)
(10.0278 -0.0327531 0)
(10.0361 -0.0334504 0)
(10.0451 -0.0338878 0)
(10.0547 -0.0340984 0)
(10.0642 -0.0342179 0)
(10.0734 -0.0343486 0)
(10.082 -0.0344892 0)
(10.0902 -0.0345917 0)
(10.0982 -0.0345918 0)
(10.106 -0.0345014 0)
(10.1137 -0.0343315 0)
(10.1214 -0.0341741 0)
(10.129 -0.0340243 0)
(10.0232 -0.00857774 0)
(10.0354 -0.0234954 0)
(10.0487 -0.0280731 0)
(10.0606 -0.0288854 0)
(10.0703 -0.029661 0)
(10.0783 -0.0311397 0)
(10.0856 -0.0326628 0)
(10.0929 -0.0336272 0)
(10.1004 -0.0339897 0)
(10.1082 -0.0340176 0)
(10.116 -0.0339653 0)
(10.1239 -0.0339598 0)
(10.1318 -0.0340442 0)
(10.1397 -0.0341905 0)
(10.1476 -0.0343916 0)
(10.1553 -0.0346031 0)
(10.1629 -0.0348597 0)
(10.1702 -0.0350979 0)
(9.98795 -0.0264075 0)
(10.0031 -0.0375819 0)
(10.0192 -0.0422077 0)
(10.0329 -0.0429605 0)
(10.0438 -0.0432812 0)
(10.0533 -0.044011 0)
(10.0623 -0.0446893 0)
(10.0715 -0.045073 0)
(10.0806 -0.0453409 0)
(10.0895 -0.0457099 0)
(10.0981 -0.0462188 0)
(10.1064 -0.0467651 0)
(10.1144 -0.0472344 0)
(10.1221 -0.0475609 0)
(10.1297 -0.0477492 0)
(10.1372 -0.047837 0)
(10.1445 -0.0479053 0)
(10.1517 -0.0479972 0)
(9.99402 -0.0195565 0)
(10.0108 -0.0303612 0)
(10.0295 -0.0342467 0)
(10.044 -0.0354791 0)
(10.0542 -0.0371461 0)
(10.063 -0.0391774 0)
(10.0722 -0.0408338 0)
(10.082 -0.041901 0)
(10.0921 -0.0425298 0)
(10.102 -0.0429432 0)
(10.1116 -0.0432681 0)
(10.1208 -0.0435966 0)
(10.1295 -0.0439449 0)
(10.1378 -0.0443718 0)
(10.146 -0.0448446 0)
(10.1539 -0.0454003 0)
(10.1619 -0.0459757 0)
(10.1696 -0.0466042 0)
(10.0019 -0.0405473 0)
(10.0363 -0.0558035 0)
(10.0668 -0.0540446 0)
(10.0879 -0.0530928 0)
(10.1016 -0.0539799 0)
(10.1108 -0.0549336 0)
(10.1171 -0.0555226 0)
(10.1214 -0.055942 0)
(10.1238 -0.0563262 0)
(10.1246 -0.0567123 0)
(10.1239 -0.0570575 0)
(10.122 -0.0573749 0)
(10.1188 -0.0576255 0)
(10.1147 -0.0578813 0)
(10.1095 -0.0580898 0)
(10.1038 -0.0583596 0)
(10.0969 -0.0586146 0)
(10.0901 -0.059006 0)
(9.90691 -0.031876 0)
(9.74095 -0.0462964 0)
(9.57361 -0.0450807 0)
(9.40501 -0.0441969 0)
(9.24012 -0.0443567 0)
(9.08166 -0.0443399 0)
(8.9302 -0.044011 0)
(8.78552 -0.0435496 0)
(8.64707 -0.0430207 0)
(8.51459 -0.042429 0)
(8.38774 -0.0417734 0)
(8.26663 -0.0411032 0)
(8.1507 -0.0404433 0)
(8.04031 -0.0398586 0)
(7.9342 -0.0393165 0)
(7.83354 -0.0388592 0)
(7.73583 -0.0384052 0)
(7.64422 -0.0380532 0)
(-0.223444 0.467464 -1.09951e-21)
(-0.52726 0.261842 1.12412e-21)
(-0.710205 0.0739449 0)
(-0.759225 -0.10746 0)
(-0.617068 -0.300256 0)
(-0.325364 -0.448844 -1.09629e-21)
(0.0830199 -0.53571 0)
(0.556936 -0.559712 0)
(1.04408 -0.536641 0)
(1.50799 -0.480792 0)
(1.92364 -0.402967 1.11446e-21)
(2.28036 -0.317442 0)
(2.56876 -0.231692 0)
(2.78459 -0.151358 0)
(2.93067 -0.0807288 0)
(3.01243 -0.0266341 1.49783e-21)
(3.04106 0.00734529 0)
(3.02912 0.0348165 0)
(2.97732 0.070036 0)
(2.88667 0.110701 0)
(2.7504 0.153441 0)
(2.57376 0.191471 0)
(2.3501 0.22722 0)
(2.10131 0.244028 1.35345e-21)
(1.81408 0.269551 -1.31129e-21)
(1.51991 0.24417 1.27923e-21)
(1.22645 0.177497 1.25947e-21)
(0.930225 0.0688653 0)
(0.687434 0.00557437 0)
(0.425494 0.123797 -1.25252e-21)
(0.11918 0.207239 -1.26952e-21)
(-0.229935 0.236608 0)
(-0.594629 0.230764 0)
(-0.927861 0.18947 -1.37789e-21)
(-1.19655 0.131322 0)
(-1.39732 0.0694665 0)
(-1.51953 0.0118896 1.41393e-21)
(-1.57978 -0.0150131 0)
(-1.61957 -0.00609241 1.44272e-21)
(-1.6869 0.04785 2.97782e-21)
(-1.8232 0.111533 0)
(-2.02695 0.13146 0)
(-2.27227 0.140379 0)
(-2.53852 0.0708313 0)
(-2.69976 0.0128067 0)
(-2.83683 0.0421973 3.22648e-21)
(-2.9761 -0.0813063 3.29976e-21)
(-3.16351 -0.102332 3.40971e-21)
(-3.37157 0.147946 0)
(-3.75913 0.266814 -3.51099e-21)
(-4.08213 0.223706 0)
(-4.37701 0.202285 3.70188e-21)
(-4.65335 0.185767 3.82782e-21)
(-4.90623 0.166334 0)
(-5.11731 0.135513 0)
(-5.31123 0.0460646 0)
(-5.48173 0.0824995 4.42561e-21)
(-5.7305 0.149804 0)
(-5.95431 0.127626 0)
(-6.14069 0.117157 0)
(-6.30331 0.092928 0)
(-6.42036 0.0674046 0)
(-6.50581 0.0403555 0)
(-6.55557 0.0192287 0)
(-6.58485 0.00450586 0)
(-6.59918 -0.00299335 -5.80401e-21)
(-6.61073 -0.00470667 0)
(-6.62444 -0.000917256 0)
(-6.64662 0.00758371 5.75312e-21)
(-6.67649 0.0165482 5.66045e-21)
(-6.71042 0.0181335 0)
(-6.74079 0.0124587 -5.39068e-21)
(-6.75619 0.00355565 5.22676e-21)
(-6.74403 -0.0106941 0)
(-6.70686 -0.0257901 -4.86292e-21)
(-6.65511 -0.0341829 0)
(-6.59395 -0.0363126 0)
(-6.52485 -0.0360717 4.26714e-21)
(-6.44802 -0.036605 0)
(-6.36324 -0.0388689 -3.86219e-21)
(-6.27106 -0.0420065 0)
(-6.17276 -0.0448736 3.46464e-21)
(-6.06987 -0.0469171 3.26961e-21)
(-5.96362 -0.04801 3.0767e-21)
(-5.85444 -0.048396 5.77101e-21)
(-5.74212 -0.0487436 -5.39156e-21)
(-5.62564 -0.0497432 0)
(-5.50301 -0.0519542 0)
(-5.3718 -0.0556093 0)
(-5.22966 -0.0605806 -3.90673e-21)
(-5.07494 -0.0665439 -3.54633e-21)
(-4.90666 -0.0729932 3.19206e-21)
(-4.72478 -0.0794092 0)
(-4.52996 -0.0853876 -2.50841e-21)
(-4.32346 -0.0906326 -2.18218e-21)
(-4.10672 -0.0950439 -1.8672e-21)
(-3.88106 -0.0986877 0)
(-3.64745 -0.10175 0)
(-3.40648 -0.10443 0)
(-3.15838 -0.106887 -6.6667e-22)
(-2.90331 -0.109453 0)
(-2.64132 -0.111646 0)
(-2.3723 -0.113606 -3.09522e-22)
(-2.09686 -0.115153 0)
(-1.81594 -0.116294 0)
(-1.53034 -0.116937 -1.44051e-21)
(-1.24107 -0.117064 0)
(-0.949469 -0.116606 0)
(-0.657057 -0.11557 2.65087e-21)
(-0.365323 -0.11389 3.04157e-21)
(-0.075649 -0.11161 0)
(0.210642 -0.108782 -3.76073e-21)
(0.49238 -0.105539 0)
(0.768674 -0.101999 4.36148e-21)
(1.03893 -0.0982831 0)
(1.30255 -0.0945764 4.82079e-21)
(1.55909 -0.0906701 4.99474e-21)
(1.80829 -0.0866756 0)
(2.04939 -0.0824765 0)
(2.2816 -0.0779659 0)
(2.50404 -0.0730872 0)
(2.71564 -0.067725 0)
(2.91494 -0.0621247 0)
(3.10071 -0.0565014 0)
(3.2726 -0.0505371 5.10915e-21)
(3.43019 -0.0445103 -4.99726e-21)
(3.57309 -0.0385403 0)
(3.70122 -0.0327109 0)
(3.81475 -0.0270904 0)
(3.91404 -0.0217249 0)
(3.99955 -0.0166473 -8.62558e-21)
(4.07185 -0.0118738 0)
(4.13155 -0.00741017 8.0922e-21)
(4.1793 -0.00325114 -7.84711e-21)
(4.21575 0.000618612 0)
(4.24153 0.00422918 0)
(4.25717 0.00759859 0)
(4.26319 0.010767 7.05518e-21)
(4.26004 0.0137787 6.90716e-21)
(4.24808 0.0166159 0)
(4.22779 0.0192937 6.66809e-21)
(4.19945 0.021819 6.57466e-21)
(4.1636 0.0241136 -6.49658e-21)
(4.12085 0.0260237 0)
(4.07201 0.0274002 0)
(4.01817 0.0281657 -6.33734e-21)
(3.9606 0.0283549 0)
(3.9006 0.0281022 0)
(3.83926 0.0275986 0)
(3.77736 0.0270169 0)
(3.7153 0.0264863 6.2338e-21)
(3.65326 0.0260832 6.22765e-21)
(3.59123 0.0257845 0)
(3.52929 0.0254694 6.22383e-21)
(3.46765 0.0250844 0)
(3.40654 0.0247242 0)
(3.346 0.0243919 6.23419e-21)
(3.2862 0.0238962 0)
(3.22734 0.0232316 6.24773e-21)
(3.16929 0.0227765 0)
(3.11105 0.022516 0)
(3.05238 0.0213229 6.26086e-21)
(2.99544 0.0179684 0)
(2.94493 0.0130157 6.25532e-21)
(2.90379 0.00845672 0)
(2.87212 0.00547676 0)
(2.84629 0.00399542 0)
(2.82352 0.00395873 -6.23787e-21)
(2.79938 0.00490641 0)
(2.77378 0.00605634 6.21916e-21)
(2.74365 0.00734504 0)
(2.71176 0.00804676 0)
(2.67564 0.00917994 0)
(2.63728 0.00900578 0)
(2.59754 0.0117699 0)
(2.54265 0.0116499 0)
(2.50048 0.0220206 0)
(2.38409 0.0202703 -1.23463e-20)
(2.35894 0.053376 0)
(2.02866 0.040671 0)
(0.000112759 0.969041 3.38036e-21)
(0.018491 0.681043 -3.43394e-21)
(0.0290991 0.338909 0)
(0.178193 -0.0669671 2.39215e-21)
(0.454153 -0.596174 0)
(0.843231 -1.05831 1.09225e-21)
(1.27342 -1.34366 -2.36277e-21)
(1.6947 -1.46276 -2.38855e-21)
(2.08049 -1.4454 0)
(2.41832 -1.32909 -2.60032e-21)
(2.70001 -1.15805 -1.11224e-21)
(2.92519 -0.960205 0)
(3.09895 -0.753549 0)
(3.22467 -0.550036 0)
(3.30499 -0.357584 0)
(3.34204 -0.183763 -1.49469e-21)
(3.33916 -0.0365163 0)
(3.30244 0.0848379 3.47717e-21)
(3.23218 0.189638 0)
(3.12794 0.292922 0)
(2.99124 0.402869 -3.32367e-21)
(2.82413 0.513269 0)
(2.63339 0.604226 3.1322e-21)
(2.41825 0.68423 -1.347e-21)
(2.19665 0.727052 1.30435e-21)
(1.94369 0.743155 -1.27193e-21)
(1.63792 0.802874 -1.25193e-21)
(1.26566 0.849012 0)
(0.832618 0.841907 0)
(0.358285 0.8199 1.2477e-21)
(-0.0638784 0.834777 -1.59931e-21)
(-0.42882 0.858603 0)
(-0.772182 0.833236 0)
(-1.06531 0.735372 1.37658e-21)
(-1.32331 0.578136 0)
(-1.5364 0.388828 0)
(-1.68662 0.19001 -1.41043e-21)
(-1.7957 0.0590777 0)
(-1.90164 0.0682385 1.93713e-21)
(-2.02493 0.208256 -2.96941e-21)
(-2.18023 0.36889 0)
(-2.37305 0.508895 0)
(-2.58439 0.56151 -7.00691e-21)
(-2.86891 0.480528 -6.96492e-21)
(-3.2148 0.395743 -7.01759e-21)
(-3.51816 0.349233 3.89738e-21)
(-3.88517 0.502013 -3.29195e-21)
(-4.30493 0.629988 -1.09558e-20)
(-4.54965 0.653426 7.76501e-21)
(-4.80766 0.640484 3.50056e-21)
(-5.00556 0.578691 0)
(-5.20751 0.538467 -3.69176e-21)
(-5.37183 0.477832 4.70671e-21)
(-5.54304 0.412057 0)
(-5.70756 0.375469 0)
(-5.94689 0.41699 0)
(-6.15715 0.434217 -4.41872e-21)
(-6.33731 0.404005 0)
(-6.48162 0.345932 1.01969e-20)
(-6.60044 0.290611 0)
(-6.69404 0.222604 1.08839e-20)
(-6.76227 0.157421 0)
(-6.81051 0.097223 -1.14671e-20)
(-6.84103 0.053557 0)
(-6.86272 0.0274885 1.18553e-20)
(-6.88085 0.0195971 -6.15297e-21)
(-6.90161 0.0253052 0)
(-6.92716 0.0377251 -1.19294e-20)
(-6.95633 0.0484609 -5.75242e-21)
(-6.98391 0.0537269 -5.65987e-21)
(-7.00656 0.0511056 0)
(-7.02177 0.0335731 -5.62976e-21)
(-7.02185 -0.00413386 -5.22601e-21)
(-7.00312 -0.0491057 0)
(-6.97356 -0.0799635 4.86156e-21)
(-6.93245 -0.0971485 -9.50319e-21)
(-6.87336 -0.113133 0)
(-6.79566 -0.130697 -4.26593e-21)
(-6.70256 -0.146954 0)
(-6.5981 -0.160334 1.17047e-20)
(-6.48566 -0.170355 0)
(-6.36759 -0.177277 -1.05038e-20)
(-6.2453 -0.181919 -3.26885e-21)
(-6.1193 -0.185474 3.19243e-21)
(-5.9893 -0.189321 6.01465e-21)
(-5.85408 -0.194821 -5.65059e-21)
(-5.7118 -0.202954 0)
(-5.56037 -0.214204 0)
(-5.39778 -0.228476 0)
(-5.22245 -0.24514 1.20257e-20)
(-5.03342 -0.263189 3.54457e-21)
(-4.83077 -0.2814 -3.19036e-21)
(-4.61529 -0.298599 0)
(-4.38851 -0.313874 -2.79084e-21)
(-4.15233 -0.326677 2.18128e-21)
(-3.90875 -0.336916 1.86672e-21)
(-3.65938 -0.344937 0)
(-3.40523 -0.351374 0)
(-3.14679 -0.35697 0)
(-2.8841 -0.362427 6.68374e-22)
(-2.61688 -0.368044 0)
(-2.34472 -0.373614 -2.80291e-22)
(-2.06723 -0.37898 7.19327e-22)
(-1.78432 -0.383694 -1.14506e-21)
(-1.49582 -0.387429 0)
(-1.20235 -0.389791 -1.2746e-21)
(-0.904919 -0.390558 0)
(-0.604898 -0.389542 -4.35775e-21)
(-0.30378 -0.386681 2.52713e-21)
(-0.00305656 -0.381834 2.93111e-21)
(0.295857 -0.375108 0)
(0.59162 -0.366778 1.11893e-20)
(0.883049 -0.357221 -8.07282e-21)
(1.16925 -0.346843 -4.35909e-21)
(1.44965 -0.335943 0)
(1.72386 -0.324838 -4.818e-21)
(1.99152 -0.313392 -1.49156e-20)
(2.2523 -0.301527 0)
(2.50558 -0.289017 -1.04025e-20)
(2.75056 -0.275592 -1.05311e-20)
(2.98628 -0.260969 -1.05877e-20)
(3.21173 -0.245136 0)
(3.42538 -0.228734 0)
(3.62618 -0.211683 0)
(3.8138 -0.194002 5.07213e-21)
(3.98778 -0.176197 4.99308e-21)
(4.14786 -0.158576 0)
(4.2941 -0.141382 9.4362e-21)
(4.42672 -0.124804 9.15645e-21)
(4.54612 -0.108974 0)
(4.65279 -0.0939814 8.61857e-21)
(4.74728 -0.0798771 1.66434e-20)
(4.83021 -0.0666812 -8.0855e-21)
(4.90221 -0.0543872 -7.79592e-21)
(4.96394 -0.0429617 0)
(5.01603 -0.0323433 0)
(5.05913 -0.0224669 0)
(5.09379 -0.013263 -7.04859e-21)
(5.12056 -0.00465576 6.86682e-21)
(5.13995 0.0033928 1.35122e-20)
(5.15233 0.0108834 -6.66133e-21)
(5.15821 0.0178321 6.5408e-21)
(5.15807 0.0242057 6.48961e-21)
(5.15243 0.0299179 0)
(5.14183 0.0348724 0)
(5.12676 0.0389293 -6.3119e-21)
(5.10768 0.0419471 0)
(5.08507 0.0439009 0)
(5.05959 0.0449286 1.24887e-20)
(5.03206 0.0452543 0)
(5.00338 0.0451155 6.21736e-21)
(4.97445 0.0447241 -6.21938e-21)
(4.94611 0.0441933 0)
(4.91912 0.0435079 6.21014e-21)
(4.89407 0.0426199 0)
(4.87139 0.0415449 0)
(4.85136 0.0403519 -6.22522e-21)
(4.83395 0.0391314 1.24618e-20)
(4.8186 0.03805 -6.23848e-21)
(4.80476 0.0373658 0)
(4.79237 0.0372418 0)
(4.78122 0.037181 6.25488e-21)
(4.7702 0.035886 0)
(4.75822 0.0323275 6.25183e-21)
(4.7449 0.0269884 0)
(4.73074 0.0216682 0)
(4.71604 0.0183355 0)
(4.70139 0.0170972 6.22802e-21)
(4.68643 0.0177772 0)
(4.67056 0.0190536 -6.20938e-21)
(4.65314 0.0212853 0)
(4.63269 0.0223463 0)
(4.61062 0.0251501 1.23375e-20)
(4.58192 0.0250964 -1.23139e-20)
(4.55558 0.0313618 0)
(4.51111 0.0307081 0)
(4.48387 0.0484535 0)
(4.39944 0.046878 3.6922e-20)
(4.38626 0.0969531 0)
(4.19359 0.0958866 -2.46729e-20)
(0.102057 0.583183 -7.14036e-23)
(0.256373 0.373525 4.51542e-21)
(0.517313 -0.148936 0)
(0.928451 -0.847307 -4.71004e-21)
(1.3942 -1.51862 0)
(1.81654 -1.99169 0)
(2.13759 -2.20172 -3.33434e-22)
(2.36425 -2.19403 2.38286e-21)
(2.51442 -2.02237 3.02037e-21)
(2.61719 -1.74478 2.59695e-21)
(2.67407 -1.43289 0)
(2.70513 -1.12963 0)
(2.7128 -0.841674 -3.70791e-21)
(2.70355 -0.573978 -7.6523e-21)
(2.67793 -0.333209 7.82214e-21)
(2.63662 -0.121529 0)
(2.57686 0.0612803 7.95647e-21)
(2.49439 0.224929 -3.4759e-21)
(2.38554 0.38542 0)
(2.25297 0.545001 7.72098e-21)
(2.10868 0.6941 3.31917e-21)
(1.95624 0.823987 -7.37874e-21)
(1.79923 0.936935 -3.12577e-21)
(1.63979 1.01045 0)
(1.4688 1.07664 6.80175e-21)
(1.24156 1.20517 6.64299e-21)
(0.990069 1.33196 0)
(0.704368 1.46074 6.42272e-21)
(0.389025 1.55339 0)
(0.0538811 1.58068 6.39449e-21)
(-0.29174 1.53612 2.85062e-21)
(-0.604002 1.44604 0)
(-0.88387 1.31949 0)
(-1.11427 1.14087 0)
(-1.32864 0.933346 0)
(-1.5015 0.689019 0)
(-1.66768 0.461249 0)
(-1.82361 0.321189 7.38633e-21)
(-2.00617 0.342649 -1.09249e-20)
(-2.22908 0.491925 0)
(-2.45264 0.663712 0)
(-2.71646 0.783412 0)
(-2.93229 0.927162 -7.16063e-22)
(-3.22192 0.991044 6.95693e-21)
(-3.5088 0.981057 1.47264e-20)
(-3.80916 0.988948 -1.49751e-20)
(-4.10252 1.00249 -8.07386e-21)
(-4.35476 0.982635 7.54663e-21)
(-4.51923 0.944546 8.38828e-22)
(-4.67313 0.888562 8.83713e-21)
(-4.78983 0.816672 0)
(-4.91515 0.740651 9.26042e-21)
(-5.03007 0.678309 9.15515e-22)
(-5.20078 0.668474 0)
(-5.3825 0.681645 0)
(-5.56258 0.684411 -1.00822e-20)
(-5.69726 0.641132 0)
(-5.81949 0.577254 0)
(-5.93273 0.504454 1.16232e-20)
(-6.0447 0.424808 2.24078e-20)
(-6.14987 0.335124 -1.08938e-20)
(-6.25019 0.24669 0)
(-6.3419 0.166449 1.14796e-20)
(-6.42557 0.107098 0)
(-6.50163 0.0722148 1.27879e-20)
(-6.57149 0.0604807 1.19701e-20)
(-6.63486 0.0641668 -2.48782e-20)
(-6.68978 0.0742554 -1.28112e-20)
(-6.73356 0.0797156 0)
(-6.76278 0.074256 2.40313e-20)
(-6.77294 0.0557263 0)
(-6.76311 0.0196647 3.38201e-20)
(-6.73672 -0.0305469 2.20379e-20)
(-6.69963 -0.0787493 2.12376e-20)
(-6.64732 -0.12141 -2.04018e-20)
(-6.57161 -0.164408 2.90543e-20)
(-6.47599 -0.205425 0)
(-6.36762 -0.240397 0)
(-6.25195 -0.267901 -1.69114e-20)
(-6.13263 -0.288267 -2.39092e-20)
(-6.01191 -0.302485 0)
(-5.89097 -0.312031 7.04691e-21)
(-5.76996 -0.318758 0)
(-5.64809 -0.324814 -1.9175e-20)
(-5.52377 -0.332324 3.73163e-22)
(-5.39488 -0.34305 -3.98911e-22)
(-5.25901 -0.358163 1.07389e-20)
(-5.11378 -0.378056 0)
(-4.95706 -0.402329 -9.32e-21)
(-4.7872 -0.429839 4.77186e-22)
(-4.60323 -0.458918 0)
(-4.40516 -0.487611 0)
(-4.19394 -0.514064 0)
(-3.97134 -0.536835 5.30357e-21)
(-3.73967 -0.55514 0)
(-3.50131 -0.568894 0)
(-3.25815 -0.578753 0)
(-3.01127 -0.585955 0)
(-2.76106 -0.592198 0)
(-2.50716 -0.598652 1.92006e-21)
(-2.24864 -0.605964 0)
(-1.98473 -0.614003 2.88198e-22)
(-1.71481 -0.622293 -4.05251e-22)
(-1.43888 -0.630048 1.13845e-21)
(-1.15716 -0.63654 0)
(-0.870376 -0.640917 2.70791e-21)
(-0.57955 -0.642664 0)
(-0.286034 -0.641426 4.35425e-21)
(0.00857565 -0.636843 -5.17279e-21)
(0.3028 -0.628852 -1.75514e-20)
(0.595 -0.6177 0)
(0.883754 -0.603901 -2.20018e-20)
(1.1679 -0.588127 -7.81352e-21)
(1.44657 -0.571049 0)
(1.71934 -0.553229 -1.80645e-20)
(1.9859 -0.534964 -1.89283e-20)
(2.2461 -0.516333 2.95622e-20)
(2.49966 -0.497072 0)
(2.74602 -0.476709 1.03993e-20)
(2.98443 -0.454764 1.05278e-20)
(3.21374 -0.430836 3.15985e-20)
(3.43267 -0.405186 0)
(3.63985 -0.378296 0)
(3.83426 -0.350044 0)
(4.01533 -0.321066 1.00547e-20)
(4.18262 -0.292007 0)
(4.33601 -0.263367 0)
(4.47566 -0.235533 -9.43223e-21)
(4.60198 -0.20878 -9.15298e-21)
(4.71551 -0.183299 0)
(4.8169 -0.159209 0)
(4.90677 -0.136584 -1.66388e-20)
(4.98576 -0.115454 0)
(5.05451 -0.0958078 1.56329e-20)
(5.11364 -0.0775962 1.51071e-20)
(5.16374 -0.060739 0)
(5.20537 -0.0451164 0)
(5.23904 -0.030612 -1.39979e-20)
(5.26522 -0.017133 -5.65446e-23)
(5.2843 -0.00459531 -5.22014e-23)
(5.29667 0.00705166 0)
(5.30266 0.0177894 -2.61695e-20)
(5.30252 0.0274497 0)
(5.29662 0.0358331 0)
(5.28562 0.0428177 0)
(5.27056 0.0484244 1.264e-20)
(5.25265 0.0527568 0)
(5.23282 0.0559092 -2.50054e-20)
(5.21161 0.0579266 -1.24866e-20)
(5.18939 0.05888 0)
(5.16662 0.0588819 -1.24408e-20)
(5.14397 0.0580488 0)
(5.1223 0.0564716 0)
(5.10257 0.0541979 -3.72518e-20)
(5.08563 0.0512988 2.48393e-20)
(5.07209 0.0479915 0)
(5.06236 0.0446293 2.48838e-20)
(5.05656 0.0415253 -1.2459e-20)
(5.05425 0.0388399 0)
(5.05446 0.0365622 0)
(5.05616 0.0346081 0)
(5.05879 0.0326779 -3.75197e-20)
(5.06197 0.0301334 0)
(5.06454 0.0264874 -1.24937e-20)
(5.06528 0.0223651 0)
(5.06344 0.0187827 0)
(5.0596 0.0169408 0)
(5.05421 0.0166472 0)
(5.04863 0.0180091 0)
(5.04255 0.0198655 0)
(5.03738 0.0232239 -2.47692e-20)
(5.03072 0.0257644 0)
(5.02484 0.0306195 -1.2333e-20)
(5.01298 0.0324437 3.69139e-20)
(5.00224 0.0408924 0)
(4.97807 0.0430845 0)
(4.96209 0.0635919 -2.45158e-20)
(4.91875 0.0693156 -2.45843e-20)
(4.90432 0.120102 2.45172e-20)
(4.83229 0.138214 2.46597e-20)
(0.0108207 0.118893 -6.57084e-21)
(0.335943 -0.271226 -6.59221e-21)
(0.864103 -1.15823 -4.55349e-21)
(1.37232 -1.92447 -2.5456e-21)
(1.77826 -2.4677 0)
(2.00477 -2.6515 5.71507e-21)
(2.0763 -2.53336 -3.48654e-21)
(2.06151 -2.27766 0)
(1.99717 -1.95884 -3.02086e-21)
(1.93379 -1.61312 0)
(1.87034 -1.28435 7.87032e-21)
(1.81413 -0.97375 0)
(1.75607 -0.680546 3.7109e-21)
(1.69525 -0.406595 7.65884e-21)
(1.62474 -0.154296 -7.82853e-21)
(1.54192 0.0759329 0)
(1.44254 0.285952 -7.96109e-21)
(1.32504 0.481318 0)
(1.1932 0.663909 0)
(1.05385 0.829697 -7.72158e-21)
(0.915574 0.977233 0)
(0.778464 1.105 -1.00591e-21)
(0.651812 1.19842 0)
(0.512801 1.29858 0)
(0.343946 1.44303 1.08009e-21)
(0.164451 1.59526 -6.63347e-21)
(-0.0216899 1.7471 -7.60202e-21)
(-0.20632 1.87762 -6.40851e-21)
(-0.388699 1.96593 0)
(-0.570696 2.00099 -1.37223e-20)
(-0.768554 1.96842 0)
(-0.972088 1.86884 -7.3087e-21)
(-1.17823 1.71664 0)
(-1.36909 1.5156 0)
(-1.56001 1.28009 7.4294e-21)
(-1.73331 1.00562 0)
(-1.92498 0.786328 -7.59336e-21)
(-2.13431 0.696085 3.75104e-22)
(-2.39016 0.786196 1.55111e-20)
(-2.68047 0.983265 -1.62717e-20)
(-2.97275 1.18584 0)
(-3.23962 1.2876 0)
(-3.45914 1.34367 -8.78447e-21)
(-3.655 1.33275 0)
(-3.82664 1.31805 -7.71052e-21)
(-3.99196 1.32484 7.86445e-21)
(-4.11715 1.29444 8.07176e-21)
(-4.20794 1.2273 0)
(-4.2696 1.14566 -8.601e-21)
(-4.32942 1.05249 -8.84181e-21)
(-4.38486 0.967205 1.97573e-20)
(-4.47208 0.91513 -9.26618e-21)
(-4.59084 0.911157 -9.45047e-21)
(-4.75124 0.922125 0)
(-4.89946 0.905135 0)
(-5.02943 0.862282 1.00915e-20)
(-5.13951 0.801904 0)
(-5.25961 0.743131 0)
(-5.38061 0.676614 -2.18508e-20)
(-5.50577 0.598732 -2.2432e-20)
(-5.63058 0.50866 0)
(-5.75648 0.414688 0)
(-5.87873 0.327292 0)
(-5.9967 0.257939 0)
(-6.10561 0.210082 -2.46895e-20)
(-6.20082 0.181451 2.59155e-20)
(-6.27812 0.164565 2.49131e-20)
(-6.33488 0.150697 5.06066e-20)
(-6.36968 0.130185 0)
(-6.38092 0.0963588 9.67002e-22)
(-6.36449 0.0476368 0)
(-6.32122 -0.0137433 -2.28204e-20)
(-6.25577 -0.083087 8.05573e-22)
(-6.16881 -0.155325 -2.12683e-20)
(-6.06028 -0.225981 2.04316e-20)
(-5.93646 -0.28905 5.93912e-22)
(-5.80543 -0.340496 0)
(-5.6731 -0.37946 1.82856e-20)
(-5.54366 -0.406779 1.69354e-20)
(-5.41982 -0.424297 3.25695e-20)
(-5.30303 -0.434426 0)
(-5.19364 -0.439888 -1.48437e-20)
(-5.0909 -0.443563 0)
(-4.993 -0.448368 2.62704e-20)
(-4.89716 -0.457036 -1.21818e-20)
(-4.79986 -0.471799 1.1461e-20)
(-4.69708 -0.494041 -1.07482e-20)
(-4.5847 -0.523975 -2.12467e-20)
(-4.45883 -0.560642 9.32595e-21)