/*--------------------------------*- C++ -*----------------------------------*\
  =========                 |
  \\      /  F ield         | OpenFOAM: The Open Source CFD Toolbox
   \\    /   O peration     | Website:  https://openfoam.org
    \\  /    A nd           | Version:  9
     \\/     M anipulation  |
\*---------------------------------------------------------------------------*/
FoamFile
{
    format      ascii;
    class       volScalarField;
    location    "0.12";
    object      epsilonU;
}
// * * * * * * * * * * * * * * * * * * * * * * * * * * * * * * * * * * * * * //

dimensions      [0 2 -3 0 0 0 0];

internalField   nonuniform List<scalar> 
12225
(
278.515
263.66
249.434
236.839
226.739
219.485
215.073
213.269
213.715
216.004
219.733
224.532
230.082
236.119
242.443
248.889
255.503
265.099
61.1162
86.6962
97.9933
107.211
118.472
132.569
149.431
168.643
189.625
211.751
234.433
257.161
279.534
301.259
322.259
342.382
363.278
382.11
25.2776
36.1832
43.3823
48.6224
53.3885
58.34
63.7768
69.8353
76.5409
83.8458
91.6605
99.8767
108.384
117.086
125.919
134.873
144.122
153.681
17.5217
21.2987
24.7147
27.6105
30.1629
32.5416
34.8691
37.2317
39.6827
42.2487
44.9376
47.7453
50.6612
53.6743
56.7775
59.9825
63.3135
66.8067
15.4878
16.7519
18.1859
19.5891
20.9099
22.1497
23.3275
24.4669
25.5888
26.7086
27.8362
28.9774
30.1352
31.3116
32.5088
33.7331
34.9909
36.2809
14.9084
15.2396
15.7464
16.3342
16.9478
17.5593
18.1564
18.7364
19.3013
19.8543
20.3986
20.9368
21.4713
22.0041
22.5369
23.0727
23.6136
24.1541
14.7451
14.7391
14.8342
15.0036
15.2216
15.4681
15.7288
15.9952
16.2625
16.5283
16.7914
17.0515
17.3088
17.5636
17.8164
18.0682
18.3196
18.5664
14.7013
14.5825
14.5116
14.4858
14.4981
14.5403
14.6044
14.6839
14.7739
14.8711
14.9731
15.078
15.1848
15.2929
15.4018
15.5113
15.6214
15.7293
14.6901
14.5373
14.407
14.3008
14.2182
14.1571
14.1146
14.0876
14.0733
14.0694
14.0738
14.0848
14.1011
14.1219
14.1462
14.1736
14.2036
14.2344
14.6874
14.5252
14.3761
14.2411
14.1204
14.0137
13.9203
13.8391
13.7688
13.7083
13.6564
13.612
13.5742
13.5421
13.5151
13.4925
13.4739
13.4584
14.6868
14.5221
14.3677
14.2236
14.0896
13.9655
13.8511
13.746
13.6494
13.561
13.4801
13.406
13.3383
13.2764
13.2197
13.1679
13.1206
13.0775
14.6866
14.5213
14.3656
14.219
14.0812
13.9518
13.8305
13.7168
13.6105
13.511
13.4181
13.3313
13.2503
13.1746
13.1039
13.038
12.9764
12.9194
14.6865
14.521
14.3648
14.2175
14.0785
13.9472
13.8234
13.7065
13.5962
13.4922
13.394
13.3014
13.2141
13.1318
13.0541
12.9809
12.9119
12.8475
14.6864
14.5208
14.3645
14.2169
14.0774
13.9456
13.8209
13.7029
13.5912
13.4854
13.3853
13.2903
13.2004
13.1152
13.0343
12.9577
12.8852
12.8171
14.6864
14.5207
14.3643
14.2165
14.0769
13.9449
13.8199
13.7016
13.5895
13.4832
13.3824
13.2867
13.1959
13.1097
13.0278
12.9501
12.8762
12.8067
14.6863
14.5206
14.3641
14.2163
14.0766
13.9444
13.8193
13.7009
13.5886
13.4822
13.3812
13.2853
13.1943
13.1078
13.0256
12.9475
12.8732
12.8033
14.6863
14.5205
14.364
14.2161
14.0763
13.9441
13.8189
13.7004
13.5881
13.4815
13.3805
13.2845
13.1934
13.1068
13.0245
12.9462
12.8718
12.8018
14.6863
14.5204
14.3639
14.216
14.0761
13.9439
13.8187
13.7001
13.5877
13.4811
13.38
13.284
13.1928
13.1061
13.0238
12.9454
12.8709
12.8008
14.6863
14.5204
14.3639
14.2159
14.0761
13.9438
13.8186
13.6999
13.5875
13.4809
13.3798
13.2837
13.1925
13.1058
13.0234
12.945
12.8705
12.8004
14.6863
14.5205
14.3639
14.216
14.0762
13.9439
13.8187
13.7001
13.5877
13.4812
13.38
13.284
13.1928
13.1062
13.0238
12.9455
12.871
12.8009
14.6863
14.5205
14.364
14.2162
14.0764
13.9443
13.8192
13.7007
13.5885
13.4821
13.3812
13.2855
13.1946
13.1083
13.0263
12.9484
12.8743
12.8047
14.6863
14.5206
14.3643
14.2167
14.0773
13.9457
13.8214
13.7039
13.5929
13.4879
13.3886
13.2948
13.206
13.1219
13.0424
12.967
12.8957
12.829
14.6865
14.5212
14.3659
14.2202
14.0837
13.9561
13.8368
13.7256
13.6218
13.525
13.4348
13.3506
13.272
13.1987
13.1301
13.066
13.006
12.9506
14.6876
14.5264
14.3793
14.2467
14.1282
14.0231
13.9302
13.8484
13.7762
13.7126
13.6564
13.6067
13.5627
13.5236
13.4889
13.458
13.4304
13.4064
14.6976
14.5664
14.4707
14.4075
14.3714
14.3568
14.3584
14.3719
14.394
14.4222
14.4548
14.4905
14.5283
14.5676
14.608
14.6491
14.6906
14.7325
14.7737
14.8186
14.9602
15.1591
15.3862
15.6232
15.8596
16.0902
16.3131
16.528
16.7352
16.9358
17.1304
17.32
17.5052
17.6868
17.8651
18.0397
15.2587
16.1151
17.0712
17.9726
18.7877
19.5235
20.194
20.8142
21.3979
21.9562
22.4972
23.0272
23.5505
24.0699
24.5871
25.103
25.6179
26.1291
18.0414
22.0078
24.9884
27.153
28.8879
30.4042
31.8114
33.1769
34.5416
35.9281
37.3475
38.8035
40.2953
41.8189
43.3687
44.9383
46.5212
48.1046
34.0239
45.6875
51.3763
54.9415
58.0794
61.2957
64.7474
68.4782
72.4723
76.6866
81.0709
85.5754
90.1537
94.764
99.3707
103.945
108.471
112.922
163.308
157.417
151.704
146.261
141.3
136.947
133.249
130.206
127.779
125.917
124.556
123.634
123.089
122.865
122.91
123.179
123.632
124.231
0.749117
0.702906
1.07764
1.39865
1.70113
2.02361
2.38338
2.78906
3.25053
3.77525
4.32686
4.88349
5.4319
5.96035
6.45944
6.92227
7.3441
7.72191
8.05412
8.34052
8.58209
8.77991
8.93221
9.03083
9.06639
9.06704
9.17016
9.18828
38.9526
9.22991
9.09246
9.15392
9.26482
9.23477
9.31449
9.36021
39.6616
42.1374
44.846
47.6994
50.685
53.8012
57.0481
60.4273
63.9416
67.5943
71.389
75.3297
79.4202
83.6644
88.0661
92.6289
97.3563
102.251
107.317
112.556
117.971
123.564
129.336
135.289
141.423
147.74
154.239
160.919
167.781
174.823
182.043
189.44
197.009
204.75
212.657
220.728
228.957
237.34
245.872
254.547
263.358
272.3
281.365
290.545
299.834
309.222
318.702
328.264
337.899
347.598
357.348
367.142
376.966
386.81
396.661
406.509
416.341
426.146
435.917
445.652
455.359
465.069
474.775
484.35
493.792
503.093
512.24
521.218
530.012
538.605
546.982
555.126
563.023
570.656
578.01
585.072
591.828
598.262
604.364
610.12
615.519
620.55
625.203
629.469
633.339
636.806
639.863
642.504
644.725
646.522
647.893
648.835
649.347
649.432
649.089
648.322
647.134
645.529
643.513
641.093
638.276
635.071
631.486
627.533
623.222
618.565
613.574
608.263
602.645
596.735
590.546
584.095
577.397
570.468
563.323
555.979
548.453
540.76
532.917
524.937
516.846
508.65
500.371
492.037
483.614
475.235
466.995
460.755
457.301
454.016
450.71
447.373
444.01
440.625
437.22
433.794
430.339
426.834
423.234
419.442
415.232
410.015
402.265
386.408
1.91481
1.22751
1.23518
1.36562
1.56001
1.80994
2.11709
2.47584
2.88625
3.34314
3.83402
4.34472
4.86271
5.378
5.8836
6.37549
6.8525
7.31603
7.77005
8.22144
8.68078
9.16356
9.6918
10.2941
10.9893
11.7369
12.4625
13.4702
15.1552
15.4659
16.9629
18.0062
18.9193
20.4888
21.8417
23.4214
25.6255
27.0873
28.5141
29.9725
31.4781
33.0339
34.6418
36.3037
38.0213
39.7962
41.6298
43.5236
45.4786
47.4962
49.5772
51.7226
53.9332
56.2097
58.5527
60.9626
63.4399
65.9847
68.5973
71.2775
74.0253
76.8404
79.7225
82.671
85.6853
88.7646
91.9079
95.1143
98.3824
101.711
105.099
108.543
112.044
115.598
119.204
122.859
126.562
130.309
134.099
137.927
141.793
145.691
149.62
153.577
157.556
161.556
165.572
169.6
173.636
177.677
181.717
185.754
189.784
193.804
197.813
201.815
205.816
209.829
213.882
217.898
221.866
225.78
229.634
233.424
237.142
240.782
244.339
247.806
251.178
254.448
257.611
260.66
263.591
266.399
269.077
271.622
274.028
276.291
278.408
280.373
282.184
283.838
285.331
286.66
287.825
288.822
289.65
290.309
290.797
291.114
291.26
291.235
291.041
290.679
290.149
289.455
288.598
287.581
286.408
285.08
283.604
281.981
280.217
278.317
276.284
274.124
271.843
269.446
266.939
264.327
261.616
258.813
255.923
252.952
249.909
246.794
243.622
240.391
237.113
233.8
230.409
227.067
223.795
220.935
218.602
216.375
214.164
211.954
209.741
207.528
205.317
203.108
200.903
198.702
196.502
194.297
192.07
189.822
187.454
186.329
3.4705
1.92121
1.7559
1.82622
1.98965
2.21598
2.50002
2.83956
3.23164
3.6703
4.14622
4.64844
5.16642
5.69152
6.21782
6.74229
7.26464
7.78699
8.31359
8.85052
9.40556
9.98788
10.6075
11.2739
11.9896
12.743
13.5224
14.365
15.2669
16.1649
17.1521
18.147
19.1806
20.2891
21.421
22.599
23.8167
25.0067
26.213
27.4534
28.735
30.0596
31.4283
32.8421
34.3016
35.8076
37.361
38.9624
40.6125
42.3119
44.0613
45.8612
47.7119
49.614
51.5677
53.5733
55.631
57.7409
59.9029
62.1172
64.3834
66.7014
69.0709
71.4915
73.9626
76.4836
79.0539
81.6726
84.3389
87.0518
89.8101
92.6127
95.4583
98.3454
101.273
104.238
107.24
110.278
113.348
116.449
119.578
122.735
125.916
129.118
132.34
135.578
138.831
142.096
145.369
148.649
151.934
155.221
158.508
161.796
165.084
168.373
171.664
174.962
178.247
181.502
184.72
187.896
191.023
194.098
197.116
200.07
202.958
205.772
208.51
211.165
213.733
216.21
218.591
220.872
223.049
225.117
227.073
228.913
230.635
232.234
233.708
235.054
236.271
237.355
238.305
239.12
239.798
240.338
240.74
241.004
241.129
241.116
240.965
240.678
240.256
239.7
239.012
238.194
237.25
236.181
234.99
233.681
232.258
230.723
229.082
227.337
225.494
223.556
221.528
219.415
217.222
214.953
212.613
210.207
207.741
205.215
202.643
200.02
197.355
194.674
191.963
189.262
186.604
184.1
181.786
179.544
177.327
175.119
172.919
170.726
168.543
166.373
164.218
162.082
159.973
157.901
155.889
154.009
152.364
151.792
5.37823
2.74166
2.38805
2.38799
2.51492
2.72075
2.99046
3.31777
3.6978
4.12443
4.58965
5.08429
5.59928
6.12694
6.66174
7.20062
7.74291
8.28998
8.84485
9.4117
9.99541
10.6011
11.2336
11.8968
12.5929
13.3211
14.0808
14.8768
15.7087
16.5753
17.4817
18.4234
19.4021
20.4183
21.4673
22.5488
23.6599
24.7957
25.9614
27.162
28.4009
29.68
31.0004
32.3631
33.7689
35.2185
36.7126
38.252
39.8373
41.4692
43.1482
44.8749
46.6498
48.4734
50.3462
52.2686
54.2407
56.2629
58.3355
60.4584
62.6318
64.8556
67.1297
69.4539
71.8279
74.2514
76.7239
79.2447
81.8132
84.4287
87.0901
89.7966
92.547
95.3401
98.1746
101.049
103.962
106.911
109.895
112.913
115.961
119.039
122.143
125.272
128.423
131.594
134.782
137.986
141.202
144.43
147.665
150.907
154.154
157.404
160.656
163.908
167.16
170.4
173.619
176.807
179.959
183.069
186.131
189.142
192.095
194.986
197.809
200.56
203.234
205.826
208.331
210.744
213.062
215.279
217.392
219.397
221.289
223.066
224.724
226.26
227.67
228.954
230.108
231.13
232.018
232.772
233.39
233.871
234.215
234.422
234.491
234.424
234.221
233.884
233.413
232.811
232.079
231.219
230.236
229.13
227.907
226.567
225.116
223.558
221.895
220.133
218.275
216.327
214.293
212.176
209.982
207.718
205.385
202.989
200.539
198.026
195.477
192.892
190.274
187.634
184.975
182.317
179.684
177.124
174.654
172.235
169.841
167.462
165.097
162.747
160.414
158.101
155.813
153.557
151.343
149.192
147.138
145.265
143.695
142.895
7.36443
3.6311
3.05553
2.96829
3.05368
3.23576
3.48876
3.80136
4.16641
4.5772
5.02631
5.50573
6.00761
6.52513
7.05321
7.58883
8.13098
8.68045
9.23944
9.8111
10.3991
11.0072
11.6388
12.2971
12.9845
13.7024
14.4522
15.2354
16.0528
16.9051
17.7931
18.7166
19.6756
20.6695
21.6979
22.7604
23.8569
24.9873
26.1529
27.3557
28.5973
29.8793
31.2028
32.5687
33.978
35.4316
36.9303
38.4751
40.0666
41.7058
43.3934
45.1302
46.917
48.7544
50.6431
52.5838
54.577
56.6233
58.723
60.8767
63.0845
65.3468
67.6636
70.0351
72.4611
74.9416
77.4762
80.0646
82.7063
85.4007
88.1469
90.9441
93.7913
96.6873
99.6308
102.62
105.655
108.732
111.85
115.007
118.201
121.43
124.691
127.982
131.302
134.646
138.013
141.4
144.804
148.224
151.655
155.096
158.544
161.997
165.451
168.905
172.349
175.775
179.174
182.54
185.867
189.149
192.38
195.555
198.669
201.715
204.688
207.583
210.394
213.116
215.745
218.273
220.698
223.015
225.218
227.304
229.268
231.107
232.817
234.395
235.838
237.144
238.31
239.334
240.215
240.951
241.541
241.984
242.281
242.431
242.435
242.292
242.006
241.576
241.005
240.295
239.448
238.467
237.355
236.115
234.751
233.267
231.666
229.953
228.133
226.209
224.187
222.071
219.868
217.582
215.214
212.778
210.272
207.7
205.082
202.413
199.705
196.961
194.188
191.392
188.58
185.764
182.963
180.202
177.491
174.817
172.168
169.54
166.931
164.342
161.778
159.243
156.742
154.284
151.883
149.564
147.364
145.364
143.662
142.514
9.23874
4.48863
3.68876
3.51754
3.56098
3.71705
3.94999
4.24381
4.58919
4.97876
5.40547
5.86225
6.34235
6.83996
7.35065
7.87174
8.40225
8.94275
9.49505
10.0618
10.6461
11.2511
11.8799
12.5351
13.2193
13.9341
14.6811
15.4615
16.2763
17.126
18.0112
18.9322
19.8892
20.8824
21.912
22.9782
24.0817
25.2229
26.4028
27.6224
28.8831
30.1859
31.532
32.9225
34.3585
35.8412
37.3715
38.9507
40.5797
42.2597
43.9917
45.7768
47.6162
49.5107
51.4614
53.4693
55.5353
57.6602
59.8448
62.0898
64.396
66.7637
69.1935
71.6857
74.2405
76.858
79.5382
82.2808
85.0856
87.9519
90.8793
93.8668
96.9135
100.018
103.179
106.396
109.666
112.988
116.359
119.778
123.241
126.748
130.295
133.879
137.498
141.149
144.828
148.533
152.261
156.007
159.77
163.545
167.329
171.119
174.91
178.698
182.469
186.215
189.931
193.61
197.244
200.828
204.355
207.819
211.214
214.534
217.771
220.92
223.975
226.93
229.78
232.517
235.138
237.637
240.008
242.248
244.352
246.315
248.134
249.805
251.326
252.694
253.905
254.959
255.853
256.587
257.159
257.568
257.816
257.901
257.826
257.59
257.195
256.644
255.938
255.081
254.074
252.922
251.627
250.194
248.628
246.932
245.11
243.168
241.112
238.947
236.676
234.306
231.847
229.299
226.662
223.961
221.194
218.363
215.482
212.551
209.58
206.574
203.539
200.483
197.411
194.335
191.267
188.223
185.211
182.23
179.274
176.343
173.436
170.557
167.71
164.9
162.134
159.423
156.782
154.238
151.828
149.622
147.692
146.175
10.8908
5.24172
4.24937
4.00381
4.008
4.13765
4.34852
4.6207
4.94306
5.30774
5.70805
6.13779
6.59131
7.06382
7.55172
8.05284
8.56641
9.09299
9.63413
10.1921
10.7696
11.3694
11.9942
12.6464
13.3281
14.0411
14.7869
15.5667
16.3814
17.2318
18.1185
19.0422
20.0033
21.0024
22.0401
23.117
24.234
25.3917
26.5912
27.8334
29.1196
30.4508
31.8283
33.2535
34.7277
36.2521
37.8283
39.4574
41.1411
42.8807
44.6777
46.5335
48.4496
50.4273
52.4681
54.5734
56.7444
58.9825
61.2888
63.6643
66.1102
68.6273
71.2164
73.8782
76.6131
79.4216
82.3037
85.2596
88.289
91.3915
94.5666
97.8135
101.131
104.518
107.974
111.496
115.082
118.731
122.44
126.207
130.029
133.903
137.826
141.796
145.808
149.859
153.947
158.065
162.212
166.383
170.574
174.78
178.997
183.221
187.446
191.661
195.853
200.015
204.142
208.224
212.257
216.231
220.14
223.976
227.733
231.404
234.98
238.455
241.822
245.074
248.206
251.21
254.08
256.811
259.397
261.833
264.114
266.235
268.192
269.983
271.602
273.048
274.318
275.41
276.323
277.055
277.605
277.973
278.16
278.166
277.992
277.64
277.112
276.409
275.536
274.496
273.291
271.925
270.403
268.73
266.912
264.953
262.856
260.629
258.28
255.815
253.233
250.545
247.767
244.898
241.943
238.915
235.818
232.658
229.444
226.182
222.878
219.54
216.174
212.787
209.386
205.98
202.58
199.196
195.838
192.506
189.202
185.927
182.682
179.472
176.302
173.177
170.107
167.104
164.183
161.371
158.704
156.239
154.023
152.133
12.2119
5.86879
4.71928
4.41012
4.37869
4.48273
4.671
4.92043
5.2185
5.55702
5.92967
6.33108
6.75662
7.20247
7.66586
8.14513
8.6398
9.15041
9.67832
10.2255
10.7942
11.3869
12.0059
12.6533
13.3312
14.041
14.7844
15.5626
16.3766
17.2274
18.1159
19.0428
20.009
21.0153
22.0625
23.1517
24.2838
25.4597
26.6807
27.9478
29.2624
30.6259
32.0397
33.5053
35.0244
36.5986
38.2297
39.9194
41.6696
43.482
45.3586
47.3013
49.312
51.3925
53.5447
55.7705
58.0716
60.4497
62.9065
65.4436
68.0624
70.7641
73.5499
76.4209
79.3778
82.4213
85.5518
88.7695
92.0744
95.4662
98.9443
102.508
106.156
109.888
113.7
117.593
121.563
125.608
129.725
133.912
138.165
142.481
146.857
151.288
155.771
160.301
164.874
169.485
174.131
178.805
183.504
188.22
192.949
197.686
202.422
207.138
211.824
216.476
221.084
225.641
230.138
234.568
238.921
243.19
247.366
251.441
255.407
259.256
262.981
266.572
270.025
273.33
276.482
279.474
282.3
284.954
287.43
289.724
291.832
293.748
295.471
296.997
298.324
299.449
300.372
301.091
301.605
301.915
302.022
301.925
301.628
301.132
300.439
299.554
298.479
297.219
295.777
294.158
292.365
290.409
288.295
286.027
283.607
281.044
278.354
275.54
272.605
269.559
266.413
263.172
259.843
256.435
252.956
249.412
245.813
242.164
238.474
234.75
231
227.229
223.447
219.661
215.88
212.113
208.369
204.652
200.966
197.313
193.697
190.123
186.597
183.127
179.721
176.393
173.16
170.046
167.084
164.321
161.782
159.518
13.2558
6.37445
5.0954
4.73132
4.66758
4.74726
4.91342
5.14039
5.41457
5.72754
6.07334
6.44732
6.8457
7.26552
7.7047
8.16208
8.63739
9.13119
9.64466
10.1795
10.7376
11.3212
11.9322
12.5726
13.2442
13.9487
14.6876
15.4622
16.2738
17.1235
18.0124
18.9416
19.9121
20.9251
21.9818
23.0832
24.2307
25.4255
26.669
27.9626
29.308
30.7067
32.1606
33.6715
35.2415
36.8724
38.5666
40.3263
42.1536
44.051
46.0209
48.0656
50.1876
52.3892
54.673
57.0412
59.4962
62.0401
64.6752
67.4035
70.2268
73.147
76.1654
79.2837
82.5027
85.8236
89.2468
92.7729
96.4018
100.133
103.967
107.902
111.937
116.071
120.301
124.625
129.041
133.547
138.137
142.81
147.562
152.388
157.283
162.245
167.267
172.345
177.474
182.648
187.862
193.109
198.384
203.68
208.99
214.308
219.613
224.89
230.13
235.328
240.473
245.557
250.57
255.502
260.344
265.087
269.721
274.236
278.624
282.876
286.983
290.937
294.73
298.353
301.8
305.063
308.136
311.012
313.685
316.15
318.403
320.438
322.254
323.847
325.215
326.355
327.267
327.95
328.404
328.629
328.625
328.396
327.944
327.269
326.377
325.27
323.955
322.436
320.718
318.805
316.697
314.414
311.961
309.341
306.561
303.628
300.556
297.35
294.017
290.567
287.009
283.351
279.602
275.77
271.864
267.892
263.863
259.784
255.665
251.513
247.335
243.14
238.936
234.729
230.529
226.345
222.184
218.053
213.955
209.897
205.883
201.919
198.012
194.17
190.403
186.725
183.152
179.708
176.422
173.33
170.445
167.802
14.0325
6.76148
5.37963
4.96903
4.87633
4.9333
5.07849
5.28418
5.5359
5.82508
6.14604
6.49467
6.86789
7.26342
7.67972
8.11602
8.57224
9.04894
9.54719
10.0684
10.6144
11.187
11.7879
12.4192
13.0825
13.7796
14.512
15.2812
16.0887
16.9359
17.8241
18.7546
19.729
20.7485
21.8146
22.9287
24.0925
25.3076
26.5757
27.8986
29.2782
30.7166
32.2159
33.7785
35.4068
37.1033
38.8707
40.7117
42.6292
44.6261
46.7053
48.8698
51.1227
53.4669
55.9055
58.4413
61.0774
63.8164
66.6611
69.6139
72.6774
75.8536
79.1445
82.5518
86.077
89.7213
93.4853
97.3697
101.375
105.5
109.744
114.108
118.588
123.183
127.892
132.71
137.636
142.665
147.794
153.018
158.333
163.734
169.215
174.772
180.399
186.09
191.838
197.638
203.483
209.365
215.278
221.213
227.162
233.114
239.035
244.919
250.758
256.543
262.264
267.911
273.472
278.936
284.293
289.532
294.642
299.613
304.436
309.1
313.596
317.914
322.047
325.984
329.719
333.245
336.553
339.637
342.49
345.106
347.481
349.611
351.493
353.125
354.503
355.627
356.495
357.108
357.464
357.565
357.414
357.012
356.363
355.47
354.334
352.963
351.365
349.545
347.507
345.258
342.804
340.156
337.322
334.31
331.128
327.783
324.288
320.65
316.878
312.983
308.974
304.861
300.652
296.357
291.987
287.55
283.055
278.511
273.928
269.313
264.675
260.023
255.364
250.706
246.058
241.429
236.826
232.257
227.727
223.242
218.809
214.435
210.126
205.893
201.744
197.696
193.763
189.967
186.334
182.892
179.643
176.619
14.5599
7.03691
5.57821
5.12954
5.01145
5.04766
5.17341
5.35946
5.59067
5.85833
6.15697
6.48289
6.83347
7.20694
7.60219
8.01871
8.45659
8.9164
9.39914
9.90613
10.4389
10.9993
11.5889
12.2097
12.8634
13.5518
14.2767
15.0397
15.8426
16.687
17.5746
18.5071
19.4861
20.5135
21.591
22.7205
23.904
25.1434
26.4409
27.7988
29.2195
30.7055
32.2595
33.8843
35.5829
37.3584
39.2141
41.1534
43.1797
45.2965
47.5076
49.8165
52.2269
54.7425
57.3669
60.1037
62.9564
65.9282
69.0225
72.2423
75.5904
79.0695
82.6818
86.4294
90.3139
94.3366
98.4985
102.8
107.241
111.821
116.54
121.395
126.386
131.509
136.762
142.142
147.644
153.264
158.998
164.839
170.783
176.823
182.954
189.168
195.461
201.824
208.25
214.733
221.264
227.836
234.439
241.065
247.704
254.313
260.882
267.404
273.868
280.263
286.578
292.803
298.924
304.928
310.803
316.538
322.12
327.54
332.786
337.847
342.714
347.376
351.825
356.05
360.044
363.799
367.309
370.566
373.561
376.288
378.744
380.926
382.83
384.454
385.796
386.856
387.632
388.126
388.335
388.264
387.914
387.291
386.396
385.236
383.813
382.135
380.209
378.043
375.642
373.014
370.167
367.112
363.858
360.413
356.788
352.991
349.034
344.927
340.68
336.304
331.809
327.206
322.505
317.717
312.851
307.919
302.929
297.892
292.817
287.714
282.59
277.456
272.319
267.188
262.071
256.978
251.915
246.89
241.912
236.986
232.12
227.32
222.596
217.957
213.414
208.98
204.672
200.509
196.512
192.706
189.084
185.678
14.8636
7.21152
5.70047
5.22209
5.08235
5.10001
5.20809
5.37635
5.5892
5.83782
6.11686
6.42288
6.7536
7.10757
7.48397
7.88251
8.30339
8.74723
9.21501
9.708
10.2277
10.7758
11.3541
11.9645
12.6089
13.2892
14.0073
14.7654
15.5653
16.4091
17.2988
18.2366
19.2244
20.2645
21.3591
22.5106
23.7214
24.994
26.3312
27.7357
29.2105
30.7588
32.3838
34.0891
35.8782
37.7551
39.7236
41.7879
43.9521
46.2205
48.5976
51.0876
53.6951
56.4242
59.2794
62.2646
65.384
68.6414
72.0407
75.5852
79.2783
83.1228
87.1212
91.2758
95.5881
100.059
104.691
109.482
114.433
119.543
124.811
130.234
135.81
141.535
147.407
153.421
159.572
165.855
172.264
178.791
185.429
192.171
199.012
205.943
212.956
220.045
227.2
234.414
241.677
248.98
256.315
263.67
271
278.283
285.513
292.678
299.768
306.77
313.673
320.463
327.128
333.653
340.021
346.222
352.243
358.074
363.702
369.118
374.309
379.265
383.977
388.436
392.633
396.56
400.211
403.582
406.657
409.432
411.905
414.073
415.934
417.486
418.728
419.658
420.279
420.589
420.591
420.288
419.683
418.781
417.586
416.103
414.34
412.302
409.999
407.437
404.625
401.572
398.288
394.782
391.066
387.149
383.041
378.755
374.302
369.692
364.938
360.05
355.04
349.92
344.701
339.394
334.01
328.56
323.054
317.504
311.919
306.309
300.683
295.051
289.421
283.803
278.204
272.634
267.101
261.613
256.177
250.802
245.495
240.263
235.116
230.064
225.118
220.291
215.599
211.06
206.691
202.512
198.513
194.727
14.9739
7.29841
5.75735
5.25739
5.09993
5.10146
5.1939
5.34645
5.54326
5.77548
6.03783
6.32702
6.64097
6.97846
7.33884
7.72199
8.12821
8.55818
9.01294
9.49379
10.0023
10.5401
11.1093
11.7118
12.3497
13.0253
13.7408
14.4985
15.301
16.1505
17.0496
18.001
19.0071
20.0708
21.1949
22.3823
23.636
24.9593
26.3555
27.8281
29.381
31.0178
32.7428
34.5602
36.4744
38.49
40.6119
42.8449
45.1941
47.6646
50.2615
52.9901
55.8555
58.8627
62.0164
65.3211
68.7813
72.4014
76.1855
80.1372
84.26
88.5569
93.0302
97.6821
102.514
107.526
112.72
118.094
123.648
129.38
135.288
141.368
147.617
154.031
160.605
167.334
174.212
181.232
188.388
195.667
203.062
210.566
218.17
225.866
233.645
241.5
249.42
257.397
265.42
273.482
281.569
289.63
297.637
305.579
313.448
321.229
328.912
336.482
343.926
351.232
358.391
365.378
372.176
378.775
385.164
391.331
397.265
402.954
408.386
413.553
418.443
423.047
427.358
431.367
435.067
438.454
441.517
444.252
446.655
448.725
450.459
451.856
452.916
453.638
454.024
454.076
453.797
453.19
452.259
451.01
449.449
447.582
445.417
442.961
440.224
437.214
433.942
430.416
426.648
422.649
418.429
414.002
409.378
404.569
399.588
394.447
389.159
383.735
378.188
372.53
366.774
360.931
355.013
349.032
342.999
336.924
330.819
324.694
318.558
312.422
306.294
300.184
294.1
288.051
282.046
276.094
270.201
264.376
258.628
252.965
247.396
241.931
236.581
231.36
226.283
221.365
216.623
212.071
207.696
203.536
14.9248
7.31176
5.7604
5.24667
5.07563
5.06387
5.14314
5.2825
5.46609
5.68505
5.93416
6.21024
6.51134
6.83635
7.18477
7.5566
7.95227
8.37255
8.8186
9.29185
9.79399
10.327
10.8929
11.4941
12.1331
12.8124
13.5347
14.3029
15.1199
15.9888
16.9127
17.8948
18.9386
20.0475
21.2251
22.475
23.8011
25.2075
26.6984
28.2784
29.952
31.7242
33.5998
35.5842
37.6828
39.901
42.2446
44.7194
47.3312
50.0861
52.9899
56.0487
59.2684
62.6547
66.2125
69.9456
73.8588
77.9566
82.2431
86.722
91.3963
96.2685
101.341
106.614
112.088
117.765
123.642
129.718
135.991
142.457
149.114
155.956
162.979
170.176
177.541
185.067
192.748
200.577
208.549
216.639
224.841
233.148
241.552
250.042
258.611
267.249
275.945
284.691
293.473
302.287
311.059
319.764
328.392
336.931
345.368
353.688
361.88
369.927
377.817
385.536
393.069
400.4
407.513
414.396
421.035
427.42
433.538
439.377
444.928
450.18
455.124
459.75
464.051
468.02
471.649
474.934
477.868
480.446
482.666
484.526
486.025
487.161
487.936
488.35
488.407
488.108
487.458
486.461
485.122
483.449
481.448
479.126
476.492
473.556
470.326
466.813
463.027
458.981
454.685
450.151
445.392
440.42
435.248
429.89
424.357
418.663
412.821
406.845
400.747
394.54
388.238
381.852
375.395
368.879
362.315
355.716
349.092
342.454
335.812
329.176
322.556
315.96
309.398
302.878
296.41
290.001
283.661
277.396
271.217
265.131
259.148
253.278
247.533
241.925
236.469
231.179
226.068
221.15
216.409
211.885
14.7518
7.26584
5.72099
5.20112
5.02119
4.99982
5.06938
5.19919
5.37352
5.58363
5.82438
6.09265
6.38662
6.70528
7.04826
7.41571
7.8082
8.22673
8.67265
9.14765
9.65373
10.1932
10.7685
11.3826
12.0383
12.7388
13.4875
14.2879
15.1438
16.0592
17.038
18.0846
19.2034
20.399
21.6759
23.0386
24.4923
26.0422
27.6939
29.4529
31.3252
33.3168
35.4338
37.6826
40.0696
42.6014
45.2846
48.1257
51.1313
54.3081
57.6626
61.2011
64.9301
68.8568
72.9866
77.317
81.8543
86.6029
91.5662
96.747
102.147
107.767
113.608
119.67
125.951
132.449
139.161
146.085
153.215
160.546
168.074
175.79
183.688
191.759
199.997
208.391
216.932
225.612
234.419
243.34
252.364
261.481
270.681
279.954
289.292
298.684
308.121
317.597
327.08
336.491
345.822
355.058
364.184
373.187
382.052
390.766
399.315
407.683
415.857
423.823
431.567
439.074
446.329
453.32
460.034
466.459
472.585
478.401
483.896
489.061
493.888
498.368
502.494
506.259
509.659
512.687
515.341
517.615
519.508
521.02
522.149
522.895
523.262
523.25
522.864
522.106
520.983
519.499
517.662
515.478
512.955
510.103
506.93
503.448
499.665
495.594
491.247
486.635
481.77
476.666
471.336
465.792
460.05
454.121
448.02
441.761
435.358
428.823
422.172
415.416
408.569
401.645
394.656
387.614
380.531
373.42
366.291
359.155
352.023
344.904
337.808
330.745
323.724
316.752
309.84
302.996
296.227
289.543
282.952
276.462
270.084
263.828
257.704
251.725
245.905
240.256
234.791
229.521
224.429
219.558
14.4804
7.17105
5.64802
5.13019
4.94735
4.92171
4.98698
5.11309
5.28464
5.49308
5.73342
6.00271
6.29925
6.62222
6.97148
7.34743
7.75097
8.18345
8.64664
9.14272
9.67424
10.2441
10.8557
11.5126
12.2186
12.9778
13.7945
14.6735
15.6199
16.639
17.7364
18.918
20.19
21.5592
23.0319
24.612
26.3072
28.1246
30.0714
32.155
34.3827
36.762
39.3002
42.0048
44.8831
47.9423
51.1896
54.6318
58.2754
62.1268
66.1919
70.4761
74.9845
79.7216
84.6903
89.892
95.3287
101.002
106.912
113.06
119.445
126.064
132.915
139.995
147.3
154.825
162.564
170.511
178.659
186.999
195.523
204.223
213.089
222.11
231.277
240.579
250.005
259.543
269.183
278.912
288.719
298.594
308.527
318.507
328.527
338.579
348.651
358.664
368.579
378.384
388.067
397.612
407.007
416.237
425.288
434.148
442.801
451.235
459.435
467.389
475.084
482.506
489.642
496.481
503.011
509.222
515.103
520.645
525.839
530.676
535.149
539.251
542.976
546.319
549.275
551.841
554.013
555.79
557.17
558.153
558.74
558.933
558.733
558.146
557.174
555.824
554.1
552.01
549.561
546.762
543.621
540.148
536.354
532.248
527.844
523.152
518.186
512.957
507.479
501.766
495.831
489.688
483.351
476.834
470.152
463.318
456.347
449.252
442.048
434.748
427.366
419.914
412.406
404.853
397.269
389.664
382.051
374.439
366.84
359.263
351.717
344.213
336.759
329.363
322.034
314.78
307.611
300.534
293.557
286.69
279.942
273.322
266.843
260.515
254.351
248.365
242.565
236.963
231.541
226.345
14.1895
7.05637
5.56372
5.05662
4.8798
4.85951
4.93101
5.06502
5.24662
5.46759
5.72324
6.01092
6.32929
6.67798
7.05732
7.46831
7.91252
8.39206
8.90957
9.46825
10.0715
10.7236
11.4292
12.194
13.0245
13.9235
14.8984
15.9561
17.1042
18.3503
19.7024
21.1687
22.758
24.4788
26.3399
28.3495
30.5165
32.8501
35.3592
38.0526
40.9389
44.0263
47.3227
50.8356
54.5717
58.5376
62.7388
67.1804
71.8666
76.8009
81.9861
87.4241
93.1159
99.0615
105.26
111.709
118.406
125.348
132.531
139.95
147.6
155.474
163.567
171.87
180.376
189.076
197.961
207.023
216.25
225.633
235.162
244.826
254.613
264.514
274.516
284.609
294.781
305.022
315.322
325.669
336.052
346.468
356.902
367.354
377.808
388.188
398.442
408.567
418.55
428.377
438.035
447.512
456.796
465.872
474.729
483.355
491.737
499.863
507.721
515.3
522.588
529.574
536.247
542.596
548.613
554.287
559.61
564.574
569.171
573.395
577.24
580.699
583.769
586.445
588.724
590.604
592.083
593.16
593.835
594.11
593.986
593.465
592.552
591.251
589.566
587.504
585.072
582.277
579.128
575.634
571.804
567.648
563.178
558.405
553.341
547.998
542.39
536.529
530.428
524.103
517.566
510.832
503.914
496.828
489.587
482.206
474.699
467.079
459.361
451.558
443.683
435.749
427.77
419.757
411.722
403.676
395.632
387.598
379.586
371.606
363.665
355.774
347.941
340.174
332.482
324.873
317.354
309.934
302.621
295.423
288.351
281.413
274.621
267.985
261.517
255.229
249.131
243.232
237.515
232.029
13.9261
6.94195
5.48754
5.00309
4.84611
4.84666
4.9417
5.10286
5.3159
5.57321
5.87076
6.20665
6.58044
6.99275
7.44511
7.9398
8.47984
9.06896
9.71145
10.4135
11.1794
12.0148
12.9276
13.9263
15.0197
16.2164
17.5264
18.96
20.5285
22.2432
24.1158
26.1582
28.3821
30.7992
33.4209
36.258
39.3209
42.6195
46.1628
49.9589
54.0149
58.3366
62.9289
67.7951
72.9376
78.3571
84.0536
90.0255
96.2702
102.784
109.563
116.6
123.89
131.426
139.199
147.201
155.423
163.856
172.491
181.317
190.326
199.506
208.848
218.341
227.974
237.739
247.624
257.619
267.713
277.896
288.159
298.492
308.883
319.324
329.806
340.32
350.856
361.406
371.966
382.524
393.067
403.623
414.136
424.536
434.782
444.878
454.809
464.566
474.138
483.514
492.683
501.634
510.357
518.841
527.075
535.049
542.754
550.177
557.311
564.145
570.669
576.874
582.752
588.293
593.49
598.335
602.82
606.94
610.688
614.058
617.047
619.649
621.862
623.682
625.107
626.137
626.77