/*--------------------------------*- C++ -*----------------------------------*\
  =========                 |
  \\      /  F ield         | OpenFOAM: The Open Source CFD Toolbox
   \\    /   O peration     | Website:  https://openfoam.org
    \\  /    A nd           | Version:  9
     \\/     M anipulation  |
\*---------------------------------------------------------------------------*/
FoamFile
{
    format      ascii;
    class       volScalarField;
    location    "0.12";
    object      k;
}
// * * * * * * * * * * * * * * * * * * * * * * * * * * * * * * * * * * * * * //

dimensions      [0 2 -2 0 0 0 0];

internalField   nonuniform List<scalar> 
12225
(
0.353921
0.335043
0.316966
0.300961
0.288126
0.278909
0.273302
0.271009
0.271576
0.274485
0.279224
0.285322
0.292374
0.300045
0.308082
0.316272
0.324677
0.33687
0.436865
0.44898
0.438087
0.433065
0.438796
0.453602
0.474826
0.500019
0.527195
0.554868
0.58201
0.607959
0.632339
0.654979
0.676
0.695301
0.715116
0.730549
0.395187
0.410873
0.410631
0.405747
0.402012
0.400927
0.40262
0.406817
0.413097
0.421002
0.430099
0.440009
0.450423
0.461101
0.471908
0.482741
0.493924
0.504798
0.379641
0.38484
0.386546
0.38573
0.383905
0.382027
0.380569
0.379741
0.37961
0.380154
0.381311
0.383001
0.385141
0.387658
0.390503
0.393643
0.397111
0.400803
0.374976
0.3759
0.376239
0.375721
0.37457
0.373083
0.371496
0.369967
0.368594
0.367427
0.366487
0.365772
0.365275
0.364979
0.364875
0.364954
0.365214
0.365626
0.373488
0.372554
0.371759
0.370807
0.369631
0.368275
0.366808
0.365299
0.363802
0.362357
0.360989
0.359713
0.358537
0.357463
0.356492
0.355625
0.354861
0.354195
0.373012
0.371296
0.369813
0.368416
0.367025
0.36561
0.364167
0.36271
0.361256
0.359822
0.358423
0.35707
0.355771
0.35453
0.353352
0.352239
0.351193
0.350221
0.372865
0.370838
0.369004
0.36731
0.365711
0.364173
0.362678
0.361215
0.359781
0.358379
0.357012
0.355684
0.354398
0.353157
0.351962
0.350817
0.349724
0.348693
0.37282
0.37068
0.368691
0.366836
0.365095
0.363448
0.361879
0.360375
0.358926
0.357529
0.356179
0.354876
0.353618
0.352404
0.351235
0.350112
0.349035
0.348017
0.372806
0.370628
0.368578
0.366648
0.364828
0.36311
0.361481
0.359933
0.358456
0.357043
0.355691
0.354393
0.353149
0.351953
0.350806
0.349706
0.348653
0.347657
0.372801
0.370609
0.368537
0.366576
0.36472
0.362963
0.361298
0.359717
0.358214
0.356783
0.355418
0.354115
0.35287
0.35168
0.350542
0.349454
0.348415
0.347434
0.372799
0.370602
0.368522
0.366549
0.36468
0.362906
0.361224
0.359626
0.358107
0.356662
0.355286
0.353976
0.352726
0.351533
0.350396
0.34931
0.348275
0.347299
0.372797
0.370599
0.368514
0.366537
0.36466
0.362879
0.361188
0.35958
0.358052
0.356598
0.355214
0.353897
0.352641
0.351445
0.350305
0.349217
0.348181
0.347206
0.372796
0.370596
0.368509
0.366528
0.364649
0.362863
0.361167
0.359555
0.358021
0.356562
0.355172
0.35385
0.35259
0.351389
0.350245
0.349155
0.348116
0.347138
0.372795
0.370593
0.368505
0.366523
0.364641
0.362853
0.361154
0.359539
0.358002
0.35654
0.355147
0.353822
0.352559
0.351355
0.350208
0.349114
0.348073
0.347093
0.372795
0.370592
0.368502
0.366518
0.364634
0.362845
0.361144
0.359527
0.357989
0.356525
0.355131
0.353803
0.352538
0.351332
0.350183
0.349087
0.348043
0.347061
0.372794
0.37059
0.368499
0.366515
0.36463
0.362839
0.361137
0.359519
0.357979
0.356513
0.355118
0.353789
0.352523
0.351316
0.350165
0.349067
0.348022
0.347038
0.372794
0.37059
0.368498
0.366512
0.364627
0.362835
0.361132
0.359513
0.357972
0.356506
0.355109
0.353779
0.352512
0.351304
0.350152
0.349053
0.348006
0.347021
0.372793
0.370589
0.368497
0.366512
0.364626
0.362834
0.361131
0.359511
0.35797
0.356503
0.355106
0.353775
0.352507
0.351298
0.350146
0.349046
0.347999
0.347012
0.372794
0.37059
0.368498
0.366513
0.364628
0.362836
0.361134
0.359514
0.357973
0.356507
0.35511
0.35378
0.352512
0.351303
0.350151
0.349051
0.348004
0.347017
0.372794
0.370591
0.3685
0.366516
0.364632
0.362842
0.36114
0.359522
0.357983
0.356518
0.355123
0.353794
0.352528
0.351321
0.350169
0.349072
0.348025
0.34704
0.372795
0.370593
0.368504
0.366522
0.364642
0.362856
0.361159
0.359546
0.358012
0.356553
0.355164
0.35384
0.352579
0.351377
0.350231
0.349137
0.348094
0.347111
0.372796
0.370598
0.368518
0.366547
0.364681
0.362913
0.361235
0.359642
0.358128
0.356686
0.355312
0.354002
0.352752
0.351558
0.350417
0.349326
0.348284
0.347301
0.372804
0.370631
0.368592
0.366676
0.364872
0.363167
0.361548
0.360006
0.358533
0.357122
0.355768
0.354468
0.35322
0.352021
0.35087
0.349764
0.348704
0.3477
0.372856
0.370818
0.368973
0.367264
0.365645
0.364085
0.362567
0.361083
0.359632
0.358214
0.356834
0.355494
0.354198
0.352948
0.351745
0.350592
0.349489
0.348447
0.373166
0.37177
0.370579
0.369371
0.368049
0.366605
0.365072
0.363493
0.361906
0.360343
0.358827
0.357373
0.355992
0.354689
0.353469
0.35233
0.351272
0.350303
0.374797
0.375829
0.376175
0.375401
0.373834
0.371876
0.369792
0.36774
0.365813
0.364066
0.362523
0.361193
0.360074
0.359154
0.358421
0.35786
0.357452
0.357184
0.382729
0.391671
0.392375
0.388806
0.384384
0.380403
0.377247
0.374996
0.373618
0.373034
0.373147
0.373858
0.375073
0.376703
0.378669
0.380902
0.383341
0.385918
0.407499
0.414513
0.405422
0.395991
0.390552
0.389287
0.391447
0.396203
0.402819
0.410702
0.419403
0.42858
0.437981
0.447416
0.45675
0.465889
0.474787
0.483359
0.360554
0.347547
0.334933
0.322917
0.311965
0.302352
0.294189
0.287469
0.282113
0.278001
0.274996
0.27296
0.271758
0.271263
0.271363
0.271956
0.272955
0.274278
0.00259646
0.0111272
0.0170552
0.0221261
0.0269013
0.0319964
0.0376742
0.0440703
0.051338
0.0595903
0.0682271
0.0769236
0.0854712
0.0936872
0.101427
0.108584
0.115088
0.120894
0.125983
0.130353
0.13402
0.136992
0.139235
0.140657
0.141262
0.141591
0.142744
0.142598
0.140201
0.14324
0.141368
0.142528
0.144671
0.143725
0.144811
0.14526
0.144097
0.14993
0.156229
0.162729
0.16939
0.176202
0.183157
0.190252
0.197488
0.204864
0.212384
0.220048
0.227858
0.235816
0.243923
0.252179
0.260585
0.269141
0.277846
0.2867
0.2957
0.304846
0.314134
0.323562
0.333126
0.342822
0.352647
0.362596
0.372662
0.382843
0.39313
0.403518
0.414002
0.424573
0.435224
0.445949
0.45674
0.467589
0.478488
0.489428
0.500401
0.511399
0.522412
0.533432
0.54445
0.555457
0.566443
0.577399
0.588316
0.599183
0.609991
0.62073
0.63139
0.64196
0.65243
0.662789
0.67303
0.683142
0.693121
0.702967
0.712694
0.722333
0.731884
0.741218
0.750335
0.759232
0.767902
0.776333
0.784515
0.792436
0.800085
0.807451
0.814524
0.821293
0.827748
0.833881
0.839682
0.845143
0.850255
0.855012
0.859406
0.863431
0.867082
0.870353
0.873239
0.875738
0.877845
0.879559
0.880876
0.881797
0.88232
0.882446
0.882175
0.88151
0.880452
0.879004
0.877171
0.874957
0.872366
0.869404
0.866079
0.862396
0.858364
0.85399
0.849284
0.844255
0.838912
0.833267
0.827329
0.821111
0.814623
0.807878
0.800888
0.793664
0.786221
0.778572
0.770728
0.762704
0.754514
0.746165
0.737683
0.72907
0.720346
0.711536
0.702606
0.693683
0.684855
0.67791
0.673726
0.669712
0.66567
0.661592
0.65748
0.653339
0.649172
0.644977
0.640746
0.636458
0.632068
0.627478
0.622461
0.616425
0.607825
0.590952
0.00665936
0.0220809
0.0320115
0.0398222
0.0469505
0.0538745
0.0609786
0.0684238
0.076382
0.0848616
0.0937113
0.102725
0.111703
0.120471
0.128897
0.136888
0.144386
0.151368
0.157836
0.16382
0.169365
0.174514
0.179303
0.183812
0.188274
0.193001
0.198009
0.203209
0.208752
0.215042
0.222099
0.229395
0.236879
0.245783
0.255141
0.265421
0.276685
0.287634
0.298305
0.309249
0.320501
0.332042
0.343857
0.355936
0.368279
0.380885
0.393757
0.406898
0.420313
0.434004
0.447976
0.462231
0.476773
0.491604
0.506725
0.522137
0.537841
0.553836
0.570121
0.586694
0.603554
0.620695
0.638116
0.65581
0.673773
0.691998
0.710479
0.729207
0.748175
0.767374
0.786794
0.806425
0.826257
0.846278
0.866477
0.886841
0.907357
0.928014
0.948796
0.969691
0.990684
1.01176
1.03291
1.0541
1.07534
1.0966
1.11787
1.13912
1.16036
1.18154
1.20267
1.22372
1.24468
1.26552
1.28623
1.30678
1.32716
1.34731
1.36701
1.38641
1.40554
1.42436
1.44288
1.46105
1.47887
1.49631
1.51334
1.52995
1.54612
1.56181
1.57702
1.59172
1.60589
1.61951
1.63257
1.64505
1.65692
1.66818
1.67881
1.6888
1.69813
1.70679
1.71477
1.72207
1.72866
1.73455
1.73973
1.7442
1.74794
1.75096
1.75326
1.75483
1.75568
1.75582
1.75523
1.75394
1.75194
1.74925
1.74587
1.74182
1.7371
1.73172
1.72571
1.71908
1.71184
1.704
1.69559
1.68663
1.67713
1.66712
1.65661
1.64563
1.6342
1.62234
1.61007
1.59742
1.58442
1.57107
1.55742
1.54352
1.52921
1.51488
1.50045
1.48627
1.47247
1.45865
1.44473
1.43073
1.41667
1.40255
1.3884
1.37422
1.36002
1.3458
1.33154
1.31721
1.30269
1.2879
1.27163
1.25094
0.0120772
0.0338452
0.0467695
0.0565741
0.065122
0.0731482
0.0811284
0.0893348
0.0979112
0.106882
0.116173
0.125648
0.135152
0.144547
0.153721
0.1626
0.17115
0.179368
0.187284
0.194955
0.202455
0.209871
0.217294
0.22484
0.232654
0.240852
0.249451
0.258521
0.268092
0.278201
0.288871
0.300068
0.311817
0.32417
0.337044
0.350433
0.364231
0.378199
0.392331
0.40674
0.42147
0.436529
0.451916
0.467633
0.483681
0.500062
0.51678
0.53384
0.551244
0.568998
0.587105
0.605567
0.624388
0.64357
0.663113
0.683018
0.703285
0.723913
0.744899
0.766241
0.787934
0.809975
0.832357
0.855074
0.878119
0.901484
0.925159
0.949136
0.973402
0.997947
1.02276
1.04782
1.07313
1.09866
1.1244
1.15034
1.17645
1.20273
1.22915
1.2557
1.28237
1.30912
1.33594
1.36282
1.38974
1.41667
1.4436
1.4705
1.49735
1.52415
1.55085
1.57745
1.60393
1.63026
1.65643
1.68242
1.70821
1.73364
1.75873
1.78348
1.80788
1.83191
1.85553
1.87873
1.90146
1.92371
1.94544
1.96663
1.98724
2.00725
2.02664
2.04537
2.06343
2.08078
2.0974
2.11328
2.12839
2.1427
2.15621
2.16889
2.18073
2.19171
2.20182
2.21104
2.21937
2.22679
2.2333
2.23889
2.24355
2.24729
2.25011
2.25199
2.25295
2.25299
2.25211
2.25032
2.24763
2.24405
2.23959
2.23426
2.22808
2.22107
2.21324
2.20462
2.19521
2.18505
2.17416
2.16256
2.15027
2.13732
2.12374
2.10956
2.0948
2.07948
2.06366
2.04733
2.03056
2.01335
1.99573
1.97785
1.95964
1.94123
1.92266
1.90411
1.88567
1.86716
1.84855
1.82984
1.81105
1.79221
1.77333
1.75445
1.73559
1.71676
1.69799
1.6793
1.66072
1.64238
1.62381
1.60484
0.0187184
0.046077
0.0612956
0.0724808
0.0820046
0.0908393
0.0994833
0.108228
0.117233
0.126552
0.136159
0.145966
0.155865
0.165748
0.175529
0.185153
0.1946
0.203882
0.213041
0.222141
0.231262
0.240493
0.249925
0.259652
0.269765
0.280336
0.291402
0.302988
0.315108
0.327765
0.340963
0.354696
0.368949
0.383702
0.398924
0.414578
0.43061
0.446953
0.463588
0.480539
0.497828
0.515468
0.533469
0.551838
0.570581
0.589703
0.60921
0.629109
0.649404
0.670101
0.691203
0.712715
0.734641
0.756983
0.779742
0.802919
0.826516
0.85053
0.874959
0.899802
0.925055
0.950712
0.976767
1.00321
1.03005
1.05725
1.08482
1.11275
1.14102
1.16961
1.19852
1.22774
1.25723
1.287
1.31702
1.34726
1.37773
1.40838
1.43922
1.4702
1.50132
1.53255
1.56386
1.59525
1.62667
1.65812
1.68957
1.72099
1.75236
1.78365
1.81486
1.84594
1.87688
1.90766
1.93824
1.96862
1.99874
2.02847
2.05783
2.0868
2.11535
2.14347
2.1711
2.19823
2.22481
2.25081
2.2762
2.30094
2.32501
2.34836
2.37096
2.39279
2.41382
2.43402
2.45335
2.47179
2.48933
2.50592
2.52156
2.53622
2.54988
2.56253
2.57414
2.58471
2.59422
2.60266
2.61003
2.61631
2.6215
2.6256
2.6286
2.63052
2.63134
2.63108
2.62975
2.62734
2.62388
2.61937
2.61383
2.60728
2.59973
2.5912
2.58171
2.5713
2.55997
2.54777
2.5347
2.52081
2.50613
2.49067
2.47447
2.45758
2.44002
2.4218
2.40302
2.3836
2.36372
2.3434
2.32264
2.30151
2.28004
2.2583
2.23634
2.2143
2.19222
2.17005
2.14776
2.12537
2.1029
2.08039
2.05786
2.03535
2.0129
1.99056
1.96839
1.94648
1.92496
1.90411
1.88385
1.86452
0.0256213
0.057547
0.0748058
0.0871791
0.0975833
0.107093
0.116254
0.125385
0.134669
0.144195
0.153972
0.163961
0.174092
0.184292
0.194502
0.204684
0.214831
0.224962
0.235122
0.245376
0.255797
0.266465
0.277457
0.288844
0.30069
0.31304
0.325921
0.339345
0.353313
0.367818
0.382852
0.398401
0.414447
0.430968
0.447942
0.465344
0.483147
0.501324
0.519863
0.538769
0.558052
0.577722
0.59779
0.618265
0.639156
0.660469
0.682214
0.704397
0.727026
0.750107
0.773646
0.797649
0.82212
0.847063
0.872482
0.898378
0.924753
0.951607
0.978938
1.00675
1.03503
1.06377
1.09299
1.12265
1.15277
1.18332
1.2143
1.2457
1.27751
1.3097
1.34226
1.37519
1.40845
1.44203
1.47592
1.51008
1.5445
1.57916
1.61403
1.64909
1.68432
1.71968
1.75515
1.79071
1.82634
1.86199
1.89765
1.93329
1.96888
2.0044
2.03982
2.07511
2.11023
2.14518
2.17991
2.21441
2.24854
2.28226
2.31557
2.34844
2.38083
2.41271
2.44404
2.47479
2.50491
2.53436
2.5631
2.5911
2.61832
2.64471
2.67025
2.6949
2.71862
2.74139
2.76316
2.78392
2.80362
2.82225
2.83978
2.85619
2.87145
2.88555
2.89846
2.91018
2.92069
2.92997
2.93803
2.94484
2.95042
2.95474
2.95782
2.95966
2.96025
2.95961
2.95775
2.95467
2.9504
2.94493
2.9383
2.93052
2.92161
2.91159
2.9005
2.88835
2.87518
2.86101
2.84587
2.82981
2.81286
2.79503
2.77637
2.75695
2.73675
2.71582
2.6943
2.67215
2.64945
2.62624
2.60255
2.57845
2.55396
2.52915
2.50409
2.47885
2.4535
2.42802
2.40241
2.3767
2.35092
2.3251
2.29929
2.27353
2.24789
2.22243
2.19726
2.17252
2.14841
2.12528
2.10321
2.0825
0.0321322
0.0678062
0.0867818
0.100303
0.111531
0.121643
0.131235
0.140659
0.150126
0.159756
0.169598
0.17965
0.189885
0.200261
0.210746
0.221322
0.231989
0.242774
0.25372
0.264882
0.276325
0.288115
0.300311
0.312966
0.326123
0.339811
0.354046
0.368832
0.384166
0.400039
0.416436
0.433345
0.45075
0.468632
0.486978
0.50577
0.524996
0.544642
0.564703
0.58518
0.60608
0.627409
0.649179
0.6714
0.69408
0.717229
0.740859
0.764977
0.789593
0.814715
0.840351
0.866508
0.893194
0.920414
0.948172
0.976473
1.00532
1.03471
1.06465
1.09514
1.12617
1.15774
1.18985
1.22249
1.25565
1.28932
1.3235
1.35816
1.3933
1.4289
1.46494
1.5014
1.53827
1.57552
1.61313
1.65108
1.68934
1.72789
1.76669
1.80573
1.84496
1.88437
1.92392
1.96359
2.00333
2.04313
2.08295
2.12275
2.16251
2.20219
2.24177
2.28121
2.32047
2.35952
2.39833
2.43686
2.47495
2.51259
2.54977
2.58645
2.62259
2.65815
2.69309
2.72736
2.76092
2.79372
2.82572
2.85687
2.88714
2.91648
2.94485
2.97221
2.99852
3.02375
3.04785
3.07081
3.09257
3.11313
3.13244
3.15048
3.16723
3.18267
3.19678
3.20954
3.22094
3.23097
3.23962
3.24687
3.25273
3.2572
3.26027
3.26195
3.26224
3.26115
3.2587
3.2549
3.24975
3.24329
3.23552
3.22648
3.21619
3.20467
3.19195
3.17806
3.16305
3.14693
3.12974
3.11153
3.09234
3.0722
3.0511
3.02921
3.00651
2.98304
2.95889
2.93406
2.90863
2.88263
2.85612
2.82914
2.80174
2.77398
2.74592
2.71764
2.68918
2.66056
2.6318
2.60294
2.57401
2.54507
2.51615
2.48733
2.45868
2.43029
2.40229
2.37488
2.34829
2.32288
2.29876
2.2761
0.0378619
0.0764433
0.0970062
0.111588
0.123574
0.134231
0.144201
0.153864
0.163462
0.173142
0.182988
0.193036
0.203293
0.213751
0.224401
0.235241
0.246284
0.257556
0.269095
0.28095
0.293171
0.30581
0.31891
0.332511
0.34664
0.361316
0.376548
0.392337
0.408679
0.425564
0.442981
0.460917
0.479362
0.498302
0.517728
0.537629
0.558
0.578834
0.600131
0.621891
0.64412
0.666828
0.690023
0.713716
0.737918
0.76264
0.787895
0.813694
0.840047
0.866965
0.894459
0.922539
0.951212
0.980488
1.01037
1.04087
1.07199
1.10373
1.1361
1.16909
1.20271
1.23696
1.27182
1.30729
1.34337
1.38004
1.4173
1.45513
1.49351
1.53244
1.57188
1.61183
1.65225
1.69313
1.73443
1.77614
1.81821
1.86063
1.90336
1.94637
1.98962
2.03308
2.07672
2.1205
2.16439
2.20835
2.25234
2.29633
2.34027
2.38415
2.4279
2.47151
2.51492
2.5581
2.60101
2.64354
2.68559
2.72715
2.76819
2.80867
2.84854
2.88776
2.92627
2.96404
3.001
3.03711
3.07232
3.10659
3.13985
3.17208
3.20321
3.23322
3.26205
3.28967
3.31604
3.34111
3.36487
3.38726
3.40827
3.42787
3.44602
3.46272
3.47794
3.49166
3.50387
3.51455
3.52371
3.53132
3.53739
3.54191
3.54489
3.54634
3.54625
3.54465
3.54154
3.53695
3.53088
3.52336
3.51441
3.50406
3.49235
3.47929
3.46492
3.44926
3.43239
3.41432
3.39506
3.37468
3.35328
3.33086
3.30745
3.28315
3.25797
3.23198
3.20523
3.17777
3.14964
3.12091
3.09162
3.06183
3.03158
3.00094
2.96995
2.9387
2.90723
2.87558
2.84378
2.81187
2.77991
2.74794
2.71603
2.68426
2.6527
2.62149
2.59076
2.56074
2.53167
2.50392
2.47752
2.45258
0.042446
0.0835027
0.105412
0.120913
0.133568
0.144708
0.155013
0.164887
0.174592
0.184303
0.194132
0.204146
0.214385
0.224867
0.235605
0.246613
0.257911
0.269525
0.281489
0.293842
0.306624
0.319872
0.333619
0.347893
0.362713
0.378091
0.394033
0.410539
0.427605
0.445225
0.463389
0.48209
0.501318
0.521068
0.541332
0.562107
0.583389
0.605177
0.627474
0.650282
0.67361
0.697466
0.721861
0.746806
0.772314
0.798399
0.825074
0.852353
0.880249
0.908776
0.937946
0.967772
0.998265
1.02944
1.06129
1.09385
1.1271
1.16106
1.19574
1.23113
1.26723
1.30405
1.34158
1.37981
1.41874
1.45835
1.49865
1.5396
1.5812
1.62343
1.66626
1.70968
1.75365
1.79816
1.84317
1.88864
1.93456
1.98088
2.02756
2.07457
2.12188
2.16943
2.2172
2.26513
2.3132
2.36136
2.40956
2.45777
2.50594
2.55403
2.602
2.6498
2.69739
2.74472
2.79174
2.83827
2.88429
2.92976
2.97465
3.01891
3.06249
3.10534
3.14741
3.18863
3.22896
3.26834
3.30671
3.34402
3.38022
3.41526
3.4491
3.48167
3.51295
3.54288
3.57142
3.59854
3.62419
3.64833
3.67094
3.692
3.71146
3.72932
3.74555
3.76013
3.77305
3.7843
3.79387
3.80174
3.80793
3.81242
3.81523
3.81636
3.81582
3.81363
3.80979
3.80434
3.79728
3.78865
3.77846
3.76676
3.75358
3.73895
3.72288
3.70543
3.68668
3.66665
3.64537
3.6229
3.5993
3.57462
3.5489
3.5222
3.49458
3.46609
3.43678
3.40672
3.37594
3.34452
3.3125
3.27995
3.2469
3.21343
3.17959
3.14544
3.11104
3.07644
3.04169
3.00684
2.97193
2.93703
2.90222
2.86758
2.8332
2.79924
2.76584
2.73324
2.70168
2.6715
2.64267
2.61526
0.0460681
0.0890516
0.11203
0.128281
0.141493
0.153048
0.163645
0.173706
0.183511
0.193252
0.203065
0.213041
0.223245
0.233717
0.244489
0.255587
0.267037
0.278866
0.291105
0.303783
0.316933
0.330582
0.344756
0.359473
0.374747
0.39059
0.407004
0.42399
0.441548
0.459672
0.47836
0.497604
0.517403
0.537751
0.558647
0.580091
0.602082
0.624625
0.647722
0.671382
0.695613
0.720426
0.745833
0.771847
0.798484
0.825759
0.853689
0.882288
0.911574
0.941563
0.97227
1.00371
1.0359
1.06885
1.10257
1.13708
1.17237
1.20847
1.24538
1.2831
1.32162
1.36097
1.40112
1.44207
1.48383
1.52637
1.56968
1.61376
1.65857
1.70411
1.75034
1.79725
1.8448
1.89296
1.9417
1.99099
2.04077
2.09103
2.1417
2.19276
2.24415
2.29583
2.34776
2.39988
2.45216
2.50454
2.55698
2.60943
2.66184
2.71417
2.76636
2.81836
2.87013
2.92161
2.97266
3.02317
3.07312
3.12246
3.17116
3.21916
3.2664
3.31282
3.35836
3.40296
3.44657
3.48911
3.53055
3.57081
3.60984
3.64759
3.684
3.71903
3.75263
3.78475
3.81534
3.84437
3.87179
3.89756
3.92164
3.94402
3.96467
3.98356
4.00067
4.01599
4.02951
4.0412
4.05106
4.05909
4.06528
4.06965
4.07218
4.0729
4.07182
4.06895
4.06431
4.05793
4.04982
4.04002
4.02853
4.01542
4.00075
3.98452
3.96677
3.94756
3.92694
3.90497
3.88167
3.85711
3.83135
3.80444
3.77643
3.74738
3.71735
3.6864
3.65458
3.62196
3.5886
3.55454
3.51986
3.48461
3.44884
3.41261
3.37599
3.33903
3.3018
3.26436
3.22675
3.18904
3.15128
3.11355
3.07593
3.03851
3.00141
2.96476
2.92875
2.8936
2.85955
2.82688
2.79552
2.76555
0.0487621
0.093176
0.116956
0.133783
0.147435
0.159325
0.170168
0.180393
0.190291
0.200067
0.20987
0.219813
0.229975
0.240415
0.251179
0.262303
0.273817
0.285751
0.298131
0.310984
0.324334
0.338205
0.352615
0.367579
0.38311
0.399216
0.415903
0.433172
0.451025
0.469462
0.488481
0.508083
0.528267
0.549033
0.570383
0.59232
0.614849
0.637975
0.661706
0.686052
0.711024
0.736636
0.762902
0.789838
0.817462
0.845792
0.874846
0.904645
0.935207
0.966551
0.998697
1.03166
1.06546
1.10012
1.13564
1.17204
1.20933
1.24752
1.28663
1.32664
1.36758
1.40943
1.4522
1.49588
1.54047
1.58594
1.6323
1.67952
1.72757
1.77645
1.82612
1.87654
1.9277
1.97956
2.03207
2.08519
2.13888
2.1931
2.2478
2.30292
2.35842
2.41424
2.47034
2.52665
2.58314
2.63973
2.69639
2.75306
2.80968
2.8662
2.92257
2.97873
3.03461
3.09016
3.14514
3.19954
3.25332
3.30644
3.35883
3.41044
3.46121
3.51106
3.55994
3.60778
3.6545
3.70006
3.74439
3.78743
3.82911
3.86939
3.90821
3.94551
3.98124
4.01536
4.04782
4.07858
4.10758
4.13479
4.16018
4.18371
4.20536
4.22511
4.24294
4.25884
4.27279
4.28479
4.29481
4.30285
4.30892
4.31303
4.31518
4.31538
4.31366
4.31002
4.30449
4.2971
4.28789
4.27687
4.26407
4.24956
4.23337
4.21554
4.19611
4.17514
4.15268
4.12878
4.10349
4.07687
4.04899
4.01989
3.98964
3.9583
3.92592
3.89258
3.85834
3.82324
3.78737
3.75077
3.71352
3.67566
3.63727
3.59839
3.55909
3.51944
3.4795
3.43933
3.39898
3.35854
3.31805
3.27761
3.23729
3.1972
3.15746
3.11822
3.07967
3.04202
3.00549
2.97032
2.93641
2.90385
0.0505909
0.0960001
0.120336
0.137574
0.151549
0.163693
0.174727
0.185087
0.195065
0.204873
0.214672
0.224583
0.234699
0.24509
0.25581
0.266905
0.278408
0.29035
0.302758
0.315655
0.329064
0.343003
0.357489
0.372537
0.388156
0.404358
0.421148
0.438533
0.456516
0.475102
0.494294
0.514095
0.534509
0.55554
0.577195
0.59948
0.622402
0.645973
0.670202
0.695103
0.72069
0.74698
0.773991
0.801742
0.830252
0.859544
0.88964
0.920561
0.952331
0.984972
1.01851
1.05295
1.08834
1.12467
1.16197
1.20026
1.23955
1.27984
1.32116
1.3635
1.40687
1.45126
1.49669
1.54314
1.59059
1.63905
1.68849
1.7389
1.79024
1.8425
1.89565
1.94964
2.00445
2.06003
2.11633
2.17332
2.23094
2.28913
2.34785
2.40703
2.46662
2.52656
2.58678
2.64724
2.70787
2.76861
2.82941
2.89021
2.95094
3.01155
3.07199
3.13218
3.19207
3.25142
3.31017
3.36828
3.42571
3.48239
3.53827
3.59328
3.64736
3.70042
3.7524
3.80322
3.85282
3.90113
3.94809
3.99364
4.03772
4.08026
4.12121
4.16051
4.19812
4.23398
4.26806
4.3003
4.33064
4.35904
4.38548
4.40993
4.43236
4.45275
4.47109
4.48736
4.50156
4.51368
4.52368
4.53157
4.53736
4.54107
4.5427
4.54227
4.53981
4.53532
4.52883
4.52039
4.51002
4.49775
4.48362
4.46768
4.44998
4.43056
4.40946
4.38675
4.36248
4.3367
4.30947
4.28086
4.25092
4.21971
4.1873
4.15376
4.11914
4.08351
4.04694
4.0095
3.97123
3.93222
3.89252
3.8522
3.81131
3.76992
3.7281
3.6859
3.64339
3.60065
3.55772
3.51469
3.47163
3.42862
3.38574
3.34312
3.30087
3.25916
3.21816
3.17808
3.13913
3.1015
3.06506
3.02995
0.0516425
0.0976765
0.122352
0.13985
0.154035
0.16635
0.177517
0.187972
0.198007
0.207838
0.217628
0.227504
0.237564
0.247886
0.258532
0.26955
0.280977
0.292848
0.305188
0.318022
0.33137
0.34525
0.35968
0.374674
0.390244
0.406401
0.423157
0.44052
0.458499
0.477101
0.496334
0.516207
0.536728
0.557905
0.579749
0.60227
0.625481
0.649396
0.674029
0.699397
0.72552
0.752416
0.780107
0.808616
0.837967
0.868185
0.899295
0.931323
0.964295
0.998236
1.03317
1.06913
1.10612
1.14418
1.18332
1.22356
1.2649
1.30737
1.35097
1.39572
1.4416
1.48863
1.53679
1.58609
1.63651
1.68803
1.74064
1.79431
1.84901
1.90471
1.96138
2.01898
2.07747
2.13679
2.1969
2.25775
2.31927
2.38142
2.44412
2.5073
2.5709
2.63486
2.69911
2.76358
2.82822
2.89295
2.95772
3.02246
3.08712
3.15162
3.2159
3.27991
3.34341
3.40631
3.46854
3.53007
3.59083
3.65076
3.7098
3.76787
3.82492
3.88085
3.93556
3.989
4.04111
4.09181
4.14103
4.18873
4.23482
4.27926
4.32198
4.36292
4.40204
4.43929
4.47463
4.50804
4.5394
4.56867
4.59586
4.62092
4.64384
4.66461
4.68319
4.69959
4.71379
4.72578
4.73556
4.74312
4.74848
4.75164
4.75263
4.75146
4.74815
4.74273
4.73522
4.72566
4.71409
4.70055
4.68507
4.6677
4.6485
4.62751
4.60478
4.58038
4.55435
4.52677
4.49769
4.46716
4.43527
4.40207
4.36763
4.33201
4.29529
4.25752
4.21878
4.17914
4.13865
4.09739
4.05543
4.01281
3.96962
3.9259
3.88173
3.83718
3.7923
3.74717
3.70186
3.65644
3.61099
3.56559
3.52034
3.47535
3.43076
3.38671
3.3434
3.30101
3.25973
3.21973
3.18086
3.14327
0.0520228
0.0983726
0.123201
0.140824
0.155115
0.167519
0.178756
0.189259
0.19932
0.209152
0.218918
0.228746
0.238737
0.248971
0.259513
0.270413
0.281713
0.293447
0.305643
0.318326
0.331519
0.34524
0.359509
0.374341
0.389753
0.405759
0.422374
0.439611
0.457483
0.476003
0.495184
0.515041
0.535585
0.556831
0.578794
0.601489
0.624934
0.649147
0.674147
0.699957
0.726598
0.754095
0.782474
0.81176
0.841983
0.873171
0.905351
0.938555
0.97281
1.00815
1.04459
1.08217
1.1209
1.16082
1.20194
1.24427
1.28783
1.33263
1.37868
1.42598
1.47454
1.52435
1.57541
1.6277
1.6812
1.73591
1.79179
1.84882
1.90696
1.96617
2.02642
2.08765
2.14982
2.21287
2.27676
2.3414
2.40676
2.47276
2.53933
2.60637
2.67382
2.74161
2.80966
2.87792
2.9463
3.01475
3.0832
3.15158
3.21982
3.28787
3.35567
3.42297
3.48965
3.55567
3.62095
3.68543
3.74906
3.81176
3.87347
3.93412
3.99367
4.05197
4.10892
4.16448
4.21858
4.27116
4.32215
4.37149
4.41911
4.46496
4.50897
4.55109
4.59126
4.62945
4.66561
4.69969
4.73163
4.7614
4.78896
4.8143
4.83739
4.85821
4.87675
4.893
4.90694
4.91859
4.92792
4.93496
4.9397
4.94216
4.94236
4.94032
4.93606
4.92961
4.92101
4.91029
4.89749
4.88265
4.86582
4.84704
4.82637
4.80386
4.77957
4.75355
4.72587
4.69659
4.66577
4.63348
4.59978
4.56474
4.52843
4.49092
4.45227
4.41256
4.37185
4.33022
4.28773
4.24444
4.20043
4.15575
4.11048
4.06467
4.0184
3.97173
3.92472
3.87745
3.82999
3.78241
3.7348
3.68724
3.63983
3.5927
3.54596
3.49977
3.45432
3.40977
3.36631
3.32408
3.28291
3.24299
0.0518492
0.0982606
0.123083
0.140714
0.155016
0.167429
0.178671
0.189171
0.199217
0.20902
0.218739
0.228501
0.238404
0.24853
0.258941
0.269691
0.280823
0.292372
0.304368
0.316839
0.329809
0.3433
0.357335
0.371934
0.387115
0.4029
0.419307
0.436355
0.454064
0.472452
0.491539
0.511345
0.531888
0.55319
0.57527
0.598149
0.62185
0.646397
0.671815
0.698131
0.725372
0.753568
0.782749
0.812945
0.844188
0.876509
0.909942
0.944517
0.980266
1.01722
1.05541
1.09486
1.1356
1.17764
1.22102
1.26572
1.31177
1.35917
1.40793
1.45805
1.50952
1.56235
1.61651
1.67199
1.72876
1.78681
1.8461
1.90658
1.96823
2.031
2.09484
2.15968
2.22549
2.29218
2.35971
2.42801
2.49701
2.56665
2.63687
2.7075
2.77848
2.84974
2.92123
2.99287
3.06458
3.13629
3.20795
3.27948
3.35082
3.42191
3.49248
3.56243
3.6317
3.70021
3.7679
3.8347
3.90054
3.96535
4.02905
4.09158
4.15286
4.2128
4.27131
4.32832
4.38377
4.43759
4.48971
4.54007
4.58861
4.63527
4.67999
4.72272
4.76341
4.802
4.83847
4.87275
4.90481
4.93462
4.96213
4.98733
5.0102
5.03071
5.04887
5.06465
5.07806
5.08909
5.09774
5.10402
5.10795
5.10953
5.10879
5.10576
5.10045
5.0929
5.08314
5.07122
5.05718
5.04105
5.02289
5.00275
4.98068
4.95673
4.93098
4.90347
4.87427
4.84344
4.81105
4.77716
4.74185
4.70518
4.66722
4.62804
4.58771
4.5463
4.50389
4.46052
4.41629
4.37125
4.32548
4.27902
4.23196
4.18436
4.13627
4.08777
4.03893
3.98981
3.9405
3.89105
3.84156
3.79212
3.74282
3.69379
3.64515
3.59706
3.54968
3.50319
3.45774
3.41346
3.37019
3.32813
0.0512458
0.0975082
0.122191
0.139727
0.153952
0.1663
0.177483
0.187927
0.197915
0.207654
0.217299
0.226972
0.236768
0.246766
0.257029
0.267607
0.278546
0.289882
0.301648
0.313874
0.326589
0.339819
0.35359
0.367928
0.382859
0.398407
0.414598
0.431459
0.449016
0.467295
0.486325
0.506132
0.526746
0.548193
0.570499
0.593691
0.617796
0.642846
0.668874
0.695913
0.723995
0.753154
0.783425
0.814843
0.847441
0.881254
0.916315
0.952657
0.990311
1.02931
1.06967
1.11143
1.15462
1.19926
1.24537
1.29289
1.34185
1.39226
1.44412
1.49743
1.55216
1.6083
1.66584
1.72475
1.78499
1.84653
1.90933
1.97334
2.03851
2.1048
2.17213
2.24045
2.3097
2.37981
2.4507
2.5223
2.59454
2.66735
2.74064
2.8143
2.88825
2.96241
3.03672
3.11109
3.18546
3.25976
3.33393
3.4079
3.48157
3.55467
3.62714
3.69892
3.76992
3.84007
3.9093
3.97754
4.04471
4.11075
4.17557
4.23911
4.30129
4.36204
4.42126
4.4789
4.53488
4.58914
4.64162
4.69224
4.74096
4.78772
4.83245
4.87512
4.91566
4.95404
4.99021
5.02414
5.05578
5.0851
5.11207
5.13667
5.15889
5.1787
5.19609
5.21107
5.22362
5.23375
5.24146
5.24677
5.24968
5.25021
5.24839
5.24424
5.23779
5.22908
5.21813
5.205
5.18972
5.17235
5.15292
5.1315
5.10813
5.08289
5.05581
5.02698
4.99644
4.96427
4.93054
4.8953
4.85862
4.82059
4.78126
4.7407
4.69899
4.65619
4.61238
4.56762
4.52198
4.47553
4.42833
4.38045
4.33196
4.2829
4.23336
4.18339
4.13306
4.08245
4.03162
3.98065
3.92962
3.87862
3.82775
3.77714
3.7269
3.67718
3.62815
3.57997
3.53277
3.4867
3.44156
3.39759
0.050298
0.0962308
0.120654
0.137999
0.152066
0.164276
0.175338
0.185671
0.195558
0.205196
0.214738
0.224298
0.233969
0.243825
0.253926
0.264324
0.275064
0.286185
0.297722
0.30971
0.322181
0.335169
0.348707
0.362828
0.377566
0.39295
0.409014
0.425796
0.44333
0.461655
0.480809
0.500831
0.521761
0.543643
0.566513
0.590378
0.615284
0.641276
0.668391
0.696671
0.726154
0.756877
0.788877
0.822191
0.856852
0.892892
0.930344
0.969233
1.00959
1.05143
1.09478
1.13965
1.18605
1.234
1.28349
1.33451
1.38704
1.44108
1.49661
1.55362
1.61206
1.67193
1.73317
1.79577
1.85966
1.9248
1.99115
2.05865
2.12724
2.19685
2.26743
2.3389
2.41119
2.48423
2.55795
2.63226
2.7071
2.78237
2.858
2.93389
3.00997
3.08615
3.16236
3.23853
3.3146
3.3905
3.46616
3.54137
3.616
3.68997
3.76321
3.83566
3.90723
3.97785
4.04746
4.11597
4.18333
4.24944
4.31426
4.3777
4.43969
4.50016
4.55905
4.61627
4.67177
4.72548
4.77734
4.8273
4.87529
4.92127
4.96518
5.00696
5.04659
5.08401
5.11918
5.15207
5.18265
5.21088
5.23674
5.2602
5.28126
5.29989
5.3161
5.32987
5.34121
5.35011
5.35659
5.36066
5.36233
5.36162
5.35856
5.35318
5.34549
5.33555
5.32338
5.30904
5.29255
5.27398
5.25337
5.23077
5.20625
5.17985
5.15163
5.12167
5.09002
5.05674
5.02191
4.98559
4.94785
4.90875
4.86836
4.82676
4.78401
4.74018
4.69533
4.64954
4.60287
4.55539
4.50715
4.45823
4.40869
4.35858
4.30796
4.25692
4.2055
4.15377
4.10181
4.04969
3.99749
3.9453
3.89322
3.84136
3.78984
3.73882
3.68843
3.63885
3.59019
3.54258
3.49585
3.45024
0.0492891
0.09474
0.118795
0.135863
0.149696
0.161702
0.172587
0.182765
0.192513
0.202025
0.211447
0.220888
0.230438
0.240167
0.250136
0.260396
0.270994
0.281973
0.293373
0.305236
0.317597
0.330498
0.343984
0.358105
0.372915
0.388418
0.404672
0.42173
0.439643
0.458463
0.47824
0.499026
0.520872
0.543827
0.567937
0.593241
0.619787
0.647619
0.676781
0.707315
0.739259
0.77265
0.807519
0.843895
0.881805
0.921268
0.962302
1.00492
1.04913
1.09494
1.14235
1.19134
1.24192
1.29407
1.34777
1.40298
1.45969
1.51785
1.57745
1.63842
1.70075
1.76438
1.82927
1.89536
1.9626
2.03094
2.10032
2.17068
2.24195
2.31407
2.38698
2.4606
2.53486
2.6097
2.68504
2.7608
2.83691
2.91329
2.98987
3.06656
3.1433
3.22002
3.29663
3.3731
3.44935
3.52519