/*--------------------------------*- C++ -*----------------------------------*\
  =========                 |
  \\      /  F ield         | OpenFOAM: The Open Source CFD Toolbox
   \\    /   O peration     | Website:  https://openfoam.org
    \\  /    A nd           | Version:  9
     \\/     M anipulation  |
\*---------------------------------------------------------------------------*/
FoamFile
{
    format      ascii;
    class       volScalarField;
    location    "0.055";
    object      k;
}
// * * * * * * * * * * * * * * * * * * * * * * * * * * * * * * * * * * * * * //

dimensions      [0 2 -2 0 0 0 0];

internalField   nonuniform List<scalar> 
12225
(
0.00031632
0.000489888
0.000451452
0.000230719
8.35503e-05
3.50921e-05
2.32265e-05
2.2275e-05
2.44323e-05
2.69491e-05
2.82058e-05
3.00389e-05
3.44162e-05
4.98348e-05
7.41557e-05
8.78682e-05
8.833e-05
0.00016149
3.38813e-05
6.30963e-05
6.18264e-05
4.49615e-05
2.83094e-05
2.23154e-05
2.07402e-05
2.06805e-05
2.14746e-05
2.36e-05
2.4869e-05
2.54598e-05
2.60448e-05
2.72788e-05
2.97929e-05
3.43695e-05
4.32975e-05
5.72912e-05
2.04286e-05
1.99139e-05
1.97395e-05
1.86355e-05
1.69413e-05
1.62042e-05
1.60963e-05
1.6173e-05
1.66268e-05
1.78853e-05
1.88933e-05
1.95214e-05
1.98598e-05
2.00983e-05
2.04065e-05
2.09916e-05
2.23051e-05
2.48675e-05
2.00076e-05
2.00898e-05
2.03589e-05
2.02843e-05
1.9684e-05
1.79816e-05
1.71367e-05
1.71183e-05
1.73215e-05
1.75595e-05
1.75237e-05
1.68526e-05
1.59576e-05
1.5748e-05
1.57956e-05
1.60538e-05
1.71485e-05
1.81161e-05
2.01641e-05
2.15289e-05
2.23727e-05
2.24663e-05
2.16911e-05
2.10156e-05
2.08733e-05
2.08846e-05
2.09905e-05
2.10241e-05
2.09992e-05
2.08407e-05
2.03443e-05
1.98968e-05
1.9698e-05
1.97516e-05
2.05097e-05
2.12754e-05
2.01173e-05
2.01325e-05
2.02241e-05
2.03949e-05
2.09573e-05
2.38647e-05
2.79333e-05
2.75755e-05
2.4382e-05
2.22128e-05
2.13842e-05
2.11736e-05
2.12071e-05
2.16588e-05
2.38189e-05
3.10158e-05
3.68856e-05
3.89566e-05
3.0064e-05
2.2162e-05
2.04122e-05
2.11077e-05
2.77706e-05
5.90623e-05
7.3289e-05
6.33054e-05
3.91473e-05
2.77634e-05
2.36808e-05
2.2559e-05
2.23326e-05
2.24361e-05
2.327e-05
2.66989e-05
3.03327e-05
3.29975e-05
2.82414e-05
2.21795e-05
2.02548e-05
2.04811e-05
2.28177e-05
3.65626e-05
8.4193e-05
0.000100782
8.82863e-05
5.16903e-05
3.4517e-05
2.90954e-05
2.78785e-05
2.7136e-05
2.5863e-05
2.47465e-05
2.42842e-05
2.43479e-05
4.37804e-05
2.93932e-05
2.15181e-05
2.17528e-05
2.8584e-05
8.01038e-05
0.000151947
0.000159849
0.000134672
7.46548e-05
4.38697e-05
3.07567e-05
2.5543e-05
2.32955e-05
2.21333e-05
2.16536e-05
2.16062e-05
2.17413e-05
3.00345e-05
2.37332e-05
2.36432e-05
2.40512e-05
2.48862e-05
3.00612e-05
4.16256e-05
4.48317e-05
4.4279e-05
4.13238e-05
3.41608e-05
2.7879e-05
2.41849e-05
2.26845e-05
2.20068e-05
2.15825e-05
2.13612e-05
2.1193e-05
2.00593e-05
2.07846e-05
2.28007e-05
2.33073e-05
2.31416e-05
2.31603e-05
2.33458e-05
2.36476e-05
2.47745e-05
2.68561e-05
2.77515e-05
2.77718e-05
2.73992e-05
2.71797e-05
2.77053e-05
3.13827e-05
3.37141e-05
3.33501e-05
2.03423e-05
2.14607e-05
2.19197e-05
2.1957e-05
2.18965e-05
2.14467e-05
2.10699e-05
2.10257e-05
2.11735e-05
2.21299e-05
2.65114e-05
4.43851e-05
6.26898e-05
6.8197e-05
6.78426e-05
6.34604e-05
4.9127e-05
3.74584e-05
2.02729e-05
2.31085e-05
2.56911e-05
2.55945e-05
2.25426e-05
2.11581e-05
2.07774e-05
2.06942e-05
2.07101e-05
2.09038e-05
2.18751e-05
2.5492e-05
3.97707e-05
5.77657e-05
6.35717e-05
6.2969e-05
5.62469e-05
4.19496e-05
2.05016e-05
2.30358e-05
2.34965e-05
2.22191e-05
2.09204e-05
2.06208e-05
2.05843e-05
2.06257e-05
2.08757e-05
2.18881e-05
2.64e-05
3.85613e-05
4.44436e-05
4.50225e-05
4.39563e-05
3.97502e-05
3.48027e-05
3.07706e-05
2.32093e-05
2.365e-05
2.51327e-05
2.30324e-05
2.10493e-05
2.09387e-05
2.15782e-05
2.40699e-05
2.65279e-05
2.79814e-05
2.84114e-05
2.80687e-05
2.63658e-05
2.50748e-05
2.44542e-05
2.41101e-05
2.40054e-05
2.41533e-05
2.38998e-05
2.57216e-05
2.4517e-05
2.13043e-05
2.05965e-05
2.05419e-05
2.0625e-05
2.09824e-05
2.14841e-05
2.18308e-05
2.19699e-05
2.19911e-05
2.19645e-05
2.18055e-05
2.16613e-05
2.16269e-05
2.16423e-05
2.17976e-05
2.13224e-05
2.09271e-05
2.08543e-05
2.08776e-05
2.08111e-05
2.05505e-05
2.05194e-05
2.08548e-05
2.1136e-05
2.10798e-05
2.09775e-05
2.09476e-05
2.09456e-05
2.09436e-05
2.09375e-05
2.09366e-05
2.09398e-05
2.09606e-05
2.14516e-05
2.09175e-05
2.06927e-05
2.07436e-05
2.07871e-05
2.08024e-05
2.0826e-05
2.08473e-05
2.10318e-05
2.10567e-05
2.09396e-05
2.09205e-05
2.09351e-05
2.10105e-05
2.12726e-05
2.15946e-05
2.17782e-05
2.18825e-05
2.00461e-05
2.01755e-05
2.04399e-05
2.06787e-05
2.08195e-05
2.08759e-05
2.08802e-05
2.08685e-05
2.08624e-05
2.0845e-05
2.07802e-05
2.0655e-05
2.05816e-05
2.0559e-05
2.05584e-05
2.05679e-05
2.06062e-05
2.07323e-05
2.00162e-05
2.07866e-05
2.21741e-05
2.25655e-05
2.25558e-05
2.25327e-05
2.27434e-05
2.34386e-05
2.36146e-05
2.33865e-05
2.21681e-05
2.10976e-05
2.06192e-05
2.0417e-05
2.03402e-05
2.03172e-05
2.0314e-05
2.03174e-05
2.00254e-05
2.08626e-05
2.17357e-05
2.1787e-05
2.17869e-05
2.20565e-05
2.31603e-05
2.35746e-05
2.34835e-05
2.29609e-05
2.23666e-05
2.19485e-05
2.16038e-05
2.13034e-05
2.10559e-05
2.08752e-05
2.07645e-05
2.07097e-05
2.02535e-05
2.06421e-05
2.14482e-05
2.20728e-05
2.37586e-05
2.64452e-05
2.77003e-05
2.7459e-05
2.52236e-05
2.29577e-05
2.19151e-05
2.148e-05
2.13109e-05
2.12486e-05
2.12219e-05
2.11901e-05
2.11143e-05
2.10296e-05
2.13075e-05
2.32305e-05
2.50549e-05
2.61212e-05
2.61776e-05
2.53477e-05
2.3001e-05
2.17613e-05
2.1414e-05
2.14266e-05
2.17449e-05
2.20181e-05
2.20459e-05
2.19672e-05
2.16033e-05
2.12103e-05
2.09754e-05
2.08596e-05
3.13992e-05
3.02394e-05
2.83456e-05
2.80524e-05
2.73658e-05
2.51407e-05
2.29297e-05
2.19457e-05
2.17525e-05
2.19169e-05
2.31436e-05
2.49573e-05
2.57329e-05
2.57941e-05
2.52843e-05
2.34276e-05
2.21585e-05
2.1565e-05
2.84841e-05
2.48357e-05
2.34985e-05
2.50418e-05
2.6647e-05
2.68544e-05
2.64664e-05
2.4725e-05
2.31306e-05
2.23432e-05
2.20384e-05
2.1994e-05
2.20379e-05
2.21127e-05
2.20749e-05
2.17123e-05
2.14623e-05
2.1439e-05
2.66771e-05
2.57973e-05
2.45472e-05
2.4653e-05
2.53878e-05
2.60467e-05
2.62175e-05
2.5056e-05
2.26349e-05
2.13886e-05
2.08009e-05
2.05249e-05
2.03928e-05
2.03332e-05
2.0313e-05
2.03123e-05
2.03327e-05
2.0434e-05
2.00802e-05
2.00146e-05
2.00253e-05
2.01518e-05
2.01479e-05
2.00067e-05
1.97449e-05
1.96159e-05
1.95645e-05
1.95244e-05
1.94427e-05
1.92413e-05
1.91603e-05
1.91643e-05
1.91872e-05
1.9218e-05
1.92518e-05
1.93429e-05
2.00068e-05
1.73591e-05
1.30304e-05
1.29047e-05
1.39214e-05
1.59798e-05
1.72764e-05
1.75906e-05
1.75257e-05
1.71979e-05
1.69867e-05
1.6985e-05
1.71653e-05
1.79043e-05
1.83589e-05
1.8453e-05
1.84382e-05
1.82626e-05
2.00378e-05
2.13871e-05
2.87951e-05
5.65003e-05
9.2539e-05
0.000107204
0.000107524
9.87792e-05
7.04271e-05
5.07809e-05
4.34474e-05
4.24755e-05
4.45137e-05
5.47799e-05
6.30718e-05
6.62186e-05
6.74261e-05
6.78516e-05
2.24734e-05
5.24422e-05
0.000187828
0.000505534
0.000676885
0.000710951
0.000683237
0.000503731
0.000275216
0.000163544
0.00012657
0.000123467
0.000138604
0.00018679
0.00021689
0.000228178
0.000229793
0.000227087
0.0715575
0.0810805
0.0785721
0.0788985
0.0797785
0.0790045
0.0790838
0.0796683
0.0786098
0.0736217
0.0684146
0.0658223
0.0621641
0.0604484
0.0597029
0.0592772
0.0605109
0.0581896
0.0523631
0.0500765
0.0468482
0.0427742
0.0415747
0.045023
0.0526275
0.0619619
0.0701188
0.0763774
0.0815408
0.084298
0.0849513
0.0849257
0.083945
0.0842025
0.0914639
0.11918
0.182431
0.235529
0.245235
0.246093
0.245577
0.243032
0.236212
0.224324
0.217553
0.21557
0.214803
0.214436
0.213783
0.212636
0.209643
0.208434
0.206884
0.204544
0.203598
0.205036
0.206105
0.207901
0.211028
0.214012
0.214999
0.214335
0.209972
0.200991
0.18835
0.176036
0.170469
0.170777
0.17723
0.21629
0.339178
0.430524
0.495216
0.520618
0.510702
0.424522
0.232862
0.115905
0.0656354
0.0440408
0.03311
0.0272332
0.0241682
0.0227958
0.0223872
0.022733
0.0232868
0.0237647
0.0240652
0.0240823
0.0234621
0.0221505
0.0202678
0.0178938
0.0156728
0.0134615
0.0112462
0.00952942
0.00817335
0.0072603
0.00682922
0.00668267
0.00696882
0.00754256
0.0078128
0.00823972
0.0084838
0.00869469
0.00890398
0.00901218
0.00910745
0.00915187
0.0091703
0.00916773
0.00910601
0.00902761
0.00889902
0.00870338
0.00845856
0.00815405
0.00778113
0.00734922
0.00688725
0.00644876
0.00598522
0.00555518
0.00518848
0.0048799
0.00459738
0.00433939
0.00409883
0.00388202
0.0036764
0.00348792
0.00332352
0.00316761
0.00302971
0.00291303
0.00278362
0.0026149
0.00242257
0.00222206
0.00202136
0.00185743
0.00176811
0.00174666
0.0017533
0.00180055
0.00188264
0.00191826
0.00191762
0.00185604
0.00172009
0.00164587
0.00161043
0.00158042
0.00155247
0.00153259
0.0015209
0.00151339
0.00151181
0.00150736
0.00146635
0.00119761
0.000730653
0.000555163
0.000536576
0.000539827
0.000536321
0.000513685
0.000426182
0.00026709
0.000162114
0.000105906
7.77366e-05
7.07452e-05
7.58181e-05
0.00010829
0.000293194
0.000223369
0.0807324
0.0734426
0.0736314
0.0809782
0.0851083
0.0842128
0.0763121
0.0662304
0.0641514
0.0634763
0.0625141
0.0598302
0.0553962
0.053287
0.0529195
0.0531334
0.0562925
0.0570891
0.054735
0.0565129
0.078896
0.0929978
0.0953557
0.0967093
0.0991508
0.101564
0.103734
0.104542
0.104658
0.10405
0.101367
0.0951927
0.088078
0.086931
0.0897395
0.100914
0.122218
0.147184
0.163567
0.167993
0.168291
0.168302
0.169757
0.173808
0.177082
0.178168
0.179517
0.182116
0.183322
0.187602
0.190805
0.201271
0.218978
0.243263
0.261365
0.27047
0.275928
0.279306
0.281698
0.282683
0.281016
0.275824
0.266211
0.255095
0.233782
0.189687
0.159922
0.153199
0.155346
0.17176
0.220661
0.30037
0.425265
0.466364
0.379446
0.186277
0.0998922
0.05931
0.0396568
0.0298033
0.0244359
0.0213052
0.0191784
0.017614
0.0164474
0.0154628
0.0145486
0.0135726
0.0126721
0.0117941
0.0110755
0.0106407
0.0104697
0.0104474
0.0108997
0.0116875
0.012562
0.0138518
0.0149386
0.0156948
0.0166116
0.0171384
0.0175491
0.0178612
0.0180864
0.0182906
0.018418
0.0185605
0.0186476
0.0187418
0.0188209
0.0188879
0.0189516
0.0190146
0.0190715
0.0191174
0.0191432
0.0191412
0.0191127
0.01904
0.0189099
0.0186978
0.0184016
0.0180179
0.0174945
0.01684
0.0160643
0.0152061
0.014301
0.013351
0.0123476
0.0112736
0.0101175
0.00889846
0.00769923
0.00663975
0.00570144
0.0049093
0.00434097
0.00402431
0.00389115
0.00382387
0.00371793
0.00344774
0.00307062
0.00276599
0.00257051
0.00245459
0.00238324
0.0023409
0.00231583
0.00229666
0.00226629
0.0022085
0.00214733
0.00211338
0.00209381
0.00205421
0.00196085
0.00182856
0.00169827
0.00161602
0.00158538
0.00153407
0.00146935
0.0014529
0.00144142
0.00143315
0.00143389
0.00144058
0.00147633
0.00151774
0.00152047
0.00151237
0.00149419
0.00146385
0.00138984
0.00115871
0.00110995
0.000923617
0.0960647
0.0952404
0.0938847
0.0867202
0.0788562
0.0718728
0.0643485
0.0616889
0.0625536
0.0661995
0.067341
0.0654413
0.0570789
0.0513997
0.0503257
0.0520692
0.0571285
0.0621433
0.0772755
0.0919009
0.0982936
0.0998714
0.100424
0.101034
0.101734
0.102188
0.102389
0.10182
0.100631
0.099597
0.0980056
0.0973227
0.0978986
0.101557
0.103803
0.104356
0.102949
0.0929048
0.0734484
0.0584063
0.0527359
0.0500276
0.0488103
0.0484555
0.0498257
0.0544648
0.0621485
0.0723019
0.0815369
0.0922813
0.100481
0.113432
0.12274
0.131338
0.142677
0.167969
0.205567
0.236923
0.259858
0.28102
0.290465
0.288177
0.276984
0.261812
0.246391
0.208922
0.164916
0.15108
0.153746
0.173876
0.231756
0.332895
0.353876
0.204751
0.0871509
0.0439624
0.0269689
0.0194292
0.015824
0.0140202
0.0129244
0.012185
0.0114778
0.0109095
0.010212
0.00961749
0.0091957
0.00902431
0.00899486
0.00932617
0.00982556
0.0104761
0.0112871
0.0126201
0.0144242
0.0161202
0.0170551
0.0177703
0.0181032
0.0184566
0.0186293
0.0188474
0.0189526
0.0191006
0.0191777
0.0192317
0.0192695
0.0192843
0.019282
0.0192719
0.0193254
0.0193615
0.0194478
0.0195591
0.0196931
0.0198441
0.0199927
0.0201375
0.0202856
0.0204317
0.0205812
0.02073
0.020871
0.0209749
0.0210604
0.0211326
0.0211728
0.0211702
0.0211081
0.0209734
0.0207785
0.0204878
0.0200496
0.0193952
0.0183996
0.016875
0.0147266
0.0119029
0.00873095
0.00606087
0.00453141
0.00395339
0.00381818
0.00379963
0.00378154
0.0036971
0.00335439
0.00297371
0.00276281
0.00265939
0.00262103
0.00261459
0.00262057
0.00263514
0.00264027
0.0026234
0.00250533
0.00223673
0.00202009
0.00185819
0.00170701
0.00155866
0.00143683
0.0013501
0.00128811
0.00123733
0.00117731
0.0010817
0.000982157
0.000931699
0.000926266
0.000943155
0.00103121
0.0012464
0.00140517
0.00149241
0.00152362
0.00152526
0.00152737
0.00147898
0.0609373
0.0524145
0.0537824
0.0577551
0.0591843
0.0590392
0.0600208
0.0636886
0.0732863
0.0741202
0.0686745
0.0601908
0.0545203
0.0521654
0.0539796
0.0620035
0.0753514
0.0879807
0.094976
0.0974548
0.0983438
0.0986083
0.0979308
0.0970974
0.0955989
0.0934594
0.0907425
0.0880836
0.0858064
0.0840793
0.0823633
0.080424
0.0766295
0.0700971
0.0597209
0.047558
0.0354586
0.0260922
0.0214471
0.0182195
0.0165477
0.0158222
0.0156018
0.0157358
0.0173524
0.0212189
0.0283394
0.0392419
0.0545549
0.0736333
0.0941168
0.110084
0.11713
0.122598
0.126405
0.127791
0.130497
0.137255
0.157651
0.171137
0.171672
0.173748
0.176618
0.178562
0.177202
0.170191
0.156757
0.156593
0.182698
0.230893
0.272826
0.267734
0.128089
0.0559198
0.0265573
0.0165819
0.0126901
0.0109427
0.0100043
0.00929828
0.00863826
0.00797353
0.00768223
0.00749981
0.00741419
0.00745671
0.00793165
0.00845987
0.00913861
0.010131
0.0117403
0.0141391
0.0171688
0.0188683
0.0196367
0.0199217
0.0199814
0.0198966
0.0195703
0.0193871
0.0193307
0.0193408
0.0194259
0.0196748
0.0199049
0.0200066
0.0200271
0.0199016
0.0196992
0.0193126
0.0191552
0.0189529
0.0188939
0.0189217
0.0190366
0.0192092
0.0193899
0.0195481
0.0196849
0.0197843
0.0198811
0.0199906
0.0201256
0.0203461
0.0206015
0.0208675
0.0211136
0.0212664
0.0213484
0.0214243
0.0215297
0.0216835
0.021912
0.0222055
0.0224877
0.0226763
0.0227374
0.022656
0.0218942
0.0185739
0.0122203
0.0073332
0.0048957
0.00402736
0.00386409
0.00394824
0.00411736
0.00411261
0.00397012
0.00371613
0.00360826
0.00359719
0.00363514
0.00379899
0.00398295
0.00410912
0.00416793
0.0041567
0.00396575
0.00342437
0.0028621
0.00241126
0.00209716
0.00192711
0.00185217
0.00176984
0.0015738
0.00117998
0.000845603
0.000670845
0.000630953
0.000638793
0.000683779
0.00082545
0.00101351
0.00116899
0.00129198
0.00136531
0.00139817
0.00142304
0.0370933
0.0413174
0.0444306
0.0536239
0.0593255
0.064137
0.0757316
0.0821831
0.0835522
0.0796407
0.0701766
0.0644371
0.0627119
0.066814
0.0752761
0.0846831
0.0896787
0.0928931
0.0940545
0.0942142
0.0915591
0.0872386
0.0806008
0.0715265
0.062548
0.0541779
0.0469967
0.0413393
0.0364876
0.032018
0.027615
0.0227577
0.0180647
0.0137409
0.0118311
0.0102254
0.00959646
0.00937665
0.0090926
0.00892433
0.00873421
0.00863852
0.0085336
0.0085097
0.00893753
0.010332
0.0140684
0.0235754
0.0414231
0.0643788
0.0918928
0.109685
0.117956
0.123853
0.128881
0.134021
0.136557
0.137155
0.137678
0.138092
0.140454
0.145038
0.14487
0.140908
0.116096
0.109426
0.141698
0.195504
0.214809
0.224118
0.194056
0.0897599
0.0395813
0.0196583
0.0122775
0.00949002
0.00816437
0.00722819
0.00643756
0.00584866
0.00542369
0.0052794
0.00526981
0.00546541
0.00604509
0.00682872
0.00785774
0.00888101
0.010658
0.0136266
0.0164726
0.019186
0.0201812
0.0205337
0.020577
0.0200572
0.0195286
0.0194099
0.0194011
0.0196982
0.0207212
0.0227476
0.0257643
0.0287951
0.0309701
0.0322605
0.0326957
0.0316603
0.0307628
0.0276003
0.0262522
0.0239046
0.0227477
0.0217962
0.0212975
0.0210458
0.0209654
0.0209843
0.0209766
0.0207736
0.0205045
0.0202342
0.0200171
0.0199207
0.0199026
0.0199521
0.0200593
0.0202299
0.0204026
0.0204926
0.0205084
0.0204825
0.0203711
0.0202932
0.0203397
0.0207669
0.0217828
0.022839
0.023576
0.0237263
0.0233103
0.0201872
0.01192
0.00670099
0.00451617
0.00392924
0.00392737
0.00420084
0.00448617
0.00453761
0.00451802
0.00443889
0.00440813
0.00443844
0.00454197
0.00460729
0.00462887
0.00462534
0.00458047
0.00443877
0.00404148
0.00333651
0.00271461
0.00232218
0.00213822
0.00206857
0.00199785
0.00182131
0.00158775
0.00143403
0.00135326
0.00132193
0.00131378
0.00130117
0.00126742
0.00115635
0.00104414
0.00102096
0.00102556
0.00106831
0.0354937
0.0484243
0.0583302
0.0735489
0.0797624
0.0832902
0.0856049
0.0866287
0.0856471
0.0822194
0.0788175
0.0776855
0.077794
0.0806229
0.0839398
0.0867569
0.0879367
0.0877509
0.0830171
0.0740844
0.0621714
0.0505515
0.039921
0.0329739
0.0263616
0.0221912
0.0184056
0.0164132
0.0143479
0.013138
0.0120804
0.0111389
0.0106622
0.0103962
0.0103242
0.0103075
0.0102578
0.0100931
0.00990169
0.00955393
0.00903498
0.00866998
0.00816663
0.00771206
0.00730705
0.00711869
0.00754562
0.00999935
0.016642
0.0310327
0.0551014
0.082251
0.096626
0.104723
0.114188
0.125945
0.133282
0.137123
0.138835
0.138848
0.136509
0.125197
0.115665
0.0950052
0.0838882
0.122963
0.165451
0.1835
0.174352
0.126495
0.0624168
0.0296049
0.0155218
0.00997838
0.00772182
0.00657152
0.00573512
0.00514078
0.00455622
0.00421706
0.00408858
0.00408435
0.00429175
0.00485381
0.00576295
0.00691179
0.00843371
0.0107556
0.013849
0.0167282
0.0199173
0.0210066
0.0212693
0.0212346
0.0202832
0.0197355
0.0196526
0.0200692
0.0219102
0.0263726
0.0347976
0.0471239
0.0605157
0.070959
0.0782715
0.0818226
0.0827584
0.0764929
0.0727143
0.0594055
0.0522353
0.043347
0.0374759
0.0326696
0.0295125
0.027301
0.0258118
0.0245065
0.0233838
0.0227592
0.0224333
0.0221909
0.0218722
0.0213746
0.0207811
0.020258
0.0200343
0.0200299
0.0201814
0.0203472
0.02041
0.0204067
0.0203125
0.0199635
0.0195057
0.0191341
0.0189648
0.0190342
0.0199034
0.0223656
0.0239338
0.0241475
0.0231651
0.0171119
0.00900255
0.00523341
0.00401377
0.00390452
0.00416651
0.00447978
0.00458921
0.0046038
0.00462191
0.00466729
0.00471002
0.00473238
0.00473712
0.00472846
0.00467123
0.00458854
0.0044925
0.00429018
0.00373218
0.00300592
0.00249831
0.00220501
0.00205605
0.00199445
0.00195338
0.00186456
0.00172435
0.00160381
0.00153451
0.00151045
0.00149595
0.00146886
0.00140969
0.00128341
0.00117332
0.0011061
0.0409201
0.05759
0.0673891
0.0774627
0.0831785
0.0858963
0.0865756
0.0864546
0.084698
0.0818605
0.0801478
0.0795962
0.0795707
0.0806434
0.0814111
0.0800899
0.0743726
0.063259
0.0509659
0.0403209
0.0316142
0.0251809
0.0208158
0.0176061
0.0158549
0.0147795
0.0140374
0.0137069
0.0135519
0.013522
0.0138725
0.0143085
0.0151201
0.0156847
0.0161592
0.0163216
0.0162696
0.0159156
0.0153943
0.0145484
0.0134506
0.0123418
0.0109524
0.00948283
0.00811372
0.00677027
0.00615749
0.00599414
0.00651642
0.00923241
0.017131
0.0334001
0.0557271
0.0680419
0.0783596
0.0914567
0.10283
0.110713
0.115059
0.109423
0.101905
0.100871
0.0974252
0.066663
0.0865657
0.118334
0.132192
0.112095
0.07363
0.043519
0.0224888
0.0128071
0.00860579
0.00677901
0.0057897
0.00500611
0.00444477
0.00403676
0.00366678
0.00349677
0.00345425
0.0035574
0.00392657
0.00466259
0.00577747
0.00732043
0.00982021
0.0133343
0.0165152
0.0204769
0.0220748
0.0223854
0.0222111
0.0210877
0.0201001
0.0199484
0.0205866
0.0236781
0.0321499
0.0498658
0.0795033
0.11697
0.146558
0.161414
0.168422
0.170924
0.170543
0.161229
0.15194
0.127837
0.101971
0.080358
0.0639508
0.0511055
0.0416577
0.0347061
0.0293958
0.0258436
0.0238015
0.0229298
0.022577
0.0224675
0.0224237
0.0224004
0.0223317
0.0221089
0.0214922
0.0208388
0.0204622
0.0204025
0.0205042
0.0207554
0.0209036
0.0209147
0.0207177
0.0198788
0.0189441
0.0183662
0.0182016
0.0183471
0.0197802
0.0231003
0.024218
0.0238268
0.0200748
0.0107527
0.00584766
0.00406905
0.00372104
0.0038871
0.00430533
0.00449671
0.00460046
0.00467177
0.00470991
0.00471747
0.00470363
0.00460352
0.00445175
0.00439629
0.00437366
0.00434157
0.00425842
0.00395793
0.00318707
0.00257352
0.00221281
0.00202794
0.00194886
0.00191292
0.00184884
0.00173072
0.00163259
0.00158737
0.00158213
0.00159682
0.00168563
0.00175189
0.00174958
0.00165653
0.0427434
0.0600772
0.0706709
0.0775128
0.0814805
0.0833835
0.0840561
0.0839067
0.0819487
0.0798909
0.0782681
0.0768963
0.0752154
0.0724656
0.0656476
0.0561428
0.0445743
0.0361428
0.028535
0.0231774
0.0194275
0.0173464
0.0163111
0.0157747
0.0155315
0.015442
0.0160504
0.0172791
0.019061
0.0214093
0.0235167
0.0250475
0.0262361
0.0268137
0.0270586
0.0270954
0.0265276
0.0255454
0.0241808
0.0224978
0.0211428
0.019562
0.0175617
0.0156068
0.0134635
0.0105547
0.00752858
0.00597104
0.00537387
0.0052744
0.00719054
0.0143821
0.031877
0.0521451
0.0614509
0.0695248
0.0744546
0.0780361
0.0839287
0.0885643
0.0904086
0.0856809
0.0614054
0.0575345
0.074007
0.0805287
0.0711679
0.0499797
0.0299292
0.0176209
0.0109513
0.00786168
0.00641298
0.00548584
0.00479349
0.00411961
0.00370573
0.00339953
0.0031783
0.00308372
0.0031244
0.00332951
0.00376894
0.00461185
0.00598516
0.00852419
0.0119679
0.0149144
0.0182989
0.0218055
0.0230052
0.0231811
0.0227434
0.0210329
0.020273
0.0205215
0.0231756
0.0325235
0.0564951
0.101965
0.159177
0.185175
0.195332
0.199533
0.201212
0.201646
0.200716
0.195921
0.188778
0.175567
0.152776
0.119531
0.0908479
0.0680576
0.0510142
0.0390596
0.0311803
0.0263797
0.0237942
0.0222191
0.0215704
0.0215205
0.0215994
0.021851
0.0221958
0.0224013
0.0224414
0.0223112
0.0218115
0.0213392
0.0211442
0.0211325
0.0212618
0.0216915
0.0219932
0.0220264
0.0216541
0.0199986
0.0185182
0.0179484
0.0179459
0.01873
0.0221725
0.0240096
0.0238504
0.0210543
0.0118048
0.00612427
0.00399103
0.00339938
0.00345997
0.00391044
0.00433907
0.00454505
0.00461189
0.0046129
0.00458052
0.00441796
0.00408807
0.00393973
0.00393391
0.00398792
0.00401861
0.00400132
0.00387135
0.00331824
0.00260485
0.00216936
0.00195703
0.00187263
0.00181056
0.00173353
0.00166062
0.00161834
0.00160981
0.00162196
0.00170716
0.00198831
0.00219716
0.00220795
0.0437839
0.0615495
0.0716348
0.0757816
0.077611
0.0786595
0.0790047
0.0780893
0.0758084
0.0732697
0.069724
0.0641989
0.0574854
0.0493042
0.0418851
0.0347603
0.0280935
0.0227266
0.0198113
0.0180761
0.0172482
0.016912
0.016823
0.017615
0.0194103
0.0224123
0.0253755
0.0283421
0.0306217
0.0322227
0.0335683
0.0344289
0.0349475
0.0351388
0.0351392
0.0342918
0.0334753
0.0320118
0.0299783
0.0279935
0.0259003
0.0236144
0.0215849
0.0196337
0.0179341
0.0164596
0.014382
0.00970607
0.00623472
0.0048363
0.00452913
0.00604325
0.0134141
0.0323298
0.0515125
0.0625778
0.0690685
0.0738479
0.0799286
0.0834343
0.0809275
0.0586442
0.045032
0.0457325
0.0505353
0.0492422
0.0378195
0.0241292
0.0148821
0.0101271
0.00770673
0.00638994
0.00542489
0.00478117
0.00423325
0.00359937
0.00321531
0.00297337
0.00284271
0.00283149
0.00293461
0.00318857
0.00366351
0.0046156
0.0066228
0.00992684
0.0133773
0.0163893
0.0203375
0.02407
0.0249984
0.0248655
0.0236069
0.0212334
0.020561
0.0216669
0.0280096
0.0470891
0.0866809
0.142546
0.179898
0.193021
0.197958
0.201559
0.203373
0.204143
0.204056
0.200677
0.194812
0.185277
0.168838
0.136449
0.102022
0.0747604
0.0546579
0.040638
0.0317312
0.0263857
0.0227332
0.0205788
0.0196056
0.0193833
0.0194361
0.0196719
0.020315
0.0211308
0.0217867
0.0220932
0.0221002
0.021804
0.0214813
0.0213836
0.0213843
0.0214656
0.0219269
0.0227218
0.0230451
0.0229859
0.0219848
0.0194199
0.018152
0.0179901
0.018639
0.0219853
0.0239348
0.0238063
0.0211513
0.0119539
0.00603768
0.00374393
0.00296152
0.00295309
0.00327872
0.0039244
0.00417358
0.00419314
0.00414502
0.00392909
0.00341169
0.00309085
0.0030193
0.00306207
0.00335746
0.00365352
0.00369315
0.00362694
0.00323689
0.00251948
0.00207248
0.00183608
0.0017143
0.00164882
0.00161378
0.00159633
0.00159237
0.00160492
0.00170079
0.00204425
0.00236562
0.00248138
0.0447076
0.061879
0.0689984
0.0710178
0.0714187
0.0701291
0.0686604
0.0646968
0.0610421
0.0558403
0.0497013
0.0441949
0.0385519
0.0331948
0.0282979
0.0238337
0.0206395
0.0188057
0.0180526
0.0177595
0.017672
0.0184404
0.0205224
0.0237335
0.0266035
0.0292166
0.0317326
0.0334953
0.0353428
0.036619
0.0375238
0.0382937
0.038721
0.0388724
0.0386438
0.0376313
0.0363645
0.0348305
0.032525
0.030472
0.0282089
0.0256873
0.0238519
0.0219054
0.0198879
0.0184574
0.0174369
0.0161963
0.0121585
0.00679132
0.00435927
0.00368866
0.00396844
0.00797876
0.022788
0.0475893
0.0636271
0.0728602
0.078739
0.0821072
0.0772118
0.0437828
0.0333753
0.0349146
0.0358243
0.0308263
0.0221296
0.0142427
0.00987667
0.00771512
0.00650874
0.00564163
0.00490559
0.00438726
0.00391264
0.00330834
0.00288039
0.00263998
0.0025782
0.00262841
0.00281736
0.00309573
0.00357094
0.00464544
0.00718633
0.0105773
0.0136067
0.0164544
0.0206591
0.0252385
0.0265131
0.0265186
0.0251948
0.021812
0.0210545
0.0225984
0.0300677
0.0502085
0.0878371
0.136512
0.163669
0.167373
0.165725
0.175191
0.184549
0.192987
0.197048
0.197035
0.19269
0.185277
0.171759
0.141742
0.10531
0.0763916
0.0552022
0.0404657
0.0305456
0.02407
0.0205207
0.0188353
0.0180337
0.0177577
0.0175669
0.0174077
0.0174228
0.0179109
0.0190001
0.0199647
0.020508
0.0206408
0.0205795
0.0205659
0.0205946
0.0206675
0.0208132
0.0211888
0.0225119
0.0236978
0.0239664
0.0236118
0.0211962
0.0189693
0.018517
0.0191537
0.0224066
0.0240608
0.0238118
0.020766
0.0113325
0.00563384
0.00336314
0.00241385
0.00229388
0.00243453
0.00276224
0.00278423
0.00271159
0.00243755
0.00197265
0.0016917
0.00160837
0.00162629
0.00183985
0.00265556
0.00325057
0.00337389
0.00332322
0.00298985
0.00233018
0.00191588
0.00168905
0.00156841
0.0015158
0.00150747
0.00152417
0.00160957
0.00186247
0.00216377
0.00238491
0.00251151
0.0446568
0.0582696
0.0622007
0.0629856
0.0614596
0.0576434
0.0533195
0.0496336
0.0450896
0.0400782
0.0354659
0.0315158
0.0278771
0.0248311
0.0216905
0.0196438
0.0186265
0.0182269
0.0181475
0.0184883
0.0198451
0.0232004
0.0262274
0.0293565
0.0328653
0.0361549
0.0394019
0.0419796
0.044508
0.046525
0.0485269
0.050332
0.0512106
0.0515437
0.0511414
0.0498982
0.0474105
0.0440887
0.0396308
0.0345256
0.0299095
0.0264917
0.0241038
0.0225595
0.0212629
0.0196917
0.0184027
0.0179469
0.0171205
0.0142952
0.00771054
0.00402352
0.00282406
0.00244299
0.00421111
0.0122956
0.0362975
0.061969
0.0757785
0.0826754
0.0836774
0.0552582
0.0276804
0.0248084
0.0269042
0.0219786
0.0153775
0.0105182
0.00808791
0.00691937
0.0062281
0.00538876
0.00448215
0.00388414
0.00350957
0.00304546
0.00263365
0.0024108
0.00238785
0.0024614
0.00267693
0.00298897
0.00353425
0.0048742
0.00749065
0.0106745
0.0134021
0.0162454
0.0210945
0.0275399
0.0300085
0.029474
0.027883
0.0231863
0.0214057
0.0222197
0.0281476
0.04516
0.0783942
0.116433
0.125996
0.111054
0.0911795
0.0872724
0.109063
0.139302
0.16466
0.175118
0.174861
0.171695
0.163996
0.140184
0.101366
0.0706297
0.0488788
0.0342356
0.0249366
0.020124
0.0180478
0.0172823
0.0170522
0.0169206
0.0166348
0.0158725
0.0150021
0.0146649
0.0147504
0.0154851
0.0162427
0.0164912
0.0166349
0.0167724
0.0169556
0.0173319
0.0176837
0.0180151
0.0186514
0.0205387
0.023393
0.0247892
0.0248285
0.0230792
0.0201617
0.0195273
0.0201999
0.0231515
0.0242603
0.0237542
0.0197819
0.0102227
0.00499954
0.00287052
0.0018847
0.00153346
0.00147295
0.00141248
0.00134247
0.00120901
0.00104332
0.000921922
0.000873953
0.000874368
0.000944424
0.00134851
0.00235703
0.00291961
0.00303406
0.00297123
0.00262081
0.002068
0.00172136
0.0015335
0.00146362
0.00146141
0.00152476
0.00178826
0.00199207
0.00206646
0.00213063
0.00229987
0.0429179
0.0546105
0.0564571
0.0559956
0.0513608
0.0468995
0.0432934
0.038408
0.0342942
0.0300106
0.027065
0.0244916
0.0223636
0.0208163
0.0192445
0.0185849
0.0183689
0.0183473
0.0188802
0.0207458
0.0246985
0.0279566
0.0321219
0.0367159
0.0411173
0.0450314
0.0482452
0.0511449
0.0534194
0.0553069
0.0567552
0.0574789
0.0577902
0.0578507
0.0574203
0.056855
0.0558586
0.0542244
0.051484
0.0470846
0.0406961
0.0333992
0.02622
0.0223324
0.0209125
0.0204533
0.019022
0.0183242
0.0182239
0.0174871
0.0149643
0.00826714
0.00399934
0.00214011
0.00153054
0.00198876
0.00616532
0.022889
0.0562693
0.0777529
0.084737
0.0779046
0.0373473
0.0239646
0.0209986
0.017043
0.012474
0.00934345
0.00772807
0.00688518
0.00631989
0.0055262
0.00458113
0.00381729
0.00325059
0.00279148
0.00241102
0.00222257
0.00221346
0.00229238
0.00255413
0.00285897
0.0034521
0.00480101
0.00734663
0.0104743
0.0129011
0.0157565
0.0205451
0.0288307
0.0324804
0.0340883
0.0329776
0.0268491
0.0224718
0.0220461
0.0239204
0.0330683
0.0555806
0.0822107
0.0894204
0.0739266
0.0456879
0.0370155
0.039721
0.0591997
0.106331
0.140857
0.149525
0.148571
0.141663
0.117204
0.0768421
0.0486154
0.0318464
0.0228271
0.0186664
0.01684
0.0161527
0.0158342
0.0156602
0.0153876
0.0149368
0.0139691
0.0122914
0.0109829
0.0101321
0.00991899
0.00988822
0.00950427
0.00919793
0.009245
0.00944571
0.00985116
0.0107362
0.0118277
0.0129258
0.0151567
0.0194207
0.0234795
0.0258788
0.0261861
0.0245715
0.0213346
0.020728
0.0215354
0.0239144
0.024379
0.0234448
0.0178893
0.00893234
0.004318
0.00232374
0.00145309
0.000999585
0.000801003
0.000707517
0.000625386
0.000541948
0.000482594
0.000457876
0.000457188
0.00049071
0.00066731
0.00134461
0.00217496
0.00255539
0.00261302
0.00253465
0.0021877
0.00177055
0.00153123
0.00144354
0.00144248
0.00153033
0.00182457
0.00197427
0.0019815
0.00191557
0.00189802
0.0402662
0.0498774
0.0506835
0.0486888
0.0451668
0.0390924
0.0343172
0.0306112
0.0272553
0.0243461
0.0225037
0.02097
0.0198149
0.0190949
0.0185438
0.0183754
0.0184405
0.0189319
0.021008
0.0249246
0.0289449
0.0332638
0.0383041
0.0433619
0.0477014
0.0512196
0.053756
0.0559435
0.0575568
0.0587247
0.0593178
0.059585
0.0596681
0.0595454
0.0592163
0.0586591
0.0579515
0.0569706
0.0553409
0.052293
0.0468847
0.0409629
0.0338574
0.0256116
0.0207904
0.0194194
0.0195281
0.0184862
0.0184175
0.0183061
0.0173903
0.0142636
0.00818074
0.00403706
0.00166231
0.000949576
0.000908618
0.00256588
0.0116703
0.0476892
0.080352
0.0855019
0.0674458
0.0325673
0.0221297
0.0168746
0.0125582
0.00955118
0.00791007
0.00701329
0.00658674
0.00594504
0.00497714
0.0040147
0.00329853
0.00278789
0.00239463
0.00216429
0.00211481
0.00215697
0.00236657
0.0027094
0.00327276
0.00452155
0.00697111
0.0099856
0.0121377
0.0148222
0.0190665
0.0278242
0.036104
0.0375012
0.037303
0.0351388
0.0268291
0.0229734
0.0229204
0.0249044
0.0318123
0.0497366
0.0542909
0.0490158
0.0327643
0.0264067
0.0275802
0.0391604
0.0834747
0.123729