/*--------------------------------*- C++ -*----------------------------------*\
  =========                 |
  \\      /  F ield         | OpenFOAM: The Open Source CFD Toolbox
   \\    /   O peration     | Website:  https://openfoam.org
    \\  /    A nd           | Version:  9
     \\/     M anipulation  |
\*---------------------------------------------------------------------------*/
FoamFile
{
    format      ascii;
    class       volScalarField;
    location    "0.055";
    object      nut;
}
// * * * * * * * * * * * * * * * * * * * * * * * * * * * * * * * * * * * * * //

dimensions      [0 2 -1 0 0 0 0];

internalField   nonuniform List<scalar> 
12225
(
0
0
0
0
0
0
0
0
0
0
0
0
0
0
0
0
0
0
0
0
0
0
0
0
0
0
0
0
0
0
0
0
0
0
0
0
0
0
0
3.03376e-10
3.56354e-10
3.86158e-10
3.93318e-10
1.71364e-10
0
0
0
0
0
0
0
0
0
0
0
0
7.90995e-09
1.23164e-08
9.06194e-09
6.88812e-09
5.6338e-09
2.6254e-09
0
0
0
0
0
0
0
0
0
0
0
0
0
1.61626e-07
1.96198e-07
0
0
0
0
0
0
0
0
0
0
0
0
0
0
0
0
0
0
0
3.20713e-07
4.0132e-07
0
0
0
0
0
4.29347e-08
1.60602e-07
2.20036e-07
2.09844e-07
2.02696e-07
1.40612e-06
1.5676e-07
0
0
0
4.32892e-08
8.71228e-07
1.79568e-06
8.53432e-07
0
0
5.69519e-08
8.96363e-08
1.15685e-07
1.22601e-07
1.3154e-07
1.43481e-07
1.8904e-07
1.69004e-06
4.27368e-07
0
0
0
1.66198e-07
1.93535e-06
3.04947e-06
2.8194e-06
6.98841e-07
6.17606e-08
8.17815e-08
1.49491e-07
2.13633e-07
2.25296e-07
1.45462e-07
0
0
2.19193e-06
5.24617e-07
0
0
0
7.7665e-07
3.16705e-06
3.20333e-06
2.40102e-06
1.01342e-06
3.69032e-07
1.4112e-07
1.14079e-07
1.61765e-07
1.06309e-07
0
0
8.18891e-08
1.64263e-06
2.76005e-07
0
0
0
7.55988e-07
1.72868e-06
1.47302e-06
6.38987e-07
2.78439e-07
2.07269e-07
1.34042e-07
5.04545e-08
0
0
0
0
0
1.35305e-07
0
0
0
0
7.17923e-07
3.53544e-07
0
0
4.35167e-08
1.1538e-07
1.18968e-07
1.33499e-07
1.94889e-07
2.73197e-07
3.73987e-07
3.57233e-07
0
0
0
0
0
1.83938e-07
0
0
0
0
0
5.76717e-08
2.05821e-07
4.02492e-07
5.20777e-07
5.38109e-07
5.04782e-07
4.43975e-07
3.03878e-07
0
0
1.08945e-06
3.24537e-06
7.20792e-07
0
0
0
0
0
0
4.51228e-07
8.04205e-07
8.78894e-07
6.87683e-07
4.28977e-07
1.94644e-07
3.52574e-08
0
5.3181e-07
3.28781e-06
2.64984e-06
0
0
0
0
0
0
3.98319e-08
9.1117e-07
1.55826e-06
1.19773e-06
6.96706e-07
3.02466e-07
7.26759e-08
0
3.8463e-07
6.35498e-07
1.59167e-06
7.32172e-07
0
0
0
0
0
9.59241e-08
3.13307e-07
4.06146e-07
1.2792e-07
0
0
0
0
0
1.00632e-06
9.10855e-07
9.12891e-07
3.56223e-07
0
0
0
0
0
0
0
0
0
0
0
0
0
0
1.45385e-06
1.1787e-06
2.45356e-07
0
0
0
0
4.59656e-07
1.79341e-06
1.38147e-06
4.05513e-07
0
0
0
0
0
0
0
4.79322e-07
8.23129e-08
0
0
0
0
2.2547e-07
4.80104e-07
1.22245e-06
2.19632e-06
1.33391e-06
3.6713e-07
1.39323e-07
1.19862e-07
1.28274e-07
1.3684e-07
1.4819e-07
1.58651e-07
0
0
1.41556e-07
5.13795e-08
0
0
0
0
1.72708e-07
5.97769e-07
8.20781e-07
3.11525e-07
0
0
0
0
0
9.42066e-08
0
3.44348e-07
6.51625e-07
1.83096e-07
0
0
5.20427e-07
6.50653e-07
4.77827e-07
4.233e-07
2.49137e-07
0
0
0
0
0
0
0
0
5.17567e-07
7.06618e-07
7.03626e-07
0
2.48163e-07
1.56558e-06
1.02146e-06
2.61761e-07
0
0
0
0
0
0
0
0
0
0
0
7.47126e-07
5.117e-07
0
0
0
4.68619e-07
0
0
0
0
0
0
0
0
0
0
0
0
0
0
0
0
0
0
0
0
0
1.6349e-07
9.73978e-08
4.5865e-08
0
0
0
0
6.0675e-07
8.95284e-07
6.39112e-09
4.75341e-07
0
0
0
0
0
0
4.07381e-07
5.55733e-07
4.8862e-07
3.78141e-07
2.25053e-07
6.59898e-08
0
0
1.64173e-06
7.06513e-07
0
0
0
0
0
4.88982e-09
4.30521e-08
7.25115e-08
1.32335e-07
1.40244e-07
2.45436e-07
3.30132e-07
2.76899e-07
1.13634e-07
0
0
2.7426e-06
0
0
3.57749e-08
0
0
7.67541e-07
7.59869e-07
1.34473e-07
0
0
0
0
0
0
0
0
0
0
0
0
0
0
2.13196e-09
0
0
0
1.95812e-09
3.8795e-09
9.50333e-10
0
0
0
0
0
0
0
0
0
0
0
0
0
0
0
0
0
0
0
0
0
0
0
0
8.50106e-11
0
0
0
0
0
0
0
0
0
0
0
0
0
0
0
0
0
1.58319e-10
0
0
0
0
0
0
0
0
0
0
0
0
0
0
0
0
0
8.77201e-06
9.6143e-06
0
0
0
0
0
1.93938e-06
2.75956e-06
9.09077e-07
0
0
1.64551e-07
1.39235e-06
1.81973e-06
1.01584e-06
0
1.25584e-06
2.44301e-06
0
0
0
0
0
0
0
0
0
0
0
0
0
9.92539e-09
2.51335e-07
4.52665e-07
6.61397e-07
8.27913e-07
6.25087e-07
0
0
0
0
0
0
0
0
0
0
0
0
0
0
0
0
0
1.23915e-05
3.21549e-05
4.11547e-05
3.6144e-05
6.48135e-06
0
0
0
0
2.85702e-07
1.25608e-06
0
0
2.31232e-07
8.26592e-06
1.67874e-05
1.73092e-05
2.00602e-05
4.98258e-05
9.55962e-05
0.000123861
0.000116944
9.29557e-05
6.10073e-05
3.28004e-05
1.56298e-05
7.05926e-06
3.02296e-06
1.14389e-06
2.99374e-07
0
0
0
6.37142e-08
1.67977e-07
2.51474e-07
3.0488e-07
3.28098e-07
3.24742e-07
3.05149e-07
2.72793e-07
2.31293e-07
1.88869e-07
1.46385e-07
1.05954e-07
6.76397e-08
2.89908e-08
0
0
0
0
0
0
0
0
0
0
0
0
0
0
0
0
0
0
0
0
0
0
0
0
0
0
0
0
0
0
0
0
0
0
0
0
0
0
0
0
0
0
0
0
0
0
0
0
0
2.29341e-09
1.62539e-09
0
0
0
0
0
0
0
0
0
0
0
0
0
0
0
0
0
0
0
0
0
0
0
0
0
2.5714e-08
2.20496e-08
1.04809e-05
1.00954e-05
3.00792e-06
0
0
0
0
6.279e-07
6.3285e-06
5.82714e-06
4.29974e-06
4.96904e-06
6.76594e-06
7.53763e-06
6.62582e-06
4.63689e-06
3.37359e-06
1.32376e-06
0
0
0
0
0
0
0
0
0
0
0
0
0
0
0
0
0
2.86953e-07
5.3037e-07
4.01447e-07
0
0
0
0
0
0
0
0
0
0
0
0
0
0
0
0
0
0
0
0
0
0
0
0
0
0
0
6.06874e-07
0
0
5.09641e-07
1.12092e-05
1.91999e-05
1.8575e-05
1.93435e-05
2.1127e-05
2.30926e-05
1.99848e-05
1.76171e-05
1.48902e-05
1.17521e-05
8.94011e-06
6.79906e-06
5.21584e-06
3.93827e-06
2.84004e-06
1.91059e-06
1.19454e-06
7.26239e-07
4.76185e-07
3.75878e-07
3.51448e-07
3.55595e-07
3.65692e-07
3.72362e-07
3.71208e-07
3.67687e-07
3.58679e-07
3.39304e-07
3.12491e-07
2.69589e-07
2.11486e-07
1.43591e-07
6.43404e-08
0
0
0
0
0
0
0
0
0
0
0
0
0
0
0
0
0
0
0
0
0
0
0
0
0
0
0
0
0
0
0
0
0
0
0
0
0
0
0
0
0
0
0
0
0
0
0
0
0
0
0
0
0
0
0
0
6.89694e-09
1.36699e-08
1.84537e-08
1.13935e-08
0
0
0
0
0
0
0
0
0
0
0
0
0
0
0
0
5.42606e-08
3.57828e-08
4.78541e-06
1.04123e-05
1.153e-05
7.25876e-06
0
0
0
1.50714e-05
1.49017e-05
9.55086e-06
6.86078e-06
6.11312e-06
5.32063e-06
3.28487e-06
8.38721e-07
0
0
0
0
0
0
0
0
0
0
0
0
0
0
0
0
0
0
0
0
1.29908e-06
1.96511e-06
1.87534e-06
1.49701e-06
1.22406e-06
1.19066e-06
1.32448e-06
1.65238e-06
2.1417e-06
2.64004e-06
3.12671e-06
3.58225e-06
3.8206e-06
3.42011e-06
1.938e-06
0
0
0
0
0
0
0
0
0
0
0
1.36963e-06
6.805e-06
1.31666e-05
2.39408e-05
2.96596e-05
1.82006e-05
6.19183e-06
2.07093e-06
3.99983e-06
1.18981e-06
0
0
1.33882e-07
1.05023e-06
1.81136e-06
2.94279e-06
4.21895e-06
4.98325e-06
5.2706e-06
5.37057e-06
5.37273e-06
5.18992e-06
4.8251e-06
4.25709e-06
3.62956e-06
3.04607e-06
2.57257e-06
2.21004e-06
1.97407e-06
1.81343e-06
1.70015e-06
1.61347e-06
1.55967e-06
1.51455e-06
1.43624e-06
1.29922e-06
1.13145e-06
9.29907e-07
7.09774e-07
4.70017e-07
2.14768e-07
0
0
0
0
0
0
0
0
0
0
0
0
0
0
0
0
0
0
0
0
0
0
0
0
0
0
0
0
0
2.9814e-08
4.53696e-08
4.45906e-08
3.62755e-08
2.53271e-08
1.48346e-08
6.83627e-09
0
0
0
0
0
0
0
0
0
0
0
0
0
0
0
0
0
0
0
1.72768e-08
5.01289e-08
8.54816e-08
1.24413e-07
1.15721e-07
2.00733e-08
0
0
0
0
0
0
0
0
0
0
0
0
0
0
0
5.04745e-08
0
1.25406e-06
3.39281e-06
8.87866e-06
7.19898e-06
1.78651e-06
0
9.00512e-06
9.25974e-06
8.00353e-06
6.37561e-06
5.50491e-06
5.25114e-06
4.22003e-06
2.01154e-06
1.36855e-07
0
0
0
0
0
0
0
0
0
0
0
0
0
0
0
0
0
1.94855e-07
9.79293e-07
1.63084e-06
1.76831e-06
1.46303e-06
1.15822e-06
1.21204e-06
1.54748e-06
1.95006e-06
2.21669e-06
2.33861e-06
2.41761e-06
2.58992e-06
2.89551e-06
3.30011e-06
3.57729e-06
3.26928e-06
1.79188e-06
0
0
0
0
0
0
0
0
0
0
8.39551e-06
2.74499e-05
3.44921e-05
3.40883e-05
2.73941e-05
1.72517e-05
1.00534e-05
5.73137e-06
2.25256e-06
0
0
0
0
0
0
1.29224e-07
1.22034e-06
3.15989e-06
5.26353e-06
5.90542e-06
4.82793e-06
3.45939e-06
2.53341e-06
1.95934e-06
1.61641e-06
1.42513e-06
1.36478e-06
1.36267e-06
1.38509e-06
1.39834e-06
1.38799e-06
1.35093e-06
1.29112e-06
1.17307e-06
1.05477e-06
9.59999e-07
8.77734e-07
7.646e-07
5.71406e-07
3.03599e-07
3.25324e-08
0
0
0
0
0
0
0
0
0
0
0
0
0
0
0
0
0
0
0
0
0
0
0
0
0
0
0
0
0
0
0
0
0
0
0
0
0
0
0
0
0
0
0
0
1.57554e-08
2.40165e-07
4.00281e-07
4.88151e-07
4.99916e-07
4.5173e-07
3.2807e-07
1.26652e-07
0
0
0
0
0
0
0
0
0
0
0
0
0
0
0
3.03147e-09
0
0
0
0
0
0
0
0
0
0
0
3.46024e-07
1.01235e-06
4.74114e-06
2.86123e-06
8.88843e-06
2.17992e-05
1.59495e-05
1.194e-05
9.84717e-06
7.75859e-06
5.58975e-06
3.90769e-06
2.34613e-06
9.03492e-07
0
0
0
0
0
0
0
0
0
0
0
0
0
0
0
0
0
0
0
0
1.74436e-07
3.61237e-07
4.55947e-07
5.44281e-07
7.09185e-07
9.57962e-07
1.20379e-06
1.39197e-06
1.50003e-06
1.5416e-06
1.56033e-06
1.60611e-06
1.74341e-06
1.94794e-06
1.62609e-06
0
0
0
0
0
0
0
0
0
0
0
5.22339e-07
3.00753e-06
4.35139e-06
5.62191e-06
4.76573e-06
3.06703e-06
2.70797e-06
2.63246e-06
1.28214e-06
0
0
0
0
0
0
0
2.5622e-06
2.27238e-06
1.3011e-06
7.43873e-07
4.37001e-07
2.73961e-07
1.91147e-07
1.51307e-07
1.30611e-07
1.18457e-07
1.24181e-07
1.51193e-07
1.90654e-07
2.15637e-07
1.92226e-07
1.33349e-07
7.5216e-08
5.7427e-08
8.94523e-08
1.5509e-07
2.07784e-07
1.69246e-07
0
0
0
0
0
5.10124e-07
6.89097e-07
5.86704e-07
3.37266e-07
5.53523e-08
0
0
0
0
0
0
0
0
0
0
0
0
0
0
0
0
0
0
0
0
0
0
0
0
0
0
0
0
0
0
0
0
0
0
0
0
0
0
2.76528e-07
4.61127e-07
5.63237e-07
5.77598e-07
5.09821e-07
3.51514e-07
1.2948e-07
0
0
0
0
0
0
0
0
0
0
0
0
0
0
0
0
0
0
0
0
0
0
0
0
0
0
0
0
0
2.66564e-07
1.06845e-05
1.84425e-05
2.04644e-05
1.649e-05
1.19419e-05
8.64045e-06
6.24193e-06
4.37664e-06
2.93321e-06
1.7012e-06
5.92727e-07
0
0
0
0
0
0
0
0
0
0
0
0
0
0
0
0
0
0
0
1.83512e-07
4.11284e-07
5.76081e-07
6.80985e-07
7.33878e-07
7.67487e-07
8.01689e-07
8.54597e-07
9.52525e-07
1.05686e-06
1.11628e-06
1.07085e-06
9.07848e-07
6.69383e-07
4.249e-07
1.60635e-08
0
0
0
0
0
0
0
0
0
0
0
0
0
0
3.36738e-07
5.83858e-07
8.44073e-07
2.06731e-06
3.38677e-06
3.38485e-06
1.94075e-06
0
0
0
0
0
0
1.4101e-07
2.80996e-07
2.38102e-07
1.56042e-07
9.08356e-08
5.48035e-08
4.48679e-08
4.30668e-08
3.22873e-08
1.49144e-08
1.11944e-08
3.63805e-08
8.48961e-08
1.2054e-07
1.11175e-07
5.6802e-08
1.2981e-08
2.52069e-08
9.61386e-08
1.86534e-07
2.21769e-07
1.04991e-07
0
0
0
0
4.88653e-07
1.90091e-06
2.32704e-06
2.25497e-06
1.92617e-06
1.40093e-06
8.7254e-07
3.46282e-07
0
0
0
0
0
0
0
0
0
0
0
0
0
0
0
0
0
0
0
0
0
0
0
0
0
0
0
0
0
0
0
0
0
0
0
0
7.24295e-08
2.96466e-07
3.76282e-07
3.74131e-07
3.05527e-07
1.72584e-07
0
0
0
0
0
0
1.27196e-08
0
0
0
0
0
0
0
0
0
0
0
0
0
0
0
0
0
0
0
0
0
0
0
0
4.8523e-06
6.88833e-06
8.10095e-06
8.44476e-06
7.74257e-06
6.45657e-06
5.07534e-06
3.76335e-06
2.56955e-06
1.4358e-06
3.30296e-07
0
0
0
0
0
0
0
0
0
0
0
0
0
0
0
0
0
0
0
0
0
0
0
0
0
0
0
0
0
0
1.65838e-08
4.64308e-07
6.16856e-07
5.89417e-07
4.7729e-07
3.19299e-07
1.90145e-08
0
0
0
0
0
0
0
0
0
0
8.04604e-07
1.66891e-06
1.60145e-06
1.68033e-06
2.40164e-06
3.98278e-06
5.87023e-06
7.23952e-06
6.79698e-06
2.95743e-07
0
0
0
0
0
1.58066e-07
2.1939e-07
1.72091e-07
9.44001e-08
3.68166e-08
1.54765e-08
2.14328e-08
2.6868e-08
9.74318e-09
0
0
0
3.90361e-08
1.26694e-07
1.37881e-07
6.46095e-08
0
0
5.97788e-08
1.50236e-07
1.58448e-07
0
0
0
0
0
1.4664e-06
2.60423e-06
2.46682e-06
2.13053e-06
2.00413e-06
1.95415e-06
1.77245e-06
1.31593e-06
7.15286e-07
4.54505e-08
0
0
0
0
0
0
0
0
0
0
0
0
0
0
0
0
0
0
0
0
0
0
0
0
0
0
0
0
0
0
0
0
0
0
0
9.80861e-08
2.10011e-07
2.01472e-07
1.23935e-07
0
0
0
0
0
0
0
0
6.6747e-08
8.29384e-08
0
0
0
0
1.01513e-07
9.19706e-08
3.46375e-08
0
0
0
0
0
0
0
0
0
0
0
0
0
0
0
6.26238e-07
2.06768e-06
2.84746e-06
3.28327e-06
3.39582e-06
3.17669e-06
2.69512e-06
2.00868e-06
1.19937e-06
2.99442e-07
0
0
0
0
0
0
0
0
0
0
0
0
0
0
0
0
0
0
0
0
6.73346e-08
5.0092e-07
9.10936e-07
1.17981e-06
1.2579e-06
1.10796e-06
6.87227e-07
0
0
0
0
0
0
0
1.90017e-07
7.63497e-07
9.51278e-07
6.42397e-07
2.1593e-07
0
0
0
0
0
0
0
0
0
0
7.06749e-06
5.92728e-06
5.36934e-06
5.88523e-06
7.76378e-06
1.06309e-05
7.77098e-06
1.53986e-06
1.90339e-07
5.2374e-08
4.14924e-08
4.9263e-08
9.18604e-08
1.69519e-07
2.45227e-07
2.40616e-07
1.55451e-07
5.51311e-08
0
0
5.21434e-09
1.86017e-08
0
0
0
0
4.28186e-08
1.86598e-07
1.87606e-07
4.40845e-08
0
0
0
1.26054e-07
1.80122e-07
5.7435e-08
0
0
0
0
1.39652e-06
1.73674e-06
9.62366e-07
2.00281e-07
1.12197e-07
6.3109e-07
1.04845e-06
1.02133e-06
7.30235e-07
3.16077e-07
0
0
0
0
0
0
0
0
0
0
0
0
0
0
0
0
0
0
0
0
0
0
0
0
0
0
0
0
0
0
0
0
0
0
0
0
1.00104e-07
9.82857e-08
0
0
0
0
0
0
0
0
0
0
2.12315e-07
2.57605e-07
9.09474e-08
0
0
6.00584e-08
2.43703e-07
2.10014e-07
0
0
0
0
0
0
0
0
0
4.53117e-08
6.80446e-07
1.0534e-06
0
0
0
0
0
0
0
0
0
0
0
0
0
0
0
0
0
0
0
0
0
0
0
0
0
0
0
0
5.91475e-07
1.10515e-06
1.2592e-06
1.14269e-06
1.06451e-06
1.33456e-06
1.95976e-06
2.68116e-06
3.3447e-06
3.84493e-06
4.13658e-06
4.21647e-06
4.01117e-06
3.40166e-06
2.18063e-06
0
0
0
0
0
0
3.70355e-07
8.39772e-07
4.80521e-07
0
0
0
0
8.16053e-08
5.06042e-07
0
0
0
0
2.88504e-06
4.6406e-06
5.11519e-06
5.30783e-06
4.78015e-06
2.70756e-06
7.36455e-07
1.2165e-08
0
0
0
5.57206e-08
1.40999e-07
2.27851e-07
2.72027e-07
2.26183e-07
1.27861e-07
2.49501e-08
0
0
0
1.55866e-08
0
0
0
0
8.37523e-08
2.66896e-07
2.26176e-07
0
0
0
0
1.43017e-07
2.69279e-07
1.88092e-07
0
0
0
0
1.18109e-06
1.78998e-06
1.25965e-06
5.66611e-07
4.52527e-07
8.85833e-07
9.95598e-07
4.57981e-07
0
0
0
0
0
0
0
0
0
0
0
0
0
0
0
0
0
0
0
0
0
0
0
0
0
0
0
0
6.92758e-08
6.73463e-08
2.68036e-08
0
0
0
0
3.38412e-07
8.6771e-07
6.59265e-07
2.51622e-07
1.1573e-07
0
0
0
0
0
0
0
0
0
2.90856e-08
2.69422e-07
4.73399e-07
4.33079e-07
2.74023e-07
1.82204e-07
1.61494e-07
2.09111e-07
3.43208e-07
1.92891e-07
0
0
0
0
0
0
0
0
5.98668e-07
6.26577e-07
8.80025e-07
0
0
0
0
0
0
0
0
0
0
0
0
0
0
0
0
0
0
0
0
0
0
0
0
0
7.16873e-07
2.29019e-06
3.99937e-06
5.28243e-06
5.25543e-06
3.49609e-06
7.54851e-07
0
0
0
0
0
4.4924e-07
1.70775e-06
2.83241e-06
3.70504e-06
4.18579e-06
4.20023e-06
3.43991e-06
1.31413e-06
0
0
0
0
0
5.33658e-07
8.94168e-07
7.34373e-07
6.27502e-07
4.38457e-07
2.08841e-07
6.77289e-07
1.52089e-06
1.87406e-06
1.69683e-06
1.45304e-06
9.83295e-07
1.13654e-06
1.59841e-06
1.74339e-06
1.50706e-06
1.04999e-06
4.77572e-07
3.15698e-08
0
0
0
0
7.88588e-08
1.88483e-07
2.57624e-07
2.47345e-07
1.63499e-07
7.43552e-08
6.07963e-09
0
0
5.99086e-09
1.43978e-08
0
0
0
0
9.46601e-08
2.70948e-07
1.93007e-07
0
0
0
0
1.694e-07
3.04394e-07
1.37819e-07
0
0
0
0
3.51152e-07
1.78216e-06
2.18902e-06
1.88865e-06
1.71248e-06
1.98236e-06
1.80481e-06
7.31746e-07
0
0
0
0
0
0
0
0
0
0
0
0
0
0
0
0
0
0
0
0
0
0
0
0
0
0
0
0
0
2.0528e-07
3.59298e-07
4.31371e-07
4.37678e-07
9.88626e-08
0
3.91538e-07
1.36917e-06
1.91954e-06
1.59295e-06
7.74787e-07
1.35813e-07
0
0
0
0
0
0
0
2.38793e-07
4.6899e-07
6.85411e-07
8.73346e-07
8.80768e-07
7.64022e-07
6.23885e-07
5.20784e-07
4.49433e-07
4.32919e-07
4.99414e-07
5.29922e-08
0
0
0
0
0
5.58914e-07
1.30822e-06
1.50656e-06
5.29489e-07
6.55227e-07
0
0
0
0
0
0
0
0
0
0
0
0
0
0
0
0
0
0
0
0
0
0
0
1.0306e-07
1.75111e-06
4.39056e-06
8.17838e-06
1.29189e-05
1.74746e-05
1.7292e-05
5.88804e-06
0
0
0
0
0
0
0
0
0
0
1.11734e-06
2.2601e-06
3.01868e-06
2.98143e-06
1.42817e-06
0
0
0
0
0
4.17509e-07
6.90487e-07
5.44263e-07
4.86874e-07
3.71925e-07
1.25706e-07
3.96385e-07
8.32724e-07
1.12053e-06
1.50452e-06
1.34055e-06
9.99452e-07
9.95674e-07
9.22909e-07
6.34869e-07
3.60433e-07
1.20127e-07
0
0
0
0
1.74955e-08
1.5925e-07
2.47814e-07
2.42418e-07
1.70734e-07
8.92475e-08
3.16033e-08
3.46136e-09
2.77646e-09
2.27253e-08
4.16857e-08
3.20953e-08
0
0
0
0
5.66029e-08
2.0724e-07
9.76636e-08
0
0
0
0
1.73963e-07
2.71089e-07
5.47038e-09
0
0
0
0
0
4.39627e-07
1.41149e-06
1.31348e-06
8.39992e-07
1.17167e-06
1.59805e-06
1.0335e-06
2.32741e-07
0
0
0
0
0
0
0
0
0
0
0
0
0
0
0
0
0
0
0
0
0
0
0
0
0
0
0
0
0
5.18179e-07
8.00815e-07
9.09133e-07
9.50904e-07
6.30288e-07
3.91867e-07
1.51534e-06
2.55168e-06
3.07648e-06
2.53475e-06
1.54396e-06
2.75556e-07
0
0
0
9.66992e-08
6.16825e-07
1.16486e-06
1.54736e-06
1.75888e-06
1.89926e-06
2.00095e-06
1.88349e-06
1.5659e-06
1.37846e-06
1.15262e-06
9.48103e-07
7.5545e-07
7.07216e-07
4.57282e-07
0
0
0
0
3.8973e-07
1.48927e-06
2.17145e-06
3.09325e-06
2.28463e-06
4.77713e-07
0
0
0
0
0
0
0
0
0
0
0
0
0
0
0
0
0
0
0
0
0
0
2.9246e-08
1.50367e-06
4.0343e-06
7.98812e-06
1.38713e-05
2.2563e-05
3.45965e-05
3.95885e-05
0
0
0
0
0
0
0
0
0
0
0
0
0
7.00648e-07
1.66622e-06
2.03776e-06
7.39572e-07
0
0
0
0
0
3.90913e-07
4.4039e-07
3.0344e-07
2.34117e-07
2.01921e-07
0
0
2.69236e-08
6.24476e-07
1.09079e-06
1.03699e-06
9.72637e-07
8.10601e-07
4.75844e-07
1.42578e-07
0
0
0
0
0
2.41563e-08
2.66072e-07
3.1416e-07
2.085e-07
9.36449e-08
3.73645e-08
1.71276e-08
1.82442e-08
4.04498e-08
7.29819e-08
9.32082e-08
7.4673e-08
0
0
0
0
2.87333e-08
1.81033e-07
1.17712e-08
0
0
0
0
2.2758e-07
3.17356e-07
6.10977e-08
0
0
0
0
0
0
4.84483e-07
3.93381e-07
0
1.8513e-09
1.07536e-06
1.12292e-06
5.94763e-07
3.47933e-07
2.5908e-09
0
0
0
0
0
0
0
0
0
0
0
0
0
0
0
0
0
0
0
0
0
0
0
0
0
0
0
0
1.07143e-06
1.38921e-06
1.47939e-06
1.52378e-06
1.28425e-06
1.5938e-06
2.80209e-06
3.79787e-06
3.98612e-06
2.97504e-06
1.71963e-06
9.42528e-07
7.96541e-07
8.22e-07
9.37701e-07
1.08757e-06
1.17885e-06
1.19635e-06
1.20705e-06
1.25047e-06
1.26119e-06
1.22768e-06
1.59735e-06
2.55052e-06
2.40208e-06
1.86385e-06
1.45269e-06
1.22647e-06
1.13624e-06
0
0
0
0
8.27783e-07
1.83551e-06
2.26969e-06
2.43223e-06
2.19875e-06
0
0
0
0
0
0
0
0
0
0
0
0
0
0
0
0
0
0
0
0
0
0
0
6.26428e-07
1.9277e-06
3.7946e-06
6.10227e-06
8.36075e-06
9.284e-06
5.74113e-06
0
0
0
0
0
0
0
0
0
0
0
0
0
1.5815e-07
8.53618e-08
3.44382e-07
1.06452e-06
1.31656e-06
0
0
0
0
0
0
4.26384e-07
2.72633e-07
1.43362e-07
9.95872e-08
8.94939e-08
0
0
5.65648e-07
1.22695e-06
1.36137e-06
1.0206e-06
7.56043e-07
3.64677e-07
0
0
0
0
0
0
0
0
5.1551e-08
1.07953e-07
5.31363e-08
2.06995e-08
2.64052e-08
4.9576e-08
8.46855e-08
1.22651e-07
1.42319e-07
1.25693e-07
3.91859e-08
0
0
0
2.7186e-08
2.34601e-07
3.05108e-08
0
0
0
0
3.63564e-07
6.18783e-07
4.79656e-07
4.2403e-08
0
0
0
0
0
1.04668e-07
2.21818e-07
1.03889e-08
9.68565e-07
2.10131e-06
1.67519e-06
7.74458e-07
3.86148e-07
2.64188e-08
0
0
0
0
0
0
0
0
0
0
0
0
0
0
0
0
0
0
0
0
0
0
0
0
0
0
0
0
7.05571e-07
1.83764e-06
2.05412e-06
2.09711e-06
2.18117e-06
2.24682e-06
3.0373e-06
4.10892e-06
4.81296e-06
4.23919e-06
2.77528e-06
1.59331e-06
1.06423e-06
8.94237e-07
8.08119e-07
7.6575e-07
7.41281e-07
7.08435e-07
6.71412e-07
6.27104e-07
5.44296e-07
4.06504e-07
3.41719e-07
8.28645e-07
2.71445e-06
3.14045e-06
2.51147e-06
2.13724e-06
2.04274e-06
7.79078e-07
0
5.30345e-08
4.55978e-07
1.15006e-06
1.93722e-06
2.1747e-06
1.69055e-06
4.23229e-07
0
0
0
0
0
0
0
0
0
0
0
0
0
0
0
0
0
0
0
0
0
0
0
2.0631e-07
4.55737e-07
5.56663e-07
1.48716e-07
0
0
0
0
0
0
0
0
0
0
0
0
0
0
0
0
7.09065e-08
2.00049e-07
9.45086e-08
4.22414e-07
9.84438e-07
8.39111e-07
0
0
0
0
0
4.48877e-07
3.80958e-07
1.75276e-07
7.22724e-08
2.92908e-08
0
0
5.63028e-08
1.16707e-06
1.91519e-06
1.84195e-06
1.18861e-06
5.72119e-07
0
0
0
0
0
0
0
0
0
0
0
3.05871e-08
6.61154e-08
9.68649e-08
1.3556e-07
1.71334e-07
1.88224e-07
1.74157e-07
9.51284e-08
0
0
0
2.77799e-08
3.37611e-07
2.17702e-07
0
0
0
0
3.60634e-07
1.15181e-06
1.37489e-06
1.2012e-06
6.82159e-07
0
0
0
0
0
1.8769e-07
1.19801e-06
3.11036e-06
3.5475e-06
1.83262e-06
3.0258e-07
0
0
0
0
0
0
0
0
0
0
0
0
0
0
0
0
0
0
0
0
0
3.99113e-08
2.74165e-07
0
0
0
0
0
0
0
0
1.95331e-06
2.66495e-06
2.70658e-06
2.77107e-06
3.03784e-06
3.5814e-06
4.40942e-06
5.10013e-06
5.06508e-06
3.75055e-06
2.41334e-06
1.54684e-06
1.1187e-06
8.83941e-07
7.35105e-07
6.42393e-07
6.00168e-07
5.91571e-07
5.88175e-07
5.45858e-07
4.39687e-07
2.99975e-07
3.42235e-07
8.31321e-07
2.19613e-06
2.80156e-06
2.65535e-06
2.54688e-06
1.73711e-06
7.34458e-07
6.72344e-07
9.19421e-07
1.38932e-06
1.95624e-06
2.06089e-06
1.16114e-06
0
0
1.92944e-07
0
0
0
0
0
0
0
0
1.11365e-07
2.83063e-07
3.97887e-07
4.38974e-07
4.06017e-07
3.21258e-07
2.26619e-07
1.62112e-07
1.45171e-07
1.62883e-07
1.64981e-07
7.13263e-08
0
0
0
0
0
0
0
0
0
0
0
0
0
0
0
0
0
0
0
0
0
0
6.80551e-09
0
1.34962e-07
6.9092e-07
9.04418e-07
1.0986e-07
0
0
0
0
4.12878e-07
3.66825e-07
1.86156e-07
7.8997e-08
3.87486e-08
1.18957e-08
0
0
0
7.96598e-07
1.89504e-06
2.16756e-06
1.40961e-06
4.93022e-07
0
0
0
0
0
0
0
0
0
0
0
5.49993e-08
1.57817e-07
1.91726e-07
2.15546e-07
2.26664e-07
2.16052e-07
1.53179e-07
0
0
0
0
4.0956e-07
5.53661e-07
0
0
0
0
0
1.03308e-06
2.05475e-06
2.4651e-06
2.50028e-06
2.07344e-06
1.14986e-06
3.32973e-07
2.47974e-07
7.16306e-07
1.56054e-06
3.49908e-06
5.05472e-06
3.90037e-06
4.6505e-07
0
0
0
0
0
0
0
0
0
0
0
0
0
0
0
0
0
0
0
0
0
0
4.45048e-07
1.18638e-06
1.04072e-06
0
0
0
0
0
0
0
1.02674e-06
3.17302e-06
3.41042e-06
3.32523e-06
3.57557e-06
4.18988e-06
4.89417e-06
5.24959e-06
5.32779e-06
4.51309e-06
3.18056e-06
2.15616e-06
1.48795e-06
1.05248e-06
7.84977e-07
6.46904e-07
5.89601e-07
5.93964e-07
6.34708e-07
6.82237e-07
6.89198e-07
5.40493e-07
3.68423e-07
4.30109e-07
8.31079e-07
1.53381e-06
1.87077e-06
1.85413e-06
1.80773e-06
1.50054e-06
1.26096e-06
1.30554e-06
1.58246e-06
1.97326e-06
2.00972e-06
8.7673e-07
0
0
8.46399e-07
8.13028e-07
2.06704e-07
0
0
1.06674e-07
3.13703e-07
5.1353e-07
6.88871e-07
8.37408e-07
9.48779e-07
9.98428e-07
9.73104e-07
8.84538e-07
7.6057e-07
6.43084e-07
5.72168e-07
5.68413e-07
5.97233e-07
5.68395e-07
3.40473e-07
0
0
0
0
0
0
0
0
0
0
0
0
0
0
0
0
0
0
3.14627e-07
4.23227e-07
3.41751e-07
2.38427e-07
0
0
0
4.17675e-07
7.30629e-07
4.99422e-07
0
0
0
4.46568e-07
4.76341e-07
2.74337e-07
1.18254e-07
4.18279e-08
2.05639e-08
2.83675e-08
3.09213e-08
0
0
0
0
9.63718e-07
1.31112e-06
6.89401e-07
0
0
0
0
0
0
0
0
0
0
0
0
5.32085e-08
2.07599e-07
2.3375e-07
2.27796e-07
2.07782e-07
1.55814e-07
0
0
0
0
3.27261e-07
6.98668e-07
5.00398e-07
0
0
0
0
0
7.33329e-07
2.1174e-06
2.89337e-06
3.28544e-06
3.81882e-06
4.56819e-06
5.14094e-06
5.25658e-06
5.4298e-06
6.58271e-06
6.90364e-06
2.64076e-06
0
0
0
0
5.81942e-08
4.12981e-07
2.41168e-07
0
0
0
0
0
0
0
0
0
0
0
0
1.21062e-07
2.18762e-07
2.33343e-07
2.31681e-07
1.00179e-06
2.26966e-06
2.56693e-06
0
0
0
0
0
0
0
0
3.45351e-06
4.16609e-06
4.08395e-06
4.11624e-06
4.71457e-06
5.50406e-06
5.67339e-06
5.5038e-06
5.06764e-06
3.86591e-06
2.74416e-06
1.88737e-06
1.28485e-06
8.94758e-07
6.85058e-07
6.01541e-07
5.96789e-07
6.42542e-07
7.18971e-07
8.28554e-07
8.95699e-07
6.70643e-07
4.17398e-07
4.23356e-07
6.42661e-07
8.52691e-07
8.42862e-07
9.51789e-07
1.80424e-06
1.72635e-06
1.60531e-06
1.74517e-06
2.01689e-06
1.96522e-06
7.74356e-07
0
0
4.76781e-06
3.01864e-06
1.67485e-06
1.09857e-06
9.67467e-07
1.02882e-06
1.10228e-06
1.21041e-06
1.3055e-06
1.3727e-06
1.40778e-06
1.39677e-06
1.33251e-06
1.22523e-06
1.10215e-06
9.95419e-07
9.43593e-07
9.59616e-07
1.01464e-06
1.03293e-06
8.67738e-07
3.70288e-07
0
0
0
0
0
0
0
0
0
0
0
0
0
0
4.21669e-06
5.06945e-06
4.29644e-06
3.0491e-06
1.77991e-06
8.37638e-07
3.24484e-07
0
0
0
1.4539e-07
5.46649e-07
9.40133e-07
1.29124e-06
0
3.77433e-07
1.19708e-06
5.46627e-07
1.71992e-07
3.53263e-08
2.83806e-10
2.48056e-10
9.24515e-09
1.04425e-08
1.42385e-10
0
0
0
0
0
0
0
0
0
0
0
0
0
0
0
0
0
0
0
0
1.50094e-07
1.67495e-07
1.31178e-07
6.94883e-08
0
0
0
0
6.84571e-08
5.53235e-07
7.89544e-07
3.95366e-07
0
0
0
0
0
0
8.32092e-08
1.12718e-06
2.04038e-06
2.86765e-06
3.86061e-06
4.80803e-06
6.2262e-06
7.88542e-06
5.8265e-06
0
0
0
0
0
8.14592e-07
1.01904e-06
5.41589e-07
0
0
0
0
0
0
0
0
0
0
0
1.99634e-07
6.14039e-07
8.18369e-07
9.79599e-07
1.15745e-06
1.25913e-06
1.54485e-06
1.12771e-06
0
0
1.09043e-05
1.07984e-06
0
0
0
0
2.99932e-06
4.91151e-06
4.8751e-06
4.6883e-06
5.10634e-06
5.88876e-06
6.13964e-06
5.71562e-06
5.31153e-06
4.36139e-06
3.18322e-06
2.21121e-06
1.49291e-06
1.01701e-06
7.38744e-07
6.00753e-07
5.69651e-07
6.15437e-07
6.79181e-07
7.70825e-07
8.7277e-07
1.05245e-06
6.43873e-07
3.40207e-07
2.96693e-07
3.26051e-07
2.9209e-07
3.4709e-07
1.36502e-06
1.94145e-06
1.81748e-06
1.88219e-06
2.01983e-06
1.76066e-06
5.07486e-07
0
0
2.00755e-05
4.29123e-06
1.27299e-06
8.33759e-07
1.18204e-06
1.44629e-06
1.64518e-06
1.7356e-06
1.77037e-06
1.76407e-06
1.72756e-06
1.66326e-06
1.57291e-06
1.46777e-06
1.36717e-06
1.29436e-06
1.27489e-06
1.31073e-06
1.37113e-06
1.43231e-06
1.36931e-06
1.10221e-06
4.68752e-07
0
0
0
0
0
0
0
0
0
0
0
2.158e-06
1.17493e-05
1.11529e-05
8.15693e-06
5.36556e-06
3.22434e-06
1.62385e-06
6.23181e-07
1.24465e-07
0
0
0
3.35149e-09
6.32727e-07
2.18213e-06
3.03016e-06
8.45961e-07
2.10813e-06
1.459e-06
4.37053e-07
7.33433e-08
0
0
0
0
0
5.64186e-09
0
0
0
0
0
0
0
0
0
0
0
0
0
0
0
0
0
0
0
0
0
2.15086e-08
3.44593e-08
0
0
0
0
0
0
2.35331e-07
6.90313e-07
8.95445e-07
6.64901e-07
0
0
0
0
0
0
0
0
4.84703e-07
1.58415e-06
3.81658e-06
6.25615e-06
3.74393e-06
0
0
0
0
0
0
2.35902e-06
2.07265e-06
1.04243e-06
0
0
0
0
0
0
0
0
0
0
0
7.88401e-07
1.62661e-06
1.93274e-06
2.13785e-06
2.37512e-06
2.30039e-06
1.96278e-06
9.90909e-07
0
0
6.48369e-06
1.15646e-06
0
0
0
0
8.73701e-07
5.60961e-06
5.66605e-06
5.36281e-06
5.51098e-06
6.16204e-06
6.49273e-06
6.04982e-06
5.48501e-06
4.62982e-06
3.45958e-06
2.46064e-06
1.71146e-06
1.18644e-06
8.28061e-07
6.01496e-07
5.05076e-07
5.42481e-07
6.25378e-07
6.90491e-07
7.23913e-07
8.444e-07
1.07307e-06
4.31581e-07
1.92634e-07
1.32572e-07
9.41758e-08
1.2421e-07
7.04296e-07
1.73649e-06
1.95262e-06
1.98503e-06
1.93666e-06
1.28125e-06
0
2.48883e-06
1.33758e-06
2.05263e-05
3.55379e-06
8.85662e-07
2.29469e-07
3.09286e-07
1.14118e-06
1.67724e-06
1.83023e-06
1.80986e-06
1.76581e-06
1.7075e-06
1.63316e-06
1.5425e-06
1.44692e-06
1.36516e-06
1.31798e-06
1.32676e-06
1.38497e-06
1.45827e-06
1.52675e-06
1.53179e-06
1.41932e-06
1.09584e-06
4.71317e-07
0
0
0
0
0
0
0
0
0
0
2.24553e-05
1.66355e-05
1.04807e-05
6.41423e-06
3.7753e-06
2.03579e-06
8.90807e-07
2.42787e-07
0
0
0
0
2.20196e-07
1.54167e-06
3.58822e-06
2.27589e-06
1.72899e-06
2.78936e-06
1.35361e-06
3.90422e-07
8.41048e-08
1.12911e-08
2.96639e-09
4.38885e-09
5.68977e-09
6.46821e-09
1.08053e-08
1.19509e-08
7.79662e-09
0
0
0
0
0
0
0
0
0
0
0
0
0
0
0
0
0
0
0
0
0
0
0
0
0
0
0
0
3.65597e-07
8.06203e-07
1.11126e-06
1.18349e-06
1.14021e-06
1.02417e-06
9.41697e-07
9.70227e-07
1.33997e-06
1.97633e-06
2.77376e-06
3.58918e-06
4.36885e-06
5.09457e-06
3.17366e-06
1.31886e-06
1.06343e-07
0
0
0
0
0
4.9217e-06
3.82855e-06
1.71911e-06
0
0
0
0
0
0
0
0
0
0
0
1.75253e-06
3.40832e-06
3.87381e-06
3.88748e-06
3.93092e-06
3.70718e-06
3.38684e-06
0
0
0
0
0
0
0
0
0
0
6.00586e-06
6.4029e-06
5.99139e-06
5.88675e-06
6.36136e-06
6.68763e-06
6.32548e-06
5.65459e-06
4.72913e-06
3.56706e-06
2.59127e-06
1.88086e-06
1.36081e-06
9.55057e-07
6.49324e-07
4.64004e-07
4.27814e-07
5.38045e-07
6.1696e-07
6.45596e-07
6.74394e-07
8.57767e-07
8.13989e-07
2.29356e-07
1.03248e-07
5.2538e-08
5.47971e-08
3.01367e-07
1.08556e-06
1.90939e-06
2.05005e-06
1.75172e-06
4.96251e-07
0
4.82696e-06
2.62819e-06
1.66278e-05
9.14705e-06
3.00092e-06
8.38022e-07
2.95035e-07
7.08544e-07
1.52866e-06
1.68346e-06
1.61336e-06
1.51755e-06
1.44447e-06
1.38006e-06
1.30362e-06
1.21464e-06
1.12949e-06
1.06952e-06
1.0542e-06
1.10019e-06
1.17497e-06
1.2528e-06
1.30328e-06
1.28199e-06
1.1685e-06
8.91732e-07
4.20566e-07
0
0
0
0
0
0
0
0
4.14748e-06
9.6627e-06
7.77109e-06
5.12797e-06
3.10501e-06
1.75154e-06
9.06225e-07
3.66199e-07
1.03258e-07
1.0608e-07
1.43882e-07
1.1578e-07
2.21489e-07
1.05426e-06
2.97605e-06
2.53243e-06
1.70335e-06
2.29828e-06
2.63271e-06
9.81351e-07
2.94517e-07
9.94876e-08
4.88251e-08
4.23096e-08
3.91081e-08
3.10354e-08
2.43457e-08
2.26873e-08
2.1396e-08
2.42285e-08
2.3438e-08
1.70624e-08
0
0
0
0
0
0
0
0
0
0
0
0
0
0
0
0
0
0
0
0
0
0
0
0
0
0
5.93756e-08
5.26248e-07
1.00006e-06
1.37412e-06
1.73868e-06
2.104e-06
2.55992e-06
3.097e-06
3.49087e-06
3.82237e-06
4.15546e-06
4.07965e-06
3.55549e-06
2.72074e-06
1.4928e-06
5.8805e-07
0
0
0
0
0
0
0
7.26076e-07
1.81174e-07
0
0
0
0
0
0
0
0
0
0
0
1.9344e-06
5.22578e-06
6.63635e-06
6.51356e-06
6.04572e-06
5.47722e-06
4.94823e-06
0
0
0
0
0
0
0
0
0
0
5.82406e-06
7.05523e-06
6.51035e-06
6.23584e-06
6.54576e-06
6.79186e-06
6.50093e-06
5.79287e-06
4.75103e-06
3.58961e-06
2.65167e-06
2.00187e-06
1.51365e-06
1.09126e-06
7.40545e-07
4.9264e-07
3.65861e-07
4.00512e-07
5.2877e-07
5.98517e-07
6.25864e-07
7.18316e-07
8.63299e-07
4.42133e-07
1.87251e-07
8.61988e-08
3.87396e-08
1.18514e-07
4.53042e-07
1.40492e-06
2.06058e-06
1.43876e-06
0
0
4.68295e-06
2.92342e-06
7.7547e-06
1.53203e-05
4.85971e-06
1.40174e-06
4.45172e-07
7.2561e-07
1.14738e-06
1.05751e-06
9.96406e-07
9.63981e-07
9.4728e-07
9.26317e-07
8.91666e-07
8.34235e-07
7.66619e-07
7.07365e-07
6.70861e-07
6.67119e-07
7.01726e-07
7.65466e-07
8.21816e-07
8.49784e-07
8.34693e-07
7.4886e-07
5.83346e-07
3.22316e-07
0
0
0
0
0
0
4.50721e-08
1.70549e-06
2.59952e-06
2.36099e-06
1.67005e-06
1.01221e-06
6.19201e-07
4.04964e-07
2.40271e-07
2.59229e-07
4.40223e-07
5.41464e-07
5.61079e-07
9.97956e-07
2.47804e-06
2.45734e-06
1.78853e-06
1.84083e-06
2.91118e-06
1.82996e-06
6.17487e-07
2.4103e-07
1.14351e-07
7.26164e-08
6.48482e-08
6.23924e-08
5.65303e-08
4.7565e-08
3.89703e-08
3.13164e-08
2.71438e-08
2.46876e-08
1.71325e-08
7.25783e-09
0
0
0
0
0
0
0
0
0
0
0
0
0
0
0
0
0
0
0
0
0
0
0
0
0
0
3.36525e-07
8.6012e-07
1.3543e-06
1.82465e-06
2.20492e-06
2.52834e-06
2.77816e-06
2.83494e-06
2.81316e-06
2.75131e-06
2.45755e-06
2.00023e-06
1.0338e-06
9.35167e-09
0
0
0
0
1.00366e-06
0
0
0
2.15714e-07
7.78176e-07
0
0
0
0
0
0
0
0
2.91359e-06
5.69326e-06
2.59576e-06
0
2.54059e-06
8.10022e-06
9.44132e-06
8.62025e-06
7.33525e-06
5.77051e-06
0
0
0
0
0
0
0
0
0
0
4.67047e-06
7.41917e-06
6.94819e-06
6.5273e-06
6.696e-06
6.87571e-06
6.58735e-06
5.79135e-06
4.69283e-06
3.59546e-06
2.6858e-06
2.05559e-06
1.5828e-06
1.1606e-06
8.03205e-07
5.44166e-07
3.79799e-07
3.12636e-07
3.99241e-07
5.20802e-07
5.97658e-07
6.72422e-07
7.65371e-07
6.32513e-07
3.54581e-07
1.75557e-07
5.68039e-08
3.59012e-08
1.13445e-07
5.5613e-07
1.78335e-06
9.46914e-07
0
0
5.1143e-06
3.06994e-06
3.24576e-06
1.00433e-05
5.76851e-06
1.90493e-07
0
0
2.06379e-07
1.98021e-07
2.61886e-07
3.49013e-07
4.15677e-07
4.45172e-07
4.27894e-07
3.78774e-07
3.24392e-07
2.78977e-07
2.45336e-07
2.24221e-07
2.21285e-07
2.40212e-07
2.74325e-07
3.12015e-07
3.37983e-07
3.44938e-07
3.26544e-07
2.8311e-07
2.26116e-07
1.6749e-07
1.34892e-07
1.45837e-07
2.3509e-07
3.91323e-07
5.49512e-07
6.55018e-07
6.20251e-07
4.86984e-07
3.20733e-07
2.54841e-07
3.43934e-07
3.96179e-07
4.4402e-07
6.62019e-07
9.03926e-07
9.99609e-07
1.26949e-06
2.45825e-06
2.57559e-06
1.97759e-06
1.87935e-06
2.57256e-06
2.58825e-06
9.55707e-07
3.81066e-07
1.89569e-07
1.12905e-07
8.33415e-08
7.32605e-08
6.7315e-08
6.25218e-08
5.75419e-08
4.61923e-08
3.13783e-08
2.0448e-08
1.6251e-08
1.32302e-08
3.56975e-09
0
0
0
0
0
0
0
0
0
0
0
0
0
0
0
0
0
0
0
0
0
0
0
0
0
0
1.81141e-07
7.9681e-07
1.40281e-06
1.98556e-06
2.52428e-06
2.81144e-06