/*--------------------------------*- C++ -*----------------------------------*\
  =========                 |
  \\      /  F ield         | OpenFOAM: The Open Source CFD Toolbox
   \\    /   O peration     | Website:  https://openfoam.org
    \\  /    A nd           | Version:  9
     \\/     M anipulation  |
\*---------------------------------------------------------------------------*/
FoamFile
{
    format      ascii;
    class       volScalarField;
    location    "0.055";
    object      s;
}
// * * * * * * * * * * * * * * * * * * * * * * * * * * * * * * * * * * * * * //

dimensions      [0 0 0 0 0 0 0];

internalField   nonuniform List<scalar> 
12225
(
1
1
1
1
1
1
1
1
1
1
1
1
1
1
1
1
1
0.999988
1
1
1
1
1
1
1
1
1
1
1
1
1
1
1
1
1
0.999999
1
1
1
1
1
1
1
1
1
1
1
1
1
1
1
1
1
1
1
1
1
1
1
1
1
1
1
1
1
1
1
1
1
1
1
1
1
1
1
1
1
1
1
1
1
1
1
1
1
1
1
1
1
1
1
1
1
1
1
1
1
1
1
1
1
1
1
1
1
1
1
1
1
1
1
1
1
1
1
1
1
1
1
1
1
1
1
1
1
1
1
1
1
1
1
1
1
1
1
1
1
1
1
1
1
1
1
1
1
1
1
1
1
1
1
1
1
1
1
1
1
1
1
1
1
1
1
1
1
1
1
1
1
1
1
1
1
1
1
1
1
1
1
1
1
1
1
1
1
1
1
1
1
1
1
1
1
1
1
1
1
1
1
1
1
1
1
1
1
1
1
1
1
1
1
1
1
1
1
1
1
1
1
1
1
1
1
1
1
1
1
1
1
1
1
1
1
1
1
1
1
1
1
1
1
1
1
1
1
1
1
1
1
1
1
1
1
1
1
1
1
1
1
1
1
1
1
1
1
1
1
1
1
1
1
1
1
1
1
1
1
1
1
1
1
1
1
1
1
1
1
1
1
1
1
1
1
1
1
1
1
1
1
1
1
1
1
1
1
1
1
1
1
1
1
1
1
1
1
1
1
1
1
1
1
1
1
1
1
1
1
1
1
1
1
1
1
1
1
1
1
1
1
1
1
1
1
1
1
1
1
1
1
1
1
1
1
1
1
1
1
1
1
1
1
1
1
1
1
1
1
1
1
1
1
1
1
1
1
1
1
1
1
1
1
1
1
1
1
1
1
1
1
1
1
1
1
1
1
1
1
1
1
1
1
1
1
1
1
1
1
1
1
1
1
1
1
1
1
1
1
1
1
1
1
1
1
1
1
1
1
1
1
1
1
1
1
1
1
1
1
1
1
1
1
1
1
1
1
1
1
1
1
1
1
1
1
1
1
1
1
1
1
1
1
1
1
1
1
1
1
1
1
1
1
1
1
1
1
1
1
1
1
1
1
1
1
1
1
1
1
1
1
1
1
1
1
1
1
1
1
1
1
1
1
1
1
1
1
1
1
1
1
1
1
1
1
1
1
1
1
1
1
1
1
1
1
1
1
1
1
1
1
1
1
1
1
1
1
1
1
1
1
1
0.65046
0.650185
0.651431
0.651671
0.651579
0.651272
0.650069
0.647286
0.639282
0.62699
0.623756
0.624471
0.626819
0.631674
0.639053
0.650285
0.660001
0.663267
0.661602
0.654339
0.638822
0.616507
0.589712
0.559841
0.528597
0.49817
0.473019
0.454505
0.439778
0.432077
0.430612
0.431749
0.438792
0.458074
0.497061
0.559742
0.634159
0.663223
0.670991
0.673957
0.675933
0.678653
0.682406
0.683878
0.684148
0.683941
0.682114
0.677499
0.670257
0.663191
0.658682
0.655499
0.65222
0.6482
0.644374
0.641804
0.638747
0.636209
0.633507
0.63094
0.62888
0.627911
0.628592
0.631611
0.639472
0.661279
0.701142
0.724801
0.732437
0.73715
0.741183
0.747756
0.763089
0.803198
0.838388
0.855089
0.859065
0.85861
0.85784
0.858107
0.859283
0.861091
0.863283
0.865796
0.868434
0.870987
0.873765
0.876281
0.877038
0.877135
0.877049
0.876663
0.875893
0.874779
0.873448
0.872014
0.870494
0.868871
0.867169
0.865411
0.863535
0.861398
0.858845
0.855851
0.853461
0.851277
0.849824
0.848485
0.847768
0.847384
0.847266
0.847344
0.847719
0.848462
0.849214
0.850427
0.851864
0.853897
0.856107
0.858797
0.861621
0.864477
0.866917
0.868952
0.870963
0.872782
0.874348
0.87566
0.876721
0.877612
0.878333
0.878933
0.879525
0.880103
0.880607
0.881233
0.882368
0.884189
0.887656
0.894107
0.901796
0.908083
0.912629
0.915775
0.91797
0.919598
0.92094
0.922181
0.923343
0.924378
0.925374
0.926532
0.927928
0.929401
0.930666
0.931486
0.931836
0.93189
0.931794
0.931172
0.928411
0.917147
0.895117
0.878707
0.867632
0.861016
0.858451
0.856944
0.854258
0.848532
0.833755
0.785574
0.625255
0.419337
0.278538
0.189655
0.142599
0.109597
0.0959914
0.0537404
0.651772
0.65057
0.647365
0.646501
0.647988
0.651471
0.651276
0.648174
0.636675
0.60258
0.579125
0.576892
0.580533
0.59509
0.621546
0.643114
0.656775
0.659924
0.654657
0.619842
0.528898
0.468875
0.447285
0.433887
0.417961
0.406863
0.39699
0.391088
0.389553
0.389772
0.394497
0.407342
0.430661
0.46675
0.516456
0.577452
0.628431
0.64815
0.658443
0.669476
0.680053
0.68753
0.692202
0.695827
0.699159
0.7022
0.704803
0.708161
0.710354
0.708972
0.698036
0.68426
0.664385
0.639193
0.622758
0.615322
0.610953
0.607483
0.604175
0.602026
0.601942
0.602053
0.601367
0.599137
0.599147
0.605808
0.650203
0.732601
0.757306
0.757091
0.752002
0.753174
0.766226
0.819068
0.852031
0.856033
0.855756
0.857536
0.859451
0.860751
0.862914
0.865337
0.868313
0.87176
0.87616
0.879729
0.880693
0.880691
0.878617
0.875339
0.872905
0.869993
0.865011
0.857894
0.849206
0.839012
0.826811
0.813494
0.80302
0.795246
0.788222
0.782926
0.780113
0.778887
0.778586
0.778623
0.778774
0.77899
0.77914
0.779359
0.779659
0.779833
0.78
0.780415
0.780662
0.780974
0.781294
0.781918
0.782736
0.784422
0.787129
0.791361
0.796962
0.803954
0.812103
0.821058
0.830105
0.838687
0.846534
0.853495
0.859472
0.864377
0.868271
0.871527
0.874124
0.875691
0.876016
0.874932
0.868628
0.859461
0.855377
0.85559
0.860308
0.877716
0.894095
0.904245
0.910535
0.914482
0.917047
0.918687
0.919743
0.920671
0.921804
0.923138
0.924406
0.925197
0.92548
0.925924
0.927107
0.931706
0.936341
0.93652
0.935072
0.930817
0.923069
0.917871
0.916483
0.916163
0.915213
0.91217
0.902567
0.894134
0.876762
0.856038
0.824858
0.776646
0.721952
0.685677
0.655824
0.579072
0.655219
0.654711
0.653752
0.652653
0.652209
0.651231
0.648144
0.639046
0.612533
0.568284
0.54946
0.549993
0.567405
0.601446
0.628074
0.644307
0.646439
0.607432
0.514646
0.455797
0.430161
0.422022
0.418332
0.415535
0.41361
0.412822
0.415464
0.421977
0.432695
0.44333
0.457217
0.47633
0.503286
0.539036
0.584246
0.634993
0.685748
0.737603
0.786309
0.818293
0.842916
0.856222
0.862809
0.86552
0.86597
0.863178
0.855165
0.842197
0.819256
0.789995
0.763739
0.751785
0.745572
0.73983
0.72532
0.696719
0.669599
0.649565
0.634221
0.617859
0.605953
0.605111
0.60939
0.607079
0.599975
0.602434
0.634115
0.738066
0.776785
0.773357
0.765187
0.773818
0.824212
0.850191
0.853154
0.85357
0.856877
0.85949
0.863557
0.866317
0.870245
0.875354
0.882613
0.886133
0.887253
0.887223
0.883149
0.877905
0.874467
0.865767
0.853214
0.837152
0.812902
0.787546
0.773357
0.762187
0.756417
0.754355
0.753788
0.753926
0.756267
0.760619
0.765046
0.770607
0.776533
0.781175
0.784646
0.787854
0.789515
0.790618
0.790988
0.790641
0.789758
0.78871
0.787306
0.785322
0.78285
0.779752
0.775967
0.772169
0.768811
0.765705
0.763347
0.76222
0.762296
0.763438
0.766041
0.770148
0.77556
0.782104
0.789732
0.798352
0.808011
0.818521
0.830542
0.845398
0.863218
0.88086
0.892242
0.895012
0.89173
0.869551
0.844384
0.836354
0.836617
0.844043
0.868601
0.88765
0.897453
0.902013
0.903486
0.90351
0.902645
0.902272
0.903308
0.908139
0.914743
0.920139
0.923961
0.926282
0.927507
0.928461
0.93017
0.934238
0.938963
0.943837
0.948183
0.952059
0.955096
0.956505
0.956567
0.955456
0.949491
0.933043
0.917064
0.901813
0.885125
0.861077
0.848235
0.817109
0.641257
0.637889
0.633895
0.630597
0.628014
0.622626
0.60956
0.572732
0.537284
0.529131
0.535482
0.552974
0.580806
0.605695
0.614818
0.587722
0.521509
0.46561
0.444728
0.436803
0.434631
0.438901
0.452732
0.474933
0.508841
0.555684
0.612926
0.65333
0.695109
0.725792
0.7575
0.789447
0.821247
0.858825
0.891649
0.928837
0.952663
0.963876
0.968904
0.972053
0.973219
0.973461
0.972051
0.966973
0.957774
0.942044
0.917008
0.88074
0.834578
0.784886
0.749796
0.740258
0.74335
0.74662
0.749102
0.749769
0.747547
0.740167
0.722347
0.686425
0.661622
0.65452
0.644364
0.616991
0.604689
0.614839
0.679984
0.78937
0.814026
0.804496
0.808778
0.833559
0.847049
0.850399
0.851069
0.854359
0.858598
0.863021
0.869293
0.876388
0.887227
0.894736
0.896823
0.897064
0.894978
0.887372
0.879718
0.869911
0.856919
0.833317
0.793453
0.766694
0.753991
0.747871
0.746015
0.746303
0.751211
0.759356
0.767196
0.78021
0.799055
0.814565
0.822296
0.8276
0.831831
0.833871
0.836941
0.839741
0.841681
0.844755
0.846226
0.847922
0.84862
0.848798
0.848369
0.847373
0.845654
0.843139
0.838943
0.831993
0.821792
0.808895
0.793876
0.779204
0.769196
0.763493
0.760919
0.760482
0.761414
0.763785
0.766707
0.770444
0.774969
0.779866
0.784279
0.788119
0.793241
0.803491
0.827753
0.866092
0.899767
0.911609
0.910037
0.89184
0.853271
0.833138
0.828516
0.830107
0.84088
0.855277
0.861774
0.86501
0.865746
0.865168
0.86447
0.8654
0.870514
0.883147
0.898498
0.913769
0.925336
0.931109
0.933251
0.934133
0.934807
0.936143
0.93976
0.948486
0.956891
0.962763
0.965886
0.966854
0.96671
0.964754
0.956567
0.937597
0.926139
0.907426
0.896762
0.875512
0.633889
0.611225
0.584317
0.565627
0.554796
0.54282
0.528967
0.518475
0.514986
0.51112
0.521301
0.542683
0.555519
0.549363
0.515756
0.482052
0.467228
0.459767
0.457588
0.473518
0.507223
0.565645
0.653995
0.728238
0.796237
0.847602
0.874929
0.905868
0.924358
0.939257
0.954898
0.963748
0.974937
0.980659
0.98584
0.988009
0.98881
0.988972
0.989023
0.989018
0.988847
0.98828
0.987177
0.984882
0.979739
0.967337
0.939623
0.895733
0.84034
0.776897
0.728033
0.705485
0.697771
0.713109
0.729958
0.743247
0.749629
0.751425
0.750449
0.745134
0.732678
0.703767
0.627997
0.589772
0.607121
0.740066
0.832615
0.839789
0.833865
0.831967
0.838687
0.844913
0.847324
0.8481
0.851376
0.855585
0.861354
0.868869
0.879474
0.894571
0.903958
0.906758
0.906968
0.904613
0.895932
0.884931
0.870742
0.849438
0.811956
0.768978
0.750263
0.742214
0.740019
0.740246
0.746742
0.754807
0.770704
0.801353
0.827433
0.836913
0.840068
0.840508
0.838347
0.832852
0.829018
0.826923
0.826169
0.82924
0.831878
0.839936
0.843797
0.849631
0.853081
0.855563
0.85716
0.85814
0.858589
0.85912
0.859378
0.859511
0.859314
0.857804
0.853666
0.844321
0.826842
0.805456
0.786681
0.775107
0.768894
0.76647
0.766329
0.767905
0.771414
0.775554
0.7806
0.785671
0.789325
0.791282
0.793131
0.797457
0.81119
0.861834
0.90786
0.919267
0.914777
0.884359
0.846512
0.828015
0.821787
0.821579
0.823016
0.828137
0.835315
0.842414
0.850198
0.857959
0.863658
0.867332
0.873453
0.887364
0.904867
0.920304
0.930857
0.935844
0.937442
0.93786
0.938248
0.939387
0.943872
0.95412
0.962154
0.966728
0.968367
0.968426
0.967164
0.960187
0.945092
0.928612
0.917793
0.900322
0.628219
0.581051
0.551176
0.535159
0.523414
0.513564
0.50724
0.495523
0.491574
0.492428
0.497785
0.502803
0.502814
0.496008
0.487216
0.483763
0.4861
0.508011
0.557608
0.656235
0.743048
0.822885
0.872918
0.911189
0.938947
0.956287
0.966646
0.975971
0.980273
0.98417
0.986632
0.987907
0.988806
0.98911
0.989189
0.988993
0.988719
0.988623
0.988617
0.988742
0.988849
0.988973
0.989028
0.988718
0.987941
0.985197
0.977236
0.956504
0.90949
0.830534
0.746162
0.700034
0.678295
0.666396
0.681867
0.712224
0.729413
0.73919
0.743458
0.741664
0.722869
0.637052
0.578647
0.616922
0.797663
0.849103
0.845283
0.841743
0.840502
0.840545
0.842849
0.844374
0.844906
0.848075
0.852289
0.858508
0.868267
0.882945
0.89971
0.911328
0.915614
0.916303
0.914773
0.907005
0.895056
0.878879
0.85192
0.806792
0.760097
0.741591
0.73502
0.7336
0.735329
0.744775
0.759697
0.79099
0.826203
0.837915
0.840343
0.837721
0.824177
0.797243
0.760989
0.729657
0.704685
0.692125
0.687885
0.700125
0.712247
0.745665
0.766894
0.791961
0.811383
0.826042
0.83658
0.844399
0.849591
0.853947
0.85691
0.859292
0.861173
0.862394
0.86299
0.862932
0.86167
0.85727
0.845607
0.826009
0.806303
0.791745
0.782593
0.777535
0.775737
0.775877
0.778425
0.784504
0.791415
0.797661
0.80046
0.800243
0.799727
0.801764
0.81981
0.881395
0.917199
0.921525
0.910748
0.865443
0.834393
0.821489
0.816325
0.8158
0.816674
0.820496
0.831815
0.847907
0.866189
0.883854
0.896127
0.902357
0.904496
0.906811
0.913533
0.927139
0.935995
0.939865
0.941124
0.941601
0.942361
0.944533
0.951769
0.960598
0.965873
0.967736
0.967748
0.966041
0.958078
0.941681
0.930839
0.915252
0.619896
0.566832
0.540816
0.524606
0.510978
0.500357
0.492299
0.49013
0.48999
0.491879
0.496306
0.500398
0.502772
0.504084
0.513495
0.542898
0.607269
0.695991
0.789968
0.850868
0.905985
0.934478
0.957189
0.969753
0.976881
0.980902
0.982871
0.983889
0.98425
0.984356
0.98413
0.98289
0.981969
0.980947
0.980282
0.979751
0.979528
0.979464
0.979772
0.980415
0.981481
0.983111
0.985472
0.987778
0.98894
0.989387
0.989138
0.986304
0.975957
0.944867
0.862069
0.746337
0.684854
0.651045
0.635421
0.630753
0.648555
0.660823
0.665173
0.639232
0.577607
0.554848
0.616871
0.820103
0.850806
0.849375
0.844209
0.841501
0.840662
0.840623
0.84133
0.841427
0.844362
0.848728
0.855692
0.867594
0.886374
0.903535
0.917712
0.924131
0.92551
0.924554
0.918785
0.908038
0.893201
0.869716
0.826208
0.764393
0.737632
0.728819
0.726967
0.72831
0.737727
0.757007
0.794856
0.829907
0.838373
0.838145
0.825576
0.789115
0.714734
0.609386
0.528782
0.490849
0.472158
0.46442
0.462907
0.477829
0.496535
0.539534
0.597619
0.65763
0.709822
0.751795
0.783381
0.80654
0.823699
0.836961
0.847164
0.854032
0.858552
0.861692
0.863416
0.864571
0.865391
0.865595
0.865088
0.86252
0.854733
0.840953
0.826219
0.812719
0.800963
0.792313
0.787551
0.786366
0.787471
0.794247
0.804384
0.810317
0.810864
0.807576
0.806903
0.814413
0.85933
0.911229
0.925584
0.921555
0.891759
0.845673
0.824791
0.817561
0.816488
0.81723
0.82086
0.829204
0.843709
0.865534
0.889949
0.909797
0.921877
0.926981
0.928547
0.930372
0.935541
0.941622
0.944825
0.945889
0.946337
0.947213
0.949821
0.957672
0.964523
0.967504
0.968001
0.967356
0.963231
0.948382
0.936958
0.924313
0.618543
0.565745
0.538589
0.520336
0.505756
0.497478
0.494164
0.493267
0.494551
0.499578
0.507921
0.520047
0.53895
0.573789
0.644053
0.724059
0.80493
0.864146
0.909891
0.942982
0.961247
0.972292
0.97787
0.980387
0.981361
0.981679
0.981723
0.980384
0.979276
0.977672
0.976629
0.975972
0.975645
0.975481
0.975431
0.975544
0.975668
0.975851
0.975959
0.976061
0.976116
0.976153
0.976777
0.978399
0.982517
0.987045
0.989841
0.990754
0.990651
0.984971
0.964693
0.910681
0.786103
0.685818
0.630622
0.598354
0.571978
0.560102
0.553922
0.550878
0.561787
0.650461
0.806347
0.849674
0.851373
0.846108
0.8415
0.839506
0.838158
0.837672
0.837695
0.840029
0.844672
0.852015
0.867725
0.88804
0.905533
0.920328
0.930079
0.933949
0.934194
0.930681
0.921663
0.908377
0.889
0.853695
0.793338
0.742446
0.725503
0.721249
0.721162
0.726361
0.743614
0.778474
0.823366
0.837816
0.838648
0.825854
0.776289
0.656034
0.501467
0.442526
0.41888
0.408246
0.403453
0.401956
0.40269
0.410898
0.4229
0.444413
0.483041
0.547052
0.613521
0.67653
0.730742
0.773344
0.806133
0.829406
0.844051
0.852978
0.858272
0.861957
0.864538
0.866073
0.867295
0.868573
0.869379
0.869438
0.868917
0.866129
0.858458
0.850246
0.841789
0.831174
0.818778
0.807295
0.799929
0.797766
0.799025
0.808092
0.817619
0.819324
0.815991
0.813962
0.818508
0.852506
0.908991
0.931195
0.930625
0.915638
0.867398
0.836739
0.824808
0.8228
0.823957
0.828651
0.837806
0.850764
0.872231
0.899302
0.922223
0.935702
0.941216
0.942893
0.943895
0.94622
0.949762
0.95196
0.952865
0.953567
0.955109
0.959906
0.965948
0.96877
0.969224
0.968605
0.964797
0.949664
0.936
0.925511
0.620146
0.573522
0.539816
0.519447
0.510339
0.506034
0.504962
0.508683
0.51773
0.535231
0.562982
0.612161
0.676526
0.748813
0.807162
0.864348
0.906598
0.941182
0.959132
0.971436
0.976911
0.979396
0.980231
0.98041
0.980129
0.978654
0.977294
0.976132
0.975229
0.974455
0.973763
0.973423
0.973267
0.973229
0.97345
0.973798
0.974567
0.975183
0.975577
0.975785
0.975837
0.975483
0.975075
0.974776
0.97453
0.97638
0.982937
0.989463
0.992242
0.992997
0.991167
0.980648
0.94701
0.852724
0.720252
0.628654
0.574274
0.554756
0.552189
0.58464
0.683672
0.805879
0.845186
0.851934
0.846277
0.838119
0.835176
0.833424
0.832618
0.83267
0.834792
0.839574
0.846562
0.862373
0.884857
0.904854
0.919954
0.932387
0.939044
0.94152
0.940537
0.935628
0.925161
0.909343
0.883743
0.839252
0.771607
0.729049
0.715778
0.712762
0.713547
0.723867
0.7484
0.796826
0.832185
0.839427
0.834185
0.795681
0.689307
0.526971
0.452533
0.428033
0.418794
0.406465
0.400681
0.398066
0.397758
0.402865
0.412217
0.427058
0.454003
0.51017
0.578402
0.645853
0.707669
0.758925
0.79832
0.826377
0.8433
0.853459
0.860464
0.865744
0.870307
0.873452
0.874804
0.87539
0.876323
0.876534
0.876243
0.875504
0.873587
0.866942
0.858928
0.85394
0.848808
0.83976
0.827086
0.815553
0.809685
0.809088
0.813417
0.823924
0.825989
0.822737
0.820634
0.82465
0.854968
0.911687
0.938792
0.941537
0.934742
0.906382
0.864628
0.847367
0.8445
0.846269
0.852718
0.869223
0.900214
0.929476
0.949502
0.959027
0.961514
0.961435
0.959747
0.958419
0.958336
0.958661
0.959282
0.959984
0.961592
0.966229
0.970895
0.972775
0.972867
0.971685
0.965698
0.947298
0.932709
0.923134
0.625754
0.585651
0.547907
0.533648
0.529152
0.529039
0.539512
0.560272
0.596672
0.647731
0.703462
0.759921
0.813954
0.862018
0.898222
0.931898
0.953822
0.968149
0.974882
0.978181
0.979352
0.979636
0.979602
0.978382
0.976591
0.975337
0.973692
0.972151
0.970411
0.968947
0.967354
0.966259
0.965628
0.965423
0.966212
0.96737
0.969799
0.972043
0.974218
0.9757
0.976342
0.976561
0.976405
0.975096
0.973601
0.973043
0.973141
0.976857
0.987124
0.99298
0.994866
0.995282
0.991037
0.974301
0.926434
0.805718
0.671559
0.603662
0.580319
0.604852
0.740654
0.834287
0.850947
0.851151
0.839362
0.832725
0.829982
0.82912
0.828682
0.829688
0.83322
0.840373
0.853808
0.875954
0.896421
0.916026
0.930362
0.94085
0.945959
0.946869
0.945366
0.940206
0.929312
0.91198
0.884141
0.830517
0.763921
0.721526
0.708321
0.705523
0.708249
0.717973
0.744596
0.7944
0.833579
0.840348
0.832003
0.784324
0.671948
0.530975
0.482812
0.481765
0.49115
0.473409
0.448781
0.42742
0.416067
0.412012
0.417254
0.427695
0.449685
0.500489
0.568597
0.636506
0.700286
0.754368
0.796254
0.826209
0.846407
0.858522
0.866214
0.872806
0.879739
0.886349
0.891167
0.892801
0.89293
0.893829
0.893555
0.892662
0.891253
0.889733
0.886937
0.880149
0.872158
0.862972
0.850576
0.836043
0.823879
0.817884
0.817208
0.820734
0.830366
0.83186
0.828203
0.826626
0.831154
0.862694
0.918727
0.947214
0.954735
0.951993
0.939643
0.914705
0.907242
0.90812
0.913215
0.928372
0.950383
0.967221
0.977271
0.981261
0.981813
0.981298
0.978221
0.972492
0.96934
0.967987
0.9675
0.96747
0.967912
0.970505
0.975124
0.976984
0.976962
0.974898
0.964678
0.944205
0.930578
0.922238
0.637922
0.612298
0.580748
0.570217
0.569509
0.593133
0.629503
0.668304
0.715989
0.766215
0.814263
0.854678
0.889972
0.921509
0.943844
0.961684
0.971512
0.976461
0.978521
0.979204
0.979301
0.978909
0.977449
0.975078
0.972863
0.97021
0.966595
0.96251
0.957889
0.953882
0.950316
0.94809
0.947053
0.9468
0.948631
0.950991
0.955144
0.960132
0.965892
0.971517
0.975038
0.976677
0.977243
0.97737
0.976148
0.973139
0.971502
0.970865
0.973325
0.984148
0.993095
0.996352
0.997205
0.996276
0.989127
0.963845
0.89054
0.737032
0.638883
0.604859
0.668196
0.820656
0.853454
0.847413
0.831956
0.827678
0.826516
0.824349
0.824257
0.826276
0.830632
0.843498
0.873526
0.897322
0.910575
0.924322
0.936777
0.946227
0.950763
0.950949
0.949179
0.944096
0.934019
0.916935
0.88663
0.830896
0.766714
0.722942
0.700347
0.698963
0.695933
0.706506
0.733756
0.782615
0.830708
0.841652
0.836277
0.797616
0.700376
0.577437
0.554251
0.596139
0.650896
0.674312
0.629321
0.553917
0.489394
0.456357
0.450225
0.453608
0.466249
0.506558
0.573358
0.639074
0.702343
0.757693
0.802462
0.835742
0.856409
0.867396
0.874146
0.88164
0.891347
0.901426
0.910672
0.917243
0.91969
0.922257
0.923329
0.922822
0.921383
0.918385
0.915428
0.913122
0.910985
0.907293
0.898944
0.875511
0.847805
0.8291
0.821516
0.821181
0.826958
0.836472
0.83716
0.832898
0.832202
0.838111
0.873581
0.928978
0.955764
0.967507
0.967553
0.962722
0.959482
0.960071
0.962673
0.969852
0.97977
0.986915
0.990852
0.992285
0.992416
0.992058
0.990263
0.984686
0.979638
0.976525
0.974762
0.974119
0.974166
0.975213
0.97872
0.980453
0.980337
0.977549
0.964134
0.943711
0.931894
0.925345
0.64861
0.643441
0.620248
0.614792
0.636898
0.672211
0.707452
0.753625
0.800233
0.842883
0.878995
0.909619
0.931024
0.950743
0.964911
0.973115
0.977054
0.978701
0.979162
0.979127
0.978592
0.976848
0.973708
0.969536
0.964618
0.958388
0.951852
0.946149
0.941059
0.937241
0.934265
0.93245
0.93161
0.93139
0.932654
0.934646
0.938195
0.94333
0.950399
0.959161
0.968482
0.974309
0.976947
0.977726
0.977837
0.976678
0.972417
0.969961
0.969125
0.971711
0.982626
0.992881
0.997074
0.998313
0.998493
0.99571
0.982114
0.933835
0.800321
0.692284
0.644441
0.740555
0.84386
0.846548
0.833748
0.824304
0.819365
0.818397
0.818341
0.819425
0.824367
0.838436
0.870933
0.901467
0.92163
0.93379
0.942864
0.950411
0.954119
0.954223
0.952497
0.947435
0.939446
0.924447
0.892204
0.835762
0.773447
0.728715
0.701362
0.68349
0.687284
0.689692
0.7081
0.756469
0.817477
0.840216
0.84434
0.828281
0.770374
0.676548
0.643926
0.683852
0.772617
0.806201
0.802622
0.754791
0.629372
0.533995
0.498173
0.497629
0.509493
0.553976
0.618874
0.676696
0.733583
0.786078
0.827921
0.854478
0.867816
0.87687
0.885247
0.895059
0.907678
0.921311
0.933358
0.942341
0.948258
0.952695
0.958023
0.961888
0.962414
0.961911
0.960024
0.954816
0.949623
0.946053
0.942206
0.934229
0.910354
0.864851
0.836059
0.825824
0.825813
0.83383
0.841949
0.841687
0.837101
0.837516
0.846175
0.887911
0.940928
0.964522
0.976579
0.980546
0.981857
0.98308
0.985454
0.989268
0.992971
0.995451
0.996683
0.997068
0.997074
0.996852
0.995943
0.992782
0.987816
0.983908
0.981149
0.979708
0.979436
0.979833
0.981998
0.983399
0.983189
0.979947
0.964947
0.945374
0.935934
0.93068
0.654762
0.663435
0.661682
0.659717
0.678233
0.730971
0.770116
0.812749
0.85461
0.889872
0.91671
0.938959
0.953353
0.965039
0.973377
0.977184
0.978765
0.979212
0.979155
0.97853
0.97639
0.971466
0.965526
0.959962
0.953333
0.946779
0.940715
0.935641
0.931465
0.928346
0.926524
0.925512
0.925082
0.924992
0.925806
0.92725
0.92987
0.934366
0.940966
0.948504
0.958463
0.968369
0.974834
0.977483
0.978023
0.977722
0.975871
0.97051
0.96817
0.968026
0.971673
0.983969
0.993016
0.997424
0.998966
0.99934
0.998485
0.991602
0.959225
0.847902
0.7394
0.715911
0.784025
0.836481
0.837216
0.828089
0.81973
0.81404
0.812898
0.813445
0.815653
0.82455
0.854307
0.893481
0.919363
0.935357
0.945425
0.952565
0.956354
0.956636
0.95555
0.951273
0.944445
0.932073
0.903209
0.847563
0.786664
0.739517
0.707185
0.683247
0.668796
0.672859
0.682288
0.709166
0.781456
0.828694
0.84348
0.842447
0.828372
0.782549
0.753215
0.766101
0.813778
0.83859
0.836719
0.807072
0.687095
0.567912
0.526578
0.524451
0.54019
0.600652
0.665597
0.722205
0.776487
0.821401
0.852845
0.870246
0.878448
0.887966
0.901257
0.916742
0.932594
0.947656
0.9611
0.970476
0.976431
0.979624
0.981378
0.983083
0.984679
0.985206
0.985126
0.984635
0.983345
0.979771
0.970183
0.962317
0.949821
0.916277
0.867655
0.838018
0.829323
0.830629
0.841463
0.847096
0.845571
0.841788
0.84361
0.856851
0.906708
0.952363
0.973139
0.98342
0.989059
0.992029
0.994202
0.996133
0.997606
0.998472
0.998843
0.998931
0.998912
0.99876
0.998282
0.997005
0.993654
0.989723
0.986445
0.984366
0.983687
0.983795
0.985
0.985982
0.985715
0.982387
0.96744
0.949791
0.942377
0.93786
0.661122
0.686397
0.693298
0.690381
0.724962
0.769396
0.806483
0.847434
0.886132
0.913829
0.936861
0.953834
0.964268
0.971798
0.976631
0.978619
0.979272
0.979392
0.978929
0.976891
0.972307
0.966321
0.960125
0.953756
0.946656
0.940242
0.934736
0.930111
0.926643
0.924558
0.923356
0.922746
0.922517
0.92268
0.923168
0.924118
0.925659
0.928391
0.9335
0.941831
0.95311
0.964449
0.972698
0.97675
0.977979
0.977882
0.976747
0.972328
0.967961
0.966688
0.967819
0.975866
0.987431
0.994311
0.997837
0.999302
0.999681
0.999493
0.996384
0.974338
0.874214
0.76183
0.752164
0.800906
0.831433
0.832347
0.826346
0.816252
0.811157
0.808244
0.808797
0.811238
0.82134
0.858387
0.902997
0.929556
0.943683
0.95203
0.95656
0.957997
0.957638
0.955341
0.949794
0.939168
0.916161
0.864321
0.806269
0.759334
0.721031
0.688779
0.66871
0.652512
0.655656
0.666802
0.701309
0.785289
0.82892
0.841324
0.843329
0.837058
0.829783
0.834081
0.846841
0.848406
0.842481
0.810514
0.694959
0.574321
0.539923
0.541812
0.569673
0.63626
0.688581
0.742976
0.797587
0.839887
0.867533
0.881139
0.890323
0.904007
0.922442
0.943245
0.962727
0.976181
0.98332
0.98747
0.989921
0.991255
0.992001
0.99261
0.993133
0.993323
0.9933
0.993117
0.992554
0.990969
0.984139
0.967234
0.95618
0.937355
0.89605
0.855963
0.835141
0.831535
0.836336
0.849349
0.851886
0.849192
0.847511
0.851368
0.87313
0.926925
0.962767
0.980419
0.989016
0.99392
0.996663
0.998194
0.999029
0.999431
0.999577
0.999602
0.999583
0.999486
0.999241
0.99869
0.997313
0.994027
0.990603
0.988146
0.987097
0.987029
0.987617
0.988276
0.988039
0.985236
0.972363
0.956887
0.950897
0.94713
0.662448
0.687884
0.732145
0.721718
0.73688
0.795922
0.836637
0.866395
0.904068
0.92968
0.947733
0.962259
0.969994
0.975313
0.978149
0.979333
0.979625
0.979481
0.978322
0.974946
0.969347
0.962587
0.955867
0.949242
0.942861
0.937194
0.932523
0.928852
0.925876
0.923966
0.922746
0.922096
0.921996
0.922168
0.922585
0.923401
0.924717
0.926965
0.930963
0.938127
0.949696
0.962629
0.971845
0.976473
0.977833
0.977808
0.976855
0.972789
0.967545
0.965733
0.965995
0.971343
0.984236
0.992612
0.996845
0.998739
0.999565
0.999834
0.999787
0.998435
0.986884
0.914816
0.790993
0.766128
0.791882
0.823524
0.827097
0.824967
0.816787
0.809089
0.801712
0.800331
0.801768
0.809832
0.840534
0.89808
0.930783
0.94731
0.955157
0.957906
0.958385
0.95771
0.954647
0.946719
0.928371
0.884511
0.829285
0.780072
0.752772
0.707101
0.675623
0.654108
0.636852
0.637167
0.645913
0.679588
0.76686
0.816537
0.836665
0.841301
0.8464
0.852482
0.852077
0.846555
0.823727
0.751892
0.61673
0.560636
0.55296
0.568307
0.627099
0.686397
0.730548
0.781769
0.831708
0.867557
0.885084
0.892685
0.903654
0.923754
0.94758
0.970973
0.982825
0.988411
0.991215
0.992873
0.993994
0.994811
0.995525
0.996234
0.996699
0.996812
0.996796
0.996691
0.996362
0.995419
0.992074
0.975097
0.949473
0.934907
0.910332
0.873956
0.844895
0.833653
0.834064
0.845683
0.856235
0.856708
0.85381
0.854265
0.862668
0.898459
0.943851
0.971861
0.986402
0.993313
0.996767
0.998524
0.999351
0.999695
0.999812
0.999834
0.999826
0.999783
0.999669
0.999419
0.998816
0.997041
0.993747
0.991136
0.98983
0.989594
0.989849
0.99024
0.99004
0.987811
0.977414
0.964796
0.960078
0.957471
0.666952
0.679608
0.734041
0.764816
0.759869
0.796005
0.844831
0.876826
0.908399
0.934533
0.951663
0.96463
0.971745
0.976177
0.978437
0.979474
0.97979
0.979652
0.978539
0.975405
0.969911
0.963181
0.956399
0.949734
0.943496
0.937947
0.933328
0.929781
0.92687
0.924875
0.923612
0.922802
0.92265
0.922756
0.923059
0.923651
0.924865
0.927115
0.930669
0.937343
0.948821
0.96228
0.972318
0.97686
0.977806
0.977556
0.975982
0.971264
0.965336
0.963076
0.963447
0.968728
0.982373
0.99171
0.99649
0.998588
0.999453
0.999801
0.999927
0.999914
0.999343
0.993691
0.95372
0.831723
0.778684
0.780912
0.80669
0.819546
0.819203
0.815255
0.804687
0.794286
0.789301
0.789657
0.794604
0.813102
0.867424
0.919104
0.944356
0.954709
0.957845
0.958084
0.957293
0.953313
0.941171
0.906335
0.858041
0.804708
0.772701
0.749336
0.70258
0.66732
0.642013
0.625912
0.618173
0.622956
0.643234
0.700053
0.768302
0.801319
0.824594
0.8246
0.816708
0.788871
0.719047
0.612368
0.56972
0.55766
0.570062
0.62067
0.696628
0.728969
0.771157
0.827033
0.867771
0.887437
0.894662
0.902929
0.921216
0.949656
0.975029
0.985887
0.990542
0.992456
0.993414
0.994135
0.994842
0.995541
0.996288
0.997075
0.997742
0.998117
0.998215
0.998204
0.998084
0.997619
0.995984
0.989112
0.957589
0.92815
0.907806
0.880349
0.85161
0.835364
0.832822
0.839322
0.857349
0.862906
0.862064
0.86046
0.863759
0.881421
0.926517
0.960385
0.98056
0.991182
0.996166
0.998375
0.999333
0.999735
0.999879
0.999916
0.999919
0.999907
0.999862
0.999747
0.999453
0.99858
0.996038
0.993435
0.992012
0.991636
0.991717
0.991917
0.99176
0.990084
0.982139
0.972689
0.969319
0.9677
0.680775
0.679221
0.712849
0.765649
0.786566
0.801262
0.841476
0.875151
0.905783
0.93258
0.950449
0.963711
0.971247
0.97584
0.978231
0.979376
0.979783
0.979763
0.979154
0.977016
0.972022
0.965569
0.95884
0.952109
0.945927
0.940471
0.935786
0.932226
0.929464
0.927285
0.926026
0.924975
0.924666
0.924782
0.925191
0.926089
0.927926
0.931702
0.93578
0.942996
0.955506
0.967751
0.975225
0.977682
0.977822
0.976975
0.973352
0.965173
0.96032
0.958741
0.959891
0.96762
0.982003
0.991532
0.996492
0.998661
0.999493
0.9998
0.999929
0.999976
0.999973
0.999796
0.997647
0.97962
0.883858
0.797706
0.784133
0.789242
0.807298
0.810058
0.807221
0.797431
0.786784
0.780819
0.780397
0.782605
0.792942
0.823283
0.893207
0.933625
0.950907
0.956571
0.957051
0.956092
0.950779
0.931692
0.886039
0.838355
0.796496
0.771807
0.751347
0.710377
0.667333
0.635712
0.620824
0.60759
0.605547
0.610043
0.622135
0.65234
0.680701
0.676879
0.660473
0.621252
0.586047
0.565025
0.564027
0.579486
0.630561
0.710182
0.74312
0.763567
0.808129
0.857431
0.885411
0.896577
0.904083
0.919028
0.95015
0.976334
0.987388
0.991193
0.99264
0.993222
0.993589
0.994031
0.994578
0.995308
0.996177
0.997056
0.997816
0.998355
0.998634
0.998705
0.998686
0.998498
0.99759
0.993578
0.971299
0.924589
0.901681
0.87862
0.852799
0.835489
0.830723
0.833782
0.853134
0.867487
0.869559
0.868776
0.869251
0.878153
0.912335
0.950861
0.974843
0.988105
0.994797
0.997881
0.999192
0.999701
0.999886
0.999944
0.999957
0.999955
0.999941
0.999891
0.999739
0.999249
0.997523
0.99512
0.993712
0.993254
0.993252
0.993334
0.99322
0.992023
0.986326
0.979857
0.977879
0.976845
0.762677
0.695016
0.698657
0.745669
0.785544
0.805259
0.834339
0.869514
0.89938
0.927055
0.946655
0.960948
0.969574
0.974775
0.977604
0.979051
0.979682
0.979747
0.979575
0.978714
0.976241
0.970643
0.964469
0.957517
0.950734
0.945087
0.940153
0.936297
0.933333
0.930882
0.929597
0.928315
0.92806
0.928267
0.928943
0.930318
0.933302
0.937645
0.942279
0.950928
0.963425
0.973342
0.977357
0.978066
0.977704
0.975286
0.966793
0.957279
0.95359
0.954176
0.958055
0.970596
0.985355
0.993799
0.997611
0.999131
0.999696
0.999895
0.999958
0.999985
0.999994
0.999991
0.999915
0.998931
0.989776
0.925639
0.823186
0.78993
0.786536
0.791159
0.797644
0.79554
0.788048
0.779938
0.775528
0.77479
0.775918
0.781754
0.800116
0.854125
0.91626
0.944271
0.953974
0.955266
0.953958
0.946645
0.921905
0.870007
0.828263
0.793612
0.77537
0.754768
0.730577
0.679322
0.643641
0.617454
0.607209
0.598832
0.59131
0.588381
0.584664
0.577653
0.57432
0.567726
0.565988
0.57171
0.595675
0.659244
0.723523
0.750497
0.763678
0.794194
0.856674
0.890499
0.901078
0.907256