/*--------------------------------*- C++ -*----------------------------------*\
  =========                 |
  \\      /  F ield         | OpenFOAM: The Open Source CFD Toolbox
   \\    /   O peration     | Website:  https://openfoam.org
    \\  /    A nd           | Version:  9
     \\/     M anipulation  |
\*---------------------------------------------------------------------------*/
FoamFile
{
    format      ascii;
    class       volScalarField;
    location    "0.055";
    object      s_0;
}
// * * * * * * * * * * * * * * * * * * * * * * * * * * * * * * * * * * * * * //

dimensions      [0 0 0 0 0 0 0];

internalField   nonuniform List<scalar> 
12225
(
1
1
1
1
1
1
1
1
1
1
1
1
1
1
1
1
1
0.999988
1
1
1
1
1
1
1
1
1
1
1
1
1
1
1
1
1
0.999999
1
1
1
1
1
1
1
1
1
1
1
1
1
1
1
1
1
1
1
1
1
1
1
1
1
1
1
1
1
1
1
1
1
1
1
1
1
1
1
1
1
1
1
1
1
1
1
1
1
1
1
1
1
1
1
1
1
1
1
1
1
1
1
1
1
1
1
1
1
1
1
1
1
1
1
1
1
1
1
1
1
1
1
1
1
1
1
1
1
1
1
1
1
1
1
1
1
1
1
1
1
1
1
1
1
1
1
1
1
1
1
1
1
1
1
1
1
1
1
1
1
1
1
1
1
1
1
1
1
1
1
1
1
1
1
1
1
1
1
1
1
1
1
1
1
1
1
1
1
1
1
1
1
1
1
1
1
1
1
1
1
1
1
1
1
1
1
1
1
1
1
1
1
1
1
1
1
1
1
1
1
1
1
1
1
1
1
1
1
1
1
1
1
1
1
1
1
1
1
1
1
1
1
1
1
1
1
1
1
1
1
1
1
1
1
1
1
1
1
1
1
1
1
1
1
1
1
1
1
1
1
1
1
1
1
1
1
1
1
1
1
1
1
1
1
1
1
1
1
1
1
1
1
1
1
1
1
1
1
1
1
1
1
1
1
1
1
1
1
1
1
1
1
1
1
1
1
1
1
1
1
1
1
1
1
1
1
1
1
1
1
1
1
1
1
1
1
1
1
1
1
1
1
1
1
1
1
1
1
1
1
1
1
1
1
1
1
1
1
1
1
1
1
1
1
1
1
1
1
1
1
1
1
1
1
1
1
1
1
1
1
1
1
1
1
1
1
1
1
1
1
1
1
1
1
1
1
1
1
1
1
1
1
1
1
1
1
1
1
1
1
1
1
1
1
1
1
1
1
1
1
1
1
1
1
1
1
1
1
1
1
1
1
1
1
1
1
1
1
1
1
1
1
1
1
1
1
1
1
1
1
1
1
1
1
1
1
1
1
1
1
1
1
1
1
1
1
1
1
1
1
1
1
1
1
1
1
1
1
1
1
1
1
1
1
1
1
1
1
1
1
1
1
1
1
1
1
1
1
1
1
1
1
1
1
1
1
1
1
1
1
1
1
1
1
1
1
1
1
1
1
1
1
1
1
1
1
1
1
1
1
1
1
1
1
1
1
1
1
1
1
1
1
1
0.650461
0.65018
0.65143
0.651674
0.651586
0.651272
0.650054
0.647237
0.639111
0.6269
0.623793
0.624535
0.62693
0.631822
0.639226
0.650422
0.660056
0.663276
0.661604
0.65435
0.638851
0.616564
0.58982
0.560027
0.528879
0.498525
0.473393
0.454874
0.440152
0.432182
0.430593
0.43157
0.438138
0.456457
0.49394
0.554804
0.630178
0.662251
0.670673
0.673791
0.675768
0.678416
0.682213
0.683822
0.684115
0.68393
0.68216
0.677576
0.670292
0.663154
0.658628
0.655471
0.652228
0.648217
0.644391
0.641827
0.638778
0.636246
0.633548
0.630975
0.628952
0.62801
0.628748
0.63187
0.639963
0.662419
0.702276
0.725289
0.732645
0.737318
0.741359
0.74801
0.763595
0.804025
0.83891
0.855311
0.85911
0.858598
0.857834
0.85811
0.859285
0.861084
0.863265
0.865765
0.868389
0.870924
0.873672
0.876227
0.877029
0.877137
0.877063
0.876701
0.875961
0.874875
0.873567
0.872149
0.870646
0.86904
0.867352
0.865608
0.863756
0.861657
0.85915
0.856192
0.85382
0.851645
0.850197
0.848864
0.848143
0.847764
0.847648
0.847735
0.848108
0.84886
0.84962
0.850842
0.852289
0.854316
0.856511
0.859175
0.861959
0.864755
0.867125
0.869136
0.871121
0.872911
0.874451
0.875739
0.876782
0.877658
0.878369
0.878962
0.879551
0.880126
0.88063
0.881266
0.882423
0.88429
0.887844
0.894371
0.902047
0.908276
0.912765
0.915866
0.918032
0.919644
0.920977
0.922213
0.923371
0.924402
0.925398
0.926558
0.927955
0.929425
0.930683
0.931496
0.93184
0.931891
0.931792
0.931156
0.928342
0.916891
0.894882
0.878555
0.867541
0.860968
0.858421
0.856908
0.854204
0.848434
0.833515
0.784779
0.623245
0.417757
0.277518
0.189051
0.142235
0.109366
0.0958005
0.0536018
0.651768
0.650542
0.647314
0.646471
0.648024
0.651508
0.65128
0.648077
0.636275
0.601833
0.578889
0.576872
0.580618
0.595484
0.621913
0.643356
0.65685
0.659917
0.654567
0.619589
0.5288
0.468763
0.44712
0.433772
0.417919
0.406832
0.397001
0.390895
0.389261
0.389379
0.393726
0.40597
0.428484
0.46366
0.512471
0.572846
0.625969
0.646935
0.657489
0.668307
0.678831
0.686396
0.691116
0.694696
0.697943
0.700918
0.703343
0.706466
0.708716
0.707581
0.696965
0.683271
0.663433
0.638525
0.622439
0.615122
0.610798
0.607351
0.604081
0.602006
0.601935
0.602042
0.601308
0.599066
0.599141
0.606238
0.652902
0.734227
0.757653
0.757151
0.751996
0.753322
0.766864
0.820347
0.852327
0.85605
0.855736
0.857507
0.859445
0.860745
0.862898
0.865306
0.868266
0.871689
0.876048
0.879732
0.880754
0.880788
0.878804
0.875507
0.873024
0.870178
0.865319
0.858298
0.849679
0.839584
0.82754
0.81423
0.803569
0.795712
0.788663
0.783261
0.78033
0.778977
0.778592
0.778602
0.778732
0.778933
0.779071
0.779275
0.779573
0.779752
0.779917
0.780339
0.780601
0.780927
0.781264
0.781953
0.782862
0.784653
0.787477
0.791843
0.797574
0.804624
0.812809
0.821769
0.830758
0.839269
0.847037
0.853919
0.859816
0.864646
0.868484
0.871705
0.874257
0.875763
0.876038
0.874827
0.868205
0.859166
0.855285
0.855586
0.860631
0.878433
0.894513
0.904487
0.910672
0.914558
0.917087
0.918702
0.919746
0.920674
0.921811
0.923147
0.924412
0.925197
0.925481
0.925935
0.927145
0.931818
0.936393
0.936543
0.935069
0.930747
0.922982
0.917816
0.916451
0.916123
0.915148
0.912035
0.902329
0.893889
0.876477
0.855739
0.824363
0.775914
0.721409
0.685343
0.655524
0.578768
0.655281
0.654796
0.65384
0.652743
0.652295
0.651304
0.64815
0.638857
0.611654
0.567485
0.54924
0.550006
0.567906
0.601886
0.628334
0.644393
0.646281
0.606582
0.514033
0.455618
0.430133
0.422009
0.418329
0.415564
0.413665
0.412896
0.415656
0.422181
0.43301
0.443704
0.457364
0.47593
0.502074
0.536748
0.580899
0.631072
0.681684
0.733286
0.782217
0.814733
0.839782
0.853521
0.860287
0.863113
0.863635
0.861093
0.85355
0.841326
0.819078
0.790196
0.763826
0.751768
0.745437
0.739424
0.724335
0.695656
0.668809
0.649054
0.633662
0.617213
0.605629
0.604982
0.609279
0.606713
0.599759
0.602554
0.636231
0.740921
0.777348
0.773332
0.765321
0.774581
0.825372
0.850333
0.853154
0.853506
0.856833
0.85944
0.863513
0.86629
0.870199
0.87528
0.882542
0.886192
0.88737
0.887376
0.883422
0.878076
0.874725
0.866213
0.853694
0.837792
0.813881
0.788258
0.773696
0.762481
0.7564
0.754231
0.753617
0.753697
0.755874
0.760153
0.764532
0.769898
0.775721
0.780371
0.78379
0.786963
0.788592
0.789635
0.789979
0.789623
0.788745
0.787705
0.786318
0.784355
0.781911
0.778857
0.775166
0.771574
0.768296
0.765298
0.763077
0.762086
0.762256
0.763493
0.766214
0.770414
0.775902
0.782506
0.79019
0.798862
0.80857
0.819134
0.831265
0.846272
0.86417
0.881653
0.892618
0.895097
0.891414
0.868213
0.843669
0.836145
0.836569
0.84449
0.869396
0.887987
0.897562
0.901992
0.903393
0.903391
0.902498
0.90216
0.903269
0.908243
0.914855
0.920235
0.924034
0.926326
0.92753
0.928486
0.930224
0.934346
0.93908
0.943951
0.948286
0.952145
0.955149
0.956518
0.956564
0.955405
0.949244
0.932634
0.916737
0.901498
0.884747
0.860755
0.847958
0.816899
0.641377
0.638175
0.634345
0.631125
0.628525
0.623012
0.609593
0.572095
0.536916
0.529072
0.535574
0.553146
0.581004
0.605725
0.614545
0.58661
0.520707
0.465251
0.444714
0.436847
0.434687
0.439036
0.452956
0.475349
0.509569
0.556954
0.61446
0.655351
0.697217
0.727944
0.759105
0.79048
0.821339
0.858152
0.890192
0.926981
0.951315
0.963034
0.968249
0.97157
0.972811
0.973094
0.9718
0.966827
0.957749
0.942227
0.917523
0.881667
0.835737
0.786239
0.750888
0.741226
0.74402
0.747006
0.749287
0.749815
0.747436
0.739767
0.721128
0.684986
0.660775
0.653865
0.643629
0.616019
0.604356
0.615125
0.683035
0.791272
0.814413
0.804692
0.809485
0.834147
0.847166
0.850383
0.850985
0.854287
0.858517
0.862937
0.869202
0.876292
0.887104
0.894801
0.896969
0.897243
0.89525
0.887721
0.880021
0.870259
0.857344
0.834154
0.794487
0.767075
0.754113
0.74777
0.7458
0.74598
0.750621
0.758765
0.766526
0.779161
0.797786
0.81363
0.821668
0.827104
0.831575
0.833692
0.836777
0.839646
0.841594
0.844661
0.846148
0.847758
0.848392
0.84848
0.847967
0.846881
0.845049
0.842368
0.837927
0.830614
0.820248
0.807237
0.792255
0.777943
0.768472
0.763082
0.760724
0.760405
0.761459
0.763876
0.766838
0.770625
0.775181
0.780081
0.784461
0.788313
0.793592
0.804252
0.829402
0.867903
0.900909
0.911903
0.90999
0.890404
0.852101
0.832592
0.828334
0.830082
0.841214
0.85536
0.861664
0.864841
0.865576
0.865008
0.864368
0.865377
0.870685
0.883469
0.898859
0.914108
0.925562
0.931206
0.933288
0.934152
0.934831
0.93619
0.939906
0.94871
0.957064
0.962871
0.965935
0.966867
0.966702
0.964665
0.956211
0.937216
0.925793
0.907096
0.896423
0.875267
0.634021
0.611502
0.584851
0.566149
0.555219
0.543028
0.528986
0.518505
0.514947
0.511023
0.521103
0.542289
0.554833
0.548442
0.51495
0.481798
0.467206
0.459916
0.457777
0.473896
0.507843
0.566629
0.654687
0.72938
0.797265
0.848644
0.876018
0.906711
0.925381
0.939895
0.955366
0.964004
0.97496
0.980596
0.985761
0.987952
0.988783
0.988963
0.989027
0.989028
0.988879
0.988324
0.987227
0.984956
0.979885
0.967718
0.940299
0.896744
0.841418
0.777997
0.728861
0.706213
0.698837
0.714234
0.730721
0.743658
0.749825
0.751491
0.75042
0.744857
0.731996
0.702144
0.62593
0.589112
0.60759
0.742847
0.833375
0.839901
0.834027
0.832222
0.838917
0.844957
0.847302
0.847999
0.851299
0.855501
0.861267
0.86879
0.879389
0.894476
0.904022
0.906907
0.907151
0.904881
0.896291
0.885322
0.871172
0.850032
0.812854
0.769485
0.750392
0.742117
0.739809
0.73994
0.746246
0.754241
0.769575
0.79963
0.826775
0.836706
0.840113
0.840633
0.838721
0.83353
0.8299
0.828006
0.827369
0.830523
0.833124
0.840966
0.844726
0.85032
0.853627
0.855968
0.857457
0.858353
0.858734
0.859207
0.859421
0.859513
0.859185
0.85747
0.852988
0.843038
0.825015
0.803667
0.785417
0.774396
0.768523
0.76632
0.76628
0.768027
0.771571
0.775753
0.780838
0.785869
0.789434
0.791331
0.793238
0.797762
0.812367
0.864665
0.909193
0.919583
0.914547
0.882717
0.845511
0.827489
0.821593
0.821454
0.822951
0.828192
0.835365
0.842495
0.850334
0.858109
0.863773
0.867451
0.873668
0.887754
0.905268
0.920651
0.931072
0.935932
0.937467
0.93787
0.938262
0.939433
0.944065
0.95435
0.96231
0.966805
0.968389
0.968428
0.967101
0.959866
0.944701
0.928285
0.91746
0.900023
0.628486
0.581504
0.55145
0.535381
0.523616
0.513727
0.507344
0.495549
0.491527
0.492314
0.497506
0.502382
0.502483
0.495814
0.487204
0.483802
0.486521
0.508774
0.558545
0.657156
0.744263
0.823234
0.873702
0.911737
0.939345
0.956716
0.966951
0.976208
0.980468
0.984243
0.986683
0.987934
0.988823
0.989127
0.989209
0.989033
0.988772
0.988682
0.988685
0.98881
0.98892
0.989041
0.989094
0.988776
0.988
0.985245
0.977217
0.956169
0.909136
0.83011
0.746238
0.700333
0.678906
0.667253
0.683364
0.713411
0.730241
0.739763
0.743796
0.741835
0.722588
0.635694
0.578207
0.617689
0.798902
0.849208
0.845346
0.841789
0.840559
0.840609
0.842844
0.844324
0.844795
0.847994
0.852215
0.858444
0.868235
0.882965
0.899734
0.911415
0.915758
0.916473
0.914994
0.907297
0.895429
0.879385
0.852635
0.807636
0.760389
0.741589
0.734847
0.733369
0.734954
0.744277
0.758861
0.789484
0.825594
0.837874
0.840527
0.838312
0.82545
0.79936
0.763827
0.733138
0.708765
0.696435
0.692321
0.704875
0.716869
0.749332
0.770261
0.794694
0.813555
0.827692
0.837813
0.845313
0.850255
0.854439
0.857259
0.859508
0.861304
0.862448
0.862982
0.862861
0.861422
0.856613
0.8442
0.824367
0.80496
0.790879
0.782066
0.777259
0.77563
0.775864
0.778658
0.784818
0.791746
0.797889
0.800485
0.800166
0.799695
0.801968
0.82151
0.884084
0.918165
0.921762
0.910112
0.863805
0.833685
0.821119
0.816185
0.815737
0.816661
0.820633
0.832213
0.848361
0.866716
0.884289
0.89639
0.902455
0.904533
0.906889
0.913825
0.927438
0.936165
0.939934
0.941147
0.941618
0.942389
0.944622
0.951997
0.960772
0.965961
0.967758
0.967748
0.965954
0.95772
0.941345
0.930517
0.914944
0.620036
0.566972
0.540992
0.524812
0.511184
0.500519
0.49236
0.490127
0.489956
0.491774
0.496138
0.500237
0.502687
0.504277
0.514058
0.543951
0.609381
0.697565
0.791134
0.85147
0.906419
0.9349
0.957378
0.969971
0.976996
0.980985
0.982924
0.983925
0.984276
0.984374
0.984127
0.982901
0.981984
0.98098
0.980335
0.979816
0.979593
0.979529
0.979845
0.980502
0.981574
0.983203
0.985564
0.987859
0.989005
0.989447
0.989174
0.986287
0.975797
0.94438
0.860551
0.745029
0.684463
0.651316
0.636006
0.632449
0.650859
0.662968
0.666963
0.640343
0.57776
0.554767
0.616744
0.820176
0.850895
0.849426
0.844258
0.841529
0.840666
0.840608
0.841248
0.841321
0.844286
0.848663
0.855667
0.867659
0.886498
0.903651
0.917828
0.924281
0.925679
0.924745
0.919001
0.908309
0.893568
0.870235
0.826997
0.764853
0.737654
0.728648
0.726726
0.727961
0.737187
0.756108
0.793444
0.829529
0.838514
0.838523
0.826573
0.791302
0.718789
0.614926
0.533235
0.494161
0.474888
0.466902
0.465331
0.480741
0.499965
0.544406
0.602831
0.662346
0.713876
0.754915
0.785656
0.808197
0.824811
0.837671
0.847592
0.854285
0.858708
0.861783
0.863454
0.864573
0.865352
0.865516
0.864921
0.862085
0.853767
0.839797
0.825162
0.811809
0.800244
0.79184
0.787317
0.786293
0.787578
0.794789
0.804812
0.810482
0.81083
0.807374
0.806882
0.815133
0.862107
0.912726
0.926004
0.921493
0.890225
0.84474
0.824389
0.817431
0.816466
0.817273
0.821056
0.829555
0.844233
0.86625
0.890648
0.910302
0.922138
0.927067
0.928586
0.930448
0.935721
0.941753
0.944885
0.945913
0.946358
0.947249
0.949933
0.957882
0.96464
0.967544
0.968006
0.967322
0.963036
0.947975
0.936658
0.924038
0.618633
0.565846
0.538768
0.520563
0.505958
0.497603
0.494232
0.493308
0.494563
0.499593
0.507994
0.520352
0.539759
0.575256
0.64616
0.726047
0.80587
0.865222
0.910224
0.94333
0.961415
0.972415
0.977937
0.980428
0.981383
0.981686
0.98172
0.980353
0.979247
0.977639
0.976611
0.975965
0.975638
0.975476
0.975428
0.975547
0.975671
0.975852
0.97596
0.976066
0.976129
0.976171
0.976814
0.978473
0.982648
0.987155
0.989897
0.990791
0.990645
0.984825
0.964026
0.908532
0.783087
0.684412
0.630333
0.598741
0.572403
0.560537
0.554088
0.550621
0.560927
0.648837
0.805876
0.849721
0.851421
0.846109
0.841478
0.839466
0.83806
0.837542
0.837594
0.839956
0.84461
0.852008
0.867861
0.888222
0.905701
0.920487
0.930215
0.934094
0.934351
0.930858
0.921867
0.908615
0.889304
0.854135
0.793833
0.742567
0.725357
0.720982
0.720848
0.725893
0.742835
0.777212
0.822722
0.837856
0.838947
0.826791
0.778982
0.661853
0.505468
0.444241
0.41978
0.408711
0.4037
0.402124
0.402796
0.411079
0.423238
0.445239
0.484721
0.549518
0.616297
0.679257
0.733054
0.775069
0.80736
0.830183
0.844493
0.853224
0.858404
0.862008
0.864498
0.865987
0.867227
0.868519
0.869302
0.869345
0.868738
0.865641
0.857743
0.849586
0.841068
0.830331
0.81793
0.806636
0.799587
0.797674
0.799175
0.808767
0.817922
0.819343
0.815761
0.813909
0.818907
0.855003
0.910668
0.931802
0.930852
0.914993
0.866123
0.836267
0.824707
0.822873
0.8241
0.828952
0.8382
0.851368
0.873076
0.900141
0.922815
0.936001
0.941329
0.942939
0.943944
0.946313
0.949849
0.952009
0.952895
0.953603
0.955176
0.960065
0.966054
0.968804
0.969225
0.968571
0.964618
0.949214
0.935698
0.925283
0.620207
0.573647
0.54012
0.519669
0.510519
0.506182
0.505102
0.508863
0.518007
0.535763
0.563911
0.613889
0.678669
0.751092
0.808657
0.865419
0.907114
0.941541
0.959364
0.971544
0.976966
0.979428
0.98025
0.980427
0.980114
0.978619
0.977246
0.97611
0.975194
0.974434
0.973741
0.973403
0.973249
0.973213
0.973445
0.973788
0.974548
0.975179
0.97557
0.97578
0.975831
0.975471
0.97507
0.974793
0.974558
0.976445
0.983099
0.989558
0.992301
0.99304
0.99106
0.980166
0.945596
0.848644
0.716246
0.62722
0.573634
0.554237
0.551629
0.583169
0.681092
0.804921
0.845098
0.851984
0.846291
0.838065
0.835095
0.833316
0.832509
0.832569
0.83471
0.839522
0.84656
0.862519
0.88503
0.905044
0.920137
0.932549
0.939176
0.941638
0.940658
0.935768
0.925335
0.909549
0.884005
0.83952
0.771957
0.729043
0.715574
0.712467
0.713185
0.723294
0.747506
0.795641
0.831897
0.839548
0.834777
0.797696
0.693436
0.530965
0.453897
0.428577
0.41899
0.406335
0.40037
0.39771
0.397399
0.402521
0.411883
0.426791
0.454269
0.511308
0.579997
0.647772
0.709566
0.760533
0.799547
0.827172
0.843743
0.853682
0.860551
0.865733
0.870178
0.873178
0.874455
0.8751
0.876102
0.876339
0.876058
0.875316
0.873255
0.86621
0.858401
0.853534
0.84825
0.838938
0.82621
0.814951
0.809468
0.809071
0.813971
0.824279
0.82604
0.822533
0.820597
0.824988
0.857312
0.91337
0.939591
0.941839
0.934717
0.905434
0.864197
0.847427
0.844799
0.846664
0.853298
0.870307
0.901396
0.93038
0.950017
0.959231
0.961566
0.961449
0.959696
0.958412
0.958344
0.958689
0.959312
0.960026
0.961671
0.966373
0.970975
0.972792
0.972861
0.971621
0.965422
0.946815
0.93241
0.922946
0.625775
0.585883
0.54818
0.533854
0.529348
0.529281
0.539885
0.560975
0.597663
0.649198
0.70533
0.761458
0.815355
0.863239
0.899149
0.932362
0.954118
0.968289
0.974963
0.978216
0.979367
0.979644
0.979597
0.978345
0.976546
0.975296
0.973637
0.972109
0.970358
0.968904
0.967309
0.966214
0.965596
0.965397
0.966212
0.96736
0.96978
0.972049
0.974213
0.975698
0.976338
0.976555
0.976379
0.975079
0.973592
0.973038
0.973214
0.977124
0.987359
0.993082
0.994885
0.995242
0.990768
0.973337
0.923755
0.80068
0.668321
0.601974
0.579168
0.60379
0.73945
0.833978
0.85096
0.851198
0.839359
0.83268
0.829907
0.829033
0.828593
0.829616
0.833169
0.840391
0.854003
0.87623
0.896663
0.916237
0.930546
0.940998
0.946073
0.946962
0.945451
0.940294
0.929433
0.912142
0.884278
0.830613
0.764133
0.721557
0.708074
0.705242
0.707863
0.71737
0.74372
0.793266
0.833352
0.840464
0.832556
0.785946
0.675224
0.533462
0.483578
0.481714
0.490461
0.471785
0.446703
0.425521
0.414561
0.41085
0.416267
0.426973
0.449431
0.501069
0.569646
0.637948
0.701888
0.755856
0.797422
0.826975
0.846757
0.858609
0.866217
0.872779
0.879645
0.886111
0.890711
0.892209
0.89241
0.893449
0.893194
0.892343
0.891001
0.889478
0.886541
0.879482
0.871452
0.862104
0.849539
0.835073
0.823264
0.81768
0.817195
0.821217
0.830711
0.831915
0.82801
0.826611
0.831533
0.865037
0.920331
0.948157
0.955085
0.952191
0.939329
0.914795
0.907783
0.908753
0.913987
0.929432
0.951226
0.967762
0.977539
0.98135
0.98184
0.981289
0.978072
0.972375
0.969288
0.967972
0.967505
0.967484
0.96795
0.970633
0.975209
0.977003
0.976953
0.97479
0.964222
0.943787
0.930312
0.922098
0.637913
0.612521
0.581087
0.570515
0.569818
0.5935
0.630144
0.669137
0.716979
0.767333
0.815499
0.855918
0.890838
0.92213
0.944353
0.961915
0.971638
0.976522
0.978553
0.979219
0.979311
0.978903
0.977422
0.975037
0.972789
0.970125
0.966485
0.962392
0.95778
0.953781
0.950243
0.948034
0.947008
0.946762
0.948621
0.951006
0.955148
0.960149
0.965905
0.971536
0.975046
0.976678
0.977237
0.97736
0.976086
0.973096
0.971519
0.970914
0.973493
0.984485
0.993252
0.996397
0.997223
0.996171
0.988659
0.962358
0.88632
0.7329
0.63692
0.603696
0.667689
0.820589
0.853477
0.847426
0.83192
0.827606
0.826418
0.824243
0.82416
0.826199
0.830603
0.843654
0.873881
0.897619
0.910836
0.924553
0.936969
0.94637
0.950857
0.951023
0.949231
0.944129
0.934086
0.917019
0.886607
0.830694
0.766784
0.722999
0.700177
0.698565
0.695465
0.705881
0.732913
0.781542
0.830386
0.84169
0.836686
0.798899
0.702988
0.579674
0.555085
0.595868
0.649225
0.671006
0.623889
0.54742
0.484799
0.453294
0.44799
0.451578
0.464732
0.506211
0.573523
0.639849
0.703457
0.75874
0.803218
0.836163
0.85656
0.867316
0.874
0.881562
0.891288
0.901292
0.910394
0.916742
0.919132
0.921785
0.922882
0.922382
0.920947
0.917989
0.915131
0.912901
0.910724
0.906824
0.897812
0.873257
0.846111
0.828206
0.821281
0.821178
0.827605
0.836772
0.837214
0.832717
0.8322
0.838602
0.875978
0.930498
0.956728
0.967916
0.967824
0.962865
0.959827
0.960455
0.963105
0.970384
0.980174
0.987157
0.990966
0.992324
0.992432
0.992051
0.990176
0.98451
0.979531
0.976466
0.974739
0.974124
0.974183
0.975282
0.978811
0.980473
0.980326
0.977405
0.963617
0.943319
0.931677
0.925247
0.648599
0.643685
0.620659
0.615074
0.637089
0.672704
0.708001
0.754224
0.800978
0.843723
0.879782
0.910435
0.931655
0.951065
0.965148
0.97323
0.977113
0.978732
0.979183
0.979137
0.978584
0.976805
0.973619
0.969421
0.96447
0.958237
0.951721
0.94603
0.940958
0.937158
0.934226
0.932433
0.931605
0.931391
0.932677
0.934694
0.938255
0.943394
0.95044
0.959201
0.968508
0.974333
0.976958
0.977725
0.977833
0.976635
0.972338
0.969977
0.969183
0.97188
0.983048
0.99307
0.997144
0.998331
0.998466
0.995501
0.981262
0.931099
0.795734
0.690188
0.643608
0.740895
0.84395
0.846545
0.833696
0.824223
0.819271
0.818295
0.81824
0.819344
0.824352
0.838588
0.871292
0.901819
0.921907
0.934
0.943036
0.950538
0.954194
0.954281
0.952525
0.947438
0.939466
0.92444
0.891994
0.835469
0.773286
0.728732
0.701224
0.683041
0.686794
0.68904
0.707272
0.755496
0.816945
0.840213
0.844484
0.828757
0.771435
0.678045
0.644842
0.684786
0.772768
0.805366
0.800801
0.749519
0.622488
0.529391
0.495469
0.495325
0.507709
0.552865
0.617812
0.676004
0.733509
0.78622
0.828
0.854411
0.867728
0.87672
0.884966
0.894777
0.907493
0.921138
0.933092
0.941972
0.947843
0.952419
0.957916
0.961721
0.962181
0.961647
0.959627
0.954299
0.949249
0.945711
0.941701
0.933254
0.907334
0.86223
0.834804
0.825549
0.825845
0.834544
0.842198
0.841695
0.836979
0.837571
0.846859
0.890329
0.942352
0.965303
0.977032
0.980815
0.982092
0.983316
0.985706
0.989496
0.993129
0.995539
0.996722
0.997082
0.997081
0.996846
0.995903
0.992647
0.987695
0.983821
0.981098
0.979696
0.979445
0.979868
0.98207
0.983417
0.983174
0.979781
0.964411
0.945024
0.935765
0.930602
0.654738
0.663599
0.662117
0.660154
0.678475
0.731232
0.770591
0.813215
0.855141
0.890417
0.917249
0.939439
0.953777
0.965245
0.97349
0.977243
0.978797
0.979235
0.979169
0.978522
0.976329
0.971353
0.965366
0.959795
0.953163
0.946635
0.940609
0.935561
0.931416
0.928308
0.926501
0.9255
0.925081
0.924998
0.92582
0.927285
0.929949
0.934494
0.941141
0.948638
0.958569
0.968418
0.974863
0.977498
0.978027
0.977716
0.975813
0.970458
0.968187
0.968111
0.971912
0.984332
0.993209
0.997509
0.99899
0.999343
0.9984
0.991104
0.957183
0.843597
0.737291
0.715595
0.784883
0.836669
0.837245
0.827966
0.819618
0.813937
0.812825
0.813378
0.815616
0.824642
0.854693
0.893894
0.919684
0.935594
0.945593
0.952678
0.956412
0.956677
0.955571
0.951262
0.944431
0.931984
0.902829
0.847062
0.786306
0.739386
0.707089
0.682878
0.668246
0.672254
0.681536
0.708345
0.780743
0.828598
0.843574
0.842614
0.828636
0.782863
0.753763
0.766849
0.814629
0.838559
0.836245
0.804806
0.681135
0.564286
0.524518
0.522894
0.53942
0.601055
0.665941
0.722659
0.77677
0.821583
0.852838
0.870058
0.878202
0.887773
0.901004
0.916359
0.932176
0.94727
0.960765
0.970145
0.97611
0.979369
0.981228
0.983053
0.984673
0.985165
0.985071
0.984545
0.983178
0.979247
0.969389
0.961483
0.948292
0.912726
0.864851
0.836779
0.829099
0.830836
0.8422
0.847296
0.845468
0.841804
0.843792
0.857864
0.909038
0.953621
0.973771
0.983812
0.9893
0.9922
0.994338
0.996233
0.997667
0.998503
0.998856
0.998937
0.998914
0.998754
0.998261
0.996948
0.993543
0.989627
0.986376
0.984337
0.983689
0.983813
0.98505
0.985997
0.985699
0.982218
0.96693
0.949492
0.942243
0.937801
0.661089
0.686463
0.693849
0.690786
0.725174
0.769753
0.806956
0.847731
0.886529
0.914224
0.937204
0.954151
0.964532
0.97195
0.9767
0.978659
0.979294
0.979407
0.978932
0.97684
0.972206
0.966181
0.959973
0.953597
0.946528
0.940143
0.934675
0.93008
0.92662
0.924541
0.923344
0.922739
0.922512
0.92268
0.923172
0.924131
0.925686
0.928452
0.933652
0.942072
0.953315
0.964584
0.97277
0.97678
0.977988
0.977884
0.976727
0.97225
0.967957
0.966738
0.967972
0.976247
0.987696
0.994454
0.997907
0.999326
0.999684
0.999465
0.996133
0.972795
0.869762
0.75988
0.751954
0.801892
0.831654
0.832391
0.826169
0.81612
0.811031
0.808163
0.808725
0.81119
0.821462
0.858956
0.903465
0.929865
0.943879
0.952152
0.956626
0.958027
0.957655
0.955329
0.949746
0.93902
0.915706
0.863529
0.805717
0.758994
0.720937
0.688493
0.668183
0.651856
0.654956
0.666064
0.700668
0.785201
0.829029
0.841516
0.843546
0.837182
0.830063
0.834437
0.847132
0.84846
0.842204
0.808846
0.689846
0.571119
0.538204
0.540491
0.569441
0.636477
0.689073
0.743821
0.798344
0.840268
0.867608
0.881031
0.890153
0.903833
0.92226
0.942994
0.962364
0.975907
0.983153
0.987376
0.989852
0.991189
0.991949
0.992586
0.993121
0.993306
0.993279
0.993081
0.992481
0.990757
0.983035
0.96607
0.954982
0.93489
0.892853
0.853818
0.834364
0.831435
0.836962
0.849869
0.852032
0.849113
0.847592
0.851733
0.874843
0.92877
0.963761
0.980936
0.98932
0.994098
0.996766
0.998252
0.999059
0.999444
0.999582
0.999604
0.999583
0.999482
0.999231
0.998668
0.997253
0.993929
0.990524
0.988105
0.987091
0.987038
0.98765
0.988289
0.988027
0.985094
0.971918
0.956634
0.950792
0.947092
0.662448
0.687819
0.732523
0.722456
0.737129
0.796051
0.837071
0.86672
0.904313
0.929998
0.947982
0.962469
0.970161
0.975416
0.978194
0.979357
0.979642
0.979492
0.978302
0.974888
0.969253
0.962462
0.95572
0.949085
0.942731
0.937092
0.932452
0.92881
0.92585
0.923948
0.922733
0.922089
0.921995
0.922168
0.922586
0.923409
0.924735
0.927002
0.931077
0.938365
0.950004
0.962846
0.971946
0.976512
0.977849
0.977818
0.976846
0.972722
0.967538
0.965796
0.966112
0.971713
0.984569
0.992787
0.996925
0.998774
0.999581
0.999837
0.999776
0.998316
0.986011
0.910416
0.788251
0.765722
0.792746
0.823864
0.827162
0.824929
0.816558
0.808849
0.801509
0.800191
0.801655
0.80986
0.841143
0.898605
0.93111
0.947491
0.955246
0.957944
0.9584
0.957708
0.954598
0.946555
0.927873
0.883539
0.828498
0.779618
0.752551
0.706903
0.675159
0.653468
0.636138
0.636462
0.645275
0.679433
0.767445
0.817029
0.837014
0.841591
0.846771
0.852705
0.852252
0.84658
0.823262
0.749729
0.614809
0.558976
0.551728
0.567487
0.626998
0.686108
0.730357
0.781746
0.831754
0.867419
0.884876
0.892482
0.90358
0.92366
0.947397
0.970771
0.982708
0.988355
0.991203
0.992893
0.994025
0.994844
0.995562
0.996267
0.99671
0.996807
0.996787
0.996672
0.996318
0.995293
0.991561
0.97287
0.947841
0.933244
0.907798
0.871454
0.843477
0.833282
0.834138
0.846593
0.8566
0.856837
0.853788
0.85444
0.863419
0.90047
0.945269
0.972656
0.986804
0.993521
0.996877
0.998577
0.999374
0.999704
0.999815
0.999835
0.999827
0.999781
0.999665
0.999409
0.998791
0.996963
0.993667
0.991086
0.989817
0.9896
0.989868
0.990249
0.990032
0.987699
0.977052
0.964594
0.960004
0.957452
0.666984
0.679555
0.734235
0.765337
0.760477
0.796205
0.845123
0.877162
0.908638
0.934774
0.951868
0.964778
0.971852
0.976241
0.978468
0.979489
0.979798
0.979655
0.978521
0.975352
0.969826
0.963067
0.956259
0.94958
0.94336
0.937838
0.933245
0.929728
0.926836
0.924853
0.923597
0.922793
0.922645
0.922751
0.923054
0.923651
0.924882
0.927135
0.930763
0.937579
0.949149
0.962595
0.972501
0.976927
0.977824
0.977564
0.975987
0.971262
0.965369
0.963192
0.963616
0.969139
0.982764
0.99192
0.996582
0.998626
0.999468
0.999808
0.999928
0.99991
0.999288
0.993221
0.950708
0.827852
0.777786
0.780823
0.807431
0.81965
0.819188
0.815019
0.804276
0.793935
0.789101
0.789495
0.794562
0.813322
0.86819
0.91956
0.94458
0.954802
0.957876
0.958092
0.957275
0.953195
0.940758
0.905307
0.856989
0.803989
0.772311
0.749044
0.702296
0.666747
0.641335
0.625097
0.617533
0.622476
0.643262
0.701289
0.769316
0.802265
0.825194
0.825098
0.817012
0.788786
0.717588
0.610893
0.56829
0.556576
0.569314
0.621004
0.696067
0.728604
0.771498
0.827382
0.867765
0.887275
0.894443
0.902768
0.921157
0.949533
0.974937
0.985857
0.990552
0.992492
0.993472
0.994206
0.994914
0.995614
0.996361
0.997142
0.997788
0.998135
0.998219
0.998202
0.998065
0.997554
0.995745
0.987968
0.954331
0.926122
0.905699
0.878006
0.849858
0.834657
0.832689
0.840147
0.858139
0.863167
0.862134
0.860582
0.864138
0.882869
0.928243
0.961436
0.981145
0.991473
0.9963
0.998435
0.999359
0.999745
0.999882
0.999917
0.999919
0.999906
0.99986
0.999742
0.99944
0.998539
0.995956
0.993383
0.991993
0.991638
0.991728
0.991925
0.991754
0.990001
0.981864
0.972544
0.969273
0.967693
0.680728
0.679193
0.712863
0.766029
0.787102
0.801745
0.841792
0.875493
0.906035
0.932813
0.950653
0.963856
0.971348
0.975901
0.978262
0.979391
0.979789
0.979765
0.979142
0.976976
0.971948
0.965477
0.958719
0.951965
0.945785
0.940348
0.935683
0.932145
0.929401
0.927241
0.925994
0.924946
0.924649
0.924767
0.925181
0.926093
0.927974
0.931745
0.935877
0.943291
0.955886
0.968029
0.975363
0.977715
0.977831
0.97696
0.973322
0.965232
0.960469
0.958952
0.960168
0.968099
0.982388
0.991754
0.996599
0.998703
0.999507
0.999805
0.999932
0.999976
0.999972
0.999777
0.997447
0.978099
0.879177
0.795982
0.78375
0.789392
0.807573
0.809945
0.80696
0.796914
0.78639
0.780607
0.780247
0.782516
0.793022
0.823851
0.893914
0.93398
0.951056
0.956616
0.957048
0.956053
0.95056
0.930836
0.884844
0.837369
0.795855
0.77145
0.75101
0.709921
0.6667
0.634947
0.620094
0.606889
0.605042
0.609706
0.622182
0.653479
0.681597
0.677608
0.660854
0.620845
0.585222
0.563986
0.563109
0.578815
0.630733
0.70989
0.742692
0.763244
0.808221
0.857376
0.88528
0.896385
0.903942
0.919047
0.950154
0.976328
0.987377
0.99123
0.992712
0.993291
0.993676
0.994132
0.994688
0.995417
0.996274
0.997137
0.997876
0.998391
0.998649
0.998709
0.998684
0.998468
0.99745
0.992946
0.967713
0.921772
0.899662
0.87644
0.851015
0.834613
0.830468
0.834117
0.854386
0.868031
0.869783
0.868933
0.869525
0.878992
0.914193
0.95212
0.975569
0.988483
0.994978
0.997961
0.999224
0.999713
0.99989
0.999946
0.999957
0.999955
0.999941
0.999889
0.999732
0.999226
0.997455
0.99507
0.993692
0.993254
0.993258
0.99334
0.993217
0.991965
0.986135
0.979765
0.977857
0.976845
0.762136
0.694914
0.698605
0.745774
0.785996
0.80578
0.834739
0.869867
0.899663
0.92729
0.946864
0.961098
0.969678
0.974838
0.977638
0.979068
0.979688
0.979747
0.979568
0.978687
0.976176
0.970564
0.964397
0.957416
0.950606
0.944959
0.940034
0.936203
0.933241
0.930819
0.92954
0.928265
0.928033
0.928246
0.928936
0.930332
0.933384
0.937713
0.942448
0.951259
0.96382
0.973572
0.977426
0.978077
0.977692
0.975204
0.966678
0.95735
0.953739
0.954363
0.958361
0.971116
0.985732
0.993992
0.997692
0.999162
0.999708
0.999899
0.999959
0.999985
0.999994
0.999991
0.999907
0.998833
0.988948
0.921171
0.820656
0.789113
0.786281
0.791257
0.797476
0.795239
0.787592
0.779614
0.775352
0.774687
0.775855
0.781821
0.800487
0.855208
0.916907
0.944545
0.954059
0.955247
0.953881
0.946295
0.92062
0.868885
0.827332
0.79304
0.774987
0.754601
0.730163
0.678569
0.642751
0.616658
0.606579
0.598116
0.590707
0.587908
0.58421
0.577189
0.5738
0.567044
0.565151
0.570936
0.595133
0.659243
0.723274
0.750109
0.763362
0.794415
0.856712