/*--------------------------------*- C++ -*----------------------------------*\
  =========                 |
  \\      /  F ield         | OpenFOAM: The Open Source CFD Toolbox
   \\    /   O peration     | Website:  https://openfoam.org
    \\  /    A nd           | Version:  9
     \\/     M anipulation  |
\*---------------------------------------------------------------------------*/
FoamFile
{
    format      ascii;
    class       volVectorField;
    location    "0.055";
    object      U;
}
// * * * * * * * * * * * * * * * * * * * * * * * * * * * * * * * * * * * * * //

dimensions      [0 1 -1 0 0 0 0];

internalField   nonuniform List<vector> 
12225
(
(9.95148 0.0746239 0)
(9.51098 0.109893 0)
(9.12158 0.113678 0)
(8.82617 0.0881566 0)
(8.60431 0.0722914 0)
(8.3831 0.0836622 0)
(8.08723 0.104095 0)
(7.7203 0.109341 0)
(7.33531 0.0937261 0)
(7.00242 0.0681442 0)
(6.71354 0.045535 0)
(6.49693 0.0307433 0)
(6.2624 0.0283448 0)
(6.09164 0.0346825 0)
(5.77043 0.0581515 0)
(5.5759 0.0725951 0)
(5.03091 0.128224 0)
(4.80855 0.133993 0)
(10.0617 0.14104 0)
(10.0565 0.0988501 0)
(10.1312 0.0359843 0)
(10.187 0.0242476 0)
(10.1525 0.0289408 0)
(10.1035 0.0399194 0)
(10.0923 0.0606447 0)
(10.111 0.0858056 0)
(10.1197 0.101666 0)
(10.1026 0.107555 0)
(10.0374 0.105441 0)
(9.9522 0.107319 0)
(9.82046 0.110289 0)
(9.69682 0.127805 0)
(9.50181 0.150083 0)
(9.34707 0.185421 0)
(9.07351 0.238635 0)
(8.88439 0.305343 0)
(10.1882 0.152656 0)
(10.3283 0.128841 0)
(10.346 0.0884724 0)
(10.2462 0.0792905 0)
(10.1347 0.088386 0)
(10.0777 0.0980804 0)
(10.0927 0.104925 0)
(10.1659 0.109425 0)
(10.2585 0.108386 0)
(10.3279 0.105789 0)
(10.342 0.104495 0)
(10.3028 0.108198 0)
(10.2247 0.116955 0)
(10.1375 0.139017 0)
(10.0513 0.176214 0)
(9.98087 0.227312 0)
(9.91857 0.301973 0)
(9.87233 0.387099 0)
(9.99662 0.127994 0)
(10.2466 0.0463055 0)
(10.2214 0.0666094 0)
(10.0891 0.0880538 0)
(10.0016 0.0803539 0)
(9.98812 0.0574507 0)
(10.0189 0.0384813 0)
(10.0658 0.0337272 0)
(10.1168 0.0443808 0)
(10.1652 0.070687 0)
(10.2024 0.106025 0)
(10.221 0.143013 0)
(10.2162 0.174615 0)
(10.1868 0.202917 0)
(10.1382 0.23332 0)
(10.0813 0.270814 0)
(10.028 0.322712 0)
(9.9938 0.387311 0)
(10.0833 -0.0410091 0)
(10.1865 0.0759641 0)
(10.0893 0.136171 0)
(9.99667 0.130368 0)
(9.95106 0.104397 0)
(9.97369 0.0836825 0)
(10.0361 0.0752456 0)
(10.0863 0.0741669 0)
(10.1009 0.0739153 0)
(10.0917 0.076167 0)
(10.0821 0.0849002 0)
(10.0873 0.103128 0)
(10.1074 0.13101 0)
(10.1329 0.169439 0)
(10.1511 0.219151 0)
(10.155 0.27625 0)
(10.1428 0.339237 0)
(10.1206 0.402511 0)
(10.0058 -0.100968 0)
(9.96148 0.0393085 0)
(9.98104 0.133258 0)
(10.0139 0.142941 0)
(10.0122 0.0923668 0)
(10.0043 0.0313577 0)
(10.0281 0.00328933 0)
(10.0822 0.0149715 0)
(10.1432 0.0484764 0)
(10.19 0.0851797 0)
(10.2144 0.115139 0)
(10.2196 0.137687 0)
(10.2143 0.157979 0)
(10.2065 0.184504 0)
(10.1988 0.224071 0)
(10.1903 0.276463 0)
(10.1761 0.339137 0)
(10.1533 0.402592 0)
(9.97089 -0.0601457 0)
(9.8737 0.0796505 0)
(9.96098 0.12803 0)
(10.1171 0.124712 0)
(10.1607 0.103961 0)
(10.0789 0.0752066 0)
(9.96782 0.0466821 0)
(9.90651 0.0272159 0)
(9.91796 0.0237523 0)
(9.98111 0.0372405 0)
(10.057 0.062855 0)
(10.112 0.0959216 0)
(10.1318 0.134019 0)
(10.1191 0.17751 0)
(10.0909 0.229702 0)
(10.0628 0.290593 0)
(10.0448 0.359124 0)
(10.041 0.429028 0)
(9.6284 0.0146626 0)
(9.68122 0.000242867 0)
(9.89829 0.0379505 0)
(10.1496 0.0768658 0)
(10.3187 0.105319 0)
(10.3774 0.103146 0)
(10.3458 0.0732749 0)
(10.2531 0.0396191 0)
(10.1424 0.0240391 0)
(10.0572 0.0337311 0)
(10.0184 0.0643294 0)
(10.0199 0.107906 0)
(10.041 0.157239 0)
(10.0594 0.206699 0)
(10.0635 0.254621 0)
(10.0548 0.302262 0)
(10.0383 0.350009 0)
(10.0301 0.40067 0)
(10.3193 0.0481036 0)
(10.1254 -0.00206641 0)
(10.0024 -0.0298562 0)
(10.0153 -0.0182082 0)
(10.0844 0.0171045 0)
(10.1355 0.0598644 0)
(10.1284 0.09526 0)
(10.0646 0.112511 0)
(9.98343 0.108214 0)
(9.92294 0.0907548 0)
(9.89345 0.0771726 0)
(9.88588 0.0825711 0)
(9.88718 0.113286 0)
(9.88916 0.166628 0)
(9.88827 0.233974 0)
(9.88733 0.3064 0)
(9.88903 0.375302 0)
(9.89969 0.436678 0)
(9.98695 0.146063 0)
(10.0777 0.132901 0)
(10.1146 0.0732764 0)
(10.127 0.0452971 0)
(10.119 0.055189 0)
(10.0873 0.0859002 0)
(10.0307 0.110035 0)
(9.97142 0.111221 0)
(9.93675 0.0957032 0)
(9.93166 0.0827692 0)
(9.94238 0.0881457 0)
(9.95521 0.115319 0)
(9.96426 0.158232 0)
(9.97169 0.207305 0)
(9.982 0.255214 0)
(9.99804 0.299268 0)
(10.0224 0.338405 0)
(10.05 0.376344 0)
(9.69465 0.0361201 0)
(9.89119 -0.0472144 0)
(10.0723 -0.0546266 0)
(10.1719 -0.0160212 0)
(10.1761 0.0375988 0)
(10.15 0.103138 0)
(10.1447 0.151488 0)
(10.1624 0.156979 0)
(10.1817 0.126091 0)
(10.18 0.0858292 0)
(10.1492 0.0613316 0)
(10.1002 0.0654747 0)
(10.0505 0.0978596 0)
(10.015 0.149956 0)
(9.99567 0.211855 0)
(9.99555 0.274867 0)
(10.0017 0.335283 0)
(10.0218 0.391017 0)
(9.92122 0.120257 0)
(9.98427 -0.0412543 0)
(10.0295 -0.0436019 0)
(10.0632 0.00945857 0)
(10.0649 0.0538388 0)
(10.0715 0.0882017 0)
(10.1043 0.100738 0)
(10.1524 0.0929365 0)
(10.1958 0.0861966 0)
(10.2179 0.0989458 0)
(10.2085 0.131777 0)
(10.1666 0.17337 0)
(10.1001 0.211972 0)
(10.0222 0.244076 0)
(9.94326 0.2698 0)
(9.878 0.295879 0)
(9.8262 0.322322 0)
(9.80388 0.35491 0)
(9.94765 -0.0622916 0)
(10.1457 -0.146861 0)
(10.167 -0.0999497 0)
(10.1287 -0.0234988 0)
(10.0818 0.0463413 0)
(10.0589 0.101752 0)
(10.0673 0.126288 0)
(10.1013 0.118829 0)
(10.1533 0.0974026 0)
(10.2123 0.0847051 0)
(10.2655 0.095547 0)
(10.2983 0.132843 0)
(10.3006 0.189405 0)
(10.2658 0.254614 0)
(10.2021 0.315033 0)
(10.1204 0.364977 0)
(10.0441 0.39972 0)
(9.97928 0.422291 0)
(10.1091 -0.11706 0)
(10.0108 -0.0796753 0)
(9.94046 0.0214871 0)
(9.89815 0.0611461 0)
(9.88432 0.0733739 0)
(9.90532 0.074977 0)
(9.9497 0.0547166 0)
(10.0029 0.0215145 0)
(10.0529 0.0016236 0)
(10.0904 0.0151422 0)
(10.1111 0.0657201 0)
(10.1156 0.14349 0)
(10.1085 0.231611 0)
(10.0946 0.313321 0)
(10.0833 0.37452 0)
(10.0788 0.412019 0)
(10.0905 0.425182 0)
(10.1126 0.425114 0)
(10.1895 -0.00274546 0)
(10.0927 -0.099252 0)
(10.1386 -0.072135 0)
(10.1863 -0.00539132 0)
(10.2132 0.0467827 0)
(10.2417 0.0760966 0)
(10.2557 0.0783897 0)
(10.2359 0.0633222 0)
(10.184 0.0508993 0)
(10.115 0.0588048 0)
(10.0484 0.0943488 0)
(10.0029 0.152824 0)
(9.9873 0.221686 0)
(10.0021 0.285738 0)
(10.0389 0.332755 0)
(10.0877 0.358712 0)
(10.139 0.364605 0)
(10.1824 0.36002 0)
(10.2321 0.028231 0)
(10.1701 0.00761085 0)
(10.1009 0.00806945 0)
(10.0328 0.0148163 0)
(10.0178 0.0209923 0)
(10.0469 0.0329607 0)
(10.0839 0.0536806 0)
(10.1152 0.0813534 0)
(10.1403 0.111346 0)
(10.1589 0.139868 0)
(10.1709 0.165806 0)
(10.1795 0.190295 0)
(10.1907 0.213785 0)
(10.2091 0.236082 0)
(10.2368 0.257029 0)
(10.2703 0.276797 0)
(10.3056 0.296926 0)
(10.335 0.318415 0)
(9.92986 -0.0524639 0)
(9.99291 0.0173164 0)
(9.96313 0.0861472 0)
(9.95865 0.0615484 0)
(9.99857 0.0225981 0)
(10.0419 0.0074521 0)
(10.0746 0.000692748 0)
(10.1023 -0.0105349 0)
(10.1269 -0.0140284 0)
(10.1453 0.00902543 0)
(10.1559 0.0629515 0)
(10.1613 0.133237 0)
(10.1649 0.198996 0)
(10.1708 0.2455 0)
(10.1818 0.26985 0)
(10.1995 0.278868 0)
(10.2218 0.280837 0)
(10.2488 0.287779 0)
(10.1108 0.0533822 0)
(10.0179 0.0410193 0)
(10 -0.00940279 0)
(9.99695 -0.0544277 0)
(10.0083 -0.0659822 0)
(10.0377 -0.0498502 0)
(10.0728 -0.0136412 0)
(10.0915 0.0332386 0)
(10.0856 0.0799017 0)
(10.0685 0.120687 0)
(10.0594 0.152612 0)
(10.0682 0.173534 0)
(10.0944 0.183358 0)
(10.1315 0.184235 0)
(10.1702 0.180588 0)
(10.205 0.178911 0)
(10.2325 0.183132 0)
(10.255 0.19887 0)
(10.0971 0.14396 0)
(10.1072 0.248693 0)
(10.173 0.181051 0)
(10.1432 0.0518196 0)
(10.074 -0.0572708 0)
(10.029 -0.104976 0)
(10.0178 -0.0919187 0)
(10.0245 -0.0467265 0)
(10.0373 -0.000227517 0)
(10.049 0.0320942 0)
(10.0559 0.0507256 0)
(10.0629 0.0645658 0)
(10.0758 0.0818027 0)
(10.0956 0.106383 0)
(10.1186 0.136077 0)
(10.1425 0.167124 0)
(10.1648 0.194372 0)
(10.1871 0.21519 0)
(9.9423 -0.0234873 0)
(10.044 0.00891774 0)
(10.1286 0.0422504 0)
(10.1515 0.0898404 0)
(10.1068 0.0971275 0)
(10.0466 0.0553426 0)
(10.0127 0.00925124 0)
(10.0009 0.00230374 0)
(9.99697 0.0370139 0)
(9.99557 0.0842534 0)
(9.99776 0.115032 0)
(10.0062 0.119009 0)
(10.0221 0.102388 0)
(10.0449 0.0794699 0)
(10.0705 0.0622582 0)
(10.0955 0.0567263 0)
(10.1177 0.0622077 0)
(10.1355 0.0750679 0)
(10.0186 0.0757796 0)
(10.0856 -0.0476169 0)
(10.1089 0.00126156 0)
(10.1209 0.0864085 0)
(10.1408 0.079525 0)
(10.1619 0.0187451 0)
(10.1723 -0.0211558 0)
(10.1716 -0.0155724 0)
(10.1703 0.0153649 0)
(10.179 0.0424746 0)
(10.1999 0.0509705 0)
(10.2284 0.0436098 0)
(10.2571 0.0320108 0)
(10.2801 0.0289989 0)
(10.2954 0.0419515 0)
(10.3036 0.0684231 0)
(10.3081 0.103096 0)
(10.3107 0.133733 0)
(10.0246 0.0128998 0)
(10.0229 -0.0802272 0)
(10.0268 0.0214432 0)
(10.1114 0.0987079 0)
(10.1841 0.0775973 0)
(10.1795 0.0256115 0)
(10.1262 -0.000656159 0)
(10.0748 0.00701178 0)
(10.0495 0.0274439 0)
(10.0525 0.0390826 0)
(10.0749 0.0362229 0)
(10.1034 0.0250278 0)
(10.1299 0.0147652 0)
(10.1524 0.0108502 0)
(10.1725 0.0153844 0)
(10.1934 0.0268567 0)
(10.2166 0.0419597 0)
(10.2437 0.057876 0)
(10.1894 -0.0775286 0)
(10.2003 -0.126247 0)
(10.1375 -0.124934 0)
(10.0971 -0.0598059 0)
(10.0932 0.0063107 0)
(10.106 0.0514805 0)
(10.1294 0.0691013 0)
(10.1624 0.0607195 0)
(10.1936 0.0393181 0)
(10.2106 0.0154873 0)
(10.2091 -0.00556512 0)
(10.1915 -0.020442 0)
(10.1649 -0.0266065 0)
(10.1369 -0.0228596 0)
(10.1138 -0.00963516 0)
(10.0984 0.0105138 0)
(10.0919 0.0335279 0)
(10.0967 0.0546558 0)
(10.203 -0.201285 0)
(10.157 -0.0325802 0)
(10.0718 0.112548 0)
(9.95373 0.139263 0)
(9.87539 0.0934868 0)
(9.88973 0.0207658 0)
(9.96968 -0.0295097 0)
(10.0664 -0.0348903 0)
(10.1438 -0.0114541 0)
(10.1862 0.0203438 0)
(10.199 0.0463909 0)
(10.1956 0.0603439 0)
(10.1894 0.0626502 0)
(10.19 0.0584351 0)
(10.2022 0.0514302 0)
(10.2265 0.0434608 0)
(10.2621 0.0341856 0)
(10.3057 0.0221124 0)
(9.73319 -0.00837061 0)
(9.70733 -0.0770619 0)
(9.89012 0.00789721 0)
(10.1288 0.0502278 0)
(10.2763 0.0257016 0)
(10.3061 -0.0344493 0)
(10.2744 -0.0828574 0)
(10.2347 -0.0905806 0)
(10.2145 -0.0630872 0)
(10.2251 -0.0261942 0)
(10.2572 -0.00109218 0)
(10.2946 0.00502301 0)
(10.326 -0.00388683 0)
(10.3468 -0.0191139 0)
(10.3592 -0.0334599 0)
(10.3662 -0.0431386 0)
(10.3726 -0.0477081 0)
(10.3807 -0.0494803 0)
(10.3022 0.00440301 0)
(10.3102 -0.0980904 0)
(10.2345 -0.106653 0)
(10.1733 -0.0425517 0)
(10.1362 0.00847072 0)
(10.1381 0.0243616 0)
(10.1738 0.0175278 0)
(10.2173 0.000555608 0)
(10.2452 -0.0128412 0)
(10.2541 -0.0181635 0)
(10.2576 -0.0150571 0)
(10.269 -0.00481939 0)
(10.2939 0.00789883 0)
(10.3315 0.0179451 0)
(10.3783 0.0209981 0)
(10.4282 0.015822 0)
(10.4763 0.00390524 0)
(10.5166 -0.0119197 0)
(9.94692 -0.0878669 0)
(10.0134 -0.0254365 0)
(10.0549 0.0424103 0)
(10.1064 0.068817 0)
(10.1844 0.0250315 0)
(10.2441 -0.0620996 0)
(10.2643 -0.124385 0)
(10.2572 -0.121153 0)
(10.2479 -0.0750609 0)
(10.2574 -0.0292446 0)
(10.292 -0.00979345 0)
(10.3425 -0.0181223 0)
(10.3935 -0.0430884 0)
(10.4329 -0.0721154 0)
(10.4543 -0.0950735 0)
(10.4587 -0.107269 0)
(10.4485 -0.107267 0)
(10.429 -0.098056 0)
(9.97889 0.0108109 0)
(10.0368 -0.106782 0)
(10.0715 -0.112908 0)
(10.1828 -0.0680334 0)
(10.2971 -0.0339995 0)
(10.3242 -0.010842 0)
(10.2711 -0.000627608 0)
(10.1975 -0.00574972 0)
(10.1496 -0.0236033 0)
(10.1441 -0.0474975 0)
(10.1731 -0.0661412 0)
(10.2143 -0.0698136 0)
(10.246 -0.0576435 0)
(10.2564 -0.0365983 0)
(10.2447 -0.0165691 0)
(10.2198 -0.00336792 0)
(10.1898 0.00235074 0)
(10.1679 4.7368e-06 0)
(10.4351 -0.0594419 0)
(10.3009 -0.0708524 0)
(10.1657 -0.0494365 0)
(10.1342 -0.0353867 0)
(10.1682 -0.047124 0)
(10.2181 -0.0624409 0)
(10.2708 -0.0645649 0)
(10.3162 -0.0540388 0)
(10.3417 -0.0433798 0)
(10.3477 -0.042921 0)
(10.3427 -0.0521288 0)
(10.3312 -0.063037 0)
(10.3124 -0.0684672 0)
(10.2847 -0.0666036 0)
(10.2464 -0.0610266 0)
(10.2019 -0.0555153 0)
(10.157 -0.0531352 0)
(10.1253 -0.0569016 0)
(9.84858 0.0115405 0)
(9.76829 -0.00589892 0)
(9.64499 -0.0320407 0)
(9.49183 -0.044943 0)
(9.33842 -0.0479481 0)
(9.16207 -0.0468257 0)
(8.98561 -0.0421164 0)
(8.8451 -0.0358494 0)
(8.73526 -0.0356736 0)
(8.62651 -0.0439932 0)
(8.49841 -0.0525659 0)
(8.35657 -0.0504397 0)
(8.22454 -0.0334102 0)
(8.1276 -0.00672475 0)
(8.07262 0.0182948 0)
(8.04974 0.0332381 0)
(8.04119 0.0317462 0)
(8.01996 0.0140752 0)
(-0.0650918 0.312486 -2.64733e-20)
(-0.192524 0.177867 2.63013e-20)
(-0.268733 0.026977 0)
(-0.276168 -0.127891 0)
(-0.217874 -0.259844 0)
(-0.0791407 -0.380711 -2.56747e-20)
(0.178865 -0.453813 0)
(0.523345 -0.475365 0)
(0.876078 -0.440599 0)
(1.20707 -0.346691 0)
(1.45757 -0.198251 2.46459e-20)
(1.59701 -0.0120255 0)
(1.59213 0.177057 0)
(1.44473 0.345918 0)
(1.16779 0.492208 0)
(0.761812 0.516285 2.36789e-20)
(0.362885 0.329128 0)
(0.110581 0.0981228 0)
(-0.00810526 -0.029851 0)
(-0.0363389 -0.0844952 0)
(-0.0453981 -0.104548 0)
(-0.0932575 -0.107307 0)
(-0.195237 -0.0808036 0)
(-0.346587 -0.016663 2.23053e-20)
(-0.550673 0.0719154 -2.21354e-20)
(-0.809136 0.159537 2.19632e-20)
(-1.11445 0.228513 2.17878e-20)
(-1.45392 0.274336 0)
(-1.81626 0.300832 0)
(-2.19182 0.316549 -2.12323e-20)
(-2.57855 0.328089 -2.10285e-20)
(-2.97824 0.339725 0)
(-3.39301 0.357032 0)
(-3.82935 0.386893 -2.03128e-20)
(-4.28417 0.421467 0)
(-4.73239 0.412352 0)
(-5.11704 0.300711 1.94591e-20)
(-5.34734 0.0902692 0)
(-5.3608 -0.129231 1.88408e-20)
(-5.17923 -0.233706 3.69902e-20)
(-4.91481 -0.199675 0)
(-4.64329 -0.128288 0)
(-4.37345 -0.106729 0)
(-4.07803 -0.14819 0)
(-3.72921 -0.208908 0)
(-3.30931 -0.22275 3.24265e-20)
(-2.84219 -0.205031 3.17496e-20)
(-2.35097 -0.244872 3.1157e-20)
(-1.81408 -0.291236 0)
(-1.31717 -0.257273 -3.02809e-20)
(-0.877832 -0.205906 0)
(-0.534078 -0.159042 2.97801e-20)
(-0.337345 -0.117637 2.96164e-20)
(-0.296354 -0.096095 0)
(-0.371689 -0.0436043 0)
(-0.52618 0.0321497 0)
(-0.723363 0.109731 2.91694e-20)
(-0.933309 0.160508 0)
(-1.11304 0.161395 0)
(-1.19462 0.0874366 0)
(-1.12672 -0.0631555 0)
(-0.895838 -0.235241 0)
(-0.496462 -0.389 0)
(0.0810481 -0.509529 0)
(0.789931 -0.610822 0)
(1.55983 -0.685463 -2.60058e-20)
(2.35464 -0.701372 0)
(3.11804 -0.497674 0)
(3.64425 -0.18391 2.50923e-20)
(3.71472 -0.125043 2.47711e-20)
(3.25229 0.0292998 0)
(2.42282 0.450841 -2.39181e-20)
(1.91263 0.376513 2.35805e-20)
(1.84089 -0.0931137 0)
(1.90044 -0.394956 -2.29448e-20)
(1.90466 -0.357354 0)
(1.75394 -0.116558 0)
(1.42905 0.107439 2.25179e-20)
(1.01878 0.209197 0)
(0.599345 0.22985 -2.23818e-20)
(0.185971 0.225315 0)
(-0.232693 0.222686 2.23269e-20)
(-0.675848 0.233173 2.23124e-20)
(-1.16209 0.260351 2.23232e-20)
(-1.70631 0.30024 4.47289e-20)
(-2.31834 0.345834 -4.4888e-20)
(-2.99913 0.389598 0)
(-3.74043 0.425403 0)
(-4.5273 0.449702 0)
(-5.34195 0.461547 -4.66239e-20)
(-6.16661 0.461901 -4.73606e-20)
(-6.98541 0.452619 4.81964e-20)
(-7.78508 0.435567 0)
(-8.55469 0.412376 -5.00594e-20)
(-9.28526 0.384677 -5.10239e-20)
(-9.96942 0.353539 -5.19628e-20)
(-10.5996 0.318606 0)
(-11.166 0.279037 0)
(-11.6574 0.234846 0)
(-12.062 0.186611 -5.4533e-20)
(-12.3693 0.135057 0)
(-12.5704 0.0817752 0)
(-12.6599 0.0296445 5.37091e-20)
(-12.6365 -0.0189885 0)
(-12.5148 -0.0659348 0)
(-12.2865 -0.110705 4.95883e-20)
(-11.9609 -0.152788 0)
(-11.5381 -0.191834 0)
(-11.0285 -0.226366 -4.2701e-20)
(-10.4407 -0.255717 -4.00663e-20)
(-9.7876 -0.279022 0)
(-9.08098 -0.296812 3.47682e-20)
(-8.3312 -0.310032 0)
(-7.5454 -0.32032 -2.98467e-20)
(-6.72781 -0.329051 0)
(-5.88092 -0.336877 -2.55647e-20)
(-5.0071 -0.343664 -2.37051e-20)
(-4.111 -0.348028 0)
(-3.20128 -0.347793 0)
(-2.29042 -0.341318 0)
(-1.39453 -0.32722 0)
(-0.530894 -0.304302 0)
(0.274097 -0.277336 0)
(1.00553 -0.249901 0)
(1.66259 -0.217833 -1.79455e-20)
(2.24127 -0.186098 1.82588e-20)
(2.74106 -0.156345 0)
(3.16694 -0.129675 0)
(3.52704 -0.106885 0)
(3.83135 -0.0883222 0)
(4.09078 -0.073879 4.12168e-20)
(4.31606 -0.0632359 0)
(4.51708 -0.0558235 -4.26222e-20)
(4.70167 -0.0504387 4.30772e-20)
(4.87439 -0.0459977 0)
(5.03703 -0.042199 0)
(5.18862 -0.0371052 0)
(5.32184 -0.0278169 -4.31681e-20)
(5.42716 -0.0168226 -4.28256e-20)
(5.5027 -0.00399742 0)
(5.53755 0.0188103 -4.18411e-20)
(5.51191 0.0469199 -4.12382e-20)
(5.41957 0.0720783 4.05878e-20)
(5.26224 0.0898857 0)
(5.05185 0.0986405 0)
(4.80659 0.0988855 3.84903e-20)
(4.54547 0.0928017 0)
(4.28334 0.0831901 0)
(4.02854 0.0729336 0)
(3.78544 0.0631474 0)
(3.55615 0.0549808 -3.4994e-20)
(3.33915 0.050638 -3.43316e-20)
(3.13288 0.0482116 0)
(2.94414 0.0418715 -3.30094e-20)
(2.78658 0.0318793 0)
(2.66827 0.025937 0)
(2.58739 0.0254816 -3.0756e-20)
(2.54278 0.0215254 0)
(2.53843 0.0147168 -2.8979e-20)
(2.56128 0.0273769 0)
(2.54906 0.0732157 0)
(2.42703 0.122611 -2.62347e-20)
(2.19652 0.12725 0)
(1.94813 0.0857683 -2.47108e-20)
(1.77103 0.0353177 0)
(1.69716 -0.000348732 0)
(1.71091 -0.0238662 0)
(1.77439 -0.033174 2.17855e-20)
(1.84676 -0.031837 0)
(1.90249 -0.024187 -2.03651e-20)
(1.92349 -0.0111455 0)
(1.90572 0.00711957 0)
(1.84974 0.0216465 0)
(1.77077 0.0216858 0)
(1.68873 0.0128689 0)
(1.60347 0.00187472 0)
(1.5568 0.00691333 0)
(1.43681 0.00740408 3.11263e-20)
(1.46899 0.0457706 0)
(1.12209 0.0310335 0)
(0.129629 0.189816 7.9298e-20)
(0.364821 0.224575 -7.87468e-20)
(0.610344 0.118833 0)
(0.814798 0.0104966 5.18464e-20)
(0.937586 -0.143808 0)
(1.07102 -0.455071 2.55888e-20)
(1.1979 -0.816161 -5.0898e-20)
(1.32696 -1.02601 -5.05141e-20)
(1.4519 -1.0233 0)
(1.5468 -0.864794 -4.97874e-20)
(1.61595 -0.564109 -2.46224e-20)
(1.61614 -0.211056 0)
(1.5113 0.126199 0)
(1.33823 0.443951 0)
(1.1535 0.741221 0)
(0.945744 0.930023 -2.36455e-20)
(0.743905 0.887224 0)
(0.577412 0.624869 4.66493e-20)
(0.388704 0.314882 0)
(0.131446 0.144457 0)
(-0.188265 0.215326 -4.56229e-20)
(-0.560415 0.401489 0)
(-0.984665 0.559256 4.48908e-20)
(-1.43377 0.675482 -2.22262e-20)
(-1.88214 0.772834 2.20425e-20)
(-2.31869 0.853768 -2.18607e-20)
(-2.73929 0.914175 -2.16799e-20)
(-3.14276 0.953909 0)
(-3.52948 0.97642 0)
(-3.90118 0.988711 2.11248e-20)
(-4.25728 1.00077 -2.12991e-20)
(-4.59459 1.01948 0)
(-4.90606 1.04099 0)
(-5.1733 1.04799 2.02333e-20)
(-5.36982 1.00836 0)
(-5.47859 0.876747 0)
(-5.50508 0.61909 -1.94342e-20)
(-5.47738 0.252489 0)
(-5.41645 -0.143255 1.90877e-20)
(-5.31964 -0.464711 -3.69656e-20)
(-5.14279 -0.647885 0)
(-4.86593 -0.713329 0)
(-4.49276 -0.732543 -6.97707e-20)
(-4.04879 -0.78071 -6.8165e-20)
(-3.55508 -0.890095 -6.65958e-20)
(-2.99661 -1.02812 3.26946e-20)
(-2.36217 -1.13995 -3.17447e-20)
(-1.67102 -1.18981 -9.37524e-20)
(-0.943531 -1.15431 6.16461e-20)
(-0.237551 -1.03261 3.03069e-20)
(0.460862 -0.836665 0)
(1.06827 -0.546069 -2.97252e-20)
(1.5425 -0.180203 2.98914e-20)
(1.82743 0.159937 0)
(1.92725 0.398116 0)
(1.83459 0.498571 0)
(1.59487 0.469679 -2.91318e-20)
(1.30171 0.348245 0)
(1.03423 0.173531 5.82185e-20)
(0.838578 -0.0586284 0)
(0.782132 -0.354516 5.74059e-20)
(0.892346 -0.687288 0)
(1.13285 -0.98743 -5.5426e-20)
(1.46177 -1.2238 0)
(1.8393 -1.39519 5.31875e-20)
(2.24141 -1.43915 -2.62952e-20)
(2.57593 -1.37246 0)
(2.81793 -1.10148 -5.09533e-20)
(3.05713 -0.413594 -2.51109e-20)
(3.0799 0.5691 -2.47901e-20)
(2.69981 1.27485 0)
(2.41998 1.08913 -2.39798e-20)
(2.3875 0.313986 -2.35654e-20)
(1.96401 0.0517986 0)
(1.0948 0.334872 2.3011e-20)
(0.18407 0.601461 -4.56894e-20)
(-0.594071 0.724098 0)
(-1.23192 0.763041 -2.25553e-20)
(-1.76802 0.753883 0)
(-2.23733 0.730888 6.70379e-20)
(-2.6726 0.719123 0)
(-3.09752 0.731803 -6.66924e-20)
(-3.53134 0.771904 -2.21927e-20)
(-3.98993 0.835887 2.22694e-20)
(-4.48431 0.914199 4.46644e-20)
(-5.01845 0.994972 -4.48996e-20)
(-5.58895 1.06675 0)
(-6.18636 1.12078 0)
(-6.79816 1.15227 0)
(-7.4118 1.16029 1.39911e-19)
(-8.01642 1.14677 4.71784e-20)
(-8.60352 1.11502 -4.80305e-20)
(-9.16708 1.0685 0)
(-9.70298 1.01018 -5.0706e-20)
(-10.208 0.942317 5.0912e-20)
(-10.6789 0.865834 5.18694e-20)
(-11.111 0.779807 0)
(-11.498 0.682418 0)
(-11.8317 0.572399 0)
(-12.1024 0.44976 5.45101e-20)
(-12.3003 0.316299 0)
(-12.4176 0.175892 -1.09645e-19)
(-12.4492 0.0332671 -1.62127e-19)
(-12.394 -0.108174 1.06352e-19)
(-12.2354 -0.245833 0)
(-11.9817 -0.378457 5.04425e-20)
(-11.6275 -0.504064 0)
(-11.1815 -0.620335 9.11538e-20)
(-10.6478 -0.723561 -4.33385e-20)
(-10.0388 -0.810817 -4.06118e-20)
(-9.36634 -0.880231 0)
(-8.64391 -0.932613 -1.04675e-19)
(-7.88241 -0.971385 6.48232e-20)
(-7.08882 -1.00167 2.98345e-20)
(-6.2667 -1.0278 0)
(-5.4175 -1.05186 2.55528e-20)
(-4.54219 -1.07345 7.14472e-20)
(-3.64417 -1.08806 0)
(-2.73229 -1.08852 4.15864e-20)
(-1.81916 -1.06887 3.92624e-20)
(-0.921449 -1.02523 3.75171e-20)
(-0.0591751 -0.957976 0)
(0.743228 -0.88224 0)
(1.47265 -0.793355 0)
(2.12776 -0.697413 -1.80028e-20)
(2.7046 -0.602067 -1.82381e-20)
(3.20421 -0.512181 0)
(3.63196 -0.431314 -3.83891e-20)
(3.99624 -0.361876 -3.94126e-20)
(4.30723 -0.305039 0)
(4.57603 -0.260825 -4.11848e-20)
(4.81391 -0.228293 -8.42229e-20)
(5.03099 -0.205567 4.25905e-20)
(5.23531 -0.189807 4.33451e-20)
(5.43289 -0.177654 0)
(5.62577 -0.165635 0)
(5.80938 -0.149635 0)
(5.97738 -0.126638 4.31336e-20)
(6.12146 -0.0980723 -4.29665e-20)
(6.22249 -0.0660415 -8.48346e-20)
(6.27164 -0.0273271 4.18103e-20)
(6.28221 0.0227385 -4.13162e-20)
(6.26218 0.0787538 -4.05502e-20)
(6.21169 0.132361 0)
(6.12511 0.176497 0)
(5.99651 0.207076 3.8505e-20)
(5.82297 0.224059 0)
(5.60643 0.229909 0)
(5.35309 0.227958 -7.26451e-20)
(5.07154 0.221074 0)
(4.77165 0.211678 -3.4975e-20)
(4.46615 0.20068 3.42872e-20)
(4.17254 0.185546 0)
(3.9094 0.162253 -3.30168e-20)
(3.69146 0.129499 0)
(3.53192 0.0894603 0)
(3.44246 0.0466395 3.07311e-20)
(3.42023 0.00625873 -5.9763e-20)
(3.44036 -0.0248903 2.89562e-20)
(3.48299 -0.0373047 0)
(3.56024 -0.0112638 0)
(3.67577 0.0537253 -2.62091e-20)
(3.80003 0.116191 0)
(3.89691 0.13384 -2.46339e-20)
(3.95664 0.0943102 0)
(3.99171 0.0283356 0)
(4.01729 -0.0227406 0)
(4.05481 -0.0434622 -2.17426e-20)
(4.11375 -0.0376699 0)
(4.18642 -0.0173224 2.03258e-20)
(4.25234 0.00711786 0)
(4.29155 0.0272835 0)
(4.29694 0.0438007 -3.68204e-20)
(4.27117 0.0539426 3.56351e-20)
(4.22801 0.0651074 0)
(4.14861 0.0608749 0)
(4.06722 0.0646098 0)
(3.9121 0.0455801 -9.32125e-20)
(3.86156 0.0729756 0)
(3.59793 0.0549047 5.7774e-20)
(0.150183 -0.67596 -3.56826e-23)
(0.551798 -0.812771 1.04769e-19)
(0.970404 -0.820965 0)
(1.32845 -0.7788 -1.03445e-19)
(1.61676 -0.702585 0)
(1.86605 -0.715628 0)
(2.00136 -0.874402 -1.39941e-22)
(1.98802 -0.990067 5.03864e-20)
(1.88503 -0.905537 5.02745e-20)
(1.67678 -0.690122 4.97713e-20)
(1.41592 -0.286644 0)
(1.17872 0.278348 0)
(0.932122 0.74265 -4.89833e-20)
(0.700973 1.04178 -9.71133e-20)
(0.521583 1.21781 9.62165e-20)
(0.389063 1.21909 0)
(0.24769 1.03238 9.44236e-20)
(0.0212 0.837096 -4.66747e-20)
(-0.37103 0.841316 0)
(-0.909399 0.996302 9.19074e-20)
(-1.4779 1.17732 4.54134e-20)
(-2.03135 1.34414 -9.04464e-20)
(-2.57917 1.48387 -4.46471e-20)
(-3.11645 1.58604 0)
(-3.62957 1.64932 8.86681e-20)
(-4.10866 1.67414 8.81551e-20)
(-4.54812 1.66763 0)
(-4.94523 1.64044 8.71474e-20)
(-5.2995 1.60197 0)
(-5.60972 1.55858 8.60175e-20)
(-5.87055 1.51094 4.20286e-20)
(-6.07372 1.45069 0)
(-6.2095 1.36146 0)
(-6.26784 1.22363 0)
(-6.24561 1.0189 0)
(-6.15455 0.737875 0)
(-6.01776 0.394082 0)
(-5.86224 0.0326197 7.80998e-20)
(-5.71899 -0.292453 -1.14598e-19)
(-5.58951 -0.565714 0)
(-5.43073 -0.809112 0)
(-5.19277 -1.04477 0)
(-4.84828 -1.28338 -8.42729e-22)
(-4.40617 -1.52173 6.80367e-20)
(-3.89248 -1.74967 1.33745e-19)
(-3.3181 -1.95962 -1.30757e-19)
(-2.67909 -2.15029 -6.44289e-20)
(-1.9713 -2.3025 6.24457e-20)
(-1.20625 -2.36826 8.54555e-22)
(-0.388093 -2.2944 6.17089e-20)
(0.44642 -2.08744 0)
(1.24046 -1.72398 6.06639e-20)
(2.01328 -1.22283 9.2393e-22)
(2.7329 -0.679631 0)
(3.37445 -0.146221 0)
(3.89727 0.336022 -5.90112e-20)
(4.25638 0.69276 0)
(4.43063 0.868111 0)
(4.42042 0.825585 5.76206e-20)
(4.31523 0.531783 1.14349e-19)
(4.17245 0.0224412 -5.70296e-20)
(3.98142 -0.540743 0)
(3.80748 -0.997297 5.51171e-20)
(3.69651 -1.30957 0)
(3.57813 -1.52061 5.28854e-20)
(3.45265 -1.54248 5.20778e-20)
(3.26428 -1.32277 -1.03417e-19)
(2.87901 -0.936836 -5.15818e-20)
(2.49718 -0.302986 0)
(2.22831 0.500229 1.00241e-19)
(2.03306 0.921102 0)
(1.7528 0.912057 1.44143e-19)
(0.926815 1.09672 9.45874e-20)
(-0.181952 1.41391 9.34067e-20)
(-1.09271 1.54119 -9.24286e-20)
(-1.75177 1.50261 1.3721e-19)
(-2.23943 1.41239 0)
(-2.61317 1.30904 0)
(-2.91719 1.21274 -9.00215e-20)
(-3.1873 1.14059 -1.34227e-19)
(-3.45133 1.10799 0)
(-3.72929 1.12211 4.44115e-20)
(-4.03459 1.18058 0)
(-4.37619 1.27319 -1.33416e-19)
(-4.75814 1.38489 2.3029e-22)
(-5.17901 1.49794 -3.29193e-22)
(-5.63284 1.59557 9.05419e-20)
(-6.11076 1.66545 0)
(-6.60328 1.70151 -9.27905e-20)
(-7.10205 1.70385 8.07793e-22)
(-7.60059 1.67663 0)
(-8.09425 1.62563 0)
(-8.57996 1.55626 0)
(-9.05524 1.47238 1.00656e-19)
(-9.51704 1.37599 0)
(-9.96092 1.26714 0)
(-10.3803 1.14413 0)
(-10.766 1.00402 0)
(-11.105 0.843621 0)
(-11.3814 0.661287 1.11332e-19)
(-11.5794 0.458998 0)
(-11.6875 0.242405 1.09747e-19)
(-11.7004 0.017817 1.08512e-19)
(-11.6159 -0.209824 -1.06446e-19)
(-11.4331 -0.433753 0)
(-11.1536 -0.650818 -1.00101e-19)
(-10.7779 -0.857569 0)
(-10.309 -1.04922 -9.11968e-20)
(-9.7539 -1.21963 8.60638e-20)
(-9.1238 -1.36264 2.4383e-19)
(-8.43359 -1.475 0)
(-7.69908 -1.5576 2.1108e-19)
(-6.93325 -1.61676 6.59918e-20)
(-6.14318 -1.66206 0)
(-5.33067 -1.70178 1.12317e-19)
(-4.49517 -1.73968 1.04154e-19)
(-3.63474 -1.77522 -1.44455e-19)
(-2.75045 -1.80021 0)
(-1.85179 -1.80098 -4.15838e-20)
(-0.954205 -1.76542 -3.92598e-20)
(-0.07945 -1.69076 -1.13152e-19)
(0.748419 -1.58303 0)
(1.50921 -1.45238 0)
(2.19136 -1.3003 0)
(2.79107 -1.14045 -3.61851e-20)
(3.30906 -0.9832 0)
(3.74961 -0.836186 0)
(4.12026 -0.704943 3.83508e-20)
(4.43098 -0.593082 3.93786e-20)
(4.69327 -0.502332 0)
(4.91925 -0.432762 0)
(5.12093 -0.382867 8.41735e-20)
(5.30958 -0.349568 0)
(5.49499 -0.328504 -8.63462e-20)
(5.68451 -0.314149 -8.73786e-20)
(5.88229 -0.299318 0)
(6.08772 -0.276374 0)
(6.29534 -0.238907 8.67893e-20)
(6.49539 -0.181045 -3.08375e-22)
(6.66798 -0.102945 -2.60635e-22)
(6.78377 -0.0180567 0)
(6.8158 0.0607631 1.65137e-19)
(6.7581 0.128916 0)
(6.63407 0.187643 0)
(6.47505 0.241384 0)
(6.29833 0.289883 -7.69044e-20)
(6.10411 0.32975 0)
(5.8851 0.36039 1.4819e-19)
(5.63572 0.38325 7.26045e-20)
(5.35516 0.397495 0)
(5.04844 0.400126 6.98795e-20)
(4.72965 0.389041 0)
(4.42081 0.361204 0)
(4.14254 0.311504 1.98061e-19)
(3.90934 0.240516 -1.29344e-19)
(3.73522 0.159357 0)
(3.63648 0.0833489 -1.2311e-19)
(3.62442 0.0236097 5.97514e-20)
(3.68705 -0.0180735 0)
(3.78127 -0.0395275 0)
(3.86667 -0.0393476 0)
(3.95096 -0.0175254 1.57197e-19)
(4.06413 0.0127902 0)
(4.20174 0.0256848 4.92922e-20)
(4.33258 0.0100558 0)
(4.42955 -0.0246757 0)
(4.48662 -0.0566686 0)
(4.50541 -0.0805392 0)
(4.50301 -0.0954471 0)
(4.51339 -0.0955156 0)
(4.57228 -0.0691586 7.86725e-20)
(4.6832 -0.024828 0)
(4.81733 0.0206987 3.6805e-20)
(4.92672 0.0496441 -1.06857e-19)
(4.9963 0.0692488 0)
(5.01257 0.0743549 0)
(5.02006 0.0976602 6.43633e-20)
(4.97145 0.102178 6.20914e-20)
(4.95668 0.142946 -5.99007e-20)
(4.789 0.128301 -5.77176e-20)
(0.16396 -1.34766 -1.58505e-19)
(0.600801 -1.72385 -1.57307e-19)
(0.945689 -1.61382 -1.04363e-19)
(1.2205 -1.44522 -5.21347e-20)
(1.44531 -1.29898 0)
(1.60935 -1.19318 1.02858e-19)
(1.60333 -1.1053 -5.13658e-20)
(1.42415 -0.853405 0)
(1.17685 -0.366305 -5.04207e-20)
(0.905559 0.101742 0)
(0.612373 0.434738 1.00066e-19)
(0.391347 0.765848 0)
(0.185587 1.0694 4.90614e-20)
(-0.0104259 1.28882 9.72309e-20)
(-0.221227 1.42607 -9.62448e-20)
(-0.473917 1.50348 0)
(-0.843677 1.57968 -9.41716e-20)
(-1.34138 1.72324 0)
(-1.92784 1.92049 0)
(-2.55686 2.11926 -9.1359e-20)
(-3.18647 2.28988 0)
(-3.7919 2.42122 -9.2534e-22)
(-4.36332 2.49948 0)
(-4.89078 2.52142 0)
(-5.37096 2.49411 1.36417e-21)
(-5.80405 2.42689 -8.76815e-20)
(-6.19073 2.33021 -8.88342e-20)
(-6.53025 2.21214 -8.67303e-20)
(-6.82004 2.07745 0)
(-7.05542 1.92734 -1.73204e-19)
(-7.23115 1.75965 0)
(-7.34321 1.56929 -8.62443e-20)
(-7.38972 1.34929 0)
(-7.373 1.09303 0)
(-7.30181 0.796763 8.34057e-20)
(-7.1899 0.462575 0)
(-7.0511 0.10072 -8.10068e-20)
(-6.89286 -0.273892 1.72785e-21)
(-6.70802 -0.647289 1.54663e-19)
(-6.48382 -1.00298 -1.53217e-19)
(-6.21116 -1.3342 0)
(-5.88757 -1.64595 0)
(-5.51416 -1.94917 -7.31017e-20)
(-5.09431 -2.25764 0)
(-4.62807 -2.5768 -6.70961e-20)
(-4.11328 -2.89893 6.5589e-20)
(-3.55029 -3.20277 6.42186e-20)
(-2.94141 -3.44962 0)
(-2.29288 -3.58504 -6.21196e-20)
(-1.60971 -3.55262 -6.1457e-20)
(-0.876172 -3.32057 1.24489e-19)
(-0.167274 -2.90797 -6.06854e-20)
(0.575538 -2.34485 -6.02979e-20)
(1.32839 -1.78835 0)
(2.09584 -1.22876 0)
(2.85198 -0.663487 5.91066e-20)
(3.52726 -0.168017 0)
(4.08999 0.204955 0)
(4.50092 0.392662 -1.15449e-19)
(4.73526 0.345759 -1.14254e-19)
(4.81504 0.114578 0)
(4.72619 -0.201919 0)
(4.52285 -0.551618 0)
(4.26772 -0.8647 0)
(3.90437 -1.08759 -1.05823e-19)
(3.47418 -1.11338 1.0459e-19)
(3.02688 -0.820677 1.03557e-19)
(2.40711 -0.265552 2.05923e-19)
(1.6621 0.422211 0)
(1.001 1.12457 3.16624e-22)
(0.367782 1.69578 0)
(-0.400215 2.09972 -9.62855e-20)
(-1.18951 2.30702 8.00125e-22)
(-1.77734 2.28242 -9.30912e-20)
(-2.1541 2.12681 9.2174e-20)
(-2.39666 1.92168 6.99612e-22)
(-2.56093 1.72161 0)
(-2.68586 1.55161 9.09549e-20)
(-2.8016 1.42726 9.00093e-20)
(-2.93121 1.35688 1.79531e-19)
(-3.0914 1.34517 0)
(-3.29387 1.39209 -8.92369e-20)
(-3.54716 1.49134 0)
(-3.8561 1.62946 1.78255e-19)
(-4.21985 1.78636 -8.93046e-20)
(-4.63112 1.93838 8.9808e-20)
(-5.07695 2.06412 -9.05591e-20)
(-5.54197 2.14925 -1.8443e-19)
(-6.01237 2.18885 9.2808e-20)
(-6.47931 2.18614 -9.42764e-20)
(-6.9394 2.14909 0)
(-7.39238 2.08627 1.97568e-19)
(-7.83876 2.00409 0)
(-8.27833 1.90599 2.05624e-19)
(-8.70909 1.79248 -2.09748e-19)
(-9.1266 1.66169 -2.13808e-19)
(-9.5239 1.50979 2.17684e-19)
(-9.89116 1.33134 2.21214e-19)
(-10.2144 1.12033 0)
(-10.4759 0.873156 1.14747e-19)
(-10.6574 0.592597 0)
(-10.7457 0.288316 0)
(-10.7357 -0.0270309 2.2382e-19)