/*--------------------------------*- C++ -*----------------------------------*\
  =========                 |
  \\      /  F ield         | OpenFOAM: The Open Source CFD Toolbox
   \\    /   O peration     | Website:  https://openfoam.org
    \\  /    A nd           | Version:  9
     \\/     M anipulation  |
\*---------------------------------------------------------------------------*/
FoamFile
{
    format      ascii;
    class       volScalarField;
    location    "0.23";
    object      kU;
}
// * * * * * * * * * * * * * * * * * * * * * * * * * * * * * * * * * * * * * //

dimensions      [0 2 -2 0 0 0 0];

internalField   nonuniform List<scalar> 
12225
(
0.15723
0.132059
0.113089
0.0993394
0.0900928
0.0847547
0.0827806
0.0836266
0.0867424
0.091588
0.0976567
0.104498
0.111736
0.119077
0.126322
0.133361
0.140228
0.149272
0.180988
0.175036
0.173558
0.178273
0.189277
0.205964
0.2273
0.251973
0.278595
0.305873
0.332743
0.358428
0.382453
0.404634
0.425072
0.444119
0.462695
0.481415
0.184252
0.181318
0.178529
0.176483
0.175744
0.176521
0.178797
0.182422
0.187161
0.192734
0.198867
0.205325
0.211939
0.218627
0.225417
0.232497
0.240315
0.249669
0.184876
0.182078
0.179364
0.176863
0.174745
0.173107
0.171953
0.171236
0.170882
0.170806
0.170927
0.171181
0.171522
0.171932
0.172427
0.173069
0.173992
0.175418
0.185144
0.182628
0.180141
0.177737
0.175476
0.173406
0.171545
0.169887
0.168413
0.167091
0.165889
0.164778
0.163735
0.162745
0.161802
0.160912
0.160101
0.159413
0.185257
0.182932
0.180648
0.17842
0.176269
0.174221
0.172289
0.170476
0.168779
0.167187
0.165689
0.164271
0.162922
0.161631
0.160392
0.159201
0.158061
0.156982
0.1853
0.183073
0.180919
0.178833
0.176817
0.17488
0.173026
0.171257
0.169573
0.167971
0.166447
0.164995
0.163609
0.162283
0.161015
0.159801
0.158639
0.157538
0.185314
0.183129
0.181044
0.179048
0.177132
0.175294
0.173532
0.171845
0.170232
0.168689
0.167215
0.165807
0.164461
0.163174
0.161946
0.160774
0.159658
0.158608
0.185317
0.183148
0.181095
0.179144
0.177287
0.175515
0.173823
0.172206
0.170661
0.169184
0.167773
0.166424
0.165135
0.163905
0.162732
0.161616
0.160557
0.159566
0.185318
0.183153
0.181111
0.179181
0.177351
0.175615
0.173965
0.172395
0.170899
0.169472
0.168112
0.166814
0.165577
0.164398
0.163276
0.162212
0.161204
0.160266
0.185317
0.183153
0.181115
0.179191
0.177374
0.175654
0.174025
0.172479
0.171011
0.169616
0.16829
0.167027
0.165827
0.164686
0.163603
0.162578
0.16161
0.160711
0.185316
0.183153
0.181114
0.179193
0.177379
0.175665
0.174044
0.172508
0.171054
0.169673
0.168364
0.167121
0.165941
0.164822
0.163762
0.162759
0.161815
0.160938
0.185316
0.183152
0.181113
0.179192
0.177379
0.175667
0.174049
0.172518
0.17107
0.169697
0.168397
0.167164
0.165996
0.16489
0.163843
0.162855
0.161925
0.161061
0.185315
0.183151
0.181112
0.17919
0.177377
0.175666
0.174049
0.17252
0.171074
0.169705
0.168409
0.167182
0.16602
0.164921
0.163882
0.162901
0.161978
0.161121
0.185315
0.18315
0.18111
0.179188
0.177375
0.175664
0.174047
0.172519
0.171074
0.169707
0.168413
0.167188
0.166029
0.164933
0.163897
0.162918
0.161997
0.161141
0.185315
0.183149
0.181109
0.179187
0.177374
0.175662
0.174046
0.172518
0.171074
0.169707
0.168415
0.167191
0.166033
0.164938
0.163902
0.162923
0.162001
0.161141
0.185314
0.183148
0.181108
0.179186
0.177372
0.175661
0.174045
0.172518
0.171074
0.169708
0.168416
0.167193
0.166036
0.16494
0.163904
0.162923
0.161997
0.161134
0.185314
0.183148
0.181107
0.179185
0.177372
0.175661
0.174045
0.172518
0.171075
0.169709
0.168418
0.167195
0.166037
0.164941
0.163902
0.162919
0.161989
0.16112
0.185314
0.183147
0.181107
0.179185
0.177372
0.175661
0.174046
0.17252
0.171077
0.169711
0.168419
0.167196
0.166037
0.164939
0.163898
0.162912
0.161977
0.161102
0.185313
0.183147
0.181107
0.179185
0.177373
0.175663
0.174048
0.172523
0.17108
0.169715
0.168423
0.167198
0.166038
0.164938
0.163895
0.162905
0.161966
0.161086
0.185313
0.183147
0.181108
0.179187
0.177375
0.175666
0.174052
0.172526
0.171084
0.169719
0.168426
0.167201
0.166039
0.164937
0.163891
0.162897
0.161955
0.16107
0.185314
0.183148
0.181109
0.179189
0.177378
0.175669
0.174054
0.172528
0.171084
0.169717
0.168421
0.167192
0.166026
0.164918
0.163866
0.162866
0.161915
0.161022
0.185314
0.183149
0.18111
0.179189
0.177376
0.175663
0.174043
0.172509
0.171055
0.169676
0.168366
0.167122
0.165939
0.164813
0.163741
0.162721
0.161749
0.160835
0.185314
0.183147
0.181104
0.179173
0.177344
0.17561
0.173964
0.172398
0.170909
0.169491
0.16814
0.166853
0.165627
0.164458
0.163343
0.16228
0.161267
0.160313
0.18531
0.18313
0.18106
0.179085
0.177198
0.175392
0.173665
0.172015
0.17044
0.168939
0.167509
0.166149
0.164856
0.163628
0.162461
0.161354
0.160303
0.159316
0.185287
0.183044
0.180877
0.178778
0.176746
0.174787
0.172912
0.171129
0.169442
0.167854
0.166364
0.164971
0.163669
0.162454
0.161321
0.160265
0.159278
0.158366
0.185186
0.18276
0.180343
0.177951
0.17564
0.173466
0.171463
0.169646
0.168021
0.166584
0.165327
0.164239
0.163304
0.162508
0.161835
0.16127
0.1608
0.160417
0.184848
0.182094
0.179156
0.176266
0.173716
0.171644
0.17009
0.169051
0.168513
0.168446
0.168811
0.169562
0.170653
0.172035
0.17366
0.175486
0.177474
0.179581
0.182897
0.177326
0.172696
0.170056
0.169634
0.171359
0.17507
0.180554
0.187567
0.195852
0.20516
0.215252
0.225907
0.236929
0.248146
0.259416
0.270635
0.281649
0.168316
0.151169
0.136975
0.125248
0.115653
0.107926
0.101851
0.0972454
0.093943
0.0917921
0.0906513
0.0903893
0.0908837
0.0920215
0.0936997
0.0958248
0.0983144
0.101087
0.129533
0.186167
0.206721
0.209117
0.202555
0.191398
0.177899
0.165283
0.153251
0.14163
0.131093
0.123188
0.119525
0.119975
0.122108
0.123418
0.125625
0.140018
0.198761
0.281613
0.356176
0.423253
0.481512
0.530702
0.571197
0.603675
0.628954
0.647885
0.661303
0.669999
0.674704
0.676091
0.674766
0.671276
0.66613
0.659799
0.652554
0.644486
0.635693
0.626253
0.616228
0.605673
0.594633
0.583145
0.571234
0.558913
0.546181
0.533024
0.519418
0.505339
0.490771
0.475717
0.460213
0.44434
0.428231
0.412078
0.396147
0.380812
0.366646
0.354644
0.346832
0.346741
0.352884
0.361144
0.370577
0.380773
0.391344
0.401796
0.411424
0.419032
0.422682
0.419442
0.406776
0.385759
0.359481
0.326527
0.288231
0.248118
0.210465
0.178473
0.153536
0.135895
0.125461
0.121888
0.124072
0.12866
0.133763
0.138347
0.142267
0.14618
0.151004
0.157793
0.16618
0.178208
0.203301
0.261649
0.355489
0.435926
0.503294
0.557377
0.599448
0.631142
0.654083
0.669751
0.679452
0.684344
0.685472
0.683804
0.680278
0.674886
0.667874
0.659427
0.649667
0.638661
0.626413
0.612858
0.597846
0.581141
0.562429
0.541359
0.517615
0.49107
0.462108
0.433324
0.419195
0.418496
0.417939
0.41687
0.415541
0.414243
0.413177
0.412446
0.412068
0.411974
0.412017
0.412007
0.411662
0.409809
0.404243
0.392736
0.373376
0.344965
0.307701
0.263863
0.218001
0.176024
0.143061
0.121216
0.109027
0.103064
0.100048
0.0978584
0.095619
0.0932136
0.091994
0.0934221
0.0941105
0.0913068
0.090075
0.0834318
0.0755611
0.0685609
0.0638031
0.0615885
0.0614344
0.062879
0.0660874
0.0723862
0.0817927
0.0910546
0.0962036
0.128041
0.17239
0.206392
0.230179
0.244996
0.252977
0.257021
0.255588
0.249935
0.234258
0.326895
0.351025
0.345807
0.324784
0.299004
0.274363
0.254443
0.242109
0.241446
0.259368
0.305151
0.380904
0.474072
0.557982
0.586724
0.584005
0.573933
0.570211
0.571867
0.574058
0.576093
0.578094
0.580502
0.58374
0.588096
0.593708
0.60059
0.608669
0.617821
0.627898
0.638756
0.650265
0.662317
0.674812
0.687523
0.700424
0.713288
0.72592
0.738158
0.749888
0.761041
0.771569
0.781434
0.790583
0.79893
0.806339
0.812617
0.817519
0.82076
0.82205
0.821131
0.817822
0.812066
0.80396
0.793767
0.781901
0.768908
0.755423
0.742143
0.729767
0.719026
0.710904
0.704475
0.699302
0.694917
0.690692
0.685861
0.679706
0.671837
0.662476
0.651777
0.637739
0.613242
0.576363
0.538115
0.507553
0.487135
0.472886
0.455477
0.425426
0.379997
0.325956
0.274998
0.236675
0.215732
0.207286
0.204991
0.20631
0.215678
0.247709
0.311777
0.39229
0.447958
0.466065
0.47909
0.497498
0.516682
0.537688
0.560953
0.586261
0.61298
0.640396
0.667912
0.695128
0.72185
0.748083
0.774017
0.799334
0.824205
0.848707
0.872849
0.896587
0.919808
0.942298
0.963679
0.983339
1.00035
1.01343
1.02094
1.02103
1.01197
0.99235
0.960908
0.923691
0.88304
0.83886
0.792962
0.746824
0.701488
0.657622
0.615595
0.575561
0.537556
0.501513
0.467307
0.434873
0.403817
0.374305
0.347647
0.324397
0.30533
0.291325
0.283328
0.282185
0.288097
0.29993
0.314878
0.328843
0.337568
0.338156
0.330149
0.315209
0.295932
0.274281
0.251304
0.229844
0.21092
0.191797
0.173353
0.154835
0.136702
0.119885
0.106194
0.0974127
0.0943252
0.0969028
0.107575
0.133576
0.176988
0.223436
0.263258
0.300978
0.339164
0.374055
0.403986
0.428827
0.448528
0.462767
0.471267
0.283839
0.371868
0.417014
0.415128
0.393239
0.37079
0.360885
0.363841
0.385642
0.435625
0.52142
0.610723
0.672242
0.688162
0.668414
0.634989
0.603421
0.58022
0.566523
0.560224
0.559037
0.561686
0.567271
0.575039
0.584298
0.594426
0.604919
0.615443
0.625854
0.636172
0.646511
0.656993
0.667676
0.678507
0.689363
0.700556
0.711923
0.723224
0.734278
0.744993
0.755372
0.765509
0.775553
0.785672
0.796001
0.806589
0.817364
0.828099
0.838408
0.847769
0.855564
0.861154
0.863957
0.863537
0.859677
0.852421
0.842077
0.829182
0.81444
0.798664
0.782679
0.767676
0.755092
0.744476
0.735769
0.728801
0.723198
0.718375
0.713609
0.708256
0.702039
0.695194
0.687895
0.678796
0.663606
0.635874
0.596497
0.555282
0.520638
0.493806
0.469042
0.438742
0.399776
0.356116
0.315935
0.286967
0.275542
0.280062
0.30286
0.35881
0.444376
0.517912
0.5351
0.521486
0.515448
0.526318
0.552488
0.588976
0.631105
0.674124
0.714506
0.750654
0.782633
0.811385
0.838019
0.863392
0.887967
0.911812
0.934812
0.957333
0.979342
1.00081
1.02172
1.04208
1.06184
1.08082
1.09862
1.11445
1.12699
1.13438
1.13433
1.12451
1.1028
1.06922
1.03
0.985054
0.93634
0.886023
0.835775
0.786732
0.739576
0.694646
0.652051
0.61177
0.573695
0.537659
0.503509
0.470583
0.437749
0.404574
0.371634
0.33987
0.310498
0.284827
0.263928
0.248205
0.237161
0.229578
0.224037
0.219481
0.215393
0.211587
0.207973
0.204525
0.201287
0.198343
0.195562
0.192327
0.18753
0.180038
0.169293
0.155495
0.139645
0.123738
0.111469
0.107329
0.114504
0.138681
0.187149
0.251168
0.309303
0.362132
0.417129
0.464228
0.498314
0.523197
0.543218
0.559455
0.570583
0.575016
0.319387
0.471924
0.531886
0.520805
0.493103
0.482236
0.495872
0.522469
0.562946
0.610777
0.652259
0.670498
0.661232
0.633034
0.599696
0.57149
0.552519
0.542951
0.541153
0.544872
0.552108
0.56132
0.571271
0.580962
0.589649
0.596913
0.602727
0.607424
0.611568
0.61577
0.620522
0.6261
0.632541
0.639671
0.647312
0.654839
0.661767
0.667728
0.672515
0.676123
0.678764
0.680868
0.683032
0.685943
0.69027
0.696551
0.705082
0.715845
0.728471
0.742262
0.756259
0.769349
0.78039
0.788361
0.792486
0.79234
0.787882
0.779439
0.767631
0.753265
0.73722
0.721466
0.707061
0.694218
0.683278
0.674447
0.66774
0.662955
0.659683
0.657343
0.655257
0.652765
0.649381
0.644745
0.637924
0.626614
0.607091
0.577125
0.541835
0.508739
0.480491
0.454359
0.426625
0.397208
0.370799
0.354531
0.355973
0.385741
0.451253
0.532851
0.582412
0.570755
0.54121
0.52834
0.540515
0.574052
0.62088
0.672426
0.721975
0.765608
0.802344
0.833197
0.859878
0.883873
0.9061
0.926918
0.946306
0.96406
0.980542
0.996008
1.01038
1.02359
1.03569
1.0468
1.05711
1.06683
1.07599
1.08424
1.09063
1.09344
1.09031
1.07852
1.0558
1.02523
0.98812
0.945894
0.900815
0.854956
0.809856
0.766484
0.725338
0.686586
0.650186
0.615985
0.58378
0.553344
0.524431
0.496695
0.469454
0.441458
0.412198
0.381628
0.350469
0.320058
0.29174
0.266358
0.244142
0.224856
0.208039
0.193257
0.180265
0.169023
0.159616
0.152159
0.146746
0.14343
0.142151
0.14255
0.143785
0.144533
0.143296
0.138963
0.13145
0.122366
0.115512
0.116867
0.133162
0.170467
0.230765
0.300632
0.36962
0.442412
0.508434
0.555931
0.585752
0.605023
0.618256
0.626636
0.630053
0.626638
0.361108
0.605573
0.662758
0.643743
0.612245
0.594652
0.58922
0.596156
0.607102
0.614127
0.611404
0.597349
0.575962
0.553838
0.536555
0.52671
0.524212
0.527583
0.534916
0.544377
0.55442
0.563793
0.571556
0.577188
0.580679
0.582498
0.583432
0.584358
0.586038
0.588994
0.593471
0.599453
0.60671
0.614856
0.622912
0.629755
0.634574
0.636679
0.635575
0.631069
0.623365
0.61312
0.601443
0.589799
0.579834
0.573126
0.570923
0.573922
0.582149
0.594963
0.611181
0.629242
0.647397
0.663903
0.677226
0.686228
0.690282
0.689307
0.68368
0.674088
0.66154
0.648239
0.634883
0.622165
0.610694
0.600947
0.593235
0.587669
0.584143
0.582358
0.581848
0.581995
0.582031
0.581104
0.578416
0.573253
0.564462
0.550148
0.527905
0.50163
0.476689
0.455828
0.438909
0.425799
0.419536
0.427719
0.460588
0.523083
0.595581
0.630292
0.598409
0.551892
0.530742
0.540525
0.575907
0.62673
0.682531
0.735207
0.780277
0.816823
0.846225
0.870528
0.891414
0.909909
0.926495
0.9413
0.954256
0.965183
0.974572
0.982453
0.988627
0.99295
0.995425
0.996247
0.995819
0.994689
0.993374
0.992065
0.990301
0.986649
0.97884
0.964
0.942174
0.913876
0.879971
0.84235
0.803184
0.76433
0.727074
0.692124
0.659739
0.62988
0.602344
0.576858
0.553133
0.530876
0.509781
0.489484
0.469435
0.448589
0.426351
0.402286
0.376268
0.348791
0.320953
0.294027
0.268927
0.245987
0.225091
0.205943
0.188305
0.172113
0.15748
0.144615
0.133757
0.125124
0.118871
0.115004
0.113253
0.112969
0.11316
0.112759
0.111193
0.109305
0.110608
0.121506
0.149268
0.197537
0.263556
0.335692
0.413603
0.501191
0.576596
0.624669
0.651677
0.665698
0.670697
0.668349
0.660995
0.647019
0.39607
0.729629
0.792169
0.755239
0.69242
0.638851
0.606062
0.586853
0.573128
0.560083
0.546015
0.531681
0.519348
0.51128
0.508636
0.511208
0.517852
0.527055
0.537268
0.547083
0.555381
0.561487
0.565279
0.567175
0.567993
0.56872
0.570302
0.573482
0.578719
0.586173
0.595726
0.607014
0.619466
0.632344
0.644594
0.655238
0.663127
0.667035
0.665781
0.6584
0.644362
0.623799
0.597709
0.568033
0.537543
0.50947
0.486918
0.472227
0.466531
0.469664
0.480432
0.496983
0.517099
0.538406
0.558592
0.575668
0.588185
0.59541
0.597253
0.594131
0.587412
0.578584
0.568547
0.558099
0.547935
0.53865
0.530712
0.524408
0.519816
0.516824
0.51518
0.514557
0.514528
0.514505
0.513782
0.511765
0.507998
0.501615
0.491196
0.475849
0.459475
0.446899
0.441179
0.443636
0.456903
0.488337
0.546721
0.622567
0.668392
0.637549
0.568721
0.531489
0.532319
0.563829
0.614343
0.671767
0.726494
0.772965
0.80978
0.838247
0.860531
0.878494
0.893387
0.905951
0.916586
0.925458
0.932565
0.9378
0.941525
0.94345
0.943208
0.940507
0.93524
0.927578
0.918031
0.907408
0.896675
0.886515
0.877011
0.866991
0.854301
0.83764
0.815871
0.788869
0.757754
0.724419
0.690852
0.658642
0.628782
0.601705
0.577435
0.555759
0.536358
0.518885
0.503009
0.488412
0.474774
0.46173
0.448774
0.435012
0.419846
0.402795
0.383531
0.362057
0.338837
0.314727
0.290689
0.267462
0.245414
0.224604
0.204971
0.18649
0.169247
0.153413
0.139197
0.126806
0.116429
0.108206
0.102169
0.0981619
0.0958206
0.0946905
0.0945838
0.0963334
0.103144
0.121537
0.158909
0.216758
0.287133
0.361505
0.445765
0.540966
0.622386
0.674153
0.699897
0.709121
0.705503
0.691217
0.67151
0.646815
0.408525
0.823647
0.885038
0.821099
0.725776
0.647336
0.594233
0.559581
0.536016
0.519256
0.507423
0.499998
0.497015
0.49841
0.50368
0.511851
0.521638
0.531648
0.540605
0.547579
0.552166
0.554534
0.555321
0.555452
0.555934
0.557689
0.561439
0.56765
0.576516
0.587975
0.601726
0.617264
0.633899
0.651032
0.668771
0.686202
0.702019
0.71461
0.722134
0.722637
0.714264
0.695562
0.665915
0.626064
0.578575
0.527923
0.479844
0.439913
0.411962
0.397216
0.394718
0.402363
0.417607
0.437721
0.459874
0.481369
0.499877
0.513824
0.52246
0.525909
0.525376
0.52199
0.516586
0.509886
0.502541
0.495144
0.488194
0.482042
0.476842
0.472557
0.469056
0.466241
0.464105
0.462601
0.461444
0.460129
0.458163
0.455206
0.450774
0.443436
0.435282
0.430922
0.434893
0.450011
0.47944
0.530102
0.604543
0.673655
0.677662
0.605954
0.539916
0.522691
0.543926
0.589936
0.646826
0.703129
0.751669
0.789938
0.818726
0.840118
0.856144
0.868326
0.877713
0.885019
0.890704
0.894986
0.897891
0.899318
0.899313
0.897326
0.892824
0.885365
0.874702
0.860925
0.844581
0.826624
0.808409
0.790994
0.77503
0.759386
0.743342
0.724669
0.702174
0.67594
0.647131
0.617499
0.588769
0.562213
0.538508
0.517818
0.499969
0.484626
0.471411
0.45997
0.44999
0.441182
0.433256
0.425876
0.418577
0.410646
0.401494
0.390575
0.377469
0.361998
0.3443
0.324827
0.30422
0.283129
0.262056
0.241322
0.221118
0.201614
0.183013
0.165552
0.149466
0.134953
0.122171
0.111239
0.102235
0.0951799
0.090034
0.0867891
0.0857327
0.0880441
0.096985
0.119135
0.162385
0.227273
0.302031
0.378804
0.466379
0.56482
0.649271
0.703509
0.730104
0.735881
0.724555
0.699264
0.667087
0.632577
0.390895
0.846598
0.906231
0.835909
0.730583
0.640708
0.57856
0.53896
0.514578
0.500426
0.493578
0.492282
0.495355
0.50177
0.510413
0.52
0.529185
0.536771
0.541958
0.544476
0.544577
0.542914
0.540369
0.537897
0.5364
0.536639
0.539173
0.544334
0.552238
0.562823
0.575899
0.591169
0.608232
0.627579
0.649444
0.673113
0.697404
0.72071
0.741033
0.756045
0.763167
0.759671
0.742899
0.710794
0.662913
0.601818
0.533955
0.468642
0.414848
0.377542
0.356939
0.350685
0.355801
0.369379
0.388424
0.40989
0.430845
0.448823
0.462216
0.471067
0.476189
0.478235
0.477829
0.475551
0.471948
0.467524
0.46273
0.457898
0.453179
0.448528
0.443799
0.438967
0.434302
0.430292
0.427254
0.424988
0.422901
0.420467
0.417814
0.414408
0.411407
0.4127
0.423257
0.447124
0.488441
0.552648
0.632155
0.682361
0.652975
0.570304
0.520273
0.522548
0.558623
0.612115
0.669217
0.720514
0.761698
0.792502
0.814665
0.830298
0.841182
0.848667
0.853766
0.857212
0.859474
0.860745
0.860958
0.86011
0.857724
0.853167
0.845818
0.835142
0.820781
0.802716
0.781549
0.758263
0.734505
0.711618
0.690714
0.671509
0.652233
0.631339
0.608015
0.58248
0.555831
0.529581
0.505123
0.483369
0.464679
0.448968
0.435911
0.425102
0.416167
0.408796
0.402748
0.397808
0.393748
0.39028
0.386983
0.383286
0.378658
0.372524
0.3644
0.353988
0.341241
0.326359
0.309722
0.291782
0.272965
0.253633
0.234098
0.214664
0.195656
0.177413
0.160253
0.144443
0.13018
0.117597
0.106773
0.0977512
0.0905773
0.0854074
0.0827684
0.0840935
0.0927726
0.115464
0.160664
0.22942
0.308101
0.387101
0.475513
0.573702
0.658832
0.714881
0.742106
0.745279
0.7282
0.694919
0.653276
0.610488
0.390139
0.81229
0.878813
0.817481
0.71639
0.626832
0.564629
0.52662
0.505624
0.496039
0.494192
0.497641
0.504596
0.513522
0.522932
0.531401
0.537731
0.541148
0.541384
0.538648
0.533511
0.526779
0.519383
0.512278
0.506333
0.502239
0.500452
0.501208
0.504589
0.510627
0.519398
0.531022
0.545611
0.564655
0.58817
0.615642
0.646046
0.677836
0.709003
0.737198
0.759848
0.774183
0.777061
0.764829
0.733682
0.681423
0.610515
0.530202
0.454498
0.394979
0.35526
0.33348
0.326144
0.330155
0.342597
0.360347
0.380489
0.399068
0.415062
0.427915
0.437604
0.444392
0.448666
0.450837
0.451307
0.450461
0.44865
0.44614
0.44304
0.439247
0.434527
0.428767
0.422296
0.415959
0.410671
0.40672
0.403535
0.400288
0.396802
0.394007
0.392674
0.396295
0.410045
0.438987
0.488023
0.559413
0.63493
0.664477
0.617304
0.541152
0.508274
0.525966
0.571349
0.627265
0.681326
0.726659
0.761251
0.786053
0.80307
0.814277
0.821297
0.825418
0.827631
0.828635
0.828816
0.828252
0.826733
0.824174
0.819911
0.813272
0.803621
0.790442
0.773331
0.752131
0.727592
0.700679
0.672981
0.64715
0.623213
0.600757
0.578695
0.555995
0.532203
0.50764
0.483257
0.460258
0.439658
0.422009
0.407372
0.39546
0.385841
0.378098
0.371904
0.367038
0.363365
0.36078
0.359153
0.358264
0.357729
0.357028
0.355673
0.353093
0.348776
0.342351
0.333642
0.322682
0.309665
0.29488
0.278647
0.261288
0.243133
0.224539
0.205896
0.187608
0.170059
0.15358
0.138429
0.124788
0.112772
0.10245
0.0938881
0.0872669
0.0831457
0.0829976
0.0901901
0.1113
0.155251
0.22451
0.305593
0.386287
0.473758
0.569158
0.652996
0.709795
0.737489
0.739161
0.718529
0.680217
0.632444
0.58341
0.386957
0.750511
0.823592
0.778897
0.691544
0.610043
0.552937
0.519565
0.503488
0.498921
0.501784
0.509206
0.518952
0.529104
0.537975
0.544219
0.546958
0.545827
0.540913
0.53266
0.521787
0.509225
0.496035
0.483266
0.471795
0.462199
0.454742
0.449472
0.446403
0.44571
0.447878
0.453701
0.464163
0.481149
0.504461
0.533712
0.567998
0.605824
0.645111
0.683324
0.717758
0.745825
0.764935
0.771937
0.762181
0.729941
0.671912
0.59236
0.505765
0.43023
0.374382
0.33846
0.318989
0.312767
0.317207
0.328994
0.34501
0.362459
0.379341
0.394474
0.407335
0.417825
0.426064
0.432267
0.436681
0.439555
0.441126
0.441572
0.440935
0.439054
0.435587
0.430253
0.423248
0.415514
0.408413
0.402801
0.39831
0.393787
0.388662
0.384053
0.381483
0.3845
0.39862
0.429696
0.482613
0.555205
0.621475
0.634487
0.582154
0.519049
0.501406
0.528883
0.579163
0.634802
0.684758
0.724667
0.754005
0.774272
0.787485
0.795512
0.799887
0.801841
0.802302
0.801864
0.800767
0.798905
0.795907
0.791668
0.785514
0.776789
0.764882
0.749425
0.73008
0.706435
0.679435
0.650809
0.621811
0.5939
0.567669
0.542909
0.51895
0.495236
0.471641
0.448518
0.4266
0.406742
0.389596
0.375387
0.363926
0.35478
0.347472
0.341614
0.336956
0.333384
0.330879
0.329467
0.329149
0.329819
0.331159
0.332655
0.333811
0.334026
0.332738
0.329508
0.324072
0.316347
0.306405
0.294419
0.280622
0.265285
0.248723
0.231304
0.213446
0.195589
0.178158
0.161523
0.145987
0.131769
0.119019
0.107836
0.0983084
0.0906144
0.0852706
0.083649
0.0889166
0.107321
0.147821
0.214491
0.29566
0.377052
0.462301
0.553123
0.633986
0.690396
0.718405
0.71964
0.697535
0.65682
0.605699
0.552763
0.37735
0.679058
0.758093
0.733038
0.663753
0.59379
0.543569
0.515348
0.504083
0.5042
0.511384
0.522375
0.534531
0.545636
0.553941
0.558262
0.557996
0.553028
0.543607
0.530285
0.513911
0.495613
0.476672
0.45828
0.441294
0.426107
0.412695
0.400841
0.390466
0.381988
0.376533
0.375937
0.382729
0.397587
0.420027
0.449623
0.485612
0.526758
0.571179
0.616283
0.659035
0.696579
0.7265
0.746696
0.753621
0.740718
0.700994
0.633092
0.547447
0.466043
0.400541
0.354222
0.324813
0.309328
0.305401
0.310569
0.322012
0.336951
0.353126
0.368996
0.383674
0.396734
0.408037
0.417595
0.425497
0.431866
0.436822
0.44045
0.442723
0.443427
0.442141
0.438421
0.432235
0.424403
0.41649
0.409854
0.404487
0.398973
0.392046
0.384544
0.378913
0.379255
0.391661
0.422505
0.475736
0.544678
0.599706
0.601656
0.551928
0.503064
0.497239
0.530243
0.581315
0.634443
0.680542
0.716382
0.742111
0.759341
0.769946
0.775875
0.778602
0.779278
0.778712
0.777343
0.775257
0.772192
0.767669
0.761634
0.753465
0.742545
0.728239
0.710385
0.689055
0.664158
0.636366
0.606837
0.57697
0.548036
0.520638
0.494699
0.469918
0.446176
0.423577
0.402396
0.38309
0.366191
0.352038
0.340597
0.331499
0.324233
0.318334
0.313477
0.309495
0.306352
0.304121
0.302937
0.302946
0.304203
0.306539
0.309542
0.312681
0.315277
0.316654
0.316246
0.313669
0.308742
0.30145
0.291897
0.280265
0.266791
0.251776
0.235591
0.218663
0.201452
0.184411
0.16794
0.152371
0.137949
0.124844
0.113172
0.103031
0.0945902
0.0883051
0.0853955
0.0887182
0.103987
0.139778
0.201451
0.280131
0.360745
0.442746
0.527754
0.604212
0.659101
0.68715
0.688709
0.666723
0.625731
0.57361
0.519077
0.361255
0.608798
0.69418
0.688743
0.638438
0.580681
0.536975
0.51277
0.505045
0.508828
0.519693
0.534013
0.548746
0.561409
0.57018
0.573957
0.572267
0.56508
0.552663
0.535583
0.514781
0.491591
0.46756
0.444099
0.42214
0.401986
0.383406
0.365943
0.349342
0.334029
0.321593
0.315376
0.32075
0.334828
0.356661
0.385581
0.421016
0.462208
0.507805
0.55556
0.602413
0.645242
0.681247
0.708598
0.725125
0.72489
0.699919
0.646535
0.571944
0.492582
0.423496
0.370977
0.334464
0.311807
0.301216
0.300701
0.307754
0.31973
0.334343
0.349903
0.36531
0.379909
0.393346
0.405458
0.416193
0.425561
0.433587
0.440268
0.44551
0.449053
0.450431
0.449088
0.44477
0.438062
0.430521
0.423852
0.418472
0.412866
0.404912
0.394658
0.385285
0.381774
0.390983
0.419512
0.469773
0.531565
0.575305
0.570826
0.527403
0.491215
0.493489
0.528653
0.578332
0.628313
0.670919
0.703615
0.726785
0.742027
0.751194
0.756038
0.757958
0.758008
0.756857
0.754785
0.75172
0.747304
0.741094
0.73311
0.722777
0.709603
0.693254
0.673642
0.650792
0.624866
0.596455
0.566614
0.536648
0.507652
0.480118
0.454073
0.429564
0.406806
0.385964
0.36711
0.350422
0.336178
0.324497
0.315163
0.307711
0.301631
0.296523
0.292139
0.288363
0.285189
0.282712
0.281116
0.280652
0.281554
0.283876
0.28751
0.291937
0.29644
0.300202
0.302456
0.302616
0.300337
0.295502
0.288163
0.27848
0.26669
0.253098
0.238083
0.222084
0.205577
0.189034
0.172881
0.157471
0.143073
0.129874
0.117996
0.107537
0.098646
0.0917103
0.0877776
0.0893458
0.101479
0.13206
0.187194
0.26105
0.339122
0.416979
0.495362
0.566214
0.618438
0.646047
0.648275
0.62743
0.587737
0.536583
0.482623
0.33624
0.54044
0.634905
0.649447
0.61804
0.572361
0.534151
0.512086
0.505822
0.51154
0.52497
0.542209
0.559846
0.575076
0.585866
0.591047
0.590094
0.582961
0.569845
0.551215
0.527976
0.501538
0.473655
0.446026
0.419872
0.395722
0.373499
0.352863
0.333676
0.316361
0.302075
0.294208
0.297727
0.31016
0.329961
0.356261
0.388673
0.426797
0.469716
0.51562
0.561719
0.604753
0.642108
0.67227
0.693154
0.699696
0.684151
0.641403
0.575981
0.50218
0.434796
0.380948
0.34119
0.314405
0.29954
0.295052
0.298717
0.308085
0.32098
0.335723
0.351142
0.366459
0.381184
0.395026
0.407831
0.41953
0.430081
0.439412
0.447372
0.453658
0.457773
0.45909
0.457181
0.452369
0.446072
0.440213
0.435676
0.431102
0.423725
0.412099
0.399594
0.392097
0.397244
0.421628
0.466096
0.518511
0.551823
0.544061
0.507908
0.481778
0.488898
0.523829
0.570869
0.61757
0.657226
0.687635
0.709177
0.723324
0.731799
0.736203
0.737828
0.737604
0.736062
0.733353
0.729299
0.723515
0.715722
0.705911
0.693596
0.678422
0.660223
0.63899
0.614843
0.588085
0.559356
0.529685
0.500245
0.471923
0.445082
0.419879
0.39666
0.375791
0.357284
0.340924
0.326669
0.314658
0.304887
0.297047
0.290661
0.285296
0.280653
0.276547
0.272869
0.269578
0.266721
0.264456
0.263061
0.262898
0.264296
0.267504
0.272213
0.277798
0.283383
0.288001
0.290791
0.291145
0.288757
0.283581
0.275756
0.265533
0.253251
0.239315
0.22419
0.20837
0.192345
0.176564
0.1614
0.147143
0.133992
0.122081
0.111507
0.102397
0.0950693
0.0903964
0.0904992
0.0997462
0.125148
0.173026
0.240302
0.314104
0.387042
0.45834
0.522629
0.571033
0.597476
0.600294
0.581104
0.543805
0.495271
0.443907
0.316978
0.478326
0.573299
0.609101
0.599127
0.568086
0.536723
0.516177
0.509305
0.514415
0.528125
0.546685
0.566507
0.5845
0.598346
0.606613
0.608592
0.604063
0.593081
0.575966
0.553445
0.52677
0.497638
0.46787
0.439007
0.412049
0.387456
0.365381
0.346014
0.32982
0.317751
0.312172
0.314244
0.323311
0.338835
0.360534
0.388247
0.421652
0.45994
0.501509
0.543842
0.583937
0.619278
0.64825
0.668759
0.676042
0.66284
0.624319
0.564634
0.496796
0.43387
0.381977
0.342039
0.313902
0.297178
0.290637
0.292263
0.299819
0.311307
0.325157
0.340217
0.355674
0.370977
0.385772
0.399858
0.413129
0.425513
0.436907
0.447119
0.45581
0.462454
0.466372
0.466982
0.464333
0.459608
0.454845
0.451463
0.448606
0.443249
0.432668
0.419049
0.408708
0.409769
0.428709
0.465334
0.507248
0.531267
0.521962
0.492462
0.473628
0.483022
0.516104
0.559807
0.603283
0.640486
0.669297
0.689929
0.703644
0.71198
0.716384
0.718024
0.717709
0.715865
0.712568
0.707623
0.700672
0.691471
0.68002
0.665952
0.649032
0.629204
0.606566
0.58136
0.554016
0.525268
0.496139
0.467668
0.440541
0.415051
0.391516
0.370475
0.352194
0.336324
0.322356
0.310162
0.299877
0.291454
0.28457
0.278825
0.273914
0.269634
0.265825
0.262339
0.25906
0.255948
0.253085
0.250703
0.249192
0.24908
0.250963
0.254866
0.260431
0.266901
0.273226
0.278293
0.281163
0.281231
0.278258
0.272301
0.263615
0.25258
0.239651
0.225335
0.210157
0.194634
0.179231
0.164344
0.150278
0.137246
0.125392
0.114816
0.10563
0.0980981
0.092929
0.0918745
0.0986061
0.119186
0.159747
0.2194
0.287519
0.35494
0.419034
0.476147
0.519661
0.544011
0.546973
0.529537
0.49539
0.450904
0.403997
0.301885
0.455969
0.52348
0.566778
0.577152
0.563632
0.542035
0.524381
0.516393
0.519052
0.530692
0.548421
0.568936
0.589083
0.606266
0.618672
0.625239
0.625463
0.619198
0.606573
0.588067
0.564612
0.537602
0.508716
0.479621
0.451712
0.426
0.403171
0.383734
0.368153
0.35703
0.351965
0.352974
0.359778
0.372247
0.390362
0.414053
0.442977
0.476276
0.51238
0.548971
0.583426
0.613602
0.637928
0.654009
0.656893
0.63995
0.600001
0.542639
0.480094
0.422629
0.374364
0.336306
0.309065
0.292611
0.2858
0.286744
0.293418
0.304037
0.317175
0.331751
0.346972
0.362286
0.377341
0.391945
0.406006
0.419467
0.43223
0.444098
0.454713
0.46353
0.469822
0.47287
0.472414
0.46928
0.465463
0.462942
0.461741
0.459178
0.451961
0.439912
0.428912
0.426806
0.439851
0.467586
0.498778
0.514595
0.504433
0.480216
0.466187
0.475923
0.506075
0.546012
0.586319
0.621417
0.649112
0.669352
0.68312
0.691735
0.696472
0.698365
0.698119
0.696089
0.692319
0.686618
0.678655
0.668204
0.655333
0.63978
0.621409
0.600256
0.576515
0.550539
0.52289
0.494405
0.466112
0.43893
0.413397
0.389823
0.368701
0.35056
0.335274
0.322008
0.310068
0.299429
0.290322
0.282723
0.276367
0.27099
0.266418
0.2625
0.259044
0.255834
0.252683
0.249486
0.246249
0.243121
0.240427
0.238733
0.238829
0.241106
0.245596
0.251844
0.258916
0.265582
0.270601
0.273004
0.272245
0.268205
0.261083
0.251284
0.239323
0.225765
0.211184
0.196129
0.181092
0.166485
0.152628
0.139748
0.127996
0.117474
0.10829
0.100664
0.0951718
0.0932301
0.0978461
0.114128
0.147744
0.199389
0.260879
0.322422
0.379553
0.429357
0.46721
0.488535
0.490992
0.475166
0.444715
0.405495
0.364622
0.298877
0.485364
0.512632
0.536228
0.551982
0.553655
0.544922
0.533653
0.526403
0.526536
0.534635
0.549426
0.568584
0.589369
0.609158
0.625811
0.637826
0.644295
0.644765
0.639127
0.627594
0.610739
0.589533
0.565279
0.539464
0.513558
0.488859
0.466422
0.447054
0.431358
0.419848
0.413663
0.412631
0.416873
0.42644
0.441293
0.461194
0.485568
0.513354
0.542903
0.572082
0.598756
0.621267
0.638012
0.645972
0.639829
0.614234
0.569154
0.512523
0.45503
0.403186