/*--------------------------------*- C++ -*----------------------------------*\
  =========                 |
  \\      /  F ield         | OpenFOAM: The Open Source CFD Toolbox
   \\    /   O peration     | Website:  https://openfoam.org
    \\  /    A nd           | Version:  9
     \\/     M anipulation  |
\*---------------------------------------------------------------------------*/
FoamFile
{
    format      ascii;
    class       volScalarField;
    location    "0.032";
    object      k;
}
// * * * * * * * * * * * * * * * * * * * * * * * * * * * * * * * * * * * * * //

dimensions      [0 2 -2 0 0 0 0];

internalField   nonuniform List<scalar> 
12225
(
2.28842e-05
5.77552e-05
8.07534e-05
8.2236e-05
6.85201e-05
3.74444e-05
2.5417e-05
2.46488e-05
3.20182e-05
7.22796e-05
0.000124164
0.000145078
0.000147316
0.000138981
0.000109099
9.01724e-05
8.44649e-05
0.000105059
2.01782e-05
2.49868e-05
3.01337e-05
3.06119e-05
2.92975e-05
2.44834e-05
2.17355e-05
2.12809e-05
2.19133e-05
2.5651e-05
3.82369e-05
6.50594e-05
8.41354e-05
9.16639e-05
9.19351e-05
9.05601e-05
8.54411e-05
8.42102e-05
2.00455e-05
1.60952e-05
1.63577e-05
1.67302e-05
1.71078e-05
1.72638e-05
1.73103e-05
1.73539e-05
1.74484e-05
1.772e-05
1.85551e-05
2.14012e-05
2.55908e-05
2.8396e-05
3.2356e-05
3.55345e-05
3.63533e-05
3.6078e-05
2.01529e-05
2.00789e-05
2.00791e-05
2.03024e-05
2.03318e-05
2.00713e-05
1.90304e-05
1.87615e-05
1.8862e-05
1.88947e-05
1.87112e-05
1.80436e-05
1.78305e-05
1.78793e-05
1.82493e-05
1.87674e-05
1.89343e-05
1.89336e-05
2.5796e-05
2.41448e-05
2.75538e-05
3.52255e-05
3.20469e-05
2.56321e-05
2.30139e-05
2.24409e-05
2.26844e-05
2.44965e-05
2.52136e-05
2.46929e-05
2.46336e-05
2.65427e-05
2.92593e-05
2.95575e-05
2.89011e-05
2.61883e-05
2.12221e-05
2.11895e-05
2.16757e-05
2.24443e-05
2.23332e-05
2.21606e-05
2.23971e-05
2.40615e-05
2.44551e-05
2.41995e-05
2.34134e-05
2.29007e-05
2.27855e-05
2.28464e-05
2.32794e-05
2.49372e-05
2.70155e-05
2.77136e-05
2.31877e-05
2.0982e-05
2.10208e-05
2.16113e-05
2.16638e-05
2.16292e-05
2.17092e-05
2.28318e-05
2.38657e-05
2.34024e-05
2.18976e-05
2.10551e-05
2.09036e-05
2.11478e-05
2.19982e-05
2.21841e-05
2.22108e-05
2.234e-05
2.17739e-05
2.10417e-05
2.11015e-05
2.1623e-05
2.19004e-05
2.22617e-05
2.30408e-05
2.31115e-05
2.25162e-05
2.15981e-05
2.11471e-05
2.10191e-05
2.10466e-05
2.13686e-05
2.28329e-05
2.52934e-05
2.88814e-05
3.07534e-05
2.06759e-05
2.02027e-05
2.0313e-05
2.09371e-05
2.16832e-05
2.34543e-05
2.52405e-05
2.58031e-05
2.54162e-05
2.40803e-05
2.37213e-05
2.39735e-05
2.60697e-05
3.61602e-05
7.93493e-05
0.000131964
0.000156465
0.000158758
2.16426e-05
2.03431e-05
2.03985e-05
2.07741e-05
2.11063e-05
2.17187e-05
2.2104e-05
2.21815e-05
2.20879e-05
2.1885e-05
2.18989e-05
2.21326e-05
2.33896e-05
2.87043e-05
4.20649e-05
7.67521e-05
0.000117336
0.000139368
2.03504e-05
2.11862e-05
2.13907e-05
2.14209e-05
2.16312e-05
2.22275e-05
2.2504e-05
2.25706e-05
2.26528e-05
2.31395e-05
2.38328e-05
2.3623e-05
2.31629e-05
2.32916e-05
2.43587e-05
2.81537e-05
4.02011e-05
6.12398e-05
2.03671e-05
2.16583e-05
2.20763e-05
2.16792e-05
2.10403e-05
2.08616e-05
2.08475e-05
2.0921e-05
2.14069e-05
2.39838e-05
2.72604e-05
2.80839e-05
2.72543e-05
2.40857e-05
2.28599e-05
2.28255e-05
2.34379e-05
2.71133e-05
2.0689e-05
2.09453e-05
2.09778e-05
2.09826e-05
2.10879e-05
2.12504e-05
2.13042e-05
2.13663e-05
2.15637e-05
2.26115e-05
2.40786e-05
2.43766e-05
2.39645e-05
2.22323e-05
2.10972e-05
2.08338e-05
2.09484e-05
2.21885e-05
2.05241e-05
2.04216e-05
2.05898e-05
2.12314e-05
2.21889e-05
2.26822e-05
2.28504e-05
2.29874e-05
2.34166e-05
2.5637e-05
2.84884e-05
2.92566e-05
2.8925e-05
2.65805e-05
2.38484e-05
2.23863e-05
2.14871e-05
2.1084e-05
2.23876e-05
2.09633e-05
2.05488e-05
2.07923e-05
2.16158e-05
2.23738e-05
2.26605e-05
2.27157e-05
2.27549e-05
2.28781e-05
2.29796e-05
2.28876e-05
2.23034e-05
2.19686e-05
2.19959e-05
2.20642e-05
2.19378e-05
2.14271e-05
2.65391e-05
2.57001e-05
2.22149e-05
2.1938e-05
2.29033e-05
2.36283e-05
2.35126e-05
2.30493e-05
2.28112e-05
2.24327e-05
2.19228e-05
2.15999e-05
2.15231e-05
2.15559e-05
2.16651e-05
2.16682e-05
2.1435e-05
2.10285e-05
2.02962e-05
2.054e-05
2.08129e-05
2.14368e-05
2.3502e-05
2.97208e-05
3.17871e-05
3.06797e-05
2.57022e-05
2.24969e-05
2.1549e-05
2.14648e-05
2.18247e-05
2.25731e-05
2.2804e-05
2.27706e-05
2.24162e-05
2.18786e-05
2.03846e-05
2.09741e-05
2.12737e-05
2.23282e-05
2.39041e-05
2.3888e-05
2.27165e-05
2.1527e-05
2.09614e-05
2.07845e-05
2.0786e-05
2.1005e-05
2.21894e-05
2.32129e-05
2.33763e-05
2.31934e-05
2.25185e-05
2.20031e-05
2.0476e-05
2.03381e-05
2.02187e-05
2.03093e-05
2.07976e-05
2.13726e-05
2.16567e-05
2.17118e-05
2.17015e-05
2.15936e-05
2.13381e-05
2.11953e-05
2.11495e-05
2.11454e-05
2.11506e-05
2.11689e-05
2.12127e-05
2.13221e-05
2.15054e-05
2.08597e-05
2.05335e-05
2.04896e-05
2.05203e-05
2.06106e-05
2.0698e-05
2.07081e-05
2.07106e-05
2.07745e-05
2.1157e-05
2.13026e-05
2.12092e-05
2.10091e-05
2.09435e-05
2.0944e-05
2.10064e-05
2.13268e-05
2.07581e-05
2.11015e-05
2.12717e-05
2.12788e-05
2.16425e-05
2.26679e-05
2.31538e-05
2.30639e-05
2.23771e-05
2.16499e-05
2.1362e-05
2.10546e-05
2.07071e-05
2.0545e-05
2.05003e-05
2.04961e-05
2.05075e-05
2.05575e-05
2.13463e-05
2.12992e-05
2.0773e-05
2.07128e-05
2.11378e-05
2.26303e-05
2.41558e-05
2.46918e-05
2.44028e-05
2.32492e-05
2.25559e-05
2.21097e-05
2.17171e-05
2.13809e-05
2.11451e-05
2.10188e-05
2.09752e-05
2.0972e-05
2.15039e-05
2.09687e-05
2.05332e-05
2.07083e-05
2.13818e-05
2.17449e-05
2.18963e-05
2.19455e-05
2.19073e-05
2.17052e-05
2.14748e-05
2.12995e-05
2.11701e-05
2.1099e-05
2.10721e-05
2.10435e-05
2.10134e-05
2.09825e-05
2.14181e-05
2.15725e-05
2.23969e-05
2.27498e-05
2.24244e-05
2.18771e-05
2.16301e-05
2.14741e-05
2.12759e-05
2.11237e-05
2.10997e-05
2.11258e-05
2.12712e-05
2.18298e-05
2.26688e-05
2.32794e-05
2.36307e-05
2.37531e-05
2.52223e-05
2.9636e-05
3.36046e-05
3.38329e-05
2.932e-05
2.42326e-05
2.22794e-05
2.14693e-05
2.10723e-05
2.08829e-05
2.08268e-05
2.08282e-05
2.0863e-05
2.09292e-05
2.09911e-05
2.10969e-05
2.13178e-05
2.1985e-05
2.46304e-05
2.37066e-05
2.45157e-05
3.00482e-05
3.17894e-05
2.93325e-05
2.49235e-05
2.26597e-05
2.1519e-05
2.09837e-05
2.07828e-05
2.07377e-05
2.07434e-05
2.07885e-05
2.0848e-05
2.09562e-05
2.12322e-05
2.22134e-05
2.02865e-05
2.02505e-05
2.02756e-05
2.03389e-05
2.08025e-05
2.21901e-05
2.28571e-05
2.28759e-05
2.2309e-05
2.11738e-05
2.05718e-05
2.02661e-05
1.99381e-05
1.92574e-05
1.79609e-05
1.66983e-05
1.60372e-05
1.59847e-05
2.00137e-05
1.59508e-05
1.46937e-05
1.47605e-05
1.48512e-05
1.49589e-05
1.51713e-05
1.56239e-05
1.60796e-05
1.6511e-05
1.68266e-05
1.69803e-05
1.70151e-05
1.70049e-05
1.69215e-05
1.65938e-05
1.53795e-05
1.3705e-05
2.01272e-05
2.03161e-05
2.03459e-05
2.03252e-05
2.02355e-05
2.01937e-05
2.02321e-05
2.05114e-05
2.16939e-05
2.4974e-05
2.73894e-05
2.83732e-05
2.85471e-05
2.85061e-05
2.82096e-05
2.78814e-05
2.77992e-05
2.76968e-05
8.9457e-05
4.15418e-05
2.75959e-05
2.34524e-05
2.14459e-05
2.09592e-05
2.12458e-05
2.3649e-05
3.3399e-05
4.37352e-05
4.93993e-05
5.20255e-05
5.3012e-05
5.32423e-05
5.32141e-05
5.28755e-05
5.15068e-05
4.70549e-05
0.0378855
0.0481713
0.049161
0.0532955
0.0579457
0.0592795
0.0575964
0.0576009
0.059499
0.0632159
0.0626735
0.0604109
0.0581235
0.056011
0.0548691
0.053901
0.0534542
0.0529856
0.0525209
0.0523027
0.0520185
0.0516515
0.0508031
0.0487276
0.0437689
0.0158953
0.00432989
0.0114222
0.0122568
0.0132119
0.0162146
0.0196384
0.0306777
0.0499077
0.0553326
0.0537522
0.0455812
0.049136
0.116703
0.250676
0.162801
0.036277
0.0183317
0.0154039
0.0155078
0.0157559
0.0158463
0.0149554
0.0138144
0.0123185
0.0106546
0.00939714
0.00787088
0.0065392
0.00569273
0.00458142
0.00384302
0.00333682
0.0027167
0.00244772
0.00215275
0.00197367
0.00189106
0.00186527
0.00192623
0.00195501
0.00200762
0.00203481
0.00207163
0.00210585
0.00212793
0.0021655
0.00218888
0.00222081
0.00225319
0.00227811
0.00231102
0.00233353
0.00234154
0.00234398
0.00234448
0.00234333
0.00234004
0.00233498
0.00232852
0.00232017
0.00230925
0.00229432
0.00227461
0.00225228
0.00223068
0.00221067
0.00218949
0.00216457
0.00213787
0.00210939
0.00207508
0.00203748
0.00199286
0.00193972
0.00188299
0.00181624
0.00174007
0.00165143
0.00154674
0.00142301
0.00128044
0.0011279
0.000980207
0.000848589
0.000739618
0.00065067
0.000575782
0.000511756
0.000456443
0.000408149
0.000365294
0.000327124
0.000292671
0.000261232
0.000232306
0.000206974
0.000186516
0.000170342
0.000156529
0.000143585
0.000130799
0.000117844
0.00010461
9.10186e-05
7.72097e-05
6.35966e-05
5.06852e-05
3.91072e-05
2.95777e-05
2.24338e-05
1.72376e-05
1.33938e-05
1.04691e-05
8.18202e-06
6.36289e-06
4.90991e-06
3.75669e-06
2.85278e-06
2.1546e-06
1.62257e-06
1.22123e-06
9.2008e-07
6.94172e-07
5.24045e-07
3.95151e-07
2.96928e-07
2.21814e-07
1.64367e-07
1.20605e-07
8.75284e-08
6.27979e-08
4.45379e-08
3.12222e-08
2.16233e-08
1.47823e-08
9.96661e-09
6.62184e-09
4.33258e-09
2.7898e-09
1.76735e-09
1.10098e-09
6.74523e-10
4.06141e-10
2.40517e-10
1.39859e-10
8.00238e-11
4.48606e-11
2.47819e-11
1.32962e-11
7.19313e-12
3.27776e-12
2.49328e-12
5.1707e-10
4.08778e-07
0.0280453
0.0328033
0.0325685
0.0533904
0.0687055
0.0665305
0.0613562
0.0593827
0.0559175
0.0515435
0.0467314
0.0425767
0.0388057
0.0362192
0.0344769
0.0334469
0.0331148
0.0333229
0.0339702
0.0349721
0.0370354
0.038909
0.041731
0.0443547
0.044171
0.0420321
0.035604
0.0313077
0.0306208
0.0286373
0.0213509
0.0177124
0.0177294
0.0200456
0.022632
0.0277433
0.0732663
0.114075
0.119651
0.0870972
0.0396898
0.0173903
0.0120008
0.00995077
0.00865544
0.00742713
0.00633735
0.00543711
0.00467936
0.00413213
0.0037219
0.00350693
0.00331635
0.00323313
0.00319659
0.00318498
0.00322193
0.00328351
0.00333423
0.00339949
0.00346932
0.00350986
0.00358709
0.00363191
0.0036883
0.0037269
0.00373986
0.00374487
0.0037464
0.0037467
0.00374491
0.00373835
0.00372538
0.00370523
0.00367774
0.00364364
0.00360412
0.00356047
0.00351445
0.0034682
0.00342204
0.00337886
0.0033399
0.00330444
0.00327138
0.00324112
0.003213
0.00318642
0.00315892
0.00312691
0.00308657
0.00303595
0.00297816
0.00291877
0.00285908
0.00279861
0.00274059
0.00268868
0.00264587
0.00261616
0.00259918
0.00259298
0.00259498
0.00260392
0.0026061
0.00260145
0.00258508
0.00253915
0.00243117
0.00227086
0.00207678
0.00188487
0.00170934
0.00154928
0.00140281
0.00126644
0.00113731
0.00101331
0.000893827
0.000779221
0.000671368
0.000572053
0.000482634
0.00040467
0.000339417
0.000287165
0.000247381
0.000218558
0.00019811
0.000183589
0.000172657
0.000162771
0.00015252
0.000141688
0.00013025
0.000118125
0.000105581
9.29563e-05
8.05841e-05
6.89027e-05
5.8285e-05
4.89423e-05
4.09284e-05
3.41705e-05
2.85197e-05
2.37981e-05
1.98346e-05
1.64842e-05
1.36337e-05
1.11994e-05
9.12037e-06
7.3516e-06
5.85725e-06
4.60644e-06
3.57124e-06
2.72625e-06
2.04836e-06
1.51576e-06
1.10647e-06
7.97481e-07
5.67046e-07
3.97401e-07
2.74245e-07
1.86212e-07
1.24307e-07
8.15481e-08
5.25414e-08
3.32481e-08
2.06494e-08
1.25955e-08
7.53504e-09
4.42915e-09
2.55014e-09
1.443e-09
7.99791e-10
4.30068e-10
2.37814e-10
9.92253e-11
1.09403e-10
3.43982e-08
0.0291841
0.0330822
0.0718834
0.0800096
0.0736779
0.0575915
0.0432494
0.0317076
0.0260116
0.023044
0.021409
0.0207016
0.0203965
0.0204854
0.0205846
0.0208163
0.020868
0.0209842
0.0212945
0.0217455
0.0226912
0.023809
0.0253356
0.027939
0.0323898
0.0375835
0.0373273
0.0373869
0.0374675
0.0367803
0.0315776
0.0257146
0.0274478
0.036629
0.061516
0.0703088
0.0741294
0.063673
0.0370511
0.0182856
0.0104248
0.00704724
0.00570605
0.00480865
0.00424713
0.00384259
0.00356995
0.00343111
0.00333689
0.00329524
0.00327949
0.00327768
0.00330006
0.00332806
0.00338892
0.00344745
0.00350291
0.00355194
0.00358915
0.00362479
0.00365142
0.00369078
0.00372573
0.00377342
0.00381544
0.00382783
0.00383061
0.00383031
0.00382639
0.00381693
0.00380067
0.00377745
0.00374843
0.00371234
0.00367029
0.00362735
0.00358663
0.0035495
0.00351811
0.00349658
0.0034911
0.00349329
0.00350456
0.00352731
0.00355066
0.00357212
0.00358226
0.00359088
0.0035939
0.00357882
0.00353407
0.00345572
0.00335654
0.00325234
0.00315223
0.00305093
0.00294077
0.00282446
0.00270091
0.00257291
0.00248384
0.00241961
0.00238243
0.00237066
0.0023934
0.00246773
0.00256844
0.00265884
0.00269341
0.00268946
0.00263662
0.00246804
0.00226559
0.00207564
0.00189681
0.00171346
0.00152115
0.0013259
0.0011386
0.000969696
0.000820607
0.00068865
0.000572191
0.000470061
0.000381238
0.000305424
0.000242514
0.000192782
0.000157105
0.000134846
0.000122564
0.000115707
0.0001111
0.000107204
0.000103088
9.8685e-05
9.40504e-05
8.86234e-05
8.22814e-05
7.50633e-05
6.72355e-05
5.90828e-05
5.09308e-05
4.32133e-05
3.63193e-05
3.0459e-05
2.56502e-05
2.17725e-05
1.86422e-05
1.60711e-05
1.39008e-05
1.20124e-05
1.0326e-05
8.79723e-06
7.40805e-06
6.15466e-06
5.03783e-06
4.05758e-06
3.21179e-06
2.49679e-06
1.90602e-06
1.42853e-06
1.05064e-06
7.57817e-07
5.35872e-07
3.71557e-07
2.52597e-07
1.68415e-07
1.10084e-07
7.05846e-08
4.4348e-08
2.73445e-08
1.64985e-08
9.77893e-09
5.64559e-09
3.22058e-09
1.75494e-09
1.0007e-09
4.21971e-10
1.69898e-09
0.0190107
0.097862
0.0872552
0.0579755
0.0301919
0.0202174
0.0173757
0.0170864
0.0172299
0.0174871
0.0179561
0.0188743
0.0196075
0.0214827
0.0225791
0.0246454
0.025218
0.0250617
0.024713
0.0240642
0.0237725
0.0238787
0.0241562
0.0247405
0.0261074
0.0281379
0.0327343
0.0350385
0.0348956
0.0341033
0.0282688
0.0267653
0.0430524
0.0539085
0.057086
0.0518136
0.0359749
0.017699
0.0103659
0.0066357
0.00497957
0.00422622
0.00386179
0.00361901
0.00350868
0.00345118
0.00342491
0.00341604
0.00341456
0.00347974
0.00355625
0.00362763
0.00370866
0.00378475
0.00382547
0.00384044
0.00384636
0.00384815
0.0038481
0.00384494
0.00384094
0.00383879
0.00383758
0.00383698
0.00383244
0.0038202
0.00380038
0.0037693
0.0037248
0.00367334
0.00361978
0.00356091
0.00350449
0.00346517
0.0034418
0.00343468
0.00343397
0.00343969
0.00346097
0.0035036
0.00357206
0.00367428
0.00381391
0.00395783
0.00406572
0.00410557
0.0041131
0.00410228
0.00406052
0.00399971
0.00390954
0.00378408
0.00363266
0.00347374
0.00335854
0.00328122
0.00321514
0.00315828
0.00311141
0.00304481
0.00287575
0.00264298
0.00244087
0.00232668
0.00224766
0.00219772
0.00218501
0.00222483
0.00242875
0.0026598
0.00276972
0.00278682
0.00275843
0.00262719
0.00246862
0.00234289
0.00222457
0.00208884
0.00192364
0.0017335
0.0015374
0.00135736
0.00120633
0.00108047
0.000965358
0.00084679
0.000720667
0.00059252
0.000472806
0.000370044
0.000288822
0.000232326
0.000198503
0.000175893
0.000149336
0.000113568
7.8947e-05
5.91277e-05
5.37557e-05
5.3708e-05
5.38566e-05
5.2604e-05
4.58648e-05
3.33189e-05
2.31574e-05
1.59073e-05
1.12172e-05
8.4038e-06
6.80332e-06
5.90698e-06
5.41204e-06
5.16692e-06
4.95684e-06
4.64875e-06
4.23851e-06
3.77085e-06
3.28605e-06
2.81088e-06
2.36208e-06
1.94958e-06
1.58005e-06
1.25829e-06
9.84718e-07
7.57875e-07
5.74321e-07
4.28413e-07
3.14409e-07
2.26888e-07
1.60877e-07
1.12027e-07
7.6558e-08
5.13264e-08
3.3724e-08
2.17107e-08
1.3671e-08
8.44011e-09
5.07294e-09
2.97743e-09
1.76988e-09
8.89777e-10
0.0543928
0.0550188
0.031014
0.0161727
0.0133775
0.0139025
0.015473
0.0167352
0.0181788
0.0192283
0.021482
0.0244016
0.0283168
0.0375374
0.0430957
0.0512634
0.0534763
0.0523073
0.0488775
0.042136
0.0352422
0.0300689
0.0268915
0.0256127
0.0257838
0.026214
0.0279176
0.0298679
0.0317011
0.0300254
0.0271964
0.0396773
0.0454063
0.0464486
0.0330912
0.019231
0.0122708
0.00699887
0.0050482
0.00416018
0.00376813
0.00359442
0.00351751
0.00348524
0.00347683
0.00348159
0.00353539
0.00361754
0.00371207
0.00379774
0.00383795
0.00389608
0.0039373
0.00396884
0.00399096
0.00400689
0.00401334
0.00401536
0.00401441
0.00400479
0.0039933
0.00397669
0.00395752
0.00393435
0.00390805
0.00387681
0.00383852
0.00379632
0.00373735
0.00367633
0.00361475
0.00354703
0.00348096
0.00345491
0.00344501
0.00344272
0.00344413
0.00345716
0.00349551
0.00356901
0.00367248
0.00379886
0.00392988
0.00406066
0.00415338
0.00417465
0.00417308
0.00413209
0.00403656
0.00390014
0.00372653
0.00352716
0.00328465
0.00295178
0.0027132
0.00263455
0.00267031
0.00278391
0.00296879
0.00315414
0.00327308
0.00328552
0.00315768
0.00287542
0.00261991
0.00238324
0.00220221
0.00211204
0.00210304
0.00216877
0.00245763
0.0027207
0.00280041
0.00279651
0.00270969
0.00253582
0.00242723
0.00235102
0.0022496
0.0020765
0.00183156
0.00156427
0.00132851
0.00114495
0.00100744
0.000897761
0.000796654
0.000694658
0.000590047
0.000486479
0.000391312
0.000311799
0.000253225
0.000216856
0.000196371
0.000181165
0.000164548
0.000146534
0.000131772
0.000124079
0.000121468
0.000119432
0.000114985
0.000104403
9.02868e-05
7.52989e-05
6.06992e-05
4.69593e-05
3.44546e-05
2.42534e-05
1.76406e-05
1.41194e-05
1.18107e-05
9.87428e-06
8.17164e-06
6.68514e-06
5.38933e-06
4.2505e-06
3.2505e-06
2.40518e-06
1.73183e-06
1.22646e-06
8.66532e-07
6.18595e-07
4.47575e-07
3.27936e-07
2.41773e-07
1.78433e-07
1.30876e-07
9.50392e-08
6.79897e-08
4.77952e-08
3.29388e-08
2.21634e-08
1.46281e-08
9.33936e-09
5.95499e-09
3.53466e-09
2.29155e-09
1.17061e-09
0.0206954
0.0160197
0.0101828
0.0104412
0.0122893
0.0165301
0.0185705
0.019508
0.0209704
0.0232335
0.02789
0.0359359
0.0514932
0.0754185
0.0910605
0.109905
0.1162
0.114405
0.107839
0.0928414
0.0663612
0.0467741
0.0345844
0.0285572
0.02646
0.0262534
0.0266872
0.0287979
0.0289532
0.0265666
0.0336022
0.0398168
0.0397808
0.024629
0.013946
0.00841953
0.00573498
0.00436787
0.00385564
0.00364567
0.00356606
0.00354017
0.00353496
0.00357353
0.00366055
0.00380063
0.00391746
0.00399516
0.00407641
0.00414356
0.00420099
0.00426189
0.0043054
0.00435618
0.0043887
0.00443143
0.0044697
0.00449182
0.00451772
0.00453537
0.00454946
0.0045573
0.00456023
0.00454944
0.00452567
0.00446491
0.00441156
0.0043524
0.00426946
0.00417315
0.00409482
0.00400336
0.00389275
0.00382451
0.00375392
0.00372345
0.00371392
0.00371307
0.00372788
0.00377039
0.00382565
0.00388747
0.00397067
0.00407994
0.0041644
0.00418876
0.00419012
0.00412564
0.00397016
0.00375624
0.00348828
0.00318585
0.00283183
0.00234164
0.00186326
0.00150773
0.00130674
0.00127278
0.00146466
0.00205535
0.00284531
0.00329579
0.00341198
0.00338512
0.0032247
0.00301594
0.00269283
0.00235559
0.00215352
0.00210736
0.00214301
0.0023703
0.00268261
0.00280004
0.00280612
0.00273946
0.002527
0.00237539
0.00230234
0.00225407
0.00217098
0.00195911
0.00159276
0.00125901
0.00101152
0.000850349
0.000748428
0.000669779
0.000592742
0.000513735
0.000435294
0.000360655
0.000293994
0.000240647
0.000204378
0.000183354
0.000170642
0.000158704
0.000144248
0.000129971
0.000120669
0.000116389
0.000114152
0.000112751
0.000111077
0.000107716
9.92821e-05
8.37707e-05
6.74544e-05
5.25013e-05
3.99739e-05
3.01061e-05
2.25264e-05
1.67559e-05
1.24771e-05
9.39272e-06
7.19185e-06
5.60406e-06
4.42591e-06
3.51023e-06
2.76988e-06
2.16358e-06
1.6676e-06
1.26539e-06
9.44008e-07
6.91749e-07
4.97842e-07
3.51695e-07
2.44225e-07
1.67177e-07
1.13177e-07
7.53674e-08
4.97347e-08
3.20191e-08
2.07384e-08
1.28649e-08
8.32459e-09
5.02405e-09
3.11347e-09
1.8368e-09
0.00988142
0.0112525
0.00835504
0.0108054
0.0165508
0.018614
0.0193229
0.020182
0.022086
0.0267147
0.0375758
0.0616482
0.0944662
0.127734
0.15026
0.169212
0.175874
0.174101
0.167656
0.156361
0.132422
0.0913409
0.0567733
0.0371639
0.0289101
0.0264296
0.0265949
0.027614
0.0261166
0.0290822
0.0346077
0.0356852
0.0219691
0.0115188
0.00705271
0.00498163
0.00409848
0.00374358
0.00362546
0.00359096
0.00358353
0.00362473
0.00373046
0.00391207
0.00404051
0.00411103
0.00417903
0.00426696
0.00431561
0.0043772
0.00446485
0.0045175
0.00460585
0.0046858
0.00478621
0.00489511
0.00501541
0.00512408
0.00523458
0.00532979
0.0054063
0.0054779
0.00553845
0.0055723
0.00558258
0.00554819
0.00546548
0.00539916
0.00531429
0.00514807
0.00507308
0.00495035
0.00473271
0.00462828
0.00449615
0.0043115
0.00424266
0.00421824
0.00421703
0.00423395
0.00428804
0.00439363
0.00454501
0.00472883
0.00491759
0.00503232
0.00507947
0.00505522
0.00486064
0.00454251
0.00412021
0.00364594
0.00315076
0.00256
0.00195487
0.00145357
0.00109431
0.000877601
0.000797611
0.000849045
0.00126161
0.00248001
0.00324596
0.00342196
0.00339966
0.00328473
0.00307783
0.00276424
0.00247619
0.00228768
0.0022307
0.00226226
0.00249518
0.00275155
0.00282011
0.00281193
0.00272263
0.00250803
0.00237391
0.00230816
0.0022591
0.00216946
0.00194294
0.00151452
0.00111948
0.000827139
0.000641563
0.000538283
0.000482519
0.000441623
0.000398339
0.000350339
0.000300556
0.000252903
0.000212293
0.000183174
0.000166065
0.000156528
0.000147793
0.000134731
0.000118562
0.000106611
0.00010298
0.00010261
0.000102071
0.000100788
9.90531e-05
9.64716e-05
9.08378e-05
7.80996e-05
6.30995e-05
4.88271e-05
3.6529e-05
2.65821e-05
1.88973e-05
1.32413e-05
9.26793e-06
6.57225e-06
4.77195e-06
3.55901e-06
2.71475e-06
2.09822e-06
1.6247e-06
1.2486e-06
9.47292e-07
7.07361e-07
5.18976e-07
3.7374e-07
2.64197e-07
1.83261e-07
1.24885e-07
8.34926e-08
5.49871e-08
3.5479e-08
2.26979e-08
1.41818e-08
8.84814e-09
5.38207e-09
3.23348e-09
1.92711e-09
0.00914226
0.0113456
0.00764202
0.0145039
0.0179409
0.0190139
0.0194755
0.0204247
0.0232825
0.0309295
0.0492519
0.0788367
0.11428
0.149289
0.1736
0.189054
0.197978
0.196712
0.186399
0.164507
0.131961
0.0896049
0.0551614
0.0362923
0.0284846
0.0262289
0.026239
0.0256171
0.0268795
0.0306704
0.0320684
0.021881
0.0106822
0.00644718
0.00467878
0.00396539
0.00371292
0.00363724
0.00362553
0.00365443
0.00377647
0.00396994
0.00412062
0.00419205
0.00425005
0.00433293
0.00442009
0.00447369
0.00454398
0.00466068
0.0047448
0.00489996
0.00507197
0.00528732
0.00554489
0.0058234
0.00612641
0.00642708
0.00671927
0.0069762
0.00716501
0.00732747
0.00749117
0.00759315
0.00762925
0.00757414
0.00739256
0.00732167
0.00714791
0.00686614
0.00675785
0.0066632
0.00634902
0.00608798
0.00588466
0.00556019
0.00539943
0.00535071
0.00535702
0.0054455
0.00563232
0.00592653
0.00625995
0.00651731
0.00673909
0.00686995
0.00692387
0.00693498
0.00683095
0.00660606
0.00623668
0.00572626
0.00507937
0.00432906
0.00343417
0.00246403
0.00167154
0.00110252
0.000808231
0.000737425
0.00080693
0.00126024
0.00261802
0.00331231
0.0034561
0.00342802
0.00324823
0.00291299
0.00262289
0.00247835
0.00243195
0.00243461
0.00251066
0.00276288
0.00288522
0.00288759
0.00280939
0.00259261
0.00243557
0.0023518
0.00230627
0.00224146
0.00209149
0.00172742
0.00130772
0.000938674
0.000657912
0.000468335
0.000355688
0.0003043
0.000288773
0.000281185
0.000265634
0.000238771
0.000209356
0.000182347
0.000161746
0.000148533
0.000139597
0.000131178
0.000121846
0.000111717
0.000101806
9.51786e-05
9.23783e-05
9.11588e-05
9.03588e-05
8.9232e-05
8.7745e-05
8.55338e-05
8.08763e-05
6.96764e-05
5.55699e-05
4.20997e-05
3.04793e-05
2.1201e-05
1.42908e-05
9.46195e-06
6.25994e-06
4.21024e-06
2.91449e-06
2.08405e-06
1.53369e-06
1.15047e-06
8.68129e-07
6.51562e-07
4.82879e-07
3.51861e-07
2.51587e-07
1.76323e-07
1.21183e-07
8.16144e-08
5.39802e-08
3.50065e-08
2.23655e-08
1.40132e-08
8.63819e-09
5.25075e-09
3.13505e-09
1.86611e-09
0.00906259
0.011935
0.00733263
0.0161842
0.0183368
0.0190698
0.0194606
0.0203795
0.0235234
0.0321348
0.0521623
0.0824824
0.118603
0.154154
0.179456
0.192594
0.194027
0.188074
0.173471
0.150461
0.116498
0.0769219
0.0473251
0.0328691
0.0270984
0.0254375
0.0250076
0.0257851
0.0280143
0.0290827
0.0233047
0.0107527
0.00622934
0.00454437
0.00390852
0.00369949
0.0036505
0.00365124
0.00371113
0.00388753
0.00404857
0.00416279
0.00426181
0.00434302
0.00443428
0.00455994
0.00465331
0.00477315
0.00492419
0.00506252
0.00529258
0.00558699
0.00599594
0.00652317
0.00716597
0.00788403
0.00864623
0.00941589
0.0101609
0.0108457
0.0113731
0.0116891
0.0118778
0.0119854
0.0120089
0.0116497
0.0109887
0.0106944
0.0103146
0.00970291
0.00924821
0.00889197
0.00838495
0.00813999
0.00783213
0.0075632
0.0073076
0.00710693
0.00696954
0.00688525
0.00684525
0.00686746
0.00694681
0.00702393
0.00711651
0.00716595
0.00717642
0.00717362
0.00713377
0.00703467
0.00683842
0.00655915
0.00624837
0.00595949
0.00563016
0.00502484
0.00384782
0.00237079
0.00137104
0.00092562
0.000854063
0.00104574
0.00197982
0.00306247
0.00345629
0.00350602
0.00342404
0.00305217
0.00266789
0.00250617
0.002481
0.0024977
0.00261444
0.00285396
0.0029832
0.00301103
0.00299476
0.00288483
0.00261755
0.0024191
0.00230641
0.00221628
0.00203652
0.00171955
0.00134686
0.000992644
0.000701252
0.000486677
0.000342948
0.000255542
0.000209129
0.000188268
0.000181022
0.000179318
0.000177784
0.000173061
0.00015826
0.000142974
0.000131685
0.000122498
0.000114239
0.000107516
0.000103959
0.000100269
9.42077e-05
8.83696e-05
8.41925e-05
8.17465e-05
8.04583e-05
7.94332e-05
7.81801e-05
7.60599e-05
7.13793e-05
5.98416e-05
4.59006e-05
3.32178e-05
2.28363e-05
1.50367e-05
9.59152e-06
6.02045e-06
3.79051e-06
2.4397e-06
1.62607e-06
1.12553e-06
8.04835e-07
5.87521e-07
4.31601e-07
3.15383e-07
2.27521e-07
1.61331e-07
1.12199e-07
7.64553e-08
5.10312e-08
3.33791e-08
2.13939e-08
1.34573e-08
8.30366e-09
5.0413e-09
3.00231e-09
1.77368e-09
0.00907122
0.0122582
0.00753992
0.0172105
0.0184174
0.0188721
0.0190286
0.0191675
0.0207438
0.0261254
0.0380707
0.0583832
0.0856488
0.115715
0.140552
0.15475
0.160766
0.154308
0.136364
0.109715
0.0759694
0.0482919
0.0336247
0.0270782
0.0248154
0.0243007
0.0249209
0.0261721
0.0269642
0.0238128
0.0114566
0.00626384
0.00449997
0.00388259
0.00369053
0.00365057
0.00367001
0.00375923
0.0039827
0.00417718
0.00432051
0.00444443
0.00454676
0.00465101
0.0047895
0.00491579
0.00504868
0.00522292
0.00545196
0.00574994
0.0062252
0.00688699
0.00784598
0.00912421
0.0107644
0.0127443
0.0146259
0.0162497
0.0178319
0.0189504
0.0197265
0.0202267
0.0204191
0.0201262
0.0196182
0.0184204
0.0163296
0.0149002
0.0134983
0.0119279
0.0106003
0.00985152
0.0090015
0.00852724
0.00812488
0.00785578
0.00763216
0.00742037
0.00720789
0.00702526
0.00687107
0.00673462
0.00656811
0.00634585
0.00610831
0.00587214
0.00566723
0.00553998
0.00554455
0.00568269
0.00586594
0.00596247
0.00593603
0.00591762
0.00590826
0.00581527
0.0055511
0.00476737
0.00290486
0.00161085
0.00118121
0.00120099
0.00177181
0.00285699
0.00339731
0.00352453
0.00349689
0.00323683
0.00272886
0.00248566
0.00244185
0.00246706
0.00262408
0.00286636
0.00299837
0.00304216
0.00304237
0.00300464
0.00282077
0.00253609
0.00233358
0.00214951
0.00192724
0.00164361
0.00131675
0.000991854
0.000712939
0.000499552
0.000349259
0.000250863
0.000191306
0.000159013
0.000144396
0.000139636
0.000138856
0.000138817
0.000138236
0.000134167
0.00012461
0.000117856
0.00011414
0.000111672
0.000108055
0.000102981
9.71624e-05
9.03876e-05
8.38073e-05
7.86445e-05
7.52714e-05
7.34146e-05
7.25037e-05
7.1756e-05
7.05337e-05
6.80208e-05
6.13991e-05
4.76622e-05
3.4301e-05
2.32774e-05
1.50383e-05
9.33999e-06
5.64697e-06
3.37999e-06
2.04413e-06
1.27344e-06
8.2645e-07
5.59299e-07
3.91845e-07
2.80032e-07
2.01026e-07
1.43291e-07
1.00671e-07
6.94267e-08
4.69046e-08
3.10238e-08
2.00863e-08
1.27375e-08
7.91165e-09
4.82234e-09
2.87922e-09
1.69775e-09
0.00914825
0.0126325
0.00869336
0.0175621
0.0182622
0.018562
0.0187006
0.0186053
0.0189829
0.0214177
0.0276979
0.0375708
0.0504808
0.0666642
0.081624
0.0900246
0.0931794
0.0866765
0.0737237
0.0568608
0.04072
0.0306403
0.0259266
0.0241322
0.0237419
0.0244134
0.0250156
0.0253129
0.0229038
0.0120259
0.00652556
0.00452986
0.00387907
0.00368732
0.0036505
0.00367886
0.00380593
0.0041022
0.00430921
0.00443701
0.00455843
0.00465285
0.00474895
0.00488005
0.00505064
0.00519182
0.00540005
0.00571804
0.00616937
0.00684037
0.0078856
0.00943431
0.0116614
0.0146903
0.0181652
0.0213745
0.0238507
0.0262206
0.0289485
0.0321342
0.0348466
0.0367423
0.0377775
0.0382789
0.037084
0.0348112
0.0306538
0.0262957
0.0225132
0.0184806
0.0150423
0.0123729
0.010254
0.00881406
0.00791813
0.00732492
0.00690266
0.00657254
0.00628397
0.00600229
0.00574312
0.00552305
0.0053315
0.00516091
0.00495837
0.00468804
0.00433343
0.00390663
0.00344702
0.00305197
0.00283763
0.0028694
0.00319038
0.00370458
0.00449858
0.00528503
0.00559102
0.00544721
0.00472207
0.00281859
0.00173392
0.0015314
0.00177063
0.00269716
0.00330809
0.00349887
0.00350159
0.00336878
0.0028699
0.00242293
0.0022626
0.00226488
0.0024047
0.00270892
0.00288513
0.00295624
0.00297056
0.00295797
0.00286401
0.00253523
0.00220465
0.00197215
0.00176481
0.0015297
0.00125913
0.000978391
0.000720783
0.000511556
0.000359356
0.000257048
0.00019193
0.000153016
0.000132341
0.000123599
0.000121049
0.000120685
0.000120524
0.000119476
0.000114462
0.000109724
0.000108161
0.000107462
0.000106561
0.000104946
0.000101217
9.34437e-05
8.56097e-05
7.87155e-05
7.34604e-05
7.00464e-05
6.81277e-05
6.72011e-05
6.66686e-05
6.58652e-05
6.4161e-05
5.96593e-05
4.73713e-05
3.35464e-05
2.23872e-05
1.41921e-05
8.62067e-06
5.06748e-06
2.92068e-06
1.68041e-06
9.8607e-07
6.01055e-07
3.83746e-07
2.56384e-07
1.77208e-07
1.24499e-07
8.75325e-08
6.09189e-08
4.16919e-08
2.79632e-08
1.83519e-08
1.17826e-08
7.40012e-09
4.55287e-09
2.74048e-09
1.62485e-09
0.00930412
0.0130053
0.00991446
0.0175565
0.0181741
0.0184345
0.018536
0.018388
0.0182845
0.019198
0.0222483
0.0272976
0.0329135
0.0392681
0.0446859
0.047384
0.0483255
0.0451528
0.0386946
0.0314153
0.0267879
0.0243878
0.0235776
0.0235419
0.0240995
0.0244476
0.0241121
0.0215681
0.0124079
0.00679056
0.0046316
0.00389732
0.00368947
0.00364988
0.00367424
0.00380529
0.00411509
0.0043021
0.00445015
0.004563
0.00464389
0.00475184
0.00488421
0.00507571
0.00531179
0.00559701
0.00607423
0.00691198
0.00758729
0.00898026
0.0117925
0.0155812
0.0196609
0.0242161
0.0288149
0.0332551
0.0381014
0.044418
0.0526418
0.0620516
0.0722673
0.081055
0.0861243
0.0878056
0.0839025
0.0776916
0.0684905
0.0569912
0.047048
0.0376507
0.0297323
0.023227
0.0174097
0.0128062
0.00979882
0.00801194
0.00699945
0.00640202
0.00597726
0.00564412
0.0054082
0.00528694
0.00522247
0.00520162
0.00515459
0.00500381
0.00466613
0.00411773
0.00343775
0.00273475
0.00212545
0.00164658
0.00133279
0.00126888
0.00150302
0.00258832
0.00437216
0.0051306
0.00503598
0.0041198
0.00241582
0.00175763
0.00177818
0.00238654
0.00310535
0.00338427
0.00342749
0.00336649
0.00301714
0.0023665
0.00195302
0.00183734
0.00187424