/*--------------------------------*- C++ -*----------------------------------*\
  =========                 |
  \\      /  F ield         | OpenFOAM: The Open Source CFD Toolbox
   \\    /   O peration     | Website:  https://openfoam.org
    \\  /    A nd           | Version:  9
     \\/     M anipulation  |
\*---------------------------------------------------------------------------*/
FoamFile
{
    format      ascii;
    class       volScalarField;
    location    "0.032";
    object      nut;
}
// * * * * * * * * * * * * * * * * * * * * * * * * * * * * * * * * * * * * * //

dimensions      [0 2 -1 0 0 0 0];

internalField   nonuniform List<scalar> 
12225
(
0
0
0
0
0
0
0
0
0
0
0
0
0
0
0
0
0
4.31891e-10
0
0
0
0
0
0
0
0
0
0
0
0
0
0
0
0
4.46068e-10
1.62846e-09
0
0
0
0
0
0
0
0
0
0
0
0
0
0
0
5.34417e-10
1.41857e-09
2.86992e-09
0
0
0
8.90244e-10
5.80487e-09
3.43834e-09
0
0
0
0
0
0
3.6827e-10
5.44073e-10
9.49891e-10
1.96849e-10
5.47159e-11
1.46834e-09
0
0
7.42457e-08
1.1022e-06
2.28955e-07
0
0
0
0
0
9.153e-08
1.19635e-07
1.08636e-07
1.01365e-07
7.74032e-08
3.617e-08
4.6775e-09
0
0
0
0
3.90261e-07
1.1755e-07
0
0
2.56e-08
2.0492e-07
8.34298e-08
1.42893e-07
3.01526e-07
6.06196e-07
8.86718e-07
6.49178e-07
4.87379e-07
3.99336e-07
3.4354e-07
0
0
0
0
0
0
0
7.83044e-08
2.25936e-07
1.02578e-07
0
0
0
0
2.29388e-07
5.87173e-07
5.96214e-07
4.44716e-07
0
0
0
1.55048e-07
6.6264e-08
0
1.31001e-07
4.22008e-07
3.25206e-07
0
0
0
0
0
0
1.36239e-07
4.47233e-07
4.67552e-07
8.47533e-07
0
0
1.22679e-07
9.53511e-08
1.60157e-08
9.00305e-08
4.59656e-07
7.98249e-07
0
0
0
0
0
4.52213e-07
6.9751e-07
1.0275e-06
1.76046e-06
2.23325e-06
0
0
9.14011e-08
0
0
0
0
0
1.75865e-07
0
0
0
1.90389e-07
1.01251e-06
1.12979e-06
9.04076e-07
1.03071e-06
1.15137e-06
4.59948e-07
6.6745e-07
2.27444e-07
0
0
0
0
0
2.16487e-07
4.89341e-07
3.63657e-07
1.55241e-08
0
0
9.5084e-09
1.24721e-07
2.21477e-07
1.59468e-07
3.00111e-07
2.84425e-07
1.18987e-07
0
0
0
0
0
1.3401e-07
3.23861e-07
4.00274e-07
2.96959e-07
5.36527e-08
0
0
0
8.02562e-08
3.84061e-07
4.67621e-07
0
0
0
0
0
0
0
9.99668e-09
3.53733e-07
5.16007e-07
5.51588e-07
4.49574e-07
2.93479e-07
1.97163e-07
2.57684e-07
6.07733e-07
1.16866e-07
0
0
0
0
0
0
0
0
5.09563e-08
9.2691e-07
1.1147e-06
9.88655e-07
7.58532e-07
5.95084e-07
6.78609e-07
1.06651e-06
1.51977e-06
1.24183e-08
0
0
0
0
2.84822e-07
4.31218e-07
3.01944e-07
4.45759e-07
1.14675e-06
1.89651e-06
1.73201e-06
1.57766e-06
1.43573e-06
1.011e-06
6.05523e-07
3.53158e-07
1.90152e-07
8.40171e-07
2.50947e-07
0
0
0
1.2016e-06
7.22127e-07
4.17107e-07
4.77639e-07
8.24378e-07
9.65255e-07
6.43902e-07
6.08771e-07
6.52975e-07
5.90877e-07
4.479e-07
2.58194e-07
5.96717e-08
4.3339e-07
0
0
0
0
2.24977e-06
1.58938e-06
1.04657e-06
6.74315e-07
1.28492e-07
0
1.74346e-08
2.51661e-07
4.35435e-07
4.65885e-07
3.62756e-07
1.80318e-07
0
0
0
0
0
6.59315e-07
1.55798e-06
1.51596e-06
7.084e-07
0
0
0
0
6.62743e-08
1.4404e-07
1.45271e-07
8.38677e-08
0
0
1.62282e-07
0
0
0
0
0
5.04515e-08
1.90726e-08
0
0
0
0
0
0
0
0
0
0
4.26684e-08
0
0
0
0
0
4.6935e-08
2.85223e-07
1.05811e-07
0
8.95676e-08
6.65478e-07
7.9853e-07
0
0
0
0
0
2.65796e-07
2.46737e-07
4.11361e-07
7.13334e-08
0
0
6.34813e-08
5.14212e-07
1.263e-06
4.34652e-07
2.07847e-07
4.68937e-07
7.90552e-07
0
0
0
0
0
4.82878e-07
5.47317e-07
8.598e-07
0
0
0
1.67289e-07
3.4202e-07
4.19717e-07
2.84534e-07
9.28396e-08
1.85254e-09
0
0
0
0
0
0
8.35878e-07
7.60898e-07
3.6917e-07
0
0
0
1.69269e-07
2.26283e-07
2.29462e-07
2.0546e-07
2.50201e-08
0
0
0
0
0
0
0
5.87397e-07
0
1.82004e-07
7.22916e-07
2.88925e-07
0
1.15421e-08
1.29597e-07
1.1349e-07
2.62693e-08
0
0
0
0
0
0
0
0
7.07182e-09
0
1.41399e-07
8.45568e-07
7.44201e-07
3.49545e-07
1.82577e-07
0
0
0
0
0
0
0
0
0
0
0
0
0
0
1.21631e-06
1.38853e-06
5.07429e-07
3.31674e-07
0
0
0
0
0
0
0
0
0
0
0
0
0
2.14349e-08
1.76819e-08
0
0
0
2.7024e-09
0
0
0
0
0
0
0
0
1.34259e-09
4.06946e-09
1.77627e-09
0
0
0
0
0
0
0
0
0
0
0
0
0
0
0
2.02021e-10
4.24658e-10
1.5511e-09
0
0
0
0
0
0
0
0
0
0
0
0
0
0
0
0
0
2.83081e-09
0
0
0
0
0
0
0
0
0
0
0
0
0
0
0
0
0
0
3.24481e-06
5.00713e-06
0
0
0
0
9.00037e-07
2.04145e-06
1.71428e-06
7.82883e-07
0
0
0
0
0
0
0
0
0
0
0
0
0
4.88365e-07
4.85534e-07
4.66628e-07
3.19361e-06
9.49398e-06
1.12792e-05
0
0
1.42699e-06
4.44316e-06
4.84295e-06
4.86205e-06
1.60492e-05
2.39927e-05
4.52679e-05
6.05393e-05
3.0056e-05
6.39892e-06
1.41894e-06
1.94055e-07
0
4.60079e-08
1.73073e-07
2.65039e-07
3.11002e-07
3.18176e-07
3.0013e-07
2.74581e-07
2.38247e-07
2.01729e-07
1.71861e-07
1.38472e-07
1.11885e-07
9.00185e-08
6.81883e-08
5.22253e-08
3.71857e-08
2.42972e-08
1.27577e-08
1.91614e-09
0
0
0
0
0
0
0
0
0
0
0
0
0
0
0
0
0
0
0
0
0
0
0
0
0
0
0
0
0
0
0
0
0
0
0
0
0
0
0
0
0
0
0
0
0
0
0
0
0
0
0
0
0
0
0
0
0
0
0
0
0
0
0
0
0
0
0
0
0
0
0
0
0
0
0
0
0
0
0
0
0
0
0
0
0
0
0
0
0
0
0
0
0
0
0
0
0
0
0
0
0
0
0
0
0
0
0
0
0
0
0
0
0
0
0
0
0
4.19241e-07
0
0
0
0
1.11218e-06
3.02859e-06
4.00996e-06
3.80194e-06
2.68101e-06
1.30768e-06
2.31863e-07
0
0
0
0
0
0
4.33532e-08
3.16662e-09
0
0
6.03757e-07
1.02621e-06
2.37499e-07
3.20205e-08
1.97889e-06
5.33825e-06
9.60175e-06
2.3573e-06
0
0
0
0
0
1.79428e-07
1.53232e-06
9.91299e-07
3.26407e-06
4.11196e-06
2.52347e-06
1.16163e-06
3.89498e-07
1.32389e-07
1.3898e-07
2.06814e-07
2.53303e-07
2.67398e-07
2.61859e-07
2.45825e-07
2.28424e-07
2.07921e-07
1.88877e-07
1.70212e-07
1.51717e-07
1.34027e-07
1.16458e-07
9.83392e-08
8.00954e-08
6.15434e-08
4.24894e-08
2.3444e-08
4.21456e-09
0
0
0
0
0
0
0
0
0
0
0
0
0
0
0
0
0
0
0
0
0
0
0
0
0
0
0
0
0
0
0
0
0
0
0
0
0
0
0
0
0
0
0
0
0
0
0
0
0
0
0
0
0
0
0
0
0
0
0
0
0
0
0
0
0
0
0
0
0
0
0
0
0
0
0
0
0
0
0
0
0
0
0
0
0
0
0
0
0
0
0
0
0
0
0
0
0
0
0
0
0
0
0
0
0
0
0
0
0
0
0
0
0
0
0
0
8.05709e-06
3.42823e-06
3.3207e-06
3.18819e-06
3.15055e-06
3.3463e-06
3.80068e-06
4.01712e-06
3.90082e-06
3.32809e-06
2.30895e-06
9.51094e-07
0
0
0
0
0
6.89303e-07
2.06842e-06
2.91459e-06
3.13396e-06
2.9277e-06
2.62479e-06
2.96392e-06
3.44267e-06
2.77001e-06
2.96396e-06
4.69632e-06
5.29483e-06
3.81455e-06
0
0
0
0
0
0
0
9.93161e-07
2.46782e-07
3.39225e-07
1.06888e-06
9.7421e-07
5.79708e-07
4.00171e-07
4.42974e-07
6.00546e-07
7.71544e-07
8.90555e-07
9.33271e-07
9.19621e-07
8.71661e-07
8.06858e-07
7.37296e-07
6.65977e-07
5.97745e-07
5.29929e-07
4.63013e-07
3.97011e-07
3.31723e-07
2.67568e-07
2.04132e-07
1.41934e-07
8.03077e-08
1.92117e-08
0
0
0
0
0
0
0
0
0
0
0
0
0
0
0
0
0
0
0
0
0
0
0
0
0
0
0
0
0
0
0
0
0
0
0
0
0
0
0
0
0
0
0
0
0
0
0
0
1.63124e-10
2.50402e-09
3.12467e-09
3.42144e-09
3.47795e-09
2.9269e-09
1.61424e-09
0
0
0
0
0
0
0
0
0
0
0
0
0
0
0
0
0
0
0
0
0
0
0
0
0
0
0
0
0
0
0
0
0
0
0
0
0
0
0
0
0
0
0
0
0
0
0
0
0
0
0
0
0
0
0
0
0
0
0
0
0
4.18652e-06
4.13607e-06
3.08871e-06
2.85488e-06
2.50214e-06
2.46738e-06
2.53927e-06
2.18933e-06
7.61701e-07
0
0
0
0
0
0
0
0
1.29756e-05
2.76391e-05
2.21739e-05
1.73438e-05
1.41992e-05
1.17547e-05
9.2452e-06
6.77037e-06
3.93309e-06
2.12735e-06
8.73337e-07
0
0
0
0
0
0
0
0
4.21622e-07
8.7197e-07
2.1773e-07
4.06979e-08
3.75151e-07
4.50378e-07
6.09278e-07
1.03202e-06
1.49295e-06
1.65516e-06
1.4968e-06
1.21355e-06
9.48019e-07
7.54026e-07
6.23168e-07
5.42914e-07
5.02709e-07
4.91556e-07
4.99189e-07
5.18271e-07
5.41314e-07
5.58058e-07
5.54415e-07
5.12757e-07
4.18056e-07
2.68954e-07
8.58598e-08
0
0
0
0
0
0
0
0
0
0
0
0
0
0
0
0
0
0
0
0
0
0
0
0
0
0
0
0
0
0
0
0
0
0
0
0
0
0
0
0
0
0
0
0
0
0
0
0
0
0
0
0
0
0
0
2.6775e-08
1.01853e-07
1.34547e-07
1.44403e-07
1.50564e-07
1.61062e-07
1.73819e-07
1.79683e-07
1.68457e-07
1.40585e-07
1.05513e-07
7.18979e-08
4.42697e-08
2.34228e-08
9.39688e-09
2.24984e-09
5.90218e-10
1.03368e-09
8.42412e-10
0
0
0
0
0
0
2.8611e-10
6.76946e-10
7.041e-10
5.19453e-10
2.65342e-10
1.13775e-11
0
0
0
0
0
0
0
0
0
0
0
0
0
0
0
0
0
0
0
0
0
0
0
0
0
7.99731e-12
0
2.6626e-11
0
3.73318e-11
0
5.05843e-06
4.73683e-06
2.81787e-06
1.82323e-06
1.64589e-06
6.08882e-07
0
0
0
0
0
0
0
0
0
0
0
1.10555e-05
1.94246e-05
1.76443e-05
1.40144e-05
1.13302e-05
9.31996e-06
6.99757e-06
4.00294e-06
1.14806e-06
0
0
0
0
0
0
0
0
0
0
0
2.50639e-07
2.07255e-07
6.31721e-07
1.54582e-06
2.3282e-06
2.47527e-06
2.07159e-06
1.50484e-06
1.00336e-06
6.33332e-07
3.79433e-07
2.1483e-07
1.16294e-07
6.63738e-08
5.33054e-08
6.77294e-08
1.03157e-07
1.54621e-07
2.17836e-07
2.87789e-07
3.5666e-07
4.0938e-07
4.19814e-07
3.54811e-07
1.95288e-07
0
0
0
0
0
0
0
0
0
1.23181e-08
2.72167e-08
3.40765e-08
3.47608e-08
3.04364e-08
2.17945e-08
9.28477e-09
0
0
0
0
0
0
0
0
0
0
0
0
0
0
0
0
0
0
0
0
0
0
0
0
0
0
0
0
0
0
0
0
0
0
0
0
0
0
0
0
0
0
0
0
0
0
0
0
0
0
0
0
0
0
0
0
0
0
0
0
0
0
0
0
0
0
0
0
0
0
0
4.90525e-09
1.10838e-08
1.24789e-08
1.18522e-08
1.04308e-08
8.90438e-09
7.55933e-09
6.41263e-09
5.3847e-09
4.41034e-09
3.49311e-09
2.67137e-09
1.98052e-09
1.43391e-09
1.01596e-09
7.08966e-10
4.72584e-10
3.10453e-10
1.6492e-10
8.94779e-11
0
0
0
0
0
6.01945e-12
0
9.00515e-11
0
7.74277e-11
0
6.27629e-07
1.06318e-06
1.45236e-06
2.03572e-06
0
0
0
0
0
0
0
0
0
0
0
0
1.19852e-05
3.0022e-05
3.14502e-05
2.36411e-05
1.51481e-05
1.00363e-05
7.16061e-06
5.19932e-06
3.1583e-06
8.69683e-07
0
0
0
0
0
0
0
0
0
0
0
0
1.12712e-06
2.32905e-06
2.94202e-06
2.82791e-06
2.30853e-06
1.70115e-06
1.16513e-06
7.45985e-07
4.37078e-07
2.27634e-07
9.99121e-08
3.3503e-08
1.15655e-08
2.09833e-08
5.27098e-08
1.02321e-07
1.69439e-07
2.57422e-07
3.69988e-07
5.07774e-07
6.61113e-07
7.87339e-07
7.77996e-07
4.63036e-07
0
0
0
0
0
0
0
0
3.98113e-08
6.35165e-08
7.34566e-08
7.47929e-08
7.04477e-08
6.27967e-08
5.2586e-08
4.01411e-08
2.51577e-08
7.02572e-09
0
0
0
0
0
0
0
0
0
0
0
0
0
0
0
0
0
0
0
0
0
0
0
0
0
0
0
0
0
0
0
0
0
0
0
0
0
0
0
0
0
0
0
0
0
0
0
0
0
0
0
0
0
0
0
0
0
0
0
0
0
0
0
0
0
0
0
0
0
0
0
0
0
0
0
0
0
0
0
0
0
0
0
0
0
0
0
0
0
0
0
3.75636e-11
1.97906e-09
1.38011e-09
2.54706e-09
8.29056e-10
1.24703e-09
0
5.20855e-11
0
3.12033e-08
1.34056e-07
4.7411e-07
1.57784e-06
0
0
0
0
0
0
0
0
0
0
0
2.49574e-05
5.56303e-05
6.08981e-05
5.08715e-05
3.56129e-05
2.23491e-05
1.30852e-05
7.7865e-06
4.87864e-06
2.8091e-06
4.57978e-07
0
0
0
0
0
0
0
0
0
0
0
1.14478e-06
2.5587e-06
3.12932e-06
2.91337e-06
2.31826e-06
1.67877e-06
1.13251e-06
7.06414e-07
4.11213e-07
2.30954e-07
1.37601e-07
1.01105e-07
9.72357e-08
1.07561e-07
1.22451e-07
1.43935e-07
1.80311e-07
2.45426e-07
3.53803e-07
5.20382e-07
7.59284e-07
1.08037e-06
1.44889e-06
1.63748e-06
8.92286e-07
0
0
0
0
0
0
0
0
3.25835e-08
7.84799e-08
1.01448e-07
1.11025e-07
1.11727e-07
1.07482e-07
1.03012e-07
9.94547e-08
9.71152e-08
9.56219e-08
9.6084e-08
1.01851e-07
1.16541e-07
1.40044e-07
1.64427e-07
1.72994e-07
1.47591e-07
7.44507e-08
0
0
0
0
0
0
0
0
0
0
0
0
0
0
0
0
0
0
0
0
0
0
0
0
0
0
0
0
0
0
0
0
0
0
0
0
0
0
0
0
0
0
0
0
0
0
0
0
0
0
0
0
0
0
0
0
0
0
0
0
0
0
0
0
0
0
0
0
0
0
0
0
0
0
0
0
0
0
0
0
0
0
0
1.39406e-09
2.76441e-09
1.97535e-09
1.90638e-09
6.14488e-10
4.35143e-10
0
0
0
0
0
1.05117e-07
1.99509e-06
0
0
0
0
0
0
0
0
0
3.27431e-05
5.63919e-05
6.53904e-05
6.65485e-05
6.45591e-05
5.96188e-05
4.63794e-05
2.93699e-05
1.66302e-05
9.42079e-06
5.19606e-06
2.13102e-06
0
0
0
0
0
0
0
0
0
0
0
1.59744e-06
3.41554e-06
3.90083e-06
3.25691e-06
2.39469e-06
1.6402e-06
1.0586e-06
6.62707e-07
4.32987e-07
3.26488e-07
2.92567e-07
2.87288e-07
2.8101e-07
2.60565e-07
2.25811e-07
1.92953e-07
1.80226e-07
2.09285e-07
3.00115e-07
4.70675e-07
7.41311e-07
1.14276e-06
1.73071e-06
2.57178e-06
3.49918e-06
1.96102e-06
0
0
0
0
0
0
0
0
0
0
1.85249e-08
4.56519e-08
5.38635e-08
4.82073e-08
3.27592e-08
9.45151e-09
0
0
0
0
0
0
0
0
0
0
0
0
0
0
0
0
0
0
0
0
0
0
0
0
0
0
0
0
0
0
0
0
0
0
0
0
0
0
0
0
0
0
0
0
0
0
0
0
0
0
0
0
0
0
0
0
0
0
0
0
0
0
0
0
0
0
0
0
0
0
0
0
0
0
0
0
0
0
0
0
0
0
0
0
0
0
0
0
0
0
0
0
0
0
7.52699e-10
6.17448e-10
6.67182e-10
0
0
0
0
0
0
0
4.3287e-08
9.63841e-08
0
0
0
2.15516e-06
2.2719e-06
3.98038e-06
1.67519e-05
3.89862e-05
4.29079e-05
4.12295e-05
4.0908e-05
4.18621e-05
4.28192e-05
4.51642e-05
5.10696e-05
5.63239e-05
4.42001e-05
2.43851e-05
1.19933e-05
5.79598e-06
2.24499e-06
0
0
0
0
0
0
0
0
0
0
1.78964e-06
5.37319e-06
6.12502e-06
4.20757e-06
2.67631e-06
1.68716e-06
1.07036e-06
7.21467e-07
5.5692e-07
5.0179e-07
4.93344e-07
4.80294e-07
4.4261e-07
3.77668e-07
2.94021e-07
2.12309e-07
1.53077e-07
1.41661e-07
2.01926e-07
3.54238e-07
6.14225e-07
9.99079e-07
1.54684e-06
2.35277e-06
3.61316e-06
5.53622e-06
4.12993e-06
0
0
0
0
0
0
0
0
0
0
0
0
0
0
0
0
0
0
0
0
0
0
0
0
0
0
0
0
0
0
0
0
0
0
0
0
0
0
0
0
0
0
0
0
0
0
0
0
0
0
0
0
0
0
0
0
0
0
0
0
0
0
0
0
0
0
0
0
0
0
0
0
0
0
0
0
0
2.64316e-07
3.49704e-07
0
0
0
0
0
0
0
0
0
0
0
0
0
0
0
0
0
0
0
0
0
0
0
0
0
0
0
0
0
0
0
0
0
0
0
0
0
0
0
0
0
2.10256e-09
1.73341e-07
9.37444e-08
9.96253e-08
3.43517e-07
1.8662e-06
2.54594e-06
4.44755e-06
9.62073e-06
1.53858e-05
1.89418e-05
2.06711e-05
2.14436e-05
2.19474e-05
2.25549e-05
2.34009e-05
2.58731e-05
3.08578e-05
3.18339e-05
2.37993e-05
1.54637e-05
9.6275e-06
5.68671e-06
3.15829e-06
3.48194e-07
0
0
0
0
0
0
0
0
0
0
2.92923e-06
2.56909e-06
1.66314e-06
1.08533e-06
7.8313e-07
6.52476e-07
6.08771e-07
5.87979e-07
5.52734e-07
4.94847e-07
4.16542e-07
3.20686e-07
2.16077e-07
1.23527e-07
6.97554e-08
8.63725e-08
1.99805e-07
4.235e-07
7.55093e-07
1.17455e-06
1.68734e-06
2.36988e-06
3.30054e-06
4.38243e-06
3.56588e-06
0
0
0
0
4.29284e-07
6.39812e-07
6.78488e-07
6.05877e-07
4.88244e-07
3.71822e-07
2.67884e-07
1.94638e-07
1.46203e-07
1.12611e-07
7.49382e-08
1.72141e-08
0
0
0
0
0
0
0
0
0
0
0
0
0
0
0
0
0
0
0
0
0
0
0
0
0
0
0
0
0
0
0
0
0
0
0
0
0
0
0
0
0
0
0
0
0
0
0
0
0
0
0
0
0
0
0
0
0
0
4.01965e-08
0
0
3.04875e-07
2.30551e-07
0
0
0
0
0
0
0
0
0
0
0
0
0
0
0
0
0
0
0
0
0
0
0
0
0
0
0
0
0
0
0
0
0
0
0
0
0
0
0
0
0
0
2.91557e-07
2.14452e-07
2.9635e-08
0
0
1.79333e-07
7.29623e-07
2.30917e-06
4.38757e-06
6.28966e-06
7.84882e-06
8.90915e-06
9.43086e-06
9.65288e-06
9.61653e-06
9.83197e-06
1.04956e-05
1.13464e-05
1.18395e-05
1.07508e-05
8.06267e-06
6.82283e-06
4.47347e-06
2.60542e-06
1.1132e-06
0
0
0
0
0
0
0
0
0
0
9.81777e-08
4.20081e-07
4.21923e-07
4.06097e-07
4.05704e-07
4.09999e-07
4.08866e-07
3.926e-07
3.56329e-07
2.91905e-07
1.99544e-07
9.57015e-08
9.39702e-09
0
3.88785e-08
2.23934e-07
5.2928e-07
9.21905e-07
1.40012e-06
2.07953e-06
3.19455e-06
5.12642e-06
8.20544e-06
8.63758e-06
0
0
0
0
3.72044e-07
1.00614e-06
1.2793e-06
1.26978e-06
1.1038e-06
8.69108e-07
6.2806e-07
4.31812e-07
3.04116e-07
2.41904e-07
2.27405e-07
2.29134e-07
2.1465e-07
1.7038e-07
9.24426e-08
0
0
0
0
0
0
0
0
0
0
0
0
0
0
0
0
0
0
0
0
0
0
0
0
0
0
0
0
0
0
0
0
0
0
0
0
0
0
0
0
0
0
0
0
0
0
0
0
0
0
0
0
0
0
0
0
0
0
5.50443e-08
1.50154e-07
0
0
0
0
0
0
0
0
0
0
0
0
0
0
0
0
0
0
0
0
0
0
0
0
0
0
0
0
0
0
0
0
0
0
0
0
0
0
0
0
0
0
2.25567e-07
1.99777e-07
2.80635e-08
0
0
0
0
0
2.5967e-07
1.05384e-06
1.74711e-06
2.24826e-06
2.57783e-06
2.81604e-06
2.87033e-06
2.67705e-06
2.18179e-06
1.3644e-06
2.38118e-07
2.67393e-07
3.2861e-06
5.227e-06
5.32259e-06
4.71412e-06
3.62905e-06
2.39769e-06
1.18724e-06
4.31106e-07
0
0
0
0
0
0
0
0
0
0
0
0
5.18357e-08
1.33613e-07
1.83425e-07
1.84431e-07
1.36901e-07
5.31528e-08
0
0
0
4.1123e-08
3.43178e-07
8.0015e-07
1.42101e-06
2.3186e-06
3.76372e-06
6.17261e-06
9.95874e-06
1.3927e-05
2.87007e-06
0
0
0
0
0
0
1.58327e-07
7.15315e-07
8.91826e-07
8.18276e-07
5.98071e-07
3.33682e-07
1.01339e-07
0
0
0
0
0
0
0
0
0
0
0
0
0
0
0
0
0
0
0
0
0
0
0
0
0
0
0
0
0
0
0
0
0
0
0
0
0
0
0
0
0
0
0
0
0
0
0
0
0
0
0
2.60295e-08
0
0
0
0
0
0
8.31806e-08
7.26529e-08
0
0
0
0
0
1.5873e-07
2.41638e-08
0
0
0
0
0
0
0
0
0
0
0
0
0
0
0
0
0
0
0
0
0
0
0
0
0
0
0
0
0
0
0
0
0
0
0
0
0
0
0
0
0
1.36413e-07
1.66374e-07
2.57615e-08
0
0
0
0
0
0
0
0
0
0
3.28986e-07
5.58995e-07
6.2801e-07
6.34844e-07
8.84354e-07
1.77169e-06
3.14215e-06
4.34373e-06
5.25117e-06
6.13314e-06
7.33793e-06
5.65136e-06
2.22321e-06
1.13178e-06
6.50768e-07
3.16116e-07
5.00135e-10
0
0
0
0
0
0
0
0
0
0
0
0
4.40741e-08
4.93891e-08
5.81147e-09
0
0
0
0
1.13986e-07
5.19176e-07
1.14092e-06
2.02042e-06
3.27982e-06
5.06043e-06
7.14715e-06
7.80098e-06
3.27095e-06
0
0
0
0
0
0
0
0
1.17642e-07
6.31435e-07
8.01217e-07
7.73535e-07
6.18542e-07
3.48061e-07
3.68182e-08
0
0
0
0
0
0
0
0
0
0
0
0
0
0
0
0
0
0
0
0
0
0
0
0
0
0
0
0
0
0
0
0
0
0
0
0
0
0
0
0
0
0
0
0
0
0
0
0
0
9.74836e-08
1.7877e-07
1.27494e-07
0
0
0
0
0
9.27748e-08
9.88645e-08
0
0
0
0
0
1.25022e-07
9.08002e-08
0
0
0
0
0
0
0
0
0
0
0
0
0
0
0
0
0
0
0
0
0
0
0
0
0
0
0
0
0
0
0
0
0
0
0
0
0
0
0
0
0
3.56633e-08
1.83281e-07
1.02351e-07
0
0
0
0
0
0
0
0
0
0
0
3.91513e-07
9.47914e-07
1.55499e-06
2.19759e-06
2.84093e-06
3.52515e-06
4.3847e-06
5.84008e-06
7.75769e-06
4.6686e-06
2.32593e-06
1.44228e-06
1.01952e-06
7.56724e-07
5.36498e-07
3.1677e-07
1.07209e-07
0
0
0
0
0
0
0
0
0
0
0
0
0
0
0
0
0
0
8.66074e-08
5.15847e-07
1.19803e-06
2.1234e-06
3.21149e-06
4.06204e-06
3.62971e-06
7.94584e-07
0
0
0
0
0
0
0
0
0
0
4.57777e-07
6.75005e-07
7.19481e-07
7.48789e-07
7.1159e-07
5.1969e-07
2.06036e-07
0
0
0
0
0
0
0
0
0
0
0
0
0
0
0
0
0
0
0
0
0
0
0
1.30039e-07
0
0
0
0
0
0
0
0
0
0
0
0
0
0
0
0
0
0
0
0
0
0
0
0
0
1.07243e-07
1.42131e-07
2.46062e-08
0
0
0
0
0
0
0
0
0
0
2.89016e-08
2.79759e-08
7.65568e-08
0
0
0
0
0
0
3.22699e-08
3.40898e-07
1.78277e-07
0
0
0
0
0
0
0
2.29576e-08
3.62737e-08
2.8814e-08
6.40102e-09
0
0
0
0
0
0
0
0
0
0
0
0
0
0
0
0
0
0
0
0
0
0
2.38156e-07
1.98056e-07
1.2438e-07
1.99968e-07
5.90863e-07
6.48648e-07
1.14627e-07
0
0
0
1.73523e-07
5.39252e-07
8.92875e-07
1.21871e-06
1.53307e-06
1.88049e-06
2.31662e-06
2.89725e-06
3.81378e-06
5.73006e-06
6.42971e-06
3.70074e-06
2.22182e-06
1.57439e-06
1.23246e-06
1.02308e-06
8.58074e-07
6.99474e-07
5.49266e-07
4.20787e-07
2.97703e-07
1.88845e-07
9.20386e-08
0
0
0
0
0
0
0
0
1.64355e-08
2.70791e-08
1.36162e-08
0
0
0
0
0
1.03509e-07
5.60404e-07
1.04852e-06
1.23485e-06
6.22486e-07
0
0
0
0
0
0
0
0
0
0
0
0
3.1652e-07
5.74738e-07
5.08086e-07
4.27385e-07
4.59122e-07
5.41534e-07
5.53556e-07
4.35709e-07
2.1318e-07
0
0
0
0
0
0
0
0
0
0
0
0
0
0
5.39605e-08
7.26516e-08
8.24542e-08
6.61504e-08
0
0
1.43439e-07
2.02601e-07
5.41163e-08
0
0
0
0
0
0
0
0
0
0
0
0
0
0
0
0
0
0
0
0
0
0
0
0
0
0
0
0
0
0
0
0
0
0
0
0
0
0
0
0
0
0
0
0
0
0
2.01243e-07
1.76832e-07
6.8029e-08
4.39928e-08
4.69972e-08
0
0
0
0
9.09927e-09
5.93125e-08
8.44301e-08
8.00134e-08
5.73032e-08
1.82093e-08
0
0
0
0
0
0
0
0
0
0
0
0
0
0
0
0
0
0
0
0
0
4.84942e-07
6.7076e-07
7.67121e-07
1.16686e-06
2.23043e-06
3.24255e-06
3.19551e-06
2.72422e-06
2.40684e-06
2.18078e-06
1.92027e-06
1.69744e-06
1.56966e-06
1.5656e-06
1.70831e-06
2.02073e-06
2.56851e-06
3.6998e-06
5.82164e-06
4.84405e-06
2.98953e-06
2.06587e-06
1.6102e-06
1.35807e-06
1.20062e-06
1.07214e-06
9.50626e-07
8.33943e-07
7.3167e-07
6.34545e-07
5.38503e-07
4.46831e-07
3.54505e-07
2.55203e-07
1.40674e-07
2.20049e-08
0
0
0
0
4.76787e-08
9.71236e-08
1.33336e-07
1.60307e-07
1.61802e-07
9.07592e-08
0
0
0
0
0
0
0
0
0
0
0
0
0
0
0
0
0
0
0
0
1.52534e-07
5.04571e-07
4.57066e-07
2.63581e-07
1.37772e-07
1.37593e-07
2.01979e-07
2.95716e-07
4.16005e-07
4.84048e-07
3.70665e-07
0
0
0
0
0
0
0
0
0
0
0
0
0
2.16805e-07
2.15219e-07
1.62143e-07
1.23071e-07
1.41933e-07
2.59881e-07
1.52429e-07
0
0
0
0
0
0
0
0
0
0
0
1.79402e-08
0
0
0
0
0
0
0
0
0
0
0
0
0
0
0
0
0
0
0
0
0
0
1.05699e-08
7.84141e-08
1.27862e-07
1.04691e-07
0
0
0
0
0
0
0
0
0
1.65047e-07
1.36425e-07
0
0
0
0
0
0
0
6.19541e-08
1.23115e-07
1.54699e-07
1.52585e-07
1.2075e-07
7.36088e-08
0
0
0
0
0
0
0
0
0
0
0
0
0
0
0
0
0
0
0
0
0
4.32377e-07
1.34156e-06
1.9784e-06
2.84872e-06
4.14122e-06
5.11815e-06
5.15921e-06
4.59555e-06
3.847e-06
3.07289e-06
2.41801e-06
1.97375e-06
1.73869e-06
1.68605e-06
1.82554e-06
2.28629e-06
3.51542e-06
4.6802e-06
3.13265e-06
2.09528e-06
1.63191e-06
1.36853e-06
1.2228e-06
1.13589e-06
1.05739e-06
9.7758e-07
8.89235e-07
8.07646e-07
7.41691e-07
6.73572e-07
6.0882e-07
5.45757e-07
4.756e-07
3.94319e-07
2.95422e-07
1.86848e-07
9.33066e-08
4.08995e-08
3.96976e-08
7.81517e-08
1.2749e-07
1.72032e-07
2.24448e-07
2.99167e-07
3.76288e-07
3.66484e-07
1.56168e-07
0
0
0
0
0
0
0
0
0
0
0
0
0
0
0
0
0
0
0
2.67551e-07
3.82804e-07
3.7699e-07
2.52048e-07
7.8463e-08
0
0
0
0
0
0
0
0
0
0
0
0
0
0
0
0
0
0
7.30192e-08
2.21376e-07
1.67324e-07
9.50194e-08
4.54114e-08
6.15096e-08
1.91049e-07
7.63077e-08
0
0
0
0
0
0
0
0
0
0
0
0
0
0
0
0
0
0
0
0
0
0
0
0
0
0
0
0
0
4.36687e-08
5.84966e-08
3.3239e-08
1.26279e-08
1.77774e-08
4.11923e-08
9.20476e-08
1.57098e-07
1.73284e-07
0
0
0
0
0
0
0
0
0
0
1.49229e-07
2.30239e-08
0
0
0
0
0
2.31461e-08
1.61044e-07
2.22644e-07
2.4881e-07
2.47552e-07
2.04401e-07
1.43573e-07
5.24971e-08
0
0
0
0
0
0
0
0
0
0
0
0
0
0
0
0
0
0
0
0
0
1.10607e-06
2.32952e-06
3.43972e-06
4.4428e-06
4.94268e-06
4.77079e-06
4.15425e-06
3.41546e-06
2.73074e-06
2.19204e-06
1.83305e-06
1.64845e-06
1.67047e-06
2.0336e-06
2.90813e-06
3.07275e-06
1.96062e-06
1.34912e-06
1.11931e-06
1.0213e-06
9.67598e-07
9.44843e-07
9.24138e-07
8.95443e-07
8.43107e-07
7.72951e-07
7.15944e-07
6.69743e-07
6.14444e-07
5.5931e-07
5.10817e-07
4.60732e-07
4.03593e-07
3.35234e-07
2.56458e-07
1.79746e-07
1.24742e-07
1.07957e-07
1.31202e-07
1.74671e-07
2.22362e-07
2.82388e-07
3.70264e-07
4.91143e-07
5.82658e-07
5.25767e-07
2.28286e-07
0
0
0
0
0
0
0
0
0
0
0
0
0
0
0
0
0
4.06473e-07
4.93241e-07
3.3943e-07
2.25433e-07
1.77413e-07
5.51729e-08
0
0
0
0
0
0
0
0
0
0
0
0
0
0
0
0
0
0
3.04459e-07
4.00191e-07
3.02681e-07
2.30941e-07
1.96178e-07
2.07987e-07
2.53441e-07
1.73285e-07
0
0
0
0
0
0
0
0
0
0
0
0
0
0
0
0
0
4.64799e-09
3.53745e-08
3.99738e-08
8.32646e-09
0
0
0
0
0
0
0
0
8.8532e-08
1.13516e-07
9.63038e-08
7.50763e-08
6.43311e-08
6.37285e-08
7.75796e-08
7.98291e-08
0
0
0
0
0
0
0
0
0
0
0
0
9.3421e-09
0
0
0
0
0
0
3.01048e-07
3.41309e-07
3.50836e-07
3.42459e-07
2.95968e-07
2.23023e-07
1.42296e-07
0
0
0
0
0
0
0
0
0
0
0
0
0
0
0
0
0
0
0
0
0
1.23159e-07
1.35683e-06
2.49143e-06
3.23247e-06
3.2917e-06
2.89435e-06
2.41731e-06
2.0323e-06
1.73092e-06
1.504e-06
1.36402e-06
1.32527e-06
1.42098e-06
1.60411e-06
1.57259e-06
1.13697e-06
7.61193e-07
6.16773e-07
6.00055e-07
6.32237e-07
6.72476e-07
7.02844e-07
7.22936e-07
7.19002e-07
6.78342e-07
6.24254e-07
5.77507e-07
5.35321e-07
4.83029e-07
4.32028e-07
3.92357e-07
3.57087e-07
3.20589e-07
2.79784e-07
2.31468e-07
1.7916e-07
1.33066e-07
1.09078e-07
1.17217e-07
1.53861e-07
2.0238e-07
2.55411e-07
3.30496e-07
4.27558e-07
5.46018e-07
6.2042e-07
5.66269e-07
3.16114e-07
0
0
0
0
0
0
0
0
0
0
0
0
0
0
0
0
2.80368e-07
5.62602e-07
5.07942e-07
2.19484e-07
1.79466e-08
0
0
0
0
0
0
0
0
0
0
0
0
0
0
0
1.41099e-07
2.23711e-07
1.92504e-07
2.26596e-07
3.80313e-07
4.50713e-07
3.67829e-07
3.06626e-07
2.76067e-07
2.32024e-07
1.92649e-07
1.81357e-07
1.34462e-07
4.97012e-08
0
0
4.8158e-09
4.78233e-08
7.62568e-08
8.01078e-08
5.64325e-08
0
0
0
0
0
0
0
0
0
6.62557e-08
1.04785e-07
4.37938e-08
0
0
0
0
0
0
0
2.73433e-09
1.84124e-07
1.67211e-07
1.17193e-07
9.41281e-08
8.40537e-08
7.65951e-08
6.97426e-08
1.51992e-08
0
0
4.11926e-07
5.42558e-08
0
0
0
0
0
0
0
0
0
0
7.52499e-08
0
0
0
0
1.51931e-07
3.22546e-07
3.73374e-07
3.76312e-07
3.33888e-07
2.59147e-07
1.99075e-07
0
0
0
0
0
0
0
0
0
0
0
0
0
0
0
0
0
0
0
0
0
0
2.64469e-07
1.19909e-06
1.75052e-06
1.53786e-06
1.21879e-06
1.15698e-06
1.16718e-06
1.12982e-06
1.04734e-06
9.52638e-07
8.61526e-07
7.71095e-07
6.63057e-07
5.28964e-07
3.56741e-07
1.80372e-07
1.08877e-07
1.69232e-07
2.81253e-07
3.83187e-07
4.55973e-07
5.01917e-07
5.14104e-07
4.90032e-07
4.43149e-07
3.96969e-07
3.64286e-07
3.31209e-07
2.96473e-07
2.66798e-07
2.39271e-07
2.11672e-07
1.84022e-07
1.54296e-07
1.22759e-07
9.09372e-08
6.79786e-08
6.27544e-08
8.06844e-08
1.19393e-07
1.63542e-07
2.05521e-07
2.63394e-07
3.3353e-07
4.17246e-07
4.75726e-07
4.61577e-07
3.42982e-07
9.04356e-08
0
0
0
0
0
0
0
0
0
0
0
0
0
0
0
3.58592e-07
6.64775e-07
4.36867e-07
0
0
0
2.07622e-07
2.07231e-08
0
0
0
0
0
0
0
0
0
0
1.71893e-07
5.11879e-07
5.69665e-07
5.10921e-07
4.73111e-07
4.97575e-07
4.84575e-07
3.81904e-07
2.6571e-07
1.88094e-07
1.30753e-07
1.13017e-07
1.51051e-07
1.82994e-07
1.748e-07
1.3632e-07
1.05094e-07
8.24004e-08
6.1492e-08
6.12571e-08
7.70153e-08
9.16961e-08
7.60697e-08
7.85823e-09
0
0
0
0
0
0
0
1.16591e-08
1.20978e-07
1.0186e-07
0
0
0
0
2.93655e-09
5.9971e-09
0
2.84997e-07
3.0994e-07
1.58741e-07
6.66416e-08
6.35823e-08
7.3523e-08
7.6275e-08
7.01256e-08
0
0
0
1.15067e-06
3.77398e-07
3.2234e-08
0
0
0
0
0
0
0
0
0
0
6.67811e-08
0
0
0
0
1.17611e-07
2.63159e-07
3.07354e-07
2.80833e-07
2.09968e-07
1.33841e-07
0
0
0
0
0
0
0
0
0
0
0
0
0
0
0
0
0
0
0
0
0
0
0
2.1425e-07
6.34267e-07
6.12686e-07
8.42311e-07
1.04186e-06
1.03886e-06
8.9914e-07
7.2013e-07
5.51742e-07
4.06019e-07
2.77564e-07
1.62121e-07
5.43868e-08
0
0
0
0
0
1.23199e-07
2.24294e-07
2.72236e-07
2.74435e-07
2.45088e-07
1.93165e-07
1.47115e-07
1.28084e-07
1.22421e-07
1.18983e-07
1.17206e-07
1.11767e-07
1.00103e-07
8.38139e-08
6.50464e-08
4.58995e-08
2.69473e-08
1.03191e-08
0
0
1.51211e-08
4.38745e-08
7.14788e-08
8.90945e-08
1.03753e-07
1.2572e-07
1.61832e-07
2.0785e-07
2.56392e-07
3.23705e-07
4.61685e-07
6.88181e-07
1.1319e-06
1.75667e-06
2.52924e-06
3.22782e-06
2.14285e-06
0
0
0
0
0
0
0
0
2.73095e-07
7.9741e-07
7.44472e-07
9.57432e-08
0
0
4.4322e-07
3.62463e-07
7.10353e-08
0
0
0
0
0
0
0
0
2.37884e-08
7.03397e-07
9.85523e-07
8.7017e-07
6.67165e-07
5.39878e-07
4.87525e-07
4.50053e-07
3.74974e-07
2.39762e-07
1.48465e-07
1.00595e-07
1.13075e-07
1.85357e-07
2.51845e-07
2.67513e-07
2.48691e-07
2.11476e-07
1.75643e-07
1.16682e-07
5.59223e-08
3.52991e-08
5.20889e-08
7.01296e-08
6.57708e-08
5.18144e-08
2.47505e-08
0
0
0
0
0
0
8.69587e-08
1.55968e-07
4.12875e-08
0
0
0
3.21606e-08
8.94411e-08
1.73394e-07
3.23045e-07
2.23235e-07
5.46193e-09
0
0
2.7921e-08
5.37408e-08
6.29712e-08
3.68613e-09
0
0
2.02629e-06
8.71809e-07
2.54411e-07
0
0
0
0
0
0
0
0
0
0
0
0
9.1776e-08
0
0
0
1.4014e-07
2.00501e-07
1.83546e-07
1.19207e-07
4.11923e-08
0
0
0
0
0
0
0
0
0
0
0
0
0
0
0
0
0
0
0
0
0
0
0
0
0
0
5.4395e-07
7.41837e-07
6.62427e-07
4.85344e-07
3.23953e-07
2.11264e-07
1.37701e-07
8.66824e-08
3.84707e-08
0
0
0
0
0
0
0
1.82864e-09
3.7527e-08
2.85253e-08
4.7068e-09
0
0
0
0
0
0
0
0
0
0
0
0
0
0
0
0
0
0
0
0
0
0
0
0
1.18733e-07
4.44064e-07
9.97038e-07
2.02128e-06
3.65875e-06
6.11059e-06
1.00969e-05
1.45189e-05
2.57636e-06
0
0
0
0
0
0
0
3.5468e-07
8.92843e-07
8.82869e-07
2.70025e-07
0
5.818e-07
6.84961e-07
3.70553e-07
1.61113e-07
2.01667e-08
0
0
0
0
0
0
9.7934e-08
5.10219e-07
8.21227e-07
9.38149e-07
8.57383e-07
6.87585e-07
5.41152e-07
4.57362e-07
3.98709e-07
3.22227e-07
2.31004e-07
1.56563e-07
1.26857e-07
1.68403e-07
2.66353e-07
3.52977e-07
3.66613e-07
3.42305e-07
3.00477e-07
2.61505e-07
2.01136e-07
1.17024e-07
4.71639e-08
1.42963e-08
3.8772e-08
8.90678e-08
1.19921e-07
1.16046e-07
8.34186e-08
3.41914e-08
0
0
0
0
0
1.74774e-07
1.24735e-07
1.16688e-08
0
0
5.17772e-08
2.77679e-07
1.89937e-07
1.92368e-07
1.83827e-07
1.06641e-08
0
0
0
1.37284e-08
4.218e-08
5.75149e-08
1.90933e-07
2.01307e-06
2.13385e-06
1.58336e-06
6.03488e-07
5.15346e-08
0
0
3.09371e-09
0
0
0
0
0
0
0
0
1.88307e-07
1.58577e-07
0
0
7.68707e-08
1.18644e-07
9.47577e-08
3.52395e-08
0
0
0
0
0
0
0
0
0
0
0
0
0
0
0
0
0
0
0
2.67394e-07
3.5723e-07
9.02238e-08
9.37151e-08
5.81597e-07
7.22069e-07
0
0
2.11284e-07
4.04931e-07
2.95583e-07
8.24835e-08
0
0
0
0
0
0
0
0
0
0
0
0
2.9693e-09
0
0
0
0
0
0
0
0
0
0
0
0
0
0
0
0
0
0
0
0
0
0
0
0
0
0
0
0
1.95243e-07
7.79661e-07
1.80442e-06
3.45587e-06
5.88964e-06
9.58692e-06
1.22329e-05
1.65891e-06
0
0
0
0
0
0
0
5.50254e-07
1.12169e-06
9.94376e-07
4.7465e-07
1.63468e-06
2.18161e-06
1.30686e-06
5.22615e-07
1.22691e-07
4.65255e-08
3.17823e-08
0
0
0
0
7.61158e-08
3.56556e-07
4.27555e-07
4.22717e-07
4.35901e-07
4.66641e-07
4.95289e-07
4.84109e-07
4.36672e-07
3.72039e-07
3.03429e-07
2.37473e-07
1.88449e-07
1.82833e-07
2.35225e-07
3.24825e-07
4.09629e-07
4.1669e-07
3.8343e-07
3.47449e-07
3.19111e-07
2.75495e-07
1.9953e-07
1.12824e-07
3.5819e-08
1.19126e-08
9.33535e-08
1.53242e-07
1.7318e-07
1.61565e-07
1.18005e-07
3.78036e-08
0
0
0
0
1.42796e-07
1.83513e-07
9.14869e-08
1.96431e-08
0
0
2.03983e-07
1.65318e-07
1.86298e-07
1.67058e-07
8.09364e-08
0
0
0
0
2.6417e-08
2.03309e-07
1.29701e-06
1.13232e-06
1.43563e-06
2.20353e-06
8.35061e-07
6.53267e-08
0
4.22966e-08
1.20642e-07
1.4674e-07
6.26225e-08
0
2.72621e-08
0
0
0
6.73658e-08
2.68264e-07
2.56436e-07
1.23728e-07
4.28053e-08
6.32688e-08
6.84231e-08
2.67653e-08
0
0
0
0
0
0
0
0
0
0
0
0
0
0
0
0
0
0
0
7.2606e-07
1.43551e-06
1.10577e-06
3.31552e-07
4.7791e-07
1.41991e-06
1.01831e-06
0
0
0
3.07302e-07
1.3263e-07
0
0
0
0
0
1.45098e-08
1.96095e-07
4.87982e-07
6.09036e-07
2.02054e-07
1.11581e-07
1.83896e-07
1.04754e-07
0
0
0
0
0
0
0
0
0
0
0
0
0
0
0
0
0
0
0
0
0
0
0
0
0
0
0
0
0
0
4.6714e-07
1.30759e-06
2.53769e-06
4.09149e-06
5.57935e-06
4.69396e-06
0
0
0
0
0
0
0
0
7.25005e-07
1.24572e-06
1.02788e-06
1.11304e-06
3.53864e-06
2.94051e-06
1.93817e-06
9.07344e-07
2.39831e-07
8.75538e-08
1.80191e-07
2.03129e-07
8.15871e-08
1.79179e-08
7.87762e-08
3.76499e-07
4.28762e-07
3.70622e-07
3.48998e-07
3.29934e-07
3.21958e-07
3.38847e-07
3.756e-07
3.8948e-07
3.6055e-07
3.03249e-07
2.61376e-07
2.45493e-07
2.48572e-07
2.52333e-07
2.8364e-07
3.58875e-07
3.84837e-07
3.58307e-07
3.3847e-07
3.35777e-07
3.17749e-07
2.62859e-07
1.81546e-07
8.27614e-08
1.06149e-08
8.00324e-08
1.48036e-07
1.89256e-07
2.03012e-07
1.85201e-07
1.06473e-07
3.36751e-09
0
0
0
6.84381e-08
2.04921e-07
1.55506e-07
8.90299e-08
2.21807e-08
0
0
1.61994e-07
2.35184e-07
2.76627e-07
1.34075e-07
0
0
0
0
3.91899e-08
4.35263e-07
7.38348e-07
5.5809e-07
8.31083e-07
1.83179e-06
2.14383e-07
0
0
4.21022e-08
2.99391e-07
3.69369e-07
1.6216e-07
0
0
3.08732e-08
0
0
2.03303e-07
3.17701e-07
3.09113e-07
2.26605e-07
1.27998e-07
7.98122e-08
3.68987e-08
0
0
0
0
0
0
0
0
0
0
0
0
0
0
0
0
0
0
0
0
1.42949e-08
5.14743e-07
0
0
0
1.80145e-07
1.41549e-07
0
0
0
0
0
0
0
0
0
5.10653e-08
3.02928e-07
7.58404e-07
1.16824e-06
9.66121e-07
3.26396e-07
2.65335e-07
3.75976e-07
1.30061e-07
0
0
0
0
0
0
0
0
0
0
0
0
0
0
0
0
0
0
0
0
0
0
0
0
0
0
0
0
0
0
1.89899e-07
8.05957e-07
1.62582e-06
2.47244e-06
2.86106e-06
1.84435e-06
0
0
0
0
0
0
0
0
9.3004e-07
1.38331e-06
1.20454e-06
2.99581e-06
3.92115e-06
3.19145e-06
2.34234e-06
1.21448e-06
4.75968e-07
3.34288e-07
4.57187e-07
4.24233e-07
2.61558e-07
1.30647e-07
2.37396e-07
4.44395e-07
3.47384e-07
3.2086e-07
3.35584e-07
3.34273e-07
3.26926e-07
3.20538e-07
3.27676e-07
3.41194e-07
3.34323e-07
3.05476e-07
2.84644e-07
3.0186e-07
3.21641e-07
3.04711e-07
2.82003e-07
3.0099e-07
3.17556e-07
2.92766e-07
2.85798e-07
3.06478e-07
3.21966e-07
2.96082e-07
2.2659e-07
1.29912e-07
2.86318e-08
6.2056e-08
1.16961e-07
1.70209e-07
2.10523e-07
2.23548e-07
1.64607e-07
4.53623e-08
0
0
0
6.97085e-09
1.89616e-07
1.85373e-07
1.42006e-07