/*--------------------------------*- C++ -*----------------------------------*\
  =========                 |
  \\      /  F ield         | OpenFOAM: The Open Source CFD Toolbox
   \\    /   O peration     | Website:  https://openfoam.org
    \\  /    A nd           | Version:  9
     \\/     M anipulation  |
\*---------------------------------------------------------------------------*/
FoamFile
{
    format      ascii;
    class       surfaceScalarField;
    location    "0.032";
    object      phi;
}
// * * * * * * * * * * * * * * * * * * * * * * * * * * * * * * * * * * * * * //

dimensions      [0 3 -1 0 0 0 0];

internalField   nonuniform List<scalar> 
24170
(
3.20681e-06
7.30335e-08
3.06129e-06
1.45521e-07
2.91903e-06
1.42257e-07
2.80503e-06
1.14003e-07
2.69297e-06
1.12057e-07
2.58134e-06
1.11632e-07
2.48289e-06
9.84475e-08
2.39921e-06
8.36807e-08
2.32041e-06
7.87992e-08
2.23717e-06
8.32436e-08
2.14875e-06
8.8414e-08
2.06004e-06
8.87106e-08
1.97452e-06
8.55192e-08
1.88974e-06
8.47832e-08
1.79852e-06
9.12178e-08
1.69639e-06
1.02133e-07
1.57074e-06
1.25653e-07
1.49583e-07
1.42115e-06
3.48655e-06
2.67133e-09
3.4951e-06
1.36971e-07
3.47822e-06
1.59134e-07
3.47956e-06
1.12664e-07
3.48336e-06
1.08254e-07
3.46602e-06
1.28977e-07
3.42688e-06
1.37582e-07
3.38137e-06
1.29194e-07
3.34325e-06
1.16916e-07
3.31578e-06
1.10713e-07
3.29473e-06
1.09462e-07
3.2736e-06
1.09844e-07
3.24824e-06
1.10886e-07
3.21572e-06
1.17295e-07
3.17542e-06
1.31521e-07
3.12546e-06
1.52088e-07
3.06658e-06
1.84541e-07
2.13452e-07
3.00271e-06
3.65758e-06
-3.05141e-08
3.68312e-06
1.11433e-07
3.6764e-06
1.65855e-07
3.65253e-06
1.36527e-07
3.64172e-06
1.19068e-07
3.65173e-06
1.18964e-07
3.67353e-06
1.15784e-07
3.69348e-06
1.0925e-07
3.70166e-06
1.08728e-07
3.69662e-06
1.15755e-07
3.68292e-06
1.2317e-07
3.66626e-06
1.265e-07
3.64944e-06
1.27701e-07
3.63316e-06
1.33578e-07
3.61616e-06
1.48519e-07
3.59638e-06
1.71869e-07
3.57885e-06
2.02077e-07
2.309e-07
3.5614e-06
3.95912e-06
-6.53169e-08
3.93406e-06
1.36494e-07
3.88403e-06
2.15884e-07
3.85078e-06
1.69777e-07
3.85074e-06
1.19111e-07
3.87798e-06
9.17195e-08
3.91918e-06
7.45861e-08
3.96015e-06
6.82742e-08
3.98819e-06
8.06922e-08
3.99498e-06
1.08968e-07
3.97899e-06
1.39159e-07
3.94596e-06
1.59524e-07
3.90604e-06
1.67628e-07
3.86955e-06
1.70063e-07
3.84331e-06
1.74763e-07
3.82879e-06
1.86382e-07
3.82776e-06
2.03108e-07
2.23063e-07
3.8356e-06
4.19852e-06
-3.78118e-08
4.19267e-06
1.42353e-07
4.22806e-06
1.80486e-07
4.24839e-06
1.49454e-07
4.24122e-06
1.26284e-07
4.2209e-06
1.12039e-07
4.20129e-06
9.41916e-08
4.18897e-06
8.05932e-08
4.18449e-06
8.51764e-08
4.18399e-06
1.09461e-07
4.18192e-06
1.41237e-07
4.17476e-06
1.66682e-07
4.16249e-06
1.79896e-07
4.14794e-06
1.84617e-07
4.13464e-06
1.88062e-07
4.12561e-06
1.95413e-07
4.12288e-06
2.05837e-07
2.1896e-07
4.12698e-06
4.44654e-06
-1.26752e-07
4.49668e-06
9.22078e-08
4.51473e-06
1.62442e-07
4.51264e-06
1.51542e-07
4.5102e-06
1.28721e-07
4.51109e-06
1.11152e-07
4.50682e-06
9.8456e-08
4.49528e-06
9.21366e-08
4.48354e-06
9.69135e-08
4.47958e-06
1.13422e-07
4.48498e-06
1.35841e-07
4.49568e-06
1.55981e-07
4.50611e-06
1.69467e-07
4.51291e-06
1.77811e-07
4.51523e-06
1.85742e-07
4.51425e-06
1.96395e-07
4.5111e-06
2.08985e-07
2.21332e-07
4.50873e-06
4.796e-06
-1.09833e-07
4.83786e-06
5.03487e-08
4.85881e-06
1.41495e-07
4.8781e-06
1.32255e-07
4.9009e-06
1.05917e-07
4.91593e-06
9.61209e-08
4.91203e-06
1.02355e-07
4.88747e-06
1.16699e-07
4.85144e-06
1.32938e-07
4.81708e-06
1.47789e-07
4.79269e-06
1.6023e-07
4.77937e-06
1.693e-07
4.7742e-06
1.74631e-07
4.77428e-06
1.7774e-07
4.77746e-06
1.82555e-07
4.78252e-06
1.91333e-07
4.78779e-06
2.03725e-07
2.16422e-07
4.7927e-06
5.31505e-06
-1.41702e-07
5.26797e-06
9.74301e-08
5.24557e-06
1.63898e-07
5.21791e-06
1.59909e-07
5.19712e-06
1.26707e-07
5.19652e-06
9.67213e-08
5.20993e-06
8.8944e-08
5.22015e-06
1.06486e-07
5.21584e-06
1.3724e-07
5.19776e-06
1.6587e-07
5.17405e-06
1.83943e-07
5.15303e-06
1.90322e-07
5.13984e-06
1.8782e-07
5.13624e-06
1.81339e-07
5.14171e-06
1.77083e-07
5.15363e-06
1.79412e-07
5.16836e-06
1.88996e-07
2.0297e-07
5.18181e-06
5.42295e-06
-1.84564e-07
5.50409e-06
1.62857e-08
5.55527e-06
1.12721e-07
5.58421e-06
1.30975e-07
5.59592e-06
1.14996e-07
5.59196e-06
1.0068e-07
5.57378e-06
1.07128e-07
5.55435e-06
1.25908e-07
5.55014e-06
1.41457e-07
5.56775e-06
1.48261e-07
5.59995e-06
1.51743e-07
5.63009e-06
1.60175e-07
5.64131e-06
1.766e-07
5.62358e-06
1.99072e-07
5.58019e-06
2.20473e-07
5.5224e-06
2.37203e-07
5.46517e-06
2.46229e-07
2.48188e-07
5.41995e-06
6.01387e-06
-1.26993e-07
5.97265e-06
5.75042e-08
5.92927e-06
1.56108e-07
5.89368e-06
1.66558e-07
5.89226e-06
1.1642e-07
5.91886e-06
7.40844e-08
5.94628e-06
7.97028e-08
5.95711e-06
1.15075e-07
5.95484e-06
1.43732e-07
5.95266e-06
1.50445e-07
5.95944e-06
1.44958e-07
5.97441e-06
1.45204e-07
5.98972e-06
1.61288e-07
5.99607e-06
1.92728e-07
5.98723e-06
2.29313e-07
5.96348e-06
2.60947e-07
5.92857e-06
2.81146e-07
2.88479e-07
5.88828e-06
6.34878e-06
-6.59777e-08
6.33267e-06
7.36166e-08
6.31288e-06
1.75901e-07
6.30566e-06
1.73778e-07
6.30607e-06
1.16009e-07
6.31621e-06
6.39478e-08
6.34026e-06
5.56465e-08
6.36767e-06
8.76651e-08
6.37964e-06
1.31767e-07
6.36688e-06
1.63205e-07
6.3365e-06
1.75332e-07
6.30456e-06
1.77149e-07
6.28425e-06
1.81592e-07
6.28018e-06
1.96799e-07
6.28769e-06
2.21809e-07
6.29961e-06
2.4903e-07
6.30807e-06
2.72679e-07
2.86672e-07
6.30988e-06
5.73479e-06
-1.09097e-07
5.71177e-06
9.6636e-08
5.72106e-06
1.66619e-07
5.75974e-06
1.35092e-07
5.79301e-06
8.27451e-08
5.80169e-06
5.52682e-08
5.7883e-06
6.90295e-08
5.76436e-06
1.11612e-07
5.73951e-06
1.56617e-07
5.71932e-06
1.83392e-07
5.70655e-06
1.88102e-07
5.70283e-06
1.80871e-07
5.70882e-06
1.75595e-07
5.72392e-06
1.81706e-07
5.74435e-06
2.01374e-07
5.76506e-06
2.28315e-07
5.77958e-06
2.58163e-07
2.83704e-07
5.78255e-06
7.04456e-06
-2.44452e-08
7.04691e-06
9.42852e-08
7.0478e-06
1.65735e-07
7.04533e-06
1.3756e-07
7.04784e-06
8.02334e-08
7.05906e-06
4.40524e-08
7.07698e-06
5.1109e-08
7.09279e-06
9.58018e-08
7.09953e-06
1.49872e-07
7.09598e-06
1.86948e-07
7.08461e-06
1.99471e-07
7.06962e-06
1.9586e-07
7.05608e-06
1.89134e-07
7.04761e-06
1.90175e-07
7.04544e-06
2.03551e-07
7.04628e-06
2.27466e-07
7.04629e-06
2.58155e-07
2.88072e-07
7.04193e-06
8.46172e-06
1.46715e-08
8.48708e-06
6.89294e-08
8.53113e-06
1.21679e-07
8.56054e-06
1.08154e-07
8.56032e-06
8.04476e-08
8.54348e-06
6.08993e-08
8.53357e-06
6.10187e-08
8.53898e-06
9.03918e-08
8.55284e-06
1.36009e-07
8.56472e-06
1.75064e-07
8.56746e-06
1.96738e-07
8.55859e-06
2.0473e-07
8.53971e-06
2.08013e-07
8.51424e-06
2.15644e-07
8.4872e-06
2.30595e-07
8.46195e-06
2.52717e-07
8.44232e-06
2.77785e-07
3.0332e-07
8.42707e-06
1.03248e-05
-2.15531e-08
1.03308e-05
6.29186e-08
1.03553e-05
9.72162e-08
1.03828e-05
8.06639e-08
1.04083e-05
5.48932e-08
1.0422e-05
4.72534e-08
1.04195e-05
6.35072e-08
1.0407e-05
1.02847e-07
1.03922e-05
1.50879e-07
1.03755e-05
1.91731e-07
1.03549e-05
2.17317e-07
1.03319e-05
2.27764e-07
1.03119e-05
2.28045e-07
1.03016e-05
2.25863e-07
1.03041e-05
2.28097e-07
1.03189e-05
2.37944e-07
1.03421e-05
2.54582e-07
2.74696e-07
1.03707e-05
1.30255e-05
-3.46489e-08
1.2884e-05
2.04339e-07
1.28209e-05
1.60361e-07
1.28075e-05
9.40277e-08
1.2802e-05
6.03956e-08
1.27973e-05
5.19436e-08
1.27833e-05
7.75817e-08
1.27618e-05
1.24351e-07
1.27403e-05
1.72338e-07
1.27228e-05
2.09276e-07
1.27094e-05
2.30675e-07
1.26994e-05
2.37756e-07
1.26926e-05
2.34853e-07
1.26894e-05
2.29019e-07
1.26913e-05
2.2622e-07
1.26989e-05
2.30417e-07
1.27118e-05
2.41629e-07
2.5985e-07
1.27267e-05
1.51823e-05
7.25239e-08
1.53444e-05
4.22213e-08
1.55551e-05
-5.03491e-08
1.57021e-05
-5.29337e-08
1.57518e-05
1.06718e-08
1.57055e-05
9.83042e-08
1.55986e-05
1.8444e-07
1.54835e-05
2.39434e-07
1.53972e-05
2.58675e-07
1.53549e-05
2.51541e-07
1.53546e-05
2.30999e-07
1.53817e-05
2.10611e-07
1.54169e-05
1.99731e-07
1.54435e-05
2.02391e-07
1.54546e-05
2.15103e-07
1.54523e-05
2.32741e-07
1.54445e-05
2.49398e-07
2.61498e-07
1.54429e-05
1.86132e-05
-1.01397e-07
1.87857e-05
-1.3036e-07
1.88011e-05
-6.56703e-08
1.87488e-05
-6.60882e-10
1.86729e-05
8.65463e-08
1.86081e-05
1.63093e-07
1.85798e-05
2.12744e-07
1.85974e-05
2.21834e-07
1.86585e-05
1.97622e-07
1.87527e-05
1.57338e-07
1.88651e-05
1.18593e-07
1.89803e-05
9.53612e-08
1.90856e-05
9.44464e-08
1.91735e-05
1.14514e-07
1.92414e-05
1.47191e-07
1.92917e-05
1.82459e-07
1.93281e-05
2.12995e-07
2.34851e-07
1.93547e-05
2.31046e-05
-1.82143e-07
2.31426e-05
-1.6835e-07
2.31506e-05
-7.36456e-08
2.31246e-05
2.53732e-08
2.31043e-05
1.06795e-07
2.31096e-05
1.5783e-07
2.31747e-05
1.47682e-07
2.32916e-05
1.04884e-07
2.34255e-05
6.37662e-08
2.35404e-05
4.23579e-08
2.36172e-05
4.17887e-08
2.36561e-05
5.64682e-08
2.3671e-05
7.96251e-08
2.36795e-05
1.0601e-07
2.36948e-05
1.31866e-07
2.37221e-05
1.55178e-07
2.37602e-05
1.74858e-07
1.89969e-07
2.38051e-05
1.686e-05
1.26911e-08
1.67721e-05
-8.04496e-08
1.68038e-05
-1.05326e-07
1.6878e-05
-4.87786e-08
1.69835e-05
1.24943e-09
1.71019e-05
3.94088e-08
1.71816e-05
6.79849e-08
1.71956e-05
9.09063e-08
1.71571e-05
1.02296e-07
1.70975e-05
1.01914e-07
1.70445e-05
9.48525e-08
1.70116e-05
8.93541e-08
1.70001e-05
9.10741e-08
1.70052e-05
1.00895e-07
1.7021e-05
1.16151e-07
1.70423e-05
1.33831e-07
1.70658e-05
1.51369e-07
1.67405e-07
1.70884e-05
1.48911e-05
1.36471e-07
1.48207e-05
-1.00917e-08
1.4749e-05
-3.36314e-08
1.47252e-05
-2.49142e-08
1.47813e-05
-5.48411e-08
1.48839e-05
-6.32419e-08
1.49742e-05
-2.2314e-08
1.50111e-05
5.39815e-08
1.49979e-05
1.1555e-07
1.49571e-05
1.42752e-07
1.49109e-05
1.40972e-07
1.48745e-05
1.25758e-07
1.48565e-05
1.0913e-07
1.4861e-05
9.63666e-08
1.48887e-05
8.84921e-08
1.49366e-05
8.59027e-08
1.50013e-05
8.66925e-08
9.09402e-08
1.50777e-05
1.27237e-05
1.47606e-07
1.26929e-05
2.07994e-08
1.26903e-05
-3.10384e-08
1.27063e-05
-4.09821e-08
1.27146e-05
-6.30735e-08
1.27406e-05
-8.93196e-08
1.27992e-05
-8.0894e-08
1.2876e-05
-2.2839e-08
1.29365e-05
5.50737e-08
1.29528e-05
1.26439e-07
1.29278e-05
1.65963e-07
1.28855e-05
1.68058e-07
1.28535e-05
1.41206e-07
1.28494e-05
1.00463e-07
1.28771e-05
6.08049e-08
1.29301e-05
3.28804e-08
1.29968e-05
1.99571e-08
2.38889e-08
1.30639e-05
1.12118e-05
2.59134e-07
1.11544e-05
7.81789e-08
1.11497e-05
-2.63474e-08
1.11483e-05
-3.9569e-08
1.11403e-05
-5.50985e-08
1.1135e-05
-8.39675e-08
1.11359e-05
-8.17919e-08
1.11431e-05
-3.00059e-08
1.1151e-05
4.70845e-08
1.11649e-05
1.126e-07
1.11867e-05
1.44185e-07
1.12159e-05
1.38801e-07
1.12492e-05
1.07976e-07
1.12816e-05
6.80026e-08
1.13099e-05
3.25671e-08
1.13328e-05
9.92001e-09
1.13522e-05
5.25373e-10
4.4511e-09
1.13717e-05
9.54008e-06
2.34313e-07
9.61786e-06
4.00376e-10
9.6123e-06
-2.07907e-08
9.59945e-06
-2.67186e-08
9.62209e-06
-7.77347e-08
9.66708e-06
-1.28954e-07
9.70925e-06
-1.23964e-07
9.73755e-06
-5.83043e-08
9.76173e-06
2.28968e-08
9.79673e-06
7.76008e-08
9.84981e-06
9.111e-08
9.91574e-06
7.28707e-08
9.9821e-06
4.16121e-08
1.00365e-05
1.3565e-08
1.00716e-05
-2.44874e-09
1.00872e-05
-5.67522e-09
1.00878e-05
-1.18602e-10
1.3616e-08
1.00786e-05
8.44052e-06
1.70085e-07
8.39742e-06
4.3492e-08
8.37249e-06
4.14528e-09
8.37881e-06
-3.30365e-08
8.4034e-06
-1.02333e-07
8.42603e-06
-1.51581e-07
8.4435e-06
-1.4143e-07
8.46327e-06
-7.80775e-08
8.48788e-06
-1.71001e-09
8.51303e-06
5.24448e-08
8.53201e-06
7.21345e-08
8.54127e-06
6.36091e-08
8.544e-06
3.88818e-08
8.54697e-06
1.05996e-08
8.55977e-06
-1.5251e-08
8.5849e-06
-3.08047e-08
8.62192e-06
-3.71389e-08
-3.38397e-08
8.66937e-06
7.52827e-06
2.22054e-07
7.51686e-06
5.49068e-08
7.51732e-06
3.67963e-09
7.48655e-06
-2.26632e-09
7.42256e-06
-3.83361e-08
7.35871e-06
-8.77347e-08
7.32523e-06
-1.07951e-07
7.33201e-06
-8.48567e-08
7.36568e-06
-3.53804e-08
7.40608e-06
1.20412e-08
7.43848e-06
3.97344e-08
7.46067e-06
4.14193e-08
7.47753e-06
2.20238e-08
7.49447e-06
-6.33441e-09
7.51255e-06
-3.33371e-08
7.53287e-06
-5.11242e-08
7.55347e-06
-5.77374e-08
-5.35743e-08
7.5732e-06
6.26873e-06
6.35921e-08
6.36222e-06
-3.8582e-08
6.39737e-06
-3.14745e-08
6.43031e-06
-3.52017e-08
6.44043e-06
-4.84574e-08
6.41017e-06
-5.74807e-08
6.36119e-06
-5.89697e-08
6.32883e-06
-5.24918e-08
6.33253e-06
-3.90833e-08
6.36908e-06
-2.45068e-08
6.42398e-06
-1.51712e-08
6.48126e-06
-1.5852e-08
6.52954e-06
-2.62607e-08
6.56431e-06
-4.10997e-08
6.58478e-06
-5.38111e-08
6.5935e-06
-5.98479e-08
6.59434e-06
-5.85705e-08
-5.07379e-08
6.5915e-06
5.61208e-06
7.39061e-08
5.56743e-06
6.07452e-09
5.56615e-06
-3.01937e-08
5.59847e-06
-6.75293e-08
5.64472e-06
-9.47069e-08
5.67997e-06
-9.27299e-08
5.69714e-06
-7.61414e-08
5.70718e-06
-6.25311e-08
5.72425e-06
-5.61522e-08
5.75229e-06
-5.25466e-08
5.78371e-06
-4.65879e-08
5.80621e-06
-3.83556e-08
5.811e-06
-3.10458e-08
5.7971e-06
-2.72027e-08
5.77099e-06
-2.76984e-08
5.74226e-06
-3.11169e-08
5.71981e-06
-3.61188e-08
-3.92832e-08
5.70835e-06
4.88046e-06
7.36338e-08
4.91954e-06
-3.30005e-08
4.96525e-06
-7.59083e-08
4.98822e-06
-9.04976e-08
4.97406e-06
-8.05511e-08
4.94532e-06
-6.39881e-08
4.92545e-06
-5.62748e-08
4.92318e-06
-6.02543e-08
4.93532e-06
-6.82896e-08
4.95335e-06
-7.05839e-08
4.96888e-06
-6.21111e-08
4.976e-06
-4.54758e-08
4.97245e-06
-2.75042e-08
4.96022e-06
-1.49664e-08
4.94402e-06
-1.15038e-08
4.9292e-06
-1.62924e-08
4.91948e-06
-2.63965e-08
-3.56462e-08
4.91584e-06
4.16998e-06
4.13698e-06
4.06107e-06
3.97057e-06
3.89002e-06
3.82603e-06
3.76975e-06
3.7095e-06
3.64121e-06
3.57063e-06
3.50852e-06
3.46304e-06
3.43554e-06
3.42057e-06
3.40907e-06
3.39277e-06
3.36638e-06
3.33073e-06
-5.22454e-07
5.22454e-07
-8.61374e-07
3.38919e-07
-1.03029e-06
1.68917e-07
-9.96744e-07
-3.35466e-08
-7.16452e-07
-2.80292e-07
-2.15668e-07
-5.00784e-07
4.4222e-07
-6.57888e-07
1.18167e-06
-7.39455e-07
1.94327e-06
-7.61591e-07
2.67747e-06
-7.34203e-07
3.3491e-06
-6.71634e-07
3.93619e-06
-5.87082e-07
4.42462e-06
-4.88434e-07
4.80538e-06
-3.80758e-07
5.07199e-06
-2.6661e-07
5.21799e-06
-1.46e-07
5.2365e-06
-1.85132e-08
5.1306e-06
1.05904e-07
4.89229e-06
2.38303e-07
4.51652e-06
3.75774e-07
4.01163e-06
5.04887e-07
3.38416e-06
6.27475e-07
2.64952e-06
7.34641e-07
1.83412e-06
8.15394e-07
9.65994e-07
8.6813e-07
2.67096e-07
6.98898e-07
-2.05318e-07
4.72413e-07
-5.47471e-07
3.42154e-07
-7.08318e-07
1.60846e-07
-6.80003e-07
-2.83149e-08
-4.78397e-07
-2.01606e-07
-1.59126e-09
-4.76806e-07
6.77871e-07
-6.79462e-07
1.27245e-06
-5.94578e-07
1.79948e-06
-5.27029e-07
2.05884e-06
-2.59361e-07
2.06264e-06
-3.79928e-09
2.02238e-06
4.02542e-08
1.83568e-06
1.86708e-07
1.17144e-06
6.64234e-07
5.24407e-08
1.119e-06
-1.21895e-06
1.27139e-06
-2.48102e-06
1.26207e-06
-3.68108e-06
1.20006e-06
-4.79208e-06
1.111e-06
-5.80307e-06
1.01098e-06
-6.71361e-06
9.10546e-07
-7.52935e-06
8.15739e-07
-8.259e-06
7.29655e-07
-8.91218e-06
6.53175e-07
-9.49792e-06
5.85737e-07
-1.0024e-05
5.26131e-07
-1.0497e-05
4.72976e-07
-1.09219e-05
4.24861e-07
-1.13023e-05
3.80443e-07
-1.16408e-05
3.38518e-07
-1.1939e-05
2.98123e-07
-1.21976e-05
2.58595e-07
-1.24171e-05
2.19583e-07
-1.25981e-05
1.81004e-07
-1.2741e-05
1.42888e-07
-1.28464e-05
1.05332e-07
-1.29149e-05
6.85734e-08
-1.29478e-05
3.28955e-08
-1.29463e-05
-1.58898e-09
-1.29154e-05
-3.08508e-08
-1.28565e-05
-5.89022e-08
-1.27716e-05
-8.49038e-08
-1.26631e-05
-1.0851e-07
-1.25331e-05
-1.29953e-07
-1.23839e-05
-1.49272e-07
-1.22171e-05
-1.6671e-07
-1.20346e-05
-1.82588e-07
-1.18373e-05
-1.97255e-07
-1.16261e-05
-2.11181e-07
-1.14013e-05
-2.2483e-07
-1.11626e-05
-2.38713e-07
-1.09093e-05
-2.53324e-07
-1.06401e-05
-2.69135e-07
-1.03535e-05
-2.86574e-07
-1.00475e-05
-3.05997e-07
-9.71989e-06
-3.27664e-07
-9.36818e-06
-3.51706e-07
-8.99007e-06
-3.78114e-07
-8.58337e-06
-4.06697e-07
-8.14633e-06
-4.37038e-07
-7.67784e-06
-4.68489e-07
-7.17761e-06
-5.00236e-07
-6.6463e-06
-5.31308e-07
-6.08571e-06
-5.60586e-07
-5.49878e-06
-5.86929e-07
-4.88945e-06
-6.0933e-07
-4.26259e-06
-6.26862e-07
-3.62386e-06
-6.38727e-07
-2.97956e-06
-6.44302e-07
-2.33752e-06
-6.42046e-07
-1.70791e-06
-6.29604e-07
-1.10119e-06
-6.06724e-07
-5.26199e-07
-5.74988e-07
1.01646e-08
-5.36364e-07
5.13088e-07
-5.02923e-07
9.76148e-07
-4.6306e-07
1.40245e-06
-4.26307e-07
1.79441e-06
-3.91952e-07
2.15322e-06
-3.58809e-07
2.47782e-06
-3.24606e-07
2.76513e-06
-2.87305e-07
3.01201e-06
-2.46886e-07
3.21773e-06
-2.0572e-07
3.38481e-06
-1.67081e-07
3.51819e-06
-1.33372e-07
3.62371e-06
-1.05528e-07
3.70726e-06
-8.35427e-08
3.77442e-06
-6.71641e-08
3.83051e-06
-5.60937e-08
3.88038e-06
-4.9861e-08
3.92801e-06
-4.76316e-08
3.97607e-06
-4.80597e-08
4.02554e-06
-4.94732e-08
4.07593e-06
-5.0395e-08
4.1257e-06
-4.97673e-08
4.17261e-06
-4.69074e-08
4.21451e-06
-4.19007e-08
4.25002e-06
-3.55081e-08
4.27811e-06
-2.80915e-08
4.29809e-06
-1.99829e-08
4.31049e-06
-1.24018e-08
4.31605e-06
-5.55786e-09
4.31418e-06
1.87388e-09
4.30364e-06
1.0541e-08
4.28337e-06
2.02647e-08
4.25266e-06
3.07156e-08
4.21155e-06
4.11116e-08
4.16123e-06
5.03206e-08
4.1039e-06
5.73267e-08
4.04229e-06
6.16103e-08
3.97905e-06
6.32391e-08
3.91626e-06
6.27901e-08
3.8552e-06
6.1059e-08
3.79638e-06
5.88218e-08
3.73969e-06
5.66899e-08
3.68464e-06
5.50492e-08
3.63059e-06
5.40505e-08
3.57697e-06
5.36218e-08
3.52346e-06
5.35116e-08
3.47009e-06
5.33644e-08
3.41728e-06
5.28154e-08
3.36569e-06
5.1583e-08
3.31615e-06
4.95425e-08
3.26939e-06
4.67592e-08
3.22594e-06
4.34464e-08
3.18606e-06
3.98818e-08
3.14973e-06
3.63283e-08
3.11675e-06
3.29872e-08
3.08676e-06
2.99833e-08
3.05939e-06
2.73723e-08
3.03423e-06
2.51581e-08
3.01092e-06
2.33148e-08
2.98911e-06
2.18037e-08
2.96853e-06
2.05812e-08
2.94892e-06
1.96118e-08
2.93006e-06
1.88608e-08
2.91173e-06
1.83262e-08
2.89375e-06
1.79809e-08
2.87588e-06
1.78738e-08
2.85795e-06
1.79267e-08
2.83965e-06
1.83018e-08
2.82089e-06
1.87662e-08
2.80104e-06
1.98479e-08
2.7802e-06
2.0833e-08
2.75687e-06
2.33314e-08
2.7318e-06
2.50764e-08
2.70113e-06
3.06654e-08
2.66789e-06
3.32403e-08
2.6219e-06
4.59868e-08
2.57318e-06
4.87229e-08
2.49299e-06
8.01889e-08
2.41209e-06
8.08991e-08
2.24359e-06
1.68501e-07
1.69064e-07
2.07453e-06
5.73546e-08
4.651e-07
2.97282e-08
3.66546e-07
1.36228e-07
6.24173e-08
5.23245e-07
-4.20564e-07
1.13993e-06
-8.96977e-07
1.88298e-06
-1.24383e-06
2.66465e-06
-1.43957e-06
3.41994e-06
-1.49474e-06
4.11408e-06
-1.45574e-06
4.73357e-06
-1.35369e-06
5.27106e-06
-1.20912e-06
5.72401e-06
-1.04004e-06
6.09304e-06
-8.5746e-07
6.3797e-06
-6.67422e-07
6.58597e-06
-4.72877e-07
6.71515e-06
-2.75189e-07
6.7749e-06
-7.82618e-08
6.74188e-06
1.38931e-07
6.61919e-06
3.60995e-07
6.41164e-06
5.83315e-07
6.11546e-06
8.01073e-07
5.72867e-06
1.01426e-06
5.2553e-06
1.20801e-06
4.71127e-06
1.35943e-06
4.12179e-06
1.45761e-06
3.40772e-06
1.41298e-06
2.59966e-06
1.28047e-06
1.93538e-06
1.00643e-06
1.44727e-06
6.48965e-07
1.246e-06
1.72953e-07
1.24551e-06
-2.01115e-07
1.46671e-06
-6.98012e-07
1.97414e-06
-1.18689e-06
2.27719e-06
-8.9762e-07
2.04267e-06
-2.92511e-07
1.59261e-06
1.90696e-07
6.56261e-07
9.32551e-07
-8.09651e-07
1.50617e-06
-2.36503e-06
1.74209e-06
-3.66917e-06
1.96837e-06
-4.70155e-06
2.15138e-06
-5.60385e-06
2.1737e-06
-6.43814e-06
2.09635e-06
-7.19478e-06
1.9567e-06
-7.87329e-06
1.78951e-06
-8.47813e-06
1.61582e-06
-9.01714e-06
1.44956e-06
-9.49911e-06
1.2977e-06
-9.93228e-06
1.16283e-06
-1.03237e-05
1.04457e-06
-1.06789e-05
9.4098e-07
-1.10022e-05
8.49447e-07
-1.12966e-05
7.67307e-07
-1.15638e-05
6.92044e-07
-1.18048e-05
6.21443e-07
-1.202e-05
5.53759e-07
-1.22096e-05
4.87681e-07
-1.23732e-05
4.22267e-07
-1.25106e-05
3.56993e-07
-1.26213e-05
2.9166e-07
-1.27048e-05
2.26379e-07
-1.27611e-05
1.61618e-07
-1.27903e-05
9.78003e-08
-1.27921e-05
3.47267e-08
-1.27678e-05
-2.59311e-08
-1.27155e-05
-8.31421e-08
-1.26369e-05
-1.37506e-07
-1.25336e-05
-1.88177e-07
-1.24073e-05
-2.34806e-07
-1.22601e-05
-2.77215e-07
-1.20938e-05
-3.15572e-07
-1.19102e-05
-3.5025e-07
-1.1711e-05
-3.81807e-07
-1.14973e-05
-4.1097e-07
-1.12699e-05
-4.38574e-07
-1.10292e-05
-4.65536e-07
-1.07751e-05
-4.92812e-07
-1.05071e-05
-5.21355e-07
-1.02241e-05
-5.52087e-07
-9.92482e-06
-5.85857e-07
-9.60742e-06
-6.23401e-07
-9.26979e-06
-6.65288e-07
-8.90965e-06
-7.1185e-07
-8.52463e-06
-7.63134e-07
-8.1125e-06
-8.18828e-07
-7.67138e-06
-8.78156e-07
-7.20004e-06
-9.3983e-07
-6.6981e-06
-1.00217e-06
-6.16619e-06
-1.06322e-06
-5.60604e-06
-1.12074e-06
-5.02061e-06
-1.17236e-06
-4.41391e-06
-1.21602e-06
-3.79088e-06
-1.2499e-06
-3.15736e-06
-1.27225e-06
-2.51974e-06
-1.28192e-06
-1.88609e-06
-1.27569e-06
-1.26715e-06
-1.24854e-06
-6.74115e-07
-1.19976e-06
-1.1811e-07
-1.13099e-06
4.03545e-07
-1.05802e-06
8.83795e-07
-9.83173e-07
1.32972e-06
-9.08985e-07
1.74478e-06
-8.4137e-07
2.13242e-06
-7.79587e-07
2.49329e-06
-7.19682e-07
2.82466e-06
-6.55978e-07
3.1212e-06
-5.83838e-07
3.37742e-06
-5.03114e-07
3.59058e-06
-4.18871e-07
3.76179e-06
-3.38295e-07
3.89551e-06
-2.67091e-07
3.99816e-06
-2.08182e-07
4.07696e-06
-1.62341e-07
4.13902e-06
-1.29226e-07
4.19083e-06
-1.07897e-07
4.23795e-06
-9.69845e-08
4.28485e-06
-9.45281e-08
4.33457e-06
-9.77833e-08
4.3886e-06
-1.03499e-07
4.4468e-06
-1.08597e-07
4.50776e-06
-1.1073e-07
4.56953e-06
-1.08675e-07
4.63007e-06
-1.02444e-07
4.68735e-06
-9.27822e-08
4.73994e-06
-8.06861e-08
4.78744e-06
-6.7479e-08
4.82953e-06
-5.44895e-08
4.86637e-06
-4.23975e-08
4.89944e-06
-3.12056e-08
4.93045e-06
-2.0469e-08
4.95995e-06
-9.22846e-09
4.98746e-06
3.20198e-09
5.01152e-06
1.7053e-08
5.03013e-06
3.17153e-08
5.04139e-06
4.60641e-08
5.04421e-06
5.87906e-08
5.03865e-06
6.87979e-08
5.02581e-06
7.56281e-08
5.00744e-06
7.94317e-08
4.98545e-06
8.0812e-08
4.96157e-06
8.05712e-08
4.93714e-06
7.94783e-08
4.91307e-06
7.81141e-08
4.88991e-06
7.67821e-08
4.86793e-06
7.54964e-08
4.84725e-06
7.40428e-08
4.82796e-06
7.21083e-08
4.81011e-06
6.94285e-08
4.79379e-06
6.58675e-08
4.77905e-06
6.14984e-08
4.7659e-06
5.65902e-08
4.75426e-06
5.15209e-08
4.74392e-06
4.66697e-08
4.73457e-06
4.23378e-08
4.72585e-06
3.8708e-08
4.71738e-06
3.58414e-08
4.70884e-06
3.37004e-08
4.69997e-06
3.21844e-08
4.6906e-06
3.11715e-08
4.68064e-06
3.05361e-08
4.67007e-06
3.01893e-08
4.65888e-06
3.00485e-08
4.64709e-06
3.01146e-08
4.63474e-06
3.03332e-08
4.62179e-06
3.08186e-08
4.60828e-06
3.14407e-08
4.59406e-06
3.25264e-08
4.57913e-06
3.36913e-08
4.56314e-06
3.584e-08
4.54618e-06
3.77895e-08
4.52739e-06
4.21234e-08
4.50717e-06
4.52964e-08
4.4835e-06
5.43353e-08
4.4576e-06
5.91421e-08
4.42479e-06
7.87902e-08
4.38789e-06
8.56226e-08
4.33677e-06
1.31313e-07
4.27515e-06
1.42519e-07
4.18553e-06
2.58119e-07
2.91329e-07
4.06327e-06
1.29223e-07
3.35877e-07
4.20917e-07
7.48518e-08
1.0962e-06
-6.12868e-07
1.96846e-06
-1.29282e-06
2.83949e-06
-1.76801e-06
3.61751e-06
-2.02185e-06
4.27548e-06
-2.09754e-06
4.82159e-06
-2.04085e-06
5.26262e-06
-1.89676e-06
5.613e-06
-1.70407e-06
5.89408e-06
-1.4902e-06
6.12386e-06
-1.26982e-06
6.31385e-06
-1.04746e-06
6.46826e-06
-8.2183e-07
6.58517e-06
-5.89786e-07
6.65963e-06
-3.49645e-07
6.6838e-06
-1.02435e-07
6.66688e-06
1.55846e-07
6.60721e-06
4.20665e-07
6.50417e-06
6.86359e-07
6.3563e-06
9.48944e-07
6.16411e-06
1.20645e-06
5.92264e-06
1.44948e-06
5.61398e-06
1.66809e-06
5.25486e-06
1.81673e-06
4.77042e-06
1.89742e-06
4.24695e-06
1.80393e-06
3.65894e-06
1.59444e-06
3.1082e-06
1.1997e-06
2.58611e-06
6.95041e-07
2.37758e-06
7.42115e-09
2.41402e-06
-7.3445e-07
1.81484e-06
-5.87713e-07
7.50678e-07
1.66538e-07
-6.76186e-07
1.13435e-06
-2.15784e-06
1.67235e-06
-3.33399e-06
2.10871e-06
-4.2694e-06
2.44157e-06
-5.17861e-06
2.6513e-06
-5.94984e-06
2.7396e-06
-6.52814e-06
2.72968e-06
-6.98752e-06
2.63307e-06
-7.3766e-06
2.48543e-06
-7.72669e-06
2.3068e-06
-8.0556e-06
2.11842e-06
-8.37347e-06
1.93369e-06
-8.6851e-06
1.76119e-06
-8.99219e-06
1.6048e-06
-9.29444e-06
1.46507e-06
-9.59046e-06
1.34059e-06
-9.87837e-06
1.22889e-06
-1.01561e-05
1.12715e-06
-1.04213e-05
1.03256e-06
-1.06718e-05
9.42523e-07
-1.09052e-05
8.54817e-07
-1.11192e-05
7.67742e-07
-1.13115e-05
6.80061e-07
-1.14802e-05
5.90969e-07
-1.16233e-05
5.00097e-07
-1.17392e-05
4.07501e-07
-1.18264e-05
3.13601e-07
-1.18839e-05
2.1909e-07
-1.1911e-05
1.24891e-07
-1.19084e-05
3.21654e-08
-1.1876e-05
-5.82999e-08
-1.18145e-05
-1.44708e-07
-1.17258e-05
-2.26212e-07
-1.16119e-05
-3.02094e-07
-1.14748e-05
-3.7188e-07
-1.13167e-05
-4.35297e-07
-1.11398e-05
-4.92485e-07
-1.09461e-05
-5.43901e-07
-1.07376e-05
-5.90308e-07
-1.05159e-05
-6.32729e-07
-1.02821e-05
-6.72366e-07
-1.00371e-05
-7.1056e-07
-9.78114e-06
-7.48734e-07
-9.51415e-06
-7.88346e-07
-9.23538e-06
-8.30855e-07
-8.94357e-06
-8.77668e-07
-8.63689e-06
-9.30075e-07
-8.31303e-06
-9.89155e-07
-7.96923e-06
-1.05564e-06
-7.60259e-06
-1.12978e-06
-7.2102e-06
-1.21121e-06
-6.78961e-06
-1.29875e-06
-6.33915e-06
-1.39029e-06
-5.85829e-06
-1.48303e-06
-5.34771e-06
-1.5738e-06
-4.80925e-06
-1.6592e-06
-4.24587e-06
-1.73574e-06
-3.66129e-06
-1.80061e-06
-3.05961e-06
-1.85158e-06
-2.44576e-06
-1.8861e-06
-1.82456e-06
-1.90312e-06
-1.20328e-06
-1.89697e-06
-5.94765e-07
-1.85706e-06
-1.75481e-08
-1.77698e-06
5.2042e-07
-1.66896e-06
9.99245e-07
-1.53684e-06
1.41708e-06
-1.40101e-06
1.78683e-06
-1.27873e-06
2.12775e-06
-1.1823e-06
2.45824e-06
-1.11008e-06
2.78604e-06
-1.04748e-06
3.10468e-06
-9.74618e-07
3.39905e-06
-8.78201e-07
3.65625e-06
-7.60319e-07
3.87199e-06
-6.34609e-07
4.04829e-06
-5.1459e-07
4.18814e-06
-4.06943e-07
4.29327e-06
-3.13315e-07
4.36597e-06
-2.35039e-07
4.41162e-06
-1.74873e-07
4.43885e-06
-1.3513e-07
4.45728e-06
-1.15412e-07
4.47491e-06
-1.12159e-07
4.49681e-06
-1.19685e-07
4.52504e-06
-1.31732e-07
4.55935e-06
-1.42906e-07
4.5982e-06
-1.49579e-07
4.63968e-06
-1.50158e-07
4.68198e-06
-1.44744e-07
4.72354e-06
-1.34343e-07
4.76323e-06
-1.20368e-07
4.80033e-06
-1.04582e-07
4.83457e-06
-8.87281e-08
4.86622e-06
-7.4053e-08
4.89611e-06
-6.10947e-08
4.92523e-06
-4.95845e-08
4.95457e-06
-3.85686e-08
4.9845e-06
-2.67289e-08
5.01424e-06
-1.26896e-08
5.04181e-06
4.15067e-09
5.06444e-06
2.34323e-08
5.07953e-06
4.3696e-08
5.08556e-06
6.27658e-08
5.08255e-06
7.86379e-08
5.07198e-06
9.00096e-08
5.05616e-06
9.66269e-08
5.03759e-06
9.91422e-08
5.01836e-06
9.87117e-08
4.99993e-06
9.65433e-08
4.98315e-06
9.35625e-08
4.96837e-06
9.02691e-08
4.95565e-06
8.67636e-08
4.94488e-06
8.28866e-08
4.9359e-06
7.8402e-08
4.92862e-06
7.31505e-08
4.92296e-06
6.71538e-08
4.91888e-06
6.06727e-08
4.91627e-06
5.41321e-08
4.91494e-06
4.80003e-08
4.9146e-06
4.26793e-08
4.91487e-06
3.84353e-08
4.91535e-06
3.53657e-08
4.91563e-06
3.34184e-08
4.91539e-06
3.24267e-08
4.91438e-06
3.21807e-08
4.91246e-06
3.24518e-08
4.90958e-06
3.30734e-08
4.90574e-06
3.38877e-08
4.90098e-06
3.48751e-08
4.89537e-06
3.59413e-08
4.88894e-06
3.72442e-08
4.88176e-06
3.86246e-08
4.87377e-06
4.05178e-08
4.86499e-06
4.24707e-08
4.85526e-06
4.55645e-08
4.84453e-06
4.85214e-08
4.83258e-06
5.40797e-08
4.81911e-06
5.87678e-08
4.80402e-06
6.94243e-08
4.78617e-06
7.69913e-08
4.76643e-06
9.85273e-08
4.74064e-06
1.11414e-07
4.71427e-06
1.57684e-07
4.67308e-06
1.83711e-07
4.64173e-06
2.89462e-07
3.54587e-07
4.57847e-06
8.2518e-08
2.53359e-07
9.33802e-07
-7.76432e-07
2.04863e-06
-1.7277e-06
3.00941e-06
-2.2536e-06
3.72039e-06
-2.47898e-06
4.20997e-06
-2.51144e-06
4.52518e-06
-2.41274e-06
4.71018e-06
-2.22585e-06
4.81431e-06
-2.00089e-06
4.88367e-06
-1.77343e-06
4.95444e-06
-1.56097e-06
5.04452e-06
-1.3599e-06
5.15341e-06
-1.15634e-06
5.26816e-06
-9.36581e-07
5.3713e-06
-6.92923e-07
5.4451e-06
-4.23446e-07
5.47277e-06
-1.30108e-07
5.46469e-06
1.63928e-07
5.42799e-06
4.57364e-07
5.36766e-06
7.46687e-07
5.28811e-06
1.02849e-06
5.20209e-06
1.29247e-06
5.09905e-06
1.55252e-06
4.95923e-06
1.80791e-06
4.74199e-06
2.03397e-06
4.4583e-06
2.18111e-06
4.05044e-06
2.21179e-06
3.55171e-06
2.09317e-06
3.00867e-06
1.74274e-06
2.36196e-06
1.34175e-06
1.96794e-06
4.01443e-07
1.11274e-06
1.20751e-07
-4.67924e-07
9.92953e-07
-2.02622e-06
1.72484e-06
-3.16587e-06
2.274e-06
-4.16472e-06
2.6712e-06
-4.98905e-06
2.93303e-06
-5.61294e-06
3.06546e-06
-6.08393e-06
3.12229e-06
-6.44022e-06
3.0959e-06
-6.71111e-06
3.00058e-06
-6.93192e-06
2.85388e-06
-7.12886e-06
2.68237e-06
-7.32378e-06
2.50172e-06
-7.52849e-06
2.32313e-06
-7.74864e-06
2.15385e-06
-7.98465e-06
1.9972e-06
-8.23424e-06
1.85438e-06
-8.49362e-06
1.72445e-06
-8.7585e-06
1.60548e-06
-9.02452e-06
1.49491e-06
-9.28742e-06
1.39005e-06
-9.54319e-06
1.28833e-06
-9.78809e-06
1.18742e-06
-1.00187e-05
1.08541e-06
-1.02317e-05
9.80806e-07
-1.04243e-05
8.72599e-07
-1.05936e-05
7.60251e-07
-1.07371e-05
6.43651e-07
-1.08527e-05
5.23106e-07
-1.09386e-05
3.9946e-07
-1.09935e-05
2.73984e-07
-1.10167e-05
1.48114e-07
-1.10089e-05
2.4369e-08
-1.09685e-05
-9.87282e-08
-1.08975e-05
-2.15652e-07
-1.07979e-05
-3.2589e-07
-1.06716e-05
-4.28366e-07
-1.05213e-05
-5.22151e-07
-1.03498e-05
-6.06821e-07
-1.01599e-05
-6.82417e-07
-9.9543e-06
-7.49457e-07
-9.73569e-06
-8.08914e-07
-9.50628e-06
-8.62135e-07
-9.26789e-06
-9.10763e-07
-9.02176e-06
-9.56684e-07
-8.76854e-06
-1.00196e-06
-8.50809e-06
-1.0488e-06
-8.23948e-06
-1.09946e-06
-7.96089e-06
-1.15625e-06
-7.6697e-06
-1.22127e-06
-7.36252e-06
-1.29633e-06
-7.03555e-06
-1.38261e-06
-6.68489e-06
-1.48044e-06
-6.30711e-06
-1.58899e-06
-5.89982e-06
-1.70604e-06
-5.46224e-06
-1.82788e-06
-4.99556e-06
-1.9497e-06
-4.50278e-06
-2.06659e-06
-3.98804e-06
-2.17393e-06
-3.45623e-06
-2.26756e-06
-2.91165e-06
-2.34518e-06
-2.3568e-06
-2.40643e-06
-1.79249e-06
-2.45041e-06
-1.21595e-06
-2.47965e-06
-6.25972e-07
-2.48695e-06
-2.59483e-08
-2.45708e-06
5.69743e-07
-2.37267e-06
1.13474e-06
-2.23396e-06
1.6441e-06
-2.04621e-06
2.06828e-06
-1.82519e-06
2.38957e-06
-1.60002e-06
2.62382e-06
-1.41655e-06
2.82534e-06
-1.3116e-06
3.0516e-06
-1.27375e-06
3.32228e-06
-1.24529e-06
3.60982e-06
-1.16574e-06
3.86969e-06
-1.0202e-06
4.07875e-06
-8.4366e-07
4.24297e-06
-6.78818e-07
4.37944e-06
-5.43408e-07
4.49845e-06
-4.32328e-07
4.59847e-06
-3.35055e-07
4.67222e-06
-2.48625e-07
4.71636e-06
-1.79272e-07
4.73624e-06
-1.35293e-07
4.74314e-06
-1.19056e-07
4.74811e-06
-1.24653e-07
4.75768e-06
-1.41303e-07
4.77326e-06
-1.58484e-07
4.79303e-06
-1.6935e-07
4.81433e-06
-1.71465e-07
4.83518e-06
-1.65594e-07
4.85473e-06
-1.53894e-07
4.87302e-06
-1.38651e-07
4.89033e-06
-1.21898e-07
4.90702e-06
-1.05417e-07
4.92359e-06
-9.06234e-08
4.94074e-06
-7.82472e-08
4.95914e-06
-6.79815e-08
4.97913e-06
-5.856e-08