/*--------------------------------*- C++ -*----------------------------------*\
  =========                 |
  \\      /  F ield         | OpenFOAM: The Open Source CFD Toolbox
   \\    /   O peration     | Website:  https://openfoam.org
    \\  /    A nd           | Version:  9
     \\/     M anipulation  |
\*---------------------------------------------------------------------------*/
FoamFile
{
    format      ascii;
    class       volScalarField;
    location    "0.032";
    object      s;
}
// * * * * * * * * * * * * * * * * * * * * * * * * * * * * * * * * * * * * * //

dimensions      [0 0 0 0 0 0 0];

internalField   nonuniform List<scalar> 
12225
(
1
1
1
1
1
1
1
1
1
1
1
1
1
1
1
1
1
0.999963
1
1
1
1
1
1
1
1
1
1
1
1
1
1
1
1
1
0.999998
1
1
1
1
1
1
1
1
1
1
1
1
1
1
1
1
1
1
1
1
1
1
1
1
1
1
1
1
1
1
1
1
1
1
1
1
1
1
1
1
1
1
1
1
1
1
1
1
1
1
1
1
1
1
1
1
1
1
1
1
1
1
1
1
1
1
1
1
1
1
1
1
1
1
1
1
1
1
1
1
1
1
1
1
1
1
1
1
1
1
1
1
1
1
1
1
1
1
1
1
1
1
1
1
1
1
1
1
1
1
1
1
1
1
1
1
1
1
1
1
1
1
1
1
1
1
1
1
1
1
1
1
1
1
1
1
1
1
1
1
1
1
1
1
1
1
1
1
1
1
1
1
1
1
1
1
1
1
1
1
1
1
1
1
1
1
1
1
1
1
1
1
1
1
1
1
1
1
1
1
1
1
1
1
1
1
1
1
1
1
1
1
1
1
1
1
1
1
1
1
1
1
1
1
1
1
1
1
1
1
1
1
1
1
1
1
1
1
1
1
1
1
1
1
1
1
1
1
1
1
1
1
1
1
1
1
1
1
1
1
1
1
1
1
1
1
1
1
1
1
1
1
1
1
1
1
1
1
1
1
1
1
1
1
1
1
1
1
1
1
1
1
1
1
1
1
1
1
1
1
1
1
1
1
1
1
1
1
1
1
1
1
1
1
1
1
1
1
1
1
1
1
1
1
1
1
1
1
1
1
1
1
1
1
1
1
1
1
1
1
1
1
1
1
1
1
1
1
1
1
1
1
1
1
1
1
1
1
1
1
1
1
1
1
1
1
1
1
1
1
1
1
1
1
1
1
1
1
1
1
1
1
1
1
1
1
1
1
1
1
1
1
1
1
1
1
1
1
1
1
1
1
1
1
1
1
1
1
1
1
1
1
1
1
1
1
1
1
1
1
1
1
1
1
1
1
1
1
1
1
1
1
1
1
1
1
1
1
1
1
1
1
1
1
1
1
1
1
1
1
1
1
1
1
1
1
1
1
1
1
1
1
1
1
1
1
1
1
1
1
1
1
1
1
1
1
1
1
1
1
1
1
1
1
1
1
1
1
1
1
1
1
1
1
1
1
1
1
1
1
1
1
1
1
1
1
1
1
1
1
1
1
1
1
1
1
1
1
1
1
1
1
1
1
0.199779
0.207893
0.190991
0.181487
0.179136
0.194429
0.217703
0.251833
0.282259
0.308241
0.327261
0.344074
0.356022
0.368133
0.376105
0.384052
0.387729
0.390346
0.393798
0.398638
0.402528
0.404779
0.408601
0.421811
0.42977
0.371775
0.0803037
0.0167358
0.0281115
0.0458583
0.0653117
0.0899099
0.116308
0.131319
0.130138
0.119942
0.112259
0.11779
0.171981
0.465748
0.768422
0.817059
0.818839
0.820132
0.820933
0.821332
0.821791
0.822594
0.823274
0.823606
0.82396
0.824437
0.824792
0.824971
0.82526
0.825872
0.826607
0.827109
0.827362
0.827659
0.828197
0.828642
0.828813
0.828994
0.829434
0.8302
0.830609
0.830722
0.830778
0.830822
0.830906
0.83102
0.831142
0.831342
0.831652
0.831949
0.832195
0.832522
0.833026
0.833688
0.834558
0.835646
0.836845
0.838002
0.839103
0.840195
0.841274
0.84241
0.843521
0.844482
0.845427
0.846374
0.84735
0.848273
0.849
0.849499
0.849781
0.850059
0.850062
0.850063
0.850036
0.850046
0.850073
0.850107
0.850239
0.85057
0.851117
0.851829
0.852621
0.853359
0.85384
0.853968
0.85378
0.852553
0.849147
0.845029
0.83939
0.831993
0.823609
0.812521
0.796713
0.777644
0.755025
0.724633
0.686854
0.646083
0.599964
0.542314
0.473925
0.399918
0.325821
0.256527
0.195288
0.143753
0.10235
0.0705493
0.0471735
0.0306946
0.0195027
0.0121336
0.00740376
0.00443372
0.00260555
0.00150191
0.000848765
0.00047015
0.000255315
0.00013601
7.1136e-05
3.65597e-05
1.84751e-05
9.18238e-06
4.48785e-06
2.1558e-06
1.01702e-06
4.70774e-07
2.13633e-07
9.49587e-08
4.13151e-08
1.75851e-08
7.31924e-09
2.97813e-09
1.18441e-09
4.6036e-10
1.74869e-10
6.49164e-11
2.3552e-11
8.35131e-12
2.89414e-12
9.80219e-13
3.24377e-13
1.04864e-13
3.30908e-14
1.01882e-14
3.05461e-15
8.90946e-16
2.5163e-16
6.86063e-17
1.79693e-17
3.69352e-18
0.186264
0.201917
0.187001
0.13554
0.148401
0.188768
0.239861
0.320768
0.391147
0.437774
0.471809
0.49241
0.504364
0.510043
0.513348
0.513949
0.513328
0.511101
0.506675
0.497306
0.488801
0.47858
0.461338
0.448062
0.444601
0.432089
0.383652
0.303032
0.221261
0.148646
0.152464
0.186057
0.237417
0.282724
0.278159
0.236987
0.341468
0.642369
0.717231
0.779887
0.812503
0.817109
0.817479
0.817491
0.816525
0.815299
0.814784
0.814544
0.814466
0.814467
0.814702
0.815167
0.815321
0.815401
0.815655
0.816272
0.816799
0.81685
0.816821
0.81672
0.816558
0.816334
0.816054
0.815728
0.815315
0.814759
0.814165
0.813946
0.813864
0.813835
0.813833
0.813953
0.814447
0.815369
0.816492
0.817783
0.819514
0.821791
0.824364
0.826914
0.829353
0.831743
0.833954
0.83592
0.837717
0.839476
0.841278
0.843218
0.845179
0.84704
0.848874
0.850871
0.853186
0.855564
0.857801
0.859954
0.8619
0.863817
0.865418
0.866643
0.867458
0.867612
0.866968
0.864993
0.861649
0.857673
0.854931
0.853548
0.853319
0.854114
0.857259
0.86284
0.870276
0.879532
0.890032
0.900811
0.910823
0.919533
0.927163
0.934296
0.941119
0.947493
0.953089
0.957588
0.960678
0.962217
0.96253
0.961981
0.958467
0.950202
0.941511
0.929671
0.906043
0.851452
0.761706
0.649998
0.528204
0.410821
0.308815
0.225622
0.160096
0.110286
0.073751
0.0478872
0.0302086
0.0185326
0.0110717
0.00645058
0.0036703
0.0020418
0.00111136
0.000592053
0.000308679
0.000157451
7.85343e-05
3.82827e-05
1.82279e-05
8.47348e-06
3.8443e-06
1.70175e-06
7.34914e-07
3.09616e-07
1.27254e-07
5.10297e-08
1.99679e-08
7.62572e-09
2.84264e-09
1.03457e-09
3.67605e-10
1.2756e-10
4.32074e-11
1.42928e-11
4.61059e-12
1.45198e-12
4.44665e-13
1.32824e-13
3.83061e-14
1.07474e-14
2.86962e-15
6.74818e-16
0.122383
0.123804
0.12429
0.15583
0.237792
0.374009
0.49825
0.554483
0.57722
0.578082
0.575602
0.569869
0.564315
0.557907
0.552942
0.5489
0.546773
0.545142
0.542928
0.53935
0.536586
0.531239
0.525034
0.515535
0.498546
0.488935
0.475049
0.456025
0.409638
0.397146
0.374171
0.371547
0.400602
0.477117
0.624604
0.665612
0.739992
0.783719
0.801158
0.809409
0.811893
0.811489
0.808542
0.806884
0.806046
0.805837
0.806014
0.80618
0.806833
0.807569
0.808909
0.810312
0.811561
0.812764
0.813568
0.81412
0.814208
0.814204
0.8141
0.813839
0.813454
0.812996
0.812477
0.811843
0.810981
0.809785
0.809054
0.808915
0.80891
0.809067
0.809595
0.810555
0.811797
0.813226
0.814898
0.816877
0.819332
0.822179
0.825078
0.827571
0.82951
0.831028
0.832197
0.833027
0.833189
0.832909
0.832495
0.832383
0.832536
0.832872
0.834044
0.836849
0.84124
0.845854
0.850286
0.854702
0.859142
0.863144
0.866616
0.869807
0.873147
0.876938
0.88079
0.884192
0.886961
0.887842
0.884202
0.87321
0.862249
0.854245
0.849522
0.846911
0.845892
0.845836
0.846634
0.850076
0.858554
0.869505
0.88174
0.89365
0.904927
0.916117
0.927804
0.940265
0.953059
0.96493
0.974791
0.982124
0.98706
0.99009
0.991587
0.991923
0.991753
0.990702
0.987512
0.980878
0.968772
0.942781
0.873408
0.71787
0.556394
0.414249
0.298938
0.209443
0.14236
0.0939223
0.0602236
0.0375899
0.0228749
0.0135888
0.00788639
0.0044728
0.00247865
0.00134148
0.00070864
0.000365145
0.00018343
8.97968e-05
4.28282e-05
1.98989e-05
9.0066e-06
3.97166e-06
1.70659e-06
7.1471e-07
2.91783e-07
1.16155e-07
4.50952e-08
1.70793e-08
6.31023e-09
2.27518e-09
8.00145e-10
2.74645e-10
9.18694e-11
2.99886e-11
9.51604e-12
2.94511e-12
8.80602e-13
2.56352e-13
7.11348e-14
1.86853e-14
0.051201
0.0985969
0.19209
0.343909
0.528409
0.600071
0.619783
0.615971
0.604011
0.586719
0.566892
0.54483
0.526063
0.509264
0.49589
0.485745
0.480785
0.482408
0.487392
0.497461
0.508264
0.516823
0.519438
0.518145
0.514366
0.508035
0.502546
0.492065
0.474348
0.463473
0.411891
0.404283
0.602396
0.71368
0.75068
0.7746
0.793118
0.800033
0.802954
0.80422
0.800153
0.798467
0.798156
0.799751
0.801241
0.802052
0.803097
0.803541
0.804313
0.80497
0.806286
0.807378
0.808397
0.8095
0.810061
0.810219
0.810134
0.8097
0.808907
0.807861
0.806704
0.805618
0.804821
0.804232
0.803901
0.803786
0.80378
0.804097
0.804992
0.806348
0.808114
0.810403
0.813243
0.816501
0.820151
0.824025
0.827605
0.829802
0.830556
0.830732
0.83066
0.829936
0.827644
0.823775
0.818794
0.813655
0.811367
0.810891
0.811157
0.812277
0.814814
0.819564
0.826826
0.834501
0.840613
0.845925
0.850889
0.855048
0.858654
0.861824
0.864003
0.865717
0.868774
0.874584
0.88354
0.894339
0.901923
0.90469
0.903144
0.892193
0.876843
0.865672
0.857382
0.851515
0.848198
0.847087
0.847115
0.848363
0.853917
0.869188
0.886286
0.900988
0.91267
0.922143
0.930788
0.940112
0.950705
0.961998
0.97269
0.981566
0.988178
0.992734
0.995612
0.997088
0.997529
0.997516
0.997162
0.995773
0.991676
0.981702
0.959697
0.904366
0.754378
0.574408
0.419413
0.295937
0.20269
0.134961
0.0874171
0.0551213
0.0338513
0.0202477
0.0117912
0.00668127
0.00368113
0.00197096
0.00102513
0.000517876
0.000254126
0.00012116
5.61464e-05
2.53009e-05
1.10919e-05
4.73317e-06
1.96679e-06
7.96209e-07
3.14119e-07
1.20821e-07
4.53116e-08
1.65758e-08
5.91291e-09
2.05784e-09
6.97938e-10
2.30895e-10
7.43001e-11
2.33005e-11
7.07543e-12
2.08855e-12
5.91857e-13
1.59381e-13
0.146656
0.21953
0.412566
0.589711
0.648209
0.646693
0.634029
0.602541
0.540563
0.502133
0.462537
0.43749
0.411295
0.384793
0.369237
0.35129
0.349858
0.353349
0.36281
0.383787
0.41175
0.439235
0.470954
0.498444
0.507992
0.507258
0.505058
0.500302
0.490411
0.460152
0.420726
0.609529
0.737457
0.771239
0.785332
0.791946
0.795224
0.796386
0.792238
0.789176
0.78801
0.788217
0.791457
0.794086
0.797138
0.798459
0.799453
0.799992
0.800561
0.800752
0.800909
0.800925
0.800328
0.799445
0.797702
0.795232
0.791901
0.788797
0.785877
0.784159
0.782326
0.781051
0.780626
0.780552
0.78124
0.783335
0.785848
0.788463
0.791928
0.796292
0.80089
0.805536
0.810521
0.815418
0.820117
0.824785
0.828592
0.829806
0.830041
0.829968
0.829267
0.827534
0.824897
0.82087
0.815337
0.811098
0.810191
0.810778
0.813147
0.817265
0.823008
0.829731
0.838695
0.851194
0.860553
0.864823
0.866617
0.866992
0.865462
0.864383
0.86454
0.864324
0.863767
0.863114
0.863816
0.869091
0.887158
0.90532
0.912262
0.912735
0.907306
0.892028
0.880656
0.871717
0.863204
0.855753
0.851075
0.849307
0.849223
0.850461
0.856916
0.878463
0.902605
0.919192
0.930028
0.937974
0.94545
0.953402
0.961812
0.970252
0.978153
0.984948
0.990301
0.994172
0.996716
0.998155
0.998755
0.998854
0.998765
0.998262
0.996596
0.991842
0.97945
0.948276
0.855661
0.668886
0.494484
0.351614
0.24195
0.161683
0.105038
0.0662893
0.0406011
0.0241107
0.0138703
0.00772531
0.00416475
0.00217344
0.0010984
0.000537884
0.000255417
0.000117703
5.26785e-05
2.29149e-05
9.69439e-06
3.99132e-06
1.59996e-06
6.24763e-07
2.37703e-07
8.81545e-08
3.18632e-08
1.12288e-08
3.85528e-09
1.2902e-09
4.20079e-10
1.33161e-10
4.09316e-11
1.22137e-11
3.5152e-12
9.6313e-13
0.287591
0.395393
0.60995
0.672992
0.670674
0.648056
0.575642
0.493508
0.459488
0.441774
0.412989
0.389878
0.351456
0.315128
0.294374
0.270867
0.267314
0.271072
0.281827
0.304496
0.347617
0.386972
0.41794
0.456712
0.489671
0.501152
0.502617
0.499586
0.487212
0.438458
0.54394
0.730519
0.772948
0.784821
0.788987
0.790428
0.78885
0.781948
0.779
0.778493
0.779505
0.782471
0.786046
0.789612
0.792376
0.793322
0.793788
0.79403
0.792935
0.78973
0.78575
0.782608
0.777905
0.773309
0.770414
0.767395
0.764429
0.762991
0.762394
0.762244
0.76255
0.764204
0.766153
0.767618
0.769656
0.772385
0.775708
0.779618
0.783153
0.786939
0.791345
0.796244
0.801616
0.806447
0.811491
0.817199
0.821686
0.824566
0.825792
0.8262
0.826246
0.826047
0.825034
0.822677
0.820063
0.819132
0.81924
0.821902
0.827605
0.836465
0.848521
0.862004
0.877913
0.899716
0.919507
0.931744
0.935809
0.931717
0.916358
0.893134
0.879807
0.875311
0.873392
0.869349
0.864574
0.86402
0.867564
0.883441
0.907086
0.9162
0.917003
0.912345
0.895247
0.882891
0.876
0.870074
0.863317
0.857319
0.854009
0.853197
0.853639
0.85742
0.874447
0.907279
0.930921
0.944714
0.952204
0.957318
0.962586
0.968566
0.97488
0.980942
0.986301
0.990723
0.994124
0.996537
0.998089
0.998959
0.99933
0.999398
0.999351
0.999056
0.998004
0.994817
0.985661
0.960527
0.885025
0.70303
0.522975
0.373822
0.257713
0.171705
0.110624
0.0688897
0.0414218
0.0240284
0.0134447
0.00725828
0.00378329
0.00190575
0.00092873
0.00043835
0.000200596
8.90885e-05
3.84322e-05
1.6117e-05
6.57439e-06
2.61013e-06
1.00893e-06
3.79863e-07
1.39311e-07
4.97799e-08
1.73242e-08
5.87283e-09
1.937e-09
6.21569e-10
1.93586e-10
5.84969e-11
1.70996e-11
4.77031e-12
0.328015
0.536772
0.677289
0.690178
0.671156
0.575992
0.48562
0.454092
0.438422
0.420258
0.381289
0.324704
0.282622
0.251718
0.230524
0.207967
0.196619
0.197923
0.205215
0.222332
0.266156
0.321873
0.365171
0.418339
0.465523
0.492753
0.499914
0.493732
0.465909
0.479426
0.698874
0.76765
0.781424
0.784728
0.785812
0.780076
0.773562
0.771062
0.770509
0.771859
0.774435
0.777903
0.781344
0.785087
0.786531
0.786944
0.786529
0.781427
0.774256
0.769789
0.767233
0.763609
0.760058
0.756868
0.75518
0.754252
0.75376
0.753647
0.75373
0.754483
0.755389
0.756534
0.758953
0.761232
0.762699
0.764771
0.7678
0.771476
0.775381
0.779103
0.783226
0.78807
0.793885
0.798786
0.803604
0.808709
0.813025
0.816335
0.818754
0.81912
0.818545
0.816833
0.814281
0.811408
0.808199
0.805641
0.804447
0.806146
0.812477
0.823799
0.839918
0.858165
0.878858
0.904756
0.930001
0.950017
0.964349
0.972729
0.973717
0.963286
0.925895
0.896094
0.887264
0.884801
0.881325
0.872912
0.870502
0.873872
0.89063
0.91096
0.918119
0.918276
0.913161
0.894792
0.881154
0.875538
0.872946
0.870132
0.86691
0.864552
0.863807
0.864074
0.867131
0.882273
0.917305
0.944733
0.961699
0.970398
0.973698
0.975228
0.977854
0.981688
0.985865
0.989723
0.992939
0.995429
0.997229
0.998431
0.999156
0.999534
0.999672
0.999684
0.999633
0.999367
0.998425
0.995456
0.986421
0.959723
0.874946
0.68579
0.507358
0.359923
0.245285
0.160618
0.101061
0.0611018
0.0355107
0.0198511
0.010684
0.00554306
0.00277606
0.00134394
0.00062977
0.000285994
0.000125998
5.39025e-05
2.24086e-05
9.05885e-06
3.56278e-06
1.36382e-06
5.08226e-07
1.84414e-07
6.51469e-08
2.24055e-08
7.49684e-09
2.43957e-09
7.70972e-10
2.36415e-10
7.02667e-11
1.99876e-11
0.346309
0.602436
0.701119
0.693857
0.635734
0.512526
0.459919
0.443412
0.429439
0.395719
0.337541
0.295202
0.263193
0.236598
0.215946
0.193012
0.179608
0.18103
0.19339
0.221538
0.272502
0.324363
0.367442
0.421874
0.469432
0.491999
0.489199
0.479005
0.483063
0.636045
0.75482
0.777519
0.780937
0.781289
0.774026
0.767122
0.764844
0.764345
0.765741
0.768251
0.771516
0.775308
0.778785
0.7804
0.780823
0.778751
0.771583
0.764246
0.760173
0.757665
0.755624
0.753681
0.751401
0.749065
0.746706
0.745084
0.7437
0.742618
0.741837
0.741064
0.740017
0.738525
0.737487
0.737084
0.73768
0.738334
0.739661
0.741808
0.744294
0.746727
0.749504
0.75449
0.761605
0.766954
0.774189
0.78092
0.786259
0.787211
0.786419
0.784044
0.778957
0.771333
0.762193
0.75312
0.745525
0.739962
0.737368
0.736551
0.739859
0.747673
0.760936
0.780769
0.807871
0.843267
0.88524
0.924562
0.954468
0.973047
0.981211
0.982506
0.976861
0.942219
0.904608
0.89246
0.889504
0.886067
0.8813
0.880766
0.885735
0.903287
0.914466
0.917212
0.916205
0.907506
0.89002
0.879702
0.875609
0.874916
0.87557
0.879003
0.881274
0.881795
0.882711
0.886449
0.903283
0.935069
0.958839
0.974045
0.982753
0.987119
0.988917
0.989532
0.990062
0.991324
0.993406
0.995374
0.996968
0.998136
0.998927
0.999419
0.999691
0.999812
0.999839
0.99983
0.99975
0.999421
0.998288
0.994624
0.983061
0.947062
0.828286
0.629986
0.455738
0.31502
0.20818
0.131585
0.0796029
0.0461404
0.0256638
0.0137223
0.0070671
0.00351178
0.0016864
0.000783716
0.000352903
0.000154139
6.53607e-05
2.69272e-05
1.07842e-05
4.20073e-06
1.59196e-06
5.8711e-07
2.10713e-07
7.35927e-08
2.50027e-08
8.25986e-09
2.65115e-09
8.25986e-10
2.49766e-10
7.24803e-11
0.369636
0.651409
0.711953
0.692036
0.60181
0.490596
0.452237
0.440047
0.424571
0.384762
0.327787
0.290443
0.263038
0.242166
0.227408
0.210924
0.19804
0.199592
0.215992
0.250302
0.296936
0.339191
0.383596
0.443046
0.475387
0.484366
0.483354
0.492446
0.583089
0.732944
0.771387
0.777205
0.777792
0.769865
0.762594
0.760076
0.759533
0.760766
0.763311
0.766221
0.769829
0.772637
0.773643
0.77373
0.770493
0.76421
0.757136
0.753467
0.751568
0.749754
0.747148
0.744552
0.741196
0.736793
0.731664
0.726227
0.720376
0.713786
0.706168
0.697736
0.688954
0.681667
0.675445
0.672815
0.67197
0.673711
0.676402
0.678221
0.684347
0.691352
0.698469
0.705055
0.712518
0.718804
0.725257
0.731316
0.737101
0.740335
0.74184
0.742288
0.741062
0.738175
0.73404
0.72999
0.726708
0.724298
0.723236
0.722913
0.723972
0.727018
0.732254
0.738832
0.74617
0.754386
0.771292
0.810697
0.876135
0.938018
0.970705
0.982341
0.982986
0.975768
0.938079
0.905559
0.894702
0.890749
0.888848
0.888778
0.890788
0.902108
0.91303
0.91618
0.916032
0.912349
0.898179
0.885308
0.879141
0.877575
0.878008
0.882355
0.893773
0.900151
0.902326
0.904896
0.911595
0.932329
0.955982
0.972884
0.983789
0.990274
0.993826
0.995563
0.996261
0.99646
0.99654
0.99672
0.997351
0.998254
0.998925
0.999377
0.99966
0.99982
0.999896
0.999918
0.999916
0.999887
0.999747
0.999234
0.997489
0.991722
0.972858
0.910319
0.732308
0.534651
0.371529
0.245748
0.154946
0.0932807
0.0537206
0.0296553
0.0157242
0.00802493
0.00395
0.00187863
0.000864756
0.000385737
0.000166897
7.01005e-05
2.8602e-05
1.13426e-05
4.37363e-06
1.64027e-06
5.98404e-07
2.12366e-07
7.33029e-08
2.46013e-08
8.02432e-09
2.5418e-09
7.82213e-10
2.3158e-10
0.388932
0.674634
0.717239
0.68741
0.587268
0.482217
0.450344
0.439292
0.423813
0.38398
0.337711
0.314422
0.298999
0.285442
0.273669
0.263712
0.256839
0.256039
0.274748
0.303611
0.340401
0.378459
0.430022
0.462634
0.476963
0.484632
0.497768
0.565154
0.709766
0.761771
0.772468
0.774227
0.766962
0.759229
0.756514
0.755882
0.756761
0.759351
0.762102
0.765035
0.767274
0.768012
0.767942
0.765094
0.759274
0.752746
0.748422
0.746446
0.744224
0.740143
0.735002
0.729076
0.721255
0.710547
0.696034
0.676641
0.654168
0.634539
0.619973
0.609646
0.604667
0.602578
0.60236
0.60765
0.612662
0.623242
0.634041
0.646876
0.660399
0.6724
0.685826
0.697608
0.708001
0.71729
0.724704
0.730112
0.734457
0.738832
0.742558
0.7454
0.748419
0.752333
0.758407
0.767034
0.776477
0.784787
0.790169
0.7916
0.789149
0.783558
0.776893
0.769365
0.76131
0.752696
0.747949
0.752028
0.770788
0.833862
0.923985
0.967682
0.980398
0.979433
0.964064
0.924451
0.902768
0.894954
0.892815
0.892727
0.894569
0.904299
0.914438
0.917617
0.917692
0.915857
0.906855
0.893694
0.885417
0.881956
0.881551
0.883099
0.892896
0.909764
0.918373
0.922092
0.927271
0.94021
0.957941
0.97287
0.983589
0.990523
0.994678
0.996985
0.998135
0.998615
0.998758
0.99878
0.99879
0.998848
0.999101
0.999447
0.999682
0.999827
0.999909
0.999948
0.999959
0.999958
0.999944
0.99987
0.999589
0.998593
0.995151
0.983327
0.942708
0.803831
0.589223
0.408203
0.268365
0.167811
0.10006
0.0570387
0.0311639
0.016358
0.00826649
0.00402929
0.00189733
0.000864368
0.000381468
0.000163273
6.78415e-05
2.73846e-05
1.07431e-05
4.0974e-06
1.51963e-06
5.48097e-07
1.9225e-07
6.55652e-08
2.17374e-08
7.00217e-09
2.19301e-09
6.62158e-10
0.404047
0.691269
0.722357
0.685942
0.582152
0.4803
0.452174
0.442909
0.433295
0.410017
0.365099
0.329236
0.315269
0.309151
0.306652
0.30623
0.309421
0.322054
0.338701
0.366466
0.395292
0.425931
0.455028
0.469469
0.482633
0.503001
0.568042
0.697243
0.751835
0.767403
0.770197
0.764779
0.756673
0.753778
0.753066
0.753478
0.755848
0.758582
0.761417
0.763746
0.764667
0.764789
0.763195
0.758979
0.753098
0.746569
0.740437
0.735868
0.728883
0.716663
0.704966
0.693957
0.672602
0.646096
0.616336
0.593937
0.583136
0.575124
0.56863
0.561745
0.557806
0.556226
0.556184
0.559489
0.563288
0.576419
0.590652
0.608078
0.628531
0.64866
0.671048
0.693435
0.715193
0.736631
0.756956
0.77634
0.792788
0.805272
0.815147
0.824244
0.833751
0.844549
0.854547
0.861929
0.868011
0.874848
0.884734
0.898194
0.911353
0.920088
0.922653
0.917238
0.898636
0.861656
0.80674
0.767072
0.76011
0.777112
0.83836
0.929236
0.968587
0.976535
0.971497
0.943426
0.91569
0.902772
0.897841
0.896777
0.897645
0.904979
0.918346
0.923364
0.923708
0.922479
0.917273
0.908126
0.89997
0.894488
0.892294
0.89224
0.894681
0.908284
0.925241
0.934119
0.941559
0.951502
0.963404
0.974847
0.984042
0.990516
0.994658
0.997115
0.998471
0.999146
0.99943
0.999518
0.999532
0.999535
0.99955
0.999623
0.999762
0.999862
0.999924
0.99996
0.999976
0.99998
0.999979
0.999969
0.999921
0.999731
0.999033
0.996506
0.987404
0.954707
0.836438
0.613058
0.420861
0.273483
0.168853
0.099377
0.0559235
0.0301754
0.0156508
0.00781944
0.00377011
0.00175682
0.000792212
0.00034605
0.00014655
6.02158e-05
2.40229e-05
9.31091e-06
3.50797e-06
1.28524e-06
4.57942e-07
1.58666e-07
5.34577e-08
1.75081e-08
5.5787e-09
1.71689e-09
0.422357
0.701905
0.725644
0.68729
0.58252
0.486739
0.455358
0.444836
0.437249
0.421196
0.398216
0.371344
0.353737
0.347033
0.345314
0.350135
0.360939
0.369656
0.385857
0.405369
0.425204
0.446565
0.467356
0.484396
0.512767
0.58514
0.695364
0.745132
0.762275
0.765937
0.763144
0.754692
0.751628
0.750859
0.750864
0.752663
0.755269
0.75802
0.760931
0.762256
0.76248
0.761779
0.759761
0.755095
0.746751
0.734418
0.721223
0.711027
0.699893
0.683912
0.668138
0.64839
0.619778
0.588025
0.568094
0.556317
0.546215
0.530339
0.513701
0.494613
0.473484
0.454571
0.443087
0.438562
0.441959
0.453638
0.473357
0.498626
0.526237
0.556729
0.588064
0.622684
0.661684
0.70334
0.743385
0.776412
0.805544
0.830477
0.85024
0.864919
0.874184
0.878669
0.8799
0.878319
0.876739
0.878254
0.88653
0.90434
0.927359
0.947457
0.962398
0.972362
0.976217
0.973697
0.955348
0.886115
0.807352
0.787519
0.806288
0.875821
0.946453
0.970826
0.972401
0.959167
0.931637
0.915978
0.908576
0.90577
0.905492
0.907958
0.921397
0.933062
0.935283
0.93408
0.929718
0.926031
0.922482
0.918793
0.915845
0.914408
0.914304
0.916098
0.926889
0.942579
0.95315
0.961734
0.970215
0.978472
0.985621
0.991069
0.994795
0.997133
0.998498
0.999237
0.999599
0.999752
0.999802
0.999813
0.999818
0.999831
0.999872
0.99992
0.999953
0.999974
0.999986
0.99999
0.999991
0.99999
0.999981
0.999941
0.999781
0.999172
0.996864
0.988184
0.955829
0.835992
0.605317
0.409353
0.261815
0.1591
0.0922014
0.0511256
0.0272033
0.0139234
0.00686906
0.00327199
0.00150695
0.000671828
0.000290208
0.000121562
4.94094e-05
1.94968e-05
7.47192e-06
2.7818e-06
1.00648e-06
3.53965e-07
1.21053e-07
4.02682e-08
1.30415e-08
4.08656e-09
0.43554
0.708224
0.73062
0.689508
0.585831
0.492856
0.462186
0.450722
0.444783
0.434155
0.412066
0.391673
0.378773
0.373804
0.372561
0.376238
0.386508
0.393292
0.408918
0.423982
0.443779
0.467504
0.494512
0.531687
0.615843
0.700979
0.74211
0.75785
0.761673
0.761562
0.753267
0.749821
0.748786
0.748634
0.749919
0.752173
0.75465
0.757557
0.759949
0.760764
0.760914
0.760067
0.756792
0.749268
0.73365
0.714174
0.69818
0.682756
0.665888
0.652591
0.633291
0.604382
0.574243
0.5474
0.524007
0.501911
0.472997
0.435053
0.391452
0.352656
0.323165
0.308223
0.302288
0.30241
0.314003
0.332048
0.355761
0.386521
0.422891
0.461595
0.497631
0.52923
0.557541
0.586059
0.620869
0.6667
0.717606
0.769122
0.813171
0.842658
0.858933
0.863028
0.858722
0.841902
0.813468
0.79394
0.791276
0.812209
0.865833
0.919935
0.95529
0.974396
0.984254
0.988636
0.988677
0.980269
0.930977
0.847164
0.826978
0.848546
0.916366
0.962139
0.973283
0.969619
0.949675
0.933406
0.926116
0.923299
0.922465
0.922528
0.926187
0.941506
0.950713
0.951523
0.94808
0.942224
0.940788
0.941701
0.945208
0.946742
0.946462
0.9452
0.945328
0.949397
0.961535
0.971237
0.978329
0.984103
0.988953
0.992811
0.995618
0.997485
0.998635
0.999298
0.999651
0.999822
0.999894
0.999918
0.999925
0.999933
0.999949
0.999966
0.999979
0.999988
0.999993
0.999995
0.999996
0.999996
0.999994
0.999985
0.999943
0.999777
0.999115
0.996509
0.98637
0.947621
0.804797
0.568756
0.377012
0.236589
0.141186
0.0804334
0.0438908
0.0230044
0.0116077
0.00564929
0.00265598
0.00120779
0.000531814
0.00022694
9.39237e-05
3.77245e-05
1.47126e-05
5.57379e-06
2.05196e-06
7.34226e-07
2.5541e-07
8.63663e-08
2.84188e-08
9.05288e-09
0.451192
0.714895
0.733614
0.694281
0.597206
0.50264
0.467541
0.454106
0.448299
0.443842
0.43248
0.414148
0.398885
0.392661
0.390802
0.39142
0.399882
0.412098
0.430011
0.450397
0.479095
0.51756
0.580455
0.651426
0.71039
0.741569
0.754213
0.757955
0.758857
0.752131
0.748596
0.747365
0.74709
0.747552
0.749211
0.751545
0.753994
0.756838
0.758649
0.758864
0.758473
0.756507
0.749964
0.736328
0.716345
0.693759
0.671609
0.657972
0.647118
0.625652
0.603668
0.573593
0.534004
0.49634
0.46137
0.423083
0.377659
0.330561
0.289876
0.261677
0.245376
0.23811
0.235769
0.244048
0.25964
0.280347
0.307053
0.338668
0.378971
0.424141
0.468193
0.506273
0.535528
0.557625
0.574711
0.590651
0.608569
0.632832
0.667422
0.713336
0.750347
0.761947
0.756821
0.729809
0.701824
0.690502
0.688848
0.694339
0.718832
0.78867
0.88463
0.945456
0.975133
0.988016
0.991891
0.991728
0.98424
0.937463
0.875182
0.864718
0.889536
0.946837
0.973433
0.977689
0.969333
0.952648
0.945969
0.945307
0.947246
0.948991
0.948475
0.950332
0.961431
0.968462
0.969013
0.965463
0.959329
0.958036
0.959926
0.967638
0.972659
0.973636
0.972935
0.972082
0.972795
0.978159
0.985755
0.990565
0.993684
0.995837
0.997353
0.99839
0.999068
0.999489
0.999734
0.999866
0.999929
0.999956
0.999968
0.999976
0.999983
0.999989
0.999993
0.999996
0.999997
0.999998
0.999999
0.999998
0.999998
0.999995
0.999983
0.999932
0.999717
0.998833
0.995258
0.98106
0.926168
0.741284
0.508689
0.329638
0.202548
0.118525
0.0663059
0.0355743
0.0183517
0.00912168
0.00437588
0.00202886
0.0009102
0.000395499
0.000166588
6.80676e-05
2.69968e-05
1.03988e-05
3.89199e-06
1.4159e-06
5.00916e-07
1.72372e-07
5.7756e-08
1.87635e-08
0.460986
0.72151
0.736505
0.696774
0.605481
0.518713
0.480737
0.462695
0.453673
0.448481
0.441782
0.429936
0.41652
0.410161
0.408371
0.411626
0.426997
0.447267
0.477151
0.520017
0.572217
0.63133
0.682943
0.722117
0.742263
0.751486
0.754618
0.755672
0.750754
0.746886
0.745595
0.74529
0.745555
0.746762
0.748489
0.750635
0.752648
0.755282
0.756895
0.757496
0.756955
0.754178
0.744505
0.727144
0.701643
0.672974
0.653218
0.640226
0.626473
0.609198
0.584354
0.54485
0.494139
0.449318
0.409324
0.365809
0.316864
0.272383
0.238409
0.217835
0.205042
0.19913
0.197706
0.202682
0.215167
0.240677
0.274358
0.310641
0.353157
0.40368
0.454372
0.498331
0.531512
0.555965
0.572657
0.585332
0.596338
0.607282
0.619157
0.635195
0.653523
0.667599
0.675244
0.677139
0.675798
0.674497
0.675512
0.679046
0.688571
0.710743
0.766387
0.863648
0.936029
0.974069
0.989152
0.992368
0.990905
0.976286
0.924501
0.895241
0.895215
0.925495
0.967347
0.982829
0.984427
0.976291
0.964566
0.961729
0.963427
0.970595
0.974813
0.974714
0.974355
0.977961
0.982873
0.983681
0.982452
0.978348
0.976882
0.977802
0.983176
0.987295
0.988386
0.988339
0.988112
0.988349
0.990434
0.994285
0.996686
0.99806
0.998852
0.999315
0.999589
0.999756
0.99986
0.999923
0.999959
0.999977
0.999986
0.999991
0.999994
0.999996
0.999998
0.999999
0.999999
0.999999
1
1
0.999999
0.999998
0.999994
0.999976
0.999896
0.999558
0.998139
0.992315
0.969063
0.879117
0.64728
0.433334
0.274114
0.164698
0.0944183
0.0518312
0.0273237
0.0138641
0.00678339
0.00320523
0.00146444
0.000647653
0.000277507
0.000115295
4.64795e-05
1.81926e-05
6.91787e-06
2.55682e-06
9.19035e-07
3.21386e-07
1.09463e-07
3.6193e-08
0.47724
0.727145
0.741077
0.706802
0.629387
0.543619
0.500882
0.479163
0.466061
0.458497
0.451942
0.443763
0.43816
0.436642
0.44322
0.46321
0.50072
0.540127
0.587572
0.631279
0.671571
0.707703
0.729367
0.74365
0.749434
0.751596
0.752398
0.74809
0.744689
0.743398
0.743013
0.742972
0.74345
0.744921
0.747057
0.749193
0.751218
0.752814
0.753852
0.754048
0.753222
0.748642
0.738489
0.719622
0.692887
0.661773
0.633324
0.618548
0.608586
0.59269
0.566305
0.528364
0.474417
0.417333
0.365863
0.319268
0.275738
0.239454
0.212564
0.196017
0.186988
0.183791
0.184439
0.187906
0.195968
0.214448
0.253628
0.296938
0.342677
0.395915
0.450496
0.497523
0.536578
0.568297
0.58844
0.597774
0.605001
0.611389
0.618984
0.629383
0.641392
0.653581
0.664387
0.672606
0.678859
0.686005
0.694322
0.701473
0.706486
0.71498
0.742124
0.810119
0.888087
0.946463
0.978725
0.990175
0.991093
0.984624
0.952294
0.922118
0.914896
0.922836
0.956901
0.981462
0.990192
0.990829
0.985647
0.977288
0.975289
0.978142
0.985906
0.989632
0.990333
0.990048
0.990364
0.99217
0.992876
0.992757
0.991816
0.991194
0.991335
0.993052
0.994915
0.995474
0.995546
0.995613
0.99594
0.997162
0.998383
0.999108
0.99951
0.999727
0.999843
0.999907
0.999943
0.999966
0.999981
0.999989
0.999994
0.999997
0.999998
0.999999
0.999999
1
1
1
1
1
1
0.999999
0.999998
0.99999
0.999957
0.99981
0.99918
0.996526
0.985648
0.942575
0.783938
0.542568
0.352953
0.217631
0.127798
0.0717507
0.038637
0.0200051
0.00997939
0.00480388
0.00223454
0.00100551
0.000438151
0.000185043
7.5802e-05
3.01407e-05
1.1641e-05
4.36966e-06
1.59521e-06
5.66658e-07
1.96084e-07
6.59387e-08
0.488526
0.7339
0.745508
0.715121
0.655648
0.589267
0.539775
0.514385
0.496411
0.486486
0.481126
0.47937
0.483678
0.498834
0.529718
0.56568
0.601929
0.638947
0.673802
0.70189
0.720321
0.73676
0.744321
0.748112
0.749325
0.74966
0.746459
0.743456
0.742074
0.741428
0.741216
0.741224
0.741502
0.742409
0.743987
0.745938
0.748445
0.750694
0.75171
0.75153
0.74955
0.743011
0.731577
0.71611
0.694333
0.664266
0.633981
0.611095
0.595545
0.580361
0.563619
0.532019
0.481148
0.423087
0.369002
0.321105
0.278071
0.242537
0.215907
0.198653
0.188429
0.184497
0.184614
0.186834
0.193475
0.209248
0.247736
0.294064
0.342882
0.402797
0.467359
0.524224
0.560656
0.584152
0.606405
0.624457
0.634033
0.638973
0.642276
0.646068
0.652145
0.661973
0.67692
0.69742
0.721643
0.749708
0.780798
0.805586
0.8142
0.809589
0.796149
0.810854
0.876135
0.935286
0.971749
0.987926
0.990799
0.987364
0.964786
0.940792
0.933521
0.935122
0.954101
0.978722
0.990751
0.995173
0.995728
0.994339
0.991199
0.990064
0.991114
0.994783
0.996494
0.996836
0.996819
0.996853
0.997243
0.997496
0.997493
0.99736
0.997297
0.997378
0.997868
0.998273
0.998406
0.998584
0.998893
0.999237
0.999519
0.999713
0.999834
0.999905
0.999945
0.999967
0.999979
0.999987
0.999992
0.999996
0.999998
0.999999
0.999999
1
1
1
1
1
1
1
1
1
0.999999
0.999995
0.999979
0.999907
0.999591
0.998234
0.992554
0.96957
0.879925
0.647415
0.432834
0.273621
0.164413
0.0943203
0.0518377
0.027367
0.0139084
0.00681614
0.00322576
0.00147599
0.00065367
0.000280455
0.000116675
4.71021e-05
1.84667e-05
7.03592e-06
2.60716e-06
9.4015e-07
3.3029e-07
1.12877e-07
0.498776
0.739256
0.75213
0.733337
0.688489
0.642917
0.600175