/*--------------------------------*- C++ -*----------------------------------*\
  =========                 |
  \\      /  F ield         | OpenFOAM: The Open Source CFD Toolbox
   \\    /   O peration     | Website:  https://openfoam.org
    \\  /    A nd           | Version:  9
     \\/     M anipulation  |
\*---------------------------------------------------------------------------*/
FoamFile
{
    format      ascii;
    class       volVectorField;
    location    "0.032";
    object      U;
}
// * * * * * * * * * * * * * * * * * * * * * * * * * * * * * * * * * * * * * //

dimensions      [0 1 -1 0 0 0 0];

internalField   nonuniform List<vector> 
12225
(
(10.2454 0.0596284 0)
(9.83519 0.0410288 0)
(9.36427 0.0376321 0)
(8.98146 0.0575797 0)
(8.62587 0.0857439 0)
(8.26685 0.0913149 0)
(7.93196 0.0758951 0)
(7.65007 0.060474 0)
(7.40322 0.0567374 0)
(7.15429 0.0603741 0)
(6.87991 0.0632384 0)
(6.60123 0.0611742 0)
(6.32354 0.0604616 0)
(6.07072 0.0636444 0)
(5.78671 0.0795521 0)
(5.51361 0.0956949 0)
(5.14716 0.121711 0)
(4.72296 0.169065 0)
(10.1359 0.0296698 0)
(10.2325 0.138388 0)
(10.2039 0.154871 0)
(10.1746 0.103054 0)
(10.1934 0.0767362 0)
(10.1878 0.0783952 0)
(10.0998 0.0815978 0)
(9.96111 0.0789914 0)
(9.83024 0.0788686 0)
(9.73613 0.0880807 0)
(9.66828 0.101851 0)
(9.61345 0.112931 0)
(9.54613 0.116292 0)
(9.46847 0.118795 0)
(9.35782 0.12577 0)
(9.23667 0.14 0)
(9.08367 0.178876 0)
(8.89697 0.209041 0)
(9.891 -0.0193599 0)
(10.0224 0.0543777 0)
(10.0857 0.0682826 0)
(10.0103 0.0610875 0)
(9.93903 0.0873727 0)
(9.9431 0.124761 0)
(9.99781 0.143318 0)
(10.0624 0.140299 0)
(10.1042 0.127622 0)
(10.1072 0.115554 0)
(10.0775 0.107214 0)
(10.0333 0.104054 0)
(9.98761 0.109323 0)
(9.9441 0.127479 0)
(9.90157 0.159557 0)
(9.85488 0.20241 0)
(9.80752 0.253425 0)
(9.75755 0.307567 0)
(10.0729 -0.0200358 0)
(10.0669 0.0800391 0)
(9.96678 0.155523 0)
(9.83596 0.133159 0)
(9.78579 0.0871266 0)
(9.83025 0.0544034 0)
(9.92777 0.0377451 0)
(10.0394 0.0387556 0)
(10.1339 0.0598235 0)
(10.1829 0.0940104 0)
(10.1705 0.126154 0)
(10.1031 0.145805 0)
(10.0039 0.152923 0)
(9.90209 0.157298 0)
(9.82075 0.169103 0)
(9.77113 0.193863 0)
(9.75264 0.230767 0)
(9.76292 0.277206 0)
(10.0404 -0.0381653 0)
(9.90339 0.102334 0)
(10.006 0.136141 0)
(10.0947 0.102903 0)
(10.1011 0.0883272 0)
(10.0606 0.0908211 0)
(10.0081 0.0869568 0)
(9.96592 0.0783578 0)
(9.94601 0.0813453 0)
(9.94425 0.103538 0)
(9.94487 0.137466 0)
(9.93526 0.170677 0)
(9.91199 0.195391 0)
(9.87926 0.212713 0)
(9.84541 0.228073 0)
(9.81792 0.247319 0)
(9.80352 0.271139 0)
(9.80279 0.299703 0)
(9.82328 -0.0245743 0)
(9.9074 0.0884968 0)
(10.0081 0.122155 0)
(10.0144 0.120523 0)
(9.99901 0.105057 0)
(10.005 0.0817952 0)
(10.0068 0.0614475 0)
(9.98502 0.0550629 0)
(9.95249 0.068545 0)
(9.9325 0.0980711 0)
(9.93582 0.131878 0)
(9.95699 0.158177 0)
(9.98394 0.172345 0)
(10.005 0.178698 0)
(10.0159 0.186212 0)
(10.0163 0.201869 0)
(10.011 0.226095 0)
(10.001 0.256029 0)
(9.87239 -0.105225 0)
(9.96657 0.0182732 0)
(10.0385 0.0873045 0)
(10.0667 0.0846029 0)
(10.1143 0.0787582 0)
(10.1656 0.0889663 0)
(10.1823 0.100645 0)
(10.1483 0.103706 0)
(10.0776 0.102793 0)
(9.99923 0.108013 0)
(9.93678 0.124588 0)
(9.89894 0.149964 0)
(9.88186 0.178528 0)
(9.87833 0.206753 0)
(9.88268 0.234535 0)
(9.89153 0.262401 0)
(9.90232 0.288978 0)
(9.91162 0.311082 0)
(10.2329 -0.0408533 0)
(10.201 0.0685301 0)
(10.1661 0.11728 0)
(10.0989 0.11488 0)
(10.0409 0.0864271 0)
(10.0244 0.0615579 0)
(10.0452 0.0617803 0)
(10.0737 0.0895804 0)
(10.0811 0.129695 0)
(10.0575 0.163936 0)
(10.0133 0.182846 0)
(9.96696 0.186389 0)
(9.93233 0.179851 0)
(9.91622 0.170524 0)
(9.91834 0.168031 0)
(9.9367 0.177966 0)
(9.9626 0.201686 0)
(9.99171 0.234675 0)
(9.65818 -0.126868 0)
(9.84652 0.0264559 0)
(9.98396 0.0975852 0)
(10.0369 0.105376 0)
(10.0695 0.0967207 0)
(10.0867 0.0858215 0)
(10.065 0.0817684 0)
(10.0194 0.0900377 0)
(9.99042 0.110174 0)
(10.0031 0.137126 0)
(10.0547 0.165347 0)
(10.1198 0.190723 0)
(10.1642 0.210607 0)
(10.1615 0.225027 0)
(10.1012 0.235654 0)
(10.0053 0.247162 0)
(9.89122 0.261409 0)
(9.79871 0.27987 0)
(10.0788 -0.0688042 0)
(10.0703 0.00870666 0)
(10.0208 0.0654916 0)
(9.92188 0.0851535 0)
(9.88213 0.0777979 0)
(9.91994 0.0735961 0)
(9.97897 0.093583 0)
(10.0112 0.123466 0)
(10.0122 0.138471 0)
(10.0034 0.132282 0)
(10.0061 0.119556 0)
(10.0267 0.121054 0)
(10.0564 0.147381 0)
(10.0783 0.196888 0)
(10.0781 0.254558 0)
(10.0484 0.306649 0)
(9.9977 0.341962 0)
(9.92862 0.357264 0)
(9.94352 -0.067282 0)
(9.95316 0.0440227 0)
(9.90845 0.147506 0)
(9.88529 0.154109 0)
(9.88357 0.0934669 0)
(9.89215 0.0375225 0)
(9.92015 0.030186 0)
(9.9662 0.0651424 0)
(10.0035 0.110399 0)
(10.0043 0.14259 0)
(9.96542 0.1591 0)
(9.90987 0.170776 0)
(9.86493 0.189306 0)
(9.84566 0.22013 0)
(9.85159 0.260069 0)
(9.86831 0.301225 0)
(9.88852 0.337964 0)
(9.89384 0.365597 0)
(9.97048 -0.034143 0)
(9.97221 0.0671593 0)
(9.93886 0.101084 0)
(9.98926 0.0961193 0)
(10.0688 0.077514 0)
(10.1113 0.0600532 0)
(10.1032 0.0603361 0)
(10.0643 0.0851091 0)
(10.0179 0.122842 0)
(9.9775 0.155136 0)
(9.94812 0.171953 0)
(9.93323 0.177669 0)
(9.93482 0.184661 0)
(9.95364 0.204119 0)
(9.98696 0.238992 0)
(10.0241 0.28229 0)
(10.059 0.327115 0)
(10.0727 0.363892 0)
(10.0264 -0.0912131 0)
(10.0751 0.0428036 0)
(10.0773 0.118541 0)
(10.0646 0.0958025 0)
(10.0645 0.0465912 0)
(10.0754 0.0250082 0)
(10.0992 0.0480416 0)
(10.1262 0.0997832 0)
(10.1437 0.150562 0)
(10.1459 0.181004 0)
(10.1342 0.188549 0)
(10.1136 0.183037 0)
(10.0913 0.177839 0)
(10.0746 0.183254 0)
(10.0668 0.205518 0)
(10.068 0.241855 0)
(10.0691 0.291031 0)
(10.069 0.344472 0)
(9.92379 0.0631284 0)
(9.92546 0.0958021 0)
(9.9677 0.12567 0)
(10.0179 0.105277 0)
(10.0445 0.0717958 0)
(10.0274 0.0408929 0)
(10.004 0.0311355 0)
(10.0017 0.0573339 0)
(10.0168 0.107342 0)
(10.0348 0.155735 0)
(10.0447 0.186829 0)
(10.0412 0.201875 0)
(10.0243 0.210851 0)
(9.99726 0.226296 0)
(9.96476 0.253419 0)
(9.93352 0.293534 0)
(9.90499 0.341567 0)
(9.88688 0.391758 0)
(9.9135 -0.0394778 0)
(9.94239 -0.0311017 0)
(9.93858 0.00788296 0)
(9.95732 0.0314903 0)
(10.0003 0.0441472 0)
(10.0229 0.0579068 0)
(10.0227 0.0765251 0)
(10.0138 0.104553 0)
(10.0013 0.138406 0)
(9.98666 0.169264 0)
(9.96844 0.19249 0)
(9.94674 0.2098 0)
(9.92439 0.225356 0)
(9.90835 0.24406 0)
(9.90449 0.268406 0)
(9.91283 0.298914 0)
(9.93334 0.332919 0)
(9.95709 0.368305 0)
(10.3085 -0.0388671 0)
(10.1967 0.142915 0)
(10.1373 0.158685 0)
(10.1015 0.10452 0)
(10.1011 0.0467235 0)
(10.099 0.0107455 0)
(10.0895 0.0145004 0)
(10.0767 0.0555639 0)
(10.0599 0.115351 0)
(10.0426 0.173318 0)
(10.0297 0.215353 0)
(10.0213 0.236141 0)
(10.015 0.238696 0)
(10.0108 0.232753 0)
(10.0096 0.231478 0)
(10.0135 0.244039 0)
(10.0212 0.274302 0)
(10.0339 0.321457 0)
(9.79027 0.0550834 0)
(9.86976 0.119127 0)
(9.98815 0.0341252 0)
(10.1254 0.00594964 0)
(10.2021 0.0288454 0)
(10.1901 0.0742542 0)
(10.1302 0.128354 0)
(10.0563 0.174935 0)
(9.98773 0.205754 0)
(9.94236 0.223338 0)
(9.92941 0.233806 0)
(9.94223 0.243246 0)
(9.96597 0.254451 0)
(9.98775 0.269301 0)
(9.99988 0.285279 0)
(10.0022 0.302146 0)
(9.99746 0.31739 0)
(9.99256 0.332781 0)
(9.86999 -0.00890404 0)
(9.93634 -0.095858 0)
(9.98365 -0.118535 0)
(9.98019 -0.084551 0)
(9.9301 -0.0143606 0)
(9.88681 0.0752674 0)
(9.86628 0.159757 0)
(9.86467 0.216818 0)
(9.8834 0.236788 0)
(9.92465 0.223761 0)
(9.98244 0.190653 0)
(10.0458 0.156104 0)
(10.1058 0.137801 0)
(10.1571 0.145844 0)
(10.1988 0.179225 0)
(10.2293 0.228336 0)
(10.2529 0.282344 0)
(10.2676 0.329779 0)
(10.0037 -0.126366 0)
(10.0662 -0.0679529 0)
(10.0919 0.0364948 0)
(10.0805 0.095714 0)
(10.0616 0.15258 0)
(10.0558 0.19619 0)
(10.0732 0.201513 0)
(10.1136 0.166202 0)
(10.1702 0.109535 0)
(10.2287 0.0563973 0)
(10.2733 0.0257536 0)
(10.2976 0.0259677 0)
(10.3066 0.0540823 0)
(10.3098 0.0995831 0)
(10.3139 0.148987 0)
(10.3234 0.193161 0)
(10.3376 0.226954 0)
(10.3565 0.251512 0)
(9.9812 -0.142476 0)
(9.98092 -0.153711 0)
(10.0025 -0.114598 0)
(9.99891 -0.0318936 0)
(10.056 0.0409053 0)
(10.1425 0.0681973 0)
(10.2103 0.0529819 0)
(10.235 0.0242403 0)
(10.2223 0.0106837 0)
(10.1897 0.020846 0)
(10.1534 0.0453601 0)
(10.1263 0.0729138 0)
(10.1131 0.0977113 0)
(10.1123 0.120399 0)
(10.1194 0.144413 0)
(10.1311 0.171764 0)
(10.1445 0.203291 0)
(10.1591 0.236274 0)
(10.1139 0.114402 0)
(10.1542 0.0566017 0)
(10.1139 -0.028818 0)
(10.0481 -0.0379289 0)
(10.0605 -0.0357672 0)
(10.1365 -0.00397182 0)
(10.2131 0.0618974 0)
(10.2535 0.130018 0)
(10.2578 0.166775 0)
(10.2376 0.16319 0)
(10.2054 0.135162 0)
(10.1741 0.106816 0)
(10.1541 0.0940505 0)
(10.1491 0.0996037 0)
(10.1606 0.117445 0)
(10.1867 0.140905 0)
(10.2259 0.163952 0)
(10.2745 0.184828 0)
(9.91005 0.0542604 0)
(9.96777 -0.0591302 0)
(9.97501 -0.0189746 0)
(9.96501 0.00382284 0)
(9.96795 -0.0425457 0)
(9.98612 -0.0903156 0)
(10.02 -0.0880884 0)
(10.075 -0.0360568 0)
(10.1359 0.0353097 0)
(10.1709 0.0947083 0)
(10.1646 0.129406 0)
(10.1316 0.139179 0)
(10.0973 0.129671 0)
(10.081 0.10905 0)
(10.0905 0.085785 0)
(10.124 0.0679369 0)
(10.1733 0.0581806 0)
(10.2287 0.0600718 0)
(10.0484 0.1287 0)
(10.0451 0.0817608 0)
(10.0799 -0.0166843 0)
(10.0592 -0.0524401 0)
(10.0396 -0.0453166 0)
(10.0403 -0.0451601 0)
(10.0426 -0.0406238 0)
(10.0438 -0.00344947 0)
(10.0489 0.0641499 0)
(10.0588 0.135174 0)
(10.0747 0.180964 0)
(10.0979 0.186549 0)
(10.127 0.155136 0)
(10.158 0.102576 0)
(10.186 0.0487809 0)
(10.2089 0.00941668 0)
(10.2273 -0.00831057 0)
(10.2436 -3.737e-05 0)
(9.78777 0.18581 0)
(9.93235 0.011936 0)
(9.97788 -0.025315 0)
(9.94497 -0.015711 0)
(9.93926 -0.0443687 0)
(9.98529 -0.0867132 0)
(10.0399 -0.0911446 0)
(10.0745 -0.0461846 0)
(10.0958 0.0202466 0)
(10.1232 0.0755095 0)
(10.1692 0.101504 0)
(10.2334 0.0985616 0)
(10.3053 0.0776292 0)
(10.3707 0.0515633 0)
(10.4182 0.0288203 0)
(10.4438 0.0148868 0)
(10.451 0.00963457 0)
(10.4449 0.0124302 0)
(10.061 0.0560408 0)
(10.0032 -0.0178725 0)
(9.96902 0.000658714 0)
(9.95079 -0.0147435 0)
(9.9773 -0.0675853 0)
(10.0149 -0.113156 0)
(10.0378 -0.107646 0)
(10.0557 -0.049963 0)
(10.0812 0.0213117 0)
(10.1131 0.06642 0)
(10.1422 0.0721113 0)
(10.1595 0.0470882 0)
(10.1647 0.0105738 0)
(10.1651 -0.0193403 0)
(10.1726 -0.0321421 0)
(10.1948 -0.0274959 0)
(10.2316 -0.00930084 0)
(10.2831 0.0172872 0)
(10.2679 0.175389 0)
(10.2528 0.0729196 0)
(10.2917 0.000277173 0)
(10.268 -0.0377423 0)
(10.1923 -0.0820044 0)
(10.0949 -0.1202 0)
(10.0212 -0.121499 0)
(10.0031 -0.0816344 0)
(10.0365 -0.0229707 0)
(10.0937 0.0307242 0)
(10.1471 0.0661089 0)
(10.1842 0.0782746 0)
(10.2085 0.0676677 0)
(10.2301 0.0387286 0)
(10.2535 0.000355594 0)
(10.2801 -0.037633 0)
(10.3085 -0.0700529 0)
(10.3361 -0.0899268 0)
(9.70958 0.0790598 0)
(9.94451 -0.00254935 0)
(10.0188 0.00683735 0)
(10.0713 0.0300858 0)
(10.1176 0.0172301 0)
(10.1019 -0.0203835 0)
(10.026 -0.0532995 0)
(9.94902 -0.0586117 0)
(9.92231 -0.0361224 0)
(9.95774 -0.00499786 0)
(10.0367 0.0128644 0)
(10.1311 0.00753275 0)
(10.2174 -0.0172887 0)
(10.2835 -0.0497889 0)
(10.3262 -0.0759564 0)
(10.3478 -0.0854509 0)
(10.3533 -0.0767837 0)
(10.3504 -0.0541399 0)
(10.1811 -0.00413093 0)
(10.0463 -0.038514 0)
(10.0171 -0.0465714 0)
(10.0548 -0.0712069 0)
(10.1375 -0.082762 0)
(10.2188 -0.0680357 0)
(10.2649 -0.0464014 0)
(10.2823 -0.0351169 0)
(10.3009 -0.0348839 0)
(10.3419 -0.0377091 0)
(10.4016 -0.0371428 0)
(10.457 -0.0336994 0)
(10.4847 -0.0315444 0)
(10.4749 -0.0334057 0)
(10.4342 -0.040417 0)
(10.3803 -0.0503984 0)
(10.33 -0.0613017 0)
(10.2987 -0.0687212 0)
(10.1047 0.0939318 0)
(10.1197 0.0387495 0)
(10.2357 -0.000342732 0)
(10.3344 -0.0295061 0)
(10.3357 -0.0586453 0)
(10.2736 -0.0717626 0)
(10.214 -0.0703248 0)
(10.1913 -0.0643309 0)
(10.2047 -0.0603622 0)
(10.2395 -0.0578572 0)
(10.2787 -0.05314 0)
(10.3062 -0.0453567 0)
(10.3108 -0.0364858 0)
(10.2924 -0.0293071 0)
(10.259 -0.0257094 0)
(10.2242 -0.0259295 0)
(10.1964 -0.030054 0)
(10.1833 -0.0348933 0)
(9.8894 0.00968511 0)
(9.91482 -0.0662826 0)
(9.7756 -0.098995 0)
(9.55928 -0.094328 0)
(9.34481 -0.0618946 0)
(9.17244 -0.0326767 0)
(9.0365 -0.0258928 0)
(8.9052 -0.0395056 0)
(8.75132 -0.0590889 0)
(8.57877 -0.0692688 0)
(8.4147 -0.0626943 0)
(8.28509 -0.0428038 0)
(8.19971 -0.0193942 0)
(8.15361 -0.00303696 0)
(8.12632 -0.000319671 0)
(8.0978 -0.0112962 0)
(8.04768 -0.0318762 0)
(7.97229 -0.0517718 0)
(-0.294004 0.643597 -1.05951e-19)
(-0.671783 0.316634 1.05122e-19)
(-0.893626 0.0851431 0)
(-0.967786 -0.101404 0)
(-0.785853 -0.336628 0)
(-0.445705 -0.525918 -1.02012e-19)
(0.0910774 -0.659264 0)
(0.725842 -0.711313 0)
(1.39335 -0.710954 0)
(2.04969 -0.66771 0)
(2.6728 -0.594545 9.76575e-20)
(3.23762 -0.503028 0)
(3.72351 -0.400935 0)
(4.11762 -0.294519 0)
(4.41556 -0.186397 0)
(4.60741 -0.0769972 9.42674e-20)
(4.69699 0.0345975 0)
(4.66792 0.152023 0)
(4.52346 0.274944 0)
(4.25327 0.403938 0)
(3.86696 0.522013 0)
(3.36208 0.640687 0)
(2.74066 0.7187 0)
(2.05505 0.771686 8.85475e-20)
(1.2042 0.77462 -8.79626e-20)
(0.469532 0.310925 8.74443e-20)
(-0.0128492 -0.151224 8.68529e-20)
(-0.375405 -0.0713054 0)
(-0.597496 -0.00269631 0)
(-0.666474 -0.0960167 -8.46185e-20)
(-0.577957 -0.254531 -8.38832e-20)
(-0.274901 -0.426147 0)
(0.286814 -0.495753 0)
(0.888381 -0.463442 -8.13974e-20)
(1.38632 -0.108293 0)
(1.78745 0.449737 0)
(1.90318 -0.00572066 7.91257e-20)
(1.81517 -0.959913 0)
(1.77514 -1.12196 7.76621e-20)
(1.54605 -0.313375 1.53999e-19)
(0.648654 0.631098 0)
(-0.547517 0.965319 0)
(-1.71041 1.00634 0)
(-2.84158 0.972674 0)
(-3.8938 0.900164 0)
(-4.85448 0.813223 1.46538e-19)
(-5.72238 0.724698 1.45701e-19)
(-6.5021 0.641512 1.44938e-19)
(-7.20143 0.566884 0)
(-7.82909 0.501656 -1.4351e-19)
(-8.39355 0.445105 0)
(-8.90214 0.395934 1.42089e-19)
(-9.36101 0.352861 1.41354e-19)
(-9.77505 0.31466 0)
(-10.1479 0.280142 0)
(-10.4823 0.248195 0)
(-10.7797 0.217972 1.38109e-19)
(-11.0411 0.188974 0)
(-11.2669 0.160983 0)
(-11.4575 0.133997 0)
(-11.6132 0.10807 0)
(-11.7345 0.0832753 0)
(-11.8218 0.0597761 0)
(-11.876 0.0377458 0)
(-11.898 0.0174038 0)
(-11.89 -0.00110435 -1.27962e-19)
(-11.8569 -0.0175376 0)
(-11.7986 -0.0323532 0)
(-11.7178 -0.0454071 1.23602e-19)
(-11.6163 -0.0570362 1.22072e-19)
(-11.496 -0.0672261 0)
(-11.3589 -0.0761969 -1.18931e-19)
(-11.2063 -0.0841654 1.17331e-19)
(-11.0396 -0.0913404 0)
(-10.8596 -0.0980265 -1.14101e-19)
(-10.6667 -0.104477 0)
(-10.461 -0.110982 0)
(-10.2417 -0.117801 1.09226e-19)
(-10.008 -0.125172 0)
(-9.75856 -0.133304 -1.05979e-19)
(-9.49149 -0.142355 0)
(-9.20479 -0.15243 1.02739e-19)
(-8.89623 -0.163568 1.01123e-19)
(-8.56351 -0.175738 9.95097e-20)
(-8.20441 -0.188818 1.95804e-19)
(-7.81696 -0.202581 -1.92606e-19)
(-7.39971 -0.216705 0)
(-6.9519 -0.230785 0)
(-6.47365 -0.244344 0)
(-5.96615 -0.256841 -1.80195e-19)
(-5.4316 -0.267734 -1.77254e-19)
(-4.87328 -0.276532 1.74405e-19)
(-4.29553 -0.28276 0)
(-3.70366 -0.286032 -1.69029e-19)
(-3.10379 -0.286074 -1.6652e-19)
(-2.50281 -0.282317 -1.64138e-19)
(-1.9077 -0.274099 0)
(-1.32634 -0.261423 0)
(-0.767875 -0.244446 0)
(-0.236527 -0.224436 -1.55857e-19)
(0.255422 -0.209655 0)
(0.707799 -0.190501 0)
(1.13029 -0.173301 1.50157e-19)
(1.52021 -0.157452 0)
(1.87927 -0.142287 0)
(2.20758 -0.126954 1.44893e-19)
(2.50288 -0.110788 0)
(2.76176 -0.0938223 0)
(2.98181 -0.0768107 -1.3991e-19)
(3.16349 -0.0607623 -1.38292e-19)
(3.31029 -0.0464838 0)
(3.42751 -0.0344518 1.35087e-19)
(3.52088 -0.0248996 0)
(3.59598 -0.0178837 -1.31904e-19)
(3.65809 -0.0132481 0)
(3.71216 -0.0106354 -1.28733e-19)
(3.76253 -0.00954838 -1.27151e-19)
(3.81252 -0.00933329 0)
(3.86391 -0.00926955 0)
(3.91685 -0.00885961 0)
(3.97029 -0.00780848 0)
(4.02233 -0.00584253 0)
(4.07058 -0.00311432 0)
(4.1133 -0.000195509 0)
(4.14947 0.00288918 -1.14632e-19)
(4.17801 0.00622778 1.13098e-19)
(4.19873 0.00902885 0)
(4.21289 0.011199 0)
(4.22021 0.0139447 0)
(4.21968 0.0179809 0)
(4.21027 0.0231433 2.111e-19)
(4.19078 0.0286856 0)
(4.16075 0.0336284 -2.05181e-19)
(4.12079 0.0370944 2.02249e-19)
(4.07261 0.0385593 0)
(4.01876 0.0380363 0)
(3.962 0.0360187 0)
(3.90474 0.0332347 -1.90697e-19)
(3.84863 0.0303615 -1.87848e-19)
(3.79454 0.0278751 0)
(3.74261 0.0260288 -1.82194e-19)
(3.69249 0.0248927 -1.79388e-19)
(3.64359 0.0243948 1.76598e-19)
(3.59524 0.0243446 0)
(3.54699 0.0244652 0)
(3.49868 0.0244545 1.68321e-19)
(3.45054 0.0240658 0)
(3.40317 0.0231691 0)
(3.35735 0.0217591 0)
(3.31389 0.0199366 0)
(3.27348 0.0178626 -1.54832e-19)
(3.23652 0.015705 -1.52177e-19)
(3.20313 0.0136032 0)
(3.1732 0.0116546 -1.46908e-19)
(3.14644 0.00991586 0)
(3.1225 0.00841085 0)
(3.10096 0.00714112 -1.39109e-19)
(3.08146 0.00609546 0)
(3.06362 0.00525396 -1.33979e-19)
(3.04718 0.00459214 0)
(3.03179 0.00408401 0)
(3.01733 0.00370781 -1.26388e-19)
(3.00343 0.00344987 0)
(2.9901 0.00329674 -1.21396e-19)
(2.97679 0.00324473 0)
(2.96381 0.00326686 0)
(2.95016 0.00338609 0)
(2.93669 0.0035488 1.1157e-19)
(2.92156 0.00389778 0)
(2.90649 0.00425316 -1.06734e-19)
(2.88821 0.00507928 0)
(2.86928 0.0057029 0)
(2.84516 0.00757287 0)
(2.81706 0.00840373 0)
(2.78375 0.0127587 0)
(2.73261 0.0132787 0)
(2.68913 0.0244504 0)
(2.57335 0.0225877 1.75711e-19)
(2.53556 0.0557368 0)
(2.21126 0.0456956 0)
(0.0122736 1.2084 3.17992e-19)
(0.0751972 0.853037 -3.15915e-19)
(-0.0202748 0.475559 0)
(0.243069 -0.0517782 2.07528e-19)
(0.71971 -0.759884 0)
(1.35637 -1.36219 1.01553e-19)
(2.04573 -1.7642 -2.01407e-19)
(2.7228 -1.96651 -1.99538e-19)
(3.3567 -2.0047 0)
(3.93578 -1.91804 -1.96332e-19)
(4.45017 -1.74473 -9.70015e-20)
(4.89485 -1.5171 0)
(5.26594 -1.25723 0)
(5.56493 -0.978721 0)
(5.79082 -0.690327 0)
(5.9474 -0.394186 -9.38867e-20)
(6.03238 -0.0957016 0)
(6.05026 0.207093 1.8587e-19)
(5.99757 0.507594 0)
(5.86184 0.806918 0)
(5.64157 1.09869 -1.81062e-19)
(5.3449 1.36948 0)
(4.9501 1.6183 1.7784e-19)
(4.50385 1.78245 -8.78383e-20)
(3.93805 1.9016 8.71965e-20)
(3.35452 1.79402 -8.66664e-20)
(2.72597 1.54083 -8.61733e-20)
(2.00247 1.06699 0)
(1.40903 0.444144 0)
(1.17589 -0.0155163 8.44831e-20)
(1.06012 -0.419968 -8.36135e-20)
(1.19656 -1.10381 0)
(1.53853 -1.63682 0)
(1.9895 -1.39838 8.11292e-20)
(1.96402 -1.56327 0)
(1.69361 -1.27052 0)
(1.30451 -0.00267461 -7.92598e-20)
(-0.0459399 1.10854 0)
(-1.54646 1.68985 7.79051e-20)
(-2.71731 2.12145 -1.53502e-19)
(-3.76357 2.41007 0)
(-4.67666 2.46068 0)
(-5.48909 2.37271 -2.98461e-19)
(-6.21737 2.20874 -2.96206e-19)
(-6.86897 2.01208 -2.94276e-19)
(-7.44866 1.80737 1.47099e-19)
(-7.96563 1.61127 -1.44798e-19)
(-8.42814 1.43203 -4.33801e-19)
(-8.84456 1.27296 2.88261e-19)
(-9.22164 1.13383 1.42955e-19)
(-9.56493 1.0125 0)
(-9.87856 0.906078 -1.41697e-19)
(-10.1655 0.811609 1.41707e-19)
(-10.4277 0.726277 0)
(-10.6662 0.647612 0)
(-10.8814 0.573583 0)
(-11.0735 0.502646 -1.37974e-19)
(-11.2423 0.433749 0)
(-11.3874 0.366337 2.72791e-19)
(-11.5085 0.300269 0)
(-11.605 0.235623 2.68705e-19)
(-11.6766 0.172647 0)
(-11.7231 0.111798 -2.64136e-19)
(-11.745 0.0536507 0)
(-11.7426 -0.00125428 2.59059e-19)
(-11.7161 -0.0524857 -1.28311e-19)
(-11.6635 -0.099372 0)
(-11.5878 -0.141941 -2.5052e-19)
(-11.4902 -0.180085 -1.23635e-19)
(-11.3723 -0.214047 -1.22103e-19)
(-11.2361 -0.24408 0)
(-11.0831 -0.270633 -1.19118e-19)
(-10.9149 -0.294299 -1.17361e-19)
(-10.7327 -0.315743 0)
(-10.5373 -0.335741 1.1413e-19)
(-10.3294 -0.355081 -2.2512e-19)
(-10.1088 -0.374563 0)
(-9.87528 -0.39495 -1.09255e-19)
(-9.62805 -0.41694 0)
(-9.36589 -0.44114 3.18132e-19)
(-9.08723 -0.468035 0)
(-8.79019 -0.497948 -3.08417e-19)
(-8.47268 -0.531009 -1.01143e-19)
(-8.13243 -0.567124 9.96734e-20)
(-7.7672 -0.605926 1.96137e-19)
(-7.37495 -0.646721 -1.9294e-19)
(-6.95414 -0.688496 0)
(-6.50389 -0.729995 0)
(-6.02423 -0.769763 0)
(-5.5163 -0.806183 5.4087e-19)
(-4.98232 -0.837643 1.77235e-19)
(-4.42553 -0.862742 -1.74381e-19)
(-3.85027 -0.880258 0)
(-3.26209 -0.889288 -1.69301e-19)
(-2.66712 -0.889419 1.66486e-19)
(-2.07238 -0.879107 1.64104e-19)
(-1.48555 -0.855678 0)
(-0.914296 -0.81869 0)
(-0.36933 -0.769271 0)
(0.141115 -0.716871 1.55752e-19)
(0.612462 -0.664431 0)
(1.04959 -0.608098 -3.03857e-19)
(1.45871 -0.555527 -4.5018e-19)
(1.84202 -0.507291 2.96594e-19)
(2.20095 -0.46191 0)
(2.53427 -0.416183 1.44889e-19)
(2.8379 -0.36711 0)
(3.10631 -0.314599 2.82964e-19)
(3.33502 -0.261972 -1.3988e-19)
(3.52278 -0.213662 -1.38259e-19)
(3.67208 -0.172609 0)
(3.7882 -0.139499 -4.05076e-19)
(3.87793 -0.113675 2.66884e-19)
(3.94836 -0.0943403 1.3184e-19)
(4.00613 -0.0810361 0)
(4.05709 -0.0733478 1.28676e-19)
(4.10611 -0.0704128 3.81305e-19)
(4.15685 -0.070724 0)
(4.21151 -0.0723918 2.47889e-19)
(4.27079 -0.07367 2.44737e-19)
(4.33384 -0.0732925 2.41594e-19)
(4.39882 -0.070577 0)
(4.46385 -0.0655704 0)
(4.52694 -0.0588587 0)
(4.58605 -0.0509793 -1.14581e-19)
(4.64043 -0.0425376 -1.13038e-19)
(4.69007 -0.0344685 0)
(4.7342 -0.0270397 -2.1999e-19)
(4.77385 -0.019665 -2.16966e-19)
(4.81105 -0.0120643 0)
(4.84687 -0.00420821 -2.10956e-19)
(4.88133 0.00416537 -4.15969e-19)
(4.91344 0.0129553 2.05015e-19)
(4.94142 0.0214762 2.02081e-19)
(4.96312 0.0289483 0)
(4.9769 0.0347371 0)
(4.98218 0.038502 0)
(4.97957 0.0403229 1.90477e-19)
(4.97055 0.0405772 -1.87627e-19)
(4.95702 0.0397872 -3.69574e-19)
(4.94084 0.0384829 1.81964e-19)
(4.92356 0.0370982 -1.7916e-19)
(4.90628 0.0359047 -1.76367e-19)
(4.88972 0.0349923 0)
(4.87426 0.0342969 0)
(4.86008 0.0336558 1.68091e-19)
(4.84727 0.0328604 0)
(4.83593 0.0317195 0)
(4.82611 0.0301362 -3.19903e-19)
(4.81789 0.0281293 0)
(4.81133 0.0258208 -1.546e-19)
(4.80639 0.0233875 1.51948e-19)
(4.80294 0.0210013 0)
(4.8007 0.0187927 -1.46682e-19)
(4.79934 0.0168374 0)
(4.79847 0.0151601 0)
(4.79773 0.0137486 1.38893e-19)
(4.79684 0.012571 -2.72647e-19)
(4.79555 0.011591 1.3377e-19)
(4.79375 0.0107737 0)
(4.79137 0.0100972 0)
(4.78843 0.00953926 -1.26191e-19)
(4.78488 0.00910594 0)
(4.78083 0.00877638 -1.21208e-19)
(4.77618 0.0085992 0)
(4.77106 0.00851026 0)
(4.76523 0.00865258 0)
(4.75884 0.0088247 -1.114e-19)
(4.75148 0.00945466 0)
(4.74316 0.00996019 1.06571e-19)
(4.73354 0.0115568 0)
(4.72175 0.0125092 0)
(4.70883 0.0161748 -1.9884e-19)
(4.6899 0.0175494 1.94119e-19)
(4.67266 0.0259108 0)
(4.63733 0.0273025 0)
(4.61672 0.0473461 0)
(4.54 0.0480357 -5.26354e-19)
(4.52631 0.100351 0)
(4.33994 0.10362 3.32704e-19)
(0.0828951 0.669332 5.98615e-23)
(0.159386 0.633508 4.21089e-19)
(0.583044 -0.200094 0)
(1.34122 -1.39697 -4.1302e-19)
(2.16066 -2.40485 0)
(2.90819 -3.06169 0)
(3.54302 -3.38148 -8.02177e-22)
(4.0658 -3.42861 1.98395e-19)
(4.49315 -3.27816 1.98059e-19)
(4.8401 -2.99965 1.95574e-19)
(5.12059 -2.64815 0)
(5.34934 -2.26137 0)
(5.5384 -1.86055 -1.93392e-19)
(5.69508 -1.456 -3.84478e-19)
(5.82076 -1.04976 3.82106e-19)
(5.91237 -0.642626 0)
(5.96631 -0.234851 3.77059e-19)
(5.97626 0.173964 -1.85884e-19)
(5.94672 0.576955 0)
(5.87615 0.980868 3.67369e-19)
(5.77328 1.36973 1.80865e-19)
(5.62235 1.75759 -3.60381e-19)
(5.43749 2.10325 -1.77436e-19)
(5.19027 2.40347 0)
(4.88888 2.60222 3.49884e-19)
(4.51481 2.64749 3.4662e-19)
(4.06605 2.49435 0)
(3.54026 2.0785 3.40617e-19)
(3.00909 1.58339 0)
(2.56958 0.566541 3.35382e-19)
(2.09954 -0.15466 1.66931e-19)
(2.22463 -0.91021 0)
(2.00481 -1.88633 0)
(1.34706 -1.16813 0)
(0.0450527 0.784013 0)
(-1.38336 1.7847 0)
(-2.42104 2.50801 0)
(-3.45458 2.98573 3.12518e-19)
(-4.32539 3.25699 -4.63606e-19)
(-5.06578 3.44205 0)
(-5.66227 3.50174 0)
(-6.12907 3.40977 0)
(-6.51856 3.21597 -1.99931e-21)
(-6.85566 2.96018 2.95449e-19)
(-7.1659 2.68408 5.89537e-19)
(-7.46103 2.41214 -5.86438e-19)
(-7.74919 2.15982 -2.92606e-19)
(-8.03338 1.93378 2.89641e-19)
(-8.31433 1.73523 1.30861e-21)
(-8.59115 1.562 2.88238e-19)
(-8.86221 1.41029 0)
(-9.12557 1.27582 2.85347e-19)
(-9.37918 1.15449 8.32886e-22)
(-9.62086 1.04259 0)
(-9.84834 0.93701 0)
(-10.0594 0.835357 -2.79153e-19)
(-10.252 0.735924 0)
(-10.4241 0.637658 0)
(-10.5738 0.539984 2.74401e-19)
(-10.6993 0.442716 5.43567e-19)
(-10.7994 0.346068 -2.69079e-19)
(-10.8727 0.25064 0)
(-10.9185 0.15721 2.64524e-19)
(-10.9367 0.0665752 0)
(-10.9275 -0.020331 2.60448e-19)
(-10.8914 -0.102306 2.56676e-19)
(-10.8296 -0.178702 -5.08493e-19)
(-10.7437 -0.248566 -2.51647e-19)
(-10.6356 -0.311763 0)
(-10.5071 -0.368166 4.90079e-19)
(-10.3603 -0.418177 0)
(-10.1971 -0.462416 7.15615e-19)
(-10.0192 -0.501734 4.70731e-19)
(-9.82829 -0.537216 4.64194e-19)
(-9.62555 -0.570029 -4.57645e-19)
(-9.41187 -0.601432 6.76484e-19)
(-9.18772 -0.632687 0)
(-8.9531 -0.66502 0)
(-8.70755 -0.699584 -4.31539e-19)
(-8.45006 -0.737415 -6.37402e-19)
(-8.17912 -0.779395 0)
(-7.89275 -0.826187 2.05853e-19)
(-7.58855 -0.878143 0)
(-7.26382 -0.935242 -5.98542e-19)
(-6.91572 -0.997008 4.62399e-22)
(-6.54161 -1.06238 -4.75424e-22)
(-6.13949 -1.12968 3.79922e-19)
(-5.70822 -1.19676 0)
(-5.24776 -1.26117 -3.67396e-19)
(-4.75928 -1.32022 4.91845e-22)
(-4.24524 -1.37111 0)
(-3.70875 -1.41151 0)
(-3.15348 -1.43949 0)
(-2.58418 -1.45331 3.38342e-19)
(-2.0054 -1.45241 0)
(-1.42282 -1.43403 0)
(-0.844518 -1.3923 0)
(-0.28048 -1.32611 0)
(0.248385 -1.24445 0)
(0.726296 -1.15506 3.11522e-19)
(1.14925 -1.06579 0)
(1.51976 -0.980851 3.03481e-19)
(1.85475 -0.903055 2.99846e-19)
(2.17393 -0.831861 -2.96309e-19)
(2.49046 -0.763981 0)
(2.8042 -0.69367 -2.89425e-19)
(3.10287 -0.615547 0)
(3.37157 -0.528551 -2.82765e-19)
(3.60195 -0.437394 2.79513e-19)
(3.7936 -0.349641 8.29095e-19)
(3.94938 -0.27182 0)
(4.07126 -0.20782 8.09927e-19)
(4.16042 -0.159069 2.66882e-19)
(4.22019 -0.125083 0)
(4.25768 -0.104166 5.20974e-19)
(4.28231 -0.0941099 5.14654e-19)
(4.30302 -0.0924254 -7.62473e-19)
(4.32619 -0.0961884 0)
(4.35518 -0.102198 -2.47832e-19)
(4.39067 -0.107502 -2.44686e-19)
(4.43159 -0.109904 -7.24691e-19)
(4.47613 -0.108382 0)
(4.52248 -0.10305 0)
(4.56899 -0.0945769 0)
(4.61428 -0.0839746 -2.29162e-19)
(4.65746 -0.0725897 0)
(4.69804 -0.0614734 0)
(4.736 -0.0512132 2.1998e-19)
(4.77186 -0.0421283 2.16959e-19)
(4.80654 -0.0340067 0)
(4.84109 -0.0261107 0)
(4.87645 -0.0174304 4.15972e-19)
(4.91251 -0.00745472 0)
(4.94778 0.00359674 -4.04158e-19)
(4.97982 0.0149825 -3.98307e-19)
(5.00572 0.0256115 0)
(5.02317 0.0344263 0)
(5.03137 0.0408091 3.8094e-19)
(5.03111 0.0446725 -5.25184e-24)
(5.02441 0.04637 -4.36792e-24)
(5.01383 0.0464816 0)
(5.0017 0.0456139 7.16563e-19)
(4.98984 0.0442614 0)
(4.97935 0.0427335 0)
(4.97082 0.041138 0)
(4.96442 0.0394127 -3.36138e-19)
(4.96009 0.0373833 0)
(4.95769 0.0348528 6.50508e-19)
(4.95709 0.0317298 3.19857e-19)
(4.95822 0.0280885 0)
(4.96102 0.0241352 3.09153e-19)
(4.96544 0.0201508 0)
(4.97135 0.0164186 0)
(4.97851 0.0131615 8.79936e-19)
(4.98657 0.0105122 -5.76176e-19)
(4.99514 0.00850673 0)
(5.0038 0.00710262 -5.55454e-19)
(5.01215 0.00620453 2.72591e-19)
(5.01992 0.00570078 0)
(5.0269 0.00547618 0)
(5.03299 0.00544737 0)
(5.03816 0.00553786 7.56969e-19)
(5.04246 0.00573713 0)
(5.0459 0.00599743 2.42356e-19)
(5.04861 0.00639244 0)
(5.05051 0.00683112 0)
(5.05181 0.00752507 0)
(5.05217 0.00821464 0)
(5.05201 0.00946686 0)
(5.05043 0.0105715 0)
(5.04851 0.0130013 4.16594e-19)
(5.04405 0.0147936 0)
(5.03987 0.0196968 1.98782e-19)
(5.03059 0.0224935 -5.82195e-19)
(5.02351 0.0327497 0)
(5.00545 0.0371082 0)
(4.99514 0.0598381 3.6008e-19)
(4.96087 0.0682157 3.50787e-19)
(4.94971 0.122169 -3.41647e-19)
(4.89202 0.146819 -3.32546e-19)
(-0.195253 0.522455 -6.36697e-19)
(0.359535 -0.387027 -6.31279e-19)
(1.34588 -2.15524 -4.16208e-19)
(2.27647 -3.45307 -2.06397e-19)
(3.01829 -4.166 0)
(3.55078 -4.41504 4.05411e-19)
(3.90352 -4.33982 -2.02459e-19)
(4.12156 -4.04702 0)
(4.24472 -3.62765 -1.98091e-19)
(4.31454 -3.15934 0)
(4.37095 -2.69374 3.94318e-19)
(4.44072 -2.25161 0)
(4.53117 -1.83151 1.93872e-19)
(4.63588 -1.42092 3.85496e-19)
(4.73881 -1.00827 -3.8316e-19)
(4.82575 -0.586404 0)
(4.87999 -0.1525 -3.78125e-19)
(4.89763 0.289115 0)
(4.87766 0.736981 0)
(4.83309 1.17671 -3.68041e-19)
(4.77256 1.6094 0)
(4.69881 2.01752 -1.89987e-21)
(4.62209 2.41434 0)
(4.51807 2.77562 0)
(4.39143 3.02215 1.39519e-21)
(4.13421 3.22559 -3.46631e-19)
(3.90078 3.11919 -3.43985e-19)
(3.39493 2.91382 -3.40359e-19)
(3.04101 2.20781 0)
(2.36681 1.65728 -6.69559e-19)
(1.87365 0.179024 0)
(1.6938 -1.13437 -3.29511e-19)
(0.293481 0.290683 0)
(-1.21465 1.72197 0)
(-2.36719 2.63335 3.20727e-19)
(-3.37387 3.26678 0)
(-4.16555 3.76652 -3.14557e-19)
(-4.81879 4.04558 8.16991e-22)
(-5.30534 4.16743 6.17592e-19)
(-5.681 4.15775 -6.14153e-19)
(-5.95969 4.0468 0)
(-6.17858 3.84622 0)
(-6.36775 3.59371 -3.02843e-19)
(-6.54674 3.31551 0)
(-6.73137 3.03562 -2.9587e-19)
(-6.92818 2.76904 2.9431e-19)
(-7.13993 2.52387 2.9282e-19)
(-7.36553 2.30327 0)
(-7.60223 2.10644 -2.8995e-19)
(-7.84629 1.93061 -2.88532e-19)
(-8.09378 1.77194 5.76344e-19)
(-8.34071 1.62639 -2.85663e-19)
(-8.5833 1.49008 -2.84191e-19)
(-8.81795 1.35959 0)
(-9.04135 1.23206 0)
(-9.25042 1.10537 2.79494e-19)
(-9.44224 0.978061 0)
(-9.61411 0.849332 0)
(-9.76367 0.718894 -5.48274e-19)
(-9.88872 0.58701 -5.44304e-19)
(-9.98729 0.454475 0)
(-10.058 0.322405 0)
(-10.1002 0.192172 0)
(-10.1136 0.0654752 0)
(-10.0974 -0.0560966 -5.20657e-19)
(-10.0526 -0.171233 5.1627e-19)
(-9.9807 -0.278535 5.09203e-19)
(-9.88328 -0.37702 1.00741e-18)
(-9.76266 -0.465936 0)
(-9.62119 -0.545097 8.20125e-22)
(-9.46145 -0.614769 0)
(-9.28598 -0.675686 -4.7785e-19)
(-9.09721 -0.728972 5.52072e-22)
(-8.89734 -0.776039 -4.64776e-19)
(-8.6882 -0.818518 4.58212e-19)
(-8.47117 -0.85817 4.11776e-22)
(-8.24708 -0.896828 0)
(-8.01612 -0.93634 4.38951e-19)
(-7.77772 -0.978529 4.32027e-19)
(-7.53053 -1.02515 8.5146e-19)
(-7.27239 -1.07779 0)
(-7.0004 -1.1378 -4.13003e-19)
(-6.71117 -1.20605 0)
(-6.40104 -1.28278 7.99588e-19)
(-6.06646 -1.36742 -3.93035e-19)
(-5.70444 -1.45837 3.86578e-19)
(-5.31342 -1.55288 -3.80166e-19)
(-4.89368 -1.64744 -7.4886e-19)
(-4.44708 -1.73827 3.67582e-19)
(-3.97694 -1.82144 -3.61469e-19)
(-3.48796 -1.89314 0)
(-2.98483 -1.95077 7.00761e-19)
(-2.47066 -1.99264 0)
(-1.94771 -2.01643 6.79023e-19)
(-1.41354 -2.02166 -6.68832e-19)
(-0.866355 -2.00214 -6.59101e-19)
(-0.305526 -1.94819 6.49858e-19)
(0.259153 -1.85152 6.4062e-19)
(0.809175 -1.71855 0)
(1.32269 -1.55774 3.11849e-19)
(1.7717 -1.39497 0)
(2.12844 -1.25618 0)