/*--------------------------------*- C++ -*----------------------------------*\
  =========                 |
  \\      /  F ield         | OpenFOAM: The Open Source CFD Toolbox
   \\    /   O peration     | Website:  https://openfoam.org
    \\  /    A nd           | Version:  9
     \\/     M anipulation  |
\*---------------------------------------------------------------------------*/
FoamFile
{
    format      ascii;
    class       volSymmTensorField;
    location    "0.032";
    object      UPrime2Mean;
}
// * * * * * * * * * * * * * * * * * * * * * * * * * * * * * * * * * * * * * //

dimensions      [0 2 -2 0 0 0 0];

internalField   nonuniform List<symmTensor> 
12225
(
(-48.4625 -0.231221 0 0.00122487 0 0)
(-45.4728 -0.307266 0 -0.00102063 0 0)
(-42.5376 -0.29006 0 -0.00125359 0 0)
(-39.6697 -0.275281 0 -0.00134404 0 0)
(-36.9312 -0.263501 0 -0.00140878 0 0)
(-34.3591 -0.249916 0 -0.0014179 0 0)
(-31.9286 -0.238153 0 -0.00141778 0 0)
(-29.6355 -0.227959 0 -0.00142642 0 0)
(-27.4166 -0.222259 0 -0.00145834 0 0)
(-25.3072 -0.215088 0 -0.00150564 0 0)
(-23.2082 -0.215251 0 -0.00156408 0 0)
(-21.2285 -0.209632 0 -0.00167668 0 0)
(-19.151 -0.222897 0 -0.00176073 0 0)
(-17.2182 -0.216957 0 -0.0020506 0 0)
(-14.9926 -0.259776 0 -0.00200845 0 0)
(-12.9755 -0.24207 0 -0.00272295 0 0)
(-10.3512 -0.368254 0 -0.00109464 0 0)
(-7.96695 -0.331707 0 -0.00487277 0 0)
(-50.1826 -0.264069 0 0.0016717 0 0)
(-50.7129 -0.385567 0 -0.00148085 0 0)
(-51.0079 -0.377834 0 -0.00194892 0 0)
(-51.0566 -0.384442 0 -0.00225475 0 0)
(-50.9216 -0.407171 0 -0.00270179 0 0)
(-50.6544 -0.431344 0 -0.00315522 0 0)
(-50.2733 -0.451668 0 -0.00355321 0 0)
(-49.8068 -0.47577 0 -0.00398457 0 0)
(-49.2357 -0.499705 0 -0.00445726 0 0)
(-48.5797 -0.532777 0 -0.00501589 0 0)
(-47.7857 -0.563003 0 -0.0056499 0 0)
(-46.903 -0.610165 0 -0.00638722 0 0)
(-45.8277 -0.654795 0 -0.00741121 0 0)
(-44.6682 -0.733093 0 -0.00852613 0 0)
(-43.213 -0.815491 0 -0.0106453 0 0)
(-41.67 -0.956725 0 -0.0123921 0 0)
(-39.6637 -1.14828 0 -0.0172011 0 0)
(-37.5455 -1.45632 0 -0.0174085 0 0)
(-49.8293 -0.197822 0 0.0025531 0 0)
(-50.1307 -0.310039 0 -0.000165332 0 0)
(-50.3426 -0.324049 0 -0.000912559 0 0)
(-50.4489 -0.341247 0 -0.00131413 0 0)
(-50.4963 -0.373081 0 -0.00181545 0 0)
(-50.508 -0.404147 0 -0.00232206 0 0)
(-50.477 -0.43239 0 -0.00279353 0 0)
(-50.3992 -0.46174 0 -0.00329244 0 0)
(-50.2662 -0.498119 0 -0.0038278 0 0)
(-50.0827 -0.541167 0 -0.0045186 0 0)
(-49.842 -0.596848 0 -0.00526779 0 0)
(-49.546 -0.661609 0 -0.00635818 0 0)
(-49.1805 -0.74987 0 -0.00748271 0 0)
(-48.7393 -0.853696 0 -0.00941267 0 0)
(-48.2137 -1.00495 0 -0.0113157 0 0)
(-47.5901 -1.19326 0 -0.0148432 0 0)
(-46.9101 -1.4859 0 -0.0180516 0 0)
(-46.1769 -1.88409 0 -0.0195057 0 0)
(-50.0055 -0.13611 0 0.00318039 0 0)
(-50.1698 -0.300748 0 0.000364841 0 0)
(-50.3214 -0.329148 0 -0.000670125 0 0)
(-50.4171 -0.34197 0 -0.00115501 0 0)
(-50.457 -0.372555 0 -0.00170112 0 0)
(-50.4509 -0.412794 0 -0.00232429 0 0)
(-50.4006 -0.454263 0 -0.00297046 0 0)
(-50.3022 -0.498773 0 -0.00365195 0 0)
(-50.1532 -0.546525 0 -0.00439915 0 0)
(-49.9542 -0.601562 0 -0.00521695 0 0)
(-49.7105 -0.663627 0 -0.00617266 0 0)
(-49.4257 -0.74013 0 -0.00728074 0 0)
(-49.1026 -0.834439 0 -0.00871802 0 0)
(-48.7402 -0.957698 0 -0.0104835 0 0)
(-48.3379 -1.11955 0 -0.0128579 0 0)
(-47.9085 -1.33619 0 -0.0156885 0 0)
(-47.4727 -1.62864 0 -0.0182411 0 0)
(-47.1054 -2.00606 0 -0.0187077 0 0)
(-49.875 -0.164061 0 0.0033079 0 0)
(-50.0012 -0.296316 0 0.000616132 0 0)
(-50.1333 -0.332063 0 -0.000678384 0 0)
(-50.1965 -0.34948 0 -0.00118582 0 0)
(-50.1872 -0.38074 0 -0.00166584 0 0)
(-50.1349 -0.421577 0 -0.00222953 0 0)
(-50.0589 -0.465429 0 -0.00282709 0 0)
(-49.9623 -0.512703 0 -0.00347788 0 0)
(-49.8365 -0.566648 0 -0.00420172 0 0)
(-49.6735 -0.628944 0 -0.00504493 0 0)
(-49.4665 -0.701848 0 -0.00598893 0 0)
(-49.2163 -0.788448 0 -0.00711373 0 0)
(-48.9205 -0.894942 0 -0.00842612 0 0)
(-48.5873 -1.02943 0 -0.0100256 0 0)
(-48.2165 -1.20174 0 -0.0119147 0 0)
(-47.8359 -1.42577 0 -0.0137095 0 0)
(-47.4567 -1.70667 0 -0.0148025 0 0)
(-47.1445 -2.05136 0 -0.0119059 0 0)
(-49.9486 -0.118346 0 0.00462913 0 0)
(-50.0524 -0.247154 0 0.00175652 0 0)
(-50.152 -0.308009 0 0.000173219 0 0)
(-50.2153 -0.338392 0 -0.000591271 0 0)
(-50.2252 -0.373141 0 -0.00124876 0 0)
(-50.1853 -0.419391 0 -0.00194212 0 0)
(-50.1091 -0.472024 0 -0.00266589 0 0)
(-50.0076 -0.529288 0 -0.00343443 0 0)
(-49.881 -0.592507 0 -0.00427005 0 0)
(-49.7251 -0.664228 0 -0.00519187 0 0)
(-49.5313 -0.74696 0 -0.00620916 0 0)
(-49.2986 -0.845011 0 -0.00735934 0 0)
(-49.022 -0.96401 0 -0.00865574 0 0)
(-48.7118 -1.11175 0 -0.0101254 0 0)
(-48.3689 -1.29545 0 -0.0116318 0 0)
(-48.0233 -1.5239 0 -0.0127657 0 0)
(-47.6808 -1.79747 0 -0.0124877 0 0)
(-47.3981 -2.11749 0 -0.00854546 0 0)
(-49.3952 -0.129886 0 0.00437608 0 0)
(-49.4714 -0.246027 0 0.00214046 0 0)
(-49.5393 -0.308953 0 0.00048083 0 0)
(-49.5904 -0.347357 0 -0.000390779 0 0)
(-49.5925 -0.389324 0 -0.001024 0 0)
(-49.5377 -0.439779 0 -0.00167996 0 0)
(-49.4413 -0.495094 0 -0.00238243 0 0)
(-49.3212 -0.555195 0 -0.00311689 0 0)
(-49.1837 -0.62287 0 -0.00389912 0 0)
(-49.0288 -0.701713 0 -0.00475708 0 0)
(-48.8501 -0.794148 0 -0.00570293 0 0)
(-48.6464 -0.903796 0 -0.00673182 0 0)
(-48.4124 -1.03417 0 -0.00782245 0 0)
(-48.1559 -1.19183 0 -0.00888995 0 0)
(-47.877 -1.38097 0 -0.00974994 0 0)
(-47.5998 -1.60837 0 -0.00986921 0 0)
(-47.3275 -1.87194 0 -0.00832542 0 0)
(-47.1033 -2.17242 0 -0.00361902 0 0)
(-50.0495 -0.100469 0 0.00551913 0 0)
(-50.0513 -0.22541 0 0.00306439 0 0)
(-50.0617 -0.294499 0 0.00125999 0 0)
(-50.0817 -0.342312 0 0.000272324 0 0)
(-50.0803 -0.390275 0 -0.000463276 0 0)
(-50.0385 -0.446561 0 -0.00115642 0 0)
(-49.9577 -0.51075 0 -0.00190858 0 0)
(-49.8456 -0.580374 0 -0.00272734 0 0)
(-49.7059 -0.655332 0 -0.00358784 0 0)
(-49.5407 -0.738947 0 -0.00448571 0 0)
(-49.3514 -0.835647 0 -0.00542275 0 0)
(-49.1406 -0.950803 0 -0.00638601 0 0)
(-48.9095 -1.08875 0 -0.00733399 0 0)
(-48.6625 -1.25481 0 -0.00814786 0 0)
(-48.4044 -1.45155 0 -0.00860216 0 0)
(-48.1464 -1.68205 0 -0.00816348 0 0)
(-47.8996 -1.94334 0 -0.00608561 0 0)
(-47.6815 -2.2332 0 -0.00124355 0 0)
(-49.5342 -0.104334 0 0.00496932 0 0)
(-49.5719 -0.216652 0 0.00254151 0 0)
(-49.6045 -0.293538 0 0.000904568 0 0)
(-49.6442 -0.351619 0 -4.53622e-05 0 0)
(-49.655 -0.404292 0 -0.000748743 0 0)
(-49.6197 -0.46254 0 -0.00144878 0 0)
(-49.5498 -0.529921 0 -0.00219795 0 0)
(-49.4619 -0.605859 0 -0.0029801 0 0)
(-49.3592 -0.690143 0 -0.0037672 0 0)
(-49.2346 -0.784763 0 -0.0045484 0 0)
(-49.08 -0.89245 0 -0.00531752 0 0)
(-48.8936 -1.01707 0 -0.00604239 0 0)
(-48.6803 -1.16195 0 -0.00664245 0 0)
(-48.4521 -1.33144 0 -0.00694832 0 0)
(-48.2229 -1.52758 0 -0.0066925 0 0)
(-48.0106 -1.75311 0 -0.00542214 0 0)
(-47.8239 -2.00504 0 -0.00254531 0 0)
(-47.6803 -2.28244 0 0.00265113 0 0)
(-49.8324 -0.118793 0 0.00569365 0 0)
(-49.8284 -0.190112 0 0.00335447 0 0)
(-49.84 -0.275713 0 0.00164788 0 0)
(-49.8789 -0.345455 0 0.000712465 0 0)
(-49.9137 -0.40552 0 1.71823e-06 0 0)
(-49.9114 -0.469715 0 -0.000716286 0 0)
(-49.8655 -0.541995 0 -0.00147886 0 0)
(-49.788 -0.621636 0 -0.00225067 0 0)
(-49.6898 -0.70958 0 -0.00300895 0 0)
(-49.574 -0.809711 0 -0.00375816 0 0)
(-49.4394 -0.925952 0 -0.00450428 0 0)
(-49.2845 -1.06116 0 -0.0052027 0 0)
(-49.1111 -1.21628 0 -0.00572336 0 0)
(-48.9248 -1.39249 0 -0.00584709 0 0)
(-48.7358 -1.58972 0 -0.00528197 0 0)
(-48.555 -1.80976 0 -0.00363675 0 0)
(-48.3964 -2.05036 0 -0.000431725 0 0)
(-48.2664 -2.31237 0 0.00473248 0 0)
(-49.5206 -0.102808 0 0.00567422 0 0)
(-49.5701 -0.194325 0 0.00398288 0 0)
(-49.605 -0.276573 0 0.00199003 0 0)
(-49.6437 -0.343295 0 0.000641907 0 0)
(-49.6742 -0.406531 0 -0.000183099 0 0)
(-49.6805 -0.477641 0 -0.000807165 0 0)
(-49.6563 -0.559411 0 -0.00148138 0 0)
(-49.6034 -0.649675 0 -0.00220303 0 0)
(-49.526 -0.747355 0 -0.00288844 0 0)
(-49.4303 -0.854816 0 -0.00348645 0 0)
(-49.3228 -0.975743 0 -0.00395676 0 0)
(-49.2094 -1.1138 0 -0.00425013 0 0)
(-49.0932 -1.2707 0 -0.00426231 0 0)
(-48.9769 -1.44791 0 -0.00382382 0 0)
(-48.8625 -1.64472 0 -0.00268758 0 0)
(-48.7559 -1.86186 0 -0.000532454 0 0)
(-48.6628 -2.0966 0 0.00299789 0 0)
(-48.5904 -2.34919 0 0.00818945 0 0)
(-50.0016 -0.0997582 0 0.00596536 0 0)
(-50.0477 -0.189167 0 0.00402753 0 0)
(-50.0823 -0.260218 0 0.00220877 0 0)
(-50.1124 -0.330733 0 0.00101181 0 0)
(-50.1198 -0.4027 0 0.00020575 0 0)
(-50.0951 -0.478815 0 -0.000431365 0 0)
(-50.0441 -0.562633 0 -0.0010979 0 0)
(-49.9783 -0.655442 0 -0.00180789 0 0)
(-49.9051 -0.757123 0 -0.0024694 0 0)
(-49.826 -0.869006 0 -0.00300008 0 0)
(-49.7408 -0.993823 0 -0.00334323 0 0)
(-49.6496 -1.1351 0 -0.00345347 0 0)
(-49.5543 -1.29448 0 -0.00323857 0 0)
(-49.457 -1.47316 0 -0.0025512 0 0)
(-49.3623 -1.66963 0 -0.00117828 0 0)
(-49.2739 -1.88404 0 0.00115798 0 0)
(-49.2001 -2.1131 0 0.0047318 0 0)
(-49.1429 -2.35754 0 0.0097012 0 0)
(-50.1748 -0.0681198 0 0.00739787 0 0)
(-50.1636 -0.177896 0 0.00496017 0 0)
(-50.1609 -0.258956 0 0.00252363 0 0)
(-50.1718 -0.335395 0 0.00137788 0 0)
(-50.1777 -0.414647 0 0.000692631 0 0)
(-50.1668 -0.498541 0 9.23919e-05 0 0)
(-50.1349 -0.588578 0 -0.000533606 0 0)
(-50.0836 -0.685275 0 -0.00113631 0 0)
(-50.0172 -0.789129 0 -0.00163795 0 0)
(-49.9407 -0.902611 0 -0.00197339 0 0)
(-49.8585 -1.02896 0 -0.00207776 0 0)
(-49.7746 -1.17163 0 -0.00189051 0 0)
(-49.6931 -1.33177 0 -0.00132669 0 0)
(-49.6174 -1.51036 0 -0.000271695 0 0)
(-49.5519 -1.70544 0 0.00145164 0 0)
(-49.4991 -1.91694 0 0.00405559 0 0)
(-49.464 -2.14086 0 0.00774144 0 0)
(-49.4489 -2.37797 0 0.0126269 0 0)
(-50.0913 -0.124242 0 0.00892705 0 0)
(-50.1261 -0.186485 0 0.00660339 0 0)
(-50.1557 -0.258251 0 0.00476563 0 0)
(-50.1872 -0.333096 0 0.00362615 0 0)
(-50.2066 -0.410329 0 0.00274291 0 0)
(-50.2146 -0.493265 0 0.0020508 0 0)
(-50.2145 -0.586002 0 0.00140001 0 0)
(-50.2046 -0.688712 0 0.0007726 0 0)
(-50.1834 -0.799585 0 0.000282102 0 0)
(-50.1522 -0.919034 0 2.51613e-05 0 0)
(-50.1148 -1.04922 0 6.80967e-05 0 0)
(-50.0751 -1.19305 0 0.000466951 0 0)
(-50.0385 -1.35165 0 0.00129302 0 0)
(-50.0094 -1.52605 0 0.00264408 0 0)
(-49.994 -1.71422 0 0.00462648 0 0)
(-49.9946 -1.91674 0 0.00740772 0 0)
(-50.0167 -2.12894 0 0.0111424 0 0)
(-50.059 -2.35379 0 0.0158094 0 0)
(-49.824 -0.0390346 0 0.0080558 0 0)
(-49.8974 -0.137204 0 0.00627489 0 0)
(-49.9508 -0.230412 0 0.00422688 0 0)
(-49.9949 -0.317058 0 0.00325218 0 0)
(-50.0244 -0.403631 0 0.00260634 0 0)
(-50.0421 -0.494421 0 0.00208893 0 0)
(-50.0526 -0.591318 0 0.00167391 0 0)
(-50.0572 -0.694936 0 0.00137741 0 0)
(-50.0579 -0.805786 0 0.00125178 0 0)
(-50.0588 -0.925703 0 0.00136048 0 0)
(-50.0625 -1.05631 0 0.00177191 0 0)
(-50.0727 -1.1994 0 0.00255539 0 0)
(-50.0904 -1.35493 0 0.00379197 0 0)
(-50.1205 -1.52389 0 0.0055638 0 0)
(-50.1613 -1.70407 0 0.00797093 0 0)
(-50.2196 -1.89669 0 0.0111162 0 0)
(-50.2896 -2.09686 0 0.0151063 0 0)
(-50.3841 -2.30832 0 0.0199288 0 0)
(-50.112 -0.0590386 0 0.0108741 0 0)
(-50.0829 -0.170189 0 0.0094662 0 0)
(-50.0606 -0.242992 0 0.00710508 0 0)
(-50.0684 -0.311426 0 0.00561121 0 0)
(-50.0906 -0.389915 0 0.00472076 0 0)
(-50.1127 -0.481113 0 0.00410618 0 0)
(-50.1316 -0.581962 0 0.00359533 0 0)
(-50.1484 -0.68918 0 0.00324267 0 0)
(-50.1671 -0.801507 0 0.00316144 0 0)
(-50.192 -0.92022 0 0.00341793 0 0)
(-50.2241 -1.0467 0 0.00405252 0 0)
(-50.2646 -1.18332 0 0.00509589 0 0)
(-50.3139 -1.33058 0 0.0065965 0 0)
(-50.376 -1.49044 0 0.0085982 0 0)
(-50.4508 -1.66055 0 0.0111323 0 0)
(-50.5433 -1.84228 0 0.0142932 0 0)
(-50.6497 -2.0295 0 0.018167 0 0)
(-50.7781 -2.22603 0 0.0226967 0 0)
(-50.0256 -0.0697051 0 0.0108551 0 0)
(-50.0113 -0.128962 0 0.00950334 0 0)
(-50.0134 -0.206124 0 0.0064839 0 0)
(-50.0374 -0.295761 0 0.00499808 0 0)
(-50.0617 -0.3867 0 0.00454682 0 0)
(-50.0858 -0.477917 0 0.00454931 0 0)
(-50.1149 -0.570913 0 0.00464702 0 0)
(-50.1545 -0.667854 0 0.0047672 0 0)
(-50.2088 -0.770876 0 0.00501821 0 0)
(-50.2793 -0.881983 0 0.00554355 0 0)
(-50.3617 -1.00163 0 0.00643684 0 0)
(-50.453 -1.13064 0 0.00773733 0 0)
(-50.5512 -1.26783 0 0.00946852 0 0)
(-50.6599 -1.41414 0 0.0116786 0 0)
(-50.7795 -1.56667 0 0.0143934 0 0)
(-50.9168 -1.72792 0 0.0176979 0 0)
(-51.0683 -1.89201 0 0.0216372 0 0)
(-51.2447 -2.06537 0 0.026139 0 0)
(-49.659 -0.101677 0 0.0117715 0 0)
(-49.7252 -0.134777 0 0.0108551 0 0)
(-49.7801 -0.205433 0 0.00818658 0 0)
(-49.8293 -0.28923 0 0.00704355 0 0)
(-49.8915 -0.373895 0 0.00669676 0 0)
(-49.9741 -0.456396 0 0.00660465 0 0)
(-50.0702 -0.537642 0 0.00653436 0 0)
(-50.1745 -0.621117 0 0.00652737 0 0)
(-50.2852 -0.710518 0 0.00676413 0 0)
(-50.4013 -0.808932 0 0.00739241 0 0)
(-50.5207 -0.917293 0 0.00844704 0 0)
(-50.6441 -1.03629 0 0.00988132 0 0)
(-50.7717 -1.16374 0 0.0116508 0 0)
(-50.9079 -1.29887 0 0.0137822 0 0)
(-51.0526 -1.43722 0 0.0162981 0 0)
(-51.2116 -1.57977 0 0.0193199 0 0)
(-51.3818 -1.72089 0 0.0228714 0 0)
(-51.5715 -1.86599 0 0.0268896 0 0)
(-49.9808 0.0359835 0 0.0112459 0 0)
(-50.0804 -0.0837095 0 0.0104305 0 0)
(-50.1712 -0.163965 0 0.00823337 0 0)
(-50.2597 -0.2279 0 0.00711925 0 0)
(-50.3535 -0.290743 0 0.0067039 0 0)
(-50.4544 -0.356001 0 0.00658188 0 0)
(-50.5609 -0.425264 0 0.00666391 0 0)
(-50.6727 -0.501715 0 0.00703181 0 0)
(-50.7889 -0.58759 0 0.00770773 0 0)
(-50.9086 -0.683366 0 0.00863556 0 0)
(-51.0331 -0.787164 0 0.00976772 0 0)
(-51.1667 -0.897205 0 0.0111297 0 0)
(-51.3123 -1.01033 0 0.0127866 0 0)
(-51.4726 -1.12585 0 0.0148192 0 0)
(-51.6462 -1.24088 0 0.0172358 0 0)
(-51.8349 -1.35754 0 0.0201008 0 0)
(-52.0346 -1.47182 0 0.0233661 0 0)
(-52.2495 -1.58926 0 0.027036 0 0)
(-49.904 0.0518815 0 0.011409 0 0)
(-49.8248 -0.0141007 0 0.0107182 0 0)
(-49.7836 -0.0822005 0 0.00716869 0 0)
(-49.8329 -0.145959 0 0.0055585 0 0)
(-49.931 -0.2068 0 0.00522535 0 0)
(-50.0336 -0.26822 0 0.0053692 0 0)
(-50.1307 -0.333934 0 0.00569046 0 0)
(-50.2322 -0.406255 0 0.00611005 0 0)
(-50.3482 -0.484569 0 0.00663453 0 0)
(-50.4832 -0.56716 0 0.0073293 0 0)
(-50.6381 -0.652129 0 0.00824912 0 0)
(-50.8118 -0.739339 0 0.00941283 0 0)
(-51.0016 -0.827782 0 0.010819 0 0)
(-51.2058 -0.918242 0 0.0124773 0 0)
(-51.4218 -1.00853 0 0.0143676 0 0)
(-51.6505 -1.10023 0 0.0165521 0 0)
(-51.8887 -1.18914 0 0.0190027 0 0)
(-52.1397 -1.27936 0 0.0217166 0 0)
(-50.2063 -0.110475 0 0.0101426 0 0)
(-50.2708 -0.0800098 0 0.00889309 0 0)
(-50.3434 -0.103604 0 0.00635397 0 0)
(-50.4526 -0.148384 0 0.00540482 0 0)
(-50.5824 -0.19921 0 0.00512783 0 0)
(-50.7092 -0.252013 0 0.00518412 0 0)
(-50.8304 -0.304795 0 0.00550539 0 0)
(-50.9555 -0.35678 0 0.00599709 0 0)
(-51.0922 -0.409108 0 0.00658664 0 0)
(-51.2438 -0.464664 0 0.00731133 0 0)
(-51.413 -0.525157 0 0.00822884 0 0)
(-51.5999 -0.591213 0 0.00935081 0 0)
(-51.8033 -0.661013 0 0.0106619 0 0)
(-52.0196 -0.733528 0 0.0121618 0 0)
(-52.2477 -0.80604 0 0.0138325 0 0)
(-52.483 -0.879244 0 0.0157238 0 0)
(-52.7271 -0.949887 0 0.0177977 0 0)
(-52.9728 -1.0214 0 0.0200673 0 0)
(-50.0566 0.0917703 0 0.0119179 0 0)
(-50.1615 0.0494751 0 0.0101878 0 0)
(-50.2606 0.00958196 0 0.00683344 0 0)
(-50.3804 -0.0263783 0 0.00557089 0 0)
(-50.5239 -0.0685069 0 0.00537379 0 0)
(-50.6815 -0.120475 0 0.00547194 0 0)
(-50.8476 -0.17795 0 0.00562621 0 0)
(-51.0192 -0.235422 0 0.00589837 0 0)
(-51.1951 -0.290083 0 0.00632709 0 0)
(-51.3777 -0.342468 0 0.00687647 0 0)
(-51.5721 -0.394139 0 0.00752877 0 0)
(-51.7832 -0.446848 0 0.00830542 0 0)
(-52.0112 -0.501178 0 0.00923061 0 0)
(-52.2543 -0.558179 0 0.0103219 0 0)
(-52.5076 -0.616917 0 0.0115416 0 0)
(-52.7689 -0.678075 0 0.0129344 0 0)
(-53.0329 -0.738738 0 0.0144552 0 0)
(-53.3017 -0.800994 0 0.016084 0 0)
(-49.7497 -0.0199916 0 0.0100501 0 0)
(-49.825 -0.00825607 0 0.00814165 0 0)
(-49.9077 -0.00961126 0 0.00582521 0 0)
(-50.024 -0.028717 0 0.00484403 0 0)
(-50.1707 -0.0582225 0 0.00471524 0 0)
(-50.3285 -0.093777 0 0.00499948 0 0)
(-50.4926 -0.133084 0 0.00535183 0 0)
(-50.6688 -0.173402 0 0.00568571 0 0)
(-50.8597 -0.212111 0 0.00604166 0 0)
(-51.0643 -0.248465 0 0.00642965 0 0)
(-51.2807 -0.283308 0 0.0068489 0 0)
(-51.5071 -0.318962 0 0.00735997 0 0)
(-51.7413 -0.357191 0 0.00803735 0 0)
(-51.9827 -0.399808 0 0.00891398 0 0)
(-52.23 -0.446084 0 0.00993063 0 0)
(-52.4844 -0.496061 0 0.0110752 0 0)
(-52.7441 -0.5464 0 0.0122918 0 0)
(-53.0112 -0.597809 0 0.0135796 0 0)
(-50.2357 0.096415 0 0.00867746 0 0)
(-50.3364 0.0960025 0 0.00619492 0 0)
(-50.4535 0.0848899 0 0.00402318 0 0)
(-50.6091 0.0650698 0 0.00330385 0 0)
(-50.7884 0.0380791 0 0.00331691 0 0)
(-50.9689 0.00492534 0 0.00351335 0 0)
(-51.1457 -0.0320014 0 0.00370634 0 0)
(-51.3272 -0.068736 0 0.00392763 0 0)
(-51.5202 -0.10269 0 0.00420754 0 0)
(-51.7252 -0.134116 0 0.00453047 0 0)
(-51.9385 -0.164574 0 0.00489371 0 0)
(-52.1562 -0.196092 0 0.00533144 0 0)
(-52.3766 -0.229612 0 0.00587035 0 0)
(-52.5994 -0.265789 0 0.00651344 0 0)
(-52.826 -0.303587 0 0.00723067 0 0)
(-53.0579 -0.343076 0 0.00803374 0 0)
(-53.2965 -0.382032 0 0.00889294 0 0)
(-53.5418 -0.421638 0 0.00979795 0 0)
(-49.9798 0.0630638 0 0.00735753 0 0)
(-50.0412 0.0971658 0 0.00530582 0 0)
(-50.1607 0.09822 0 0.00359132 0 0)
(-50.3269 0.087071 0 0.00291012 0 0)
(-50.5065 0.068987 0 0.00277318 0 0)
(-50.6836 0.0448741 0 0.00284762 0 0)
(-50.8634 0.0172357 0 0.00298869 0 0)
(-51.0542 -0.00990102 0 0.00319815 0 0)
(-51.2578 -0.033985 0 0.00345288 0 0)
(-51.4719 -0.0557243 0 0.00371452 0 0)
(-51.6941 -0.0774588 0 0.00400974 0 0)
(-51.925 -0.101557 0 0.00438614 0 0)
(-52.1656 -0.128792 0 0.00484956 0 0)
(-52.4167 -0.159111 0 0.00538262 0 0)
(-52.6768 -0.190917 0 0.00595154 0 0)
(-52.9442 -0.223358 0 0.00657823 0 0)
(-53.2148 -0.254485 0 0.00724761 0 0)
(-53.4882 -0.284797 0 0.00795718 0 0)
(-50.1183 0.0879244 0 0.0066897 0 0)
(-50.2301 0.145759 0 0.00479781 0 0)
(-50.3404 0.15791 0 0.00323761 0 0)
(-50.4556 0.147143 0 0.00260339 0 0)
(-50.587 0.129541 0 0.00241085 0 0)
(-50.7407 0.109196 0 0.00239314 0 0)
(-50.9202 0.0864557 0 0.00244747 0 0)
(-51.1223 0.0632994 0 0.00256981 0 0)
(-51.3386 0.0421515 0 0.00274198 0 0)
(-51.562 0.023707 0 0.00291629 0 0)
(-51.7896 0.00733608 0 0.00307301 0 0)
(-52.0226 -0.00845741 0 0.00322895 0 0)
(-52.2627 -0.0249731 0 0.00341966 0 0)
(-52.5107 -0.0435788 0 0.00367746 0 0)
(-52.765 -0.0646319 0 0.00399665 0 0)
(-53.0251 -0.088537 0 0.00438398 0 0)
(-53.2881 -0.113931 0 0.00480322 0 0)
(-53.5551 -0.141178 0 0.00523126 0 0)
(-49.725 0.128985 0 0.00557619 0 0)
(-49.8911 0.146181 0 0.00363172 0 0)
(-50.0669 0.162645 0 0.00230349 0 0)
(-50.2385 0.163232 0 0.00171163 0 0)
(-50.3955 0.158689 0 0.00149626 0 0)
(-50.5533 0.15286 0 0.00143687 0 0)
(-50.7338 0.143482 0 0.0014503 0 0)
(-50.945 0.130387 0 0.00150486 0 0)
(-51.1802 0.116214 0 0.00159522 0 0)
(-51.4269 0.102949 0 0.00171206 0 0)
(-51.6752 0.0905973 0 0.00184626 0 0)
(-51.9207 0.077848 0 0.00200871 0 0)
(-52.1637 0.0634879 0 0.00221672 0 0)
(-52.4071 0.0467365 0 0.0024733 0 0)
(-52.6529 0.0280185 0 0.00275822 0 0)
(-52.9039 0.00799905 0 0.00307609 0 0)
(-53.16 -0.0117055 0 0.00341522 0 0)
(-53.4229 -0.0307262 0 0.00377043 0 0)
(-50.1733 0.156804 0 0.00390662 0 0)
(-50.2668 0.201281 0 0.00128539 0 0)
(-50.4497 0.20426 0 0.000548691 0 0)
(-50.6428 0.197076 0 0.00034772 0 0)
(-50.8123 0.191324 0 0.00026335 0 0)
(-50.9688 0.18679 0 0.000234821 0 0)
(-51.1304 0.181668 0 0.000238529 0 0)
(-51.3063 0.175346 0 0.000263374 0 0)
(-51.497 0.167732 0 0.000308959 0 0)
(-51.6977 0.158886 0 0.000375163 0 0)
(-51.9035 0.149044 0 0.000459351 0 0)
(-52.112 0.138827 0 0.000558011 0 0)
(-52.3261 0.128461 0 0.000671267 0 0)
(-52.5489 0.117936 0 0.000803225 0 0)
(-52.7849 0.106836 0 0.000956688 0 0)
(-53.0336 0.0949497 0 0.00113846 0 0)
(-53.296 0.0823889 0 0.00134302 0 0)
(-53.5663 0.0691281 0 0.00156477 0 0)
(-50.1393 0.145664 0 0.00353087 0 0)
(-50.488 0.243348 0 0.000452871 0 0)
(-50.7844 0.237995 0 -6.24011e-05 0 0)
(-50.9938 0.233345 0 -0.000171818 0 0)
(-51.1529 0.23593 0 -0.000257718 0 0)
(-51.2999 0.236212 0 -0.000297093 0 0)
(-51.4487 0.232848 0 -0.000280661 0 0)
(-51.5984 0.228056 0 -0.000230885 0 0)
(-51.7435 0.22281 0 -0.000163758 0 0)
(-51.8822 0.21699 0 -8.29288e-05 0 0)
(-52.0134 0.210477 0 1.08496e-05 0 0)
(-52.1414 0.203879 0 0.00011124 0 0)
(-52.2683 0.197426 0 0.00021583 0 0)
(-52.402 0.191493 0 0.000321152 0 0)
(-52.5407 0.185525 0 0.000426061 0 0)
(-52.6918 0.179669 0 0.0005407 0 0)
(-52.8443 0.173381 0 0.000667479 0 0)
(-53.0109 0.167112 0 0.000789064 0 0)
(-49.081 0.224863 0 0.0013334 0 0)
(-47.4111 0.266852 0 -8.69292e-05 0 0)
(-45.7583 0.24756 0 -0.000232196 0 0)
(-44.1655 0.230572 0 -0.000243699 0 0)
(-42.6747 0.2212 0 -0.000278121 0 0)
(-41.2944 0.214274 0 -0.000305162 0 0)
(-40.0162 0.207318 0 -0.000324436 0 0)
(-38.8329 0.199408 0 -0.000328928 0 0)
(-37.7422 0.190205 0 -0.000315955 0 0)
(-36.7445 0.18019 0 -0.000294649 0 0)
(-35.8334 0.170453 0 -0.000272552 0 0)
(-35.0023 0.162186 0 -0.000254976 0 0)
(-34.2369 0.155735 0 -0.000247988 0 0)
(-33.5332 0.150895 0 -0.000256642 0 0)
(-32.8754 0.146603 0 -0.000268836 0 0)
(-32.2728 0.142268 0 -0.000268033 0 0)
(-31.7036 0.137063 0 -0.000248893 0 0)
(-31.1972 0.131315 0 -0.000220228 0 0)
(0.0111418 -0.0280732 -1.17585e-22 0.0710551 2.23858e-22 4.13688e-39)
(0.13858 -0.114964 2.23621e-22 0.0867504 -4.93542e-23 4.07318e-39)
(0.392899 -0.152955 0 0.0427636 0 0)
(0.63272 -0.110242 0 -0.00818636 0 0)
(0.731612 -0.00117255 0 -0.0486251 0 0)
(0.652131 0.119343 3.60799e-22 -0.0651412 -3.97497e-22 3.82571e-39)
(0.362881 0.223816 0 -0.0647392 0 0)
(-0.0797913 0.288479 0 -0.0536736 0 0)
(-0.599653 0.312085 0 -0.0383367 0 0)
(-1.1246 0.295858 0 -0.0222059 0 0)
(-1.59742 0.246201 -2.33675e-21 -0.0073221 3.58503e-22 3.51778e-39)
(-1.95635 0.170535 0 0.0049006 0 0)
(-2.1541 0.0768875 0 0.0134674 0 0)
(-2.15567 -0.0264867 0 0.0173957 0 0)
(-1.94305 -0.130963 0 0.0160504 0 0)
(-1.52613 -0.225326 -3.36241e-21 0.00899442 -9.00246e-23 3.24476e-39)
(-0.929176 -0.299534 0 -0.00350202 0 0)
(-0.213117 -0.341369 0 -0.0202038 0 0)
(0.566763 -0.346329 0 -0.0388844 0 0)
(1.30835 -0.310704 0 -0.0545349 0 0)
(1.97413 -0.244091 0 -0.0643791 0 0)
(2.45029 -0.158668 0 -0.0579521 0 0)
(2.77177 -0.0853685 0 -0.0415724 0 0)
(2.90813 -0.0637308 -9.85589e-22 0.0204856 -2.3842e-22 2.8742e-39)
(2.98691 -0.13062 7.34363e-22 0.0459227 1.54818e-22 2.82961e-39)
(3.21807 -0.331138 -6.39743e-22 0.0976059 6.591e-23 2.78334e-39)
(3.7198 -0.571795 -6.59643e-22 0.220605 2.71937e-22 2.73598e-39)
(4.44772 -0.807944 0 0.388728 0 0)
(5.3686 -1.04666 0 0.495127 0 0)
(6.48403 -1.32382 9.10693e-22 0.639834 -3.09535e-22 2.59218e-39)
(7.7254 -1.52628 9.79352e-22 0.789623 -2.17766e-22 2.54429e-39)
(8.96847 -1.56514 0 0.831182 0 0)
(9.98438 -1.37931 0 0.731 0 0)
(10.4473 -0.993451 9.15802e-22 0.559741 1.30779e-22 2.39916e-39)
(10.0565 -0.533755 0 0.403335 0 0)
(8.6342 -0.138267 0 0.290769 0 0)
(6.1077 0.213213 5.75713e-22 0.219164 -5.30474e-22 2.25973e-39)
(2.67783 0.708176 0 0.126346 0 0)
(-1.43775 1.41671 2.94044e-21 -0.00347423 -7.19262e-22 2.17195e-39)
(-6.31535 2.04251 8.9127e-21 -0.0735497 -1.76201e-21 8.51802e-39)
(-11.5516 2.26494 0 -0.060995 0 0)
(-16.6136 2.18642 0 -0.0324317 0 0)
(-21.3197 2.01133 0 -0.00918535 0 0)
(-25.5849 1.79491 0 0.00833624 0 0)
(-29.3459 1.55747 0 0.0209764 0 0)
(-32.5689 1.31366 3.05694e-20 0.0297579 -1.1232e-21 7.56362e-39)
(-35.2375 1.07253 3.31588e-20 0.0355467 -8.70259e-22 7.41841e-39)
(-37.351 0.840062 3.51511e-20 0.0390253 -6.19104e-22 7.27723e-39)
(-38.9184 0.619806 0 0.0407104 0 0)
(-39.9607 0.41392 -3.72034e-20 0.0409919 1.47895e-22 7.00638e-39)
(-40.5011 0.223751 0 0.0401414 0 0)
(-40.5706 0.0505125 3.6701e-20 0.0383588 2.53832e-22 6.75006e-39)
(-40.2029 -0.10537 3.55749e-20 0.0358482 4.21518e-22 6.62687e-39)
(-39.4354 -0.24325 0 0.0327696 0 0)
(-38.3111 -0.363254 0 0.029301 0 0)
(-36.8697 -0.465622 0 0.0255955 0 0)
(-35.1548 -0.550803 2.66928e-20 0.0217973 8.43009e-22 6.16164e-39)
(-33.2084 -0.619528 0 0.0180317 0 0)
(-31.0734 -0.672773 0 0.0144061 0 0)
(-28.7894 -0.711492 0 0.0109965 0 0)
(-26.3949 -0.737156 0 0.00786729 0 0)
(-23.9254 -0.751117 0 0.00505006 0 0)
(-21.4122 -0.755188 0 0.00256485 0 0)
(-18.8824 -0.751065 0 0.00041013 0 0)
(-16.3583 -0.740581 0 -0.00142632 0 0)
(-13.8567 -0.725071 2.38677e-23 -0.00297223 -6.9467e-22 5.22066e-39)
(-11.3912 -0.706151 0 -0.00425045 0 0)
(-8.97331 -0.684246 0 -0.00529649 0 0)
(-6.61169 -0.660256 -6.57934e-21 -0.00613168 5.37556e-22 4.92916e-39)
(-4.3152 -0.634141 -8.36569e-21 -0.00678387 4.86644e-22 4.83427e-39)
(-2.09294 -0.606078 0 -0.00727318 0 0)
(0.0463 -0.575799 1.13264e-20 -0.00761639 -3.87384e-22 4.6478e-39)
(2.09354 -0.543571 -1.25008e-20 -0.00782432 3.38916e-22 4.55624e-39)
(4.04003 -0.509327 0 -0.00791012 0 0)
(5.87724 -0.473395 1.42484e-20 -0.00789158 -2.44618e-22 4.37663e-39)
(7.59699 -0.435847 0 -0.00779771 0 0)
(9.19175 -0.39702 0 -0.00766407 0 0)
(10.6546 -0.357069 -1.54385e-20 -0.0075303 1.11889e-22 4.1156e-39)
(11.9798 -0.316085 0 -0.00743023 0 0)
(13.1622 -0.274327 1.53598e-20 -0.00738551 -2.95883e-23 3.94733e-39)
(14.1957 -0.231641 0 -0.00740526 0 0)
(15.0746 -0.187975 -1.46592e-20 -0.00748257 -4.78296e-23 3.78375e-39)
(15.7923 -0.143358 -1.40955e-20 -0.0075987 -8.4691e-23 3.70371e-39)
(16.3413 -0.0977521 -1.33998e-20 -0.00772646 -1.20157e-22 3.62487e-39)
(16.7148 -0.0510863 -2.51631e-20 -0.00783258 -3.08212e-22 1.41889e-38)
(16.9061 -0.00374518 2.33012e-20 -0.00788591 3.7216e-22 1.38832e-38)
(16.909 0.0440574 0 -0.00785199 0 0)
(16.7194 0.0917569 0 -0.00770397 0 0)
(16.3356 0.138531 0 -0.00742466 0 0)
(15.7593 0.18341 1.41286e-20 -0.00699489 5.69643e-22 1.27102e-38)
(14.9971 0.22512 1.15864e-20 -0.00642147 5.9824e-22 1.24298e-38)
(14.0614 0.262207 -9.03806e-21 -0.00571575 -6.15965e-22 1.21546e-38)
(12.9705 0.293184 0 -0.00490164 0 0)
(11.7487 0.316803 4.13719e-21 -0.00402978 6.16273e-22 1.16193e-38)
(10.4257 0.332113 1.88679e-21 -0.00314944 5.99341e-22 1.13589e-38)
(9.03374 0.338879 -1.74435e-22 -0.00231454 5.728e-22 1.11032e-38)
(7.60565 0.337296 0 -0.00157141 0 0)
(6.17271 0.328183 0 -0.000950081 0 0)
(4.76506 0.313021 0 -0.000457159 0 0)
(3.41011 0.293498 -6.18108e-21 -7.94623e-05 4.11799e-22 1.01211e-38)
(2.12894 0.271473 0 0.000201176 0 0)
(0.931551 0.246444 0 0.000366168 0 0)
(-0.174978 0.220507 8.52105e-21 0.000456871 -2.85192e-22 9.42139e-39)
(-1.18397 0.194505 0 0.000491449 0 0)
(-2.09403 0.169158 0 0.000487054 0 0)
(-2.90676 0.145055 9.64467e-21 0.000458549 -1.76271e-22 8.76439e-39)
(-3.62629 0.122662 0 0.000418191 0 0)
(-4.25887 0.102308 0 0.000375141 0 0)
(-4.81234 0.0841623 -1.00383e-20 0.000334861 9.58248e-23 8.14718e-39)
(-5.29534 0.0682348 -1.00726e-20 0.000299175 7.59363e-23 7.94965e-39)
(-5.71648 0.0544046 0 0.00026772 0 0)
(-6.08371 0.0424647 1.00553e-20 0.000239275 -4.49075e-23 7.56623e-39)
(-6.40401 0.0321636 0 0.00021269 0 0)
(-6.68324 0.0232276 -9.9642e-21 0.000187263 2.28733e-23 7.1977e-39)
(-6.92616 0.0153817 0 0.000162678 0 0)
(-7.13644 0.00836797 -9.82964e-21 0.000138824 6.51828e-24 6.84342e-39)
(-7.31673 0.0019632 -9.75095e-21 0.000115446 -4.07605e-25 6.67145e-39)
(-7.46882 -0.00402132 0 9.21574e-05 0 0)
(-7.59362 -0.0097003 0 6.85326e-05 0 0)
(-7.69183 -0.0151053 0 4.44166e-05 0 0)
(-7.76414 -0.0202252 0 2.00208e-05 0 0)
(-7.81131 -0.0250107 0 -3.909e-06 0 0)
(-7.83438 -0.0293934 0 -2.61834e-05 0 0)
(-7.83469 -0.0333536 0 -4.61393e-05 0 0)
(-7.81369 -0.0369059 -8.88705e-21 -6.35888e-05 -4.02991e-23 5.41192e-39)
(-7.77296 -0.0400228 8.75425e-21 -7.79138e-05 4.31912e-23 5.26817e-39)
(-7.71423 -0.0427156 0 -8.89944e-05 0 0)
(-7.63902 -0.0450816 0 -9.76385e-05 0 0)
(-7.54868 -0.0471217 0 -0.000103721 0 0)
(-7.44487 -0.0487021 0 -0.000106015 0 0)
(-7.32946 -0.0496779 1.60888e-20 -0.000103798 1.04772e-22 1.83661e-38)
(-7.20458 -0.0499605 0 -9.76849e-05 0 0)
(-7.07255 -0.0495463 -1.54989e-20 -8.93899e-05 -1.03388e-22 1.73586e-38)
(-6.93575 -0.0485133 1.5207e-20 -8.07628e-05 1.00493e-22 1.68701e-38)
(-6.79639 -0.0470091 0 -7.28926e-05 0 0)
(-6.65636 -0.0452166 0 -6.58592e-05 0 0)
(-6.51713 -0.0433102 0 -5.91881e-05 0 0)
(-6.37966 -0.0414186 -1.41025e-20 -5.24578e-05 -8.36686e-23 1.50147e-38)
(-6.24454 -0.0396092 -1.38464e-20 -4.55599e-05 -7.96668e-23 1.45747e-38)
(-6.1121 -0.0378936 0 -3.86182e-05 0 0)
(-5.98252 -0.0362419 -1.33582e-20 -3.18256e-05 -7.22779e-23 1.3722e-38)
(-5.85601 -0.0345992 -1.31258e-20 -2.5361e-05 -6.8689e-23 1.33091e-38)
(-5.73282 -0.0329007 1.2901e-20 -1.93985e-05 6.49964e-23 1.2905e-38)
(-5.61338 -0.0310872 0 -1.41494e-05 0 0)
(-5.49824 -0.0291207 0 -9.86362e-06 0 0)
(-5.38804 -0.0269963 1.22751e-20 -6.75617e-06 5.23986e-23 1.17439e-38)
(-5.28344 -0.0247451 0 -4.89308e-06 0 0)
(-5.185 -0.0224273 0 -4.12889e-06 0 0)
(-5.09312 -0.0201185 0 -4.14264e-06 0 0)
(-5.00797 -0.0178947 0 -4.55151e-06 0 0)
(-4.92946 -0.0158194 -1.14146e-20 -5.0291e-06 -2.98665e-23 9.97171e-39)
(-4.85729 -0.0139364 -1.12697e-20 -5.37303e-06 -2.62387e-23 9.64055e-39)
(-4.791 -0.0122686 0 -5.50312e-06 0 0)
(-4.73006 -0.0108211 -1.10028e-20 -5.42855e-06 -2.03295e-23 9.00058e-39)
(-4.67384 -0.00958579 0 -5.19995e-06 0 0)
(-4.62179 -0.00854696 0 -4.88265e-06 0 0)
(-4.57331 -0.00768407 -1.06481e-20 -4.53054e-06 -1.44837e-23 8.09474e-39)
(-4.52796 -0.00697694 0 -4.1891e-06 0 0)
(-4.48516 -0.00640464 -1.04343e-20 -3.88267e-06 -1.21277e-23 7.52564e-39)
(-4.44463 -0.00595066 0 -3.63257e-06 0 0)
(-4.40571 -0.00560036 0 -3.44327e-06 0 0)
(-4.36841 -0.00534388 -1.01381e-20 -3.32632e-06 -1.01833e-23 6.72207e-39)
(-4.33172 -0.00517715 0 -3.28441e-06 0 0)
(-4.29613 -0.00509165 -9.95236e-21 -3.3264e-06 -9.73631e-24 6.21856e-39)
(-4.25985 -0.00510446 0 -3.47932e-06 0 0)
(-4.22431 -0.00519373 0 -3.7357e-06 0 0)
(-4.18607 -0.0054393 0 -4.23065e-06 0 0)
(-4.14842 -0.00575262 9.5958e-21 -4.84957e-06 1.10472e-23 5.28541e-39)
(-4.10468 -0.0063869 0 -6.14403e-06 0 0)
(-4.06141 -0.00699393 -9.41685e-21 -7.42184e-06 -1.34198e-23 4.85439e-39)
(-4.00673 -0.00834156 0 -1.09605e-05 0 0)
(-3.95117 -0.00927662 0 -1.32786e-05 0 0)
(-3.87761 -0.0121178 0 -2.44646e-05 0 0)
(-3.79466 -0.0132603 0 -2.71946e-05 0 0)
(-3.69318 -0.0196904 0 -7.04352e-05 0 0)
(-3.54319 -0.0202934 0 -6.32409e-05 0 0)