/*--------------------------------*- C++ -*----------------------------------*\
  =========                 |
  \\      /  F ield         | OpenFOAM: The Open Source CFD Toolbox
   \\    /   O peration     | Website:  https://openfoam.org
    \\  /    A nd           | Version:  9
     \\/     M anipulation  |
\*---------------------------------------------------------------------------*/
FoamFile
{
    format      ascii;
    class       volScalarField;
    location    "0.079";
    object      k;
}
// * * * * * * * * * * * * * * * * * * * * * * * * * * * * * * * * * * * * * //

dimensions      [0 2 -2 0 0 0 0];

internalField   nonuniform List<scalar> 
12225
(
4.51919e-05
8.10116e-05
0.000103831
0.000113108
0.000114506
0.000111965
9.70245e-05
8.31849e-05
8.06041e-05
8.34878e-05
0.000101847
0.000121848
0.000127416
0.00012616
0.000113908
0.000100063
9.60409e-05
0.000165757
2.04784e-05
2.39009e-05
3.08637e-05
3.73115e-05
4.11012e-05
4.20311e-05
4.17012e-05
4.0351e-05
3.96395e-05
3.97278e-05
4.10987e-05
4.64012e-05
6.17817e-05
7.41532e-05
7.89037e-05
7.95557e-05
7.8963e-05
8.25151e-05
2.00555e-05
1.65717e-05
1.59988e-05
1.66589e-05
1.75645e-05
1.79336e-05
1.82864e-05
1.89821e-05
1.96079e-05
2.00059e-05
2.04493e-05
2.13391e-05
2.33956e-05
2.56586e-05
2.72819e-05
2.85224e-05
2.90897e-05
2.99924e-05
2.2818e-05
2.23366e-05
2.08857e-05
2.0274e-05
1.94526e-05
1.85199e-05
1.8422e-05
1.88918e-05
1.94809e-05
1.97676e-05
1.98631e-05
1.98627e-05
1.97604e-05
1.93167e-05
1.7898e-05
1.65348e-05
1.59207e-05
1.58742e-05
2.39397e-05
2.55697e-05
2.4865e-05
2.39723e-05
2.41207e-05
2.39913e-05
2.44773e-05
2.47215e-05
2.39832e-05
2.37962e-05
2.43122e-05
2.45265e-05
2.40908e-05
2.27894e-05
2.20268e-05
2.1795e-05
2.18158e-05
2.18335e-05
2.00963e-05
2.25525e-05
2.66909e-05
2.84797e-05
2.97051e-05
3.04352e-05
2.98385e-05
3.33357e-05
5.19019e-05
5.61044e-05
5.10518e-05
3.65073e-05
2.78234e-05
2.40194e-05
2.24502e-05
2.18678e-05
2.1722e-05
2.17125e-05
2.01071e-05
2.07372e-05
2.1871e-05
2.38578e-05
2.67082e-05
2.75875e-05
2.80311e-05
2.9703e-05
3.87923e-05
4.44475e-05
4.14061e-05
3.61915e-05
3.16677e-05
2.71553e-05
2.43535e-05
2.30538e-05
2.26181e-05
2.23702e-05
3.314e-05
2.61006e-05
2.34705e-05
2.482e-05
3.8173e-05
6.68468e-05
7.31174e-05
6.72703e-05
4.32573e-05
2.96793e-05
2.53923e-05
2.46544e-05
2.48541e-05
2.64529e-05
2.81992e-05
2.93281e-05
3.16837e-05
3.30161e-05
4.37518e-05
4.11779e-05
2.99663e-05
2.72581e-05
2.90689e-05
3.50029e-05
3.54553e-05
3.18167e-05
2.53324e-05
2.26206e-05
2.20113e-05
2.21917e-05
2.40871e-05
2.84783e-05
3.0471e-05
3.09097e-05
3.10289e-05
3.11951e-05
4.40241e-05
4.41144e-05
3.41066e-05
2.74072e-05
2.44914e-05
2.22057e-05
2.19145e-05
2.1778e-05
2.11822e-05
2.09786e-05
2.09926e-05
2.14055e-05
2.38853e-05
2.91415e-05
3.0634e-05
3.05462e-05
2.97313e-05
2.85004e-05
2.11195e-05
2.37062e-05
2.42464e-05
2.29707e-05
2.18778e-05
2.16561e-05
2.18048e-05
2.34064e-05
2.52791e-05
2.59129e-05
2.62624e-05
2.62408e-05
2.53723e-05
2.44628e-05
2.40952e-05
2.38937e-05
2.37523e-05
2.35151e-05
2.0009e-05
2.01549e-05
2.0612e-05
2.10282e-05
2.11691e-05
2.12234e-05
2.13356e-05
2.19513e-05
2.4121e-05
2.46709e-05
2.46422e-05
2.40508e-05
2.34978e-05
2.35164e-05
2.42276e-05
2.82454e-05
3.39234e-05
3.59199e-05
2.00035e-05
2.02604e-05
2.18131e-05
2.3349e-05
2.3613e-05
2.33024e-05
2.23485e-05
2.20321e-05
2.20402e-05
2.22717e-05
2.26248e-05
2.27914e-05
2.28972e-05
2.3065e-05
2.34213e-05
2.43052e-05
2.70058e-05
3.10179e-05
2.00035e-05
2.02807e-05
2.2035e-05
2.42151e-05
2.48925e-05
2.48084e-05
2.38606e-05
2.27921e-05
2.24178e-05
2.23553e-05
2.23697e-05
2.23864e-05
2.23641e-05
2.22178e-05
2.21354e-05
2.21425e-05
2.22256e-05
2.2563e-05
2.06069e-05
2.05926e-05
2.24785e-05
2.46057e-05
2.80884e-05
3.10838e-05
3.23857e-05
3.26291e-05
3.12117e-05
2.6783e-05
2.36431e-05
2.19036e-05
2.1104e-05
2.07842e-05
2.06647e-05
2.06317e-05
2.06304e-05
2.06587e-05
2.01456e-05
2.0511e-05
2.28776e-05
2.53538e-05
2.76152e-05
2.85445e-05
2.85351e-05
2.7475e-05
2.53025e-05
2.43798e-05
2.40662e-05
2.34733e-05
2.27054e-05
2.2045e-05
2.15753e-05
2.14023e-05
2.13596e-05
2.1309e-05
2.15388e-05
2.72527e-05
3.01558e-05
2.90799e-05
2.48798e-05
2.25093e-05
2.15963e-05
2.12947e-05
2.12355e-05
2.12715e-05
2.13849e-05
2.14207e-05
2.1456e-05
2.15688e-05
2.16592e-05
2.16632e-05
2.15838e-05
2.138e-05
2.18335e-05
2.0803e-05
2.15263e-05
2.2185e-05
2.19291e-05
2.15964e-05
2.15802e-05
2.18055e-05
2.27746e-05
2.34742e-05
2.36013e-05
2.3538e-05
2.31051e-05
2.22382e-05
2.16568e-05
2.12996e-05
2.1108e-05
2.10042e-05
2.02937e-05
2.04437e-05
2.1407e-05
2.19903e-05
2.1886e-05
2.15534e-05
2.16014e-05
2.24163e-05
2.43314e-05
2.53123e-05
2.54479e-05
2.49296e-05
2.37289e-05
2.34034e-05
2.34173e-05
2.338e-05
2.29603e-05
2.25002e-05
2.00143e-05
2.044e-05
2.0987e-05
2.14035e-05
2.16096e-05
2.1901e-05
2.25232e-05
2.40174e-05
2.48313e-05
2.56467e-05
2.74936e-05
3.03053e-05
3.22899e-05
3.25787e-05
3.19253e-05
2.89966e-05
2.60342e-05
2.47492e-05
2.02324e-05
2.06045e-05
2.06673e-05
2.07512e-05
2.1331e-05
2.29879e-05
2.35703e-05
2.34833e-05
2.36434e-05
2.57683e-05
2.9633e-05
3.09901e-05
3.08549e-05
2.8981e-05
2.56744e-05
2.38395e-05
2.30529e-05
2.28746e-05
2.02543e-05
2.05473e-05
2.051e-05
2.04992e-05
2.07105e-05
2.13362e-05
2.21819e-05
2.33879e-05
2.47713e-05
2.52842e-05
2.47517e-05
2.33416e-05
2.27333e-05
2.24766e-05
2.24023e-05
2.24076e-05
2.2525e-05
2.31345e-05
2.10588e-05
2.28801e-05
2.29051e-05
2.22547e-05
2.18471e-05
2.14172e-05
2.13504e-05
2.13675e-05
2.13399e-05
2.13814e-05
2.14158e-05
2.1415e-05
2.13801e-05
2.12302e-05
2.11158e-05
2.10862e-05
2.10939e-05
2.11639e-05
2.32114e-05
3.01688e-05
3.04829e-05
2.73446e-05
2.56101e-05
2.55575e-05
2.64323e-05
2.68085e-05
2.56747e-05
2.33552e-05
2.21703e-05
2.163e-05
2.14175e-05
2.13606e-05
2.13625e-05
2.14254e-05
2.17026e-05
2.26495e-05
2.5813e-05
2.45112e-05
2.39046e-05
2.40399e-05
2.39869e-05
2.39715e-05
2.3971e-05
2.38648e-05
2.31134e-05
2.19146e-05
2.13161e-05
2.10866e-05
2.10316e-05
2.10371e-05
2.11143e-05
2.14274e-05
2.24262e-05
2.54447e-05
2.1887e-05
2.19102e-05
2.27772e-05
2.4688e-05
2.52775e-05
2.56394e-05
2.61815e-05
2.63041e-05
2.56517e-05
2.312e-05
2.15136e-05
2.08793e-05
2.06908e-05
2.06762e-05
2.07533e-05
2.11303e-05
2.23623e-05
2.6362e-05
2.02751e-05
2.05117e-05
2.02869e-05
2.00704e-05
1.98172e-05
1.95527e-05
1.93984e-05
1.93538e-05
1.93165e-05
1.92222e-05
1.90514e-05
1.89038e-05
1.87684e-05
1.86402e-05
1.85447e-05
1.85072e-05
1.85101e-05
1.85859e-05
2.00038e-05
1.9223e-05
1.8227e-05
1.60257e-05
1.40614e-05
1.32554e-05
1.31099e-05
1.31639e-05
1.36349e-05
1.50065e-05
1.60232e-05
1.65306e-05
1.66786e-05
1.66534e-05
1.63307e-05
1.53745e-05
1.45931e-05
1.40832e-05
2.00218e-05
2.01181e-05
2.06134e-05
2.35653e-05
3.34728e-05
3.97433e-05
4.0906e-05
3.99379e-05
3.57082e-05
3.26495e-05
3.15935e-05
3.14734e-05
3.16931e-05
3.18519e-05
3.1819e-05
3.15631e-05
3.10005e-05
3.06663e-05
2.16657e-05
2.25122e-05
2.63027e-05
5.41099e-05
0.000124987
0.000154533
0.000155968
0.000138718
0.000102819
8.49235e-05
7.81031e-05
7.57928e-05
7.39287e-05
6.95242e-05
6.33924e-05
5.96751e-05
5.84435e-05
5.84833e-05
0.0775862
0.0775704
0.0760937
0.0734842
0.0741446
0.0804101
0.0827485
0.0857869
0.0894321
0.0942908
0.0966325
0.0923382
0.0802244
0.0714803
0.0666559
0.063957
0.0626402
0.0616997
0.0607523
0.0598019
0.0591543
0.059123
0.0594506
0.0599722
0.0605338
0.0610135
0.0612246
0.0612765
0.0612712
0.0612183
0.0611097
0.0609404
0.060715
0.0604296
0.0602768
0.0603862
0.0621611
0.0694517
0.0925225
0.146278
0.181894
0.186618
0.169469
0.12303
0.105545
0.0959395
0.0881932
0.0855334
0.0851506
0.0852376
0.0852598
0.0843325
0.0830479
0.0819487
0.081393
0.0808332
0.0801789
0.0798376
0.0795216
0.0792862
0.0787565
0.0785576
0.0795245
0.0826057
0.0837192
0.0835135
0.0818316
0.0800686
0.0801057
0.0808606
0.0840126
0.0955024
0.165285
0.576349
0.898402
0.954215
0.868283
0.471311
0.139236
0.0469693
0.0329617
0.0307194
0.0306547
0.0310626
0.0312491
0.0313191
0.0312396
0.0310312
0.0307453
0.0305838
0.0303146
0.030018
0.0297229
0.0292544
0.0287589
0.0280283
0.0273453
0.0263534
0.025475
0.0242959
0.02325
0.0220451
0.0209947
0.0198952
0.0190166
0.0182291
0.0176895
0.0174231
0.0173689
0.0173052
0.0172632
0.0172156
0.0171876
0.0171716
0.0171731
0.0171933
0.0172213
0.0172509
0.0172833
0.0173298
0.0174119
0.0174964
0.0176216
0.0177623
0.0179235
0.0181061
0.0182983
0.0184931
0.0186683
0.0187923
0.0188356
0.0187605
0.0185612
0.0182601
0.0178629
0.0173801
0.0167801
0.0159474
0.0146895
0.0129241
0.0109553
0.00931215
0.00833197
0.0079918
0.00796794
0.0080159
0.00817838
0.00834812
0.00843419
0.00844081
0.0083366
0.00823401
0.0082057
0.00821038
0.00821485
0.00818968
0.00811669
0.00799959
0.00785142
0.00768875
0.00753952
0.00745408
0.00744906
0.007502
0.00760332
0.00768087
0.00770888
0.00757722
0.00724854
0.00712565
0.00703288
0.00706684
0.0073733
0.00751601
0.00747568
0.00757016
0.00757353
0.00741312
0.00734393
0.00688325
0.0782275
0.0720777
0.0815944
0.0891346
0.0954327
0.0978814
0.0985818
0.0972946
0.0944713
0.0979902
0.10362
0.103949
0.0996164
0.085217
0.0702238
0.062075
0.0579253
0.0553511
0.0533466
0.0519024
0.0509606
0.050832
0.0520857
0.05437
0.0570108
0.0593766
0.0611806
0.062771
0.0641739
0.064783
0.0649328
0.0649027
0.0644718
0.0632544
0.0613559
0.0588848
0.0568807
0.0567522
0.0593543
0.0687719
0.0858354
0.102562
0.111297
0.114225
0.113371
0.102193
0.0942351
0.0912934
0.0902844
0.0900224
0.0906027
0.0878756
0.0857915
0.0839834
0.0825849
0.0814339
0.0806933
0.0800693
0.0791826
0.0786705
0.0780158
0.0775113
0.0764696
0.0738557
0.0721577
0.0720542
0.0723262
0.0730743
0.0741372
0.078172
0.0839164
0.0925707
0.120476
0.211827
0.434182
0.73687
0.578439
0.177572
0.0601833
0.0314171
0.0240125
0.0212805
0.019771
0.0187002
0.0181408
0.0177219
0.0175053
0.0172886
0.0171197
0.016983
0.0168082
0.016631
0.0164312
0.0161606
0.0158977
0.015541
0.0152177
0.0147814
0.0144323
0.0139567
0.0135647
0.0131105
0.0127359
0.012321
0.0119937
0.0116634
0.0113986
0.0111575
0.0109701
0.0108252
0.0106886
0.0105808
0.0104957
0.0104414
0.0104169
0.0104111
0.0104616
0.0105544
0.0106855
0.0108375
0.0109897
0.0111492
0.0113012
0.0114447
0.0115726
0.0116819
0.0117668
0.0118441
0.0119953
0.0122182
0.0125481
0.0130036
0.0135268
0.0140711
0.0145891
0.0150322
0.0153995
0.0157895
0.0163669
0.017149
0.0178531
0.0181849
0.0181623
0.017472
0.0151866
0.0129839
0.0114554
0.0105111
0.00992543
0.00946077
0.00901593
0.00857213
0.00812589
0.00771198
0.00736168
0.00707784
0.00683716
0.00661121
0.006384
0.00614706
0.00589434
0.00563615
0.00539678
0.0052037
0.00510034
0.00509703
0.00521017
0.00541075
0.00553099
0.00571351
0.0061334
0.00728366
0.00879205
0.00977207
0.0101403
0.0101693
0.00988063
0.00952536
0.00915859
0.00859321
0.0858137
0.0744967
0.0769943
0.0816923
0.0920103
0.099317
0.101184
0.100588
0.0962598
0.0941741
0.0969446
0.103383
0.102427
0.0960653
0.0776822
0.063518
0.057027
0.0541573
0.0535486
0.0544809
0.0566674
0.0601075
0.065192
0.0718676
0.0799118
0.08693
0.0926043
0.0968557
0.099711
0.101059
0.101604
0.101683
0.100675
0.098598
0.0962773
0.0922797
0.0876154
0.0824221
0.0772114
0.0732626
0.0719583
0.0716949
0.0719125
0.0730302
0.0749735
0.0764822
0.0772939
0.0775323
0.0781985
0.0783179
0.0784778
0.0785288
0.0785634
0.0785904
0.0785619
0.0783278
0.0774677
0.075664
0.0740098
0.0730029
0.072459
0.0719431
0.0704836
0.0699506
0.0701903
0.0717547
0.0768671
0.086531
0.0875776
0.0903418
0.10212
0.108072
0.122669
0.182548
0.479886
0.478681
0.160378
0.0506303
0.0245307
0.0174303
0.0149865
0.0139361
0.013439
0.0132104
0.0131069
0.0130299
0.012901
0.0127024
0.0124492
0.0121403
0.0117721
0.0113616
0.0109146
0.0104004
0.0098487
0.00923301
0.00860862
0.00795108
0.00728144
0.00661608
0.00598341
0.00536757
0.00482614
0.00435056
0.00399978
0.00376915
0.00368396
0.00384611
0.00445879
0.00541523
0.0059375
0.00615567
0.00623396
0.00627777
0.00635811
0.00646403
0.00667998
0.00699428
0.0074063
0.00788946
0.00840333
0.00893415
0.00938833
0.00982556
0.0102117
0.0105044
0.0106801
0.0107495
0.0106659
0.0104525
0.0101554
0.00985536
0.00955533
0.00922015
0.00882952
0.00832391
0.0076912
0.00702902
0.0064864
0.00621897
0.00620284
0.00647921
0.00797841
0.0110481
0.0129301
0.0136169
0.0136688
0.0133807
0.0121155
0.0108872
0.01017
0.00974135
0.009447
0.00916102
0.00883324
0.00846551
0.00806854
0.00763171
0.00714894
0.0066509
0.00620749
0.00586444
0.00557433
0.00520244
0.00465084
0.00404716
0.00369643
0.00364345
0.00372579
0.00425945
0.00626608
0.00916736
0.0111366
0.0119847
0.0120683
0.011748
0.00992862
0.00804043
0.00680148
0.00669203
0.118693
0.120258
0.113494
0.108285
0.105335
0.102402
0.0997998
0.0957431
0.0924794
0.0927932
0.0971199
0.110879
0.114294
0.107166
0.0852196
0.065785
0.0590136
0.0579595
0.0618393
0.0716367
0.0890974
0.102013
0.109343
0.113787
0.115741
0.116407
0.116573
0.116043
0.114887
0.113635
0.111654
0.109768
0.107498
0.104908
0.102307
0.0994199
0.0966057
0.0940495
0.0918378
0.0896894
0.0876403
0.0860678
0.0848075
0.083764
0.0827218
0.0820523
0.0809639
0.0803914
0.0797131
0.0790489
0.0786028
0.0784413
0.0784986
0.0787097
0.0788724
0.0784944
0.0766231
0.0731417
0.0707453
0.0701405
0.0695595
0.0679775
0.0683272
0.070004
0.0764873
0.0966835
0.12578
0.161698
0.186373
0.187985
0.182807
0.176019
0.195979
0.35398
0.442184
0.170732
0.0513746
0.0225436
0.0158314
0.0139676
0.0133468
0.0130958
0.0128859
0.0127295
0.0126301
0.0124581
0.0122276
0.012002
0.011706
0.0113054
0.0108847
0.0104192
0.00989428
0.00934762
0.00875993
0.00813344
0.00750152
0.006851
0.0062297
0.00560546
0.00500541
0.00445706
0.00396713
0.00350074
0.00309587
0.00278685
0.00250551
0.00234232
0.00220872
0.00216554
0.00215898
0.00217134
0.00219113
0.00221033
0.00222412
0.0022253
0.00222992
0.00227415
0.00238336
0.00259414
0.00295171
0.00354092
0.00444355
0.00562084
0.00700873
0.00848939
0.00968265
0.0104777
0.010916
0.0110403
0.0109688
0.0106355
0.0101854
0.00982892
0.00956998
0.00932012
0.00895836
0.0083508
0.00753253
0.00669923
0.00609667
0.00581695
0.00580995
0.00618265
0.00815675
0.0118402
0.0142415
0.0152574
0.0153856
0.0151191
0.013799
0.0121711
0.0112268
0.0106802
0.0102915
0.00994676
0.00958695
0.00916684
0.00864655
0.00802037
0.00737164
0.00683796
0.0064936
0.0062981
0.0061415
0.00593398
0.0057007
0.00560222
0.00573903
0.00695594
0.0104261
0.0127239
0.0135728
0.0136928
0.0135804
0.0129562
0.0107189
0.00749802
0.00515026
0.00445309
0.0913911
0.111484
0.122366
0.120107
0.11189
0.103067
0.0940521
0.0922184
0.092778
0.0945586
0.105411
0.113298
0.106982
0.0963281
0.0836543
0.0752086
0.0766415
0.0845209
0.100887
0.111788
0.116178
0.117569
0.117812
0.116912
0.11564
0.113872
0.110809
0.106673
0.101715
0.0961364
0.0900161
0.0843564
0.0793687
0.0751562
0.0722234
0.0698023
0.0684906
0.0677722
0.0675117
0.0677165
0.0677651
0.0682251
0.068559
0.068951
0.069313
0.069549
0.0697225
0.0697852
0.0697507
0.0698114
0.0700364
0.0705589
0.0718309
0.0739677
0.0762113
0.0767184
0.0743225
0.0686616
0.0647198
0.0635803
0.0635596
0.0649838
0.0694666
0.0847148
0.12276
0.144831
0.175423
0.226004
0.278296
0.318825
0.328148
0.33056
0.346034
0.366142
0.187765
0.0575209
0.023266
0.0157326
0.0139583
0.013403
0.0130256
0.01255
0.0117994
0.011252
0.0109947
0.0107894
0.0105092
0.0100975
0.0095857
0.00901856
0.00841065
0.00771156
0.00696093
0.00624415
0.00552076
0.00486204
0.00422058
0.0035359
0.00305875
0.00255588
0.00206441
0.00175787
0.00147442
0.00129519
0.00121516
0.00119214
0.00120276
0.00131632
0.00147864
0.00172733
0.00199845
0.00224822
0.00242694
0.00251495
0.00254432
0.00244062
0.00224784
0.00202247
0.00178509
0.00156948
0.00141246
0.00132888
0.00131752
0.00140535
0.00174011
0.00251552
0.00412618
0.0064511
0.00883148
0.0102967
0.01098
0.0111141
0.0109621
0.0104566
0.00991725
0.00960281
0.00943052
0.00927317
0.00896707
0.0082249
0.00701906
0.00582545
0.00497068
0.00460803
0.00460288
0.00500147
0.00716293
0.0109878
0.0132067
0.0139546
0.0139803
0.013814
0.0130444
0.0119182
0.0111268
0.0105611
0.0100692
0.00956305
0.00899999
0.00835959
0.00766578
0.00701864
0.00652246
0.00620919
0.00605782
0.00602171
0.00603554
0.00617911
0.00691278
0.00944843
0.0119802
0.0131023
0.0132972
0.0132193
0.0128836
0.0118415
0.00879972
0.00594842
0.00435279
0.00355185
0.0744766
0.073948
0.07949
0.0820558
0.0827546
0.0842508
0.0867762
0.0909207
0.099987
0.108735
0.11092
0.109064
0.102939
0.0991178
0.100345
0.105327
0.109033
0.11293
0.115683
0.116447
0.116071
0.114593
0.110976
0.105297
0.0974135
0.0865858
0.0754911
0.0647088
0.0564923
0.0475862
0.0425982
0.0368589
0.0331982
0.0298495
0.0275171
0.0253171
0.0241932
0.0234636
0.0231888
0.023376
0.0240502
0.0251914
0.026907
0.0289765
0.0315237
0.03424
0.036979
0.0396912
0.0421989
0.0448904
0.0475793
0.0506416
0.0545034
0.0595982
0.0660274
0.0703143
0.0710682
0.0673183
0.0628616
0.0610652
0.0619507
0.0685708
0.0943596
0.143617
0.151246
0.156583
0.203935
0.300051
0.345832
0.353714
0.349418
0.335098
0.311619
0.192629
0.0610295
0.0251441
0.0162383
0.0143139
0.0137952
0.0134345
0.0127593
0.0110313
0.00872398
0.00744585
0.00682923
0.00621964
0.00579024
0.00556155
0.00516289
0.00462948
0.00415085
0.0036856
0.00320068
0.00278027
0.00232688
0.00202484
0.0017369
0.00146157
0.0013268
0.00123177
0.00119628
0.00119534
0.00127815
0.00139443
0.00158582
0.00200451
0.00263097
0.00351909
0.00465717
0.00603359
0.0074315
0.00866752
0.00954074
0.00993489
0.0100524
0.00954261
0.00860267
0.00737921
0.0060157
0.00464978
0.00341523
0.0023959
0.00165928
0.00121805
0.000996278
0.000938359
0.00103967
0.00151305
0.00290771
0.00584261
0.00877602
0.0103281
0.0108653
0.0108506
0.0104348
0.00981848
0.00944551
0.00928458
0.00915211
0.00888518
0.00821869
0.00702493
0.00567946
0.00451018
0.00383051
0.00366269
0.00375882
0.00452853
0.00739478
0.0100883
0.0115553
0.0120672
0.012045
0.0116966
0.0109732
0.0103397
0.00975455
0.00928995
0.00903702
0.00888254
0.00858167
0.00794026
0.00731403
0.00683109
0.00645909
0.00623617
0.00619612
0.00628408
0.00692263
0.00932286
0.0113152
0.0118209
0.0117854
0.0115451
0.0110064
0.00971237
0.0071297
0.00496124
0.00418053
0.0039266
0.0728406
0.0731867
0.0778108
0.0860967
0.088345
0.0955269
0.101258
0.106053
0.112773
0.114781
0.114543
0.112907
0.112138
0.113273
0.113897
0.113765
0.113565
0.113512
0.112862
0.109005
0.102154
0.0910058
0.0759735
0.0619616
0.0493633
0.0388731
0.0315616
0.0251781
0.0201197
0.0168646
0.0136021
0.0119235
0.0100995
0.00924315
0.00841852
0.00801742
0.00752606
0.00722532
0.00699958
0.00688256
0.00686002
0.00701397
0.00740491
0.00804019
0.00896064
0.0102449
0.0120191
0.0143561
0.0174616
0.0211365
0.025634
0.0307947
0.0368331
0.0437598
0.0528789
0.0627007
0.0683122
0.0676023
0.0630611
0.0608412
0.0646432
0.0946404
0.154186
0.158144
0.11602
0.155721
0.247208
0.301144
0.320374
0.322329
0.298434
0.240734
0.140999
0.0603091
0.0262844
0.0169991
0.0148194
0.0143241
0.0140995
0.0139123
0.0130918
0.0109735
0.00794377
0.00562352
0.0041674
0.00329355
0.00296442
0.00281756
0.00262275
0.0022534
0.00198627
0.00182597
0.00159602
0.00144794
0.00133008
0.00126914
0.00123465
0.00122456
0.00127902
0.00134826
0.00154951
0.00192346
0.00256364
0.00354585
0.00501199
0.00712544
0.00998181
0.0135332
0.0176406
0.0220074
0.0262632
0.0299728
0.0324414
0.0334011
0.0335407
0.03218
0.0297167
0.0262832
0.0220856
0.0175759
0.0135192
0.00968054
0.00642921
0.00400495
0.0023484
0.0013835
0.00092966
0.000809171
0.000897617
0.00142668
0.0033684
0.00689897
0.00925193
0.0102395
0.0104122
0.0101605
0.00958871
0.00921865
0.00903944
0.00887485
0.00851911
0.00751469
0.00610483
0.00477823
0.00368238
0.00301703
0.00280771
0.0028357
0.00322018
0.00504109
0.00743522
0.00848729
0.00890233
0.00903644
0.00897897
0.00862355
0.00822121
0.00799852
0.00791191
0.00790106
0.00793755
0.00796076
0.00796119
0.00793418
0.00776618
0.0072781
0.00692243
0.00686564
0.00711038
0.00850303
0.00965875
0.00981439
0.00971099
0.00937816
0.0086786
0.00687019
0.00472176
0.00387093
0.00388146
0.00439168
0.0774207
0.0802111
0.0902087
0.0975075
0.100524
0.103499
0.111701
0.116494
0.118233
0.118452
0.118137
0.117208
0.115942
0.114702
0.11335
0.111139
0.107766
0.10204
0.0912368
0.0746684
0.0584573
0.0444101
0.0347482
0.0253189
0.0198731
0.0145291
0.011869
0.00975524
0.00836312
0.00765381
0.00693346
0.00661563
0.006291
0.00611951
0.00593361
0.00553591
0.0052656
0.00482005
0.00440879
0.00395058
0.00351097
0.00309009
0.00268878
0.00241365
0.00227138
0.00223501
0.00237527
0.00269149
0.00323686
0.00415119
0.00564662
0.00810945
0.0124422
0.0202446
0.0319958
0.0477771
0.0610899
0.0671595
0.0659259
0.0625854
0.0725756
0.126519
0.165779
0.110134
0.100575
0.137678
0.186735
0.208655
0.214639
0.191981
0.147514
0.0947349
0.0493836
0.0264208
0.0176586
0.0153422
0.0148845
0.0149157
0.0153819
0.0155453
0.0151521
0.0128819
0.00908293
0.00577845
0.0037795
0.00268243
0.00218595
0.00192727
0.001693
0.00149111
0.00139593
0.00133516
0.00128343
0.00126686
0.00126501
0.00129924
0.0013824
0.00157324
0.00196171
0.00262461
0.00369739
0.00538829
0.00791262
0.0114721
0.0163306
0.0228019
0.0311354
0.0406382
0.0492388
0.0561117
0.058947
0.0598062
0.0599197
0.0595182
0.0582652
0.0570442
0.0554168
0.0533995
0.0506163
0.0463508
0.0397358
0.0315076
0.0224261
0.0148856
0.00907355
0.00507882
0.00263718
0.00136474
0.000867087
0.000804651
0.00103103
0.00220076
0.005488
0.00812292
0.00936959
0.0097325
0.00965749
0.00926816
0.00898035
0.00881651
0.00861806
0.00816844
0.00681159
0.00508936
0.00373024
0.00274094
0.00218002
0.00200246
0.00201526
0.00225467
0.00336071
0.00508492
0.00603642
0.00631105
0.0062887
0.00597906
0.00529105
0.00499891
0.0049501
0.0049985
0.00537046
0.0064791
0.00726443
0.00758129
0.00763219
0.00759947
0.00745431
0.00736808
0.00739609
0.00775727
0.00839376
0.00848391
0.00836297
0.00792503
0.00667897
0.00458123
0.00331163
0.00290206
0.00304958
0.00440088
0.0784641
0.0818789
0.0915619
0.0992658
0.106332
0.114298
0.117054
0.118021
0.118259
0.118122
0.117237
0.115577
0.112982
0.10928
0.103479
0.0942398
0.0794847
0.0628411
0.0471166
0.0359574
0.0260967
0.0192471
0.0146667
0.0116855
0.00995262
0.0090474
0.00861313
0.00841025
0.00834365
0.00833312
0.00860401
0.00888703
0.00909855
0.00922258
0.00904928
0.008538
0.00792046
0.00710719
0.0061912
0.00514767
0.00419288
0.00332287
0.00256883
0.00199705
0.00157024
0.0012518
0.00101229
0.000871921
0.00080812
0.000842133
0.00102097
0.00143938
0.00235566
0.00439767
0.00861437
0.0187011
0.040661
0.0596292
0.0661562
0.0666061
0.0756114
0.132456
0.163098
0.092196
0.0810771
0.0998402
0.115664
0.120751
0.109774
0.087748
0.063924
0.0393249
0.0247959
0.018157
0.0158363
0.0153473
0.0154409
0.0167455
0.0189461
0.0199189
0.020293
0.0182823
0.0121232
0.00664774
0.00401329
0.00274252
0.00213579
0.00177396
0.00152136
0.00141008
0.00136123
0.00133929
0.00133158
0.00138411
0.00150839
0.00177915
0.00226294
0.00311812
0.0045599
0.00680815
0.0101737
0.0152015
0.0225244
0.033167
0.0473058
0.0594998
0.0668299
0.0696727
0.0705699
0.0704623
0.0689224
0.066805
0.0650817
0.0636121
0.0621552
0.0609967
0.0599926
0.0592064
0.058585
0.0580261
0.0573346
0.0555627
0.0513691
0.0420359
0.0290565
0.0174423
0.00958178
0.00475835
0.00220574
0.00110759
0.000841091
0.000967008
0.00185945
0.00477978
0.00724651
0.00851418
0.00900413
0.00907839
0.00896281
0.00878124
0.00861436
0.00832319
0.00762964
0.0058005
0.00404901
0.00281317
0.00199689
0.00155576
0.00141355
0.00141782
0.00155534
0.00216219
0.00298835
0.00343576
0.00355815
0.00353652
0.00335712
0.0029468
0.0026675
0.00257676
0.00263163
0.00310308
0.00470922
0.00569918
0.00592545
0.00618001
0.00654619
0.00678901
0.0071725
0.00777237
0.00799812
0.00793233
0.00751925
0.00618103
0.00400068
0.00250961
0.00172116
0.00162443
0.00207473
0.00410282
0.0798271
0.0860277
0.0978981
0.10489
0.111767
0.114585
0.115961
0.116397
0.116128
0.114637
0.111721
0.106722
0.0987161
0.0855914
0.0706941
0.0552329
0.0426612
0.0314059
0.0225946
0.0173372
0.0133897
0.0115369
0.0106566
0.0102732
0.010166
0.0104716
0.011595
0.0131887
0.015286
0.0176253
0.0197317
0.0210824
0.0218486
0.0221146
0.021365
0.0198155
0.0182467
0.0161787
0.0137956
0.0112844
0.00883384
0.00656388
0.00458711
0.00304315
0.00201652
0.00136065
0.000973798
0.000726412
0.000559503
0.000443375
0.000371253
0.000365335
0.000484323
0.000880449
0.00197121
0.00483428
0.0124066
0.034768
0.0582314
0.0668563
0.075382
0.120972
0.168893
0.091236
0.0636825
0.0694004
0.075635
0.0713027
0.0581074
0.043128
0.0325578
0.0230025
0.0183439
0.0163149
0.0157353
0.0157469
0.0176756
0.0210988
0.0235817
0.0253211
0.0259034
0.0230645
0.0140048
0.0072227
0.00431681
0.00291595
0.00219854
0.00177988
0.00155877
0.00148432
0.00147038
0.00152577
0.00165188
0.00191162
0.0024029
0.0032772
0.00474923
0.00723517
0.0113134
0.0177244
0.0279281
0.0445901
0.0580364
0.0690583
0.0744175
0.0772945
0.0781393
0.0774661
0.0740602
0.071354
0.0683631
0.064762
0.0616841
0.0594221
0.0580107
0.056583
0.0558242
0.0556153
0.0559328
0.0568774
0.0580253
0.059018
0.0595587
0.0594942
0.0566905
0.0462624
0.0292474
0.0157387
0.00756819
0.00330313
0.0014544
0.000939851
0.0010241
0.00188952
0.00460851
0.00667729
0.00781262
0.00837977
0.00862506
0.00868403
0.00865061
0.00846795
0.00794984
0.0064437
0.0044055
0.00291656
0.00195343
0.00137732
0.00109287
0.00100461
0.00100318
0.00104767
0.00123139
0.00145623
0.00155525
0.00156504
0.00153369
0.00139161
0.00122161
0.00114382
0.00114326
0.00125901
0.0019159
0.00254058
0.00260103
0.00257585
0.00274922
0.00388982
0.00599203
0.00693406
0.00697275
0.0066386
0.00515299
0.00292318
0.00163698
0.00102801
0.000926924
0.00110176
0.00201423
0.00483756
0.0809036
0.0910574
0.100034
0.107233
0.111766
0.113142
0.113333
0.112054
0.10913
0.10337
0.0931207
0.0800276
0.0654772
0.0529019
0.0406082
0.0305904
0.0224673
0.0170007
0.0138338
0.0123505
0.0117351
0.011593
0.0118916
0.0135873
0.0167647
0.0221191
0.0295684
0.0345961
0.0399584
0.0428505
0.044979
0.0459096
0.0462267
0.0457228
0.0448766
0.0429023
0.0399445
0.0357103
0.0305693
0.0245427
0.0191243
0.013992
0.00972131
0.00623594
0.00384823
0.00228801
0.00139672
0.000902627
0.000620227
0.000449242
0.000329896
0.000249266
0.000206837
0.000228004
0.000420504
0.00117404
0.00343325
0.00957034
0.0300047
0.0566491
0.0696158
0.0864785
0.160355
0.119488
0.0628456
0.0521032
0.0511071
0.0454122
0.0366289
0.0270774
0.0223219
0.0186423
0.0169239
0.0161708
0.0158983
0.0167643
0.0193983
0.0241507
0.0284493
0.030309
0.0309775
0.0263879
0.0147252
0.00728355
0.0045605
0.00325777
0.00239936
0.00194273
0.00178399
0.00176174
0.00188505
0.0021518
0.00256064
0.00327452
0.00448604
0.00671229
0.0105399
0.0172843
0.0291838
0.0471762
0.0640014
0.0737729
0.0808281
0.0837642
0.0846287
0.0836055
0.0801778
0.0772839
0.0720066
0.0665431
0.0617594
0.0574674
0.0529858
0.0487378
0.0454524
0.0437888
0.0424896
0.0417609
0.0416789
0.0429498
0.0461911
0.0510812
0.0559331
0.0597304
0.0620792
0.0627032
0.0589566
0.0425261
0.022667
0.0106361
0.00442934
0.00179664
0.00106361
0.00114037
0.00214985
0.00463626
0.00624566
0.00722892
0.00787101
0.00825131
0.00839813
0.00839527
0.00819747
0.00727623
0.00501947
0.00314902
0.00197027
0.00129653
0.000930495
0.000755596
0.000697664
0.000683118
0.000666951
0.000667926
0.000692055
0.000705802
0.000701083
0.000666496
0.000567594
0.000493757
0.000476449
0.000502695
0.000668075
0.000745401
0.000706289
0.000672035
0.000777627
0.00162218
0.00392562
0.00472309
0.00459974
0.00353957
0.00182495
0.000947665
0.000567506
0.000518334
0.000634642
0.00129972
0.00397952
0.0102531
0.0810457
0.092764
0.0998749
0.10684
0.109762
0.11
0.10766
0.101592
0.0912797
0.078344
0.0661391
0.0530783
0.0415367
0.0323134
0.0245412
0.0183486
0.0149716
0.0132993
0.012677
0.0125242
0.0130789
0.0153946
0.0205285
0.0300871
0.039164
0.046413
0.0498734
0.0523839
0.0535408
0.0540179
0.0541733
0.0539895
0.0536139
0.0531501
0.0528906
0.052428
0.0519559
0.0510621
0.0490189
0.0452204
0.0385568
0.0294192
0.019073
0.0119266
0.00713664
0.00401586
0.00222356
0.0012869
0.000810721
0.000548747
0.000392867
0.000282497
0.000200584
0.000155412
0.00015041
0.000253401
0.000760466
0.00255376
0.00778095
0.0258561
0.0553974
0.0686466
0.118808
0.141683
0.0859371
0.0534816
0.044337
0.0351182
0.028442
0.0225809
0.0197621
0.0179919
0.016891
0.0163464
0.0166806
0.0185565
0.0223014
0.0278192
0.031364
0.0343388
0.0351773
0.0291909
0.0155843
0.00727498
0.00506672
0.00411739
0.00315704
0.00248605
0.00234977
0.00254492
0.00315143
0.00373999
0.00462255
0.00592383
0.0086314
0.0139416
0.0237852
0.0421167
0.062309
0.0762866
0.0850575
0.0892025
0.0909264
0.0911251
0.0880868
0.0846643
0.0789235
0.072841
0.0665334
0.0637689
0.0607235
0.0570632
0.0522048
0.0466864
0.0404239
0.036754
0.0351409
0.0341406
0.0331654
0.0321626
0.0315221
0.0323797
0.0367245
0.0451053
0.0553496
0.0624052
0.065755
0.0656816
0.0539064
0.0291939
0.0133366
0.00530609
0.00203532
0.00118708
0.00130045
0.00256282
0.00458619
0.00579129
0.00668116
0.00739951
0.00785719
0.00801539
0.00798181
0.0075483
0.00580014
0.00365079
0.00217256
0.00129848
0.000837883
0.000620193
0.000531171
0.000493024
0.000460138
0.000428207
0.000417731
0.000417903
0.000415458
0.00040146
0.000355106
0.000297767
0.000267362
0.000264744
0.000274124
0.000273209
0.000260294
0.000269507
0.000398713
0.00118805
0.00215497
0.00224495
0.00193213
0.00103938
0.000504107
0.000293571
0.000274839
0.00035457
0.000881505
0.00316416
0.0114138
0.0315181
0.0807591
0.0930599
0.0989536
0.103414
0.104234
0.102095
0.0947465
0.0835015
0.0710054
0.0584427
0.0464891
0.0354804
0.0277943
0.021595
0.0171322
0.0146053
0.0135836
0.0132933
0.0133222
0.0149479
0.0195936
0.0298809
0.0418809
0.0497174
0.0537022
0.0555605
0.0560365
0.0555216
0.0547844
0.054075
0.0537993
0.0532783
0.0530398
0.0527551
0.0525536
0.0523997
0.0526768
0.0530292
0.052816
0.0522824
0.050069
0.0466928
0.0387147
0.0236983
0.0133174
0.00720187
0.00366355
0.00183745
0.000975775
0.000593222
0.000411378
0.000307648
0.000235511
0.000167943
0.000126946
0.000117365
0.000160533
0.000488894
0.00190653
0.00646678
0.0230523
0.0511671
0.0692598
0.12745
0.125669
0.0767027
0.0485046
0.0355297
0.0281465
0.0225703
0.0197313
0.0181489
0.017259
0.0170302
0.0174579
0.0189937
0.0225713
0.0292625
0.0350328