/*--------------------------------*- C++ -*----------------------------------*\
  =========                 |
  \\      /  F ield         | OpenFOAM: The Open Source CFD Toolbox
   \\    /   O peration     | Website:  https://openfoam.org
    \\  /    A nd           | Version:  9
     \\/     M anipulation  |
\*---------------------------------------------------------------------------*/
FoamFile
{
    format      ascii;
    class       volScalarField;
    location    "0.079";
    object      p;
}
// * * * * * * * * * * * * * * * * * * * * * * * * * * * * * * * * * * * * * //

dimensions      [0 2 -2 0 0 0 0];

internalField   nonuniform List<scalar> 
12225
(
-141.589
-138.724
-137.551
-137.105
-137.057
-137.12
-137.225
-137.3
-137.25
-137.02
-136.623
-136.092
-135.488
-134.809
-134.049
-133.073
-132.004
-130.411
-140.65
-138.664
-137.507
-137.083
-137.057
-137.132
-137.242
-137.316
-137.263
-137.036
-136.646
-136.13
-135.536
-134.872
-134.122
-133.202
-132.16
-130.985
-140.08
-138.525
-137.414
-137.044
-137.047
-137.134
-137.252
-137.328
-137.278
-137.06
-136.692
-136.206
-135.635
-134.986
-134.251
-133.386
-132.458
-131.501
-141.619
-138.341
-137.234
-136.958
-137.028
-137.158
-137.291
-137.37
-137.32
-137.114
-136.765
-136.301
-135.75
-135.121
-134.417
-133.625
-132.79
-131.951
-141.491
-138.076
-137.028
-136.855
-136.991
-137.16
-137.315
-137.41
-137.375
-137.187
-136.858
-136.417
-135.886
-135.283
-134.619
-133.893
-133.132
-132.371
-140.493
-137.487
-136.688
-136.686
-136.944
-137.193
-137.386
-137.494
-137.468
-137.29
-136.979
-136.562
-136.062
-135.494
-134.871
-134.198
-133.498
-132.804
-138.632
-136.89
-136.317
-136.496
-136.874
-137.203
-137.44
-137.574
-137.57
-137.415
-137.129
-136.739
-136.267
-135.73
-135.145
-134.523
-133.885
-133.26
-135.396
-135.686
-135.813
-136.261
-136.814
-137.258
-137.556
-137.718
-137.73
-137.592
-137.325
-136.958
-136.515
-136.014
-135.469
-134.895
-134.311
-133.743
-135.657
-134.753
-135.187
-135.98
-136.743
-137.305
-137.666
-137.868
-137.91
-137.796
-137.553
-137.214
-136.801
-136.332
-135.825
-135.299
-134.77
-134.258
-135.648
-133.664
-134.473
-135.73
-136.736
-137.42
-137.852
-138.096
-138.16
-138.062
-137.837
-137.52
-137.135
-136.697
-136.226
-135.741
-135.26
-134.798
-131.619
-131.845
-133.649
-135.418
-136.725
-137.564
-138.074
-138.362
-138.455
-138.378
-138.174
-137.88
-137.519
-137.108
-136.67
-136.223
-135.787
-135.378
-125.923
-129.917
-132.985
-135.25
-136.82
-137.794
-138.368
-138.689
-138.8
-138.733
-138.538
-138.258
-137.915
-137.528
-137.117
-136.702
-136.298
-135.922
-120.47
-128.137
-132.407
-135.138
-136.971
-138.09
-138.733
-139.087
-139.211
-139.149
-138.962
-138.691
-138.361
-137.991
-137.601
-137.212
-136.836
-136.489
-117.009
-126.636
-132.11
-135.307
-137.379
-138.609
-139.287
-139.651
-139.775
-139.71
-139.521
-139.255
-138.933
-138.576
-138.203
-137.833
-137.479
-137.152
-112.985
-125.835
-132.285
-135.866
-138.121
-139.423
-140.119
-140.471
-140.572
-140.484
-140.278
-139.999
-139.671
-139.312
-138.944
-138.584
-138.242
-137.929
-118.966
-128.228
-134.11
-137.557
-139.695
-140.899
-141.481
-141.71
-141.706
-141.545
-141.285
-140.964
-140.604
-140.227
-139.85
-139.488
-139.147
-138.834
-124.996
-133.144
-138.056
-140.685
-142.248
-143.092
-143.436
-143.45
-143.279
-142.997
-142.645
-142.248
-141.828
-141.4
-140.981
-140.582
-140.213
-139.876
-137.16
-142.475
-145.188
-146.061
-146.495
-146.604
-146.402
-146.017
-145.542
-145.012
-144.455
-143.897
-143.352
-142.828
-142.33
-141.865
-141.437
-141.043
-165.012
-159.012
-155.844
-154.007
-152.687
-151.498
-150.417
-149.418
-148.474
-147.588
-146.76
-145.98
-145.248
-144.569
-143.944
-143.37
-142.842
-142.359
-172.695
-168.347
-163.981
-160.824
-158.248
-156.06
-154.219
-152.632
-151.225
-149.974
-148.856
-147.847
-146.926
-146.086
-145.324
-144.63
-143.994
-143.403
-185.374
-175.849
-169.599
-165.304
-161.938
-159.193
-156.885
-154.906
-153.194
-151.698
-150.38
-149.2
-148.143
-147.19
-146.329
-145.55
-144.839
-144.204
-188.866
-180.034
-173.495
-168.554
-164.687
-161.535
-158.877
-156.61
-154.668
-152.987
-151.509
-150.204
-149.04
-147.995
-147.051
-146.195
-145.415
-144.698
-189.33
-181.801
-175.544
-170.562
-166.521
-163.166
-160.313
-157.877
-155.79
-153.974
-152.377
-150.968
-149.715
-148.592
-147.583
-146.676
-145.854
-145.1
-190.068
-183.195
-177.199
-172.02
-167.813
-164.281
-161.283
-158.731
-156.54
-154.633
-152.964
-151.495
-150.19
-149.018
-147.963
-147.012
-146.152
-145.369
-193.292
-184.062
-177.952
-172.939
-168.686
-165.089
-162.007
-159.372
-157.105
-155.128
-153.394
-151.87
-150.517
-149.307
-148.222
-147.246
-146.362
-145.556
-194.926
-185.751
-178.748
-173.547
-169.222
-165.555
-162.422
-159.747
-157.445
-155.437
-153.675
-152.122
-150.744
-149.511
-148.402
-147.406
-146.504
-145.679
-192.863
-185.187
-179.034
-173.946
-169.626
-165.917
-162.74
-160.035
-157.704
-155.664
-153.87
-152.289
-150.886
-149.633
-148.51
-147.504
-146.594
-145.763
-189.329
-184.699
-179.124
-174.112
-169.799
-166.078
-162.891
-160.18
-157.839
-155.787
-153.981
-152.387
-150.974
-149.714
-148.587
-147.575
-146.657
-145.813
-188.667
-184.387
-179.152
-174.23
-169.947
-166.203
-162.994
-160.274
-157.93
-155.871
-154.052
-152.443
-151.013
-149.74
-148.609
-147.597
-146.682
-145.842
-187.331
-184.207
-179.162
-174.254
-169.976
-166.231
-163.025
-160.308
-157.961
-155.895
-154.07
-152.459
-151.032
-149.764
-148.635
-147.623
-146.703
-145.853
-138.908
-139.125
-139.488
-139.84
-140.051
-140.065
-139.873
-139.505
-139.039
-138.612
-138.321
-138.18
-138.096
-137.992
-137.852
-137.689
-137.523
-137.358
-137.19
-137.014
-136.83
-136.636
-136.43
-136.207
-135.962
-135.692
-135.389
-135.048
-134.661
-134.22
-133.714
-133.136
-132.477
-131.728
-130.885
-129.944
-128.906
-127.775
-126.556
-125.28
-123.99
-122.678
-121.28
-119.781
-118.293
-116.863
-115.473
-114.088
-112.692
-111.235
-109.752
-108.34
-107.048
-105.925
-105.028
-104.389
-104.014
-103.889
-103.968
-104.193
-104.529
-104.955
-105.422
-105.875
-106.327
-106.804
-107.268
-107.646
-107.764
-107.426
-106.568
-105.136
-103.948
-103.772
-102.88
-101.463
-100.966
-101.09
-101.148
-101.867
-103.625
-105.924
-108.399
-110.86
-113.24
-115.53
-117.756
-119.961
-122.187
-124.476
-126.861
-129.371
-132.026
-134.837
-137.808
-140.93
-144.181
-147.526
-150.917
-154.29
-157.566
-160.656
-163.456
-165.856
-167.739
-168.988
-169.491
-169.149
-167.877
-165.616
-162.344
-158.103
-152.973
-147.076
-140.564
-133.611
-126.396
-119.098
-111.876
-104.87
-98.1933
-91.9338
-86.1515
-80.8834
-76.1488
-71.9501
-68.2773
-65.1202
-62.4307
-60.1534
-58.2513
-56.677
-55.383
-54.323
-53.4529
-52.731
-52.119
-51.5838
-51.0993
-50.6481
-50.2207
-49.8192
-49.4473
-49.1023
-48.7622
-48.4066
-48.029
-47.6314
-47.2206
-46.8009
-46.3733
-45.9318
-45.4655
-44.9621
-44.4136
-43.8188
-43.1823
-42.5085
-41.803
-41.0725
-40.3244
-39.5643
-38.7885
-37.9828
-37.1365
-36.2656
-35.4085
-34.5931
-33.8042
-33.0215
-32.236
-31.3877
-30.3854
-29.2222
-28.0138
-26.7657
-25.3993
-24.0175
-22.6026
-20.6646
-139.37
-139.659
-140.176
-140.641
-140.912
-140.971
-140.834
-140.515
-140.001
-139.329
-138.82
-138.52
-138.383
-138.27
-138.126
-137.941
-137.737
-137.534
-137.338
-137.146
-136.955
-136.762
-136.561
-136.349
-136.12
-135.869
-135.588
-135.27
-134.905
-134.483
-133.993
-133.425
-132.769
-132.016
-131.162
-130.201
-129.135
-127.973
-126.734
-125.467
-124.245
-122.97
-121.465
-119.815
-118.217
-116.733
-115.326
-113.945
-112.567
-111.155
-109.72
-108.364
-107.136
-106.063
-105.206
-104.606
-104.269
-104.171
-104.27
-104.503
-104.837
-105.277
-105.786
-106.291
-106.808
-107.376
-107.946
-108.399
-108.554
-108.316
-107.629
-106.287
-104.999
-104.216
-102.987
-101.217
-100.471
-100.752
-101.422
-102.661
-104.572
-106.834
-109.178
-111.474
-113.687
-115.828
-117.933
-120.045
-122.206
-124.453
-126.815
-129.317
-131.978
-134.81
-137.813
-140.977
-144.282
-147.69
-151.149
-154.594
-157.945
-161.107
-163.977
-166.442
-168.382
-169.677
-170.214
-169.888
-168.616
-166.334
-163.04
-158.765
-153.591
-147.64
-141.07
-134.057
-126.785
-119.433
-112.163
-105.116
-98.4039
-92.1143
-86.3052
-81.0134
-76.2572
-72.038
-68.341
-65.186
-62.471
-60.1804
-58.2679
-56.6857
-55.386
-54.3226
-53.4514
-52.7307
-52.1214
-51.5884
-51.1039
-50.6535
-50.2357
-49.8477
-49.484
-49.138
-48.782
-48.409
-48.0149
-47.615
-47.2123
-46.8003
-46.3763
-45.9364
-45.4706
-44.9669
-44.4176
-43.8228
-43.1869
-42.5139
-41.8083
-41.0773
-40.3288
-39.5688
-38.7934
-37.9902
-37.1451
-36.2707
-35.4099
-34.5958
-33.8059
-33.0236
-32.2446
-31.413
-30.4047
-29.235
-28.0323
-26.8059
-25.4467
-24.0789
-22.7228
-21.1373
-139.337
-139.601
-140.13
-140.673
-141.045
-141.195
-141.156
-140.967
-140.556
-139.947
-139.436
-139.119
-138.999
-138.902
-138.732
-138.493
-138.226
-137.965
-137.731
-137.521
-137.329
-137.147
-136.966
-136.778
-136.577
-136.354
-136.102
-135.812
-135.474
-135.075
-134.603
-134.045
-133.39
-132.629
-131.753
-130.757
-129.645
-128.415
-127.088
-125.661
-124.173
-122.666
-121.145
-119.6
-118.055
-116.546
-115.062
-113.613
-112.201
-110.825
-109.502
-108.259
-107.14
-106.182
-105.432
-104.939
-104.706
-104.694
-104.814
-105.007
-105.282
-105.661
-106.118
-106.652
-107.319
-108.142
-109.061
-109.966
-110.565
-110.435
-109.45
-107.753
-105.825
-103.73
-101.412
-100.15
-100.542
-101.559
-102.912
-104.57
-106.455
-108.444
-110.445
-112.413
-114.347
-116.263
-118.193
-120.172
-122.237
-124.419
-126.745
-129.237
-131.912
-134.78
-137.84
-141.08
-144.478
-147.992
-151.568
-155.137
-158.613
-161.901
-164.894
-167.476
-169.524
-170.917
-171.535
-171.274
-170.057
-167.763
-164.431
-160.093
-154.833
-148.778
-142.092
-134.962
-127.576
-120.12
-112.757
-105.63
-98.8506
-92.5031
-86.6438
-81.3076
-76.511
-72.2545
-68.5264
-65.3268
-62.5832
-60.2647
-58.3275
-56.7246
-55.4092
-54.3353
-53.4589
-52.7376
-52.1315
-51.6055
-51.1317
-50.6913
-50.2757
-49.8832
-49.5119
-49.1507
-48.7916
-48.4222
-48.04
-47.6428
-47.2321
-46.812
-46.3848
-45.9462
-45.483
-44.981
-44.4324
-43.8364
-43.1974
-42.5225
-41.8158
-41.0831
-40.3333
-39.5765
-38.8082
-38.0067
-37.1577
-36.2785
-35.4119
-34.589
-33.803
-33.0397
-32.2707
-31.4344
-30.4366
-29.2742
-28.0621
-26.8597
-25.5467
-24.2204
-22.929
-21.5197
-138.184
-138.312
-138.772
-139.338
-139.866
-140.271
-140.498
-140.615
-140.596
-140.452
-140.344
-140.206
-140.01
-139.792
-139.541
-139.254
-138.946
-138.66
-138.404
-138.181
-137.982
-137.8
-137.634
-137.483
-137.343
-137.2
-137.039
-136.839
-136.581
-136.247
-135.818
-135.279
-134.617
-133.82
-132.884
-131.807
-130.596
-129.267
-127.827
-126.322
-124.763
-123.182
-121.583
-119.954
-118.335
-116.754
-115.214
-113.736
-112.317
-110.964
-109.688
-108.504
-107.438
-106.526
-105.819
-105.377
-105.204
-105.225
-105.327
-105.464
-105.672
-105.983
-106.391
-106.988
-107.89
-109.131
-110.646
-112.246
-113.509
-113.857
-112.994
-110.912
-107.819
-104.777
-102.835
-102.155
-102.545
-103.601
-104.975
-106.527
-108.182
-109.877
-111.57
-113.251
-114.932
-116.638
-118.402
-120.256
-122.23
-124.353
-126.649
-129.139
-131.841
-134.764
-137.906
-141.257
-144.787
-148.456
-152.203
-155.954
-159.618
-163.093
-166.27
-169.027
-171.239
-172.777
-173.515
-173.341
-172.186
-169.889
-166.521
-162.101
-156.716
-150.505
-143.645
-136.335
-128.778
-121.163
-113.661
-106.415
-99.5348
-93.1029
-87.1725
-81.7748
-76.9229
-72.6139
-68.8366
-65.5801
-62.7893
-60.4273
-58.4508
-56.8135
-55.4695
-54.3741
-53.4843
-52.7573
-52.1513
-51.6283
-51.159
-50.7255
-50.3183
-49.9335
-49.5654
-49.2006
-48.8348
-48.4574
-48.0685
-47.6678
-47.2569
-46.8375
-46.4089
-45.9658
-45.4976
-44.9916
-44.4393
-43.8404
-43.2013
-42.529
-41.8259
-41.094
-40.3432
-39.5864
-38.8204
-38.0232
-37.1766
-36.2931
-35.4138
-34.5875
-33.8097
-33.0623
-32.3034
-31.4682
-30.4697
-29.3051
-28.0928
-26.9197
-25.6692
-24.3833
-23.1663
-21.9012
-137.95
-138.026
-138.428
-138.936
-139.5
-140.007
-140.371
-140.78
-141.075
-141.12
-141.188
-141.232
-141.119
-140.873
-140.585
-140.265
-139.928
-139.597
-139.302
-139.073
-138.924
-138.855
-138.849
-138.883
-138.931
-138.966
-138.963
-138.895
-138.738
-138.468
-138.066
-137.517
-136.81
-135.938
-134.897
-133.692
-132.344
-130.859
-129.259
-127.576
-125.848
-124.106
-122.363
-120.634
-118.943
-117.307
-115.737
-114.243
-112.828
-111.493
-110.239
-109.076
-108.018
-107.096
-106.37
-105.896
-105.685
-105.647
-105.663
-105.694
-105.763
-105.956
-106.38
-107.095
-108.155
-109.626
-111.581
-113.878
-115.888
-116.687
-115.889
-113.64
-110.587
-107.532
-105.633
-104.865
-105.061
-105.842
-106.951
-108.245
-109.633
-111.056
-112.486
-113.923
-115.389
-116.916
-118.538
-120.283
-122.18
-124.254
-126.531
-129.034
-131.78
-134.781
-138.037
-141.534
-145.245
-149.123
-153.103
-157.101
-161.021
-164.754
-168.183
-171.183
-173.622
-175.364
-176.271
-176.207
-175.042
-172.833
-169.434
-164.901
-159.338
-152.905
-145.797
-138.233
-130.431
-122.595
-114.898
-107.485
-100.465
-93.9162
-87.8892
-82.4112
-77.4906
-73.1179
-69.2801
-65.9577
-63.1047
-60.6851
-58.6569
-56.9736
-55.5894
-54.461
-53.5472
-52.8063
-52.196
-51.6762
-51.2136
-50.7852
-50.3791
-49.9909
-49.6182
-49.2517
-48.8828
-48.5042
-48.1143
-47.7132
-47.3002
-46.8752
-46.4375
-45.9839
-45.5063
-44.9945
-44.4413
-43.8447
-43.2072
-42.5349
-41.8325
-41.1002
-40.3485
-39.5919
-38.8312
-38.0404
-37.2
-36.3151
-35.4309
-34.5944
-33.8171
-33.0815
-32.3322
-31.4877
-30.4839
-29.3245
-28.1253
-26.9779
-25.7908
-24.5721
-23.4258
-22.2754
-138.252
-138.472
-138.945
-139.45
-140.044
-140.502
-140.67
-140.944
-141.277
-141.614
-141.875
-141.865
-141.772
-141.614
-141.409
-141.168
-140.921
-140.721
-140.614
-140.614
-140.711
-140.891
-141.134
-141.409
-141.682
-141.915
-142.075
-142.126
-142.041
-141.794
-141.368
-140.753
-139.946
-138.949
-137.759
-136.374
-134.806
-133.091
-131.265
-129.362
-127.42
-125.471
-123.539
-121.65
-119.825
-118.084
-116.437
-114.891
-113.448
-112.107
-110.864
-109.717
-108.668
-107.731
-106.945
-106.361
-105.987
-105.84
-105.698
-105.57
-105.488
-105.654
-106.086
-106.742
-107.729
-109.212
-111.138
-113.297
-115.265
-116.182
-115.663
-113.856
-111.388
-109.063
-107.534
-106.926
-107.066
-107.68
-108.587
-109.667
-110.835
-112.03
-113.231
-114.45
-115.721
-117.085
-118.578
-120.228
-122.061
-124.101
-126.376
-128.912
-131.729
-134.842
-138.252
-141.95
-145.905
-150.065
-154.356
-158.684
-162.94
-167.006
-170.758
-174.068
-176.799
-178.808
-179.944
-180.059
-179.029
-176.806
-173.326
-168.627
-162.819
-156.08
-148.633
-140.724
-132.595
-124.462
-116.507
-108.873
-101.666
-94.9607
-88.8022
-83.215
-78.2031
-73.7536
-69.8478
-66.4534
-63.5279
-61.037
-58.9438
-57.2043
-55.7713
-54.6005
-53.6516
-52.8849
-52.2587
-51.7334
-51.2738
-50.8523
-50.4528
-50.068
-49.6924
-49.3194
-48.9444
-48.5629
-48.1709
-47.7666
-47.3496
-46.9187
-46.4722
-46.0073
-45.519
-44.9992
-44.4403
-43.8399
-43.2018
-42.5333
-41.8368
-41.1105
-40.361
-39.6041
-38.8457
-38.0577
-37.2272
-36.3437
-35.4469
-34.6071
-33.8274
-33.0959
-32.3467
-31.4937
-30.4839
-29.3381
-28.1594
-27.0377
-25.9165
-24.7631
-23.6746
-22.6379
-138.65
-139.018
-139.394
-139.716
-140.18
-140.508
-140.816
-141.404
-141.553
-141.742
-141.941
-142.062
-142.117
-142.133
-142.136
-142.151
-142.206
-142.337
-142.577
-142.929
-143.373
-143.88
-144.415
-144.937
-145.408
-145.793
-146.058
-146.173
-146.109
-145.845
-145.366
-144.66
-143.725
-142.57
-141.143
-139.505
-137.679
-135.699
-133.6
-131.425
-129.218
-127.017
-124.857
-122.768
-120.772
-118.885
-117.12
-115.482
-113.972
-112.586
-111.318
-110.16
-109.103
-108.14
-107.278
-106.546
-105.978
-105.575
-105.267
-105.023
-104.858
-104.972
-105.285
-105.717
-106.381
-107.409
-108.859
-110.456
-111.697
-112.314
-112.101
-111.145
-109.855
-108.73
-108.09
-107.992
-108.34
-109.004
-109.879
-110.873
-111.897
-112.899
-113.877
-114.868
-115.932
-117.126
-118.494
-120.059
-121.841
-123.865
-126.161
-128.756
-131.678
-134.945
-138.566
-142.531
-146.807
-151.334
-156.025
-160.768
-165.439
-169.91
-174.052
-177.734
-180.82
-183.162
-184.595
-184.945
-184.053
-181.842
-178.279
-173.375
-167.246
-160.102
-152.209
-143.852
-135.302
-126.794
-118.517
-110.61
-103.174
-96.2718
-89.9441
-84.2109
-79.0733
-74.5199
-70.5308
-67.0558
-64.0516
-61.4797
-59.3072
-57.4978
-56.0067
-54.7874
-53.7974
-52.9984
-52.35
-51.8104
-51.3431
-50.9215
-50.5265
-50.1445
-49.7692
-49.3972
-49.0219
-48.6357
-48.2375
-47.828
-47.4062
-46.9697
-46.5157
-46.0405
-45.5393
-45.0075
-44.4417
-43.841
-43.2069
-42.5413
-41.8465
-41.1218
-40.3732
-39.6176
-38.8643
-38.0962
-37.2636
-36.3794
-35.4899
-34.6264
-33.8369
-33.0961
-32.3381
-31.4748
-30.4634
-29.3403
-28.1957
-27.1037
-26.0344
-24.9467
-23.9234
-22.9891
-137.998
-138.291
-138.574
-138.954
-139.45
-139.822
-140.151
-140.562
-140.972
-141.343
-141.66
-141.941
-142.212
-142.498
-142.825
-143.217
-143.692
-144.26
-144.921
-145.659
-146.451
-147.266
-148.073
-148.839
-149.527
-150.102
-150.53
-150.777
-150.813
-150.605
-150.127
-149.356
-148.279
-146.904
-145.283
-143.412
-141.314
-139.028
-136.601
-134.086
-131.536
-129.005
-126.538
-124.17
-121.927
-119.826
-117.876
-116.08
-114.434
-112.933
-111.569
-110.332
-109.207
-108.181
-107.245
-106.397
-105.648
-105.028
-104.531
-104.159
-103.912
-103.872
-103.905
-103.933
-104.219
-104.764
-105.568
-106.503
-107.397
-107.966
-108.123
-107.961
-107.72
-107.64
-107.835
-108.307
-109.014
-109.899
-110.892
-111.904
-112.84
-113.664
-114.406
-115.157
-116.011
-117.037
-118.281
-119.766
-121.51
-123.533
-125.868
-128.548
-131.607
-135.073
-138.96
-143.262
-147.943
-152.928
-158.112
-163.362
-168.534
-173.488
-178.092
-182.217
-185.73
-188.477
-190.278
-190.921
-190.196
-188.031
-184.375
-179.197
-172.641
-164.967
-156.5
-147.577
-138.51
-129.553
-120.898
-112.68
-104.982
-97.8583
-91.3353
-85.4267
-80.1301
-75.4338
-71.3422
-67.76
-64.6641
-62.0042
-59.7421
-57.847
-56.2831
-55.0055
-53.9687
-53.1324
-52.4576
-51.903
-51.4295
-51.0051
-50.6066
-50.2221
-49.8462
-49.4739
-49.0979
-48.7116
-48.3124
-47.8989
-47.4708
-47.0266
-46.5639
-46.0791
-45.5688
-45.0294
-44.4577
-43.8525
-43.2152
-42.549
-41.8565
-41.1389
-40.3973
-39.6426
-38.888
-38.1211
-37.2998
-36.4161
-35.5153
-34.6469
-33.8435
-33.0821
-32.3057
-31.4286
-30.4255
-29.3375
-28.2348
-27.1708
-26.1442
-25.1244
-24.1696
-23.3274
-136.699
-136.869
-137.136
-137.479
-137.889
-138.345
-138.832
-139.324
-139.817
-140.318
-140.831
-141.373
-141.964
-142.622
-143.363
-144.197
-145.123
-146.137
-147.226
-148.371
-149.552
-150.746
-151.931
-153.08
-154.162
-155.135
-155.951
-156.556
-156.894
-156.911
-156.56
-155.8
-154.604
-153.097
-151.224
-149.016
-146.515
-143.776
-140.86
-137.838
-134.782
-131.763
-128.842
-126.067
-123.467
-121.058
-118.845
-116.822
-114.98
-113.307
-111.788
-110.409
-109.16
-108.02
-106.974
-106.008
-105.119
-104.332
-103.661
-103.122
-102.709
-102.39
-102.112
-101.874
-101.821
-102.002
-102.451
-103.089
-103.778
-104.399
-104.92
-105.381
-105.874
-106.491
-107.271
-108.211
-109.284
-110.452
-111.638
-112.717
-113.579
-114.22
-114.743
-115.29
-115.968
-116.851
-117.985
-119.396
-121.102
-123.126
-125.506
-128.284
-131.504
-135.204
-139.411
-144.125
-149.304
-154.858
-160.654
-166.527
-172.306
-177.83
-182.962
-187.58
-191.562
-194.756
-196.957
-197.914
-197.313
-195.302
-191.463
-185.882
-178.751
-170.401
-161.232
-151.646
-141.993
-132.548
-123.5
-114.968
-107.015
-99.6722
-92.9524
-86.8598
-81.3904
-76.5342
-72.2938
-68.5788
-65.3666
-62.6042
-60.2434
-58.2502
-56.5965
-55.2464
-54.1539
-53.2741
-52.5677
-51.9947
-51.5136
-51.0882
-50.6919
-50.3078
-49.9286
-49.5527
-49.1763
-48.791
-48.3909
-47.9743
-47.5408
-47.0896
-46.619
-46.126
-45.6074
-45.0601
-44.4819
-43.873
-43.2351
-42.5692
-41.8768
-41.1605
-40.423
-39.6703
-38.9107
-38.1373
-37.3204
-36.4457
-35.5488
-34.676
-33.853
-33.0602
-32.2553
-31.3688
-30.3822
-29.3328
-28.2691
-27.2321
-26.2456
-25.2941
-24.4157
-23.6684
-134.841
-134.983
-135.222
-135.553
-135.972
-136.421
-136.922
-137.495
-138.141
-138.862
-139.659
-140.538
-141.505
-142.569
-143.735
-145.006
-146.378
-147.847
-149.408
-151.053
-152.776
-154.56
-156.383
-158.201
-159.96
-161.591
-163.015
-164.148
-164.912
-165.235
-165.06
-164.359
-163.139
-161.359
-159.122
-156.461
-153.435
-150.113
-146.575
-142.902
-139.177
-135.491
-131.931
-128.572
-125.459
-122.613
-120.032
-117.702
-115.602
-113.711
-112.005
-110.458
-109.053
-107.767
-106.58
-105.476
-104.442
-103.498
-102.658
-101.917
-101.305
-100.745
-100.165
-99.7561
-99.4994
-99.494
-99.8027
-100.374
-101.077
-101.834
-102.624
-103.461
-104.38
-105.414
-106.576
-107.859
-109.251
-110.702
-112.095
-113.239
-114.039
-114.522
-114.873
-115.264
-115.808
-116.575
-117.618
-118.965
-120.635
-122.659
-125.083
-127.964
-131.359
-135.33
-139.918
-145.134
-150.932
-157.199
-163.756
-170.381
-176.849
-182.976
-188.624
-193.694
-198.084
-201.655
-204.202
-205.469
-205.238
-203.01
-198.835
-192.719
-184.901
-175.789
-165.862
-155.583
-145.341
-135.423
-126.016
-117.217
-109.063
-101.556
-94.6857
-88.4429
-82.8212
-77.8125
-73.402
-69.5333
-66.1758
-63.2842
-60.8084
-58.7062
-56.948
-55.5075
-54.3463
-53.417
-52.6748
-52.0784
-51.5871
-51.1617
-50.7704
-50.3914
-50.0143
-49.6367
-49.2575
-48.8712
-48.4711
-48.0531
-47.6159
-47.1588
-46.6805
-46.1791
-45.6526
-45.0987
-44.5161
-43.9044
-43.2643
-42.5968
-41.9041
-41.1892
-40.4541
-39.7009
-38.9311
-38.1416
-37.322
-36.4666
-35.5896
-34.7181
-33.8684
-33.0329
-32.2002
-31.307
-30.3408
-29.3266
-28.2963
-27.2853
-26.337
-25.4552
-24.6623
-24.0118
-132.463
-132.6
-132.826
-133.138
-133.553
-134.108
-134.787
-135.576
-136.464
-137.448
-138.529
-139.715
-141.01
-142.427
-143.972
-145.655
-147.484
-149.474
-151.632
-153.963
-156.454
-159.076
-161.78
-164.497
-167.139
-169.6
-171.764
-173.518
-174.756
-175.395
-175.39
-174.709
-173.328
-171.217
-168.495
-165.266
-161.627
-157.663
-153.459
-149.098
-144.657
-140.217
-135.883
-131.767
-127.961
-124.515
-121.434
-118.695
-116.262
-114.099
-112.17
-110.434
-108.864
-107.432
-106.113
-104.887
-103.735
-102.641
-101.634
-100.716
-99.8884
-99.2098
-98.3567
-97.8585
-97.4866
-97.4096
-97.7085
-98.3246
-99.1028
-99.981
-100.947
-101.996
-103.138
-104.395
-105.794
-107.332
-108.983
-110.667
-112.232
-113.442
-114.197
-114.566
-114.799
-115.079
-115.512
-116.176
-117.144
-118.442
-120.085
-122.11
-124.579
-127.567
-131.157
-135.435
-140.473
-146.3
-152.869
-160.021
-167.49
-174.951
-182.105
-188.739
-194.743
-200.07
-204.672
-208.447
-211.212
-212.682
-212.507
-210.253
-205.819
-199.234
-190.771
-180.909
-170.218
-159.227
-148.383
-137.993
-128.245
-119.212
-110.904
-103.289
-96.3352
-90.0171
-84.3109
-79.1964
-74.6478
-70.6295
-67.1121
-64.0628
-61.4437
-59.2143
-57.34
-55.7943
-54.5476
-53.5572
-52.7745
-52.1532
-51.6496
-51.2224
-50.8368
-50.4671
-50.0977
-49.7232
-49.3432
-48.9555
-48.5543
-48.1347
-47.6945
-47.2327
-46.7482
-46.2397
-45.7061
-45.1459
-44.5581
-43.9427
-43.3001
-42.6317
-41.9395
-41.2245
-40.4876
-39.7317
-38.9577
-38.1611
-37.3376
-36.4914
-35.631
-34.7631
-33.8865
-33.0008
-32.1443
-31.25
-30.3053
-29.3197
-28.3156
-27.3302
-26.4206
-25.6094
-24.9094
-24.3586
-130.586
-130.666
-130.856
-131.185
-131.669
-132.315
-133.119
-134.064
-135.13
-136.303
-137.583
-138.98
-140.516
-142.215
-144.105
-146.215
-148.574
-151.205
-154.121
-157.312
-160.742
-164.351
-168.053
-171.743
-175.298
-178.585
-181.47
-183.818
-185.503
-186.416
-186.491
-185.725
-183.942
-181.36
-178.066
-174.18
-169.836
-165.178
-160.34
-155.428
-150.474
-145.472
-140.461
-135.57
-130.965
-126.776
-123.06
-119.805
-116.962
-114.477
-112.306
-110.362
-108.613
-107.022
-105.565
-104.224
-102.984
-101.809
-100.682
-99.6329
-98.6498
-97.8012
-96.9305
-96.2393
-95.8649
-95.7813
-96.0743
-96.7349
-97.6105
-98.5973
-99.6581
-100.811
-102.069
-103.453
-104.988
-106.68
-108.508
-110.366
-112.063
-113.34
-114.078
-114.395
-114.562
-114.754
-115.079
-115.628
-116.521
-117.779
-119.404
-121.435
-123.948
-127.048
-130.851
-135.481
-141.052
-147.623
-155.137
-163.343
-171.816
-180.078
-187.753
-194.644
-200.717
-206.038
-210.654
-214.523
-217.488
-219.221
-219.25
-217.128
-212.651
-205.774
-196.757
-186.14
-174.627
-162.856
-151.33
-140.405
-130.279
-121.007
-112.547
-104.828
-97.7974
-91.4295
-85.6982
-80.5561
-75.9492
-71.8313
-68.1733
-64.958
-62.1689
-59.7829
-57.7726
-56.11
-54.766
-53.7025
-52.8708
-52.2201
-51.7026
-51.2732
-50.8933
-50.5339
-50.1761
-49.8101
-49.4337
-49.0458
-48.6429
-48.2208
-47.7774
-47.3115
-46.8218
-46.3072
-45.7669
-45.2003
-44.6072
-43.9879
-43.3425
-42.6723
-41.979
-41.2629
-40.5241
-39.7656
-38.9902
-38.1946
-37.3721
-36.5268
-35.6681
-34.7964
-33.9016
-32.9647
-32.1073
-31.2123
-30.2818
-29.3132
-28.3271
-27.3668
-26.4991
-25.7606
-25.1588
-24.7109
-129.293
-129.369
-129.545
-129.873
-130.392
-131.1
-131.984
-133.011
-134.156
-135.408
-136.778
-138.296
-140.006
-141.958
-144.204
-146.792
-149.758
-153.118
-156.855
-160.921
-165.244
-169.735
-174.301
-178.847
-183.27
-187.447
-191.219
-194.396
-196.771
-198.145
-198.36
-197.323
-195.389
-192.391
-188.431
-183.677
-178.342
-172.636
-166.782
-161.008
-155.476
-150.142
-144.826
-139.457
-134.182
-129.246
-124.825
-120.982
-117.675
-114.855
-112.397
-110.239
-108.324
-106.603
-105.033
-103.579
-102.229
-100.996
-99.8335
-98.7149
-97.659
-96.6881
-95.8442
-95.0571
-94.6448
-94.5477
-94.8274
-95.4995
-96.4262
-97.4897
-98.6336
-99.849
-101.152
-102.583
-104.18
-105.954
-107.872
-109.824
-111.604
-112.951
-113.753
-114.082
-114.211
-114.332
-114.557
-114.957
-115.761
-116.97
-118.571
-120.599
-123.153
-126.371
-130.407
-135.439
-141.63
-149.079
-157.688
-167.043
-176.481
-185.35
-193.247
-200.071
-205.948
-211.105
-215.694
-219.713
-223.021
-225.209
-225.665
-223.911
-219.575
-212.528
-203.001
-191.608
-179.219
-166.612
-154.342
-142.81
-132.252
-122.717
-114.109
-106.291
-99.1675
-92.7117
-86.9265
-81.7807
-77.1904
-73.0585
-69.3223
-65.9657
-62.999
-60.4308
-58.256
-56.4567
-55.0042
-53.8596
-52.9732
-52.2892
-51.7546
-51.321
-50.9459
-50.5967
-50.2516
-49.8974
-49.5284
-49.143
-48.7389
-48.3138
-47.8663
-47.3958
-46.9011
-46.3809
-45.8345
-45.2619
-44.6633
-44.0395
-43.3909
-42.7179
-42.0217
-41.3036
-40.564
-39.8047
-39.028
-38.232
-37.4103
-36.5622
-35.6993
-34.8233
-33.9286
-33.0506
-32.1091
-31.2008
-30.2704
-29.3072
-28.3323
-27.3967
-26.5747
-25.9097
-25.4065
-25.0633
-128.53
-128.579
-128.748
-129.073
-129.6
-130.324
-131.219
-132.249
-133.391
-134.643
-136.033
-137.619
-139.472
-141.671
-144.282
-147.355
-150.914
-154.939
-159.373
-164.143
-169.174
-174.405
-179.785
-185.263
-190.753
-196.118
-201.145
-205.548
-209.007
-211.229
-212.007
-211.246
-208.93
-205.188
-200.225
-194.301
-187.707
-180.683
-173.436
-166.283
-159.641
-153.744
-148.248
-142.76
-137.135
-131.617
-126.547
-122.138
-118.364
-115.168
-112.438
-110.077
-108.005
-106.163
-104.509
-103.006
-101.606
-100.285
-99.0807
-97.9715
-96.909
-95.905
-95.0669
-94.3378
-93.8175
-93.6899
-93.922
-94.5426
-95.4776
-96.5858
-97.781
-99.0436
-100.382
-101.822
-103.408
-105.175
-107.103
-109.087
-110.924
-112.358
-113.25
-113.638
-113.779
-113.867
-114.037
-114.197
-114.927
-116.071
-117.63
-119.632
-122.199
-125.532
-129.808
-135.276
-142.149
-150.554
-160.318
-170.799
-181.034
-190.231
-198.008
-204.538
-210.16
-215.193
-219.853
-224.17
-227.981
-230.742
-231.699
-230.28
-226.096
-218.961
-209.03
-196.965
-183.773
-170.376
-157.398
-145.261
-134.226
-124.385
-115.631
-107.748
-100.551
-93.9876
-88.0954
-82.8925
-78.312
-74.2212
-70.4903
-67.0564
-63.9337
-61.1714
-58.8054
-56.8435
-55.2663
-54.0325
-53.0875
-52.3692
-51.8169
-51.3771
-51.0045
-50.6637
-50.33
-49.9878
-49.6283
-49.2472
-48.8432
-48.4152
-47.9631
-47.4872
-46.9868
-46.4609
-45.9086
-45.33
-44.7259
-44.0975
-43.4452
-42.7686
-42.069
-41.3486
-40.6088
-39.849
-39.0685
-38.2674
-37.4451
-36.5993
-35.7348
-34.8551
-33.9578
-33.0548
-32.1203
-31.2001
-30.2635
-29.3014
-28.3358
-27.426
-26.6513
-26.0567
-25.6457
-25.4071
-128.031
-128.071
-128.231
-128.538
-129.047
-129.748
-130.614
-131.603
-132.698
-133.909
-135.285
-136.906
-138.876
-141.29
-144.217
-147.698
-151.729
-156.254
-161.193
-166.48
-172.072
-177.96
-184.152
-190.628
-197.294
-203.943
-210.264
-215.851
-220.261
-223.116
-224.171
-223.34
-220.669
-216.307
-210.503
-203.597
-196.012
-188.059
-179.789
-171.279
-163.212
-156.407
-150.623
-145.125
-139.457
-133.622
-128.075
-123.136
-118.927
-115.398
-112.432
-109.906
-107.715
-105.783
-104.053
-102.487
-101.069
-99.7658
-98.5309
-97.384
-96.3801
-95.4621
-94.5921
-93.9136
-93.4558
-93.2356
-93.3712
-93.8779
-94.7284
-95.8275
-97.0579
-98.3564
-99.7173
-101.16
-102.714
-104.418
-106.271
-108.208
-110.061
-111.59
-112.612
-113.116
-113.296
-113.359
-113.422
-113.566
-114.111
-115.141
-116.628
-118.607
-121.151
-124.571
-129.058
-134.949
-142.498
-151.844
-162.709
-174.184
-184.971
-194.229
-201.643
-207.881
-213.376
-218.487
-223.41
-228.103
-232.329
-235.417
-236.627
-235.337
-231.309
-224.326
-214.323
-201.883
-188.099
-174.014
-160.405
-147.712
-136.223
-126.062
-117.139
-109.197
-101.972
-95.3327
-89.3139
-83.9962
-79.3669
-75.2978
-71.6135
-68.1772
-64.954
-62.0087
-59.4333
-57.2819
-55.5585
-54.225
-53.2181
-52.4658
-51.8976
-51.452
-51.08
-50.7447
-50.4196
-50.087
-49.7357
-49.3596
-48.9563
-48.5258
-48.0689
-47.587
-47.0801
-46.5476
-45.9891
-45.4045
-44.7948
-44.1616
-43.5053
-42.8252
-42.1221
-41.3993
-40.6581
-39.8967
-39.1124
-38.3065
-37.4824
-36.6397
-35.777
-34.8934
-33.9878
-33.0663
-32.1328
-31.2041
-30.2615
-29.2997
-28.3447
-27.4599
-26.7281
-26.1971
-25.8711
-25.7371
-127.558
-127.599
-127.766
-128.06
-128.547
-129.204
-130.016
-130.946
-131.972
-133.126
-134.465
-136.089
-138.12
-140.673
-143.811
-147.566
-151.908
-156.756
-162.023
-167.658
-173.649
-180.031
-186.836
-194.058
-201.568
-209.103
-216.293
-222.695
-227.826
-231.191
-232.498
-231.655
-228.744
-223.859
-217.379
-209.657
-201.277
-192.718
-184.08
-175.01
-166.018
-158.219
-152.031
-146.577
-141.04
-135.133
-129.275
-123.94
-119.378
-115.578
-112.418
-109.76
-107.481
-105.49
-103.726
-102.139
-100.684
-99.3537
-98.1651
-97.0741
-96.0382