/*--------------------------------*- C++ -*----------------------------------*\
  =========                 |
  \\      /  F ield         | OpenFOAM: The Open Source CFD Toolbox
   \\    /   O peration     | Website:  https://openfoam.org
    \\  /    A nd           | Version:  9
     \\/     M anipulation  |
\*---------------------------------------------------------------------------*/
FoamFile
{
    format      ascii;
    class       surfaceScalarField;
    location    "0.079";
    object      phi;
}
// * * * * * * * * * * * * * * * * * * * * * * * * * * * * * * * * * * * * * //

dimensions      [0 3 -1 0 0 0 0];

internalField   nonuniform List<scalar> 
24170
(
3.15635e-06
5.98398e-08
3.02662e-06
1.29731e-07
2.90468e-06
1.21937e-07
2.79285e-06
1.11831e-07
2.69151e-06
1.01338e-07
2.59403e-06
9.74789e-08
2.49677e-06
9.72623e-08
2.40479e-06
9.19812e-08
2.32685e-06
7.79446e-08
2.2615e-06
6.53499e-08
2.19986e-06
6.164e-08
2.12764e-06
7.22117e-08
2.03854e-06
8.91007e-08
1.93512e-06
1.03422e-07
1.82396e-06
1.11165e-07
1.70894e-06
1.15011e-07
1.57874e-06
1.30203e-07
1.60191e-07
1.41855e-06
3.45936e-06
1.1329e-07
3.44181e-06
1.47281e-07
3.43642e-06
1.27324e-07
3.43511e-06
1.13138e-07
3.43421e-06
1.02243e-07
3.43722e-06
9.44647e-08
3.44314e-06
9.134e-08
3.44347e-06
9.16527e-08
3.43091e-06
9.05097e-08
3.40447e-06
9.17855e-08
3.36921e-06
9.69048e-08
3.33121e-06
1.10207e-07
3.29267e-06
1.27642e-07
3.25232e-06
1.43773e-07
3.2095e-06
1.53985e-07
3.15655e-06
1.67959e-07
3.09998e-06
1.86771e-07
2.19651e-07
3.04052e-06
3.60733e-06
1.7352e-07
3.66509e-06
8.95241e-08
3.71913e-06
7.3288e-08
3.73915e-06
9.3113e-08
3.72604e-06
1.15354e-07
3.69651e-06
1.2399e-07
3.66797e-06
1.19888e-07
3.64649e-06
1.13125e-07
3.6301e-06
1.069e-07
3.61865e-06
1.03244e-07
3.61235e-06
1.03204e-07
3.61236e-06
1.10189e-07
3.61492e-06
1.25084e-07
3.61543e-06
1.43263e-07
3.60857e-06
1.60846e-07
3.59558e-06
1.80951e-07
3.57961e-06
2.02745e-07
2.30066e-07
3.56919e-06
4.02984e-06
7.86894e-08
3.99815e-06
1.21216e-07
3.95375e-06
1.17682e-07
3.93525e-06
1.11615e-07
3.93945e-06
1.11152e-07
3.94396e-06
1.19485e-07
3.93582e-06
1.28026e-07
3.91467e-06
1.34278e-07
3.88559e-06
1.35975e-07
3.85651e-06
1.32322e-07
3.83397e-06
1.25752e-07
3.82209e-06
1.22062e-07
3.8202e-06
1.26976e-07
3.82345e-06
1.40009e-07
3.82635e-06
1.57946e-07
3.82674e-06
1.80564e-07
3.82477e-06
2.04713e-07
2.32451e-07
3.82239e-06
4.18327e-06
8.03204e-08
4.2211e-06
8.33864e-08
4.22336e-06
1.15421e-07
4.21588e-06
1.19092e-07
4.21802e-06
1.0901e-07
4.23222e-06
1.05289e-07
4.24903e-06
1.11215e-07
4.26191e-06
1.21395e-07
4.26834e-06
1.29549e-07
4.26605e-06
1.3461e-07
4.2526e-06
1.39196e-07
4.22916e-06
1.45504e-07
4.20146e-06
1.54678e-07
4.17612e-06
1.6535e-07
4.15747e-06
1.76591e-07
4.1473e-06
1.90743e-07
4.14364e-06
2.08371e-07
2.31871e-07
4.14422e-06
4.51042e-06
2.91273e-08
4.53486e-06
5.89478e-08
4.52063e-06
1.29645e-07
4.48976e-06
1.49961e-07
4.4706e-06
1.28178e-07
4.46436e-06
1.11524e-07
4.46168e-06
1.13901e-07
4.45781e-06
1.25261e-07
4.45253e-06
1.34829e-07
4.44744e-06
1.39704e-07
4.44395e-06
1.4268e-07
4.4425e-06
1.46957e-07
4.44308e-06
1.54095e-07
4.44517e-06
1.63259e-07
4.4482e-06
1.73569e-07
4.45186e-06
1.87076e-07
4.45587e-06
2.04369e-07
2.28544e-07
4.45919e-06
4.85692e-06
1.44313e-08
4.92514e-06
-9.27081e-09
4.93616e-06
1.18624e-07
4.92822e-06
1.57905e-07
4.91975e-06
1.36651e-07
4.9089e-06
1.22372e-07
4.89343e-06
1.29367e-07
4.87491e-06
1.43786e-07
4.85642e-06
1.5331e-07
4.84029e-06
1.55841e-07
4.82704e-06
1.55934e-07
4.81579e-06
1.58206e-07
4.80529e-06
1.64589e-07
4.7944e-06
1.74151e-07
4.78343e-06
1.8454e-07
4.77393e-06
1.96569e-07
4.76808e-06
2.10228e-07
2.28769e-07
4.76785e-06
5.15844e-06
3.00466e-08
5.1453e-06
3.87365e-09
5.18027e-06
8.3647e-08
5.19782e-06
1.40356e-07
5.17696e-06
1.57518e-07
5.14351e-06
1.55819e-07
5.12747e-06
1.45405e-07
5.13828e-06
1.32982e-07
5.16574e-06
1.25841e-07
5.19346e-06
1.28129e-07
5.21045e-06
1.38943e-07
5.21457e-06
1.5408e-07
5.21013e-06
1.69037e-07
5.20173e-06
1.82552e-07
5.19138e-06
1.94881e-07
5.17913e-06
2.08823e-07
5.16361e-06
2.2575e-07
2.46226e-07
5.14615e-06
5.79471e-06
1.44387e-07
5.69272e-06
1.05861e-07
5.65554e-06
1.20831e-07
5.63864e-06
1.57259e-07
5.61133e-06
1.84822e-07
5.56906e-06
1.98088e-07
5.52794e-06
1.8653e-07
5.50381e-06
1.57111e-07
5.49897e-06
1.30681e-07
5.50477e-06
1.22331e-07
5.51091e-06
1.32802e-07
5.51181e-06
1.53175e-07
5.50758e-06
1.73275e-07
5.5018e-06
1.88323e-07
5.49757e-06
1.99113e-07
5.49632e-06
2.10079e-07
5.49765e-06
2.24414e-07
2.4495e-07
5.49893e-06
5.8362e-06
2.52901e-08
5.86403e-06
7.8028e-08
5.86891e-06
1.15948e-07
5.88642e-06
1.39751e-07
5.89942e-06
1.71821e-07
5.90804e-06
1.89469e-07
5.91941e-06
1.75165e-07
5.93504e-06
1.41484e-07
5.95256e-06
1.13154e-07
5.96885e-06
1.06044e-07
5.98008e-06
1.21567e-07
5.98288e-06
1.50377e-07
5.97559e-06
1.80568e-07
5.95992e-06
2.03991e-07
5.94102e-06
2.18018e-07
5.92466e-06
2.2644e-07
5.91656e-06
2.32508e-07
2.44208e-07
5.9173e-06
6.34315e-06
-1.71839e-07
6.37421e-06
4.69666e-08
6.37332e-06
1.1684e-07
6.36871e-06
1.44365e-07
6.37739e-06
1.63142e-07
6.39648e-06
1.70379e-07
6.40794e-06
1.63697e-07
6.3984e-06
1.51024e-07
6.37216e-06
1.39396e-07
6.34399e-06
1.34217e-07
6.32494e-06
1.4062e-07
6.3162e-06
1.59111e-07
6.31337e-06
1.83403e-07
6.31124e-06
2.06122e-07
6.30845e-06
2.20799e-07
6.30578e-06
2.29111e-07
6.3063e-06
2.31991e-07
2.35896e-07
6.31461e-06
5.69147e-06
-1.42299e-07
5.71925e-06
1.91865e-08
5.75707e-06
7.90254e-08
5.79327e-06
1.08165e-07
5.82337e-06
1.33043e-07
5.83796e-06
1.55787e-07
5.82769e-06
1.73971e-07
5.79489e-06
1.83817e-07
5.75439e-06
1.799e-07
5.72232e-06
1.66289e-07
5.70684e-06
1.56092e-07
5.70663e-06
1.5932e-07
5.71477e-06
1.7527e-07
5.72293e-06
1.97958e-07
5.72507e-06
2.18657e-07
5.71978e-06
2.34405e-07
5.70828e-06
2.43486e-07
2.48642e-07
5.69554e-06
6.86402e-06
-1.44446e-07
6.94223e-06
-5.90263e-08
6.99375e-06
2.7503e-08
6.98279e-06
1.19125e-07
6.93197e-06
1.8386e-07
6.89204e-06
1.95719e-07
6.88674e-06
1.79274e-07
6.91033e-06
1.60224e-07
6.94411e-06
1.46122e-07
6.97254e-06
1.3786e-07
6.99119e-06
1.37445e-07
7.00461e-06
1.45893e-07
7.01871e-06
1.61174e-07
7.03625e-06
1.80421e-07
7.05511e-06
1.99793e-07
7.07241e-06
2.1711e-07
7.08478e-06
2.3111e-07
2.41311e-07
7.09211e-06
8.45209e-06
-2.67251e-07
8.42541e-06
-3.23437e-08
8.40599e-06
4.69228e-08
8.40669e-06
1.18427e-07
8.43508e-06
1.55466e-07
8.47883e-06
1.51968e-07
8.51655e-06
1.41559e-07
8.53834e-06
1.38434e-07
8.54538e-06
1.39083e-07
8.54189e-06
1.41348e-07
8.53182e-06
1.47516e-07
8.51845e-06
1.59264e-07
8.50445e-06
1.75166e-07
8.49296e-06
1.91914e-07
8.48716e-06
2.0559e-07
8.48884e-06
2.15429e-07
8.49997e-06
2.19988e-07
2.23765e-07
8.51751e-06
1.02749e-05
-1.02511e-07
1.02283e-05
1.42717e-08
1.02689e-05
6.23789e-09
1.03607e-05
2.66812e-08
1.0431e-05
8.51412e-08
1.04321e-05
1.5093e-07
1.0378e-05
1.95655e-07
1.03113e-05
2.05139e-07
1.02589e-05
1.91424e-07
1.0225e-05
1.75242e-07
1.02036e-05
1.68989e-07
1.01899e-05
1.72929e-07
1.01844e-05
1.80694e-07
1.01909e-05
1.85389e-07
1.02131e-05
1.83406e-07
1.02514e-05
1.77132e-07
1.0303e-05
1.68344e-07
1.6445e-07
1.03623e-05
1.21693e-05
-8.80211e-08
1.22937e-05
-1.1012e-07
1.24213e-05
-1.21372e-07
1.25436e-05
-9.56209e-08
1.26257e-05
2.9839e-09
1.2659e-05
1.17632e-07
1.26541e-05
2.00561e-07
1.26372e-05
2.22035e-07
1.26228e-05
2.05874e-07
1.26136e-05
1.8441e-07
1.26091e-05
1.7346e-07
1.26104e-05
1.71656e-07
1.26207e-05
1.70403e-07
1.26427e-05
1.6339e-07
1.26761e-05
1.49991e-07
1.27177e-05
1.35526e-07
1.27622e-05
1.23892e-07
1.22084e-07
1.28045e-05
1.56457e-05
9.94701e-08
1.54051e-05
1.30471e-07
1.51482e-05
1.35549e-07
1.49612e-05
9.13794e-08
1.48913e-05
7.28368e-08
1.49238e-05
8.51226e-08
1.50195e-05
1.04938e-07
1.51226e-05
1.18939e-07
1.52003e-05
1.28148e-07
1.52476e-05
1.37128e-07
1.52752e-05
1.4586e-07
1.52987e-05
1.48158e-07
1.53295e-05
1.39537e-07
1.53715e-05
1.2141e-07
1.54215e-05
1.00034e-07
1.54739e-05
8.31229e-08
1.55234e-05
7.44136e-08
7.71198e-08
1.55683e-05
1.8943e-05
4.97206e-07
1.86566e-05
4.16909e-07
1.85117e-05
2.80478e-07
1.84179e-05
1.85134e-07
1.8395e-05
9.57695e-08
1.84668e-05
1.32468e-08
1.86013e-05
-2.95496e-08
1.87372e-05
-1.69754e-08
1.88304e-05
3.50281e-08
1.88695e-05
9.79539e-08
1.8875e-05
1.40403e-07
1.8876e-05
1.47156e-07
1.88941e-05
1.21395e-07
1.89366e-05
7.89179e-08
1.89993e-05
3.73752e-08
1.90718e-05
1.0578e-08
1.91439e-05
2.35289e-09
1.45129e-08
1.92065e-05
2.23454e-05
3.15763e-07
2.25486e-05
2.13661e-07
2.27089e-05
1.20188e-07
2.28157e-05
7.83691e-08
2.28552e-05
5.62305e-08
2.2821e-05
4.7439e-08
2.2742e-05
4.94849e-08
2.26666e-05
5.84335e-08
2.26334e-05
6.82319e-08
2.26565e-05
7.48598e-08
2.27208e-05
7.61318e-08
2.27942e-05
7.37572e-08
2.28459e-05
6.96276e-08
2.28608e-05
6.40435e-08
2.28438e-05
5.43881e-08
2.28129e-05
4.15005e-08
2.27903e-05
2.49033e-08
9.54001e-09
2.27953e-05
1.62941e-05
2.44626e-07
1.65539e-05
-4.61879e-08
1.67314e-05
-5.72579e-08
1.6792e-05
1.77267e-08
1.67868e-05
6.14907e-08
1.67674e-05
6.68058e-08
1.67757e-05
4.11435e-08
1.68279e-05
6.24066e-09
1.69121e-05
-1.59878e-08
1.70006e-05
-1.36164e-08
1.70634e-05
1.33626e-08
1.7083e-05
5.40952e-08
1.70603e-05
9.23679e-08
1.70095e-05
1.14828e-07
1.6951e-05
1.12884e-07
1.69036e-05
8.89553e-08
1.6879e-05
4.94888e-08
6.80319e-09
1.68817e-05
1.42259e-05
4.98874e-08
1.42943e-05
-1.14568e-07
1.43416e-05
-1.04583e-07
1.44221e-05
-6.28159e-08
1.45282e-05
-4.45494e-08
1.46345e-05
-3.948e-08
1.47181e-05
-4.25059e-08
1.47717e-05
-4.73732e-08
1.47983e-05
-4.25128e-08
1.48024e-05
-1.77344e-08
1.4793e-05
2.27664e-08
1.47811e-05
6.59962e-08
1.47786e-05
9.483e-08
1.47937e-05
9.97012e-08
1.48247e-05
8.18892e-08
1.4863e-05
5.06412e-08
1.48955e-05
1.70348e-08
-1.343e-08
1.49157e-05
1.26547e-05
-7.96869e-08
1.26417e-05
-1.01535e-07
1.26408e-05
-1.03692e-07
1.26596e-05
-8.1617e-08
1.26878e-05
-7.28116e-08
1.27135e-05
-6.51812e-08
1.27301e-05
-5.90385e-08
1.27446e-05
-6.18872e-08
1.27727e-05
-7.06455e-08
1.28265e-05
-7.1555e-08
1.29036e-05
-5.42725e-08
1.29907e-05
-2.1112e-08
1.30692e-05
1.63168e-08
1.3123e-05
4.58508e-08
1.31436e-05
6.12936e-08
1.31313e-05
6.29982e-08
1.30942e-05
5.41231e-08
3.80176e-08
1.30428e-05
1.11833e-05
-2.48431e-07
1.11512e-05
-6.93938e-08
1.10871e-05
-3.9648e-08
1.10754e-05
-6.98877e-08
1.11012e-05
-9.86266e-08
1.11406e-05
-1.04543e-07
1.11764e-05
-9.48643e-08
1.11972e-05
-8.2651e-08
1.11981e-05
-7.1535e-08
1.1184e-05
-5.74865e-08
1.11654e-05
-3.56828e-08
1.11507e-05
-6.42223e-09
1.11419e-05
2.51629e-08
1.11352e-05
5.25181e-08
1.11275e-05
6.89835e-08
1.11184e-05
7.20953e-08
1.11107e-05
6.17872e-08
4.11486e-08
1.11076e-05
9.6681e-06
-2.78091e-07
9.69346e-06
-9.47589e-08
9.64384e-06
9.97419e-09
9.63206e-06
-5.81047e-08
9.66922e-06
-1.35793e-07
9.72023e-06
-1.55545e-07
9.75556e-06
-1.302e-07
9.7588e-06
-8.58887e-08
9.72894e-06
-4.16774e-08
9.67942e-06
-7.96197e-09
9.6304e-06
1.33318e-08
9.59994e-06
2.4044e-08
9.5961e-06
2.89971e-08
9.61783e-06
3.07885e-08
9.6577e-06
2.91177e-08
9.70713e-06
2.26604e-08
9.75765e-06
1.12735e-08
-3.76854e-09
9.80256e-06
8.39495e-06
-1.20735e-07
8.30009e-06
1.0005e-10
8.32974e-06
-1.96806e-08
8.3629e-06
-9.12681e-08
8.35607e-06
-1.28962e-07
8.33552e-06
-1.34987e-07
8.32513e-06
-1.19811e-07
8.3315e-06
-9.22568e-08
8.35255e-06
-6.27322e-08
8.38401e-06
-3.94234e-08
8.4215e-06
-2.4161e-08
8.46035e-06
-1.48047e-08
8.49751e-06
-8.15704e-09
8.53121e-06
-2.91666e-09
8.5603e-06
2.81811e-11
8.58332e-06
-3.61401e-10
8.59926e-06
-4.6633e-09
-1.20379e-08
8.60753e-06
7.29957e-06
-1.67494e-07
7.34683e-06
-4.71579e-08
7.41821e-06
-9.10637e-08
7.44007e-06
-1.1312e-07
7.41171e-06
-1.00607e-07
7.36687e-06
-9.01448e-08
7.33109e-06
-8.40373e-08
7.30798e-06
-6.91436e-08
7.29296e-06
-4.77145e-08
7.28404e-06
-3.04959e-08
7.28282e-06
-2.29402e-08
7.29104e-06
-2.30338e-08
7.30847e-06
-2.55774e-08
7.33226e-06
-2.67068e-08
7.35772e-06
-2.54334e-08
7.38048e-06
-2.3122e-08
7.3973e-06
-2.14862e-08
-2.14542e-08
7.40672e-06
6.44956e-06
-1.72574e-07
6.46762e-06
-6.52106e-08
6.47685e-06
-1.00298e-07
6.47338e-06
-1.09649e-07
6.46952e-06
-9.67498e-08
6.46908e-06
-8.97052e-08
6.46748e-06
-8.24317e-08
6.45927e-06
-6.0941e-08
6.44343e-06
-3.18677e-08
6.42496e-06
-1.20276e-08
6.41228e-06
-1.02605e-08
6.41223e-06
-2.2987e-08
6.42679e-06
-4.01378e-08
6.45294e-06
-5.28493e-08
6.48464e-06
-5.71397e-08
6.5159e-06
-5.43802e-08
6.54121e-06
-4.67983e-08
-3.79608e-08
6.55772e-06
5.70765e-06
-1.49699e-07
5.73543e-06
-9.29878e-08
5.72277e-06
-8.76453e-08
5.69693e-06
-8.38035e-08
5.67415e-06
-7.39752e-08
5.65244e-06
-6.79885e-08
5.62727e-06
-5.72684e-08
5.60536e-06
-3.90285e-08
5.59633e-06
-2.2837e-08
5.60309e-06
-1.87823e-08
5.62163e-06
-2.88055e-08
5.64462e-06
-4.59716e-08
5.66547e-06
-6.0988e-08
5.68009e-06
-6.74687e-08
5.68671e-06
-6.37674e-08
5.68553e-06
-5.31964e-08
5.67809e-06
-3.93618e-08
-2.73996e-08
5.66753e-06
4.7646e-06
-1.44054e-07
4.80597e-06
-1.34365e-07
4.81762e-06
-9.92902e-08
4.81277e-06
-7.89583e-08
4.81117e-06
-7.23729e-08
4.81745e-06
-7.42702e-08
4.83586e-06
-7.56755e-08
4.86732e-06
-7.04894e-08
4.90409e-06
-5.96054e-08
4.93302e-06
-4.7716e-08
4.9432e-06
-3.89784e-08
4.93219e-06
-3.49648e-08
4.90626e-06
-3.50545e-08
4.8759e-06
-3.71142e-08
4.85066e-06
-3.85278e-08
4.83582e-06
-3.83494e-08
4.8324e-06
-3.59428e-08
-3.24248e-08
4.83742e-06
4.23626e-06
4.1019e-06
4.00261e-06
3.92365e-06
3.85127e-06
3.777e-06
3.70133e-06
3.63084e-06
3.57123e-06
3.52352e-06
3.48454e-06
3.44958e-06
3.41452e-06
3.37741e-06
3.33888e-06
3.30053e-06
3.26459e-06
3.23216e-06
-4.29497e-07
4.29497e-07
-8.56183e-07
4.26685e-07
-1.1961e-06
3.39913e-07
-1.40684e-06
2.10742e-07
-1.47344e-06
6.66021e-08
-1.40535e-06
-6.80891e-08
-1.21512e-06
-1.90232e-07
-9.07345e-07
-3.07774e-07
-5.02466e-07
-4.04878e-07
-6.85935e-08
-4.33873e-07
3.06175e-07
-3.74768e-07
5.52153e-07
-2.45978e-07
6.40007e-07
-8.7854e-08
5.82356e-07
5.76507e-08
4.23215e-07
1.59142e-07
2.12773e-07
2.10442e-07
-6.82911e-09
2.19602e-07
-2.11701e-07
2.04871e-07
-3.94159e-07
1.82458e-07
-5.57349e-07
1.63191e-07
-7.08585e-07
1.51236e-07
-8.54526e-07
1.4594e-07
-9.99401e-07
1.44876e-07
-1.14537e-06
1.4597e-07
-1.29342e-06
1.48044e-07
-1.44369e-06
1.5027e-07
-1.5958e-06
1.52113e-07
-1.7487e-06
1.52897e-07
-1.90081e-06
1.52119e-07
-2.05018e-06
1.49363e-07
-2.19444e-06
1.44259e-07
-2.33164e-06
1.37208e-07
-2.46011e-06
1.28465e-07
-2.57928e-06
1.19171e-07
-2.69024e-06
1.10963e-07
-2.79608e-06
1.05837e-07
-2.90443e-06
1.08353e-07
-3.02808e-06
1.23649e-07
-3.18676e-06
1.5868e-07
-3.38735e-06
2.00584e-07
-3.57882e-06
1.91474e-07
-3.65929e-06
8.04659e-08
-3.59538e-06
-6.3902e-08
-3.49531e-06
-1.00075e-07
-3.44785e-06
-4.74581e-08
-3.41504e-06
-3.28083e-08
-3.37347e-06
-4.15771e-08
-3.2791e-06
-9.43668e-08
-3.10931e-06
-1.69792e-07
-2.84448e-06
-2.64831e-07
-2.51078e-06
-3.33696e-07
-2.12935e-06
-3.81433e-07
-1.70483e-06
-4.24516e-07
-1.24999e-06
-4.54844e-07
-7.86657e-07
-4.63333e-07
-3.30288e-07
-4.56369e-07
1.06159e-07
-4.36447e-07
5.14655e-07
-4.08496e-07
8.93757e-07
-3.79102e-07
1.25266e-06
-3.58904e-07
1.59386e-06
-3.41197e-07
1.9233e-06
-3.29438e-07
2.26733e-06
-3.44031e-07
2.64571e-06
-3.78386e-07
3.04822e-06
-4.0251e-07
3.44879e-06
-4.00567e-07
3.79015e-06
-3.41363e-07
4.02685e-06
-2.367e-07
4.14815e-06
-1.21298e-07
4.08989e-06
5.82616e-08
3.78364e-06
3.06255e-07
3.13497e-06
6.4867e-07
2.10098e-06
1.03398e-06
1.32471e-06
7.76271e-07
1.37814e-06
-5.34313e-08
1.78073e-06
-4.02591e-07
1.80216e-06
-2.14326e-08
1.25794e-06
5.44225e-07
2.9994e-07
9.57999e-07
-7.09205e-07
1.00915e-06
-1.57288e-06
8.63674e-07
-2.2563e-06
6.83424e-07
-2.78153e-06
5.25229e-07
-3.18339e-06
4.01862e-07
-3.49679e-06
3.13396e-07
-3.75221e-06
2.55423e-07
-3.97367e-06
2.21454e-07
-4.17903e-06
2.05365e-07
-4.38115e-06
2.02115e-07
-4.58901e-06
2.07865e-07
-4.80946e-06
2.20444e-07
-5.04716e-06
2.37699e-07
-5.30496e-06
2.57803e-07
-5.58409e-06
2.79129e-07
-5.88418e-06
3.00089e-07
-6.20339e-06
3.1921e-07
-6.53852e-06
3.35132e-07
-6.88512e-06
3.46604e-07
-7.23766e-06
3.52542e-07
-7.58971e-06
3.52043e-07
-7.93414e-06
3.44432e-07
-8.26336e-06
3.29224e-07
-8.56937e-06
3.06009e-07
-8.8438e-06
2.74425e-07
-9.078e-06
2.34205e-07
-9.26325e-06
1.85247e-07
-9.39092e-06
1.27675e-07
-9.45279e-06
6.18647e-08
-9.44352e-06
-9.27108e-09
-9.35911e-06
-8.44103e-08
-9.19702e-06
-1.62084e-07
-8.95672e-06
-2.40298e-07
-8.63996e-06
-3.16767e-07
-8.25084e-06
-3.89114e-07
-7.79561e-06
-4.55234e-07
-7.28214e-06
-5.13471e-07
-6.71944e-06
-5.62702e-07
-6.11711e-06
-6.0233e-07
-5.48489e-06
-6.32219e-07
-4.83226e-06
-6.52624e-07
-4.16811e-06
-6.64153e-07
-3.50053e-06
-6.6758e-07
-2.83722e-06
-6.63315e-07
-2.18533e-06
-6.51887e-07
-1.5511e-06
-6.34231e-07
-9.4106e-07
-6.10037e-07
-3.61775e-07
-5.79285e-07
1.84569e-07
-5.46344e-07
6.9296e-07
-5.08391e-07
1.15948e-06
-4.66521e-07
1.58207e-06
-4.22585e-07
1.95973e-06
-3.77665e-07
2.29221e-06
-3.32481e-07
2.57992e-06
-2.87708e-07
2.8247e-06
-2.44777e-07
3.03103e-06
-2.06327e-07
3.20579e-06
-1.74762e-07
3.35411e-06
-1.48323e-07
3.47161e-06
-1.17501e-07
3.541e-06
-6.9392e-08
3.54468e-06
-3.67338e-09
3.48326e-06
6.14214e-08
3.37603e-06
1.07229e-07
3.2494e-06
1.2663e-07
3.12542e-06
1.23979e-07
3.01564e-06
1.09781e-07
2.92186e-06
9.37743e-08
2.84065e-06
8.12085e-08
2.76771e-06
7.2947e-08
2.70005e-06
6.76614e-08
2.63696e-06
6.30877e-08
2.58021e-06
5.67445e-08
2.53342e-06
4.67977e-08
2.49998e-06
3.34308e-08
2.48115e-06
1.88312e-08
2.47616e-06
4.99745e-09
2.48383e-06
-7.67238e-09
2.50161e-06
-1.77836e-08
2.52588e-06
-2.42729e-08
2.55308e-06
-2.71911e-08
2.58066e-06
-2.75817e-08
2.60664e-06
-2.59776e-08
2.63169e-06
-2.50546e-08
2.66145e-06
-2.97619e-08
2.6979e-06
-3.64465e-08
2.72479e-06
-2.6895e-08
2.72267e-06
2.11986e-09
2.70233e-06
2.03427e-08
2.68311e-06
1.92231e-08
2.65021e-06
3.28935e-08
2.60167e-06
4.8549e-08
2.60799e-06
-6.32368e-09
2.7119e-06
-1.03914e-07
2.85571e-06
-1.43808e-07
3.00659e-06
-1.50878e-07
3.2963e-06
-2.8971e-07
3.56968e-06
-2.73381e-07
3.7747e-06
-2.05018e-07
4.03016e-06
-2.5546e-07
-2.09563e-07
4.23972e-06
-1.65545e-07
5.95043e-07
-3.54153e-07
6.15292e-07
-4.93964e-07
4.79724e-07
-5.57883e-07
2.74661e-07
-5.49635e-07
5.83537e-08
-4.8934e-07
-1.28384e-07
-3.85949e-07
-2.93622e-07
-2.27647e-07
-4.66076e-07
1.60333e-08
-6.48559e-07
3.2117e-07
-7.39009e-07
6.23974e-07
-6.77573e-07
8.44616e-07
-4.6662e-07
9.43685e-07
-1.86923e-07
9.3237e-07
6.89652e-08
8.29474e-07
2.62037e-07
6.6473e-07
3.75186e-07
4.63927e-07
4.20405e-07
2.46635e-07
4.22163e-07
2.57312e-08
4.03362e-07
-1.92282e-07
3.81203e-07
-4.02406e-07
3.6136e-07
-6.03574e-07
3.47108e-07
-7.98621e-07
3.39923e-07
-9.91821e-07
3.3917e-07
-1.1862e-06
3.42422e-07
-1.38255e-06
3.46621e-07
-1.57946e-06
3.4902e-07
-1.77392e-06
3.47357e-07
-1.96186e-06
3.40059e-07
-2.13879e-06
3.26296e-07
-2.3005e-06
3.05971e-07
-2.44322e-06
2.79923e-07
-2.56408e-06
2.49331e-07
-2.661e-06
2.16089e-07
-2.73259e-06
1.82551e-07
-2.77737e-06
1.50614e-07
-2.79133e-06
1.22321e-07
-2.76666e-06
9.89796e-08
-2.68745e-06
7.94659e-08
-2.54456e-06
5.76951e-08
-2.37272e-06
1.96361e-08
-2.24669e-06
-4.55683e-08
-2.19053e-06
-1.20064e-07
-2.13348e-06
-1.57124e-07
-2.0107e-06
-1.70233e-07
-1.80077e-06
-2.42745e-07
-1.55917e-06
-2.83177e-07
-1.28513e-06
-3.68401e-07
-9.98918e-07
-4.56006e-07
-6.99698e-07
-5.64051e-07
-3.69696e-07
-6.63698e-07
-3.53721e-09
-7.47591e-07
3.91883e-07
-8.19935e-07
8.07943e-07
-8.70904e-07
1.23707e-06
-8.92462e-07
1.67072e-06
-8.90019e-07
2.09336e-06
-8.59088e-07
2.47802e-06
-7.93154e-07
2.81633e-06
-7.17408e-07
3.12415e-06
-6.66725e-07
3.40873e-06
-6.25774e-07
3.66548e-06
-5.86196e-07
3.90735e-06
-5.85897e-07
4.15232e-06
-6.23359e-07
4.38906e-06
-6.3925e-07
4.59588e-06
-6.0738e-07
4.76468e-06
-5.10171e-07
4.82475e-06
-2.96768e-07
4.68049e-06
2.29655e-08
4.39794e-06
3.40814e-07
4.11357e-06
5.90622e-07
3.72602e-06
1.03622e-06
3.29227e-06
1.46773e-06
3.10021e-06
9.68327e-07
2.75619e-06
2.9059e-07
1.81322e-06
5.40383e-07
4.51556e-07
1.34023e-06
-8.41894e-07
1.83768e-06
-1.80515e-06
1.92126e-06
-2.5109e-06
1.71489e-06
-3.05279e-06
1.40557e-06
-3.47379e-06
1.10442e-06
-3.80255e-06
8.53996e-07
-4.065e-06
6.6431e-07
-4.28334e-06
5.31736e-07
-4.47482e-06
4.46898e-07
-4.65235e-06
3.98984e-07
-4.82562e-06
3.78635e-07
-5.00196e-06
3.78454e-07
-5.18701e-06
3.92916e-07
-5.38465e-06
4.18086e-07
-5.59777e-06
4.50819e-07
-5.8282e-06
4.88233e-07
-6.07654e-06
5.27472e-07
-6.34214e-06
5.65685e-07
-6.62314e-06
6.00217e-07
-6.91662e-06
6.28612e-07
-7.21863e-06
6.48605e-07
-7.5243e-06
6.58211e-07
-7.82807e-06
6.55816e-07
-8.12386e-06
6.40229e-07
-8.40521e-06
6.10566e-07
-8.66533e-06
5.66132e-07
-8.89719e-06
5.06288e-07
-9.09342e-06
4.3043e-07
-9.24661e-06
3.38439e-07
-9.34965e-06
2.30718e-07
-9.39538e-06
1.07595e-07
-9.37635e-06
-2.83087e-08
-9.28334e-06
-1.77416e-07
-9.11182e-06
-3.33606e-07
-8.86066e-06
-4.91461e-07
-8.53146e-06
-6.45963e-07
-8.12841e-06
-7.92159e-07
-7.65796e-06
-9.25686e-07
-7.12828e-06
-1.04315e-06
-6.54867e-06
-1.14232e-06
-5.92896e-06
-1.22204e-06
-5.27888e-06
-1.2823e-06
-4.60783e-06
-1.32367e-06
-3.92428e-06
-1.3477e-06
-3.23633e-06
-1.35553e-06
-2.55175e-06
-1.3479e-06
-1.87731e-06
-1.32632e-06
-1.2202e-06
-1.29134e-06
-5.85942e-07
-1.2443e-06
1.93165e-08
-1.18454e-06
5.91307e-07
-1.11833e-06
1.12373e-06
-1.04081e-06
1.61353e-06
-9.5633e-07
2.05796e-06
-8.67012e-07
2.45518e-06
-7.74886e-07
2.80465e-06
-6.81946e-07
3.10762e-06
-5.90686e-07
3.36758e-06
-5.04731e-07
3.58948e-06
-4.28226e-07
3.77812e-06
-3.63405e-07
3.93794e-06
-3.08139e-07
4.07665e-06
-2.5622e-07
4.20817e-06
-2.0091e-07
4.34365e-06
-1.39152e-07
4.47693e-06
-7.18601e-08
4.58685e-06
-2.69084e-09
4.65273e-06
6.07549e-08
4.65209e-06
1.24618e-07
4.57658e-06
1.85289e-07
4.43982e-06
2.30534e-07
4.27081e-06
2.50219e-07
4.09899e-06
2.44766e-07
3.94056e-06
2.26095e-07
3.79993e-06
2.03721e-07
3.67829e-06
1.78386e-07
3.57791e-06
1.4717e-07
3.50109e-06
1.10258e-07
3.44817e-06
7.17481e-08
3.41675e-06
3.64115e-08
3.40265e-06
6.43585e-09
3.40257e-06
-1.77024e-08
3.41497e-06
-3.66802e-08
3.43601e-06
-4.82286e-08
3.46006e-06
-5.16335e-08
3.4874e-06
-5.33191e-08
3.5292e-06
-6.68513e-08
3.59735e-06
-9.79071e-08
3.67881e-06
-1.17915e-07
3.73945e-06
-8.75304e-08
3.75643e-06
-1.48639e-08
3.71329e-06
6.34907e-08
3.60293e-06
1.29577e-07
3.4759e-06
1.59926e-07
3.38603e-06
1.38414e-07
3.34069e-06
3.90197e-08
3.35521e-06
-1.1843e-07
3.48518e-06
-2.73785e-07
3.67126e-06
-3.36959e-07
3.86861e-06
-4.87056e-07
4.12839e-06
-5.33158e-07
4.38058e-06
-4.57207e-07
4.63459e-06
-5.09473e-07
-5.0848e-07
4.93351e-06
3.59211e-07
2.35832e-07
6.19636e-07
3.54867e-07
7.90616e-07
3.08744e-07
9.09471e-07
1.55806e-07
1.01511e-06
-4.72809e-08
1.12074e-06
-2.34014e-07
1.21001e-06
-3.82893e-07
1.27125e-06
-5.27321e-07
1.32355e-06
-7.00856e-07
1.35801e-06
-7.73473e-07
1.33404e-06
-6.53597e-07
1.26089e-06
-3.93471e-07
1.12482e-06
-5.08589e-08
9.27513e-07
2.66277e-07
7.02564e-07
4.86987e-07
4.59606e-07
6.18144e-07
2.09018e-07
6.70993e-07
-3.70667e-08
6.68248e-07
-2.69322e-07
6.35617e-07
-4.8565e-07
5.97532e-07
-6.95779e-07
5.71489e-07
-9.13149e-07
5.64478e-07
-1.14661e-06
5.73381e-07
-1.39862e-06
5.91183e-07
-1.66627e-06
6.10069e-07
-1.94262e-06
6.22971e-07
-2.21847e-06
6.24868e-07
-2.4841e-06
6.1299e-07
-2.73044e-06
5.864e-07
-2.94983e-06
5.45689e-07
-3.13649e-06
4.92632e-07
-3.28632e-06
4.29749e-07
-3.39694e-06
3.5995e-07
-3.46707e-06
2.8622e-07
-3.49617e-06
2.1165e-07
-3.48447e-06
1.38919e-07
-3.43156e-06
6.94062e-08
-3.33874e-06
6.16712e-09
-3.19835e-06
-6.09319e-08
-3.0129e-06
-1.27753e-07
-2.79075e-06
-2.02516e-07
-2.55296e-06
-2.83358e-07
-2.30788e-06
-3.65143e-07
-2.04041e-06
-4.2459e-07
-1.73856e-06
-4.72088e-07
-1.43793e-06
-5.43373e-07
-1.12092e-06
-6.00186e-07
-8.03361e-07
-6.8596e-07
-4.85305e-07
-7.74062e-07
-1.73986e-07
-8.7537e-07
1.40884e-07
-9.78568e-07
4.69465e-07
-1.07617e-06
8.1543e-07
-1.1659e-06
1.18826e-06
-1.24373e-06
1.5965e-06
-1.30071e-06
2.02778e-06
-1.32129e-06
2.45307e-06
-1.28438e-06
2.84959e-06
-1.18967e-06
3.19565e-06
-1.06347e-06
3.49421e-06
-9.65288e-07
3.76658e-06
-8.98148e-07
4.01174e-06
-8.31354e-07
4.21e-06
-7.84152e-07
4.38343e-06
-7.96794e-07
4.57288e-06
-8.28702e-07
4.79031e-06
-8.24803e-07
5.04353e-06
-7.63393e-07
5.28164e-06
-5.34878e-07
5.36032e-06
-5.57123e-08
5.16352e-06
5.37615e-07
4.741e-06
1.01314e-06
4.26876e-06
1.50846e-06
4.00542e-06
1.73107e-06
3.46398e-06
1.50977e-06
2.03783e-06
1.71674e-06
1.95833e-07
2.38238e-06
-1.19267e-06
2.72873e-06
-2.06364e-06
2.70865e-06
-2.57927e-06
2.43689e-06
-2.90933e-06
2.04495e-06
-3.1514e-06
1.64764e-06
-3.34703e-06
1.30005e-06
-3.5139e-06
1.02086e-06
-3.66305e-06
8.13462e-07
-3.80294e-06
6.71628e-07
-3.94033e-06
5.8428e-07
-4.08072e-06
5.3938e-07
-4.22881e-06
5.26723e-07
-4.38872e-06
5.38364e-07
-4.56407e-06
5.68266e-07
-4.75779e-06
6.1181e-07
-4.97199e-06
6.65013e-07
-5.20803e-06
7.24272e-07
-5.46641e-06
7.85858e-07
-5.74655e-06
8.4582e-07
-6.04667e-06
9.00335e-07
-6.36388e-06
9.45824e-07
-6.69414e-06
9.78866e-07
-7.03229e-06
9.96365e-07
-7.37229e-06
9.9581e-07
-7.7074e-06
9.75343e-07
-8.03037e-06
9.33536e-07
-8.3334e-06
8.6916e-07
-8.60828e-06
7.81167e-07
-8.84655e-06
6.68708e-07
-9.03923e-06
5.31119e-07
-9.17706e-06
3.68545e-07
-9.25235e-06
1.8288e-07
-9.25573e-06
-2.49238e-08
-9.17856e-06
-2.54586e-07
-9.01886e-06
-4.93303e-07
-8.77506e-06
-7.3526e-07
-8.44875e-06
-9.72275e-07
-8.04461e-06
-1.1963e-06
-7.56994e-06
-1.40035e-06
-7.03398e-06
-1.57911e-06
-6.44709e-06
-1.72921e-06
-5.81991e-06
-1.84921e-06
-5.16286e-06
-1.93936e-06
-4.48524e-06
-2.00129e-06
-3.79554e-06
-2.0374e-06
-3.10149e-06
-2.04958e-06
-2.40948e-06
-2.03991e-06
-1.72544e-06
-2.01037e-06
-1.05484e-06
-1.96193e-06
-4.04597e-07
-1.89454e-06
2.20313e-07
-1.80945e-06
8.10513e-07
-1.70853e-06
1.36216e-06
-1.59246e-06
1.87029e-06
-1.46446e-06
2.33052e-06
-1.32724e-06
2.73915e-06
-1.18351e-06
3.0939e-06
-1.0367e-06
3.39478e-06
-8.91568e-07
3.64443e-06
-7.5438e-07
3.8481e-06
-6.31891e-07
4.01352e-06
-5.28831e-07
4.15051e-06
-4.45127e-07
4.26987e-06
-3.75578e-07
4.38172e-06
-3.12762e-07
4.49377e-06
-2.512e-07
4.61156e-06
-1.89648e-07
4.73648e-06
-1.27613e-07
4.85999e-06
-6.27565e-08
4.96967e-06
1.49328e-08
5.04599e-06
1.08973e-07
5.06473e-06
2.11798e-07
5.00984e-06
3.05109e-07
4.88439e-06
3.70208e-07
4.71342e-06
3.97073e-07
4.53025e-06
3.8689e-07
4.3611e-06
3.47532e-07
4.21889e-06
2.89383e-07
4.10641e-06
2.22734e-07
4.02181e-06
1.56349e-07
3.96125e-06
9.69677e-08
3.91968e-06
4.80103e-08
3.89327e-06
8.70491e-09
3.87829e-06
-2.16974e-08
3.86868e-06
-3.86164e-08
3.85613e-06
-3.90898e-08
3.84165e-06
-3.88364e-08
3.84047e-06
-6.56688e-08
3.86768e-06
-1.25122e-07
3.92084e-06
-1.7107e-07
3.97212e-06
-1.38808e-07
3.97823e-06
-2.09791e-08
3.91679e-06
1.24931e-07
3.80254e-06
2.4383e-07
3.68034e-06
2.82126e-07
3.59821e-06
2.20542e-07
3.59568e-06
4.15451e-08
3.67675e-06
-1.99497e-07
3.82212e-06
-4.19157e-07
4.01564e-06
-5.30477e-07
4.19717e-06
-6.68583e-07
4.38806e-06
-7.24049e-07
4.58591e-06
-6.55059e-07
4.82353e-06
-7.47091e-07
-7.73353e-07
5.0884e-06
4.48375e-07
-2.12543e-07
9.80456e-07
-1.77213e-07
1.40016e-06
-1.10965e-07
1.72826e-06
-1.72286e-07
1.9727e-06
-2.91724e-07
2.10189e-06
-3.632e-07
2.20144e-06
-4.8245e-07
2.24975e-06
-5.75633e-07
2.21625e-06
-6.67354e-07
2.06786e-06
-6.25081e-07
1.73098e-06
-3.16713e-07
1.28766e-06
4.98409e-08
8.51069e-07
3.85736e-07
4.82959e-07
6.34387e-07
1.90184e-07
7.79761e-07
-5.05344e-08
8.58862e-07
-2.66088e-07
8.86546e-07
-4.68495e-07
8.70655e-07
-6.8044e-07
8.47562e-07
-9.30924e-07
8.48016e-07
-1.23685e-06
8.77416e-07
-1.59678e-06
9.24409e-07
-1.99559e-06
9.72188e-07
-2.41214e-06
1.00773e-06
-2.82511e-06
1.02304e-06
-3.21658e-06
1.01444e-06
-3.57341e-06
9.81699e-07
-3.8869e-06
9.2648e-07
-4.15191e-06
8.51414e-07
-4.36606e-06
7.59832e-07
-4.52883e-06
6.55404e-07
-4.6409e-06
5.41823e-07
-4.70356e-06
4.22604e-07
-4.71817e-06
3.0083e-07
-4.68604e-06
1.79519e-07
-4.6086e-06
6.14854e-08
-4.48799e-06
-5.12098e-08
-4.32449e-06
-1.57328e-07
-4.12699e-06
-2.58429e-07
-3.89979e-06
-3.54957e-07
-3.65462e-06
-4.47688e-07
-3.40182e-06
-5.36156e-07
-3.14818e-06
-6.18783e-07
-2.88248e-06
-6.90285e-07
-2.59597e-06
-7.58597e-07
-2.31015e-06
-8.29193e-07
-2.01115e-06
-8.99193e-07
-1.72213e-06
-9.7498e-07
-1.43774e-06
-1.05845e-06
-1.16039e-06
-1.15272e-06
-8.81608e-07
-1.25735e-06
-5.86489e-07
-1.37129e-06
-2.65635e-07
-1.48675e-06
9.57282e-08
-1.60509e-06
5.1039e-07
-1.71537e-06
9.49662e-07
-1.76057e-06
1.37205e-06
-1.70677e-06
1.7509e-06
-1.56851e-06
2.06902e-06
-1.38159e-06
2.33075e-06
-1.22702e-06
2.55907e-06
-1.12647e-06
2.75459e-06
-1.02687e-06
2.92682e-06
-9.56375e-07
3.13107e-06
-1.00105e-06
3.4109e-06
-1.10853e-06
3.73761e-06
-1.15152e-06
4.03311e-06
-1.05889e-06
4.28192e-06
-7.83692e-07
4.45224e-06
-2.26034e-07
4.41762e-06
5.72241e-07
4.08369e-06
1.34707e-06
3.58622e-06
2.00593e-06
2.84531e-06
2.47198e-06
1.46367e-06
2.89142e-06
-1.8586e-07
3.36627e-06
-1.38337e-06
3.57989e-06
-2.08603e-06
3.43139e-06
-2.45407e-06
3.07669e-06
-2.64305e-06
2.62587e-06
-2.75995e-06
2.16185e-06
-2.848e-06
1.73568e-06
-2.91916e-06
1.37121e-06
-2.98081e-06
1.08252e-06
-3.04306e-06
8.75713e-07
-3.11571e-06
7.44279e-07
-3.20587e-06
6.74435e-07
-3.31715e-06
6.50662e-07
-3.45089e-06
6.60468e-07
-3.60785e-06
6.95322e-07
-3.78919e-06
7.49601e-07
-3.99662e-06
8.19247e-07
-4.23192e-06
9.00313e-07
-4.4967e-06
9.89053e-07
-4.7912e-06
1.08035e-06
-5.11422e-06
1.16884e-06
-5.46326e-06
1.24938e-06
-5.8344e-06
1.31696e-06
-6.2223e-06
1.36677e-06
-6.62034e-06
1.39441e-06
-7.02094e-06
1.39641e-06
-7.41595e-06
1.37035e-06
-7.79698e-06
1.31457e-06
-8.15557e-06
1.22775e-06
-8.48299e-06
1.10859e-06
-8.77006e-06
9.55779e-07
-9.00733e-06
7.68384e-07
-9.18482e-06
5.46043e-07
-9.29263e-06
2.90687e-07
-9.32358e-06
6.02881e-09
-9.26555e-06
-3.1262e-07
-9.11654e-06
-6.42315e-07
-8.87492e-06
-9.76876e-07
-8.54286e-06
-1.30434e-06
-8.12624e-06
-1.61292e-06
-7.634e-06
-1.89259e-06
-7.07725e-06
-2.13586e-06
-6.46829e-06
-2.33817e-06
-5.81953e-06
-2.49797e-06
-5.14279e-06
-2.6161e-06
-4.44909e-06
-2.69498e-06
-3.74799e-06
-2.73851e-06
-3.04674e-06
-2.75083e-06
-2.35056e-06
-2.73609e-06
-1.66313e-06
-2.6978e-06
-9.87093e-07
-2.63797e-06
-3.25889e-07
-2.55574e-06
3.1591e-07
-2.45125e-06