/*--------------------------------*- C++ -*----------------------------------*\
  =========                 |
  \\      /  F ield         | OpenFOAM: The Open Source CFD Toolbox
   \\    /   O peration     | Website:  https://openfoam.org
    \\  /    A nd           | Version:  9
     \\/     M anipulation  |
\*---------------------------------------------------------------------------*/
FoamFile
{
    format      ascii;
    class       surfaceScalarField;
    location    "0.079";
    object      phi_0;
}
// * * * * * * * * * * * * * * * * * * * * * * * * * * * * * * * * * * * * * //

dimensions      [0 3 -1 0 0 0 0];

internalField   nonuniform List<scalar> 
24170
(
3.15751e-06
8.35845e-08
3.02556e-06
1.31957e-07
2.90318e-06
1.22379e-07
2.79146e-06
1.11718e-07
2.69033e-06
1.01132e-07
2.59282e-06
9.75111e-08
2.4956e-06
9.72177e-08
2.40415e-06
9.14471e-08
2.32708e-06
7.70677e-08
2.26239e-06
6.46906e-08
2.20079e-06
6.16009e-08
2.12803e-06
7.27653e-08
2.03829e-06
8.97365e-08
1.93471e-06
1.03579e-07
1.82386e-06
1.10849e-07
1.70981e-06
1.14057e-07
1.5802e-06
1.29607e-07
1.59391e-07
1.42081e-06
3.45546e-06
1.25015e-07
3.44078e-06
1.46633e-07
3.43553e-06
1.27632e-07
3.43423e-06
1.13019e-07
3.43369e-06
1.01672e-07
3.43737e-06
9.38328e-08
3.44364e-06
9.09447e-08
3.44364e-06
9.14489e-08
3.43032e-06
9.03878e-08
3.40325e-06
9.17555e-08
3.36787e-06
9.69852e-08
3.33022e-06
1.10415e-07
3.2922e-06
1.27757e-07
3.25244e-06
1.43333e-07
3.21016e-06
1.53131e-07
3.1578e-06
1.66415e-07
3.10196e-06
1.85453e-07
2.18503e-07
3.04285e-06
3.60622e-06
1.41015e-07
3.66929e-06
8.35612e-08
3.72116e-06
7.57589e-08
3.73827e-06
9.59112e-08
3.72309e-06
1.16854e-07
3.69297e-06
1.23946e-07
3.66487e-06
1.19052e-07
3.6441e-06
1.12215e-07
3.62843e-06
1.06056e-07
3.61779e-06
1.02393e-07
3.61238e-06
1.02398e-07
3.61317e-06
1.09631e-07
3.61612e-06
1.24798e-07
3.61662e-06
1.4284e-07
3.6096e-06
1.60151e-07
3.59636e-06
1.79656e-07
3.58064e-06
2.0117e-07
2.28269e-07
3.57087e-06
4.03389e-06
7.38327e-08
3.99528e-06
1.22171e-07
3.95063e-06
1.20409e-07
3.93351e-06
1.13029e-07
3.93845e-06
1.11916e-07
3.94259e-06
1.19808e-07
3.93364e-06
1.28005e-07
3.91189e-06
1.33964e-07
3.88279e-06
1.35158e-07
3.85432e-06
1.3086e-07
3.83285e-06
1.23871e-07
3.8222e-06
1.2028e-07
3.82132e-06
1.25679e-07
3.8251e-06
1.3906e-07
3.82812e-06
1.57123e-07
3.82828e-06
1.795e-07
3.8261e-06
2.03346e-07
2.30703e-07
3.82367e-06
4.18691e-06
8.6528e-08
4.22248e-06
8.66019e-08
4.2224e-06
1.20489e-07
4.21439e-06
1.21042e-07
4.21724e-06
1.09066e-07
4.23219e-06
1.04858e-07
4.24926e-06
1.1093e-07
4.26213e-06
1.21099e-07
4.26836e-06
1.28929e-07
4.26558e-06
1.33637e-07
4.25145e-06
1.38002e-07
4.22753e-06
1.44196e-07
4.19995e-06
1.53267e-07
4.17528e-06
1.63721e-07
4.15764e-06
1.74766e-07
4.14837e-06
1.88772e-07
4.14529e-06
2.06424e-07
2.29983e-07
4.14601e-06
4.51723e-06
5.01556e-08
4.53527e-06
6.85655e-08
4.51784e-06
1.37919e-07
4.48632e-06
1.52566e-07
4.46799e-06
1.27394e-07
4.46247e-06
1.10373e-07
4.46008e-06
1.13327e-07
4.45639e-06
1.24787e-07
4.45141e-06
1.33909e-07
4.44678e-06
1.38265e-07
4.44385e-06
1.40937e-07
4.44295e-06
1.45095e-07
4.44406e-06
1.52156e-07
4.4466e-06
1.61176e-07
4.44997e-06
1.71396e-07
4.45382e-06
1.84927e-07
4.45779e-06
2.02453e-07
2.26999e-07
4.46077e-06
4.86297e-06
5.09783e-08
4.92836e-06
3.18e-09
4.93484e-06
1.31434e-07
4.92582e-06
1.61587e-07
4.91732e-06
1.35895e-07
4.90637e-06
1.21326e-07
4.89085e-06
1.28845e-07
4.87255e-06
1.43081e-07
4.85457e-06
1.51888e-07
4.83906e-06
1.53784e-07
4.82637e-06
1.53624e-07
4.81553e-06
1.55937e-07
4.80526e-06
1.62424e-07
4.79449e-06
1.71947e-07
4.78368e-06
1.82198e-07
4.77449e-06
1.94118e-07
4.76911e-06
2.07841e-07
2.26735e-07
4.76937e-06
5.15923e-06
-1.57733e-08
5.14537e-06
1.70399e-08
5.17979e-06
9.70176e-08
5.19503e-06
1.46342e-07
5.1724e-06
1.58528e-07
5.13941e-06
1.54313e-07
5.12561e-06
1.4265e-07
5.13881e-06
1.29881e-07
5.1676e-06
1.23098e-07
5.19535e-06
1.26035e-07
5.21165e-06
1.37324e-07
5.21507e-06
1.52521e-07
5.21025e-06
1.67237e-07
5.20174e-06
1.80455e-07
5.19132e-06
1.92628e-07
5.17879e-06
2.06639e-07
5.16286e-06
2.23775e-07
2.44547e-07
5.14505e-06
5.7904e-06
1.67416e-07
5.6872e-06
1.2024e-07
5.6508e-06
1.33411e-07
5.63406e-06
1.63085e-07
5.60606e-06
1.86527e-07
5.56358e-06
1.96793e-07
5.52361e-06
1.8262e-07
5.50147e-06
1.52021e-07
5.49836e-06
1.26208e-07
5.50502e-06
1.19376e-07
5.51125e-06
1.31095e-07
5.51192e-06
1.51848e-07
5.50757e-06
1.71587e-07
5.50198e-06
1.86049e-07
5.49811e-06
1.96494e-07
5.49723e-06
2.07519e-07
5.49875e-06
2.22259e-07
2.4334e-07
5.49995e-06
5.84655e-06
9.06137e-08
5.86128e-06
1.0551e-07
5.86584e-06
1.28847e-07
5.88369e-06
1.4524e-07
5.89685e-06
1.73361e-07
5.90618e-06
1.87462e-07
5.91861e-06
1.7019e-07
5.93519e-06
1.35442e-07
5.95334e-06
1.08064e-07
5.96983e-06
1.0288e-07
5.98083e-06
1.20098e-07
5.98302e-06
1.49659e-07
5.97497e-06
1.7963e-07
5.95879e-06
2.02229e-07
5.9399e-06
2.15389e-07
5.92414e-06
2.23275e-07
5.91707e-06
2.29334e-07
2.41497e-07
5.91891e-06
6.35056e-06
-6.84208e-08
6.36897e-06
8.70993e-08
6.36762e-06
1.30199e-07
6.36425e-06
1.48609e-07
6.37477e-06
1.62843e-07
6.3949e-06
1.67331e-07
6.4059e-06
1.5919e-07
6.39527e-06
1.4607e-07
6.36864e-06
1.34692e-07
6.34119e-06
1.30334e-07
6.32339e-06
1.37902e-07
6.3157e-06
1.57345e-07
6.3134e-06
1.81927e-07
6.31142e-06
2.04209e-07
6.30872e-06
2.18094e-07
6.30627e-06
2.25726e-07
6.3073e-06
2.28298e-07
2.32491e-07
6.31631e-06
5.68162e-06
-5.83089e-08
5.71325e-06
5.54745e-08
5.75337e-06
9.00712e-08
5.79089e-06
1.11089e-07
5.82128e-06
1.32453e-07
5.83517e-06
1.53447e-07
5.82364e-06
1.70715e-07
5.79013e-06
1.79585e-07
5.75015e-06
1.74667e-07
5.71966e-06
1.60826e-07
5.70606e-06
1.51499e-07
5.70731e-06
1.56104e-07
5.71608e-06
1.73151e-07
5.72407e-06
1.96224e-07
5.72551e-06
2.16647e-07
5.7194e-06
2.31841e-07
5.70736e-06
2.40337e-07
2.45249e-07
5.6946e-06
6.84603e-06
-1.15918e-07
6.93325e-06
-3.17475e-08
6.98586e-06
3.74613e-08
6.97329e-06
1.23658e-07
6.92298e-06
1.82757e-07
6.88621e-06
1.90219e-07
6.88467e-06
1.72262e-07
6.91088e-06
1.53373e-07
6.94565e-06
1.39895e-07
6.97402e-06
1.32457e-07
6.99246e-06
1.33055e-07
7.00607e-06
1.42499e-07
7.02067e-06
1.5855e-07
7.03867e-06
1.78227e-07
7.05763e-06
1.97681e-07
7.07461e-06
2.14868e-07
7.08632e-06
2.28618e-07
2.38622e-07
7.09295e-06
8.42352e-06
-2.0864e-07
8.40354e-06
-1.17635e-08
8.39126e-06
4.974e-08
8.39799e-06
1.16932e-07
8.43122e-06
1.49521e-07
8.47751e-06
1.43933e-07
8.51583e-06
1.33944e-07
8.53737e-06
1.31833e-07
8.54403e-06
1.33235e-07
8.5403e-06
1.36187e-07
8.53015e-06
1.43206e-07
8.51683e-06
1.5582e-07
8.50304e-06
1.72333e-07
8.492e-06
1.8927e-07
8.48688e-06
2.02802e-07
8.48942e-06
2.12329e-07
8.50138e-06
2.16651e-07
2.20405e-07
8.5196e-06
1.02146e-05
-1.42793e-07
1.01981e-05
4.66986e-09
1.02545e-05
-6.61462e-09
1.03542e-05
1.72763e-08
1.0425e-05
7.86391e-08
1.04237e-05
1.45236e-07
1.03687e-05
1.88949e-07
1.03034e-05
1.9716e-07
1.02534e-05
1.83247e-07
1.02215e-05
1.68083e-07
1.02014e-05
1.63334e-07
1.01888e-05
1.68432e-07
1.01845e-05
1.76621e-07
1.01926e-05
1.81098e-07
1.02167e-05
1.78717e-07
1.02568e-05
1.72233e-07
1.03097e-05
1.63725e-07
1.6059e-07
1.03696e-05
1.21166e-05
-1.20484e-07
1.22643e-05
-1.43043e-07
1.24067e-05
-1.49007e-07
1.25361e-05
-1.12081e-07
1.26201e-05
-5.3751e-09
1.26533e-05
1.12004e-07
1.26489e-05
1.93426e-07
1.26332e-05
2.12762e-07
1.26203e-05
1.96203e-07
1.26124e-05
1.76007e-07
1.26089e-05
1.66773e-07
1.26113e-05
1.66056e-07
1.26229e-05
1.65001e-07
1.26463e-05
1.57691e-07
1.26809e-05
1.44138e-07
1.27231e-05
1.30016e-07
1.27675e-05
1.19336e-07
1.18869e-07
1.28092e-05
1.55724e-05
-8.1319e-09
1.53509e-05
7.84802e-08
1.51084e-05
9.34408e-08
1.49365e-05
5.98159e-08
1.48805e-05
5.06005e-08
1.49232e-05
6.93292e-08
1.5024e-05
9.26214e-08
1.51281e-05
1.08676e-07
1.52047e-05
1.19577e-07
1.52507e-05
1.30047e-07
1.52779e-05
1.39609e-07
1.5302e-05
1.41903e-07
1.53342e-05
1.32855e-07
1.53773e-05
1.14503e-07
1.54279e-05
9.355e-08
1.54802e-05
7.77067e-08
1.55291e-05
7.05077e-08
7.47512e-08
1.55732e-05
1.88544e-05
3.79916e-07
1.86137e-05
3.19217e-07
1.84877e-05
2.19431e-07
1.84053e-05
1.42244e-07
1.83928e-05
6.30439e-08
1.84737e-05
-1.15191e-08
1.86127e-05
-4.64224e-08
1.87482e-05
-2.6783e-08
1.88379e-05
2.98617e-08
1.88736e-05
9.43148e-08
1.88776e-05
1.35644e-07
1.88794e-05
1.40117e-07
1.88997e-05
1.12507e-07
1.89446e-05
6.9622e-08
1.90089e-05
2.92625e-08
1.90819e-05
4.72275e-09
1.91532e-05
-8.47618e-10
1.36867e-08
1.92143e-05
2.24315e-05
2.95644e-07
2.25958e-05
1.54922e-07
2.27384e-05
7.67486e-08
2.28347e-05
4.60381e-08
2.2866e-05
3.1659e-08
2.28257e-05
2.87886e-08
2.27439e-05
3.53962e-08
2.26696e-05
4.75534e-08
2.26401e-05
5.9358e-08
2.26672e-05
6.72058e-08
2.27335e-05
6.93104e-08
2.28059e-05
6.76934e-08
2.28542e-05
6.42252e-08
2.28649e-05
5.89925e-08
2.28447e-05
4.93908e-08
2.2813e-05
3.6475e-08
2.27921e-05
2.00037e-08
5.23706e-09
2.28006e-05
1.63537e-05
1.64783e-07
1.66077e-05
-9.91321e-08
1.67688e-05
-8.42768e-08
1.68159e-05
-1.1345e-09
1.68026e-05
4.49838e-08
1.67806e-05
5.08259e-08
1.67899e-05
2.61002e-08
1.6844e-05
-6.54871e-09
1.69288e-05
-2.54595e-08
1.70154e-05
-1.94583e-08
1.70741e-05
1.06531e-08
1.70888e-05
5.30411e-08
1.70616e-05
9.1338e-08
1.70083e-05
1.12374e-07
1.69493e-05
1.08305e-07
1.69033e-05
8.24765e-08
1.68814e-05
4.19244e-08
2.32919e-10
1.68864e-05
1.43087e-05
4.68782e-08
1.43422e-05
-1.32661e-07
1.43773e-05
-1.19356e-07
1.44525e-05
-7.6276e-08
1.45549e-05
-5.74471e-08
1.46571e-05
-5.13945e-08
1.47363e-05
-5.30499e-08
1.47858e-05
-5.60945e-08
1.48089e-05
-4.85572e-08
1.48102e-05
-2.07685e-08
1.47991e-05
2.17337e-08
1.47868e-05
6.53682e-08
1.47852e-05
9.2965e-08
1.48017e-05
9.58613e-08
1.48336e-05
7.6388e-08
1.48717e-05
4.44331e-08
1.49024e-05
1.1159e-08
-1.84629e-08
1.49211e-05
1.27077e-05
-6.46436e-08
1.26774e-05
-1.02405e-07
1.26694e-05
-1.11359e-07
1.26833e-05
-9.01282e-08
1.27077e-05
-8.189e-08
1.27299e-05
-7.36034e-08
1.27437e-05
-6.68498e-08
1.27571e-05
-6.9426e-08
1.27857e-05
-7.72393e-08
1.2841e-05
-7.60535e-08
1.2919e-05
-5.62885e-08
1.30058e-05
-2.13563e-08
1.30821e-05
1.66109e-08
1.31324e-05
4.56238e-08
1.31487e-05
6.00584e-08
1.31324e-05
6.07735e-08
1.30924e-05
5.11293e-08
3.45988e-08
1.30393e-05
1.12181e-05
-2.20198e-07
1.11728e-05
-5.70727e-08
1.11057e-05
-4.42968e-08
1.10941e-05
-7.85332e-08
1.11192e-05
-1.06998e-07
1.11567e-05
-1.1112e-07
1.119e-05
-1.0016e-07
1.12079e-05
-8.72891e-08
1.12061e-05
-7.54078e-08
1.11902e-05
-6.01308e-08
1.11707e-05
-3.68447e-08
1.11557e-05
-6.38261e-09
1.11466e-05
2.5763e-08
1.11393e-05
5.2875e-08
1.1131e-05
6.84184e-08
1.11215e-05
7.02678e-08
1.1114e-05
5.86538e-08
3.71319e-08
1.11114e-05
9.68716e-06
-3.13758e-07
9.71036e-06
-8.02769e-08
9.65987e-06
6.19449e-09
9.64903e-06
-6.76865e-08
9.68638e-06
-1.44355e-07
9.7355e-06
-1.60237e-07
9.76737e-06
-1.32031e-07
9.76651e-06
-8.64286e-08
9.73315e-06
-4.20523e-08
9.68176e-06
-8.73996e-09
9.63288e-06
1.20382e-08
9.604e-06
2.24949e-08
9.60236e-06
2.74057e-08
9.62608e-06
2.91546e-08
9.66724e-06
2.72546e-08
9.71713e-06
2.0381e-08
9.76725e-06
8.53382e-09
-6.7256e-09
9.81111e-06
8.40934e-06
-1.0147e-07
8.31421e-06
1.4857e-08
8.346e-06
-2.55938e-08
8.37644e-06
-9.81262e-08
8.36627e-06
-1.34193e-07
8.34435e-06
-1.3831e-07
8.33396e-06
-1.21639e-07
8.3407e-06
-9.31784e-08
8.36209e-06
-6.34356e-08
8.39368e-06
-4.03343e-08
8.43102e-06
-2.52964e-08
8.46947e-06
-1.59532e-08
8.50603e-06
-9.15846e-09
8.53901e-06
-3.82527e-09
8.56723e-06
-9.6778e-10
8.58927e-06
-1.65408e-09
8.60408e-06
-6.27599e-09
-1.38423e-08
8.61119e-06
7.32383e-06
-1.34489e-07
7.36719e-06
-2.8505e-08
7.43396e-06
-9.23629e-08
7.4506e-06
-1.14761e-07
7.41846e-06
-1.02056e-07
7.37227e-06
-9.21216e-08
7.33641e-06
-8.57797e-08
7.31329e-06
-7.00593e-08
7.29812e-06
-4.82665e-08
7.28918e-06
-3.13875e-08
7.28824e-06
-2.43583e-08
7.29696e-06
-2.46746e-08
7.31483e-06
-2.70292e-08
7.33876e-06
-2.77587e-08
7.36394e-06
-2.61429e-08
7.38599e-06
-2.37031e-08
7.40182e-06
-2.21046e-08
-2.21627e-08
7.41014e-06
6.4615e-06
-9.07487e-08
6.47942e-06
-4.64302e-08
6.4868e-06
-9.97433e-08
6.48215e-06
-1.10112e-07
6.47775e-06
-9.76485e-08
6.47663e-06
-9.10051e-08
6.4739e-06
-8.30477e-08
6.46433e-06
-6.04944e-08
6.44736e-06
-3.12977e-08
6.42847e-06
-1.24975e-08
6.4162e-06
-1.20828e-08
6.41712e-06
-2.55968e-08
6.43272e-06
-4.26286e-08
6.45955e-06
-5.45852e-08
6.49137e-06
-5.79707e-08
6.52215e-06
-5.44779e-08
6.54648e-06
-4.64315e-08
-3.74714e-08
6.56178e-06
5.71139e-06
-1.36502e-07
5.74405e-06
-7.90882e-08
5.72968e-06
-8.53782e-08
5.70297e-06
-8.33961e-08
5.67977e-06
-7.44548e-08
5.65721e-06
-6.84366e-08
5.63125e-06
-5.70957e-08
5.60936e-06
-3.8601e-08
5.60106e-06
-2.29994e-08
5.60865e-06
-2.00809e-08
5.62761e-06
-3.10501e-08
5.6504e-06
-4.83789e-08
5.67055e-06
-6.27783e-08
5.68417e-06
-6.82087e-08
5.6897e-06
-6.3505e-08
5.6875e-06
-5.22768e-08
5.67932e-06
-3.82462e-08
-2.6525e-08
5.66837e-06
4.76496e-06
-1.02453e-07
4.81297e-06
-1.27094e-07
4.82417e-06
-9.65775e-08
4.81906e-06
-7.82877e-08
4.81749e-06
-7.28854e-08
4.82411e-06
-7.50613e-08
4.84323e-06
-7.62086e-08
4.87522e-06
-7.05966e-08
4.91165e-06
-5.94328e-08
4.93911e-06
-4.75377e-08
4.94706e-06
-3.89974e-08
4.93392e-06
-3.5243e-08
4.90666e-06
-3.55192e-08
4.87606e-06
-3.76011e-08
4.85144e-06
-3.88886e-08
4.83768e-06
-3.85162e-08
4.83534e-06
-3.59106e-08
-3.23149e-08
4.84113e-06
4.23149e-06
4.1044e-06
4.00782e-06
3.92953e-06
3.85665e-06
3.78158e-06
3.70538e-06
3.63478e-06
3.57535e-06
3.52781e-06
3.48881e-06
3.45357e-06
3.41805e-06
3.38045e-06
3.34156e-06
3.30304e-06
3.26713e-06
3.23482e-06
-4.30186e-07
4.30186e-07
-8.57512e-07
4.27326e-07
-1.19788e-06
3.40365e-07
-1.40863e-06
2.10752e-07
-1.47486e-06
6.62353e-08
-1.40613e-06
-6.87316e-08
-1.2149e-06
-1.91232e-07
-9.0577e-07
-3.0913e-07
-4.99581e-07
-4.06189e-07
-6.51698e-08
-4.34411e-07
3.09299e-07
-3.74469e-07
5.54459e-07
-2.4516e-07
6.4162e-07
-8.71617e-08
5.83792e-07
5.78287e-08
4.24905e-07
1.58887e-07
2.14951e-07
2.09954e-07
-4.16984e-09
2.19121e-07
-2.08706e-07
2.04536e-07
-3.90961e-07
1.82255e-07
-5.53986e-07
1.63025e-07
-7.05004e-07
1.51018e-07
-8.5063e-07
1.45625e-07
-9.95086e-07
1.44456e-07
-1.14054e-06
1.4545e-07
-1.28796e-06
1.47429e-07
-1.43752e-06
1.49561e-07
-1.58883e-06
1.51309e-07
-1.74083e-06
1.51998e-07
-1.89196e-06
1.51131e-07
-2.04026e-06
1.48298e-07
-2.18339e-06
1.43126e-07
-2.31941e-06
1.36021e-07
-2.44664e-06
1.27234e-07
-2.56453e-06
1.17892e-07
-2.67416e-06
1.09625e-07
-2.77853e-06
1.0437e-07
-2.88516e-06
1.06635e-07
-3.0066e-06
1.21434e-07
-3.16263e-06
1.56033e-07
-3.36156e-06
1.98934e-07
-3.55509e-06
1.93527e-07
-3.64131e-06
8.62163e-08
-3.5809e-06
-6.04088e-08
-3.48032e-06
-1.00583e-07
-3.43164e-06
-4.86769e-08
-3.39911e-06
-3.25272e-08
-3.3594e-06
-3.97087e-08
-3.26814e-06
-9.12626e-08
-3.10216e-06
-1.65979e-07
-2.84061e-06
-2.61552e-07
-2.50923e-06
-3.31382e-07
-2.12962e-06
-3.79604e-07
-1.70661e-06
-4.23012e-07
-1.25297e-06
-4.53635e-07
-7.90648e-07
-4.62327e-07
-3.35161e-07
-4.55487e-07
1.00521e-07
-4.35682e-07
5.08551e-07
-4.08031e-07
8.87619e-07
-3.79068e-07
1.24675e-06
-3.59135e-07
1.58825e-06
-3.41497e-07
1.91856e-06
-3.30312e-07
2.26448e-06
-3.45921e-07
2.64526e-06
-3.80771e-07
3.05004e-06
-4.0478e-07
3.45219e-06
-4.02151e-07
3.79394e-06
-3.41755e-07
4.03116e-06
-2.37222e-07
4.15305e-06
-1.21889e-07
4.0933e-06
5.97571e-08
3.78266e-06
3.10633e-07
3.1262e-06
6.56459e-07
2.08997e-06
1.03624e-06
1.32699e-06
7.62974e-07
1.39156e-06
-6.45674e-08
1.79135e-06
-3.99788e-07
1.79957e-06
-8.22125e-09
1.24306e-06
5.56513e-07
2.78555e-07
9.64501e-07
-7.31874e-07
1.01043e-06
-1.59531e-06
8.63441e-07
-2.27823e-06
6.82912e-07
-2.8029e-06
5.24675e-07
-3.20425e-06
4.01346e-07
-3.51721e-06
3.12968e-07
-3.77233e-06
2.55114e-07
-3.99361e-06
2.2128e-07
-4.19893e-06
2.0532e-07
-4.40111e-06
2.02179e-07
-4.60912e-06
2.08012e-07
-4.82974e-06
2.2062e-07
-5.06759e-06
2.37849e-07
-5.32546e-06
2.57873e-07
-5.60452e-06
2.79063e-07
-5.90436e-06
2.99836e-07
-6.22308e-06
3.18723e-07
-6.55746e-06
3.34372e-07
-6.90299e-06
3.45538e-07
-7.25414e-06
3.51148e-07
-7.60445e-06
3.50308e-07
-7.9468e-06
3.42352e-07
-8.27361e-06
3.26809e-07
-8.57689e-06
3.03284e-07
-8.84833e-06
2.71432e-07
-9.07933e-06
2.31002e-07
-9.26124e-06
1.81907e-07
-9.38552e-06
1.24289e-07
-9.44401e-06
5.8487e-08
-9.43159e-06
-1.24212e-08
-9.34431e-06
-8.72834e-08
-9.17964e-06
-1.64663e-07
-8.9371e-06
-2.42545e-07
-8.61845e-06
-3.18653e-07
-8.22783e-06
-3.90621e-07
-7.77147e-06
-4.5636e-07
-7.25724e-06
-5.14228e-07
-6.69412e-06
-5.63122e-07
-6.09167e-06
-6.02449e-07
-5.45959e-06
-6.32074e-07
-4.80734e-06
-6.5225e-07
-4.14376e-06
-6.63583e-07
-3.47691e-06
-6.66851e-07
-2.81446e-06
-6.62452e-07
-2.16356e-06
-6.50902e-07
-1.53042e-06
-6.33139e-07
-9.21583e-07
-6.08833e-07
-3.43688e-07
-5.77895e-07
2.0141e-07
-5.45098e-07
7.08354e-07
-5.06944e-07
1.17337e-06
-4.65017e-07
1.59443e-06
-4.21059e-07
1.97057e-06
-3.76145e-07
2.30157e-06
-3.30996e-07
2.58786e-06
-2.86293e-07
2.83136e-06
-2.43491e-07
3.03659e-06
-2.05239e-07
3.21049e-06
-1.73899e-07
3.35806e-06
-1.47564e-07
3.47462e-06
-1.16567e-07
3.54271e-06
-6.80815e-08
3.54493e-06
-2.22852e-09
3.48238e-06
6.25512e-08
3.37455e-06
1.0783e-07
3.24785e-06
1.26703e-07
3.12415e-06
1.23704e-07
3.01472e-06
1.09425e-07
2.92125e-06
9.34747e-08
2.84023e-06
8.10127e-08
2.76741e-06
7.28259e-08
2.69984e-06
6.75692e-08
2.63688e-06
6.29598e-08
2.58035e-06
5.65308e-08
2.53386e-06
4.64847e-08
2.50081e-06
3.30552e-08
2.48236e-06
1.84503e-08
2.47771e-06
4.64891e-09
2.48569e-06
-7.98401e-09
2.50373e-06
-1.80322e-08
2.52817e-06
-2.44418e-08
2.55545e-06
-2.72847e-08
2.58307e-06
-2.76216e-08
2.6091e-06
-2.60262e-08
2.6343e-06
-2.52006e-08
2.66429e-06
-2.99914e-08
2.70081e-06
-3.65163e-08
2.72739e-06
-2.65829e-08
2.72478e-06
2.60989e-09
2.70418e-06
2.06022e-08
2.68484e-06
1.93438e-08
2.6518e-06
3.30321e-08
2.60372e-06
4.80842e-08
2.61157e-06
-7.8492e-09
2.71713e-06
-1.05562e-07
2.86162e-06
-1.44488e-07
3.01379e-06
-1.52167e-07
3.30533e-06
-2.91549e-07
3.57844e-06
-2.73109e-07
3.78433e-06
-2.05888e-07
4.04235e-06
-2.58015e-07
-2.05095e-07
4.24744e-06
-1.66779e-07
5.96965e-07
-3.56265e-07
6.16812e-07
-4.96459e-07
4.80559e-07
-5.60396e-07
2.74689e-07
-5.51969e-07
5.7808e-08
-4.91474e-07
-1.29227e-07
-3.876e-07
-2.95106e-07
-2.27923e-07
-4.68807e-07
1.77489e-08
-6.51862e-07
3.24395e-07
-7.41058e-07
6.27485e-07
-6.77559e-07
8.47471e-07
-4.65145e-07
9.45777e-07
-1.85468e-07
9.33903e-07
6.97026e-08
8.30819e-07
2.61971e-07
6.6617e-07
3.74603e-07
4.65624e-07
4.19668e-07
2.48691e-07
4.21469e-07
2.82347e-08
4.02711e-07
-1.89276e-07
3.80535e-07
-3.989e-07
3.60643e-07
-5.99581e-07
3.46306e-07
-7.94116e-07
3.38991e-07
-9.86737e-07
3.38071e-07
-1.18045e-06
3.41139e-07
-1.37603e-06
3.45147e-07
-1.57208e-06
3.47356e-07
-1.7656e-06
3.45518e-07
-1.95254e-06
3.3807e-07
-2.12843e-06
3.24191e-07
-2.28909e-06
3.03781e-07
-2.43075e-06
2.77681e-07
-2.55058e-06
2.47068e-07
-2.64651e-06
2.1382e-07
-2.71718e-06
1.80298e-07
-2.76122e-06
1.4841e-07
-2.7748e-06
1.20212e-07
-2.75042e-06
9.70533e-08
-2.67223e-06
7.78399e-08
-2.53029e-06
5.6991e-08
-2.35713e-06
2.0372e-08
-2.2278e-06
-4.31177e-08
-2.17026e-06
-1.17945e-07
-2.1149e-06
-1.55945e-07
-1.99545e-06
-1.68129e-07
-1.78788e-06
-2.40093e-07
-1.54771e-06
-2.79879e-07
-1.27452e-06
-3.64447e-07
-9.88707e-07
-4.51798e-07
-6.90177e-07
-5.60081e-07
-3.61207e-07
-6.60353e-07
3.96934e-09
-7.4478e-07
3.98468e-07
-8.17511e-07
8.13529e-07
-8.68696e-07
1.24145e-06
-8.90243e-07
1.6738e-06
-8.87838e-07
2.0951e-06
-8.56982e-07
2.4782e-06
-7.91131e-07
2.81526e-06
-7.16127e-07
3.12234e-06
-6.66219e-07
3.40613e-06
-6.25286e-07
3.6621e-06
-5.86287e-07
3.904e-06
-5.87817e-07
4.14941e-06
-6.26183e-07
4.38608e-06
-6.41442e-07
4.59272e-06
-6.08792e-07
4.76093e-06
-5.09969e-07
4.81826e-06
-2.94547e-07
4.67204e-06
2.43252e-08
4.39321e-06
3.38588e-07
4.11275e-06
5.91092e-07
3.72472e-06
1.04449e-06
3.29778e-06
1.46318e-06
3.11122e-06
9.49526e-07
2.75463e-06
2.92026e-07
1.79382e-06
5.61024e-07
4.23426e-07
1.36217e-06
-8.68491e-07
1.84843e-06
-1.82819e-06
1.9242e-06
-2.53205e-06
1.71429e-06
-3.07265e-06
1.40403e-06
-3.49252e-06
1.10278e-06
-3.82037e-06
8.52528e-07
-4.08212e-06
6.63099e-07
-4.29997e-06
5.30817e-07
-4.49114e-06
4.46281e-07
-4.66851e-06
3.98651e-07
-4.84173e-06
3.78544e-07
-5.0181e-06
3.78543e-07
-5.20319e-06
3.9311e-07
-5.40087e-06
4.18295e-07
-5.61397e-06
4.5095e-07
-5.84429e-06
4.88194e-07
-6.0924e-06
5.27174e-07
-6.35761e-06
5.65045e-07
-6.63804e-06
5.99154e-07
-6.93073e-06
6.27057e-07
-7.23169e-06
6.46503e-07
-7.53606e-06
6.55521e-07
-7.83827e-06
6.52513e-07
-8.13222e-06
6.36306e-07
-8.41145e-06
6.0604e-07
-8.66922e-06
5.61046e-07
-8.8985e-06
5.00719e-07
-9.09198e-06
4.24481e-07
-9.24232e-06
3.3224e-07
-9.34245e-06
2.24419e-07
-9.38527e-06
1.01309e-07
-9.36322e-06
-3.44661e-08
-9.26735e-06
-1.83151e-07
-9.09325e-06
-3.38767e-07
-8.83984e-06
-4.95957e-07
-8.50876e-06
-6.4973e-07
-8.10422e-06
-7.9516e-07
-7.63267e-06
-9.27917e-07
-7.10225e-06
-1.04464e-06
-6.52224e-06
-1.14314e-06
-5.90244e-06
-1.22225e-06
-5.25252e-06
-1.28199e-06
-4.58186e-06
-1.32291e-06
-3.89889e-06
-1.34656e-06
-3.21167e-06
-1.35407e-06
-2.52795e-06
-1.34617e-06
-1.85451e-06
-1.32435e-06
-1.1985e-06
-1.28914e-06
-5.65431e-07
-1.24191e-06
3.86824e-08
-1.18201e-06
6.09077e-07
-1.11549e-06
1.13998e-06
-1.03784e-06
1.62821e-06
-9.53251e-07
2.07102e-06
-8.63869e-07
2.46662e-06
-7.71738e-07
2.81449e-06
-6.78866e-07
3.11596e-06
-5.87772e-07
3.37458e-06
-5.02103e-07
3.59533e-06
-4.25994e-07
3.78303e-06
-3.61596e-07
3.94212e-06
-3.06657e-07
4.08044e-06
-2.54889e-07
4.21194e-06
-1.99583e-07
4.34749e-06
-1.37775e-07
4.48047e-06
-7.04312e-08
4.5896e-06
-1.29655e-09
4.65412e-06
6.21826e-08
4.65167e-06
1.26151e-07
4.57447e-06
1.86627e-07
4.43662e-06
2.31325e-07
4.26733e-06
2.50301e-07
4.09582e-06
2.44342e-07
3.93788e-06
2.25503e-07
3.79777e-06
2.03072e-07
3.67668e-06
1.77617e-07
3.57693e-06
1.46239e-07
3.50075e-06
1.09234e-07
3.44845e-06
7.07541e-08
3.41755e-06
3.5548e-08
3.40386e-06
5.70786e-09
3.40413e-06
-1.83042e-08
3.41682e-06
-3.71366e-08
3.43804e-06
-4.84998e-08
3.46219e-06
-5.17728e-08
3.48976e-06
-5.35971e-08
3.53207e-06
-6.75121e-08
3.6008e-06
-9.87194e-08
3.68233e-06
-1.18045e-07
3.7423e-06
-8.65513e-08
3.75814e-06
-1.32288e-08
3.71364e-06
6.50996e-08
3.60235e-06
1.30632e-07
3.47558e-06
1.598e-07
3.38681e-06
1.36857e-07
3.34287e-06
3.60917e-08
3.35924e-06
-1.21931e-07
3.49108e-06
-2.76326e-07
3.67791e-06
-3.38997e-07
3.87619e-06
-4.89835e-07
4.13729e-06
-5.34203e-07
4.39024e-06
-4.58837e-07
4.64602e-06
-5.13802e-07
-5.0607e-07
4.947e-06
3.58487e-07
2.38477e-07
6.17467e-07
3.57832e-07
7.87359e-07
3.10667e-07
9.05876e-07
1.56172e-07
1.01166e-06
-4.79723e-08
1.11742e-06
-2.34995e-07
1.20664e-06
-3.84317e-07
1.26823e-06
-5.30404e-07
1.32147e-06
-7.05099e-07
1.35651e-06
-7.76101e-07
1.33295e-06
-6.53991e-07
1.25971e-06
-3.91909e-07
1.12321e-06
-4.89716e-08
9.25808e-07
2.67108e-07
7.01154e-07
4.86625e-07
4.58688e-07
6.17068e-07
2.08671e-07
6.69686e-07
-3.68564e-08
6.66996e-07
-2.68651e-07
6.34506e-07
-4.84658e-07
5.96542e-07
-6.94558e-07
5.70543e-07
-9.11691e-07
5.63439e-07
-1.14481e-06
5.72115e-07
-1.39634e-06
5.89596e-07
-1.66333e-06
6.08125e-07
-1.93886e-06
6.2068e-07
-2.21377e-06
6.2227e-07
-2.4784e-06
6.10147e-07
-2.72371e-06
5.83382e-07
-2.94208e-06
5.42556e-07
-3.12773e-06
4.89434e-07
-3.27658e-06
4.26526e-07
-3.38625e-06
3.56743e-07
-3.4555e-06
2.83068e-07
-3.4838e-06
2.08595e-07
-3.47142e-06
1.36037e-07
-3.41797e-06
6.67637e-08
-3.32502e-06
4.09936e-09
-3.18442e-06
-6.27644e-08
-2.99889e-06
-1.28539e-07
-2.77634e-06
-2.0217e-07
-2.53745e-06
-2.82012e-07
-2.29167e-06
-3.63725e-07
-2.02418e-06
-4.23437e-07
-1.72194e-06
-4.70367e-07
-1.42077e-06
-5.41259e-07
-1.10314e-06
-5.97517e-07
-7.84708e-07
-6.82875e-07
-4.65692e-07
-7.70814e-07
-1.53515e-07
-8.72259e-07
1.61884e-07
-9.75752e-07
4.90711e-07
-1.07361e-06
8.36629e-07
-1.16343e-06
1.20895e-06
-1.24102e-06
1.61611e-06
-1.2974e-06
2.04588e-06
-1.3176e-06
2.46941e-06
-1.28052e-06
2.86394e-06
-1.18565e-06
3.20786e-06
-1.06005e-06
3.50458e-06
-9.62939e-07
3.7753e-06
-8.9601e-07
4.01835e-06
-8.29334e-07
4.21419e-06
-7.83658e-07
4.38616e-06
-7.9815e-07
4.5751e-06
-8.30387e-07
4.79287e-06
-8.26559e-07
5.04715e-06
-7.64249e-07
5.28381e-06
-5.31202e-07
5.3585e-06
-5.03685e-08
5.15819e-06
5.38897e-07
4.736e-06
1.01328e-06
4.27117e-06
1.50932e-06
4.01011e-06
1.72424e-06
3.44637e-06
1.51327e-06
1.99642e-06
1.74198e-06
1.52432e-07
2.40501e-06
-1.22334e-06
2.73795e-06
-2.08587e-06
2.71096e-06
-2.59731e-06
2.43564e-06
-2.92566e-06
2.04265e-06
-3.16702e-06
1.64539e-06
-3.36232e-06
1.29807e-06
-3.52896e-06
1.01917e-06
-3.67792e-06
8.12066e-07
-3.81767e-06
6.70569e-07
-3.95499e-06
5.83592e-07
-4.09539e-06
5.39057e-07
-4.24356e-06
5.26715e-07
-4.4036e-06
5.38586e-07
-4.57911e-06
5.68611e-07
-4.77297e-06
6.12155e-07
-4.98725e-06
6.65238e-07
-5.22332e-06
7.24259e-07
-5.48163e-06
7.85489e-07
-5.76157e-06
8.44975e-07
-6.06131e-06
8.98893e-07
-6.37792e-06
9.43672e-07
-6.70733e-06
9.75909e-07
-7.04434e-06
9.9253e-07
-7.38287e-06
9.91044e-07
-7.71618e-06
9.69621e-07
-8.03701e-06
9.26872e-07
-8.33758e-06
8.61611e-07
-8.6097e-06
7.72836e-07
-8.84496e-06
6.59747e-07
-9.03446e-06
5.21732e-07
-9.16902e-06
3.58988e-07
-9.24117e-06
1.73451e-07
-9.24107e-06
-3.45589e-08
-9.16099e-06
-2.63239e-07
-8.99865e-06
-5.01099e-07
-8.75256e-06
-7.42047e-07
-8.42436e-06
-9.77932e-07
-8.01875e-06
-1.20077e-06
-7.54304e-06
-1.40363e-06
-7.00642e-06
-1.58126e-06
-6.41922e-06
-1.73034e-06
-5.79204e-06
-1.84942e-06
-5.13524e-06
-1.93879e-06
-4.45809e-06
-2.00006e-06
-3.76901e-06
-2.03564e-06
-3.07571e-06
-2.04737e-06
-2.38456e-06
-2.03732e-06
-1.70147e-06
-2.00744e-06
-1.03193e-06
-1.95867e-06
-3.8288e-07
-1.89096e-06
2.40681e-07
-1.80557e-06
8.29443e-07
-1.70426e-06
1.3795e-06
-1.5879e-06
1.88591e-06
-1.45967e-06
2.34432e-06
-1.32228e-06
2.75105e-06
-1.17847e-06
3.10391e-06
-1.03172e-06
3.40298e-06
-8.86847e-07
3.651e-06
-7.50124e-07
3.8533e-06
-6.28289e-07
4.01767e-06
-5.25973e-07
4.15397e-06
-4.42955e-07
4.27299e-06
-3.73909e-07
4.38479e-06
-3.11378e-07
4.49697e-06
-2.49961e-07
4.61501e-06
-1.88467e-07
4.74008e-06
-1.26364e-07
4.8635e-06
-6.12352e-08
4.97266e-06
1.69834e-08
5.04786e-06
1.11431e-07
5.06491e-06
2.14273e-07
5.00816e-06
3.07051e-07
4.88129e-06
3.71214e-07
4.70973e-06
3.9706e-07
4.52679e-06
3.86014e-07
4.35835e-06
3.46062e-07
4.21698e-06
2.87605e-07
4.10531e-06
2.20899e-07
4.02142e-06
1.54644e-07
3.96146e-06
9.55154e-08
3.92034e-06
4.68241e-08
3.8943e-06
7.73517e-09
3.87957e-06
-2.24035e-08
3.87003e-06
-3.8961e-08
3.85744e-06
-3.91832e-08
3.84309e-06
-3.9248e-08
3.84244e-06
-6.68581e-08
3.87038e-06
-1.26666e-07
3.92395e-06
-1.7161e-07
3.97477e-06
-1.37371e-07
3.97957e-06
-1.80273e-08
3.91672e-06
1.27945e-07
3.80178e-06
2.45572e-07
3.68e-06
2.81577e-07
3.59934e-06
2.17523e-07
3.59882e-06
3.66096e-08
3.68154e-06
-2.0465e-07
3.82803e-06
-4.22817e-07
4.02202e-06
-5.32991e-07
4.20363e-06
-6.71445e-07
4.3952e-06
-7.25769e-07
4.59429e-06
-6.57928e-07
4.83374e-06
-7.53256e-07
-7.74217e-07
5.10189e-06
4.48994e-07
-2.10516e-07
9.80046e-07
-1.7322e-07
1.39857e-06
-1.07855e-07
1.72599e-06
-1.71249e-07
1.96956e-06
-2.91547e-07
2.09845e-06
-3.63885e-07
2.19851e-06
-4.8437e-07
2.24683e-06
-5.78729e-07
2.21267e-06
-6.70937e-07
2.06228e-06
-6.25707e-07
1.7235e-06
-3.15218e-07
1.28045e-06
5.11431e-08
8.45143e-07
3.86336e-07
4.78592e-07
6.33659e-07
1.87224e-07
7.77992e-07
-5.24718e-08
8.56764e-07
-2.67484e-07
8.84698e-07
-4.69893e-07
8.69406e-07
-6.82251e-07
8.46864e-07
-9.33162e-07
8.47453e-07
-1.23925e-06
8.76634e-07
-1.59901e-06
9.23195e-07
-1.99733e-06
9.70437e-07
-2.41317e-06
1.00543e-06
-2.82529e-06
1.02024e-06
-3.21582e-06
1.01121e-06
-3.57167e-06
9.78119e-07
-3.88415e-06
9.22628e-07
-4.14814e-06
8.47368e-07
-4.36123e-06
7.55654e-07
-4.52295e-06
6.51147e-07
-4.63395e-06
5.37534e-07
-4.69555e-06
4.1834e-07
-4.70915e-06
2.96668e-07
-4.6761e-06
1.75546e-07
-4.59788e-06
5.7812e-08
-4.47666e-06
-5.44503e-08
-4.31246e-06
-1.60103e-07
-4.11451e-06
-2.60714e-07
-3.88648e-06
-3.56573e-07
-3.64012e-06
-4.48529e-07
-3.38587e-06
-5.36261e-07
-3.13118e-06
-6.18416e-07
-2.86512e-06
-6.89496e-07
-2.57822e-06
-7.57269e-07
-2.29199e-06
-8.27482e-07
-1.99234e-06
-8.97173e-07
-1.70251e-06
-9.72704e-07
-1.41732e-06
-1.056e-06
-1.13934e-06
-1.15024e-06
-8.60187e-07
-1.2549e-06
-5.64952e-07
-1.36884e-06
-2.44301e-07
-1.48408e-06
1.16465e-07
-1.60178e-06
5.30293e-07
-1.71123e-06
9.68262e-07
-1.75557e-06
1.38908e-06
-1.70134e-06
1.76638e-06
-1.56296e-06
2.08266e-06
-1.37633e-06
2.34249e-06
-1.22277e-06
2.56897e-06
-1.12249e-06
2.76174e-06
-1.0221e-06
2.93068e-06
-9.52603e-07
3.13297e-06
-1.00044e-06
3.41236e-06
-1.10978e-06
3.73809e-06
-1.15229e-06
4.0321e-06
-1.05826e-06
4.28039e-06
-7.79494e-07
4.44757e-06
-2.1755e-07
4.40501e-06
5.81459e-07
4.06418e-06
1.35412e-06
3.56084e-06
2.01266e-06
2.80323e-06
2.48185e-06
1.40572e-06
2.91078e-06
-2.3484e-07
3.38254e-06
-1.41531e-06
3.58548e-06
-2.10781e-06
3.43045e-06
-2.47044e-06
3.07358e-06
-2.65744e-06
2.62264e-06
-2.77404e-06
2.15924e-06
-2.86228e-06
1.73364e-06
-2.93368e-06
1.36947e-06
-2.99541e-06
1.0809e-06
-3.05757e-06
8.74229e-07
-3.13005e-06
7.43045e-07
-3.22006e-06
6.73604e-07
-3.33131e-06
6.50302e-07
-3.46513e-06
6.60542e-07
-3.62227e-06
6.95722e-07
-3.80384e-06
7.50177e-07
-4.01151e-06
8.1983e-07
-4.24701e-06
9.00739e-07
-4.51193e-06
9.89178e-07
-4.80647e-06
1.08003e-06
-5.12939e-06
1.1679e-06
-5.47815e-06
1.24765e-06
-5.84875e-06
1.31428e-06
-6.23583e-06
1.36298e-06
-6.63271e-06
1.38941e-06
-7.03177e-06
1.39011e-06
-7.42486e-06
1.36271e-06
-7.80358e-06
1.30559e-06
-8.15949e-06
1.21752e-06
-8.4839e-06
1.09725e-06
-8.76769e-06
9.43536e-07
-9.00149e-06
7.55534e-07
-9.17546e-06
5.32959e-07
-9.27993e-06
2.77918e-07
-9.30706e-06
-7.43349e-09
-9.24602e-06
-3.24273e-07
-9.09425e-06
-6.52875e-07
-8.85026e-06
-9.86033e-07
-8.51629e-06
-1.31191e-06
-8.09822e-06
-1.61883e-06
-7.605e-06
-1.89685e-06
-7.04769e-06
-2.13857e-06
-6.43853e-06
-2.33949e-06
-5.78989e-06
-2.49807e-06
-5.11354e-06
-2.61514e-06
-4.42046e-06
-2.69315e-06
-3.72012e-06
-2.73597e-06
-3.01976e-06
-2.74774e-06
-2.3245e-06
-2.73258e-06
-1.638e-06
-2.69394e-06
-9.62893e-07
-2.63378e-06
-3.02674e-07