/*--------------------------------*- C++ -*----------------------------------*\
  =========                 |
  \\      /  F ield         | OpenFOAM: The Open Source CFD Toolbox
   \\    /   O peration     | Website:  https://openfoam.org
    \\  /    A nd           | Version:  9
     \\/     M anipulation  |
\*---------------------------------------------------------------------------*/
FoamFile
{
    format      ascii;
    class       volScalarField;
    location    "0.079";
    object      s_0;
}
// * * * * * * * * * * * * * * * * * * * * * * * * * * * * * * * * * * * * * //

dimensions      [0 0 0 0 0 0 0];

internalField   nonuniform List<scalar> 
12225
(
1
1
1
1
1
1
1
1
1
1
1
1
1
1
1
1
1
0.999967
1
1
1
1
1
1
1
1
1
1
1
1
1
1
1
1
1
0.999999
1
1
1
1
1
1
1
1
1
1
1
1
1
1
1
1
1
1
1
1
1
1
1
1
1
1
1
1
1
1
1
1
1
1
1
1
1
1
1
1
1
1
1
1
1
1
1
1
1
1
1
1
1
1
1
1
1
1
1
1
1
1
1
1
1
1
1
1
1
1
1
1
1
1
1
1
1
1
1
1
1
1
1
1
1
1
1
1
1
1
1
1
1
1
1
1
1
1
1
1
1
1
1
1
1
1
1
1
1
1
1
1
1
1
1
1
1
1
1
1
1
1
1
1
1
1
1
1
1
1
1
1
1
1
1
1
1
1
1
1
1
1
1
1
1
1
1
1
1
1
1
1
1
1
1
1
1
1
1
1
1
1
1
1
1
1
1
1
1
1
1
1
1
1
1
1
1
1
1
1
1
1
1
1
1
1
1
1
1
1
1
1
1
1
1
1
1
1
1
1
1
1
1
1
1
1
1
1
1
1
1
1
1
1
1
1
1
1
1
1
1
1
1
1
1
1
1
1
1
1
1
1
1
1
1
1
1
1
1
1
1
1
1
1
1
1
1
1
1
1
1
1
1
1
1
1
1
1
1
1
1
1
1
1
1
1
1
1
1
1
1
1
1
1
1
1
1
1
1
1
1
1
1
1
1
1
1
1
1
1
1
1
1
1
1
1
1
1
1
1
1
1
1
1
1
1
1
1
1
1
1
1
1
1
1
1
1
1
1
1
1
1
1
1
1
1
1
1
1
1
1
1
1
1
1
1
1
1
1
1
1
1
1
1
1
1
1
1
1
1
1
1
1
1
1
1
1
1
1
1
1
1
1
1
1
1
1
1
1
1
1
1
1
1
1
1
1
1
1
1
1
1
1
1
1
1
1
1
1
1
1
1
1
1
1
1
1
1
1
1
1
1
1
1
1
1
1
1
1
1
1
1
1
1
1
1
1
1
1
1
1
1
1
1
1
1
1
1
1
1
1
1
1
1
1
1
1
1
1
1
1
1
1
1
1
1
1
1
1
1
1
1
1
1
1
1
1
1
1
1
1
1
1
1
1
1
1
1
1
1
1
1
1
1
1
1
1
1
1
1
1
1
1
1
1
1
1
1
1
1
1
1
1
1
1
1
1
1
1
1
1
1
1
1
0.773231
0.782599
0.777578
0.76737
0.757733
0.748393
0.741608
0.734865
0.729698
0.725216
0.732073
0.747775
0.767213
0.78361
0.792783
0.798276
0.801512
0.803225
0.803975
0.804354
0.804766
0.805158
0.8054
0.80547
0.805464
0.80538
0.805176
0.804851
0.804472
0.804029
0.803413
0.802671
0.801581
0.800103
0.797813
0.79525
0.792067
0.787554
0.779307
0.759898
0.738337
0.733607
0.734495
0.741522
0.745602
0.746049
0.745251
0.741953
0.735789
0.732561
0.73187
0.731745
0.732042
0.733612
0.735277
0.73594
0.736288
0.736453
0.736491
0.736639
0.736956
0.73772
0.738834
0.740094
0.741251
0.742398
0.742803
0.743423
0.745243
0.751045
0.756694
0.759287
0.761018
0.764905
0.774273
0.79851
0.852372
0.896503
0.917101
0.923002
0.924414
0.924922
0.925234
0.925484
0.925615
0.925897
0.926238
0.926496
0.926769
0.927121
0.92743
0.927645
0.927887
0.928095
0.928267
0.928432
0.928608
0.928763
0.928911
0.929145
0.929302
0.929515
0.929753
0.930005
0.930239
0.930559
0.930827
0.931179
0.931528
0.931836
0.932053
0.932128
0.932057
0.931776
0.931402
0.930741
0.930011
0.929047
0.927837
0.926386
0.924798
0.922863
0.920641
0.918169
0.915393
0.91219
0.908697
0.904944
0.900972
0.896965
0.893083
0.889355
0.885822
0.882804
0.879993
0.876798
0.872421
0.866164
0.858362
0.850606
0.845366
0.843322
0.843099
0.844108
0.84887
0.8548
0.859427
0.863245
0.866566
0.869497
0.872015
0.874186
0.87612
0.877808
0.879222
0.880432
0.88149
0.882363
0.883052
0.883616
0.884062
0.884493
0.885291
0.887339
0.890864
0.894424
0.898303
0.901803
0.903932
0.904658
0.904649
0.903849
0.901399
0.899497
0.896691
0.893941
0.893802
0.894344
0.89545
0.899649
0.77035
0.78203
0.775427
0.75691
0.740235
0.73275
0.727433
0.720294
0.709006
0.68837
0.662392
0.655259
0.662285
0.693874
0.745017
0.775286
0.791559
0.800289
0.806433
0.811056
0.814248
0.815588
0.815749
0.815158
0.813539
0.811572
0.809739
0.808868
0.808734
0.808981
0.810053
0.812123
0.814786
0.817836
0.820641
0.821305
0.821064
0.81911
0.814185
0.805643
0.794528
0.783804
0.778721
0.773413
0.761407
0.755962
0.749919
0.749452
0.749982
0.752111
0.753256
0.750662
0.749102
0.749858
0.752149
0.753953
0.754369
0.754514
0.754901
0.755018
0.755203
0.755638
0.756748
0.759075
0.759497
0.758897
0.755529
0.746756
0.740653
0.739465
0.740969
0.748874
0.75629
0.758773
0.763774
0.795132
0.875583
0.912284
0.925788
0.934219
0.941394
0.946697
0.950478
0.952858
0.954214
0.955187
0.955677
0.9561
0.956421
0.956824
0.957175
0.95764
0.958111
0.958724
0.959346
0.96011
0.96091
0.96184
0.962754
0.963809
0.964806
0.965883
0.966897
0.967926
0.968863
0.969756
0.970515
0.97116
0.971606
0.971976
0.972295
0.972555
0.972706
0.972781
0.972798
0.972773
0.972608
0.972463
0.972223
0.971958
0.971656
0.971314
0.97093
0.970512
0.970052
0.969507
0.968861
0.967979
0.966659
0.964869
0.962724
0.960404
0.95797
0.955375
0.952665
0.950141
0.947496
0.942739
0.937459
0.932806
0.925857
0.914413
0.899623
0.884185
0.870442
0.858456
0.849126
0.844179
0.842992
0.843637
0.848676
0.85763
0.863758
0.868724
0.873541
0.87804
0.882036
0.885786
0.88954
0.893178
0.896482
0.899374
0.902047
0.904889
0.907916
0.910438
0.911863
0.912381
0.912395
0.91178
0.908632
0.896985
0.881408
0.873385
0.871284
0.871778
0.876421
0.883467
0.887638
0.887766
0.759816
0.773986
0.773716
0.769619
0.758886
0.744697
0.736179
0.730195
0.720712
0.701643
0.661805
0.628738
0.623285
0.630777
0.66995
0.745138
0.783313
0.79809
0.805255
0.807546
0.806313
0.800672
0.79149
0.779203
0.770352
0.764565
0.761735
0.760707
0.760682
0.763378
0.76819
0.773902
0.781157
0.787762
0.794754
0.801003
0.806875
0.811281
0.812777
0.812976
0.812766
0.812072
0.810528
0.808104
0.805661
0.803741
0.801666
0.79855
0.79433
0.79096
0.789055
0.78637
0.78357
0.780601
0.77718
0.771212
0.765396
0.763789
0.764217
0.765013
0.766955
0.771225
0.773431
0.773638
0.77269
0.770022
0.765871
0.763726
0.758155
0.749674
0.746547
0.747529
0.75104
0.755854
0.771192
0.849807
0.915658
0.934394
0.945651
0.954443
0.959409
0.962331
0.964262
0.965263
0.965779
0.966097
0.96626
0.966432
0.966624
0.966841
0.966995
0.967306
0.967645
0.968049
0.968509
0.969143
0.969706
0.970445
0.971215
0.972073
0.972928
0.973895
0.974846
0.975872
0.976863
0.977883
0.978873
0.979825
0.980726
0.981488
0.982077
0.982485
0.982686
0.982756
0.98254
0.982246
0.981722
0.981117
0.980378
0.979581
0.978802
0.97812
0.977437
0.976789
0.976223
0.975785
0.975446
0.975248
0.975216
0.975191
0.974988
0.974504
0.973987
0.97363
0.973551
0.973705
0.974248
0.974833
0.975069
0.974893
0.973286
0.966249
0.956285
0.948308
0.936233
0.916337
0.892483
0.872237
0.858458
0.849608
0.843623
0.840277
0.839199
0.839199
0.840116
0.844588
0.853083
0.860549
0.867067
0.872909
0.878172
0.883106
0.8883
0.894345
0.901082
0.90691
0.91007
0.910793
0.910167
0.904832
0.886279
0.870047
0.862907
0.86122
0.861608
0.865198
0.881178
0.906749
0.923745
0.924082
0.732959
0.741211
0.746444
0.745193
0.740218
0.733264
0.727784
0.719908
0.704072
0.669015
0.636813
0.615723
0.608927
0.619141
0.664681
0.72874
0.769219
0.780142
0.778279
0.762673
0.744716
0.732983
0.727945
0.72702
0.730241
0.734361
0.740061
0.746504
0.753412
0.760289
0.766792
0.77288
0.778023
0.782012
0.785463
0.788213
0.790562
0.792317
0.794011
0.795265
0.795691
0.795797
0.795727
0.79536
0.794733
0.793856
0.793014
0.791997
0.790773
0.789297
0.787421
0.785185
0.781859
0.776439
0.767713
0.75175
0.732662
0.722878
0.722685
0.725527
0.737383
0.755753
0.761215
0.760509
0.758428
0.760631
0.767299
0.784201
0.786876
0.784106
0.777667
0.760344
0.756692
0.76545
0.833691
0.913117
0.939592
0.951611
0.959484
0.963772
0.966608
0.968272
0.969648
0.970411
0.971034
0.971481
0.971905
0.972422
0.973022
0.973841
0.974972
0.976024
0.976927
0.978146
0.979276
0.980426
0.981755
0.983143
0.98437
0.985947
0.987323
0.988699
0.990088
0.991336
0.992433
0.993392
0.994121
0.994719
0.995061
0.995221
0.995282
0.995292
0.995223
0.995122
0.994973
0.994849
0.994667
0.994326
0.993855
0.993069
0.991893
0.99022
0.988137
0.985737
0.983127
0.980582
0.978772
0.977528
0.976914
0.97687
0.976961
0.976907
0.976555
0.975802
0.97528
0.975134
0.975357
0.976502
0.978599
0.98075
0.982407
0.983238
0.983299
0.982423
0.976998
0.961813
0.950811
0.937387
0.914971
0.888724
0.868074
0.854611
0.847124
0.844212
0.843851
0.844279
0.846135
0.851732
0.858991
0.865861
0.871982
0.877137
0.881469
0.885596
0.890441
0.896112
0.90072
0.902218
0.901255
0.89269
0.873908
0.863548
0.860087
0.859758
0.860838
0.867314
0.893728
0.932264
0.961537
0.970969
0.702388
0.695377
0.698646
0.698861
0.697826
0.695956
0.687017
0.666566
0.632691
0.616758
0.598738
0.60124
0.614216
0.638608
0.680058
0.710302
0.724361
0.72601
0.721911
0.719341
0.718797
0.721434
0.725154
0.729308
0.736257
0.743882
0.75311
0.762546
0.771905
0.780492
0.78814
0.79487
0.800556
0.805505
0.809715
0.813416
0.816023
0.817678
0.818412
0.818636
0.818261
0.817822
0.816251
0.81475
0.813023
0.811242
0.809481
0.807883
0.8064
0.805548
0.804923
0.803402
0.798477
0.78944
0.774499
0.750984
0.725595
0.708933
0.704652
0.706905
0.718741
0.731517
0.737712
0.74366
0.756051
0.78714
0.8429
0.850815
0.844273
0.810297
0.782149
0.76952
0.77836
0.83754
0.911412
0.942475
0.955268
0.962908
0.968071
0.971615
0.974944
0.977902
0.980376
0.982051
0.983169
0.983689
0.984059
0.984648
0.985592
0.986466
0.987053
0.988132
0.989315
0.990091
0.991072
0.992189
0.993155
0.994059
0.9951
0.995864
0.996613
0.997273
0.997689
0.998018
0.998157
0.998208
0.998199
0.997987
0.997692
0.997219
0.996711
0.996305
0.995987
0.995832
0.995796
0.99604
0.996411
0.996756
0.997195
0.997503
0.997707
0.997796
0.997739
0.997305
0.996316
0.994399
0.990997
0.986709
0.98247
0.979983
0.978949
0.978636
0.978476
0.978072
0.976846
0.975593
0.974957
0.974865
0.975122
0.976466
0.979951
0.983491
0.986124
0.987428
0.987604
0.986998
0.983519
0.971093
0.956625
0.943943
0.927836
0.907625
0.887321
0.873279
0.867011
0.865838
0.866325
0.86879
0.873708
0.877844
0.881463
0.884926
0.888029
0.890327
0.891704
0.892488
0.892894
0.892888
0.891516
0.88291
0.869157
0.863197
0.862158
0.862514
0.864618
0.872696
0.90159
0.940775
0.969756
0.983392
0.62009
0.609424
0.611905
0.616087
0.620465
0.618315
0.621755
0.612499
0.600668
0.606627
0.605371
0.619604
0.645898
0.672285
0.691249
0.705566
0.711171
0.71423
0.716672
0.719582
0.723708
0.731187
0.740791
0.753421
0.769111
0.786264
0.805543
0.825519
0.844835
0.862497
0.87744
0.892894
0.904327
0.914635
0.923054
0.928139
0.93193
0.93392
0.934756
0.933985
0.932278
0.929279
0.925111
0.920408
0.915007
0.909089
0.902646
0.895952
0.889571
0.883715
0.878819
0.873399
0.864069
0.849736
0.823721
0.779494
0.7336
0.709145
0.703071
0.70649
0.719109
0.727079
0.735993
0.758037
0.820861
0.878644
0.8843
0.864551
0.839791
0.816254
0.803936
0.819801
0.865193
0.917084
0.944477
0.957256
0.964141
0.968399
0.971814
0.975171
0.97889
0.983208
0.98755
0.990209
0.991369
0.991947
0.992445
0.993184
0.993696
0.994028
0.994672
0.995258
0.995931
0.996381
0.996845
0.997473
0.997786
0.998126
0.998373
0.998476
0.998517
0.998489
0.998274
0.998026
0.997628
0.996869
0.995655
0.993989
0.991769
0.988996
0.986274
0.984194
0.98261
0.981987
0.982124
0.983632
0.985806
0.988184
0.99098
0.993383
0.995515
0.997082
0.998094
0.998668
0.998928
0.998959
0.998676
0.997689
0.995208
0.990232
0.985008
0.982318
0.9813
0.980925
0.980569
0.979441
0.977022
0.975433
0.974968
0.975077
0.976029
0.97921
0.983394
0.987088
0.989479
0.990294
0.990225
0.98912
0.984841
0.972967
0.958831
0.947672
0.940095
0.933304
0.925419
0.915779
0.905818
0.898362
0.894032
0.891663
0.890532
0.890304
0.890442
0.891366
0.892678
0.893026
0.892954
0.892289
0.888811
0.877519
0.869646
0.868072
0.868418
0.869982
0.8741
0.885438
0.917897
0.952109
0.975498
0.987988
0.59224
0.58667
0.588074
0.594637
0.602466
0.594914
0.619606
0.639805
0.635212
0.633658
0.637329
0.6568
0.675363
0.686737
0.699479
0.709201
0.714471
0.720419
0.728198
0.739883
0.757623
0.78211
0.816153
0.84713
0.878319
0.906158
0.927645
0.945955
0.958251
0.968766
0.977012
0.981739
0.986209
0.988284
0.989518
0.990408
0.990961
0.991288
0.991441
0.991321
0.990924
0.990179
0.989077
0.987571
0.985601
0.983024
0.979668
0.975291
0.969637
0.962117
0.951761
0.939642
0.928279
0.914754
0.88999
0.841789
0.775023
0.726292
0.707945
0.711748
0.72322
0.73122
0.758882
0.834952
0.894125
0.904288
0.894289
0.882183
0.871386
0.86648
0.875822
0.89997
0.927518
0.947567
0.958223
0.964154
0.967481
0.969805
0.972325
0.975329
0.978769
0.983093
0.988405
0.992848
0.9946
0.995469
0.996226
0.996768
0.997026
0.997364
0.997638
0.997921
0.998201
0.998334
0.998463
0.998533
0.998545
0.998497
0.998404
0.998198
0.997773
0.996992
0.995688
0.993738
0.990692
0.986238
0.980209
0.972776
0.963933
0.954208
0.945342
0.938113
0.93313
0.931439
0.932692
0.937225
0.9438
0.952565
0.962013
0.970707
0.979014
0.986155
0.991549
0.995306
0.997595
0.998796
0.999297
0.999413
0.999276
0.99851
0.995998
0.990549
0.986052
0.983859
0.982931
0.98245
0.981464
0.978565
0.976114
0.975369
0.975511
0.976995
0.981308
0.985564
0.989126
0.991543
0.99255
0.992631
0.99216
0.989683
0.981734
0.973379
0.967139
0.962491
0.959538
0.957669
0.954981
0.948527
0.93471
0.920836
0.909216
0.901161
0.897449
0.896759
0.896889
0.896893
0.896374
0.894597
0.888479
0.879043
0.875985
0.87611
0.877511
0.881241
0.889567
0.911645
0.94685
0.972854
0.986684
0.992466
0.591395
0.587381
0.597802
0.623586
0.653661
0.660972
0.662164
0.657194
0.653377
0.65397
0.66464
0.679591
0.689823
0.701426
0.713761
0.72392
0.736897
0.756908
0.786483
0.824945
0.864488
0.899493
0.92449
0.948621
0.96324
0.975751
0.983678
0.988342
0.991789
0.993472
0.994743
0.995325
0.995601
0.995701
0.995872
0.996151
0.996528
0.996932
0.997349
0.997737
0.998015
0.998254
0.998384
0.99833
0.998094
0.997646
0.996915
0.995811
0.994131
0.99148
0.987008
0.979354
0.967466
0.9535
0.93906
0.914731
0.858877
0.777038
0.73025
0.72081
0.733352
0.745058
0.785944
0.871951
0.912932
0.915733
0.914403
0.911862
0.910762
0.914966
0.925203
0.938896
0.950994
0.958934
0.963724
0.966428
0.967919
0.969707
0.971631
0.973449
0.974957
0.977617
0.984404
0.992091
0.994766
0.996139
0.997058
0.997669
0.99799
0.998209
0.99834
0.998472
0.998522
0.998529
0.998492
0.998412
0.998179
0.997719
0.996911
0.995472
0.993178
0.989529
0.984099
0.976331
0.965314
0.950236
0.931107
0.908632
0.885932
0.868916
0.86321
0.862051
0.862494
0.865115
0.869302
0.873514
0.878501
0.885426
0.895016
0.909553
0.928044
0.948433
0.966016
0.979211
0.988551
0.994325
0.997494
0.998973
0.999492
0.999565
0.999348
0.998231
0.994445
0.989381
0.986441
0.985036
0.984232
0.982703
0.978985
0.976317
0.975582
0.975839
0.97814
0.984067
0.988685
0.991886
0.99384
0.994647
0.994737
0.994467
0.993013
0.988588
0.984043
0.980919
0.979274
0.978617
0.978086
0.977013
0.974734
0.969414
0.952848
0.928985
0.915011
0.910742
0.910704
0.910869
0.909668
0.903591
0.89083
0.883907
0.882922
0.883863
0.887639
0.896775
0.918005
0.950067
0.975195
0.988639
0.993723
0.994797
0.595427
0.605731
0.643405
0.671802
0.677213
0.673977
0.666311
0.66386
0.663789
0.671388
0.685521
0.701044
0.714132
0.73169
0.752022
0.779955
0.818803
0.859585
0.89733
0.926091
0.948796
0.966291
0.977863
0.984972
0.988852
0.990774
0.9916
0.991833
0.991776
0.991358
0.990365
0.989152
0.98826
0.987863
0.988022
0.988927
0.990346
0.992129
0.994011
0.99577
0.997132
0.998218
0.998869
0.99925
0.999464
0.999564
0.999607
0.999529
0.999334
0.998961
0.998289
0.99705
0.99445
0.988209
0.973594
0.961933
0.938261
0.874616
0.785201
0.743087
0.748413
0.75174
0.791977
0.881756
0.923126
0.927795
0.928617
0.933655
0.935352
0.940297
0.948116
0.954563
0.959704
0.963234
0.96549
0.96661
0.967729
0.968594
0.968365
0.965142
0.960194
0.959066
0.97057
0.988355
0.993774
0.995979
0.997051
0.997706
0.998063
0.998237
0.998341
0.998399
0.998385
0.998241
0.997928
0.997336
0.996241
0.994331
0.991171
0.986173
0.97851
0.966913
0.950145
0.926192
0.890531
0.851451
0.832588
0.825594
0.823923
0.827447
0.835898
0.844054
0.850406
0.855657
0.860177
0.863311
0.865457
0.867228
0.869007
0.871278
0.874863
0.883632
0.902579
0.931191
0.958867
0.977183
0.988829
0.995167
0.998158
0.999326
0.999612
0.999544
0.998895
0.996098
0.991511
0.988775
0.987363
0.985723
0.982065
0.978214
0.976195
0.975855
0.976467
0.98041
0.987276
0.991752
0.994438
0.995886
0.996441
0.996503
0.996347
0.995518
0.993411
0.991705
0.990773
0.990449
0.99037
0.990282
0.990059
0.989317
0.986611
0.976171
0.953843
0.943875
0.943037
0.943359
0.941204
0.926967
0.903262
0.894225
0.893951
0.897135
0.908273
0.937168
0.963755
0.981058
0.991276
0.995609
0.996315
0.995775
0.605083
0.634545
0.677509
0.685125
0.682624
0.677941
0.676023
0.677527
0.68649
0.703665
0.726628
0.748487
0.776712
0.810035
0.844823
0.879737
0.912858
0.938902
0.959277
0.973506
0.98106
0.985598
0.987463
0.988091
0.988141
0.986444
0.982959
0.977711
0.971105
0.963587
0.958581
0.954802
0.952748
0.952082
0.953746
0.95695
0.961596
0.968122
0.975365
0.981761
0.98782
0.99264
0.995989
0.997924
0.999009
0.999529
0.999758
0.999856
0.999895
0.999896
0.999841
0.99969
0.999316
0.998335
0.995244
0.984953
0.969671
0.946687
0.883781
0.793079
0.761927
0.755567
0.777299
0.867305
0.924976
0.938713
0.941434
0.945079
0.948974
0.952464
0.957948
0.960744
0.963025
0.964685
0.965722
0.966404
0.966773
0.965296
0.957268
0.944288
0.937998
0.93697
0.956561
0.983647
0.992044
0.995367
0.996834
0.997555
0.997894
0.998011
0.998036
0.997934
0.997671
0.997078
0.995972
0.99407
0.990757
0.985106
0.975847
0.961135
0.93747
0.898462
0.849039
0.818528
0.801204
0.793699
0.792355
0.801376
0.818859
0.832554
0.850031
0.86813
0.881678
0.890079
0.893753
0.894667
0.89206
0.886502
0.879751
0.874301
0.870282
0.868055
0.868583
0.873382
0.892448
0.92891
0.961618
0.981485
0.99215
0.997098
0.999039
0.999578
0.999566
0.99901
0.996342
0.993151
0.991375
0.988737
0.984578
0.980273
0.977435
0.976477
0.976578
0.978331
0.984945
0.99103
0.994524
0.996448
0.997425
0.997795
0.997842
0.997768
0.997369
0.996752
0.996441
0.99637
0.996382
0.996468
0.996559
0.996543
0.996145
0.993494
0.984798
0.981388
0.981894
0.982909
0.981452
0.96899
0.933996
0.919971
0.920358
0.929047
0.957222
0.977266
0.988161
0.994337
0.997236
0.997775
0.997331
0.995293
0.61549
0.661353
0.689697
0.69225
0.69065
0.690161
0.697627
0.714474
0.739779
0.768788
0.797149
0.828375
0.860153
0.890422
0.918479
0.942793
0.962353
0.973432
0.98072
0.983864
0.984936
0.985158
0.983509
0.978419
0.968784
0.952416
0.941756
0.930062
0.924265
0.920463
0.918815
0.918196
0.918158
0.919143
0.919851
0.921198
0.923212
0.926702
0.932663
0.943883
0.958454
0.974209
0.984984
0.991991
0.996159
0.99825
0.999271
0.999718
0.99989
0.999947
0.999966
0.999966
0.999929
0.999791
0.999317
0.997505
0.9895
0.973855
0.95173
0.884612
0.802106
0.770316
0.763643
0.830867
0.913629
0.939094
0.948088
0.953525
0.956525
0.958286
0.961753
0.963316
0.964368
0.965097
0.965601
0.965836
0.964864
0.959964
0.945677
0.925643
0.917204
0.917978
0.948744
0.980307
0.990468
0.994408
0.996182
0.996979
0.997257
0.997292
0.997068
0.996567
0.995725
0.994292
0.991325
0.986626
0.977904
0.962291
0.934693
0.885935
0.834952
0.793033
0.773884
0.76582
0.764062
0.77483
0.793123
0.813263
0.850518
0.889654
0.918774
0.933958
0.941824
0.946685
0.949686
0.95089
0.950278
0.947567
0.940767
0.927383
0.909116
0.888245
0.873314
0.865542
0.864165
0.870101
0.89881
0.943748
0.973329
0.988998
0.996069
0.998769
0.999521
0.999525
0.998871
0.996836
0.994933
0.991919
0.98742
0.982704
0.979275
0.977734
0.977552
0.978319
0.982842
0.989974
0.994379
0.996725
0.997869
0.998419
0.998661
0.998718
0.998705
0.998645
0.998623
0.998637
0.998712
0.998859
0.998992
0.999045
0.999002
0.998466
0.996891
0.996643
0.997066
0.997201
0.995932
0.986077
0.962006
0.955875
0.958666
0.972926
0.986967
0.993687
0.997018
0.998533
0.998771
0.99846
0.996801
0.991127
0.621833
0.669905
0.699381
0.70586
0.708562
0.719752
0.741808
0.768595
0.799223
0.831018
0.862526
0.892816
0.918948
0.940946
0.957952
0.971752
0.978548
0.981716
0.982895
0.983086
0.980573
0.973464
0.957399
0.941431
0.927437
0.920885
0.91671
0.914832
0.914222
0.91416
0.915203
0.916511
0.917584
0.918071
0.918237
0.917776
0.917048
0.916809
0.91669
0.917323
0.921138
0.9326
0.95558
0.976263
0.988292
0.994539
0.997646
0.99906
0.999653
0.999881
0.99996
0.999983
0.999989
0.999981
0.99993
0.99968
0.998414
0.992234
0.977752
0.954805
0.884969
0.814928
0.773035
0.780552
0.86761
0.930042
0.946865
0.954398
0.959538
0.961692
0.96358
0.964421
0.964933
0.96522
0.965318
0.964463
0.96082
0.949994
0.927878
0.910537
0.905989
0.906745
0.940968
0.977868
0.988145
0.991886
0.994035
0.995301
0.995662
0.995293
0.994328
0.992786
0.991086
0.98821
0.982617
0.971099
0.948768
0.90428
0.835938
0.786176
0.75648
0.742269
0.737845
0.740181
0.757126
0.77838
0.815823
0.870758
0.921341
0.939123
0.946061
0.949734
0.953296
0.957083
0.960814
0.963356
0.964567
0.96525
0.965636
0.964929
0.961679
0.952461
0.929106
0.896356
0.871064
0.861092
0.861106
0.8772
0.926446
0.966096
0.986457
0.995359
0.998619
0.999473
0.999463
0.998815
0.997413
0.995135
0.990945
0.98595
0.981892
0.979687
0.979124
0.979424
0.981985
0.988762
0.993771
0.996659
0.998138
0.998809
0.999085
0.999198
0.999253
0.999301
0.99937
0.999451
0.999528
0.999607
0.999693
0.99975
0.999756
0.999698
0.99953
0.999528
0.999567
0.999422
0.998003
0.990229
0.982868
0.982674
0.98623
0.99341
0.99708
0.998707
0.999355
0.999408
0.99917
0.997808
0.992694
0.985527
0.624594
0.675805
0.706273
0.717865
0.73172
0.753359
0.782719
0.815874
0.849301
0.878976
0.908422
0.934623
0.953284
0.965719
0.97496
0.979593
0.981228
0.981593
0.980623
0.975366
0.960804
0.942202
0.928699
0.921973
0.91878
0.917901
0.917798
0.920342
0.923892
0.926206
0.928622
0.92978
0.930332
0.930931
0.931502
0.931913
0.931034
0.927677
0.921985
0.916077
0.913837
0.913615
0.919224
0.941339
0.970331
0.98599
0.9939
0.997543
0.99907
0.999665
0.999887
0.999965
0.999989
0.999995
0.999995
0.999977
0.999847
0.999032
0.994435
0.98188
0.956021
0.891324
0.814871
0.780043
0.795251
0.88261
0.935287
0.951669
0.958951
0.96203
0.963976
0.964835
0.965161
0.965263
0.965162
0.964181
0.960521
0.949905
0.925006
0.900758
0.888582
0.891143
0.926782
0.973652
0.985955
0.989587
0.991697
0.991837
0.991435
0.990401
0.989244
0.987157
0.985119
0.979755
0.96637
0.938233
0.88151
0.8042
0.754345
0.72906
0.718048
0.714998
0.722021
0.736621
0.761906
0.802725
0.87542
0.926692
0.941135
0.945635
0.947761
0.950108
0.953227
0.957362
0.961889
0.965768
0.96812
0.969246
0.970067
0.97083
0.971158
0.970693
0.968188
0.959227
0.928566
0.884471
0.86139
0.857076
0.866318
0.914419
0.961528
0.985212
0.995178
0.998632
0.999446
0.999394
0.998738
0.997569
0.995179
0.990439
0.985754
0.982659
0.981441
0.981405
0.982597
0.987673
0.993011
0.996269
0.998063
0.998953
0.999343
0.999497
0.999562
0.999612
0.999672
0.999736
0.999791
0.99984
0.999886
0.999922
0.999936
0.999934
0.999924
0.999924
0.999919
0.999826
0.999137
0.996643
0.995648
0.995964
0.997513
0.998943
0.999565
0.99977
0.999765
0.99959
0.998577
0.99435
0.986728
0.982864
0.623592
0.675057
0.710125
0.722705
0.73957
0.774744
0.8154
0.850011
0.880573
0.910335
0.937236
0.95723
0.969289
0.975877
0.979352
0.980596
0.980832
0.978971
0.971797
0.953621
0.935934
0.926001
0.921179
0.919519
0.91927
0.921308
0.925566
0.928576
0.929875
0.930678
0.931092
0.931284
0.931424
0.931732
0.932687
0.934681
0.936912
0.938235
0.938793
0.933745
0.921044
0.912578
0.910903
0.915244
0.937486
0.969405
0.986339
0.994455
0.997908
0.999256
0.999746
0.999917
0.999975
0.999993
0.999998
0.999998
0.999992
0.999929
0.999407
0.996095
0.985578
0.958564
0.898886
0.81559
0.790052
0.804605
0.875802
0.933876
0.953762
0.960693
0.963588
0.964765
0.965168
0.965263
0.965161
0.964321
0.961135
0.951834
0.928187
0.902275
0.884534
0.876476
0.894651
0.958908
0.983174
0.986159
0.987078
0.989202
0.9881
0.984887
0.982299
0.982037
0.976374
0.962725
0.931211
0.871997
0.796399
0.741257
0.715658
0.706266
0.704242
0.710199
0.722928
0.744674
0.785145
0.858349
0.919472
0.938443
0.943259
0.944604
0.944626
0.945024
0.948095
0.954432
0.961014
0.965956
0.969232
0.97112
0.972009
0.972742
0.973429
0.973795
0.97367
0.972774
0.968863
0.951302
0.899165
0.862719
0.854294
0.861063
0.909674
0.960715
0.985604
0.99557
0.998786
0.999427
0.999295
0.998564
0.997595
0.995536
0.991029
0.987063
0.984897
0.984352
0.984692
0.987354
0.992407
0.995824
0.997838
0.998906
0.999421
0.999647
0.999742
0.999792
0.999832
0.999869
0.9999
0.999928
0.999951
0.999969
0.999979
0.999982
0.999984
0.999984
0.999983
0.999968
0.999843
0.9995
0.999443
0.999523
0.999756
0.999899
0.999936
0.999924
0.999808
0.999134
0.99618
0.988246
0.983575
0.981903
0.620961
0.670203
0.709238
0.724972
0.74445
0.782771
0.830701
0.874612
0.907165
0.930808
0.953027
0.968436
0.97571
0.978976
0.980195
0.980407
0.979028
0.972143
0.953434
0.936407
0.925858
0.92107
0.91955
0.919618
0.921055
0.925964
0.928482
0.930441
0.931375
0.931805
0.931927
0.931747
0.930727
0.929496
0.928768
0.928472
0.931299
0.936721
0.940692
0.941622
0.938265
0.922482
0.910888
0.909849
0.916449
0.945343
0.974141
0.989034
0.995785
0.998514
0.999511
0.999846
0.999952
0.999986
0.999996
0.999999
0.999999
0.999997
0.999967
0.999667
0.997285
0.985984
0.96468
0.917464
0.827641
0.801522
0.810654
0.856124
0.925556
0.951494
0.960662
0.963898
0.964953
0.965213
0.965164
0.964709
0.962754
0.956821
0.93901
0.909427
0.888005
0.873354
0.874839
0.91035
0.971694
0.983594
0.982955
0.979838
0.982991
0.98097
0.975203
0.966921
0.963793
0.93549
0.879403
0.807005
0.744424
0.713447
0.702997
0.701552
0.706249
0.721331
0.748593
0.78898
0.844055
0.903486
0.931811
0.939853
0.94129
0.939991
0.936796
0.934941
0.938301
0.948195
0.957939
0.96487
0.969177
0.971687
0.973126
0.973876
0.974386
0.974738
0.974814
0.974736
0.974206
0.971609
0.95877
0.905792
0.86191
0.851563
0.859093
0.912648
0.963746
0.987483
0.996389
0.999009
0.999411
0.999152
0.998438
0.997694
0.996042
0.992412
0.989484
0.988163
0.988022
0.98879
0.992162
0.995568
0.997643
0.998811
0.999412
0.9997
0.999829
0.999888
0.999919
0.99994
0.999956
0.999969
0.99998
0.999987
0.999992
0.999994
0.999996
0.999996
0.999997
0.999995
0.999977
0.999948
0.999948
0.999962
0.999982
0.999985
0.999977
0.999909
0.999503
0.997588
0.99059
0.984265
0.982015
0.981749
0.616663
0.657984
0.704442
0.722924
0.741751
0.77833
0.826463
0.873283
0.912098
0.941278
0.960492
0.972522
0.977951
0.979852
0.980266
0.979042
0.972684
0.957162
0.938802
0.927044
0.921559
0.919391
0.919083
0.920773
0.92561
0.929939
0.932785
0.934807
0.936515
0.938714
0.940168
0.939812
0.938123
0.934139
0.929528
0.927187
0.92681
0.928644
0.936992
0.941895
0.94157
0.934605
0.915897
0.908905
0.910833
0.928806
0.963007
0.983356
0.993242
0.997487
0.999139
0.999727
0.999919
0.999977
0.999994
0.999998
1
1
0.999999
0.999986
0.999836
0.998554
0.989893
0.970331
0.930268
0.84532
0.813553
0.816137
0.839435
0.904109
0.942938
0.95764
0.962894
0.9646
0.965005
0.964873
0.964194
0.961684
0.954028
0.933142
0.901606
0.87908
0.870324
0.875708
0.921577
0.97215
0.97971
0.975168
0.96219
0.971033
0.968683
0.953877
0.922494
0.899462
0.840014
0.766558
0.720652
0.703892
0.700517
0.705275
0.730827
0.782911
0.821292
0.852767
0.890325
0.919893
0.933236
0.937392
0.936411
0.932662
0.926745
0.924143
0.926939
0.939658
0.952768
0.961931
0.967757
0.971211
0.973118
0.974124
0.974652
0.974951
0.975058
0.975058
0.974946
0.974363
0.971672
0.958165
0.900904
0.85741
0.848394
0.860425
0.921872
0.969555
0.990203
0.997351
0.999221
0.999403
0.999013
0.998448
0.997917
0.996691
0.994204
0.992387
0.99173
0.991777
0.99284
0.995618
0.997599
0.998764
0.999394
0.999709
0.999858
0.999926
0.999957
0.999973
0.999981
0.999987
0.999992
0.999995
0.999997
0.999998
0.999999
0.999999
0.999999
0.999999
0.999997
0.999995
0.999996
0.999997
0.999997
0.999993
0.999958
0.999737
0.998589
0.993466
0.98535
0.981951
0.981287
0.981413
0.615518
0.636115
0.691089
0.71674
0.735133
0.765916
0.812587
0.863241
0.906958
0.939393
0.959688
0.971999
0.977786
0.979839
0.980203
0.978482
0.971555
0.95435
0.936756
0.925503
0.919985
0.917953
0.91826
0.92015
0.925115
0.929467
0.932505
0.93466
0.937411
0.940389
0.941666
0.941556
0.940721
0.938158
0.932082
0.927582
0.92618
0.927005
0.933909
0.941347
0.942147
0.937291
0.918334
0.908501
0.908779
0.923127
0.958604
0.981156
0.992275
0.997084
0.998977
0.999664
0.999896
0.99997
0.999992
0.999998
0.999999
1
1
1
0.999994
0.999931
0.999315
0.99452
0.978999
0.941884
0.861187
0.823529
0.821156
0.832001
0.870202
0.9265
0.950656
0.960127
0.963502
0.964479
0.96435
0.963707
0.961207
0.953768
0.936726
0.900025
0.877418
0.871233
0.878337
0.925185
0.968662
0.970958
0.960179
0.937871
0.950707
0.942805
0.907588
0.853121
0.80254
0.744655
0.712729
0.70214
0.70186
0.722749
0.794017
0.832566
0.85358
0.870658
0.892361
0.915041
0.924634
0.92579
0.924204
0.920405
0.916221
0.91557
0.917996
0.930131
0.946602
0.958245
0.96544
0.969674
0.972206
0.973656
0.974437
0.974822
0.974979
0.975011
0.97496
0.974647
0.973522
0.969391
0.949473
0.885035
0.849992
0.845528
0.86797
0.936718
0.977174
0.993209
0.998253
0.999386
0.999409
0.99896
0.99858
0.998259
0.997487
0.996035
0.995092
0.994837
0.994963
0.995996
0.997713
0.998796
0.999401
0.999716
0.999869
0.999939
0.999971
0.999985
0.999991
0.999995
0.999997
0.999998
0.999999
0.999999
1
1
1
1
1
0.999999
1
0.999999
0.999998
0.999982
0.999876
0.999253
0.996241
0.987403
0.982119
0.980679
0.980529
0.980507
0.618412
0.622846
0.6593
0.703604
0.722801
0.752477
0.789947
0.83861
0.892696
0.931663
0.955702
0.969685
0.976713
0.979527
0.979973
0.978706
0.972954
0.956953
0.93898
0.92695
0.920577
0.917984
0.917566
0.91838
0.922259
0.927246
0.930744
0.93305
0.935549
0.938308
0.938929
0.938669
0.937742
0.935635
0.930459
0.925894
0.925077
0.926484
0.933711
0.942045
0.942651
0.937374
0.91736
0.906391
0.907688
0.92256
0.958253
0.981086
0.992296
0.997102
0.998981
0.999663
0.999894
0.999968
0.999991
0.999998
0.999999
1
1
1
1
0.999996
0.999953
0.999519
0.996139
0.983811
0.951825
0.874086
0.832772
0.823942
0.828908
0.850672
0.905499
0.940839
0.955776
0.961627
0.963595
0.963588
0.963095
0.96103
0.955193
0.94098
0.90642
0.880167
0.874891
0.882118
0.927688
0.961021
0.958605
0.936946
0.91154
0.913634
0.897163
0.844188
0.787379
0.740744
0.712976
0.702871
0.709389
0.770795
0.84896
0.87632
0.882133
0.884046
0.891705
0.897431
0.901716
0.907792
0.910601
0.911526
0.911961
0.912794
0.915114
0.923069
0.941445
0.95583
0.964319
0.968707
0.970999
0.972445
0.973396
0.973967
0.974261
0.974375
0.974379
0.97423
0.97352
0.970979