/*--------------------------------*- C++ -*----------------------------------*\
  =========                 |
  \\      /  F ield         | OpenFOAM: The Open Source CFD Toolbox
   \\    /   O peration     | Website:  https://openfoam.org
    \\  /    A nd           | Version:  9
     \\/     M anipulation  |
\*---------------------------------------------------------------------------*/
FoamFile
{
    format      ascii;
    class       volVectorField;
    location    "0.079";
    object      UMean;
}
// * * * * * * * * * * * * * * * * * * * * * * * * * * * * * * * * * * * * * //

dimensions      [0 1 -1 0 0 0 0];

internalField   nonuniform List<vector> 
12225
(
(9.84472 0.0443015 0)
(9.55057 0.0609358 0)
(9.25104 0.0588033 0)
(8.94736 0.0574219 0)
(8.64879 0.0568443 0)
(8.36054 0.0560335 0)
(8.08317 0.0547925 0)
(7.81639 0.0537627 0)
(7.55776 0.0525925 0)
(7.3079 0.0523257 0)
(7.06163 0.0514681 0)
(6.82391 0.0526607 0)
(6.58079 0.0519052 0)
(6.35036 0.0563918 0)
(6.09195 0.0557452 0)
(5.86206 0.0684469 0)
(5.55057 0.0681068 0)
(5.30931 0.0992231 0)
(10.0291 0.0517343 0)
(10.0892 0.0753051 0)
(10.128 0.0739787 0)
(10.1417 0.0749297 0)
(10.1385 0.078239 0)
(10.1251 0.0812347 0)
(10.1031 0.0836336 0)
(10.0741 0.0857527 0)
(10.0371 0.0881144 0)
(9.9944 0.0906114 0)
(9.94374 0.0939138 0)
(9.88886 0.0974486 0)
(9.82392 0.103066 0)
(9.75565 0.108906 0)
(9.67177 0.120257 0)
(9.58489 0.131195 0)
(9.47293 0.155154 0)
(9.35625 0.174623 0)
(10.0064 0.0308347 0)
(10.0398 0.0539241 0)
(10.0692 0.0560481 0)
(10.0866 0.0581673 0)
(10.0968 0.0627666 0)
(10.105 0.067458 0)
(10.1128 0.071264 0)
(10.1197 0.0749665 0)
(10.1252 0.0785391 0)
(10.1286 0.0829844 0)
(10.13 0.0874398 0)
(10.1287 0.0937577 0)
(10.1255 0.100395 0)
(10.1189 0.110875 0)
(10.1115 0.123176 0)
(10.1001 0.142091 0)
(10.0925 0.166166 0)
(10.0826 0.194835 0)
(9.99723 0.0281091 0)
(10.0184 0.0577013 0)
(10.041 0.0632719 0)
(10.056 0.0650044 0)
(10.0642 0.0688275 0)
(10.0697 0.0731865 0)
(10.0748 0.0769274 0)
(10.0795 0.0802228 0)
(10.0835 0.0837263 0)
(10.0865 0.0877462 0)
(10.0887 0.0927415 0)
(10.0897 0.098805 0)
(10.0902 0.106735 0)
(10.0898 0.116833 0)
(10.0899 0.130443 0)
(10.0916 0.148066 0)
(10.0973 0.169856 0)
(10.1103 0.19318 0)
(10.0132 0.0227723 0)
(10.0296 0.0469345 0)
(10.0487 0.0544281 0)
(10.0626 0.056792 0)
(10.0704 0.0605498 0)
(10.0752 0.0654533 0)
(10.0791 0.0700287 0)
(10.0824 0.0741785 0)
(10.0849 0.0782497 0)
(10.0864 0.0828403 0)
(10.0867 0.0881683 0)
(10.0862 0.0947254 0)
(10.0851 0.10289 0)
(10.0841 0.113245 0)
(10.0836 0.126418 0)
(10.0855 0.14258 0)
(10.0902 0.160996 0)
(10.1006 0.179118 0)
(9.9831 0.0184808 0)
(9.99683 0.0437766 0)
(10.0137 0.0544109 0)
(10.0277 0.058263 0)
(10.0368 0.0620532 0)
(10.0429 0.0669201 0)
(10.048 0.0718043 0)
(10.0528 0.0763035 0)
(10.0569 0.0807774 0)
(10.0601 0.0857283 0)
(10.0623 0.0914805 0)
(10.0638 0.0983783 0)
(10.0647 0.106699 0)
(10.0658 0.116921 0)
(10.0675 0.129239 0)
(10.071 0.143686 0)
(10.0768 0.159118 0)
(10.0863 0.174173 0)
(10.0122 0.0152823 0)
(10.0211 0.0381558 0)
(10.0335 0.0494246 0)
(10.0448 0.0540618 0)
(10.0525 0.0577497 0)
(10.0572 0.0623967 0)
(10.0607 0.0673888 0)
(10.0641 0.0721282 0)
(10.0672 0.0767676 0)
(10.0697 0.0818166 0)
(10.0716 0.0876856 0)
(10.073 0.0947156 0)
(10.0742 0.103118 0)
(10.0757 0.113188 0)
(10.0781 0.124866 0)
(10.0821 0.138077 0)
(10.0881 0.151763 0)
(10.0969 0.165291 0)
(10.0076 0.013605 0)
(10.0157 0.0340304 0)
(10.0272 0.0465806 0)
(10.0384 0.0528762 0)
(10.0466 0.0573043 0)
(10.0524 0.0621836 0)
(10.057 0.0675033 0)
(10.0612 0.0728008 0)
(10.0649 0.0780211 0)
(10.0679 0.083547 0)
(10.0701 0.0897429 0)
(10.0719 0.0969334 0)
(10.0735 0.105246 0)
(10.0755 0.114862 0)
(10.0782 0.125607 0)
(10.0824 0.137414 0)
(10.088 0.149435 0)
(10.0959 0.161378 0)
(10.003 0.0118546 0)
(10.0081 0.029986 0)
(10.0164 0.0422534 0)
(10.0257 0.0492652 0)
(10.0334 0.0538625 0)
(10.0391 0.0583466 0)
(10.0437 0.0633134 0)
(10.0479 0.0685574 0)
(10.052 0.0739713 0)
(10.0558 0.0797389 0)
(10.059 0.0860987 0)
(10.062 0.0933137 0)
(10.0649 0.101471 0)
(10.0682 0.110719 0)
(10.0721 0.120836 0)
(10.0773 0.131775 0)
(10.0834 0.14278 0)
(10.0914 0.153708 0)
(9.99871 0.00967853 0)
(10.0037 0.0271747 0)
(10.0118 0.03925 0)
(10.0208 0.0471654 0)
(10.0287 0.0528535 0)
(10.0349 0.0579418 0)
(10.0398 0.0631508 0)
(10.0439 0.0685671 0)
(10.0477 0.0741768 0)
(10.0513 0.0801384 0)
(10.0545 0.08662 0)
(10.0575 0.0938127 0)
(10.0606 0.101732 0)
(10.0641 0.110457 0)
(10.0683 0.119761 0)
(10.0737 0.129624 0)
(10.08 0.139424 0)
(10.0878 0.149217 0)
(9.99745 0.00934852 0)
(10.0005 0.0248596 0)
(10.0063 0.0356209 0)
(10.0137 0.0431872 0)
(10.0207 0.0488718 0)
(10.0266 0.0538079 0)
(10.0312 0.0588212 0)
(10.0353 0.0642535 0)
(10.0391 0.070061 0)
(10.0429 0.0762316 0)
(10.0468 0.0827976 0)
(10.0506 0.0899049 0)
(10.0546 0.0975408 0)
(10.0589 0.105805 0)
(10.0637 0.114456 0)
(10.0695 0.123543 0)
(10.0759 0.132493 0)
(10.0836 0.14149 0)
(9.99726 0.00826301 0)
(9.99936 0.0224434 0)
(10.0043 0.0331433 0)
(10.011 0.041236 0)
(10.0177 0.0476168 0)
(10.0233 0.0532067 0)
(10.0279 0.0586504 0)
(10.0321 0.0641976 0)
(10.0362 0.0699061 0)
(10.0405 0.0758842 0)
(10.045 0.0822401 0)
(10.0495 0.0891173 0)
(10.0542 0.0964525 0)
(10.0592 0.104282 0)
(10.0646 0.112326 0)
(10.0705 0.120669 0)
(10.0772 0.128768 0)
(10.0845 0.136955 0)
(10.0071 0.0079945 0)
(10.0084 0.0190014 0)
(10.0124 0.0293743 0)
(10.0182 0.0375729 0)
(10.0245 0.043802 0)
(10.0306 0.0490528 0)
(10.0364 0.0541587 0)
(10.0417 0.0595045 0)
(10.0468 0.0651479 0)
(10.0517 0.0711256 0)
(10.0565 0.0774395 0)
(10.0614 0.0841668 0)
(10.0664 0.0912518 0)
(10.0717 0.0987228 0)
(10.0774 0.106336 0)
(10.0836 0.114137 0)
(10.0902 0.121666 0)
(10.0974 0.129226 0)
(10.0022 0.00968868 0)
(10.0051 0.0185662 0)
(10.0093 0.0284497 0)
(10.0149 0.0365497 0)
(10.0211 0.0426346 0)
(10.0271 0.0478199 0)
(10.0327 0.0530026 0)
(10.0379 0.0584823 0)
(10.0428 0.0642064 0)
(10.0477 0.0701503 0)
(10.0528 0.0763003 0)
(10.0581 0.0827411 0)
(10.0637 0.0894032 0)
(10.0695 0.0963536 0)
(10.0758 0.103336 0)
(10.0825 0.110485 0)
(10.0896 0.117316 0)
(10.0972 0.124244 0)
(9.9996 0.00356571 0)
(10.0042 0.0143709 0)
(10.0089 0.0228688 0)
(10.0139 0.0298086 0)
(10.019 0.0357651 0)
(10.0242 0.0412289 0)
(10.0296 0.0464937 0)
(10.0351 0.0517504 0)
(10.0407 0.0571168 0)
(10.0465 0.0626879 0)
(10.0525 0.0684536 0)
(10.0588 0.0744481 0)
(10.0654 0.080574 0)
(10.0722 0.086879 0)
(10.0794 0.0931623 0)
(10.0868 0.0995749 0)
(10.0944 0.105714 0)
(10.1023 0.111997 0)
(10.0231 0.00148933 0)
(10.0246 0.0135969 0)
(10.0274 0.0216535 0)
(10.0319 0.0280768 0)
(10.0372 0.0339013 0)
(10.0429 0.0392659 0)
(10.0486 0.0442055 0)
(10.0542 0.0489679 0)
(10.0599 0.0538157 0)
(10.0658 0.058897 0)
(10.0718 0.0641803 0)
(10.0781 0.0696596 0)
(10.0847 0.0752223 0)
(10.0915 0.0809349 0)
(10.0984 0.0866151 0)
(10.1057 0.0924376 0)
(10.113 0.098004 0)
(10.1206 0.103742 0)
(9.99506 0.00284252 0)
(9.99194 0.00947967 0)
(9.99164 0.0152707 0)
(9.99543 0.0206989 0)
(10.0017 0.0259477 0)
(10.0087 0.0308446 0)
(10.0156 0.0353267 0)
(10.0223 0.0396073 0)
(10.029 0.0439187 0)
(10.0357 0.0484095 0)
(10.0426 0.0530498 0)
(10.0497 0.0578333 0)
(10.0569 0.0626427 0)
(10.0643 0.0675485 0)
(10.0718 0.0723835 0)
(10.0796 0.0773404 0)
(10.0871 0.0820591 0)
(10.0952 0.0869718 0)
(9.98863 0.0111098 0)
(9.98863 0.0110368 0)
(9.99024 0.0132504 0)
(9.99445 0.0165643 0)
(10.0003 0.0201375 0)
(10.0068 0.0237945 0)
(10.0133 0.0276168 0)
(10.0198 0.0316294 0)
(10.0263 0.0357339 0)
(10.0328 0.0398621 0)
(10.0396 0.0439423 0)
(10.0465 0.0480471 0)
(10.0537 0.0521629 0)
(10.0609 0.0564225 0)
(10.0683 0.0606791 0)
(10.0758 0.0650846 0)
(10.0832 0.0692763 0)
(10.0907 0.0736059 0)
(9.99634 0.00173012 0)
(10.0002 0.00240913 0)
(10.0049 0.00407042 0)
(10.01 0.00638242 0)
(10.0155 0.00894244 0)
(10.0215 0.0117614 0)
(10.028 0.0148712 0)
(10.0348 0.0181439 0)
(10.042 0.021375 0)
(10.0494 0.0244754 0)
(10.057 0.0274367 0)
(10.0646 0.0303836 0)
(10.0724 0.0333604 0)
(10.0801 0.0365003 0)
(10.088 0.0396912 0)
(10.0959 0.0430556 0)
(10.104 0.0462795 0)
(10.1121 0.0496631 0)
(10.0006 0.00103618 0)
(10.0033 0.000649423 0)
(10.0069 0.000880763 0)
(10.0114 0.00161686 0)
(10.0168 0.00289086 0)
(10.0231 0.00449564 0)
(10.0299 0.0062374 0)
(10.037 0.00810161 0)
(10.0441 0.0101362 0)
(10.0513 0.0123893 0)
(10.0585 0.0148243 0)
(10.0658 0.0173968 0)
(10.0732 0.0199677 0)
(10.0807 0.0225216 0)
(10.0884 0.0249358 0)
(10.0963 0.0273653 0)
(10.1042 0.029636 0)
(10.1122 0.0320952 0)
(10.011 -0.00369663 0)
(10.0149 -0.00498546 0)
(10.0205 -0.0059082 0)
(10.0272 -0.00641752 0)
(10.0344 -0.00632889 0)
(10.0415 -0.00561921 0)
(10.0485 -0.00440953 0)
(10.0554 -0.00283129 0)
(10.0625 -0.00102761 0)
(10.0698 0.000870717 0)
(10.0772 0.00271364 0)
(10.0847 0.00443855 0)
(10.0924 0.0060014 0)
(10.1001 0.00749917 0)
(10.1079 0.00894333 0)
(10.1156 0.0105082 0)
(10.1233 0.0120752 0)
(10.1309 0.0138719 0)
(10.0003 -0.00613833 0)
(10.0015 -0.00988459 0)
(10.0055 -0.0115938 0)
(10.0118 -0.0120924 0)
(10.0192 -0.0117901 0)
(10.0269 -0.0110367 0)
(10.0344 -0.0101199 0)
(10.0419 -0.00914651 0)
(10.0496 -0.00810033 0)
(10.0574 -0.00693638 0)
(10.0652 -0.00568302 0)
(10.0729 -0.00436707 0)
(10.0806 -0.00305411 0)
(10.0881 -0.00170914 0)
(10.0956 -0.000383199 0)
(10.1031 0.00101852 0)
(10.1105 0.00235791 0)
(10.1181 0.00379986 0)
(9.99311 -0.00250814 0)
(9.99881 -0.0112466 0)
(10.0056 -0.0163585 0)
(10.0132 -0.0187777 0)
(10.0211 -0.0197088 0)
(10.0289 -0.019969 0)
(10.0365 -0.0198968 0)
(10.0439 -0.0195218 0)
(10.0515 -0.0188216 0)
(10.0593 -0.0178372 0)
(10.0672 -0.0167103 0)
(10.0752 -0.01558 0)
(10.0833 -0.0145725 0)
(10.0914 -0.0136871 0)
(10.0995 -0.012957 0)
(10.1075 -0.0122651 0)
(10.1157 -0.011675 0)
(10.1237 -0.0109884 0)
(10.0027 -0.0137519 0)
(10.0078 -0.0163728 0)
(10.0158 -0.0210269 0)
(10.025 -0.0235292 0)
(10.0339 -0.0238171 0)
(10.0419 -0.0233557 0)
(10.0495 -0.0229781 0)
(10.0569 -0.0227351 0)
(10.0646 -0.0224664 0)
(10.0725 -0.0220879 0)
(10.0807 -0.0216323 0)
(10.089 -0.0211297 0)
(10.0974 -0.0206182 0)
(10.1058 -0.0200871 0)
(10.1141 -0.0195792 0)
(10.1223 -0.0190359 0)
(10.1303 -0.018536 0)
(10.1382 -0.0179519 0)
(9.98683 -0.0111646 0)
(9.98916 -0.0223273 0)
(9.99713 -0.0288296 0)
(10.0077 -0.0316417 0)
(10.0177 -0.0325679 0)
(10.0263 -0.0329785 0)
(10.0345 -0.0332981 0)
(10.0429 -0.0334651 0)
(10.0515 -0.0334279 0)
(10.0602 -0.0332522 0)
(10.0688 -0.0330285 0)
(10.0773 -0.0327893 0)
(10.0856 -0.0325549 0)
(10.0938 -0.0323028 0)
(10.1019 -0.0320578 0)
(10.1099 -0.0317825 0)
(10.1178 -0.0315384 0)
(10.1256 -0.0312421 0)
(10.0042 -0.009512 0)
(10.014 -0.0260189 0)
(10.0266 -0.0305801 0)
(10.0383 -0.0308872 0)
(10.0478 -0.0311972 0)
(10.0559 -0.0321289 0)
(10.0638 -0.0330621 0)
(10.0721 -0.0336231 0)
(10.0808 -0.0338534 0)
(10.0896 -0.0339213 0)
(10.0984 -0.0339288 0)
(10.1071 -0.0339004 0)
(10.1157 -0.0338539 0)
(10.1242 -0.0337814 0)
(10.1326 -0.0337185 0)
(10.1408 -0.0336472 0)
(10.149 -0.0336184 0)
(10.157 -0.0335683 0)
(9.99914 -0.020858 0)
(10.0129 -0.0378719 0)
(10.0273 -0.0427522 0)
(10.0391 -0.042921 0)
(10.0482 -0.0433546 0)
(10.056 -0.0445133 0)
(10.0638 -0.0454456 0)
(10.072 -0.0458381 0)
(10.0804 -0.0459441 0)
(10.0889 -0.0460174 0)
(10.0974 -0.046131 0)
(10.1059 -0.0462458 0)
(10.1144 -0.0463231 0)
(10.1227 -0.0463561 0)
(10.131 -0.0463815 0)
(10.1391 -0.0464134 0)
(10.147 -0.0464917 0)
(10.1548 -0.0465814 0)
(10.0161 -0.0191402 0)
(10.0338 -0.0314087 0)
(10.0522 -0.0352226 0)
(10.0657 -0.0358965 0)
(10.0751 -0.037201 0)
(10.0836 -0.0389758 0)
(10.0925 -0.0403663 0)
(10.102 -0.0412853 0)
(10.1117 -0.0420047 0)
(10.1213 -0.0426944 0)
(10.1308 -0.0433335 0)
(10.14 -0.0438873 0)
(10.149 -0.0443078 0)
(10.1578 -0.0446452 0)
(10.1664 -0.0449045 0)
(10.1748 -0.045183 0)
(10.1832 -0.0454699 0)
(10.1912 -0.0458554 0)
(10.008 -0.0388744 0)
(10.0445 -0.0551975 0)
(10.076 -0.0534533 0)
(10.0971 -0.0525456 0)
(10.1107 -0.0536617 0)
(10.1205 -0.0548491 0)
(10.128 -0.0555333 0)
(10.1333 -0.0559331 0)
(10.1363 -0.0562517 0)
(10.1373 -0.0565612 0)
(10.1364 -0.0568223 0)
(10.1343 -0.057046 0)
(10.1309 -0.057197 0)
(10.1269 -0.0573497 0)
(10.122 -0.0574661 0)
(10.1169 -0.0576607 0)
(10.1107 -0.0578684 0)
(10.1047 -0.058242 0)
(9.91762 -0.0298649 0)
(9.75417 -0.0467074 0)
(9.58794 -0.0457461 0)
(9.41883 -0.0448401 0)
(9.2526 -0.0450197 0)
(9.09291 -0.0449934 0)
(8.94069 -0.0445261 0)
(8.79564 -0.0438364 0)
(8.65712 -0.0431088 0)
(8.52481 -0.0424385 0)
(8.39821 -0.0418373 0)
(8.27731 -0.0413028 0)
(8.16149 -0.0407834 0)
(8.05115 -0.0402782 0)
(7.94514 -0.0397366 0)
(7.8447 -0.0392192 0)
(7.74734 -0.0386876 0)
(7.65618 -0.0382777 0)
(-0.228425 0.487006 -1.30511e-21)
(-0.555459 0.246935 1.32559e-21)
(-0.712832 0.039498 0)
(-0.699459 -0.164743 0)
(-0.494531 -0.34323 0)
(-0.15671 -0.46849 -1.27784e-21)
(0.269762 -0.532304 0)
(0.738006 -0.537702 0)
(1.2024 -0.501824 0)
(1.63039 -0.438343 0)
(2.0017 -0.361776 1.34078e-21)
(2.30912 -0.287304 0)
(2.55416 -0.219394 0)
(2.73821 -0.15239 0)
(2.86681 -0.0861171 0)
(2.94326 -0.0202545 1.66699e-21)
(2.96648 0.0108631 0)
(2.96819 0.00775749 0)
(2.94993 0.0214672 0)
(2.91294 0.0453169 0)
(2.84468 0.071633 0)
(2.73674 0.0950026 0)
(2.58175 0.126095 0)
(2.39342 0.17643 1.57486e-21)
(2.15461 0.237951 -1.53258e-21)
(1.8882 0.240628 1.49626e-21)
(1.61601 0.209137 1.46955e-21)
(1.33068 0.143762 0)
(1.08004 0.0769004 0)
(0.837336 0.111691 -1.43955e-21)
(0.58522 0.156429 -1.44231e-21)
(0.325513 0.177839 0)
(0.0643616 0.175288 0)
(-0.175304 0.150289 -1.48092e-21)
(-0.376281 0.111941 0)
(-0.535007 0.0738163 0)
(-0.648231 0.0423363 1.49603e-21)
(-0.73081 0.0268796 0)
(-0.81015 0.0269923 1.51687e-21)
(-0.920704 0.0565005 3.08537e-21)
(-1.09107 0.111244 0)
(-1.31634 0.165192 0)
(-1.59874 0.189798 0)
(-1.87399 0.151232 0)
(-2.10997 0.109607 0)
(-2.30154 0.037887 3.35249e-21)
(-2.43682 -0.0810703 3.43124e-21)
(-2.57439 -0.100324 3.51611e-21)
(-2.69963 0.0373603 0)
(-2.89943 0.114567 -3.60799e-21)
(-3.0528 0.106352 0)
(-3.18117 0.103607 3.70333e-21)
(-3.28867 0.0972421 3.74295e-21)
(-3.3791 0.0819309 0)
(-3.44612 0.0555473 0)
(-3.50334 -0.00154527 0)
(-3.54704 0.00870384 3.80824e-21)
(-3.63404 0.0385691 0)
(-3.69377 0.0218941 0)
(-3.73117 0.00441934 0)
(-3.71824 -0.0184461 0)
(-3.7013 -0.0891531 0)
(-3.67015 -0.0754705 0)
(-3.72546 0.00696218 0)
(-3.80801 0.0186679 0)
(-3.8877 0.0292963 -4.14135e-21)
(-3.98512 0.0327975 0)
(-4.08366 0.0379363 0)
(-4.19754 0.0443321 4.39897e-21)
(-4.32074 0.0512263 4.47205e-21)
(-4.45392 0.0545272 0)
(-4.59343 0.0552998 -4.57568e-21)
(-4.73053 0.0542067 4.61463e-21)
(-4.85519 0.0492202 0)
(-4.9702 0.0444226 -4.70618e-21)
(-5.08414 0.0505268 0)
(-5.20761 0.0620484 0)
(-5.34266 0.0730846 4.85754e-21)
(-5.49067 0.0805305 0)
(-5.6503 0.0845357 -4.86346e-21)
(-5.81957 0.0844847 0)
(-5.9943 0.0732341 4.77916e-21)
(-6.14414 0.0553261 4.71109e-21)
(-6.2868 0.0332239 4.62899e-21)
(-6.37764 -0.00603884 9.0636e-21)
(-6.47828 -0.0295074 -8.85977e-21)
(-6.57379 -0.029697 0)
(-6.75184 0.0416527 0)
(-7.02626 0.170443 0)
(-7.34737 0.178329 -8.08309e-21)
(-7.55441 0.124294 -8.07049e-21)
(-7.68158 0.0791915 8.07327e-21)
(-7.73531 0.0375634 0)
(-7.72534 0.00333052 -7.93783e-21)
(-7.66036 -0.0260483 -7.75871e-21)
(-7.54608 -0.0507186 -7.49743e-21)
(-7.38822 -0.0720443 0)
(-7.19059 -0.0904338 0)
(-6.95736 -0.10653 0)
(-6.69131 -0.120627 -5.67686e-21)
(-6.39556 -0.133153 0)
(-6.07243 -0.143982 0)
(-5.72447 -0.153263 3.65597e-21)
(-5.35446 -0.160939 0)
(-4.96563 -0.167038 0)
(-4.56097 -0.171552 1.3451e-21)
(-4.14366 -0.174493 0)
(-3.71719 -0.175853 0)
(-3.28522 -0.175629 9.17787e-22)
(-2.85149 -0.173771 1.60349e-21)
(-2.41964 -0.170315 0)
(-1.99339 -0.165376 -2.81503e-21)
(-1.57644 -0.15913 0)
(-1.17132 -0.152065 3.78007e-21)
(-0.779996 -0.145073 0)
(-0.403827 -0.137621 4.49732e-21)
(-0.0426531 -0.130213 4.77098e-21)
(0.303368 -0.12298 0)
(0.634261 -0.115905 0)
(0.950075 -0.10892 0)
(1.25094 -0.101976 0)
(1.53679 -0.0950856 0)
(1.80737 -0.088357 0)
(2.06227 -0.0818593 0)
(2.30188 -0.0755342 5.38239e-21)
(2.52606 -0.0691171 -5.31008e-21)
(2.73513 -0.0628846 0)
(2.9293 -0.0568812 0)
(3.10889 -0.0511058 0)
(3.2743 -0.0455921 0)
(3.42601 -0.0403611 -9.43813e-21)
(3.56457 -0.0354188 0)
(3.69053 -0.0307602 8.87168e-21)
(3.80445 -0.0263805 -8.58838e-21)
(3.9069 -0.022268 0)
(3.99834 -0.0183852 0)
(4.07916 -0.0146825 0)
(4.14972 -0.0111184 7.52787e-21)
(4.2103 -0.00771457 7.29151e-21)
(4.26119 -0.0046022 0)
(4.30297 -0.00194222 6.86267e-21)
(4.33639 0.000240257 6.67169e-21)
(4.36228 0.0021347 -6.49702e-21)
(4.38121 0.00403323 0)
(4.39337 0.00614892 0)
(4.39869 0.00853289 -6.07226e-21)
(4.39673 0.0111344 0)
(4.38705 0.013846 0)
(4.36915 0.0165841 0)
(4.34256 0.0193228 0)
(4.30676 0.0220715 5.67493e-21)
(4.26113 0.024819 5.63673e-21)
(4.20502 0.0275453 0)
(4.13753 0.0303012 5.59393e-21)
(4.05752 0.0330264 0)
(3.96378 0.0353166 0)
(3.85566 0.0365741 5.57564e-21)
(3.73344 0.0361608 0)
(3.59968 0.0328658 5.54828e-21)
(3.46177 0.0265874 0)
(3.33009 0.019456 0)
(3.2141 0.0158077 5.46609e-21)
(3.1187 0.016946 0)
(3.03385 0.025392 5.42044e-21)
(2.94299 0.0317852 0)
(2.84516 0.0317021 0)
(2.74208 0.0279159 0)
(2.63829 0.0200775 -5.29189e-21)
(2.54373 0.0128449 0)
(2.46331 0.00803166 5.22149e-21)
(2.39442 0.00563761 0)
(2.3358 0.00730127 0)
(2.2762 0.0136511 0)
(2.20282 0.0194661 0)
(2.11361 0.02175 0)
(2.00799 0.020309 0)
(1.90817 0.0264506 0)
(1.75134 0.0241799 -1.01063e-20)
(1.68152 0.0473113 0)
(1.36507 0.0208038 0)
(-0.0126778 1.01699 4.01605e-21)
(0.0111072 0.696655 -4.06217e-21)
(0.0927771 0.216674 0)
(0.314841 -0.285885 2.8238e-21)
(0.627084 -0.794569 0)
(1.01715 -1.17466 1.27424e-21)
(1.42795 -1.37912 -2.82796e-21)
(1.82202 -1.43021 -2.85732e-21)
(2.17997 -1.3613 0)
(2.48809 -1.2102 -3.03247e-21)
(2.7398 -1.01915 -1.3377e-21)
(2.93364 -0.818329 0)
(3.07384 -0.628766 0)
(3.16694 -0.461746 0)
(3.22308 -0.317527 0)
(3.2534 -0.182411 -1.6643e-21)
(3.26196 -0.0678546 0)
(3.24143 0.0133794 3.71477e-21)
(3.19662 0.0700986 0)
(3.13258 0.125073 0)
(3.03114 0.231842 -3.62589e-21)
(2.89731 0.362022 0)
(2.73335 0.468306 3.48926e-21)
(2.55597 0.558245 -1.56999e-21)
(2.37218 0.620826 1.52729e-21)
(2.16385 0.657143 -1.4907e-21)
(1.92005 0.712027 -1.46381e-21)
(1.62746 0.749821 0)
(1.29288 0.743317 0)
(0.921131 0.707945 1.43495e-21)
(0.565797 0.670056 -1.66554e-21)
(0.253772 0.636238 0)
(-0.0313413 0.600396 0)
(-0.267379 0.530386 1.47792e-21)
(-0.472122 0.428654 0)
(-0.646264 0.317508 0)
(-0.789824 0.207282 -1.49215e-21)
(-0.926726 0.156114 0)
(-1.08437 0.213019 1.82909e-21)
(-1.26817 0.342962 -3.07697e-21)
(-1.46567 0.467987 0)
(-1.66448 0.562049 0)
(-1.86272 0.593774 -6.92782e-21)
(-2.0749 0.534346 -6.96032e-21)
(-2.31166 0.48287 -7.05682e-21)
(-2.51781 0.417987 3.84076e-21)
(-2.76125 0.439715 -3.42604e-21)
(-3.03468 0.445126 -1.10313e-20)
(-3.20673 0.398231 7.67073e-21)
(-3.36356 0.333343 3.60089e-21)
(-3.46324 0.252174 0)
(-3.54575 0.194219 -3.69632e-21)
(-3.58725 0.138157 4.3224e-21)
(-3.62195 0.0944312 0)
(-3.64703 0.0806212 0)
(-3.71246 0.108867 0)
(-3.76789 0.127682 -3.80381e-21)
(-3.82338 0.111841 0)
(-3.8471 0.0649973 8.12456e-21)
(-3.86901 -0.00287736 0)
(-3.86934 -0.0536584 8.20956e-21)
(-3.96574 0.0178778 0)
(-4.07644 0.0875929 -8.39792e-21)
(-4.1803 0.127967 0)
(-4.28207 0.141464 8.66808e-21)
(-4.38148 0.162072 -4.70817e-21)
(-4.48808 0.179389 0)
(-4.5963 0.199675 -9.22188e-21)
(-4.71515 0.218064 -4.39626e-21)
(-4.84074 0.234002 -4.4689e-21)
(-4.97652 0.243203 0)
(-5.12071 0.242659 -5.09879e-21)
(-5.24907 0.220762 -4.61007e-21)
(-5.36379 0.192888 0)
(-5.47149 0.185583 4.70165e-21)
(-5.57315 0.194973 -9.99044e-21)
(-5.67447 0.20778 0)
(-5.78187 0.222977 -4.85293e-21)
(-5.89714 0.238639 0)
(-6.02045 0.253164 1.49612e-20)
(-6.14857 0.262633 0)
(-6.29029 0.256426 -1.4652e-20)
(-6.42725 0.237011 -4.70841e-21)
(-6.577 0.202781 4.89733e-21)
(-6.73317 0.188758 9.58846e-21)
(-6.96672 0.225433 -9.40582e-21)
(-7.20588 0.296585 0)
(-7.50588 0.402714 0)
(-7.67881 0.388269 0)
(-7.78692 0.293878 2.52851e-20)
(-7.80843 0.180182 8.06698e-21)
(-7.78705 0.0774217 -8.0692e-21)
(-7.71592 -0.0153079 0)
(-7.60935 -0.0945514 -8.62094e-21)
(-7.46615 -0.163915 7.7566e-21)
(-7.29216 -0.224249 7.49645e-21)
(-7.08753 -0.27775 0)
(-6.85497 -0.325335 0)
(-6.5947 -0.368101 0)
(-6.30849 -0.406614 5.6788e-21)
(-5.997 -0.441288 0)
(-5.66205 -0.472105 -9.11664e-21)
(-5.30498 -0.499058 -1.1311e-20)
(-4.92787 -0.521903 6.12195e-21)
(-4.53254 -0.540438 0)
(-4.12174 -0.554425 1.61436e-21)
(-3.69851 -0.563747 0)
(-3.26616 -0.56833 -1.54757e-22)
(-2.82821 -0.568127 7.14521e-22)
(-2.38821 -0.562978 1.42117e-21)
(-1.94981 -0.55289 0)
(-1.51665 -0.538312 8.29968e-21)
(-1.09261 -0.519909 -6.52931e-21)
(-0.680607 -0.499044 -3.77866e-21)
(-0.28243 -0.477203 0)
(0.101029 -0.454797 -4.49503e-21)
(0.469717 -0.432534 -1.42139e-20)
(0.82363 -0.410761 0)
(1.163 -0.389565 -1.02495e-20)
(1.48789 -0.368744 -1.0514e-20)
(1.79836 -0.348107 -1.06949e-20)
(2.09442 -0.327611 0)
(2.37571 -0.307803 0)
(2.64179 -0.288019 0)
(2.8932 -0.268522 5.3213e-21)
(3.12985 -0.249324 5.30474e-21)
(3.35189 -0.230637 0)
(3.55964 -0.21261 1.01608e-20)
(3.75344 -0.195329 9.92065e-21)
(3.93374 -0.17887 0)
(4.10107 -0.163271 9.42919e-21)
(4.25603 -0.148539 1.82204e-20)
(4.39922 -0.134653 -8.86337e-21)
(4.53126 -0.121574 -8.51216e-21)
(4.65273 -0.109245 0)
(4.76423 -0.0975888 0)
(4.86631 -0.0865204 0)
(4.95942 -0.0759675 -7.52061e-21)
(5.04396 -0.0658898 7.22548e-21)
(5.1203 -0.0563116 1.4067e-20)
(5.18859 -0.047338 -6.85573e-21)
(5.24882 -0.039065 6.6079e-21)
(5.30103 -0.0315179 6.4902e-21)
(5.34539 -0.0246168 0)
(5.38235 -0.0181717 0)
(5.41252 -0.0119088 -6.00744e-21)
(5.43677 -0.00554492 0)
(5.45571 0.00111235 0)
(5.46963 0.00814211 1.15042e-20)
(5.47842 0.0155554 0)
(5.48174 0.0233647 5.59872e-21)
(5.47908 0.0316402 -5.62979e-21)
(5.46981 0.0405011 0)
(5.45311 0.0501528 5.50054e-21)
(5.42801 0.0607641 0)
(5.39329 0.0722831 0)
(5.34754 0.0841982 -5.5682e-21)
(5.28882 0.0956016 1.09938e-20)
(5.21516 0.104476 -5.54061e-21)
(5.12477 0.10829 0)
(5.01586 0.104006 0)
(4.88739 0.0917865 5.35258e-21)
(4.74337 0.075548 0)
(4.60506 0.063013 5.31632e-21)
(4.4945 0.0610157 0)
(4.41248 0.0656702 0)
(4.34889 0.0720518 0)
(4.28391 0.0747171 5.28355e-21)
(4.21043 0.070239 0)
(4.13449 0.0614432 -5.21304e-21)
(4.06202 0.0530553 0)
(3.99357 0.0461842 0)
(3.93684 0.0469506 1.02003e-20)
(3.88635 0.0527946 -1.01627e-20)
(3.84381 0.0649733 0)
(3.78014 0.0694958 0)
(3.72553 0.0858301 0)
(3.60934 0.0798919 3.01518e-20)
(3.55218 0.113189 0)
(3.33699 0.0958782 -1.9913e-20)
(0.0890367 0.635774 -4.54544e-23)
(0.351986 0.188921 5.40981e-21)
(0.705837 -0.475222 0)
(1.13224 -1.1463 -5.66734e-21)
(1.55046 -1.68914 0)
(1.90413 -2.02322 0)
(2.17499 -2.13372 -3.76619e-22)
(2.37314 -2.06292 2.85208e-21)
(2.51058 -1.85822 3.44161e-21)
(2.60726 -1.56987 3.02967e-21)
(2.66808 -1.25548 0)
(2.70415 -0.95472 0)
(2.71745 -0.683034 -3.91124e-21)
(2.71096 -0.448647 -7.97249e-21)
(2.68644 -0.256849 8.07679e-21)
(2.64839 -0.101502 0)
(2.60553 0.028936 8.15805e-21)
(2.54621 0.136463 -3.71699e-21)
(2.47378 0.225163 0)
(2.36408 0.359334 8.01566e-21)
(2.23503 0.505724 3.62517e-21)
(2.10417 0.632361 -7.7911e-21)
(1.9671 0.745108 -3.48674e-21)
(1.82839 0.83723 0)
(1.67834 0.921889 7.34607e-21)
(1.49373 1.03204 7.19693e-21)
(1.28972 1.13693 0)
(1.05812 1.2349 6.93456e-21)
(0.800834 1.30204 0)
(0.519624 1.31862 6.76946e-21)
(0.21798 1.27682 3.09298e-21)
(-0.0703952 1.18954 0)
(-0.337377 1.06509 0)
(-0.564608 0.910641 0)
(-0.77458 0.762113 0)
(-0.962939 0.620685 0)
(-1.16572 0.535401 0)
(-1.38003 0.520952 7.11366e-21)
(-1.60157 0.57673 -1.05734e-20)
(-1.82663 0.677501 0)
(-2.02666 0.76602 0)
(-2.22398 0.809039 0)
(-2.37577 0.852913 -5.90901e-22)
(-2.55235 0.840799 6.94759e-21)
(-2.71365 0.792593 1.46618e-20)
(-2.87255 0.739014 -1.493e-20)
(-3.02345 0.685179 -7.91468e-21)
(-3.1522 0.618954 7.51205e-21)
(-3.2338 0.548951 6.08393e-22)
(-3.30518 0.471363 8.42178e-21)
(-3.35324 0.386741 0)
(-3.40344 0.303801 8.62992e-21)
(-3.44417 0.235511 6.22875e-22)
(-3.50913 0.205727 0)
(-3.57418 0.20129 0)
(-3.63538 0.203739 -8.71885e-21)
(-3.67326 0.18865 0)
(-3.71414 0.158386 0)
(-3.75069 0.107075 9.24625e-21)
(-3.8118 0.0733868 1.73843e-20)
(-3.94004 0.12633 -8.21023e-21)
(-4.10813 0.202534 0)
(-4.25427 0.243083 8.39691e-21)
(-4.38217 0.263601 0)
(-4.50036 0.276373 1.00494e-20)
(-4.60826 0.289697 8.84329e-21)
(-4.70745 0.302448 -1.95784e-20)
(-4.80264 0.323103 -1.07458e-20)
(-4.90091 0.350812 0)
(-5.00653 0.378379 2.04921e-20)
(-5.11971 0.393056 0)
(-5.23195 0.382911 3.03738e-20)
(-5.32946 0.345578 2.07819e-20)
(-5.41819 0.306121 2.0901e-20)
(-5.49384 0.281296 -2.1058e-20)
(-5.56224 0.281382 3.12248e-20)
(-5.63115 0.305172 0)
(-5.70335 0.336393 0)
(-5.78586 0.359929 -2.13605e-20)
(-5.88592 0.379427 -3.13076e-20)
(-5.99972 0.397109 0)
(-6.13821 0.400346 9.88339e-21)
(-6.28992 0.388423 0)
(-6.46536 0.381367 -2.93565e-20)
(-6.68184 0.423632 7.86141e-22)
(-6.91679 0.478636 -8.65525e-22)
(-7.15356 0.555567 1.89231e-20)
(-7.29974 0.548877 0)
(-7.32179 0.439108 -1.86158e-20)
(-7.30506 0.293116 1.2639e-21)
(-7.24866 0.143488 0)
(-7.17952 0.00723266 0)
(-7.08339 -0.115069 0)
(-6.96751 -0.222256 1.65677e-20)
(-6.82325 -0.318102 0)
(-6.65359 -0.403725 0)
(-6.45549 -0.481362 0)
(-6.23107 -0.551941 0)
(-5.97988 -0.616723 0)
(-5.70362 -0.676106 1.23925e-20)
(-5.4027 -0.730404 0)
(-5.07869 -0.779421 9.12653e-21)
(-4.73275 -0.822901 7.66122e-21)
(-4.36692 -0.860307 -6.12897e-21)
(-3.98319 -0.891092 0)
(-3.58425 -0.914578 -2.96522e-21)
(-3.17295 -0.930413 0)
(-2.75249 -0.938435 1.52385e-22)
(-2.32608 -0.938471 -1.62962e-21)
(-1.89708 -0.930384 -8.46683e-21)
(-1.46906 -0.914116 0)
(-1.04586 -0.890043 -1.59668e-20)
(-0.631367 -0.859588 -6.0913e-21)
(-0.228827 -0.825093 0)
(0.159733 -0.788333 -1.60833e-20)
(0.533662 -0.750815 -1.74384e-20)
(0.893034 -0.713826 2.80085e-20)
(1.23808 -0.677816 0)
(1.5691 -0.642842 1.0246e-20)
(1.88632 -0.608541 1.05103e-20)
(2.18962 -0.574553 3.18251e-20)
(2.47876 -0.541077 0)
(2.75331 -0.508043 0)
(3.01326 -0.475209 0)
(3.25849 -0.442885 1.04965e-20)
(3.48895 -0.411254 0)
(3.70473 -0.380522 0)
(3.90611 -0.350911 -1.01533e-20)
(4.09346 -0.322599 -9.91371e-21)
(4.26726 -0.295707 0)
(4.42807 -0.270301 0)
(4.57655 -0.246389 -1.82097e-20)
(4.71339 -0.223947 0)
(4.83927 -0.202911 1.70836e-20)
(4.95489 -0.1832 1.64182e-20)
(5.06089 -0.164688 0)
(5.15787 -0.147219 0)
(5.24637 -0.130665 -1.4873e-20)
(5.32683 -0.114959 -9.92199e-23)
(5.39958 -0.100071 -9.72151e-23)
(5.46488 -0.0859815 0)
(5.52293 -0.072648 -2.64411e-20)
(5.57379 -0.0600137 0)
(5.61753 -0.0480381 0)
(5.65431 -0.0367231 0)
(5.68438 -0.0261102 1.20686e-20)
(5.7082 -0.0162059 0)
(5.72641 -0.00685716 -2.31273e-20)
(5.73981 0.00226315 -1.15001e-20)
(5.74914 0.011516 0)
(5.75491 0.0211952 -1.12628e-20)
(5.75727 0.0315325 0)
(5.75606 0.0427495 0)
(5.75101 0.0551124 -3.30099e-20)
(5.74183 0.0688269 2.1861e-20)
(5.72816 0.0838387 0)
(5.70945 0.0996805 2.17599e-20)
(5.68482 0.11572 -1.09897e-20)
(5.65272 0.130779 0)
(5.61099 0.14345 0)
(5.55601 0.152234 0)
(5.48449 0.156619 -3.21531e-20)
(5.39175 0.156988 0)
(5.27457 0.148937 -1.07235e-20)
(5.13939 0.129945 0)
(4.99955 0.109531 0)
(4.87809 0.0972012 0)
(4.78919 0.0938076 0)
(4.71796 0.0908134 0)
(4.64581 0.0833847 0)
(4.57295 0.0760758 -2.03294e-20)
(4.50065 0.0697932 0)
(4.43615 0.0674694 -1.01941e-20)
(4.37596 0.0665077 3.02664e-20)
(4.3354 0.0738701 0)
(4.29177 0.0786069 0)
(4.26806 0.101663 -1.99458e-20)
(4.21021 0.110342 -2.00505e-20)
(4.18106 0.151017 1.98224e-20)
(4.06012 0.149863 1.99004e-20)
(0.0845289 0.0156429 -8.04721e-21)
(0.50774 -0.699979 -8.12108e-21)
(1.01382 -1.5073 -5.67532e-21)
(1.4493 -2.0796 -3.16058e-21)
(1.77291 -2.42051 0)
(1.96315 -2.4956 6.76007e-21)
(2.04267 -2.35911 -3.9214e-21)
(2.05703 -2.11047 0)
(2.03046 -1.80448 -3.44418e-21)
(1.99939 -1.47275 0)
(1.96919 -1.15143 8.30842e-21)
(1.94334 -0.85143 0)
(1.91668 -0.579557 3.91631e-21)
(1.88507 -0.343421 7.98283e-21)
(1.84248 -0.145386 -8.08692e-21)
(1.78781 0.0178874 0)
(1.72094 0.162092 -8.16609e-21)
(1.64127 0.287918 0)
(1.53677 0.425024 0)
(1.40641 0.585064 -8.01809e-21)
(1.27499 0.731633 0)
(1.13943 0.86642 -7.5506e-22)
(1.0033 0.982376 0)
(0.85759 1.09684 0)
(0.691805 1.22888 8.1173e-22)
(0.517326 1.35985 -7.1895e-21)
(0.336385 1.48568 -7.87968e-21)
(0.153213 1.59473 -6.92295e-21)
(-0.0325952 1.67271 0)
(-0.22346 1.70846 -1.42634e-20)
(-0.429893 1.68382 0)
(-0.643909 1.59045 -7.33283e-21)
(-0.862624 1.4454 0)
(-1.07489 1.27613 0)
(-1.28715 1.11441 7.27972e-21)
(-1.5042 0.982902 0)
(-1.74173 0.91135 -7.40379e-21)
(-1.97673 0.897557 4.32117e-22)
(-2.21002 0.949871 1.49265e-20)
(-2.4339 1.03447 -1.5695e-20)
(-2.63456 1.10434 0)
(-2.8048 1.11128 0)
(-2.93508 1.08813 -8.67549e-21)
(-3.04308 1.0246 0)
(-3.12812 0.957807 -7.60608e-21)
(-3.20224 0.900317 7.74392e-21)
(-3.25219 0.823031 7.90648e-21)
(-3.28417 0.728504 0)
(-3.30265 0.628463 -8.26786e-21)
(-3.32238 0.524199 -8.41919e-21)
(-3.34287 0.425562 1.84282e-20)
(-3.38224 0.348052 -8.62928e-21)
(-3.43893 0.304286 -8.6808e-21)
(-3.51698 0.282652 0)
(-3.58741 0.264463 0)
(-3.65146 0.250532 8.7196e-21)
(-3.70981 0.235512 0)
(-3.78565 0.219735 0)
(-3.87267 0.199148 -1.73704e-20)
(-4.01002 0.238338 -1.73806e-20)
(-4.20141 0.332788 0)
(-4.39196 0.402458 0)
(-4.5505 0.425653 0)
(-4.69725 0.433707 0)
(-4.82729 0.430905 -1.87019e-20)
(-4.93646 0.422956 2.07007e-20)
(-5.02618 0.421091 1.95689e-20)
(-5.10504 0.437939 4.1489e-20)
(-5.18097 0.470119 0)
(-5.2527 0.501139 1.50809e-21)
(-5.32093 0.506536 0)
(-5.378 0.474699 -2.0702e-20)
(-5.42347 0.418364 1.36171e-21)
(-5.46001 0.363015 -2.09163e-20)
(-5.48322 0.340091 2.10771e-20)
(-5.49942 0.343646 1.25908e-21)
(-5.50562 0.354702 0)
(-5.52014 0.387112 2.26108e-20)
(-5.56077 0.433019 2.13824e-20)
(-5.63731 0.48137 4.34886e-20)
(-5.74287 0.526373 0)
(-5.87813 0.553579 -2.15695e-20)
(-6.03292 0.568872 0)
(-6.21789 0.598299 4.06408e-20)
(-6.41486 0.644104 -1.94613e-20)
(-6.6039 0.685551 1.91549e-20)
(-6.73697 0.678924 -1.89382e-20)
(-6.75835 0.569153 -4.00988e-20)
(-6.72033 0.405061 1.86302e-20)
(-6.67457 0.237096 -1.8494e-20)
(-6.60805 0.071726 0)