/*--------------------------------*- C++ -*----------------------------------*\
  =========                 |
  \\      /  F ield         | OpenFOAM: The Open Source CFD Toolbox
   \\    /   O peration     | Website:  https://openfoam.org
    \\  /    A nd           | Version:  9
     \\/     M anipulation  |
\*---------------------------------------------------------------------------*/
FoamFile
{
    format      ascii;
    class       surfaceScalarField;
    location    "0.034";
    object      phi_0;
}
// * * * * * * * * * * * * * * * * * * * * * * * * * * * * * * * * * * * * * //

dimensions      [0 3 -1 0 0 0 0];

internalField   nonuniform List<scalar> 
24170
(
3.09371e-06
1.07706e-07
2.98733e-06
1.06379e-07
2.89271e-06
9.46184e-08
2.81181e-06
8.09056e-08
2.72816e-06
8.36511e-08
2.62767e-06
1.00484e-07
2.52275e-06
1.04929e-07
2.43526e-06
8.74895e-08
2.37029e-06
6.49629e-08
2.31478e-06
5.55104e-08
2.25193e-06
6.2856e-08
2.17122e-06
8.07063e-08
2.07122e-06
1.00005e-07
1.95673e-06
1.14483e-07
1.83227e-06
1.24457e-07
1.69837e-06
1.33909e-07
1.54806e-06
1.50304e-07
1.80976e-07
1.36709e-06
3.47438e-06
3.67366e-08
3.45045e-06
1.3031e-07
3.44843e-06
9.66378e-08
3.47112e-06
5.82194e-08
3.49636e-06
5.84072e-08
3.51022e-06
8.66275e-08
3.50379e-06
1.11356e-07
3.47626e-06
1.15019e-07
3.43621e-06
1.05013e-07
3.39633e-06
9.53907e-08
3.36567e-06
9.35161e-08
3.34545e-06
1.00925e-07
3.32984e-06
1.15619e-07
3.30942e-06
1.34904e-07
3.27766e-06
1.56213e-07
3.22554e-06
1.86031e-07
3.15181e-06
2.24031e-07
2.7529e-07
3.0575e-06
3.68019e-06
1.31201e-07
3.67593e-06
1.34574e-07
3.67951e-06
9.30568e-08
3.68434e-06
5.3392e-08
3.68601e-06
5.67379e-08
3.6819e-06
9.07323e-08
3.67347e-06
1.19791e-07
3.66429e-06
1.24203e-07
3.65754e-06
1.11754e-07
3.65432e-06
9.86147e-08
3.65458e-06
9.3257e-08
3.65847e-06
9.70329e-08
3.66537e-06
1.0872e-07
3.67245e-06
1.27829e-07
3.67559e-06
1.53066e-07
3.67291e-06
1.88712e-07
3.66281e-06
2.34135e-07
2.90179e-07
3.64792e-06
3.92374e-06
1.37356e-08
3.94315e-06
1.15167e-07
3.94641e-06
8.97978e-08
3.96755e-06
3.22456e-08
3.99442e-06
2.98703e-08
4.01214e-06
7.30139e-08
4.01402e-06
1.17906e-07
4.00121e-06
1.37021e-07
3.98005e-06
1.32911e-07
3.95858e-06
1.20086e-07
3.94349e-06
1.08346e-07
3.93813e-06
1.0239e-07
3.94197e-06
1.04886e-07
3.95117e-06
1.1862e-07
3.96062e-06
1.43624e-07
3.96672e-06
1.8261e-07
3.96775e-06
2.33101e-07
2.92998e-07
3.96493e-06
4.21997e-06
-8.94248e-08
4.25677e-06
7.8369e-08
4.2778e-06
6.87688e-08
4.29245e-06
1.7597e-08
4.29122e-06
3.10991e-08
4.28325e-06
8.09799e-08
4.27782e-06
1.23336e-07
4.27537e-06
1.39477e-07
4.27265e-06
1.35625e-07
4.26807e-06
1.24673e-07
4.26196e-06
1.14456e-07
4.25545e-06
1.08899e-07
4.24934e-06
1.10992e-07
4.24377e-06
1.24191e-07
4.23845e-06
1.48943e-07
4.23383e-06
1.87235e-07
4.23163e-06
2.35296e-07
2.91495e-07
4.23314e-06
4.43008e-06
-8.31983e-08
4.43786e-06
7.05961e-08
4.47936e-06
2.72661e-08
4.51088e-06
-1.39236e-08
4.52232e-06
1.96609e-08
4.52039e-06
8.29067e-08
4.51702e-06
1.26705e-07
4.51522e-06
1.41276e-07
4.51135e-06
1.39497e-07
4.50218e-06
1.33848e-07
4.48837e-06
1.28259e-07
4.47376e-06
1.23509e-07
4.46251e-06
1.22246e-07
4.45689e-06
1.29813e-07
4.45739e-06
1.48443e-07
4.46388e-06
1.80745e-07
4.47643e-06
2.22742e-07
2.7278e-07
4.49515e-06
4.74733e-06
-6.99785e-09
4.76905e-06
4.88807e-08
4.7891e-06
7.21586e-09
4.7798e-06
-4.63157e-09
4.76904e-06
3.04275e-08
4.78277e-06
6.91756e-08
4.81713e-06
9.23431e-08
4.85565e-06
1.02754e-07
4.8842e-06
1.10952e-07
4.89791e-06
1.20132e-07
4.89922e-06
1.26947e-07
4.89242e-06
1.30311e-07
4.8808e-06
1.33867e-07
4.86663e-06
1.43982e-07
4.85203e-06
1.63041e-07
4.84072e-06
1.92054e-07
4.83606e-06
2.27406e-07
2.66543e-07
4.8423e-06
5.27684e-06
-5.71424e-08
5.29344e-06
3.228e-08
5.26922e-06
3.14384e-08
5.20949e-06
5.50961e-08
5.15094e-06
8.8974e-08
5.12432e-06
9.57941e-08
5.13002e-06
8.66504e-08
5.15409e-06
7.86752e-08
5.1836e-06
8.14469e-08
5.21091e-06
9.282e-08
5.23294e-06
1.04923e-07
5.24954e-06
1.13702e-07
5.26229e-06
1.21123e-07
5.27343e-06
1.32844e-07
5.28385e-06
1.52617e-07
5.29459e-06
1.81313e-07
5.30621e-06
2.15784e-07
2.52702e-07
5.32006e-06
5.57215e-06
1.09668e-07
5.51121e-06
9.32212e-08
5.52794e-06
1.47077e-08
5.55595e-06
2.7082e-08
5.58502e-06
5.99022e-08
5.6075e-06
7.33121e-08
5.62487e-06
6.92847e-08
5.64005e-06
6.34906e-08
5.65062e-06
7.08788e-08
5.65009e-06
9.33536e-08
5.63475e-06
1.20264e-07
5.60746e-06
1.40987e-07
5.57638e-06
1.52204e-07
5.55073e-06
1.58497e-07
5.53734e-06
1.66008e-07
5.53878e-06
1.79876e-07
5.55494e-06
1.99616e-07
2.24425e-07
5.58322e-06
5.94399e-06
1.14885e-07
5.93533e-06
1.01877e-07
5.92821e-06
2.18247e-08
5.94824e-06
7.05311e-09
5.97834e-06
2.98026e-08
5.99185e-06
5.98025e-08
5.98479e-06
7.63483e-08
5.96453e-06
8.37498e-08
5.94194e-06
9.34635e-08
5.92631e-06
1.08983e-07
5.92188e-06
1.24694e-07
5.92856e-06
1.34308e-07
5.94414e-06
1.36623e-07
5.96543e-06
1.3721e-07
5.98839e-06
1.4305e-07
6.01078e-06
1.57482e-07
6.03057e-06
1.7983e-07
2.05515e-07
6.04948e-06
6.44142e-06
1.75289e-07
6.46011e-06
8.31888e-08
6.43979e-06
4.21479e-08
6.39497e-06
5.18747e-08
6.36967e-06
5.51037e-08
6.37411e-06
5.53539e-08
6.39182e-06
5.86449e-08
6.40561e-06
6.99581e-08
6.41106e-06
8.80144e-08
6.41333e-06
1.0671e-07
6.4188e-06
1.19228e-07
6.429e-06
1.24107e-07
6.44133e-06
1.24289e-07
6.45288e-06
1.25661e-07
6.46256e-06
1.33373e-07
6.4708e-06
1.49237e-07
6.47848e-06
1.72154e-07
1.97686e-07
6.48631e-06
5.6659e-06
4.84089e-08
5.71817e-06
3.09206e-08
5.7746e-06
-1.42765e-08
5.83503e-06
-8.5545e-09
5.8693e-06
2.08252e-08
5.86159e-06
6.30718e-08
5.81969e-06
1.00545e-07
5.76602e-06
1.23628e-07
5.72387e-06
1.30165e-07
5.70615e-06
1.24422e-07
5.71198e-06
1.13404e-07
5.73192e-06
1.04164e-07
5.75487e-06
1.01337e-07
5.77292e-06
1.07614e-07
5.78333e-06
1.22966e-07
5.78745e-06
1.45118e-07
5.7893e-06
1.70303e-07
1.94197e-07
5.79279e-06
7.05557e-06
5.75584e-08
7.04995e-06
3.6541e-08
7.05091e-06
-1.52376e-08
7.0481e-06
-5.7452e-09
7.01671e-06
5.22131e-08
6.97656e-06
1.03223e-07
6.94108e-06
1.3603e-07
6.91898e-06
1.45722e-07
6.91458e-06
1.34568e-07
6.92776e-06
1.11236e-07
6.95493e-06
8.62421e-08
6.99049e-06
6.8598e-08
7.02811e-06
6.37166e-08
7.06271e-06
7.30149e-08
7.09094e-06
9.4739e-08
7.11221e-06
1.23844e-07
7.12771e-06
1.54802e-07
1.8202e-07
7.13989e-06
8.53217e-06
1.64362e-07
8.54764e-06
2.10693e-08
8.56465e-06
-3.22503e-08
8.59465e-06
-3.57418e-08
8.65976e-06
-1.29015e-08
8.73006e-06
3.29264e-08
8.77541e-06
9.06801e-08
8.79379e-06
1.27341e-07
8.79092e-06
1.37438e-07
8.77041e-06
1.31742e-07
8.73504e-06
1.21619e-07
8.69002e-06
1.13611e-07
8.64336e-06
1.10384e-07
8.60368e-06
1.12689e-07
8.5778e-06
1.20626e-07
8.56832e-06
1.33322e-07
8.57509e-06
1.48029e-07
1.62518e-07
8.59459e-06
1.04692e-05
4.21249e-08
1.05101e-05
-1.97996e-08
1.04895e-05
-1.16942e-08
1.0497e-05
-4.32501e-08
1.05481e-05
-6.3979e-08
1.06118e-05
-3.07516e-08
1.06603e-05
4.21373e-08
1.06792e-05
1.08424e-07
1.06685e-05
1.48175e-07
1.06395e-05
1.60716e-07
1.06066e-05
1.54555e-07
1.05789e-05
1.41266e-07
1.05588e-05
1.30453e-07
1.05444e-05
1.27114e-07
1.05332e-05
1.31807e-07
1.05249e-05
1.41705e-07
1.05196e-05
1.53254e-07
1.62895e-07
1.05193e-05
1.27262e-05
9.89034e-09
1.26505e-05
5.59462e-08
1.25598e-05
7.90285e-08
1.2467e-05
4.95038e-08
1.24174e-05
-1.44054e-08
1.24392e-05
-5.249e-08
1.25169e-05
-3.55553e-08
1.26075e-05
1.78323e-08
1.26778e-05
7.78656e-08
1.27186e-05
1.19918e-07
1.27402e-05
1.32959e-07
1.27583e-05
1.23078e-07
1.27831e-05
1.0566e-07
1.28157e-05
9.45905e-08
1.28514e-05
9.6066e-08
1.28843e-05
1.08776e-07
1.29106e-05
1.26958e-07
1.44019e-07
1.29295e-05
1.51399e-05
-1.31636e-07
1.53411e-05
-1.45239e-07
1.54288e-05
-8.62176e-09
1.54245e-05
5.37063e-08
1.53726e-05
3.75578e-08
1.53424e-05
-2.22541e-08
1.53761e-05
-6.93283e-08
1.54678e-05
-7.3834e-08
1.55866e-05
-4.09164e-08
1.56961e-05
1.03574e-08
1.57683e-05
6.07761e-08
1.57926e-05
9.87627e-08
1.57745e-05
1.23839e-07
1.57299e-05
1.39131e-07
1.56791e-05
1.46909e-07
1.56381e-05
1.49708e-07
1.56177e-05
1.47349e-07
1.41266e-07
1.56205e-05
1.86081e-05
-3.14574e-07
1.87663e-05
-3.03389e-07
1.88832e-05
-1.25562e-07
1.8914e-05
2.29002e-08
1.88537e-05
9.79375e-08
1.87463e-05
8.50653e-08
1.86513e-05
2.56998e-08
1.86147e-05
-3.72379e-08
1.86394e-05
-6.56398e-08
1.87043e-05
-5.45415e-08
1.87797e-05
-1.46278e-08
1.88469e-05
3.1583e-08
1.88942e-05
7.65376e-08
1.89234e-05
1.10011e-07
1.89422e-05
1.28037e-07
1.89593e-05
1.32588e-07
1.89794e-05
1.27259e-07
1.17418e-07
1.90033e-05
2.33787e-05
-5.28274e-08
2.3283e-05
-2.07733e-07
2.32636e-05
-1.06086e-07
2.32467e-05
3.97514e-08
2.32182e-05
1.26434e-07
2.31506e-05
1.5269e-07
2.30709e-05
1.05418e-07
2.30016e-05
3.20053e-08
2.29474e-05
-1.13712e-08
2.29041e-05
-1.13141e-08
2.28691e-05
2.04295e-08
2.28443e-05
5.63341e-08
2.28418e-05
7.90725e-08
2.28677e-05
8.40634e-08
2.29216e-05
7.41757e-08
2.29965e-05
5.77008e-08
2.30829e-05
4.09022e-08
3.12025e-08
2.31691e-05
1.68585e-05
3.79811e-09
1.6728e-05
-7.72723e-08
1.67343e-05
-1.12371e-07
1.68318e-05
-5.77551e-08
1.69389e-05
1.93489e-08
1.70476e-05
4.40105e-08
1.71415e-05
1.14996e-08
1.72088e-05
-3.53221e-08
1.72434e-05
-4.59756e-08
1.72443e-05
-1.21532e-08
1.7227e-05
3.76672e-08
1.71979e-05
8.54571e-08
1.71628e-05
1.14158e-07
1.71261e-05
1.20818e-07
1.70901e-05
1.10114e-07
1.70567e-05
9.10993e-08
1.70269e-05
7.07364e-08
5.45293e-08
1.70036e-05
1.50254e-05
2.44119e-07
1.48606e-05
8.75159e-08
1.48072e-05
-5.89768e-08
1.48314e-05
-8.19337e-08
1.48849e-05
-3.41795e-08
1.49164e-05
1.24986e-08
1.49013e-05
2.66124e-08
1.48554e-05
1.06311e-08
1.48141e-05
-4.67714e-09
1.48049e-05
-2.94677e-09
1.48223e-05
2.02219e-08
1.48599e-05
4.78307e-08
1.49056e-05
6.8454e-08
1.49493e-05
7.71849e-08
1.49831e-05
7.62563e-08
1.50038e-05
7.04393e-08
1.50101e-05
6.44551e-08
6.05321e-08
1.50041e-05
1.26368e-05
1.19217e-07
1.27956e-05
-7.12025e-08
1.28291e-05
-9.2537e-08
1.27893e-05
-4.20738e-08
1.27486e-05
6.51202e-09
1.2742e-05
1.90932e-08
1.27686e-05
8.21305e-12
1.28076e-05
-2.83984e-08
1.28455e-05
-4.25719e-08
1.28761e-05
-3.3568e-08
1.29014e-05
-5.06036e-09
1.2922e-05
2.72143e-08
1.29347e-05
5.57749e-08
1.29402e-05
7.17284e-08
1.29409e-05
7.55015e-08
1.29401e-05
7.12396e-08
1.29408e-05
6.37465e-08
5.75122e-08
1.29438e-05
1.13146e-05
4.55033e-08
1.12465e-05
-3.10497e-09
1.11871e-05
-3.31821e-08
1.11806e-05
-3.54962e-08
1.1208e-05
-2.0909e-08
1.12492e-05
-2.21653e-08
1.12865e-05
-3.72888e-08
1.13081e-05
-4.99358e-08
1.13152e-05
-4.97347e-08
1.13154e-05
-3.36979e-08
1.13163e-05
-5.94924e-09
1.13161e-05
2.73312e-08
1.13179e-05
5.39817e-08
1.13202e-05
6.9453e-08
1.13228e-05
7.28884e-08
1.13266e-05
6.75106e-08
1.13324e-05
5.79213e-08
4.9179e-08
1.13407e-05
9.88182e-06
-1.18821e-07
9.84193e-06
3.67786e-08
9.82416e-06
-1.54113e-08
9.81207e-06
-2.3403e-08
9.78747e-06
3.68682e-09
9.75044e-06
1.48735e-08
9.71811e-06
-4.96285e-09
9.70733e-06
-3.91521e-08
9.72152e-06
-6.39335e-08
9.74922e-06
-6.13934e-08
9.77571e-06
-3.24434e-08
9.79448e-06
8.56559e-09
9.80484e-06
4.36197e-08
9.81176e-06
6.25347e-08
9.81894e-06
6.57102e-08
9.82763e-06
5.88239e-08
9.83623e-06
4.93188e-08
4.30701e-08
9.84234e-06
8.33444e-06
-4.03331e-08
8.37708e-06
-5.86603e-09
8.36755e-06
-5.87875e-09
8.31545e-06
2.87014e-08
8.25833e-06
6.08059e-08
8.22859e-06
4.46135e-08
8.23e-06
-6.37931e-09
8.2497e-06
-5.88454e-08
8.27479e-06
-8.90225e-08
8.30335e-06
-8.99534e-08
8.33896e-06
-6.8061e-08
8.38358e-06
-3.60541e-08
8.43339e-06
-6.18602e-09
8.48277e-06
1.31523e-08
8.52503e-06
2.34522e-08
8.55661e-06
2.72442e-08
8.57701e-06
2.89148e-08
3.11154e-08
8.58897e-06
7.36054e-06
-1.34843e-07
7.35691e-06
-2.23456e-09
7.31783e-06
3.3202e-08
7.33915e-06
7.38088e-09
7.42057e-06
-2.06126e-08
7.50649e-06
-4.13067e-08
7.5534e-06
-5.3286e-08
7.54948e-06
-5.49263e-08
7.51089e-06
-5.04384e-08
7.46451e-06
-4.35705e-08
7.43223e-06
-3.57786e-08
7.42402e-06
-2.78412e-08
7.43887e-06
-2.10362e-08
7.46936e-06
-1.73461e-08
7.50864e-06
-1.58194e-08
7.5508e-06
-1.49217e-08
7.5924e-06
-1.2682e-08
-7.51386e-09
7.63103e-06
6.38482e-06
-9.85201e-08
6.35462e-06
2.7964e-08
6.35215e-06
3.56693e-08
6.36625e-06
-6.71851e-09
6.39314e-06
-4.75024e-08
6.42426e-06
-7.24266e-08
6.45189e-06
-8.0912e-08
6.47321e-06
-7.62502e-08
6.48595e-06
-6.31753e-08
6.4883e-06
-4.59235e-08
6.48118e-06
-2.86589e-08
6.4689e-06
-1.55545e-08
6.45724e-06
-9.37863e-09
6.45018e-06
-1.0285e-08
6.44991e-06
-1.55495e-08
6.4565e-06
-2.15116e-08
6.46908e-06
-2.52627e-08
-2.47587e-08
6.48632e-06
5.48403e-06
-9.48547e-08
5.5591e-06
-4.71035e-08
5.63874e-06
-4.39705e-08
5.69465e-06
-6.26358e-08
5.71707e-06
-6.9916e-08
5.71609e-06
-7.14461e-08
5.70285e-06
-6.7676e-08
5.68538e-06
-5.8777e-08
5.67031e-06
-4.81076e-08
5.66281e-06
-3.84241e-08
5.66536e-06
-3.12066e-08
5.67701e-06
-2.72099e-08
5.69432e-06
-2.66847e-08
5.71267e-06
-2.86396e-08
5.72818e-06
-3.10537e-08
5.73888e-06
-3.22111e-08
5.74409e-06
-3.04778e-08
-2.60965e-08
5.74543e-06
4.75618e-06
-1.23697e-07
4.84001e-06
-1.30937e-07
4.87978e-06
-8.374e-08
4.89222e-06
-7.50788e-08
4.90119e-06
-7.88881e-08
4.91e-06
-8.02479e-08
4.91843e-06
-7.61129e-08
4.92776e-06
-6.8107e-08
4.937e-06
-5.7344e-08
4.943e-06
-4.44274e-08
4.94371e-06
-3.19182e-08
4.94014e-06
-2.36333e-08
4.93545e-06
-2.19963e-08
4.9332e-06
-2.63909e-08
4.93566e-06
-3.35169e-08
4.94333e-06
-3.98771e-08
4.95549e-06
-4.26404e-08
-4.11825e-08
4.97058e-06
4.25642e-06
4.12548e-06
4.04174e-06
3.96666e-06
3.88778e-06
3.80753e-06
3.73142e-06
3.66331e-06
3.60596e-06
3.56154e-06
3.52962e-06
3.50599e-06
3.48399e-06
3.4576e-06
3.42408e-06
3.3842e-06
3.34156e-06
3.30038e-06
-5.72284e-07
5.72284e-07
-9.86501e-07
4.14217e-07
-1.25703e-06
2.70525e-07
-1.32244e-06
6.54103e-08
-1.08299e-06
-2.39441e-07
-5.75772e-07
-5.07223e-07
1.33503e-07
-7.09275e-07
9.44344e-07
-8.10841e-07
1.78952e-06
-8.45174e-07
2.6102e-06
-8.20686e-07
3.36552e-06
-7.55317e-07
4.03132e-06
-6.65802e-07
4.59511e-06
-5.63788e-07
5.05297e-06
-4.57862e-07
5.40507e-06
-3.52098e-07
5.65111e-06
-2.46038e-07
5.78827e-06
-1.37158e-07
5.81274e-06
-2.44749e-08
5.71591e-06
9.6831e-08
5.49083e-06
2.2508e-07
5.12475e-06
3.66081e-07
4.61548e-06
5.09268e-07
3.94682e-06
6.6866e-07
3.12963e-06
8.17191e-07
2.16262e-06
9.67009e-07
1.06301e-06
1.09961e-06
2.20228e-07
8.42785e-07
-4.01433e-07
6.21661e-07
-9.27179e-07
5.25745e-07
-1.30672e-06
3.79546e-07
-1.456e-06
1.49275e-07
-1.39002e-06
-6.59783e-08
-1.11537e-06
-2.74647e-07
-4.63906e-07
-6.51468e-07
5.04389e-07
-9.68295e-07
1.4436e-06
-9.39215e-07
1.98789e-06
-5.44287e-07
2.17893e-06
-1.91041e-07
2.01263e-06
1.66302e-07
1.80067e-06
2.11959e-07
1.74194e-06
5.87301e-08
1.65257e-06
8.9368e-08
1.16059e-06
4.91978e-07
-4.39394e-08
1.20453e-06
-1.51726e-06
1.47332e-06
-2.92914e-06
1.41188e-06
-4.23257e-06
1.30344e-06
-5.41565e-06
1.18308e-06
-6.47821e-06
1.06256e-06
-7.42787e-06
9.49655e-07
-8.27455e-06
8.46687e-07
-9.02979e-06
7.55232e-07
-9.70463e-06
6.7484e-07
-1.03091e-05
6.0448e-07
-1.08519e-05
5.42753e-07
-1.13402e-05
4.8833e-07
-1.17801e-05
4.39884e-07
-1.21761e-05
3.9604e-07
-1.25316e-05
3.55501e-07
-1.28487e-05
3.17102e-07
-1.31286e-05
2.79855e-07
-1.33715e-05
2.42925e-07
-1.35771e-05
2.05613e-07
-1.37445e-05
1.67395e-07
-1.38725e-05
1.28e-07
-1.39599e-05
8.74375e-08
-1.40058e-05
4.58495e-08
-1.40085e-05
2.7235e-09
-1.39732e-05
-3.53114e-08
-1.38994e-05
-7.37902e-08
-1.37879e-05
-1.11493e-07
-1.36404e-05
-1.47516e-07
-1.34588e-05
-1.81595e-07
-1.32456e-05
-2.13174e-07
-1.30035e-05
-2.42088e-07
-1.27354e-05
-2.68122e-07
-1.2444e-05
-2.91386e-07
-1.21319e-05
-3.12133e-07
-1.1801e-05
-3.30923e-07
-1.14525e-05
-3.48529e-07
-1.10865e-05
-3.65963e-07
-1.07022e-05
-3.84328e-07
-1.02975e-05
-4.04648e-07
-9.86989e-06
-4.27624e-07
-9.4165e-06
-4.53389e-07
-8.93512e-06
-4.81378e-07
-8.42475e-06
-5.10378e-07
-7.88596e-06
-5.3879e-07
-7.32097e-06
-5.64984e-07
-6.73336e-06
-5.87614e-07
-6.12749e-06
-6.05866e-07
-5.50785e-06
-6.19643e-07
-4.87842e-06
-6.29431e-07
-4.24253e-06
-6.35886e-07
-3.60309e-06
-6.39444e-07
-2.96289e-06
-6.40201e-07
-2.32492e-06
-6.37969e-07
-1.69362e-06
-6.31303e-07
-1.07475e-06
-6.18866e-07
-4.76143e-07
-5.98606e-07
9.48222e-08
-5.70965e-07
6.32423e-07
-5.37601e-07
1.12681e-06
-4.94388e-07
1.57301e-06
-4.46197e-07
1.96945e-06
-3.96443e-07
2.3176e-06
-3.4815e-07
2.62057e-06
-3.02971e-07
2.88236e-06
-2.61787e-07
3.10847e-06
-2.26112e-07
3.30659e-06
-1.98125e-07
3.4849e-06
-1.78308e-07
3.64836e-06
-1.63459e-07
3.79634e-06
-1.47979e-07
3.924e-06
-1.27655e-07
4.02632e-06
-1.02322e-07
4.1015e-06
-7.51822e-08
4.15161e-06
-5.01101e-08
4.18116e-06
-2.95486e-08
4.19537e-06
-1.42127e-08
4.19925e-06
-3.87951e-09
4.19743e-06
1.82555e-09
4.19415e-06
3.27747e-09
4.19285e-06
1.29722e-09
4.19631e-06
-3.45659e-09
4.20548e-06
-9.17648e-09
4.21976e-06
-1.4276e-08
4.23747e-06
-1.77144e-08
4.25618e-06
-1.87037e-08
4.2729e-06
-1.67241e-08
4.28535e-06
-1.24455e-08
4.29196e-06
-6.61486e-09
4.29131e-06
6.48181e-10
4.28263e-06
8.68776e-09
4.2657e-06
1.69281e-08
4.23992e-06
2.57783e-08
4.20427e-06
3.56555e-08
4.158e-06
4.62683e-08
4.10133e-06
5.66707e-08
4.03582e-06
6.55059e-08
3.96428e-06
7.1545e-08
3.89002e-06
7.42565e-08
3.81609e-06
7.39295e-08
3.74464e-06
7.14503e-08
3.67671e-06
6.79325e-08
3.61233e-06
6.43745e-08
3.55088e-06
6.14524e-08
3.49144e-06
5.94397e-08
3.43321e-06
5.82258e-08
3.37577e-06
5.74397e-08
3.31919e-06
5.65877e-08
3.26398e-06
5.52057e-08
3.211e-06
5.29819e-08
3.16113e-06
4.98665e-08
3.11508e-06
4.60501e-08
3.07322e-06
4.18658e-08
3.03555e-06
3.76658e-08
3.00182e-06
3.37339e-08
2.97156e-06
3.02522e-08
2.94426e-06
2.73056e-08
2.91936e-06
2.49029e-08
2.89635e-06
2.30114e-08
2.87478e-06
2.1567e-08
2.85426e-06
2.05215e-08
2.83446e-06
1.97975e-08
2.81505e-06
1.94075e-08
2.79579e-06
1.9257e-08
2.77628e-06
1.95105e-08
2.75635e-06
1.99339e-08
2.73531e-06
2.10399e-08
2.71323e-06
2.2076e-08
2.68863e-06
2.46058e-08
2.66224e-06
2.6386e-08
2.63032e-06
3.1923e-08
2.59572e-06
3.4603e-08
2.54845e-06
4.72667e-08
2.49808e-06
5.03691e-08
2.41646e-06
8.16197e-08
2.33347e-06
8.2993e-08
2.16496e-06
1.68506e-07
1.67654e-07
1.99731e-06
-4.54843e-09
5.76833e-07
-5.50758e-08
4.64744e-07
-2.9119e-08
2.44568e-07
2.67802e-07
-2.31511e-07
8.45022e-07
-8.16661e-07
1.60137e-06
-1.26357e-06
2.41901e-06
-1.52691e-06
3.22122e-06
-1.61305e-06
3.9653e-06
-1.58926e-06
4.62991e-06
-1.48529e-06
5.20531e-06
-1.33072e-06
5.68986e-06
-1.15036e-06
6.08749e-06
-9.61413e-07
6.40402e-06
-7.74393e-07
6.64531e-06
-5.93386e-07
6.81802e-06
-4.18755e-07
6.9287e-06
-2.47838e-07
6.9838e-06
-7.9573e-08
6.97322e-06
1.07412e-07
6.88954e-06
3.08759e-07
6.73478e-06
5.20847e-07
6.49894e-06
7.45102e-07
6.18456e-06
9.83042e-07
5.77684e-06
1.22491e-06
5.29945e-06
1.4444e-06
4.75999e-06
1.63907e-06
3.92757e-06
1.67521e-06
2.93574e-06
1.61349e-06
2.02556e-06
1.43593e-06
1.33743e-06
1.06767e-06
8.97025e-07
5.89681e-07
6.96224e-07
1.34822e-07
7.47347e-07
-3.2577e-07
1.18949e-06
-1.09361e-06
1.77793e-06
-1.55673e-06
2.32912e-06
-1.49041e-06
2.58691e-06
-8.0208e-07
2.40668e-06
-1.08085e-08
2.09799e-06
4.74986e-07
1.41958e-06
8.90368e-07
-1.02071e-07
1.58039e-06
-2.11883e-06
2.10612e-06
-3.91584e-06
2.28899e-06
-5.16397e-06
2.45266e-06
-6.13132e-06
2.44067e-06
-7.02297e-06
2.30353e-06
-7.82743e-06
2.10789e-06
-8.54301e-06
1.89866e-06
-9.17335e-06
1.6929e-06
-9.72896e-06
1.50526e-06
-1.02203e-05
1.33802e-06
-1.06576e-05
1.19249e-06
-1.10493e-05
1.06664e-06
-1.14028e-05
9.57905e-07
-1.17235e-05
8.63489e-07
-1.20158e-05
7.80643e-07
-1.22827e-05
7.06775e-07
-1.25261e-05
6.39418e-07
-1.27471e-05
5.76549e-07
-1.2946e-05
5.15989e-07
-1.31222e-05
4.56007e-07
-1.32745e-05
3.95222e-07
-1.34014e-05
3.3257e-07
-1.35014e-05
2.67377e-07
-1.35728e-05
1.99366e-07
-1.3614e-05
1.28628e-07
-1.36239e-05
5.57392e-08
-1.36018e-05
-1.93854e-08
-1.35427e-05
-9.43765e-08
-1.34472e-05
-1.6926e-07
-1.33161e-05
-2.42605e-07
-1.31505e-05
-3.13082e-07
-1.29527e-05
-3.79425e-07
-1.27252e-05
-4.40728e-07
-1.24709e-05
-4.96345e-07
-1.2193e-05
-5.4603e-07
-1.18944e-05
-5.89929e-07
-1.15779e-05
-6.28672e-07
-1.12454e-05
-6.63395e-07
-1.08982e-05
-6.95777e-07
-1.05362e-05
-7.27964e-07
-1.01581e-05
-7.62365e-07
-9.76155e-06
-8.01251e-07
-9.34297e-06
-8.46202e-07
-8.89881e-06
-8.97548e-07
-8.42613e-06
-9.54052e-07
-7.9235e-06
-1.01302e-06
-7.39143e-06
-1.07085e-06
-6.83251e-06
-1.12391e-06
-6.25085e-06
-1.16927e-06
-5.6514e-06
-1.20532e-06
-5.03901e-06
-1.23202e-06
-4.41779e-06
-1.25065e-06
-3.79084e-06
-1.26284e-06
-3.16034e-06
-1.26994e-06
-2.52828e-06
-1.27226e-06
-1.89744e-06
-1.2688e-06
-1.27076e-06
-1.25799e-06
-6.53222e-07
-1.2364e-06
-5.22613e-08
-1.19957e-06
5.28991e-07
-1.15222e-06
1.0733e-06
-1.08191e-06
1.57247e-06
-9.93559e-07
2.01891e-06
-8.92636e-07
2.40979e-06
-7.87323e-07
2.74601e-06
-6.84373e-07
3.03166e-06
-5.88623e-07
3.27437e-06
-5.0449e-07
3.48463e-06
-4.36372e-07
3.67422e-06
-3.87715e-07
3.8536e-06
-3.57691e-07
4.02788e-06
-3.37738e-07
4.19416e-06
-3.14261e-07
4.34383e-06
-2.77327e-07
4.46811e-06
-2.26604e-07
4.56222e-06
-1.69287e-07
4.6262e-06
-1.14093e-07
4.66385e-06
-6.71985e-08
4.68107e-06
-3.14349e-08
4.6846e-06
-7.40244e-09
4.68089e-06
5.53026e-09
4.67524e-06
8.92772e-09
4.67239e-06
4.15219e-09
4.67516e-06
-6.23517e-09
4.68574e-06
-1.97509e-08
4.70469e-06
-3.32228e-08
4.73098e-06
-4.40101e-08
4.76252e-06
-5.02398e-08
4.79694e-06
-5.11514e-08
4.83169e-06
-4.7188e-08
4.86456e-06
-3.94835e-08
4.89463e-06
-2.94255e-08
4.9217e-06
-1.83797e-08
4.94581e-06
-7.18689e-09
4.96774e-06
3.85493e-09
4.98844e-06
1.49529e-08
5.00839e-06
2.63157e-08
5.02679e-06
3.82711e-08
5.04172e-06
5.05772e-08
5.05076e-06
6.25051e-08
5.05186e-06
7.31563e-08
5.04407e-06
8.17137e-08
5.02782e-06
8.77084e-08
5.0046e-06
9.11451e-08
4.97654e-06
9.24381e-08
4.94577e-06
9.22227e-08
4.9141e-06
9.11108e-08
4.88281e-06
8.95121e-08
4.85269e-06
8.75663e-08
4.82412e-06
8.51564e-08
4.79728e-06
8.20451e-08
4.77226e-06
7.79998e-08
4.74918e-06
7.2945e-08
4.7282e-06
6.70321e-08
4.70945e-06
6.06125e-08
4.69299e-06
5.41328e-08
4.67869e-06
4.80278e-08
4.6663e-06
4.26447e-08
4.65539e-06
3.82113e-08
4.64548e-06
3.48162e-08
4.63604e-06
3.24478e-08
4.62663e-06
3.09843e-08
4.61684e-06
3.03093e-08
4.60642e-06
3.02142e-08
4.59516e-06
3.06692e-08
4.58299e-06
3.14312e-08
4.56974e-06
3.27614e-08
4.55544e-06
3.42253e-08
4.53978e-06
3.67083e-08
4.52288e-06
3.89692e-08
4.50393e-06
4.3562e-08
4.48335e-06
4.69587e-08
4.45912e-06
5.61587e-08
4.43252e-06
6.11999e-08
4.39877e-06
8.10176e-08
4.36086e-06
8.82759e-08
4.30844e-06
1.34039e-07
4.24578e-06
1.45658e-07
4.15441e-06
2.5987e-07
2.91241e-07
4.03083e-06
1.65426e-07
4.11406e-07
3.00586e-07
3.29585e-07
8.68172e-07
-3.23018e-07
1.75461e-06
-1.11795e-06
2.67534e-06
-1.7374e-06
3.50238e-06
-2.0906e-06
4.19309e-06
-2.21762e-06
4.75903e-06
-2.17899e-06
5.20105e-06
-2.03128e-06
5.53442e-06
-1.81866e-06
5.7793e-06
-1.5756e-06
5.95677e-06
-1.32782e-06
6.08829e-06
-1.09294e-06
6.19419e-06
-8.80288e-07
6.28489e-06
-6.84086e-07
6.36317e-06
-4.97032e-07
6.42642e-06
-3.11097e-07
6.46472e-06
-1.17866e-07
6.4865e-06
8.56253e-08
6.49086e-06
3.04398e-07
6.4699e-06
5.4181e-07
6.41926e-06
7.95744e-07
6.34256e-06
1.05975e-06
6.2335e-06
1.33397e-06
6.08361e-06
1.59429e-06
5.88758e-06
1.8351e-06
5.55541e-06
2.00738e-06
5.12098e-06
2.04792e-06
4.62039e-06
1.93652e-06
4.0238e-06
1.66426e-06
3.46173e-06
1.15175e-06
3.04848e-06
5.48068e-07
2.74288e-06
-2.01655e-08
2.89267e-06
-1.24341e-06
2.93704e-06
-1.6011e-06
2.28147e-06
-8.34829e-07
1.32165e-06
1.57736e-07
6.62423e-08
1.2446e-06
-1.46525e-06
2.00648e-06
-3.10709e-06
2.5322e-06
-4.44127e-06
2.91457e-06
-5.47084e-06
3.13569e-06
-6.35753e-06
3.17568e-06
-6.99816e-06
3.0933e-06
-7.47014e-06
2.91265e-06
-7.85868e-06
2.69206e-06
-8.20607e-06
2.45529e-06
-8.53399e-06
2.22659e-06
-8.85194e-06
2.01085e-06
-9.1635e-06
1.81682e-06
-9.46989e-06
1.64441e-06
-9.7709e-06
1.49351e-06
-1.00659e-05
1.36162e-06
-1.03539e-05
1.24595e-06
-1.0634e-05
1.14358e-06
-1.09049e-05
1.05148e-06
-1.11648e-05
9.66725e-07
-1.14119e-05
8.86505e-07
-1.16437e-05
8.0832e-07
-1.18576e-05
7.29885e-07
-1.20508e-05
6.49204e-07
-1.22202e-05
5.6466e-07
-1.23628e-05
4.75125e-07
-1.24755e-05
3.80073e-07
-1.25556e-05
2.79553e-07
-1.26011e-05
1.74082e-07
-1.26099e-05
6.45024e-08
-1.25819e-05
-4.73824e-08
-1.25164e-05
-1.59821e-07
-1.24145e-05
-2.71161e-07
-1.2278e-05
-3.79171e-07
-1.2109e-05
-4.82007e-07
-1.19105e-05
-5.77933e-07
-1.16856e-05
-6.65656e-07
-1.14377e-05
-7.44284e-07
-1.11702e-05
-8.13531e-07
-1.08864e-05
-8.73723e-07
-1.05891e-05
-9.2591e-07
-1.02806e-05
-9.71945e-07
-9.96177e-06
-1.01458e-06
-9.63234e-06
-1.0574e-06
-9.29017e-06
-1.10454e-06
-8.93139e-06
-1.16002e-06
-8.55086e-06
-1.22674e-06
-8.14307e-06
-1.30534e-06
-7.70347e-06
-1.39365e-06
-7.22965e-06
-1.48684e-06
-6.72206e-06
-1.57844e-06
-6.18413e-06
-1.66184e-06
-5.62154e-06
-1.73186e-06
-5.04112e-06
-1.78574e-06
-4.44944e-06
-1.8237e-06
-3.85179e-06
-1.8483e-06
-3.25197e-06
-1.86266e-06
-2.65233e-06
-1.86958e-06
-2.05419e-06
-1.87041e-06
-1.45864e-06
-1.86435e-06
-8.66556e-07
-1.85007e-06
-2.79412e-07
-1.82355e-06
3.03564e-07
-1.78254e-06
8.74699e-07
-1.72335e-06
1.42728e-06
-1.63449e-06
1.94468e-06
-1.51095e-06
2.411e-06
-1.35896e-06
2.82037e-06
-1.19669e-06
3.17151e-06
-1.03552e-06
3.45624e-06
-8.73345e-07
3.66643e-06
-7.14681e-07
3.81351e-06
-5.83452e-07
3.93005e-06
-5.04262e-07
4.05076e-06
-4.78397e-07
4.19453e-06
-4.81505e-07
4.35772e-06
-4.77457e-07
4.52073e-06
-4.40333e-07
4.66352e-06
-3.69397e-07
4.77658e-06
-2.82341e-07
4.85953e-06
-1.97041e-07
4.91437e-06
-1.22041e-07
4.94241e-06
-5.94781e-08
4.94578e-06
-1.07664e-08
4.93013e-06
2.11752e-08
4.90381e-06
3.52516e-08
4.87554e-06
3.24163e-08
4.8523e-06
1.7007e-08
4.83815e-06
-5.59689e-09
4.83394e-06
-2.90211e-08
4.83866e-06
-4.8725e-08
4.85026e-06
-6.18432e-08
4.86655e-06
-6.744e-08
4.88542e-06
-6.6061e-08
4.90508e-06
-5.91429e-08
4.92426e-06
-4.86035e-08
4.94226e-06
-3.63766e-08
4.95916e-06
-2.4085e-08
4.97579e-06
-1.27803e-08
4.99347e-06
-2.72715e-09
5.01349e-06
6.30058e-09
5.03616e-06
1.55974e-08
5.06047e-06
2.62697e-08
5.08386e-06
3.91164e-08
5.10284e-06
5.41746e-08
5.11416e-06
7.03959e-08
5.11586e-06
8.60039e-08
5.10789e-06
9.91171e-08
5.09192e-06
1.08407e-07
5.07065e-06
1.1349e-07
5.04692e-06
1.14843e-07
5.02303e-06
1.13403e-07
5.00047e-06
1.10122e-07
4.97996e-06
1.05673e-07
4.96162e-06
1.00384e-07
4.9453e-06
9.43185e-08
4.93079e-06
8.74488e-08
4.91801e-06
7.98186e-08
4.90697e-06
7.16558e-08
4.89776e-06
6.33374e-08
4.89046e-06
5.5328e-08
4.88502e-06
4.80893e-08
4.88121e-06
4.20195e-08
4.87866e-06
3.73621e-08
4.87689e-06
3.42223e-08
4.87537e-06
3.24996e-08
4.87362e-06
3.20568e-08
4.87127e-06
3.25695e-08
4.868e-06
3.39334e-08
4.86369e-06
3.57476e-08
4.85818e-06
3.82658e-08
4.8515e-06
4.09044e-08
4.84354e-06
4.46684e-08
4.8343e-06
4.82187e-08
4.82359e-06
5.42682e-08
4.81119e-06
5.93611e-08
4.797e-06
7.03465e-08
4.77996e-06
7.82371e-08
4.76091e-06
1.00073e-07
4.73585e-06
1.13337e-07
4.71005e-06
1.59833e-07
4.66969e-06
1.86023e-07
4.63864e-06
2.90912e-07
3.54363e-07
4.57552e-06
-1.28098e-08
4.24216e-07
6.79815e-07
-3.6304e-07
1.82921e-06
-1.47241e-06
2.90929e-06
-2.19803e-06
3.72389e-06
-2.552e-06
4.26568e-06
-2.63239e-06
4.58866e-06
-2.5406e-06
4.75721e-06
-2.34754e-06
4.8192e-06
-2.09327e-06
4.8111e-06
-1.81056e-06
4.76962e-06
-1.53412e-06
4.72979e-06
-1.28799e-06
4.71994e-06
-1.08309e-06
4.75251e-06
-9.12861e-07
4.82757e-06
-7.59142e-07
4.93322e-06
-6.0268e-07
5.05065e-06
-4.28535e-07
5.16022e-06
-2.27434e-07
5.23675e-06
9.09923e-09
5.30051e-06
2.40634e-07
5.34301e-06
4.99313e-07
5.36747e-06
7.71283e-07
5.38254e-06
1.04468e-06
5.39524e-06
1.32126e-06
5.39556e-06
1.59398e-06
5.37316e-06
1.8575e-06
5.30781e-06
2.07273e-06
5.12879e-06
2.22693e-06
4.84353e-06
2.22178e-06
4.39743e-06
2.11036e-06
3.90712e-06
1.64207e-06
3.35658e-06
1.09861e-06
3.03656e-06
2.99855e-07
2.38956e-06
-5.96403e-07
1.08989e-06
-3.01439e-07
-5.88685e-07
8.43748e-07
-2.20119e-06
1.77024e-06
-3.48364e-06
2.52705e-06
-4.56864e-06
3.09148e-06
-5.48663e-06
3.45019e-06
-6.16075e-06
3.5887e-06
-6.60085e-06
3.57579e-06
-6.90694e-06
3.48177e-06
-7.122e-06
3.30835e-06
-7.29889e-06
3.08954e-06
-7.46627e-06
2.85945e-06
-7.644e-06
2.63302e-06
-7.84055e-06
2.42314e-06
-8.05985e-06
2.23015e-06
-8.2998e-06
2.05678e-06
-8.55672e-06
1.90133e-06
-8.82569e-06
1.76247e-06
-9.10194e-06
1.63788e-06
-9.38101e-06
1.52502e-06
-9.65875e-06
1.42132e-06
-9.9313e-06
1.32403e-06
-1.0195e-05
1.23041e-06
-1.04463e-05
1.13781e-06
-1.06817e-05
1.04374e-06
-1.08978e-05
9.4596e-07
-1.10912e-05
8.4256e-07
-1.12586e-05
7.32087e-07
-1.13971e-05
6.13661e-07
-1.15041e-05
4.87096e-07
-1.15775e-05
3.52933e-07
-1.16157e-05
2.12226e-07
-1.16175e-05
6.63449e-08
-1.1583e-05
-8.1898e-08
-1.15124e-05
-2.30452e-07
-1.14072e-05
-3.76349e-07
-1.12695e-05
-5.16864e-07
-1.1102e-05
-6.49503e-07
-1.09079e-05
-7.72035e-07
-1.06908e-05
-8.82779e-07
-1.04544e-05
-9.80662e-07
-1.02025e-05
-1.06537e-06
-9.93884e-06
-1.13742e-06
-9.66646e-06
-1.19829e-06
-9.38779e-06
-1.25062e-06
-9.10394e-06
-1.29843e-06
-8.81416e-06
-1.34717e-06
-8.51528e-06
-1.40341e-06
-8.20148e-06
-1.47382e-06
-7.86477e-06
-1.56346e-06
-7.49638e-06
-1.67373e-06
-7.08891e-06
-1.80111e-06
-6.63832e-06
-1.93744e-06
-6.14512e-06
-2.07164e-06
-5.61456e-06
-2.19241e-06
-5.05521e-06
-2.29121e-06
-4.47712e-06
-2.36383e-06
-3.88968e-06
-2.41114e-06
-3.29996e-06
-2.43801e-06
-2.71283e-06
-2.4498e-06
-2.13182e-06
-2.4506e-06
-1.56019e-06
-2.44203e-06
-1.00142e-06
-2.42312e-06
-4.58856e-07
-2.39264e-06
6.62094e-08
-2.34861e-06
5.77917e-07
-2.29425e-06
1.0812e-06
-2.22664e-06
1.58745e-06
-2.14075e-06
2.09263e-06
-2.01613e-06
2.56832e-06
-1.83465e-06
2.99114e-06
-1.6195e-06
3.37314e-06
-1.41752e-06
3.72847e-06
-1.22868e-06
4.02321e-06
-1.00942e-06
4.20188e-06
-7.62123e-07
4.2638e-06
-5.66178e-07
4.27722e-06
-4.9182e-07
4.32031e-06
-5.246e-07
4.42832e-06
-5.85463e-07
4.58431e-06
-5.96321e-07
4.74494e-06
-5.30029e-07
4.87651e-06
-4.13909e-07
4.97219e-06
-2.92723e-07
5.04251e-06
-1.92363e-07
5.09691e-06
-1.13878e-07
5.13554e-06
-4.93938e-08
5.15319e-06
3.5178e-09
5.14835e-06
4.00954e-08
5.12662e-06
5.41521e-08
5.09783e-06
4.57896e-08
5.07085e-06
2.13836e-08
5.05065e-06
-8.81818e-09
5.03824e-06
-3.63136e-08
5.03174e-06
-5.53459e-08
5.02859e-06
-6.42885e-08
5.02679e-06
-6.42602e-08
5.02535e-06