/*--------------------------------*- C++ -*----------------------------------*\
  =========                 |
  \\      /  F ield         | OpenFOAM: The Open Source CFD Toolbox
   \\    /   O peration     | Website:  https://openfoam.org
    \\  /    A nd           | Version:  9
     \\/     M anipulation  |
\*---------------------------------------------------------------------------*/
FoamFile
{
    format      ascii;
    class       volScalarField;
    location    "0.034";
    object      pMean;
}
// * * * * * * * * * * * * * * * * * * * * * * * * * * * * * * * * * * * * * //

dimensions      [0 2 -2 0 0 0 0];

internalField   nonuniform List<scalar> 
12225
(
-1.53318
-2.08639
-2.37067
-2.46334
-2.48653
-2.49043
-2.48231
-2.45564
-2.40508
-2.32767
-2.22296
-2.0863
-1.91662
-1.70277
-1.44816
-1.13399
-0.7892
-0.405798
-1.77185
-2.11876
-2.37419
-2.47462
-2.49949
-2.50195
-2.49318
-2.4671
-2.4179
-2.34247
-2.24024
-2.10739
-1.94239
-1.73724
-1.49256
-1.2013
-0.887303
-0.611864
-1.80818
-2.12221
-2.36639
-2.4782
-2.50927
-2.51204
-2.50331
-2.47888
-2.43254
-2.36099
-2.26346
-2.13757
-1.98181
-1.79265
-1.57068
-1.32269
-1.0735
-0.888593
-1.97528
-2.17449
-2.37938
-2.49326
-2.52866
-2.53075
-2.5209
-2.4974
-2.4539
-2.38666
-2.2949
-2.17733
-2.03347
-1.86269
-1.66855
-1.46281
-1.27011
-1.13562
-2.07681
-2.20909
-2.38201
-2.49859
-2.54304
-2.54843
-2.53884
-2.51679
-2.47691
-2.41522
-2.33071
-2.22313
-2.09308
-1.94239
-1.77677
-1.60883
-1.45948
-1.35707
-2.15865
-2.26295
-2.40644
-2.51468
-2.56325
-2.5721
-2.56327
-2.54264
-2.5066
-2.45114
-2.37502
-2.27871
-2.16398
-2.03425
-1.89624
-1.76144
-1.64651
-1.57074
-2.24139
-2.32056
-2.43343
-2.53105
-2.5842
-2.59853
-2.59194
-2.57313
-2.54114
-2.49257
-2.42595
-2.34217
-2.24388
-2.1354
-2.02361
-1.91837
-1.83277
-1.78055
-2.28609
-2.3649
-2.46383
-2.55248
-2.60737
-2.62694
-2.62415
-2.60878
-2.58213
-2.54156
-2.48566
-2.41554
-2.33443
-2.24701
-2.1598
-2.0811
-2.02109
-1.98954
-2.43291
-2.44705
-2.50826
-2.58507
-2.63914
-2.6623
-2.6636
-2.65207
-2.63067
-2.59817
-2.55347
-2.49771
-2.43418
-2.36755
-2.30374
-2.24954
-2.21263
-2.19957
-2.45078
-2.48406
-2.54709
-2.61584
-2.6689
-2.69758
-2.70515
-2.69962
-2.68532
-2.66227
-2.6298
-2.58909
-2.54334
-2.49693
-2.45509
-2.42332
-2.40729
-2.41139
-2.51585
-2.55797
-2.60906
-2.66462
-2.71261
-2.74273
-2.75523
-2.75598
-2.74913
-2.73561
-2.7154
-2.68977
-2.66165
-2.63495
-2.61404
-2.60329
-2.6068
-2.62776
-2.6087
-2.61205
-2.6489
-2.70294
-2.75153
-2.78477
-2.80317
-2.81135
-2.81293
-2.80929
-2.80106
-2.78967
-2.77766
-2.76844
-2.76564
-2.7729
-2.79328
-2.82931
-2.6585
-2.66608
-2.70534
-2.75649
-2.80258
-2.83648
-2.85946
-2.87467
-2.88445
-2.89035
-2.89371
-2.89612
-2.89973
-2.90729
-2.92179
-2.94611
-2.98265
-3.03324
-2.70463
-2.73803
-2.77541
-2.81743
-2.85792
-2.89439
-2.92576
-2.95112
-2.97171
-2.98982
-3.00727
-3.02565
-3.04679
-3.07285
-3.10621
-3.14909
-3.20327
-3.26988
-2.75804
-2.79956
-2.84744
-2.89144
-2.93316
-2.97451
-3.01344
-3.04842
-3.08061
-3.11232
-3.14544
-3.18127
-3.22125
-3.26704
-3.32045
-3.38307
-3.45632
-3.54119
-2.90714
-2.92319
-2.94599
-2.9806
-3.02452
-3.07161
-3.11804
-3.16367
-3.2098
-3.25773
-3.30851
-3.36333
-3.4234
-3.48989
-3.5641
-3.6471
-3.73975
-3.84247
-3.04812
-3.01824
-3.02723
-3.06987
-3.12701
-3.1858
-3.24355
-3.30265
-3.36471
-3.43025
-3.4999
-3.57454
-3.6552
-3.74279
-3.83811
-3.94168
-4.05417
-4.17585
-3.14028
-3.14957
-3.17478
-3.21447
-3.26527
-3.32644
-3.39525
-3.46851
-3.54557
-3.6275
-3.71531
-3.80944
-3.9102
-4.01791
-4.13296
-4.25562
-4.38618
-4.52467
-3.03652
-3.11882
-3.20377
-3.28283
-3.36015
-3.44164
-3.52975
-3.62355
-3.72212
-3.82563
-3.93453
-4.04914
-4.16967
-4.29634
-4.42926
-4.56837
-4.71363
-4.86478
-3.41157
-3.36759
-3.36588
-3.41474
-3.49424
-3.5845
-3.67954
-3.77982
-3.88615
-3.99894
-4.11828
-4.24395
-4.37562
-4.513
-4.656
-4.80439
-4.9581
-5.11687
-3.22148
-3.27703
-3.35107
-3.4396
-3.53655
-3.63717
-3.74254
-3.85425
-3.972
-4.09541
-4.22464
-4.35946
-4.49947
-4.64431
-4.79371
-4.94739
-5.10494
-5.26595
-3.28675
-3.33072
-3.40102
-3.48764
-3.58531
-3.69154
-3.80369
-3.9207
-4.04339
-4.17222
-4.3068
-4.44665
-4.59127
-4.74029
-4.89344
-5.05027
-5.21039
-5.37337
-3.23406
-3.30815
-3.40154
-3.50304
-3.61138
-3.724
-3.84035
-3.96228
-4.09037
-4.22432
-4.36352
-4.5074
-4.65544
-4.80736
-4.9628
-5.12132
-5.28252
-5.44593
-3.19357
-3.26887
-3.3786
-3.50097
-3.62225
-3.74011
-3.8593
-3.98439
-4.11659
-4.25483
-4.39772
-4.54449
-4.69496
-4.849
-5.00635
-5.16645
-5.32865
-5.49232
-3.2473
-3.28162
-3.38304
-3.51428
-3.64175
-3.76077
-3.88033
-4.00701
-4.14162
-4.28219
-4.42698
-4.57531
-4.72711
-4.88225
-5.0404
-5.20102
-5.36348
-5.52724
-3.09779
-3.21899
-3.36779
-3.51031
-3.63824
-3.75837
-3.88099
-4.0114
-4.14927
-4.29239
-4.43929
-4.58945
-4.7428
-4.89933
-5.05861
-5.22003
-5.38299
-5.54684
-3.02466
-3.1931
-3.37151
-3.52174
-3.64697
-3.76497
-3.88884
-4.02162
-4.16114
-4.30504
-4.45236
-4.60297
-4.75689
-4.91395
-5.07367
-5.23541
-5.39849
-5.56224
-3.02811
-3.16217
-3.35311
-3.51569
-3.64197
-3.75964
-3.88557
-4.02091
-4.16207
-4.30693
-4.45505
-4.60646
-4.7611
-4.91873
-5.07888
-5.24087
-5.40409
-5.56813
-2.94435
-3.14889
-3.36255
-3.52002
-3.64154
-3.75974
-3.88766
-4.02429
-4.16603
-4.31121
-4.45968
-4.61147
-4.76658
-4.92465
-5.08527
-5.24748
-5.41074
-5.57412
-2.75089
-3.12312
-3.36841
-3.51707
-3.63544
-3.75552
-3.88515
-4.02241
-4.16433
-4.30969
-4.45842
-4.61052
-4.76594
-4.92428
-5.08512
-5.24733
-5.4104
-5.5728
-10.5072
-10.6265
-10.7396
-10.7662
-10.6879
-10.5571
-10.4792
-10.5625
-10.8646
-11.3662
-12.0176
-12.7351
-13.4267
-14.0137
-14.4397
-14.6733
-14.7084
-14.5625
-14.2771
-13.9062
-13.5144
-13.1627
-12.9152
-12.7889
-12.8205
-12.9477
-13.1505
-13.3449
-13.5011
-13.605
-13.6718
-13.7988
-14.1053
-14.7148
-15.7213
-17.1247
-18.8201
-20.6914
-22.6512
-24.6237
-26.5624
-28.4222
-30.1717
-31.8279
-33.4273
-34.9471
-36.3238
-37.5067
-38.4607
-39.1674
-39.6214
-39.8277
-39.7982
-39.5491
-39.0988
-38.4664
-37.6704
-36.7282
-35.6557
-34.4669
-33.1742
-31.788
-30.317
-28.7687
-27.1493
-25.4648
-23.7214
-21.9258
-20.0859
-18.2109
-16.3112
-14.3981
-12.4831
-10.5773
-8.69092
-6.83246
-5.00826
-3.22189
-1.47394
0.237683
1.91719
3.56995
5.20139
6.81585
8.41554
9.99938
11.5625
13.0959
14.5868
16.0192
17.3747
18.6341
19.7789
20.7923
21.6609
22.3762
22.9354
23.3408
23.6
23.726
23.7351
23.648
23.4849
23.2658
23.0088
22.7291
22.4391
22.1481
21.8628
21.5878
21.3257
21.0781
20.8452
20.627
20.4233
20.2338
20.0578
19.8948
19.7439
19.6044
19.4754
19.3561
19.2459
19.144
19.0498
18.9625
18.8816
18.8065
18.7367
18.6718
18.6114
18.5551
18.5025
18.4534
18.4075
18.3645
18.3242
18.2863
18.2509
18.2176
18.1866
18.1575
18.1303
18.1049
18.0811
18.0587
18.0376
18.0177
17.9989
17.9811
17.9645
17.9489
17.9344
17.9208
17.9082
17.8963
17.8853
17.8749
17.8651
17.856
17.8476
17.8398
17.8328
17.8267
17.8217
17.818
17.8159
17.816
17.8186
17.8249
17.8353
17.852
17.8759
17.9113
17.9595
18.0302
18.126
18.2683
18.4653
18.7497
-11.1514
-11.2773
-11.387
-11.4312
-11.3503
-11.2631
-11.2777
-11.4809
-11.8915
-12.4786
-13.177
-13.9034
-14.5785
-15.1378
-15.536
-15.747
-15.7646
-15.5993
-15.2759
-14.8382
-14.3508
-13.8884
-13.5173
-13.2886
-13.2166
-13.327
-13.4762
-13.7087
-14.0289
-14.444
-14.8756
-15.3559
-15.9595
-16.7701
-17.8933
-19.3279
-20.9773
-22.7431
-24.5682
-26.4239
-28.3114
-30.2047
-31.9756
-33.6094
-35.1483
-36.5743
-37.8391
-38.9015
-39.7334
-40.3208
-40.6612
-40.7617
-40.6359
-40.3008
-39.775
-39.0768
-38.2235
-37.2314
-36.1153
-34.8884
-33.5623
-32.147
-30.6508
-29.0806
-27.4419
-25.7401
-23.9807
-22.1698
-20.3152
-18.4259
-16.5123
-14.5857
-12.6576
-10.7396
-8.84246
-6.97519
-5.14459
-3.35456
-1.60573
0.104227
1.78003
3.42769
5.05342
6.66236
8.25741
9.83808
11.3998
12.9338
14.4272
15.8637
17.2247
18.4908
19.6431
20.6646
21.5416
22.2653
22.8328
23.2462
23.513
23.6454
23.6607
23.5796
23.4219
23.2079
22.9557
22.6808
22.3953
22.1087
21.8276
21.5566
21.2983
21.054
20.824
20.6084
20.4069
20.2191
20.0447
19.883
19.7332
19.5946
19.4665
19.348
19.2385
19.1372
19.0435
18.9567
18.8762
18.8015
18.732
18.6674
18.6072
18.5511
18.4988
18.4501
18.4045
18.3618
18.3219
18.2844
18.2493
18.2163
18.1855
18.1567
18.1297
18.1045
18.0808
18.0585
18.0374
18.0176
17.9989
17.9812
17.9647
17.9491
17.9346
17.921
17.9083
17.8964
17.8853
17.8749
17.8651
17.856
17.8474
17.8396
17.8325
17.8263
17.8211
17.8173
17.815
17.8148
17.8171
17.8228
17.8328
17.8485
17.8715
17.9046
17.9513
18.016
18.1078
18.2298
18.4025
18.5778
-11.0244
-11.0706
-11.2203
-11.4383
-11.705
-12.0458
-12.5005
-13.0961
-13.8267
-14.6468
-15.4862
-16.2739
-16.95
-17.468
-17.7932
-17.9073
-17.8101
-17.5192
-17.0697
-16.5066
-15.877
-15.2317
-14.6314
-14.1495
-13.7986
-13.6834
-13.752
-13.9913
-14.4538
-15.0976
-15.881
-16.8053
-17.9044
-19.1919
-20.6731
-22.3039
-24.0167
-25.788
-27.6006
-29.4214
-31.2295
-33.0214
-34.7517
-36.3662
-37.835
-39.1312
-40.2301
-41.1091
-41.7522
-42.1548
-42.3212
-42.262
-41.992
-41.5282
-40.8882
-40.0895
-39.1485
-38.08
-36.8973
-35.6126
-34.2364
-32.7779
-31.2449
-29.6433
-27.9778
-26.2522
-24.4706
-22.6379
-20.7608
-18.8479
-16.9096
-14.9577
-13.0046
-11.063
-9.14441
-7.25925
-5.41531
-3.61718
-1.86572
-0.158142
1.51117
3.14953
4.76465
6.36322
7.94952
9.52414
11.0832
12.6182
14.1159
15.5598
16.9308
18.2089
19.3745
20.4099
21.3013
22.0396
22.6218
23.0495
23.3294
23.4746
23.5024
23.4328
23.2863
23.0831
22.8415
22.5768
22.3013
22.024
21.7518
21.4893
21.2389
21.0018
20.7782
20.5681
20.3713
20.1876
20.0167
19.8581
19.711
19.5747
19.4486
19.3319
19.2239
19.1241
19.0316
18.9459
18.8664
18.7926
18.724
18.6601
18.6006
18.5452
18.4936
18.4453
18.4003
18.3581
18.3186
18.2817
18.247
18.2145
18.1841
18.1556
18.1289
18.1039
18.0805
18.0584
18.0375
18.0179
17.9994
17.9819
17.9655
17.95
17.9355
17.922
17.9092
17.8973
17.8861
17.8755
17.8656
17.8562
17.8475
17.8395
17.8322
17.8258
17.8204
17.8162
17.8136
17.8128
17.8146
17.8194
17.8283
17.8423
17.8633
17.8929
17.9353
17.9914
18.0708
18.1666
18.2956
18.3952
-11.1022
-11.1546
-11.4088
-11.9002
-12.5878
-13.4059
-14.3091
-15.2611
-16.2249
-17.165
-18.0425
-18.8159
-19.444
-19.8889
-20.1204
-20.1266
-19.9157
-19.5138
-18.9588
-18.2928
-17.5592
-16.8092
-16.091
-15.4777
-15.05
-14.8169
-14.8243
-15.0581
-15.5316
-16.2534
-17.2174
-18.4136
-19.8287
-21.4498
-23.2311
-25.1102
-27.0104
-28.912
-30.8225
-32.726
-34.5901
-36.3824
-38.069
-39.6143
-40.9856
-42.154
-43.0969
-43.7982
-44.2536
-44.4667
-44.4471
-44.2098
-43.7726
-43.1546
-42.3752
-41.4519
-40.4005
-39.2344
-37.9656
-36.6046
-35.1612
-33.6445
-32.0619
-30.4187
-28.7181
-26.9622
-25.1531
-23.2934
-21.3879
-19.4443
-17.473
-15.4865
-13.4986
-11.5232
-9.57362
-7.66186
-5.79737
-3.98596
-2.22889
-0.522949
1.13869
2.76514
4.36616
5.95064
7.52477
9.09083
10.6459
12.1818
13.6849
15.1379
16.5211
17.8135
18.9947
20.0465
20.9548
21.7108
22.3109
22.7561
23.0538
23.2166
23.2619
23.2096
23.0802
22.8939
22.6689
22.4205
22.1606
21.8983
21.6399
21.39
21.1514
20.9252
20.7113
20.5096
20.3201
20.1427
19.9772
19.8232
19.6801
19.5474
19.4243
19.3102
19.2045
19.1065
19.0158
18.9315
18.8534
18.7808
18.7132
18.6503
18.5918
18.5372
18.4863
18.4388
18.3944
18.3529
18.314
18.2776
18.2435
18.2115
18.1816
18.1535
18.1272
18.1025
18.0793
18.0574
18.0368
18.0174
17.9991
17.9818
17.9655
17.9501
17.9357
17.9221
17.9093
17.8973
17.886
17.8754
17.8654
17.8559
17.8471
17.8389
17.8315
17.8248
17.8191
17.8146
17.8115
17.8101
17.8111
17.8149
17.8224
17.8345
17.853
17.8786
17.9154
17.9627
18.0274
18.1003
18.1891
18.2381
-11.1625
-11.4295
-12.0443
-12.9302
-13.9821
-15.1129
-16.2632
-17.3867
-18.4533
-19.4459
-20.3441
-21.1126
-21.7079
-22.0867
-22.2232
-22.1171
-21.7932
-21.291
-20.6567
-19.9371
-19.1754
-18.416
-17.7245
-17.1617
-16.78
-16.6201
-16.7016
-17.0294
-17.6024
-18.4228
-19.4955
-20.8161
-22.3763
-24.1535
-26.0787
-28.0863
-30.1392
-32.2027
-34.2497
-36.2543
-38.1847
-40.0054
-41.6825
-43.1835
-44.4769
-45.5334
-46.3322
-46.8674
-47.1411
-47.1617
-46.9458
-46.5152
-45.8934
-45.1038
-44.1677
-43.1033
-41.9258
-40.6471
-39.2772
-37.8251
-36.2998
-34.7103
-33.0645
-31.3681
-29.6239
-27.8323
-25.9924
-24.1032
-22.1667
-20.1886
-18.1791
-16.1516
-14.1214
-12.1042
-10.1151
-8.1684
-6.27597
-4.44547
-2.67902
-0.972982
0.680988
2.29415
3.87887
5.4467
7.00642
8.56237
10.1129
11.65
13.1595
14.6226
16.0185
17.3255
18.5226
19.5915
20.5183
21.2935
21.913
22.3774
22.6946
22.8774
22.9433
22.9124
22.8054
22.6419
22.4394
22.2129
21.9743
21.7321
21.4924
21.2596
21.0365
20.8241
20.6226
20.432
20.252
20.0828
19.9244
19.7766
19.6389
19.5107
19.3915
19.2808
19.1781
19.0827
18.9941
18.9119
18.8356
18.7646
18.6985
18.637
18.5797
18.5263
18.4765
18.43
18.3865
18.3458
18.3078
18.2722
18.2388
18.2074
18.178
18.1505
18.1246
18.1003
18.0775
18.056
18.0357
18.0165
17.9984
17.9813
17.9652
17.95
17.9356
17.9221
17.9094
17.8974
17.886
17.8753
17.8652
17.8557
17.8467
17.8383
17.8306
17.8237
17.8176
17.8127
17.809
17.807
17.807
17.8096
17.8155
17.8254
17.8408
17.8623
17.8926
17.9306
17.9803
18.0324
18.0868
18.1007
-11.7967
-12.3181
-13.2628
-14.3793
-15.5918
-16.8485
-18.0944
-19.2902
-20.4255
-21.5008
-22.4862
-23.3272
-23.9633
-24.3409
-24.4321
-24.2465
-23.8223
-23.2169
-22.4971
-21.7252
-20.9546
-20.2402
-19.6385
-19.1973
-18.9595
-18.951
-19.1788
-19.6397
-20.3304
-21.2545
-22.4231
-23.8351
-25.4818
-27.3244
-29.3201
-31.414
-33.5636
-35.7328
-37.8868
-39.9901
-42.0048
-43.8897
-45.6012
-47.0973
-48.3419
-49.3102
-49.9887
-50.3705
-50.4616
-50.2796
-49.8499
-49.2026
-48.3697
-47.3815
-46.2637
-45.0366
-43.715
-42.3093
-40.8262
-39.2709
-37.6492
-35.9691
-34.2402
-32.471
-30.6659
-28.8247
-26.9443
-25.0205
-23.0509
-21.0378
-18.9892
-16.9189
-14.8434
-12.78
-10.7459
-8.75808
-6.83112
-4.97551
-3.19514
-1.48636
0.160721
1.75998
3.32702
4.87661
6.42069
7.96575
9.51165
11.0505
12.567
14.0408
15.4492
16.7699
17.9822
19.0682
20.014
20.8084
21.447
21.9309
22.2677
22.471
22.5588
22.5517
22.4707
22.3348
22.1606
21.9618
21.7497
21.5326
21.3162
21.1045
20.9001
20.7043
20.5174
20.3395
20.1707
20.0113
19.8615
19.7211
19.5897
19.4671
19.3527
19.2462
19.147
19.0547
18.969
18.8891
18.8149
18.7458
18.6815
18.6217
18.5658
18.5138
18.4652
18.4199
18.3774
18.3378
18.3006
18.2658
18.2331
18.2025
18.1737
18.1467
18.1214
18.0975
18.0751
18.054
18.034
18.0152
17.9973
17.9805
17.9645
17.9494
17.9352
17.9218
17.9091
17.8971
17.8857
17.875
17.8647
17.8551
17.846
17.8374
17.8295
17.8222
17.8158
17.8103
17.8061
17.8032
17.8022
17.8034
17.8076
17.815
17.8271
17.844
17.8675
17.8962
17.9314
17.9648
17.9913
17.9801
-13.3631
-13.926
-14.8056
-15.8562
-17.023
-18.2487
-19.4765
-20.6808
-21.8741
-23.0484
-24.1406
-25.068
-25.7548
-26.1438
-26.2176
-25.9996
-25.5435
-24.9215
-24.209
-23.4724
-22.7698
-22.1566
-21.687
-21.4094
-21.3529
-21.5255
-21.9223
-22.5341
-23.3577
-24.398
-25.6629
-27.1546
-28.8554
-30.7408
-32.7832
-34.9433
-37.1828
-39.4646
-41.7496
-43.9943
-46.1488
-48.1571
-49.9609
-51.5068
-52.7519
-53.6683
-54.2404
-54.4671
-54.3612
-53.949
-53.2667
-52.3572
-51.2652
-50.032
-48.6911
-47.2669
-45.7742
-44.2212
-42.6104
-40.9411
-39.2128
-37.4296
-35.6011
-33.739
-31.851
-29.939
-27.9995
-26.0262
-24.0133
-21.9591
-19.8685
-17.7532
-15.6305
-13.5195
-11.4392
-9.40831
-7.44384
-5.55914
-3.76065
-2.04561
-0.403261
1.18308
2.73238
4.2631
5.79049
7.32376
8.86452
10.4051
11.929
13.4135
14.834
16.1676
17.3942
18.4963
19.4583
20.27
20.9259
21.4273
21.7828
22.0071
22.119
22.1392
22.0882
21.9846
21.8436
21.6776
21.4965
21.3084
21.1185
20.9307
20.7474
20.57
20.3991
20.235
20.0783
19.9296
19.7891
19.6568
19.5326
19.4161
19.3071
19.2052
19.1101
19.0214
18.9388
18.8618
18.7901
18.7233
18.6611
18.6031
18.549
18.4986
18.4515
18.4075
18.3663
18.3278
18.2917
18.2579
18.2262
18.1964
18.1684
18.142
18.1173
18.094
18.0721
18.0514
18.0318
18.0133
17.9958
17.9792
17.9635
17.9486
17.9345
17.9212
17.9085
17.8966
17.8852
17.8744
17.8641
17.8543
17.8451
17.8363
17.8281
17.8206
17.8137
17.8077
17.8028
17.7991
17.7969
17.7967
17.7988
17.8037
17.8122
17.8243
17.8408
17.8604
17.8823
17.8991
17.9034
17.8731
-14.757
-15.1958
-15.8775
-16.771
-17.8096
-18.9179
-20.0474
-21.1892
-22.3721
-23.564
-24.6726
-25.6079
-26.2994
-26.7036
-26.8153
-26.6641
-26.3076
-25.816
-25.2589
-24.6969
-24.182
-23.7653
-23.5005
-23.431
-23.5792
-23.947
-24.5228
-25.2946
-26.2588
-27.4209
-28.7851
-30.3564
-32.1237
-34.0821
-36.2141
-38.4943
-40.8912
-43.3659
-45.8715
-48.3514
-50.7385
-52.9591
-54.939
-56.6073
-57.9044
-58.7908
-59.2516
-59.2957
-58.946
-58.2427
-57.2398
-55.9985
-54.5803
-53.0409
-51.4244
-49.7595
-48.061
-46.3338
-44.5764
-42.7827
-40.9444
-39.0577
-37.1277
-35.1661
-33.1834
-31.1839
-29.1655
-27.1224
-25.0481
-22.9387
-20.7957
-18.6283
-16.4541
-14.2932
-12.166
-10.0923
-8.09076
-6.17733
-4.36043
-2.63786
-0.998162
0.577299
2.11039
3.62307
5.13397
6.65552
8.19149
9.73389
11.265
12.7595
14.1918
15.5378
16.7765
17.891
18.866
19.6906
20.3597
20.8761
21.2505
21.4987
21.6394
21.6923
21.6769
21.6103
21.5066
21.3768
21.2297
21.0724
20.9103
20.747
20.5851
20.4264
20.2718
20.122
19.9779
19.8403
19.7096
19.5859
19.4691
19.3592
19.256
19.1592
19.0686
18.9839
18.9049
18.8311
18.7623
18.6982
18.6383
18.5825
18.5304
18.4818
18.4364
18.3939
18.3542
18.3169
18.282
18.2492
18.2184
18.1895
18.1623
18.1367
18.1127
18.09
18.0686
18.0484
18.0292
18.0111
17.9939
17.9776
17.9621
17.9474
17.9335
17.9203
17.9078
17.8958
17.8845
17.8736
17.8633
17.8534
17.844
17.8351
17.8266
17.8187
17.8114
17.8048
17.7991
17.7945
17.7911
17.7893
17.7894
17.7916
17.7963
17.8036
17.8134
17.8241
17.8339
17.8362
17.8229
17.7775
-15.3828
-15.7039
-16.2312
-16.9575
-17.8177
-18.746
-19.7076
-20.7083
-21.7839
-22.8906
-23.9262
-24.8159
-25.5016
-25.9497
-26.16
-26.1611
-26.0045
-25.7494
-25.4516
-25.1588
-24.9165
-24.7732
-24.7772
-24.9639
-25.3502
-25.9336
-26.7016
-27.644
-28.7589
-30.052
-31.5325
-33.21
-35.0939
-37.1927
-39.4999
-41.9993
-44.661
-47.4414
-50.2818
-53.1082
-55.8336
-58.3621
-60.5934
-62.4329
-63.8061
-64.6709
-65.014
-64.8464
-64.2057
-63.1526
-61.7638
-60.1232
-58.3134
-56.4067
-54.4595
-52.5071
-50.5649
-48.6336
-46.7066
-44.7725
-42.8161
-40.825
-38.7955
-36.7348
-34.6531
-32.5561
-30.4442
-28.314
-26.1595
-23.9761
-21.7644
-19.533
-17.2995
-15.0847
-12.9089
-10.7925
-8.75625
-6.81755
-4.98539
-3.25628
-1.61751
-0.0492755
1.47212
2.9712
4.46959
5.98294
7.51558
9.05948
10.5963
12.0999
13.5422
14.8977
16.1451
17.2668
18.2486
19.0806
19.7601
20.2924
20.6898
20.9678
21.1434
21.2343
21.2581
21.2306
21.1651
21.0718
20.9586
20.832
20.6972
20.5579
20.4169
20.2763
20.1376
20.002
19.8707
19.7446
19.624
19.5091
19.4001
19.297
19.1998
19.1084
19.0226
18.9423
18.8671
18.7968
18.7312
18.67
18.6129
18.5595
18.5096
18.463
18.4193
18.3785
18.3403
18.3045
18.2708
18.2392
18.2095
18.1816
18.1553
18.1306
18.1073
18.0853
18.0645
18.0448
18.0262
18.0084
17.9916
17.9756
17.9605
17.946
17.9323
17.9192
17.9067
17.8949
17.8835
17.8727
17.8623
17.8523
17.8428
17.8336
17.8249
17.8166
17.8089
17.8017
17.7952
17.7896
17.785
17.7815
17.7794
17.7788
17.7798
17.7822
17.7855
17.788
17.787
17.7767
17.7493
17.6917
-15.251
-15.4796
-15.8708
-16.4308
-17.1018
-17.8346
-18.5939
-19.3948
-20.2724
-21.1959
-22.0884
-22.8976
-23.5793
-24.1024
-24.4624
-24.6768
-24.7798
-24.8131
-24.819
-24.8394
-24.9175
-25.0964
-25.4126
-25.891
-26.5411
-27.3577
-28.3304
-29.4536
-30.7302
-32.1727
-33.8005
-35.6363
-37.7075
-40.0319
-42.6109
-45.4295
-48.4542
-51.6321
-54.8893
-58.1322
-61.251
-64.1259
-66.6348
-68.667
-70.1385
-70.9999
-71.2368
-70.8653
-69.9347
-68.5248
-66.7358
-64.6761
-62.4494
-60.1463
-57.8372
-55.5673
-53.3534
-51.1924
-49.0716
-46.9746
-44.8807
-42.7695
-40.6289
-38.4594
-36.2687
-34.0628
-31.8427
-29.6058
-27.3485
-25.0692
-22.7706
-20.4626
-18.1615
-15.8872
-13.6602
-11.5023
-9.43509
-7.47602
-5.63156
-3.89587
-2.25445
-0.686648
0.831576
2.32558
3.81858
5.32784
6.8584
8.40316
9.9438
11.4534
12.9026
14.2642
15.5151
16.6379
17.6205
18.4568
19.148
19.7013
20.1275
20.44
20.6533
20.7834
20.8461
20.8565
20.8272
20.7682
20.687
20.5895
20.4807
20.3645
20.2438
20.121
19.998
19.8765
19.758
19.6433
19.533
19.4273
19.3263
19.2303
19.1393
19.0536
18.9729
18.8971
18.8261
18.7596
18.6975
18.6394
18.5852
18.5344
18.4869
18.4425
18.4009
18.3619
18.3253
18.291
18.2588
18.2285
18.1999
18.1731
18.1478
18.1239
18.1014
18.0801
18.06
18.0409
18.0227
18.0055
17.9891
17.9734
17.9585
17.9443
17.9308
17.9179
17.9055
17.8937
17.8825
17.8716
17.8612
17.8511
17.8414
17.832
17.823
17.8144
17.8061
17.7984
17.7911
17.7845
17.7785
17.7734
17.7691
17.7657
17.763
17.7607
17.7578
17.7526
17.742
17.7209
17.6819
17.6146
-14.5203
-14.6855
-14.9825
-15.4111
-15.922
-16.4737
-17.0404
-17.6322
-18.283
-18.9873
-19.7071
-20.4093
-21.0648
-21.6483
-22.1497
-22.5724
-22.9323
-23.2537
-23.5673
-23.9089
-24.3168
-24.8252
-25.46
-26.2353
-27.1522
-28.2037
-29.3841
-30.6959
-32.151
-33.7712
-35.5881
-37.6384
-39.9584
-42.5699
-45.4752
-48.6547
-52.0668
-55.6477
-59.3113
-62.9509
-66.4422
-69.6488
-72.4319
-74.6644
-76.2503
-77.1353
-77.3067
-76.7852
-75.6283
-73.9288
-71.805
-69.3841
-66.7878
-64.1229
-61.4743
-58.8984
-56.4159
-54.0245
-51.7089
-49.4455
-47.2061
-44.9611
-42.6923
-40.3958
-38.076
-35.7366
-33.3795
-31.0067
-28.6202
-26.2236
-23.8212
-21.4219
-19.0417
-16.7005
-14.4202
-12.2228
-10.1284
-8.15075
-6.29243
-4.54565
-2.89484
-1.31948
0.203343
1.69859
3.18986
4.69507
6.22213
7.76637
9.31135
10.8281
12.2846
13.6508
14.9019
16.0217
17.0026
17.8446
18.5518
19.1298
19.5861
19.9313
20.1791
20.3448
20.4434
20.4889
20.4933
20.4661
20.4145
20.3444
20.2604
20.1662
20.0652
19.9599
19.8526
19.7452
19.6394
19.5362
19.4362
19.3399
19.2472
19.1587
19.0744
18.9946
18.9193
18.8484
18.7818
18.7194
18.661
18.6063
18.5551
18.5072
18.4623
18.4202
18.3808
18.3437
18.309
18.2763
18.2456
18.2167
18.1894
18.1637
18.1395
18.1166
18.0949
18.0744
18.055
18.0365
18.0189
18.0022
17.9862
17.9709
17.9563
17.9424
17.9291
17.9164
17.9042
17.8925
17.8812
17.8704
17.8599
17.8498
17.8399
17.8303
17.821
17.812
17.8033
17.7949
17.7868
17.7791
17.7719
17.765
17.7585
17.7523
17.7461
17.7392
17.7306
17.7183
17.6992
17.6688
17.6202
17.5451
-13.4036
-13.5327
-13.7687
-14.1117
-14.5185
-14.9532
-15.3911
-15.8321
-16.3048
-16.8202
-17.3746
-17.9545
-18.5466
-19.1367
-19.7153
-20.2798
-20.8362
-21.3976
-21.9835
-22.6186
-23.3285
-24.1358
-25.0568
-26.0972
-27.2552
-28.5267
-29.9122
-31.4207
-33.0704
-34.8919
-36.9247
-39.2113
-41.7869
-44.6711
-47.8622
-51.337
-55.052
-58.9409
-62.9142
-66.8591
-70.641
-74.1099
-77.1137
-79.5166
-81.2183
-82.164
-82.3414
-81.7694
-80.507
-78.6544
-76.3413
-73.7045
-70.8771
-67.9758
-65.0931
-62.2937
-59.6052
-57.0309
-54.5542
-52.1446
-49.7647
-47.3802
-44.9703
-42.5281
-40.0557
-37.557
-35.0384
-32.5089
-29.9759
-27.4449
-24.9204
-22.413
-19.9408
-17.5255
-15.1891
-12.9516
-10.8284
-8.82772
-6.94887
-5.18377
-3.51743
-1.93119
-0.403376
1.09077
2.57578
4.07387
5.59791
7.14668
8.70275
10.2334
11.7009
13.0713
14.3205
15.4363
16.4177
17.2685
17.9925
18.5925
19.0734
19.4451
19.7215
19.9179
20.0485
20.126
20.1616
20.1641
20.1404
20.0959
20.0353
19.9624
19.8805
19.7924
19.7006
19.6072
19.5141
19.4224
19.333
19.2462
19.1623
19.0816
19.0044
18.931
18.8615
18.7959
18.7342
18.6762
18.6218
18.5707
18.5229
18.478
18.4359
18.3964
18.3593
18.3244
18.2915
18.2607
18.2315
18.2041
18.1782
18.1537
18.1305
18.1087
18.0879
18.0683
18.0496
18.0318
18.0148
17.9986
17.983
17.9682
17.9539
17.9403
17.9272
17.9147
17.9027
17.8911
17.8799
17.869
17.8585
17.8483
17.8383
17.8286
17.819
17.8096
17.8003
17.7913
17.7824
17.7737
17.7651
17.7565
17.7479
17.739
17.7293
17.7181
17.7041
17.6854
17.6589
17.6203
17.5639
17.4823
-12.0509
-12.1628
-12.3737
-12.6792
-13.0416
-13.4273
-13.8108
-14.1853
-14.5682
-14.9793
-15.4288
-15.9186
-16.4475
-17.0129
-17.6118
-18.2437
-18.9129
-19.6288
-20.4039
-21.2519
-22.1868
-23.2208
-24.3625
-25.6131
-26.9711
-28.4363
-30.0123
-31.7099
-33.5483
-35.5584
-37.7785
-40.2473
-42.9955
-46.043
-49.3903
-53.019
-56.8904
-60.9396
-65.0749
-69.1786
-73.1114
-76.7204
-79.854
-82.3794
-84.1981
-85.2518
-85.5196
-85.019
-83.8067
-81.9822
-79.6768
-77.0299
-74.1739
-71.2245
-68.2752
-65.3949
-62.6177
-59.9508
-57.3771
-54.861
-52.3619
-49.8462
-47.295
-44.7029
-42.0725
-39.4115
-36.7326
-34.048
-31.3659
-28.6925
-26.036
-23.4126
-20.8438
-18.3516
-15.9558
-13.6729
-11.5143
-9.48435
-7.58063
-5.79489
-4.11391
-2.52067
-0.993827
0.492704
1.96862
3.46291
4.99395
6.56095
8.14006
9.69015
11.1674
12.5375
13.7815
14.8939
15.8778
16.7366
17.4721
18.086
18.5841
18.9767
19.2778
19.5016
19.6612
19.768
19.832
19.8616
19.8634
19.8428
19.8043
19.7517
19.6884
19.6173
19.541
19.4618
19.3816
19.3017
19.2231
19.1462
19.0715
18.9991
18.9295
18.863
18.7997
18.7398
18.6833
18.63
18.58
18.5329
18.4886
18.447
18.4079
18.3711
18.3364
18.3038
18.273
18.244
18.2166
18.1907
18.1662
18.143
18.121
18.1002
18.0804
18.0617
18.0438
18.0267
18.0103
17.9946
17.9796
17.9652
17.9513
17.938
17.9252
17.9129
17.901
17.8895
17.8784
17.8676
17.8571
17.8468
17.8366
17.8267
17.8168
17.807
17.7973
17.7876
17.7779
17.7682
17.7583
17.7481
17.7374
17.7258
17.7129
17.6976
17.6787
17.6542
17.6211
17.5756
17.5124
17.4256
-10.5371
-10.6478
-10.8593
-11.1644
-11.53
-11.9225
-12.3137
-12.6911
-13.061
-13.4426
-13.8522
-14.302
-14.799
-15.3482
-15.9532
-16.6174
-17.3457
-18.1455
-19.0247
-19.9916
-21.0558
-22.2261
-23.5073
-24.8993
-26.401
-28.0124
-29.7351
-31.5748
-33.5454
-35.6716
-37.9859
-40.5232
-43.3147
-46.3826
-49.7336
-53.3547
-57.2109
-61.2407
-65.356
-69.4442
-73.3747
-77.0033
-80.1856
-82.7947
-84.7318
-85.9372
-86.3843
-86.0773
-85.0686
-83.4557
-81.3614
-78.9161
-76.2409
-73.4413
-70.6047
-67.7981
-65.0601
-62.4022
-59.8092
-57.2452
-54.6707
-52.0571
-49.3918
-46.6748
-43.9133
-41.1194
-38.3073
-35.4885
-32.6716
-29.8661
-27.088
-24.3589
-21.702
-19.1381
-16.685
-14.357
-12.1635
-10.1073
-8.18439
-6.38531
-4.69701
-3.10258
-1.57934
-0.0969944
1.38091
2.88899
4.44605
6.04473
7.65069
9.21496
10.6926
12.0547
13.29
14.398
15.3816
16.2424
16.9812
17.6015
18.1111
18.5214
18.845
19.0942
19.2803
19.4137
19.5036
19.5578
19.583
19.5846
19.567
19.5339
19.4888
19.4346
19.3739
19.3092
19.2423
19.1747
19.1073
19.0408
18.9755
18.9119
18.8504
18.7912
18.7346
18.6808
18.6298
18.5815
18.536
18.4931
18.4526
18.4145
18.3785
18.3446
18.3125
18.2822
18.2536
18.2265
18.2009
18.1766
18.1536
18.1318
18.111
18.0913
18.0725
18.0546
18.0376
18.0212
18.0055
17.9904
17.9759
17.962
17.9485
17.9356
17.923
17.911
17.8993
17.8879
17.8769
17.8661
17.8555
17.8452
17.8349
17.8247
17.8146
17.8045
17.7943
17.784
17.7735
17.7627
17.7515
17.7397
17.727
17.713
17.6969
17.6779
17.6545
17.6247
17.5859
17.5344
17.4656
17.3744
-8.90744
-9.02251
-9.24652
-9.57281
-9.96986
-10.4019
-10.8394
-11.2642
-11.6753
-12.0856
-12.511
-12.9667
-13.4658
-14.0185
-14.6326
-15.3139
-16.0671
-16.8968
-17.8096
-18.8151
-19.9247
-21.1477
-22.4879
-23.944
-25.5135
-27.1938
-28.9818
-30.8771
-32.8883
-35.0341
-37.34
-39.8377
-42.5569
-45.5196
-48.7351
-52.1965
-55.8745
-59.7168
-63.6466
-67.5659
-71.3591
-74.8979
-78.0517
-80.7016
-82.7516
-84.1371
-84.8251
-84.8142
-84.1436
-82.8966
-81.1829
-79.1157
-76.7977
-74.3184
-71.7529
-69.1609
-66.5825
-64.0331
-61.5013
-58.9559
-56.365
-53.7097
-50.9858
-48.1986
-45.3598
-42.4831
-39.5813
-36.6643
-33.7455
-30.8414
-27.9755
-25.1699
-22.4484
-19.8321
-17.3391
-14.9822
-12.7686
-10.6993
-8.76925
-6.96724
-5.27748
-3.68028
-2.14987
-0.652162
0.852367
2.39685
3.99282
5.62254
7.24407
8.80781
10.2746
11.6233
12.8475
13.9473
14.9239
15.7782
16.5132
17.135
17.6532
18.0786
18.422
18.6939
18.9039
19.0615
19.175
19.2521
19.2992
19.3217
19.324
19.3098
19.2826
19.2453
19.2005
19.1505
19.0973
19.0423
18.9865
18.9308
18.8755
18.8211
18.7679
18.7164
18.6668
18.6193
18.5741
18.5311
18.4903
18.4517
18.4152
18.3806
18.3479
18.317
18.2876
18.2598
18.2334
18.2084
18.1846
18.162
18.1405
18.12
18.1005
18.0819
18.0642
18.0472
18.031
18.0154
18.0004
17.986
17.972
17.9586
17.9455
17.9329
17.9207
17.9089
17.8974
17.8862
17.8752
17.8645
17.8539
17.8435
17.8331
17.8228
17.8124
17.8019
17.7912
17.7803
17.7691
17.7573
17.7449
17.7316
17.717
17.7005
17.6816
17.6591
17.6316
17.5972
17.5533
17.4966
17.4231
17.3282
-7.17072
-7.28806
-7.5169
-7.86567
-8.30092
-8.7841
-9.2838
-9.77735
-10.257
-10.7275
-11.2013
-11.691
-12.2102
-12.7708
-13.3817
-14.0506
-14.7845
-15.5901
-16.4773
-17.4594
-18.5489
-19.7537
-21.0757
-22.5145
-24.0684
-25.7363
-27.5146
-29.3991
-31.3924
-33.5027
-35.7447
-38.1404
-40.7135
-43.4841
-46.4645
-49.6544
-53.0356
-56.5694
-60.1956
-63.834
-67.3876
-70.7468
-73.7981
-76.4348
-78.5678
-80.1329
-81.0944
-81.4422
-81.2007
-80.4309
-79.2176
-77.6516
-75.816
-73.7801
-71.6019
-69.3307
-67.0038
-64.6402
-62.2367
-59.7752
-57.2369
-54.6124
-51.9023
-49.1156
-46.2659
-43.3669
-40.4302
-37.4681
-34.499
-31.5465
-28.6376
-25.7971
-23.0492
-20.4158
-17.9137
-15.5537
-13.3402
-11.2728
-9.346
-7.54654
-5.85393
-4.2429
-2.68417
-1.14389
0.41258
2.00846
3.64314
5.29075
6.90966
8.45767
9.90452
11.2348
12.4428
13.5274
14.4891
15.3306
16.0579
16.679
17.2036
17.6412
18.0012
18.2925
18.524
18.7038
18.8397
18.9387
19.0071
19.0501
19.0722
19.0769
19.0678
19.0477
19.0192
18.9845
18.9455
18.9036
18.86
18.8155
18.7706
18.7258
18.6815
18.638
18.5958
18.555
18.5158
18.4782
18.4425
18.4084
18.3759
18.3451
18.3158
18.288
18.2614
18.2362
18.2121
18.1892
18.1674
18.1466
18.1267
18.1076
18.0894
18.072
18.0554
18.0394
18.024
18.0092
17.995
17.9812
17.9678
17.9549
17.9423
17.9301
17.9182
17.9066
17.8954
17.8843
17.8735
17.8628
17.8523
17.8418
17.8313
17.8208
17.8102
17.7993
17.7882
17.7767
17.7647
17.7521
17.7385
17.7237
17.7073
17.6887
17.667
17.6414
17.6102
17.5717
17.5233
17.4622
17.3846
17.2867
-5.45405
-5.56289
-5.79614
-6.16091
-6.62905
-7.16151
-7.72421
-8.28962
-8.84104
-9.37394
-9.89244
-10.4042
-10.9194
-11.4482
-12.0028
-12.5962
-13.2427
-13.9569
-14.7559
-15.6563
-16.6729
-17.8127
-19.0778
-20.4675
-21.9812
-23.6155
-25.3635
-27.2173
-29.1733
-31.2314
-33.3965
-35.6807
-38.1012
-40.6744
-43.4122
-46.3174
-49.3798
-52.5729
-55.8526
-59.1573
-62.4104
-65.5239
-68.4047
-70.9637
-73.1244
-74.826
-76.0302
-76.7163
-76.892
-76.5946
-75.8837
-74.8275
-73.489