/*--------------------------------*- C++ -*----------------------------------*\
  =========                 |
  \\      /  F ield         | OpenFOAM: The Open Source CFD Toolbox
   \\    /   O peration     | Website:  https://openfoam.org
    \\  /    A nd           | Version:  9
     \\/     M anipulation  |
\*---------------------------------------------------------------------------*/
FoamFile
{
    format      ascii;
    class       volVectorField;
    location    "0.034";
    object      U;
}
// * * * * * * * * * * * * * * * * * * * * * * * * * * * * * * * * * * * * * //

dimensions      [0 1 -1 0 0 0 0];

internalField   nonuniform List<vector> 
12225
(
(9.82572 0.0415133 0)
(9.51653 0.0404658 0)
(9.22159 0.0608988 0)
(8.94581 0.0644322 0)
(8.71676 0.0672067 0)
(8.43266 0.0730809 0)
(8.09046 0.061663 0)
(7.77692 0.0308945 0)
(7.54322 0.00448655 0)
(7.36649 0.00224004 0)
(7.19295 0.0227461 0)
(6.97655 0.0525758 0)
(6.69228 0.0766928 0)
(6.35655 0.0877544 0)
(5.97527 0.0917674 0)
(5.5892 0.0872587 0)
(5.13201 0.103979 0)
(4.74717 0.119605 0)
(10.1912 0.0179607 0)
(10.1106 0.0772727 0)
(10.0711 0.0609777 0)
(10.1191 0.0433826 0)
(10.2074 0.0473794 0)
(10.2747 0.0725002 0)
(10.2927 0.101699 0)
(10.2497 0.116847 0)
(10.1489 0.114456 0)
(10.0226 0.104332 0)
(9.91118 0.0982111 0)
(9.83564 0.103611 0)
(9.78501 0.122354 0)
(9.74174 0.149098 0)
(9.66741 0.176747 0)
(9.56902 0.213441 0)
(9.38907 0.251165 0)
(9.18617 0.304382 0)
(10.0511 0.0492876 0)
(10.0209 0.103305 0)
(10.0436 0.0757549 0)
(10.0612 0.0419542 0)
(10.0826 0.0397937 0)
(10.081 0.0613937 0)
(10.0615 0.0795426 0)
(10.0384 0.0791813 0)
(10.0174 0.0689302 0)
(10.0024 0.0645753 0)
(9.99677 0.0716279 0)
(10.0016 0.087782 0)
(10.0161 0.110005 0)
(10.0387 0.13758 0)
(10.0582 0.169535 0)
(10.0677 0.21123 0)
(10.0624 0.26776 0)
(10.0372 0.34616 0)
(9.92566 0.0384598 0)
(10.033 0.0383692 0)
(10.0316 0.0395723 0)
(10.0744 0.0242542 0)
(10.1554 0.0325995 0)
(10.2206 0.0680041 0)
(10.2489 0.105489 0)
(10.2386 0.124456 0)
(10.1953 0.124174 0)
(10.1366 0.115346 0)
(10.0848 0.107014 0)
(10.0563 0.104476 0)
(10.0535 0.110932 0)
(10.0732 0.129415 0)
(10.1027 0.160023 0)
(10.1312 0.208885 0)
(10.1495 0.27621 0)
(10.1537 0.362461 0)
(9.95379 -0.0545855 0)
(10.0756 0.0792776 0)
(10.132 0.0711339 0)
(10.1998 0.0172779 0)
(10.2277 0.00525004 0)
(10.21 0.0352488 0)
(10.1898 0.0751846 0)
(10.1841 0.100609 0)
(10.1819 0.107712 0)
(10.1741 0.105104 0)
(10.1613 0.100672 0)
(10.1467 0.099512 0)
(10.1324 0.105522 0)
(10.1201 0.123538 0)
(10.1104 0.155821 0)
(10.1035 0.206738 0)
(10.098 0.275007 0)
(10.1013 0.360941 0)
(9.82776 -0.131539 0)
(9.79467 0.00383816 0)
(9.8806 0.0155018 0)
(9.98361 -0.00328304 0)
(10.0437 0.0262288 0)
(10.0493 0.0791073 0)
(10.0383 0.118389 0)
(10.0352 0.131778 0)
(10.0338 0.128305 0)
(10.0219 0.120598 0)
(9.99666 0.114593 0)
(9.964 0.112486 0)
(9.9339 0.117016 0)
(9.9149 0.132893 0)
(9.91035 0.162592 0)
(9.92113 0.210363 0)
(9.94338 0.274193 0)
(9.98079 0.353941 0)
(9.84007 -0.0150296 0)
(9.81747 0.0367517 0)
(9.90489 -2.80195e-05 0)
(9.92062 -0.0314382 0)
(9.88851 -0.0124556 0)
(9.88408 0.0315569 0)
(9.9374 0.0695488 0)
(10.0224 0.0927013 0)
(10.0995 0.1076 0)
(10.1466 0.119774 0)
(10.1632 0.129015 0)
(10.1585 0.134393 0)
(10.1405 0.138397 0)
(10.115 0.14853 0)
(10.0864 0.169462 0)
(10.06 0.206437 0)
(10.0434 0.256778 0)
(10.0417 0.319944 0)
(10.0958 -0.0112896 0)
(10.2147 -1.71451e-05 0)
(10.2386 -0.00844292 0)
(10.1493 0.00668367 0)
(10.0148 0.0409092 0)
(9.92309 0.0646013 0)
(9.9046 0.0743189 0)
(9.93856 0.0779842 0)
(9.99451 0.0841522 0)
(10.0527 0.0946588 0)
(10.1029 0.105487 0)
(10.1421 0.114995 0)
(10.1711 0.126508 0)
(10.1948 0.145962 0)
(10.2175 0.176625 0)
(10.2397 0.219011 0)
(10.2631 0.27126 0)
(10.287 0.330155 0)
(10.0426 -0.0584199 0)
(9.96355 0.013046 0)
(9.94503 0.0210047 0)
(9.98769 0.0559796 0)
(10.0488 0.0791483 0)
(10.0981 0.0724044 0)
(10.1353 0.0533356 0)
(10.1656 0.0406781 0)
(10.1917 0.0448557 0)
(10.2063 0.0638746 0)
(10.1968 0.087874 0)
(10.1596 0.108085 0)
(10.1046 0.123078 0)
(10.0504 0.138204 0)
(10.0117 0.159758 0)
(10.0007 0.192793 0)
(10.0136 0.23551 0)
(10.056 0.287987 0)
(9.97845 0.058253 0)
(9.99591 0.042701 0)
(9.96485 -0.0333326 0)
(9.98521 -0.0518303 0)
(10.0393 -0.019617 0)
(10.084 0.0248602 0)
(10.0948 0.052491 0)
(10.0705 0.0644035 0)
(10.0296 0.0765074 0)
(9.99427 0.0995169 0)
(9.97624 0.130506 0)
(9.97837 0.159593 0)
(9.99674 0.179192 0)
(10.0293 0.190612 0)
(10.068 0.199849 0)
(10.1085 0.214184 0)
(10.1456 0.235903 0)
(10.177 0.265527 0)
(10.0741 0.0546148 0)
(10.1379 0.0721922 0)
(10.1514 0.0410188 0)
(10.0859 0.0438266 0)
(10.0162 0.051859 0)
(10.0008 0.0550435 0)
(10.0283 0.0557011 0)
(10.0587 0.0604363 0)
(10.073 0.0725717 0)
(10.0769 0.0879516 0)
(10.0821 0.0987051 0)
(10.0951 0.101554 0)
(10.1142 0.0993916 0)
(10.1348 0.100002 0)
(10.1524 0.112514 0)
(10.1679 0.140128 0)
(10.1801 0.183208 0)
(10.1937 0.234382 0)
(9.85645 -0.0124936 0)
(9.93303 -0.028687 0)
(10.0022 -0.0294932 0)
(10.1251 -0.00619388 0)
(10.2242 0.00336459 0)
(10.2571 0.0133482 0)
(10.2139 0.0295593 0)
(10.1213 0.0516806 0)
(10.0272 0.076012 0)
(9.96928 0.0987956 0)
(9.95904 0.117753 0)
(9.98442 0.132285 0)
(10.0261 0.143143 0)
(10.0653 0.153738 0)
(10.0926 0.16751 0)
(10.1057 0.187758 0)
(10.1098 0.21425 0)
(10.1126 0.245963 0)
(10.0993 0.0111437 0)
(10.1035 0.0255951 0)
(10.0892 -0.0226425 0)
(10.0991 -0.0338388 0)
(10.0808 0.0123401 0)
(10.0276 0.0743475 0)
(9.96754 0.12283 0)
(9.92231 0.146695 0)
(9.90042 0.143855 0)
(9.90531 0.120793 0)
(9.93446 0.0894968 0)
(9.9806 0.0636371 0)
(10.0349 0.0535647 0)
(10.0885 0.0637486 0)
(10.1357 0.0930149 0)
(10.172 0.134975 0)
(10.1991 0.182899 0)
(10.2177 0.228366 0)
(9.98685 -0.00553746 0)
(10.0601 -0.0124197 0)
(10.0492 -0.0372427 0)
(10.0584 -0.00635491 0)
(10.1244 0.0288526 0)
(10.213 0.0582677 0)
(10.2848 0.0792717 0)
(10.3244 0.0865291 0)
(10.3352 0.0830453 0)
(10.3234 0.0756441 0)
(10.2919 0.069305 0)
(10.2446 0.0665927 0)
(10.189 0.0693336 0)
(10.1358 0.0793832 0)
(10.0942 0.0991112 0)
(10.0717 0.128875 0)
(10.0671 0.165285 0)
(10.0832 0.205061 0)
(10.1579 0.017492 0)
(10.159 -0.033354 0)
(10.0983 -0.0438214 0)
(10.0991 -0.0726144 0)
(10.1355 -0.0801181 0)
(10.1932 -0.0321168 0)
(10.2518 0.0455997 0)
(10.2899 0.11437 0)
(10.2957 0.153762 0)
(10.2747 0.166823 0)
(10.242 0.166318 0)
(10.2111 0.163327 0)
(10.1878 0.163135 0)
(10.1716 0.166738 0)
(10.1593 0.172906 0)
(10.1492 0.180544 0)
(10.1421 0.18813 0)
(10.1373 0.195155 0)
(10.1155 -0.0455115 0)
(10.0491 -0.01406 0)
(9.99659 0.0108447 0)
(9.90766 -0.00486205 0)
(9.83082 -0.0353097 0)
(9.81257 -0.0397142 0)
(9.85546 -0.00945921 0)
(9.92876 0.0383935 0)
(9.99757 0.0824309 0)
(10.043 0.108237 0)
(10.066 0.112111 0)
(10.0787 0.100707 0)
(10.094 0.0873823 0)
(10.1162 0.0841149 0)
(10.144 0.0973599 0)
(10.1717 0.125022 0)
(10.1962 0.161827 0)
(10.2137 0.198935 0)
(9.83742 0.0182598 0)
(9.92652 0.0288177 0)
(9.99441 0.0603688 0)
(10.0193 0.0645761 0)
(9.98957 0.0121541 0)
(9.95692 -0.04797 0)
(9.95392 -0.064816 0)
(9.99179 -0.0277927 0)
(10.0622 0.0394718 0)
(10.1423 0.102591 0)
(10.2071 0.139258 0)
(10.2418 0.146242 0)
(10.2446 0.134545 0)
(10.2231 0.120249 0)
(10.1892 0.113593 0)
(10.1569 0.118868 0)
(10.1332 0.131544 0)
(10.1265 0.147202 0)
(9.89423 -0.193219 0)
(9.96218 -0.228872 0)
(10.0264 -0.0997898 0)
(10.0719 0.000373325 0)
(10.0668 0.0428314 0)
(10.0139 0.0157529 0)
(9.94973 -0.0557317 0)
(9.9103 -0.121446 0)
(9.90547 -0.147555 0)
(9.92927 -0.126095 0)
(9.96859 -0.0656608 0)
(10.0093 0.0164669 0)
(10.041 0.099501 0)
(10.0612 0.167419 0)
(10.0728 0.210836 0)
(10.0812 0.228753 0)
(10.0902 0.224757 0)
(10.1014 0.205503 0)
(10.1421 -0.0457028 0)
(10.1855 -0.115691 0)
(10.1552 -0.066789 0)
(10.1511 0.0295416 0)
(10.1597 0.103876 0)
(10.1307 0.131728 0)
(10.0888 0.119189 0)
(10.0571 0.0865577 0)
(10.0319 0.0564752 0)
(10.0093 0.0401511 0)
(9.99077 0.0359848 0)
(9.97633 0.0390495 0)
(9.96843 0.044755 0)
(9.97128 0.049968 0)
(9.98723 0.053859 0)
(10.0145 0.0580862 0)
(10.0497 0.0634535 0)
(10.088 0.073911 0)
(10.0153 -0.089425 0)
(9.99959 -0.17637 0)
(9.97447 -0.101401 0)
(9.99061 0.00484062 0)
(10.0592 0.0809502 0)
(10.1343 0.101984 0)
(10.1944 0.057243 0)
(10.2419 -0.0158813 0)
(10.2745 -0.0621828 0)
(10.2859 -0.0554275 0)
(10.2799 -0.00698979 0)
(10.2654 0.0519095 0)
(10.2459 0.0949889 0)
(10.2239 0.110641 0)
(10.2015 0.0989252 0)
(10.1806 0.0707793 0)
(10.1613 0.0366596 0)
(10.144 0.00965239 0)
(10.2458 0.0757826 0)
(10.2169 0.0810431 0)
(10.1668 -0.0386004 0)
(10.1369 -0.0788366 0)
(10.1771 -0.0497329 0)
(10.2204 -0.0257952 0)
(10.222 -0.0280629 0)
(10.1938 -0.0341801 0)
(10.1598 -0.0197348 0)
(10.1395 0.0187804 0)
(10.1404 0.0671357 0)
(10.1593 0.108753 0)
(10.1888 0.134808 0)
(10.2206 0.145158 0)
(10.2482 0.144095 0)
(10.2679 0.136949 0)
(10.2784 0.128107 0)
(10.2784 0.118474 0)
(9.89104 0.0945536 0)
(10.0401 0.0167658 0)
(10.0997 -0.0560954 0)
(10.09 -0.0571626 0)
(10.0443 -0.0152939 0)
(10.0222 0.0341686 0)
(10.0317 0.0595474 0)
(10.0585 0.0452777 0)
(10.0902 0.00638007 0)
(10.1176 -0.0261114 0)
(10.1389 -0.0341473 0)
(10.1571 -0.0185405 0)
(10.1712 0.00501269 0)
(10.1784 0.0230842 0)
(10.1801 0.0315695 0)
(10.1794 0.0331989 0)
(10.1787 0.0338192 0)
(10.1799 0.0387723 0)
(10.2818 0.0393828 0)
(10.2064 -0.0824415 0)
(10.141 -0.0558997 0)
(10.1054 -0.00244213 0)
(10.1088 0.0221455 0)
(10.1452 -0.000773438 0)
(10.1856 -0.0475516 0)
(10.2125 -0.0768166 0)
(10.2242 -0.0700636 0)
(10.2263 -0.0341035 0)
(10.2259 0.0146754 0)
(10.226 0.0609849 0)
(10.2267 0.0962798 0)
(10.2282 0.117513 0)
(10.2297 0.125206 0)
(10.232 0.122179 0)
(10.2359 0.111573 0)
(10.2418 0.0981415 0)
(10.2832 0.0113552 0)
(10.2457 0.0807146 0)
(10.2148 0.00968214 0)
(10.1952 -0.0399812 0)
(10.1783 -0.0447973 0)
(10.1493 -0.0306368 0)
(10.1068 -0.0163693 0)
(10.0771 -0.0156722 0)
(10.0776 -0.0274049 0)
(10.1019 -0.0363949 0)
(10.1328 -0.0307657 0)
(10.158 -0.0110615 0)
(10.173 0.0145843 0)
(10.1807 0.0345057 0)
(10.1867 0.0434176 0)
(10.1945 0.0423607 0)
(10.2042 0.0364105 0)
(10.2125 0.0326279 0)
(9.92724 -0.00218747 0)
(9.98173 0.0334078 0)
(10.0032 -0.000850706 0)
(9.95672 0.011844 0)
(9.88266 0.0465611 0)
(9.8246 0.0505742 0)
(9.8075 0.0131839 0)
(9.82273 -0.0395461 0)
(9.84998 -0.0741795 0)
(9.87999 -0.0718757 0)
(9.91569 -0.0353766 0)
(9.9625 0.0166043 0)
(10.0195 0.0619787 0)
(10.0797 0.0884421 0)
(10.1361 0.0951928 0)
(10.1815 0.0887971 0)
(10.2141 0.0783932 0)
(10.2328 0.0709478 0)
(10.0838 0.0245777 0)
(10.0861 -0.000350704 0)
(10.0264 0.0109287 0)
(10.0041 0.0354047 0)
(10.087 0.0459618 0)
(10.2215 0.02422 0)
(10.326 -0.0166024 0)
(10.3601 -0.0543101 0)
(10.3274 -0.0782627 0)
(10.2607 -0.0904018 0)
(10.1991 -0.0928965 0)
(10.1669 -0.0860694 0)
(10.1701 -0.0716348 0)
(10.2005 -0.053436 0)
(10.2483 -0.0349941 0)
(10.3042 -0.018398 0)
(10.3624 -0.0033589 0)
(10.4179 0.0105971 0)
(10.0213 -0.0365272 0)
(9.98921 0.043052 0)
(9.98643 0.0507742 0)
(9.99774 -0.00983728 0)
(10.0327 -0.0589694 0)
(10.0798 -0.0719017 0)
(10.1268 -0.0585458 0)
(10.1677 -0.0366274 0)
(10.1977 -0.0163665 0)
(10.2111 0.000339852 0)
(10.2071 0.0126388 0)
(10.1905 0.0189516 0)
(10.1699 0.0177719 0)
(10.153 0.00857804 0)
(10.145 -0.00523072 0)
(10.1487 -0.0187596 0)
(10.1627 -0.0281858 0)
(10.1861 -0.0296485 0)
(9.83913 -0.0392945 0)
(9.93057 0.00164738 0)
(10.0902 0.0186129 0)
(10.2462 0.00991535 0)
(10.3261 -0.0117591 0)
(10.3397 -0.0440895 0)
(10.3222 -0.0734281 0)
(10.2937 -0.0884387 0)
(10.2632 -0.0884449 0)
(10.2394 -0.0775469 0)
(10.2316 -0.0612639 0)
(10.2435 -0.0450651 0)
(10.2706 -0.0331628 0)
(10.3041 -0.0277952 0)
(10.3359 -0.0278904 0)
(10.3607 -0.0307151 0)
(10.3766 -0.0331584 0)
(10.382 -0.0333488 0)
(9.724 -0.0829672 0)
(9.94498 -0.0403555 0)
(10.0878 -0.0607764 0)
(10.1425 -0.0837049 0)
(10.1689 -0.0804058 0)
(10.1843 -0.0604826 0)
(10.1977 -0.0365972 0)
(10.2167 -0.0167971 0)
(10.2392 -0.0052841 0)
(10.2572 -0.00253015 0)
(10.2645 -0.00651869 0)
(10.2609 -0.0143635 0)
(10.2509 -0.0234295 0)
(10.2411 -0.0321699 0)
(10.2387 -0.0384933 0)
(10.2475 -0.0413332 0)
(10.267 -0.0396342 0)
(10.2961 -0.0340146 0)
(10.2553 -0.0998083 0)
(9.95329 -0.120744 0)
(9.72464 -0.0569086 0)
(9.54977 -0.0259031 0)
(9.37629 -0.0383643 0)
(9.18112 -0.064301 0)
(8.98847 -0.0844373 0)
(8.81606 -0.0931147 0)
(8.66609 -0.0887856 0)
(8.54221 -0.072336 0)
(8.44967 -0.0495285 0)
(8.38569 -0.0295208 0)
(8.33553 -0.020074 0)
(8.28164 -0.0236447 0)
(8.21141 -0.0362901 0)
(8.1246 -0.0515384 0)
(8.02382 -0.0633681 0)
(7.92405 -0.0681188 0)
(-0.317532 0.651514 4.16503e-20)
(-0.736778 0.436816 -4.12611e-20)
(-1.05464 0.218124 0)
(-1.23551 -0.0158113 0)
(-1.10407 -0.311176 0)
(-0.766888 -0.540081 4.01468e-20)
(-0.210184 -0.724674 0)
(0.472933 -0.790303 0)
(1.22106 -0.805224 0)
(1.95198 -0.768468 0)
(2.6499 -0.695232 -3.84408e-20)
(3.28852 -0.600448 0)
(3.84367 -0.494353 0)
(4.30765 -0.385367 0)
(4.67483 -0.276786 0)
(4.95093 -0.171246 -3.58678e-20)
(5.12756 -0.0662371 0)
(5.2144 0.0379552 0)
(5.19336 0.151035 0)
(5.06027 0.269678 0)
(4.80801 0.409116 0)
(4.42478 0.542976 0)
(3.92207 0.708426 0)
(3.22948 0.832858 -3.40133e-20)
(2.49455 0.987688 3.38769e-20)
(1.36944 1.1018 -3.36688e-20)
(0.488792 0.269003 -3.33761e-20)
(-0.0891381 -0.184629 0)
(-0.643768 0.0359428 0)
(-1.04911 0.188676 3.22094e-20)
(-1.26453 0.139731 3.1837e-20)
(-1.34182 -0.0382305 0)
(-1.19092 -0.28684 0)
(-0.769905 -0.614349 3.12563e-20)
(-0.00380198 -0.811756 0)
(0.906694 -0.645574 0)
(1.59157 -0.396174 -3.07106e-20)
(1.94655 0.0151161 0)
(1.97314 1.02275 -3.01363e-20)
(1.74062 1.14861 -5.99039e-20)
(1.56722 -0.340152 0)
(1.50759 -1.44932 0)
(1.47169 -0.942291 0)
(0.732557 0.507812 0)
(-0.726021 1.15821 0)
(-2.05231 1.13281 -5.68252e-20)
(-3.29862 1.0429 -5.56973e-20)
(-4.42484 0.936585 -5.43866e-20)
(-5.44008 0.833316 0)
(-6.3483 0.737154 5.15246e-20)
(-7.16165 0.651196 0)
(-7.88898 0.575631 -4.86501e-20)
(-8.54117 0.510028 -4.72694e-20)
(-9.12688 0.453062 0)
(-9.6543 0.40342 0)
(-10.1301 0.360051 0)
(-10.5602 0.321929 -4.22949e-20)
(-10.9492 0.287946 0)
(-11.3004 0.257016 0)
(-11.6163 0.228249 0)
(-11.8982 0.20097 0)
(-12.1465 0.174633 0)
(-12.3612 0.148777 0)
(-12.5415 0.123065 0)
(-12.6865 0.0973686 0)
(-12.7947 0.0717628 3.48458e-20)
(-12.8651 0.0464361 0)
(-12.8966 0.0217456 0)
(-12.8889 -0.00181726 -3.37856e-20)
(-12.8482 -0.0241447 -3.35994e-20)
(-12.7708 -0.0453954 0)
(-12.6604 -0.0652476 3.34554e-20)
(-12.5168 -0.0837536 -3.34836e-20)
(-12.3433 -0.100563 0)
(-12.1414 -0.115685 3.36972e-20)
(-11.9142 -0.128995 0)
(-11.6641 -0.140618 0)
(-11.3936 -0.150714 -3.42766e-20)
(-11.1046 -0.159631 0)
(-10.7986 -0.167796 3.47532e-20)
(-10.4761 -0.175762 0)
(-10.1364 -0.18409 -3.52709e-20)
(-9.77797 -0.193281 -3.55455e-20)
(-9.3984 -0.203644 -3.58324e-20)
(-8.99495 -0.215181 -7.2264e-20)
(-8.56526 -0.227553 7.28851e-20)
(-8.10792 -0.240129 0)
(-7.62288 -0.252137 0)
(-7.11161 -0.262824 0)
(-6.57698 -0.271593 7.53349e-20)
(-6.02273 -0.278114 7.58441e-20)
(-5.45278 -0.282386 -7.62742e-20)
(-4.87082 -0.284636 0)
(-4.28029 -0.285109 7.68466e-20)
(-3.68437 -0.283953 7.69724e-20)
(-3.08573 -0.281201 7.69852e-20)
(-2.48675 -0.276781 0)
(-1.89045 -0.270484 0)
(-1.30103 -0.261759 0)
(-0.724104 -0.250343 7.58866e-20)
(-0.166744 -0.237613 0)
(0.358412 -0.222155 0)
(0.847 -0.202615 -7.3761e-20)
(1.29488 -0.181278 0)
(1.69753 -0.159333 0)
(2.05456 -0.137796 -7.09228e-20)
(2.36793 -0.117412 0)
(2.64071 -0.0989734 0)
(2.87697 -0.0834218 6.79377e-20)
(3.08259 -0.0714307 6.69592e-20)
(3.26535 -0.0627959 0)
(3.43225 -0.0561158 -6.50613e-20)
(3.58591 -0.0493684 0)
(3.72345 -0.0411913 6.32448e-20)
(3.83934 -0.0315943 0)
(3.92958 -0.0215231 6.14925e-20)
(3.99409 -0.012029 6.06381e-20)
(4.03626 -0.0038597 0)
(4.061 0.00250173 0)
(4.07334 0.00667426 0)
(4.07796 0.00852388 0)
(4.0792 0.00849843 0)
(4.08089 0.00722206 0)
(4.08608 0.00546752 0)
(4.09682 0.00376282 5.42909e-20)
(4.11323 0.00273545 -5.35503e-20)
(4.1341 0.00250949 0)
(4.15752 0.00321058 0)
(4.18064 0.00505787 0)
(4.20063 0.00752485 0)
(4.21589 0.0101364 -9.99675e-20)
(4.22464 0.0130572 0)
(4.22566 0.0162187 9.72218e-20)
(4.21891 0.0196968 -9.58694e-20)
(4.20387 0.0239452 0)
(4.17958 0.0291523 0)
(4.14499 0.0348157 0)
(4.09962 0.0398667 9.0588e-20)
(4.04427 0.0430924 8.92963e-20)
(3.98119 0.0437319 0)
(3.91358 0.0418506 8.67428e-20)
(3.84478 0.0382237 8.54809e-20)
(3.77745 0.033925 -8.4229e-20)
(3.7132 0.029917 0)
(3.65252 0.0268142 0)
(3.59505 0.0248313 -8.05322e-20)
(3.53993 0.0238482 0)
(3.48626 0.0235286 0)
(3.43338 0.0234325 0)
(3.38109 0.0231404 0)
(3.32973 0.0223771 7.4544e-20)
(3.28004 0.0210612 7.33697e-20)
(3.23296 0.0192715 0)
(3.18935 0.0171885 7.10445e-20)
(3.14977 0.015018 0)
(3.11444 0.0129276 0)
(3.08321 0.011022 6.7616e-20)
(3.05575 0.00934955 0)
(3.0315 0.00791994 6.53685e-20)
(3.00998 0.00672394 0)
(2.99058 0.00574564 0)
(2.97292 0.00496781 6.20508e-20)
(2.95641 0.00437449 0)
(2.94093 0.00394615 5.98729e-20)
(2.9258 0.00367768 0)
(2.91123 0.00354668 0)
(2.89616 0.00358008 0)
(2.88133 0.00371612 -5.5598e-20)
(2.86488 0.00407488 0)
(2.84836 0.00445338 5.35026e-20)
(2.82869 0.00528351 0)
(2.80813 0.00591412 0)
(2.78271 0.00775897 0)
(2.75279 0.00865335 0)
(2.71841 0.012954 0)
(2.66487 0.0137172 0)
(2.6208 0.0247175 0)
(2.50106 0.0234353 -9.1027e-20)
(2.465 0.0556273 0)
(2.13353 0.0455485 0)
(-0.029684 1.3783 -1.24846e-19)
(0.0180791 1.00101 1.23919e-19)
(-0.113541 0.694659 0)
(0.0497204 0.211468 -8.13073e-20)
(0.452234 -0.646874 0)
(1.09837 -1.4004 -4.0036e-20)
(1.8189 -1.92108 7.90494e-20)
(2.53187 -2.18704 7.8251e-20)
(3.20536 -2.25512 0)
(3.82407 -2.17285 7.64157e-20)
(4.37589 -1.98953 3.81831e-20)
(4.85184 -1.74805 0)
(5.2508 -1.47895 0)
(5.57457 -1.20252 0)
(5.83048 -0.928319 0)
(6.01961 -0.659898 3.57438e-20)
(6.15319 -0.393954 0)
(6.22609 -0.128765 -6.93001e-20)
(6.25273 0.143572 0)
(6.22134 0.423005 0)
(6.13539 0.720213 6.77067e-20)
(5.9626 1.02794 0)
(5.74141 1.35138 -6.70134e-20)
(5.39776 1.67381 3.37713e-20)
(5.03778 1.95489 -3.35934e-20)
(4.48778 2.22594 3.33407e-20)
(3.91822 2.23021 3.30293e-20)
(3.21156 2.00814 0)
(2.19634 1.52786 0)
(1.36117 0.900425 -3.21439e-20)
(0.985621 0.253239 3.18215e-20)
(0.681141 -0.203232 0)
(0.531824 -0.630494 0)
(0.861881 -1.45852 -3.12063e-20)
(1.40498 -2.16716 0)
(1.82593 -2.17576 0)
(2.24814 -1.24212 3.06329e-20)
(2.31898 -0.61921 0)
(2.01801 -0.596061 -2.98467e-20)
(1.83189 -0.494411 5.98706e-20)
(0.974858 0.559874 0)
(-1.12737 1.75535 0)
(-2.84425 2.33016 1.15704e-19)
(-4.03412 2.69269 1.13871e-19)
(-5.12778 2.72591 1.12274e-19)
(-5.99257 2.55932 -5.42177e-20)
(-6.77996 2.33235 5.51678e-20)
(-7.465 2.09217 1.59857e-19)
(-8.07343 1.85711 -1.03409e-19)
(-8.60883 1.64306 -5.12081e-20)
(-9.0842 1.45189 0)
(-9.50798 1.28546 4.84353e-20)
(-9.88858 1.14135 -4.6081e-20)
(-10.2327 1.0169 0)
(-10.5457 0.908987 0)
(-10.8319 0.814715 0)
(-11.0944 0.731322 4.2225e-20)
(-11.3353 0.656137 0)
(-11.5559 0.586793 -7.97735e-20)
(-11.7567 0.5213 0)
(-11.9373 0.458019 -7.61012e-20)
(-12.0968 0.395596 0)
(-12.2339 0.332954 7.29405e-20)
(-12.347 0.269365 0)
(-12.4346 0.20455 -7.03777e-20)
(-12.4952 0.138653 3.44816e-20)
(-12.5273 0.0720985 0)
(-12.5301 0.00559915 6.78002e-20)
(-12.503 -0.0599082 3.38083e-20)
(-12.4394 -0.123464 3.36209e-20)
(-12.344 -0.184362 0)
(-12.2149 -0.241683 3.32048e-20)
(-12.0556 -0.294844 3.3502e-20)
(-11.8673 -0.343175 0)
(-11.653 -0.386393 -3.37138e-20)
(-11.4153 -0.424374 6.758e-20)
(-11.1572 -0.457386 0)
(-10.881 -0.486009 3.42911e-20)
(-10.5891 -0.511221 0)
(-10.2829 -0.534341 -1.04146e-19)
(-9.96266 -0.556978 0)
(-9.62768 -0.580823 1.05675e-19)
(-9.27583 -0.607374 3.55548e-20)
(-8.90403 -0.637569 -3.56446e-20)
(-8.50876 -0.671465 -7.18657e-20)
(-8.08694 -0.708091 7.24736e-20)
(-7.63669 -0.745594 0)
(-7.15782 -0.78164 0)
(-6.65195 -0.813914 0)
(-6.12239 -0.840571 -2.25621e-19)
(-5.5735 -0.860604 -7.58343e-20)
(-5.0097 -0.874052 7.62622e-20)
(-4.43484 -0.881723 0)
(-3.85212 -0.884547 7.65382e-20)
(-3.26424 -0.883091 -7.69558e-20)
(-2.67325 -0.877295 -7.69677e-20)
(-2.08093 -0.866515 0)
(-1.48948 -0.849953 0)
(-0.901954 -0.826054 0)
(-0.322796 -0.791739 -7.5872e-20)
(0.238393 -0.750443 0)
(0.770388 -0.700284 1.48845e-19)
(1.26735 -0.640393 2.20861e-19)
(1.71913 -0.575084 -1.45409e-19)
(2.12053 -0.509219 0)
(2.47024 -0.447028 -7.0751e-20)
(2.76988 -0.38986 0)
(3.02464 -0.337307 -1.37669e-19)
(3.24334 -0.290876 6.78132e-20)
(3.43675 -0.254092 6.6842e-20)
(3.61576 -0.228132 0)
(3.78863 -0.209106 1.95e-19)
(3.95707 -0.189943 -1.28156e-19)
(4.11515 -0.165142 -6.32049e-20)
(4.25346 -0.134306 0)
(4.36462 -0.101543 -6.14551e-20)
(4.44603 -0.0719178 -1.81782e-19)
(4.49954 -0.04842 0)
(4.53006 -0.0314686 -1.17863e-19)
(4.54394 -0.02009 -1.16246e-19)
(4.54775 -0.0134399 -1.14653e-19)
(4.54725 -0.0111132 0)
(4.54733 -0.0127433 0)
(4.55186 -0.0175005 0)
(4.56316 -0.0239506 5.42538e-20)
(4.5827 -0.0302069 5.35223e-20)
(4.61047 -0.0348638 0)
(4.64466 -0.0369756 1.04133e-19)
(4.68303 -0.0360919 1.02707e-19)
(4.7234 -0.0326555 0)
(4.76287 -0.0273528 9.99081e-20)
(4.79998 -0.020627 1.97043e-19)
(4.8345 -0.0132571 -9.71594e-20)
(4.86602 -0.00597009 -9.57938e-20)
(4.89492 0.00125532 0)
(4.92224 0.0087513 0)
(4.94893 0.0166232 0)
(4.97495 0.0247058 -9.05047e-20)
(4.99893 0.0324722 8.91975e-20)
(5.0185 0.0391342 1.7583e-19)
(5.03122 0.0440097 -8.66413e-20)
(5.03538 0.046774 8.53703e-20)
(5.03061 0.047541 8.41195e-20)
(5.0179 0.0467762 0)
(4.99916 0.0451026 0)
(4.9766 0.0431091 -8.04179e-20)
(4.95227 0.041217 0)
(4.92777 0.0396219 0)
(4.90414 0.0382976 1.53606e-19)
(4.88194 0.0370497 0)
(4.86145 0.0356008 7.44327e-20)
(4.84277 0.0337293 -7.32589e-20)
(4.826 0.0313506 0)
(4.81127 0.0285341 7.0937e-20)
(4.79876 0.0254744 0)
(4.78858 0.0224122 0)
(4.78074 0.0195601 -6.75103e-20)
(4.77505 0.017063 1.3277e-19)
(4.77116 0.0149908 -6.52657e-20)
(4.76863 0.0133462 0)
(4.76689 0.0120926 0)
(4.76548 0.0111625 6.19535e-20)
(4.7639 0.0105053 0)
(4.76188 0.0100458 5.97785e-20)
(4.75909 0.00979182 0)
(4.7555 0.00965669 0)
(4.75083 0.00977544 0)
(4.74521 0.0099471 5.55109e-20)
(4.7383 0.0105912 0)
(4.7301 0.0111241 -5.34192e-20)
(4.72042 0.012744 0)
(4.70822 0.0137257 0)
(4.6949 0.0173869 1.00677e-19)
(4.67502 0.0188261 -9.86604e-20)
(4.65724 0.027163 0)
(4.62019 0.028761 0)
(4.5993 0.0487001 0)
(4.51934 0.0497194 2.72568e-19)
(4.50665 0.101163 0)
(4.31364 0.103725 -1.74271e-19)
(0.124258 0.921546 -8.63783e-23)
(0.17182 0.854823 -1.65201e-19)
(0.384452 0.303928 0)
(1.1177 -0.980142 1.61937e-19)
(1.99235 -2.21708 0)
(2.7979 -3.08512 0)
(3.47098 -3.54136 -6.4074e-22)
(4.01015 -3.65474 -7.77643e-20)
(4.44154 -3.52237 -7.59082e-20)
(4.78165 -3.23059 -7.6105e-20)
(5.04065 -2.84971 0)
(5.23157 -2.43178 0)
(5.37164 -2.01177 7.2241e-20)
(5.47766 -1.60981 1.42825e-19)
(5.56521 -1.23326 -1.41244e-19)
(5.6416 -0.87989 0)
(5.70964 -0.541029 -1.38348e-19)
(5.76259 -0.207174 6.93792e-20)
(5.7994 0.132177 0)
(5.81247 0.480979 -1.34734e-19)
(5.8127 0.845566 -6.77448e-20)
(5.78418 1.229 1.32847e-19)
(5.73971 1.62959 6.69733e-20)
(5.65639 2.04045 0)
(5.55029 2.42314 -1.30751e-19)
(5.39129 2.7569 -1.30153e-19)
(5.16647 2.95826 0)
(4.85217 2.95058 -1.29073e-19)
(4.38566 2.7538 0)
(3.84844 2.2457 -1.28044e-19)
(3.35789 1.4733 -6.32309e-20)
(2.97507 0.60205 0)
(2.53159 -0.301392 0)
(2.52712 -1.79469 0)
(2.73905 -2.54242 0)
(2.42161 -2.39985 0)
(1.72493 -1.26814 0)
(0.807971 0.553121 -1.20747e-19)
(-0.615712 1.86056 1.79654e-19)
(-2.06136 2.80151 0)
(-3.36101 3.49826 0)
(-4.55265 3.79842 0)
(-5.41382 3.90057 -1.49773e-21)
(-6.06939 3.88699 -1.13185e-19)
(-6.5688 3.71006 -2.21391e-19)
(-6.95755 3.43331 2.17769e-19)
(-7.29546 3.10335 1.05689e-19)
(-7.60478 2.77523 -1.05774e-19)
(-7.89929 2.46428 2.00668e-21)
(-8.18852 2.18698 -9.90614e-20)
(-8.47224 1.94344 0)
(-8.75313 1.73354 -9.44392e-20)
(-9.02928 1.55323 1.13889e-21)
(-9.30077 1.39817 0)
(-9.56614 1.264 0)
(-9.82454 1.14639 8.5443e-20)
(-10.0744 1.04133 0)
(-10.314 0.945034 0)
(-10.5411 0.854268 -7.87067e-20)
(-10.7534 0.766307 -1.54857e-19)
(-10.9483 0.678835 7.622e-20)
(-11.1231 0.589964 0)
(-11.2747 0.498344 -7.30549e-20)
(-11.4003 0.403279 0)
(-11.4971 0.30465 -6.93925e-20)
(-11.5627 0.202767 -6.94586e-20)
(-11.5955 0.0983958 1.36126e-19)
(-11.5945 -0.00724078 6.68634e-20)
(-11.559 -0.112653 0)
(-11.4894 -0.215946 -1.33097e-19)
(-11.3871 -0.315142 0)
(-11.2537 -0.408624 -1.99498e-19)
(-11.0918 -0.49485 -1.3295e-19)
(-10.904 -0.572835 -1.33396e-19)
(-10.6934 -0.641885 1.34019e-19)
(-10.4631 -0.701891 -2.02437e-19)
(-10.2161 -0.753239 0)
(-9.95544 -0.796952 0)
(-9.68327 -0.834672 1.37481e-19)
(-9.40107 -0.868717 2.07884e-19)
(-9.10903 -0.901943 0)
(-8.80575 -0.937491 -7.04491e-20)
(-8.48805 -0.978284 0)
(-8.15128 -1.02634 2.13987e-19)
(-7.79014 -1.08207 6.33958e-22)
(-7.39988 -1.14389 -6.53787e-22)
(-6.97747 -1.20838 -1.4602e-19)
(-6.52237 -1.27095 0)
(-6.03666 -1.32698 1.48551e-19)
(-5.52479 -1.37282 5.69641e-22)
(-4.99279 -1.40657 0)
(-4.44694 -1.42851 0)
(-3.89247 -1.44066 0)
(-3.33328 -1.44546 -1.53355e-19)
(-2.77211 -1.44485 0)
(-2.2107 -1.43923 0)
(-1.65022 -1.4271 0)
(-1.09143 -1.4064 0)
(-0.534788 -1.37363 0)
(0.0175865 -1.32541 -1.5106e-19)
(0.562582 -1.26199 0)
(1.09645 -1.17652 -1.48662e-19)
(1.60831 -1.07211 -1.47015e-19)
(2.08031 -0.954774 1.45245e-19)
(2.50077 -0.832474 0)
(2.86872 -0.7129 1.41461e-19)
(3.18032 -0.603904 0)
(3.42309 -0.512759 1.37554e-19)
(3.59462 -0.442985 -1.35606e-19)
(3.71773 -0.39477 -4.00806e-19)
(3.82871 -0.365874 0)
(3.95647 -0.347608 -3.89568e-19)
(4.10963 -0.325775 -1.27927e-19)
(4.27528 -0.289831 0)
(4.43096 -0.239201 -2.48999e-19)
(4.56077 -0.180795 -2.45563e-19)
(4.66082 -0.123098 3.63315e-19)
(4.73304 -0.0728015 0)
(4.77893 -0.0340002 1.17823e-19)
(4.79934 -0.00833975 1.16208e-19)
(4.79766 0.00493255 3.43801e-19)
(4.78094 0.00786841 0)
(4.75809 0.00271726 0)
(4.7372 -0.00813258 0)
(4.72376 -0.0215685 1.08468e-19)
(4.72019 -0.0347401 0)
(4.72626 -0.0454188 0)
(4.74027 -0.0519806 -1.04118e-19)
(4.76007 -0.0539009 -1.02695e-19)
(4.7836 -0.0515158 0)
(4.8089 -0.0457885 0)
(4.83439 -0.0381376 -1.9703e-19)
(4.85904 -0.0298244 0)
(4.88244 -0.0217066 1.91594e-19)
(4.90513 -0.0141553 1.889e-19)
(4.92823 -0.00715518 0)
(4.95313 -0.000277752 0)
(4.9809 0.00699802 -1.8099e-19)
(5.01141 0.0148828 -1.07372e-23)
(5.04286 0.0232219 -9.13643e-24)
(5.07204 0.0315132 0)
(5.09528 0.0390355 -3.41463e-19)
(5.10964 0.0451083 0)
(5.11396 0.0493202 0)
(5.10908 0.0516344 0)
(5.09735 0.0523362 1.60813e-19)
(5.08173 0.051864 0)
(5.06493 0.0506174 -3.11943e-19)
(5.04891 0.0488476 -1.53579e-19)
(5.03477 0.0466375 0)
(5.0229 0.0439239 -1.48838e-19)
(5.01323 0.0405976 0)
(5.00553 0.0366332 0)
(4.99962 0.0321401 -4.25536e-19)
(4.99548 0.0273372 2.79094e-19)
(4.99319 0.0225112 0)
(4.99287 0.0179578 2.69993e-19)
(4.99457 0.0139275 -1.32742e-19)
(4.99818 0.0106011 0)
(5.00338 0.0080611 0)
(5.00975 0.00631399 0)
(5.01674 0.00527344 -3.71633e-19)
(5.02384 0.00484602 0)
(5.03056 0.00486185 -1.19527e-19)
(5.03662 0.00527052 0)
(5.04164 0.0058772 0)
(5.04571 0.00682172 0)
(5.04841 0.00779686 0)
(5.05024 0.00933305 0)
(5.0503 0.010698 0)
(5.04981 0.0133506 -2.09461e-19)
(5.04648 0.015325 0)
(5.04339 0.0203822 -1.00646e-19)
(5.03484 0.0233268 2.95862e-19)
(5.02874 0.0337566 0)
(5.01102 0.0383176 0)
(5.00189 0.061235 -1.8537e-19)
(4.96733 0.0697213 -1.81615e-19)
(4.95804 0.123334 1.7771e-19)
(4.89819 0.147196 1.74185e-19)
(-0.127983 0.595505 2.49827e-19)
(0.11369 0.36166 2.47967e-19)
(1.11715 -1.53002 1.63259e-19)
(2.14035 -3.16558 8.01871e-20)
(2.98645 -4.18068 0)
(3.59193 -4.60611 -1.55861e-19)
(3.97108 -4.59534 7.60518e-20)
(4.17945 -4.30666 0)
(4.27383 -3.8559 7.58928e-20)
(4.29396 -3.32792 0)
(4.27008 -2.78615 -1.46435e-19)
(4.23154 -2.27424 0)
(4.20568 -1.81933 -7.24704e-20)
(4.21252 -1.42886 -1.43309e-19)
(4.26057 -1.09255 1.4173e-19)
(4.34452 -0.790012 0)
(4.44935 -0.497473 1.38799e-19)
(4.55716 -0.195867 0)
(4.65058 0.129423 0)
(4.71902 0.4851 1.35146e-19)
(4.76863 0.867125 0)
(4.79953 1.27318 -1.45057e-21)
(4.82197 1.68377 0)
(4.83592 2.10768 0)
(4.85068 2.5122 1.31814e-21)
(4.84457 2.8914 1.30266e-19)
(4.8187 3.18539 1.28758e-19)
(4.72201 3.34893 1.28996e-19)
(4.54238 3.25526 0)
(4.20127 2.96249 2.56352e-19)
(3.78475 2.1823 0)
(3.29551 1.17584 1.28697e-19)
(2.86601 0.293986 0)
(2.62593 -1.60814 0)
(1.76597 -1.90861 -1.26189e-19)
(0.206692 0.125858 0)
(-1.30663 1.73437 1.22495e-19)
(-2.50159 2.97263 -3.16068e-22)
(-3.63922 3.87174 -2.36754e-19)
(-4.57874 4.45351 2.32873e-19)
(-5.30213 4.74728 0)
(-5.79654 4.76939 0)
(-6.12772 4.65273 1.09373e-19)
(-6.36221 4.42112 0)
(-6.53215 4.11793 1.09558e-19)
(-6.68917 3.78186 -1.07709e-19)
(-6.84477 3.43824 -1.05729e-19)
(-7.01998 3.11384 0)
(-7.21212 2.81433 1.01426e-19)
(-7.42697 2.54745 9.91629e-20)
(-7.65783 2.31167 -1.90924e-19)
(-7.90318 2.10531 9.4553e-20)
(-8.15729 1.92454 9.22513e-20)
(-8.41672 1.76515 0)
(-8.67721 1.62299 0)
(-8.93525 1.4939 -8.55528e-20)
(-9.18731 1.37393 0)
(-9.43007 1.25938 0)
(-9.66023 1.14691 1.58811e-19)
(-9.87453 1.03362 1.55061e-19)
(-10.0698 0.917169 0)
(-10.2428 0.795837 0)
(-10.3908 0.668659 0)
(-10.5109 0.535444 0)
(-10.6011 0.396638 1.40098e-19)
(-10.6595 0.253232 -1.36634e-19)
(-10.685 0.106865 -1.36352e-19)
(-10.6769 -0.0403396 -2.68626e-19)
(-10.6355 -0.186068 0)
(-10.5616 -0.327863 1.24545e-21)
(-10.4567 -0.463118 0)
(-10.3231 -0.589509 1.32905e-19)
(-10.1635 -0.704962 9.66706e-22)
(-9.98093 -0.808031 1.33562e-19)
(-9.77882 -0.897842 -1.34179e-19)
(-9.56063 -0.974284 6.79137e-22)
(-9.32978 -1.03803 0)
(-9.08942 -1.09064 -1.36115e-19)
(-8.84219 -1.13466 -1.37611e-19)
(-8.58975 -1.17374 -2.76578e-19)
(-8.3322 -1.21254 0)
(-8.06749 -1.25639 1.39861e-19)
(-7.79096 -1.31041 0)
(-7.4955 -1.37822 -2.84301e-19)
(-7.17274 -1.4605 1.4364e-19)
(-6.81492 -1.55422 -1.44816e-19)
(-6.41694 -1.65307 1.46049e-19)
(-5.97777 -1.74878 2.9294e-19)
(-5.50067 -1.83316 -1.48558e-19)
(-4.99241 -1.90004 1.49737e-19)
(-4.46193 -1.94649 0)
(-3.91838 -1.97335 -3.02079e-19)
(-3.36909 -1.98437 0)
(-2.8192 -1.98389 -3.04582e-19)
(-2.27201 -1.97581 3.0516e-19)
(-1.73025 -1.96235 3.05286e-19)
(-1.19776 -1.94326 -3.04956e-19)
(-0.678296 -1.91762 -3.04167e-19)
(-0.17471 -1.88051 0)