/*--------------------------------*- C++ -*----------------------------------*\
  =========                 |
  \\      /  F ield         | OpenFOAM: The Open Source CFD Toolbox
   \\    /   O peration     | Website:  https://openfoam.org
    \\  /    A nd           | Version:  9
     \\/     M anipulation  |
\*---------------------------------------------------------------------------*/
FoamFile
{
    format      ascii;
    class       volSymmTensorField;
    location    "0.034";
    object      UPrime2Mean;
}
// * * * * * * * * * * * * * * * * * * * * * * * * * * * * * * * * * * * * * //

dimensions      [0 2 -2 0 0 0 0];

internalField   nonuniform List<symmTensor> 
12225
(
(-48.4799 -0.205785 0 0.00146264 0 0)
(-45.5935 -0.283045 0 -0.000687919 0 0)
(-42.7202 -0.268583 0 -0.000950979 0 0)
(-39.8876 -0.256009 0 -0.00106355 0 0)
(-37.1527 -0.247934 0 -0.00116281 0 0)
(-34.5614 -0.238044 0 -0.00120417 0 0)
(-32.1125 -0.228315 0 -0.00122428 0 0)
(-29.8098 -0.219907 0 -0.00125673 0 0)
(-27.5908 -0.217076 0 -0.00134769 0 0)
(-25.4733 -0.213789 0 -0.0014793 0 0)
(-23.3657 -0.216623 0 -0.00160891 0 0)
(-21.3578 -0.212376 0 -0.00174438 0 0)
(-19.2784 -0.223445 0 -0.00182794 0 0)
(-17.3236 -0.216659 0 -0.00208646 0 0)
(-15.1498 -0.254154 0 -0.00207374 0 0)
(-13.1209 -0.240629 0 -0.00279855 0 0)
(-10.6197 -0.356687 0 -0.00156086 0 0)
(-8.1967 -0.33744 0 -0.00544168 0 0)
(-50.3389 -0.273343 0 0.00148531 0 0)
(-50.889 -0.39063 0 -0.00148378 0 0)
(-51.2305 -0.389731 0 -0.00196571 0 0)
(-51.3138 -0.401712 0 -0.00235599 0 0)
(-51.1964 -0.426394 0 -0.00288778 0 0)
(-50.9376 -0.450713 0 -0.00338647 0 0)
(-50.5552 -0.469263 0 -0.00378407 0 0)
(-50.0713 -0.489049 0 -0.00417281 0 0)
(-49.4768 -0.508772 0 -0.00459269 0 0)
(-48.7984 -0.538311 0 -0.00511784 0 0)
(-47.9969 -0.568304 0 -0.00576695 0 0)
(-47.1088 -0.614201 0 -0.00653888 0 0)
(-46.0436 -0.658927 0 -0.00760098 0 0)
(-44.8799 -0.731142 0 -0.00871012 0 0)
(-43.4456 -0.810285 0 -0.0108154 0 0)
(-41.8919 -0.942179 0 -0.0126605 0 0)
(-39.9219 -1.13065 0 -0.0177471 0 0)
(-37.7889 -1.43934 0 -0.0196757 0 0)
(-49.7139 -0.165832 0 0.00288896 0 0)
(-50.0201 -0.279373 0 0.000244873 0 0)
(-50.27 -0.295935 0 -0.000566373 0 0)
(-50.4033 -0.315935 0 -0.00101059 0 0)
(-50.4501 -0.351443 0 -0.0015508 0 0)
(-50.4547 -0.38785 0 -0.00210819 0 0)
(-50.4307 -0.421433 0 -0.00262531 0 0)
(-50.3757 -0.455218 0 -0.00316846 0 0)
(-50.2779 -0.495625 0 -0.00377802 0 0)
(-50.1354 -0.542389 0 -0.00456399 0 0)
(-49.938 -0.600646 0 -0.00542956 0 0)
(-49.6814 -0.6661 0 -0.00660245 0 0)
(-49.3527 -0.752142 0 -0.00781355 0 0)
(-48.9411 -0.852283 0 -0.00977893 0 0)
(-48.4404 -0.997767 0 -0.0118549 0 0)
(-47.8346 -1.1837 0 -0.0156842 0 0)
(-47.1694 -1.47448 0 -0.0199047 0 0)
(-46.453 -1.88428 0 -0.0240838 0 0)
(-50.1812 -0.147227 0 0.00300087 0 0)
(-50.3617 -0.298973 0 0.000345038 0 0)
(-50.5277 -0.332309 0 -0.000652202 0 0)
(-50.6069 -0.353143 0 -0.00116997 0 0)
(-50.5958 -0.388613 0 -0.00179783 0 0)
(-50.5301 -0.428671 0 -0.00245828 0 0)
(-50.4336 -0.465009 0 -0.00305244 0 0)
(-50.3109 -0.501351 0 -0.00362576 0 0)
(-50.1614 -0.541669 0 -0.00427389 0 0)
(-49.9839 -0.591952 0 -0.00505425 0 0)
(-49.7761 -0.652545 0 -0.00604444 0 0)
(-49.5314 -0.728878 0 -0.00724785 0 0)
(-49.2426 -0.82284 0 -0.00881757 0 0)
(-48.9047 -0.944118 0 -0.0107635 0 0)
(-48.5145 -1.10234 0 -0.0133926 0 0)
(-48.0919 -1.31633 0 -0.0167736 0 0)
(-47.6601 -1.60726 0 -0.0204941 0 0)
(-47.3119 -1.99292 0 -0.0235688 0 0)
(-50.0816 -0.134453 0 0.00393669 0 0)
(-50.2092 -0.268563 0 0.00111489 0 0)
(-50.3425 -0.311675 0 -0.000280106 0 0)
(-50.4099 -0.337392 0 -0.000895174 0 0)
(-50.3959 -0.375983 0 -0.00150735 0 0)
(-50.3344 -0.422373 0 -0.00218777 0 0)
(-50.2479 -0.468093 0 -0.00284193 0 0)
(-50.1372 -0.513151 0 -0.00349059 0 0)
(-49.9951 -0.562882 0 -0.00418983 0 0)
(-49.8192 -0.621529 0 -0.00503064 0 0)
(-49.6066 -0.692657 0 -0.00603319 0 0)
(-49.358 -0.779304 0 -0.00728842 0 0)
(-49.0689 -0.886376 0 -0.00881326 0 0)
(-48.745 -1.02117 0 -0.010732 0 0)
(-48.3846 -1.19246 0 -0.0130975 0 0)
(-48.0162 -1.41574 0 -0.0157376 0 0)
(-47.6552 -1.69617 0 -0.0182475 0 0)
(-47.3754 -2.04512 0 -0.01805 0 0)
(-49.7073 -0.101464 0 0.00461619 0 0)
(-49.8421 -0.239688 0 0.00177041 0 0)
(-49.9911 -0.30817 0 0.000152909 0 0)
(-50.0868 -0.348332 0 -0.000693727 0 0)
(-50.1057 -0.390464 0 -0.00145041 0 0)
(-50.0722 -0.438181 0 -0.00218942 0 0)
(-50.0096 -0.486553 0 -0.00289236 0 0)
(-49.9233 -0.536137 0 -0.00359058 0 0)
(-49.8081 -0.591378 0 -0.00434949 0 0)
(-49.6618 -0.656956 0 -0.0052401 0 0)
(-49.4819 -0.735846 0 -0.0062985 0 0)
(-49.2715 -0.831775 0 -0.00757218 0 0)
(-49.028 -0.948891 0 -0.00907996 0 0)
(-48.7593 -1.09422 0 -0.0108772 0 0)
(-48.4651 -1.27401 0 -0.0128711 0 0)
(-48.1718 -1.4985 0 -0.0148268 0 0)
(-47.8892 -1.76755 0 -0.015873 0 0)
(-47.6751 -2.08515 0 -0.0142119 0 0)
(-49.3936 -0.108601 0 0.00461247 0 0)
(-49.5136 -0.211753 0 0.00255949 0 0)
(-49.6284 -0.281182 0 0.000792869 0 0)
(-49.7139 -0.329699 0 -0.0002233 0 0)
(-49.7535 -0.378877 0 -0.00100199 0 0)
(-49.7489 -0.433929 0 -0.00175516 0 0)
(-49.7057 -0.491629 0 -0.00251552 0 0)
(-49.6262 -0.551604 0 -0.00328476 0 0)
(-49.5094 -0.616845 0 -0.00408923 0 0)
(-49.3571 -0.691568 0 -0.00496976 0 0)
(-49.1703 -0.779081 0 -0.00595971 0 0)
(-48.9548 -0.883838 0 -0.00708948 0 0)
(-48.7117 -1.00977 0 -0.00837727 0 0)
(-48.4522 -1.16347 0 -0.00980013 0 0)
(-48.1797 -1.34863 0 -0.0112371 0 0)
(-47.9195 -1.57222 0 -0.0123076 0 0)
(-47.6793 -1.83096 0 -0.012198 0 0)
(-47.504 -2.12587 0 -0.00964462 0 0)
(-50.1577 -0.0661368 0 0.00566816 0 0)
(-50.1929 -0.19929 0 0.00306417 0 0)
(-50.2168 -0.281906 0 0.00120156 0 0)
(-50.2362 -0.340996 0 0.000138636 0 0)
(-50.2405 -0.392825 0 -0.000640026 0 0)
(-50.2211 -0.44781 0 -0.00133664 0 0)
(-50.176 -0.50859 0 -0.00206845 0 0)
(-50.1042 -0.575138 0 -0.00288722 0 0)
(-50.0024 -0.648713 0 -0.00380378 0 0)
(-49.8679 -0.732344 0 -0.00481812 0 0)
(-49.6995 -0.829163 0 -0.00592921 0 0)
(-49.5005 -0.943273 0 -0.00713582 0 0)
(-49.275 -1.07804 0 -0.00841077 0 0)
(-49.0319 -1.23831 0 -0.00966368 0 0)
(-48.7793 -1.42621 0 -0.0106873 0 0)
(-48.5331 -1.64546 0 -0.0110418 0 0)
(-48.3079 -1.89251 0 -0.0100399 0 0)
(-48.1266 -2.16562 0 -0.00669704 0 0)
(-49.6193 -0.0762034 0 0.00495052 0 0)
(-49.6363 -0.187705 0 0.0025744 0 0)
(-49.6882 -0.270422 0 0.000944113 0 0)
(-49.7529 -0.333175 0 2.81707e-05 0 0)
(-49.7814 -0.386448 0 -0.000640129 0 0)
(-49.7625 -0.443803 0 -0.00131501 0 0)
(-49.7055 -0.510245 0 -0.00205834 0 0)
(-49.6217 -0.585542 0 -0.0028782 0 0)
(-49.5151 -0.669479 0 -0.00376341 0 0)
(-49.3859 -0.763618 0 -0.00469817 0 0)
(-49.2345 -0.870233 0 -0.0056706 0 0)
(-49.0662 -0.993006 0 -0.00666828 0 0)
(-48.8869 -1.13524 0 -0.00765003 0 0)
(-48.706 -1.30099 0 -0.00849913 0 0)
(-48.5287 -1.49168 0 -0.00899271 0 0)
(-48.3678 -1.70899 0 -0.0087183 0 0)
(-48.2266 -1.94883 0 -0.00708435 0 0)
(-48.1258 -2.20858 0 -0.00334682 0 0)
(-49.8064 -0.0908489 0 0.00562245 0 0)
(-49.8339 -0.161308 0 0.0033875 0 0)
(-49.8803 -0.25201 0 0.00173754 0 0)
(-49.9285 -0.330709 0 0.00069237 0 0)
(-49.9488 -0.398662 0 -0.000179897 0 0)
(-49.929 -0.465711 0 -0.000995842 0 0)
(-49.8746 -0.537388 0 -0.0018152 0 0)
(-49.7998 -0.616338 0 -0.00266638 0 0)
(-49.7136 -0.704005 0 -0.00355051 0 0)
(-49.6164 -0.80207 0 -0.00445185 0 0)
(-49.5051 -0.912344 0 -0.00533832 0 0)
(-49.3788 -1.0378 0 -0.00616575 0 0)
(-49.2387 -1.18113 0 -0.00686118 0 0)
(-49.0909 -1.34568 0 -0.00730765 0 0)
(-48.9415 -1.53221 0 -0.0072927 0 0)
(-48.802 -1.74177 0 -0.00647554 0 0)
(-48.68 -1.97009 0 -0.00436407 0 0)
(-48.5894 -2.2151 0 -0.000469687 0 0)
(-49.6991 -0.0662323 0 0.00565487 0 0)
(-49.7326 -0.166861 0 0.00378352 0 0)
(-49.7373 -0.253839 0 0.00194862 0 0)
(-49.7466 -0.32803 0 0.000754397 0 0)
(-49.7607 -0.395951 0 -4.55931e-05 0 0)
(-49.7592 -0.464896 0 -0.000653267 0 0)
(-49.7288 -0.54009 0 -0.00126359 0 0)
(-49.6727 -0.624105 0 -0.00196113 0 0)
(-49.5984 -0.71763 0 -0.00271531 0 0)
(-49.5108 -0.821884 0 -0.00345862 0 0)
(-49.4106 -0.938862 0 -0.00413344 0 0)
(-49.2995 -1.07165 0 -0.00470835 0 0)
(-49.18 -1.2222 0 -0.00511832 0 0)
(-49.0584 -1.39252 0 -0.00525653 0 0)
(-48.9406 -1.58171 0 -0.00490718 0 0)
(-48.8364 -1.78944 0 -0.00374211 0 0)
(-48.7504 -2.01133 0 -0.00134784 0 0)
(-48.6934 -2.2452 0 0.00268727 0 0)
(-50.0497 -0.0642083 0 0.00606043 0 0)
(-50.0845 -0.16488 0 0.00392821 0 0)
(-50.1151 -0.245062 0 0.0020686 0 0)
(-50.1346 -0.322195 0 0.000895535 0 0)
(-50.1266 -0.399698 0 2.93037e-05 0 0)
(-50.0877 -0.477688 0 -0.000693049 0 0)
(-50.0282 -0.559697 0 -0.00142782 0 0)
(-49.9625 -0.649125 0 -0.00221994 0 0)
(-49.8988 -0.747433 0 -0.00301624 0 0)
(-49.8349 -0.855892 0 -0.00374315 0 0)
(-49.7661 -0.976193 0 -0.00434152 0 0)
(-49.6875 -1.11082 0 -0.00476761 0 0)
(-49.6019 -1.26115 0 -0.00494124 0 0)
(-49.5107 -1.42865 0 -0.00474482 0 0)
(-49.4257 -1.61242 0 -0.00399617 0 0)
(-49.3473 -1.81237 0 -0.00243798 0 0)
(-49.2933 -2.02448 0 0.000243117 0 0)
(-49.2527 -2.24799 0 0.00428919 0 0)
(-50.1571 -0.0527014 0 0.00737046 0 0)
(-50.1235 -0.151968 0 0.00503455 0 0)
(-50.1248 -0.242937 0 0.0026376 0 0)
(-50.1436 -0.331067 0 0.00141741 0 0)
(-50.1552 -0.413566 0 0.000663023 0 0)
(-50.154 -0.491401 0 0.000105032 0 0)
(-50.1439 -0.570806 0 -0.000447066 0 0)
(-50.1274 -0.656976 0 -0.00103243 0 0)
(-50.1049 -0.75298 0 -0.00158575 0 0)
(-50.0751 -0.861497 0 -0.0020419 0 0)
(-50.0367 -0.984782 0 -0.00237734 0 0)
(-49.9894 -1.12448 0 -0.00257168 0 0)
(-49.9358 -1.28047 0 -0.00255082 0 0)
(-49.8796 -1.45227 0 -0.00216791 0 0)
(-49.8274 -1.63767 0 -0.00121771 0 0)
(-49.7836 -1.83571 0 0.000562315 0 0)
(-49.7557 -2.04272 0 0.00339278 0 0)
(-49.7448 -2.2584 0 0.00747632 0 0)
(-50.3422 -0.0869543 0 0.00873988 0 0)
(-50.3467 -0.146872 0 0.00641059 0 0)
(-50.352 -0.235427 0 0.00449804 0 0)
(-50.3753 -0.324159 0 0.00328362 0 0)
(-50.3914 -0.404467 0 0.0023956 0 0)
(-50.3858 -0.483274 0 0.00174169 0 0)
(-50.3582 -0.567334 0 0.00116382 0 0)
(-50.3137 -0.660068 0 0.000593676 0 0)
(-50.2591 -0.762903 0 6.92577e-05 0 0)
(-50.2008 -0.877236 0 -0.00034553 0 0)
(-50.1438 -1.00405 0 -0.00058738 0 0)
(-50.0929 -1.14448 0 -0.000604601 0 0)
(-50.0512 -1.2984 0 -0.000325512 0 0)
(-50.0235 -1.46605 0 0.000354617 0 0)
(-50.0102 -1.64545 0 0.00154706 0 0)
(-50.0157 -1.83643 0 0.00345456 0 0)
(-50.0361 -2.03479 0 0.00625216 0 0)
(-50.0779 -2.24181 0 0.0100229 0 0)
(-50.1116 -0.0489334 0 0.00805261 0 0)
(-50.1538 -0.140091 0 0.00631126 0 0)
(-50.193 -0.231644 0 0.00424048 0 0)
(-50.2185 -0.321046 0 0.00312712 0 0)
(-50.232 -0.412746 0 0.00223996 0 0)
(-50.2359 -0.507157 0 0.00143955 0 0)
(-50.2266 -0.602388 0 0.000808489 0 0)
(-50.2042 -0.699301 0 0.000349334 0 0)
(-50.1743 -0.801252 0 5.16333e-05 0 0)
(-50.1453 -0.912118 0 -5.3219e-05 0 0)
(-50.1217 -1.03394 0 8.70601e-05 0 0)
(-50.1069 -1.16811 0 0.000522337 0 0)
(-50.1009 -1.31403 0 0.00132159 0 0)
(-50.1068 -1.47215 0 0.00255927 0 0)
(-50.1243 -1.64019 0 0.00433534 0 0)
(-50.159 -1.81915 0 0.00675206 0 0)
(-50.2075 -2.00451 0 0.00992688 0 0)
(-50.2784 -2.19938 0 0.0138744 0 0)
(-49.9688 -0.0119957 0 0.0103364 0 0)
(-49.9612 -0.141782 0 0.0088514 0 0)
(-49.9579 -0.226903 0 0.0066094 0 0)
(-49.9883 -0.299889 0 0.00522697 0 0)
(-50.0497 -0.381357 0 0.00436322 0 0)
(-50.1221 -0.473401 0 0.00368426 0 0)
(-50.1876 -0.571149 0 0.00308441 0 0)
(-50.2393 -0.672613 0 0.00261586 0 0)
(-50.2793 -0.77883 0 0.00235221 0 0)
(-50.3137 -0.892298 0 0.00234986 0 0)
(-50.3478 -1.01476 0 0.00264436 0 0)
(-50.3863 -1.14814 0 0.00324145 0 0)
(-50.4309 -1.2921 0 0.00415826 0 0)
(-50.4836 -1.44695 0 0.00543881 0 0)
(-50.5448 -1.60966 0 0.00714975 0 0)
(-50.6172 -1.78064 0 0.00943933 0 0)
(-50.7004 -1.95496 0 0.0124017 0 0)
(-50.7985 -2.13592 0 0.0160175 0 0)
(-50.1066 -0.0742634 0 0.0110815 0 0)
(-50.0639 -0.134429 0 0.00977911 0 0)
(-50.0513 -0.203862 0 0.0064292 0 0)
(-50.0853 -0.278892 0 0.00477672 0 0)
(-50.1463 -0.360088 0 0.00428587 0 0)
(-50.2142 -0.450112 0 0.0041845 0 0)
(-50.2805 -0.549037 0 0.00400777 0 0)
(-50.3448 -0.654398 0 0.00377008 0 0)
(-50.4054 -0.763436 0 0.00368745 0 0)
(-50.4618 -0.875974 0 0.00390362 0 0)
(-50.5155 -0.993213 0 0.00446372 0 0)
(-50.5721 -1.11777 0 0.00536939 0 0)
(-50.6359 -1.25019 0 0.00660597 0 0)
(-50.7136 -1.39189 0 0.00818588 0 0)
(-50.8057 -1.54024 0 0.0101169 0 0)
(-50.9177 -1.69663 0 0.0124887 0 0)
(-51.0433 -1.8555 0 0.0153713 0 0)
(-51.1908 -2.02185 0 0.0187122 0 0)
(-49.5848 -0.0681853 0 0.0118537 0 0)
(-49.6419 -0.108116 0 0.010841 0 0)
(-49.6896 -0.175037 0 0.00857336 0 0)
(-49.7311 -0.247502 0 0.00773429 0 0)
(-49.7742 -0.31819 0 0.0075149 0 0)
(-49.8332 -0.391617 0 0.00745759 0 0)
(-49.9125 -0.475724 0 0.00732614 0 0)
(-50.0075 -0.57355 0 0.0070535 0 0)
(-50.1124 -0.682645 0 0.00675796 0 0)
(-50.2243 -0.799457 0 0.00666158 0 0)
(-50.3411 -0.920219 0 0.00694463 0 0)
(-50.463 -1.04332 0 0.0076786 0 0)
(-50.591 -1.16697 0 0.00885735 0 0)
(-50.7281 -1.29267 0 0.0104501 0 0)
(-50.8751 -1.41924 0 0.0124087 0 0)
(-51.0352 -1.55044 0 0.014792 0 0)
(-51.2061 -1.68252 0 0.0175999 0 0)
(-51.3921 -1.8219 0 0.0207306 0 0)
(-49.8811 0.00504162 0 0.0108851 0 0)
(-49.9656 -0.0977252 0 0.0100495 0 0)
(-50.0536 -0.17764 0 0.00786223 0 0)
(-50.1395 -0.242286 0 0.0066746 0 0)
(-50.2184 -0.303382 0 0.00618194 0 0)
(-50.3036 -0.367352 0 0.00603205 0 0)
(-50.4034 -0.436798 0 0.00613435 0 0)
(-50.5169 -0.513643 0 0.00647695 0 0)
(-50.6423 -0.598159 0 0.00701881 0 0)
(-50.7806 -0.689748 0 0.00773109 0 0)
(-50.9321 -0.7868 0 0.00861672 0 0)
(-51.0965 -0.888941 0 0.00969493 0 0)
(-51.2732 -0.994684 0 0.0109872 0 0)
(-51.4617 -1.10471 0 0.0125277 0 0)
(-51.66 -1.21679 0 0.0143124 0 0)
(-51.8676 -1.33296 0 0.0164076 0 0)
(-52.0821 -1.44867 0 0.0187904 0 0)
(-52.3045 -1.56886 0 0.0214533 0 0)
(-50.059 0.0620592 0 0.0113841 0 0)
(-49.9872 0.00116985 0 0.0115524 0 0)
(-49.9685 -0.0623904 0 0.00799485 0 0)
(-50.0304 -0.119112 0 0.00602191 0 0)
(-50.1308 -0.172431 0 0.00534678 0 0)
(-50.2348 -0.226194 0 0.0052864 0 0)
(-50.3365 -0.28529 0 0.00555495 0 0)
(-50.4413 -0.35371 0 0.00598366 0 0)
(-50.5535 -0.430966 0 0.00643782 0 0)
(-50.6769 -0.513648 0 0.00695202 0 0)
(-50.8139 -0.597837 0 0.00764831 0 0)
(-50.9658 -0.68224 0 0.0085878 0 0)
(-51.132 -0.766296 0 0.00976109 0 0)
(-51.3134 -0.852051 0 0.0111589 0 0)
(-51.5083 -0.939123 0 0.0127463 0 0)
(-51.7184 -1.03043 0 0.0145441 0 0)
(-51.9399 -1.12247 0 0.0165041 0 0)
(-52.1768 -1.21964 0 0.0185734 0 0)
(-50.3215 -0.115006 0 0.0100938 0 0)
(-50.3907 -0.0864169 0 0.00905786 0 0)
(-50.4726 -0.105829 0 0.00644672 0 0)
(-50.5786 -0.150637 0 0.00534323 0 0)
(-50.6905 -0.198848 0 0.00497234 0 0)
(-50.7993 -0.24711 0 0.00497539 0 0)
(-50.9142 -0.29919 0 0.00518665 0 0)
(-51.0442 -0.356797 0 0.00552214 0 0)
(-51.1918 -0.418529 0 0.00596291 0 0)
(-51.3556 -0.482404 0 0.00654442 0 0)
(-51.5332 -0.546655 0 0.00729177 0 0)
(-51.7213 -0.611363 0 0.00820239 0 0)
(-51.9178 -0.676397 0 0.00926895 0 0)
(-52.121 -0.743161 0 0.0104966 0 0)
(-52.3317 -0.810742 0 0.0118682 0 0)
(-52.5489 -0.880915 0 0.0134255 0 0)
(-52.7749 -0.950643 0 0.0151407 0 0)
(-53.007 -1.02331 0 0.0170009 0 0)
(-50.0289 0.0930287 0 0.0117304 0 0)
(-50.12 0.0645759 0 0.00994207 0 0)
(-50.205 0.0287441 0 0.00660279 0 0)
(-50.3033 -0.0113146 0 0.005262 0 0)
(-50.4275 -0.052814 0 0.00497956 0 0)
(-50.575 -0.0944904 0 0.00506965 0 0)
(-50.7358 -0.136095 0 0.00527486 0 0)
(-50.9045 -0.179971 0 0.00556076 0 0)
(-51.0807 -0.228783 0 0.00594537 0 0)
(-51.2659 -0.283309 0 0.00641689 0 0)
(-51.4608 -0.341731 0 0.00697611 0 0)
(-51.6661 -0.402157 0 0.00765034 0 0)
(-51.8802 -0.462665 0 0.00845815 0 0)
(-52.1044 -0.523674 0 0.00940405 0 0)
(-52.337 -0.584397 0 0.0104486 0 0)
(-52.5801 -0.646497 0 0.0116344 0 0)
(-52.8294 -0.70762 0 0.0129254 0 0)
(-53.0894 -0.770609 0 0.0142858 0 0)
(-49.9625 -0.0243814 0 0.00987458 0 0)
(-50.0082 -0.024669 0 0.00812894 0 0)
(-50.0896 -0.0308456 0 0.00578834 0 0)
(-50.2047 -0.0443245 0 0.00487415 0 0)
(-50.3409 -0.0659678 0 0.0047428 0 0)
(-50.4827 -0.094262 0 0.00498199 0 0)
(-50.6269 -0.128466 0 0.00528936 0 0)
(-50.7785 -0.167873 0 0.00553416 0 0)
(-50.9417 -0.210669 0 0.00576041 0 0)
(-51.1185 -0.254905 0 0.00606236 0 0)
(-51.3086 -0.29894 0 0.0064865 0 0)
(-51.5109 -0.342408 0 0.00703779 0 0)
(-51.7241 -0.385032 0 0.00770033 0 0)
(-51.9477 -0.427838 0 0.00847204 0 0)
(-52.1804 -0.470491 0 0.00932454 0 0)
(-52.4222 -0.514542 0 0.0102946 0 0)
(-52.671 -0.558244 0 0.0113542 0 0)
(-52.9276 -0.604087 0 0.0124738 0 0)
(-50.3355 0.0911297 0 0.00870914 0 0)
(-50.3695 0.0850776 0 0.00605606 0 0)
(-50.4511 0.0861944 0 0.00378373 0 0)
(-50.5709 0.0718581 0 0.00306328 0 0)
(-50.7064 0.0458473 0 0.00303744 0 0)
(-50.8486 0.0166259 0 0.00321578 0 0)
(-51.0036 -0.0125226 0 0.00342787 0 0)
(-51.1772 -0.0421214 0 0.0036462 0 0)
(-51.3677 -0.0740426 0 0.00388713 0 0)
(-51.57 -0.109139 0 0.0041786 0 0)
(-51.7805 -0.146352 0 0.00453648 0 0)
(-51.9981 -0.184457 0 0.00497329 0 0)
(-52.2236 -0.222166 0 0.0054885 0 0)
(-52.4576 -0.25974 0 0.00607647 0 0)
(-52.7001 -0.296825 0 0.00671612 0 0)
(-52.9501 -0.334799 0 0.00742776 0 0)
(-53.2061 -0.372309 0 0.00819069 0 0)
(-53.4669 -0.41122 0 0.00898592 0 0)
(-49.6413 0.0212727 0 0.00796483 0 0)
(-49.6936 0.054435 0 0.00563056 0 0)
(-49.8073 0.0567687 0 0.00395301 0 0)
(-49.9749 0.0461087 0 0.00332594 0 0)
(-50.1646 0.0356247 0 0.00312479 0 0)
(-50.3647 0.0260349 0 0.00312185 0 0)
(-50.5757 0.0130075 0 0.00324575 0 0)
(-50.7979 -0.00642887 0 0.00343746 0 0)
(-51.0301 -0.0318499 0 0.00364285 0 0)
(-51.2706 -0.0606899 0 0.0038691 0 0)
(-51.5176 -0.0898464 0 0.00415669 0 0)
(-51.7695 -0.117591 0 0.00451192 0 0)
(-52.0243 -0.14334 0 0.00490602 0 0)
(-52.2818 -0.168239 0 0.00532987 0 0)
(-52.5409 -0.192825 0 0.00577572 0 0)
(-52.8029 -0.218462 0 0.00628528 0 0)
(-53.0667 -0.244319 0 0.00684778 0 0)
(-53.3349 -0.271607 0 0.00744706 0 0)
(-50.3182 0.0651868 0 0.00664293 0 0)
(-50.4314 0.144777 0 0.00471674 0 0)
(-50.5823 0.154127 0 0.00320056 0 0)
(-50.7555 0.144914 0 0.00256201 0 0)
(-50.9251 0.138304 0 0.00229706 0 0)
(-51.0782 0.132862 0 0.0022238 0 0)
(-51.2215 0.122925 0 0.00228058 0 0)
(-51.3696 0.1068 0 0.00240665 0 0)
(-51.534 0.0862837 0 0.00255525 0 0)
(-51.7205 0.0632187 0 0.00271501 0 0)
(-51.9285 0.0388067 0 0.00289572 0 0)
(-52.1541 0.0135662 0 0.00310634 0 0)
(-52.3918 -0.0117397 0 0.00335364 0 0)
(-52.6374 -0.0370051 0 0.00364526 0 0)
(-52.8872 -0.0617088 0 0.00396295 0 0)
(-53.1398 -0.0862404 0 0.0043266 0 0)
(-53.3928 -0.109822 0 0.00472086 0 0)
(-53.6471 -0.133344 0 0.00512018 0 0)
(-49.6456 0.0824173 0 0.00575255 0 0)
(-49.8516 0.119238 0 0.00367629 0 0)
(-50.0585 0.146787 0 0.00225208 0 0)
(-50.2476 0.147837 0 0.00169519 0 0)
(-50.4219 0.138788 0 0.00155042 0 0)
(-50.5926 0.129473 0 0.00152021 0 0)
(-50.7692 0.119828 0 0.00153276 0 0)
(-50.9549 0.108864 0 0.00157693 0 0)
(-51.1497 0.0971516 0 0.0016469 0 0)
(-51.3538 0.0854237 0 0.0017389 0 0)
(-51.5683 0.0738428 0 0.00185225 0 0)
(-51.7945 0.0619921 0 0.00199108 0 0)
(-52.0328 0.0494943 0 0.00216214 0 0)
(-52.2827 0.0358132 0 0.0023723 0 0)
(-52.5423 0.0209577 0 0.00261637 0 0)
(-52.8097 0.00470747 0 0.00290553 0 0)
(-53.0819 -0.0120669 0 0.00322083 0 0)
(-53.3576 -0.0296122 0 0.00354659 0 0)
(-50.382 0.164981 0 0.00374234 0 0)
(-50.5347 0.195303 0 0.0012933 0 0)
(-50.7399 0.208316 0 0.00052146 0 0)
(-50.9155 0.209119 0 0.000259737 0 0)
(-51.053 0.209321 0 0.000136167 0 0)
(-51.1865 0.208619 0 8.00817e-05 0 0)
(-51.3374 0.203764 0 7.52822e-05 0 0)
(-51.5095 0.19479 0 0.000105348 0 0)
(-51.7003 0.183684 0 0.000157846 0 0)
(-51.9071 0.17228 0 0.000226328 0 0)
(-52.1272 0.161331 0 0.000308108 0 0)
(-52.3571 0.150961 0 0.000401512 0 0)
(-52.5945 0.140814 0 0.000507917 0 0)
(-52.8368 0.130539 0 0.000632649 0 0)
(-53.0844 0.1197 0 0.00077838 0 0)
(-53.3353 0.108193 0 0.000950847 0 0)
(-53.5916 0.0962482 0 0.00114628 0 0)
(-53.8497 0.0840197 0 0.00135708 0 0)
(-50.1949 0.125667 0 0.00359234 0 0)
(-50.5961 0.226241 0 0.000601625 0 0)
(-50.9321 0.217989 0 0.000164023 0 0)
(-51.185 0.209529 0 9.43835e-05 0 0)
(-51.3796 0.209762 0 2.37163e-05 0 0)
(-51.5474 0.21063 0 -2.32371e-05 0 0)
(-51.7034 0.210142 0 -3.73127e-05 0 0)
(-51.8503 0.209243 0 -3.40336e-05 0 0)
(-51.9874 0.20832 0 -2.39919e-05 0 0)
(-52.118 0.207141 0 -6.85393e-06 0 0)
(-52.2447 0.205143 0 2.43768e-05 0 0)
(-52.3728 0.202145 0 7.36631e-05 0 0)
(-52.5025 0.197836 0 0.000145609 0 0)
(-52.6386 0.192462 0 0.000238635 0 0)
(-52.7765 0.185844 0 0.000346594 0 0)
(-52.9221 0.178714 0 0.000470935 0 0)
(-53.064 0.17107 0 0.000606943 0 0)
(-53.2159 0.164028 0 0.000730045 0 0)
(-49.1737 0.237063 0 0.00125845 0 0)
(-47.5154 0.282467 0 -0.000277355 0 0)
(-45.8996 0.260717 0 -0.000378032 0 0)
(-44.3262 0.248756 0 -0.000409932 0 0)
(-42.8322 0.242947 0 -0.000473926 0 0)
(-41.4443 0.234713 0 -0.00048806 0 0)
(-40.1676 0.22339 0 -0.000463169 0 0)
(-38.9945 0.210782 0 -0.000429084 0 0)
(-37.9147 0.198434 0 -0.000397622 0 0)
(-36.921 0.187483 0 -0.000371038 0 0)
(-36.003 0.178461 0 -0.000351972 0 0)
(-35.1546 0.171314 0 -0.000344164 0 0)
(-34.3653 0.165248 0 -0.00034329 0 0)
(-33.6372 0.159495 0 -0.000340312 0 0)
(-32.9602 0.153223 0 -0.000323732 0 0)
(-32.346 0.1465 0 -0.000292197 0 0)
(-31.7729 0.139222 0 -0.000254689 0 0)
(-31.2674 0.132321 0 -0.000221975 0 0)
(0.00749969 -0.0207681 -1.522e-22 0.0563469 3.03435e-22 4.12023e-39)
(0.116904 -0.104893 3.1592e-22 0.0831562 -1.23384e-22 4.0563e-39)
(0.366826 -0.159598 0 0.0507497 0 0)
(0.646375 -0.14102 0 0.00223724 0 0)
(0.803359 -0.0371692 0 -0.0488699 0 0)
(0.779385 0.0953277 6.60003e-23 -0.0764996 -3.95122e-22 3.81153e-39)
(0.500765 0.228243 0 -0.0842067 0 0)
(0.0146744 0.322113 0 -0.0754133 0 0)
(-0.603541 0.372334 0 -0.0586685 0 0)
(-1.26839 0.374344 0 -0.0386032 0 0)
(-1.91102 0.332833 -2.25301e-21 -0.01872 4.26448e-22 3.50273e-39)
(-2.45161 0.255333 0 -0.00147685 0 0)
(-2.82342 0.151063 0 0.0115653 0 0)
(-2.97466 0.0298481 0 0.0191943 0 0)
(-2.87248 -0.0983308 0 0.0207322 0 0)
(-2.51398 -0.220967 -3.75853e-21 0.0156562 -3.39882e-23 3.22797e-39)
(-1.9129 -0.326475 0 0.00404391 0 0)
(-1.12474 -0.400011 0 -0.0133674 0 0)
(-0.205317 -0.432377 0 -0.0349473 0 0)
(0.72697 -0.412798 0 -0.0559883 0 0)
(1.61719 -0.344575 0 -0.0727871 0 0)
(2.30348 -0.233294 0 -0.0726044 0 0)
(2.79751 -0.108818 0 -0.0579658 0 0)
(2.98603 -0.0124566 -1.41134e-21 0.013564 -3.4666e-22 2.86036e-39)
(3.02861 -0.0113011 1.075e-21 0.0607809 3.07915e-22 2.81693e-39)
(3.03702 -0.198885 -8.05826e-22 0.130711 -9.43576e-23 2.77215e-39)
(3.3776 -0.490464 -6.98292e-22 0.199149 2.22319e-22 2.72619e-39)
(3.95402 -0.712974 0 0.345075 0 0)
(4.72161 -0.920593 0 0.447734 0 0)
(5.68845 -1.16627 7.35829e-22 0.57345 -2.47757e-22 2.58278e-39)
(6.8156 -1.36487 8.21059e-22 0.700999 -2.02546e-22 2.53553e-39)
(8.0799 -1.47857 0 0.762124 0 0)
(9.49561 -1.50577 0 0.740553 0 0)
(11.0288 -1.44581 1.4319e-21 0.660262 -1.36752e-22 2.39329e-39)
(12.4862 -1.25478 0 0.528498 0 0)
(13.4934 -0.844914 0 0.361599 0 0)
(13.6241 -0.281485 -1.76552e-21 0.230641 -3.5825e-22 2.25499e-39)
(12.6983 0.265326 0 0.147816 0 0)
(10.7702 0.544418 -9.64499e-22 0.133652 -4.68598e-22 2.1686e-39)
(8.0021 0.35911 -5.70177e-22 0.141891 -6.62889e-22 8.50766e-39)
(4.58531 0.254413 0 0.171217 0 0)
(0.390163 0.860953 0 0.128239 0 0)
(-4.85581 1.93834 0 0.0194948 0 0)
(-11.0291 2.57813 0 0.0113402 0 0)
(-17.0341 2.50251 0 0.0378349 0 0)
(-22.3733 2.21739 1.93878e-20 0.0508961 -2.07683e-21 7.56048e-39)
(-27.0127 1.8975 2.34569e-20 0.0573655 -1.77014e-21 7.41146e-39)
(-30.925 1.57777 2.70876e-20 0.0600468 -1.44159e-21 7.26631e-39)
(-34.1279 1.27401 0 0.0605447 0 0)
(-36.6513 0.992931 -3.25177e-20 0.0597073 8.04064e-22 6.98775e-39)
(-38.5349 0.736655 0 0.0579712 0 0)
(-39.8218 0.505455 3.51667e-20 0.0555468 -2.52807e-22 6.72459e-39)
(-40.5566 0.29817 3.54569e-20 0.0525915 -1.77793e-23 6.59844e-39)
(-40.7842 0.113751 0 0.0491902 0 0)
(-40.5519 -0.0493087 0 0.0454489 0 0)
(-39.9025 -0.192305 0 0.0414576 0 0)
(-38.8811 -0.316343 3.08375e-20 0.0373075 6.43896e-22 6.12495e-39)
(-37.5303 -0.422482 0 0.0330865 0 0)
(-35.8936 -0.511755 0 0.0288776 0 0)
(-34.0117 -0.585007 0 0.0247453 0 0)
(-31.9253 -0.643432 0 0.0207604 0 0)
(-29.6728 -0.688069 0 0.0169733 0 0)
(-27.2899 -0.720403 0 0.0134364 0 0)
(-24.8092 -0.741876 0 0.0101854 0 0)
(-22.2593 -0.754153 0 0.00724998 0 0)
(-19.6644 -0.758528 -4.92848e-21 0.00463879 -8.32682e-22 5.18502e-39)
(-17.0456 -0.756693 0 0.00235946 0 0)
(-14.4216 -0.749238 0 0.000389773 0 0)
(-11.8083 -0.737284 -3.12678e-21 -0.00128519 6.98988e-22 4.89701e-39)
(-9.22123 -0.720985 -5.4713e-21 -0.0027005 6.48601e-22 4.80329e-39)
(-6.67582 -0.700633 0 -0.0038886 0 0)
(-4.18719 -0.676075 9.55167e-21 -0.0048732 -5.41998e-22 4.61911e-39)
(-1.77053 -0.647668 -1.12648e-20 -0.00567062 4.86392e-22 4.52863e-39)
(0.559379 -0.615432 0 -0.00629841 0 0)
(2.78806 -0.579793 1.40032e-20 -0.00677718 -3.72577e-22 4.35098e-39)
(4.90154 -0.540925 0 -0.0071377 0 0)
(6.88683 -0.49932 0 -0.00741502 0 0)
(8.73198 -0.455323 -1.63749e-20 -0.00764782 2.02372e-22 4.0925e-39)
(10.4271 -0.409258 0 -0.00786923 0 0)
(11.9637 -0.361672 1.68488e-20 -0.00810147 -9.36063e-23 3.92568e-39)
(13.333 -0.31265 0 -0.00835673 0 0)
(14.5278 -0.262381 -1.65138e-20 -0.0086329 -8.74477e-24 3.76341e-39)
(15.5403 -0.211115 -1.60671e-20 -0.00891774 -5.70319e-23 3.684e-39)
(16.3625 -0.158977 -1.54475e-20 -0.00919134 -1.03095e-22 3.60576e-39)
(16.9878 -0.105987 -2.93345e-20 -0.00942695 -2.93558e-22 1.41148e-38)
(17.4099 -0.0527114 2.74792e-20 -0.00960148 3.75064e-22 1.38115e-38)
(17.6235 0.000624093 0 -0.00968511 0 0)
(17.6257 0.053412 0 -0.00965509 0 0)
(17.4162 0.104839 0 -0.00949624 0 0)
(16.9977 0.154142 1.77899e-20 -0.00918494 6.24373e-22 1.2648e-38)
(16.3769 0.200215 1.50199e-20 -0.00872212 6.61974e-22 1.237e-38)
(15.565 0.241942 -1.22149e-20 -0.00810652 -6.87597e-22 1.20972e-38)
(14.5779 0.278214 0 -0.00734585 0 0)
(13.4363 0.30799 6.72522e-21 -0.00647716 7.01015e-22 1.15668e-38)
(12.1655 0.330378 4.1485e-21 -0.00553608 6.89113e-22 1.13089e-38)
(10.7944 0.344753 1.74662e-21 -0.00457296 6.65997e-22 1.10556e-38)
(9.35279 0.350794 0 -0.00363768 0 0)
(7.87198 0.348691 0 -0.00277415 0 0)
(6.3853 0.33894 0 -0.00201775 0 0)
(4.92443 0.322645 -5.57539e-21 -0.00138419 4.95565e-22 1.00839e-38)
(3.52249 0.304315 0 -0.000838 0 0)
(2.19994 0.279802 0 -0.000449795 0 0)
(0.963816 0.253286 8.56316e-21 -0.000168344 -3.4784e-22 9.38637e-39)
(-0.173485 0.226005 0 2.68861e-05 0 0)
(-1.20805 0.199037 0 0.000156776 0 0)
(-2.14043 0.1732 1.0018e-20 0.000239065 -2.18723e-22 8.72994e-39)
(-2.97406 0.149026 0 0.000287204 0 0)
(-3.71439 0.126819 0 0.000310956 0 0)
(-4.36816 0.106682 -1.05669e-20 0.000317092 1.24003e-22 8.11407e-39)
(-4.94264 0.0885396 -1.06291e-20 0.000309934 1.00081e-22 7.91709e-39)
(-5.44486 0.0721932 0 0.000292313 0 0)
(-5.88108 0.0574267 1.06399e-20 0.00026632 -6.1205e-23 7.53488e-39)
(-6.25677 0.0441117 0 0.000234443 0 0)
(-6.57721 0.0322274 -1.05422e-20 0.000200224 3.18135e-23 7.16769e-39)
(-6.84801 0.0217945 0 0.000167291 0 0)
(-7.07519 0.0127889 -1.03747e-20 0.00013792 1.04127e-23 6.81484e-39)
(-7.26473 0.00511427 -1.02748e-20 0.000112581 2.16342e-24 6.64359e-39)
(-7.4221 -0.00139544 0 9.07555e-05 0 0)
(-7.55175 -0.00693456 0 7.15871e-05 0 0)
(-7.65734 -0.0116996 0 5.43541e-05 0 0)
(-7.7417 -0.0158957 0 3.86017e-05 0 0)
(-7.80677 -0.0197256 0 2.39396e-05 0 0)
(-7.85377 -0.0233454 0 9.88627e-06 0 0)
(-7.88328 -0.0268644 0 -4.23499e-06 0 0)
(-7.89533 -0.0303337 -9.32801e-21 -1.9052e-05 -3.52169e-23 5.3892e-39)
(-7.88969 -0.0337347 9.19812e-21 -3.46721e-05 3.84513e-23 5.24603e-39)
(-7.86614 -0.037017 0 -5.07263e-05 0 0)
(-7.82465 -0.0401382 0 -6.66823e-05 0 0)
(-7.76543 -0.0430172 0 -8.13741e-05 0 0)
(-7.6892 -0.0455811 0 -9.3644e-05 0 0)
(-7.5969 -0.0478257 1.69965e-20 -0.000103227 1.03366e-22 1.82884e-38)
(-7.48969 -0.0497278 0 -0.000109726 0 0)
(-7.36909 -0.0512253 -1.63915e-20 -0.000112432 -1.08752e-22 1.7285e-38)
(-7.23677 -0.0522706 1.60837e-20 -0.000111008 1.0981e-22 1.67986e-38)
(-7.09444 -0.0528048 0 -0.000105364 0 0)
(-6.94401 -0.0527427 0 -9.58508e-05 0 0)
(-6.78762 -0.0520064 0 -8.38069e-05 0 0)
(-6.62759 -0.0505839 -1.48544e-20 -7.15286e-05 -1.02262e-22 1.49514e-38)
(-6.46634 -0.0485598 -1.45569e-20 -6.11717e-05 -9.74917e-23 1.45133e-38)
(-6.30609 -0.0461148 0 -5.34684e-05 0 0)
(-6.14865 -0.0434781 -1.39862e-20 -4.75772e-05 -8.64567e-23 1.36645e-38)
(-5.99529 -0.0408599 -1.37151e-20 -4.21514e-05 -8.10087e-23 1.32535e-38)
(-5.84673 -0.0384003 1.34541e-20 -3.63895e-05 7.59349e-23 1.28512e-38)
(-5.70327 -0.0361509 0 -3.02531e-05 0 0)
(-5.56497 -0.0340844 0 -2.40976e-05 0 0)
(-5.43184 -0.0321223 1.2729e-20 -1.82996e-05 6.26719e-23 1.16952e-38)
(-5.304 -0.0301692 0 -1.31442e-05 0 0)
(-5.18173 -0.0281431 0 -8.87866e-06 0 0)
(-5.06548 -0.0259978 0 -5.73426e-06 0 0)
(-4.9558 -0.0237357 0 -3.83934e-06 0 0)
(-4.85324 -0.021404 -1.17101e-20 -3.10529e-06 -4.01183e-23 9.93067e-39)
(-4.75819 -0.0190785 -1.15363e-20 -3.22292e-06 -3.55589e-23 9.60094e-39)
(-4.67081 -0.0168421 0 -3.77466e-06 0 0)
(-4.59096 -0.0147671 -1.12186e-20 -4.39152e-06 -2.73752e-23 8.96367e-39)
(-4.51822 -0.0129025 0 -4.84359e-06 0 0)
(-4.45201 -0.0112725 0 -5.05484e-06 0 0)
(-4.39154 -0.00987935 -1.08068e-20 -5.04312e-06 -1.84349e-23 8.06159e-39)
(-4.33609 -0.00871225 0 -4.87758e-06 0 0)
(-4.2848 -0.00775182 -1.05652e-20 -4.62488e-06 -1.46384e-23 7.49483e-39)
(-4.2371 -0.0069778 0 -4.35102e-06 0 0)
(-4.19208 -0.00636968 0 -4.09553e-06 0 0)
(-4.1495 -0.00590946 -1.02363e-20 -3.89663e-06 -1.14049e-23 6.69452e-39)
(-4.10822 -0.00558589 0 -3.77415e-06 0 0)
(-4.06855 -0.00538325 -1.00322e-20 -3.74716e-06 -1.05256e-23 6.19304e-39)
(-4.02865 -0.00531277 0 -3.85075e-06 0 0)
(-3.98979 -0.00534636 0 -4.07756e-06 0 0)
(-3.94853 -0.00555327 0 -4.56746e-06 0 0)
(-3.90799 -0.00584199 9.64272e-21 -5.19758e-06 1.15848e-23 5.26365e-39)
(-3.8617 -0.00644972 0 -6.53312e-06 0 0)
(-3.81582 -0.00704803 -9.44783e-21 -7.87336e-06 -1.39902e-23 4.83437e-39)
(-3.75909 -0.00836607 0 -1.15415e-05 0 0)
(-3.70105 -0.00933155 0 -1.40651e-05 0 0)
(-3.62611 -0.0121294 0 -2.56683e-05 0 0)
(-3.54047 -0.013406 0 -2.90535e-05 0 0)
(-3.43859 -0.0196695 0 -7.35996e-05 0 0)