/*--------------------------------*- C++ -*----------------------------------*\
  =========                 |
  \\      /  F ield         | OpenFOAM: The Open Source CFD Toolbox
   \\    /   O peration     | Website:  https://openfoam.org
    \\  /    A nd           | Version:  9
     \\/     M anipulation  |
\*---------------------------------------------------------------------------*/
FoamFile
{
    format      ascii;
    class       volScalarField;
    location    "0.19";
    object      p;
}
// * * * * * * * * * * * * * * * * * * * * * * * * * * * * * * * * * * * * * //

dimensions      [0 2 -2 0 0 0 0];

internalField   nonuniform List<scalar> 
12225
(
-1.1237
-3.40671
-4.56919
-4.8774
-5.0457
-5.20547
-5.33011
-5.41859
-5.48826
-5.54936
-5.60365
-5.65098
-5.69163
-5.72492
-5.7497
-5.75562
-5.75233
-5.6436
-4.59121
-5.29332
-5.38356
-5.24854
-5.20852
-5.27585
-5.35667
-5.4226
-5.4797
-5.53319
-5.58286
-5.62755
-5.66696
-5.70021
-5.72685
-5.73983
-5.75202
-5.73612
-4.79595
-4.693
-4.8498
-4.97196
-5.07938
-5.20175
-5.31012
-5.39287
-5.46018
-5.52014
-5.57443
-5.6228
-5.66542
-5.702
-5.73297
-5.7552
-5.78302
-5.81524
-4.65866
-4.58054
-4.85662
-5.03538
-5.12989
-5.2271
-5.32229
-5.39995
-5.46466
-5.523
-5.57644
-5.62462
-5.66768
-5.70576
-5.73987
-5.77008
-5.80814
-5.86035
-4.66563
-4.68289
-4.92299
-5.07293
-5.14903
-5.23381
-5.32351
-5.39969
-5.46379
-5.52166
-5.57499
-5.62358
-5.66769
-5.70787
-5.7456
-5.7826
-5.82752
-5.88716
-4.72732
-4.76978
-4.94759
-5.07836
-5.15641
-5.23903
-5.32543
-5.4004
-5.46416
-5.52181
-5.57517
-5.62428
-5.66951
-5.71173
-5.75263
-5.79452
-5.84355
-5.90516
-4.78706
-4.82658
-4.963
-5.08526
-5.16771
-5.24751
-5.32929
-5.40227
-5.46549
-5.52285
-5.5762
-5.62577
-5.67205
-5.71606
-5.7595
-5.80467
-5.8558
-5.91645
-4.84021
-4.87511
-4.98543
-5.0981
-5.18072
-5.2567
-5.33376
-5.40456
-5.46712
-5.52415
-5.57743
-5.62741
-5.67463
-5.72012
-5.76545
-5.81258
-5.8643
-5.92253
-4.89
-4.92174
-5.01254
-5.11339
-5.19352
-5.26607
-5.33893
-5.40741
-5.46909
-5.52568
-5.57881
-5.62908
-5.67702
-5.7236
-5.77015
-5.81818
-5.86943
-5.92468
-4.93736
-4.96599
-5.04118
-5.13012
-5.20656
-5.27603
-5.34506
-5.411
-5.47151
-5.52751
-5.58038
-5.63074
-5.67913
-5.72636
-5.77349
-5.8216
-5.8717
-5.92392
-4.98213
-5.00742
-5.07023
-5.14833
-5.22027
-5.28663
-5.35207
-5.41534
-5.47445
-5.52969
-5.58213
-5.63237
-5.6809
-5.72836
-5.77553
-5.82314
-5.87171
-5.92102
-5.02065
-5.04298
-5.09684
-5.16613
-5.23345
-5.2968
-5.35915
-5.41996
-5.4776
-5.53199
-5.58388
-5.6338
-5.68218
-5.7295
-5.77632
-5.8231
-5.87011
-5.91697
-5.05635
-5.07614
-5.12269
-5.18424
-5.24685
-5.30714
-5.3666
-5.425
-5.48107
-5.53449
-5.58569
-5.63514
-5.68314
-5.73007
-5.77628
-5.82204
-5.86744
-5.91209
-5.09388
-5.11118
-5.15098
-5.20499
-5.26238
-5.31912
-5.37545
-5.4312
-5.48538
-5.53753
-5.5878
-5.63649
-5.68383
-5.73003
-5.77529
-5.81972
-5.8633
-5.90569
-5.132
-5.1469
-5.18076
-5.22779
-5.27972
-5.33253
-5.38557
-5.43848
-5.49049
-5.54105
-5.59009
-5.63771
-5.68403
-5.72915
-5.77312
-5.81595
-5.85758
-5.89773
-5.16877
-5.18152
-5.21039
-5.25132
-5.298
-5.34676
-5.39643
-5.44644
-5.49609
-5.54479
-5.59229
-5.63852
-5.6835
-5.7272
-5.76961
-5.81066
-5.85029
-5.88829
-5.20132
-5.21232
-5.23731
-5.27333
-5.31544
-5.36044
-5.40694
-5.45419
-5.50146
-5.54815
-5.5939
-5.63851
-5.6819
-5.72396
-5.76463
-5.80384
-5.8415
-5.87751
-5.22527
-5.23507
-5.25746
-5.29014
-5.32899
-5.37113
-5.41512
-5.46009
-5.5053
-5.55014
-5.59418
-5.63715
-5.67889
-5.71928
-5.75823
-5.79566
-5.83152
-5.86573
-5.23368
-5.24303
-5.2645
-5.29604
-5.33372
-5.37472
-5.41755
-5.46133
-5.50535
-5.54899
-5.59178
-5.63345
-5.67382
-5.71279
-5.75027
-5.7862
-5.82056
-5.85333
-5.21871
-5.22877
-5.25175
-5.28539
-5.32518
-5.36778
-5.41165
-5.45611
-5.50054
-5.5443
-5.58695
-5.62826
-5.66811
-5.70642
-5.74314
-5.77825
-5.81174
-5.84365
-5.19251
-5.2037
-5.22949
-5.26722
-5.31097
-5.35654
-5.40258
-5.44879
-5.49453
-5.53911
-5.58219
-5.62367
-5.6635
-5.70164
-5.73807
-5.7728
-5.80588
-5.83735
-5.15757
-5.16994
-5.19998
-5.24445
-5.29395
-5.34308
-5.39181
-5.44051
-5.48822
-5.53407
-5.57788
-5.61978
-5.65982
-5.69799
-5.73431
-5.76886
-5.80169
-5.8329
-5.11695
-5.12955
-5.16492
-5.2195
-5.27662
-5.32962
-5.38119
-5.43258
-5.48236
-5.52953
-5.57422
-5.61671
-5.65709
-5.6954
-5.73173
-5.76619
-5.79889
-5.82995
-5.07311
-5.08467
-5.12706
-5.19367
-5.25836
-5.31599
-5.37189
-5.42657
-5.47807
-5.52614
-5.57148
-5.61446
-5.65513
-5.69353
-5.72984
-5.76423
-5.79682
-5.82774
-5.02625
-5.03401
-5.09505
-5.17483
-5.23995
-5.2996
-5.36149
-5.42106
-5.47481
-5.52385
-5.56987
-5.61334
-5.65422
-5.69266
-5.7289
-5.76319
-5.79567
-5.82652
-4.9783
-4.95465
-5.06544
-5.17436
-5.23492
-5.289
-5.35241
-5.41474
-5.47
-5.51999
-5.56683
-5.61089
-5.6521
-5.69069
-5.72698
-5.76126
-5.79371
-5.8245
-4.96899
-4.82465
-4.98368
-5.14986
-5.23433
-5.29532
-5.36009
-5.42121
-5.47492
-5.52402
-5.57038
-5.614
-5.65475
-5.6929
-5.72877
-5.76266
-5.7948
-5.82539
-5.11439
-4.83059
-4.86531
-4.99574
-5.11529
-5.22226
-5.31628
-5.39199
-5.45418
-5.50936
-5.56003
-5.60655
-5.64926
-5.68877
-5.72562
-5.76017
-5.79295
-5.82458
-5.05119
-5.55088
-5.56098
-5.40169
-5.32068
-5.34485
-5.39894
-5.44829
-5.49333
-5.53782
-5.58138
-5.62273
-5.6615
-5.6979
-5.73212
-5.76425
-5.79458
-5.82493
-1.71251
-3.58306
-4.65432
-4.94734
-5.08214
-5.21885
-5.33071
-5.41064
-5.47353
-5.52948
-5.58069
-5.62728
-5.66978
-5.70896
-5.74522
-5.77858
-5.8087
-5.83379
-6.72623
-6.72623
-6.72661
-6.72733
-6.72829
-6.72949
-6.73092
-6.7326
-6.73454
-6.73675
-6.73927
-6.74213
-6.74535
-6.74898
-6.75305
-6.7576
-6.76266
-6.76827
-6.77446
-6.78128
-6.78875
-6.79691
-6.8058
-6.81547
-6.82595
-6.8373
-6.84956
-6.86275
-6.87691
-6.89195
-6.90779
-6.9245
-6.94241
-6.96177
-6.98257
-7.00427
-7.02744
-7.05279
-7.07916
-7.10633
-7.1391
-7.17624
-7.19572
-7.20687
-7.23018
-7.25684
-7.28466
-7.31366
-7.34346
-7.37389
-7.40476
-7.43594
-7.46733
-7.4988
-7.53024
-7.56156
-7.59263
-7.62335
-7.6536
-7.68327
-7.71222
-7.74032
-7.76744
-7.79343
-7.81815
-7.84145
-7.86316
-7.88312
-7.90117
-7.91713
-7.93082
-7.94207
-7.95068
-7.95649
-7.95929
-7.9589
-7.95514
-7.9478
-7.9367
-7.92165
-7.90247
-7.87896
-7.85096
-7.81827
-7.78073
-7.73816
-7.6904
-7.63729
-7.57867
-7.51439
-7.44431
-7.36829
-7.28621
-7.19795
-7.10341
-7.00249
-6.89517
-6.78146
-6.66132
-6.53454
-6.40083
-6.26005
-6.11236
-5.9578
-5.79639
-5.62817
-5.45316
-5.27141
-5.08298
-4.88793
-4.68637
-4.4784
-4.26414
-4.04374
-3.81733
-3.58511
-3.34724
-3.10392
-2.85537
-2.60181
-2.34348
-2.08062
-1.8135
-1.54238
-1.26754
-0.989275
-0.707874
-0.42364
-0.136879
0.152097
0.442973
0.735431
1.02915
1.32382
1.61911
1.91471
2.2103
2.50559
2.80025
3.09399
3.38652
3.67756
3.96683
4.25406
4.539
4.8214
5.10102
5.37765
5.65107
5.92108
6.1875
6.45016
6.70888
6.96354
7.21398
7.46008
7.70174
7.93884
8.17131
8.39906
8.62203
8.84015
9.0534
9.26173
9.46514
9.66356
9.85681
10.0448
10.2275
10.4049
10.5771
10.744
10.9057
11.0622
11.2136
11.3602
11.5029
11.6431
11.79
11.9441
-6.72476
-6.72509
-6.72558
-6.72617
-6.72674
-6.72732
-6.72804
-6.72901
-6.73029
-6.73192
-6.73391
-6.73628
-6.73905
-6.74224
-6.74587
-6.74998
-6.75459
-6.75973
-6.76543
-6.77173
-6.77865
-6.78623
-6.7945
-6.80349
-6.81324
-6.82375
-6.83504
-6.84707
-6.85981
-6.87326
-6.88763
-6.90312
-6.9197
-6.93712
-6.95512
-6.97417
-6.9944
-7.0149
-7.03603
-7.05935
-7.08124
-7.09595
-7.12323
-7.16543
-7.20068
-7.23137
-7.26155
-7.29176
-7.32219
-7.3529
-7.38386
-7.41502
-7.44633
-7.47769
-7.50901
-7.5402
-7.57116
-7.60177
-7.63194
-7.66155
-7.69046
-7.71855
-7.74569
-7.77174
-7.79655
-7.81997
-7.84184
-7.862
-7.88028
-7.89651
-7.91052
-7.92213
-7.93114
-7.93739
-7.94068
-7.94082
-7.93763
-7.9309
-7.92047
-7.90613
-7.8877
-7.865
-7.83784
-7.80605
-7.76945
-7.72787
-7.68115
-7.62913
-7.57165
-7.50857
-7.43974
-7.36504
-7.28433
-7.1975
-7.10444
-7.00503
-6.89918
-6.78675
-6.66758
-6.5415
-6.40862
-6.26918
-6.123
-5.97004
-5.81027
-5.64369
-5.47035
-5.29026
-5.1035
-4.91013
-4.71024
-4.50393
-4.29132
-4.07255
-3.84776
-3.61713
-3.38083
-3.13906
-2.89202
-2.63994
-2.38304
-2.12158
-1.85582
-1.58601
-1.31244
-1.03538
-0.755139
-0.472008
-0.186293
0.101696
0.391645
0.683239
0.976158
1.27009
1.5647
1.85969
2.15475
2.44955
2.7438
3.03719
3.32944
3.62026
3.90937
4.1965
4.48139
4.76381
5.04351
5.32026
5.59385
5.86409
6.13078
6.39375
6.65283
6.90788
7.15874
7.40531
7.64745
7.88507
8.11808
8.34639
8.56994
8.78867
9.00253
9.2115
9.41554
9.61458
9.80847
9.9971
10.1805
10.3586
10.5315
10.6991
10.8616
11.019
11.1714
11.3193
11.4639
11.6062
11.7564
11.9045
-6.72098
-6.72215
-6.72338
-6.72443
-6.72518
-6.72575
-6.72637
-6.72717
-6.72825
-6.72967
-6.73144
-6.73361
-6.73618
-6.73919
-6.74265
-6.7466
-6.75106
-6.75606
-6.76163
-6.7678
-6.7746
-6.78206
-6.7902
-6.79908
-6.8087
-6.81909
-6.83029
-6.8423
-6.85514
-6.86882
-6.88345
-6.89919
-6.91609
-6.93408
-6.95302
-6.97295
-6.99397
-7.01575
-7.038
-7.06093
-7.08401
-7.106
-7.13037
-7.15931
-7.18873
-7.21796
-7.24745
-7.27723
-7.30727
-7.33757
-7.3681
-7.3988
-7.42962
-7.46049
-7.49132
-7.52203
-7.55253
-7.58271
-7.61246
-7.64167
-7.67023
-7.698
-7.72485
-7.75065
-7.77526
-7.79851
-7.82026
-7.84036
-7.85862
-7.87488
-7.88897
-7.90071
-7.90992
-7.91641
-7.92
-7.92051
-7.91773
-7.91149
-7.90159
-7.88786
-7.87009
-7.84811
-7.82174
-7.7908
-7.7551
-7.7145
-7.66881
-7.61788
-7.56155
-7.49968
-7.43211
-7.35873
-7.27939
-7.19398
-7.10238
-7.00448
-6.90017
-6.7893
-6.67178
-6.54758
-6.41663
-6.27901
-6.13466
-5.98355
-5.82566
-5.66099
-5.48956
-5.31142
-5.1266
-4.93518
-4.73724
-4.53287
-4.32221
-4.10537
-3.8825
-3.65377
-3.41935
-3.17943
-2.93421
-2.68391
-2.42876
-2.16901
-1.9049
-1.6367
-1.36469
-1.08914
-0.810342
-0.528596
-0.244202
0.0425311
0.331293
0.621768
0.913642
1.2066
1.50031
1.79448
2.08879
2.38292
2.67657
2.96945
3.26126
3.55171
3.84052
4.12744
4.41219
4.69453
4.97422
5.25103
5.52474
5.79516
6.0621
6.32536
6.58479
6.84023
7.09154
7.33859
7.58126
7.81944
8.05304
8.28197
8.50615
8.72553
8.94004
9.14964
9.3543
9.55393
9.7485
9.93792
10.1221
10.3011
10.4749
10.6435
10.8069
10.9653
11.119
11.2683
11.4148
11.5588
11.7117
11.8495
-6.71541
-6.71739
-6.71973
-6.72168
-6.72303
-6.72402
-6.72492
-6.72589
-6.72705
-6.72849
-6.73025
-6.73239
-6.73493
-6.7379
-6.74132
-6.74522
-6.74964
-6.75459
-6.76011
-6.76622
-6.77296
-6.78035
-6.78842
-6.7972
-6.80672
-6.81701
-6.82809
-6.83997
-6.85269
-6.86629
-6.88081
-6.89633
-6.91289
-6.93049
-6.94909
-6.96868
-6.98922
-7.01066
-7.03291
-7.0559
-7.07948
-7.10373
-7.12911
-7.15592
-7.18363
-7.2119
-7.24067
-7.26985
-7.29938
-7.32921
-7.35929
-7.38956
-7.41996
-7.45042
-7.48087
-7.5112
-7.54135
-7.5712
-7.60065
-7.62959
-7.6579
-7.68547
-7.71215
-7.73781
-7.76231
-7.7855
-7.80722
-7.82733
-7.84564
-7.86199
-7.87622
-7.88813
-7.89755
-7.90431
-7.9082
-7.90905
-7.90666
-7.90086
-7.89144
-7.87823
-7.86103
-7.83966
-7.81395
-7.7837
-7.74876
-7.70894
-7.66409
-7.61403
-7.55862
-7.49771
-7.43114
-7.35879
-7.28052
-7.1962
-7.10572
-7.00895
-6.90579
-6.79613
-6.67987
-6.557
-6.42748
-6.29128
-6.14836
-5.9987
-5.84228
-5.67909
-5.50916
-5.33251
-5.1492
-4.95929
-4.76286
-4.56001
-4.35085
-4.13551
-3.91413
-3.68687
-3.4539
-3.21541
-2.97161
-2.72269
-2.46891
-2.21048
-1.94767
-1.68072
-1.40993
-1.13555
-0.85789
-0.57723
-0.293875
-0.00813017
0.279695
0.569287
0.86033
1.15251
1.44551
1.73902
2.03273
2.32632
2.61949
2.91194
3.20339
3.49353
3.7821
4.06882
4.35344
4.6357
4.91537
5.19221
5.466
5.73655
6.00366
6.26714
6.52683
6.78257
7.03422
7.28164
7.52471
7.76332
7.99737
8.22678
8.45146
8.67137
8.88642
9.09657
9.30173
9.50184
9.69688
9.88683
10.0716
10.2512
10.4256
10.5948
10.7589
10.9181
11.0726
11.2229
11.3703
11.5144
11.6662
11.7917
-6.70941
-6.71227
-6.7158
-6.71877
-6.7209
-6.72248
-6.72383
-6.72515
-6.72659
-6.72823
-6.73017
-6.73244
-6.7351
-6.73817
-6.74169
-6.74568
-6.75018
-6.75522
-6.76081
-6.767
-6.77381
-6.78127
-6.78942
-6.79828
-6.80788
-6.81825
-6.82941
-6.8414
-6.85423
-6.86794
-6.88258
-6.89817
-6.91475
-6.93231
-6.95083
-6.97029
-6.99068
-7.01193
-7.03402
-7.05692
-7.08058
-7.10502
-7.13042
-7.15681
-7.18396
-7.21171
-7.23997
-7.26868
-7.29778
-7.32721
-7.35692
-7.38684
-7.41692
-7.44707
-7.47722
-7.50728
-7.53718
-7.5668
-7.59605
-7.62481
-7.65297
-7.68041
-7.70699
-7.73258
-7.75704
-7.78022
-7.80195
-7.8221
-7.84048
-7.85694
-7.87129
-7.88336
-7.89298
-7.89995
-7.90409
-7.90522
-7.90314
-7.89767
-7.88861
-7.87579
-7.85902
-7.83811
-7.81287
-7.78314
-7.74874
-7.70949
-7.66523
-7.6158
-7.56104
-7.50081
-7.43495
-7.36333
-7.28582
-7.20228
-7.1126
-7.01665
-6.91435
-6.80558
-6.69028
-6.56839
-6.43986
-6.30465
-6.16273
-6.01407
-5.85866
-5.69649
-5.52757
-5.35195
-5.16967
-4.98079
-4.78538
-4.58356
-4.37542
-4.16109
-3.94072
-3.71445
-3.48247
-3.24496
-3.00211
-2.75414
-2.50127
-2.24374
-1.98181
-1.71572
-1.44575
-1.17218
-0.895288
-0.61537
-0.332726
-0.0476581
0.239523
0.528507
0.818979
1.11062
1.40313
1.69618
1.98947
2.28268
2.57551
2.86766
3.15884
3.44877
3.73716
4.02374
4.30825
4.59045
4.87009
5.14693
5.42077
5.6914
5.95862
6.22224
6.48211
6.73805
6.98993
7.2376
7.48094
7.71985
7.95423
8.18398
8.40902
8.62929
8.84472
9.05522
9.26072
9.46115
9.65648
9.84673
10.0318
10.2118
10.3866
10.5562
10.7207
10.8803
11.0352
11.1858
11.3331
11.4761
11.625
11.7389
-6.70424
-6.70785
-6.71243
-6.71637
-6.71928
-6.72151
-6.72341
-6.72519
-6.72701
-6.72899
-6.73121
-6.73374
-6.73664
-6.73993
-6.74366
-6.74786
-6.75256
-6.75779
-6.76359
-6.76997
-6.77698
-6.78464
-6.79299
-6.80205
-6.81186
-6.82245
-6.83384
-6.84605
-6.85912
-6.87307
-6.88792
-6.90369
-6.92041
-6.93806
-6.95664
-6.97612
-6.99648
-7.01768
-7.03971
-7.06252
-7.08611
-7.11046
-7.13563
-7.1616
-7.18829
-7.21559
-7.24343
-7.27175
-7.3005
-7.32961
-7.35902
-7.38867
-7.41849
-7.44842
-7.47836
-7.50825
-7.53798
-7.56746
-7.59659
-7.62526
-7.65335
-7.68073
-7.70728
-7.73286
-7.75733
-7.78054
-7.80234
-7.82256
-7.84104
-7.85761
-7.8721
-7.88433
-7.89412
-7.90128
-7.90563
-7.90698
-7.90515
-7.89995
-7.89118
-7.87865
-7.8622
-7.84162
-7.81673
-7.78737
-7.75335
-7.7145
-7.67067
-7.62167
-7.56737
-7.50761
-7.44225
-7.37114
-7.29416
-7.21116
-7.12205
-7.02669
-6.925
-6.81687
-6.70224
-6.58102
-6.45317
-6.31864
-6.17739
-6.02941
-5.87467
-5.71317
-5.54493
-5.36999
-5.18838
-5.00018
-4.80545
-4.6043
-4.39683
-4.18317
-3.96346
-3.73786
-3.50653
-3.26966
-3.02745
-2.7801
-2.52785
-2.27092
-2.00958
-1.74406
-1.47465
-1.20162
-0.925259
-0.645848
-0.36369
-0.0790893
0.207647
0.496207
0.786279
1.07755
1.3697
1.66242
1.95541
2.24834
2.54092
2.83285
3.12383
3.41359
3.70183
3.98829
4.27271
4.55484
4.83444
5.11127
5.38512
5.65578
5.92305
6.18675
6.44672
6.70278
6.95479
7.20262
7.44615
7.68526
7.91985
8.14983
8.37511
8.59561
8.81127
9.02199
9.22771
9.42835
9.62389
9.81433
9.99965
10.1798
10.3548
10.5247
10.6895
10.8492
11.0043
11.1547
11.3015
11.4428
11.5886
11.6921
-6.7007
-6.70489
-6.7103
-6.71505
-6.71867
-6.72152
-6.72395
-6.72621
-6.72846
-6.73082
-6.73339
-6.73625
-6.73945
-6.74304
-6.74705
-6.75153
-6.7565
-6.762
-6.76806
-6.77471
-6.78199
-6.78992
-6.79853
-6.80787
-6.81794
-6.82879
-6.84043
-6.8529
-6.86621
-6.88038
-6.89544
-6.91138
-6.92822
-6.94595
-6.96456
-6.98405
-7.00438
-7.02554
-7.0475
-7.07024
-7.09374
-7.11799
-7.14298
-7.1687
-7.19509
-7.22209
-7.24964
-7.2777
-7.30619
-7.33508
-7.36429
-7.39376
-7.42343
-7.45322
-7.48305
-7.51284
-7.5425
-7.57193
-7.60102
-7.62967
-7.65776
-7.68517
-7.71175
-7.73739
-7.76193
-7.78522
-7.80711
-7.82744
-7.84604
-7.86274
-7.87737
-7.88975
-7.8997
-7.90703
-7.91157
-7.91311
-7.91147
-7.90647
-7.8979
-7.8856
-7.86937
-7.84902
-7.82438
-7.79526
-7.7615
-7.72292
-7.67936
-7.63065
-7.57665
-7.5172
-7.45215
-7.38138
-7.30473
-7.2221
-7.13336
-7.03839
-6.93709
-6.82938
-6.71518
-6.59439
-6.46697
-6.33286
-6.19204
-6.04447
-5.89015
-5.72907
-5.56125
-5.38672
-5.20553
-5.01774
-4.82343
-4.6227
-4.41565
-4.2024
-3.98311
-3.75792
-3.52701
-3.29054
-3.04874
-2.80179
-2.54994
-2.29341
-2.03245
-1.76732
-1.49829
-1.22562
-0.949614
-0.670551
-0.388731
-0.104456
0.181965
0.470222
0.760003
1.05099
1.34288
1.63536
1.92811
2.22083
2.51321
2.80495
3.09576
3.38537
3.67348
3.95982
4.24414
4.52619
4.80572
5.08251
5.35633
5.62697
5.89425
6.15797
6.41797
6.67409
6.92617
7.1741
7.41772
7.65695
7.89166
8.12177
8.34719
8.56783
8.78363
8.9945
9.20035
9.40113
9.59682
9.7874
9.97287
10.1532
10.3283
10.4983
10.6632
10.823
10.978
11.1281
11.274
11.4133
11.5563
11.6506
-6.69925
-6.70384
-6.70984
-6.7152
-6.71939
-6.72276
-6.72569
-6.7284
-6.73106
-6.7338
-6.73673
-6.73993
-6.74345
-6.74735
-6.75167
-6.75645
-6.76172
-6.76751
-6.77387
-6.78081
-6.78837
-6.79659
-6.80548
-6.81509
-6.82543
-6.83654
-6.84843
-6.86113
-6.87465
-6.88902
-6.90424
-6.92031
-6.93725
-6.95505
-6.97369
-6.99318
-7.01349
-7.0346
-7.05651
-7.07918
-7.10261
-7.12676
-7.15164
-7.1772
-7.20342
-7.23025
-7.25764
-7.28553
-7.31389
-7.34265
-7.37176
-7.40115
-7.43076
-7.46051
-7.49031
-7.5201
-7.54977
-7.57922
-7.60836
-7.63707
-7.66523
-7.69272
-7.7194
-7.74514
-7.76978
-7.7932
-7.81521
-7.83567
-7.85441
-7.87125
-7.88602
-7.89855
-7.90864
-7.91612
-7.92079
-7.92248
-7.92099
-7.91612
-7.9077
-7.89554
-7.87945
-7.85924
-7.83474
-7.80577
-7.77215
-7.73371
-7.6903
-7.64175
-7.58791
-7.52862
-7.46375
-7.39315
-7.3167
-7.23426
-7.14573
-7.05097
-6.94991
-6.84243
-6.72845
-6.6079
-6.4807
-6.34682
-6.20621
-6.05886
-5.90475
-5.74388
-5.57627
-5.40195
-5.22097
-5.0334
-4.83931
-4.6388
-4.43197
-4.21895
-3.99989
-3.77493
-3.54425
-3.30803
-3.06646
-2.81976
-2.56814
-2.31185
-2.05114
-1.78625
-1.51746
-1.24503
-0.969266
-0.69044
-0.408853
-0.124808
0.161387
0.449423
0.738988
1.02977
1.32145
1.61373
1.90629
2.19883
2.49104
2.78261
3.07327
3.36273
3.65071
3.93693
4.22114
4.50309
4.78252
5.05923
5.33298
5.60357
5.87081
6.13451
6.3945
6.65061
6.90271
7.15065
7.39432
7.63358
7.86835
8.09852
8.32401
8.54473
8.7606
8.97155
9.17749
9.37837
9.57415
9.76483
9.95039
10.1308
10.306
10.4761
10.641
10.8007
10.9554
11.105
11.2498
11.3871
11.5275
11.6138
-6.70008
-6.70487
-6.71122
-6.71698
-6.72159
-6.72538
-6.7287
-6.73179
-6.73482
-6.73791
-6.74117
-6.74468
-6.7485
-6.7527
-6.75731
-6.76237
-6.76792
-6.77399
-6.78061
-6.78782
-6.79565
-6.80412
-6.81327
-6.82312
-6.83369
-6.84502
-6.85711
-6.87
-6.8837
-6.89821
-6.91355
-6.92973
-6.94674
-6.96458
-6.98326
-7.00275
-7.02305
-7.04414
-7.06601
-7.08864
-7.11202
-7.13613
-7.16094
-7.18643
-7.21257
-7.23933
-7.26665
-7.29449
-7.32281
-7.35154
-7.38064
-7.41004
-7.43967
-7.46946
-7.49933
-7.52919
-7.55894
-7.5885
-7.61774
-7.64657
-7.67485
-7.70247
-7.72929
-7.75517
-7.77996
-7.80351
-7.82567
-7.84627
-7.86515
-7.88212
-7.89702
-7.90967
-7.91987
-7.92746
-7.93223
-7.93401
-7.9326
-7.92782
-7.91947
-7.90737
-7.89133
-7.87117
-7.84672
-7.81779
-7.78421
-7.74581
-7.70244
-7.65393
-7.60012
-7.54088
-7.47605
-7.40551
-7.32912
-7.24675
-7.15828
-7.06361
-6.96262
-6.85522
-6.74131
-6.62082
-6.49368
-6.35986
-6.2193
-6.072
-5.91794
-5.75712
-5.58956
-5.4153
-5.23438
-5.04688
-4.85285
-4.65242
-4.44567
-4.23274
-4.01377
-3.78891
-3.55834
-3.32223
-3.08078
-2.8342
-2.58272
-2.32657
-2.06599
-1.80125
-1.53261
-1.26035
-0.98474
-0.706078
-0.424657
-0.140781
0.145244
0.433108
0.7225
1.01311
1.30462
1.59673
1.88912
2.18149
2.47354
2.76496
3.05546
3.34477
3.63259
3.91867
4.20275
4.48457
4.76389
5.04049
5.31414
5.58464
5.8518
6.11542
6.37535
6.63141
6.88347
7.13138
7.37503
7.61428
7.84905
8.07923
8.30474
8.52548
8.74138
8.95235
9.15834
9.35927
9.55511
9.74584
9.93145
10.1119
10.2871
10.4572
10.622
10.7816
10.9359
11.0848
11.2285
11.3637
11.5017
11.5812
-6.70314
-6.70799
-6.71445
-6.72041
-6.72527
-6.72935
-6.73297
-6.73635
-6.73966
-6.74303
-6.74656
-6.75032
-6.7544
-6.75884
-6.76368
-6.76897
-6.77475
-6.78104
-6.78788
-6.79531
-6.80334
-6.81202
-6.82136
-6.83139
-6.84214
-6.85363
-6.86587
-6.8789
-6.89271
-6.90733
-6.92275
-6.93899
-6.95606
-6.97394
-6.99263
-7.01213
-7.03244
-7.05353
-7.0754
-7.09803
-7.1214
-7.14551
-7.17032
-7.19581
-7.22195
-7.24871
-7.27605
-7.30393
-7.33229
-7.36108
-7.39026
-7.41975
-7.44948
-7.47938
-7.50937
-7.53937
-7.56927
-7.59897
-7.62837
-7.65736
-7.68581
-7.71359
-7.74057
-7.7666
-7.79154
-7.81524
-7.83754
-7.85826
-7.87725
-7.89433
-7.90933
-7.92205
-7.93233
-7.93997
-7.94478
-7.94659
-7.94519
-7.94041
-7.93205
-7.91993
-7.90386
-7.88367
-7.85917
-7.83019
-7.79655
-7.75809
-7.71465
-7.66608
-7.61221
-7.5529
-7.48802
-7.41742
-7.34098
-7.25856
-7.17006
-7.07534
-6.9743
-6.86684
-6.75287
-6.63231
-6.50511
-6.37121
-6.23058
-6.08321
-5.92907
-5.76819
-5.60056
-5.42624
-5.24527
-5.05772
-4.86366
-4.6632
-4.45643
-4.24349
-4.02453
-3.79968
-3.56913
-3.33305
-3.09165
-2.84512
-2.5937
-2.33763
-2.07714
-1.81249
-1.54395
-1.2718
-0.996309
-0.717774
-0.436488
-0.152753
0.133124
0.420836
0.710071
1.00052
1.29187
1.5838
1.87602
2.16821
2.46008
2.75133
3.04166
3.33079
3.61845
3.90437
4.18828
4.46995
4.74911
5.02556
5.29908
5.56945
5.83648
6.09998
6.3598
6.61577
6.86774
7.11557
7.35915
7.59835
7.83307
8.06321
8.28868
8.5094
8.72528
8.93626
9.14224
9.34319
9.53906
9.72981
9.91543
10.0959
10.2711
10.4411
10.6058
10.7651
10.9189
11.067
11.2095
11.3427
11.4785
11.5522
-6.70826
-6.71301
-6.71939
-6.72536
-6.73033
-6.73456
-6.73836
-6.74193
-6.74543
-6.74899
-6.75269
-6.75664
-6.76088
-6.76548
-6.77048
-6.77593
-6.78185
-6.78829
-6.79528
-6.80284
-6.81101
-6.81981
-6.82927
-6.83942
-6.85027
-6.86186
-6.8742
-6.8873
-6.90118
-6.91586
-6.93134
-6.94762
-6.96471
-6.98262
-7.00134
-7.02086
-7.04119
-7.0623
-7.0842
-7.10686
-7.13027
-7.15443
-7.17929
-7.20484
-7.23106
-7.2579
-7.28533
-7.31331
-7.34179
-7.37071
-7.40002
-7.42966
-7.45955
-7.48962
-7.51978
-7.54995
-7.58003
-7.60992
-7.6395
-7.66866
-7.69728
-7.72522
-7.75235
-7.77852
-7.8036
-7.82741
-7.84981
-7.87062
-7.88968
-7.90682
-7.92185
-7.93459
-7.94486
-7.95248
-7.95726
-7.95901
-7.95755
-7.95268
-7.94423
-7.932
-7.91581
-7.89549
-7.87085
-7.84172
-7.80794
-7.76933
-7.72574
-7.67701
-7.62299
-7.56353
-7.4985
-7.42776
-7.35118
-7.26863
-7.18
-7.08513
-6.98394
-6.87631
-6.76217
-6.64144
-6.51407
-6.38
-6.23921
-6.09167
-5.93738
-5.77633
-5.60857
-5.43411
-5.25302
-5.06535
-4.87119
-4.67064
-4.4638
-4.2508
-4.03178
-3.8069
-3.57633
-3.34024
-3.09885
-2.85234
-2.60096
-2.34493
-2.0845
-1.81993
-1.55148
-1.27943
-1.00405
-0.725639
-0.444491
-0.160905
0.124815
0.412361
0.701425
0.991694
1.28286
1.5746
1.86662
2.15862
2.45028
2.74133
3.03145
3.32038
3.60783
3.89354
4.17725
4.45871
4.73768
5.01394
5.28727
5.55746
5.82431
6.08766
6.34732
6.60314
6.85498
7.10269
7.34615
7.58524
7.81987
8.04993
8.27533
8.49599
8.71183
8.92276
9.12872
9.32965
9.52551
9.71627
9.90187
10.0823
10.2575
10.4273
10.5918
10.7508
10.9041
11.0513
11.1925
11.3239
11.4577
11.5264
-6.71514
-6.71967
-6.72581
-6.73164
-6.73656
-6.74081
-6.74467
-6.74832
-6.7519
-6.75554
-6.75932
-6.76334
-6.76766
-6.77232
-6.77739
-6.78289
-6.78887
-6.79536
-6.8024
-6.81001
-6.81823
-6.82708
-6.83659
-6.84678
-6.85768
-6.8693
-6.88167
-6.8948
-6.90871
-6.92341
-6.93891
-6.95522
-6.97233
-6.99026
-7.00901
-7.02856
-7.04893
-7.07009
-7.09204
-7.11477
-7.13827
-7.16251
-7.18748
-7.21314
-7.23948
-7.26646
-7.29403
-7.32217
-7.35081
-7.3799
-7.40939
-7.43921
-7.46929
-7.49954
-7.52989
-7.56024
-7.5905
-7.62056
-7.6503
-7.67961
-7.70837
-7.73643
-7.76367
-7.78994
-7.81509
-7.83895
-7.86138
-7.88221
-7.90126
-7.91836
-7.93333
-7.946
-7.95618
-7.96369
-7.96833
-7.96993
-7.96831
-7.96326
-7.95461
-7.94218
-7.92578
-7.90524
-7.88038
-7.85102
-7.81701
-7.77817
-7.73435
-7.6854
-7.63115
-7.57148
-7.50624
-7.4353
-7.35852
-7.27578
-7.18691
-7.09182
-6.99038
-6.88251
-6.76812
-6.64715
-6.51954
-6.38524
-6.24422
-6.09646
-5.94196
-5.78072
-5.61277
-5.43815
-5.25689
-5.06908
-4.8748
-4.67413
-4.46719
-4.25411
-4.03503
-3.81011
-3.57951
-3.34342
-3.10203
-2.85556
-2.60422
-2.34826
-2.08791
-1.82343
-1.55509
-1.28316
-1.00792
-0.729662
-0.448681
-0.165273
0.120258
0.407605
0.696459
0.986509
1.27745
1.56896
1.86074
2.15248
2.4439
2.73469
3.02455
3.31322
3.60041
3.88586
4.16932
4.45052
4.72924
5.00526
5.27834
5.5483
5.81493
6.07806
6.33752
6.59315
6.8448
7.09233
7.33564
7.57459
7.80908
8.03902
8.26431
8.48488
8.70063
8.91149
9.1174
9.3183
9.51413
9.70485
9.89042
10.0708
10.2459
10.4156
10.5798
10.7384
10.8911
11.0375
11.1774
11.3069
11.4389
11.5036
-6.72344
-6.72768
-6.73346
-6.73901
-6.74376
-6.74791
-6.75169
-6.75529
-6.75883
-6.76242
-6.76617
-6.77014
-6.77441
-6.77904
-6.78405
-6.78951
-6.79545
-6.8019
-6.8089
-6.81647
-6.82466
-6.83347
-6.84295
-6.85312
-6.86399
-6.8756
-6.88795
-6.90107
-6.91497
-6.92967
-6.94517
-6.96148
-6.97862
-6.99657
-7.01535
-7.03495
-7.05537
-7.0766
-7.09863
-7.12146
-7.14506
-7.16943
-7.19452
-7.22033
-7.24682
-7.27396
-7.3017
-7.33001
-7.35882
-7.38809
-7.41776
-7.44775
-7.47799
-7.50841
-7.53891
-7.56941
-7.59979
-7.62996
-7.6598
-7.68919
-7.71801
-7.74611
-7.77336
-7.79962
-7.82474
-7.84855
-7.8709
-7.89162
-7.91055
-7.9275
-7.94231
-7.95478
-7.96475
-7.97203
-7.97644
-7.97778
-7.97588
-7.97056
-7.96162
-7.9489
-7.93221
-7.91137
-7.8862
-7.85655
-7.82225
-7.78312
-7.73902
-7.68979
-7.63528
-7.57535
-7.50987
-7.43868
-7.36167
-7.27864
-7.18949
-7.0941
-6.99237
-6.8842
-6.76953
-6.64828
-6.52039
-6.38584
-6.24457
-6.09658
-5.94186
-5.78043
-5.61229
-5.4375
-5.2561
-5.06815
-4.87376
-4.67299
-4.46599
-4.25285
-4.03374
-3.8088
-3.57821
-3.34215
-3.10081
-2.85441
-2.60316
-2.3473
-2.08708
-1.82274
-1.55456
-1.2828
-1.00776
-0.729707
-0.448949
-0.16578
0.1195
0.406584
0.695164
0.98493
1.27557
1.56678
1.85825
2.14969
2.44078
2.73125
3.02079
3.30913
3.596
3.88112
4.16425
4.44514
4.72355
4.99925
5.27204
5.54171
5.80806
6.07091
6.33011
6.58549
6.83691
7.08423
7.32732
7.56608
7.8004
8.03019
8.25534
8.47577
8.69142
8.90219
9.10803
9.30886
9.50464
9.69532
9.88083
10.0611
10.2361
10.4056
10.5696
10.7277
10.8799
11.0253
11.164
11.2918
11.4219
11.4833
-6.73286
-6.73677
-6.74211
-6.74728
-6.75174
-6.75564
-6.75922
-6.76261
-6.76596
-6.76938
-6.77295
-6.77675
-6.78085
-6.7853
-6.79016
-6.79547
-6.80126
-6.80757
-6.81444
-6.82189
-6.82996
-6.83868
-6.84807
-6.85815
-6.86895
-6.88049
-6.89278
-6.90586
-6.91972
-6.93439
-6.94987
-6.96618
-6.98332
-7.0013
-7.02011
-7.03976
-7.06024
-7.08154
-7.10367
-7.12659
-7.15031
-7.17479
-7.20002
-7.22596
-7.25259
-7.27987
-7.30775
-7.33619
-7.36514
-7.39454
-7.42432
-7.45441
-7.48474
-7.51523
-7.54579
-7.57631
-7.60671
-7.63687
-7.66668
-7.69602
-7.72475
-7.75274
-7.77986
-7.80597
-7.8309
-7.85451
-7.87663
-7.89711
-7.91576
-7.93243
-7.94693
-7.95908
-7.96872
-7.97565
-7.97969
-7.98068
-7.97841
-7.97271
-7.96341
-7.95032
-7.93326
-7.91207
-7.88656
-7.85658
-7.82195
-7.78251
-7.73812
-7.6886
-7.63382
-7.57364
-7.50791
-7.43647
-7.35915
-7.27581
-7.18634
-7.09063
-6.98859
-6.88013
-6.76517
-6.64365
-6.51551
-6.38071
-6.23922
-6.09103
-5.93612
-5.77452
-5.60623
-5.43131
-5.24981
-5.06178
-4.86732
-4.66652
-4.4595
-4.24637
-4.02729
-3.8024
-3.57189
-3.33592
-3.0947
-2.84845
-2.59736
-2.34169
-2.08167
-1.81756
-1.54963
-1.27813
-1.00336
-0.725609
-0.445162
-0.162317
0.122625
0.409358
0.697576
0.98697
1.27723
1.56805
1.85913
2.15017
2.44086
2.73091
3.02005
3.30798
3.59444
3.87917
4.1619
4.44239
4.72042
4.99574
5.26816
5.53747
5.80347
6.066
6.32488
6.57996
6.83109
7.07814
7.32099
7.55952
7.79362
8.02321
8.24819
8.46847
8.68398
8.89464
9.10038
9.30114
9.49686
9.68747
9.87291
10.0531
10.2279
10.3973
10.5609
10.7187
10.8702
11.0147
11.1522
11.2783
11.4067
11.4655
-6.74316
-6.74673
-6.7516
-6.7563
-6.76034
-6.76386
-6.76706
-6.77009
-6.77309
-6.77616
-6.77939
-6.78287
-6.78666
-6.79082
-6.7954
-6.80044
-6.80599
-6.81207
-6.81873
-6.82599
-6.83388
-6.84243
-6.85167
-6.86161
-6.87229
-6.88372
-6.89592
-6.90892
-6.92271
-6.93733
-6.95277
-6.96906
-6.98618
-7.00416
-7.02298
-7.04266
-7.06317
-7.08453
-7.1067
-7.12969
-7.15347
-7.17802
-7.20332
-7.22932
-7.25601
-7.28333
-7.31125
-7.33971
-7.36866
-7.39804
-7.42778
-7.45782
-7.48807
-7.51846
-7.54889
-7.57926
-7.60948
-7.63944
-7.66902
-7.6981
-7.72656
-7.75426
-7.78107
-7.80683
-7.83141
-7.85464
-7.87638
-7.89645
-7.91469
-7.93093
-7.94499
-7.95671
-7.9659
-7.97239
-7.97599
-7.97653
-7.97383
-7.96771
-7.95799
-7.9445
-7.92706
-7.90549
-7.87964
-7.84932
-7.81438
-7.77465
-7.72998
-7.68022
-7.62522
-7.56481
-7.49882
-7.42708
-7.34944
-7.26578
-7.176
-7.08001
-6.97769
-6.86897
-6.75378
-6.63203
-6.50369
-6.36871
-6.22706
-6.07872
-5.92371
-5.76201
-5.59366
-5.4187
-5.23718
-5.04916
-4.85474
-4.65399
-4.44705
-4.23404
-4.01509
-3.79036
-3.56002
-3.32426
-3.08328
-2.83727
-2.58647
-2.33109
-2.07139
-1.80762
-1.54004
-1.26893
-0.99455
-0.717204
-0.437179
-0.154771
0.12972
0.415991
0.703737
0.992649
1.28242
1.57275
1.86333
2.15386
2.44405
2.7336
3.02223
3.30966
3.59563
3.87986
4.16211
4.44212
4.71968
4.99455
5.26653
5.53541
5.801
6.06313
6.32164
6.57636
6.82715
7.07388
7.31643
7.55469
7.78855
8.01791
8.24268
8.46279
8.67815
8.88868
9.09431
9.29498
9.49062
9.68116
9.86652
10.0466
10.2213
10.3904
10.5538
10.7111
10.8619
11.0055
11.1419
11.2665
11.393
11.45
-6.75465
-6.75789
-6.76226
-6.76641
-6.76988
-6.77281
-6.77542
-6.77786
-6.78028
-6.78278
-6.78548
-6.78846
-6.79177
-6.79549
-6.79966
-6.80433
-6.80952
-6.81528
-6.82164
-6.82862
-6.83626
-6.84457
-6.85359
-6.86334
-6.87384
-6.8851
-6.89715
-6.91
-6.92367
-6.93817
-6.95351
-6.9697
-6.98674
-7.00463
-7.02338
-7.04299
-7.06343
-7.08472
-7.10682
-7.12973
-7.15343
-7.17788
-7.20306
-7.22894
-7.25549
-7.28264
-7.31038
-7.33863
-7.36735
-7.39647
-7.42593
-7.45566
-7.48558
-7.5156
-7.54565
-7.57562
-7.60541
-7.63492
-7.66404
-7.69264
-7.7206
-7.74779
-7.77407
-7.79931
-7.82335
-7.84604
-7.86722
-7.88674
-7.90444
-7.92013
-7.93365
-7.94484
-7.9535
-7.95948
-7.96259
-7.96265
-7.95949
-7.95292
-7.94279
-7.9289
-7.9111
-7.8892
-7.86303
-7.83244
-7.79725
-7.75731
-7.71247
-7.66254
-7.60736
-7.54672
-7.48046
-7.40842
-7.33051
-7.2466
-7.15659
-7.06039
-6.95788
-6.849
-6.73365
-6.61179
-6.48335
-6.3483
-6.2066
-6.05825
-5.90324
-5.74158
-5.5733
-5.39843
-5.21702
-5.02915
-4.8349
-4.63436
-4.42764
-4.21488
-3.99621
-3.77179
-3.54179
-3.30639
-3.06579
-2.82019
-2.56981
-2.31489
-2.05566
-1.79238
-1.52531
-1.25472
-0.980893
-0.704107
-0.424656
-0.142834
0.14106
0.426724
0.713855
1.00215