# vtk DataFile Version 2.0
sampleSurface
ASCII
DATASET POLYDATA
POINTS 502 float
-0.0206 0 -0.0005 -0.0190172 0 -0.0005 -0.0190172 0 0.0005 -0.0206 0
0.0005 -0.0174976 0 -0.0005 -0.0174976 0 0.0005 -0.0160387 0 -0.0005
-0.0160387 0 0.0005 -0.0146381 0 -0.0005 -0.0146381 0 0.0005 -0.0132934
0 -0.0005 -0.0132934 0 0.0005 -0.0120025 0 -0.0005 -0.0120025 0
0.0005 -0.0107632 0 -0.0005 -0.0107632 0 0.0005 -0.00957337 0 -0.0005
-0.00957337 0 0.0005 -0.00843108 0 -0.0005 -0.00843108 0 0.0005 -0.00733443
0 -0.0005 -0.00733443 0 0.0005 -0.0062816 0 -0.0005 -0.0062816 0
0.0005 -0.00527083 0 -0.0005 -0.00527083 0 0.0005 -0.00430044 0 -0.0005
-0.00430044 0 0.0005 -0.00336883 0 -0.0005 -0.00336883 0 0.0005 -0.00247443
0 -0.0005 -0.00247443 0 0.0005 -0.00161577 0 -0.0005 -0.00161577 0
0.0005 -0.000791418 0 -0.0005 -0.000791418 0 0.0005 0 0 -0.0005
0 0 0.0005 0 -0.0254 -0.0005 0 -0.0254 0.0005 0
-0.0242711 0.0005 0 -0.0242711 -0.0005 0 -0.0231422 0.0005 0 -0.0231422
-0.0005 0 -0.0220133 0.0005 0 -0.0220133 -0.0005 0 -0.0208844 0.0005
0 -0.0208844 -0.0005 0 -0.0197556 0.0005 0 -0.0197556 -0.0005 0
-0.0186267 0.0005 0 -0.0186267 -0.0005 0 -0.0174978 0.0005 0 -0.0174978
-0.0005 0 -0.0163689 0.0005 0 -0.0163689 -0.0005 0 -0.01524 0.0005
0 -0.01524 -0.0005 0 -0.0141111 0.0005 0 -0.0141111 -0.0005 0
-0.0129822 0.0005 0 -0.0129822 -0.0005 0 -0.0118533 0.0005 0 -0.0118533
-0.0005 0 -0.0107244 0.0005 0 -0.0107244 -0.0005 0 -0.00959556 0.0005
0 -0.00959556 -0.0005 0 -0.00846667 0.0005 0 -0.00846667 -0.0005 0
-0.00726604 0.0005 0 -0.00726604 -0.0005 0 -0.00618989 0.0005 0 -0.00618989
-0.0005 0 -0.00522531 0.0005 0 -0.00522531 -0.0005 0 -0.00436073 0.0005
0 -0.00436073 -0.0005 0 -0.00358579 0.0005 0 -0.00358579 -0.0005 0
-0.00289118 0.0005 0 -0.00289118 -0.0005 0 -0.0022686 0.0005 0 -0.0022686
-0.0005 0 -0.00171055 0.0005 0 -0.00171055 -0.0005 0 -0.00121037 0.0005
0 -0.00121037 -0.0005 0 -0.000762037 0.0005 0 -0.000762037 -0.0005 0
-0.000360188 0.0005 0 -0.000360188 -0.0005 0.000528387 -0.0254 -0.0005 0.000528387 -0.0254
0.0005 0.00106088 -0.0254 -0.0005 0.00106088 -0.0254 0.0005 0.00159752 -0.0254 -0.0005
0.00159752 -0.0254 0.0005 0.00213833 -0.0254 -0.0005 0.00213833 -0.0254 0.0005 0.00268334
-0.0254 -0.0005 0.00268334 -0.0254 0.0005 0.00323259 -0.0254 -0.0005 0.00323259 -0.0254
0.0005 0.00378611 -0.0254 -0.0005 0.00378611 -0.0254 0.0005 0.00434393 -0.0254 -0.0005
0.00434393 -0.0254 0.0005 0.00490609 -0.0254 -0.0005 0.00490609 -0.0254 0.0005 0.00547262
-0.0254 -0.0005 0.00547262 -0.0254 0.0005 0.00604356 -0.0254 -0.0005 0.00604356 -0.0254
0.0005 0.00661893 -0.0254 -0.0005 0.00661893 -0.0254 0.0005 0.00719878 -0.0254 -0.0005
0.00719878 -0.0254 0.0005 0.00778313 -0.0254 -0.0005 0.00778313 -0.0254 0.0005 0.00837203
-0.0254 -0.0005 0.00837203 -0.0254 0.0005 0.00896551 -0.0254 -0.0005 0.00896551 -0.0254
0.0005 0.0095636 -0.0254 -0.0005 0.0095636 -0.0254 0.0005 0.0101663 -0.0254 -0.0005
0.0101663 -0.0254 0.0005 0.0107738 -0.0254 -0.0005 0.0107738 -0.0254 0.0005 0.0113859
-0.0254 -0.0005 0.0113859 -0.0254 0.0005 0.0120028 -0.0254 -0.0005 0.0120028 -0.0254
0.0005 0.0126245 -0.0254 -0.0005 0.0126245 -0.0254 0.0005 0.0132511 -0.0254 -0.0005
0.0132511 -0.0254 0.0005 0.0138825 -0.0254 -0.0005 0.0138825 -0.0254 0.0005 0.0145188
-0.0254 -0.0005 0.0145188 -0.0254 0.0005 0.0151601 -0.0254 -0.0005 0.0151601 -0.0254
0.0005 0.0158063 -0.0254 -0.0005 0.0158063 -0.0254 0.0005 0.0164576 -0.0254 -0.0005
0.0164576 -0.0254 0.0005 0.0171139 -0.0254 -0.0005 0.0171139 -0.0254 0.0005 0.0177754
-0.0254 -0.0005 0.0177754 -0.0254 0.0005 0.018442 -0.0254 -0.0005 0.018442 -0.0254
0.0005 0.0191137 -0.0254 -0.0005 0.0191137 -0.0254 0.0005 0.0197907 -0.0254 -0.0005
0.0197907 -0.0254 0.0005 0.020473 -0.0254 -0.0005 0.020473 -0.0254 0.0005 0.0211606
-0.0254 -0.0005 0.0211606 -0.0254 0.0005 0.0218535 -0.0254 -0.0005 0.0218535 -0.0254
0.0005 0.0225517 -0.0254 -0.0005 0.0225517 -0.0254 0.0005 0.0232555 -0.0254 -0.0005
0.0232555 -0.0254 0.0005 0.0239647 -0.0254 -0.0005 0.0239647 -0.0254 0.0005 0.0246794
-0.0254 -0.0005 0.0246794 -0.0254 0.0005 0.0253996 -0.0254 -0.0005 0.0253996 -0.0254
0.0005 0.0261255 -0.0254 -0.0005 0.0261255 -0.0254 0.0005 0.026857 -0.0254 -0.0005
0.026857 -0.0254 0.0005 0.0275942 -0.0254 -0.0005 0.0275942 -0.0254 0.0005 0.0283371
-0.0254 -0.0005 0.0283371 -0.0254 0.0005 0.0290858 -0.0254 -0.0005 0.0290858 -0.0254
0.0005 0.0298403 -0.0254 -0.0005 0.0298403 -0.0254 0.0005 0.0306007 -0.0254 -0.0005
0.0306007 -0.0254 0.0005 0.031367 -0.0254 -0.0005 0.031367 -0.0254 0.0005 0.0321393
-0.0254 -0.0005 0.0321393 -0.0254 0.0005 0.0329175 -0.0254 -0.0005 0.0329175 -0.0254
0.0005 0.0337019 -0.0254 -0.0005 0.0337019 -0.0254 0.0005 0.0344923 -0.0254 -0.0005
0.0344923 -0.0254 0.0005 0.0352888 -0.0254 -0.0005 0.0352888 -0.0254 0.0005 0.0360916
-0.0254 -0.0005 0.0360916 -0.0254 0.0005 0.0369006 -0.0254 -0.0005 0.0369006 -0.0254
0.0005 0.0377158 -0.0254 -0.0005 0.0377158 -0.0254 0.0005 0.0385375 -0.0254 -0.0005
0.0385375 -0.0254 0.0005 0.0393655 -0.0254 -0.0005 0.0393655 -0.0254 0.0005 0.0401999
-0.0254 -0.0005 0.0401999 -0.0254 0.0005 0.0410408 -0.0254 -0.0005 0.0410408 -0.0254
0.0005 0.0418883 -0.0254 -0.0005 0.0418883 -0.0254 0.0005 0.0427424 -0.0254 -0.0005
0.0427424 -0.0254 0.0005 0.0436031 -0.0254 -0.0005 0.0436031 -0.0254 0.0005 0.0444704
-0.0254 -0.0005 0.0444704 -0.0254 0.0005 0.0453446 -0.0254 -0.0005 0.0453446 -0.0254
0.0005 0.0462255 -0.0254 -0.0005 0.0462255 -0.0254 0.0005 0.0471133 -0.0254 -0.0005
0.0471133 -0.0254 0.0005 0.048008 -0.0254 -0.0005 0.048008 -0.0254 0.0005 0.0489096
-0.0254 -0.0005 0.0489096 -0.0254 0.0005 0.0498183 -0.0254 -0.0005 0.0498183 -0.0254
0.0005 0.050734 -0.0254 -0.0005 0.050734 -0.0254 0.0005 0.0516568 -0.0254 -0.0005
0.0516568 -0.0254 0.0005 0.0525868 -0.0254 -0.0005 0.0525868 -0.0254 0.0005 0.053524
-0.0254 -0.0005 0.053524 -0.0254 0.0005 0.0544686 -0.0254 -0.0005 0.0544686 -0.0254
0.0005 0.0554204 -0.0254 -0.0005 0.0554204 -0.0254 0.0005 0.0563797 -0.0254 -0.0005
0.0563797 -0.0254 0.0005 0.0573464 -0.0254 -0.0005 0.0573464 -0.0254 0.0005 0.0583206
-0.0254 -0.0005 0.0583206 -0.0254 0.0005 0.0593025 -0.0254 -0.0005 0.0593025 -0.0254
0.0005 0.0602919 -0.0254 -0.0005 0.0602919 -0.0254 0.0005 0.0612891 -0.0254 -0.0005
0.0612891 -0.0254 0.0005 0.0622939 -0.0254 -0.0005 0.0622939 -0.0254 0.0005 0.0633067
-0.0254 -0.0005 0.0633067 -0.0254 0.0005 0.0643272 -0.0254 -0.0005 0.0643272 -0.0254
0.0005 0.0653557 -0.0254 -0.0005 0.0653557 -0.0254 0.0005 0.0663923 -0.0254 -0.0005
0.0663923 -0.0254 0.0005 0.0674368 -0.0254 -0.0005 0.0674368 -0.0254 0.0005 0.0684895
-0.0254 -0.0005 0.0684895 -0.0254 0.0005 0.0695504 -0.0254 -0.0005 0.0695504 -0.0254
0.0005 0.0706195 -0.0254 -0.0005 0.0706195 -0.0254 0.0005 0.0716969 -0.0254 -0.0005
0.0716969 -0.0254 0.0005 0.0727828 -0.0254 -0.0005 0.0727828 -0.0254 0.0005 0.073877
-0.0254 -0.0005 0.073877 -0.0254 0.0005 0.0749798 -0.0254 -0.0005 0.0749798 -0.0254
0.0005 0.0760911 -0.0254 -0.0005 0.0760911 -0.0254 0.0005 0.0772111 -0.0254 -0.0005
0.0772111 -0.0254 0.0005 0.0783398 -0.0254 -0.0005 0.0783398 -0.0254 0.0005 0.0794772
-0.0254 -0.0005 0.0794772 -0.0254 0.0005 0.0806235 -0.0254 -0.0005 0.0806235 -0.0254
0.0005 0.0817787 -0.0254 -0.0005 0.0817787 -0.0254 0.0005 0.0829429 -0.0254 -0.0005
0.0829429 -0.0254 0.0005 0.0841162 -0.0254 -0.0005 0.0841162 -0.0254 0.0005 0.0852985
-0.0254 -0.0005 0.0852985 -0.0254 0.0005 0.0864901 -0.0254 -0.0005 0.0864901 -0.0254
0.0005 0.0876909 -0.0254 -0.0005 0.0876909 -0.0254 0.0005 0.0889011 -0.0254 -0.0005
0.0889011 -0.0254 0.0005 0.0901207 -0.0254 -0.0005 0.0901207 -0.0254 0.0005 0.0913497
-0.0254 -0.0005 0.0913497 -0.0254 0.0005 0.0925883 -0.0254 -0.0005 0.0925883 -0.0254
0.0005 0.0938366 -0.0254 -0.0005 0.0938366 -0.0254 0.0005 0.0950945 -0.0254 -0.0005
0.0950945 -0.0254 0.0005 0.0963622 -0.0254 -0.0005 0.0963622 -0.0254 0.0005 0.0976398
-0.0254 -0.0005 0.0976398 -0.0254 0.0005 0.0989273 -0.0254 -0.0005 0.0989273 -0.0254
0.0005 0.100225 -0.0254 -0.0005 0.100225 -0.0254 0.0005 0.101532 -0.0254 -0.0005
0.101532 -0.0254 0.0005 0.10285 -0.0254 -0.0005 0.10285 -0.0254 0.0005 0.104178
-0.0254 -0.0005 0.104178 -0.0254 0.0005 0.105517 -0.0254 -0.0005 0.105517 -0.0254
0.0005 0.106865 -0.0254 -0.0005 0.106865 -0.0254 0.0005 0.108225 -0.0254 -0.0005
0.108225 -0.0254 0.0005 0.109594 -0.0254 -0.0005 0.109594 -0.0254 0.0005 0.110975
-0.0254 -0.0005 0.110975 -0.0254 0.0005 0.112366 -0.0254 -0.0005 0.112366 -0.0254
0.0005 0.113768 -0.0254 -0.0005 0.113768 -0.0254 0.0005 0.115181 -0.0254 -0.0005
0.115181 -0.0254 0.0005 0.116605 -0.0254 -0.0005 0.116605 -0.0254 0.0005 0.11804
-0.0254 -0.0005 0.11804 -0.0254 0.0005 0.119486 -0.0254 -0.0005 0.119486 -0.0254
0.0005 0.120943 -0.0254 -0.0005 0.120943 -0.0254 0.0005 0.122412 -0.0254 -0.0005
0.122412 -0.0254 0.0005 0.123892 -0.0254 -0.0005 0.123892 -0.0254 0.0005 0.125384
-0.0254 -0.0005 0.125384 -0.0254 0.0005 0.126887 -0.0254 -0.0005 0.126887 -0.0254
0.0005 0.128402 -0.0254 -0.0005 0.128402 -0.0254 0.0005 0.129928 -0.0254 -0.0005
0.129928 -0.0254 0.0005 0.131467 -0.0254 -0.0005 0.131467 -0.0254 0.0005 0.133017
-0.0254 -0.0005 0.133017 -0.0254 0.0005 0.13458 -0.0254 -0.0005 0.13458 -0.0254
0.0005 0.136155 -0.0254 -0.0005 0.136155 -0.0254 0.0005 0.137742 -0.0254 -0.0005
0.137742 -0.0254 0.0005 0.139341 -0.0254 -0.0005 0.139341 -0.0254 0.0005 0.140953
-0.0254 -0.0005 0.140953 -0.0254 0.0005 0.142577 -0.0254 -0.0005 0.142577 -0.0254
0.0005 0.144214 -0.0254 -0.0005 0.144214 -0.0254 0.0005 0.145863 -0.0254 -0.0005
0.145863 -0.0254 0.0005 0.147526 -0.0254 -0.0005 0.147526 -0.0254 0.0005 0.149201
-0.0254 -0.0005 0.149201 -0.0254 0.0005 0.15089 -0.0254 -0.0005 0.15089 -0.0254
0.0005 0.152591 -0.0254 -0.0005 0.152591 -0.0254 0.0005 0.154306 -0.0254 -0.0005
0.154306 -0.0254 0.0005 0.156034 -0.0254 -0.0005 0.156034 -0.0254 0.0005 0.157775
-0.0254 -0.0005 0.157775 -0.0254 0.0005 0.159531 -0.0254 -0.0005 0.159531 -0.0254
0.0005 0.161299 -0.0254 -0.0005 0.161299 -0.0254 0.0005 0.163082 -0.0254 -0.0005
0.163082 -0.0254 0.0005 0.164878 -0.0254 -0.0005 0.164878 -0.0254 0.0005 0.166688
-0.0254 -0.0005 0.166688 -0.0254 0.0005 0.168513 -0.0254 -0.0005 0.168513 -0.0254
0.0005 0.170351 -0.0254 -0.0005 0.170351 -0.0254 0.0005 0.172204 -0.0254 -0.0005
0.172204 -0.0254 0.0005 0.174071 -0.0254 -0.0005 0.174071 -0.0254 0.0005 0.175953
-0.0254 -0.0005 0.175953 -0.0254 0.0005 0.177849 -0.0254 -0.0005 0.177849 -0.0254
0.0005 0.17976 -0.0254 -0.0005 0.17976 -0.0254 0.0005 0.181686 -0.0254 -0.0005
0.181686 -0.0254 0.0005 0.183627 -0.0254 -0.0005 0.183627 -0.0254 0.0005 0.185583
-0.0254 -0.0005 0.185583 -0.0254 0.0005 0.187555 -0.0254 -0.0005 0.187555 -0.0254
0.0005 0.189541 -0.0254 -0.0005 0.189541 -0.0254 0.0005 0.191543 -0.0254 -0.0005
0.191543 -0.0254 0.0005 0.193561 -0.0254 -0.0005 0.193561 -0.0254 0.0005 0.195594
-0.0254 -0.0005 0.195594 -0.0254 0.0005 0.197643 -0.0254 -0.0005 0.197643 -0.0254
0.0005 0.199708 -0.0254 -0.0005 0.199708 -0.0254 0.0005 0.201789 -0.0254 -0.0005
0.201789 -0.0254 0.0005 0.203886 -0.0254 -0.0005 0.203886 -0.0254 0.0005 0.206
-0.0254 -0.0005 0.206 -0.0254 0.0005 0.208047 -0.0251856 -0.0005 0.208047 -0.0251856
0.0005 0.210173 -0.0249628 -0.0005 0.210173 -0.0249628 0.0005 0.212382 -0.0247314 -0.0005
0.212382 -0.0247314 0.0005 0.214677 -0.024491 -0.0005 0.214677 -0.024491 0.0005 0.217061
-0.0242412 -0.0005 0.217061 -0.0242412 0.0005 0.219538 -0.0239817 -0.0005 0.219538 -0.0239817
0.0005 0.222112 -0.0237121 -0.0005 0.222112 -0.0237121 0.0005 0.224785 -0.023432 -0.0005
0.224785 -0.023432 0.0005 0.227563 -0.023141 -0.0005 0.227563 -0.023141 0.0005 0.230449
-0.0228387 -0.0005 0.230449 -0.0228387 0.0005 0.233447 -0.0225246 -0.0005 0.233447 -0.0225246
0.0005 0.236562 -0.0221983 -0.0005 0.236562 -0.0221983 0.0005 0.239797 -0.0218593 -0.0005
0.239797 -0.0218593 0.0005 0.243159 -0.0215071 -0.0005 0.243159 -0.0215071 0.0005 0.246652
-0.0211412 -0.0005 0.246652 -0.0211412 0.0005 0.250281 -0.0207611 -0.0005 0.250281 -0.0207611
0.0005 0.254051 -0.0203661 -0.0005 0.254051 -0.0203661 0.0005 0.257967 -0.0199558 -0.0005
0.257967 -0.0199558 0.0005 0.262036 -0.0195295 -0.0005 0.262036 -0.0195295 0.0005 0.266264
-0.0190867 -0.0005 0.266264 -0.0190867 0.0005 0.270655 -0.0186266 -0.0005 0.270655 -0.0186266
0.0005 0.275218 -0.0181486 -0.0005 0.275218 -0.0181486 0.0005 0.279959 -0.017652 -0.0005
0.279959 -0.017652 0.0005 0.284883 -0.017136 -0.0005 0.284883 -0.017136 0.0005 0.29
-0.0166 -0.0005 0.29 -0.0166 0.0005 
POLYGONS 250 1250
4 0 1 2 3 4 1 4 5 2 4
4 6 7 5 4 6 8 9 7 4
8 10 11 9 4 10 12 13 11 4
12 14 15 13 4 14 16 17 15 4
16 18 19 17 4 18 20 21 19 4
20 22 23 21 4 22 24 25 23 4
24 26 27 25 4 26 28 29 27 4
28 30 31 29 4 30 32 33 31 4
32 34 35 33 4 34 36 37 35 4
38 39 40 41 4 41 40 42 43 4
43 42 44 45 4 45 44 46 47 4
47 46 48 49 4 49 48 50 51 4
51 50 52 53 4 53 52 54 55 4
55 54 56 57 4 57 56 58 59 4
59 58 60 61 4 61 60 62 63 4
63 62 64 65 4 65 64 66 67 4
67 66 68 69 4 69 68 70 71 4
71 70 72 73 4 73 72 74 75 4
75 74 76 77 4 77 76 78 79 4
79 78 80 81 4 81 80 82 83 4
83 82 84 85 4 85 84 86 87 4
87 86 88 89 4 89 88 90 91 4
91 90 37 36 4 38 92 93 39 4
92 94 95 93 4 94 96 97 95 4
96 98 99 97 4 98 100 101 99 4
100 102 103 101 4 102 104 105 103 4
104 106 107 105 4 106 108 109 107 4
108 110 111 109 4 110 112 113 111 4
112 114 115 113 4 114 116 117 115 4
116 118 119 117 4 118 120 121 119 4
120 122 123 121 4 122 124 125 123 4
124 126 127 125 4 126 128 129 127 4
128 130 131 129 4 130 132 133 131 4
132 134 135 133 4 134 136 137 135 4
136 138 139 137 4 138 140 141 139 4
140 142 143 141 4 142 144 145 143 4
144 146 147 145 4 146 148 149 147 4
148 150 151 149 4 150 152 153 151 4
152 154 155 153 4 154 156 157 155 4
156 158 159 157 4 158 160 161 159 4
160 162 163 161 4 162 164 165 163 4
164 166 167 165 4 166 168 169 167 4
168 170 171 169 4 170 172 173 171 4
172 174 175 173 4 174 176 177 175 4
176 178 179 177 4 178 180 181 179 4
180 182 183 181 4 182 184 185 183 4
184 186 187 185 4 186 188 189 187 4
188 190 191 189 4 190 192 193 191 4
192 194 195 193 4 194 196 197 195 4
196 198 199 197 4 198 200 201 199 4
200 202 203 201 4 202 204 205 203 4
204 206 207 205 4 206 208 209 207 4
208 210 211 209 4 210 212 213 211 4
212 214 215 213 4 214 216 217 215 4
216 218 219 217 4 218 220 221 219 4
220 222 223 221 4 222 224 225 223 4
224 226 227 225 4 226 228 229 227 4
228 230 231 229 4 230 232 233 231 4
232 234 235 233 4 234 236 237 235 4
236 238 239 237 4 238 240 241 239 4
240 242 243 241 4 242 244 245 243 4
244 246 247 245 4 246 248 249 247 4
248 250 251 249 4 250 252 253 251 4
252 254 255 253 4 254 256 257 255 4
256 258 259 257 4 258 260 261 259 4
260 262 263 261 4 262 264 265 263 4
264 266 267 265 4 266 268 269 267 4
268 270 271 269 4 270 272 273 271 4
272 274 275 273 4 274 276 277 275 4
276 278 279 277 4 278 280 281 279 4
280 282 283 281 4 282 284 285 283 4
284 286 287 285 4 286 288 289 287 4
288 290 291 289 4 290 292 293 291 4
292 294 295 293 4 294 296 297 295 4
296 298 299 297 4 298 300 301 299 4
300 302 303 301 4 302 304 305 303 4
304 306 307 305 4 306 308 309 307 4
308 310 311 309 4 310 312 313 311 4
312 314 315 313 4 314 316 317 315 4
316 318 319 317 4 318 320 321 319 4
320 322 323 321 4 322 324 325 323 4
324 326 327 325 4 326 328 329 327 4
328 330 331 329 4 330 332 333 331 4
332 334 335 333 4 334 336 337 335 4
336 338 339 337 4 338 340 341 339 4
340 342 343 341 4 342 344 345 343 4
344 346 347 345 4 346 348 349 347 4
348 350 351 349 4 350 352 353 351 4
352 354 355 353 4 354 356 357 355 4
356 358 359 357 4 358 360 361 359 4
360 362 363 361 4 362 364 365 363 4
364 366 367 365 4 366 368 369 367 4
368 370 371 369 4 370 372 373 371 4
372 374 375 373 4 374 376 377 375 4
376 378 379 377 4 378 380 381 379 4
380 382 383 381 4 382 384 385 383 4
384 386 387 385 4 386 388 389 387 4
388 390 391 389 4 390 392 393 391 4
392 394 395 393 4 394 396 397 395 4
396 398 399 397 4 398 400 401 399 4
400 402 403 401 4 402 404 405 403 4
404 406 407 405 4 406 408 409 407 4
408 410 411 409 4 410 412 413 411 4
412 414 415 413 4 414 416 417 415 4
416 418 419 417 4 418 420 421 419 4
420 422 423 421 4 422 424 425 423 4
424 426 427 425 4 426 428 429 427 4
428 430 431 429 4 430 432 433 431 4
432 434 435 433 4 434 436 437 435 4
436 438 439 437 4 438 440 441 439 4
440 442 443 441 4 442 444 445 443 4
444 446 447 445 4 446 448 449 447 4
448 450 451 449 4 450 452 453 451 4
452 454 455 453 4 454 456 457 455 4
456 458 459 457 4 458 460 461 459 4
460 462 463 461 4 462 464 465 463 4
464 466 467 465 4 466 468 469 467 4
468 470 471 469 4 470 472 473 471 4
472 474 475 473 4 474 476 477 475 4
476 478 479 477 4 478 480 481 479 4
480 482 483 481 4 482 484 485 483 4
484 486 487 485 4 486 488 489 487 4
488 490 491 489 4 490 492 493 491 4
492 494 495 493 4 494 496 497 495 4
496 498 499 497 4 498 500 501 499 
POINT_DATA 502
FIELD attributes 1
U 3 502 float
3.36309 0.046358 0.0408463 1.68759 0.0231949 0.0201291 1.68759 0.0231949 0.0201291 3.36309 0.046358
0.0408463 0.0584213 0.000701367 0 0.0584213 0.000701367 0 0.056278 0.000631931 0
0.056278 0.000631931 0 0.054659 0.000502561 0 0.054659 0.000502561 0 0.0532697
0.000489588 0 0.0532697 0.000489588 0 0.0516453 0.00058968 0 0.0516453 0.00058968
0 0.0495642 0.000669614 0 0.0495642 0.000669614 0 0.0472057 0.000636317 0
0.0472057 0.000636317 0 0.0449565 0.000506775 0 0.0449565 0.000506775 0 0.0430083
0.000355765 0 0.0430083 0.000355765 0 0.0414257 0.000238749 0 0.0414257 0.000238749
0 0.0400105 0.000185246 0 0.0400105 0.000185246 0 0.0387416 0.000197869 0
0.0387416 0.000197869 0 0.0371944 0.000291843 0 0.0371944 0.000291843 0 0.0355808
0.00041047 0 0.0355808 0.00041047 0 0.0332524 0.000631316 0 0.0332524 0.000631316
0 0.0308545 0.000822554 0 0.0308545 0.000822554 0 0.0127197 0.000997049 0
0.0127197 0.000997049 0 -0.000115345 0.000553734 -4.69116e-23 -0.000115345 0.000553734 -4.69116e-23 0.000187674
0.00063613 1.2663e-22 0.000187674 0.00063613 1.2663e-22 0.000529595 -0.000920118 1.50019e-22 0.000529595 -0.000920118
1.50019e-22 0.000594574 -0.00383008 -3.00068e-22 0.000594574 -0.00383008 -3.00068e-22 0.000716846 -0.00697293 -1.00045e-22
0.000716846 -0.00697293 -1.00045e-22 0.000642284 -0.0101659 1.99955e-22 0.000642284 -0.0101659 1.99955e-22 0.00016848
-0.0112557 0 0.00016848 -0.0112557 0 -0.000231689 -0.0103989 3.92604e-22 -0.000231689 -0.0103989
3.92604e-22 -0.000375421 -0.00902077 -2.17696e-25 -0.000375421 -0.00902077 -2.17696e-25 -0.000487108 -0.00703128 -3.92821e-22
-0.000487108 -0.00703128 -3.92821e-22 -0.000532061 -0.00458561 3.80022e-22 -0.000532061 -0.00458561 3.80022e-22 -0.000475478
-0.00218655 -3.56748e-25 -0.000475478 -0.00218655 -3.56748e-25 -0.000374564 -1.34805e-05 -3.80378e-22 -0.000374564 -1.34805e-05
-3.80378e-22 -0.000225863 0.00162142 -3.75162e-22 -0.000225863 0.00162142 -3.75162e-22 -2.98745e-05 0.00264027 -4.23846e-26
-2.98745e-05 0.00264027 -4.23846e-26 0.00025288 0.00284098 3.81768e-22 0.00025288 0.00284098 3.81768e-22 0.00065179
0.00176778 0 0.00065179 0.00176778 0 0.000374498 -0.000689171 0 0.000374498 -0.000689171
0 -0.000554911 -0.00228726 0 -0.000554911 -0.00228726 0 -0.000457425 -0.00202055 0
-0.000457425 -0.00202055 0 0.000660588 -0.0026517 0 0.000660588 -0.0026517 0 0.00126421
-0.00538887 0 0.00126421 -0.00538887 0 0.000828136 -0.00747045 0 0.000828136 -0.00747045
0 -0.000264987 -0.00726048 0 -0.000264987 -0.00726048 0 -0.00132627 -0.00568092 0
-0.00132627 -0.00568092 0 -0.0020433 -0.00297592 0 -0.0020433 -0.00297592 0 -0.00207201
-0.000100414 0 -0.00207201 -0.000100414 0 -0.000228229 0.000434629 -1.82156e-25 -0.000228229 0.000434629
-1.82156e-25 -0.000408901 0.000181698 2.33335e-23 -0.000408901 0.000181698 2.33335e-23 -0.000483309 -8.94185e-05 0
-0.000483309 -8.94185e-05 0 -0.000438429 -0.000343984 0 -0.000438429 -0.000343984 0 -0.000263759
-0.000568584 -2.27776e-23 -0.000263759 -0.000568584 -2.27776e-23 8.84144e-05 -0.000741139 -2.28185e-23 8.84144e-05 -0.000741139
-2.28185e-23 0.000623738 -0.000825607 0 0.000623738 -0.000825607 0 0.0012438 -0.000814269 0
0.0012438 -0.000814269 0 0.00185246 -0.000700241 0 0.00185246 -0.000700241 0 0.00237075
-0.000484966 2.19135e-23 0.00237075 -0.000484966 2.19135e-23 0.00271903 -0.000187304 2.19552e-23 0.00271903 -0.000187304
2.19552e-23 0.00284023 0.000146853 0 0.00284023 0.000146853 0 0.00270598 0.000465867 0
0.00270598 0.000465867 0 0.00232909 0.000747042 0 0.00232909 0.000747042 0 0.00172123
0.000899427 2.11024e-23 0.00172123 0.000899427 2.11024e-23 0.00100384 0.00075449 2.1145e-23 0.00100384 0.00075449
2.1145e-23 0.000422856 0.000381583 0 0.000422856 0.000381583 0 9.16126e-05 6.10691e-05 0
9.16126e-05 6.10691e-05 0 -3.96959e-05 -0.000102143 0 -3.96959e-05 -0.000102143 0 -7.30715e-05
-0.000169002 0 -7.30715e-05 -0.000169002 0 -0.000123994 -0.000189505 0 -0.000123994 -0.000189505
0 -0.000258117 -0.000168373 0 -0.000258117 -0.000168373 0 -0.00048505 -8.73225e-05 1.9956e-23
-0.00048505 -8.73225e-05 1.9956e-23 -0.00080369 4.94326e-05 1.8606e-25 -0.00080369 4.94326e-05 1.8606e-25 -0.00121867
0.000207397 -1.88411e-25 -0.00121867 0.000207397 -1.88411e-25 -0.00172489 0.00034796 3.92372e-23 -0.00172489 0.00034796
3.92372e-23 -0.00230434 0.000451172 1.95675e-23 -0.00230434 0.000451172 1.95675e-23 -0.00293561 0.000516354 0
-0.00293561 0.000516354 0 -0.00360001 0.000554558 -1.9055e-23 -0.00360001 0.000554558 -1.9055e-23 -0.00428707
0.00057936 -3.79821e-23 -0.00428707 0.00057936 -3.79821e-23 -0.00499658 0.000600518 -1.89272e-23 -0.00499658 0.000600518
-1.89272e-23 -0.00573212 0.000626886 0 -0.00573212 0.000626886 0 -0.0065015 0.000669687 -1.82692e-23
-0.0065015 0.000669687 -1.82692e-23 -0.00730784 0.000728098 -1.83142e-23 -0.00730784 0.000728098 -1.83142e-23 -0.00812584
0.000751493 0 -0.00812584 0.000751493 0 -0.00888159 0.000643118 1.75306e-23 -0.00888159 0.000643118
1.75306e-23 -0.0094417 0.000352966 1.75751e-23 -0.0094417 0.000352966 1.75751e-23 -0.00966745 -3.49774e-05 1.69927e-23
-0.00966745 -3.49774e-05 1.69927e-23 -0.00952142 -0.000327761 5.04179e-23 -0.00952142 -0.000327761 5.04179e-23 -0.009124
-0.000391754 3.34686e-23 -0.009124 -0.000391754 3.34686e-23 -0.00864473 -0.000296681 0 -0.00864473 -0.000296681
0 -0.00816001 -0.000212701 0 -0.00816001 -0.000212701 0 -0.00765313 -0.000230791 0
-0.00765313 -0.000230791 0 -0.00707413 -0.000323492 0 -0.00707413 -0.000323492 0 -0.00638163
-0.000391333 2.93667e-23 -0.00638163 -0.000391333 2.93667e-23 -0.00558095 -0.00038809 5.82196e-23 -0.00558095 -0.00038809
5.82196e-23 -0.00471454 -0.000408357 5.71035e-23 -0.00471454 -0.000408357 5.71035e-23 -0.00378372 -0.000486908 2.83318e-23
-0.00378372 -0.000486908 2.83318e-23 -0.00284647 -0.000498571 -2.74913e-23 -0.00284647 -0.000498571 -2.74913e-23 -0.00199675
-0.000421304 -2.7571e-23 -0.00199675 -0.000421304 -2.7571e-23 -0.00128529 -0.000332175 2.70708e-23 -0.00128529 -0.000332175
2.70708e-23 -0.000793775 -0.000252004 5.40901e-23 -0.000793775 -0.000252004 5.40901e-23 -0.000577506 -0.000194788 2.70196e-23
-0.000577506 -0.000194788 2.70196e-23 -0.000609082 -0.000127443 0 -0.000609082 -0.000127443 0 -0.000819112
-1.05342e-05 0 -0.000819112 -1.05342e-05 0 -0.00114073 0.000129465 2.66023e-23 -0.00114073 0.000129465
2.66023e-23 -0.00151348 0.000246863 2.66847e-23 -0.00151348 0.000246863 2.66847e-23 -0.00187085 0.000294326 0
-0.00187085 0.000294326 0 -0.00211135 0.000227757 0 -0.00211135 0.000227757 0 -0.00212551
2.24039e-05 0 -0.00212551 2.24039e-05 0 -0.00185344 -0.000273208 0 -0.00185344 -0.000273208
0 -0.00127707 -0.000572188 0 -0.00127707 -0.000572188 0 -0.000381845 -0.000824311 0
-0.000381845 -0.000824311 0 0.000798909 -0.00102861 0 0.000798909 -0.00102861 0 0.00215824
-0.00119105 -2.38652e-23 0.00215824 -0.00119105 -2.38652e-23 0.00359864 -0.00127526 -2.39454e-23 0.00359864 -0.00127526
-2.39454e-23 0.00503527 -0.00110366 0 0.00503527 -0.00110366 0 0.00622696 -0.000628079 2.30773e-23
0.00622696 -0.000628079 2.30773e-23 0.00678213 -0.000284813 4.59558e-23 0.00678213 -0.000284813 4.59558e-23 0.00642643
-8.85007e-05 2.28781e-23 0.00642643 -8.85007e-05 2.28781e-23 0.00523936 0.000442651 -2.20468e-23 0.00523936 0.000442651
-2.20468e-23 0.0040055 0.000764359 -3.72656e-25 0.0040055 0.000764359 -3.72656e-25 0.00347009 0.000262599 2.18298e-23
0.00347009 0.000262599 2.18298e-23 0.00346137 -0.000451165 -2.11984e-23 0.00346137 -0.000451165 -2.11984e-23 0.00352323
-0.000696632 -2.12753e-23 0.00352323 -0.000696632 -2.12753e-23 0.0033905 -0.000439476 0 0.0033905 -0.000439476
0 0.00295237 -8.75666e-06 2.08532e-23 0.00295237 -8.75666e-06 2.08532e-23 0.00227254 0.000293753 2.09307e-23
0.00227254 0.000293753 2.09307e-23 0.00150369 0.000407814 -2.07605e-23 0.00150369 0.000407814 -2.07605e-23 0.000730672
0.000423171 -2.0839e-23 0.000730672 0.000423171 -2.0839e-23 -4.28935e-05 0.000416855 2.07436e-23 -4.28935e-05 0.000416855
2.07436e-23 -0.000845464 0.000424506 4.15706e-23 -0.000845464 0.000424506 4.15706e-23 -0.00171235 0.000459948 4.16024e-23
-0.00171235 0.000459948 4.16024e-23 -0.00267499 0.000522887 6.25173e-23 -0.00267499 0.000522887 6.25173e-23 -0.00375673
0.00060314 -2.00938e-26 -0.00375673 0.00060314 -2.00938e-26 -0.00496799 0.000687169 -4.20109e-23 -0.00496799 0.000687169
-4.20109e-23 -0.00630231 0.000762204 0 -0.00630231 0.000762204 0 -0.00773836 0.00081916 0
-0.00773836 0.00081916 0 -0.00924576 0.000853776 -4.36152e-23 -0.00924576 0.000853776 -4.36152e-23 -0.0107914
0.000866002 -8.81369e-23 -0.0107914 0.000866002 -8.81369e-23 -0.0123439 0.000858424 6.40835e-25 -0.0123439 0.000858424
6.40835e-25 -0.0138758 0.000834483 4.53538e-23 -0.0138758 0.000834483 4.53538e-23 -0.0153644 0.000797421 -4.69983e-23
-0.0153644 0.000797421 -4.69983e-23 -0.0167908 0.000750272 -9.51436e-23 -0.0167908 0.000750272 -9.51436e-23 -0.0181396
0.000695551 -9.70265e-23 -0.0181396 0.000695551 -9.70265e-23 -0.0193963 0.000633911 -4.90839e-23 -0.0193963 0.000633911
-4.90839e-23 -0.0205445 0.000564201 0 -0.0205445 0.000564201 0 -0.021564 0.000485613 0
-0.021564 0.000485613 0 -0.0224325 0.000398679 -5.14888e-23 -0.0224325 0.000398679 -5.14888e-23 -0.0231287
0.000304607 -5.17142e-23 -0.0231287 0.000304607 -5.17142e-23 -0.0236335 0.000205565 0 -0.0236335 0.000205565
0 -0.023933 0.000105777 5.08604e-23 -0.023933 0.000105777 5.08604e-23 -0.0240201 1.01983e-05 5.10875e-23
-0.0240201 1.01983e-05 5.10875e-23 -0.0239068 -8.06432e-05 0 -0.0239068 -8.06432e-05 0 -0.0235986
-0.000167997 4.71004e-23 -0.0235986 -0.000167997 4.71004e-23 -0.0230956 -0.000250901 4.73149e-23 -0.0230956 -0.000250901
4.73149e-23 -0.0224064 -0.000328522 0 -0.0224064 -0.000328522 0 -0.0215402 -0.000399105 -4.06847e-23
-0.0215402 -0.000399105 -4.06847e-23 -0.0205147 -0.000460578 -7.90883e-23 -0.0205147 -0.000460578 -7.90883e-23 -0.0193499
-0.000511449 -3.83932e-23 -0.0193499 -0.000511449 -3.83932e-23 -0.018069 -0.000551364 3.32323e-23 -0.018069 -0.000551364
3.32323e-23 -0.0166927 -0.0005817 3.33895e-23 -0.0166927 -0.0005817 3.33895e-23 -0.0152375 -0.000604906 -2.85904e-23
-0.0152375 -0.000604906 -2.85904e-23 -0.0137141 -0.000623854 -2.87273e-23 -0.0137141 -0.000623854 -2.87273e-23 -0.0121287
-0.000640481 -2.4543e-23 -0.0121287 -0.000640481 -2.4543e-23 -0.0104856 -0.000655279 -4.7445e-23 -0.0104856 -0.000655279
-4.7445e-23 -0.00879143 -0.000666781 -2.28942e-23 -0.00879143 -0.000666781 -2.28942e-23 -0.00705878 -0.000671542 0
-0.00705878 -0.000671542 0 -0.0053079 -0.000665851 0 -0.0053079 -0.000665851 0 -0.00356632
-0.000646745 0 -0.00356632 -0.000646745 0 -0.00186638 -0.000611677 0 -0.00186638 -0.000611677
0 -0.000250495 -0.000564044 0 -0.000250495 -0.000564044 0 0.00124095 -0.000511911 0
0.00124095 -0.000511911 0 0.00259223 -0.000454704 -1.74097e-23 0.00259223 -0.000454704 -1.74097e-23 0.00379817
-0.000393168 2.36885e-25 0.00379817 -0.000393168 2.36885e-25 0.0048539 -0.000333737 1.78261e-23 0.0048539 -0.000333737
1.78261e-23 0.00576322 -0.0002791 0 0.00576322 -0.0002791 0 0.00653839 -0.000231129 0
0.00653839 -0.000231129 0 0.00719667 -0.000190968 0 0.00719667 -0.000190968 0 0.0077581
-0.000158881 4.02865e-23 0.0077581 -0.000158881 4.02865e-23 0.00824353 -0.000134479 4.04981e-23 0.00824353 -0.000134479
4.04981e-23 0.00867293 -0.00011692 -4.17681e-23 0.00867293 -0.00011692 -4.17681e-23 0.00906354 -0.000104488 2.79602e-25
0.00906354 -0.000104488 2.79602e-25 0.0094274 -9.49515e-05 4.24947e-23 0.0094274 -9.49515e-05 4.24947e-23 0.00977069
-8.69548e-05 0 0.00977069 -8.69548e-05 0 0.0100941 -7.82969e-05 0 0.0100941 -7.82969e-05
0 0.0103895 -6.41953e-05 -4.25864e-23 0.0103895 -6.41953e-05 -4.25864e-23 0.0106401 -4.42099e-05 -8.51244e-23
0.0106401 -4.42099e-05 -8.51244e-23 0.0108342 -2.06639e-05 -4.25376e-23 0.0108342 -2.06639e-05 -4.25376e-23 0.0109591
1.4658e-05 -4.14493e-23 0.0109591 1.4658e-05 -4.14493e-23 0.0109839 6.5283e-05 -8.25874e-23 0.0109839 6.5283e-05
-8.25874e-23 0.0108823 0.00011841 -8.14232e-25 0.0108823 0.00011841 -8.14232e-25 0.0106493 0.00016143 4.05461e-23
0.0106493 0.00016143 4.05461e-23 0.0102978 0.000188203 0 0.0102978 0.000188203 0 0.00985747
0.000197496 3.84051e-23 0.00985747 0.000197496 3.84051e-23 0.00936508 0.000191956 3.86214e-23 0.00936508 0.000191956
3.86214e-23 0.00885439 0.000176511 0 0.00885439 0.000176511 0 0.00834861 0.000156825 0
0.00834861 0.000156825 0 0.0078605 0.000136903 0 0.0078605 0.000136903 0 0.00739668
0.000119024 -3.51807e-23 0.00739668 0.000119024 -3.51807e-23 0.00695786 0.000106579 -6.99513e-23 0.00695786 0.000106579
-6.99513e-23 0.00654102 9.99017e-05 -3.47679e-23 0.00654102 9.99017e-05 -3.47679e-23 0.00615152 9.1195e-05 -3.33417e-23
0.00615152 9.1195e-05 -3.33417e-23 0.00581021 7.47908e-05 -3.35358e-23 0.00581021 7.47908e-05 -3.35358e-23 0.00553938
5.87222e-05 0 0.00553938 5.87222e-05 0 0.00534573 5.22991e-05 -3.12161e-23 0.00534573 5.22991e-05
-3.12161e-23 0.0052266 4.78983e-05 -3.13998e-23 0.0052266 4.78983e-05 -3.13998e-23 0.00518524 3.69989e-05 -2.95096e-23
0.00518524 3.69989e-05 -2.95096e-23 0.00521279 4.3e-05 -2.96846e-23 0.00521279 4.3e-05 -2.96846e-23 0.00523258
0.000102899 0 0.00523258 0.000102899 0 0.00510406 0.000200745 -2.68508e-23 0.00510406 0.000200745
-2.68508e-23 0.00475089 0.000256706 -2.70118e-23 0.00475089 0.000256706 -2.70118e-23 0.00426631 0.000219334 -2.53788e-23