/*--------------------------------*- C++ -*----------------------------------*\
  =========                 |
  \\      /  F ield         | OpenFOAM: The Open Source CFD Toolbox
   \\    /   O peration     | Website:  https://openfoam.org
    \\  /    A nd           | Version:  9
     \\/     M anipulation  |
\*---------------------------------------------------------------------------*/
FoamFile
{
    format      ascii;
    class       volScalarField;
    location    "0.054";
    object      pMean;
}
// * * * * * * * * * * * * * * * * * * * * * * * * * * * * * * * * * * * * * //

dimensions      [0 2 -2 0 0 0 0];

internalField   nonuniform List<scalar> 
12225
(
-3.0139
-3.58168
-3.89249
-4.01677
-4.07433
-4.12001
-4.16383
-4.20099
-4.22661
-4.23838
-4.23599
-4.21863
-4.18819
-4.14641
-4.10779
-4.09914
-4.18576
-4.53842
-3.25401
-3.61261
-3.8949
-4.02663
-4.08552
-4.1297
-4.17281
-4.21018
-4.23672
-4.24972
-4.24961
-4.2351
-4.21019
-4.17464
-4.14864
-4.14705
-4.25172
-4.56975
-3.29444
-3.61658
-3.88767
-4.0287
-4.09287
-4.13724
-4.17997
-4.21813
-4.2461
-4.26171
-4.26483
-4.25725
-4.24071
-4.22242
-4.21468
-4.2482
-4.3692
-4.65306
-3.42339
-3.6676
-3.90101
-4.04074
-4.10863
-4.1523
-4.19342
-4.23151
-4.26137
-4.27977
-4.28758
-4.28635
-4.28064
-4.27736
-4.2908
-4.34556
-4.47323
-4.70335
-3.51112
-3.70249
-3.90318
-4.04217
-4.11788
-4.16429
-4.2047
-4.24276
-4.2743
-4.29655
-4.30966
-4.31624
-4.32107
-4.332
-4.36198
-4.42914
-4.55195
-4.7393
-3.62476
-3.75854
-3.92455
-4.056
-4.13528
-4.18354
-4.22338
-4.26129
-4.2944
-4.31988
-4.33811
-4.35207
-4.36686
-4.39009
-4.4321
-4.50541
-4.62046
-4.78002
-3.73525
-3.80986
-3.93936
-4.06353
-4.14745
-4.19961
-4.23986
-4.27787
-4.31315
-4.34291
-4.36708
-4.3887
-4.41285
-4.44633
-4.4973
-4.5741
-4.68291
-4.82451
-3.82697
-3.86961
-3.97173
-4.08248
-4.1659
-4.22114
-4.2628
-4.30092
-4.3374
-4.37068
-4.40053
-4.42947
-4.46208
-4.50405
-4.56151
-4.64022
-4.74406
-4.87296
-3.88929
-3.92497
-4.00374
-4.10035
-4.18226
-4.24105
-4.28536
-4.32501
-4.36361
-4.40067
-4.43595
-4.47157
-4.51147
-4.56036
-4.62301
-4.70335
-4.80374
-4.92374
-3.94234
-3.9785
-4.04444
-4.12639
-4.20361
-4.26424
-4.31107
-4.35223
-4.3927
-4.43321
-4.47385
-4.516
-4.56264
-4.61753
-4.6844
-4.76595
-4.86378
-4.9773
-4.017
-4.03874
-4.08607
-4.15602
-4.22879
-4.28979
-4.33869
-4.38241
-4.42569
-4.46978
-4.51476
-4.56202
-4.61413
-4.67393
-4.7441
-4.82658
-4.92239
-5.03126
-4.08665
-4.07871
-4.11697
-4.18356
-4.25319
-4.3135
-4.36445
-4.41055
-4.45626
-4.50341
-4.55268
-4.6048
-4.66155
-4.72523
-4.79788
-4.88098
-4.97518
-5.08044
-4.16667
-4.13678
-4.16084
-4.21911
-4.28364
-4.34238
-4.39427
-4.44294
-4.4915
-4.54156
-4.59393
-4.64971
-4.71021
-4.777
-4.85151
-4.93488
-5.02747
-5.12932
-4.13617
-4.16686
-4.20749
-4.25735
-4.31373
-4.37126
-4.42613
-4.47827
-4.52997
-4.58334
-4.63955
-4.69941
-4.76376
-4.83366
-4.91002
-4.99365
-5.0848
-5.18341
-4.17011
-4.22466
-4.2693
-4.31
-4.35873
-4.41402
-4.47021
-4.52506
-4.57982
-4.63643
-4.69616
-4.7597
-4.82749
-4.89999
-4.97781
-5.06134
-5.15089
-5.24629
-4.29959
-4.29525
-4.31138
-4.34895
-4.40077
-4.45805
-4.51558
-4.5727
-4.63071
-4.69095
-4.7543
-4.8212
-4.89192
-4.96662
-5.04559
-5.12888
-5.21654
-5.30814
-4.40217
-4.37438
-4.37761
-4.41088
-4.46068
-4.51577
-4.57223
-4.63039
-4.69101
-4.75451
-4.82106
-4.89076
-4.96366
-5.03978
-5.11916
-5.20176
-5.28755
-5.37632
-4.37149
-4.39419
-4.42682
-4.46681
-4.51354
-4.56672
-4.62519
-4.68719
-4.75165
-4.81833
-4.88753
-4.95945
-5.03408
-5.11126
-5.19082
-5.27259
-5.35638
-5.44196
-4.38906
-4.42161
-4.46522
-4.51276
-4.56494
-4.62228
-4.68341
-4.74765
-4.81499
-4.88498
-4.95708
-5.03112
-5.10706
-5.18479
-5.26408
-5.34462
-5.42619
-5.50852
-4.54442
-4.5127
-4.51262
-4.54499
-4.59797
-4.65914
-4.72236
-4.78748
-4.85534
-4.92604
-4.99916
-5.07414
-5.15068
-5.22851
-5.30747
-5.38733
-5.46802
-5.54926
-4.46515
-4.46237
-4.48813
-4.54039
-4.60564
-4.67328
-4.74069
-4.80903
-4.87962
-4.95277
-5.02791
-5.10433
-5.18161
-5.2596
-5.33814
-5.41704
-5.4961
-5.57514
-4.45303
-4.45398
-4.4854
-4.54037
-4.60634
-4.67625
-4.74663
-4.81704
-4.88893
-4.96308
-5.03907
-5.11613
-5.19378
-5.27188
-5.35036
-5.42915
-5.5081
-5.58708
-4.32705
-4.39365
-4.46508
-4.53522
-4.60683
-4.67984
-4.75275
-4.82587
-4.90023
-4.97618
-5.05324
-5.13088
-5.20876
-5.2868
-5.36485
-5.4428
-5.5205
-5.59786
-4.27454
-4.33231
-4.41946
-4.51131
-4.59463
-4.67047
-4.74371
-4.81803
-4.8945
-4.97249
-5.05097
-5.12935
-5.20759
-5.28579
-5.36396
-5.442
-5.51976
-5.59705
-4.31473
-4.33641
-4.41355
-4.51223
-4.60181
-4.67871
-4.75133
-4.82571
-4.90299
-4.98171
-5.06046
-5.13881
-5.21684
-5.29466
-5.37222
-5.44942
-5.52616
-5.60235
-4.12778
-4.24299
-4.37456
-4.4913
-4.58428
-4.66224
-4.73685
-4.81383
-4.89341
-4.97378
-5.05367
-5.13275
-5.21128
-5.28949
-5.36736
-5.44471
-5.52146
-5.59756
-4.1022
-4.23533
-4.38279
-4.50196
-4.59025
-4.66489
-4.73944
-4.81754
-4.8977
-4.97798
-5.05744
-5.13619
-5.21449
-5.29242
-5.36984
-5.44661
-5.52267
-5.59793
-4.01107
-4.17264
-4.35377
-4.48692
-4.57621
-4.6512
-4.72815
-4.80868
-4.89021
-4.9711
-5.05105
-5.13024
-5.2089
-5.28697
-5.36436
-5.44095
-5.51681
-5.5922
-3.99486
-4.17507
-4.36429
-4.49151
-4.57633
-4.65101
-4.72869
-4.80947
-4.8909
-4.97169
-5.05162
-5.13087
-5.20961
-5.28764
-5.36483
-5.44088
-5.51604
-5.59017
-3.77105
-4.14041
-4.36637
-4.48492
-4.56698
-4.64392
-4.72332
-4.80465
-4.8862
-4.96713
-5.04732
-5.12688
-5.20589
-5.28405
-5.36123
-5.43703
-5.51177
-5.58475
-6.7726
-7.01457
-7.28367
-7.44185
-7.34614
-7.00727
-6.59276
-6.30832
-6.29877
-6.59843
-7.16875
-7.92898
-8.77266
-9.60387
-10.3494
-10.9579
-11.3978
-11.656
-11.7375
-11.6614
-11.4578
-11.1625
-10.8199
-10.4686
-10.1663
-9.94762
-9.86554
-9.90398
-9.98194
-10.0623
-10.1789
-10.4012
-10.7492
-11.1413
-11.4658
-11.6772
-11.7814
-11.9827
-12.4984
-13.2775
-14.0392
-14.6538
-15.1113
-15.5356
-16.0875
-16.6908
-17.2766
-17.8651
-18.2911
-18.6142
-19.1938
-19.9472
-20.81
-21.8036
-22.8768
-23.9069
-24.7866
-25.764
-26.9873
-28.404
-29.8832
-31.3474
-32.711
-33.9099
-34.8885
-35.6098
-36.0574
-36.241
-36.1857
-35.9201
-35.4693
-34.8576
-34.1045
-33.2265
-32.2436
-31.177
-30.0454
-28.8635
-27.6437
-26.3975
-25.133
-23.8548
-22.5637
-21.2575
-19.9317
-18.5812
-17.2009
-15.787
-14.3375
-12.8531
-11.3391
-9.80456
-8.26229
-6.72653
-5.2111
-3.72696
-2.28023
-0.87202
0.500863
1.84465
3.16632
4.47202
5.76457
7.04329
8.30336
9.53709
10.7346
11.8854
12.979
14.0063
14.9601
15.8344
16.6248
17.3282
17.9425
18.4664
18.9
19.2445
19.5022
19.6772
19.7747
19.801
19.7632
19.6689
19.5262
19.343
19.1269
18.8853
18.6255
18.3542
18.0775
17.8012
17.5305
17.2698
17.0232
16.7935
16.5834
16.3942
16.2269
16.0816
15.9586
15.8576
15.778
15.7191
15.6799
15.6594
15.6565
15.6701
15.6987
15.741
15.7951
15.859
15.9305
16.0067
16.0851
16.1629
16.2382
16.3095
16.3752
16.4348
16.4893
16.5418
16.5963
16.6549
16.7159
16.7758
16.8315
16.8826
16.9295
16.9738
17.0175
17.0641
17.1163
17.1786
17.2525
17.343
17.452
17.587
17.7595
17.9541
-7.80907
-8.04734
-8.26373
-8.42679
-8.31087
-8.00216
-7.69449
-7.57286
-7.73335
-8.16401
-8.79741
-9.54825
-10.3324
-11.0746
-11.7187
-12.2293
-12.5878
-12.7896
-12.8399
-12.7508
-12.541
-12.2429
-11.8968
-11.5486
-11.2385
-11.0213
-10.8867
-10.8658
-10.8998
-11.0374
-11.4198
-11.9566
-12.5643
-13.1404
-13.5802
-13.8916
-14.1122
-14.3714
-14.8098
-15.4445
-16.077
-16.5773
-16.9072
-17.1439
-17.5381
-17.9822
-18.69
-19.7402
-20.4278
-20.9011
-21.5291
-22.2502
-23.0239
-23.8526
-24.7026
-25.6735
-26.6269
-27.6135
-28.7786
-30.0472
-31.3594
-32.6471
-33.8506
-34.9146
-35.7856
-36.4211
-36.7987
-36.9191
-36.8042
-36.4871
-35.9957
-35.3518
-34.5734
-33.6723
-32.6623
-31.5652
-30.4018
-29.1901
-27.9453
-26.6804
-25.4044
-24.1217
-22.8322
-21.5324
-20.2164
-18.8775
-17.5085
-16.1037
-14.66
-13.1778
-11.6614
-10.1198
-8.56617
-7.01599
-5.48478
-3.98514
-2.52429
-1.10354
0.280844
1.63576
2.96906
4.28672
5.59115
6.88181
8.1544
9.40089
10.6109
11.7734
12.8775
13.9143
14.8763
15.7578
16.5546
17.2638
17.8832
18.4117
18.8493
19.1972
19.4578
19.6351
19.7347
19.7628
19.7266
19.6339
19.4929
19.3113
19.0969
18.8571
18.5989
18.3291
18.0539
17.7789
17.5092
17.2495
17.0036
16.7746
16.5648
16.3759
16.209
16.0644
15.9424
15.8423
15.7638
15.7059
15.6678
15.6484
15.6465
15.6609
15.6904
15.7335
15.7884
15.8531
15.9254
16.0024
16.0813
16.1596
16.2354
16.307
16.3733
16.4337
16.4889
16.5421
16.5971
16.6558
16.7168
16.7765
16.832
16.8828
16.9294
16.9734
17.0163
17.0618
17.113
17.1733
17.2455
17.3309
17.4361
17.5572
17.7158
17.8558
-7.4358
-7.52223
-7.68864
-7.94273
-8.20295
-8.46221
-8.78291
-9.23611
-9.85367
-10.6014
-11.4076
-12.2164
-12.9735
-13.6373
-14.1773
-14.576
-14.8254
-14.9265
-14.8896
-14.735
-14.4867
-14.1675
-13.8039
-13.4321
-13.0709
-12.7812
-12.567
-12.4499
-12.4818
-12.6778
-13.0443
-13.5551
-14.1754
-14.8068
-15.3715
-15.8102
-16.2209
-16.7083
-17.2834
-17.9082
-18.4094
-18.7066
-18.783
-18.95
-19.4384
-20.1207
-20.8697
-21.7911
-22.7055
-23.4994
-24.248
-24.9549
-25.6168
-26.2865
-27.0413
-27.877
-28.8063
-29.8137
-30.8964
-32.0194
-33.156
-34.2682
-35.3186
-36.258
-37.0351
-37.6028
-37.9329
-38.0212
-37.8826
-37.5422
-37.021
-36.3337
-35.4955
-34.5249
-33.4425
-32.2721
-31.0385
-29.765
-28.4716
-27.1732
-25.8792
-24.5927
-23.3117
-22.0295
-20.7368
-19.4228
-18.0773
-16.6923
-15.262
-13.7844
-12.2627
-10.706
-9.12944
-7.55124
-5.99021
-4.462
-2.97597
-1.53397
-0.131792
1.23915
2.58797
3.92251
5.24683
6.5602
7.85721
9.12869
10.3631
11.5482
12.6731
13.7282
14.7061
15.6015
16.4106
17.1308
17.7601
18.2975
18.7429
19.0973
19.3634
19.5454
19.6488
19.6804
19.6475
19.5584
19.4209
19.243
19.0323
18.7962
18.5418
18.2756
18.0037
17.7317
17.4649
17.2077
16.9639
16.7369
16.529
16.3418
16.1765
16.0335
15.913
15.8146
15.7377
15.6816
15.6453
15.6278
15.6279
15.6444
15.6761
15.7213
15.7785
15.8455
15.9199
15.9989
16.0798
16.16
16.2372
16.3101
16.3777
16.4399
16.4978
16.5533
16.609
16.666
16.7233
16.7791
16.8319
16.8811
16.9271
16.9708
17.014
17.0589
17.1085
17.1647
17.2316
17.3078
17.401
17.5004
17.6243
17.7119
-7.30094
-7.31027
-7.52237
-7.96787
-8.61934
-9.40294
-10.2514
-11.1509
-12.0764
-12.9844
-13.8382
-14.6202
-15.308
-15.8829
-16.331
-16.6473
-16.8327
-16.8941
-16.8431
-16.694
-16.4656
-16.1782
-15.8498
-15.5095
-15.1917
-14.9048
-14.6749
-14.5077
-14.4254
-14.4487
-14.5958
-14.8704
-15.2536
-15.6893
-16.1252
-16.5555
-17.0653
-17.7317
-18.5045
-19.2282
-19.7742
-20.1309
-20.2979
-20.512
-20.988
-21.7367
-22.6691
-23.6855
-24.6907
-25.6239
-26.4484
-27.1687
-27.8168
-28.4672
-29.2038
-30.0295
-30.9368
-31.9027
-32.9163
-33.9566
-35.0021
-36.0236
-36.9884
-37.8532
-38.57
-39.0928
-39.3904
-39.4504
-39.28
-38.8976
-38.318
-37.5568
-36.6318
-35.5655
-34.3852
-33.1215
-31.805
-30.4637
-29.1205
-27.7919
-26.4871
-25.2078
-23.9492
-22.7009
-21.4487
-20.1776
-18.8733
-17.5236
-16.1194
-14.6558
-13.1333
-11.5605
-9.95436
-8.33719
-6.73289
-5.16243
-3.63941
-2.16757
-0.741047
0.651585
2.0233
3.38446
4.7398
6.08754
7.42114
8.72983
10.0004
11.2194
12.3746
13.4561
14.4566
15.3716
16.1979
16.9335
17.5767
18.1265
18.5826
18.946
19.2196
19.4077
19.5164
19.5526
19.5245
19.4402
19.3077
19.135
18.9298
18.6994
18.4507
18.19
17.9235
17.6565
17.3943
17.1414
16.9016
16.6782
16.4734
16.2893
16.1269
15.9867
15.8692
15.7737
15.6997
15.6465
15.6131
15.5984
15.6014
15.6208
15.6555
15.7039
15.7641
15.8341
15.9114
15.9931
16.0762
16.1582
16.2371
16.3113
16.3801
16.4433
16.5016
16.5573
16.6124
16.6683
16.7245
16.7795
16.8316
16.8802
16.9258
16.969
17.0114
17.0545
17.1015
17.1534
17.2141
17.2811
17.3605
17.4406
17.5315
17.5814
-7.17061
-7.36838
-7.88589
-8.72162
-9.71765
-10.7777
-11.8489
-12.895
-13.9015
-14.8504
-15.7306
-16.5275
-17.2239
-17.802
-18.2502
-18.5662
-18.7568
-18.835
-18.8166
-18.7143
-18.5366
-18.2983
-18.0274
-17.7503
-17.4884
-17.2546
-17.0514
-16.8738
-16.7161
-16.5773
-16.4667
-16.4
-16.3952
-16.466
-16.6259
-16.9055
-17.3602
-18.0199
-18.7964
-19.5522
-20.174
-20.6711
-21.0917
-21.5521
-22.1656
-22.9932
-24.0076
-25.1192
-26.2494
-27.332
-28.3059
-29.1535
-29.9038
-30.6297
-31.3928
-32.203
-33.0639
-33.9756
-34.9353
-35.9224
-36.9119
-37.8755
-38.783
-39.5948
-40.2659
-40.7538
-41.0276
-41.068
-40.8685
-40.4355
-39.7813
-38.9246
-37.8897
-36.7073
-35.4125
-34.0427
-32.6347
-31.2208
-29.8272
-28.4716
-27.1635
-25.903
-24.6826
-23.4875
-22.2991
-21.0974
-19.8625
-18.5764
-17.2239
-15.7945
-14.2854
-12.7029
-11.0641
-9.39604
-7.73072
-6.09876
-4.52171
-3.00679
-1.54572
-0.121743
1.28243
2.67927
4.07463
5.46714
6.84901
8.20725
9.5259
10.7893
11.9836
13.0985
14.1274
15.0665
15.914
16.6685
17.3288
17.8939
18.3631
18.7376
19.0203
19.2156
19.3307
19.3728
19.3505
19.2722
19.1462
18.9805
18.7828
18.5601
18.3193
18.0664
17.8074
17.5477
17.2923
17.0455
16.8114
16.5932
16.3935
16.2141
16.0565
15.9213
15.8084
15.7175
15.648
15.5992
15.5702
15.5598
15.5671
15.5909
15.6298
15.6823
15.7466
15.8204
15.9013
15.9863
16.0725
16.157
16.2376
16.3131
16.3832
16.4477
16.5077
16.5646
16.6204
16.6759
16.7308
16.7835
16.8334
16.8804
16.9248
16.967
17.0082
17.0495
17.0934
17.1408
17.1945
17.2524
17.3176
17.38
17.4416
17.4644
-7.37952
-7.91154
-8.86754
-9.94392
-11.1004
-12.2749
-13.421
-14.525
-15.5876
-16.6109
-17.5849
-18.4877
-19.2932
-19.9763
-20.5203
-20.9214
-21.1848
-21.3229
-21.3516
-21.2878
-21.1474
-20.9493
-20.7164
-20.4709
-20.2325
-20.0115
-19.8053
-19.6009
-19.3795
-19.1255
-18.835
-18.5231
-18.2285
-18.0086
-17.9182
-18.025
-18.3548
-18.9163
-19.6295
-20.3873
-21.0983
-21.7397
-22.3493
-22.9891
-23.7293
-24.6316
-25.6995
-26.8843
-28.1182
-29.3267
-30.4488
-31.4606
-32.3498
-33.144
-33.9004
-34.6642
-35.4687
-36.3255
-37.2318
-38.1663
-39.1005
-40.0035
-40.8468
-41.5973
-42.2156
-42.6595
-42.8952
-42.896
-42.6463
-42.1424
-41.3938
-40.423
-39.2616
-37.9484
-36.5264
-35.0404
-33.5328
-32.0411
-30.5944
-29.2124
-27.904
-26.668
-25.4935
-24.3624
-23.2516
-22.1361
-20.9899
-19.7894
-18.5135
-17.1448
-15.6718
-14.0953
-12.43
-10.7072
-8.96862
-7.25791
-5.60765
-4.03118
-2.52128
-1.05643
0.38637
1.82482
3.26869
4.71663
6.15845
7.57749
8.95452
10.271
11.5114
12.6654
13.7269
14.6937
15.5655
16.3421
17.0227
17.6061
18.0911
18.4786
18.7717
18.9757
19.0979
19.1468
19.1312
19.0601
18.9419
18.7847
18.596
18.3828
18.1516
17.9084
17.6588
17.4083
17.1616
16.9232
16.6969
16.4859
16.2928
16.1199
15.9684
15.8391
15.7323
15.6476
15.5845
15.5419
15.519
15.5145
15.5276
15.557
15.6014
15.6591
15.7282
15.8066
15.8914
15.9799
16.0689
16.1558
16.2386
16.316
16.3874
16.4531
16.5139
16.5713
16.6269
16.6814
16.7347
16.786
16.8348
16.8807
16.9242
16.9653
17.0049
17.0439
17.0844
17.1269
17.1734
17.222
17.2736
17.3197
17.3573
17.3594
-8.83416
-9.44382
-10.4199
-11.4693
-12.5561
-13.6822
-14.8265
-15.975
-17.1242
-18.267
-19.378
-20.4254
-21.3769
-22.2025
-22.8832
-23.4132
-23.7979
-24.0507
-24.1874
-24.2211
-24.1641
-24.0318
-23.845
-23.627
-23.3971
-23.1651
-22.9311
-22.6841
-22.4066
-22.0792
-21.6906
-21.2484
-20.7893
-20.3928
-20.1453
-20.1407
-20.3881
-20.8703
-21.5326
-22.2922
-23.0632
-23.8081
-24.5356
-25.2826
-26.1024
-27.04
-28.1127
-29.2995
-30.5434
-31.7869
-32.9829
-34.0971
-35.0687
-35.8806
-36.6032
-37.3153
-38.0636
-38.868
-39.7243
-40.6118
-41.5004
-42.3558
-43.1487
-43.8489
-44.4203
-44.8222
-45.0143
-44.9631
-44.6454
-44.0535
-43.1975
-42.1025
-40.8062
-39.3553
-37.8008
-36.1943
-34.5841
-33.0113
-31.5073
-30.0925
-28.7765
-27.5572
-26.421
-25.3463
-24.3062
-23.2702
-22.2077
-21.0911
-19.8964
-18.6015
-17.1863
-15.6407
-13.9722
-12.2106
-10.4043
-8.61017
-6.87626
-5.22646
-3.65775
-2.14443
-0.654666
0.836669
2.34126
3.85651
5.36943
6.85928
8.30302
9.6794
10.9714
12.1682
13.2652
14.2619
15.1602
15.9613
16.6645
17.2686
17.7709
18.1726
18.4767
18.6894
18.819
18.8749
18.8667
18.8036
18.6943
18.5468
18.3685
18.1663
17.9462
17.7142
17.4757
17.2359
16.9996
16.7713
16.5546
16.3528
16.1686
16.0041
15.8605
15.7389
15.6396
15.5626
15.5072
15.4725
15.4575
15.4608
15.4813
15.5177
15.5686
15.6325
15.7074
15.791
15.8805
15.973
16.0655
16.1553
16.2402
16.3192
16.392
16.4592
16.5213
16.5796
16.6353
16.6894
16.7417
16.7917
16.8388
16.883
16.9247
16.9642
17.0019
17.0382
17.0748
17.1122
17.1515
17.191
17.2299
17.2614
17.2795
17.2654
-10.5742
-11.0843
-11.8114
-12.7092
-13.7317
-14.8349
-15.9848
-17.1687
-18.3929
-19.6446
-20.8872
-22.0824
-23.1933
-24.1881
-25.0451
-25.7549
-26.3191
-26.7469
-27.0477
-27.2281
-27.2951
-27.2615
-27.1466
-26.9719
-26.7569
-26.5146
-26.2497
-25.9589
-25.6315
-25.2518
-24.8085
-24.3072
-23.7833
-23.3254
-23.0401
-23.0074
-23.2321
-23.6973
-24.3609
-25.1473
-25.9735
-26.7982
-27.6125
-28.43
-29.2817
-30.2037
-31.2254
-32.3416
-33.5049
-34.6862
-35.8564
-36.9637
-37.9163
-38.6836
-39.345
-40.0065
-40.7198
-41.4976
-42.3238
-43.1818
-44.044
-44.8714
-45.633
-46.3013
-46.8412
-47.2093
-47.3586
-47.2507
-46.8596
-46.175
-45.2072
-43.9839
-42.5501
-40.9613
-39.2775
-37.558
-35.8553
-34.2111
-32.6553
-31.2066
-29.8737
-28.6535
-27.5318
-26.4851
-25.4835
-24.4938
-23.4837
-22.4257
-21.2975
-20.0766
-18.7354
-17.2501
-15.6115
-13.8389
-11.9826
-10.1125
-8.29514
-6.56851
-4.93367
-3.36191
-1.81326
-0.257668
1.31819
2.91081
4.50388
6.07205
7.58864
9.02984
10.3771
11.6192
12.7529
13.7804
14.7059
15.5325
16.2597
16.8848
17.4051
17.8208
18.1358
18.3572
18.4945
18.558
18.558
18.504
18.4049
18.2686
18.1024
17.9126
17.7054
17.4862
17.2602
17.0326
16.8083
16.5916
16.3864
16.1959
16.0225
15.8681
15.7345
15.6223
15.5322
15.4642
15.4179
15.3926
15.3869
15.3996
15.4292
15.4742
15.5332
15.6044
15.6858
15.7751
15.8695
15.9662
16.0621
16.1546
16.2422
16.3235
16.3982
16.4668
16.53
16.5891
16.645
16.6986
16.7498
16.7981
16.8435
16.8861
16.926
16.9636
16.9989
17.0323
17.0649
17.0971
17.1293
17.1601
17.1876
17.2059
17.2084
17.1808
-11.8047
-12.1915
-12.8075
-13.6301
-14.605
-15.6839
-16.8386
-18.0605
-19.3575
-20.7092
-22.0718
-23.4087
-24.6821
-25.8578
-26.9112
-27.8289
-28.6074
-29.2471
-29.7467
-30.1047
-30.3249
-30.4186
-30.4032
-30.2971
-30.1182
-29.8817
-29.5964
-29.2658
-28.8869
-28.4522
-27.9583
-27.4209
-26.883
-26.4358
-26.1832
-26.1809
-26.4393
-26.9455
-27.6602
-28.5083
-29.4148
-30.3331
-31.2353
-32.1139
-32.9788
-33.8562
-34.7922
-35.7947
-36.8263
-37.88
-38.9355
-39.9263
-40.7602
-41.4253
-42.0135
-42.63
-43.3195
-44.0847
-44.8988
-45.7447
-46.5959
-47.4165
-48.173
-48.8346
-49.3618
-49.7077
-49.821
-49.6582
-49.1933
-48.4166
-47.3392
-45.9928
-44.4295
-42.7142
-40.9151
-39.0982
-37.3199
-35.6217
-34.0286
-32.5534
-31.2016
-29.9706
-28.8452
-27.7991
-26.8005
-25.8158
-24.8164
-23.7818
-22.6978
-21.5452
-20.2905
-18.8894
-17.306
-15.5421
-13.6484
-11.7109
-9.81585
-8.01421
-6.31014
-4.67382
-3.05932
-1.43259
0.221727
1.89919
3.57855
5.22984
6.82282
8.33168
9.73659
11.0257
12.1968
13.2548
14.2074
15.0591
15.8099
16.4558
16.9933
17.4223
17.7475
17.9776
18.1232
18.1956
18.2053
18.1623
18.0751
17.9516
17.7988
17.6231
17.4302
17.2252
17.0132
16.799
16.5878
16.3841
16.1919
16.0141
15.8531
15.7107
15.5883
15.4872
15.4082
15.3512
15.3157
15.301
15.3061
15.3294
15.3695
15.4246
15.493
15.5727
15.6617
15.7573
15.8571
15.9582
16.0577
16.1534
16.2435
16.3271
16.4039
16.4744
16.5393
16.5994
16.6557
16.7089
16.7591
16.8062
16.85
16.8907
16.9286
16.9638
16.9965
17.0267
17.0552
17.0821
17.1076
17.1301
17.1472
17.1539
17.1435
17.1049
-12.6523
-12.9743
-13.5261
-14.3021
-15.2533
-16.3359
-17.5138
-18.7775
-20.1323
-21.5612
-23.0283
-24.5008
-25.9407
-27.3087
-28.5737
-29.7149
-30.7196
-31.5781
-32.2811
-32.8217
-33.2033
-33.4356
-33.5318
-33.5065
-33.3761
-33.1565
-32.8593
-32.4935
-32.0624
-31.5695
-31.0254
-30.4599
-29.9289
-29.516
-29.3093
-29.354
-29.6641
-30.2304
-31.0124
-31.9374
-32.9363
-33.9537
-34.9484
-35.8957
-36.7861
-37.6378
-38.5083
-39.3972
-40.279
-41.1699
-42.0599
-42.872
-43.5318
-44.0591
-44.5626
-45.1347
-45.7966
-46.5431
-47.3521
-48.1998
-49.0556
-49.8857
-50.6551
-51.3257
-51.8535
-52.1861
-52.2693
-52.057
-51.5223
-50.6591
-49.4827
-48.0293
-46.3559
-44.535
-42.642
-40.7486
-38.9137
-37.18
-35.5683
-34.0827
-32.7208
-31.4772
-30.3369
-29.2737
-28.2553
-27.2493
-26.2345
-25.1995
-24.1405
-23.0454
-21.8751
-20.56
-19.0321
-17.2762
-15.3474
-13.3474
-11.381
-9.51088
-7.74301
-6.04549
-4.36582
-2.66455
-0.925784
0.842451
2.61252
4.34869
6.01827
7.59492
9.0579
10.3942
11.6021
12.6899
13.6685
14.5442
15.317
15.982
16.5345
16.9751
17.3096
17.5483
17.7032
17.786
17.8077
17.7778
17.7048
17.5962
17.4586
17.2984
17.121
16.9315
16.7346
16.5352
16.3384
16.149
15.9709
15.8073
15.6603
15.5314
15.4222
15.334
15.2675
15.2228
15.1996
15.1971
15.2143
15.2497
15.3015
15.368
15.4471
15.5366
15.634
15.7369
15.8426
15.9484
16.0519
16.1508
16.2438
16.3302
16.4096
16.4823
16.549
16.6104
16.6672
16.7202
16.7696
16.8154
16.8577
16.8964
16.9321
16.9648
16.9946
17.0215
17.0458
17.0676
17.0866
17.1013
17.1092
17.1058
17.0845
17.0368
-13.2606
-13.5532
-14.1038
-14.8919
-15.8706
-16.9967
-18.2365
-19.5761
-21.0153
-22.5407
-24.1252
-25.7371
-27.3381
-28.8866
-30.3457
-31.6866
-32.887
-33.9287
-34.7971
-35.4865
-36.001
-36.3499
-36.5433
-36.5922
-36.5088
-36.306
-35.9972
-35.5955
-35.1123
-34.562
-33.9677
-33.3676
-32.8262
-32.4249
-32.2376
-32.3032
-32.6381
-33.2343
-34.0524
-35.0277
-36.0948
-37.193
-38.2727
-39.2952
-40.2353
-41.0998
-41.9446
-42.751
-43.513
-44.2635
-44.99
-45.6254
-46.1258
-46.5291
-46.9487
-47.4717
-48.1025
-48.8267
-49.6284
-50.4817
-51.349
-52.1942
-52.9798
-53.6609
-54.1866
-54.4996
-54.545
-54.2787
-53.6762
-52.7371
-51.4815
-49.9487
-48.1985
-46.3083
-44.358
-42.42
-40.5532
-38.8042
-37.1947
-35.7222
-34.3724
-33.1307
-31.9794
-30.8944
-29.8464
-28.8095
-27.77
-26.7272
-25.6851
-24.6334
-23.5248
-22.2651
-20.7606
-18.9913
-17.0162
-14.9568
-12.9318
-11.0105
-9.19415
-7.44298
-5.69735
-3.91603
-2.08655
-0.2233
1.63785
3.45585
5.19649
6.83592
8.35217
9.7319
10.9746
12.0905
13.0934
13.991
14.7829
15.4632
16.0273
16.4768
16.8196
17.0674
17.2331
17.3286
17.3646
17.3502
17.2935
17.2015
17.0809
16.9377
16.7773
16.6046
16.4241
16.2408
16.0599
15.8863
15.7241
15.5762
15.4446
15.331
15.2367
15.1628
15.1102
15.0793
15.0698
15.0809
15.1114
15.1598
15.2244
15.3032
15.3939
15.4941
15.601
15.7122
15.8247
15.9361
16.0442
16.147
16.2434
16.3328
16.4149
16.49
16.5587
16.6215
16.6791
16.732
16.7807
16.8253
16.866
16.9029
16.9364
16.9665
16.9933
17.0168
17.0369
17.0537
17.0666
17.0743
17.0739
17.0615
17.0312
16.9758
-13.8474
-14.1482
-14.7351
-15.5881
-16.6671
-17.9257
-19.3188
-20.8155
-22.4025
-24.0635
-25.777
-27.5128
-29.235
-30.9038
-32.4817
-33.9361
-35.2408
-36.3775
-37.3375
-38.1188
-38.724
-39.1579
-39.4247
-39.5281
-39.473
-39.2675
-38.9235
-38.4576
-37.8902
-37.2493
-36.5726
-35.9098
-35.3287
-34.9021
-34.689
-34.7253
-35.0318
-35.6053
-36.4117
-37.3937
-38.486
-39.6243
-40.7527
-41.8262
-42.8127
-43.6962
-44.4985
-45.2115
-45.8601
-46.508
-47.1456
-47.7049
-48.155
-48.5364
-48.9415
-49.4559
-50.0922
-50.8233
-51.629
-52.4939
-53.3764
-54.2357
-55.0297
-55.7079
-56.2136
-56.4884
-56.48
-56.1494
-55.4766
-54.4681
-53.1532
-51.5743
-49.7899
-47.879
-45.9222
-43.9886
-42.131
-40.3994
-38.8204
-37.3889
-36.0779
-34.8582
-33.7084
-32.6089
-31.5379
-30.4776
-29.4219
-28.3758
-27.3461
-26.3175
-25.2292
-23.9709
-22.4403
-20.6245
-18.5923
-16.4834
-14.4225
-12.473
-10.6215
-8.81711
-6.99886
-5.12949
-3.20542
-1.24945
0.694066
2.5837
4.38339
6.07246
7.632
9.04843
10.3212
11.4621
12.4866
13.4029
14.2093
14.8997
15.4711
15.9273
16.2781
16.5366
16.7153
16.8259
16.8783
16.8811
16.8419
16.7678
16.665
16.5395
16.3968
16.2419
16.0796
15.9147
15.7522
15.5967
15.4525
15.3223
15.2081
15.1115
15.0336
14.9757
14.9385
14.9227
14.9281
14.9539
14.9988
15.0613
15.1395
15.2313
15.3343
15.4459
15.5632
15.6834
15.8038
15.9218
16.0353
16.1427
16.2429
16.3356
16.4205
16.498
16.5687
16.6329
16.6914
16.7443
16.7924
16.8358
16.8749
16.91
16.9412
16.9687
16.9926
17.0126
17.0286
17.0406
17.0479
17.049
17.0413
17.0211
16.9831
16.9212
-14.5085
-14.8459
-15.5281
-16.5328
-17.8135
-19.3053
-20.9415
-22.6679
-24.4506
-26.2679
-28.0987
-29.9161
-31.6881
-33.3802
-34.962
-36.4101
-37.7072
-38.8426
-39.8124
-40.6147
-41.2482
-41.7104
-41.9962
-42.0987
-42.0147
-41.7488
-41.3159
-40.7405
-40.0544
-39.297
-38.5149
-37.7631
-37.1053
-36.6047
-36.3122
-36.267
-36.4965
-37.0036
-37.759
-38.7073
-39.7819
-40.9174
-42.0542
-43.1444
-44.1629
-45.0639
-45.8177
-46.4437
-47.0078
-47.5836
-48.1907
-48.7742
-49.3008
-49.7823
-50.2821
-50.8695
-51.5776
-52.3731
-53.2174
-54.1051
-55.0051
-55.8749
-56.6656
-57.3229
-57.7883
-58.008
-57.9357
-57.537
-56.796
-55.7268
-54.3745
-52.7819
-51.0052
-49.1209
-47.2083
-45.3319
-43.5339
-41.8654
-40.3571
-38.9996
-37.753
-36.5745
-35.4386
-34.3346
-33.2553
-32.1903
-31.1326
-30.0865
-29.0565
-28.018
-26.8994
-25.5885
-23.9925
-22.1097
-20.0257
-17.8888
-15.816
-13.8512
-11.9655
-10.1004
-8.2003
-6.241
-4.22991
-2.19682
-0.189953
1.75128
3.59387
5.31862
6.90944
8.35314
9.64919
10.8105
11.8527
12.7827
13.598
14.2934
14.8688
15.3309
15.6909
15.9619
16.1557
16.2829
16.3525
16.3728
16.3514
16.2949
16.2099
16.1024
15.9779
15.8418
15.699
15.5547
15.4137
15.28
15.1569
15.0471
14.9524
14.8745
14.8149
14.7744
14.7541
14.7546
14.7759
14.8173
14.8775
14.9548
15.0475
15.1532
15.2693
15.3931
15.5216
15.6517
15.7807
15.9061
16.0259
16.1385
16.243
16.3392
16.4271
16.5069
16.5793
16.6449
16.704
16.7571
16.8045
16.8468
16.8844
16.9176
16.9467
16.9716
16.9924
17.0089
17.0211
17.0285
17.0305
17.0257
17.0114
16.9844
16.9398
16.8724
-15.2032
-15.6103
-16.441
-17.6612
-19.2055
-20.9759
-22.874
-24.8238
-26.7742
-28.6966
-30.571
-32.3821
-34.1118
-35.742
-37.2589
-38.6536
-39.9144
-41.0201
-41.9511
-42.6974
-43.2576
-43.635
-43.8299
-43.839
-43.6601
-43.2974
-42.7642
-42.0834
-41.2858
-40.4106
-39.5078
-38.6371
-37.8639
-37.2489
-36.8441
-36.692
-36.8207
-37.2344
-37.9077
-38.7894
-39.8162
-40.9226
-42.0493
-43.1417
-44.1799
-45.1108
-45.8695
-46.4668
-47.009
-47.5685
-48.1999
-48.8712
-49.5449
-50.2145
-50.9056
-51.6542
-52.4983
-53.4003
-54.3121
-55.2237
-56.1254
-56.9858
-57.754
-58.3734
-58.7881
-58.9484
-58.814
-58.3532
-57.5529
-56.4387
-55.0749
-53.5107
-51.7897
-49.977
-48.1514
-46.3755
-44.6836
-43.1228
-41.7215
-40.4665
-39.3061
-38.1871
-37.0776
-35.9748
-34.8973
-33.8406
-32.7879
-31.7356
-30.6831
-29.5989
-28.4089
-27.0119
-25.3345
-23.3914
-21.2791
-19.1378
-17.0639
-15.082
-13.1526
-11.2177
-9.23624
-7.20025
-5.12436
-3.04257
-0.997093
0.974229
2.84149
4.58681
6.19581
7.65594
8.96723
10.1429
11.1971
12.1346
12.9527
13.6491
14.2271
14.6958
15.0669
15.352
15.5617
15.7052
15.7914
15.8284
15.8238
15.7846
15.7172
15.6277
15.522
15.4056
15.2836
15.1611
15.0434
14.9346
14.8365
14.7503
14.6776
14.6203
14.5803
14.5587
14.5565
14.5743
14.6124
14.6701
14.7464
14.8398
14.948
15.0686
15.199
15.3359
15.4765
15.6174
15.756
15.8896
16.0163
16.1347
16.244
16.344
16.4349
16.517
16.591
16.6576
16.7173
16.7703
16.8172
16.8584
16.8945
16.9258
16.9527
16.975
16.9929
17.0061
17.0145
17.0176
17.0148
17.0045
16.9844
16.9512
16.901
16.8289
-15.6336
-16.1196
-17.1072
-18.5361
-20.319
-22.3267
-24.4378
-26.5535
-28.6164
-30.5999
-32.4991
-34.316
-36.0384
-37.6405
-39.1008
-40.4117
-41.5738
-42.5689
-43.3699
-43.9625
-44.3505
-44.5501
-44.576
-44.4331
-44.1197
-43.6335
-42.9797
-42.1744
-41.2475
-40.2419
-39.213
-38.2254
-37.344
-36.6275
-36.1292
-35.8913
-35.9349
-36.2633
-36.8549
-37.6655
-38.6365
-39.7029
-40.811
-41.9099
-42.9681
-43.9497
-44.7788
-45.4417
-46.034
-46.6545
-47.3723
-48.1748
-49.0238
-49.8995
-50.807
-51.7601
-52.7684
-53.8075
-54.8244
-55.7823
-56.6761
-57.4999
-58.2217
-58.7879
-59.1461
-59.2522
-59.0706
-58.5746
-57.7573
-56.6448
-55.3162
-53.8158
-52.1761
-50.4565
-48.7407
-47.094
-45.5414
-44.1209
-42.8498
-41.7112
-40.6479
-39.5975
-38.5216
-37.4261
-36.3542
-35.3097
-34.2609
-33.1849
-32.0827
-30.9234
-29.639
-28.1479
-26.4014
-24.4262
-22.3147
-20.1842
-18.1089
-16.0998
-14.117
-12.1161
-10.0713
-7.98381
-5.87276
-3.76991
-1.7109
0.26919
2.14255
3.89232
5.50487
6.96903
8.28603
9.46818
10.5266
11.4642
12.2795
12.9742
13.5549
14.0314
14.4143
14.7134
14.9378
15.0963
15.1976
15.2502
15.2618
15.2396
15.1899
15.1188
15.0323
14.9361
14.8354
14.7352
14.6412
14.5586
14.4879
14.4285
14.3805
14.3461
14.3275
14.3262
14.3434
14.3799
14.4359
14.5112
14.6048
14.7152
14.8401
14.9768
15.1224
15.2737
15.4274
15.5803
15.7293
15.872
16.0064
16.1312
16.2457
16.3498
16.4438
16.5282
16.6037
16.6712
16.7312
16.7842
16.8305
16.8706
16.9051
16.9347
16.9594
16.9792
16.9942
17.0043
17.009
17.0081
17.0008
16.9855
16.9601
16.9216
16.8663
16.7902
-15.2847
-15.8608
-16.9861
-18.5887
-20.5742
-22.7909
-25.1047
-27.4035
-29.6241
-31.7399
-33.7435
-35.6283
-37.3674
-38.9124
-40.229
-41.3191
-42.2181
-42.9465
-43.4954
-43.8522
-44.0178
-44.0078
-43.8389
-43.5174
-43.041
-42.4067
-41.6194
-40.6948
-39.665
-38.5786
-37.4892
-36.4535
-35.5285
-34.7708
-34.2351
-33.958
-33.9539
-34.2258
-34.7572
-35.5117
-36.4378
-37.4737
-38.5663
-39.6758
-40.7659
-41.812
-42.7488
-43.5532
-44.2719
-45.0206
-45.8722
-46.8517
-47.8988
-48.9751
-50.074
-51.2032
-52.359
-53.5149
-54.6281
-55.6544
-56.5714
-57.375
-58.0507
-58.5658
-58.8756
-58.9436
-58.7424
-58.2538
-57.4725
-56.4184
-55.1574
-53.7407
-52.1963
-50.5818
-48.9963
-47.4997
-46.103
-44.8382
-43.7062
-42.6854
-41.7199
-40.7439
-39.7179
-38.6419
-37.572
-36.529
-35.4665
-34.3471
-33.171
-31.9164
-30.5299
-28.9553
-27.168
-25.1936
-23.1087
-21.0015
-18.925
-16.8847
-14.8537
-12.8027
-10.7178
-8.60418
-6.48283
-4.38145
-2.33008
-0.360873
1.50024
3.23716
4.83721
6.29179
7.6035
8.78236
9.83582
10.7659
11.5743
12.2661
12.8494
13.3332
13.7263
14.037
14.2739
14.4457
14.5614
14.6296
14.6581
14.6537
14.6227
14.571
14.5044
14.4288
14.3492
14.2711
14.2016
14.1454
14.1037
14.0738
14.0539
14.0453
14.0504
14.0716
14.1103
14.1675
14.2433
14.3378
14.4502
14.5789
14.7218
14.876
15.0384
15.2055
15.3737
15.5398
15.7004
15.8531
15.996
16.1278
16.248
16.3566
16.454
16.5408
16.6178
16.6861
16.7463
16.7989
16.8445
16.8835
16.9165
16.9442
16.9668
16.9843
16.9965
17.0035
17.0048
17.0002
16.9886
16.9688
16.9386
16.8953
16.8356
16.7559
-13.7183
-14.4277
-15.7054
-17.4804
-19.6622
-22.0979
-24.6444
-27.1586
-29.5469
-31.7549
-33.7639
-35.5671
-37.1553
-38.4954
-39.5561
-40.3542
-40.9514