/*--------------------------------*- C++ -*----------------------------------*\
  =========                 |
  \\      /  F ield         | OpenFOAM: The Open Source CFD Toolbox
   \\    /   O peration     | Website:  https://openfoam.org
    \\  /    A nd           | Version:  9
     \\/     M anipulation  |
\*---------------------------------------------------------------------------*/
FoamFile
{
    format      ascii;
    class       volVectorField;
    location    "0.054";
    object      UMean;
}
// * * * * * * * * * * * * * * * * * * * * * * * * * * * * * * * * * * * * * //

dimensions      [0 1 -1 0 0 0 0];

internalField   nonuniform List<vector> 
12225
(
(9.84656 0.044371 0)
(9.55084 0.0602745 0)
(9.25133 0.0579587 0)
(8.94893 0.0564011 0)
(8.65227 0.0557439 0)
(8.36626 0.0550646 0)
(8.09091 0.0540483 0)
(7.82575 0.0533333 0)
(7.56778 0.0522693 0)
(7.31867 0.0521156 0)
(7.07218 0.0510108 0)
(6.83575 0.0524092 0)
(6.59103 0.0514802 0)
(6.36172 0.0571142 0)
(6.09555 0.0567759 0)
(5.8637 0.0719738 0)
(5.53342 0.0724486 0)
(5.27794 0.107166 0)
(10.0155 0.052349 0)
(10.0748 0.0754857 0)
(10.1126 0.074771 0)
(10.1252 0.0755141 0)
(10.1213 0.0783576 0)
(10.1076 0.0810594 0)
(10.0864 0.0833503 0)
(10.0584 0.0854818 0)
(10.0233 0.0879311 0)
(9.9822 0.0905156 0)
(9.9337 0.0939552 0)
(9.87953 0.0976518 0)
(9.81628 0.103838 0)
(9.74645 0.110473 0)
(9.66371 0.123639 0)
(9.57044 0.136421 0)
(9.4595 0.163244 0)
(9.32636 0.182563 0)
(10.0064 0.0314564 0)
(10.0381 0.0528394 0)
(10.066 0.0558731 0)
(10.0821 0.0578074 0)
(10.0914 0.0618807 0)
(10.099 0.0663537 0)
(10.1065 0.0701281 0)
(10.1128 0.07385 0)
(10.1179 0.0773879 0)
(10.1205 0.0818355 0)
(10.1217 0.0862884 0)
(10.1197 0.0928605 0)
(10.1172 0.100111 0)
(10.11 0.111802 0)
(10.1049 0.126105 0)
(10.0937 0.147439 0)
(10.0914 0.173879 0)
(10.0827 0.200607 0)
(10.0127 0.0298341 0)
(10.0361 0.0583666 0)
(10.0588 0.0646049 0)
(10.0726 0.0659783 0)
(10.0793 0.0691382 0)
(10.0834 0.0730988 0)
(10.0874 0.0767548 0)
(10.0914 0.0800713 0)
(10.0951 0.0836823 0)
(10.0977 0.0877463 0)
(10.0996 0.0928936 0)
(10.1003 0.0991019 0)
(10.1009 0.107546 0)
(10.1007 0.11844 0)
(10.1024 0.1335 0)
(10.1064 0.1525 0)
(10.1165 0.174842 0)
(10.1343 0.195275 0)
(10.0053 0.0212362 0)
(10.0235 0.0469419 0)
(10.0431 0.0545873 0)
(10.0574 0.0568716 0)
(10.0654 0.0605258 0)
(10.07 0.0653093 0)
(10.0735 0.0697568 0)
(10.0766 0.073765 0)
(10.0792 0.0777197 0)
(10.0812 0.0822108 0)
(10.0825 0.0875869 0)
(10.0833 0.0942975 0)
(10.0838 0.102926 0)
(10.0847 0.113963 0)
(10.0868 0.128133 0)
(10.0921 0.144947 0)
(10.1013 0.162972 0)
(10.1164 0.178149 0)
(10.0063 0.018434 0)
(10.0194 0.0459728 0)
(10.035 0.0556123 0)
(10.0472 0.0587791 0)
(10.0545 0.0623012 0)
(10.0589 0.067008 0)
(10.0625 0.0717466 0)
(10.066 0.0760511 0)
(10.0691 0.0803064 0)
(10.0716 0.0850003 0)
(10.0736 0.090565 0)
(10.0753 0.0973952 0)
(10.0768 0.105911 0)
(10.079 0.116478 0)
(10.0821 0.129214 0)
(10.088 0.143598 0)
(10.0965 0.158054 0)
(10.1091 0.170377 0)
(9.99069 0.0143666 0)
(10.0009 0.0390946 0)
(10.015 0.0501094 0)
(10.0275 0.054732 0)
(10.0358 0.0585784 0)
(10.041 0.0632443 0)
(10.0452 0.0681115 0)
(10.0494 0.072632 0)
(10.0531 0.0770075 0)
(10.0563 0.0817752 0)
(10.0585 0.0874015 0)
(10.0604 0.0942888 0)
(10.0622 0.102724 0)
(10.0649 0.112927 0)
(10.0687 0.124678 0)
(10.0748 0.137521 0)
(10.0828 0.150081 0)
(10.0939 0.161332 0)
(10.0082 0.0127746 0)
(10.0126 0.0341126 0)
(10.0229 0.046892 0)
(10.0343 0.0531109 0)
(10.043 0.0573024 0)
(10.0486 0.0618564 0)
(10.0526 0.0668407 0)
(10.0563 0.0718185 0)
(10.0599 0.0767771 0)
(10.0631 0.082085 0)
(10.0658 0.0880916 0)
(10.0681 0.0950952 0)
(10.0704 0.10324 0)
(10.0732 0.112665 0)
(10.0772 0.123117 0)
(10.0827 0.134282 0)
(10.09 0.145185 0)
(10.0989 0.155283 0)
(9.9938 0.0143862 0)
(9.99853 0.0312396 0)
(10.0081 0.0433393 0)
(10.0193 0.0502399 0)
(10.0289 0.0550079 0)
(10.0361 0.0597615 0)
(10.0418 0.0647346 0)
(10.047 0.0696306 0)
(10.0518 0.0745118 0)
(10.0562 0.0797447 0)
(10.0601 0.0856956 0)
(10.0636 0.0926277 0)
(10.0673 0.100574 0)
(10.0715 0.109532 0)
(10.0767 0.119206 0)
(10.0833 0.129368 0)
(10.091 0.139245 0)
(10.1004 0.148632 0)
(9.99026 0.0103139 0)
(9.99544 0.0258816 0)
(10.0033 0.0380854 0)
(10.0123 0.0459566 0)
(10.0205 0.051375 0)
(10.027 0.0562295 0)
(10.032 0.0612354 0)
(10.0364 0.0664917 0)
(10.0404 0.0719689 0)
(10.0443 0.0777853 0)
(10.0481 0.0840553 0)
(10.0521 0.090937 0)
(10.0563 0.0984452 0)
(10.0614 0.106638 0)
(10.0672 0.115255 0)
(10.0744 0.124223 0)
(10.0821 0.132899 0)
(10.0915 0.141352 0)
(9.97593 0.0116648 0)
(9.97841 0.0258473 0)
(9.98283 0.0360373 0)
(9.98943 0.0438135 0)
(9.99673 0.0499675 0)
(10.0033 0.0552291 0)
(10.0089 0.0602656 0)
(10.0139 0.0653539 0)
(10.0188 0.0705657 0)
(10.0236 0.0760279 0)
(10.0283 0.0818668 0)
(10.0331 0.0882714 0)
(10.038 0.0952295 0)
(10.0434 0.102845 0)
(10.0493 0.11081 0)
(10.0562 0.119133 0)
(10.0636 0.127149 0)
(10.0724 0.135069 0)
(9.98561 0.00906132 0)
(9.98535 0.0227599 0)
(9.98864 0.0325371 0)
(9.99467 0.0402114 0)
(10.0014 0.0461086 0)
(10.0078 0.0510568 0)
(10.0139 0.0559452 0)
(10.0198 0.061158 0)
(10.026 0.0666883 0)
(10.0322 0.0724974 0)
(10.0382 0.0785743 0)
(10.044 0.0850384 0)
(10.0498 0.0918251 0)
(10.0557 0.0990051 0)
(10.0621 0.106283 0)
(10.0691 0.11375 0)
(10.077 0.120817 0)
(10.0852 0.127851 0)
(10.0073 0.0120313 0)
(10.0056 0.0204286 0)
(10.0075 0.0304266 0)
(10.0123 0.0386665 0)
(10.0177 0.0447179 0)
(10.0227 0.0495268 0)
(10.0276 0.0539342 0)
(10.0328 0.0585077 0)
(10.0383 0.0634569 0)
(10.044 0.06888 0)
(10.0499 0.0747129 0)
(10.0558 0.0809469 0)
(10.0618 0.0874441 0)
(10.068 0.0942081 0)
(10.0747 0.100984 0)
(10.0817 0.107863 0)
(10.0895 0.114384 0)
(10.0973 0.120883 0)
(10.0264 0.0138468 0)
(10.0301 0.0190727 0)
(10.0344 0.0286831 0)
(10.0394 0.0367507 0)
(10.0451 0.042431 0)
(10.0511 0.0467838 0)
(10.0568 0.0509107 0)
(10.062 0.0553806 0)
(10.067 0.0603436 0)
(10.0717 0.0657751 0)
(10.0765 0.0715489 0)
(10.0813 0.0776019 0)
(10.0865 0.0837732 0)
(10.0921 0.0900727 0)
(10.0982 0.0962563 0)
(10.1047 0.10245 0)
(10.112 0.1082 0)
(10.1193 0.113943 0)
(10.0052 0.00561853 0)
(10.0104 0.0158622 0)
(10.0153 0.0241235 0)
(10.0204 0.0307762 0)
(10.0265 0.0362282 0)
(10.0331 0.0409732 0)
(10.0395 0.0454764 0)
(10.0454 0.0501112 0)
(10.0511 0.0550519 0)
(10.057 0.0603007 0)
(10.0632 0.0657137 0)
(10.07 0.0711912 0)
(10.0772 0.0765962 0)
(10.0849 0.0819798 0)
(10.093 0.087216 0)
(10.1015 0.0925013 0)
(10.1101 0.097481 0)
(10.1193 0.102584 0)
(10.0138 0.00653931 0)
(10.0143 0.016897 0)
(10.016 0.0231485 0)
(10.0197 0.0281483 0)
(10.0247 0.0329684 0)
(10.0302 0.0376264 0)
(10.0356 0.0420642 0)
(10.041 0.0464162 0)
(10.0463 0.0507835 0)
(10.0519 0.0552372 0)
(10.0579 0.0597419 0)
(10.0643 0.0643453 0)
(10.0711 0.068949 0)
(10.0782 0.0736595 0)
(10.0854 0.0782658 0)
(10.093 0.0829796 0)
(10.1004 0.0873468 0)
(10.1084 0.0918487 0)
(10.0001 0.00547223 0)
(9.99906 0.0100335 0)
(9.99993 0.015813 0)
(10.0035 0.0214563 0)
(10.0087 0.026169 0)
(10.0144 0.0301006 0)
(10.0202 0.0337762 0)
(10.0262 0.0375725 0)
(10.0322 0.0415216 0)
(10.0384 0.0455274 0)
(10.0448 0.0494512 0)
(10.0515 0.0533249 0)
(10.0584 0.0571204 0)
(10.0656 0.06099 0)
(10.073 0.0647992 0)
(10.0806 0.0687202 0)
(10.0883 0.0723635 0)
(10.0962 0.0760936 0)
(10.0111 0.0133647 0)
(10.0139 0.0136756 0)
(10.0178 0.0159301 0)
(10.0226 0.0189851 0)
(10.0282 0.0220576 0)
(10.0341 0.0251356 0)
(10.0402 0.028339 0)
(10.0466 0.0316558 0)
(10.0531 0.034978 0)
(10.0598 0.0382254 0)
(10.0668 0.0413181 0)
(10.0738 0.0443098 0)
(10.081 0.0472052 0)
(10.0883 0.0501564 0)
(10.0957 0.0530676 0)
(10.1031 0.0561296 0)
(10.1107 0.059012 0)
(10.1183 0.0620941 0)
(10.0017 -0.00456835 0)
(10.0067 0.000648675 0)
(10.0124 0.0037915 0)
(10.0184 0.00620371 0)
(10.0248 0.00862036 0)
(10.0316 0.0111744 0)
(10.0386 0.0136677 0)
(10.0456 0.0159983 0)
(10.0528 0.0182108 0)
(10.0602 0.020431 0)
(10.0677 0.0226955 0)
(10.0751 0.0250252 0)
(10.0826 0.0273272 0)
(10.09 0.0296306 0)
(10.0974 0.0318056 0)
(10.1048 0.0339937 0)
(10.1121 0.0359624 0)
(10.1194 0.0380359 0)
(9.99989 -0.000784797 0)
(9.99947 0.00108733 0)
(10.0013 0.00146929 0)
(10.0057 0.00142931 0)
(10.0121 0.00202972 0)
(10.0191 0.00340025 0)
(10.0262 0.00523688 0)
(10.0334 0.00720178 0)
(10.0407 0.00909348 0)
(10.0483 0.0109108 0)
(10.0559 0.0126961 0)
(10.0637 0.0145128 0)
(10.0713 0.0163126 0)
(10.0789 0.0181274 0)
(10.0863 0.0198477 0)
(10.0937 0.0215797 0)
(10.1007 0.0231332 0)
(10.108 0.0247583 0)
(9.97966 0.000295647 0)
(9.98061 -0.0035546 0)
(9.98395 -0.00596995 0)
(9.98961 -0.0069229 0)
(9.99623 -0.00700233 0)
(10.0029 -0.00655147 0)
(10.0096 -0.00581796 0)
(10.0163 -0.00506243 0)
(10.0233 -0.00437736 0)
(10.0306 -0.00363511 0)
(10.0381 -0.00269733 0)
(10.0457 -0.00147454 0)
(10.0534 -4.81096e-05 0)
(10.0611 0.00151415 0)
(10.0688 0.00302516 0)
(10.0764 0.0044964 0)
(10.084 0.00574442 0)
(10.0915 0.00696535 0)
(9.9911 -0.0013485 0)
(9.99355 -0.00761303 0)
(9.99832 -0.0102871 0)
(10.0049 -0.0111397 0)
(10.0123 -0.0112955 0)
(10.0199 -0.0110817 0)
(10.0274 -0.010657 0)
(10.0349 -0.0101155 0)
(10.0424 -0.00951302 0)
(10.0499 -0.00886363 0)
(10.0575 -0.00819693 0)
(10.0651 -0.00749644 0)
(10.0728 -0.0067761 0)
(10.0805 -0.00599411 0)
(10.0882 -0.00520331 0)
(10.0959 -0.00433784 0)
(10.1035 -0.00353204 0)
(10.1109 -0.00263377 0)
(9.98173 5.23511e-05 0)
(9.98932 -0.0104858 0)
(9.99716 -0.016588 0)
(10.0048 -0.0193747 0)
(10.0128 -0.0203841 0)
(10.0211 -0.0207825 0)
(10.0295 -0.0211015 0)
(10.0379 -0.0213993 0)
(10.0464 -0.0216007 0)
(10.0547 -0.0216442 0)
(10.063 -0.0215142 0)
(10.0709 -0.0211999 0)
(10.0785 -0.0207342 0)
(10.0859 -0.0201197 0)
(10.0931 -0.0194391 0)
(10.1001 -0.0186769 0)
(10.1072 -0.0179624 0)
(10.1143 -0.0172009 0)
(10.0178 -0.0129685 0)
(10.0242 -0.0159548 0)
(10.033 -0.0206423 0)
(10.0422 -0.0234927 0)
(10.0509 -0.0245287 0)
(10.0589 -0.0248891 0)
(10.0665 -0.0251575 0)
(10.0739 -0.0253586 0)
(10.0812 -0.025361 0)
(10.0883 -0.0250971 0)
(10.0952 -0.0246088 0)
(10.1018 -0.0239808 0)
(10.1084 -0.0233361 0)
(10.1149 -0.0227552 0)
(10.1214 -0.0223454 0)
(10.128 -0.0220804 0)
(10.1347 -0.022026 0)
(10.1414 -0.0220311 0)
(9.98405 -0.0111043 0)
(9.98817 -0.0220938 0)
(9.99695 -0.0281494 0)
(10.0072 -0.0312206 0)
(10.0162 -0.0327441 0)
(10.024 -0.0336637 0)
(10.0314 -0.034319 0)
(10.039 -0.0347604 0)
(10.0468 -0.0350003 0)
(10.0548 -0.0350821 0)
(10.0627 -0.0350525 0)
(10.0708 -0.0349427 0)
(10.0788 -0.0348001 0)
(10.087 -0.0346564 0)
(10.0953 -0.0345815 0)
(10.1036 -0.034564 0)
(10.1118 -0.0346518 0)
(10.1198 -0.034734 0)
(10.0169 -0.010224 0)
(10.0283 -0.0250194 0)
(10.0414 -0.0297842 0)
(10.0532 -0.030865 0)
(10.0628 -0.0317321 0)
(10.0706 -0.0329898 0)
(10.0777 -0.0341886 0)
(10.0846 -0.035011 0)
(10.0916 -0.0354773 0)
(10.0986 -0.0357342 0)
(10.1057 -0.0359131 0)
(10.1128 -0.0360789 0)
(10.1201 -0.036271 0)
(10.1274 -0.0364956 0)
(10.1347 -0.0367939 0)
(10.1418 -0.0371346 0)
(10.1488 -0.0375425 0)
(10.1556 -0.0379071 0)
(9.99451 -0.0257082 0)
(10.0077 -0.036989 0)
(10.0224 -0.0418003 0)
(10.0343 -0.0431263 0)
(10.0427 -0.0438995 0)
(10.0496 -0.0447331 0)
(10.0564 -0.0452787 0)
(10.0636 -0.0454963 0)
(10.0713 -0.0456528 0)
(10.0792 -0.0459259 0)
(10.0872 -0.0463032 0)
(10.0953 -0.0466816 0)
(10.1033 -0.046991 0)
(10.1112 -0.047229 0)
(10.119 -0.0474456 0)
(10.1264 -0.047661 0)
(10.1337 -0.0479118 0)
(10.1407 -0.0481451 0)
(9.98821 -0.0196934 0)
(10.0057 -0.0311537 0)
(10.0252 -0.0347028 0)
(10.0399 -0.0357398 0)
(10.0505 -0.037141 0)
(10.0597 -0.0388246 0)
(10.0691 -0.0402881 0)
(10.079 -0.0414742 0)
(10.089 -0.0425137 0)
(10.0989 -0.043501 0)
(10.1086 -0.044395 0)
(10.1178 -0.045161 0)
(10.1267 -0.0457699 0)
(10.135 -0.0463048 0)
(10.1429 -0.0467996 0)
(10.1503 -0.0473479 0)
(10.1575 -0.0479171 0)
(10.1642 -0.04854 0)
(9.99595 -0.0395196 0)
(10.0306 -0.0549058 0)
(10.0601 -0.0536344 0)
(10.0804 -0.0532384 0)
(10.0937 -0.0544009 0)
(10.1032 -0.0553186 0)
(10.1102 -0.0557547 0)
(10.1151 -0.0560828 0)
(10.1182 -0.056493 0)
(10.1195 -0.0569791 0)
(10.1192 -0.0574041 0)
(10.1173 -0.0576959 0)
(10.1138 -0.0577837 0)
(10.1092 -0.0577741 0)
(10.1034 -0.0576921 0)
(10.097 -0.0577117 0)
(10.0894 -0.0577914 0)
(10.0821 -0.0580999 0)
(9.90825 -0.0332386 0)
(9.743 -0.0465962 0)
(9.57639 -0.0454376 0)
(9.4075 -0.0447118 0)
(9.24141 -0.0448654 0)
(9.08183 -0.0447153 0)
(8.92973 -0.0442968 0)
(8.78456 -0.0439222 0)
(8.64531 -0.0436547 0)
(8.51146 -0.0433903 0)
(8.3827 -0.0429974 0)
(8.25947 -0.0424421 0)
(8.1416 -0.0417429 0)
(8.02974 -0.0410265 0)
(7.92269 -0.0403566 0)
(7.8215 -0.039837 0)
(7.72348 -0.039422 0)
(7.63159 -0.0391807 0)
(-0.235281 0.480255 -1.05124e-21)
(-0.55304 0.268484 1.07747e-21)
(-0.74503 0.0775806 0)
(-0.798426 -0.106139 0)
(-0.651535 -0.303085 0)
(-0.349994 -0.453983 -1.04228e-21)
(0.0701753 -0.54325 0)
(0.556367 -0.568452 0)
(1.05643 -0.546524 0)
(1.53346 -0.49302 0)
(1.96358 -0.419187 1.06338e-21)
(2.33746 -0.339719 0)
(2.64726 -0.261023 0)
(2.88944 -0.187324 0)
(3.06593 -0.122165 0)
(3.18206 -0.066729 1.48609e-21)
(3.24199 -0.0175401 0)
(3.24897 0.0294381 0)
(3.2035 0.0770671 0)
(3.10916 0.124723 0)
(2.96394 0.172066 0)
(2.77817 0.213083 0)
(2.54583 0.249469 0)
(2.29046 0.2626 1.33695e-21)
(1.99824 0.283258 -1.29175e-21)
(1.70317 0.249273 1.25752e-21)
(1.41283 0.172281 1.23657e-21)
(1.12254 0.0516601 0)
(0.892051 -0.0192974 0)
(0.642743 0.105425 -1.22978e-21)
(0.3465 0.193774 -1.2483e-21)
(0.00331776 0.226042 0)
(-0.359461 0.222444 0)
(-0.692443 0.181579 -1.36865e-21)
(-0.960204 0.122604 0)
(-1.15906 0.0594667 0)
(-1.27775 0.000926179 1.4248e-21)
(-1.33414 -0.0241391 0)
(-1.37325 -0.0101334 1.47823e-21)
(-1.44747 0.0525857 3.08439e-21)
(-1.60142 0.126768 0)
(-1.83463 0.154351 0)
(-2.11965 0.168116 0)
(-2.43311 0.0944999 0)
(-2.63769 0.0305674 0)
(-2.8165 0.0629215 3.55453e-21)
(-3.00076 -0.069312 3.66074e-21)
(-3.23645 -0.0940903 3.80079e-21)
(-3.49419 0.174706 0)
(-3.94244 0.300634 -3.93407e-21)
(-4.31731 0.250978 0)
(-4.65567 0.224507 4.1395e-21)
(-4.96476 0.203514 4.26793e-21)
(-5.23889 0.181597 0)
(-5.46102 0.146904 0)
(-5.65899 0.0484666 0)
(-5.82937 0.0849436 4.85831e-21)
(-6.08478 0.155205 0)
(-6.31681 0.131606 0)
(-6.51506 0.124526 0)
(-6.69734 0.107027 0)
(-6.84333 0.0909353 0)
(-6.96828 0.0732504 0)
(-7.0665 0.059849 0)
(-7.15086 0.0495889 0)
(-7.22248 0.0420196 -6.37983e-21)
(-7.28787 0.0356535 0)
(-7.34448 0.0321568 0)
(-7.39231 0.0292696 6.33121e-21)
(-7.42491 0.0201746 6.23775e-21)
(-7.43895 0.00580506 0)
(-7.43599 -0.00436003 -5.96696e-21)
(-7.41949 -0.00742915 5.79798e-21)
(-7.38998 -0.00862581 0)
(-7.34572 -0.0135908 -5.40803e-21)
(-7.28387 -0.0227901 0)
(-7.20415 -0.0330267 0)
(-7.10879 -0.0420226 4.74394e-21)
(-7.00058 -0.0492709 0)
(-6.88191 -0.0549414 -4.28147e-21)
(-6.75459 -0.0593977 0)
(-6.61967 -0.0630861 3.81979e-21)
(-6.47753 -0.0664528 3.59062e-21)
(-6.32795 -0.0698786 3.36211e-21)
(-6.17019 -0.0736554 6.26696e-21)
(-6.00322 -0.0780224 -5.80756e-21)
(-5.82577 -0.0830485 0)
(-5.63645 -0.0886963 0)
(-5.43406 -0.0948243 0)
(-5.21775 -0.101188 -3.92203e-21)
(-4.98736 -0.107547 -3.43853e-21)
(-4.74319 -0.113568 2.95411e-21)
(-4.48627 -0.118909 0)
(-4.21814 -0.123318 -1.99887e-21)
(-3.94077 -0.126614 -1.53682e-21)
(-3.65627 -0.128766 -1.08991e-21)
(-3.36656 -0.129866 0)
(-3.07329 -0.130101 0)
(-2.77783 -0.129666 0)
(-2.48113 -0.12874 5.32576e-22)
(-2.18408 -0.127736 0)
(-1.88733 -0.126229 0)
(-1.5912 -0.124488 -1.6162e-21)
(-1.2965 -0.122416 0)
(-1.00381 -0.120046 0)
(-0.713999 -0.117277 -2.61418e-21)
(-0.428012 -0.114129 0)
(-0.146917 -0.110616 0)
(0.128268 -0.106831 3.48396e-21)
(0.396739 -0.102782 3.73414e-21)
(0.657975 -0.0985508 0)
(0.911513 -0.0941804 -4.16499e-21)
(1.15699 -0.0897528 0)
(1.39416 -0.0853023 4.49791e-21)
(1.62292 -0.0808665 0)
(1.843 -0.0765738 4.73107e-21)
(2.0542 -0.0721735 4.81071e-21)
(2.25658 -0.0678194 0)
(2.44978 -0.0634616 0)
(2.63354 -0.0590613 0)
(2.80769 -0.054667 0)
(2.97195 -0.0502268 0)
(3.1261 -0.0457757 0)
(3.26993 -0.0413411 0)
(3.40325 -0.0368962 4.71711e-21)
(3.52596 -0.0324623 -4.64215e-21)
(3.63793 -0.0280638 0)
(3.73905 -0.0237163 0)
(3.82927 -0.0194392 0)
(3.90859 -0.0152513 0)
(3.97709 -0.0111766 -8.39888e-21)
(4.0349 -0.00723644 0)
(4.08223 -0.00345867 8.04073e-21)
(4.11937 0.000130946 -7.87071e-21)
(4.14668 0.00351312 0)
(4.16465 0.00665933 0)
(4.17372 0.00954821 0)
(4.17447 0.012208 7.2843e-21)
(4.16742 0.0146254 7.16465e-21)
(4.15333 0.0166985 0)
(4.13306 0.0183939 6.9585e-21)
(4.10745 0.0197491 6.87148e-21)
(4.07728 0.0208261 -6.79464e-21)
(4.04322 0.0216822 0)
(4.00581 0.0223633 0)
(3.96553 0.0229096 -6.61963e-21)
(3.92277 0.0233486 0)
(3.87786 0.0236928 0)
(3.83108 0.0239763 0)
(3.78261 0.0242289 0)
(3.7326 0.0244226 6.47556e-21)
(3.68119 0.0245217 6.46235e-21)
(3.62843 0.0245861 0)
(3.57423 0.0246968 6.44396e-21)
(3.51839 0.0247748 0)
(3.46091 0.0246392 0)
(3.402 0.0242972 6.41996e-21)
(3.3418 0.0239154 0)
(3.28033 0.0233086 6.39697e-21)
(3.21858 0.0217043 0)
(3.15921 0.0184874 0)
(3.10597 0.0142417 6.34765e-21)
(3.06094 0.0103346 0)
(3.02382 0.00767554 6.31558e-21)
(2.99209 0.00630517 0)
(2.96338 0.00584023 0)
(2.93476 0.00615053 0)
(2.90574 0.00687788 -6.25228e-21)
(2.87444 0.00773363 0)
(2.84268 0.00825346 6.21274e-21)
(2.80861 0.00851305 0)
(2.7756 0.00800569 0)
(2.74094 0.00835568 0)
(2.70554 0.00817858 0)
(2.66885 0.011668 0)
(2.61614 0.0122599 0)
(2.57424 0.0230501 0)
(2.4581 0.0212719 -1.22842e-20)
(2.42862 0.054108 0)
(2.09952 0.0415736 0)
(-0.00879122 1.02751 3.24863e-21)
(-0.00630867 0.718796 -3.3059e-21)
(-0.0133569 0.359582 0)
(0.13188 -0.0676626 2.30633e-21)
(0.417785 -0.623337 0)
(0.823911 -1.09975 1.03845e-21)
(1.27566 -1.3878 -2.26016e-21)
(1.71865 -1.50595 -2.28628e-21)
(2.12537 -1.48778 0)
(2.48306 -1.37291 -2.51178e-21)
(2.78308 -1.20713 -1.06117e-21)
(3.02686 -1.01683 0)
(3.22063 -0.818164 0)
(3.3671 -0.621996 0)
(3.46676 -0.435757 0)
(3.52175 -0.263083 -1.48289e-21)
(3.53478 -0.104617 0)
(3.50966 0.041481 3.4926e-21)
(3.44904 0.1761 0)
(3.35613 0.301237 0)
(3.23315 0.415609 -3.33293e-21)
(3.0817 0.520777 0)
(2.9092 0.606189 3.12521e-21)
(2.71268 0.681854 -1.33042e-21)
(2.50972 0.71877 1.28478e-21)
(2.27307 0.728632 -1.25023e-21)
(1.97938 0.787101 -1.22906e-21)
(1.61353 0.832432 0)
(1.18076 0.822264 0)
(0.700691 0.798756 1.2252e-21)
(0.27269 0.818475 -1.57355e-21)
(-0.0983154 0.851343 0)
(-0.450533 0.833647 0)
(-0.75277 0.73887 1.36762e-21)
(-1.02107 0.580283 0)
(-1.24503 0.387053 0)
(-1.40545 0.183572 -1.42109e-21)
(-1.52581 0.0533423 0)
(-1.64708 0.0743759 1.99183e-21)
(-1.79114 0.237046 -3.07545e-21)
(-1.97354 0.423087 0)
(-2.20049 0.588051 0)
(-2.45166 0.65919 -7.47392e-21)
(-2.78672 0.584073 -7.50121e-21)
(-3.19415 0.499418 -7.62857e-21)
(-3.56025 0.452225 4.25398e-21)
(-3.99881 0.618774 -3.65229e-21)
(-4.49655 0.757698 -1.21661e-20)
(-4.80969 0.779304 8.63332e-21)
(-5.1351 0.756437 3.92308e-21)
(-5.39521 0.677293 0)
(-5.65402 0.615876 -4.12895e-21)
(-5.86463 0.528061 5.19628e-21)
(-6.07105 0.435667 0)
(-6.25809 0.379677 0)
(-6.51304 0.415617 0)
(-6.72656 0.434844 -4.85123e-21)
(-6.90307 0.411417 0)
(-7.04212 0.363805 1.11034e-20)
(-7.16004 0.323233 0)
(-7.25919 0.272137 1.18324e-20)
(-7.34061 0.225629 0)
(-7.40992 0.183163 -1.25072e-20)
(-7.46734 0.153182 0)
(-7.51922 0.133282 1.29856e-20)
(-7.56749 0.120907 -6.73151e-21)
(-7.61534 0.10823 0)
(-7.66073 0.0897392 -1.309e-20)
(-7.69822 0.0631675 -6.33047e-21)
(-7.72377 0.0323261 -6.23707e-21)
(-7.73719 0.00403437 0)
(-7.7336 -0.0211876 -6.21824e-21)
(-7.70507 -0.0489949 -5.79738e-21)
(-7.64853 -0.0807833 0)
(-7.56699 -0.113722 5.40701e-21)
(-7.46494 -0.144601 -1.05672e-20)
(-7.34689 -0.171239 0)
(-7.21654 -0.192884 -4.74249e-21)
(-7.07676 -0.20986 0)
(-6.92955 -0.223092 1.29657e-20)
(-6.77624 -0.23373 0)
(-6.61736 -0.243006 -1.15736e-20)
(-6.45279 -0.252063 -3.58954e-21)
(-6.28188 -0.261859 3.48277e-21)
(-6.10351 -0.273067 6.51722e-21)
(-5.91623 -0.286098 -6.06773e-21)
(-5.71856 -0.301006 0)
(-5.50917 -0.317559 0)
(-5.28698 -0.335292 0)
(-5.05128 -0.353526 1.20462e-20)
(-4.80185 -0.371429 3.43809e-21)
(-4.53933 -0.388045 -2.95393e-21)
(-4.26501 -0.402457 0)
(-3.9808 -0.413968 -2.24274e-21)
(-3.68898 -0.422172 1.53761e-21)
(-3.39189 -0.427046 1.09102e-21)
(-3.09157 -0.428932 0)
(-2.78957 -0.428418 0)
(-2.48699 -0.426199 0)
(-2.18453 -0.423 -5.30254e-22)
(-1.88254 -0.419238 0)
(-1.58114 -0.414902 2.36893e-21)
(-1.28032 -0.410066 4.69616e-21)
(-0.980419 -0.404454 -3.77961e-21)
(-0.682062 -0.397905 0)
(-0.386077 -0.39017 -2.50022e-21)
(-0.0934311 -0.381228 0)
(0.194727 -0.371143 -6.32938e-21)
(0.477386 -0.360126 3.39965e-21)
(0.753807 -0.348254 3.65773e-21)
(1.02345 -0.335754 0)
(1.28591 -0.322879 1.24266e-20)
(1.54083 -0.309843 -8.62695e-21)
(1.78797 -0.296793 -4.4954e-21)
(2.02719 -0.28377 0)
(2.25838 -0.270904 -4.72825e-21)
(2.48138 -0.257968 -1.43835e-20)
(2.69609 -0.245 0)
(2.90229 -0.232011 -9.7588e-21)
(3.09968 -0.218953 -9.78442e-21)
(3.28807 -0.205834 -9.77055e-21)
(3.46731 -0.192672 0)
(3.6371 -0.179452 0)
(3.7973 -0.166328 0)
(3.94777 -0.153209 4.68804e-21)
(4.08842 -0.140162 4.63859e-21)
(4.2191 -0.127241 0)
(4.33976 -0.114488 8.91854e-21)
(4.45035 -0.10195 8.73967e-21)
(4.55089 -0.0896804 0)
(4.64145 -0.0777391 8.39212e-21)
(4.72214 -0.0661935 1.63894e-20)
(4.7932 -0.055119 -8.03407e-21)
(4.85491 -0.0445863 -7.83573e-21)
(4.90771 -0.0346556 0)
(4.95212 -0.0253747 0)
(4.98878 -0.0167797 0)
(5.01839 -0.00888113 -7.27744e-21)
(5.04169 -0.00172636 7.13547e-21)
(5.05927 0.0046082 1.40771e-20)
(5.07158 0.0100939 -6.9514e-21)
(5.07909 0.0147744 6.84567e-21)
(5.08234 0.018728 6.78734e-21)
(5.08191 0.0220371 0)
(5.07841 0.0247825 0)
(5.07247 0.0270354 -6.59862e-21)
(5.06471 0.0288673 0)
(5.05568 0.030352 0)
(5.04587 0.0315649 1.30046e-20)
(5.03565 0.0325772 0)
(5.02527 0.0334527 6.46032e-21)
(5.01476 0.034264 -6.45373e-21)
(5.00398 0.0351015 0)
(4.99273 0.0360496 6.43188e-21)
(4.98079 0.0371308 0)
(4.96787 0.0382843 0)
(4.95373 0.0394129 -6.41056e-21)
(4.93849 0.0404528 1.28002e-20)
(4.92253 0.0412265 -6.38729e-21)
(4.90586 0.0411466 0)
(4.88798 0.039368 0)
(4.86879 0.0355994 6.34217e-21)
(4.84885 0.0306218 0)
(4.82906 0.0258889 6.30994e-21)
(4.80978 0.0226902 0)
(4.79106 0.0212422 0)
(4.77235 0.0210622 0)
(4.75302 0.0212728 6.24259e-21)
(4.73233 0.0218331 0)
(4.71027 0.0219663 -6.20314e-21)
(4.68729 0.0226322 0)
(4.66271 0.0221404 0)
(4.63844 0.023721 1.22905e-20)
(4.60918 0.0228681 -1.22613e-20)
(4.58396 0.0289331 0)
(4.542 0.028666 0)
(4.51839 0.047421 0)
(4.43868 0.0470035 3.67345e-20)
(4.42775 0.0986405 0)
(4.24031 0.0988924 -2.45483e-20)
(0.0983049 0.673992 -7.31915e-23)
(0.233948 0.462962 4.34767e-21)
(0.483367 -0.0973667 0)
(0.899963 -0.851282 -4.53244e-21)
(1.37949 -1.57393 0)
(1.81654 -2.07703 0)
(2.15321 -2.29719 -3.47915e-22)
(2.39646 -2.29016 2.28091e-21)
(2.56479 -2.11571 2.95014e-21)
(2.68757 -1.83506 2.5084e-21)
(2.76546 -1.52669 0)
(2.81725 -1.23324 0)
(2.84417 -0.954138 -3.69304e-21)
(2.8521 -0.690041 -7.65328e-21)
(2.84009 -0.446427 7.85194e-21)
(2.80808 -0.222771 0)
(2.75601 -0.0166937 8.03071e-21)
(2.68406 0.174036 -3.49099e-21)
(2.59439 0.349913 0)
(2.49067 0.511068 7.79875e-21)
(2.3779 0.656874 3.32909e-21)
(2.25572 0.782822 -7.41896e-21)
(2.12852 0.892704 -3.11957e-21)
(1.99785 0.962466 0)
(1.85316 1.02648 6.76018e-21)
(1.64591 1.15991 6.57425e-21)
(1.4099 1.29414 0)
(1.13366 1.43362 6.3087e-21)
(0.821278 1.53793 0)
(0.482857 1.57594 6.25846e-21)
(0.128524 1.54033 2.80391e-21)
(-0.194009 1.45831 0)
(-0.485178 1.33827 0)
(-0.72645 1.16267 0)
(-0.954116 0.95624 0)
(-1.14124 0.71044 0)
(-1.32544 0.482524 0)
(-1.50271 0.349006 7.48656e-21)
(-1.71258 0.389444 -1.11848e-20)
(-1.96975 0.567785 0)
(-2.23123 0.770817 0)
(-2.53904 0.918149 0)
(-2.79787 1.09123 -7.10112e-22)
(-3.13934 1.17735 7.49285e-21)
(-3.48236 1.18218 1.59431e-20)
(-3.84504 1.20405 -1.63433e-20)
(-4.20516 1.22902 -8.83355e-21)
(-4.52535 1.21386 8.36584e-21)
(-4.75515 1.17412 8.52766e-22)
(-4.97743 1.10766 9.75583e-21)
(-5.16189 1.01687 0)
(-5.35486 0.912909 1.02069e-20)
(-5.53557 0.814311 9.32606e-22)
(-5.77166 0.768884 0)
(-6.01299 0.748151 0)
(-6.24362 0.719875 -1.10176e-20)
(-6.41413 0.651483 0)
(-6.55984 0.574004 0)
(-6.68597 0.501715 1.26518e-20)
(-6.80351 0.435764 2.43939e-20)
(-6.90964 0.368559 -1.18425e-20)
(-7.00942 0.307085 0)
(-7.0998 0.253217 1.25199e-20)
(-7.18135 0.214111 0)
(-7.25421 0.188012 1.39961e-20)
(-7.31818 0.17132 1.3125e-20)
(-7.37162 0.155083 -2.72352e-20)
(-7.41258 0.131444 -1.39939e-20)
(-7.43719 0.0966509 0)
(-7.44196 0.0521457 2.63751e-20)
(-7.42131 -0.000725717 0)
(-7.37099 -0.0603751 3.73491e-20)
(-7.29232 -0.122875 2.43852e-20)
(-7.19037 -0.183197 2.35386e-20)
(-7.07089 -0.237769 -2.26282e-20)
(-6.93898 -0.284512 3.22508e-20)
(-6.79884 -0.32259 0)
(-6.65361 -0.352291 0)
(-6.50551 -0.374859 -1.8717e-20)
(-6.3558 -0.392092 -2.64411e-20)
(-6.20494 -0.405991 0)
(-6.05268 -0.418552 7.76214e-21)
(-5.89811 -0.431547 0)
(-5.73982 -0.446393 -2.09191e-20)
(-5.57599 -0.464017 3.85899e-22)
(-5.40464 -0.484831 -4.0449e-22)
(-5.22371 -0.508794 1.13888e-20)
(-5.03129 -0.535441 0)
(-4.82569 -0.563973 -9.5374e-21)
(-4.6056 -0.593267 4.4789e-22)
(-4.37038 -0.621922 0)
(-4.12029 -0.648326 0)
(-3.85661 -0.670929 0)
(-3.5815 -0.688509 4.24775e-21)
(-3.29775 -0.700408 0)
(-3.0083 -0.706574 0)
(-2.71569 -0.70761 0)
(-2.42176 -0.704641 0)
(-2.12786 -0.699273 0)
(-1.83462 -0.692665 -6.02826e-22)
(-1.54209 -0.685616 0)
(-1.25021 -0.678265 -2.363e-21)
(-0.958819 -0.67044 -3.07739e-21)
(-0.668262 -0.661624 3.77486e-21)
(-0.37902 -0.651403 0)
(-0.0919834 -0.639259 5.10832e-21)
(0.191815 -0.625064 0)
(0.47123 -0.608916 6.32644e-21)
(0.745172 -0.590925 -6.87843e-21)
(1.01299 -0.571437 -2.19158e-20)
(1.27405 -0.55093 0)
(1.52802 -0.52988 -2.45798e-20)
(1.77469 -0.50867 -8.43756e-21)
(2.01386 -0.487496 0)
(2.2455 -0.466456 -1.82384e-20)
(2.46951 -0.445497 -1.86737e-20)
(2.68576 -0.424547 2.85811e-20)
(2.8941 -0.403535 0)
(3.0943 -0.382455 9.75527e-21)
(3.28612 -0.361274 9.78084e-21)
(3.46931 -0.339992 2.91925e-20)
(3.64369 -0.318603 0)
(3.80895 -0.297262 0)
(3.96493 -0.275949 0)
(4.11156 -0.254703 9.30852e-21)
(4.24867 -0.233599 0)
(4.37612 -0.212706 0)
(4.49382 -0.192087 -8.91574e-21)
(4.60171 -0.171813 -8.73709e-21)
(4.69977 -0.151968 0)
(4.788 -0.132651 0)
(4.86648 -0.113985 -1.63856e-20)
(4.93535 -0.096108 0)
(4.99482 -0.079174 1.56967e-20)
(5.04521 -0.0633389 1.53289e-20)
(5.087 -0.0487467 0)
(5.12084 -0.0354629 0)
(5.14756 -0.0235155 -1.44909e-20)
(5.16811 -0.0128426 -3.62159e-23)
(5.18347 -0.00336386 -3.40633e-23)
(5.19441 0.0049221 0)
(5.20156 0.0120545 -2.73864e-20)
(5.20542 0.0180861 0)
(5.20649 0.0230737 0)
(5.20524 0.0270788 0)
(5.20221 0.030181 1.32087e-20)
(5.19798 0.0324611 0)
(5.19311 0.034022 -2.60822e-20)
(5.18811 0.0350005 -1.30026e-20)
(5.18343 0.0355684 0)
(5.17935 0.0358994 -1.29253e-20)
(5.17598 0.0361802 0)
(5.17327 0.0366229 0)
(5.17108 0.0373715 -3.85858e-20)
(5.16919 0.0383849 2.56961e-20)
(5.16719 0.0394488 0)
(5.16457 0.0402904 2.56372e-20)
(5.16105 0.0407275 -1.27973e-20)
(5.1571 0.0407277 0)
(5.1536 0.0401363 0)
(5.15067 0.0384585 0)
(5.14712 0.0352663 -3.80411e-20)
(5.14178 0.0310412 0)
(5.13435 0.0269451 -1.2612e-20)
(5.12565 0.0241186 0)
(5.11662 0.0229126 0)
(5.1082 0.0232961 0)
(5.10028 0.0245678 0)
(5.09268 0.0266087 0)
(5.08345 0.0279303 0)
(5.07294 0.0294517 -2.47167e-20)
(5.05883 0.0293045 0)
(5.04454 0.0315548 -1.22861e-20)
(5.02487 0.0315339 3.67565e-20)
(5.00796 0.0390133 0)
(4.9799 0.0408462 0)
(4.96157 0.0612572 -2.43915e-20)
(4.91874 0.067279 -2.44593e-20)
(4.90445 0.118819 2.4387e-20)
(4.83903 0.139175 2.45359e-20)
(-0.00182308 0.230275 -6.29441e-21)
(0.315757 -0.160276 -6.30933e-21)
(0.858391 -1.12328 -4.3547e-21)
(1.38427 -1.96083 -2.44355e-21)
(1.8039 -2.55422 0)
(2.03837 -2.75956 5.54936e-21)
(2.11803 -2.64533 -3.43093e-21)
(2.11358 -2.39261 0)
(2.0616 -2.07974 -2.94984e-21)
(2.01165 -1.73947 0)
(1.96341 -1.41368 7.83558e-21)
(1.92064 -1.10483 0)
(1.87538 -0.81207 3.69575e-21)
(1.82648 -0.535522 7.65941e-21)
(1.7681 -0.276191 -7.85826e-21)
(1.69816 -0.0348213 0)
(1.61675 0.187373 -8.03652e-21)
(1.52517 0.389258 0)
(1.42614 0.571152 0)
(1.32268 0.733752 -7.80236e-21)
(1.22019 0.878703 0)
(1.11732 1.00511 -1.01051e-21)
(1.02366 1.0978 0)
(0.913936 1.201 0)
(0.768937 1.35506 1.05598e-21)
(0.608881 1.52095 -6.56703e-21)
(0.437681 1.6901 -7.46728e-21)
(0.263826 1.8402 -6.2962e-21)
(0.0880706 1.94868 0)
(-0.0912946 2.00315 -1.33805e-20)
(-0.291273 1.9873 0)
(-0.5006 1.90101 -7.09268e-21)
(-0.716041 1.7592 0)
(-0.918644 1.56561 0)
(-1.1251 1.33541 7.27413e-21)
(-1.31647 1.06353 0)
(-1.53138 0.851074 -7.53176e-21)
(-1.76902 0.777468 2.79612e-22)
(-2.06019 0.897863 1.57651e-20)
(-2.39168 1.13329 -1.66021e-20)
(-2.7282 1.3746 0)
(-3.03982 1.50728 0)
(-3.30272 1.59017 -9.12386e-21)
(-3.54262 1.59982 0)
(-3.75946 1.60392 -8.31611e-21)
(-3.97287 1.6295 8.54873e-21)
(-4.14678 1.61293 8.83079e-21)
(-4.28777 1.55331 0)
(-4.40174 1.47198 -9.48223e-21)
(-4.51828 1.37 -9.76051e-21)
(-4.63471 1.26699 2.16052e-20)
(-4.78618 1.18849 -1.02125e-20)
(-4.97315 1.14971 -1.03951e-20)
(-5.20327 1.12341 0)
(-5.41837 1.06551 0)
(-5.61153 0.979601 1.10274e-20)
(-5.77614 0.88197 0)
(-5.94352 0.7961 0)
(-6.10149 0.71457 -2.37865e-20)
(-6.25238 0.63435 -2.44192e-20)
(-6.39192 0.553095 0)
(-6.52359 0.475024 0)
(-6.64233 0.404885 0)
(-6.74766 0.349139 0)
(-6.83775 0.305552 -2.70313e-20)
(-6.91016 0.266846 2.83564e-20)
(-6.95886 0.222746 2.72734e-20)
(-6.98011 0.167112 5.53463e-20)
(-6.97155 0.0973275 0)
(-6.93228 0.0153139 1.002e-21)
(-6.86201 -0.0744772 0)
(-6.76375 -0.165943 -2.51843e-20)
(-6.64311 -0.253115 8.12583e-22)
(-6.50631 -0.331298 -2.35703e-20)
(-6.35902 -0.397682 2.2659e-20)
(-6.20611 -0.451087 5.89018e-22)
(-6.05157 -0.491819 0)
(-5.89848 -0.521313 2.02068e-20)
(-5.74905 -0.541851 1.87427e-20)
(-5.60452 -0.556211 3.59635e-20)
(-5.46525 -0.567325 0)
(-5.33076 -0.578004 -1.63107e-20)
(-5.19973 -0.590697 0)
(-5.07002 -0.607319 2.86307e-20)
(-4.93889 -0.629138 -1.31944e-20)
(-4.80317 -0.656744 1.23012e-20)
(-4.65939 -0.690096 -1.13988e-20)
(-4.50406 -0.728479 -2.21193e-20)
(-4.33377 -0.770607 9.54371e-21)