/*--------------------------------*- C++ -*----------------------------------*\
  =========                 |
  \\      /  F ield         | OpenFOAM: The Open Source CFD Toolbox
   \\    /   O peration     | Website:  https://openfoam.org
    \\  /    A nd           | Version:  9
     \\/     M anipulation  |
\*---------------------------------------------------------------------------*/
FoamFile
{
    format      ascii;
    class       volScalarField;
    location    "0.047";
    object      k_0;
}
// * * * * * * * * * * * * * * * * * * * * * * * * * * * * * * * * * * * * * //

dimensions      [0 2 -2 0 0 0 0];

internalField   nonuniform List<scalar> 
12225
(
3.23196e-05
3.64464e-05
9.82087e-05
0.000175575
0.00023516
0.000273531
0.000288385
0.000289133
0.000278669
0.000225736
0.000156555
0.00011589
9.35613e-05
7.87519e-05
6.62941e-05
5.75051e-05
4.31742e-05
0.000242291
2.0047e-05
2.15641e-05
2.92991e-05
4.09683e-05
5.25413e-05
6.83286e-05
8.50069e-05
9.56933e-05
9.80107e-05
9.68208e-05
9.07144e-05
7.62744e-05
6.27125e-05
5.45337e-05
4.78534e-05
4.5491e-05
4.10152e-05
4.30527e-05
2.0026e-05
1.68485e-05
1.71541e-05
1.74975e-05
1.78741e-05
1.83084e-05
1.90006e-05
2.05464e-05
2.18824e-05
2.23905e-05
2.23288e-05
2.18043e-05
2.01309e-05
1.85983e-05
1.74785e-05
1.69664e-05
1.68623e-05
1.68284e-05
2.06882e-05
2.05625e-05
2.02763e-05
1.98545e-05
1.93517e-05
1.90879e-05
1.91205e-05
1.92959e-05
1.9339e-05
1.92507e-05
1.89762e-05
1.87099e-05
1.83293e-05
1.7469e-05
1.62081e-05
1.48286e-05
1.41363e-05
1.37459e-05
2.76785e-05
2.76384e-05
2.22427e-05
2.08721e-05
2.09851e-05
2.25407e-05
2.43342e-05
2.47933e-05
2.4711e-05
2.38069e-05
2.23295e-05
2.15188e-05
2.11738e-05
2.10721e-05
2.10612e-05
2.10848e-05
2.12129e-05
2.15748e-05
2.30902e-05
2.30466e-05
2.30092e-05
2.23324e-05
2.12697e-05
2.09685e-05
2.09681e-05
2.1085e-05
2.11867e-05
2.12274e-05
2.12888e-05
2.14614e-05
2.20814e-05
2.28537e-05
2.33729e-05
2.36868e-05
2.3851e-05
2.39078e-05
2.20466e-05
2.14403e-05
2.159e-05
2.15781e-05
2.12313e-05
2.09735e-05
2.09825e-05
2.11847e-05
2.17202e-05
2.24921e-05
2.34138e-05
2.42445e-05
2.48014e-05
2.5079e-05
2.51659e-05
2.51651e-05
2.50631e-05
2.4573e-05
2.10457e-05
2.12894e-05
2.16807e-05
2.22757e-05
2.19646e-05
2.15378e-05
2.16921e-05
2.27063e-05
2.36935e-05
2.41252e-05
2.42867e-05
2.43631e-05
2.44595e-05
2.46774e-05
2.50236e-05
2.52964e-05
2.55148e-05
2.55224e-05
2.81627e-05
2.36219e-05
2.22988e-05
2.25445e-05
2.19561e-05
2.13551e-05
2.14407e-05
2.21452e-05
2.27933e-05
2.3127e-05
2.34235e-05
2.39658e-05
2.53891e-05
2.7146e-05
2.84058e-05
2.91216e-05
2.94194e-05
2.94729e-05
2.27882e-05
2.08528e-05
2.07538e-05
2.21705e-05
2.23896e-05
2.11083e-05
2.04913e-05
2.0389e-05
2.04028e-05
2.04823e-05
2.05834e-05
2.07502e-05
2.10899e-05
2.20356e-05
2.34544e-05
2.46572e-05
2.54816e-05
2.59263e-05
2.09905e-05
2.04054e-05
2.10385e-05
2.16012e-05
2.14948e-05
2.09053e-05
2.05645e-05
2.04679e-05
2.04605e-05
2.04832e-05
2.05749e-05
2.08142e-05
2.14113e-05
2.31684e-05
2.51118e-05
2.63407e-05
2.68646e-05
2.70065e-05
2.03816e-05
2.03059e-05
2.04673e-05
2.07697e-05
2.07915e-05
2.06487e-05
2.06442e-05
2.08034e-05
2.12349e-05
2.14629e-05
2.16026e-05
2.18153e-05
2.21065e-05
2.24232e-05
2.27104e-05
2.29373e-05
2.30782e-05
2.31385e-05
2.02523e-05
2.03164e-05
2.02767e-05
2.02641e-05
2.02805e-05
2.03663e-05
2.06923e-05
2.15629e-05
2.21979e-05
2.25143e-05
2.2652e-05
2.27355e-05
2.28665e-05
2.31582e-05
2.38931e-05
2.46789e-05
2.54389e-05
2.5662e-05
2.07959e-05
2.09794e-05
2.06409e-05
2.04622e-05
2.04945e-05
2.0778e-05
2.18294e-05
2.32841e-05
2.35369e-05
2.32853e-05
2.32251e-05
2.33895e-05
2.4346e-05
2.67683e-05
2.85656e-05
2.95693e-05
2.99806e-05
3.00286e-05
2.22686e-05
2.20515e-05
2.11726e-05
2.0922e-05
2.10396e-05
2.12118e-05
2.12448e-05
2.13342e-05
2.13928e-05
2.13897e-05
2.16076e-05
2.27885e-05
2.58885e-05
2.82334e-05
2.95428e-05
3.00624e-05
3.01426e-05
3.01108e-05
2.23522e-05
2.29068e-05
2.2237e-05
2.21902e-05
2.21062e-05
2.14401e-05
2.07947e-05
2.06195e-05
2.06152e-05
2.07202e-05
2.11741e-05
2.16409e-05
2.18633e-05
2.19182e-05
2.19107e-05
2.18525e-05
2.16152e-05
2.12198e-05
2.02239e-05
2.05354e-05
2.18756e-05
2.31316e-05
2.25432e-05
2.10878e-05
2.06891e-05
2.0687e-05
2.09678e-05
2.24102e-05
2.45487e-05
2.53126e-05
2.5314e-05
2.49016e-05
2.36694e-05
2.24311e-05
2.14486e-05
2.08633e-05
2.00935e-05
2.13403e-05
2.31107e-05
2.38134e-05
2.35196e-05
2.19882e-05
2.13106e-05
2.12712e-05
2.15417e-05
2.262e-05
2.38249e-05
2.43757e-05
2.44186e-05
2.41559e-05
2.31143e-05
2.20383e-05
2.12755e-05
2.0831e-05
2.0676e-05
2.0543e-05
2.04703e-05
2.07572e-05
2.17446e-05
2.23981e-05
2.30036e-05
2.32218e-05
2.29848e-05
2.21693e-05
2.1708e-05
2.1393e-05
2.10353e-05
2.07314e-05
2.05797e-05
2.05314e-05
2.05189e-05
2.05172e-05
2.02385e-05
2.08118e-05
2.1177e-05
2.10369e-05
2.10369e-05
2.10617e-05
2.12113e-05
2.15132e-05
2.16489e-05
2.20242e-05
2.31963e-05
2.37038e-05
2.36085e-05
2.2703e-05
2.16896e-05
2.12698e-05
2.11408e-05
2.11266e-05
2.02495e-05
2.02474e-05
2.02491e-05
2.03191e-05
2.03515e-05
2.03408e-05
2.03263e-05
2.03393e-05
2.04414e-05
2.08713e-05
2.2173e-05
2.34556e-05
2.39046e-05
2.39028e-05
2.37368e-05
2.31673e-05
2.27369e-05
2.25339e-05
2.12354e-05
2.12999e-05
2.08709e-05
2.07966e-05
2.08371e-05
2.0901e-05
2.10093e-05
2.13255e-05
2.26532e-05
2.82855e-05
3.28875e-05
3.3092e-05
3.16147e-05
2.9929e-05
2.81457e-05
2.58552e-05
2.4008e-05
2.30195e-05
2.0615e-05
2.06221e-05
2.03943e-05
2.04932e-05
2.07624e-05
2.09027e-05
2.12148e-05
2.21458e-05
2.6719e-05
3.35799e-05
3.51835e-05
3.46075e-05
3.21371e-05
3.00388e-05
2.82838e-05
2.63226e-05
2.45628e-05
2.37091e-05
2.02463e-05
2.07503e-05
2.08519e-05
2.10289e-05
2.14071e-05
2.4073e-05
3.08811e-05
3.2241e-05
3.00116e-05
2.75571e-05
2.75742e-05
2.91113e-05
3.04355e-05
3.06027e-05
2.98422e-05
2.65186e-05
2.39712e-05
2.30019e-05
2.00444e-05
2.10617e-05
2.31296e-05
2.46073e-05
2.35554e-05
2.28403e-05
2.44436e-05
2.90159e-05
3.02972e-05
3.03118e-05
3.09316e-05
3.57224e-05
4.09371e-05
4.16077e-05
3.97679e-05
3.33386e-05
2.82312e-05
2.53352e-05
2.01391e-05
2.25845e-05
2.43938e-05
2.46173e-05
2.37097e-05
2.17435e-05
2.1087e-05
2.10322e-05
2.11502e-05
2.16766e-05
2.32731e-05
2.75406e-05
3.2162e-05
3.57081e-05
3.76155e-05
3.79938e-05
3.75205e-05
3.47176e-05
2.0234e-05
2.0272e-05
2.02923e-05
2.00792e-05
1.96539e-05
1.94427e-05
1.92797e-05
1.91794e-05
1.91726e-05
1.91567e-05
1.9095e-05
1.91461e-05
1.97082e-05
2.13208e-05
2.24474e-05
2.29458e-05
2.30456e-05
2.30231e-05
2.00023e-05
1.83433e-05
1.5293e-05
1.36507e-05
1.29253e-05
1.28332e-05
1.2896e-05
1.31834e-05
1.40149e-05
1.4589e-05
1.4969e-05
1.55704e-05
1.69802e-05
1.92473e-05
2.14254e-05
2.30028e-05
2.38539e-05
2.40731e-05
2.01335e-05
2.0397e-05
2.06445e-05
2.1407e-05
2.32542e-05
2.44511e-05
2.48967e-05
2.49486e-05
2.49485e-05
2.51327e-05
2.62953e-05
3.02021e-05
4.21424e-05
5.9392e-05
7.24882e-05
8.05776e-05
8.48683e-05
8.65696e-05
2.2251e-05
3.13172e-05
3.44531e-05
3.78525e-05
4.52828e-05
4.81528e-05
4.77249e-05
4.55957e-05
4.56694e-05
4.98765e-05
7.29817e-05
0.000137761
0.000183245
0.000202537
0.000206784
0.000205824
0.000203906
0.000204592
0.143304
0.151854
0.128045
0.10566
0.0971203
0.0952419
0.0900324
0.0850675
0.0805042
0.0787799
0.0855171
0.0845433
0.0809408
0.0771212
0.0737721
0.0711934
0.0689359
0.0671272
0.065609
0.0642171
0.0631679
0.0620737
0.061307
0.0607104
0.060069
0.0599458
0.0600294
0.0602802
0.0607955
0.0619049
0.0626359
0.0637674
0.0649108
0.0671639
0.0709628
0.0739956
0.0978639
0.196043
0.257781
0.291686
0.312965
0.290771
0.253622
0.237108
0.233943
0.208044
0.164345
0.14462
0.135903
0.133617
0.144277
0.193501
0.411534
0.411938
0.297456
0.313556
0.237823
0.0538532
0.03028
0.0249302
0.0216049
0.0165542
0.0138228
0.0103235
0.00877571
0.00707764
0.00631097
0.00554177
0.00516741
0.004683
0.00431152
0.00412682
0.00384534
0.0037238
0.00357017
0.00349269
0.00332441
0.00316998
0.00308977
0.00300068
0.00291873
0.00288052
0.00284022
0.00283134
0.00282721
0.00281602
0.00278618
0.00275301
0.00273299
0.00272423
0.00271376
0.00270025
0.00269144
0.00268618
0.00267329
0.00266194
0.00265943
0.00265963
0.00265971
0.00265531
0.00265311
0.00264517
0.00262366
0.00260442
0.002577
0.00255262
0.00251124
0.00246188
0.00243345
0.00238308
0.00234528
0.00230885
0.002273
0.00223923
0.0022079
0.00217752
0.0021688
0.00219132
0.00217353
0.00211589
0.00207937
0.00206162
0.0020473
0.00203386
0.0020205
0.00200678
0.00199254
0.00197763
0.00196203
0.00194565
0.00192811
0.0019061
0.0018791
0.0018491
0.00181649
0.00178371
0.00175591
0.00173953
0.00173485
0.00173652
0.00174769
0.00177897
0.00180614
0.0018242
0.00183401
0.00183636
0.00182673
0.00177915
0.0017332
0.00166575
0.0014988
0.00105633
0.000658728
0.000470658
0.000431758
0.000446845
0.0005283
0.000576079
0.000574438
0.000521806
0.000338468
0.00017444
8.60194e-05
4.76813e-05
3.04651e-05
2.19865e-05
1.71941e-05
1.40645e-05
1.16981e-05
9.87793e-06
8.35336e-06
7.11995e-06
5.98257e-06
4.97667e-06
4.04647e-06
3.15089e-06
2.52013e-06
1.62094e-06
2.92385e-06
4.29143e-06
0.133704
0.13875
0.120983
0.109212
0.114473
0.109632
0.0999054
0.0892536
0.0734359
0.0610929
0.0510342
0.0455764
0.0426005
0.0408789
0.0398754
0.0393162
0.0389751
0.0386631
0.0384342
0.0383194
0.0381874
0.0380455
0.0378771
0.0377125
0.0373968
0.037004
0.0367214
0.0361244
0.0355391
0.0356053
0.0361167
0.0372534
0.0403769
0.0434228
0.0501867
0.057057
0.0683207
0.0971251
0.180597
0.256113
0.296046
0.294633
0.280661
0.273827
0.266963
0.236381
0.171087
0.138508
0.132388
0.127928
0.129293
0.160149
0.293519
0.309809
0.278064
0.188138
0.0748818
0.0303872
0.021093
0.018028
0.0160022
0.0147968
0.0142313
0.0138402
0.0136438
0.0133197
0.0131056
0.0126478
0.0123463
0.0118401
0.0112419
0.0105844
0.00980662
0.00908179
0.00835145
0.0077201
0.00716621
0.00671922
0.00634325
0.00611407
0.00597538
0.00578252
0.00558635
0.00550949
0.00546831
0.00540752
0.00531485
0.005219
0.00516502
0.00512861
0.00506105
0.00502646
0.00498904
0.00495241
0.00492938
0.00489102
0.00485748
0.00482736
0.00478832
0.0047526
0.00472801
0.00469445
0.00464334
0.0045959
0.00452943
0.00447395
0.00440113
0.00429854
0.00421684
0.00410464
0.0039886
0.00386047
0.00373115
0.00360115
0.00347022
0.00333933
0.00320062
0.00310883
0.00301221
0.00291587
0.00282518
0.00274289
0.00266995
0.00260445
0.00254384
0.00248516
0.00242742
0.0023707
0.00231553
0.00226285
0.00221477
0.00217658
0.00215144
0.00213767
0.00212691
0.00210434
0.00204239
0.00192954
0.00177867
0.00161637
0.00147871
0.00138709
0.00134976
0.00134819
0.00137576
0.0014992
0.00161469
0.0016645
0.00171652
0.00179584
0.00185899
0.00188058
0.00188301
0.00188128
0.00186275
0.00182674
0.00181043
0.00180038
0.00177981
0.00172811
0.00157667
0.0012889
0.00100245
0.000761659
0.000580302
0.000449219
0.000353097
0.000282159
0.000228287
0.000188528
0.000159294
0.000137576
0.00012164
0.000105748
9.27861e-05
7.66467e-05
6.42481e-05
4.59673e-05
4.06192e-05
2.88891e-05
0.137597
0.121426
0.113084
0.108086
0.102792
0.0931639
0.074259
0.053367
0.0429064
0.0385465
0.037089
0.0369541
0.0370793
0.0374174
0.038129
0.0394177
0.0409694
0.0425339
0.0444344
0.0464414
0.0480189
0.0494017
0.0505712
0.0509768
0.0508115
0.0498156
0.0482492
0.0465894
0.044449
0.0410572
0.0375628
0.0351919
0.0345925
0.0347216
0.0355843
0.0380635
0.0429603
0.0530642
0.0760566
0.139387
0.237132
0.271112
0.284745
0.284895
0.276964
0.247562
0.163499
0.133864
0.135998
0.138663
0.13785
0.153613
0.233695
0.271396
0.185016
0.0662064
0.0294284
0.0196365
0.0172941
0.0163758
0.0152821
0.0144733
0.0137431
0.0129143
0.012379
0.0121332
0.0120576
0.0120752
0.012344
0.0126304
0.0127019
0.0127121
0.0126541
0.0124163
0.0119698
0.0114437
0.0109579
0.0104708
0.00992036
0.0093636
0.0088579
0.00845249
0.00818123
0.00794542
0.00770427
0.00749314
0.00733362
0.00717566
0.00699446
0.00686557
0.00668175
0.00652034
0.00643535
0.00624552
0.00612141
0.00602035
0.00590218
0.00578719
0.00567137
0.00558057
0.00549
0.00539403
0.00531097
0.00522796
0.00515488
0.00507769
0.00501702
0.00495192
0.00489631
0.0048455
0.0047936
0.0047379
0.00467593
0.00460388
0.00452092
0.00442757
0.00432479
0.004206
0.0040778
0.0039392
0.003805
0.00367394
0.00354316
0.00341089
0.00327521
0.00313546
0.00298988
0.00283829
0.00268075
0.00251672
0.00234847
0.00219137
0.00205623
0.00195485
0.00190499
0.0019041
0.00197032
0.0020487
0.00206036
0.00202206
0.00178096
0.00134927
0.00100672
0.000744702
0.000590397
0.000548014
0.000551907
0.000575522
0.000630348
0.000760921
0.00101587
0.00127157
0.00145961
0.00155561
0.00157932
0.00157544
0.00153844
0.00148801
0.00147067
0.00145982
0.00143444
0.00137247
0.00121152
0.000985956
0.000792451
0.000643411
0.000529217
0.000435286
0.00035784
0.000292398
0.000242886
0.000202352
0.000174908
0.000149756
0.000135286
0.000117684
0.000109169
9.33148e-05
8.58743e-05
6.86857e-05
0.124299
0.11284
0.113168
0.101969
0.0787454
0.052432
0.0404985
0.0358408
0.0348732
0.0351687
0.0364856
0.0387406
0.041923
0.0454668
0.0487414
0.052446
0.0559247
0.0594508
0.0628072
0.0663831
0.0695549
0.0730739
0.0764884
0.0800958
0.0834527
0.0856898
0.0864108
0.0859059
0.0829856
0.0752957
0.0639328
0.0520274
0.0429122
0.0376346
0.0357112
0.0356088
0.0362305
0.038694
0.0454014
0.0629664
0.103875
0.18428
0.244511
0.264039
0.259491
0.236235
0.156596
0.123585
0.13575
0.159011
0.163457
0.180962
0.225986
0.185196
0.071834
0.0307888
0.0201705
0.0175889
0.0167141
0.0154369
0.0139088
0.0123176
0.00990765
0.00812245
0.00721145
0.0062367
0.00582202
0.00567491
0.00565863
0.00591371
0.00676962
0.00808808
0.00950711
0.0107515
0.0116594
0.0119561
0.0120177
0.0120104
0.0118917
0.0115681
0.0110534
0.0104997
0.0100684
0.00971877
0.00929817
0.00884316
0.00853619
0.00826447
0.00795256
0.00776061
0.00751127
0.00729212
0.00718102
0.00695096
0.00679526
0.00661227
0.00650283
0.00636154
0.00617911
0.00604497
0.0058776
0.00570848
0.00557084
0.00541958
0.00530415
0.00518433
0.00508743
0.00500202
0.00493091
0.00487739
0.0048337
0.00479554
0.00476153
0.00472764
0.00469146
0.00465179
0.00461078
0.00457266
0.00453125
0.00448238
0.0044301
0.00437652
0.00432229
0.0042665
0.00420686
0.00413943
0.00405917
0.00396052
0.00383986
0.00369679
0.00352247
0.0032785
0.00293596
0.00250528
0.00206605
0.00175399
0.00160694
0.00158931
0.00171808
0.00219994
0.00253813
0.00263433
0.00262395
0.00247419
0.00208166
0.00172863
0.00134292
0.000945265
0.000796009
0.000878234
0.00118345
0.00139827
0.00148402
0.00151654
0.00151965
0.00148414
0.00130376
0.00113773
0.00109425
0.00109924
0.00115638
0.00120213
0.00119648
0.00114619
0.00108332
0.00102282
0.000933408
0.000811502
0.000670717
0.000529286
0.000404901
0.000302596
0.000224582
0.000165849
0.00012747
0.000101134
8.95648e-05
7.98846e-05
7.56384e-05
6.77433e-05
0.07533
0.0762455
0.0595656
0.0436488
0.0367697
0.0337636
0.0331622
0.0336071
0.0349763
0.0373542
0.0401168
0.043065
0.04616
0.0492721
0.0524598
0.0556914
0.0591987
0.0626756
0.0660135
0.069744
0.0733116
0.077631
0.0819539
0.0868797
0.0926315
0.0990965
0.106022
0.113172
0.118081
0.11821
0.115104
0.105023
0.0794167
0.0569884
0.0439263
0.038033
0.0364839
0.0365595
0.0377391
0.0420896
0.0540041
0.0783535
0.131848
0.187981
0.193418
0.180401
0.127634
0.105403
0.140884
0.180238
0.183838
0.181979
0.175285
0.0743799
0.0336765
0.0211783
0.01806
0.0170334
0.0156095
0.0131994
0.00969157
0.0074106
0.0062484
0.00553382
0.0049807
0.00417423
0.00348719
0.0028723
0.00257715
0.00250297
0.00249747
0.00253627
0.00264551
0.00286235
0.00321998
0.00375684
0.00450697
0.00534079
0.00604641
0.00659896
0.00680139
0.00681531
0.00676866
0.00669709
0.00658343
0.00643651
0.00632224
0.00625536
0.00623165
0.0062432
0.00628987
0.0063703
0.00643737
0.00646461
0.00647084
0.00644831
0.00643032
0.00640171
0.00631999
0.006231
0.00610234
0.00593625
0.00577583
0.0056015
0.00543876
0.00528428
0.00514758
0.00502901
0.00493265
0.00485743
0.00479983
0.00475265
0.00471486
0.00468378
0.00465647
0.00463309
0.00461142
0.00458979
0.00456615
0.00454102
0.00451836
0.00449911
0.00448079
0.0044625
0.00444347
0.00441767
0.00438131
0.00432376
0.00423439
0.00411235
0.00397529
0.00385604
0.00375757
0.00362889
0.00336521
0.00282882
0.00212809
0.00153421
0.00124197
0.00118732
0.00127881
0.00182793
0.00241797
0.00262763
0.00263462
0.00248404
0.00194664
0.00148161
0.00126046
0.00122238
0.00126779
0.00151084
0.00173295
0.0017831
0.00177628
0.00174771
0.00166935
0.00146573
0.00129957
0.00125644
0.00125891
0.00127466
0.00131847
0.00144132
0.00155089
0.00160916
0.00162328
0.00161143
0.00152181
0.00124317
0.000964563
0.000729973
0.000517127
0.000336095
0.000203488
0.000123139
8.05227e-05
6.04544e-05
5.35025e-05
5.06863e-05
0.03574
0.0337992
0.0332574
0.0327893
0.0320689
0.0323472
0.0330368
0.0339676
0.0359124
0.0382589
0.0407046
0.042684
0.0439695
0.0451605
0.0465811
0.048563
0.0515013
0.0541599
0.0575162
0.061275
0.0659499
0.0718469
0.0778591
0.085017
0.0927013
0.10093
0.110075
0.119719
0.129711
0.137934
0.140326
0.138827
0.13149
0.107513
0.0718071
0.0505889
0.040824
0.0375178
0.0372422
0.0379072
0.0413074
0.0498078
0.0670748
0.107647
0.138495
0.138965
0.112999
0.0970435
0.15586
0.178484
0.175297
0.14689
0.0722636
0.0356912
0.022532
0.0186308
0.017346
0.0158614
0.0128573
0.00890544
0.00725498
0.00644853
0.00603534
0.00559388
0.00516843
0.00447248
0.0034772
0.00236501
0.00187335
0.00167609
0.00159312
0.00155107
0.00146796
0.00126507
0.00114098
0.00112797
0.00113951
0.00115613
0.00116034
0.00115856
0.00115848
0.00114687
0.00113617
0.00113512
0.00114123
0.00114316
0.00116027
0.00120176
0.00126442
0.00136753
0.00150694
0.00171744
0.00198151
0.00236043
0.00279203
0.00325682
0.00373865
0.00421095
0.00466354
0.0050412
0.0052907
0.00539991
0.00543474
0.00540873
0.00533525
0.00523371
0.00512605
0.00502068
0.004929
0.00485607
0.00480206
0.00475938
0.00472524
0.00469842
0.00467579
0.0046536
0.00463271
0.00461223
0.00459526
0.0045814
0.00457303
0.00457436
0.00458114
0.00459281
0.00460139
0.0046032
0.00459661
0.00456756
0.00449371
0.00434854
0.0041398
0.00393437
0.00378128
0.00370267
0.00364459
0.00354478
0.00334004
0.00280247
0.00190869
0.00123396
0.000964271
0.000950537
0.00110861
0.00177469
0.00230576
0.00245807
0.0024403
0.00218059
0.0015979
0.00128696
0.00121197
0.00125466
0.00151567
0.00183006
0.00199361
0.0021023
0.00217011
0.00218244
0.00217379
0.00212626
0.00191739
0.00169169
0.001652
0.00166616
0.00172277
0.00176461
0.00177164
0.0017575
0.00166737
0.00139444
0.00111822
0.00089887
0.000720238
0.000563035
0.000417472
0.000290329
0.000195051
0.000128324
9.51303e-05
7.23691e-05
0.027825
0.031844
0.0327307
0.0317525
0.0300959
0.0289349
0.0273682
0.0266876
0.0261293
0.0250603
0.0231979
0.0214762
0.0206996
0.0204035
0.0205013
0.0215157
0.0230195
0.0249637
0.0280605
0.0320995
0.0373813
0.0438241
0.0514517
0.0612204
0.0725747
0.0856008
0.100288
0.115266
0.128999
0.140533
0.148201
0.151319
0.150816
0.14449
0.121211
0.0797824
0.0539524
0.0423133
0.0383383
0.0379278
0.0385508
0.0415314
0.0489863
0.0672149
0.109703
0.122859
0.0968319
0.0968427
0.146231
0.159581
0.13263
0.0674437
0.0364053
0.0235479
0.0191109
0.0175116
0.0160696
0.0129943
0.00920808
0.00765897
0.0070634
0.00679421
0.00675079
0.00698122
0.00704363
0.00675538
0.00543118
0.00349603
0.00196282
0.00131101
0.00106706
0.000973223
0.000932244
0.000893095
0.000796133
0.000636977
0.000540242
0.000502342
0.000466603
0.000403534
0.000338411
0.0003026
0.000281226
0.000270869
0.000268463
0.000269972
0.000274434
0.000280102
0.000284031
0.000287384
0.000285296
0.000287266
0.000298453
0.000323941
0.000372293
0.000451157
0.000573328
0.000751406
0.00100358
0.00135523
0.00183851
0.0024313
0.00302392
0.00357609
0.0040268
0.00430569
0.0044627
0.00454827
0.00458683
0.00461019
0.00463133
0.00465046
0.00466355
0.00467047
0.00467245
0.00467156
0.00467382
0.00468013
0.00469486
0.00471822
0.00474294
0.00477425
0.0048084
0.00483665
0.0048534
0.00485816
0.00485468
0.00482853
0.00474723
0.0046575
0.00450429
0.00419234
0.00380295
0.00352333
0.0034192
0.0034002
0.00338087
0.00331209
0.00306516
0.00228203
0.00137711
0.00090601
0.000802468
0.000851536
0.00123626
0.00192148
0.00218153
0.00219632
0.00206345
0.00163638
0.00139518
0.00134984
0.00140163
0.00167703
0.0020562
0.00234183
0.00254419
0.00264797
0.0026728
0.00266421
0.00259291
0.00231281
0.00198086
0.00182712
0.00180225
0.00179835
0.00178187
0.00171306
0.00150704
0.001259
0.00103402
0.00083635
0.000667289
0.000526495
0.000415598
0.000325867
0.000255422
0.000193553
0.000151964
0.000119859
0.0306398
0.0317487
0.0296453
0.0237233
0.0184286
0.0166013
0.0149459
0.0139999
0.0132143
0.0122185
0.0115328
0.0111004
0.0108239
0.0106486
0.010566
0.010582
0.0108159
0.0114243
0.0124271
0.0140408
0.016317
0.0198314
0.0243226
0.0306479
0.0393048
0.0504715
0.0653212
0.0837805
0.103751
0.123923
0.140604
0.150432
0.154653
0.154167
0.146574
0.117101
0.0768817
0.0528305
0.0420389
0.0387251
0.0386064
0.0394612
0.0431086
0.0545944
0.0953241
0.11437
0.0833191
0.0876376
0.112755
0.114773
0.0738847
0.0371759
0.024201
0.0189333
0.0169069
0.0155924
0.0132703
0.00982731
0.00821357
0.00768886
0.00750578
0.00791076
0.00877486
0.00908011
0.00912357
0.00866853
0.00726512
0.00555242
0.00359062
0.00157682
0.000932569
0.000700701
0.000592965
0.00053101
0.00046315
0.000403678
0.000373564
0.000345151
0.000296087
0.000260068
0.000244076
0.000229319
0.000226083
0.000233126
0.00025385
0.000285337
0.00032192
0.000346111
0.000355655
0.000346502
0.000308403
0.000265738
0.00022591
0.000189243
0.000164238
0.00014958
0.000142049
0.000143787
0.000161565
0.00019836
0.000262113
0.000363973
0.000522578
0.000767763
0.00114484
0.00170135
0.00233827
0.00293862
0.00341041
0.00373702
0.00398583
0.00417789
0.00432539
0.00443281
0.004508
0.00455675
0.00459582
0.00463627
0.00467994
0.00472784
0.00477933
0.00482849
0.00486669
0.00488881
0.00489631
0.00489639
0.00489113
0.00486606
0.0047797
0.00468044
0.00459366
0.00444187
0.00408632
0.00354365
0.00312158
0.00294588
0.00292721
0.00296529
0.00298875
0.0029219
0.00247482
0.00147682
0.000894889
0.000718464
0.000732222
0.000946862
0.00160061
0.00193498
0.00197376
0.00189919
0.00164219
0.0015144
0.00151047
0.00161266
0.00200605
0.00241547
0.00267109
0.00278207
0.00280369
0.0027969
0.00274704
0.0025526
0.00228667
0.00211444
0.00203694
0.00200636
0.00196083
0.00183844
0.00156531
0.00129697
0.00104555
0.000798739
0.000579006
0.000418659
0.000323422
0.000268384
0.000229262
0.000192529
0.00015998
0.00013368
0.0302605
0.0298828
0.0212738
0.0145397
0.0124351
0.0116022
0.0110016
0.010406
0.00985313
0.00938129
0.00909455
0.00888401
0.00872564
0.00854881
0.00825246
0.00782929
0.00749188
0.0072995
0.00718922
0.00723228
0.00765084
0.00897396
0.0111347
0.0144924
0.0193168
0.0252252
0.033184
0.0446663
0.0617488
0.0821459
0.106177
0.126938
0.142145
0.149542
0.149374
0.136913
0.0989634
0.0656227
0.0477766
0.0407372
0.039079
0.0393668
0.041369
0.0502285
0.0912106
0.109754
0.0696071
0.0737986
0.0871362
0.0814463
0.0430455
0.0256407
0.0196073
0.0172131
0.0160895
0.0142116
0.0111529
0.00887688
0.00820388
0.00803091
0.00854756
0.00974619
0.010258
0.0103712
0.0103103
0.00962863
0.00826313
0.00672593
0.00477103
0.00212759
0.00104348
0.000682454
0.000522991
0.00044211
0.000377981
0.000318867
0.000295259
0.000281645
0.000269043
0.000266243
0.000270045
0.000294526
0.000357158
0.000474998
0.000649688
0.000864927
0.0010837
0.00121698
0.00126858
0.00124903
0.00108054
0.000876735
0.000669315
0.000466476
0.000311672
0.000207235
0.000146941
0.000115737
9.9912e-05
9.23519e-05
8.96711e-05
9.49807e-05
0.000111182
0.000142847
0.000198842
0.000294772
0.000460905
0.000742806
0.00119456
0.00178161
0.00238287
0.00293381
0.00337396
0.00370246
0.00394836
0.00412248
0.00424725
0.00434903
0.00444542
0.00454239
0.00463744
0.00472172
0.00478178
0.00481162
0.00481946
0.00481849
0.00480972
0.00478453
0.00471445
0.00453783
0.00440639
0.00431012
0.00412297
0.0036409
0.00303544
0.00261652
0.0024608
0.00245625
0.00255106
0.00264748
0.00262521
0.00233494
0.00143014
0.000841699
0.000653284
0.000659164
0.000850895
0.00144806
0.00176267
0.00180811
0.00176275
0.00164232
0.00161602
0.00166281
0.00195351
0.00239853
0.00265299
0.00273797
0.00274115
0.00271557
0.00263664
0.00252398
0.00242494
0.00235889
0.00232478
0.00228737
0.00220219
0.00197628
0.00167398
0.00137467
0.00109143
0.000830912
0.000594518
0.000396287
0.000265629
0.000210999
0.000193205
0.000181702
0.000158093
0.000134962
0.0294755
0.025064
0.0142468
0.0110752
0.0101829
0.00981549
0.00959636
0.00938975
0.00918619
0.00905674
0.00901
0.00899815
0.0089948
0.00896246
0.00872401
0.00819362
0.00760173
0.00706541
0.00637466
0.00567123
0.00506399
0.00484183
0.0047959
0.00539691
0.00721531
0.0111666
0.0170262
0.0246101
0.032869
0.0447364
0.0594006
0.080631
0.102718
0.122127
0.13105
0.130612
0.110381
0.0794471
0.0559838
0.0439356
0.0401505
0.0397865
0.0409772
0.0483756
0.0890066
0.10663
0.0652907
0.0644577
0.0674608
0.0575356
0.0305893
0.0213257
0.0182639
0.0171048
0.0160615
0.0140639
0.0108631
0.00881274
0.00838574
0.00873679
0.00996881
0.0109828
0.0113688
0.0114785
0.0112938
0.0103846
0.009043
0.00773032
0.0059751
0.0032773
0.00146794
0.00087169
0.000612756
0.000489582
0.000415444
0.000359274
0.00034396
0.00034229
0.000355851
0.000407013
0.000516429
0.000718679
0.00105431
0.00156307
0.00224569
0.0030102
0.00372441
0.00411346
0.00426334
0.00420124
0.00364721
0.00301928
0.00237712
0.00170999
0.00112865
0.000691291
0.000404013
0.000236184
0.000147051
0.000102768
8.26777e-05
7.34479e-05
6.90507e-05
6.86725e-05
7.3799e-05
8.55156e-05
0.000105382
0.000138885
0.00019945
0.00030441
0.000480389
0.000771312
0.00122617
0.001815
0.00242415
0.00294127
0.00329907
0.00355284
0.00375965
0.00394779
0.00412572
0.00427922
0.00438375
0.00442809
0.00443274
0.00442687
0.0044003
0.00435149
0.00428265
0.00409771
0.00379526
0.00362482
0.00351437
0.00329267
0.00279447
0.00230899
0.00203943
0.00197939
0.00200725
0.00220231
0.00235102
0.00233765
0.00207256
0.00124169
0.000737775
0.000594557
0.000615018
0.000865543
0.00142013
0.00166636
0.00170661
0.00168719
0.00166682
0.00169012
0.00188482
0.00227474
0.00245571
0.00247758
0.00242751
0.00235675
0.00235376
0.0023793
0.00238257
0.00237586
0.0023584
0.00231805
0.00220582
0.00192514
0.00161315
0.00132068
0.00104867
0.000797851
0.00057231
0.000382649
0.000252157
0.000199145
0.000183621
0.000175897
0.000158572
0.000134086
0.0281415
0.020048
0.0113889
0.00988643
0.00964521
0.00962043
0.00966714
0.00975099
0.0101124
0.0108074
0.0118318
0.0130815
0.0140344
0.0144358
0.014494
0.0135127
0.012605
0.0110349
0.0094065
0.00763284
0.00581405
0.0046559
0.00394507
0.00320819
0.0029427
0.00319405
0.00462773
0.00818098
0.0157279
0.0258216
0.0367628
0.048438
0.0622861
0.0771831
0.0923042
0.100173
0.0972508
0.0810006
0.0629106
0.0493385
0.0422502
0.0406065
0.0412019
0.0467362
0.08325
0.102818
0.0663994
0.0535784
0.0575971
0.0456781
0.0258913
0.0200424
0.0182291
0.017322
0.0162742
0.0142833
0.0111652
0.00901694
0.0086151
0.00888463
0.0102784
0.012063
0.0125682
0.0125955
0.0124555
0.0117352
0.010492
0.00933552
0.00797812
0.00544992
0.00268514
0.00151602
0.00101881
0.000789349
0.000674016
0.000619174
0.000606951
0.000636114
0.000777059
0.00106041
0.00149986
0.0021843
0.00318909
0.00465063
0.0064578
0.00822215
0.0097636
0.0105268
0.0108151
0.0106234
0.00930914
0.00783144
0.00645484
0.00506092
0.00357604
0.00232231
0.00137439
0.000769904
0.00042022
0.000231398
0.000134781
8.91137e-05
6.94392e-05
6.1314e-05
5.75907e-05
5.68889e-05
5.91484e-05
6.30639e-05
6.80466e-05
7.65168e-05
9.25776e-05
0.00012421
0.000183181
0.000298255
0.00052027
0.000889193
0.00135537
0.00179826
0.00220225
0.00259704
0.00296693
0.00326253
0.00344147
0.00349938
0.0035001
0.00348097
0.00341239
0.00331157
0.00323016
0.00309493
0.002776
0.0024532
0.00220761
0.00199923
0.00176489
0.00153153
0.00139525
0.00137588
0.00139895
0.00154112
0.00191445
0.0020669
0.00204215
0.00173432
0.000988348
0.000624345
0.000550092
0.000605289
0.000971626
0.0014359
0.00161751
0.00165452
0.0016576
0.00167051
0.00176862
0.00204418
0.00220045
0.00223069
0.00220406
0.00210363
0.00208499
0.00213334
0.00225049
0.00228875
0.00228568
0.00224815
0.00210483
0.00177804
0.00146019
0.00117817
0.000931596
0.000713484
0.000517464
0.000349325
0.000236148
0.000189797
0.000173611
0.000166755
0.000154952
0.000130172
0.0267972
0.0165145
0.010284
0.00962615
0.00964747
0.00986824
0.0104595
0.0116482
0.0138243
0.0169787
0.0203754
0.0234898
0.0252794
0.0260892
0.0262862
0.02528
0.0241554
0.0215839
0.0188412
0.0149223
0.0115152
0.00814292
0.00596559
0.00374031
0.00265484
0.00198093
0.00170321
0.00191995
0.00318127
0.0067173
0.0156991
0.0295111
0.0440387
0.0557213
0.0663158
0.0747584
0.0789428
0.0756308
0.064229
0.0531852
0.0457023
0.0420053
0.0418047
0.0448858
0.0724076
0.0971901
0.0710487
0.0476666
0.0532932
0.0447686
0.0260823
0.0200612
0.0186043
0.0185651
0.0172367
0.0151332
0.0122785
0.00988017
0.00916037
0.00912736
0.0100244
0.011902
0.0133103
0.0140435
0.0140251
0.0132428
0.0118007
0.0108307
0.0101676
0.0081339
0.00494886
0.00279766
0.00187586
0.00148937
0.00132832
0.00127216
0.00126644
0.00140498
0.001862
0.00263644
0.0036843
0.00525539
0.00765472
0.0105432
0.0134414
0.0161248
0.0184457
0.0196205
0.02005
0.0197553
0.0175333
0.0146417
0.0122471
0.0102933
0.00840873
0.00622641
0.00399495
0.00235184
0.00130304
0.000702459
0.000368028
0.000193187
0.000109059
7.22038e-05
5.76361e-05
5.20222e-05
4.97354e-05
4.98288e-05
5.12247e-05
5.20748e-05
5.2451e-05
5.29266e-05
5.51378e-05
6.31265e-05
8.43307e-05
0.000140739
0.000246254
0.000360773
0.000494615
0.000714607
0.00106867
0.00147124
0.00177571
0.00192257
0.00195179
0.00194287
0.00190167
0.00178611
0.00162124
0.00145137
0.00125583
0.00103099
0.000864105
0.000729445
0.000625979
0.000588537
0.000590182
0.000608682
0.000662852
0.000808317
0.00125879
0.00166617
0.0017848
0.00173126
0.0013286
0.000747997
0.0005341
0.000522721
0.000651327
0.0011306
0.00146836
0.00159142
0.00161793
0.00162958
0.00167771
0.0018735
0.00205739
0.00211873
0.00211762
0.00206187
0.00195489
0.00194247
0.00199962
0.00206459
0.00206321
0.00198663
0.00183038
0.00169403
0.0014835
0.00121997
0.000957038
0.000723843
0.000523871
0.000360938