/*--------------------------------*- C++ -*----------------------------------*\
  =========                 |
  \\      /  F ield         | OpenFOAM: The Open Source CFD Toolbox
   \\    /   O peration     | Website:  https://openfoam.org
    \\  /    A nd           | Version:  9
     \\/     M anipulation  |
\*---------------------------------------------------------------------------*/
FoamFile
{
    format      ascii;
    class       surfaceScalarField;
    location    "0.047";
    object      phi;
}
// * * * * * * * * * * * * * * * * * * * * * * * * * * * * * * * * * * * * * //

dimensions      [0 3 -1 0 0 0 0];

internalField   nonuniform List<scalar> 
24170
(
3.1181e-06
-1.73327e-10
3.01198e-06
1.06116e-07
2.90528e-06
1.06706e-07
2.81382e-06
9.14591e-08
2.74006e-06
7.37531e-08
2.67763e-06
6.24307e-08
2.61726e-06
6.03766e-08
2.55383e-06
6.34285e-08
2.4924e-06
6.14323e-08
2.43242e-06
5.99752e-08
2.38188e-06
5.05369e-08
2.3366e-06
4.52823e-08
2.30405e-06
3.25525e-08
2.27296e-06
3.10894e-08
2.25714e-06
1.58216e-08
2.23567e-06
2.14708e-08
2.19499e-06
4.06762e-08
4.01821e-10
2.19459e-06
3.38174e-06
-1.20335e-08
3.44192e-06
4.59406e-08
3.46107e-06
8.75526e-08
3.45815e-06
9.43758e-08
3.45204e-06
7.98637e-08
3.45264e-06
6.18313e-08
3.46091e-06
5.21077e-08
3.47065e-06
5.36925e-08
3.47531e-06
5.67687e-08
3.47307e-06
6.22114e-08
3.46571e-06
5.79039e-08
3.46068e-06
5.03094e-08
3.45966e-06
3.35759e-08
3.46695e-06
2.37908e-08
3.47971e-06
3.06414e-09
3.4991e-06
2.0843e-09
3.53128e-06
8.49025e-09
-3.02127e-08
3.5619e-06
3.67082e-06
-5.61736e-08
3.72944e-06
-1.26839e-08
3.76466e-06
5.23319e-08
3.77538e-06
8.36595e-08
3.77019e-06
8.50486e-08
3.76471e-06
6.73172e-08
3.76886e-06
4.79585e-08
3.78361e-06
3.89404e-08
3.8017e-06
3.86773e-08
3.81767e-06
4.6241e-08
3.82607e-06
4.95039e-08
3.83177e-06
4.46137e-08
3.835e-06
3.03431e-08
3.84533e-06
1.34544e-08
3.85487e-06
-6.46965e-09
3.87962e-06
-2.26715e-08
3.91439e-06
-2.62727e-08
-6.68141e-08
3.95099e-06
3.95523e-06
3.39074e-08
3.94676e-06
-4.21233e-09
3.97079e-06
2.83055e-08
3.99766e-06
5.67883e-08
4.00379e-06
7.89102e-08
3.99438e-06
7.67333e-08
3.98562e-06
5.67158e-08
3.98703e-06
3.75325e-08
3.99693e-06
2.87816e-08
4.01112e-06
3.20465e-08
4.0247e-06
3.59271e-08
4.03879e-06
3.05201e-08
4.05519e-06
1.39408e-08
4.07647e-06
-7.81967e-09
4.10265e-06
-3.265e-08
4.13466e-06
-5.46867e-08
4.17691e-06
-6.85212e-08
-1.00902e-07
4.211e-06
4.31608e-06
-3.32182e-08
4.24054e-06
7.13315e-08
4.21595e-06
5.28918e-08
4.23348e-06
3.9265e-08
4.26188e-06
5.05079e-08
4.28473e-06
5.38793e-08
4.2977e-06
4.37427e-08
4.30269e-06
3.25488e-08
4.30344e-06
2.803e-08
4.30667e-06
2.88124e-08
4.3168e-06
2.58052e-08
4.33564e-06
1.16806e-08
4.36103e-06
-1.14517e-08
4.39045e-06
-3.724e-08
4.42036e-06
-6.25629e-08
4.45011e-06
-8.44375e-08
4.48234e-06
-1.00751e-07
-1.24495e-07
4.50594e-06
4.55125e-06
-9.63249e-08
4.56028e-06
6.2294e-08
4.54587e-06
6.73027e-08
4.5493e-06
3.5837e-08
4.58135e-06
1.84615e-08
4.61961e-06
1.56136e-08
4.6484e-06
1.49543e-08
4.67025e-06
1.07025e-08
4.69288e-06
5.3999e-09
4.7193e-06
2.38706e-09
4.74519e-06
-7.92084e-11
4.76389e-06
-7.0188e-09
4.77251e-06
-2.00752e-08
4.77272e-06
-3.74503e-08
4.76908e-06
-5.89219e-08
4.76651e-06
-8.18687e-08
4.76887e-06
-1.0311e-07
-1.27045e-07
4.77142e-06
4.8742e-06
-1.07576e-07
4.89348e-06
4.30148e-08
4.90366e-06
5.71224e-08
4.90814e-06
3.1364e-08
4.9161e-06
1.05026e-08
4.92368e-06
8.03081e-09
4.92706e-06
1.15745e-08
4.92949e-06
8.27577e-09
4.93766e-06
-2.77397e-09
4.95448e-06
-1.44311e-08
4.97883e-06
-2.44346e-08
5.00521e-06
-3.33946e-08
5.02948e-06
-4.43464e-08
5.04993e-06
-5.79029e-08
5.06666e-06
-7.56538e-08
5.08061e-06
-9.58131e-08
5.09434e-06
-1.16837e-07
-1.38868e-07
5.10616e-06
5.12354e-06
-4.8597e-08
5.19012e-06
-2.35654e-08
5.22112e-06
2.61259e-08
5.21807e-06
3.44141e-08
5.20983e-06
1.8738e-08
5.21793e-06
-6.13044e-11
5.24126e-06
-1.17618e-08
5.26894e-06
-1.94029e-08
5.29213e-06
-2.59582e-08
5.31058e-06
-3.28875e-08
5.32559e-06
-3.94414e-08
5.3375e-06
-4.53088e-08
5.34525e-06
-5.20981e-08
5.34876e-06
-6.14072e-08
5.34919e-06
-7.60872e-08
5.34917e-06
-9.57901e-08
5.35224e-06
-1.19906e-07
-1.45898e-07
5.35927e-06
5.69333e-06
-3.2058e-08
5.61278e-06
5.69868e-08
5.5911e-06
4.78049e-08
5.56438e-06
6.11334e-08
5.53675e-06
4.6373e-08
5.53407e-06
2.6165e-09
5.56359e-06
-4.12849e-08
5.61033e-06
-6.61393e-08
5.6516e-06
-6.72304e-08
5.67264e-06
-5.39282e-08
5.67307e-06
-3.98727e-08
5.66322e-06
-3.54556e-08
5.65602e-06
-4.48986e-08
5.66087e-06
-6.62561e-08
5.6798e-06
-9.50142e-08
5.71078e-06
-1.26774e-07
5.74858e-06
-1.57709e-07
-1.86895e-07
5.78958e-06
6.00707e-06
3.12991e-08
6.03848e-06
2.55744e-08
6.03915e-06
4.71354e-08
6.00727e-06
9.30164e-08
5.96622e-06
8.74248e-08
5.93576e-06
3.30806e-08
5.92562e-06
-3.11487e-08
5.93204e-06
-7.25608e-08
5.94832e-06
-8.35114e-08
5.97217e-06
-7.77811e-08
6.00488e-06
-7.25774e-08
6.04664e-06
-7.72134e-08
6.09543e-06
-9.3694e-08
6.14611e-06
-1.16934e-07
6.19339e-06
-1.42294e-07
6.23217e-06
-1.65557e-07
6.26047e-06
-1.86006e-07
-2.04871e-07
6.27845e-06
6.24055e-06
-8.8607e-08
6.31775e-06
-5.16255e-08
6.36808e-06
-3.18937e-09
6.41686e-06
4.42376e-08
6.45994e-06
4.43461e-08
6.49077e-06
2.24242e-09
6.50767e-06
-4.80486e-08
6.5139e-06
-7.87906e-08
6.51834e-06
-8.79471e-08
6.52959e-06
-8.90314e-08
6.54979e-06
-9.27749e-08
6.57294e-06
-1.00362e-07
6.5891e-06
-1.09862e-07
6.59057e-06
-1.184e-07
6.57631e-06
-1.28037e-07
6.55114e-06
-1.40382e-07
6.5246e-06
-1.59466e-07
-1.85596e-07
6.50532e-06
5.65493e-06
-1.11797e-08
5.68459e-06
-8.1288e-08
5.71208e-06
-3.06761e-08
5.72759e-06
2.8728e-08
5.74695e-06
2.49886e-08
5.77289e-06
-2.37046e-08
5.80109e-06
-7.62493e-08
5.82615e-06
-1.03846e-07
5.84575e-06
-1.07553e-07
5.86068e-06
-1.03961e-07
5.87139e-06
-1.03479e-07
5.87758e-06
-1.06552e-07
5.87881e-06
-1.11096e-07
5.8769e-06
-1.1649e-07
5.87492e-06
-1.26059e-07
5.87665e-06
-1.42103e-07
5.88514e-06
-1.67963e-07
-2.01792e-07
5.90134e-06
6.93794e-06
-1.77097e-07
6.9923e-06
-1.35646e-07
7.00482e-06
-4.31986e-08
7.02078e-06
1.27693e-08
7.04037e-06
5.39892e-09
7.07204e-06
-5.53777e-08
7.11117e-06
-1.15373e-07
7.1507e-06
-1.43385e-07
7.18302e-06
-1.39864e-07
7.20106e-06
-1.2201e-07
7.20204e-06
-1.04449e-07
7.18922e-06
-9.37418e-08
7.17007e-06
-9.19409e-08
7.15357e-06
-9.99896e-08
7.14625e-06
-1.18735e-07
7.1518e-06
-1.47656e-07
7.16925e-06
-1.85417e-07
-2.28867e-07
7.19633e-06
8.61066e-06
-2.70983e-08
8.53281e-06
-5.77949e-08
8.5199e-06
-3.02887e-08
8.54684e-06
-1.41724e-08
8.59855e-06
-4.6306e-08
8.63788e-06
-9.47128e-08
8.6427e-06
-1.20185e-07
8.61554e-06
-1.16229e-07
8.5773e-06
-1.01625e-07
8.54978e-06
-9.44929e-08
8.54577e-06
-1.00437e-07
8.56755e-06
-1.1552e-07
8.61033e-06
-1.34717e-07
8.6662e-06
-1.5586e-07
8.72622e-06
-1.78756e-07
8.78291e-06
-2.04351e-07
8.82961e-06
-2.32115e-07
-2.63216e-07
8.86396e-06
1.06747e-05
2.17547e-08
1.05602e-05
5.66962e-08
1.05231e-05
6.83561e-09
1.05565e-05
-4.75645e-08
1.0602e-05
-9.18142e-08
1.06089e-05
-1.01671e-07
1.05643e-05
-7.55156e-08
1.04956e-05
-4.75592e-08
1.04462e-05
-5.22688e-08
1.0443e-05
-9.12032e-08
1.04855e-05
-1.43017e-07
1.05547e-05
-1.84665e-07
1.06253e-05
-2.05333e-07
1.06774e-05
-2.08006e-07
1.07022e-05
-2.03466e-07
1.07008e-05
-2.02968e-07
1.06819e-05
-2.13231e-07
-2.37925e-07
1.06566e-05
1.31092e-05
2.47098e-07
1.29384e-05
2.27531e-07
1.28597e-05
8.55215e-08
1.28573e-05
-4.52146e-08
1.2855e-05
-8.95156e-08
1.28407e-05
-8.73107e-08
1.28406e-05
-7.54361e-08
1.28669e-05
-7.38639e-08
1.29056e-05
-9.09973e-08
1.29364e-05
-1.21956e-07
1.29459e-05
-1.52581e-07
1.29332e-05
-1.71903e-07
1.29064e-05
-1.78583e-07
1.28777e-05
-1.79278e-07
1.28569e-05
-1.82624e-07
1.28493e-05
-1.9538e-07
1.28549e-05
-2.18849e-07
-2.51329e-07
1.28683e-05
1.54291e-05
1.32968e-07
1.5511e-05
1.4557e-07
1.54809e-05
1.15671e-07
1.53907e-05
4.49774e-08
1.53293e-05
-2.8131e-08
1.53408e-05
-9.87626e-08
1.54084e-05
-1.43038e-07
1.54886e-05
-1.54139e-07
1.55429e-05
-1.45252e-07
1.55557e-05
-1.34758e-07
1.55377e-05
-1.34553e-07
1.55128e-05
-1.47052e-07
1.55025e-05
-1.68265e-07
1.55162e-05
-1.92948e-07
1.55492e-05
-2.1566e-07
1.55893e-05
-2.35447e-07
1.56209e-05
-2.50495e-07
-2.63881e-07
1.56335e-05
1.88302e-05
2.01963e-08
1.89897e-05
-1.39385e-08
1.90204e-05
8.49253e-08
1.89556e-05
1.09775e-07
1.88874e-05
4.00786e-08
1.88569e-05
-6.82691e-08
1.88675e-05
-1.53612e-07
1.89003e-05
-1.86902e-07
1.89331e-05
-1.78042e-07
1.89558e-05
-1.57503e-07
1.89704e-05
-1.49112e-07
1.89824e-05
-1.59088e-07
1.89948e-05
-1.80694e-07
1.90063e-05
-2.0439e-07
1.90128e-05
-2.22169e-07
1.90099e-05
-2.32523e-07
1.89955e-05
-2.3614e-07
-2.37995e-07
1.89696e-05
2.30688e-05
1.34204e-07
2.28571e-05
1.9772e-07
2.27714e-05
1.70665e-07
2.28164e-05
6.47985e-08
2.28822e-05
-2.57811e-08
2.29058e-05
-9.18287e-08
2.28803e-05
-1.28151e-07
2.28348e-05
-1.41359e-07
2.27973e-05
-1.40588e-07
2.27774e-05
-1.37595e-07
2.27708e-05
-1.42481e-07
2.27716e-05
-1.59853e-07
2.27778e-05
-1.8691e-07
2.27916e-05
-2.18215e-07
2.28166e-05
-2.47174e-07
2.28544e-05
-2.70269e-07
2.29037e-05
-2.85509e-07
-2.93111e-07
2.29588e-05
1.67914e-05
3.61363e-07
1.67121e-05
2.77007e-07
1.67452e-05
1.37557e-07
1.68148e-05
-4.78226e-09
1.68879e-05
-9.88626e-08
1.69237e-05
-1.27669e-07
1.6911e-05
-1.15455e-07
1.68682e-05
-9.85608e-08
1.68269e-05
-9.92098e-08
1.68101e-05
-1.20866e-07
1.68226e-05
-1.5498e-07
1.68549e-05
-1.92164e-07
1.68939e-05
-2.25859e-07
1.69286e-05
-2.52969e-07
1.69529e-05
-2.71407e-07
1.69638e-05
-2.81183e-07
1.69604e-05
-2.82123e-07
-2.75935e-07
1.69432e-05
1.41365e-05
2.19504e-07
1.43845e-05
2.89676e-08
1.45319e-05
-9.88455e-09
1.45838e-05
-5.65871e-08
1.45775e-05
-9.25643e-08
1.45431e-05
-9.33152e-08
1.45011e-05
-7.34252e-08
1.44654e-05
-6.28743e-08
1.44482e-05
-8.20476e-08
1.44584e-05
-1.31015e-07
1.44949e-05
-1.91522e-07
1.45459e-05
-2.43144e-07
1.45932e-05
-2.7316e-07
1.46196e-05
-2.79375e-07
1.46161e-05
-2.67904e-07
1.45834e-05
-2.48488e-07
1.453e-05
-2.28748e-07
-2.15107e-07
1.44692e-05
1.2792e-05
2.24723e-07
1.2748e-05
7.29985e-08
1.27749e-05
-3.68088e-08
1.27894e-05
-7.10335e-08
1.27888e-05
-9.20048e-08
1.28124e-05
-1.16898e-07
1.28688e-05
-1.29806e-07
1.29324e-05
-1.26513e-07
1.29701e-05
-1.19718e-07
1.29615e-05
-1.2248e-07
1.29073e-05
-1.37228e-07
1.28227e-05
-1.58588e-07
1.27287e-05
-1.7913e-07
1.2643e-05
-1.93675e-07
1.25762e-05
-2.01107e-07
1.25312e-05
-2.03488e-07
1.25058e-05
-2.03359e-07
-2.03394e-07
1.24941e-05
1.13529e-05
1.83184e-07
1.12049e-05
2.20955e-07
1.11389e-05
2.91802e-08
1.11469e-05
-7.89928e-08
1.11719e-05
-1.16981e-07
1.1185e-05
-1.3007e-07
1.11857e-05
-1.30495e-07
1.11844e-05
-1.25194e-07
1.11872e-05
-1.22471e-07
1.11908e-05
-1.26137e-07
1.11881e-05
-1.34547e-07
1.11738e-05
-1.44274e-07
1.11474e-05
-1.52677e-07
1.11121e-05
-1.58428e-07
1.10723e-05
-1.61273e-07
1.10309e-05
-1.62086e-07
1.09888e-05
-1.61322e-07
-1.60445e-07
1.09459e-05
9.66523e-06
1.28522e-07
9.74643e-06
1.39751e-07
9.76254e-06
1.30723e-08
9.77478e-06
-9.12374e-08
9.76886e-06
-1.1106e-07
9.72385e-06
-8.50587e-08
9.65448e-06
-6.11224e-08
9.59045e-06
-6.11621e-08
9.551e-06
-8.30268e-08
9.53844e-06
-1.13574e-07
9.54502e-06
-1.4113e-07
9.56111e-06
-1.60362e-07
9.57959e-06
-1.71152e-07
9.5965e-06
-1.75344e-07
9.60945e-06
-1.74216e-07
9.61671e-06
-1.69351e-07
9.61681e-06
-1.61424e-07
-1.52714e-07
9.60908e-06
8.50644e-06
-3.7151e-08
8.59813e-06
4.80626e-08
8.57534e-06
3.58616e-08
8.52205e-06
-3.79512e-08
8.49038e-06
-7.93859e-08
8.49028e-06
-8.49653e-08
8.50752e-06
-7.83581e-08
8.52104e-06
-7.46841e-08
8.516e-06
-7.79885e-08
8.48773e-06
-8.53067e-08
8.44051e-06
-9.39049e-08
8.38446e-06
-1.04313e-07
8.33112e-06
-1.17808e-07
8.2902e-06
-1.34428e-07
8.26699e-06
-1.51008e-07
8.26162e-06
-1.63981e-07
8.27089e-06
-1.7069e-07
-1.68913e-07
8.28709e-06
7.35849e-06
-1.39909e-07
7.44545e-06
-3.88969e-08
7.40282e-06
7.84885e-08
7.35588e-06
8.98991e-09
7.35647e-06
-7.99753e-08
7.39071e-06
-1.19206e-07
7.42859e-06
-1.16233e-07
7.44983e-06
-9.59283e-08
7.45217e-06
-8.033e-08
7.44474e-06
-7.78796e-08
7.43677e-06
-8.59262e-08
7.43109e-06
-9.86404e-08
7.425e-06
-1.11711e-07
7.41425e-06
-1.23681e-07
7.39669e-06
-1.33448e-07
7.37272e-06
-1.40007e-07
7.34448e-06
-1.42451e-07
-1.39504e-07
7.31507e-06
6.3154e-06
-7.62106e-08
6.33661e-06
-6.0107e-08
6.42745e-06
-1.23453e-08
6.49358e-06
-5.71425e-08
6.50956e-06
-9.59583e-08
6.50044e-06
-1.10081e-07
6.49432e-06
-1.10112e-07
6.49652e-06
-9.81304e-08
6.49627e-06
-8.00834e-08
6.48356e-06
-6.51631e-08
6.45711e-06
-5.9476e-08
6.42255e-06
-6.40861e-08
6.38741e-06
-7.65667e-08
6.35719e-06
-9.34662e-08
6.33413e-06
-1.10383e-07
6.3175e-06
-1.23383e-07
6.30476e-06
-1.29706e-07
-1.28239e-07
6.29349e-06
5.61127e-06
-7.42676e-08
5.58177e-06
-3.06122e-08
5.60253e-06
-3.3101e-08
5.60981e-06
-6.44217e-08
5.59245e-06
-7.86009e-08
5.57423e-06
-9.18623e-08
5.57497e-06
-1.10849e-07
5.59396e-06
-1.17124e-07
5.61455e-06
-1.00669e-07
5.61963e-06
-7.02396e-08
5.60286e-06
-4.27134e-08
5.56942e-06
-3.06456e-08
5.52964e-06
-3.6781e-08
5.49178e-06
-5.56049e-08
5.45945e-06
-7.80534e-08
5.43271e-06
-9.66462e-08
5.41048e-06
-1.07473e-07
-1.10248e-07
5.39249e-06
4.81961e-06
-9.55373e-08
4.86153e-06
-7.25287e-08
4.87959e-06
-5.11686e-08
4.88058e-06
-6.54068e-08
4.87755e-06
-7.5576e-08
4.86627e-06
-8.05726e-08
4.84166e-06
-8.62416e-08
4.81006e-06
-8.55296e-08
4.78429e-06
-7.48972e-08
4.77403e-06
-5.99742e-08
4.78063e-06
-4.93209e-08
4.79737e-06
-4.73809e-08
4.81332e-06
-5.27267e-08
4.81823e-06
-6.0516e-08
4.80654e-06
-6.63686e-08
4.77828e-06
-6.8389e-08
4.73802e-06
-6.72104e-08
-6.55586e-08
4.69333e-06
4.09648e-06
4.02395e-06
3.97278e-06
3.90738e-06
3.8318e-06
3.75123e-06
3.66499e-06
3.57946e-06
3.50456e-06
3.44459e-06
3.39527e-06
3.34788e-06
3.29516e-06
3.23464e-06
3.16827e-06
3.09988e-06
3.03267e-06
2.96712e-06
-6.8721e-07
6.8721e-07
-1.2313e-06
5.44088e-07
-1.6018e-06
3.70501e-07
-1.80458e-06
2.02783e-07
-1.80089e-06
-3.69237e-09
-1.58239e-06
-2.18504e-07
-1.17119e-06
-4.11197e-07
-6.12875e-07
-5.58315e-07
1.50995e-08
-6.27974e-07
6.54124e-07
-6.39024e-07
1.26013e-06
-6.06005e-07
1.81383e-06
-5.53706e-07
2.31192e-06
-4.9809e-07
2.7592e-06
-4.47278e-07
3.16461e-06
-4.05408e-07
3.53746e-06
-3.72847e-07
3.88602e-06
-3.48561e-07
4.21705e-06
-3.31034e-07
4.53428e-06
-3.17224e-07
4.84056e-06
-3.06284e-07
5.13528e-06
-2.9472e-07
5.41691e-06
-2.8163e-07
5.68272e-06
-2.65809e-07
5.92526e-06
-2.42539e-07
6.14213e-06
-2.16869e-07
6.31898e-06
-1.76857e-07
6.45319e-06
-1.3421e-07
6.52804e-06
-7.48458e-08
6.53399e-06
-5.95127e-09
6.45164e-06
8.23514e-08
6.23014e-06
2.21493e-07
5.91084e-06
3.19305e-07
5.37391e-06
5.36926e-07
4.69774e-06
6.76169e-07
3.80775e-06
8.8999e-07
2.53795e-06
1.26981e-06
1.4972e-06
1.04074e-06
7.37193e-07
7.6001e-07
1.25864e-07
6.11329e-07
-4.88795e-07
6.14658e-07
-1.28314e-06
7.94342e-07
-2.04759e-06
7.64455e-07
-2.47167e-06
4.24081e-07
-2.3175e-06
-1.54169e-07
-1.46335e-06
-8.54154e-07
1.99749e-07
-1.6631e-06
2.23619e-06
-2.03644e-06
3.96169e-06
-1.7255e-06
5.11352e-06
-1.15183e-06
5.63101e-06
-5.17498e-07
5.30802e-06
3.22991e-07
4.39487e-06
9.13149e-07
3.02497e-06
1.3699e-06
1.6852e-06
1.33976e-06
1.43986e-06
2.45339e-07
1.26746e-06
1.72404e-07
2.4811e-08
1.24265e-06
-1.97283e-06
1.99764e-06
-3.57213e-06
1.5993e-06
-5.00175e-06
1.42962e-06
-6.12895e-06
1.1272e-06
-7.06556e-06
9.36615e-07
-7.78422e-06
7.18659e-07
-8.3469e-06
5.62677e-07
-8.75705e-06
4.1015e-07
-9.05288e-06
2.95828e-07
-9.25109e-06
1.98217e-07
-9.38004e-06
1.28943e-07
-9.46031e-06
8.02753e-08
-9.51266e-06
5.2354e-08
-9.55318e-06
4.05133e-08
-9.59224e-06
3.90642e-08
-9.636e-06
4.37584e-08
-9.68513e-06
4.91292e-08
-9.73934e-06
5.42114e-08
-9.79684e-06
5.74986e-08
-9.85494e-06
5.80986e-08
-9.90949e-06
5.45542e-08
-9.9558e-06
4.63116e-08
-9.98806e-06
3.22539e-08
-1.00008e-05
1.27448e-08
-9.9887e-06
-1.20994e-08
-9.94738e-06
-4.13198e-08
-9.87251e-06
-7.48746e-08
-9.76072e-06
-1.11787e-07
-9.60998e-06
-1.50742e-07
-9.41974e-06
-1.90239e-07
-9.19105e-06
-2.28688e-07
-8.92647e-06
-2.64586e-07
-8.62979e-06
-2.96681e-07
-8.30573e-06
-3.24057e-07
-7.95954e-06
-3.46191e-07
-7.59655e-06
-3.62991e-07
-7.22178e-06
-3.74769e-07
-6.83964e-06
-3.82138e-07
-6.45376e-06
-3.85885e-07
-6.06692e-06
-3.86839e-07
-5.68115e-06
-3.85763e-07
-5.29782e-06
-3.83332e-07
-4.91772e-06
-3.80102e-07
-4.54115e-06
-3.76571e-07
-4.1681e-06
-3.7305e-07
-3.79863e-06
-3.69468e-07
-3.43298e-06
-3.65648e-07
-3.07163e-06
-3.61354e-07
-2.71544e-06
-3.56189e-07
-2.36557e-06
-3.49866e-07
-2.02345e-06
-3.42125e-07
-1.69063e-06
-3.32815e-07
-1.36883e-06
-3.21807e-07
-1.05975e-06
-3.09082e-07
-7.65104e-07
-2.94641e-07
-4.86301e-07
-2.78802e-07
-2.24113e-07
-2.62189e-07
2.05101e-08
-2.44623e-07
2.51389e-07
-2.30879e-07
4.66559e-07
-2.1517e-07
6.68281e-07
-2.01722e-07
8.59134e-07
-1.90853e-07
1.04235e-06
-1.83217e-07
1.22169e-06
-1.7934e-07
1.40125e-06
-1.79556e-07
1.58517e-06
-1.83928e-07
1.77736e-06
-1.92187e-07
1.98101e-06
-2.03648e-07
2.19808e-06
-2.17067e-07
2.42889e-06
-2.30817e-07
2.6719e-06
-2.43003e-07
2.92361e-06
-2.51714e-07
3.17899e-06
-2.55383e-07
3.43206e-06
-2.53071e-07
3.67673e-06
-2.44666e-07
3.9076e-06
-2.30872e-07
4.12039e-06
-2.12789e-07
4.31149e-06
-1.91095e-07
4.47736e-06
-1.65877e-07
4.61556e-06
-1.38196e-07
4.7269e-06
-1.11343e-07
4.81503e-06
-8.8124e-08
4.8819e-06
-6.68727e-08
4.92661e-06
-4.47079e-08
4.95019e-06
-2.35793e-08
4.95722e-06
-7.03007e-09
4.95063e-06
6.58525e-09
4.92323e-06
2.74e-08
4.85575e-06
6.74763e-08
4.73157e-06
1.24181e-07
4.55665e-06
1.74925e-07
4.35818e-06
1.98466e-07
4.16176e-06
1.96419e-07
3.97686e-06
1.84902e-07
3.80408e-06
1.72779e-07
3.6472e-06
1.5688e-07
3.51691e-06
1.3029e-07
3.42277e-06
9.41373e-08
3.36345e-06
5.93229e-08
3.32701e-06
3.64446e-08
3.29896e-06
2.80448e-08
3.26676e-06
3.2205e-08
3.2205e-06
4.62554e-08
3.15086e-06
6.96383e-08
3.05192e-06
9.8944e-08
2.92697e-06
1.2495e-07
2.79166e-06
1.35306e-07
2.66534e-06
1.26325e-07
2.56141e-06
1.03931e-07
2.48214e-06
7.92657e-08
2.42202e-06
6.01212e-08
2.373e-06
4.90219e-08
2.32965e-06
4.33518e-08
2.28811e-06
4.15398e-08
2.24823e-06
3.98792e-08
2.20631e-06
4.19162e-08
2.16421e-06
4.21035e-08
2.11182e-06
5.23872e-08
2.05632e-06
5.55033e-08
1.97166e-06
8.4655e-08
1.88516e-06
8.6507e-08
1.72205e-06
1.63108e-07
1.47801e-07
1.57425e-06
-1.08497e-07
7.95707e-07
-2.30915e-07
6.66506e-07
-2.26188e-07
3.65774e-07
-1.4599e-07
1.22585e-07
1.01172e-08
-1.598e-07
3.0339e-07
-5.11776e-07
7.05541e-07
-8.13348e-07
1.14938e-06
-1.00215e-06
1.57088e-06
-1.04947e-06
1.9414e-06
-1.00955e-06
2.25718e-06
-9.21787e-07
2.52688e-06
-8.23408e-07
2.76512e-06
-7.36324e-07
2.98659e-06
-6.68755e-07
3.20247e-06
-6.21282e-07
3.42043e-06
-5.9081e-07
3.64509e-06
-5.73216e-07
3.87865e-06
-5.64601e-07
4.12212e-06
-5.60697e-07
4.37435e-06
-5.58508e-07
4.63333e-06
-5.53702e-07
4.8959e-06
-5.44199e-07
5.15692e-06
-5.26823e-07
5.41216e-06
-4.97787e-07
5.65374e-06
-4.58443e-07
5.87655e-06
-3.99671e-07
6.07106e-06
-3.28713e-07
6.23099e-06
-2.34781e-07
6.34596e-06
-1.20917e-07
6.41981e-06
8.50296e-09
6.45417e-06
1.87126e-07
6.412e-06
3.61475e-07
6.33317e-06
6.15764e-07
6.13987e-06
8.69469e-07
5.85693e-06
1.17292e-06
5.5816e-06
1.54514e-06
4.81585e-06
1.8065e-06
3.575e-06
2.00086e-06
2.40996e-06
1.77637e-06
1.50098e-06
1.52364e-06
8.13719e-07
1.48161e-06
2.91608e-07
1.28657e-06
-6.90757e-08
7.84764e-07
-2.17839e-07
-5.40525e-09
3.11034e-08
-1.1031e-06
7.99681e-07
-2.43168e-06
2.04261e-06
-3.27936e-06
3.29269e-06
-2.97558e-06
4.06207e-06
-1.92121e-06
4.28406e-06
-7.39489e-07
4.04087e-06
5.6618e-07
3.2119e-06
1.74212e-06
2.28324e-06
2.29856e-06
1.92027e-06
1.70274e-06
5.67451e-07
1.59815e-06
-2.15081e-06
2.89066e-06
-4.14023e-06
3.23207e-06
-5.20955e-06
3.06697e-06
-6.19784e-06
2.58759e-06
-6.96364e-06
2.19542e-06
-7.59522e-06
1.75878e-06
-8.08397e-06
1.42537e-06
-8.47433e-06
1.10902e-06
-8.77147e-06
8.59818e-07
-8.99419e-06
6.32865e-07
-9.15134e-06
4.52978e-07
-9.25772e-06
3.04598e-07
-9.32865e-06
1.99872e-07
-9.37579e-06
1.2742e-07
-9.41362e-06
9.0181e-08
-9.45198e-06
7.88742e-08
-9.49678e-06
8.38644e-08
-9.5484e-06
9.53774e-08
-9.60638e-06
1.07109e-07
-9.66767e-06
1.15505e-07
-9.73042e-06
1.20248e-07
-9.79136e-06
1.19034e-07
-9.84663e-06
1.09829e-07
-9.89114e-06
9.0825e-08
-9.92042e-06
6.15296e-08
-9.92921e-06
2.15343e-08
-9.91386e-06
-2.74491e-08
-9.86779e-06
-8.73947e-08
-9.78644e-06
-1.56216e-07
-9.6666e-06
-2.31626e-07
-9.50636e-06
-3.1099e-07
-9.30533e-06
-3.91269e-07
-9.06482e-06
-4.69197e-07
-8.7877e-06
-5.417e-07
-8.47814e-06
-6.06241e-07
-8.14121e-06
-6.60992e-07
-7.78244e-06
-7.04959e-07
-7.4074e-06
-7.38036e-07
-7.02124e-06
-7.6093e-07
-6.62846e-06
-7.74917e-07
-6.23274e-06
-7.816e-07
-5.8369e-06
-7.82686e-07
-5.44287e-06
-7.79791e-07
-5.05187e-06
-7.74333e-07
-4.6646e-06
-7.67369e-07
-4.28134e-06
-7.59834e-07
-3.90199e-06
-7.52401e-07
-3.52653e-06
-7.44925e-07
-3.15516e-06
-7.37014e-07
-2.78823e-06
-7.28281e-07
-2.42651e-06
-7.17913e-07
-2.07101e-06
-7.05368e-07
-1.72304e-06
-6.9009e-07
-1.38406e-06
-6.71793e-07
-1.05554e-06
-6.50335e-07
-7.39288e-07
-6.2533e-07
-4.3698e-07
-5.96949e-07
-1.50502e-07
-5.65281e-07
1.20192e-07
-5.32883e-07
3.75685e-07
-5.00115e-07
6.13133e-07
-4.68328e-07
8.35315e-07
-4.37352e-07
1.04347e-06
-4.09876e-07
1.24011e-06
-3.87498e-07
1.42847e-06
-3.71574e-07
1.61239e-06
-3.63258e-07
1.79616e-06
-3.63322e-07
1.98422e-06
-3.7199e-07
2.18081e-06
-3.8878e-07
2.38947e-06
-4.12303e-07
2.61254e-06
-4.40138e-07
2.85064e-06
-4.68918e-07
3.10227e-06
-4.9463e-07
3.36373e-06
-5.13176e-07
3.62947e-06
-5.21126e-07
3.89279e-06
-5.16387e-07
4.14668e-06
-4.98561e-07
4.38459e-06
-4.68783e-07
4.60092e-06
-4.2912e-07
4.79196e-06
-3.8213e-07
4.95708e-06
-3.30995e-07
5.09805e-06
-2.79176e-07
5.21567e-06
-2.28957e-07
5.3087e-06
-1.81152e-07
5.37896e-06
-1.3714e-07
5.43519e-06
-1.00929e-07
5.4872e-06
-7.55929e-08
5.53845e-06
-5.82812e-08
5.5845e-06
-3.94604e-08
5.6191e-06
-7.2054e-09
5.64351e-06
4.30683e-08
5.66697e-06
1.00723e-07
5.69923e-06
1.42662e-07
5.7428e-06
1.54901e-07
5.78537e-06
1.53848e-07
5.7988e-06
1.71468e-07
5.75632e-06
2.15265e-07
5.65939e-06
2.53802e-07
5.5374e-06
2.52288e-07
5.42505e-06
2.06484e-07
5.33976e-06
1.44613e-07
5.27414e-06
1.02066e-07
5.20443e-06
9.77512e-08
5.1133e-06
1.23335e-07
5.00081e-06
1.58753e-07
4.88231e-06
1.88129e-07
4.77409e-06
2.07163e-07
4.68385e-06
2.15198e-07
4.61156e-06
2.07596e-07
4.55434e-06
1.83537e-07
4.5103e-06
1.47973e-07
4.47721e-06
1.12356e-07
4.45246e-06
8.48725e-08
4.43285e-06
6.8638e-08
4.41599e-06
6.02101e-08
4.39878e-06
5.87457e-08
4.37953e-06
5.91339e-08
4.35355e-06
6.78896e-08
4.31973e-06
7.5922e-08
4.27192e-06
1.00198e-07
4.21424e-06
1.13185e-07
4.13737e-06
1.61528e-07
4.05104e-06
1.72832e-07
3.93803e-06
2.76125e-07
2.87099e-07
3.79873e-06
2.95921e-07
4.99786e-07
4.83422e-07
4.79006e-07
6.57193e-07
1.92003e-07
9.12695e-07
-1.32917e-07
1.23466e-06
-4.81768e-07
1.53744e-06
-8.14557e-07
1.75219e-06
-1.02809e-06
1.83804e-06
-1.088e-06
1.80945e-06
-1.02088e-06
1.70287e-06
-9.02971e-07
1.58201e-06
-8.00923e-07
1.4975e-06
-7.389e-07
1.4685e-06
-7.07323e-07
1.49758e-06
-6.97834e-07
1.58109e-06
-7.04792e-07
1.7129e-06
-7.22624e-07
1.88584e-06
-7.46157e-07
2.09372e-06
-7.72478e-07
2.3309e-06
-7.97881e-07
2.59175e-06
-8.19355e-07
2.87118e-06
-8.33126e-07
3.16397e-06
-8.36999e-07
3.46384e-06
-8.2669e-07
3.76572e-06
-7.99662e-07
4.06121e-06
-7.53933e-07
4.3443e-06
-6.82769e-07
4.60595e-06
-5.90354e-07
4.83866e-06
-4.67492e-07
5.03641e-06
-3.18676e-07
5.19085e-06
-1.45931e-07
5.3181e-06
5.98725e-08
5.41187e-06
2.67707e-07
5.50445e-06
5.23185e-07
5.58789e-06
7.86024e-07
5.67167e-06
1.08915e-06
5.76176e-06
1.45505e-06
5.7501e-06
1.81816e-06
5.56196e-06
2.189e-06
4.93274e-06
2.40559e-06
4.06419e-06
2.39219e-06
3.34897e-06
2.19683e-06
2.87769e-06
1.75784e-06
2.54878e-06
1.11368e-06
2.27351e-06
2.69862e-07
2.12483e-06
-9.54417e-07
2.22045e-06
-2.52729e-06
2.52588e-06
-3.5848e-06
2.86995e-06
-3.31965e-06
3.00362e-06
-2.05487e-06
2.79793e-06
-5.33798e-07
2.36386e-06
1.00024e-06
1.88391e-06
2.22208e-06
1.45028e-06
2.73219e-06
-4.82472e-08
3.20127e-06
-2.70171e-06
4.25161e-06
-4.46293e-06
4.65189e-06
-5.4124e-06
4.18153e-06
-5.992e-06
3.64657e-06
-6.46172e-06
3.0573e-06
-6.83717e-06
2.57087e-06
-7.2058e-06
2.1274e-06
-7.5422e-06
1.76178e-06
-7.85685e-06
1.42366e-06
-8.12064e-06
1.12361e-06
-8.32802e-06
8.40244e-07
-8.46894e-06
5.93895e-07
-8.5519e-06
3.8756e-07
-8.59227e-06
2.40238e-07
-8.61511e-06
1.50259e-07
-8.64195e-06
1.17021e-07
-8.6869e-06
1.23827e-07
-8.75537e-06
1.5234e-07
-8.84242e-06
1.82419e-07
-8.93729e-06
2.01983e-07
-9.03402e-06
2.12234e-07
-9.12903e-06
2.1526e-07
-9.21935e-06
2.09347e-07
-9.30118e-06
1.91659e-07
-9.36929e-06
1.58942e-07
-9.41882e-06
1.11059e-07
-9.44482e-06
4.75346e-08
-9.44173e-06
-3.05386e-08
-9.4042e-06
-1.24923e-07
-9.32756e-06
-2.32855e-07
-9.20838e-06
-3.50808e-07
-9.04475e-06
-4.74626e-07
-8.83653e-06
-5.99486e-07
-8.58562e-06
-7.20107e-07
-8.29576e-06
-8.31564e-07
-7.9721e-06
-9.29892e-07
-7.62072e-06
-1.01238e-06
-7.24802e-06
-1.07766e-06
-6.86028e-06
-1.12577e-06
-6.46318e-06
-1.15803e-06
-6.06154e-06
-1.17656e-06
-5.65926e-06
-1.18388e-06
-5.25927e-06
-1.18268e-06
-4.86364e-06
-1.17542e-06
-4.47371e-06
-1.16427e-06
-4.09031e-06
-1.15077e-06
-3.7138e-06
-1.13634e-06
-3.34406e-06
-1.12214e-06
-2.98115e-06
-1.10783e-06
-2.62519e-06
-1.09297e-06
-2.27624e-06
-1.07723e-06
-1.93456e-06
-1.0596e-06
-1.6006e-06
-1.03932e-06
-1.27507e-06
-1.01562e-06
-9.58758e-07
-9.88103e-07
-6.52149e-07
-9.56944e-07
-3.57064e-07
-9.20415e-07
-7.42538e-08
-8.79759e-07
1.96596e-07
-8.36131e-07
4.53523e-07
-7.8981e-07
6.9546e-07
-7.42052e-07
9.21993e-07
-6.94861e-07
1.13442e-06
-6.49775e-07
1.3339e-06
-6.09356e-07
1.52247e-06
-5.76076e-07
1.70307e-06
-5.52165e-07
1.87938e-06
-5.39576e-07
2.05578e-06
-5.39719e-07
2.23697e-06
-5.53179e-07
2.4276e-06
-5.79417e-07
2.63178e-06
-6.16476e-07
2.85243e-06
-6.60787e-07
3.09074e-06
-7.07235e-07
3.34573e-06
-7.49612e-07
3.61407e-06
-7.81526e-07
3.8905e-06
-7.9755e-07
4.1683e-06
-7.94192e-07
4.43999e-06
-7.70245e-07
4.69753e-06
-7.26324e-07
4.93218e-06
-6.63769e-07
5.13417e-06
-5.8412e-07
5.29411e-06
-4.9094e-07
5.40722e-06
-3.92287e-07
5.47663e-06
-2.98364e-07
5.5107e-06
-2.15227e-07
5.51801e-06
-1.4445e-07
5.50734e-06
-9.02519e-08
5.49314e-06
-6.1393e-08
5.49598e-06
-6.11208e-08
5.52923e-06
-7.27092e-08
5.58417e-06
-6.21546e-08
5.63382e-06
-6.5799e-09
5.66077e-06
7.37742e-08
5.67308e-06
1.30358e-07
5.70134e-06
1.26636e-07
5.771e-06
8.41894e-08
5.87426e-06
6.82105e-08
5.96705e-06
1.22467e-07
5.99598e-06
2.24874e-07
5.94137e-06
3.06901e-07
5.83152e-06
3.1633e-07
5.71844e-06
2.57698e-07
5.63992e-06
1.80583e-07
5.5975e-06
1.40169e-07
5.56107e-06
1.59766e-07
5.4975e-06
2.22325e-07
5.39616e-06
2.89464e-07
5.27201e-06
3.31317e-07
5.14994e-06
3.3727e-07
5.04779e-06
3.0974e-07
4.97244e-06
2.5889e-07
4.92234e-06
1.98074e-07
4.89175e-06
1.42945e-07
4.87395e-06
1.02672e-07
4.86285e-06
7.97352e-08
4.85447e-06
6.85943e-08
4.84694e-06
6.62773e-08
4.84016e-06
6.59113e-08
4.83415e-06
7.39004e-08
4.82739e-06
8.26802e-08
4.81721e-06
1.10378e-07
4.79691e-06
1.3349e-07
4.76684e-06
1.91597e-07
4.71538e-06
2.2429e-07
4.6628e-06
3.28706e-07
3.75407e-07
4.57449e-06
2.36924e-07
2.62862e-07
5.07556e-07
2.08373e-07
7.98538e-07
-9.89791e-08
1.09154e-06
-4.2592e-07
1.30168e-06
-6.91905e-07
1.32137e-06
-8.34252e-07
1.07081e-06
-7.77528e-07
6.56956e-07
-6.74147e-07
2.64465e-07
-6.28392e-07
-1.35579e-08
-6.24949e-07
-1.65699e-07
-6.48781e-07
-2.20305e-07
-6.84294e-07
-2.01448e-07
-7.2618e-07
-1.27358e-07
-7.71924e-07
-1.05188e-08
-8.21632e-07
1.4204e-07
-8.75183e-07
3.27588e-07
-9.31705e-07
5.43674e-07
-9.88564e-07
7.88588e-07
-1.04279e-06
1.06046e-06
-1.09123e-06
1.35705e-06
-1.12972e-06
1.67514e-06
-1.15508e-06
2.01021e-06
-1.16176e-06
2.35811e-06
-1.14757e-06
2.71113e-06
-1.10695e-06
3.06235e-06
-1.03399e-06
3.39981e-06
-9.2781e-07
3.71441e-06
-7.82089e-07
3.99748e-06
-6.01746e-07
4.24089e-06
-3.89344e-07
4.44459e-06
-1.43832e-07
4.59648e-06
1.15822e-07
4.72449e-06
3.95178e-07
4.84158e-06
6.68933e-07
4.9863e-06
9.44427e-07
5.18436e-06
1.25699e-06
5.4349e-06
1.56762e-06
5.71239e-06
1.91151e-06
5.85946e-06
2.25851e-06
5.76921e-06
2.48244e-06
5.47036e-06
2.49568e-06
5.01849e-06
2.20971e-06
4.5319e-06
1.60028e-06
4.07797e-06
7.23791e-07
3.56858e-06
-4.45034e-07
3.13981e-06
-2.09852e-06
2.83292e-06
-3.27791e-06
2.57715e-06
-3.06388e-06
2.28232e-06
-1.76003e-06
1.79028e-06
-4.176e-08
1.15917e-06
1.63135e-06
3.14132e-07
3.06712e-06
-1.25537e-06
4.30169e-06
-3.35957e-06
5.30547e-06
-4.79388e-06
5.68593e-06
-5.32552e-06
5.18353e-06
-5.62258e-06
4.4786e-06
-5.85346e-06
3.87744e-06
-6.10232e-06
3.30616e-06
-6.39386e-06
2.86242e-06
-6.73445e-06
2.468e-06
-7.09027e-06
2.11759e-06
-7.43446e-06
1.76786e-06
-7.72078e-06
1.40993e-06
-7.92353e-06
1.04299e-06
-8.02935e-06
6.99712e-07
-8.0511e-06
4.09314e-07
-8.00861e-06
1.97744e-07
-7.93392e-06
7.557e-08
-7.86213e-06
4.52339e-08
-7.82914e-06
9.08308e-08
-7.85253e-06
1.75737e-07
-7.92704e-06
2.56931e-07
-8.03321e-06
3.08153e-07
-8.15228e-06
3.31302e-07
-8.27571e-06
3.38686e-07
-8.39924e-06
3.32876e-07
-8.51464e-06
3.07058e-07
-8.61264e-06
2.56951e-07
-8.68731e-06
1.85724e-07
-8.73413e-06
9.435e-08
-8.74668e-06
-1.79801e-08
-8.71807e-06
-1.53533e-07
-8.64357e-06
-3.0736e-07
-8.51955e-06
-4.74831e-07
-8.34402e-06
-6.50152e-07
-8.11702e-06
-8.26484e-07
-7.84116e-06
-9.95974e-07
-7.5215e-06
-1.15122e-06
-7.16487e-06
-1.28653e-06
-6.77904e-06
-1.39821e-06
-6.37207e-06
-1.48463e-06
-5.95166e-06
-1.54618e-06
-5.52462e-06
-1.58507e-06
-5.0966e-06
-1.60458e-06
-4.67211e-06
-1.60836e-06
-4.25449e-06
-1.60029e-06
-3.84624e-06
-1.58367e-06
-3.44927e-06
-1.56124e-06
-3.06486e-06
-1.53517e-06
-2.69367e-06
-1.50754e-06
-2.33569e-06
-1.48012e-06
-1.9914e-06
-1.45213e-06
-1.66059e-06
-1.42378e-06
-1.343e-06
-1.39482e-06
-1.038e-06
-1.3646e-06
-7.45123e-07
-1.3322e-06
-4.63671e-07
-1.29707e-06
-1.93714e-07
-1.25806e-06
6.45655e-08
-1.21522e-06
3.13361e-07
-1.16921e-06
5.51495e-07
-1.11789e-06
7.78064e-07
-1.0627e-06
9.92473e-07
-1.00422e-06
1.19462e-06
-9.44203e-07
1.38471e-06
-8.84951e-07
1.56388e-06
-8.28938e-07
1.73363e-06
-7.79113e-07
1.89609e-06
-7.38532e-07
2.05401e-06
-7.10084e-07
2.21075e-06
-6.96317e-07
2.37016e-06