/*--------------------------------*- C++ -*----------------------------------*\
  =========                 |
  \\      /  F ield         | OpenFOAM: The Open Source CFD Toolbox
   \\    /   O peration     | Website:  https://openfoam.org
    \\  /    A nd           | Version:  9
     \\/     M anipulation  |
\*---------------------------------------------------------------------------*/
FoamFile
{
    format      ascii;
    class       surfaceScalarField;
    location    "0.047";
    object      phi_0;
}
// * * * * * * * * * * * * * * * * * * * * * * * * * * * * * * * * * * * * * //

dimensions      [0 3 -1 0 0 0 0];

internalField   nonuniform List<scalar> 
24170
(
3.11887e-06
2.1323e-08
3.00915e-06
1.09722e-07
2.9022e-06
1.06947e-07
2.81117e-06
9.10367e-08
2.73777e-06
7.33931e-08
2.67524e-06
6.25322e-08
2.61433e-06
6.09167e-08
2.55034e-06
6.39876e-08
2.48854e-06
6.17972e-08
2.42838e-06
6.01649e-08
2.37783e-06
5.05452e-08
2.33258e-06
4.52478e-08
2.29995e-06
3.26328e-08
2.26882e-06
3.11255e-08
2.25256e-06
1.62618e-08
2.22986e-06
2.26989e-08
2.18797e-06
4.1896e-08
2.77048e-09
2.1852e-06
3.38161e-06
-1.62406e-08
3.4416e-06
4.97306e-08
3.45818e-06
9.03668e-08
3.45427e-06
9.49517e-08
3.44822e-06
7.94403e-08
3.44928e-06
6.14752e-08
3.45778e-06
5.24145e-08
3.46721e-06
5.45567e-08
3.47116e-06
5.78487e-08
3.46818e-06
6.31403e-08
3.46041e-06
5.8315e-08
3.45543e-06
5.0231e-08
3.45469e-06
3.33694e-08
3.46237e-06
2.34496e-08
3.47541e-06
3.22187e-09
3.49459e-06
3.52352e-09
3.52603e-06
1.04468e-08
-2.64917e-08
3.5553e-06
3.67159e-06
-6.69266e-08
3.7296e-06
-8.28111e-09
3.76281e-06
5.71614e-08
3.77159e-06
8.61711e-08
3.76551e-06
8.5524e-08
3.76012e-06
6.68597e-08
3.76483e-06
4.77103e-08
3.77991e-06
3.9474e-08
3.79776e-06
4.00002e-08
3.81302e-06
4.78746e-08
3.82064e-06
5.06988e-08
3.82582e-06
4.50506e-08
3.82894e-06
3.02494e-08
3.8393e-06
1.3087e-08
3.84898e-06
-6.45338e-09
3.87389e-06
-2.13919e-08
3.90822e-06
-2.38808e-08
-6.26766e-08
3.94441e-06
3.94795e-06
2.66961e-09
3.94418e-06
-4.51311e-09
3.96883e-06
3.25117e-08
3.99466e-06
6.03404e-08
3.99893e-06
8.12554e-08
3.98858e-06
7.72075e-08
3.97996e-06
5.6334e-08
3.98185e-06
3.75809e-08
3.99199e-06
2.98666e-08
4.00605e-06
3.38117e-08
4.01936e-06
3.73889e-08
4.03331e-06
3.10999e-08
4.04983e-06
1.37254e-08
4.07126e-06
-8.33748e-09
4.09754e-06
-3.27291e-08
4.12955e-06
-5.34091e-08
4.17153e-06
-6.58616e-08
-9.67466e-08
4.2056e-06
4.31526e-06
-3.61019e-08
4.23305e-06
7.76961e-08
4.21174e-06
5.38297e-08
4.2308e-06
4.12807e-08
4.25897e-06
5.30854e-08
4.28087e-06
5.53062e-08
4.29278e-06
4.44209e-08
4.2969e-06
3.34636e-08
4.29722e-06
2.9543e-08
4.30058e-06
3.04541e-08
4.31121e-06
2.67561e-08
4.33051e-06
1.18064e-08
4.35614e-06
-1.19134e-08
4.38542e-06
-3.76147e-08
4.41493e-06
-6.22391e-08
4.44428e-06
-8.27555e-08
4.47613e-06
-9.77124e-08
-1.20217e-07
4.4996e-06
4.55229e-06
-3.58956e-08
4.55625e-06
7.37385e-08
4.54118e-06
6.88989e-08
4.54593e-06
3.65257e-08
4.57895e-06
2.00741e-08
4.61673e-06
1.75249e-08
4.6445e-06
1.66467e-08
4.66582e-06
1.21439e-08
4.68847e-06
6.89209e-09
4.71483e-06
4.09354e-09
4.74013e-06
1.45667e-09
4.75752e-06
-5.58617e-09
4.76471e-06
-1.90998e-08
4.76375e-06
-3.66557e-08
4.75946e-06
-5.79435e-08
4.75682e-06
-8.01238e-08
4.75951e-06
-1.00395e-07
-1.23423e-07
4.76271e-06
4.87184e-06
-9.28931e-08
4.88975e-06
5.5827e-08
4.89943e-06
5.92153e-08
4.90344e-06
3.25215e-08
4.91112e-06
1.23914e-08
4.91812e-06
1.05287e-08
4.92079e-06
1.39711e-08
4.92301e-06
9.92802e-09
4.93151e-06
-1.61291e-09
4.94883e-06
-1.32244e-08
4.97332e-06
-2.30301e-08
4.99949e-06
-3.17568e-08
5.02317e-06
-4.27833e-08
5.04291e-06
-5.63984e-08
5.05903e-06
-7.40554e-08
5.07267e-06
-9.37633e-08
5.08646e-06
-1.14192e-07
-1.35675e-07
5.09871e-06
5.1179e-06
-7.03099e-08
5.1891e-06
-1.53735e-08
5.21693e-06
3.13768e-08
5.21199e-06
3.7464e-08
5.20371e-06
2.06748e-08
5.21278e-06
1.45987e-09
5.23652e-06
-9.77471e-09
5.26385e-06
-1.73983e-08
5.28628e-06
-2.40476e-08
5.30405e-06
-3.09869e-08
5.31843e-06
-3.74106e-08
5.32972e-06
-4.30444e-08
5.33671e-06
-4.97749e-08
5.33949e-06
-5.91776e-08
5.33945e-06
-7.40146e-08
5.33942e-06
-9.37424e-08
5.34299e-06
-1.17761e-07
-1.43657e-07
5.35097e-06
5.68574e-06
2.40384e-08
5.60398e-06
6.63853e-08
5.58366e-06
5.16944e-08
5.55627e-06
6.48553e-08
5.52914e-06
4.78073e-08
5.52829e-06
2.30806e-09
5.55952e-06
-4.10026e-08
5.60644e-06
-6.43171e-08
5.64621e-06
-6.3824e-08
5.66498e-06
-4.97583e-08
5.66353e-06
-3.59618e-08
5.65297e-06
-3.24799e-08
5.64623e-06
-4.30339e-08
5.65223e-06
-6.51824e-08
5.67245e-06
-9.42354e-08
5.70453e-06
-1.25819e-07
5.74309e-06
-1.56322e-07
-1.85142e-07
5.78458e-06
5.99526e-06
2.4956e-08
6.03412e-06
2.75221e-08
6.03225e-06
5.35636e-08
5.99805e-06
9.90586e-08
5.95649e-06
8.93705e-08
5.92667e-06
3.21262e-08
5.9175e-06
-3.18336e-08
5.92457e-06
-7.13864e-08
5.94127e-06
-8.05196e-08
5.96561e-06
-7.40982e-08
5.99897e-06
-6.9331e-08
6.04142e-06
-7.49262e-08
6.09063e-06
-9.2239e-08
6.14122e-06
-1.15774e-07
6.18791e-06
-1.40929e-07
6.22576e-06
-1.63663e-07
6.25309e-06
-1.83659e-07
-2.02352e-07
6.2703e-06
6.24308e-06
-8.58258e-08
6.31505e-06
-4.44454e-08
6.36553e-06
3.07648e-09
6.41339e-06
5.12016e-08
6.45534e-06
4.74241e-08
6.48482e-06
2.64356e-09
6.50012e-06
-4.71345e-08
6.50535e-06
-7.66107e-08
6.50965e-06
-8.4823e-08
6.52137e-06
-8.58185e-08
6.54192e-06
-8.98792e-08
6.56464e-06
-9.76513e-08
6.57944e-06
-1.07038e-07
6.57902e-06
-1.15353e-07
6.56308e-06
-1.24986e-07
6.53709e-06
-1.3767e-07
6.51089e-06
-1.57461e-07
-1.84403e-07
6.49294e-06
5.64408e-06
3.83494e-09
5.68143e-06
-8.17885e-08
5.7077e-06
-2.31915e-08
5.72266e-06
3.6233e-08
5.74198e-06
2.81088e-08
5.76767e-06
-2.30441e-08
5.79554e-06
-7.50102e-08
5.81992e-06
-1.00983e-07
5.83881e-06
-1.03715e-07
5.85311e-06
-1.00119e-07
5.8632e-06
-9.99724e-08
5.86875e-06
-1.03196e-07
5.8694e-06
-1.07695e-07
5.8672e-06
-1.13152e-07
5.86536e-06
-1.23145e-07
5.86769e-06
-1.39996e-07
5.87712e-06
-1.6689e-07
-2.01674e-07
5.89439e-06
6.94192e-06
-2.16469e-07
6.98834e-06
-1.28209e-07
6.99901e-06
-3.38643e-08
7.01485e-06
2.03956e-08
7.03434e-06
8.62063e-09
7.066e-06
-5.47061e-08
7.10507e-06
-1.14081e-07
7.14406e-06
-1.39975e-07
7.17516e-06
-1.34816e-07
7.1915e-06
-1.16455e-07
7.19072e-06
-9.91909e-08
7.17664e-06
-8.91197e-08
7.15706e-06
-8.81142e-08
7.14103e-06
-9.7114e-08
7.13483e-06
-1.16946e-07
7.1418e-06
-1.4697e-07
7.1606e-06
-1.85687e-07
-2.29839e-07
7.18876e-06
8.59913e-06
-6.53515e-08
8.5244e-06
-5.34789e-08
8.51286e-06
-2.23308e-08
8.54073e-06
-7.46522e-09
8.59175e-06
-4.24007e-08
8.6284e-06
-9.13567e-08
8.62992e-06
-1.156e-07
8.6005e-06
-1.10563e-07
8.56191e-06
-9.62247e-08
8.5357e-06
-9.02418e-08
8.53384e-06
-9.73285e-08
8.55781e-06
-1.13093e-07
8.60232e-06
-1.32624e-07
8.65921e-06
-1.54003e-07
8.71947e-06
-1.77202e-07
8.77566e-06
-2.03167e-07
8.82136e-06
-2.31383e-07
-2.62939e-07
8.85446e-06
1.06813e-05
7.06664e-08
1.05523e-05
7.54974e-08
1.05144e-05
1.55315e-08
1.0548e-05
-4.10163e-08
1.05911e-05
-8.54753e-08
1.05936e-05
-9.38888e-08
1.05451e-05
-6.70776e-08
1.04756e-05
-4.11194e-08
1.04288e-05
-4.94224e-08
1.04295e-05
-9.09691e-08
1.04755e-05
-1.43309e-07
1.05461e-05
-1.83694e-07
1.0616e-05
-2.02495e-07
1.06658e-05
-2.03837e-07
1.06877e-05
-1.99081e-07
1.0684e-05
-1.99418e-07
1.06638e-05
-2.11223e-07
-2.37545e-07
1.06384e-05
1.30868e-05
2.59953e-07
1.29229e-05
2.39377e-07
1.28456e-05
9.27776e-08
1.28427e-05
-3.80613e-08
1.28379e-05
-8.06654e-08
1.28226e-05
-7.86051e-08
1.28237e-05
-6.82091e-08
1.28514e-05
-6.88221e-08
1.28901e-05
-8.81257e-08
1.29194e-05
-1.20282e-07
1.29269e-05
-1.50753e-07
1.29123e-05
-1.69132e-07
1.28848e-05
-1.74961e-07
1.28565e-05
-1.7551e-07
1.28369e-05
-1.79557e-07
1.28311e-05
-1.93575e-07
1.28383e-05
-2.18409e-07
-2.51914e-07
1.28526e-05
1.54494e-05
1.33543e-07
1.55032e-05
1.85558e-07
1.5459e-05
1.37002e-07
1.53641e-05
5.67757e-08
1.53052e-05
-2.17878e-08
1.53214e-05
-9.47666e-08
1.53918e-05
-1.38619e-07
1.54716e-05
-1.48653e-07
1.55231e-05
-1.39529e-07
1.55326e-05
-1.29871e-07
1.55129e-05
-1.3105e-07
1.54886e-05
-1.4484e-07
1.54806e-05
-1.66886e-07
1.54969e-05
-1.91854e-07
1.55318e-05
-2.14468e-07
1.55723e-05
-2.34007e-07
1.56027e-05
-2.48812e-07
-2.62225e-07
1.5613e-05
1.8838e-05
1.97224e-07
1.89643e-05
5.92243e-08
1.89857e-05
1.15603e-07
1.89184e-05
1.2412e-07
1.88527e-05
4.38691e-08
1.88262e-05
-6.82785e-08
1.884e-05
-1.52357e-07
1.88741e-05
-1.82821e-07
1.8907e-05
-1.72389e-07
1.89295e-05
-1.52333e-07
1.89441e-05
-1.45672e-07
1.89566e-05
-1.57353e-07
1.89696e-05
-1.79869e-07
1.89813e-05
-2.03549e-07
1.89875e-05
-2.20725e-07
1.89839e-05
-2.30387e-07
1.89687e-05
-2.336e-07
-2.35647e-07
1.89421e-05
2.2922e-05
1.1909e-07
2.27733e-05
2.07952e-07
2.2711e-05
1.77891e-07
2.27699e-05
6.52022e-08
2.28402e-05
-2.64144e-08
2.28636e-05
-9.17014e-08
2.28381e-05
-1.26839e-07
2.27943e-05
-1.38966e-07
2.27596e-05
-1.37695e-07
2.27423e-05
-1.35051e-07
2.27376e-05
-1.40958e-07
2.27398e-05
-1.59534e-07
2.27474e-05
-1.87489e-07
2.2763e-05
-2.19151e-07
2.27902e-05
-2.47913e-07
2.28302e-05
-2.70461e-07
2.28816e-05
-2.84953e-07
-2.91917e-07
2.29379e-05
1.66768e-05
3.12786e-07
1.66372e-05
2.47505e-07
1.6696e-05
1.19125e-07
1.67788e-05
-1.76073e-08
1.68571e-05
-1.04729e-07
1.68936e-05
-1.28151e-07
1.68801e-05
-1.13328e-07
1.68376e-05
-9.65171e-08
1.67986e-05
-9.86601e-08
1.67853e-05
-1.21813e-07
1.6801e-05
-1.56671e-07
1.68354e-05
-1.93922e-07
1.68752e-05
-2.27257e-07
1.69098e-05
-2.5378e-07
1.69334e-05
-2.71479e-07
1.69434e-05
-2.80437e-07
1.6939e-05
-2.80552e-07
-2.73722e-07
1.69208e-05
1.40931e-05
1.55475e-07
1.43459e-05
-5.31136e-09
1.44982e-05
-3.31351e-08
1.4552e-05
-7.14674e-08
1.4547e-05
-9.97132e-08
1.4514e-05
-9.51672e-08
1.44737e-05
-7.30244e-08
1.44403e-05
-6.30894e-08
1.44261e-05
-8.44545e-08
1.44395e-05
-1.35216e-07
1.44788e-05
-1.95962e-07
1.45311e-05
-2.46235e-07
1.45779e-05
-2.74042e-07
1.46022e-05
-2.78104e-07
1.45959e-05
-2.65204e-07
1.45608e-05
-2.45253e-07
1.4506e-05
-2.2576e-07
-2.12827e-07
1.44451e-05
1.27589e-05
1.4942e-07
1.27244e-05
2.91648e-08
1.2753e-05
-6.17478e-08
1.27669e-05
-8.53721e-08
1.27678e-05
-1.00613e-07
1.27949e-05
-1.22225e-07
1.2854e-05
-1.32156e-07
1.29177e-05
-1.26793e-07
1.29528e-05
-1.19505e-07
1.29404e-05
-1.22866e-07
1.28828e-05
-1.3835e-07
1.27966e-05
-1.59967e-07
1.27027e-05
-1.80176e-07
1.26186e-05
-1.94059e-07
1.25543e-05
-2.00859e-07
1.25119e-05
-2.0285e-07
1.24887e-05
-2.0261e-07
-2.02689e-07
1.24786e-05
1.13477e-05
2.0161e-07
1.11843e-05
1.92515e-07
1.11205e-05
2.06739e-09
1.11314e-05
-9.62818e-08
1.11566e-05
-1.25842e-07
1.11691e-05
-1.34681e-07
1.11696e-05
-1.32673e-07
1.11689e-05
-1.26075e-07
1.11723e-05
-1.22939e-07
1.11761e-05
-1.26622e-07
1.11728e-05
-1.35055e-07
1.11575e-05
-1.44643e-07
1.11301e-05
-1.52768e-07
1.10942e-05
-1.58196e-07
1.10541e-05
-1.60769e-07
1.10126e-05
-1.61395e-07
1.09706e-05
-1.60559e-07
-1.59737e-07
1.09276e-05
9.65735e-06
5.76405e-08
9.73991e-06
1.09953e-07
9.75347e-06
-1.14935e-08
9.76293e-06
-1.0574e-07
9.754e-06
-1.16914e-07
9.70597e-06
-8.6646e-08
9.63553e-06
-6.22376e-08
9.57274e-06
-6.32839e-08
9.5357e-06
-8.5898e-08
9.52546e-06
-1.1638e-07
9.53368e-06
-1.43272e-07
9.55067e-06
-1.61638e-07
9.56953e-06
-1.71627e-07
9.58648e-06
-1.75145e-07
9.59917e-06
-1.73462e-07
9.60593e-06
-1.68155e-07
9.6053e-06
-1.5993e-07
-1.51171e-07
9.59673e-06
8.51691e-06
-6.97085e-08
8.59582e-06
3.10415e-08
8.5647e-06
1.96314e-08
8.5096e-06
-5.06401e-08
8.47905e-06
-8.63661e-08
8.48033e-06
-8.79263e-08
8.49778e-06
-7.96893e-08
8.51021e-06
-7.57076e-08
8.50328e-06
-7.89749e-08
8.47308e-06
-8.61727e-08
8.42452e-06
-9.47153e-08
8.36815e-06
-1.05272e-07
8.31558e-06
-1.19058e-07
8.27632e-06
-1.35882e-07
8.2552e-06
-1.52345e-07
8.2519e-06
-1.64849e-07
8.26273e-06
-1.70761e-07
-1.68111e-07
8.27967e-06
7.36675e-06
-1.5452e-07
7.44417e-06
-4.63785e-08
7.39382e-06
6.99863e-08
7.34709e-06
-3.91207e-09
7.34968e-06
-8.89525e-08
7.38471e-06
-1.22964e-07
7.4217e-06
-1.16671e-07
7.44128e-06
-9.52944e-08
7.44238e-06
-8.0074e-08
7.43462e-06
-7.84141e-08
7.4269e-06
-8.69899e-08
7.42144e-06
-9.98181e-08
7.41516e-06
-1.12776e-07
7.40385e-06
-1.24575e-07
7.38561e-06
-1.34102e-07
7.36108e-06
-1.40316e-07
7.33257e-06
-1.42257e-07
-1.38736e-07
7.3032e-06
6.31583e-06
-1.11741e-07
6.33941e-06
-6.99591e-08
6.42932e-06
-1.99216e-08
6.49091e-06
-6.55065e-08
6.50288e-06
-1.00922e-07
6.49228e-06
-1.12366e-07
6.48634e-06
-1.10723e-07
6.48861e-06
-9.75678e-08
6.4876e-06
-7.90635e-08
6.47364e-06
-6.44582e-08
6.44616e-06
-5.95086e-08
6.4112e-06
-6.4859e-08
6.37633e-06
-7.7903e-08
6.34683e-06
-9.50761e-08
6.32461e-06
-1.11878e-07
6.30867e-06
-1.24376e-07
6.29631e-06
-1.29903e-07
-1.27638e-07
6.28521e-06
5.61656e-06
-7.39745e-08
5.5817e-06
-3.50989e-08
5.60104e-06
-3.92678e-08
5.60472e-06
-6.9188e-08
5.58519e-06
-8.13845e-08
5.56707e-06
-9.42462e-08
5.56903e-06
-1.12691e-07
5.58877e-06
-1.17308e-07
5.60876e-06
-9.90463e-08
5.61215e-06
-6.78493e-08
5.59354e-06
-4.09026e-08
5.55889e-06
-3.02105e-08
5.51878e-06
-3.77913e-08
5.48121e-06
-5.75001e-08
5.44941e-06
-8.00856e-08
5.42324e-06
-9.82061e-08
5.40158e-06
-1.0824e-07
-1.10262e-07
5.38421e-06
4.82415e-06
-6.38538e-08
4.86365e-06
-7.45935e-08
4.87772e-06
-5.33363e-08
4.87639e-06
-6.78591e-08
4.87201e-06
-7.70087e-08
4.85934e-06
-8.15725e-08
4.83358e-06
-8.69373e-08
4.80182e-06
-8.55454e-08
4.77704e-06
-7.42613e-08
4.76839e-06
-5.9199e-08
4.77644e-06
-4.89564e-08
4.7938e-06
-4.75709e-08
4.8093e-06
-5.32928e-08
4.8129e-06
-6.10971e-08
4.79953e-06
-6.67185e-08
4.76978e-06
-6.84542e-08
4.72865e-06
-6.71151e-08
-6.54583e-08
4.68385e-06
4.09999e-06
4.0254e-06
3.97206e-06
3.9042e-06
3.82719e-06
3.74562e-06
3.65868e-06
3.57314e-06
3.49887e-06
3.43968e-06
3.39072e-06
3.34315e-06
3.28986e-06
3.22876e-06
3.16204e-06
3.09359e-06
3.02647e-06
2.96101e-06
-6.87754e-07
6.87754e-07
-1.23235e-06
5.446e-07
-1.60317e-06
3.70819e-07
-1.80636e-06
2.03191e-07
-1.80286e-06
-3.50747e-09
-1.58458e-06
-2.18281e-07
-1.17325e-06
-4.11323e-07
-6.14379e-07
-5.58874e-07
1.45342e-08
-6.28913e-07
6.54759e-07
-6.40225e-07
1.26214e-06
-6.07385e-07
1.81728e-06
-5.55131e-07
2.31674e-06
-4.99461e-07
2.76527e-06
-4.48531e-07
3.17177e-06
-4.06506e-07
3.54553e-06
-3.73755e-07
3.8948e-06
-3.49277e-07
4.22635e-06
-3.31541e-07
4.54386e-06
-3.17514e-07
4.85022e-06
-3.06357e-07
5.14475e-06
-2.94532e-07
5.42598e-06
-2.8123e-07
5.69109e-06
-2.65115e-07
5.93271e-06
-2.41615e-07
6.14839e-06
-2.15684e-07
6.32372e-06
-1.75326e-07
6.45628e-06
-1.32562e-07
6.52885e-06
-7.25674e-08
6.53315e-06
-4.29638e-09
6.44745e-06
8.56975e-08
6.22281e-06
2.24638e-07
5.90007e-06
3.22741e-07
5.35783e-06
5.4224e-07
4.67943e-06
6.784e-07
3.78096e-06
8.98463e-07
2.50866e-06
1.2723e-06
1.47469e-06
1.03397e-06
7.18372e-07
7.56318e-07
1.10885e-07
6.07488e-07
-5.05106e-07
6.1599e-07
-1.30073e-06
7.95623e-07
-2.06144e-06
7.60712e-07
-2.47682e-06
4.1538e-07
-2.31103e-06
-1.65795e-07
-1.43983e-06
-8.71192e-07
2.40508e-07
-1.68034e-06
2.28003e-06
-2.03952e-06
3.99405e-06
-1.71402e-06
5.13349e-06
-1.13945e-06
5.63546e-06
-5.01969e-07
5.29451e-06
3.40949e-07
4.37244e-06
9.22072e-07
2.99226e-06
1.38018e-06
1.66465e-06
1.32761e-06
1.42969e-06
2.3496e-07
1.24658e-06
1.83108e-07
-1.80065e-08
1.26459e-06
-2.01973e-06
2.00172e-06
-3.61886e-06
1.59913e-06
-5.0484e-06
1.42954e-06
-6.17489e-06
1.12649e-06
-7.11138e-06
9.36482e-07
-7.83012e-06
7.1874e-07
-8.39316e-06
5.6304e-07
-8.80362e-06
4.10466e-07
-9.09938e-06
2.95757e-07
-9.29692e-06
1.97545e-07
-9.42434e-06
1.27419e-07
-9.50227e-06
7.79277e-08
-9.55146e-06
4.9189e-08
-9.58828e-06
3.68175e-08
-9.62343e-06
3.51501e-08
-9.66327e-06
3.98467e-08
-9.70858e-06
4.5304e-08
-9.75906e-06
5.04845e-08
-9.81293e-06
5.38697e-08
-9.86752e-06
5.4592e-08
-9.91873e-06
5.12096e-08
-9.96189e-06
4.31585e-08
-9.9912e-06
2.93118e-08
-1.00013e-05
1.00756e-08
-9.98683e-06
-1.44466e-08
-9.9435e-06
-4.33366e-08
-9.86691e-06
-7.65835e-08
-9.75374e-06
-1.13177e-07
-9.60193e-06
-1.51811e-07
-9.41092e-06
-1.91003e-07
-9.18175e-06
-2.29172e-07
-8.91693e-06
-2.64825e-07
-8.62021e-06
-2.96713e-07
-8.2963e-06
-3.23917e-07
-7.95039e-06
-3.4591e-07
-7.5878e-06
-3.62589e-07
-7.21354e-06
-3.7426e-07
-6.83201e-06
-3.81529e-07
-6.44682e-06
-3.85185e-07
-6.06077e-06
-3.86055e-07
-5.67586e-06
-3.84906e-07
-5.29345e-06
-3.82414e-07
-4.91431e-06
-3.79141e-07
-4.53872e-06
-3.75583e-07
-4.16667e-06
-3.72059e-07
-3.79817e-06
-3.68497e-07
-3.43345e-06
-3.64718e-07
-3.07297e-06
-3.60479e-07
-2.71759e-06
-3.5538e-07
-2.36846e-06
-3.49126e-07
-2.02701e-06
-3.41452e-07
-1.69481e-06
-3.32205e-07
-1.37356e-06
-3.21252e-07
-1.06498e-06
-3.08577e-07
-7.70797e-07
-2.94181e-07
-4.92411e-07
-2.78386e-07
-2.3059e-07
-2.6182e-07
1.37397e-08
-2.4433e-07
2.44325e-07
-2.30585e-07
4.59301e-07
-2.14977e-07
6.60931e-07
-2.01629e-07
8.51809e-07
-1.90879e-07
1.03519e-06
-1.83377e-07
1.21483e-06
-1.79648e-07
1.39485e-06
-1.80017e-07
1.57939e-06
-1.84535e-07
1.7723e-06
-1.92918e-07
1.97677e-06
-2.04465e-07
2.19468e-06
-2.17913e-07
2.42631e-06
-2.31624e-07
2.67e-06
-2.43699e-07
2.92224e-06
-2.52239e-07
3.17794e-06
-2.55697e-07
3.43111e-06
-2.53166e-07
3.67567e-06
-2.44563e-07
3.90628e-06
-2.3061e-07
4.11869e-06
-2.12407e-07
4.3093e-06
-1.90608e-07
4.47459e-06
-1.65295e-07
4.61217e-06
-1.37577e-07
4.72296e-06
-1.10788e-07
4.81062e-06
-8.76639e-08
4.87705e-06
-6.64345e-08
4.92132e-06
-4.42669e-08
4.94455e-06
-2.32301e-08
4.95139e-06
-6.83764e-09
4.9446e-06
6.78475e-09
4.91666e-06
2.79442e-08
4.84812e-06
6.85369e-08
4.72273e-06
1.25389e-07
4.54709e-06
1.7564e-07
4.34864e-06
1.98453e-07
4.15263e-06
1.96013e-07
3.96815e-06
1.84478e-07
3.79573e-06
1.72425e-07
3.63929e-06
1.56432e-07
3.50963e-06
1.29663e-07
3.41619e-06
9.34414e-08
3.35738e-06
5.88046e-08
3.32117e-06
3.62122e-08
3.2931e-06
2.80753e-08
3.26068e-06
3.24144e-08
3.21408e-06
4.66039e-08
3.14398e-06
7.00994e-08
3.04457e-06
9.94138e-08
2.91932e-06
1.25242e-07
2.78404e-06
1.35284e-07
2.658e-06
1.2604e-07
2.55445e-06
1.03549e-07
2.4755e-06
7.89458e-08
2.41558e-06
5.99273e-08
2.36664e-06
4.89342e-08
2.32333e-06
4.33176e-08
2.28181e-06
4.1517e-08
2.24196e-06
3.98506e-08
2.20008e-06
4.18785e-08
2.15802e-06
4.20647e-08
2.10566e-06
5.23503e-08
2.0502e-06
5.5464e-08
1.96559e-06
8.46083e-08
1.87915e-06
8.64399e-08
1.71616e-06
1.62996e-07
1.47564e-07
1.56859e-06
-1.0819e-07
7.95944e-07
-2.30059e-07
6.6647e-07
-2.24812e-07
3.65571e-07
-1.44566e-07
1.22945e-07
1.12067e-08
-1.5928e-07
3.04626e-07
-5.117e-07
7.07295e-07
-8.13992e-07
1.15202e-06
-1.0036e-06
1.57469e-06
-1.05159e-06
1.94651e-06
-1.01204e-06
2.26361e-06
-9.24485e-07
2.53457e-06
-8.26091e-07
2.77397e-06
-7.38856e-07
2.99649e-06
-6.71056e-07
3.21328e-06
-6.23298e-07
3.43201e-06
-5.92476e-07
3.65728e-06
-5.7455e-07
3.89132e-06
-5.65583e-07
4.13511e-06
-5.613e-07
4.38745e-06
-5.58704e-07
4.64637e-06
-5.53445e-07
4.90863e-06
-5.43492e-07
5.16912e-06
-5.2561e-07
5.42361e-06
-4.96107e-07
5.66419e-06
-4.56264e-07
5.88585e-06
-3.96979e-07
6.07894e-06
-3.2566e-07
6.2375e-06
-2.31127e-07
6.35043e-06
-1.17221e-07
6.42294e-06
1.31835e-08
6.45552e-06
1.92062e-07
6.41138e-06
3.6688e-07
6.33095e-06
6.22671e-07
6.13373e-06
8.75617e-07
5.85035e-06
1.18185e-06
5.57026e-06
1.55239e-06
4.79099e-06
1.81325e-06
3.54453e-06
2.00277e-06
2.38095e-06
1.77107e-06
1.47512e-06
1.52183e-06
7.90502e-07
1.48024e-06
2.72063e-07
1.27915e-06
-8.38436e-08
7.71287e-07
-2.25815e-07
-2.38235e-08
3.56936e-08
-1.1327e-06
8.1921e-07
-2.46386e-06
2.06956e-06
-3.28987e-06
3.313e-06
-2.95746e-06
4.06713e-06
-1.89358e-06
4.27819e-06
-7.13035e-07
4.02734e-06
5.918e-07
3.18936e-06
1.76006e-06
2.27792e-06
2.29162e-06
1.91487e-06
1.69066e-06
5.32206e-07
1.61763e-06
-2.20149e-06
2.9168e-06
-4.18279e-06
3.2459e-06
-5.25257e-06
3.0715e-06
-6.2419e-06
2.58846e-06
-7.00737e-06
2.19501e-06
-7.63916e-06
1.75829e-06
-8.12812e-06
1.42544e-06
-8.51888e-06
1.1095e-06
-8.81643e-06
8.60584e-07
-9.03927e-06
6.33313e-07
-9.19609e-06
4.52577e-07
-9.30137e-06
3.02819e-07
-9.37039e-06
1.9644e-07
-9.41473e-06
1.22266e-07
-9.44903e-06
8.34984e-08
-9.48346e-06
7.12428e-08
-9.52419e-06
7.58802e-08
-9.57185e-06
8.75111e-08
-9.6261e-06
9.95531e-08
-9.68383e-06
1.08215e-07
-9.7432e-06
1.13236e-07
-9.80096e-06
1.12352e-07
-9.8533e-06
1.0355e-07
-9.8951e-06
8.49545e-08
-9.92185e-06
5.60644e-08
-9.92828e-06
1.65072e-08
-9.9109e-06
-3.18302e-08
-9.86296e-06
-9.12758e-08
-9.78005e-06
-1.59494e-07
-9.65895e-06
-2.34269e-07
-9.49777e-06
-3.12993e-07
-9.29611e-06
-3.92661e-07
-9.05525e-06
-4.70034e-07
-8.77802e-06
-5.42055e-07
-8.46854e-06
-6.06191e-07
-8.13185e-06
-6.60613e-07
-7.77345e-06
-7.04312e-07
-7.39887e-06
-7.37164e-07
-7.01327e-06
-7.59861e-07
-6.62113e-06
-7.73666e-07
-6.22614e-06
-7.80179e-07
-5.83109e-06
-7.81107e-07
-5.43792e-06
-7.78072e-07
-5.04784e-06
-7.72499e-07
-4.66152e-06
-7.65453e-07
-4.27924e-06
-7.57872e-07
-3.90085e-06
-7.50439e-07
-3.52634e-06
-7.43013e-07
-3.15587e-06
-7.35191e-07
-2.78977e-06
-7.26575e-07
-2.42881e-06
-7.16342e-07
-2.074e-06
-7.03937e-07
-1.72666e-06
-6.88795e-07
-1.38824e-06
-6.70621e-07
-1.06022e-06
-6.49271e-07
-7.44441e-07
-6.24357e-07
-4.42568e-07
-5.96054e-07
-1.5649e-07
-5.64464e-07
1.13834e-07
-5.32145e-07
3.68979e-07
-4.99474e-07
6.06173e-07
-4.67779e-07
8.28151e-07
-4.36955e-07
1.03619e-06
-4.0967e-07
1.23284e-06
-3.87524e-07
1.42133e-06
-3.71871e-07
1.60554e-06
-3.63857e-07
1.78976e-06
-3.64235e-07
1.97843e-06
-3.73207e-07
2.17577e-06
-3.90259e-07
2.38527e-06
-4.13966e-07
2.60923e-06
-4.41868e-07
2.84817e-06
-4.70571e-07
3.10052e-06
-4.9605e-07
3.36251e-06
-5.14228e-07
3.62854e-06
-5.21722e-07
3.89188e-06
-5.16503e-07
4.14555e-06
-4.98235e-07
4.38303e-06
-4.68094e-07
4.59879e-06
-4.28164e-07
4.78919e-06
-3.81014e-07
4.95373e-06
-3.29829e-07
5.0942e-06
-2.78043e-07
5.2113e-06
-2.27891e-07
5.3038e-06
-1.80167e-07
5.37369e-06
-1.36325e-07
5.42985e-06
-1.00427e-07
5.48205e-06
-7.54243e-08
5.53346e-06
-5.82487e-08
5.57943e-06
-3.91929e-08
5.61381e-06
-6.43467e-09
5.6381e-06
4.42476e-08
5.66177e-06
1.01722e-07
5.69452e-06
1.42885e-07
5.7385e-06
1.54473e-07
5.78084e-06
1.53675e-07
5.79302e-06
1.72305e-07
5.74878e-06
2.16664e-07
5.6506e-06
2.54611e-07
5.5284e-06
2.51855e-07
5.41669e-06
2.05159e-07
5.33216e-06
1.43333e-07
5.26679e-06
1.01578e-07
5.1967e-06
9.81713e-08
5.10493e-06
1.24183e-07
4.99204e-06
1.59493e-07
4.87362e-06
1.88519e-07
4.7658e-06
2.07237e-07
4.67604e-06
2.14998e-07
4.60421e-06
2.07118e-07
4.54739e-06
1.82855e-07
4.50368e-06
1.47263e-07
4.47083e-06
1.11797e-07
4.44622e-06
8.45303e-08
4.42668e-06
6.84741e-08
4.40985e-06
6.01492e-08
4.39264e-06
5.87334e-08
4.37333e-06
5.91539e-08
4.34727e-06
6.79441e-08
4.31333e-06
7.60008e-08
4.26541e-06
1.00271e-07
4.20766e-06
1.13215e-07
4.13079e-06
1.61479e-07
4.04454e-06
1.72686e-07
3.93169e-06
2.7585e-07
2.86632e-07
3.79262e-06
2.96232e-07
4.99712e-07
4.84128e-07
4.78574e-07
6.58113e-07
1.91586e-07
9.14353e-07
-1.33295e-07
1.2374e-06
-4.82328e-07
1.54145e-06
-8.15752e-07
1.75758e-06
-1.03012e-06
1.84483e-06
-1.09084e-06
1.81765e-06
-1.02441e-06
1.71229e-06
-9.06686e-07
1.59242e-06
-8.04616e-07
1.50855e-06
-7.42222e-07
1.48011e-06
-7.1041e-07
1.50978e-06
-7.00734e-07
1.59401e-06
-7.07529e-07
1.72626e-06
-7.24721e-07
1.89968e-06
-7.47972e-07
2.108e-06
-7.73903e-07
2.34553e-06
-7.98827e-07
2.60656e-06
-8.1974e-07
2.886e-06
-8.32878e-07
3.17857e-06
-8.36069e-07
3.47799e-06
-8.25031e-07
3.77918e-06
-7.97293e-07
4.07373e-06
-7.50815e-07
4.35569e-06
-6.78937e-07
4.61594e-06
-5.85909e-07
4.84716e-06
-4.62346e-07
5.0431e-06
-3.13166e-07
5.19602e-06
-1.39734e-07
5.32204e-06
6.60399e-08
5.41471e-06
2.74209e-07
5.50695e-06
5.30431e-07
5.58935e-06
7.93222e-07
5.67303e-06
1.09817e-06
5.76079e-06
1.46463e-06
5.74566e-06
1.82838e-06
5.54989e-06
2.19854e-06
4.90974e-06
2.41121e-06
4.03787e-06
2.3937e-06
3.3242e-06
2.19391e-06
2.85453e-06
1.74882e-06
2.52574e-06
1.10009e-06
2.25186e-06
2.50052e-07
2.10817e-06
-9.89011e-07
2.21175e-06
-2.56743e-06
2.52145e-06
-3.59957e-06
2.86396e-06
-3.29997e-06
2.99188e-06
-2.02149e-06
2.78363e-06
-5.04791e-07
2.35266e-06
1.02278e-06
1.88198e-06
2.23074e-06
1.43903e-06
2.73457e-06
-9.63289e-08
3.22601e-06
-2.76065e-06
4.28195e-06
-4.51097e-06
4.66712e-06
-5.45327e-06
4.18819e-06
-6.03008e-06
3.64831e-06
-6.49924e-06
3.05762e-06
-6.87499e-06
2.57075e-06
-7.24462e-06
2.12791e-06
-7.58218e-06
1.763e-06
-7.89823e-06
1.42556e-06
-8.16348e-06
1.12584e-06
-8.37216e-06
8.41988e-07
-8.5138e-06
5.94214e-07
-8.59637e-06
3.85392e-07
-8.63489e-06
2.34958e-07
-8.65436e-06
1.41736e-07
-8.67652e-06
1.05663e-07
-8.7162e-06
1.10916e-07
-8.77966e-06
1.39342e-07
-8.86249e-06
1.70343e-07
-8.95387e-06
1.90933e-07
-9.04751e-06
2.01852e-07
-9.13957e-06
2.05303e-07
-9.22708e-06
1.99862e-07
-9.3063e-06
1.82766e-07
-9.37198e-06
1.50636e-07
-9.41924e-06
1.03328e-07
-9.44316e-06
4.04207e-08
-9.43819e-06
-3.67974e-08
-9.39909e-06
-1.30376e-07
-9.32119e-06
-2.37396e-07
-9.20108e-06
-3.54381e-07
-9.03685e-06
-4.77225e-07
-8.82834e-06
-6.01163e-07
-8.57742e-06
-7.20961e-07
-8.28775e-06
-8.31718e-07
-7.96447e-06
-9.29475e-07
-7.61357e-06
-1.01151e-06
-7.24144e-06
-1.07644e-06
-6.85434e-06
-1.12427e-06
-6.45791e-06
-1.15629e-06
-6.05699e-06
-1.17459e-06
-5.65546e-06
-1.1817e-06
-5.25626e-06
-1.18031e-06
-4.86145e-06
-1.17288e-06
-4.47237e-06
-1.16158e-06
-4.08984e-06
-1.14798e-06
-3.7142e-06
-1.13351e-06
-3.34531e-06
-1.11933e-06
-2.98321e-06
-1.10512e-06
-2.628e-06
-1.0904e-06
-2.27974e-06
-1.07484e-06
-1.93866e-06
-1.05742e-06
-1.60524e-06
-1.03735e-06
-1.28019e-06
-1.01385e-06
-9.64286e-07
-9.86521e-07
-6.5803e-07
-9.55526e-07
-3.63263e-07
-9.19125e-07
-8.07397e-08
-8.78577e-07
1.89845e-07
-8.35048e-07
4.4653e-07
-7.8883e-07
6.88243e-07
-7.41188e-07
9.14603e-07
-6.94138e-07
1.1269e-06
-6.4925e-07
1.32632e-06
-6.09092e-07
1.51494e-06
-5.76142e-07
1.69569e-06
-5.52627e-07
1.87233e-06
-5.40489e-07
2.0492e-06
-5.41113e-07
2.23105e-06
-5.55049e-07
2.42249e-06
-5.81708e-07
2.62761e-06
-6.19076e-07
2.84926e-06
-6.63523e-07
3.08857e-06
-7.09882e-07
3.34445e-06
-7.5193e-07
3.61352e-06
-7.83296e-07
3.89042e-06
-7.98624e-07
4.16843e-06
-7.94508e-07
4.44001e-06
-7.6982e-07
4.69713e-06
-7.25214e-07
4.931e-06
-6.62031e-07
5.13182e-06
-5.81841e-07
5.29033e-06
-4.8833e-07
5.40199e-06
-3.89703e-07
5.47022e-06
-2.96127e-07
5.5035e-06
-2.13448e-07
5.51035e-06
-1.43172e-07
5.49958e-06
-8.96601e-08
5.48587e-06
-6.17097e-08
5.4898e-06
-6.21823e-08
5.52424e-06
-7.36291e-08
5.57969e-06
-6.18843e-08
5.62891e-06
-4.97826e-09
5.65517e-06
7.54639e-08
5.66744e-06
1.30618e-07
5.69669e-06
1.25218e-07
5.76772e-06
8.26509e-08
5.87147e-06
6.85566e-08
5.96306e-06
1.25068e-07
5.98953e-06
2.28147e-07
5.93266e-06
3.08723e-07
5.82196e-06
3.15856e-07
5.70952e-06
2.55777e-07
5.63224e-06
1.7886e-07
5.59054e-06
1.39869e-07
5.55377e-06
1.6095e-07
5.48917e-06
2.24089e-07
5.38689e-06
2.90804e-07
5.26239e-06
3.31737e-07
5.14061e-06
3.36781e-07
5.03912e-06
3.08603e-07
4.96452e-06
2.57455e-07
4.91508e-06
1.96704e-07
4.88497e-06
1.41908e-07
4.86746e-06
1.02044e-07
4.85649e-06
7.94354e-08
4.84817e-06
6.84774e-08
4.84067e-06
6.62252e-08
4.83395e-06
6.58774e-08
4.828e-06
7.38959e-08
4.82126e-06
8.27384e-08
4.81103e-06
1.10504e-07
4.79059e-06
1.3365e-07
4.76036e-06
1.91709e-07
4.70877e-06
2.24277e-07
4.65615e-06
3.28473e-07
3.74885e-07
4.5679e-06
2.36646e-07
2.63066e-07
5.07751e-07
2.07469e-07
7.99727e-07
-1.00389e-07
1.09441e-06
-4.27976e-07
1.30607e-06
-6.93989e-07
1.32725e-06
-8.36935e-07
1.07868e-06
-7.81544e-07
6.662e-07
-6.78367e-07
2.74095e-07
-6.32303e-07
-3.99081e-09
-6.28601e-07
-1.56396e-07
-6.52212e-07
-2.10663e-07
-6.87954e-07
-1.91124e-07
-7.2995e-07
-1.16196e-07
-7.75662e-07
1.40182e-09
-8.25126e-07
1.55417e-07
-8.78736e-07
3.42237e-07
-9.34792e-07
5.59436e-07
-9.91103e-07
8.05288e-07
-1.04468e-06
1.07789e-06
-1.09234e-06
1.37496e-06
-1.12995e-06
1.69324e-06
-1.15435e-06
2.02822e-06
-1.16001e-06
2.37573e-06
-1.1448e-06
2.72802e-06
-1.10311e-06
3.07817e-06
-1.02909e-06
3.41417e-06
-9.21905e-07
3.72706e-06
-7.75236e-07
4.00812e-06
-5.94224e-07
4.24957e-06
-3.8119e-07
4.45116e-06
-1.35552e-07
4.60103e-06
1.24345e-07
4.72787e-06
4.03587e-07
4.84418e-06
6.76913e-07
4.98925e-06
9.531e-07
5.18757e-06
1.2663e-06
5.43833e-06
1.57763e-06
5.71378e-06
1.92308e-06
5.85534e-06
2.26965e-06
5.75803e-06
2.49101e-06
5.45263e-06
2.49931e-06
4.99506e-06
2.20638e-06
4.50546e-06
1.58969e-06
4.0485e-06
7.07014e-07
3.53612e-06
-4.76634e-07
3.10723e-06
-2.13854e-06
2.79976e-06
-3.2921e-06
2.54374e-06
-3.04396e-06
2.25078e-06
-1.72853e-06
1.75384e-06
-7.84986e-09
1.12532e-06
1.6513e-06
2.68831e-07
3.08723e-06
-1.32593e-06
4.32933e-06
-3.43163e-06
5.33171e-06
-4.848e-06
5.69833e-06
-5.36724e-06
5.18636e-06
-5.65848e-06
4.47943e-06
-5.88676e-06
3.87659e-06
-6.1349e-06
3.30576e-06
-6.42673e-06
2.86259e-06
-6.76836e-06
2.46954e-06
-7.12583e-06
2.12047e-06
-7.4725e-06
1.77222e-06
-7.76198e-06
1.41532e-06
-7.96812e-06
1.04813e-06
-8.07664e-06
7.0273e-07
-8.09976e-06
4.08515e-07
-8.05685e-06
1.9205e-07
-7.97957e-06
6.44527e-08
-7.90262e-06
2.87128e-08
-7.86278e-06
7.10795e-08
-7.87896e-06
1.55523e-07
-7.94726e-06
2.38641e-07
-8.04872e-06
2.92396e-07
-8.16407e-06
3.17194e-07
-8.28416e-06
3.25402e-07
-8.40474e-06
3.20437e-07
-8.51769e-06
2.95711e-07
-8.61363e-06
2.46576e-07
-8.68643e-06
1.76132e-07
-8.73156e-06
8.55545e-08
-8.74249e-06
-2.58724e-08
-8.7126e-06
-1.60268e-07
-8.63714e-06
-3.12855e-07
-8.5125e-06
-4.7902e-07
-8.33671e-06
-6.53016e-07
-8.10978e-06
-8.28092e-07
-7.83426e-06
-9.96481e-07
-7.51516e-06
-1.15081e-06
-7.15924e-06
-1.2854e-06
-6.7742e-06
-1.39655e-06
-6.36805e-06
-1.48259e-06
-5.94846e-06
-1.54385e-06
-5.52223e-06
-1.58251e-06
-5.09501e-06
-1.60181e-06
-4.67132e-06
-1.6054e-06
-4.2545e-06
-1.59713e-06
-3.84704e-06
-1.58034e-06
-3.45085e-06
-1.55777e-06
-3.06723e-06
-1.5316e-06
-2.69681e-06
-1.50393e-06
-2.33958e-06
-1.47656e-06
-1.99601e-06
-1.44869e-06
-1.66588e-06
-1.42053e-06
-1.3489e-06
-1.39181e-06
-1.04446e-06
-1.36186e-06
-7.52076e-07
-1.32974e-06
-4.71054e-07
-1.29488e-06
-2.01472e-07
-1.2561e-06
5.64794e-08
-1.21348e-06
3.05e-07
-1.16765e-06
5.42891e-07
-1.11647e-06
7.69242e-07
-1.0614e-06
9.83456e-07
-1.00304e-06
1.18544e-06
-9.43176e-07
1.37542e-06
-8.84113e-07
1.55452e-06
-8.28356e-07
1.7243e-06
-7.78867e-07
1.88687e-06
-7.38709e-07
2.04501e-06
-7.10772e-07
2.20211e-06