/*--------------------------------*- C++ -*----------------------------------*\
  =========                 |
  \\      /  F ield         | OpenFOAM: The Open Source CFD Toolbox
   \\    /   O peration     | Website:  https://openfoam.org
    \\  /    A nd           | Version:  9
     \\/     M anipulation  |
\*---------------------------------------------------------------------------*/
FoamFile
{
    format      ascii;
    class       volScalarField;
    location    "0.047";
    object      pMean;
}
// * * * * * * * * * * * * * * * * * * * * * * * * * * * * * * * * * * * * * //

dimensions      [0 2 -2 0 0 0 0];

internalField   nonuniform List<scalar> 
12225
(
-1.76664
-2.35587
-2.67429
-2.80227
-2.86516
-2.91755
-2.96881
-3.01445
-3.04911
-3.0721
-3.08239
-3.08416
-3.07688
-3.07611
-3.08802
-3.18164
-3.39667
-4.03121
-2.01741
-2.38714
-2.67629
-2.8124
-2.87675
-2.92755
-2.97801
-3.02376
-3.05941
-3.08355
-3.09667
-3.10087
-3.10068
-3.10354
-3.13206
-3.21742
-3.44698
-3.91938
-2.06482
-2.39116
-2.66836
-2.8144
-2.88431
-2.93535
-2.9854
-3.03198
-3.06907
-3.096
-3.11257
-3.12422
-3.13274
-3.15272
-3.19748
-3.30815
-3.52848
-3.925
-2.19204
-2.44308
-2.68197
-2.82687
-2.9005
-2.95063
-2.99892
-3.04522
-3.08432
-3.11392
-3.13563
-3.15318
-3.17298
-3.20574
-3.26864
-3.38916
-3.59954
-3.92145
-2.28558
-2.47753
-2.68298
-2.828
-2.90989
-2.96287
-3.01043
-3.05655
-3.09727
-3.13075
-3.15775
-3.18268
-3.21203
-3.25623
-3.33047
-3.45382
-3.64492
-3.90705
-2.4211
-2.5361
-2.70337
-2.84157
-2.92732
-2.98211
-3.02893
-3.07462
-3.11664
-3.15294
-3.18471
-3.21615
-3.25388
-3.30718
-3.38771
-3.5081
-3.67803
-3.89659
-2.50424
-2.58454
-2.71918
-2.84871
-2.93911
-2.99822
-3.04535
-3.09083
-3.13485
-3.17508
-3.21209
-3.24988
-3.29464
-3.35419
-3.43737
-3.55209
-3.70314
-3.88841
-2.58361
-2.64217
-2.75162
-2.86719
-2.95726
-3.01958
-3.06795
-3.11301
-3.15761
-3.20071
-3.24241
-3.28579
-3.3362
-3.39987
-3.48298
-3.59047
-3.72455
-3.88253
-2.65844
-2.70147
-2.78408
-2.88539
-2.97357
-3.03894
-3.08957
-3.13586
-3.18216
-3.22825
-3.27405
-3.32201
-3.37651
-3.44236
-3.52402
-3.62427
-3.74361
-3.87885
-2.71585
-2.74825
-2.81927
-2.90929
-2.99457
-3.06196
-3.11463
-3.1618
-3.20914
-3.25753
-3.30709
-3.35924
-3.41702
-3.48405
-3.56338
-3.65643
-3.76283
-3.87948
-2.79534
-2.81181
-2.86575
-2.94228
-3.02018
-3.08625
-3.14051
-3.19003
-3.23964
-3.29056
-3.3427
-3.3974
-3.4571
-3.52428
-3.60073
-3.68711
-3.78245
-3.88429
-2.83982
-2.84433
-2.89256
-2.96716
-3.04339
-3.1095
-3.16575
-3.21708
-3.26812
-3.32074
-3.3755
-3.43279
-3.49403
-3.56102
-3.63485
-3.71573
-3.80245
-3.89316
-2.91137
-2.90432
-2.94106
-3.0053
-3.07452
-3.13776
-3.19465
-3.24843
-3.30173
-3.35607
-3.41219
-3.47085
-3.53291
-3.59932
-3.6706
-3.74664
-3.82626
-3.90793
-2.86517
-2.9242
-2.98256
-3.04189
-3.10342
-3.16532
-3.22498
-3.28167
-3.33706
-3.39327
-3.45142
-3.5119
-3.57498
-3.64104
-3.71016
-3.78205
-3.85574
-3.92984
-2.94433
-2.99796
-3.04785
-3.09517
-3.1494
-3.20883
-3.26869
-3.32689
-3.38423
-3.44239
-3.50231
-3.56418
-3.62793
-3.69351
-3.76083
-3.82946
-3.89884
-3.96804
-3.02539
-3.05251
-3.08762
-3.13343
-3.18978
-3.25127
-3.31273
-3.37285
-3.43271
-3.49349
-3.55569
-3.6193
-3.68417
-3.75013
-3.81696
-3.88415
-3.95119
-4.0173
-3.15886
-3.14481
-3.15891
-3.19867
-3.25262
-3.31088
-3.36988
-3.42972
-3.49112
-3.5543
-3.61899
-3.68479
-3.75144
-3.81875
-3.88648
-3.9543
-4.02201
-4.0893
-3.23646
-3.21393
-3.22027
-3.2555
-3.30671
-3.36569
-3.42808
-3.49173
-3.55648
-3.62274
-3.69055
-3.75951
-3.82926
-3.89961
-3.97041
-4.04154
-4.11279
-4.18411
-3.1229
-3.18081
-3.23894
-3.29547
-3.35518
-3.41826
-3.48441
-3.553
-3.62313
-3.69442
-3.76692
-3.84055
-3.91511
-3.99045
-4.06645
-4.14293
-4.21975
-4.29684
-3.23986
-3.25635
-3.28809
-3.3366
-3.396
-3.46164
-3.53104
-3.60259
-3.67558
-3.75023
-3.82676
-3.90482
-3.98403
-4.06413
-4.14507
-4.22684
-4.30948
-4.39293
-3.28142
-3.26102
-3.28047
-3.33754
-3.40987
-3.48348
-3.55639
-3.63049
-3.70666
-3.78495
-3.86516
-3.94693
-4.02981
-4.11356
-4.19811
-4.2835
-4.36963
-4.45649
-3.22148
-3.23311
-3.27494
-3.33983
-3.41473
-3.4921
-3.5697
-3.64743
-3.72637
-3.80732
-3.89024
-3.97469
-4.06024
-4.1467
-4.23409
-4.3224
-4.41158
-4.50151
-3.10081
-3.18222
-3.26443
-3.34181
-3.41902
-3.49762
-3.57742
-3.65843
-3.74071
-3.82453
-3.90991
-3.99661
-4.08434
-4.17299
-4.26247
-4.35278
-4.44393
-4.53593
-3.0687
-3.1389
-3.23118
-3.32504
-3.41291
-3.4954
-3.5764
-3.65893
-3.74378
-3.83041
-3.91813
-4.00661
-4.09592
-4.18611
-4.27723
-4.36922
-4.46197
-4.55526
-3.07719
-3.12828
-3.22097
-3.32494
-3.4193
-3.50302
-3.58368
-3.66666
-3.75281
-3.84081
-3.9296
-4.01903
-4.10927
-4.20042
-4.29249
-4.38543
-4.47913
-4.57357
-2.98541
-3.07102
-3.19062
-3.30874
-3.40786
-3.49269
-3.57474
-3.66005
-3.74868
-3.83871
-3.92904
-4.01962
-4.11088
-4.20312
-4.29632
-4.39031
-4.48502
-4.5803
-2.92392
-3.05226
-3.19676
-3.31823
-3.41241
-3.49418
-3.57653
-3.66324
-3.7528
-3.84321
-3.93369
-4.0245
-4.11617
-4.20889
-4.30257
-4.39702
-4.49212
-4.58771
-2.85697
-3.00087
-3.173
-3.30637
-3.40118
-3.48341
-3.56827
-3.65738
-3.7483
-3.83941
-3.93043
-4.02178
-4.11397
-4.20715
-4.30127
-4.39611
-4.49166
-4.58809
-2.84821
-3.005
-3.18229
-3.30999
-3.40062
-3.4829
-3.56882
-3.65838
-3.74936
-3.84055
-3.9318
-4.02342
-4.11594
-4.20946
-4.3039
-4.39885
-4.49439
-4.59019
-2.62152
-2.97032
-3.18627
-3.30481
-3.39212
-3.47655
-3.56442
-3.65473
-3.7459
-3.83718
-3.92852
-4.0203
-4.11305
-4.20679
-4.30148
-4.39652
-4.49198
-4.58701
-5.79786
-6.03123
-6.27775
-6.4151
-6.2962
-5.92266
-5.44688
-5.10464
-5.07855
-5.43188
-6.13815
-7.10283
-8.1941
-9.28607
-10.2785
-11.1003
-11.7082
-12.0828
-12.2282
-12.1659
-11.9333
-11.5759
-11.1522
-10.7128
-10.3346
-10.0643
-9.97391
-10.046
-10.1786
-10.3288
-10.5489
-10.9369
-11.5273
-12.2153
-12.8565
-13.3855
-13.7873
-14.3134
-15.2396
-16.4954
-17.6938
-18.6244
-19.2569
-19.7758
-20.4435
-21.2325
-22.0443
-22.8448
-23.4099
-23.84
-24.6595
-25.7918
-27.1583
-28.7064
-30.3227
-31.8722
-33.2281
-34.7103
-36.4255
-38.2284
-39.9422
-41.4823
-42.78
-43.8007
-44.5192
-44.9241
-45.0084
-44.7719
-44.2182
-43.3571
-42.2038
-40.7798
-39.1117
-37.2306
-35.17
-32.9647
-30.6489
-28.2549
-25.8111
-23.3411
-20.8631
-18.3894
-15.9269
-13.4785
-11.0443
-8.62304
-6.21397
-3.81799
-1.43916
0.913639
3.22501
5.47286
7.63011
9.66743
11.5567
13.275
14.8078
16.1497
17.3042
18.2817
19.0974
19.769
20.3137
20.748
21.0864
21.3417
21.5243
21.6435
21.7072
21.7228
21.6971
21.6364
21.5466
21.4331
21.3006
21.1535
20.9957
20.8303
20.6599
20.4868
20.3128
20.1394
19.9677
19.7985
19.6326
19.4703
19.3121
19.1584
19.0098
18.8667
18.7301
18.6006
18.4791
18.3663
18.2628
18.169
18.0848
18.0103
17.9451
17.8886
17.84
17.7988
17.7638
17.7343
17.7091
17.6874
17.6682
17.6512
17.6364
17.6237
17.6129
17.604
17.597
17.5919
17.5883
17.5854
17.5821
17.5777
17.5721
17.5653
17.5577
17.5498
17.5427
17.5376
17.5354
17.5365
17.5407
17.5477
17.5573
17.5703
17.5871
17.6095
17.6384
17.6773
17.7275
17.7959
17.8857
18.009
18.1764
18.3899
-6.85569
-7.08094
-7.26357
-7.41049
-7.2849
-6.96918
-6.6418
-6.50711
-6.69238
-7.21575
-8.0213
-9.00612
-10.0539
-11.0627
-11.9556
-12.6803
-13.2076
-13.528
-13.6452
-13.5724
-13.3328
-12.969
-12.5344
-12.0898
-11.6893
-11.407
-11.2319
-11.2089
-11.2655
-11.4711
-12.0193
-12.7974
-13.7008
-14.5994
-15.3549
-15.978
-16.5012
-17.0821
-17.9093
-18.9829
-20.0165
-20.8005
-21.2927
-21.5949
-22.0394
-22.5278
-23.3554
-24.6491
-25.4742
-26.0485
-26.8914
-27.9556
-29.2226
-30.6066
-32.0194
-33.5793
-35.0589
-36.5546
-38.2087
-39.8648
-41.4255
-42.8093
-43.9663
-44.8628
-45.4758
-45.7895
-45.7941
-45.4867
-44.8695
-43.9512
-42.7461
-41.2745
-39.5617
-37.6382
-35.5376
-33.2954
-30.9471
-28.5258
-26.0608
-23.5763
-21.0904
-18.6151
-16.1563
-13.7154
-11.2907
-8.87881
-6.47704
-4.08465
-1.7048
0.653665
2.97575
5.23936
7.41621
9.47505
11.3854
13.1223
14.6698
16.0223
17.184
18.1661
18.9855
19.6606
20.2094
20.6485
20.9924
21.2535
21.4422
21.5674
21.6367
21.6577
21.6369
21.5808
21.4951
21.3852
21.2562
21.1122
20.9572
20.7943
20.6262
20.4553
20.2833
20.1118
19.9418
19.7744
19.6101
19.4493
19.2927
19.1404
18.9931
18.8513
18.7158
18.5873
18.4667
18.3547
18.252
18.1588
18.0753
18.0014
17.9368
17.8808
17.8327
17.7919
17.7574
17.7283
17.7038
17.6828
17.6645
17.6484
17.6344
17.6225
17.6124
17.604
17.5972
17.592
17.5883
17.5853
17.582
17.5777
17.572
17.5651
17.5574
17.5496
17.5426
17.5376
17.5355
17.5365
17.5405
17.5472
17.5564
17.5688
17.5849
17.6063
17.6342
17.6709
17.7193
17.7825
17.8683
17.9759
18.1265
18.2686
-6.43558
-6.49491
-6.64645
-6.92466
-7.25756
-7.60882
-8.02365
-8.58523
-9.34339
-10.2777
-11.3159
-12.3733
-13.3789
-14.2785
-15.031
-15.6085
-15.9952
-16.1866
-16.1902
-16.0282
-15.7305
-15.3278
-14.8561
-14.365
-13.8809
-13.4864
-13.1903
-13.0255
-13.0657
-13.3376
-13.8563
-14.5931
-15.506
-16.4686
-17.3772
-18.1528
-18.9194
-19.8062
-20.8177
-21.8875
-22.7714
-23.3317
-23.522
-23.7492
-24.3174
-25.0953
-25.9878
-27.1054
-28.1993
-29.1738
-30.1734
-31.2148
-32.3203
-33.5271
-34.8318
-36.2173
-37.6737
-39.1631
-40.6628
-42.1029
-43.4372
-44.6134
-45.5956
-46.3498
-46.8502
-47.0747
-47.007
-46.6361
-45.9586
-44.9782
-43.7078
-42.1678
-40.385
-38.3912
-36.2222
-33.9157
-31.5095
-29.0392
-26.536
-24.0254
-21.5257
-19.0481
-16.597
-14.171
-11.7654
-9.37352
-6.98924
-4.6089
-2.23304
0.132383
2.47339
4.767
6.9822
9.08352
11.0359
12.81
14.3873
15.7616
16.9378
17.9302
18.7574
19.4399
19.9971
20.4457
20.8003
21.073
21.2734
21.4101
21.4907
21.5224
21.5117
21.4647
21.3874
21.2853
21.1633
21.0257
20.8766
20.719
20.5558
20.3894
20.2217
20.0543
19.8882
19.7246
19.5639
19.4067
19.2535
19.1044
18.9601
18.8211
18.688
18.5619
18.4434
18.3334
18.2325
18.141
18.0591
17.9866
17.9233
17.8685
17.8217
17.782
17.7486
17.7207
17.6973
17.6774
17.6603
17.6455
17.6327
17.6217
17.6124
17.6045
17.5982
17.5932
17.5893
17.5857
17.5818
17.5771
17.5715
17.5651
17.5582
17.5513
17.5452
17.5407
17.5386
17.5392
17.5423
17.5478
17.5559
17.5668
17.5814
17.6005
17.626
17.6585
17.7022
17.7566
17.8305
17.9152
18.0281
18.1085
-6.46474
-6.46006
-6.70689
-7.25898
-8.08668
-9.07586
-10.1377
-11.2287
-12.3286
-13.4222
-14.4822
-15.4719
-16.3573
-17.11
-17.708
-18.139
-18.4
-18.4964
-18.4397
-18.2461
-17.9392
-17.546
-17.0913
-16.6153
-16.166
-15.7574
-15.4281
-15.1908
-15.081
-15.1324
-15.3754
-15.82
-16.4452
-17.1789
-17.9517
-18.7536
-19.6914
-20.8583
-22.1788
-23.4359
-24.4455
-25.1701
-25.5884
-26.0075
-26.7011
-27.6797
-28.8486
-30.091
-31.3005
-32.4481
-33.534
-34.5806
-35.6378
-36.7594
-37.9761
-39.2779
-40.6313
-41.9916
-43.3211
-44.5772
-45.7279
-46.737
-47.5736
-48.2052
-48.6038
-48.7427
-48.5993
-48.1561
-47.4057
-46.3497
-44.9983
-43.371
-41.4957
-39.407
-37.144
-34.7482
-32.2612
-29.7225
-27.1663
-24.6201
-22.1031
-19.6258
-17.1903
-14.7916
-12.4202
-10.0642
-7.71242
-5.35625
-2.99183
-0.622184
1.74132
4.07542
6.34531
8.50903
10.5241
12.3541
13.9754
15.3802
16.5765
17.5822
18.42
19.113
19.6823
20.1451
20.5158
20.8057
21.024
21.1784
21.2762
21.324
21.3281
21.2949
21.2303
21.1397
21.0281
20.9001
20.7595
20.6098
20.4538
20.2941
20.1326
19.971
19.8106
19.6524
19.497
19.3449
19.1966
19.0522
18.9122
18.7772
18.6479
18.5252
18.41
18.303
18.2049
18.1161
18.0366
17.9664
17.905
17.852
17.8068
17.7686
17.7367
17.7103
17.6883
17.6698
17.654
17.6404
17.6288
17.6188
17.6104
17.6033
17.5974
17.5926
17.5886
17.5848
17.5807
17.5761
17.5708
17.5648
17.5584
17.552
17.5463
17.542
17.5397
17.5397
17.542
17.5466
17.5535
17.563
17.5759
17.5927
17.6152
17.6436
17.6815
17.7272
17.7875
17.8518
17.9292
17.9673
-6.40553
-6.66475
-7.32911
-8.39539
-9.68319
-11.0229
-12.3463
-13.625
-14.833
-15.9596
-16.9973
-17.9331
-18.7479
-19.4188
-19.9289
-20.2723
-20.4551
-20.4922
-20.4029
-20.2031
-19.9039
-19.5257
-19.1067
-18.684
-18.2887
-17.9414
-17.6497
-17.4121
-17.2266
-17.098
-17.0438
-17.0901
-17.264
-17.5843
-18.0665
-18.7472
-19.6927
-20.9325
-22.3412
-23.7284
-24.9334
-25.9533
-26.8354
-27.7218
-28.7478
-29.9736
-31.3496
-32.7578
-34.1183
-35.401
-36.5953
-37.7171
-38.8157
-39.9474
-41.1391
-42.3719
-43.6159
-44.8458
-46.035
-47.1522
-48.1693
-49.0558
-49.7832
-50.3205
-50.6369
-50.7018
-50.4887
-49.9756
-49.1497
-48.0085
-46.5604
-44.8258
-42.8349
-40.6253
-38.2406
-35.7273
-33.1329
-30.5019
-27.8731
-25.2773
-22.735
-20.2565
-17.8412
-15.4803
-13.1587
-10.8586
-8.56222
-6.25429
-3.92388
-1.56722
0.807638
3.1791
5.5104
7.75216
9.85084
11.758
13.4404
14.8867
16.108
17.1288
17.9778
18.6828
19.2668
19.7476
20.1394
20.4526
20.695
20.8733
20.9938
21.0627
21.0864
21.0711
21.0228
20.9472
20.8491
20.7334
20.6039
20.4643
20.3176
20.1664
20.013
19.859
19.706
19.5548
19.4063
19.261
19.119
18.9807
18.8466
18.717
18.5927
18.4747
18.3639
18.2611
18.1669
18.0818
18.0059
17.9389
17.8807
17.8307
17.7881
17.7522
17.7224
17.6978
17.6777
17.661
17.6468
17.6347
17.6243
17.6155
17.608
17.6016
17.5962
17.5917
17.5878
17.584
17.5799
17.5752
17.5699
17.5643
17.5584
17.5526
17.5474
17.5433
17.5409
17.5405
17.5421
17.5456
17.5512
17.559
17.5699
17.5842
17.6032
17.6271
17.6584
17.6953
17.7414
17.7873
17.8338
17.8421
-6.76366
-7.46031
-8.71711
-10.1212
-11.5817
-13.0376
-14.4371
-15.7544
-16.9929
-18.1634
-19.2581
-20.2534
-21.1189
-21.8246
-22.3504
-22.6921
-22.8577
-22.864
-22.7333
-22.4901
-22.158
-21.7652
-21.3454
-20.9314
-20.5528
-20.2268
-19.9539
-19.72
-19.5045
-19.2907
-19.0777
-18.8881
-18.7736
-18.8091
-19.0643
-19.6218
-20.5059
-21.7168
-23.1389
-24.6201
-26.0289
-27.3242
-28.5458
-29.7666
-31.0615
-32.4813
-33.9842
-35.4873
-36.9265
-38.2703
-39.5235
-40.7159
-41.886
-43.0593
-44.2386
-45.4146
-46.5788
-47.7192
-48.8145
-49.8382
-50.7635
-51.5632
-52.2114
-52.6786
-52.9321
-52.9375
-52.6643
-52.0857
-51.1833
-49.9496
-48.3916
-46.5314
-44.4017
-42.0444
-39.5081
-36.8462
-34.1128
-31.3592
-28.6298
-25.9593
-23.371
-20.8753
-18.4699
-16.1427
-13.8738
-11.6397
-9.4158
-7.17996
-4.91418
-2.60579
-0.251889
2.13201
4.51105
6.82975
9.02181
11.022
12.7832
14.2867
15.543
16.5843
17.4479
18.1671
18.7686
19.2715
19.6892
20.0305
20.3017
20.508
20.655
20.7488
20.7956
20.8016
20.773
20.7153
20.6338
20.533
20.4172
20.29
20.1547
20.014
19.8704
19.7257
19.5814
19.4386
19.2981
19.1605
19.0259
18.8947
18.7673
18.644
18.5257
18.4134
18.308
18.2103
18.1211
18.0408
17.9692
17.9063
17.8518
17.8053
17.766
17.7333
17.7063
17.6843
17.6663
17.6514
17.639
17.6284
17.6194
17.6117
17.6052
17.5996
17.5948
17.5907
17.587
17.5832
17.5791
17.5744
17.5693
17.564
17.5586
17.5533
17.5485
17.5446
17.5419
17.5409
17.5415
17.5438
17.5479
17.554
17.5628
17.5743
17.5897
17.6089
17.6334
17.6614
17.694
17.7231
17.7446
17.7311
-8.7815
-9.58257
-10.8236
-12.1573
-13.5159
-14.8764
-16.2211
-17.5342
-18.8153
-20.0587
-21.2366
-22.3121
-23.2475
-24.0084
-24.5751
-24.9449
-25.13
-25.1531
-25.0405
-24.8147
-24.4975
-24.1152
-23.7011
-23.2912
-22.9156
-22.5913
-22.3212
-22.0926
-21.884
-21.6709
-21.4381
-21.195
-20.9883
-20.9192
-21.095
-21.6303
-22.5246
-23.7425
-25.1987
-26.7705
-28.3333
-29.8282
-31.2608
-32.6749
-34.1247
-35.6353
-37.168
-38.6639
-40.0772
-41.3982
-42.6468
-43.8542
-45.0372
-46.1976
-47.3375
-48.4629
-49.5749
-50.6616
-51.7013
-52.6681
-53.5358
-54.2798
-54.8766
-55.2983
-55.5107
-55.4759
-55.1569
-54.5214
-53.5441
-52.2145
-50.5394
-48.5407
-46.2538
-43.7256
-41.0113
-38.1715
-35.2674
-32.357
-29.4911
-26.71
-24.0415
-21.4986
-19.0782
-16.7645
-14.5334
-12.3559
-10.2023
-8.04519
-5.86072
-3.62824
-1.33213
1.02698
3.42194
5.79612
8.07182
10.1663
12.0135
13.5838
14.8853
15.9557
16.8406
17.5803
18.2053
18.7356
19.184
19.5575
19.8605
20.0974
20.2734
20.3944
20.4666
20.4964
20.4897
20.4522
20.3892
20.3054
20.205
20.0918
19.9693
19.8404
19.7076
19.573
19.4383
19.3046
19.1728
19.0435
18.917
18.7935
18.6734
18.5572
18.4456
18.3397
18.2406
18.1491
18.0658
17.9912
17.9251
17.8674
17.8176
17.7754
17.7401
17.7111
17.6875
17.6684
17.6531
17.6407
17.6303
17.6216
17.6141
17.6077
17.6022
17.5974
17.5932
17.5894
17.586
17.5824
17.5784
17.5738
17.5688
17.5637
17.5587
17.5539
17.5494
17.5455
17.5425
17.5408
17.5405
17.5415
17.5442
17.5485
17.5549
17.5636
17.5752
17.5896
17.6073
17.6266
17.6468
17.6609
17.6625
17.6319
-11.1865
-11.828
-12.7211
-13.7969
-14.9971
-16.256
-17.527
-18.7944
-20.0705
-21.3424
-22.5679
-23.7021
-24.7028
-25.535
-26.1781
-26.6275
-26.8945
-26.9998
-26.9655
-26.8094
-26.5504
-26.2138
-25.8337
-25.4462
-25.0832
-24.767
-24.5068
-24.2992
-24.1291
-23.9729
-23.8108
-23.6451
-23.515
-23.5261
-23.8069
-24.4493
-25.4452
-26.7582
-28.318
-30.012
-31.7185
-33.3736
-34.9629
-36.5046
-38.0273
-39.5415
-41.0178
-42.4199
-43.7224
-44.9365
-46.0982
-47.2313
-48.3361
-49.4158
-50.4846
-51.5549
-52.6235
-53.6724
-54.6774
-55.6127
-56.4537
-57.1773
-57.7593
-58.1698
-58.3705
-58.317
-57.965
-57.2786
-56.2296
-54.8039
-53.0061
-50.8576
-48.3982
-45.6809
-42.7693
-39.7327
-36.6405
-33.5565
-30.5352
-27.62
-24.8421
-22.2175
-19.7449
-17.4083
-15.1806
-13.0297
-10.9219
-8.82665
-6.71737
-4.56749
-2.34839
-0.0450857
2.33028
4.72682
7.06004
9.23175
11.1575
12.795
14.148
15.2554
16.1702
16.9389
17.5953
18.1595
18.6432
19.0515
19.3879
19.6565
19.8623
20.0112
20.1098
20.1642
20.1805
20.1643
20.1209
20.055
19.971
19.8728
19.764
19.6476
19.5264
19.4027
19.2781
19.154
19.0314
18.9109
18.7928
18.6774
18.5652
18.4567
18.3526
18.2541
18.1622
18.0778
18.0015
17.9336
17.874
17.8224
17.7783
17.7413
17.7107
17.6859
17.6662
17.6507
17.6386
17.6289
17.621
17.6142
17.6084
17.6034
17.599
17.5951
17.5915
17.5881
17.585
17.5816
17.5777
17.5733
17.5685
17.5636
17.5588
17.5543
17.5499
17.546
17.5427
17.5404
17.5391
17.5389
17.54
17.5424
17.5465
17.5522
17.56
17.5694
17.5805
17.5915
17.6004
17.6014
17.5871
17.5428
-12.7756
-13.2292
-13.9298
-14.8448
-15.9032
-17.0392
-18.2159
-19.4233
-20.6749
-21.9469
-23.1869
-24.3523
-25.4013
-26.2976
-27.0197
-27.5626
-27.9351
-28.1513
-28.2234
-28.1629
-27.9877
-27.7251
-27.4096
-27.0758
-26.757
-26.4798
-26.2598
-26.102
-25.9989
-25.9335
-25.8907
-25.8762
-25.9293
-26.1525
-26.6643
-27.5197
-28.7144
-30.2143
-31.9534
-33.8208
-35.7063
-37.5415
-39.2927
-40.9518
-42.5244
-44.0106
-45.3944
-46.6622
-47.8031
-48.8479
-49.8457
-50.8211
-51.7774
-52.73
-53.7019
-54.7023
-55.7186
-56.7261
-57.6989
-58.6137
-59.4491
-60.1807
-60.778
-61.2026
-61.4097
-61.35
-60.9737
-60.2383
-59.1152
-57.5899
-55.6656
-53.3636
-50.7277
-47.8171
-44.703
-41.4643
-38.1809
-34.9239
-31.7485
-28.6961
-25.7993
-23.0785
-20.535
-18.15
-15.8943
-13.7333
-11.6336
-9.56564
-7.50407
-5.42074
-3.27854
-1.04471
1.28745
3.67721
6.03935
8.26389
10.2512
11.9472
13.3518
14.5018
15.4551
16.2619
16.9571
17.5603
18.0814
18.5252
18.8948
19.1944
19.4294
19.606
19.7307
19.8098
19.8492
19.8546
19.8311
19.7836
19.7166
19.634
19.5396
19.4365
19.3276
19.2152
19.1011
18.9869
18.8736
18.7619
18.6523
18.5453
18.4412
18.3409
18.2451
18.1548
18.0712
17.9949
17.9267
17.8666
17.8145
17.7701
17.7327
17.7019
17.6769
17.6572
17.6419
17.6304
17.6218
17.6154
17.6102
17.6058
17.602
17.5985
17.5953
17.5923
17.5893
17.5864
17.5835
17.5804
17.5768
17.5726
17.5681
17.5634
17.5588
17.5543
17.55
17.546
17.5424
17.5394
17.5371
17.5357
17.5353
17.5359
17.5375
17.5403
17.5442
17.5488
17.5536
17.5567
17.5556
17.5451
17.5179
17.4625
-13.5796
-13.9349
-14.5171
-15.3174
-16.2724
-17.3256
-18.4314
-19.5777
-20.7729
-21.9961
-23.2038
-24.3595
-25.4236
-26.3582
-27.1393
-27.7582
-28.2181
-28.5255
-28.688
-28.7148
-28.6272
-28.4543
-28.2277
-27.9797
-27.7424
-27.5434
-27.4017
-27.3272
-27.3187
-27.3692
-27.4753
-27.6547
-27.9586
-28.4727
-29.2847
-30.4261
-31.8901
-33.643
-35.6157
-37.7008
-39.799
-41.8365
-43.7643
-45.5544
-47.1932
-48.6683
-49.9707
-51.1106
-52.0884
-52.9466
-53.7496
-54.5349
-55.3186
-56.1276
-56.9868
-57.8997
-58.8468
-59.7995
-60.7318
-61.6239
-62.456
-63.2001
-63.8175
-64.2612
-64.4792
-64.4158
-64.0163
-63.2327
-62.0339
-60.408
-58.3608
-55.9149
-53.1147
-50.0225
-46.7155
-43.2825
-39.8161
-36.3975
-33.0831
-29.9083
-26.9015
-24.0851
-21.4647
-19.0217
-16.7233
-14.5317
-12.4139
-10.34
-8.28767
-6.23359
-4.14147
-1.96639
0.316146
2.68044
5.04624
7.29933
9.32962
11.0723
12.5242
13.719
14.7162
15.5671
16.3052
16.9493
17.5082
17.9864
18.3876
18.7167
18.9797
19.1832
19.3335
19.4368
19.4992
19.526
19.5225
19.4937
19.4439
19.3774
19.2978
19.2084
19.112
19.0111
18.9077
18.8033
18.6993
18.5964
18.4953
18.3968
18.3013
18.2097
18.1228
18.0418
17.9675
17.9006
17.8416
17.7905
17.7471
17.7108
17.6812
17.6575
17.639
17.6251
17.615
17.6079
17.6033
17.6003
17.5983
17.5966
17.5949
17.5931
17.5912
17.5891
17.5868
17.5844
17.5818
17.5789
17.5756
17.5718
17.5675
17.5632
17.5587
17.5543
17.5499
17.5456
17.5416
17.538
17.5348
17.5322
17.5303
17.529
17.5283
17.5281
17.5283
17.5282
17.527
17.5227
17.5128
17.4922
17.4544
17.3901
-13.8077
-14.1138
-14.6663
-15.4379
-16.367
-17.3962
-18.4796
-19.5958
-20.743
-21.9048
-23.0515
-24.1529
-25.1765
-26.0896
-26.8691
-27.5016
-27.9835
-28.3169
-28.5076
-28.5707
-28.5324
-28.4244
-28.2779
-28.1219
-27.9837
-27.8863
-27.8483
-27.8825
-27.9938
-28.1864
-28.4714
-28.8761
-29.4568
-30.2851
-31.4192
-32.8707
-34.6263
-36.6479
-38.8638
-41.1765
-43.4948
-45.7423
-47.8589
-49.7993
-51.5315
-53.0323
-54.2988
-55.3529
-56.2096
-56.9176
-57.5544
-58.1758
-58.8105
-59.4915
-60.2423
-61.0634
-61.9332
-62.8236
-63.7095
-64.572
-65.3904
-66.1316
-66.7517
-67.1973
-67.409
-67.324
-66.8837
-66.0386
-64.7579
-63.035
-60.881
-58.3185
-55.3885
-52.1523
-48.6887
-45.0923
-41.4669
-37.9072
-34.4757
-31.2044
-28.114
-25.2233
-22.5386
-20.0432
-17.7022
-15.4736
-13.3193
-11.2103
-9.12884
-7.06048
-4.97658
-2.82932
-0.581753
1.75348
4.10953
6.37253
8.42588
10.2
11.6899
12.9271
13.9692
14.8658
15.6482
16.333
16.9284
17.4392
17.8701
18.2272
18.517
18.7462
18.9212
19.0482
19.1328
19.1808
19.1971
19.1868
19.1544
19.1038
19.039
18.9632
18.8793
18.7899
18.6971
18.6025
18.5077
18.4137
18.3214
18.2317
18.1453
18.0632
17.9862
17.9154
17.8515
17.7951
17.7464
17.7053
17.6714
17.6444
17.6234
17.6078
17.5967
17.5895
17.5852
17.5833
17.583
17.5839
17.5852
17.5864
17.5872
17.5873
17.5869
17.5858
17.5842
17.5822
17.5799
17.5774
17.5743
17.5709
17.567
17.5629
17.5586
17.5541
17.5496
17.5451
17.5406
17.5363
17.5322
17.5285
17.5251
17.5219
17.5189
17.5158
17.5123
17.5077
17.5009
17.49
17.4721
17.4428
17.3963
17.3246
-13.8407
-14.1464
-14.7196
-15.5336
-16.5311
-17.6447
-18.8078
-19.9731
-21.1219
-22.2376
-23.3042
-24.3016
-25.2088
-26.0037
-26.6689
-27.193
-27.572
-27.8117
-27.9283
-27.9446
-27.8888
-27.7915
-27.683
-27.5902
-27.536
-27.5387
-27.6127
-27.77
-28.0188
-28.3714
-28.8484
-29.483
-30.3296
-31.4449
-32.8626
-34.5832
-36.59
-38.8436
-41.2747
-43.7945
-46.3146
-48.7546
-51.0469
-53.1372
-54.9824
-56.5521
-57.843
-58.8842
-59.6971
-60.3344
-60.8833
-61.4143
-61.968
-62.5774
-63.2608
-64.0173
-64.8271
-65.6654
-66.5081
-67.3341
-68.1201
-68.8312
-69.4219
-69.8351
-70.0047
-69.8639
-69.353
-68.4242
-67.0493
-65.2291
-62.9856
-60.3435
-57.3359
-54.0175
-50.4627
-46.765
-43.0324
-39.3717
-35.856
-32.5203
-29.3806
-26.4493
-23.7318
-21.2079
-18.8368
-16.5698
-14.3656
-12.1983
-10.0574
-7.93834
-5.82119
-3.66217
-1.42054
0.900052
3.24553
5.50501
7.56211
9.35001
10.8655
12.1389
13.224
14.1657
14.9915
15.7156
16.3452
16.8863
17.3452
17.7289
18.0442
18.298
18.4966
18.646
18.7521
18.8204
18.856
18.8637
18.8482
18.8135
18.7632
18.7009
18.6295
18.5515
18.4693
18.3846
18.2992
18.2144
18.1313
18.051
17.9745
17.9027
17.8366
17.777
17.7245
17.6793
17.6417
17.6114
17.588
17.571
17.5595
17.5528
17.55
17.5502
17.5525
17.5563
17.561
17.566
17.571
17.5754
17.5788
17.5811
17.5823
17.5825
17.5817
17.5803
17.5784
17.5761
17.5734
17.5703
17.5668
17.5629
17.5587
17.5541
17.5494
17.5445
17.5395
17.5345
17.5296
17.5247
17.5198
17.5148
17.5095
17.5036
17.4967
17.4878
17.4758
17.4588
17.4338
17.397
17.3431
17.2654
-13.958
-14.2992
-14.9665
-15.9284
-17.1138
-18.4251
-19.7644
-21.0555
-22.2577
-23.3547
-24.3383
-25.1986
-25.9238
-26.5016
-26.9264
-27.2041
-27.3463
-27.3686
-27.2948
-27.154
-26.9796
-26.805
-26.6598
-26.5682
-26.5505
-26.6218
-26.7918
-27.0668
-27.4525
-27.9602
-28.6103
-29.4367
-30.4872
-31.8069
-33.4185
-35.3234
-37.5069
-39.929
-42.5214
-45.1978
-47.8696
-50.4568
-52.89
-55.1155
-57.0885
-58.7703
-60.1487
-61.2551
-62.1182
-62.7889
-63.3543
-63.8959
-64.4641
-65.0864
-65.7727
-66.5207
-67.3142
-68.1308
-68.9453
-69.7332
-70.4692
-71.1208
-71.6451
-71.9848
-72.0721
-71.8419
-71.2372
-70.2123
-68.7399
-66.827
-64.5161
-61.8323
-58.8027
-55.4702
-51.8987
-48.1745
-44.4036
-40.7037
-37.1577
-33.8043
-30.6575
-27.7258
-25.0117
-22.4865
-20.0982
-17.7915
-15.5246
-13.2776
-11.0528
-8.85562
-6.67351
-4.46857
-2.20311
0.122384
2.4593
4.70254
6.74419
8.52973
10.0588
11.3627
12.4883
13.4734
14.3401
15.1
15.7609
16.33
16.8151
17.2238
17.5632
17.8402
18.061
18.2318
18.3583
18.4461
18.5001
18.5253
18.5262
18.5068
18.4709
18.4218
18.3627
18.2961
18.2245
18.1501
18.0746
17.9996
17.9266
17.8567
17.791
17.7305
17.6761
17.6284
17.5879
17.5547
17.5288
17.51
17.4977
17.4914
17.4901
17.4929
17.4989
17.5071
17.5167
17.5268
17.5369
17.5465
17.5554
17.5631
17.5695
17.5742
17.5772
17.5789
17.5792
17.5785
17.5771
17.5752
17.5729
17.57
17.5668
17.5631
17.559
17.5543
17.5492
17.5439
17.5384
17.5327
17.5269
17.5208
17.5145
17.5078
17.5003
17.4917
17.4814
17.4686
17.4518
17.4292
17.3981
17.3547
17.2945
17.2119
-14.2937
-14.7066
-15.5296
-16.7155
-18.1623
-19.727
-21.2733
-22.7032
-23.9598
-25.0199
-25.8758
-26.5304
-26.9896
-27.2658
-27.3805
-27.3624
-27.2347
-27.0097
-26.703
-26.3452
-25.9797
-25.6515
-25.3953
-25.2368
-25.1961
-25.2858
-25.5085
-25.8612
-26.3415
-26.9545
-27.7179
-28.6632
-29.8324
-31.2628
-32.9778
-34.9829
-37.2621
-39.7724
-42.4467
-45.2035
-47.9611
-50.6419
-53.1808
-55.5258
-57.6322
-59.4582
-60.9826
-62.2261
-63.2253
-64.0299
-64.7186
-65.3745
-66.0514
-66.7706
-67.5335
-68.3341
-69.1589
-69.9873
-70.7928
-71.5475
-72.2253
-72.7979
-73.228
-73.4636
-73.4437
-73.1075
-72.4023
-71.2825
-69.7211
-67.7343
-65.3858
-62.7124
-59.7257
-56.4479
-52.9316
-49.2541
-45.5188
-41.848
-38.3316
-35.0137
-31.9065
-29.0151
-26.3331
-23.8193
-21.4138
-19.0589
-16.7168
-14.3785
-12.058
-9.76925
-7.50487
-5.23311
-2.92279
-0.579251
1.747
3.95957
5.97106
7.74179
9.27647
10.6063
11.7693
12.7938
13.6966
14.488
15.1768
15.7715
16.281
16.713
17.075
17.3738
17.6157
17.8068
17.9528
18.0591
18.1308
18.1726
18.189
18.1842
18.162
18.1259
18.0789
18.024
17.9637
17.9003
17.8358
17.7719
17.7101
17.6517
17.5977
17.5493
17.5071
17.4718
17.4435
17.4226
17.4089
17.402
17.4015
17.4064
17.4158
17.4287
17.444
17.4608
17.4781
17.495
17.511
17.5255
17.5386
17.5499
17.5592
17.5665
17.5716
17.5749
17.5765
17.5767
17.576
17.5746
17.5726
17.5701
17.5671
17.5635
17.5593
17.5545
17.5492
17.5434
17.5374
17.531
17.5243
17.5171
17.5094
17.5009
17.4913
17.4802
17.4668
17.4502
17.4291
17.4015
17.3649
17.3159
17.2504
17.1635
-14.6661
-15.1489
-16.1291
-17.5275
-19.2081
-20.9902
-22.71
-24.2439
-25.5278
-26.5375
-27.28
-27.7784
-28.0484
-28.0987
-27.9489
-27.6387
-27.2174
-26.7106
-26.1333
-25.5165
-24.9134
-24.3835
-23.9685
-23.6912
-23.5673
-23.6075
-23.8104
-24.1653
-24.6631
-25.3049
-26.1056
-27.0938
-28.3055
-29.7728
-31.5235
-33.5638
-35.8701
-38.3967
-41.0801
-43.8488
-46.6304
-49.3508
-51.9528
-54.391
-56.6242
-58.6088
-60.315
-61.7522
-62.9565
-63.9749
-64.8744
-65.7286
-66.5894
-67.4732
-68.3733
-69.2783
-70.1754
-71.0453
-71.8611
-72.5926
-73.2138
-73.702
-74.0294
-74.1531
-74.0211
-73.5817
-72.7886
-71.6019
-70.0016
-68.0025
-65.6785
-63.0601
-60.1513
-56.968
-53.5598
-49.9944
-46.362
-42.7854
-39.3543
-36.1156
-33.0833
-30.2546
-27.6126
-25.1095
-22.6805
-20.2708
-17.8511
-15.423
-13.0113
-10.632
-8.28068
-5.93288
-3.56967
-1.20641
1.10077
3.27189
5.24251
6.99003
8.52553
9.87697
11.0718
12.1292
13.062
13.8802
14.5937
15.2121
15.7442
16.1982
16.5815
16.9008
17.1625
17.3726
17.5368
17.6603
17.7483
17.8056
17.8367
17.8459
17.8372
17.8141
17.78
17.7377
17.6898
17.6387
17.5863
17.5344
17.4846
17.4383
17.3965
17.3603
17.3304
17.3074
17.2917
17.2834
17.2823
17.288
17.2997
17.3165
17.3373
17.3608
17.386
17.4118
17.4372
17.4614
17.4836
17.5034
17.5209
17.5359
17.5483
17.5582
17.5656
17.5706
17.5736
17.5749
17.575
17.5742
17.5727
17.5704
17.5675
17.564
17.5597
17.5547
17.5491
17.543
17.5364
17.5293
17.5218
17.5136
17.5045
17.4944
17.4828
17.4692
17.4529
17.4329
17.4078
17.3757
17.3343
17.2803
17.2103
17.1199
-14.5631
-15.1056
-16.2059
-17.7646
-19.639
-21.6211
-23.5315
-25.231
-26.6455
-27.7476
-28.5371
-29.0248
-29.2119
-29.0848
-28.652
-27.9705
-27.1447
-26.2575
-25.3445
-24.43
-23.5602
-22.7999
-22.1934
-21.7554
-21.4938
-21.4208
-21.5385
-21.836
-22.3011
-22.9343
-23.744
-24.7475
-25.9697
-27.4415
-29.1929
-31.225
-33.5047
-35.988
-38.6204
-41.3445
-44.1007
-46.8213
-49.448
-51.9432
-54.2777
-56.4132
-58.3147
-59.9786
-61.4321
-62.7164
-63.8846
-64.9943
-66.0886
-67.1804
-68.2567
-69.3002
-70.2956
-71.2248
-72.0641
-72.7856
-73.3648
-73.7817
-74.016
-74.0398
-73.8122
-73.2924
-72.4444
-71.2393
-69.6609
-67.7192
-65.4656
-62.9318
-60.1237
-57.0606
-53.8086
-50.4178
-46.9485
-43.5215
-40.2224
-37.0955
-34.1585
-31.399
-28.7939
-26.2927
-23.8333
-21.3688
-18.8796
-16.3754
-13.8821
-11.4158
-8.97659
-6.55192
-4.14192
-1.77166
0.50324
2.62126
4.54362
6.26409
7.79765
9.16537
10.3844
11.4673
12.4243
13.2659
14.0022
14.6429
15.1967
15.6717
16.0752
16.414
16.6943
16.922
17.1029
17.2423
17.3457
17.4179
17.4637
17.4874
17.4931
17.4843
17.4643
17.4359
17.4016
17.3636
17.3241
17.2847
17.2472
17.213
17.1833
17.1593
17.1418
17.1315
17.1288
17.1338
17.1463
17.1655
17.1907
17.2205
17.2537
17.2888
17.3247
17.3602
17.3942
17.426
17.4549
17.4804
17.5025
17.5214
17.5371
17.5496
17.5593
17.5662
17.5707
17.5732
17.5742
17.574
17.5729
17.5709
17.5681
17.5646
17.5601
17.555
17.5491
17.5425
17.5355
17.5278
17.5194
17.5101
17.4998
17.4882
17.4747
17.4588
17.4398
17.4167
17.388
17.3519
17.3062
17.248
17.1741
17.0808
-13.4744
-14.1126
-15.324
-17.0317
-19.104
-21.3309
-23.5193
-25.4848
-27.1115
-28.3349
-29.1405
-29.5395
-29.5541
-29.1895
-28.4602
-27.4415
-26.2681
-25.0695
-23.8883
-22.7336
-21.6423
-20.6802
-19.898
-19.3067
-18.9076
-18.7127
-18.7319
-18.9616
-19.3946
-20.0304
-20.87
-21.9136
-23.1699
-24.6681
-26.4359
-28.4628
-30.7026
-33.1151
-35.6575