/*--------------------------------*- C++ -*----------------------------------*\
  =========                 |
  \\      /  F ield         | OpenFOAM: The Open Source CFD Toolbox
   \\    /   O peration     | Website:  https://openfoam.org
    \\  /    A nd           | Version:  9
     \\/     M anipulation  |
\*---------------------------------------------------------------------------*/
FoamFile
{
    format      ascii;
    class       volVectorField;
    location    "0.047";
    object      U;
}
// * * * * * * * * * * * * * * * * * * * * * * * * * * * * * * * * * * * * * //

dimensions      [0 1 -1 0 0 0 0];

internalField   nonuniform List<vector> 
12225
(
(9.85046 0.0112053 0)
(9.62277 0.063932 0)
(9.28682 0.0565619 0)
(8.96268 0.0456266 0)
(8.70108 0.0304225 0)
(8.49401 0.0196907 0)
(8.3075 0.0187775 0)
(8.11408 0.0248116 0)
(7.90991 0.0303931 0)
(7.72921 0.0360617 0)
(7.53137 0.0359958 0)
(7.4216 0.0345076 0)
(7.23163 0.0318227 0)
(7.24445 0.0254448 0)
(6.98534 0.028886 0)
(7.24463 0.0164422 0)
(6.68216 0.0667452 0)
(7.3479 -0.017201 0)
(9.72968 -0.0173234 0)
(9.99712 0.0651348 0)
(10.1298 0.0851475 0)
(10.1366 0.0807228 0)
(10.1112 0.0753574 0)
(10.0966 0.0735891 0)
(10.1115 0.0753895 0)
(10.1442 0.0796015 0)
(10.1675 0.0770351 0)
(10.1735 0.0752917 0)
(10.152 0.0629868 0)
(10.1383 0.0568048 0)
(10.1141 0.0382455 0)
(10.1433 0.0408278 0)
(10.1436 0.0104892 0)
(10.2503 0.0272436 0)
(10.2542 0.0308484 0)
(10.4601 0.00981926 0)
(9.90931 -0.00186293 0)
(10.0885 0.00619664 0)
(10.2531 0.0427304 0)
(10.3145 0.0605883 0)
(10.3092 0.0498336 0)
(10.2833 0.0272898 0)
(10.2763 0.0126749 0)
(10.3047 0.0140933 0)
(10.355 0.0249773 0)
(10.4054 0.0398902 0)
(10.44 0.0475152 0)
(10.458 0.0436677 0)
(10.4659 0.0301311 0)
(10.4834 0.0103874 0)
(10.5136 -0.00601414 0)
(10.5568 -0.0234811 0)
(10.6329 -0.0152156 0)
(10.7326 -0.0693549 0)
(10.0765 -0.0196762 0)
(10.0322 -0.0271993 0)
(10.0666 0.0189285 0)
(10.162 0.0506249 0)
(10.2106 0.06908 0)
(10.1939 0.0708565 0)
(10.1601 0.0596827 0)
(10.1482 0.046339 0)
(10.1653 0.0375796 0)
(10.1994 0.0397388 0)
(10.2367 0.044373 0)
(10.2717 0.0440098 0)
(10.3081 0.0333356 0)
(10.3554 0.0184563 0)
(10.4176 -0.00693213 0)
(10.49 -0.0272149 0)
(10.5787 -0.044372 0)
(10.6754 -0.092603 0)
(10.3371 0.0251466 0)
(10.1376 0.0256162 0)
(10.0145 0.0276142 0)
(10.0274 0.0370595 0)
(10.0998 0.0559323 0)
(10.164 0.0560787 0)
(10.2061 0.038864 0)
(10.2255 0.0224859 0)
(10.2285 0.0179473 0)
(10.2297 0.0234236 0)
(10.2438 0.0270603 0)
(10.2794 0.0174956 0)
(10.333 -0.0059347 0)
(10.4002 -0.0374682 0)
(10.472 -0.070625 0)
(10.5424 -0.100864 0)
(10.6101 -0.124966 0)
(10.677 -0.163237 0)
(10.0595 -0.0534492 0)
(10.1151 0.0469476 0)
(10.0934 0.0362609 0)
(10.0637 0.013394 0)
(10.1153 0.0118626 0)
(10.2069 0.018899 0)
(10.2841 0.0239646 0)
(10.3348 0.0257776 0)
(10.3793 0.0251478 0)
(10.4346 0.0235732 0)
(10.4973 0.0171377 0)
(10.5509 0.00280764 0)
(10.5814 -0.0182831 0)
(10.5886 -0.0418142 0)
(10.5818 -0.066654 0)
(10.5716 -0.0919838 0)
(10.5673 -0.116031 0)
(10.5731 -0.151408 0)
(10.0473 -0.050609 0)
(10.0966 0.0617734 0)
(10.14 0.0661061 0)
(10.1508 0.0404915 0)
(10.1634 0.0181589 0)
(10.1825 0.00901545 0)
(10.1955 0.00438623 0)
(10.1974 -0.00437123 0)
(10.2036 -0.0135958 0)
(10.2294 -0.0181623 0)
(10.2746 -0.0170438 0)
(10.3303 -0.0159033 0)
(10.3842 -0.0212446 0)
(10.4307 -0.0368447 0)
(10.4677 -0.0636307 0)
(10.499 -0.0972033 0)
(10.5237 -0.132935 0)
(10.5521 -0.171739 0)
(9.81026 -0.0728322 0)
(9.95532 -0.031667 0)
(10.0704 0.00318075 0)
(10.0868 0.00376809 0)
(10.0605 -0.00272929 0)
(10.0561 8.99198e-05 0)
(10.093 0.0102002 0)
(10.1478 0.015121 0)
(10.1973 0.00799886 0)
(10.2364 -0.0106461 0)
(10.2687 -0.0334277 0)
(10.2956 -0.0549919 0)
(10.3152 -0.0741641 0)
(10.3253 -0.0900877 0)
(10.3278 -0.106955 0)
(10.3261 -0.12705 0)
(10.327 -0.152674 0)
(10.3362 -0.184772 0)
(10.2735 -0.0118937 0)
(10.1435 0.0122471 0)
(10.103 0.0359418 0)
(10.0556 0.0443155 0)
(9.9905 0.0309033 0)
(9.95436 0.00076927 0)
(9.98387 -0.028872 0)
(10.0625 -0.0464353 0)
(10.1496 -0.0514476 0)
(10.2096 -0.0469635 0)
(10.2271 -0.0383049 0)
(10.2128 -0.0307954 0)
(10.1917 -0.0297178 0)
(10.1862 -0.0390497 0)
(10.2079 -0.0609133 0)
(10.2532 -0.0944371 0)
(10.3191 -0.137866 0)
(10.3886 -0.186529 0)
(10.0468 0.017335 0)
(10.119 0.0433808 0)
(10.1697 0.0294176 0)
(10.1361 0.0488054 0)
(10.0586 0.0421892 0)
(9.99222 0.00371892 0)
(9.96195 -0.0435044 0)
(9.96162 -0.0724139 0)
(9.9803 -0.0729111 0)
(10.0134 -0.0555592 0)
(10.0606 -0.0399687 0)
(10.1239 -0.0414549 0)
(10.2007 -0.0653485 0)
(10.2876 -0.106725 0)
(10.3704 -0.156415 0)
(10.4467 -0.205882 0)
(10.5005 -0.249358 0)
(10.5427 -0.287024 0)
(9.77042 -0.0397913 0)
(9.83907 -0.00700869 0)
(9.94154 0.0323214 0)
(10.0266 0.0751131 0)
(10.0972 0.0813308 0)
(10.1578 0.0478943 0)
(10.199 -0.00133602 0)
(10.2146 -0.0420993 0)
(10.217 -0.0671104 0)
(10.226 -0.0827312 0)
(10.252 -0.0969283 0)
(10.29 -0.111801 0)
(10.325 -0.12762 0)
(10.341 -0.141984 0)
(10.3297 -0.156886 0)
(10.2963 -0.173766 0)
(10.2508 -0.196928 0)
(10.2139 -0.229801 0)
(9.83712 0.00446872 0)
(9.85855 -0.0430309 0)
(9.93413 -0.0305015 0)
(9.96322 0.00152176 0)
(9.98746 -0.00244121 0)
(10.0297 -0.0377181 0)
(10.0818 -0.0745397 0)
(10.13 -0.0918515 0)
(10.1679 -0.0898172 0)
(10.1969 -0.0824652 0)
(10.2196 -0.0814701 0)
(10.2349 -0.0888172 0)
(10.2416 -0.101659 0)
(10.2393 -0.116479 0)
(10.2348 -0.135084 0)
(10.2319 -0.159587 0)
(10.241 -0.195611 0)
(10.2609 -0.243347 0)
(9.84904 -0.065261 0)
(9.97283 -0.0795111 0)
(9.99922 -0.0185442 0)
(10.0161 0.0329761 0)
(10.0413 0.0357329 0)
(10.0796 -0.000104897 0)
(10.1314 -0.0465212 0)
(10.1906 -0.0803933 0)
(10.245 -0.0988817 0)
(10.2829 -0.110129 0)
(10.2964 -0.118989 0)
(10.2863 -0.125147 0)
(10.2604 -0.128574 0)
(10.2317 -0.132639 0)
(10.2127 -0.144061 0)
(10.2101 -0.167796 0)
(10.2284 -0.208586 0)
(10.2595 -0.264036 0)
(10.0669 -0.0924813 0)
(10.0369 -0.0738084 0)
(9.98374 -0.0361104 0)
(9.98764 -0.0101306 0)
(10.0471 -0.0292028 0)
(10.1118 -0.0857041 0)
(10.1396 -0.140944 0)
(10.1227 -0.163424 0)
(10.0776 -0.147377 0)
(10.0329 -0.109848 0)
(10.0115 -0.0732556 0)
(10.0228 -0.0525249 0)
(10.0624 -0.0538928 0)
(10.1229 -0.0779296 0)
(10.1925 -0.121559 0)
(10.2636 -0.180263 0)
(10.3254 -0.247912 0)
(10.3734 -0.3203 0)
(10.2718 0.0151256 0)
(10.1813 -0.011507 0)
(10.1303 -0.00797105 0)
(10.1308 -0.015111 0)
(10.1745 -0.0483422 0)
(10.2098 -0.0708937 0)
(10.1915 -0.0559279 0)
(10.1275 -0.0270601 0)
(10.0606 -0.0234342 0)
(10.0308 -0.0602907 0)
(10.052 -0.123783 0)
(10.112 -0.189852 0)
(10.1853 -0.241526 0)
(10.2483 -0.273842 0)
(10.2857 -0.290722 0)
(10.2964 -0.301663 0)
(10.2833 -0.314788 0)
(10.2609 -0.340673 0)
(10.3453 0.100419 0)
(10.2421 0.102895 0)
(10.169 0.0216671 0)
(10.1485 -0.0517606 0)
(10.1452 -0.0803399 0)
(10.1323 -0.0744229 0)
(10.1225 -0.0562632 0)
(10.1354 -0.0483842 0)
(10.1656 -0.0658192 0)
(10.1957 -0.105012 0)
(10.2127 -0.146559 0)
(10.2112 -0.171411 0)
(10.1937 -0.173835 0)
(10.1691 -0.162237 0)
(10.1476 -0.153372 0)
(10.1359 -0.161943 0)
(10.1356 -0.196575 0)
(10.1444 -0.257557 0)
(9.95594 0.106558 0)
(10.033 0.194024 0)
(10.0462 0.108176 0)
(9.98396 -0.0098634 0)
(9.92344 -0.0588734 0)
(9.90959 -0.0709815 0)
(9.94303 -0.0774968 0)
(9.99967 -0.0891836 0)
(10.0476 -0.106519 0)
(10.0681 -0.126441 0)
(10.0628 -0.147582 0)
(10.0456 -0.170694 0)
(10.0318 -0.196855 0)
(10.0321 -0.227905 0)
(10.0485 -0.263168 0)
(10.0744 -0.303279 0)
(10.1007 -0.344644 0)
(10.1156 -0.386523 0)
(9.93893 0.0964089 0)
(10.0652 0.000521595 0)
(10.0965 0.0406508 0)
(10.0795 0.0789843 0)
(10.0408 0.027747 0)
(10.0101 -0.0712722 0)
(10.0074 -0.1456 0)
(10.0243 -0.163167 0)
(10.0439 -0.139028 0)
(10.0573 -0.107974 0)
(10.0661 -0.096045 0)
(10.0732 -0.110025 0)
(10.0803 -0.142416 0)
(10.0867 -0.181092 0)
(10.0919 -0.21476 0)
(10.0931 -0.240022 0)
(10.0891 -0.255816 0)
(10.0779 -0.269741 0)
(10.0378 -0.0778256 0)
(9.98573 -0.0250661 0)
(9.93471 0.0695385 0)
(9.91097 0.0859702 0)
(9.94787 0.0374278 0)
(9.97972 -0.0363811 0)
(9.9732 -0.110091 0)
(9.95295 -0.163238 0)
(9.93532 -0.188919 0)
(9.92234 -0.19725 0)
(9.91569 -0.203842 0)
(9.91484 -0.21829 0)
(9.9172 -0.240466 0)
(9.92115 -0.265572 0)
(9.92914 -0.288081 0)
(9.94224 -0.306738 0)
(9.96192 -0.32255 0)
(9.98514 -0.338916 0)
(9.90218 0.209143 0)
(9.96311 0.300169 0)
(9.94262 0.169767 0)
(9.97479 0.0207182 0)
(10.0326 -0.061724 0)
(10.0665 -0.0904849 0)
(10.0671 -0.089345 0)
(10.0473 -0.0769601 0)
(10.0207 -0.0663833 0)
(10.001 -0.0661297 0)
(9.99884 -0.081002 0)
(10.0138 -0.112469 0)
(10.0374 -0.157594 0)
(10.061 -0.212193 0)
(10.079 -0.269064 0)
(10.0897 -0.321864 0)
(10.0918 -0.364577 0)
(10.0858 -0.392637 0)
(9.51794 0.188079 0)
(9.77601 0.0726648 0)
(9.88867 0.0358158 0)
(9.95081 -0.0214232 0)
(9.97182 -0.0871108 0)
(9.95547 -0.113785 0)
(9.92226 -0.104907 0)
(9.89278 -0.0954487 0)
(9.87486 -0.110584 0)
(9.87198 -0.151424 0)
(9.88786 -0.204562 0)
(9.91991 -0.255448 0)
(9.95706 -0.294802 0)
(9.98542 -0.319274 0)
(9.994 -0.329288 0)
(9.98109 -0.328444 0)
(9.94927 -0.319681 0)
(9.90857 -0.3092 0)
(10.0447 0.0739305 0)
(10.0123 -0.0388141 0)
(10.0116 -0.060372 0)
(10.0297 -0.0592968 0)
(10.0383 -0.0488494 0)
(10.0441 -0.0310059 0)
(10.0719 -0.0144573 0)
(10.1249 -0.0129638 0)
(10.1735 -0.0396323 0)
(10.1883 -0.0956731 0)
(10.1613 -0.167182 0)
(10.1022 -0.23282 0)
(10.028 -0.275272 0)
(9.9548 -0.288608 0)
(9.89373 -0.279512 0)
(9.84972 -0.261377 0)
(9.82259 -0.2464 0)
(9.8095 -0.244171 0)
(10.2538 0.135257 0)
(10.154 0.13002 0)
(10.0588 0.0132029 0)
(10.0351 -0.0474931 0)
(10.0639 -0.0891651 0)
(10.0856 -0.143975 0)
(10.0864 -0.182942 0)
(10.0826 -0.184316 0)
(10.0841 -0.155825 0)
(10.0892 -0.118613 0)
(10.0914 -0.0912584 0)
(10.0842 -0.0844513 0)
(10.0653 -0.0997676 0)
(10.0366 -0.131746 0)
(10.0022 -0.171174 0)
(9.96497 -0.209509 0)
(9.92757 -0.240922 0)
(9.88878 -0.262553 0)
(9.92519 0.11022 0)
(10.0781 0.135291 0)
(10.104 0.0225924 0)
(10.1156 -0.0679185 0)
(10.1306 -0.0872929 0)
(10.1059 -0.0652156 0)
(10.038 -0.0414347 0)
(9.96096 -0.0419595 0)
(9.90483 -0.071993 0)
(9.87944 -0.119808 0)
(9.87917 -0.167341 0)
(9.8929 -0.200294 0)
(9.91174 -0.213337 0)
(9.93062 -0.208884 0)
(9.94698 -0.193863 0)
(9.9578 -0.176592 0)
(9.9624 -0.16228 0)
(9.958 -0.15671 0)
(10.0237 0.0309883 0)
(10.2068 0.0663645 0)
(10.2345 0.00341713 0)
(10.171 -0.058864 0)
(10.1111 -0.0762736 0)
(10.0933 -0.0649752 0)
(10.1089 -0.0538423 0)
(10.1329 -0.0556936 0)
(10.1413 -0.0674735 0)
(10.122 -0.0821359 0)
(10.0751 -0.0973854 0)
(10.0102 -0.115505 0)
(9.94147 -0.138553 0)
(9.88256 -0.165467 0)
(9.84389 -0.191 0)
(9.82717 -0.210373 0)
(9.831 -0.220024 0)
(9.84852 -0.219319 0)
(9.92817 -0.0549753 0)
(10.1835 0.00439481 0)
(10.1565 0.0411479 0)
(10.0683 -0.00159764 0)
(10.0379 -0.0465617 0)
(10.0706 -0.0692467 0)
(10.1288 -0.0743109 0)
(10.1736 -0.072569 0)
(10.188 -0.0737185 0)
(10.1805 -0.0797681 0)
(10.168 -0.0883524 0)
(10.1591 -0.0987519 0)
(10.1524 -0.11223 0)
(10.1419 -0.130914 0)
(10.123 -0.154092 0)
(10.0944 -0.178333 0)
(10.0578 -0.199751 0)
(10.0174 -0.212024 0)
(9.92023 -0.116463 0)
(9.87892 -0.043407 0)
(10.0094 0.0675556 0)
(10.1623 0.0141334 0)
(10.2268 -0.0690285 0)
(10.2139 -0.109676 0)
(10.1939 -0.107755 0)
(10.1954 -0.084122 0)
(10.2023 -0.0626916 0)
(10.194 -0.0576468 0)
(10.1625 -0.0695765 0)
(10.1122 -0.090577 0)
(10.0543 -0.112032 0)
(10.001 -0.129279 0)
(9.95883 -0.140617 0)
(9.92868 -0.146501 0)
(9.90671 -0.147434 0)
(9.88881 -0.144694 0)
(10.1999 -0.0568144 0)
(10.0375 -0.0566667 0)
(10.0742 -0.0747307 0)
(10.1258 -0.0889388 0)
(10.112 -0.0750526 0)
(10.061 -0.0659377 0)
(10.0394 -0.0749362 0)
(10.0652 -0.0848286 0)
(10.1101 -0.081446 0)
(10.1387 -0.0662143 0)
(10.1288 -0.049986 0)
(10.0798 -0.0439208 0)
(10.0085 -0.0535714 0)
(9.9354 -0.0780694 0)
(9.87144 -0.110599 0)
(9.8191 -0.14228 0)
(9.7753 -0.165841 0)
(9.73901 -0.176162 0)
(9.91252 0.0108144 0)
(10.03 0.0227051 0)
(10.0999 0.0199852 0)
(10.1122 -0.00996434 0)
(10.1124 -0.0440179 0)
(10.0966 -0.0751392 0)
(10.0597 -0.0999511 0)
(9.99875 -0.105799 0)
(9.93177 -0.0880682 0)
(9.8898 -0.0567911 0)
(9.8879 -0.0287514 0)
(9.91764 -0.0173405 0)
(9.95685 -0.0252722 0)
(9.98291 -0.045521 0)
(9.97736 -0.0686762 0)
(9.93579 -0.0879127 0)
(9.86149 -0.100294 0)
(9.77009 -0.107474 0)
(9.84319 -0.145474 0)
(9.62374 -0.11076 0)
(9.52592 -0.0818779 0)
(9.38857 -0.0754009 0)
(9.21515 -0.0630673 0)
(9.02474 -0.0486091 0)
(8.82541 -0.0435202 0)
(8.61844 -0.0458958 0)
(8.4217 -0.0512463 0)
(8.26004 -0.0577388 0)
(8.13507 -0.0644554 0)
(8.02603 -0.0708504 0)
(7.90917 -0.075577 0)
(7.77398 -0.0765802 0)
(7.62091 -0.0736343 0)
(7.45906 -0.0678013 0)
(7.29628 -0.0612713 0)
(7.13981 -0.0574699 0)
(-0.362191 0.66392 1.72364e-20)
(-0.9124 0.421682 -1.70172e-20)
(-1.31391 0.231685 0)
(-1.57702 0.0146305 0)
(-1.66784 -0.186012 0)
(-1.51952 -0.389708 1.64251e-20)
(-1.23821 -0.546891 0)
(-0.785075 -0.668108 0)
(-0.268855 -0.697262 0)
(0.300547 -0.686896 0)
(0.850039 -0.636281 -1.619e-20)
(1.36292 -0.571779 0)
(1.83399 -0.505588 0)
(2.25885 -0.443954 0)
(2.64224 -0.392383 0)
(2.99254 -0.351056 -1.53011e-20)
(3.31667 -0.318891 0)
(3.62169 -0.294644 0)
(3.91239 -0.274008 0)
(4.19135 -0.257567 0)
(4.46212 -0.240302 0)
(4.72022 -0.222261 0)
(4.96903 -0.203119 0)
(5.19806 -0.174806 -1.38012e-20)
(5.40812 -0.149481 1.36123e-20)
(5.58987 -0.104022 -1.34322e-20)
(5.73135 -0.0642165 -1.32654e-20)
(5.83927 -8.47975e-05 0)
(5.87156 0.0748799 0)
(5.87262 0.146388 1.29051e-20)
(5.72031 0.298184 1.28487e-20)
(5.52347 0.349041 0)
(5.15238 0.618715 0)
(4.57906 0.684277 1.28836e-20)
(4.01984 0.900371 0)
(2.8342 1.49107 0)
(1.66048 0.530226 -1.28188e-20)
(0.942784 -0.146671 0)
(0.377495 0.310792 -1.24918e-20)
(-0.122028 0.552616 -2.44939e-20)
(-0.808438 0.534043 0)
(-1.62539 0.406359 0)
(-2.21055 0.107592 0)
(-2.29759 -0.369744 0)
(-1.81334 -0.957322 0)
(-0.634749 -1.56983 -2.27061e-20)
(1.06821 -1.70045 -2.31768e-20)
(2.83077 -1.32711 -2.29278e-20)
(4.11033 -1.01184 0)
(5.01199 -0.599144 2.15008e-20)
(5.24601 0.245616 0)
(4.65624 0.415451 -2.1516e-20)
(3.54117 0.163446 -2.20475e-20)
(1.85229 1.06194 0)
(1.25645 0.445261 0)
(1.23339 -1.64383 0)
(1.1723 -0.0460799 -2.19133e-20)
(-1.10975 1.60707 0)
(-2.67185 1.12153 0)
(-4.04636 1.05937 0)
(-5.21688 0.793806 0)
(-6.10826 0.672676 0)
(-6.87767 0.499403 0)
(-7.43395 0.39321 0)
(-7.89254 0.280394 0)
(-8.20113 0.20385 1.15941e-20)
(-8.43685 0.137258 0)
(-8.5803 0.0923108 0)
(-8.68202 0.0602748 -9.06167e-21)
(-8.74209 0.0411044 -8.39393e-21)
(-8.7909 0.0329704 0)
(-8.83273 0.030441 7.25494e-21)
(-8.87937 0.0323028 -6.76852e-21)
(-8.93038 0.0348985 0)
(-8.98684 0.037554 5.9466e-21)
(-9.047 0.0394915 0)
(-9.10935 0.0401017 0)
(-9.17064 0.0384314 -5.09588e-21)
(-9.22646 0.0341269 0)
(-9.27182 0.0272513 4.81174e-21)
(-9.30143 0.0176536 0)
(-9.30987 0.00580664 -4.79012e-21)
(-9.29297 -0.00851169 -4.88512e-21)
(-9.24641 -0.0248256 -5.05333e-21)
(-9.16658 -0.0425573 -1.0588e-20)
(-9.05091 -0.0610376 1.12076e-20)
(-8.89818 -0.0795412 0)
(-8.70866 -0.0973281 0)
(-8.48409 -0.113711 0)
(-8.22746 -0.128128 1.47535e-20)
(-7.94278 -0.140192 1.5797e-20)
(-7.6347 -0.149721 -1.6855e-20)
(-7.30816 -0.156741 0)
(-6.96797 -0.16145 1.89282e-20)
(-6.61849 -0.164137 1.99082e-20)
(-6.26342 -0.165123 2.08329e-20)
(-5.90567 -0.164745 0)
(-5.54737 -0.163354 0)
(-5.19003 -0.161273 0)
(-4.83454 -0.15876 2.38374e-20)
(-4.48123 -0.156047 0)
(-4.13018 -0.153272 0)
(-3.78153 -0.150408 -2.52995e-20)
(-3.43552 -0.147401 0)
(-3.09262 -0.144173 0)
(-2.75364 -0.140602 -2.61135e-20)
(-2.41965 -0.136618 0)
(-2.09199 -0.132164 0)
(-1.77219 -0.127196 2.63517e-20)
(-1.46166 -0.121686 2.63192e-20)
(-1.16158 -0.115621 0)
(-0.873508 -0.108967 -2.61103e-20)
(-0.599054 -0.101901 0)
(-0.339529 -0.0946127 2.57383e-20)
(-0.0941851 -0.0874352 0)
(0.134276 -0.0820334 2.5233e-20)
(0.346844 -0.0756426 2.4936e-20)
(0.547942 -0.0703426 0)
(0.737934 -0.0660745 0)
(0.919556 -0.0629921 0)
(1.096 -0.0612803 0)
(1.271 -0.0610356 0)
(1.44856 -0.0622218 0)
(1.63265 -0.0646701 0)
(1.8268 -0.0680736 2.24086e-20)
(2.03361 -0.0720244 -2.21295e-20)
(2.25432 -0.0759808 0)
(2.48845 -0.0792934 0)
(2.73366 -0.0813246 0)
(2.98588 -0.0815584 0)
(3.23969 -0.0796781 -4.16863e-20)
(3.48909 -0.0756502 0)
(3.72827 -0.0697672 4.06217e-20)
(3.9524 -0.0624228 -4.00685e-20)
(4.15766 -0.0535921 0)
(4.34048 -0.0429894 0)
(4.49722 -0.0316834 0)
(4.62645 -0.0226677 3.7807e-20)
(4.731 -0.0171628 3.72531e-20)
(4.81478 -0.0112125 0)
(4.87754 -0.000978226 3.61838e-20)
(4.91787 0.0100443 3.56711e-20)
(4.93949 0.0155687 -3.51745e-20)
(4.94723 0.0160774 0)
(4.94129 0.0222456 0)
(4.90656 0.0467622 -3.37941e-20)
(4.81878 0.0855921 0)
(4.66989 0.115292 0)
(4.48143 0.116935 0)
(4.28536 0.0953807 0)
(4.09891 0.0703342 3.16368e-20)
(3.92393 0.0545046 3.1211e-20)
(3.76163 0.0448896 0)
(3.62071 0.0340356 3.03575e-20)
(3.51303 0.0188921 0)
(3.44293 0.00162188 0)
(3.40282 -0.0124838 2.91552e-20)
(3.37834 -0.0181592 0)
(3.35553 -0.013986 2.83888e-20)
(3.32313 0.000278652 0)
(3.27078 0.0219687 0)
(3.18931 0.044231 2.71864e-20)
(3.07635 0.057933 0)
(2.94335 0.0583938 2.63311e-20)
(2.81051 0.0480379 0)
(2.69612 0.0335589 0)
(2.60696 0.0212392 0)
(2.54113 0.0137044 -2.46652e-20)
(2.48987 0.0102539 0)
(2.44751 0.00857435 2.3882e-20)
(2.40772 0.00720801 0)
(2.3704 0.0053077 0)
(2.33264 0.00447314 0)
(2.29227 0.00417176 0)
(2.25217 0.00752882 0)
(2.19047 0.00973229 0)
(2.14613 0.0209455 0)
(2.01332 0.0228023 -4.17817e-20)
(1.99219 0.0524857 0)
(1.63377 0.0416234 0)
(-0.0265906 1.75804 -5.15172e-20)
(-0.190608 1.46143 5.10024e-20)
(-0.225259 1.02091 0)
(-0.192787 0.643943 -3.33698e-20)
(-0.0806374 0.162081 0)
(0.103536 -0.486816 -1.64821e-20)
(0.45619 -1.0407 3.27157e-20)
(0.845274 -1.44176 3.25492e-20)
(1.23037 -1.64724 0)
(1.56933 -1.67956 3.21222e-20)
(1.86268 -1.59469 1.61244e-20)
(2.12149 -1.45722 0)
(2.35115 -1.3099 0)
(2.55999 -1.17518 0)
(2.75805 -1.0627 0)
(2.95358 -0.973931 1.5292e-20)
(3.15237 -0.906354 0)
(3.35757 -0.855926 -2.97062e-20)
(3.57185 -0.8165 0)
(3.79402 -0.784519 0)
(4.02458 -0.7534 2.86553e-20)
(4.25941 -0.720058 0)
(4.4962 -0.681098 -2.78933e-20)
(4.73051 -0.629205 1.38107e-20)
(4.95542 -0.568813 -1.36217e-20)
(5.16968 -0.484565 1.34412e-20)
(5.35707 -0.388099 1.32737e-20)
(5.52903 -0.262849 0)
(5.64613 -0.109836 0)
(5.74978 0.0589527 -1.29086e-20)
(5.7981 0.30002 1.24847e-20)
(5.8144 0.518702 0)
(5.77886 0.862165 0)
(5.63399 1.18257 -1.28378e-20)
(5.52994 1.55662 0)
(5.0804 2.05618 0)
(4.79855 2.33907 1.27071e-20)
(3.9968 2.35081 0)
(2.59619 1.51914 -1.20852e-20)
(1.66559 1.15369 2.43859e-20)
(0.976224 1.55003 0)
(0.421466 1.54184 0)
(0.065818 0.912086 4.35406e-20)
(-0.217111 -0.157775 4.2551e-20)
(-0.222551 -1.62929 4.22502e-20)
(0.312639 -3.25949 -2.03716e-20)
(1.23099 -4.09204 2.30904e-20)
(2.376 -3.52745 6.64302e-20)
(3.38457 -2.23616 -4.24387e-20)
(3.79345 -0.907314 -2.15378e-20)
(3.98271 0.436959 0)
(3.60276 1.72605 2.15352e-20)
(2.40622 3.11185 -2.07634e-20)
(1.67319 2.20324 0)
(1.98367 0.223497 0)
(-1.00349 2.14652 0)
(-2.9569 3.1834 2.17525e-20)
(-4.40349 3.15363 0)
(-5.30487 2.60832 -3.88667e-20)
(-6.13516 2.23934 0)
(-6.72191 1.76854 -3.39688e-20)
(-7.23642 1.43498 0)
(-7.62235 1.1007 2.89703e-20)
(-7.94161 0.850912 0)
(-8.17649 0.621031 -2.44877e-20)
(-8.35257 0.445406 1.09417e-20)
(-8.47357 0.299085 0)
(-8.55651 0.195215 1.91829e-20)
(-8.6132 0.123802 9.0623e-21)
(-8.6553 0.0850251 8.39512e-21)
(-8.69655 0.0700179 0)
(-8.74116 0.0705211 7.03371e-21)
(-8.79483 0.0787825 6.76946e-21)
(-8.85407 0.0878704 0)
(-8.91807 0.0953891 -5.94716e-21)
(-8.98389 0.0993678 1.10221e-20)
(-9.05016 0.0988323 0)
(-9.11295 0.0919195 5.09627e-21)
(-9.16797 0.0775503 0)
(-9.21072 0.0554103 -1.42002e-20)
(-9.23682 0.0254275 0)
(-9.24227 -0.0121246 1.41214e-20)
(-9.22154 -0.0566796 4.88564e-21)
(-9.16957 -0.107018 -4.8037e-21)
(-9.08279 -0.161481 -1.01054e-20)
(-8.95874 -0.218094 1.07521e-20)
(-8.79634 -0.274632 0)
(-8.59604 -0.32877 0)
(-8.35988 -0.378359 0)
(-8.09117 -0.421663 -4.39796e-20)
(-7.79423 -0.45748 -1.57939e-20)
(-7.47405 -0.485231 1.68515e-20)
(-7.13581 -0.50499 0)
(-6.78447 -0.517404 1.88244e-20)
(-6.42449 -0.523497 -1.99042e-20)
(-6.0596 -0.524483 -2.0829e-20)
(-5.69277 -0.521622 0)
(-5.32615 -0.516084 0)
(-4.96114 -0.508868 0)
(-4.5985 -0.500781 -2.38344e-20)
(-4.23846 -0.492527 0)
(-3.88098 -0.484502 4.9772e-20)
(-3.52617 -0.476563 7.58946e-20)
(-3.17431 -0.468459 -5.1277e-20)
(-2.82573 -0.459845 0)
(-2.48118 -0.450227 -2.61092e-20)
(-2.14159 -0.439285 0)
(-1.80818 -0.426787 -5.26544e-20)
(-1.4824 -0.412589 2.6344e-20)
(-1.16541 -0.396538 2.63115e-20)
(-0.858221 -0.378564 0)
(-0.562355 -0.358805 7.83292e-20)
(-0.279651 -0.337602 -5.1882e-20)
(-0.0117421 -0.316185 -2.57385e-20)
(0.240638 -0.294614 0)
(0.477207 -0.275514 -2.52158e-20)
(0.698533 -0.256192 -7.47432e-20)
(0.906692 -0.239284 0)
(1.10314 -0.225533 -4.85496e-20)
(1.29047 -0.215565 -4.78908e-20)
(1.47201 -0.209889 -4.72303e-20)
(1.65166 -0.208784 0)
(1.83367 -0.212232 0)
(2.02233 -0.219843 0)
(2.2215 -0.230774 2.23434e-20)
(2.43415 -0.243715 2.21145e-20)
(2.66185 -0.256911 0)
(2.90431 -0.268328 4.31296e-20)
(3.15912 -0.275977 4.26273e-20)
(3.42186 -0.278315 0)
(3.68651 -0.274564 4.16553e-20)
(3.94625 -0.264855 8.2198e-20)
(4.19432 -0.250103 -4.05922e-20)
(4.42456 -0.231558 -3.99887e-20)
(4.63188 -0.210126 0)
(4.81372 -0.186035 0)
(4.97117 -0.159503 0)
(5.1065 -0.1319 -3.7785e-20)
(5.21875 -0.10578 3.72026e-20)
(5.30585 -0.083272 7.33556e-20)
(5.37327 -0.0647008 -3.61649e-20)
(5.43313 -0.0490281 3.56274e-20)
(5.49294 -0.0341413 3.51551e-20)
(5.55208 -0.0180929 0)
(5.60195 0.000279614 0)
(5.63771 0.0236847 -3.37365e-20)
(5.66607 0.0528239 0)
(5.69947 0.0830825 0)
(5.74732 0.106994 6.48847e-20)
(5.80611 0.1235 0)
(5.85184 0.135589 3.15738e-20)
(5.84923 0.140624 -3.11512e-20)
(5.78243 0.132057 0)
(5.67207 0.108483 3.0309e-20)
(5.55658 0.0786449 0)
(5.46481 0.0550623 0)
(5.40144 0.0438664 -2.91007e-20)
(5.34705 0.0422002 5.74474e-20)
(5.27589 0.0438705 -2.83384e-20)
(5.17741 0.0459309 0)
(5.06211 0.0500566 0)
(4.95009 0.0586633 2.713e-20)
(4.85537 0.0696925 0)
(4.7815 0.0775361 2.62818e-20)
(4.72541 0.0764345 0)
(4.6834 0.0663522 0)
(4.65268 0.0526788 0)
(4.63136 0.040455 2.46211e-20)
(4.61686 0.0325108 0)
(4.6067 0.0282324 -2.38389e-20)
(4.59837 0.027483 0)
(4.58826 0.027504 0)
(4.5756 0.0305155 4.5361e-20)
(4.55109 0.0315496 -4.4602e-20)
(4.52296 0.0387881 0)
(4.4658 0.0397322 0)
(4.42415 0.0571303 0)
(4.31037 0.0566316 1.25055e-19)
(4.28397 0.101145 0)
(4.04265 0.0966546 -8.05675e-20)
(0.158022 1.40348 -1.47216e-22)
(0.342888 1.18502 -6.80612e-20)
(0.505028 0.45014 0)
(0.672373 -0.127917 6.68949e-20)
(0.923848 -0.682342 0)
(1.25068 -1.27788 0)
(1.51204 -1.80174 7.57667e-23)
(1.64456 -2.09124 -3.24509e-20)
(1.64034 -2.1174 -3.21712e-20)
(1.55837 -1.95254 -3.21111e-20)
(1.45209 -1.70006 0)
(1.3578 -1.45463 0)
(1.30616 -1.26202 3.11016e-20)
(1.30797 -1.13312 6.16533e-20)
(1.36144 -1.0601 -6.10897e-20)
(1.46039 -1.02788 0)
(1.5983 -1.02163 -5.99432e-20)
(1.76975 -1.03005 2.98205e-20)
(1.96984 -1.04354 0)
(2.19324 -1.05518 -5.79768e-20)
(2.43671 -1.05747 -2.87597e-20)
(2.69342 -1.04753 5.65034e-20)
(2.96091 -1.01889 2.79886e-20)
(3.23245 -0.967783 0)
(3.50204 -0.894199 -5.41176e-20)
(3.76675 -0.786088 -5.33223e-20)
(4.01207 -0.654369 0)
(4.24344 -0.484061 -5.18436e-20)
(4.43744 -0.283415 0)
(4.60935 -0.0571041 -5.06544e-20)
(4.73417 0.22216 -2.53999e-20)
(4.83719 0.505058 0)
(4.93038 0.877543 0)
(4.98975 1.26015 0)
(5.12149 1.71765 0)
(5.13356 2.2346 0)
(5.2587 2.69938 0)
(5.2007 3.16055 -4.82143e-20)
(4.82553 3.26186 7.20633e-20)
(4.13206 2.93929 0)
(3.20394 2.47674 0)
(2.68452 1.91513 0)
(2.40768 1.15356 2.62652e-22)
(2.1194 0.122317 -4.23501e-20)
(1.99857 -1.43228 -8.43942e-20)
(2.04622 -3.42942 8.5417e-20)
(2.13115 -4.8029 4.28595e-20)
(2.34478 -4.48108 -4.34761e-20)
(2.68617 -2.87284 1.16971e-21)
(2.6088 -0.961543 -4.02724e-20)
(2.46517 1.10207 0)
(1.91868 2.77167 -4.02241e-20)
(1.66893 2.84109 1.41761e-21)
(1.13204 2.28163 0)
(-1.25826 3.75545 0)
(-3.69165 4.96373 4.15383e-20)
(-4.61148 4.66305 0)
(-5.32465 4.13723 0)
(-5.71136 3.46909 -3.37042e-20)
(-6.1369 2.87744 -6.83285e-20)
(-6.43246 2.31815 3.39538e-20)
(-6.78986 1.87438 0)
(-7.07512 1.4773 -2.89809e-20)
(-7.36249 1.15288 0)
(-7.57394 0.861009 -2.25978e-20)
(-7.74068 0.621589 -2.25482e-20)
(-7.83866 0.422593 4.01677e-20)
(-7.89651 0.280056 1.80011e-20)
(-7.9218 0.186852 0)
(-7.94451 0.142132 -3.21275e-20)
(-7.98111 0.131649 0)
(-8.04157 0.1414 -4.21951e-20)
(-8.12456 0.157475 -2.6014e-20)
(-8.21908 0.171302 -2.43009e-20)
(-8.31655 0.180839 2.27603e-20)
(-8.41308 0.184864 -3.24319e-20)
(-8.50714 0.181364 0)
(-8.59576 0.167281 0)
(-8.6739 0.14107 1.85212e-20)
(-8.73671 0.102068 2.74214e-20)
(-8.77978 0.0501992 0)
(-8.79827 -0.0148048 -9.33723e-21)
(-8.78679 -0.0916364 0)
(-8.74049 -0.178095 2.87807e-20)
(-8.65564 -0.271268 7.78127e-22)
(-8.52974 -0.367726 -7.30815e-22)
(-8.36175 -0.46361 -2.28269e-20)
(-8.15256 -0.554865 0)
(-7.90491 -0.637811 2.66634e-20)
(-7.62301 -0.709572 4.31006e-22)
(-7.31213 -0.768268 0)
(-6.97811 -0.813099 0)
(-6.6269 -0.844349 0)
(-6.26401 -0.863226 -3.77569e-20)
(-5.89428 -0.871573 0)
(-5.52171 -0.87158 0)
(-5.14939 -0.86553 0)
(-4.77957 -0.85548 0)
(-4.41379 -0.84314 0)
(-4.05306 -0.829769 -4.76737e-20)
(-3.69762 -0.816334 0)
(-3.34724 -0.803338 -4.97842e-20)
(-3.00227 -0.790321 -5.06092e-20)
(-2.66311 -0.776854 5.12885e-20)
(-2.32984 -0.762585 0)
(-2.00293 -0.74667 5.22316e-20)
(-1.68277 -0.728586 0)
(-1.36992 -0.707784 5.26624e-20)
(-1.06539 -0.684025 -5.27032e-20)
(-0.769166 -0.657219 -1.57878e-19)
(-0.482146 -0.626986 0)
(-0.204917 -0.594274 -1.56626e-19)
(0.0609041 -0.559717 -5.18353e-20)
(0.313614 -0.524238 0)
(0.553078 -0.488471 -1.01831e-19)
(0.778814 -0.453628 -1.00723e-19)
(0.990964 -0.420477 1.49321e-19)
(1.1907 -0.390938 0)
(1.37946 -0.366515 4.85212e-20)
(1.55949 -0.348479 4.78638e-20)
(1.73392 -0.337842 1.41506e-19)
(1.90661 -0.335235 0)
(2.08199 -0.340754 0)
(2.26467 -0.353819 0)
(2.45901 -0.373033 4.45461e-20)
(2.66853 -0.396074 0)
(2.89537 -0.41979 0)
(3.13979 -0.440492 -4.31049e-20)
(3.39981 -0.454478 -4.26023e-20)
(3.67136 -0.45867 0)
(3.94866 -0.451209 0)
(4.22477 -0.431746 -8.21474e-20)
(4.49211 -0.401278 0)
(4.74247 -0.361749 7.99804e-20)
(4.96656 -0.316178 7.87789e-20)
(5.15399 -0.269214 0)
(5.29631 -0.225823 0)
(5.39235 -0.187413 -7.54476e-20)
(5.44909 -0.151191 -4.97133e-23)
(5.47569 -0.116071 -4.18846e-23)
(5.47938 -0.086765 0)
(5.47021 -0.0686031 -1.42514e-19)
(5.46746 -0.0599764 0)
(5.49278 -0.0509109 0)
(5.55071 -0.0293433 0)
(5.61838 0.00781185 6.75099e-20)
(5.666 0.048189 0)
(5.68768 0.0692424 -1.31458e-19)
(5.70789 0.0614414 -6.48894e-20)
(5.76235 0.0441547 0)
(5.86532 0.0499763 -6.31569e-20)
(5.98812 0.0904529 0)
(6.07094 0.141744 0)
(6.0671 0.164636 -1.81759e-19)
(5.98141 0.142603 1.19551e-19)
(5.86407 0.094623 0)
(5.77024 0.0551221 1.16412e-19)
(5.72278 0.0469673 -5.74235e-20)
(5.70209 0.0699136 0)
(5.66703 0.104417 0)
(5.59028 0.13115 0)
(5.47661 0.142734 -1.62685e-19)
(5.35284 0.140632 0)
(5.24433 0.127025 -5.25426e-20)
(5.16291 0.10359 0)
(5.1092 0.0756639 0)
(5.07862 0.0506361 0)
(5.06408 0.0326917 0)
(5.05952 0.0225834 0)
(5.0589 0.0173196 0)
(5.06072 0.0159839 -9.37695e-20)
(5.06189 0.0157645 0)
(5.0664 0.0206745 -4.53416e-20)
(5.06769 0.0257702 1.33727e-19)
(5.07364 0.0407328 0)
(5.06271 0.0509012 0)
(5.05747 0.0785163 -8.46697e-20)
(5.0089 0.0881839 -8.32999e-20)
(4.99093 0.138586 8.17846e-20)
(4.88661 0.150496 8.05105e-20)
(0.119018 0.491881 1.03452e-19)
(0.317518 0.64291 1.02644e-19)
(0.561602 0.267574 6.79701e-20)
(0.84026 -0.373248 3.3794e-20)
(1.10421 -1.09324 0)
(1.21674 -1.67671 -6.61633e-20)
(1.109 -1.89491 3.28569e-20)
(0.804048 -1.75045 0)
(0.389117 -1.42738 3.23051e-20)
(0.0748354 -1.14725 0)
(-0.101909 -1.03962 -6.32931e-20)
(-0.188702 -1.06686 0)
(-0.200504 -1.14304 -3.12062e-20)
(-0.156579 -1.22425 -6.18576e-20)
(-0.069473 -1.29997 6.13064e-20)
(0.0526177 -1.37008 0)
(0.204111 -1.43499 6.01504e-20)
(0.382398 -1.49487 0)
(0.587792 -1.54721 0)
(0.818157 -1.58935 5.81555e-20)
(1.0729 -1.61666 0)
(1.34796 -1.62495 -3.4859e-22)
(1.64127 -1.60651 0)
(1.94797 -1.55854 0)
(2.26391 -1.47445 3.18851e-22)
(2.58351 -1.3462 5.34465e-20)
(2.89558 -1.17765 5.23251e-20)
(3.19608 -0.957121 5.195e-20)
(3.46848 -0.694369 0)
(3.71338 -0.395401 1.01037e-19)
(3.91651 -0.0529046 0)
(4.08429 0.293272 4.93585e-20)
(4.21201 0.682838 0)
(4.30796 1.06925 0)
(4.44129 1.48208 -4.8516e-20)
(4.57328 1.96752 0)
(4.79918 2.43829 4.80353e-20)
(5.04668 2.96953 5.0133e-22)
(5.28285 3.46514 -9.49936e-20)
(5.33324 3.66795 9.37553e-20)
(5.04976 3.51366 0)
(4.70761 2.92233 0)
(4.31511 1.94854 4.66465e-20)
(3.8787 0.642804 0)
(3.52749 -1.03371 4.22222e-20)
(3.13304 -3.19757 -4.24867e-20)
(2.69409 -4.6767 -4.28211e-20)
(2.33609 -4.34693 0)
(2.17794 -2.62378 4.13463e-20)
(1.8251 -0.505984 4.03711e-20)
(1.37922 1.3111 -7.78389e-20)
(0.782483 2.7186 4.02892e-20)
(-0.149148 3.92174 4.1438e-20)
(-2.07939 5.46455 0)
(-4.02705 6.55181 0)
(-4.82379 6.24098 -4.13398e-20)
(-5.00938 5.36641 0)
(-5.30275 4.63987 0)
(-5.44068 3.8848 7.24704e-20)
(-5.73271 3.28255 6.83375e-20)
(-5.99786 2.75312 0)
(-6.35532 2.3054 0)
(-6.67813 1.89157 0)
(-6.99244 1.50608 0)
(-7.21794 1.13345 4.71189e-20)
(-7.36297 0.795654 -4.14767e-20)
(-7.4136 0.512251 -4.01939e-20)
(-7.40005 0.310933 -7.29444e-20)
(-7.33993 0.193349 0)
(-7.26857 0.157694 1.18894e-21)
(-7.2188 0.183176 0)
(-7.22002 0.235108 2.79273e-20)
(-7.27705 0.281943 9.42942e-22)
(-7.37432 0.308559 2.43329e-20)
(-7.4888 0.317482 -2.27891e-20)
(-7.60869 0.316129 9.15533e-22)
(-7.73152 0.304134 0)
(-7.85167 0.276723 -1.83213e-20)
(-7.9594 0.232054 -1.85411e-20)
(-8.04732 0.170382 -3.50587e-20)
(-8.11106 0.0918476 0)
(-8.1459 -0.004102 1.67913e-20)
(-8.14528 -0.117772 0)
(-8.10339 -0.245184 -3.67941e-20)
(-8.01639 -0.382224 1.99427e-20)
(-7.88177 -0.523886 -2.12546e-20)
(-7.69849 -0.664375 2.28434e-20)
(-7.46785 -0.797441 4.7777e-20)
(-7.19358 -0.917446 -2.66809e-20)
(-6.88131 -1.02019 2.88238e-20)
(-6.53788 -1.10308 0)
(-6.17073 -1.16529 -6.58124e-20)
(-5.78724 -1.2076 0)