/*--------------------------------*- C++ -*----------------------------------*\
  =========                 |
  \\      /  F ield         | OpenFOAM: The Open Source CFD Toolbox
   \\    /   O peration     | Website:  https://openfoam.org
    \\  /    A nd           | Version:  9
     \\/     M anipulation  |
\*---------------------------------------------------------------------------*/
FoamFile
{
    format      ascii;
    class       volScalarField;
    location    "0.13";
    object      k;
}
// * * * * * * * * * * * * * * * * * * * * * * * * * * * * * * * * * * * * * //

dimensions      [0 2 -2 0 0 0 0];

internalField   nonuniform List<scalar> 
12225
(
0.283096
0.213575
0.165479
0.13295
0.112127
0.100397
0.0959382
0.097438
0.103955
0.11486
0.129794
0.148616
0.171277
0.197529
0.226358
0.255005
0.278805
0.312345
0.349207
0.32478
0.311043
0.310454
0.323752
0.351055
0.391972
0.445668
0.511085
0.587168
0.672914
0.767122
0.867769
0.971051
1.0704
1.15586
1.21631
1.23712
0.361939
0.34809
0.336013
0.326424
0.319943
0.316999
0.317923
0.323071
0.332943
0.348312
0.370312
0.400374
0.439958
0.490086
0.550849
0.621113
0.698844
0.781647
0.365597
0.35501
0.344737
0.335264
0.326935
0.319967
0.314436
0.310329
0.307604
0.306273
0.306497
0.308711
0.313698
0.322569
0.336561
0.356773
0.384098
0.419571
0.366986
0.358232
0.349511
0.34107
0.333092
0.325703
0.318963
0.312876
0.307404
0.302491
0.298095
0.294226
0.290985
0.288591
0.287386
0.287827
0.290576
0.296457
0.367523
0.359723
0.352035
0.344537
0.337308
0.330409
0.32388
0.317733
0.311956
0.30651
0.301345
0.296396
0.291603
0.286929
0.282383
0.278042
0.274074
0.270741
0.367721
0.360372
0.35328
0.346431
0.339832
0.333496
0.327434
0.321653
0.316149
0.310907
0.305897
0.301078
0.296391
0.29177
0.287141
0.282435
0.277613
0.272694
0.367788
0.360631
0.353841
0.347374
0.341198
0.335296
0.329657
0.324274
0.319139
0.314242
0.309564
0.30508
0.300755
0.296545
0.292399
0.288255
0.284057
0.279774
0.367809
0.360726
0.354071
0.347797
0.341865
0.336241
0.330902
0.32583
0.321012
0.316434
0.31208
0.307932
0.303966
0.300154
0.296463
0.292857
0.289304
0.285804
0.367815
0.360757
0.354157
0.34797
0.342158
0.336687
0.331527
0.326658
0.32206
0.317718
0.313616
0.309738
0.306065
0.302578
0.299252
0.296067
0.293004
0.290078
0.367816
0.360768
0.354188
0.348036
0.342277
0.336878
0.331811
0.327054
0.322586
0.318391
0.314454
0.310759
0.307292
0.304036
0.300974
0.298092
0.295378
0.292849
0.367816
0.360771
0.354198
0.348059
0.34232
0.33695
0.331922
0.327214
0.322807
0.318684
0.314831
0.311233
0.307878
0.304751
0.30184
0.299133
0.296623
0.294324
0.367816
0.360772
0.354203
0.34807
0.34234
0.336983
0.331974
0.32729
0.322913
0.318827
0.315018
0.311473
0.30818
0.305128
0.302305
0.299702
0.297315
0.295156
0.367816
0.360773
0.354206
0.348077
0.342352
0.337002
0.332002
0.327329
0.322966
0.318897
0.315108
0.311586
0.30832
0.3053
0.302516
0.29996
0.297628
0.295531
0.367816
0.360773
0.354208
0.348081
0.34236
0.337015
0.33202
0.327354
0.322997
0.318934
0.31515
0.311633
0.308371
0.305354
0.302574
0.300021
0.297692
0.295596
0.367815
0.360772
0.354208
0.348084
0.342367
0.337026
0.332037
0.327375
0.323023
0.318963
0.31518
0.31166
0.308392
0.305366
0.30257
0.299997
0.297639
0.295508
0.367814
0.360771
0.354207
0.348086
0.342372
0.337037
0.332053
0.327397
0.32305
0.318994
0.315212
0.311689
0.308414
0.305374
0.302558
0.299957
0.297562
0.295383
0.367812
0.360767
0.354204
0.348085
0.342376
0.337046
0.332069
0.327422
0.323082
0.319031
0.315252
0.31173
0.30845
0.305398
0.302564
0.299935
0.297503
0.295278
0.367808
0.360761
0.354198
0.348081
0.342377
0.337054
0.332086
0.327447
0.323117
0.319074
0.315302
0.311782
0.308499
0.305441
0.302592
0.299941
0.297478
0.295214
0.367805
0.360755
0.354192
0.348078
0.342378
0.337062
0.332101
0.327471
0.323149
0.319114
0.315347
0.31183
0.308547
0.305484
0.302627
0.299961
0.297478
0.295189
0.367802
0.360751
0.354189
0.348077
0.342382
0.337072
0.332118
0.327495
0.323179
0.31915
0.315387
0.311872
0.308589
0.305523
0.302658
0.299982
0.297485
0.295177
0.3678
0.360749
0.354188
0.34808
0.342389
0.337082
0.332132
0.327511
0.323197
0.319168
0.315403
0.311884
0.308595
0.30552
0.302644
0.299954
0.297439
0.295111
0.367799
0.360748
0.354187
0.348078
0.342382
0.337066
0.332103
0.327465
0.323128
0.31907
0.315273
0.311717
0.308388
0.305269
0.302347
0.299608
0.297043
0.294665
0.367797
0.360737
0.354158
0.348015
0.342268
0.336887
0.331845
0.327117
0.322681
0.318518
0.314611
0.310943
0.307501
0.30427
0.301237
0.298389
0.295717
0.293236
0.367778
0.36066
0.353971
0.347665
0.341709
0.336084
0.330774
0.325767
0.321051
0.316614
0.312444
0.308528
0.304854
0.301408
0.298177
0.295148
0.29231
0.289677
0.367671
0.360275
0.353168
0.346349
0.339832
0.333638
0.327782
0.322271
0.3171
0.312263
0.307748
0.303542
0.299625
0.29598
0.292589
0.289431
0.286491
0.283775
0.367184
0.35884
0.350581
0.342572
0.334946
0.327798
0.321173
0.315083
0.30952
0.304463
0.299877
0.295721
0.291952
0.288529
0.285413
0.282569
0.279966
0.277592
0.365313
0.354466
0.343842
0.333891
0.324928
0.317089
0.310376
0.304733
0.300078
0.296311
0.293323
0.291005
0.289249
0.287948
0.287005
0.286338
0.285878
0.285602
0.357584
0.338127
0.321546
0.309111
0.300939
0.296746
0.296106
0.29852
0.303468
0.310435
0.31893
0.328502
0.338751
0.34933
0.359952
0.370385
0.380478
0.390003
0.314732
0.264088
0.224587
0.193601
0.169289
0.150292
0.135579
0.124342
0.115929
0.109811
0.105546
0.102767
0.101165
0.100482
0.100503
0.10105
0.101976
0.103159
0.0853239
0.137441
0.15711
0.179938
0.190969
0.19234
0.193792
0.198068
0.205877
0.217566
0.233528
0.254319
0.280825
0.309923
0.336799
0.358751
0.371978
0.37111
0.348896
0.296367
0.207782
0.130776
0.0770271
0.0718701
0.0760005
0.0822381
0.0904655
0.0976041
0.0976556
0.0933802
0.0892529
0.0873049
0.0899513
0.0969997
0.107685
0.124861
0.168436
0.334353
0.552237
0.752304
0.934254
1.09187
1.22237
1.32531
1.40176
1.45369
1.48356
1.49405
1.48787
1.46766
1.43595
1.39503
1.34697
1.29354
1.23703
1.18104
1.12566
1.07105
1.01739
0.964853
0.913575
0.863674
0.815247
0.768371
0.723107
0.679496
0.637561
0.597299
0.558688
0.521675
0.486183
0.452116
0.419365
0.387824
0.357405
0.328058
0.299786
0.272657
0.246818
0.222508
0.200123
0.180443
0.165066
0.15324
0.148411
0.160019
0.157532
0.152882
0.157278
0.156561
0.152678
0.147321
0.141789
0.137634
0.138242
0.155138
0.168487
0.179105
0.187995
0.195665
0.202015
0.205429
0.200574
0.177032
0.143654
0.118082
0.0982694
0.083416
0.0730714
0.066728
0.0636768
0.0630628
0.0640369
0.0658863
0.0680898
0.0702176
0.0720025
0.0734159
0.0745835
0.0757633
0.077364
0.0799662
0.0840637
0.0904246
0.100523
0.116635
0.14219
0.16876
0.183617
0.193452
0.198151
0.197556
0.206401
0.292756
0.490759
0.649945
0.753639
0.803776
0.809705
0.782561
0.732922
0.669478
0.602776
0.537467
0.47529
0.417454
0.364642
0.317091
0.274737
0.237532
0.20637
0.187662
0.193668
0.200004
0.229588
0.268266
0.315703
0.371625
0.434732
0.5027
0.574386
0.645571
0.687444
0.675641
0.602925
0.478921
0.333091
0.204536
0.123368
0.0859874
0.0729416
0.065183
0.0576362
0.0512602
0.0444376
0.0370992
0.0313304
0.0302922
0.0338436
0.0401823
0.0556867
0.122444
0.231173
0.265289
0.244576
0.21886
0.19697
0.178365
0.162288
0.148632
0.137452
0.128685
0.122286
0.121058
0.127154
0.140113
0.158383
0.179237
0.198556
0.210556
0.209226
0.197065
0.169845
0.134443
0.100736
0.0870351
0.100343
0.115646
0.121435
0.1156
0.112871
0.145892
0.219155
0.312117
0.360931
0.390761
0.421818
0.460994
0.495247
0.516532
0.525219
0.522721
0.51135
0.493745
0.472493
0.449887
0.427804
0.407659
0.390434
0.376756
0.366997
0.361368
0.359983
0.362837
0.368963
0.375311
0.381827
0.388504
0.395347
0.402364
0.409568
0.416967
0.424568
0.432362
0.44032
0.448387
0.456464
0.464405
0.471999
0.478963
0.484938
0.489497
0.492162
0.492445
0.489901
0.484186
0.47512
0.462722
0.447228
0.429066
0.408816
0.387119
0.364504
0.341579
0.31923
0.301229
0.284325
0.268421
0.255192
0.242825
0.230986
0.219474
0.208333
0.197598
0.1873
0.177404
0.167582
0.15819
0.149344
0.141066
0.133393
0.126471
0.121004
0.117781
0.114867
0.112614
0.111571
0.112291
0.115054
0.119734
0.125823
0.132563
0.139143
0.144871
0.149274
0.15221
0.153738
0.153938
0.152849
0.150437
0.146573
0.14108
0.133837
0.124926
0.114683
0.10369
0.0925824
0.0835647
0.0790565
0.0839924
0.110134
0.164163
0.220851
0.259886
0.292084
0.302647
0.299754
0.292761
0.287703
0.287134
0.291651
0.301718
0.313557
0.325033
0.336273
0.347186
0.357382
0.366049
0.371899
0.373274
0.36826
0.354423
0.337385
0.315966
0.293268
0.270428
0.248377
0.227666
0.208477
0.190694
0.174355
0.160627
0.160144
0.172405
0.185777
0.193568
0.199935
0.216725
0.242851
0.266357
0.264638
0.229799
0.17784
0.1295
0.0959162
0.0761393
0.0677808
0.0719737
0.0834968
0.0900282
0.0481727
0.245408
0.317606
0.264383
0.20785
0.168858
0.142922
0.12462
0.110982
0.10058
0.0926202
0.0865725
0.0820771
0.0794242
0.0796267
0.0834959
0.0918088
0.104558
0.120406
0.136578
0.149502
0.157097
0.155186
0.143276
0.128143
0.122707
0.143975
0.170656
0.191278
0.241041
0.289134
0.309798
0.325846
0.334866
0.337059
0.338582
0.341451
0.34431
0.343933
0.339771
0.333103
0.325516
0.318463
0.312942
0.309404
0.30785
0.308022
0.309583
0.312242
0.315783
0.320043
0.32487
0.330103
0.335687
0.341505
0.347481
0.353602
0.359884
0.366373
0.373141
0.380273
0.387867
0.39602
0.40482
0.414331
0.424589
0.435576
0.44721
0.459319
0.471626
0.483728
0.495093
0.505071
0.512929
0.517922
0.519378
0.516798
0.509939
0.498863
0.483926
0.465731
0.445025
0.422506
0.398632
0.374981
0.354261
0.334756
0.316469
0.299511
0.283701
0.268949
0.25514
0.242194
0.230054
0.218678
0.207978
0.197847
0.188287
0.179302
0.170879
0.163005
0.155663
0.148832
0.142503
0.136568
0.131056
0.126205
0.122159
0.118953
0.116573
0.114945
0.113947
0.113419
0.113191
0.113091
0.112972
0.112708
0.112195
0.111329
0.109991
0.108033
0.105284
0.10159
0.0969017
0.0913648
0.0853753
0.0798274
0.076648
0.0802945
0.0993637
0.138548
0.179437
0.198747
0.21312
0.227472
0.240777
0.255642
0.270693
0.28363
0.294105
0.302963
0.310648
0.31789
0.325
0.332164
0.339521
0.346974
0.353972
0.359356
0.361399
0.357829
0.34741
0.332793
0.314418
0.293897
0.272735
0.252003
0.232357
0.214142
0.197512
0.1826
0.169205
0.156515
0.144502
0.134973
0.128602
0.125245
0.125337
0.127882
0.131763
0.136614
0.140451
0.139056
0.130005
0.114213
0.0980777
0.0903056
0.0934044
0.100673
0.102836
0.0490521
0.282318
0.232941
0.176403
0.141786
0.120811
0.106192
0.0949024
0.0859458
0.0788237
0.0731454
0.068638
0.0651557
0.0627993
0.061972
0.0630288
0.0666994
0.0737597
0.0843418
0.0974753
0.111487
0.125111
0.136351
0.144146
0.154548
0.185373
0.238547
0.318066
0.328393
0.30398
0.29522
0.288647
0.283203
0.278407
0.274755
0.272871
0.272246
0.271953
0.271418
0.270949
0.27106
0.272006
0.273718
0.275916
0.278304
0.280714
0.283149
0.285713
0.288516
0.2916
0.294927
0.298404
0.301922
0.305403
0.308658
0.311654
0.31441
0.316997
0.31953
0.32217
0.32511
0.328566
0.332766
0.33794
0.344308
0.352064
0.361362
0.372289
0.384842
0.39889
0.414142
0.430111
0.446102
0.461222
0.474438
0.484683
0.490991
0.492658
0.489358
0.481185
0.468615
0.452383
0.433257
0.411844
0.391023
0.371497
0.352713
0.334823
0.317918
0.302008
0.28707
0.273068
0.259954
0.247677
0.236186
0.225439
0.215387
0.205984
0.197189
0.188969
0.18129
0.174115
0.167401
0.16109
0.15512
0.14945
0.144036
0.138927
0.134244
0.130053
0.126355
0.123128
0.120326
0.117887
0.115735
0.113784
0.111941
0.110102
0.108162
0.106007
0.103522
0.100589
0.0971104
0.0930556
0.0885715
0.0841848
0.0811614
0.0825923
0.0942548
0.120348
0.151546
0.169177
0.179408
0.19527
0.216332
0.239144
0.259186
0.27328
0.282015
0.287314
0.290391
0.29187
0.29282
0.293595
0.294632
0.296405
0.299216
0.302887
0.306488
0.30822
0.305657
0.29868
0.287595
0.273211
0.256893
0.239946
0.223329
0.207637
0.193193
0.180157
0.168597
0.158535
0.149848
0.141838
0.133367
0.124638
0.116453
0.109198
0.102929
0.097944
0.0949147
0.0940313
0.0944524
0.0957584
0.0989675
0.102962
0.104946
0.107038
0.109571
0.11109
0.0546944
0.182221
0.147451
0.125846
0.1126
0.101449
0.0914135
0.0827199
0.0754024
0.0692647
0.0641002
0.0598111
0.056391
0.0539082
0.052721
0.0529349
0.0548974
0.0593285
0.0669353
0.0778177
0.0918158
0.109443
0.131733
0.16581
0.222422
0.297289
0.364808
0.331208
0.292007
0.266478
0.252028
0.2431
0.237924
0.235507
0.235281
0.236747
0.239324
0.242568
0.246241
0.250211
0.254245
0.258039
0.261351
0.264117
0.266461
0.26862
0.270829
0.27325
0.275945
0.278891
0.282002
0.285153
0.28816
0.290334
0.291512
0.291674
0.290879
0.28927
0.287062
0.28453
0.281986
0.279769
0.27823
0.277724
0.278602
0.281214
0.285889
0.292917
0.302522
0.314817
0.329754
0.347063
0.366195
0.386285
0.40616
0.424418
0.439592
0.450376
0.455868
0.455708
0.450096
0.439661
0.425242
0.408041
0.391001
0.373895
0.357
0.340593
0.324843
0.309837
0.295613
0.28218
0.269526
0.257624
0.246448
0.235964
0.226138
0.216931
0.208307
0.200234
0.192679
0.185608
0.178989
0.172773
0.166905
0.161335
0.156021
0.150948
0.146112
0.141537
0.13728
0.13336
0.129769
0.126481
0.123458
0.120647
0.117982
0.115385
0.112763
0.110013
0.107023
0.103688
0.099939
0.0958082
0.091565
0.0879825
0.0870283
0.0924458
0.108062
0.130778
0.148099
0.156794
0.169936
0.192073
0.218677
0.242616
0.258848
0.267494
0.271148
0.271737
0.270242
0.267423
0.263688
0.259521
0.255615
0.252787
0.251715
0.252555
0.254574
0.255883
0.254497
0.249679
0.241313
0.230135
0.217294
0.203896
0.190762
0.178397
0.167067
0.156887
0.147895
0.140097
0.133473
0.127889
0.122998
0.117856
0.112211
0.106254
0.100269
0.0945179
0.0893316
0.0852644
0.083289
0.0852263
0.0932651
0.105722
0.114879
0.117539
0.117707
0.119673
0.0620861
0.125823
0.122094
0.116497
0.107016
0.0963897
0.086288
0.0775745
0.0703214
0.0642003
0.058942
0.0544971
0.0508774
0.0484031
0.047482
0.0479346
0.0497693
0.0535389
0.0601998
0.070592
0.0860445
0.11086
0.155213
0.220066
0.292073
0.341619
0.317942
0.273577
0.242817
0.225143
0.216131
0.212429
0.212326
0.214753
0.219017
0.224588
0.231014
0.237896
0.244867
0.251589
0.257801
0.2634
0.268465
0.273202
0.277849
0.282592
0.287523
0.292634
0.297836
0.302976
0.307856
0.312255
0.315216
0.316249
0.315211
0.312074
0.306937
0.300036
0.291737
0.282504
0.27286
0.263343
0.254468
0.246712
0.240518
0.236305
0.234484
0.235455
0.239593
0.247212
0.258517
0.273536
0.292034
0.313408
0.336615
0.360169
0.382246
0.400932
0.414629
0.422351
0.423838
0.419479
0.410105
0.398043
0.384635
0.370385
0.35582
0.341314
0.327112
0.313364
0.30016
0.287548
0.275549
0.264166
0.253394
0.243218
0.233621
0.22458
0.216073
0.208074
0.20056
0.193503
0.18687
0.180623
0.174717
0.169114
0.16378
0.158694
0.153846
0.149237
0.144861
0.140733
0.136864
0.13324
0.129835
0.126614
0.123526
0.120508
0.117482
0.114351
0.111005
0.107342
0.103324
0.0990823
0.0950736
0.0924468
0.0935805
0.101489
0.116431
0.131138
0.139588
0.148122
0.166474
0.193602
0.221605
0.242485
0.254056
0.258846
0.259528
0.25746
0.25326
0.247487
0.2403
0.23232
0.2245
0.218009
0.213875
0.212501
0.213241
0.214214
0.213677
0.210503
0.204395
0.195878
0.185889
0.175359
0.164988
0.155197
0.146198
0.138072
0.130835
0.124478
0.118985
0.114319
0.110494
0.107198
0.103887
0.100296
0.0964142
0.0923633
0.0882758
0.0844521
0.081878
0.0829336
0.0910525
0.106246
0.120157
0.125485
0.125994
0.129027
0.0691051
0.117711
0.126741
0.119074
0.10713
0.0949391
0.0841898
0.0756174
0.0687172
0.0627066
0.0572678
0.0525609
0.0486602
0.0468449
0.0469489
0.0486387
0.0519205
0.057416
0.0656142
0.0786465
0.101067
0.139518
0.195611
0.25669
0.299075
0.290006
0.254086
0.223841
0.206295
0.198267
0.196478
0.198745
0.203816
0.210922
0.219538
0.229223
0.239547
0.250107
0.260581
0.270772
0.280638
0.290262
0.299787
0.309351
0.31903
0.32882
0.338627
0.348275
0.357512
0.366019
0.373432
0.379377
0.382491
0.382807
0.380047
0.374037
0.364779
0.35249
0.337612
0.320781
0.302767
0.284394
0.266456
0.249666
0.234644
0.221941
0.212059
0.205468
0.202598
0.203819
0.209427
0.219623
0.234456
0.253689
0.276638
0.302054
0.328085
0.352387
0.372656
0.387243
0.395209
0.396572
0.392621
0.385246
0.37554
0.364355
0.352332
0.339927
0.327458
0.315135
0.303095
0.291424
0.280176
0.269381
0.259057
0.24921
0.239841
0.230943
0.222507
0.214521
0.20697
0.199834
0.193092
0.186716
0.180675
0.17494
0.169483
0.164284
0.159329
0.154611
0.150126
0.145864
0.141828
0.138008
0.134381
0.130918
0.127577
0.124303
0.121024
0.117646
0.11406
0.110175
0.106006
0.101799
0.0982141
0.0967052
0.0995214
0.107946
0.119143
0.126464
0.131113
0.142335
0.165325
0.195191
0.22201
0.239338
0.247893
0.250938
0.25049
0.247215
0.2413
0.23318
0.223184
0.212098
0.201111
0.191702
0.185297
0.18226
0.18202
0.182841
0.183082
0.181448
0.177426
0.171288
0.163756
0.155609
0.147448
0.139647
0.132395
0.125764
0.119767
0.114391
0.109621
0.105444
0.101867
0.0989617
0.0964184
0.0939532
0.091413
0.0888161
0.0862352
0.0837228
0.0818279
0.0825722
0.0896519
0.104819
0.121546
0.13062
0.133517
0.138005
0.0755706
0.12815
0.134104
0.121923
0.108156
0.0954252
0.0851024
0.0773567
0.0709988
0.0649834
0.0593352
0.055108
0.0532692
0.0529612
0.054447
0.0576222
0.0624421
0.0695168
0.0807071
0.0994437
0.129494
0.17171
0.219428
0.253551
0.254982
0.232381
0.207975
0.192515
0.186123
0.186178
0.190586
0.19805
0.207815
0.219379
0.232302
0.24614
0.26047
0.27495
0.289363
0.303614
0.317698
0.331667
0.345585
0.359502
0.373429
0.387316
0.401033
0.414358
0.426969
0.438452
0.448313
0.455586
0.460024
0.461295
0.458837
0.45219
0.441095
0.425588
0.406052
0.38322
0.358097
0.33181
0.305443
0.27991
0.255949
0.23421
0.215362
0.200119
0.189163
0.183011
0.181968
0.186178
0.195746
0.210674
0.230664
0.254894
0.281861
0.309148
0.333752
0.353604
0.366868
0.373297
0.374299
0.371239
0.365212
0.357135
0.347723
0.337506
0.326863
0.316057
0.305266
0.294613
0.284182
0.27403
0.264198
0.254712
0.245591
0.236844
0.228476
0.220489
0.212878
0.205634
0.198745
0.192194
0.185961
0.180026
0.17437
0.168978
0.163838
0.158942
0.154283
0.149852
0.145639
0.141636
0.137821
0.134166
0.130633
0.127171
0.12371
0.120158
0.116405
0.112386
0.10818
0.104147
0.101127
0.100663
0.104352
0.111618
0.118195
0.120313
0.123593
0.137589
0.164151
0.194992
0.219805
0.234548
0.241759
0.244551
0.24409
0.240276
0.232883
0.222546
0.210101
0.196581
0.183262
0.171628
0.163828
0.159754
0.158839
0.1598
0.161009
0.161026
0.159068
0.155134
0.149735
0.143532
0.137078
0.13074
0.124728
0.119144
0.114022
0.109364
0.105155
0.101383
0.0980393
0.0951434
0.0926525
0.0903803
0.088193
0.0860874
0.0841987
0.0826689
0.0817345
0.082682
0.088693
0.102518
0.120244
0.132794
0.139021
0.145148
0.0818475
0.140401
0.139609
0.124728
0.11036
0.0982147
0.0889378
0.0820968
0.0763464
0.0709431
0.0662634
0.0631846
0.062454
0.0628657
0.0651463
0.0693493
0.0759536
0.0861762
0.101952
0.125185
0.155997
0.189752
0.214883
0.220712
0.209759
0.193698
0.18201
0.177531
0.179175
0.185255
0.194606
0.20654
0.220581
0.23628
0.253141
0.270669
0.288425
0.306074
0.323398
0.340286
0.356729
0.372797
0.388605
0.404274
0.419889
0.435461
0.450906
0.466023
0.480493
0.493875
0.505627
0.514896
0.521908
0.525934
0.526128
0.521657
0.511832
0.496258
0.474991
0.448665
0.418495
0.386102
0.353157
0.320988
0.290391
0.261775
0.235531
0.212374
0.193383
0.179621
0.171724
0.169769
0.173712
0.183552
0.199228
0.220286
0.245777
0.273709
0.300288
0.32362
0.34031
0.351005
0.356331
0.357198
0.354616
0.34951
0.34264
0.334585
0.325769
0.316496
0.306982
0.297379
0.2878
0.278326
0.269019
0.259927
0.251083
0.242515
0.234241
0.226272
0.218617
0.211277
0.204248
0.197524
0.191094
0.184947
0.179071
0.173457
0.168096
0.162981
0.158105
0.153459
0.149036
0.144824
0.140804
0.136951
0.133229
0.129591
0.125971
0.122274
0.118403
0.114319
0.110165
0.106393
0.103944
0.104229
0.107972
0.11318
0.115562
0.114446
0.117665
0.133448
0.161123
0.191475
0.21477
0.228486
0.235769
0.239262
0.239377
0.235209
0.226156
0.213448
0.198615
0.183367
0.16879
0.156407
0.147541
0.142759
0.141724
0.143296
0.145836
0.147708
0.147827
0.145904
0.142277
0.137539
0.132254
0.126845
0.121588
0.116645
0.112097
0.107967
0.104243
0.1009
0.0978988
0.0951829
0.0926742
0.0903105
0.0880011
0.0857653
0.0837785
0.0823682
0.0818825
0.0830742
0.0882106
0.100174
0.117365
0.132235
0.141725
0.149555
0.0883961
0.1495
0.144707
0.128218
0.11383
0.10251
0.0942217
0.0883222
0.0836349
0.0794582
0.0760188
0.074049
0.0734364
0.0745665
0.0779157
0.0838459
0.0929873
0.106199
0.1241
0.145993
0.168443
0.185422
0.192036
0.188673
0.180517
0.173545
0.171269
0.174168
0.181337
0.191887
0.20525
0.221004
0.238687
0.257742
0.277556
0.297538
0.317183
0.336117
0.354126
0.371166
0.387351
0.402893
0.41805
0.433058
0.448085
0.463199
0.478357
0.4934
0.508058
0.521944
0.534548
0.545703
0.555291
0.562571
0.566615
0.566362
0.560714
0.548686
0.529629
0.503521
0.471256
0.434732
0.396484
0.358901
0.323476
0.290623
0.260124
0.231942
0.206969
0.186773
0.172796
0.165303
0.164139
0.169147
0.180378
0.19752
0.220082
0.247029
0.273573
0.297517
0.31698
0.331092
0.339916
0.344101
0.34454
0.342119
0.337599
0.331577
0.324504
0.316711
0.308438
0.299866
0.29113
0.282334
0.27356
0.264873
0.256325
0.247957
0.2398
0.231879
0.224209
0.216803
0.209665
0.202797
0.196197
0.18986
0.183782
0.177956
0.172377
0.16704
0.16194
0.157071
0.152427
0.147998
0.143767
0.139713
0.135804
0.132
0.128234
0.124418
0.120463
0.116363
0.112304
0.108796
0.10679
0.107424
0.110609
0.113508
0.112546
0.109489
0.112835
0.12915
0.15631
0.185166
0.207142
0.220606
0.228448
0.23265
0.232857
0.227906
0.217691
0.203959
0.188291
0.172076
0.156694
0.143706
0.134476
0.129714
0.129235
0.131996
0.136287
0.140215
0.142353
0.142152
0.139832
0.135999
0.131303
0.126276
0.121299
0.116624
0.112387
0.108635
0.105357
0.1025
0.0999843
0.0976918
0.0954389
0.0930802
0.0906101
0.0880751
0.0856741
0.0838148
0.0830718
0.0841103
0.0883996
0.0983451
0.11388
0.129572
0.141499
0.150927
0.0936018
0.157981
0.150252
0.132371
0.117735
0.106884
0.0992928
0.0942226
0.0906956
0.0880089
0.0860866
0.0853463
0.0856793
0.0880884
0.0929008
0.100416
0.110818
0.123909
0.138656
0.15294
0.164086
0.170168
0.171129
0.168888
0.166483
0.16662
0.170573
0.178311
0.189377
0.20339
0.22002
0.238832
0.259226
0.280484
0.301856
0.322654
0.342335
0.360572
0.377289
0.39264
0.406945
0.420599
0.433982
0.447388
0.460977
0.474759
0.488619
0.502366
0.515761
0.528543
0.540431
0.551652
0.562
0.570942
0.577677
0.581168
0.580197
0.573456
0.559666
0.537841
0.507792
0.470764
0.429572
0.387785
0.34828
0.31233
0.279722
0.249429
0.221489
0.197256
0.179075
0.167487
0.162392
0.163484
0.170963
0.184483
0.203743
0.227344
0.252757
0.27715
0.298189
0.314547
0.325915
0.332689
0.335609
0.335479
0.333024
0.328829
0.323347
0.316918
0.309802
0.302196
0.294254
0.2861
0.277835
0.269541
0.261285
0.253121
0.245094
0.237238
0.229578
0.222135
0.214922
0.207946
0.201212
0.194722
0.188475
0.182468
0.176701
0.171168
0.165867
0.160794
0.155945
0.151312
0.146883
0.142638
0.138553
0.134592
0.130695
0.12678
0.122769
0.118677
0.114718
0.111415
0.109669
0.110307
0.112608
0.113355
0.109897
0.105587
0.108689
0.124297
0.149685
0.176467
0.197309
0.210819
0.219116
0.223455
0.223311
0.217897
0.207371
0.193376
0.177411
0.160903
0.145389
0.132503
0.123666
0.119673
0.120453
0.124994
0.131422
0.137505
0.141462
0.142536
0.140936
0.137379
0.132673
0.127503
0.122382
0.117654
0.11351
0.11002
0.107162
0.104852
0.102959
0.101298
0.0996293
0.0976336
0.0952619
0.0926176
0.0899002
0.0875017
0.0861008
0.086494
0.0897285
0.0975656
0.110686
0.125705
0.138772
0.149369
0.0973907
0.165992
0.15641
0.137424
0.1223
0.111432
0.10407
0.0994674
0.0968374
0.0955665
0.0954089
0.0958473
0.097687
0.101299
0.106818
0.114149
0.122893
0.1323
0.141353
0.149024
0.154603
0.157937
0.159584
0.160813
0.163255
0.168201
0.176202
0.187287
0.201329
0.218137
0.237354
0.2584
0.280503
0.302792
0.324413
0.344649
0.363028
0.379399
0.393929
0.407032
0.419254
0.431146
0.443145
0.455481
0.468129
0.480825
0.493172
0.504807
0.515521
0.525296
0.534417
0.543319
0.552058
0.560343
0.567531
0.572674
0.574601
0.572007
0.563473
0.547462
0.52267
0.48901
0.44852
0.405153
0.36301
0.324592
0.290789
0.259986
0.231434
0.205635
0.185606
0.171883
0.164438
0.162905
0.167128
0.177328
0.193504
0.214658
0.238623
0.262636
0.284224
0.301811
0.314825
0.323448
0.328266
0.329979
0.329245
0.326614
0.322518
0.317295
0.311208
0.304466
0.297238
0.289664
0.28186
0.273924
0.265936
0.257964
0.250062
0.242276
0.234639
0.227178
0.219915
0.212861
0.206028
0.19942
0.193042
0.186894
0.180975
0.175285
0.169821
0.16458
0.159561
0.154758
0.15016
0.145754
0.141521
0.137429
0.133426
0.129437
0.125396
0.121327
0.117449
0.114268
0.112598
0.113
0.114328
0.113281
0.108024
0.102734
0.105032
0.118907
0.141627
0.165943
0.185628
0.199114
0.207586
0.211775
0.211321
0.205769
0.195303
0.181437
0.165663
0.149471
0.134481
0.122383
0.114647
0.11214
0.114856
0.121713
0.130548
0.138706
0.144071
0.145801
0.144233
0.140304
0.135034
0.129282
0.123686
0.118674
0.114481
0.111188
0.10876
0.107081
0.105968
0.105172
0.104391
0.103265
0.101432
0.0990892
0.0964172
0.0937273
0.0916433
0.0910641
0.0929238
0.0984911
0.108674
0.121706
0.134415
0.145356
0.0994814
0.172992
0.162925
0.143639
0.128243
0.117209
0.109798
0.105329
0.103121
0.102563
0.103027
0.104359
0.106823
0.110456
0.115168
0.12073
0.126803
0.133001
0.138958
0.144374
0.149063
0.153065
0.156809
0.16113
0.167005
0.175182
0.186052
0.199762
0.216296
0.235427
0.256661
0.279251
0.302275
0.324753
0.345791
0.364724
0.38124
0.395422
0.407707
0.418771
0.429367
0.440163
0.451582
0.463675
0.47607
0.488052
0.498767
0.507558
0.514279
0.519449
0.524089
0.528951
0.534324
0.540116
0.545854
0.550679
0.553439
0.552866
0.547665
0.536253
0.516797
0.488188
0.451229
0.409394
0.367202
0.327586
0.293355
0.262753
0.23489
0.21021
0.190035
0.175476
0.166806
0.163694
0.166009
0.174093
0.188157
0.207463
0.230072
0.253355
0.274851
0.292904
0.306812
0.316618
0.322773
0.325874
0.326495
0.325131
0.322182
0.317969
0.312752
0.306745
0.300127
0.293048
0.285639
0.278009
0.270252
0.262445
0.254653
0.24693
0.239317
0.231849
0.22455
0.21744
0.210533
0.203839
0.197362
0.191108
0.185076
0.179268
0.173681
0.168316
0.16317
0.158239
0.153515
0.148988
0.144643
0.140456
0.136381
0.132352
0.128309
0.124275
0.120456
0.117322
0.11559
0.11563
0.116067
0.113662
0.107137
0.100918
0.101878
0.113272
0.132715
0.154222
0.1725
0.185673
0.194064
0.198018
0.197334
0.191796
0.181637
0.168272
0.153159
0.137824
0.123944
0.113256
0.107279
0.106934
0.112206
0.121801
0.133116
0.143012
0.14914
0.150758
0.1485
0.143612
0.137344
0.13071
0.124449
0.119047
0.114771
0.111711
0.109821
0.108954
0.108878
0.10928
0.109781
0.109969
0.109389
0.107789
0.105581
0.102952
0.10036
0.0986739
0.0988474
0.101902
0.108753
0.118746
0.129633
0.13979
0.099202
0.177559
0.168814
0.15049
0.13551
0.124514
0.116892
0.112091
0.109549
0.108719
0.108837
0.110014
0.112119
0.115062
0.118751
0.123079
0.127924
0.133144
0.138565
0.143995
0.149307
0.154584
0.160221
0.16687
0.17523
0.185859
0.199115
0.215164
0.233939
0.25509
0.277975
0.301709
0.325259
0.347578
0.36777
0.385252
0.399869
0.411909
0.422034
0.43113
0.440118
0.449749
0.460419
0.472034
0.48399
0.495292
0.50475
0.511245
0.514216
0.514381
0.514022
0.514413
0.515682
0.517838
0.52068
0.523566
0.525405
0.524921
0.520921
0.511893
0.495852
0.471553
0.438896
0.40062
0.361025
0.323652
0.290021
0.259946
0.232962
0.209348
0.190131
0.17621
0.167704
0.164264
0.165878
0.173045
0.186092
0.204362
0.226009
0.24853
0.269579
0.287566
0.301786
0.312217
0.319218
0.323281
0.324896
0.324495
0.322434
0.319015
0.314488
0.309065
0.302933
0.296251
0.289158
0.281773
0.274199
0.266523
0.258819
0.251145
0.243551
0.236076
0.228751
0.221598
0.214636
0.207877
0.201329
0.194998
0.188887
0.182997
0.177327
0.171878
0.166648
0.161633
0.156827
0.152223
0.147811
0.143571
0.139465
0.135433
0.131419
0.127439
0.12367
0.120531
0.118658
0.118306
0.118034
0.114726
0.107351
0.100183
0.0993975
0.107827
0.123614
0.141983
0.158458
0.170909
0.178969
0.18264
0.181797
0.176399
0.166767
0.154232
0.140196
0.126197
0.11395
0.105244
0.101646
0.104096
0.112451
0.125022
0.138607
0.149602
0.155627
0.156295
0.152692
0.146401
0.138872
0.131229
0.124273
0.118528
0.114287
0.111647
0.110555
0.110823
0.112152
0.114136
0.116304
0.118177
0.119286
0.119092
0.117723
0.115494
0.112655
0.10991
0.108214
0.108529
0.111772
0.117984
0.125809
0.133944
0.0955756
0.177736
0.172156
0.156231
0.142695
0.132344
0.124722
0.119493
0.116329
0.114445
0.113953
0.114594
0.116212
0.118715
0.122042
0.126136
0.130906
0.136215
0.141886
0.147761
0.153807
0.160209
0.167389
0.175914
0.186354
0.199176
0.214684
0.232976
0.253881
0.276929
0.301363
0.3262
0.350329
0.372652
0.392261
0.408602
0.421607
0.431677
0.439604
0.446403
0.453113
0.460571
0.469222
0.479033
0.489549
0.500054
0.509375
0.515087
0.514767
0.510639
0.506691
0.503388
0.500593
0.4986
0.497622
0.497343
0.496842
0.494885
0.490284
0.481749
0.467652
0.446367
0.417509
0.383056
0.346633
0.31155
0.279512
0.250813
0.225375
0.203601
0.186337
0.174133
0.166822
0.164054
0.166022
0.173386
0.186458
0.204491
0.225618
0.24745
0.267844
0.285392
0.299485
0.3101
0.31753
0.32218
0.324455
0.32472
0.323291
0.320443
0.316415
0.311419
0.305641
0.299248
0.292384
0.285176
0.277735
0.270152
0.262507
0.254866
0.247282
0.239798
0.23245
0.225264
0.21826
0.211454
0.204856
0.198473
0.19231
0.186368
0.180648
0.175151
0.169876
0.164817
0.159973
0.155337
0.150902
0.146653
0.142557
0.138562
0.134614
0.130714
0.127002
0.123842
0.121796
0.121084
0.120336
0.116569
0.108717
0.100617
0.097847
0.103063
0.114992
0.129941
0.144167
0.155433
0.162873
0.16619
0.16525
0.160089
0.151181
0.139772
0.127187
0.114947
0.104809
0.0986264
0.0980064
0.103829
0.115647
0.131152
0.146432
0.157574
0.162494
0.161426
0.155986
0.14805
0.139192
0.130586
0.123064
0.117179
0.113241
0.11135
0.111411
0.113152
0.116143
0.11985
0.123706
0.127208
0.129952
0.131553
0.131497
0.130171
0.127636
0.124296
0.120971
0.118613
0.118226
0.120328
0.124264
0.129285
0.0876593
0.171811
0.170881
0.158411
0.147273
0.138455
0.131589
0.126463
0.122693
0.120457
0.11959
0.119926
0.121352
0.123786
0.127155
0.131364
0.136288
0.141771
0.147673
0.153938
0.160663
0.168129
0.176768
0.187084
0.199557
0.214571
0.23235
0.252906
0.275979