/*--------------------------------*- C++ -*----------------------------------*\
  =========                 |
  \\      /  F ield         | OpenFOAM: The Open Source CFD Toolbox
   \\    /   O peration     | Website:  https://openfoam.org
    \\  /    A nd           | Version:  9
     \\/     M anipulation  |
\*---------------------------------------------------------------------------*/
FoamFile
{
    format      ascii;
    class       volScalarField;
    location    "0.017";
    object      k_0;
}
// * * * * * * * * * * * * * * * * * * * * * * * * * * * * * * * * * * * * * //

dimensions      [0 2 -2 0 0 0 0];

internalField   nonuniform List<scalar> 
12225
(
6.28557e-05
0.000118637
0.000135741
0.000136563
0.000131853
0.000110683
6.89787e-05
4.48336e-05
3.67413e-05
3.65199e-05
4.26172e-05
6.65933e-05
8.73806e-05
9.65939e-05
9.84877e-05
9.72007e-05
8.5134e-05
5.93351e-05
2.04498e-05
2.58758e-05
3.48838e-05
3.88894e-05
3.93891e-05
3.85818e-05
3.43923e-05
2.90954e-05
2.68724e-05
2.65052e-05
2.69269e-05
2.91662e-05
3.57021e-05
4.48473e-05
5.51441e-05
6.32735e-05
6.5384e-05
6.39596e-05
2.00622e-05
1.47453e-05
1.22751e-05
1.27049e-05
1.46217e-05
1.58182e-05
1.58979e-05
1.53384e-05
1.43054e-05
1.39205e-05
1.3892e-05
1.41137e-05
1.51523e-05
1.86056e-05
2.24397e-05
2.42671e-05
2.68104e-05
3.11476e-05
2.49786e-05
2.33062e-05
2.04135e-05
1.97338e-05
1.98921e-05
1.99886e-05
1.98558e-05
1.91042e-05
1.63622e-05
1.4344e-05
1.3978e-05
1.4299e-05
1.54023e-05
1.58327e-05
1.5764e-05
1.4613e-05
1.29025e-05
1.24945e-05
2.54438e-05
2.67238e-05
2.30427e-05
2.31878e-05
2.35407e-05
2.22814e-05
2.13499e-05
2.06143e-05
2.00271e-05
1.98302e-05
1.99465e-05
2.08573e-05
2.50459e-05
2.88596e-05
2.95524e-05
2.91459e-05
2.67321e-05
2.29925e-05
2.2021e-05
2.19087e-05
2.28603e-05
3.00874e-05
3.08672e-05
2.7367e-05
2.30183e-05
2.12108e-05
2.05659e-05
2.04316e-05
2.04999e-05
2.10927e-05
2.40167e-05
2.87669e-05
3.08206e-05
3.09544e-05
2.98475e-05
2.70622e-05
2.05685e-05
2.07224e-05
2.529e-05
6.71311e-05
0.000125934
0.00012482
8.4195e-05
4.33152e-05
2.84115e-05
2.339e-05
2.20968e-05
2.20382e-05
2.24137e-05
2.42975e-05
2.66211e-05
2.7201e-05
2.6857e-05
2.59807e-05
2.01038e-05
2.06471e-05
2.5216e-05
4.69554e-05
6.26387e-05
6.06371e-05
4.29824e-05
3.06565e-05
2.81665e-05
2.91724e-05
3.09985e-05
3.0792e-05
2.8395e-05
2.54094e-05
2.38593e-05
2.31722e-05
2.30486e-05
2.32002e-05
2.10696e-05
2.074e-05
2.21448e-05
2.34703e-05
2.36666e-05
2.34693e-05
2.34552e-05
2.49852e-05
3.18228e-05
3.51218e-05
3.4741e-05
3.12518e-05
2.65548e-05
2.39769e-05
2.28298e-05
2.25039e-05
2.25106e-05
2.28603e-05
2.15792e-05
2.08722e-05
2.06988e-05
2.08265e-05
2.08588e-05
2.08675e-05
2.09712e-05
2.16149e-05
2.4808e-05
3.18483e-05
3.48134e-05
3.43228e-05
2.99385e-05
2.59262e-05
2.40318e-05
2.32898e-05
2.31262e-05
2.31885e-05
2.62415e-05
2.61721e-05
2.22325e-05
2.09868e-05
2.09551e-05
2.1377e-05
2.3164e-05
2.75435e-05
3.05795e-05
3.14896e-05
3.15205e-05
3.08341e-05
2.80804e-05
2.58225e-05
2.45023e-05
2.37911e-05
2.34818e-05
2.34344e-05
2.07742e-05
2.09343e-05
2.10423e-05
2.13525e-05
2.16839e-05
2.22694e-05
2.35212e-05
2.72887e-05
3.20411e-05
3.40004e-05
3.39745e-05
3.20615e-05
2.75295e-05
2.46767e-05
2.3119e-05
2.23768e-05
2.20817e-05
2.20062e-05
2.00639e-05
2.0785e-05
2.19413e-05
2.22172e-05
2.21379e-05
2.21022e-05
2.22683e-05
2.32729e-05
2.44315e-05
2.48016e-05
2.47727e-05
2.4231e-05
2.28214e-05
2.19346e-05
2.15657e-05
2.14965e-05
2.15485e-05
2.16705e-05
2.01097e-05
2.14193e-05
2.25132e-05
2.2541e-05
2.24268e-05
2.23773e-05
2.23668e-05
2.24137e-05
2.25334e-05
2.25625e-05
2.25342e-05
2.23704e-05
2.22711e-05
2.22894e-05
2.25679e-05
2.41438e-05
2.78006e-05
2.94099e-05
2.12958e-05
2.1562e-05
2.12628e-05
2.06931e-05
2.06394e-05
2.09292e-05
2.19627e-05
2.24435e-05
2.24648e-05
2.22718e-05
2.21393e-05
2.21666e-05
2.21797e-05
2.20873e-05
2.21098e-05
2.2356e-05
2.32452e-05
2.65633e-05
2.14184e-05
2.21157e-05
2.18425e-05
2.14793e-05
2.15998e-05
2.18415e-05
2.23804e-05
2.27031e-05
2.27963e-05
2.28499e-05
2.28478e-05
2.27263e-05
2.24558e-05
2.2323e-05
2.22957e-05
2.23146e-05
2.24483e-05
2.30161e-05
2.00896e-05
2.05947e-05
2.12383e-05
2.27318e-05
2.44669e-05
2.51619e-05
2.51046e-05
2.4236e-05
2.25265e-05
2.15971e-05
2.12239e-05
2.11212e-05
2.11243e-05
2.1259e-05
2.18965e-05
2.3082e-05
2.39861e-05
2.56218e-05
2.02643e-05
2.14614e-05
2.32298e-05
2.38145e-05
2.38832e-05
2.30898e-05
2.1853e-05
2.13842e-05
2.13191e-05
2.13901e-05
2.1796e-05
2.26869e-05
2.36835e-05
2.47541e-05
2.58979e-05
2.66994e-05
2.6893e-05
2.678e-05
2.02748e-05
2.03844e-05
2.10406e-05
2.14344e-05
2.16375e-05
2.21793e-05
2.28672e-05
2.29306e-05
2.253e-05
2.17374e-05
2.15034e-05
2.15536e-05
2.21775e-05
2.43351e-05
2.55183e-05
2.55758e-05
2.4928e-05
2.42386e-05
2.06352e-05
2.13301e-05
2.10705e-05
2.09071e-05
2.08861e-05
2.09031e-05
2.097e-05
2.09974e-05
2.09949e-05
2.09893e-05
2.09944e-05
2.09934e-05
2.1027e-05
2.1265e-05
2.14583e-05
2.15565e-05
2.16239e-05
2.17505e-05
2.00434e-05
2.04436e-05
2.07229e-05
2.07486e-05
2.06275e-05
2.04973e-05
2.04967e-05
2.05995e-05
2.10862e-05
2.26227e-05
2.40074e-05
2.44694e-05
2.4372e-05
2.3834e-05
2.29296e-05
2.22823e-05
2.18261e-05
2.15344e-05
2.05036e-05
2.06627e-05
2.09491e-05
2.13883e-05
2.15775e-05
2.18278e-05
2.21716e-05
2.23381e-05
2.23576e-05
2.22975e-05
2.19396e-05
2.14396e-05
2.11538e-05
2.10232e-05
2.09885e-05
2.09968e-05
2.10809e-05
2.11491e-05
2.22515e-05
2.13635e-05
2.13915e-05
2.21908e-05
2.27213e-05
2.27693e-05
2.26253e-05
2.24402e-05
2.22017e-05
2.18758e-05
2.16179e-05
2.15122e-05
2.15061e-05
2.15799e-05
2.19989e-05
2.33752e-05
2.45324e-05
2.4995e-05
2.22206e-05
2.22977e-05
2.1924e-05
2.12497e-05
2.10061e-05
2.10226e-05
2.1064e-05
2.10559e-05
2.10563e-05
2.10641e-05
2.10816e-05
2.11169e-05
2.11982e-05
2.14342e-05
2.21923e-05
2.51188e-05
2.90681e-05
3.11847e-05
2.17203e-05
2.22914e-05
2.192e-05
2.11139e-05
2.1093e-05
2.16949e-05
2.20305e-05
2.17497e-05
2.1686e-05
2.18915e-05
2.22254e-05
2.24817e-05
2.29043e-05
2.38207e-05
2.67539e-05
3.02063e-05
3.16034e-05
3.16524e-05
2.19005e-05
2.31893e-05
2.27018e-05
2.1361e-05
2.08801e-05
2.08076e-05
2.08225e-05
2.09438e-05
2.15293e-05
2.256e-05
2.3108e-05
2.32658e-05
2.32552e-05
2.30454e-05
2.24381e-05
2.19904e-05
2.16509e-05
2.14891e-05
2.00891e-05
2.00498e-05
1.97773e-05
1.97992e-05
2.06085e-05
2.24019e-05
2.28334e-05
2.26211e-05
2.18197e-05
2.14976e-05
2.14943e-05
2.15426e-05
2.15235e-05
2.13689e-05
2.08267e-05
1.86347e-05
1.56242e-05
1.48446e-05
2.00008e-05
7.42031e-06
5.53381e-06
6.06198e-06
7.87304e-06
1.10906e-05
1.28755e-05
1.34496e-05
1.35219e-05
1.34951e-05
1.34964e-05
1.35656e-05
1.38683e-05
1.41754e-05
1.4327e-05
1.43744e-05
1.43774e-05
1.43459e-05
2.06013e-05
2.12953e-05
2.17881e-05
2.17836e-05
2.14996e-05
2.11819e-05
2.11517e-05
2.13302e-05
2.2398e-05
2.45348e-05
2.58126e-05
2.62461e-05
2.62357e-05
2.58642e-05
2.49524e-05
2.44234e-05
2.42404e-05
2.42169e-05
0.000101768
7.7042e-05
5.50545e-05
4.33369e-05
3.36871e-05
2.88345e-05
2.8118e-05
2.96972e-05
3.86799e-05
4.7509e-05
5.00827e-05
4.98837e-05
4.62769e-05
3.83707e-05
3.38975e-05
3.20232e-05
3.14533e-05
3.1361e-05
4.16102e-05
6.1488e-05
0.000119377
0.000197609
0.000293931
0.000425605
0.000595645
0.000780892
0.00098539
0.00119583
0.00142425
0.00169058
0.00182919
0.00197797
0.00227867
0.00246862
0.0028966
0.00405231
0.00689655
0.0155555
0.0226051
0.0249361
0.0312658
0.0616913
0.103339
0.0923959
0.0342678
0.015814
0.0123153
0.0119305
0.012275
0.0122996
0.0121265
0.0104926
0.00896451
0.00693189
0.00558619
0.0039744
0.00279969
0.0019904
0.00144041
0.000929957
0.000698056
0.000554984
0.000491647
0.00047491
0.000471483
0.000459856
0.000450579
0.000426126
0.000406931
0.000394874
0.000381038
0.000365127
0.000351531
0.000338685
0.000324409
0.000310466
0.000298747
0.000288331
0.000277632
0.000266239
0.000256001
0.00024834
0.000238286
0.000229076
0.000220613
0.000210497
0.000197352
0.000186506
0.000175632
0.000160635
0.000148044
0.000134225
0.000120298
0.000104852
9.07185e-05
7.6753e-05
6.54327e-05
5.65467e-05
4.93093e-05
4.31472e-05
3.77407e-05
3.29549e-05
2.87174e-05
2.49733e-05
2.16782e-05
1.87764e-05
1.62413e-05
1.40148e-05
1.20311e-05
1.02881e-05
8.80945e-06
7.54154e-06
6.39301e-06
5.34232e-06
4.39404e-06
3.55842e-06
2.84295e-06
2.24808e-06
1.76491e-06
1.37411e-06
1.05869e-06
8.06745e-07
6.07925e-07
4.52943e-07
3.33583e-07
2.4282e-07
1.74593e-07
1.2403e-07
8.69849e-08
6.01518e-08
4.12132e-08
2.79943e-08
1.88566e-08
1.25977e-08
8.34816e-09
5.48736e-09
3.57764e-09
2.31346e-09
1.48357e-09
9.43366e-10
5.94749e-10
3.7174e-10
2.30355e-10
1.41527e-10
8.62258e-11
5.21057e-11
3.12397e-11
1.85883e-11
1.09806e-11
6.44172e-12
3.75404e-12
2.1739e-12
1.25121e-12
7.15906e-13
4.07269e-13
2.30383e-13
1.296e-13
7.25143e-14
4.03708e-14
2.238e-14
1.23716e-14
6.83797e-15
3.79727e-15
2.13679e-15
1.23575e-15
7.50087e-16
4.904e-16
3.5308e-16
2.81814e-16
2.46143e-16
2.2965e-16
2.23401e-16
2.2205e-16
2.22045e-16
2.22045e-16
2.22045e-16
2.22045e-16
2.22045e-16
2.22045e-16
2.22045e-16
2.22045e-16
2.22045e-16
2.22045e-16
2.22045e-16
2.22045e-16
2.22045e-16
2.22045e-16
2.22045e-16
2.22045e-16
2.22045e-16
2.22045e-16
2.22045e-16
2.22045e-16
2.22045e-16
5.09653e-16
2.91727e-13
2.90037e-10
2.83569e-07
0.000101635
0.000263874
0.000544759
0.000937146
0.00145866
0.00210858
0.00282375
0.00358387
0.00446455
0.00545335
0.00649864
0.00765232
0.00880428
0.00971872
0.0111178
0.0148454
0.024962
0.0402051
0.0550489
0.0639825
0.0658392
0.0634038
0.0593674
0.0582872
0.0446773
0.0261969
0.0146763
0.0105795
0.00887307
0.00771613
0.0066491
0.00552222
0.00441364
0.00338075
0.00274514
0.00223531
0.00199793
0.00183016
0.00176477
0.00174524
0.00174587
0.00176993
0.00177973
0.00178244
0.00177142
0.00172587
0.00167284
0.00162686
0.00155563
0.00146713
0.00139211
0.00132868
0.00126679
0.00121196
0.00116373
0.00111225
0.00106161
0.00102036
0.000978153
0.000933188
0.000894205
0.000855267
0.00082081
0.000802306
0.000778842
0.00074565
0.000718141
0.000688987
0.00064783
0.000628982
0.000587519
0.000547371
0.000513519
0.00047266
0.0004341
0.00039232
0.000355688
0.000305554
0.000249453
0.000210765
0.000181484
0.000158816
0.000139382
0.00012225
0.000107106
9.37232e-05
8.19233e-05
7.14962e-05
6.23859e-05
5.4553e-05
4.78748e-05
4.21195e-05
3.70484e-05
3.25354e-05
2.85329e-05
2.49591e-05
2.17364e-05
1.88065e-05
1.61301e-05
1.36798e-05
1.14628e-05
9.50005e-06
7.79719e-06
6.34146e-06
5.11169e-06
4.08414e-06
3.23471e-06
2.53992e-06
1.97771e-06
1.5273e-06
1.16979e-06
8.88335e-07
6.6795e-07
4.96786e-07
3.65241e-07
2.65317e-07
1.90384e-07
1.34889e-07
9.43689e-08
6.51968e-08
4.44789e-08
2.99648e-08
1.9935e-08
1.30982e-08
8.50141e-09
5.45223e-09
3.45644e-09
2.16701e-09
1.34431e-09
8.25645e-10
5.02325e-10
3.02906e-10
1.81125e-10
1.07445e-10
6.3256e-11
3.69706e-11
2.14563e-11
1.23672e-11
7.08027e-12
4.02642e-12
2.27457e-12
1.27647e-12
7.11713e-13
3.94339e-13
2.17208e-13
1.19017e-13
6.49408e-14
3.53398e-14
1.92232e-14
1.04867e-14
5.76562e-15
3.21877e-15
1.84496e-15
1.10288e-15
7.01387e-16
4.83868e-16
3.6577e-16
3.01464e-16
2.66314e-16
2.47004e-16
2.36322e-16
2.30355e-16
2.26979e-16
2.25039e-16
2.23904e-16
2.23225e-16
2.22809e-16
2.22547e-16
2.22378e-16
2.22265e-16
2.22188e-16
2.22137e-16
2.22103e-16
2.2208e-16
2.22065e-16
2.2208e-16
2.41921e-16
2.16239e-14
2.3308e-11
2.13691e-08
0.00012208
0.000460348
0.000907264
0.00145631
0.00217823
0.00306936
0.00414075
0.00545015
0.00691746
0.00857656
0.0105949
0.0131066
0.0163884
0.0207522
0.0260103
0.0316168
0.0368761
0.0420379
0.045245
0.0449515
0.0412619
0.0348536
0.0259335
0.0174239
0.0114636
0.00750408
0.00564173
0.00462821
0.00384544
0.00328484
0.00276732
0.00250216
0.00232436
0.0022574
0.00224011
0.00225609
0.00232343
0.00246437
0.00261629
0.00274121
0.00286351
0.0029224
0.00297866
0.00300416
0.00302273
0.0030273
0.0030084
0.00291221
0.00280511
0.00271856
0.00258765
0.002446
0.0023191
0.00221704
0.00212181
0.00200414
0.00190396
0.00185124
0.00176915
0.00165993
0.00159909
0.00154428
0.00145653
0.00141093
0.00137841
0.00131626
0.0012713
0.00122818
0.00113601
0.00109452
0.00100066
0.000921548
0.000858858
0.000771573
0.000689554
0.000610601
0.000535338
0.00046496
0.000400767
0.00034464
0.00029874
0.000264939
0.000235364
0.000208645
0.000184615
0.000163066
0.000142993
0.000123402
0.000104362
8.70749e-05
7.28152e-05
6.11817e-05
5.15923e-05
4.37462e-05
3.73385e-05
3.20985e-05
2.7793e-05
2.42268e-05
2.12349e-05
1.86652e-05
1.63854e-05
1.43418e-05
1.24845e-05
1.07886e-05
9.24565e-06
7.85184e-06
6.60406e-06
5.49832e-06
4.52946e-06
3.69197e-06
2.97793e-06
2.37672e-06
1.87687e-06
1.46631e-06
1.13299e-06
8.65519e-07
6.53458e-07
4.87436e-07
3.59098e-07
2.6118e-07
1.87492e-07
1.32816e-07
9.28386e-08
6.4044e-08
4.36136e-08
2.93331e-08
1.94971e-08
1.28185e-08
8.34439e-09
5.38254e-09
3.44233e-09
2.18357e-09
1.37417e-09
8.58037e-10
5.31555e-10
3.26667e-10
1.99108e-10
1.20339e-10
7.2104e-11
4.28234e-11
2.52075e-11
1.47064e-11
8.50502e-12
4.87709e-12
2.77441e-12
1.56674e-12
8.79043e-13
4.90518e-13
2.72533e-13
1.50944e-13
8.34391e-14
4.60928e-14
2.54827e-14
1.4128e-14
7.87914e-15
4.44262e-15
2.55331e-15
1.51443e-15
9.42631e-16
6.27242e-16
4.52586e-16
3.55229e-16
3.00403e-16
2.69138e-16
2.50987e-16
2.40258e-16
2.33777e-16
2.29716e-16
2.27149e-16
2.25442e-16
2.24285e-16
2.23567e-16
2.23017e-16
2.22794e-16
2.22917e-16
2.24017e-16
2.69233e-16
1.30471e-15
9.63265e-13
7.93136e-10
0.000154488
0.000541743
0.00103767
0.00161867
0.00234792
0.00324919
0.00449808
0.00605452
0.00763877
0.00942444
0.011667
0.0141366
0.0166479
0.0192892
0.0217771
0.0233562
0.0239773
0.0231304
0.0205299
0.018029
0.0149071
0.0113233
0.00786428
0.00557989
0.00434608
0.00328365
0.00284594
0.00253232
0.00233567
0.00225141
0.00222794
0.00228682
0.00236848
0.00249264
0.00276615
0.0030784
0.00336099
0.00358365
0.00378533
0.00397525
0.00416973
0.00432154
0.00447123
0.00456464
0.00463719
0.00466278
0.00466231
0.00455397
0.0043954
0.0042254
0.00406992
0.00390603
0.0036272
0.00344788
0.00332826
0.00311966
0.0029313
0.00283362
0.00273397
0.00257134
0.00246472
0.00239479
0.00225498
0.00214909
0.00209357
0.00199504
0.00191652
0.00185286
0.00177492
0.00169148
0.00156263
0.00142097
0.00125623
0.00107001
0.000890625
0.000736574
0.000617227
0.000522383
0.0004484
0.00038979
0.000342904
0.000304945
0.000272724
0.000244271
0.000218662
0.000195906
0.000176479
0.000160294
0.000145772
0.000130422
0.000112423
9.3079e-05
7.50729e-05
6.039e-05
4.87855e-05
3.97907e-05
3.29303e-05
2.76835e-05
2.36155e-05
2.04205e-05
1.789e-05
1.58051e-05
1.39783e-05
1.22692e-05
1.06755e-05
9.20487e-06
7.8642e-06
6.65907e-06
5.58958e-06
4.64967e-06
3.83178e-06
3.12847e-06
2.53074e-06
2.02844e-06
1.6108e-06
1.26701e-06
9.86918e-07
7.61116e-07
5.80978e-07
4.38823e-07
3.27918e-07
2.42441e-07
1.774e-07
1.2855e-07
9.23114e-08
6.57331e-08
4.64243e-08
3.25143e-08
2.25755e-08
1.55353e-08
1.05935e-08
7.15655e-09
4.78862e-09
3.1728e-09
2.08101e-09
1.35079e-09
8.67518e-10
5.51161e-10
3.46383e-10
2.1534e-10
1.32445e-10
8.06096e-11
4.85648e-11
2.89751e-11
1.71285e-11
1.00386e-11
5.837e-12
3.37018e-12
1.93396e-12
1.10383e-12
6.27042e-13
3.54698e-13
1.99899e-13
1.1231e-13
6.29628e-14
3.52732e-14
1.97926e-14
1.11626e-14
6.35918e-15
3.68554e-15
2.19488e-15
1.36119e-15
8.90772e-16
6.23368e-16
4.68006e-16
3.76805e-16
3.22168e-16
2.8698e-16
2.65557e-16
2.52078e-16
2.41753e-16
2.39567e-16
2.42792e-16
2.57237e-16
3.5263e-16
7.39059e-16
2.29688e-14
4.14567e-14
2.09876e-13
3.32313e-11
0.000164169
0.000558214
0.0010113
0.00155005
0.00218657
0.00287477
0.00361726
0.00438673
0.0053359
0.00666741
0.00823808
0.00961017
0.0106858
0.0113554
0.0116586
0.0117612
0.0112299
0.0102271
0.00893669
0.00736042
0.00578653
0.00445555
0.00339251
0.00272597
0.00240415
0.00217551
0.00209767
0.00207349
0.00210421
0.00220169
0.00231789
0.00256569
0.00291285
0.00338816
0.00374722
0.0040586
0.00448904
0.00490697
0.00544563
0.0059918
0.00653894
0.00702281
0.0074261
0.00776265
0.00802755
0.00815022
0.00817806
0.00793724
0.00754069
0.00693653
0.00665087
0.00622105
0.00571579
0.00526477
0.00497339
0.00450155
0.0042666
0.00391514
0.00375129
0.00351965
0.0032335
0.00310259
0.00289285
0.00265627
0.00250757
0.00230999
0.00217842
0.00205058
0.00198622
0.00188821
0.00177539
0.00161665
0.00144809
0.00128402
0.00112752
0.000962025
0.00078553
0.00062257
0.0004958
0.000412104
0.000353561
0.000310412
0.000276662
0.000249367
0.000225313
0.000203372
0.000183167
0.000165847
0.000153219
0.000143816
0.00013563
0.000126376
0.000113465
9.57933e-05
7.58437e-05
5.76712e-05
4.36693e-05
3.32703e-05
2.57867e-05
2.0508e-05
1.67712e-05
1.40711e-05
1.21025e-05
1.06883e-05
9.57798e-06
8.56734e-06
7.54528e-06
6.53991e-06
5.58745e-06
4.71238e-06
3.92871e-06
3.24095e-06
2.64744e-06
2.1426e-06
1.7186e-06
1.36653e-06
1.07724e-06
8.41854e-07
6.5213e-07
5.00637e-07
3.80811e-07
2.86945e-07
2.14132e-07
1.58214e-07
1.15719e-07
8.37555e-08
5.99756e-08
4.24819e-08
2.97568e-08
2.06091e-08
1.41095e-08
9.54461e-09
6.38107e-09
4.2152e-09
2.75027e-09
1.77179e-09
1.12664e-09
7.06898e-10
4.37533e-10
2.67081e-10
1.60755e-10
9.5395e-11
5.58152e-11
3.2209e-11
1.83435e-11
1.03215e-11
5.74646e-12
3.17025e-12
1.7365e-12
9.46988e-13
5.15831e-13
2.8169e-13
1.54838e-13
8.59959e-14
4.83975e-14
2.76612e-14
1.61016e-14
9.58323e-15
5.86084e-15
3.70482e-15
2.43267e-15
1.65904e-15
1.17936e-15
8.7505e-16
6.70058e-16
5.4534e-16
4.50962e-16
3.86146e-16
3.83342e-16
4.24148e-16
6.02405e-16
1.16282e-15
3.49467e-15
7.75552e-15
4.7666e-14
1.48669e-13
6.3521e-12
6.69278e-12
5.8551e-11
5.93281e-11
0.000148334
0.000502958
0.000898859
0.00135302
0.00187263
0.00240205
0.00293574
0.00344299
0.00401486
0.00470379
0.00531507
0.00567357
0.0058843
0.00596662
0.00590986
0.00572746
0.00535486
0.00476078
0.00418686
0.00350285
0.00283637
0.00246173
0.00218432
0.00203766
0.00198082
0.00196631
0.0020157
0.00208773
0.00223576
0.00253164
0.00294261
0.00344499
0.00394684
0.00436148
0.00487217
0.00552326
0.00643029
0.00759235
0.00900022
0.010654
0.0124564
0.0142313
0.0157615
0.0169532
0.0175363
0.0177473
0.0175804
0.0165805
0.0155982
0.0138369
0.0126235
0.0111166
0.0103139
0.00895202
0.00835201
0.00702134
0.00645255
0.00579441
0.00521512
0.00495019
0.00450266
0.00428835
0.00395276
0.00360081
0.00328417
0.00296853
0.00268513
0.0024164
0.00217688
0.00203634
0.00190996
0.00170927
0.0014935
0.00129323
0.00115443
0.00102766
0.00089582
0.000757871
0.000620665
0.0004907
0.000388374
0.000318899
0.000274751
0.00024312
0.000220371
0.000202634
0.000184536
0.000166613
0.000151795
0.000141708
0.000135512
0.000130603
0.000125801
0.000119984
0.000111415
9.73453e-05
7.78587e-05
5.76242e-05
4.12967e-05
2.93176e-05
2.09392e-05
1.53211e-05
1.16454e-05
9.22657e-06
7.61173e-06
6.54582e-06
5.85926e-06
5.32519e-06
4.78393e-06
4.20577e-06
3.62378e-06
3.06598e-06
2.55223e-06
2.09401e-06
1.69587e-06
1.3573e-06
1.07454e-06
8.42002e-07
6.53326e-07
5.02088e-07
3.82205e-07
2.88182e-07
2.15199e-07
1.59127e-07
1.16489e-07
8.44045e-08
6.05171e-08
4.29248e-08
3.01117e-08
2.08853e-08
1.43187e-08
9.70053e-09
6.49203e-09
4.2906e-09
2.79935e-09
1.80233e-09
1.14464e-09
7.16759e-10
4.42331e-10
2.689e-10
1.60951e-10
9.48001e-11
5.49109e-11
3.12598e-11
1.74794e-11
9.59443e-12
5.16718e-12
2.73055e-12
1.41621e-12
7.21152e-13
3.60853e-13
1.77706e-13
8.6354e-14
4.16128e-14
2.0077e-14
9.87142e-15
5.0527e-15
2.75627e-15
1.64586e-15
1.05756e-15
7.43503e-16
5.8087e-16
4.39384e-16
3.87621e-16
4.13635e-16
5.75041e-16
1.20808e-15
3.38245e-15
1.03746e-14
3.1298e-14
9.22745e-14
2.60652e-13
7.26956e-13
1.89709e-12
5.18047e-12
1.09191e-11
4.12596e-11
4.31331e-11
6.52949e-11
6.80752e-11
0.000124891
0.000425726
0.000753622
0.00112133
0.00153328
0.0019366
0.00232515
0.00266496
0.00301843
0.00343899
0.00368796
0.0037929
0.00382622
0.00376489
0.00352924
0.00333203
0.00308522
0.00273324
0.00249595
0.00222703
0.00201896
0.0019303
0.00188764
0.00187713
0.00193263
0.00197589
0.00207853
0.00224781
0.00256804
0.00297848
0.00347118
0.00404035
0.00468066
0.00543432
0.0065474
0.00808631
0.010196
0.0130225
0.0166054
0.0209782
0.0257896
0.0302443
0.0333588
0.034806
0.0353256
0.0351001
0.032313
0.0302347
0.0267
0.023973
0.0204101
0.0172884
0.0148874
0.0121584
0.0107038
0.00931653
0.00797948
0.0073126
0.00634251
0.00587614
0.00534906
0.00510192
0.00490428
0.00467871
0.00431689
0.00386063
0.00348915
0.00315463
0.00279277
0.00244005
0.00218858
0.00189011
0.00155305
0.00124128
0.000985629
0.00085921
0.000812469
0.000750908
0.000654979
0.000551812
0.000454901
0.000368275
0.000296237
0.0002444
0.000211388
0.000190382
0.000177097
0.000163803
0.000148308
0.000133234
0.000122475
0.0001184
0.000117828
0.000117169
0.000115411
0.00011179
0.000105484
9.41427e-05
7.59686e-05
5.52333e-05
3.80508e-05
2.5586e-05
1.70591e-05
1.15292e-05
8.08778e-06
5.99071e-06
4.70211e-06
3.9088e-06
3.44411e-06
3.14218e-06
2.85607e-06
2.53754e-06
2.20123e-06
1.8672e-06
1.5522e-06
1.26737e-06
1.01841e-06
8.06733e-07
6.3081e-07
4.87373e-07
3.72329e-07
2.81382e-07
2.10422e-07
1.55727e-07
1.14056e-07
8.26646e-08
5.92795e-08
4.2053e-08
2.95057e-08
2.04704e-08
1.40391e-08
9.51535e-09
6.37155e-09
4.21363e-09
2.75109e-09
1.77264e-09
1.12674e-09
7.06183e-10
4.36195e-10
2.65383e-10
1.5894e-10
9.36511e-11
5.42559e-11
3.08842e-11
1.72614e-11
9.46598e-12
5.08993e-12
2.68191e-12
1.38395e-12
6.99093e-13
3.45579e-13
1.67149e-13
7.91289e-14
3.67042e-14
1.67324e-14
7.54683e-15
3.41905e-15
1.6036e-15
8.15525e-16
4.90723e-16
3.32736e-16
2.89648e-16
2.99405e-16
3.5044e-16
4.97551e-16
8.70199e-16
1.82536e-15
4.30229e-15
1.09929e-14
2.88721e-14
7.79837e-14
2.05571e-13
5.46451e-13
1.34766e-12
3.79718e-12
7.15467e-12
2.28162e-11
2.3923e-11
2.63394e-11
3.34094e-11
9.93224e-05
0.000343617
0.000605239
0.000898713
0.00122533
0.00153985
0.00184067
0.00209296
0.00231641
0.00258107
0.00278286
0.00284813
0.00285969
0.00281652
0.00265849
0.00247967
0.00228356
0.00203199
0.00191133
0.00182887
0.0017905
0.00178289
0.00181046
0.00187883
0.00196719
0.00209167
0.00234241
0.00277201
0.00335492
0.00390879
0.0045826
0.00544013
0.00667259
0.00833163
0.0108335
0.0141548
0.0185858
0.024555
0.0323704
0.0418401
0.0512408
0.0594207
0.064289
0.0665645
0.0670725
0.0633419
0.0556863
0.0493607
0.0391599
0.034171
0.0258222
0.0223137
0.0165992
0.0140787
0.0110708
0.0097453
0.00816692
0.0073825
0.0064947
0.00602283
0.00553629
0.00526874
0.00518871
0.00521582
0.00531068
0.00526367
0.0049797
0.00457419
0.00398086
0.003227
0.00263294
0.00213703
0.00169232
0.00127949
0.000942053
0.000692416
0.000539818
0.000502222
0.000517922
0.000512783
0.000456535
0.000389064
0.000326967
0.000272893
0.000224612
0.000189913
0.000170676
0.0001581
0.000146003
0.000131921
0.000117038
0.000104722
9.83733e-05
9.76472e-05
9.94182e-05
0.00010255
0.000103725
0.000103254
9.96675e-05
8.87251e-05
6.98013e-05
4.91673e-05
3.25922e-05
2.08909e-05
1.31562e-05
8.32414e-06
5.44132e-06
3.77693e-06
2.82261e-06
2.27605e-06
1.97979e-06
1.80996e-06
1.6585e-06
1.48419e-06
1.29242e-06
1.09651e-06
9.0857e-07
7.37182e-07
5.87088e-07
4.5987e-07
3.5489e-07
2.70174e-07
2.03097e-07
1.50858e-07
1.10773e-07
8.04273e-08
5.77471e-08
4.10025e-08
2.87878e-08
1.99829e-08
1.37111e-08
9.29718e-09
6.22834e-09
4.12101e-09
2.69215e-09
1.73579e-09
1.10413e-09
6.92591e-10
4.2821e-10
2.60813e-10
1.56404e-10
9.22878e-11
5.35472e-11
3.05302e-11
1.7093e-11
9.39059e-12
5.05884e-12
2.67053e-12
1.38057e-12
6.98541e-13
3.45778e-13
1.67403e-13
7.92725e-14
3.67441e-14
1.67051e-14
7.48799e-15
3.35023e-15
1.53894e-15
7.61665e-16
4.43781e-16
3.03673e-16
2.56712e-16
2.63668e-16
3.0429e-16
4.2239e-16
7.1522e-16
1.45012e-15
3.30418e-15
8.20199e-15
2.08157e-14
5.43356e-14
1.37512e-13
3.48734e-13
8.10041e-13
2.32024e-12
3.77186e-12
8.38966e-12
9.28709e-12
9.97593e-12
1.24597e-11
7.45819e-05
0.000266823
0.000466985
0.000696944
0.000956431
0.00120758
0.00144385
0.00165385
0.00183277
0.00201763
0.0021942
0.00231289
0.00238523
0.00239552
0.00234617
0.00224177
0.00208598
0.00186836
0.00175767
0.00172881
0.00172485
0.0017491
0.00182254
0.00196158
0.00220403
0.0025369
0.00304971
0.00361571
0.00416998
0.00479952
0.00555208
0.00652875
0.00788705
0.0103743
0.0140594
0.0194999
0.0275546
0.0394105
0.0557561
0.0756599
0.0964198
0.112673
0.125082
0.132205
0.134461
0.129636
0.113883
0.0985941
0.0712522
0.0568311
0.0377213
0.0289284
0.0204949
0.0164146
0.0118872
0.00964568
0.0078268
0.00651104
0.00536725
0.00464184
0.00442822
0.00444196
0.00465452
0.00498579
0.00540449
0.00567549
0.00568032
0.00557746
0.00529467
0.00454619
0.00357372
0.00276041
0.00204696
0.00148648
0.00103424
0.0007034
0.000495026
0.000368735
0.000307419
0.000302393
0.000329585
0.000338794
0.000318762
0.000278827
0.000240649
0.000206159
0.000177632
0.000158322
0.000144631
0.00013148
0.000117266
0.000103189
9.12723e-05
8.34388e-05
8.08907e-05
8.16297e-05
8.64477e-05
9.20123e-05
9.44878e-05
9.44891e-05
9.17769e-05
8.11906e-05
5.98775e-05
3.99451e-05
2.53173e-05
1.54685e-05
9.25801e-06
5.54733e-06
3.42584e-06
2.25284e-06
1.6131e-06
1.26669e-06
1.09072e-06
9.98637e-07
9.20019e-07
8.27596e-07
7.2263e-07
6.12821e-07
5.05958e-07
4.07849e-07
3.21866e-07
2.49275e-07
1.89834e-07
1.4238e-07
1.053e-07
7.68596e-08
5.54022e-08
3.94532e-08
2.77625e-08
1.93056e-08
1.32661e-08
9.00711e-09
6.04121e-09
4.00178e-09
2.61724e-09
1.68946e-09
1.07598e-09
6.75806e-10
4.18411e-10
2.55224e-10
1.53299e-10
9.06128e-11
5.26743e-11
3.00936e-11
1.68855e-11
9.29848e-12
5.02191e-12
2.65822e-12
1.37817e-12
6.99454e-13
3.47343e-13
1.68719e-13
8.016e-14
3.72723e-14
1.69938e-14
7.63563e-15
3.42108e-15
1.57031e-15
7.75556e-16
4.45423e-16
3.1035e-16
2.49791e-16
2.49594e-16
2.75445e-16
3.60765e-16
5.71971e-16
1.08851e-15
2.35154e-15
5.5858e-15
1.3653e-14
3.42613e-14
8.29027e-14
1.97764e-13
4.48073e-13
8.8053e-13
1.91693e-12
2.07992e-12
2.43916e-12
2.70462e-12
3.63727e-12
5.25016e-05
0.000198295
0.000343335
0.000521505
0.000728216
0.000939851
0.00113888
0.00132235
0.00147859
0.00163434
0.00179942
0.00194729
0.00206929
0.00219957
0.00223761
0.00219832
0.00209029
0.00187716
0.00174354
0.00171417
0.0017141
0.00174945
0.001856
0.00208983
0.00248763
0.00303568
0.00361497
0.00414323
0.00461986
0.00517253
0.00608649
0.00759776
0.010513
0.0155021
0.0227194
0.0332773
0.0494852
0.073517
0.106944
0.146767
0.182021
0.211619
0.23807
0.25115
0.256577
0.255504
0.229048
0.205256
0.158971
0.115919
0.07377
0.0459405
0.0293427
0.0196374
0.0146743
0.0102261
0.008282
0.00657925
0.00533447
0.00417964
0.00358204
0.00338449
0.00345867
0.00398235
0.00512142
0.0057545
0.00594562
0.00589341
0.00574931
0.00536483
0.00467596
0.00381138
0.00283527
0.00196559
0.00132215
0.000853225
0.000546113
0.000370287
0.000276648
0.000227085
0.000208205
0.000209569
0.000226667
0.000237539
0.000233027
0.000210151
0.000186295
0.000165623
0.000148672
0.00013419
0.000119814
0.000105354
9.19074e-05
8.08087e-05
7.28623e-05
6.91228e-05
6.89899e-05
7.21336e-05
8.08119e-05
8.66868e-05
8.86783e-05
8.82801e-05
8.42236e-05
6.89596e-05
4.64556e-05
2.92756e-05
1.76206e-05
1.02501e-05
5.85431e-06
3.35436e-06
1.98504e-06
1.25585e-06
8.72679e-07
6.74346e-07
5.79568e-07
5.32564e-07
4.92585e-07
4.44409e-07
3.88278e-07
3.28559e-07
2.69923e-07
2.15944e-07
1.68736e-07
1.2912e-07
9.6977e-08
7.16195e-08
5.20836e-08
3.73376e-08
2.64061e-08
1.84332e-08
1.27049e-08
8.6472e-09
5.81186e-09
3.85695e-09
2.52685e-09
1.63383e-09
1.04227e-09
6.5575e-10
4.06711e-10
2.4855e-10
1.49585e-10
8.86047e-11
5.16234e-11
2.95646e-11
1.66318e-11
9.18427e-12
4.975e-12
2.64176e-12
1.37427e-12
6.99962e-13
3.489e-13
1.70145e-13
8.11733e-14
3.79077e-14
1.73605e-14
7.83405e-15
3.52322e-15
1.61974e-15
7.99963e-16
4.54318e-16
3.15703e-16
2.5354e-16
2.3853e-16
2.51591e-16
3.0273e-16
4.35425e-16
7.5708e-16
1.51838e-15
3.38828e-15
7.85126e-15
1.8614e-14
4.22879e-14
1.06993e-13
1.8951e-13
4.1632e-13
4.81456e-13
5.24837e-13
6.20695e-13
6.95401e-13
9.65906e-13
3.35553e-05
0.000138869
0.000239153
0.000377255
0.000528001
0.000705711
0.000882144
0.00105108
0.00119396
0.00132797
0.00148083
0.00163964
0.0017875
0.00192643
0.00211866
0.00218791
0.00215011
0.00195829
0.00177018
0.00172356
0.00172072
0.00176154
0.00192577
0.00224174
0.00265957
0.00317762
0.00372411
0.00427609
0.00485622
0.00566401
0.00724142
0.00966458
0.0132395
0.0185613
0.0271972
0.0420039
0.0663564
0.104494
0.155951
0.210643
0.25736
0.297935
0.328632
0.343582
0.349733
0.34995
0.328475
0.301859
0.261088
0.210018
0.145321
0.0848304
0.0480675
0.0279379
0.0170298
0.0117237
0.00851354
0.00698171
0.00602738
0.00512244
0.00386414
0.00335199
0.0032766
0.00352847
0.00439174
0.00566827
0.00639746
0.00651167
0.00615554
0.00567814
0.00515434
0.00462416
0.00373113
0.00259547
0.00167282
0.00106293
0.000669587
0.000427434
0.000292186
0.000223766
0.000188852
0.000171983
0.000166556
0.000167967
0.00017838
0.00018634
0.000183364
0.00016772
0.000151714
0.00013854
0.000126464
0.0001127
9.75215e-05
8.37498e-05
7.26475e-05
6.47324e-05
6.03888e-05
5.96162e-05
6.125e-05
6.97252e-05
7.95247e-05
8.39525e-05
8.45858e-05
8.28565e-05
7.37449e-05
5.11461e-05
3.20762e-05
1.90794e-05
1.08863e-05
6.03608e-06
3.30628e-06
1.82861e-06
1.05095e-06
6.49235e-07
4.43203e-07
3.39995e-07
2.93008e-07
2.70493e-07
2.51258e-07
2.27393e-07
1.98818e-07
1.679e-07
1.3728e-07
1.09022e-07
8.43632e-08
6.37941e-08
4.72576e-08
3.4365e-08
2.45714e-08
1.72966e-08
1.19983e-08
8.20702e-09
5.53783e-09
3.687e-09
2.42219e-09
1.57003e-09
1.00389e-09
6.3302e-10
3.93503e-10
2.41039e-10
1.4542e-10
8.63605e-11
5.04552e-11
2.89814e-11
1.63557e-11
9.06274e-12
4.9272e-12
2.62667e-12
1.37218e-12
7.02057e-13
3.51635e-13
1.72357e-13
8.2673e-14
3.88265e-14
1.78847e-14
8.11682e-15
3.66873e-15
1.69151e-15
8.33866e-16
4.7073e-16
3.2056e-16
2.61032e-16
2.34183e-16
2.3257e-16
2.51577e-16
3.14814e-16
4.73228e-16
8.3625e-16
1.67887e-15
3.55359e-15
7.66456e-15
1.77534e-14
3.06847e-14
5.65316e-14
6.39637e-14
8.03952e-14
9.17635e-14
1.17124e-13
1.37076e-13
2.08954e-13
1.90405e-05
9.2698e-05
0.000154849
0.000256074
0.000369496
0.000513226
0.000661302
0.000811539
0.000956552
0.00109656
0.00122276
0.00138556
0.00154399
0.00171125
0.00187706
0.00211542
0.00223128
0.00222865
0.0019718
0.00180048
0.00177427
0.00180466
0.00195423
0.00225862
0.00268257
0.0032234
0.003861
0.00457225
0.00548142
0.00680095
0.00843784