/*--------------------------------*- C++ -*----------------------------------*\
  =========                 |
  \\      /  F ield         | OpenFOAM: The Open Source CFD Toolbox
   \\    /   O peration     | Website:  https://openfoam.org
    \\  /    A nd           | Version:  9
     \\/     M anipulation  |
\*---------------------------------------------------------------------------*/
FoamFile
{
    format      ascii;
    class       surfaceScalarField;
    location    "0.017";
    object      phi;
}
// * * * * * * * * * * * * * * * * * * * * * * * * * * * * * * * * * * * * * //

dimensions      [0 3 -1 0 0 0 0];

internalField   nonuniform List<scalar> 
24170
(
3.12287e-06
-5.80726e-09
3.04577e-06
7.71029e-08
2.94179e-06
1.03978e-07
2.84626e-06
9.55317e-08
2.76209e-06
8.41688e-08
2.68066e-06
8.14291e-08
2.59226e-06
8.84052e-08
2.49183e-06
1.00426e-07
2.38305e-06
1.08781e-07
2.27638e-06
1.06671e-07
2.18365e-06
9.27275e-08
2.10647e-06
7.71804e-08
2.04249e-06
6.39775e-08
1.98138e-06
6.11097e-08
1.91192e-06
6.94635e-08
1.83762e-06
7.42974e-08
1.75127e-06
8.63556e-08
8.57539e-08
1.66551e-06
3.39393e-06
-4.49498e-09
3.40588e-06
6.51483e-08
3.42003e-06
8.98297e-08
3.44214e-06
7.3421e-08
3.45871e-06
6.76055e-08
3.46051e-06
7.96277e-08
3.44634e-06
1.02571e-07
3.42238e-06
1.24391e-07
3.39747e-06
1.33686e-07
3.37716e-06
1.2698e-07
3.36323e-06
1.06657e-07
3.35267e-06
8.77425e-08
3.34008e-06
7.65637e-08
3.32276e-06
7.84376e-08
3.29773e-06
9.44938e-08
3.26412e-06
1.07907e-07
3.2271e-06
1.2337e-07
1.25127e-07
3.18773e-06
3.67066e-06
7.86442e-08
3.64253e-06
9.32836e-08
3.65815e-06
7.42032e-08
3.69399e-06
3.75786e-08
3.73573e-06
2.5871e-08
3.76626e-06
4.90922e-08
3.77356e-06
9.52724e-08
3.75916e-06
1.38795e-07
3.73482e-06
1.58027e-07
3.71227e-06
1.49525e-07
3.69669e-06
1.22244e-07
3.68903e-06
9.54021e-08
3.68519e-06
8.03983e-08
3.68268e-06
8.09512e-08
3.6794e-06
9.77674e-08
3.67194e-06
1.15375e-07
3.6627e-06
1.32603e-07
1.41157e-07
3.64667e-06
4.02373e-06
3.63357e-08
3.99796e-06
1.19048e-07
3.96268e-06
1.09484e-07
3.94497e-06
5.52925e-08
3.94314e-06
2.77006e-08
3.94962e-06
4.26101e-08
3.95956e-06
8.53309e-08
3.96849e-06
1.29867e-07
3.97199e-06
1.54529e-07
3.96761e-06
1.53902e-07
3.95565e-06
1.34205e-07
3.94057e-06
1.10478e-07
3.92676e-06
9.42108e-08
3.91798e-06
8.97343e-08
3.91623e-06
9.95189e-08
3.91709e-06
1.1451e-07
3.9187e-06
1.30996e-07
1.4455e-07
3.91531e-06
4.37083e-06
5.56459e-08
4.26827e-06
2.21607e-07
4.22454e-06
1.5322e-07
4.23165e-06
4.81829e-08
4.24562e-06
1.37289e-08
4.24602e-06
4.22072e-08
4.23933e-06
9.20245e-08
4.23712e-06
1.32077e-07
4.24334e-06
1.48301e-07
4.25531e-06
1.41932e-07
4.26761e-06
1.21905e-07
4.27619e-06
1.019e-07
4.27807e-06
9.23323e-08
4.27201e-06
9.57985e-08
4.26004e-06
1.11484e-07
4.24266e-06
1.31896e-07
4.22256e-06
1.51088e-07
1.67026e-07
4.20009e-06
4.57374e-06
4.33432e-08
4.57455e-06
2.20798e-07
4.52721e-06
2.00558e-07
4.48123e-06
9.41686e-08
4.45454e-06
4.0419e-08
4.448e-06
4.87475e-08
4.46073e-06
7.9296e-08
4.49179e-06
1.01015e-07
4.53515e-06
1.04937e-07
4.5795e-06
9.75828e-08
4.61194e-06
8.94657e-08
4.6249e-06
8.89418e-08
4.61801e-06
9.92225e-08
4.59661e-06
1.17196e-07
4.56959e-06
1.38511e-07
4.5428e-06
1.58677e-07
4.52043e-06
1.73464e-07
1.8393e-07
4.50352e-06
4.86415e-06
-2.56404e-08
4.94645e-06
1.385e-07
4.973e-06
1.74002e-07
4.96458e-06
1.02592e-07
4.93683e-06
6.81656e-08
4.90977e-06
7.58128e-08
4.89785e-06
9.12187e-08
4.90338e-06
9.54842e-08
4.92065e-06
8.76592e-08
4.94082e-06
7.74165e-08
4.95501e-06
7.52774e-08
4.95753e-06
8.64173e-08
4.9474e-06
1.0936e-07
4.92719e-06
1.374e-07
4.90257e-06
1.6313e-07
4.87887e-06
1.8238e-07
4.85955e-06
1.92785e-07
1.96742e-07
4.84674e-06
5.13987e-06
-1.28581e-08
5.23876e-06
3.96052e-08
5.30714e-06
1.05627e-07
5.31127e-06
9.84557e-08
5.27946e-06
9.99734e-08
5.24506e-06
1.10217e-07
5.22476e-06
1.11521e-07
5.21713e-06
1.03111e-07
5.21562e-06
8.91676e-08
5.21682e-06
7.62157e-08
5.2208e-06
7.13044e-08
5.22831e-06
7.89087e-08
5.23894e-06
9.87252e-08
5.25061e-06
1.25731e-07
5.26088e-06
1.52854e-07
5.26821e-06
1.75052e-07
5.27057e-06
1.90429e-07
1.98427e-07
5.26888e-06
5.5071e-06
-8.64101e-08
5.49815e-06
4.85604e-08
5.47713e-06
1.26648e-07
5.46875e-06
1.06827e-07
5.49515e-06
7.35765e-08
5.54641e-06
5.89625e-08
5.59047e-06
6.74524e-08
5.6007e-06
9.28838e-08
5.57482e-06
1.15046e-07
5.53179e-06
1.19245e-07
5.49483e-06
1.08268e-07
5.478e-06
9.57412e-08
5.48355e-06
9.31697e-08
5.50529e-06
1.03996e-07
5.53361e-06
1.24537e-07
5.55999e-06
1.48669e-07
5.57881e-06
1.7161e-07
1.90566e-07
5.58667e-06
5.82151e-06
-8.39801e-09
5.80121e-06
6.88635e-08
5.83439e-06
9.34724e-08
5.87935e-06
6.18644e-08
5.92428e-06
2.8648e-08
5.95838e-06
2.48578e-08
5.98079e-06
4.50413e-08
5.9938e-06
7.98755e-08
5.99792e-06
1.10925e-07
5.99162e-06
1.25545e-07
5.97613e-06
1.23758e-07
5.95765e-06
1.14226e-07
5.9444e-06
1.06414e-07
5.94271e-06
1.05691e-07
5.95348e-06
1.13763e-07
5.97356e-06
1.28593e-07
5.99718e-06
1.47985e-07
1.68601e-07
6.01915e-06
6.37518e-06
-7.76977e-09
6.3091e-06
1.34946e-07
6.32774e-06
7.48321e-08
6.39073e-06
-1.12632e-09
6.44882e-06
-2.94441e-08
6.47884e-06
-5.16187e-09
6.47901e-06
4.4876e-08
6.46465e-06
9.42297e-08
6.44886e-06
1.26715e-07
6.43452e-06
1.39892e-07
6.41916e-06
1.3912e-07
6.40213e-06
1.31251e-07
6.38714e-06
1.21408e-07
6.3793e-06
1.13524e-07
6.38142e-06
1.1165e-07
6.39233e-06
1.17678e-07
6.40845e-06
1.31864e-07
1.52771e-07
6.42428e-06
5.62284e-06
8.32713e-08
5.71137e-06
4.64222e-08
5.76518e-06
2.10161e-08
5.7796e-06
-1.55435e-08
5.78334e-06
-3.31815e-08
5.79701e-06
-1.88371e-08
5.8181e-06
2.37874e-08
5.83353e-06
7.87954e-08
5.83548e-06
1.24766e-07
5.8256e-06
1.49771e-07
5.81103e-06
1.53695e-07
5.79814e-06
1.44142e-07
5.78914e-06
1.304e-07
5.78286e-06
1.19811e-07
5.77765e-06
1.16852e-07
5.77284e-06
1.22493e-07
5.76929e-06
1.35414e-07
1.53621e-07
5.76844e-06
6.97575e-06
-1.08485e-07
7.05969e-06
-3.75155e-08
7.05606e-06
2.46376e-08
7.02884e-06
1.16833e-08
7.00047e-06
-4.814e-09
6.97758e-06
4.04925e-09
6.96397e-06
3.74019e-08
6.95952e-06
8.32431e-08
6.96322e-06
1.21068e-07
6.9726e-06
1.40386e-07
6.98511e-06
1.41194e-07
6.99852e-06
1.30727e-07
7.01114e-06
1.17784e-07
7.02183e-06
1.09116e-07
7.0303e-06
1.08387e-07
7.03667e-06
1.16118e-07
7.04158e-06
1.30501e-07
1.49791e-07
7.04542e-06
8.63278e-06
-5.773e-08
8.61922e-06
-2.39498e-08
8.61627e-06
2.75879e-08
8.5976e-06
3.0355e-08
8.57361e-06
1.91688e-08
8.56246e-06
1.52076e-08
8.56563e-06
3.42327e-08
8.57912e-06
6.9744e-08
8.59078e-06
1.09417e-07
8.59656e-06
1.34606e-07
8.59882e-06
1.38926e-07
8.60154e-06
1.28013e-07
8.60594e-06
1.1338e-07
8.60998e-06
1.05079e-07
8.61055e-06
1.07818e-07
8.60653e-06
1.20138e-07
8.59884e-06
1.38193e-07
1.56936e-07
8.59169e-06
1.06327e-05
1.64325e-07
1.04002e-05
2.08528e-07
1.03121e-05
1.15626e-07
1.0343e-05
-5.12983e-10
1.04232e-05
-6.10055e-08
1.04881e-05
-4.9671e-08
1.05138e-05
8.49784e-09
1.05041e-05
7.94237e-08
1.04817e-05
1.31854e-07
1.04633e-05
1.52958e-07
1.04582e-05
1.44093e-07
1.04697e-05
1.16493e-07
1.04974e-05
8.57131e-08
1.05369e-05
6.54838e-08
1.0581e-05
6.37854e-08
1.06211e-05
7.99956e-08
1.06499e-05
1.09415e-07
1.43704e-07
1.06631e-05
1.28367e-05
2.40827e-07
1.27062e-05
3.38966e-07
1.26797e-05
1.42158e-07
1.27239e-05
-4.4732e-08
1.27716e-05
-1.08696e-07
1.27877e-05
-6.57403e-08
1.27678e-05
2.8419e-08
1.2741e-05
1.06131e-07
1.273e-05
1.42949e-07
1.27421e-05
1.40859e-07
1.27679e-05
1.1826e-07
1.27915e-05
9.28521e-08
1.2802e-05
7.52385e-08
1.27968e-05
7.06544e-08
1.27818e-05
7.88367e-08
1.27644e-05
9.73296e-08
1.2753e-05
1.20823e-07
1.4487e-07
1.27519e-05
1.54372e-05
4.87132e-08
1.56089e-05
1.67204e-07
1.57142e-05
3.68654e-08
1.57435e-05
-7.40215e-08
1.5725e-05
-9.0178e-08
1.56809e-05
-2.16885e-08
1.56398e-05
6.95721e-08
1.55979e-05
1.48009e-07
1.55647e-05
1.76151e-07
1.55438e-05
1.61812e-07
1.55334e-05
1.28658e-07
1.55292e-05
9.69861e-08
1.55276e-05
7.68396e-08
1.55284e-05
6.9897e-08
1.55339e-05
7.32757e-08
1.5548e-05
8.32317e-08
1.55727e-05
9.61525e-08
1.09831e-07
1.56077e-05
1.88435e-05
-1.06296e-07
1.90981e-05
-8.73912e-08
1.91437e-05
-8.72012e-09
1.90617e-05
7.9288e-09
1.89632e-05
8.34046e-09
1.88944e-05
4.70639e-08
1.88504e-05
1.13659e-07
1.88346e-05
1.63811e-07
1.88381e-05
1.72609e-07
1.88553e-05
1.44575e-07
1.88829e-05
1.01086e-07
1.8916e-05
6.38618e-08
1.89493e-05
4.36171e-08
1.89788e-05
4.038e-08
1.90032e-05
4.88837e-08
1.9023e-05
6.33521e-08
1.90397e-05
7.95211e-08
9.53741e-08
1.90541e-05
2.31683e-05
6.17257e-08
2.3032e-05
4.8863e-08
2.29887e-05
3.45807e-08
2.30035e-05
-6.90519e-09
2.30445e-05
-3.26171e-08
2.30778e-05
1.3732e-08
2.31032e-05
8.83202e-08
2.31203e-05
1.46713e-07
2.3135e-05
1.57886e-07
2.31477e-05
1.31853e-07
2.31511e-05
9.76848e-08
2.31389e-05
7.60702e-08
2.3111e-05
7.15273e-08
2.3073e-05
7.8337e-08
2.30341e-05
8.77744e-08
2.30032e-05
9.43332e-08
2.29869e-05
9.58205e-08
9.29769e-08
2.29893e-05
1.68027e-05
-1.4163e-07
1.68254e-05
2.61416e-08
1.68294e-05
3.06506e-08
1.68579e-05
-3.53944e-08
1.68867e-05
-6.14802e-08
1.69205e-05
-2.00508e-08
1.69511e-05
5.77336e-08
1.69865e-05
1.11305e-07
1.7016e-05
1.28381e-07
1.70258e-05
1.22076e-07
1.70162e-05
1.0725e-07
1.69994e-05
9.28733e-08
1.69901e-05
8.08695e-08
1.69981e-05
7.03182e-08
1.70245e-05
6.13484e-08
1.70639e-05
5.49038e-08
1.71075e-05
5.22675e-08
5.44136e-08
1.71461e-05
1.44869e-05
-4.6335e-09
1.45623e-05
-4.92699e-08
1.45677e-05
2.52444e-08
1.45142e-05
1.81062e-08
1.44863e-05
-3.35728e-08
1.45311e-05
-6.4838e-08
1.46447e-05
-5.58775e-08
1.47691e-05
-1.30923e-08
1.48547e-05
4.2824e-08
1.48839e-05
9.28869e-08
1.48665e-05
1.24667e-07
1.48251e-05
1.34283e-07
1.47813e-05
1.2467e-07
1.47487e-05
1.02888e-07
1.47324e-05
7.76411e-08
1.4731e-05
5.63008e-08
1.4741e-05
4.22557e-08
3.74213e-08
1.4758e-05
1.27658e-05
-9.2948e-08
1.27498e-05
-3.33049e-08
1.2732e-05
4.31033e-08
1.27188e-05
3.12787e-08
1.26929e-05
-7.65053e-09
1.26617e-05
-3.36443e-08
1.26483e-05
-4.24363e-08
1.26641e-05
-2.894e-08
1.27023e-05
4.66702e-09
1.27489e-05
4.62174e-08
1.27902e-05
8.3349e-08
1.28207e-05
1.03853e-07
1.28424e-05
1.02915e-07
1.28609e-05
8.44325e-08
1.28804e-05
5.80763e-08
1.29031e-05
3.3673e-08
1.29284e-05
1.6913e-08
1.00326e-08
1.29558e-05
1.09717e-05
5.67011e-08
1.09221e-05
1.63016e-08
1.09958e-05
-3.06731e-08
1.10506e-05
-2.34482e-08
1.10734e-05
-3.04989e-08
1.10994e-05
-5.95902e-08
1.11334e-05
-7.65062e-08
1.11678e-05
-6.32895e-08
1.11929e-05
-2.04356e-08
1.12018e-05
3.72632e-08
1.12029e-05
8.22948e-08
1.12051e-05
1.01652e-07
1.12148e-05
9.32442e-08
1.12339e-05
6.52648e-08
1.12611e-05
3.08647e-08
1.12932e-05
1.63679e-09
1.13255e-05
-1.54402e-08
-2.02863e-08
1.13558e-05
9.66577e-06
1.05808e-07
9.65781e-06
2.4265e-08
9.64558e-06
-1.84523e-08
9.64047e-06
-1.83293e-08
9.64904e-06
-3.90734e-08
9.66689e-06
-7.74366e-08
9.68952e-06
-9.91346e-08
9.71006e-06
-8.38333e-08
9.7328e-06
-4.31791e-08
9.76918e-06
8.82235e-10
9.82267e-06
2.88056e-08
9.88592e-06
3.84008e-08
9.94746e-06
3.17068e-08
9.99674e-06
1.59863e-08
1.00288e-05
-1.21491e-09
1.00444e-05
-1.39704e-08
1.00474e-05
-1.84406e-08
-1.50025e-08
1.00421e-05
8.41048e-06
1.30611e-07
8.37633e-06
5.8412e-08
8.35357e-06
4.3098e-09
8.36867e-06
-3.34272e-08
8.40214e-06
-7.25533e-08
8.43053e-06
-1.05824e-07
8.44544e-06
-1.14037e-07
8.45346e-06
-9.18611e-08
8.46502e-06
-5.47363e-08
8.48777e-06
-2.18632e-08
8.52046e-06
-3.88956e-09
8.55593e-06
2.93565e-09
8.58321e-06
4.42709e-09
8.59386e-06
5.32878e-09
8.58547e-06
7.17603e-09
8.56246e-06
9.03917e-09
8.53433e-06
9.69644e-09
9.26278e-09
8.51006e-06
7.3529e-06
-4.50676e-08
7.37469e-06
3.66222e-08
7.40093e-06
-2.19307e-08
7.43682e-06
-6.9318e-08
7.45278e-06
-8.8511e-08
7.45054e-06
-1.03581e-07
7.44394e-06
-1.07434e-07
7.44628e-06
-9.42073e-08
7.46088e-06
-6.93299e-08
7.48189e-06
-4.28744e-08
7.4988e-06
-2.08012e-08
7.50422e-06
-2.48712e-09
7.49802e-06
1.06277e-08
7.4834e-06
1.99541e-08
7.46795e-06
2.26181e-08
7.4586e-06
1.83895e-08
7.46028e-06
8.024e-09
-4.86834e-09
7.47441e-06
6.37753e-06
-1.48159e-07
6.4078e-06
6.3565e-09
6.43325e-06
-4.73871e-08
6.43771e-06
-7.37711e-08
6.42974e-06
-8.05462e-08
6.4116e-06
-8.54372e-08
6.3846e-06
-8.04374e-08
6.35498e-06
-6.45834e-08
6.3334e-06
-4.77526e-08
6.32745e-06
-3.69203e-08
6.33751e-06
-3.08661e-08
6.35958e-06
-2.45566e-08
6.387e-06
-1.67905e-08
6.41639e-06
-9.43767e-09
6.4454e-06
-6.38764e-09
6.47291e-06
-9.12638e-09
6.49784e-06
-1.69013e-08
-2.61978e-08
6.51917e-06
5.53643e-06
-7.23209e-08
5.56313e-06
-2.03493e-08
5.57683e-06
-6.10837e-08
5.56372e-06
-6.06634e-08
5.53547e-06
-5.22915e-08
5.50897e-06
-5.89405e-08
5.49655e-06
-6.80188e-08
5.49891e-06
-6.69389e-08
5.5072e-06
-5.60416e-08
5.51332e-06
-4.30397e-08
5.51666e-06
-3.42146e-08
5.52273e-06
-3.0622e-08
5.53672e-06
-3.07846e-08
5.56045e-06
-3.31625e-08
5.59099e-06
-3.6928e-08
5.62345e-06
-4.15904e-08
5.6527e-06
-4.61477e-08
-4.91151e-08
5.67562e-06
4.81007e-06
-4.01796e-08
4.84153e-06
-5.18078e-08
4.84159e-06
-6.11439e-08
4.85606e-06
-7.51356e-08
4.88439e-06
-8.06233e-08
4.90511e-06
-7.96622e-08
4.90731e-06
-7.02211e-08
4.89697e-06
-5.65933e-08
4.88692e-06
-4.5997e-08
4.88612e-06
-4.22386e-08
4.89636e-06
-4.4454e-08
4.91424e-06
-4.85009e-08
4.93378e-06
-5.03245e-08
4.94888e-06
-4.82655e-08
4.95527e-06
-4.33149e-08
4.95129e-06
-3.76088e-08
4.93799e-06
-3.285e-08
-3.04164e-08
4.91929e-06
4.16308e-06
4.11128e-06
4.05013e-06
3.975e-06
3.89437e-06
3.81471e-06
3.74449e-06
3.6879e-06
3.6419e-06
3.59966e-06
3.55521e-06
3.50671e-06
3.45638e-06
3.40812e-06
3.3648e-06
3.32719e-06
3.29434e-06
3.26393e-06
1.76091e-07
-1.76091e-07
4.01218e-07
-2.25127e-07
6.28843e-07
-2.27625e-07
8.54183e-07
-2.2534e-07
1.07814e-06
-2.23954e-07
1.30161e-06
-2.23474e-07
1.5247e-06
-2.23093e-07
1.74644e-06
-2.21732e-07
1.96449e-06
-2.18053e-07
2.17509e-06
-2.10598e-07
2.37295e-06
-1.97859e-07
2.55157e-06
-1.78627e-07
2.70384e-06
-1.52272e-07
2.82271e-06
-1.1887e-07
2.90219e-06
-7.94748e-08
2.93863e-06
-3.64422e-08
2.92886e-06
9.76792e-09
2.86576e-06
6.31023e-08
2.75805e-06
1.07709e-07
2.60626e-06
1.51798e-07
2.41963e-06
1.86625e-07
2.20152e-06
2.18115e-07
1.94491e-06
2.56607e-07
1.60694e-06
3.37964e-07
1.09582e-06
5.11128e-07
3.67004e-07
7.28812e-07
-5.0235e-07
8.69354e-07
-1.44268e-06
9.40331e-07
-2.41261e-06
9.69925e-07
-3.38464e-06
9.72032e-07
-4.34131e-06
9.56668e-07
-5.26688e-06
9.25571e-07
-6.14758e-06
8.80707e-07
-6.97209e-06
8.24502e-07
-7.73187e-06
7.59784e-07
-8.42115e-06
6.8928e-07
-9.03677e-06
6.15616e-07
-9.57772e-06
5.40948e-07
-1.00444e-05
4.66728e-07
-1.04382e-05
3.93768e-07
-1.07606e-05
3.22363e-07
-1.10131e-05
2.5248e-07
-1.11972e-05
1.84112e-07
-1.13147e-05
1.17579e-07
-1.13684e-05
5.36167e-08
-1.1362e-05
-6.36191e-09
-1.13006e-05
-6.14152e-08
-1.11882e-05
-1.12415e-07
-1.10297e-05
-1.58423e-07
-1.08303e-05
-1.99456e-07
-1.05947e-05
-2.35563e-07
-1.0328e-05
-2.66731e-07
-1.00349e-05
-2.9308e-07
-9.72003e-06
-3.14883e-07
-9.38747e-06
-3.32562e-07
-9.04086e-06
-3.46606e-07
-8.6832e-06
-3.57661e-07
-8.31686e-06
-3.66341e-07
-7.94357e-06
-3.73296e-07
-7.56447e-06
-3.79093e-07
-7.18019e-06
-3.84281e-07
-6.79079e-06
-3.89403e-07
-6.39572e-06
-3.95069e-07
-5.99378e-06
-4.01945e-07
-5.58315e-06
-4.10624e-07
-5.16175e-06
-4.21405e-07
-4.72764e-06
-4.34102e-07
-4.2797e-06
-4.47944e-07
-3.81819e-06
-4.6151e-07
-3.34528e-06
-4.72913e-07
-2.865e-06
-4.80281e-07
-2.38282e-06
-4.82178e-07
-1.90496e-06
-4.77856e-07
-1.43749e-06
-4.6747e-07
-9.85725e-07
-4.51766e-07
-5.5409e-07
-4.31635e-07
-1.45617e-07
-4.08473e-07
2.37895e-07
-3.83512e-07
5.95916e-07
-3.58021e-07
9.28318e-07
-3.32402e-07
1.23562e-06
-3.07298e-07
1.51876e-06
-2.83142e-07
1.77894e-06
-2.60179e-07
2.01747e-06
-2.38535e-07
2.23574e-06
-2.18267e-07
2.43513e-06
-1.99396e-07
2.61705e-06
-1.81917e-07
2.78286e-06
-1.65806e-07
2.93388e-06
-1.5102e-07
3.07137e-06
-1.37497e-07
3.19653e-06
-1.2516e-07
3.31045e-06
-1.13918e-07
3.41412e-06
-1.03671e-07
3.50844e-06
-9.43195e-08
3.5942e-06
-8.5761e-08
3.6721e-06
-7.7899e-08
3.74274e-06
-7.06418e-08
3.80665e-06
-6.39049e-08
3.86426e-06
-5.7612e-08
3.91596e-06
-5.16959e-08
3.96206e-06
-4.61005e-08
4.00284e-06
-4.07812e-08
4.03854e-06
-3.57055e-08
4.0694e-06
-3.08548e-08
4.09562e-06
-2.62177e-08
4.11742e-06
-2.18004e-08
4.13502e-06
-1.76044e-08
4.14867e-06
-1.36465e-08
4.15861e-06
-9.94677e-09
4.1651e-06
-6.48363e-09
4.16841e-06
-3.31392e-09
4.16879e-06
-3.75257e-10
4.16636e-06
2.42857e-09
4.1614e-06
4.96347e-09
4.15426e-06
7.13755e-09
4.1453e-06
8.961e-09
4.13483e-06
1.04714e-08
4.12313e-06
1.16948e-08
4.11048e-06
1.26488e-08
4.09711e-06
1.33742e-08
4.08319e-06
1.39157e-08
4.0689e-06
1.42922e-08
4.05437e-06
1.45264e-08
4.03973e-06
1.4647e-08
4.02505e-06
1.46732e-08
4.01043e-06
1.46239e-08
3.99591e-06
1.45178e-08
3.98154e-06
1.43694e-08
3.96735e-06
1.41901e-08
3.95336e-06
1.39888e-08
3.93959e-06
1.37747e-08
3.92603e-06
1.35582e-08
3.91268e-06
1.33465e-08
3.89954e-06
1.31414e-08
3.8866e-06
1.29422e-08
3.87385e-06
1.2752e-08
3.86127e-06
1.25801e-08
3.84883e-06
1.24365e-08
3.83651e-06
1.23219e-08
3.82429e-06
1.22234e-08
3.81217e-06
1.21185e-08
3.80018e-06
1.1986e-08
3.78837e-06
1.18166e-08
3.77675e-06
1.16154e-08
3.76535e-06
1.13986e-08
3.75417e-06
1.11854e-08
3.74317e-06
1.09912e-08
3.73235e-06
1.08248e-08
3.72166e-06
1.06886e-08
3.71108e-06
1.05809e-08
3.70058e-06
1.0498e-08
3.69015e-06
1.04371e-08
3.67975e-06
1.03955e-08
3.66938e-06
1.03723e-08
3.65901e-06
1.03671e-08
3.64863e-06
1.03807e-08
3.63822e-06
1.04141e-08
3.62775e-06
1.04697e-08
3.6172e-06
1.05498e-08
3.60654e-06
1.06586e-08
3.59574e-06
1.08018e-08
3.58475e-06
1.0984e-08
3.57353e-06
1.12211e-08
3.56202e-06
1.15095e-08
3.55012e-06
1.18995e-08
3.53778e-06
1.23451e-08
3.52477e-06
1.3007e-08
3.51109e-06
1.36787e-08
3.49622e-06
1.48722e-08
3.48038e-06
1.58348e-08
3.46221e-06
1.81728e-08
3.44282e-06
1.93898e-08
3.41837e-06
2.44516e-08
3.39291e-06
2.54596e-08
3.35527e-06
3.76434e-08
3.31861e-06
3.66557e-08
3.24908e-06
6.95348e-08
3.18608e-06
6.30005e-08
3.01351e-06
1.72565e-07
1.77213e-07
2.8363e-06
1.40529e-07
-3.1662e-07
2.74566e-07
-3.59164e-07
4.06445e-07
-3.59504e-07
5.41326e-07
-3.60221e-07
6.80843e-07
-3.63472e-07
8.24837e-07
-3.67468e-07
9.72427e-07
-3.70682e-07
1.12187e-06
-3.71176e-07
1.27038e-06
-3.6656e-07
1.41409e-06
-3.54309e-07
1.54779e-06
-3.3156e-07
1.66543e-06
-2.96267e-07
1.76059e-06
-2.47428e-07
1.82481e-06
-1.83098e-07
1.8453e-06
-9.99594e-08
1.80564e-06
3.21166e-09
1.68823e-06
1.27184e-07
1.48799e-06
2.63342e-07
1.19223e-06
4.03468e-07
7.88064e-07
5.55963e-07
2.45445e-07
7.29244e-07
-4.49459e-07
9.13019e-07
-1.28034e-06
1.08749e-06
-2.18979e-06
1.24742e-06
-3.07832e-06
1.39965e-06
-3.88434e-06
1.53483e-06
-4.63756e-06
1.62258e-06
-5.36101e-06
1.66378e-06
-6.05768e-06
1.6666e-06
-6.72526e-06
1.63961e-06
-7.3573e-06
1.58871e-06
-7.94994e-06
1.51821e-06
-8.50043e-06
1.43119e-06
-9.00712e-06
1.33119e-06
-9.46906e-06
1.22173e-06
-9.88622e-06
1.10644e-06
-1.0259e-05
9.88403e-07
-1.05888e-05
8.70699e-07
-1.08762e-05
7.5419e-07
-1.11211e-05
6.38699e-07
-1.13227e-05
5.23881e-07
-1.14796e-05
4.09408e-07
-1.15907e-05
2.95231e-07
-1.16549e-05
1.81745e-07
-1.16712e-05
6.99243e-08
-1.1638e-05
-3.95513e-08
-1.15556e-05
-1.43843e-07
-1.14254e-05
-2.42562e-07
-1.12502e-05
-3.33624e-07
-1.1034e-05
-4.15642e-07
-1.07819e-05
-4.87744e-07
-1.04989e-05
-5.4967e-07
-1.01904e-05
-6.01645e-07
-9.86094e-06
-6.443e-07
-9.51496e-06
-6.78533e-07
-9.1561e-06
-7.05469e-07
-8.78739e-06
-7.26371e-07
-8.41113e-06
-7.42599e-07
-8.02897e-06
-7.55457e-07
-7.64192e-06
-7.66139e-07
-7.2505e-06
-7.75707e-07
-6.85471e-06
-7.85196e-07
-6.454e-06
-7.9578e-07
-6.04708e-06
-8.08857e-07
-5.63184e-06
-8.25862e-07
-5.20557e-06
-8.47681e-07
-4.76558e-06
-8.74087e-07
-4.30996e-06
-9.03568e-07
-3.83841e-06
-9.33062e-07
-3.35301e-06
-9.58312e-07
-2.85834e-06
-9.74951e-07
-2.36085e-06
-9.79666e-07
-1.86785e-06
-9.70858e-07
-1.38621e-06
-9.49114e-07
-9.21921e-07
-9.16052e-07
-4.79504e-07
-8.74052e-07
-6.24775e-08
-8.25499e-07
3.30562e-07
-7.76551e-07
6.96585e-07
-7.24044e-07
1.03652e-06
-6.72334e-07
1.35146e-06
-6.22241e-07
1.64274e-06
-5.74424e-07
1.91183e-06
-5.29265e-07
2.16021e-06
-4.86916e-07
2.38935e-06
-4.47409e-07
2.60066e-06
-4.10708e-07
2.7955e-06
-3.76754e-07
2.97517e-06
-3.45472e-07
3.14092e-06
-3.16769e-07
3.29395e-06
-2.90529e-07
3.43539e-06
-2.66606e-07
3.56631e-06
-2.44833e-07
3.68766e-06
-2.25024e-07
3.80033e-06
-2.06987e-07
3.9051e-06
-1.90527e-07
4.00265e-06
-1.75456e-07
4.09361e-06
-1.61595e-07
4.17848e-06
-1.48776e-07
4.25771e-06
-1.36845e-07
4.33168e-06
-1.25666e-07
4.4007e-06
-1.1512e-07
4.46503e-06
-1.05109e-07
4.52488e-06
-9.55581e-08
4.58044e-06
-8.64158e-08
4.63187e-06
-7.76512e-08
4.67933e-06
-6.92523e-08
4.72294e-06
-6.12225e-08
4.76287e-06
-5.35743e-08
4.79925e-06
-4.63274e-08
4.83227e-06
-3.95002e-08
4.86206e-06
-3.31088e-08
4.88888e-06
-2.71916e-08
4.91306e-06
-2.17531e-08
4.93479e-06
-1.67679e-08
4.95416e-06
-1.22296e-08
4.97127e-06
-8.15422e-09
4.98626e-06
-4.51115e-09
4.99922e-06
-1.26462e-09
5.01031e-06
1.55568e-09
5.01964e-06
4.04111e-09
5.02734e-06
6.21568e-09
5.03355e-06
8.08968e-09
5.03837e-06
9.70084e-09
5.04193e-06
1.10848e-08
5.04434e-06
1.22625e-08
5.0457e-06
1.32628e-08
5.04611e-06
1.411e-08
5.04566e-06
1.48253e-08
5.04442e-06
1.54277e-08
5.04247e-06
1.59332e-08
5.03989e-06
1.63575e-08
5.03673e-06
1.67157e-08
5.03306e-06
1.70192e-08
5.02893e-06
1.7276e-08
5.02438e-06
1.74921e-08
5.01945e-06
1.7676e-08
5.01419e-06
1.78399e-08
5.00864e-06
1.79933e-08
5.00282e-06
1.81375e-08
4.99678e-06
1.82634e-08
4.99054e-06
1.83568e-08
4.98412e-06
1.84053e-08
4.97754e-06
1.84051e-08
4.97079e-06
1.83604e-08
4.96391e-06
1.82821e-08
4.95691e-06
1.81838e-08
4.94982e-06
1.808e-08
4.94266e-06
1.79847e-08
4.93544e-06
1.79107e-08
4.92815e-06
1.78683e-08
4.92078e-06
1.78639e-08
4.91332e-06
1.79003e-08
4.90574e-06
1.79763e-08
4.89802e-06
1.80888e-08
4.89016e-06
1.82344e-08
4.88213e-06
1.84097e-08
4.87393e-06
1.86143e-08
4.86555e-06
1.88479e-08
4.85698e-06
1.91169e-08
4.84822e-06
1.9422e-08
4.83924e-06
1.97817e-08
4.83003e-06
2.01909e-08
4.82056e-06
2.06958e-08
4.8108e-06
2.12649e-08
4.80068e-06
2.20177e-08
4.7902e-06
2.28328e-08
4.77917e-06
2.40329e-08
4.76763e-06
2.52185e-08
4.75522e-06
2.72807e-08
4.74207e-06
2.89897e-08
4.72741e-06
3.28328e-08
4.71161e-06
3.51894e-08
4.69304e-06
4.30213e-08
4.67254e-06
4.59589e-08
4.64663e-06
6.35525e-08
4.61645e-06
6.68393e-08
4.57466e-06
1.11325e-07
4.51934e-06
1.1832e-07
4.44493e-06
2.46966e-07
2.86757e-07
4.33539e-06
3.50706e-08
-3.51691e-07
4.75012e-08
-3.71594e-07
6.23373e-08
-3.7434e-07
8.02537e-08
-3.78137e-07
1.00887e-07
-3.84105e-07
1.22047e-07
-3.88628e-07
1.41235e-07
-3.8987e-07
1.54498e-07
-3.84439e-07
1.57545e-07
-3.69608e-07
1.45815e-07
-3.42579e-07
1.13583e-07
-2.99327e-07
5.21471e-08
-2.34831e-07
-4.91449e-08
-1.46136e-07
-2.0358e-07
-2.86628e-08
-4.17131e-07
1.13591e-07
-6.98386e-07
2.84467e-07
-1.049e-06
4.77794e-07
-1.46886e-06
6.83202e-07
-1.95769e-06
8.923e-07
-2.50139e-06
1.09966e-06
-3.073e-06
1.30085e-06
-3.65049e-06
1.49052e-06
-4.22815e-06
1.66514e-06
-4.79502e-06
1.81428e-06
-5.32636e-06
1.931e-06
-5.80483e-06
2.0133e-06
-6.24393e-06
2.06168e-06
-6.66111e-06
2.08096e-06
-7.07001e-06
2.07549e-06
-7.47834e-06
2.04793e-06
-7.88837e-06
1.99875e-06
-8.2985e-06
1.92833e-06
-8.70438e-06
1.83707e-06
-9.10066e-06
1.72747e-06
-9.48229e-06
1.60336e-06
-9.84511e-06
1.46925e-06
-1.01859e-05
1.3292e-06
-1.05012e-05
1.18596e-06
-1.07873e-05
1.04037e-06
-1.10405e-05
8.91878e-07
-1.12561e-05
7.3944e-07
-1.14291e-05
5.82416e-07
-1.15549e-05
4.21088e-07
-1.16296e-05
2.56446e-07
-1.1649e-05
8.92396e-08
-1.1614e-05
-7.45146e-08
-1.15268e-05
-2.31065e-07
-1.13889e-05
-3.80454e-07
-1.1204e-05
-5.18469e-07
-1.09773e-05
-6.42343e-07
-1.07146e-05
-7.50468e-07
-1.04218e-05
-8.42445e-07
-1.01047e-05
-9.1878e-07
-9.76839e-06
-9.80609e-07
-9.41745e-06
-1.02948e-06
-9.05569e-06
-1.06723e-06
-8.68616e-06
-1.0959e-06
-8.3111e-06
-1.11766e-06
-7.93196e-06
-1.1346e-06
-7.54954e-06
-1.14856e-06
-7.16419e-06
-1.16105e-06
-6.77595e-06
-1.17344e-06
-6.38436e-06
-1.18736e-06
-5.98816e-06
-1.20506e-06
-5.58483e-06
-1.22918e-06
-5.1706e-06
-1.26191e-06
-4.74087e-06
-1.30382e-06
-4.29165e-06
-1.35279e-06
-3.82093e-06
-1.40378e-06
-3.33013e-06
-1.44911e-06
-2.82465e-06
-1.48043e-06
-2.31306e-06
-1.49126e-06
-1.80515e-06
-1.47877e-06
-1.30996e-06
-1.4443e-06
-8.34871e-07
-1.39114e-06
-3.85263e-07
-1.32366e-06
3.66144e-08
-1.24738e-06
4.28291e-07
-1.16823e-06
7.91041e-07
-1.08679e-06
1.12543e-06
-1.00673e-06
1.43285e-06
-9.29654e-07
1.71498e-06
-8.56562e-07
1.97374e-06
-7.88027e-07
2.21115e-06
-7.24322e-07
2.42923e-06
-6.65493e-07
2.62994e-06
-6.11412e-07
2.81503e-06
-5.61843e-07
2.98604e-06
-5.1649e-07
3.14432e-06
-4.75045e-07
3.291e-06
-4.37212e-07
3.4271e-06
-4.02705e-07
3.55352e-06
-3.71254e-07
3.67109e-06
-3.42595e-07
3.78057e-06
-3.16467e-07
3.88266e-06
-2.92614e-07
3.97799e-06
-2.70785e-07
4.06713e-06
-2.50733e-07
4.15058e-06
-2.32223e-07
4.22876e-06
-2.15032e-07
4.30206e-06
-1.98959e-07
4.37076e-06
-1.83825e-07
4.43513e-06
-1.69481e-07
4.49539e-06
-1.55812e-07
4.5517e-06
-1.42733e-07
4.60424e-06
-1.30192e-07
4.65316e-06
-1.18165e-07
4.69858e-06
-1.0665e-07
4.74067e-06
-9.56593e-08
4.77955e-06
-8.52132e-08
4.8154e-06
-7.53417e-08
4.84835e-06
-6.60611e-08
4.87855e-06
-5.73886e-08
4.90614e-06
-4.93437e-08
4.93129e-06
-4.19167e-08
4.95415e-06
-3.50912e-08
4.97485e-06
-2.88601e-08
4.99354e-06
-2.31943e-08
5.01035e-06
-1.8075e-08
5.02539e-06
-1.3484e-08
5.03878e-06
-9.35649e-09
5.05065e-06
-5.64641e-09
5.06106e-06
-2.32956e-09
5.07013e-06
6.39793e-10
5.07792e-06
3.29472e-09
5.08452e-06
5.65971e-09
5.09001e-06
7.7765e-09
5.09445e-06
9.66375e-09
5.09793e-06
1.13487e-08
5.1005e-06
1.28554e-08
5.10223e-06
1.42024e-08
5.10318e-06
1.54086e-08
5.1034e-06
1.6492e-08
5.10296e-06
1.74671e-08
5.10189e-06
1.83455e-08
5.10024e-06
1.91371e-08
5.09806e-06
1.98531e-08
5.0954e-06
2.05061e-08
5.09229e-06
2.11064e-08
5.08876e-06
2.16578e-08
5.08487e-06
2.21568e-08
5.08063e-06
2.25965e-08
5.07606e-06
2.29722e-08
5.07119e-06
2.32845e-08
5.06601e-06
2.35392e-08
5.06054e-06
2.37453e-08
5.05481e-06
2.39128e-08
5.04884e-06
2.40532e-08
5.04265e-06
2.41796e-08
5.03625e-06
2.43063e-08
5.02967e-06
2.44471e-08
5.02292e-06
2.46135e-08
5.01601e-06
2.48125e-08
5.00894e-06
2.50472e-08
5.00171e-06
2.53166e-08
4.99433e-06
2.56194e-08
4.98678e-06
2.59526e-08
4.97908e-06
2.63184e-08
4.97121e-06
2.67153e-08
4.96317e-06
2.71551e-08
4.95496e-06
2.76357e-08
4.94655e-06
2.81868e-08
4.93795e-06
2.87959e-08
4.92911e-06
2.9532e-08
4.92003e-06
3.03457e-08
4.91065e-06
3.14012e-08
4.90094e-06
3.25407e-08
4.89081e-06
3.41672e-08
4.8802e-06
3.58208e-08
4.86897e-06
3.85143e-08
4.85699e-06
4.09682e-08
4.84406e-06
4.57617e-08
4.82979e-06
4.94606e-08
4.81415e-06
5.86687e-08
4.79567e-06
6.44361e-08
4.77551e-06
8.37122e-08
4.74837e-06
9.3982e-08
4.72116e-06
1.38531e-07
4.67617e-06
1.63311e-07
4.64655e-06
2.76584e-07
3.52534e-07
4.58077e-06
-6.08928e-08
-2.90798e-07
-1.38913e-07
-2.93574e-07
-2.19007e-07
-2.94246e-07
-3.0387e-07
-2.93275e-07
-3.95499e-07
-2.92476e-07
-4.96685e-07
-2.87441e-07
-6.11096e-07
-2.75459e-07
-7.42878e-07
-2.52657e-07
-8.95602e-07
-2.16883e-07
-1.07244e-06
-1.65738e-07
-1.27823e-06
-9.35402e-08
-1.52038e-06
7.31509e-09
-1.79326e-06
1.26745e-07
-2.09765e-06
2.75732e-07
-2.43332e-06
4.49257e-07
-2.79114e-06
6.42289e-07
-3.16195e-06
8.48606e-07
-3.53999e-06
1.06124e-06
-3.92105e-06
1.27336e-06
-4.2995e-06
1.47811e-06
-4.66711e-06
1.66846e-06
-5.01631e-06
1.83972e-06
-5.34123e-06
1.99007e-06
-5.64513e-06
2.11818e-06
-5.93604e-06
2.2219e-06
-6.22416e-06
2.30143e-06
-6.52127e-06
2.35879e-06
-6.83599e-06
2.39568e-06
-7.17139e-06
2.41088e-06
-7.5242e-06
2.40075e-06
-7.88701e-06
2.36156e-06
-8.24986e-06
2.29118e-06
-8.60336e-06
2.19058e-06
-8.94148e-06
2.06559e-06
-9.26223e-06
1.92411e-06
-9.56671e-06
1.77374e-06
-9.85703e-06
1.61952e-06
-1.01341e-05
1.46299e-06
-1.0396e-05
1.30236e-06
-1.0638e-05
1.13382e-06
-1.08521e-05
9.53597e-07
-1.10294e-05
7.59682e-07
-1.1161e-05
5.52647e-07
-1.12402e-05
3.35721e-07
-1.1265e-05
1.13964e-07
-1.12312e-05
-1.08315e-07
-1.11363e-05
-3.25907e-07
-1.09859e-05
-5.30882e-07
-1.07862e-05
-7.18204e-07
-1.05443e-05
-8.84234e-07
-1.02677e-05
-1.027e-06
-9.96387e-06
-1.14632e-06
-9.63932e-06
-1.24333e-06
-9.30003e-06
-1.3199e-06
-8.95093e-06
-1.37858e-06
-8.59588e-06
-1.42227e-06
-8.23774e-06
-1.45404e-06
-7.87834e-06
-1.47707e-06
-7.51854e-06
-1.49439e-06
-7.15859e-06
-1.50851e-06
-6.79849e-06
-1.52115e-06
-6.43831e-06
-1.53362e-06
-6.07802e-06
-1.54766e-06
-5.71668e-06
-1.5664e-06
-5.35154e-06
-1.59433e-06
-4.97738e-06
-1.63607e-06
-4.58667e-06
-1.69453e-06
-4.17129e-06
-1.76817e-06
-3.72529e-06
-1.84978e-06
-3.24786e-06
-1.92654e-06
-2.74518e-06
-1.98311e-06
-2.22914e-06
-2.0073e-06
-1.71284e-06
-1.99507e-06
-1.20788e-06
-1.94926e-06
-7.23435e-07
-1.87559e-06
-2.65257e-07
-1.78184e-06
1.63126e-07
-1.67576e-06
5.59876e-07
-1.56498e-06
9.26111e-07
-1.45303e-06
1.26301e-06
-1.34363e-06
1.57201e-06
-1.23865e-06
1.85437e-06
-1.13892e-06
2.11122e-06
-1.04487e-06
2.34385e-06
-9.56952e-07
2.55405e-06
-8.75697e-07
2.74418e-06
-8.0154e-07
2.91694e-06
-7.34604e-07
3.07506e-06
-6.74612e-07
3.22097e-06
-6.20953e-07
3.3566e-06
-5.72837e-07
3.48335e-06
-5.29456e-07
3.60219e-06
-4.90098e-07
3.71379e-06
-4.54191e-07
3.81862e-06
-4.21298e-07
3.91708e-06
-3.91078e-07
4.00955e-06
-3.6325e-07
4.09637e-06
-3.37559e-07
4.17791e-06
-3.13756e-07
4.25447e-06
-2.91594e-07
4.32634e-06
-2.70835e-07
4.39378e-06
-2.51262e-07
4.45699e-06
-2.32685e-07
4.51613e-06
-2.14956e-07
4.57137e-06
-1.97968e-07
4.62283e-06
-1.81654e-07
4.67065e-06
-1.65987e-07
4.71497e-06
-1.50966e-07
4.75592e-06
-1.36613e-07
4.79366e-06
-1.22956e-07
4.82835e-06
-1.1003e-07
4.86015e-06
-9.78594e-08
4.88922e-06
-8.6466e-08
4.91575e-06
-7.58644e-08
4.93988e-06
-6.60481e-08
4.96178e-06
-5.69955e-08
4.9816e-06
-4.86828e-08
4.99949e-06
-4.10835e-08
5.01558e-06
-3.4158e-08
5.02996e-06
-2.78635e-08
5.04275e-06
-2.2153e-08
5.05408e-06
-1.69731e-08
5.06403e-06
-1.22778e-08
5.07269e-06
-8.02397e-09
5.08016e-06
-4.17231e-09
5.08651e-06
-6.88245e-10
5.0918e-06
2.47947e-09
5.09612e-06
5.34372e-09
5.09953e-06
7.94452e-09
5.10208e-06
1.03069e-08
5.10383e-06
1.24527e-08
5.10483e-06
1.44052e-08