/*--------------------------------*- C++ -*----------------------------------*\
  =========                 |
  \\      /  F ield         | OpenFOAM: The Open Source CFD Toolbox
   \\    /   O peration     | Website:  https://openfoam.org
    \\  /    A nd           | Version:  9
     \\/     M anipulation  |
\*---------------------------------------------------------------------------*/
FoamFile
{
    format      ascii;
    class       volScalarField;
    location    "0.017";
    object      pMean;
}
// * * * * * * * * * * * * * * * * * * * * * * * * * * * * * * * * * * * * * //

dimensions      [0 2 -2 0 0 0 0];

internalField   nonuniform List<scalar> 
12225
(
-4.02765
-4.64737
-4.97757
-5.1132
-5.19475
-5.27285
-5.35409
-5.43466
-5.50996
-5.57633
-5.63405
-5.68191
-5.72455
-5.7552
-5.78571
-5.79708
-5.82788
-5.86525
-4.29246
-4.68009
-4.97853
-5.12286
-5.20586
-5.28164
-5.36138
-5.4414
-5.51671
-5.58313
-5.64121
-5.68962
-5.73316
-5.76597
-5.79839
-5.81729
-5.85663
-5.93732
-4.31929
-4.67899
-4.96683
-5.12398
-5.21258
-5.28724
-5.36541
-5.44495
-5.52016
-5.58703
-5.64566
-5.6962
-5.7413
-5.77964
-5.81505
-5.85033
-5.90058
-5.99035
-4.52844
-4.73596
-4.97528
-5.13552
-5.22858
-5.30094
-5.37592
-5.45375
-5.52852
-5.59553
-5.65496
-5.7071
-5.75463
-5.79746
-5.83936
-5.88487
-5.94207
-6.02266
-4.59843
-4.76373
-4.9759
-5.13619
-5.2355
-5.3093
-5.38244
-5.45901
-5.53368
-5.6016
-5.66222
-5.71658
-5.76685
-5.81443
-5.86211
-5.91425
-5.97485
-6.049
-4.68818
-4.81712
-4.99367
-5.14384
-5.24712
-5.32323
-5.39477
-5.46923
-5.54318
-5.61168
-5.67362
-5.73024
-5.78362
-5.83568
-5.88848
-5.94535
-6.00875
-6.0817
-4.77522
-4.87448
-5.02072
-5.15539
-5.2584
-5.33694
-5.40769
-5.47983
-5.55236
-5.6212
-5.68466
-5.74367
-5.80014
-5.85615
-5.91358
-5.97487
-6.04181
-6.11615
-4.80417
-4.90747
-5.03562
-5.1609
-5.26494
-5.34738
-5.41916
-5.49054
-5.56304
-5.63293
-5.6983
-5.75991
-5.81975
-5.87976
-5.9416
-6.00712
-6.07794
-6.15511
-4.95935
-4.98885
-5.07666
-5.18483
-5.28447
-5.36546
-5.43596
-5.50524
-5.5756
-5.64489
-5.71135
-5.77531
-5.83815
-5.90164
-5.96746
-6.03703
-6.11178
-6.19245
-4.94673
-5.00635
-5.08807
-5.1897
-5.2883
-5.37253
-5.44556
-5.51568
-5.58618
-5.65628
-5.72465
-5.79122
-5.85732
-5.92442
-5.99416
-6.06769
-6.14636
-6.2308
-5.05094
-5.07608
-5.14009
-5.22862
-5.31671
-5.39384
-5.46448
-5.53363
-5.60322
-5.67289
-5.74187
-5.8101
-5.87852
-5.94854
-6.02151
-6.09853
-6.18068
-6.26882
-5.16389
-5.10628
-5.14633
-5.23461
-5.32372
-5.40292
-5.4756
-5.5455
-5.61471
-5.68431
-5.75434
-5.82463
-5.89556
-5.96832
-6.04418
-6.12418
-6.20935
-6.3005
-5.10201
-5.14599
-5.20684
-5.27449
-5.34723
-5.42093
-5.49254
-5.56185
-5.63039
-5.6997
-5.77025
-5.84186
-5.91468
-5.98954
-6.06751
-6.14968
-6.23699
-6.33038
-5.04586
-5.14731
-5.22541
-5.28806
-5.35506
-5.42917
-5.50365
-5.57446
-5.64364
-5.7137
-5.7852
-5.85798
-5.93245
-6.00935
-6.0896
-6.17407
-6.2635
-6.35858
-5.27803
-5.25926
-5.27232
-5.32252
-5.39275
-5.4638
-5.53047
-5.59587
-5.66298
-5.73273
-5.80463
-5.8782
-5.95373
-6.03189
-6.11335
-6.19863
-6.28845
-6.38329
-5.21341
-5.24883
-5.29094
-5.34214
-5.4041
-5.47148
-5.53992
-5.60858
-5.67832
-5.74885
-5.82018
-5.8931
-5.96839
-6.04647
-6.12776
-6.21258
-6.30145
-6.39455
-5.22321
-5.2852
-5.35459
-5.4069
-5.45134
-5.50155
-5.56155
-5.62788
-5.69585
-5.76449
-5.83439
-5.90623
-5.98056
-6.0575
-6.13705
-6.21921
-6.3044
-6.3927
-5.43364
-5.38903
-5.38009
-5.40349
-5.44967
-5.51079
-5.57567
-5.6391
-5.70265
-5.76769
-5.83443
-5.90315
-5.974
-6.04685
-6.12153
-6.19798
-6.27634
-6.3566
-5.36401
-5.37201
-5.39407
-5.43126
-5.47685
-5.52719
-5.58159
-5.63995
-5.70146
-5.76463
-5.82836
-5.89259
-5.95772
-6.02375
-6.09042
-6.15747
-6.22497
-6.29287
-5.25359
-5.28869
-5.33513
-5.38116
-5.43612
-5.49873
-5.56142
-5.6213
-5.68025
-5.73942
-5.79868
-5.8579
-5.91709
-5.97605
-6.03454
-6.09248
-6.14995
-6.20679
-5.31981
-5.33464
-5.35861
-5.39462
-5.44612
-5.50395
-5.56002
-5.61497
-5.67096
-5.72765
-5.78364
-5.83864
-5.89281
-5.94607
-5.9981
-6.04875
-6.09789
-6.1455
-5.2453
-5.23501
-5.27044
-5.33395
-5.40537
-5.47217
-5.53148
-5.58736
-5.64365
-5.70012
-5.75497
-5.8076
-5.85831
-5.90722
-5.95419
-5.99915
-6.04218
-6.08336
-5.19596
-5.23657
-5.28623
-5.34466
-5.40684
-5.4671
-5.52422
-5.57955
-5.63468
-5.68911
-5.74124
-5.79079
-5.83812
-5.88328
-5.92596
-5.96598
-6.00328
-6.03783
-5.07238
-5.1259
-5.2058
-5.29298
-5.37357
-5.44165
-5.5004
-5.55638
-5.61264
-5.66795
-5.72011
-5.76851
-5.81371
-5.85613
-5.89568
-5.93229
-5.966
-5.99692
-5.09459
-5.12332
-5.20143
-5.29387
-5.37461
-5.43902
-5.49453
-5.54892
-5.60456
-5.65913
-5.71007
-5.75672
-5.79982
-5.83995
-5.87703
-5.91083
-5.94119
-5.96814
-4.91945
-5.02572
-5.1558
-5.26957
-5.35451
-5.41929
-5.4771
-5.53427
-5.59143
-5.64618
-5.69657
-5.74228
-5.78406
-5.82263
-5.85786
-5.88955
-5.9177
-5.94238
-4.84983
-4.99364
-5.15503
-5.27553
-5.35352
-5.4134
-5.47071
-5.52897
-5.58631
-5.6403
-5.68964
-5.7344
-5.77535
-5.81274
-5.84653
-5.87655
-5.90276
-5.92519
-4.75407
-4.9401
-5.13613
-5.26511
-5.34069
-5.40004
-5.46016
-5.52078
-5.57872
-5.6324
-5.6813
-5.72558
-5.76584
-5.80235
-5.83506
-5.86386
-5.88878
-5.91007
-4.64415
-4.91728
-5.14144
-5.26562
-5.33461
-5.39369
-5.45549
-5.51688
-5.57469
-5.62804
-5.67677
-5.72094
-5.76093
-5.79683
-5.82864
-5.85611
-5.87955
-5.89896
-4.5133
-4.88925
-5.14201
-5.26223
-5.32782
-5.38749
-5.45044
-5.51216
-5.56973
-5.62269
-5.67107
-5.71496
-5.75471
-5.79039
-5.82198
-5.84908
-5.87195
-5.88993
-6.57945
-6.59998
-6.65195
-6.73071
-6.83532
-6.96508
-7.11957
-7.29825
-7.50029
-7.72422
-7.96763
-8.22722
-8.49874
-8.77728
-9.05719
-9.33296
-9.59984
-9.85508
-10.0977
-10.3295
-10.5535
-10.7742
-11.0003
-11.2463
-11.5313
-11.8897
-12.3663
-12.9804
-13.7264
-14.5929
-15.5603
-16.6033
-17.6933
-18.7986
-19.8856
-20.9193
-21.864
-22.6839
-23.3443
-23.8125
-24.0598
-24.0619
-23.8011
-23.2677
-22.4605
-21.3856
-20.0558
-18.4934
-16.7302
-14.8026
-12.7486
-10.6057
-8.40954
-6.19274
-3.98389
-1.80764
0.315204
2.36709
4.33335
6.20213
7.96401
9.61255
11.1441
12.5577
13.8544
15.0364
16.1063
17.0668
17.9203
18.6689
19.3153
19.8628
20.3158
20.6803
20.9633
21.1729
21.3177
21.4066
21.4492
21.4528
21.4247
21.3712
21.2977
21.2088
21.1083
20.9996
20.8853
20.7674
20.6478
20.5278
20.4085
20.2908
20.1754
20.0627
19.9533
19.8473
19.7449
19.6464
19.5517
19.4609
19.374
19.291
19.2118
19.1364
19.0645
18.9963
18.9315
18.87
18.8117
18.7566
18.7044
18.6551
18.6084
18.5643
18.5225
18.4831
18.4459
18.4108
18.3777
18.3464
18.3169
18.2891
18.2628
18.238
18.2145
18.1923
18.1713
18.1514
18.1326
18.1147
18.0976
18.0815
18.066
18.0513
18.0372
18.0237
18.0108
17.9984
17.9864
17.9749
17.9638
17.953
17.9426
17.9324
17.9226
17.913
17.9037
17.8945
17.8856
17.8768
17.8682
17.8598
17.8515
17.8434
17.8355
17.8277
17.8201
17.8127
17.8056
17.7988
17.7924
17.7864
17.781
17.7763
17.7726
17.77
17.769
17.77
17.7734
17.7805
17.7916
17.8094
17.8344
17.8721
17.9235
18.0018
18.1086
18.2815
18.5243
18.934
-6.55978
-6.58467
-6.63725
-6.71547
-6.81965
-6.94966
-7.10568
-7.28771
-7.49533
-7.72745
-7.98193
-8.25543
-8.54356
-8.84098
-9.14142
-9.438
-9.72445
-9.99514
-10.2493
-10.4911
-10.7336
-10.9998
-11.3097
-11.6573
-12.0363
-12.4814
-13.0378
-13.7194
-14.524
-15.4395
-16.4459
-17.5187
-18.63
-19.7497
-20.8454
-21.883
-22.8272
-23.6424
-24.2933
-24.7468
-24.9734
-24.9484
-24.6533
-24.0772
-23.218
-22.0842
-20.6951
-19.0785
-17.2648
-15.2892
-13.1893
-11.0036
-8.76836
-6.51692
-4.27801
-2.0759
0.0692817
2.14078
4.12468
6.00946
7.78582
9.44722
10.99
12.4135
13.7191
14.9097
15.9885
16.9582
17.8213
18.5799
19.2359
19.7922
20.253
20.624
20.9124
21.1264
21.2749
21.367
21.4124
21.4185
21.3928
21.3414
21.27
21.1831
21.0845
20.9776
20.8649
20.7485
20.6303
20.5116
20.3936
20.277
20.1626
20.0509
19.9424
19.8372
19.7356
19.6377
19.5437
19.4535
19.3671
19.2846
19.2058
19.1308
19.0593
18.9914
18.9269
18.8657
18.8077
18.7528
18.7008
18.6516
18.6051
18.5611
18.5196
18.4804
18.4434
18.4086
18.3757
18.3446
18.3153
18.2876
18.2614
18.2367
18.2134
18.1913
18.1704
18.1506
18.1318
18.1139
18.097
18.0808
18.0655
18.0508
18.0367
18.0233
18.0104
17.998
17.9861
17.9746
17.9635
17.9527
17.9423
17.9322
17.9223
17.9128
17.9034
17.8943
17.8854
17.8766
17.868
17.8596
17.8513
17.8432
17.8352
17.8274
17.8198
17.8124
17.8053
17.7985
17.792
17.786
17.7805
17.7758
17.772
17.7693
17.7681
17.7688
17.772
17.7786
17.7894
17.8062
17.8306
17.8659
17.9162
17.9876
18.0908
18.2344
18.4383
18.6603
-6.50047
-6.52478
-6.57518
-6.64974
-6.74923
-6.8738
-7.02413
-7.20058
-7.4032
-7.6313
-7.88344
-8.15732
-8.44968
-8.75632
-9.07206
-9.39184
-9.71236
-10.0335
-10.3565
-10.6833
-11.0205
-11.3859
-11.7993
-12.2708
-12.8066
-13.4181
-14.1171
-14.9093
-15.7943
-16.7651
-17.8094
-18.9097
-20.0438
-21.1848
-22.3021
-23.3619
-24.3282
-25.1641
-25.8326
-26.2985
-26.5295
-26.4979
-26.1821
-25.5686
-24.6551
-23.4531
-21.986
-20.2809
-18.3717
-16.2977
-14.1011
-11.8244
-9.50681
-7.18315
-4.88231
-2.62767
-0.437649
1.67304
3.69227
5.60956
7.41587
9.10423
10.6707
12.1147
13.4388
14.6467
15.7431
16.7314
17.6144
18.3933
19.0692
19.6439
20.1209
20.5057
20.8054
21.0286
21.1846
21.2834
21.3345
21.3459
21.325
21.2783
21.2112
21.1284
21.0338
20.9305
20.8212
20.7081
20.5929
20.477
20.3615
20.2474
20.1352
20.0256
19.919
19.8155
19.7156
19.6192
19.5266
19.4377
19.3525
19.2711
19.1934
19.1193
19.0487
18.9816
18.9179
18.8574
18.8
18.7457
18.6943
18.6457
18.5997
18.5562
18.5152
18.4764
18.4398
18.4053
18.3726
18.3418
18.3127
18.2853
18.2593
18.2348
18.2117
18.1897
18.169
18.1493
18.1306
18.1129
18.0961
18.08
18.0647
18.0501
18.0361
18.0228
18.0099
17.9976
17.9857
17.9742
17.9632
17.9525
17.9421
17.932
17.9222
17.9126
17.9033
17.8941
17.8852
17.8765
17.8679
17.8594
17.8512
17.843
17.8351
17.8273
17.8196
17.8122
17.8051
17.7982
17.7916
17.7856
17.78
17.7751
17.7711
17.7682
17.7668
17.7672
17.7699
17.7758
17.7859
17.8013
17.8242
17.8566
17.9033
17.9667
18.0575
18.1716
18.3257
18.4574
-6.45065
-6.4721
-6.51805
-6.587
-6.67963
-6.79624
-6.93746
-7.10382
-7.29569
-7.51299
-7.75497
-8.0202
-8.30688
-8.61368
-8.93879
-9.27978
-9.63596
-10.0095
-10.405
-10.8285
-11.2868
-11.7885
-12.3427
-12.9592
-13.6464
-14.411
-15.257
-16.1862
-17.1974
-18.2854
-19.44
-20.6456
-21.8806
-23.1179
-24.3263
-25.4713
-26.5158
-27.421
-28.1472
-28.6541
-28.9043
-28.8665
-28.5195
-27.8528
-26.8659
-25.569
-23.9823
-22.1357
-20.0707
-17.8362
-15.4834
-13.0616
-10.6151
-8.18057
-5.78685
-3.45531
-1.20099
0.965207
3.03479
4.99959
6.85104
8.58109
10.1844
11.66
13.0114
14.2447
15.3665
16.3822
17.2948
18.105
18.8121
19.4159
19.9187
20.3252
20.6427
20.8803
21.0482
21.1576
21.2177
21.2374
21.2243
21.1848
21.1244
21.048
20.9592
20.8615
20.7574
20.6491
20.5384
20.4266
20.3151
20.2045
20.0957
19.9891
19.8853
19.7845
19.687
19.5929
19.5023
19.4153
19.3319
19.2521
19.1759
19.1031
19.0338
18.9679
18.9052
18.8457
18.7893
18.7358
18.6852
18.6373
18.592
18.5492
18.5087
18.4704
18.4343
18.4002
18.368
18.3376
18.3089
18.2818
18.2561
18.2319
18.209
18.1873
18.1668
18.1473
18.1288
18.1113
18.0946
18.0786
18.0635
18.049
18.0351
18.0218
18.0091
17.9968
17.985
17.9736
17.9626
17.9519
17.9416
17.9315
17.9218
17.9122
17.9029
17.8938
17.8849
17.8762
17.8676
17.8591
17.8509
17.8427
17.8348
17.8269
17.8193
17.8119
17.8046
17.7977
17.7911
17.7849
17.7792
17.7742
17.77
17.7668
17.765
17.7648
17.767
17.772
17.781
17.7947
17.8154
17.8444
17.8858
17.9404
18.0157
18.1046
18.2135
18.285
-6.4545
-6.47353
-6.51521
-6.57807
-6.66287
-6.77005
-6.90037
-7.05456
-7.23336
-7.43754
-7.66797
-7.9254
-8.21049
-8.52321
-8.86395
-9.23364
-9.63419
-10.0689
-10.5425
-11.061
-11.6312
-12.2595
-12.9519
-13.7153
-14.5568
-15.4832
-16.499
-17.6061
-18.802
-20.0785
-21.4213
-22.8103
-24.2206
-25.623
-26.9847
-28.2696
-29.4391
-30.4513
-31.2629
-31.8302
-32.1122
-32.0758
-31.6996
-30.9703
-29.8834
-28.4405
-26.6617
-24.5955
-22.2998
-19.8358
-17.2645
-14.6438
-12.0241
-9.44567
-6.93678
-4.51494
-2.18919
0.036625
2.16066
4.17946
6.08606
7.87043
9.52363
11.0421
12.4296
13.6951
14.8489
15.8994
16.8512
17.7042
18.4551
19.1005
19.6401
20.0774
20.4201
20.6782
20.8632
20.9872
21.0602
21.0916
21.0892
21.0597
21.0087
20.9409
20.8602
20.7699
20.6726
20.5706
20.4658
20.3596
20.2531
20.1472
20.0428
19.9403
19.8403
19.743
19.6487
19.5576
19.4698
19.3853
19.3042
19.2266
19.1524
19.0815
19.0138
18.9495
18.8883
18.8301
18.7749
18.7226
18.673
18.6261
18.5817
18.5397
18.5
18.4625
18.427
18.3936
18.3619
18.3321
18.3039
18.2772
18.252
18.2281
18.2056
18.1842
18.1639
18.1447
18.1265
18.1091
18.0926
18.0769
18.0619
18.0476
18.0338
18.0207
18.008
17.9959
17.9841
17.9728
17.9619
17.9513
17.941
17.931
17.9213
17.9118
17.9025
17.8934
17.8846
17.8758
17.8673
17.8588
17.8506
17.8424
17.8344
17.8266
17.8189
17.8114
17.8042
17.7971
17.7904
17.7841
17.7783
17.773
17.7685
17.765
17.7627
17.762
17.7634
17.7674
17.7749
17.7867
17.8047
17.8296
17.8648
17.9099
17.9695
18.0349
18.1055
18.1341
-6.54442
-6.56167
-6.60024
-6.65864
-6.7378
-6.83831
-6.96128
-7.10794
-7.27984
-7.47853
-7.70568
-7.96319
-8.25312
-8.57767
-8.9393
-9.34103
-9.78653
-10.2802
-10.8274
-11.4342
-12.1076
-12.8549
-13.684
-14.6032
-15.6209
-16.7443
-17.977
-19.3169
-20.7557
-22.2777
-23.8613
-25.4801
-27.1048
-28.7038
-30.2432
-31.6872
-32.9976
-34.1333
-35.0512
-35.7056
-36.0507
-36.0429
-35.6407
-34.8148
-33.5579
-31.892
-29.8629
-27.5251
-24.9439
-22.1916
-19.3426
-16.4675
-13.6272
-10.8684
-8.22051
-5.697
-3.29963
-1.02308
1.1415
3.20148
5.15687
6.99751
8.70815
10.2781
11.7088
13.0113
14.2007
15.2904
16.2878
17.1927
17.9986
18.697
19.2839
19.7612
20.1367
20.4216
20.6294
20.7726
20.8625
20.9091
20.9207
20.9042
20.8653
20.8086
20.7381
20.6572
20.5686
20.4745
20.377
20.2774
20.1771
20.077
19.9779
19.8805
19.785
19.692
19.6017
19.5143
19.4298
19.3485
19.2704
19.1954
19.1236
19.055
18.9895
18.927
18.8676
18.8111
18.7574
18.7065
18.6582
18.6125
18.5692
18.5282
18.4895
18.4528
18.4182
18.3855
18.3546
18.3253
18.2977
18.2716
18.2468
18.2234
18.2013
18.1803
18.1604
18.1415
18.1235
18.1065
18.0902
18.0747
18.0599
18.0457
18.0322
18.0192
18.0067
17.9946
17.983
17.9718
17.961
17.9505
17.9403
17.9303
17.9207
17.9112
17.902
17.893
17.8841
17.8754
17.8668
17.8584
17.8502
17.842
17.834
17.8262
17.8184
17.8109
17.8036
17.7965
17.7896
17.7832
17.7771
17.7716
17.7668
17.7629
17.7601
17.7587
17.7591
17.7619
17.7678
17.7774
17.7921
17.8126
17.841
17.8764
17.9205
17.965
18.0043
18.0032
-6.71503
-6.73143
-6.76851
-6.82468
-6.90122
-6.99892
-7.11929
-7.26399
-7.43507
-7.63486
-7.86601
-8.13138
-8.43406
-8.7775
-9.16564
-9.603
-10.0948
-10.6468
-11.2659
-11.9599
-12.7383
-13.612
-14.5932
-15.694
-16.9245
-18.2898
-19.7877
-21.4065
-23.1257
-24.9179
-26.7525
-28.5983
-30.4267
-32.2111
-33.9255
-35.5419
-37.029
-38.3475
-39.4485
-40.2721
-40.7508
-40.8123
-40.3937
-39.4627
-38.0242
-36.1171
-33.7897
-31.1041
-28.1432
-25.002
-21.7774
-18.5586
-15.4207
-12.4195
-9.58733
-6.93351
-4.45014
-2.12085
0.075024
2.15913
4.14505
6.03018
7.7956
9.4197
10.8958
12.2348
13.4566
14.5816
15.6223
16.581
17.4481
18.2089
18.8524
19.3779
19.7932
20.1113
20.347
20.5142
20.6253
20.691
20.72
20.7193
20.695
20.6517
20.5936
20.524
20.4457
20.3612
20.2722
20.1806
20.0876
19.9942
19.9014
19.8097
19.7196
19.6316
19.5459
19.4628
19.3824
19.3048
19.2301
19.1583
19.0894
19.0235
18.9605
18.9003
18.843
18.7884
18.7366
18.6873
18.6406
18.5963
18.5543
18.5146
18.4769
18.4414
18.4077
18.3759
18.3458
18.3173
18.2903
18.2648
18.2407
18.2179
18.1962
18.1757
18.1562
18.1377
18.1201
18.1033
18.0873
18.0721
18.0575
18.0436
18.0302
18.0174
18.0051
17.9932
17.9817
17.9707
17.9599
17.9495
17.9394
17.9295
17.9199
17.9106
17.9014
17.8924
17.8836
17.8749
17.8664
17.858
17.8497
17.8416
17.8335
17.8257
17.8179
17.8103
17.8029
17.7957
17.7887
17.7821
17.7758
17.77
17.7649
17.7605
17.757
17.7549
17.7543
17.7557
17.7597
17.7669
17.7782
17.7939
17.8152
17.841
17.8707
17.8968
17.9111
17.8881
-6.94643
-6.96292
-7.00034
-7.05677
-7.13395
-7.23287
-7.35539
-7.50353
-7.67985
-7.88732
-8.12927
-8.40928
-8.73131
-9.09991
-9.52031
-9.99847
-10.5411
-11.1561
-11.8527
-12.6422
-13.539
-14.5597
-15.7219
-17.0409
-18.5253
-20.1727
-21.9676
-23.8822
-25.8807
-27.9256
-29.9833
-32.0279
-34.0436
-36.0229
-37.9594
-39.8395
-41.6328
-43.2876
-44.7288
-45.8635
-46.5874
-46.8012
-46.4329
-45.4403
-43.8179
-41.5974
-38.8428
-35.6523
-32.1475
-28.4595
-24.7153
-21.0273
-17.486
-14.1559
-11.0717
-8.23669
-5.63075
-3.22365
-0.983628
1.12357
3.12924
5.0452
6.85574
8.52897
10.0455
11.4117
12.6527
13.7983
14.8705
15.8768
16.8074
17.6392
18.3499
18.9326
19.3946
19.7515
20.0199
20.2155
20.3518
20.4401
20.4896
20.5077
20.5004
20.4726
20.4287
20.372
20.3056
20.2318
20.1528
20.0703
19.9856
19.8999
19.8141
19.7289
19.6449
19.5625
19.4821
19.4039
19.3281
19.2547
19.1839
19.1158
19.0503
18.9874
18.9273
18.8697
18.8148
18.7625
18.7127
18.6654
18.6204
18.5777
18.5373
18.4989
18.4626
18.4282
18.3957
18.3648
18.3357
18.3081
18.2819
18.2572
18.2337
18.2115
18.1904
18.1704
18.1513
18.1333
18.116
18.0997
18.084
18.0691
18.0548
18.0411
18.028
18.0154
18.0032
17.9915
17.9802
17.9693
17.9587
17.9484
17.9384
17.9286
17.9191
17.9098
17.9007
17.8917
17.8829
17.8743
17.8658
17.8574
17.8492
17.841
17.833
17.8251
17.8173
17.8096
17.8021
17.7948
17.7877
17.7809
17.7744
17.7683
17.7627
17.7578
17.7537
17.7507
17.749
17.7489
17.7509
17.7555
17.7631
17.7739
17.7882
17.8047
17.8213
17.8314
17.8259
17.7858
-7.20838
-7.22624
-7.26623
-7.32574
-7.40713
-7.51149
-7.64102
-7.7981
-7.98576
-8.20745
-8.467
-8.7687
-9.11752
-9.5192
-9.98033
-10.5084
-11.1118
-11.8009
-12.5885
-13.4914
-14.5303
-15.7288
-17.1088
-18.6848
-20.457
-22.4083
-24.5042
-26.6988
-28.9447
-31.2035
-33.4551
-35.6999
-37.9509
-40.2238
-42.5256
-44.8417
-47.1261
-49.2963
-51.2382
-52.8168
-53.8901
-54.3282
-54.0233
-52.9087
-50.9817
-48.3064
-44.9803
-41.1364
-36.9362
-32.553
-28.1526
-23.8763
-19.8325
-16.0929
-12.6916
-9.62493
-6.85878
-4.34467
-2.03654
0.10884
2.136
4.0734
5.91631
7.62839
9.17794
10.5647
11.817
12.9715
14.0604
15.1058
16.0983
17.0055
17.7901
18.4361
18.9503
19.3501
19.6549
19.8823
20.0469
20.1607
20.2333
20.2723
20.284
20.2736
20.2453
20.2029
20.1495
20.0878
20.0198
19.9473
19.8719
19.7947
19.7167
19.6387
19.5614
19.4853
19.4107
19.3379
19.2671
19.1984
19.132
19.0679
19.0062
18.9468
18.8899
18.8353
18.7831
18.7333
18.6858
18.6406
18.5977
18.5568
18.5181
18.4813
18.4464
18.4134
18.3821
18.3524
18.3243
18.2977
18.2724
18.2485
18.2258
18.2042
18.1838
18.1643
18.1459
18.1283
18.1115
18.0955
18.0803
18.0657
18.0517
18.0383
18.0254
18.0131
18.0011
17.9896
17.9785
17.9677
17.9573
17.9471
17.9372
17.9276
17.9181
17.9089
17.8999
17.891
17.8822
17.8737
17.8652
17.8568
17.8486
17.8405
17.8324
17.8245
17.8166
17.8089
17.8013
17.7939
17.7866
17.7796
17.7728
17.7664
17.7604
17.7549
17.7501
17.7461
17.7432
17.7416
17.7415
17.7433
17.7472
17.7531
17.7606
17.7683
17.7733
17.7695
17.7481
17.6945
-7.46883
-7.4899
-7.53543
-7.6014
-7.69118
-7.80589
-7.94802
-8.12023
-8.32594
-8.56904
-8.85406
-9.18623
-9.57171
-10.0176
-10.5317
-11.1231
-11.8025
-12.5835
-13.4841
-14.5274
-15.7411
-17.1536
-18.7863
-20.6461
-22.7183
-24.9668
-27.3374
-29.7728
-32.2291
-34.6894
-37.1647
-39.6879
-42.3003
-45.0328
-47.8856
-50.8188
-53.7487
-56.5491
-59.0586
-61.0961
-62.482
-63.0544
-62.6897
-61.3294
-58.9942
-55.7685
-51.7746
-47.1789
-42.1848
-37.0114
-31.8686
-26.9318
-22.3278
-18.1334
-14.3799
-11.0561
-8.11137
-5.47626
-3.08747
-0.893595
1.15645
3.1069
4.967
6.70607
8.28607
9.69884
10.9726
12.1485
13.2629
14.3431
15.3868
16.3545
17.2022
17.9072
18.4736
18.9183
19.2619
19.5233
19.7181
19.8589
19.9559
20.0172
20.0492
20.0573
20.0459
20.0188
19.9795
19.9306
19.8744
19.8128
19.7474
19.6795
19.61
19.5399
19.4699
19.4005
19.3322
19.2653
19.2
19.1364
19.0748
19.0151
18.9575
18.902
18.8486
18.7973
18.7481
18.7011
18.6562
18.6133
18.5726
18.5338
18.4969
18.4618
18.4286
18.397
18.3671
18.3387
18.3117
18.2862
18.2619
18.2389
18.217
18.1962
18.1765
18.1577
18.1398
18.1227
18.1065
18.0909
18.0761
18.0619
18.0483
18.0352
18.0226
18.0105
17.9988
17.9875
17.9766
17.966
17.9557
17.9457
17.9359
17.9264
17.9171
17.9079
17.899
17.8901
17.8815
17.8729
17.8645
17.8562
17.848
17.8398
17.8318
17.8238
17.8159
17.8081
17.8004
17.7929
17.7855
17.7782
17.7711
17.7644
17.7579
17.7518
17.7463
17.7413
17.7371
17.7339
17.7317
17.7307
17.7308
17.7318
17.7329
17.7324
17.727
17.7113
17.6771
17.6127
-7.69824
-7.72548
-7.78012
-7.85676
-7.96012
-8.09088
-8.25196
-8.44632
-8.67793
-8.9514
-9.27221
-9.64656
-10.0818
-10.5862
-11.1696
-11.8433
-12.6215
-13.5221
-14.5682
-15.7875
-17.2104
-18.8644
-20.7648
-22.9053
-25.2553
-27.7626
-30.3663
-33.0183
-35.6962
-38.4115
-41.2058
-44.1351
-47.249
-50.5691
-54.0657
-57.6563
-61.2077
-64.5472
-67.48
-69.8082
-71.3436
-71.9178
-71.401
-69.73
-66.9297
-63.0992
-58.3948
-53.0203
-47.2225
-41.2646
-35.3984
-29.8285
-24.6955
-20.0766
-15.997
-12.439
-9.33124
-6.58336
-4.11802
-1.87508
0.19686
2.15438
4.01986
5.77571
7.38853
8.84693
10.1677
11.3863
12.5366
13.645
14.7156
15.7181
16.6095
17.363
17.9775
18.4669
18.8503
19.1465
19.3722
19.5406
19.6624
19.7462
19.7989
19.8261
19.8322
19.8213
19.7968
19.7614
19.7178
19.6678
19.6131
19.5551
19.4948
19.4331
19.3709
19.3088
19.2473
19.1866
19.1272
19.0691
19.0126
18.9577
18.9046
18.8532
18.8036
18.7558
18.7099
18.6659
18.6238
18.5836
18.5452
18.5086
18.4738
18.4406
18.4091
18.3792
18.3507
18.3237
18.298
18.2736
18.2504
18.2284
18.2074
18.1875
18.1685
18.1504
18.1331
18.1167
18.101
18.0859
18.0715
18.0577
18.0445
18.0318
18.0195
18.0077
17.9963
17.9852
17.9745
17.9641
17.954
17.9441
17.9345
17.9251
17.9159
17.9068
17.898
17.8892
17.8806
17.8722
17.8638
17.8555
17.8473
17.8391
17.8311
17.8231
17.8152
17.8073
17.7995
17.7918
17.7842
17.7767
17.7694
17.7622
17.7553
17.7486
17.7423
17.7363
17.7308
17.7259
17.7216
17.7177
17.7142
17.7105
17.7056
17.6975
17.683
17.657
17.6123
17.5392
-7.87303
-7.90972
-7.97819
-8.07145
-8.19468
-8.34817
-8.53577
-8.76088
-9.02833
-9.34352
-9.71281
-10.1436
-10.6449
-11.2276
-11.9046
-12.6906
-13.6028
-14.6609
-15.888
-17.3109
-18.9573
-20.8484
-22.9916
-25.3711
-27.9516
-30.6824
-33.511
-36.4052
-39.3607
-42.4085
-45.6012
-48.991
-52.6095
-56.4455
-60.4285
-64.4435
-68.3361
-71.9233
-75.0093
-77.3971
-78.8957
-79.3266
-78.5488
-76.498
-73.2118
-68.8139
-63.4909
-57.4746
-51.0441
-44.4931
-38.1019
-32.0812
-26.5793
-21.6733
-17.3801
-13.6691
-10.4506
-7.62164
-5.09586
-2.81105
-0.714793
1.24978
3.11698
4.88733
6.53935
8.05843
9.44345
10.7113
11.8877
13.0062
14.0853
15.1056
16.0271
16.8196
17.4767
18.0078
18.4292
18.7591
19.0146
19.2099
19.3562
19.4624
19.5358
19.5821
19.6061
19.6118
19.6026
19.5814
19.5509
19.5131
19.4697
19.4222
19.3716
19.3189
19.265
19.2107
19.1563
19.1024
19.0492
18.997
18.9459
18.8961
18.8477
18.8007
18.7551
18.7112
18.6688
18.628
18.5889
18.5515
18.5157
18.4815
18.4488
18.4177
18.3881
18.3599
18.333
18.3075
18.2832
18.26
18.238
18.217
18.197
18.178
18.1598
18.1425
18.126
18.1101
18.095
18.0805
18.0666
18.0533
18.0404
18.0281
18.0161
18.0046
17.9935
17.9827
17.9722
17.962
17.9521
17.9424
17.933
17.9237
17.9146
17.9057
17.8969
17.8883
17.8797
17.8713
17.863
17.8547
17.8465
17.8384
17.8303
17.8223
17.8143
17.8064
17.7985
17.7907
17.7829
17.7752
17.7676
17.76
17.7526
17.7453
17.7381
17.7312
17.7244
17.7178
17.7113
17.7047
17.6977
17.6895
17.6789
17.664
17.6414
17.6066
17.5532
17.4732
-7.97751
-8.02636
-8.1151
-8.23205
-8.382
-8.56642
-8.78976
-9.05623
-9.37153
-9.7422
-10.1763
-10.684
-11.2773
-11.9705
-12.7785
-13.7164
-14.7997
-16.0445
-17.4692
-19.0953
-20.9457
-23.0378
-25.377
-27.95
-30.7281
-33.6698
-36.733
-39.8916
-43.1392
-46.4958
-49.9962
-53.6707
-57.5264
-61.5379
-65.6273
-69.6841
-73.5617
-77.0811
-80.0424
-82.2399
-83.4794
-83.5929
-82.46
-80.0387
-76.3805
-71.6098
-65.9319
-59.5946
-52.8868
-46.1047
-39.5259
-33.3605
-27.7495
-22.7654
-18.4164
-14.6601
-11.4042
-8.54335
-5.99017
-3.6788
-1.55662
0.425016
2.30183
4.08798
5.77693
7.35022
8.78724
10.0893
11.2851
12.4166
13.5069
14.5397
15.4797
16.2987
16.988
17.5532
18.0073
18.367
18.6495
18.8697
19.0394
19.1676
19.2614
19.3268
19.3687
19.3912
19.3978
19.3914
19.3745
19.3494
19.3178
19.2812
19.2409
19.1977
19.1527
19.1065
19.0598
19.013
18.9665
18.9204
18.8751
18.8306
18.7872
18.7448
18.7036
18.6636
18.625
18.5877
18.5517
18.5172
18.4842
18.4525
18.4222
18.3933
18.3657
18.3393
18.3142
18.2902
18.2673
18.2455
18.2247
18.2049
18.186
18.1679
18.1506
18.1341
18.1183
18.1031
18.0886
18.0747
18.0613
18.0485
18.0361
18.0241
18.0125
18.0014
17.9905
17.98
17.9698
17.9598
17.9501
17.9406
17.9313
17.9222
17.9132
17.9044
17.8958
17.8872
17.8788
17.8704
17.8621
17.8539
17.8458
17.8376
17.8296
17.8215
17.8135
17.8055
17.7975
17.7896
17.7816
17.7737
17.7657
17.7578
17.7499
17.7419
17.734
17.726
17.7179
17.7097
17.7011
17.6918
17.6814
17.669
17.6532
17.6321
17.6024
17.5601
17.4994
17.4137
-8.00415
-8.06737
-8.18413
-8.33248
-8.518
-8.74342
-9.01384
-9.33482
-9.71427
-10.1617
-10.6884
-11.3069
-12.0308
-12.874
-13.8497
-14.9692
-16.2431
-17.6814
-19.2958
-21.1017
-23.1182
-25.363
-27.8456
-30.5602
-33.4845
-36.5811
-39.8047
-43.1155
-46.487
-49.9152
-53.4184
-57.0201
-60.7282
-64.5229
-68.3405
-72.0799
-75.6008
-78.7321
-81.2833
-83.0632
-83.9031
-83.6631
-82.2485
-79.6315
-75.8595
-71.0518
-65.392
-59.1294
-52.5498
-45.9376
-39.545
-33.5645
-28.1223
-23.2816
-19.0457
-15.3644
-12.1507
-9.31122
-6.76395
-4.44196
-2.29552
-0.287908
1.60765
3.40879
5.11498
6.70762
8.16635
9.49554
10.7267
11.8934
13.0053
14.0451
14.9883
15.8165
16.523
17.1108
17.5895
17.9736
18.2795
18.5223
18.7139
18.8632
18.9772
19.0616
19.1215
19.161
19.1835
19.1921
19.1893
19.1774
19.1581
19.1329
19.1032
19.07
19.0343
18.9968
18.9581
18.9189
18.8793
18.8398
18.8005
18.7617
18.7234
18.6859
18.6492
18.6134
18.5787
18.545
18.5124
18.481
18.4509
18.4219
18.3941
18.3674
18.3419
18.3175
18.2942
18.2719
18.2506
18.2302
18.2107
18.1921
18.1742
18.1572
18.1408
18.1251
18.1101
18.0957
18.0819
18.0685
18.0557
18.0433
18.0314
18.0199
18.0087
17.9979
17.9874
17.9771
17.9672
17.9575
17.948
17.9387
17.9296
17.9206
17.9118
17.9031
17.8946
17.8861
17.8778
17.8695
17.8612
17.8531
17.8449
17.8368
17.8288
17.8207
17.8126
17.8046
17.7965
17.7884
17.7803
17.7721
17.7639
17.7555
17.7471
17.7386
17.7298
17.7208
17.7115
17.7016
17.691
17.6792
17.6655
17.6492
17.6287
17.602
17.5661
17.5173
17.4505
17.3601
-7.97095
-8.04461
-8.19114
-8.37833
-8.60921
-8.88713
-9.21946
-9.61571
-10.0879
-10.6479
-11.3071
-12.0762
-12.9663
-13.9877
-15.1493
-16.4568
-17.9131
-19.5202
-21.283
-23.2121
-25.324
-27.6353
-30.1551
-32.8774
-35.7788
-38.8206
-41.9531
-45.1275
-48.3092
-51.4881
-54.675
-57.895
-61.1575
-64.4468
-67.7098
-70.8626
-73.7804
-76.3153
-78.3064
-79.5951
-80.0429
-79.5377
-78.0046
-75.42
-71.8216
-67.3097
-62.0439
-56.2519
-50.1975
-44.1337
-38.2729
-32.7763
-27.7508
-23.2496
-19.2721
-15.7698
-12.6689
-9.89462
-7.37753
-5.05715
-2.89233
-0.862107
1.04718
2.84935
4.54812
6.13379
7.59957
8.95849
10.2345
11.4404
12.5703
13.6097
14.5463
15.3716
16.0824
16.6809
17.1754
17.5785
17.905
18.1688
18.3814
18.5513
18.6851
18.7884
18.8661
18.9225
18.9612
18.985
18.9965
18.998
18.9913
18.978
18.9594
18.9366
18.9105
18.882
18.8518
18.8204
18.7882
18.7555
18.7225
18.6895
18.6567
18.6242
18.5922
18.5608
18.5301
18.5002
18.4712
18.4431
18.4159
18.3897
18.3645
18.3403
18.317
18.2947
18.2732
18.2527
18.233
18.214
18.1959
18.1785
18.1619
18.1459
18.1305
18.1157
18.1015
18.0879
18.0747
18.062
18.0498
18.038
18.0265
18.0154
18.0047
17.9942
17.984
17.9741
17.9644
17.955
17.9457
17.9366
17.9277
17.9189
17.9103
17.9017
17.8933
17.885
17.8767
17.8685
17.8603
17.8522
17.8441
17.836
17.8279
17.8199
17.8118
17.8036
17.7955
17.7872
17.7789
17.7705
17.762
17.7533
17.7444
17.7352
17.7257
17.7158
17.7052
17.6937
17.6811
17.6669
17.6503
17.6303
17.6055
17.5738
17.5325
17.4781
17.4062
17.3118
-7.91546
-7.98806
-8.15414
-8.38534
-8.67518
-9.02593
-9.45002
-9.96136
-10.5723
-11.2903
-12.1206
-13.0686
-14.1394
-15.3356
-16.6567
-18.1014
-19.6677
-21.3533
-23.1569
-25.0802
-27.1275
-29.3046
-31.6148
-34.0602
-36.6294
-39.3048
-42.0556
-44.8414
-47.6277
-50.388
-53.1139
-55.8083
-58.474
-61.1012
-63.6576
-66.0847
-68.2948
-70.177
-71.6078
-72.4627
-72.6276
-72.0086
-70.5426
-68.2079
-65.0341
-61.1016
-56.5462
-51.5588
-46.354
-41.1322
-36.0574
-31.2569
-26.819
-22.7869
-19.1588
-15.9007
-12.9604
-10.2814
-7.8108
-5.5067
-3.34423
-1.31217
0.597954
2.3921
4.07163
5.63911
7.10575
8.48836
9.79716
11.0273
12.1656
13.201
14.1281
14.9447
15.6513
16.252
16.7554
17.1732
17.5184
17.8029
18.0365
18.2269
18.3807
18.503
18.5988
18.6725
18.7276
18.7671
18.7935
18.8089
18.8154
18.8144
18.8074
18.7954
18.7796
18.7606
18.7392
18.7161
18.6916
18.6661
18.6398
18.6131
18.586
18.5589
18.5318
18.505
18.4786
18.4527
18.4274
18.4027
18.3788
18.3556
18.3331
18.3114
18.2905
18.2704
18.2509
18.2322
18.2142
18.1969
18.1802
18.1642
18.1487
18.1339
18.1195
18.1057
18.0924
18.0795
18.0671
18.0551
18.0435
18.0322
18.0213
18.0107
18.0004
17.9903
17.9805
17.9709
17.9615
17.9523
17.9433
17.9345
17.9257
17.9171
17.9086
17.9003
17.892
17.8837
17.8755
17.8674
17.8593
17.8513
17.8432
17.8352
17.8271
17.819
17.8109
17.8027
17.7944
17.7861
17.7776
17.769
17.7602
17.7511
17.7417
17.732
17.7217
17.7108
17.699
17.6861
17.6717
17.6551
17.6358
17.6125
17.5838
17.5477
17.5016
17.4424
17.3661
17.2685
-7.82564
-7.89271
-8.08564
-8.3758
-8.7512
-9.2103
-9.76709
-10.4318
-11.208
-12.0928
-13.08
-14.1623
-15.3338
-16.5895
-17.9266
-19.341
-20.8277
-22.3772
-23.9851
-25.6477
-27.374
-29.1729
-31.0609
-33.0506
-35.1486
-37.3491
-39.6326
-41.9672
-44.3154
-46.6405
-48.915
-51.1253
-53.2663
-55.3301
-57.2968
-59.1281
-60.7662
-62.1347
-63.1446
-63.7026
-63.721
-63.1262
-61.8682
-59.9319
-57.3408
-54.1448
-50.443
-46.3796
-42.1138
-37.7914
-33.5358
-29.4501
-25.6091
-22.0486
-18.7724
-15.7665
-12.9998
-10.4308
-8.02455
-5.76124
-3.62918
-1.61669
0.281683
2.06049
3.71685
5.26361
6.72348
8.1135
9.43385
10.6706
11.8068
12.8328
13.7465
14.5495
15.246
15.8429
16.3504
16.7795
17.1407
17.4436
17.6963
17.9059
18.0783
18.2188
18.3322
18.4227
18.4939
18.5488
18.5898
18.6191
18.6386
18.6498
18.6543
18.6531
18.6474
18.6379
18.6254
18.6105