/*--------------------------------*- C++ -*----------------------------------*\
  =========                 |
  \\      /  F ield         | OpenFOAM: The Open Source CFD Toolbox
   \\    /   O peration     | Website:  https://openfoam.org
    \\  /    A nd           | Version:  9
     \\/     M anipulation  |
\*---------------------------------------------------------------------------*/
FoamFile
{
    format      ascii;
    class       volScalarField;
    location    "0.017";
    object      pPrime2Mean;
}
// * * * * * * * * * * * * * * * * * * * * * * * * * * * * * * * * * * * * * //

dimensions      [0 4 -4 0 0 0 0];

internalField   nonuniform List<scalar> 
12225
(
307508
304565
301098
297359
293477
289538
285595
281683
277822
274020
270279
266594
262949
259323
255680
251962
248051
243675
307541
304595
301121
297377
293492
289550
285606
281693
277832
274031
270291
266607
262966
259345
255713
252015
248156
243959
307658
304663
301171
297417
293525
289578
285630
281716
277854
274054
270317
266638
263004
259396
255785
252128
248363
244429
307857
304775
301255
297484
293578
289623
285670
281753
277891
274093
270360
266688
263066
259478
255900
252304
248660
244983
308053
304937
301380
297582
293658
289690
285729
281808
277945
274149
270423
266762
263157
259596
256062
252541
249030
245579
308332
305156
301551
297716
293768
289782
285811
281883
278019
274227
270509
266861
263279
259752
256271
252835
249457
246196
308693
305446
301775
297894
293913
289905
285918
281983
278117
274329
270621
266991
263435
259948
256528
253180
249927
246824
309196
305820
302066
298124
294098
290061
286055
282111
278242
274458
270762
267152
263628
260187
256831
253571
250433
247461
309819
306285
302425
298407
294329
290255
286227
282269
278397
274618
270935
267349
263859
260466
257176
254002
250966
248103
310570
306861
302870
298758
294613
290493
286435
282461
278585
274811
271143
267582
264129
260787
257562
254467
251522
248750
311468
307544
303402
299178
294954
290780
286687
282693
278810
275040
271388
267853
264438
261146
257984
254963
252097
249402
312425
308296
303984
299639
295324
291089
286957
282942
279051
275285
271647
268138
264757
261510
258402
255441
252638
250003
313524
309143
304639
300153
295740
291438
287262
283223
279321
275558
271934
268449
265102
261897
258838
255932
253185
250601
314962
310290
305513
300831
296283
291890
287658
283585
279670
275908
272299
268840
265530
262370
259363
256512
253819
251285
317014
311772
306624
301691
296975
292468
288163
284048
280114
276352
272757
269325
266053
262939
259984
257185
254544
252059
319960
313745
308049
302774
297834
293185
288791
284624
280665
276901
273321
269915
266681
263612
260705
257957
255364
252922
323121
316008
309687
304024
298839
294032
289539
285314
281328
277560
273992
270613
267413
264385
261522
258819
256269
253866
326522
318300
311353
305313
299893
294939
290356
286082
282076
278306
274753
271399
268233
265242
262419
259755
257242
254872
328558
319695
312465
306267
300749
295737
291124
286839
282836
279082
275552
272229
269096
266142
263355
260725
258244
255902
326705
318988
312279
306344
300983
296074
291531
287300
283341
279626
276133
272843
269742
266817
264057
261453
258994
256672
324384
317732
311618
306043
300904
296135
291689
287528
283622
279948
276488
273227
270151
267248
264508
261921
259477
257167
322552
316518
310881
305629
300703
296079
291733
287643
283789
280154
276726
273490
270435
267550
264824
262250
259817
257517
320764
315435
310207
305221
300479
295981
291723
287695
283885
280284
276882
273667
270629
267758
265045
262480
260055
257762
319601
314584
309647
304875
300280
295881
291693
287714
283941
280368
276986
273788
270762
267902
265197
262639
260220
257932
318653
313917
309215
304604
300118
295796
291660
287719
283974
280421
277054
273868
270852
267999
265300
262748
260333
258049
317713
313402
308898
304405
299999
295732
291634
287719
283993
280454
277099
273920
270911
268063
265369
262820
260408
258126
317116
313040
308677
304270
299917
295686
291613
287717
284004
280475
277126
273953
270949
268105
265413
262867
260457
258176
316728
312813
308540
304184
299865
295658
291600
287715
284010
280487
277143
273974
270972
268130
265440
262895
260486
258206
316502
312685
308464
304137
299837
295642
291593
287714
284013
280493
277152
273984
270984
268143
265454
262910
260502
258223
316366
312631
308433
304117
299825
295635
291590
287713
284015
280496
277156
273989
270989
268149
265460
262916
260508
258229
206211
206195
206161
206111
206042
205956
205851
205728
205586
205426
205246
205047
204828
204591
204334
204058
203762
203448
203114
202761
202390
201999
201590
201162
200715
200248
199762
199254
198725
198175
197604
197014
196406
195780
195139
194484
193818
193141
192455
191762
191061
190353
189637
188911
188175
187425
186661
185878
185076
184252
183407
182539
181649
180737
179805
178853
177883
176897
175896
174881
173854
172816
171768
170711
169645
168573
167493
166408
165316
164219
163117
162010
160898
159781
158659
157533
156400
155263
154119
152971
151816
150655
149488
148315
147136
145951
144760
143564
142361
141153
139939
138719
137495
136264
135029
133789
132543
131293
130038
128778
127514
126245
124972
123695
122414
121129
119840
118548
117252
115952
114649
113343
112034
110722
109408
108090
106770
105448
104123
102797
101468
100137
98805.2
97471.4
96136.2
94799.8
93462.2
92123.6
90784.3
89444.3
88103.8
86763
85422.1
84081.2
82740.5
81400.2
80060.5
78721.5
77383.5
76046.6
74711.1
73377.1
72044.9
70714.6
69386.5
68060.7
66737.6
65417.2
64099.9
62785.8
61475.3
60168.5
58865.7
57567.2
56273.1
54983.9
53699.8
52420.9
51147.8
49880.5
48619.4
47364.9
46117.3
44876.9
43643.9
42418.9
41202.2
39994.1
38795.1
37605.6
36426.1
35257.2
34099.3
32953.3
31819.9
30700
29595.2
28507
27439.3
26399.3
206285
206269
206235
206184
206115
206028
205923
205799
205656
205495
205314
205114
204894
204655
204397
204119
203822
203506
203171
202816
202443
202051
201639
201207
200756
200286
199796
199285
198752
198199
197626
197033
196422
195794
195152
194496
193828
193151
192465
191772
191072
190364
189649
188925
188190
187441
186677
185895
185094
184271
183426
182558
181667
180755
179822
178870
177900
176913
175911
174895
173868
172829
171780
170723
169657
168584
167504
166418
165325
164227
163125
162017
160904
159787
158665
157538
156405
155267
154124
152974
151819
150658
149491
148318
147139
145954
144763
143566
142363
141155
139941
138721
137496
136266
135030
133790
132544
131294
130039
128779
127515
126246
124973
123696
122415
121130
119841
118548
117252
115953
114650
113344
112035
110723
109408
108090
106770
105448
104123
102797
101468
100138
98805.3
97471.5
96136.3
94799.9
93462.2
92123.7
90784.3
89444.3
88103.8
86763
85422.1
84081.2
82740.5
81400.2
80060.5
78721.5
77383.5
76046.6
74711.1
73377.1
72044.9
70714.6
69386.5
68060.7
66737.6
65417.2
64099.9
62785.8
61475.3
60168.5
58865.7
57567.2
56273.2
54983.9
53699.8
52420.9
51147.7
49880.5
48619.4
47364.9
46117.3
44876.8
43643.9
42418.9
41202.1
39994
38795
37605.5
36425.9
35256.9
34099.1
32952.9
31819.4
30699.4
29594.2
28505.8
27437.1
26394.6
206435
206418
206384
206332
206263
206175
206068
205943
205799
205636
205453
205251
205029
204787
204526
204246
203945
203626
203287
202928
202550
202153
201736
201299
200842
200365
199868
199350
198812
198253
197675
197078
196463
195832
195186
194527
193856
193176
192489
191794
191093
190386
189672
188950
188217
187471
186709
185929
185129
184307
183463
182595
181704
180791
179858
178904
177933
176945
175942
174925
173896
172856
171806
170748
169681
168607
167525
166437
165344
164245
163140
162031
160918
159799
158676
157548
156415
155276
154132
152982
151827
150665
149498
148324
147145
145959
144768
143570
142367
141159
139944
138724
137499
136269
135033
133792
132547
131296
130041
128781
127516
126248
124974
123697
122416
121131
119842
118549
117253
115953
114650
113344
112035
110723
109408
108091
106771
105448
104124
102797
101468
100138
98805.5
97471.7
96136.5
94800
93462.4
92123.8
90784.4
89444.4
88103.9
86763.1
85422.1
84081.2
82740.5
81400.2
80060.5
78721.5
77383.5
76046.7
74711.1
73377.1
72044.9
70714.6
69386.5
68060.7
66737.6
65417.2
64099.9
62785.8
61475.3
60168.5
58865.7
57567.2
56273.2
54983.9
53699.8
52420.9
51147.7
49880.5
48619.4
47364.9
46117.2
44876.8
43643.8
42418.8
41202
39993.9
38794.8
37605.2
36425.6
35256.5
34098.5
32952.2
31818.4
30698.1
29592.4
28503.1
27432.6
26385.1
206661
206644
206609
206556
206485
206396
206288
206161
206014
205849
205663
205458
205233
204988
204723
204438
204133
203809
203464
203100
202715
202311
201887
201442
200977
200491
199985
199458
198911
198344
197758
197153
196530
195891
195237
194572
193895
193210
192519
191821
191120
190413
189701
188981
188252
187511
186753
185977
185180
184360
183516
182649
181758
180844
179909
178955
177982
176992
175988
174969
173939
172897
171845
170785
169717
168641
167557
166468
165372
164271
163164
162053
160938
159818
158693
157564
156430
155290
154145
152994
151838
150676
149507
148333
147153
145967
144775
143577
142374
141164
139950
138729
137504
136273
135037
133796
132550
131299
130044
128783
127519
126250
124977
123699
122418
121132
119843
118551
117254
115955
114652
113345
112036
110724
109409
108091
106771
105449
104124
102797
101469
100138
98805.8
97472
96136.7
94800.2
93462.6
92124
90784.6
89444.5
88104
86763.2
85422.2
84081.3
82740.6
81400.3
80060.6
78721.6
77383.6
76046.7
74711.2
73377.2
72044.9
70714.7
69386.5
68060.8
66737.6
65417.2
64099.9
62785.9
61475.3
60168.5
58865.7
57567.2
56273.2
54983.9
53699.8
52420.9
51147.7
49880.4
48619.4
47364.8
46117.2
44876.7
43643.7
42418.6
41201.8
39993.6
38794.5
37604.8
36425.1
35255.9
34097.6
32951.1
31816.9
30696.1
29589.6
28499
27426
26372.9
206965
206947
206911
206857
206784
206693
206582
206452
206303
206133
205944
205735
205505
205255
204985
204695
204384
204053
203701
203329
202936
202523
202089
201635
201160
200664
200146
199608
199049
198470
197870
197252
196617
195966
195301
194625
193939
193246
192548
191846
191142
190436
189727
189012
188288
187553
186802
186032
185239
184423
183581
182714
181823
180909
179974
179018
178044
177054
176048
175028
173995
172951
171897
170835
169764
168686
167601
166509
165410
164306
163197
162082
160965
159842
158716
157585
156449
155308
154162
153010
151853
150689
149520
148345
147164
145977
144785
143586
142382
141172
139957
138736
137510
136279
135042
133801
132554
131303
130047
128787
127522
126253
124979
123702
122420
121135
119845
118552
117256
115956
114653
113347
112037
110725
109410
108092
106772
105450
104125
102798
101469
100139
98806.2
97472.4
96137.1
94800.5
93462.8
92124.2
90784.7
89444.7
88104.1
86763.3
85422.3
84081.4
82740.7
81400.4
80060.6
78721.6
77383.6
76046.7
74711.2
73377.2
72045
70714.7
69386.6
68060.8
66737.6
65417.3
64099.9
62785.9
61475.3
60168.5
58865.7
57567.2
56273.2
54983.9
53699.7
52420.9
51147.7
49880.4
48619.3
47364.8
46117.1
44876.6
43643.6
42418.4
41201.5
39993.3
38794
37604.3
36424.4
35255
34096.5
32949.6
31815
30693.4
29585.9
28493.7
27417.9
26359.4
207347
207328
207291
207235
207160
207066
206952
206818
206665
206491
206296
206082
205846
205590
205313
205015
204697
204357
203997
203615
203213
202789
202345
201878
201391
200881
200349
199796
199220
198624
198008
197372
196720
196053
195372
194681
193982
193278
192570
191861
191152
190445
189738
189029
188315
187590
186849
186087
185302
184491
183653
182787
181897
180983
180046
179090
178116
177125
176118
175097
174063
173017
171961
170896
169823
168743
167655
166560
165458
164350
163237
162120
160998
159873
158745
157612
156474
155331
154183
153030
151871
150707
149536
148360
147178
145990
144796
143597
142392
141182
139966
138744
137518
136286
135049
133807
132560
131308
130052
128791
127526
126256
124983
123705
122423
121137
119848
118555
117258
115958
114655
113348
112039
110726
109411
108093
106773
105451
104126
102799
101470
100139
98806.7
97472.8
96137.4
94800.8
93463.1
92124.4
90785
89444.9
88104.3
86763.5
85422.5
84081.5
82740.8
81400.4
80060.7
78721.7
77383.7
76046.8
74711.3
73377.3
72045
70714.8
69386.6
68060.9
66737.7
65417.3
64100
62785.9
61475.3
60168.5
58865.7
57567.2
56273.2
54983.9
53699.7
52420.9
51147.7
49880.3
48619.2
47364.7
46117
44876.4
43643.4
42418.2
41201.2
39992.9
38793.5
37603.6
36423.6
35253.9
34095.1
32947.8
31812.6
30690.3
29581.6
28487.5
27408.8
26345.5
207810
207790
207751
207693
207615
207517
207399
207261
207102
206922
206721
206499
206256
205992
205707
205400
205072
204723
204352
203960
203546
203110
202652
202171
201668
201141
200592
200019
199423
198806
198168
197513
196840
196153
195452
194742
194023
193299
192574
191852
191135
190427
189725
189027
188327
187618
186893
186145
185371
184567
183732
182869
181978
181063
180126
179168
178193
177201
176194
175173
174138
173090
172032
170966
169890
168808
167718
166620
165515
164403
163286
162164
161039
159911
158779
157643
156503
155359
154209
153054
151893
150727
149555
148378
147194
146005
144811
143610
142404
141193
139976
138754
137527
136294
135056
133814
132567
131314
130058
128796
127531
126261
124987
123709
122426
121140
119851
118557
117260
115960
114656
113350
112040
110728
109412
108095
106774
105452
104127
102800
101471
100140
98807.3
97473.3
96137.9
94801.2
93463.5
92124.8
90785.3
89445.1
88104.5
86763.6
85422.6
84081.6
82740.9
81400.5
80060.8
78721.8
77383.7
76046.9
74711.3
73377.3
72045.1
70714.8
69386.7
68060.9
66737.7
65417.4
64100
62785.9
61475.4
60168.6
58865.8
57567.2
56273.2
54983.9
53699.7
52420.9
51147.6
49880.3
48619.2
47364.6
46116.8
44876.2
43643.1
42417.9
41200.9
39992.4
38792.9
37602.9
36422.6
35252.7
34093.5
32945.7
31809.9
30686.6
29576.6
28480.7
27399
26331.5
208357
208336
208295
208234
208152
208050
207927
207783
207617
207430
207221
206991
206738
206465
206169
205852
205512
205151
204768
204363
203936
203485
203012
202514
201992
201446
200874
200279
199660
199019
198358
197679
196982
196269
195541
194799
194048
193293
192541
191797
191069
190359
189667
188986
188309
187626
186926
186201
185443
184650
183822
182961
182070
181153
180214
179254
178276
177283
176275
175253
174217
173169
172109
171040
169964
168879
167787
166687
165579
164463
163341
162215
161086
159954
158819
157680
156537
155390
154238
153081
151918
150750
149577
148398
147213
146023
144827
143625
142418
141206
139988
138765
137537
136304
135065
133822
132574
131321
130064
128802
127536
126266
124991
123713
122430
121144
119854
118560
117263
115962
114659
113352
112042
110729
109414
108096
106776
105453
104128
102801
101471
100141
98808
97473.9
96138.5
94801.7
93463.9
92125.1
90785.6
89445.4
88104.8
86763.8
85422.8
84081.8
82741
81400.7
80060.9
78721.9
77383.8
76046.9
74711.4
73377.4
72045.2
70714.9
69386.7
68061
66737.8
65417.4
64100.1
62786
61475.4
60168.6
58865.8
57567.2
56273.2
54983.9
53699.7
52420.8
51147.6
49880.2
48619.1
47364.5
46116.7
44876
43642.9
42417.6
41200.5
39991.9
38792.3
37602
36421.5
35251.3
34091.7
32943.4
31806.8
30682.6
29571.3
28473.4
27389
26317.8
208992
208969
208926
208861
208776
208668
208538
208387
208213
208017
207799
207558
207295
207009
206702
206372
206020
205645
205248
204828
204385
203919
203427
202910
202367
201798
201203
200582
199939
199274
198587
197879
197151
196400
195629
194840
194040
193236
192441
191667
190921
190208
189529
188876
188236
187594
186934
186243
185512
184737
183920
183063
182173
181254
180312
179349
178369
177373
176362
175339
174301
173251
172189
171119
170041
168956
167863
166761
165650
164530
163404
162272
161138
160002
158863
157721
156575
155425
154271
153111
151947
150777
149602
148421
147234
146042
144845
143642
142434
141221
140002
138778
137549
136315
135075
133831
132583
131329
130072
128809
127543
126272
124997
123718
122435
121148
119858
118564
117266
115965
114661
113354
112044
110731
109416
108098
106777
105454
104129
102802
101472
100141
98808.8
97474.6
96139.1
94802.3
93464.4
92125.5
90785.9
89445.7
88105
86764.1
85423
84082
82741.2
81400.8
80061
78722
77383.9
76047.1
74711.5
73377.5
72045.3
70715
69386.8
68061
66737.9
65417.5
64100.1
62786
61475.5
60168.6
58865.8
57567.2
56273.2
54983.9
53699.7
52420.8
51147.5
49880.2
48619
47364.3
46116.5
44875.8
43642.6
42417.2
41200
39991.3
38791.5
37601.1
36420.3
35249.7
34089.8
32940.9
31803.6
30678.3
29565.6
28465.8
27378.9
26304.4
209721
209697
209650
209581
209490
209376
209238
209078
208895
208688
208458
208205
207929
207630
207308
206964
206597
206207
205795
205359
204900
204415
203905
203367
202802
202209
201589
200944
200275
199582
198865
198123
197351
196549
195716
194859
193987
193114
192258
191437
190665
189950
189291
188678
188090
187507
186903
186262
185570
184822
184021
183172
182284
181364
180418
179452
178469
177470
176458
175432
174394
173341
172276
171202
170122
169036
167943
166840
165727
164603
163471
162334
161195
160054
158911
157766
156617
155464
154307
153145
151978
150806
149629
148446
147258
146064
144865
143661
142452
141237
140017
138792
137562
136326
135087
133842
132592
131338
130080
128817
127549
126278
125002
123723
122440
121152
119862
118567
117270
115968
114664
113357
112047
110734
109418
108099
106779
105455
104130
102803
101474
100142
98809.7
97475.4
96139.7
94802.9
93464.9
92126
90786.3
89446.1
88105.4
86764.4
85423.2
84082.2
82741.4
81401
80061.1
78722.1
77384.1
76047.2
74711.6
73377.6
72045.4
70715.1
69386.9
68061.1
66737.9
65417.5
64100.2
62786.1
61475.5
60168.7
58865.8
57567.3
56273.2
54983.9
53699.7
52420.8
51147.5
49880.1
48618.9
47364.2
46116.3
44875.6
43642.3
42416.8
41199.5
39990.7
38790.7
37600.1
36419.1
35248.1
34087.7
32938.2
31800.1
30673.8
29559.8
28458.1
27368.9
26291.5
210551
210524
210473
210399
210301
210179
210033
209862
209666
209447
209203
208936
208645
208331
207993
207633
207250
206844
206416
205965
205489
204987
204458
203900
203314
202697
202053
201382
200686
199963
199212
198427
197602
196735
195825
194879
193914
192952
192018
191137
190332
189612
188977
188411
187886
187373
186839
186259
185615
184902
184121
183283
182399
181479
180531
179561
178575
177573
176558
175531
174492
173439
172371
171294
170207
169117
168020
166916
165803
164677
163541
162399
161255
160110
158963
157814
156662
155506
154346
153182
152012
150838
149658
148473
147283
146088
144887
143682
142471
141254
140033
138807
137576
136340
135099
133853
132603
131348
130088
128825
127557
126285
125009
123729
122445
121157
119866
118571
117273
115972
114667
113360
112049
110736
109420
108101
106780
105457
104132
102804
101475
100143
98810.6
97476.2
96140.5
94803.5
93465.5
92126.5
90786.8
89446.5
88105.7
86764.6
85423.5
84082.4
82741.6
81401.1
80061.3
78722.3
77384.2
76047.3
74711.8
73377.7
72045.5
70715.2
69387
68061.2
66738
65417.6
64100.2
62786.1
61475.6
60168.7
58865.9
57567.3
56273.2
54983.9
53699.7
52420.7
51147.4
49880
48618.8
47364.1
46116.1
44875.3
43642
42416.4
41199
39990
38789.9
37599
36417.7
35246.4
34085.5
32935.4
31796.5
30669.2
29553.8
28450.5
27359.1
26279.1
211488
211458
211403
211323
211217
211085
210927
210744
210534
210300
210041
209757
209449
209118
208764
208387
207989
207569
207126
206661
206171
205655
205110
204534
203927
203288
202620
201924
201202
200449
199662
198833
197952
197013
196016
194973
193903
192841
191822
190878
190037
189310
188694
188170
187702
187252
186781
186257
185659
184978
184219
183393
182515
181597
180648
179676
178686
177682
176663
175634
174593
173540
172472
171390
170298
169201
168099
166991
165875
164748
163611
162466
161318
160169
159018
157865
156710
155551
154388
153220
152048
150871
149689
148502
147310
146113
144911
143704
142491
141273
140051
138823
137591
136354
135112
133865
132614
131358
130098
128834
127565
126292
125016
123735
122451
121163
119871
118576
117277
115976
114671
113363
112052
110738
109422
108103
106782
105459
104133
102806
101476
100145
98811.6
97477.1
96141.3
94804.2
93466.1
92127
90787.3
89446.9
88106.1
86765
85423.8
84082.7
82741.8
81401.3
80061.5
78722.4
77384.4
76047.5
74711.9
73377.9
72045.6
70715.3
69387.1
68061.3
66738.1
65417.7
64100.3
62786.2
61475.6
60168.8
58865.9
57567.3
56273.2
54983.9
53699.7
52420.7
51147.4
49879.9
48618.7
47363.9
46116
44875.1
43641.7
42416
41198.5
39989.4
38789.1
37597.9
36416.3
35244.6
34083.3
32932.6
31792.9
30664.6
29547.9
28443
27349.6
26267.3
212543
212510
212450
212361
212245
212102
211930
211732
211506
211255
210978
210676
210350
210002
209632
209242
208832
208401
207949
207476
206977
206450
205893
205302
204677
204019
203330
202613
201867
201087
200265
199389
198448
197435
196352
195217
194056
192909
191818
190822
189948
189210
188601
188098
187658
187241
186801
186306
185732
185070
184324
183507
182634
181718
180768
179794
178802
177795
176774
175742
174699
173644
172574
171489
170393
169289
168181
167069
165951
164822
163682
162534
161383
160230
159075
157919
156760
155597
154431
153261
152087
150907
149723
148534
147339
146140
144936
143727
142513
141294
140070
138841
137607
136369
135126
133878
132626
131369
130108
128843
127574
126300
125023
123742
122457
121168
119876
118581
117282
115980
114674
113366
112055
110741
109425
108106
106784
105461
104135
102807
101477
100146
98812.7
97478.1
96142.1
94804.9
93466.7
92127.6
90787.8
89447.3
88106.4
86765.3
85424.1
84082.9
82742
81401.6
80061.7
78722.6
77384.5
76047.6
74712.1
73378
72045.7
70715.4
69387.2
68061.4
66738.2
65417.8
64100.4
62786.3
61475.7
60168.8
58865.9
57567.3
56273.2
54983.9
53699.6
52420.7
51147.3
49879.9
48618.6
47363.8
46115.8
44874.8
43641.3
42415.6
41197.9
39988.7
38788.2
37596.8
36414.9
35242.9
34081
32929.7
31789.3
30660
29542.1
28435.6
27340.5
26256.2
213728
213691
213623
213525
213398
213240
213053
212837
212593
212322
212026
211707
211365
211004
210624
210227
209812
209379
208927
208451
207948
207415
206848
206245
205606
204932
204223
203479
202700
201879
201006
200070
199064
197984
196838
195643
194431
193239
192113
191091
190197
189441
188815
188294
187838
187403
186950
186444
185862
185196
184449
183632
182760
181844
180893
179917
178922
177913
176890
175855
174809
173749
172676
171587
170487
169378
168267
167152
166030
164897
163753
162602
161448
160292
159134
157975
156812
155647
154477
153304
152127
150945
149758
148566
147370
146169
144963
143752
142536
141315
140090
138859
137624
136385
135140
133892
132638
131381
130119
128853
127583
126309
125031
123749
122463
121174
119882
118586
117286
115984
114678
113370
112058
110744
109427
108108
106786
105463
104137
102809
101479
100147
98813.8
97479.1
96143
94805.7
93467.4
92128.2
90788.3
89447.8
88106.9
86765.7
85424.4
84083.2
82742.3
81401.8
80061.9
78722.8
77384.7
76047.8
74712.2
73378.2
72045.9
70715.6
69387.4
68061.5
66738.3
65417.9
64100.5
62786.3
61475.7
60168.9
58866
57567.4
56273.3
54983.9
53699.6
52420.7
51147.3
49879.8
48618.5
47363.6
46115.6
44874.6
43641
42415.2
41197.4
39988
38787.3
37595.7
36413.5
35241.1
34078.7
32926.8
31785.7
30655.5
29536.4
28428.6
27331.8
26245.8
215056
215014
214938
214829
214687
214513
214307
214072
213809
213521
213209
212877
212527
212161
211781
211388
210979
210552
210102
209627
209121
208580
208000
207378
206710
205997
205237
204434
203587
202695
201752
200755
199699
198582
197415
196215
195009
193828
192712
191694
190793
190012
189344
188767
188249
187751
187238
186682
186060
185367
184604
183777
182898
181979
181026
180045
179046
178033
177009
175973
174923
173859
172780
171685
170579
169467
168352
167234
166109
164971
163824
162670
161513
160355
159194
158031
156866
155697
154525
153349
152169
150984
149795
148601
147402
146199
144991
143778
142560
141338
140111
138879
137642
136401
135156
133906
132652
131393
130130
128864
127593
126318
125039
123757
122470
121181
119887
118591
117291
115988
114682
113373
112062
110747
109430
108111
106789
105465
104138
102810
101480
100148
98815
97480.1
96143.9
94806.6
93468.2
92128.9
90788.9
89448.3
88107.3
86766.1
85424.8
84083.5
82742.6
81402.1
80062.2
78723.1
77385
76048
74712.4
73378.4
72046.1
70715.7
69387.5
68061.7
66738.4
65418
64100.6
62786.4
61475.8
60168.9
58866
57567.4
56273.3
54983.9
53699.6
52420.6
51147.2
49879.7
48618.4
47363.5
46115.4
44874.3
43640.7
42414.8
41196.8
39987.3
38786.4
37594.6
36412.1
35239.3
34076.5
32924
31782.2
30651.1
29531
28421.8
27323.6
26236
216594
216546
216460
216337
216177
215984
215759
215507
215231
214933
214616
214284
213937
213577
213204
212816
212409
211980
211521
211026
210489
209904
209265
208572
207824
207023
206175
205286
204360
203396
202396
201357
200281
199166
198023
196866
195717
194594
193525
192534
191634
190825
190101
189446
188837
188245
187643
187009
186325
185587
184794
183948
183056
182128
181169
180184
179178
178160
177132
176095
175045
173977
172892
171790
170676
169558
168438
167317
166188
165047
163897
162740
161581
160419
159256
158091
156922
155751
154576
153397
152213
151026
149834
148638
147436
146231
145021
143806
142586
141362
140133
138900
137662
136419
135173
133921
132666
131406
130143
128875
127603
126327
125048
123765
122478
121187
119894
118597
117296
115993
114687
113377
112065
110750
109433
108113
106791
105467
104140
102812
101482
100150
98816.3
97481.3
96145
94807.5
93469
92129.6
90789.5
89448.9
88107.8
86766.6
85425.2
84083.9
82742.9
81402.4
80062.5
78723.4
77385.3
76048.3
74712.7
73378.6
72046.3
70715.9
69387.7
68061.8
66738.6
65418.1
64100.7
62786.6
61475.9
60169
58866.2
57567.5
56273.4
54984
53699.7
52420.7
51147.3
49879.7
48618.3
47363.4
46115.3
44874.2
43640.4
42414.4
41196.4
39986.7
38785.7
37593.6
36410.8
35237.7
34074.4
32921.4
31778.8
30646.9
29525.8
28415.5
27316
26227
218300
218245
218146
218005
217827
217617
217381
217124
216851
216563
216256
215931
215583
215212
214816
214392
213935
213440
212902
212312
211671
210976
210231
209439
208605
207729
206815
205870
204897
203897
202873
201826
200761
199682
198592
197504
196430
195380
194369
193411
192515
191681
190902
190169
189468
188780
188086
187370
186621
185834
185007
184136
183227
182286
181319
180327
179313
178288
177255
176216
175164
174095
173005
171897
170776
169650
168524
167396
166264
165120
163968
162809
161648
160484
159318
158150
156979
155805
154626
153444
152258
151068
149874
148675
147471
146263
145051
143834
142612
141386
140156
138921
137681
136438
135189
133937
132680
131420
130155
128886
127613
126337
125057
123773
122485
121194
119900
118602
117302
115998
114691
113381
112069
110754
109436
108116
106794
105469
104142
102814
101483
100151
98817.5
97482.3
96145.9
94808.3
93469.7
92130.2
90790.1
89449.4
88108.2
86766.9
85425.5
84084.2
82743.2
81402.6
80062.7
78723.6
77385.4
76048.4
74712.8
73378.7
72046.4
70716
69387.7
68061.9
66738.6
65418.1
64100.7
62786.6
61475.9
60169
58866.1
57567.5
56273.3
54983.9
53699.6
52420.6
51147.1
49879.6
48618.1
47363.2
46115
44873.8
43640
42413.9
41195.8
39985.9
38784.7
37592.4
36409.4
35235.9
34072.2
32918.7
31775.5
30642.8
29520.8
28409.5
27308.8
26218.6
220022
219959
219848
219693
219503
219288
219057
218814
218557
218277
217965
217610
217207
216755
216257
215715
215132
214508
213843
213137
212391
211604
210783
209931
209051
208144
207210
206253
205276
204280
203265
202237
201200
200157
199115
198080
197060
196059
195086
194148
193251
192393
191572
190781
190010
189249
188484
187705
186903
186075
185215
184321
183395
182442
181465
180464
179443
178409
177371
176327
175272
174200
173106
171994
170869
169737
168604
167470
166333
165187
164033
162874
161711
160545
159377
158206
157032
155855
154674
153489
152301
151108
149911
148710
147504
146294
145079
143861
142637
141410
140177
138941
137700
136455
135206
133952
132694
131433
130167
128897
127624
126346
125065
123781
122492
121201
119906
118608
117307
116002
114695
113385
112072
110757
109439
108119
106796
105471
104144
102815
101485
100152
98818.6
97483.4
96146.8
94809.1
93470.4
92130.9
90790.6
89449.8
88108.7
86767.3
85425.8
84084.5
82743.4
81402.9
80062.9
78723.8
77385.6
76048.6
74712.9
73378.8
72046.5
70716
69387.8
68061.9
66738.6
65418.2
64100.7
62786.5
61475.9
60169
58866.1
57567.4
56273.2
54983.9
53699.5
52420.5
51147
49879.4
48618
47363
46114.7
44873.5
43639.7
42413.5
41195.2
39985.2
38783.9
37591.4
36408.1
35234.3
34070.2
32916.2
31772.4
30639
29516.2
28403.9
27302.2
26210.8
221753
221682
221559
221396
221206
220999
220778
220537
220260
219928
219529
219058
218520
217927
217289
216615
215910
215178
214420
213637
212830
211999
211145
210270
209378
208467
207538
206591
205630
204651
203658
202653
201641
200627
199615
198610
197618
196641
195684
194752
193847
192969
192116
191282
190463
189649
188833
188006
187164
186301
185413
184498
183556
182591
181605
180595
179565
178524
177481
176433
175374
174296
173198
172082
170953
169816
168679
167540
166398
165250
164095
162934
161770
160602
159432
158258
157082
155902
154719
153532
152340
151145
149946
148743
147535
146323
145106
143886
142661
141431
140198
138960
137718
136471
135221
133966
132707
131445
130178
128907
127633
126355
125073
123788
122499
121207
119912
118613
117311
116007
114699
113389
112076
110760
109442
108121
106798
105473
104146
102817
101486
100154
98819.8
97484.4
96147.7
94809.9
93471.1
92131.5
90791.1
89450.3
88109.1
86767.6
85426.1
84084.8
82743.7
81403.1
80063.1
78723.9
77385.8
76048.7
74713
73378.9
72046.6
70716.1
69387.9
68062
66738.7
65418.2
64100.7
62786.5
61475.9
60169
58866
57567.4
56273.2
54983.8
53699.4
52420.4
51146.9
49879.3
48617.8
47362.8
46114.5
44873.2
43639.3
42413
41194.7
39984.6
38783.1
37590.4
36406.9
35232.8
34068.3
32913.9
31769.5
30635.5
29511.9
28398.8
27296.2
26203.9
223488
223408
223276
223111
222926
222712
222459
222145
221754
221279
220727
220109
219440
218730
217991
217232
216455
215665
214859
214039
213202
212350
211482
210600
209707
208800
207879
206944
205997
205036
204060
203074
202080
201083
200087
199097
198117
197148
196194
195258
194342
193446
192566
191701
190846
189994
189140
188277
187402
186510
185599
184665
183709
182733
181737
180717
179679
178633
177585
176533
175470
174387
173283
172161
171028
169888
168748
167606
166460
165309
164152
162990
161824
160655
159483
158307
157128
155946
154761
153571
152378
151180
149979
148774
147564
146350
145132
143910
142683
141452
140217
138978
137734
136487
135235
133980
132720