/*--------------------------------*- C++ -*----------------------------------*\
  =========                 |
  \\      /  F ield         | OpenFOAM: The Open Source CFD Toolbox
   \\    /   O peration     | Website:  https://openfoam.org
    \\  /    A nd           | Version:  9
     \\/     M anipulation  |
\*---------------------------------------------------------------------------*/
FoamFile
{
    format      ascii;
    class       volScalarField;
    location    "0.017";
    object      s_0;
}
// * * * * * * * * * * * * * * * * * * * * * * * * * * * * * * * * * * * * * //

dimensions      [0 0 0 0 0 0 0];

internalField   nonuniform List<scalar> 
12225
(
1
1
1
1
1
1
1
1
1
1
1
1
1
1
1
1
1
0.999986
1
1
1
1
1
1
1
1
1
1
1
1
1
1
1
1
1
1
1
1
1
1
1
1
1
1
1
1
1
1
1
1
1
1
1
1
1
1
1
1
1
1
1
1
1
1
1
1
1
1
1
1
1
1
1
1
1
1
1
1
1
1
1
1
1
1
1
1
1
1
1
1
1
1
1
1
1
1
1
1
1
1
1
1
1
1
1
1
1
1
1
1
1
1
1
1
1
1
1
1
1
1
1
1
1
1
1
1
1
1
1
1
1
1
1
1
1
1
1
1
1
1
1
1
1
1
1
1
1
1
1
1
1
1
1
1
1
1
1
1
1
1
1
1
1
1
1
1
1
1
1
1
1
1
1
1
1
1
1
1
1
1
1
1
1
1
1
1
1
1
1
1
1
1
1
1
1
1
1
1
1
1
1
1
1
1
1
1
1
1
1
1
1
1
1
1
1
1
1
1
1
1
1
1
1
1
1
1
1
1
1
1
1
1
1
1
1
1
1
1
1
1
1
1
1
1
1
1
1
1
1
1
1
1
1
1
1
1
1
1
1
1
1
1
1
1
1
1
1
1
1
1
1
1
1
1
1
1
1
1
1
1
1
1
1
1
1
1
1
1
1
1
1
1
1
1
1
1
1
1
1
1
1
1
1
1
1
1
1
1
1
1
1
1
1
1
1
1
1
1
1
1
1
1
1
1
1
1
1
1
1
1
1
1
1
1
1
1
1
1
1
1
1
1
1
1
1
1
1
1
1
1
1
1
1
1
1
1
1
1
1
1
1
1
1
1
1
1
1
1
1
1
1
1
1
1
1
1
1
1
1
1
1
1
1
1
1
1
1
1
1
1
1
1
1
1
1
1
1
1
1
1
1
1
1
1
1
1
1
1
1
1
1
1
1
1
1
1
1
1
1
1
1
1
1
1
1
1
1
1
1
1
1
1
1
1
1
1
1
1
1
1
1
1
1
1
1
1
1
1
1
1
1
1
1
1
1
1
1
1
1
1
1
1
1
1
1
1
1
1
1
1
1
1
1
1
1
1
1
1
1
1
1
1
1
1
1
1
1
1
1
1
1
1
1
1
1
1
1
1
1
1
1
1
1
1
1
1
1
1
1
1
1
1
1
1
1
1
1
1
1
1
1
1
1
1
1
1
1
1
1
1
1
1
1
1
1
1
1
1
1
1
2.13808e-10
1.95114e-09
1.11166e-08
4.60704e-08
1.55619e-07
4.47651e-07
1.11846e-06
2.52144e-06
5.08072e-06
8.63853e-06
1.26973e-05
1.65986e-05
2.26e-05
2.37598e-05
2.25621e-05
1.87667e-05
1.39941e-05
1.30671e-05
1.38087e-05
1.84197e-05
3.63887e-05
9.60275e-05
0.000292231
0.00120248
0.00740953
0.0450323
0.0927676
0.121582
0.15408
0.182743
0.210809
0.238988
0.266366
0.295019
0.322609
0.346642
0.365841
0.385815
0.406618
0.421093
0.429828
0.440421
0.451263
0.45835
0.463597
0.468596
0.471129
0.471873
0.470206
0.464556
0.461138
0.455183
0.446197
0.440007
0.429839
0.414923
0.404556
0.396754
0.385512
0.373766
0.362545
0.350781
0.339376
0.329182
0.318199
0.305466
0.291374
0.277725
0.263185
0.244093
0.224895
0.203979
0.181004
0.158418
0.136735
0.117628
0.0995057
0.082172
0.066017
0.0515879
0.0392273
0.0291017
0.0211133
0.0149187
0.0102188
0.00678916
0.00438082
0.00274508
0.00166907
0.0009847
0.000563815
0.000313335
0.000169024
8.85073e-05
4.4989e-05
2.21978e-05
1.06303e-05
4.94021e-06
2.2275e-06
9.74224e-07
4.13201e-07
1.69912e-07
6.77276e-08
2.61658e-08
9.79745e-09
3.55588e-09
1.25118e-09
4.26962e-10
1.41373e-10
4.54443e-11
1.41911e-11
4.3085e-12
1.29119e-12
3.8194e-13
1.11381e-13
3.19907e-14
9.04239e-15
2.51353e-15
6.86949e-16
1.84588e-16
4.87672e-17
1.26678e-17
3.23539e-18
8.12483e-19
2.00618e-19
4.87085e-20
1.16286e-20
2.72991e-21
6.30207e-22
1.4307e-22
3.19415e-23
7.01338e-24
1.51454e-24
3.21686e-25
6.72061e-26
1.38111e-26
2.79204e-27
5.55273e-28
1.08646e-28
2.09152e-29
3.96176e-30
7.38458e-31
1.35461e-31
2.44567e-32
4.34634e-33
7.6039e-34
1.30971e-34
2.22118e-35
3.70933e-36
6.10017e-37
9.87999e-38
1.57604e-38
2.47628e-39
3.83248e-40
5.84291e-41
8.77544e-42
1.29843e-42
1.89275e-43
2.71838e-44
3.84666e-45
5.3632e-46
7.36786e-47
9.97337e-48
1.33023e-48
1.74822e-49
2.2638e-50
2.88824e-51
3.63037e-52
4.49519e-53
5.4821e-54
6.58366e-55
7.78288e-56
9.05357e-57
1.03545e-57
1.16364e-58
1.28221e-59
1.38392e-60
1.45422e-61
1.4837e-62
1.35542e-63
3.09975e-09
3.22216e-08
2.06875e-07
9.40381e-07
3.38363e-06
1.0108e-05
2.56303e-05
5.71266e-05
0.000106184
0.000166022
0.000232295
0.000305076
0.000386299
0.000414956
0.000390628
0.000279023
0.000264873
0.000333826
0.000583661
0.00122125
0.00312946
0.00837123
0.0190849
0.0380771
0.0688717
0.110343
0.150299
0.190543
0.239819
0.294036
0.36022
0.438454
0.521435
0.591819
0.661794
0.706227
0.754388
0.79067
0.821621
0.837392
0.85488
0.863214
0.871085
0.874738
0.876525
0.877081
0.876633
0.877846
0.881701
0.886897
0.891525
0.895766
0.899434
0.901594
0.903355
0.904268
0.904684
0.904468
0.90483
0.905086
0.903425
0.901201
0.899182
0.895114
0.891401
0.887438
0.881865
0.874874
0.866267
0.85516
0.840739
0.821932
0.797321
0.765636
0.725833
0.676423
0.619403
0.555962
0.486599
0.413189
0.33854
0.267182
0.205539
0.157326
0.116787
0.0835477
0.0578632
0.0389789
0.0254747
0.0161273
0.0098979
0.00589069
0.00339982
0.0019033
0.00103373
0.000544807
0.000278661
0.000138345
6.66722e-05
3.11925e-05
1.41682e-05
6.24847e-06
2.67602e-06
1.11312e-06
4.49823e-07
1.76657e-07
6.74507e-08
2.50502e-08
9.05392e-09
3.18646e-09
1.09267e-09
3.65307e-10
1.19131e-10
3.79207e-11
1.17899e-11
3.58262e-12
1.06465e-12
3.09519e-13
8.8224e-14
2.46825e-14
6.77806e-15
1.82703e-15
4.83424e-16
1.25569e-16
3.20212e-17
8.0173e-18
1.97101e-18
4.75834e-19
1.12816e-19
2.62712e-20
6.0093e-21
1.35036e-21
2.98131e-22
6.46756e-23
1.3788e-23
2.88894e-24
5.94981e-25
1.20459e-25
2.39775e-26
4.69292e-27
9.03259e-28
1.70988e-28
3.18387e-29
5.83223e-30
1.05111e-30
1.86402e-31
3.25299e-32
5.58716e-33
9.44547e-34
1.57189e-34
2.57531e-35
4.15415e-36
6.59805e-37
1.03196e-37
1.58946e-38
2.41104e-39
3.60208e-40
5.30051e-41
7.68283e-42
1.09694e-42
1.54285e-43
2.13776e-44
2.91811e-45
3.92432e-46
5.19937e-47
6.78677e-48
8.72753e-49
1.10567e-49
1.37981e-50
1.69609e-51
2.05307e-52
2.44707e-53
2.87015e-54
3.31256e-55
3.75614e-56
4.18559e-57
4.56395e-58
4.87514e-59
5.03488e-60
5.03958e-61
2.42769e-08
2.95363e-07
2.0636e-06
9.87491e-06
3.64761e-05
0.000109755
0.000275141
0.000568253
0.000962746
0.00140035
0.0018964
0.00248719
0.00307843
0.00369742
0.00457927
0.00561079
0.00705593
0.00949238
0.0137543
0.0211625
0.0338474
0.0545462
0.0857987
0.129584
0.18574
0.253329
0.3404
0.444721
0.533791
0.64144
0.714938
0.785103
0.819256
0.851297
0.864375
0.869917
0.8716
0.870566
0.861797
0.851579
0.844107
0.828374
0.809447
0.796295
0.786539
0.779959
0.777983
0.778474
0.788835
0.806002
0.820341
0.83819
0.859199
0.874846
0.889917
0.904084
0.912429
0.919562
0.92794
0.936419
0.943562
0.948873
0.954302
0.956921
0.960386
0.964574
0.96752
0.969582
0.971782
0.974474
0.976086
0.977941
0.979016
0.979614
0.977865
0.97353
0.966106
0.95451
0.937097
0.911823
0.875471
0.823509
0.750276
0.654098
0.544627
0.429362
0.31967
0.230112
0.162545
0.110437
0.0724024
0.0459315
0.0281655
0.0167002
0.00957868
0.00531627
0.00285606
0.00148564
0.000748447
0.000365269
0.00017273
7.91647e-05
3.51737e-05
1.51554e-05
6.33501e-06
2.5701e-06
1.01252e-06
3.87576e-07
1.44241e-07
5.22268e-08
1.84107e-08
6.32301e-09
2.11721e-09
6.91642e-10
2.20577e-10
6.8718e-11
2.09249e-11
6.23129e-12
1.81553e-12
5.17751e-13
1.44584e-13
3.95511e-14
1.0607e-14
2.79265e-15
7.2188e-16
1.83225e-16
4.56687e-17
1.11791e-17
2.68777e-18
6.34759e-19
1.47264e-19
3.3565e-20
7.51655e-21
1.65398e-21
3.57648e-22
7.60044e-23
1.58751e-23
3.25937e-24
6.57853e-25
1.30541e-25
2.54704e-26
4.88697e-27
9.22152e-28
1.71146e-28
3.12448e-29
5.6114e-30
9.9149e-31
1.72372e-31
2.9488e-32
4.96433e-33
8.22527e-34
1.34138e-34
2.15326e-35
3.40271e-36
5.29382e-37
8.1089e-38
1.22303e-38
1.81645e-39
2.65676e-40
3.82693e-41
5.42931e-42
7.58679e-43
1.04426e-43
1.41586e-44
1.89102e-45
2.488e-46
3.22459e-47
4.11691e-48
5.17723e-49
6.41282e-50
7.82183e-51
9.39466e-52
1.11039e-52
1.29169e-53
1.47639e-54
1.65921e-55
1.82536e-56
1.97028e-57
2.06261e-58
2.1096e-59
1.55056e-07
1.96793e-06
1.36088e-05
6.32641e-05
0.00022387
0.000641323
0.0015132
0.00291461
0.00464455
0.00653483
0.00886861
0.0119472
0.0153717
0.0190023
0.0231501
0.0282669
0.0352232
0.04559
0.0615329
0.0860861
0.123466
0.179294
0.262426
0.355352
0.459798
0.559613
0.649669
0.711539
0.782415
0.818951
0.848788
0.860608
0.864491
0.864874
0.856785
0.838634
0.806219
0.761497
0.705176
0.669251
0.640003
0.611693
0.59971
0.593126
0.590457
0.589817
0.591222
0.59637
0.602945
0.61141
0.621128
0.633064
0.648351
0.666158
0.686019
0.707626
0.733036
0.757971
0.780672
0.804644
0.828922
0.849884
0.870193
0.884882
0.898157
0.912961
0.925122
0.934878
0.94377
0.953797
0.961363
0.969952
0.977441
0.984069
0.989347
0.992559
0.99449
0.995464
0.995733
0.994944
0.992566
0.988141
0.980465
0.967332
0.94464
0.905243
0.838171
0.732194
0.594195
0.446992
0.31537
0.216274
0.142797
0.0906739
0.0554941
0.032741
0.0186326
0.0102335
0.00542706
0.0027803
0.00137655
0.000658947
0.00030511
0.000136715
5.9314e-05
2.49305e-05
1.01582e-05
4.0153e-06
1.54082e-06
5.74448e-07
2.08234e-07
7.34503e-08
2.52294e-08
8.44524e-09
2.75685e-09
8.7821e-10
2.73172e-10
8.30193e-11
2.46637e-11
7.16609e-12
2.03725e-12
5.66924e-13
1.54478e-13
4.12273e-14
1.07797e-14
2.76524e-15
6.96181e-16
1.72043e-16
4.17386e-17
9.94219e-18
2.32555e-18
5.34225e-19
1.20539e-19
2.6717e-20
5.81772e-21
1.24472e-21
2.61692e-22
5.40701e-23
1.09805e-23
2.19195e-24
4.30164e-25
8.30004e-26
1.57477e-26
2.93825e-27
5.39191e-28
9.73239e-29
1.72807e-29
3.01862e-30
5.18797e-31
8.77337e-32
1.46e-32
2.39107e-33
3.8541e-34
6.11476e-35
9.5499e-36
1.46831e-36
2.22264e-37
3.31277e-38
4.86196e-39
7.02689e-40
1.00017e-40
1.40207e-41
1.93584e-42
2.63268e-43
3.52666e-44
4.65349e-45
6.04835e-46
7.74359e-47
9.76451e-48
1.21272e-48
1.48304e-49
1.78578e-50
2.11598e-51
2.4674e-52
2.82723e-53
3.18452e-54
3.51366e-55
3.80234e-56
4.00396e-57
4.12139e-58
6.40107e-07
8.09673e-06
5.30283e-05
0.000223908
0.00069723
0.0017595
0.00381092
0.0072014
0.0120763
0.0184122
0.0257431
0.0332935
0.0433202
0.0570785
0.0722843
0.0902236
0.11455
0.149305
0.202166
0.260414
0.342836
0.434065
0.526584
0.615072
0.691804
0.751598
0.790574
0.825037
0.844045
0.851949
0.854851
0.854519
0.841565
0.811439
0.755987
0.673296
0.62041
0.584416
0.566287
0.556133
0.5516
0.550241
0.550764
0.555316
0.559443
0.561752
0.567085
0.571664
0.57546
0.582112
0.589175
0.593894
0.599312
0.60726
0.615551
0.624881
0.636195
0.649603
0.66549
0.683062
0.70153
0.721085
0.745318
0.771532
0.797078
0.824639
0.849878
0.874735
0.896642
0.915551
0.930396
0.942813
0.952806
0.961757
0.97034
0.979324
0.987363
0.993407
0.996645
0.99812
0.998784
0.999017
0.999011
0.998607
0.99744
0.994896
0.989588
0.978407
0.954435
0.901768
0.800142
0.648138
0.477192
0.326656
0.215965
0.136775
0.0831442
0.0485638
0.0272792
0.0147482
0.00767991
0.0038547
0.00186614
0.000872007
0.000393587
0.000171729
7.24908e-05
2.96303e-05
1.17378e-05
4.51054e-06
1.68288e-06
6.10161e-07
2.15168e-07
7.38597e-08
2.46986e-08
8.05164e-09
2.56058e-09
7.94884e-10
2.41007e-10
7.14074e-11
2.06849e-11
5.86071e-12
1.62483e-12
4.4095e-13
1.17178e-13
3.04967e-14
7.77917e-15
1.94655e-15
4.77899e-16
1.1514e-16
2.72275e-17
6.32055e-18
1.44055e-18
3.22398e-19
7.08604e-20
1.52975e-20
3.24416e-21
6.75932e-22
1.38382e-22
2.78412e-23
5.50532e-24
1.07009e-24
2.04479e-25
3.84171e-26
7.09733e-27
1.28946e-27
2.30412e-28
4.04981e-29
7.00226e-30
1.19112e-30
1.99357e-31
3.28323e-32
5.32115e-33
8.4876e-34
1.33253e-34
2.05929e-35
3.1329e-36
4.69242e-37
6.91997e-38
1.00485e-38
1.43686e-39
2.02336e-40
2.80608e-41
3.83281e-42
5.15628e-43
6.83235e-44
8.9169e-45
1.14622e-45
1.4511e-46
1.80922e-47
2.22098e-48
2.68434e-49
3.19253e-50
3.73604e-51
4.29684e-52
4.85674e-53
5.3813e-54
5.84652e-55
6.19833e-56
6.42706e-57
1.08758e-06
1.49214e-05
0.00010685
0.000500258
0.00169844
0.00445993
0.00955781
0.017485
0.0281961
0.0413149
0.0576684
0.0806326
0.112382
0.152474
0.198629
0.250454
0.306767
0.358277
0.406207
0.476229
0.554718
0.639827
0.70983
0.762883
0.799417
0.822209
0.834804
0.841279
0.843469
0.843546
0.829269
0.795771
0.728759
0.65087
0.591944
0.558656
0.543195
0.536534
0.534556
0.534435
0.536239
0.538899
0.540533
0.545359
0.548239
0.550188
0.555915
0.561691
0.567418
0.572694
0.58235
0.587497
0.59108
0.596372
0.600076
0.603795
0.607829
0.614509
0.624434
0.636902
0.650464
0.66552
0.687293
0.714723
0.743655
0.775837
0.807566
0.841014
0.873139
0.900537
0.92111
0.937711
0.949988
0.958561
0.96445
0.970367
0.976209
0.982328
0.988716
0.994019
0.997286
0.99882
0.99943
0.99967
0.999744
0.999736
0.999579
0.999053
0.997683
0.994271
0.985782
0.964375
0.908878
0.777052
0.593734
0.41108
0.26992
0.169412
0.101683
0.0584486
0.0322164
0.0170471
0.00866898
0.00424113
0.00199823
0.000907648
0.000397892
0.000168524
6.90374e-05
2.73846e-05
1.05292e-05
3.92823e-06
1.42346e-06
5.01473e-07
1.71902e-07
5.73852e-08
1.86693e-08
5.92334e-09
1.83395e-09
5.54421e-10
1.63739e-10
4.72642e-11
1.33405e-11
3.68341e-12
9.95236e-13
2.63241e-13
6.81771e-14
1.73012e-14
4.30523e-15
1.05074e-15
2.51575e-16
5.9101e-17
1.36257e-17
3.08342e-18
6.84997e-19
1.49415e-19
3.20052e-20
6.73328e-21
1.39149e-21
2.82515e-22
5.63605e-23
1.10494e-23
2.12907e-24
4.03262e-25
7.50906e-26
1.37479e-26
2.47508e-27
4.38222e-28
7.63129e-29
1.30721e-29
2.20283e-30
3.65213e-31
5.95781e-32
9.56404e-33
1.51096e-33
2.34942e-34
3.59587e-35
5.41778e-36
8.03613e-37
1.17359e-37
1.68756e-38
2.38948e-39
3.33179e-40
4.5751e-41
6.18711e-42
8.24048e-43
1.08092e-43
1.3964e-44
1.77652e-45
2.22566e-46
2.7453e-47
3.33367e-48
3.98351e-49
4.68324e-50
5.41212e-51
6.1462e-52
6.84702e-53
7.48031e-54
7.99239e-55
8.36071e-56
1.06582e-06
1.48999e-05
0.00010881
0.000525857
0.0018713
0.005182
0.0115707
0.0216315
0.0361041
0.0593919
0.0983022
0.154185
0.222628
0.301238
0.38264
0.447275
0.489382
0.530146
0.573567
0.631992
0.703108
0.765232
0.802413
0.823225
0.833608
0.837699
0.8382
0.83522
0.825269
0.796506
0.734116
0.653787
0.596141
0.555525
0.535879
0.526692
0.523129
0.521825
0.52093
0.517261
0.514036
0.509671
0.503622
0.498171
0.495083
0.494249
0.498329
0.50446
0.514229
0.525303
0.538067
0.554801
0.569871
0.579889
0.58332
0.583925
0.586354
0.588219
0.590923
0.594187
0.597056
0.598923
0.607558
0.625635
0.649141
0.674708
0.706688
0.750683
0.805462
0.860698
0.899358
0.929403
0.950022
0.963409
0.9719
0.975265
0.976928
0.980395
0.984774
0.989159
0.993088
0.99621
0.998226
0.999266
0.999704
0.999861
0.999913
0.999921
0.999891
0.999744
0.999267
0.997845
0.9937
0.981695
0.946691
0.842473
0.645731
0.445519
0.288934
0.178284
0.104845
0.0588759
0.0316248
0.0162743
0.00803554
0.00381238
0.00174047
0.000765666
0.000325021
0.000133311
5.29006e-05
2.03346e-05
7.58036e-06
2.74345e-06
9.64916e-07
3.30118e-07
1.09951e-07
3.56795e-08
1.12882e-08
3.48418e-09
1.04976e-09
3.08908e-10
8.88227e-11
2.49672e-11
6.86345e-12
1.84591e-12
4.85879e-13
1.25198e-13
3.16108e-14
7.82372e-15
1.89859e-15
4.51844e-16
1.05482e-16
2.41598e-17
5.43018e-18
1.19791e-18
2.59415e-19
5.51577e-20
1.15166e-20
2.3617e-21
4.7574e-22
9.41519e-23
1.83091e-23
3.499e-24
6.57237e-25
1.21355e-25
2.20296e-26
3.93206e-27
6.90162e-28
1.19138e-28
2.02284e-29
3.3786e-30
5.55162e-31
8.97542e-32
1.42786e-32
2.23541e-33
3.44437e-34
5.22373e-35
7.79849e-36
1.14613e-36
1.65837e-37
2.3626e-38
3.31421e-39
4.57803e-40
6.22732e-41
8.34186e-42
1.10044e-42
1.42958e-43
1.8288e-44
2.30367e-45
2.85693e-46
3.48782e-47
4.19017e-48
4.95252e-49
5.755e-50
6.5721e-51
7.36707e-52
8.10181e-53
8.72865e-54
9.21843e-55
8.58544e-07
1.25743e-05
9.45651e-05
0.00046896
0.0017093
0.00487316
0.0113598
0.0228746
0.0418903
0.0714636
0.118833
0.1959
0.304216
0.417544
0.509145
0.581658
0.632948
0.657633
0.687603
0.736215
0.792208
0.822649
0.836387
0.841719
0.842951
0.837572
0.830471
0.809382
0.764581
0.676908
0.613087
0.561349
0.534702
0.521231
0.515371
0.512896
0.511219
0.505379
0.493785
0.475723
0.448253
0.419716
0.405328
0.396675
0.393908
0.394627
0.406711
0.418199
0.435571
0.453998
0.474213
0.488865
0.515114
0.533067
0.551752
0.558948
0.560621
0.559721
0.552194
0.541122
0.533303
0.524031
0.513966
0.502783
0.50142
0.502879
0.511404
0.544108
0.61446
0.726533
0.815055
0.880416
0.928953
0.95876
0.974616
0.983281
0.987643
0.987834
0.987428
0.989012
0.992106
0.994807
0.996853
0.998268
0.999161
0.999646
0.999864
0.999944
0.999968
0.999971
0.999958
0.999888
0.999626
0.99873
0.995748
0.986004
0.954495
0.851425
0.635624
0.428013
0.271433
0.163104
0.0931633
0.0507069
0.0263565
0.0131098
0.00625212
0.00286407
0.00126248
0.000536388
0.000220003
8.72406e-05
3.34922e-05
1.24638e-05
4.50141e-06
1.5794e-06
5.38885e-07
1.78953e-07
5.7884e-08
1.82501e-08
5.61223e-09
1.68432e-09
4.93586e-10
1.41307e-10
3.95387e-11
1.08173e-11
2.89483e-12
7.58023e-13
1.94326e-13
4.88053e-14
1.20119e-14
2.89791e-15
6.85477e-16
1.59013e-16
3.61829e-17
8.07779e-18
1.76965e-18
3.80512e-19
8.0319e-20
1.66461e-20
3.38789e-21
6.77233e-22
1.32987e-22
2.56574e-23
4.8642e-24
9.06292e-25
1.65975e-25
2.98811e-26
5.28909e-27
9.20558e-28
1.57565e-28
2.65251e-29
4.39231e-30
7.15509e-31
1.14675e-31
1.80843e-32
2.80644e-33
4.28622e-34
6.44313e-35
9.53369e-36
1.38868e-36
1.99138e-37
2.81154e-38
3.9084e-39
5.3498e-40
7.21068e-41
9.57017e-42
1.25075e-42
1.60956e-43
2.03946e-44
2.5441e-45
3.124e-46
3.77506e-47
4.48809e-48
5.24692e-49
6.02915e-50
6.80427e-51
7.53769e-52
8.19093e-53
8.73625e-54
4.7135e-07
7.48081e-06
6.05468e-05
0.000325266
0.00128357
0.00396752
0.0100049
0.021217
0.0400712
0.0705899
0.12204
0.205443
0.325827
0.471748
0.610546
0.686628
0.72177
0.741143
0.76297
0.801102
0.833596
0.845693
0.84941
0.849754
0.843555
0.830858
0.799938
0.738364
0.658826
0.589032
0.547642
0.525135
0.514774
0.510171
0.507913
0.503108
0.493515
0.471158
0.429579
0.384329
0.357391
0.341972
0.329812
0.32493
0.324019
0.33368
0.348779
0.368076
0.394526
0.418737
0.448305
0.466371
0.494558
0.51531
0.539625
0.55568
0.559165
0.558146
0.546811
0.530322
0.519644
0.510036
0.496954
0.471763
0.450605
0.429637
0.411091
0.404703
0.417024
0.475142
0.623778
0.754068
0.854045
0.923
0.962234
0.981277
0.98975
0.993813
0.995352
0.99499
0.99446
0.995097
0.996727
0.997995
0.998861
0.999392
0.999704
0.999873
0.999951
0.99998
0.999988
0.999987
0.999975
0.999916
0.999681
0.998793
0.995549
0.983999
0.943672
0.804743
0.567929
0.368847
0.225854
0.130857
0.0719735
0.0376892
0.0188398
0.00901169
0.00413418
0.0018228
0.00077392
0.000316987
0.000125454
4.80476e-05
1.78316e-05
6.42048e-06
2.24532e-06
7.63392e-07
2.52557e-07
8.1369e-08
2.5548e-08
7.82229e-09
2.33693e-09
6.81597e-10
1.94175e-10
5.40555e-11
1.47113e-11
3.91561e-12
1.01967e-12
2.59991e-13
6.49284e-14
1.58861e-14
3.80918e-15
8.95336e-16
2.06343e-16
4.66385e-17
1.03406e-17
2.24947e-18
4.80221e-19
1.00626e-19
2.07001e-20
4.18123e-21
8.29436e-22
1.61614e-22
3.09362e-23
5.81852e-24
1.07542e-24
1.95358e-25
3.4884e-26
6.12385e-27
1.05702e-27
1.79412e-28
2.99493e-29
4.91745e-30
7.94253e-31
1.2621e-31
1.97328e-32
3.03592e-33
4.59663e-34
6.84979e-35
1.00471e-35
1.45067e-36
2.06198e-37
2.88552e-38
3.97562e-39
5.3932e-40
7.20375e-41
9.47425e-42
1.22686e-42
1.56418e-43
1.96329e-44
2.42565e-45
2.94936e-46
3.52838e-47
4.15154e-48
4.80231e-49
5.45859e-50
6.09394e-51
6.68029e-52
7.19622e-53
1.98554e-07
3.45751e-06
2.98461e-05
0.000172265
0.000737076
0.00249909
0.00703812
0.0169391
0.0348887
0.0645045
0.113785
0.193595
0.311026
0.460593
0.619188
0.735982
0.77741
0.793937
0.807322
0.834103
0.85197
0.856087
0.856462
0.852681
0.841611
0.818219
0.768431
0.684178
0.592755
0.546082
0.51855
0.506251
0.500637
0.497458
0.491907
0.479511
0.452733
0.407041
0.354196
0.315007
0.291312
0.263214
0.237715
0.224886
0.218905
0.218182
0.23719
0.259696
0.302901
0.348845
0.401229
0.448921
0.483144
0.511502
0.534689
0.564441
0.584671
0.58916
0.573728
0.54621
0.528973
0.524014
0.525876
0.508352
0.472046
0.429689
0.395446
0.37565
0.368712
0.376323
0.428096
0.57152
0.725734
0.846802
0.924355
0.965997
0.985384
0.993489
0.996757
0.998153
0.998527
0.998373
0.998138
0.998339
0.998909
0.999361
0.999655
0.999825
0.999917
0.999965
0.999986
0.999994
0.999995
0.999992
0.999975
0.999895
0.999564
0.998239
0.993108
0.973838
0.902911
0.690984
0.457955
0.284583
0.166595
0.0922613
0.048514
0.0243002
0.0116283
0.00533016
0.002346
0.000993626
0.000405771
0.000160054
6.10747e-05
2.25776e-05
8.09581e-06
2.81898e-06
9.54125e-07
3.14186e-07
1.00736e-07
3.14711e-08
9.58632e-09
2.8488e-09
8.26376e-10
2.34109e-10
6.48009e-11
1.75329e-11
4.63878e-12
1.20102e-12
3.04401e-13
7.55507e-14
1.83679e-14
4.37554e-15
1.02159e-15
2.3383e-16
5.24823e-17
1.15534e-17
2.49513e-18
5.28746e-19
1.09968e-19
2.24507e-20
4.50012e-21
8.85781e-22
1.71242e-22
3.25201e-23
6.06759e-24
1.11243e-24
2.0044e-25
3.54989e-26
6.18049e-27
1.05795e-27
1.78075e-28
2.9477e-29
4.79914e-30
7.68589e-31
1.21094e-31
1.87715e-32
2.86328e-33
4.29798e-34
6.34949e-35
9.23262e-36
1.32147e-36
1.86193e-37
2.58269e-38
3.52697e-39
4.74208e-40
6.27739e-41
8.18141e-42
1.04979e-42
1.32608e-43
1.64887e-44
2.01781e-45
2.42973e-46
2.87808e-47
3.3525e-48
3.83903e-49
4.32029e-50
4.77799e-51
5.19813e-52
6.18466e-08
1.25119e-06
1.17127e-05
7.3369e-05
0.000341821
0.0012671
0.00391314
0.0104075
0.024242
0.0507219
0.0951907
0.165612
0.270895
0.417135
0.592238
0.733293
0.792254
0.817165
0.829254
0.844085
0.857744
0.860813
0.860336
0.85387
0.835722
0.792884
0.722027
0.63995
0.562805
0.522386
0.503802
0.495757
0.491358
0.488171
0.481704
0.466928
0.429507
0.368751
0.306505
0.266439
0.231827
0.189223
0.163318
0.150232
0.145015
0.14484
0.160066
0.179583
0.211542
0.252607
0.307222
0.37987
0.453885
0.508804
0.543582
0.568567
0.61061
0.630017
0.634739
0.613477
0.583125
0.582682
0.619603
0.652685
0.630372
0.536523
0.434456
0.379301
0.359467
0.358242
0.373008
0.428371
0.559691
0.733071
0.861234
0.935249
0.972379
0.988988
0.995738
0.998254
0.999191
0.999547
0.999629
0.99961
0.999558
0.999586
0.999713
0.999832
0.999912
0.999958
0.999981
0.999992
0.999997
0.999997
0.999997
0.99999
0.999955
0.999799
0.999127
0.996348
0.985239
0.942261
0.782842
0.529083
0.331845
0.195329
0.108458
0.0570556
0.0285444
0.0136266
0.00622582
0.0027296
0.00115112
0.000467914
0.000183669
6.97328e-05
2.56444e-05
9.14648e-06
3.16744e-06
1.06608e-06
3.49053e-07
1.11264e-07
3.4554e-08
1.04618e-08
3.08985e-09
8.90702e-10
2.50731e-10
6.89556e-11
1.85352e-11
4.87276e-12
1.2534e-12
3.15569e-13
7.77915e-14
1.87819e-14
4.44269e-15
1.02984e-15
2.34006e-16
5.21343e-17
1.13911e-17
2.44145e-18
5.13413e-19
1.05953e-19
2.14622e-20
4.2681e-21
8.33435e-22
1.59832e-22
3.01082e-23
5.57191e-24
1.01319e-24
1.81055e-25
3.18001e-26
5.4904e-27
9.31958e-28
1.55548e-28
2.55306e-29
4.12139e-30
6.54429e-31
1.02227e-31
1.5711e-32
2.37585e-33
3.53555e-34
5.17792e-35
7.46366e-36
1.05896e-36
1.479e-37
2.03348e-38
2.75242e-39
3.66779e-40
4.81183e-41
6.21475e-42
7.90182e-43
9.88971e-44
1.21827e-44
1.47683e-45
1.76145e-46
2.06656e-47
2.38447e-48
2.70529e-49
3.01844e-50
3.31601e-51
1.51038e-08
3.44991e-07
3.56925e-06
2.46771e-05
0.000126617
0.000516169
0.00175048
0.00511149
0.0131495
0.0304326
0.0637304
0.121728
0.21365
0.344101
0.512421
0.696965
0.786022
0.818116
0.833144
0.843761
0.85734
0.861536
0.861686
0.856878
0.83855
0.794989
0.720951
0.63147
0.563081
0.517104
0.495542
0.48603
0.482936
0.480998
0.475222
0.45545
0.414146
0.346581
0.273282
0.2219
0.186702
0.149291
0.12853
0.119571
0.116766
0.118721
0.129056
0.147967
0.177075
0.215237
0.265789
0.317079
0.378797
0.480762
0.551617
0.587805
0.611399
0.634992
0.6491
0.651096
0.642569
0.639374
0.652107
0.704508
0.755097
0.754268
0.655637
0.491376
0.396422
0.36722
0.368529
0.393193
0.455814
0.591977
0.758604
0.881704
0.948808
0.979563
0.99228
0.997241
0.999025
0.999627
0.999838
0.999912
0.999929
0.999929
0.999925
0.999924
0.999941
0.999964
0.999981
0.999991
0.999996
0.999998
0.999999
0.999998
0.999995
0.999975
0.999883
0.999464
0.997637
0.98996
0.9589
0.835984
0.57559
0.362561
0.213469
0.118303
0.0620209
0.030889
0.014669
0.00666399
0.00290421
0.00121718
0.000491645
0.000191748
7.23286e-05
2.64248e-05
9.36247e-06
3.22056e-06
1.07663e-06
3.50098e-07
1.10826e-07
3.41778e-08
1.0275e-08
3.0131e-09
8.62349e-10
2.40997e-10
6.57961e-11
1.75596e-11
4.58304e-12
1.17026e-12
2.92456e-13
7.15539e-14
1.71451e-14
4.02447e-15
9.25682e-16
2.08697e-16
4.613e-17
9.99922e-18
2.12601e-18
4.43484e-19
9.0781e-20
1.82392e-20
3.59742e-21
6.96685e-22
1.325e-22
2.47518e-23
4.54233e-24
8.19033e-25
1.45125e-25
2.52735e-26
4.32645e-27
7.28121e-28
1.20486e-28
1.96061e-29
3.13776e-30
4.93938e-31
7.64893e-32
1.16534e-32
1.74692e-33
2.57695e-34
3.74102e-35
5.34516e-36
7.51711e-37
1.04061e-37
1.41807e-38
1.90235e-39
2.51235e-40
3.26637e-41
4.18058e-42
5.26709e-43
6.53185e-44
7.97225e-45
9.5754e-46
1.13159e-46
1.31571e-47
1.50495e-48
1.69395e-49
1.87879e-50
3.77436e-09
7.61551e-08
9.18535e-07
6.81233e-06
3.77271e-05
0.000168127
0.00062727
0.00201507
0.0056908
0.014427
0.0333791
0.0709104
0.138847
0.248367
0.402646
0.589075
0.748433
0.809254
0.831021
0.841608
0.851872
0.85913
0.860234
0.856658
0.842117
0.805879
0.735606
0.643377
0.572231
0.521817
0.496999
0.48458
0.477978
0.475232
0.471278
0.457613
0.421444
0.357304
0.28304
0.226342
0.189556
0.154081
0.13124
0.121131
0.110713
0.11169
0.119541
0.137187
0.165197
0.201631
0.2524
0.300651
0.348582
0.430953
0.535197
0.599001
0.612944
0.623124
0.639274
0.648001
0.649486
0.649114
0.654478
0.691008
0.757399
0.794637
0.803134
0.768517
0.631761
0.496235
0.438877
0.43438
0.458495
0.554082
0.704119
0.831663
0.917097
0.963953
0.985922
0.994918
0.99828
0.999444
0.999819
0.999936
0.999974
0.999986
0.999989
0.999989
0.999989
0.999989
0.999991
0.999994
0.999997
0.999999
0.999999
0.999999
0.999999
0.999997
0.999983
0.999916
0.999599
0.998153
0.991832
0.965319
0.857548
0.595997
0.37421
0.219225
0.120723
0.0628372
0.0310574
0.0146332
0.00659484
0.00285116
0.00118543
0.000475022
0.0001838
6.87825e-05
2.49307e-05
8.76311e-06
2.99043e-06
9.91721e-07
3.199e-07
1.00451e-07
3.07276e-08
9.16269e-09
2.66504e-09
7.56505e-10
2.09686e-10
5.67857e-11
1.50323e-11
3.89144e-12
9.85516e-13
2.44256e-13
5.92658e-14
1.40825e-14
3.27793e-15
7.4764e-16
1.67137e-16
3.66312e-17
7.8729e-18
1.65968e-18
3.43255e-19
6.96633e-20
1.38763e-20
2.71339e-21
5.20952e-22
9.82223e-23
1.81896e-23
3.3091e-24
5.91479e-25
1.03891e-25
1.79346e-26
3.04329e-27
5.07684e-28
8.3272e-29
1.34313e-29
2.13061e-30
3.32438e-31
5.10254e-32
7.70514e-33
1.14482e-33
1.67378e-34
2.40827e-35
3.41028e-36
4.75322e-37
6.52116e-38
8.80689e-39
1.17084e-39
1.53234e-40
1.97424e-41
2.50392e-42
3.1261e-43
3.84164e-44
4.64667e-45
5.53148e-46
6.48082e-47
7.47327e-48
8.4847e-49
9.49858e-50
8.834e-08
4.82587e-08
1.92295e-07
1.56955e-06
9.80859e-06
4.72576e-05
0.000190199
0.000662201
0.00203131
0.00558378
0.0140195
0.0325108
0.0701742
0.140571
0.258326
0.428177
0.63291
0.765832
0.817213
0.835695
0.845317
0.849735
0.85046
0.84674
0.833825
0.802561
0.7446
0.671315
0.602993
0.538877
0.504853
0.487142
0.478316
0.474224
0.47112
0.462734
0.440865
0.390087
0.316738
0.252617
0.20944
0.175
0.149591
0.135744
0.1278
0.129544
0.136109
0.150206
0.176636
0.208161
0.257784
0.300947
0.341625
0.415924
0.524066
0.600367
0.621366
0.618778
0.601618
0.599099
0.608945
0.624638
0.641549
0.652592
0.689918
0.753004
0.800252
0.821582
0.822903
0.793153
0.716459
0.671225
0.656865
0.655719
0.709979
0.823609
0.907723
0.957195
0.981795
0.99283
0.997379
0.999103
0.999712
0.999912
0.999973
0.999991
0.999997
0.999998
0.999998
0.999998
0.999998
0.999999
0.999999
0.999999
1
1
1
0.999999
0.999997
0.999986
0.999927
0.999637
0.998268
0.9921
0.965543
0.855378
0.589254
0.366573
0.212597
0.11586
0.0596761
0.0291897
0.0136133
0.00607415
0.00260046
0.00107087
0.000425075
0.000162943
6.04141e-05
2.16961e-05
7.55618e-06
2.5549e-06
8.39509e-07
2.68312e-07
8.34768e-08
2.53e-08
7.47473e-09
2.15405e-09
6.05826e-10
1.66392e-10
4.46507e-11
1.1712e-11
3.0042e-12
7.53861e-13
1.85131e-13
4.45087e-14
1.04791e-14
2.41687e-15
5.46205e-16
1.2099e-16
2.6275e-17
5.59559e-18
1.16885e-18
2.3954e-19
4.81719e-20
9.50814e-21
1.84233e-21
3.50502e-22
6.54848e-23
1.20169e-23
2.16631e-24
3.837e-25
6.67842e-26
1.14243e-26
1.92099e-27
3.17555e-28
5.16143e-29
8.24961e-30
1.29677e-30
2.005e-31
3.04954e-32
4.56322e-33
6.71845e-34
9.73355e-35
1.38777e-35
1.94733e-36
2.68951e-37
3.65632e-38
4.89301e-39
6.44589e-40
8.35948e-41
1.06725e-41
1.34136e-42
1.65963e-43
2.02147e-44
2.42385e-45
2.86139e-46
3.32599e-47
3.80813e-48
4.30185e-49
1.9547e-05
4.11176e-06
6.63125e-07
5.42534e-07
1.96525e-06
1.08538e-05
4.88804e-05
0.000184299
0.000609185
0.00180219
0.00485857
0.0121038
0.0281054
0.0611962
0.125048
0.237075
0.402749
0.626142
0.758464
0.81299
0.833257
0.842303
0.842714
0.839605
0.828169
0.801113
0.749341
0.686274
0.631735
0.574663
0.528204
0.498113
0.482537
0.475643
0.471791
0.467555
0.458333
0.437934
0.393532
0.331362
0.266827
0.22378
0.194966
0.175625
0.166376
0.168399
0.176558
0.192636
0.222774
0.263417
0.308695
0.351389
0.374954
0.419405
0.535802
0.619824
0.640555
0.632805
0.590806
0.550529
0.538504
0.544383
0.577104
0.611188
0.619104
0.630593
0.683296
0.761632
0.816888
0.848363
0.866599
0.885482
0.901958
0.908795
0.901251
0.896058
0.923473
0.959903
0.981737
0.992501
0.997158
0.998992
0.999661
0.999891
0.999966
0.99999
0.999997
0.999999
1
1
1
1
1
1
1
1
1
1
1
0.999997
0.999986
0.999922
0.999602
0.998053
0.990932
0.959816
0.829251
0.556989
0.341392
0.195151
0.104885
0.0533088
0.0257454
0.0118616
0.00523098
0.00221431
0.000901877
0.000354161
0.000134328
4.92853e-05
1.75161e-05
6.03743e-06
2.02036e-06
6.57033e-07
2.07832e-07
6.39957e-08
1.91964e-08
5.61327e-09
1.60105e-09
4.45714e-10
1.21172e-10
3.21855e-11
8.35664e-12
2.1218e-12
5.2705e-13
1.28126e-13
3.04936e-14
7.10742e-15
1.62285e-15
3.63106e-16
7.96335e-17
1.71229e-17
3.61064e-18
7.46822e-19
1.51556e-19
3.01816e-20
5.89945e-21
1.13205e-21
2.13296e-22
3.94678e-23
7.17327e-24
1.28079e-24
2.24695e-25
3.87374e-26
6.56377e-27
1.09326e-27
1.7902e-28
2.88233e-29
4.56359e-30
7.10631e-31
1.08845e-31
1.64002e-32
2.43115e-33
3.54602e-34
5.08957e-35
7.18903e-36
9.99413e-37
1.36753e-37
1.84194e-38
2.44223e-39
3.18779e-40
4.0964e-41
5.18253e-42
6.45534e-43
7.91703e-44
9.56077e-45
1.13707e-45
1.33203e-46
1.53769e-47
1.75226e-48
0.00253775
0.000448571
6.84102e-05
1.18981e-05
2.904e-06
3.29083e-06
9.74429e-06
4.14467e-05
0.000151921
0.000484739
0.00139503
0.00369668
0.00912195
0.0211228
0.0461974
0.0956971
0.187894
0.325938
0.542568
0.716334
0.790402
0.822352
0.83352
0.833628
0.828569
0.81137
0.766181
0.7071
0.654516
0.602022
0.555197
0.51991
0.495397
0.48215
0.475293
0.470436
0.465558
0.458473
0.445231
0.416364
0.385758