/*--------------------------------*- C++ -*----------------------------------*\
  =========                 |
  \\      /  F ield         | OpenFOAM: The Open Source CFD Toolbox
   \\    /   O peration     | Website:  https://openfoam.org
    \\  /    A nd           | Version:  9
     \\/     M anipulation  |
\*---------------------------------------------------------------------------*/
FoamFile
{
    format      ascii;
    class       volVectorField;
    location    "0.017";
    object      UMean;
}
// * * * * * * * * * * * * * * * * * * * * * * * * * * * * * * * * * * * * * //

dimensions      [0 1 -1 0 0 0 0];

internalField   nonuniform List<vector> 
12225
(
(9.88962 0.0404906 0)
(9.5972 0.0587714 0)
(9.29718 0.0567786 0)
(8.994 0.0555582 0)
(8.6976 0.0553778 0)
(8.41258 0.0550535 0)
(8.13904 0.0538787 0)
(7.87926 0.0524373 0)
(7.63025 0.0500347 0)
(7.39774 0.0483089 0)
(7.1713 0.0456866 0)
(6.96635 0.0452493 0)
(6.75239 0.042955 0)
(6.57604 0.0443601 0)
(6.3555 0.0421037 0)
(6.22018 0.0447404 0)
(5.96077 0.0463337 0)
(5.89111 0.0497528 0)
(9.98804 0.0533614 0)
(10.056 0.0779471 0)
(10.1012 0.0754262 0)
(10.1204 0.075475 0)
(10.1225 0.0781293 0)
(10.1143 0.0802964 0)
(10.0977 0.0815965 0)
(10.0762 0.0824991 0)
(10.0482 0.0831493 0)
(10.0177 0.083784 0)
(9.98019 0.084215 0)
(9.94319 0.0851849 0)
(9.89655 0.085988 0)
(9.85566 0.0878168 0)
(9.79878 0.0899904 0)
(9.75685 0.0927914 0)
(9.68777 0.100828 0)
(9.64788 0.107242 0)
(10.0154 0.0264787 0)
(10.0513 0.0511917 0)
(10.0832 0.0522463 0)
(10.1032 0.054233 0)
(10.1158 0.0593561 0)
(10.1253 0.0643505 0)
(10.1336 0.0674942 0)
(10.142 0.069573 0)
(10.1503 0.0703755 0)
(10.1585 0.0715349 0)
(10.1662 0.0721142 0)
(10.1733 0.0743231 0)
(10.1793 0.0759085 0)
(10.1843 0.0795998 0)
(10.1883 0.0828686 0)
(10.1913 0.0881655 0)
(10.1956 0.0967986 0)
(10.201 0.104141 0)
(9.95102 0.025549 0)
(9.96891 0.0570429 0)
(9.99107 0.0613833 0)
(10.0082 0.0625601 0)
(10.0203 0.0662878 0)
(10.0305 0.0703598 0)
(10.0408 0.0730871 0)
(10.0511 0.0745312 0)
(10.061 0.0752809 0)
(10.0703 0.0759681 0)
(10.0791 0.0769 0)
(10.0879 0.0784039 0)
(10.0968 0.0804844 0)
(10.1061 0.0831837 0)
(10.1153 0.0869724 0)
(10.1255 0.0915015 0)
(10.136 0.098035 0)
(10.1501 0.103405 0)
(9.98032 0.0261623 0)
(9.98941 0.0471311 0)
(10.0077 0.0524098 0)
(10.0232 0.053458 0)
(10.0328 0.0565127 0)
(10.0395 0.0608747 0)
(10.0463 0.0642785 0)
(10.054 0.0662517 0)
(10.0619 0.0670866 0)
(10.0693 0.0676659 0)
(10.0757 0.0682667 0)
(10.0815 0.0694586 0)
(10.0867 0.0712443 0)
(10.0921 0.0738238 0)
(10.0977 0.077384 0)
(10.1045 0.0815404 0)
(10.1121 0.0865377 0)
(10.122 0.0907391 0)
(9.96692 0.0178479 0)
(9.9771 0.0411316 0)
(9.99179 0.0503975 0)
(10.0063 0.0535576 0)
(10.0187 0.0568319 0)
(10.0294 0.0607943 0)
(10.0398 0.0639959 0)
(10.0501 0.0659781 0)
(10.0595 0.0671638 0)
(10.0672 0.0682815 0)
(10.0732 0.0696655 0)
(10.0779 0.0715347 0)
(10.0823 0.073799 0)
(10.0869 0.0764504 0)
(10.0924 0.079457 0)
(10.0988 0.0827276 0)
(10.1066 0.0860424 0)
(10.1152 0.0891325 0)
(10.048 0.0248263 0)
(10.0563 0.0417121 0)
(10.0661 0.0488869 0)
(10.0742 0.0506809 0)
(10.0803 0.0524194 0)
(10.0855 0.0555673 0)
(10.0912 0.0588192 0)
(10.0976 0.061197 0)
(10.1042 0.0628292 0)
(10.1102 0.0642185 0)
(10.1154 0.0656507 0)
(10.12 0.0672089 0)
(10.1246 0.0689165 0)
(10.1295 0.070816 0)
(10.1353 0.072996 0)
(10.1418 0.0754983 0)
(10.1497 0.0781078 0)
(10.1579 0.0809156 0)
(10.0119 0.0108779 0)
(10.025 0.0332562 0)
(10.0369 0.0437439 0)
(10.0465 0.04835 0)
(10.0544 0.0512958 0)
(10.0616 0.0539282 0)
(10.0691 0.0563307 0)
(10.0774 0.0583471 0)
(10.0861 0.060067 0)
(10.0947 0.0617556 0)
(10.1031 0.0635708 0)
(10.1111 0.065519 0)
(10.119 0.0674778 0)
(10.1267 0.0693819 0)
(10.1344 0.0711562 0)
(10.1424 0.0729633 0)
(10.1505 0.0746392 0)
(10.1596 0.0765758 0)
(9.97097 0.0157125 0)
(9.97729 0.0341696 0)
(9.98878 0.0431437 0)
(10.0032 0.0468874 0)
(10.0172 0.0490983 0)
(10.0286 0.0512367 0)
(10.0375 0.053419 0)
(10.0451 0.0553223 0)
(10.0528 0.0567208 0)
(10.0614 0.057843 0)
(10.0708 0.0589993 0)
(10.0812 0.0603697 0)
(10.0918 0.0619026 0)
(10.1024 0.0635779 0)
(10.1126 0.0652267 0)
(10.1228 0.0669915 0)
(10.1325 0.068549 0)
(10.1429 0.0702953 0)
(9.98052 0.012474 0)
(9.99104 0.0249622 0)
(10.0043 0.0331553 0)
(10.0184 0.0382309 0)
(10.0309 0.0417135 0)
(10.0408 0.0447469 0)
(10.0489 0.0477128 0)
(10.0563 0.0501301 0)
(10.0637 0.0515728 0)
(10.0711 0.0522756 0)
(10.0786 0.0528142 0)
(10.0866 0.0536718 0)
(10.0949 0.0548868 0)
(10.1039 0.0564218 0)
(10.1129 0.0579077 0)
(10.1227 0.0594186 0)
(10.1317 0.0605268 0)
(10.1419 0.0617541 0)
(9.96054 0.00597767 0)
(9.96425 0.0223367 0)
(9.97335 0.0294528 0)
(9.98424 0.0347835 0)
(9.99333 0.0392681 0)
(10 0.0426238 0)
(10.0057 0.0451164 0)
(10.0115 0.0469806 0)
(10.018 0.0482475 0)
(10.025 0.0490766 0)
(10.0325 0.0496259 0)
(10.0403 0.0501612 0)
(10.0485 0.0507172 0)
(10.0573 0.0515145 0)
(10.0665 0.0524088 0)
(10.0762 0.0535734 0)
(10.086 0.0545556 0)
(10.0963 0.0557024 0)
(10.0113 0.0115833 0)
(10.0108 0.0180248 0)
(10.016 0.0257081 0)
(10.0241 0.0320542 0)
(10.0322 0.0364553 0)
(10.0396 0.0398818 0)
(10.0461 0.0426754 0)
(10.0521 0.0445978 0)
(10.0577 0.0454803 0)
(10.0635 0.0456042 0)
(10.0698 0.0453813 0)
(10.0767 0.0452547 0)
(10.0839 0.0452881 0)
(10.0916 0.0456072 0)
(10.0997 0.0458942 0)
(10.1083 0.0463387 0)
(10.1174 0.0463924 0)
(10.1271 0.046667 0)
(9.96014 0.0131763 0)
(9.96523 0.0128931 0)
(9.97049 0.0219123 0)
(9.97664 0.0290673 0)
(9.98394 0.0331895 0)
(9.99211 0.0360464 0)
(10.0008 0.0383715 0)
(10.0097 0.0399775 0)
(10.0187 0.0407044 0)
(10.0277 0.0407611 0)
(10.0367 0.0404401 0)
(10.0456 0.040074 0)
(10.0544 0.0397654 0)
(10.0631 0.0396922 0)
(10.0721 0.0396464 0)
(10.0811 0.0397552 0)
(10.0906 0.039542 0)
(10.1004 0.0393916 0)
(10.0204 0.00217242 0)
(10.0279 0.0149974 0)
(10.0338 0.0213915 0)
(10.0385 0.0250965 0)
(10.0442 0.0282456 0)
(10.0512 0.0310574 0)
(10.0586 0.0331635 0)
(10.0657 0.0344014 0)
(10.0726 0.0348736 0)
(10.0795 0.0348624 0)
(10.0866 0.034582 0)
(10.094 0.0342346 0)
(10.1016 0.0338034 0)
(10.1094 0.0333819 0)
(10.1176 0.0326888 0)
(10.1261 0.0319124 0)
(10.1351 0.0305451 0)
(10.1447 0.0292137 0)
(9.99659 0.00224928 0)
(9.99343 0.0121237 0)
(9.99562 0.0174748 0)
(10.0028 0.0209225 0)
(10.0115 0.0239215 0)
(10.0189 0.0266263 0)
(10.0251 0.0286843 0)
(10.0311 0.0297835 0)
(10.0376 0.0298744 0)
(10.0448 0.0291323 0)
(10.0525 0.0278333 0)
(10.0605 0.0264041 0)
(10.0686 0.0250383 0)
(10.0767 0.0238837 0)
(10.0847 0.0226606 0)
(10.0927 0.0213722 0)
(10.1006 0.0195365 0)
(10.1089 0.0174659 0)
(10.0162 0.0159418 0)
(10.0192 0.0104491 0)
(10.0242 0.00991324 0)
(10.0301 0.0135938 0)
(10.0365 0.018173 0)
(10.0428 0.0214167 0)
(10.049 0.0228184 0)
(10.0556 0.0228219 0)
(10.0628 0.0220075 0)
(10.0703 0.0208671 0)
(10.0778 0.019668 0)
(10.0852 0.0186002 0)
(10.0926 0.0176202 0)
(10.1002 0.0167101 0)
(10.1081 0.0154951 0)
(10.1165 0.0139363 0)
(10.1253 0.0114621 0)
(10.1346 0.00844195 0)
(9.97921 -0.00114055 0)
(9.98618 0.00285209 0)
(9.99218 0.00591018 0)
(9.99528 0.00954697 0)
(9.99724 0.0129407 0)
(10.0001 0.0154494 0)
(10.0046 0.0165402 0)
(10.0102 0.0160635 0)
(10.0164 0.014357 0)
(10.0232 0.0120168 0)
(10.0303 0.00944658 0)
(10.0377 0.00680537 0)
(10.0453 0.00396764 0)
(10.0534 0.000875816 0)
(10.0615 -0.00268708 0)
(10.07 -0.00654847 0)
(10.0784 -0.0109797 0)
(10.0872 -0.0154781 0)
(10.0093 -0.00069356 0)
(10.0057 0.00528103 0)
(10.0036 0.00738948 0)
(10.0037 0.00857866 0)
(10.0068 0.00970977 0)
(10.0127 0.0101902 0)
(10.0194 0.00930628 0)
(10.0263 0.00704799 0)
(10.0334 0.00406552 0)
(10.0406 0.00104661 0)
(10.0478 -0.00168831 0)
(10.055 -0.00407566 0)
(10.0621 -0.00630069 0)
(10.0692 -0.00850316 0)
(10.0763 -0.0110052 0)
(10.0833 -0.0139132 0)
(10.0903 -0.0176005 0)
(10.0973 -0.0219673 0)
(9.98987 0.00961437 0)
(9.98952 0.00658156 0)
(9.99153 0.00499512 0)
(9.99563 0.00256564 0)
(10.0003 0.000232646 0)
(10.005 -0.00154525 0)
(10.0099 -0.00344171 0)
(10.0151 -0.00612176 0)
(10.0205 -0.00960204 0)
(10.0261 -0.0134458 0)
(10.0316 -0.0172806 0)
(10.0371 -0.0210595 0)
(10.0427 -0.0250377 0)
(10.0486 -0.0294641 0)
(10.0546 -0.0345497 0)
(10.0608 -0.0401677 0)
(10.0669 -0.0463558 0)
(10.0733 -0.0527005 0)
(9.98479 0.00212512 0)
(9.98954 -0.000524411 0)
(9.99493 -0.00316988 0)
(9.99943 -0.00453425 0)
(10.0046 -0.00483767 0)
(10.0103 -0.00551085 0)
(10.0156 -0.00765721 0)
(10.0204 -0.0111299 0)
(10.0248 -0.0151209 0)
(10.029 -0.0190056 0)
(10.0331 -0.0226469 0)
(10.0373 -0.0262 0)
(10.0415 -0.0298922 0)
(10.0458 -0.0338604 0)
(10.0499 -0.0382025 0)
(10.0538 -0.0429295 0)
(10.0573 -0.048095 0)
(10.0605 -0.0536801 0)
(9.96641 -0.000651168 0)
(9.971 -0.00244357 0)
(9.97392 -0.00700824 0)
(9.97763 -0.0109429 0)
(9.98392 -0.0132717 0)
(9.99132 -0.0148963 0)
(9.99789 -0.0167985 0)
(10.0031 -0.0194953 0)
(10.0071 -0.0230205 0)
(10.0104 -0.0271253 0)
(10.0135 -0.0315677 0)
(10.0165 -0.0361984 0)
(10.0199 -0.0409416 0)
(10.0235 -0.0457662 0)
(10.0272 -0.0506686 0)
(10.0308 -0.0556986 0)
(10.0342 -0.0609118 0)
(10.0372 -0.0663975 0)
(9.98945 -0.00359551 0)
(9.98959 -0.00740499 0)
(9.99355 -0.0115309 0)
(10.0002 -0.0153148 0)
(10.0078 -0.0180714 0)
(10.0153 -0.0199658 0)
(10.0224 -0.0213618 0)
(10.0292 -0.0227795 0)
(10.0359 -0.0247241 0)
(10.042 -0.0275288 0)
(10.0474 -0.0312131 0)
(10.0521 -0.035563 0)
(10.0562 -0.0402588 0)
(10.0599 -0.0450465 0)
(10.0633 -0.0497763 0)
(10.0661 -0.0544738 0)
(10.0687 -0.0592101 0)
(10.0705 -0.064128 0)
(10.0004 0.000588768 0)
(10.0084 -0.0104454 0)
(10.0169 -0.0179003 0)
(10.0249 -0.0225434 0)
(10.0322 -0.0256558 0)
(10.0389 -0.0283044 0)
(10.0449 -0.0309559 0)
(10.0502 -0.0336713 0)
(10.055 -0.036502 0)
(10.0593 -0.0395961 0)
(10.0632 -0.043072 0)
(10.0668 -0.0469664 0)
(10.0701 -0.0511508 0)
(10.0731 -0.0554523 0)
(10.0755 -0.0597032 0)
(10.0774 -0.0639036 0)
(10.0786 -0.0680684 0)
(10.0792 -0.0723735 0)
(9.99458 -0.00692301 0)
(10.0002 -0.0161914 0)
(10.0082 -0.0226444 0)
(10.0171 -0.0266454 0)
(10.0257 -0.029334 0)
(10.033 -0.0310764 0)
(10.039 -0.0321455 0)
(10.0442 -0.0330652 0)
(10.0492 -0.0344765 0)
(10.0537 -0.0367788 0)
(10.0575 -0.0399689 0)
(10.0601 -0.0437606 0)
(10.0616 -0.0477477 0)
(10.0621 -0.0516203 0)
(10.0619 -0.0552061 0)
(10.0609 -0.0585841 0)
(10.0597 -0.0618457 0)
(10.0581 -0.0652579 0)
(10.0277 -0.00950822 0)
(10.0318 -0.0234591 0)
(10.041 -0.0311933 0)
(10.0521 -0.0350296 0)
(10.0617 -0.0371306 0)
(10.0691 -0.0388746 0)
(10.075 -0.0406534 0)
(10.0803 -0.0425268 0)
(10.0857 -0.0445051 0)
(10.0906 -0.0466112 0)
(10.0948 -0.0488396 0)
(10.098 -0.051177 0)
(10.1003 -0.0536264 0)
(10.1018 -0.0562189 0)
(10.1029 -0.0589702 0)
(10.1037 -0.0619443 0)
(10.1044 -0.0651403 0)
(10.105 -0.0686316 0)
(10.0218 -0.00517708 0)
(10.032 -0.0254056 0)
(10.0447 -0.0333287 0)
(10.0548 -0.0355835 0)
(10.0612 -0.0372444 0)
(10.0655 -0.0389624 0)
(10.0691 -0.0401087 0)
(10.0728 -0.0407927 0)
(10.0765 -0.0416867 0)
(10.0797 -0.0432166 0)
(10.0821 -0.0453337 0)
(10.0837 -0.0478028 0)
(10.0848 -0.0504424 0)
(10.0857 -0.05322 0)
(10.0865 -0.056133 0)
(10.0871 -0.0592027 0)
(10.0874 -0.0624009 0)
(10.0873 -0.0657114 0)
(10.0003 -0.0200923 0)
(10.0141 -0.0362525 0)
(10.0287 -0.0419644 0)
(10.0389 -0.0423089 0)
(10.045 -0.0427437 0)
(10.0498 -0.0442678 0)
(10.0548 -0.0460641 0)
(10.0604 -0.0476174 0)
(10.0666 -0.0489784 0)
(10.0729 -0.0503364 0)
(10.0787 -0.0518287 0)
(10.0838 -0.0535723 0)
(10.0879 -0.055624 0)
(10.091 -0.057998 0)
(10.0932 -0.0605792 0)
(10.0945 -0.0632512 0)
(10.0949 -0.0658929 0)
(10.0944 -0.0684513 0)
(9.9487 -0.0166099 0)
(9.96759 -0.0349202 0)
(9.98717 -0.038681 0)
(10.0003 -0.0397822 0)
(10.009 -0.0421522 0)
(10.0172 -0.0445903 0)
(10.0262 -0.0461248 0)
(10.0355 -0.0471829 0)
(10.0444 -0.0483996 0)
(10.0524 -0.0499428 0)
(10.0597 -0.0516075 0)
(10.0663 -0.0532453 0)
(10.0722 -0.0548172 0)
(10.0771 -0.056455 0)
(10.0811 -0.0581934 0)
(10.0838 -0.0601291 0)
(10.0854 -0.0621762 0)
(10.0858 -0.0644067 0)
(9.97394 -0.0304517 0)
(10.0168 -0.0493415 0)
(10.0522 -0.0501165 0)
(10.0743 -0.0494007 0)
(10.0871 -0.0507825 0)
(10.0948 -0.0529136 0)
(10.0991 -0.0547123 0)
(10.1008 -0.056039 0)
(10.1003 -0.0571198 0)
(10.0977 -0.0582346 0)
(10.0928 -0.0594854 0)
(10.0857 -0.060877 0)
(10.0762 -0.0622635 0)
(10.0647 -0.0636196 0)
(10.0511 -0.0648291 0)
(10.0364 -0.066008 0)
(10.0199 -0.0670985 0)
(10.0034 -0.0683432 0)
(9.94426 -0.0441729 0)
(9.77904 -0.0530505 0)
(9.61115 -0.0525684 0)
(9.43841 -0.0517007 0)
(9.26751 -0.0511206 0)
(9.10343 -0.0500116 0)
(8.94699 -0.048627 0)
(8.79723 -0.0475686 0)
(8.65305 -0.0469725 0)
(8.51384 -0.0465829 0)
(8.37911 -0.0460971 0)
(8.24905 -0.0454264 0)
(8.12338 -0.0446529 0)
(8.00259 -0.0439964 0)
(7.8855 -0.0435815 0)
(7.77307 -0.0435084 0)
(7.6628 -0.0436896 0)
(7.55749 -0.0441275 0)
(0.0210666 -0.0808427 -9.44473e-22)
(0.0634654 -0.102446 9.40787e-22)
(0.111046 -0.100398 0)
(0.151843 -0.0942652 0)
(0.186552 -0.0868783 0)
(0.214668 -0.0786821 -9.63391e-22)
(0.236032 -0.0697794 0)
(0.250046 -0.060215 0)
(0.256229 -0.0499945 0)
(0.253668 -0.0390996 0)
(0.241285 -0.0273864 1.06375e-21)
(0.217711 -0.0147006 0)
(0.1815 -0.00082975 0)
(0.130974 0.0142968 0)
(0.0643672 0.0305927 0)
(-0.0203024 0.0475955 1.20626e-21)
(-0.124976 0.0650275 0)
(-0.251948 0.0822217 0)
(-0.402683 0.09896 0)
(-0.578182 0.11467 0)
(-0.779551 0.129042 0)
(-1.00812 0.144865 0)
(-1.2658 0.169225 0)
(-1.55309 0.215355 1.38677e-21)
(-1.87224 0.282811 -1.41619e-21)
(-2.22536 0.330366 1.45298e-21)
(-2.5901 0.344145 1.50234e-21)
(-2.9531 0.347692 0)
(-3.31301 0.343793 0)
(-3.66339 0.333099 -1.73365e-21)
(-4.00065 0.317954 -1.83283e-21)
(-4.32155 0.299356 0)
(-4.6233 0.278091 0)
(-4.90334 0.254627 -2.15511e-21)
(-5.1592 0.229348 0)
(-5.3886 0.202543 0)
(-5.58931 0.174485 2.43989e-21)
(-5.75928 0.14544 0)
(-5.89664 0.115695 2.56045e-21)
(-5.99981 0.085568 5.17988e-21)
(-6.06754 0.0554058 0)
(-6.0989 0.0255809 0)
(-6.09341 -0.0035139 0)
(-6.05151 -0.0314585 0)
(-5.97417 -0.0578062 0)
(-5.8623 -0.0820688 4.43339e-21)
(-5.71794 -0.10394 4.12557e-21)
(-5.54453 -0.123385 3.77565e-21)
(-5.34438 -0.140464 0)
(-5.12056 -0.155187 -2.97889e-21)
(-4.87606 -0.167571 0)
(-4.61396 -0.177608 2.10522e-21)
(-4.33717 -0.185489 1.65848e-21)
(-4.04855 -0.191299 0)
(-3.75064 -0.195292 0)
(-3.44572 -0.197669 0)
(-3.13586 -0.198622 -5.52893e-23)
(-2.82293 -0.198318 0)
(-2.50875 -0.196914 0)
(-2.19487 -0.194464 0)
(-1.88282 -0.191127 0)
(-1.57405 -0.186971 0)
(-1.26966 -0.182179 0)
(-0.970661 -0.176882 0)
(-0.677794 -0.17126 0)
(-0.391507 -0.165347 2.70465e-21)
(-0.112252 -0.159347 0)
(0.159511 -0.153117 0)
(0.423444 -0.146782 -3.16129e-21)
(0.679005 -0.140197 -3.272e-21)
(0.92552 -0.133384 0)
(1.16236 -0.126235 3.43572e-21)
(1.38889 -0.118882 -3.49065e-21)
(1.60454 -0.111308 0)
(1.80883 -0.103678 3.55339e-21)
(2.00141 -0.0960288 0)
(2.18206 -0.0885094 0)
(2.35094 -0.0812214 -3.55338e-21)
(2.50845 -0.0742066 0)
(2.655 -0.067549 3.51089e-21)
(2.79095 -0.061285 0)
(2.91683 -0.055434 -3.44856e-21)
(3.0332 -0.0500009 -3.41267e-21)
(3.14064 -0.0449792 -3.37474e-21)
(3.23973 -0.0403546 -6.67086e-21)
(3.33104 -0.0361076 6.59055e-21)
(3.41513 -0.0322157 0)
(3.49249 -0.0286547 0)
(3.56362 -0.0253997 0)
(3.62897 -0.0224263 6.26696e-21)
(3.68894 -0.0197109 6.18793e-21)
(3.74393 -0.0172312 -6.11026e-21)
(3.79427 -0.0149667 0)
(3.84029 -0.0128987 5.95966e-21)
(3.88228 -0.0110104 5.88694e-21)
(3.9205 -0.00928688 5.81602e-21)
(3.9552 -0.0077149 0)
(3.98662 -0.00628297 0)
(4.01495 -0.00498107 0)
(4.0404 -0.0038005 5.55062e-21)
(4.06316 -0.00273367 0)
(4.08341 -0.00177389 0)
(4.10131 -0.000915169 -5.37019e-21)
(4.11703 -0.000152044 0)
(4.13072 0.000520929 0)
(4.14255 0.00110856 -5.20445e-21)
(4.15266 0.00161709 0)
(4.16119 0.00205092 0)
(4.16828 0.00241887 5.05198e-21)
(4.17405 0.00272788 5.00385e-21)
(4.17864 0.00299024 0)
(4.1821 0.00321983 -4.91127e-21)
(4.18453 0.00341444 0)
(4.18606 0.00356306 4.82324e-21)
(4.18679 0.00366421 0)
(4.18684 0.00372318 4.73937e-21)
(4.18629 0.00374633 4.69888e-21)
(4.18524 0.00373757 0)
(4.18377 0.00369926 0)
(4.18193 0.00363842 0)
(4.1798 0.00356172 0)
(4.17743 0.00347396 0)
(4.17484 0.00337897 0)
(4.17209 0.00327949 0)
(4.1692 0.00317764 4.40413e-21)
(4.16621 0.00307529 -4.37038e-21)
(4.16312 0.00297396 0)
(4.15998 0.00287473 0)
(4.15678 0.00277832 0)
(4.15355 0.0026852 0)
(4.15029 0.00259568 -8.41966e-21)
(4.14701 0.00250973 0)
(4.14373 0.00242712 8.29798e-21)
(4.14044 0.0023475 -8.23843e-21)
(4.13717 0.00227073 0)
(4.1339 0.00219668 0)
(4.13065 0.00212494 0)
(4.12743 0.00205459 8.00802e-21)
(4.12423 0.00198448 7.95222e-21)
(4.12106 0.00191378 0)
(4.11794 0.00184258 7.8426e-21)
(4.11485 0.001772 7.78875e-21)
(4.11182 0.0017038 -7.7355e-21)
(4.10883 0.00163969 0)
(4.10588 0.00158085 0)
(4.10297 0.0015277 -7.57925e-21)
(4.10009 0.00148003 0)
(4.09723 0.00143731 0)
(4.09438 0.00139899 0)
(4.09155 0.00136469 0)
(4.08871 0.00133416 7.32955e-21)
(4.08587 0.00130746 7.28112e-21)
(4.08302 0.00128456 0)
(4.08015 0.00126581 7.1857e-21)
(4.07725 0.00125115 0)
(4.07432 0.00124129 0)
(4.07134 0.00123601 7.04618e-21)
(4.06831 0.00123673 0)
(4.06519 0.00124292 6.9556e-21)
(4.06199 0.00125732 0)
(4.05866 0.00127887 0)
(4.05521 0.00131232 6.82366e-21)
(4.05153 0.0013566 0)
(4.04771 0.0014178 6.73865e-21)
(4.04346 0.0014993 0)
(4.03906 0.0016008 0)
(4.03386 0.00175047 0)
(4.02857 0.00190578 -6.57814e-21)
(4.02174 0.00219712 0)
(4.01498 0.00240424 6.50493e-21)
(4.00535 0.00302857 0)
(3.99596 0.00320665 0)
(3.98152 0.00470029 0)
(3.96657 0.00447884 0)
(3.94419 0.00845136 0)
(3.91483 0.00651958 0)
(3.88065 0.0182998 0)
(3.80561 0.0109046 -1.27562e-20)
(3.75686 0.0534296 0)
(3.51069 0.0430981 0)
(-0.00811601 -0.097541 2.82151e-21)
(-0.0514911 -0.102784 -2.81111e-21)
(-0.0920279 -0.0872622 0)
(-0.138146 -0.0666111 1.87847e-21)
(-0.186657 -0.0461575 0)
(-0.238835 -0.0258747 9.63297e-22)
(-0.294735 -0.00548857 -1.94169e-21)
(-0.355159 0.0158776 -1.97612e-21)
(-0.420994 0.0391393 0)
(-0.493419 0.0651463 -2.06383e-21)
(-0.574054 0.0945061 -1.06369e-21)
(-0.664806 0.127671 0)
(-0.767521 0.16522 0)
(-0.884274 0.207788 0)
(-1.01687 0.256105 0)
(-1.16789 0.310254 -1.20552e-21)
(-1.33967 0.368844 0)
(-1.5328 0.430011 2.53383e-21)
(-1.75012 0.49476 0)
(-1.99057 0.567033 0)
(-2.25395 0.645873 -2.68773e-21)
(-2.54035 0.722375 0)
(-2.84006 0.788322 2.80944e-21)
(-3.13767 0.839573 -1.38087e-21)
(-3.42715 0.872861 1.40953e-21)
(-3.71176 0.885284 -1.44604e-21)
(-3.98843 0.87996 -1.49549e-21)
(-4.25618 0.861831 0)
(-4.51456 0.832852 0)
(-4.76162 0.795706 1.72696e-21)
(-4.99637 0.752025 -2.08324e-21)
(-5.21737 0.70299 0)
(-5.42335 0.649238 0)
(-5.61277 0.59117 2.14882e-21)
(-5.78402 0.529015 0)
(-5.9353 0.462982 0)
(-6.06475 0.393323 -2.43456e-21)
(-6.17047 0.320398 0)
(-6.2506 0.244693 2.82367e-21)
(-6.30342 0.166834 -5.1721e-21)
(-6.32743 0.0876052 0)
(-6.32154 0.00795006 0)
(-6.28494 -0.0710214 -1.05933e-20)
(-6.21697 -0.14809 -1.027e-20)
(-6.11749 -0.221909 -9.83165e-21)
(-5.98752 -0.291195 4.85371e-21)
(-5.82811 -0.35494 -4.12275e-21)
(-5.64 -0.412611 -1.16794e-20)
(-5.42593 -0.46361 7.10535e-21)
(-5.18856 -0.507676 2.97634e-21)
(-4.93096 -0.544576 0)
(-4.65622 -0.574441 -2.10308e-21)
(-4.36739 -0.597603 1.87102e-21)
(-4.06731 -0.614641 0)
(-3.75856 -0.626177 0)
(-3.44333 -0.632905 0)
(-3.12356 -0.635472 5.57297e-23)
(-2.80105 -0.634387 0)
(-2.47748 -0.630058 -1.50438e-21)
(-2.15436 -0.622738 0)
(-1.83327 -0.612763 -2.85307e-21)
(-1.51567 -0.600377 0)
(-1.20276 -0.586046 3.99751e-21)
(-0.895501 -0.570243 0)
(-0.594524 -0.55341 -4.9381e-21)
(-0.300229 -0.535907 2.63292e-21)
(-0.0128964 -0.518025 0)
(0.267181 -0.499707 5.99753e-21)
(0.539652 -0.480893 3.15941e-21)
(0.804113 -0.461452 3.27009e-21)
(1.05985 -0.44111 0)
(1.30613 -0.4199 3.39583e-21)
(1.54223 -0.397858 3.48862e-21)
(1.76753 -0.375132 0)
(1.98153 -0.352085 -3.55134e-21)
(2.1839 -0.329043 7.09998e-21)
(2.37439 -0.30635 0)
(2.55326 -0.284342 3.55131e-21)
(2.72097 -0.263164 0)
(2.87792 -0.24304 -1.05091e-20)
(3.02456 -0.224076 0)
(3.16143 -0.20632 1.03249e-20)
(3.28912 -0.189783 3.41075e-21)
(3.40821 -0.174439 -3.36007e-21)
(3.51928 -0.160246 -6.64356e-21)
(3.62288 -0.147144 6.56514e-21)
(3.71954 -0.135066 0)
(3.80975 -0.12394 0)
(3.89398 -0.113691 0)
(3.97265 -0.104248 -1.87744e-20)
(4.04615 -0.0955409 -6.18425e-21)
(4.11485 -0.0875048 6.10657e-21)
(4.17906 -0.0800793 0)
(4.23909 -0.0732095 5.94493e-21)
(4.29521 -0.0668463 -5.8832e-21)
(4.34765 -0.0609458 -5.81227e-21)
(4.39665 -0.0554693 0)
(4.4424 -0.0503832 0)
(4.4851 -0.045658 0)
(4.52492 -0.0412684 -5.54679e-21)
(4.56201 -0.0371928 0)
(4.59654 -0.0334125 1.08439e-20)
(4.62864 -0.0299112 1.60937e-20)
(4.65844 -0.0266749 -1.06142e-20)
(4.68608 -0.0236906 0)
(4.71168 -0.0209469 -5.1965e-21)
(4.73536 -0.0184317 0)
(4.75724 -0.0161342 -1.01915e-20)
(4.77742 -0.0140407 5.04487e-21)
(4.79603 -0.0121382 4.99696e-21)
(4.81315 -0.0104112 0)
(4.82896 -0.00884383 1.47193e-20)
(4.84357 -0.00743242 -9.72314e-21)
(4.85704 -0.00617955 -4.81924e-21)
(4.86945 -0.00507985 0)
(4.88087 -0.00411939 -4.73536e-21)
(4.89136 -0.00328272 -1.40831e-20)
(4.90097 -0.00255497 0)
(4.90978 -0.00192137 -9.23189e-21)
(4.91784 -0.00137305 -9.15622e-21)
(4.9252 -0.000902792 -9.0821e-21)
(4.93193 -0.000502136 0)
(4.93806 -0.00016142 0)
(4.94365 0.000127304 0)
(4.94875 0.000370663 4.39952e-21)
(4.9534 0.000574583 4.36647e-21)
(4.95763 0.00074425 0)
(4.96147 0.000884354 8.60097e-21)
(4.96498 0.000999081 8.5369e-21)
(4.96816 0.00109197 0)
(4.97106 0.00116606 8.4121e-21)
(4.9737 0.00122393 1.67011e-20)
(4.9761 0.00126773 -8.29055e-21)
(4.97828 0.00129925 -8.23053e-21)
(4.98027 0.00132012 0)
(4.98208 0.00133168 0)
(4.98372 0.00133505 0)
(4.98522 0.00133095 -8.00092e-21)
(4.98658 0.00131983 7.94487e-21)
(4.98782 0.00130216 1.578e-20)
(4.98894 0.0012788 -7.83571e-21)
(4.98997 0.00125124 7.78169e-21)
(4.99089 0.00122146 7.72875e-21)
(4.99172 0.00119168 0)
(4.99248 0.00116389 0)
(4.99315 0.00113962 -7.57254e-21)
(4.99375 0.00111972 0)
(4.99428 0.00110452 0)
(4.99475 0.00109395 1.4843e-20)
(4.99514 0.00108777 0)
(4.99546 0.00108571 7.32322e-21)
(4.99572 0.0010877 -7.27501e-21)
(4.9959 0.00109377 0)
(4.99602 0.00110431 7.17958e-21)
(4.99606 0.00111983 0)
(4.99603 0.00114132 0)
(4.99593 0.00116983 -7.04042e-21)
(4.99574 0.00120707 1.39897e-20)
(4.99547 0.00125508 -6.94997e-21)
(4.99511 0.00131617 0)
(4.99464 0.00139484 0)
(4.99404 0.00149269 6.81789e-21)
(4.9933 0.00162156 0)
(4.99238 0.00177615 6.73288e-21)
(4.99126 0.00199125 0)
(4.98983 0.00223157 0)
(4.98814 0.0026044 0)
(4.9859 0.00296673 6.57305e-21)
(4.9833 0.00365201 0)
(4.97966 0.00416289 -6.49993e-21)
(4.97562 0.00552624 0)
(4.96942 0.00613599 0)
(4.96302 0.00911256 1.28087e-20)
(4.95178 0.00949117 -1.27589e-20)
(4.9414 0.0166674 0)
(4.91932 0.0157464 0)
(4.9019 0.0352277 0)
(4.85473 0.0317623 3.81609e-20)
(4.82702 0.0956183 0)
(4.73024 0.104618 -2.56205e-20)
(-0.0351116 0.0548239 -1.57566e-23)
(-0.14285 0.0786605 3.72373e-21)
(-0.242591 0.0915848 0)
(-0.345993 0.110623 -3.73706e-21)
(-0.448828 0.129634 0)
(-0.553765 0.151139 0)
(-0.661222 0.175248 2.32307e-23)
(-0.77258 0.203025 1.97463e-21)
(-0.888879 0.235534 1.98806e-21)
(-1.01143 0.274125 2.06181e-21)
(-1.14148 0.320005 0)
(-1.28032 0.373792 0)
(-1.42923 0.435541 -2.1987e-21)
(-1.58929 0.505401 -4.52355e-21)
(-1.76088 0.583757 4.65441e-21)
(-1.94424 0.670506 0)
(-2.13999 0.763941 4.92239e-21)
(-2.34744 0.860598 -2.52772e-21)
(-2.56387 0.956187 0)
(-2.78513 1.04634 5.34447e-21)
(-3.00795 1.12629 2.68079e-21)
(-3.23048 1.19217 -5.66726e-21)
(-3.44983 1.24236 -2.8032e-21)
(-3.66326 1.27643 0)
(-3.87077 1.29334 6.31931e-21)
(-4.07414 1.29238 6.59684e-21)
(-4.27495 1.27524 0)
(-4.47513 1.2446 7.25843e-21)
(-4.67546 1.20293 0)
(-4.8761 1.15226 8.05654e-21)
(-5.07626 1.09371 3.90609e-21)
(-5.27418 1.02779 0)
(-5.46732 0.954487 0)
(-5.65239 0.87363 0)
(-5.82575 0.785057 0)
(-5.98361 0.688791 0)
(-6.12223 0.585083 0)
(-6.2381 0.474455 1.1367e-20)
(-6.32805 0.357717 -1.69572e-20)
(-6.38928 0.23599 0)
(-6.41944 0.110754 0)
(-6.41667 -0.0162151 0)
(-6.37967 -0.142914 -8.07741e-22)
(-6.30779 -0.267355 1.02652e-20)
(-6.20125 -0.387556 2.04068e-20)
(-6.06136 -0.501663 -1.92742e-20)
(-5.89031 -0.60783 -9.30163e-21)
(-5.69044 -0.704312 7.90236e-21)
(-5.46454 -0.789557 5.62307e-22)
(-5.21586 -0.862676 6.7535e-21)
(-4.94779 -0.923323 0)
(-4.66385 -0.971773 4.84676e-21)
(-4.36733 -1.00872 3.60512e-22)
(-4.06115 -1.03533 0)
(-3.74767 -1.05281 0)
(-3.42889 -1.06243 -1.12448e-21)
(-3.10639 -1.06535 0)
(-2.7815 -1.06245 0)
(-2.4556 -1.05432 -1.09463e-21)
(-2.13011 -1.04136 -4.02891e-21)
(-1.80663 -1.02393 2.85208e-21)
(-1.48687 -1.00243 0)
(-1.17237 -0.977611 -3.99583e-21)
(-0.86426 -0.950373 0)
(-0.563189 -0.921614 -4.67977e-21)
(-0.26942 -0.89209 -5.33357e-21)
(0.017073 -0.86212 1.11497e-20)
(0.296304 -0.831853 5.7904e-21)
(0.56808 -0.800875 0)
(0.832102 -0.76885 -1.28117e-20)
(1.08758 -0.735271 0)
(1.33352 -0.70009 -2.035e-20)
(1.56915 -0.663326 -1.3767e-20)
(1.79361 -0.625286 -1.39424e-20)
(2.00618 -0.586656 1.4055e-20)
(2.20652 -0.548048 -2.12094e-20)
(2.3945 -0.510183 0)
(2.57048 -0.473494 0)
(2.73507 -0.438369 1.40264e-20)
(2.88872 -0.405112 2.09354e-20)
(3.03203 -0.373876 0)
(3.16567 -0.344719 -6.87661e-21)
(3.29029 -0.317627 0)
(3.40656 -0.29254 2.01519e-20)
(3.5151 -0.269368 3.95698e-23)
(3.61648 -0.248004 -3.64088e-23)
(3.71124 -0.228331 -1.29561e-20)
(3.79987 -0.210226 0)
(3.88282 -0.193567 1.26404e-20)
(3.96049 -0.178234 2.59237e-23)
(4.03325 -0.16411 0)
(4.10144 -0.151087 0)
(4.16537 -0.139063 0)
(4.22531 -0.127948 -1.19001e-20)
(4.28154 -0.117658 0)
(4.33428 -0.10812 0)
(4.38374 -0.0992678 0)
(4.43013 -0.0910452 0)
(4.47362 -0.0834019 0)
(4.51438 -0.0762946 -1.10757e-20)
(4.55257 -0.0696859 0)
(4.58832 -0.0635434 -1.08436e-20)
(4.62177 -0.0578391 -1.07271e-20)
(4.65305 -0.0525485 1.06139e-20)
(4.68227 -0.0476495 0)
(4.70955 -0.043122 1.03967e-20)
(4.73501 -0.0389472 0)
(4.75874 -0.0351061 1.01912e-20)
(4.78085 -0.0315815 -1.00926e-20)
(4.80143 -0.0283552 -2.99807e-20)
(4.82058 -0.0254115 0)
(4.83839 -0.0227364 -2.94279e-20)
(4.85493 -0.0203132 -9.71606e-21)
(4.87028 -0.0181232 0)
(4.88453 -0.0161489 -1.90973e-20)
(4.89775 -0.0143715 -1.89325e-20)
(4.90999 -0.0127717 2.81593e-20)
(4.92134 -0.0113298 0)
(4.93186 -0.0100281 9.23164e-21)
(4.94159 -0.00885713 9.15596e-21)
(4.95058 -0.007809 2.72423e-20)
(4.9589 -0.00687314 0)
(4.96658 -0.00603893 0)
(4.97367 -0.00529549 0)
(4.9802 -0.00463259 8.79729e-21)
(4.98622 -0.00404157 0)
(4.99177 -0.00351545 0)
(4.99687 -0.00304782 -8.60059e-21)
(5.00156 -0.00263269 -8.53651e-21)
(5.00587 -0.00226452 0)
(5.00983 -0.00193841 0)
(5.01347 -0.00165009 -1.67003e-20)
(5.01681 -0.00139578 0)
(5.01987 -0.0011721 1.64607e-20)
(5.02268 -0.000975917 1.63427e-20)
(5.02526 -0.000804418 0)
(5.02762 -0.00065522 0)
(5.02978 -0.000526417 -1.60001e-20)
(5.03176 -0.000416362 -4.71097e-25)
(5.03357 -0.000323318 -4.20464e-25)
(5.03523 -0.000245155 0)
(5.03674 -0.000179311 -3.11251e-20)
(5.03811 -0.000123002 0)
(5.03937 -7.34841e-05 0)
(5.04051 -2.82715e-05 0)
(5.04155 1.47805e-05 1.51444e-20)
(5.04249 5.74437e-05 0)
(5.04335 0.000101093 -2.98833e-20)
(5.04413 0.000146702 -1.48421e-20)
(5.04483 0.000194815 0)
(5.04546 0.000245719 -1.46458e-20)
(5.04603 0.000299445 0)
(5.04654 0.000356239 0)
(5.04698 0.000416277 -4.30751e-20)
(5.04736 0.00048063 2.85289e-20)
(5.04767 0.000549993 0)
(5.04793 0.000627081 2.81593e-20)
(5.04811 0.000712811 -1.39889e-20)
(5.04822 0.000812944 0)
(5.04825 0.000927294 0)
(5.04819 0.00106827 0)
(5.04801 0.00123058 -4.09051e-20)
(5.04773 0.00144277 0)
(5.04726 0.00168274 -1.34654e-20)
(5.04664 0.00202005 0)
(5.04573 0.00238231 0)
(5.0446 0.0029459 0)
(5.04298 0.00349503 0)
(5.04105 0.00448738 0)
(5.0382 0.00531063 0)
(5.03496 0.00716625 -2.5852e-20)
(5.02997 0.00837056 0)
(5.02449 0.0120916 -1.28079e-20)
(5.01557 0.0138191 3.82587e-20)
(5.00606 0.0219295 0)
(4.98976 0.0247384 0)
(4.97281 0.0445723 -2.53244e-20)
(4.94395 0.0528255 -2.54123e-20)
(4.91637 0.108541 2.53582e-20)
(4.88018 0.143848 2.5616e-20)
(-0.0477013 0.284681 -5.56858e-21)
(-0.182941 0.332502 -5.54486e-21)
(-0.308061 0.343752 -3.68816e-21)
(-0.438281 0.364682 -1.83835e-21)
(-0.568428 0.386206 0)
(-0.701347 0.411699 3.75171e-21)
(-0.836899 0.44137 -1.88177e-21)
(-0.976366 0.476644 0)
(-1.12035 0.518552 -1.98655e-21)
(-1.26956 0.567951 0)
(-1.42424 0.625296 4.10506e-21)
(-1.58451 0.691145 0)
(-1.75054 0.765811 2.19606e-21)
(-1.92249 0.848985 4.51769e-21)
(-2.09984 0.939486 -4.64804e-21)
(-2.2813 1.03522 0)
(-2.46536 1.13319 -4.91569e-21)
(-2.6505 1.2298 0)
(-2.83503 1.32132 0)
(-3.0175 1.40415 -5.3386e-21)
(-3.19712 1.47511 0)
(-3.37405 1.53212 -2.14299e-22)
(-3.5493 1.57457 0)
(-3.72491 1.60264 0)
(-3.90358 1.61653 4.18937e-22)
(-4.0879 1.61683 -6.59309e-21)
(-4.27988 1.60468 -7.46682e-21)
(-4.48057 1.581 -7.254e-21)
(-4.68963 1.54613 0)
(-4.90528 1.4997 -1.68639e-20)
(-5.12422 1.44087 0)
(-5.34206 1.36862 -9.82869e-21)
(-5.55369 1.2821 0)
(-5.75391 1.18083 0)
(-5.93788 1.06483 1.13389e-20)
(-6.10135 0.934659 0)
(-6.24079 0.791377 -1.21788e-20)
(-6.35326 0.63647 1.14472e-21)
(-6.43621 0.471786 2.43115e-20)
(-6.48742 0.299476 -2.57492e-20)
(-6.505 0.121995 0)
(-6.4876 -0.0579821 0)
(-6.4346 -0.2377 -1.36964e-20)
(-6.34612 -0.414426 0)
(-6.2229 -0.585286 -1.05775e-20)
(-6.06615 -0.747336 9.99247e-21)
(-5.87796 -0.897193 9.30022e-21)
(-5.66092 -1.03186 0)
(-5.41844 -1.14945 -7.66202e-21)
(-5.15462 -1.24886 -6.75209e-21)
(-4.87366 -1.33001 1.28652e-20)
(-4.57973 -1.3935 -4.84565e-21)
(-4.27664 -1.4408 -3.88434e-21)
(-3.96744 -1.47382 0)
(-3.65427 -1.49471 0)
(-3.33841 -1.5055 1.12398e-21)
(-3.02048 -1.50781 0)
(-2.70067 -1.50281 0)
(-2.37927 -1.49104 2.59832e-21)
(-2.05693 -1.47267 4.02758e-21)
(-1.73497 -1.44776 0)
(-1.41539 -1.41664 0)
(-1.1005 -1.38029 0)
(-0.792163 -1.34029 0)
(-0.491431 -1.29839 9.61129e-21)
(-0.198498 -1.25589 -1.00813e-20)
(0.0868811 -1.21344 -1.11446e-20)
(0.365142 -1.17112 -2.32647e-20)
(0.636512 -1.12823 0)
(0.900757 -1.08389 2.41355e-22)
(1.15698 -1.03722 0)
(1.4039 -0.987727 1.35171e-20)
(1.6404 -0.935571 1.65182e-22)
(1.86524 -0.881397 1.39364e-20)
(2.07742 -0.826258 -1.40488e-20)