# vtk DataFile Version 2.0
sampleSurface
ASCII
DATASET POLYDATA
POINTS 502 float
-0.0206 0 -0.0005 -0.0190172 0 -0.0005 -0.0190172 0 0.0005 -0.0206 0
0.0005 -0.0174976 0 -0.0005 -0.0174976 0 0.0005 -0.0160387 0 -0.0005
-0.0160387 0 0.0005 -0.0146381 0 -0.0005 -0.0146381 0 0.0005 -0.0132934
0 -0.0005 -0.0132934 0 0.0005 -0.0120025 0 -0.0005 -0.0120025 0
0.0005 -0.0107632 0 -0.0005 -0.0107632 0 0.0005 -0.00957337 0 -0.0005
-0.00957337 0 0.0005 -0.00843108 0 -0.0005 -0.00843108 0 0.0005 -0.00733443
0 -0.0005 -0.00733443 0 0.0005 -0.0062816 0 -0.0005 -0.0062816 0
0.0005 -0.00527083 0 -0.0005 -0.00527083 0 0.0005 -0.00430044 0 -0.0005
-0.00430044 0 0.0005 -0.00336883 0 -0.0005 -0.00336883 0 0.0005 -0.00247443
0 -0.0005 -0.00247443 0 0.0005 -0.00161577 0 -0.0005 -0.00161577 0
0.0005 -0.000791418 0 -0.0005 -0.000791418 0 0.0005 0 0 -0.0005
0 0 0.0005 0 -0.0254 -0.0005 0 -0.0254 0.0005 0
-0.0242711 0.0005 0 -0.0242711 -0.0005 0 -0.0231422 0.0005 0 -0.0231422
-0.0005 0 -0.0220133 0.0005 0 -0.0220133 -0.0005 0 -0.0208844 0.0005
0 -0.0208844 -0.0005 0 -0.0197556 0.0005 0 -0.0197556 -0.0005 0
-0.0186267 0.0005 0 -0.0186267 -0.0005 0 -0.0174978 0.0005 0 -0.0174978
-0.0005 0 -0.0163689 0.0005 0 -0.0163689 -0.0005 0 -0.01524 0.0005
0 -0.01524 -0.0005 0 -0.0141111 0.0005 0 -0.0141111 -0.0005 0
-0.0129822 0.0005 0 -0.0129822 -0.0005 0 -0.0118533 0.0005 0 -0.0118533
-0.0005 0 -0.0107244 0.0005 0 -0.0107244 -0.0005 0 -0.00959556 0.0005
0 -0.00959556 -0.0005 0 -0.00846667 0.0005 0 -0.00846667 -0.0005 0
-0.00726604 0.0005 0 -0.00726604 -0.0005 0 -0.00618989 0.0005 0 -0.00618989
-0.0005 0 -0.00522531 0.0005 0 -0.00522531 -0.0005 0 -0.00436073 0.0005
0 -0.00436073 -0.0005 0 -0.00358579 0.0005 0 -0.00358579 -0.0005 0
-0.00289118 0.0005 0 -0.00289118 -0.0005 0 -0.0022686 0.0005 0 -0.0022686
-0.0005 0 -0.00171055 0.0005 0 -0.00171055 -0.0005 0 -0.00121037 0.0005
0 -0.00121037 -0.0005 0 -0.000762037 0.0005 0 -0.000762037 -0.0005 0
-0.000360188 0.0005 0 -0.000360188 -0.0005 0.000528387 -0.0254 -0.0005 0.000528387 -0.0254
0.0005 0.00106088 -0.0254 -0.0005 0.00106088 -0.0254 0.0005 0.00159752 -0.0254 -0.0005
0.00159752 -0.0254 0.0005 0.00213833 -0.0254 -0.0005 0.00213833 -0.0254 0.0005 0.00268334
-0.0254 -0.0005 0.00268334 -0.0254 0.0005 0.00323259 -0.0254 -0.0005 0.00323259 -0.0254
0.0005 0.00378611 -0.0254 -0.0005 0.00378611 -0.0254 0.0005 0.00434393 -0.0254 -0.0005
0.00434393 -0.0254 0.0005 0.00490609 -0.0254 -0.0005 0.00490609 -0.0254 0.0005 0.00547262
-0.0254 -0.0005 0.00547262 -0.0254 0.0005 0.00604356 -0.0254 -0.0005 0.00604356 -0.0254
0.0005 0.00661893 -0.0254 -0.0005 0.00661893 -0.0254 0.0005 0.00719878 -0.0254 -0.0005
0.00719878 -0.0254 0.0005 0.00778313 -0.0254 -0.0005 0.00778313 -0.0254 0.0005 0.00837203
-0.0254 -0.0005 0.00837203 -0.0254 0.0005 0.00896551 -0.0254 -0.0005 0.00896551 -0.0254
0.0005 0.0095636 -0.0254 -0.0005 0.0095636 -0.0254 0.0005 0.0101663 -0.0254 -0.0005
0.0101663 -0.0254 0.0005 0.0107738 -0.0254 -0.0005 0.0107738 -0.0254 0.0005 0.0113859
-0.0254 -0.0005 0.0113859 -0.0254 0.0005 0.0120028 -0.0254 -0.0005 0.0120028 -0.0254
0.0005 0.0126245 -0.0254 -0.0005 0.0126245 -0.0254 0.0005 0.0132511 -0.0254 -0.0005
0.0132511 -0.0254 0.0005 0.0138825 -0.0254 -0.0005 0.0138825 -0.0254 0.0005 0.0145188
-0.0254 -0.0005 0.0145188 -0.0254 0.0005 0.0151601 -0.0254 -0.0005 0.0151601 -0.0254
0.0005 0.0158063 -0.0254 -0.0005 0.0158063 -0.0254 0.0005 0.0164576 -0.0254 -0.0005
0.0164576 -0.0254 0.0005 0.0171139 -0.0254 -0.0005 0.0171139 -0.0254 0.0005 0.0177754
-0.0254 -0.0005 0.0177754 -0.0254 0.0005 0.018442 -0.0254 -0.0005 0.018442 -0.0254
0.0005 0.0191137 -0.0254 -0.0005 0.0191137 -0.0254 0.0005 0.0197907 -0.0254 -0.0005
0.0197907 -0.0254 0.0005 0.020473 -0.0254 -0.0005 0.020473 -0.0254 0.0005 0.0211606
-0.0254 -0.0005 0.0211606 -0.0254 0.0005 0.0218535 -0.0254 -0.0005 0.0218535 -0.0254
0.0005 0.0225517 -0.0254 -0.0005 0.0225517 -0.0254 0.0005 0.0232555 -0.0254 -0.0005
0.0232555 -0.0254 0.0005 0.0239647 -0.0254 -0.0005 0.0239647 -0.0254 0.0005 0.0246794
-0.0254 -0.0005 0.0246794 -0.0254 0.0005 0.0253996 -0.0254 -0.0005 0.0253996 -0.0254
0.0005 0.0261255 -0.0254 -0.0005 0.0261255 -0.0254 0.0005 0.026857 -0.0254 -0.0005
0.026857 -0.0254 0.0005 0.0275942 -0.0254 -0.0005 0.0275942 -0.0254 0.0005 0.0283371
-0.0254 -0.0005 0.0283371 -0.0254 0.0005 0.0290858 -0.0254 -0.0005 0.0290858 -0.0254
0.0005 0.0298403 -0.0254 -0.0005 0.0298403 -0.0254 0.0005 0.0306007 -0.0254 -0.0005
0.0306007 -0.0254 0.0005 0.031367 -0.0254 -0.0005 0.031367 -0.0254 0.0005 0.0321393
-0.0254 -0.0005 0.0321393 -0.0254 0.0005 0.0329175 -0.0254 -0.0005 0.0329175 -0.0254
0.0005 0.0337019 -0.0254 -0.0005 0.0337019 -0.0254 0.0005 0.0344923 -0.0254 -0.0005
0.0344923 -0.0254 0.0005 0.0352888 -0.0254 -0.0005 0.0352888 -0.0254 0.0005 0.0360916
-0.0254 -0.0005 0.0360916 -0.0254 0.0005 0.0369006 -0.0254 -0.0005 0.0369006 -0.0254
0.0005 0.0377158 -0.0254 -0.0005 0.0377158 -0.0254 0.0005 0.0385375 -0.0254 -0.0005
0.0385375 -0.0254 0.0005 0.0393655 -0.0254 -0.0005 0.0393655 -0.0254 0.0005 0.0401999
-0.0254 -0.0005 0.0401999 -0.0254 0.0005 0.0410408 -0.0254 -0.0005 0.0410408 -0.0254
0.0005 0.0418883 -0.0254 -0.0005 0.0418883 -0.0254 0.0005 0.0427424 -0.0254 -0.0005
0.0427424 -0.0254 0.0005 0.0436031 -0.0254 -0.0005 0.0436031 -0.0254 0.0005 0.0444704
-0.0254 -0.0005 0.0444704 -0.0254 0.0005 0.0453446 -0.0254 -0.0005 0.0453446 -0.0254
0.0005 0.0462255 -0.0254 -0.0005 0.0462255 -0.0254 0.0005 0.0471133 -0.0254 -0.0005
0.0471133 -0.0254 0.0005 0.048008 -0.0254 -0.0005 0.048008 -0.0254 0.0005 0.0489096
-0.0254 -0.0005 0.0489096 -0.0254 0.0005 0.0498183 -0.0254 -0.0005 0.0498183 -0.0254
0.0005 0.050734 -0.0254 -0.0005 0.050734 -0.0254 0.0005 0.0516568 -0.0254 -0.0005
0.0516568 -0.0254 0.0005 0.0525868 -0.0254 -0.0005 0.0525868 -0.0254 0.0005 0.053524
-0.0254 -0.0005 0.053524 -0.0254 0.0005 0.0544686 -0.0254 -0.0005 0.0544686 -0.0254
0.0005 0.0554204 -0.0254 -0.0005 0.0554204 -0.0254 0.0005 0.0563797 -0.0254 -0.0005
0.0563797 -0.0254 0.0005 0.0573464 -0.0254 -0.0005 0.0573464 -0.0254 0.0005 0.0583206
-0.0254 -0.0005 0.0583206 -0.0254 0.0005 0.0593025 -0.0254 -0.0005 0.0593025 -0.0254
0.0005 0.0602919 -0.0254 -0.0005 0.0602919 -0.0254 0.0005 0.0612891 -0.0254 -0.0005
0.0612891 -0.0254 0.0005 0.0622939 -0.0254 -0.0005 0.0622939 -0.0254 0.0005 0.0633067
-0.0254 -0.0005 0.0633067 -0.0254 0.0005 0.0643272 -0.0254 -0.0005 0.0643272 -0.0254
0.0005 0.0653557 -0.0254 -0.0005 0.0653557 -0.0254 0.0005 0.0663923 -0.0254 -0.0005
0.0663923 -0.0254 0.0005 0.0674368 -0.0254 -0.0005 0.0674368 -0.0254 0.0005 0.0684895
-0.0254 -0.0005 0.0684895 -0.0254 0.0005 0.0695504 -0.0254 -0.0005 0.0695504 -0.0254
0.0005 0.0706195 -0.0254 -0.0005 0.0706195 -0.0254 0.0005 0.0716969 -0.0254 -0.0005
0.0716969 -0.0254 0.0005 0.0727828 -0.0254 -0.0005 0.0727828 -0.0254 0.0005 0.073877
-0.0254 -0.0005 0.073877 -0.0254 0.0005 0.0749798 -0.0254 -0.0005 0.0749798 -0.0254
0.0005 0.0760911 -0.0254 -0.0005 0.0760911 -0.0254 0.0005 0.0772111 -0.0254 -0.0005
0.0772111 -0.0254 0.0005 0.0783398 -0.0254 -0.0005 0.0783398 -0.0254 0.0005 0.0794772
-0.0254 -0.0005 0.0794772 -0.0254 0.0005 0.0806235 -0.0254 -0.0005 0.0806235 -0.0254
0.0005 0.0817787 -0.0254 -0.0005 0.0817787 -0.0254 0.0005 0.0829429 -0.0254 -0.0005
0.0829429 -0.0254 0.0005 0.0841162 -0.0254 -0.0005 0.0841162 -0.0254 0.0005 0.0852985
-0.0254 -0.0005 0.0852985 -0.0254 0.0005 0.0864901 -0.0254 -0.0005 0.0864901 -0.0254
0.0005 0.0876909 -0.0254 -0.0005 0.0876909 -0.0254 0.0005 0.0889011 -0.0254 -0.0005
0.0889011 -0.0254 0.0005 0.0901207 -0.0254 -0.0005 0.0901207 -0.0254 0.0005 0.0913497
-0.0254 -0.0005 0.0913497 -0.0254 0.0005 0.0925883 -0.0254 -0.0005 0.0925883 -0.0254
0.0005 0.0938366 -0.0254 -0.0005 0.0938366 -0.0254 0.0005 0.0950945 -0.0254 -0.0005
0.0950945 -0.0254 0.0005 0.0963622 -0.0254 -0.0005 0.0963622 -0.0254 0.0005 0.0976398
-0.0254 -0.0005 0.0976398 -0.0254 0.0005 0.0989273 -0.0254 -0.0005 0.0989273 -0.0254
0.0005 0.100225 -0.0254 -0.0005 0.100225 -0.0254 0.0005 0.101532 -0.0254 -0.0005
0.101532 -0.0254 0.0005 0.10285 -0.0254 -0.0005 0.10285 -0.0254 0.0005 0.104178
-0.0254 -0.0005 0.104178 -0.0254 0.0005 0.105517 -0.0254 -0.0005 0.105517 -0.0254
0.0005 0.106865 -0.0254 -0.0005 0.106865 -0.0254 0.0005 0.108225 -0.0254 -0.0005
0.108225 -0.0254 0.0005 0.109594 -0.0254 -0.0005 0.109594 -0.0254 0.0005 0.110975
-0.0254 -0.0005 0.110975 -0.0254 0.0005 0.112366 -0.0254 -0.0005 0.112366 -0.0254
0.0005 0.113768 -0.0254 -0.0005 0.113768 -0.0254 0.0005 0.115181 -0.0254 -0.0005
0.115181 -0.0254 0.0005 0.116605 -0.0254 -0.0005 0.116605 -0.0254 0.0005 0.11804
-0.0254 -0.0005 0.11804 -0.0254 0.0005 0.119486 -0.0254 -0.0005 0.119486 -0.0254
0.0005 0.120943 -0.0254 -0.0005 0.120943 -0.0254 0.0005 0.122412 -0.0254 -0.0005
0.122412 -0.0254 0.0005 0.123892 -0.0254 -0.0005 0.123892 -0.0254 0.0005 0.125384
-0.0254 -0.0005 0.125384 -0.0254 0.0005 0.126887 -0.0254 -0.0005 0.126887 -0.0254
0.0005 0.128402 -0.0254 -0.0005 0.128402 -0.0254 0.0005 0.129928 -0.0254 -0.0005
0.129928 -0.0254 0.0005 0.131467 -0.0254 -0.0005 0.131467 -0.0254 0.0005 0.133017
-0.0254 -0.0005 0.133017 -0.0254 0.0005 0.13458 -0.0254 -0.0005 0.13458 -0.0254
0.0005 0.136155 -0.0254 -0.0005 0.136155 -0.0254 0.0005 0.137742 -0.0254 -0.0005
0.137742 -0.0254 0.0005 0.139341 -0.0254 -0.0005 0.139341 -0.0254 0.0005 0.140953
-0.0254 -0.0005 0.140953 -0.0254 0.0005 0.142577 -0.0254 -0.0005 0.142577 -0.0254
0.0005 0.144214 -0.0254 -0.0005 0.144214 -0.0254 0.0005 0.145863 -0.0254 -0.0005
0.145863 -0.0254 0.0005 0.147526 -0.0254 -0.0005 0.147526 -0.0254 0.0005 0.149201
-0.0254 -0.0005 0.149201 -0.0254 0.0005 0.15089 -0.0254 -0.0005 0.15089 -0.0254
0.0005 0.152591 -0.0254 -0.0005 0.152591 -0.0254 0.0005 0.154306 -0.0254 -0.0005
0.154306 -0.0254 0.0005 0.156034 -0.0254 -0.0005 0.156034 -0.0254 0.0005 0.157775
-0.0254 -0.0005 0.157775 -0.0254 0.0005 0.159531 -0.0254 -0.0005 0.159531 -0.0254
0.0005 0.161299 -0.0254 -0.0005 0.161299 -0.0254 0.0005 0.163082 -0.0254 -0.0005
0.163082 -0.0254 0.0005 0.164878 -0.0254 -0.0005 0.164878 -0.0254 0.0005 0.166688
-0.0254 -0.0005 0.166688 -0.0254 0.0005 0.168513 -0.0254 -0.0005 0.168513 -0.0254
0.0005 0.170351 -0.0254 -0.0005 0.170351 -0.0254 0.0005 0.172204 -0.0254 -0.0005
0.172204 -0.0254 0.0005 0.174071 -0.0254 -0.0005 0.174071 -0.0254 0.0005 0.175953
-0.0254 -0.0005 0.175953 -0.0254 0.0005 0.177849 -0.0254 -0.0005 0.177849 -0.0254
0.0005 0.17976 -0.0254 -0.0005 0.17976 -0.0254 0.0005 0.181686 -0.0254 -0.0005
0.181686 -0.0254 0.0005 0.183627 -0.0254 -0.0005 0.183627 -0.0254 0.0005 0.185583
-0.0254 -0.0005 0.185583 -0.0254 0.0005 0.187555 -0.0254 -0.0005 0.187555 -0.0254
0.0005 0.189541 -0.0254 -0.0005 0.189541 -0.0254 0.0005 0.191543 -0.0254 -0.0005
0.191543 -0.0254 0.0005 0.193561 -0.0254 -0.0005 0.193561 -0.0254 0.0005 0.195594
-0.0254 -0.0005 0.195594 -0.0254 0.0005 0.197643 -0.0254 -0.0005 0.197643 -0.0254
0.0005 0.199708 -0.0254 -0.0005 0.199708 -0.0254 0.0005 0.201789 -0.0254 -0.0005
0.201789 -0.0254 0.0005 0.203886 -0.0254 -0.0005 0.203886 -0.0254 0.0005 0.206
-0.0254 -0.0005 0.206 -0.0254 0.0005 0.208047 -0.0251856 -0.0005 0.208047 -0.0251856
0.0005 0.210173 -0.0249628 -0.0005 0.210173 -0.0249628 0.0005 0.212382 -0.0247314 -0.0005
0.212382 -0.0247314 0.0005 0.214677 -0.024491 -0.0005 0.214677 -0.024491 0.0005 0.217061
-0.0242412 -0.0005 0.217061 -0.0242412 0.0005 0.219538 -0.0239817 -0.0005 0.219538 -0.0239817
0.0005 0.222112 -0.0237121 -0.0005 0.222112 -0.0237121 0.0005 0.224785 -0.023432 -0.0005
0.224785 -0.023432 0.0005 0.227563 -0.023141 -0.0005 0.227563 -0.023141 0.0005 0.230449
-0.0228387 -0.0005 0.230449 -0.0228387 0.0005 0.233447 -0.0225246 -0.0005 0.233447 -0.0225246
0.0005 0.236562 -0.0221983 -0.0005 0.236562 -0.0221983 0.0005 0.239797 -0.0218593 -0.0005
0.239797 -0.0218593 0.0005 0.243159 -0.0215071 -0.0005 0.243159 -0.0215071 0.0005 0.246652
-0.0211412 -0.0005 0.246652 -0.0211412 0.0005 0.250281 -0.0207611 -0.0005 0.250281 -0.0207611
0.0005 0.254051 -0.0203661 -0.0005 0.254051 -0.0203661 0.0005 0.257967 -0.0199558 -0.0005
0.257967 -0.0199558 0.0005 0.262036 -0.0195295 -0.0005 0.262036 -0.0195295 0.0005 0.266264
-0.0190867 -0.0005 0.266264 -0.0190867 0.0005 0.270655 -0.0186266 -0.0005 0.270655 -0.0186266
0.0005 0.275218 -0.0181486 -0.0005 0.275218 -0.0181486 0.0005 0.279959 -0.017652 -0.0005
0.279959 -0.017652 0.0005 0.284883 -0.017136 -0.0005 0.284883 -0.017136 0.0005 0.29
-0.0166 -0.0005 0.29 -0.0166 0.0005 
POLYGONS 250 1250
4 0 1 2 3 4 1 4 5 2 4
4 6 7 5 4 6 8 9 7 4
8 10 11 9 4 10 12 13 11 4
12 14 15 13 4 14 16 17 15 4
16 18 19 17 4 18 20 21 19 4
20 22 23 21 4 22 24 25 23 4
24 26 27 25 4 26 28 29 27 4
28 30 31 29 4 30 32 33 31 4
32 34 35 33 4 34 36 37 35 4
38 39 40 41 4 41 40 42 43 4
43 42 44 45 4 45 44 46 47 4
47 46 48 49 4 49 48 50 51 4
51 50 52 53 4 53 52 54 55 4
55 54 56 57 4 57 56 58 59 4
59 58 60 61 4 61 60 62 63 4
63 62 64 65 4 65 64 66 67 4
67 66 68 69 4 69 68 70 71 4
71 70 72 73 4 73 72 74 75 4
75 74 76 77 4 77 76 78 79 4
79 78 80 81 4 81 80 82 83 4
83 82 84 85 4 85 84 86 87 4
87 86 88 89 4 89 88 90 91 4
91 90 37 36 4 38 92 93 39 4
92 94 95 93 4 94 96 97 95 4
96 98 99 97 4 98 100 101 99 4
100 102 103 101 4 102 104 105 103 4
104 106 107 105 4 106 108 109 107 4
108 110 111 109 4 110 112 113 111 4
112 114 115 113 4 114 116 117 115 4
116 118 119 117 4 118 120 121 119 4
120 122 123 121 4 122 124 125 123 4
124 126 127 125 4 126 128 129 127 4
128 130 131 129 4 130 132 133 131 4
132 134 135 133 4 134 136 137 135 4
136 138 139 137 4 138 140 141 139 4
140 142 143 141 4 142 144 145 143 4
144 146 147 145 4 146 148 149 147 4
148 150 151 149 4 150 152 153 151 4
152 154 155 153 4 154 156 157 155 4
156 158 159 157 4 158 160 161 159 4
160 162 163 161 4 162 164 165 163 4
164 166 167 165 4 166 168 169 167 4
168 170 171 169 4 170 172 173 171 4
172 174 175 173 4 174 176 177 175 4
176 178 179 177 4 178 180 181 179 4
180 182 183 181 4 182 184 185 183 4
184 186 187 185 4 186 188 189 187 4
188 190 191 189 4 190 192 193 191 4
192 194 195 193 4 194 196 197 195 4
196 198 199 197 4 198 200 201 199 4
200 202 203 201 4 202 204 205 203 4
204 206 207 205 4 206 208 209 207 4
208 210 211 209 4 210 212 213 211 4
212 214 215 213 4 214 216 217 215 4
216 218 219 217 4 218 220 221 219 4
220 222 223 221 4 222 224 225 223 4
224 226 227 225 4 226 228 229 227 4
228 230 231 229 4 230 232 233 231 4
232 234 235 233 4 234 236 237 235 4
236 238 239 237 4 238 240 241 239 4
240 242 243 241 4 242 244 245 243 4
244 246 247 245 4 246 248 249 247 4
248 250 251 249 4 250 252 253 251 4
252 254 255 253 4 254 256 257 255 4
256 258 259 257 4 258 260 261 259 4
260 262 263 261 4 262 264 265 263 4
264 266 267 265 4 266 268 269 267 4
268 270 271 269 4 270 272 273 271 4
272 274 275 273 4 274 276 277 275 4
276 278 279 277 4 278 280 281 279 4
280 282 283 281 4 282 284 285 283 4
284 286 287 285 4 286 288 289 287 4
288 290 291 289 4 290 292 293 291 4
292 294 295 293 4 294 296 297 295 4
296 298 299 297 4 298 300 301 299 4
300 302 303 301 4 302 304 305 303 4
304 306 307 305 4 306 308 309 307 4
308 310 311 309 4 310 312 313 311 4
312 314 315 313 4 314 316 317 315 4
316 318 319 317 4 318 320 321 319 4
320 322 323 321 4 322 324 325 323 4
324 326 327 325 4 326 328 329 327 4
328 330 331 329 4 330 332 333 331 4
332 334 335 333 4 334 336 337 335 4
336 338 339 337 4 338 340 341 339 4
340 342 343 341 4 342 344 345 343 4
344 346 347 345 4 346 348 349 347 4
348 350 351 349 4 350 352 353 351 4
352 354 355 353 4 354 356 357 355 4
356 358 359 357 4 358 360 361 359 4
360 362 363 361 4 362 364 365 363 4
364 366 367 365 4 366 368 369 367 4
368 370 371 369 4 370 372 373 371 4
372 374 375 373 4 374 376 377 375 4
376 378 379 377 4 378 380 381 379 4
380 382 383 381 4 382 384 385 383 4
384 386 387 385 4 386 388 389 387 4
388 390 391 389 4 390 392 393 391 4
392 394 395 393 4 394 396 397 395 4
396 398 399 397 4 398 400 401 399 4
400 402 403 401 4 402 404 405 403 4
404 406 407 405 4 406 408 409 407 4
408 410 411 409 4 410 412 413 411 4
412 414 415 413 4 414 416 417 415 4
416 418 419 417 4 418 420 421 419 4
420 422 423 421 4 422 424 425 423 4
424 426 427 425 4 426 428 429 427 4
428 430 431 429 4 430 432 433 431 4
432 434 435 433 4 434 436 437 435 4
436 438 439 437 4 438 440 441 439 4
440 442 443 441 4 442 444 445 443 4
444 446 447 445 4 446 448 449 447 4
448 450 451 449 4 450 452 453 451 4
452 454 455 453 4 454 456 457 455 4
456 458 459 457 4 458 460 461 459 4
460 462 463 461 4 462 464 465 463 4
464 466 467 465 4 466 468 469 467 4
468 470 471 469 4 470 472 473 471 4
472 474 475 473 4 474 476 477 475 4
476 478 479 477 4 478 480 481 479 4
480 482 483 481 4 482 484 485 483 4
484 486 487 485 4 486 488 489 487 4
488 490 491 489 4 490 492 493 491 4
492 494 495 493 4 494 496 497 495 4
496 498 499 497 4 498 500 501 499 
POINT_DATA 502
FIELD attributes 1
U 3 502 float
3.16951 0.0618042 0.0335744 1.59248 0.0305139 0.0165455 1.59248 0.0305139 0.0165455 3.16951 0.0618042
0.0335744 0.0592702 0.000125572 0 0.0592702 0.000125572 0 0.057442 0.000185643 0
0.057442 0.000185643 0 0.055637 0.000326419 0 0.055637 0.000326419 0 0.0536409
0.000482941 0 0.0536409 0.000482941 0 0.0514211 0.00052334 0 0.0514211 0.00052334
0 0.0492777 0.000426234 0 0.0492777 0.000426234 0 0.047448 0.000283352 0
0.047448 0.000283352 0 0.0459166 0.000191193 0 0.0459166 0.000191193 0 0.0444759
0.000177027 0 0.0444759 0.000177027 0 0.0430015 0.000198868 0 0.0430015 0.000198868
0 0.0414783 0.000214947 0 0.0414783 0.000214947 0 0.0400174 0.000214633 0
0.0400174 0.000214633 0 0.0386541 0.000226155 0 0.0386541 0.000226155 0 0.0372745
0.000259851 0 0.0372745 0.000259851 0 0.0359873 0.000301052 0 0.0359873 0.000301052
0 0.0343692 0.000392675 0 0.0343692 0.000392675 0 0.0152727 0.000665751 0
0.0152727 0.000665751 0 -0.000180672 0.0004049 9.94276e-23 -0.000180672 0.0004049 9.94276e-23 -8.94212e-05
0.00138663 -2.68747e-22 -8.94212e-05 0.00138663 -2.68747e-22 1.75063e-05 0.00235808 -3.18459e-22 1.75063e-05 0.00235808
-3.18459e-22 -7.17603e-05 0.00251735 6.35973e-22 -7.17603e-05 0.00251735 6.35973e-22 9.17401e-05 0.0021036 2.11749e-22
9.17401e-05 0.0021036 2.11749e-22 0.000711373 -0.00079843 -4.24222e-22 0.000711373 -0.00079843 -4.24222e-22 0.00093481
-0.00491968 0 0.00093481 -0.00491968 0 0.000615986 -0.00776467 -8.4416e-22 0.000615986 -0.00776467
-8.4416e-22 0.000295414 -0.00935524 -2.69158e-25 0.000295414 -0.00935524 -2.69158e-25 6.90557e-05 -0.0101336 8.43891e-22
6.90557e-05 -0.0101336 8.43891e-22 -9.22031e-05 -0.0103353 -8.47067e-22 -9.22031e-05 -0.0103353 -8.47067e-22 -0.000190279
-0.0101696 5.61581e-26 -0.000190279 -0.0101696 5.61581e-26 -0.000201146 -0.0098268 8.47123e-22 -0.000201146 -0.0098268
8.47123e-22 -6.46077e-05 -0.00955702 8.57278e-22 -6.46077e-05 -0.00955702 8.57278e-22 0.00019842 -0.00974802 8.01276e-26
0.00019842 -0.00974802 8.01276e-26 0.000348376 -0.0105723 -8.72391e-22 0.000348376 -0.0105723 -8.72391e-22 0.000102974
-0.0111169 0 0.000102974 -0.0111169 0 -0.000322487 -0.0100524 0 -0.000322487 -0.0100524
0 -0.000475453 -0.00822803 0 -0.000475453 -0.00822803 0 -0.000417084 -0.00678516 0
-0.000417084 -0.00678516 0 -0.000408454 -0.00553817 0 -0.000408454 -0.00553817 0 -0.000411888
-0.00443206 0 -0.000411888 -0.00443206 0 -0.000425786 -0.00351164 0 -0.000425786 -0.00351164
0 -0.000564886 -0.00253411 0 -0.000564886 -0.00253411 0 -0.000853354 -0.00179479 0
-0.000853354 -0.00179479 0 -0.00094937 -0.000158303 0 -0.00094937 -0.000158303 0 -0.000330602
0.00103932 0 -0.000330602 0.00103932 0 -0.000376862 0.000342927 4.5249e-25 -0.000376862 0.000342927
4.5249e-25 -0.000710666 0.000212857 -4.9388e-23 -0.000710666 0.000212857 -4.9388e-23 -0.000898417 5.392e-05 0
-0.000898417 5.392e-05 0 -0.000904594 -0.000131605 0 -0.000904594 -0.000131605 0 -0.000774933
-0.000294836 4.79713e-23 -0.000774933 -0.000294836 4.79713e-23 -0.000583202 -0.000422928 4.80575e-23 -0.000583202 -0.000422928
4.80575e-23 -0.000392544 -0.000529554 0 -0.000392544 -0.000529554 0 -0.000274528 -0.000569589 0
-0.000274528 -0.000569589 0 -0.000285003 -0.00045068 0 -0.000285003 -0.00045068 0 -0.000296624
-0.000265935 -4.63373e-23 -0.000296624 -0.000265935 -4.63373e-23 -9.17555e-05 -0.00015808 -4.64256e-23 -9.17555e-05 -0.00015808
-4.64256e-23 0.000229969 0.000123994 0 0.000229969 0.000123994 0 0.000283393 0.000256762 0
0.000283393 0.000256762 0 0.000233013 -4.85379e-05 0 0.000233013 -4.85379e-05 0 0.000409151
-0.000314529 -4.45495e-23 0.000409151 -0.000314529 -4.45495e-23 0.000664454 -0.000413228 -4.46394e-23 0.000664454 -0.000413228
-4.46394e-23 0.000844275 -0.000461723 0 0.000844275 -0.000461723 0 0.000885304 -0.000503673 0
0.000885304 -0.000503673 0 0.000807754 -0.000406144 0 0.000807754 -0.000406144 0 0.000646881
7.81781e-06 0 0.000646881 7.81781e-06 0 0.000376564 0.000448469 0 0.000376564 0.000448469
0 6.11172e-05 0.000374826 0 6.11172e-05 0.000374826 0 -0.000141221 4.62266e-05 -4.15996e-23
-0.000141221 4.62266e-05 -4.15996e-23 -0.000303442 -2.17989e-05 -4.91181e-25 -0.000303442 -2.17989e-05 -4.91181e-25 -0.000535938
5.8483e-05 5.01161e-25 -0.000535938 5.8483e-05 5.01161e-25 -0.000815364 0.000148535 -8.12612e-23 -0.000815364 0.000148535
-8.12612e-23 -0.00114968 0.000248463 -4.047e-23 -0.00114968 0.000248463 -4.047e-23 -0.0015437 0.000307764 0
-0.0015437 0.000307764 0 -0.0019805 0.000344442 3.91074e-23 -0.0019805 0.000344442 3.91074e-23 -0.00246478
0.000393793 7.78708e-23 -0.00246478 0.000393793 7.78708e-23 -0.00300725 0.000455306 3.87634e-23 -0.00300725 0.000455306
3.87634e-23 -0.00361111 0.000529446 0 -0.00361111 0.000529446 0 -0.00427604 0.000607805 3.73184e-23
-0.00427604 0.000607805 3.73184e-23 -0.0049904 0.000674303 3.74104e-23 -0.0049904 0.000674303 3.74104e-23 -0.00573188
0.000713849 0 -0.00573188 0.000713849 0 -0.00647402 0.000717103 -3.58924e-23 -0.00647402 0.000717103
-3.58924e-23 -0.0071923 0.00068642 -3.59837e-23 -0.0071923 0.00068642 -3.59837e-23 -0.00786995 0.000631397 -3.49165e-23
-0.00786995 0.000631397 -3.49165e-23 -0.00849981 0.000565247 -1.03865e-22 -0.00849981 0.000565247 -1.03865e-22 -0.00908401
0.000500186 -6.90385e-23 -0.00908401 0.000500186 -6.90385e-23 -0.0096309 0.000444388 0 -0.0096309 0.000444388
0 -0.010152 0.000402694 0 -0.010152 0.000402694 0 -0.0106593 0.000376836 0
-0.0106593 0.000376836 0 -0.0111627 0.000366048 0 -0.0111627 0.000366048 0 -0.0116682
0.000367262 -6.33493e-23 -0.0116682 0.000367262 -6.33493e-23 -0.0121765 0.000375212 -1.2607e-22 -0.0121765 0.000375212
-1.2607e-22 -0.0126805 0.000382228 -1.24512e-22 -0.0126805 0.000382228 -1.24512e-22 -0.0131646 0.000378323 -6.19673e-23
-0.0131646 0.000378323 -6.19673e-23 -0.0136051 0.000353335 6.0476e-23 -0.0136051 0.000353335 6.0476e-23 -0.0139742
0.000300595 6.06512e-23 -0.0139742 0.000300595 6.06512e-23 -0.0142448 0.000220795 -5.9464e-23 -0.0142448 0.000220795
-5.9464e-23 -0.0143945 0.000123515 -1.18727e-22 -0.0143945 0.000123515 -1.18727e-22 -0.0144098 2.29165e-05 -5.92631e-23
-0.0144098 2.29165e-05 -5.92631e-23 -0.0142997 -6.91716e-05 0 -0.0142997 -6.91716e-05 0 -0.0140788
-0.000146899 0 -0.0140788 -0.000146899 0 -0.0137568 -0.000208688 -5.83712e-23 -0.0137568 -0.000208688
-5.83712e-23 -0.0133467 -0.0002562 -5.8552e-23 -0.0133467 -0.0002562 -5.8552e-23 -0.0128584 -0.00029404 0
-0.0128584 -0.00029404 0 -0.012301 -0.000327505 0 -0.012301 -0.000327505 0 -0.011681
-0.000360555 0 -0.011681 -0.000360555 0 -0.0110019 -0.000393989 0 -0.0110019 -0.000393989
0 -0.0102666 -0.000425824 0 -0.0102666 -0.000425824 0 -0.00948075 -0.000453706 0
-0.00948075 -0.000453706 0 -0.00865045 -0.00047811 0 -0.00865045 -0.00047811 0 -0.00777532
-0.000504603 5.87984e-23 -0.00777532 -0.000504603 5.87984e-23 -0.00684106 -0.000543679 5.8996e-23 -0.00684106 -0.000543679
5.8996e-23 -0.00581907 -0.00060606 0 -0.00581907 -0.00060606 0 -0.00467287 -0.000695489 -5.87713e-23
-0.00467287 -0.000695489 -5.87713e-23 -0.003365 -0.000809672 -1.17661e-22 -0.003365 -0.000809672 -1.17661e-22 -0.00186576
-0.000952344 -5.88909e-23 -0.00186576 -0.000952344 -5.88909e-23 -0.000125609 -0.00113166 5.81096e-23 -0.000125609 -0.00113166
5.81096e-23 0.00183925 -0.00126742 9.15991e-25 0.00183925 -0.00126742 9.15991e-25 0.00388968 -0.00114867 -5.76041e-23
0.00388968 -0.00114867 -5.76041e-23 0.00566533 -0.000847719 5.56067e-23 0.00566533 -0.000847719 5.56067e-23 0.00701491
-0.000612122 5.58084e-23 0.00701491 -0.000612122 5.58084e-23 0.00799221 -0.000184465 0 0.00799221 -0.000184465
0 0.00818395 0.000305398 -5.35282e-23 0.00818395 0.000305398 -5.35282e-23 0.00767582 0.00090352 -5.37273e-23
0.00767582 0.00090352 -5.37273e-23 0.00587418 0.00171829 5.31829e-23 0.00587418 0.00171829 5.31829e-23 0.00284416
0.00130622 5.33838e-23 0.00284416 0.00130622 5.33838e-23 0.000579987 0.000249712 -5.23814e-23 0.000579987 0.000249712
-5.23814e-23 -0.000553487 4.0209e-05 -1.04404e-22 -0.000553487 4.0209e-05 -1.04404e-22 -0.000868224 -0.000138971 -1.03379e-22
-0.000868224 -0.000138971 -1.03379e-22 -0.000252948 -0.000538516 -1.53607e-22 -0.000252948 -0.000538516 -1.53607e-22 0.000850516
-0.000608331 -1.32553e-24 0.000850516 -0.000608331 -1.32553e-24 0.00181635 -0.000372018 1.01525e-22 0.00181635 -0.000372018
1.01525e-22 0.00232951 -0.000136092 0 0.00232951 -0.000136092 0 0.00245828 -5.49758e-05 0
0.00245828 -5.49758e-05 0 0.00243252 -9.59705e-05 9.72379e-23 0.00243252 -9.59705e-05 9.72379e-23 0.00243208
-0.000159124 1.93928e-22 0.00243208 -0.000159124 1.93928e-22 0.00250578 -0.000191896 1.37203e-24 0.00250578 -0.000191896
1.37203e-24 0.00265985 -0.000196982 -9.57112e-23 0.00265985 -0.000196982 -9.57112e-23 0.00291274 -0.000202543 9.31611e-23
0.00291274 -0.000202543 9.31611e-23 0.00330933 -0.000234567 1.85515e-22 0.00330933 -0.000234567 1.85515e-22 0.00386673
-0.000294341 1.82994e-22 0.00386673 -0.000294341 1.82994e-22 0.00457327 -0.000361218 9.10291e-23 0.00457327 -0.000361218
9.10291e-23 0.00539096 -0.000405753 0 0.00539096 -0.000405753 0 0.00623719 -0.00040607 0
0.00623719 -0.00040607 0 0.00700095 -0.000330893 8.40524e-23 0.00700095 -0.000330893 8.40524e-23 0.00757013
-0.000120892 8.44204e-23 0.00757013 -0.000120892 8.44204e-23 0.0077627 0.000191662 0 0.0077627 0.000191662
0 0.00745469 0.000377727 -7.96174e-23 0.00745469 0.000377727 -7.96174e-23 0.00678655 0.000255782 -7.9973e-23
0.00678655 0.000255782 -7.9973e-23 0.00597505 -1.90817e-05 0 0.00597505 -1.90817e-05 0 0.004653
-0.000125492 -7.75048e-23 0.004653 -0.000125492 -7.75048e-23 0.00195578 0.000637006 -7.78578e-23 0.00195578 0.000637006
-7.78578e-23 -0.00353656 0.00252341 0 -0.00353656 0.00252341 0 -0.0112421 0.00352648 7.36103e-23
-0.0112421 0.00352648 7.36103e-23 -0.0174276 0.00267077 1.4301e-22 -0.0174276 0.00267077 1.4301e-22 -0.0210253
0.0016373 6.93806e-23 -0.0210253 0.0016373 6.93806e-23 -0.023497 0.00109217 -6.12499e-23 -0.023497 0.00109217
-6.12499e-23 -0.0252144 0.000707041 -6.15395e-23 -0.0252144 0.000707041 -6.15395e-23 -0.0263471 0.000445476 5.57735e-23
-0.0263471 0.000445476 5.57735e-23 -0.02709 0.000271751 5.60404e-23 -0.02709 0.000271751 5.60404e-23 -0.0275123
0.000137981 5.24227e-23 -0.0275123 0.000137981 5.24227e-23 -0.0276839 3.14315e-05 1.04125e-22 -0.0276839 3.14315e-05
1.04125e-22 -0.0276372 -6.65962e-05 5.16993e-23 -0.0276372 -6.65962e-05 5.16993e-23 -0.0273676 -0.000163659 0
-0.0273676 -0.000163659 0 -0.0268598 -0.000259839 0 -0.0268598 -0.000259839 0 -0.0261076
-0.00035341 0 -0.0261076 -0.00035341 0 -0.0251133 -0.00044102 0 -0.0251133 -0.00044102
0 -0.0238898 -0.00052015 0 -0.0238898 -0.00052015 0 -0.0224545 -0.000588329 0
-0.0224545 -0.000588329 0 -0.0208383 -0.000642852 5.8084e-23 -0.0208383 -0.000642852 5.8084e-23 -0.0190824
-0.00068095 -1.34385e-24 -0.0190824 -0.00068095 -1.34385e-24 -0.0172334 -0.00070253 -6.00293e-23 -0.0172334 -0.00070253
-6.00293e-23 -0.0153276 -0.000712268 0 -0.0153276 -0.000712268 0 -0.0133857 -0.000715604 0
-0.0133857 -0.000715604 0 -0.0114185 -0.000716097 0 -0.0114185 -0.000716097 0 -0.00943423
-0.000713596 -1.29987e-22 -0.00943423 -0.000713596 -1.29987e-22 -0.00744395 -0.00070488 -1.3067e-22 -0.00744395 -0.00070488
-1.3067e-22 -0.00546633 -0.000685525 1.30857e-22 -0.00546633 -0.000685525 1.30857e-22 -0.00352998 -0.000652737 9.91285e-25
-0.00352998 -0.000652737 9.91285e-25 -0.00166565 -0.000608889 -1.31256e-22 -0.00166565 -0.000608889 -1.31256e-22 9.56887e-05
-0.000571435 0 9.56887e-05 -0.000571435 0 0.00173755 -0.000536303 0 0.00173755 -0.000536303
0 0.00326923 -0.000493886 1.25096e-22 0.00326923 -0.000493886 1.25096e-22 0.00469809 -0.000453331 2.48863e-22
0.00469809 -0.000453331 2.48863e-22 0.00602424 -0.00041369 1.23758e-22 0.00602424 -0.00041369 1.23758e-22 0.00725027
-0.000373494 1.18736e-22 0.00725027 -0.000373494 1.18736e-22 0.00837548 -0.000331312 2.35854e-22 0.00837548 -0.000331312
2.35854e-22 0.00939526 -0.000286492 2.93935e-24 0.00939526 -0.000286492 2.93935e-24 0.0103027 -0.000239113 -1.14803e-22
0.0103027 -0.000239113 -1.14803e-22 0.011088 -0.000190354 0 0.011088 -0.000190354 0 0.0117433
-0.000143048 -1.0745e-22 0.0117433 -0.000143048 -1.0745e-22 0.0122661 -9.58204e-05 -1.08055e-22 0.0122661 -9.58204e-05
-1.08055e-22 0.0126504 -4.68538e-05 0 0.0126504 -4.68538e-05 0 0.0128999 -4.83854e-06 0
0.0128999 -4.83854e-06 0 0.0130307 2.92855e-05 0 0.0130307 2.92855e-05 0 0.0130406
7.4517e-05 9.79689e-23 0.0130406 7.4517e-05 9.79689e-23 0.0129053 0.00013796 1.94902e-22 0.0129053 0.00013796
1.94902e-22 0.0126088 0.000190256 9.69259e-23 0.0126088 0.000190256 9.69259e-23 0.012184 0.000207864 9.3402e-23
0.012184 0.000207864 9.3402e-23 0.011672 0.000235375 9.39454e-23 0.011672 0.000235375 9.39454e-23 0.0110049
0.000333673 0 0.0110049 0.000333673 0 0.0100496 0.000456118 8.92918e-23 0.0100496 0.000456118
8.92918e-23 0.00883886 0.000478471 8.98174e-23 0.00883886 0.000478471 8.98174e-23 0.00762498 0.000361949 8.63408e-23
0.00762498 0.000361949 8.63408e-23 0.00665714 0.000181861 8.68528e-23 0.00665714 0.000181861 8.68528e-23 0.0060178
2.0452e-05 0 0.0060178 2.0452e-05 0 0.00565248 -8.22498e-05 8.2257e-23 0.00565248 -8.22498e-05
8.2257e-23 0.00545434 -0.000117142 8.27501e-23 0.00545434 -0.000117142 8.27501e-23 0.00532803 -9.49463e-05 7.96629e-23