# vtk DataFile Version 2.0
sampleSurface
ASCII
DATASET POLYDATA
POINTS 502 float
-0.0206 0 -0.0005 -0.0190172 0 -0.0005 -0.0190172 0 0.0005 -0.0206 0
0.0005 -0.0174976 0 -0.0005 -0.0174976 0 0.0005 -0.0160387 0 -0.0005
-0.0160387 0 0.0005 -0.0146381 0 -0.0005 -0.0146381 0 0.0005 -0.0132934
0 -0.0005 -0.0132934 0 0.0005 -0.0120025 0 -0.0005 -0.0120025 0
0.0005 -0.0107632 0 -0.0005 -0.0107632 0 0.0005 -0.00957337 0 -0.0005
-0.00957337 0 0.0005 -0.00843108 0 -0.0005 -0.00843108 0 0.0005 -0.00733443
0 -0.0005 -0.00733443 0 0.0005 -0.0062816 0 -0.0005 -0.0062816 0
0.0005 -0.00527083 0 -0.0005 -0.00527083 0 0.0005 -0.00430044 0 -0.0005
-0.00430044 0 0.0005 -0.00336883 0 -0.0005 -0.00336883 0 0.0005 -0.00247443
0 -0.0005 -0.00247443 0 0.0005 -0.00161577 0 -0.0005 -0.00161577 0
0.0005 -0.000791418 0 -0.0005 -0.000791418 0 0.0005 0 0 -0.0005
0 0 0.0005 0 -0.0254 -0.0005 0 -0.0254 0.0005 0
-0.0242711 0.0005 0 -0.0242711 -0.0005 0 -0.0231422 0.0005 0 -0.0231422
-0.0005 0 -0.0220133 0.0005 0 -0.0220133 -0.0005 0 -0.0208844 0.0005
0 -0.0208844 -0.0005 0 -0.0197556 0.0005 0 -0.0197556 -0.0005 0
-0.0186267 0.0005 0 -0.0186267 -0.0005 0 -0.0174978 0.0005 0 -0.0174978
-0.0005 0 -0.0163689 0.0005 0 -0.0163689 -0.0005 0 -0.01524 0.0005
0 -0.01524 -0.0005 0 -0.0141111 0.0005 0 -0.0141111 -0.0005 0
-0.0129822 0.0005 0 -0.0129822 -0.0005 0 -0.0118533 0.0005 0 -0.0118533
-0.0005 0 -0.0107244 0.0005 0 -0.0107244 -0.0005 0 -0.00959556 0.0005
0 -0.00959556 -0.0005 0 -0.00846667 0.0005 0 -0.00846667 -0.0005 0
-0.00726604 0.0005 0 -0.00726604 -0.0005 0 -0.00618989 0.0005 0 -0.00618989
-0.0005 0 -0.00522531 0.0005 0 -0.00522531 -0.0005 0 -0.00436073 0.0005
0 -0.00436073 -0.0005 0 -0.00358579 0.0005 0 -0.00358579 -0.0005 0
-0.00289118 0.0005 0 -0.00289118 -0.0005 0 -0.0022686 0.0005 0 -0.0022686
-0.0005 0 -0.00171055 0.0005 0 -0.00171055 -0.0005 0 -0.00121037 0.0005
0 -0.00121037 -0.0005 0 -0.000762037 0.0005 0 -0.000762037 -0.0005 0
-0.000360188 0.0005 0 -0.000360188 -0.0005 0.000528387 -0.0254 -0.0005 0.000528387 -0.0254
0.0005 0.00106088 -0.0254 -0.0005 0.00106088 -0.0254 0.0005 0.00159752 -0.0254 -0.0005
0.00159752 -0.0254 0.0005 0.00213833 -0.0254 -0.0005 0.00213833 -0.0254 0.0005 0.00268334
-0.0254 -0.0005 0.00268334 -0.0254 0.0005 0.00323259 -0.0254 -0.0005 0.00323259 -0.0254
0.0005 0.00378611 -0.0254 -0.0005 0.00378611 -0.0254 0.0005 0.00434393 -0.0254 -0.0005
0.00434393 -0.0254 0.0005 0.00490609 -0.0254 -0.0005 0.00490609 -0.0254 0.0005 0.00547262
-0.0254 -0.0005 0.00547262 -0.0254 0.0005 0.00604356 -0.0254 -0.0005 0.00604356 -0.0254
0.0005 0.00661893 -0.0254 -0.0005 0.00661893 -0.0254 0.0005 0.00719878 -0.0254 -0.0005
0.00719878 -0.0254 0.0005 0.00778313 -0.0254 -0.0005 0.00778313 -0.0254 0.0005 0.00837203
-0.0254 -0.0005 0.00837203 -0.0254 0.0005 0.00896551 -0.0254 -0.0005 0.00896551 -0.0254
0.0005 0.0095636 -0.0254 -0.0005 0.0095636 -0.0254 0.0005 0.0101663 -0.0254 -0.0005
0.0101663 -0.0254 0.0005 0.0107738 -0.0254 -0.0005 0.0107738 -0.0254 0.0005 0.0113859
-0.0254 -0.0005 0.0113859 -0.0254 0.0005 0.0120028 -0.0254 -0.0005 0.0120028 -0.0254
0.0005 0.0126245 -0.0254 -0.0005 0.0126245 -0.0254 0.0005 0.0132511 -0.0254 -0.0005
0.0132511 -0.0254 0.0005 0.0138825 -0.0254 -0.0005 0.0138825 -0.0254 0.0005 0.0145188
-0.0254 -0.0005 0.0145188 -0.0254 0.0005 0.0151601 -0.0254 -0.0005 0.0151601 -0.0254
0.0005 0.0158063 -0.0254 -0.0005 0.0158063 -0.0254 0.0005 0.0164576 -0.0254 -0.0005
0.0164576 -0.0254 0.0005 0.0171139 -0.0254 -0.0005 0.0171139 -0.0254 0.0005 0.0177754
-0.0254 -0.0005 0.0177754 -0.0254 0.0005 0.018442 -0.0254 -0.0005 0.018442 -0.0254
0.0005 0.0191137 -0.0254 -0.0005 0.0191137 -0.0254 0.0005 0.0197907 -0.0254 -0.0005
0.0197907 -0.0254 0.0005 0.020473 -0.0254 -0.0005 0.020473 -0.0254 0.0005 0.0211606
-0.0254 -0.0005 0.0211606 -0.0254 0.0005 0.0218535 -0.0254 -0.0005 0.0218535 -0.0254
0.0005 0.0225517 -0.0254 -0.0005 0.0225517 -0.0254 0.0005 0.0232555 -0.0254 -0.0005
0.0232555 -0.0254 0.0005 0.0239647 -0.0254 -0.0005 0.0239647 -0.0254 0.0005 0.0246794
-0.0254 -0.0005 0.0246794 -0.0254 0.0005 0.0253996 -0.0254 -0.0005 0.0253996 -0.0254
0.0005 0.0261255 -0.0254 -0.0005 0.0261255 -0.0254 0.0005 0.026857 -0.0254 -0.0005
0.026857 -0.0254 0.0005 0.0275942 -0.0254 -0.0005 0.0275942 -0.0254 0.0005 0.0283371
-0.0254 -0.0005 0.0283371 -0.0254 0.0005 0.0290858 -0.0254 -0.0005 0.0290858 -0.0254
0.0005 0.0298403 -0.0254 -0.0005 0.0298403 -0.0254 0.0005 0.0306007 -0.0254 -0.0005
0.0306007 -0.0254 0.0005 0.031367 -0.0254 -0.0005 0.031367 -0.0254 0.0005 0.0321393
-0.0254 -0.0005 0.0321393 -0.0254 0.0005 0.0329175 -0.0254 -0.0005 0.0329175 -0.0254
0.0005 0.0337019 -0.0254 -0.0005 0.0337019 -0.0254 0.0005 0.0344923 -0.0254 -0.0005
0.0344923 -0.0254 0.0005 0.0352888 -0.0254 -0.0005 0.0352888 -0.0254 0.0005 0.0360916
-0.0254 -0.0005 0.0360916 -0.0254 0.0005 0.0369006 -0.0254 -0.0005 0.0369006 -0.0254
0.0005 0.0377158 -0.0254 -0.0005 0.0377158 -0.0254 0.0005 0.0385375 -0.0254 -0.0005
0.0385375 -0.0254 0.0005 0.0393655 -0.0254 -0.0005 0.0393655 -0.0254 0.0005 0.0401999
-0.0254 -0.0005 0.0401999 -0.0254 0.0005 0.0410408 -0.0254 -0.0005 0.0410408 -0.0254
0.0005 0.0418883 -0.0254 -0.0005 0.0418883 -0.0254 0.0005 0.0427424 -0.0254 -0.0005
0.0427424 -0.0254 0.0005 0.0436031 -0.0254 -0.0005 0.0436031 -0.0254 0.0005 0.0444704
-0.0254 -0.0005 0.0444704 -0.0254 0.0005 0.0453446 -0.0254 -0.0005 0.0453446 -0.0254
0.0005 0.0462255 -0.0254 -0.0005 0.0462255 -0.0254 0.0005 0.0471133 -0.0254 -0.0005
0.0471133 -0.0254 0.0005 0.048008 -0.0254 -0.0005 0.048008 -0.0254 0.0005 0.0489096
-0.0254 -0.0005 0.0489096 -0.0254 0.0005 0.0498183 -0.0254 -0.0005 0.0498183 -0.0254
0.0005 0.050734 -0.0254 -0.0005 0.050734 -0.0254 0.0005 0.0516568 -0.0254 -0.0005
0.0516568 -0.0254 0.0005 0.0525868 -0.0254 -0.0005 0.0525868 -0.0254 0.0005 0.053524
-0.0254 -0.0005 0.053524 -0.0254 0.0005 0.0544686 -0.0254 -0.0005 0.0544686 -0.0254
0.0005 0.0554204 -0.0254 -0.0005 0.0554204 -0.0254 0.0005 0.0563797 -0.0254 -0.0005
0.0563797 -0.0254 0.0005 0.0573464 -0.0254 -0.0005 0.0573464 -0.0254 0.0005 0.0583206
-0.0254 -0.0005 0.0583206 -0.0254 0.0005 0.0593025 -0.0254 -0.0005 0.0593025 -0.0254
0.0005 0.0602919 -0.0254 -0.0005 0.0602919 -0.0254 0.0005 0.0612891 -0.0254 -0.0005
0.0612891 -0.0254 0.0005 0.0622939 -0.0254 -0.0005 0.0622939 -0.0254 0.0005 0.0633067
-0.0254 -0.0005 0.0633067 -0.0254 0.0005 0.0643272 -0.0254 -0.0005 0.0643272 -0.0254
0.0005 0.0653557 -0.0254 -0.0005 0.0653557 -0.0254 0.0005 0.0663923 -0.0254 -0.0005
0.0663923 -0.0254 0.0005 0.0674368 -0.0254 -0.0005 0.0674368 -0.0254 0.0005 0.0684895
-0.0254 -0.0005 0.0684895 -0.0254 0.0005 0.0695504 -0.0254 -0.0005 0.0695504 -0.0254
0.0005 0.0706195 -0.0254 -0.0005 0.0706195 -0.0254 0.0005 0.0716969 -0.0254 -0.0005
0.0716969 -0.0254 0.0005 0.0727828 -0.0254 -0.0005 0.0727828 -0.0254 0.0005 0.073877
-0.0254 -0.0005 0.073877 -0.0254 0.0005 0.0749798 -0.0254 -0.0005 0.0749798 -0.0254
0.0005 0.0760911 -0.0254 -0.0005 0.0760911 -0.0254 0.0005 0.0772111 -0.0254 -0.0005
0.0772111 -0.0254 0.0005 0.0783398 -0.0254 -0.0005 0.0783398 -0.0254 0.0005 0.0794772
-0.0254 -0.0005 0.0794772 -0.0254 0.0005 0.0806235 -0.0254 -0.0005 0.0806235 -0.0254
0.0005 0.0817787 -0.0254 -0.0005 0.0817787 -0.0254 0.0005 0.0829429 -0.0254 -0.0005
0.0829429 -0.0254 0.0005 0.0841162 -0.0254 -0.0005 0.0841162 -0.0254 0.0005 0.0852985
-0.0254 -0.0005 0.0852985 -0.0254 0.0005 0.0864901 -0.0254 -0.0005 0.0864901 -0.0254
0.0005 0.0876909 -0.0254 -0.0005 0.0876909 -0.0254 0.0005 0.0889011 -0.0254 -0.0005
0.0889011 -0.0254 0.0005 0.0901207 -0.0254 -0.0005 0.0901207 -0.0254 0.0005 0.0913497
-0.0254 -0.0005 0.0913497 -0.0254 0.0005 0.0925883 -0.0254 -0.0005 0.0925883 -0.0254
0.0005 0.0938366 -0.0254 -0.0005 0.0938366 -0.0254 0.0005 0.0950945 -0.0254 -0.0005
0.0950945 -0.0254 0.0005 0.0963622 -0.0254 -0.0005 0.0963622 -0.0254 0.0005 0.0976398
-0.0254 -0.0005 0.0976398 -0.0254 0.0005 0.0989273 -0.0254 -0.0005 0.0989273 -0.0254
0.0005 0.100225 -0.0254 -0.0005 0.100225 -0.0254 0.0005 0.101532 -0.0254 -0.0005
0.101532 -0.0254 0.0005 0.10285 -0.0254 -0.0005 0.10285 -0.0254 0.0005 0.104178
-0.0254 -0.0005 0.104178 -0.0254 0.0005 0.105517 -0.0254 -0.0005 0.105517 -0.0254
0.0005 0.106865 -0.0254 -0.0005 0.106865 -0.0254 0.0005 0.108225 -0.0254 -0.0005
0.108225 -0.0254 0.0005 0.109594 -0.0254 -0.0005 0.109594 -0.0254 0.0005 0.110975
-0.0254 -0.0005 0.110975 -0.0254 0.0005 0.112366 -0.0254 -0.0005 0.112366 -0.0254
0.0005 0.113768 -0.0254 -0.0005 0.113768 -0.0254 0.0005 0.115181 -0.0254 -0.0005
0.115181 -0.0254 0.0005 0.116605 -0.0254 -0.0005 0.116605 -0.0254 0.0005 0.11804
-0.0254 -0.0005 0.11804 -0.0254 0.0005 0.119486 -0.0254 -0.0005 0.119486 -0.0254
0.0005 0.120943 -0.0254 -0.0005 0.120943 -0.0254 0.0005 0.122412 -0.0254 -0.0005
0.122412 -0.0254 0.0005 0.123892 -0.0254 -0.0005 0.123892 -0.0254 0.0005 0.125384
-0.0254 -0.0005 0.125384 -0.0254 0.0005 0.126887 -0.0254 -0.0005 0.126887 -0.0254
0.0005 0.128402 -0.0254 -0.0005 0.128402 -0.0254 0.0005 0.129928 -0.0254 -0.0005
0.129928 -0.0254 0.0005 0.131467 -0.0254 -0.0005 0.131467 -0.0254 0.0005 0.133017
-0.0254 -0.0005 0.133017 -0.0254 0.0005 0.13458 -0.0254 -0.0005 0.13458 -0.0254
0.0005 0.136155 -0.0254 -0.0005 0.136155 -0.0254 0.0005 0.137742 -0.0254 -0.0005
0.137742 -0.0254 0.0005 0.139341 -0.0254 -0.0005 0.139341 -0.0254 0.0005 0.140953
-0.0254 -0.0005 0.140953 -0.0254 0.0005 0.142577 -0.0254 -0.0005 0.142577 -0.0254
0.0005 0.144214 -0.0254 -0.0005 0.144214 -0.0254 0.0005 0.145863 -0.0254 -0.0005
0.145863 -0.0254 0.0005 0.147526 -0.0254 -0.0005 0.147526 -0.0254 0.0005 0.149201
-0.0254 -0.0005 0.149201 -0.0254 0.0005 0.15089 -0.0254 -0.0005 0.15089 -0.0254
0.0005 0.152591 -0.0254 -0.0005 0.152591 -0.0254 0.0005 0.154306 -0.0254 -0.0005
0.154306 -0.0254 0.0005 0.156034 -0.0254 -0.0005 0.156034 -0.0254 0.0005 0.157775
-0.0254 -0.0005 0.157775 -0.0254 0.0005 0.159531 -0.0254 -0.0005 0.159531 -0.0254
0.0005 0.161299 -0.0254 -0.0005 0.161299 -0.0254 0.0005 0.163082 -0.0254 -0.0005
0.163082 -0.0254 0.0005 0.164878 -0.0254 -0.0005 0.164878 -0.0254 0.0005 0.166688
-0.0254 -0.0005 0.166688 -0.0254 0.0005 0.168513 -0.0254 -0.0005 0.168513 -0.0254
0.0005 0.170351 -0.0254 -0.0005 0.170351 -0.0254 0.0005 0.172204 -0.0254 -0.0005
0.172204 -0.0254 0.0005 0.174071 -0.0254 -0.0005 0.174071 -0.0254 0.0005 0.175953
-0.0254 -0.0005 0.175953 -0.0254 0.0005 0.177849 -0.0254 -0.0005 0.177849 -0.0254
0.0005 0.17976 -0.0254 -0.0005 0.17976 -0.0254 0.0005 0.181686 -0.0254 -0.0005
0.181686 -0.0254 0.0005 0.183627 -0.0254 -0.0005 0.183627 -0.0254 0.0005 0.185583
-0.0254 -0.0005 0.185583 -0.0254 0.0005 0.187555 -0.0254 -0.0005 0.187555 -0.0254
0.0005 0.189541 -0.0254 -0.0005 0.189541 -0.0254 0.0005 0.191543 -0.0254 -0.0005
0.191543 -0.0254 0.0005 0.193561 -0.0254 -0.0005 0.193561 -0.0254 0.0005 0.195594
-0.0254 -0.0005 0.195594 -0.0254 0.0005 0.197643 -0.0254 -0.0005 0.197643 -0.0254
0.0005 0.199708 -0.0254 -0.0005 0.199708 -0.0254 0.0005 0.201789 -0.0254 -0.0005
0.201789 -0.0254 0.0005 0.203886 -0.0254 -0.0005 0.203886 -0.0254 0.0005 0.206
-0.0254 -0.0005 0.206 -0.0254 0.0005 0.208047 -0.0251856 -0.0005 0.208047 -0.0251856
0.0005 0.210173 -0.0249628 -0.0005 0.210173 -0.0249628 0.0005 0.212382 -0.0247314 -0.0005
0.212382 -0.0247314 0.0005 0.214677 -0.024491 -0.0005 0.214677 -0.024491 0.0005 0.217061
-0.0242412 -0.0005 0.217061 -0.0242412 0.0005 0.219538 -0.0239817 -0.0005 0.219538 -0.0239817
0.0005 0.222112 -0.0237121 -0.0005 0.222112 -0.0237121 0.0005 0.224785 -0.023432 -0.0005
0.224785 -0.023432 0.0005 0.227563 -0.023141 -0.0005 0.227563 -0.023141 0.0005 0.230449
-0.0228387 -0.0005 0.230449 -0.0228387 0.0005 0.233447 -0.0225246 -0.0005 0.233447 -0.0225246
0.0005 0.236562 -0.0221983 -0.0005 0.236562 -0.0221983 0.0005 0.239797 -0.0218593 -0.0005
0.239797 -0.0218593 0.0005 0.243159 -0.0215071 -0.0005 0.243159 -0.0215071 0.0005 0.246652
-0.0211412 -0.0005 0.246652 -0.0211412 0.0005 0.250281 -0.0207611 -0.0005 0.250281 -0.0207611
0.0005 0.254051 -0.0203661 -0.0005 0.254051 -0.0203661 0.0005 0.257967 -0.0199558 -0.0005
0.257967 -0.0199558 0.0005 0.262036 -0.0195295 -0.0005 0.262036 -0.0195295 0.0005 0.266264
-0.0190867 -0.0005 0.266264 -0.0190867 0.0005 0.270655 -0.0186266 -0.0005 0.270655 -0.0186266
0.0005 0.275218 -0.0181486 -0.0005 0.275218 -0.0181486 0.0005 0.279959 -0.017652 -0.0005
0.279959 -0.017652 0.0005 0.284883 -0.017136 -0.0005 0.284883 -0.017136 0.0005 0.29
-0.0166 -0.0005 0.29 -0.0166 0.0005 
POLYGONS 250 1250
4 0 1 2 3 4 1 4 5 2 4
4 6 7 5 4 6 8 9 7 4
8 10 11 9 4 10 12 13 11 4
12 14 15 13 4 14 16 17 15 4
16 18 19 17 4 18 20 21 19 4
20 22 23 21 4 22 24 25 23 4
24 26 27 25 4 26 28 29 27 4
28 30 31 29 4 30 32 33 31 4
32 34 35 33 4 34 36 37 35 4
38 39 40 41 4 41 40 42 43 4
43 42 44 45 4 45 44 46 47 4
47 46 48 49 4 49 48 50 51 4
51 50 52 53 4 53 52 54 55 4
55 54 56 57 4 57 56 58 59 4
59 58 60 61 4 61 60 62 63 4
63 62 64 65 4 65 64 66 67 4
67 66 68 69 4 69 68 70 71 4
71 70 72 73 4 73 72 74 75 4
75 74 76 77 4 77 76 78 79 4
79 78 80 81 4 81 80 82 83 4
83 82 84 85 4 85 84 86 87 4
87 86 88 89 4 89 88 90 91 4
91 90 37 36 4 38 92 93 39 4
92 94 95 93 4 94 96 97 95 4
96 98 99 97 4 98 100 101 99 4
100 102 103 101 4 102 104 105 103 4
104 106 107 105 4 106 108 109 107 4
108 110 111 109 4 110 112 113 111 4
112 114 115 113 4 114 116 117 115 4
116 118 119 117 4 118 120 121 119 4
120 122 123 121 4 122 124 125 123 4
124 126 127 125 4 126 128 129 127 4
128 130 131 129 4 130 132 133 131 4
132 134 135 133 4 134 136 137 135 4
136 138 139 137 4 138 140 141 139 4
140 142 143 141 4 142 144 145 143 4
144 146 147 145 4 146 148 149 147 4
148 150 151 149 4 150 152 153 151 4
152 154 155 153 4 154 156 157 155 4
156 158 159 157 4 158 160 161 159 4
160 162 163 161 4 162 164 165 163 4
164 166 167 165 4 166 168 169 167 4
168 170 171 169 4 170 172 173 171 4
172 174 175 173 4 174 176 177 175 4
176 178 179 177 4 178 180 181 179 4
180 182 183 181 4 182 184 185 183 4
184 186 187 185 4 186 188 189 187 4
188 190 191 189 4 190 192 193 191 4
192 194 195 193 4 194 196 197 195 4
196 198 199 197 4 198 200 201 199 4
200 202 203 201 4 202 204 205 203 4
204 206 207 205 4 206 208 209 207 4
208 210 211 209 4 210 212 213 211 4
212 214 215 213 4 214 216 217 215 4
216 218 219 217 4 218 220 221 219 4
220 222 223 221 4 222 224 225 223 4
224 226 227 225 4 226 228 229 227 4
228 230 231 229 4 230 232 233 231 4
232 234 235 233 4 234 236 237 235 4
236 238 239 237 4 238 240 241 239 4
240 242 243 241 4 242 244 245 243 4
244 246 247 245 4 246 248 249 247 4
248 250 251 249 4 250 252 253 251 4
252 254 255 253 4 254 256 257 255 4
256 258 259 257 4 258 260 261 259 4
260 262 263 261 4 262 264 265 263 4
264 266 267 265 4 266 268 269 267 4
268 270 271 269 4 270 272 273 271 4
272 274 275 273 4 274 276 277 275 4
276 278 279 277 4 278 280 281 279 4
280 282 283 281 4 282 284 285 283 4
284 286 287 285 4 286 288 289 287 4
288 290 291 289 4 290 292 293 291 4
292 294 295 293 4 294 296 297 295 4
296 298 299 297 4 298 300 301 299 4
300 302 303 301 4 302 304 305 303 4
304 306 307 305 4 306 308 309 307 4
308 310 311 309 4 310 312 313 311 4
312 314 315 313 4 314 316 317 315 4
316 318 319 317 4 318 320 321 319 4
320 322 323 321 4 322 324 325 323 4
324 326 327 325 4 326 328 329 327 4
328 330 331 329 4 330 332 333 331 4
332 334 335 333 4 334 336 337 335 4
336 338 339 337 4 338 340 341 339 4
340 342 343 341 4 342 344 345 343 4
344 346 347 345 4 346 348 349 347 4
348 350 351 349 4 350 352 353 351 4
352 354 355 353 4 354 356 357 355 4
356 358 359 357 4 358 360 361 359 4
360 362 363 361 4 362 364 365 363 4
364 366 367 365 4 366 368 369 367 4
368 370 371 369 4 370 372 373 371 4
372 374 375 373 4 374 376 377 375 4
376 378 379 377 4 378 380 381 379 4
380 382 383 381 4 382 384 385 383 4
384 386 387 385 4 386 388 389 387 4
388 390 391 389 4 390 392 393 391 4
392 394 395 393 4 394 396 397 395 4
396 398 399 397 4 398 400 401 399 4
400 402 403 401 4 402 404 405 403 4
404 406 407 405 4 406 408 409 407 4
408 410 411 409 4 410 412 413 411 4
412 414 415 413 4 414 416 417 415 4
416 418 419 417 4 418 420 421 419 4
420 422 423 421 4 422 424 425 423 4
424 426 427 425 4 426 428 429 427 4
428 430 431 429 4 430 432 433 431 4
432 434 435 433 4 434 436 437 435 4
436 438 439 437 4 438 440 441 439 4
440 442 443 441 4 442 444 445 443 4
444 446 447 445 4 446 448 449 447 4
448 450 451 449 4 450 452 453 451 4
452 454 455 453 4 454 456 457 455 4
456 458 459 457 4 458 460 461 459 4
460 462 463 461 4 462 464 465 463 4
464 466 467 465 4 466 468 469 467 4
468 470 471 469 4 470 472 473 471 4
472 474 475 473 4 474 476 477 475 4
476 478 479 477 4 478 480 481 479 4
480 482 483 481 4 482 484 485 483 4
484 486 487 485 4 486 488 489 487 4
488 490 491 489 4 490 492 493 491 4
492 494 495 493 4 494 496 497 495 4
496 498 499 497 4 498 500 501 499 
POINT_DATA 502
FIELD attributes 1
U 3 502 float
3.15507 0.00561854 0.0336924 1.58545 0.00280595 0.0166036 1.58545 0.00280595 0.0166036 3.15507 0.00561854
0.0336924 0.059947 0.000116134 0 0.059947 0.000116134 0 0.0583831 0.00019421 0
0.0583831 0.00019421 0 0.0558487 0.000236167 0 0.0558487 0.000236167 0 0.0531961
0.000224805 0 0.0531961 0.000224805 0 0.051015 0.000202342 0 0.051015 0.000202342
0 0.0493418 0.000223707 0 0.0493418 0.000223707 0 0.0478927 0.00029298 0
0.0478927 0.00029298 0 0.0463638 0.000374604 0 0.0463638 0.000374604 0 0.0445785
0.000431185 0 0.0445785 0.000431185 0 0.0425796 0.000436446 0 0.0425796 0.000436446
0 0.0405244 0.000395101 0 0.0405244 0.000395101 0 0.0385745 0.00032604 0
0.0385745 0.00032604 0 0.0367895 0.000271556 0 0.0367895 0.000271556 0 0.035221
0.000261643 0 0.035221 0.000261643 0 0.0335948 0.000320729 0 0.0335948 0.000320729
0 0.0319191 0.000491133 0 0.0319191 0.000491133 0 0.0143504 0.000298892 0
0.0143504 0.000298892 0 -0.000598696 0.00102433 7.13401e-23 -0.000598696 0.00102433 7.13401e-23 -0.00018877
0.00315635 -1.92798e-22 -0.00018877 0.00315635 -1.92798e-22 0.000267418 0.0037362 -2.28763e-22 0.000267418 0.0037362
-2.28763e-22 -0.000189909 0.00235289 4.57791e-22 -0.000189909 0.00235289 4.57791e-22 0.000121806 0.00131396 1.52828e-22
0.000121806 0.00131396 1.52828e-22 0.0015011 -0.0046148 -3.05258e-22 0.0015011 -0.0046148 -3.05258e-22 0.00158814
-0.0116622 0 0.00158814 -0.0116622 0 0.000845117 -0.0150595 -5.97952e-22 0.000845117 -0.0150595
-5.97952e-22 0.000471036 -0.0169508 -2.65218e-25 0.000471036 -0.0169508 -2.65218e-25 0.000247026 -0.0180657 5.97687e-22
0.000247026 -0.0180657 5.97687e-22 7.50863e-05 -0.0184319 -5.97801e-22 7.50863e-05 -0.0184319 -5.97801e-22 -3.07733e-05
-0.0183644 1.55279e-26 -3.07733e-05 -0.0183644 1.55279e-26 -0.000118602 -0.0179304 5.97817e-22 -0.000118602 -0.0179304
5.97817e-22 -0.000194479 -0.0171845 6.10584e-22 -0.000194479 -0.0171845 6.10584e-22 -0.00026502 -0.0161402 -4.10053e-25
-0.00026502 -0.0161402 -4.10053e-25 -0.000325553 -0.0148265 -6.21823e-22 -0.000325553 -0.0148265 -6.21823e-22 -0.000378028
-0.0132379 0 -0.000378028 -0.0132379 0 -0.000414789 -0.0116229 0 -0.000414789 -0.0116229
0 -0.000437048 -0.0100766 0 -0.000437048 -0.0100766 0 -0.000463563 -0.00861343 0
-0.000463563 -0.00861343 0 -0.000524208 -0.00718808 0 -0.000524208 -0.00718808 0 -0.000639559
-0.00574511 0 -0.000639559 -0.00574511 0 -0.000809705 -0.00420571 0 -0.000809705 -0.00420571
0 -0.000993093 -0.00231919 0 -0.000993093 -0.00231919 0 -0.00101354 -0.000686332 0
-0.00101354 -0.000686332 0 -0.000182317 0.000828835 0 -0.000182317 0.000828835 0 0.000453686
0.000901801 0 0.000453686 0.000901801 0 -0.000914694 0.000672785 3.73381e-25 -0.000914694 0.000672785
3.73381e-25 -0.00155008 0.000199692 -3.53875e-23 -0.00155008 0.000199692 -3.53875e-23 -0.00185528 -0.000199796 0
-0.00185528 -0.000199796 0 -0.00155812 -0.000759754 0 -0.00155812 -0.000759754 0 -0.000768484
-0.00121938 3.45338e-23 -0.000768484 -0.00121938 3.45338e-23 0.000349179 -0.00145291 3.45959e-23 0.000349179 -0.00145291
3.45959e-23 0.00160074 -0.00150119 0 0.00160074 -0.00150119 0 0.00286118 -0.00144238 0
0.00286118 -0.00144238 0 0.00405884 -0.00131368 0 0.00405884 -0.00131368 0 0.00515176
-0.00114896 -3.27667e-23 0.00515176 -0.00114896 -3.27667e-23 0.00611293 -0.000974067 -3.28292e-23 0.00611293 -0.000974067
-3.28292e-23 0.00693772 -0.000804876 0 0.00693772 -0.000804876 0 0.00763179 -0.000648336 0
0.00763179 -0.000648336 0 0.00820512 -0.000505774 0 0.00820512 -0.000505774 0 0.00866598
-0.000376339 -3.06919e-23 0.00866598 -0.000376339 -3.06919e-23 0.00902435 -0.000257746 -3.07538e-23 0.00902435 -0.000257746
-3.07538e-23 0.00928427 -0.00014665 0 0.00928427 -0.00014665 0 0.00945327 -4.12636e-05 0
0.00945327 -4.12636e-05 0 0.00952975 6.48888e-05 0 0.00952975 6.48888e-05 0 0.00951503
0.000170842 0 0.00951503 0.000170842 0 0.00939319 0.00029138 0 0.00939319 0.00029138
0 0.00916352 0.000412788 0 0.00916352 0.000412788 0 0.00881665 0.000567841 -2.86557e-23
0.00881665 0.000567841 -2.86557e-23 0.00832238 0.000720199 -2.07328e-25 0.00832238 0.000720199 -2.07328e-25 0.00770905
0.000924518 1.90197e-25 0.00770905 0.000924518 1.90197e-25 0.00684332 0.00115118 -5.6712e-23 0.00684332 0.00115118
-5.6712e-23 0.00588325 0.00132007 -2.83273e-23 0.00588325 0.00132007 -2.83273e-23 0.00455672 0.0018428 0
0.00455672 0.0018428 0 0.00284481 0.00146542 2.77449e-23 0.00284481 0.00146542 2.77449e-23 0.00162179
-2.95543e-05 5.52995e-23 0.00162179 -2.95543e-05 5.52995e-23 0.000839928 -0.000486031 2.75548e-23 0.000839928 -0.000486031
2.75548e-23 0.000341979 -0.000144615 0 0.000341979 -0.000144615 0 0.000328664 -0.000175071 2.66485e-23
0.000328664 -0.000175071 2.66485e-23 0.000825523 -0.000586242 2.67142e-23 0.000825523 -0.000586242 2.67142e-23 0.00184408
-0.00098999 0 0.00184408 -0.00098999 0 0.00315769 -0.00096079 -2.56979e-23 0.00315769 -0.00096079
-2.56979e-23 0.00433222 -0.000660669 -2.57632e-23 0.00433222 -0.000660669 -2.57632e-23 0.00517363 -0.000391087 -2.48722e-23
0.00517363 -0.000391087 -2.48722e-23 0.00579977 -5.22498e-05 -7.39195e-23 0.00579977 -5.22498e-05 -7.39195e-23 0.00612913
0.000157633 -4.91111e-23 0.00612913 0.000157633 -4.91111e-23 0.00605955 -0.000180209 0 0.00605955 -0.000180209
0 0.00593702 -0.000728305 0 0.00593702 -0.000728305 0 0.00593977 -0.000692188 0
0.00593977 -0.000692188 0 0.00583994 -9.64818e-05 0 0.00583994 -9.64818e-05 0 0.00562403
0.000327904 -4.44954e-23 0.00562403 0.000327904 -4.44954e-23 0.00551635 0.000299484 -8.8224e-23 0.00551635 0.000299484
-8.8224e-23 0.00560625 8.77242e-05 -8.63849e-23 0.00560625 8.77242e-05 -8.63849e-23 0.00585042 -8.7129e-05 -4.27787e-23
0.00585042 -8.7129e-05 -4.27787e-23 0.00619503 -0.000188511 4.07139e-23 0.00619503 -0.000188511 4.07139e-23 0.00658729
-0.000232101 4.08319e-23 0.00658729 -0.000232101 4.08319e-23 0.00698038 -0.000233689 -3.88385e-23 0.00698038 -0.000233689
-3.88385e-23 0.00733469 -0.00020496 -7.6933e-23 0.00733469 -0.00020496 -7.6933e-23 0.00761774 -0.000151864 -3.8093e-23
0.00761774 -0.000151864 -3.8093e-23 0.00780027 -7.48036e-05 0 0.00780027 -7.48036e-05 0 0.00785041
2.83725e-05 0 0.00785041 2.83725e-05 0 0.00772915 0.000156244 -3.56271e-23 0.00772915 0.000156244
-3.56271e-23 0.00740234 0.000301876 -3.57374e-23 0.00740234 0.000301876 -3.57374e-23 0.00685075 0.000456212 0
0.00685075 0.000456212 0 0.00606769 0.000608951 0 0.00606769 0.000608951 0 0.00505895
0.000746467 0 0.00505895 0.000746467 0 0.00384869 0.000847695 0 0.00384869 0.000847695
0 0.00249199 0.00088895 0 0.00249199 0.00088895 0 0.00107898 0.000853363 0
0.00107898 0.000853363 0 -0.000277063 0.000757829 0 -0.000277063 0.000757829 0 -0.00148421
0.000637427 3.58891e-23 -0.00148421 0.000637427 3.58891e-23 -0.002478 0.000567045 3.60097e-23 -0.002478 0.000567045
3.60097e-23 -0.00312306 0.000457394 0 -0.00312306 0.000457394 0 -0.00339398 -0.000278169 -3.47564e-23
-0.00339398 -0.000278169 -3.47564e-23 -0.00387419 -0.00166077 -6.88611e-23 -0.00387419 -0.00166077 -6.88611e-23 -0.00532279
-0.00161415 -3.4103e-23 -0.00532279 -0.00161415 -3.4103e-23 -0.00859071 0.00161357 3.40109e-23 -0.00859071 0.00161357
3.40109e-23 -0.0142227 0.00432077 8.709e-25 -0.0142227 0.00432077 8.709e-25 -0.019946 0.00340813 -3.33791e-23
-0.019946 0.00340813 -3.33791e-23 -0.0236151 0.00221192 2.98164e-23 -0.0236151 0.00221192 2.98164e-23 -0.0264307
0.00194596 2.99246e-23 -0.0264307 0.00194596 2.99246e-23 -0.0288203 0.00134199 0 -0.0288203 0.00134199
0 -0.0304129 0.000954454 -2.56443e-23 -0.0304129 0.000954454 -2.56443e-23 -0.0316498 0.00070288 -2.57396e-23
-0.0316498 0.00070288 -2.57396e-23 -0.0324692 0.000397845 2.42497e-23 -0.0324692 0.000397845 2.42497e-23 -0.0329114
0.000227235 2.43413e-23 -0.0329114 0.000227235 2.43413e-23 -0.0331009 4.9819e-05 -2.38964e-23 -0.0331009 4.9819e-05
-2.38964e-23 -0.033009 -8.6792e-05 -4.80126e-23 -0.033009 -8.6792e-05 -4.80126e-23 -0.0327366 -0.000180243 -4.84327e-23
-0.0327366 -0.000180243 -4.84327e-23 -0.0322857 -0.000281965 -7.38837e-23 -0.0322857 -0.000281965 -7.38837e-23 -0.0316754
-0.000351546 8.40584e-25 -0.0316754 -0.000351546 8.40584e-25 -0.0309434 -0.000414268 5.07085e-23 -0.0309434 -0.000414268
5.07085e-23 -0.0300865 -0.000470857 0 -0.0300865 -0.000470857 0 -0.0291378 -0.000509524 0
-0.0291378 -0.000509524 0 -0.0281075 -0.000545479 5.55337e-23 -0.0281075 -0.000545479 5.55337e-23 -0.0270059
-0.000572187 1.1255e-22 -0.0270059 -0.000572187 1.1255e-22 -0.0258544 -0.000589656 -9.58877e-25 -0.0258544 -0.000589656
-9.58877e-25 -0.0246589 -0.000604158 -5.82222e-23 -0.0246589 -0.000604158 -5.82222e-23 -0.0234299 -0.000612061 6.01056e-23
-0.0234299 -0.000612061 6.01056e-23 -0.0221796 -0.000615058 1.2137e-22 -0.0221796 -0.000615058 1.2137e-22 -0.0209126
-0.00061596 1.2308e-22 -0.0209126 -0.00061596 1.2308e-22 -0.0196351 -0.000613263 6.20726e-23 -0.0196351 -0.000613263
6.20726e-23 -0.0183539 -0.00060767 0 -0.0183539 -0.00060767 0 -0.0170727 -0.000600653 0
-0.0170727 -0.000600653 0 -0.015795 -0.000591707 6.38753e-23 -0.015795 -0.000591707 6.38753e-23 -0.0145251
-0.000580581 6.4155e-23 -0.0145251 -0.000580581 6.4155e-23 -0.0132671 -0.000567715 0 -0.0132671 -0.000567715
0 -0.0120252 -0.000552884 -6.42924e-23 -0.0120252 -0.000552884 -6.42924e-23 -0.0108043 -0.000535469 -6.45796e-23
-0.0108043 -0.000535469 -6.45796e-23 -0.00961013 -0.000515373 0 -0.00961013 -0.000515373 0 -0.00844766
-0.000493158 -6.38226e-23 -0.00844766 -0.000493158 -6.38226e-23 -0.00732047 -0.000469849 -6.41133e-23 -0.00732047 -0.000469849
-6.41133e-23 -0.00622996 -0.000446785 0 -0.00622996 -0.000446785 0 -0.0051752 -0.000424994 6.26549e-23
-0.0051752 -0.000424994 6.26549e-23 -0.00415318 -0.000404945 1.25108e-22 -0.00415318 -0.000404945 1.25108e-22 -0.00315982
-0.000386615 6.2453e-23 -0.00315982 -0.000386615 6.2453e-23 -0.00219293 -0.000369044 -6.1075e-23 -0.00219293 -0.000369044
-6.1075e-23 -0.00125609 -0.000349994 -6.13638e-23 -0.00125609 -0.000349994 -6.13638e-23 -0.000357081 -0.000326893 5.98503e-23
-0.000357081 -0.000326893 5.98503e-23 0.00049114 -0.000301283 6.01367e-23 0.00049114 -0.000301283 6.01367e-23 0.00126865
-0.000270663 5.84182e-23 0.00126865 -0.000270663 5.84182e-23 0.00195607 -0.000231925 1.16363e-22 0.00195607 -0.000231925
1.16363e-22 0.00253714 -0.000188929 5.79428e-23 0.00253714 -0.000188929 5.79428e-23 0.0030023 -0.000145416 0
0.0030023 -0.000145416 0 0.00335397 -0.000104695 0 0.00335397 -0.000104695 0 0.00360412
-6.89003e-05 0 0.00360412 -6.89003e-05 0 0.00377068 -3.96927e-05 0 0.00377068 -3.96927e-05
0 0.00387331 -1.75427e-05 0 0.00387331 -1.75427e-05 0 0.00393085 -2.0282e-06 0
0.00393085 -2.0282e-06 0 0.00395971 6.81328e-06 5.15434e-23 0.00395971 6.81328e-06 5.15434e-23 0.00397295
1.00586e-05 9.81072e-25 0.00397295 1.00586e-05 9.81072e-25 0.00398095 9.81768e-06 -5.10849e-23 0.00398095 9.81768e-06
-5.10849e-23 0.00399184 7.67718e-06 0 0.00399184 7.67718e-06 0 0.00401132 4.36547e-06 0
0.00401132 4.36547e-06 0 0.00404307 9.25367e-08 0 0.00404307 9.25367e-08 0 0.00408938
-4.77296e-06 -9.48571e-23 0.00408938 -4.77296e-06 -9.48571e-23 0.00415156 -9.74465e-06 -9.53554e-23 0.00415156 -9.74465e-06
-9.53554e-23 0.00423002 -1.44792e-05 9.23009e-23 0.00423002 -1.44792e-05 9.23009e-23 0.00432432 -1.87818e-05 1.74023e-24
0.00432432 -1.87818e-05 1.74023e-24 0.00443306 -2.24853e-05 -9.15358e-23 0.00443306 -2.24853e-05 -9.15358e-23 0.00455417
-2.54364e-05 0 0.00455417 -2.54364e-05 0 0.00468534 -2.74638e-05 0 0.00468534 -2.74638e-05
0 0.0048243 -2.82743e-05 8.61712e-23 0.0048243 -2.82743e-05 8.61712e-23 0.0049679 -2.72908e-05 1.71608e-22
0.0049679 -2.72908e-05 1.71608e-22 0.00511033 -2.38225e-05 8.54324e-23 0.00511033 -2.38225e-05 8.54324e-23 0.00524208
-1.78915e-05 8.25635e-23 0.00524208 -1.78915e-05 8.25635e-23 0.00535216 -1.07553e-05 1.64374e-22 0.00535216 -1.07553e-05
1.64374e-22 0.00543387 -5.14723e-06 1.66009e-24 0.00543387 -5.14723e-06 1.66009e-24 0.00549148 -5.01789e-06 -8.05913e-23
0.00549148 -5.01789e-06 -8.05913e-23 0.0055432 -1.22601e-05 0 0.0055432 -1.22601e-05 0 0.00561439
-2.53945e-05 -7.66097e-23 0.00561439 -2.53945e-05 -7.66097e-23 0.00572726 -4.30664e-05 -7.70412e-23 0.00572726 -4.30664e-05
-7.70412e-23 0.00589601 -6.103e-05 0 0.00589601 -6.103e-05 0 0.00611772 -7.32165e-05 0
0.00611772 -7.32165e-05 0 0.0063744 -8.25313e-05 0 0.0063744 -8.25313e-05 0 0.00665724
-8.90198e-05 7.13018e-23 0.00665724 -8.90198e-05 7.13018e-23 0.00695236 -8.74515e-05 1.4202e-22 0.00695236 -8.74515e-05
1.4202e-22 0.00724332 -9.48602e-05 7.07138e-23 0.00724332 -9.48602e-05 7.07138e-23 0.00756948 -0.000114643 6.849e-23
0.00756948 -0.000114643 6.849e-23 0.0079659 -0.0001287 6.88885e-23 0.0079659 -0.0001287 6.88885e-23 0.00845839
-0.000178908 0 0.00845839 -0.000178908 0 0.0091847 -0.000261894 6.66181e-23 0.0091847 -0.000261894
6.66181e-23 0.0101858 -0.000288353 6.70102e-23 0.0101858 -0.000288353 6.70102e-23 0.0113374 -0.000336308 6.56037e-23
0.0113374 -0.000336308 6.56037e-23 0.0127349 -0.000416159 6.59927e-23 0.0127349 -0.000416159 6.59927e-23 0.0142785
-0.000334661 0 0.0142785 -0.000334661 0 0.0155602 -0.000298012 6.27437e-23 0.0155602 -0.000298012
6.27437e-23 0.0168718 -0.000323918 6.31198e-23 0.0168718 -0.000323918 6.31198e-23 0.0179396 -5.82597e-05 6.03828e-23
0.0179396 -5.82597e-05 6.03828e-23 0.0180949 3.88513e-05 6.07473e-23 0.0180949 3.88513e-05 6.07473e-23 0.0183153