/*--------------------------------*- C++ -*----------------------------------*\
  =========                 |
  \\      /  F ield         | OpenFOAM: The Open Source CFD Toolbox
   \\    /   O peration     | Website:  https://openfoam.org
    \\  /    A nd           | Version:  9
     \\/     M anipulation  |
\*---------------------------------------------------------------------------*/
FoamFile
{
    format      ascii;
    class       volScalarField;
    location    "0.16";
    object      epsilonU;
}
// * * * * * * * * * * * * * * * * * * * * * * * * * * * * * * * * * * * * * //

dimensions      [0 2 -3 0 0 0 0];

internalField   nonuniform List<scalar> 
12225
(
247.461
207.838
177.971
156.35
141.897
133.754
131.157
133.358
139.608
149.176
161.39
175.674
191.593
208.894
227.559
247.863
270.652
305.197
43.7628
57.9076
67.4441
78.1513
93.064
114.1
142.659
179.601
225.183
279.131
340.849
409.717
485.443
568.413
660.123
763.488
884.269
1029.73
20.9309
26.6901
31.3846
35.7289
40.4588
46.1388
53.2319
62.1165
73.0778
86.3236
102.035
120.444
141.947
167.254
197.605
235.104
283.311
348.262
16.2962
18.2884
20.2448
22.1265
24.042
26.1152
28.4604
31.1792
34.3578
38.0737
42.4107
47.4835
53.4716
60.6712
69.575
81.0091
96.3624
117.878
15.0553
15.6214
16.334
17.1005
17.9028
18.7519
19.6702
20.6844
21.8211
23.1069
24.5723
26.2585
28.2281
30.5805
33.4784
37.1925
42.176
49.1388
14.6994
14.7134
14.8531
15.0717
15.3431
15.6554
16.0057
16.3971
16.836
17.331
17.8935
18.5393
19.2919
20.1871
21.2808
22.6625
24.4756
26.9217
14.5994
14.4111
14.2978
14.2467
14.2452
14.2835
14.3554
14.4579
14.5907
14.7557
14.9568
15.2004
15.4961
15.8587
16.3102
16.8839
17.6292
18.602
14.5728
14.317
14.1027
13.9289
13.7919
13.6878
13.6126
13.5639
13.54
13.5407
13.567
13.6216
13.7086
13.8347
14.0098
14.2476
14.5675
14.9852
14.5661
14.29
14.0401
13.8167
13.6192
13.4463
13.2965
13.1684
13.0611
12.9741
12.9076
12.8628
12.8416
12.8474
12.8849
12.9605
13.0826
13.2556
14.5644
14.2829
14.0219
13.781
13.5598
13.3575
13.1735
13.007
12.8577
12.7252
12.6096
12.5115
12.432
12.3729
12.3367
12.3267
12.3468
12.3985
14.564
14.2812
14.0172
13.7709
13.5416
13.3284
13.1307
12.9478
12.7794
12.6253
12.4855
12.3604
12.2505
12.1569
12.0811
12.0247
11.99
11.9775
14.5639
14.2808
14.0161
13.7685
13.537
13.3206
13.1184
12.9299
12.7546
12.5921
12.4425
12.3057
12.1823
12.0728
11.978
11.8991
11.8372
11.7927
14.5639
14.2807
14.0158
13.768
13.5358
13.3184
13.1148
12.9242
12.7462
12.5802
12.4262
12.284
12.1539
12.036
11.931
11.8392
11.7615
11.6983
14.5638
14.2806
14.0158
13.7679
13.5357
13.3181
13.1141
12.923
12.7441
12.577
12.4212
12.2767
12.1433
12.0212
11.9105
11.8114
11.7243
11.6495
14.5638
14.2806
14.0158
13.768
13.5358
13.3183
13.1144
12.9234
12.7444
12.577
12.4207
12.2753
12.1405
12.0162
11.9024
11.799
11.7061
11.6241
14.5637
14.2805
14.0158
13.768
13.536
13.3187
13.115
12.9241
12.7453
12.578
12.4216
12.2758
12.1403
12.0147
11.8988
11.7925
11.6956
11.6085
14.5637
14.2804
14.0157
13.768
13.5362
13.3191
13.1157
12.925
12.7465
12.5793
12.423
12.2769
12.1408
12.0142
11.8968
11.7882
11.6882
11.5972
14.5636
14.2803
14.0155
13.768
13.5363
13.3194
13.1163
12.926
12.7477
12.5808
12.4245
12.2784
12.1418
12.0144
11.8957
11.7852
11.6827
11.5884
14.5634
14.28
14.0153
13.7679
13.5364
13.3198
13.117
12.927
12.7491
12.5824
12.4263
12.2801
12.1432
12.0151
11.8953
11.7834
11.6788
11.582
14.5633
14.2798
14.0151
13.7678
13.5366
13.3202
13.1177
12.9281
12.7504
12.5839
12.4279
12.2817
12.1447
12.0162
11.8957
11.7827
11.6769
11.5786
14.5632
14.2797
14.0151
13.7679
13.5369
13.3209
13.1186
12.9293
12.752
12.5858
12.43
12.2838
12.1468
12.0181
11.8974
11.7839
11.6774
11.5783
14.5632
14.2797
14.0153
13.7684
13.5378
13.3222
13.1206
12.9319
12.7553
12.5898
12.4348
12.2896
12.1533
12.0255
11.9054
11.7927
11.6868
11.5881
14.5632
14.2801
14.0164
13.7707
13.5418
13.3284
13.1295
12.9441
12.771
12.6095
12.4587
12.3178
12.186
12.0628
11.9473
11.8391
11.7376
11.6433
14.5639
14.2833
14.0245
13.7863
13.5674
13.3664
13.182
13.0124
12.8564
12.7125
12.5797
12.4568
12.3429
12.2372
12.1389
12.0474
11.9622
11.8834
14.5704
14.308
14.0799
13.8827
13.7121
13.5641
13.4348
13.3208
13.2194
13.1288
13.0478
12.9749
12.9091
12.8496
12.7957
12.747
12.7028
12.6634
14.6198
14.4653
14.3823
14.3476
14.3433
14.3572
14.3818
14.4126
14.4476
14.4854
14.5253
14.5673
14.6113
14.6577
14.7072
14.7597
14.8147
14.8721
14.9411
15.2817
15.7054
16.1318
16.5365
16.9152
17.2715
17.6119
17.9438
18.273
18.6042
18.9403
19.2829
19.6323
19.9869
20.3467
20.711
21.078
16.7982
18.9762
20.7845
22.2449
23.4928
24.6267
25.7161
26.8134
27.9558
29.1667
30.4587
31.836
33.2965
34.8338
36.4381
38.0989
39.8057
41.543
28.5644
35.9179
40.1137
43.1136
45.896
48.8951
52.3423
56.3621
61.003
66.263
72.107
78.4773
85.3007
92.4953
99.9774
107.666
115.495
123.366
152.474
136.946
124.099
113.485
104.796
97.7823
92.2392
87.9886
84.8688
82.7309
81.4374
80.8613
80.8862
81.4068
82.3289
83.5693
85.0569
86.7248
65.6039
173.58
249.918
269.598
271.474
266.102
257.805
248.398
238.544
227.411
212.708
192.372
164.658
129.35
90.5227
58.868
48.3073
75.6848
119.358
139.081
119.201
99.2392
86.1374
93.991
184.275
315.318
442.932
562.083
667.246
755.862
827.376
882.454
922.451
949.065
964.111
969.383
966.576
957.232
942.714
924.205
902.705
879.063
854.793
830.606
806.585
782.809
759.358
736.295
713.67
691.512
669.828
648.604
627.799
607.348
587.151
567.081
546.975
526.645
505.884
484.481
462.25
439.056
414.849
389.688
363.756
337.35
310.857
284.719
259.4
235.388
213.267
193.945
179.56
173.48
171.251
170.173
169.927
170.474
171.831
174.022
177.071
180.991
185.778
191.39
197.693
204.332
210.494
214.656
214.765
209.633
200.117
185.609
167.383
148.093
130.636
116.857
107.025
100.416
96.4581
95.5941
98.6271
103.812
110.132
116.597
122.46
127.773
133.853
143.496
158.31
192.161
288.177
458.152
614.117
747.252
852.903
931.82
986.968
1022.05
1040.87
1047.14
1044.44
1035.82
1021.01
1001.02
976.474
947.714
914.801
877.543
835.567
788.457
735.963
678.381
617.801
562.373
543.713
553.855
565.979
579.445
595.023
613.413
635.067
660.186
688.715
720.306
754.348
790.295
826.594
852.39
849.215
802.444
703.192
557.768
394.922
257.703
175.097
140.883
128.473
118.117
107.806
96.8652
87.9559
78.3377
73.1124
74.6721
15.7749
69.3979
15.6509
13.8511
12.3939
11.4928
11.1027
11.0929
11.3119
11.6413
12.1577
13.2792
14.9757
16.6752
16.6555
92.8685
125.906
356.698
331.724
285.23
244.232
209.05
180.239
157.95
141.847
132.806
128.31
125.705
122.125
115.029
103.32
90.6938
93.4379
128.288
198.132
318.302
473.095
514.244
501.848
483.417
474.057
467.742
457.226
441.794
421.797
398.154
371.938
344.236
316.092
288.484
262.302
238.313
217.141
199.248
184.933
174.346
167.499
164.289
163.804
163.619
163.616
163.767
164.059
164.487
165.055
165.768
166.628
167.634
168.775
170.028
171.35
172.679
173.926
174.97
175.66
175.82
175.256
173.78
171.233
167.516
162.611
156.596
149.638
141.976
133.892
125.684
117.645
110.052
103.145
97.5113
92.9692
89.0117
85.5589
82.5782
80.0436
77.9304
76.214
74.8684
73.8652
73.1728
72.7566
72.5889
72.6761
73.1068
74.1159
76.1834
80.3642
85.2868
89.9046
94.4774
100.309
108.129
117.115
124.535
126.746
121.422
109.44
94.9004
82.6206
76.2787
77.0734
85.9383
111.684
177.291
285.577
376.631
403.538
411.943
409.521
399.394
384.575
367.602
350.405
334.527
321.292
311.92
307.498
308.938
312.404
316.182
320.196
324.319
328.32
331.831
334.313
335.072
333.323
328.355
319.829
308.254
296.061
284.36
271.631
258.643
246.075
234.361
223.729
214.256
205.939
198.749
192.615
187.52
183.941
184.874
203.821
232.6
264.235
298.408
345.393
422.551
535.81
658.78
741.436
751.033
688.384
578.291
452.265
337.035
247.684
181.941
135.431
101.432
74.6905
56.3513
43.0547
33.3493
26.4244
21.7614
19.0288
17.9556
18.3428
20.9908
28.712
43.1002
63.3511
86.2529
179.465
375.53
307.189
250.423
204.656
167.103
138.125
117.299
103.465
96.3383
94.3953
96.2686
100.631
108.414
133.717
213.503
354.06
551.492
619.332
565.647
504.137
447.769
398.576
359.325
328.145
300.822
274.734
249.291
224.7
201.559
180.55
162.237
146.945
134.734
125.435
118.729
114.216
111.478
110.114
109.765
110.129
110.932
111.704
112.357
112.884
113.308
113.673
114.043
114.491
115.096
115.935
117.074
118.566
120.444
122.714
125.351
128.294
131.432
134.607
137.606
140.171
142.019
142.87
142.494
140.746
137.605
133.174
127.665
121.362
114.572
107.589
100.65
93.9355
88.1656
83.0832
78.5012
74.3814
70.6994
67.4314
64.5543
62.0464
59.8886
58.0651
56.5646
55.383
54.5278
54.0288
53.9516
54.4038
55.5107
57.347
59.7792
62.5677
65.5198
68.2482
70.8058
73.6577
77.0153
80.1445
81.5182
79.9464
76.1074
73.3648
76.9406
93.0774
132.167
212.031
317.599
374.218
360.274
332.609
310.157
291.368
274.889
260.224
247.502
237.173
229.645
225.054
223.237
223.792
226.196
229.497
233.504
238.18
243.467
249.232
255.208
260.928
265.69
268.581
268.59
264.817
256.662
245.746
233.201
219.436
205.366
191.687
178.828
166.999
156.258
146.579
137.904
130.174
123.375
117.632
113.184
111.084
114.788
125.482
143.184
169.106
208.695
269.334
352.858
448.219
531.741
579.158
579.387
537.109
466.595
384.445
304.599
235.983
180.902
137.866
104.642
79.0134
59.2332
44.2054
33.3406
26.2152
22.5822
22.3208
26.618
38.9798
57.3975
74.3799
85.794
963.701
459.485
321.61
249.074
192.448
147.29
113.67
90.9034
78.2777
75.7097
79.1756
88.8078
115.191
180.04
303.359
473.193
607.359
603.029
516.625
426.599
357.87
306.745
268.103
238.278
213.992
192.847
173.841
156.945
142.455
130.614
121.44
114.727
110.138
107.295
105.835
105.428
105.786
106.65
107.795
109.025
110.179
110.929
111.164
110.841
109.958
108.555
106.715
104.563
102.26
99.9892
97.9406
96.2981
95.2237
94.8454
95.2495
96.4751
98.51
101.285
104.667
108.45
112.349
116.014
119.055
121.091
121.81
121.033
118.744
115.088
110.329
104.788
98.7818
92.5609
86.5795
81.2775
76.4038
71.9298
67.847
64.1424
60.7995
57.8014
55.1325
52.7811
50.7407
49.0112
47.6008
46.5275
45.8192
45.5104
45.6356
46.2196
47.2529
48.6567
50.2952
52.011
53.6577
55.2232
56.6115
57.8454
59.2571
60.9343
62.8591
65.9295
73.6222
93.15
136.478
215.104
311.367
361.681
338.502
299.462
270.29
250.824
236.471
224.822
214.895
206.592
200.125
195.545
192.648
191.078
190.488
190.638
191.419
192.828
194.902
197.68
201.16
205.245
209.653
213.836
216.956
217.948
215.679
209.509
200.819
190.159
178.393
166.399
154.82
144.039
134.225
125.407
117.538
110.539
104.342
98.9182
94.2765
90.4847
87.7196
86.5531
87.802
92.5007
101.949
117.653
141.879
176.706
220.961
267.945
307.591
331.334
335.117
319.833
290.346
253.108
214.052
177.323
144.969
117.376
94.0399
74.3238
57.7244
44.0921
34.0392
28.4001
27.7409
33.2651
46.7802
64.2734
78.2708
87.7562
1182.2
450.34
325.844
256.145
197.163
148.16
112.52
95.2846
91.8289
96.2442
112.083
147.253
214.233
320.382
445.312
525.018
510.629
434.804
353.445
289.892
244.725
212.289
188.095
169.218
153.858
141.165
130.92
123.082
117.516
113.948
112.037
111.449
111.894
113.128
114.95
117.178
119.651
122.215
124.722
127.028
128.768
129.748
129.84
128.934
126.958
123.898
119.811
114.826
109.155
103.079
96.931
91.0713
85.8497
81.5688
78.4556
76.646
76.187
77.0461
79.1198
82.2317
86.1216
90.4344
94.7256
98.497
101.266
102.653
102.458
100.701
97.5866
93.4324
88.5795
83.3649
78.47
73.8533
69.5097
65.4638
61.7244
58.289
55.1483
52.2916
49.7092
47.3947
45.347
43.5712
42.0797
40.8923
40.0355
39.5388
39.4283
39.7149
40.374
41.3259
42.4449
43.6044
44.7244
45.7922
46.8661
47.9757
49.2989
51.5365
55.8496
64.5531
82.9633
121.109
190.458
283.786
348.006
334.514
287.791
252.479
230.81
217.276
207.4
198.939
191.249
184.513
178.922
174.404
170.733
167.68
165.092
162.933
161.253
160.086
159.503
159.6
160.478
162.183
164.621
167.428
169.917
171.096
169.755
165.626
159.133
150.841
141.578
132.132
123.077
114.745
107.266
100.646
94.8208
89.7081
85.2343
81.3527
78.0509
75.3597
73.3444
72.1293
71.9822
72.9565
75.6247
80.9983
90.2489
104.162
122.393
142.822
161.965
176.324
183.511
182.693
174.595
161.033
144.281
126.481
109.242
93.4399
79.2588
66.4893
54.9668
44.9218
37.0489
32.6132
33.1837
39.8677
52.9564
68.4548
80.694
90.0678
1258.56
442.708
349.185
283.861
220.59
171.768
143.279
135.651
138.587
154.612
187.702
241.709
313.934
385.426
423.181
408.418
355.665
294.152
242.821
205.515
179.264
160.366
146.385
135.962
128.383
123.244
120.228
118.996
119.198
120.511
122.67
125.47
128.753
132.395
136.29
140.336
144.421
148.416
152.172
155.52
158.074
159.8
160.497
159.955
157.988
154.455
149.273
142.451
134.109
124.504
114.044
103.275
92.8327
83.355
75.3814
69.2688
65.1631
63.0309
62.7233
64.0295
66.6942
70.3976
74.7236
79.1524
83.0993
86.0078
87.4651
87.3082
85.6359
82.7219
78.9167
74.8761
70.8456
66.9014
63.1245
59.5611
56.2316
53.1405
50.2847
47.6575
45.2531
43.0681
41.1035
39.3658
37.8678
36.6287
35.6728
35.0268
34.7148
34.7496
35.1211
35.7828
36.6492
37.614
38.5892
39.5496
40.5552
41.7959
43.5487
46.6979
53.1008
66.4281
93.831
146.597
230.497
315.782
339.046
294.235
248.311
221.172
206.107
196.763
189.165
181.777
174.587
167.932
161.931
156.511
151.564
147.02
142.86
139.145
135.866
133.038
130.717
129.009
128.061
128.017
128.925
130.593
132.484
133.708
133.227
130.646
126.015
119.798
112.708
105.444
98.5168
92.2136
86.6398
81.7853
77.5827
73.9471
70.8024
68.0957
65.8028
63.9304
62.5087
61.59
61.3376
61.6335
62.5226
64.293
67.5412
72.9134
80.5383
89.6141
98.6222
105.962
110.442
111.447
108.942
103.372
95.5214
86.3423
76.7716
67.5377
59.0276
51.3124
44.3506
38.32
34.026
32.9603
36.5006
44.9843
57.7579
71.4488
82.588
92.3764
1270.01
475.739
389.917
320.499
257.182
214.727
197.524
194.163
204.272
227.116
260.612
298.619
329.551
340.53
325.791
291.005
248.734
210.253
180.605
159.471
144.756
134.668
128.099
124.321
122.762
122.927
124.384
126.78
129.837
133.355
137.205
141.311
145.637
150.166
154.877
159.726
164.636
169.484
174.103
178.219
181.857
184.841
186.929
187.877
187.456
185.445
181.633
175.819
167.831
157.583
145.162
130.942
115.659
100.377
86.2974
74.4536
65.4515
59.3947
56.0174
54.8984
55.6321
57.8597
61.2145
65.2463
69.3802
72.9745
75.4352
76.3839
75.7817
73.8139
71.0362
67.8555
64.4914
61.1119
57.8228
54.683
51.7215
48.9487
46.3653
43.9684
41.7543
39.7213
37.871
36.2098
34.7493
33.5068
32.5047
31.7688
31.3245
31.1909
31.3723
31.8488
32.5701
33.4611
34.4457
35.4885
36.6447
38.1236
40.3867
44.4272
52.5464
69.4375
103.497
165.308
251.742
318.355
313.612
260.546
220.396
200.21
189.628
182.449
175.541
168.235
160.864
153.754
147.013
140.657
134.704
129.188
124.167
119.715
115.713
112.13
108.987
106.364
104.41
103.32
103.234
104.099
105.518
106.7
106.807
105.322
102.116
97.5152
92.1132
86.5228
81.2018
76.4065
72.2268
68.6484
65.6053
63.0152
60.8005
58.8998
57.2748
55.9131
54.8253
54.0406
53.6421
53.6835
54.052
54.7732
56.0131
58.0675
61.19
65.2944
69.8123
73.896
76.7528
77.8476
76.9475
74.0947
69.5653
63.8234
57.4445
50.9972
44.9198
39.465
34.7705
31.0711
29.0876
30.3479
36.4509
47.2097
60.5272
73.185
83.7558
93.8659
1249.27
516.555
433.401
363.814
303.723
267.388
250.564
247.277
253.955
265.851
277.781
284.307
281.139
266.802
243.199
214.878
187.234
164.235
147.205
135.58
128.298
124.405
123.096
123.661
125.497
128.136
131.238
134.583
138.045
141.585
145.222
149.017
153.043
157.356
161.98
166.891
172.014
177.217
182.321
187.209
191.78
195.785
198.968
201.106
202.031
201.622
199.788
196.405
191.259
183.996
174.159
161.35
145.529
127.339
108.245
90.2473
75.1901
64.0861
56.9254
53.0094
51.5407
51.9172
53.7304
56.6308
60.144
63.647
66.4611
67.9877
68.0593
66.8851
64.8574
62.2954
59.4591
56.5342
53.6403
50.8465
48.1885
45.6817
43.3306
41.1347
39.0927
37.2044
35.4721
33.9018
32.504
31.2944
30.2937
29.5273
29.0223
28.8033
28.8862
29.2713
29.9369
30.8402
31.9282
33.1692
34.6076
36.4516
39.2289
44.046
53.4934
72.8796
110.972
176.029
256.836
305.116
286.142
235.482
201.451
185.55
177.508
171.203
164.338
156.827
149.111
141.497
134.142
127.153
120.632
114.666
109.348
104.709
100.543
96.7775
93.3955
90.4406
88.0366
86.3979
85.719
86.0244
86.9998
88.0476
88.4868
87.7347
85.5593
82.1547
78.0033
73.6422
69.4867
65.7725
62.5839
59.9097
57.6903
55.8474
54.3007
52.9789
51.8272
50.8122
49.9232
49.17
48.6008
48.3267
48.3019
48.5199
49.0225
49.9056
51.2868
53.2181
55.5681
57.9784
59.9562
61.0262
60.8442
59.2495
56.2797
52.1636
47.2833
42.0964
37.036
32.4404
28.5694
25.746
24.6775
26.8556
34.1085
46.403
60.6874
73.2118
83.6861
93.94
1199.2
553.315
478.579
409.385
348.325
306.583
281.727
269.17
262.551
257.317
250.553
240.645
227.013
209.909
190.465
170.75
153.183
139.471
130.098
124.658
122.381
122.42
123.978
126.396
129.19
132.052
134.818
137.444
139.975
142.52
145.217
148.203
151.594
155.466
159.845
164.706
169.963
175.472
181.032
186.63
191.994
196.806
200.746
203.538
204.991
205.046
203.778
201.355
197.914
193.387
187.343
178.953
167.214
151.484
132.153
111.044
90.9748
74.5717
63.1096
56.1137
52.3742
50.8438
50.9097
52.2885
54.6545
57.4625
60.0695
61.6794
62.1187
61.4667
59.955
57.8644
55.4461
52.8893
50.3193
47.8114
45.4059
43.1221
40.9673
38.944
37.053
35.2958
33.6761
32.2004
30.8788
29.7262
28.7626
28.0133
27.5074
27.2747
27.3406
27.7208
28.4167
29.4147
30.6914
32.2306
34.0666
36.3767
39.6789
45.157
55.5639
76.4189
116.05
179.766
251.258
285.558
261.795
217.041
188.162
174.887
167.973
161.919
154.875
147.152
139.155
131.185
123.457
116.152
109.404
103.339
98.0439
93.4847
89.4149
85.7304
82.3915
79.4157
76.8798
74.9726
73.9585
73.8341
74.4283
75.3178
75.9099
75.6347
74.1864
71.6469
68.4004
64.9216
61.5948
58.645
56.1584
54.1322
52.5158
51.2346
50.2039
49.3399
48.5698
47.8395
47.1175
46.3952
45.6952
45.1179
44.7053
44.4865
44.507
44.8263
45.5012
46.5575
47.9469
49.5052
50.9474
51.9194
52.0788
51.1742
49.1038
45.946
41.9503
37.4836
32.9474
28.7036
25.065
22.3977
21.3875
23.4383
30.517
43.1378
58.1839
71.2211
81.9764
92.2826
1118.22
579.71
515.856
445.28
375.227
321.449
285.894
261.889
243.866
228.703
214.859
201.459
187.84
173.662
159.3
145.93
134.966
127.306
123.034
121.617
122.247
124.103
126.498
128.947
131.162
133.026
134.552
135.849
137.083
138.439
140.093
142.193
144.849
148.127
152.049
156.59
161.672
167.153
173.013
179.072
185.055
190.621
195.387
198.963
201.022
201.384
200.099
197.475
194.011
190.174
186.064
181.12
174.072
163.323
147.821
128.129
106.674
86.9384
71.9066
62.0795
56.2236
52.9245
51.2878
51.0388
52.018
53.7664
55.6479
57.0416
57.5761
57.178
55.9859
54.2284
52.1309
49.8717
47.5725
45.3083
43.1206
41.0305
39.0479
37.1772
35.4215
33.7845
32.2714
30.89
29.6511
28.5697
27.6658
26.9654
26.4998
26.3038
26.4121
26.8542
27.6518
28.819
30.365
32.2985
34.6473
37.5338
41.4083
47.4636
58.488
79.8719
118.983
178.41
239.859
264.776
241.528
203.361
178.402
166.449
159.855
153.845
146.883
139.146
131.037
122.886
114.948
107.541
100.778
94.7908
89.6354
85.2381
81.3364
77.7933
74.5531
71.6721
69.171
67.2053
65.9664
65.5442
65.8598
66.6036
67.2731
67.3232
66.3934
64.4729
61.8671
59.005
56.2526
53.8332
51.8407
50.2845
49.123
48.2827
47.6706
47.1876
46.7431
46.2657
45.7086
45.0493
44.2935
43.5044
42.7683
42.155
41.7454
41.6217
41.8512
42.4631
43.4217
44.6033
45.7919
46.703
47.0307
46.5098
44.9781
42.4261
39.01
35.022
30.8218
26.7643
23.173
20.4137
19.1141
20.5277
26.5959
38.4118
53.5325
67.2368
78.4805
88.8062
995.792
581.217
528.942
456.271
378.905
317.225
273.267
241.96
218.72
200.777
186.374
174.094
162.79
151.9
141.701
133.071
126.882
123.469
122.544
123.414
125.286
127.47
129.471
131.008
131.984
132.45
132.553
132.5
132.508
132.779
133.48
134.73
136.601
139.123
142.294
146.093
150.48
155.372
160.87
166.765
172.831
178.766
184.181
188.62
191.612
192.77
191.92
189.235
185.306
181.001
177.054
173.526
169.47
163.027
152.161
136.242
116.698
96.7056
80.1863
68.7299
61.3239
56.5625
53.4376
51.6537
51.1803
51.7612
52.8331
53.7698
54.1311
53.7556
52.7052
51.1523
49.286
47.2621
45.1894
43.1361
41.1409
39.2244
37.3974
35.6661
34.0356
32.5113
31.1003
29.8119
28.6582
27.6549
26.8228
26.1888
25.7867
25.6566
25.842
26.3865
27.3317
28.7191
30.593
32.9958
35.9608
39.551
44.0959
50.7067
62.0672
83.1925
120.282
173.878
225.998
245.085
224.837
192.829
170.84
159.453
152.769
146.724
139.891
132.291
124.285
116.229
108.419
101.101
94.4327
88.5523
83.5039
79.2208
75.4518
72.0584
68.9741
66.1861
63.7347
61.7492
60.4037
59.819
59.9719
60.6351
61.3805
61.6828
61.1354
59.6531
57.4842
55.0324
52.6592
50.5942
48.9439
47.7305
46.9187
46.4303
46.1581
45.9845
45.8026
45.5309
45.1176
44.5372
43.7867
42.8971
41.9493
41.034
40.2615
39.7452
39.5838
39.8375
40.4997
41.4713
42.5557
43.4817
43.9493
43.686
42.5047
40.3508
37.325
33.6658
29.6963
25.7556
22.1621
19.2615
17.6034
18.253
22.975
33.2296
47.5723
61.6097
73.3189
83.6268
828.048
543.354
506.75
443.04
367.03
302.218
254.419
220.559
196.524
179.244
166.42
156.232
147.444
139.615
133.036
128.299
125.785
125.379
126.539
128.535
130.675
132.445
133.542
133.865
133.477
132.553
131.336
130.083
129.035
128.384
128.266
128.745
129.821
131.453
133.598
136.236
139.385
143.14
147.645
152.725
158.217
163.894
169.419
174.348
178.156
180.314
180.407
178.325
174.458
169.758
165.387
161.982
159.14
155.235
147.773
135.534
119.29
101.766
86.1673
74.3086
66.072
60.2611
55.9323
52.8936
51.2341
50.7919
51.0649
51.4479
51.4849
50.9747
49.9303
48.4772
46.7658
44.923
43.0381
41.1674
39.3434
37.5841
35.9001
34.2985
32.7857
31.3689
30.0565
28.8595
27.7911
26.8682
26.1126
25.5523
25.2233
25.1703
25.4453
26.1058
27.2136
28.8378
31.0599
33.9649
37.6113
42.0272
47.3798
54.6015
66.1255
86.4239
120.546
167.758
211.756
227.354
210.929
184.311
164.673
153.502
146.547
140.431
133.773
126.432
118.692
110.894
103.333
96.2338
89.7629
84.0357
79.097
74.8914
71.2009
67.891
64.8897
62.1748
59.7827
57.8267
56.4672
55.8336
55.9376
56.61
57.4726
58.0033
57.7484
56.5646
54.6688
52.4616
50.3137
48.4685
47.0474
46.0835
45.5412
45.3284
45.3155
45.3635
45.3536
45.2046
44.8746
44.3499
43.6327
42.7364
41.7015
40.6146
39.5947
38.7733
38.2755
38.1962
38.5689
39.3347
40.3251
41.2771
41.8791
41.8354
40.93
39.076
36.3383
32.9206
29.1187
25.258
21.6495
18.618
16.6371
16.5834
19.9593
28.326
41.1711
54.9162
66.8374
77.039
174.944
458.842
464.396
415.829
346.703
283.386
235.464
201.926
179.052
163.499
152.668
144.669
138.401
133.547
130.299
128.913
129.354
131.204
133.796
136.431
138.537
139.749
139.919
139.087
137.437
135.242
132.808
130.434
128.376
126.821
125.87
125.537
125.759
126.409
127.396
128.702
130.403
132.807
136.009
139.91
144.379
149.247
154.257
159.035
163.086
165.854
166.809
165.621
162.396
157.921
153.503
150.014
147.429
144.522
139.27
130.052
116.94
102.023
88.1696
77.2016
69.1037
62.849
57.7549
53.8672
51.3945
50.2084
49.8304
49.6878
49.3519
48.6265
47.5057
46.082
44.4699
42.7656
41.0362
39.3233
37.6513
36.0346
34.4825
33.0023
31.6013
30.2877
29.0711
27.9634
26.9791
26.1362
25.4571
24.9708
24.715
24.7378
25.0983
25.8665
27.1231
28.9643
31.5089
34.8916
39.2195
44.5186
50.8208
58.7836
70.4443
89.6143
120.322
161.219
198.333
211.798
199.125
177.082
159.418
148.362
141.091
134.886
128.424
121.422
114.057
106.624
99.3972
92.5906
86.3607
80.8068
75.9712
71.811
68.1504
64.8696
61.9032
59.2329
56.8955
54.9958
53.6842
53.0915
53.2515
54.0308
55.0722
55.8317
55.8017
54.798
53.0345
50.9327
48.8861
47.1569
45.8814
45.0974
44.7581
44.7451
44.8975
45.0546
45.0934
44.9468
44.5993
44.0657
43.3674
42.5155
41.5064
40.3942
39.2811
38.2934
37.5649
37.2142
37.3133
37.8502
38.7012
39.6302
40.3257
40.4679
39.8047
38.2122
35.7218
32.5093
28.8503
25.0591
21.4411
18.3038
16.0595
15.4218
17.6154
24.1011
35.0236
47.8136
59.5314
69.4686
838.924
435.288
419.054
383.449
324.636
265.806
219.551
187.216
165.78
151.88
142.855
136.899
133.05
131.018
130.826
132.423
135.474
139.361
143.344
146.749
149.077
150.058
149.641
147.962
145.295
141.986
138.4
134.875
131.695
129.065
127.084
125.77
125.052
124.797
124.852
124.973
125.2
126.254
128.161
130.788
133.98
137.628
141.569
145.523
149.075
151.719
152.936
152.346
149.943
146.288
142.375
139.1
136.634
134.083
129.752
122.137
111.187
98.669
87.0135
77.6006
70.1725
63.8648
58.3987
54.0966
51.2178
49.5987
48.759
48.1757
47.4826
46.5224
45.2924
43.8633
42.3183
40.7241
39.1256
37.5502
36.0138
34.5267
33.0966
31.7305
30.4361
29.2221
28.0987
27.0784
26.1762
25.4109
24.8054
24.3894
24.2013
24.2911
24.7228
25.5758
26.9468
28.9558
31.7565
35.5351
40.4665
46.621
53.9567
62.8157
74.7253
92.7439
120.018
155.057
186.381
198.403
188.983
170.738
154.797
143.882
136.324
130.018
123.743
117.107
110.175
103.17
96.3342
89.8633
83.8993
78.5292
73.792
69.6595
66.0005
62.7174
59.757
57.1101
54.8199
52.9914
51.772
51.2951
51.6088
52.5943
53.8821
54.8756
55.0057
54.0684
52.3078
50.1907
48.1447
46.4533
45.2634
44.6072
44.4111
44.5158
44.7228
44.8531
44.7926
44.505
44.0158
43.3804
42.6514
41.8502
40.9426
39.9368
38.8958
37.9135
37.1076
36.6011
36.4923
36.8133
37.493
38.34
39.0644
39.3386
38.8798
37.5241
35.2653
32.25
28.7344
25.0226
21.4149
18.2054
15.7578
14.6565
15.8789
20.6826
29.5674
40.8977
51.9514
61.4114
177.874
338.972
367.912
351.261
305.539
252.856
208.537
176.878
156.121
143.152
135.348
130.978
129.148
129.538
132.019
136.329
141.935
148.082
153.817
158.505
161.67
163.074
162.706
160.75
157.531
153.448
148.912
144.302
139.94
136.063
132.813
130.249
128.33
126.976
126.049
125.343
124.886
124.898
125.444
126.542
128.177
130.315
132.85
135.564
138.116
140.071
140.967
140.441
138.442
135.399
132.11
129.294
127.053
124.586
120.45
113.49
103.93
93.4741
84.0229
76.226
69.5001
63.2904
57.7849
53.4778
50.5544
48.7601
47.6173
46.6816
45.6774
44.5037
43.1708
41.7322
40.2429
38.7438
37.2602
35.807
34.3932
33.0252
31.7091
30.4514
29.2595
28.1422
27.1097
26.1747
25.3524
24.6615
24.1254
23.7737
23.6447
23.7889
24.2727
25.181
26.6218
28.7331
31.6968
35.7461
41.1306
48.0096
56.3559
66.2256
78.586
95.6706
119.833
149.706
176.177
187.064
180.253
165.095
150.662
139.946
132.164
125.755
119.636
113.353
106.863
100.313
93.8952
87.7819
82.0986
76.9224
72.2904
68.1882
64.5258
61.2301
58.2632
55.6293
53.3842
51.6424
50.5575
50.2697
50.835
52.1259
53.7228
54.9437
55.1553
54.1634
52.2802
50.0415
47.9167
46.2085
45.0657
44.4986
44.3878
44.5191
44.6549
44.6097
44.2965
43.7258
42.9741
42.1419
41.316
40.537
39.7591
38.9487
38.1195
37.312
36.6019
36.0924
35.8885
36.0558
36.5739
37.3056
38.0008
38.3452
38.0406
36.8893
34.8466
32.0265
28.6629
25.0485
21.4782
18.2344
15.6412
14.1821
14.6336
18.0277
24.9903
34.6007
44.6033
53.3641
171.062
275.12
319.387
321.749
291.255
246.348
203.79
171.595
150.189
136.958
129.399
125.811
125.297
127.465
132.055
138.652
146.585
154.98
162.904
169.606
174.538
177.398
178.123
176.865
173.934
169.739
164.719
159.294
153.84
148.654
143.955
139.877
136.462
133.678
131.431
129.602
128.175
127.085
126.371
126.097
126.317
127.036
128.173
129.537
130.836
131.704
131.762
130.737
128.647
125.895
123.114
120.764
118.712
116.089
111.672
104.832
96.301
87.728
80.2424
73.6809
67.4034
61.3784
56.1509
52.1718
49.4425
47.6173
46.2617
45.0423
43.7863
42.4473
41.0441
39.6124
38.1825
36.7736
35.396
34.0553
32.755
31.4989
30.2915
29.1382
28.046
27.0233
26.0801
25.2286
24.4838
23.864
23.3923
23.0979
23.0185
23.2037
23.7195
24.653
26.1178
28.2632
31.2892
35.4642
41.1081
48.4964
57.7016
68.6151
81.6569
98.1923
119.786
145.26
167.626
177.475
172.673
160.008
146.889
136.407
128.454
121.938
115.94
109.976
103.917
97.8258
91.8408
86.1006
80.7132
75.748
71.2421
67.1925
63.5411
60.2392
57.2679
54.6497
52.4604
50.8331
49.9366
49.9226
50.8456
52.54
54.493
55.907
56.0931
54.9097
52.78
50.3287
48.0681
46.313
45.1986
44.6917
44.6061
44.6635
44.5945
44.2279
43.5246
42.5548
41.4488
40.3473
39.3651
38.5618
37.8972
37.3142
36.7817
36.2799
35.8233
35.4703
35.3095
35.4216
35.828
36.447
37.0798
37.4429
37.2411
36.255
34.4062
31.7748
28.5697
25.0693
21.5619
18.3198
15.6341
13.9069
13.756
16.0091
21.2873
29.1464
37.8626
45.7501
161.019
238.634
278.307
293.412
278.767
244.996
207.076
174.867
151.51
136.218
127.156
122.752
122.039
124.505
129.792
137.436
146.745
156.833
166.749
175.64
182.832
187.888
190.617
191.056
189.429
186.091
181.466
175.995
170.09
164.111
158.347
153.004
148.202
143.974
140.287
137.075
134.324
131.955
129.996
128.484
127.444
126.849
126.602
126.521
126.36
125.836
124.69
122.802
120.322
117.66
115.255
113.229
111.123
107.975
102.936
96.1316
88.7661
82.0225
75.9905
70.0468
64.0003
58.3601
53.723
50.2865
47.8451
46.0246
44.4925
43.048
41.6116
40.1744
38.752
37.3605
36.0089
34.7
33.4334
32.2081
31.0241
29.8828
28.7872
27.7418
26.7529
25.828
24.9766
24.2102
23.5433
22.9934
22.5829
22.3401
22.3014
22.5146
23.0437
23.9743
25.421
27.5363
30.5286
34.6842
40.3729
47.9773
57.7163
69.4986
83.3223
99.7805
119.696
142
161.339
170.367
166.959
156.088
143.938
133.619
125.497
118.847
112.897
107.164
101.452
95.7559
90.1572
84.7591
79.6499
74.8905
70.5159
66.5305
62.9012
59.6023
56.636
54.0488
51.944
50.4825
49.8564
50.2292
51.6371
53.8359
56.1703
57.7013
57.7121
56.1754
53.6727
50.9319
48.5028
46.6966
45.6114
45.1425
45.0154
44.8861
44.4732
43.6478
42.4404
40.9894
39.4744
38.0653
36.8936
36.0321
35.4618
35.1116
34.9124
34.7902
34.6959
34.6295
34.6429
34.8119
35.1846
35.727
36.2935
36.6421
36.4963
35.6297
33.9396
31.4765
28.4238
25.0435
21.6157
18.4038
15.672
13.7557
13.1467
14.5025
18.3803
24.6195
31.9752
38.8906
153.782
228.405
254.274
269.451
266.078
244.529
213.932
183.655
158.888
140.962
129.267
122.705
120.378
121.698
126.243
133.552
142.988
153.727
164.841
175.421
184.681
192.034
197.121
199.819
200.208
198.534
195.151
190.467
184.901
178.844
172.634
166.539
160.75
155.377
150.469
146.031
142.049
138.48
135.352
132.677
130.437
128.569
126.953
125.426
123.798
121.881
119.557
116.874
114.087
111.54
109.404
107.426
104.861
100.863
95.2533
88.8849
82.8549
77.3701
71.8356
65.9507
60.1616
55.1335
51.1956
48.2583
46.0162
44.1618
42.4914
40.91
39.3907
37.934
36.5435
35.2186
33.9544
32.7442
31.5819
30.463
29.3854
28.3489
27.3555
26.4089
25.5142
24.6783
23.9101
23.2203
22.6225
22.1334
21.7745
21.5726
21.5626
21.7899
22.3155
23.2215
24.619
26.6587
29.5476
33.5753
39.1347
46.6858
56.6029
68.9292
83.4556
100.177
119.222
139.476
156.749
165.222
162.836
153.28
141.821
131.564
123.234
116.401
110.424
104.829
99.3775
94.0014