/*--------------------------------*- C++ -*----------------------------------*\
  =========                 |
  \\      /  F ield         | OpenFOAM: The Open Source CFD Toolbox
   \\    /   O peration     | Website:  https://openfoam.org
    \\  /    A nd           | Version:  9
     \\/     M anipulation  |
\*---------------------------------------------------------------------------*/
FoamFile
{
    format      ascii;
    class       volVectorField;
    location    "0.16";
    object      U;
}
// * * * * * * * * * * * * * * * * * * * * * * * * * * * * * * * * * * * * * //

dimensions      [0 1 -1 0 0 0 0];

internalField   nonuniform List<vector> 
12225
(
(9.79466 -0.227691 0)
(9.39645 -0.194683 0)
(8.9866 -0.122425 0)
(8.57694 -0.0679739 0)
(8.18858 -0.0312738 0)
(7.82874 -0.00761116 0)
(7.49505 0.00773806 0)
(7.18334 0.018173 0)
(6.88939 0.0258068 0)
(6.60817 0.0320311 0)
(6.33343 0.0378964 0)
(6.05776 0.0442871 0)
(5.77261 0.0520394 0)
(5.46807 0.0620237 0)
(5.13239 0.0752107 0)
(4.75271 0.0925597 0)
(4.31167 0.116073 0)
(3.80735 0.14517 0)
(10.082 0.138448 0)
(10.2397 0.22638 0)
(10.3245 0.216177 0)
(10.3497 0.19297 0)
(10.3379 0.173943 0)
(10.2978 0.158587 0)
(10.2329 0.146631 0)
(10.1464 0.138101 0)
(10.0414 0.132811 0)
(9.91993 0.130708 0)
(9.78268 0.132063 0)
(9.62866 0.137471 0)
(9.45537 0.147873 0)
(9.25851 0.164624 0)
(9.0313 0.189493 0)
(8.76412 0.225163 0)
(8.44208 0.273962 0)
(8.05084 0.344178 0)
(10.0076 0.0389858 0)
(10.0493 0.0395836 0)
(10.0937 0.0305265 0)
(10.1288 0.0387812 0)
(10.1568 0.0540259 0)
(10.1785 0.0680553 0)
(10.1915 0.0801107 0)
(10.1944 0.0913634 0)
(10.1869 0.102788 0)
(10.1688 0.115299 0)
(10.14 0.130002 0)
(10.0997 0.14826 0)
(10.0471 0.171775 0)
(9.98081 0.202748 0)
(9.89894 0.244037 0)
(9.79867 0.299589 0)
(9.67754 0.374124 0)
(9.5283 0.475127 0)
(10.0029 0.0235737 0)
(10.0222 0.0504131 0)
(10.0436 0.0667874 0)
(10.0553 0.0815095 0)
(10.0606 0.0933956 0)
(10.0634 0.101882 0)
(10.0632 0.108902 0)
(10.0585 0.116324 0)
(10.0487 0.125221 0)
(10.0337 0.136408 0)
(10.013 0.150866 0)
(9.98624 0.169877 0)
(9.95324 0.195104 0)
(9.91396 0.228752 0)
(9.8688 0.273746 0)
(9.81903 0.333957 0)
(9.76739 0.414142 0)
(9.71964 0.519692 0)
(10.0024 0.0211168 0)
(10.0171 0.0534748 0)
(10.0323 0.0687664 0)
(10.038 0.0779344 0)
(10.037 0.0865055 0)
(10.033 0.0948049 0)
(10.026 0.103264 0)
(10.0148 0.112816 0)
(9.99877 0.124234 0)
(9.97792 0.138239 0)
(9.95201 0.155761 0)
(9.92078 0.178037 0)
(9.88414 0.206654 0)
(9.84235 0.243634 0)
(9.79622 0.291516 0)
(9.74784 0.353436 0)
(9.70024 0.43252 0)
(9.66121 0.532327 0)
(10.0018 0.0192554 0)
(10.0129 0.0494488 0)
(10.0248 0.0645004 0)
(10.0295 0.0745833 0)
(10.028 0.0853605 0)
(10.023 0.0964289 0)
(10.0148 0.107468 0)
(10.0023 0.119322 0)
(9.98527 0.132983 0)
(9.96353 0.149339 0)
(9.93705 0.169387 0)
(9.90571 0.194366 0)
(9.86954 0.225798 0)
(9.82892 0.265521 0)
(9.78474 0.315669 0)
(9.73888 0.378668 0)
(9.69397 0.456401 0)
(9.65537 0.551304 0)
(10.0013 0.0172554 0)
(10.0094 0.0453723 0)
(10.0189 0.0622192 0)
(10.0232 0.0746052 0)
(10.0218 0.0870719 0)
(10.0168 0.0995948 0)
(10.0086 0.112091 0)
(9.9966 0.125524 0)
(9.98031 0.140998 0)
(9.95976 0.159448 0)
(9.935 0.181852 0)
(9.90607 0.209388 0)
(9.87318 0.243457 0)
(9.83693 0.285675 0)
(9.79834 0.337796 0)
(9.75925 0.401651 0)
(9.72207 0.478419 0)
(9.69063 0.569666 0)
(10.0009 0.0156127 0)
(10.0068 0.0423441 0)
(10.0142 0.0607278 0)
(10.0179 0.0747572 0)
(10.0167 0.088251 0)
(10.0119 0.101908 0)
(10.0042 0.115914 0)
(9.99302 0.13113 0)
(9.97808 0.148587 0)
(9.95939 0.169202 0)
(9.9371 0.193911 0)
(9.9114 0.223806 0)
(9.88271 0.260144 0)
(9.85175 0.304299 0)
(9.8197 0.357664 0)
(9.78833 0.421558 0)
(9.75986 0.49666 0)
(9.73737 0.583854 0)
(10.0006 0.0143781 0)
(10.0049 0.0399865 0)
(10.0106 0.0593079 0)
(10.0136 0.0746642 0)
(10.0125 0.0892533 0)
(10.0082 0.10419 0)
(10.0011 0.119798 0)
(9.99103 0.136796 0)
(9.9777 0.156133 0)
(9.96117 0.178714 0)
(9.94169 0.205438 0)
(9.9196 0.237299 0)
(9.89543 0.275386 0)
(9.87003 0.320823 0)
(9.84462 0.374663 0)
(9.82087 0.43779 0)
(9.80074 0.510489 0)
(9.7868 0.593211 0)
(10.0004 0.0134527 0)
(10.0035 0.0380929 0)
(10.0078 0.058001 0)
(10.0102 0.0745625 0)
(10.0094 0.0903143 0)
(10.0056 0.106503 0)
(9.99934 0.123578 0)
(9.99054 0.142185 0)
(9.97902 0.163201 0)
(9.9649 0.187497 0)
(9.94849 0.215912 0)
(9.93025 0.24932 0)
(9.91079 0.288623 0)
(9.89102 0.334698 0)
(9.87213 0.388288 0)
(9.85567 0.449924 0)
(9.84331 0.519593 0)
(9.83722 0.59747 0)
(10.0003 0.0127506 0)
(10.0025 0.0365881 0)
(10.0057 0.056878 0)
(10.0077 0.0744766 0)
(10.0071 0.0913188 0)
(10.0041 0.108642 0)
(9.99883 0.127015 0)
(9.9915 0.14705 0)
(9.982 0.169536 0)
(9.97051 0.195275 0)
(9.95738 0.225021 0)
(9.94315 0.259512 0)
(9.92848 0.299464 0)
(9.9143 0.345522 0)
(9.90173 0.398159 0)
(9.89214 0.45763 0)
(9.88695 0.523703 0)
(9.88795 0.59637 0)
(10.0002 0.0122453 0)
(10.0019 0.0354681 0)
(10.0044 0.055978 0)
(10.0061 0.0743577 0)
(10.0059 0.0920951 0)
(10.0036 0.110351 0)
(9.99946 0.129769 0)
(9.99365 0.150933 0)
(9.98617 0.174545 0)
(9.97724 0.201322 0)
(9.96726 0.231926 0)
(9.95678 0.266967 0)
(9.94651 0.306998 0)
(9.93732 0.352466 0)
(9.93025 0.403638 0)
(9.92652 0.460567 0)
(9.92731 0.522876 0)
(9.9341 0.590458 0)
(10.0002 0.0118499 0)
(10.0015 0.0345531 0)
(10.0035 0.0551506 0)
(10.0051 0.0741183 0)
(10.0053 0.0926153 0)
(10.0039 0.111678 0)
(10.001 0.131967 0)
(9.99678 0.154043 0)
(9.99143 0.178524 0)
(9.98514 0.206031 0)
(9.97834 0.237128 0)
(9.9716 0.272301 0)
(9.96561 0.311951 0)
(9.96118 0.356355 0)
(9.95926 0.40561 0)
(9.96089 0.459614 0)
(9.96702 0.517893 0)
(9.97891 0.580269 0)
(10.0001 0.0114779 0)
(10.0012 0.0336498 0)
(10.003 0.0542228 0)
(10.0046 0.0736469 0)
(10.0054 0.0928147 0)
(10.0051 0.112603 0)
(10.0037 0.133649 0)
(10.0016 0.156475 0)
(9.99875 0.181605 0)
(9.99555 0.20955 0)
(9.99241 0.240753 0)
(9.98986 0.275564 0)
(9.98856 0.31423 0)
(9.98924 0.356863 0)
(9.99271 0.403406 0)
(9.99982 0.453635 0)
(10.0113 0.507005 0)
(10.0281 0.563298 0)
(10.0001 0.0110969 0)
(10.0011 0.0326806 0)
(10.0028 0.0530692 0)
(10.0048 0.0727296 0)
(10.0065 0.0923565 0)
(10.0075 0.11266 0)
(10.0081 0.134208 0)
(10.0084 0.157461 0)
(10.0085 0.182843 0)
(10.0088 0.210737 0)
(10.0097 0.24145 0)
(10.0117 0.275194 0)
(10.0154 0.312065 0)
(10.0213 0.352034 0)
(10.0302 0.39492 0)
(10.0426 0.44041 0)
(10.0591 0.487934 0)
(10.0803 0.537274 0)
(10.0001 0.0106493 0)
(10.0012 0.0314787 0)
(10.0032 0.0514166 0)
(10.0058 0.0709619 0)
(10.0087 0.0906716 0)
(10.0115 0.111097 0)
(10.0144 0.132703 0)
(10.0174 0.155861 0)
(10.0209 0.180882 0)
(10.0251 0.208018 0)
(10.0303 0.23744 0)
(10.037 0.269224 0)
(10.0456 0.303339 0)
(10.0566 0.339644 0)
(10.0705 0.377878 0)
(10.0877 0.417685 0)
(10.1085 0.458515 0)
(10.1334 0.500177 0)
(10.0002 0.0100324 0)
(10.0015 0.0297429 0)
(10.0041 0.0487838 0)
(10.0077 0.0676755 0)
(10.0121 0.0868743 0)
(10.017 0.106789 0)
(10.0225 0.12776 0)
(10.0287 0.150052 0)
(10.0358 0.173857 0)
(10.0439 0.199302 0)
(10.0535 0.226434 0)
(10.0647 0.255219 0)
(10.078 0.285532 0)
(10.0936 0.317163 0)
(10.1118 0.349817 0)
(10.1329 0.383145 0)
(10.1569 0.416659 0)
(10.1843 0.450215 0)
(10.0002 0.00907585 0)
(10.002 0.0269863 0)
(10.0054 0.0444152 0)
(10.0105 0.0618754 0)
(10.0168 0.0797321 0)
(10.0241 0.0982621 0)
(10.0325 0.117676 0)
(10.0419 0.138121 0)
(10.0526 0.159679 0)
(10.0646 0.182367 0)
(10.0782 0.206135 0)
(10.0935 0.230869 0)
(10.1107 0.25639 0)
(10.1299 0.282467 0)
(10.1514 0.308816 0)
(10.1752 0.335131 0)
(10.2012 0.361019 0)
(10.2296 0.386385 0)
(10.0003 0.00752334 0)
(10.0027 0.0224435 0)
(10.0074 0.0370883 0)
(10.0142 0.0519435 0)
(10.0227 0.0672777 0)
(10.0326 0.083234 0)
(10.0439 0.0998951 0)
(10.0565 0.117302 0)
(10.0705 0.135446 0)
(10.0859 0.154267 0)
(10.1029 0.173656 0)
(10.1213 0.193459 0)
(10.1414 0.213488 0)
(10.1632 0.233526 0)
(10.1865 0.253335 0)
(10.2115 0.272672 0)
(10.238 0.291249 0)
(10.2661 0.309006 0)
(10.0004 0.00566363 0)
(10.0034 0.0169624 0)
(10.0093 0.0282288 0)
(10.0178 0.039935 0)
(10.0282 0.0522531 0)
(10.0402 0.0651975 0)
(10.0536 0.0787453 0)
(10.0685 0.0928631 0)
(10.0847 0.107487 0)
(10.1023 0.122514 0)
(10.1213 0.137812 0)
(10.1415 0.153228 0)
(10.163 0.168593 0)
(10.1858 0.183726 0)
(10.2098 0.198438 0)
(10.2348 0.212546 0)
(10.2608 0.225847 0)
(10.2878 0.238303 0)
(10.0005 0.00382791 0)
(10.0041 0.0115972 0)
(10.011 0.0196925 0)
(10.0209 0.0285757 0)
(10.0328 0.0382714 0)
(10.0462 0.0486466 0)
(10.0612 0.0596098 0)
(10.0775 0.071099 0)
(10.0951 0.0830138 0)
(10.114 0.0952142 0)
(10.1341 0.107547 0)
(10.1553 0.119863 0)
(10.1775 0.13201 0)
(10.2007 0.143836 0)
(10.2247 0.155186 0)
(10.2495 0.16592 0)
(10.275 0.175882 0)
(10.301 0.185041 0)
(10.0005 0.0019163 0)
(10.0048 0.00607736 0)
(10.013 0.0111069 0)
(10.0242 0.017446 0)
(10.0374 0.0248506 0)
(10.0521 0.032962 0)
(10.0682 0.0416317 0)
(10.0856 0.0508235 0)
(10.1043 0.0604331 0)
(10.124 0.0703005 0)
(10.1448 0.0802716 0)
(10.1664 0.090207 0)
(10.189 0.0999642 0)
(10.2122 0.109399 0)
(10.2361 0.118376 0)
(10.2605 0.126774 0)
(10.2853 0.134474 0)
(10.3104 0.141451 0)
(10.0006 -8.46515e-05 0)
(10.0057 0.00040823 0)
(10.0153 0.00254265 0)
(10.0281 0.0066337 0)
(10.0424 0.0120809 0)
(10.058 0.0183268 0)
(10.075 0.0251299 0)
(10.0933 0.032409 0)
(10.1128 0.0400138 0)
(10.1332 0.0477722 0)
(10.1545 0.055549 0)
(10.1766 0.0632685 0)
(10.1993 0.0708333 0)
(10.2227 0.078127 0)
(10.2464 0.0850342 0)
(10.2705 0.0914529 0)
(10.2949 0.0972836 0)
(10.3194 0.1025 0)
(10.0008 -0.00225754 0)
(10.007 -0.005498 0)
(10.0183 -0.00575337 0)
(10.0326 -0.00352877 0)
(10.048 -4.43206e-05 0)
(10.0644 0.00435692 0)
(10.0821 0.00975876 0)
(10.101 0.0159008 0)
(10.1209 0.0224667 0)
(10.1416 0.0291828 0)
(10.1632 0.0358403 0)
(10.1854 0.0423671 0)
(10.2083 0.0486798 0)
(10.2316 0.0546944 0)
(10.2552 0.060334 0)
(10.2791 0.0655141 0)
(10.3029 0.0701524 0)
(10.3268 0.0742318 0)
(10.001 -0.00466178 0)
(10.0089 -0.0121645 0)
(10.0223 -0.0138464 0)
(10.0378 -0.0120768 0)
(10.054 -0.0100722 0)
(10.0714 -0.00811969 0)
(10.0901 -0.00543252 0)
(10.1099 -0.00190581 0)
(10.1303 0.0021832 0)
(10.1514 0.00668792 0)
(10.1731 0.0115656 0)
(10.1955 0.0165467 0)
(10.2183 0.0214318 0)
(10.2416 0.0261189 0)
(10.265 0.0305607 0)
(10.2886 0.03468 0)
(10.3122 0.0383911 0)
(10.3357 0.04167 0)
(10.0013 -0.00684386 0)
(10.0116 -0.0200169 0)
(10.0281 -0.024166 0)
(10.0446 -0.0213645 0)
(10.0605 -0.0170481 0)
(10.0778 -0.0130155 0)
(10.0969 -0.00914098 0)
(10.1173 -0.00526191 0)
(10.1384 -0.00144722 0)
(10.1603 0.00236679 0)
(10.1828 0.00626417 0)
(10.2057 0.0101128 0)
(10.2289 0.0138085 0)
(10.2525 0.0172543 0)
(10.2763 0.0203365 0)
(10.3 0.0230535 0)
(10.3237 0.0254217 0)
(10.3471 0.0274716 0)
(10.001 -0.00814382 0)
(10.0134 -0.023842 0)
(10.0348 -0.0364025 0)
(10.0553 -0.0446942 0)
(10.0735 -0.0484593 0)
(10.0923 -0.0483031 0)
(10.1129 -0.0457266 0)
(10.1347 -0.0420372 0)
(10.1573 -0.0378733 0)
(10.1805 -0.0335281 0)
(10.2043 -0.029215 0)
(10.2284 -0.0249685 0)
(10.2528 -0.0208556 0)
(10.2772 -0.0169877 0)
(10.3016 -0.0134817 0)
(10.3259 -0.0103533 0)
(10.35 -0.00759132 0)
(10.3738 -0.00513351 0)
(10.0014 -0.0166563 0)
(10.0191 -0.0062508 0)
(10.048 0.0108679 0)
(10.079 0.0132064 0)
(10.1096 0.00748096 0)
(10.1403 0.0016732 0)
(10.1707 -0.00247528 0)
(10.2002 -0.0054413 0)
(10.2287 -0.00751893 0)
(10.2562 -0.00882313 0)
(10.2829 -0.00949731 0)
(10.3087 -0.00966881 0)
(10.3336 -0.00949799 0)
(10.3578 -0.00911639 0)
(10.3811 -0.00859964 0)
(10.4038 -0.00808613 0)
(10.4258 -0.00770087 0)
(10.447 -0.00757446 0)
(10.0417 -0.0989862 0)
(10.1404 -0.173715 0)
(10.211 -0.168663 0)
(10.256 -0.150063 0)
(10.2895 -0.134305 0)
(10.3153 -0.120275 0)
(10.3334 -0.107493 0)
(10.3445 -0.0962989 0)
(10.3504 -0.0865899 0)
(10.3525 -0.0780567 0)
(10.352 -0.0704735 0)
(10.3498 -0.0636965 0)
(10.3463 -0.0576406 0)
(10.3421 -0.0522415 0)
(10.3376 -0.0474455 0)
(10.333 -0.0432961 0)
(10.3285 -0.0397975 0)
(10.3247 -0.0373842 0)
(9.89456 0.173826 0)
(9.69886 0.154414 0)
(9.49072 0.104479 0)
(9.27856 0.0670451 0)
(9.07913 0.0411911 0)
(8.89898 0.0242305 0)
(8.73762 0.013323 0)
(8.5936 0.00618804 0)
(8.4659 0.00147086 0)
(8.35344 -0.00160062 0)
(8.25486 -0.00353275 0)
(8.16867 -0.00468196 0)
(8.09345 -0.00530422 0)
(8.02788 -0.00558345 0)
(7.97069 -0.00565476 0)
(7.9207 -0.00566066 0)
(7.87636 -0.0057092 0)
(7.83728 -0.00619082 0)
(-0.46045 0.564236 -5.7812e-20)
(-0.0607106 -0.180402 5.31491e-20)
(0.654302 -0.903 0)
(1.49993 -1.19047 0)
(2.3542 -1.14795 0)
(3.10308 -0.933009 -3.36495e-20)
(3.65205 -0.645866 0)
(3.96849 -0.331481 0)
(4.0631 -0.00346955 0)
(3.90009 0.311425 0)
(3.51147 0.577768 3.56003e-20)
(2.94786 0.750496 0)
(2.27695 0.787894 0)
(1.59148 0.673956 0)
(1.01218 0.422927 0)
(0.636869 0.0713036 4.93523e-20)
(0.468399 -0.267289 0)
(0.564363 -0.481655 0)
(0.785211 -0.646218 0)
(1.00769 -0.661296 0)
(1.18575 -0.64133 0)
(1.21363 -0.634533 0)
(1.062 -0.51103 0)
(0.710739 -0.172562 4.86343e-20)
(0.0969083 0.248083 -4.83091e-20)
(-0.710451 0.560445 4.15376e-20)
(-1.6243 0.782559 3.5246e-20)
(-2.59814 0.925441 0)
(-3.59033 0.997025 0)
(-4.56425 1.00841 -2.93539e-20)
(-5.49065 0.972418 -2.96282e-20)
(-6.34794 0.901892 0)
(-7.12178 0.808547 0)
(-7.80386 0.702312 -3.22445e-20)
(-8.39065 0.591079 0)
(-8.88221 0.480786 0)
(-9.28114 0.375788 3.45835e-20)
(-9.5917 0.279169 0)
(-9.81947 0.193 3.52694e-20)
(-9.97092 0.118903 7.06264e-20)
(-10.0518 0.0583693 0)
(-10.0692 0.0113542 0)
(-10.0394 -0.0246661 0)
(-9.97083 -0.053541 0)
(-9.8688 -0.0776716 0)
(-9.73751 -0.0984241 6.12868e-20)
(-9.58043 -0.116536 5.8319e-20)
(-9.40034 -0.132516 5.50294e-20)
(-9.19951 -0.146784 0)
(-8.97975 -0.15973 -4.75717e-20)
(-8.74236 -0.171731 0)
(-8.48819 -0.183159 3.90315e-20)
(-8.21757 -0.194358 3.43623e-20)
(-7.93038 -0.205632 0)
(-7.62609 -0.217211 0)
(-7.30391 -0.22922 0)
(-6.9629 -0.241656 1.26797e-20)
(-6.60226 -0.254362 0)
(-6.22155 -0.267024 0)
(-5.82095 -0.279186 0)
(-5.40147 -0.290286 0)
(-4.96515 -0.29972 0)
(-4.51498 -0.306919 0)
(-4.05491 -0.311425 0)
(-3.58953 -0.312958 0)
(-3.12381 -0.311442 5.97817e-20)
(-2.66273 -0.306991 0)
(-2.21098 -0.299856 0)
(-1.7727 -0.290378 -9.05856e-20)
(-1.35133 -0.278904 -1.01295e-19)
(-0.949398 -0.265633 0)
(-0.568303 -0.250556 1.23195e-19)
(-0.208101 -0.2339 -1.32437e-19)
(0.132014 -0.216231 0)
(0.453 -0.198967 1.26342e-19)
(0.75472 -0.183115 0)
(1.03736 -0.168755 0)
(1.30241 -0.15587 -1.10856e-19)
(1.55152 -0.144441 0)
(1.78638 -0.134425 1.0265e-19)
(2.00871 -0.125769 0)
(2.22028 -0.118423 -9.56627e-20)
(2.42282 -0.112407 -9.25351e-20)
(2.61805 -0.107939 -8.96107e-20)
(2.80778 -0.105568 -1.73724e-19)
(2.99402 -0.105756 1.68543e-19)
(3.1784 -0.106021 0)
(3.35935 -0.0938958 0)
(3.52331 -0.0440316 0)
(3.62357 0.0563369 1.55923e-19)
(3.60531 0.172691 1.55133e-19)
(3.47815 0.258227 -1.55993e-19)
(3.26675 0.283067 0)
(3.0073 0.246187 1.6058e-19)
(2.73906 0.167935 1.63289e-19)
(2.49408 0.0756918 1.65865e-19)
(2.29301 -0.00736589 0)
(2.14497 -0.0677088 0)
(2.05014 -0.101975 0)
(2.00488 -0.115506 1.71971e-19)
(2.00825 -0.120328 0)
(2.07065 -0.127721 0)
(2.20911 -0.138212 -1.65634e-19)
(2.42998 -0.139127 0)
(2.70493 -0.11482 0)
(2.96474 -0.0697642 -1.56937e-19)
(3.12739 -0.0387465 0)
(3.12863 -0.0395328 0)
(2.8918 0.00599556 1.52865e-19)
(2.24203 0.206591 1.53038e-19)
(1.06143 0.512234 0)
(-0.481355 0.70313 -1.06638e-19)
(-2.05639 0.724541 0)
(-3.50199 0.653369 2.29307e-20)
(-4.74566 0.54378 0)
(-5.76309 0.427084 -2.83546e-20)
(-6.56104 0.318059 -4.53912e-20)
(-7.15828 0.22189 0)
(-7.5758 0.139466 0)
(-7.83127 0.0709199 0)
(-7.94203 0.0150567 0)
(-7.92822 -0.0311747 0)
(-7.81994 -0.0703881 0)
(-7.61805 -0.107652 0)
(-7.32498 -0.144323 -5.15722e-20)
(-6.94115 -0.180798 3.84621e-20)
(-6.46644 -0.217083 0)
(-5.90114 -0.252878 0)
(-5.24705 -0.287526 0)
(-4.50895 -0.319891 0)
(-3.69586 -0.348248 -1.49129e-19)
(-2.82138 -0.370346 0)
(-1.90328 -0.383788 2.84218e-19)
(-0.960289 -0.385997 -3.60977e-19)
(-0.00878635 -0.374122 0)
(0.936397 -0.35277 0)
(1.85642 -0.328888 0)
(2.73384 -0.303565 3.46162e-19)
(3.55976 -0.277524 3.21417e-19)
(4.32965 -0.251537 0)
(5.04132 -0.226071 2.71762e-19)
(5.69394 -0.201442 2.48072e-19)
(6.28721 -0.177333 -2.25679e-19)
(6.81963 -0.151751 0)
(7.28477 -0.12512 0)
(7.67716 -0.103287 -1.69434e-19)
(8.00636 -0.0682027 0)
(8.1872 0.0222756 0)
(8.0732 0.164511 0)
(7.62058 0.326954 0)
(6.81712 0.460388 1.35519e-19)
(5.70879 0.508181 1.35608e-19)
(4.43162 0.436372 0)
(3.1874 0.275126 1.27907e-19)
(2.14403 0.11434 0)
(1.34476 0.0264831 0)
(0.73993 0.00644202 1.03309e-19)
(0.270626 0.00556802 0)
(-0.0644841 0.00145069 9.17063e-20)
(-0.240398 -0.0191443 0)
(-0.291078 -0.0430871 0)
(-0.240656 -0.0571967 1.16432e-19)
(-0.112512 -0.0631758 0)
(0.0631501 -0.065505 1.47406e-19)
(0.246971 -0.0596538 0)
(0.430021 -0.0523636 0)
(0.580527 -0.0465524 0)
(0.698039 -0.0385998 -1.86426e-19)
(0.789913 -0.0316503 0)
(0.868369 -0.0294636 1.95858e-19)
(0.955109 -0.0339272 0)
(1.08193 -0.0450527 0)
(1.28365 -0.0578767 0)
(1.56785 -0.0578065 0)
(1.86369 -0.030369 0)
(2.03096 0.0103691 0)
(1.97168 0.0465574 0)
(1.60036 0.107394 -3.88343e-19)
(0.849418 0.179879 0)
(-0.0615967 0.171909 0)
(0.12398 0.380348 1.59353e-19)
(1.08603 -1.57382 -1.13783e-19)
(2.02262 -2.78874 0)
(2.76753 -2.98104 6.59982e-20)
(3.30218 -2.58637 0)
(3.66541 -1.97146 2.88697e-20)
(3.89607 -1.31698 -7.83891e-20)
(4.01487 -0.681892 -8.2788e-20)
(4.03101 -0.0688288 0)
(3.98342 0.526802 -8.08658e-20)
(3.83999 1.07617 -3.20326e-20)
(3.567 1.51719 0)
(3.15677 1.76423 0)
(2.64192 1.74355 0)
(2.09742 1.45046 0)
(1.62459 1.01652 -3.71867e-20)
(1.37325 0.554579 0)
(1.2681 -0.0124046 7.96547e-20)
(0.992332 -0.446575 0)
(0.488866 -0.252521 0)
(-0.29795 0.394698 -8.84574e-20)
(-1.32081 0.987484 0)
(-2.42454 1.5134 5.94521e-20)
(-3.55589 1.96362 -2.39949e-20)
(-4.66862 2.29576 2.06272e-20)
(-5.71985 2.48731 -1.84465e-20)
(-6.67904 2.5518 -1.73067e-20)
(-7.52661 2.50781 0)
(-8.25092 2.37918 0)
(-8.84951 2.19089 1.87584e-20)
(-9.32788 1.96605 -2.88051e-20)
(-9.69717 1.72402 0)
(-9.97183 1.47952 0)
(-10.1676 1.24272 2.62251e-20)
(-10.2998 1.01985 0)
(-10.3821 0.814092 0)
(-10.4264 0.626521 -3.12764e-20)
(-10.4418 0.457026 0)
(-10.4355 0.305012 3.73427e-20)
(-10.4119 0.17 -6.7434e-20)
(-10.3747 0.0519935 0)
(-10.3243 -0.0494419 0)
(-10.2505 -0.136052 -1.35519e-19)
(-10.15 -0.210644 -1.31323e-19)
(-10.0234 -0.275385 -1.26437e-19)
(-9.87215 -0.331874 6.20573e-20)
(-9.69801 -0.381316 -5.59224e-20)
(-9.50308 -0.424772 -1.60782e-19)
(-9.28923 -0.463266 1.009e-19)
(-9.05802 -0.49784 4.54071e-20)
(-8.81063 -0.529559 0)
(-8.54777 -0.559487 -3.71106e-20)
(-8.26964 -0.588644 3.50426e-20)
(-7.97593 -0.617927 0)
(-7.66588 -0.648027 0)
(-7.3384 -0.679333 0)
(-6.99221 -0.711838 -1.18754e-20)
(-6.62613 -0.745074 0)
(-6.23934 -0.778089 2.67527e-21)
(-5.83174 -0.809489 0)
(-5.40417 -0.837555 -2.44366e-20)
(-4.9586 -0.860437 0)
(-4.49823 -0.876397 5.45739e-20)
(-4.02729 -0.884068 0)
(-3.5508 -0.882655 -8.73701e-20)
(-3.07415 -0.872053 5.08623e-20)
(-2.60269 -0.852826 0)
(-2.14128 -0.826093 1.40213e-19)
(-1.69409 -0.793323 8.04838e-20)
(-1.26438 -0.756104 8.97294e-20)
(-0.854382 -0.715912 0)
(-0.465217 -0.673957 1.06449e-19)
(-0.0971568 -0.631056 1.14682e-19)
(0.249428 -0.588123 0)
(0.575181 -0.546604 -1.09638e-19)
(0.880569 -0.507795 2.10205e-19)
(1.16674 -0.472044 0)
(1.43522 -0.439521 9.90882e-20)
(1.68757 -0.410319 0)
(1.9254 -0.384459 -2.77991e-19)
(2.15034 -0.3619 0)
(2.36407 -0.342548 2.61989e-19)
(2.56827 -0.326243 8.51927e-20)
(2.76453 -0.312746 -8.19235e-20)
(2.95409 -0.301686 -1.59475e-19)
(3.13748 -0.292388 1.55356e-19)
(3.31437 -0.282944 0)
(3.48565 -0.267278 0)
(3.66 -0.232111 0)
(3.86742 -0.164109 -4.28571e-19)
(4.134 -0.0656054 -1.38954e-19)
(4.42272 0.0505808 1.34737e-19)
(4.68599 0.165942 0)
(4.88662 0.261599 1.2517e-19)
(5.00012 0.32486 -1.23774e-19)
(5.00883 0.351115 -1.22657e-19)
(4.90645 0.34194 0)
(4.703 0.302574 0)
(4.42708 0.239742 0)
(4.12271 0.157382 -1.33455e-19)
(3.84176 0.0537227 0)
(3.63207 -0.0723241 2.82584e-19)
(3.5318 -0.212652 4.23289e-19)
(3.55803 -0.336377 -2.81179e-19)
(3.68943 -0.384182 0)
(3.84 -0.309018 -1.43053e-19)
(3.8404 -0.0976757 0)
(3.36539 0.304984 -2.91188e-19)
(2.07017 0.941695 1.51359e-19)
(0.0980049 1.61499 1.27034e-19)
(-1.90007 1.95401 0)
(-3.5881 1.96634 1.87438e-19)
(-4.88234 1.76957 -6.32519e-20)
(-5.81935 1.48308 -1.79315e-20)
(-6.47251 1.18572 0)
(-6.91832 0.914741 2.51283e-20)
(-7.219 0.680888 1.38252e-19)
(-7.41823 0.482012 0)
(-7.5435 0.311771 1.38824e-19)
(-7.61125 0.164581 1.50224e-19)
(-7.62639 0.0359988 1.54403e-19)
(-7.58084 -0.079036 0)
(-7.44919 -0.184281 0)
(-7.23236 -0.284997 0)
(-6.92892 -0.383314 -5.60462e-20)
(-6.53802 -0.480003 -3.6985e-20)
(-6.05886 -0.574978 0)
(-5.49114 -0.667371 -1.26659e-20)
(-4.836 -0.755509 2.92848e-20)
(-4.09734 -0.836833 0)
(-3.28313 -0.907784 1.36712e-19)
(-2.40625 -0.963907 3.7117e-19)
(-1.48357 -1.00082 -2.55059e-19)
(-0.532969 -1.01413 -2.9431e-19)
(0.428309 -0.999329 0)
(1.38096 -0.962651 0)
(2.30667 -0.913911 0)
(3.19107 -0.857124 -2.99868e-19)
(4.02612 -0.795776 2.73769e-19)
(4.80768 -0.732771 5.1949e-19)
(5.53422 -0.669858 -2.44131e-19)
(6.20554 -0.607669 2.18857e-19)
(6.82123 -0.545812 2.06008e-19)
(7.38028 -0.482653 0)
(7.88341 -0.416287 0)
(8.32466 -0.344967 -1.52899e-19)
(8.67789 -0.254045 0)
(9.0005 -0.117337 0)
(9.38191 0.0728117 2.41524e-19)
(9.75055 0.317013 0)
(9.9722 0.595672 9.60725e-20)
(9.8987 0.854905 -9.97699e-20)
(9.44224 1.02069 0)
(8.62176 1.04677 7.72661e-20)
(7.53177 0.945133 0)
(6.29378 0.770279 0)
(5.06039 0.582192 -6.82286e-20)
(3.99471 0.409365 1.29882e-19)
(3.16784 0.25485 -6.6354e-20)
(2.55986 0.1189 0)
(2.12432 0.0103811 0)
(1.84607 -0.0654047 9.61971e-20)
(1.68751 -0.111186 0)
(1.59918 -0.130836 1.26674e-19)
(1.56533 -0.131593 0)
(1.55193 -0.117395 0)
(1.55848 -0.0945744 0)
(1.57429 -0.0727305 1.70538e-19)
(1.58962 -0.0584695 0)
(1.60426 -0.0570897 -1.81671e-19)
(1.62881 -0.0750116 0)
(1.68715 -0.118131 0)
(1.81555 -0.181558 3.73074e-19)
(2.04558 -0.227158 -3.7299e-19)
(2.35246 -0.190785 0)
(2.5897 -0.0512829 0)
(2.47456 0.16174 0)
(1.72118 0.4338 1.08363e-18)
(0.462693 0.644147 0)
(-0.662529 0.59427 -5.6933e-19)
(0.586497 -1.89229 1.2115e-20)
(1.46925 -4.23849 1.35094e-19)
(2.09588 -4.49747 0)
(2.38614 -3.77985 -1.45601e-19)
(2.45636 -2.83952 0)
(2.44803 -1.95439 0)
(2.42682 -1.17484 -1.20429e-20)
(2.4007 -0.470756 1.05288e-19)
(2.36482 0.19555 1.19976e-19)
(2.32305 0.83491 1.01659e-19)
(2.24487 1.45454 0)
(2.10266 2.01431 0)
(1.87537 2.41517 -8.61255e-20)
(1.56525 2.55211 -1.5958e-19)
(1.22239 2.32356 1.53866e-19)
(0.91954 1.59703 0)
(0.60539 0.583644 1.73778e-19)
(-0.084106 0.504195 -8.27982e-20)
(-1.23437 1.2208 0)
(-2.47973 1.97906 1.07252e-19)
(-3.7222 2.66096 4.39302e-20)
(-4.89545 3.20147 -8.56273e-20)
(-5.95146 3.5873 -3.59919e-20)
(-6.8584 3.81692 0)
(-7.59771 3.89299 8.26924e-20)
(-8.17306 3.82633 8.56183e-20)
(-8.60233 3.64011 0)
(-8.91148 3.36536 9.54328e-20)
(-9.13033 3.03467 0)
(-9.28815 2.67768 1.08643e-19)
(-9.40999 2.31816 4.76232e-20)
(-9.51437 1.97287 0)
(-9.61241 1.6518 0)
(-9.70849 1.35937 0)
(-9.80173 1.09603 0)
(-9.888 0.859909 0)
(-9.96162 0.647944 0)
(-10.0167 0.456789 1.50021e-19)
(-10.0481 0.283332 -2.22487e-19)
(-10.052 0.1249 0)
(-10.0264 -0.020831 0)
(-9.9715 -0.1554 0)
(-9.88906 -0.278719 -6.50664e-21)
(-9.78154 -0.390087 1.31308e-19)
(-9.65101 -0.489541 2.57917e-19)
(-9.49941 -0.577665 -2.46101e-19)
(-9.3286 -0.655427 -1.18753e-19)
(-9.14037 -0.724026 1.07605e-19)
(-8.93631 -0.784862 3.70591e-21)
(-8.71771 -0.839508 9.60574e-20)
(-8.48546 -0.889677 0)
(-8.24 -0.937155 7.91418e-20)
(-7.98118 -0.983703 3.48491e-21)
(-7.70825 -1.03092 0)
(-7.41989 -1.08008 0)
(-7.11427 -1.13193 -4.11193e-20)
(-6.78926 -1.18654 0)
(-6.4427 -1.2431 0)
(-6.07285 -1.29994 1.22524e-20)
(-5.67875 -1.3545 -1.03127e-20)
(-5.26071 -1.40361 2.34028e-20)
(-4.82054 -1.44379 0)
(-4.36175 -1.47176 -5.18639e-20)
(-3.88929 -1.48493 0)
(-3.40922 -1.4818 -7.43554e-20)
(-2.92811 -1.46214 -9.84803e-20)
(-2.45235 -1.42704 2.22623e-19)
(-1.98767 -1.37861 1.24893e-19)
(-1.53872 -1.31964 0)
(-1.10899 -1.2532 -3.24619e-19)
(-0.700685 -1.18231 0)
(-0.314614 -1.10969 -5.93558e-19)
(0.0490078 -1.03735 -4.07485e-19)
(0.390145 -0.966818 -3.98081e-19)
(0.709856 -0.899594 3.87786e-19)
(1.00868 -0.836556 -5.68511e-19)
(1.28803 -0.778186 0)
(1.54941 -0.724797 0)
(1.79436 -0.676558 3.49139e-19)
(2.02439 -0.633526 5.11903e-19)
(2.24102 -0.595683 0)
(2.44575 -0.562948 -1.63115e-19)
(2.64009 -0.535158 0)
(2.82553 -0.511986 4.63521e-19)
(3.00357 -0.492771 2.30893e-21)
(3.17561 -0.4762 -2.23333e-21)
(3.34296 -0.460013 -2.87641e-19)
(3.5072 -0.441346 0)
(3.67103 -0.417639 2.76151e-19)
(3.84042 -0.384461 2.04536e-21)
(4.02737 -0.332798 0)
(4.24547 -0.259424 0)
(4.50498 -0.166418 0)
(4.79583 -0.0584439 -2.47436e-19)
(5.08611 0.060164 0)
(5.33215 0.183339 0)
(5.49064 0.299562 0)
(5.52987 0.391522 0)
(5.44167 0.440222 0)
(5.24461 0.429998 -2.32653e-19)
(4.97717 0.349559 0)
(4.68882 0.18966 -2.53362e-19)
(4.43585 -0.0397748 -2.60851e-19)
(4.26438 -0.268726 2.64278e-19)
(4.14708 -0.358331 0)
(3.93241 -0.153631 2.84668e-19)
(3.29399 0.47453 0)
(1.8989 1.50608 2.907e-19)
(-0.108133 2.57558 -2.53027e-19)
(-1.962 3.14805 -5.35877e-19)
(-3.33019 3.20136 0)
(-4.25066 2.90481 -2.51895e-19)
(-4.86084 2.44395 6.62664e-22)
(-5.30543 1.95985 0)
(-5.67637 1.52549 9.93725e-20)
(-6.00998 1.16149 1.66938e-19)
(-6.30808 0.861455 -3.21888e-19)
(-6.55879 0.610326 0)
(-6.74829 0.393261 -1.41169e-19)
(-6.86602 0.198501 -1.53007e-19)
(-6.90609 0.0179161 -4.88451e-19)
(-6.86577 -0.153956 0)
(-6.74469 -0.320484 0)
(-6.54255 -0.482611 0)
(-6.25802 -0.641758 -1.22306e-19)
(-5.8896 -0.798631 0)
(-5.43576 -0.952894 0)
(-4.89532 -1.10293 1.22559e-20)
(-4.26847 -1.24556 -2.80975e-20)
(-3.55804 -1.37604 0)
(-2.77088 -1.48822 0)
(-1.91906 -1.57521 -3.46655e-19)
(-1.01883 -1.6313 0)
(-0.0885587 -1.65011 5.3574e-19)
(0.852083 -1.62955 5.4029e-19)
(1.78243 -1.57737 0)
(2.68437 -1.50254 0)
(3.54491 -1.41264 -5.16682e-19)
(4.35662 -1.31452 -1.12474e-20)
(5.1161 -1.21337 -1.00841e-20)
(5.82259 -1.11229 0)
(6.47651 -1.01238 -8.1719e-19)
(7.07842 -0.913043 0)
(7.62811 -0.812658 0)
(8.12436 -0.707837 0)
(8.56586 -0.591768 2.94733e-19)
(8.94881 -0.460745 0)
(9.26353 -0.315714 -4.91905e-19)
(9.5155 -0.141408 -2.38066e-19)
(9.75923 0.0882673 0)
(10.0552 0.389053 -1.99689e-19)
(10.3959 0.740621 0)
(10.6688 1.07576 0)
(10.7184 1.31453 -3.98166e-19)
(10.4382 1.41494 2.31549e-19)
(9.81978 1.38473 0)
(8.95308 1.25395 1.97493e-19)
(7.98128 1.05044 -9.66273e-20)
(7.02142 0.805763 0)
(6.13922 0.558549 0)
(5.37191 0.343088 0)
(4.73853 0.174646 -4.59595e-19)
(4.22769 0.0556583 0)
(3.82188 -0.0161537 -2.12555e-19)
(3.50122 -0.0491695 0)
(3.24317 -0.0573395 0)
(3.02898 -0.0539212 0)
(2.84652 -0.0462019 0)
(2.69081 -0.0394573 0)
(2.56073 -0.0421388 0)
(2.45935 -0.0666756 -6.9471e-19)
(2.39306 -0.127473 0)
(2.37561 -0.228364 -3.54624e-19)
(2.43269 -0.320739 1.07243e-18)
(2.56897 -0.287568 0)
(2.65905 -0.0378844 0)
(2.37125 0.398661 -7.11197e-19)
(1.46074 0.882388 -6.74042e-19)
(0.31373 1.13432 6.07445e-19)
(-0.511546 0.992451 5.32084e-19)
(0.502947 -4.12651 -2.76292e-19)
(1.05964 -5.49708 -2.36275e-19)
(1.20592 -4.57457 -1.79273e-19)
(1.16667 -3.46684 -1.09373e-19)
(1.09122 -2.54358 0)
(1.01944 -1.76073 2.61875e-19)
(0.945632 -1.06076 -1.50377e-19)
(0.85855 -0.418761 0)
(0.755148 0.253058 -1.64258e-19)
(0.624219 1.01561 0)
(0.442619 1.8129 2.91154e-19)
(0.229821 2.53728 0)
(0.0335474 2.99761 1.10959e-19)
(-0.125559 2.97097 1.88326e-19)
(-0.303494 2.4593 -1.62037e-19)
(-0.7347 1.99391 0)
(-1.6466 2.20577 -1.10289e-19)
(-2.85542 2.92286 0)
(-4.10447 3.66612 0)
(-5.23646 4.23887 -7.02489e-20)
(-6.20313 4.63732 0)
(-6.98132 4.85672 -1.48796e-20)
(-7.57202 4.90527 0)
(-7.99089 4.80727 0)
(-8.26687 4.59214 1.8551e-20)
(-8.43767 4.29153 -8.20165e-20)
(-8.54255 3.93826 -1.0818e-19)
(-8.61675 3.56185 -9.54153e-20)
(-8.68653 3.18463 0)
(-8.76715 2.82042 -2.39264e-19)
(-8.86357 2.47545 0)
(-8.97297 2.15065 -1.4186e-19)
(-9.088 1.84421 0)
(-9.19967 1.55363 0)
(-9.29935 1.2769 1.57422e-19)
(-9.37999 1.01303 0)
(-9.43655 0.762083 -1.64516e-19)
(-9.46595 0.524808 1.26241e-20)
(-9.46674 0.302314 3.24487e-19)
(-9.43899 0.0955455 -3.36144e-19)
(-9.38367 -0.0949986 0)
(-9.30266 -0.269325 0)
(-9.1981 -0.427742 -1.63301e-19)
(-9.07254 -0.570463 0)
(-8.92878 -0.697924 -1.3615e-19)
(-8.76961 -0.810905 1.29792e-19)
(-8.59765 -0.910575 1.22861e-19)
(-8.4152 -0.99846 0)
(-8.22409 -1.07641 -1.07496e-19)
(-8.02554 -1.14655 -9.91651e-20)
(-7.82013 -1.21126 1.89067e-19)
(-7.60772 -1.27309 -8.14011e-20)
(-7.38739 -1.33465 -7.20094e-20)
(-7.15743 -1.39842 0)
(-6.91531 -1.46646 0)
(-6.65773 -1.54015 4.17054e-20)
(-6.38087 -1.61979 0)
(-6.08066 -1.70433 0)
(-5.75336 -1.7912 -1.48208e-20)
(-5.3962 -1.87634 1.02484e-20)
(-5.00807 -1.95453 0)
(-4.59008 -2.01996 0)
(-4.14584 -2.06706 0)
(-3.68129 -2.0914 0)
(-3.20411 -2.09043 1.53e-19)
(-2.7228 -2.06385 -1.74556e-19)
(-2.24565 -2.01355 -2.16531e-19)
(-1.7799 -1.94311 -4.89796e-19)
(-1.33129 -1.85712 0)
(-0.903847 -1.7605 7.41704e-21)
(-0.499879 -1.65789 0)
(-0.119954 -1.55309 3.72072e-19)
(0.235954 -1.44913 6.17668e-21)
(0.5687 -1.34833 3.68038e-19)
(0.87911 -1.25272 -3.60493e-19)
(1.16838 -1.1633 4.6642e-21)
(1.4381 -1.08065 0)
(1.68989 -1.0051 -3.33488e-19)
(1.92531 -0.936751 -3.2998e-19)
(2.14585 -0.875567 -6.41775e-19)
(2.3529 -0.821444 0)
(2.54782 -0.774227 3.05444e-19)
(2.7319 -0.733709 0)
(2.90645 -0.699573 -5.87952e-19)
(3.07287 -0.671267 2.89169e-19)
(3.23274 -0.647768 -2.83178e-19)
(3.38816 -0.62723 2.77444e-19)
(3.54199 -0.606685 5.38853e-19)
(3.69787 -0.582163 -2.66811e-19)
(3.86019 -0.549145 2.61905e-19)
(4.03409 -0.504149 0)
(4.22378 -0.448338 -4.99727e-19)
(4.43022 -0.383472 0)
(4.65174 -0.305151 -4.81543e-19)
(4.88649 -0.201102 4.73017e-19)
(5.12941 -0.05805 4.61208e-19)
(5.3575 0.122851 -4.45918e-19)
(5.52949 0.317245 -4.34696e-19)
(5.6024 0.484269 0)
(5.54922 0.581827 -2.17783e-19)
(5.37169 0.576838 0)
(5.1067 0.446218 0)
(4.81256 0.199572 -5.12534e-19)
(4.51371 -0.0492879 0)
(4.13268 -0.0464436 0)
(3.44388 0.498966 -5.65977e-19)
(2.17521 1.67262 0)