/*--------------------------------*- C++ -*----------------------------------*\
  =========                 |
  \\      /  F ield         | OpenFOAM: The Open Source CFD Toolbox
   \\    /   O peration     | Website:  https://openfoam.org
    \\  /    A nd           | Version:  9
     \\/     M anipulation  |
\*---------------------------------------------------------------------------*/
FoamFile
{
    format      ascii;
    class       volScalarField;
    location    "0.3";
    object      epsilonU;
}
// * * * * * * * * * * * * * * * * * * * * * * * * * * * * * * * * * * * * * //

dimensions      [0 2 -3 0 0 0 0];

internalField   nonuniform List<scalar> 
12225
(
222.793
168.146
130.394
104.87
88.4392
78.9078
74.6597
74.425
77.1602
81.9907
88.1851
95.1451
102.403
109.622
116.595
123.234
129.6
137.402
39.9898
48.8674
52.9441
57.3508
64.3984
75.4468
91.4529
113
140.222
172.788
209.991
250.928
294.722
340.743
388.829
439.411
493.781
554.81
19.9179
23.9464
26.7539
29.0443
31.3956
34.2309
37.8731
42.5564
48.4166
55.4951
63.765
73.1782
83.7253
95.5109
108.842
124.337
143.062
166.751
15.8916
17.221
18.3846
19.3856
20.3262
21.3116
22.4313
23.7533
25.321
27.1552
29.2629
31.6495
34.3362
37.3806
40.9044
45.1328
50.4587
57.4645
14.8198
15.0551
15.3712
15.6936
16.0109
16.335
16.6854
17.0814
17.5383
18.0659
18.6707
19.3587
20.1403
21.0359
22.084
23.3528
24.9573
27.0671
14.5164
14.3171
14.2179
14.1755
14.1668
14.1814
14.217
14.275
14.3584
14.4701
14.6128
14.7896
15.0053
15.2677
15.5898
15.9937
16.5136
17.1932
14.4326
14.0737
13.7869
13.5567
13.3697
13.2162
13.0896
12.9862
12.9042
12.8427
12.8019
12.7824
12.786
12.8157
12.8765
12.9763
13.1267
13.3385
14.4107
13.999
13.6371
13.3202
13.0425
12.7983
12.5828
12.3921
12.2233
12.0745
11.9445
11.8325
11.7388
11.6641
11.6102
11.58
11.5776
11.6056
14.4053
13.978
13.5898
13.238
12.9195
12.6312
12.3698
12.1325
11.9169
11.7211
11.5434
11.3828
11.2386
11.1108
10.9996
10.9058
10.831
10.7756
14.404
13.9725
13.5762
13.2122
12.8779
12.5708
12.2885
12.0288
11.7897
11.5696
11.3669
11.1806
11.0097
10.8537
10.7124
10.5857
10.4739
10.3774
14.4037
13.9712
13.5726
13.2048
12.8652
12.5512
12.2607
11.9916
11.7421
11.5108
11.2962
11.0973
10.913
10.7427
10.586
10.4423
10.3116
10.1941
14.4036
13.9708
13.5717
13.2029
12.8618
12.5458
12.2527
11.9804
11.7273
11.4919
11.2727
11.0687
10.879
10.7027
10.5391
10.3879
10.2486
10.1216
14.4035
13.9707
13.5713
13.2023
12.8608
12.5441
12.2501
11.9767
11.7223
11.4852
11.2643
11.0582
10.866
10.6869
10.5202
10.3652
10.2216
10.0897
14.4035
13.9706
13.5712
13.2021
12.8604
12.5436
12.2493
11.9756
11.7208
11.4833
11.2618
11.055
10.862
10.6818
10.5137
10.357
10.2112
10.0768
14.4035
13.9705
13.5711
13.202
12.8602
12.5434
12.2491
11.9755
11.7207
11.4831
11.2615
11.0547
10.8615
10.681
10.5124
10.355
10.2082
10.0726
14.4034
13.9704
13.571
13.2019
12.8602
12.5433
12.2491
11.9756
11.7209
11.4835
11.262
11.0552
10.8621
10.6816
10.5128
10.3551
10.2077
10.0713
14.4034
13.9704
13.5709
13.2018
12.8601
12.5434
12.2493
11.9758
11.7213
11.484
11.2627
11.0561
10.863
10.6824
10.5135
10.3555
10.2077
10.0706
14.4033
13.9703
13.5708
13.2017
12.8602
12.5435
12.2495
11.9762
11.7218
11.4847
11.2635
11.0569
10.8638
10.6832
10.5141
10.3558
10.2075
10.0698
14.4033
13.9702
13.5708
13.2018
12.8602
12.5437
12.2499
11.9767
11.7224
11.4854
11.2643
11.0577
10.8646
10.6838
10.5145
10.3558
10.207
10.0686
14.4033
13.9702
13.5708
13.2018
12.8605
12.544
12.2503
11.9773
11.7231
11.4862
11.265
11.0585
10.8652
10.6843
10.5147
10.3556
10.2064
10.0676
14.4032
13.9702
13.5709
13.202
12.8608
12.5445
12.2509
11.978
11.7239
11.4871
11.266
11.0594
10.8662
10.6852
10.5155
10.3562
10.2067
10.0676
14.4033
13.9703
13.5711
13.2024
12.8614
12.5454
12.2521
11.9796
11.7259
11.4895
11.2689
11.0628
10.87
10.6894
10.5202
10.3613
10.2123
10.0735
14.4033
13.9706
13.5719
13.2041
12.8643
12.5498
12.2584
11.988
11.7367
11.5029
11.285
11.0817
10.8918
10.7141
10.5478
10.392
10.2459
10.1101
14.4039
13.9731
13.5782
13.216
12.8834
12.5778
12.2963
12.0366
11.7966
11.5743
11.3679
11.1762
10.9976
10.8313
10.676
10.5311
10.3957
10.2705
14.4093
13.9932
13.622
13.2904
12.9929
12.7245
12.4809
12.2587
12.0549
11.8674
11.6945
11.5348
11.3872
11.2509
11.1251
11.0091
10.9025
10.8058
14.452
14.1241
13.8656
13.6544
13.4748
13.3168
13.1744
13.0443
12.9254
12.8172
12.7197
12.6334
12.5584
12.495
12.4435
12.4038
12.3759
12.3602
14.7355
14.8128
14.9435
15.0659
15.164
15.2387
15.2978
15.3508
15.4075
15.4758
15.5623
15.672
15.8084
15.974
16.1703
16.3981
16.6579
16.9485
16.4032
17.9455
19.076
19.8708
20.4587
20.9404
21.39
21.8633
22.4015
23.0349
23.7849
24.6662
25.6884
26.8567
28.1733
29.6382
31.2506
33.0045
27.188
32.5977
34.855
35.9718
36.8655
37.9748
39.5392
41.6989
44.5376
48.1055
52.4315
57.5283
63.3945
70.0168
77.3721
85.4298
94.1622
103.491
142.551
119.597
101.674
87.5971
76.5447
67.9148
61.2566
56.2217
52.5334
49.9677
48.3406
47.4985
47.3121
47.6714
48.4828
49.6665
51.1554
52.8878
16.1608
68.3307
85.4639
90.2589
91.4543
92.0192
92.9019
93.1479
90.9208
84.8536
74.0463
58.8433
42.5653
8.80065
8.73219
39.4754
39.5322
38.4082
8.92825
45.9735
130.645
250.157
382.797
515.774
638.584
744.294
829.113
891.732
932.646
953.557
956.899
945.472
922.164
889.728
850.643
807.054
761.371
717.057
674.19
632.865
593.181
555.203
518.969
484.486
451.736
420.679
391.252
363.38
336.968
311.916
288.115
265.462
243.865
223.255
203.59
184.864
167.102
150.355
134.693
120.194
106.947
95.0742
84.8333
76.8061
72.513
72.9973
75.1791
78.1241
81.7366
86.0374
91.0696
96.8711
103.456
110.774
118.641
126.609
133.788
138.736
139.664
135.446
125.499
110.479
92.5148
74.3062
58.5824
10.7759
9.37753
8.58455
8.39037
8.76513
9.59916
10.8664
53.3128
62.012
71.8489
81.9807
90.3999
95.4012
99.971
115.504
177.766
332.056
494.1
635.004
739.416
803.056
828.183
820.545
787.374
736.065
673.33
604.792
537.864
474.491
415.627
361.841
313.364
270.162
232.01
198.556
169.401
144.171
122.665
105.225
94.1202
100.435
118.128
140.855
169.291
204.622
248.109
300.916
363.972
437.85
522.47
616.931
721.31
832.171
915.796
936.819
876.608
731.795
525.512
309.291
143.213
13.8109
8.17607
7.6537
8.43069
8.96278
9.256
9.40642
9.46266
9.0795
8.351
7.44978
6.50312
5.55578
4.69517
3.93942
3.31666
2.86323
2.60026
2.53117
2.64916
2.92584
3.29276
3.64367
3.87488
4.03413
4.3672
4.73765
4.96456
5.27364
5.63201
5.99218
6.35715
6.73325
7.13675
7.50841
51.201
89.2556
78.8825
67.6713
57.4434
48.9848
42.8317
39.8706
40.1086
41.459
41.7092
38.9409
34.2204
34.0408
49.3201
80.6552
140.697
172.532
189.48
208.309
233.281
258.284
277.343
287.96
289.312
281.834
266.776
245.874
221.107
194.524
168.104
143.614
122.492
105.753
93.9399
87.1165
85.2944
83.978
82.8544
81.8745
81.0049
80.2226
79.5118
78.8602
78.2563
77.6861
77.131
76.5651
75.9547
75.258
74.4258
73.4053
72.1444
70.599
68.7398
66.5592
64.0751
61.3313
58.3941
55.3449
52.275
49.2813
46.4617
43.9216
41.7741
40.1671
38.9006
37.8493
36.9936
36.3236
35.8301
35.5019
35.3257
35.2869
35.3739
35.5888
35.9605
36.5559
37.5043
39.2111
41.7284
43.55
44.311
44.3056
43.9933
42.4908
41.7902
40.4284
37.4019
32.698
27.253
22.6654
19.7649
18.3078
18.2726
20.1942
27.1287
47.0942
84.2231
129.621
165.829
197.55
215.121
216.418
203.88
181.812
154.769
126.965
101.961
82.348
69.482
63.622
61.7939
60.4324
59.4718
58.8704
58.5801
58.5425
58.6821
58.9009
59.0762
59.0681
58.7464
58.0381
56.9888
55.9419
54.8401
53.5813
52.3534
51.3134
50.5766
50.2198
50.2847
50.791
51.7438
53.1259
54.9738
57.6726
67.7794
97.0752
130.872
156.293
165.792
160.829
150.667
140.478
137.42
132.442
124.304
116.869
111.05
103.196
90.5797
77.2893
65.5873
55.5934
47.161
39.953
33.5936
27.8802
22.7477
18.236
14.4181
11.3259
8.94327
7.23616
6.20577
5.8835
6.20797
7.11139
9.32503
13.3421
13.8966
9.58001
7.19593
6.32478
6.20691
6.48335
6.98944
7.63468
69.9023
76.9345
68.4158
57.5658
46.0025
36.6944
30.5815
27.7716
27.8683
30.0369
34.3218
44.1933
67.8267
116.817
158.843
170.038
168.645
166.724
165.532
165.828
166.235
164.188
158.173
148.047
134.564
119.06
103.102
88.1412
75.2527
65.0058
57.4921
52.4532
49.4395
47.9441
47.4973
47.7286
48.1133
48.4797
48.8015
49.076
49.3158
49.5457
49.7983
50.1087
50.5079
51.0178
51.6464
52.3844
53.2038
54.0572
54.879
55.589
56.0981
56.3175
56.1701
55.6019
54.5926
53.1595
51.3555
49.2599
46.9672
44.5741
42.1649
39.8075
37.5884
35.7037
34.0227
32.5098
31.1591
29.9673
28.9315
28.0492
27.3191
26.7413
26.3185
26.0589
25.9788
26.1032
26.4587
27.0554
27.8364
28.6515
29.3679
29.8914
30.0529
29.8558
29.6077
29.3167
28.6298
27.1256
24.7407
21.9928
19.8306
19.3208
21.5165
29.2258
47.2437
73.4106
96.8468
109.392
116.476
118.059
111.413
98.0812
81.6353
65.7415
52.8157
43.7098
38.1488
35.3297
34.3558
34.4877
35.04
35.7696
36.6402
37.6281
38.7142
39.8773
41.0845
42.2799
43.3752
44.2486
44.7575
44.7536
44.106
42.9772
41.4637
39.6625
37.7229
35.7652
33.8759
32.1102
30.4981
29.0518
27.7756
26.6733
25.764
25.1041
24.8993
26.2301
32.3072
43.0355
55.163
64.9504
71.8019
77.6635
85.628
95.8783
105.81
111.818
111.729
105.293
94.1965
80.7185
66.9435
55.2568
46.1008
39.114
33.6836
29.2193
25.2509
21.4795
17.8087
14.3219
11.1565
8.52013
6.67855
5.93132
6.47697
8.54868
13.0656
17.2393
13.2205
8.30485
6.55309
6.04552
6.01433
6.2487
6.67873
7.24792
83.5929
81.1111
75.4296
57.6295
41.0124
28.7569
24.1871
26.1465
31.09
41.3301
60.4113
90.6988
126.678
149.903
151.113
142.087
132.989
126.13
120.654
115.517
109.55
101.96
92.7931
82.761
72.8425
63.9335
56.6163
51.102
47.3024
44.9527
43.7232
43.2936
43.3922
43.807
44.3827
44.884
45.1595
45.1671
44.8941
44.3556
43.5969
42.6927
41.7399
40.8471
40.121
39.6531
39.5084
39.718
40.2759
41.1407
42.2384
43.4679
44.7063
45.8174
46.6641
47.1259
47.1168
46.6005
45.5948
44.1646
42.406
40.4253
38.3208
36.1666
34.1551
32.3491
30.6798
29.1447
27.7456
26.4836
25.3602
24.378
23.5418
22.8588
22.339
21.9938
21.833
21.8586
22.0582
22.3974
22.813
23.2287
23.5877
23.8599
24.019
24.0564
23.8614
23.4852
23.0097
22.4102
21.6644
21.0336
21.3095
24.063
31.9
46.6242
63.9229
76.6841
82.0663
83.5849
81.9532
76.0478
65.9644
54.3183
43.8366
35.9553
30.8007
27.8166
26.3012
25.6729
25.5447
25.7048
26.031
26.4648
26.9825
27.5744
28.2423
28.9937
29.8296
30.7299
31.6381
32.4536
33.0372
33.2177
32.8858
32.1333
31.0283
29.6841
28.2225
26.7462
25.3292
24.0167
22.8294
21.7708
20.8352
20.0178
19.3221
18.7635
18.3827
18.2856
18.9392
21.0197
24.9649
30.2457
35.7556
40.9928
46.5126
52.782
59.0655
63.4772
64.2714
60.973
54.5724
46.8249
39.5492
32.9245
27.1435
22.431
18.7568
15.9517
13.8142
12.1312
10.6887
9.32528
7.98469
6.72009
5.75419
5.61651
6.96724
10.3261
15.3498
16.9007
11.054
7.33819
6.17683
5.78402
5.71338
5.8807
6.23098
6.73723
95.9539
98.6319
83.7374
61.9018
46.3184
39.3017
39.4572
44.6304
55.4525
72.4061
93.9552
114.101
124.815
123.608
115.547
106.661
99.3491
93.3834
87.8961
82.251
76.1733
69.8239
63.6853
58.2847
53.9864
50.926
49.0457
48.1702
48.0774
48.5468
49.3856
50.4357
51.5708
52.6876
53.6545
54.2567
54.4404
54.1209
53.2304
51.7384
49.6678
47.1064
44.2072
41.1761
38.2478
35.6523
33.5819
32.1636
31.4466
31.4055
31.957
32.9789
34.3236
35.8221
37.2891
38.5362
39.3953
39.7473
39.5422
38.8051
37.6197
36.0971
34.3532
32.5098
30.7927
29.1585
27.6143
26.1718
24.8378
23.6163
22.5104
21.5242
20.6641
19.9384
19.3581
18.9352
18.6812
18.6025
18.6949
18.9336
19.2653
19.6142
19.9113
20.1249
20.2586
20.3242
20.3252
20.1887
20.0371
20.0912
20.6116
22.0645
25.5174
32.7437
44.702
57.626
65.1289
66.9846
66.5837
64.6732
60.2029
52.8692
44.0787
35.9649
29.7537
25.5852
23.0251
21.5351
20.6979
20.2564
20.0721
20.0745
20.1901
20.3676
20.5838
20.8347
21.1355
21.5155
22.0047
22.614
23.317
24.0333
24.6313
24.935
24.8496
24.4101
23.6737
22.7358
21.7006
20.6594
19.6775
18.7922
18.0159
17.3431
16.7586
16.2466
15.7963
15.4089
15.1028
14.9176
14.9589
15.4275
16.5151
18.3839
20.9747
24.0279
27.3113
30.6493
33.6598
35.6396
35.9275
34.3655
31.3684
27.6118
23.6962
19.9934
16.7429
13.9479
11.6303
9.79659
8.39235
7.32295
6.48621
5.78857
5.16962
4.64864
4.46397
5.16469
7.51292
11.8004
16.1304
15.3449
9.5318
6.76096
5.89407
5.5097
5.40774
5.52073
5.77457
6.16022
108.505
115.354
96.7567
73.863
61.3925
59.1976
61.2543
67.9213
77.8009
88.6863
97.494
101.419
99.7693
94.3386
87.814
81.905
76.9095
72.4683
68.2707
64.2678
60.6075
57.5232
55.2142
53.7713
53.1718
53.3118
54.0474
55.2278
56.7171
58.401
60.1838
61.978
63.6952
65.24
66.5167
67.6079
68.3757
68.6451
68.2306
66.9584
64.6955
61.386
57.0875
51.998
46.458
40.9151
35.8472
31.6622
28.6095
26.7438
25.9593
26.0662
26.8588
28.1347
29.6846
31.281
32.6898
33.7024
34.176
34.0646
33.4144
32.3253
30.9254
29.4492
27.9644
26.5008
25.0903
23.753
22.5007
21.3397
20.2741
19.3079
18.4466
17.6981
17.0726
16.5819
16.2379
16.0494
16.0184
16.1347
16.3704
16.678
16.9989
17.2829
17.5073
17.6785
17.8116
17.9421
18.1615
18.7681
20.2443
23.3531
29.3849
39.5881
51.8229
59.0393
58.9636
56.8289
54.8152
51.6839
46.461
39.6611
32.8082
27.1826
23.1657
20.5175
18.8193
17.7278
17.0332
16.6195
16.4153
16.3678
16.3956
16.4451
16.4896
16.5257
16.5764
16.6872
16.9123
17.2894
17.8196
18.4422
19.0337
19.4118
19.5112
19.3228
18.8831
18.2694
17.5734
16.878
16.2433
15.701
15.2571
14.8978
14.5981
14.331
14.0745
13.8176
13.5629
13.3299
13.165
13.1795
13.4494
14.0557
15.0541
16.4417
18.1453
19.9901
21.6665
22.7888
23.0649
22.44
21.0845
19.2635
17.2185
15.1226
13.091
11.1993
9.50128
8.03142
6.80324
5.80858
5.02158
4.40883
3.94898
3.67684
3.81351
4.96884
7.98389
12.6704
16.0398
13.9124
8.71911
6.41425
5.65741
5.27077
5.15848
5.22841
5.39626
5.64809
119.21
133.88
112.043
89.7917
78.9982
74.3276
74.5568
77.3312
80.7792
83.344
83.9701
82.3398
78.9115
74.6228
70.3761
66.6265
63.417
60.6806
58.4108
56.6446
55.4087
54.6984
54.4753
54.672
55.2064
55.9982
56.9839
58.1237
59.3991
60.8036
62.3308
63.9631
65.6607
67.354
69.229
71.2368
73.2231
74.9943
76.3248
76.963
76.6418
75.0946
72.087
67.4769
61.3082
53.9153
45.9689
38.3726
31.9901
27.3388
24.4662
23.0844
22.8295
23.3972
24.5418
26.0251
27.5856
28.9525
29.8912
30.2608
30.0489
29.324
28.2897
27.0882
25.7977
24.483
23.1881
21.9412
20.7595
19.6528
18.6267
17.6852
16.8324
16.0742
15.4194
14.8789
14.465
14.1891
14.0591
14.0753
14.2271
14.4894
14.8229
15.1817
15.5284
15.8508
16.1691
16.5417
17.0802
18.1076
20.2822
24.6456
32.4896
43.7807
53.6342
55.5864
51.888
48.712
46.2855
42.7687
37.6599
31.8168
26.4754
22.3392
19.4309
17.4526
16.0999
15.174
14.5643
14.1995
14.0176
13.9623
13.9545
13.9405
13.8894
13.7941
13.6789
13.599
13.6262
13.8216
14.2069
14.7417
15.2877
15.7175
15.9581
15.9698
15.7695
15.4181
14.9967
14.5828
14.2335
13.9777
13.8163
13.7284
13.6795
13.632
13.5538
13.4232
13.2322
12.9869
12.7105
12.4619
12.329
12.3668
12.6254
13.1306
13.8694
14.7798
15.725
16.4988
16.9069
16.8569
16.369
15.525
14.4175
13.1299
11.7374
10.3123
8.92347
7.63045
6.47669
5.48621
4.6657
4.01308
3.53624
3.29654
3.52975
4.84915
8.10894
12.8756
15.5337
12.8892
8.35258
6.25867
5.4603
5.0829
4.96405
4.98341
5.08082
5.2161
127.314
150.346
126.985
102.564
87.2299
79.5892
76.1102
74.5128
73.4922
72.3083
70.5969
68.2711
65.4921
62.6045
59.9687
57.8006
56.1625
55.0243
54.299
53.8688
53.6195
53.4658
53.3547
53.2608
53.1829
53.1415
53.1749
53.3325
53.6678
54.233
55.0738
56.2238
57.6953
59.5419
61.8499
64.5029
67.3663
70.2683
73.0063
75.3606
77.1061
78.012
77.8159
76.1835
72.705
67.023
59.1402
49.7615
40.3027
32.3153
26.6858
23.3316
21.7033
21.281
21.7111
22.7385
24.1033
25.5131
26.6738
27.3406
27.4405
27.0424
26.2923
25.3055
24.1809
22.9935
21.796
20.624
19.5002
18.4383
17.4466
16.5297
15.6912
14.9355
14.269
13.7011
13.2434
12.9086
12.7083
12.6502
12.7366
12.961
13.3055
13.738
14.2189
14.7195
15.2458
15.8543
16.6609
18.0057
20.6749
25.868
34.5905
45.3807
52.1732
50.7992
45.8831
42.5467
40.0976
36.5871
31.8819
26.9107
22.6181
19.3738
17.0622
15.4235
14.2542
13.4352
12.8933
12.567
12.3974
12.3292
12.2957
12.2468
12.1476
11.9843
11.7751
11.5772
11.4719
11.5387
11.8158
12.2517
12.7524
13.2228
13.5702
13.7409
13.7337
13.5943
13.3947
13.2097
13.0962
13.0819
13.1636
13.3126
13.4849
13.6336
13.7186
13.7127
13.6022
13.3854
13.0716
12.6872
12.2984
11.9773
11.7858
11.7722
11.9528
12.3045
12.7686
13.2535
13.6487
13.8574
13.8202
13.5146
12.9448
12.1356
11.1319
9.99628
8.80193
7.62121
6.51442
5.52322
4.67069
3.96959
3.4426
3.16708
3.38468
4.688
7.91247
12.5448
14.8297
12.2145
8.24569
6.21555
5.33825
4.93771
4.80738
4.76262
4.79334
4.86504
130.678
159.065
133.548
105.885
88.2661
78.0408
71.9136
67.9973
65.2754
63.1485
61.2287
59.3074
57.3892
55.651
54.2952
53.4109
52.9353
52.6966
52.4921
52.159
51.6104
50.8342
49.8721
48.795
47.6851
46.6241
45.6882
44.9483
44.4725
44.3287
44.5842
45.299
46.5153
48.404
50.8522
53.796
57.1268
60.6811
64.2438
67.5693
70.4238
72.6352
74.111
74.7646
74.3337
72.2144
67.5735
59.9377
49.9878
39.722
31.3816
25.8318
22.6598
21.1369
20.7234
21.1111
22.0496
23.2471
24.4009
25.1727
25.4636
25.297
24.754
23.939
22.951
21.8702
20.7555
19.6477
18.5738
17.5512
16.5906
15.6985
14.8789
14.135
13.4718
12.8964
12.4191
12.0525
11.8101
11.7046
11.7472
11.9471
12.3074
12.8174
13.4461
14.1517
14.9088
15.7445
16.7674
18.3375
21.3114
26.8927
35.6449
45.0913
49.2843
46.183
41.0827
37.9428
35.6059
32.2687
27.9861
23.7105
20.1327
17.4373
15.4693
14.0259
12.9698
12.22
11.7131
11.3903
11.2025
11.1064
11.0451
10.9763
10.8621
10.6809
10.4399
10.1921
10.0197
10.0107
10.1978
10.5592
11.0346
11.5343
11.9666
12.2663
12.4157
12.4462
12.4237
12.4225
12.5012
12.6871
12.9714
13.3159
13.6664
13.9679
14.1771
14.2676
14.2286
14.0588
13.7621
13.3463
12.8371
12.3014
11.8107
11.4366
11.2305
11.208
11.3487
11.6042
11.906
12.1736
12.326
12.2936
12.0284
11.5122
10.7608
9.82181
8.76478
7.66681
6.59794
5.61125
4.74037
4.00625
3.43782
3.11678
3.27654
4.46778
7.47702
11.841
14.0057
11.7518
8.28016
6.25146
5.28323
4.84762
4.67555
4.57764
4.53308
4.57986
125.213
152.761
129.651
103.003
84.6805
73.3079
66.1828
61.6367
58.6865
56.6768
55.1595
53.9032
52.8897
52.2114
51.915
51.9051
51.9613
51.8298
51.3194
50.3503
48.952
47.2276
45.3109
43.3313
41.3952
39.5832
37.9582
36.5754
35.4922
34.7762
34.5099
34.7852
35.6896
37.3739
39.6917
42.6127
46.0715
49.9435
54.0294
58.0519
61.6862
64.6463
66.8144
68.3049
69.2893
69.5782
68.2956
64.1554
56.4859
46.373
36.6477
29.3988
24.8251
22.2644
21.0298
20.7378
21.1494
21.9746
22.8981
23.6342
24.0069
23.9667
23.5561
22.8619
21.977
20.9816
19.9367
18.8855
17.8576
16.8725
15.9431
15.0775
14.2807
13.5562
12.9075
12.3402
11.8625
11.4862
11.2249
11.0942
11.1115
11.2986
11.6794
12.2699
13.058
13.9937
15.009
16.0719
17.2681
18.9724
22.0582
27.628
35.8237
43.6959
46.0286
42.222
37.3475
34.4074
32.1979
29.1902
25.4216
21.6679
18.5
16.1266
14.3648
13.038
12.0475
11.3288
10.8206
10.4712
10.2446
10.1119
10.0243
9.94461
9.83536
9.66797
9.43869
9.18956
9.00549
8.95647
9.09185
9.41193
9.87455
10.4039
10.9105
11.319
11.5962
11.7619
11.8778
12.0206
12.2519
12.5965
13.0372
13.523
13.9881
14.3728
14.6367
14.7629
14.7523
14.6138
14.355
13.9768
13.4712
12.8679
12.2289
11.6322
11.1544
10.8491
10.7353
10.7969
10.9871
11.2342
11.4509
11.5473
11.448
11.1069
10.517
9.71083
8.75089
7.71393
6.67441
5.69246
4.80916
4.05151
3.45159
3.08907
3.17919
4.21531
6.91138
10.9197
13.0958
11.3795
8.38081
6.3598
5.2956
4.79354
4.55933
4.41914
4.33089
4.34229
114.363
139.406
120.513
96.3594
78.739
67.5131
60.5217
56.2364
53.6793
52.183
51.3195
50.8861
50.8345
51.1335
51.648
52.1184
52.2393
51.7706
50.6118
48.8105
46.5226
43.949
41.2788
38.6558
36.1725
33.882
31.816
30.0021
28.4793
27.3142
26.611
26.5091
27.1676
28.6122
30.6884
33.3704
36.6292
40.4024
44.5616
48.8819
53.0259
56.5833
59.2351
61.0058
62.3001
63.4495
64.0211
62.6717
57.9532
49.7525
40.4121
32.693
27.3145
23.9863
22.0822
21.1727
21.0259
21.4171
22.056
22.6478
22.9812
22.9657
22.6114
21.9848
21.1681
20.2365
19.2491
18.2488
17.2652
16.3185
15.4226
14.5867
13.8171
13.1178
12.4921
11.9441
11.4806
11.1114
10.8497
10.7119
10.7193
10.9028
11.3054
11.9725
12.9212
14.104
15.4055
16.7094
18.0539
19.8096
22.8295
28.0781
35.3961
41.7858
42.9174
38.9816
34.4493
31.6559
29.5661
26.8987
23.6139
20.3173
17.5048
15.3249
13.6573
12.3748
11.3984
10.6778
10.1439
9.75295
9.4814
9.31307
9.20125
9.10688
9.00007
8.85436
8.66121
8.44685
8.27397
8.21756
8.33411
8.63912
9.1065
9.67333
10.2516
10.7559
11.1383
11.4092
11.6299
11.8817
12.2284
12.6895
13.2335
13.7934
14.293
14.6731
14.9041
14.9863
14.9392
14.7884
14.5521
14.233
13.8101
13.2645
12.6311
11.9693
11.3559
10.867
10.5571
10.4455
10.5122
10.6998
10.9217
11.0772
11.0731
10.8434
10.3632
9.65191
8.76451
7.77515
6.75964
5.78198
4.88836
4.11051
3.48279
3.08105
3.09886
3.96609
6.30978
9.90979
12.1301
11.0123
8.49296
6.52692
5.37554
4.78434
4.47763
4.29154
4.18119
4.16587
102.439
123.068
109.051
88.4215
72.3011
61.8492
55.4528
51.7311
49.7529
48.8971
48.7909
49.2501
50.1642
51.3631
52.5523
53.3563
53.4334
52.5858
50.8087
48.2685
45.2314
41.977
38.7313
35.6382
32.7681
30.1419
27.7568
25.6112
23.732
22.1997
21.1716
20.8863
21.5969
23.0098
24.9609
27.3989
30.3232
33.7328
37.5744
41.7059
45.8642
49.6452
52.6008
54.5515
55.8435
57.066
58.2023
58.1914
55.5289
49.7115
42.0799
34.8084
29.2721
25.5797
23.2545
21.904
21.3266
21.3377
21.6787
22.0659
22.2795
22.2097
21.8465
21.2395
20.4588
19.5714
18.6312
17.6775
16.7381
15.8321
14.9733
14.1714
13.4335
12.7645
12.168
11.6477
11.2086
10.8591
10.6111
10.4806
10.4905
10.6773
11.0991
11.8305
12.9264
14.3576
15.9692
17.5439
19.0381
20.7885
23.6037
28.3232
34.6308
39.7455
40.1588
36.3825
32.1909
29.4895
27.4966
25.146
22.304
19.4075
16.8671
14.822
13.2156
11.9654
11.0029
10.2584
9.67225
9.22001
8.89951
8.69995
8.56664
8.45998
8.35421
8.22797
8.06792
7.88934
7.74341
7.7013
7.82296
8.135
8.62554
9.24171
9.8941
10.4852
10.9536
11.3036
11.5996
11.9295
12.3574
12.8915
13.4811
14.0414
14.4904
14.7771
14.8909
14.8543
14.7078
14.4941
14.2448
13.9706
13.6522
13.2355
12.7239
12.1422
11.5418
10.9953
10.576
10.3345
10.2829
10.3887
10.5779
10.7501
10.8011
10.649
10.2528
9.61883
8.7938
7.84803
6.857
5.88682
4.98707
4.19291
3.54009
3.10012
3.04553
3.74476
5.73442
8.90429
11.1409
10.6002
8.57205
6.72691
5.51839
4.83538
4.45508
4.22598
4.09325
4.05275
89.2457
107.827
98.5361
81.3515
66.749
57.0192
51.1502
47.9116
46.4302
46.1454
46.7372
48.0318
49.8611
51.9455
53.8698
55.1646
55.4411
54.5044
52.3966
49.3632
45.7621
41.9532
38.2138
34.7089
31.5049
28.6074
25.9927
23.6429
21.5773
19.882
18.711
18.2793
19.2411
20.7771
22.6611
24.8493
27.3864
30.3224
33.6532
37.2887
41.0323
44.553
47.4323
49.4216
50.725
51.8402
52.9398
53.3611
51.8295
47.592
41.4334
35.1622
30.1291
26.5746
24.1565
22.5889
21.7426
21.4765
21.561
21.7334
21.7858
21.6104
21.191
20.5671
19.7978
18.94
18.0396
17.1303
16.236
15.3739
14.5564
13.7931
13.0916
12.4575
11.8952
11.4082
11.0009
10.6799
10.4556
10.343
10.3648
10.5597
10.9952
11.7709
12.9839
14.6427
16.5767
18.4679
20.1458
21.8754
24.403
28.4769
33.7523
37.8057
37.8111
34.3153
30.4254
27.7732
25.8447
23.765
21.3162
18.7746
16.4641
14.5299
12.9697
11.736
10.7666
9.99126
9.36092
8.86266
8.50391
8.27439
8.11945
8.00142
7.894
7.77744
7.6397
7.4909
7.37415
7.35569
7.49719
7.83403
8.36573
9.04501
9.77623
10.4472
10.9842
11.3895
11.7353
12.1166
12.5941
13.158
13.7343
14.2231
14.5445
14.6647
14.5979
14.3905
14.102
13.7886
13.4921
13.2317
12.9939
12.7219
12.3873
11.9804
11.5152
11.0371
10.6143
10.3144
10.1784
10.2036
10.3398
10.4982
10.5742
10.4755
10.147
9.58146
8.81573
7.91472
6.9523
5.99552
5.09645
4.2927
3.62036
3.14571
3.02144
3.56107
5.2166
7.96079
10.1602
10.1231
8.58416
6.92565
5.70855
4.95172
4.50303
4.2312
4.0709
3.99911
75.3481
96.1101
90.6738
76.6572
63.006
53.5008
47.7491
44.6651
43.4092
43.454
44.5204
46.4585
49.0757
52.019
54.8009
56.871
57.768
57.2419
55.3085
52.2243
48.3933
44.243
40.1205
36.2486
32.7337
29.606
26.8605
24.4967
22.5437
21.0817
20.2182
20.1257
20.7882
21.9213
23.3776
25.1206
27.1783
29.5873
32.3437
35.3722
38.5104
41.4928
43.9859
45.7768
46.9962
48.0146
48.9677
49.3316
48.0743
44.5774
39.4913
34.3054
30.0821
26.9562
24.6649
23.0577
22.0896
21.6532
21.5392
21.5109
21.387
21.0785
20.5755
19.9133
19.1414
18.3055
17.4421
16.5774
15.7307
14.9159
14.1441
13.4242
12.7636
12.1686
11.6442
11.1945
10.8234
10.5366
10.3426
10.2551
10.2951
10.5006
10.9422
11.7366
13.0212
14.8602
17.1036
19.364
21.291
23.0375
25.2619
28.6541
32.937
36.1037
35.8752
32.687
29.0521
26.4176
24.516
22.6473
20.5341
18.3108
16.2149
14.3908
12.8756
11.65
10.6654
9.86481
9.20959
8.68749
8.3005
8.03879
7.85753
7.72177
7.60555
7.48953
7.36273
7.23363
7.14113
7.1484
7.31893
7.69562
8.2862
9.0432
9.85838
10.602
11.1902
11.6291
12.0027
12.4131
12.9113
13.4633
13.9705
14.3245
14.4578
14.3619
14.0785
13.6764
13.2293
12.8009
12.4378
12.1639
11.9738
11.8222
11.6636
11.4632
11.2003
10.8828
10.5537
10.2772
10.1114
10.0812
10.1642
10.2925
10.3708
10.3045
10.0284
9.52269
8.81342
7.95849
7.0287
6.09117
5.19979
4.39415
3.71012
3.20779
3.02036
3.41331
4.76528
7.10762
9.21556
9.58358
8.50962
7.08867
5.91849
5.12078
4.61673
4.30283
4.10742
3.99499
63.9361
89.297
84.1554
74.0151
61.882
52.1979
45.9337
42.446
40.957
40.9315
42.0848
44.2637
47.286
50.8188
54.3709
57.3648
59.2732
59.7467
58.6894
56.2631
52.8209
48.7958
44.5901
40.5076
36.7388
33.3835
30.4868
28.0743
26.1725
24.8105
24.0173
23.8816
24.2496
24.9717
25.9844
27.2835
28.8924
30.8242
33.0501
35.4819
37.9656
40.279
42.1787
43.5521
44.5427
45.4062
46.1325
46.1769
44.7061
41.4186
37.082
32.9111
29.5363
26.893
24.8059
23.2653
22.284
21.7602
21.4949
21.2819
20.9796
20.5294
19.9347
19.2292
18.4528
17.6394
16.8149
15.998
15.2024
14.4392
13.7174
13.0451
12.4296
11.8772
11.3937
10.9837
10.6514
10.4015
10.2414
10.1826
10.2441
10.4605
10.8998
11.685
12.9855
14.9291
17.4296
20.0757
22.3508
24.2122
26.1909
28.9361
32.3015
34.7115
34.331
31.4289
28.0049
25.3647
23.4513
21.7268
19.8851
17.9445
16.0586
14.3557
12.8951
11.682
10.6876
9.8714
9.20194
8.66345
8.25258
7.96139
7.75375
7.59772
7.4677
7.34456
7.21853
7.09885
7.02389
7.05662
7.26375
7.69521
8.36308
9.21239
10.1151
10.9217
11.5428
11.9952
12.3787
12.7996
13.2921
13.7924
14.1803
14.3488
14.2526
13.9142
13.4027
12.805
12.2036
11.6641
11.2321
10.9317
10.7634
10.696
10.6808
10.6712
10.6228
10.5096
10.3397
10.1572
10.0209
9.97428
10.021
10.1179
10.1857
10.1351
9.89646
9.44028
8.7821
7.97195
7.07646
6.16188
5.28332
4.48213
3.79393
3.27241
3.03132
3.29342
4.37604
6.35146
8.3265
8.99779
8.34412
7.18888
6.11493
5.31496
4.77485
4.42175
4.1845
4.02493
54.3036
95.4838
84.3664
73.5053
62.8333
53.3637
46.3075
41.8164
39.4683
38.7962
39.4894
41.3696
44.2734
47.9349
51.9382
55.752
58.8298
60.7276
61.195
60.2157
57.9864
54.8442
51.1735
47.3261
43.5776
40.1185
37.068
34.495
32.4337
30.8888
29.8403
29.3093
29.186
29.4187
29.9787
30.8547
32.0374
33.4988
35.1758
36.964
38.7196
40.2718
41.4856
42.37
43.0859
43.7446
44.1283
43.6249
41.6584
38.3821
34.7144
31.4745
28.8048
26.5356
24.6463
23.2318
22.3033
21.7348
21.3368
20.9459
20.4704
19.8866
19.211
18.4736
17.7027
16.9201
16.141
15.3771
14.6374
13.93
13.2624
12.6418
12.0748
11.5682
11.1278
10.7589
10.4661
10.2539
10.1284
10.0993
10.1827
10.4087
10.8379
11.5887
12.8469
14.8006
17.4622
20.472
23.1937
25.3225
27.1911
29.388
31.9248
33.6575
33.1412
30.4804
27.2268
24.5584
22.5919
20.9444
19.3104
17.6196
15.9443
14.3816
12.9962
11.8115
10.8191
9.99486
9.31516
8.76401
8.33414
8.0171
7.7837
7.60524
7.45676
7.31947
7.18533
7.06632
7.00347
7.06272
7.31595
7.81941
8.58443
9.53954
10.5296
11.3856
12.0196
12.467
12.8463
13.2623
13.724
14.1355
14.3614
14.3072
13.958
13.3695
12.6356
11.8566
11.1181
10.4831
9.99141
9.66333
9.50072
9.48345
9.56929
9.7108
9.8531
9.9464
9.9658
9.92508
9.86936
9.848
9.88453
9.95952
10.0136
9.96839
9.75499
9.33794
8.72397
7.95528
7.09363
6.20358
5.34084
4.54818
3.86125
3.32793
3.04324
3.19091
4.03642
5.68163
7.49775
8.38317
8.09583
7.21326
6.27035
5.5025
4.94653
4.55907
4.27765
4.07342
49.9991
117.788
100.122
81.1754
67.3713
56.8939
48.9327
43.2924
39.7517
37.9992
37.7566
38.8309
41.0692
44.2717
48.1279
52.2084
56.0195
59.0911
61.0664
61.7623
61.1877
59.5152
57.0221
54.0228
50.8129
47.6373
44.6788
42.0611
39.8569
38.0977
36.7853
35.9163
35.4044
35.226
35.3573
35.7716
36.4313
37.2794
38.2369
39.2074
40.0869
40.7931
41.3245
41.7817
42.2562
42.626
42.4389
41.1321
38.609
35.513
32.6231
30.1509
27.9199
25.8886
24.2024
22.961
22.1092
21.4908
20.9465
20.375
19.7409
19.0501
18.3236
17.5816
16.8383
16.1029
15.382
14.681
14.0056
13.3614
12.7546
12.1913
11.6781
11.2212
10.8269
10.5009
10.2482
10.0736
9.98232
9.98229
10.0866
10.3198
10.7322
11.4285
12.5925
14.4548
17.136
20.4023
23.5942
26.1321
28.0881
29.9461
31.8553
33.0487
32.4081
29.9178
26.7809
24.0634
22.0095
20.3681
18.8573
17.3512
15.8565
14.4322
13.1345
11.9949
11.0195
10.1981
9.51563
8.95851
8.51669
8.17937
7.92235
7.71988
7.54822
7.38991
7.24005
7.11571
7.06364
7.1558
7.47112
8.07066
8.95745
10.0323
11.1058
11.9928
12.6176
13.0436
13.4074
13.8046
14.2099
14.4949
14.5189
14.2109
13.5929
12.7541
11.8097
10.8685
10.0147
9.3041
8.76806
8.42055
8.2639
8.28979
8.45742
8.71894
9.01694
9.29048
9.49178
9.60651
9.65908
9.69421
9.74613
9.81437
9.85864
9.81368
9.61562
9.22673
8.64757
7.91375
7.08229
6.21559
5.3693
4.58709
3.90468
3.36519
3.0472
3.0996
3.74289
5.09819
6.74371
7.76826
7.78725
7.16459
6.3689
5.65652
5.10135
4.68645
4.3672
4.13449
49.8332
130.34
124.447
99.7934
79.275
64.6803
54.3503
47.0395
42.057
38.9799
37.5124
37.4471
38.6306
40.9062
44.0551
47.764
51.6372
55.2489
58.2129
60.2471
61.2121
61.1166
60.0926
58.3518
56.1381
53.6889
51.2094
48.8607
46.7578
44.9753
43.5524
42.443
41.59
40.9898
40.6233
40.4583
40.4514
40.5497
40.6951
40.835
40.9409
41.0383
41.2096
41.512
41.8261
41.7528
40.7626
38.6803
36.0082
33.4486
31.1956
29.0457
26.9446
25.0752
23.5995
22.5132
21.6886
20.9784
20.2849
19.5714
18.8401
18.1051
17.3785
16.6664
15.971
15.2935
14.6349
13.9979
13.3858
12.8032
12.2549
11.7467
11.2844
10.8742
10.5223
10.2349
10.0173
9.87464
9.81191
9.83563
9.95625
10.193
10.5858
11.2216
12.2677
13.9692
16.5347
19.8863
23.4685
26.4984
28.7412
30.5009
32.0039
32.7953
32.044
29.6698
26.6092
23.8281
21.6613
19.9706
18.5112
17.1276
15.7764
14.4788
13.2739
12.1923
11.248
10.4409
9.76352
9.20553
8.75629
8.40345
8.12571
7.89925
7.7019
7.51882
7.34992
7.21924