/*--------------------------------*- C++ -*----------------------------------*\
  =========                 |
  \\      /  F ield         | OpenFOAM: The Open Source CFD Toolbox
   \\    /   O peration     | Website:  https://openfoam.org
    \\  /    A nd           | Version:  9
     \\/     M anipulation  |
\*---------------------------------------------------------------------------*/
FoamFile
{
    format      ascii;
    class       volScalarField;
    location    "0.3";
    object      k;
}
// * * * * * * * * * * * * * * * * * * * * * * * * * * * * * * * * * * * * * //

dimensions      [0 2 -2 0 0 0 0];

internalField   nonuniform List<scalar> 
12225
(
0.283112
0.213668
0.165691
0.133254
0.112375
0.100269
0.0948876
0.0946194
0.098143
0.104351
0.112319
0.121289
0.130673
0.140046
0.149149
0.157879
0.166313
0.17678
0.349223
0.32475
0.310649
0.308897
0.319514
0.34166
0.373786
0.413751
0.459108
0.50743
0.556591
0.60494
0.651398
0.69548
0.73731
0.77751
0.817297
0.859221
0.361958
0.348121
0.335998
0.326262
0.319422
0.315678
0.314962
0.317004
0.321387
0.327614
0.335213
0.343808
0.353197
0.363407
0.374759
0.387942
0.404106
0.425104
0.365606
0.355045
0.3448
0.335344
0.326997
0.319916
0.314097
0.309417
0.305685
0.302682
0.300197
0.298062
0.296173
0.294503
0.293128
0.292255
0.292291
0.293884
0.366987
0.358257
0.349579
0.341199
0.333297
0.325988
0.319313
0.313257
0.307762
0.302744
0.298112
0.293777
0.289667
0.285727
0.281928
0.278271
0.274802
0.271653
0.367521
0.359738
0.352088
0.344646
0.33749
0.330685
0.324266
0.318243
0.312602
0.307314
0.302342
0.297643
0.293177
0.288906
0.2848
0.280831
0.276985
0.273276
0.367715
0.360376
0.353311
0.346503
0.33996
0.333697
0.327728
0.322056
0.316678
0.311581
0.30675
0.302164
0.297803
0.293648
0.289678
0.285879
0.282238
0.278769
0.36778
0.360627
0.353853
0.347411
0.341271
0.335417
0.329837
0.324524
0.319467
0.314658
0.310085
0.305734
0.301596
0.297658
0.29391
0.290344
0.286957
0.28377
0.367799
0.360714
0.354067
0.347807
0.341893
0.336292
0.33098
0.325937
0.321146
0.316593
0.312266
0.308152
0.304242
0.300528
0.297003
0.293663
0.290507
0.28756
0.367804
0.360741
0.354142
0.34796
0.342153
0.336685
0.331527
0.326653
0.32204
0.317671
0.31353
0.309603
0.305881
0.302355
0.299018
0.295866
0.292899
0.290142
0.367804
0.360747
0.354163
0.34801
0.342247
0.33684
0.331758
0.326973
0.322461
0.318203
0.31418
0.310378
0.306785
0.303392
0.30019
0.297175
0.294346
0.291723
0.367804
0.360748
0.354168
0.348022
0.342274
0.336889
0.331836
0.327089
0.322623
0.318417
0.314453
0.310717
0.307194
0.303874
0.300749
0.297813
0.295061
0.292514
0.367803
0.360747
0.354167
0.348024
0.342281
0.336904
0.331864
0.327134
0.32269
0.318511
0.314579
0.310878
0.307394
0.304117
0.301037
0.298146
0.295439
0.292935
0.367802
0.360745
0.354166
0.348023
0.342282
0.336908
0.331873
0.32715
0.322716
0.31855
0.314633
0.310951
0.307488
0.304233
0.301175
0.298306
0.29562
0.293133
0.367802
0.360744
0.354164
0.348021
0.34228
0.336908
0.331875
0.327155
0.322726
0.318566
0.314656
0.310982
0.307528
0.304282
0.301232
0.298368
0.295685
0.293199
0.367801
0.360743
0.354162
0.34802
0.342279
0.336907
0.331876
0.327159
0.322732
0.318576
0.314671
0.311
0.307549
0.304305
0.301256
0.29839
0.295702
0.293206
0.3678
0.360741
0.354161
0.348018
0.342278
0.336908
0.331878
0.327163
0.32274
0.318586
0.314684
0.311016
0.307566
0.304322
0.301271
0.2984
0.295703
0.293196
0.367799
0.36074
0.354159
0.348018
0.342279
0.33691
0.331882
0.32717
0.322749
0.318598
0.314698
0.311031
0.307582
0.304336
0.301281
0.298404
0.295697
0.293177
0.367799
0.360739
0.354159
0.348018
0.34228
0.336913
0.331888
0.327178
0.32276
0.318611
0.314712
0.311045
0.307595
0.304346
0.301286
0.298401
0.295683
0.293151
0.367798
0.360738
0.354159
0.348019
0.342284
0.336919
0.331896
0.327188
0.322771
0.318623
0.314725
0.311057
0.307605
0.304352
0.301286
0.298394
0.295667
0.293124
0.367798
0.360738
0.35416
0.348022
0.342289
0.336926
0.331905
0.327198
0.322782
0.318634
0.314734
0.311064
0.307608
0.304351
0.301278
0.298378
0.295642
0.293087
0.367798
0.360739
0.354162
0.348026
0.342293
0.336931
0.331908
0.327199
0.322778
0.318623
0.314715
0.311035
0.307566
0.304294
0.301204
0.298285
0.295527
0.29295
0.367798
0.360739
0.354161
0.348021
0.34228
0.336904
0.331862
0.327127
0.322675
0.318483
0.314532
0.310805
0.307285
0.303958
0.30081
0.297831
0.295011
0.29237
0.367796
0.360729
0.354129
0.347951
0.342153
0.336702
0.331568
0.326727
0.322157
0.317838
0.313754
0.309889
0.30623
0.302763
0.299477
0.296361
0.293407
0.290636
0.367778
0.360649
0.353935
0.347586
0.341568
0.33586
0.330445
0.325309
0.320442
0.315831
0.311466
0.307336
0.303429
0.299733
0.296237
0.292929
0.289802
0.286873
0.367671
0.36026
0.353121
0.346248
0.339655
0.333362
0.327383
0.321727
0.316395
0.311384
0.306686
0.302288
0.298174
0.294329
0.290735
0.287374
0.284231
0.281314
0.36718
0.35882
0.350533
0.342484
0.334807
0.3276
0.320917
0.314776
0.309176
0.304102
0.299526
0.295416
0.291734
0.288442
0.285501
0.282873
0.280525
0.278442
0.365304
0.354432
0.343795
0.33386
0.324955
0.317236
0.310728
0.305398
0.301192
0.298039
0.295858
0.294558
0.294046
0.29423
0.295021
0.296338
0.29811
0.300272
0.357578
0.338118
0.3216
0.309393
0.30173
0.298451
0.299262
0.303798
0.311659
0.322432
0.335705
0.351075
0.368159
0.386603
0.406085
0.426327
0.447113
0.468136
0.314726
0.264048
0.22448
0.193404
0.169005
0.149953
0.135254
0.124135
0.115986
0.110311
0.106702
0.104821
0.104379
0.105135
0.10688
0.109438
0.112661
0.116413
0.0566769
0.209003
0.243918
0.253141
0.255604
0.257012
0.259135
0.260355
0.257136
0.2467
0.226523
0.195446
0.157025
0.140227
0.136713
0.142876
0.144388
0.140501
0.138827
0.146776
0.284426
0.463448
0.628626
0.776915
0.903748
1.0073
1.08761
1.14591
1.18412
1.20454
1.20961
1.20177
1.18336
1.15655
1.12326
1.08515
1.0436
1.0024
0.96175
0.921742
0.882496
0.844111
0.806667
0.770219
0.734803
0.700429
0.667088
0.634751
0.603369
0.572872
0.54318
0.514202
0.48585
0.458051
0.430759
0.403966
0.37771
0.352076
0.327192
0.303224
0.280374
0.258916
0.239324
0.222549
0.210862
0.208485
0.211616
0.216398
0.222351
0.229417
0.237616
0.246965
0.257452
0.268998
0.281378
0.294092
0.306141
0.315826
0.320726
0.318438
0.307735
0.287891
0.26037
0.228451
0.19648
0.166372
0.143592
0.128652
0.121846
0.122899
0.131074
0.144641
0.162064
0.17905
0.197452
0.21681
0.234476
0.246607
0.253689
0.265497
0.312798
0.461117
0.655642
0.813132
0.929095
1.00366
1.04112
1.04729
1.02837
0.990292
0.938439
0.877283
0.812477
0.748133
0.685363
0.625066
0.567893
0.51426
0.464381
0.418306
0.375971
0.337281
0.302273
0.271525
0.247454
0.243696
0.269007
0.301749
0.340646
0.386266
0.439225
0.499886
0.568261
0.643999
0.72631
0.813742
0.905268
1.00048
1.08333
1.12024
1.09558
0.998253
0.828802
0.608108
0.38101
0.215002
0.1189
0.0977111
0.105012
0.11146
0.114726
0.11604
0.116883
0.114101
0.105945
0.0949151
0.0830112
0.0708851
0.059488
0.0496815
0.0415244
0.0354307
0.0316482
0.0301859
0.030932
0.0335765
0.0374236
0.041327
0.0439858
0.0453596
0.0480568
0.0521906
0.0549753
0.0578541
0.0618151
0.0656994
0.0696309
0.0736236
0.0777642
0.0820091
0.173006
0.337408
0.338582
0.318924
0.291855
0.264739
0.242085
0.223555
0.209443
0.198606
0.188081
0.173939
0.161019
0.180096
0.233796
0.303876
0.394736
0.430912
0.446198
0.466323
0.501344
0.536196
0.561779
0.577651
0.584755
0.5848
0.579747
0.5715
0.561735
0.551837
0.54288
0.535661
0.530756
0.528572
0.529389
0.533349
0.540588
0.548197
0.555904
0.563662
0.571456
0.579299
0.587224
0.595264
0.603433
0.611712
0.620032
0.628256
0.636178
0.64351
0.649894
0.654912
0.658122
0.659091
0.657452
0.652948
0.645475
0.635097
0.622042
0.606673
0.589447
0.570878
0.551463
0.531691
0.512076
0.494511
0.478907
0.464532
0.451342
0.439344
0.42853
0.418869
0.410302
0.402751
0.396148
0.39048
0.385788
0.38196
0.378109
0.371742
0.360957
0.347267
0.333915
0.324277
0.319201
0.317667
0.315783
0.306912
0.286938
0.256853
0.222377
0.192028
0.16963
0.154051
0.14303
0.13812
0.148444
0.187273
0.247594
0.301099
0.337289
0.374346
0.401682
0.41276
0.412928
0.407476
0.400401
0.394206
0.390302
0.38951
0.392388
0.399476
0.409126
0.419034
0.42919
0.439535
0.449946
0.460216
0.470019
0.478868
0.486091
0.490847
0.492224
0.489366
0.481469
0.469455
0.455985
0.440326
0.423455
0.40619
0.389123
0.372635
0.356913
0.342023
0.327943
0.31452
0.301637
0.289753
0.284504
0.297654
0.321282
0.345481
0.361433
0.366025
0.363522
0.36285
0.364442
0.364798
0.365355
0.37048
0.376125
0.370842
0.347572
0.317319
0.289145
0.263878
0.241081
0.219732
0.198659
0.177362
0.155987
0.13531
0.116442
0.100399
0.0879107
0.0794655
0.0756324
0.0770191
0.0829517
0.0922041
0.109833
0.138398
0.14462
0.11791
0.101876
0.0982047
0.10148
0.108115
0.116
0.123851
0.238826
0.330222
0.33462
0.310605
0.272723
0.237865
0.212679
0.195603
0.184112
0.177615
0.181695
0.209603
0.275898
0.388084
0.463796
0.472522
0.458587
0.448212
0.444154
0.447022
0.454544
0.462128
0.467852
0.471833
0.474668
0.477021
0.479397
0.482072
0.485145
0.488636
0.492561
0.496956
0.501844
0.507174
0.512804
0.518551
0.524229
0.529657
0.534781
0.539643
0.544385
0.549227
0.554449
0.560344
0.567182
0.575174
0.584428
0.594929
0.606516
0.618873
0.631532
0.643891
0.655248
0.664857
0.672001
0.67607
0.676638
0.673517
0.666767
0.656672
0.643686
0.628368
0.611257
0.592854
0.573852
0.556293
0.539671
0.52389
0.509052
0.495254
0.482587
0.471133
0.460961
0.452131
0.444684
0.438654
0.434063
0.430884
0.428904
0.427516
0.42566
0.421711
0.41327
0.398694
0.37973
0.35994
0.341908
0.325671
0.308855
0.28862
0.264047
0.236923
0.211925
0.193074
0.18208
0.186187
0.211735
0.245054
0.268184
0.279626
0.291216
0.304798
0.316606
0.326616
0.336043
0.34469
0.351933
0.35772
0.362689
0.367629
0.372946
0.378576
0.384801
0.391576
0.398763
0.406274
0.414048
0.422011
0.430003
0.437701
0.444559
0.449799
0.452493
0.451633
0.44623
0.437406
0.425819
0.41202
0.396977
0.381503
0.366207
0.3515
0.337616
0.324662
0.312674
0.301668
0.291714
0.282906
0.274793
0.266632
0.258798
0.252909
0.249909
0.249362
0.251682
0.259805
0.276439
0.301262
0.328539
0.349191
0.355586
0.344692
0.32074
0.291003
0.259925
0.233378
0.212626
0.196867
0.184383
0.173232
0.161647
0.148408
0.133215
0.116834
0.100616
0.0867435
0.0780664
0.0777434
0.0876499
0.108658
0.145005
0.175795
0.151874
0.118391
0.10708
0.105948
0.108369
0.112607
0.118238
0.124931
0.285392
0.36924
0.38056
0.324245
0.259863
0.209132
0.183469
0.181506
0.188938
0.21262
0.26186
0.338014
0.420155
0.465171
0.460901
0.438485
0.420369
0.411794
0.411054
0.415885
0.423852
0.432871
0.441958
0.450713
0.458847
0.466069
0.47213
0.476952
0.480719
0.483845
0.486813
0.49
0.493576
0.497492
0.501542
0.504798
0.506578
0.50664
0.504921
0.501553
0.496873
0.49142
0.485893
0.481083
0.477795
0.476754
0.47853
0.483469
0.491658
0.502905
0.516754
0.532508
0.549273
0.566009
0.581607
0.594997
0.605266
0.61177
0.614199
0.612582
0.60723
0.598634
0.587337
0.573813
0.559454
0.545293
0.531213
0.517391
0.504002
0.491202
0.479141
0.46798
0.45789
0.449055
0.441667
0.435898
0.431853
0.429482
0.428497
0.428289
0.427903
0.42621
0.422226
0.415181
0.404181
0.38822
0.368162
0.346561
0.325608
0.305897
0.286819
0.267989
0.250082
0.237093
0.234999
0.242975
0.248612
0.247648
0.248287
0.254131
0.266208
0.282262
0.299019
0.31404
0.32515
0.331371
0.333577
0.333623
0.333142
0.333007
0.333472
0.334505
0.336235
0.338425
0.340918
0.343686
0.346816
0.35045
0.354687
0.35945
0.364385
0.368807
0.371756
0.372027
0.368833
0.362708
0.353979
0.343397
0.33182
0.320005
0.308528
0.297758
0.287885
0.27896
0.270961
0.263874
0.257754
0.252732
0.248984
0.246421
0.244065
0.239844
0.233601
0.226286
0.219362
0.215089
0.216006
0.223133
0.233984
0.242893
0.244173
0.235391
0.218398
0.197437
0.177167
0.158163
0.14118
0.127105
0.116121
0.107881
0.101723
0.0967445
0.0919141
0.0864524
0.080291
0.0743219
0.0710374
0.0754337
0.0927904
0.125141
0.165872
0.179323
0.141586
0.115663
0.108152
0.106019
0.106032
0.108143
0.112118
0.117864
0.327303
0.445069
0.41619
0.337177
0.271676
0.235683
0.226399
0.235088
0.261061
0.303995
0.35781
0.405662
0.428867
0.424891
0.408757
0.395548
0.390776
0.393908
0.40271
0.415066
0.429234
0.443946
0.458345
0.47173
0.483522
0.493423
0.501542
0.508354
0.51449
0.520505
0.526713
0.533154
0.539638
0.545817
0.550984
0.553671
0.553437
0.549722
0.542103
0.530411
0.514843
0.496023
0.475018
0.453258
0.432394
0.414094
0.399838
0.390733
0.387393
0.389915
0.39793
0.410707
0.427243
0.446322
0.466549
0.486426
0.504491
0.519495
0.530561
0.537288
0.539716
0.538193
0.533219
0.525433
0.51639
0.506485
0.496026
0.485276
0.474436
0.463684
0.45319
0.443137
0.433731
0.425199
0.41779
0.411748
0.407282
0.404503
0.403341
0.403427
0.403996
0.403981
0.402376
0.398571
0.392246
0.382931
0.369911
0.353237
0.335411
0.319346
0.306375
0.296113
0.288465
0.284426
0.281121
0.268255
0.244378
0.230063
0.2307
0.241384
0.259071
0.279371
0.297467
0.309602
0.314433
0.313399
0.30924
0.304314
0.29998
0.296747
0.294641
0.293482
0.292846
0.292307
0.291675
0.290975
0.290448
0.290477
0.29145
0.293573
0.296719
0.300307
0.303352
0.304541
0.303116
0.299115
0.292862
0.285022
0.276372
0.267628
0.259329
0.251799
0.245157
0.239366
0.234307
0.229854
0.225941
0.222623
0.220115
0.218721
0.218712
0.219293
0.218554
0.215338
0.209782
0.203048
0.196743
0.192231
0.189531
0.186936
0.182186
0.174103
0.163098
0.150439
0.137341
0.124542
0.112585
0.101596
0.0918719
0.0837138
0.0771987
0.0721283
0.0681244
0.0647671
0.0618713
0.0600277
0.0618501
0.0726054
0.09825
0.138165
0.17432
0.171578
0.132972
0.113353
0.10676
0.102936
0.101426
0.102267
0.104845
0.109124
0.369531
0.501753
0.455481
0.370676
0.315233
0.296003
0.29369
0.307014
0.330611
0.357618
0.37967
0.390171
0.388895
0.382091
0.377461
0.379293
0.387932
0.401902
0.41947
0.439143
0.459629
0.479753
0.498499
0.515178
0.529605
0.542109
0.553342
0.564014
0.574664
0.585556
0.596657
0.607678
0.618128
0.62738
0.634691
0.64044
0.643699
0.643313
0.638074
0.626866
0.608844
0.583655
0.551674
0.514199
0.473493
0.432609
0.394926
0.363498
0.340451
0.326674
0.32192
0.325213
0.335274
0.350725
0.370058
0.391574
0.41341
0.433727
0.450966
0.464108
0.472774
0.477052
0.477322
0.474605
0.46993
0.463848
0.456754
0.448936
0.440615
0.431971
0.423169
0.41438
0.405798
0.397648
0.390188
0.383688
0.378401
0.374523
0.372126
0.3711
0.371076
0.371418
0.37134
0.370127
0.367316
0.36259
0.35548
0.345608
0.334026
0.323453
0.316126
0.312301
0.311302
0.310413
0.297999
0.263953
0.22686
0.214798
0.221065
0.237902
0.260018
0.28124
0.296033
0.301897
0.300062
0.293763
0.286085
0.278985
0.273344
0.269311
0.266615
0.264822
0.263173
0.261136
0.25847
0.25523
0.251782
0.248744
0.246808
0.246485
0.247893
0.250588
0.253568
0.255431
0.255436
0.253352
0.249364
0.24402
0.238027
0.232063
0.226638
0.22203
0.218285
0.215268
0.21274
0.210441
0.208177
0.20587
0.2036
0.201621
0.200383
0.200489
0.201202
0.20124
0.199463
0.195535
0.189985
0.183682
0.177219
0.170621
0.163565
0.155833
0.147508
0.138813
0.129897
0.120793
0.11152
0.102179
0.0929994
0.0843
0.0763982
0.0695278
0.0638026
0.0592668
0.0560879
0.0550357
0.0586655
0.0726742
0.103319
0.146095
0.175549
0.163223
0.128255
0.111495
0.104359
0.0994108
0.0972368
0.0973469
0.0988571
0.101537
0.405989
0.558366
0.500586
0.417938
0.36981
0.34506
0.338567
0.342113
0.349631
0.356663
0.360731
0.361835
0.362229
0.365107
0.372872
0.386169
0.404261
0.425868
0.449548
0.473727
0.496787
0.517371
0.534707
0.54873
0.559974
0.56931
0.577675
0.585869
0.594456
0.603744
0.613803
0.624495
0.635477
0.646199
0.657803
0.669941
0.681515
0.691179
0.697408
0.698554
0.692909
0.678793
0.654733
0.619802
0.574192
0.519924
0.461277
0.40432
0.355282
0.31847
0.295164
0.284152
0.283319
0.290692
0.304584
0.323289
0.344833
0.367012
0.387642
0.404928
0.417992
0.426515
0.430747
0.431857
0.430636
0.427633
0.423259
0.41783
0.411588
0.404724
0.397399
0.389764
0.381983
0.374247
0.366789
0.359872
0.353771
0.348738
0.344957
0.342498
0.341276
0.341026
0.341308
0.341584
0.341338
0.340167
0.337713
0.333582
0.327854
0.322267
0.319428
0.320525
0.323965
0.321543
0.296557
0.248889
0.210783
0.204603
0.217047
0.238861
0.262983
0.282204
0.291947
0.292138
0.285896
0.27694
0.267997
0.260508
0.254943
0.251137
0.248565
0.246606
0.244421
0.241431
0.23734
0.23218
0.226384
0.220754
0.216251
0.213702
0.213434
0.215183
0.217829
0.220163
0.221386
0.221042
0.219153
0.216137
0.212627
0.20927
0.206554
0.204723
0.203756
0.203422
0.203361
0.203192
0.202596
0.201378
0.199492
0.197056
0.194385
0.192113
0.190788
0.190072
0.189219
0.187405
0.184142
0.179535
0.174085
0.168241
0.162226
0.156123
0.149933
0.143561
0.136816
0.129475
0.121399
0.11262
0.103353
0.0939514
0.0848152
0.0763155
0.0687589
0.0624304
0.0577692
0.0558161
0.0592675
0.0737894
0.10568
0.148717
0.17313
0.156987
0.126183
0.110407
0.101889
0.0964844
0.0940627
0.09355
0.094235
0.095473
0.434215
0.607933
0.546296
0.459995
0.400361
0.368185
0.352388
0.345275
0.342687
0.342651
0.344634
0.349007
0.356633
0.368403
0.384737
0.405299
0.429068
0.454469
0.479504
0.502112
0.520677
0.534413
0.54343
0.548545
0.55095
0.55191
0.552548
0.553742
0.556127
0.560138
0.56606
0.574038
0.584055
0.596397
0.611796
0.629354
0.647986
0.666366
0.682998
0.69632
0.704793
0.706902
0.701002
0.685052
0.656562
0.613293
0.55507
0.486011
0.415066
0.352987
0.307126
0.278503
0.264297
0.261271
0.267098
0.280054
0.29825
0.319416
0.341049
0.360399
0.376311
0.387459
0.394776
0.398905
0.400434
0.399874
0.397649
0.394099
0.389494
0.384045
0.377923
0.371273
0.364234
0.356961
0.349644
0.342515
0.335838
0.329884
0.324897
0.321067
0.318515
0.317278
0.317285
0.318295
0.319896
0.321594
0.322912
0.323289
0.322139
0.320354
0.320736
0.32504
0.330001
0.322586
0.286686
0.233414
0.198949
0.198023
0.215784
0.240982
0.265158
0.281195
0.286422
0.282775
0.274207
0.264286
0.255259
0.248123
0.243
0.23949
0.236953
0.234707
0.23201
0.228298
0.223218
0.216731
0.209238
0.201659
0.195128
0.190755
0.189067
0.18982
0.192037
0.194734
0.196994
0.198212
0.198237
0.197347
0.196102
0.195125
0.194899
0.195642
0.197267
0.199443
0.201697
0.203542
0.204578
0.204545
0.203331
0.200957
0.197581
0.193561
0.189632
0.186296
0.183618
0.181303
0.178835
0.175788
0.172126
0.168139
0.16413
0.160197
0.156216
0.1519
0.146885
0.140836
0.133562
0.125083
0.11564
0.105635
0.0955313
0.0857721
0.0767405
0.0688086
0.0625351
0.0591214
0.061337
0.0746976
0.105467
0.147067
0.168783
0.152709
0.12555
0.109807
0.100194
0.0943463
0.0918338
0.0906269
0.0905004
0.0908461
0.447666
0.637087
0.572298
0.477637
0.412241
0.373543
0.351355
0.33942
0.334594
0.335322
0.340791
0.350575
0.364538
0.382629
0.404504
0.429167
0.454844
0.479181
0.499785
0.514871
0.523679
0.526516
0.524492
0.519124
0.51196
0.504338
0.497297
0.491618
0.487907
0.48669
0.48844
0.493554
0.502266
0.515858
0.533596
0.554802
0.57846
0.603187
0.627289
0.648935
0.666436
0.678561
0.684635
0.684073
0.675281
0.65466
0.617213
0.559872
0.48629
0.408698
0.342561
0.295855
0.267617
0.253668
0.250599
0.256479
0.269568
0.287652
0.308423
0.328009
0.344723
0.357984
0.367718
0.374215
0.377927
0.379324
0.378824
0.376779
0.373481
0.369163
0.364017
0.358198
0.35184
0.34507
0.338039
0.330935
0.323988
0.317458
0.311608
0.30669
0.302957
0.300683
0.30014
0.301468
0.30449
0.308665
0.313179
0.317024
0.319114
0.319887
0.322208
0.327797
0.331585
0.318122
0.275116
0.221172
0.190958
0.193538
0.214636
0.242177
0.265757
0.27885
0.280866
0.274975
0.265375
0.255329
0.246646
0.239956
0.235094
0.231508
0.228594
0.225765
0.222428
0.2181
0.212394
0.205169
0.196696
0.187931
0.180115
0.174425
0.171695
0.171549
0.173417
0.176415
0.179602
0.182236
0.183986
0.184991
0.185746
0.186866
0.188839
0.191856
0.195752
0.200079
0.204251
0.207701
0.210002
0.210911
0.210347
0.208328
0.204931
0.200299
0.194798
0.189149
0.183936
0.17953
0.175959
0.172978
0.170317
0.167881
0.165694
0.163705
0.161667
0.159155
0.155676
0.1508
0.144283
0.136137
0.126627
0.116205
0.105402
0.0947232
0.0846048
0.0754478
0.0678296
0.0629763
0.0636082
0.0749824
0.103194
0.142335
0.163137
0.149516
0.125567
0.109576
0.0992301
0.0931988
0.0903576
0.0886037
0.0874691
0.0873106
0.433318
0.625646
0.568649
0.477706
0.410848
0.369538
0.345662
0.333793
0.330909
0.335131
0.345139
0.360035
0.379234
0.402122
0.427559
0.453581
0.477565
0.49683
0.509378
0.514381
0.512244
0.504308
0.492379
0.478261
0.463456
0.449071
0.435891
0.424516
0.415493
0.409422
0.407
0.408958
0.41593
0.429185
0.447505
0.470346
0.496889
0.525901
0.555677
0.584059
0.608685
0.627557
0.639833
0.646163
0.647557
0.642861
0.626868
0.591898
0.533593
0.457838
0.382448
0.322898
0.282867
0.259257
0.247999
0.246904
0.254457
0.268407
0.286059
0.304585
0.321773
0.336307
0.347675
0.355904
0.361294
0.364239
0.365127
0.364303
0.362065
0.358667
0.354322
0.349205
0.34346
0.337208
0.330571
0.323692
0.316756
0.309987
0.303632
0.29796
0.29329
0.290066
0.288873
0.290269
0.294431
0.300833
0.308197
0.314808
0.319098
0.321328
0.324333
0.32948
0.330468
0.311673
0.265116
0.212847
0.185996
0.190434
0.213017
0.240956
0.263703
0.275406
0.275873
0.268849
0.258915
0.249049
0.24071
0.234248
0.229285
0.225235
0.221584
0.217939
0.213877
0.208984
0.202917
0.195432
0.186609
0.177278
0.169018
0.162715
0.159115
0.158334
0.159998
0.163348
0.167431
0.171376
0.174675
0.177336
0.179803
0.182704
0.186537
0.191447
0.197158
0.203078
0.208503
0.212829
0.215675
0.216908
0.216578
0.214808
0.211699
0.207293
0.201573
0.194937
0.188051
0.181631
0.176233
0.172105
0.169217
0.167398
0.166419
0.165957
0.165548
0.164603
0.1625
0.158717
0.152955
0.145208
0.135756
0.125093
0.113801
0.102447
0.0915141
0.0814267
0.0727493
0.0666522
0.065701
0.0747787
0.0996634
0.135669
0.15648
0.146613
0.125773
0.109762
0.0989471
0.0926075
0.0892696
0.0870955
0.0853142
0.0845016
0.396175
0.590277
0.548083
0.465271
0.400753
0.360431
0.338116
0.328825
0.329441
0.337834
0.352473
0.372274
0.396292
0.423203
0.450892
0.476489
0.496934
0.509787
0.513852
0.509373
0.497785
0.481185
0.461736
0.441237
0.420959
0.401698
0.383953
0.368118
0.354666
0.344291
0.337992
0.337014
0.342654
0.355193
0.373106
0.395798
0.422655
0.452827
0.485009
0.517276
0.547049
0.571429
0.588283
0.597768
0.602417
0.60425
0.60067
0.583635
0.544352
0.481489
0.409246
0.346691
0.300499
0.270336
0.252903
0.24585
0.2479
0.257477
0.272159
0.289137
0.305943
0.320905
0.333181
0.342549
0.349145
0.353261
0.355231
0.355377
0.35399
0.351334
0.347641
0.343109
0.337902
0.33215
0.325963
0.319451
0.312748
0.306028
0.299498
0.293403
0.288075
0.284051
0.282166
0.283405
0.2884
0.296761
0.306754
0.31576
0.321618
0.324465
0.327083
0.330545
0.328134
0.305417
0.257895
0.20807
0.183202
0.187773
0.210121
0.237434
0.25938
0.270546
0.270942
0.264159
0.254499
0.244894
0.236707
0.230209
0.224853
0.220088
0.215508
0.210956
0.206156
0.20062
0.194179
0.186646
0.178061
0.169012
0.160559
0.15387
0.149817
0.148729
0.150418
0.154249
0.159263
0.164451
0.169137
0.173215
0.177106
0.181466
0.186798
0.193162
0.200122
0.206913
0.212735
0.217003
0.219468
0.220189
0.219423
0.217469
0.21454
0.210673
0.205674
0.199419
0.192344
0.185103
0.178448
0.173029
0.169233
0.167134
0.166528
0.166964
0.16778
0.168179
0.16736
0.164671
0.159733
0.152505
0.143274
0.132559
0.120988
0.109173
0.0976381
0.0868329
0.0773053
0.0701456
0.0677142
0.0744423
0.095668
0.128067
0.149085
0.143457
0.125859
0.110298
0.099218
0.0924508
0.0885479
0.0858928
0.0837386
0.0823827
0.355375
0.542766
0.517965
0.446703
0.386692
0.348896
0.329173
0.322937
0.327061
0.339387
0.358403
0.382924
0.411586
0.442295
0.472049
0.49733
0.514913
0.522702
0.520205
0.508513
0.489842
0.466832
0.441874
0.41672
0.392417
0.36948
0.34812
0.328518
0.311102
0.296794
0.287205
0.284622
0.291321
0.304584
0.322589
0.344512
0.370002
0.398715
0.429898
0.462147
0.493263
0.520228
0.539966
0.551357
0.556716
0.559758
0.560444
0.552372
0.526354
0.479113
0.41877
0.359768
0.312603
0.279577
0.258599
0.247736
0.246037
0.252311
0.264445
0.279763
0.29575
0.310568
0.323177
0.333169
0.340536
0.345465
0.348221
0.34909
0.348348
0.346259
0.343071
0.339004
0.334247
0.32895
0.323224
0.317161
0.31085
0.304408
0.297986
0.291776
0.286073
0.281434
0.27885
0.279687
0.285102
0.295028
0.307423
0.318716
0.325933
0.32894
0.330451
0.331507
0.325736
0.300523
0.253665
0.206256
0.182019
0.185174
0.20581
0.23172
0.252967
0.264315
0.265558
0.259809
0.250992
0.241989
0.234112
0.227363
0.221251
0.215457
0.209905
0.204609
0.199229
0.19335
0.186744
0.179258
0.170891
0.162075
0.153731
0.147011
0.142865
0.141781
0.143748
0.148238
0.154256
0.160646
0.166569
0.171832
0.17687
0.182382
0.18885
0.196196
0.203771
0.210632
0.215931
0.219186
0.220357
0.219754
0.217866
0.215189
0.21208
0.208656
0.204704
0.199684
0.193698
0.187085
0.180435
0.174498
0.169963
0.167253
0.166414
0.167097
0.168602
0.169998
0.170308
0.168709
0.164691
0.158145
0.149332
0.138784
0.127159
0.115109
0.103193
0.091878
0.0816909
0.0736323
0.0698458
0.0742929
0.091805
0.120317
0.141263
0.139759
0.125573
0.110999
0.0998954
0.092702
0.088262
0.0851707
0.082665
0.0808404
0.310218
0.494819
0.488375
0.4292
0.373526
0.337404
0.319263
0.314973
0.321443
0.336612
0.359094
0.387688
0.420717
0.455506
0.4884
0.515372
0.532962
0.539106
0.533575
0.51789
0.494779
0.467348
0.438314
0.409576
0.382173
0.356521
0.332691
0.310757
0.291124
0.27485
0.263678
0.25974
0.268737
0.283386
0.301143
0.321291
0.343966
0.369339
0.397099
0.426233
0.454951
0.4806
0.500131
0.511883
0.517341
0.519909
0.520788
0.515838
0.49719
0.460176
0.409692
0.357776
0.314457
0.282718
0.261357
0.249197
0.245798
0.250291
0.260802
0.274826
0.289943
0.304321
0.316861
0.327062
0.334814
0.340214
0.343462
0.344797
0.34448
0.342772
0.339932
0.336202
0.331794
0.326883
0.321595
0.316012
0.310193
0.304201
0.298116
0.292063
0.286264
0.28122
0.277968
0.278153
0.283469
0.294381
0.308853
0.322499
0.331246
0.334399
0.334522
0.332899
0.324099
0.29753
0.252229
0.206892
0.182193
0.182681
0.20039
0.224199
0.244701
0.256651
0.259343
0.255207
0.247667
0.239432
0.231757
0.224681
0.217902
0.211347
0.205159
0.199345
0.193521
0.187338
0.180563
0.173067
0.16486
0.156297
0.148194
0.141653
0.13767
0.136862
0.139367
0.144715
0.151832
0.159391
0.166403
0.172633
0.178565
0.18495
0.192205
0.200049
0.207586
0.213725
0.217651
0.219074
0.218227
0.215687
0.212166
0.208325
0.204652
0.20136
0.198279
0.194769
0.190574
0.185666
0.180282
0.174967
0.170454
0.167415
0.16621
0.166746
0.168462
0.170441
0.171607
0.170986
0.167915
0.16217
0.15395
0.143771
0.132307
0.12024
0.108165
0.0965627
0.0859319
0.0771679
0.0721878
0.0745017
0.0884318
0.112965
0.13334
0.135439
0.124724
0.111625
0.100802
0.0933009
0.0883807
0.0848753
0.0820074
0.0797363
0.260853
0.451221
0.464646
0.418753
0.365732
0.32879
0.309721
0.305083
0.311792
0.327853
0.352071
0.383436
0.420132
0.459047
0.49624
0.527293
0.548384
0.557137
0.553098
0.537705
0.513782
0.484694
0.453513
0.422511
0.393057
0.36583
0.341144
0.31931
0.300891
0.286912
0.278629
0.277665
0.283758
0.294223
0.307569
0.323293
0.341444
0.362125
0.385063
0.409375
0.433505
0.45519
0.471827
0.48187
0.486298
0.487769
0.487352
0.48182
0.464775
0.432427
0.389042
0.344757
0.307612
0.279708
0.260257
0.248899
0.245689
0.249937
0.259879
0.273172
0.287575
0.301398
0.313603
0.323685
0.331481
0.337028
0.340466
0.342
0.34187
0.340339
0.337677
0.334143
0.329975
0.325369
0.320469
0.315362
0.310088
0.304659
0.299091
0.293425
0.287787
0.282565
0.278728
0.27805
0.282693
0.293824
0.309834
0.325909
0.336647
0.340397
0.339346
0.335175
0.323793
0.296648
0.253293
0.209631
0.183699
0.180617
0.194429
0.21544
0.234913
0.247539
0.251979
0.249848
0.24394
0.23667
0.229299
0.222103
0.215041
0.208165
0.2016
0.195342
0.189106
0.182608
0.175636
0.168073
0.159946
0.151582
0.14374
0.137486
0.133852
0.133565
0.136865
0.14328
0.151592
0.16028
0.168233
0.175224
0.18183
0.188842
0.196554
0.204421
0.211292
0.215997
0.217853
0.216846
0.213509
0.20868
0.203252
0.198005
0.193506
0.190037
0.187508
0.185347
0.183069
0.180348
0.177045
0.17334
0.169767
0.167037
0.165741
0.16608
0.167748
0.169968
0.171686
0.17184
0.169636
0.164716
0.157186
0.147515
0.136373
0.124465
0.112415
0.100729
0.0898763
0.0806373
0.0746803
0.0750815
0.0856921
0.106334
0.125623
0.130588
0.123217
0.111947
0.101726
0.0941096
0.0888003
0.0848964
0.0816426
0.0789319
0.220827
0.412367
0.437058
0.412024
0.366865
0.328459
0.305571
0.29745
0.301497
0.315704
0.338885
0.370073
0.407676
0.448879
0.489797
0.525972
0.553297
0.568866
0.571522
0.561977
0.542492
0.516181
0.486233
0.455321
0.425362
0.397588
0.372774
0.351512
0.334377
0.321936
0.314681
0.313346
0.316407
0.322572
0.331247
0.342315
0.355852
0.371807
0.389741
0.408697
0.42719
0.443249
0.454854
0.461084
0.462973
0.462437
0.459652
0.451328
0.432374
0.401083
0.362677
0.325716
0.295382
0.272286
0.25603
0.247009
0.245521
0.250807
0.261081
0.274144
0.288006
0.301215
0.312888
0.322575
0.330106
0.335481
0.338803
0.340253
0.340061
0.338494
0.335833
0.332354
0.328313
0.323926
0.319356
0.314697
0.309979
0.30518
0.300254
0.295158
0.289911
0.284749
0.280473
0.278809
0.282239
0.292691
0.309409
0.32771
0.341059
0.346267
0.344745
0.338538
0.325098
0.297882
0.256576
0.214257
0.18664
0.179426
0.188616
0.206128
0.224056
0.237088
0.243255
0.243298
0.239287
0.233266
0.226512
0.219546
0.212535
0.205588
0.19882
0.192258
0.185716
0.17896
0.171798
0.164129
0.156007
0.147771
0.140173
0.134274
0.131154
0.131628
0.135988
0.143677
0.153264
0.163019
0.171752
0.179314
0.186408
0.193836
0.201696
0.209128
0.214761
0.21744
0.216715
0.212899
0.206835
0.199589
0.192192
0.185487
0.180066
0.176241
0.173988
0.172853
0.172262
0.171712
0.170775
0.169258
0.167357
0.165623
0.164717
0.165075
0.16667
0.16895
0.170974
0.171683
0.170197
0.166038
0.159206
0.150104
0.139374
0.127732
0.115835
0.104211
0.0933217
0.0838361
0.0771577
0.0759286
0.0835687
0.10055
0.118351
0.125398
0.12107
0.111808
0.102455
0.0949388
0.0893598
0.0850818
0.0814252
0.0783129
0.186502
0.407323
0.421825
0.405251
0.372329
0.337057
0.310343
0.29603
0.29386
0.302511
0.320889
0.348111
0.382938
0.423177
0.465543
0.505987
0.540403
0.565405
0.578931
0.580539
0.57133
0.55354
0.529936
0.50325
0.475804
0.449379
0.425257
0.404339
0.38723
0.374249
0.36543
0.360869
0.359579
0.36118
0.365445
0.372254
0.381466
0.39274
0.405397
0.418388
0.430318
0.439596
0.444969
0.446357