/*--------------------------------*- C++ -*----------------------------------*\
  =========                 |
  \\      /  F ield         | OpenFOAM: The Open Source CFD Toolbox
   \\    /   O peration     | Website:  https://openfoam.org
    \\  /    A nd           | Version:  9
     \\/     M anipulation  |
\*---------------------------------------------------------------------------*/
FoamFile
{
    format      ascii;
    class       volScalarField;
    location    "0.3";
    object      nut;
}
// * * * * * * * * * * * * * * * * * * * * * * * * * * * * * * * * * * * * * //

dimensions      [0 2 -1 0 0 0 0];

internalField   nonuniform List<scalar> 
12225
(
2.91407e-06
2.19926e-06
1.70539e-06
1.37149e-06
1.15659e-06
1.03205e-06
9.76826e-07
9.74376e-07
1.01114e-06
1.07576e-06
1.15876e-06
1.2524e-06
1.35065e-06
1.4492e-06
1.54543e-06
1.63835e-06
1.72876e-06
1.84228e-06
2.47025e-05
1.74809e-05
1.47641e-05
1.34763e-05
1.28408e-05
1.25324e-05
1.23747e-05
1.22711e-05
1.21758e-05
1.20705e-05
1.19497e-05
1.1813e-05
1.16618e-05
1.14982e-05
1.13247e-05
1.11436e-05
1.09575e-05
1.07783e-05
5.32792e-05
4.09926e-05
3.41799e-05
2.96863e-05
2.63236e-05
2.35807e-05
2.12163e-05
1.91272e-05
1.72801e-05
1.5666e-05
1.42739e-05
1.30838e-05
1.20687e-05
1.12e-05
1.04518e-05
9.80433e-06
9.24597e-06
8.77822e-06
6.81309e-05
5.92919e-05
5.238e-05
4.6988e-05
4.26104e-05
3.88994e-05
3.56253e-05
3.26475e-05
2.98919e-05
2.73278e-05
2.49448e-05
2.27369e-05
2.06929e-05
1.8794e-05
1.70149e-05
1.53291e-05
1.37145e-05
1.21741e-05
7.36111e-05
6.90546e-05
6.43973e-05
6.00868e-05
5.61997e-05
5.26948e-05
4.94973e-05
4.65333e-05
4.37451e-05
4.10939e-05
3.85551e-05
3.61113e-05
3.37455e-05
3.14359e-05
2.9153e-05
2.68584e-05
2.45091e-05
2.20837e-05
7.53686e-05
7.32156e-05
7.06239e-05
6.78722e-05
6.51235e-05
6.24589e-05
5.99074e-05
5.7468e-05
5.51268e-05
5.28665e-05
5.06698e-05
4.85197e-05
4.63979e-05
4.42819e-05
4.21427e-05
3.99418e-05
3.76319e-05
3.51829e-05
7.58863e-05
7.47463e-05
7.33388e-05
7.17374e-05
7.00193e-05
6.82471e-05
6.64639e-05
6.46943e-05
6.29492e-05
6.12308e-05
5.9536e-05
5.78572e-05
5.61836e-05
5.44999e-05
5.27861e-05
5.10151e-05
4.91543e-05
4.71919e-05
7.60285e-05
7.52493e-05
7.43718e-05
7.33941e-05
7.23308e-05
7.12034e-05
7.00336e-05
6.88388e-05
6.76316e-05
6.64191e-05
6.52047e-05
6.39877e-05
6.27644e-05
6.15275e-05
6.02663e-05
5.89663e-05
5.76103e-05
5.62016e-05
7.60649e-05
7.53992e-05
7.47214e-05
7.40187e-05
7.32857e-05
7.25228e-05
7.17341e-05
7.09252e-05
7.01012e-05
6.92661e-05
6.84228e-05
6.7572e-05
6.6713e-05
6.58432e-05
6.4958e-05
6.40508e-05
6.31144e-05
6.21582e-05
7.60736e-05
7.54399e-05
7.48277e-05
7.42281e-05
7.36344e-05
7.30418e-05
7.24479e-05
7.18515e-05
7.12527e-05
7.06517e-05
7.00486e-05
6.94435e-05
6.88358e-05
6.82243e-05
6.76071e-05
6.69816e-05
6.63454e-05
6.5708e-05
7.60754e-05
7.54499e-05
7.48567e-05
7.42909e-05
7.37477e-05
7.3223e-05
7.27132e-05
7.22158e-05
7.17288e-05
7.12505e-05
7.07797e-05
7.03155e-05
6.98569e-05
6.94028e-05
6.89523e-05
6.8504e-05
6.80574e-05
6.76203e-05
7.60757e-05
7.54519e-05
7.48634e-05
7.43067e-05
7.37785e-05
7.32755e-05
7.27949e-05
7.23342e-05
7.18911e-05
7.14638e-05
7.10507e-05
7.06506e-05
7.02622e-05
6.98846e-05
6.95169e-05
6.91583e-05
6.88088e-05
6.84743e-05
7.60757e-05
7.54523e-05
7.4865e-05
7.43111e-05
7.37877e-05
7.32924e-05
7.28227e-05
7.23766e-05
7.1952e-05
7.15473e-05
7.11608e-05
7.07914e-05
7.0438e-05
7.00995e-05
6.97753e-05
6.94647e-05
6.91677e-05
6.8889e-05
7.60757e-05
7.54523e-05
7.48652e-05
7.4312e-05
7.379e-05
7.32971e-05
7.28311e-05
7.23902e-05
7.19726e-05
7.15767e-05
7.12013e-05
7.08452e-05
7.05072e-05
7.01866e-05
6.98825e-05
6.95945e-05
6.93224e-05
6.90703e-05
7.60756e-05
7.54521e-05
7.48651e-05
7.43119e-05
7.37903e-05
7.3298e-05
7.2833e-05
7.23935e-05
7.1978e-05
7.1585e-05
7.12132e-05
7.08614e-05
7.05287e-05
7.02142e-05
6.99171e-05
6.96368e-05
6.93732e-05
6.91302e-05
7.60755e-05
7.5452e-05
7.48649e-05
7.43118e-05
7.37902e-05
7.32981e-05
7.28334e-05
7.23944e-05
7.19795e-05
7.15873e-05
7.12165e-05
7.08659e-05
7.05345e-05
7.02214e-05
6.99258e-05
6.9647e-05
6.93848e-05
6.91429e-05
7.60754e-05
7.54518e-05
7.48647e-05
7.43116e-05
7.37901e-05
7.32981e-05
7.28337e-05
7.2395e-05
7.19804e-05
7.15886e-05
7.12181e-05
7.08678e-05
7.05367e-05
7.02237e-05
6.99279e-05
6.96487e-05
6.93857e-05
6.91426e-05
7.60753e-05
7.54517e-05
7.48646e-05
7.43115e-05
7.37901e-05
7.32983e-05
7.2834e-05
7.23956e-05
7.19813e-05
7.15897e-05
7.12195e-05
7.08693e-05
7.05381e-05
7.02248e-05
6.99285e-05
6.96483e-05
6.9384e-05
6.91393e-05
7.60752e-05
7.54515e-05
7.48645e-05
7.43115e-05
7.37903e-05
7.32986e-05
7.28346e-05
7.23964e-05
7.19824e-05
7.1591e-05
7.12208e-05
7.08706e-05
7.05392e-05
7.02254e-05
6.99283e-05
6.96471e-05
6.93813e-05
6.91349e-05
7.60752e-05
7.54515e-05
7.48645e-05
7.43116e-05
7.37906e-05
7.32992e-05
7.28354e-05
7.23974e-05
7.19835e-05
7.15921e-05
7.12218e-05
7.08714e-05
7.05395e-05
7.02251e-05
6.99271e-05
6.96447e-05
6.93776e-05
6.91294e-05
7.60751e-05
7.54515e-05
7.48646e-05
7.43119e-05
7.3791e-05
7.32996e-05
7.28358e-05
7.23975e-05
7.19832e-05
7.15912e-05
7.122e-05
7.08683e-05
7.05349e-05
7.02187e-05
6.99185e-05
6.96336e-05
6.93634e-05
6.9112e-05
7.60751e-05
7.54514e-05
7.48644e-05
7.43112e-05
7.37893e-05
7.32962e-05
7.28298e-05
7.23879e-05
7.1969e-05
7.15712e-05
7.11931e-05
7.08333e-05
7.04908e-05
7.01643e-05
6.98528e-05
6.95556e-05
6.92722e-05
6.90066e-05
7.60748e-05
7.54497e-05
7.48592e-05
7.42994e-05
7.37669e-05
7.32586e-05
7.27721e-05
7.23053e-05
7.18567e-05
7.1425e-05
7.10091e-05
7.06082e-05
7.02214e-05
6.9848e-05
6.94876e-05
6.91395e-05
6.88038e-05
6.84849e-05
7.60709e-05
7.54316e-05
7.48113e-05
7.42032e-05
7.36028e-05
7.30083e-05
7.24196e-05
7.18373e-05
7.12627e-05
7.06974e-05
7.01425e-05
6.95992e-05
6.90684e-05
6.85505e-05
6.80459e-05
6.75545e-05
6.70769e-05
6.66184e-05
7.6035e-05
7.52902e-05
7.4489e-05
7.36331e-05
7.27337e-05
7.18061e-05
7.08656e-05
6.99254e-05
6.89955e-05
6.80833e-05
6.71934e-05
6.63288e-05
6.54907e-05
6.46793e-05
6.38939e-05
6.31334e-05
6.23967e-05
6.16893e-05
7.57661e-05
7.44317e-05
7.28438e-05
7.11193e-05
6.93489e-05
6.75953e-05
6.58972e-05
6.42742e-05
6.27337e-05
6.12755e-05
5.98957e-05
5.85877e-05
5.73445e-05
5.61583e-05
5.50222e-05
5.39295e-05
5.28749e-05
5.18613e-05
7.41102e-05
7.04047e-05
6.66025e-05
6.30622e-05
5.98771e-05
5.70459e-05
5.45308e-05
5.22825e-05
5.02535e-05
4.84028e-05
4.66961e-05
4.51055e-05
4.36086e-05
4.2188e-05
4.08303e-05
3.95252e-05
3.82656e-05
3.70529e-05
6.58967e-05
5.67017e-05
5.01875e-05
4.54357e-05
4.18075e-05
3.89284e-05
3.65623e-05
3.45543e-05
3.28015e-05
3.12353e-05
2.98092e-05
2.8492e-05
2.72633e-05
2.61099e-05
2.50239e-05
2.39998e-05
2.30346e-05
2.21279e-05
3.80934e-05
2.84076e-05
2.40354e-05
2.15547e-05
2.00033e-05
1.89993e-05
1.83468e-05
1.79279e-05
1.76652e-05
1.75052e-05
1.74104e-05
1.73542e-05
1.73183e-05
1.72907e-05
1.72638e-05
1.7233e-05
1.71966e-05
1.71525e-05
5.62833e-06
4.72207e-06
4.01449e-06
3.4588e-06
3.02251e-06
2.68185e-06
2.41897e-06
2.22009e-06
2.07425e-06
1.97257e-06
1.90775e-06
1.87369e-06
1.86526e-06
1.8781e-06
1.90849e-06
1.95326e-06
2.00976e-06
2.07555e-06
1.61003e-06
5.17816e-06
5.63884e-06
5.75067e-06
5.78652e-06
5.81452e-06
5.85483e-06
5.89447e-06
5.89044e-06
5.80971e-06
5.61316e-06
5.25826e-06
4.69207e-06
1.80981e-05
1.73372e-05
4.18869e-06
4.27165e-06
4.16313e-06
1.7485e-05
3.79567e-06
5.01571e-06
6.95464e-06
8.36183e-06
9.47922e-06
1.036e-05
1.10422e-05
1.15563e-05
1.19275e-05
1.21776e-05
1.23248e-05
1.23853e-05
1.2373e-05
1.23002e-05
1.21774e-05
1.20143e-05
1.18186e-05
1.15865e-05
1.13506e-05
1.11129e-05
1.08741e-05
1.06347e-05
1.03952e-05
1.01562e-05
9.9182e-06
9.68148e-06
9.44632e-06
9.21286e-06
8.98114e-06
8.75108e-06
8.52244e-06
8.29483e-06
8.06772e-06
7.84044e-06
7.61224e-06
7.3824e-06
7.15027e-06
6.91546e-06
6.6779e-06
6.43793e-06
6.19624e-06
5.95379e-06
5.71137e-06
5.46881e-06
5.22324e-06
4.96669e-06
4.82311e-06
4.82486e-06
4.85521e-06
4.89942e-06
4.95507e-06
5.02185e-06
5.09988e-06
5.18945e-06
5.29105e-06
5.40543e-06
5.53333e-06
5.67429e-06
5.82362e-06
5.96578e-06
6.06416e-06
6.11223e-06
6.0766e-06
5.93549e-06
5.68914e-06
5.33772e-06
2.08063e-05
1.78098e-05
1.56171e-05
1.43327e-05
1.39581e-05
1.44972e-05
1.55948e-05
3.99047e-06
4.18751e-06
4.39529e-06
4.64443e-06
4.92623e-06
5.16347e-06
5.21452e-06
4.9432e-06
4.45825e-06
5.18676e-06
7.04699e-06
8.43394e-06
9.45621e-06
1.01605e-05
1.06013e-05
1.08273e-05
1.08793e-05
1.07918e-05
1.05942e-05
1.03076e-05
9.9411e-06
9.55464e-06
9.15425e-06
8.7462e-06
8.33621e-06
7.92911e-06
7.52882e-06
7.13821e-06
6.75895e-06
6.39134e-06
6.0334e-06
5.67529e-06
5.26977e-06
4.78958e-06
4.96202e-06
5.23608e-06
5.55209e-06
5.90614e-06
6.2982e-06
6.72638e-06
7.18642e-06
7.67239e-06
8.17838e-06
8.69405e-06
9.20276e-06
9.74285e-06
1.03803e-05
1.08506e-05
1.10908e-05
1.103e-05
1.05878e-05
9.68453e-06
8.21062e-06
2.71112e-05
1.40056e-05
1.01042e-05
1.0595e-05
1.12274e-05
1.15183e-05
1.15951e-05
1.16943e-05
1.16145e-05
1.08869e-05
9.79518e-06
8.58295e-06
7.32571e-06
6.10509e-06
5.07506e-06
4.21105e-06
3.5513e-06
3.12008e-06
2.91589e-06
2.92545e-06
3.12108e-06
3.44522e-06
3.79676e-06
4.04438e-06
4.13117e-06
4.28343e-06
4.65701e-06
4.93106e-06
5.14094e-06
5.49555e-06
5.83476e-06
6.1777e-06
6.5207e-06
6.86346e-06
7.2554e-06
4.7351e-06
1.03314e-05
1.17715e-05
1.21746e-05
1.2011e-05
1.15894e-05
1.1083e-05
1.01532e-05
8.85886e-06
7.70637e-06
6.86978e-06
6.29323e-06
6.13694e-06
7.71784e-06
8.97706e-06
9.27355e-06
8.97041e-06
8.71754e-06
8.51089e-06
8.45572e-06
8.72727e-06
9.01646e-06
9.21719e-06
9.3861e-06
9.57339e-06
9.82894e-06
1.02051e-05
1.07598e-05
1.15597e-05
1.26804e-05
1.42009e-05
1.61834e-05
1.8628e-05
2.13993e-05
2.41649e-05
2.64489e-05
2.77522e-05
2.89863e-05
3.02113e-05
3.14322e-05
3.26542e-05
3.38839e-05
3.51286e-05
3.63954e-05
3.76898e-05
3.90154e-05
4.03724e-05
4.17569e-05
4.31606e-05
4.45701e-05
4.5967e-05
4.73287e-05
4.86289e-05
4.98398e-05
5.09336e-05
5.18841e-05
5.26689e-05
5.327e-05
5.3673e-05
5.38662e-05
5.3837e-05
5.3566e-05
5.30178e-05
5.21346e-05
5.08447e-05
4.93134e-05
4.77564e-05
4.61805e-05
4.46037e-05
4.30432e-05
4.15145e-05
4.00304e-05
3.86012e-05
3.72345e-05
3.5935e-05
3.47032e-05
3.35241e-05
3.23269e-05
3.08772e-05
2.85469e-05
2.52909e-05
2.24297e-05
2.03819e-05
1.92247e-05
1.87597e-05
1.92368e-05
1.9328e-05
1.88723e-05
1.78306e-05
1.6343e-05
1.46978e-05
1.3178e-05
1.17923e-05
1.04997e-05
9.06853e-06
7.65196e-06
6.57929e-06
6.03209e-06
5.89567e-06
5.66538e-06
5.55685e-06
5.74584e-06
6.07527e-06
6.37658e-06
6.77419e-06
7.39716e-06
8.39054e-06
9.91394e-06
1.21019e-05
1.49235e-05
1.79492e-05
2.03169e-05
2.19409e-05
2.3535e-05
2.50884e-05
2.65812e-05
2.79934e-05
2.93047e-05
3.04937e-05
3.15352e-05
3.23971e-05
3.30388e-05
3.34064e-05
3.34226e-05
3.29482e-05
3.19107e-05
3.07105e-05
2.93103e-05
2.7743e-05
2.60442e-05
2.42499e-05
2.23964e-05
2.05199e-05
1.86556e-05
1.68355e-05
1.50825e-05
1.3406e-05
1.17916e-05
9.67305e-06
7.39266e-06
6.38868e-06
6.18578e-06
6.3823e-06
6.74749e-06
7.1044e-06
7.59156e-06
7.82875e-06
8.13886e-06
8.69821e-06
9.51294e-06
1.03188e-05
1.07945e-05
1.0803e-05
1.05526e-05
1.03252e-05
1.01454e-05
9.98226e-06
9.78868e-06
9.51581e-06
9.13926e-06
8.66417e-06
8.13235e-06
7.61729e-06
7.20891e-06
6.99958e-06
7.06862e-06
7.46629e-06
8.16671e-06
8.97814e-06
9.68348e-06
1.04786e-05
1.16284e-05
1.21908e-05
1.17549e-05
1.16825e-05
1.23511e-05
1.34392e-05
1.46035e-05
1.55939e-05
1.62738e-05
6.60929e-06
1.14809e-05
1.32566e-05
1.35749e-05
1.30963e-05
1.24895e-05
1.19805e-05
1.11592e-05
9.85231e-06
8.50722e-06
7.79113e-06
8.05235e-06
9.09034e-06
1.04432e-05
1.09691e-05
1.06361e-05
1.01008e-05
9.7601e-06
9.6532e-06
9.76081e-06
1.00673e-05
1.05358e-05
1.12091e-05
1.21804e-05
1.35624e-05
1.54808e-05
1.80555e-05
2.13564e-05
2.53342e-05
2.97511e-05
3.41819e-05
3.81373e-05
4.12618e-05
4.34574e-05
4.48455e-05
4.5634e-05
4.6266e-05
4.68722e-05
4.74683e-05
4.8065e-05
4.86755e-05
4.93156e-05
5.00027e-05
5.07553e-05
5.15907e-05
5.25244e-05
5.35682e-05
5.47285e-05
5.6005e-05
5.73898e-05
5.88667e-05
6.04117e-05
6.19938e-05
6.35767e-05
6.51208e-05
6.65852e-05
6.79303e-05
6.91195e-05
7.01207e-05
7.09067e-05
7.1456e-05
7.17514e-05
7.17764e-05
7.1518e-05
7.09629e-05
7.02069e-05
6.93383e-05
6.83836e-05
6.73634e-05
6.62969e-05
6.52028e-05
6.4099e-05
6.3001e-05
6.192e-05
6.08592e-05
5.98098e-05
5.87451e-05
5.76119e-05
5.63167e-05
5.47186e-05
5.27227e-05
5.02768e-05
4.71064e-05
4.30743e-05
3.88642e-05
3.51493e-05
3.19814e-05
2.93042e-05
2.69882e-05
2.48747e-05
2.28262e-05
2.06738e-05
1.83448e-05
1.5628e-05
1.24807e-05
9.6077e-06
7.68647e-06
6.62597e-06
6.0154e-06
5.78967e-06
5.89767e-06
6.37401e-06
7.28761e-06
8.80994e-06
1.12046e-05
1.46387e-05
1.89951e-05
2.37133e-05
2.79301e-05
3.09859e-05
3.27927e-05
3.3661e-05
3.42288e-05
3.47219e-05
3.51526e-05
3.55312e-05
3.58687e-05
3.61748e-05
3.64544e-05
3.67034e-05
3.69064e-05
3.70358e-05
3.70547e-05
3.69171e-05
3.65682e-05
3.60592e-05
3.54216e-05
3.46691e-05
3.38384e-05
3.29624e-05
3.20663e-05
3.11668e-05
3.02732e-05
2.93883e-05
2.85105e-05
2.76354e-05
2.67539e-05
2.5824e-05
2.45646e-05
2.19538e-05
1.67923e-05
1.20389e-05
9.17065e-06
7.7547e-06
7.14582e-06
7.03986e-06
7.22884e-06
7.66749e-06
8.2629e-06
8.83283e-06
9.16658e-06
9.14e-06
8.84622e-06
8.49778e-06
8.17472e-06
7.98394e-06
7.94342e-06
8.02601e-06
8.17536e-06
8.31902e-06
8.38192e-06
8.30563e-06
8.07163e-06
7.72004e-06
7.3501e-06
7.1534e-06
7.39148e-06
8.25392e-06
9.60762e-06
1.1187e-05
1.30353e-05
1.45204e-05
1.41321e-05
1.36707e-05
1.41728e-05
1.50398e-05
1.58164e-05
1.64371e-05
1.69553e-05
1.74425e-05
7.89222e-06
1.36151e-05
1.55521e-05
1.4777e-05
1.3337e-05
1.23193e-05
1.12726e-05
1.02059e-05
9.30046e-06
8.85987e-06
9.19404e-06
1.02036e-05
1.12876e-05
1.16923e-05
1.13867e-05
1.09607e-05
1.07629e-05
1.089e-05
1.13433e-05
1.21279e-05
1.32831e-05
1.48858e-05
1.70503e-05
1.98819e-05
2.34118e-05
2.75206e-05
3.1891e-05
3.60575e-05
3.95716e-05
4.21833e-05
4.39033e-05
4.49214e-05
4.54759e-05
4.57629e-05
4.59077e-05
4.59863e-05
4.60287e-05
4.60322e-05
4.59985e-05
4.59378e-05
4.5869e-05
4.58181e-05
4.58157e-05
4.58949e-05
4.6089e-05
4.64298e-05
4.69476e-05
4.7669e-05
4.86145e-05
4.97949e-05
5.12088e-05
5.28407e-05
5.4663e-05
5.66372e-05
5.87166e-05
6.08492e-05
6.29799e-05
6.50535e-05
6.70174e-05
6.88238e-05
7.0431e-05
7.1805e-05
7.29164e-05
7.37426e-05
7.42265e-05
7.4453e-05
7.45023e-05
7.43985e-05
7.41577e-05
7.37951e-05
7.33262e-05
7.27682e-05
7.21386e-05
7.14547e-05
7.07311e-05
6.99768e-05
6.919e-05
6.83523e-05
6.74232e-05
6.6338e-05
6.50119e-05
6.33445e-05
6.12195e-05
5.85183e-05
5.50911e-05
5.07471e-05
4.60115e-05
4.14238e-05
3.73219e-05
3.38212e-05
3.07576e-05
2.76571e-05
2.37726e-05
1.89222e-05
1.40225e-05
1.02565e-05
7.832e-06
6.47813e-06
6.08455e-06
6.25856e-06
7.00427e-06
8.486e-06
1.09792e-05
1.47065e-05
1.95351e-05
2.47373e-05
2.92628e-05
3.24111e-05
3.41797e-05
3.49879e-05
3.52616e-05
3.52594e-05
3.51786e-05
3.50543e-05
3.48901e-05
3.46978e-05
3.4497e-05
3.43111e-05
3.41608e-05
3.40566e-05
3.39934e-05
3.39484e-05
3.38842e-05
3.37493e-05
3.3507e-05
3.31622e-05
3.27101e-05
3.21776e-05
3.16005e-05
3.10126e-05
3.04406e-05
2.9902e-05
2.94055e-05
2.89531e-05
2.85431e-05
2.81748e-05
2.7851e-05
2.75734e-05
2.73161e-05
2.68987e-05
2.54761e-05
2.21675e-05
1.77054e-05
1.37131e-05
1.09009e-05
9.14142e-06
8.12539e-06
7.64062e-06
7.50801e-06
7.5283e-06
7.51386e-06
7.36084e-06
7.07963e-06
6.74315e-06
6.42857e-06
6.15425e-06
5.94797e-06
5.83394e-06
5.823e-06
5.90975e-06
6.06736e-06
6.24932e-06
6.40211e-06
6.49198e-06
6.53974e-06
6.658e-06
7.10354e-06
8.20633e-06
1.00099e-05
1.22843e-05
1.45188e-05
1.54117e-05
1.46896e-05
1.47668e-05
1.53388e-05
1.57407e-05
1.59393e-05
1.61085e-05
1.6341e-05
1.67019e-05
9.04319e-06
1.62676e-05
1.67552e-05
1.48764e-05
1.29073e-05
1.14481e-05
1.05222e-05
1.00303e-05
9.95515e-06
1.03381e-05
1.10374e-05
1.16822e-05
1.19361e-05
1.18302e-05
1.17127e-05
1.18817e-05
1.24502e-05
1.34588e-05
1.49451e-05
1.6966e-05
1.95916e-05
2.28634e-05
2.67197e-05
3.09255e-05
3.50778e-05
3.87244e-05
4.15431e-05
4.34549e-05
4.45963e-05
4.52037e-05
4.55022e-05
4.56512e-05
4.5739e-05
4.58007e-05
4.58308e-05
4.57652e-05
4.55722e-05
4.52279e-05
4.47186e-05
4.40451e-05
4.32274e-05
4.23067e-05
4.1344e-05
4.04139e-05
3.95947e-05
3.89579e-05
3.85611e-05
3.84485e-05
3.86558e-05
3.9212e-05
4.01359e-05
4.14298e-05
4.30768e-05
4.50434e-05
4.72821e-05
4.97336e-05
5.23296e-05
5.49971e-05
5.76627e-05
6.02573e-05
6.27191e-05
6.49962e-05
6.70392e-05
6.87868e-05
7.01445e-05
7.12612e-05
7.21707e-05
7.28833e-05
7.34052e-05
7.37425e-05
7.39032e-05
7.38982e-05
7.3741e-05
7.34479e-05
7.30362e-05
7.25233e-05
7.19235e-05
7.12453e-05
7.04865e-05
6.96275e-05
6.86219e-05
6.73963e-05
6.58642e-05
6.39386e-05
6.15167e-05
5.84405e-05
5.45312e-05
5.00621e-05
4.54784e-05
4.11151e-05
3.68876e-05
3.21888e-05
2.64142e-05
2.00123e-05
1.432e-05
1.01149e-05
7.4274e-06
6.40036e-06
6.47458e-06
7.29754e-06
9.03039e-06
1.19576e-05
1.62605e-05
2.1588e-05
2.69154e-05
3.10951e-05
3.36415e-05
3.48324e-05
3.52161e-05
3.52124e-05
3.50331e-05
3.47538e-05
3.44054e-05
3.39801e-05
3.34778e-05
3.29163e-05
3.23304e-05
3.17655e-05
3.12677e-05
3.08703e-05
3.05846e-05
3.0395e-05
3.02616e-05
3.01277e-05
2.9949e-05
2.96887e-05
2.93458e-05
2.89422e-05
2.85103e-05
2.80822e-05
2.76833e-05
2.73285e-05
2.7022e-05
2.67599e-05
2.65349e-05
2.63407e-05
2.6177e-05
2.60528e-05
2.59852e-05
2.59757e-05
2.59017e-05
2.52487e-05
2.34272e-05
2.04309e-05
1.69952e-05
1.38984e-05
1.148e-05
9.76587e-06
8.64438e-06
7.94217e-06
7.48322e-06
7.14452e-06
6.86895e-06
6.63913e-06
6.44774e-06
6.2839e-06
6.13217e-06
5.99422e-06
5.87838e-06
5.79434e-06
5.75203e-06
5.75454e-06
5.79561e-06
5.86978e-06
5.99798e-06
6.27859e-06
6.94136e-06
8.26758e-06
1.04074e-05
1.31034e-05
1.52592e-05
1.55397e-05
1.50256e-05
1.53937e-05
1.56634e-05
1.55772e-05
1.54088e-05
1.53448e-05
1.54193e-05
1.56578e-05
1.01938e-05
1.7678e-05
1.73678e-05
1.50677e-05
1.31109e-05
1.19887e-05
1.14058e-05
1.12408e-05
1.13798e-05
1.16807e-05
1.19762e-05
1.21583e-05
1.22787e-05
1.25351e-05
1.31422e-05
1.42274e-05
1.58496e-05
1.80542e-05
2.08762e-05
2.43055e-05
2.82341e-05
3.24099e-05
3.64555e-05
3.99806e-05
4.27276e-05
4.46514e-05
4.58879e-05
4.66559e-05
4.71628e-05
4.75556e-05
4.79132e-05
4.82608e-05
4.85887e-05
4.88689e-05
4.90545e-05
4.9141e-05
4.90851e-05
4.88338e-05
4.83334e-05
4.75367e-05
4.64112e-05
4.49498e-05
4.31827e-05
4.1187e-05
3.90887e-05
3.70504e-05
3.52421e-05
3.38023e-05
3.28158e-05
3.23214e-05
3.23362e-05
3.28656e-05
3.38999e-05
3.54139e-05
3.73676e-05
3.97037e-05
4.23481e-05
4.52124e-05
4.82004e-05
5.12177e-05
5.41824e-05
5.70261e-05
5.96751e-05
6.1955e-05
6.39654e-05
6.57622e-05
6.7351e-05
6.87282e-05
6.98888e-05
7.08283e-05
7.15437e-05
7.20356e-05
7.2308e-05
7.23696e-05
7.22327e-05
7.19128e-05
7.14267e-05
7.07918e-05
7.00242e-05
6.91364e-05
6.81319e-05
6.69988e-05
6.57064e-05
6.42054e-05
6.24229e-05
6.02381e-05
5.74662e-05
5.39236e-05
4.97614e-05
4.51532e-05
3.99854e-05
3.38288e-05
2.67132e-05
1.97152e-05
1.38801e-05
9.55863e-06
7.06995e-06
6.57625e-06
7.22144e-06
8.87007e-06
1.1787e-05
1.61539e-05
2.16363e-05
2.71589e-05
3.1482e-05
3.40686e-05
3.52267e-05
3.55625e-05
3.55312e-05
3.53488e-05
3.50756e-05
3.4706e-05
3.4217e-05
3.35877e-05
3.28167e-05
3.19293e-05
3.09775e-05
3.00336e-05
2.91744e-05
2.84635e-05
2.7933e-05
2.75798e-05
2.73622e-05
2.72249e-05
2.70874e-05
2.69069e-05
2.66736e-05
2.64005e-05
2.61146e-05
2.5845e-05
2.56139e-05
2.54319e-05
2.52965e-05
2.51956e-05
2.51123e-05
2.50306e-05
2.49412e-05
2.4845e-05
2.47564e-05
2.47018e-05
2.47051e-05
2.47039e-05
2.43807e-05
2.3338e-05
2.1407e-05
1.88358e-05
1.61123e-05
1.36711e-05
1.17413e-05
1.03473e-05
9.39534e-06
8.76553e-06
8.35901e-06
8.10237e-06
7.9376e-06
7.81532e-06
7.69521e-06
7.55116e-06
7.37333e-06
7.16717e-06
6.94921e-06
6.74113e-06
6.56632e-06
6.45334e-06
6.45265e-06
6.67267e-06
7.31013e-06
8.60975e-06
1.08301e-05
1.36447e-05
1.55626e-05
1.55112e-05
1.52814e-05
1.56983e-05
1.55929e-05
1.51872e-05
1.48465e-05
1.46811e-05
1.46692e-05
1.47853e-05
1.11996e-05
1.88628e-05
1.81158e-05
1.5757e-05
1.40225e-05
1.29755e-05
1.24534e-05
1.22594e-05
1.22576e-05
1.23631e-05
1.25524e-05
1.28794e-05
1.34683e-05
1.44695e-05
1.60022e-05
1.81298e-05
2.08739e-05
2.42094e-05
2.80249e-05
3.2091e-05
3.60784e-05
3.96382e-05
4.25126e-05
4.46106e-05
4.60078e-05
4.68823e-05
4.74351e-05
4.78336e-05
4.81887e-05
4.8558e-05
4.89599e-05
4.93871e-05
4.98171e-05
5.02174e-05
5.06277e-05
5.10332e-05
5.13792e-05
5.15985e-05
5.16171e-05
5.13574e-05
5.07424e-05
4.96994e-05
4.81678e-05
4.61143e-05
4.35593e-05
4.06119e-05
3.74924e-05
3.45075e-05
3.19607e-05
3.005e-05
2.88433e-05
2.83314e-05
2.84801e-05
2.92542e-05
3.06191e-05
3.25293e-05
3.49155e-05
3.76842e-05
4.07197e-05
4.38895e-05
4.7097e-05
5.02494e-05
5.31253e-05
5.57681e-05
5.8227e-05
6.0501e-05
6.25797e-05
6.44502e-05
6.60988e-05
6.75117e-05
6.86755e-05
6.95791e-05
7.02146e-05
7.05784e-05
7.06724e-05
7.05034e-05
7.00829e-05
6.9427e-05
6.85581e-05
6.75062e-05
6.63103e-05
6.50145e-05
6.3657e-05
6.22529e-05
6.07753e-05
5.91315e-05
5.71337e-05
5.44891e-05
5.09745e-05
4.64574e-05
4.07489e-05
3.37652e-05
2.6166e-05
1.91285e-05
1.32819e-05
9.0267e-06
6.93572e-06
6.96103e-06
8.24415e-06
1.08056e-05
1.48752e-05
2.02747e-05
2.60765e-05
3.09451e-05
3.40728e-05
3.55958e-05
3.61345e-05
3.62267e-05
3.61477e-05
3.59775e-05
3.57019e-05
3.52804e-05
3.46774e-05
3.38683e-05
3.28508e-05
3.1655e-05
3.03475e-05
2.90264e-05
2.77988e-05
2.67634e-05
2.59724e-05
2.54422e-05
2.51405e-05
2.498e-05
2.48774e-05
2.47819e-05
2.46695e-05
2.4542e-05
2.44189e-05
2.43252e-05
2.42796e-05
2.42876e-05
2.43397e-05
2.44152e-05
2.44878e-05
2.45322e-05
2.45294e-05
2.44711e-05
2.43614e-05
2.42192e-05
2.40794e-05
2.39891e-05
2.39144e-05
2.36628e-05
2.29706e-05
2.16652e-05
1.9803e-05
1.76651e-05
1.56104e-05
1.38961e-05
1.26085e-05
1.17123e-05
1.11239e-05
1.0753e-05
1.05165e-05
1.03418e-05
1.01706e-05
9.96225e-06
9.69611e-06
9.37003e-06
8.99663e-06
8.59881e-06
8.20779e-06
7.86681e-06
7.64426e-06
7.65501e-06
8.06072e-06
9.09509e-06
1.11559e-05
1.39136e-05
1.56299e-05
1.54876e-05
1.54408e-05
1.57759e-05
1.54e-05
1.4835e-05
1.44372e-05
1.42248e-05
1.41571e-05
1.41547e-05
1.19956e-05
1.99116e-05
1.90366e-05
1.67107e-05
1.48841e-05
1.37964e-05
1.32155e-05
1.29594e-05
1.29431e-05
1.31523e-05
1.36275e-05
1.44516e-05
1.57303e-05
1.75601e-05
1.99935e-05
2.30199e-05
2.65516e-05
3.04046e-05
3.42987e-05
3.79096e-05
4.09543e-05
4.32676e-05
4.48332e-05
4.57616e-05
4.62314e-05
4.64289e-05
4.6507e-05
4.65702e-05
4.66787e-05
4.6861e-05
4.71264e-05
4.7473e-05
4.78908e-05
4.83874e-05
4.90184e-05
4.97389e-05
5.04863e-05
5.11861e-05
5.17564e-05
5.21145e-05
5.21818e-05
5.18851e-05
5.11511e-05
4.98967e-05
4.80255e-05
4.54566e-05
4.21986e-05
3.84489e-05
3.46246e-05
3.12317e-05
2.86311e-05
2.69277e-05
2.60701e-05
2.59821e-05
2.66162e-05
2.79388e-05
2.98929e-05
3.23918e-05
3.5321e-05
3.84809e-05
4.18009e-05
4.49667e-05
4.8013e-05
5.09342e-05
5.37123e-05
5.63284e-05
5.87636e-05
6.09991e-05
6.30156e-05
6.47928e-05
6.63101e-05
6.75469e-05
6.84838e-05
6.91046e-05
6.93975e-05
6.93569e-05
6.89834e-05
6.82851e-05
6.72807e-05
6.60054e-05
6.45195e-05
6.29108e-05
6.12849e-05
5.9734e-05
5.82957e-05
5.69127e-05
5.53992e-05
5.33974e-05
5.04514e-05
4.61675e-05
4.03029e-05
3.30824e-05
2.5501e-05
1.8574e-05
1.276e-05
8.68726e-06
6.98737e-06
7.46538e-06
9.40599e-06
1.28566e-05
1.78629e-05
2.37999e-05
2.93792e-05
3.34314e-05
3.5695e-05
3.66816e-05
3.7026e-05
3.71172e-05
3.70965e-05
3.6968e-05
3.6684e-05
3.61911e-05
3.54607e-05
3.4472e-05
3.3224e-05
3.17476e-05
3.01163e-05
2.84521e-05
2.68838e-05
2.55434e-05
2.45049e-05
2.38216e-05
2.3424e-05
2.32298e-05
2.31634e-05
2.31595e-05
2.31774e-05
2.32054e-05
2.32549e-05
2.33462e-05
2.34942e-05
2.36994e-05
2.39452e-05
2.42024e-05
2.44363e-05
2.46142e-05
2.47112e-05
2.47138e-05
2.46196e-05
2.44377e-05
2.41905e-05
2.39196e-05
2.36843e-05
2.34711e-05
2.31714e-05
2.26169e-05
2.1673e-05
2.03424e-05
1.87946e-05
1.7278e-05
1.59871e-05
1.50006e-05
1.43027e-05
1.38291e-05
1.35003e-05
1.32389e-05
1.29802e-05
1.26777e-05
1.23062e-05
1.18598e-05
1.13475e-05
1.07891e-05
1.0213e-05
9.66107e-06
9.20125e-06
8.93954e-06
9.00352e-06
9.64075e-06
1.13869e-05
1.39653e-05
1.55601e-05
1.54646e-05
1.54843e-05
1.57133e-05
1.52323e-05
1.46019e-05
1.42096e-05
1.39686e-05
1.38404e-05
1.37408e-05
1.2422e-05
2.06685e-05
1.98652e-05
1.74521e-05
1.55953e-05
1.44825e-05
1.39048e-05
1.37236e-05
1.38922e-05
1.44227e-05
1.5364e-05
1.67857e-05
1.87561e-05
2.13093e-05
2.441e-05
2.79323e-05
3.16566e-05
3.5294e-05
3.8544e-05
4.11673e-05
4.30406e-05
4.41725e-05
4.46793e-05
4.47356e-05
4.4522e-05
4.41893e-05
4.38443e-05
4.35539e-05
4.33579e-05
4.32817e-05
4.33438e-05
4.35577e-05
4.39295e-05
4.45312e-05
4.53524e-05
4.63459e-05
4.74452e-05
4.85663e-05
4.96123e-05
5.04822e-05
5.10837e-05
5.13471e-05
5.12296e-05
5.06984e-05
4.96899e-05
4.80721e-05
4.56645e-05
4.23606e-05
3.83188e-05
3.4061e-05
3.02889e-05
2.74465e-05
2.5601e-05
2.46589e-05
2.45461e-05
2.52393e-05
2.66944e-05
2.88304e-05
3.15771e-05
3.462e-05
3.78012e-05
4.1034e-05
4.42454e-05
4.73829e-05
5.04081e-05
5.32908e-05
5.60049e-05
5.85259e-05
6.08305e-05
6.28949e-05
6.46943e-05
6.62023e-05
6.73914e-05
6.82343e-05
6.8706e-05
6.87865e-05
6.84626e-05
6.77295e-05
6.65959e-05
6.50924e-05
6.32868e-05
6.12973e-05
5.92882e-05
5.74338e-05
5.58516e-05
5.45322e-05
5.3288e-05
5.17059e-05
4.91937e-05
4.51999e-05
3.94589e-05
3.23639e-05
2.49848e-05
1.81794e-05
1.24397e-05
8.57956e-06
7.18953e-06
7.99627e-06
1.04801e-05
1.47221e-05
2.04414e-05
2.65635e-05
3.17381e-05
3.51231e-05
3.68752e-05
3.76492e-05
3.79927e-05
3.81658e-05
3.82204e-05
3.81139e-05
3.77831e-05
3.71729e-05
3.62823e-05
3.51025e-05
3.36401e-05
3.19228e-05
3.00177e-05
2.80686e-05
2.62259e-05
2.46172e-05
2.34148e-05
2.25753e-05
2.20756e-05
2.18557e-05
2.18341e-05
2.19299e-05
2.20843e-05
2.22715e-05
2.24943e-05
2.27685e-05
2.31056e-05
2.35003e-05
2.39282e-05
2.43511e-05
2.47263e-05
2.50167e-05
2.51967e-05
2.52541e-05
2.5188e-05
2.50052e-05
2.47181e-05
2.4349e-05
2.39433e-05
2.35579e-05
2.3203e-05
2.28276e-05
2.23309e-05
2.1624e-05
2.07041e-05
1.96731e-05
1.8678e-05
1.78315e-05
1.71752e-05
1.66896e-05
1.632e-05
1.60004e-05
1.56701e-05
1.52843e-05
1.48183e-05
1.42667e-05
1.36386e-05
1.2952e-05
1.2231e-05
1.15091e-05
1.08403e-05
1.0307e-05
1.00022e-05
1.01932e-05
1.15362e-05
1.38588e-05
1.53916e-05
1.54084e-05
1.54239e-05
1.55574e-05
1.50964e-05
1.45137e-05
1.41443e-05
1.38915e-05
1.3671e-05
1.34824e-05
1.21465e-05
2.07553e-05
2.02022e-05
1.79455e-05
1.6146e-05
1.50887e-05
1.46233e-05
1.4642e-05
1.51134e-05
1.60512e-05
1.74925e-05
1.94787e-05
2.20256e-05
2.50862e-05
2.85223e-05
3.2106e-05
3.55525e-05
3.85763e-05
4.09529e-05
4.2565e-05
4.34178e-05
4.36195e-05
4.33393e-05
4.27576e-05
4.20292e-05
4.1267e-05
4.05448e-05
3.99101e-05
3.93985e-05
3.90432e-05
3.88803e-05
3.89447e-05
3.92629e-05
3.99214e-05
4.08678e-05
4.20514e-05
4.34082e-05
4.48554e-05
4.62913e-05
4.75972e-05
4.86499e-05
4.93455e-05
4.96305e-05
4.95127e-05
4.90202e-05
4.81112e-05
4.66063e-05
4.42328e-05
4.08287e-05
3.66136e-05
3.23283e-05
2.87268e-05
2.6107e-05
2.44531e-05
2.36891e-05
2.38111e-05
2.4798e-05
2.65553e-05
2.89466e-05
3.17952e-05
3.49339e-05
3.82251e-05
4.15649e-05
4.48784e-05
4.81102e-05
5.12175e-05
5.41649e-05
5.6922e-05
5.94614e-05
6.17573e-05
6.37835e-05
6.55114e-05
6.69094e-05
6.79428e-05
6.85759e-05
6.87747e-05
6.85107e-05
6.77635e-05
6.65268e-05
6.48194e-05
6.27056e-05
6.03194e-05
5.7873e-05
5.56216e-05
5.37747e-05
5.23843e-05
5.12613e-05
4.99471e-05
4.77628e-05
4.4082e-05
3.86274e-05
3.18269e-05
2.4693e-05
1.8007e-05
1.23689e-05
8.69122e-06
7.50289e-06
8.53734e-06
1.14153e-05
1.6111e-05
2.21571e-05
2.8354e-05
3.33219e-05
3.63043e-05
3.78006e-05
3.8534e-05
3.89561e-05
3.9233e-05
3.93538e-05
3.92428e-05
3.88209e-05
3.80471e-05
3.69621e-05
3.55731e-05
3.39102e-05
3.19992e-05
2.98839e-05
2.77013e-05
2.56946e-05
2.39444e-05
2.25556e-05
2.15752e-05
2.0999e-05
2.07738e-05
2.08121e-05
2.10172e-05
2.13122e-05
2.16571e-05
2.20467e-05
2.24933e-05
2.30046e-05
2.35685e-05
2.41506e-05
2.47023e-05
2.5174e-05
2.55273e-05
2.57418e-05
2.58145e-05
2.57545e-05
2.55753e-05
2.52884e-05
2.49028e-05
2.4431e-05
2.39203e-05
2.34236e-05
2.29723e-05
2.25535e-05
2.21146e-05
2.16052e-05
2.10226e-05
2.04177e-05
1.98579e-05
1.93864e-05
1.90056e-05
1.86838e-05
1.83714e-05
1.80186e-05
1.75876e-05
1.7059e-05
1.64314e-05
1.57168e-05
1.49343e-05
1.41056e-05
1.32557e-05
1.24201e-05
1.16489e-05
1.0998e-05
1.07451e-05
1.1641e-05
1.36532e-05
1.5145e-05
1.53005e-05
1.52889e-05
1.53442e-05
1.49753e-05
1.44917e-05
1.41577e-05
1.3904e-05
1.36129e-05
1.33197e-05
1.11167e-05
2.02449e-05
2.01904e-05
1.81972e-05
1.65215e-05
1.55862e-05
1.53005e-05
1.55739e-05
1.6377e-05
1.77159e-05
1.9609e-05
2.20603e-05
2.5024e-05
2.83712e-05
3.18843e-05
3.52857e-05
3.829e-05
4.06611e-05
4.2258e-05
4.30569e-05
4.31425e-05
4.26737e-05
4.18354e-05
4.07957e-05
3.96813e-05
3.85758e-05
3.75314e-05
3.65855e-05
3.57763e-05
3.51519e-05
3.47727e-05
3.47046e-05
3.50063e-05
3.57161e-05
3.67431e-05
3.80251e-05
3.9503e-05
4.11095e-05
4.27586e-05
4.43386e-05
4.57141e-05
4.67436e-05
4.73237e-05
4.74437e-05
4.71835e-05
4.66112e-05
4.56492e-05
4.40248e-05
4.14159e-05
3.77435e-05
3.35693e-05
2.97795e-05
2.6778e-05
2.46792e-05
2.34613e-05
2.31234e-05
2.36748e-05
2.50727e-05
2.72023e-05
2.98997e-05
3.29909e-05
3.63212e-05
3.97665e-05
4.32323e-05
4.66461e-05
4.99508e-05
5.31003e-05
5.60569e-05
5.8789e-05
6.12696e-05
6.3473e-05
6.53718e-05
6.69343e-05
6.81229e-05
6.8895e-05
6.92052e-05
6.90098e-05
6.82716e-05
6.69663e-05
6.50949e-05
6.27086e-05
5.99432e-05
5.70436e-05
5.43395e-05
5.21401e-05
5.05773e-05
4.94755e-05
4.83323e-05
4.64082e-05
4.30471e-05
3.7958e-05
3.15194e-05
2.46395e-05
1.80819e-05
1.25528e-05
8.99592e-06
7.89162e-06
9.02192e-06
1.20957e-05
1.69761e-05
2.30777e-05
2.91811e-05
3.39688e-05
3.68822e-05
3.84144e-05
3.92556e-05
3.98165e-05
4.02022e-05
4.03718e-05
4.02291e-05
3.9677e-05
3.87057e-05
3.74138e-05
3.57983e-05
3.39345e-05
3.18688e-05
2.96514e-05
2.7392e-05
2.52372e-05
2.33371e-05
2.18147e-05
2.07399e-05
2.01248e-05
1.99231e-05
2.00411e-05
2.03663e-05
2.0804e-05
2.13011e-05