/*--------------------------------*- C++ -*----------------------------------*\
  =========                 |
  \\      /  F ield         | OpenFOAM: The Open Source CFD Toolbox
   \\    /   O peration     | Website:  https://openfoam.org
    \\  /    A nd           | Version:  9
     \\/     M anipulation  |
\*---------------------------------------------------------------------------*/
FoamFile
{
    format      ascii;
    class       volScalarField;
    location    "0.3";
    object      p;
}
// * * * * * * * * * * * * * * * * * * * * * * * * * * * * * * * * * * * * * //

dimensions      [0 2 -2 0 0 0 0];

internalField   nonuniform List<scalar> 
12225
(
1.47435
0.528613
0.120912
0.056881
0.0269186
-0.012401
-0.0224046
0.0151338
0.100569
0.234729
0.423697
0.676344
1.00209
1.40991
1.90623
2.48948
3.14086
3.78957
0.874016
0.28658
0.0135529
-0.0153641
-0.0220057
-0.0432806
-0.0424842
0.00095264
0.0892863
0.22382
0.410555
0.658106
0.975458
1.37095
1.85055
2.41264
3.04301
3.68658
0.713611
0.384008
0.119267
0.0348181
0.00381366
-0.0260514
-0.0330566
0.00212827
0.0822055
0.207299
0.381623
0.611799
0.904269
1.26397
1.69243
2.18367
2.71997
3.24915
0.592368
0.354695
0.0852719
-0.0237361
-0.0523484
-0.070999
-0.0716819
-0.0348531
0.0440333
0.164718
0.330011
0.544796
0.813169
1.13674
1.51252
1.92992
2.36517
2.77898
0.473747
0.290892
0.0573123
-0.0483111
-0.0730833
-0.0859528
-0.0856274
-0.0523269
0.0203559
0.132035
0.284156
0.479887
0.721223
1.00708
1.33132
1.68077
2.0309
2.35095
0.36107
0.224003
0.0329163
-0.0706193
-0.101958
-0.116064
-0.117037
-0.0882037
-0.0227435
0.0787243
0.21623
0.391144
0.603496
0.849985
1.12232
1.40608
1.67783
1.90851
0.255316
0.15371
-0.00155504
-0.102269
-0.139937
-0.154377
-0.154866
-0.129596
-0.0718482
0.0179743
0.138837
0.290476
0.471207
0.676014
0.895223
1.11391
1.31002
1.45726
0.15504
0.0792757
-0.0462443
-0.14022
-0.181522
-0.196886
-0.198254
-0.1782
-0.130329
-0.0546359
0.0470305
0.172918
0.319867
0.481602
0.647707
0.803451
0.928751
1.0014
0.0586907
0.0015942
-0.0992401
-0.18419
-0.227819
-0.245884
-0.250117
-0.236608
-0.19993
-0.139935
-0.059138
0.0394404
0.151451
0.269816
0.383954
0.479929
0.54001
0.545783
-0.0349574
-0.0785336
-0.159494
-0.235074
-0.280179
-0.302051
-0.310576
-0.304591
-0.280169
-0.237294
-0.1789
-0.108922
-0.0325358
0.0428164
0.106878
0.146923
0.14766
0.0940681
-0.1269
-0.160722
-0.226224
-0.293173
-0.339094
-0.365405
-0.379585
-0.382343
-0.371354
-0.346896
-0.312107
-0.271474
-0.230651
-0.19708
-0.18033
-0.19166
-0.243928
-0.34906
-0.210379
-0.237919
-0.292768
-0.352984
-0.399392
-0.43024
-0.450807
-0.462714
-0.464948
-0.458164
-0.445571
-0.431872
-0.422862
-0.425703
-0.449106
-0.502867
-0.597721
-0.74307
-0.292827
-0.315843
-0.362689
-0.417535
-0.464553
-0.500253
-0.528008
-0.549821
-0.565747
-0.576856
-0.586359
-0.598957
-0.62034
-0.657199
-0.71726
-0.808839
-0.940702
-1.12007
-0.386843
-0.406294
-0.446841
-0.49751
-0.545806
-0.587483
-0.624314
-0.658326
-0.690414
-0.722063
-0.756401
-0.797891
-0.851827
-0.924149
-1.02136
-1.15011
-1.31711
-1.52743
-0.493327
-0.510324
-0.546725
-0.595118
-0.645926
-0.694945
-0.742838
-0.791395
-0.841997
-0.896405
-0.957537
-1.02936
-1.11646
-1.22375
-1.35633
-1.51909
-1.71673
-1.95236
-0.6126
-0.628371
-0.663049
-0.711626
-0.766767
-0.82474
-0.88558
-0.950697
-1.02157
-1.09997
-1.18843
-1.29016
-1.40878
-1.54798
-1.71133
-1.90204
-2.12295
-2.37553
-0.743493
-0.759287
-0.794755
-0.846312
-0.908027
-0.976651
-1.05189
-1.13474
-1.22642
-1.32839
-1.44256
-1.57122
-1.71683
-1.88178
-2.06817
-2.27768
-2.5116
-2.7701
-0.881476
-0.898511
-0.937207
-0.99455
-1.0651
-1.14576
-1.23598
-1.3363
-1.44745
-1.57028
-1.7059
-1.85561
-2.02071
-2.20235
-2.40138
-2.61827
-2.85319
-3.10548
-1.01503
-1.03474
-1.07926
-1.14522
-1.22665
-1.32008
-1.42467
-1.54049
-1.6676
-1.80608
-1.95615
-2.11816
-2.29243
-2.47912
-2.67818
-2.88925
-3.11181
-3.34483
-1.09587
-1.1191
-1.17092
-1.24657
-1.33833
-1.44193
-1.55647
-1.68191
-1.81786
-1.96373
-2.11911
-2.2838
-2.45756
-2.64002
-2.83067
-3.02884
-3.23373
-3.4443
-1.12832
-1.1553
-1.21504
-1.30048
-1.40125
-1.51244
-1.63367
-1.76509
-1.90586
-2.05493
-2.21164
-2.3756
-2.54634
-2.72323
-2.90556
-3.09253
-3.28333
-3.47705
-1.12942
-1.16109
-1.23128
-1.32825
-1.4377
-1.55497
-1.68146
-1.81762
-1.96184
-2.11248
-2.26876
-2.43026
-2.59644
-2.76656
-2.93984
-3.11547
-3.29256
-3.47019
-1.10469
-1.14389
-1.22853
-1.33924
-1.45674
-1.57845
-1.7088
-1.84858
-1.99537
-2.14722
-2.30339
-2.46342
-2.62654
-2.79188
-2.9586
-3.12593
-3.29318
-3.45981
-1.05958
-1.11015
-1.21422
-1.33989
-1.46443
-1.59051
-1.72505
-1.86754
-2.01474
-2.16528
-2.31906
-2.47569
-2.63427
-2.79383
-2.95354
-3.11264
-3.27029
-3.42561
-0.99695
-1.0657
-1.19658
-1.33474
-1.46102
-1.59093
-1.73279
-1.88175
-2.03276
-2.18514
-2.33943
-2.49527
-2.65165
-2.80761
-2.9624
-3.1154
-3.26602
-3.4141
-0.918082
-1.01353
-1.18465
-1.33492
-1.45467
-1.57978
-1.72134
-1.87053
-2.02108
-2.17281
-2.32637
-2.48103
-2.6355
-2.78873
-2.93998
-3.08862
-3.23394
-3.37511
-0.826277
-0.950962
-1.16885
-1.34239
-1.47188
-1.60462
-1.75071
-1.9006
-2.04992
-2.19986
-2.35119
-2.503
-2.65393
-2.80296
-2.94932
-3.09251
-3.2321
-3.36867
-0.731618
-0.899767
-1.11468
-1.26828
-1.39973
-1.5468
-1.7045
-1.86142
-2.01598
-2.17044
-2.32534
-2.47958
-2.63187
-2.78126
-2.927
-3.06856
-3.2057
-3.34008
-0.623323
-1.01816
-1.26089
-1.3579
-1.45757
-1.59441
-1.74475
-1.89391
-2.04205
-2.1916
-2.34233
-2.49257
-2.64081
-2.78591
-2.92691
-3.06283
-3.19315
-3.31752
-0.0345036
-0.756411
-1.14522
-1.27918
-1.39969
-1.55514
-1.718
-1.87476
-2.02809
-2.18151
-2.33499
-2.48702
-2.63622
-2.78159
-2.92216
-3.05683
-3.18476
-3.30389
-15.5097
-15.1614
-14.6314
-15.0715
-16.6104
-18.3308
-19.3937
-19.6461
-19.324
-18.7377
-18.1343
-17.6596
-17.3761
-17.247
-17.1159
-16.9429
-17.0037
-17.1355
-17.1177
-16.8892
-16.5038
-16.3062
-16.5303
-17.3432
-18.8008
-20.8539
-23.3708
-26.1716
-29.0594
-31.8458
-34.3669
-36.4969
-38.156
-39.3027
-39.9054
-39.917
-39.2982
-38.0527
-36.2939
-34.1103
-31.5801
-28.7723
-25.7482
-22.5617
-19.2597
-15.8817
-12.4613
-9.02717
-5.60482
-2.2184
1.1076
4.34727
7.47307
10.4565
13.2698
15.8879
18.2902
20.4628
22.3985
24.0976
25.567
26.8197
27.8733
28.7479
29.4662
30.0488
30.5113
30.8693
31.1407
31.3409
31.4837
31.5807
31.6419
31.6751
31.6862
31.6787
31.6558
31.6302
31.6337
31.6333
31.5372
31.3238
31.0194
30.6563
30.288
29.9906
29.7908
29.6688
29.6227
29.6761
29.8625
30.2343
30.7808
31.3674
31.7771
31.9056
31.8392
31.5243
30.6008
28.7013
25.6405
20.9629
14.5176
6.66437
-1.69873
-9.76472
-16.9554
-22.9176
-27.4668
-30.5237
-32.0684
-32.098
-30.6121
-27.7633
-23.7024
-18.5835
-12.575
-5.86352
1.34132
8.80219
16.2503
23.3896
29.9189
35.5741
40.1841
43.6401
45.9757
47.1353
47.2455
46.4693
44.9797
42.947
40.5273
37.8602
35.0765
32.308
29.6946
27.4764
25.8272
24.4859
23.2516
21.8131
19.7927
17.0166
13.7925
10.7734
8.2178
5.77222
3.05287
0.541972
-0.921779
-0.636031
1.21352
4.14426
7.50584
10.739
13.5512
15.8548
17.6743
19.0856
20.1766
21.0342
21.735
22.3361
22.8777
23.4009
23.9683
24.5956
25.0882
25.184
24.887
23.9975
21.7016
17.5866
12.1276
6.39134
1.56842
-1.35433
-1.70487
0.137626
-16.5424
-17.022
-18.4535
-20.6017
-22.7483
-24.3159
-25.023
-24.7774
-23.614
-21.8181
-19.8546
-18.2085
-17.151
-16.6652
-16.4858
-16.3821
-16.366
-16.6977
-17.2927
-17.5329
-17.4154
-17.517
-18.2147
-19.6754
-21.8847
-24.692
-27.8673
-31.1558
-34.3193
-37.1612
-39.5345
-41.338
-42.509
-43.0251
-42.9116
-42.2188
-41.0504
-39.4789
-37.5039
-35.165
-32.5154
-29.6133
-26.515
-23.2717
-19.928
-16.5212
-13.0818
-9.63528
-6.20335
-2.80671
0.533093
3.79208
6.9434
9.958
12.8065
15.4617
17.901
20.1085
22.0763
23.8044
25.2997
26.5751
27.6482
28.5393
29.2701
29.8612
30.3286
30.6912
30.9663
31.1697
31.315
31.414
31.4767
31.5115
31.5257
31.5257
31.5178
31.5038
31.4646
31.3939
31.2938
31.1288
30.8702
30.5399
30.2128
29.9533
29.7915
29.7165
29.6881
29.7022
29.8301
30.1577
30.7126
31.322
31.7215
31.7893
31.6588
31.3956
30.6762
28.7524
25.0886
19.4502
11.9725
3.4574
-5.1483
-13.1282
-20.0383
-25.6271
-29.7609
-32.3866
-33.5169
-33.2221
-31.596
-28.6852
-24.5921
-19.4556
-13.438
-6.72137
0.489469
7.9617
15.4299
22.5989
29.1662
34.866
39.5277
43.0467
45.3929
46.5754
46.7133
45.9674
44.5113
42.5139
40.129
37.4941
34.7338
31.9712
29.342
26.9122
24.727
23.0079
21.688
20.4547
18.7937
16.3287
13.3224
10.5103
8.16338
5.75365
2.84165
0.047859
-1.51129
-1.20053
0.875061
4.01301
7.49544
10.7878
13.6212
15.9265
17.7369
19.1347
20.2128
21.057
21.7467
22.3383
22.8702
23.3791
23.9327
24.5657
25.0771
25.1588
24.8773
24.092
21.698
17.3056
11.5088
5.61073
0.814357
-2.00054
-2.38159
-0.655968
-19.1535
-20.7492
-23.4782
-25.8864
-27.5629
-28.5234
-28.8029
-28.3332
-27.0138
-24.903
-22.3466
-19.9215
-18.0165
-16.6553
-16.0558
-16.3283
-16.7823
-17.5046
-18.6765
-20.1289
-21.7725
-23.653
-25.8011
-28.1926
-30.751
-33.3753
-35.9621
-38.4187
-40.664
-42.6264
-44.2402
-45.4444
-46.1822
-46.4014
-46.0669
-45.1989
-43.8172
-41.981
-39.7456
-37.1689
-34.3113
-31.2329
-27.9904
-24.6345
-21.2075
-17.7432
-14.2668
-10.7969
-7.34778
-3.93249
-0.566142
2.73161
5.93547
9.01514
11.9377
14.6709
17.1873
19.4668
21.4988
23.282
24.8235
26.137
27.2409
28.1571
28.9086
29.5155
29.9955
30.3684
30.6521
30.8624
31.0133
31.1171
31.1842
31.2234
31.2419
31.2456
31.2394
31.2265
31.2043
31.1644
31.0816
30.9128
30.6511
30.3502
30.0774
29.8714
29.7487
29.7013
29.7108
29.7859
29.983
30.3529
30.9235
31.4765
31.7663
31.7996
31.5773
31.017
29.4866
25.9947
20.2819
13.1201
5.24687
-2.71947
-10.3344
-17.2916
-23.3598
-28.3472
-32.0949
-34.4876
-35.4758
-35.0812
-33.3552
-30.3691
-26.2264
-21.0609
-15.0286
-8.30472
-1.08575
6.40364
13.9037
21.1204
27.7484
33.5186
38.2582
41.8512
44.2413
45.4704
45.6581
44.9664
43.5701
41.6362
39.3144
36.7356
34.0178
31.2691
28.5958
26.1039
23.8875
21.976
20.2247
18.4819
16.5644
14.3419
11.9101
9.56682
7.35984
4.90536
2.04946
-0.547751
-1.86641
-1.3252
0.914753
4.14635
7.65795
10.9505
13.769
16.0509
17.838
19.2148
20.2755
21.1042
21.7855
22.3719
22.8988
23.3979
23.935
24.5656
25.0946
25.1886
24.8947
23.9525
21.0537
16.0896
10.0808
4.30088
-0.292463
-2.95501
-3.35281
-1.71998
-22.2163
-24.1131
-26.0259
-27.5246
-28.5435
-29.0948
-29.1755
-28.757
-27.7544
-26.1195
-23.9648
-21.7018
-19.9181
-18.9298
-18.6966
-19.2345
-20.363
-21.9921
-24.045
-26.3786
-28.8476
-31.3536
-33.8458
-36.3019
-38.7114
-41.0602
-43.3186
-45.4376
-47.3502
-48.9791
-50.2444
-51.0728
-51.4074
-51.2139
-50.4815
-49.2288
-47.4872
-45.3029
-42.7347
-39.8492
-36.7154
-33.4005
-29.9656
-26.4629
-22.9336
-19.407
-15.9008
-12.4231
-8.97597
-5.55945
-2.17714
1.15956
4.42887
7.59883
10.6304
13.4827
16.1191
18.5119
20.6454
22.5156
24.1292
25.5009
26.6515
27.6066
28.3904
29.022
29.5225
29.9124
30.2102
30.4321
30.5926
30.7042
30.7779
30.823
30.8472
30.8565
30.8545
30.8411
30.8108
30.7539
30.6571
30.5066
30.3025
30.0585
29.799
29.5742
29.4469
29.4561
29.6097
29.8963
30.3052
30.8458
31.4261
31.9482
32.1893
32.0121
31.1788
29.3026
25.5594
19.9059
13.1109
5.89651
-1.36044
-8.46478
-15.2549
-21.5353
-27.0812
-31.6699
-35.1116
-37.2711
-38.0882
-37.5667
-35.7344
-32.6653
-28.4657
-23.2681
-17.2241
-10.5004
-3.28219
4.21838
11.7506
19.0219
25.7241
31.5902
36.4255
40.0969
42.5542
43.849
44.1068
43.4937
42.1849
40.3443
38.1149
35.6187
32.9626
30.2466
27.5716
25.0241
22.6604
20.5117
18.5519
16.6336
14.6073
12.4213
10.1782
8.0421
6.01224
3.87492
1.58139
-0.385954
-1.23805
-0.484025
1.73587
4.83409
8.17984
11.3181
14.0158
16.2108
17.9424
19.2871
20.3328
21.1649
21.8437
22.4315
22.9692
23.4846
24.0316
24.6701
25.2202
25.3359
24.9232
23.4405
19.7382
14.3603
8.37734
2.73438
-1.72184
-4.28214
-4.66354
-2.99023
-22.6131
-23.9562
-25.1564
-26.2416
-27.0883
-27.6381
-27.8496
-27.6653
-27.0769
-26.0984
-24.8943
-23.816
-23.182
-23.0853
-23.5775
-24.7188
-26.4297
-28.5418
-30.8977
-33.372
-35.8868
-38.405
-40.9121
-43.3998
-45.8525
-48.2383
-50.5056
-52.586
-54.4005
-55.866
-56.9027
-57.4401
-57.4277
-56.8469
-55.7099
-54.0347
-51.8574
-49.2348
-46.2389
-42.95
-39.4514
-35.8227
-32.1349
-28.446
-24.7986
-21.2177
-17.7116
-14.2734
-10.8859
-7.52794
-4.1831
-0.846995
2.46704
5.72681
8.88507
11.8874
14.682
17.2281
19.5007
21.4908
23.2039
24.6567
25.8742
26.8847
27.7122
28.379
28.909
29.3238
29.6425
29.8822
30.0576
30.1815
30.2651
30.3179
30.3478
30.3608
30.3607
30.3478
30.3183
30.2637
30.1716
30.0298
29.8366
29.608
29.3756
29.1812
29.0744
29.1171
29.3554
29.7919
30.3889
31.0943
31.8124
32.3365
32.4317
31.7887
29.712
25.8628
20.1881
13.5755
6.68254
-0.202272
-7.00989
-13.6765
-20.0642
-25.9705
-31.1693
-35.444
-38.6117
-40.5413
-41.1759
-40.5115
-38.5636
-35.4052
-31.145
-25.9163
-19.8682
-13.1592
-5.96015
1.53267
9.08236
16.3998
23.1788
29.143
34.0793
37.8376
40.3751
41.7509
42.0978
41.5862
40.3914
38.6718
36.5611
34.1702
31.5947
28.9234
26.2433
23.6338
21.1616
18.8689
16.7432
14.7033
12.6558
10.5516
8.44535
6.46991
4.69795
3.05605
1.50725
0.328959
0.0433232
1.00277
3.11605
5.94754
8.99133
11.8662
14.3601
16.4155
18.0568
19.349
20.3689
21.1916
21.8771
22.4819
23.0478
23.5991
24.1799
24.8358
25.4072
25.5249
24.8555
22.6164
18.2608
12.5959
6.58067
0.963074
-3.41244
-5.88339
-6.2221
-4.46312
-19.4408
-20.2757
-21.3875
-22.5631
-23.6161
-24.4363
-25.0182
-25.3356
-25.4073
-25.3158
-25.2251
-25.3321
-25.7977
-26.721
-28.128
-29.9621
-32.1198
-34.4978
-37.0167
-39.6225
-42.2883
-45.001
-47.7469
-50.501
-53.2215
-55.8491
-58.3094
-60.5181
-62.386
-63.8251
-64.7526
-65.0962
-64.8078
-63.8762
-62.3044
-60.118
-57.3765
-54.1604
-50.5662
-46.6988
-42.6637
-38.5599
-34.4743
-30.4772
-26.6191
-22.9275
-19.4054
-16.0308
-12.7617
-9.54465
-6.32907
-3.08032
0.208974
3.51403
6.78108
9.9384
12.9121
15.6406
18.0831
20.2218
22.0599
23.6158
24.9199
26.0012
26.8838
27.5962
28.1645
28.6118
28.9584
29.2219
29.4175
29.5584
29.6557
29.7191
29.7566
29.7743
29.7761
29.7626
29.7309
29.6739
29.5818
29.4456
29.2642
29.0506
28.8336
28.6568
28.5725
28.6423
28.9267
29.4488
30.171
31.003
31.7879
32.2739
32.0997
30.6104
27.1057
21.5872
14.9508
8.03312
1.1722
-5.57345
-12.21
-18.6745
-24.8235
-30.4664
-35.3989
-39.4232
-42.3641
-44.0937
-44.5592
-43.7534
-41.6865
-38.4336
-34.1083
-28.8479
-22.8014
-16.1205
-8.96147
-1.50083
6.04167
13.3854
20.2308
26.2857
31.315
35.1618
37.7857
39.2533
39.7053
39.3159
38.2581
36.683
34.7124
32.4439
29.9602
27.3395
24.6613
22.0042
19.4382
17.0111
14.7342
12.581
10.5115
8.50216
6.58885
4.86194
3.39639
2.19549
1.27361
0.80543
1.09214
2.32618
4.41923
7.04652
9.82177
12.4419
14.7322
16.6376
18.1761
19.4029
20.3858
21.1911
21.8761
22.493
23.0837
23.6732
24.2936
24.9702
25.5432
25.6263
24.627
21.7015
16.8064
10.8658
4.72313
-0.921083
-5.23058
-7.61264
-7.88512
-6.03417
-13.202
-13.9841
-15.1752
-16.567
-17.9229
-19.246
-20.4236
-21.4604
-22.4025
-23.3419
-24.4018
-25.7014
-27.3164
-29.2587
-31.483
-33.9266
-36.5386
-39.2886
-42.1632
-45.1572
-48.2658
-51.4758
-54.759
-58.0685
-61.3374
-64.4802
-67.3975
-69.9815
-72.1224
-73.7142
-74.6627
-74.8888
-74.3399
-73.0174
-70.921
-68.1013
-64.6427
-60.6546
-56.2639
-51.6057
-46.8149
-42.0169
-37.3208
-32.8153
-28.5646
-24.6066
-20.9488
-17.5648
-14.3942
-11.3503
-8.33712
-5.27221
-2.10703
1.15871
4.47558
7.75662
10.9008
13.8181
16.445
18.7501
20.7331
22.4067
23.8146
24.9756
25.9236
26.6905
27.3048
27.7914
28.172
28.465
28.686
28.8483
28.9632
29.0403
29.0877
29.1117
29.1164
29.1033
29.0705
29.0124
28.9206
28.7872
28.6106
28.4022
28.1907
28.0217
27.9522
28.0437
28.3552
28.9095
29.6681
30.5245
31.2806
31.6046
30.9422
28.482
23.7318
17.2037
10.1151
3.06382
-3.80755
-10.5234
-17.0899
-23.4342
-29.4199
-34.8751
-39.6141
-43.4514
-46.215
-47.7773
-48.0938
-47.1558
-44.9707
-41.6193
-37.2232
-31.9264
-25.8815
-19.2369
-12.1353
-4.73203
2.77878
10.1236
17.0092
23.1364
28.2452
32.1731
34.8826
36.4479
37.0166
36.7649
35.8618
34.4475
32.63
30.492
28.1032
25.5325
22.8545
20.1482
17.4902
14.943
12.5433
10.3006
8.21501
6.29408
4.57408
3.11747
1.97985
1.1886
0.78556
0.89087
1.66841
3.19194
5.35058
7.88127
10.484
12.9211
15.0539
16.8364
18.2851
19.4496
20.391
21.1701
21.8413
22.454
23.0505
23.6596
24.3019
24.975
25.5241
25.5311
24.2133
20.7447
15.3835
9.1799
2.89186
-2.78426
-7.03035
-9.3288
-9.52383
-7.58762
-5.89698
-6.65463
-7.89037
-9.37731
-11.0901
-12.8852
-14.732
-16.6374
-18.6311
-20.7549
-23.0438
-25.5106
-28.1423
-30.9125
-33.8009
-36.8034
-39.9315
-43.2062
-46.651
-50.2819
-54.0989
-58.0794
-62.1748
-66.3099
-70.3842
-74.2763
-77.8509
-80.9702
-83.5014
-85.3222
-86.326
-86.4332
-85.6068
-83.8406
-81.1632
-77.6449
-73.3935
-68.5476
-63.2652
-57.712
-52.0493
-46.4252
-40.967
-35.7803
-30.9485
-26.5309
-22.5552
-19.0064
-15.8207
-12.8887
-10.072
-7.23333
-4.26725
-1.12762
2.15995
5.50535
8.78173
11.8666
14.6697
17.1418
19.2752
21.0824
22.5923
23.8387
24.8582
25.6855
26.3513
26.8826
27.3022
27.6292
27.8799
28.0677
28.204
28.2983
28.3586
28.3912
28.4007
28.3892
28.3557
28.296
28.2028
28.0689
27.8922
27.6831
27.4695
27.2992
27.2342
27.3336
27.6493
28.1896
28.9082
29.6879
30.2984
30.3129
29.0275
25.6779
20.0632
12.996
5.69245
-1.42051
-8.31411
-15.037
-21.5787
-27.8583
-33.747
-39.0848
-43.6959
-47.401
-50.0305
-51.4574
-51.6491
-50.5937
-48.2966
-44.8462
-40.3746
-35.035
-28.9867
-22.379
-15.3458
-8.02437
-0.560267
6.74938
13.6511
19.8227
24.9889
28.9828
31.7702
33.4325
34.1229
34.0175
33.2774
32.0302
30.3674
28.3562
26.0538
23.5212
20.8309
18.0663
15.3147
12.656
10.1518
7.84136
5.75402
3.92201
2.38629
1.1991
0.40386
0.0254354
0.0951757
0.682131
1.86536
3.64906
5.90738
8.41459
10.9271
13.2538
15.2837
16.9811
18.364
19.4788
20.3827
21.1327
21.7805
22.3727
22.9516
23.549
24.1778
24.8151
25.3056
25.204
23.6207
19.7505
14.0258
7.59978
1.20061
-4.49739
-8.67534
-10.8971
-11.0162
-9.00785
0.218914
-0.436482
-1.57258
-3.15893
-5.10163
-7.35252
-9.87722
-12.6408
-15.6055
-18.7254
-21.9498
-25.2347
-28.5556
-31.9151
-35.3409
-38.8783
-42.5799
-46.4967
-50.6684
-55.1139
-59.8238
-64.7551
-69.8294
-74.9341
-79.928
-84.65
-88.9302
-92.6059
-95.533
-97.5852
-98.6506
-98.6482
-97.5529
-95.3667
-92.1178
-87.8952
-82.834
-77.1068
-70.9093
-64.4441
-57.9035
-51.4562
-45.2376
-39.3513
-33.8791
-28.8931
-24.4518
-20.5759
-17.2221
-14.2771
-11.5735
-8.9236
-6.1644
-3.19515
-0.0011922
3.34302
6.69538
9.90576
12.8588
15.4845
17.757
19.6845
21.2952
22.6269
23.7189
24.6086
25.3288
25.908
26.37
26.7346
27.0185
27.2353
27.3963
27.5111
27.5874
27.6316
27.6485
27.6406
27.608
27.5474
27.4524
27.3162
27.136
26.9209
26.6985
26.5184
26.4468
26.5356
26.8307
27.3206
27.9442
28.5713
28.9407
28.5497
26.6433
22.5841
16.4467
9.14293
1.76274
-5.38134
-12.3098
-19.063
-25.6118
-31.8704
-37.7143
-42.9888
-47.52
-51.1317
-53.6608
-54.9851
-55.0811
-53.9281
-51.5319
-47.9891
-43.4439
-38.0599
-32.0055
-25.4332
-18.4717
-11.2384
-3.87214
3.39546
10.2838
16.4674
21.6628
25.7005
28.5508
30.3021
31.1109
31.1501
30.5705
29.4836
27.9638
26.062
23.824
21.3051
18.5789
15.7366
12.8795
10.1079
7.50861
5.14973
3.08146
1.35298
0.00782071
-0.907324
-1.35697
-1.32727
-0.811353
0.210824
1.7558
3.78284
6.1603
8.69026
11.1689
13.4386
15.4094
17.0553
18.3963
19.4774
20.3532
21.0775
21.6993
22.2618
22.805
23.3614
23.9396
24.5038
24.9005
24.6745
22.8961
18.7727
12.8114
6.21417
-0.276044
-5.94836
-10.0608
-12.2099
-12.2675
-10.2105
3.85851
3.31375
2.25399
0.650737
-1.47303
-4.0758
-7.08902
-10.4211
-13.9676
-17.6278
-21.3249
-25.0213
-28.7216
-32.4654
-36.3154
-40.345
-44.6274
-49.225
-54.1784
-59.4972
-65.1529
-71.074
-77.1458
-83.2156
-89.1026
-94.6109
-99.5434
-103.72
-106.997
-109.258
-110.394
-110.321
-109.038
-106.525
-102.798
-97.9533
-92.1453
-85.5807
-78.4981
-71.1449
-63.7552
-56.5298
-49.6187
-43.1172
-37.0834
-31.5711
-26.6495
-22.376
-18.7457
-15.6654
-12.9606
-10.4098
-7.80445
-4.99426
-1.9197
1.37873
4.75157
8.04285
11.1077
13.8541
16.2411
18.2706
19.9702
21.3792
22.5391
23.4892
24.2636
24.8917
25.3978
25.8023
26.1218
26.3702
26.5589
26.6971
26.7925
26.8515
26.8788
26.8774
26.8479
26.7879
26.6919
26.5531
26.368
26.1444
25.9088
25.7109
25.6163
25.6841
25.9378
26.3507
26.845
27.2749
27.3532
26.5426
24.112
19.563
13.1361
5.75752
-1.64275
-8.8151
-15.7814
-22.5669
-29.1354
-35.3982
-41.2276
-46.469
-50.9484
-54.4915
-56.9451
-58.1951
-58.2214
-56.9919
-54.5184
-50.8996
-46.2979
-40.8813
-34.831
-28.3039
-21.4196
-14.283
-7.01616
0.179936
7.02313
13.1844
18.3759
22.429
25.3202
27.144
28.0583
28.2295
27.7948
26.8482
25.4453
23.6216
21.4127
18.8708
16.0735
13.1234
10.14
7.24614
4.55502
2.1623
0.136671
-1.46201
-2.59304
-3.22056
-3.32055
-2.89223
-1.95155
-0.519318
1.37103
3.64382
6.16317
8.75251
11.2386
13.4903
15.4353
17.056
18.3752
19.4376
20.2957
21.0009
21.5992
22.13
22.629
23.1259
23.6259
24.0873
24.3634
24.0109
22.1118
17.8781
11.8063
5.10345
-1.43135
-7.06443
-11.1098
-13.196
-13.2133
-11.1296
4.97028
4.50514
3.50942
1.92787
-0.250967
-2.98211
-6.17026
-9.68737
-13.3997
-17.1971
-21.0152
-24.8417
-28.7098
-32.6841
-36.8468
-41.2849
-46.0788
-51.2908
-56.9545
-63.0648
-69.5697
-76.3669
-83.3057
-90.196
-96.822
-102.959
-108.391
-112.931
-116.443
-118.838
-120.03
-119.934
-118.59
-115.899
-111.862
-106.569
-100.188
-92.9549
-85.1446
-77.0463
-68.935
-61.0478
-53.56
-46.5703
-40.1145
-34.2124
-28.9154
-24.295
-20.3817
-17.1107
-14.3205
-11.7839
-9.26396
-6.56631
-3.58891
-0.350441
3.02395
6.36041
9.49662
12.3229
14.7891
16.8929
18.661
20.133
21.3515
22.3562
23.1817
23.8574
24.4078
24.8529
25.2096
25.4915
25.7099
25.874
25.9914
26.0683
26.1092
26.1175
26.0943
26.0377
25.943
25.8036
25.6152
25.3838
25.1346
24.9164
24.7953
24.8233
25.0183
25.3369
25.6848
25.9013
25.6839
24.4999
21.6805
16.8371
10.2799
2.90279
-4.49914
-11.6996
-18.7045
-25.5208
-32.1074
-38.3766
-44.1951
-49.4033
-53.842
-57.3316
-59.7274
-60.9217
-60.8944
-59.6109
-57.0936
-53.4257
-48.8142
-43.3977
-37.3675
-30.8894
-24.0868
-17.0541
-9.89665
-2.79539
3.97202
10.0753
15.2261
19.2608
22.164
24.0357
25.0326
25.3116
24.9941
24.1544
22.8296
21.0401
18.8131
16.2005
13.2873
10.1911
7.05261
4.02046
1.23498
-1.18231
-3.14307
-4.58133
-5.46379
-5.77288
-5.50356
-4.67356
-3.31989
-1.49401
0.733882
3.26113
5.94691
8.62941
11.1587
13.4251
15.3714
16.9884
18.3023
19.3582
20.2079
20.9007
21.48
21.9815
22.4354
22.8662
23.2749
23.6178
23.7598
23.2888
21.3355
17.1134
11.0469
4.31758
-2.20961
-7.77987
-11.7554
-13.7936
-13.7881
-11.7034
4.36427
3.96961
3.07716
1.59684
-0.49648
-3.15423
-6.26958
-9.70434
-13.3246
-17.0325
-20.7837
-24.5869
-28.4926
-32.5785
-36.9355
-41.655
-46.8177
-52.4821
-58.6728
-65.3697
-72.4999
-79.9342
-87.492
-94.9532
-102.075
-108.612
-114.337
-119.063
-122.665
-125.076
-126.259
-126.166
-124.786
-122.023
-117.852
-112.343
-105.661
-98.0553
-89.8245
-81.2849
-72.7368
-64.4401
-56.5911
-49.3007
-42.5997
-36.4822
-30.9696
-26.1243
-21.9991
-18.5635
-15.6731
-13.1031
-10.6004
-7.94659
-5.01493
-1.80557
1.56397
4.91597
8.08106
10.943
13.4483
15.5933
17.4044
18.9211
20.1854
21.2362
22.1075
22.8278
23.4209
23.9063
24.3004
24.6167
24.8662
25.0582
25.1999
25.2974
25.3553
25.3769
25.3636
25.3142
25.2246
25.0884
24.9007
24.6658
24.406
24.1679
24.0151
23.9962
24.122
24.338
24.5365
24.5452
24.0593
22.576
19.499
14.5114
7.9371
0.605248
-6.78059
-13.9932
-21.0187
-27.8537
-34.4544
-40.7302
-46.5423
-51.7244
-56.1193
-59.5652
-61.9159
-63.0658
-62.9988
-61.6815
-59.1422
-55.4872
-50.879
-45.4867
-39.5002
-33.0903
-26.383
-19.4646
-12.4284
-5.44259
1.21943
7.22794
12.2986
16.2767
19.1569
21.0441
22.0915
22.4442
22.2053
21.4286
20.1321
18.3227
16.0215
13.2825
10.2018
6.91527
3.58779
0.396141
-2.49114
-4.92732
-6.80507
-8.0539
-8.65029
-8.60106
-7.92789
-6.67555
-4.905
-2.69147
-0.129364
2.6611
5.5354
8.34159
10.9465
13.2571
15.2289
16.8608
18.1831
19.2427
20.0912
20.7771
21.3418
21.8179
22.2304
22.5968
22.9137
23.1371
23.1455
22.5706
20.617
16.5065
10.5546
3.8843
-2.58058
-8.06528
-11.9688
-13.9697
-13.9559
-11.8915
3.35274
3.00739
2.19941
0.83034
-1.12826
-3.63034
-6.57197
-9.82148
-13.2565
-16.7948
-20.4074
-24.1148
-27.9755
-32.0714
-36.4948
-41.3367
-46.6753
-52.5644
-59.0221
-66.0181
-73.4663
-81.2213
-89.0848
-96.8191
-104.166
-110.869
-116.694
-121.457
-125.038
-127.381
-128.49
-128.373
-127.047
-124.348
-120.228
-114.74
-108.044
-100.391
-92.0911
-83.4687
-74.8315
-66.4446
-58.5106
-51.1479
-44.3876
-38.2143
-32.6323
-27.6977
-23.4736
-19.9471
-16.9854
-14.3628
-11.8233
-9.14482
-6.19767
-2.98065
0.388991
3.73452
6.89
9.74396
12.2474
14.3993
16.2268
17.7684
19.0644
20.1516
21.0619
21.8223
22.4552
22.9793
23.4102
23.7608
24.0422
24.2632
24.431
24.5516
24.6295
24.6679
24.6685
24.6306
24.5509
24.4233
24.2425
24.0107
23.7469
23.4935
23.3099
23.2419
23.2946
23.4079
23.465
23.2873
22.5787
20.8776
17.6566
12.6427
6.13698
-1.11009
-8.45731
-15.6622
-22.6866
-29.5173
-36.1063
-42.3612
-48.1447
-53.294
-57.6516
-61.0606
-63.3791
-64.5024
-64.414
-63.0853
-60.5567
-56.9377
-52.3753
-47.045
-41.1363
-34.8222
-28.2296
-21.4403
-14.5396
-7.68989
-1.16284
4.71358
9.66284
13.5433
16.3613
18.2261
19.2854
19.6699
19.4629
18.6969
17.3714
15.4813
13.0438
10.1185
6.8154
3.29159
-0.261159
-3.63635
-6.63654
-9.0902
-10.8718
-11.9069
-12.1824
-11.7336
-10.6148
-8.90632
-6.69882
-4.0897
-1.1892
1.87378
4.9549
7.91023
10.6187
12.9997
15.0189
16.6825
18.0254
19.0969
19.95
20.6331
21.1865
21.6408
22.0167
22.3253
22.5583
22.6723
22.5591
21.9007
19.9903
16.0735
10.3402
3.81823
-2.52981
-7.90996
-11.7396
-13.7076
-13.6949
-11.6666
2.96746
2.53957
1.74223
0.433743
-1.42019
-3.78051
-6.5524
-9.61829
-12.8714
-16.2413
-19.706
-23.29
-27.0518
-31.072
-35.4402
-40.2445
-45.5602
-51.4388
-57.896
-64.9007
-72.3654
-80.1438
-88.0366
-95.8047
-103.189
-109.932
-115.802
-120.613
-124.243
-126.628
-127.761
-127.665
-126.326
-123.619
-119.52
-114.098
-107.515
-100.02
-91.9098
-83.4992
-75.0813
-66.9069
-59.1668
-51.971
-45.3464
-39.2778
-33.7732
-28.8923
-24.6987
-21.1762
-18.1894
-15.5136
-12.9005
-10.1426
-7.12821
-3.87252
-0.500233
2.81675
5.92609
8.73154
11.1956
13.3232
15.1427
16.6909
18.005
19.1186
20.0607
20.8559
21.5248
22.0849
22.5509
22.9352
23.2483
23.4988
23.694
23.8395
23.9399
23.9983
24.0166
23.9947
23.9299
23.8169
23.6502
23.43
23.1713
22.9108
22.7019
22.5881
22.5704
22.5882
22.5204
22.188
21.311
19.4731
16.2064
11.2624
4.89629
-2.22597
-9.5085
-16.6843
-23.6841
-30.4822
-37.0283
-43.2313
-48.9585
-54.0534
-58.3573
-61.7215
-64.014
-65.1305
-65.0452
-63.7341
-61.2492
-57.6992
-53.2232
-47.9955
-42.2029
-36.0167
-29.563
-22.9209
-16.1732
-9.48227
-3.12158
2.58414
7.37012
11.1113
13.8269
15.6293
16.6583
17.0284
16.8015
15.9888
14.5724
12.5371
9.89936
6.72696
3.14662
-0.660712
-4.47462
-8.05776
-11.1837
-13.6568
-15.3342
-16.1378
-16.0646
-15.1801
-13.5747
-11.3704
-8.69454
-5.66915
-2.41693
0.930731
4.23435
7.35898
10.1936
12.6671
14.7527
16.4629
17.8371
18.9278
19.79
20.4731
21.0175
21.4528
21.7968
22.0557
22.2169
22.2379
22.0231
21.3054
19.4747
15.8185
10.3992
4.11754
-2.05572
-7.3079
-11.0583
-12.9953
-12.9915
-11.0131
3.30687
2.83084
1.94813
0.636911
-1.14546
-3.38677
-6.01507
-8.92781
-12.0291
-15.2536
-18.5791
-22.0266
-25.6498
-29.5225
-33.7275
-38.3463
-43.4492
-49.0846
-55.2687
-61.9746
-69.1242
-76.5842
-84.171
-91.6618
-98.8125
-105.378
-111.135
-115.898
-119.538
-121.976
-123.182
-123.152
-121.842
-119.199
-115.248
-110.078
-103.85
-96.7989
-89.1986
-81.3317
-73.4604
-65.807
-58.5366
-51.741
-45.4428
-39.6395
-34.3587
-29.6696
-25.6257
-22.1907
-19.2167
-16.4844
-13.767
-10.889
-7.77479
-4.46899
-1.1065
2.15221
5.17822
7.89853
10.2914
12.3691
14.1606
15.6999
17.02
18.1504
19.1167
19.9406
20.6409
21.2335
21.7321
22.1484
22.4923
22.7723
22.9953
23.167
23.2918
23.3728
23.4122
23.4102
23.365
23.2721
23.1264
22.9265
22.683
22.4258
22.201
22.0488
21.9692
21.905
21.7353
21.2861
20.2974
18.3979
15.1707
10.3777
4.21522
-2.73904
-9.92487
-17.0455
-23.9965
-30.7357
-37.2109
-43.334
-48.978
-53.9937
-58.2284
-61.5412
-63.8069
-64.9213
-64.8523
-63.5818
-61.1693
-57.7212
-53.3702
-48.2853
-42.6471
-36.6217
-30.332
-23.8563
-17.2803
-10.7728
-4.61197
0.882601
5.46228
9.02189
11.5941
13.2931
14.2485
14.5561
14.2558
13.3373
11.7669
9.52226
6.62172
3.14413
-0.76474
-4.89844
-9.00667
-12.8207
-16.0853
-18.5818
-20.1516
-20.7131
-20.2722
-18.9249
-16.7983
-14.0604
-10.881
-7.41121
-3.78664
-0.138306
3.40281
6.71293
9.69126
12.2745
14.4421
16.2115
17.6262
18.7423
19.6172
20.3026
20.8397
21.258
21.5741
21.7911
21.8936
21.8404
21.5475
20.7961
19.0749
15.7297
10.7081
4.75957
-1.1726
-6.2633
-9.92299
-11.8287
-11.841
-9.92762
3.78741
3.47928
2.61341
1.31913
-0.364506
-2.45231
-4.90799
-7.65099
-10.5955
-13.6763
-16.8638
-20.167
-23.6258
-27.3009
-31.263
-35.5834
-40.3241
-45.5295
-51.2166
-57.3665
-63.9172
-70.7594
-77.7391
-84.6655
-91.3248
-97.497
-102.973
-107.573
-111.151
-113.606
-114.87
-114.917
-113.713
-111.274
-107.659
-102.969
-97.3593
-91.0395
-84.2473
-77.2216
-70.1811
-63.3079
-56.7319
-50.523
-44.7083
-39.3152
-34.4034
-30.046
-26.2652
-22.985
-20.0401
-17.2264
-14.3574
-11.3137
-8.07758
-4.73217
-1.41579
1.73665
4.63207
7.22732
9.51808
11.5225
13.2683
14.785
16.1
17.2383
18.2213
19.068
19.7949
20.4164
20.945
21.3916
21.7656
22.0749
22.3264
22.5255
22.6765
22.7827
22.8464
22.8681
22.8469
22.7793
22.6604
22.4877
22.268
22.024
21.7939
21.6132
21.4831
21.3509
21.102
20.5718
19.5242
17.6297
14.5145
9.94334
4.04953
-2.67898
-9.71864
-16.7457
-23.6174
-30.2699
-36.6457
-42.6599
-48.1941
-53.1084
-57.258
-60.5067
-62.7351
-63.8452
-63.8026
-62.5936
-60.281
-56.9674
-52.7788
-47.8757
-42.4298
-36.5985
-30.4993
-24.2106
-17.8259
-11.5275
-5.60174
-0.362197
3.96321
7.29325
9.67554
11.2249
12.059
12.2536
11.825
10.7418
8.95621
6.44062
3.21796
-0.619726
-4.90582
-9.40687
-13.8416
-17.9096
-21.3269
-23.8526
-25.313
-25.6257
-24.803
-22.9714
-20.293
-16.9841
-13.2622
-9.31267
-5.28728
-1.31653
2.47936
5.99019
9.12677
11.8338
14.0963
15.9355
17.3988
18.5456
19.4368
20.1264
20.6575
21.0605
21.3521
21.5341
21.5901
21.4807
21.1328
20.3717
18.7818
15.7816
11.2265
5.70199
0.0864646
-4.79734
-8.3459
-10.2153
-10.2507
-8.42288
3.82091
3.71403
3.1655
2.10842
0.642744
-1.20552
-3.41467
-5.92679
-8.6702
-11.5821
-14.6223
-17.7809
-21.0768
-24.5513
-28.2579
-32.2537
-36.59
-41.3043
-46.4129
-51.9032
-57.7285
-63.8041
-70.0078
-76.1847