# vtk DataFile Version 2.0
sampleSurface
ASCII
DATASET POLYDATA
POINTS 502 float
-0.0206 0 -0.0005 -0.0190172 0 -0.0005 -0.0190172 0 0.0005 -0.0206 0
0.0005 -0.0174976 0 -0.0005 -0.0174976 0 0.0005 -0.0160387 0 -0.0005
-0.0160387 0 0.0005 -0.0146381 0 -0.0005 -0.0146381 0 0.0005 -0.0132934
0 -0.0005 -0.0132934 0 0.0005 -0.0120025 0 -0.0005 -0.0120025 0
0.0005 -0.0107632 0 -0.0005 -0.0107632 0 0.0005 -0.00957337 0 -0.0005
-0.00957337 0 0.0005 -0.00843108 0 -0.0005 -0.00843108 0 0.0005 -0.00733443
0 -0.0005 -0.00733443 0 0.0005 -0.0062816 0 -0.0005 -0.0062816 0
0.0005 -0.00527083 0 -0.0005 -0.00527083 0 0.0005 -0.00430044 0 -0.0005
-0.00430044 0 0.0005 -0.00336883 0 -0.0005 -0.00336883 0 0.0005 -0.00247443
0 -0.0005 -0.00247443 0 0.0005 -0.00161577 0 -0.0005 -0.00161577 0
0.0005 -0.000791418 0 -0.0005 -0.000791418 0 0.0005 0 0 -0.0005
0 0 0.0005 0 -0.0254 -0.0005 0 -0.0254 0.0005 0
-0.0242711 0.0005 0 -0.0242711 -0.0005 0 -0.0231422 0.0005 0 -0.0231422
-0.0005 0 -0.0220133 0.0005 0 -0.0220133 -0.0005 0 -0.0208844 0.0005
0 -0.0208844 -0.0005 0 -0.0197556 0.0005 0 -0.0197556 -0.0005 0
-0.0186267 0.0005 0 -0.0186267 -0.0005 0 -0.0174978 0.0005 0 -0.0174978
-0.0005 0 -0.0163689 0.0005 0 -0.0163689 -0.0005 0 -0.01524 0.0005
0 -0.01524 -0.0005 0 -0.0141111 0.0005 0 -0.0141111 -0.0005 0
-0.0129822 0.0005 0 -0.0129822 -0.0005 0 -0.0118533 0.0005 0 -0.0118533
-0.0005 0 -0.0107244 0.0005 0 -0.0107244 -0.0005 0 -0.00959556 0.0005
0 -0.00959556 -0.0005 0 -0.00846667 0.0005 0 -0.00846667 -0.0005 0
-0.00726604 0.0005 0 -0.00726604 -0.0005 0 -0.00618989 0.0005 0 -0.00618989
-0.0005 0 -0.00522531 0.0005 0 -0.00522531 -0.0005 0 -0.00436073 0.0005
0 -0.00436073 -0.0005 0 -0.00358579 0.0005 0 -0.00358579 -0.0005 0
-0.00289118 0.0005 0 -0.00289118 -0.0005 0 -0.0022686 0.0005 0 -0.0022686
-0.0005 0 -0.00171055 0.0005 0 -0.00171055 -0.0005 0 -0.00121037 0.0005
0 -0.00121037 -0.0005 0 -0.000762037 0.0005 0 -0.000762037 -0.0005 0
-0.000360188 0.0005 0 -0.000360188 -0.0005 0.000528387 -0.0254 -0.0005 0.000528387 -0.0254
0.0005 0.00106088 -0.0254 -0.0005 0.00106088 -0.0254 0.0005 0.00159752 -0.0254 -0.0005
0.00159752 -0.0254 0.0005 0.00213833 -0.0254 -0.0005 0.00213833 -0.0254 0.0005 0.00268334
-0.0254 -0.0005 0.00268334 -0.0254 0.0005 0.00323259 -0.0254 -0.0005 0.00323259 -0.0254
0.0005 0.00378611 -0.0254 -0.0005 0.00378611 -0.0254 0.0005 0.00434393 -0.0254 -0.0005
0.00434393 -0.0254 0.0005 0.00490609 -0.0254 -0.0005 0.00490609 -0.0254 0.0005 0.00547262
-0.0254 -0.0005 0.00547262 -0.0254 0.0005 0.00604356 -0.0254 -0.0005 0.00604356 -0.0254
0.0005 0.00661893 -0.0254 -0.0005 0.00661893 -0.0254 0.0005 0.00719878 -0.0254 -0.0005
0.00719878 -0.0254 0.0005 0.00778313 -0.0254 -0.0005 0.00778313 -0.0254 0.0005 0.00837203
-0.0254 -0.0005 0.00837203 -0.0254 0.0005 0.00896551 -0.0254 -0.0005 0.00896551 -0.0254
0.0005 0.0095636 -0.0254 -0.0005 0.0095636 -0.0254 0.0005 0.0101663 -0.0254 -0.0005
0.0101663 -0.0254 0.0005 0.0107738 -0.0254 -0.0005 0.0107738 -0.0254 0.0005 0.0113859
-0.0254 -0.0005 0.0113859 -0.0254 0.0005 0.0120028 -0.0254 -0.0005 0.0120028 -0.0254
0.0005 0.0126245 -0.0254 -0.0005 0.0126245 -0.0254 0.0005 0.0132511 -0.0254 -0.0005
0.0132511 -0.0254 0.0005 0.0138825 -0.0254 -0.0005 0.0138825 -0.0254 0.0005 0.0145188
-0.0254 -0.0005 0.0145188 -0.0254 0.0005 0.0151601 -0.0254 -0.0005 0.0151601 -0.0254
0.0005 0.0158063 -0.0254 -0.0005 0.0158063 -0.0254 0.0005 0.0164576 -0.0254 -0.0005
0.0164576 -0.0254 0.0005 0.0171139 -0.0254 -0.0005 0.0171139 -0.0254 0.0005 0.0177754
-0.0254 -0.0005 0.0177754 -0.0254 0.0005 0.018442 -0.0254 -0.0005 0.018442 -0.0254
0.0005 0.0191137 -0.0254 -0.0005 0.0191137 -0.0254 0.0005 0.0197907 -0.0254 -0.0005
0.0197907 -0.0254 0.0005 0.020473 -0.0254 -0.0005 0.020473 -0.0254 0.0005 0.0211606
-0.0254 -0.0005 0.0211606 -0.0254 0.0005 0.0218535 -0.0254 -0.0005 0.0218535 -0.0254
0.0005 0.0225517 -0.0254 -0.0005 0.0225517 -0.0254 0.0005 0.0232555 -0.0254 -0.0005
0.0232555 -0.0254 0.0005 0.0239647 -0.0254 -0.0005 0.0239647 -0.0254 0.0005 0.0246794
-0.0254 -0.0005 0.0246794 -0.0254 0.0005 0.0253996 -0.0254 -0.0005 0.0253996 -0.0254
0.0005 0.0261255 -0.0254 -0.0005 0.0261255 -0.0254 0.0005 0.026857 -0.0254 -0.0005
0.026857 -0.0254 0.0005 0.0275942 -0.0254 -0.0005 0.0275942 -0.0254 0.0005 0.0283371
-0.0254 -0.0005 0.0283371 -0.0254 0.0005 0.0290858 -0.0254 -0.0005 0.0290858 -0.0254
0.0005 0.0298403 -0.0254 -0.0005 0.0298403 -0.0254 0.0005 0.0306007 -0.0254 -0.0005
0.0306007 -0.0254 0.0005 0.031367 -0.0254 -0.0005 0.031367 -0.0254 0.0005 0.0321393
-0.0254 -0.0005 0.0321393 -0.0254 0.0005 0.0329175 -0.0254 -0.0005 0.0329175 -0.0254
0.0005 0.0337019 -0.0254 -0.0005 0.0337019 -0.0254 0.0005 0.0344923 -0.0254 -0.0005
0.0344923 -0.0254 0.0005 0.0352888 -0.0254 -0.0005 0.0352888 -0.0254 0.0005 0.0360916
-0.0254 -0.0005 0.0360916 -0.0254 0.0005 0.0369006 -0.0254 -0.0005 0.0369006 -0.0254
0.0005 0.0377158 -0.0254 -0.0005 0.0377158 -0.0254 0.0005 0.0385375 -0.0254 -0.0005
0.0385375 -0.0254 0.0005 0.0393655 -0.0254 -0.0005 0.0393655 -0.0254 0.0005 0.0401999
-0.0254 -0.0005 0.0401999 -0.0254 0.0005 0.0410408 -0.0254 -0.0005 0.0410408 -0.0254
0.0005 0.0418883 -0.0254 -0.0005 0.0418883 -0.0254 0.0005 0.0427424 -0.0254 -0.0005
0.0427424 -0.0254 0.0005 0.0436031 -0.0254 -0.0005 0.0436031 -0.0254 0.0005 0.0444704
-0.0254 -0.0005 0.0444704 -0.0254 0.0005 0.0453446 -0.0254 -0.0005 0.0453446 -0.0254
0.0005 0.0462255 -0.0254 -0.0005 0.0462255 -0.0254 0.0005 0.0471133 -0.0254 -0.0005
0.0471133 -0.0254 0.0005 0.048008 -0.0254 -0.0005 0.048008 -0.0254 0.0005 0.0489096
-0.0254 -0.0005 0.0489096 -0.0254 0.0005 0.0498183 -0.0254 -0.0005 0.0498183 -0.0254
0.0005 0.050734 -0.0254 -0.0005 0.050734 -0.0254 0.0005 0.0516568 -0.0254 -0.0005
0.0516568 -0.0254 0.0005 0.0525868 -0.0254 -0.0005 0.0525868 -0.0254 0.0005 0.053524
-0.0254 -0.0005 0.053524 -0.0254 0.0005 0.0544686 -0.0254 -0.0005 0.0544686 -0.0254
0.0005 0.0554204 -0.0254 -0.0005 0.0554204 -0.0254 0.0005 0.0563797 -0.0254 -0.0005
0.0563797 -0.0254 0.0005 0.0573464 -0.0254 -0.0005 0.0573464 -0.0254 0.0005 0.0583206
-0.0254 -0.0005 0.0583206 -0.0254 0.0005 0.0593025 -0.0254 -0.0005 0.0593025 -0.0254
0.0005 0.0602919 -0.0254 -0.0005 0.0602919 -0.0254 0.0005 0.0612891 -0.0254 -0.0005
0.0612891 -0.0254 0.0005 0.0622939 -0.0254 -0.0005 0.0622939 -0.0254 0.0005 0.0633067
-0.0254 -0.0005 0.0633067 -0.0254 0.0005 0.0643272 -0.0254 -0.0005 0.0643272 -0.0254
0.0005 0.0653557 -0.0254 -0.0005 0.0653557 -0.0254 0.0005 0.0663923 -0.0254 -0.0005
0.0663923 -0.0254 0.0005 0.0674368 -0.0254 -0.0005 0.0674368 -0.0254 0.0005 0.0684895
-0.0254 -0.0005 0.0684895 -0.0254 0.0005 0.0695504 -0.0254 -0.0005 0.0695504 -0.0254
0.0005 0.0706195 -0.0254 -0.0005 0.0706195 -0.0254 0.0005 0.0716969 -0.0254 -0.0005
0.0716969 -0.0254 0.0005 0.0727828 -0.0254 -0.0005 0.0727828 -0.0254 0.0005 0.073877
-0.0254 -0.0005 0.073877 -0.0254 0.0005 0.0749798 -0.0254 -0.0005 0.0749798 -0.0254
0.0005 0.0760911 -0.0254 -0.0005 0.0760911 -0.0254 0.0005 0.0772111 -0.0254 -0.0005
0.0772111 -0.0254 0.0005 0.0783398 -0.0254 -0.0005 0.0783398 -0.0254 0.0005 0.0794772
-0.0254 -0.0005 0.0794772 -0.0254 0.0005 0.0806235 -0.0254 -0.0005 0.0806235 -0.0254
0.0005 0.0817787 -0.0254 -0.0005 0.0817787 -0.0254 0.0005 0.0829429 -0.0254 -0.0005
0.0829429 -0.0254 0.0005 0.0841162 -0.0254 -0.0005 0.0841162 -0.0254 0.0005 0.0852985
-0.0254 -0.0005 0.0852985 -0.0254 0.0005 0.0864901 -0.0254 -0.0005 0.0864901 -0.0254
0.0005 0.0876909 -0.0254 -0.0005 0.0876909 -0.0254 0.0005 0.0889011 -0.0254 -0.0005
0.0889011 -0.0254 0.0005 0.0901207 -0.0254 -0.0005 0.0901207 -0.0254 0.0005 0.0913497
-0.0254 -0.0005 0.0913497 -0.0254 0.0005 0.0925883 -0.0254 -0.0005 0.0925883 -0.0254
0.0005 0.0938366 -0.0254 -0.0005 0.0938366 -0.0254 0.0005 0.0950945 -0.0254 -0.0005
0.0950945 -0.0254 0.0005 0.0963622 -0.0254 -0.0005 0.0963622 -0.0254 0.0005 0.0976398
-0.0254 -0.0005 0.0976398 -0.0254 0.0005 0.0989273 -0.0254 -0.0005 0.0989273 -0.0254
0.0005 0.100225 -0.0254 -0.0005 0.100225 -0.0254 0.0005 0.101532 -0.0254 -0.0005
0.101532 -0.0254 0.0005 0.10285 -0.0254 -0.0005 0.10285 -0.0254 0.0005 0.104178
-0.0254 -0.0005 0.104178 -0.0254 0.0005 0.105517 -0.0254 -0.0005 0.105517 -0.0254
0.0005 0.106865 -0.0254 -0.0005 0.106865 -0.0254 0.0005 0.108225 -0.0254 -0.0005
0.108225 -0.0254 0.0005 0.109594 -0.0254 -0.0005 0.109594 -0.0254 0.0005 0.110975
-0.0254 -0.0005 0.110975 -0.0254 0.0005 0.112366 -0.0254 -0.0005 0.112366 -0.0254
0.0005 0.113768 -0.0254 -0.0005 0.113768 -0.0254 0.0005 0.115181 -0.0254 -0.0005
0.115181 -0.0254 0.0005 0.116605 -0.0254 -0.0005 0.116605 -0.0254 0.0005 0.11804
-0.0254 -0.0005 0.11804 -0.0254 0.0005 0.119486 -0.0254 -0.0005 0.119486 -0.0254
0.0005 0.120943 -0.0254 -0.0005 0.120943 -0.0254 0.0005 0.122412 -0.0254 -0.0005
0.122412 -0.0254 0.0005 0.123892 -0.0254 -0.0005 0.123892 -0.0254 0.0005 0.125384
-0.0254 -0.0005 0.125384 -0.0254 0.0005 0.126887 -0.0254 -0.0005 0.126887 -0.0254
0.0005 0.128402 -0.0254 -0.0005 0.128402 -0.0254 0.0005 0.129928 -0.0254 -0.0005
0.129928 -0.0254 0.0005 0.131467 -0.0254 -0.0005 0.131467 -0.0254 0.0005 0.133017
-0.0254 -0.0005 0.133017 -0.0254 0.0005 0.13458 -0.0254 -0.0005 0.13458 -0.0254
0.0005 0.136155 -0.0254 -0.0005 0.136155 -0.0254 0.0005 0.137742 -0.0254 -0.0005
0.137742 -0.0254 0.0005 0.139341 -0.0254 -0.0005 0.139341 -0.0254 0.0005 0.140953
-0.0254 -0.0005 0.140953 -0.0254 0.0005 0.142577 -0.0254 -0.0005 0.142577 -0.0254
0.0005 0.144214 -0.0254 -0.0005 0.144214 -0.0254 0.0005 0.145863 -0.0254 -0.0005
0.145863 -0.0254 0.0005 0.147526 -0.0254 -0.0005 0.147526 -0.0254 0.0005 0.149201
-0.0254 -0.0005 0.149201 -0.0254 0.0005 0.15089 -0.0254 -0.0005 0.15089 -0.0254
0.0005 0.152591 -0.0254 -0.0005 0.152591 -0.0254 0.0005 0.154306 -0.0254 -0.0005
0.154306 -0.0254 0.0005 0.156034 -0.0254 -0.0005 0.156034 -0.0254 0.0005 0.157775
-0.0254 -0.0005 0.157775 -0.0254 0.0005 0.159531 -0.0254 -0.0005 0.159531 -0.0254
0.0005 0.161299 -0.0254 -0.0005 0.161299 -0.0254 0.0005 0.163082 -0.0254 -0.0005
0.163082 -0.0254 0.0005 0.164878 -0.0254 -0.0005 0.164878 -0.0254 0.0005 0.166688
-0.0254 -0.0005 0.166688 -0.0254 0.0005 0.168513 -0.0254 -0.0005 0.168513 -0.0254
0.0005 0.170351 -0.0254 -0.0005 0.170351 -0.0254 0.0005 0.172204 -0.0254 -0.0005
0.172204 -0.0254 0.0005 0.174071 -0.0254 -0.0005 0.174071 -0.0254 0.0005 0.175953
-0.0254 -0.0005 0.175953 -0.0254 0.0005 0.177849 -0.0254 -0.0005 0.177849 -0.0254
0.0005 0.17976 -0.0254 -0.0005 0.17976 -0.0254 0.0005 0.181686 -0.0254 -0.0005
0.181686 -0.0254 0.0005 0.183627 -0.0254 -0.0005 0.183627 -0.0254 0.0005 0.185583
-0.0254 -0.0005 0.185583 -0.0254 0.0005 0.187555 -0.0254 -0.0005 0.187555 -0.0254
0.0005 0.189541 -0.0254 -0.0005 0.189541 -0.0254 0.0005 0.191543 -0.0254 -0.0005
0.191543 -0.0254 0.0005 0.193561 -0.0254 -0.0005 0.193561 -0.0254 0.0005 0.195594
-0.0254 -0.0005 0.195594 -0.0254 0.0005 0.197643 -0.0254 -0.0005 0.197643 -0.0254
0.0005 0.199708 -0.0254 -0.0005 0.199708 -0.0254 0.0005 0.201789 -0.0254 -0.0005
0.201789 -0.0254 0.0005 0.203886 -0.0254 -0.0005 0.203886 -0.0254 0.0005 0.206
-0.0254 -0.0005 0.206 -0.0254 0.0005 0.208047 -0.0251856 -0.0005 0.208047 -0.0251856
0.0005 0.210173 -0.0249628 -0.0005 0.210173 -0.0249628 0.0005 0.212382 -0.0247314 -0.0005
0.212382 -0.0247314 0.0005 0.214677 -0.024491 -0.0005 0.214677 -0.024491 0.0005 0.217061
-0.0242412 -0.0005 0.217061 -0.0242412 0.0005 0.219538 -0.0239817 -0.0005 0.219538 -0.0239817
0.0005 0.222112 -0.0237121 -0.0005 0.222112 -0.0237121 0.0005 0.224785 -0.023432 -0.0005
0.224785 -0.023432 0.0005 0.227563 -0.023141 -0.0005 0.227563 -0.023141 0.0005 0.230449
-0.0228387 -0.0005 0.230449 -0.0228387 0.0005 0.233447 -0.0225246 -0.0005 0.233447 -0.0225246
0.0005 0.236562 -0.0221983 -0.0005 0.236562 -0.0221983 0.0005 0.239797 -0.0218593 -0.0005
0.239797 -0.0218593 0.0005 0.243159 -0.0215071 -0.0005 0.243159 -0.0215071 0.0005 0.246652
-0.0211412 -0.0005 0.246652 -0.0211412 0.0005 0.250281 -0.0207611 -0.0005 0.250281 -0.0207611
0.0005 0.254051 -0.0203661 -0.0005 0.254051 -0.0203661 0.0005 0.257967 -0.0199558 -0.0005
0.257967 -0.0199558 0.0005 0.262036 -0.0195295 -0.0005 0.262036 -0.0195295 0.0005 0.266264
-0.0190867 -0.0005 0.266264 -0.0190867 0.0005 0.270655 -0.0186266 -0.0005 0.270655 -0.0186266
0.0005 0.275218 -0.0181486 -0.0005 0.275218 -0.0181486 0.0005 0.279959 -0.017652 -0.0005
0.279959 -0.017652 0.0005 0.284883 -0.017136 -0.0005 0.284883 -0.017136 0.0005 0.29
-0.0166 -0.0005 0.29 -0.0166 0.0005 
POLYGONS 250 1250
4 0 1 2 3 4 1 4 5 2 4
4 6 7 5 4 6 8 9 7 4
8 10 11 9 4 10 12 13 11 4
12 14 15 13 4 14 16 17 15 4
16 18 19 17 4 18 20 21 19 4
20 22 23 21 4 22 24 25 23 4
24 26 27 25 4 26 28 29 27 4
28 30 31 29 4 30 32 33 31 4
32 34 35 33 4 34 36 37 35 4
38 39 40 41 4 41 40 42 43 4
43 42 44 45 4 45 44 46 47 4
47 46 48 49 4 49 48 50 51 4
51 50 52 53 4 53 52 54 55 4
55 54 56 57 4 57 56 58 59 4
59 58 60 61 4 61 60 62 63 4
63 62 64 65 4 65 64 66 67 4
67 66 68 69 4 69 68 70 71 4
71 70 72 73 4 73 72 74 75 4
75 74 76 77 4 77 76 78 79 4
79 78 80 81 4 81 80 82 83 4
83 82 84 85 4 85 84 86 87 4
87 86 88 89 4 89 88 90 91 4
91 90 37 36 4 38 92 93 39 4
92 94 95 93 4 94 96 97 95 4
96 98 99 97 4 98 100 101 99 4
100 102 103 101 4 102 104 105 103 4
104 106 107 105 4 106 108 109 107 4
108 110 111 109 4 110 112 113 111 4
112 114 115 113 4 114 116 117 115 4
116 118 119 117 4 118 120 121 119 4
120 122 123 121 4 122 124 125 123 4
124 126 127 125 4 126 128 129 127 4
128 130 131 129 4 130 132 133 131 4
132 134 135 133 4 134 136 137 135 4
136 138 139 137 4 138 140 141 139 4
140 142 143 141 4 142 144 145 143 4
144 146 147 145 4 146 148 149 147 4
148 150 151 149 4 150 152 153 151 4
152 154 155 153 4 154 156 157 155 4
156 158 159 157 4 158 160 161 159 4
160 162 163 161 4 162 164 165 163 4
164 166 167 165 4 166 168 169 167 4
168 170 171 169 4 170 172 173 171 4
172 174 175 173 4 174 176 177 175 4
176 178 179 177 4 178 180 181 179 4
180 182 183 181 4 182 184 185 183 4
184 186 187 185 4 186 188 189 187 4
188 190 191 189 4 190 192 193 191 4
192 194 195 193 4 194 196 197 195 4
196 198 199 197 4 198 200 201 199 4
200 202 203 201 4 202 204 205 203 4
204 206 207 205 4 206 208 209 207 4
208 210 211 209 4 210 212 213 211 4
212 214 215 213 4 214 216 217 215 4
216 218 219 217 4 218 220 221 219 4
220 222 223 221 4 222 224 225 223 4
224 226 227 225 4 226 228 229 227 4
228 230 231 229 4 230 232 233 231 4
232 234 235 233 4 234 236 237 235 4
236 238 239 237 4 238 240 241 239 4
240 242 243 241 4 242 244 245 243 4
244 246 247 245 4 246 248 249 247 4
248 250 251 249 4 250 252 253 251 4
252 254 255 253 4 254 256 257 255 4
256 258 259 257 4 258 260 261 259 4
260 262 263 261 4 262 264 265 263 4
264 266 267 265 4 266 268 269 267 4
268 270 271 269 4 270 272 273 271 4
272 274 275 273 4 274 276 277 275 4
276 278 279 277 4 278 280 281 279 4
280 282 283 281 4 282 284 285 283 4
284 286 287 285 4 286 288 289 287 4
288 290 291 289 4 290 292 293 291 4
292 294 295 293 4 294 296 297 295 4
296 298 299 297 4 298 300 301 299 4
300 302 303 301 4 302 304 305 303 4
304 306 307 305 4 306 308 309 307 4
308 310 311 309 4 310 312 313 311 4
312 314 315 313 4 314 316 317 315 4
316 318 319 317 4 318 320 321 319 4
320 322 323 321 4 322 324 325 323 4
324 326 327 325 4 326 328 329 327 4
328 330 331 329 4 330 332 333 331 4
332 334 335 333 4 334 336 337 335 4
336 338 339 337 4 338 340 341 339 4
340 342 343 341 4 342 344 345 343 4
344 346 347 345 4 346 348 349 347 4
348 350 351 349 4 350 352 353 351 4
352 354 355 353 4 354 356 357 355 4
356 358 359 357 4 358 360 361 359 4
360 362 363 361 4 362 364 365 363 4
364 366 367 365 4 366 368 369 367 4
368 370 371 369 4 370 372 373 371 4
372 374 375 373 4 374 376 377 375 4
376 378 379 377 4 378 380 381 379 4
380 382 383 381 4 382 384 385 383 4
384 386 387 385 4 386 388 389 387 4
388 390 391 389 4 390 392 393 391 4
392 394 395 393 4 394 396 397 395 4
396 398 399 397 4 398 400 401 399 4
400 402 403 401 4 402 404 405 403 4
404 406 407 405 4 406 408 409 407 4
408 410 411 409 4 410 412 413 411 4
412 414 415 413 4 414 416 417 415 4
416 418 419 417 4 418 420 421 419 4
420 422 423 421 4 422 424 425 423 4
424 426 427 425 4 426 428 429 427 4
428 430 431 429 4 430 432 433 431 4
432 434 435 433 4 434 436 437 435 4
436 438 439 437 4 438 440 441 439 4
440 442 443 441 4 442 444 445 443 4
444 446 447 445 4 446 448 449 447 4
448 450 451 449 4 450 452 453 451 4
452 454 455 453 4 454 456 457 455 4
456 458 459 457 4 458 460 461 459 4
460 462 463 461 4 462 464 465 463 4
464 466 467 465 4 466 468 469 467 4
468 470 471 469 4 470 472 473 471 4
472 474 475 473 4 474 476 477 475 4
476 478 479 477 4 478 480 481 479 4
480 482 483 481 4 482 484 485 483 4
484 486 487 485 4 486 488 489 487 4
488 490 491 489 4 490 492 493 491 4
492 494 495 493 4 494 496 497 495 4
496 498 499 497 4 498 500 501 499 
POINT_DATA 502
FIELD attributes 1
U 3 502 float
3.29162 -0.0280766 -0.0410326 1.65249 -0.013594 -0.0202209 1.65249 -0.013594 -0.0202209 3.29162 -0.0280766
-0.0410326 0.059071 0.000516228 0 0.059071 0.000516228 0 0.0571437 0.000540023 0
0.0571437 0.000540023 0 0.0549256 0.000474696 0 0.0549256 0.000474696 0 0.052889
0.000392083 0 0.052889 0.000392083 0 0.051031 0.000371574 0 0.051031 0.000371574
0 0.0491764 0.000404289 0 0.0491764 0.000404289 0 0.0473422 0.000433622 0
0.0473422 0.000433622 0 0.0456321 0.000432901 0 0.0456321 0.000432901 0 0.0440505
0.000411535 0 0.0440505 0.000411535 0 0.0425039 0.000396252 0 0.0425039 0.000396252
0 0.0408188 0.000404855 0 0.0408188 0.000404855 0 0.0389817 0.000461957 0
0.0389817 0.000461957 0 0.0366438 0.000541033 0 0.0366438 0.000541033 0 0.0342209
0.000607027 0 0.0342209 0.000607027 0 0.0311398 0.00072389 0 0.0311398 0.00072389
0 0.0282267 0.000855935 0 0.0282267 0.000855935 0 0.0121546 0.00139276 0
0.0121546 0.00139276 0 -0.000271473 0.000416847 5.80802e-23 -0.000271473 0.000416847 5.80802e-23 -0.000370526
0.00108089 -1.56992e-22 -0.000370526 0.00108089 -1.56992e-22 0.00014148 0.000780964 -1.85818e-22 0.00014148 0.000780964
-1.85818e-22 0.00110191 -0.00355494 3.69396e-22 0.00110191 -0.00355494 3.69396e-22 0.00122002 -0.0090253 1.23794e-22
0.00122002 -0.0090253 1.23794e-22 0.000777446 -0.012297 -2.45387e-22 0.000777446 -0.012297 -2.45387e-22 0.00042699
-0.0141471 0 0.00042699 -0.0141471 0 0.000192582 -0.0150253 -4.8537e-22 0.000192582 -0.0150253
-4.8537e-22 4.48415e-05 -0.0152095 4.873e-28 4.48415e-05 -0.0152095 4.873e-28 -5.33805e-05 -0.0149626 4.8537e-22
-5.33805e-05 -0.0149626 4.8537e-22 -0.000129586 -0.0143666 -4.93998e-22 -0.000129586 -0.0143666 -4.93998e-22 -0.000184771
-0.0135245 1.59872e-25 -0.000184771 -0.0135245 1.59872e-25 -0.000241038 -0.0125531 4.94158e-22 -0.000241038 -0.0125531
4.94158e-22 -0.000338776 -0.0115084 5.07836e-22 -0.000338776 -0.0115084 5.07836e-22 -0.000482929 -0.0103775 -3.08519e-25
-0.000482929 -0.0103775 -3.08519e-25 -0.000559791 -0.00915622 -5.17151e-22 -0.000559791 -0.00915622 -5.17151e-22 -0.000329321
-0.00799007 0 -0.000329321 -0.00799007 0 0.000261352 -0.00790577 0 0.000261352 -0.00790577
0 0.000691464 -0.0096334 0 0.000691464 -0.0096334 0 0.000436262 -0.0112962 0
0.000436262 -0.0112962 0 -0.000220592 -0.0109706 0 -0.000220592 -0.0109706 0 -0.000713874
-0.00957098 0 -0.000713874 -0.00957098 0 -0.00109777 -0.00770875 0 -0.00109777 -0.00770875
0 -0.00156494 -0.00524411 0 -0.00156494 -0.00524411 0 -0.00193249 -0.00263631 0
-0.00193249 -0.00263631 0 -0.00126025 0.00030943 0 -0.00126025 0.00030943 0 -0.000497285
0.00188381 0 -0.000497285 0.00188381 0 -0.000317076 0.000228113 2.17816e-25 -0.000317076 0.000228113
2.17816e-25 -9.73804e-05 -0.000224535 -2.88964e-23 -9.73804e-05 -0.000224535 -2.88964e-23 0.000530599 -0.000581071 0
0.000530599 -0.000581071 0 0.00125889 -0.000648755 0 0.00125889 -0.000648755 0 0.0019431
-0.000529381 2.79321e-23 0.0019431 -0.000529381 2.79321e-23 0.00248281 -0.000293841 2.79823e-23 0.00248281 -0.000293841
2.79823e-23 0.00280908 2.85605e-05 0 0.00280908 2.85605e-05 0 0.00287581 0.000432347 0
0.00287581 0.000432347 0 0.00262483 0.000838766 0 0.00262483 0.000838766 0 0.00207068
0.000960838 -2.68583e-23 0.00207068 0.000960838 -2.68583e-23 0.00140948 0.000561797 -2.69095e-23 0.00140948 0.000561797
-2.69095e-23 0.000863042 -5.7971e-05 0 0.000863042 -5.7971e-05 0 0.000480023 -0.000326523 0
0.000480023 -0.000326523 0 0.000274162 -0.000149628 0 0.000274162 -0.000149628 0 0.000191068
0.000217483 -2.58892e-23 0.000191068 0.000217483 -2.58892e-23 3.68077e-05 0.000263454 -2.59415e-23 3.68077e-05 0.000263454
-2.59415e-23 1.46049e-05 -0.000233937 0 1.46049e-05 -0.000233937 0 0.000309901 -0.000675491 0
0.000309901 -0.000675491 0 0.000782029 -0.000792896 0 0.000782029 -0.000792896 0 0.0012363
-0.000835943 0 0.0012363 -0.000835943 0 0.00141508 -0.000967542 0 0.00141508 -0.000967542
0 0.00128326 -0.000944303 0 0.00128326 -0.000944303 0 0.000946051 -0.000105661 -2.38444e-23
0.000946051 -0.000105661 -2.38444e-23 0.000214052 0.00102182 -2.66353e-25 0.000214052 0.00102182 -2.66353e-25 -0.000746754
0.00111401 3.19257e-25 -0.000746754 0.00111401 3.19257e-25 -0.00143111 0.000661659 -4.64767e-23 -0.00143111 0.000661659
-4.64767e-23 -0.00200115 0.000480038 -2.31123e-23 -0.00200115 0.000480038 -2.31123e-23 -0.00258797 0.000410519 0
-0.00258797 0.000410519 0 -0.00315216 0.00042296 2.20549e-23 -0.00315216 0.00042296 2.20549e-23 -0.00375758
0.000475226 4.38102e-23 -0.00375758 0.000475226 4.38102e-23 -0.00437816 0.000525246 2.1755e-23 -0.00437816 0.000525246
2.1755e-23 -0.00500885 0.000551955 0 -0.00500885 0.000551955 0 -0.00563167 0.000550199 2.0636e-23
-0.00563167 0.000550199 2.0636e-23 -0.00623188 0.000533042 2.06868e-23 -0.00623188 0.000533042 2.06868e-23 -0.00680207
0.000498748 0 -0.00680207 0.000498748 0 -0.00732973 0.000462715 -1.96202e-23 -0.00732973 0.000462715
-1.96202e-23 -0.00781071 0.000423722 -1.96701e-23 -0.00781071 0.000423722 -1.96701e-23 -0.00823622 0.000382591 -1.9024e-23
-0.00823622 0.000382591 -1.9024e-23 -0.00860101 0.000343941 -5.65959e-23 -0.00860101 0.000343941 -5.65959e-23 -0.00890198
0.000306927 -3.76209e-23 -0.00890198 0.000306927 -3.76209e-23 -0.00913721 0.000274562 0 -0.00913721 0.000274562
0 -0.00930849 0.000248246 0 -0.00930849 0.000248246 0 -0.00941988 0.000228085 0
-0.00941988 0.000228085 0 -0.00947832 0.000212485 0 -0.00947832 0.000212485 0 -0.00948942
0.000197171 -3.55913e-23 -0.00948942 0.000197171 -3.55913e-23 -0.00945514 0.000173754 -7.11593e-23 -0.00945514 0.000173754
-7.11593e-23 -0.0093773 0.000131896 -7.09635e-23 -0.0093773 0.000131896 -7.09635e-23 -0.00925666 6.58988e-05 -3.54954e-23
-0.00925666 6.58988e-05 -3.54954e-23 -0.00909244 -2.32064e-05 3.53692e-23 -0.00909244 -2.32064e-05 3.53692e-23 -0.00888436
-0.000125823 3.54717e-23 -0.00888436 -0.000125823 3.54717e-23 -0.00863262 -0.000225388 -3.54652e-23 -0.00863262 -0.000225388
-3.54652e-23 -0.00833891 -0.000303576 -7.11138e-23 -0.00833891 -0.000303576 -7.11138e-23 -0.00800771 -0.00034611 -3.56499e-23
-0.00800771 -0.00034611 -3.56499e-23 -0.00764095 -0.000351397 0 -0.00764095 -0.000351397 0 -0.00722786
-0.000339436 0 -0.00722786 -0.000339436 0 -0.00674696 -0.000342862 -3.58926e-23 -0.00674696 -0.000342862
-3.58926e-23 -0.00618313 -0.0003802 -3.60038e-23 -0.00618313 -0.0003802 -3.60038e-23 -0.00553564 -0.000441796 0
-0.00553564 -0.000441796 0 -0.00481058 -0.000499399 0 -0.00481058 -0.000499399 0 -0.00402332
-0.00051814 0 -0.00402332 -0.00051814 0 -0.00321688 -0.000479474 0 -0.00321688 -0.000479474
0 -0.00246491 -0.000396303 0 -0.00246491 -0.000396303 0 -0.00180372 -0.000299009 0
-0.00180372 -0.000299009 0 -0.00124529 -0.000203754 0 -0.00124529 -0.000203754 0 -0.000844721
-0.000117335 3.48822e-23 -0.000844721 -0.000117335 3.48822e-23 -0.000617891 -6.94344e-05 3.49994e-23 -0.000617891 -6.94344e-05
3.49994e-23 -0.000547345 -7.99558e-05 0 -0.000547345 -7.99558e-05 0 -0.000606861 -0.000134848 -3.41474e-23
-0.000606861 -0.000134848 -3.41474e-23 -0.000718979 -0.000211429 -6.81947e-23 -0.000718979 -0.000211429 -6.81947e-23 -0.000776964
-0.000299984 -3.40475e-23 -0.000776964 -0.000299984 -3.40475e-23 -0.000747963 -0.00039087 3.35156e-23 -0.000747963 -0.00039087
3.35156e-23 -0.000510068 -0.000529203 3.23944e-25 -0.000510068 -0.000529203 3.23944e-25 0.000193783 -0.000763547 -3.34291e-23
0.000193783 -0.000763547 -3.34291e-23 0.0013562 -0.000915766 3.27313e-23 0.0013562 -0.000915766 3.27313e-23 0.00268242
-0.00085495 3.285e-23 0.00268242 -0.00085495 3.285e-23 0.00387737 -0.000660233 0 0.00387737 -0.000660233
0 0.00484716 -0.000430122 -3.09736e-23 0.00484716 -0.000430122 -3.09736e-23 0.00567616 -0.000284628 -3.10888e-23
0.00567616 -0.000284628 -3.10888e-23 0.00646965 -0.000238747 2.9452e-23 0.00646965 -0.000238747 2.9452e-23 0.0072236
-0.000168327 2.95633e-23 0.0072236 -0.000168327 2.95633e-23 0.00778245 3.70494e-05 -2.81645e-23 0.00778245 3.70494e-05
-2.81645e-23 0.00782201 0.000325324 -5.61125e-23 0.00782201 0.000325324 -5.61125e-23 0.00714243 0.000552353 -5.57744e-23
0.00714243 0.000552353 -5.57744e-23 0.00577771 0.000852679 -8.40092e-23 0.00577771 0.000852679 -8.40092e-23 0.00414592
0.00118554 4.47218e-25 0.00414592 0.00118554 4.47218e-25 0.00303331 0.00051202 5.6966e-23 0.00303331 0.00051202
5.6966e-23 0.00234345 -0.00110396 0 0.00234345 -0.00110396 0 0.00119469 -0.000532411 0
0.00119469 -0.000532411 0 -0.00283215 0.00223066 5.70494e-23 -0.00283215 0.00223066 5.70494e-23 -0.00879549
0.00319035 1.1201e-22 -0.00879549 0.00319035 1.1201e-22 -0.0133746 0.00246867 3.53604e-24 -0.0133746 0.00246867
3.53604e-24 -0.0168552 0.00189843 -5.16292e-23 -0.0168552 0.00189843 -5.16292e-23 -0.0196495 0.00143054 4.4604e-23
-0.0196495 0.00143054 4.4604e-23 -0.0217743 0.00106128 8.64151e-23 -0.0217743 0.00106128 8.64151e-23 -0.0234287
0.000779223 8.08535e-23 -0.0234287 0.000779223 8.08535e-23 -0.0246559 0.000552011 3.922e-23 -0.0246559 0.000552011
3.922e-23 -0.0255347 0.000364691 0 -0.0255347 0.000364691 0 -0.0260906 0.00020315 0
-0.0260906 0.00020315 0 -0.026356 6.49292e-05 3.33419e-23 -0.026356 6.49292e-05 3.33419e-23 -0.0263541
-5.22341e-05 3.34879e-23 -0.0263541 -5.22341e-05 3.34879e-23 -0.026127 -0.000152769 0 -0.026127 -0.000152769
0 -0.0256958 -0.000240683 -3.35042e-23 -0.0256958 -0.000240683 -3.35042e-23 -0.0250784 -0.00031541 -3.36539e-23
-0.0250784 -0.00031541 -3.36539e-23 -0.0243031 -0.000377597 0 -0.0243031 -0.000377597 0 -0.0233925
-0.000427975 -3.61226e-23 -0.0233925 -0.000427975 -3.61226e-23 -0.0223709 -0.000467186 -3.62872e-23 -0.0223709 -0.000467186
-3.62872e-23 -0.0212565 -0.000496992 0 -0.0212565 -0.000496992 0 -0.0200652 -0.000519219 3.9548e-23
-0.0200652 -0.000519219 3.9548e-23 -0.018811 -0.000535246 8.04e-23 -0.018811 -0.000535246 8.04e-23 -0.0175101
-0.000544964 4.08584e-23 -0.0175101 -0.000544964 4.08584e-23 -0.0161808 -0.0005479 -4.26834e-23 -0.0161808 -0.0005479
-4.26834e-23 -0.0148414 -0.000544039 -4.28852e-23 -0.0148414 -0.000544039 -4.28852e-23 -0.013506 -0.000535078 4.4237e-23
-0.013506 -0.000535078 4.4237e-23 -0.0121826 -0.000523671 4.44487e-23 -0.0121826 -0.000523671 4.44487e-23 -0.0108714
-0.000512847 4.52863e-23 -0.0108714 -0.000512847 4.52863e-23 -0.00956749 -0.000504724 9.11485e-23 -0.00956749 -0.000504724
9.11485e-23 -0.00826741 -0.000497847 4.58653e-23 -0.00826741 -0.000497847 4.58653e-23 -0.00697363 -0.000489069 0
-0.00697363 -0.000489069 0 -0.00569606 -0.000475636 0 -0.00569606 -0.000475636 0 -0.00445117
-0.00045667 0 -0.00445117 -0.00045667 0 -0.00325356 -0.000434855 0 -0.00325356 -0.000434855
0 -0.00210689 -0.000414994 0 -0.00210689 -0.000414994 0 -0.00100106 -0.0004011 0
-0.00100106 -0.0004011 0 8.84131e-05 -0.000396458 4.45499e-23 8.84131e-05 -0.000396458 4.45499e-23 0.00118441
-0.0003991 7.61273e-25 0.00118441 -0.0003991 7.61273e-25 0.00229876 -0.000402842 -4.42408e-23 0.00229876 -0.000402842
-4.42408e-23 0.00343531 -0.00040361 0 0.00343531 -0.00040361 0 0.00458541 -0.00039897 0
0.00458541 -0.00039897 0 0.00573357 -0.000389437 0 0.00573357 -0.000389437 0 0.00686711
-0.000377377 -8.12663e-23 0.00686711 -0.000377377 -8.12663e-23 0.0079797 -0.000364659 -8.16932e-23 0.0079797 -0.000364659
-8.16932e-23 0.00906927 -0.000351926 7.79751e-23 0.00906927 -0.000351926 7.79751e-23 0.0101348 -0.000338942 2.12152e-24
0.0101348 -0.000338942 2.12152e-24 0.0111739 -0.000324973 -7.66738e-23 0.0111739 -0.000324973 -7.66738e-23 0.0121818
-0.000308714 0 0.0121818 -0.000308714 0 0.01315 -0.00028831 0 0.01315 -0.00028831
0 0.0140657 -0.000263012 6.93949e-23 0.0140657 -0.000263012 6.93949e-23 0.0149132 -0.00023546 1.37535e-22
0.0149132 -0.00023546 1.37535e-22 0.0156796 -0.000208631 6.81327e-23 0.0156796 -0.000208631 6.81327e-23 0.0163569
-0.000177566 6.47897e-23 0.0163569 -0.000177566 6.47897e-23 0.016937 -0.00013431 1.28666e-22 0.016937 -0.00013431
1.28666e-22 0.0174118 -9.41372e-05 1.43177e-24 0.0174118 -9.41372e-05 1.43177e-24 0.0177982 -9.29614e-05 -6.27863e-23
0.0177982 -9.29614e-05 -6.27863e-23 0.0181446 -0.000111128 0 0.0181446 -0.000111128 0 0.0184296
-4.09967e-05 -6.06848e-23 0.0184296 -4.09967e-05 -6.06848e-23 0.0184694 0.000185361 -6.10266e-23 0.0184694 0.000185361
-6.10266e-23 0.0179969 0.0004968 0 0.0179969 0.0004968 0 0.0168494 0.000736187 0
0.0168494 0.000736187 0 0.0151679 0.000770653 0 0.0151679 0.000770653 0 0.0133602
0.000614424 6.03445e-23 0.0133602 0.000614424 6.03445e-23 0.0117419 0.000437655 1.20839e-22 0.0117419 0.000437655
1.20839e-22 0.0103105 0.000377007 6.04953e-23 0.0103105 0.000377007 6.04953e-23 0.00892188 0.000376483 5.92398e-23
0.00892188 0.000376483 5.92398e-23 0.0075688 0.000309118 5.95845e-23 0.0075688 0.000309118 5.95845e-23 0.00639495
0.000173739 0 0.00639495 0.000173739 0 0.00551013 5.63357e-05 5.61032e-23 0.00551013 5.63357e-05
5.61032e-23 0.00490085 1.13817e-06 5.64334e-23 0.00490085 1.13817e-06 5.64334e-23 0.00447816 -1.05278e-06 5.37558e-23
0.00447816 -1.05278e-06 5.37558e-23 0.0041352 2.75988e-05 5.40746e-23 0.0041352 2.75988e-05 5.40746e-23 0.00378862
5.75159e-05 0 0.00378862 5.75159e-05 0 0.00341329 6.8638e-05 5.01242e-23 0.00341329 6.8638e-05
5.01242e-23 0.0030159 9.70495e-05 5.04247e-23 0.0030159 9.70495e-05 5.04247e-23 0.0025437 0.000190917 4.78178e-23