/*--------------------------------*- C++ -*----------------------------------*\
  =========                 |
  \\      /  F ield         | OpenFOAM: The Open Source CFD Toolbox
   \\    /   O peration     | Website:  https://openfoam.org
    \\  /    A nd           | Version:  9
     \\/     M anipulation  |
\*---------------------------------------------------------------------------*/
FoamFile
{
    format      ascii;
    class       volScalarField;
    location    "0.02";
    object      epsilon;
}
// * * * * * * * * * * * * * * * * * * * * * * * * * * * * * * * * * * * * * //

dimensions      [0 2 -3 0 0 0 0];

internalField   nonuniform List<scalar> 
12225
(
278.485
263.583
249.33
236.735
226.672
219.508
215.253
213.694
214.487
217.241
221.568
227.115
233.587
240.751
248.454
256.619
265.442
278.989
61.0671
86.6306
98.016
107.427
119.026
133.665
151.336
171.689
194.205
218.322
243.517
269.371
295.606
322.13
349.181
377.247
409.142
445.554
25.2708
36.1703
43.3853
48.6793
53.5485
58.6652
64.351
70.7679
77.9718
85.9505
94.6567
104.036
114.051
124.71
136.121
148.561
162.793
180.131
17.5202
21.2988
24.7256
27.6445
30.2371
32.678
35.0971
37.5901
40.2218
43.0336
46.0525
49.2996
52.7996
56.5927
60.7517
65.4182
70.8546
77.508
15.4879
16.7538
18.1934
19.6075
20.9468
22.2148
23.4334
24.6299
25.8297
27.0541
28.3211
29.6472
31.0505
32.5549
34.196
36.0321
38.1559
40.6873
14.9087
15.2408
15.7502
16.3434
16.9664
17.5922
18.2099
18.8185
19.4219
20.0261
20.6378
21.2648
21.9161
22.6034
23.3428
24.1581
25.0832
26.1471
14.7453
14.7397
14.8357
15.0077
15.2304
15.4843
15.7559
16.0374
16.3253
16.6184
16.9175
17.2248
17.5437
17.8794
18.239
18.6328
19.0736
19.5666
14.7015
14.5828
14.5121
14.4871
14.5015
14.5471
14.6167
14.7041
14.8053
14.9176
15.0395
15.1709
15.3125
15.4661
15.6347
15.8225
16.0347
16.2706
14.6904
14.5375
14.4071
14.3009
14.2188
14.1589
14.1187
14.0955
14.0869
14.091
14.1064
14.1324
14.1689
14.2162
14.2754
14.3484
14.4369
14.5394
14.6877
14.5254
14.3761
14.2408
14.1198
14.0132
13.9204
13.8406
13.7728
13.7162
13.6701
13.634
13.6076
13.5911
13.5849
13.5897
13.6061
13.633
14.687
14.5224
14.3678
14.2233
14.0888
13.9644
13.8498
13.7447
13.649
13.5622
13.484
13.4144
13.3532
13.3005
13.2564
13.2214
13.1957
13.1787
14.6868
14.5216
14.3658
14.2189
14.0806
13.9507
13.8289
13.715
13.6087
13.5099
13.4184
13.3342
13.2571
13.1874
13.1251
13.0703
13.0234
12.984
14.6867
14.5214
14.3652
14.2176
14.0782
13.9465
13.8222
13.7049
13.5945
13.4907
13.3933
13.3023
13.2177
13.1394
13.0676
13.0023
12.9436
12.8916
14.6867
14.5212
14.3649
14.2172
14.0775
13.9453
13.8203
13.7021
13.5903
13.4847
13.3852
13.2915
13.2037
13.1216
13.0453
12.9747
12.9099
12.8512
14.6866
14.5211
14.3648
14.217
14.0773
13.9451
13.82
13.7017
13.5897
13.4838
13.3837
13.2894
13.2006
13.1172
13.0392
12.9665
12.8989
12.837
14.6866
14.521
14.3647
14.2169
14.0773
13.9452
13.8202
13.7019
13.59
13.4843
13.3843
13.2899
13.201
13.1173
13.0387
12.9651
12.8963
12.8328
14.6865
14.5209
14.3645
14.2168
14.0772
13.9452
13.8204
13.7023
13.5907
13.4851
13.3853
13.2911
13.2022
13.1184
13.0396
12.9655
12.896
12.8316
14.6864
14.5208
14.3644
14.2167
14.0772
13.9453
13.8207
13.7028
13.5914
13.486
13.3865
13.2924
13.2036
13.1199
13.0409
12.9665
12.8965
12.8313
14.6864
14.5207
14.3643
14.2166
14.0772
13.9455
13.8211
13.7034
13.5922
13.4872
13.3878
13.294
13.2053
13.1215
13.0424
12.9678
12.8973
12.8316
14.6863
14.5206
14.3642
14.2167
14.0774
13.9458
13.8216
13.7042
13.5933
13.4884
13.3893
13.2956
13.207
13.1233
13.0442
12.9694
12.8987
12.8327
14.6863
14.5206
14.3643
14.2168
14.0777
13.9464
13.8224
13.7053
13.5947
13.4901
13.3914
13.298
13.2098
13.1263
13.0475
12.9729
12.9025
12.8366
14.6863
14.5206
14.3645
14.2174
14.0788
13.9481
13.8249
13.7088
13.5994
13.4962
13.399
13.3073
13.221
13.1395
13.0627
12.9903
12.922
12.8583
14.6864
14.5212
14.3662
14.221
14.0851
13.9583
13.8401
13.73
13.6274
13.5318
13.4428
13.36
13.2828
13.2109
13.1438
13.0812
13.0227
12.9687
14.6875
14.5263
14.3795
14.2472
14.129
14.0241
13.9314
13.8495
13.7771
13.713
13.656
13.6053
13.5598
13.519
13.4825
13.4496
13.42
13.3938
14.6975
14.5661
14.4702
14.4066
14.3695
14.3533
14.3528
14.3634
14.3821
14.4061
14.4339
14.464
14.4956
14.528
14.5606
14.5931
14.6254
14.6576
14.7734
14.8173
14.9571
15.1533
15.3765
15.6083
15.8379
16.0603
16.2734
16.4769
16.6713
16.8572
17.0356
17.2073
17.3731
17.5338
17.6898
17.841
15.2581
16.1112
17.0606
17.9529
18.7568
19.4791
20.1331
20.7335
21.2937
21.8243
22.3334
22.8271
23.3095
23.7836
24.2512
24.7133
25.1706
25.6211
18.0384
21.9946
24.959
27.1037
28.8135
30.2968
31.6617
32.9742
34.274
35.5828
36.911
38.262
39.6349
41.0262
42.4308
43.8433
45.2583
46.6648
33.9888
45.5994
51.2457
54.7643
57.8351
60.9544
64.2719
67.8268
71.6
75.5473
79.6189
83.7666
87.9469
92.1217
96.26
100.338
104.344
108.262
163.298
157.39
151.663
146.21
141.24
136.873
133.155
130.082
127.614
125.695
124.264
123.257
122.611
122.272
122.189
122.317
122.618
123.056
69.8589
107.202
124.153
135.465
142.827
147.499
150.337
151.896
152.489
152.212
151.078
149.971
151.448
155.361
161.963
171.675
184.747
200.821
218.441
234.678
247.04
254.501
259.746
274.116
314.194
368.007
431.958
502.556
576.631
651.539
725.246
796.295
863.718
926.929
985.624
1039.71
1089.22
1134.3
1175.15
1212
1245.12
1274.78
1301.26
1324.86
1345.87
1364.6
1381.37
1396.51
1410.35
1423.27
1435.53
1446.44
1456.21
1465.06
1473.15
1480.64
1487.64
1494.26
1500.58
1506.67
1512.54
1518.19
1523.57
1528.59
1533.07
1536.79
1539.47
1540.7
1540.02
1536.87
1530.6
1520.52
1505.87
1485.92
1460.04
1427.69
1388.59
1342.73
1290.44
1232.37
1169.49
1103.03
1034.43
965.322
897.771
835.021
782.561
744.811
711.655
680.242
650.224
621.559
594.242
568.249
543.54
520.057
497.734
476.501
456.286
437.022
418.643
401.091
384.314
368.265
352.904
338.198
324.119
310.647
297.766
285.466
273.741
262.592
252.02
242.032
232.637
223.841
215.655
208.083
201.13
194.791
189.053
183.884
179.232
175.033
171.23
167.786
164.676
161.873
159.356
157.099
155.078
153.271
151.654
150.209
148.916
147.761
146.729
145.809
144.989
144.26
143.614
143.045
142.545
142.109
141.732
141.41
141.136
140.908
140.722
140.574
140.46
140.378
140.325
140.297
140.293
140.309
140.344
140.394
140.458
140.534
140.618
140.708
140.801
140.895
140.985
141.067
141.135
141.183
141.201
141.178
141.1
140.944
140.683
140.276
139.664
138.757
137.428
135.403
132.528
127.127
122.589
111.339
106.468
103.537
102.428
103.228
105.975
110.735
117.669
127.132
139.899
157.95
181.702
212.418
252.247
304.004
370.659
454.765
556.332
650.858
731.179
790.407
824.966
836.602
830.203
811.422
785.675
756.894
727.758
699.941
674.375
651.479
631.335
613.824
598.718
585.743
574.62
565.089
556.92
549.927
543.963
538.926
534.757
531.435
528.978
527.439
526.904
527.491
529.332
532.546
537.337
542.245
547.194
552.201
557.288
562.476
567.787
573.24
578.852
584.632
590.585
596.702
602.965
609.336
615.76
622.153
628.4
634.348
639.798
644.498
648.144
650.377
650.794
648.969
644.48
636.957
626.118
611.827
594.121
573.229
549.569
523.718
496.371
468.305
440.341
413.273
388.059
366.118
345.598
326.2
307.874
290.6
274.344
259.063
244.703
231.204
218.507
206.553
195.284
184.648
174.598
165.089
156.084
147.546
139.447
131.76
124.462
117.535
110.96
104.726
98.8189
93.2308
87.9532
82.9796
78.3042
73.922
69.8282
66.0182
62.4871
59.2306
56.2463
53.5378
51.1301
49.1011
47.39
45.9199
44.6398
43.5077
42.5006
41.6066
40.8147
40.1146
39.4972
38.9542
38.4779
38.0617
37.6995
37.3856
37.1152
36.8838
36.6872
36.5219
36.3844
36.2718
36.1813
36.1106
36.0574
36.0199
35.9963
35.9852
35.9852
35.9952
36.0143
36.0415
36.0761
36.1176
36.1655
36.2193
36.279
36.3444
36.4155
36.4927
36.5765
36.6677
36.7674
36.8773
36.9996
37.1375
37.2953
37.4791
37.6975
37.9628
38.2936
38.718
39.281
40.0576
41.1784
42.8876
45.6423
50.7343
155.009
137.964
131.311
128.891
129.951
134.347
142.25
154.165
171.088
194.959
227.734
268.835
321.511
385.639
459.674
541.357
624.456
699.961
758.016
790.577
796.712
780.186
747.51
705.838
661.241
617.984
578.617
544.341
515.478
491.815
472.839
457.889
446.263
437.289
430.368
425.006
420.826
417.558
415.028
413.136
411.83
411.09
410.906
411.273
412.182
413.614
415.544
417.94
420.759
423.948
427.225
430.429
433.55
436.608
439.641
442.695
445.827
449.101
452.581
456.335
460.426
464.915
469.853
475.279
481.213
487.653
494.562
501.863
509.421
517.038
524.436
531.252
537.041
541.289
543.44
542.946
539.326
532.231
521.503
507.204
489.63
469.271
446.759
422.794
398.06
373.098
349.585
327.971
307.6
288.378
270.298
253.349
237.498
222.697
208.884
195.994
183.957
172.708
162.183
152.322
143.072
134.382
126.21
118.514
111.261
104.418
97.9593
91.8593
86.0969
80.6534
75.5124
70.6594
66.0815
61.7674
57.707
53.8912
50.3116
46.9605
43.8306
40.9151
38.2079
35.7034
33.3962
31.282
29.3518
27.5943
26.0003
24.5687
23.2894
22.1458
21.1233
20.2094
19.3957
18.6739
18.0362
17.4752
16.9838
16.5555
16.1838
15.8631
15.5879
15.3531
15.1541
14.9867
14.847
14.7317
14.6376
14.562
14.5024
14.4567
14.4229
14.3994
14.3848
14.3778
14.3774
14.3826
14.3928
14.4072
14.4255
14.4471
14.4718
14.4995
14.53
14.5636
14.6004
14.6408
14.6855
14.7356
14.7922
14.8575
14.9342
15.0266
15.1408
15.2866
15.4798
15.7473
16.1387
16.7472
17.7924
19.7077
175.892
183.056
173.602
172.2
176.976
187.353
203.688
227.107
259.441
299.201
345.059
397.511
455.538
516.344
575.552
627.501
666.137
686.768
687.631
670.515
640.181
602.422
562.538
524.498
490.733
462.353
439.533
421.884
408.745
399.363
392.995
388.966
386.692
385.696
385.609
386.166
387.191
388.576
390.263
392.223
394.433
396.872
399.507
402.293
405.173
408.082
410.946
413.692
416.253
418.563
420.415
421.767
422.629
423.04
423.061
422.774
422.281
421.701
421.168
420.822
420.811
421.282
422.376
424.226
426.947
430.628
435.326
441.053
447.757
455.311
463.49
471.957
480.251
487.794
493.912
497.887
499.026
496.749
490.676
480.687
466.946
449.873
430.075
408.26
385.141
361.549
339.394
318.277
298.169
279.126
261.192
244.376
228.657
213.993
200.324
187.586
175.711
164.633
154.288
144.617
135.563
127.078
119.116
111.635
104.601
97.9794
91.7418
85.862
80.317
75.0861
70.151
65.4953
61.1045
56.9656
53.0668
49.3977
45.9488
42.7114
39.6777
36.8403
34.1923
31.727
29.4379
27.3186
25.3625
23.5624
21.9115
20.4034
19.0311
17.7873
16.666
15.6602
14.76
13.9562
13.2412
12.6077
12.0486
11.557
11.1266
10.7514
10.4256
10.1439
9.90144
9.69372
9.5166
9.36635
9.23957
9.13325
9.04469
8.97149
8.91154
8.863
8.82425
8.79388
8.7707
8.75366
8.74186
8.73457
8.73114
8.73107
8.73393
8.73939
8.74723
8.7573
8.76954
8.78402
8.8009
8.82051
8.84335
8.87021
8.90224
8.94114
8.98951
9.05135
9.13308
9.24549
9.40788
9.65622
10.0666
10.7799
176.115
298.538
238.478
232.292
240.089
256.02
279.303
309.43
343.575
381.441
422.207
463.94
503.853
538.597
564.754
579.517
581.439
570.967
550.41
523.316
493.55
464.418
438.224
416.232
398.859
385.946
377.026
371.5
368.755
368.217
369.375
371.793
375.117
379.077
383.482
388.204
393.166
398.318
403.622
409.037
414.511
419.974
425.342
430.514
435.383
439.837
443.767
447.072
449.667
451.419
452.174
451.881
450.536
448.166
444.831
440.627
435.683
430.163
424.262
418.2
412.22
406.577
401.533
397.345
394.256
392.488
392.226
393.606
396.699
401.491
407.858
415.538
424.113
432.995
441.438
448.58
453.518
455.423
453.656
447.865
438.041
424.5
407.807
388.671
367.882
347.214
327.01
307.387
288.517
270.538
253.53
237.525
222.518
208.478
195.359
183.105
171.658
160.957
150.948
141.575
132.789
124.544
116.8
109.517
102.663
96.2071
90.1208
84.3799
78.9619
73.8466
69.0161
64.454
60.1457
56.0781
52.2394
48.6189
45.2073
41.9957
38.9766
36.1428
33.4878
31.0054
28.6897
26.5351
24.536
22.6867
20.9815
19.4147
17.9804
16.6724
15.4845
14.4105
13.4438
12.5778
11.8048
11.1174
10.5085
9.97141
9.49948
9.08652
8.72662
8.41424
8.1442
7.91173
7.71241
7.54224
7.39756
7.27511
7.17193
7.08543
7.01329
6.95348
6.90423
6.86399
6.83144
6.80542
6.78496
6.7692
6.75745
6.74912
6.7437
6.74081
6.74012
6.74139
6.74445
6.74922
6.75568
6.76391
6.7741
6.78658
6.80186
6.82077
6.84454
6.87509
6.91548
6.97079
7.04972
7.16803
7.35494
7.66066
181.654
359.672
301.828
296.802
306.928
324.83
346.67
370.554
396.315
422.784
448.233
470.619
487.878
498.284
500.804
495.365
482.933
465.351
444.943
424.041
404.575
387.85
374.543
364.824
358.523
355.289
354.691
356.286
359.654
364.415
370.241
376.867
384.088
391.756
399.77
408.059
416.567
425.24
434.012
442.806
451.522
460.043
468.236
475.959
483.06
489.386
494.791
499.134
502.292
504.043
504.285
502.947
499.991
495.41
489.231
481.526
472.411
462.051
450.662
438.508
425.901
413.192
400.764
389.016
378.351
369.156
361.787
356.548
353.671
353.294
355.432
359.949
366.523
374.62
383.486
392.176
399.619
404.75
406.659
404.727
398.734
388.851
375.568
359.585
342.526
325.002
307.404
290.065
273.24
257.098
241.74
227.214
213.527
200.661
188.582
177.248
166.612
156.626
147.245
138.424
130.124
122.306
114.937
107.986
101.422
95.2221
89.361
83.8177
78.5727
73.6083
68.9081
64.4578
60.2438
56.2541
52.4779
48.9054
45.5278
42.3372
39.3266
36.4896
33.8206
31.3143
28.9658
26.7707
24.7244
22.8226
21.0609
19.4346
17.9389
16.5686
15.3185
14.1828
13.1555
12.2307
11.402
10.6627
10.006
9.42524
8.91373
8.46516
8.07345
7.73283
7.43788
7.18355
6.96513
6.77833
6.61922
6.48425
6.37023
6.27432
6.19398
6.127
6.07142
6.02556
5.98794
5.9573
5.93256
5.9128
5.89723
5.8852
5.87615
5.86965
5.8653
5.86283
5.862
5.86264
5.86467
5.86805
5.87282
5.87913
5.88722
5.89751
5.91069
5.92779
5.95048
5.98148
6.02529
6.0897
6.18769
6.33918
831.317
404.107
355.344
353.29
362.874
375.85
390.461
405.569
420.089
432.852
442.673
448.513
449.673
445.958
437.746
425.949
411.856
396.915
382.49
369.684
359.239
351.543
346.686
344.558
344.92
347.476
351.904
357.893
365.152
373.432
382.525
392.271
402.55
413.271
424.366
435.771
447.418
459.228
471.1
482.918
494.54
505.812
516.564
526.615
535.781
543.877
550.722
556.142
559.982
561.985
562.1
560.25
556.369
550.41
542.361
532.248
520.143
506.169
490.509
473.41
455.186
436.217
416.95
397.884
379.557
362.526
347.332
334.478
324.388
317.382
313.64
313.169
315.772
321.015
328.206
336.398
344.442
351.116
355.291
356.098
353.097
346.317
336.15
323.94
310.326
295.911
281.184
266.517
252.177
238.336
225.096
212.507
200.581
189.307
178.662
168.612
159.123
150.159
141.686
133.671
126.085
118.901
112.091
105.634
99.5082
93.6938
88.1729
82.9289
77.9467
73.2122
68.7123
64.435
60.3695
56.5056
52.8342
49.3469
46.0364
42.8959
39.9197
37.1026
34.4399
31.9276
29.5621
27.3402
25.2588
23.3149
21.5053
19.8268
18.2759
16.8487
15.5408
14.3475
13.2637
12.284
11.4025
10.6132
9.91006
9.28648
8.73601
8.25228
7.82912
7.4606
7.14109
6.86528
6.62823
6.42535
6.25245
6.10571
5.98167
5.87727
5.78974
5.71666
5.65592
5.60564
5.56424
5.53032
5.5027
5.48037
5.46247
5.44828
5.4372
5.42873
5.42246
5.41804
5.4152
5.41376
5.41355
5.41449
5.41654
5.41975
5.42423
5.43021
5.4381
5.4485
5.46242
5.48149
5.50829
5.54712
5.60459
5.68947
904.977
442.641
391.828
387.771
394.17
403.061
411.758
418.917
423.73
425.687
424.517
420.204
413.015
403.5
392.435
380.719
369.258
358.855
350.14
343.536
339.267
337.387
337.821
340.407
344.929
351.147
358.818
367.716
377.638
388.418
399.923
412.05
424.722
437.869
451.426
465.32
479.461
493.74
508.026
522.166
535.989
549.308
561.923
573.63
584.221
593.49
601.237
607.269
611.409
613.469
613.432
611.227
606.776
600.017
590.91
579.447
565.655
549.608
531.434
511.321
489.53
466.4
442.351
417.89
393.602
370.134
348.17
328.388
311.412
297.761
287.797
281.674
279.303
280.35
284.21
290.008
296.617
302.779
307.278
309.073
307.561
302.792
295.349
285.875
274.999
263.292
251.224
239.143
227.293
215.825
204.824
194.329
184.344
174.858
165.849
157.289
149.152
141.41
134.038
127.013
120.317
113.929
107.832
102.013
96.4569
91.1506
86.0824
81.2411
76.6165
72.1986
67.9782
63.9468
60.0963
56.419
52.9082
49.5574
46.361
43.3139
40.4116
37.6503
35.0269
32.5385
30.1831
27.9587
25.8637
23.8966
22.0558
20.3395
18.7456
17.2717
15.9147
14.6712
13.537
12.5075
11.5778
10.7423
9.99543
9.3312
8.74336
8.22568
7.77197
7.37624
7.03269
6.73583
6.48049
6.26184
6.07544
5.91721
5.78346
5.67088
5.57651
5.49771
5.43219
5.37794
5.3332
5.29648
5.26648
5.24211
5.22244
5.20668
5.19417
5.18438
5.17684
5.17118
5.16712
5.1644
5.16286
5.16235
5.16281
5.16422
5.16662
5.17013
5.17499
5.1816
5.1906
5.20303
5.22053
5.2457
5.28229
5.33465
942.314
456.001
401.719
396.899
402.211
408.837
413.818
415.931
414.803
410.579
403.718
394.864
384.752
374.146
363.77
354.259
346.127
339.75
335.369
333.105
332.977
334.923
338.816
344.489
351.749
360.398
370.246
381.123
392.886
405.419
418.633
432.456
446.827
461.682
476.952
492.548
508.361
524.259
540.085
555.662
570.793
585.27
598.874
611.384
622.579
632.245
640.176
646.179
650.042
651.747
651.284
648.597
643.621
636.298
626.584
614.456
599.922
583.019
563.83
542.487
519.184
494.185
467.833
440.562
412.903
385.486
359.026
334.289
312.041
292.981
277.669
266.414
259.208
255.771
255.562
257.794
261.447
265.332
268.321
269.337
267.873
263.931
257.789
249.922
240.869
231.132
221.124
211.15
201.411
192.023
183.043
174.484
166.339
158.583
151.189
144.129
137.377
130.909
124.705
118.748
113.024
107.521
102.229
97.1378
92.2406
87.5298
82.9988
78.6414
74.4517
70.4241
66.5531
62.8334
59.26
55.8281
52.533
49.3707
46.3372
43.4291
40.6437
37.9784
35.4315
33.0016
30.688
28.4901
26.4078
24.4411
22.5901
20.8544
19.2337
17.7269
16.3327
15.0488
13.8725
12.8003
11.8281
10.9513
10.1648
9.4631
8.84046
8.29083
7.80816
7.38644
7.01983
6.70269
6.42968
6.19577
5.99629
5.82694
5.6838
5.56333
5.46237
5.3781
5.30806
5.25006
5.20223
5.16294
5.13081
5.10465
5.08346
5.06639
5.05273
5.04189
5.03339
5.02683
5.02187
5.01825
5.01578
5.01429
5.01369
5.0139
5.01493
5.01684
5.01977
5.02398
5.02991
5.03827
5.05016
5.06728
5.09198
5.12668
946.664
447.237
391.064
385.882
391.079
397.216
401.081
401.494
398.337
392.135
383.75
374.146
364.235
354.79
346.412
339.53
334.425
331.256
330.09
330.922
333.686
338.274
344.54
352.319
361.436
371.722
383.022
395.203
408.156
421.798
436.061
450.89
466.23
482.022
498.189
514.634
531.236
547.85
564.305
580.409
595.953
610.716
624.469
636.982
648.027
657.383
664.841
670.209
673.322
674.271
673.068
669.688
664.094
656.249
646.125
633.706
618.995
602.017
582.828
561.52
538.234
513.17
486.586
458.809
430.264
401.482
373.104
345.872
320.581
298.02
278.926
263.8
252.667
245.264
241.06
239.343
239.267
239.807
240.013
239.112
236.596
232.297
226.35
219.102
210.989
202.431
193.778
185.278
177.087
169.283
161.89
154.898
148.278
141.993
136.005
130.279
124.786
119.5
114.402
109.475
104.707
100.09
95.6147
91.2766
87.071
82.9942
79.0432
75.2154
71.5082
67.9192
64.4461
61.0865
57.8379
54.698
51.6643
48.7347
45.907
43.1794
40.5506
38.0194
35.5853
33.2482
31.0085
28.8672
26.8254
24.8845
23.0461
21.3115
19.682
18.1583
16.7404
15.4278
14.2193
13.1126
12.1049
11.1925
10.371
9.63573
8.98138
8.40231
7.89268
7.44659
7.05821
6.72183
6.43199
6.1835
5.9715
5.79148
5.63934
5.51132
5.40406
5.31458
5.24023
5.17869
5.12796
5.08629
5.05219
5.02439
5.00183
4.98359
4.96893
4.9572
4.94789
4.94057
4.93488
4.93055
4.92735
4.92511
4.92369
4.92301
4.92305
4.9238
4.92537
4.92791
4.93175
4.93739
4.94561
4.9576
4.97496
4.9992
913.241
422.722
366.315
361.02
366.699
373.648
378.43
379.77
377.554
372.38
365.216
357.117
349.038
341.731
335.729
331.369
328.836
328.204
329.472
332.583
337.439
343.91
351.844
361.079
371.451
382.807
395.013
407.955
421.544
435.711
450.401
465.567
481.159
497.121
513.375
529.827
546.353
562.806
579.016
594.788
609.914
624.17
637.329
649.158
659.426
667.91
674.391
678.666
680.685
680.575
678.385
674.132
667.818
659.438
648.991
636.482
621.924
605.343
586.781
566.303
544.011
520.083
494.708
468.111
440.598
412.574
384.555
357.173
331.151
307.21
286.134
268.728
254.91
244.411
236.707
231.146
227.072
223.84
220.814
217.395
213.119
207.755
201.331
194.07
186.302
178.357
170.511
162.958
155.807
149.103
142.842
136.993
131.513
126.351
121.462
116.805
112.343
108.048
103.898
99.8739
95.9624
92.1533
88.4393
84.8149
81.2766
77.8217
74.4488
71.1567
67.9447
64.8124
61.7593
58.7851
55.889
53.0707
50.3293
47.6641
45.0746
42.56
40.1203
37.7554
35.4656
33.2521
31.1161
29.0597
27.085
25.1949
23.3922
21.6798
20.0603
18.5363
17.1094
15.7809
14.5508
13.4187
12.383
11.4411
10.5899
9.82524
9.14263
8.53687
8.00248
7.5338
7.12506
6.77059
6.46484
6.20252
5.97861
5.78845
5.62772
5.4925
5.37925
5.28481
5.20637
5.14148
5.08801
5.04409
5.00815
4.97884
4.95501
4.9357
4.92011
4.90758
4.89754
4.88954
4.88322
4.87826
4.87443
4.87154
4.86945
4.86804
4.86727
4.86711
4.86762
4.86891
4.8712
4.87488
4.88054
4.88903
4.90154
4.91911
850.693
389.187
334.1
328.836
335.152
343.487
350.272
354.059
354.554
352.197
347.84
342.476
337.029
332.242
328.642
326.559
326.171
327.541
330.659
335.455
341.824
349.629
358.718
368.929
380.103
392.089
404.758
418.007
431.751
445.926
460.483
475.376
490.562
505.987
521.582
537.259
552.905
568.384
583.534
598.176
612.11
625.127
637.009
647.534
656.482
663.631
668.76
671.644
672.343
671.001
667.704
662.509
655.456
646.579
635.91
623.478
609.317
593.461
575.951
556.824
536.1
514.038
490.788
466.47
441.291
415.541
389.604
363.976
339.26
316.12
295.211
277.006
261.616
248.802
238.08
228.947
221.025
214.034
207.667
201.539
195.259
188.565
181.388
173.843
166.146
158.533
151.204
144.29
137.858
131.92
126.452
121.409
116.738
112.384
108.297
104.433
100.752
97.2247
93.8242
90.5303
87.3268
84.2012
81.144
78.1482
75.2088
72.3226
69.4873
66.7019
63.9658
61.279
58.6418
56.0546
53.5178
51.0318
48.5969
46.2133
43.8813
41.6011
39.3733
37.1985
35.0778
33.0128
31.0055
29.0586
27.1752
25.359
23.6138
21.9438
20.3531
18.8456
17.4247
16.0932
14.8529
13.7049
12.6491
11.6845
10.8089
10.0193
9.31199
8.68239
8.12551
7.63602
7.20835
6.83691
6.51617
6.24074
6.00552
5.80568
5.63676
5.49467
5.37569
5.27651
5.19418
5.12611
5.07002
5.02398
4.98629
4.95554
4.93051
4.91019
4.89373
4.88043
4.8697
4.86106
4.85413
4.84858
4.84417
4.84068
4.83796
4.8359
4.83441
4.83348
4.8331
4.83336
4.83444
4.83662
4.84036
4.84634
4.85545
4.86849
776.439
353.634
299.841
294.469
301.235
310.936
319.979
326.75
330.701
331.989
331.217
329.199
326.766
324.637
323.36
323.307
324.694
327.624
332.11
338.099
345.496
354.172
363.979
374.765
386.382
398.629
411.376
424.53
438.007
451.742
465.68
479.777
493.99
508.272
522.562
536.785
550.845
564.624
577.983
590.766
602.797
613.892
623.857
632.495
639.61
645.005
648.476
649.8
649.106
646.527
642.17
636.124
628.465
619.258
608.565
596.443
582.945
568.123
552.031
534.724
516.268
496.765
476.312
455.013
433.008
410.49
387.72
365.049
342.923
321.848
302.306
284.613
268.782
254.51
241.362
229.055
217.586
207.095
197.609
188.935
180.748
172.759
164.825
156.96
149.28
141.926
135.017
128.623
122.765
117.425
112.561
108.118
104.04
100.272
96.7652
93.4756
90.3666
87.407
84.5707
81.8362
79.1856
76.6046
74.0814
71.607
69.1742
66.7781
64.4148
62.0819
59.7781
57.5026
55.2554
53.0367
50.8469
48.6867
46.5566
44.4572
42.389
40.3527
38.3491
36.3791
34.444
32.5456
30.6861
28.8686
27.0966
25.3743
23.7062
22.0974
20.5531
19.0784
17.6783
16.3569
15.118
13.964
12.8965
11.916
11.0217
10.2117
9.4833
8.83272
8.25559
7.74703
7.30178
6.91442
6.57948
6.29159
6.04554
5.83642
5.65962
5.51091
5.38642
5.28267
5.19658
5.12543
5.06683
5.01872
4.97935
4.9472
4.92101
4.8997
4.88238
4.86832
4.8569
4.84763
4.84009
4.83395
4.82895
4.82487
4.82155
4.81886
4.8167
4.81504
4.81387
4.81324
4.81329
4.81425
4.81648
4.82055
4.82716
4.83698
777.958
288.278
263.102
260.622
268.037
278.845
289.877
299.483
306.9
311.985
315.031
316.601
317.366
317.981
319
320.832
323.753
327.918
333.388
340.147
348.127
357.218
367.284
378.174
389.729
401.786
414.208
426.88
439.708
452.615
465.539
478.428
491.236
503.919
516.423
528.687
540.634
552.17
563.185
573.553
583.133
591.776
599.326
605.624
610.513
613.841
615.452
615.179
613.156
609.493
604.298
597.673
589.715
580.515
570.153
558.706
546.241
532.822
518.508
503.355
487.42
470.766
453.456
435.561
417.168
398.394
379.402
360.415
341.717
323.624
306.392
290.092
274.513
259.242
243.959
228.74
214.071
200.521
188.385
177.587
167.824
158.776
150.244
142.166
134.569
127.512
121.036
115.15
109.83
105.028
100.688
96.7482
93.1504
89.843
86.7806
83.9247
81.2423
78.7055
76.2902
73.9762
71.7459
69.5844
67.4792
65.4196
63.3971
61.4047
59.4371
57.4903
55.5614
53.6485
51.7506
49.8671
47.9979
46.143
44.3029
42.4779
40.6683
38.8746
37.0975
35.3378
33.5965
31.8754
30.1765
28.5027
26.8576
25.2453
23.6708
22.1397
20.6578
19.2312
17.866
16.5678
15.3417
14.1917
13.1211
12.1319
11.2249
10.3993
9.65352
8.98486
8.38971
7.86375
7.40217
6.99981
6.65135
6.35148
6.09498
5.87684
5.69236
5.53718
5.40728
5.29905
5.20927
5.13509
5.074
5.02387
4.98282
4.94928
4.92192
4.89962
4.88144
4.8666
4.85448
4.84455
4.83638
4.82963
4.82403
4.81934
4.8154
4.81207
4.80925
4.80689
4.80497
4.80353
4.80267
4.80258
4.80358
4.80613
4.81082
4.81823
177.953
254.855
231.66
229.898
237.578
249.064
261.571
273.477
283.883
292.423
299.11
304.238
308.261
311.695
315.031
318.683
322.969
328.104
334.21
341.331
349.446
358.482
368.332
378.862
389.926
401.375
413.069
424.882
436.709
448.457
460.051
471.431
482.545
493.343
503.781
513.806
523.361
532.374
540.767
548.448
555.314
561.256
566.163
569.921
572.422
573.565
573.257
571.417
568.171
563.607
557.825
550.927
543.014
534.184
524.526
514.122
503.047
491.364
479.133
466.404
453.225
439.637
425.684
411.405
396.849
382.076
367.163
352.217
337.353
322.655
308.081
293.36
278.009
261.575
244.039
226.03
208.576
192.582
178.461
166.137
155.276
145.532
136.669
128.571
121.201
114.54
108.562
103.22
98.4501
94.1813
90.3421
86.8672
83.6999
80.7922
78.1044
75.6035
73.262
71.0564
68.9668
66.9756
65.0673
63.2281
61.446
59.7103
58.0117
56.3426
54.6964
53.0678
51.4528
49.8483
48.252
46.6623
45.0783
43.4994
41.9251
40.3552
38.7896
37.2284
35.6716
34.1195
32.5729
31.0327
29.5007
27.9792
26.4713
24.981
23.5131
22.0733
20.6677
19.3029
17.9859
16.7232
15.5211
14.3853
13.3204
12.33
11.4164
10.5802
9.821
9.1373
8.5264
7.98471
7.50797
7.09141
6.72998
6.41847
6.15171
5.92468
5.73258
5.57094
5.43563
5.32291
5.22942
5.15218
5.0886
5.0364
4.99366
4.95871
4.93015
4.90682
4.88775
4.87211
4.85925
4.84863
4.8398
4.83241
4.82618
4.82086
4.81628
4.8123
4.80882
4.80577
4.80313
4.80092
4.79923
4.79822
4.79817
4.79947
4.80265
4.80819
171.817
229.374
204.628
202.706
210.294
221.953
235.201
248.622
261.325
272.786
282.778
291.318
298.608
304.963
310.747
316.318
321.994
328.027
334.598
341.815
349.721
358.301
367.495
377.21
387.328
397.719
408.255
418.808
429.265
439.525
449.501
459.12
468.322
477.054
485.272
492.93
499.986
506.39
512.091
517.029
521.141
524.36
526.62
527.854
528.006
527.032
524.917
521.7
517.482
512.331
506.325
499.552
492.105
484.072
475.54
466.587
457.281
447.684
437.848
427.817
417.625
407.303
396.873
386.352
375.752
365.076
354.318
343.447
332.373
320.876
308.53
294.687
278.691
260.315
240.149
219.511
199.869
182.227
166.911
153.739
142.327
132.313
123.448
115.584
108.627
102.495
97.1038
92.3602
88.1692
84.4416
81.0988
78.0744
75.3148
72.7773
70.428
68.2399
66.1911
64.2633
62.4408
60.7096
59.0572
57.4721
55.9439
54.4628
53.0203
51.6086
50.2209
48.8514
47.4952
46.1485
44.8081
43.4714
42.1366
40.8022
39.4671
38.1302
36.7907
35.4481
34.1015
32.7507
31.3956
30.0364
28.674
27.31
25.9469
24.588
23.2375
21.9008
20.584
19.2938
18.0374
16.8223
15.6556
14.5443
13.4942
12.5105
11.5967
10.755
9.9865
9.29084
8.6664
8.11051
7.6196
7.18943
6.81528
6.49221
6.21513
5.97905
5.77914
5.61085
5.46993
5.35253
5.25517
5.17474
5.10852
5.05417
5.00964
4.9732
4.94339
4.91899
4.89896
4.88248
4.86885
4.85751
4.84799
4.83993
4.83304
4.82707
4.82184
4.8172
4.81306
4.80934
4.806
4.80307
4.80063
4.7988
4.79785
4.79811
4.80006
4.80414
176.125
185.766
178.657
180.987
189.351
201.033
214.443
228.528
242.524
255.875
268.22
279.38
289.341
298.219
306.22
313.597
320.612
327.509
334.49
341.706
349.254
357.178
365.475
374.1
382.981
392.02
401.112
410.146
419.013
427.612
435.852
443.654
450.951
457.686
463.811
469.287
474.076
478.145
481.461
483.992
485.703
486.563
486.543
485.62
483.779
481.026
477.401
473.084
468.143
462.639
456.639
450.222
443.466
436.45
429.25
421.935
414.566
407.194
399.865
392.612
385.461
378.427
371.515
364.713
357.986
351.261
344.409
337.198
329.229
319.873
308.261
293.496
275.117
253.612
230.472
207.62
186.624
168.266
152.603
139.303
127.941
118.166
109.728
102.446
96.1761
90.7801
86.1243
82.0819
78.5389
75.3983
72.5812
70.0254
67.6835
65.5197
63.5067
61.6238
59.8547
58.1862
56.6068
55.1065
53.676
52.3067
50.9902
49.7188
48.485
47.282
46.1037
44.9445
43.7994
42.6643
41.5356
40.4104
39.2862
38.1609
37.0327
35.9001
34.7614
33.6153
32.4606
31.2959
30.1205
28.9337
27.7355
26.5265
25.3082
24.0832
22.8548
21.6278
20.4077
19.2012
18.0153
16.8579
15.7368
14.6595
13.6332
12.664
11.757
10.9158
10.1429
9.43924
8.80432
8.2365
7.73303
7.29032
6.90415
6.56987
6.28262
6.03749
5.82968
5.65459
5.5079
5.38565
5.28424
5.20047
5.1315
5.07488
5.02847
4.99048
4.95936
4.93384
4.91285
4.89551
4.8811
4.86903
4.85882
4.85011
4.84257
4.83597
4.83011
4.82485
4.82007
4.81572
4.81175
4.80817
4.80505
4.80253
4.80082
4.80024
4.8012
4.80412
174.556
163.271
161.054
165.636
174.446
185.961
199.186
213.373
227.905
242.266
256.047
268.959
280.844
291.659
301.465
310.396
318.629
326.36
333.776
341.04
348.278
355.579
362.985
370.504
378.108
385.745
393.34
400.811
408.067
415.02
421.585
427.685
433.255
438.236
442.582
446.255
449.223
451.465
452.96
453.694
453.658
452.845
451.256
448.898
445.789
441.967
437.502
432.634
427.423
421.936
416.244
410.419
404.536
398.666
392.877
387.23
381.779
376.569
371.636
367.006
362.69
358.688
354.973
351.486
348.111
344.648
340.759
335.902
329.268
319.788
306.344
288.27
265.928
240.89
215.406
191.505
170.386
152.365
137.205
124.466
113.726
104.655
97.0004
90.5532
85.1245
80.5386
76.6345
73.2717
70.3331
67.7253
65.3764
63.2328
61.255
59.4147
57.6911
56.0692
54.5373
53.0864
51.7088
50.3974
49.1459
47.948
46.7975
45.6885
44.615
43.5714
42.5524
41.5531
40.569
39.5961
38.631
37.6705
36.7119
35.7528
34.7911
33.8247
32.8516
31.8698
30.8775
29.8727
28.8537