/*--------------------------------*- C++ -*----------------------------------*\
  =========                 |
  \\      /  F ield         | OpenFOAM: The Open Source CFD Toolbox
   \\    /   O peration     | Website:  https://openfoam.org
    \\  /    A nd           | Version:  9
     \\/     M anipulation  |
\*---------------------------------------------------------------------------*/
FoamFile
{
    format      ascii;
    class       volScalarField;
    location    "0.02";
    object      k;
}
// * * * * * * * * * * * * * * * * * * * * * * * * * * * * * * * * * * * * * //

dimensions      [0 2 -2 0 0 0 0];

internalField   nonuniform List<scalar> 
12225
(
0.353883
0.334946
0.316834
0.300829
0.288042
0.278937
0.273531
0.27155
0.272557
0.276057
0.281555
0.288605
0.296829
0.305932
0.315721
0.326097
0.337309
0.354522
0.436651
0.448606
0.437824
0.43312
0.439385
0.455005
0.477361
0.504033
0.53306
0.562985
0.592818
0.621961
0.650144
0.677375
0.704052
0.730695
0.760429
0.792034
0.395152
0.410727
0.410417
0.405566
0.401948
0.401072
0.403086
0.407743
0.414652
0.42339
0.433565
0.444854
0.457025
0.469955
0.483697
0.498484
0.515285
0.534812
0.379625
0.384794
0.386485
0.385669
0.383862
0.382028
0.380652
0.379957
0.380023
0.380849
0.382399
0.384628
0.387503
0.391029
0.395273
0.400397
0.406776
0.41476
0.374974
0.375889
0.376214
0.375682
0.374521
0.373034
0.371461
0.369967
0.368656
0.367588
0.366795
0.366296
0.366109
0.366262
0.366805
0.367826
0.369474
0.371857
0.37349
0.37255
0.37174
0.370772
0.369582
0.368213
0.36674
0.365232
0.363749
0.362335
0.361024
0.359842
0.358811
0.357959
0.357321
0.356944
0.356892
0.357198
0.373015
0.371294
0.369798
0.368387
0.366981
0.365549
0.364092
0.362623
0.361164
0.359735
0.358358
0.357049
0.355829
0.354717
0.353738
0.352923
0.352305
0.351894
0.372868
0.370839
0.368994
0.367286
0.365671
0.364117
0.362604
0.361125
0.35968
0.358273
0.356914
0.35561
0.354375
0.353222
0.35217
0.351237
0.350443
0.349797
0.372824
0.370683
0.368685
0.366817
0.365061
0.363398
0.361811
0.36029
0.358829
0.357424
0.356077
0.354791
0.353572
0.35243
0.351376
0.350423
0.349584
0.348867
0.37281
0.370632
0.368575
0.366634
0.364802
0.363068
0.361423
0.359859
0.358369
0.356949
0.355598
0.354317
0.353108
0.351976
0.35093
0.349978
0.349127
0.348387
0.372805
0.370615
0.368537
0.366568
0.364701
0.362931
0.361251
0.359657
0.358143
0.356706
0.355344
0.354057
0.352846
0.351716
0.350671
0.349715
0.348855
0.348098
0.372803
0.370609
0.368525
0.366546
0.364668
0.362883
0.361189
0.35958
0.358052
0.356604
0.355233
0.353939
0.352724
0.351589
0.350537
0.349573
0.3487
0.347925
0.372802
0.370606
0.36852
0.366538
0.364655
0.362865
0.361165
0.359549
0.358015
0.35656
0.355184
0.353885
0.352664
0.351523
0.350464
0.349488
0.3486
0.347804
0.372801
0.370603
0.368516
0.366534
0.36465
0.362859
0.361157
0.35954
0.358004
0.356548
0.35517
0.353868
0.352644
0.351497
0.350429
0.349441
0.348534
0.347716
0.3728
0.370601
0.368514
0.366532
0.364648
0.362858
0.361157
0.359542
0.358008
0.356553
0.355175
0.353874
0.352648
0.351498
0.350423
0.349423
0.348499
0.347657
0.372799
0.370599
0.368512
0.36653
0.364647
0.362859
0.361161
0.359548
0.358017
0.356565
0.35519
0.353891
0.352666
0.351513
0.350432
0.349422
0.348483
0.347622
0.372798
0.370597
0.36851
0.366528
0.364647
0.36286
0.361165
0.359555
0.358028
0.35658
0.355209
0.353912
0.352688
0.351534
0.350449
0.349431
0.34848
0.347601
0.372796
0.370595
0.368507
0.366526
0.364646
0.362862
0.361169
0.359563
0.35804
0.356597
0.35523
0.353936
0.352713
0.351559
0.35047
0.349446
0.348483
0.347591
0.372795
0.370593
0.368505
0.366525
0.364646
0.362865
0.361176
0.359574
0.358055
0.356616
0.355253
0.353962
0.352741
0.351586
0.350495
0.349465
0.348495
0.34759
0.372794
0.370592
0.368504
0.366525
0.364649
0.362871
0.361185
0.359587
0.358072
0.356637
0.355278
0.35399
0.35277
0.351616
0.350524
0.34949
0.348514
0.347603
0.372794
0.370592
0.368505
0.366528
0.364655
0.36288
0.361198
0.359604
0.358094
0.356663
0.355307
0.354022
0.352805
0.351652
0.35056
0.349526
0.348548
0.347633
0.372794
0.370593
0.368508
0.366535
0.364667
0.362898
0.361223
0.359637
0.358134
0.35671
0.355361
0.354082
0.35287
0.351722
0.350633
0.3496
0.348622
0.347706
0.372795
0.370598
0.368522
0.366562
0.36471
0.36296
0.361305
0.359739
0.358256
0.35685
0.355516
0.35425
0.353048
0.351906
0.35082
0.349788
0.348808
0.347887
0.372803
0.37063
0.368597
0.366693
0.364902
0.363215
0.361619
0.360104
0.358661
0.357284
0.355968
0.354711
0.353508
0.352357
0.351257
0.350205
0.349201
0.348254
0.372853
0.370817
0.368978
0.36728
0.365674
0.36413
0.362632
0.361172
0.359747
0.358359
0.357012
0.355708
0.35445
0.353239
0.352078
0.350967
0.349906
0.348907
0.373164
0.371764
0.370575
0.369376
0.368066
0.366637
0.365119
0.363557
0.361988
0.360443
0.358944
0.357508
0.356144
0.354857
0.35365
0.352524
0.351477
0.350516
0.374797
0.375824
0.376154
0.375364
0.37379
0.371831
0.369747
0.367692
0.365758
0.363996
0.362432
0.361072
0.359914
0.358948
0.358159
0.357534
0.357055
0.35671
0.382733
0.391671
0.392354
0.388764
0.384316
0.380292
0.377073
0.374736
0.373245
0.37252
0.372463
0.372975
0.373963
0.375339
0.377027
0.37896
0.381081
0.383326
0.407343
0.414176
0.405018
0.395526
0.389966
0.38849
0.390337
0.39467
0.400756
0.408011
0.415993
0.424374
0.432912
0.441431
0.44981
0.457965
0.465864
0.473437
0.360531
0.347488
0.334844
0.322805
0.311831
0.302189
0.293981
0.287195
0.281747
0.277512
0.274352
0.272127
0.270703
0.269954
0.26977
0.270053
0.270717
0.271685
0.243767
0.28342
0.312471
0.331077
0.342866
0.350199
0.35457
0.356911
0.35773
0.357188
0.355302
0.353455
0.355661
0.361646
0.371701
0.386293
0.405529
0.428582
0.45315
0.475178
0.491557
0.501237
0.507927
0.526311
0.576237
0.640062
0.711967
0.78729
0.862558
0.935392
1.00431
1.06848
1.12755
1.18148
1.23038
1.2745
1.31415
1.34964
1.38132
1.40949
1.43449
1.4566
1.47611
1.4933
1.50843
1.52177
1.53357
1.54411
1.55364
1.56244
1.57073
1.578
1.5844
1.59011
1.59525
1.59994
1.60425
1.60828
1.61207
1.61568
1.61912
1.62238
1.62544
1.62823
1.63062
1.63247
1.63355
1.63362
1.63232
1.62927
1.62401
1.61604
1.60482
1.58979
1.57044
1.54634
1.51716
1.48277
1.44324
1.39884
1.35009
1.29772
1.24264
1.18599
1.12935
1.07547
1.02934
0.99538
0.965044
0.935872
0.907585
0.880176
0.85367
0.828079
0.803394
0.779593
0.75664
0.734494
0.71311
0.692442
0.672447
0.653085
0.634318
0.616117
0.598455
0.581311
0.564673
0.548531
0.532885
0.517738
0.503101
0.488991
0.475429
0.462443
0.45006
0.438315
0.427238
0.416859
0.407205
0.398294
0.390127
0.38268
0.375898
0.369705
0.364034
0.358842
0.354099
0.349778
0.345851
0.342286
0.339053
0.336121
0.333462
0.331048
0.328853
0.326856
0.325038
0.323381
0.321869
0.320491
0.319234
0.318087
0.317042
0.31609
0.315223
0.314434
0.313717
0.313064
0.312472
0.311933
0.311444
0.310998
0.310593
0.310223
0.309885
0.309574
0.309287
0.309021
0.308771
0.308535
0.308309
0.308088
0.307869
0.307646
0.307415
0.307169
0.3069
0.306597
0.306249
0.305839
0.305344
0.304736
0.303973
0.302997
0.301725
0.300024
0.297712
0.294387
0.289815
0.281503
0.427765
0.519223
0.576691
0.614468
0.641157
0.662557
0.682459
0.703498
0.727639
0.756621
0.792557
0.83911
0.892044
0.955795
1.03499
1.13327
1.25144
1.38636
1.52968
1.64827
1.73607
1.78977
1.81041
1.80439
1.78057
1.74684
1.7099
1.67441
1.64358
1.61945
1.60313
1.59497
1.59477
1.6019
1.61547
1.63447
1.65779
1.6844
1.7133
1.74362
1.77462
1.8057
1.8364
1.86637
1.89538
1.92331
1.95011
1.97585
2.00063
2.02466
2.04728
2.06932
2.09101
2.11257
2.13421
2.15615
2.17863
2.20186
2.22606
2.25141
2.27808
2.3062
2.33585
2.36703
2.3997
2.43369
2.46874
2.50442
2.54014
2.57514
2.60842
2.63879
2.66483
2.685
2.69767
2.70128
2.69442
2.67605
2.64558
2.60299
2.54882
2.48419
2.41061
2.32992
2.24404
2.15477
2.06473
1.98115
1.90034
1.82189
1.74597
1.67277
1.60239
1.53485
1.47011
1.40808
1.34862
1.29159
1.23686
1.18428
1.1337
1.08499
1.03805
0.992751
0.949005
0.906726
0.86584
0.826286
0.788013
0.75098
0.715157
0.680521
0.647061
0.614772
0.583656
0.553724
0.52499
0.497474
0.471198
0.446187
0.422474
0.40009
0.379061
0.359398
0.341128
0.324256
0.308773
0.294671
0.28189
0.27035
0.259971
0.250673
0.242379
0.23501
0.228491
0.222749
0.217715
0.213321
0.209503
0.206202
0.20336
0.200927
0.198852
0.197092
0.195608
0.194361
0.193321
0.192459
0.191748
0.191167
0.190697
0.19032
0.190021
0.189789
0.189612
0.189481
0.189389
0.18933
0.189298
0.189289
0.189299
0.189328
0.189373
0.189434
0.189512
0.189609
0.189727
0.189872
0.19005
0.190273
0.190555
0.190917
0.191393
0.192032
0.192915
0.194181
0.196054
0.199076
0.203774
0.214459
0.540891
0.651296
0.739292
0.802991
0.851497
0.892559
0.932306
0.975844
1.02789
1.09367
1.17565
1.26749
1.37387
1.49344
1.62226
1.75475
1.87934
1.98177
2.04915
2.07408
2.0601
2.01702
1.9573
1.89295
1.83347
1.78512
1.75142
1.73373
1.73194
1.74486
1.77054
1.80655
1.85019
1.89875
1.94975
2.00106
2.05106
2.09861
2.14305
2.1841
2.22175
2.25618
2.28766
2.31648
2.34292
2.36724
2.38966
2.41037
2.42951
2.44724
2.46325
2.47778
2.49107
2.50339
2.51508
2.52654
2.5382
2.55052
2.56396
2.57897
2.59601
2.61546
2.63768
2.66295
2.69146
2.72328
2.75834
2.79637
2.83691
2.87921
2.92221
2.96452
3.0044
3.03982
3.06854
3.08824
3.09673
3.09218
3.07329
3.03948
2.99095
2.92864
2.85411
2.76931
2.67637
2.57709
2.47776
2.38167
2.28754
2.19556
2.10616
2.01966
1.93626
1.85603
1.77895
1.70494
1.63388
1.56562
1.5
1.43686
1.37604
1.3174
1.26081
1.20613
1.15326
1.10209
1.05256
1.00457
0.958065
0.912998
0.869327
0.82702
0.786055
0.746421
0.708113
0.671133
0.635492
0.601204
0.568288
0.536766
0.506664
0.478003
0.450787
0.425011
0.400678
0.377792
0.356349
0.336321
0.317701
0.300486
0.284669
0.270216
0.257066
0.245153
0.234408
0.224758
0.216129
0.208447
0.201637
0.195627
0.190344
0.185721
0.181693
0.178198
0.175178
0.172578
0.170351
0.16845
0.166833
0.165464
0.164309
0.163339
0.162526
0.161847
0.161282
0.160813
0.160425
0.160105
0.15984
0.159622
0.159442
0.159294
0.159172
0.15907
0.158986
0.158917
0.158859
0.158812
0.158775
0.158748
0.158732
0.15873
0.158749
0.158799
0.1589
0.159097
0.159457
0.16019
0.161538
0.164921
0.61376
0.787873
0.926004
1.02022
1.09006
1.14929
1.20783
1.27388
1.35429
1.44447
1.53989
1.64126
1.74599
1.84865
1.94167
2.0162
2.06386
2.0796
2.06402
2.02357
1.96891
1.9115
1.86114
1.8247
1.80601
1.80626
1.82468
1.85915
1.9068
1.96436
2.02858
2.09638
2.16512
2.23266
2.29739
2.35827
2.41473
2.46659
2.51395
2.55706
2.59623
2.63176
2.66391
2.69282
2.71859
2.74122
2.76066
2.77684
2.78968
2.79904
2.80463
2.80657
2.80509
2.80054
2.79338
2.78418
2.77359
2.76238
2.75135
2.74135
2.73325
2.7279
2.72611
2.72862
2.73608
2.74899
2.76769
2.79231
2.82271
2.85843
2.89861
2.94194
2.98666
3.03051
3.07085
3.10479
3.12941
3.14206
3.14062
3.12374
3.09097
3.04279
2.98042
2.90566
2.82057
2.72788
2.63512
2.54223
2.44978
2.35854
2.26913
2.18202
2.0975
2.01571
1.93671
1.86045
1.78687
1.71585
1.64727
1.58101
1.51692
1.45489
1.39481
1.33657
1.28007
1.22523
1.17197
1.12023
1.06996
1.02111
0.973647
0.927542
0.882777
0.839345
0.797245
0.756482
0.71707
0.679029
0.642383
0.60716
0.573391
0.541104
0.510322
0.481067
0.453353
0.427192
0.40259
0.37954
0.35803
0.338035
0.319512
0.302422
0.286742
0.272435
0.259432
0.247662
0.237049
0.227518
0.218991
0.21139
0.204642
0.198671
0.193408
0.188785
0.184737
0.181205
0.178133
0.175468
0.173164
0.171176
0.169464
0.167995
0.166734
0.165655
0.164731
0.16394
0.163263
0.162683
0.162185
0.161757
0.161386
0.161065
0.160784
0.160538
0.16032
0.160126
0.159951
0.159793
0.159648
0.159514
0.159391
0.159277
0.159175
0.159086
0.159019
0.158992
0.159033
0.159225
0.15963
0.160658
0.614539
0.941743
1.14672
1.27098
1.35823
1.42939
1.49733
1.5684
1.63851
1.70971
1.78188
1.85176
1.91439
1.96432
1.99668
2.00841
1.99936
1.97301
1.93601
1.89674
1.86349
1.8428
1.83872
1.85278
1.88448
1.93184
1.99208
2.06208
2.13876
2.21925
2.30106
2.38212
2.46084
2.53609
2.6072
2.67386
2.73605
2.7939
2.84763
2.89741
2.94337
2.98552
3.02376
3.05789
3.08763
3.11266
3.13264
3.14726
3.15625
3.15905
3.15536
3.14513
3.12847
3.10563
3.07705
3.04332
3.00522
2.96372
2.91993
2.87512
2.83065
2.78796
2.74851
2.71374
2.685
2.66351
2.65032
2.64618
2.65158
2.66656
2.69072
2.7231
2.76209
2.80547
2.85038
2.89351
2.93129
2.96027
2.97739
2.98043
2.9681
2.94019
2.89738
2.84109
2.77325
2.69961
2.62255
2.54322
2.46278
2.38219
2.30222
2.22341
2.14612
2.07059
1.99693
1.92519
1.85536
1.78741
1.72128
1.65689
1.5942
1.53311
1.47358
1.41552
1.3589
1.30367
1.24976
1.19716
1.14582
1.09573
1.04686
0.999212
0.952769
0.907537
0.863527
0.820753
0.779239
0.739014
0.700112
0.662573
0.626436
0.591745
0.558539
0.526858
0.496736
0.4682
0.44127
0.415958
0.392264
0.370177
0.349672
0.330715
0.313254
0.297238
0.282632
0.269371
0.257378
0.246575
0.236881
0.228214
0.220493
0.21364
0.207578
0.202234
0.197537
0.193421
0.189825
0.186693
0.18397
0.181608
0.179565
0.177799
0.176275
0.174961
0.173828
0.172852
0.17201
0.171283
0.170653
0.170107
0.169631
0.169214
0.168848
0.168524
0.168235
0.167975
0.16774
0.167524
0.167325
0.167139
0.166965
0.166798
0.16664
0.166491
0.166353
0.166237
0.166157
0.166157
0.166261
0.166639
0.633867
1.13152
1.38012
1.52717
1.62559
1.69868
1.7543
1.79784
1.83662
1.87264
1.90478
1.93035
1.94642
1.951
1.94379
1.9266
1.90331
1.87927
1.86035
1.85182
1.85747
1.87921
1.91714
1.96996
2.03549
2.11113
2.1942
2.28217
2.37277
2.46405
2.55441
2.64264
2.72793
2.80976
2.88794
2.96241
3.03325
3.10054
3.1643
3.22446
3.28082
3.33309
3.38083
3.42353
3.46062
3.49152
3.51561
3.53236
3.54125
3.54124
3.53208
3.51356
3.48556
3.44813
3.40148
3.34604
3.28248
3.21171
3.13491
3.05352
2.96924
2.884
2.7999
2.71916
2.64403
2.57672
2.51925
2.47338
2.44047
2.42142
2.4165
2.42531
2.44666
2.47851
2.51803
2.56166
2.60536
2.64498
2.67663
2.69713
2.70436
2.69725
2.67585
2.64106
2.59673
2.54551
2.4892
2.42928
2.36695
2.3032
2.23876
2.17418
2.10985
2.04604
1.98291
1.92058
1.85912
1.79856
1.73893
1.68024
1.62249
1.56567
1.50979
1.45484
1.40082
1.34774
1.29558
1.24435
1.19405
1.1447
1.09628
1.04883
1.00235
0.956859
0.912386
0.86896
0.826617
0.785399
0.745353
0.706529
0.668985
0.632777
0.597962
0.5646
0.532742
0.502437
0.473726
0.446639
0.421196
0.397402
0.375251
0.354722
0.335779
0.318373
0.302445
0.287948
0.274816
0.26297
0.252325
0.242798
0.234303
0.226756
0.220075
0.21418
0.208996
0.204451
0.200478
0.197015
0.194002
0.191388
0.189124
0.187166
0.185476
0.184017
0.182759
0.181674
0.180738
0.179928
0.179227
0.178618
0.178088
0.177624
0.177215
0.176854
0.176532
0.176242
0.17598
0.17574
0.175518
0.17531
0.175114
0.174926
0.174746
0.174571
0.174405
0.174251
0.17412
0.174037
0.174019
0.17416
0.669638
1.30114
1.58466
1.75097
1.85225
1.91007
1.9417
1.95774
1.96452
1.96513
1.96057
1.95086
1.9362
1.91767
1.89756
1.87916
1.86632
1.86283
1.87173
1.89489
1.93289
1.9851
2.05002
2.12566
2.2098
2.30025
2.39495
2.49208
2.59005
2.68761
2.78378
2.8779
2.96956
3.05856
3.14482
3.22833
3.30906
3.38692
3.4617
3.53309
3.60061
3.66371
3.72171
3.77386
3.81938
3.85745
3.88727
3.90809
3.91921
3.91933
3.9083
3.88581
3.85154
3.80531
3.74706
3.67695
3.59535
3.50291
3.40056
3.28961
3.17169
3.04882
2.92341
2.79818
2.67612
2.56038
2.4541
2.36024
2.28138
2.21953
2.17593
2.15093
2.14387
2.1531
2.17596
2.20893
2.24778
2.28797
2.32504
2.35509
2.37527
2.3837
2.37997
2.36559
2.34268
2.31299
2.27801
2.23896
2.19685
2.15244
2.10634
2.059
2.01073
1.96177
1.91231
1.86248
1.81239
1.76215
1.71183
1.66152
1.61128
1.56118
1.51129
1.46166
1.41235
1.36341
1.31488
1.26682
1.21926
1.17224
1.1258
1.07998
1.03482
0.990362
0.946642
0.903709
0.861616
0.820417
0.780174
0.740951
0.70282
0.665854
0.630129
0.59572
0.562702
0.531146
0.501113
0.472658
0.445822
0.420633
0.397104
0.375232
0.355
0.336372
0.3193
0.303722
0.289589
0.276823
0.265342
0.25506
0.24589
0.237742
0.230531
0.22417
0.218579
0.21368
0.209401
0.205674
0.202436
0.19963
0.197202
0.195107
0.193299
0.191743
0.190403
0.189249
0.188255
0.187398
0.186657
0.186016
0.185459
0.184972
0.184546
0.184169
0.183835
0.183535
0.183264
0.183017
0.182789
0.182576
0.182375
0.182182
0.181996
0.181816
0.181642
0.181477
0.181329
0.181215
0.181151
0.181198
0.708632
1.41062
1.72122
1.89582
1.99491
2.04525
2.06326
2.06009
2.04369
2.01963
1.99171
1.96273
1.9352
1.91171
1.89502
1.88784
1.8925
1.9106
1.94286
1.98907
2.04826
2.11896
2.19936
2.28757
2.38174
2.48013
2.58119
2.68357
2.7862
2.88823
2.98909
3.08841
3.18597
3.28168
3.37547
3.46726
3.55689
3.6441
3.72848
3.80951
3.88654
3.95879
4.02543
4.08554
4.13818
4.18239
4.21723
4.24177
4.25518
4.25636
4.24523
4.22143
4.18455
4.13425
4.07028
3.99253
3.90112
3.79636
3.67886
3.54957
3.40979
3.26128
3.10625
2.94741
2.78795
2.63151
2.48202
2.3435
2.21977
2.11415
2.0291
1.96591
1.92454
1.90373
1.9011
1.91334
1.9364
1.96576
1.99689
2.02546
2.04846
2.06324
2.06964
2.06858
2.06109
2.04828
2.03111
2.0104
1.98676
1.96068
1.93247
1.90238
1.87058
1.83721
1.80237
1.76619
1.72877
1.69023
1.65069
1.61025
1.56905
1.52719
1.4848
1.44199
1.39885
1.35548
1.31197
1.26842
1.22489
1.18146
1.13821
1.09518
1.05246
1.01009
0.968146
0.926682
0.885767
0.84547
0.805865
0.76703
0.729049
0.692012
0.65601
0.621137
0.587489
0.555157
0.524228
0.494779
0.466878
0.440576
0.415911
0.392903
0.371553
0.351844
0.333745
0.317204
0.302163
0.288561
0.276318
0.265349
0.255563
0.246869
0.239178
0.232398
0.226445
0.221235
0.21669
0.212738
0.209311
0.206346
0.203787
0.201583
0.199687
0.198059
0.196661
0.195461
0.194431
0.193546
0.192784
0.192127
0.191558
0.191064
0.190632
0.190253
0.189918
0.189619
0.18935
0.189105
0.18888
0.188671
0.188473
0.188285
0.188104
0.187928
0.187757
0.187596
0.187449
0.18733
0.187255
0.18727
0.727991
1.4459
1.76826
1.95239
2.05754
2.10958
2.1246
2.11429
2.08804
2.05351
2.01679
1.98268
1.95492
1.93651
1.92978
1.93634
1.95705
1.992
2.0406
2.10173
2.17393
2.25554
2.34485
2.44022
2.54006
2.64298
2.74774
2.85335
2.95902
3.06419
3.16849
3.2717
3.3737
3.47441
3.57374
3.67153
3.76749
3.86125
3.95227
4.03987
4.12328
4.20161
4.2739
4.33912
4.39624
4.4442
4.482
4.50862
4.52292
4.52458
4.51348
4.48928
4.45154
4.39985
4.33389
4.2534
4.1583
4.04868
3.92485
3.78743
3.63735
3.47596
3.30504
3.12692
2.94447
2.76121
2.58122
2.409
2.24923
2.10635
1.98418
1.88513
1.80982
1.75734
1.72555
1.71139
1.71133
1.72129
1.73717
1.75462
1.77022
1.78243
1.79051
1.79451
1.79484
1.79205
1.78662
1.77895
1.76926
1.75766
1.74417
1.72876
1.7114
1.69205
1.67072
1.64742
1.62223
1.59522
1.56649
1.53618
1.50442
1.47134
1.43708
1.40178
1.36558
1.3286
1.29096
1.25278
1.21416
1.1752
1.136
1.09664
1.0572
1.01777
0.978417
0.939223
0.900265
0.861623
0.823381
0.785628
0.74846
0.711976
0.676283
0.64149
0.607712
0.575059
0.543641
0.513561
0.484911
0.457771
0.432203
0.408254
0.385948
0.365292
0.34627
0.32885
0.31298
0.298606
0.285654
0.274041
0.263678
0.254474
0.246333
0.239164
0.232875
0.227378
0.222592
0.218436
0.21484
0.211737
0.209065
0.20677
0.204802
0.203117
0.201676
0.200443
0.199389
0.198487
0.197715
0.197051
0.19648
0.195985
0.195556
0.195181
0.194851
0.194559
0.194296
0.194059
0.193842
0.193641
0.193453
0.193273
0.193101
0.192935
0.192775
0.192623
0.192487
0.192377
0.192309
0.19232
0.73023
1.42276
1.74591
1.93654
2.05052
2.11125
2.13328
2.12783
2.10467
2.07249
2.0387
2.00921
1.98839
1.97929
1.98373
2.00256
2.03576
2.08267
2.14217
2.21284
2.2931
2.38135
2.47601
2.57559
2.67873
2.78422
2.89105
2.99842
3.10572
3.21254
3.31863
3.42383
3.52806
3.63124
3.73325
3.83387
3.93278
4.02951
4.12346
4.2139
4.29998
4.38075
4.45518
4.52221
4.58073
4.62964
4.66784
4.69428
4.70784
4.70877
4.69696
4.67214
4.63393
4.58197
4.51588
4.4354
4.34033
4.23062
4.10639
3.96798
3.81606
3.65163
3.47606
3.29114
3.09923
2.90333
2.70715
2.51505
2.33185
2.16253
2.012
1.88413
1.77997
1.69892
1.63907
1.5976
1.57176
1.55855
1.55391
1.55459
1.55791
1.56193
1.56555
1.56829
1.5701
1.57109
1.57138
1.57099
1.56983
1.56769
1.56433
1.55948
1.55291
1.54441
1.53385
1.52115
1.50628
1.48926
1.47016
1.44906
1.42608
1.40134
1.37498
1.34714
1.31794
1.28753
1.25604
1.22359
1.19031
1.15629
1.12166
1.08652
1.05094
1.01504
0.978887
0.942575
0.906187
0.86981
0.833536
0.797458
0.76168
0.726307
0.691457
0.65725
0.623813
0.591275
0.559766
0.529411
0.500328
0.472623
0.446387
0.421693
0.398595
0.377122
0.357282
0.339063
0.32243
0.307333
0.293712
0.281487
0.270573
0.260879
0.252308
0.244764
0.238154
0.232384
0.227367
0.223021
0.219268
0.216037
0.213262
0.210886
0.208855
0.207122
0.205645
0.204386
0.203315
0.202402
0.201624
0.200958
0.200388
0.199898
0.199475
0.199107
0.198785
0.198501
0.198248
0.19802
0.197813
0.197622
0.197444
0.197275
0.197114
0.196959
0.196812
0.196674
0.196551
0.196455
0.196401
0.19642
0.712939
1.35804
1.67253
1.86595
1.98947
2.06324
2.09951
2.10801
2.0978
2.07744
2.05463
2.03571
2.0254
2.0268
2.04159
2.07033
2.11272
2.16788
2.23456
2.31131
2.3966
2.4889
2.58674
2.68872
2.7936
2.90029
3.00789
3.11568
3.22317
3.33
3.43596
3.54093
3.64484
3.74762
3.84912
3.94914
4.04732
4.14321
4.23619
4.32554
4.41041
4.48985
4.56285
4.62831
4.68514
4.73216
4.76823
4.79219
4.80337
4.80215
4.78853
4.76236
4.72339
4.67132
4.60584
4.52668
4.43364
4.32657
4.20548
4.0705
3.92206
3.76104
3.5885
3.40576
3.21461
3.01748
2.81747
2.61842
2.42477
2.24108
2.07249
1.92512
1.79953
1.69545
1.61133
1.54497
1.49427
1.45713
1.4313
1.41436
1.40388
1.39779
1.39454
1.39322
1.3933
1.3945
1.39661
1.39935
1.4024
1.40536
1.40779
1.4093
1.40952
1.40813
1.40492
1.39971
1.39241
1.38298
1.37141
1.35776
1.3421
1.3245
1.30507
1.28393
1.26119
1.23697
1.21138
1.18455
1.1566
1.12762
1.09773
1.06703
1.03561
1.00356
0.970989
0.937966
0.904583
0.870928
0.837091
0.803167
0.76926
0.735479
0.701943
0.668779
0.636122
0.604113
0.572898
0.54262
0.513419
0.485428
0.458765
0.433532
0.40981
0.387657
0.367109
0.348173
0.330838
0.315067
0.300811
0.287999
0.276552
0.266379
0.257386
0.249475
0.242548
0.23651
0.231267
0.226734
0.222827
0.219472
0.216599
0.214146
0.212055
0.210277
0.208767
0.207486
0.206399
0.205477
0.204695
0.204029
0.203462
0.202976
0.202559
0.202198
0.201885
0.201609
0.201365
0.201147
0.200949
0.200768
0.200599
0.20044
0.20029
0.200146
0.200011
0.199886
0.199778
0.199697
0.199658
0.199688
0.680003
1.26701
1.56674
1.75981
1.89201
1.98033
2.03447
2.06219
2.07098
2.06837
2.06152
2.05662
2.05849
2.07042
2.09428
2.13074
2.17965
2.24024
2.31136
2.39168
2.47978
2.57421
2.67356
2.77651
2.88185
2.98851
3.09562
3.2025
3.30868
3.41382
3.5177
3.62021
3.72126
3.82079
3.91868
4.01473
4.10863
4.19996
4.28817
4.37259
4.45244
4.52682
4.5948
4.65534
4.70736
4.74975
4.7813
4.80075
4.80791
4.80318
4.78668
4.75838
4.71815
4.66581
4.60114
4.52392
4.43397
4.33113
4.21532
4.08647
3.9445
3.79075
3.62612
3.45141
3.26796
3.07768
2.8831
2.68746
2.49468
2.30921
2.13565
1.97792
1.83804
1.71629
1.61172
1.52311
1.44965
1.39083
1.34575
1.31281
1.2898
1.27446
1.26484
1.25951
1.25746
1.25798
1.26051
1.2645
1.26944
1.2748
1.28005
1.28475
1.28851
1.29098
1.29193
1.29117
1.28858
1.28409
1.27767
1.26931
1.25905
1.24693
1.23301
1.21736
1.20006
1.1812
1.16087
1.13915
1.11615
1.09195
1.06665
1.04033
1.01309
0.985004
0.956158
0.926632
0.896508
0.865867
0.834794
0.803379
0.771719
0.739919
0.708094
0.676373
0.64489
0.613794
0.583238
0.55338
0.524378
0.496385
0.469545
0.443989
0.419825
0.397142
0.376003
0.356443
0.338473
0.322078
0.30722
0.293843
0.281876
0.271232
0.26182
0.253541
0.246296
0.239987
0.234517
0.229794
0.225732
0.222252
0.219279
0.216747
0.214595
0.212772
0.211228
0.209923
0.208821
0.207889
0.207102
0.206435
0.205869
0.205386
0.204974
0.204619
0.204311
0.204042
0.203805
0.203594
0.203403
0.203229
0.203068
0.202917
0.202775
0.202641
0.202515
0.202401
0.202305
0.202237
0.202211
0.202251
0.639834
1.16166
1.44431
1.63462
1.77369
1.87581
1.94841
1.99716
2.02766
2.04584
2.05771
2.06884
2.08387
2.10626
2.13819
2.18073
2.23409
2.29784
2.37113
2.45283
2.54168
2.63635
2.73552
2.83796
2.94257
3.0479
3.15309
3.25756
3.36082
3.46252
3.5624
3.66032
3.75619
3.84991
3.9414
4.03048
4.11691
4.20035
4.28033
4.35629
4.42755
4.49337
4.5529
4.60524
4.64944
4.68448
4.70924
4.72243
4.72423
4.71498
4.69484
4.6639
4.62215
4.56949
4.50581
4.43097
4.34483
4.24726
4.1382
4.01766
3.88581
3.74312
3.59017
3.4277
3.25675
3.0788
2.89582
2.71039
2.52575
2.34561
2.17379
2.01349
1.86653
1.73326
1.61332
1.50674
1.41449
1.33781
1.27713
1.2315
1.19884
1.17665
1.1626
1.15476
1.15164
1.15211
1.15523
1.1602
1.1663
1.17291
1.17947
1.18554
1.19075
1.19484
1.19761
1.19892
1.19867
1.19682
1.19334
1.18821
1.18144
1.17305
1.16305
1.15149
1.13839
1.12382
1.10782
1.09044
1.07176
1.05182
1.03071
1.00848
0.985206
0.960954
0.935792
0.909786
0.883004
0.855515
0.827392
0.798713
0.769563
0.740036
0.71024
0.680292
0.650325
0.620484
0.590925
0.561813
0.533317
0.505608
0.47885
0.453198
0.428789
0.40574
0.384143
0.364064
0.345539
0.328576
0.313156
0.299239
0.286764
0.275655
0.265823
0.257173
0.249604
0.243017
0.237312
0.232393
0.228169
0.224557
0.221479
0.218863
0.216647
0.214774
0.213193
0.211861
0.21074
0.209795
0.208999
0.208328
0.20776
0.207277
0.206866
0.206513
0.206209
0.205944
0.20571
0.205503
0.205316
0.205146
0.204989
0.204843
0.204706
0.204577
0.204457
0.204351
0.204263
0.204204
0.204187
0.204234
0.640668
1.05785
1.31804
1.50309
1.64665
1.76041
1.8499
1.91896
1.97131
2.01114
2.04298
2.07139
2.10055
2.13396
2.17403
2.22199
2.27859
2.34388
2.4174
2.49836
2.58573
2.67837
2.77506
2.87462
2.97587
3.07766
3.17909
3.27942
3.3781
3.47469
3.56886
3.66041
3.7492
3.83512
3.91807
3.99791
4.07445
4.14745
4.21654
4.2813
4.3412
4.39564
4.44398
4.48547
4.51937
4.54483
4.56097
4.5667
4.56232
4.54808
4.52416
4.49068
4.44772
4.39527
4.33329
4.2617
4.18038
4.08926
3.98824
3.87734
3.75663
3.62636
3.48691
3.33883
3.18291
3.02028
2.85245
2.68144
2.50978
2.34035
2.17603
2.01903
1.87045
1.73048
1.59953
1.47934
1.37297
1.28338
1.21198
1.1581
1.1196
1.09372
1.07774
1.06936
1.06669
1.0682
1.07264
1.07893
1.08621
1.09377
1.10103
1.10761
1.1132
1.11763
1.12078
1.1226
1.12308
1.1222
1.11998
1.11642
1.11153
1.10532
1.0978
1.08897
1.07885
1.06744
1.05476
1.04083
1.02569
1.00935
0.991863
0.97326
0.953585
0.932883
0.911199
0.888581
0.865077
0.840739
0.815621
0.789784
0.763297
0.736238
0.708698
0.680781
0.652608
0.624316
0.596054
0.567989
0.540293
0.513148
0.486733
0.461221
0.436776
0.41354
0.391636
0.371159
0.352174
0.334713
0.318779
0.304353
0.291388
0.27982
0.269568
0.260541
0.25264
0.245765
0.239814
0.234688
0.230292
0.226539
0.223347
0.22064
0.218352
0.216423
0.2148
0.213435
0.212289
0.211327
0.210518
0.209838
0.209263
0.208777
0.208363
0.208008
0.207703
0.207437
0.207203
0.206995
0.206809
0.206639
0.206482
0.206337
0.206201
0.206073
0.205957
0.205853
0.205769
0.205715
0.205703
0.205752
0.620952
0.95269
1.19415
1.37367
1.51979
1.64254
1.74633
1.83338
1.9059
1.96656
2.01841
2.0648
2.10901
2.15404
2.20225
2.25532
2.31435
2.37988
2.45191
2.53007
2.61369
2.70191
2.79371
2.88803
2.98378
3.07992
3.17552
3.2698
3.3621
3.45189
3.53877
3.62244
3.70269
3.77937
3.85235
3.92152
3.98673
4.0478
4.10449
4.1565
4.20347
4.24497
4.28055
4.30968
4.33183
4.34642
4.35283
4.35033
4.33928
4.31985
4.2922
4.25647
4.21276
4.16111
4.10151
4.0339
3.95819
3.87427
3.78205
3.68148
3.57257
3.45543
3.3303
3.1976
3.0579
2.91208
2.76126
2.60697
2.45104
2.2954
2.14177
1.99109
1.84355
1.69945
1.56058
1.43097
1.31577
1.21914
1.14276
1.08576
1.04571
1.01954
1.00431
0.997408
0.996658
1.00024
1.00664
1.01461
1.02318
1.03158
1.03929
1.04596
1.05139
1.0555
1.05828
1.05976
1.06
1.05907
1.05702
1.0539
1.04974
1.04456
1.03837
1.03116
1.02294
1.01368
1.00338
0.99203
0.97963
0.966181
0.951687
0.93616
0.919614
0.902069
0.883546
0.864068
0.843662
0.822358
0.800189
0.777195
0.753424
0.728932
0.70379
0.678084
0.651917
0.625409
0.598701
0.571948
0.545323
0.519007
0.49319
0.46806
0.443796
0.420568
0.398524
0.377788
0.358454
0.340579
0.324193
0.309298
0.295869
0.283854
0.273185
0.263776
0.255534
0.248359
0.242149
0.236802
0.232222
0.228316
0.224998
0.22219
0.219822
0.217828
0.216154
0.21475
0.213574
0.212588
0.211761
0.211066
0.210481
0.209986
0.209564
0.209204
0.208893
0.208622
0.208384
0.208172
0.207982
0.207808
0.207648
0.207499
0.207361
0.207231
0.207113
0.207009
0.206926
0.206871
0.20686
0.206907
0.599516
0.863113
1.07867
1.25003
1.39617
1.52478
1.63918
1.74095
1.83121
1.91121
1.98254
2.04717
2.10728
2.16509
2.22262
2.28161
2.34339
2.40886
2.47853
2.55248
2.6305
2.71211
2.7966
2.88315
2.97088
3.05886
3.14621
3.23215
3.31595
3.39702
3.47488
3.54913
3.61949
3.68573
3.74769
3.80525
3.85827
3.90663
3.95018
3.98874
4.02211
4.05002
4.07221
4.08839
4.09825
4.10148
4.09784
4.08713
4.06966
4.04552
4.01482
3.97765
3.9341
3.8842
3.82791
3.76518
3.69589
3.61992
3.53712
3.4474
3.35071
3.24708
3.13665
3.0197
2.89667
2.76817
2.63502
2.49819
2.35873
2.21746
2.07466
1.92999
1.78318
1.63553
1.49124
1.35685
1.23896
1.14184
1.06659
1.01172
0.974347
0.951219
0.939215
0.935579
0.937941
0.9443
0.952997
0.962708
0.972429
0.981444
0.989294
0.995726
1.00064
1.00406
1.00604
1.00673
1.00623
1.00468
1.00218
0.998814
0.994652
0.989731
0.98407
0.977672
0.970528
0.962619
0.953921
0.944409
0.934058
0.922847
0.910758
0.897775
0.88389
0.869096
0.85339
0.836772
0.819245
0.800816
0.781495
0.761296
0.740245
0.718373
0.695729
0.672372
0.648385
0.623867
0.598939
0.573745
0.548446
0.52322
0.498256
0.47375
0.449896
0.426881
0.404877
0.384037
0.364476
0.346281
0.329514
0.314199
0.300334
0.287887
0.276802
0.267006
0.25841
0.25092
0.244433
0.238848
0.234065
0.229989
0.226531
0.223608
0.221146
0.219077
0.217343
0.215892
0.214677
0.213661
0.21281
0.212095
0.211493
0.210984
0.210551
0.21018
0.20986
0.20958
0.209334
0.209114
0.208916
0.208735
0.208568
0.208413
0.208269
0.208134
0.208011
0.207903
0.207816
0.207759
0.207743
0.207785
0.614593
0.809397
0.993358
1.15301
1.29557
1.42579
1.54601
1.65726
1.75995
1.85442
1.94117
2.02103
2.09514
2.16486
2.23168
2.29702
2.36216
2.42818
2.49584
2.56562
2.63769
2.71195
2.78808
2.86557
2.94377
3.02199
3.09947
3.17549
3.24936
3.32048
3.38829
3.45237
3.51235
3.56795
3.61895
3.6652
3.70655
3.74292
3.7742
3.80028
3.82109
3.83649
3.84637
3.85063
3.84916
3.84189
3.82884
3.81051
3.78708
3.75859
3.72513
3.68676
3.64352
3.59541
3.54237
3.48431
3.42109
3.35255
3.27853
3.19888
3.1135
3.02239
2.92561
2.82334
2.71586
2.60354
2.48677
2.36586
2.24078
2.11096
1.97525
1.83258
1.68357
1.53216
1.38563
1.25238