/*--------------------------------*- C++ -*----------------------------------*\
  =========                 |
  \\      /  F ield         | OpenFOAM: The Open Source CFD Toolbox
   \\    /   O peration     | Website:  https://openfoam.org
    \\  /    A nd           | Version:  9
     \\/     M anipulation  |
\*---------------------------------------------------------------------------*/
FoamFile
{
    format      ascii;
    class       volScalarField;
    location    "0.02";
    object      nut;
}
// * * * * * * * * * * * * * * * * * * * * * * * * * * * * * * * * * * * * * //

dimensions      [0 2 -1 0 0 0 0];

internalField   nonuniform List<scalar> 
12225
(
4.04724e-05
3.83067e-05
3.62352e-05
3.44049e-05
3.29425e-05
3.19015e-05
3.12836e-05
3.10575e-05
3.11735e-05
3.15748e-05
3.2205e-05
3.3013e-05
3.39557e-05
3.49992e-05
3.61217e-05
3.73115e-05
3.85985e-05
4.05671e-05
0.000280999
0.000209074
0.000176013
0.000157161
0.000145979
0.000139399
0.000135517
0.000133174
0.000131684
0.000130659
0.000129884
0.000129246
0.000128691
0.000128195
0.000127762
0.000127376
0.0001272
0.000126716
0.000556098
0.000419757
0.000349423
0.000304104
0.00027154
0.000246777
0.000227239
0.000211436
0.00019846
0.000187705
0.000178731
0.000171197
0.000164826
0.000159387
0.000154691
0.000150536
0.000146792
0.000142908
0.000740307
0.000625667
0.000543702
0.000484244
0.000438585
0.000401956
0.000371558
0.000345651
0.000323148
0.000303348
0.000285775
0.000270072
0.000255954
0.000243164
0.000231461
0.00022056
0.000210177
0.000199751
0.000817058
0.00075901
0.000700163
0.000647828
0.000602667
0.000563764
0.000529949
0.000500158
0.000473551
0.000449501
0.000427542
0.000407309
0.000388505
0.00037086
0.000354109
0.000337938
0.000321995
0.000305868
0.000842094
0.000819604
0.000789655
0.000757034
0.000724558
0.000693619
0.000664739
0.000637964
0.000613134
0.000590023
0.000568396
0.000548029
0.000528702
0.000510195
0.000492274
0.000474656
0.000457018
0.000439174
0.00084926
0.000841766
0.000829589
0.000813835
0.000795824
0.000776682
0.000757219
0.000737936
0.000719102
0.000700842
0.000683187
0.000666108
0.000649536
0.000633364
0.000617455
0.000601625
0.000585662
0.000569576
0.000851122
0.000848731
0.000844405
0.000838049
0.000829874
0.000820251
0.00080958
0.000798213
0.000786425
0.000774415
0.000762315
0.000750203
0.000738113
0.000726036
0.000713933
0.000701724
0.000689311
0.00067682
0.000851564
0.000850662
0.000849137
0.000846796
0.000843552
0.000839417
0.000834472
0.000828834
0.000822626
0.00081596
0.000808934
0.000801623
0.00079408
0.000786333
0.000778392
0.00077024
0.000761853
0.000753382
0.000851657
0.000851136
0.000850456
0.000849522
0.000848255
0.000846603
0.000844543
0.000842078
0.00083923
0.00083603
0.000832512
0.000828712
0.000824659
0.000820377
0.00081588
0.000811175
0.000806263
0.000801263
0.000851674
0.000851236
0.000850776
0.00085026
0.000849654
0.000848924
0.000848045
0.000846998
0.000845774
0.00084437
0.00084279
0.000841041
0.00083913
0.000837068
0.000834863
0.000832519
0.000830045
0.000827509
0.000851675
0.000851252
0.000850839
0.000850423
0.000849992
0.000849532
0.000849029
0.000848471
0.000847848
0.000847153
0.000846384
0.00084554
0.000844622
0.000843634
0.000842578
0.000841459
0.000840281
0.000839083
0.000851674
0.000851253
0.00085085
0.00085046
0.00085008
0.000849705
0.00084933
0.000848949
0.000848558
0.000848154
0.000847736
0.000847303
0.000846856
0.000846396
0.000845927
0.000845451
0.000844972
0.000844508
0.000851673
0.000851251
0.000850849
0.000850466
0.000850099
0.000849747
0.000849409
0.000849084
0.000848772
0.000848471
0.000848184
0.000847912
0.000847656
0.00084742
0.000847206
0.000847018
0.000846858
0.000846737
0.000851671
0.000851249
0.000850847
0.000850464
0.000850101
0.000849755
0.000849427
0.000849117
0.000848825
0.000848553
0.000848303
0.000848077
0.000847877
0.000847708
0.00084757
0.000847468
0.000847405
0.000847388
0.00085167
0.000851246
0.000850844
0.000850462
0.0008501
0.000849757
0.000849433
0.000849128
0.000848844
0.00084858
0.00084834
0.000848125
0.000847936
0.000847778
0.000847651
0.000847558
0.000847503
0.00084749
0.000851669
0.000851244
0.000850841
0.00085046
0.000850099
0.000849759
0.000849438
0.000849138
0.000848858
0.0008486
0.000848364
0.000848152
0.000847966
0.000847806
0.000847675
0.000847573
0.000847502
0.00084747
0.000851667
0.000851241
0.000850838
0.000850458
0.000850099
0.000849761
0.000849444
0.000849148
0.000848873
0.000848619
0.000848388
0.000848178
0.000847993
0.00084783
0.000847693
0.000847579
0.000847492
0.000847439
0.000851665
0.000851239
0.000850835
0.000850455
0.000850098
0.000849764
0.000849451
0.000849159
0.000848889
0.00084864
0.000848413
0.000848206
0.000848021
0.000847857
0.000847713
0.000847591
0.00084749
0.000847419
0.000851664
0.000851237
0.000850834
0.000850456
0.000850101
0.00084977
0.000849461
0.000849174
0.000848909
0.000848664
0.000848439
0.000848234
0.000848049
0.000847883
0.000847735
0.000847605
0.000847493
0.000847408
0.000851664
0.000851236
0.000850835
0.000850459
0.000850107
0.000849779
0.000849472
0.000849187
0.000848922
0.000848675
0.000848447
0.000848236
0.000848041
0.000847861
0.000847696
0.000847545
0.000847409
0.000847296
0.000851664
0.000851237
0.000850836
0.000850459
0.000850103
0.000849764
0.000849438
0.000849124
0.000848818
0.000848518
0.000848221
0.000847928
0.000847637
0.000847347
0.000847059
0.000846772
0.000846489
0.00084622
0.000851663
0.000851228
0.000850802
0.000850371
0.000849917
0.000849426
0.000848889
0.000848298
0.000847651
0.000846949
0.000846193
0.000845387
0.000844538
0.000843652
0.000842736
0.000841796
0.000840841
0.000839891
0.000851633
0.000851075
0.00085036
0.00084941
0.000848173
0.000846632
0.000844793
0.000842682
0.000840334
0.000837793
0.000835105
0.000832309
0.000829443
0.000826538
0.000823611
0.000820686
0.000817786
0.000814951
0.000851286
0.000849607
0.000846773
0.000842705
0.000837507
0.000831388
0.000824594
0.000817356
0.000809871
0.000802293
0.000794741
0.000787302
0.000780039
0.000772993
0.000766199
0.000759673
0.00075342
0.000747481
0.000848323
0.000839474
0.000826318
0.000810352
0.000792934
0.000775104
0.000757555
0.000740685
0.000724687
0.00070964
0.000695549
0.000682385
0.000670095
0.000658623
0.000647906
0.000637887
0.000628512
0.000619781
0.000828579
0.000789012
0.000746412
0.000706341
0.000670409
0.000638802
0.00061114
0.000586863
0.00056543
0.000546382
0.000529347
0.000514021
0.000500158
0.000487559
0.000476061
0.000465527
0.000455848
0.000446966
0.000730863
0.000627724
0.0005551
0.000501864
0.000461342
0.000429616
0.000404165
0.000383282
0.000365818
0.000350995
0.000338262
0.000327216
0.000317557
0.00030905
0.000301513
0.000294799
0.000288787
0.000283392
0.000439367
0.000338574
0.000288093
0.000257096
0.000236649
0.000222842
0.000213353
0.000206685
0.000201878
0.00019832
0.000195613
0.000193495
0.000191788
0.000190374
0.000189171
0.000188124
0.000187194
0.000186334
7.16387e-05
6.90469e-05
6.65344e-05
6.41423e-05
6.19616e-05
6.00457e-05
5.84147e-05
5.70661e-05
5.5983e-05
5.5141e-05
5.45125e-05
5.40696e-05
5.37856e-05
5.36357e-05
5.35978e-05
5.36524e-05
5.37828e-05
5.39734e-05
7.76479e-05
6.88616e-05
7.23234e-05
7.44006e-05
7.56149e-05
7.62777e-05
7.65759e-05
7.66254e-05
7.64944e-05
7.62125e-05
7.57832e-05
7.53077e-05
7.52297e-05
7.55266e-05
7.62384e-05
7.74389e-05
7.91766e-05
8.14044e-05
8.39677e-05
8.6385e-05
8.8238e-05
8.92446e-05
8.935e-05
8.91682e-05
9.24746e-05
9.72969e-05
0.000102715
0.000108216
0.000113495
0.000118393
0.000122842
0.000126828
0.000130368
0.000133494
0.000136243
0.000138654
0.000140762
0.0001426
0.0001442
0.000145588
0.000146788
0.000147821
0.000148708
0.000149465
0.00015011
0.000150656
0.000151118
0.000151511
0.000151846
0.000152138
0.000152423
0.000152658
0.000152852
0.000153012
0.000153148
0.000153264
0.000153366
0.000153459
0.000153545
0.000153629
0.000153712
0.000153795
0.000153878
0.00015396
0.000154039
0.000154109
0.000154164
0.000154195
0.000154189
0.000154132
0.000154004
0.000153785
0.000153448
0.000152965
0.000152304
0.000151435
0.000150326
0.000148952
0.000147293
0.000145338
0.000143086
0.000140548
0.000137741
0.000134687
0.000131389
0.000127841
0.000124108
0.000121606
0.000119625
0.000117728
0.000115865
0.000114033
0.000112236
0.000110477
0.000108758
0.000107081
0.000105444
0.000103848
0.000102289
0.000100765
9.92745e-05
9.78138e-05
9.63806e-05
9.49724e-05
9.3587e-05
9.22222e-05
9.08764e-05
8.95482e-05
8.82365e-05
8.69407e-05
8.56608e-05
8.43973e-05
8.31513e-05
8.19247e-05
8.07201e-05
7.9541e-05
7.83915e-05
7.72765e-05
7.62014e-05
7.51721e-05
7.41949e-05
7.3275e-05
7.2415e-05
7.16115e-05
7.08571e-05
7.01486e-05
6.94845e-05
6.88643e-05
6.82872e-05
6.77514e-05
6.72548e-05
6.67948e-05
6.63685e-05
6.5973e-05
6.56055e-05
6.52633e-05
6.49438e-05
6.4645e-05
6.43647e-05
6.41011e-05
6.38528e-05
6.36183e-05
6.33963e-05
6.31857e-05
6.29854e-05
6.27946e-05
6.26122e-05
6.24376e-05
6.227e-05
6.21085e-05
6.19527e-05
6.18019e-05
6.16555e-05
6.15129e-05
6.13737e-05
6.12373e-05
6.11034e-05
6.09714e-05
6.0841e-05
6.07116e-05
6.0583e-05
6.04545e-05
6.03258e-05
6.01963e-05
6.00655e-05
5.99326e-05
5.97969e-05
5.96574e-05
5.95127e-05
5.93613e-05
5.9201e-05
5.90289e-05
5.8841e-05
5.86318e-05
5.83929e-05
5.81116e-05
5.777e-05
5.73285e-05
5.67634e-05
5.58258e-05
0.000135409
0.000217924
0.000281132
0.000328205
0.000361206
0.000382728
0.000395543
0.00040224
0.00040496
0.00040527
0.0004041
0.000401199
0.000394144
0.000387062
0.000382197
0.000380219
0.00038027
0.000380373
0.000378537
0.000375673
0.000370982
0.000364742
0.000357571
0.000350257
0.000343699
0.000338456
0.00033492
0.000333374
0.00033407
0.000337223
0.000342988
0.000351439
0.000362558
0.000376242
0.0003923
0.000410475
0.00043045
0.000451872
0.000474367
0.000497553
0.000521055
0.000544511
0.000567573
0.000589913
0.00061122
0.0006312
0.000649576
0.000666092
0.000680531
0.000692768
0.00070202
0.000710724
0.000719141
0.00072739
0.000735592
0.000743872
0.000752358
0.000761178
0.000770456
0.000780313
0.000790859
0.000802194
0.000814403
0.00082755
0.000841677
0.000856796
0.000872883
0.000889872
0.000907645
0.000926025
0.000944771
0.000963575
0.000982058
0.000999785
0.00101627
0.00103103
0.00104356
0.00105342
0.00106025
0.0010638
0.0010639
0.00106051
0.00105364
0.00104326
0.00102923
0.00101113
0.000988716
0.000964839
0.000940446
0.000915804
0.000891131
0.000866598
0.00084233
0.000818409
0.000794887
0.000771789
0.000749122
0.00072688
0.000705047
0.000683601
0.000662517
0.000641769
0.000621328
0.000601167
0.000581259
0.000561578
0.0005421
0.000522803
0.000503665
0.000484671
0.000465806
0.000447061
0.000428431
0.00040992
0.000391536
0.000373298
0.000355234
0.00033738
0.000319785
0.000302504
0.000285593
0.00026909
0.00025292
0.000236757
0.000220999
0.000206072
0.00019222
0.000179618
0.000168271
0.000158101
0.000149031
0.000140979
0.000133864
0.000127603
0.000122115
0.000117324
0.000113158
0.000109548
0.000106432
0.000103751
0.000101452
9.94865e-05
9.78109e-05
9.63859e-05
9.51765e-05
9.41517e-05
9.32841e-05
9.25499e-05
9.19279e-05
9.14e-05
9.09506e-05
9.05658e-05
9.02342e-05
8.99457e-05
8.96919e-05
8.94656e-05
8.92606e-05
8.9072e-05
8.88952e-05
8.87267e-05
8.85635e-05
8.84027e-05
8.82421e-05
8.80796e-05
8.7913e-05
8.77404e-05
8.75594e-05
8.73676e-05
8.71616e-05
8.69376e-05
8.66902e-05
8.6412e-05
8.6093e-05
8.5719e-05
8.5269e-05
8.47168e-05
8.40092e-05
8.31668e-05
8.18791e-05
8.15886e-05
0.000170161
0.000276715
0.000374605
0.000450238
0.000502146
0.000533691
0.00054993
0.000555928
0.000555797
0.000552171
0.000546225
0.000537831
0.000528368
0.000520521
0.000515269
0.000511905
0.000509038
0.00050498
0.000498552
0.000489722
0.000479421
0.000469315
0.000461253
0.000456894
0.00045754
0.000464087
0.000477122
0.000496974
0.000523717
0.000557135
0.00059668
0.000641479
0.000690371
0.00074201
0.000794986
0.000847946
0.000899698
0.00094927
0.000995932
0.00103919
0.00107873
0.00111443
0.00114626
0.00117427
0.00119858
0.00121936
0.0012368
0.00125111
0.00126255
0.0012714
0.00127821
0.00128371
0.00128817
0.00129183
0.00129494
0.00129775
0.00130055
0.00130363
0.00130728
0.00131175
0.00131733
0.00132423
0.00133268
0.00134283
0.00135482
0.00136873
0.00138457
0.00140232
0.00142186
0.001443
0.00146546
0.00148885
0.00151269
0.00153642
0.00155939
0.00158091
0.00160029
0.00161686
0.00163002
0.0016393
0.00164434
0.00164494
0.001641
0.00163252
0.00161952
0.00160207
0.00158055
0.00155658
0.00153106
0.00150443
0.00147701
0.00144904
0.00142073
0.00139219
0.00136353
0.00133481
0.00130607
0.00127733
0.00124859
0.00121985
0.00119111
0.00116235
0.00113356
0.00110474
0.00107585
0.00104689
0.00101786
0.000988729
0.0009595
0.000930164
0.000900721
0.000871173
0.000841529
0.000811804
0.000782021
0.000752215
0.000722428
0.000692713
0.000663135
0.000633767
0.000604686
0.000575962
0.000547631
0.000519695
0.000492265
0.00046551
0.000439557
0.000414351
0.000390051
0.000366943
0.000345272
0.000325172
0.00030664
0.000289657
0.000274185
0.000260167
0.000247534
0.000236207
0.000226101
0.000217125
0.000209187
0.000202196
0.000196061
0.000190697
0.00018602
0.000181954
0.000178427
0.000175372
0.00017273
0.000170444
0.000168467
0.000166754
0.000165266
0.000163968
0.00016283
0.000161826
0.000160932
0.000160129
0.000159399
0.000158726
0.000158098
0.000157503
0.00015693
0.000156369
0.000155811
0.000155244
0.000154659
0.000154044
0.000153382
0.000152656
0.000151841
0.000150904
0.000149801
0.000148465
0.0001468
0.000144663
0.000141795
0.000137902
0.000131995
0.00012421
0.000191301
0.00030519
0.000444543
0.000543998
0.00060427
0.000634509
0.000644597
0.000643082
0.000636254
0.000627618
0.000618485
0.000609884
0.000602287
0.000595677
0.000589531
0.000583038
0.00057549
0.000566753
0.000557588
0.000549629
0.000544993
0.000545874
0.000554176
0.000571321
0.000598185
0.00063508
0.000681746
0.000737361
0.000800571
0.000869599
0.000942406
0.00101688
0.00109105
0.00116317
0.00123187
0.00129615
0.00135536
0.00140916
0.00145746
0.00150034
0.00153799
0.00157067
0.00159866
0.00162224
0.00164168
0.00165723
0.0016691
0.00167751
0.00168266
0.00168462
0.0016839
0.00168082
0.00167562
0.00166857
0.00165997
0.00165017
0.00163956
0.00162856
0.00161763
0.00160721
0.00159777
0.00158974
0.00158354
0.00157955
0.00157807
0.00157938
0.00158366
0.00159103
0.00160152
0.00161506
0.00163148
0.00165048
0.00167165
0.00169449
0.00171834
0.00174251
0.00176622
0.00178869
0.00180917
0.00182696
0.00184148
0.00185224
0.00185889
0.0018612
0.00185907
0.00185236
0.00184137
0.00182754
0.00181149
0.00179361
0.0017742
0.00175348
0.00173165
0.00170884
0.00168515
0.00166066
0.00163542
0.00160948
0.00158286
0.00155558
0.00152766
0.00149912
0.00146996
0.0014402
0.00140985
0.00137893
0.00134744
0.0013154
0.00128284
0.00124977
0.00121622
0.00118222
0.00114781
0.00111304
0.00107796
0.00104264
0.00100714
0.000971571
0.000936017
0.000900589
0.0008654
0.000830568
0.000796205
0.00076242
0.00072933
0.00069706
0.000665725
0.00063541
0.000606201
0.00057817
0.000551295
0.000525619
0.00050135
0.000478633
0.00045747
0.00043785
0.000419745
0.000403115
0.000387909
0.000374066
0.000361519
0.000350194
0.000340012
0.000330892
0.000322752
0.000315511
0.000309086
0.000303399
0.000298375
0.000293942
0.000290033
0.000286585
0.00028354
0.000280847
0.000278457
0.000276327
0.00027442
0.000272701
0.000271141
0.000269711
0.00026839
0.000267154
0.000265986
0.000264867
0.000263779
0.000262707
0.000261631
0.000260533
0.000259388
0.000258171
0.000256845
0.000255363
0.000253661
0.000251648
0.000249187
0.000246073
0.000241949
0.000236298
0.000227819
0.000215492
4.1759e-05
0.000267367
0.000496264
0.000625875
0.000691535
0.000718245
0.000722437
0.000715476
0.000703269
0.000689703
0.000676823
0.000665193
0.000654635
0.000644767
0.000635332
0.00062644
0.000618758
0.000613608
0.000612874
0.000618722
0.000633236
0.000658097
0.000694347
0.000742261
0.00080132
0.000870275
0.000947291
0.00103014
0.00111642
0.00120379
0.00129013
0.00137363
0.00145292
0.00152701
0.00159531
0.00165752
0.00171362
0.00176374
0.00180815
0.00184714
0.00188103
0.00191012
0.00193464
0.00195478
0.0019707
0.0019825
0.00199025
0.00199402
0.00199386
0.00198964
0.00198168
0.00197013
0.00195513
0.00193688
0.00191565
0.00189176
0.00186563
0.00183774
0.00180865
0.00177898
0.00174939
0.00172057
0.00169323
0.00166805
0.0016457
0.00162677
0.00161176
0.00160111
0.00159511
0.00159393
0.00159761
0.00160605
0.00161896
0.00163595
0.00165645
0.00167978
0.00170517
0.00173176
0.00175869
0.00178506
0.00181002
0.0018328
0.00185268
0.00186909
0.00188153
0.00188906
0.0018929
0.00189377
0.001892
0.00188785
0.00188151
0.00187314
0.00186289
0.00185085
0.00183711
0.00182175
0.00180483
0.0017864
0.00176651
0.00174521
0.00172252
0.0016985
0.00167319
0.00164662
0.00161884
0.00158989
0.00155981
0.00152865
0.00149644
0.00146326
0.00142914
0.00139415
0.00135835
0.00132184
0.00128468
0.00124699
0.00120886
0.00117042
0.00113181
0.00109317
0.00105465
0.00101642
0.000978642
0.000941477
0.000905087
0.000869628
0.000835246
0.000802066
0.000770194
0.000739713
0.000710668
0.000683081
0.000656925
0.000632189
0.000609013
0.000587409
0.00056734
0.000548762
0.00053162
0.000515855
0.000501402
0.000488196
0.000476165
0.000465241
0.000455352
0.000446426
0.000438392
0.000431179
0.000424716
0.000418936
0.000413773
0.000409164
0.000405049
0.000401372
0.00039808
0.000395127
0.000392467
0.000390061
0.000387872
0.000385869
0.00038402
0.000382301
0.000380687
0.000379154
0.000377683
0.000376252
0.000374839
0.000373422
0.000371975
0.000370467
0.000368861
0.000367107
0.00036514
0.000362866
0.00036015
0.000356793
0.00035246
0.000346642
0.000338255
0.000326233
4.34694e-05
0.000320379
0.000567961
0.000707216
0.000774868
0.00079948
0.000798972
0.00078504
0.000766024
0.000746505
0.000728498
0.000712598
0.000698886
0.000687514
0.000679004
0.000674372
0.000675107
0.000683029
0.000700047
0.000727831
0.000767514
0.000819461
0.000883178
0.000957361
0.00104007
0.00112899
0.00122164
0.00131565
0.00140887
0.00149949
0.00158613
0.00166775
0.00174372
0.0018137
0.00187762
0.00193557
0.00198781
0.00203462
0.00207633
0.00211321
0.00214551
0.00217339
0.00219696
0.00221626
0.00223126
0.00224192
0.00224814
0.00224985
0.00224698
0.00223916
0.00222652
0.00220909
0.00218688
0.00215995
0.00212845
0.00209259
0.0020527
0.0020092
0.00196264
0.00191367
0.00186305
0.00181168
0.00176051
0.00171058
0.00166296
0.0016187
0.00157882
0.0015442
0.00151562
0.00149364
0.00147863
0.00147074
0.0014699
0.00147582
0.00148804
0.00150593
0.00152874
0.00155561
0.00158558
0.00161765
0.00165077
0.00168384
0.00171584
0.00174581
0.00177175
0.00179434
0.00181407
0.00183105
0.00184535
0.00185698
0.00186599
0.0018724
0.00187627
0.00187762
0.00187649
0.00187295
0.00186703
0.00185879
0.00184829
0.00183558
0.00182074
0.00180382
0.0017849
0.00176404
0.00174131
0.00171678
0.00169052
0.00166261
0.00163312
0.00160213
0.00156971
0.00153595
0.00150096
0.00146482
0.00142765
0.00138959
0.00135075
0.0013113
0.00127139
0.00123121
0.00119095
0.0011508
0.00111098
0.00107168
0.00103312
0.000995498
0.000959003
0.000923806
0.000890052
0.00085786
0.000827315
0.000798469
0.00077133
0.000745873
0.000722029
0.000699849
0.000679306
0.00066033
0.000642841
0.000626753
0.000611981
0.00059844
0.000586048
0.000574728
0.000564405
0.00055501
0.000546476
0.00053874
0.000531741
0.000525418
0.000519716
0.000514577
0.000509949
0.000505781
0.000502024
0.000498631
0.000495561
0.000492774
0.000490232
0.000487903
0.000485756
0.000483762
0.000481897
0.000480136
0.000478456
0.000476836
0.000475253
0.000473685
0.000472105
0.000470483
0.000468785
0.000466964
0.000464962
0.000462696
0.000460051
0.00045686
0.000452857
0.000447642
0.000440463
0.000430634
4.88777e-05
0.000377045
0.00063601
0.000781035
0.000850915
0.000873628
0.000869016
0.000850527
0.000826824
0.000802948
0.000781491
0.000763695
0.000750317
0.00074216
0.000740304
0.000746124
0.000761151
0.00078685
0.000824341
0.00087414
0.000935994
0.00100886
0.001091
0.00118023
0.00127417
0.00137046
0.00146693
0.00156175
0.00165343
0.00174086
0.00182328
0.00190024
0.00197155
0.00203724
0.00209746
0.00215249
0.00220262
0.00224815
0.00228933
0.00232637
0.00235936
0.00238833
0.00241325
0.002434
0.00245042
0.0024623
0.00246945
0.00247164
0.00246868
0.00246004
0.00244571
0.00242562
0.00239966
0.00236775
0.00232989
0.00228615
0.00223667
0.00218174
0.00212176
0.00205728
0.001989
0.00191781
0.00184476
0.00177108
0.00169816
0.00162747
0.00156056
0.00149895
0.00144402
0.00139695
0.00135863
0.00132958
0.00130998
0.00129971
0.00129837
0.00130543
0.00132019
0.00134181
0.00136937
0.0014018
0.00143805
0.00147663
0.00151653
0.00155473
0.00159165
0.00162716
0.00166098
0.00169282
0.00172241
0.00174951
0.00177392
0.00179548
0.00181409
0.00182966
0.00184215
0.00185155
0.00185786
0.00186113
0.00186139
0.00185872
0.00185318
0.00184487
0.00183386
0.00182025
0.00180413
0.0017856
0.00176475
0.00174167
0.00171647
0.00168925
0.0016601
0.00162913
0.00159646
0.00156221
0.00152651
0.0014895
0.00145134
0.0014122
0.00137226
0.00133174
0.00129083
0.00124978
0.00120883
0.00116822
0.0011282
0.00108902
0.00105092
0.0010141
0.00097878
0.00094511
0.000913224
0.000883215
0.000855132
0.000828978
0.000804713
0.000782256
0.000761604
0.000742667
0.000725339
0.000709504
0.000695043
0.000681839
0.000669784
0.000658776
0.000648725
0.000639548
0.000631176
0.000623542
0.000616589
0.000610264
0.000604517
0.000599299
0.000594567
0.000590276
0.000586384
0.000582852
0.000579642
0.000576716
0.000574043
0.000571589
0.000569327
0.000567228
0.000565269
0.000563424
0.000561673
0.000559993
0.000558364
0.000556762
0.000555164
0.000553543
0.000551866
0.000550095
0.000548178
0.000546047
0.00054361
0.000540736
0.000537228
0.000532798
0.000526962
0.000519369
5.04284e-05
0.000404588
0.000680486
0.000834187
0.000908667
0.000934036
0.00093048
0.000911773
0.000887125
0.000862372
0.000841004
0.000825098
0.000816075
0.000815161
0.000823573
0.000842499
0.000872941
0.000915513
0.000970249
0.0010365
0.00111294
0.00119773
0.00128868
0.00138354
0.00148014
0.00157654
0.00167112
0.00176262
0.00185009
0.0019329
0.00201069
0.00208334
0.0021509
0.00221355
0.00227156
0.00232522
0.00237482
0.00242061
0.00246275
0.00250134
0.00253637
0.00256775
0.00259532
0.00261884
0.00263805
0.00265264
0.00266226
0.00266659
0.0026653
0.00265782
0.0026441
0.00262397
0.00259724
0.00256373
0.0025233
0.00247586
0.00242141
0.00236006
0.00229203
0.00221768
0.00213756
0.00205239
0.00196313
0.00187094
0.00177728
0.00168381
0.00159243
0.00150516
0.00142404
0.00135097
0.00128755
0.00123488
0.00119349
0.00116346
0.00114449
0.0011361
0.00113772
0.00114863
0.00116794
0.00119462
0.00122791
0.00126532
0.00130526
0.00134713
0.0013903
0.00143412
0.00147792
0.00152107
0.00156296
0.00160307
0.00164092
0.0016761
0.00170831
0.00173729
0.00176286
0.00178492
0.00180339
0.00181826
0.00182955
0.0018373
0.00184157
0.00184246
0.00184006
0.00183446
0.00182578
0.00181413
0.00179961
0.00178235
0.00176244
0.00174002
0.0017152
0.0016881
0.00165884
0.00162757
0.00159441
0.00155954
0.0015231
0.00148529
0.00144631
0.00140637
0.0013657
0.00132456
0.00128321
0.00124194
0.00120102
0.00116075
0.0011214
0.00108324
0.00104652
0.00101146
0.000978239
0.000946996
0.00091783
0.000890786
0.000865857
0.00084299
0.000822099
0.000803121
0.000785929
0.000770379
0.000756321
0.000743605
0.000732087
0.000721635
0.000712132
0.000703475
0.000695576
0.000688362
0.00068177
0.000675747
0.000670245
0.000665224
0.000660644
0.000656469
0.000652664
0.000649195
0.00064603
0.000643138
0.000640489
0.000638055
0.00063581
0.000633729
0.000631788
0.000629966
0.000628241
0.000626594
0.000625003
0.00062345
0.000621912
0.000620365
0.00061878
0.000617126
0.000615358
0.000613424
0.000611251
0.000608739
0.000605748
0.00060208
0.000597432
0.000591663
5.09655e-05
0.000412624
0.00070051
0.00086436
0.000947292
0.000979683
0.000981722
0.000967277
0.00094597
0.000924354
0.00090675
0.000895983
0.000893962
0.000902075
0.000921368
0.000952546
0.000995888
0.00105114
0.00111746
0.00119348
0.00127737
0.00136709
0.00146053
0.00155569
0.00165081
0.0017444
0.00183528
0.00192259
0.00200573
0.00208435
0.00215831
0.00222765
0.00229254
0.00235322
0.00240999
0.00246313
0.0025129
0.00255948
0.00260299
0.00264343
0.00268071
0.00271468
0.00274508
0.00277161
0.00279389
0.00281154
0.00282414
0.00283125
0.00283229
0.00282696
0.00281511
0.00279654
0.00277097
0.00273816
0.00269786
0.00264987
0.00259406
0.00253038
0.0024589
0.00237981
0.00229346
0.0022004
0.00210138
0.00199741
0.00188977
0.00178005
0.00167019
0.00156241
0.00145914
0.0013629
0.00127607
0.00120052
0.00113728
0.00108668
0.00104858
0.00102251
0.00100815
0.00100499
0.00101222
0.00102875
0.00105286
0.00108337
0.00111926
0.00115966
0.00120369
0.00125049
0.00129919
0.0013489
0.00139876
0.00144797
0.00149577
0.00154154
0.00158471
0.00162484
0.0016616
0.00169473
0.00172406
0.00174949
0.00177099
0.00178856
0.00180223
0.00181207
0.00181816
0.00182061
0.00181952
0.001815
0.00180716
0.00179614
0.00178204
0.001765
0.00174514
0.00172257
0.00169744
0.00166989
0.00164005
0.00160809
0.00157418
0.00153849
0.00150124
0.00146265
0.00142295
0.00138241
0.00134131
0.00129996
0.00125865
0.00121772
0.00117747
0.00113823
0.00110028
0.00106391
0.00102935
0.000996785
0.000966377
0.000938216
0.000912341
0.000888734
0.000867318
0.000848019
0.000830706
0.000815219
0.000801387
0.000789029
0.000777969
0.000768042
0.000759098
0.000751009
0.000743665
0.000736974
0.000730863
0.000725273
0.000720154
0.000715467
0.000711176
0.000707249
0.000703657
0.000700371
0.000697365
0.000694612
0.000692087
0.000689766
0.000687624
0.000685641
0.000683794
0.000682063
0.00068043
0.000678876
0.000677382
0.000675931
0.000674502
0.000673075
0.000671625
0.000670126
0.000668543
0.000666833
0.000664941
0.000662795
0.000660297
0.000657314
0.000653662
0.000649312
5.11518e-05
0.000407348
0.000701521
0.00087466
0.000967622
0.00100994
0.00102119
0.00101493
0.00100082
0.000985807
0.000974771
0.000971069
0.000976931
0.000993774
0.00102239
0.00106301
0.00111532
0.00117848
0.00125117
0.00133173
0.00141824
0.00150876
0.00160143
0.00169458
0.00178677
0.00187686
0.00196395
0.00204742
0.00212687
0.0022021
0.00227307
0.00233989
0.00240278
0.00246199
0.00251781
0.00257051
0.00262032
0.00266738
0.00271177
0.00275345
0.00279231
0.00282813
0.00286063
0.00288946
0.0029142
0.0029344
0.00294956
0.00295918
0.00296254
0.00295953
0.00294997
0.0029336
0.00291013
0.00287924
0.00284061
0.00279396
0.00273906
0.00267573
0.00260389
0.00252358
0.00243502
0.00233859
0.00223489
0.00212472
0.00200916
0.0018896
0.00176782
0.00164597
0.00152654
0.00141228
0.0013062
0.00121113
0.00112854
0.00105915
0.00100302
0.000959749
0.000929245
0.000911639
0.000905436
0.000909651
0.000923246
0.000945202
0.000974535
0.0010103
0.00105157
0.00109741
0.00114684
0.00119886
0.00125245
0.00130662
0.00136044
0.00141305
0.00146372
0.00151183
0.00155688
0.00159849
0.00163639
0.00167038
0.00170035
0.00172624
0.00174805
0.00176581
0.00177956
0.0017894
0.0017954
0.00179767
0.00179633
0.00179147
0.00178322
0.00177169
0.001757
0.00173928
0.00171866
0.00169526
0.00166923
0.00164073
0.0016099
0.00157694
0.00154203
0.00150541
0.00146729
0.00142796
0.00138769
0.00134679
0.00130559
0.00126443
0.00122366
0.00118363
0.00114468
0.00110713
0.00107127
0.00103736
0.0010056
0.000976148
0.000949083
0.000924438
0.000902177
0.000882221
0.000864453
0.000848712
0.000834811
0.00082255
0.000811726
0.000802142
0.000793619
0.000785997
0.00077914
0.000772937
0.000767299
0.000762153
0.000757444
0.00075313
0.000749174
0.000745546
0.00074222
0.000739173
0.00073638
0.00073382
0.00073147
0.00072931
0.000727319
0.000725478
0.000723766
0.000722167
0.000720662
0.000719236
0.00071787
0.00071655
0.000715257
0.000713974
0.000712681
0.000711355
0.000709968
0.000708489
0.000706876
0.000705079
0.00070303
0.000700645
0.000697815
0.000694568
5.06236e-05
0.000392658
0.000687285
0.000867978
0.00097142
0.00102537
0.00104832
0.0010531
0.00104903
0.00104306
0.0010403
0.0010444
0.00105777
0.00108188
0.00111736
0.00116416
0.00122166
0.00128876
0.00136398
0.00144563
0.00153193
0.00162112
0.00171158
0.00180191
0.00189091
0.00197763
0.00206136
0.00214159
0.00221802
0.00229051
0.00235906
0.00242379
0.00248491
0.00254268
0.00259735
0.00264919
0.00269839
0.00274509
0.00278935
0.00283114
0.00287033
0.00290672
0.00294002
0.00296987
0.00299585
0.00301748
0.00303421
0.00304547
0.00305063
0.00304956
0.00304208
0.00302791
0.00300672
0.00297815
0.00294185
0.00289745
0.00284463
0.0027831
0.00271267
0.00263324
0.00254485
0.00244785
0.00234272
0.00223009
0.00211085
0.00198623
0.00185781
0.00172759
0.00159793
0.00147137
0.00135101
0.00124121
0.00114334
0.00105851
0.000987186
0.000929391
0.000884985
0.000853693
0.000834988
0.000828163
0.000832308
0.000846392
0.000869356
0.000900165
0.00093781
0.000981278
0.00102953
0.00108149
0.00113606
0.00119215
0.00124872
0.00130483
0.00135962
0.00141238
0.00146253
0.00150959
0.00155321
0.00159314
0.00162919
0.00166127
0.00168931
0.00171331
0.00173327
0.00174925
0.00176131
0.00176952
0.00177397
0.00177475
0.00177194
0.00176567
0.00175602
0.00174311
0.00172705
0.00170796
0.00168597
0.00166121
0.00163384
0.001604
0.00157189
0.00153772
0.00150169
0.00146408
0.00142515
0.00138521
0.0013446
0.00130367
0.00126277
0.0012223
0.00118263
0.00114411
0.0011071
0.0010719
0.00103877
0.00100793
0.000979507
0.000953599
0.000930212
0.000909297
0.000890754
0.000874431
0.000860141
0.000847673
0.000836804
0.000827313
0.000818993
0.000811656
0.000805139
0.000799306
0.000794049
0.000789281
0.000784937
0.000780965
0.000777327
0.000773992
0.000770934
0.000768131
0.000765562
0.000763207
0.000761047
0.000759064
0.000757239
0.000755555
0.000753994
0.00075254
0.000751178
0.000749891
0.000748665
0.000747485
0.000746337
0.000745204
0.000744071
0.000742919
0.000741726
0.000740469
0.000739118
0.000737637
0.000735985
0.00073411
0.000731952
0.000729561
4.94974e-05
0.000371229
0.000661245
0.000847602
0.000961277
0.00102755
0.00106351
0.00108099
0.00108871
0.00109324
0.00109961
0.00111153
0.00113155
0.0011612
0.00120112
0.00125125
0.00131091
0.001379
0.00145411
0.00153467
0.00161908
0.00170578
0.00179336
0.0018806
0.00196646
0.00205006
0.00213079
0.0022082
0.00228202