/*--------------------------------*- C++ -*----------------------------------*\
  =========                 |
  \\      /  F ield         | OpenFOAM: The Open Source CFD Toolbox
   \\    /   O peration     | Website:  https://openfoam.org
    \\  /    A nd           | Version:  9
     \\/     M anipulation  |
\*---------------------------------------------------------------------------*/
FoamFile
{
    format      ascii;
    class       volScalarField;
    location    "0.02";
    object      p;
}
// * * * * * * * * * * * * * * * * * * * * * * * * * * * * * * * * * * * * * //

dimensions      [0 2 -2 0 0 0 0];

internalField   nonuniform List<scalar> 
12225
(
-1.69796
-3.97609
-5.11526
-5.38507
-5.50521
-5.60261
-5.65176
-5.6501
-5.61292
-5.54804
-5.45419
-5.32722
-5.16211
-4.95089
-4.68131
-4.32872
-3.89702
-3.28828
-5.17846
-5.86694
-5.92998
-5.75543
-5.66646
-5.67294
-5.67886
-5.65488
-5.60536
-5.53327
-5.43547
-5.30695
-5.14238
-4.93413
-4.67183
-4.33747
-3.93644
-3.41249
-5.37739
-5.26146
-5.39504
-5.48187
-5.53992
-5.60153
-5.63537
-5.62881
-5.59048
-5.52631
-5.43518
-5.31329
-5.1562
-4.95779
-4.71049
-4.40372
-4.04686
-3.62916
-5.24112
-5.15265
-5.40527
-5.54756
-5.59284
-5.62979
-5.65149
-5.64116
-5.60203
-5.53867
-5.45002
-5.33259
-5.18269
-4.9958
-4.76737
-4.49364
-4.18641
-3.85526
-5.25151
-5.25897
-5.47524
-5.58859
-5.61632
-5.64161
-5.65899
-5.64878
-5.61119
-5.55033
-5.46569
-5.35449
-5.21401
-5.04153
-4.83539
-4.59664
-4.33771
-4.07401
-5.31756
-5.35039
-5.50452
-5.59928
-5.63004
-5.65426
-5.66991
-5.66063
-5.62556
-5.56834
-5.489
-5.38561
-5.25649
-5.10065
-4.91882
-4.71509
-4.50183
-4.29595
-5.38299
-5.41313
-5.52648
-5.61362
-5.65011
-5.67311
-5.68628
-5.67786
-5.64597
-5.5934
-5.52066
-5.42666
-5.31078
-5.17351
-5.01736
-4.84819
-4.67789
-4.52238
-5.4435
-5.46939
-5.55749
-5.63625
-5.6746
-5.69592
-5.70714
-5.70019
-5.67235
-5.62557
-5.56079
-5.47779
-5.37689
-5.25974
-5.13008
-4.99454
-4.86409
-4.75237
-5.50261
-5.52575
-5.59539
-5.66384
-5.7018
-5.72238
-5.7329
-5.7281
-5.70511
-5.66522
-5.60973
-5.53917
-5.45466
-5.3587
-5.25569
-5.15237
-5.05842
-4.98501
-5.5615
-5.58202
-5.63726
-5.69566
-5.73245
-5.75322
-5.76409
-5.76207
-5.74465
-5.71269
-5.66765
-5.61072
-5.54362
-5.46937
-5.39261
-5.31972
-5.25895
-5.21923
-5.6203
-5.63802
-5.68232
-5.73207
-5.76731
-5.7888
-5.80096
-5.80242
-5.7913
-5.76815
-5.73456
-5.69213
-5.64305
-5.59056
-5.53919
-5.49469
-5.46391
-5.45381
-5.67421
-5.68956
-5.72639
-5.76967
-5.8034
-5.82591
-5.84008
-5.84545
-5.84071
-5.82634
-5.80393
-5.77533
-5.74294
-5.71001
-5.68078
-5.66031
-5.65423
-5.66804
-5.72758
-5.74099
-5.77218
-5.81029
-5.84276
-5.86663
-5.88346
-5.8933
-5.8954
-5.89022
-5.8793
-5.86463
-5.84867
-5.83456
-5.82611
-5.82764
-5.84375
-5.87866
-5.78857
-5.80027
-5.82683
-5.8607
-5.89232
-5.91823
-5.93891
-5.95461
-5.96511
-5.97089
-5.97343
-5.97469
-5.97708
-5.98342
-5.99699
-6.02128
-6.05981
-6.11562
-5.85775
-5.86808
-5.89136
-5.9224
-5.9541
-5.98303
-6.00898
-6.03221
-6.05283
-6.07139
-6.08923
-6.10816
-6.13032
-6.15812
-6.19416
-6.24105
-6.30131
-6.37693
-5.93534
-5.94485
-5.96643
-5.99652
-6.02974
-6.06309
-6.09596
-6.1285
-6.16098
-6.19397
-6.22856
-6.26629
-6.30887
-6.35818
-6.41609
-6.48439
-6.56467
-6.65807
-6.0207
-6.03013
-6.05179
-6.08314
-6.11987
-6.15939
-6.20096
-6.24458
-6.29046
-6.33905
-6.39118
-6.44794
-6.51056
-6.58028
-6.6583
-6.74564
-6.84315
-6.9513
-6.1112
-6.12143
-6.14507
-6.18012
-6.22271
-6.27044
-6.32247
-6.37861
-6.4389
-6.50355
-6.57302
-6.64792
-6.72897
-6.81681
-6.91203
-7.01505
-7.12616
-7.24533
-6.1997
-6.21186
-6.2397
-6.28122
-6.33237
-6.39053
-6.45465
-6.52436
-6.59943
-6.67973
-6.7653
-6.85632
-6.95299
-7.05549
-7.1639
-7.27821
-7.39833
-7.52392
-6.25431
-6.26888
-6.30208
-6.35145
-6.41195
-6.48017
-6.55485
-6.6356
-6.72202
-6.81369
-6.91036
-7.01194
-7.11838
-7.22959
-7.34541
-7.46559
-7.58986
-7.71779
-6.27684
-6.29351
-6.33195
-6.38912
-6.45823
-6.5348
-6.61765
-6.70657
-6.80101
-6.90029
-7.00405
-7.11214
-7.22441
-7.34061
-7.46045
-7.58362
-7.70975
-7.83837
-6.27846
-6.29701
-6.34142
-6.40798
-6.48612
-6.57005
-6.65976
-6.75561
-6.85656
-6.96162
-7.07049
-7.18308
-7.29921
-7.41857
-7.54081
-7.66556
-7.79245
-7.921
-6.26458
-6.28383
-6.3349
-6.41346
-6.50151
-6.59194
-6.68737
-6.78897
-6.8951
-7.00456
-7.11721
-7.23307
-7.35192
-7.47338
-7.59713
-7.72281
-7.85004
-7.97833
-6.23991
-6.25837
-6.31737
-6.40936
-6.50668
-6.60359
-6.70533
-6.81226
-6.92221
-7.03461
-7.14986
-7.26799
-7.38863
-7.51141
-7.63605
-7.76219
-7.88947
-8.01739
-6.20647
-6.22146
-6.29945
-6.40534
-6.50438
-6.60482
-6.71397
-6.82716
-6.94071
-7.0554
-7.17256
-7.29225
-7.41403
-7.53757
-7.6626
-7.78885
-7.91598
-8.04352
-6.16708
-6.15203
-6.28014
-6.41489
-6.50962
-6.6054
-6.71703
-6.83391
-6.94985
-7.06631
-7.18502
-7.30594
-7.42855
-7.55259
-7.67788
-7.80415
-7.93109
-8.05826
-6.16244
-6.0278
-6.2063
-6.39927
-6.51736
-6.61979
-6.73281
-6.8487
-6.96338
-7.07926
-7.19777
-7.3185
-7.44083
-7.56452
-7.68939
-7.81516
-7.94158
-8.06819
-6.31098
-6.03122
-6.08492
-6.24521
-6.40035
-6.54963
-6.69241
-6.82338
-6.94692
-7.06917
-7.19224
-7.31607
-7.44052
-7.56568
-7.69154
-7.81795
-7.94491
-8.07239
-6.25754
-6.76098
-6.78658
-6.65454
-6.60938
-6.67429
-6.77667
-6.88129
-6.98782
-7.09951
-7.21561
-7.33439
-7.45502
-7.57717
-7.7005
-7.82456
-7.94911
-8.07552
-2.90836
-4.7912
-5.88173
-6.20187
-6.37117
-6.54933
-6.70946
-6.84441
-6.96848
-7.09131
-7.21474
-7.33843
-7.46243
-7.58699
-7.71197
-7.83684
-7.96069
-8.0811
-8.7871
-8.7895
-8.8667
-9.01565
-9.21416
-9.44204
-9.68346
-9.92537
-10.1571
-10.3704
-10.5584
-10.7174
-10.8537
-10.9699
-11.0716
-11.1646
-11.2557
-11.3518
-11.4588
-11.5824
-11.7263
-11.8929
-12.0843
-12.3044
-12.5628
-12.875
-13.2596
-13.7362
-14.3218
-15.0275
-15.8557
-16.7988
-17.8406
-18.9577
-20.122
-21.3038
-22.474
-23.6056
-24.6755
-25.6645
-26.5575
-27.3433
-28.0142
-28.5652
-28.9938
-29.3001
-29.4876
-29.5618
-29.5242
-29.3687
-29.089
-28.6827
-28.1636
-27.5402
-26.819
-26.0052
-25.103
-24.116
-23.0472
-21.8987
-20.6722
-19.3685
-17.9877
-16.5296
-14.9936
-13.379
-11.6857
-9.91455
-8.06799
-6.15086
-4.17105
-2.14006
-0.0733623
2.00955
4.08567
6.12933
8.11365
10.0122
11.8006
13.4583
14.9699
16.3251
17.5198
18.5548
19.4362
20.1748
20.7858
21.2821
21.6686
21.9588
22.1658
22.302
22.3783
22.4047
22.3896
22.3405
22.2639
22.1652
22.049
21.9195
21.7799
21.6331
21.4815
21.3272
21.1718
21.0168
20.8633
20.7123
20.5646
20.4207
20.2811
20.1463
20.0164
19.8917
19.7723
19.6581
19.5494
19.4459
19.3477
19.2548
19.1671
19.0852
19.0097
18.9346
18.8619
18.7923
18.7263
18.664
18.6055
18.5505
18.499
18.4509
18.406
18.3642
18.3252
18.2888
18.2551
18.2236
18.1943
18.1671
18.1417
18.118
18.0958
18.0751
18.0557
18.0375
18.0203
18.0042
17.9889
17.9745
17.9607
17.9477
17.9353
17.9234
17.912
17.9012
17.8908
17.8809
17.8714
17.8625
17.8541
17.8464
17.8394
17.8333
17.8282
17.8245
17.8225
17.8226
17.8254
17.8317
17.8426
17.8596
17.8846
17.9206
17.9717
18.0436
18.1464
18.2907
18.5099
18.7694
-9.02804
-9.03379
-9.13421
-9.29839
-9.49354
-9.70442
-9.92105
-10.1348
-10.3391
-10.5292
-10.7024
-10.8532
-10.9673
-11.0463
-11.0978
-11.1336
-11.1657
-11.2043
-11.2563
-11.3277
-11.4262
-11.5594
-11.7366
-11.9649
-12.2473
-12.5966
-13.0376
-13.5947
-14.2866
-15.1206
-16.0911
-17.1801
-18.3599
-19.5976
-20.8587
-22.1104
-23.324
-24.4752
-25.545
-26.5187
-27.3858
-28.1388
-28.7724
-29.2835
-29.6701
-29.9314
-30.0665
-30.076
-29.9638
-29.7352
-29.4045
-28.9806
-28.4589
-27.8402
-27.1275
-26.3248
-25.4357
-24.4639
-23.4123
-22.2836
-21.0794
-19.8008
-18.4482
-17.0213
-15.5192
-13.9412
-12.2865
-10.5551
-8.74842
-6.8701
-4.92653
-2.92767
-0.88749
1.17585
3.24035
5.28099
7.27102
9.18368
10.994
12.6805
14.2265
15.6209
16.8586
17.9394
18.8679
19.6524
20.3008
20.8252
21.24
21.5587
21.7938
21.9572
22.0596
22.1106
22.1186
22.0912
22.0347
21.9547
21.8558
21.7422
21.6173
21.4841
21.345
21.2021
21.0573
20.912
20.7675
20.6247
20.4846
20.3477
20.2146
20.0857
19.9614
19.8418
19.7271
19.6173
19.5126
19.4129
19.3181
19.2282
19.143
19.0621
18.9833
18.9101
18.8403
18.7742
18.7115
18.6524
18.5963
18.5433
18.4935
18.4467
18.4029
18.3619
18.3236
18.2878
18.2544
18.2233
18.1943
18.1673
18.142
18.1184
18.0963
18.0756
18.0562
18.038
18.0208
18.0046
17.9893
17.9748
17.9611
17.948
17.9355
17.9235
17.9121
17.9012
17.8908
17.8808
17.8713
17.8623
17.8538
17.846
17.8389
17.8326
17.8274
17.8235
17.8213
17.821
17.8234
17.8292
17.8394
17.8553
17.8789
17.9127
17.9604
18.027
18.1209
18.2493
18.4382
18.6503
-9.13967
-9.18014
-9.28726
-9.43773
-9.61202
-9.79861
-9.98908
-10.1764
-10.3549
-10.5202
-10.6683
-10.7953
-10.8972
-10.9729
-11.025
-11.0601
-11.0881
-11.1215
-11.1741
-11.2597
-11.3932
-11.5924
-11.8768
-12.2633
-12.7616
-13.3741
-14.0992
-14.9309
-15.8583
-16.8662
-17.9364
-19.0486
-20.1825
-21.3189
-22.4399
-23.5297
-24.5742
-25.5612
-26.4796
-27.3199
-28.0737
-28.734
-29.2947
-29.751
-30.0996
-30.3377
-30.4634
-30.4739
-30.3675
-30.1512
-29.826
-29.3982
-28.8712
-28.2485
-27.5341
-26.7317
-25.8456
-24.8795
-23.8367
-22.7202
-21.5319
-20.2733
-18.9447
-17.5458
-16.0755
-14.5323
-12.9147
-11.2215
-9.45255
-7.60969
-5.69751
-3.7242
-1.70223
0.351293
2.41479
4.46298
6.46824
8.40244
10.239
11.9549
13.5322
14.9587
16.2285
17.3411
18.3006
19.1154
19.7954
20.3522
20.7989
21.1484
21.4129
21.6041
21.7327
21.8083
21.8394
21.8335
21.797
21.7355
21.6538
21.5562
21.446
21.3264
21.1999
21.0687
20.9347
20.7993
20.664
20.5298
20.3975
20.2679
20.1415
20.0188
19.9002
19.7859
19.676
19.5707
19.47
19.374
19.2825
19.1955
19.1129
19.0344
18.9595
18.8889
18.8215
18.7573
18.6963
18.6381
18.5833
18.5316
18.483
18.4374
18.3946
18.3546
18.3171
18.2822
18.2496
18.2191
18.1907
18.1641
18.1393
18.1161
18.0944
18.074
18.0549
18.0369
18.0199
18.0039
17.9887
17.9743
17.9607
17.9476
17.9352
17.9233
17.9119
17.901
17.8906
17.8806
17.871
17.862
17.8535
17.8456
17.8384
17.832
17.8266
17.8225
17.8199
17.8193
17.8212
17.8264
17.8356
17.8503
17.8721
17.9033
17.947
18.0071
18.0898
18.1988
18.3467
18.4889
-8.98939
-9.06608
-9.18303
-9.32706
-9.48895
-9.6596
-9.83362
-10.0057
-10.1715
-10.3278
-10.4708
-10.5974
-10.7067
-10.8
-10.8824
-10.9627
-11.0541
-11.1732
-11.339
-11.5708
-11.8855
-12.2954
-12.8071
-13.4204
-14.1289
-14.9215
-15.7848
-16.7054
-17.6707
-18.6693
-19.691
-20.7262
-21.7655
-22.7991
-23.8166
-24.8074
-25.7604
-26.6649
-27.51
-28.2857
-28.9826
-29.5926
-30.1083
-30.524
-30.8352
-31.0386
-31.1324
-31.1156
-30.9885
-30.7535
-30.4133
-29.971
-29.4303
-28.7951
-28.0699
-27.2591
-26.3672
-25.3984
-24.3566
-23.2452
-22.0665
-20.8222
-19.5127
-18.1375
-16.6949
-15.1826
-13.5974
-11.9364
-10.1973
-8.3795
-6.48499
-4.51981
-2.49484
-0.426523
1.66311
3.74713
5.79528
7.77622
9.66014
11.4212
13.0393
14.5012
15.8006
16.937
17.9164
18.7488
19.4455
20.0183
20.4805
20.8451
21.1245
21.3305
21.4738
21.5638
21.6089
21.6166
21.5932
21.5444
21.4748
21.3887
21.2895
21.1802
21.0635
20.9416
20.8163
20.6892
20.5615
20.4345
20.309
20.1858
20.0654
19.9483
19.8349
19.7254
19.6201
19.519
19.4222
19.3298
19.2417
19.1578
19.0781
19.0021
18.9298
18.861
18.7956
18.7336
18.6747
18.6189
18.5662
18.5165
18.4698
18.4258
18.3846
18.3459
18.3097
18.2758
18.2441
18.2145
18.1868
18.1608
18.1366
18.1138
18.0925
18.0725
18.0536
18.0359
18.0191
18.0033
17.9883
17.974
17.9604
17.9475
17.9351
17.9232
17.9118
17.9009
17.8905
17.8804
17.8708
17.8617
17.8531
17.8451
17.8377
17.8311
17.8255
17.8211
17.8181
17.8169
17.8182
17.8224
17.8304
17.8434
17.8627
17.8904
17.9288
17.9808
18.0503
18.1376
18.2452
18.3308
-8.51803
-8.62147
-8.77434
-8.93353
-9.09217
-9.2523
-9.41409
-9.5765
-9.73798
-9.89578
-10.0487
-10.1972
-10.3436
-10.4933
-10.6552
-10.8418
-11.0684
-11.3509
-11.7043
-12.1395
-12.6619
-13.2705
-13.9592
-14.7179
-15.5353
-16.4007
-17.3047
-18.2395
-19.1985
-20.1758
-21.1653
-22.1606
-23.1545
-24.1391
-25.1055
-26.0443
-26.9456
-27.7994
-28.5958
-29.3253
-29.9789
-30.5486
-31.0271
-31.4085
-31.688
-31.8619
-31.9281
-31.8853
-31.734
-31.476
-31.1137
-30.6503
-30.0897
-29.4363
-28.6946
-27.8697
-26.9667
-25.9902
-24.9449
-23.8345
-22.6622
-21.4298
-20.1382
-18.7866
-17.373
-15.8937
-14.3442
-12.7192
-11.0134
-9.2228
-7.34612
-5.38609
-3.35119
-1.25678
0.874452
3.01314
5.12504
7.17391
9.12494
10.948
12.62
14.1261
15.4596
16.6218
17.6209
18.4677
19.1749
19.7564
20.2264
20.5987
20.8862
21.1008
21.253
21.3524
21.4072
21.4246
21.4111
21.3719
21.3119
21.235
21.1448
21.0443
20.9359
20.822
20.7043
20.5844
20.4637
20.3432
20.2239
20.1065
19.9916
19.8797
19.7711
19.6662
19.5652
19.4681
19.3751
19.2862
19.2013
19.1205
19.0434
18.9701
18.9002
18.8338
18.7708
18.7109
18.6541
18.6002
18.5493
18.5013
18.4561
18.4135
18.3736
18.3361
18.301
18.2681
18.2373
18.2085
18.1816
18.1563
18.1327
18.1105
18.0896
18.07
18.0516
18.0341
18.0177
18.0021
17.9872
17.9731
17.9597
17.9469
17.9346
17.9228
17.9114
17.9005
17.8901
17.88
17.8704
17.8612
17.8525
17.8443
17.8368
17.8299
17.824
17.8192
17.8157
17.8139
17.8143
17.8174
17.8239
17.8348
17.8513
17.8749
17.9073
17.9504
18.0059
18.0718
18.1444
18.1877
-7.77353
-7.92281
-8.13352
-8.31469
-8.47109
-8.62215
-8.77575
-8.93431
-9.09925
-9.2727
-9.45744
-9.65752
-9.87892
-10.1298
-10.4202
-10.761
-11.1627
-11.6333
-12.1771
-12.7943
-13.4806
-14.2289
-15.0305
-15.8765
-16.7587
-17.6702
-18.6053
-19.559
-20.5272
-21.5052
-22.4883
-23.471
-24.4471
-25.4095
-26.3503
-27.2609
-28.1322
-28.9549
-29.7195
-30.417
-31.0389
-31.5772
-32.0249
-32.3763
-32.6266
-32.7723
-32.8111
-32.742
-32.5654
-32.2831
-31.8975
-31.412
-30.8305
-30.1577
-29.3986
-28.5587
-27.6435
-26.6582
-25.6081
-24.4977
-23.3305
-22.1093
-20.8352
-19.5078
-18.1247
-16.6817
-15.1727
-13.59
-11.9251
-10.1699
-8.31851
-6.36908
-4.32632
-2.20337
-0.0229904
2.18278
4.37467
6.50985
8.5466
10.4485
12.1884
13.749
15.1244
16.3183
17.34
18.2019
18.9195
19.5087
19.9852
20.3636
20.6575
20.879
21.0387
21.1461
21.2093
21.2355
21.2309
21.2006
21.1495
21.0813
20.9996
20.9073
20.807
20.7007
20.5904
20.4776
20.3636
20.2496
20.1364
20.0248
19.9154
19.8087
19.7051
19.6049
19.5082
19.4153
19.3261
19.2408
19.1593
19.0816
19.0075
18.9369
18.8697
18.8058
18.745
18.6874
18.6326
18.5808
18.5317
18.4854
18.4418
18.4007
18.362
18.3258
18.2918
18.2599
18.2301
18.2021
18.1759
18.1514
18.1283
18.1067
18.0863
18.0672
18.0491
18.032
18.0159
18.0005
17.9859
17.972
17.9588
17.946
17.9338
17.9221
17.9108
17.9
17.8895
17.8794
17.8697
17.8605
17.8516
17.8433
17.8355
17.8285
17.8222
17.8169
17.8128
17.8103
17.8097
17.8114
17.8162
17.8248
17.8381
17.8571
17.8831
17.9169
17.9586
18.0046
18.0479
18.0587
-6.91032
-7.14353
-7.39677
-7.59372
-7.75282
-7.90241
-8.05594
-8.22127
-8.4051
-8.61388
-8.85404
-9.13237
-9.45609
-9.83251
-10.2682
-10.7683
-11.3351
-11.968
-12.6634
-13.4156
-14.2172
-15.0608
-15.9394
-16.8469
-17.7782
-18.7288
-19.6951
-20.6736
-21.6608
-22.6529
-23.6455
-24.6333
-25.6104
-26.5698
-27.5037
-28.404
-29.2619
-30.0682
-30.8143
-31.4912
-32.091
-32.606
-33.0298
-33.3567
-33.5824
-33.7035
-33.718
-33.6251
-33.4255
-33.121
-32.7141
-32.2085
-31.6082
-30.9183
-30.1441
-29.2913
-28.366
-27.3739
-26.3207
-25.2115
-24.0507
-22.8413
-21.5853
-20.2826
-18.9312
-17.5265
-16.0617
-14.5271
-12.9113
-11.2022
-9.38826
-7.46177
-5.4218
-3.27735
-1.04964
1.22731
3.50871
5.74367
7.88147
9.87702
11.6978
13.3247
14.7528
15.9857
17.0346
17.9157
18.6467
19.2459
19.7305
20.1164
20.4176
20.6468
20.8146
20.9305
21.0026
21.0379
21.0424
21.0214
20.9793
20.9202
20.8472
20.7635
20.6714
20.573
20.4704
20.3649
20.2579
20.1505
20.0437
19.9381
19.8345
19.7332
19.6348
19.5394
19.4473
19.3587
19.2737
19.1922
19.1143
19.04
18.9691
18.9015
18.8371
18.7759
18.7177
18.6624
18.6099
18.5601
18.513
18.4685
18.4265
18.387
18.3498
18.3148
18.282
18.2511
18.2223
18.1952
18.1698
18.1459
18.1235
18.1025
18.0826
18.0639
18.0463
18.0296
18.0137
17.9987
17.9844
17.9707
17.9576
17.945
17.9329
17.9213
17.9101
17.8992
17.8888
17.8787
17.8689
17.8596
17.8506
17.8421
17.8341
17.8267
17.82
17.8142
17.8095
17.8061
17.8044
17.8047
17.8075
17.8135
17.8233
17.8376
17.857
17.8814
17.9099
17.9379
17.9569
17.9426
-6.14195
-6.41416
-6.70599
-6.92198
-7.08975
-7.24705
-7.41274
-7.59883
-7.81601
-8.07405
-8.38161
-8.74602
-9.17308
-9.66662
-10.2281
-10.8564
-11.5477
-12.2965
-13.0957
-13.938
-14.8166
-15.7254
-16.6593
-17.6141
-18.5866
-19.5737
-20.5727
-21.5807
-22.5945
-23.6101
-24.6229
-25.6273
-26.6173
-27.5855
-28.5245
-29.4258
-30.281
-31.0815
-31.8185
-32.484
-33.07
-33.5697
-33.9766
-34.2858
-34.493
-34.5952
-34.5906
-34.4787
-34.2607
-33.9384
-33.5146
-32.9929
-32.3778
-31.6746
-30.8889
-30.0269
-29.0948
-28.0989
-27.0454
-25.9398
-24.787
-23.5907
-22.3534
-21.0756
-19.7556
-18.3893
-16.9694
-15.4855
-13.9242
-12.2698
-10.5056
-8.61727
-6.59659
-4.44613
-2.1832
0.158106
2.52779
4.86584
7.11109
9.20866
11.1209
12.8257
14.3148
15.594
16.6772
17.5833
18.3329
18.9466
19.4433
19.8401
20.1518
20.3913
20.5695
20.6959
20.7785
20.8244
20.8393
20.8286
20.7966
20.7473
20.6839
20.6093
20.5261
20.4363
20.3417
20.244
20.1445
20.0442
19.9441
19.845
19.7474
19.652
19.559
19.4689
19.3817
19.2978
19.2171
19.1398
19.0658
18.9951
18.9277
18.8633
18.8021
18.7437
18.6882
18.6355
18.5854
18.5379
18.4929
18.4504
18.4102
18.3722
18.3365
18.3029
18.2713
18.2416
18.2138
18.1876
18.163
18.1399
18.1182
18.0978
18.0785
18.0603
18.0431
18.0268
18.0113
17.9966
17.9825
17.9691
17.9562
17.9438
17.9318
17.9203
17.9091
17.8984
17.8879
17.8778
17.868
17.8585
17.8494
17.8407
17.8325
17.8247
17.8176
17.8112
17.8058
17.8015
17.7985
17.7972
17.798
17.8013
17.8074
17.8168
17.8295
17.8449
17.8611
17.8731
17.8721
17.8382
-5.60051
-5.87986
-6.18536
-6.41321
-6.59275
-6.76466
-6.95051
-7.16479
-7.4203
-7.72828
-8.09775
-8.53503
-9.04351
-9.62352
-10.2725
-10.9855
-11.7558
-12.576
-13.4386
-14.3369
-15.2649
-16.2179
-17.1922
-18.1846
-19.1927
-20.214
-21.2457
-22.285
-23.3281
-24.3709
-25.4082
-26.4343
-27.4425
-28.4256
-29.3758
-30.2849
-31.1445
-31.9462
-32.6816
-33.3429
-33.9226
-34.414
-34.8113
-35.1097
-35.3052
-35.3952
-35.3781
-35.2538
-35.0236
-34.6893
-34.2542
-33.7219
-33.0973
-32.3858
-31.5934
-30.7265
-29.7917
-28.7956
-27.7447
-26.645
-25.5019
-24.3195
-23.1007
-21.8468
-20.5566
-19.2264
-17.8493
-16.4146
-14.908
-13.3114
-11.6042
-9.76573
-7.77996
-5.6416
-3.36193
-0.973108
1.47118
3.90242
6.24967
8.45029
10.4566
12.2417
13.7966
15.1273
16.2503
17.1872
17.9614
18.5954
19.1098
19.5226
19.8493
20.1032
20.2954
20.4353
20.5312
20.5898
20.6172
20.6185
20.5981
20.5599
20.5072
20.4428
20.3693
20.2888
20.2032
20.114
20.0225
19.9298
19.837
19.7448
19.6538
19.5645
19.4774
19.3929
19.311
19.232
19.1561
19.0832
19.0134
18.9467
18.883
18.8222
18.7642
18.709
18.6565
18.6065
18.559
18.514
18.4712
18.4308
18.3925
18.3563
18.3222
18.2901
18.2598
18.2314
18.2046
18.1794
18.1557
18.1335
18.1125
18.0927
18.074
18.0564
18.0396
18.0238
18.0087
17.9942
17.9805
17.9673
17.9546
17.9424
17.9305
17.9191
17.9081
17.8973
17.8869
17.8768
17.8669
17.8573
17.8481
17.8392
17.8306
17.8225
17.815
17.808
17.8017
17.7964
17.7922
17.7892
17.7879
17.7883
17.7907
17.7952
17.8013
17.8081
17.8131
17.811
17.7936
17.7443
-5.32308
-5.59068
-5.88404
-6.1109
-6.29814
-6.48386
-6.68936
-6.9295
-7.21727
-7.56373
-7.97716
-8.46254
-9.02137
-9.65183
-10.3494
-11.1078
-11.9195
-12.7771
-13.6738
-14.6035
-15.5614
-16.5434
-17.5465
-18.568
-19.6053
-20.6559
-21.7168
-22.7847
-23.8555
-24.9244
-25.9861
-27.0343
-28.0621
-29.0622
-30.0266
-30.9471
-31.8155
-32.6233
-33.3626
-34.0257
-34.6053
-35.0952
-35.4897
-35.7843
-35.9753
-36.0604
-36.0381
-35.9086
-35.6732
-35.3341
-34.8943
-34.3581
-33.7304
-33.0169
-32.2236
-31.3573
-30.4248
-29.4329
-28.3884
-27.2976
-26.1661
-24.9986
-23.7984
-22.567
-21.3041
-20.0064
-18.6675
-17.2771
-15.8205
-14.2783
-12.6272
-10.8416
-8.89901
-6.78637
-4.50825
-2.09385
0.402739
2.90888
5.34391
7.63538
9.72744
11.5873
13.2046
14.5864
15.751
16.7223
17.5258
18.1855
18.7231
19.1574
19.5043
19.7772
19.9875
20.1446
20.2569
20.3311
20.3734
20.3887
20.3817
20.3562
20.3156
20.2627
20.2001
20.1299
20.054
19.974
19.8913
19.807
19.722
19.6373
19.5533
19.4707
19.3899
19.3113
19.2351
19.1615
19.0906
19.0224
18.9571
18.8946
18.8349
18.7779
18.7235
18.6717
18.6223
18.5754
18.5307
18.4882
18.4479
18.4097
18.3734
18.3392
18.3068
18.2762
18.2474
18.2203
18.1947
18.1706
18.1478
18.1264
18.1062
18.0872
18.0691
18.052
18.0358
18.0204
18.0057
17.9917
17.9782
17.9653
17.9528
17.9408
17.9291
17.9178
17.9069
17.8962
17.8858
17.8756
17.8657
17.856
17.8466
17.8375
17.8287
17.8202
17.8121
17.8045
17.7974
17.7911
17.7855
17.7808
17.7773
17.7748
17.7735
17.7731
17.773
17.7717
17.7665
17.7523
17.7212
17.6598
-5.27497
-5.51147
-5.77171
-5.98443
-6.17149
-6.36465
-6.58284
-6.83972
-7.14724
-7.5154
-7.95146
-8.4594
-9.03982
-9.69023
-10.4058
-11.1802
-12.0065
-12.878
-13.7884
-14.7325
-15.7059
-16.7051
-17.727
-18.7688
-19.8278
-20.901
-21.9852
-23.0765
-24.1704
-25.2618
-26.3448
-27.4129
-28.4591
-29.4758
-30.4548
-31.3882
-32.2675
-33.0846
-33.8316
-34.5009
-35.0857
-35.5796
-35.9775
-36.2749
-36.4684
-36.5556
-36.5355
-36.4084
-36.1755
-35.839
-35.4022
-34.8696
-34.246
-33.5375
-32.7503
-31.8911
-30.967
-29.985
-28.9519
-27.8741
-26.7576
-25.6071
-24.4264
-23.2173
-21.9798
-20.7113
-19.4057
-18.0532
-16.6391
-15.1435
-13.5417
-11.8054
-9.90695
-7.82689
-5.56296
-3.13916
-0.608539
1.95201
4.45409
6.81573
8.97447
10.8939
12.5625
13.9884
15.1913
16.1967
17.0313
17.7199
18.2849
18.745
19.1164
19.4126
19.6448
19.8228
19.9545
20.0472
20.1067
20.1384
20.1467
20.1356
20.1085
20.0685
20.0179
19.9591
19.894
19.8242
19.751
19.6757
19.5992
19.5224
19.446
19.3706
19.2966
19.2243
19.1541
19.0862
19.0206
18.9576
18.8971
18.8391
18.7836
18.7307
18.6801
18.6318
18.5858
18.542
18.5003
18.4606
18.4229
18.387
18.353
18.3208
18.2903
18.2614
18.2341
18.2084
18.184
18.1611
18.1394
18.1189
18.0995
18.0812
18.0639
18.0474
18.0317
18.0168
18.0025
17.9888
17.9757
17.9631
17.9509
17.939
17.9276
17.9164
17.9055
17.8949
17.8845
17.8744
17.8644
17.8546
17.8451
17.8357
17.8266
17.8177
17.8091
17.8008
17.7929
17.7855
17.7786
17.7722
17.7664
17.7611
17.7561
17.7511
17.745
17.7362
17.7219
17.6971
17.6548
17.5838
-5.36909
-5.55836
-5.77278
-5.96205
-6.14094
-6.33338
-6.55507
-6.81779
-7.13186
-7.50596
-7.94645
-8.45678
-9.03748
-9.68633
-10.399
-11.1701
-11.9934
-12.863
-13.7734
-14.7199
-15.6982
-16.7049
-17.7367
-18.7906
-19.8634
-20.9519
-22.0524
-23.1606
-24.2716
-25.38
-26.4796
-27.5637
-28.625
-29.6559
-30.6482
-31.5938
-32.4844
-33.312
-34.0688
-34.7473
-35.3408
-35.8432
-36.2495
-36.5553
-36.7573
-36.8534
-36.8425
-36.725
-36.5021
-36.1759
-35.75
-35.2288
-34.6173
-33.9216
-33.148
-32.3035
-31.3949
-30.4295
-29.4139
-28.3548
-27.258
-26.1285
-24.97
-23.7845
-22.5725
-21.3313
-20.0557
-18.7359
-17.3576
-15.9005
-14.3388
-12.6426
-10.7808
-8.72874
-6.47915
-4.05224
-1.50106
1.09342
3.63707
6.042
8.24185
10.1987
11.9014
13.3588
14.5921
15.6274
16.4917
17.2099
17.8039
18.2923
18.6911
19.0134
19.2704
19.4718
19.6256
19.739
19.818
19.8679
19.8933
19.8983
19.8863
19.8603
19.823
19.7767
19.7233
19.6644
19.6016
19.536
19.4687
19.4005
19.3322
19.2644
19.1976
19.1321
19.0683
19.0063
18.9465
18.8888
18.8334
18.7802
18.7292
18.6805
18.6339
18.5895
18.5471
18.5066
18.468
18.4313
18.3963
18.363
18.3313
18.3012
18.2727
18.2456
18.22
18.1957
18.1727
18.1509
18.1303
18.1108
18.0924
18.0749
18.0582
18.0424
18.0273
18.0129
17.9991
17.9858
17.973
17.9607
17.9488
17.9372
17.9259
17.9149
17.9041
17.8936
17.8832
17.8731
17.863
17.8532
17.8434
17.8338
17.8244
17.8151
17.806
17.7971
17.7883
17.7798
17.7715
17.7634
17.7553
17.7473
17.7388
17.7292
17.7176
17.702
17.6795
17.6456
17.5939
17.5152
-5.50924
-5.63968
-5.80431
-5.96571
-6.13027
-6.31478
-6.53192
-6.79131
-7.10153
-7.47001
-7.90237
-8.40192
-8.96949
-9.60356
-10.3008
-11.0566
-11.8661
-12.7239
-13.6252
-14.5654
-15.5405
-16.5469
-17.581
-18.6395
-19.7189
-20.8156
-21.9255
-23.0438
-24.1655
-25.2848
-26.3953
-27.4903
-28.5623
-29.6036
-30.6062
-31.5619
-32.4625
-33.3002
-34.0671
-34.7561
-35.3605
-35.8744
-36.2927
-36.6113
-36.827
-36.9376
-36.9422
-36.8411
-36.6353
-36.3271
-35.9199
-35.4182
-34.8271
-34.1525
-33.4008
-32.5789
-31.6938
-30.7523
-29.7613
-28.7272
-27.6556
-26.5514
-25.4184
-24.2587
-23.0727
-21.858
-20.6095
-19.3176
-17.968
-16.5404
-15.0083
-13.3399
-11.5016
-9.46621
-7.22393
-4.79453
-2.23298
0.376075
2.93493
5.35351
7.56539
9.53395
11.2499
12.7235
13.9764
15.0348
15.9248
16.6706
17.293
17.8102
18.2372
18.5868
18.8701
19.0964
19.2739
19.4095
19.5095
19.5791
19.6231
19.6454
19.6497
19.639
19.6161
19.5832
19.5424
19.4953
19.4436
19.3884
19.3308
19.2718
19.2121
19.1524
19.0932
19.0349
18.9778
18.9222
18.8684
18.8164
18.7662
18.7181
18.6719
18.6276
18.5853
18.5448
18.5061
18.4692
18.4339
18.4002
18.3681
18.3375
18.3083
18.2805
18.254
18.2289
18.205
18.1823
18.1607
18.1402
18.1208
18.1024
18.0848
18.0681
18.0523
18.0371
18.0226
18.0087
17.9954
17.9826
17.9702
17.9582
17.9465
17.9352
17.9241
17.9133
17.9026
17.8921
17.8818
17.8717
17.8616
17.8516
17.8417
17.8319
17.8222
17.8125
17.8028
17.7932
17.7836
17.774
17.7644
17.7545
17.7444
17.7336
17.7217
17.7079
17.6911
17.6693
17.6396
17.5979
17.5382
17.4533
-5.61148
-5.67583
-5.79677
-5.92982
-6.07681
-6.24922
-6.45695
-6.70735
-7.00741
-7.36351
-7.78073
-8.26238
-8.80979
-9.4223
-10.0976
-10.8324
-11.6223
-12.4628
-13.3495
-14.278
-15.2442
-16.2443
-17.2747
-18.3315
-19.411
-20.5091
-21.6213
-22.7429
-23.8684
-24.9919
-26.107
-27.2068
-28.284
-29.3308
-30.3394
-31.3017
-32.2096
-33.0554
-33.8314
-34.5307
-35.1466
-35.6734
-36.106
-36.4405
-36.6736
-36.8034
-36.8286
-36.7496
-36.5672
-36.2837
-35.9024
-35.4277
-34.8646
-34.219
-33.4971
-32.7056
-31.8514
-30.9411
-29.9814
-28.9784
-27.9377
-26.8639
-25.7604
-24.6295
-23.4711
-22.2829
-21.0596
-19.7914
-18.464
-17.0563
-15.5412
-13.8855
-12.0547
-10.0212
-7.77651
-5.34333
-2.78076
-0.176774
2.37009
4.77184
6.96601
8.92026
10.6284
12.1022
13.3633
14.4368
15.3472
16.117
16.7657
17.3101
17.7646
18.1413
18.4509
18.7026
18.9042
19.0629
19.1846
19.2749
19.3383
19.3789
19.4004
19.4059
19.3982
19.3795
19.3521
19.3176
19.2775
19.2334
19.1861
19.1368
19.0862
19.035
18.9838
18.933
18.883
18.8341
18.7866
18.7405
18.6959
18.653
18.6118
18.5723
18.5343
18.498
18.4632
18.4299
18.3981
18.3676
18.3385
18.3107
18.2841
18.2587
18.2344
18.2113
18.1892
18.1681
18.1481
18.129
18.1108
18.0934
18.0769
18.0611
18.046
18.0316
18.0177
18.0044
17.9916
17.9792
17.9672
17.9555
17.9442
17.9331
17.9222
17.9115
17.901
17.8906
17.8804
17.8702
17.8601
17.85
17.84
17.83
17.8199
17.8098
17.7997
17.7894
17.779
17.7683
17.7573
17.7458
17.7335
17.7201
17.705
17.6874
17.6658
17.6384
17.6023
17.5538
17.4876
17.3975
-5.61627
-5.6167
-5.70816
-5.81168
-5.93944
-6.09904
-6.29583
-6.53513
-6.82269
-7.16404
-7.56386
-8.02551
-8.55074
-9.13971
-9.79109
-10.5023
-11.27
-12.0901
-12.9586
-13.8714
-14.8243
-15.8134
-16.8347
-17.8841
-18.9577
-20.051
-21.1593
-22.2776
-23.4003
-24.5215
-25.6348
-26.7333
-27.8098
-28.8567
-29.8662
-30.8306
-31.742
-32.5928
-33.3755
-34.0834
-34.71
-35.2497
-35.6975
-36.0494
-36.3023
-36.4542
-36.5039
-36.4515
-36.2977
-36.0447
-35.6956
-35.2547
-34.7268
-34.1175
-33.4328
-32.6791
-31.8629
-30.9908
-30.069
-29.1033
-28.0989
-27.06
-25.9899
-24.8902
-23.7607
-22.5985
-21.3978
-20.1485
-18.8352
-17.4363
-15.9235
-14.2636
-12.4226
-10.3757
-8.11963
-5.6836
-3.13234
-0.555793
1.95037
4.30479
6.4528
8.36855
10.0497
11.5092
12.7677
13.8482
14.7731
15.5624
16.2339
16.8029
17.2829
17.6852
18.0201
18.2964
18.522
18.7035
18.8472
18.9584
19.0416
19.1011
19.1404
19.1627
19.1707
19.1669
19.1534
19.132
19.1042
19.0716
19.0351
18.9959
18.9548
18.9126
18.8697
18.8268
18.7842
18.7423
18.7013
18.6614
18.6227
18.5853
18.5492
18.5145
18.4812
18.4491
18.4184
18.389
18.3607
18.3336
18.3076
18.2827
18.2588
18.2358
18.2139
18.1928
18.1727
18.1534
18.1349
18.1172
18.1003
18.0841
18.0686
18.0538
18.0395
18.0258
18.0126
17.9999
17.9876
17.9756
17.964
17.9527
17.9417
17.9309
17.9202
17.9097
17.8994
17.8891
17.8789
17.8687
17.8586
17.8484
17.8382
17.828
17.8176
17.8072
17.7965
17.7856
17.7744
17.7627
17.7504
17.7373
17.723
17.7072
17.6891
17.6677
17.6418
17.6094
17.5677
17.5133
17.4415
17.3473
-5.52139
-5.45336
-5.49937
-5.58458
-5.69943
-5.84817
-6.03438
-6.26242
-6.53723
-6.86376
-7.24638
-7.6885
-8.19222
-8.75827
-9.38603
-10.0737
-10.8184
-11.617
-12.4654
-13.3599
-14.2963
-15.2705
-16.2783
-17.3155
-18.3777
-19.4604
-20.5587
-21.6673
-22.7807
-23.893
-24.9977
-26.0883
-27.1575
-28.1982
-29.2028
-30.1638
-31.0737
-31.925
-32.7107
-33.4242
-34.0593
-34.6103
-35.0726
-35.4422
-35.7161
-35.8919
-35.9686
-35.9462
-35.8253
-35.6079
-35.297
-34.8963
-34.4103
-33.8444
-33.2042
-32.4957
-31.7249
-30.8981
-30.0208
-29.0986
-28.136
-27.137
-26.1039
-25.038
-23.9383
-22.8014
-21.6204
-20.3841
-19.0759
-17.6729
-16.1459
-14.4619
-12.5902
-10.5125
-8.23567
-5.79951
-3.27544
-0.752849
1.68041
3.95487
6.02746
7.88064
9.51605
10.947
12.1921
13.2715
14.2044
15.0081
15.6983
16.2887
16.7914
17.2174
17.5761
17.8761
18.1249
18.3291
18.4947
18.6269
18.7303
18.8091
18.8667
18.9064
18.9309
18.9426
18.9437
18.936
18.9212
18.9007
18.8756
18.8471
18.8161
18.7833
18.7493
18.7147
18.68
18.6454
18.6113
18.5779
18.5454
18.5138
18.4832
18.4536
18.4251
18.3976
18.3712
18.3457
18.3212
18.2976
18.2749
18.2531
18.232
18.2117
18.1922
18.1734
18.1553
18.1378
18.121
18.1049
18.0893
18.0743
18.0599
18.046
18.0327
18.0197
18.0072
17.9951
17.9834
17.9719
17.9608
17.9499
17.9391
17.9286
17.9182
17.9079
17.8977
17.8875
17.8773
17.8672
17.857
17.8468
17.8365
17.826
17.8154
17.8045
17.7934
17.7819
17.7698
17.7572
17.7436
17.729
17.7129
17.6947
17.6738
17.6491
17.6193
17.5823
17.5358
17.4763
17.3999
17.3022
-5.29571
-5.18569
-5.2074
-5.27501
-5.37481
-5.51058
-5.68534
-5.90251
-6.16611
-6.4804
-6.84933
-7.27609
-7.76282
-8.31048
-8.91885
-9.58656
-10.3114
-11.0902
-11.9196
-12.7958
-13.7147
-14.6721
-15.6637
-16.6851
-17.7319
-18.7992
-19.8822
-20.9755
-22.0736
-23.1707
-24.2606
-25.3367
-26.3923
-27.4204
-28.4139
-29.3654
-30.268
-31.1146
-31.8983
-32.6129
-33.2525
-33.8117
-34.2859
-34.6711
-34.9645
-35.1639
-35.268
-35.2766
-35.1902
-35.0105
-34.7401
-34.3825
-33.9418
-33.4228
-32.8307
-32.1709
-31.4492
-30.6708
-29.8412
-28.9649
-28.0461