/*--------------------------------*- C++ -*----------------------------------*\
  =========                 |
  \\      /  F ield         | OpenFOAM: The Open Source CFD Toolbox
   \\    /   O peration     | Website:  https://openfoam.org
    \\  /    A nd           | Version:  9
     \\/     M anipulation  |
\*---------------------------------------------------------------------------*/
FoamFile
{
    format      ascii;
    class       volScalarField;
    location    "0.12";
    object      epsilonU;
}
// * * * * * * * * * * * * * * * * * * * * * * * * * * * * * * * * * * * * * //

dimensions      [0 2 -3 0 0 0 0];

internalField   nonuniform List<scalar> 
12225
(
222.789
168.123
130.34
104.793
88.3736
78.9247
74.8747
75.0037
78.3227
84.0142
91.4039
99.9494
109.237
118.984
129.034
139.343
149.993
163.796
40.01
48.9347
53.1058
57.7125
65.1746
77.0348
94.5254
118.601
149.849
188.445
234.22
286.83
345.962
411.538
483.837
563.418
650.923
747.118
19.923
23.9689
26.8128
29.1696
31.6398
34.6868
38.6998
44.0115
50.893
59.563
70.2207
83.1021
98.5534
117.112
139.589
167.117
201.18
243.662
15.8933
17.2295
18.4076
19.4347
20.4192
21.4776
22.7166
24.2294
26.0939
28.3779
31.1504
34.5014
38.5669
43.5598
49.8089
57.793
68.1991
81.7913
14.8206
15.0587
15.3811
15.7149
16.0508
16.4044
16.8002
17.2653
17.8251
18.5034
19.3249
20.3207
21.5358
23.0391
24.9373
27.3921
30.6456
34.989
14.5167
14.3186
14.2222
14.1852
14.1853
14.2137
14.2698
14.3577
14.4842
14.6569
14.8849
15.1797
15.5572
16.0406
16.6643
17.4799
18.5632
20.0039
14.4328
14.0743
13.7886
13.5608
13.3781
13.2312
13.1146
13.0255
12.9638
12.9306
12.9286
12.9619
13.0365
13.1612
13.3485
13.6165
13.9906
14.4955
14.4109
13.9993
13.6377
13.3217
13.0459
12.8048
12.594
12.4103
12.2516
12.1168
12.006
11.92
11.8609
11.832
11.8381
11.8863
11.9859
12.144
14.4055
13.9782
13.59
13.2384
12.9206
12.6334
12.3742
12.1402
11.9296
11.7408
11.573
11.4259
11.2999
11.1959
11.1158
11.0622
11.0388
11.048
14.4042
13.9728
13.5763
13.2123
12.8781
12.5713
12.2898
12.0315
11.7948
11.5782
11.3808
11.2018
11.0408
10.8981
10.774
10.6696
10.5862
10.5249
14.4039
13.9714
13.5728
13.2049
12.8652
12.5512
12.2609
11.9924
11.744
11.5145
11.3028
11.108
10.9295
10.7671
10.6207
10.4904
10.3768
10.2803
14.4038
13.9711
13.572
13.2032
12.862
12.5459
12.2528
11.9808
11.7283
11.4939
11.2766
11.0754
10.8895
10.7185
10.5621
10.42
10.2924
10.1798
14.4037
13.971
13.5717
13.2027
12.8611
12.5443
12.2503
11.9771
11.7231
11.4869
11.2672
11.0632
10.8739
10.6988
10.5374
10.3892
10.2541
10.1327
14.4037
13.9709
13.5716
13.2026
12.8609
12.544
12.2499
11.9764
11.722
11.4852
11.2648
11.0598
10.8691
10.6922
10.5283
10.377
10.238
10.1117
14.4037
13.9709
13.5716
13.2026
12.8609
12.5442
12.2501
11.9767
11.7224
11.4856
11.2652
11.0599
10.8689
10.6913
10.5263
10.3735
10.2322
10.1031
14.4036
13.9708
13.5715
13.2026
12.861
12.5444
12.2505
11.9774
11.7233
11.4867
11.2665
11.0613
10.8702
10.6923
10.5268
10.373
10.2303
10.0993
14.4036
13.9707
13.5715
13.2026
12.8611
12.5447
12.251
11.9782
11.7244
11.4881
11.2681
11.063
10.872
10.6939
10.528
10.3734
10.2297
10.0972
14.4035
13.9706
13.5714
13.2025
12.8613
12.5451
12.2516
11.9791
11.7256
11.4896
11.2698
11.065
10.8739
10.6957
10.5294
10.3742
10.2294
10.0956
14.4034
13.9705
13.5713
13.2025
12.8614
12.5455
12.2523
11.9801
11.7269
11.4912
11.2717
11.067
10.8759
10.6975
10.5308
10.375
10.2293
10.0943
14.4033
13.9704
13.5712
13.2026
12.8617
12.5459
12.2531
11.9811
11.7281
11.4927
11.2733
11.0686
10.8775
10.6989
10.5319
10.3756
10.2292
10.0934
14.4033
13.9703
13.5712
13.2028
12.862
12.5465
12.2539
11.9821
11.7294
11.4941
11.2749
11.0703
10.8792
10.7005
10.5333
10.3767
10.2299
10.0936
14.4033
13.9704
13.5714
13.2032
12.8627
12.5476
12.2553
11.984
11.7317
11.497
11.2782
11.074
10.8833
10.7051
10.5382
10.3818
10.2353
10.099
14.4033
13.9707
13.5723
13.2049
12.8657
12.552
12.2615
11.9922
11.7422
11.5098
11.2934
11.0917
10.9034
10.7276
10.563
10.409
10.2646
10.1305
14.4039
13.9732
13.5785
13.2166
12.8844
12.5792
12.2982
12.039
11.7994
11.5775
11.3716
11.1801
11.0019
10.8356
10.6804
10.5352
10.3993
10.2733
14.4093
13.9931
13.6219
13.2901
12.9922
12.7231
12.4786
12.2549
12.0494
11.8596
11.6839
11.5209
11.3693
11.2284
11.0972
10.9752
10.8619
10.7576
14.4519
14.1235
13.8642
13.6513
13.4693
13.308
13.1612
13.0257
12.9
12.7836
12.6762
12.5781
12.4892
12.4097
12.3393
12.2781
12.2257
12.1828
14.7351
14.8106
14.9377
15.0546
15.1447
15.209
15.2545
15.2903
15.3252
15.3664
15.4195
15.4883
15.5753
15.682
15.8089
15.956
16.1228
16.3083
16.4014
17.9383
19.0585
19.8372
20.4022
20.8525
21.2598
21.6766
22.1405
22.6771
23.3027
24.0268
24.8534
25.7823
26.8107
27.9341
29.1472
30.4419
27.1789
32.5704
34.7988
35.8708
36.6949
37.698
39.1048
41.0374
43.558
46.6932
50.4464
54.8042
59.7403
65.218
71.194
77.6209
84.4574
91.6246
142.552
119.603
101.691
87.6282
76.5892
67.9677
61.3073
56.2535
52.5237
49.8878
48.1562
47.1702
46.7962
46.9208
47.4481
48.2965
49.3985
50.693
20.3359
51.0927
77.3843
83.7576
86.1524
88.349
91.5521
96.1591
100.564
102.452
100.008
91.2777
74.9872
52.3265
8.83949
8.12119
8.38105
8.88046
39.8977
38.9638
9.06956
9.03131
54.7609
154.206
277.276
411.494
543.815
664.626
767.748
849.93
910.193
949.194
968.665
970.986
958.852
935.027
902.151
862.613
818.469
771.369
725.359
680.962
638.237
597.246
558.042
520.656
485.095
451.347
419.385
389.168
360.644
333.751
308.413
284.542
262.039
240.793
220.69
201.623
183.499
166.254
149.86
134.326
119.692
106.019
93.3782
81.8463
71.5032
62.4621
55.0234
50.1874
49.3444
50.0043
51.1186
52.5667
54.3378
56.4435
58.9002
61.7241
64.9273
68.5096
72.4402
76.6122
80.7534
84.3125
86.3306
85.7613
81.9761
75.076
66.0315
56.3123
46.6766
10.0015
9.33888
8.99045
8.87643
8.94583
9.20048
9.60487
10.1792
11.0987
52.4584
59.7746
68.3386
77.3486
84.8159
88.5626
90.4244
99.8778
146.514
274.264
409.655
524.011
604.184
647.533
657.312
639.696
601.855
550.755
492.299
432.838
376.704
324.942
278.174
236.633
200.246
168.732
141.686
118.674
99.359
83.6891
72.378
69.63
81.9464
100.302
124.272
155.049
193.955
242.196
300.734
370.199
450.564
541.504
644.67
754.538
824.759
814.671
707.885
519.944
309.457
150.995
74.4195
11.8005
9.99112
9.29099
8.95298
8.73084
8.56611
8.42064
8.29609
8.14545
7.55018
6.67787
5.7123
4.76608
3.94753
3.32531
2.91858
2.73716
2.73567
2.87726
3.09804
3.29859
3.37287
3.31414
3.35689
3.63414
3.96823
4.38475
4.89593
5.33645
32.0615
95.2931
83.5113
69.4756
58.4536
49.7058
43.0753
38.5018
37.0575
39.1015
42.7947
45.8674
46.0569
41.6797
32.1375
26.4539
30.9798
47.5732
88.1891
135.53
156.588
173.046
194.924
220.971
244.369
261.242
269.695
269.33
260.808
245.453
224.944
201.103
175.755
150.624
127.243
106.864
90.3756
78.2593
70.5995
67.3317
65.9243
64.7202
63.6626
62.7287
61.9033
61.1756
60.539
59.9886
59.52
59.1278
58.8035
58.5337
58.2979
58.0664
57.7987
57.4434
56.9403
56.2251
55.237
53.9287
52.2759
50.2836
47.9882
45.453
42.759
39.9969
37.2595
34.6354
32.2055
30.0518
28.3865
27.0454
25.881
24.8708
24.0032
23.2688
22.6586
22.164
21.7763
21.4869
21.2872
21.1722
21.1468
21.2379
21.5273
22.3461
23.8803
25.2047
25.9744
26.2494
25.941
25.33
26.159
27.7875
29.4979
30.4642
29.9657
27.8215
24.5982
21.3631
18.895
17.2157
16.6158
17.4958
21.7775
35.5189
63.7046
100.084
130.866
156.336
169.36
168.16
155.427
135.348
112.111
89.4047
70.1358
56.1444
48.0786
45.3913
43.9325
42.8802
42.1859
41.7962
41.645
41.6503
41.711
41.7084
41.5216
41.0639
40.3258
39.3912
38.491
37.5578
36.6736
35.9814
35.5855
35.5485
35.8979
36.6403
37.7612
39.2329
41.1574
44.3107
58.3235
91.1745
122.538
139.049
140.09
136.597
136.435
134.395
117.335
86.6845
62.071
51.4049
50.1014
50.9959
50.2777
47.4517
42.6814
36.7318
30.7382
25.2516
20.5771
16.6426
13.3517
10.6699
8.56925
7.00891
5.95189
5.3918
5.28309
5.5004
6.2483
8.3714
10.7334
9.19064
7.01291
6.29605
49.4441
73.6572
61.1901
50.6541
41.0051
33.0389
27.2648
23.6507
22.4801
23.889
27.2856
31.4453
34.9822
39.4011
52.9298
79.5982
128.917
146.831
144.039
143.209
142.946
143.82
145.598
146.345
143.95
137.604
127.471
114.422
99.7534
84.8908
71.1059
59.3049
49.9369
43.0312
38.3218
35.3922
33.7917
33.1115
33.0243
33.2226
33.4542
33.6862
33.916
34.1498
34.4
34.684
35.022
35.4347
35.9415
36.5576
37.2925
38.1476
39.113
40.1657
41.2657
42.3548
43.3564
44.1792
44.7263
44.9075
44.6548
43.9365
42.7639
41.1898
39.2986
37.1908
34.9681
32.7199
30.5103
28.399
26.6184
25.0364
23.6032
22.3085
21.1433
20.0992
19.1678
18.3419
17.6155
16.9845
16.447
16.0047
15.6636
15.4362
15.3423
15.4049
15.6189
15.9257
16.2649
16.6068
16.8635
17.0501
17.2729
17.5954
18.0028
18.3965
18.5624
18.2436
17.3397
16.0977
14.9738
14.6846
16.0523
20.7879
32.9317
53.0612
73.7769
85.3313
91.0295
91.6694
85.2155
73.3004
59.3322
46.4963
36.6072
30.0463
26.318
24.6166
24.1766
24.4319
24.8909
25.5088
26.2624
27.1283
28.0772
29.0671
30.0347
30.8904
31.5195
31.8005
31.6298
30.8967
29.7952
28.435
26.9265
25.389
23.9108
22.5481
21.3288
20.2594
19.3346
18.547
17.906
17.4815
17.6316
19.8668
28.1508
39.9649
50.6344
59.0161
67.9625
81.9336
102.302
118.432
118.968
111.579
105.365
99.4444
89.9743
76.4413
62.9071
50.9604
41.2423
33.6828
27.7842
23.0089
18.9355
15.3164
12.0979
9.35913
7.24341
5.92473
5.52317
6.03632
7.8913
11.4182
12.276
8.38994
6.39778
5.92438
59.4137
61.1972
58.9626
47.1417
34.2978
25.0334
19.0361
15.4022
16.273
19.3685
24.1013
31.4204
44.6083
67.9949
102.322
132.122
135.55
125.655
115.733
109.178
104.48
100.552
96.3103
90.7476
83.4173
74.6284
65.1628
55.958
47.8119
41.2037
36.2651
32.8632
30.7216
29.5236
28.9778
28.8483
28.9605
29.1936
29.4567
29.6264
29.6737
29.5947
29.3976
29.1031
28.7437
28.3625
28.0097
27.7383
27.6001
27.6409
27.8974
28.3939
29.1408
30.132
31.3418
32.7213
34.1948
35.659
36.9881
38.0459
38.7065
38.8769
38.5162
37.6439
36.3326
34.6883
32.8267
30.8508
28.8329
26.9445
25.2762
23.7407
22.3293
21.0379
19.8607
18.791
17.8223
16.9486
16.1654
15.47
14.8621
14.3444
13.9217
13.5999
13.384
13.2753
13.2639
13.325
13.4257
13.5363
13.6348
13.7171
13.793
13.8708
13.9532
13.9913
13.9342
13.7929
13.6124
13.553
14.0643
16.0059
20.9159
31.0266
45.1641
57.7424
63.9037
65.2937
63.7035
58.3718
49.5587
39.7308
31.2638
25.203
21.4358
19.3562
18.3386
17.9264
17.853
17.9913
18.2626
18.652
19.1522
19.7597
20.4702
21.2704
22.1279
22.9812
23.7347
24.2645
24.4319
24.1215
23.4473
22.4937
21.3736
20.1965
19.0482
17.9859
17.039
16.2145
15.5047
14.8978
14.3841
13.9617
13.6615
13.6119
14.407
17.1545
21.8232
27.4555
33.9692
43.5271
59.9596
84.1338
107.931
121.554
124.256
119.291
108.257
91.5531
72.1047
55.1241
41.8969
32.1284
25.1128
20.1185
16.4884
13.6781
11.2957
9.14969
7.30039
6.06716
5.85868
6.90671
9.45014
12.4926
11.3668
7.38656
5.96227
5.64394
68.1408
71.2686
65.6052
47.5821
33.1202
24.8715
21.0885
21.1637
22.548
26.7638
34.8542
48.717
69.7031
94.6132
111.974
112.907
103.432
93.2255
85.4573
79.7901
75.0034
70.2406
64.9836
59.1195
52.9524
47.0215
41.8364
37.7143
34.7402
32.8178
31.7518
31.3203
31.321
31.5915
32.0124
32.4998
32.9944
33.4527
33.7206
33.76
33.5431
33.0521
32.285
31.2598
30.0177
28.6225
27.1581
25.7216
24.4147
23.3333
22.5574
22.1441
22.1252
22.5087
23.2817
24.4105
25.8368
27.4707
29.1858
30.8232
32.2069
33.1736
33.6056
33.4583
32.7683
31.6339
30.1803
28.5275
26.7944
25.2045
23.7077
22.303
20.9958
19.7868
18.6735
17.6515
16.716
15.8625
15.0873
14.388
13.7639
13.2162
12.7477
12.3624
12.0644
11.8558
11.7329
11.6834
11.6873
11.7215
11.7655
11.8074
11.8452
11.8812
11.9137
11.9422
11.9791
12.1029
12.4979
13.4695
15.6183
20.0838
28.2907
39.2435
48.161
51.9922
52.1609
50.536
46.6757
40.3334
32.8494
26.158
21.2476
18.0948
16.2227
15.141
14.514
14.1592
13.9925
13.9729
14.0523
14.2199
14.4748
14.8254
15.2843
15.8612
16.5502
17.3177
18.092
18.7581
19.1639
19.1864
18.8712
18.2853
17.5243
16.6901
15.8685
15.1189
14.4732
13.9392
13.5085
13.1633
12.8833
12.6536
12.4728
12.3512
12.3406
12.7041
13.829
16.0071
19.4551
24.8366
33.8858
48.5182
67.1802
83.6759
92.6569
92.896
85.8507
74.5255
61.8513
48.9688
37.7085
28.6575
21.7413
16.6343
12.9451
10.296
8.36567
6.9229
5.88842
5.41961
5.93889
7.75893
10.5652
12.4716
10.2733
6.80316
5.7166
5.4345
76.2703
83.8372
72.0025
52.8279
39.2112
32.2871
30.7733
31.6497
35.1705
42.2044
53.2667
67.6457
81.9123
90.562
90.5749
84.2984
76.4162
69.7704
64.6328
60.359
56.3324
52.2994
48.3012
44.5692
41.3876
38.9639
37.3673
36.5416
36.3513
36.6329
37.2313
38.0203
38.9064
39.8228
40.7181
41.5474
42.2652
42.8065
43.1145
43.1767
42.9311
42.3178
41.2871
39.8077
37.8765
35.5285
32.8467
29.9658
27.0647
24.3458
22.0007
20.1756
18.9496
18.3353
18.3003
18.791
19.7453
21.0909
22.7291
24.519
26.2742
27.7839
28.8531
29.3494
29.2458
28.61
27.5625
26.2365
24.8731
23.5213
22.2038
20.9447
19.7565
18.6444
17.6091
16.6489
15.761
14.9423
14.19
13.5019
12.8769
12.3152
11.8182
11.3886
11.0294
10.7432
10.5311
10.3906
10.3157
10.2958
10.3168
10.3633
10.4225
10.4885
10.5643
10.6676
10.8532
11.2426
12.0957
13.8832
17.4403
23.9558
33.4158
41.9682
45.1957
44.607
43.038
40.439
36.0224
30.2141
24.4407
19.8533
16.7109
14.7123
13.4482
12.6211
12.0681
11.7087
11.5003
11.4091
11.3863
11.4198
11.5109
11.6739
11.9338
12.3172
12.8406
13.4954
14.234
14.9555
15.5031
15.7484
15.705
15.4034
14.9209
14.3523
13.7845
13.281
12.8772
12.5831
12.3892
12.2743
12.2129
12.1807
12.1579
12.1302
12.089
12.0532
12.159
12.6424
13.8691
16.3973
21.0273
28.5652
38.6683
48.7421
55.4229
56.9281
53.6091
47.2409
40.1561
33.7231
27.6213
22.1681
17.5183
13.7123
10.7105
8.41928
6.72662
5.53721
4.83176
4.81994
5.94219
8.41425
11.234
12.1484
9.53523
6.59045
5.5739
5.2696
84.3948
94.5814
80.5213
60.9003
48.9948
44.3849
43.7405
45.5515
50.0336
56.6356
64.161
70.6246
73.983
73.3545
69.538
64.3322
59.3441
55.2108
51.7799
48.7729
46.0782
43.7509
41.8969
40.5963
39.8667
39.6602
39.8803
40.4114
41.1447
41.9967
42.9145
43.87
44.8492
45.8405
46.8252
47.7733
48.6403
49.3694
49.9991
50.4579
50.6672
50.5514
50.0395
49.062
47.5471
45.4227
42.6322
39.1722
35.1446
30.7957
26.5024
22.6835
19.6671
17.5968
16.4367
16.0538
16.3025
17.0731
18.2824
19.8329
21.5733
23.2902
24.7432
25.7125
26.0873
25.887
25.2067
24.2661
23.1922
22.0567
20.9134
19.7956
18.7222
17.703
16.7422
15.8411
14.9989
14.2144
13.4858
12.8117
12.1908
11.6228
11.1083
10.649
10.2478
9.90853
9.63527
9.43135
9.29816
9.23387
9.23253
9.28417
9.37696
9.50235
9.6633
9.88483
10.2342
10.8598
12.088
14.5459
19.2139
26.8871
35.8244
41.0144
40.6381
38.3999
36.4126
33.5545
29.2691
24.3001
19.8228
16.4727
14.2089
12.7102
11.6872
10.9683
10.4667
10.1319
9.92556
9.81025
9.73733
9.69206
9.67492
9.7029
9.80802
10.0296
10.4012
10.9347
11.6053
12.3249
12.9235
13.3271
13.484
13.3982
13.1286
12.7628
12.3889
12.0751
11.8617
11.761
11.763
11.843
11.9697
12.1123
12.244
12.3416
12.3821
12.3439
12.2307
12.1544
12.3232
13.1026
15.0555
18.6978
23.8289
29.1497
32.9269
34.1183
32.8122
29.8658
26.2632
22.6386
19.4141
16.4478
13.7137
11.2525
9.12165
7.36159
5.98106
4.97475
4.40289
4.52919
5.88347
8.66024
11.466
11.8097
9.1541
6.58294
5.52602
5.15336
91.0343
105.72
90.134
71.1584
60.4667
56.1407
54.6119
55.4183
57.5214
59.9387
61.7584
62.301
61.3014
58.93
55.6958
52.2627
49.1566
46.5729
44.4996
42.9169
41.8205
41.1824
40.9359
40.993
41.2637
41.6672
42.141
42.6478
43.1773
43.7415
44.3642
45.0707
45.8777
46.7883
47.7888
48.8466
49.9105
50.9812
51.994
52.8518
53.4625
53.7545
53.6871
53.2506
52.4472
51.2523
49.5699
47.2141
43.9587
39.6765
34.5194
29.0115
23.9132
19.879
17.1733
15.6804
15.1015
15.1848
15.7962
16.8658
18.3014
19.9234
21.4883
22.722
23.4198
23.5567
23.2334
22.6018
21.7745
20.839
19.8571
18.8693
17.9005
16.9652
16.0712
15.2226
14.421
13.6669
12.9599
12.2995
11.6851
11.1163
10.5933
10.1173
9.69092
9.31826
9.00507
8.75801
8.58359
8.48669
8.46904
8.52824
8.65846
8.85443
9.12005
9.48035
10.0018
10.8478
12.4007
15.3916
20.7816
28.706
36.1579
38.5358
36.3268
33.6807
31.6334
28.8265
24.8996
20.6757
17.0846
14.4664
12.6702
11.4238
10.5313
9.88815
9.43726
9.13514
8.94194
8.81779
8.71839
8.62621
8.53916
8.47348
8.46426
8.55881
8.80313
9.22303
9.81397
10.4688
11.1001
11.6056
11.9066
11.9827
11.8744
11.6614
11.433
11.2628
11.196
11.2472
11.4048
11.6397
11.9149
12.1942
12.4478
12.6513
12.7814
12.8129
12.7201
12.514
12.3003
12.2674
12.7241
14.0758
16.4392
19.216
21.4196
22.3913
22.0896
20.8844
19.215
17.3823
15.5287
13.6895
11.878
10.1245
8.48162
7.01108
5.76943
4.81308
4.2493
4.36496
5.70749
8.52335
11.3143
11.4834
9.00725
6.68159
5.55358
5.10234
96.3634
116.086
100.129
81.0136
69.3637
62.5167
59.0299
57.2518
56.2212
55.3815
54.4303
53.2011
51.5918
49.5867
47.3384
45.1495
43.3127
41.9875
41.2037
40.8966
40.9317
41.1505
41.4173
41.6442
41.7916
41.859
41.8744
41.8843
41.9442
42.1102
42.4308
42.9422
43.6643
44.5979
45.7229
46.9957
48.3813
49.8843
51.3878
52.7521
53.8257
54.4703
54.5979
54.2074
53.3989
52.3393
51.1673
49.8618
48.1477
45.5394
41.5785
36.215
30.0851
24.3131
19.8524
17.0232
15.5189
14.89
14.873
15.3755
16.3607
17.6921
19.1461
20.451
21.3016
21.6765
21.6237
21.2368
20.6177
19.8539
19.0115
18.136
17.2572
16.3937
15.5566
14.7528
13.9859
13.2581
12.5704
11.9233
11.3169
10.7512
10.2265
9.74369
9.30503
8.91463
8.5788
8.30597
8.10591
7.9885
7.96231
8.03349
8.20552
8.48082
8.86559
9.37855
10.0758
11.1256
12.9457
16.3
21.9949
29.5221
35.3108
35.7733
32.7595
30.0861
28.156
25.6029
22.0933
18.3812
15.3877
13.2159
11.6879
10.5886
9.78097
9.19287
8.77937
8.50121
8.31612
8.1835
8.06703
7.9476
7.8191
7.69467
7.6092
7.61327
7.76098
8.08467
8.56878
9.17412
9.8156
10.3853
10.7899
10.9871
10.9995
10.8992
10.777
10.712
10.7545
10.9199
11.193
11.5384
11.9125
12.2748
12.5949
12.8527
13.0336
13.122
13.0961
12.9261
12.635
12.3119
12.1107
12.2625
12.9847
14.1916
15.4312
16.2426
16.448
16.126
15.4439
14.537
13.4771
12.2919
11.0003
9.63741
8.26217
6.94852
5.77306
4.81718
4.20928
4.23481
5.42393
8.08343
10.8415
11.1176
8.96804
6.8315
5.64063
5.09375
99.4706
123.896
107.695
87.0609
72.5361
63.6712
58.0318
54.1898
51.4436
49.4351
47.914
46.6228
45.321
43.9048
42.4836
41.3021
40.5695
40.3435
40.5216
40.9031
41.2759
41.4844
41.4564
41.1934
40.7456
40.1877
39.6017
39.0665
38.6526
38.4192
38.4132
38.6679
39.2041
40.0289
41.1337
42.4895
44.1531
46.0606
48.1142
50.1665
52.018
53.4318
54.1775
54.1055
53.2363
51.8129
50.2416
48.8876
47.8054
46.5909
44.4779
40.7303
35.2697
29.0224
23.3662
19.313
16.9029
15.595
15
14.9634
15.4811
16.4491
17.6552
18.8295
19.7371
20.2575
20.381
20.1683
19.7057
19.0753
18.3432
17.5572
16.7504
15.9445
15.1534
14.3861
13.648
12.9427
12.2723
11.6381
11.041
10.4814
9.95993
9.47742
9.03586
8.63902
8.29316
8.00744
7.79368
7.66557
7.63775
7.72509
7.9421
8.30224
8.81657
9.49527
10.3746
11.6121
13.6303
17.1641
22.8134
29.6138
33.9568
33.2598
29.9628
27.3557
25.5432
23.2783
20.2332
17.0491
14.4282
12.4839
11.0704
10.0605
9.30491
8.74565
8.34451
8.07412
7.89175
7.75033
7.62175
7.48792
7.33931
7.18406
7.0539
7.0021
7.0752
7.31134
7.72338
8.28493
8.92445
9.53693
10.0179
10.3062
10.408
10.3884
10.3405
10.3494
10.4695
10.7152
11.0653
11.4756
11.8951
12.2804
12.6033
12.8517
13.0236
13.1184
13.1292
13.0326
12.7925
12.4333
12.026
11.6931
11.5977
11.841
12.3334
12.848
13.1913
13.2841
13.1291
12.7532
12.1761
11.4071
10.4588
9.36179
8.17266
6.96817
5.83427
4.86597
4.20073
4.10831
5.0771
7.45721
10.1304
10.6651
8.94115
6.99741
5.76682
5.12045
98.8694
125.383
108.957
87.4511
71.8102
61.4774
54.5362
49.801
46.6269
44.5795
43.2652
42.3143
41.4724
40.6929
40.1138
39.9109
40.1426
40.6912
41.3186
41.7754
41.8891
41.598
40.9359
39.9946
38.8877
37.7258
36.6057
35.6074
34.7937
34.209
33.8807
33.8238
34.0496
34.5748
35.4241
36.6225
38.2647
40.2771
42.6019
45.1315
47.6856
50.0019
51.7491
52.584
52.2751
50.8773
48.8417
46.8711
45.4875
44.6579
43.7186
41.6159
37.6005
32.0813
26.3011
21.6154
18.5943
16.7455
15.6831
15.2122
15.2957
15.8855
16.8181
17.8398
18.7072
19.2671
19.475
19.3637
19.0019
18.4627
17.8091
17.0886
16.3357
15.5738
14.8186
14.0806
13.3667
12.6812
12.0271
11.4063
10.82
10.2693
9.75491
9.27795
8.84019
8.44499
8.09822
7.80909
7.59051
7.45895
7.43415
7.53913
7.8001
8.2442
8.89176
9.7467
10.818
12.2316
14.3801
17.9308
23.2945
29.2716
32.5059
31.1806
27.8366
25.2821
23.5535
21.5697
18.9734
16.2346
13.8998
12.1129
10.7924
9.81974
9.08511
8.53114
8.11898
7.82061
7.60685
7.44373
7.29903
7.15297
6.99502
6.82978
6.68238
6.5954
6.61954
6.79982
7.16028
7.68885
8.32672
8.97277
9.51382
9.8719
10.0386
10.0741
10.0747
10.1322
10.3038
10.6003
10.9914
11.4227
11.8361
12.1871
12.4532
12.6328
12.7374
12.7828
12.7786
12.7183
12.5602
12.277
11.8853
11.4449
11.0606
10.85
10.8675
11.0613
11.3172
11.5255
11.6109
11.5284
11.25
10.7587
10.0514
9.14872
8.10045
6.98193
5.88304
4.90585
4.18996
3.98269
4.71696
6.75766
9.2764
10.1075
8.86189
7.14876
5.91351
5.1849
92.6696
117.635
104.751
84.6186
68.6965
57.7572
50.418
45.6135
42.6389
40.9392
40.0297
39.5377
39.2795
39.2685
39.608
40.3349
41.3234
42.3085
42.9956
43.1731
42.7662
41.8259
40.4819
38.891
37.2016
35.5376
33.9965
32.65
31.5422
30.6871
30.0758
29.6951
29.5502
29.6766
30.1464
31.0718
32.5053
34.3788
36.6558
39.2746
42.1126
44.9564
47.4871
49.2923
49.94
49.1754
47.2074
44.8159
42.8831
41.7808
41.1522
39.9894
37.1739
32.7978
27.7982
23.3496
20.0524
17.8595
16.4704
15.69
15.4749
15.7866
16.4829
17.3319
18.0981
18.6206
18.8373
18.7624
18.4494
17.9621
17.3576
16.6815
15.9674
15.2391
14.513
13.8002
13.1081
12.4418
11.8046
11.1986
10.6256
10.0867
9.58312
9.11598
8.68707
8.29941
7.95835
7.67269
7.45568
7.32554
7.30593
7.42685
7.72564
8.24468
9.01895
10.0533
11.3281
12.9155
15.1457
18.5965
23.541
28.7296
31.18
29.5683
26.2701
23.7217
22.0255
20.2816
18.092
15.7416
13.6484
11.9808
10.7148
9.76218
9.03335
8.46807
8.03142
7.6939
7.43243
7.23375
7.06777
6.90957
6.74614
6.57839
6.42484
6.32264
6.32118
6.46914
6.7989
7.31001
7.95419
8.63324
9.22568
9.63838
9.85076
9.92019
9.94849
10.0342
10.2358
10.5575
10.9574
11.3697
11.731
11.9994
12.1612
12.2269
12.2219
12.1757
12.1123
12.0419
11.9404
11.7557
11.472
11.1033
10.7078
10.3778
10.1962
10.19
10.319
10.5038
10.6577
10.7059
10.5899
10.2687
9.72169
8.95656
8.01423
6.96577
5.901
4.92384
4.17113
3.86568
4.38104
6.06986
8.36963
9.45419
8.6911
7.25566
6.06401
5.28352
81.8126
106.878
98.0812
80.1383
64.6627
53.7431
46.5089
41.9747
39.3771
38.0956
37.6381
37.6896
38.1375
39.0031
40.2987
41.8999
43.5196
44.7947
45.4221
45.2543
44.3163
42.7595
40.7922
38.6204
36.4163
34.3125
32.4054
30.756
29.3869
28.276
27.3782
26.6612
26.1324
25.8749
26.0356
26.8135
28.1035
29.8221
31.9186
34.3669
37.108
39.9973
42.7783
45.0793
46.4349
46.4191
44.949
42.6422
40.4873
39.0551
38.2511
37.3348
35.3824
32.0405
27.8782
23.898
20.7658
18.5605
17.0737
16.1591
15.7905
15.9338
16.456
17.1434
17.7792
18.213
18.3813
18.2903
17.9834
17.5154
16.9371
16.2898
15.6047
14.9043
14.2043
13.5158
12.8463
12.2007
11.5825
10.9942
10.4375
9.91384
9.42453
8.97096
8.55494
8.17927
7.84876
7.57157
7.36063
7.23491
7.22064
7.35309
7.67903
8.2559
9.13799
10.3422
11.8294
13.5993
15.892
19.1821
23.6579
28.1525
30.0835
28.3962
25.1747
22.5829
20.8575
19.2866
17.4417
15.4357
13.5659
12.0047
10.7749
9.82307
9.0777
8.48189
8.00233
7.61948
7.32423
7.10101
6.91555
6.7447
6.57534
6.40646
6.25263
6.14654
6.13531
6.26948
6.5877
7.09854
7.76132
8.47821
9.11833
9.57436
9.81613
9.90161
9.94045
10.0381
10.2521
10.5768
10.9563
11.3145
11.5859
11.735
11.7597
11.6842
11.5464
11.3862
11.2374
11.1203
11.0363
10.9299
10.7707
10.5428
10.2651
9.99485
9.80364
9.73913
9.80095
9.94391
10.0977
10.1868
10.1427
9.91113
9.45933
8.7839
7.91726
6.92495
5.89388
4.92555
4.15007
3.76602
4.09056
5.44582
7.48209
8.73401
8.4138
7.29072
6.19673
5.40282
70.2022
94.9951
90.8472
75.7315
61.0303
50.2665
43.1849
38.8927
36.5948
35.6511
35.6005
36.1937
37.3671
39.1248
41.3847
43.8852
46.2058
47.8979
48.6376
48.3129
47.0185
44.9862
42.495
39.8014
37.1065
34.5559
32.2521
30.2534
28.5795
27.1987
26.0631
25.1606
24.5117
24.0948
23.9918
24.6851
25.9079
27.4778
29.3227
31.4475
33.8436
36.421
38.9784
41.204
42.6908
43.0329
42.0915
40.2483
38.2518
36.7129
35.715
34.7601
33.0952
30.3416
26.8814
23.5162
20.8063
18.8268
17.4292
16.5303
16.131
16.1978
16.6001
17.1414
17.6315
17.9424
18.022
17.8771
17.5454
17.074
16.5067
15.8791
15.2184
14.5443
13.8711
13.2087
12.5641
11.9421
11.3463
10.7789
10.242
9.73697
9.26536
8.82869
8.42885
8.06853
7.75207
7.48687
7.28506
7.16539
7.15518
7.293
7.63236
8.24363
9.20245
10.5498
12.2437
14.2135
16.5829
19.7085
23.7315
27.6466
29.2564
27.6243
24.4901
21.8142
19.9947
18.5121
16.9324
15.225
13.5698
12.1187
10.9246
9.96769
9.19927
8.57336
8.05962
7.64157
7.31134
7.05581
6.84486
6.65651
6.47741
6.30519
6.15194
6.04725
6.03634
6.17103
6.49485
7.02303
7.71898
8.48153
9.16814
9.65785
9.91418
9.99981
10.0349
10.1314
10.3431
10.651
10.9842
11.2584
11.4102
11.4147
11.284
11.0559
10.7789
10.5002
10.259
10.0822
9.98572
9.92485
9.86822
9.78594
9.66842
9.53842
9.4417
9.4202
9.48732
9.62022
9.76789
9.8655
9.84724
9.65642
9.25504
8.63371
7.81888
6.87099
5.87265
4.92016
4.13385
3.68904
3.85315
4.90962
6.66303
7.98642
8.03707
7.23544
6.28576
5.51921
55.8949
83.8551
84.9705
72.857
58.8421
47.9603
40.7189
36.3839
34.1426
33.337
33.5279
34.5177
36.2948
38.8611
42.0414
45.4911
48.6839
51.0827
52.307
52.2252
50.9466
48.7435
45.9485
42.8715
39.756
36.7775
34.0546
31.661
29.6304
27.9567
26.6216
25.6216
24.9688
24.656
24.7737
25.3455
26.2531
27.4354
28.8702
30.5605
32.4951
34.5991
36.703
38.5421
39.775
40.0624
39.2799
37.72
35.9748
34.5384
33.4878
32.4339
30.7987
28.3356
25.4083
22.6569
20.4592
18.8121
17.6045
16.8141
16.4628
16.5097
16.8228
17.2246
17.5574
17.7233
17.6891
17.4674
17.0932
16.6063
16.0429
15.4317
14.7947
14.1481
13.5037
12.8701
12.2534
11.6583
11.0879
10.5448
10.0308
9.54755
9.09662
8.67965
8.2986
7.95609
7.6561
7.40521
7.21444
7.10149
7.09336
7.22968
7.56761
8.18647
9.18154
10.6256
12.4982
14.6813
17.1669
20.1735
23.8074
27.2612
28.697
27.209
24.176
21.3904
19.4162
17.928
16.5193
15.053
13.5993
12.2683
11.1226
10.1692
9.38278
8.73144
8.18948
7.74064
7.3765
7.08759
6.84858
6.63933
6.4468
6.26808
6.11412
6.01305
6.00937
6.15649
6.50201
7.06545
7.81033
8.62744
9.35956
9.87288
10.1288
10.1997
10.2187
10.3034
10.5
10.773
11.0368
11.2023
11.2131
11.0582
10.7653
10.3852
9.97481
9.5856
9.25815
9.02079
8.89256
8.85339
8.86965
8.90905
8.94689
8.97897
9.02236
9.10099
9.22639
9.38622
9.54434
9.64851
9.64066
9.46756
9.09178
8.50259
7.72367
6.81174
5.84501
4.91344
4.12593
3.63546
3.66709
4.46542
5.93922
7.25104
7.58444
7.08598
6.30932
5.60506
44.2425
73.8398
78.2046
71.1783
58.898
47.7619
39.8328
34.9128
32.2726
31.2403
31.369
32.4681
34.5274
37.5497
41.388
45.6783
49.8594
53.3226
55.586
56.4102
55.8191
54.0409
51.4107
48.2765
44.9379
41.6262
38.506
35.6896
33.2479
31.2143
29.6013
28.4073
27.6202
27.2179
27.2264
27.5569
28.1476
28.9726
30.0283
31.3152
32.8064
34.413
35.9677
37.2318
37.9233
37.8033
36.8504
35.369
33.8295
32.5564
31.5211
30.3552
28.6418
26.3395
23.8685
21.706
20.0103
18.6958
17.7
17.0541
16.7836
16.8298
17.0584
17.315
17.4791
17.4878
17.3292
17.0231
16.6016
16.0971
15.5369
14.9427
14.3307
13.7133
13.0998
12.4972
11.911
11.3453
10.8032
10.287
9.79863
9.33977
8.91199
8.51699
8.15675
7.83383
7.55189
7.31674
7.13808
7.03193
7.0237
7.15203
7.47441
8.0741
9.06042
10.5397
12.5373
14.9296
17.5853
20.5611
23.9094
27.0192
28.3941
27.1261
24.2232
21.3153
19.1264
17.5325
16.1894
14.8936
13.6181
12.4154
11.3373
10.4046
9.61185
8.9419
8.37652
7.90152
7.50736
7.18586
6.91755
6.68496
6.47595
6.28781
6.13164
6.03575
6.04553
6.21672
6.60038
7.21778
8.02781
8.9077
9.68241
10.2069
10.4461
10.4877
10.4801
10.5441
10.7139
10.9353
11.1095
11.1471
11.0027
10.682
10.2289
9.70553
9.17492
8.68999
8.28966
7.99931
7.83454
7.79823
7.85803
7.98573
8.15186
8.33549
8.52883
8.73315
8.94825
9.16287
9.35016
9.46918
9.47108
9.30876
8.94842
8.38103
7.62987
6.74932
5.81368
4.90666
4.12558
3.60203
3.52481
4.10386
5.31639
6.5575
7.08706
6.8541
6.25885
5.63957
35.616
71.3195
74.1085
69.6397
60.234
49.7972
41.2206
35.3114
31.7767
30.0564
29.6976
30.4685
32.3238
35.2738
39.2315
43.9074
48.7979
53.288
56.8101
58.9812
59.6665
58.963
57.128
54.4914
51.3812
48.0807
44.8134
41.7449
38.9921
36.6293
34.6954
33.1985
32.1211
31.4282
31.1257
31.126
31.3842
31.8721
32.572
33.4572
34.4658
35.4812
36.3317
36.8108
36.7197
35.9644
34.674
33.1814
31.8199
30.7095
29.6724
28.3484
26.5304
24.4235
22.4585
20.8717
19.6081
18.5691
17.7713
17.2785
17.093
17.1282
17.2513
17.3407
17.3204
17.1646
16.8816
16.4955
16.0329
15.5168
14.9652
14.3924
13.8091
13.2243
12.6449
12.0769
11.5247
10.992
10.4816
9.99584
9.53643
9.10504
8.70322
8.33267
7.99536
7.69374
7.43118
7.21279
7.04691
6.94747
6.93726
7.05208
7.34677
7.90342
8.83733
10.2813
12.3166
14.8661
17.7191
20.7706
23.986
26.9042
28.323
27.3326
24.5999
21.5911
19.1651
17.3878
16.0016
14.779
13.6231
12.529
11.5231
10.6256
9.84153
9.16513
8.58597
8.09341
7.67829
7.33056
7.03623
6.78087
6.55433
6.35552
6.19735
6.11024
6.14215
6.35206
6.79376
7.48696
8.37994
9.32981
10.1406
10.6595
10.8626
10.8595
10.8152
10.8501
10.9814
11.1343
11.1995
11.0919
10.7815
10.2923
9.68384
9.0284
8.39289
7.82918
7.37233
7.0437
6.85799
6.82464
6.91675
7.10924
7.37314
7.68054
8.00764
8.33566
8.64893
8.93067
9.15796
9.2986
9.31272
9.16022
8.81214
8.26238
7.53503
6.68306
5.77753
4.89676
4.12772
3.58248
3.4183
3.81533
4.79505
5.93113
6.58161
6.56575
6.14278
5.61726
30.0105
75.6516
76.888
70.6765
62.2796
52.8888
44.2109
37.4275
32.8047
30.0813
28.8876
28.9659
30.2174
32.6357
36.1856
40.6879
45.7638
50.8755
55.4416
58.9718
61.1651
61.9418
61.4145
59.8239
57.4675
54.6428
51.6131
48.5931
45.7466
43.1891
40.9923
39.1883
37.7782
36.7424
36.0744
35.6971
35.5751
35.6726
35.9467
36.3339
36.7354
37.0165
37.0219
36.6067
35.6931
34.3537
32.8305
31.4088
30.2401
29.2377
28.1089
26.5953
24.7716
23.0026
21.5514
20.3795
19.3573
18.4799
17.8334
17.4652
17.3288
17.3139
17.3048
17.2224
17.035
16.7448
16.3703
15.9324
15.4491
14.9338
14.3973
13.8481
13.2937
12.7405
12.1941
11.6594
11.1403
10.6399
10.1607
9.70471
9.2737
8.86916
8.49261
8.14569
7.83031
7.54883
7.30438
7.10144
6.94717
6.85343
6.83998
6.93877
7.19997
7.70068
8.55438
9.90721
11.8892
14.5019
17.5275
20.7321
23.9614
26.8331
28.3848
27.727
25.2242
22.1623
19.5029
17.4917
15.9754
14.736
13.6334
12.6135
11.6708
10.8141
10.0497
9.37789
8.79392