/*--------------------------------*- C++ -*----------------------------------*\
  =========                 |
  \\      /  F ield         | OpenFOAM: The Open Source CFD Toolbox
   \\    /   O peration     | Website:  https://openfoam.org
    \\  /    A nd           | Version:  9
     \\/     M anipulation  |
\*---------------------------------------------------------------------------*/
FoamFile
{
    format      ascii;
    class       volScalarField;
    location    "0.12";
    object      nut;
}
// * * * * * * * * * * * * * * * * * * * * * * * * * * * * * * * * * * * * * //

dimensions      [0 2 -1 0 0 0 0];

internalField   nonuniform List<scalar> 
12225
(
2.91402e-06
2.19897e-06
1.70474e-06
1.37055e-06
1.15581e-06
1.03237e-06
9.79744e-07
9.82084e-07
1.02656e-06
1.10261e-06
1.20154e-06
1.31642e-06
1.44198e-06
1.57465e-06
1.71249e-06
1.85495e-06
2.00283e-06
2.19561e-06
2.46893e-05
1.74575e-05
1.473e-05
1.34317e-05
1.27858e-05
1.24666e-05
1.22966e-05
1.21802e-05
1.2073e-05
1.19589e-05
1.18338e-05
1.16982e-05
1.15537e-05
1.14029e-05
1.12483e-05
1.10924e-05
1.09372e-05
1.07949e-05
5.32641e-05
4.09516e-05
3.41053e-05
2.9567e-05
2.61448e-05
2.33252e-05
2.08678e-05
1.86749e-05
1.67224e-05
1.50112e-05
1.35381e-05
1.22888e-05
1.12411e-05
1.03714e-05
9.66003e-06
9.09305e-06
8.66168e-06
8.36508e-06
6.81224e-05
5.92586e-05
5.23078e-05
4.68613e-05
4.24095e-05
3.8599e-05
3.51943e-05
3.20496e-05
2.9089e-05
2.62839e-05
2.36303e-05
2.11317e-05
1.87911e-05
1.661e-05
1.45929e-05
1.27534e-05
1.11137e-05
9.71285e-06
7.36072e-05
6.90347e-05
6.43467e-05
5.99889e-05
5.60346e-05
5.24381e-05
4.91179e-05
4.59923e-05
4.29951e-05
4.00795e-05
3.72143e-05
3.43775e-05
3.1551e-05
2.87186e-05
2.58676e-05
2.29978e-05
2.01302e-05
1.73448e-05
7.53671e-05
7.32056e-05
7.05947e-05
6.78099e-05
6.50115e-05
6.22771e-05
5.96307e-05
5.70654e-05
5.45594e-05
5.20864e-05
4.96189e-05
4.7129e-05
4.45867e-05
4.1959e-05
3.92088e-05
3.62982e-05
3.31964e-05
2.99282e-05
7.58859e-05
7.47419e-05
7.33241e-05
7.17031e-05
6.99534e-05
6.81346e-05
6.62866e-05
6.44298e-05
6.25699e-05
6.07027e-05
5.88169e-05
5.68959e-05
5.49174e-05
5.28538e-05
5.06706e-05
4.83265e-05
4.57763e-05
4.3014e-05
7.60285e-05
7.52477e-05
7.43652e-05
7.33772e-05
7.22963e-05
7.11415e-05
6.99322e-05
6.86831e-05
6.74032e-05
6.60959e-05
6.47594e-05
6.33868e-05
6.19668e-05
6.04829e-05
5.89134e-05
5.72298e-05
5.53996e-05
5.34198e-05
7.60651e-05
7.53989e-05
7.47189e-05
7.40113e-05
7.32695e-05
7.24924e-05
7.16823e-05
7.08429e-05
6.99775e-05
6.90876e-05
6.8173e-05
6.7231e-05
6.62562e-05
6.52406e-05
6.41722e-05
6.30356e-05
6.18128e-05
6.05072e-05
7.60739e-05
7.54401e-05
7.4827e-05
7.42253e-05
7.36276e-05
7.30284e-05
7.24242e-05
7.18128e-05
7.11931e-05
7.05638e-05
6.99237e-05
6.92706e-05
6.86017e-05
6.79127e-05
6.71976e-05
6.64488e-05
6.56576e-05
6.48303e-05
7.60758e-05
7.54504e-05
7.48569e-05
7.42903e-05
7.37454e-05
7.32179e-05
7.27038e-05
7.22e-05
7.17039e-05
7.12133e-05
7.07262e-05
7.02406e-05
6.97545e-05
6.92652e-05
6.87699e-05
6.82646e-05
6.77459e-05
6.72197e-05
7.60761e-05
7.54525e-05
7.4864e-05
7.4307e-05
7.37781e-05
7.3274e-05
7.27917e-05
7.23285e-05
7.1882e-05
7.14501e-05
7.1031e-05
7.06229e-05
7.02243e-05
6.98334e-05
6.94487e-05
6.9068e-05
6.86899e-05
6.83195e-05
7.60761e-05
7.5453e-05
7.48658e-05
7.43118e-05
7.37883e-05
7.32926e-05
7.28226e-05
7.2376e-05
7.19508e-05
7.15455e-05
7.11586e-05
7.07886e-05
7.04345e-05
7.00953e-05
6.97698e-05
6.94572e-05
6.91569e-05
6.88733e-05
7.60761e-05
7.5453e-05
7.48662e-05
7.43131e-05
7.37912e-05
7.32984e-05
7.28326e-05
7.23922e-05
7.19754e-05
7.15809e-05
7.12075e-05
7.08542e-05
7.05201e-05
7.02046e-05
6.99069e-05
6.96266e-05
6.93637e-05
6.91218e-05
7.6076e-05
7.54529e-05
7.48662e-05
7.43134e-05
7.3792e-05
7.33e-05
7.28356e-05
7.23971e-05
7.1983e-05
7.1592e-05
7.12231e-05
7.08755e-05
7.05482e-05
7.02407e-05
6.99524e-05
6.9683e-05
6.94326e-05
6.92045e-05
7.60759e-05
7.54528e-05
7.48661e-05
7.43134e-05
7.37923e-05
7.33007e-05
7.28369e-05
7.23991e-05
7.1986e-05
7.15962e-05
7.12286e-05
7.08824e-05
7.05566e-05
7.02507e-05
6.99639e-05
6.96959e-05
6.94466e-05
6.92194e-05
7.60758e-05
7.54526e-05
7.4866e-05
7.43134e-05
7.37925e-05
7.33013e-05
7.28379e-05
7.24007e-05
7.19882e-05
7.15989e-05
7.12319e-05
7.0886e-05
7.05604e-05
7.02541e-05
6.99665e-05
6.9697e-05
6.94453e-05
6.92148e-05
7.60756e-05
7.54524e-05
7.48658e-05
7.43133e-05
7.37927e-05
7.33019e-05
7.2839e-05
7.24024e-05
7.19904e-05
7.16017e-05
7.12351e-05
7.08893e-05
7.05635e-05
7.02565e-05
6.99676e-05
6.96959e-05
6.94413e-05
6.92071e-05
7.60755e-05
7.54521e-05
7.48655e-05
7.43132e-05
7.37929e-05
7.33026e-05
7.28402e-05
7.24042e-05
7.19928e-05
7.16046e-05
7.12383e-05
7.08926e-05
7.05664e-05
7.02587e-05
6.99685e-05
6.96948e-05
6.94374e-05
6.91998e-05
7.60753e-05
7.54519e-05
7.48654e-05
7.43133e-05
7.37933e-05
7.33034e-05
7.28415e-05
7.24059e-05
7.19949e-05
7.1607e-05
7.12408e-05
7.0895e-05
7.05685e-05
7.026e-05
6.99685e-05
6.96932e-05
6.94336e-05
6.91933e-05
7.60752e-05
7.54518e-05
7.48654e-05
7.43135e-05
7.37938e-05
7.33041e-05
7.28424e-05
7.24068e-05
7.19957e-05
7.16074e-05
7.12406e-05
7.08938e-05
7.05659e-05
7.02557e-05
6.99621e-05
6.96841e-05
6.94215e-05
6.91778e-05
7.60752e-05
7.54517e-05
7.48652e-05
7.43129e-05
7.37924e-05
7.33013e-05
7.28373e-05
7.23987e-05
7.19835e-05
7.15902e-05
7.12173e-05
7.08636e-05
7.05277e-05
7.02086e-05
6.99053e-05
6.96168e-05
6.93429e-05
6.90874e-05
7.60748e-05
7.545e-05
7.48602e-05
7.43017e-05
7.37712e-05
7.32658e-05
7.27833e-05
7.23218e-05
7.18796e-05
7.14556e-05
7.10488e-05
7.06583e-05
7.02834e-05
6.99235e-05
6.95779e-05
6.92462e-05
6.89283e-05
6.86286e-05
7.60709e-05
7.54321e-05
7.48131e-05
7.42075e-05
7.36113e-05
7.30233e-05
7.24437e-05
7.18735e-05
7.13141e-05
7.07667e-05
7.02325e-05
6.97128e-05
6.92085e-05
6.872e-05
6.82477e-05
6.77916e-05
6.73521e-05
6.69341e-05
7.60351e-05
7.52916e-05
7.44938e-05
7.36444e-05
7.27553e-05
7.18424e-05
7.09215e-05
7.00058e-05
6.91057e-05
6.8229e-05
6.73806e-05
6.65632e-05
6.57778e-05
6.50245e-05
6.43022e-05
6.36094e-05
6.29448e-05
6.2313e-05
7.57668e-05
7.44363e-05
7.28574e-05
7.11481e-05
6.93996e-05
6.76749e-05
6.60125e-05
6.44321e-05
6.29408e-05
6.15389e-05
6.02224e-05
5.89853e-05
5.78204e-05
5.67204e-05
5.56785e-05
5.46883e-05
5.37442e-05
5.28478e-05
7.41129e-05
7.04176e-05
6.66338e-05
6.31198e-05
5.99686e-05
5.71787e-05
5.47121e-05
5.25199e-05
5.05548e-05
4.87765e-05
4.71513e-05
4.56517e-05
4.42557e-05
4.29459e-05
4.17086e-05
4.0533e-05
3.94112e-05
3.83425e-05
6.59051e-05
5.6728e-05
5.02377e-05
4.55145e-05
4.19199e-05
3.90795e-05
3.67579e-05
3.48007e-05
3.31055e-05
3.16036e-05
3.02483e-05
2.90078e-05
2.78602e-05
2.6791e-05
2.579e-05
2.48503e-05
2.39667e-05
2.31372e-05
3.81065e-05
2.84316e-05
2.40709e-05
2.16011e-05
2.00593e-05
1.90631e-05
1.84163e-05
1.80009e-05
1.77395e-05
1.7579e-05
1.74822e-05
1.74227e-05
1.73825e-05
1.73495e-05
1.73162e-05
1.72779e-05
1.72328e-05
1.71783e-05
5.62837e-06
4.72231e-06
4.01512e-06
3.45996e-06
3.02418e-06
2.68382e-06
2.42084e-06
2.22121e-06
2.07375e-06
1.96935e-06
1.90048e-06
1.86086e-06
1.8452e-06
1.84899e-06
1.86845e-06
1.90035e-06
1.94202e-06
1.99105e-06
1.9981e-06
4.57108e-06
5.37127e-06
5.522e-06
5.57393e-06
5.62011e-06
5.68849e-06
5.78693e-06
5.89525e-06
5.96235e-06
5.95807e-06
5.84168e-06
5.55586e-06
5.05977e-06
1.91551e-05
1.61805e-05
1.60198e-05
1.7811e-05
4.33675e-06
4.3172e-06
1.80996e-05
1.81545e-05
3.74525e-06
5.36756e-06
7.16e-06
8.5066e-06
9.58033e-06
1.043e-05
1.10911e-05
1.15925e-05
1.19581e-05
1.2208e-05
1.23596e-05
1.24278e-05
1.24256e-05
1.23642e-05
1.22535e-05
1.21023e-05
1.19179e-05
1.17067e-05
1.14708e-05
1.12331e-05
1.0994e-05
1.07536e-05
1.05124e-05
1.02708e-05
1.00294e-05
9.78851e-06
9.54843e-06
9.30949e-06
9.07194e-06
8.83598e-06
8.60171e-06
8.36909e-06
8.13792e-06
7.90773e-06
7.67781e-06
7.44726e-06
7.215e-06
6.97999e-06
6.74134e-06
6.49856e-06
6.25165e-06
6.00121e-06
5.74843e-06
5.49486e-06
5.24205e-06
4.99133e-06
4.74242e-06
4.4889e-06
4.32605e-06
4.3114e-06
4.32229e-06
4.34404e-06
4.37397e-06
4.41143e-06
4.45617e-06
4.508e-06
4.56674e-06
4.6322e-06
4.70435e-06
4.78342e-06
4.8695e-06
4.9613e-06
5.05307e-06
5.12272e-06
5.14921e-06
5.11107e-06
4.99645e-06
4.80261e-06
4.61178e-06
1.71133e-05
1.55996e-05
1.47332e-05
1.43247e-05
1.4214e-05
1.43396e-05
1.46946e-05
1.52114e-05
1.58936e-05
4.00926e-06
4.16421e-06
4.3382e-06
4.55433e-06
4.80631e-06
5.03113e-06
5.08422e-06
4.82671e-06
4.32129e-06
4.85756e-06
6.56864e-06
7.83007e-06
8.73836e-06
9.34216e-06
9.69603e-06
9.84764e-06
9.8371e-06
9.69826e-06
9.46241e-06
9.12275e-06
8.74452e-06
8.34896e-06
7.94371e-06
7.53581e-06
7.13127e-06
6.73487e-06
6.35003e-06
5.97874e-06
5.62081e-06
5.27057e-06
4.90656e-06
4.43182e-06
4.22401e-06
4.47316e-06
4.78015e-06
5.13279e-06
5.5292e-06
5.96557e-06
6.43513e-06
6.9299e-06
7.44235e-06
7.95761e-06
8.46299e-06
9.02833e-06
9.70524e-06
1.01726e-05
1.03564e-05
1.01603e-05
9.45964e-06
8.07525e-06
6.20469e-06
1.78019e-05
1.33167e-05
1.14656e-05
1.05849e-05
1.00345e-05
9.72308e-06
9.49328e-06
9.29207e-06
9.20999e-06
8.98483e-06
8.23943e-06
7.21918e-06
6.11169e-06
5.064e-06
4.19044e-06
3.55298e-06
3.17221e-06
3.03062e-06
3.06943e-06
3.22899e-06
3.41691e-06
3.51377e-06
3.43207e-06
3.28582e-06
3.43614e-06
3.74081e-06
4.0836e-06
4.60801e-06
5.04277e-06
2.97786e-06
8.85759e-06
1.00381e-05
1.02919e-05
1.01891e-05
9.89841e-06
9.55931e-06
9.23986e-06
8.62522e-06
7.71654e-06
6.89851e-06
6.33094e-06
5.962e-06
5.65134e-06
5.79622e-06
6.19907e-06
7.10493e-06
7.90254e-06
8.00422e-06
7.74717e-06
7.52641e-06
7.36745e-06
7.35427e-06
7.62412e-06
7.81182e-06
7.89487e-06
7.92551e-06
7.94709e-06
8.00037e-06
8.12631e-06
8.36879e-06
8.77723e-06
9.40832e-06
1.03249e-05
1.15874e-05
1.32281e-05
1.52017e-05
1.73232e-05
1.92548e-05
2.05845e-05
2.15858e-05
2.25902e-05
2.36072e-05
2.46416e-05
2.56987e-05
2.67848e-05
2.79061e-05
2.90687e-05
3.02773e-05
3.15355e-05
3.28441e-05
3.4201e-05
3.56002e-05
3.7031e-05
3.84776e-05
3.99186e-05
4.13278e-05
4.26747e-05
4.39271e-05
4.50532e-05
4.60246e-05
4.68188e-05
4.74202e-05
4.78201e-05
4.80144e-05
4.80001e-05
4.77699e-05
4.73018e-05
4.65445e-05
4.53993e-05
4.39642e-05
4.2485e-05
4.0973e-05
3.94421e-05
3.79043e-05
3.63699e-05
3.4849e-05
3.33515e-05
3.1887e-05
3.0465e-05
2.90945e-05
2.77841e-05
2.65386e-05
2.53389e-05
2.4059e-05
2.22143e-05
1.97043e-05
1.75858e-05
1.61829e-05
1.55985e-05
1.60211e-05
1.75006e-05
1.867e-05
1.95221e-05
2.00063e-05
2.00372e-05
1.95343e-05
1.85102e-05
1.70947e-05
1.54129e-05
1.35384e-05
1.18079e-05
1.00195e-05
8.24683e-06
6.77713e-06
5.84843e-06
5.49009e-06
5.20809e-06
5.02738e-06
5.14465e-06
5.40627e-06
5.64618e-06
5.98987e-06
6.56901e-06
7.5319e-06
9.03877e-06
1.11999e-05
1.38836e-05
1.648e-05
1.8182e-05
1.9675e-05
2.11485e-05
2.25802e-05
2.39435e-05
2.5211e-05
2.6353e-05
2.73354e-05
2.81156e-05
2.86395e-05
2.88373e-05
2.86113e-05
2.78117e-05
2.65883e-05
2.52086e-05
2.36373e-05
2.19225e-05
2.01185e-05
1.82805e-05
1.64598e-05
1.47004e-05
1.30347e-05
1.14756e-05
1.00212e-05
8.64459e-06
6.79604e-06
5.45378e-06
5.2634e-06
5.60947e-06
6.18561e-06
6.81872e-06
7.54499e-06
8.28721e-06
8.66067e-06
8.93798e-06
9.77051e-06
1.06186e-05
1.08092e-05
1.07432e-05
1.05015e-05
1.00518e-05
9.62309e-06
9.28727e-06
8.99105e-06
8.67445e-06
8.29753e-06
7.87794e-06
7.46578e-06
7.13203e-06
6.9477e-06
6.96348e-06
7.20489e-06
7.66972e-06
8.24408e-06
8.68199e-06
8.96645e-06
9.53496e-06
1.03244e-05
1.06279e-05
1.09801e-05
1.18879e-05
4.64642e-06
9.36807e-06
1.06116e-05
1.09302e-05
1.06295e-05
1.01109e-05
9.66614e-06
9.39421e-06
9.03872e-06
8.35969e-06
7.47861e-06
6.72072e-06
6.30147e-06
6.47522e-06
7.64077e-06
8.85534e-06
9.3271e-06
9.01616e-06
8.46489e-06
8.03671e-06
7.7792e-06
7.67517e-06
7.70762e-06
7.86493e-06
8.10602e-06
8.47962e-06
9.06326e-06
9.94965e-06
1.12467e-05
1.30685e-05
1.55077e-05
1.85818e-05
2.21616e-05
2.59345e-05
2.9469e-05
3.23844e-05
3.45069e-05
3.5887e-05
3.6698e-05
3.72233e-05
3.77111e-05
3.81928e-05
3.8678e-05
3.91767e-05
3.97002e-05
4.0261e-05
4.08723e-05
4.15473e-05
4.22991e-05
4.31395e-05
4.40785e-05
4.51231e-05
4.62763e-05
4.75358e-05
4.88931e-05
5.03325e-05
5.18302e-05
5.33554e-05
5.48712e-05
5.63374e-05
5.77133e-05
5.89616e-05
6.00505e-05
6.09556e-05
6.16596e-05
6.21516e-05
6.24246e-05
6.24718e-05
6.22807e-05
6.18256e-05
6.11741e-05
6.0425e-05
5.95986e-05
5.87078e-05
5.77616e-05
5.67681e-05
5.5735e-05
5.46706e-05
5.35838e-05
5.24839e-05
5.13796e-05
5.02766e-05
4.91729e-05
4.80517e-05
4.6866e-05
4.55255e-05
4.40105e-05
4.24317e-05
4.0819e-05
3.90473e-05
3.73063e-05
3.55952e-05
3.37445e-05
3.17713e-05
2.98672e-05
2.81495e-05
2.66265e-05
2.52179e-05
2.37548e-05
2.19722e-05
1.97972e-05
1.69984e-05
1.35719e-05
1.01869e-05
7.6905e-06
6.29604e-06
5.50042e-06
5.16295e-06
5.17192e-06
5.5346e-06
6.30713e-06
7.65483e-06
9.82722e-06
1.29611e-05
1.68801e-05
2.09572e-05
2.43556e-05
2.65982e-05
2.77969e-05
2.83534e-05
2.88542e-05
2.93321e-05
2.97964e-05
3.02539e-05
3.07076e-05
3.1154e-05
3.15805e-05
3.1962e-05
3.22611e-05
3.24307e-05
3.24179e-05
3.21555e-05
3.16952e-05
3.10836e-05
3.03517e-05
2.95421e-05
2.86913e-05
2.78263e-05
2.69631e-05
2.61071e-05
2.52551e-05
2.43957e-05
2.35003e-05
2.24665e-05
2.0823e-05
1.7296e-05
1.17501e-05
8.35646e-06
6.92121e-06
6.48042e-06
6.65488e-06
7.4062e-06
8.68571e-06
1.01455e-05
1.13658e-05
1.22084e-05
1.24937e-05
1.21428e-05
1.12779e-05
1.02276e-05
9.34382e-06
8.75495e-06
8.4222e-06
8.27095e-06
8.19871e-06
8.10464e-06
7.91787e-06
7.62591e-06
7.29299e-06
7.05354e-06
7.08766e-06
7.57332e-06
8.52248e-06
9.65214e-06
1.08502e-05
1.22242e-05
1.2916e-05
1.28412e-05
1.35848e-05
1.48025e-05
5.59487e-06
1.03021e-05
1.23038e-05
1.20571e-05
1.08798e-05
9.78307e-06
9.1202e-06
8.92868e-06
8.60762e-06
7.95426e-06
7.17091e-06
6.85481e-06
7.18604e-06
8.12775e-06
9.29726e-06
9.80081e-06
9.39405e-06
8.78198e-06
8.36211e-06
8.18665e-06
8.24507e-06
8.52172e-06
9.02437e-06
9.79181e-06
1.08941e-05
1.24428e-05
1.45533e-05
1.72979e-05
2.06361e-05
2.4349e-05
2.80435e-05
3.12793e-05
3.37573e-05
3.54217e-05
3.64108e-05
3.69341e-05
3.71771e-05
3.72652e-05
3.72707e-05
3.7248e-05
3.72067e-05
3.71509e-05
3.70876e-05
3.70276e-05
3.69846e-05
3.69748e-05
3.70164e-05
3.71294e-05
3.73352e-05
3.76564e-05
3.81166e-05
3.87383e-05
3.95409e-05
4.05384e-05
4.17367e-05
4.31315e-05
4.47077e-05
4.64385e-05
4.82866e-05
5.02054e-05
5.21433e-05
5.40472e-05
5.5868e-05
5.7563e-05
5.90995e-05
6.0453e-05
6.16077e-05
6.25515e-05
6.32727e-05
6.37154e-05
6.39513e-05
6.40625e-05
6.40689e-05
6.39802e-05
6.3803e-05
6.35424e-05
6.32036e-05
6.27921e-05
6.23143e-05
6.17775e-05
6.11898e-05
6.05594e-05
5.98918e-05
5.91861e-05
5.84318e-05
5.76102e-05
5.67044e-05
5.5703e-05
5.45851e-05
5.33169e-05
5.18759e-05
5.02149e-05
4.82493e-05
4.58637e-05
4.29511e-05
3.97524e-05
3.6651e-05
3.38118e-05
3.1163e-05
2.8281e-05
2.44879e-05
1.96506e-05
1.45405e-05
1.04061e-05
7.69314e-06
6.05687e-06
5.39463e-06
5.40758e-06
5.95936e-06
7.19071e-06
9.35602e-06
1.26542e-05
1.69037e-05
2.13291e-05
2.49292e-05
2.71876e-05
2.828e-05
2.86696e-05
2.87278e-05
2.86622e-05
2.86087e-05
2.85764e-05
2.85754e-05
2.86184e-05
2.87185e-05
2.88842e-05
2.91144e-05
2.93941e-05
2.96917e-05
2.99604e-05
3.01395e-05
3.01566e-05
3.00072e-05
2.97214e-05
2.9337e-05
2.8898e-05
2.84445e-05
2.80063e-05
2.7601e-05
2.72333e-05
2.68983e-05
2.65862e-05
2.62827e-05
2.59606e-05
2.55381e-05
2.4702e-05
2.23414e-05
1.77884e-05
1.32514e-05
1.01527e-05
8.40915e-06
7.73689e-06
8.03615e-06
9.17718e-06
1.06847e-05
1.18847e-05
1.236e-05
1.20418e-05
1.10806e-05
9.77762e-06
8.50867e-06
7.51851e-06
6.83507e-06
6.42467e-06
6.24104e-06
6.22618e-06
6.30361e-06
6.38873e-06
6.42336e-06
6.43475e-06
6.60039e-06
7.24372e-06
8.56325e-06
1.03008e-05
1.21135e-05
1.35999e-05
1.38754e-05
1.40785e-05
1.50275e-05
1.59198e-05
6.42076e-06
1.24703e-05
1.38033e-05
1.23573e-05
1.04783e-05
9.18429e-06
8.48477e-06
7.93095e-06
7.5733e-06
7.29127e-06
7.24051e-06
7.63673e-06
8.4455e-06
9.31895e-06
9.7158e-06
9.47607e-06
9.04284e-06
8.81771e-06
8.90217e-06
9.29611e-06
1.00138e-05
1.10889e-05
1.2586e-05
1.45924e-05
1.71826e-05
2.0354e-05
2.39488e-05
2.76276e-05
3.09549e-05
3.35759e-05
3.53579e-05
3.63908e-05
3.68805e-05
3.70369e-05
3.7016e-05
3.69111e-05
3.67685e-05
3.66063e-05
3.63906e-05
3.60942e-05
3.57113e-05
3.52427e-05
3.46965e-05
3.40894e-05
3.34458e-05
3.27968e-05
3.21774e-05
3.16236e-05
3.11697e-05
3.08477e-05
3.06885e-05
3.07236e-05
3.09861e-05
3.15072e-05
3.23114e-05
3.34118e-05
3.48075e-05
3.64829e-05
3.84068e-05
4.05328e-05
4.28006e-05
4.51414e-05
4.74846e-05
4.97646e-05
5.19303e-05
5.3943e-05
5.57787e-05
5.74198e-05
5.88297e-05
5.9934e-05
6.08768e-05
6.16928e-05
6.23938e-05
6.29847e-05
6.34682e-05
6.3846e-05
6.41197e-05
6.42913e-05
6.43636e-05
6.43405e-05
6.42275e-05
6.40308e-05
6.37567e-05
6.34104e-05
6.29942e-05
6.25068e-05
6.19413e-05
6.12837e-05
6.05108e-05
5.9591e-05
5.84862e-05
5.71491e-05
5.55208e-05
5.35244e-05
5.10663e-05
4.8059e-05
4.45851e-05
4.08853e-05
3.69321e-05
3.23092e-05
2.65777e-05
2.01803e-05
1.44429e-05
1.01639e-05
7.28669e-06
5.76971e-06
5.554e-06
6.10966e-06
7.49785e-06
9.98557e-06
1.37409e-05
1.83838e-05
2.28624e-05
2.61076e-05
2.78205e-05
2.84092e-05
2.84146e-05
2.81865e-05
2.78817e-05
2.75569e-05
2.72295e-05
2.69059e-05
2.66027e-05
2.63453e-05
2.61635e-05
2.60848e-05
2.61263e-05
2.62878e-05
2.65474e-05
2.68587e-05
2.71517e-05
2.73298e-05
2.73746e-05
2.72991e-05
2.71338e-05
2.6921e-05
2.67023e-05
2.65098e-05
2.63613e-05
2.62602e-05
2.61987e-05
2.61616e-05
2.6132e-05
2.60947e-05
2.60345e-05
2.58966e-05
2.54566e-05
2.39912e-05
2.09734e-05
1.70091e-05
1.32593e-05
1.04674e-05
8.91929e-06
8.609e-06
9.18739e-06
1.00096e-05
1.04878e-05
1.03707e-05
9.73659e-06
8.85298e-06
7.9265e-06
7.05225e-06
6.32573e-06
5.76801e-06
5.37328e-06
5.1325e-06
5.03485e-06
5.06226e-06
5.19526e-06
5.44846e-06
5.94418e-06
6.95488e-06
8.68239e-06
1.08976e-05
1.30088e-05
1.42795e-05
1.43827e-05
1.49339e-05
1.57648e-05
1.61699e-05
7.18229e-06
1.42436e-05
1.43742e-05
1.2395e-05
1.04083e-05
9.0641e-06
8.32842e-06
7.94491e-06
7.78587e-06
7.87328e-06
8.2308e-06
8.79028e-06
9.32308e-06
9.57474e-06
9.51148e-06
9.37589e-06
9.46183e-06
9.9117e-06
1.07622e-05
1.20441e-05
1.38133e-05
1.61292e-05
1.90248e-05
2.24464e-05
2.61908e-05
2.99059e-05
3.31929e-05
3.57647e-05
3.7544e-05
3.86399e-05
3.92489e-05
3.95612e-05
3.97144e-05
3.97869e-05
3.9812e-05
3.97945e-05
3.9724e-05
3.95745e-05
3.93058e-05
3.89109e-05
3.83721e-05
3.76744e-05
3.68088e-05
3.57752e-05
3.45851e-05
3.32655e-05
3.18619e-05
3.04385e-05
2.90735e-05
2.78479e-05
2.68311e-05
2.60731e-05
2.56076e-05
2.54627e-05
2.56653e-05
2.62372e-05
2.71898e-05
2.85224e-05
3.02206e-05
3.22518e-05
3.45597e-05
3.70664e-05
3.96799e-05
4.23031e-05
4.48572e-05
4.72832e-05
4.95469e-05
5.16213e-05
5.33761e-05
5.49366e-05
5.636e-05
5.76622e-05
5.88489e-05
5.9922e-05
6.08816e-05
6.17264e-05
6.24549e-05
6.30655e-05
6.35571e-05
6.39293e-05
6.41827e-05
6.43192e-05
6.43417e-05
6.42537e-05
6.40583e-05
6.37577e-05
6.33518e-05
6.28372e-05
6.22061e-05
6.14444e-05
6.05286e-05
5.94236e-05
5.80802e-05
5.64308e-05
5.43777e-05
5.1786e-05
4.85005e-05
4.44573e-05
3.95259e-05
3.34631e-05
2.64498e-05
1.95792e-05
1.39132e-05
9.64331e-06
6.81207e-06
5.70982e-06
5.99394e-06
7.23318e-06
9.6368e-06
1.34002e-05
1.81952e-05
2.29258e-05
2.6387e-05
2.81884e-05
2.87596e-05
2.87013e-05
2.83962e-05
2.80049e-05
2.75726e-05
2.71022e-05
2.65797e-05
2.60134e-05
2.54294e-05
2.48692e-05
2.4384e-05
2.40242e-05
2.38293e-05
2.38182e-05
2.39813e-05
2.42767e-05
2.46214e-05
2.49056e-05
2.51022e-05
2.52002e-05
2.5219e-05
2.51971e-05
2.51766e-05
2.51909e-05
2.52577e-05
2.5378e-05
2.5539e-05
2.57197e-05
2.58967e-05
2.60488e-05
2.61589e-05
2.62084e-05
2.61507e-05
2.58151e-05
2.47629e-05
2.25845e-05
1.92562e-05
1.53891e-05
1.19991e-05
9.83888e-06
8.93311e-06
8.76529e-06
8.75479e-06
8.56361e-06
8.13544e-06
7.58269e-06
7.04723e-06
6.57533e-06
6.15772e-06
5.79721e-06
5.49246e-06
5.24768e-06
5.07647e-06
5.00111e-06
5.04934e-06
5.27169e-06
5.81796e-06
6.95998e-06
8.88032e-06
1.13728e-05
1.36028e-05
1.46665e-05
1.47863e-05
1.54991e-05
1.60982e-05
1.60936e-05
7.96259e-06
1.50608e-05
1.48128e-05
1.27095e-05
1.08764e-05
9.74975e-06
9.12753e-06
8.82404e-06
8.78545e-06
8.94277e-06
9.20537e-06
9.45767e-06
9.61419e-06
9.69931e-06
9.86014e-06
1.02908e-05
1.11367e-05
1.24665e-05
1.43228e-05
1.67469e-05
1.97517e-05
2.32638e-05
2.7082e-05
3.08841e-05
3.43111e-05
3.70914e-05
3.91255e-05
4.04808e-05
4.13209e-05
4.18264e-05
4.21439e-05
4.23695e-05
4.25534e-05
4.27133e-05
4.28459e-05
4.29364e-05
4.29635e-05
4.28852e-05
4.27111e-05
4.2417e-05
4.19765e-05
4.13672e-05
4.05707e-05
3.95719e-05
3.83572e-05
3.69144e-05
3.52379e-05
3.33406e-05
3.12724e-05
2.91356e-05
2.70807e-05
2.52714e-05
2.3834e-05
2.28326e-05
2.22862e-05
2.21966e-05
2.25596e-05
2.33729e-05
2.46383e-05
2.63493e-05
2.8471e-05
3.09312e-05
3.3629e-05
3.64335e-05
3.92229e-05
4.19182e-05
4.44665e-05
4.6703e-05
4.87327e-05
5.0612e-05
5.23598e-05
5.39851e-05
5.54921e-05
5.68822e-05
5.81545e-05
5.93072e-05
6.03375e-05
6.12421e-05
6.20171e-05
6.26587e-05
6.31628e-05
6.35262e-05
6.37462e-05
6.38215e-05
6.37523e-05
6.354e-05
6.3187e-05
6.26961e-05
6.20698e-05
6.13086e-05
6.04088e-05
5.93585e-05
5.81306e-05
5.66715e-05
5.48826e-05
5.25925e-05
4.95266e-05
4.53704e-05
3.98816e-05
3.30678e-05
2.56632e-05
1.89027e-05
1.3373e-05
9.1248e-06
6.50951e-06
5.83536e-06
6.64407e-06
8.64493e-06
1.20676e-05
1.67879e-05
2.18835e-05
2.59998e-05
2.83995e-05
2.93389e-05
2.94656e-05
2.92544e-05
2.89154e-05
2.85029e-05
2.80135e-05
2.74294e-05
2.67304e-05
2.59286e-05
2.50602e-05
2.41837e-05
2.33727e-05
2.2702e-05
2.22331e-05
2.20081e-05
2.20303e-05
2.22643e-05
2.26038e-05
2.29634e-05
2.3282e-05
2.35298e-05
2.37133e-05
2.3865e-05
2.40263e-05
2.42314e-05
2.44976e-05
2.48227e-05
2.51888e-05
2.55682e-05
2.59306e-05
2.62487e-05
2.65009e-05
2.66692e-05
2.67318e-05
2.66429e-05
2.62577e-05
2.53275e-05
2.34924e-05
2.05105e-05
1.67125e-05
1.31452e-05
1.06751e-05
9.29146e-06
8.53083e-06
8.01091e-06
7.56587e-06
7.17524e-06
6.86354e-06
6.64175e-06
6.47641e-06
6.33748e-06
6.20379e-06
6.06592e-06
5.92722e-06
5.80431e-06
5.73994e-06
5.83173e-06
6.26423e-06
7.31312e-06
9.16293e-06
1.1671e-05
1.3942e-05
1.49204e-05
1.51188e-05
1.58435e-05
1.62131e-05
1.5966e-05
8.5933e-06
1.58324e-05
1.53656e-05
1.32985e-05
1.16365e-05
1.06427e-05
1.00458e-05
9.75091e-06
9.65222e-06
9.66862e-06
9.74656e-06
9.87341e-06
1.00929e-05
1.05056e-05
1.12456e-05
1.24402e-05
1.41742e-05
1.64875e-05
1.93851e-05
2.28072e-05
2.6586e-05
3.04404e-05
3.40379e-05
3.70928e-05
3.94482e-05
4.10994e-05
4.2159e-05
4.27934e-05
4.31664e-05
4.34063e-05
4.35973e-05
4.37845e-05
4.39848e-05
4.41964e-05
4.44055e-05
4.45909e-05
4.47257e-05
4.4792e-05
4.47724e-05
4.46283e-05
4.43248e-05
4.38365e-05
4.31517e-05
4.22715e-05
4.12038e-05
3.99521e-05
3.85017e-05
3.68125e-05
3.48313e-05
3.25314e-05
2.99699e-05
2.73261e-05
2.48692e-05
2.28504e-05
2.14087e-05
2.05665e-05
2.02804e-05
2.05084e-05
2.1246e-05
2.25129e-05
2.43087e-05
2.65762e-05
2.92247e-05
3.21094e-05
3.50303e-05
3.79349e-05
4.05564e-05
4.30017e-05
4.52871e-05
4.74242e-05
4.94219e-05
5.12867e-05
5.30224e-05
5.46309e-05
5.61126e-05
5.74665e-05
5.86909e-05
5.97828e-05
6.07381e-05
6.15514e-05
6.2216e-05
6.27245e-05
6.30692e-05
6.32432e-05
6.3241e-05
6.306e-05
6.27003e-05
6.21654e-05
6.1462e-05
6.05997e-05
5.95907e-05
5.84466e-05
5.71698e-05
5.57343e-05
5.40555e-05
5.19404e-05
4.9038e-05
4.48995e-05
3.92332e-05
3.22561e-05
2.49626e-05
1.84274e-05
1.29597e-05
8.7618e-06
6.39492e-06
6.07008e-06
7.38732e-06
1.01514e-05
1.44461e-05
1.97232e-05
2.46658e-05
2.80814e-05
2.97831e-05
3.03512e-05
3.03907e-05
3.02199e-05
2.99368e-05
2.95417e-05
2.90078e-05
2.83095e-05
2.74326e-05
2.63949e-05
2.52425e-05
2.40486e-05
2.29089e-05
2.19236e-05
2.11687e-05
2.07136e-05
2.0571e-05
2.07026e-05
2.1015e-05
2.14192e-05
2.18343e-05
2.22109e-05
2.25408e-05
2.2849e-05
2.31754e-05
2.35544e-05
2.40022e-05
2.45127e-05
2.50612e-05
2.5613e-05
2.61315e-05
2.65854e-05
2.69519e-05
2.72148e-05
2.73591e-05
2.73627e-05
2.7177e-05
2.66952e-05
2.57378e-05
2.39898e-05
2.11874e-05
1.76141e-05
1.42172e-05
1.17178e-05
1.01097e-05
9.09119e-06
8.42498e-06
7.98725e-06
7.7153e-06
7.56409e-06
7.48695e-06
7.43758e-06
7.37478e-06
7.27076e-06
7.11839e-06
6.93596e-06
6.77328e-06
6.73102e-06
6.99921e-06
7.84236e-06
9.45533e-06
1.18136e-05
1.40684e-05
1.50677e-05
1.53468e-05
1.59978e-05
1.62337e-05
1.59033e-05
9.10772e-06
1.65474e-05
1.60071e-05
1.39935e-05
1.24205e-05
1.13724e-05
1.07439e-05
1.03858e-05
1.02114e-05
1.01859e-05
1.03166e-05
1.06471e-05
1.12513e-05
1.2226e-05
1.36752e-05
1.56817e-05
1.82784e-05
2.14314e-05
2.50216e-05
2.88268e-05
3.25477e-05
3.58817e-05
3.8605e-05
4.0622e-05
4.1966e-05
4.27619e-05
4.31744e-05
4.33615e-05
4.34484e-05
4.352e-05
4.36254e-05
4.37875e-05
4.40112e-05
4.42885e-05
4.4602e-05
4.4925e-05
4.52292e-05
4.55093e-05
4.57189e-05
4.58002e-05
4.56957e-05
4.53569e-05
4.47556e-05
4.38935e-05
4.28058e-05
4.15499e-05
4.01797e-05
3.87088e-05
3.70813e-05
3.51787e-05
3.28824e-05
3.01797e-05
2.72529e-05
2.44513e-05
2.2136e-05
2.05158e-05
1.95802e-05
1.92338e-05
1.94388e-05
2.0228e-05
2.16453e-05
2.36439e-05
2.61461e-05
2.90519e-05
3.19994e-05
3.4912e-05
3.77234e-05
4.03985e-05
4.29229e-05
4.52934e-05
4.75116e-05
4.95803e-05
5.15022e-05
5.32795e-05
5.49142e-05
5.64076e-05
5.77602e-05
5.89714e-05
6.00388e-05
6.09578e-05
6.17214e-05
6.23204e-05
6.27434e-05
6.29784e-05
6.3014e-05
6.2841e-05
6.24538e-05
6.18515e-05
6.10388e-05
6.00274e-05
5.8839e-05
5.75056e-05
5.60618e-05
5.45213e-05
5.28285e-05
5.07887e-05
4.80103e-05
4.3987e-05
3.84176e-05
3.16165e-05
2.45921e-05
1.8221e-05
1.27599e-05
8.62425e-06
6.46395e-06
6.40014e-06
8.08795e-06
1.14251e-05
1.63739e-05
2.20499e-05
2.67079e-05
2.96038e-05
3.09536e-05
3.14385e-05
3.15537e-05
3.1495e-05
3.12925e-05
3.09179e-05
3.03277e-05
2.94961e-05
2.8428e-05
2.71533e-05
2.57268e-05
2.42311e-05
2.27777e-05
2.15012e-05
2.04746e-05
1.97963e-05
1.94866e-05
1.94992e-05
1.97672e-05
2.01958e-05
2.06883e-05
2.11761e-05
2.16353e-05
2.20828e-05
2.25564e-05
2.30905e-05
2.36992e-05
2.43705e-05
2.50716e-05
2.57588e-05
2.63894e-05
2.69299e-05
2.73602e-05
2.76715e-05
2.78597e-05
2.79173e-05
2.78228e-05
2.75178e-05
2.6927e-05
2.58867e-05
2.41358e-05
2.15132e-05
1.83448e-05
1.53736e-05
1.30987e-05
1.15397e-05
1.05183e-05
9.86579e-06
9.46292e-06
9.22518e-06
9.08641e-06
8.99045e-06
8.88944e-06
8.74718e-06
8.54528e-06
8.28991e-06
8.02039e-06
7.82949e-06
7.89837e-06
8.47283e-06
9.75505e-06
1.18385e-05
1.40186e-05
1.50984e-05
1.54523e-05
1.60019e-05
1.61933e-05
1.58789e-05
9.43596e-06
1.7147e-05
1.66455e-05
1.46861e-05
1.30219e-05
1.19335e-05
1.1264e-05
1.08901e-05
1.07616e-05
1.0878e-05
1.12707e-05
1.19924e-05
1.31127e-05
1.47118e-05
1.68603e-05
1.9583e-05
2.28245e-05
2.6432e-05
3.01628e-05
3.37237e-05
3.68399e-05
3.93204e-05
4.10927e-05
4.2199e-05
4.27642e-05
4.29501e-05
4.29148e-05
4.27871e-05
4.26582e-05
4.25852e-05
4.25998e-05
4.27153e-05
4.29331e-05
4.32446e-05
4.3632e-05
4.40679e-05
4.45486e-05
4.50512e-05
4.5524e-05
4.59011e-05
4.61043e-05
4.60514e-05
4.56705e-05
4.49207e-05
4.38157e-05
4.24347e-05
4.09056e-05
3.93512e-05
3.78146e-05
3.62128e-05
3.43577e-05
3.20606e-05
2.9295e-05
2.62895e-05
2.34571e-05
2.1227e-05
1.97476e-05
1.89145e-05
1.86619e-05
1.90209e-05
2.00876e-05
2.18199e-05
2.41249e-05
2.68463e-05
2.97967e-05
3.28216e-05
3.58109e-05
3.86974e-05
4.14447e-05
4.40346e-05
4.64589e-05
4.87142e-05
5.08004e-05
5.27195e-05
5.44747e-05
5.60699e-05
5.7509e-05
5.87947e-05
5.99278e-05
6.09066e-05
6.17259e-05
6.23767e-05
6.28464e-05
6.31193e-05
6.31785e-05
6.30075e-05
6.25925e-05
6.19246e-05
6.10014e-05
5.9831e-05
5.84375e-05
5.68676e-05
5.51876e-05
5.34573e-05
5.16659e-05
4.96389e-05
4.69736e-05
4.31414e-05
3.78316e-05
3.1348e-05
2.45925e-05
1.83103e-05
1.28269e-05
8.73099e-06
6.68966e-06
6.76954e-06
8.69586e-06
1.23892e-05
1.76381e-05
2.33518e-05
2.79211e-05
3.06906e-05
3.2018e-05
3.25795e-05
3.28463e-05
3.29288e-05
3.28084e-05
3.24399e-05
3.17666e-05
3.07696e-05
2.94916e-05
2.79813e-05
2.63032e-05
2.45426e-05
2.28014e-05
2.12737e-05
2.00375e-05
1.91578e-05
1.86714e-05
1.85681e-05
1.87882e-05
1.9233e-05
1.97919e-05
2.03781e-05
2.09524e-05
2.15235e-05
2.21273e-05
2.27981e-05
2.35464e-05
2.43524e-05
2.51722e-05
2.59519e-05
2.66425e-05
2.72104e-05
2.76415e-05
2.79388e-05
2.81139e-05
2.81768e-05
2.81248e-05
2.79251e-05
2.75161e-05
2.68215e-05
2.5698e-05
2.39701e-05
2.1622e-05
1.89856e-05
1.65643e-05
1.46601e-05
1.32946e-05
1.23593e-05
1.17321e-05
1.13139e-05
1.1028e-05
1.08117e-05
1.06113e-05
1.03824e-05
1.00956e-05
9.74508e-06
9.35691e-06
9.00991e-06
8.8672e-06
9.15066e-06
1.00615e-05
1.17916e-05
1.38338e-05
1.50094e-05
1.54414e-05
1.58952e-05
1.6086e-05
1.58497e-05
9.45194e-06
1.74759e-05
1.71319e-05
1.51608e-05
1.34935e-05
1.23895e-05
1.17339e-05
1.14371e-05
1.14721e-05
1.18496e-05
1.26015e-05
1.37745e-05
1.54265e-05
1.76131e-05
2.03536e-05
2.35889e-05
2.71595e-05
3.08204e-05
3.42872e-05
3.7298e-05
3.96684e-05
4.1323e-05
4.22947e-05
4.26993e-05
4.26957e-05
4.2446e-05
4.20892e-05
4.17291e-05
4.14348e-05
4.12463e-05
4.11818e-05
4.12441e-05
4.14265e-05
4.1718e-05
4.21048e-05
4.25699e-05
4.31282e-05
4.3754e-05
4.44032e-05
4.50146e-05
4.55076e-05
4.57834e-05
4.57339e-05
4.52608e-05
4.43089e-05
4.29097e-05
4.12061e-05
3.9416e-05
3.77146e-05
3.61276e-05
3.45033e-05
3.25795e-05
3.01737e-05
2.73711e-05
2.44696e-05
2.19526e-05
2.01612e-05
1.90056e-05
1.84397e-05
1.84913e-05
1.92321e-05
2.06924e-05
2.28105e-05
2.5441e-05
2.84008e-05
3.15184e-05
3.46607e-05
3.77369e-05
4.06899e-05
4.34852e-05
4.61025e-05
4.85307e-05
5.07653e-05
5.28068e-05
5.46593e-05
5.63293e-05
5.7824e-05
5.91504e-05
6.03138e-05
6.13164e-05
6.21565e-05
6.28275e-05
6.33175e-05
6.36093e-05
6.36817e-05
6.35114e-05
6.30756e-05
6.23549e-05
6.13364e-05
6.00191e-05
5.84233e-05
5.66032e-05
5.46519e-05
5.26786e-05
5.07317e-05
4.86802e-05
4.61334e-05
4.25491e-05
3.75861e-05
3.14674e-05
2.49506e-05
1.87139e-05
1.319e-05
9.0837e-06
7.05216e-06
7.14222e-06
9.13602e-06
1.29345e-05
1.8196e-05
2.38107e-05
2.8361e-05
3.124e-05
3.27755e-05
3.35954e-05
3.40993e-05
3.43728e-05
3.43598e-05
3.39716e-05
3.31505e-05
3.19387e-05
3.04322e-05
2.86902e-05
2.67889e-05
2.48248e-05
2.2913e-05
2.1178e-05
1.97329e-05