/*--------------------------------*- C++ -*----------------------------------*\
  =========                 |
  \\      /  F ield         | OpenFOAM: The Open Source CFD Toolbox
   \\    /   O peration     | Website:  https://openfoam.org
    \\  /    A nd           | Version:  9
     \\/     M anipulation  |
\*---------------------------------------------------------------------------*/
FoamFile
{
    format      ascii;
    class       volScalarField;
    location    "0.12";
    object      p;
}
// * * * * * * * * * * * * * * * * * * * * * * * * * * * * * * * * * * * * * //

dimensions      [0 2 -2 0 0 0 0];

internalField   nonuniform List<scalar> 
12225
(
5.06664
4.13445
3.75787
3.74073
3.77136
3.80593
3.8837
4.0234
4.22544
4.49008
4.82173
5.2253
5.70262
6.24955
6.85351
7.48856
8.11885
8.68272
4.46424
3.88996
3.64713
3.6641
3.71691
3.76816
3.85511
3.9988
4.20149
4.46395
4.79062
5.18658
5.65407
6.18984
6.78314
7.41026
8.03918
8.60011
4.30146
3.98468
3.74918
3.70926
3.73569
3.77556
3.851
3.98156
4.16964
4.41445
4.71829
5.08417
5.51244
5.99852
6.53169
7.09095
7.64964
8.14161
4.17725
3.95228
3.71142
3.64567
3.6727
3.72141
3.8
3.92797
4.10922
4.34215
4.62726
4.96552
5.35504
5.78895
6.25449
6.73092
7.1915
7.59569
4.05444
3.88378
3.67763
3.6136
3.6424
3.69421
3.77035
3.89034
4.0597
4.2765
4.53967
4.84852
5.19953
5.58439
5.98934
6.39456
6.77486
7.10621
3.93611
3.81068
3.64589
3.58232
3.60238
3.65008
3.72114
3.83185
3.98797
4.18714
4.42686
4.70486
5.0163
5.35211
5.69845
6.03704
6.34586
6.60438
3.82305
3.73251
3.6023
3.53964
3.55078
3.59478
3.66203
3.7638
3.90564
4.08529
4.29923
4.54385
4.81335
5.09821
5.38496
5.65683
5.89457
6.07955
3.71358
3.64828
3.54641
3.4883
3.49292
3.5323
3.59404
3.68489
3.80996
3.9674
4.15296
4.3619
4.58765
4.82054
5.04767
5.25374
5.42193
5.53641
3.60592
3.5586
3.47986
3.42838
3.42749
3.46013
3.51398
3.59216
3.69878
3.83213
3.98747
4.15918
4.34015
4.52078
4.68894
4.83081
4.93167
4.97797
3.49856
3.46403
3.40346
3.35871
3.35283
3.37727
3.42141
3.48557
3.57233
3.67995
3.80344
3.93664
4.07217
4.20073
4.3111
4.3909
4.42716
4.40804
3.39024
3.36466
3.31769
3.27869
3.26818
3.28343
3.31615
3.36473
3.43017
3.51054
3.60086
3.69476
3.7848
3.86215
3.91658
3.9371
3.91237
3.8321
3.28905
3.26897
3.23081
3.19568
3.18091
3.18697
3.20772
3.2406
3.28534
3.33977
3.399
3.45672
3.50566
3.53752
3.54306
3.51254
3.43603
3.30475
3.1866
3.17022
3.13813
3.10536
3.08603
3.08239
3.09018
3.10644
3.12992
3.15811
3.18635
3.20851
3.21767
3.20619
3.16579
3.08801
2.96432
2.78737
3.06639
3.05257
3.02443
2.99217
2.9668
2.95137
2.94323
2.9394
2.93788
2.93589
2.92902
2.9116
2.87728
2.81928
2.7305
2.60393
2.43259
2.2108
2.92571
2.91311
2.88628
2.85193
2.81837
2.78873
2.76149
2.73398
2.70377
2.66801
2.62266
2.56273
2.48273
2.37696
2.23971
2.06553
1.8492
1.58687
2.76213
2.74928
2.7208
2.68112
2.63659
2.59002
2.54061
2.48612
2.42418
2.35207
2.26636
2.16294
2.03745
1.88548
1.70286
1.4858
1.23087
0.935994
2.57467
2.56007
2.5269
2.47832
2.41961
2.35337
2.27919
2.1954
2.10002
1.99085
1.86526
1.72027
1.55279
1.35989
1.13895
0.88784
0.604797
0.289322
2.36623
2.3484
2.30764
2.24672
2.17085
2.08274
1.9824
1.86876
1.74055
1.59638
1.43465
1.25359
1.05147
0.826781
0.578366
0.305526
0.00785505
-0.314008
2.14854
2.12573
2.07431
1.99771
1.90212
1.79092
1.66465
1.52288
1.36524
1.19139
1.00088
0.793122
0.567639
0.324153
0.0626722
-0.216445
-0.512649
-0.824664
1.99464
1.96666
1.90428
1.81256
1.69986
1.57065
1.42572
1.26491
1.08853
0.89712
0.691054
0.470563
0.235921
-0.0124216
-0.273816
-0.547385
-0.832134
-1.12659
1.91069
1.87791
1.80523
1.70018
1.57397
1.43199
1.27463
1.1017
0.914047
0.712832
0.498836
0.272618
0.0348206
-0.213724
-0.47204
-0.739037
-1.01361
-1.2944
1.87135
1.83257
1.74752
1.62822
1.48998
1.33803
1.17116
0.988959
0.793139
0.585532
0.36729
0.139103
-0.0983003
-0.343926
-0.596635
-0.855197
-1.11831
-1.38447
1.86679
1.82048
1.71968
1.5845
1.43565
1.27641
1.10257
0.913429
0.711488
0.498538
0.276533
0.0462879
-0.191299
-0.435145
-0.684016
-0.936679
-1.19199
-1.44891
1.89109
1.83296
1.71165
1.55986
1.40196
1.23623
1.05602
0.862043
0.658035
0.443486
0.221198
-0.00827565
-0.243804
-0.484119
-0.727951
-0.974026
-1.221
-1.46743
1.93897
1.86223
1.71335
1.54792
1.38666
1.21512
1.02523
0.821919
0.610261
0.3938
0.169757
-0.0608943
-0.296495
-0.535432
-0.776413
-1.01822
-1.25967
-1.50004
2.0077
1.90383
1.71406
1.53589
1.38051
1.21286
1.02214
0.817466
0.60563
0.388004
0.163131
-0.067806
-0.302829
-0.540216
-0.778714
-1.01731
-1.25488
-1.48997
2.09286
1.95939
1.72182
1.51905
1.35288
1.1767
0.980485
0.774088
0.562415
0.344931
0.120878
-0.108468
-0.341171
-0.575623
-0.810548
-1.04494
-1.27789
-1.50926
2.18337
2.00689
1.77233
1.58888
1.41981
1.22841
1.01979
0.805582
0.587849
0.364861
0.136352
-0.0962237
-0.33109
-0.566755
-0.801924
-1.03556
-1.26687
-1.49682
2.28897
1.8852
1.62266
1.49567
1.35789
1.17599
0.973927
0.766594
0.554298
0.335107
0.109627
-0.120136
-0.352199
-0.584912
-0.816755
-1.04624
-1.27233
-1.49424
2.87583
2.14448
1.73523
1.57078
1.41165
1.21062
0.995551
0.780182
0.562271
0.3388
0.110176
-0.121709
-0.355031
-0.588253
-0.819867
-1.04821
-1.27187
-1.48797
-15.904
-15.6828
-14.7652
-14.3852
-15.2294
-17.0271
-18.8311
-19.9102
-20.145
-19.7609
-19.0796
-18.3887
-17.8878
-17.6405
-17.5713
-17.5756
-17.5011
-17.2249
-17.1233
-17.3529
-17.5243
-17.4592
-17.1668
-16.7568
-16.6802
-17.0923
-18.1264
-19.8055
-22.0524
-24.7192
-27.622
-30.5708
-33.3917
-35.9393
-38.1052
-39.8211
-41.0533
-41.7897
-42.0119
-41.6829
-40.7873
-39.4101
-37.6277
-35.5066
-33.1037
-30.4686
-27.6446
-24.6689
-21.5724
-18.3805
-15.1136
-11.7889
-8.4222
-5.03031
-1.63329
1.74356
5.06882
8.30534
11.4122
14.3482
17.0751
19.562
21.7874
23.7412
25.4244
26.8465
28.0244
28.9813
29.7435
30.338
30.7896
31.1197
31.3453
31.4864
31.5599
31.5803
31.5601
31.5101
31.4393
31.3556
31.266
31.1764
31.0919
31.0183
30.9707
30.9431
30.8792
30.7569
30.5892
30.3921
30.1989
30.0438
29.9282
29.8524
29.8151
29.8082
29.8311
29.9014
30.0556
30.3275
30.7231
31.1734
31.5269
31.6767
31.6642
31.4394
30.6558
28.88
25.8733
21.2089
14.8939
7.33849
-0.541978
-7.98402
-14.4793
-19.7386
-23.6238
-26.082
-27.0947
-26.6522
-24.812
-21.7137
-17.4915
-12.2979
-6.3129
0.250655
7.14449
14.0866
20.7693
26.8884
32.2
36.5629
39.9016
42.1792
43.4397
43.817
43.4698
42.5606
41.2389
39.6336
37.8584
36.0219
34.2412
32.7583
31.6905
30.6771
29.3581
27.2999
24.3048
20.936
18.493
17.5113
16.7056
14.4398
9.38524
1.86824
-5.85544
-11.2058
-12.3739
-9.9748
-4.93101
1.10285
6.89646
11.8258
15.7247
18.678
20.7639
22.3668
23.5504
24.4835
25.3119
26.1307
26.8394
27.1502
26.9875
26.4404
25.0355
21.9627
17.3663
12.5172
-16.6077
-16.9358
-17.7676
-19.4194
-21.6145
-23.7944
-25.4459
-26.2812
-26.1447
-24.9911
-23.0636
-20.876
-18.9952
-17.762
-17.1541
-16.9212
-16.9502
-17.0294
-17.0919
-17.2742
-17.6802
-18.0401
-17.9872
-17.7861
-17.9891
-18.8742
-20.542
-22.9266
-25.8475
-29.068
-32.3454
-35.4662
-38.2628
-40.6158
-42.4464
-43.7104
-44.3948
-44.5123
-44.108
-43.2606
-42.0439
-40.4602
-38.5348
-36.3061
-33.8191
-31.1183
-28.2449
-25.2344
-22.1165
-18.9148
-15.6473
-12.3279
-8.96879
-5.58284
-2.18647
1.19787
4.54029
7.80358
10.9453
13.9213
16.6903
19.2185
21.4822
23.4702
25.1828
26.6302
27.8303
28.8066
29.5851
30.1926
30.6554
30.9933
31.2267
31.3752
31.4556
31.4824
31.468
31.423
31.3565
31.2762
31.1891
31.1013
31.0187
30.9456
30.875
30.8017
30.7361
30.6552
30.529
30.3678
30.1795
30.006
29.8906
29.8391
29.8334
29.8512
29.8768
29.9209
30.026
30.2613
30.649
31.1066
31.4596
31.5744
31.497
31.32
30.6918
28.9441
25.4338
19.933
12.7255
4.65744
-3.35105
-10.6527
-16.8698
-21.7981
-25.333
-27.4416
-28.1533
-27.5309
-25.629
-22.5046
-18.2704
-13.0711
-7.08199
-0.511201
6.39717
13.3636
20.0826
26.2514
31.6192
36.0366
39.4169
41.7227
43.0129
43.419
43.1005
42.2201
40.9266
39.3481
37.592
35.7605
33.9642
32.231
30.6135
29.3128
28.1021
26.4093
23.7401
20.599
18.5014
18.0613
17.5874
14.8462
9.29256
1.13735
-7.25349
-12.7412
-13.6577
-10.7319
-5.30848
0.974807
6.9128
11.912
15.8284
18.7552
20.8545
22.4144
23.5687
24.4731
25.2735
26.0827
26.8134
27.134
26.9553
26.4611
25.0878
21.7946
16.9347
11.7297
-18.278
-19.5013
-22.5087
-25.5882
-27.9771
-29.7399
-30.9283
-31.4891
-31.307
-30.1374
-27.8928
-24.8248
-21.5074
-18.7043
-16.8904
-15.8799
-15.4055
-15.7212
-16.5727
-17.3438
-18.3279
-19.5775
-20.9904
-22.5879
-24.4469
-26.5872
-28.9672
-31.499
-34.0806
-36.6155
-39.0211
-41.2273
-43.1728
-44.8019
-46.0644
-46.9146
-47.3103
-47.2237
-46.6579
-45.6316
-44.1923
-42.3845
-40.2525
-37.8426
-35.2017
-32.3751
-29.4038
-26.3232
-23.1617
-19.9399
-16.6713
-13.364
-10.0224
-6.65101
-3.25843
0.139277
3.51583
6.83414
10.0483
13.1082
15.9653
18.5791
20.921
22.9769
24.7464
26.2406
27.4791
28.487
29.2926
29.9195
30.4031
30.7579
31.0067
31.1693
31.2625
31.301
31.2971
31.2615
31.2033
31.1303
31.0492
30.9656
30.8845
30.8102
30.7452
30.689
30.6344
30.562
30.4592
30.3241
30.186
30.0609
29.9674
29.9152
29.8959
29.9018
29.9293
29.9958
30.1408
30.3961
30.7666
31.1646
31.4355
31.5042
31.43
31.0418
29.8148
26.7763
21.476
14.6764
7.20458
-0.311851
-7.44432
-13.9027
-19.466
-23.9536
-27.2205
-29.1739
-29.793
-29.0998
-27.1388
-23.9791
-19.7265
-14.5185
-8.52274
-1.93963
4.9943
12.0041
18.7863
25.0372
30.4985
35.0051
38.4613
40.8288
42.1756
42.6343
42.367
41.5379
40.2947
38.7622
37.0428
35.2209
33.3769
31.5945
29.9423
28.3641
26.6657
24.6624
22.2669
19.8589
18.291
17.7732
17.0878
14.3207
8.27204
-0.568466
-9.22419
-14.4358
-15.0316
-11.5537
-5.70326
0.887862
7.00415
12.0808
16.0073
18.9092
20.9922
22.5101
23.6299
24.5008
25.2635
26.0488
26.7945
27.1432
26.9699
26.4255
24.7791
20.97
15.7448
10.4004
-21.7338
-23.8755
-26.625
-28.8272
-30.4774
-31.7078
-32.5589
-32.9508
-32.7107
-31.645
-29.6167
-26.8492
-23.6407
-20.5796
-18.3025
-17.2669
-17.0792
-17.5538
-18.734
-20.388
-22.4182
-24.7053
-27.1231
-29.5686
-31.989
-34.3647
-36.6933
-38.9747
-41.1999
-43.3432
-45.3606
-47.1937
-48.776
-50.0413
-50.9308
-51.399
-51.4161
-50.9696
-50.0654
-48.7309
-46.9991
-44.9132
-42.5223
-39.879
-37.0355
-34.0413
-30.9407
-27.7704
-24.5582
-21.3222
-18.0702
-14.8016
-11.5094
-8.18475
-4.82243
-1.4268
1.98329
5.37227
8.68938
11.8745
14.8669
17.6139
20.0783
22.2407
24.0992
25.6657
26.9623
28.0168
28.8616
29.5261
30.037
30.4169
30.6887
30.8722
30.9845
31.0402
31.052
31.0304
30.9845
30.922
30.8498
30.7734
30.6976
30.6255
30.5578
30.4931
30.4278
30.3556
30.2711
30.1745
30.0751
29.9809
29.9005
29.8399
29.8125
29.8325
29.9158
30.0768
30.3196
30.6418
31.0254
31.3954
31.6187
31.6175
31.2315
29.8731
26.8691
21.7946
15.4471
8.61758
1.72466
-5.0244
-11.4532
-17.3527
-22.4952
-26.6695
-29.7051
-31.4929
-32.0003
-31.2279
-29.2085
-26.0128
-21.7432
-16.5307
-10.5339
-3.94239
3.01849
10.0821
16.9468
23.3031
28.8883
33.5159
37.0765
39.5362
40.9656
41.5011
41.3089
40.5549
39.3856
37.9206
36.254
34.4643
32.6228
30.7808
28.9612
27.1553
25.2847
23.2022
20.8626
18.5687
16.8574
15.8891
14.8354
11.9643
5.97089
-2.54674
-10.7201
-15.4474
-15.5743
-11.7541
-5.64482
1.09806
7.27279
12.3433
16.2337
19.0934
21.1464
22.6323
23.7327
24.5949
25.3456
26.1193
26.878
27.2682
27.088
26.2872
24.0256
19.6584
14.2806
8.93456
-24.1079
-25.8706
-27.4266
-28.7706
-29.9308
-30.87
-31.5621
-31.9372
-31.8613
-31.1206
-29.6797
-27.653
-25.348
-23.3053
-22.0455
-21.6492
-21.9325
-22.8915
-24.5023
-26.5746
-28.9147
-31.3663
-33.8261
-36.2443
-38.6096
-40.9272
-43.2034
-45.4337
-47.5959
-49.6497
-51.54
-53.2031
-54.5728
-55.586
-56.187
-56.3355
-56.0158
-55.2151
-53.962
-52.2783
-50.2012
-47.7799
-45.0718
-42.1381
-39.0397
-35.834
-32.5714
-29.2928
-26.0276
-22.7923
-19.589
-16.4066
-13.223
-10.01
-6.7414
-3.40154
0.00552869
3.45028
6.87765
10.2141
13.38
16.3041
18.9343
21.2423
23.2228
24.8888
26.2656
27.3863
28.2877
29.0002
29.5504
29.9653
30.2686
30.4807
30.6189
30.6982
30.7312
30.7286
30.6995
30.6516
30.5914
30.5246
30.4555
30.3875
30.3223
30.2602
30.1998
30.1369
30.0675
29.991
29.9117
29.8368
29.7748
29.734
29.7239
29.7568
29.8602
30.0628
30.3714
30.7676
31.2079
31.5968
31.7866
31.5819
30.3503
27.4602
22.5782
16.4859
9.99855
3.46108
-3.03205
-9.39697
-15.4732
-21.0445
-25.886
-29.7965
-32.6137
-34.2316
-34.617
-33.7586
-31.6805
-28.4513
-24.1705
-18.9634
-12.979
-6.39318
0.58346
7.69609
14.6467
21.1205
26.8453
31.6183
35.3078
37.8834
39.4175
40.0513
39.9555
39.2977
38.2223
36.8433
35.2468
33.4997
31.6564
29.7591
27.8371
25.8913
23.8693
21.694
19.3491
16.988
14.9486
13.4027
11.803
8.8449
3.4829
-3.85831
-10.8777
-14.8482
-14.5859
-10.674
-4.66782
1.87023
7.84263
12.7415
16.5071
19.2855
21.2936
22.7544
23.8484
24.7243
25.4913
26.2753
27.046
27.4759
27.2468
26.0245
23.0877
18.242
12.7568
7.35738
-23.5242
-24.5449
-25.5053
-26.4883
-27.4135
-28.2142
-28.8268
-29.2496
-29.3749
-29.1343
-28.5142
-27.6135
-26.6863
-26.0317
-25.8373
-26.1979
-27.1704
-28.6809
-30.5934
-32.7611
-35.0714
-37.4461
-39.8425
-42.2455
-44.6522
-47.0577
-49.4464
-51.7886
-54.0405
-56.1462
-58.042
-59.6598
-60.9319
-61.7944
-62.1926
-62.0855
-61.4536
-60.3163
-58.6742
-56.5665
-54.0472
-51.1819
-48.043
-44.7054
-41.2425
-37.7224
-34.2052
-30.7402
-27.3639
-24.0959
-20.9367
-17.8661
-14.8448
-11.82
-8.73535
-5.54376
-2.22205
1.21704
4.7203
8.2004
11.5534
14.6812
17.5089
19.994
22.125
23.915
25.3945
26.5996
27.5744
28.3458
28.9469
29.4068
29.7502
29.9984
30.1693
30.2781
30.3376
30.3588
30.3506
30.321
30.2764
30.2224
30.1633
30.1025
30.0422
29.9833
29.9258
29.8682
29.8095
29.7496
29.6904
29.6352
29.5891
29.5598
29.5593
29.6072
29.7317
29.9642
30.3166
30.7663
31.2496
31.6429
31.7341
31.0705
28.7245
24.3116
18.3324
11.8607
5.36129
-1.07273
-7.42735
-13.6166
-19.4759
-24.806
-29.4082
-33.1015
-35.7334
-37.2006
-37.4721
-36.5305
-34.3955
-31.1353
-26.849
-21.6576
-15.7008
-9.13948
-2.16674
4.97777
12.0031
18.5944
24.4636
29.3899
33.2234
35.9304
37.5851
38.3335
38.3508
37.8058
36.84
35.5605
34.044
32.3465
30.5123
28.5765
26.5644
24.4818
22.3075
20.0132
17.6123
15.2118
13.0044
11.0621
9.04129
6.1505
1.68843
-4.10347
-9.57063
-12.5689
-12.0305
-8.35263
-2.82383
3.18058
8.71414
13.288
16.8397
19.4893
21.4282
22.8576
23.9529
24.844
25.6432
26.434
27.2082
27.6497
27.3277
25.651
22.0817
16.9065
11.2053
5.7006
-20.1112
-20.7041
-21.5428
-22.4668
-23.3821
-24.2434
-25.026
-25.6941
-26.212
-26.5526
-26.7317
-26.8407
-27.0344
-27.4798
-28.3045
-29.5639
-31.2203
-33.175
-35.3399
-37.6471
-40.0568
-42.5497
-45.118
-47.7558
-50.4516
-53.1829
-55.9135
-58.593
-61.1579
-63.5342
-65.6414
-67.3964
-68.7189
-69.5363
-69.7895
-69.4406
-68.4806
-66.9195
-64.7859
-62.1359
-59.0424
-55.59
-51.8699
-47.9746
-43.9929
-40.0064
-36.0868
-32.2942
-28.6752
-25.259
-22.0527
-19.036
-16.1594
-13.3475
-10.5097
-7.55691
-4.42318
-1.08704
2.41453
5.98808
9.50464
12.832
15.8654
18.5415
20.8391
22.7708
24.3697
25.6789
26.7345
27.5755
28.2374
28.7509
29.1422
29.4333
29.6428
29.7864
29.8771
29.9262
29.9428
29.9349
29.9091
29.8708
29.8246
29.7739
29.7215
29.6692
29.618
29.5683
29.52
29.4734
29.4291
29.389
29.3567
29.3394
29.3508
29.4129
29.5546
29.8045
30.173
30.6365
31.1214
31.4696
31.3335
29.9919
26.5818
21.0417
14.467
7.78398
1.22385
-5.21745
-11.5292
-17.615
-23.321
-28.4725
-32.894
-36.4199
-38.9045
-40.247
-40.4204
-39.4032
-37.2141
-33.9244
-29.6353
-24.4663
-18.5492
-12.0307
-5.08457
2.06646
9.14455
15.8366
21.8451
26.9213
30.9014
33.7454
35.5284
36.4007
36.5413
36.1195
35.2724
34.0995
32.6674
31.0217
29.1965
27.221
25.12
22.9102
20.5962
18.1822
15.6998
13.2412
10.9285
8.7831
6.58247
3.87621
0.290515
-3.97032
-7.80625
-9.72636
-8.89151
-5.53733
-0.628847
4.74072
9.71291
13.9045
17.2074
19.7051
21.557
22.9381
24.0093
24.8995
25.7081
26.5045
27.2611
27.6752
27.2251
25.1622
21.0941
15.594
9.69306
4.08031
-14.5276
-15.0952
-15.9599
-16.9966
-18.0985
-19.2089
-20.2987
-21.3439
-22.3366
-23.2885
-24.2463
-25.2926
-26.5237
-28.0115
-29.7748
-31.781
-33.9768
-36.3216
-38.7941
-41.3884
-44.1105
-46.9695
-49.9696
-53.1029
-56.3454
-59.6556
-62.9736
-66.2228
-69.3122
-72.141
-74.6052
-76.6039
-78.043
-78.8412
-78.9386
-78.3078
-76.9592
-74.9119
-72.214
-68.9409
-65.1875
-61.0606
-56.671
-52.127
-47.5287
-42.9658
-38.5179
-34.256
-30.2415
-26.5218
-23.1208
-20.029
-17.197
-14.5367
-11.9302
-9.24615
-6.36725
-3.22211
0.186898
3.7757
7.39837
10.8881
14.1056
16.963
19.4273
21.5078
23.2343
24.6473
25.7917
26.7098
27.4394
28.0128
28.4576
28.7968
29.0495
29.232
29.3578
29.4382
29.4828
29.4996
29.4954
29.4757
29.4451
29.4074
29.3657
29.3223
29.2792
29.2376
29.1987
29.163
29.1313
29.1041
29.084
29.0774
29.0983
29.1706
29.3223
29.5771
29.9402
30.3853
30.8275
31.0531
30.5578
28.4844
24.1779
17.9308
11.01
4.17982
-2.45672
-8.94295
-15.2526
-21.2828
-26.8918
-31.9238
-36.2196
-39.6248
-41.9997
-43.2459
-43.3409
-42.2588
-40.0193
-36.7002
-32.4077
-27.2619
-21.3906
-14.9286
-8.03092
-0.901633
6.19963
12.9688
19.0969
24.3084
28.4255
31.4014
33.3109
34.3081
34.5747
34.2789
33.5524
32.4858
31.1353
29.5355
27.7121
25.69
23.4958
21.1567
18.6989
16.1537
13.5724
11.0384
8.64513
6.4106
4.19505
1.74479
-1.09639
-4.10229
-6.52744
-7.40773
-6.18286
-3.01866
1.37823
6.16255
10.6509
14.4882
17.5562
19.9047
21.6622
22.9814
24.0103
24.8732
25.6629
26.4335
27.1386
27.4846
26.8961
24.5476
20.1214
14.3589
8.29285
2.60392
-7.8631
-8.42262
-9.33476
-10.4934
-11.794
-13.1957
-14.661
-16.1922
-17.8062
-19.5307
-21.3974
-23.4301
-25.6312
-27.9797
-30.4439
-33.0006
-35.6453
-38.3925
-41.2685
-44.3054
-47.5331
-50.9709
-54.6211
-58.4649
-62.4599
-66.5399
-70.6162
-74.5811
-78.3137
-81.6868
-84.5763
-86.8687
-88.4612
-89.2631
-89.2125
-88.2945
-86.5259
-83.935
-80.595
-76.6102
-72.1074
-67.2259
-62.105
-56.8735
-51.6414
-46.4969
-41.5099
-36.7418
-32.2559
-28.1176
-24.3814
-21.0678
-18.144
-15.5193
-13.0573
-10.5937
-7.96333
-5.04207
-1.78662
1.74329
5.40027
8.99106
12.3467
15.3564
17.9703
20.1849
22.0285
23.5438
24.7777
25.7748
26.5746
27.2109
27.7123
28.1025
28.4014
28.6256
28.789
28.9034
28.9784
29.0223
29.042
29.0432
29.0308
29.0087
28.9802
28.9481
28.915
28.8828
28.8533
28.8277
28.8065
28.7902
28.7804
28.7828
28.8112
28.8892
29.0426
29.2898
29.6296
30.0281
30.382
30.4125
29.4977
26.7666
21.7899
15.132
8.0172
1.08041
-5.64088
-12.1923
-18.5277
-24.5407
-30.0999
-35.0614
-39.2774
-42.6025
-44.9029
-46.082
-46.1203
-44.9857
-42.7017
-39.3547
-35.0574
-29.9343
-24.1108
-17.7151
-10.8868
-3.80727
3.28991
10.1092
16.3256
21.6463
25.8794
28.9713
30.9961
32.1104
32.4974
32.3226
31.7109
30.7428
29.4631
27.8961
26.0596
23.9752
21.6731
19.192
16.5786
13.8893
11.1956
8.58305
6.13843
3.89208
1.76819
-0.368235
-2.55768
-4.57905
-5.90292
-5.90885
-4.26874
-1.14493
2.92341
7.2856
11.4011
14.9546
17.8295
20.0513
21.7234
22.979
23.9531
24.7641
25.502
26.209
26.8272
27.0748
26.3605
23.8356
19.2023
13.2731
7.08687
1.33629
-1.42106
-1.93757
-2.83205
-4.02267
-5.47409
-7.15417
-9.05946
-11.1924
-13.5487
-16.1085
-18.8329
-21.6692
-24.5646
-27.4837
-30.4191
-33.391
-36.4398
-39.6174
-42.9793
-46.5763
-50.4461
-54.6062
-59.0489
-63.738
-68.6084
-73.5674
-78.4976
-83.262
-87.7123
-91.6977
-95.0743
-97.715
-99.509
-100.354
-100.18
-98.9904
-96.7969
-93.6373
-89.6075
-84.8425
-79.5071
-73.7817
-67.8468
-61.8658
-55.9716
-50.2564
-44.7736
-39.5539
-34.6329
-30.0702
-25.9435
-22.3142
-19.1849
-16.4768
-14.0448
-11.7032
-9.2517
-6.52416
-3.43359
-0.0075238
3.62796
7.25304
10.6927
13.81
16.5365
18.8594
20.803
22.4095
23.7261
24.7982
25.6661
26.3644
26.9224
27.3643
27.7104
27.9777
28.1804
28.3303
28.4375
28.5103
28.5559
28.5801
28.5879
28.5835
28.5704
28.5517
28.5302
28.5085
28.4887
28.4726
28.4609
28.4539
28.453
28.4629
28.4963
28.5752
28.7224
28.9512
29.2525
29.5818
29.8122
29.6092
28.2982
25.0643
19.651
12.7614
5.5326
-1.50309
-8.31988
-14.9418
-21.3118
-27.3277
-32.8678
-37.7939
-41.9647
-45.2426
-47.499
-48.6367
-48.6355
-47.4617
-45.1448
-41.7781
-37.4811
-32.3852
-26.6165
-20.3005
-13.5554
-6.54014
0.528632
7.36253
13.63
19.0251
23.3437
26.526
28.6457
29.861
30.3548
30.2885
29.7782
28.8932
27.6664
26.1115
24.2393
22.0694
19.6368
16.9935
14.2067
11.3573
8.53968
5.85162
3.38396
1.18478
-0.771358
-2.54583
-4.12744
-5.32934
-5.7794
-5.07985
-3.05834
0.11166
3.99488
8.0779
11.9269
15.2712
18.0001
20.124
21.7264
22.9241
23.8396
24.5845
25.2455
25.8587
26.362
26.4927
25.6775
23.0809
18.3842
12.3861
6.14318
0.369862
3.56239
3.12957
2.328
1.15577
-0.408253
-2.36739
-4.71318
-7.41118
-10.3964
-13.5787
-16.8597
-20.1574
-23.4249
-26.6577
-29.8877
-33.1717
-36.5796
-40.1859
-44.0604
-48.2599
-52.8203
-57.7504
-63.0282
-68.5982
-74.3724
-80.2324
-86.0337
-91.6104
-96.7842
-101.378
-105.228
-108.199
-110.181
-111.075
-110.804
-109.422
-106.879
-103.222
-98.5627
-93.0584
-86.9075
-80.3326
-73.5601
-66.7983
-60.2176
-53.9312
-47.9872
-42.3832
-37.11
-32.1957
-27.7183
-23.768
-20.3847
-17.5146
-15.0168
-12.6989
-10.3372
-7.74044
-4.78256
-1.45671
2.11802
5.74264
9.21769
12.393
15.1886
17.5852
19.6028
21.2814
22.6672
23.8048
24.7344
25.4906
26.1026
26.5949
26.9877
27.2983
27.5408
27.7274
27.8679
27.9711
28.044
28.0928
28.1225
28.1375
28.1416
28.138
28.1297
28.1195
28.1101
28.1033
28.1004
28.1019
28.1086
28.1244
28.1604
28.2359
28.3704
28.5717
28.8231
29.068
29.157
28.7229
27.0918
23.5283
17.8765
10.8743
3.57206
-3.55397
-10.4625
-17.1562
-23.5714
-29.6057
-35.142
-40.0504
-44.1962
-47.4456
-49.673
-50.7835
-50.757
-49.5627
-47.2382
-43.8755
-39.5974
-34.5397
-28.8328
-22.5954
-15.9401
-9.00583
-1.9922
4.82084
11.0992
16.5276
20.8933
24.1323
26.3186
27.6113
28.1914
28.2139
27.7849
26.9608
25.762
24.1917
22.2544
19.9689
17.3771
14.5451
11.5619
8.53432
5.58108
2.8203
0.352998
-1.75242
-3.48614
-4.86499
-5.8601
-6.33332
-6.0405
-4.74293
-2.37293
0.889517
4.6806
8.58473
12.2485
15.4418
18.0634
20.1143
21.6632
22.8128
23.674
24.3501
24.9234
25.4266
25.7999
25.8068
24.918
22.3358
17.6977
11.7294
5.505
-0.240008
6.60775
6.26766
5.56443
4.40966
2.75587
0.588817
-2.0598
-5.10807
-8.43491
-11.9058
-15.4053
-18.8623
-22.2591
-25.6245
-29.02
-32.5253
-36.2277
-40.2128
-44.5555
-49.3116
-54.511
-60.1514
-66.1955
-72.5692
-79.1628
-85.8332
-92.4079
-98.6905
-104.472
-109.552
-113.762
-116.973
-119.09
-120.033
-119.73
-118.233
-115.45
-111.433
-106.296
-100.211
-93.4006
-86.1202
-78.6348
-71.1925
-64.0008
-57.2025
-50.8552
-44.9397
-39.4079
-34.2472
-29.5141
-25.304
-21.6805
-18.6249
-16.0164
-13.6545
-11.3084
-8.76321
-5.87376
-2.61502
0.906726
4.50025
7.96514
11.149
13.9682
16.3998
18.4606
20.1875
21.6245
22.8146
23.7966
24.6041
25.2659
25.8057
26.2438
26.5969
26.8792
27.1026
27.2772
27.4115
27.5129
27.5874
27.6403
27.6761
27.6987
27.7115
27.7176
27.7201
27.7215
27.7243
27.7298
27.739
27.7524
27.773
27.8095
27.8781
27.995
28.1628
28.3575
28.5114
28.4591
27.8252
25.9694
22.23
16.4962
9.47688
2.13714
-5.05986
-12.0408
-18.7895
-25.2417
-31.2991
-36.8474
-41.7594
-45.9032
-49.1452
-51.3599
-52.4551
-52.4168
-51.2187
-48.8993
-45.5569
-41.3136
-36.3073
-30.6712
-24.5221
-17.966
-11.1283
-4.19477
2.56289
8.81036
14.2271
18.5958
21.8515
24.0699
25.4103
26.0502
26.1362
25.7622
24.9709
23.7694
22.1506
20.1133
17.6773
14.8924
11.841
8.63533
5.40945
2.30867
-0.523881
-2.97248
-4.94754
-6.41765
-7.37723
-7.79925
-7.59832
-6.63679
-4.79795
-2.09142
1.29925
5.06383
8.86041
12.3983
15.4838
18.0266
20.0238
21.5331
22.6456
23.4618
24.0758
24.5635
24.9554
25.1974
25.0842
24.1462
21.6419
17.1636
11.3244
5.19152
-0.476969
7.90449
7.65618
7.0301
5.92062
4.25468
2.01958
-0.729308
-3.87562
-7.26856
-10.7615
-14.2474
-17.6773
-21.0593
-24.4445
-27.9109
-31.5506
-35.4592
-39.7264
-44.4276
-49.6151
-55.3117
-61.5049
-68.1436
-75.1375
-82.3573
-89.637
-96.7785
-103.558
-109.743
-115.121
-119.524
-122.835
-124.983
-125.924
-125.63
-124.043
-121.139
-116.947
-111.564
-105.163
-97.975
-90.2756
-82.3545
-74.485
-66.8984
-59.7591
-53.14
-47.0213
-41.3365
-36.0364
-31.1478
-26.7629
-22.9661
-19.761
-17.038
-14.5973
-12.2018
-9.63217
-6.74231
-3.50582
-0.0235257
3.5229
6.94313
10.0929
12.8933
15.3219
17.3941
19.1442
20.6131
21.8411
22.865
23.7165
24.4228
25.0068
25.4878
25.8821
26.2034
26.4635
26.6722
26.8381
26.9685
27.0694
27.1464
27.204
27.2461
27.2763
27.2979
27.3137
27.3266
27.3391
27.353
27.3692
27.3885
27.4126
27.4482
27.5078
27.6041
27.7351
27.8714
27.9362
27.7571
26.9703
24.9856
21.2037
15.5179
8.56679
1.23359
-6.00649
-13.0363
-19.8202
-26.2944
-32.3648
-37.9185
-42.8306
-46.9714
-50.2101
-52.4257
-53.527
-53.4969
-52.3157
-50.0272
-46.7306
-42.5461
-37.6124
-32.0636
-26.0159
-19.5712
-12.846
-6.01641
0.652095
6.82628
12.1842
16.5086
19.7375
21.9494
23.3038
23.9728
24.0926
23.743
22.9516
21.7121
20.0073
17.8314
15.2064
12.192
8.88842
5.43249
1.98726
-1.27342
-4.17973
-6.59617
-8.41418
-9.58963
-10.1119
-9.96928
-9.12983
-7.54509
-5.19446
-2.14825
1.406
5.19843
8.94435
12.4039
15.4154
17.9021
19.8607
21.3418
22.4276
23.2097
23.7733
24.1868
24.4779
24.5997
24.3794
23.414
21.0333
16.797
11.1815
5.21097
-0.338209
8.22712
8.02425
7.46504
6.42439
4.81707
2.63307
-0.0605186
-3.13366
-6.42912
-9.80538
-13.1695
-16.4896
-19.7879
-23.1276
-26.5932
-30.2811
-34.2891
-38.7076
-43.61
-49.0455
-55.031
-61.5461
-68.5298
-75.8796
-83.4526
-91.0668
-98.5059
-105.53
-111.893
-117.378
-121.832
-125.147
-127.271
-128.188
-127.904
-126.383
-123.528
-119.362
-113.974
-107.53
-100.265
-92.4607
-84.4174
-76.4186
-68.7041
-61.4475
-54.7315
-48.5417
-42.8021
-37.4477
-32.4923
-28.0265
-24.1425
-20.8482
-18.0335
-15.498
-13.0083
-10.3557
-7.40987
-4.15732
-0.701101
2.78759
6.13581
9.21608
11.9607
14.3527
16.4075
18.1576
19.6404
20.893
21.9487
22.8368
23.5825
24.2068
24.7281
25.1617
25.5209
25.8169
26.0594
26.2567
26.4162
26.5439
26.6454
26.7252
26.7875
26.8357
26.8733
26.903
26.9278
26.9502
26.9723
26.9952
27.0195
27.0463
27.0799
27.1294
27.2037
27.2978
27.3782
27.363
27.0811
26.1944
24.1698
20.46
14.9353
8.13505
0.862375
-6.38562
-13.4391
-20.2375
-26.7145
-32.7792
-38.3213
-43.2195
-47.3478
-50.582
-52.8073
-53.9313
-53.929
-52.7868
-50.5541
-47.3299
-43.231
-38.3947
-32.9542
-27.0248
-20.7062
-14.1106
-7.40917
-0.863837
5.19402
10.4449
14.6766
17.8338
19.9998
21.3332
21.9986
22.1198
21.7608
20.9334
19.6175
17.7866
15.4316
12.578
9.29693
5.70804
1.9743
-1.71088
-5.14364
-8.12728
-10.5029
-12.1472
-13.0074
-13.0805
-12.3787
-10.924
-8.7448
-5.89793
-2.50233
1.2494
5.11748
8.86191
12.2844
15.2522
17.7028
19.6359
21.0988
22.1674
22.9261
23.4525
23.8075
24.0156
24.0373
23.7299
22.7581
20.5336
16.6026
11.2966
5.56177
0.177124
8.3336
8.14544
7.6325
6.66311
5.14706
3.07424
0.510812
-2.4167
-5.5579
-8.78075
-12.0023
-15.1988
-18.3897
-21.6514
-25.0623
-28.7186
-32.7176
-37.1482
-42.0829
-47.5689
-53.6211
-60.2161
-67.2892
-74.7336
-82.4013
-90.1067
-97.6298
-104.728
-111.158
-116.699
-121.187
-124.521
-126.657
-127.593
-127.341
-125.839
-123.017
-118.909
-113.608
-107.277
-100.146
-92.4906
-84.6045
-76.7627
-69.1967
-62.0724
-55.4671
-49.3629
-43.6837
-38.3712
-33.4476
-29.0053
-25.1291
-21.8127
-18.9354
-16.2987
-13.6839
-10.908
-7.87023
-4.58036
-1.14768
2.269
5.5197
8.49981
11.158
13.4853
15.4994
17.2304
18.7123
19.9778
21.0566
21.9745
22.7541
23.4148
23.9731
24.4436
24.8386
25.169
25.4443
25.6724
25.8606
26.0149
26.1409
26.2431
26.3257
26.3923
26.4461
26.4901
26.527
26.5593
26.5893
26.6183
26.647
26.6757
26.7069
26.7459
26.7983
26.8576
26.8881
26.8072
26.4514
25.5164
23.5296
19.9885
14.7247
8.16049
1.01373
-6.19732
-13.2444
-20.0338
-26.4924
-32.5318
-38.0463
-42.9187
-47.027
-50.2516
-52.4836
-53.6334
-53.6708
-52.587
-50.4334
-47.308
-43.3221
-38.6093
-33.2999
-27.5074
-21.331
-14.883
-8.33418
-1.94629
3.95166
9.04663
13.1368
16.1775
18.258
19.5349
20.1635
20.2526
19.8491
18.948
17.516
15.5184
12.9439
9.82305
6.23985
2.33448
-1.70274
-5.64701
-9.26343
-12.328
-14.6582
-16.1205
-16.6548
-16.2741
-15.019
-12.9649
-10.2093
-6.87392
-3.11763
0.861569
4.84651
8.63247
12.0553
15.0075
17.4412
19.3618
20.816
21.8757
22.6206
23.1224
23.4355
23.5812
23.5268
23.1566
22.1992
20.1531
16.5719
11.6503
6.22593
1.05867
8.65884
8.46046
7.95401
7.03784
5.62884
3.70227
1.30683
-1.44732
-4.42348
-7.49807
-10.5906
-13.675
-16.7726
-19.9401
-23.2574
-26.8153
-30.7053
-35.0122
-39.8053
-45.1302
-51.0015
-57.3972
-64.2553
-71.4725
-78.9066
-86.3799
-93.6853
-100.597
-106.887
-112.349
-116.82
-120.19
-122.396
-123.415
-123.237
-121.798
-119.092
-115.171
-110.131
-104.133
-97.3976
-90.1877
-82.7728
-75.4025
-68.2824
-61.553
-55.2704
-49.4089
-43.9071
-38.739
-33.9544
-29.6488
-25.881
-22.6108
-19.6984
-16.9515
-14.1805
-11.2447
-8.08888
-4.75517
-1.35968
1.95715
5.07607
7.92173
10.4628
12.7002
14.6533
16.3496
17.8182
19.087
20.1809
21.1223
21.9308
22.6235
23.2156
23.7203
24.1492
24.5127
24.8196
25.0778
25.2944
25.4752
25.6257
25.7505
25.8537
25.939
26.0094
26.0679
26.1172
26.1597
26.1975
26.2321
26.2643
26.294
26.3219
26.3505
26.3817
26.4091
26.3966
26.2641
25.8623
24.924
23.0373
19.7417
14.8271
8.59237
1.65786
-5.4505
-12.4474
-19.1979
-25.6143
-31.6078
-37.0769
-41.9086
-45.9847
-49.1902
-51.423
-52.6005
-52.6883
-51.6803
-49.628
-46.6267
-42.7813
-38.219
-33.065
-27.4299
-21.4141
-15.1332
-8.76313
-2.56825
3.12478
8.01305
11.9104
14.7872
16.7399
17.9225
18.479
18.5008
18.0163
17.0034
15.4158
13.2115
10.3782
6.95262
3.0328
-1.21925
-5.58485
-9.8069
-13.6189
-16.7693
-19.0525
-20.3282
-20.5309
-19.6946
-17.8901
-15.2444
-11.9193
-8.09437
-3.96328
0.270567
4.40791
8.27272
11.7293
14.6925
17.1285
19.0497
20.5045
21.5635
22.3029
22.7907
23.0766
23.18
23.0738
22.6659
21.7422
19.8881
16.6844
12.2083
7.16654
2.2768
9.02422
8.89963
8.44476
7.61044
6.34817
4.61368
2.42566
-0.131737
-2.94
-5.88263
-8.87536
-11.8803
-14.9042
-17.9899
-21.2041
-24.6257
-28.3375
-32.4171
-36.9297
-41.9197
-47.404
-53.3666
-59.7548
-66.4782
-73.4106
-80.3938
-87.2442
-93.7617
-99.742
-104.994
-109.354
-112.698
-114.941
-116.035
-115.953
-114.656
-112.178
-108.587
-103.988
-98.5372
-92.4428
-85.9378
-79.2553
-72.6051
-66.1538
-60.0054
-54.1894
-48.6803
-43.4512
-38.5267
-33.9894
-29.9225
-26.3389
-23.1538
-20.2126
-17.3416
-14.394
-11.2865
-8.0189
-4.66632
-1.34353
1.83691
4.79275
7.47997
9.88649
12.021
13.9029
15.5555
17.0026
18.2666
19.368
20.3255
21.1559
21.8745
22.4947
23.0287
23.4873
23.8801
24.2156
24.5015
24.7443
24.9499
25.1235
25.2697
25.3925
25.4955
25.5818
25.6543
25.7153
25.7674
25.8123
25.8518
25.8864
25.9159
25.9399