# vtk DataFile Version 2.0
sampleSurface
ASCII
DATASET POLYDATA
POINTS 502 float
-0.0206 0 -0.0005 -0.0190172 0 -0.0005 -0.0190172 0 0.0005 -0.0206 0
0.0005 -0.0174976 0 -0.0005 -0.0174976 0 0.0005 -0.0160387 0 -0.0005
-0.0160387 0 0.0005 -0.0146381 0 -0.0005 -0.0146381 0 0.0005 -0.0132934
0 -0.0005 -0.0132934 0 0.0005 -0.0120025 0 -0.0005 -0.0120025 0
0.0005 -0.0107632 0 -0.0005 -0.0107632 0 0.0005 -0.00957337 0 -0.0005
-0.00957337 0 0.0005 -0.00843108 0 -0.0005 -0.00843108 0 0.0005 -0.00733443
0 -0.0005 -0.00733443 0 0.0005 -0.0062816 0 -0.0005 -0.0062816 0
0.0005 -0.00527083 0 -0.0005 -0.00527083 0 0.0005 -0.00430044 0 -0.0005
-0.00430044 0 0.0005 -0.00336883 0 -0.0005 -0.00336883 0 0.0005 -0.00247443
0 -0.0005 -0.00247443 0 0.0005 -0.00161577 0 -0.0005 -0.00161577 0
0.0005 -0.000791418 0 -0.0005 -0.000791418 0 0.0005 0 0 -0.0005
0 0 0.0005 0 -0.0254 -0.0005 0 -0.0254 0.0005 0
-0.0242711 0.0005 0 -0.0242711 -0.0005 0 -0.0231422 0.0005 0 -0.0231422
-0.0005 0 -0.0220133 0.0005 0 -0.0220133 -0.0005 0 -0.0208844 0.0005
0 -0.0208844 -0.0005 0 -0.0197556 0.0005 0 -0.0197556 -0.0005 0
-0.0186267 0.0005 0 -0.0186267 -0.0005 0 -0.0174978 0.0005 0 -0.0174978
-0.0005 0 -0.0163689 0.0005 0 -0.0163689 -0.0005 0 -0.01524 0.0005
0 -0.01524 -0.0005 0 -0.0141111 0.0005 0 -0.0141111 -0.0005 0
-0.0129822 0.0005 0 -0.0129822 -0.0005 0 -0.0118533 0.0005 0 -0.0118533
-0.0005 0 -0.0107244 0.0005 0 -0.0107244 -0.0005 0 -0.00959556 0.0005
0 -0.00959556 -0.0005 0 -0.00846667 0.0005 0 -0.00846667 -0.0005 0
-0.00726604 0.0005 0 -0.00726604 -0.0005 0 -0.00618989 0.0005 0 -0.00618989
-0.0005 0 -0.00522531 0.0005 0 -0.00522531 -0.0005 0 -0.00436073 0.0005
0 -0.00436073 -0.0005 0 -0.00358579 0.0005 0 -0.00358579 -0.0005 0
-0.00289118 0.0005 0 -0.00289118 -0.0005 0 -0.0022686 0.0005 0 -0.0022686
-0.0005 0 -0.00171055 0.0005 0 -0.00171055 -0.0005 0 -0.00121037 0.0005
0 -0.00121037 -0.0005 0 -0.000762037 0.0005 0 -0.000762037 -0.0005 0
-0.000360188 0.0005 0 -0.000360188 -0.0005 0.000528387 -0.0254 -0.0005 0.000528387 -0.0254
0.0005 0.00106088 -0.0254 -0.0005 0.00106088 -0.0254 0.0005 0.00159752 -0.0254 -0.0005
0.00159752 -0.0254 0.0005 0.00213833 -0.0254 -0.0005 0.00213833 -0.0254 0.0005 0.00268334
-0.0254 -0.0005 0.00268334 -0.0254 0.0005 0.00323259 -0.0254 -0.0005 0.00323259 -0.0254
0.0005 0.00378611 -0.0254 -0.0005 0.00378611 -0.0254 0.0005 0.00434393 -0.0254 -0.0005
0.00434393 -0.0254 0.0005 0.00490609 -0.0254 -0.0005 0.00490609 -0.0254 0.0005 0.00547262
-0.0254 -0.0005 0.00547262 -0.0254 0.0005 0.00604356 -0.0254 -0.0005 0.00604356 -0.0254
0.0005 0.00661893 -0.0254 -0.0005 0.00661893 -0.0254 0.0005 0.00719878 -0.0254 -0.0005
0.00719878 -0.0254 0.0005 0.00778313 -0.0254 -0.0005 0.00778313 -0.0254 0.0005 0.00837203
-0.0254 -0.0005 0.00837203 -0.0254 0.0005 0.00896551 -0.0254 -0.0005 0.00896551 -0.0254
0.0005 0.0095636 -0.0254 -0.0005 0.0095636 -0.0254 0.0005 0.0101663 -0.0254 -0.0005
0.0101663 -0.0254 0.0005 0.0107738 -0.0254 -0.0005 0.0107738 -0.0254 0.0005 0.0113859
-0.0254 -0.0005 0.0113859 -0.0254 0.0005 0.0120028 -0.0254 -0.0005 0.0120028 -0.0254
0.0005 0.0126245 -0.0254 -0.0005 0.0126245 -0.0254 0.0005 0.0132511 -0.0254 -0.0005
0.0132511 -0.0254 0.0005 0.0138825 -0.0254 -0.0005 0.0138825 -0.0254 0.0005 0.0145188
-0.0254 -0.0005 0.0145188 -0.0254 0.0005 0.0151601 -0.0254 -0.0005 0.0151601 -0.0254
0.0005 0.0158063 -0.0254 -0.0005 0.0158063 -0.0254 0.0005 0.0164576 -0.0254 -0.0005
0.0164576 -0.0254 0.0005 0.0171139 -0.0254 -0.0005 0.0171139 -0.0254 0.0005 0.0177754
-0.0254 -0.0005 0.0177754 -0.0254 0.0005 0.018442 -0.0254 -0.0005 0.018442 -0.0254
0.0005 0.0191137 -0.0254 -0.0005 0.0191137 -0.0254 0.0005 0.0197907 -0.0254 -0.0005
0.0197907 -0.0254 0.0005 0.020473 -0.0254 -0.0005 0.020473 -0.0254 0.0005 0.0211606
-0.0254 -0.0005 0.0211606 -0.0254 0.0005 0.0218535 -0.0254 -0.0005 0.0218535 -0.0254
0.0005 0.0225517 -0.0254 -0.0005 0.0225517 -0.0254 0.0005 0.0232555 -0.0254 -0.0005
0.0232555 -0.0254 0.0005 0.0239647 -0.0254 -0.0005 0.0239647 -0.0254 0.0005 0.0246794
-0.0254 -0.0005 0.0246794 -0.0254 0.0005 0.0253996 -0.0254 -0.0005 0.0253996 -0.0254
0.0005 0.0261255 -0.0254 -0.0005 0.0261255 -0.0254 0.0005 0.026857 -0.0254 -0.0005
0.026857 -0.0254 0.0005 0.0275942 -0.0254 -0.0005 0.0275942 -0.0254 0.0005 0.0283371
-0.0254 -0.0005 0.0283371 -0.0254 0.0005 0.0290858 -0.0254 -0.0005 0.0290858 -0.0254
0.0005 0.0298403 -0.0254 -0.0005 0.0298403 -0.0254 0.0005 0.0306007 -0.0254 -0.0005
0.0306007 -0.0254 0.0005 0.031367 -0.0254 -0.0005 0.031367 -0.0254 0.0005 0.0321393
-0.0254 -0.0005 0.0321393 -0.0254 0.0005 0.0329175 -0.0254 -0.0005 0.0329175 -0.0254
0.0005 0.0337019 -0.0254 -0.0005 0.0337019 -0.0254 0.0005 0.0344923 -0.0254 -0.0005
0.0344923 -0.0254 0.0005 0.0352888 -0.0254 -0.0005 0.0352888 -0.0254 0.0005 0.0360916
-0.0254 -0.0005 0.0360916 -0.0254 0.0005 0.0369006 -0.0254 -0.0005 0.0369006 -0.0254
0.0005 0.0377158 -0.0254 -0.0005 0.0377158 -0.0254 0.0005 0.0385375 -0.0254 -0.0005
0.0385375 -0.0254 0.0005 0.0393655 -0.0254 -0.0005 0.0393655 -0.0254 0.0005 0.0401999
-0.0254 -0.0005 0.0401999 -0.0254 0.0005 0.0410408 -0.0254 -0.0005 0.0410408 -0.0254
0.0005 0.0418883 -0.0254 -0.0005 0.0418883 -0.0254 0.0005 0.0427424 -0.0254 -0.0005
0.0427424 -0.0254 0.0005 0.0436031 -0.0254 -0.0005 0.0436031 -0.0254 0.0005 0.0444704
-0.0254 -0.0005 0.0444704 -0.0254 0.0005 0.0453446 -0.0254 -0.0005 0.0453446 -0.0254
0.0005 0.0462255 -0.0254 -0.0005 0.0462255 -0.0254 0.0005 0.0471133 -0.0254 -0.0005
0.0471133 -0.0254 0.0005 0.048008 -0.0254 -0.0005 0.048008 -0.0254 0.0005 0.0489096
-0.0254 -0.0005 0.0489096 -0.0254 0.0005 0.0498183 -0.0254 -0.0005 0.0498183 -0.0254
0.0005 0.050734 -0.0254 -0.0005 0.050734 -0.0254 0.0005 0.0516568 -0.0254 -0.0005
0.0516568 -0.0254 0.0005 0.0525868 -0.0254 -0.0005 0.0525868 -0.0254 0.0005 0.053524
-0.0254 -0.0005 0.053524 -0.0254 0.0005 0.0544686 -0.0254 -0.0005 0.0544686 -0.0254
0.0005 0.0554204 -0.0254 -0.0005 0.0554204 -0.0254 0.0005 0.0563797 -0.0254 -0.0005
0.0563797 -0.0254 0.0005 0.0573464 -0.0254 -0.0005 0.0573464 -0.0254 0.0005 0.0583206
-0.0254 -0.0005 0.0583206 -0.0254 0.0005 0.0593025 -0.0254 -0.0005 0.0593025 -0.0254
0.0005 0.0602919 -0.0254 -0.0005 0.0602919 -0.0254 0.0005 0.0612891 -0.0254 -0.0005
0.0612891 -0.0254 0.0005 0.0622939 -0.0254 -0.0005 0.0622939 -0.0254 0.0005 0.0633067
-0.0254 -0.0005 0.0633067 -0.0254 0.0005 0.0643272 -0.0254 -0.0005 0.0643272 -0.0254
0.0005 0.0653557 -0.0254 -0.0005 0.0653557 -0.0254 0.0005 0.0663923 -0.0254 -0.0005
0.0663923 -0.0254 0.0005 0.0674368 -0.0254 -0.0005 0.0674368 -0.0254 0.0005 0.0684895
-0.0254 -0.0005 0.0684895 -0.0254 0.0005 0.0695504 -0.0254 -0.0005 0.0695504 -0.0254
0.0005 0.0706195 -0.0254 -0.0005 0.0706195 -0.0254 0.0005 0.0716969 -0.0254 -0.0005
0.0716969 -0.0254 0.0005 0.0727828 -0.0254 -0.0005 0.0727828 -0.0254 0.0005 0.073877
-0.0254 -0.0005 0.073877 -0.0254 0.0005 0.0749798 -0.0254 -0.0005 0.0749798 -0.0254
0.0005 0.0760911 -0.0254 -0.0005 0.0760911 -0.0254 0.0005 0.0772111 -0.0254 -0.0005
0.0772111 -0.0254 0.0005 0.0783398 -0.0254 -0.0005 0.0783398 -0.0254 0.0005 0.0794772
-0.0254 -0.0005 0.0794772 -0.0254 0.0005 0.0806235 -0.0254 -0.0005 0.0806235 -0.0254
0.0005 0.0817787 -0.0254 -0.0005 0.0817787 -0.0254 0.0005 0.0829429 -0.0254 -0.0005
0.0829429 -0.0254 0.0005 0.0841162 -0.0254 -0.0005 0.0841162 -0.0254 0.0005 0.0852985
-0.0254 -0.0005 0.0852985 -0.0254 0.0005 0.0864901 -0.0254 -0.0005 0.0864901 -0.0254
0.0005 0.0876909 -0.0254 -0.0005 0.0876909 -0.0254 0.0005 0.0889011 -0.0254 -0.0005
0.0889011 -0.0254 0.0005 0.0901207 -0.0254 -0.0005 0.0901207 -0.0254 0.0005 0.0913497
-0.0254 -0.0005 0.0913497 -0.0254 0.0005 0.0925883 -0.0254 -0.0005 0.0925883 -0.0254
0.0005 0.0938366 -0.0254 -0.0005 0.0938366 -0.0254 0.0005 0.0950945 -0.0254 -0.0005
0.0950945 -0.0254 0.0005 0.0963622 -0.0254 -0.0005 0.0963622 -0.0254 0.0005 0.0976398
-0.0254 -0.0005 0.0976398 -0.0254 0.0005 0.0989273 -0.0254 -0.0005 0.0989273 -0.0254
0.0005 0.100225 -0.0254 -0.0005 0.100225 -0.0254 0.0005 0.101532 -0.0254 -0.0005
0.101532 -0.0254 0.0005 0.10285 -0.0254 -0.0005 0.10285 -0.0254 0.0005 0.104178
-0.0254 -0.0005 0.104178 -0.0254 0.0005 0.105517 -0.0254 -0.0005 0.105517 -0.0254
0.0005 0.106865 -0.0254 -0.0005 0.106865 -0.0254 0.0005 0.108225 -0.0254 -0.0005
0.108225 -0.0254 0.0005 0.109594 -0.0254 -0.0005 0.109594 -0.0254 0.0005 0.110975
-0.0254 -0.0005 0.110975 -0.0254 0.0005 0.112366 -0.0254 -0.0005 0.112366 -0.0254
0.0005 0.113768 -0.0254 -0.0005 0.113768 -0.0254 0.0005 0.115181 -0.0254 -0.0005
0.115181 -0.0254 0.0005 0.116605 -0.0254 -0.0005 0.116605 -0.0254 0.0005 0.11804
-0.0254 -0.0005 0.11804 -0.0254 0.0005 0.119486 -0.0254 -0.0005 0.119486 -0.0254
0.0005 0.120943 -0.0254 -0.0005 0.120943 -0.0254 0.0005 0.122412 -0.0254 -0.0005
0.122412 -0.0254 0.0005 0.123892 -0.0254 -0.0005 0.123892 -0.0254 0.0005 0.125384
-0.0254 -0.0005 0.125384 -0.0254 0.0005 0.126887 -0.0254 -0.0005 0.126887 -0.0254
0.0005 0.128402 -0.0254 -0.0005 0.128402 -0.0254 0.0005 0.129928 -0.0254 -0.0005
0.129928 -0.0254 0.0005 0.131467 -0.0254 -0.0005 0.131467 -0.0254 0.0005 0.133017
-0.0254 -0.0005 0.133017 -0.0254 0.0005 0.13458 -0.0254 -0.0005 0.13458 -0.0254
0.0005 0.136155 -0.0254 -0.0005 0.136155 -0.0254 0.0005 0.137742 -0.0254 -0.0005
0.137742 -0.0254 0.0005 0.139341 -0.0254 -0.0005 0.139341 -0.0254 0.0005 0.140953
-0.0254 -0.0005 0.140953 -0.0254 0.0005 0.142577 -0.0254 -0.0005 0.142577 -0.0254
0.0005 0.144214 -0.0254 -0.0005 0.144214 -0.0254 0.0005 0.145863 -0.0254 -0.0005
0.145863 -0.0254 0.0005 0.147526 -0.0254 -0.0005 0.147526 -0.0254 0.0005 0.149201
-0.0254 -0.0005 0.149201 -0.0254 0.0005 0.15089 -0.0254 -0.0005 0.15089 -0.0254
0.0005 0.152591 -0.0254 -0.0005 0.152591 -0.0254 0.0005 0.154306 -0.0254 -0.0005
0.154306 -0.0254 0.0005 0.156034 -0.0254 -0.0005 0.156034 -0.0254 0.0005 0.157775
-0.0254 -0.0005 0.157775 -0.0254 0.0005 0.159531 -0.0254 -0.0005 0.159531 -0.0254
0.0005 0.161299 -0.0254 -0.0005 0.161299 -0.0254 0.0005 0.163082 -0.0254 -0.0005
0.163082 -0.0254 0.0005 0.164878 -0.0254 -0.0005 0.164878 -0.0254 0.0005 0.166688
-0.0254 -0.0005 0.166688 -0.0254 0.0005 0.168513 -0.0254 -0.0005 0.168513 -0.0254
0.0005 0.170351 -0.0254 -0.0005 0.170351 -0.0254 0.0005 0.172204 -0.0254 -0.0005
0.172204 -0.0254 0.0005 0.174071 -0.0254 -0.0005 0.174071 -0.0254 0.0005 0.175953
-0.0254 -0.0005 0.175953 -0.0254 0.0005 0.177849 -0.0254 -0.0005 0.177849 -0.0254
0.0005 0.17976 -0.0254 -0.0005 0.17976 -0.0254 0.0005 0.181686 -0.0254 -0.0005
0.181686 -0.0254 0.0005 0.183627 -0.0254 -0.0005 0.183627 -0.0254 0.0005 0.185583
-0.0254 -0.0005 0.185583 -0.0254 0.0005 0.187555 -0.0254 -0.0005 0.187555 -0.0254
0.0005 0.189541 -0.0254 -0.0005 0.189541 -0.0254 0.0005 0.191543 -0.0254 -0.0005
0.191543 -0.0254 0.0005 0.193561 -0.0254 -0.0005 0.193561 -0.0254 0.0005 0.195594
-0.0254 -0.0005 0.195594 -0.0254 0.0005 0.197643 -0.0254 -0.0005 0.197643 -0.0254
0.0005 0.199708 -0.0254 -0.0005 0.199708 -0.0254 0.0005 0.201789 -0.0254 -0.0005
0.201789 -0.0254 0.0005 0.203886 -0.0254 -0.0005 0.203886 -0.0254 0.0005 0.206
-0.0254 -0.0005 0.206 -0.0254 0.0005 0.208047 -0.0251856 -0.0005 0.208047 -0.0251856
0.0005 0.210173 -0.0249628 -0.0005 0.210173 -0.0249628 0.0005 0.212382 -0.0247314 -0.0005
0.212382 -0.0247314 0.0005 0.214677 -0.024491 -0.0005 0.214677 -0.024491 0.0005 0.217061
-0.0242412 -0.0005 0.217061 -0.0242412 0.0005 0.219538 -0.0239817 -0.0005 0.219538 -0.0239817
0.0005 0.222112 -0.0237121 -0.0005 0.222112 -0.0237121 0.0005 0.224785 -0.023432 -0.0005
0.224785 -0.023432 0.0005 0.227563 -0.023141 -0.0005 0.227563 -0.023141 0.0005 0.230449
-0.0228387 -0.0005 0.230449 -0.0228387 0.0005 0.233447 -0.0225246 -0.0005 0.233447 -0.0225246
0.0005 0.236562 -0.0221983 -0.0005 0.236562 -0.0221983 0.0005 0.239797 -0.0218593 -0.0005
0.239797 -0.0218593 0.0005 0.243159 -0.0215071 -0.0005 0.243159 -0.0215071 0.0005 0.246652
-0.0211412 -0.0005 0.246652 -0.0211412 0.0005 0.250281 -0.0207611 -0.0005 0.250281 -0.0207611
0.0005 0.254051 -0.0203661 -0.0005 0.254051 -0.0203661 0.0005 0.257967 -0.0199558 -0.0005
0.257967 -0.0199558 0.0005 0.262036 -0.0195295 -0.0005 0.262036 -0.0195295 0.0005 0.266264
-0.0190867 -0.0005 0.266264 -0.0190867 0.0005 0.270655 -0.0186266 -0.0005 0.270655 -0.0186266
0.0005 0.275218 -0.0181486 -0.0005 0.275218 -0.0181486 0.0005 0.279959 -0.017652 -0.0005
0.279959 -0.017652 0.0005 0.284883 -0.017136 -0.0005 0.284883 -0.017136 0.0005 0.29
-0.0166 -0.0005 0.29 -0.0166 0.0005 
POLYGONS 250 1250
4 0 1 2 3 4 1 4 5 2 4
4 6 7 5 4 6 8 9 7 4
8 10 11 9 4 10 12 13 11 4
12 14 15 13 4 14 16 17 15 4
16 18 19 17 4 18 20 21 19 4
20 22 23 21 4 22 24 25 23 4
24 26 27 25 4 26 28 29 27 4
28 30 31 29 4 30 32 33 31 4
32 34 35 33 4 34 36 37 35 4
38 39 40 41 4 41 40 42 43 4
43 42 44 45 4 45 44 46 47 4
47 46 48 49 4 49 48 50 51 4
51 50 52 53 4 53 52 54 55 4
55 54 56 57 4 57 56 58 59 4
59 58 60 61 4 61 60 62 63 4
63 62 64 65 4 65 64 66 67 4
67 66 68 69 4 69 68 70 71 4
71 70 72 73 4 73 72 74 75 4
75 74 76 77 4 77 76 78 79 4
79 78 80 81 4 81 80 82 83 4
83 82 84 85 4 85 84 86 87 4
87 86 88 89 4 89 88 90 91 4
91 90 37 36 4 38 92 93 39 4
92 94 95 93 4 94 96 97 95 4
96 98 99 97 4 98 100 101 99 4
100 102 103 101 4 102 104 105 103 4
104 106 107 105 4 106 108 109 107 4
108 110 111 109 4 110 112 113 111 4
112 114 115 113 4 114 116 117 115 4
116 118 119 117 4 118 120 121 119 4
120 122 123 121 4 122 124 125 123 4
124 126 127 125 4 126 128 129 127 4
128 130 131 129 4 130 132 133 131 4
132 134 135 133 4 134 136 137 135 4
136 138 139 137 4 138 140 141 139 4
140 142 143 141 4 142 144 145 143 4
144 146 147 145 4 146 148 149 147 4
148 150 151 149 4 150 152 153 151 4
152 154 155 153 4 154 156 157 155 4
156 158 159 157 4 158 160 161 159 4
160 162 163 161 4 162 164 165 163 4
164 166 167 165 4 166 168 169 167 4
168 170 171 169 4 170 172 173 171 4
172 174 175 173 4 174 176 177 175 4
176 178 179 177 4 178 180 181 179 4
180 182 183 181 4 182 184 185 183 4
184 186 187 185 4 186 188 189 187 4
188 190 191 189 4 190 192 193 191 4
192 194 195 193 4 194 196 197 195 4
196 198 199 197 4 198 200 201 199 4
200 202 203 201 4 202 204 205 203 4
204 206 207 205 4 206 208 209 207 4
208 210 211 209 4 210 212 213 211 4
212 214 215 213 4 214 216 217 215 4
216 218 219 217 4 218 220 221 219 4
220 222 223 221 4 222 224 225 223 4
224 226 227 225 4 226 228 229 227 4
228 230 231 229 4 230 232 233 231 4
232 234 235 233 4 234 236 237 235 4
236 238 239 237 4 238 240 241 239 4
240 242 243 241 4 242 244 245 243 4
244 246 247 245 4 246 248 249 247 4
248 250 251 249 4 250 252 253 251 4
252 254 255 253 4 254 256 257 255 4
256 258 259 257 4 258 260 261 259 4
260 262 263 261 4 262 264 265 263 4
264 266 267 265 4 266 268 269 267 4
268 270 271 269 4 270 272 273 271 4
272 274 275 273 4 274 276 277 275 4
276 278 279 277 4 278 280 281 279 4
280 282 283 281 4 282 284 285 283 4
284 286 287 285 4 286 288 289 287 4
288 290 291 289 4 290 292 293 291 4
292 294 295 293 4 294 296 297 295 4
296 298 299 297 4 298 300 301 299 4
300 302 303 301 4 302 304 305 303 4
304 306 307 305 4 306 308 309 307 4
308 310 311 309 4 310 312 313 311 4
312 314 315 313 4 314 316 317 315 4
316 318 319 317 4 318 320 321 319 4
320 322 323 321 4 322 324 325 323 4
324 326 327 325 4 326 328 329 327 4
328 330 331 329 4 330 332 333 331 4
332 334 335 333 4 334 336 337 335 4
336 338 339 337 4 338 340 341 339 4
340 342 343 341 4 342 344 345 343 4
344 346 347 345 4 346 348 349 347 4
348 350 351 349 4 350 352 353 351 4
352 354 355 353 4 354 356 357 355 4
356 358 359 357 4 358 360 361 359 4
360 362 363 361 4 362 364 365 363 4
364 366 367 365 4 366 368 369 367 4
368 370 371 369 4 370 372 373 371 4
372 374 375 373 4 374 376 377 375 4
376 378 379 377 4 378 380 381 379 4
380 382 383 381 4 382 384 385 383 4
384 386 387 385 4 386 388 389 387 4
388 390 391 389 4 390 392 393 391 4
392 394 395 393 4 394 396 397 395 4
396 398 399 397 4 398 400 401 399 4
400 402 403 401 4 402 404 405 403 4
404 406 407 405 4 406 408 409 407 4
408 410 411 409 4 410 412 413 411 4
412 414 415 413 4 414 416 417 415 4
416 418 419 417 4 418 420 421 419 4
420 422 423 421 4 422 424 425 423 4
424 426 427 425 4 426 428 429 427 4
428 430 431 429 4 430 432 433 431 4
432 434 435 433 4 434 436 437 435 4
436 438 439 437 4 438 440 441 439 4
440 442 443 441 4 442 444 445 443 4
444 446 447 445 4 446 448 449 447 4
448 450 451 449 4 450 452 453 451 4
452 454 455 453 4 454 456 457 455 4
456 458 459 457 4 458 460 461 459 4
460 462 463 461 4 462 464 465 463 4
464 466 467 465 4 466 468 469 467 4
468 470 471 469 4 470 472 473 471 4
472 474 475 473 4 474 476 477 475 4
476 478 479 477 4 478 480 481 479 4
480 482 483 481 4 482 484 485 483 4
484 486 487 485 4 486 488 489 487 4
488 490 491 489 4 490 492 493 491 4
492 494 495 493 4 494 496 497 495 4
496 498 499 497 4 498 500 501 499 
POINT_DATA 502
FIELD attributes 1
U 3 502 float
3.27981 0.0564131 -0.0201558 1.64668 0.0281798 -0.0099328 1.64668 0.0281798 -0.0099328 3.27981 0.0564131
-0.0201558 0.0584578 0.000822678 0 0.0584578 0.000822678 0 0.0559873 0.000753739 0
0.0559873 0.000753739 0 0.0541397 0.000511497 0 0.0541397 0.000511497 0 0.0525459
0.000429434 0 0.0525459 0.000429434 0 0.0508122 0.000498738 0 0.0508122 0.000498738
0 0.0488715 0.000534226 0 0.0488715 0.000534226 0 0.0470035 0.000441155 0
0.0470035 0.000441155 0 0.0454595 0.000270785 0 0.0454595 0.000270785 0 0.0442839
0.000123045 0 0.0442839 0.000123045 0 0.0433309 6.62008e-05 0 0.0433309 6.62008e-05
0 0.0423695 0.000112459 0 0.0423695 0.000112459 0 0.0411957 0.000228459 0
0.0411957 0.000228459 0 0.0396698 0.000347135 0 0.0396698 0.000347135 0 0.0379419
0.000423091 0 0.0379419 0.000423091 0 0.0361448 0.000436264 0 0.0361448 0.000436264
0 0.0341759 0.000433934 0 0.0341759 0.000433934 0 0.0151467 0.000370511 0
0.0151467 0.000370511 0 -9.00625e-05 0.000355245 3.3911e-23 -9.00625e-05 0.000355245 3.3911e-23 -3.45458e-05
0.000722013 -9.16961e-23 -3.45458e-05 0.000722013 -9.16961e-23 3.53136e-05 0.0010508 -1.0871e-22 3.53136e-05 0.0010508
-1.0871e-22 -0.000180578 0.0007794 2.1763e-22 -0.000180578 0.0007794 2.1763e-22 5.37501e-05 5.34678e-05 7.26724e-23
5.37501e-05 5.34678e-05 7.26724e-23 0.00101981 -0.00401231 -1.45016e-22 0.00101981 -0.00401231 -1.45016e-22 0.00109386
-0.00897663 0 0.00109386 -0.00897663 0 0.000550761 -0.0110005 -2.84138e-22 0.000550761 -0.0110005
-2.84138e-22 0.000337998 -0.0123522 -6.71221e-26 0.000337998 -0.0123522 -6.71221e-26 0.000142851 -0.0129989 2.84071e-22
0.000142851 -0.0129989 2.84071e-22 1.78726e-05 -0.0130474 -2.85832e-22 1.78726e-05 -0.0130474 -2.85832e-22 -9.58373e-05
-0.0127369 3.30873e-26 -9.58373e-05 -0.0127369 3.30873e-26 -0.000192057 -0.0119342 2.85865e-22 -0.000192057 -0.0119342
2.85865e-22 -0.000240457 -0.0109284 2.93725e-22 -0.000240457 -0.0109284 2.93725e-22 -0.000292534 -0.00962549 -1.93882e-25
-0.000292534 -0.00962549 -1.93882e-25 -0.000302317 -0.00823829 -2.99128e-22 -0.000302317 -0.00823829 -2.99128e-22 -0.000298111
-0.00674151 0 -0.000298111 -0.00674151 0 -0.000285209 -0.00540188 0 -0.000285209 -0.00540188
0 -0.000260847 -0.00427017 0 -0.000260847 -0.00427017 0 -0.000230474 -0.00333639 0
-0.000230474 -0.00333639 0 -0.000189676 -0.00259564 0 -0.000189676 -0.00259564 0 -0.000156482
-0.0020172 0 -0.000156482 -0.0020172 0 -0.000137793 -0.00162635 0 -0.000137793 -0.00162635
0 -0.000178716 -0.00118053 0 -0.000178716 -0.00118053 0 -0.000466953 -0.00102808 0
-0.000466953 -0.00102808 0 -0.000683517 -0.000173332 0 -0.000683517 -0.000173332 0 -0.000256862
0.000557825 0 -0.000256862 0.000557825 0 -0.00021443 0.000363438 1.52862e-25 -0.00021443 0.000363438
1.52862e-25 -0.00046646 0.000313601 -1.68459e-23 -0.00046646 0.000313601 -1.68459e-23 -0.000657862 0.00017183 0
-0.000657862 0.00017183 0 -0.000643419 -4.66527e-05 0 -0.000643419 -4.66527e-05 0 -0.000346794
-0.000334015 1.63731e-23 -0.000346794 -0.000334015 1.63731e-23 0.000211487 -0.000593688 1.64025e-23 0.000211487 -0.000593688
1.64025e-23 0.000963238 -0.000766407 0 0.000963238 -0.000766407 0 0.00181047 -0.000863268 0
0.00181047 -0.000863268 0 0.00268755 -0.000898019 0 0.00268755 -0.000898019 0 0.00356529
-0.000885437 -1.55602e-23 0.00356529 -0.000885437 -1.55602e-23 0.00441994 -0.000842613 -1.55898e-23 0.00441994 -0.000842613
-1.55898e-23 0.00523339 -0.000784767 0 0.00523339 -0.000784767 0 0.00599768 -0.000721026 0
0.00599768 -0.000721026 0 0.00671064 -0.000655386 0 0.00671064 -0.000655386 0 0.00737198
-0.000589164 -1.43051e-23 0.00737198 -0.000589164 -1.43051e-23 0.0079811 -0.000522144 -1.4334e-23 0.0079811 -0.000522144
-1.4334e-23 0.00853636 -0.000453478 0 0.00853636 -0.000453478 0 0.00903507 -0.000381848 0
0.00903507 -0.000381848 0 0.00947196 -0.000305819 0 0.00947196 -0.000305819 0 0.00984151
-0.000224108 0 0.00984151 -0.000224108 0 0.0101346 -0.000135012 0 0.0101346 -0.000135012
0 0.010341 -3.73131e-05 0 0.010341 -3.73131e-05 0 0.010452 7.05123e-05 -1.25963e-23
0.010452 7.05123e-05 -1.25963e-23 0.0104486 0.00018989 -1.44027e-25 0.0104486 0.00018989 -1.44027e-25 0.0103123
0.000322022 1.15379e-25 0.0103123 0.000322022 1.15379e-25 0.0100345 0.000464412 -2.47547e-23 0.0100345 0.000464412
-2.47547e-23 0.00960681 0.000610293 -1.23623e-23 0.00960681 0.000610293 -1.23623e-23 0.00902309 0.000747866 0
0.00902309 0.000747866 0 0.00828983 0.000857781 1.22901e-23 0.00828983 0.000857781 1.22901e-23 0.00742229
0.000929992 2.46138e-23 0.00742229 0.000929992 2.46138e-23 0.00645607 0.000946555 1.23241e-23 0.00645607 0.000946555
1.23241e-23 0.00544368 0.000897373 0 0.00544368 0.000897373 0 0.00443717 0.000819721 1.22707e-23
0.00443717 0.000819721 1.22707e-23 0.00347201 0.000745491 1.23009e-23 0.00347201 0.000745491 1.23009e-23 0.00255652
0.00066537 0 0.00255652 0.00066537 0 0.00173088 0.000488028 -1.21409e-23 0.00173088 0.000488028
-1.21409e-23 0.00105903 0.000176421 -1.21718e-23 0.00105903 0.000176421 -1.21718e-23 0.000585455 -7.67999e-05 -1.20365e-23
0.000585455 -7.67999e-05 -1.20365e-23 0.000309562 -0.000152324 -3.60634e-23 0.000309562 -0.000152324 -3.60634e-23 0.000124876
-0.000151092 -2.40586e-23 0.000124876 -0.000151092 -2.40586e-23 -5.46339e-05 -8.71427e-05 0 -5.46339e-05 -8.71427e-05
0 -4.26243e-05 9.75486e-05 0 -4.26243e-05 9.75486e-05 0 1.16271e-05 0.000300839 0
1.16271e-05 0.000300839 0 -0.000184785 0.000334792 0 -0.000184785 0.000334792 0 -0.000373859
-0.000192651 -2.31784e-23 -0.000373859 -0.000192651 -2.31784e-23 -0.000240191 -0.00094547 -4.6245e-23 -0.000240191 -0.00094547
-4.6245e-23 0.000532313 -0.00114287 -4.58077e-23 0.000532313 -0.00114287 -4.58077e-23 0.00153273 -0.00131949 -2.28057e-23
0.00153273 -0.00131949 -2.28057e-23 0.00201368 -0.00188207 2.20369e-23 0.00201368 -0.00188207 2.20369e-23 0.00209987
-0.00144286 2.21007e-23 0.00209987 -0.00144286 2.21007e-23 0.00135458 0.000146407 -2.15737e-23 0.00135458 0.000146407
-2.15737e-23 -0.000320808 0.00120107 -4.29846e-23 -0.000320808 0.00120107 -4.29846e-23 -0.00222725 0.00145264 -2.14108e-23
-0.00222725 0.00145264 -2.14108e-23 -0.00412033 0.00146874 0 -0.00412033 0.00146874 0 -0.00591466
0.0014037 0 -0.00591466 0.0014037 0 -0.00759065 0.00129748 -1.88753e-23 -0.00759065 0.00129748
-1.88753e-23 -0.00910965 0.00116594 -1.89338e-23 -0.00910965 0.00116594 -1.89338e-23 -0.010472 0.00102329 0
-0.010472 0.00102329 0 -0.0116729 0.000886228 0 -0.0116729 0.000886228 0 -0.0127285
0.000761196 0 -0.0127285 0.000761196 0 -0.013647 0.000650401 0 -0.013647 0.000650401
0 -0.0144432 0.000551666 0 -0.0144432 0.000551666 0 -0.0151247 0.00046281 0
-0.0151247 0.00046281 0 -0.0157012 0.000381991 0 -0.0157012 0.000381991 0 -0.016179
0.000308524 1.27082e-23 -0.016179 0.000308524 1.27082e-23 -0.016566 0.000242381 1.27509e-23 -0.016566 0.000242381
1.27509e-23 -0.0168688 0.000183806 0 -0.0168688 0.000183806 0 -0.0170948 0.000132538 -1.16988e-23
-0.0170948 0.000132538 -1.16988e-23 -0.0172507 8.82368e-05 -2.32297e-23 -0.0172507 8.82368e-05 -2.32297e-23 -0.0173435
5.01452e-05 -1.15304e-23 -0.0173435 5.01452e-05 -1.15304e-23 -0.0173795 1.75239e-05 1.12446e-23 -0.0173795 1.75239e-05
1.12446e-23 -0.0173674 -9.46336e-06 8.66406e-26 -0.0173674 -9.46336e-06 8.66406e-26 -0.0173143 -3.15771e-05 -1.12377e-23
-0.0173143 -3.15771e-05 -1.12377e-23 -0.017224 -4.98142e-05 1.12317e-23 -0.017224 -4.98142e-05 1.12317e-23 -0.0171014
-6.45812e-05 1.12724e-23 -0.0171014 -6.45812e-05 1.12724e-23 -0.0169507 -7.66251e-05 0 -0.0169507 -7.66251e-05
0 -0.0167755 -8.65157e-05 -1.15261e-23 -0.0167755 -8.65157e-05 -1.15261e-23 -0.0165787 -9.49859e-05 -1.1569e-23
-0.0165787 -9.49859e-05 -1.1569e-23 -0.0163625 -0.000102891 1.18317e-23 -0.0163625 -0.000102891 1.18317e-23 -0.0161285
-0.000111014 1.18764e-23 -0.0161285 -0.000111014 1.18764e-23 -0.0158773 -0.000120079 -1.21907e-23 -0.0158773 -0.000120079
-1.21907e-23 -0.0156091 -0.000130477 -2.46207e-23 -0.0156091 -0.000130477 -2.46207e-23 -0.0153232 -0.000142137 -2.50119e-23
-0.0153232 -0.000142137 -2.50119e-23 -0.0150189 -0.000154417 -3.81941e-23 -0.0150189 -0.000154417 -3.81941e-23 -0.0146957
-0.000166127 3.04998e-25 -0.0146957 -0.000166127 3.04998e-25 -0.0143538 -0.000175745 2.60724e-23 -0.0143538 -0.000175745
2.60724e-23 -0.0139946 -0.000181822 0 -0.0139946 -0.000181822 0 -0.0136206 -0.000183517 0
-0.0136206 -0.000183517 0 -0.0132355 -0.000181153 2.75734e-23 -0.0132355 -0.000181153 2.75734e-23 -0.0128421
-0.000176667 5.56524e-23 -0.0128421 -0.000176667 5.56524e-23 -0.0124412 -0.000173698 -2.78344e-25 -0.0124412 -0.000173698
-2.78344e-25 -0.0120297 -0.000177012 -2.84772e-23 -0.0120297 -0.000177012 -2.84772e-23 -0.0115994 -0.000191141 2.9161e-23
-0.0115994 -0.000191141 2.9161e-23 -0.0111374 -0.000218652 5.88595e-23 -0.0111374 -0.000218652 5.88595e-23 -0.010628
-0.000258878 5.97044e-23 -0.010628 -0.000258878 5.97044e-23 -0.010058 -0.000307418 3.01311e-23 -0.010058 -0.000307418
3.01311e-23 -0.00942013 -0.000356709 0 -0.00942013 -0.000356709 0 -0.00871299 -0.000398894 0
-0.00871299 -0.000398894 0 -0.00793979 -0.000429452 3.1751e-23 -0.00793979 -0.000429452 3.1751e-23 -0.00710949
-0.000447769 3.189e-23 -0.00710949 -0.000447769 3.189e-23 -0.00623959 -0.000454536 0 -0.00623959 -0.000454536
0 -0.00534933 -0.000451481 -3.28101e-23 -0.00534933 -0.000451481 -3.28101e-23 -0.00443958 -0.000444488 -3.29567e-23
-0.00443958 -0.000444488 -3.29567e-23 -0.00349924 -0.000435761 0 -0.00349924 -0.000435761 0 -0.00255814
-0.000404624 -3.32641e-23 -0.00255814 -0.000404624 -3.32641e-23 -0.00168048 -0.000345495 -3.34156e-23 -0.00168048 -0.000345495
-3.34156e-23 -0.000901049 -0.000298977 0 -0.000901049 -0.000298977 0 -0.000139463 -0.000321466 3.29694e-23
-0.000139463 -0.000321466 3.29694e-23 0.000805207 -0.000429471 6.59055e-23 0.000805207 -0.000429471 6.59055e-23 0.00208844
-0.000607674 3.29361e-23 0.00208844 -0.000607674 3.29361e-23 0.00369869 -0.000838544 -3.21452e-23 0.00369869 -0.000838544
-3.21452e-23 0.00561449 -0.000906609 -3.22972e-23 0.00561449 -0.000906609 -3.22972e-23 0.00743056 -0.000432871 3.0711e-23
0.00743056 -0.000432871 3.0711e-23 0.00783078 0.000345942 3.0858e-23 0.00783078 0.000345942 3.0858e-23 0.00653795
0.000632538 2.9757e-23 0.00653795 0.000632538 2.9757e-23 0.00518882 0.000276828 5.92446e-23 0.00518882 0.000276828
5.92446e-23 0.00480237 -0.000150497 2.94864e-23 0.00480237 -0.000150497 2.94864e-23 0.00497619 -0.000274085 0
0.00497619 -0.000274085 0 0.00501581 -0.000144679 0 0.00501581 -0.000144679 0 0.00455765
8.64398e-05 0 0.00455765 8.64398e-05 0 0.00364922 0.00030573 0 0.00364922 0.00030573
0 0.00250875 0.00044069 0 0.00250875 0.00044069 0 0.00129519 0.000487694 0
0.00129519 0.000487694 0 6.85693e-05 0.000488189 2.44757e-23 6.85693e-05 0.000488189 2.44757e-23 -0.00114792
0.000476625 1.0928e-24 -0.00114792 0.000476625 1.0928e-24 -0.00234657 0.000467862 -2.36279e-23 -0.00234657 0.000467862
-2.36279e-23 -0.00354065 0.000465163 0 -0.00354065 0.000465163 0 -0.00474672 0.00046721 0
-0.00474672 0.00046721 0 -0.00597044 0.000469913 0 -0.00597044 0.000469913 0 -0.00720618
0.000468749 -3.55745e-23 -0.00720618 0.000468749 -3.55745e-23 -0.00843685 0.000459624 -3.57614e-23 -0.00843685 0.000459624
-3.57614e-23 -0.00963522 0.000439361 3.07372e-23 -0.00963522 0.000439361 3.07372e-23 -0.0107659 0.000405739 2.3476e-24
-0.0107659 0.000405739 2.3476e-24 -0.0117876 0.000357516 -2.87049e-23 -0.0117876 0.000357516 -2.87049e-23 -0.0126557
0.000294692 0 -0.0126557 0.000294692 0 -0.0133258 0.000218636 0 -0.0133258 0.000218636
0 -0.0137575 0.000131882 2.41373e-23 -0.0137575 0.000131882 2.41373e-23 -0.0139138 3.92161e-05 4.88581e-23
-0.0139138 3.92161e-05 4.88581e-23 -0.0137772 -5.63971e-05 2.47238e-23 -0.0137772 -5.63971e-05 2.47238e-23 -0.0133432
-0.00015281 2.75027e-23 -0.0133432 -0.00015281 2.75027e-23 -0.0126113 -0.000244976 5.74285e-23 -0.0126113 -0.000244976
5.74285e-23 -0.0115979 -0.000327743 -2.42484e-24 -0.0115979 -0.000327743 -2.42484e-24 -0.0103357 -0.000396167 -3.25437e-23
-0.0103357 -0.000396167 -3.25437e-23 -0.00887322 -0.000446185 0 -0.00887322 -0.000446185 0 -0.00727089
-0.000475235 -3.99088e-23 -0.00727089 -0.000475235 -3.99088e-23 -0.00559338 -0.000482419 -4.01336e-23 -0.00559338 -0.000482419
-4.01336e-23 -0.00390227 -0.000469919 0 -0.00390227 -0.000469919 0 -0.00225188 -0.000441039 0
-0.00225188 -0.000441039 0 -0.000699517 -0.000400223 0 -0.000699517 -0.000400223 0 0.000707236
-0.000353174 4.41857e-23 0.000707236 -0.000353174 4.41857e-23 0.00195455 -0.000303227 8.82149e-23 0.00195455 -0.000303227
8.82149e-23 0.00303857 -0.000253412 4.40278e-23 0.00303857 -0.000253412 4.40278e-23 0.00395734 -0.000207511 4.23729e-23
0.00395734 -0.000207511 4.23729e-23 0.00472261 -0.000168074 4.26195e-23 0.00472261 -0.000168074 4.26195e-23 0.00535367
-0.00013528 0 0.00535367 -0.00013528 0 0.00587199 -0.000109099 3.97343e-23 0.00587199 -0.000109099
3.97343e-23 0.00629966 -9.07712e-05 3.99681e-23 0.00629966 -9.07712e-05 3.99681e-23 0.00666139 -7.70565e-05 3.80294e-23
0.00666139 -7.70565e-05 3.80294e-23 0.00697531 -6.72396e-05 3.82549e-23 0.00697531 -6.72396e-05 3.82549e-23 0.00725973
-7.05953e-05 0 0.00725973 -7.05953e-05 0 0.00755384 -7.70285e-05 3.58654e-23 0.00755384 -7.70285e-05
3.58654e-23 0.00787157 -7.44733e-05 3.60804e-23 0.00787157 -7.44733e-05 3.60804e-23 0.00821225 -9.81264e-05 3.47742e-23