# vtk DataFile Version 2.0
sampleSurface
ASCII
DATASET POLYDATA
POINTS 502 float
-0.0206 0 -0.0005 -0.0190172 0 -0.0005 -0.0190172 0 0.0005 -0.0206 0
0.0005 -0.0174976 0 -0.0005 -0.0174976 0 0.0005 -0.0160387 0 -0.0005
-0.0160387 0 0.0005 -0.0146381 0 -0.0005 -0.0146381 0 0.0005 -0.0132934
0 -0.0005 -0.0132934 0 0.0005 -0.0120025 0 -0.0005 -0.0120025 0
0.0005 -0.0107632 0 -0.0005 -0.0107632 0 0.0005 -0.00957337 0 -0.0005
-0.00957337 0 0.0005 -0.00843108 0 -0.0005 -0.00843108 0 0.0005 -0.00733443
0 -0.0005 -0.00733443 0 0.0005 -0.0062816 0 -0.0005 -0.0062816 0
0.0005 -0.00527083 0 -0.0005 -0.00527083 0 0.0005 -0.00430044 0 -0.0005
-0.00430044 0 0.0005 -0.00336883 0 -0.0005 -0.00336883 0 0.0005 -0.00247443
0 -0.0005 -0.00247443 0 0.0005 -0.00161577 0 -0.0005 -0.00161577 0
0.0005 -0.000791418 0 -0.0005 -0.000791418 0 0.0005 0 0 -0.0005
0 0 0.0005 0 -0.0254 -0.0005 0 -0.0254 0.0005 0
-0.0242711 0.0005 0 -0.0242711 -0.0005 0 -0.0231422 0.0005 0 -0.0231422
-0.0005 0 -0.0220133 0.0005 0 -0.0220133 -0.0005 0 -0.0208844 0.0005
0 -0.0208844 -0.0005 0 -0.0197556 0.0005 0 -0.0197556 -0.0005 0
-0.0186267 0.0005 0 -0.0186267 -0.0005 0 -0.0174978 0.0005 0 -0.0174978
-0.0005 0 -0.0163689 0.0005 0 -0.0163689 -0.0005 0 -0.01524 0.0005
0 -0.01524 -0.0005 0 -0.0141111 0.0005 0 -0.0141111 -0.0005 0
-0.0129822 0.0005 0 -0.0129822 -0.0005 0 -0.0118533 0.0005 0 -0.0118533
-0.0005 0 -0.0107244 0.0005 0 -0.0107244 -0.0005 0 -0.00959556 0.0005
0 -0.00959556 -0.0005 0 -0.00846667 0.0005 0 -0.00846667 -0.0005 0
-0.00726604 0.0005 0 -0.00726604 -0.0005 0 -0.00618989 0.0005 0 -0.00618989
-0.0005 0 -0.00522531 0.0005 0 -0.00522531 -0.0005 0 -0.00436073 0.0005
0 -0.00436073 -0.0005 0 -0.00358579 0.0005 0 -0.00358579 -0.0005 0
-0.00289118 0.0005 0 -0.00289118 -0.0005 0 -0.0022686 0.0005 0 -0.0022686
-0.0005 0 -0.00171055 0.0005 0 -0.00171055 -0.0005 0 -0.00121037 0.0005
0 -0.00121037 -0.0005 0 -0.000762037 0.0005 0 -0.000762037 -0.0005 0
-0.000360188 0.0005 0 -0.000360188 -0.0005 0.000528387 -0.0254 -0.0005 0.000528387 -0.0254
0.0005 0.00106088 -0.0254 -0.0005 0.00106088 -0.0254 0.0005 0.00159752 -0.0254 -0.0005
0.00159752 -0.0254 0.0005 0.00213833 -0.0254 -0.0005 0.00213833 -0.0254 0.0005 0.00268334
-0.0254 -0.0005 0.00268334 -0.0254 0.0005 0.00323259 -0.0254 -0.0005 0.00323259 -0.0254
0.0005 0.00378611 -0.0254 -0.0005 0.00378611 -0.0254 0.0005 0.00434393 -0.0254 -0.0005
0.00434393 -0.0254 0.0005 0.00490609 -0.0254 -0.0005 0.00490609 -0.0254 0.0005 0.00547262
-0.0254 -0.0005 0.00547262 -0.0254 0.0005 0.00604356 -0.0254 -0.0005 0.00604356 -0.0254
0.0005 0.00661893 -0.0254 -0.0005 0.00661893 -0.0254 0.0005 0.00719878 -0.0254 -0.0005
0.00719878 -0.0254 0.0005 0.00778313 -0.0254 -0.0005 0.00778313 -0.0254 0.0005 0.00837203
-0.0254 -0.0005 0.00837203 -0.0254 0.0005 0.00896551 -0.0254 -0.0005 0.00896551 -0.0254
0.0005 0.0095636 -0.0254 -0.0005 0.0095636 -0.0254 0.0005 0.0101663 -0.0254 -0.0005
0.0101663 -0.0254 0.0005 0.0107738 -0.0254 -0.0005 0.0107738 -0.0254 0.0005 0.0113859
-0.0254 -0.0005 0.0113859 -0.0254 0.0005 0.0120028 -0.0254 -0.0005 0.0120028 -0.0254
0.0005 0.0126245 -0.0254 -0.0005 0.0126245 -0.0254 0.0005 0.0132511 -0.0254 -0.0005
0.0132511 -0.0254 0.0005 0.0138825 -0.0254 -0.0005 0.0138825 -0.0254 0.0005 0.0145188
-0.0254 -0.0005 0.0145188 -0.0254 0.0005 0.0151601 -0.0254 -0.0005 0.0151601 -0.0254
0.0005 0.0158063 -0.0254 -0.0005 0.0158063 -0.0254 0.0005 0.0164576 -0.0254 -0.0005
0.0164576 -0.0254 0.0005 0.0171139 -0.0254 -0.0005 0.0171139 -0.0254 0.0005 0.0177754
-0.0254 -0.0005 0.0177754 -0.0254 0.0005 0.018442 -0.0254 -0.0005 0.018442 -0.0254
0.0005 0.0191137 -0.0254 -0.0005 0.0191137 -0.0254 0.0005 0.0197907 -0.0254 -0.0005
0.0197907 -0.0254 0.0005 0.020473 -0.0254 -0.0005 0.020473 -0.0254 0.0005 0.0211606
-0.0254 -0.0005 0.0211606 -0.0254 0.0005 0.0218535 -0.0254 -0.0005 0.0218535 -0.0254
0.0005 0.0225517 -0.0254 -0.0005 0.0225517 -0.0254 0.0005 0.0232555 -0.0254 -0.0005
0.0232555 -0.0254 0.0005 0.0239647 -0.0254 -0.0005 0.0239647 -0.0254 0.0005 0.0246794
-0.0254 -0.0005 0.0246794 -0.0254 0.0005 0.0253996 -0.0254 -0.0005 0.0253996 -0.0254
0.0005 0.0261255 -0.0254 -0.0005 0.0261255 -0.0254 0.0005 0.026857 -0.0254 -0.0005
0.026857 -0.0254 0.0005 0.0275942 -0.0254 -0.0005 0.0275942 -0.0254 0.0005 0.0283371
-0.0254 -0.0005 0.0283371 -0.0254 0.0005 0.0290858 -0.0254 -0.0005 0.0290858 -0.0254
0.0005 0.0298403 -0.0254 -0.0005 0.0298403 -0.0254 0.0005 0.0306007 -0.0254 -0.0005
0.0306007 -0.0254 0.0005 0.031367 -0.0254 -0.0005 0.031367 -0.0254 0.0005 0.0321393
-0.0254 -0.0005 0.0321393 -0.0254 0.0005 0.0329175 -0.0254 -0.0005 0.0329175 -0.0254
0.0005 0.0337019 -0.0254 -0.0005 0.0337019 -0.0254 0.0005 0.0344923 -0.0254 -0.0005
0.0344923 -0.0254 0.0005 0.0352888 -0.0254 -0.0005 0.0352888 -0.0254 0.0005 0.0360916
-0.0254 -0.0005 0.0360916 -0.0254 0.0005 0.0369006 -0.0254 -0.0005 0.0369006 -0.0254
0.0005 0.0377158 -0.0254 -0.0005 0.0377158 -0.0254 0.0005 0.0385375 -0.0254 -0.0005
0.0385375 -0.0254 0.0005 0.0393655 -0.0254 -0.0005 0.0393655 -0.0254 0.0005 0.0401999
-0.0254 -0.0005 0.0401999 -0.0254 0.0005 0.0410408 -0.0254 -0.0005 0.0410408 -0.0254
0.0005 0.0418883 -0.0254 -0.0005 0.0418883 -0.0254 0.0005 0.0427424 -0.0254 -0.0005
0.0427424 -0.0254 0.0005 0.0436031 -0.0254 -0.0005 0.0436031 -0.0254 0.0005 0.0444704
-0.0254 -0.0005 0.0444704 -0.0254 0.0005 0.0453446 -0.0254 -0.0005 0.0453446 -0.0254
0.0005 0.0462255 -0.0254 -0.0005 0.0462255 -0.0254 0.0005 0.0471133 -0.0254 -0.0005
0.0471133 -0.0254 0.0005 0.048008 -0.0254 -0.0005 0.048008 -0.0254 0.0005 0.0489096
-0.0254 -0.0005 0.0489096 -0.0254 0.0005 0.0498183 -0.0254 -0.0005 0.0498183 -0.0254
0.0005 0.050734 -0.0254 -0.0005 0.050734 -0.0254 0.0005 0.0516568 -0.0254 -0.0005
0.0516568 -0.0254 0.0005 0.0525868 -0.0254 -0.0005 0.0525868 -0.0254 0.0005 0.053524
-0.0254 -0.0005 0.053524 -0.0254 0.0005 0.0544686 -0.0254 -0.0005 0.0544686 -0.0254
0.0005 0.0554204 -0.0254 -0.0005 0.0554204 -0.0254 0.0005 0.0563797 -0.0254 -0.0005
0.0563797 -0.0254 0.0005 0.0573464 -0.0254 -0.0005 0.0573464 -0.0254 0.0005 0.0583206
-0.0254 -0.0005 0.0583206 -0.0254 0.0005 0.0593025 -0.0254 -0.0005 0.0593025 -0.0254
0.0005 0.0602919 -0.0254 -0.0005 0.0602919 -0.0254 0.0005 0.0612891 -0.0254 -0.0005
0.0612891 -0.0254 0.0005 0.0622939 -0.0254 -0.0005 0.0622939 -0.0254 0.0005 0.0633067
-0.0254 -0.0005 0.0633067 -0.0254 0.0005 0.0643272 -0.0254 -0.0005 0.0643272 -0.0254
0.0005 0.0653557 -0.0254 -0.0005 0.0653557 -0.0254 0.0005 0.0663923 -0.0254 -0.0005
0.0663923 -0.0254 0.0005 0.0674368 -0.0254 -0.0005 0.0674368 -0.0254 0.0005 0.0684895
-0.0254 -0.0005 0.0684895 -0.0254 0.0005 0.0695504 -0.0254 -0.0005 0.0695504 -0.0254
0.0005 0.0706195 -0.0254 -0.0005 0.0706195 -0.0254 0.0005 0.0716969 -0.0254 -0.0005
0.0716969 -0.0254 0.0005 0.0727828 -0.0254 -0.0005 0.0727828 -0.0254 0.0005 0.073877
-0.0254 -0.0005 0.073877 -0.0254 0.0005 0.0749798 -0.0254 -0.0005 0.0749798 -0.0254
0.0005 0.0760911 -0.0254 -0.0005 0.0760911 -0.0254 0.0005 0.0772111 -0.0254 -0.0005
0.0772111 -0.0254 0.0005 0.0783398 -0.0254 -0.0005 0.0783398 -0.0254 0.0005 0.0794772
-0.0254 -0.0005 0.0794772 -0.0254 0.0005 0.0806235 -0.0254 -0.0005 0.0806235 -0.0254
0.0005 0.0817787 -0.0254 -0.0005 0.0817787 -0.0254 0.0005 0.0829429 -0.0254 -0.0005
0.0829429 -0.0254 0.0005 0.0841162 -0.0254 -0.0005 0.0841162 -0.0254 0.0005 0.0852985
-0.0254 -0.0005 0.0852985 -0.0254 0.0005 0.0864901 -0.0254 -0.0005 0.0864901 -0.0254
0.0005 0.0876909 -0.0254 -0.0005 0.0876909 -0.0254 0.0005 0.0889011 -0.0254 -0.0005
0.0889011 -0.0254 0.0005 0.0901207 -0.0254 -0.0005 0.0901207 -0.0254 0.0005 0.0913497
-0.0254 -0.0005 0.0913497 -0.0254 0.0005 0.0925883 -0.0254 -0.0005 0.0925883 -0.0254
0.0005 0.0938366 -0.0254 -0.0005 0.0938366 -0.0254 0.0005 0.0950945 -0.0254 -0.0005
0.0950945 -0.0254 0.0005 0.0963622 -0.0254 -0.0005 0.0963622 -0.0254 0.0005 0.0976398
-0.0254 -0.0005 0.0976398 -0.0254 0.0005 0.0989273 -0.0254 -0.0005 0.0989273 -0.0254
0.0005 0.100225 -0.0254 -0.0005 0.100225 -0.0254 0.0005 0.101532 -0.0254 -0.0005
0.101532 -0.0254 0.0005 0.10285 -0.0254 -0.0005 0.10285 -0.0254 0.0005 0.104178
-0.0254 -0.0005 0.104178 -0.0254 0.0005 0.105517 -0.0254 -0.0005 0.105517 -0.0254
0.0005 0.106865 -0.0254 -0.0005 0.106865 -0.0254 0.0005 0.108225 -0.0254 -0.0005
0.108225 -0.0254 0.0005 0.109594 -0.0254 -0.0005 0.109594 -0.0254 0.0005 0.110975
-0.0254 -0.0005 0.110975 -0.0254 0.0005 0.112366 -0.0254 -0.0005 0.112366 -0.0254
0.0005 0.113768 -0.0254 -0.0005 0.113768 -0.0254 0.0005 0.115181 -0.0254 -0.0005
0.115181 -0.0254 0.0005 0.116605 -0.0254 -0.0005 0.116605 -0.0254 0.0005 0.11804
-0.0254 -0.0005 0.11804 -0.0254 0.0005 0.119486 -0.0254 -0.0005 0.119486 -0.0254
0.0005 0.120943 -0.0254 -0.0005 0.120943 -0.0254 0.0005 0.122412 -0.0254 -0.0005
0.122412 -0.0254 0.0005 0.123892 -0.0254 -0.0005 0.123892 -0.0254 0.0005 0.125384
-0.0254 -0.0005 0.125384 -0.0254 0.0005 0.126887 -0.0254 -0.0005 0.126887 -0.0254
0.0005 0.128402 -0.0254 -0.0005 0.128402 -0.0254 0.0005 0.129928 -0.0254 -0.0005
0.129928 -0.0254 0.0005 0.131467 -0.0254 -0.0005 0.131467 -0.0254 0.0005 0.133017
-0.0254 -0.0005 0.133017 -0.0254 0.0005 0.13458 -0.0254 -0.0005 0.13458 -0.0254
0.0005 0.136155 -0.0254 -0.0005 0.136155 -0.0254 0.0005 0.137742 -0.0254 -0.0005
0.137742 -0.0254 0.0005 0.139341 -0.0254 -0.0005 0.139341 -0.0254 0.0005 0.140953
-0.0254 -0.0005 0.140953 -0.0254 0.0005 0.142577 -0.0254 -0.0005 0.142577 -0.0254
0.0005 0.144214 -0.0254 -0.0005 0.144214 -0.0254 0.0005 0.145863 -0.0254 -0.0005
0.145863 -0.0254 0.0005 0.147526 -0.0254 -0.0005 0.147526 -0.0254 0.0005 0.149201
-0.0254 -0.0005 0.149201 -0.0254 0.0005 0.15089 -0.0254 -0.0005 0.15089 -0.0254
0.0005 0.152591 -0.0254 -0.0005 0.152591 -0.0254 0.0005 0.154306 -0.0254 -0.0005
0.154306 -0.0254 0.0005 0.156034 -0.0254 -0.0005 0.156034 -0.0254 0.0005 0.157775
-0.0254 -0.0005 0.157775 -0.0254 0.0005 0.159531 -0.0254 -0.0005 0.159531 -0.0254
0.0005 0.161299 -0.0254 -0.0005 0.161299 -0.0254 0.0005 0.163082 -0.0254 -0.0005
0.163082 -0.0254 0.0005 0.164878 -0.0254 -0.0005 0.164878 -0.0254 0.0005 0.166688
-0.0254 -0.0005 0.166688 -0.0254 0.0005 0.168513 -0.0254 -0.0005 0.168513 -0.0254
0.0005 0.170351 -0.0254 -0.0005 0.170351 -0.0254 0.0005 0.172204 -0.0254 -0.0005
0.172204 -0.0254 0.0005 0.174071 -0.0254 -0.0005 0.174071 -0.0254 0.0005 0.175953
-0.0254 -0.0005 0.175953 -0.0254 0.0005 0.177849 -0.0254 -0.0005 0.177849 -0.0254
0.0005 0.17976 -0.0254 -0.0005 0.17976 -0.0254 0.0005 0.181686 -0.0254 -0.0005
0.181686 -0.0254 0.0005 0.183627 -0.0254 -0.0005 0.183627 -0.0254 0.0005 0.185583
-0.0254 -0.0005 0.185583 -0.0254 0.0005 0.187555 -0.0254 -0.0005 0.187555 -0.0254
0.0005 0.189541 -0.0254 -0.0005 0.189541 -0.0254 0.0005 0.191543 -0.0254 -0.0005
0.191543 -0.0254 0.0005 0.193561 -0.0254 -0.0005 0.193561 -0.0254 0.0005 0.195594
-0.0254 -0.0005 0.195594 -0.0254 0.0005 0.197643 -0.0254 -0.0005 0.197643 -0.0254
0.0005 0.199708 -0.0254 -0.0005 0.199708 -0.0254 0.0005 0.201789 -0.0254 -0.0005
0.201789 -0.0254 0.0005 0.203886 -0.0254 -0.0005 0.203886 -0.0254 0.0005 0.206
-0.0254 -0.0005 0.206 -0.0254 0.0005 0.208047 -0.0251856 -0.0005 0.208047 -0.0251856
0.0005 0.210173 -0.0249628 -0.0005 0.210173 -0.0249628 0.0005 0.212382 -0.0247314 -0.0005
0.212382 -0.0247314 0.0005 0.214677 -0.024491 -0.0005 0.214677 -0.024491 0.0005 0.217061
-0.0242412 -0.0005 0.217061 -0.0242412 0.0005 0.219538 -0.0239817 -0.0005 0.219538 -0.0239817
0.0005 0.222112 -0.0237121 -0.0005 0.222112 -0.0237121 0.0005 0.224785 -0.023432 -0.0005
0.224785 -0.023432 0.0005 0.227563 -0.023141 -0.0005 0.227563 -0.023141 0.0005 0.230449
-0.0228387 -0.0005 0.230449 -0.0228387 0.0005 0.233447 -0.0225246 -0.0005 0.233447 -0.0225246
0.0005 0.236562 -0.0221983 -0.0005 0.236562 -0.0221983 0.0005 0.239797 -0.0218593 -0.0005
0.239797 -0.0218593 0.0005 0.243159 -0.0215071 -0.0005 0.243159 -0.0215071 0.0005 0.246652
-0.0211412 -0.0005 0.246652 -0.0211412 0.0005 0.250281 -0.0207611 -0.0005 0.250281 -0.0207611
0.0005 0.254051 -0.0203661 -0.0005 0.254051 -0.0203661 0.0005 0.257967 -0.0199558 -0.0005
0.257967 -0.0199558 0.0005 0.262036 -0.0195295 -0.0005 0.262036 -0.0195295 0.0005 0.266264
-0.0190867 -0.0005 0.266264 -0.0190867 0.0005 0.270655 -0.0186266 -0.0005 0.270655 -0.0186266
0.0005 0.275218 -0.0181486 -0.0005 0.275218 -0.0181486 0.0005 0.279959 -0.017652 -0.0005
0.279959 -0.017652 0.0005 0.284883 -0.017136 -0.0005 0.284883 -0.017136 0.0005 0.29
-0.0166 -0.0005 0.29 -0.0166 0.0005 
POLYGONS 250 1250
4 0 1 2 3 4 1 4 5 2 4
4 6 7 5 4 6 8 9 7 4
8 10 11 9 4 10 12 13 11 4
12 14 15 13 4 14 16 17 15 4
16 18 19 17 4 18 20 21 19 4
20 22 23 21 4 22 24 25 23 4
24 26 27 25 4 26 28 29 27 4
28 30 31 29 4 30 32 33 31 4
32 34 35 33 4 34 36 37 35 4
38 39 40 41 4 41 40 42 43 4
43 42 44 45 4 45 44 46 47 4
47 46 48 49 4 49 48 50 51 4
51 50 52 53 4 53 52 54 55 4
55 54 56 57 4 57 56 58 59 4
59 58 60 61 4 61 60 62 63 4
63 62 64 65 4 65 64 66 67 4
67 66 68 69 4 69 68 70 71 4
71 70 72 73 4 73 72 74 75 4
75 74 76 77 4 77 76 78 79 4
79 78 80 81 4 81 80 82 83 4
83 82 84 85 4 85 84 86 87 4
87 86 88 89 4 89 88 90 91 4
91 90 37 36 4 38 92 93 39 4
92 94 95 93 4 94 96 97 95 4
96 98 99 97 4 98 100 101 99 4
100 102 103 101 4 102 104 105 103 4
104 106 107 105 4 106 108 109 107 4
108 110 111 109 4 110 112 113 111 4
112 114 115 113 4 114 116 117 115 4
116 118 119 117 4 118 120 121 119 4
120 122 123 121 4 122 124 125 123 4
124 126 127 125 4 126 128 129 127 4
128 130 131 129 4 130 132 133 131 4
132 134 135 133 4 134 136 137 135 4
136 138 139 137 4 138 140 141 139 4
140 142 143 141 4 142 144 145 143 4
144 146 147 145 4 146 148 149 147 4
148 150 151 149 4 150 152 153 151 4
152 154 155 153 4 154 156 157 155 4
156 158 159 157 4 158 160 161 159 4
160 162 163 161 4 162 164 165 163 4
164 166 167 165 4 166 168 169 167 4
168 170 171 169 4 170 172 173 171 4
172 174 175 173 4 174 176 177 175 4
176 178 179 177 4 178 180 181 179 4
180 182 183 181 4 182 184 185 183 4
184 186 187 185 4 186 188 189 187 4
188 190 191 189 4 190 192 193 191 4
192 194 195 193 4 194 196 197 195 4
196 198 199 197 4 198 200 201 199 4
200 202 203 201 4 202 204 205 203 4
204 206 207 205 4 206 208 209 207 4
208 210 211 209 4 210 212 213 211 4
212 214 215 213 4 214 216 217 215 4
216 218 219 217 4 218 220 221 219 4
220 222 223 221 4 222 224 225 223 4
224 226 227 225 4 226 228 229 227 4
228 230 231 229 4 230 232 233 231 4
232 234 235 233 4 234 236 237 235 4
236 238 239 237 4 238 240 241 239 4
240 242 243 241 4 242 244 245 243 4
244 246 247 245 4 246 248 249 247 4
248 250 251 249 4 250 252 253 251 4
252 254 255 253 4 254 256 257 255 4
256 258 259 257 4 258 260 261 259 4
260 262 263 261 4 262 264 265 263 4
264 266 267 265 4 266 268 269 267 4
268 270 271 269 4 270 272 273 271 4
272 274 275 273 4 274 276 277 275 4
276 278 279 277 4 278 280 281 279 4
280 282 283 281 4 282 284 285 283 4
284 286 287 285 4 286 288 289 287 4
288 290 291 289 4 290 292 293 291 4
292 294 295 293 4 294 296 297 295 4
296 298 299 297 4 298 300 301 299 4
300 302 303 301 4 302 304 305 303 4
304 306 307 305 4 306 308 309 307 4
308 310 311 309 4 310 312 313 311 4
312 314 315 313 4 314 316 317 315 4
316 318 319 317 4 318 320 321 319 4
320 322 323 321 4 322 324 325 323 4
324 326 327 325 4 326 328 329 327 4
328 330 331 329 4 330 332 333 331 4
332 334 335 333 4 334 336 337 335 4
336 338 339 337 4 338 340 341 339 4
340 342 343 341 4 342 344 345 343 4
344 346 347 345 4 346 348 349 347 4
348 350 351 349 4 350 352 353 351 4
352 354 355 353 4 354 356 357 355 4
356 358 359 357 4 358 360 361 359 4
360 362 363 361 4 362 364 365 363 4
364 366 367 365 4 366 368 369 367 4
368 370 371 369 4 370 372 373 371 4
372 374 375 373 4 374 376 377 375 4
376 378 379 377 4 378 380 381 379 4
380 382 383 381 4 382 384 385 383 4
384 386 387 385 4 386 388 389 387 4
388 390 391 389 4 390 392 393 391 4
392 394 395 393 4 394 396 397 395 4
396 398 399 397 4 398 400 401 399 4
400 402 403 401 4 402 404 405 403 4
404 406 407 405 4 406 408 409 407 4
408 410 411 409 4 410 412 413 411 4
412 414 415 413 4 414 416 417 415 4
416 418 419 417 4 418 420 421 419 4
420 422 423 421 4 422 424 425 423 4
424 426 427 425 4 426 428 429 427 4
428 430 431 429 4 430 432 433 431 4
432 434 435 433 4 434 436 437 435 4
436 438 439 437 4 438 440 441 439 4
440 442 443 441 4 442 444 445 443 4
444 446 447 445 4 446 448 449 447 4
448 450 451 449 4 450 452 453 451 4
452 454 455 453 4 454 456 457 455 4
456 458 459 457 4 458 460 461 459 4
460 462 463 461 4 462 464 465 463 4
464 466 467 465 4 466 468 469 467 4
468 470 471 469 4 470 472 473 471 4
472 474 475 473 4 474 476 477 475 4
476 478 479 477 4 478 480 481 479 4
480 482 483 481 4 482 484 485 483 4
484 486 487 485 4 486 488 489 487 4
488 490 491 489 4 490 492 493 491 4
492 494 495 493 4 494 496 497 495 4
496 498 499 497 4 498 500 501 499 
POINT_DATA 502
FIELD attributes 1
U 3 502 float
3.14436 0.0119783 -0.0223437 1.57994 0.00607403 -0.011011 1.57994 0.00607403 -0.011011 3.14436 0.0119783
-0.0223437 0.0589254 0.000305036 0 0.0589254 0.000305036 0 0.0571906 0.000250585 0
0.0571906 0.000250585 0 0.0557164 0.000278878 0 0.0557164 0.000278878 0 0.0540379
0.000366646 0 0.0540379 0.000366646 0 0.0521686 0.000370607 0 0.0521686 0.000370607
0 0.0504895 0.000270187 0 0.0504895 0.000270187 0 0.0492243 0.000145852 0
0.0492243 0.000145852 0 0.0482989 7.47024e-05 0 0.0482989 7.47024e-05 0 0.047649
6.50814e-05 0 0.047649 6.50814e-05 0 0.0470974 0.000106532 0 0.0470974 0.000106532
0 0.0467437 0.000131301 0 0.0467437 0.000131301 0 0.0463693 0.000160155 0
0.0463693 0.000160155 0 0.0463801 5.43571e-05 0 0.0463801 5.43571e-05 0 0.0465319
3.21317e-05 0 0.0465319 3.21317e-05 0 0.047292 -0.000275441 0 0.047292 -0.000275441
0 0.0483752 -0.000353484 0 0.0483752 -0.000353484 0 0.0242125 -3.49105e-05 0
0.0242125 -3.49105e-05 0 -0.000553939 0.00107074 5.81809e-23 -0.000553939 0.00107074 5.81809e-23 -0.0003055
0.0032277 -1.57101e-22 -0.0003055 0.0032277 -1.57101e-22 0.000123119 0.00427212 -1.86216e-22 0.000123119 0.00427212
-1.86216e-22 5.42459e-05 0.002978 3.71362e-22 5.42459e-05 0.002978 3.71362e-22 -0.000364045 0.0031211 1.23861e-22
-0.000364045 0.0031211 1.23861e-22 8.48306e-05 0.00220802 -2.47525e-22 8.48306e-05 0.00220802 -2.47525e-22 0.0010782
-0.00206985 0 0.0010782 -0.00206985 0 0.00127407 -0.0072678 -4.90121e-22 0.00127407 -0.0072678
-4.90121e-22 0.000829881 -0.0106756 -2.77174e-25 0.000829881 -0.0106756 -2.77174e-25 0.000288382 -0.0120154 4.89843e-22
0.000288382 -0.0120154 4.89843e-22 -0.000211994 -0.0112595 -4.90458e-22 -0.000211994 -0.0112595 -4.90458e-22 -0.000617956
-0.00874641 4.58534e-25 -0.000617956 -0.00874641 4.58534e-25 -0.000966234 -0.0046938 4.90916e-22 -0.000966234 -0.0046938
4.90916e-22 -0.00118695 0.000587016 4.82303e-22 -0.00118695 0.000587016 4.82303e-22 -0.00118798 0.00638895 1.1506e-24
-0.00118798 0.00638895 1.1506e-24 -0.000961942 0.0118271 -4.8968e-22 -0.000961942 0.0118271 -4.8968e-22 -0.000499759
0.0160537 0 -0.000499759 0.0160537 0 8.21086e-05 0.0179344 0 8.21086e-05 0.0179344
0 0.000654332 0.0173769 0 0.000654332 0.0173769 0 0.00109594 0.0150284 0
0.00109594 0.0150284 0 0.00129443 0.0116513 0 0.00129443 0.0116513 0 0.00127332
0.00855601 0 0.00127332 0.00855601 0 0.0010174 0.00551603 0 0.0010174 0.00551603
0 0.000765462 0.00406057 0 0.000765462 0.00406057 0 0.00043833 0.00206098 0
0.00043833 0.00206098 0 -0.00104087 0.00184894 0 -0.00104087 0.00184894 0 0.000878273
0.00191573 0 0.000878273 0.00191573 0 -0.000937259 0.000791621 3.19607e-25 -0.000937259 0.000791621
3.19607e-25 -0.00154685 0.000348825 -2.88449e-23 -0.00154685 0.000348825 -2.88449e-23 -0.0019344 2.9247e-05 0
-0.0019344 2.9247e-05 0 -0.0020354 -0.000310403 0 -0.0020354 -0.000310403 0 -0.00177658
-0.000646769 2.80644e-23 -0.00177658 -0.000646769 2.80644e-23 -0.00124016 -0.000921492 2.81148e-23 -0.00124016 -0.000921492
2.81148e-23 -0.000490359 -0.00107879 0 -0.000490359 -0.00107879 0 0.00038716 -0.00112703 0
0.00038716 -0.00112703 0 0.00131123 -0.00112283 0 0.00131123 -0.00112283 0 0.00221479
-0.0010724 -2.72366e-23 0.00221479 -0.0010724 -2.72366e-23 0.00308711 -0.000998386 -2.72885e-23 0.00308711 -0.000998386
-2.72885e-23 0.0039117 -0.000914819 0 0.0039117 -0.000914819 0 0.00467607 -0.000830447 0
0.00467607 -0.000830447 0 0.00537908 -0.000751222 0 0.00537908 -0.000751222 0 0.00602537
-0.000679914 -2.58805e-23 0.00602537 -0.000679914 -2.58805e-23 0.00662074 -0.000616766 -2.59328e-23 0.00662074 -0.000616766
-2.59328e-23 0.00717054 -0.000560305 0 0.00717054 -0.000560305 0 0.00767905 -0.000509366 0
0.00767905 -0.000509366 0 0.00814991 -0.000463293 0 0.00814991 -0.000463293 0 0.00858585
-0.000420056 0 0.00858585 -0.000420056 0 0.00898796 -0.000378921 0 0.00898796 -0.000378921
0 0.00935729 -0.000340203 0 0.00935729 -0.000340203 0 0.00969429 -0.000301129 -2.39427e-23
0.00969429 -0.000301129 -2.39427e-23 0.00999735 -0.000262458 -2.53434e-25 0.00999735 -0.000262458 -2.53434e-25 0.0102669
-0.000225085 2.42193e-25 0.0102669 -0.000225085 2.42193e-25 0.0105018 -0.000183875 -4.69823e-23 0.0105018 -0.000183875
-4.69823e-23 0.0106988 -0.000143945 -2.34294e-23 0.0106988 -0.000143945 -2.34294e-23 0.0108605 -0.000103077 0
0.0108605 -0.000103077 0 0.0109811 -5.26621e-05 2.29209e-23 0.0109811 -5.26621e-05 2.29209e-23 0.0110592
-7.8092e-06 4.57703e-23 0.0110592 -7.8092e-06 4.57703e-23 0.0110966 4.98556e-05 2.28496e-23 0.0110966 4.98556e-05
2.28496e-23 0.0110703 0.00012463 0 0.0110703 0.00012463 0 0.0109819 0.000187033 2.24939e-23
0.0109819 0.000187033 2.24939e-23 0.0108204 0.000302257 2.25493e-23 0.0108204 0.000302257 2.25493e-23 0.0105424
0.000423314 0 0.0105424 0.000423314 0 0.0101817 0.000525289 -2.23107e-23 0.0101817 0.000525289
-2.23107e-23 0.00966719 0.000780188 -2.23674e-23 0.00966719 0.000780188 -2.23674e-23 0.00893572 0.000940951 -2.22315e-23
0.00893572 0.000940951 -2.22315e-23 0.00812209 0.001116 -6.66778e-23 0.00812209 0.001116 -6.66778e-23 0.00689761
0.00188378 -4.4505e-23 0.00689761 0.00188378 -4.4505e-23 0.00498113 0.00224233 0 0.00498113 0.00224233
0 0.00305682 0.00118037 0 0.00305682 0.00118037 0 0.00170142 -0.00024106 0
0.00170142 -0.00024106 0 0.000818578 -0.000971839 0 0.000818578 -0.000971839 0 0.000263124
-0.0010873 -4.23114e-23 0.000263124 -0.0010873 -4.23114e-23 2.11191e-07 -0.00095284 -8.44477e-23 2.11191e-07 -0.00095284
-8.44477e-23 4.92926e-05 -0.000820696 -8.3923e-23 4.92926e-05 -0.000820696 -8.3923e-23 0.000436936 -0.000787582 -4.19051e-23
0.000436936 -0.000787582 -4.19051e-23 0.00111967 -0.000833138 4.14672e-23 0.00111967 -0.000833138 4.14672e-23 0.00201317
-0.000842327 4.15873e-23 0.00201317 -0.000842327 4.15873e-23 0.00299929 -0.000697183 -4.11088e-23 0.00299929 -0.000697183
-4.11088e-23 0.00388628 -0.000484729 -8.20567e-23 0.00388628 -0.000484729 -8.20567e-23 0.00464216 -0.000342391 -4.09482e-23
0.00464216 -0.000342391 -4.09482e-23 0.00530398 1.18567e-05 0 0.00530398 1.18567e-05 0 0.0053542
0.000697185 0 0.0053542 0.000697185 0 0.0044417 0.00106257 -3.96382e-23 0.0044417 0.00106257
-3.96382e-23 0.00320806 0.000796065 -3.9761e-23 0.00320806 0.000796065 -3.9761e-23 0.00233666 0.000258852 0
0.00233666 0.000258852 0 0.00190842 -0.000139265 0 0.00190842 -0.000139265 0 0.00212594
-0.000414927 0 0.00212594 -0.000414927 0 0.00230158 -0.00154668 0 0.00230158 -0.00154668
0 0.0018604 -0.000993376 0 0.0018604 -0.000993376 0 -0.000607389 0.00172149 0
-0.000607389 0.00172149 0 -0.00423867 0.00240449 0 -0.00423867 0.00240449 0 -0.00684615
0.00182855 3.40565e-23 -0.00684615 0.00182855 3.40565e-23 -0.00905694 0.00151321 3.4171e-23 -0.00905694 0.00151321
3.4171e-23 -0.0108507 0.00118465 0 -0.0108507 0.00118465 0 -0.0123301 0.000977181 -2.9916e-23
-0.0123301 0.000977181 -2.9916e-23 -0.0135999 0.000797143 -5.86467e-23 -0.0135999 0.000797143 -5.86467e-23 -0.0146804
0.000682353 -2.87272e-23 -0.0146804 0.000682353 -2.87272e-23 -0.0156474 0.000587717 2.62286e-23 -0.0156474 0.000587717
2.62286e-23 -0.0165041 0.000524193 1.20902e-24 -0.0165041 0.000524193 1.20902e-24 -0.0172939 0.000470375 -2.5202e-23
-0.0172939 0.000470375 -2.5202e-23 -0.0180144 0.000429085 2.304e-23 -0.0180144 0.000429085 2.304e-23 -0.0186874
0.000392009 2.31235e-23 -0.0186874 0.000392009 2.31235e-23 -0.0193098 0.000359588 0 -0.0193098 0.000359588
0 -0.0198914 0.000329368 -2.03583e-23 -0.0198914 0.000329368 -2.03583e-23 -0.02043 0.000300852 -2.0434e-23
-0.02043 0.000300852 -2.0434e-23 -0.0209294 0.000273515 1.88963e-23 -0.0209294 0.000273515 1.88963e-23 -0.0213876
0.000246278 1.89677e-23 -0.0213876 0.000246278 1.89677e-23 -0.021804 0.000218791 -1.77391e-23 -0.021804 0.000218791
-1.77391e-23 -0.0221755 0.000189693 -3.50955e-23 -0.0221755 0.000189693 -3.50955e-23 -0.0224977 0.000158389 -3.42852e-23
-0.0224977 0.000158389 -3.42852e-23 -0.0227644 0.00012369 -5.03357e-23 -0.0227644 0.00012369 -5.03357e-23 -0.0229679
8.53413e-05 -4.45844e-25 -0.0229679 8.53413e-05 -4.45844e-25 -0.0230985 4.30812e-05 3.31555e-23 -0.0230985 4.30812e-05
3.31555e-23 -0.023146 -4.47819e-06 0 -0.023146 -4.47819e-06 0 -0.0231035 -5.64708e-05 0
-0.0231035 -5.64708e-05 0 -0.0229612 -0.000111541 3.39425e-23 -0.0229612 -0.000111541 3.39425e-23 -0.0227054
-0.000170615 6.87991e-23 -0.0227054 -0.000170615 6.87991e-23 -0.022325 -0.00023309 -8.32945e-25 -0.022325 -0.00023309
-8.32945e-25 -0.0218103 -0.000297408 -3.58416e-23 -0.0218103 -0.000297408 -3.58416e-23 -0.0211557 -0.000361108 3.81357e-23
-0.0211557 -0.000361108 3.81357e-23 -0.0203619 -0.00042097 7.78149e-23 -0.0203619 -0.00042097 7.78149e-23 -0.0194377
-0.000473508 8.06259e-23 -0.0194377 -0.000473508 8.06259e-23 -0.0183998 -0.000515507 4.11141e-23 -0.0183998 -0.000515507
4.11141e-23 -0.0172723 -0.000544659 0 -0.0172723 -0.000544659 0 -0.0160833 -0.000560065 0
-0.0160833 -0.000560065 0 -0.0148618 -0.000562447 4.59249e-23 -0.0148618 -0.000562447 4.59249e-23 -0.0136334
-0.000554031 4.6126e-23 -0.0136334 -0.000554031 4.6126e-23 -0.0124185 -0.000537953 0 -0.0124185 -0.000537953
0 -0.0112308 -0.000517437 -4.81418e-23 -0.0112308 -0.000517437 -4.81418e-23 -0.0100777 -0.000495127 -4.83568e-23
-0.0100777 -0.000495127 -4.83568e-23 -0.00896195 -0.000472752 0 -0.00896195 -0.000472752 0 -0.0078837
-0.000451091 -4.91413e-23 -0.0078837 -0.000451091 -4.91413e-23 -0.00684231 -0.000430152 -4.93651e-23 -0.00684231 -0.000430152
-4.93651e-23 -0.00583765 -0.000409504 0 -0.00583765 -0.000409504 0 -0.00487068 -0.000388612 4.9224e-23
-0.00487068 -0.000388612 4.9224e-23 -0.00394337 -0.00036704 9.85284e-23 -0.00394337 -0.00036704 9.85284e-23 -0.0030582
-0.000344491 4.93052e-23 -0.0030582 -0.000344491 4.93052e-23 -0.00221859 -0.000320521 -4.8548e-23 -0.00221859 -0.000320521
-4.8548e-23 -0.00142847 -0.000295355 -4.87776e-23 -0.00142847 -0.000295355 -4.87776e-23 -0.000686772 -0.000270799 4.77591e-23
-0.000686772 -0.000270799 4.77591e-23 6.41634e-06 -0.000251096 4.79877e-23 6.41634e-06 -0.000251096 4.79877e-23 0.0006486
-0.000232585 4.67238e-23 0.0006486 -0.000232585 4.67238e-23 0.00124826 -0.000213179 9.31039e-23 0.00124826 -0.000213179
9.31039e-23 0.00181409 -0.000197183 4.63787e-23 0.00181409 -0.000197183 4.63787e-23 0.00235047 -0.000183704 0
0.00235047 -0.000183704 0 0.00286418 -0.000172088 0 0.00286418 -0.000172088 0 0.00336111
-0.000161887 0 0.00336111 -0.000161887 0 0.00384468 -0.000151802 0 0.00384468 -0.000151802
0 0.00431375 -0.000139875 0 0.00431375 -0.000139875 0 0.00476165 -0.000124094 0
0.00476165 -0.000124094 0 0.00517558 -0.000102976 4.14359e-23 0.00517558 -0.000102976 4.14359e-23 0.00553781
-7.76488e-05 7.84918e-25 0.00553781 -7.76488e-05 7.84918e-25 0.00583046 -5.23853e-05 -4.10712e-23 0.00583046 -5.23853e-05
-4.10712e-23 0.00603986 -2.93398e-05 0 0.00603986 -2.93398e-05 0 0.0061555 -5.87407e-06 0
0.0061555 -5.87407e-06 0 0.00617609 1.94706e-05 0 0.00617609 1.94706e-05 0 0.00611921
4.16222e-05 -7.61678e-23 0.00611921 4.16222e-05 -7.61678e-23 0.00601089 5.55722e-05 -7.65679e-23 0.00601089 5.55722e-05
-7.65679e-23 0.00587401 6.13205e-05 7.40358e-23 0.00587401 6.13205e-05 7.40358e-23 0.00572695 6.046e-05 1.43641e-24
0.00572695 6.046e-05 1.43641e-24 0.00558278 5.51098e-05 -7.33813e-23 0.00558278 5.51098e-05 -7.33813e-23 0.00545039
4.72768e-05 0 0.00545039 4.72768e-05 0 0.00533581 3.84596e-05 0 0.00533581 3.84596e-05
0 0.00524312 2.95958e-05 6.89849e-23 0.00524312 2.95958e-05 6.89849e-23 0.00517506 2.12016e-05 1.37388e-22
0.00517506 2.12016e-05 1.37388e-22 0.00513326 1.36316e-05 6.84e-23 0.00513326 1.36316e-05 6.84e-23 0.00511839
6.89091e-06 6.61713e-23 0.00511839 6.89091e-06 6.61713e-23 0.00513064 7.51521e-07 1.31804e-22 0.00513064 7.51521e-07
1.31804e-22 0.0051698 -5.06671e-06 1.2499e-24 0.0051698 -5.06671e-06 1.2499e-24 0.00523447 -1.07496e-05 -6.47369e-23
0.00523447 -1.07496e-05 -6.47369e-23 0.00532226 -1.60374e-05 0 0.00532226 -1.60374e-05 0 0.00543042
-2.01177e-05 -6.17861e-23 0.00543042 -2.01177e-05 -6.17861e-23 0.00555576 -2.27627e-05 -6.2134e-23 0.00555576 -2.27627e-05
-6.2134e-23 0.0056963 -2.46089e-05 0 0.0056963 -2.46089e-05 0 0.00585008 -2.48841e-05 0
0.00585008 -2.48841e-05 0 0.00601153 -2.32037e-05 0 0.00601153 -2.32037e-05 0 0.00617253
-2.13474e-05 5.76217e-23 0.00617253 -2.13474e-05 5.76217e-23 0.00632077 -1.79268e-05 1.14745e-22 0.00632077 -1.79268e-05
1.14745e-22 0.00643542 -1.12506e-05 5.71201e-23 0.00643542 -1.12506e-05 5.71201e-23 0.0064997 -8.56867e-06 5.5083e-23
0.0064997 -8.56867e-06 5.5083e-23 0.00652218 -1.47902e-05 5.54035e-23 0.00652218 -1.47902e-05 5.54035e-23 0.00653536
-2.42248e-05 0 0.00653536 -2.42248e-05 0 0.00658596 -4.09652e-05 5.25029e-23 0.00658596 -4.09652e-05
5.25029e-23 0.00672885 -7.33543e-05 5.28119e-23 0.00672885 -7.33543e-05 5.28119e-23 0.0069998 -0.000103739 5.09653e-23
0.0069998 -0.000103739 5.09653e-23 0.00739144 -0.000114851 5.12675e-23 0.00739144 -0.000114851 5.12675e-23 0.00788486
-0.000133502 0 0.00788486 -0.000133502 0 0.00849472 -0.000168611 4.87421e-23 0.00849472 -0.000168611
4.87421e-23 0.00919384 -0.000151998 4.90343e-23 0.00919384 -0.000151998 4.90343e-23 0.00981572 -8.40819e-05 4.69338e-23
0.00981572 -8.40819e-05 4.69338e-23 0.0102481 -7.46503e-05 4.72171e-23 0.0102481 -7.46503e-05 4.72171e-23 0.010563
-5.77454e-05 0 0.010563 -5.77454e-05 0 0.0106415 6.15425e-05 0 0.0106415 6.15425e-05