# vtk DataFile Version 2.0
sampleSurface
ASCII
DATASET POLYDATA
POINTS 502 float
-0.0206 0 -0.0005 -0.0190172 0 -0.0005 -0.0190172 0 0.0005 -0.0206 0
0.0005 -0.0174976 0 -0.0005 -0.0174976 0 0.0005 -0.0160387 0 -0.0005
-0.0160387 0 0.0005 -0.0146381 0 -0.0005 -0.0146381 0 0.0005 -0.0132934
0 -0.0005 -0.0132934 0 0.0005 -0.0120025 0 -0.0005 -0.0120025 0
0.0005 -0.0107632 0 -0.0005 -0.0107632 0 0.0005 -0.00957337 0 -0.0005
-0.00957337 0 0.0005 -0.00843108 0 -0.0005 -0.00843108 0 0.0005 -0.00733443
0 -0.0005 -0.00733443 0 0.0005 -0.0062816 0 -0.0005 -0.0062816 0
0.0005 -0.00527083 0 -0.0005 -0.00527083 0 0.0005 -0.00430044 0 -0.0005
-0.00430044 0 0.0005 -0.00336883 0 -0.0005 -0.00336883 0 0.0005 -0.00247443
0 -0.0005 -0.00247443 0 0.0005 -0.00161577 0 -0.0005 -0.00161577 0
0.0005 -0.000791418 0 -0.0005 -0.000791418 0 0.0005 0 0 -0.0005
0 0 0.0005 0 -0.0254 -0.0005 0 -0.0254 0.0005 0
-0.0242711 0.0005 0 -0.0242711 -0.0005 0 -0.0231422 0.0005 0 -0.0231422
-0.0005 0 -0.0220133 0.0005 0 -0.0220133 -0.0005 0 -0.0208844 0.0005
0 -0.0208844 -0.0005 0 -0.0197556 0.0005 0 -0.0197556 -0.0005 0
-0.0186267 0.0005 0 -0.0186267 -0.0005 0 -0.0174978 0.0005 0 -0.0174978
-0.0005 0 -0.0163689 0.0005 0 -0.0163689 -0.0005 0 -0.01524 0.0005
0 -0.01524 -0.0005 0 -0.0141111 0.0005 0 -0.0141111 -0.0005 0
-0.0129822 0.0005 0 -0.0129822 -0.0005 0 -0.0118533 0.0005 0 -0.0118533
-0.0005 0 -0.0107244 0.0005 0 -0.0107244 -0.0005 0 -0.00959556 0.0005
0 -0.00959556 -0.0005 0 -0.00846667 0.0005 0 -0.00846667 -0.0005 0
-0.00726604 0.0005 0 -0.00726604 -0.0005 0 -0.00618989 0.0005 0 -0.00618989
-0.0005 0 -0.00522531 0.0005 0 -0.00522531 -0.0005 0 -0.00436073 0.0005
0 -0.00436073 -0.0005 0 -0.00358579 0.0005 0 -0.00358579 -0.0005 0
-0.00289118 0.0005 0 -0.00289118 -0.0005 0 -0.0022686 0.0005 0 -0.0022686
-0.0005 0 -0.00171055 0.0005 0 -0.00171055 -0.0005 0 -0.00121037 0.0005
0 -0.00121037 -0.0005 0 -0.000762037 0.0005 0 -0.000762037 -0.0005 0
-0.000360188 0.0005 0 -0.000360188 -0.0005 0.000528387 -0.0254 -0.0005 0.000528387 -0.0254
0.0005 0.00106088 -0.0254 -0.0005 0.00106088 -0.0254 0.0005 0.00159752 -0.0254 -0.0005
0.00159752 -0.0254 0.0005 0.00213833 -0.0254 -0.0005 0.00213833 -0.0254 0.0005 0.00268334
-0.0254 -0.0005 0.00268334 -0.0254 0.0005 0.00323259 -0.0254 -0.0005 0.00323259 -0.0254
0.0005 0.00378611 -0.0254 -0.0005 0.00378611 -0.0254 0.0005 0.00434393 -0.0254 -0.0005
0.00434393 -0.0254 0.0005 0.00490609 -0.0254 -0.0005 0.00490609 -0.0254 0.0005 0.00547262
-0.0254 -0.0005 0.00547262 -0.0254 0.0005 0.00604356 -0.0254 -0.0005 0.00604356 -0.0254
0.0005 0.00661893 -0.0254 -0.0005 0.00661893 -0.0254 0.0005 0.00719878 -0.0254 -0.0005
0.00719878 -0.0254 0.0005 0.00778313 -0.0254 -0.0005 0.00778313 -0.0254 0.0005 0.00837203
-0.0254 -0.0005 0.00837203 -0.0254 0.0005 0.00896551 -0.0254 -0.0005 0.00896551 -0.0254
0.0005 0.0095636 -0.0254 -0.0005 0.0095636 -0.0254 0.0005 0.0101663 -0.0254 -0.0005
0.0101663 -0.0254 0.0005 0.0107738 -0.0254 -0.0005 0.0107738 -0.0254 0.0005 0.0113859
-0.0254 -0.0005 0.0113859 -0.0254 0.0005 0.0120028 -0.0254 -0.0005 0.0120028 -0.0254
0.0005 0.0126245 -0.0254 -0.0005 0.0126245 -0.0254 0.0005 0.0132511 -0.0254 -0.0005
0.0132511 -0.0254 0.0005 0.0138825 -0.0254 -0.0005 0.0138825 -0.0254 0.0005 0.0145188
-0.0254 -0.0005 0.0145188 -0.0254 0.0005 0.0151601 -0.0254 -0.0005 0.0151601 -0.0254
0.0005 0.0158063 -0.0254 -0.0005 0.0158063 -0.0254 0.0005 0.0164576 -0.0254 -0.0005
0.0164576 -0.0254 0.0005 0.0171139 -0.0254 -0.0005 0.0171139 -0.0254 0.0005 0.0177754
-0.0254 -0.0005 0.0177754 -0.0254 0.0005 0.018442 -0.0254 -0.0005 0.018442 -0.0254
0.0005 0.0191137 -0.0254 -0.0005 0.0191137 -0.0254 0.0005 0.0197907 -0.0254 -0.0005
0.0197907 -0.0254 0.0005 0.020473 -0.0254 -0.0005 0.020473 -0.0254 0.0005 0.0211606
-0.0254 -0.0005 0.0211606 -0.0254 0.0005 0.0218535 -0.0254 -0.0005 0.0218535 -0.0254
0.0005 0.0225517 -0.0254 -0.0005 0.0225517 -0.0254 0.0005 0.0232555 -0.0254 -0.0005
0.0232555 -0.0254 0.0005 0.0239647 -0.0254 -0.0005 0.0239647 -0.0254 0.0005 0.0246794
-0.0254 -0.0005 0.0246794 -0.0254 0.0005 0.0253996 -0.0254 -0.0005 0.0253996 -0.0254
0.0005 0.0261255 -0.0254 -0.0005 0.0261255 -0.0254 0.0005 0.026857 -0.0254 -0.0005
0.026857 -0.0254 0.0005 0.0275942 -0.0254 -0.0005 0.0275942 -0.0254 0.0005 0.0283371
-0.0254 -0.0005 0.0283371 -0.0254 0.0005 0.0290858 -0.0254 -0.0005 0.0290858 -0.0254
0.0005 0.0298403 -0.0254 -0.0005 0.0298403 -0.0254 0.0005 0.0306007 -0.0254 -0.0005
0.0306007 -0.0254 0.0005 0.031367 -0.0254 -0.0005 0.031367 -0.0254 0.0005 0.0321393
-0.0254 -0.0005 0.0321393 -0.0254 0.0005 0.0329175 -0.0254 -0.0005 0.0329175 -0.0254
0.0005 0.0337019 -0.0254 -0.0005 0.0337019 -0.0254 0.0005 0.0344923 -0.0254 -0.0005
0.0344923 -0.0254 0.0005 0.0352888 -0.0254 -0.0005 0.0352888 -0.0254 0.0005 0.0360916
-0.0254 -0.0005 0.0360916 -0.0254 0.0005 0.0369006 -0.0254 -0.0005 0.0369006 -0.0254
0.0005 0.0377158 -0.0254 -0.0005 0.0377158 -0.0254 0.0005 0.0385375 -0.0254 -0.0005
0.0385375 -0.0254 0.0005 0.0393655 -0.0254 -0.0005 0.0393655 -0.0254 0.0005 0.0401999
-0.0254 -0.0005 0.0401999 -0.0254 0.0005 0.0410408 -0.0254 -0.0005 0.0410408 -0.0254
0.0005 0.0418883 -0.0254 -0.0005 0.0418883 -0.0254 0.0005 0.0427424 -0.0254 -0.0005
0.0427424 -0.0254 0.0005 0.0436031 -0.0254 -0.0005 0.0436031 -0.0254 0.0005 0.0444704
-0.0254 -0.0005 0.0444704 -0.0254 0.0005 0.0453446 -0.0254 -0.0005 0.0453446 -0.0254
0.0005 0.0462255 -0.0254 -0.0005 0.0462255 -0.0254 0.0005 0.0471133 -0.0254 -0.0005
0.0471133 -0.0254 0.0005 0.048008 -0.0254 -0.0005 0.048008 -0.0254 0.0005 0.0489096
-0.0254 -0.0005 0.0489096 -0.0254 0.0005 0.0498183 -0.0254 -0.0005 0.0498183 -0.0254
0.0005 0.050734 -0.0254 -0.0005 0.050734 -0.0254 0.0005 0.0516568 -0.0254 -0.0005
0.0516568 -0.0254 0.0005 0.0525868 -0.0254 -0.0005 0.0525868 -0.0254 0.0005 0.053524
-0.0254 -0.0005 0.053524 -0.0254 0.0005 0.0544686 -0.0254 -0.0005 0.0544686 -0.0254
0.0005 0.0554204 -0.0254 -0.0005 0.0554204 -0.0254 0.0005 0.0563797 -0.0254 -0.0005
0.0563797 -0.0254 0.0005 0.0573464 -0.0254 -0.0005 0.0573464 -0.0254 0.0005 0.0583206
-0.0254 -0.0005 0.0583206 -0.0254 0.0005 0.0593025 -0.0254 -0.0005 0.0593025 -0.0254
0.0005 0.0602919 -0.0254 -0.0005 0.0602919 -0.0254 0.0005 0.0612891 -0.0254 -0.0005
0.0612891 -0.0254 0.0005 0.0622939 -0.0254 -0.0005 0.0622939 -0.0254 0.0005 0.0633067
-0.0254 -0.0005 0.0633067 -0.0254 0.0005 0.0643272 -0.0254 -0.0005 0.0643272 -0.0254
0.0005 0.0653557 -0.0254 -0.0005 0.0653557 -0.0254 0.0005 0.0663923 -0.0254 -0.0005
0.0663923 -0.0254 0.0005 0.0674368 -0.0254 -0.0005 0.0674368 -0.0254 0.0005 0.0684895
-0.0254 -0.0005 0.0684895 -0.0254 0.0005 0.0695504 -0.0254 -0.0005 0.0695504 -0.0254
0.0005 0.0706195 -0.0254 -0.0005 0.0706195 -0.0254 0.0005 0.0716969 -0.0254 -0.0005
0.0716969 -0.0254 0.0005 0.0727828 -0.0254 -0.0005 0.0727828 -0.0254 0.0005 0.073877
-0.0254 -0.0005 0.073877 -0.0254 0.0005 0.0749798 -0.0254 -0.0005 0.0749798 -0.0254
0.0005 0.0760911 -0.0254 -0.0005 0.0760911 -0.0254 0.0005 0.0772111 -0.0254 -0.0005
0.0772111 -0.0254 0.0005 0.0783398 -0.0254 -0.0005 0.0783398 -0.0254 0.0005 0.0794772
-0.0254 -0.0005 0.0794772 -0.0254 0.0005 0.0806235 -0.0254 -0.0005 0.0806235 -0.0254
0.0005 0.0817787 -0.0254 -0.0005 0.0817787 -0.0254 0.0005 0.0829429 -0.0254 -0.0005
0.0829429 -0.0254 0.0005 0.0841162 -0.0254 -0.0005 0.0841162 -0.0254 0.0005 0.0852985
-0.0254 -0.0005 0.0852985 -0.0254 0.0005 0.0864901 -0.0254 -0.0005 0.0864901 -0.0254
0.0005 0.0876909 -0.0254 -0.0005 0.0876909 -0.0254 0.0005 0.0889011 -0.0254 -0.0005
0.0889011 -0.0254 0.0005 0.0901207 -0.0254 -0.0005 0.0901207 -0.0254 0.0005 0.0913497
-0.0254 -0.0005 0.0913497 -0.0254 0.0005 0.0925883 -0.0254 -0.0005 0.0925883 -0.0254
0.0005 0.0938366 -0.0254 -0.0005 0.0938366 -0.0254 0.0005 0.0950945 -0.0254 -0.0005
0.0950945 -0.0254 0.0005 0.0963622 -0.0254 -0.0005 0.0963622 -0.0254 0.0005 0.0976398
-0.0254 -0.0005 0.0976398 -0.0254 0.0005 0.0989273 -0.0254 -0.0005 0.0989273 -0.0254
0.0005 0.100225 -0.0254 -0.0005 0.100225 -0.0254 0.0005 0.101532 -0.0254 -0.0005
0.101532 -0.0254 0.0005 0.10285 -0.0254 -0.0005 0.10285 -0.0254 0.0005 0.104178
-0.0254 -0.0005 0.104178 -0.0254 0.0005 0.105517 -0.0254 -0.0005 0.105517 -0.0254
0.0005 0.106865 -0.0254 -0.0005 0.106865 -0.0254 0.0005 0.108225 -0.0254 -0.0005
0.108225 -0.0254 0.0005 0.109594 -0.0254 -0.0005 0.109594 -0.0254 0.0005 0.110975
-0.0254 -0.0005 0.110975 -0.0254 0.0005 0.112366 -0.0254 -0.0005 0.112366 -0.0254
0.0005 0.113768 -0.0254 -0.0005 0.113768 -0.0254 0.0005 0.115181 -0.0254 -0.0005
0.115181 -0.0254 0.0005 0.116605 -0.0254 -0.0005 0.116605 -0.0254 0.0005 0.11804
-0.0254 -0.0005 0.11804 -0.0254 0.0005 0.119486 -0.0254 -0.0005 0.119486 -0.0254
0.0005 0.120943 -0.0254 -0.0005 0.120943 -0.0254 0.0005 0.122412 -0.0254 -0.0005
0.122412 -0.0254 0.0005 0.123892 -0.0254 -0.0005 0.123892 -0.0254 0.0005 0.125384
-0.0254 -0.0005 0.125384 -0.0254 0.0005 0.126887 -0.0254 -0.0005 0.126887 -0.0254
0.0005 0.128402 -0.0254 -0.0005 0.128402 -0.0254 0.0005 0.129928 -0.0254 -0.0005
0.129928 -0.0254 0.0005 0.131467 -0.0254 -0.0005 0.131467 -0.0254 0.0005 0.133017
-0.0254 -0.0005 0.133017 -0.0254 0.0005 0.13458 -0.0254 -0.0005 0.13458 -0.0254
0.0005 0.136155 -0.0254 -0.0005 0.136155 -0.0254 0.0005 0.137742 -0.0254 -0.0005
0.137742 -0.0254 0.0005 0.139341 -0.0254 -0.0005 0.139341 -0.0254 0.0005 0.140953
-0.0254 -0.0005 0.140953 -0.0254 0.0005 0.142577 -0.0254 -0.0005 0.142577 -0.0254
0.0005 0.144214 -0.0254 -0.0005 0.144214 -0.0254 0.0005 0.145863 -0.0254 -0.0005
0.145863 -0.0254 0.0005 0.147526 -0.0254 -0.0005 0.147526 -0.0254 0.0005 0.149201
-0.0254 -0.0005 0.149201 -0.0254 0.0005 0.15089 -0.0254 -0.0005 0.15089 -0.0254
0.0005 0.152591 -0.0254 -0.0005 0.152591 -0.0254 0.0005 0.154306 -0.0254 -0.0005
0.154306 -0.0254 0.0005 0.156034 -0.0254 -0.0005 0.156034 -0.0254 0.0005 0.157775
-0.0254 -0.0005 0.157775 -0.0254 0.0005 0.159531 -0.0254 -0.0005 0.159531 -0.0254
0.0005 0.161299 -0.0254 -0.0005 0.161299 -0.0254 0.0005 0.163082 -0.0254 -0.0005
0.163082 -0.0254 0.0005 0.164878 -0.0254 -0.0005 0.164878 -0.0254 0.0005 0.166688
-0.0254 -0.0005 0.166688 -0.0254 0.0005 0.168513 -0.0254 -0.0005 0.168513 -0.0254
0.0005 0.170351 -0.0254 -0.0005 0.170351 -0.0254 0.0005 0.172204 -0.0254 -0.0005
0.172204 -0.0254 0.0005 0.174071 -0.0254 -0.0005 0.174071 -0.0254 0.0005 0.175953
-0.0254 -0.0005 0.175953 -0.0254 0.0005 0.177849 -0.0254 -0.0005 0.177849 -0.0254
0.0005 0.17976 -0.0254 -0.0005 0.17976 -0.0254 0.0005 0.181686 -0.0254 -0.0005
0.181686 -0.0254 0.0005 0.183627 -0.0254 -0.0005 0.183627 -0.0254 0.0005 0.185583
-0.0254 -0.0005 0.185583 -0.0254 0.0005 0.187555 -0.0254 -0.0005 0.187555 -0.0254
0.0005 0.189541 -0.0254 -0.0005 0.189541 -0.0254 0.0005 0.191543 -0.0254 -0.0005
0.191543 -0.0254 0.0005 0.193561 -0.0254 -0.0005 0.193561 -0.0254 0.0005 0.195594
-0.0254 -0.0005 0.195594 -0.0254 0.0005 0.197643 -0.0254 -0.0005 0.197643 -0.0254
0.0005 0.199708 -0.0254 -0.0005 0.199708 -0.0254 0.0005 0.201789 -0.0254 -0.0005
0.201789 -0.0254 0.0005 0.203886 -0.0254 -0.0005 0.203886 -0.0254 0.0005 0.206
-0.0254 -0.0005 0.206 -0.0254 0.0005 0.208047 -0.0251856 -0.0005 0.208047 -0.0251856
0.0005 0.210173 -0.0249628 -0.0005 0.210173 -0.0249628 0.0005 0.212382 -0.0247314 -0.0005
0.212382 -0.0247314 0.0005 0.214677 -0.024491 -0.0005 0.214677 -0.024491 0.0005 0.217061
-0.0242412 -0.0005 0.217061 -0.0242412 0.0005 0.219538 -0.0239817 -0.0005 0.219538 -0.0239817
0.0005 0.222112 -0.0237121 -0.0005 0.222112 -0.0237121 0.0005 0.224785 -0.023432 -0.0005
0.224785 -0.023432 0.0005 0.227563 -0.023141 -0.0005 0.227563 -0.023141 0.0005 0.230449
-0.0228387 -0.0005 0.230449 -0.0228387 0.0005 0.233447 -0.0225246 -0.0005 0.233447 -0.0225246
0.0005 0.236562 -0.0221983 -0.0005 0.236562 -0.0221983 0.0005 0.239797 -0.0218593 -0.0005
0.239797 -0.0218593 0.0005 0.243159 -0.0215071 -0.0005 0.243159 -0.0215071 0.0005 0.246652
-0.0211412 -0.0005 0.246652 -0.0211412 0.0005 0.250281 -0.0207611 -0.0005 0.250281 -0.0207611
0.0005 0.254051 -0.0203661 -0.0005 0.254051 -0.0203661 0.0005 0.257967 -0.0199558 -0.0005
0.257967 -0.0199558 0.0005 0.262036 -0.0195295 -0.0005 0.262036 -0.0195295 0.0005 0.266264
-0.0190867 -0.0005 0.266264 -0.0190867 0.0005 0.270655 -0.0186266 -0.0005 0.270655 -0.0186266
0.0005 0.275218 -0.0181486 -0.0005 0.275218 -0.0181486 0.0005 0.279959 -0.017652 -0.0005
0.279959 -0.017652 0.0005 0.284883 -0.017136 -0.0005 0.284883 -0.017136 0.0005 0.29
-0.0166 -0.0005 0.29 -0.0166 0.0005 
POLYGONS 250 1250
4 0 1 2 3 4 1 4 5 2 4
4 6 7 5 4 6 8 9 7 4
8 10 11 9 4 10 12 13 11 4
12 14 15 13 4 14 16 17 15 4
16 18 19 17 4 18 20 21 19 4
20 22 23 21 4 22 24 25 23 4
24 26 27 25 4 26 28 29 27 4
28 30 31 29 4 30 32 33 31 4
32 34 35 33 4 34 36 37 35 4
38 39 40 41 4 41 40 42 43 4
43 42 44 45 4 45 44 46 47 4
47 46 48 49 4 49 48 50 51 4
51 50 52 53 4 53 52 54 55 4
55 54 56 57 4 57 56 58 59 4
59 58 60 61 4 61 60 62 63 4
63 62 64 65 4 65 64 66 67 4
67 66 68 69 4 69 68 70 71 4
71 70 72 73 4 73 72 74 75 4
75 74 76 77 4 77 76 78 79 4
79 78 80 81 4 81 80 82 83 4
83 82 84 85 4 85 84 86 87 4
87 86 88 89 4 89 88 90 91 4
91 90 37 36 4 38 92 93 39 4
92 94 95 93 4 94 96 97 95 4
96 98 99 97 4 98 100 101 99 4
100 102 103 101 4 102 104 105 103 4
104 106 107 105 4 106 108 109 107 4
108 110 111 109 4 110 112 113 111 4
112 114 115 113 4 114 116 117 115 4
116 118 119 117 4 118 120 121 119 4
120 122 123 121 4 122 124 125 123 4
124 126 127 125 4 126 128 129 127 4
128 130 131 129 4 130 132 133 131 4
132 134 135 133 4 134 136 137 135 4
136 138 139 137 4 138 140 141 139 4
140 142 143 141 4 142 144 145 143 4
144 146 147 145 4 146 148 149 147 4
148 150 151 149 4 150 152 153 151 4
152 154 155 153 4 154 156 157 155 4
156 158 159 157 4 158 160 161 159 4
160 162 163 161 4 162 164 165 163 4
164 166 167 165 4 166 168 169 167 4
168 170 171 169 4 170 172 173 171 4
172 174 175 173 4 174 176 177 175 4
176 178 179 177 4 178 180 181 179 4
180 182 183 181 4 182 184 185 183 4
184 186 187 185 4 186 188 189 187 4
188 190 191 189 4 190 192 193 191 4
192 194 195 193 4 194 196 197 195 4
196 198 199 197 4 198 200 201 199 4
200 202 203 201 4 202 204 205 203 4
204 206 207 205 4 206 208 209 207 4
208 210 211 209 4 210 212 213 211 4
212 214 215 213 4 214 216 217 215 4
216 218 219 217 4 218 220 221 219 4
220 222 223 221 4 222 224 225 223 4
224 226 227 225 4 226 228 229 227 4
228 230 231 229 4 230 232 233 231 4
232 234 235 233 4 234 236 237 235 4
236 238 239 237 4 238 240 241 239 4
240 242 243 241 4 242 244 245 243 4
244 246 247 245 4 246 248 249 247 4
248 250 251 249 4 250 252 253 251 4
252 254 255 253 4 254 256 257 255 4
256 258 259 257 4 258 260 261 259 4
260 262 263 261 4 262 264 265 263 4
264 266 267 265 4 266 268 269 267 4
268 270 271 269 4 270 272 273 271 4
272 274 275 273 4 274 276 277 275 4
276 278 279 277 4 278 280 281 279 4
280 282 283 281 4 282 284 285 283 4
284 286 287 285 4 286 288 289 287 4
288 290 291 289 4 290 292 293 291 4
292 294 295 293 4 294 296 297 295 4
296 298 299 297 4 298 300 301 299 4
300 302 303 301 4 302 304 305 303 4
304 306 307 305 4 306 308 309 307 4
308 310 311 309 4 310 312 313 311 4
312 314 315 313 4 314 316 317 315 4
316 318 319 317 4 318 320 321 319 4
320 322 323 321 4 322 324 325 323 4
324 326 327 325 4 326 328 329 327 4
328 330 331 329 4 330 332 333 331 4
332 334 335 333 4 334 336 337 335 4
336 338 339 337 4 338 340 341 339 4
340 342 343 341 4 342 344 345 343 4
344 346 347 345 4 346 348 349 347 4
348 350 351 349 4 350 352 353 351 4
352 354 355 353 4 354 356 357 355 4
356 358 359 357 4 358 360 361 359 4
360 362 363 361 4 362 364 365 363 4
364 366 367 365 4 366 368 369 367 4
368 370 371 369 4 370 372 373 371 4
372 374 375 373 4 374 376 377 375 4
376 378 379 377 4 378 380 381 379 4
380 382 383 381 4 382 384 385 383 4
384 386 387 385 4 386 388 389 387 4
388 390 391 389 4 390 392 393 391 4
392 394 395 393 4 394 396 397 395 4
396 398 399 397 4 398 400 401 399 4
400 402 403 401 4 402 404 405 403 4
404 406 407 405 4 406 408 409 407 4
408 410 411 409 4 410 412 413 411 4
412 414 415 413 4 414 416 417 415 4
416 418 419 417 4 418 420 421 419 4
420 422 423 421 4 422 424 425 423 4
424 426 427 425 4 426 428 429 427 4
428 430 431 429 4 430 432 433 431 4
432 434 435 433 4 434 436 437 435 4
436 438 439 437 4 438 440 441 439 4
440 442 443 441 4 442 444 445 443 4
444 446 447 445 4 446 448 449 447 4
448 450 451 449 4 450 452 453 451 4
452 454 455 453 4 454 456 457 455 4
456 458 459 457 4 458 460 461 459 4
460 462 463 461 4 462 464 465 463 4
464 466 467 465 4 466 468 469 467 4
468 470 471 469 4 470 472 473 471 4
472 474 475 473 4 474 476 477 475 4
476 478 479 477 4 478 480 481 479 4
480 482 483 481 4 482 484 485 483 4
484 486 487 485 4 486 488 489 487 4
488 490 491 489 4 490 492 493 491 4
492 494 495 493 4 494 496 497 495 4
496 498 499 497 4 498 500 501 499 
POINT_DATA 502
FIELD attributes 1
U 3 502 float
3.28182 -0.000184752 0.00951797 1.64758 0.000190247 0.00469046 1.64758 0.000190247 0.00469046 3.28182 -0.000184752
0.00951797 0.0589934 0.000458695 0 0.0589934 0.000458695 0 0.0575144 0.000373844 0
0.0575144 0.000373844 0 0.0557959 0.000421651 0 0.0557959 0.000421651 0 0.0536424
0.000481423 0 0.0536424 0.000481423 0 0.0511882 0.000497033 0 0.0511882 0.000497033
0 0.0488126 0.000466263 0 0.0488126 0.000466263 0 0.0468003 0.000413182 0
0.0468003 0.000413182 0 0.0451958 0.000388044 0 0.0451958 0.000388044 0 0.043711
0.000435939 0 0.043711 0.000435939 0 0.0420614 0.000544165 0 0.0420614 0.000544165
0 0.03998 0.000652496 0 0.03998 0.000652496 0 0.0376655 0.000699233 0
0.0376655 0.000699233 0 0.0351078 0.000682501 0 0.0351078 0.000682501 0 0.0327508
0.000629291 0 0.0327508 0.000629291 0 0.0302438 0.000650928 0 0.0302438 0.000650928
0 0.0278071 0.000686864 0 0.0278071 0.000686864 0 0.0113707 0.000763034 0
0.0113707 0.000763034 0 -2.15978e-05 0.000296346 1.42277e-22 -2.15978e-05 0.000296346 1.42277e-22 0.000180249
-0.000196217 -3.84678e-22 0.000180249 -0.000196217 -3.84678e-22 0.000459947 -0.00200215 -4.55719e-22 0.000459947 -0.00200215
-4.55719e-22 0.000806095 -0.00512419 9.08701e-22 0.000806095 -0.00512419 9.08701e-22 0.00102639 -0.00934866 3.0384e-22
0.00102639 -0.00934866 3.0384e-22 0.000647159 -0.0124744 -6.04764e-22 0.000647159 -0.0124744 -6.04764e-22 0.000183595
-0.0133598 0 0.000183595 -0.0133598 0 -5.10295e-05 -0.0134176 -1.21998e-21 -5.10295e-05 -0.0134176
-1.21998e-21 -0.000298998 -0.0124319 4.22978e-25 -0.000298998 -0.0124319 4.22978e-25 -0.000466515 -0.0105531 1.2204e-21
-0.000466515 -0.0105531 1.2204e-21 -0.000485957 -0.00843457 -1.24717e-21 -0.000485957 -0.00843457 -1.24717e-21 -0.000481042
-0.00616019 1.12089e-24 -0.000481042 -0.00616019 1.12089e-24 -0.000417723 -0.00395474 1.24829e-21 -0.000417723 -0.00395474
1.24829e-21 -0.000285066 -0.00212475 1.27218e-21 -0.000285066 -0.00212475 1.27218e-21 -0.000124075 -0.000809388 -6.27806e-25
-0.000124075 -0.000809388 -6.27806e-25 0.000146177 -0.000184237 -1.29537e-21 0.000146177 -0.000184237 -1.29537e-21 0.000316652
-0.000783066 0 0.000316652 -0.000783066 0 -0.00013875 -0.00206641 0 -0.00013875 -0.00206641
0 -0.000516714 -0.00239338 0 -0.000516714 -0.00239338 0 0.000139188 -0.00224242 0
0.000139188 -0.00224242 0 0.0010307 -0.00412696 0 0.0010307 -0.00412696 0 0.0011051
-0.00717323 0 0.0011051 -0.00717323 0 0.000352569 -0.00841878 0 0.000352569 -0.00841878
0 -0.000691655 -0.0077342 0 -0.000691655 -0.0077342 0 -0.00162725 -0.00589463 0
-0.00162725 -0.00589463 0 -0.00235005 -0.00301708 0 -0.00235005 -0.00301708 0 -0.00212679
-0.0002447 0 -0.00212679 -0.0002447 0 8.75429e-06 0.000204195 5.95177e-25 8.75429e-06 0.000204195
5.95177e-25 0.000120655 1.47412e-05 -7.07249e-23 0.000120655 1.47412e-05 -7.07249e-23 0.000300289 -0.000159555 0
0.000300289 -0.000159555 0 0.000492661 -0.00028899 0 0.000492661 -0.00028899 0 0.000663031
-0.00038683 6.8455e-23 0.000663031 -0.00038683 6.8455e-23 0.00080469 -0.000463736 6.8578e-23 0.00080469 -0.000463736
6.8578e-23 0.000956239 -0.000521947 0 0.000956239 -0.000521947 0 0.00115543 -0.000565124 0
0.00115543 -0.000565124 0 0.00141456 -0.000580926 0 0.00141456 -0.000580926 0 0.00172756
-0.000552917 -6.58036e-23 0.00172756 -0.000552917 -6.58036e-23 0.00205544 -0.000452849 -6.5929e-23 0.00205544 -0.000452849
-6.5929e-23 0.00233471 -0.000241725 0 0.00233471 -0.000241725 0 0.00245862 6.97245e-05 0
0.00245862 6.97245e-05 0 0.00235512 0.000429024 0 0.00235512 0.000429024 0 0.00199347
0.000780608 -6.35576e-23 0.00199347 0.000780608 -6.35576e-23 0.00135649 0.000869379 -6.36859e-23 0.00135649 0.000869379
-6.36859e-23 0.000653312 0.000529554 0 0.000653312 0.000529554 0 0.000150312 0.000119579 0
0.000150312 0.000119579 0 -8.9373e-05 -7.46706e-05 0 -8.9373e-05 -7.46706e-05 0 -0.000149125
-0.000146996 0 -0.000149125 -0.000146996 0 -0.000197589 -0.00018472 0 -0.000197589 -0.00018472
0 -0.000343483 -0.00016977 0 -0.000343483 -0.00016977 0 -0.000617481 -5.23002e-05 -6.00715e-23
-0.000617481 -5.23002e-05 -6.00715e-23 -0.00105735 0.000162678 -6.25463e-25 -0.00105735 0.000162678 -6.25463e-25 -0.00169838
0.000409461 6.44054e-25 -0.00169838 0.000409461 6.44054e-25 -0.00254653 0.000631935 -1.17732e-22 -0.00254653 0.000631935
-1.17732e-22 -0.00359281 0.000838818 -5.86643e-23 -0.00359281 0.000838818 -5.86643e-23 -0.0048345 0.00108057 0
-0.0048345 0.00108057 0 -0.00624226 0.00132677 5.67261e-23 -0.00624226 0.00132677 5.67261e-23 -0.00767199
0.00138834 1.12936e-22 -0.00767199 0.00138834 1.12936e-22 -0.00887282 0.00113073 5.62101e-23 -0.00887282 0.00113073
5.62101e-23 -0.00968693 0.000734625 0 -0.00968693 0.000734625 0 -0.0101949 0.000494358 5.42753e-23
-0.0101949 0.000494358 5.42753e-23 -0.0105795 0.000451037 5.4409e-23 -0.0105795 0.000451037 5.4409e-23 -0.0109221
0.000433627 0 -0.0109221 0.000433627 0 -0.0111868 0.00032009 -5.28419e-23 -0.0111868 0.00032009
-5.28419e-23 -0.0113032 0.000127013 -5.29762e-23 -0.0113032 0.000127013 -5.29762e-23 -0.0112255 -6.6371e-05 -5.21183e-23
-0.0112255 -6.6371e-05 -5.21183e-23 -0.0109637 -0.000214616 -1.55904e-22 -0.0109637 -0.000214616 -1.55904e-22 -0.0105414
-0.000325331 -1.03922e-22 -0.0105414 -0.000325331 -1.03922e-22 -0.0099678 -0.000416493 0 -0.0099678 -0.000416493
0 -0.00925643 -0.000497471 0 -0.00925643 -0.000497471 0 -0.00841981 -0.000573213 0
-0.00841981 -0.000573213 0 -0.00747337 -0.000641093 0 -0.00747337 -0.000641093 0 -0.00644153
-0.000688461 -1.0115e-22 -0.00644153 -0.000688461 -1.0115e-22 -0.00536036 -0.000696501 -2.0215e-22 -0.00536036 -0.000696501
-2.0215e-22 -0.00427581 -0.000649956 -2.01244e-22 -0.00427581 -0.000649956 -2.01244e-22 -0.00323613 -0.000549801 -1.00527e-22
-0.00323613 -0.000549801 -1.00527e-22 -0.0022791 -0.000417337 9.91374e-23 -0.0022791 -0.000417337 9.91374e-23 -0.00142381
-0.00027541 9.94246e-23 -0.00142381 -0.00027541 9.94246e-23 -0.0007117 -0.000120347 -9.783e-23 -0.0007117 -0.000120347
-9.783e-23 -0.000203726 2.88494e-05 -1.95216e-22 -0.000203726 2.88494e-05 -1.95216e-22 5.87496e-05 8.22553e-05 -9.73866e-23
5.87496e-05 8.22553e-05 -9.73866e-23 9.69625e-05 2.51796e-05 0 9.69625e-05 2.51796e-05 0 -6.02988e-05
-6.8909e-05 0 -6.02988e-05 -6.8909e-05 0 -0.000385717 -0.000118052 -9.37529e-23 -0.000385717 -0.000118052
-9.37529e-23 -0.000793923 -4.33773e-05 -9.40433e-23 -0.000793923 -4.33773e-05 -9.40433e-23 -0.0012172 0.000137609 0
-0.0012172 0.000137609 0 -0.00163007 0.000324078 0 -0.00163007 0.000324078 0 -0.00200112
0.000411508 0 -0.00200112 0.000411508 0 -0.00222167 0.000335165 0 -0.00222167 0.000335165
0 -0.00217285 0.000104528 0 -0.00217285 0.000104528 0 -0.00183521 -0.000196234 0
-0.00183521 -0.000196234 0 -0.00122879 -0.00047309 0 -0.00122879 -0.00047309 0 -0.000384673
-0.000673091 8.66837e-23 -0.000384673 -0.000673091 8.66837e-23 0.000616316 -0.000798309 8.6975e-23 0.000616316 -0.000798309
8.6975e-23 0.00166818 -0.000894965 0 0.00166818 -0.000894965 0 0.00270812 -0.000981019 -8.45078e-23
0.00270812 -0.000981019 -8.45078e-23 0.00372249 -0.000887346 -1.68531e-22 0.00372249 -0.000887346 -1.68531e-22 0.00465871
-0.000488986 -8.40226e-23 0.00465871 -0.000488986 -8.40226e-23 0.00523926 -0.000139044 8.22794e-23 0.00523926 -0.000139044
8.22794e-23 0.0049595 5.86047e-05 9.10933e-25 0.0049595 5.86047e-05 9.10933e-25 0.00390186 0.000390864 -8.1951e-23
0.00390186 0.000390864 -8.1951e-23 0.00306278 0.000459946 8.03951e-23 0.00306278 0.000459946 8.03951e-23 0.00295588
-1.46822e-05 8.06868e-23 0.00295588 -1.46822e-05 8.06868e-23 0.00321462 -0.000542962 0 0.00321462 -0.000542962
0 0.00349429 -0.00075226 -7.78477e-23 0.00349429 -0.00075226 -7.78477e-23 0.00363659 -0.00062473 -7.81372e-23
0.00363659 -0.00062473 -7.81372e-23 0.00357288 -0.000340308 7.60971e-23 0.00357288 -0.000340308 7.60971e-23 0.00332198
-9.61926e-05 7.63846e-23 0.00332198 -9.61926e-05 7.63846e-23 0.00294208 4.7584e-05 -7.4376e-23 0.00294208 4.7584e-05
-7.4376e-23 0.0024476 0.000134061 -1.48211e-22 0.0024476 0.000134061 -1.48211e-22 0.00179233 0.000218298 -1.46567e-22
0.00179233 0.000218298 -1.46567e-22 0.000914021 0.000341266 -2.16815e-22 0.000914021 0.000341266 -2.16815e-22 -0.00023255
0.000519642 -2.4161e-24 -0.00023255 0.000519642 -2.4161e-24 -0.00167388 0.000732053 1.42509e-22 -0.00167388 0.000732053
1.42509e-22 -0.00340309 0.000935568 0 -0.00340309 0.000935568 0 -0.00535997 0.00109106 0
-0.00535997 0.00109106 0 -0.00744869 0.00117907 1.32623e-22 -0.00744869 0.00117907 1.32623e-22 -0.009574
0.00120164 2.62994e-22 -0.009574 0.00120164 2.62994e-22 -0.0116623 0.0011732 3.46553e-24 -0.0116623 0.0011732
3.46553e-24 -0.0136634 0.00111062 -1.27424e-22 -0.0136634 0.00111062 -1.27424e-22 -0.0155469 0.0010289 1.20817e-22
-0.0155469 0.0010289 1.20817e-22 -0.0172985 0.000939811 2.39089e-22 -0.0172985 0.000939811 2.39089e-22 -0.0189134
0.00084971 2.33026e-22 -0.0189134 0.00084971 2.33026e-22 -0.0203894 0.000760213 1.15252e-22 -0.0203894 0.000760213
1.15252e-22 -0.0217223 0.000671011 0 -0.0217223 0.000671011 0 -0.0229058 0.000581228 0
-0.0229058 0.000581228 0 -0.0239311 0.000489608 1.04197e-22 -0.0239311 0.000489608 1.04197e-22 -0.024788
0.000394803 1.04653e-22 -0.024788 0.000394803 1.04653e-22 -0.0254629 0.000295567 0 -0.0254629 0.000295567
0 -0.0259376 0.000191454 -9.91713e-23 -0.0259376 0.000191454 -9.91713e-23 -0.0261909 8.36316e-05 -9.96142e-23
-0.0261909 8.36316e-05 -9.96142e-23 -0.0262046 -2.58481e-05 0 -0.0262046 -2.58481e-05 0 -0.0259809
-0.000135354 -9.78639e-23 -0.0259809 -0.000135354 -9.78639e-23 -0.0255154 -0.000243661 -9.83096e-23 -0.0255154 -0.000243661
-9.83096e-23 -0.024804 -0.000347655 0 -0.024804 -0.000347655 0 -0.0238595 -0.000443379 1.00205e-22
-0.0238595 -0.000443379 1.00205e-22 -0.0227001 -0.000527141 2.02172e-22 -0.0227001 -0.000527141 2.02172e-22 -0.0213551
-0.000595611 1.01976e-22 -0.0213551 -0.000595611 1.01976e-22 -0.0198593 -0.00064678 -1.04256e-22 -0.0198593 -0.00064678
-1.04256e-22 -0.0182521 -0.000680087 -1.04749e-22 -0.0182521 -0.000680087 -1.04749e-22 -0.0165723 -0.000697023 1.06583e-22
-0.0165723 -0.000697023 1.06583e-22 -0.0148529 -0.000700971 1.07093e-22 -0.0148529 -0.000700971 1.07093e-22 -0.0131167
-0.000697079 1.08034e-22 -0.0131167 -0.000697079 1.08034e-22 -0.0113753 -0.000690741 2.16969e-22 -0.0113753 -0.000690741
2.16969e-22 -0.00963019 -0.000686224 1.08939e-22 -0.00963019 -0.000686224 1.08939e-22 -0.00787498 -0.000685941 0
-0.00787498 -0.000685941 0 -0.00609888 -0.000689834 0 -0.00609888 -0.000689834 0 -0.00429246
-0.000694146 0 -0.00429246 -0.000694146 0 -0.00245392 -0.000693006 0 -0.00245392 -0.000693006
0 -0.000596172 -0.000687041 0 -0.000596172 -0.000687041 0 0.00125211 -0.000673356 0
0.00125211 -0.000673356 0 0.00306058 -0.000644843 1.04036e-22 0.00306058 -0.000644843 1.04036e-22 0.00479549
-0.000601293 2.16511e-24 0.00479549 -0.000601293 2.16511e-24 0.00641738 -0.000544505 -1.02925e-22 0.00641738 -0.000544505
-1.02925e-22 0.0078922 -0.000477417 0 0.0078922 -0.000477417 0 0.00919272 -0.000403362 0
0.00919272 -0.000403362 0 0.0102993 -0.0003257 0 0.0102993 -0.0003257 0 0.0112003
-0.000247691 -1.84507e-22 0.0112003 -0.000247691 -1.84507e-22 0.0118926 -0.000172464 -1.85477e-22 0.0118926 -0.000172464
-1.85477e-22 0.0123818 -0.000102838 1.76021e-22 0.0123818 -0.000102838 1.76021e-22 0.0126815 -4.1115e-05 4.99959e-24
0.0126815 -4.1115e-05 4.99959e-24 0.0128122 1.08666e-05 -1.72872e-22 0.0128122 1.08666e-05 -1.72872e-22 0.0127987
5.22005e-05 0 0.0127987 5.22005e-05 0 0.0126726 8.26426e-05 0 0.0126726 8.26426e-05
0 0.0124688 0.000100898 1.57493e-22 0.0124688 0.000100898 1.57493e-22 0.012221 0.00010887 3.12751e-22
0.012221 0.00010887 3.12751e-22 0.0119522 0.000112743 1.55245e-22 0.0119522 0.000112743 1.55245e-22 0.0116752
0.000113001 1.48889e-22 0.0116752 0.000113001 1.48889e-22 0.0114006 0.000109069 2.9617e-22 0.0114006 0.000109069
2.9617e-22 0.0111294 0.000111768 3.0337e-24 0.0111294 0.000111768 3.0337e-24 0.0108459 0.000134039 -1.45039e-22
0.0108459 0.000134039 -1.45039e-22 0.0105204 0.000175378 0 0.0105204 0.000175378 0 0.0101216
0.000221032 -1.3854e-22 0.0101216 0.000221032 -1.3854e-22 0.00963364 0.000252201 -1.3932e-22 0.00963364 0.000252201
-1.3932e-22 0.00906917 0.000257151 0 0.00906917 0.000257151 0 0.00846761 0.000236104 0
0.00846761 0.000236104 0 0.00787755 0.000198138 0 0.00787755 0.000198138 0 0.00733561
0.000154083 1.30467e-22 0.00733561 0.000154083 1.30467e-22 0.00685848 0.000113611 2.60085e-22 0.00685848 0.000113611
2.60085e-22 0.00644194 8.58643e-05 1.29612e-22 0.00644194 8.58643e-05 1.29612e-22 0.00606308 7.49806e-05 1.25564e-22
0.00606308 7.49806e-05 1.25564e-22 0.00569684 7.35507e-05 1.26295e-22 0.00569684 7.35507e-05 1.26295e-22 0.00533625
7.05566e-05 0 0.00533625 7.05566e-05 0 0.00499034 6.71484e-05 1.20318e-22 0.00499034 6.71484e-05
1.20318e-22 0.00467035 6.9197e-05 1.21026e-22 0.00467035 6.9197e-05 1.21026e-22 0.0043954 6.74816e-05 1.16846e-22
0.0043954 6.74816e-05 1.16846e-22 0.00420391 5.26615e-05 1.17539e-22 0.00420391 5.26615e-05 1.17539e-22 0.00412122
5.07191e-05 0 0.00412122 5.07191e-05 0 0.00409043 0.000103934 1.12057e-22 0.00409043 0.000103934
1.12057e-22 0.00397305 0.000195313 1.12729e-22 0.00397305 0.000195313 1.12729e-22 0.00368357 0.000240968 1.08937e-22