/*--------------------------------*- C++ -*----------------------------------*\
  =========                 |
  \\      /  F ield         | OpenFOAM: The Open Source CFD Toolbox
   \\    /   O peration     | Website:  https://openfoam.org
    \\  /    A nd           | Version:  9
     \\/     M anipulation  |
\*---------------------------------------------------------------------------*/
FoamFile
{
    format      ascii;
    class       volScalarField;
    location    "0.078";
    object      k_0;
}
// * * * * * * * * * * * * * * * * * * * * * * * * * * * * * * * * * * * * * //

dimensions      [0 2 -2 0 0 0 0];

internalField   nonuniform List<scalar> 
12225
(
0.000114357
0.000108048
7.75233e-05
9.30786e-05
0.000159533
0.00018889
0.000188268
0.000158974
0.000117524
0.000106749
0.000109053
0.00012458
0.000135238
0.000136672
0.000133138
0.000115071
6.78198e-05
0.000103591
2.2091e-05
2.39341e-05
2.48564e-05
2.92816e-05
4.34204e-05
5.4739e-05
5.92661e-05
5.9144e-05
5.55199e-05
5.26888e-05
5.25823e-05
5.49067e-05
6.47043e-05
7.60216e-05
8.20279e-05
8.27866e-05
8.089e-05
7.63424e-05
2.00474e-05
1.91484e-05
1.86864e-05
1.84818e-05
1.79094e-05
1.67175e-05
1.6136e-05
1.60689e-05
1.60809e-05
1.6244e-05
1.70349e-05
1.97416e-05
2.37193e-05
2.68094e-05
2.82899e-05
3.00503e-05
3.49439e-05
3.53109e-05
2.07501e-05
2.08599e-05
2.04708e-05
2.01963e-05
2.00117e-05
1.96219e-05
1.84563e-05
1.72475e-05
1.65167e-05
1.61373e-05
1.61071e-05
1.62678e-05
1.67593e-05
1.71391e-05
1.77411e-05
1.848e-05
1.95559e-05
2.01006e-05
2.49197e-05
2.48985e-05
2.23603e-05
2.21649e-05
2.28402e-05
2.30323e-05
2.30355e-05
2.32189e-05
2.34919e-05
2.35025e-05
2.33878e-05
2.3208e-05
2.29318e-05
2.22055e-05
2.13096e-05
2.07858e-05
2.06339e-05
2.05006e-05
2.92128e-05
2.7547e-05
2.29409e-05
2.2269e-05
2.21054e-05
2.16621e-05
2.13526e-05
2.13202e-05
2.14563e-05
2.17816e-05
2.21342e-05
2.37565e-05
2.66613e-05
2.64359e-05
2.35085e-05
2.17652e-05
2.13496e-05
2.12713e-05
2.21823e-05
2.21461e-05
2.22832e-05
2.28404e-05
2.30245e-05
2.26982e-05
2.18397e-05
2.17839e-05
2.22308e-05
2.29819e-05
2.33188e-05
2.36969e-05
2.39599e-05
2.39178e-05
2.33386e-05
2.29952e-05
2.30453e-05
2.35971e-05
2.05479e-05
2.01847e-05
2.0394e-05
2.14958e-05
2.60139e-05
2.87933e-05
2.98588e-05
3.25153e-05
3.45375e-05
3.51902e-05
3.50144e-05
3.32599e-05
2.85203e-05
2.50579e-05
2.32644e-05
2.25149e-05
2.23532e-05
2.24647e-05
2.06602e-05
2.00963e-05
2.0269e-05
2.11416e-05
2.36833e-05
2.63353e-05
2.7401e-05
2.72943e-05
2.7157e-05
2.79633e-05
3.19048e-05
3.43986e-05
3.42048e-05
3.12812e-05
2.64297e-05
2.4129e-05
2.29146e-05
2.23124e-05
2.07049e-05
2.09186e-05
2.07036e-05
2.06766e-05
2.12487e-05
2.48822e-05
2.70911e-05
2.70141e-05
2.60199e-05
2.49087e-05
2.47224e-05
2.48297e-05
2.53043e-05
2.53717e-05
2.51592e-05
2.4248e-05
2.2764e-05
2.18888e-05
2.08486e-05
2.43796e-05
2.51756e-05
2.29767e-05
2.17451e-05
2.17842e-05
2.22829e-05
2.25904e-05
2.25441e-05
2.20656e-05
2.15787e-05
2.13999e-05
2.13765e-05
2.14265e-05
2.17411e-05
2.19096e-05
2.1905e-05
2.18302e-05
2.2064e-05
2.31135e-05
2.3219e-05
2.22618e-05
2.19891e-05
2.28432e-05
2.95412e-05
3.97632e-05
4.07481e-05
3.68005e-05
2.91985e-05
2.49164e-05
2.28502e-05
2.19886e-05
2.16964e-05
2.16328e-05
2.16492e-05
2.17203e-05
2.09181e-05
2.19437e-05
2.29583e-05
2.33715e-05
2.3367e-05
2.33895e-05
2.3799e-05
2.60901e-05
3.22687e-05
3.42944e-05
3.36757e-05
3.03813e-05
2.66457e-05
2.45415e-05
2.34969e-05
2.30557e-05
2.27927e-05
2.257e-05
2.10045e-05
2.19645e-05
2.26581e-05
2.27387e-05
2.23404e-05
2.15967e-05
2.14749e-05
2.16533e-05
2.25868e-05
2.4512e-05
2.6169e-05
2.74161e-05
2.78245e-05
2.73837e-05
2.49487e-05
2.3014e-05
2.20971e-05
2.17595e-05
2.15718e-05
2.1244e-05
2.09437e-05
2.06673e-05
2.05456e-05
2.04848e-05
2.04764e-05
2.05054e-05
2.06903e-05
2.14688e-05
2.43784e-05
2.74382e-05
2.87278e-05
2.86648e-05
2.68241e-05
2.40456e-05
2.25022e-05
2.17426e-05
2.21428e-05
2.31433e-05
2.29872e-05
2.24317e-05
2.2016e-05
2.1716e-05
2.12152e-05
2.09199e-05
2.0861e-05
2.08819e-05
2.11167e-05
2.15461e-05
2.17487e-05
2.17812e-05
2.17216e-05
2.15507e-05
2.1465e-05
2.14489e-05
2.05293e-05
2.07252e-05
2.10196e-05
2.12727e-05
2.13939e-05
2.14511e-05
2.1445e-05
2.13528e-05
2.11767e-05
2.10937e-05
2.10771e-05
2.10862e-05
2.1155e-05
2.12503e-05
2.12865e-05
2.12895e-05
2.12734e-05
2.11667e-05
2.01565e-05
2.1864e-05
2.36629e-05
2.35528e-05
2.18563e-05
2.10265e-05
2.0867e-05
2.08704e-05
2.09065e-05
2.09216e-05
2.09338e-05
2.09644e-05
2.11002e-05
2.15837e-05
2.19097e-05
2.19582e-05
2.19253e-05
2.18772e-05
2.05467e-05
2.13795e-05
2.18043e-05
2.16538e-05
2.10285e-05
2.14139e-05
2.19158e-05
2.16875e-05
2.16971e-05
2.20714e-05
2.35312e-05
2.44894e-05
2.44618e-05
2.3565e-05
2.23174e-05
2.16491e-05
2.12787e-05
2.10755e-05
2.10195e-05
2.1076e-05
2.1575e-05
2.26616e-05
2.52534e-05
2.53435e-05
2.41702e-05
2.25909e-05
2.24378e-05
2.33966e-05
2.47082e-05
2.47092e-05
2.37127e-05
2.21837e-05
2.13994e-05
2.10507e-05
2.09375e-05
2.09263e-05
2.11425e-05
2.13036e-05
2.31785e-05
2.52616e-05
2.48712e-05
2.29946e-05
2.18584e-05
2.17195e-05
2.21605e-05
2.48065e-05
2.69919e-05
2.71836e-05
2.64035e-05
2.43066e-05
2.3e-05
2.23614e-05
2.2122e-05
2.20814e-05
2.10911e-05
2.14624e-05
2.18519e-05
2.21003e-05
2.21928e-05
2.22617e-05
2.24299e-05
2.3162e-05
2.42741e-05
2.45239e-05
2.4343e-05
2.37937e-05
2.28469e-05
2.19375e-05
2.1395e-05
2.11327e-05
2.10461e-05
2.1043e-05
2.05364e-05
2.11377e-05
2.16034e-05
2.16476e-05
2.13865e-05
2.08755e-05
2.07633e-05
2.08569e-05
2.16253e-05
2.36294e-05
2.45358e-05
2.45806e-05
2.41537e-05
2.29481e-05
2.2116e-05
2.17083e-05
2.158e-05
2.15741e-05
2.10147e-05
2.16901e-05
2.17716e-05
2.14547e-05
2.11332e-05
2.1187e-05
2.17511e-05
2.35396e-05
2.56212e-05
2.67993e-05
2.68521e-05
2.6059e-05
2.37968e-05
2.23556e-05
2.17538e-05
2.16289e-05
2.16963e-05
2.22253e-05
2.03299e-05
2.08769e-05
2.09267e-05
2.08733e-05
2.08715e-05
2.10797e-05
2.2215e-05
2.68364e-05
4.47184e-05
6.21312e-05
6.62721e-05
6.47561e-05
5.32257e-05
3.79267e-05
2.98908e-05
2.59256e-05
2.4145e-05
2.35443e-05
2.08949e-05
2.08668e-05
2.06399e-05
2.04479e-05
2.04547e-05
2.07329e-05
2.21102e-05
2.8011e-05
4.04368e-05
4.65534e-05
4.7079e-05
4.39106e-05
3.34153e-05
2.67793e-05
2.37321e-05
2.24334e-05
2.1943e-05
2.18146e-05
2.01323e-05
2.00853e-05
2.00556e-05
1.99401e-05
1.97579e-05
1.96767e-05
1.9695e-05
1.9925e-05
2.02496e-05
2.03467e-05
2.03357e-05
2.01979e-05
1.99845e-05
1.98583e-05
1.97758e-05
1.97228e-05
1.96914e-05
1.96669e-05
2.00173e-05
1.73349e-05
1.75263e-05
1.74121e-05
1.6339e-05
1.45862e-05
1.33316e-05
1.2741e-05
1.26039e-05
1.26243e-05
1.27852e-05
1.32979e-05
1.45163e-05
1.56743e-05
1.65009e-05
1.69379e-05
1.70584e-05
1.70302e-05
2.04898e-05
2.10679e-05
2.32057e-05
2.5054e-05
2.59763e-05
2.61913e-05
2.6056e-05
2.58442e-05
2.59016e-05
2.65452e-05
2.96069e-05
3.47904e-05
3.84889e-05
4.07959e-05
4.17549e-05
4.17879e-05
4.12006e-05
3.87569e-05
0.000130271
6.18072e-05
7.02625e-05
8.67941e-05
8.98353e-05
8.74806e-05
7.41568e-05
6.36507e-05
6.17968e-05
6.38766e-05
7.74155e-05
9.49104e-05
0.00010244
0.000103835
0.00010264
9.42306e-05
7.09689e-05
5.2715e-05
0.087978
0.0766842
0.0705197
0.0674321
0.0671849
0.0710386
0.0726651
0.0746935
0.0788663
0.0835379
0.0827405
0.0781568
0.0719706
0.0679539
0.065251
0.063524
0.0623596
0.0614354
0.0605918
0.0597424
0.058774
0.0579222
0.057554
0.057537
0.0577064
0.0580078
0.0584185
0.0587766
0.0590701
0.0593406
0.0595646
0.0597813
0.0599434
0.0601461
0.0603361
0.0604831
0.0606311
0.0607312
0.0608525
0.0611488
0.0636443
0.0806575
0.149036
0.205688
0.190518
0.115426
0.10198
0.100025
0.0989716
0.0912255
0.0851849
0.0847382
0.0846424
0.0836955
0.0827259
0.0822936
0.0815824
0.0812267
0.0808893
0.080521
0.08019
0.0806842
0.0818462
0.0808276
0.0805491
0.0814239
0.0845303
0.0929707
0.106321
0.134836
0.229832
0.630787
0.93919
0.984738
0.91125
0.484205
0.133406
0.0578517
0.0425144
0.0371494
0.0338995
0.0311835
0.029056
0.0275409
0.026525
0.026078
0.0257524
0.0255118
0.0253776
0.0250065
0.0246501
0.024022
0.0235041
0.0226942
0.0220333
0.0212325
0.0205658
0.0198771
0.0193361
0.0188538
0.0185301
0.0183755
0.018357
0.0183239
0.0183182
0.0182982
0.018287
0.0182823
0.0182861
0.0183059
0.0183401
0.0184019
0.0185006
0.0186373
0.0187932
0.0189633
0.0191383
0.0193189
0.0195499
0.019749
0.019943
0.0201222
0.0202994
0.0204569
0.0205708
0.0206095
0.0205424
0.0203941
0.0201864
0.0199166
0.0195585
0.0190828
0.0184937
0.0178106
0.0169966
0.0159149
0.0144215
0.0125688
0.0107325
0.00932805
0.00853888
0.00826966
0.00824477
0.00827241
0.00837003
0.00852339
0.00860265
0.00859543
0.00847466
0.00836807
0.00832256
0.00830649
0.0082884
0.00824433
0.00816856
0.00805907
0.00792436
0.00778564
0.00767059
0.00760956
0.00761245
0.00768329
0.00781368
0.00787691
0.00789868
0.00783019
0.00744757
0.00707132
0.00695379
0.00693209
0.0070024
0.00718317
0.00714568
0.00713961
0.00731415
0.00732289
0.00710853
0.00704827
0.00739938
0.00745692
0.0901368
0.0785492
0.0811667
0.0865794
0.0938341
0.0963036
0.0960768
0.093336
0.0936256
0.09894
0.098503
0.0940665
0.0824125
0.0693243
0.0605505
0.0555555
0.0528078
0.0510608
0.0499821
0.0494814
0.0492521
0.0493965
0.0504108
0.0521945
0.0544941
0.0570024
0.0591997
0.0612643
0.0633337
0.065235
0.0666701
0.0673533
0.0676427
0.0676831
0.0670937
0.0657551
0.0642816
0.0616508
0.0590115
0.0563517
0.0552365
0.056535
0.0661666
0.0923501
0.124659
0.124033
0.113727
0.102977
0.0971716
0.0967184
0.101293
0.0978434
0.0936542
0.0892831
0.0860143
0.0838949
0.0822878
0.0810726
0.0800323
0.0786669
0.0772169
0.0761661
0.0747838
0.0747457
0.0757375
0.0786936
0.0855589
0.105083
0.114956
0.125544
0.153968
0.261793
0.695516
0.915525
0.565302
0.173991
0.0666653
0.0396969
0.0299591
0.0246071
0.0212044
0.0186812
0.017407
0.0163451
0.0158106
0.0155013
0.0152713
0.0151194
0.0150336
0.0149027
0.0148053
0.014616
0.0144606
0.0142229
0.0140516
0.0138245
0.0136415
0.0134315
0.0132728
0.0130916
0.0129368
0.0128023
0.0126866
0.0125972
0.0125134
0.012454
0.0124038
0.01236
0.0123222
0.0123038
0.0122907
0.0122764
0.0122704
0.0122671
0.0122591
0.0122526
0.0122416
0.0122334
0.012229
0.0122415
0.012275
0.0123321
0.0124637
0.0126575
0.0129296
0.0133194
0.0138499
0.0144608
0.0150786
0.015674
0.0162446
0.0167682
0.0172126
0.0175629
0.0178659
0.0182303
0.0187241
0.0192303
0.0194854
0.0194139
0.0184276
0.0157641
0.0135162
0.0119345
0.0109319
0.0102979
0.00982309
0.00940074
0.00897839
0.00853293
0.00808573
0.00768203
0.0073416
0.00706159
0.00682146
0.00659542
0.00636814
0.00613515
0.00589297
0.00564158
0.00540101
0.00521193
0.00511994
0.00512006
0.00523335
0.00542107
0.00551611
0.00565989
0.00606237
0.00700116
0.00826637
0.0094316
0.00995758
0.0100131
0.00986943
0.00961877
0.00934915
0.00863866
0.0080188
0.00771244
0.094514
0.0820183
0.0845742
0.0918854
0.103047
0.104141
0.103367
0.0982635
0.0941687
0.0952298
0.097787
0.0968903
0.0914414
0.0783546
0.0674954
0.0607477
0.0573083
0.0563425
0.0580181
0.0619275
0.0670098
0.0725808
0.0785344
0.0847614
0.0909298
0.0966988
0.101909
0.10632
0.109483
0.111403
0.112413
0.112844
0.112906
0.111881
0.110141
0.107881
0.105225
0.10121
0.0962913
0.0890082
0.0811718
0.0745936
0.0675522
0.0654427
0.0675897
0.0698904
0.0750927
0.0759732
0.0778571
0.0783818
0.0789149
0.0789037
0.0787699
0.0784254
0.0777167
0.0768498
0.0758585
0.0751149
0.0746662
0.0737493
0.07219
0.0712961
0.0714207
0.0724779
0.0766073
0.0873146
0.110815
0.159788
0.196806
0.216098
0.276616
0.520604
0.700372
0.430617
0.136831
0.0517769
0.0287037
0.0206603
0.016798
0.0147638
0.013579
0.0128952
0.0125637
0.0124003
0.0123347
0.0123085
0.0122926
0.0122483
0.0121606
0.0120372
0.0118781
0.0116665
0.0114167
0.0111304
0.0108085
0.0104759
0.0101481
0.00980743
0.00949078
0.00918643
0.00894394
0.00877829
0.00870809
0.00877069
0.00897548
0.00926861
0.00957428
0.00983796
0.0100326
0.010202
0.0103734
0.0105148
0.0106726
0.0108281
0.0109746
0.0111086
0.011204
0.0112588
0.0112856
0.0113015
0.0113026
0.0112821
0.0111902
0.0110222
0.010783
0.0104972
0.0102792
0.0101098
0.00995396
0.00976471
0.00948316
0.0091019
0.00862439
0.00806879
0.00748067
0.006959
0.00664248
0.00659379
0.00684872
0.00826976
0.0114605
0.0136055
0.0144319
0.0144991
0.0141512
0.0126593
0.0112774
0.010527
0.0101233
0.00983974
0.00955703
0.00923361
0.0088611
0.00844823
0.0080112
0.00755574
0.00707606
0.00659534
0.00616925
0.00582868
0.00552343
0.00513291
0.00457131
0.00396573
0.00362143
0.00357631
0.00367454
0.00428346
0.0064801
0.00933779
0.011195
0.0119634
0.0120025
0.0115633
0.00994594
0.00849121
0.00807464
0.00800624
0.00784098
0.00766371
0.117752
0.104509
0.10336
0.0990931
0.0979099
0.0984281
0.0975584
0.0948048
0.0940719
0.097003
0.107096
0.108589
0.105376
0.0960117
0.0865267
0.0801994
0.0761511
0.0757487
0.0806946
0.0893233
0.099432
0.109246
0.117414
0.122167
0.124147
0.125077
0.125492
0.125594
0.125196
0.124102
0.12304
0.121773
0.120237
0.118496
0.116782
0.115077
0.113323
0.111368
0.108773
0.10569
0.10228
0.0984143
0.0941882
0.091537
0.0885709
0.0862085
0.0836671
0.0816264
0.0802696
0.0791888
0.0784917
0.0782567
0.0781008
0.0777726
0.0769614
0.0756109
0.0743074
0.0734636
0.0725324
0.0710829
0.0693172
0.0690682
0.0703934
0.0792845
0.113925
0.167512
0.209415
0.255033
0.305757
0.373678
0.448556
0.509987
0.316058
0.117264
0.0436021
0.0236301
0.0176066
0.0153028
0.014328
0.0139203
0.0137183
0.013639
0.0136454
0.0135079
0.0130241
0.0127535
0.0126182
0.0123577
0.0120099
0.0117392
0.011372
0.0109287
0.010482
0.00992291
0.00938121
0.0087788
0.00812377
0.00757168
0.00701688
0.00653121
0.00602049
0.00571838
0.00543165
0.00516954
0.00497704
0.00483196
0.00476446
0.00473706
0.00475676
0.00484067
0.00504871
0.00530948
0.00569688
0.00618445
0.00675289
0.00741811
0.00812342
0.00879118
0.00940401
0.0100041
0.0105082
0.0109721
0.011331
0.0115395
0.0115863
0.0114833
0.0110828
0.0105387
0.0100955
0.0098223
0.00962771
0.00942608
0.0091213
0.00864346
0.00799587
0.00726661
0.00658166
0.00604702
0.00578079
0.00578878
0.00628953
0.00881638
0.012983
0.0155019
0.0164506
0.0165105
0.0160509
0.0142337
0.0124735
0.0114627
0.0108791
0.0104721
0.0101167
0.00976015
0.00936838
0.00890907
0.00835869
0.00773983
0.00714077
0.00667249
0.00638261
0.00622482
0.00609396
0.00592025
0.00574381
0.00570101
0.00598734
0.00790947
0.0113233
0.013124
0.0137012
0.013744
0.0135505
0.0126116
0.00982752
0.00697312
0.00556911
0.00523969
0.00557641
0.00719022
0.104921
0.121929
0.120331
0.114533
0.105442
0.100453
0.0935261
0.0935069
0.094253
0.100883
0.111893
0.109627
0.102669
0.0966982
0.0940316
0.0976156
0.108864
0.114555
0.118239
0.121875
0.123652
0.124412
0.124552
0.123549
0.122641
0.121101
0.118059
0.114897
0.111071
0.106768
0.10263
0.0986533
0.0951776
0.0924593
0.0903623
0.0887459
0.0877059
0.0873107
0.0872295
0.0874332
0.0881139
0.0891973
0.0905277
0.0911393
0.0913775
0.0912308
0.0906214
0.0896522
0.0886377
0.0872202
0.0858725
0.0848234
0.0838926
0.0826236
0.0803216
0.0773388
0.0744048
0.0727411
0.071145
0.0699429
0.0680052
0.0682848
0.0759189
0.128353
0.20027
0.214844
0.22861
0.283637
0.334373
0.366958
0.369426
0.227773
0.0910335
0.039193
0.0214878
0.0165804
0.0150657
0.014569
0.0144088
0.0143855
0.0145088
0.0145126
0.0140266
0.012751
0.0110785
0.00974129
0.00892069
0.00846664
0.00807804
0.00747107
0.0066851
0.00590966
0.00510887
0.00427049
0.0036379
0.00302198
0.00240381
0.00202421
0.00173448
0.0015144
0.00131636
0.00121605
0.00113693
0.00109802
0.00106265
0.00103959
0.00102866
0.00102358
0.0010197
0.00101275
0.00103348
0.0010707
0.00112483
0.00122307
0.00136806
0.00158383
0.00189242
0.00230367
0.00283407
0.00365325
0.00483731
0.00632011
0.00806451
0.00977779
0.0109593
0.0116645
0.0118932
0.0118183
0.0113034
0.0104653
0.00989281
0.00963151
0.00950598
0.00938966
0.00915839
0.00861641
0.00771916
0.00666085
0.00561172
0.00480934
0.00444901
0.00444485
0.00485847
0.00720906
0.0114714
0.013774
0.0144579
0.0144517
0.0141881
0.0131343
0.0118991
0.0110796
0.0105419
0.0101126
0.00966238
0.00914627
0.00857047
0.00794236
0.00729356
0.00672856
0.00632888
0.00609892
0.00600729
0.00599864
0.0060403
0.00630647
0.00750935
0.0104629
0.0125645
0.013407
0.0135204
0.0134238
0.0129945
0.0114766
0.00775105
0.00497983
0.00357811
0.00304988
0.00295027
0.0034067
0.0734166
0.0877826
0.0936269
0.0888952
0.0873096
0.0888254
0.0904107
0.0971217
0.102136
0.107516
0.111455
0.110308
0.108354
0.109659
0.11635
0.120198
0.121787
0.122219
0.122208
0.121403
0.120083
0.116516
0.111454
0.104284
0.0956673
0.0863008
0.0780791
0.0705181
0.0648187
0.059292
0.0559238
0.0525527
0.0505831
0.0492429
0.0486113
0.0484182
0.0487659
0.0495566
0.0508907
0.0523887
0.0542556
0.0561016
0.0582791
0.0608361
0.0633668
0.0660089
0.068322
0.070498
0.0722926
0.0740096
0.0754412
0.0764824
0.0771899
0.0771967
0.0771222
0.0747226
0.0687704
0.064735
0.063047
0.062875
0.0633592
0.0675826
0.103162
0.18366
0.175501
0.155577
0.195593
0.244325
0.263589
0.230123
0.142271
0.0691224
0.0337648
0.0205183
0.0163542
0.0152593
0.0149739
0.0148718
0.015287
0.0159938
0.0162545
0.0161809
0.0150022
0.0123932
0.00946731
0.00754203
0.00612805
0.00434943
0.00360114
0.00321833
0.00274902
0.00227661
0.0018868
0.00147695
0.00130107
0.00112684
0.000960464
0.000888518
0.000843545
0.000804254
0.000785477
0.000780882
0.00078965
0.000814024
0.000822474
0.000823871
0.000829183
0.00083697
0.00082254
0.00077411
0.000753066
0.000726971
0.000680523
0.00065407
0.000631656
0.000619141
0.000615661
0.00062439
0.000664435
0.000757525
0.000939715
0.00129041
0.00197007
0.00338108
0.00592208
0.00886988
0.0108721
0.0117931
0.0119593
0.0117318
0.0108396
0.00988273
0.00946474
0.00933459
0.00927878
0.00914747
0.00872676
0.00770741
0.00655633
0.00535464
0.00428792
0.00364127
0.00347203
0.00356234
0.00435376
0.00749783
0.0104797
0.011751
0.0120822
0.0120126
0.0115025
0.010753
0.0101876
0.00968804
0.00925664
0.00897796
0.00884239
0.00868432
0.00829032
0.00759266
0.00700577
0.00657969
0.00626877
0.00613589
0.0061391
0.00634376
0.00749576
0.0103164
0.0118892
0.0122293
0.0121768
0.0119226
0.0113189
0.00966875
0.00638902
0.00428672
0.00336452
0.00307749
0.002896
0.00280427
0.0674714
0.068283
0.0736266
0.0786048
0.08551
0.0959291
0.098397
0.102233
0.107442
0.113885
0.116091
0.116818
0.117564
0.118797
0.119622
0.119766
0.118588
0.115117
0.109656
0.100908
0.0882996
0.0770272
0.0646394
0.0554128
0.0467582
0.0415083
0.0350827
0.0318635
0.0274831
0.0253565
0.0227799
0.0215523
0.0205873
0.0201396
0.0199757
0.0203864
0.0212414
0.0223772
0.0240606
0.0259424
0.0282104
0.0307212
0.0335602
0.0368633
0.0405407
0.0445425
0.0486554
0.0524729
0.055854
0.0588217
0.0619299
0.0653632
0.0690716
0.0729215
0.0757333
0.0752994
0.0686339
0.0635235
0.0614928
0.0612148
0.0627704
0.0819413
0.1594
0.17756
0.119405
0.116379
0.132987
0.143706
0.131257
0.0929436
0.0517772
0.029685
0.0200066
0.0165626
0.0155601
0.0153122
0.0153801
0.0160653
0.0177164
0.0194098
0.0198796
0.0198888
0.0182926
0.0141591
0.0099204
0.00698169
0.00405506
0.00278837
0.00220128
0.00188778
0.00159982
0.00132731
0.00120243
0.00111761
0.00107483
0.00103325
0.00101631
0.00103382
0.00113329
0.0012382
0.00133938
0.00147449
0.00167687
0.001879
0.00198755
0.00205994
0.00212716
0.0021895
0.00216639
0.00195488
0.00184006
0.00167728
0.0014082
0.00119387
0.000979982
0.000794169
0.000654318
0.000557017
0.000495742
0.000464766
0.000455031
0.000470777
0.000544802
0.000742138
0.00125459
0.00267223
0.00605313
0.00944621
0.0112137
0.0117401
0.0116415
0.0109014
0.00980614
0.00926471
0.00908978
0.00902964
0.00889287
0.00836029
0.00693867
0.00561633
0.0044613
0.00347584
0.00284353
0.00262898
0.00264916
0.00301114
0.00478625
0.0074399
0.00868617
0.00897216
0.00893884
0.00863275
0.00809705
0.00776064
0.00761667
0.00759323
0.00763973
0.00784841
0.00799205
0.00802876
0.00802105
0.00793129
0.00757102
0.00705226
0.00679407
0.00681035
0.00735643
0.00919886
0.0101068
0.0101822
0.0100673
0.00972478
0.00896936
0.00694055
0.0045698
0.0036046
0.00368559
0.00452282
0.00494519
0.00437458
0.0772338
0.0822698
0.0920037
0.0951104
0.0961637
0.0981419
0.10321
0.110405
0.114349
0.116123
0.11665
0.11674
0.116543
0.115652
0.112678
0.106447
0.095728
0.0810622
0.0674863
0.0548991
0.0454178
0.0362508
0.0296817
0.0235893
0.0201393
0.0160859
0.0141213
0.0120223
0.0109684
0.00987432
0.00938551
0.00892614
0.00837294
0.00798166
0.0076122
0.00741787
0.00732249
0.00743841
0.00791584
0.00874849
0.00999526
0.0118031
0.0141825
0.01704
0.0205578
0.024755
0.0297151
0.0353351
0.0410259
0.0459179
0.0501541
0.0542688
0.0591019
0.0652217
0.0727977
0.076918
0.0735768
0.0644565
0.0612346
0.0606328
0.0666549
0.11601
0.178948
0.143119
0.0897329
0.0843322
0.0870459
0.0809041
0.0646869
0.0411157
0.0266266
0.0197981
0.0170126
0.0160521
0.015721
0.0158327
0.016748
0.0191056
0.0228274
0.0247179
0.0253451
0.0253441
0.0227789
0.0167274
0.0110504
0.00624474
0.00366287
0.00264787
0.00214057
0.00179013
0.0015171
0.00139299
0.00135666
0.00139115
0.00154134
0.00171828
0.00200446
0.00243096
0.00299826
0.00359759
0.00415529
0.00478421
0.005597
0.00639368
0.00686065
0.00718304
0.00748535
0.00768814
0.00767307
0.00713569
0.00671244
0.0060519
0.00518727
0.00428215
0.00340041
0.00255548
0.00184196
0.00128158
0.000882454
0.00062884
0.000489511
0.000426626
0.000406615
0.000414533
0.000475636
0.000701434
0.00147066
0.00413693
0.00809189
0.0103518
0.011158
0.0111533
0.0104948
0.00954939
0.00905884
0.00887563
0.00879607
0.00863829
0.00804117
0.00620747
0.00455528
0.00338266
0.00253132
0.00202979
0.00186427
0.0018739
0.00208565
0.00309187
0.00474798
0.00567679
0.00595772
0.00594589
0.00569805
0.00497929
0.00458008
0.00451109
0.00455899
0.00488793
0.00601469
0.00705894
0.00760089
0.00776518
0.00776179
0.00765819
0.00741823
0.00734366
0.00742012
0.00800075
0.00866798
0.00873469
0.00860962
0.00818857
0.00701589
0.00458598
0.00332607
0.00321759
0.00399854
0.00792936
0.0106536
0.0100033
0.0805069
0.0868152
0.0932961
0.0953058
0.0973151
0.102474
0.108564
0.112321
0.114026
0.114613
0.113896
0.111214
0.106451
0.0976067
0.0823734
0.066812
0.0528591
0.0426637
0.0328866
0.025498
0.0201018
0.0158305
0.0129172
0.0109153
0.00990678
0.00900701
0.00860432
0.00825897
0.00810155
0.00788957
0.00773955
0.00742527
0.00694229
0.00635474
0.00568551
0.00504498
0.0044169
0.00381354
0.00332625
0.00296953
0.00279411
0.00279216
0.00304817
0.00354622
0.00436188
0.00558119
0.00733288
0.00990537
0.0137177
0.0195589
0.0268402
0.0339975
0.0411965
0.0498769
0.0615704
0.0727891
0.0764618
0.0714931
0.0628408
0.0610953
0.0751229
0.137158
0.180391
0.112959
0.0722155
0.0635182
0.0589481
0.0477845
0.0365817
0.0252802
0.0201113
0.01778
0.0167934
0.0163706
0.0168055
0.0177503
0.0198184
0.0233867
0.0281266
0.0299593
0.0305962
0.0303102
0.0254768
0.0172714
0.0102965
0.00542607
0.00363
0.00277966
0.0022598
0.0019963
0.00189301
0.00194137
0.0022372
0.00271222
0.00344769
0.00425972
0.00533412
0.00678091
0.00854441
0.0104438
0.0123183
0.0143429
0.0166642
0.0188841
0.0204298
0.021611
0.0225768
0.0230313
0.0230741
0.0222456
0.0210542
0.0192905
0.0170685
0.0144426
0.0117537
0.00907079
0.00662239
0.00454363
0.00293315
0.0017998
0.00108239
0.000680074
0.000482762
0.000408032
0.00039472
0.000417533
0.00055142
0.00112387
0.00343355
0.00724278
0.00945656
0.010288
0.0103371
0.009824
0.00917353
0.00885164
0.00868797
0.00854556
0.00827561
0.00741422
0.00522665
0.00354241
0.002468
0.00178377
0.00141042
0.00128812
0.00129219
0.00140883
0.00191345
0.00259693
0.00297727
0.00309162
0.00307901
0.00293137
0.00257338
0.00234583
0.00226643
0.00228779
0.00254641
0.00379132
0.00550509
0.00615434
0.00632567
0.00663051
0.00698777
0.00715682
0.00740966
0.00799932
0.00819829
0.00812359
0.00772356
0.00654743
0.00415894
0.00263902
0.0021209
0.00221673
0.00376376
0.0114194
0.02023
0.0208563
0.0819176
0.0890214
0.0940362
0.0959647
0.0991861
0.10463
0.108491
0.110157
0.110289
0.107236
0.101153
0.0895219
0.0761456
0.0593076
0.0467395
0.0348504
0.0275693
0.0202458
0.0165049
0.0133126
0.0118482
0.0108938
0.0104339
0.0102273
0.0101647
0.0102532
0.0109461
0.0114938
0.0121493
0.0125002
0.012639
0.0122203
0.0113935
0.0100909
0.0087213
0.00712158
0.00565855
0.00433156
0.00333347
0.00260561
0.00204592
0.00165473
0.00137216
0.00123027
0.00120436
0.00133886
0.00165101
0.00221896
0.00318374
0.00485095
0.00795355
0.0134293
0.0208431
0.0289073
0.0390016
0.0559
0.0720276
0.0759095
0.0705543
0.0654675
0.0775181
0.138444
0.180869
0.114673
0.0644288
0.0497732
0.0430416
0.0328166
0.0265871
0.0211982
0.0189569
0.0178419
0.0173664
0.017476
0.0181272
0.0196866
0.0227553
0.0289584
0.0333322
0.035142
0.0357012
0.0338667
0.0257848
0.0159761
0.00789616
0.0050173
0.00386149
0.00317783
0.0028566
0.00278468
0.00305131
0.00362747
0.0047583
0.006423
0.00850192
0.0105501
0.0130884
0.0165536
0.0209633
0.0259405
0.0311178
0.0363059
0.0413297
0.0462996
0.0502493
0.0533162
0.055263
0.0561069
0.0562002
0.055245
0.0530294
0.0498555
0.0455291
0.040063
0.0337166
0.0270497
0.0208739
0.015008
0.0100228
0.00623034
0.00358792
0.00195281
0.00105277
0.000619081
0.000443761
0.000397866
0.000409301
0.000518584
0.00108743
0.0035358
0.00684117
0.00864706
0.00932695
0.00940872
0.00916117
0.00887203
0.00873536
0.00859812
0.00832884
0.00774306
0.0060301
0.00389384
0.00250143
0.00167759
0.00120568
0.000970088
0.000895872
0.000896217
0.000946103
0.0010816
0.00121113
0.00128535
0.0012973
0.00127397
0.00115761
0.00102118
0.000953449
0.000941766
0.000984995
0.00130262
0.00225441
0.00266007
0.00269726
0.00281296
0.00352155
0.00545311
0.00693302
0.00745038
0.00740371
0.00696952
0.00542637
0.00315067
0.0017799
0.00118117
0.00112293
0.00152526
0.0035774
0.0127334
0.0312433
0.036417
0.0833805
0.0916272
0.0942047
0.0959208
0.0994215
0.103311
0.104594
0.102377
0.0969579
0.0860323
0.0736653
0.0602063
0.047306
0.0344509
0.0254907
0.0191808
0.0159401
0.0135825
0.0126356
0.012179
0.01206
0.0123031
0.0135156
0.015337
0.0180019
0.0212483
0.0246882
0.0278556
0.0297648
0.0306073
0.0308263
0.0293829
0.0269585
0.0234766
0.0197962
0.0160763
0.0120726
0.00872974
0.00596974
0.00402402
0.00265352
0.00179492
0.00128752
0.000969587
0.000756445
0.000609354
0.00052721
0.00051608
0.000623062
0.000935397
0.00163657
0.00328015
0.00716543
0.0138695
0.0208729
0.029427
0.0481908
0.0700004
0.0753351
0.0724439
0.0764008
0.123756
0.1733
0.127424
0.0675334
0.0483679
0.0379387
0.0280686
0.0236095
0.0208045
0.0192014
0.0185541
0.0187314
0.0194542
0.0201626
0.0218148
0.0259868
0.0326245
0.037481
0.0391482
0.0392615
0.0351712
0.0247644
0.011853
0.00663316
0.00521482
0.00457894
0.00427866
0.00421939
0.00462492
0.00568966
0.00727093
0.00982645
0.0133191
0.0174645
0.0220911
0.0284572
0.0375339
0.04815
0.0589764
0.0688843
0.0768823
0.0826843
0.0867493
0.0886353
0.0894058
0.0895291
0.0884244
0.0867926
0.0846895
0.0821971
0.0794274
0.0763108
0.0726886
0.0680791
0.0616614
0.0525304
0.0413338
0.0291899
0.0194172
0.0117122
0.00648558
0.00330589
0.00160819
0.000816181
0.000501444
0.00041176
0.000417857
0.000538176
0.00124762
0.00401713
0.00664271
0.00794737
0.0084611
0.00860438
0.00863444
0.00864352
0.00862321
0.00851061
0.00810922
0.00672578
0.0043911
0.00265464
0.00163547
0.00109395
0.000810283
0.00066875
0.000615442
0.00060856
0.000611123
0.000608386
0.000613617
0.000620497
0.000613831
0.000571264
0.000488335
0.000425673
0.00039705
0.000398475
0.000458412
0.000619847
0.000634564
0.00060674
0.00063472
0.000989267
0.00287518
0.00502756
0.0053861
0.00509212
0.00356768
0.00186196
0.00101759
0.000641179
0.000588752
0.000740864
0.00151933
0.00449101
0.0146174
0.0413853
0.0543401
0.0832567
0.0913161
0.0929793
0.0949525
0.0973418
0.0982005
0.0945995
0.0872459
0.0779877
0.0648258
0.0519251
0.0396864
0.0293362
0.0211619
0.0168671
0.0147859
0.0139466
0.0136286
0.0136009
0.0150151
0.017835
0.0230266
0.0310314
0.0383942
0.0454926
0.0499806
0.0532032
0.054827
0.055617
0.0558223
0.0555357
0.0547757
0.0532619
0.0504021
0.0449048
0.0373003
0.0282866
0.0195023
0.0127967
0.00826251
0.005145
0.00304983
0.00182072
0.001155
0.000796423
0.000587899
0.000448435
0.000345034
0.00027214
0.000241291
0.000277353
0.000479649
0.0011802
0.00360191
0.0111252
0.0193521
0.026241
0.0412616
0.0663959
0.075204
0.0771254
0.0941989
0.157373
0.150332
0.0848675
0.0517678
0.038728
0.0282897
0.0235698
0.0211114
0.0204314
0.0207393
0.0205938
0.0207635
0.0213295
0.0234801
0.0287022
0.0367858
0.0408097
0.0421464
0.0420311
0.0364827
0.0229058
0.00972332
0.00632032
0.00566059
0.00556897
0.00601353
0.00681901
0.00827198
0.0107171
0.0141407
0.0200627
0.0283123
0.038129
0.0491356
0.0618914
0.0742133
0.0847533
0.092413
0.0968955
0.0992357
0.100068
0.10019
0.0998488
0.0988902
0.0974996
0.0956213
0.0932204
0.0906028
0.0878755
0.0852206
0.0826949
0.0803967
0.0782669
0.076251
0.073937
0.0702891
0.063299
0.049682
0.0328056
0.0195111
0.0104303
0.00506057
0.00228264
0.00103771
0.000563093
0.000431191
0.000437676
0.000605867
0.00165354
0.00454299
0.00641165
0.00729501
0.00766024
0.00791141
0.00818886
0.00835218
0.00836703
0.00820419
0.00728103
0.0049862
0.00307165
0.00178975
0.00106124
0.000695007
0.000530208
0.000464873
0.000438412
0.000418743
0.000397759
0.000383976
0.000379297
0.000371652
0.000352516
0.00032245
0.000283146
0.000246044
0.000229932
0.000231196
0.000236625
0.00023205
0.000231002
0.000270289
0.000572059
0.0018451
0.00257536
0.00252342
0.00191353
0.000970974
0.000500381
0.000313417
0.000295236
0.000375949
0.000850873
0.00283528
0.00936694
0.0261125
0.0544204
0.0717122
0.0829862
0.0893722
0.0897682
0.090711
0.0913707
0.0895739
0.0841098
0.0753172
0.0633948
0.0491445
0.0369752
0.0269757
0.0204184
0.0167766
0.0152879
0.0147796
0.0146464
0.0160331
0.0194787
0.0268463
0.0388632
0.0490398
0.0551307
0.0588252
0.0604804
0.0609338
0.0609832
0.0607534
0.060217
0.0599339
0.059807
0.0598616
0.0599291
0.0599726
0.0596728
0.0573572
0.0524115
0.0432294
0.0285712
0.0164199
0.00988683
0.00566585
0.00308471
0.00168198
0.000987436
0.00064998
0.00047234
0.000357233
0.00026796
0.000201883
0.000161493
0.000151127
0.000190435
0.000428407
0.00151085
0.0065102
0.0174056
0.0244754
0.0351402
0.0607302
0.0766562
0.082913
0.119151
0.147369
0.127276
0.0683056
0.0436532
0.030473
0.0243615
0.0217386
0.0214135
0.0217904
0.0224473
0.0223826
0.0227347
0.0241777