/*--------------------------------*- C++ -*----------------------------------*\
  =========                 |
  \\      /  F ield         | OpenFOAM: The Open Source CFD Toolbox
   \\    /   O peration     | Website:  https://openfoam.org
    \\  /    A nd           | Version:  9
     \\/     M anipulation  |
\*---------------------------------------------------------------------------*/
FoamFile
{
    format      ascii;
    class       surfaceScalarField;
    location    "0.078";
    object      phi;
}
// * * * * * * * * * * * * * * * * * * * * * * * * * * * * * * * * * * * * * //

dimensions      [0 3 -1 0 0 0 0];

internalField   nonuniform List<scalar> 
24170
(
3.08103e-06
4.37065e-08
2.97033e-06
1.10707e-07
2.86455e-06
1.0578e-07
2.78061e-06
8.39392e-08
2.71694e-06
6.36637e-08
2.6572e-06
5.97397e-08
2.58107e-06
7.61346e-08
2.48242e-06
9.86454e-08
2.37539e-06
1.07034e-07
2.27674e-06
9.86486e-08
2.19595e-06
8.0795e-08
2.12795e-06
6.79973e-08
2.06438e-06
6.35674e-08
1.99275e-06
7.16326e-08
1.90769e-06
8.5055e-08
1.80315e-06
1.04545e-07
1.66466e-06
1.38485e-07
1.62458e-07
1.5022e-06
3.44794e-06
-4.11791e-08
3.4981e-06
6.05413e-08
3.4882e-06
1.15685e-07
3.46321e-06
1.0893e-07
3.44347e-06
8.33985e-08
3.43405e-06
6.91603e-08
3.43279e-06
7.73956e-08
3.43339e-06
9.80469e-08
3.43005e-06
1.10375e-07
3.41951e-06
1.09185e-07
3.40102e-06
9.92903e-08
3.37456e-06
9.44593e-08
3.34158e-06
9.65478e-08
3.30168e-06
1.11525e-07
3.25536e-06
1.31379e-07
3.19725e-06
1.62657e-07
3.13138e-06
2.04353e-07
2.36449e-07
3.05739e-06
3.57713e-06
-3.33283e-08
3.59682e-06
4.08531e-08
3.60885e-06
1.03656e-07
3.63318e-06
8.46016e-08
3.66002e-06
5.65573e-08
3.67405e-06
5.51284e-08
3.67559e-06
7.58504e-08
3.67693e-06
9.67115e-08
3.68562e-06
1.01685e-07
3.70036e-06
9.44478e-08
3.713e-06
8.66487e-08
3.71768e-06
8.97724e-08
3.70983e-06
1.044e-07
3.69267e-06
1.28693e-07
3.6675e-06
1.5654e-07
3.64171e-06
1.88455e-07
3.61996e-06
2.26095e-07
2.58573e-07
3.59784e-06
3.90382e-06
-6.39035e-08
3.88153e-06
6.3144e-08
3.8648e-06
1.20387e-07
3.855e-06
9.44032e-08
3.86121e-06
5.03446e-08
3.87923e-06
3.71085e-08
3.8978e-06
5.72813e-08
3.91087e-06
8.36457e-08
3.91827e-06
9.42822e-08
3.92245e-06
9.02711e-08
3.92487e-06
8.4222e-08
3.92728e-06
8.73703e-08
3.92959e-06
1.02084e-07
3.93275e-06
1.25536e-07
3.93589e-06
1.53396e-07
3.94014e-06
1.84204e-07
3.94761e-06
2.18631e-07
2.5363e-07
3.95255e-06
4.29418e-06
1.8987e-08
4.28044e-06
7.68825e-08
4.29397e-06
1.06856e-07
4.29023e-06
9.81501e-08
4.25965e-06
8.09246e-08
4.22939e-06
6.73626e-08
4.22293e-06
6.37435e-08
4.23766e-06
6.89112e-08
4.25392e-06
7.80216e-08
4.25566e-06
8.85375e-08
4.23986e-06
1.00024e-07
4.215e-06
1.12223e-07
4.19171e-06
1.2538e-07
4.17681e-06
1.40434e-07
4.17167e-06
1.5854e-07
4.17477e-06
1.81101e-07
4.18452e-06
2.08884e-07
2.41775e-07
4.19637e-06
4.43232e-06
-3.41638e-08
4.43765e-06
7.15468e-08
4.44409e-06
1.00416e-07
4.46554e-06
7.67028e-08
4.49008e-06
5.63876e-08
4.51098e-06
4.64596e-08
4.52813e-06
4.65931e-08
4.54137e-06
5.56751e-08
4.5481e-06
7.12845e-08
4.54654e-06
9.00998e-08
4.53859e-06
1.07977e-07
4.52921e-06
1.21598e-07
4.52316e-06
1.31429e-07
4.52334e-06
1.4026e-07
4.52974e-06
1.52134e-07
4.54091e-06
1.69929e-07
4.5543e-06
1.95501e-07
2.28959e-07
4.56711e-06
4.87159e-06
-1.28849e-08
4.85742e-06
8.57154e-08
4.86465e-06
9.31813e-08
4.86313e-06
7.82267e-08
4.85831e-06
6.12063e-08
4.84995e-06
5.48211e-08
4.84244e-06
5.41058e-08
4.84358e-06
5.45329e-08
4.85694e-06
5.79243e-08
4.87847e-06
6.85741e-08
4.89935e-06
8.70942e-08
4.91165e-06
1.09293e-07
4.91231e-06
1.3077e-07
4.90336e-06
1.49217e-07
4.89061e-06
1.6488e-07
4.87971e-06
1.80826e-07
4.87569e-06
1.99529e-07
2.25859e-07
4.87878e-06
5.0799e-06
-5.50378e-08
5.17459e-06
-8.98235e-09
5.24833e-06
1.94476e-08
5.27245e-06
5.41022e-08
5.26047e-06
7.3191e-08
5.24305e-06
7.22367e-08
5.23067e-06
6.64841e-08
5.21505e-06
7.01607e-08
5.1896e-06
8.33678e-08
5.15952e-06
9.86522e-08
5.13539e-06
1.11226e-07
5.12334e-06
1.21349e-07
5.12251e-06
1.31596e-07
5.12757e-06
1.44153e-07
5.13377e-06
1.58683e-07
5.13798e-06
1.76617e-07
5.14072e-06
1.96786e-07
2.2254e-07
5.14404e-06
5.48479e-06
6.60809e-08
5.48399e-06
-8.17874e-09
5.51958e-06
-1.61475e-08
5.54293e-06
3.07486e-08
5.54605e-06
7.00773e-08
5.53969e-06
7.85982e-08
5.5401e-06
6.60694e-08
5.55071e-06
5.95542e-08
5.56414e-06
6.99313e-08
5.57224e-06
9.05518e-08
5.5722e-06
1.11268e-07
5.56628e-06
1.27274e-07
5.55813e-06
1.39745e-07
5.55036e-06
1.51923e-07
5.54374e-06
1.65304e-07
5.53841e-06
1.81947e-07
5.53404e-06
2.01149e-07
2.25293e-07
5.53129e-06
5.94542e-06
7.89768e-08
5.98689e-06
-4.96542e-08
6.00853e-06
-3.77902e-08
6.01849e-06
2.07966e-08
6.01562e-06
7.29469e-08
5.99586e-06
9.83583e-08
5.97254e-06
8.9383e-08
5.96525e-06
6.68457e-08
5.97964e-06
5.5544e-08
6.00448e-06
6.57118e-08
6.02348e-06
9.22705e-08
6.02644e-06
1.2431e-07
6.01345e-06
1.52732e-07
5.99268e-06
1.72695e-07
5.97364e-06
1.84345e-07
5.96294e-06
1.92647e-07
5.96244e-06
2.01651e-07
2.17281e-07
5.97045e-06
6.43349e-06
-9.97476e-09
6.38831e-06
-4.47703e-09
6.32517e-06
2.53508e-08
6.3173e-06
2.86643e-08
6.33361e-06
5.66414e-08
6.34393e-06
8.80366e-08
6.34438e-06
8.8927e-08
6.34515e-06
6.60771e-08
6.35478e-06
4.59131e-08
6.37547e-06
4.50247e-08
6.40237e-06
6.53757e-08
6.42758e-06
9.90983e-08
6.44511e-06
1.35199e-07
6.45244e-06
1.65363e-07
6.45087e-06
1.85917e-07
6.44378e-06
1.99732e-07
6.43586e-06
2.09572e-07
2.21651e-07
6.43149e-06
5.82518e-06
-1.06864e-07
5.75809e-06
6.26066e-08
5.71446e-06
6.89849e-08
5.72336e-06
1.97628e-08
5.74863e-06
3.13722e-08
5.76322e-06
7.34507e-08
5.75444e-06
9.77011e-08
5.72797e-06
9.25465e-08
5.69976e-06
7.41292e-08
5.6848e-06
5.99782e-08
5.68959e-06
6.05839e-08
5.71112e-06
7.75695e-08
5.74053e-06
1.05789e-07
5.76872e-06
1.37181e-07
5.79058e-06
1.64056e-07
5.80535e-06
1.84957e-07
5.81555e-06
1.99373e-07
2.12895e-07
5.82431e-06
6.88691e-06
-2.0839e-08
6.96026e-06
-1.07353e-08
7.03346e-06
-4.22134e-09
7.0538e-06
-5.70917e-10
7.06155e-06
2.36212e-08
7.08008e-06
5.49175e-08
7.10336e-06
7.4417e-08
7.11296e-06
8.29517e-08
7.10391e-06
8.31822e-08
7.08483e-06
7.90503e-08
7.06685e-06
7.85666e-08
7.05589e-06
8.85302e-08
7.05266e-06
1.09024e-07
7.05466e-06
1.35177e-07
7.05943e-06
1.59287e-07
7.06548e-06
1.78911e-07
7.07355e-06
1.91301e-07
2.0121e-07
7.08523e-06
8.58881e-06
-1.30593e-07
8.56483e-06
1.32451e-08
8.54131e-06
1.93018e-08
8.52039e-06
2.0352e-08
8.49881e-06
4.5202e-08
8.48147e-06
7.22496e-08
8.4715e-06
8.43897e-08
8.4758e-06
7.86561e-08
8.4925e-06
6.64826e-08
8.50868e-06
6.28706e-08
8.51139e-06
7.5858e-08
8.49738e-06
1.02532e-07
8.47313e-06
1.33272e-07
8.44884e-06
1.5947e-07
8.43387e-06
1.74261e-07
8.43284e-06
1.79934e-07
8.44651e-06
1.7763e-07
1.76565e-07
8.47116e-06
1.0263e-05
7.13818e-08
1.01962e-05
8.01359e-08
1.0198e-05
1.74132e-08
1.02019e-05
1.64992e-08
1.02012e-05
4.59207e-08
1.02166e-05
5.6797e-08
1.02613e-05
3.96736e-08
1.0327e-05
1.30171e-08
1.03891e-05
4.33583e-09
1.04266e-05
2.54119e-08
1.04305e-05
7.19497e-08
1.04078e-05
1.25267e-07
1.03746e-05
1.66453e-07
1.03481e-05
1.85935e-07
1.03392e-05
1.8321e-07
1.03509e-05
1.68213e-07
1.03805e-05
1.48e-07
1.34735e-07
1.04223e-05
1.26055e-05
-3.05911e-08
1.26573e-05
2.82867e-08
1.26501e-05
2.46006e-08
1.26482e-05
1.83971e-08
1.26552e-05
3.89365e-08
1.26756e-05
3.64694e-08
1.27093e-05
5.93424e-09
1.27418e-05
-1.94991e-08
1.27594e-05
-1.3225e-08
1.27543e-05
3.04897e-08
1.27383e-05
8.7951e-08
1.27285e-05
1.35059e-07
1.27359e-05
1.59061e-07
1.27605e-05
1.61334e-07
1.27955e-05
1.48171e-07
1.28337e-05
1.30064e-07
1.287e-05
1.11724e-07
9.90741e-08
1.29056e-05
1.53055e-05
-5.93595e-08
1.53476e-05
-1.38184e-08
1.53514e-05
2.07565e-08
1.53379e-05
3.18842e-08
1.53406e-05
3.62167e-08
1.53756e-05
1.48421e-09
1.54248e-05
-4.32287e-08
1.546e-05
-5.47592e-08
1.54693e-05
-2.24404e-08
1.54694e-05
3.03772e-08
1.54733e-05
8.40232e-08
1.54846e-05
1.23791e-07
1.55001e-05
1.43508e-07
1.5515e-05
1.46488e-07
1.55258e-05
1.37384e-07
1.5533e-05
1.22797e-07
1.55396e-05
1.05195e-07
8.7129e-08
1.55515e-05
1.89938e-05
-7.15496e-08
1.90484e-05
-6.84609e-08
1.90092e-05
5.99586e-08
1.89277e-05
1.13364e-07
1.89018e-05
6.21389e-08
1.89439e-05
-4.06563e-08
1.90145e-05
-1.13794e-07
1.90711e-05
-1.11408e-07
1.90967e-05
-4.80173e-08
1.90873e-05
3.98149e-08
1.90606e-05
1.10672e-07
1.90362e-05
1.48196e-07
1.90255e-05
1.54224e-07
1.90318e-05
1.40172e-07
1.90509e-05
1.18281e-07
1.90772e-05
9.65853e-08
1.91035e-05
7.88483e-08
6.43067e-08
1.91263e-05
2.28986e-05
1.37873e-07
2.27238e-05
1.06302e-07
2.26945e-05
8.92936e-08
2.275e-05
5.78535e-08
2.27844e-05
2.76966e-08
2.27386e-05
5.16953e-09
2.26476e-05
-2.27894e-08
2.25935e-05
-5.73211e-08
2.26276e-05
-8.20597e-08
2.27502e-05
-8.28004e-08
2.29198e-05
-5.89649e-08
2.30889e-05
-2.09249e-08
2.32287e-05
1.44312e-08
2.33286e-05
4.03308e-08
2.33927e-05
5.4162e-08
2.34323e-05
5.70073e-08
2.34592e-05
5.19411e-08
4.26757e-08
2.34808e-05
1.67289e-05
-1.36245e-07
1.68991e-05
-6.38299e-08
1.70209e-05
-3.25922e-08
1.7049e-05
2.97942e-08
1.69781e-05
9.86427e-08
1.68637e-05
1.19559e-07
1.67718e-05
6.90367e-08
1.67361e-05
-2.16316e-08
1.6757e-05
-1.02864e-07
1.68165e-05
-1.42378e-07
1.68897e-05
-1.32127e-07
1.69534e-05
-8.46371e-08
1.69905e-05
-2.26675e-08
1.69952e-05
3.56689e-08
1.6977e-05
7.23719e-08
1.69485e-05
8.5512e-08
1.69226e-05
7.77551e-08
5.55746e-08
1.69097e-05
1.49539e-05
-4.142e-08
1.48317e-05
5.83086e-08
1.4776e-05
2.31744e-08
1.4736e-05
6.97393e-08
1.4714e-05
1.2067e-07
1.47264e-05
1.07174e-07
1.47603e-05
3.50706e-08
1.47865e-05
-4.77818e-08
1.4778e-05
-9.43987e-08
1.47341e-05
-9.84849e-08
1.46753e-05
-7.33305e-08
1.46246e-05
-3.39401e-08
1.45966e-05
5.41851e-09
1.45952e-05
3.70674e-08
1.46114e-05
5.61268e-08
1.46373e-05
5.96533e-08
1.46658e-05
4.92213e-08
2.77602e-08
1.46936e-05
1.28442e-05
1.30169e-07
1.27986e-05
1.03926e-07
1.28614e-05
-3.95891e-08
1.29705e-05
-3.93986e-08
1.306e-05
3.11693e-08
1.30808e-05
8.63981e-08
1.30258e-05
9.00541e-08
1.29241e-05
5.39437e-08
1.2822e-05
7.67424e-09
1.27466e-05
-2.30684e-08
1.27096e-05
-3.62735e-08
1.27063e-05
-3.06819e-08
1.27241e-05
-1.24221e-08
1.27516e-05
9.61893e-09
1.27815e-05
2.62393e-08
1.28089e-05
3.2211e-08
1.28323e-05
2.58537e-08
8.8573e-09
1.28512e-05
1.11396e-05
7.10205e-08
1.11637e-05
7.98393e-08
1.11282e-05
-4.05785e-09
1.10793e-05
9.53412e-09
1.10486e-05
6.18516e-08
1.10354e-05
9.95358e-08
1.10255e-05
1.00043e-07
1.10184e-05
6.09987e-08
1.1026e-05
4.5111e-11
1.10587e-05
-5.57065e-08
1.11064e-05
-8.39804e-08
1.1157e-05
-8.13049e-08
1.12012e-05
-5.66424e-08
1.12358e-05
-2.49379e-08
1.12618e-05
1.83995e-10
1.12828e-05
1.12245e-08
1.13022e-05
6.42901e-09
-9.40338e-09
1.13205e-05
9.60232e-06
-2.62837e-09
9.64163e-06
4.05358e-08
9.58595e-06
5.16198e-08
9.53557e-06
5.99153e-08
9.54131e-06
5.61054e-08
9.60323e-06
3.76195e-08
9.68506e-06
1.82112e-08
9.75372e-06
-7.65888e-09
9.79402e-06
-4.02523e-08
9.80859e-06
-7.02827e-08
9.81039e-06
-8.57758e-08
9.81143e-06
-8.23431e-08
9.81831e-06
-6.35263e-08
9.83196e-06
-3.85914e-08
9.8492e-06
-1.70517e-08
9.86532e-06
-4.89527e-09
9.875e-06
-3.25492e-09
-9.40533e-09
9.87501e-06
8.24931e-06
-1.77257e-07
8.32506e-06
-3.52174e-08
8.37706e-06
-3.80624e-10
8.43503e-06
1.94773e-09
8.48959e-06
1.55045e-09
8.52334e-06
3.86733e-09
8.53965e-06
1.90177e-09
8.54503e-06
-1.30464e-08
8.54009e-06
-3.53089e-08
8.52302e-06
-5.32099e-08
8.49674e-06
-5.95019e-08
8.46971e-06
-5.53091e-08
8.45188e-06
-4.5691e-08
8.44925e-06
-3.59638e-08
8.46173e-06
-2.95301e-08
8.48439e-06
-2.75574e-08
8.51065e-06
-2.95192e-08
-3.27487e-08
8.534e-06
7.18373e-06
-4.07338e-08
7.22259e-06
-7.40735e-08
7.23362e-06
-1.14137e-08
7.24237e-06
-6.7992e-09
7.27136e-06
-2.74449e-08
7.30755e-06
-3.23257e-08
7.33718e-06
-2.7723e-08
7.35073e-06
-2.65952e-08
7.34599e-06
-3.05666e-08
7.32784e-06
-3.50623e-08
7.30456e-06
-3.62261e-08
7.28305e-06
-3.37958e-08
7.26728e-06
-2.99244e-08
7.25941e-06
-2.80899e-08
7.2609e-06
-3.10192e-08
7.27182e-06
-3.84779e-08
7.29149e-06
-4.91918e-08
-5.91739e-08
7.31792e-06
6.38234e-06
-1.10377e-07
6.38836e-06
-8.00914e-08
6.3727e-06
4.25052e-09
6.37451e-06
-8.61247e-09
6.39971e-06
-5.26434e-08
6.44538e-06
-7.79995e-08
6.4935e-06
-7.58401e-08
6.52436e-06
-5.74545e-08
6.53263e-06
-3.88382e-08
6.52595e-06
-2.83824e-08
6.51557e-06
-2.58479e-08
6.50919e-06
-2.7412e-08
6.50904e-06
-2.97754e-08
6.51343e-06
-3.24865e-08
6.51909e-06
-3.66699e-08
6.52337e-06
-4.27663e-08
6.52447e-06
-5.02851e-08
-5.68392e-08
6.52213e-06
5.5924e-06
-4.56253e-08
5.52393e-06
-1.16197e-08
5.55638e-06
-2.81985e-08
5.60822e-06
-6.04458e-08
5.64161e-06
-8.60346e-08
5.65326e-06
-8.96549e-08
5.64649e-06
-6.90637e-08
5.6294e-06
-4.03709e-08
5.61258e-06
-2.20157e-08
5.60458e-06
-2.03797e-08
5.60994e-06
-3.1209e-08
5.62902e-06
-4.64914e-08
5.65837e-06
-5.913e-08
5.6928e-06
-6.69132e-08
5.72628e-06
-7.01504e-08
5.75374e-06
-7.02312e-08
5.77082e-06
-6.73563e-08
-6.14231e-08
5.7754e-06
4.79984e-06
-2.19381e-08
4.88209e-06
-9.38747e-08
4.933e-06
-7.91023e-08
4.93395e-06
-6.1399e-08
4.89313e-06
-4.52127e-08
4.84733e-06
-4.38585e-08
4.82758e-06
-4.93108e-08
4.84003e-06
-5.28173e-08
4.87051e-06
-5.25024e-08
4.89874e-06
-4.86042e-08
4.90998e-06
-4.24489e-08
4.90067e-06
-3.718e-08
4.87748e-06
-3.59468e-08
4.85071e-06
-4.01432e-08
4.82843e-06
-4.78679e-08
4.81412e-06
-5.59194e-08
4.80772e-06
-6.09634e-08
-6.10204e-08
4.80732e-06
4.11808e-06
4.0242e-06
3.9451e-06
3.8837e-06
3.83849e-06
3.79463e-06
3.74532e-06
3.6925e-06
3.64e-06
3.59139e-06
3.54894e-06
3.51176e-06
3.47582e-06
3.43567e-06
3.38781e-06
3.33189e-06
3.27092e-06
3.2099e-06
-4.95138e-07
4.95138e-07
-9.76283e-07
4.81145e-07
-1.35566e-06
3.7938e-07
-1.56721e-06
2.11551e-07
-1.59929e-06
3.20749e-08
-1.47215e-06
-1.27141e-07
-1.18723e-06
-2.84918e-07
-7.6869e-07
-4.1854e-07
-2.95916e-07
-4.72773e-07
1.31391e-07
-4.27307e-07
4.49871e-07
-3.18481e-07
6.344e-07
-1.84528e-07
6.94462e-07
-6.00623e-08
6.55834e-07
3.86275e-08
5.49558e-07
1.06276e-07
4.05557e-07
1.44001e-07
2.47434e-07
1.58123e-07
9.15178e-08
1.55916e-07
-5.42751e-08
1.45793e-07
-1.87344e-07
1.33069e-07
-3.07578e-07
1.20234e-07
-4.16548e-07
1.0897e-07
-5.16239e-07
9.96907e-08
-6.08175e-07
9.19364e-08
-6.93497e-07
8.53212e-08
-7.72699e-07
7.92023e-08
-8.45934e-07
7.32354e-08
-9.13132e-07
6.71973e-08
-9.7358e-07
6.04486e-08
-1.02716e-06
5.35754e-08
-1.07321e-06
4.60525e-08
-1.11111e-06
3.79032e-08
-1.14177e-06
3.06571e-08
-1.16397e-06
2.21974e-08
-1.18068e-06
1.67144e-08
-1.1928e-06
1.2119e-08
-1.20183e-06
9.02879e-09
-1.2189e-06
1.70679e-08
-1.24015e-06
2.12544e-08
-1.29293e-06
5.27803e-08
-1.37784e-06
8.49087e-08
-1.53678e-06
1.58942e-07
-1.80367e-06
2.66893e-07
-2.05462e-06
2.50946e-07
-2.18237e-06
1.2775e-07
-2.16453e-06
-1.78382e-08
-2.16338e-06
-1.14978e-09
-2.19968e-06
3.62998e-08
-2.27861e-06
7.89318e-08
-2.35833e-06
7.97154e-08
-2.35416e-06
-4.1685e-09
-2.23615e-06
-1.18009e-07
-2.01839e-06
-2.17764e-07
-1.72617e-06
-2.92213e-07
-1.38793e-06
-3.38247e-07
-1.02279e-06
-3.65142e-07
-6.41818e-07
-3.80967e-07
-2.5211e-07
-3.89708e-07
1.44867e-07
-3.96977e-07
5.59666e-07
-4.14799e-07
1.02636e-06
-4.6669e-07
1.56989e-06
-5.43531e-07
2.17257e-06
-6.02683e-07
2.78458e-06
-6.12012e-07
3.34742e-06
-5.62843e-07
3.82877e-06
-4.81342e-07
4.1759e-06
-3.47136e-07
4.26377e-06
-8.78651e-08
4.03946e-06
2.24307e-07
3.56989e-06
4.69567e-07
2.93157e-06
6.38319e-07
2.39147e-06
5.401e-07
2.27963e-06
1.11839e-07
2.29282e-06
-1.31831e-08
1.97677e-06
3.16051e-07
1.14721e-06
8.29556e-07
-1.92296e-09
1.14913e-06
-1.20096e-06
1.19904e-06
-2.30982e-06
1.10886e-06
-3.27054e-06
9.60714e-07
-4.06829e-06
7.97749e-07
-4.7091e-06
6.40818e-07
-5.21145e-06
5.02342e-07
-5.6003e-06
3.88852e-07
-5.90339e-06
3.03096e-07
-6.14759e-06
2.44194e-07
-6.35646e-06
2.08868e-07
-6.54862e-06
1.92166e-07
-6.73728e-06
1.88661e-07
-6.93045e-06
1.93165e-07
-7.13195e-06
2.015e-07
-7.3424e-06
2.10449e-07
-7.55985e-06
2.17454e-07
-7.78048e-06
2.20629e-07
-7.9994e-06
2.18924e-07
-8.21121e-06
2.11807e-07
-8.41014e-06
1.98928e-07
-8.59026e-06
1.80125e-07
-8.74571e-06
1.5545e-07
-8.87085e-06
1.25136e-07
-8.96044e-06
8.95848e-08
-9.00972e-06
4.92801e-08
-9.01508e-06
5.36595e-09
-8.97479e-06
-4.02901e-08
-8.88671e-06
-8.80794e-08
-8.74902e-06
-1.37692e-07
-8.56064e-06
-1.88379e-07
-8.32125e-06
-2.39386e-07
-8.03132e-06
-2.8993e-07
-7.69215e-06
-3.39176e-07
-7.30592e-06
-3.86233e-07
-6.87576e-06
-4.30159e-07
-6.40569e-06
-4.70068e-07
-5.90043e-06
-5.05263e-07
-5.36531e-06
-5.35112e-07
-4.80646e-06
-5.58851e-07
-4.2304e-06
-5.76065e-07
-3.64343e-06
-5.86967e-07
-3.05176e-06
-5.91668e-07
-2.46162e-06
-5.90142e-07
-1.87942e-06
-5.82201e-07
-1.31026e-06
-5.69158e-07
-7.59416e-07
-5.50846e-07
-2.34103e-07
-5.25313e-07
2.65404e-07
-4.99507e-07
7.30421e-07
-4.65017e-07
1.1577e-06
-4.27275e-07
1.54479e-06
-3.87094e-07
1.8907e-06
-3.45905e-07
2.19596e-06
-3.0527e-07
2.46238e-06
-2.6641e-07
2.69235e-06
-2.29975e-07
2.88902e-06
-1.96666e-07
3.05718e-06
-1.68164e-07
3.2031e-06
-1.45916e-07
3.33014e-06
-1.27041e-07
3.43157e-06
-1.01434e-07
3.48917e-06
-5.76012e-08
3.48681e-06
2.3573e-09
3.42568e-06
6.11339e-08
3.32334e-06
1.02344e-07
3.20344e-06
1.19897e-07
3.08526e-06
1.18176e-07
2.97876e-06
1.06507e-07
2.88597e-06
9.2782e-08
2.80466e-06
8.13096e-08
2.73185e-06
7.28147e-08
2.66572e-06
6.61325e-08
2.60664e-06
5.90798e-08
2.5567e-06
4.99321e-08
2.51862e-06
3.8082e-08
2.49463e-06
2.3989e-08
2.48546e-06
9.174e-09
2.49005e-06
-4.59358e-09
2.50606e-06
-1.6005e-08
2.53178e-06
-2.57222e-08
2.56451e-06
-3.27273e-08
2.59965e-06
-3.51397e-08
2.63375e-06
-3.41e-08
2.66815e-06
-3.43999e-08
2.70584e-06
-3.76948e-08
2.74679e-06
-4.0953e-08
2.78765e-06
-4.08562e-08
2.82034e-06
-3.26877e-08
2.82994e-06
-9.59906e-09
2.80734e-06
2.25929e-08
2.77163e-06
3.57104e-08
2.75494e-06
1.66954e-08
2.75223e-06
2.70952e-09
2.75852e-06
-6.28838e-09
2.83697e-06
-7.84477e-08
3.0312e-06
-1.94232e-07
3.25109e-06
-2.19892e-07
3.48563e-06
-2.34543e-07
3.85879e-06
-3.73158e-07
4.26197e-06
-4.03184e-07
4.50685e-06
-2.44879e-07
4.84931e-06
-3.4246e-07
4.80706e-06
4.22508e-08
8.67391e-07
3.93967e-06
-2.68424e-07
7.63562e-07
-5.32517e-07
7.45238e-07
-7.09126e-07
5.55988e-07
-7.82736e-07
2.85162e-07
-7.7672e-07
2.60588e-08
-6.96454e-07
-2.07407e-07
-5.06139e-07
-4.75233e-07
-1.89644e-07
-7.35035e-07
1.97829e-07
-8.60246e-07
5.64837e-07
-7.94315e-07
8.38278e-07
-5.91921e-07
9.93579e-07
-3.3983e-07
1.04402e-06
-1.10504e-07
1.01137e-06
7.12762e-08
9.16528e-07
2.0112e-07
7.80966e-07
2.79564e-07
6.2148e-07
3.17608e-07
4.50375e-07
3.27021e-07
2.78151e-07
3.18018e-07
1.11567e-07
2.99652e-07
-4.6915e-08
2.78716e-07
-1.96422e-07
2.58478e-07
-3.37167e-07
2.40435e-07
-4.69999e-07
2.24768e-07
-5.9557e-07
2.10893e-07
-7.14053e-07
1.97685e-07
-8.24724e-07
1.83906e-07
-9.26025e-07
1.68499e-07
-1.01636e-06
1.50785e-07
-1.09354e-06
1.30749e-07
-1.15599e-06
1.08508e-07
-1.20268e-06
8.45896e-08
-1.23207e-06
6.00538e-08
-1.2452e-06
3.53192e-08
-1.24144e-06
1.29617e-08
-1.22119e-06
-8.13918e-09
-1.18617e-06
-2.59822e-08
-1.13553e-06
-3.35716e-08
-1.07578e-06
-3.84975e-08
-9.97301e-07
-2.57013e-08
-9.04248e-07
-8.14474e-09
-7.63628e-07
1.83216e-08
-5.72152e-07
7.54177e-08
-3.80725e-07
5.95194e-08
-3.42223e-07
8.92473e-08
-3.9722e-07
3.71589e-08
-4.29028e-07
3.06583e-08
-4.01415e-07
8.68639e-09
-3.04229e-07
-1.82544e-08
-1.37426e-07
-8.70878e-08
5.70099e-08
-1.98604e-07
2.68398e-07
-3.29397e-07
5.12043e-07
-4.6141e-07
7.82989e-07
-5.63159e-07
1.0729e-06
-6.28161e-07
1.37402e-06
-6.66262e-07
1.6684e-06
-6.7534e-07
1.95505e-06
-6.76361e-07
2.2306e-06
-6.72529e-07
2.4866e-06
-6.70794e-07
2.75163e-06
-7.31722e-07
3.01781e-06
-8.09709e-07
3.23133e-06
-8.16203e-07
3.41764e-06
-7.98331e-07
3.62138e-06
-7.66577e-07
3.84047e-06
-7.00434e-07
4.09571e-06
-6.02372e-07
4.37355e-06
-3.65703e-07
4.55859e-06
3.92639e-08
4.52647e-06
5.01685e-07
4.36459e-06
8.00203e-07
4.03871e-06
8.65979e-07
3.11586e-06
1.03469e-06
1.55172e-06
1.55095e-06
-1.87462e-07
2.05523e-06
-1.63304e-06
2.27513e-06
-2.73649e-06
2.25259e-06
-3.60833e-06
2.07088e-06
-4.31033e-06
1.81086e-06
-4.87361e-06
1.52399e-06
-5.32045e-06
1.2446e-06
-5.67188e-06
9.92245e-07
-5.9475e-06
7.77963e-07
-6.16662e-06
6.07968e-07
-6.34764e-06
4.84115e-07
-6.50705e-06
4.03614e-07
-6.65814e-06
3.59953e-07
-6.81021e-06
3.44236e-07
-6.9687e-06
3.47154e-07
-7.13594e-06
3.60403e-07
-7.31199e-06
3.77547e-07
-7.49519e-06
3.93656e-07
-7.68284e-06
4.05097e-07
-7.87156e-06
4.09354e-07
-8.05754e-06
4.04903e-07
-8.23646e-06
3.90721e-07
-8.4036e-06
3.66072e-07
-8.55405e-06
3.3057e-07
-8.68278e-06
2.84181e-07
-8.78488e-06
2.27237e-07
-8.85589e-06
1.60602e-07
-8.89143e-06
8.48166e-08
-8.88752e-06
1.45095e-09
-8.84037e-06
-8.74402e-08
-8.74546e-06
-1.82989e-07
-8.60085e-06
-2.82299e-07
-8.4054e-06
-3.83828e-07
-8.15864e-06
-4.86144e-07
-7.86086e-06
-5.87715e-07
-7.51316e-06
-6.86871e-07
-7.11759e-06
-7.81808e-07
-6.67712e-06
-8.70624e-07
-6.19571e-06
-9.51479e-07
-5.67816e-06
-1.02281e-06
-5.12993e-06
-1.08335e-06
-4.55696e-06
-1.13182e-06
-3.96551e-06
-1.16751e-06
-3.3623e-06
-1.19018e-06
-2.75341e-06
-1.20056e-06
-2.14525e-06
-1.1983e-06
-1.54314e-06
-1.18431e-06
-9.52908e-07
-1.15939e-06
-3.8092e-07
-1.12283e-06
1.68915e-07
-1.07515e-06
6.88144e-07
-1.01874e-06
1.17372e-06
-9.50595e-07
1.6209e-06
-8.74456e-07
2.0267e-06
-7.92893e-07
2.38956e-06
-7.08758e-07
2.70921e-06
-6.24926e-07
2.98685e-06
-5.44045e-07
3.22567e-06
-4.68798e-07
3.43136e-06
-4.02353e-07
3.61091e-06
-3.47719e-07
3.77006e-06
-3.05065e-07
3.91249e-06
-2.69466e-07
4.04361e-06
-2.32555e-07
4.1734e-06
-1.87395e-07
4.30706e-06
-1.31297e-07
4.43272e-06
-6.45301e-08
4.52695e-06
8.11687e-09
4.56644e-06
8.04099e-08
4.53447e-06
1.50139e-07
4.43494e-06
2.0604e-07
4.28967e-06
2.3805e-07
4.12787e-06
2.43107e-07
3.9714e-06
2.29287e-07
3.82967e-06
2.07868e-07
3.70533e-06
1.83417e-07
3.60042e-06
1.54841e-07
3.5175e-06
1.20998e-07
3.45789e-06
8.36044e-08
3.42049e-06
4.6573e-08
3.40211e-06
1.37823e-08
3.39872e-06
-1.26092e-08
3.40803e-06
-3.50292e-08
3.42809e-06
-5.27895e-08
3.45607e-06
-6.3117e-08
3.48817e-06
-6.62092e-08
3.52497e-06
-7.11976e-08
3.57657e-06
-8.92898e-08
3.65318e-06
-1.17562e-07
3.74455e-06
-1.32227e-07
3.81206e-06
-1.00204e-07
3.81886e-06
-1.63948e-08
3.76655e-06
7.49004e-08
3.67192e-06
1.30343e-07
3.55153e-06
1.37082e-07
3.46667e-06
8.75705e-08
3.46544e-06
-5.05888e-09
3.51709e-06
-1.30096e-07
3.62663e-06
-3.03774e-07
3.83804e-06
-4.31301e-07
4.11469e-06
-5.1119e-07
4.39827e-06
-6.56744e-07
4.78985e-06
-7.94757e-07
5.19221e-06
-6.47238e-07
5.55849e-06
-7.08747e-07
5.92091e-06
-3.20163e-07
6.70221e-07
6.11808e-06
2.60527e-07
5.03035e-07
3.96743e-07
6.09021e-07
5.08333e-07
4.44399e-07
6.19432e-07
1.74063e-07
7.00985e-07
-5.54941e-08
7.68897e-07
-2.75319e-07
8.65906e-07
-5.72242e-07
1.00343e-06
-8.72564e-07
1.13935e-06
-9.96163e-07
1.20561e-06
-8.60575e-07
1.18868e-06
-5.74991e-07
1.09346e-06
-2.44605e-07
9.40322e-07
4.26301e-08
7.61741e-07
2.49857e-07
5.78362e-07
3.845e-07
3.89277e-07
4.68648e-07
1.9717e-07
5.09716e-07
3.80898e-09
5.20382e-07
-1.88334e-07
5.10161e-07
-3.76895e-07
4.88213e-07
-5.62143e-07
4.63964e-07
-7.47079e-07
4.43414e-07
-9.34365e-07
4.27721e-07
-1.12385e-06
4.14257e-07
-1.31238e-06
3.99418e-07
-1.49521e-06
3.8052e-07
-1.66697e-06
3.55666e-07
-1.82216e-06
3.23683e-07
-1.95594e-06
2.84569e-07
-2.0642e-06
2.3901e-07
-2.14412e-06
1.88421e-07
-2.19431e-06
1.34784e-07
-2.21396e-06
7.97e-08
-2.20424e-06
2.55963e-08
-2.16232e-06
-2.89574e-08
-2.0895e-06
-8.0957e-08
-1.98995e-06
-1.25534e-07
-1.86295e-06
-1.60572e-07
-1.71332e-06
-1.88127e-07
-1.53659e-06
-2.02424e-07
-1.3339e-06
-2.1084e-07
-1.10357e-06
-2.12007e-07
-8.33142e-07
-1.9501e-07
-5.56241e-07
-2.17381e-07
-2.45287e-07
-2.21708e-07
6.45266e-08
-2.72654e-07
3.84402e-07
-2.89217e-07
7.18018e-07
-3.2493e-07
1.06803e-06
-3.68266e-07
1.41909e-06
-4.38148e-07
1.75836e-06
-5.37875e-07
2.08153e-06
-6.52561e-07
2.38534e-06
-7.65225e-07
2.67357e-06
-8.51384e-07
2.95817e-06
-9.12763e-07
3.22954e-06
-9.3763e-07
3.4577e-06
-9.03507e-07
3.6517e-06
-8.70355e-07
3.8223e-06
-8.43136e-07
3.94892e-06
-7.97408e-07
4.04417e-06
-8.26972e-07
4.12111e-06
-8.86657e-07
4.17846e-06
-8.7355e-07
4.26846e-06
-8.88325e-07
4.43923e-06
-9.37353e-07
4.59177e-06
-8.52974e-07
4.62187e-06
-6.32475e-07
4.57119e-06
-3.15017e-07
4.40166e-06
2.08792e-07
4.00043e-06
9.02919e-07
3.25591e-06
1.54472e-06
1.96026e-06
2.16162e-06
2.43888e-07
2.75107e-06
-1.3044e-06
3.09924e-06
-2.42118e-06
3.17202e-06
-3.19927e-06
3.05322e-06
-3.75419e-06
2.80751e-06
-4.1775e-06
2.49419e-06
-4.52341e-06
2.15677e-06
-4.82163e-06
1.82221e-06
-5.0817e-06
1.50467e-06
-5.30458e-06
1.21513e-06
-5.49027e-06
9.63647e-07
-5.64282e-06
7.60517e-07
-5.77192e-06
6.13216e-07
-5.8909e-06
5.22596e-07
-6.01263e-06
4.81678e-07
-6.14597e-06
4.77577e-07
-6.29515e-06
4.96338e-07
-6.46118e-06
5.26427e-07
-6.64289e-06
5.59263e-07
-6.83753e-06
5.88291e-07
-7.04151e-06
6.09081e-07
-7.25076e-06
6.18606e-07
-7.46081e-06
6.14953e-07
-7.66659e-06
5.96495e-07
-7.86264e-06
5.62127e-07
-8.04317e-06
5.11092e-07
-8.20211e-06
4.43129e-07
-8.33362e-06
3.58747e-07
-8.43216e-06
2.59139e-07
-8.49363e-06
1.46284e-07
-8.51397e-06
2.17901e-08
-8.48644e-06
-1.14969e-07
-8.41012e-06
-2.59306e-07
-8.28322e-06
-4.09204e-07
-8.10433e-06
-5.62715e-07
-7.87272e-06
-7.17755e-07
-7.58848e-06
-8.71951e-07
-7.25267e-06
-1.02269e-06
-6.86732e-06
-1.16716e-06
-6.43548e-06
-1.30246e-06
-5.96119e-06
-1.42577e-06
-5.44937e-06
-1.53463e-06
-4.90574e-06
-1.62699e-06
-4.33627e-06
-1.70128e-06
-3.74735e-06
-1.75644e-06
-3.14528e-06
-1.79225e-06
-2.53653e-06
-1.8093e-06
-1.92587e-06
-1.80896e-06
-1.31893e-06
-1.79126e-06
-7.21705e-07
-1.75661e-06
-1.40916e-07
-1.70362e-06
4.20982e-07
-1.63705e-06
9.52589e-07
-1.55034e-06
1.44957e-06
-1.44758e-06
1.90668e-06
-1.33157e-06
2.31979e-06
-1.206e-06
2.68601e-06
-1.07498e-06
3.00395e-06
-9.42871e-07
3.27427e-06
-8.14365e-07
3.50016e-06
-6.94684e-07
3.68725e-06
-5.89445e-07
3.84301e-06
-5.03478e-07
3.97615e-06
-4.38202e-07
4.0959e-06
-3.89219e-07
4.2106e-06
-3.47259e-07
4.32621e-06
-3.03004e-07
4.44637e-06
-2.51449e-07
4.57318e-06
-1.91344e-07
4.70382e-06
-1.22523e-07
4.82735e-06
-4.31199e-08
4.9266e-06
5.08921e-08
4.97844e-06
1.54199e-07
4.96348e-06
2.53002e-07
4.87723e-06
3.29364e-07
4.73594e-06
3.7057e-07
4.56926e-06
3.74553e-07
4.40532e-06
3.47362e-07
4.26161e-06
2.98541e-07
4.14471e-06
2.37899e-07
4.05451e-06
1.73808e-07
3.98854e-06
1.12545e-07
3.94336e-06
5.89644e-08
3.91506e-06
1.56906e-08
3.8987e-06
-1.86722e-08
3.891e-06
-4.50892e-08
3.88726e-06
-5.93759e-08
3.88097e-06
-5.99201e-08
3.87336e-06
-6.35868e-08
3.88096e-06
-9.68951e-08
3.92066e-06
-1.57263e-07
3.98401e-06
-1.95578e-07
4.03535e-06
-1.51544e-07
4.03373e-06
-1.47755e-08
3.96233e-06
1.46305e-07
3.84622e-06
2.46458e-07
3.73746e-06
2.45833e-07
3.67974e-06
1.45299e-07
3.70208e-06
-2.74015e-08
3.80226e-06
-2.30279e-07
3.96035e-06
-4.61862e-07
4.15771e-06
-6.28657e-07
4.39475e-06
-7.48234e-07
4.65012e-06
-9.12111e-07
4.94091e-06
-1.08555e-06
5.33518e-06
-1.04151e-06
5.73271e-06
-1.10627e-06
6.15911e-06
-7.46571e-07
2.9813e-07
6.5312e-06
4.66995e-07
3.60402e-08
8.98232e-07
1.77785e-07
1.22836e-06
1.14275e-07
1.46933e-06
-6.69076e-08
1.62513e-06
-2.11298e-07
1.76462e-06
-4.14814e-07
1.88951e-06
-6.97126e-07
1.88701e-06
-8.70064e-07
1.73125e-06
-8.40408e-07
1.42985e-06
-5.59169e-07
1.05989e-06
-2.0503e-07
7.06159e-07
1.09123e-07
3.89637e-07
3.59151e-07
1.28954e-07
5.10541e-07
-8.45144e-08
5.97968e-07
-2.74253e-07
6.58387e-07
-4.65223e-07
7.00686e-07
-6.70377e-07
7.25536e-07
-9.00274e-07
7.40057e-07
-1.16162e-06
7.49561e-07
-1.45232e-06
7.54664e-07
-1.76399e-06
7.55086e-07
-2.08527e-06
7.49001e-07
-2.40359e-06
7.3257e-07
-2.70629e-06
7.02126e-07
-2.9821e-06
6.56325e-07
-3.22231e-06
5.95877e-07
-3.42118e-06
5.22557e-07
-3.57518e-06
4.38569e-07
-3.68249e-06
3.46314e-07
-3.74267e-06
2.48605e-07
-3.75637e-06
1.48481e-07
-3.7261e-06
4.94295e-08
-3.65146e-06
-4.90415e-08
-3.53869e-06
-1.41731e-07
-3.39308e-06
-2.26567e-07
-3.21665e-06
-3.01964e-07
-3.01027e-06
-3.66951e-07
-2.77866e-06
-4.1973e-07
-2.52099e-06
-4.60098e-07
-2.23974e-06
-4.92093e-07
-1.93783e-06
-5.13917e-07
-1.60455e-06
-5.28291e-07
-1.2709e-06
-5.51023e-07
-9.25265e-07
-5.67346e-07
-6.03864e-07
-5.94055e-07
-2.68042e-07
-6.25039e-07
7.38527e-08
-6.66825e-07
4.2654e-07
-7.20954e-07
7.7754e-07
-7.89148e-07
1.11629e-06
-8.76621e-07
1.44054e-06
-9.7682e-07
1.74696e-06
-1.07164e-06
2.04241e-06
-1.14684e-06
2.32627e-06
-1.19662e-06
2.58215e-06
-1.1935e-06
2.80135e-06
-1.12271e-06
2.95048e-06
-1.01948e-06
3.03927e-06
-9.31927e-07
3.0962e-06
-8.54344e-07
3.02482e-06
-7.55593e-07
2.8844e-06
-7.46231e-07
2.94248e-06
-9.31632e-07
3.15734e-06
-1.10318e-06
3.2856e-06
-1.06562e-06
3.25398e-06
-8.21358e-07
3.00885e-06
-3.87341e-07
2.49569e-06
1.98142e-07
1.77387e-06
9.3061e-07
8.82372e-07
1.79442e-06
-2.09078e-07
2.63617e-06
-1.35176e-06
3.3043e-06
-2.28407e-06
3.68338e-06
-2.92658e-06
3.74175e-06
-3.34426e-06
3.58969e-06
-3.62945e-06
3.33841e-06
-3.85656e-06
3.03461e-06
-4.07024e-06
2.70787e-06
-4.28438e-06
2.37091e-06
-4.49395e-06
2.03179e-06
-4.68566e-06
1.69638e-06
-4.84568e-06
1.37515e-06
-4.96691e-06
1.08488e-06
-5.05313e-06
8.46735e-07
-5.11838e-06
6.78464e-07
-5.18209e-06
5.86307e-07
-5.26241e-06
5.62006e-07
-5.37096e-06
5.86117e-07
-5.51169e-06
6.37077e-07
-5.68334e-06
6.98075e-07
-5.882e-06
7.57917e-07
-6.10269e-06
8.08988e-07
-6.3407e-06
8.47091e-07
-6.59025e-06
8.68152e-07
-6.84494e-06
8.69645e-07
-7.09823e-06
8.49784e-07
-7.34314e-06
8.07037e-07
-7.57235e-06
7.40307e-07
-7.77851e-06
6.49288e-07
-7.95455e-06
5.34785e-07
-8.09412e-06
3.98706e-07
-8.19178e-06
2.43946e-07
-8.2455e-06
7.5505e-08
-8.24517e-06
-1.15296e-07
-8.1913e-06
-3.13178e-07
-8.08274e-06
-5.17764e-07
-7.91817e-06
-7.27282e-07
-7.69708e-06
-9.38842e-07
-7.41983e-06
-1.1492e-06
-7.08779e-06
-1.35473e-06
-6.70339e-06
-1.55156e-06
-6.2701e-06
-1.73575e-06
-5.79248e-06
-1.90339e-06
-5.27615e-06
-2.05096e-06
-4.72747e-06
-2.17567e-06
-4.15336e-06
-2.27539e-06
-3.56129e-06
-2.34851e-06
-2.9584e-06
-2.39513e-06
-2.35066e-06
-2.41704e-06
-1.74339e-06
-2.41623e-06
-1.13958e-06
-2.39508e-06
-5.40658e-07
-2.35553e-06
5.03419e-08
-2.29462e-06
6.25639e-07
-2.21234e-06
1.17822e-06
-2.10293e-06
1.69955e-06
-1.9689e-06