/*--------------------------------*- C++ -*----------------------------------*\
  =========                 |
  \\      /  F ield         | OpenFOAM: The Open Source CFD Toolbox
   \\    /   O peration     | Website:  https://openfoam.org
    \\  /    A nd           | Version:  9
     \\/     M anipulation  |
\*---------------------------------------------------------------------------*/
FoamFile
{
    format      ascii;
    class       surfaceScalarField;
    location    "0.078";
    object      phi_0;
}
// * * * * * * * * * * * * * * * * * * * * * * * * * * * * * * * * * * * * * //

dimensions      [0 3 -1 0 0 0 0];

internalField   nonuniform List<scalar> 
24170
(
3.09894e-06
7.02337e-08
2.98065e-06
1.18289e-07
2.87164e-06
1.09009e-07
2.78644e-06
8.52007e-08
2.72174e-06
6.47009e-08
2.66031e-06
6.14358e-08
2.58193e-06
7.83711e-08
2.48148e-06
1.00457e-07
2.37377e-06
1.0771e-07
2.2754e-06
9.83715e-08
2.19516e-06
8.02314e-08
2.12746e-06
6.77084e-08
2.06366e-06
6.37937e-08
1.99143e-06
7.22299e-08
1.90555e-06
8.58855e-08
1.80012e-06
1.05422e-07
1.66084e-06
1.39287e-07
1.64568e-07
1.49627e-06
3.46782e-06
1.46277e-08
3.51027e-06
7.58464e-08
3.49429e-06
1.24982e-07
3.46671e-06
1.12787e-07
3.44602e-06
8.53923e-08
3.43615e-06
7.13017e-08
3.43447e-06
8.00516e-08
3.43449e-06
1.00434e-07
3.43043e-06
1.11776e-07
3.41908e-06
1.09717e-07
3.39975e-06
9.95575e-08
3.37255e-06
9.49118e-08
3.33899e-06
9.73584e-08
3.29866e-06
1.12553e-07
3.25196e-06
1.32584e-07
3.19343e-06
1.63956e-07
3.1271e-06
2.05621e-07
2.39003e-07
3.05266e-06
3.59402e-06
-2.80743e-08
3.60909e-06
6.07758e-08
3.61767e-06
1.16397e-07
3.64006e-06
9.03945e-08
3.66483e-06
6.06309e-08
3.67651e-06
5.96138e-08
3.67644e-06
8.01229e-08
3.67729e-06
9.95907e-08
3.68608e-06
1.0298e-07
3.70079e-06
9.50127e-08
3.71286e-06
8.74867e-08
3.71648e-06
9.12882e-08
3.70744e-06
1.06402e-07
3.6893e-06
1.30684e-07
3.66361e-06
1.58281e-07
3.6376e-06
1.89967e-07
3.61571e-06
2.2751e-07
2.609e-07
3.59381e-06
3.92348e-06
-3.44632e-08
3.89229e-06
9.19693e-08
3.87214e-06
1.36549e-07
3.86026e-06
1.02269e-07
3.86553e-06
5.53686e-08
3.88263e-06
4.25155e-08
3.89992e-06
6.28252e-08
3.91172e-06
8.77917e-08
3.91817e-06
9.65308e-08
3.92177e-06
9.14159e-08
3.9239e-06
8.53561e-08
3.92616e-06
8.90256e-08
3.92841e-06
1.04153e-07
3.9315e-06
1.276e-07
3.93453e-06
1.55243e-07
3.93861e-06
1.85895e-07
3.94571e-06
2.20405e-07
2.56146e-07
3.95047e-06
4.30754e-06
1.7503e-08
4.29341e-06
1.06101e-07
4.30302e-06
1.26933e-07
4.29471e-06
1.10577e-07
4.26087e-06
8.92147e-08
4.23e-06
7.33795e-08
4.2243e-06
6.85346e-08
4.23916e-06
7.29244e-08
4.25421e-06
8.14841e-08
4.254e-06
9.16279e-08
4.2366e-06
1.02756e-07
4.21114e-06
1.14484e-07
4.18814e-06
1.27149e-07
4.17395e-06
1.41795e-07
4.16946e-06
1.59729e-07
4.17294e-06
1.82411e-07
4.18272e-06
2.10633e-07
2.44312e-07
4.19455e-06
4.45631e-06
-1.37861e-08
4.45039e-06
1.12019e-07
4.45354e-06
1.23791e-07
4.47273e-06
9.13837e-08
4.49521e-06
6.6734e-08
4.51437e-06
5.42161e-08
4.53013e-06
5.27815e-08
4.54209e-06
6.09654e-08
4.54753e-06
7.60447e-08
4.54485e-06
9.43066e-08
4.53626e-06
1.11343e-07
4.52683e-06
1.23915e-07
4.52115e-06
1.32831e-07
4.52183e-06
1.41116e-07
4.52861e-06
1.52948e-07
4.53986e-06
1.71164e-07
4.55295e-06
1.97542e-07
2.31965e-07
4.56529e-06
4.89253e-06
5.88145e-08
4.8706e-06
1.33947e-07
4.87319e-06
1.21198e-07
4.86846e-06
9.61152e-08
4.86125e-06
7.39388e-08
4.85111e-06
6.43569e-08
4.84276e-06
6.11382e-08
4.84391e-06
5.98086e-08
4.8576e-06
6.23569e-08
4.8791e-06
7.28051e-08
4.89928e-06
9.11646e-08
4.91034e-06
1.12857e-07
4.90963e-06
1.3354e-07
4.89962e-06
1.51128e-07
4.88637e-06
1.66194e-07
4.87552e-06
1.82016e-07
4.87186e-06
2.01202e-07
2.28482e-07
4.87534e-06
5.10703e-06
5.3132e-08
5.19256e-06
4.84163e-08
5.25982e-06
5.39406e-08
5.27799e-06
7.79438e-08
5.26234e-06
8.95841e-08
5.24342e-06
8.32776e-08
5.22994e-06
7.46207e-08
5.21275e-06
7.69967e-08
5.18585e-06
8.92553e-08
5.15522e-06
1.03435e-07
5.13149e-06
1.14895e-07
5.12021e-06
1.24138e-07
5.11994e-06
1.33816e-07
5.12505e-06
1.46008e-07
5.13088e-06
1.60369e-07
5.13453e-06
1.78361e-07
5.13685e-06
1.98883e-07
2.25343e-07
5.13999e-06
5.4957e-06
2.54308e-07
5.49599e-06
4.81243e-08
5.52877e-06
2.11693e-08
5.54847e-06
5.82371e-08
5.54843e-06
8.96232e-08
5.5405e-06
9.12055e-08
5.54052e-06
7.46095e-08
5.55085e-06
6.66585e-08
5.5636e-06
7.65133e-08
5.57067e-06
9.63631e-08
5.56965e-06
1.15916e-07
5.56304e-06
1.30742e-07
5.55449e-06
1.42365e-07
5.54645e-06
1.54049e-07
5.53958e-06
1.67247e-07
5.53398e-06
1.83957e-07
5.52942e-06
2.03442e-07
2.28061e-07
5.5267e-06
5.95092e-06
1.74931e-07
5.99733e-06
1.71046e-09
6.01534e-06
3.16157e-09
6.02254e-06
5.10351e-08
6.01681e-06
9.53555e-08
5.99477e-06
1.13239e-07
5.97082e-06
9.85644e-08
5.96432e-06
7.31571e-08
5.97955e-06
6.12845e-08
6.00415e-06
7.17637e-08
6.02171e-06
9.83527e-08
6.02273e-06
1.29723e-07
6.00818e-06
1.56917e-07
5.98675e-06
1.75474e-07
5.96794e-06
1.8606e-07
5.95798e-06
1.93915e-07
5.95828e-06
2.03145e-07
2.19497e-07
5.96684e-06
6.43385e-06
4.63665e-08
6.39028e-06
4.52838e-08
6.32752e-06
6.59191e-08
6.32062e-06
5.7934e-08
6.33587e-06
8.01033e-08
6.34415e-06
1.04964e-07
6.34318e-06
9.95277e-08
6.34361e-06
7.27259e-08
6.3536e-06
5.13033e-08
6.37467e-06
5.06862e-08
6.40146e-06
7.15682e-08
6.42594e-06
1.05244e-07
6.44232e-06
1.40536e-07
6.44838e-06
1.6941e-07
6.44573e-06
1.88707e-07
6.43796e-06
2.01685e-07
6.42985e-06
2.1126e-07
2.23659e-07
6.42569e-06
5.8292e-06
-1.19257e-07
5.75788e-06
1.16605e-07
5.71635e-06
1.07454e-07
5.72621e-06
4.80761e-08
5.75038e-06
5.59332e-08
5.76256e-06
9.27835e-08
5.75132e-06
1.10764e-07
5.72338e-06
1.00661e-07
5.69517e-06
7.95222e-08
5.68134e-06
6.4515e-08
5.68757e-06
6.53318e-08
5.71009e-06
8.27286e-08
5.73964e-06
1.1099e-07
5.76722e-06
1.41826e-07
5.78815e-06
1.67779e-07
5.80206e-06
1.87773e-07
5.81174e-06
2.01581e-07
2.15073e-07
5.82032e-06
6.89328e-06
-2.35619e-09
6.96999e-06
3.98949e-08
7.03885e-06
3.85921e-08
7.0548e-06
3.21199e-08
7.06128e-06
4.94578e-08
7.07977e-06
7.42958e-08
7.10199e-06
8.85404e-08
7.10962e-06
9.30315e-08
7.09884e-06
9.03039e-08
7.07899e-06
8.43593e-08
7.06109e-06
8.32359e-08
7.05054e-06
9.32755e-08
7.04763e-06
1.13901e-07
7.04969e-06
1.3977e-07
7.05431e-06
1.63156e-07
7.0602e-06
1.81882e-07
7.06827e-06
1.93514e-07
2.03159e-07
7.08018e-06
8.61423e-06
-1.25579e-08
8.5667e-06
8.74292e-08
8.53895e-06
6.63391e-08
8.51593e-06
5.51396e-08
8.49365e-06
7.17384e-08
8.4761e-06
9.18485e-08
8.46651e-06
9.81237e-08
8.47155e-06
8.79945e-08
8.48843e-06
7.34219e-08
8.50367e-06
6.91199e-08
8.50463e-06
8.22806e-08
8.48894e-06
1.08965e-07
8.46378e-06
1.39063e-07
8.43959e-06
1.63954e-07
8.42555e-06
1.77199e-07
8.42584e-06
1.81589e-07
8.44076e-06
1.78601e-07
1.77611e-07
8.4663e-06
1.02492e-05
1.95087e-07
1.01898e-05
1.46837e-07
1.01913e-05
6.47538e-08
1.01945e-05
5.19551e-08
1.01941e-05
7.21746e-08
1.02113e-05
7.45888e-08
1.02583e-05
5.11618e-08
1.03248e-05
2.15046e-08
1.03856e-05
1.25987e-08
1.04203e-05
3.44142e-08
1.04212e-05
8.13659e-08
1.03965e-05
1.33727e-07
1.03629e-05
1.72652e-07
1.03375e-05
1.89337e-07
1.03305e-05
1.84247e-07
1.03442e-05
1.67869e-07
1.03754e-05
1.47371e-07
1.34741e-07
1.04183e-05
1.25938e-05
2.90972e-09
1.26398e-05
1.00854e-07
1.26333e-05
7.12644e-08
1.26333e-05
5.19051e-08
1.26423e-05
6.32193e-08
1.26648e-05
5.20795e-08
1.27e-05
1.59389e-08
1.27323e-05
-1.0808e-08
1.27484e-05
-3.47667e-09
1.2742e-05
4.08571e-08
1.27258e-05
9.75443e-08
1.27172e-05
1.42325e-07
1.27264e-05
1.63476e-07
1.27524e-05
1.63293e-07
1.27881e-05
1.48547e-07
1.28262e-05
1.29782e-07
1.28621e-05
1.11442e-07
9.92673e-08
1.28976e-05
1.52493e-05
4.8783e-08
1.53049e-05
4.534e-08
1.53169e-05
5.92412e-08
1.53092e-05
5.95569e-08
1.53181e-05
5.43371e-08
1.5358e-05
1.22146e-08
1.54093e-05
-3.53341e-08
1.54445e-05
-4.60573e-08
1.54533e-05
-1.2272e-08
1.54539e-05
4.02803e-08
1.54588e-05
9.25802e-08
1.5471e-05
1.30169e-07
1.54869e-05
1.47596e-07
1.55015e-05
1.48711e-07
1.55117e-05
1.38308e-07
1.55185e-05
1.22939e-07
1.55251e-05
1.0484e-07
8.65575e-08
1.55378e-05
1.88939e-05
-1.90624e-08
1.89721e-05
-3.28346e-08
1.89447e-05
8.66581e-08
1.88769e-05
1.27318e-07
1.88651e-05
6.62039e-08
1.89169e-05
-3.96708e-08
1.89922e-05
-1.10571e-07
1.90497e-05
-1.03582e-07
1.90748e-05
-3.73444e-08
1.90642e-05
5.08401e-08
1.90377e-05
1.19053e-07
1.90147e-05
1.53213e-07
1.9006e-05
1.56342e-07
1.90141e-05
1.40527e-07
1.90345e-05
1.1793e-07
1.90613e-05
9.62064e-08
1.90874e-05
7.86851e-08
6.4245e-08
1.91097e-05
2.27041e-05
7.69551e-08
2.25976e-05
7.36458e-08
2.26101e-05
7.41436e-08
2.26888e-05
4.85844e-08
2.2732e-05
2.30117e-08
2.26897e-05
2.63068e-09
2.26044e-05
-2.5207e-08
2.256e-05
-5.92288e-08
2.2605e-05
-8.23407e-08
2.27365e-05
-8.0685e-08
2.29104e-05
-5.48491e-08
2.30795e-05
-1.58288e-08
2.32169e-05
1.89158e-08
2.33136e-05
4.3839e-08
2.3375e-05
5.64887e-08
2.34129e-05
5.83163e-08
2.34391e-05
5.2531e-08
4.28859e-08
2.34604e-05
1.66828e-05
-1.70635e-07
1.68532e-05
-9.67324e-08
1.69807e-05
-5.33901e-08
1.70083e-05
2.10417e-08
1.69375e-05
9.38069e-08
1.68267e-05
1.13387e-07
1.67415e-05
6.00296e-08
1.67127e-05
-3.04572e-08
1.67394e-05
-1.09066e-07
1.68027e-05
-1.43987e-07
1.68771e-05
-1.29218e-07
1.69399e-05
-7.86573e-08
1.69746e-05
-1.5714e-08
1.69767e-05
4.17499e-08
1.69569e-05
7.62785e-08
1.69282e-05
8.70225e-08
1.69035e-05
7.71517e-08
5.35677e-08
1.68929e-05
1.48855e-05
-1.06821e-07
1.47787e-05
1.01392e-08
1.47361e-05
-1.07913e-08
1.4704e-05
5.30962e-08
1.46884e-05
1.09423e-07
1.47063e-05
9.55259e-08
1.47425e-05
2.37384e-08
1.47685e-05
-5.64531e-08
1.4758e-05
-9.85434e-08
1.47126e-05
-9.85784e-08
1.46541e-05
-7.06845e-08
1.46053e-05
-2.98674e-08
1.45802e-05
9.41419e-09
1.45814e-05
4.05453e-08
1.45994e-05
5.82587e-08
1.46262e-05
6.0197e-08
1.46551e-05
4.82697e-08
2.56951e-08
1.4683e-05
1.28035e-05
-1.01739e-08
1.27751e-05
3.84923e-08
1.28463e-05
-8.19501e-08
1.2959e-05
-5.95713e-08
1.30469e-05
2.14768e-08
1.3063e-05
7.94076e-08
1.30039e-05
8.28969e-08
1.29007e-05
4.67666e-08
1.28e-05
2.11439e-09
1.27278e-05
-2.64273e-08
1.26944e-05
-3.72512e-08
1.26942e-05
-2.96223e-08
1.27137e-05
-1.01362e-08
1.27421e-05
1.21257e-08
1.27723e-05
2.80901e-08
1.27996e-05
3.28577e-08
1.28228e-05
2.51255e-08
7.01423e-09
1.28415e-05
1.11402e-05
4.94469e-08
1.11541e-05
2.46629e-08
1.11142e-05
-4.20743e-08
1.10649e-05
-1.02455e-08
1.10355e-05
5.08814e-08
1.1023e-05
9.19093e-08
1.10131e-05
9.27047e-08
1.10068e-05
5.31496e-08
1.10167e-05
-7.86778e-09
1.10513e-05
-6.10157e-08
1.11002e-05
-8.61086e-08
1.11509e-05
-8.03735e-08
1.11946e-05
-5.37943e-08
1.12284e-05
-2.17063e-08
1.12539e-05
2.57473e-09
1.12748e-05
1.20357e-08
1.12943e-05
5.61511e-09
-1.12548e-08
1.13125e-05
9.60315e-06
-1.23463e-07
9.63914e-06
-1.13229e-08
9.57831e-06
1.87546e-08
9.52831e-06
3.97516e-08
9.53697e-06
4.22273e-08
9.6011e-06
2.77758e-08
9.68282e-06
1.09834e-08
9.74963e-06
-1.36553e-08
9.78715e-06
-4.53952e-08
9.80001e-06
-7.38744e-08
9.80123e-06
-8.73248e-08
9.80264e-06
-8.17817e-08
9.8103e-06
-6.14549e-08
9.82462e-06
-3.60284e-08
9.84213e-06
-1.49358e-08
9.8579e-06
-3.7354e-09
9.8667e-06
-3.18005e-09
-9.94929e-09
9.86539e-06
8.27167e-06
-2.37904e-07
8.33448e-06
-7.41301e-08
8.38155e-06
-2.83151e-08
8.4371e-06
-1.57998e-08
8.48874e-06
-9.41872e-09
8.51962e-06
-3.10142e-09
8.53389e-06
-3.28316e-09
8.53787e-06
-1.76356e-08
8.5316e-06
-3.91261e-08
8.51336e-06
-5.56335e-08
8.48645e-06
-6.04229e-08
8.45975e-06
-5.5076e-08
8.44316e-06
-4.48649e-08
8.4422e-06
-3.50671e-08
8.45617e-06
-2.89091e-08
8.47978e-06
-2.73393e-08
8.5062e-06
-2.96073e-08
-3.2907e-08
8.52916e-06
7.19536e-06
-1.55251e-07
7.23346e-06
-1.12228e-07
7.23766e-06
-3.25129e-08
7.24358e-06
-2.17232e-08
7.27125e-06
-3.70892e-08
7.306e-06
-3.78457e-08
7.33374e-06
-3.10236e-08
7.34519e-06
-2.90913e-08
7.33859e-06
-3.25252e-08
7.31931e-06
-3.63505e-08
7.2957e-06
-3.68118e-08
7.27444e-06
-3.38198e-08
7.25929e-06
-2.97151e-08
7.25229e-06
-2.80702e-08
7.25485e-06
-3.14607e-08
7.26691e-06
-3.94046e-08
7.28769e-06
-5.03859e-08
-6.02693e-08
7.31505e-06
6.40888e-06
-1.61806e-07
6.39914e-06
-1.02486e-07
6.37689e-06
-1.02706e-08
6.37633e-06
-2.11627e-08
6.40095e-06
-6.17014e-08
6.44606e-06
-8.29577e-08
6.49264e-06
-7.76028e-08
6.52119e-06
-5.7641e-08
6.52741e-06
-3.87527e-08
6.51967e-06
-2.8601e-08
6.50919e-06
-2.63364e-08
6.50325e-06
-2.78785e-08
6.5036e-06
-3.00701e-08
6.50825e-06
-3.27121e-08
6.51381e-06
-3.70304e-08
6.51778e-06
-4.33683e-08
6.51844e-06
-5.10501e-08
-5.75522e-08
6.51573e-06
5.61064e-06
-4.22589e-08
5.5341e-06
-2.59462e-08
5.5644e-06
-4.05696e-08
5.61258e-06
-6.93397e-08
5.64228e-06
-9.1404e-08
5.65095e-06
-9.16222e-08
5.64204e-06
-6.86986e-08
5.62387e-06
-3.94698e-08
5.60701e-06
-2.18904e-08
5.59976e-06
-2.13563e-08
5.60634e-06
-3.29143e-08
5.62666e-06
-4.81949e-08
5.65692e-06
-6.03316e-08
5.69171e-06
-6.75051e-08
5.72493e-06
-7.02485e-08
5.75153e-06
-6.99667e-08
5.76725e-06
-6.67698e-08
-6.05838e-08
5.77028e-06
4.82021e-06
-5.21506e-08
4.89681e-06
-1.02543e-07
4.93964e-06
-8.33974e-08
4.93378e-06
-6.34777e-08
4.88902e-06
-4.6653e-08
4.84274e-06
-4.53368e-08
4.82456e-06
-5.05233e-08
4.83868e-06
-5.35814e-08
4.86963e-06
-5.28435e-08
4.89688e-06
-4.86041e-08
4.90626e-06
-4.22942e-08
4.89518e-06
-3.71192e-08
4.87106e-06
-3.62087e-08
4.8443e-06
-4.07493e-08
4.8227e-06
-4.86428e-08
4.80933e-06
-5.65972e-08
4.80385e-06
-6.12951e-08
-6.09508e-08
4.80422e-06
4.13567e-06
4.03313e-06
3.94973e-06
3.88625e-06
3.8396e-06
3.79426e-06
3.74374e-06
3.69016e-06
3.63732e-06
3.58871e-06
3.54642e-06
3.5093e-06
3.47309e-06
3.43234e-06
3.3837e-06
3.3271e-06
3.26581e-06
3.20486e-06
-4.95839e-07
4.95839e-07
-9.77513e-07
4.81673e-07
-1.35732e-06
3.79805e-07
-1.56899e-06
2.11671e-07
-1.60084e-06
3.18485e-08
-1.47325e-06
-1.27592e-07
-1.18759e-06
-2.85651e-07
-7.68449e-07
-4.19145e-07
-2.95715e-07
-4.72734e-07
1.31095e-07
-4.2681e-07
4.4898e-07
-3.17886e-07
6.33171e-07
-1.84191e-07
6.93302e-07
-6.01308e-08
6.55124e-07
3.8178e-08
5.49519e-07
1.05605e-07
4.06257e-07
1.43262e-07
2.48818e-07
1.57439e-07
9.34685e-08
1.55349e-07
-5.18531e-08
1.45322e-07
-1.84529e-07
1.32676e-07
-3.04398e-07
1.19868e-07
-4.12981e-07
1.08583e-07
-5.12231e-07
9.92499e-08
-6.03657e-07
9.14264e-08
-6.88396e-07
8.47391e-08
-7.66948e-07
7.85518e-08
-8.39472e-07
7.2524e-08
-9.05913e-07
6.64408e-08
-9.65573e-07
5.96598e-08
-1.01835e-06
5.27743e-08
-1.06361e-06
4.52644e-08
-1.10075e-06
3.71366e-08
-1.1307e-06
2.99504e-08
-1.15224e-06
2.15422e-08
-1.16837e-06
1.61289e-08
-1.18e-06
1.16286e-08
-1.18854e-06
8.54401e-09
-1.20525e-06
1.67105e-08
-1.22607e-06
2.0816e-08
-1.27847e-06
5.23981e-08
-1.36274e-06
8.42738e-08
-1.52047e-06
1.57732e-07
-1.78714e-06
2.66672e-07
-2.04125e-06
2.54108e-07
-2.17416e-06
1.32907e-07
-2.15819e-06
-1.59654e-08
-2.15741e-06
-7.87981e-10
-2.19399e-06
3.6588e-08
-2.27369e-06
7.96999e-08
-2.35532e-06
8.16253e-08
-2.35524e-06
-8.11891e-11
-2.24027e-06
-1.14971e-07
-2.02483e-06
-2.15434e-07
-1.7344e-06
-2.90428e-07
-1.39754e-06
-3.36865e-07
-1.0333e-06
-3.64243e-07
-6.52733e-07
-3.80563e-07
-2.63072e-07
-3.89661e-07
1.3426e-07
-3.97332e-07
5.50276e-07
-4.16016e-07
1.01932e-06
-4.69039e-07
1.56594e-06
-5.46629e-07
2.17162e-06
-6.05676e-07
2.78555e-06
-6.13925e-07
3.34888e-06
-5.63338e-07
3.82983e-06
-4.80945e-07
4.17355e-06
-3.43718e-07
4.25488e-06
-8.13306e-08
4.02628e-06
2.28595e-07
3.5566e-06
4.69683e-07
2.92261e-06
6.33986e-07
2.39333e-06
5.29284e-07
2.28761e-06
1.05721e-07
2.29267e-06
-5.06575e-09
1.96207e-06
3.306e-07
1.11902e-06
8.43055e-07
-3.52882e-08
1.15431e-06
-1.23462e-06
1.19934e-06
-2.34201e-06
1.10738e-06
-3.30129e-06
9.59278e-07
-4.09819e-06
7.96903e-07
-4.73878e-06
6.40596e-07
-5.24133e-06
5.02544e-07
-5.63055e-06
3.89223e-07
-5.93398e-06
3.0343e-07
-6.17835e-06
2.44366e-07
-6.38717e-06
2.08829e-07
-6.57909e-06
1.91919e-07
-6.76733e-06
1.88237e-07
-6.95993e-06
1.92594e-07
-7.16071e-06
2.00787e-07
-7.3703e-06
2.09584e-07
-7.58672e-06
2.16421e-07
-7.80612e-06
2.19402e-07
-8.02359e-06
2.17468e-07
-8.23368e-06
2.10097e-07
-8.43064e-06
1.96952e-07
-8.60852e-06
1.77888e-07
-8.76149e-06
1.52968e-07
-8.88393e-06
1.22434e-07
-8.97062e-06
8.66901e-08
-9.01684e-06
4.62238e-08
-9.01924e-06
2.39831e-09
-8.97593e-06
-4.33051e-08
-8.88485e-06
-9.10847e-08
-8.74422e-06
-1.40624e-07
-8.55304e-06
-1.91185e-07
-8.31102e-06
-2.42015e-07
-8.01869e-06
-2.92333e-07
-7.67738e-06
-3.41312e-07
-7.28931e-06
-3.88069e-07
-6.85764e-06
-4.31674e-07
-6.38639e-06
-4.71248e-07
-5.88028e-06
-5.06106e-07
-5.34465e-06
-5.35627e-07
-4.7856e-06
-5.59055e-07
-4.20962e-06
-5.75978e-07
-3.62301e-06
-5.86608e-07
-3.03195e-06
-5.91061e-07
-2.44264e-06
-5.89316e-07
-1.86146e-06
-5.81173e-07
-1.29351e-06
-5.6795e-07
-7.44031e-07
-5.49482e-07
-2.20246e-07
-5.23785e-07
2.77725e-07
-4.97971e-07
7.41067e-07
-4.63342e-07
1.16661e-06
-4.25542e-07
1.55197e-06
-3.85357e-07
1.89618e-06
-3.44214e-07
2.19985e-06
-3.03673e-07
2.4648e-06
-2.64949e-07
2.69348e-06
-2.28679e-07
2.88905e-06
-1.95567e-07
3.05634e-06
-1.67297e-07
3.20161e-06
-1.45264e-07
3.32806e-06
-1.26448e-07
3.42867e-06
-1.00618e-07
3.48509e-06
-5.64112e-08
3.48141e-06
3.67512e-09
3.41925e-06
6.21605e-08
3.31637e-06
1.02878e-07
3.19641e-06
1.19959e-07
3.07845e-06
1.17961e-07
2.97225e-06
1.06202e-07
2.87973e-06
9.25145e-08
2.79862e-06
8.11101e-08
2.72596e-06
7.26624e-08
2.65999e-06
6.59764e-08
2.60112e-06
5.88694e-08
2.55147e-06
4.96424e-08
2.51375e-06
3.77221e-08
2.49016e-06
2.35927e-08
2.48137e-06
8.78637e-09
2.48632e-06
-4.95124e-09
2.50263e-06
-1.6306e-08
2.52861e-06
-2.5978e-08
2.56152e-06
-3.29121e-08
2.59675e-06
-3.5235e-08
2.63092e-06
-3.41623e-08
2.66545e-06
-3.45288e-08
2.70335e-06
-3.79045e-08
2.74449e-06
-4.11361e-08
2.78535e-06
-4.08647e-08
2.81775e-06
-3.24039e-08
2.82681e-06
-9.0599e-09
2.80375e-06
2.30619e-08
2.76807e-06
3.56864e-08
2.75184e-06
1.62303e-08
2.74968e-06
2.15799e-09
2.75697e-06
-7.2906e-09
2.83741e-06
-8.04451e-08
3.03351e-06
-1.961e-07
3.25416e-06
-2.20649e-07
3.49057e-06
-2.36411e-07
3.8666e-06
-3.76027e-07
4.26946e-06
-4.02856e-07
4.51418e-06
-2.44727e-07
4.8559e-06
-3.41716e-07
4.80268e-06
5.3223e-08
8.78781e-07
3.9239e-06
-2.6929e-07
7.6513e-07
-5.34127e-07
7.4651e-07
-7.11143e-07
5.5682e-07
-7.84977e-07
2.85505e-07
-7.79157e-07
2.60283e-08
-6.98587e-07
-2.08162e-07
-5.07142e-07
-4.77095e-07
-1.89293e-07
-7.36994e-07
1.98812e-07
-8.60839e-07
5.65575e-07
-7.93573e-07
8.38378e-07
-5.9069e-07
9.93147e-07
-3.3896e-07
1.04333e-06
-1.10315e-07
1.0107e-06
7.0812e-08
9.16091e-07
2.00212e-07
7.80921e-07
2.78432e-07
6.21917e-07
3.16442e-07
4.51339e-07
3.25928e-07
2.79597e-07
3.17064e-07
1.13498e-07
2.98775e-07
-4.44904e-08
2.77857e-07
-1.9349e-07
2.57582e-07
-3.33695e-07
2.39455e-07
-4.65935e-07
2.23666e-07
-5.90842e-07
2.09647e-07
-7.08584e-07
1.96293e-07
-8.18444e-07
1.82385e-07
-9.18883e-07
1.6688e-07
-1.00833e-06
1.49107e-07
-1.08461e-06
1.29058e-07
-1.1462e-06
1.06854e-07
-1.19208e-06
8.30177e-08
-1.22075e-06
5.86157e-08
-1.23324e-06
3.40328e-08
-1.22898e-06
1.18688e-08
-1.20823e-06
-9.12162e-09
-1.17291e-06
-2.67716e-08
-1.12209e-06
-3.41154e-08
-1.06236e-06
-3.89128e-08
-9.84058e-07
-2.59041e-08
-8.9168e-07
-8.10432e-09
-7.52347e-07
1.83982e-08
-5.62113e-07
7.64384e-08
-3.69545e-07
6.154e-08
-3.29018e-07
9.23803e-08
-3.8527e-07
4.02869e-08
-4.19848e-07
3.379e-08
-3.95278e-07
1.20178e-08
-3.01749e-07
-1.38289e-08
-1.37846e-07
-8.22775e-08
5.53847e-08
-1.93312e-07
2.64823e-07
-3.2441e-07
5.06462e-07
-4.57073e-07
7.75579e-07
-5.59545e-07
1.06396e-06
-6.25246e-07
1.36372e-06
-6.64002e-07
1.65706e-06
-6.73905e-07
1.94318e-06
-6.75785e-07
2.21821e-06
-6.72362e-07
2.47408e-06
-6.71887e-07
2.73961e-06
-7.34565e-07
3.00492e-06
-8.11941e-07
3.21658e-06
-8.17335e-07
3.40269e-06
-8.00036e-07
3.60803e-06
-7.68676e-07
3.83054e-06
-7.03451e-07
4.09167e-06
-6.04851e-07
4.37425e-06
-3.63909e-07
4.55932e-06
4.35197e-08
4.52629e-06
5.02716e-07
4.36284e-06
7.97431e-07
4.02396e-06
8.68171e-07
3.0796e-06
1.05008e-06
1.50205e-06
1.57249e-06
-2.35984e-07
2.06863e-06
-1.67314e-06
2.28021e-06
-2.77082e-06
2.25199e-06
-3.63948e-06
2.06799e-06
-4.33978e-06
1.80769e-06
-4.90217e-06
1.52167e-06
-5.34866e-06
1.24339e-06
-5.70003e-06
9.91965e-07
-5.9757e-06
7.78214e-07
-6.19482e-06
6.08347e-07
-6.37572e-06
4.84324e-07
-6.53485e-06
4.03498e-07
-6.68551e-06
3.59491e-07
-6.83707e-06
3.43481e-07
-6.99501e-06
3.46172e-07
-7.16164e-06
3.59226e-07
-7.33702e-06
3.76165e-07
-7.51947e-06
3.92033e-07
-7.70622e-06
4.03173e-07
-7.89387e-06
4.07058e-07
-8.07857e-06
4.02164e-07
-8.25597e-06
3.87494e-07
-8.42136e-06
3.62341e-07
-8.56982e-06
3.2635e-07
-8.69636e-06
2.79507e-07
-8.79608e-06
2.22154e-07
-8.86454e-06
1.55155e-07
-8.89731e-06
7.89943e-08
-8.89081e-06
-4.10139e-09
-8.84061e-06
-9.35025e-08
-8.74269e-06
-1.89007e-07
-8.59515e-06
-2.88161e-07
-8.39691e-06
-3.89434e-07
-8.14753e-06
-4.91395e-07
-7.84735e-06
-5.92512e-07
-7.49753e-06
-6.91129e-07
-7.10013e-06
-7.85464e-07
-6.65817e-06
-8.73636e-07
-6.17559e-06
-9.53827e-07
-5.65721e-06
-1.02449e-06
-5.10846e-06
-1.08437e-06
-4.53529e-06
-1.13222e-06
-3.94393e-06
-1.16734e-06
-3.34108e-06
-1.18946e-06
-2.73278e-06
-1.19935e-06
-2.12544e-06
-1.19665e-06
-1.52435e-06
-1.18227e-06
-9.3532e-07
-1.15698e-06
-3.64695e-07
-1.12011e-06
1.83708e-07
-1.07219e-06
7.01248e-07
-1.01551e-06
1.18509e-06
-9.47183e-07
1.63048e-06
-8.70929e-07
2.03446e-06
-7.89344e-07
2.39553e-06
-7.05282e-07
2.71348e-06
-6.21621e-07
2.98954e-06
-5.41005e-07
3.22698e-06
-4.66122e-07
3.43155e-06
-4.00134e-07
3.61026e-06
-3.46007e-07
3.76879e-06
-3.03794e-07
3.91078e-06
-2.68444e-07
4.04172e-06
-2.31554e-07
4.17158e-06
-1.86269e-07
4.30522e-06
-1.29965e-07
4.43037e-06
-6.29968e-08
4.52356e-06
9.69604e-09
4.56142e-06
8.20953e-08
4.5277e-06
1.51683e-07
4.42679e-06
2.0711e-07
4.28087e-06
2.3843e-07
4.11912e-06
2.42869e-07
3.96304e-06
2.28737e-07
3.8218e-06
2.07214e-07
3.698e-06
1.82673e-07
3.59368e-06
1.53961e-07
3.5114e-06
1.19999e-07
3.45242e-06
8.2573e-08
3.4156e-06
4.56154e-08
3.39769e-06
1.2954e-08
3.39467e-06
-1.32895e-08
3.40431e-06
-3.56174e-08
3.42465e-06
-5.3253e-08
3.45283e-06
-6.34079e-08
3.48509e-06
-6.64222e-08
3.52217e-06
-7.16107e-08
3.57432e-06
-9.00552e-08
3.65153e-06
-1.1835e-07
3.74295e-06
-1.32282e-07
3.80958e-06
-9.90377e-08
3.81499e-06
-1.44674e-08
3.76154e-06
7.65151e-08
3.66628e-06
1.30946e-07
3.54615e-06
1.36364e-07
3.46281e-06
8.54896e-08
3.46335e-06
-7.82814e-09
3.5164e-06
-1.33494e-07
3.62775e-06
-3.07449e-07
3.84125e-06
-4.34152e-07
4.11919e-06
-5.14344e-07
4.40465e-06
-6.61492e-07
4.79899e-06
-7.97196e-07
5.20214e-06
-6.47877e-07
5.56885e-06
-7.08422e-07
5.92995e-06
-3.07875e-07
6.85616e-07
6.12311e-06
2.59356e-07
5.05773e-07
3.94583e-07
6.11284e-07
5.05962e-07
4.45441e-07
6.16866e-07
1.74602e-07
6.97495e-07
-5.46013e-08
7.64886e-07
-2.75552e-07
8.62427e-07
-5.74637e-07
1.00083e-06
-8.75397e-07
1.1372e-06
-9.97209e-07
1.20344e-06
-8.59812e-07
1.18627e-06
-5.73524e-07
1.09083e-06
-2.43515e-07
9.37738e-07
4.27756e-08
7.59369e-07
2.49181e-07
5.7633e-07
3.83251e-07
3.87686e-07
4.67075e-07
1.96065e-07
5.08064e-07
3.16309e-09
5.18829e-07
-1.88555e-07
5.08782e-07
-3.76797e-07
4.87017e-07
-5.61753e-07
4.62813e-07
-7.46305e-07
4.42135e-07
-9.33048e-07
4.26197e-07
-1.12183e-06
4.12446e-07
-1.3095e-06
3.97317e-07
-1.49135e-06
3.78149e-07
-1.66205e-06
3.53079e-07
-1.81612e-06
3.20951e-07
-1.94879e-06
2.81776e-07
-2.05597e-06
2.36238e-07
-2.13486e-06
1.85747e-07
-2.18414e-06
1.32292e-07
-2.20299e-06
7.74751e-08
-2.19268e-06
2.37177e-08
-2.15008e-06
-3.07292e-08
-2.07688e-06
-8.23185e-08
-1.97709e-06
-1.26564e-07
-1.84996e-06
-1.61245e-07
-1.70039e-06
-1.88486e-07
-1.52388e-06
-2.02411e-07
-1.32156e-06
-2.10427e-07
-1.09182e-06
-2.11343e-07
-8.21923e-07
-1.93456e-07
-5.4528e-07
-2.15103e-07
-2.34357e-07
-2.18543e-07
7.50998e-08
-2.6917e-07
3.94545e-07
-2.85655e-07
7.27489e-07
-3.20927e-07
1.07729e-06
-3.63631e-07
1.42804e-06
-4.3303e-07
1.76709e-06
-5.32356e-07
2.08972e-06
-6.47038e-07
2.3926e-06
-7.59953e-07
2.67956e-06
-8.4651e-07
2.96276e-06
-9.08444e-07
3.23231e-06
-9.33551e-07
3.4584e-06
-9.00001e-07
3.65098e-06
-8.68364e-07
3.82013e-06
-8.41508e-07
3.94487e-06
-7.96626e-07
4.03901e-06
-8.28702e-07
4.11475e-06
-8.87686e-07
4.16992e-06
-8.72499e-07
4.25845e-06
-8.88572e-07
4.4283e-06
-9.38521e-07
4.57764e-06
-8.52796e-07
4.60514e-06
-6.32345e-07
4.5536e-06
-3.12369e-07
4.37938e-06
2.17737e-07
3.96853e-06
9.13569e-07
3.20882e-06
1.55714e-06
1.89763e-06
2.17936e-06
1.81413e-07
2.7663e-06
-1.35277e-06
3.10667e-06
-2.45748e-06
3.17334e-06
-3.22801e-06
3.05075e-06
-3.7792e-06
2.80318e-06
-4.20122e-06
2.49001e-06
-4.54729e-06
2.15377e-06
-4.84634e-06
1.82071e-06
-5.10743e-06
1.50448e-06
-5.3313e-06
1.21583e-06
-5.51779e-06
9.64702e-07
-5.67085e-06
7.6141e-07
-5.8001e-06
6.1358e-07
-5.9189e-06
5.22293e-07
-6.0402e-06
4.80788e-07
-6.17299e-06
4.76281e-07
-6.3216e-06
4.94781e-07
-6.48703e-06
5.24654e-07
-6.66811e-06
5.57246e-07
-6.86203e-06
5.85952e-07
-7.06516e-06
6.06304e-07
-7.27336e-06
6.15258e-07
-7.48212e-06
6.10916e-07
-7.68631e-06
5.91693e-07
-7.88051e-06
5.56534e-07
-8.05889e-06
5.04736e-07
-8.21546e-06
4.36068e-07
-8.34436e-06
3.51058e-07
-8.44013e-06
2.50925e-07
-8.49883e-06
1.37699e-07
-8.51594e-06
1.3004e-08
-8.48536e-06
-1.24079e-07
-8.406e-06
-2.68366e-07
-8.27613e-06
-4.18032e-07
-8.09442e-06
-5.71151e-07
-7.86017e-06
-7.25639e-07
-7.57355e-06
-8.79132e-07
-7.23564e-06
-1.02904e-06
-6.84853e-06
-1.17258e-06
-6.41527e-06
-1.30689e-06
-5.9399e-06
-1.4292e-06
-5.42735e-06
-1.53704e-06
-4.8833e-06
-1.62842e-06
-4.31373e-06
-1.7018e-06
-3.72496e-06
-1.7561e-06
-3.1233e-06
-1.79113e-06
-2.51517e-06
-1.80748e-06
-1.90532e-06
-1.8065e-06
-1.29937e-06
-1.78822e-06
-7.03329e-07
-1.75302e-06
-1.23951e-07
-1.69948e-06
4.36444e-07
-1.63258e-06
9.66352e-07
-1.54542e-06
1.4615e-06
-1.44233e-06
1.91668e-06
-1.32611e-06
2.32781e-06
-1.20047e-06
2.69205e-06
-1.06953e-06
3.00808e-06
-9.37653e-07
3.27663e-06
-8.09546e-07
3.50094e-06
-6.90441e-07
3.68675e-06
-5.85941e-07
3.84155e-06
-5.00808e-07
3.97408e-06
-4.3632e-07
4.09355e-06
-3.87912e-07
4.20822e-06
-3.46227e-07
4.32395e-06
-3.01998e-07
4.4443e-06
-2.50322e-07
4.57133e-06
-1.90026e-07
4.70197e-06
-1.20938e-07
4.82518e-06
-4.11149e-08
4.92356e-06
5.3306e-08
4.97393e-06
1.56734e-07
4.95719e-06
2.55171e-07
4.86934e-06
3.30723e-07
4.72715e-06
3.70927e-07
4.56037e-06
3.73994e-07
4.39691e-06
3.46126e-07
4.25397e-06
2.96904e-07
4.13786e-06
2.36109e-07
4.04838e-06
1.72052e-07
3.98305e-06
1.10951e-07
3.93839e-06
5.76098e-08
3.91051e-06
1.45924e-08
3.89446e-06
-1.95679e-08
3.88697e-06
-4.57664e-08
3.8833e-06
-5.9739e-08
3.877e-06
-6.01191e-08
3.86958e-06
-6.41917e-08
3.87782e-06
-9.82969e-08
3.91832e-06
-1.58849e-07
3.98196e-06
-1.95918e-07
4.0326e-06
-1.49683e-07
4.02952e-06
-1.13826e-08
3.95673e-06
1.49304e-07
3.84023e-06
2.47441e-07
3.73233e-06
2.44267e-07
3.67629e-06
1.41528e-07
3.70062e-06
-3.21534e-08
3.80242e-06
-2.35302e-07
3.96161e-06
-4.66637e-07
4.15998e-06
-6.32525e-07
4.39821e-06
-7.52569e-07
4.65489e-06
-9.18171e-07
4.9484e-06
-1.09071e-06
5.34562e-06
-1.04509e-06
5.74433e-06
-1.10714e-06
6.17034e-06
-7.33882e-07
3.16084e-07
6.53987e-06
4.66706e-07
3.90676e-08
8.97073e-07
1.80917e-07
1.22631e-06
1.16207e-07
1.46599e-06
-6.50819e-08
1.6211e-06
-2.09714e-07
1.76093e-06
-4.15375e-07
1.88563e-06
-6.99344e-07
1.88213e-06
-8.71896e-07
1.72504e-06
-8.40117e-07
1.42303e-06
-5.57804e-07
1.05374e-06
-2.04229e-07
7.00954e-07
1.09269e-07
3.85233e-07
3.58497e-07
1.25002e-07
5.09412e-07
-8.82594e-08
5.96512e-07
-2.77929e-07
6.56745e-07
-4.68904e-07
6.99039e-07
-6.74073e-07
7.23998e-07
-9.03867e-07
7.38576e-07
-1.16491e-06
7.48064e-07
-1.45512e-06
7.53019e-07
-1.76607e-06
7.53086e-07
-2.08638e-06
7.4651e-07
-2.40354e-06
7.29603e-07
-2.705e-06
6.98777e-07
-2.97954e-06
6.52691e-07
-3.21851e-06
5.92044e-07
-3.41618e-06
5.18622e-07
-3.56904e-06
4.34639e-07
-3.67529e-06
3.4249e-07
-3.73453e-06
2.4498e-07
-3.74738e-06
1.45147e-07
-3.71642e-06
4.65125e-08
-3.641e-06
-5.17014e-08
-3.52778e-06
-1.43948e-07
-3.38174e-06
-2.28361e-07
-3.20498e-06
-3.03324e-07
-2.99835e-06
-3.67875e-07
-2.76661e-06
-4.20224e-07
-2.50891e-06
-4.6011e-07
-2.22772e-06
-4.9162e-07
-1.92607e-06
-5.1299e-07
-1.59281e-06
-5.26716e-07
-1.259e-06
-5.48913e-07
-9.12841e-07
-5.64706e-07
-5.91041e-07
-5.90969e-07
-2.55159e-07
-6.21537e-07
8.67921e-08
-6.62878e-07
4.39819e-07
-7.16658e-07
7.91221e-07
-7.84432e-07
1.13041e-06
-8.71542e-07
1.45486e-06
-9.71485e-07
1.76102e-06
-1.06611e-06
2.05566e-06
-1.14116e-06
2.33804e-06
-1.19082e-06
2.59201e-06
-1.18752e-06
2.8089e-06
-1.11689e-06
2.95535e-06
-1.01482e-06
3.04212e-06
-9.28274e-07
3.09629e-06
-8.50794e-07
3.02052e-06
-7.52932e-07
2.87893e-06
-7.46097e-07
2.9394e-06
-9.32974e-07
3.15345e-06
-1.10262e-06
3.27598e-06
-1.06105e-06
3.23514e-06
-8.11955e-07
2.97822e-06
-3.75427e-07
2.4549e-06
2.10949e-07
1.72681e-06
9.4583e-07
8.2892e-07
1.81146e-06
-2.66223e-07
2.65228e-06
-1.40174e-06
3.31488e-06
-2.32226e-06
3.68682e-06
-2.95484e-06
3.73925e-06
-3.36626e-06
3.58476e-06
-3.64857e-06
3.33305e-06
-3.87537e-06
3.02998e-06
-4.09011e-06
2.70475e-06
-4.30591e-06
2.36956e-06
-4.51728e-06
2.03208e-06
-4.71074e-06
1.69795e-06
-4.87236e-06
1.37744e-06
-4.9949e-06
1.08724e-06
-5.082e-06
8.48512e-07
-5.14759e-06
6.79177e-07
-5.21113e-06
5.85828e-07
-5.2909e-06
5.60559e-07
-5.39871e-06
5.84087e-07
-5.53868e-06
6.34758e-07
-5.7096e-06
6.9557e-07
-5.90752e-06
7.5517e-07
-6.12743e-06
8.05857e-07
-6.36451e-06
8.43388e-07
-6.61293e-06
8.63675e-07
-6.86623e-06
8.6421e-07
-7.11781e-06
8.43274e-07
-7.36069e-06
7.99415e-07
-7.58757e-06
7.31616e-07
-7.79112e-06
6.39617e-07
-7.96431e-06
5.24256e-07
-8.10085e-06
3.87461e-07
-8.19534e-06
2.32193e-07
-8.24598e-06
6.36363e-08
-8.24212e-06
-1.27932e-07
-8.18496e-06
-3.25525e-07
-8.07322e-06
-5.2978e-07
-7.90562e-06
-7.38749e-07
-7.68173e-06
-9.49525e-07
-7.40198e-06
-1.15888e-06
-7.06779e-06
-1.36323e-06
-6.68161e-06
-1.55875e-06
-6.24697e-06
-1.74154e-06
-5.76839e-06
-1.90777e-06
-5.2515e-06
-2.05393e-06
-4.70263e-06
-2.17729e-06
-4.12867e-06
-2.27576e-06
-3.53703e-06
-2.34774e-06
-2.93482e-06
-2.39334e-06
-2.32794e-06
-2.41436e-06
-1.72164e-06
-2.41281e-06
-1.11884e-06
-2.39101e-06
-5.20981e-07
-2.35088e-06
6.89125e-08
-2.28938e-06
6.42709e-07
-2.20638e-06
1.19363e-06
-2.09634e-06
1.7131e-06