/*--------------------------------*- C++ -*----------------------------------*\
  =========                 |
  \\      /  F ield         | OpenFOAM: The Open Source CFD Toolbox
   \\    /   O peration     | Website:  https://openfoam.org
    \\  /    A nd           | Version:  9
     \\/     M anipulation  |
\*---------------------------------------------------------------------------*/
FoamFile
{
    format      ascii;
    class       volScalarField;
    location    "0.078";
    object      pMean;
}
// * * * * * * * * * * * * * * * * * * * * * * * * * * * * * * * * * * * * * //

dimensions      [0 2 -2 0 0 0 0];

internalField   nonuniform List<scalar> 
12225
(
-3.17616
-3.75797
-4.06997
-4.19399
-4.25396
-4.30231
-4.3484
-4.38804
-4.41632
-4.43062
-4.43062
-4.41603
-4.38824
-4.34775
-4.30294
-4.26953
-4.29034
-4.46617
-3.42024
-3.78895
-4.07194
-4.20399
-4.26549
-4.3122
-4.35739
-4.39707
-4.42608
-4.44143
-4.44344
-4.4313
-4.4083
-4.3727
-4.3393
-4.31233
-4.35312
-4.52533
-3.47125
-3.79218
-4.06365
-4.20673
-4.27358
-4.31999
-4.36453
-4.40484
-4.43518
-4.4529
-4.45785
-4.45158
-4.43555
-4.41457
-4.39609
-4.40119
-4.46447
-4.64857
-3.62521
-3.84344
-4.07429
-4.21864
-4.28977
-4.3351
-4.37775
-4.41779
-4.4497
-4.46996
-4.47913
-4.47843
-4.4717
-4.4634
-4.46394
-4.49112
-4.57176
-4.7365
-3.71217
-3.87732
-4.07707
-4.22109
-4.29933
-4.34692
-4.38879
-4.42875
-4.46221
-4.48581
-4.49961
-4.50587
-4.50845
-4.51296
-4.52934
-4.57208
-4.65861
-4.80173
-3.80253
-3.93051
-4.09881
-4.2344
-4.31646
-4.36628
-4.40746
-4.447
-4.48177
-4.50838
-4.5268
-4.53961
-4.55102
-4.56698
-4.59596
-4.64871
-4.73603
-4.86438
-3.89483
-3.98303
-4.11764
-4.24333
-4.32844
-4.38189
-4.42356
-4.46304
-4.4996
-4.5301
-4.55411
-4.57406
-4.5943
-4.62046
-4.65946
-4.71901
-4.80616
-4.92486
-3.97847
-4.03783
-4.14832
-4.26137
-4.34612
-4.4029
-4.44608
-4.48557
-4.52306
-4.55665
-4.58579
-4.61248
-4.64066
-4.67533
-4.72207
-4.78642
-4.87319
-4.98442
-4.04056
-4.09299
-4.1815
-4.28042
-4.36283
-4.42241
-4.46786
-4.50871
-4.54802
-4.58502
-4.61924
-4.65236
-4.68783
-4.72983
-4.78285
-4.85086
-4.93706
-5.04237
-4.10278
-4.14624
-4.22036
-4.30596
-4.38395
-4.44534
-4.49334
-4.53547
-4.57637
-4.6165
-4.65565
-4.69487
-4.73689
-4.78518
-4.84334
-4.91424
-4.9998
-5.1003
-4.18228
-4.20692
-4.26246
-4.33692
-4.41012
-4.47084
-4.52041
-4.56497
-4.60847
-4.65193
-4.69538
-4.73989
-4.78762
-4.84125
-4.90342
-4.97608
-5.06069
-5.15726
-4.23756
-4.25004
-4.29542
-4.36314
-4.43325
-4.49441
-4.54629
-4.59325
-4.63913
-4.68552
-4.73298
-4.78216
-4.83461
-4.89244
-4.95771
-5.03205
-5.11606
-5.20969
-4.30523
-4.30474
-4.34079
-4.40007
-4.46432
-4.52332
-4.5758
-4.62481
-4.67322
-4.72244
-4.77316
-4.8262
-4.88272
-4.94417
-5.01199
-5.08717
-5.17032
-5.26133
-4.32923
-4.34674
-4.38326
-4.43493
-4.49381
-4.55261
-4.60808
-4.66053
-4.71203
-4.76453
-4.81915
-4.87646
-4.93715
-5.00216
-5.07244
-5.14878
-5.23143
-5.32021
-4.36595
-4.40556
-4.44494
-4.488
-4.53845
-4.59372
-4.64986
-4.70509
-4.75985
-4.81571
-4.8739
-4.93508
-4.9996
-5.06791
-5.14049
-5.2177
-5.29963
-5.38606
-4.47096
-4.47222
-4.4926
-4.53102
-4.58211
-4.63946
-4.69807
-4.75599
-4.81386
-4.87328
-4.93534
-5.00042
-5.06854
-5.13978
-5.21439
-5.29252
-5.37421
-5.45923
-4.5999
-4.56004
-4.55481
-4.58611
-4.63746
-4.69495
-4.75316
-4.81214
-4.87309
-4.93658
-5.0028
-5.07164
-5.14306
-5.21698
-5.29349
-5.37252
-5.45415
-5.53795
-4.58814
-4.58267
-4.59894
-4.63785
-4.68982
-4.74759
-4.80825
-4.87114
-4.93634
-5.00387
-5.07375
-5.14596
-5.22038
-5.29686
-5.37529
-5.45557
-5.53755
-5.62103
-4.55181
-4.58739
-4.63325
-4.68452
-4.7403
-4.80075
-4.8651
-4.93228
-5.00174
-5.07338
-5.14709
-5.22271
-5.30007
-5.37907
-5.45953
-5.54126
-5.62406
-5.70783
-4.61622
-4.6329
-4.66473
-4.71069
-4.76787
-4.83284
-4.90225
-4.97366
-5.04637
-5.12074
-5.19714
-5.2754
-5.35517
-5.43611
-5.51803
-5.60082
-5.68436
-5.76848
-4.55976
-4.59579
-4.64852
-4.71184
-4.78089
-4.85188
-4.9241
-4.99768
-5.07285
-5.14982
-5.22859
-5.30881
-5.39011
-5.47225
-5.55508
-5.63847
-5.72235
-5.80662
-4.59627
-4.60473
-4.64424
-4.70686
-4.78002
-4.85615
-4.9322
-5.00819
-5.08528
-5.16434
-5.24518
-5.32718
-5.40986
-5.493
-5.57663
-5.66068
-5.74504
-5.82948
-4.50035
-4.55967
-4.63014
-4.70583
-4.78474
-4.86351
-4.94109
-5.01881
-5.09789
-5.17864
-5.26082
-5.34382
-5.42719
-5.51083
-5.59478
-5.67899
-5.76337
-5.84788
-4.45341
-4.5071
-4.59039
-4.68339
-4.77256
-4.85479
-4.93358
-5.01295
-5.09446
-5.17775
-5.26185
-5.34609
-5.43035
-5.51472
-5.59926
-5.68392
-5.76855
-5.85286
-4.51355
-4.51208
-4.58136
-4.6849
-4.78222
-4.86506
-4.94214
-5.02121
-5.10374
-5.18798
-5.27237
-5.35658
-5.44072
-5.52494
-5.60932
-5.69378
-5.77812
-5.86231
-4.3377
-4.42228
-4.54548
-4.66659
-4.76604
-4.84889
-4.92794
-5.01016
-5.0955
-5.18165
-5.26731
-5.35234
-5.43711
-5.52194
-5.60684
-5.69165
-5.77621
-5.86039
-4.27517
-4.41059
-4.5581
-4.67958
-4.7722
-4.85137
-4.93077
-5.01456
-5.10073
-5.18675
-5.27195
-5.35666
-5.4413
-5.526
-5.61068
-5.69517
-5.77932
-5.86294
-4.15194
-4.33533
-4.52908
-4.66644
-4.75822
-4.83703
-4.91942
-5.00622
-5.09395
-5.18067
-5.26633
-5.35146
-5.43646
-5.5214
-5.60621
-5.69074
-5.77494
-5.85893
-4.1614
-4.34594
-4.54299
-4.67256
-4.75851
-4.83684
-4.92033
-5.00761
-5.09521
-5.18167
-5.26717
-5.35223
-5.43722
-5.52213
-5.60695
-5.69128
-5.77515
-5.85818
-3.88958
-4.30322
-4.54612
-4.66611
-4.74849
-4.82916
-4.91477
-5.00292
-5.09083
-5.17751
-5.26323
-5.34846
-5.4336
-5.51858
-5.60342
-5.68759
-5.77116
-5.85316
-8.10691
-8.32547
-8.53832
-8.5943
-8.44656
-8.16238
-7.89115
-7.78667
-7.93255
-8.32286
-8.90571
-9.60377
-10.335
-11.0311
-11.6457
-12.1541
-12.5441
-12.8084
-12.9466
-12.9681
-12.8957
-12.7362
-12.5067
-12.2346
-11.9636
-11.7414
-11.6212
-11.6088
-11.6614
-11.736
-11.8266
-11.9548
-12.1338
-12.3304
-12.5032
-12.6403
-12.7445
-12.9083
-13.2212
-13.6349
-14.0155
-14.318
-14.5962
-14.9292
-15.4178
-15.9892
-16.5411
-17.058
-17.4617
-17.7712
-18.1505
-18.5504
-18.9267
-19.2854
-19.6098
-19.8571
-19.9959
-20.1678
-20.4507
-20.8282
-21.2403
-21.6702
-21.9676
-22.22
-22.5832
-23.1024
-23.7135
-24.3762
-25.0394
-25.6715
-26.2473
-26.7608
-27.2263
-27.709
-28.2553
-28.8361
-29.3869
-29.8364
-30.1276
-30.2395
-30.1889
-30.021
-29.7376
-29.3639
-28.8721
-28.3368
-27.6461
-26.8583
-26.1218
-25.7911
-25.8679
-26.0466
-26.1058
-25.9318
-25.4671
-24.6924
-23.6059
-22.2169
-20.5392
-18.5917
-16.3975
-13.9848
-11.3877
-8.64628
-5.80577
-2.91611
-0.0295332
2.80215
5.52987
8.10975
10.5047
12.6858
14.6351
16.3476
17.8282
19.0885
20.1425
21.0044
21.6876
22.2044
22.5661
22.7842
22.8703
22.8373
22.6986
22.4683
22.16
21.7874
21.3639
20.9018
20.4124
19.9057
19.3908
18.8755
18.3665
17.8696
17.3897
16.9308
16.4965
16.0899
15.7138
15.3702
15.0607
14.7863
14.5477
14.3448
14.1775
14.0452
13.9472
13.8829
13.851
13.8502
13.8783
13.932
14.0057
14.0908
14.176
14.248
14.2942
14.3102
14.3053
14.304
14.3205
14.3356
14.3418
14.3491
14.3445
14.3255
14.304
14.2904
14.284
14.2823
14.2878
14.3037
14.3258
14.3428
14.3583
14.3753
14.4125
14.4201
-9.11601
-9.32239
-9.51056
-9.61547
-9.5082
-9.30782
-9.14828
-9.15807
-9.39402
-9.83095
-10.4045
-11.041
-11.6771
-12.2656
-12.7759
-13.1902
-13.5027
-13.7124
-13.8171
-13.8286
-13.7445
-13.5882
-13.3889
-13.1524
-12.894
-12.6823
-12.5305
-12.4643
-12.4517
-12.496
-12.6745
-12.9527
-13.2714
-13.5732
-13.8196
-14.0253
-14.2075
-14.4033
-14.673
-15.0378
-15.4044
-15.6991
-15.9423
-16.2002
-16.6046
-17.0907
-17.629
-18.2699
-18.7427
-19.1172
-19.5451
-19.9638
-20.3301
-20.6342
-20.8637
-21.0766
-21.2237
-21.3684
-21.5958
-21.8884
-22.1898
-22.5667
-22.9545
-23.3209
-23.8079
-24.4041
-25.0706
-25.7603
-26.4265
-27.0354
-27.5675
-28.0418
-28.4858
-28.949
-29.4707
-30.0162
-30.523
-30.9256
-31.1666
-31.2266
-31.1165
-30.8842
-30.5371
-30.0923
-29.5613
-29.0003
-28.4492
-27.9202
-27.4542
-27.248
-27.287
-27.3332
-27.2432
-26.9243
-26.3365
-25.461
-24.2941
-22.84
-21.1095
-19.118
-16.8853
-14.437
-11.8061
-9.03225
-6.16093
-3.24182
-0.326727
2.53276
5.28777
7.89427
10.3145
12.5184
14.4867
16.2136
17.7047
18.9727
20.0328
20.9002
21.5886
22.1105
22.4773
22.6999
22.79
22.761
22.6259
22.3988
22.0935
21.7238
21.303
20.8435
20.3566
19.8523
19.3395
18.826
18.3185
17.8226
17.3432
16.8846
16.4504
16.0439
15.6676
15.3238
15.0139
14.739
14.4992
14.2949
14.1256
13.991
13.8904
13.8226
13.7863
13.7797
13.8002
13.8437
13.9039
13.9719
14.0375
14.0908
14.1252
14.1435
14.16
14.1942
14.2383
14.2519
14.2452
14.2492
14.2452
14.228
14.2117
14.2051
14.2051
14.208
14.2149
14.2279
14.2471
14.2648
14.2913
14.3132
14.3515
14.3336
-8.81662
-8.91763
-9.17206
-9.52892
-9.88322
-10.2078
-10.5437
-10.945
-11.443
-12.018
-12.6194
-13.2034
-13.7356
-14.1955
-14.5708
-14.8573
-15.055
-15.1667
-15.2012
-15.1724
-15.0817
-14.9324
-14.7402
-14.5227
-14.2883
-14.0737
-13.8866
-13.7453
-13.6811
-13.708
-13.8415
-14.0665
-14.3535
-14.6624
-14.9612
-15.2258
-15.5013
-15.8343
-16.2123
-16.6127
-16.9547
-17.2033
-17.3564
-17.5713
-17.9582
-18.4577
-18.9959
-19.6198
-20.2432
-20.7999
-21.2977
-21.7075
-22.0139
-22.2392
-22.426
-22.581
-22.7183
-22.8582
-23.0132
-23.2072
-23.4795
-23.8511
-24.3466
-24.9369
-25.6134
-26.342
-27.0861
-27.8015
-28.4475
-28.9987
-29.459
-29.8787
-30.3045
-30.7652
-31.2609
-31.7464
-32.1681
-32.4738
-32.6155
-32.5792
-32.3734
-32.0348
-31.5938
-31.0913
-30.5835
-30.1379
-29.8277
-29.601
-29.441
-29.3399
-29.2561
-29.1019
-28.8126
-28.3267
-27.6074
-26.6291
-25.3818
-23.8629
-22.0781
-20.0379
-17.7597
-15.2669
-12.5908
-9.76969
-6.84873
-3.87856
-0.912519
1.99692
4.80082
7.45503
9.92098
12.1668
14.1707
15.9254
17.4376
18.7217
19.795
20.6743
21.3742
21.9073
22.2848
22.5171
22.6164
22.5958
22.4686
22.2487
21.9503
21.5873
21.1728
20.7193
20.238
19.7389
19.2308
18.7215
18.2177
17.7251
17.2486
16.7925
16.3603
15.9553
15.5799
15.2364
14.9262
14.6504
14.4095
14.2034
14.0318
13.8943
13.7901
13.7182
13.6769
13.6642
13.6771
13.7114
13.7615
13.8194
13.8764
13.9242
13.9578
13.9795
13.9975
14.0208
14.0489
14.0753
14.0986
14.1122
14.104
14.0823
14.067
14.0663
14.0751
14.0889
14.1071
14.1282
14.1537
14.1733
14.1977
14.2083
14.2397
14.2129
-8.82152
-8.94915
-9.33468
-9.90695
-10.5856
-11.296
-11.9911
-12.6709
-13.3374
-13.9764
-14.5648
-15.0878
-15.5327
-15.8925
-16.1682
-16.3679
-16.4994
-16.5683
-16.5874
-16.5577
-16.4867
-16.3763
-16.2291
-16.0556
-15.8726
-15.6863
-15.5112
-15.353
-15.2253
-15.1432
-15.1236
-15.1785
-15.3105
-15.5032
-15.7346
-16.0089
-16.3643
-16.8262
-17.3569
-17.8673
-18.2877
-18.6122
-18.8431
-19.0989
-19.4841
-20.0062
-20.6169
-21.2585
-21.8782
-22.4398
-22.9193
-23.3132
-23.625
-23.8783
-24.1026
-24.2886
-24.4325
-24.5445
-24.6552
-24.817
-25.1055
-25.5733
-26.2
-26.936
-27.7392
-28.5664
-29.3754
-30.1161
-30.7452
-31.2449
-31.6361
-31.9877
-32.3672
-32.7987
-33.2641
-33.7257
-34.1054
-34.329
-34.3615
-34.2154
-33.9091
-33.4883
-33.0117
-32.5376
-32.1101
-31.8411
-31.7198
-31.6823
-31.6377
-31.55
-31.3905
-31.1181
-30.6971
-30.0863
-29.2555
-28.1808
-26.8507
-25.2603
-23.4115
-21.3116
-18.9748
-16.4228
-13.6861
-10.8026
-7.81674
-4.77983
-1.74701
1.22762
4.09465
6.81068
9.33713
11.64
13.6933
15.4879
17.0309
18.3391
19.4325
20.3301
21.0475
21.5975
21.9909
22.2382
22.3515
22.3436
22.2283
22.0194
21.7315
21.3785
20.9737
20.5295
20.0568
19.5658
19.065
18.5622
18.0641
17.5762
17.1036
16.6505
16.2209
15.8178
15.4439
15.1013
14.7917
14.5159
14.2744
14.0672
13.894
13.7544
13.6472
13.5712
13.5247
13.5055
13.5109
13.5368
13.578
13.6277
13.6785
13.7241
13.7602
13.7881
13.8122
13.8367
13.8634
13.8863
13.8992
13.902
13.8977
13.88
13.8599
13.8547
13.8648
13.8841
13.9104
13.9385
13.9733
14.0053
14.0453
14.0643
14.0933
14.0567
-9.05922
-9.3474
-9.95015
-10.7453
-11.611
-12.4736
-13.3013
-14.078
-14.7993
-15.4658
-16.0713
-16.6039
-17.0528
-17.4121
-17.6844
-17.8824
-18.0191
-18.1041
-18.1463
-18.151
-18.1199
-18.0531
-17.9575
-17.8408
-17.7114
-17.5764
-17.4384
-17.2957
-17.1456
-16.9889
-16.8367
-16.7127
-16.647
-16.6617
-16.7714
-16.9929
-17.3513
-17.8454
-18.4119
-18.9686
-19.4543
-19.8731
-20.2504
-20.6443
-21.109
-21.6709
-22.3122
-22.9839
-23.6446
-24.2598
-24.7961
-25.2366
-25.579
-25.8489
-26.0759
-26.2566
-26.3899
-26.4916
-26.6049
-26.7941
-27.1558
-27.7078
-28.3919
-29.166
-29.9931
-30.8284
-31.6237
-32.3298
-32.9125
-33.3599
-33.6974
-33.9918
-34.3099
-34.6808
-35.0886
-35.4941
-35.8293
-36.0137
-36.0012
-35.8014
-35.4509
-35.012
-34.5635
-34.1761
-33.9081
-33.8097
-33.8336
-33.8784
-33.8741
-33.796
-33.6138
-33.2929
-32.8023
-32.1099
-31.1925
-30.0322
-28.621
-26.9552
-25.0354
-22.8669
-20.4619
-17.8411
-15.0338
-12.0768
-9.0141
-5.89816
-2.78729
0.261883
3.19928
5.98326
8.57715
10.9454
13.0578
14.9019
16.4844
17.8241
18.9442
19.8659
20.6065
21.1788
21.5928
21.8595
21.9905
21.9991
21.8992
21.7051
21.4315
21.0923
20.701
20.2695
19.8088
19.3285
18.8374
18.343
17.8518
17.3697
16.9019
16.453
16.0267
15.6263
15.2545
14.9137
14.6052
14.3302
14.0891
13.882
13.7086
13.5681
13.4592
13.3806
13.3302
13.3058
13.3045
13.3228
13.3558
13.3979
13.443
13.486
13.5235
13.5553
13.5841
13.613
13.6434
13.6709
13.6862
13.6892
13.6834
13.6639
13.6361
13.6149
13.6121
13.6286
13.6592
13.6955
13.7407
13.7848
13.8356
13.867
13.902
13.8747
-9.62285
-10.0952
-10.8972
-11.7796
-12.6956
-13.589
-14.4337
-15.2454
-16.0179
-16.7456
-17.4219
-18.0321
-18.5594
-18.9934
-19.3363
-19.6005
-19.7978
-19.9372
-20.0296
-20.0838
-20.1035
-20.0914
-20.0518
-19.9884
-19.907
-19.812
-19.7038
-19.5776
-19.4256
-19.2418
-19.0294
-18.8086
-18.6178
-18.5044
-18.5051
-18.6542
-18.9618
-19.413
-19.9502
-20.5132
-21.0557
-21.5659
-22.0615
-22.5701
-23.1205
-23.7349
-24.4076
-25.1081
-25.7997
-26.4453
-27.014
-27.4904
-27.8601
-28.132
-28.3359
-28.4885
-28.6034
-28.7036
-28.8333
-29.0789
-29.5209
-30.1124
-30.7906
-31.5228
-32.2755
-33.0123
-33.7003
-34.3032
-34.7951
-35.17
-35.4481
-35.6768
-35.9045
-36.1626
-36.4601
-36.7729
-37.0362
-37.1801
-37.1591
-36.974
-36.6616
-36.3058
-35.9811
-35.7515
-35.6708
-35.7387
-35.8795
-35.9964
-36.0495
-36.0152
-35.8558
-35.5365
-35.0237
-34.2887
-33.3125
-32.0846
-30.6019
-28.8636
-26.8711
-24.6293
-22.1508
-19.4554
-16.5708
-13.5328
-10.3846
-7.18024
-3.98201
-0.851033
2.16078
5.01349
7.67365
10.1065
12.2811
14.1804
15.8091
17.187
18.3398
19.2918
20.0616
20.6608
21.0996
21.3889
21.5409
21.5692
21.4881
21.3123
21.0566
20.7351
20.3606
19.9452
19.4991
19.0319
18.552
18.0666
17.5829
17.107
16.6443
16.1993
15.7763
15.3785
15.0091
14.6702
14.3635
14.0902
13.8509
13.6456
13.4737
13.3342
13.2258
13.1467
13.0948
13.0672
13.0609
13.0723
13.0971
13.1308
13.1687
13.2072
13.2438
13.2778
13.3107
13.3449
13.3809
13.4157
13.4419
13.4565
13.4588
13.4455
13.4189
13.3894
13.3689
13.367
13.389
13.4236
13.4693
13.5178
13.5763
13.6201
13.6646
13.6499
-10.815
-11.3077
-12.0635
-12.8638
-13.6873
-14.5301
-15.3673
-16.1918
-17.005
-17.803
-18.5684
-19.2798
-19.9181
-20.4701
-20.933
-21.3144
-21.6227
-21.8686
-22.0643
-22.2166
-22.3276
-22.3999
-22.4355
-22.4374
-22.4091
-22.3538
-22.2731
-22.1646
-22.0229
-21.8417
-21.6195
-21.3695
-21.1265
-20.9469
-20.8817
-20.9796
-21.2422
-21.6454
-22.153
-22.7233
-23.3142
-23.9054
-24.4952
-25.0919
-25.7096
-26.3581
-27.0355
-27.725
-28.3957
-29.021
-29.5803
-30.0577
-30.4187
-30.6517
-30.7938
-30.8875
-30.9638
-31.0507
-31.2041
-31.5153
-32.0173
-32.6146
-33.2476
-33.8964
-34.532
-35.1287
-35.6655
-36.1211
-36.4821
-36.7459
-36.926
-37.0505
-37.1525
-37.2608
-37.3948
-37.5524
-37.7011
-37.7909
-37.7828
-37.6674
-37.4721
-37.2749
-37.1412
-37.1236
-37.2475
-37.4771
-37.7277
-37.9333
-38.0702
-38.1095
-38.01
-37.7342
-37.242
-36.5026
-35.4984
-34.2247
-32.6862
-30.8864
-28.829
-26.5183
-23.9656
-21.1922
-18.2275
-15.1061
-11.8701
-8.57413
-5.28447
-2.06709
1.02254
3.94314
6.66361
9.15518
11.3892
13.3444
15.0222
16.4426
17.6333
18.6216
19.4247
20.0542
20.5203
20.8343
21.0092
21.0593
20.9997
20.8455
20.6111
20.3104
19.9558
19.5586
19.1289
18.6756
18.2071
17.7312
17.2552
16.7852
16.3271
15.8856
15.4653
15.0698
14.7024
14.3658
14.0618
13.7917
13.5559
13.3543
13.186
13.0499
12.9442
12.8669
12.8153
12.7864
12.7764
12.7818
12.7988
12.824
12.8545
12.8879
12.9228
12.9585
12.9959
13.0361
13.0792
13.123
13.1629
13.1946
13.2154
13.2211
13.2089
13.1822
13.15
13.1266
13.1247
13.1445
13.1811
13.2262
13.2842
13.3333
13.3845
13.3816
-12.0054
-12.4042
-12.9623
-13.6394
-14.3923
-15.1829
-16.0035
-16.8502
-17.7208
-18.6044
-19.478
-20.3171
-21.1001
-21.8108
-22.4407
-22.9881
-23.4555
-23.8507
-24.182
-24.4535
-24.6699
-24.8351
-24.9522
-25.0225
-25.0474
-25.0301
-24.9741
-24.8819
-24.7528
-24.583
-24.3705
-24.1254
-23.8805
-23.6939
-23.6244
-23.7121
-23.9601
-24.3518
-24.8647
-25.4642
-26.109
-26.7731
-27.4402
-28.1003
-28.7515
-29.3977
-30.0439
-30.6829
-31.2909
-31.8548
-32.3624
-32.7877
-33.0826
-33.2336
-33.2886
-33.3159
-33.3561
-33.4391
-33.6219
-33.9892
-34.5189
-35.0911
-35.6611
-36.2212
-36.7382
-37.196
-37.5861
-37.8985
-38.1237
-38.2558
-38.3013
-38.2782
-38.2122
-38.1328
-38.0694
-38.0414
-38.0453
-38.0578
-38.053
-38.0211
-37.9848
-37.99
-38.081
-38.2903
-38.6111
-38.984
-39.3335
-39.6273
-39.8524
-39.9762
-39.9594
-39.7583
-39.3202
-38.6073
-37.601
-36.3035
-34.7278
-32.8837
-30.7761
-28.4081
-25.7888
-22.942
-19.9025
-16.7048
-13.3898
-10.0108
-6.63542
-3.33484
-0.170059
2.81217
5.58563
8.12909
10.4161
12.4225
14.1477
15.6114
16.844
17.8711
18.7095
19.3708
19.8655
20.2056
20.4051
20.4794
20.444
20.3142
20.1043
19.8272
19.4943
19.1165
18.7035
18.2643
17.8072
17.3403
16.8713
16.4068
15.9525
15.514
15.0959
14.7025
14.3372
14.003
13.702
13.4357
13.2043
13.0076
12.8445
12.7135
12.6123
12.5382
12.4882
12.4589
12.4462
12.4466
12.4571
12.4756
12.5003
12.5303
12.565
12.6037
12.6466
12.6939
12.7452
12.7989
12.8518
12.9
12.9413
12.9714
12.9849
12.9775
12.9511
12.9158
12.8895
12.8818
12.8967
12.9262
12.973
13.019
13.0718
13.0768
-12.6608
-12.963
-13.4173
-14.0123
-14.7181
-15.4976
-16.3345
-17.2263
-18.1732
-19.1598
-20.1587
-21.1444
-22.0919
-22.9795
-23.7919
-24.5208
-25.1656
-25.7299
-26.2155
-26.6236
-26.9596
-27.2296
-27.4367
-27.5804
-27.6613
-27.6838
-27.6546
-27.5811
-27.4675
-27.3147
-27.1248
-26.9115
-26.7048
-26.5599
-26.5358
-26.6613
-26.9405
-27.3628
-27.9114
-28.5516
-29.2446
-29.9603
-30.6705
-31.3539
-31.999
-32.607
-33.1928
-33.7567
-34.2799
-34.7588
-35.1817
-35.5145
-35.7118
-35.7719
-35.7525
-35.7268
-35.7395
-35.8212
-36.0235
-36.4152
-36.9297
-37.4473
-37.9494
-38.4314
-38.8558
-39.2036
-39.4683
-39.6447
-39.7273
-39.7108
-39.6002
-39.4099
-39.1635
-38.892
-38.6339
-38.4277
-38.295
-38.2349
-38.232
-38.2773
-38.3861
-38.5843
-38.8927
-39.3129
-39.8027
-40.2848
-40.7057
-41.0682
-41.3699
-41.5759
-41.6518
-41.5427
-41.1773
-40.5081
-39.5153
-38.2102
-36.6158
-34.7464
-32.6068
-30.198
-27.5258
-24.6158
-21.5097
-18.2459
-14.8654
-11.4176
-7.96971
-4.60072
-1.37586
1.65796
4.4754
7.0628
9.39346
11.4423
13.2102
14.7168
15.9911
17.0571
17.9308
18.6237
19.1471
19.5143
19.7402
19.841
19.8326
19.7299
19.5465
19.294
18.9833
18.6245
18.2273
17.8009
17.3543
16.8956
16.4326
15.9722
15.5209
15.0847
14.6685
14.2766
13.9131
13.5809
13.2826
13.0195
12.7922
12.6003
12.4426
12.3171
12.2209
12.1511
12.1037
12.0749
12.061
12.059
12.0669
12.0833
12.1075
12.1391
12.1773
12.2217
12.2718
12.3274
12.3879
12.4519
12.5169
12.58
12.6393
12.6919
12.7321
12.7526
12.7484
12.7204
12.6826
12.6512
12.6372
12.6412
12.6658
12.6956
12.7387
12.7453
-12.8595
-13.1042
-13.5146
-14.0834
-14.7811
-15.579
-16.4599
-17.4194
-18.4549
-19.551
-20.6816
-21.8195
-22.936
-24.0034
-25.0006
-25.9155
-26.7435
-27.4818
-28.1268
-28.6785
-29.1433
-29.5274
-29.8328
-30.0592
-30.2078
-30.2856
-30.3026
-30.27
-30.1949
-30.0817
-29.9373
-29.7809
-29.6499
-29.5917
-29.6493
-29.8435
-30.1816
-30.6528
-31.2445
-31.9219
-32.6499
-33.3928
-34.1166
-34.7954
-35.4152
-35.9774
-36.502
-36.9817
-37.4014
-37.7671
-38.0732
-38.2822
-38.3577
-38.3136
-38.2183
-38.1414
-38.1206
-38.1856
-38.3841
-38.7634
-39.2306
-39.6801
-40.1157
-40.5276
-40.8716
-41.1221
-41.2713
-41.3155
-41.2525
-41.0804
-40.8075
-40.4514
-40.0385
-39.603
-39.189
-38.846
-38.612
-38.5019
-38.5079
-38.6197
-38.844
-39.196
-39.6809
-40.2717
-40.8921
-41.4455
-41.9049
-42.3102
-42.6667
-42.9381
-43.0983
-43.0783
-42.7852
-42.1624
-41.1889
-39.8838
-38.2806
-36.3982
-34.2422
-31.8098
-29.103
-26.1476
-22.9899
-19.6728
-16.2377
-12.735
-9.23598
-5.82054
-2.55559
0.51554
3.36653
5.98467
8.3464
10.4291
12.2338
13.7797
15.0934
16.1964
17.1036
17.8269
18.3788
18.7738
19.0279
19.1575
19.178
19.1037
18.9469
18.7184
18.4284
18.0868
17.7035
17.2882
16.8499
16.3974
15.9385
15.4809
15.0314
14.5964
14.1811
13.7906
13.4284
13.0977
12.8011
12.5402
12.3157
12.1272
11.9735
11.8526
11.7608
11.6946
11.6498
11.6228
11.6108
11.6117
11.6241
11.6469
11.679
11.7191
11.7662
11.8197
11.8793
11.9445
12.015
12.0896
12.1661
12.2418
12.315
12.384
12.4448
12.491
12.5149
12.5105
12.4817
12.4414
12.406
12.3812
12.3772
12.382
12.4047
12.4016
-12.7491
-12.9743
-13.3855
-13.973
-14.7086
-15.5665
-16.5307
-17.5931
-18.7465
-19.9738
-21.2498
-22.5456
-23.83
-25.0727
-26.2499
-27.3461
-28.351
-29.2549
-30.0508
-30.7389
-31.3266
-31.8212
-32.2251
-32.5382
-32.7621
-32.9044
-32.9775
-32.9954
-32.9677
-32.9037
-32.8171
-32.7318
-32.6826
-32.7085
-32.8431
-33.104
-33.4974
-34.0168
-34.6494
-35.363
-36.1222
-36.8879
-37.6257
-38.3087
-38.9204
-39.4587
-39.9406
-40.3475
-40.6699
-40.9213
-41.0951
-41.1603
-41.099
-40.9388
-40.7538
-40.6111
-40.5398
-40.5635
-40.7256
-41.0586
-41.4568
-41.8292
-42.1901
-42.5237
-42.7796
-42.927
-42.9553
-42.8635
-42.6538
-42.3296
-41.905
-41.4027
-40.8551
-40.3012
-39.7893
-39.3693
-39.0832
-38.9538
-38.9793
-39.149
-39.4665
-39.9389
-40.5586
-41.2723
-41.9746
-42.553
-43.0086
-43.4213
-43.8035
-44.1134
-44.3335
-44.3802
-44.1407
-43.5527
-42.5924
-41.2875
-39.6789
-37.7918
-35.6305
-33.189
-30.4658
-27.4835
-24.289
-20.9301
-17.4557
-13.9199
-10.3956
-6.95893
-3.67535
-0.586047
2.2838
4.91941
7.29975
9.40581
11.2396
12.819
14.1676
15.3039
16.2419
16.994
17.5741
17.9978
18.2814
18.4409
18.491
18.4442
18.312
18.1047
17.8323
17.5049
17.1326
16.7252
16.2922
15.8428
15.3856
14.9286
14.4796
14.0446
13.6297
13.2396
12.8782
12.5484
12.2528
11.9933
11.7705
11.584
11.4325
11.3136
11.2241
11.1599
11.1177
11.0948
11.0896
11.1013
11.1277
11.1664
11.215
11.2708
11.3326
11.3998
11.4725
11.5505
11.6331
11.7192
11.8062
11.8918
11.9744
12.0531
12.1263
12.19
12.2381
12.2619
12.2574
12.2284
12.1877
12.1453
12.1138
12.0899
12.0852
12.0633
-12.5755
-12.803
-13.2413
-13.8797
-14.6963
-15.6664
-16.7676
-17.9815
-19.2931
-20.6814
-22.1212
-23.5826
-25.0341
-26.4444
-27.7869
-29.0409
-30.1898
-31.2219
-32.1338
-32.9302
-33.6185
-34.2032
-34.6847
-35.0618
-35.3366
-35.5174
-35.6176
-35.6524
-35.6365
-35.5883
-35.5324
-35.4985
-35.5177
-35.6148
-35.8124
-36.1256
-36.5568
-37.1082
-37.7662
-38.5025
-39.2809
-40.0622
-40.813
-41.5074
-42.1263
-42.655
-43.0935
-43.4283
-43.6649
-43.83
-43.9185
-43.8998
-43.7638
-43.5418
-43.2982
-43.0978
-42.9749
-42.9476
-43.0521
-43.3149
-43.6294
-43.9136
-44.1799
-44.4129
-44.5606
-44.5877
-44.4806
-44.2446
-43.8888
-43.4241
-42.8718
-42.2595
-41.6234
-41.008
-40.4615
-40.0269
-39.7399
-39.621
-39.6758
-39.8979
-40.2881
-40.8463
-41.5548
-42.337
-43.0724
-43.6439
-44.0704
-44.4582
-44.8299
-45.1483
-45.3863
-45.4573
-45.2419
-44.6702
-43.7173
-42.4134
-40.8021
-38.91
-36.7412
-34.2898
-31.5535
-28.5559
-25.3421
-21.9637
-18.4758
-14.9353
-11.4152
-7.98655
-4.70862
-1.62123
1.25089
3.88962
6.27511
8.39278
10.2462
11.8519
13.2292
14.3942
15.3596
16.1388
16.7467
17.1992
17.5125
17.7014
17.779
17.7568
17.6453
17.4549
17.1959
16.8785
16.5128
16.1091
15.6773
15.2276
14.7695
14.3118
13.8619
13.4267
13.0117
12.6216
12.2602
11.9304
11.6351
11.3758
11.1531
10.9666
10.8152
10.6963
10.6071
10.5449
10.5079
10.4946
10.504
10.5342
10.582
10.6432
10.7138
10.791
10.8729
10.9591
11.0497
11.1445
11.2423
11.3406
11.437
11.5295
11.6175
11.7007
11.7795
11.8524
11.9158
11.9629
11.9867
11.983
11.9562
11.9127
11.8669
11.8189
11.786
11.7407
-12.5022
-12.7458
-13.2362
-13.9645
-14.9106
-16.0448
-17.3351
-18.7516
-20.2673
-21.8552
-23.4849
-25.1221
-26.7309
-28.2777
-29.7354
-31.0837
-32.3065
-33.3946
-34.3499
-35.181
-35.8962
-36.4992
-36.9889
-37.3629
-37.6236
-37.7813
-37.8534
-37.8618
-37.8304
-37.7867
-37.7593
-37.7739
-37.8492
-38.0002
-38.2434
-38.5898
-39.0454
-39.615
-40.2865
-41.0324
-41.8164
-42.6037
-43.3642
-44.0717
-44.706
-45.2365
-45.6425
-45.9254
-46.1092
-46.2238
-46.2778
-46.2468
-46.1202
-45.9162
-45.6827
-45.4736
-45.332
-45.2769
-45.3305
-45.508
-45.7196
-45.9008
-46.0541
-46.1595
-46.1711
-46.0588
-45.8075
-45.4277
-44.9357
-44.3504
-43.7029
-43.0235
-42.3503
-41.7284
-41.2019
-40.805
-40.5595
-40.4869
-40.5884
-40.8582
-41.3049
-41.9215
-42.6772
-43.4753
-44.1962
-44.7299
-45.1015
-45.4236
-45.7434
-46.0316
-46.2475
-46.3072
-46.0953
-45.5329
-44.5891
-43.2884
-41.6679
-39.7532
-37.5554
-35.077
-32.3226
-29.3185
-26.1079
-22.7389
-19.2697
-15.7585
-12.2735
-8.88029
-5.63192
-2.56632
0.290203
2.91598
5.29199
7.40869
9.27153
10.8947
12.2936
13.4814
14.4704
15.2744
15.9088
16.3892
16.7303
16.9456
17.0466
17.044
16.9482
16.7696
16.5188
16.2061
15.8419
15.4371
15.003
14.5508
14.0906
13.6312
13.1806
12.7453
12.3302
11.9396
11.5769
11.2457
10.9488
10.6875
10.4622
10.2724
10.1178
9.99721
9.90876
9.85244
9.82764
9.83283
9.86508
9.92035
9.9934
10.0794
10.1746
10.2761
10.3823
10.4922
10.6053
10.7203
10.8346
10.9453
11.0501
11.1479
11.2388
11.3234
11.4035
11.4795
11.5504
11.6123
11.6597
11.6847
11.6844
11.6579
11.6151
11.5578
11.5043
11.4366
-12.555
-12.8312
-13.3995
-14.251
-15.3654
-16.7022
-18.2155
-19.8623
-21.6024
-23.3968
-25.2049
-26.9861
-28.7003
-30.3129
-31.7999
-33.1472
-34.3454
-35.3894
-36.285
-37.0476
-37.6923
-38.2285
-38.6586
-38.9803
-39.1944
-39.31
-39.3455
-39.3251
-39.2768
-39.229
-39.2085
-39.2364
-39.3276
-39.4956
-39.7556
-40.1166
-40.5873
-41.1694
-41.8494
-42.5995
-43.3882
-44.1877
-44.9733
-45.714
-46.3858
-46.9549
-47.3852
-47.6744
-47.8638
-47.9816
-48.0524
-48.0642
-48.0066
-47.8905
-47.7421
-47.5949
-47.4907
-47.446
-47.4717
-47.5678
-47.6653
-47.7239
-47.7452
-47.7024
-47.5605
-47.2997
-46.9082
-46.3969
-45.7842
-45.0989
-44.3861
-43.6827
-43.0217
-42.4405
-41.977
-41.6568
-41.4887
-41.4826
-41.6413
-41.9697
-42.4683
-43.1166
-43.8679
-44.6262
-45.2938
-45.7736
-46.0725
-46.2979
-46.5273
-46.7474
-46.907
-46.9283
-46.7079
-46.1601
-45.2364
-43.9397
-42.2944
-40.3295
-38.0719
-35.5433
-32.7626
-29.7609
-26.5763
-23.2501
-19.8328
-16.3816
-12.9592
-9.62461
-6.42628
-3.40141
-0.579071
2.01648
4.36834
6.47188
8.33355
9.96462
11.3764
12.58
13.5874
14.4127
15.0706
15.5755
15.9405
16.1774
16.2965
16.3081
16.2224
16.05
15.8013
15.4871
15.1189
14.7093
14.2708
13.8151
13.3527
12.8926
12.4422
12.0069
11.5916
11.1996
10.8345
10.4999
10.1987
9.93155
9.699
9.50225
9.34144
9.21727
9.13212
9.08809
9.08445
9.11683
9.17915
9.26398
9.3647
9.47688
9.59769
9.72531
9.85847
9.99559
10.1341
10.2706
10.4013
10.5234
10.6355
10.7373
10.8296
10.9143
10.9936
11.0693
11.1428
11.2126
11.2756
11.325
11.3546
11.3568
11.3342
11.2853
11.2267
11.1461
-12.5849
-12.9015
-13.5594
-14.5424
-15.8312
-17.3734
-19.1101
-20.9807
-22.931
-24.9091
-26.8674
-28.7613
-30.5446
-32.1741
-33.6232
-34.888
-35.9805
-36.9091
-37.6846
-38.3249
-38.8496
-39.2742
-39.606
-39.8415
-39.9772
-40.0165
-39.9749
-39.8787
-39.7613
-39.6548
-39.5895
-39.5874
-39.662
-39.8248
-40.087
-40.4574
-40.9408
-41.5364
-42.2279
-42.989
-43.7933
-44.6178
-45.4436
-46.2393
-46.9728
-47.6173
-48.1303
-48.498
-48.7573
-48.9493
-49.1044
-49.2197
-49.2847
-49.3013
-49.2823
-49.2465
-49.2199
-49.2241
-49.2621
-49.3095
-49.311
-49.2593
-49.1605
-48.9778
-48.6888
-48.2896
-47.7762
-47.1604
-46.4626
-45.7155
-44.9772
-44.2864
-43.6707
-43.1616
-42.7895
-42.5672
-42.4926
-42.5755
-42.8137
-43.1949
-43.7196
-44.3618
-45.0508
-45.7064
-46.2763
-46.6795
-46.8952
-47.0157
-47.1335
-47.2567
-47.3384
-47.3065
-47.0724
-46.5492
-45.6605
-44.372
-42.6871
-40.6426
-38.2967
-35.7032
-32.8979
-29.911
-26.7732
-23.5148
-20.1766
-16.8099
-13.4711
-10.2136
-7.08291
-4.11677
-1.34708
1.20174
3.51693
5.59702
7.4478
9.07699
10.4925
11.7039
12.7231
13.5639
14.2401
14.7642
15.1476
15.4004
15.532
15.552
15.4703
15.297
15.0433
14.7213
14.3447
13.928
13.4849
13.0271
12.565
12.107
11.6588
11.2249
10.8098
10.4162
10.0474
9.707
9.3976
9.1203
8.87581
8.66645
8.4964
8.36975
8.29258
8.26752
8.29085
8.35442
8.44964
8.56648
8.69733
8.83807
8.98681
9.14269
9.30452
9.46964
9.63312
9.78943
9.93417
10.0653
10.183
10.2876
10.3806
10.4647
10.5428
10.6177
10.6918
10.7656
10.8382
10.9052
10.961
10.9954
11.0046
10.9807
10.9344
10.8555
-12.2877
-12.6562
-13.4032
-14.5096
-15.9646
-17.7059
-19.6668
-21.7733
-23.9568
-26.15
-28.2875
-30.3064
-32.1462
-33.755
-35.1109
-36.2269
-37.1386
-37.8741
-38.4514
-38.888
-39.2048
-39.4246
-39.5625
-39.6202
-39.5933
-39.4857
-39.3191
-39.1198
-38.9228
-38.7621
-38.6645
-38.648
-38.7237
-38.8975
-39.1767
-39.5671
-40.0714
-40.6887
-41.4029
-42.1891
-43.0242
-43.8884
-44.7649
-45.6272
-46.4417
-47.1859
-47.8202
-48.3263
-48.7203
-49.0502
-49.3458
-49.6202
-49.8515
-50.0298
-50.1608
-50.2587
-50.3412
-50.4245
-50.5084
-50.5582
-50.5207
-50.4005
-50.2159
-49.9346
-49.5357
-49.0305
-48.4286
-47.7485
-47.0113
-46.2487
-45.5157
-44.8564
-44.2971
-43.867
-43.5985
-43.4949
-43.5336
-43.7118
-44.026
-44.4671
-45.0068
-45.6073
-46.1956
-46.6979
-47.1037
-47.3791
-47.4908
-47.5064
-47.5073
-47.5169
-47.5089
-47.4213
-47.1761
-46.6857
-45.8453
-44.5713
-42.8409
-40.7006
-38.249
-35.5844
-32.7627
-29.8072
-26.7327
-23.5607
-20.3227
-17.0615
-13.825
-10.6619
-7.61631
-4.72755
-2.028
0.460571
2.72976
4.77842
6.60945
8.22705
9.63697
10.8482
11.8725
12.7224
13.4104
13.9474
14.3432
14.606
14.744
14.7656
14.68
14.498
14.2326
13.8988
13.5129
13.0909
12.6467
12.1917
11.7355
11.284
10.8422
10.4134
10.0006
9.60581
9.23186
8.88291
8.5618
8.2676
8.00414
7.7775
7.59625
7.47026
7.40547
7.40206
7.45283
7.5471
7.67448
7.82344
7.98624
8.15894
8.33935
8.52607
8.71738
8.90848
9.09257
9.26371
9.41846
9.55623
9.67861
9.78611
9.88075
9.96555
10.044
10.1192
10.1938
10.2699
10.3489
10.4289
10.5056
10.5697
10.6147
10.6269
10.6088
10.5485
-11.3484
-11.7964
-12.6407