/*--------------------------------*- C++ -*----------------------------------*\
  =========                 |
  \\      /  F ield         | OpenFOAM: The Open Source CFD Toolbox
   \\    /   O peration     | Website:  https://openfoam.org
    \\  /    A nd           | Version:  9
     \\/     M anipulation  |
\*---------------------------------------------------------------------------*/
FoamFile
{
    format      ascii;
    class       volScalarField;
    location    "0.078";
    object      pPrime2Mean;
}
// * * * * * * * * * * * * * * * * * * * * * * * * * * * * * * * * * * * * * //

dimensions      [0 4 -4 0 0 0 0];

internalField   nonuniform List<scalar> 
12225
(
294870
291990
288714
285190
281522
277790
274048
270330
266654
263032
259463
255943
252460
248993
245509
241949
238197
233976
294891
292016
288736
285207
281536
277802
274059
270340
266664
263042
259474
255957
252477
249015
245540
242000
238299
234272
294965
292076
288784
285246
281568
277829
274083
270362
266686
263065
259499
255986
252513
249063
245609
242108
238499
234728
295063
292176
288864
285311
281621
277874
274123
270399
266722
263102
259541
256035
252574
249142
245719
242276
238785
235261
295239
292325
288983
285406
281699
277941
274181
270454
266776
263158
259603
256106
252661
249255
245874
242503
239141
235834
295530
292534
289147
285537
281807
278032
274262
270529
266849
263234
259686
256203
252779
249406
246076
242786
239551
236427
295931
292812
289363
285711
281949
278153
274369
270627
266946
263335
259796
256329
252930
249596
246323
243118
240003
237031
296366
293167
289643
285934
282132
278307
274505
270754
267070
263462
259934
256486
253117
249826
246615
243495
240489
237642
296944
293612
289993
286213
282361
278501
274676
270911
267223
263619
260104
256678
253342
250097
246948
243910
241002
238260
297634
294161
290423
286557
282641
278738
274884
271103
267410
263810
260308
256906
253604
250407
247321
244358
241538
238883
298486
294825
290946
286973
282980
279023
275134
271334
267633
264037
260549
257171
253906
250756
247730
244837
242092
239510
299385
295556
291519
287426
283348
279332
275405
271583
267873
264279
260804
257449
254217
251109
248134
245299
242614
240089
300515
296405
292172
287939
283763
279681
275711
271863
268142
264550
261087
257754
254553
251486
248558
245774
243142
240666
302054
297534
293030
288610
284305
280135
276108
272226
268490
264897
261447
258139
254971
251947
249067
246336
243755
241327
304054
299015
294147
289479
285004
280719
276617
272692
268934
265339
261901
258617
255484
252502
249671
246990
244459
242076
306687
300929
295564
290570
285876
281448
277255
273275
269490
265889
262461
259200
256101
253160
250374
247740
245254
242912
310042
303232
297239
291856
286912
282320
278022
273978
270161
266551
263131
259892
256824
253920
251174
248581
246135
243829
313462
305610
298993
293218
288022
283271
278874
274772
270925
267307
263895
260676
257636
254765
252055
249497
247085
244809
316026
307349
300315
294308
288976
284140
279694
275566
271713
268101
264705
261509
258497
255656
252977
250450
248065
245815
314530
306908
300317
294528
289314
284554
280158
276070
272249
268667
265300
262130
259144
256329
253673
251168
248803
246570
312765
305876
299792
294315
289299
284665
280355
276327
272552
269004
265666
262521
259557
256760
254121
251630
249278
247056
310843
304718
299121
293956
289144
284645
280426
276463
272735
269223
265912
262790
259843
257062
254436
251957
249614
247399
309063
303627
298461
293575
288947
284570
280435
276531
272844
269363
266076
262972
260041
257272
254656
252185
249849
247641
307620
302723
297902
293241
288761
284485
280419
276562
272909
269453
266185
263096
260176
257416
254808
252343
250012
247808
306567
302035
297468
292977
288610
284409
280395
276575
272948
269510
266257
263178
260267
257514
254912
252451
250124
247923
305765
301529
297153
292782
288496
284350
280374
276579
272971
269547
266303
263233
260327
257580
254981
252523
250198
247999
305219
301178
296935
292648
288418
284309
280357
276580
272984
269570
266332
263267
260366
257621
255025
252569
250246
248048
304799
300951
296798
292565
288368
284283
280346
276580
272992
269583
266350
263288
260389
257646
255052
252597
250275
248078
304556
300823
296722
292518
288341
284268
280340
276580
272996
269590
266359
263299
260401
257660
255066
252612
250291
248094
304448
300769
296691
292500
288330
284262
280338
276580
272998
269593
266363
263303
260407
257665
255072
252618
250297
248101
198100
198081
198045
197995
197933
197857
197766
197658
197529
197379
197206
197011
196796
196560
196306
196034
195744
195436
195110
194766
194405
194028
193634
193224
192798
192355
191894
191415
190919
190407
189879
189335
188777
188202
187612
187007
186390
185764
185129
184484
183827
183156
182467
181758
181026
180274
179508
178727
177932
177128
176313
175488
174657
173819
172973
172121
171264
170393
169499
168586
167662
166726
165790
164845
163873
162868
161832
160779
159718
158648
157569
156480
155379
154260
153119
151965
150804
149642
148488
147350
146228
145118
144014
142912
141813
140707
139607
138506
137394
136235
135037
133840
132667
131525
130409
129310
128220
127126
126021
124896
123745
122561
121343
120089
118802
117484
116142
114781
113408
112030
110652
109281
107919
106568
105228
103900
102582
101273
99972.4
98677.6
97387.5
96101.1
94817
93534.5
92252.7
90971.5
89690.7
88410.1
87129.9
85850.2
84571.1
83292.8
82015.4
80738.7
79463
78188
76913.8
75640.3
74367.5
73095.3
71823.8
70553
69282.9
68013.7
66745.3
65478.1
64212
62947.4
61684.4
60423.1
59164
57907.2
56653
55401.8
54154.4
52912.1
51676
50446.8
49224.6
48009.9
46801.8
45598.5
44399.5
43208.2
42025.9
40850.6
39684.1
38528.4
37381.8
36244.2
35117.3
33998.8
32889.5
31792.8
30708.1
29637
28579.1
27537.4
26516.8
25526.7
198155
198136
198101
198050
197988
197911
197819
197708
197577
197424
197250
197055
196840
196606
196354
196083
195793
195485
195159
194814
194452
194072
193676
193263
192833
192387
191924
191444
190947
190435
189907
189364
188808
188235
187647
187043
186426
185799
185161
184511
183848
183171
182477
181766
181034
180280
179516
178739
177946
177138
176318
175488
174652
173814
172971
172118
171258
170386
169497
168592
167678
166745
165799
164837
163850
162839
161803
160750
159691
158626
157551
156467
155371
154249
153103
151945
150777
149615
148462
147323
146204
145097
143997
142901
141805
140702
139587
138461
137322
136155
134967
133789
132634
131506
130400
129309
128223
127133
126030
124907
123757
122574
121357
120103
118815
117496
116153
114791
113417
112038
110660
109287
107924
106572
105232
103904
102585
101276
99974.7
98679.5
97389.2
96102.5
94818.3
93535.6
92253.8
90972.6
89691.7
88411.1
87130.9
85851.2
84572.2
83293.9
82016.5
80739.9
79464.1
78189.2
76915
75641.6
74368.8
73096.7
71825.2
70554.4
69284.3
68015.1
66746.9
65479.6
64213.7
62949.2
61686.3
60425.2
59166.3
57909.8
56656
55405.2
54158.4
52916.7
51681.2
50452.2
49230
48014.6
46805.1
45600.4
44401
43210.8
42029.3
40853.7
39687.1
38531.3
37384.5
36247.3
35120.9
34002.7
32894.2
31797.4
30712.5
29640.7
28581.3
27537.6
26514.7
25518.7
198304
198287
198253
198200
198131
198047
197947
197829
197691
197534
197358
197163
196949
196716
196465
196194
195904
195595
195267
194919
194553
194170
193768
193350
192915
192463
191996
191513
191014
190501
189972
189429
188873
188301
187716
187114
186500
185873
185235
184584
183919
183239
182543
181831
181104
180356
179590
178806
178004
177188
176362
175529
174694
173855
173009
172154
171291
170417
169534
168638
167722
166785
165823
164839
163833
162810
161772
160723
159666
158606
157537
156454
155352
154225
153074
151910
150740
149573
148422
147287
146172
145072
143981
142890
141792
140678
139541
138387
137221
136049
134881
133727
132593
131480
130385
129302
128223
127138
126040
124921
123775
122595
121379
120126
118838
117519
116174
114810
113435
112054
110674
109299
107935
106582
105241
103911
102592
101282
99979.8
98684
97393.1
96106
94821.4
93538.4
92256.4
90975
89694
88413.4
87133.2
85853.5
84574.5
83296.2
82018.8
80742.3
79466.6
78191.7
76917.6
75644.2
74371.4
73099.3
71827.9
70557.1
69287.2
68018
66749.8
65482.7
64216.8
62952.5
61689.7
60428.8
59170.1
57913.9
56660.5
55410.2
54164
52922.5
51686.8
50457.5
49234.7
48018.6
46808.7
45604.7
44406.8
43216
42033.2
40858
39692.1
38536.5
37390.4
36254
35128
34010.8
32902.2
31804.5
30718.7
29645.1
28584.3
27538.7
26511.8
25507.9
198522
198505
198469
198416
198344
198254
198148
198024
197882
197722
197543
197345
197130
196895
196642
196369
196076
195763
195430
195077
194706
194317
193909
193485
193044
192587
192114
191627
191126
190610
190081
189539
188982
188411
187826
187226
186614
185989
185353
184704
184040
183360
182666
181956
181227
180477
179706
178917
178112
177295
176468
175632
174789
173941
173085
172223
171356
170483
169602
168704
167782
166830
165852
164853
163837
162808
161765
160713
159656
158595
157526
156442
155334
154200
153044
151873
150696
149529
148378
147249
146139
145044
143953
142858
141751
140620
139465
138295
137124
135958
134804
133666
132548
131449
130365
129292
128221
127144
126052
124940
123798
122622
121409
120158
118870
117550
116203
114838
113460
112077
110694
109317
107950
106596
105253
103922
102602
101291
99987.9
98691
97399.4
96111.5
94826.3
93542.8
92260.5
90978.8
89697.7
88416.9
87136.7
85857
84578
83299.8
82022.4
80745.9
79470.3
78195.5
76921.5
75648.2
74375.5
73103.5
71832.1
70561.4
69291.5
68022.4
66754.3
65487.3
64221.5
62957.2
61694.6
60433.9
59175.5
57919.6
56666.5
55416.7
54170.8
52929.6
51693.8
50464.2
49240.8
48023.9
46813.3
45609
44411.1
43220.3
42037.9
40863.8
39698.4
38543.4
37398.6
36263.8
35139.4
34023.3
32915.1
31816.8
30730.1
29654.7
28590.6
27541.2
26509.2
25497.6
198810
198793
198756
198700
198625
198533
198424
198296
198150
197985
197802
197600
197379
197139
196879
196599
196299
195979
195639
195280
194901
194505
194090
193659
193212
192749
192271
191780
191276
190759
190230
189688
189133
188564
187981
187384
186774
186151
185515
184868
184207
183533
182842
182134
181404
180650
179872
179073
178256
177426
176586
175738
174886
174031
173170
172306
171436
170561
169675
168769
167835
166871
165885
164882
163865
162833
161790
160737
159678
158612
157535
156443
155326
154186
153024
151850
150673
149505
148354
147225
146117
145020
143925
142820
141698
140550
139382
138209
137039
135878
134732
133605
132499
131411
130339
129277
128215
127147
126064
124959
123824
122654
121445
120196
118909
117587
116239
114871
113491
112106
110720
109341
107971
106614
105270
103937
102616
101303
99999
98700.9
97408.2
96119.3
94833.3
93549.1
92266.2
90984.2
89702.8
88421.9
87141.5
85861.8
84582.9
83304.7
82027.5
80751.1
79475.6
78201
76927.1
75653.9
74381.3
73109.3
71838
70567.5
69297.7
68028.7
66760.5
65493.5
64227.8
62963.7
61701.2
60440.6
59182.4
57926.7
56674
55424.5
54178.9
52937.9
51702.2
50472.3
49248.5
48031
46819.8
45615
44416.7
43225.4
42042.5
40868.2
39703.2
38548.9
37405.5
36273.3
35151.5
34037.2
32929.6
31831.5
30744.3
29667.3
28600.1
27546.4
26508.5
25489.1
199176
199156
199115
199057
198980
198885
198773
198641
198491
198321
198132
197923
197695
197446
197178
196889
196580
196250
195900
195531
195142
194736
194313
193873
193418
192949
192466
191971
191463
190944
190414
189873
189321
188755
188176
187583
186975
186354
185720
185075
184417
183745
183056
182347
181614
180854
180065
179252
178419
177572
176716
175854
174990
174127
173262
172392
171518
170638
169744
168828
167881
166912
165927
164928
163917
162891
161852
160801
159739
158665
157578
156473
155347
154200
153036
151860
150684
149517
148368
147239
146127
145022
143915
142796
141655
140492
139316
138138
136967
135808
134666
133545
132447
131369
130307
129255
128204
127146
126073
124977
123850
122688
121484
120238
118952
117630
116279
114910
113528
112140
110752
109369
107996
106637
105290
103956
102633
101319
100013
98713.5
97419.3
96129.3
94842.3
93557.2
92273.7
90991.1
89709.3
88428.2
87147.7
85868
84589.1
83311.1
82034
80757.8
79482.6
78208.2
76934.5
75661.5
74389.1
73117.2
71846
70575.5
69305.8
68036.8
66768.8
65501.7
64235.9
62971.8
61709.3
60448.9
59190.8
57935.4
56682.9
55433.7
54188.5
52947.7
51712.1
50482.1
49258.1
48040.1
46828.4
45623.1
44424.4
43232.5
42048.7
40873.6
39707.9
38553.2
37410.1
36279.1
35159.6
34047.8
32942.2
31845.4
30758.7
29681.1
28611.6
27554.1
26510.5
25483.7
199612
199590
199548
199487
199410
199313
199196
199060
198903
198727
198531
198314
198076
197817
197537
197236
196914
196572
196210
195828
195428
195010
194576
194127
193664
193188
192700
192201
191690
191169
190638
190096
189544
188981
188405
187814
187208
186589
185957
185313
184656
183985
183295
182583
181845
181077
180277
179450
178600
177735
176859
175978
175100
174226
173354
172480
171602
170716
169815
168889
167937
166969
165990
165000
163997
162980
161948
160900
159837
158756
157659
156542
155408
154257
153091
151918
150744
149579
148430
147297
146178
145062
143939
142800
141639
140460
139272
138087
136910
135747
134605
133487
132393
131322
130268
129226
128185
127138
126076
124990
123874
122720
121523
120282
118997
117675
116323
114951
113567
112177
110787
109401
108025
106663
105314
103978
102653
101337
100029
98728.3
97432.7
96141.3
94853.1
93567.1
92282.8
90999.6
89717.4
88436.1
87155.5
85875.7
84596.9
83319.1
82042.2
80766.4
79491.5
78217.5
76944.1
75671.4
74399.2
73127.5
71856.5
70586
69316.3
68047.4
66779.3
65512.1
64246.1
62981.9
61719.4
60459
59201
57945.7
56693.5
55444.5
54199.5
52959
51723.6
50493.6
49269.5
48051.2
46839.1
45633.5
44434.3
43242
42057.2
40881.1
39714.4
38558.1
37413.6
36281.9
35163
34053.2
32950.5
31856.1
30771.3
29694.3
28623.8
27563.3
26514.8
25481.9
200127
200104
200061
199999
199917
199815
199693
199549
199384
199198
198991
198762
198512
198239
197945
197630
197294
196938
196563
196169
195757
195328
194884
194426
193955
193473
192980
192477
191963
191439
190904
190360
189807
189242
188665
188074
187470
186853
186224
185583
184928
184257
183567
182851
182107
181330
180518
179674
178806
177920
177022
176121
175226
174340
173460
172581
171698
170807
169901
168970
168017
167054
166084
165101
164106
163097
162072
161026
159960
158874
157769
156646
155506
154353
153190
152021
150852
149691
148542
147405
146275
145142
143999
142836
141653
140455
139254
138056
136869
135699
134552
133432
132339
131272
130224
129189
128158
127120
126069
124995
123890
122747
121558
120322
119041
117719
116366
114993
113608
112216
110824
109436
108058
106692
105340
104002
102675
101357
100048
98745.1
97448
96155.2
94865.7
93578.7
92293.6
91009.8
89727.2
88445.6
87165
85885.2
84606.5
83328.9
82052.3
80776.9
79502.5
78228.9
76956.1
75683.9
74412
73140.7
71869.7
70599.4
69329.8
68060.9
66792.6
65525.1
64258.8
62994.2
61731.7
60471.2
59213.1
57957.9
56705.9
55457.2
54212.4
52972.2
51736.9
50507
49282.8
48064.4
46852.1
45646.1
44446.5
43253.6
42068.3
40891.3
39723.4
38565.4
37418.6
36284.1
35163
34053.2
32952.5
31861.5
30779.7
29704.9
28634.9
27573
26520.9
25483.2
200730
200706
200661
200595
200507
200396
200264
200109
199932
199733
199511
199267
199001
198713
198403
198072
197722
197352
196963
196557
196134
195695
195242
194776
194299
193811
193314
192806
192288
191760
191221
190672
190114
189545
188965
188374
187772
187158
186534
185899
185249
184581
183890
183171
182419
181630
180804
179941
179051
178140
177217
176294
175381
174482
173592
172706
171818
170922
170012
169078
168128
167173
166208
165229
164239
163235
162212
161168
160101
159011
157902
156774
155633
154481
153322
152160
150998
149841
148694
147553
146411
145260
144092
142903
141695
140477
139260
138047
136846
135665
134509
133384
132289
131223
130179
129148
128123
127094
126053
124991
123898
122765
121585
120356
119078
117759
116407
115034
113648
112255
110862
109472
108091
106723
105370
104029
102699
101380
100068
98763.8
97465
96170.8
94880.1
93592
92306
91021.6
89738.7
88456.8
87176.1
85896.5
84618
83340.7
82064.6
80789.8
79515.9
78243.1
76971
75699.3
74428.1
73157.1
71886.5
70616.5
69347.1
68078.1
66809.6
65541.7
64274.9
63009.9
61746.8
60486
59227.7
57972.5
56720.7
55472.1
54227.5
52987.5
51752.4
50522.6
49298.3
48079.7
46867.1
45660.7
44460.8
43267.4
42081.5
40903.8
39734.9
38575.4
37426.2
36288.3
35163.3
34050.8
32950
31860.8
30781.9
29710
28642
27580.7
26527.6
25486.7
201423
201397
201348
201275
201178
201058
200913
200745
200552
200336
200097
199836
199551
199246
198919
198572
198206
197822
197420
197001
196567
196119
195658
195185
194702
194210
193709
193197
192674
192141
191597
191044
190480
189907
189324
188733
188132
187524
186906
186276
185632
184966
184274
183550
182788
181985
181139
180254
179339
178401
177452
176506
175574
174661
173760
172865
171970
171068
170153
169218
168271
167318
166355
165377
164388
163385
162364
161320
160253
159162
158051
156922
155781
154630
153476
152320
151166
150017
148873
147729
146576
145406
144213
142997
141763
140525
139290
138060
136842
135647
134481
133347
132248
131180
130137
129108
128087
127064
126031
124980
123898
122775
121605
120381
119108
117791
116442
115070
113685
112293
110899
109508
108126
106756
105400
104057
102726
101404
100091
98784.2
97483.8
96188.1
94896.1
93607
92320.1
91035.2
89751.8
88469.8
87189.1
85909.7
84631.6
83354.8
82079.4
80805.3
79532.5
78260.6
76989.5
75718.9
74448.5
73178.2
71908.1
70638.5
69369.2
68100.2
66831.3
65562.7
64295.2
63029.5
61765.8
60504.2
59245.5
57990.4
56738.5
55489.9
54245.3
53005.4
51770.4
50540.5
49316
48097.2
46884.3
45677.6
44477.2
43283.2
42096.7
40918.4
39748.7
38588
37436.8
36296
35167
34050.5
32946.8
31856.8
30779
29709.3
28643.7
27584.5
26532.5
25491
202208
202179
202125
202045
201939
201807
201649
201465
201257
201023
200766
200485
200182
199858
199513
199149
198766
198366
197949
197518
197072
196615
196146
195667
195180
194684
194179
193664
193138
192600
192051
191491
190921
190342
189755
189160
188559
187952
187336
186709
186065
185400
184705
183973
183198
182378
181509
180600
179658
178692
177717
176750
175800
174872
173960
173055
172152
171244
170324
169385
168437
167483
166517
165536
164543
163539
162517
161474
160408
159317
158206
157078
155938
154790
153639
152489
151344
150204
149065
147920
146758
145572
144357
143115
141856
140598
139345
138095
136860
135650
134471
133329
132224
131152
130106
129077
128057
127037
126011
124967
123894
122780
121616
120397
119128
117815
116469
115101
113718
112327
110934
109543
108160
106790
105432
104087
102753
101430
100114
98806.1
97504.1
96207
94913.8
93623.6
92336
91050.4
89766.7
88484.7
87204.1
85925.1
84647.6
83371.7
82097.3
80824.4
79553
78282.7
77013.1
75743.9
74474.7
73205.1
71935.7
70666.6
69397.7
68128.6
66859.1
65589.6
64321.1
63054.4
61789.6
60527
59267.6
58012.1
56760.1
55511.4
54266.6
53026.5
51791.3
50561.1
49336.3
48117.1
46903.8
45696.5
44495.5
43301
42113.8
40934.9
39764.6
38602.9
37450.3
36307.4
35175.2
34054.8
32946.9
31853.5
30773.7
29703.9
28640.3
27583.5
26533.7
25493.5
203091
203059
203000
202912
202797
202654
202484
202287
202064
201815
201540
201241
200919
200574
200210
199825
199423
199005
198573
198127
197669
197202
196725
196240
195748
195249
194740
194220
193688
193144
192586
192016
191435
190845
190248
189645
189036
188422
187800
187167
186518
185848
185145
184403
183614
182775
181889
180960
179998
179010
178013
177025
176059
175115
174191
173276
172363
171446
170518
169573
168618
167657
166683
165695
164696
163686
162662
161619
160552
159463
158353
157226
156088
154943
153797
152654
151518
150388
149257
148113
146947
145749
144517
143253
141973
140695
139422
138154
136901
135676
134485
133334
132222
131144
130094
129063
128041
127022
125997
124957
123888
122778
121617
120402
119137
117829
116489
115126
113747
112358
110966
109576
108194
106823
105464
104118
102782
101456
100139
98829.4
97525.9
96227.4
94933
93641.9
92353.5
91067.5
89783.7
88501.7
87221.5
85943.1
84666.7
83392.1
82119.5
80848.6
79579.2
78311.1
77043.7
75776.3
74508.6
73240
71971.3
70702.7
69434.2
68165.1
66894.8
65624
64353.9
63085.8
61819.7
60555.7
59295.1
58038.8
56786.4
55537.1
54291.7
53051.2
51815.6
50584.9
49359.4
48139.6
46925.7
45717.8
44516
43320.9
42133.2
40953.6
39782.7
38620.4
37466.8
36322.4
35188
34064.4
32952.5
31854.3
30770.2
29697.7
28633.7
27578.5
26531.1
25492.9
204086
204052
203988
203895
203773
203623
203445
203238
203003
202740
202449
202131
201788
201422
201034
200627
200203
199764
199312
198850
198379
197899
197412
196919
196419
195910
195392
194862
194319
193762
193191
192606
192008
191400
190785
190164
189538
188906
188268
187619
186955
186269
185551
184793
183989
183136
182240
181304
180333
179336
178328
177327
176346
175388
174450
173523
172597
171666
170726
169771
168804
167830
166844
165846
164837
163819
162789
161743
160676
159586
158477
157353
156219
155078
153938
152804
151677
150556
149433
148295
147130
145928
144685
143407
142110
140812
139521
138236
136966
135727
134526
133366
132247
131164
130109
129074
128049
127026
125998
124954
123882
122770
121609
120396
119136
117834
116501
115144
113769
112383
110994
109606
108225
106855
105496
104148
102811
101483
100165
98853.6
97548.7
96249.1
94953.6
93661.7
92372.8
91086.6
89802.9
88521.3
87241.8
85964.7
84689.9
83417.7
82147.5
80879.5
79613
78347.8
77083
75817.9
74552
73284.6
72016.7
70748.8
69480.7
68211.3
66940.1
65667.8
64395.8
63125.6
61857.5
60591.6
59329.3
58071.5
56817.7
55567.4
54321.1
53079.9
51843.7
50612.2
49385.9
48165.4
46950.7
45741.8
44539.3
43343.4
42155.1
40975.1
39803.7
38640.9
37486.7
36341.3
35205.4
34079.5
32964.3
31861.5
30772.1
29694.9
28628.2
27572.1
26525.6
25489.1
205218
205182
205116
205020
204896
204743
204560
204345
204098
203819
203509
203168
202800
202407
201993
201561
201114
200653
200180
199698
199208
198710
198206
197695
197178
196652
196116
195568
195006
194428
193834
193224
192600
191965
191322
190674
190020
189361
188696
188021
187332
186622
185884
185109
184291
183431
182532
181598
180631
179639
178632
177627
176636
175666
174713
173771
172830
171884
170929
169961
168980
167990
166989
165978
164957
163927
162890
161838
160768
159678
158570
157449
156319
155185
154053
152928
151811
150701
149588
148458
147298
146100
144857
143571
142259
140944
139635
138335
137054
135803
134592
133425
132301
131215
130158
129118
128087
127055
126016
124960
123878
122758
121594
120382
119126
117831
116505
115153
113783
112402
111015
109631
108252
106883
105525
104177
102839
101510
100191
98878.4
97572.4
96271.7
94975.5
93683.1
92394.1
91108
89824.7
88544
87265.9
85990.7
84718.7
83449.9
82183.6
80919.3
79656.5
78394.4
77132.5
75870.3
74606.1
73339.9
72072.8
70805.5
69537.6
68268
66996
65721.6
64447.4
63175
61904.5
60636.2
59371.4
58111.1
56855.2
55603.1
54355.4
53113.1
51876.1
50643.7
49416.3
48194.8
46979.1
45769.4
44565.9
43369.3
42180.5
41000.1
39828.3
38665.3
37510.7
36364.8
35227.8
34100.2
32982.4
31875.9
30781.3
29698.7
28627.4
27568.2
26520.2
25483.7
206513
206475
206408
206312
206186
206029
205838
205611
205347
205047
204711
204344
203949
203527
203084
202622
202146
201658
201159
200650
200133
199611
199082
198547
198004
197451
196885
196305
195708
195095
194466
193822
193164
192495
191817
191135
190447
189754
189055
188347
187628
186890
186128
185336
184508
183643
182746
181821
180866
179887
178891
177890
176899
175921
174957
173999
173041
172077
171104
170121
169127
168121
167104
166080
165047
164007
162960
161902
160829
159738
158633
157517
156393
155266
154143
153026
151919
150816
149710
148589
147440
146252
145016
143731
142412
141082
139757
138445
137154
135895
134679
133508
132383
131298
130241
129197
128155
127106
126048
124974
123875
122744
121574
120363
119111
117822
116501
115155
113790
112412
111030
109650
108275
106908
105550
104203
102865
101537
100216
98903.3
97596.6
96295.3
94998.6
93706.2
92417.4
91132
89849.8
88570.6
87294.8
86022.7
84754.7
83490.6
82229.2
80969.5
79710.7
78452.1
77193.3
75933.1
74670.5
73405.4
72138.6
70871.4
69604.2
68334.4
67061.1
65785.1
64508.7
63234.2
61961.2
60690.1
59422.2
58158.7
56899.8
55645.2
54395.5
53151.7
51913.4
50679.8
49451.2
48228.5
47011.8
45801
44596.7
43399.6
42210.3
41029.7
39857.9
38694.6
37539.9
36393.7
35255.9
34127
33007.3
31897.6
30798.6
29710.7
28634
27569.9
26518.2
25479.3
208029
207988
207917
207816
207683
207516
207311
207066
206781
206457
206095
205698
205268
204810
204327
203824
203307
202781
202246
201704
201156
200601
200040
199468
198886
198289
197677
197049
196405
195745
195072
194386
193689
192981
192266
191545
190821
190092
189358
188615
187863
187097
186311
185501
184664
183796
182901
181982
181042
180079
179097
178105
177115
176134
175161
174191
173218
172238
171248
170248
169239
168219
167189
166152
165109
164061
163006
161941
160865
159777
158675
157564
156446
155326
154210
153101
151999
150902
149800
148684
147542
146365
145142
143868
142553
141218
139883
138563
137266
136001
134782
133611
132489
131410
130358
129310
128253
127181
126094
124994
123876
122732
121554
120342
119092
117808
116492
115150
113789
112417
111040
109664
108292
106928
105573
104227
102890
101562
100241
98928.3
97621.4
96320
95023.5
93731.5
92443.7
91159.7
89879.5
88603.1
87330.8
86063.2
84800.3
83541.5
82285.7
81030.8
79776.1
78520.6
77263.6
76004.2
74742.1
73477.6
72211
70944.4
69677
68407.1
67133.1
65856.4
64579.2
63302.7
62027.6
60753.6
59482.5
58215.6
56953.3
55695.5
54443.1
53197.1
51956.9
50721.6
49491.6
48267.7
47049.9
45838.3
44633.4
43435.8
42246.3
41065.4
39893.5
38730.3
37575.5
36429.1
35290.8
34160.8
33039.4
31927.1
30824.4
29731.6
28649.5
27579.6
26522.5
25479.2
209689
209643
209563
209449
209301
209117
208894
208629
208319
207965
207566
207124
206644
206133
205598
205045
204480
203909
203334
202753
202164
201568
200963
200346
199714
199068
198406
197728
197034
196327
195608
194880
194143
193398
192646
191891
191134
190374
189608
188836
188055
187262
186453
185626
184777
183905
183011
182096
181163
180211
179240
178257
177268
176283
175302
174322
173338
172345
171341
170328
169307
168278
167239
166193
165143
164089
163029
161961
160884
159797
158699
157592
156479
155367
154257
153153
152052
150954
149851
148734
147593
146421
145209
143951
142652
141328
139996
138675
137378
136114
134894
133725
132608
131535
130487
129436
128363
127265
126149
125021
123881
122722
121537
120321
119073
117791
116479
115141
113785
112417
111044
109672
108304
106943
105590
104246
102911
101584
100264
98952
97645.7
96344.9
95049.3
93758.5
92472.5
91191.1
89914.3
88642.2
87374.8
86112.3
84854.9
83601.3
82350.2
81099.1
79847
78592.6
77335.7
76076.2
74814.2
73548.5
72281.2
71014.5
69747.9
68478.9
67205.7
65929.4
64652.4
63376.2
62100.1
60824.6
59550.8
58281
57015.3
55754
54498.5
53249.8
52007.1
50769.7
49538.1
48313.1
47094.6
45882.5
44677.3
43479.4
42289.7
41108.7
39936.4
38773.1
37618.4
36471.7
35332.9
34202
33079.1
31964.5
30858.4
29761.5
28674
27598.1
26535
25485.7
211331
211277
211181
211046
210874
210663
210413
210117
209772
209374
208925
208428
207889
207318
206725
206121
205512
204899
204283
203663
203034
202397
201749
201089
200413
199723
199017
198297
197563
196817
196060
195297
194527
193751
192969
192185
191401
190614
189823
189026
188222
187407
186578
185733
184872
183994
183096
182180
181247
180299
179334
178356
177368
176377
175388
174397
173402
172398
171385
170363
169335
168300
167257
166208
165155
164098
163037
161970
160894
159808
158713
157609
156502
155393
154288
153184
152079
150974
149865
148742
147600
146431
145227
143985
142706
141399
140081
138770
137480
136219
135002
133836
132720
131647
130598
129541
128455
127336
126195
125044
123885
122713
121521
120302
119054
117774
116464
115130
113777
112413
111044
109676
108311
106953
105603
104262
102929
101603
100285
98973.8
97668.5
96368.9
95074.8
93786.2
92503
91225.5
89953.6
88686.9
87425.1
86167.8
84915
83664.9
82416.3
81166.9
79914.6
78659.3
77400.7
76139.5
74875.3
73608.3
72340.4
71073.8
69808.4
68541.6
67270.7
65996.9
64722.2
63448.1
62173.5
60897.9
59623.6
58352.2
57083.9
55819.7
54561.1
53309.3
52063.9
50824.3
49591.4
48365.8
47147.3
45935.4
44730.2
43532.4
42342.5
41161.1
39988.2
38824.4
37669.3
36522.3
35383.1
34251.3
33126.9
32010.2
30901.2
29800.3
28708.1
27626.6
26557.1
25501.1
212962
212893
212772
212601
212386
212129
211831
211487
211092
210643
210139
209584
208985
208354
207708
207061
206415
205766
205113
204455
203789
203113
202425
201725
201011
200283
199541
198787
198022
197245
196459
195667
194870
194068
193261
192453
191645
190834
190021
189202
188377
187542
186696
185836
184962
184073
183169
182249
181313
180363
179399
178422
177434
176439
175440
174437
173430
172417
171397
170370
169337
168298
167253
166204
165151
164095
163035
161970
160897
159814
158722
157622
156516
155409
154303
153196
152086
150972
149853
148724
147578
146410
145214
143985
142725
141438
140138
138843
137564
136312
135098
133933
132815
131737
130681
129615
128518
127384
126226
125059
123887
122705
121506
120284
119034
117755
116447
115115
113765
112404
111039
109675
108314
106960
105613
104275
102944
101621
100304
98994.1
97690.2
96392.1
95100.2
93814.7
92535.9
91263.7
89997.8
88737.1
87480.6
86227.3
84976.5
83727.5
82478.3
81227.3
79972.8
78714
77451.8
76187.4
74920.7
73652.2
72384.1
71118.5
69855.6
68592.1
67325.4
66056
64785.4
63514.8
62243.5
60970.5
59698.2
58426.8
57157.6
55891.4
54630.6
53376
52128
50886.8
49653.4
48428.1
47210.4
45999.5
44794.9
43597
42407
41224.8
40050.8
38885.7
37729.6
36581.8
35441.8
34309
33183.2
32064.4
30952.6
29848.2
28751.8
27665.1
26589.6
25526.9
214594
214504
214345
214124
213847
213523
213155
212743
212283
211774
211214
210604
209953
209274
208585
207903
207226
206546
205859
205164
204461
203748
203023
202286
201538
200778
200007
199226
198434
197633
196823
196008
195187
194362
193534
192704
191875
191043
190209
189371
188527
187674
186811
185937
185050
184150
183237
182310
181369
180415
179448
178469
177479
176480
175473
174460
173442
172421
171394
170362
169326
168285
167240
166191
165139
164085
163027
161964
160894
159815
158726
157628
156524
155416
154307
153196
152080
150958
149830
148692
147542
146374
145182
143964
142719
141451
140171
138894
137630
136388
135181
134017