/*--------------------------------*- C++ -*----------------------------------*\
  =========                 |
  \\      /  F ield         | OpenFOAM: The Open Source CFD Toolbox
   \\    /   O peration     | Website:  https://openfoam.org
    \\  /    A nd           | Version:  9
     \\/     M anipulation  |
\*---------------------------------------------------------------------------*/
FoamFile
{
    format      ascii;
    class       volVectorField;
    location    "0.078";
    object      UMean;
}
// * * * * * * * * * * * * * * * * * * * * * * * * * * * * * * * * * * * * * //

dimensions      [0 1 -1 0 0 0 0];

internalField   nonuniform List<vector> 
12225
(
(9.84433 0.0445602 0)
(9.55055 0.0609728 0)
(9.25163 0.0587592 0)
(8.94861 0.0573589 0)
(8.65045 0.0568283 0)
(8.36198 0.0561199 0)
(8.08392 0.0549756 0)
(7.81618 0.0539711 0)
(7.55701 0.0527065 0)
(7.30692 0.052297 0)
(7.06143 0.0512885 0)
(6.82424 0.0524746 0)
(6.58279 0.0517143 0)
(6.35217 0.0564354 0)
(6.0959 0.0556149 0)
(5.86434 0.0687457 0)
(5.55691 0.0672547 0)
(5.31286 0.0994854 0)
(10.0304 0.051491 0)
(10.0899 0.0749052 0)
(10.1278 0.0738074 0)
(10.141 0.0748428 0)
(10.1377 0.0782182 0)
(10.1244 0.0813273 0)
(10.1027 0.0838482 0)
(10.074 0.0859751 0)
(10.0376 0.0882527 0)
(9.99515 0.090532 0)
(9.94489 0.0936841 0)
(9.89006 0.0970264 0)
(9.82561 0.102676 0)
(9.75735 0.108444 0)
(9.67444 0.1199 0)
(9.58765 0.130643 0)
(9.47746 0.154263 0)
(9.36107 0.172857 0)
(10.0063 0.0308651 0)
(10.0396 0.0542162 0)
(10.0696 0.0562852 0)
(10.0882 0.0582232 0)
(10.0995 0.0627064 0)
(10.1083 0.0673852 0)
(10.1164 0.0712164 0)
(10.1235 0.0748987 0)
(10.1291 0.078395 0)
(10.1324 0.0827263 0)
(10.1335 0.0870861 0)
(10.1319 0.0933487 0)
(10.1284 0.0999631 0)
(10.1217 0.110459 0)
(10.1146 0.122635 0)
(10.1037 0.141363 0)
(10.097 0.164756 0)
(10.0878 0.192501 0)
(9.9958 0.0280468 0)
(10.0181 0.0573481 0)
(10.0417 0.0627473 0)
(10.0575 0.0644318 0)
(10.0667 0.068429 0)
(10.0731 0.0730973 0)
(10.0789 0.0770927 0)
(10.0842 0.0804647 0)
(10.0887 0.0839182 0)
(10.0919 0.087822 0)
(10.094 0.0927145 0)
(10.0949 0.0986665 0)
(10.0951 0.106484 0)
(10.0947 0.116428 0)
(10.0949 0.129776 0)
(10.0968 0.147002 0)
(10.1029 0.168112 0)
(10.1163 0.190519 0)
(10.0133 0.0225159 0)
(10.0288 0.0465925 0)
(10.0475 0.0540041 0)
(10.0608 0.0562045 0)
(10.0681 0.0598113 0)
(10.0728 0.0646967 0)
(10.077 0.069373 0)
(10.081 0.0736566 0)
(10.0842 0.0778467 0)
(10.0861 0.082524 0)
(10.087 0.0879091 0)
(10.0871 0.0944785 0)
(10.0867 0.102592 0)
(10.0864 0.112809 0)
(10.0867 0.125706 0)
(10.0894 0.141423 0)
(10.0949 0.159162 0)
(10.1061 0.176337 0)
(9.98433 0.0188312 0)
(9.99856 0.0440735 0)
(10.0164 0.054419 0)
(10.031 0.0582365 0)
(10.0403 0.0620723 0)
(10.0463 0.0669453 0)
(10.0511 0.0718034 0)
(10.0556 0.0762442 0)
(10.0594 0.0806163 0)
(10.0623 0.0854157 0)
(10.0642 0.0909795 0)
(10.0656 0.097672 0)
(10.0665 0.105777 0)
(10.0677 0.115764 0)
(10.0697 0.127773 0)
(10.0736 0.14178 0)
(10.0798 0.156578 0)
(10.0897 0.170744 0)
(10.0082 0.0146972 0)
(10.0172 0.037435 0)
(10.0301 0.0482384 0)
(10.0421 0.0528428 0)
(10.0505 0.0566611 0)
(10.0559 0.0614784 0)
(10.0601 0.0666926 0)
(10.0642 0.0716829 0)
(10.0678 0.0765458 0)
(10.0708 0.081741 0)
(10.0728 0.0876509 0)
(10.0743 0.0946151 0)
(10.0754 0.102847 0)
(10.077 0.112645 0)
(10.0794 0.123927 0)
(10.0836 0.136587 0)
(10.0898 0.149542 0)
(10.0988 0.162112 0)
(10.0099 0.0142928 0)
(10.0176 0.0343914 0)
(10.0287 0.0465815 0)
(10.0394 0.0527969 0)
(10.0472 0.0571903 0)
(10.0526 0.0619871 0)
(10.0568 0.0671883 0)
(10.0605 0.072368 0)
(10.064 0.0774977 0)
(10.0672 0.0829524 0)
(10.07 0.0890634 0)
(10.0726 0.0961193 0)
(10.0751 0.104229 0)
(10.0779 0.113555 0)
(10.0814 0.123919 0)
(10.0864 0.135216 0)
(10.0926 0.14659 0)
(10.101 0.157697 0)
(9.99927 0.0113158 0)
(10.006 0.0286456 0)
(10.0157 0.0409565 0)
(10.0259 0.0480205 0)
(10.0344 0.052731 0)
(10.0407 0.0574789 0)
(10.0456 0.062785 0)
(10.05 0.0682748 0)
(10.0541 0.0737338 0)
(10.0578 0.0793605 0)
(10.061 0.0854868 0)
(10.064 0.0924496 0)
(10.067 0.100359 0)
(10.0705 0.109311 0)
(10.0746 0.119042 0)
(10.0801 0.129448 0)
(10.0866 0.13977 0)
(10.0949 0.149852 0)
(10.0011 0.00989217 0)
(10.006 0.0266817 0)
(10.0132 0.0388638 0)
(10.0214 0.0468266 0)
(10.0287 0.0524923 0)
(10.0345 0.057542 0)
(10.0391 0.06272 0)
(10.0432 0.0681115 0)
(10.0472 0.0736739 0)
(10.0509 0.0795321 0)
(10.0543 0.085841 0)
(10.0575 0.0927986 0)
(10.0607 0.100427 0)
(10.0644 0.108803 0)
(10.0689 0.117682 0)
(10.0745 0.127025 0)
(10.081 0.136188 0)
(10.089 0.145206 0)
(9.99704 0.0080248 0)
(9.9998 0.0234908 0)
(10.0055 0.0345253 0)
(10.0134 0.0422486 0)
(10.021 0.0480573 0)
(10.0273 0.0531744 0)
(10.0324 0.0583674 0)
(10.0369 0.0639058 0)
(10.0412 0.0697141 0)
(10.0454 0.0757798 0)
(10.0493 0.0821535 0)
(10.0531 0.0890032 0)
(10.0568 0.0963251 0)
(10.061 0.104212 0)
(10.0655 0.112411 0)
(10.071 0.120948 0)
(10.077 0.129253 0)
(10.0844 0.137474 0)
(9.99506 0.00894308 0)
(9.99663 0.0224247 0)
(10.0015 0.0325893 0)
(10.0086 0.0405554 0)
(10.0159 0.0469291 0)
(10.0222 0.0524171 0)
(10.0274 0.0576947 0)
(10.0322 0.0631465 0)
(10.037 0.0688771 0)
(10.0418 0.0749286 0)
(10.0468 0.0813168 0)
(10.0517 0.0881307 0)
(10.0567 0.0952953 0)
(10.0618 0.102845 0)
(10.0672 0.11052 0)
(10.0731 0.11838 0)
(10.0796 0.125913 0)
(10.0866 0.13339 0)
(10.0092 0.00689845 0)
(10.0109 0.0177958 0)
(10.0148 0.0279195 0)
(10.0204 0.0361169 0)
(10.0266 0.0424964 0)
(10.0323 0.0479256 0)
(10.0373 0.0531873 0)
(10.0418 0.0586384 0)
(10.0462 0.0643131 0)
(10.0506 0.0702457 0)
(10.0553 0.0764558 0)
(10.0601 0.0830311 0)
(10.0652 0.0899148 0)
(10.0706 0.0971143 0)
(10.0765 0.104392 0)
(10.0827 0.111778 0)
(10.0895 0.118837 0)
(10.0967 0.125853 0)
(10.0047 0.010519 0)
(10.0069 0.0188256 0)
(10.0106 0.0281805 0)
(10.0158 0.036134 0)
(10.0217 0.0423869 0)
(10.0277 0.0477253 0)
(10.0335 0.0528909 0)
(10.039 0.0582197 0)
(10.0443 0.0637363 0)
(10.0496 0.0694594 0)
(10.0549 0.0753916 0)
(10.0604 0.0816002 0)
(10.0661 0.0879977 0)
(10.0721 0.0946224 0)
(10.0786 0.101221 0)
(10.0854 0.107923 0)
(10.0926 0.114266 0)
(10.1001 0.120664 0)
(10.0003 0.00369324 0)
(10.0054 0.0131989 0)
(10.0103 0.0215158 0)
(10.0156 0.0286223 0)
(10.0214 0.0346108 0)
(10.0276 0.0399179 0)
(10.0339 0.0450212 0)
(10.0399 0.05025 0)
(10.0456 0.0557171 0)
(10.0512 0.0614167 0)
(10.0569 0.0672448 0)
(10.0627 0.0731724 0)
(10.0689 0.0791065 0)
(10.0754 0.0851171 0)
(10.0822 0.0910648 0)
(10.0893 0.0971197 0)
(10.0967 0.102917 0)
(10.1043 0.108846 0)
(10.026 0.00233209 0)
(10.027 0.0138837 0)
(10.0294 0.0212694 0)
(10.0335 0.0270576 0)
(10.0387 0.0324244 0)
(10.0445 0.0376867 0)
(10.0503 0.0429154 0)
(10.0561 0.0481765 0)
(10.0617 0.053486 0)
(10.0674 0.0588208 0)
(10.0733 0.0641034 0)
(10.0794 0.0693648 0)
(10.0858 0.0745737 0)
(10.0925 0.0798554 0)
(10.0992 0.085079 0)
(10.1062 0.0904314 0)
(10.1132 0.0955485 0)
(10.1204 0.10085 0)
(10.0008 0.00334069 0)
(9.99831 0.00959134 0)
(9.99841 0.0148598 0)
(10.0018 0.0198709 0)
(10.0073 0.0246654 0)
(10.0133 0.0292088 0)
(10.0194 0.0336234 0)
(10.0255 0.0380952 0)
(10.0316 0.0426985 0)
(10.0379 0.0474278 0)
(10.0445 0.0521831 0)
(10.0513 0.056958 0)
(10.0582 0.0616816 0)
(10.0654 0.0664582 0)
(10.0726 0.0711469 0)
(10.0801 0.0759451 0)
(10.0874 0.0805028 0)
(10.0953 0.0852584 0)
(9.99182 0.0104814 0)
(9.99174 0.0108925 0)
(9.99314 0.0135635 0)
(9.99679 0.0170706 0)
(10.0019 0.0207065 0)
(10.0076 0.0244633 0)
(10.0135 0.0284651 0)
(10.0195 0.0326524 0)
(10.0256 0.0368272 0)
(10.0319 0.0408879 0)
(10.0384 0.0447829 0)
(10.0451 0.0486005 0)
(10.052 0.0523281 0)
(10.0591 0.0561054 0)
(10.0663 0.0598045 0)
(10.0736 0.0636367 0)
(10.0809 0.0672861 0)
(10.0882 0.0711823 0)
(9.99773 0.00172631 0)
(10.0016 0.00327855 0)
(10.0067 0.00521947 0)
(10.0124 0.00714819 0)
(10.0183 0.0091972 0)
(10.0246 0.0116434 0)
(10.0313 0.0145648 0)
(10.0384 0.0177953 0)
(10.0458 0.0210677 0)
(10.0533 0.0242475 0)
(10.0608 0.0272937 0)
(10.0683 0.0303016 0)
(10.0757 0.0332927 0)
(10.083 0.0363925 0)
(10.0904 0.0394966 0)
(10.0977 0.0427373 0)
(10.1051 0.0458366 0)
(10.1124 0.0490873 0)
(10.0004 0.00104072 0)
(10.0029 0.000330743 0)
(10.0062 0.000295757 0)
(10.0104 0.0010567 0)
(10.0156 0.00247819 0)
(10.0217 0.00420435 0)
(10.0285 0.00605099 0)
(10.0358 0.00809866 0)
(10.0432 0.0104528 0)
(10.0507 0.013111 0)
(10.0583 0.015928 0)
(10.0659 0.018773 0)
(10.0735 0.0214832 0)
(10.0811 0.0240686 0)
(10.0888 0.0264461 0)
(10.0965 0.0288001 0)
(10.1044 0.0309765 0)
(10.1122 0.0333213 0)
(10.0121 -0.00296827 0)
(10.0155 -0.00382121 0)
(10.0205 -0.00481001 0)
(10.0266 -0.00545945 0)
(10.0332 -0.00571203 0)
(10.0401 -0.00551641 0)
(10.0471 -0.0048073 0)
(10.0542 -0.00357181 0)
(10.0613 -0.00190905 0)
(10.0686 3.71619e-05 0)
(10.0762 0.00208792 0)
(10.084 0.00413194 0)
(10.0919 0.0060537 0)
(10.1 0.00787625 0)
(10.108 0.00954566 0)
(10.116 0.0112157 0)
(10.124 0.0127697 0)
(10.1319 0.0144803 0)
(9.99985 -0.00496393 0)
(10.0014 -0.00877161 0)
(10.0055 -0.0106834 0)
(10.0115 -0.0114069 0)
(10.0182 -0.0115048 0)
(10.025 -0.011158 0)
(10.0318 -0.0104523 0)
(10.0387 -0.0094616 0)
(10.046 -0.00827889 0)
(10.0537 -0.00696769 0)
(10.0618 -0.00559913 0)
(10.07 -0.00419444 0)
(10.0782 -0.00281526 0)
(10.0864 -0.00143734 0)
(10.0946 -0.000124939 0)
(10.1027 0.00122459 0)
(10.1107 0.00249102 0)
(10.1187 0.00388184 0)
(9.9908 -0.0016412 0)
(9.99714 -0.0101776 0)
(10.0041 -0.0149158 0)
(10.0117 -0.0169457 0)
(10.0197 -0.017727 0)
(10.0278 -0.0182463 0)
(10.0358 -0.0187811 0)
(10.0439 -0.0191416 0)
(10.052 -0.0191095 0)
(10.0603 -0.0186363 0)
(10.0686 -0.0178391 0)
(10.0768 -0.016864 0)
(10.0848 -0.0158634 0)
(10.0928 -0.0148751 0)
(10.1007 -0.0139712 0)
(10.1085 -0.0130687 0)
(10.1163 -0.0122448 0)
(10.124 -0.0113207 0)
(10.0005 -0.0132382 0)
(10.0063 -0.0157686 0)
(10.0147 -0.0203701 0)
(10.0242 -0.0230753 0)
(10.0336 -0.0238688 0)
(10.0422 -0.0239643 0)
(10.0503 -0.0240231 0)
(10.0581 -0.0240162 0)
(10.0659 -0.0237414 0)
(10.0737 -0.0231396 0)
(10.0816 -0.0223279 0)
(10.0895 -0.0214332 0)
(10.0974 -0.0205705 0)
(10.1052 -0.0197612 0)
(10.113 -0.0190487 0)
(10.1208 -0.0183499 0)
(10.1285 -0.0177208 0)
(10.1361 -0.0170126 0)
(9.98889 -0.0111999 0)
(9.99089 -0.0216375 0)
(9.99859 -0.0277241 0)
(10.0091 -0.0303493 0)
(10.0189 -0.0314533 0)
(10.0271 -0.0322763 0)
(10.0347 -0.0330675 0)
(10.0424 -0.0336371 0)
(10.0503 -0.033847 0)
(10.0585 -0.0337356 0)
(10.0667 -0.0334335 0)
(10.075 -0.0330393 0)
(10.0834 -0.032635 0)
(10.0918 -0.0322348 0)
(10.1002 -0.0318793 0)
(10.1085 -0.031532 0)
(10.1167 -0.031247 0)
(10.1247 -0.0309365 0)
(10.0029 -0.0093161 0)
(10.0127 -0.0254046 0)
(10.0256 -0.0298383 0)
(10.0383 -0.030401 0)
(10.0488 -0.0309368 0)
(10.0576 -0.0320263 0)
(10.0659 -0.0331258 0)
(10.0742 -0.0338351 0)
(10.0828 -0.0341413 0)
(10.0914 -0.0342125 0)
(10.1001 -0.0341908 0)
(10.1087 -0.0341339 0)
(10.1174 -0.0340612 0)
(10.1261 -0.0339486 0)
(10.1347 -0.0338102 0)
(10.1433 -0.0336227 0)
(10.1518 -0.0334377 0)
(10.1601 -0.0332019 0)
(9.99596 -0.0208284 0)
(10.0095 -0.0372405 0)
(10.0242 -0.0420581 0)
(10.0366 -0.0424738 0)
(10.0463 -0.0430877 0)
(10.0545 -0.0443553 0)
(10.0625 -0.0454235 0)
(10.0706 -0.045976 0)
(10.0789 -0.0462008 0)
(10.087 -0.046315 0)
(10.0952 -0.0464093 0)
(10.1033 -0.0464891 0)
(10.1114 -0.0465526 0)
(10.1196 -0.0466027 0)
(10.1277 -0.0466599 0)
(10.1357 -0.0467076 0)
(10.1437 -0.0467666 0)
(10.1515 -0.0467825 0)
(10.0106 -0.0190718 0)
(10.0289 -0.0315 0)
(10.0486 -0.0352547 0)
(10.0632 -0.0360964 0)
(10.0732 -0.0374971 0)
(10.0819 -0.0391981 0)
(10.0909 -0.0404643 0)
(10.1003 -0.0412913 0)
(10.11 -0.0419444 0)
(10.1196 -0.0425743 0)
(10.1291 -0.0431689 0)
(10.1385 -0.0437147 0)
(10.1477 -0.0441708 0)
(10.1565 -0.0445717 0)
(10.1652 -0.0448883 0)
(10.1735 -0.0451867 0)
(10.1818 -0.0454388 0)
(10.1895 -0.0457292 0)
(10.0108 -0.0381904 0)
(10.0469 -0.0553009 0)
(10.0776 -0.0535167 0)
(10.0975 -0.05254 0)
(10.1103 -0.0536669 0)
(10.1196 -0.054874 0)
(10.1269 -0.0556003 0)
(10.1324 -0.0560868 0)
(10.1357 -0.0565103 0)
(10.137 -0.0569009 0)
(10.1363 -0.0572002 0)
(10.1344 -0.0574244 0)
(10.1312 -0.0575488 0)
(10.1274 -0.0576537 0)
(10.1227 -0.0576961 0)
(10.1177 -0.0577899 0)
(10.1115 -0.057868 0)
(10.1057 -0.058095 0)
(9.91537 -0.0297087 0)
(9.75331 -0.0465352 0)
(9.58758 -0.0454219 0)
(9.41891 -0.0445268 0)
(9.25319 -0.0448355 0)
(9.09374 -0.0449544 0)
(8.94141 -0.0445985 0)
(8.79598 -0.0439672 0)
(8.65694 -0.0432399 0)
(8.52405 -0.0425316 0)
(8.39689 -0.0418923 0)
(8.27549 -0.0413492 0)
(8.15918 -0.040854 0)
(8.04838 -0.0403876 0)
(7.94195 -0.0398694 0)
(7.84118 -0.0393384 0)
(7.74364 -0.0387506 0)
(7.65253 -0.0382494 0)
(-0.229155 0.48774 -1.24156e-21)
(-0.553228 0.239786 1.26235e-21)
(-0.704682 0.0293817 0)
(-0.684443 -0.176258 0)
(-0.4716 -0.354982 0)
(-0.126087 -0.479302 -1.2122e-21)
(0.307359 -0.540913 0)
(0.780524 -0.543298 0)
(1.24734 -0.504903 0)
(1.67592 -0.440647 0)
(2.0476 -0.3647 1.28646e-21)
(2.35653 -0.29183 0)
(2.60461 -0.225652 0)
(2.79329 -0.159702 0)
(2.92756 -0.0934708 0)
(3.00986 -0.0266505 1.62512e-21)
(3.03816 0.00540382 0)
(3.04435 0.00291375 0)
(3.0297 0.0178769 0)
(2.99542 0.0431785 0)
(2.92871 0.0708116 0)
(2.82106 0.0952075 0)
(2.66499 0.127349 0)
(2.47462 0.179103 1.53964e-21)
(2.2324 0.242244 -1.49754e-21)
(1.96182 0.244976 1.46165e-21)
(1.68526 0.212642 1.43571e-21)
(1.39516 0.145561 0)
(1.14057 0.0769853 0)
(0.89402 0.112703 -1.41008e-21)
(0.637669 0.158666 -1.41494e-21)
(0.373343 0.180716 0)
(0.107353 0.178183 0)
(-0.136816 0.152639 -1.46174e-21)
(-0.341514 0.113298 0)
(-0.503016 0.074162 0)
(-0.618061 0.0416245 1.48607e-21)
(-0.701478 0.0251973 0)
(-0.781457 0.0243809 1.51408e-21)
(-0.892953 0.0527038 3.08803e-21)
(-1.06447 0.107151 0)
(-1.29172 0.16178 0)
(-1.57613 0.190756 0)
(-1.85649 0.158373 0)
(-2.09824 0.120977 0)
(-2.29704 0.0464034 3.40092e-21)
(-2.43551 -0.0795977 3.48754e-21)
(-2.57697 -0.102074 3.57974e-21)
(-2.705 0.0376631 0)
(-2.91052 0.117989 -3.68257e-21)
(-3.07108 0.111966 0)
(-3.20845 0.110768 3.78884e-21)
(-3.32607 0.10499 3.83357e-21)
(-3.4271 0.0899144 0)
(-3.50513 0.0631789 0)
(-3.57345 0.00472236 0)
(-3.62781 0.0152139 3.90906e-21)
(-3.72638 0.0459726 0)
(-3.79697 0.0292585 0)
(-3.84413 0.0118403 0)
(-3.83996 -0.0107125 0)
(-3.83222 -0.0819521 0)
(-3.81058 -0.066611 0)
(-3.87852 0.0186475 0)
(-3.97501 0.030278 0)
(-4.06814 0.0396174 -4.22813e-21)
(-4.17791 0.0405093 0)
(-4.28664 0.0428435 0)
(-4.40766 0.0452391 4.48308e-21)
(-4.53183 0.0463924 4.5584e-21)
(-4.65933 0.0445057 0)
(-4.78468 0.0404481 -4.67167e-21)
(-4.90402 0.0415598 4.71521e-21)
(-5.02229 0.0502887 0)
(-5.14231 0.0575888 -4.81765e-21)
(-5.26127 0.0633102 0)
(-5.38019 0.0641222 0)
(-5.49819 0.0634483 4.96853e-21)
(-5.6225 0.065546 0)
(-5.75972 0.0702833 -4.95764e-21)
(-5.91106 0.0730522 0)
(-6.07264 0.0645488 4.84505e-21)
(-6.21274 0.0487943 4.76185e-21)
(-6.34869 0.0281497 4.66488e-21)
(-6.43381 -0.010686 9.10621e-21)
(-6.53056 -0.0338329 -8.87415e-21)
(-6.623 -0.0335098 0)
(-6.80058 0.0399008 0)
(-7.07715 0.172035 0)
(-7.4015 0.180029 -7.98962e-21)
(-7.60858 0.124447 -7.95427e-21)
(-7.7334 0.0780116 7.93419e-21)
(-7.78252 0.0351458 0)
(-7.76595 -0.000110733 -7.748e-21)
(-7.69266 -0.0303507 -7.54021e-21)
(-7.56858 -0.055711 -7.24822e-21)
(-7.3997 -0.0775806 0)
(-7.19002 -0.0963714 0)
(-6.944 -0.112738 0)
(-6.66462 -0.126982 -5.29367e-21)
(-6.35524 -0.139542 0)
(-6.0184 -0.150294 0)
(-5.65688 -0.159395 3.17986e-21)
(-5.27368 -0.166794 0)
(-4.87224 -0.172528 0)
(-4.45577 -0.176593 8.06228e-22)
(-4.02764 -0.179012 0)
(-3.59154 -0.179784 0)
(-3.15128 -0.178916 1.47047e-21)
(-2.71073 -0.17637 2.14811e-21)
(-2.27367 -0.172195 0)
(-1.8439 -0.166523 -3.32516e-21)
(-1.42515 -0.15955 0)
(-1.01994 -0.151792 4.23519e-21)
(-0.630147 -0.144177 0)
(-0.257009 -0.136168 4.88429e-21)
(0.0998117 -0.128284 5.12159e-21)
(0.440343 -0.120662 0)
(0.764806 -0.113282 0)
(1.07344 -0.106075 0)
(1.36654 -0.0989842 0)
(1.64423 -0.0920009 0)
(1.90642 -0.085247 0)
(2.15281 -0.0787976 0)
(2.38399 -0.0725641 5.48666e-21)
(2.59999 -0.0662833 -5.39449e-21)
(2.80127 -0.0602274 0)
(2.98813 -0.0544385 0)
(3.16097 -0.0489105 0)
(3.32028 -0.0436541 0)
(3.46658 -0.0386786 -9.48116e-21)
(3.60043 -0.0339887 0)
(3.72239 -0.0295855 8.88991e-21)
(3.83299 -0.0254571 -8.59778e-21)
(3.93273 -0.021558 0)
(4.02194 -0.0178268 0)
(4.10089 -0.0142747 0)
(4.16993 -0.0110249 7.5164e-21)
(4.22966 -0.00821697 7.27709e-21)
(4.28087 -0.00583839 0)
(4.32437 -0.00368489 6.84443e-21)
(4.36068 -0.00151435 6.6526e-21)
(4.39006 0.000808252 -6.47767e-21)
(4.41252 0.00329388 0)
(4.42784 0.00588285 0)
(4.43579 0.00851966 -6.05427e-21)
(4.43593 0.011207 0)
(4.42788 0.0139547 0)
(4.41123 0.0167565 0)
(4.38549 0.0195965 0)
(4.35014 0.0224646 5.6646e-21)
(4.30448 0.0253376 5.62842e-21)
(4.24773 0.0281906 0)
(4.17895 0.0310615 5.58932e-21)
(4.09697 0.0338801 0)
(4.00056 0.0362484 0)
(3.88911 0.0375609 5.57476e-21)
(3.76296 0.0371388 0)
(3.62487 0.0337364 5.54806e-21)
(3.48248 0.0272922 0)
(3.34646 0.0199875 0)
(3.22651 0.0162067 5.46476e-21)
(3.12765 0.0173224 0)
(3.03955 0.0260761 5.41759e-21)
(2.9453 0.0327937 0)
(2.84433 0.0325985 0)
(2.73883 0.0285955 0)
(2.63302 0.0209581 -5.28561e-21)
(2.53628 0.0137776 0)
(2.45418 0.00833945 5.21407e-21)
(2.3841 0.00601026 0)
(2.32273 0.00888624 0)
(2.25722 0.0155402 0)
(2.17725 0.0207497 0)
(2.08043 0.024146 0)
(1.96324 0.0235146 0)
(1.85019 0.027736 0)
(1.6863 0.0261486 -1.00293e-20)
(1.60007 0.0497263 0)
(1.27526 0.0170682 0)
(-0.0108093 1.01171 3.82554e-21)
(0.0197158 0.685951 -3.87179e-21)
(0.108349 0.200619 0)
(0.338312 -0.304635 2.69422e-21)
(0.65897 -0.816115 0)
(1.05837 -1.196 1.2083e-21)
(1.47715 -1.39597 -2.70095e-21)
(1.87721 -1.4394 -2.73501e-21)
(2.23763 -1.36319 0)
(2.54579 -1.20918 -2.92554e-21)
(2.79652 -1.01967 -1.28347e-21)
(2.98972 -0.823218 0)
(3.13054 -0.638457 0)
(3.22546 -0.475081 0)
(3.28449 -0.332531 0)
(3.31864 -0.196873 -1.62249e-21)
(3.33145 -0.080478 0)
(3.31488 0.0028435 3.64335e-21)
(3.27355 0.0615459 0)
(3.21241 0.118575 0)
(3.11276 0.228646 -3.55907e-21)
(2.97966 0.362584 0)
(2.81546 0.471901 3.42353e-21)
(2.63736 0.56441 -1.53461e-21)
(2.45259 0.628851 1.4921e-21)
(2.24259 0.666374 -1.45593e-21)
(1.99614 0.722976 -1.42982e-21)
(1.69953 0.76209 0)
(1.35968 0.755822 0)
(0.981452 0.720006 1.40539e-21)
(0.619746 0.681687 -1.64189e-21)
(0.30208 0.64761 0)
(0.0115624 0.611496 0)
(-0.229055 0.540362 1.45867e-21)
(-0.43809 0.436639 0)
(-0.616226 0.323191 0)
(-0.763446 0.21054 -1.48208e-21)
(-0.904428 0.158163 0)
(-1.06712 0.216406 1.83348e-21)
(-1.25767 0.34896 -3.07934e-21)
(-1.46293 0.476253 0)
(-1.67087 0.571462 0)
(-1.87742 0.602985 -6.99285e-21)
(-2.09938 0.542767 -7.03956e-21)
(-2.34281 0.488786 -7.15216e-21)
(-2.55584 0.424262 3.90467e-21)
(-2.80638 0.448018 -3.48211e-21)
(-3.09103 0.455938 -1.12381e-20)
(-3.27179 0.410252 7.82744e-21)
(-3.43815 0.347274 3.67521e-21)
(-3.54709 0.268116 0)
(-3.63793 0.212617 -3.78165e-21)
(-3.68818 0.15862 4.4302e-21)
(-3.73182 0.116247 0)
(-3.766 0.103204 0)
(-3.84164 0.132291 0)
(-3.90713 0.151065 -3.90458e-21)
(-3.97214 0.133807 0)
(-4.00381 0.0846642 8.33252e-21)
(-4.03303 0.0140387 0)
(-4.03993 -0.0385507 8.4109e-21)
(-4.14534 0.0355086 0)
(-4.26494 0.108439 -8.5926e-21)
(-4.37679 0.150898 0)
(-4.48623 0.164667 8.85436e-21)
(-4.59302 0.184249 -4.80232e-21)
(-4.70653 0.198812 0)
(-4.82033 0.214154 -9.39321e-21)
(-4.94303 0.224598 -4.48032e-21)
(-5.0718 0.230745 -4.55518e-21)
(-5.20878 0.229307 0)
(-5.34961 0.220285 -5.19899e-21)
(-5.47387 0.202649 -4.71059e-21)
(-5.58338 0.188803 0)
(-5.67072 0.184159 4.81308e-21)
(-5.73977 0.179851 -1.02305e-20)
(-5.80862 0.177116 0)
(-5.88936 0.18557 -4.96373e-21)
(-5.98465 0.202868 0)
(-6.09394 0.223495 1.52385e-20)
(-6.21226 0.240104 0)
(-6.34761 0.240186 -1.48468e-20)
(-6.48033 0.225623 -4.75925e-21)
(-6.6278 0.194601 4.93367e-21)
(-6.7829 0.183102 9.6357e-21)
(-7.01799 0.222573 -9.4286e-21)
(-7.25911 0.296589 0)
(-7.56271 0.405881 0)
(-7.73586 0.391076 0)
(-7.84231 0.294006 2.50322e-20)
(-7.85968 0.176998 7.95093e-21)
(-7.83276 0.0711562 -7.93029e-21)
(-7.75451 -0.0243846 0)
(-7.63965 -0.106032 -8.44767e-21)
(-7.48697 -0.177446 7.53833e-21)
(-7.30255 -0.239464 7.24748e-21)
(-7.08661 -0.294313 0)
(-6.84207 -0.342911 0)
(-6.56924 -0.386371 0)
(-6.27011 -0.425268 5.29584e-21)
(-5.94547 -0.460027 0)
(-5.59732 -0.490637 -8.22088e-21)
(-5.22718 -0.517101 -9.88027e-21)
(-4.83731 -0.53918 5.1152e-21)
(-4.42972 -0.556682 0)
(-4.00735 -0.569379 1.06937e-21)
(-3.57345 -0.577173 0)
(-3.13154 -0.580017 -1.27076e-21)
(-2.68534 -0.577892 1.27479e-21)
(-2.23858 -0.570679 1.97338e-21)
(-1.79503 -0.558427 0)
(-1.35842 -0.541639 9.83691e-21)
(-0.932694 -0.521048 -7.50524e-21)
(-0.520729 -0.498097 -4.23365e-21)
(-0.124247 -0.474349 0)
(0.256002 -0.450253 -4.88185e-21)
(0.620141 -0.426548 -1.52688e-20)
(0.968355 -0.40359 0)
(1.30108 -0.381466 -1.08077e-20)
(1.61856 -0.35996 -1.10025e-20)
(1.92105 -0.338855 -1.11174e-20)
(2.20872 -0.318081 0)
(2.48136 -0.298195 0)
(2.73865 -0.278514 0)
(2.98137 -0.259268 5.4254e-21)
(3.20957 -0.240459 5.38906e-21)
(3.42357 -0.222295 0)
(3.62377 -0.204907 1.02652e-20)
(3.81062 -0.188358 1.00002e-20)
(3.98467 -0.172681 0)
(4.14652 -0.157884 9.47217e-21)
(4.29679 -0.143944 1.82769e-20)
(4.43608 -0.130812 -8.88156e-21)
(4.56495 -0.118414 -8.51966e-21)
(4.68385 -0.106655 0)
(4.79326 -0.0954422 0)
(4.89364 -0.0847281 0)
(4.98533 -0.0745619 -7.5091e-21)
(5.06854 -0.0650712 7.20999e-21)
(5.14332 -0.0563705 1.40327e-20)
(5.20981 -0.04848 -6.8375e-21)
(5.26843 -0.0412852 6.588e-21)
(5.31977 -0.0345737 6.47092e-21)
(5.36458 -0.0280822 0)
(5.40362 -0.0215764 0)
(5.43734 -0.0149013 -5.98819e-21)
(5.46602 -0.00798235 0)
(5.48957 -0.000799882 0)
(5.50778 0.00666293 1.14745e-20)
(5.52031 0.0144561 0)
(5.52677 0.0226701 5.58677e-21)
(5.52656 0.0314333 -5.62146e-21)
(5.51899 0.0408747 0)
(5.5032 0.051169 5.49386e-21)
(5.47824 0.0624393 0)
(5.44293 0.074598 0)
(5.39591 0.0870972 -5.56725e-21)
(5.33527 0.0989838 1.09899e-20)
(5.25904 0.108174 -5.5403e-21)
(5.16546 0.112092 0)
(5.05279 0.107684 0)
(4.91984 0.095198 5.34864e-21)
(4.77038 0.0786517 0)
(4.62617 0.0657709 5.3111e-21)
(4.51049 0.0633636 0)
(4.42531 0.0675542 0)
(4.36039 0.0735088 0)
(4.29526 0.0757971 5.27717e-21)
(4.22295 0.0711495 0)
(4.14811 0.0624385 -5.20549e-21)
(4.07456 0.054404 0)
(4.004 0.0486824 0)
(3.94409 0.0511038 1.01709e-20)
(3.88823 0.058104 -1.01252e-20)
(3.83704 0.0713057 0)
(3.76609 0.0779517 0)
(3.70051 0.0939202 0)
(3.57351 0.0878283 2.99222e-20)
(3.50325 0.120923 0)
(3.27374 0.09723 -1.97058e-20)
(0.0867131 0.619169 -4.24153e-23)
(0.351671 0.158399 5.15882e-21)
(0.711234 -0.513918 0)
(1.14568 -1.18979 -5.41342e-21)
(1.57171 -1.73496 0)
(1.93274 -2.06791 0)
(2.20873 -2.17108 -3.87764e-22)
(2.40909 -2.08668 2.73013e-21)
(2.5475 -1.86707 3.33817e-21)
(2.64537 -1.56984 2.92329e-21)
(2.70777 -1.25487 0)
(2.74601 -0.959466 0)
(2.76211 -0.694584 -3.82902e-21)
(2.75922 -0.465637 -7.8158e-21)
(2.73862 -0.27721 7.92751e-21)
(2.7045 -0.122923 0)
(2.66565 0.00858926 8.02156e-21)
(2.61 0.118518 -3.64553e-21)
(2.54076 0.2102 0)
(2.43303 0.349045 7.89123e-21)
(2.30527 0.500604 3.55852e-21)
(2.17567 0.631799 -7.67032e-21)
(2.03986 0.748447 -3.42116e-21)
(1.90264 0.843567 0)
(1.75401 0.930739 7.22748e-21)
(1.57004 1.04394 7.07937e-21)
(1.36613 1.1518 0)
(1.13369 1.25277 6.82125e-21)
(0.874509 1.32239 0)
(0.590235 1.34043 6.66549e-21)
(0.28433 1.29886 3.0419e-21)
(-0.00872675 1.21086 0)
(-0.280642 1.0849 0)
(-0.512619 0.928235 0)
(-0.727739 0.777609 0)
(-0.921488 0.634152 0)
(-1.13089 0.548074 0)
(-1.35291 0.534441 7.10928e-21)
(-1.58309 0.592633 -1.05885e-20)
(-1.81786 0.696759 0)
(-2.02761 0.788535 0)
(-2.23543 0.833982 0)
(-2.39743 0.880806 -6.07684e-22)
(-2.5844 0.871045 7.02654e-21)
(-2.75719 0.822414 1.48695e-20)
(-2.92715 0.769522 -1.5171e-20)
(-3.08947 0.714025 -8.06029e-21)
(-3.22935 0.647078 7.6552e-21)
(-3.32099 0.576646 6.28125e-22)
(-3.40216 0.499486 8.61101e-21)
(-3.45944 0.415832 0)
(-3.51883 0.333788 8.83998e-21)
(-3.56853 0.266583 6.4202e-22)
(-3.64323 0.238077 0)
(-3.71798 0.234653 0)
(-3.78898 0.237737 -8.94538e-21)
(-3.83598 0.221551 0)
(-3.88545 0.188746 0)
(-3.92946 0.134664 9.4761e-21)
(-3.99762 0.0988271 1.78152e-20)
(-4.13404 0.152341 -8.41158e-21)
(-4.31063 0.231259 0)
(-4.4637 0.273834 8.59158e-21)
(-4.59739 0.294493 0)
(-4.72196 0.306261 1.02595e-20)
(-4.83744 0.317525 9.02415e-21)
(-4.94461 0.326357 -1.99398e-20)
(-5.04597 0.341107 -1.09183e-20)
(-5.14712 0.360397 0)
(-5.25227 0.377372 2.08276e-20)
(-5.36169 0.380629 0)
(-5.46588 0.360968 3.09607e-20)
(-5.54866 0.319206 2.12145e-20)
(-5.61 0.274512 2.13677e-20)
(-5.64648 0.236393 -2.15417e-20)
(-5.67929 0.224154 3.1946e-20)
(-5.72373 0.244559 0)
(-5.78069 0.279691 0)
(-5.85405 0.311456 -2.17587e-20)
(-5.94877 0.341059 -3.18449e-20)
(-6.05928 0.368755 0)
(-6.19624 0.380462 1.00124e-20)
(-6.34758 0.375003 0)
(-6.52391 0.372838 -2.95787e-20)
(-6.74269 0.419684 7.96274e-22)
(-6.98053 0.478251 -8.81388e-22)
(-7.22014 0.558261 1.89316e-20)
(-7.36657 0.551737 0)
(-7.38533 0.438967 -1.85351e-20)
(-7.36393 0.288724 1.29657e-21)
(-7.30142 0.134572 0)
(-7.22542 -0.00592968 0)
(-7.12132 -0.132099 0)
(-6.99658 -0.242669 1.62046e-20)
(-6.84238 -0.341447 0)
(-6.66185 -0.429527 0)
(-6.45196 -0.509156 0)
(-6.21504 -0.581251 0)
(-5.95073 -0.647082 0)
(-5.66096 -0.707045 1.16313e-20)
(-5.34629 -0.761464 0)
(-5.0085 -0.810145 8.23073e-21)
(-4.64892 -0.852842 6.70645e-21)
(-4.26982 -0.88902 -5.1221e-21)
(-3.87338 -0.918137 0)
(-3.46251 -0.939526 -1.8812e-21)
(-3.04027 -0.952856 0)
(-2.61005 -0.958005 1.2685e-21)
(-2.17526 -0.954844 -2.74258e-21)
(-1.73944 -0.943302 -1.17823e-20)
(-1.30626 -0.923394 0)
(-0.879665 -0.895592 -1.90713e-20)
(-0.463594 -0.861441 -7.08868e-21)
(-0.0612765 -0.82342 0)
(0.32535 -0.78342 -1.77976e-20)
(0.695794 -0.743031 -1.90076e-20)
(1.05032 -0.703603 3.01325e-20)
(1.38937 -0.665597 0)
(1.71346 -0.629064 1.08039e-20)
(2.02299 -0.593606 1.09985e-20)
(2.31801 -0.558826 3.30965e-20)
(2.59844 -0.524898 0)
(2.86396 -0.491741 0)
(3.11471 -0.459065 0)
(3.35078 -0.427173 1.0705e-20)
(3.57227 -0.396227 0)
(3.77944 -0.366425 0)
(3.97272 -0.337954 -1.02576e-20)
(4.1526 -0.31094 -9.99324e-21)
(4.31968 -0.285445 0)
(4.47466 -0.261474 0)
(4.61824 -0.238982 -1.82662e-20)
(4.75112 -0.217883 0)
(4.87394 -0.198039 1.71005e-20)
(4.98728 -0.179301 1.64184e-20)
(5.09163 -0.161528 0)
(5.1874 -0.144637 0)
(5.27487 -0.128611 -1.48468e-20)
(5.35429 -0.113447 -1.00984e-22)
(5.42583 -0.0991224 -9.88149e-23)
(5.48962 -0.0856237 0)
(5.54578 -0.0729744 -2.63615e-20)
(5.59453 -0.0612237 0)
(5.63626 -0.0503818 0)
(5.67159 -0.0403241 0)
(5.70136 -0.030778 1.20316e-20)
(5.72646 -0.0214201 0)
(5.74757 -0.0119926 -2.30582e-20)
(5.76503 -0.0023131 -1.14706e-20)
(5.77888 0.00775976 0)
(5.78891 0.0183799 -1.12407e-20)
(5.79488 0.0297309 0)
(5.79649 0.0420024 0)
(5.79346 0.0554016 -3.29704e-20)
(5.78556 0.0700759 2.18379e-20)
(5.77253 0.0859579 0)
(5.75391 0.102602 2.17438e-20)
(5.72893 0.119377 -1.09859e-20)
(5.69607 0.135046 0)
(5.6533 0.148178 0)
(5.59701 0.157379 0)
(5.52361 0.162261 -3.21307e-20)
(5.42779 0.163163 0)
(5.30618 0.155213 -1.07153e-20)
(5.16588 0.135243 0)
(5.02152 0.112913 0)
(4.89758 0.0987111 0)
(4.80866 0.0942005 0)
(4.73845 0.0908277 0)
(4.66689 0.0838495 0)
(4.59275 0.0778624 -2.02867e-20)
(4.51701 0.0739112 0)
(4.44723 0.0739804 -1.01646e-20)
(4.38129 0.0746969 3.01507e-20)
(4.33327 0.0835728 0)
(4.28227 0.0906962 0)
(4.25195 0.113873 -1.98158e-20)
(4.18469 0.122604 -1.9898e-20)
(4.14432 0.164494 1.9654e-20)
(4.01059 0.156784 1.9693e-20)
(0.0812316 0.01057 -7.69026e-21)
(0.504513 -0.732764 -7.76718e-21)
(1.01424 -1.55931 -5.44809e-21)
(1.45301 -2.13677 -3.0614e-21)
(1.77929 -2.47557 0)
(1.97086 -2.54485 6.54961e-21)
(2.04999 -2.3964 -3.83408e-21)
(2.06153 -2.13206 0)
(2.03461 -1.81168 -3.34128e-21)
(2.00765 -1.47426 0)
(1.98386 -1.15613 8.13995e-21)
(1.96668 -0.864295 0)
(1.94836 -0.601425 3.83413e-21)
(1.92378 -0.370536 7.8262e-21)
(1.88641 -0.174186 -7.93759e-21)
(1.83529 -0.0106486 0)
(1.77127 0.135651 -8.02986e-21)
(1.69416 0.265102 0)
(1.59187 0.407329 0)
(1.46377 0.573151 -7.89435e-21)
(1.33554 0.724355 0)
(1.20402 0.862517 -7.63928e-22)
(1.07268 0.980822 0)
(0.931876 1.0976 0)
(0.770439 1.23277 8.18778e-22)
(0.59966 1.36745 -7.07286e-21)
(0.421536 1.49753 -7.76998e-21)
(0.240199 1.61105 -6.81048e-21)
(0.0550972 1.69329 0)
(-0.136325 1.73273 -1.40584e-20)
(-0.344881 1.7106 0)
(-0.562378 1.6182 -7.244e-21)
(-0.78583 1.47293 0)
(-1.00376 1.30279 0)
(-1.2227 1.14029 7.22519e-21)
(-1.44752 1.00856 0)
(-1.69423 0.938051 -7.38175e-21)
(-1.93915 0.926453 4.33502e-22)
(-2.18314 0.982297 1.49582e-20)
(-2.41818 1.07092 -1.57715e-20)
(-2.63002 1.14414 0)
(-2.81135 1.15253 0)
(-2.95195 1.13003 -8.78063e-21)
(-3.06961 1.06621 0)
(-3.16418 0.9988 -7.71863e-21)
(-3.2472 0.941509 7.87306e-21)
(-3.30582 0.864198 8.052e-21)
(-3.34611 0.769577 0)
(-3.3726 0.66982 -8.44413e-21)
(-3.40035 0.566194 -8.60847e-21)
(-3.42862 0.468579 1.88658e-20)
(-3.47619 0.392693 -8.83923e-21)
(-3.54163 0.351047 -8.89808e-21)
(-3.62925 0.331356 0)
(-3.70955 0.314457 0)
(-3.7836 0.300522 8.94613e-21)
(-3.85162 0.283248 0)
(-3.93703 0.263657 0)
(-4.03212 0.238994 -1.78081e-20)
(-4.1771 0.276103 -1.78113e-20)
(-4.37731 0.370709 0)
(-4.5745 0.440473 0)
(-4.73677 0.463569 0)
(-4.88961 0.473966 0)
(-5.02887 0.474438 -1.90977e-20)
(-5.14677 0.467129 2.11099e-20)
(-5.24283 0.459614 1.99298e-20)
(-5.32538 0.464333 4.21875e-20)
(-5.40077 0.480269 0)
(-5.46676 0.493256 1.50706e-21)
(-5.52319 0.479751 0)
(-5.56233 0.429651 -2.10923e-20)
(-5.58329 0.357517 1.35747e-21)
(-5.58969 0.288637 -2.13828e-20)
(-5.58539 0.257605 2.15611e-20)
(-5.58318 0.261295 1.24619e-21)
(-5.57826 0.278612 0)
(-5.58641 0.321205 2.30354e-20)
(-5.62347 0.379276 2.17813e-20)
(-5.69826 0.440033 4.41904e-20)
(-5.80321 0.496594 0)
(-5.93921 0.533586 -2.18238e-20)
(-6.09586 0.556707 0)
(-6.28398 0.592464 4.09521e-20)
(-6.48457 0.643163 -1.95616e-20)
(-6.67678 0.687759 1.92082e-20)
(-6.81105 0.681777 -1.89466e-20)
(-6.83007 0.569116 -4.00908e-20)
(-6.78746 0.400176 1.85493e-20)
(-6.73623 0.226924 -1.83667e-20)
(-6.66305 0.0561549 0)