# vtk DataFile Version 2.0
sampleSurface
ASCII
DATASET POLYDATA
POINTS 502 float
-0.0206 0 -0.0005 -0.0190172 0 -0.0005 -0.0190172 0 0.0005 -0.0206 0
0.0005 -0.0174976 0 -0.0005 -0.0174976 0 0.0005 -0.0160387 0 -0.0005
-0.0160387 0 0.0005 -0.0146381 0 -0.0005 -0.0146381 0 0.0005 -0.0132934
0 -0.0005 -0.0132934 0 0.0005 -0.0120025 0 -0.0005 -0.0120025 0
0.0005 -0.0107632 0 -0.0005 -0.0107632 0 0.0005 -0.00957337 0 -0.0005
-0.00957337 0 0.0005 -0.00843108 0 -0.0005 -0.00843108 0 0.0005 -0.00733443
0 -0.0005 -0.00733443 0 0.0005 -0.0062816 0 -0.0005 -0.0062816 0
0.0005 -0.00527083 0 -0.0005 -0.00527083 0 0.0005 -0.00430044 0 -0.0005
-0.00430044 0 0.0005 -0.00336883 0 -0.0005 -0.00336883 0 0.0005 -0.00247443
0 -0.0005 -0.00247443 0 0.0005 -0.00161577 0 -0.0005 -0.00161577 0
0.0005 -0.000791418 0 -0.0005 -0.000791418 0 0.0005 0 0 -0.0005
0 0 0.0005 0 -0.0254 -0.0005 0 -0.0254 0.0005 0
-0.0242711 0.0005 0 -0.0242711 -0.0005 0 -0.0231422 0.0005 0 -0.0231422
-0.0005 0 -0.0220133 0.0005 0 -0.0220133 -0.0005 0 -0.0208844 0.0005
0 -0.0208844 -0.0005 0 -0.0197556 0.0005 0 -0.0197556 -0.0005 0
-0.0186267 0.0005 0 -0.0186267 -0.0005 0 -0.0174978 0.0005 0 -0.0174978
-0.0005 0 -0.0163689 0.0005 0 -0.0163689 -0.0005 0 -0.01524 0.0005
0 -0.01524 -0.0005 0 -0.0141111 0.0005 0 -0.0141111 -0.0005 0
-0.0129822 0.0005 0 -0.0129822 -0.0005 0 -0.0118533 0.0005 0 -0.0118533
-0.0005 0 -0.0107244 0.0005 0 -0.0107244 -0.0005 0 -0.00959556 0.0005
0 -0.00959556 -0.0005 0 -0.00846667 0.0005 0 -0.00846667 -0.0005 0
-0.00726604 0.0005 0 -0.00726604 -0.0005 0 -0.00618989 0.0005 0 -0.00618989
-0.0005 0 -0.00522531 0.0005 0 -0.00522531 -0.0005 0 -0.00436073 0.0005
0 -0.00436073 -0.0005 0 -0.00358579 0.0005 0 -0.00358579 -0.0005 0
-0.00289118 0.0005 0 -0.00289118 -0.0005 0 -0.0022686 0.0005 0 -0.0022686
-0.0005 0 -0.00171055 0.0005 0 -0.00171055 -0.0005 0 -0.00121037 0.0005
0 -0.00121037 -0.0005 0 -0.000762037 0.0005 0 -0.000762037 -0.0005 0
-0.000360188 0.0005 0 -0.000360188 -0.0005 0.000528387 -0.0254 -0.0005 0.000528387 -0.0254
0.0005 0.00106088 -0.0254 -0.0005 0.00106088 -0.0254 0.0005 0.00159752 -0.0254 -0.0005
0.00159752 -0.0254 0.0005 0.00213833 -0.0254 -0.0005 0.00213833 -0.0254 0.0005 0.00268334
-0.0254 -0.0005 0.00268334 -0.0254 0.0005 0.00323259 -0.0254 -0.0005 0.00323259 -0.0254
0.0005 0.00378611 -0.0254 -0.0005 0.00378611 -0.0254 0.0005 0.00434393 -0.0254 -0.0005
0.00434393 -0.0254 0.0005 0.00490609 -0.0254 -0.0005 0.00490609 -0.0254 0.0005 0.00547262
-0.0254 -0.0005 0.00547262 -0.0254 0.0005 0.00604356 -0.0254 -0.0005 0.00604356 -0.0254
0.0005 0.00661893 -0.0254 -0.0005 0.00661893 -0.0254 0.0005 0.00719878 -0.0254 -0.0005
0.00719878 -0.0254 0.0005 0.00778313 -0.0254 -0.0005 0.00778313 -0.0254 0.0005 0.00837203
-0.0254 -0.0005 0.00837203 -0.0254 0.0005 0.00896551 -0.0254 -0.0005 0.00896551 -0.0254
0.0005 0.0095636 -0.0254 -0.0005 0.0095636 -0.0254 0.0005 0.0101663 -0.0254 -0.0005
0.0101663 -0.0254 0.0005 0.0107738 -0.0254 -0.0005 0.0107738 -0.0254 0.0005 0.0113859
-0.0254 -0.0005 0.0113859 -0.0254 0.0005 0.0120028 -0.0254 -0.0005 0.0120028 -0.0254
0.0005 0.0126245 -0.0254 -0.0005 0.0126245 -0.0254 0.0005 0.0132511 -0.0254 -0.0005
0.0132511 -0.0254 0.0005 0.0138825 -0.0254 -0.0005 0.0138825 -0.0254 0.0005 0.0145188
-0.0254 -0.0005 0.0145188 -0.0254 0.0005 0.0151601 -0.0254 -0.0005 0.0151601 -0.0254
0.0005 0.0158063 -0.0254 -0.0005 0.0158063 -0.0254 0.0005 0.0164576 -0.0254 -0.0005
0.0164576 -0.0254 0.0005 0.0171139 -0.0254 -0.0005 0.0171139 -0.0254 0.0005 0.0177754
-0.0254 -0.0005 0.0177754 -0.0254 0.0005 0.018442 -0.0254 -0.0005 0.018442 -0.0254
0.0005 0.0191137 -0.0254 -0.0005 0.0191137 -0.0254 0.0005 0.0197907 -0.0254 -0.0005
0.0197907 -0.0254 0.0005 0.020473 -0.0254 -0.0005 0.020473 -0.0254 0.0005 0.0211606
-0.0254 -0.0005 0.0211606 -0.0254 0.0005 0.0218535 -0.0254 -0.0005 0.0218535 -0.0254
0.0005 0.0225517 -0.0254 -0.0005 0.0225517 -0.0254 0.0005 0.0232555 -0.0254 -0.0005
0.0232555 -0.0254 0.0005 0.0239647 -0.0254 -0.0005 0.0239647 -0.0254 0.0005 0.0246794
-0.0254 -0.0005 0.0246794 -0.0254 0.0005 0.0253996 -0.0254 -0.0005 0.0253996 -0.0254
0.0005 0.0261255 -0.0254 -0.0005 0.0261255 -0.0254 0.0005 0.026857 -0.0254 -0.0005
0.026857 -0.0254 0.0005 0.0275942 -0.0254 -0.0005 0.0275942 -0.0254 0.0005 0.0283371
-0.0254 -0.0005 0.0283371 -0.0254 0.0005 0.0290858 -0.0254 -0.0005 0.0290858 -0.0254
0.0005 0.0298403 -0.0254 -0.0005 0.0298403 -0.0254 0.0005 0.0306007 -0.0254 -0.0005
0.0306007 -0.0254 0.0005 0.031367 -0.0254 -0.0005 0.031367 -0.0254 0.0005 0.0321393
-0.0254 -0.0005 0.0321393 -0.0254 0.0005 0.0329175 -0.0254 -0.0005 0.0329175 -0.0254
0.0005 0.0337019 -0.0254 -0.0005 0.0337019 -0.0254 0.0005 0.0344923 -0.0254 -0.0005
0.0344923 -0.0254 0.0005 0.0352888 -0.0254 -0.0005 0.0352888 -0.0254 0.0005 0.0360916
-0.0254 -0.0005 0.0360916 -0.0254 0.0005 0.0369006 -0.0254 -0.0005 0.0369006 -0.0254
0.0005 0.0377158 -0.0254 -0.0005 0.0377158 -0.0254 0.0005 0.0385375 -0.0254 -0.0005
0.0385375 -0.0254 0.0005 0.0393655 -0.0254 -0.0005 0.0393655 -0.0254 0.0005 0.0401999
-0.0254 -0.0005 0.0401999 -0.0254 0.0005 0.0410408 -0.0254 -0.0005 0.0410408 -0.0254
0.0005 0.0418883 -0.0254 -0.0005 0.0418883 -0.0254 0.0005 0.0427424 -0.0254 -0.0005
0.0427424 -0.0254 0.0005 0.0436031 -0.0254 -0.0005 0.0436031 -0.0254 0.0005 0.0444704
-0.0254 -0.0005 0.0444704 -0.0254 0.0005 0.0453446 -0.0254 -0.0005 0.0453446 -0.0254
0.0005 0.0462255 -0.0254 -0.0005 0.0462255 -0.0254 0.0005 0.0471133 -0.0254 -0.0005
0.0471133 -0.0254 0.0005 0.048008 -0.0254 -0.0005 0.048008 -0.0254 0.0005 0.0489096
-0.0254 -0.0005 0.0489096 -0.0254 0.0005 0.0498183 -0.0254 -0.0005 0.0498183 -0.0254
0.0005 0.050734 -0.0254 -0.0005 0.050734 -0.0254 0.0005 0.0516568 -0.0254 -0.0005
0.0516568 -0.0254 0.0005 0.0525868 -0.0254 -0.0005 0.0525868 -0.0254 0.0005 0.053524
-0.0254 -0.0005 0.053524 -0.0254 0.0005 0.0544686 -0.0254 -0.0005 0.0544686 -0.0254
0.0005 0.0554204 -0.0254 -0.0005 0.0554204 -0.0254 0.0005 0.0563797 -0.0254 -0.0005
0.0563797 -0.0254 0.0005 0.0573464 -0.0254 -0.0005 0.0573464 -0.0254 0.0005 0.0583206
-0.0254 -0.0005 0.0583206 -0.0254 0.0005 0.0593025 -0.0254 -0.0005 0.0593025 -0.0254
0.0005 0.0602919 -0.0254 -0.0005 0.0602919 -0.0254 0.0005 0.0612891 -0.0254 -0.0005
0.0612891 -0.0254 0.0005 0.0622939 -0.0254 -0.0005 0.0622939 -0.0254 0.0005 0.0633067
-0.0254 -0.0005 0.0633067 -0.0254 0.0005 0.0643272 -0.0254 -0.0005 0.0643272 -0.0254
0.0005 0.0653557 -0.0254 -0.0005 0.0653557 -0.0254 0.0005 0.0663923 -0.0254 -0.0005
0.0663923 -0.0254 0.0005 0.0674368 -0.0254 -0.0005 0.0674368 -0.0254 0.0005 0.0684895
-0.0254 -0.0005 0.0684895 -0.0254 0.0005 0.0695504 -0.0254 -0.0005 0.0695504 -0.0254
0.0005 0.0706195 -0.0254 -0.0005 0.0706195 -0.0254 0.0005 0.0716969 -0.0254 -0.0005
0.0716969 -0.0254 0.0005 0.0727828 -0.0254 -0.0005 0.0727828 -0.0254 0.0005 0.073877
-0.0254 -0.0005 0.073877 -0.0254 0.0005 0.0749798 -0.0254 -0.0005 0.0749798 -0.0254
0.0005 0.0760911 -0.0254 -0.0005 0.0760911 -0.0254 0.0005 0.0772111 -0.0254 -0.0005
0.0772111 -0.0254 0.0005 0.0783398 -0.0254 -0.0005 0.0783398 -0.0254 0.0005 0.0794772
-0.0254 -0.0005 0.0794772 -0.0254 0.0005 0.0806235 -0.0254 -0.0005 0.0806235 -0.0254
0.0005 0.0817787 -0.0254 -0.0005 0.0817787 -0.0254 0.0005 0.0829429 -0.0254 -0.0005
0.0829429 -0.0254 0.0005 0.0841162 -0.0254 -0.0005 0.0841162 -0.0254 0.0005 0.0852985
-0.0254 -0.0005 0.0852985 -0.0254 0.0005 0.0864901 -0.0254 -0.0005 0.0864901 -0.0254
0.0005 0.0876909 -0.0254 -0.0005 0.0876909 -0.0254 0.0005 0.0889011 -0.0254 -0.0005
0.0889011 -0.0254 0.0005 0.0901207 -0.0254 -0.0005 0.0901207 -0.0254 0.0005 0.0913497
-0.0254 -0.0005 0.0913497 -0.0254 0.0005 0.0925883 -0.0254 -0.0005 0.0925883 -0.0254
0.0005 0.0938366 -0.0254 -0.0005 0.0938366 -0.0254 0.0005 0.0950945 -0.0254 -0.0005
0.0950945 -0.0254 0.0005 0.0963622 -0.0254 -0.0005 0.0963622 -0.0254 0.0005 0.0976398
-0.0254 -0.0005 0.0976398 -0.0254 0.0005 0.0989273 -0.0254 -0.0005 0.0989273 -0.0254
0.0005 0.100225 -0.0254 -0.0005 0.100225 -0.0254 0.0005 0.101532 -0.0254 -0.0005
0.101532 -0.0254 0.0005 0.10285 -0.0254 -0.0005 0.10285 -0.0254 0.0005 0.104178
-0.0254 -0.0005 0.104178 -0.0254 0.0005 0.105517 -0.0254 -0.0005 0.105517 -0.0254
0.0005 0.106865 -0.0254 -0.0005 0.106865 -0.0254 0.0005 0.108225 -0.0254 -0.0005
0.108225 -0.0254 0.0005 0.109594 -0.0254 -0.0005 0.109594 -0.0254 0.0005 0.110975
-0.0254 -0.0005 0.110975 -0.0254 0.0005 0.112366 -0.0254 -0.0005 0.112366 -0.0254
0.0005 0.113768 -0.0254 -0.0005 0.113768 -0.0254 0.0005 0.115181 -0.0254 -0.0005
0.115181 -0.0254 0.0005 0.116605 -0.0254 -0.0005 0.116605 -0.0254 0.0005 0.11804
-0.0254 -0.0005 0.11804 -0.0254 0.0005 0.119486 -0.0254 -0.0005 0.119486 -0.0254
0.0005 0.120943 -0.0254 -0.0005 0.120943 -0.0254 0.0005 0.122412 -0.0254 -0.0005
0.122412 -0.0254 0.0005 0.123892 -0.0254 -0.0005 0.123892 -0.0254 0.0005 0.125384
-0.0254 -0.0005 0.125384 -0.0254 0.0005 0.126887 -0.0254 -0.0005 0.126887 -0.0254
0.0005 0.128402 -0.0254 -0.0005 0.128402 -0.0254 0.0005 0.129928 -0.0254 -0.0005
0.129928 -0.0254 0.0005 0.131467 -0.0254 -0.0005 0.131467 -0.0254 0.0005 0.133017
-0.0254 -0.0005 0.133017 -0.0254 0.0005 0.13458 -0.0254 -0.0005 0.13458 -0.0254
0.0005 0.136155 -0.0254 -0.0005 0.136155 -0.0254 0.0005 0.137742 -0.0254 -0.0005
0.137742 -0.0254 0.0005 0.139341 -0.0254 -0.0005 0.139341 -0.0254 0.0005 0.140953
-0.0254 -0.0005 0.140953 -0.0254 0.0005 0.142577 -0.0254 -0.0005 0.142577 -0.0254
0.0005 0.144214 -0.0254 -0.0005 0.144214 -0.0254 0.0005 0.145863 -0.0254 -0.0005
0.145863 -0.0254 0.0005 0.147526 -0.0254 -0.0005 0.147526 -0.0254 0.0005 0.149201
-0.0254 -0.0005 0.149201 -0.0254 0.0005 0.15089 -0.0254 -0.0005 0.15089 -0.0254
0.0005 0.152591 -0.0254 -0.0005 0.152591 -0.0254 0.0005 0.154306 -0.0254 -0.0005
0.154306 -0.0254 0.0005 0.156034 -0.0254 -0.0005 0.156034 -0.0254 0.0005 0.157775
-0.0254 -0.0005 0.157775 -0.0254 0.0005 0.159531 -0.0254 -0.0005 0.159531 -0.0254
0.0005 0.161299 -0.0254 -0.0005 0.161299 -0.0254 0.0005 0.163082 -0.0254 -0.0005
0.163082 -0.0254 0.0005 0.164878 -0.0254 -0.0005 0.164878 -0.0254 0.0005 0.166688
-0.0254 -0.0005 0.166688 -0.0254 0.0005 0.168513 -0.0254 -0.0005 0.168513 -0.0254
0.0005 0.170351 -0.0254 -0.0005 0.170351 -0.0254 0.0005 0.172204 -0.0254 -0.0005
0.172204 -0.0254 0.0005 0.174071 -0.0254 -0.0005 0.174071 -0.0254 0.0005 0.175953
-0.0254 -0.0005 0.175953 -0.0254 0.0005 0.177849 -0.0254 -0.0005 0.177849 -0.0254
0.0005 0.17976 -0.0254 -0.0005 0.17976 -0.0254 0.0005 0.181686 -0.0254 -0.0005
0.181686 -0.0254 0.0005 0.183627 -0.0254 -0.0005 0.183627 -0.0254 0.0005 0.185583
-0.0254 -0.0005 0.185583 -0.0254 0.0005 0.187555 -0.0254 -0.0005 0.187555 -0.0254
0.0005 0.189541 -0.0254 -0.0005 0.189541 -0.0254 0.0005 0.191543 -0.0254 -0.0005
0.191543 -0.0254 0.0005 0.193561 -0.0254 -0.0005 0.193561 -0.0254 0.0005 0.195594
-0.0254 -0.0005 0.195594 -0.0254 0.0005 0.197643 -0.0254 -0.0005 0.197643 -0.0254
0.0005 0.199708 -0.0254 -0.0005 0.199708 -0.0254 0.0005 0.201789 -0.0254 -0.0005
0.201789 -0.0254 0.0005 0.203886 -0.0254 -0.0005 0.203886 -0.0254 0.0005 0.206
-0.0254 -0.0005 0.206 -0.0254 0.0005 0.208047 -0.0251856 -0.0005 0.208047 -0.0251856
0.0005 0.210173 -0.0249628 -0.0005 0.210173 -0.0249628 0.0005 0.212382 -0.0247314 -0.0005
0.212382 -0.0247314 0.0005 0.214677 -0.024491 -0.0005 0.214677 -0.024491 0.0005 0.217061
-0.0242412 -0.0005 0.217061 -0.0242412 0.0005 0.219538 -0.0239817 -0.0005 0.219538 -0.0239817
0.0005 0.222112 -0.0237121 -0.0005 0.222112 -0.0237121 0.0005 0.224785 -0.023432 -0.0005
0.224785 -0.023432 0.0005 0.227563 -0.023141 -0.0005 0.227563 -0.023141 0.0005 0.230449
-0.0228387 -0.0005 0.230449 -0.0228387 0.0005 0.233447 -0.0225246 -0.0005 0.233447 -0.0225246
0.0005 0.236562 -0.0221983 -0.0005 0.236562 -0.0221983 0.0005 0.239797 -0.0218593 -0.0005
0.239797 -0.0218593 0.0005 0.243159 -0.0215071 -0.0005 0.243159 -0.0215071 0.0005 0.246652
-0.0211412 -0.0005 0.246652 -0.0211412 0.0005 0.250281 -0.0207611 -0.0005 0.250281 -0.0207611
0.0005 0.254051 -0.0203661 -0.0005 0.254051 -0.0203661 0.0005 0.257967 -0.0199558 -0.0005
0.257967 -0.0199558 0.0005 0.262036 -0.0195295 -0.0005 0.262036 -0.0195295 0.0005 0.266264
-0.0190867 -0.0005 0.266264 -0.0190867 0.0005 0.270655 -0.0186266 -0.0005 0.270655 -0.0186266
0.0005 0.275218 -0.0181486 -0.0005 0.275218 -0.0181486 0.0005 0.279959 -0.017652 -0.0005
0.279959 -0.017652 0.0005 0.284883 -0.017136 -0.0005 0.284883 -0.017136 0.0005 0.29
-0.0166 -0.0005 0.29 -0.0166 0.0005 
POLYGONS 250 1250
4 0 1 2 3 4 1 4 5 2 4
4 6 7 5 4 6 8 9 7 4
8 10 11 9 4 10 12 13 11 4
12 14 15 13 4 14 16 17 15 4
16 18 19 17 4 18 20 21 19 4
20 22 23 21 4 22 24 25 23 4
24 26 27 25 4 26 28 29 27 4
28 30 31 29 4 30 32 33 31 4
32 34 35 33 4 34 36 37 35 4
38 39 40 41 4 41 40 42 43 4
43 42 44 45 4 45 44 46 47 4
47 46 48 49 4 49 48 50 51 4
51 50 52 53 4 53 52 54 55 4
55 54 56 57 4 57 56 58 59 4
59 58 60 61 4 61 60 62 63 4
63 62 64 65 4 65 64 66 67 4
67 66 68 69 4 69 68 70 71 4
71 70 72 73 4 73 72 74 75 4
75 74 76 77 4 77 76 78 79 4
79 78 80 81 4 81 80 82 83 4
83 82 84 85 4 85 84 86 87 4
87 86 88 89 4 89 88 90 91 4
91 90 37 36 4 38 92 93 39 4
92 94 95 93 4 94 96 97 95 4
96 98 99 97 4 98 100 101 99 4
100 102 103 101 4 102 104 105 103 4
104 106 107 105 4 106 108 109 107 4
108 110 111 109 4 110 112 113 111 4
112 114 115 113 4 114 116 117 115 4
116 118 119 117 4 118 120 121 119 4
120 122 123 121 4 122 124 125 123 4
124 126 127 125 4 126 128 129 127 4
128 130 131 129 4 130 132 133 131 4
132 134 135 133 4 134 136 137 135 4
136 138 139 137 4 138 140 141 139 4
140 142 143 141 4 142 144 145 143 4
144 146 147 145 4 146 148 149 147 4
148 150 151 149 4 150 152 153 151 4
152 154 155 153 4 154 156 157 155 4
156 158 159 157 4 158 160 161 159 4
160 162 163 161 4 162 164 165 163 4
164 166 167 165 4 166 168 169 167 4
168 170 171 169 4 170 172 173 171 4
172 174 175 173 4 174 176 177 175 4
176 178 179 177 4 178 180 181 179 4
180 182 183 181 4 182 184 185 183 4
184 186 187 185 4 186 188 189 187 4
188 190 191 189 4 190 192 193 191 4
192 194 195 193 4 194 196 197 195 4
196 198 199 197 4 198 200 201 199 4
200 202 203 201 4 202 204 205 203 4
204 206 207 205 4 206 208 209 207 4
208 210 211 209 4 210 212 213 211 4
212 214 215 213 4 214 216 217 215 4
216 218 219 217 4 218 220 221 219 4
220 222 223 221 4 222 224 225 223 4
224 226 227 225 4 226 228 229 227 4
228 230 231 229 4 230 232 233 231 4
232 234 235 233 4 234 236 237 235 4
236 238 239 237 4 238 240 241 239 4
240 242 243 241 4 242 244 245 243 4
244 246 247 245 4 246 248 249 247 4
248 250 251 249 4 250 252 253 251 4
252 254 255 253 4 254 256 257 255 4
256 258 259 257 4 258 260 261 259 4
260 262 263 261 4 262 264 265 263 4
264 266 267 265 4 266 268 269 267 4
268 270 271 269 4 270 272 273 271 4
272 274 275 273 4 274 276 277 275 4
276 278 279 277 4 278 280 281 279 4
280 282 283 281 4 282 284 285 283 4
284 286 287 285 4 286 288 289 287 4
288 290 291 289 4 290 292 293 291 4
292 294 295 293 4 294 296 297 295 4
296 298 299 297 4 298 300 301 299 4
300 302 303 301 4 302 304 305 303 4
304 306 307 305 4 306 308 309 307 4
308 310 311 309 4 310 312 313 311 4
312 314 315 313 4 314 316 317 315 4
316 318 319 317 4 318 320 321 319 4
320 322 323 321 4 322 324 325 323 4
324 326 327 325 4 326 328 329 327 4
328 330 331 329 4 330 332 333 331 4
332 334 335 333 4 334 336 337 335 4
336 338 339 337 4 338 340 341 339 4
340 342 343 341 4 342 344 345 343 4
344 346 347 345 4 346 348 349 347 4
348 350 351 349 4 350 352 353 351 4
352 354 355 353 4 354 356 357 355 4
356 358 359 357 4 358 360 361 359 4
360 362 363 361 4 362 364 365 363 4
364 366 367 365 4 366 368 369 367 4
368 370 371 369 4 370 372 373 371 4
372 374 375 373 4 374 376 377 375 4
376 378 379 377 4 378 380 381 379 4
380 382 383 381 4 382 384 385 383 4
384 386 387 385 4 386 388 389 387 4
388 390 391 389 4 390 392 393 391 4
392 394 395 393 4 394 396 397 395 4
396 398 399 397 4 398 400 401 399 4
400 402 403 401 4 402 404 405 403 4
404 406 407 405 4 406 408 409 407 4
408 410 411 409 4 410 412 413 411 4
412 414 415 413 4 414 416 417 415 4
416 418 419 417 4 418 420 421 419 4
420 422 423 421 4 422 424 425 423 4
424 426 427 425 4 426 428 429 427 4
428 430 431 429 4 430 432 433 431 4
432 434 435 433 4 434 436 437 435 4
436 438 439 437 4 438 440 441 439 4
440 442 443 441 4 442 444 445 443 4
444 446 447 445 4 446 448 449 447 4
448 450 451 449 4 450 452 453 451 4
452 454 455 453 4 454 456 457 455 4
456 458 459 457 4 458 460 461 459 4
460 462 463 461 4 462 464 465 463 4
464 466 467 465 4 466 468 469 467 4
468 470 471 469 4 470 472 473 471 4
472 474 475 473 4 474 476 477 475 4
476 478 479 477 4 478 480 481 479 4
480 482 483 481 4 482 484 485 483 4
484 486 487 485 4 486 488 489 487 4
488 490 491 489 4 490 492 493 491 4
492 494 495 493 4 494 496 497 495 4
496 498 499 497 4 498 500 501 499 
POINT_DATA 502
FIELD attributes 1
U 3 502 float
3.3082 -0.0109217 -0.0222918 1.66119 -0.00515835 -0.0109854 1.66119 -0.00515835 -0.0109854 3.3082 -0.0109217
-0.0222918 0.0596184 0.000414606 0 0.0596184 0.000414606 0 0.0573553 0.000327345 0
0.0573553 0.000327345 0 0.0557112 0.000249487 0 0.0557112 0.000249487 0 0.0542972
0.000288872 0 0.0542972 0.000288872 0 0.0526036 0.000435074 0 0.0526036 0.000435074
0 0.050531 0.000573278 0 0.050531 0.000573278 0 0.0483177 0.00060345 0
0.0483177 0.00060345 0 0.046303 0.000527244 0 0.046303 0.000527244 0 0.0446428
0.000416627 0 0.0446428 0.000416627 0 0.0433354 0.000338424 0 0.0433354 0.000338424
0 0.0421607 0.000319129 0 0.0421607 0.000319129 0 0.0410389 0.000338414 0
0.0410389 0.000338414 0 0.0397551 0.00038618 0 0.0397551 0.00038618 0 0.0384345
0.000424495 0 0.0384345 0.000424495 0 0.0368643 0.000477209 0 0.0368643 0.000477209
0 0.0352567 0.000513454 0 0.0352567 0.000513454 0 0.0153064 0.00078261 0
0.0153064 0.00078261 0 8.25504e-05 -0.000276095 5.62192e-23 8.25504e-05 -0.000276095 5.62192e-23 4.03641e-05
-0.000580883 -1.52146e-22 4.03641e-05 -0.000580883 -1.52146e-22 -8.02587e-05 -0.00054929 -1.80414e-22 -8.02587e-05 -0.00054929
-1.80414e-22 -0.000183971 0.000310724 3.61131e-22 -0.000183971 0.000310724 3.61131e-22 -0.000206281 0.0013964 1.20435e-22
-0.000206281 0.0013964 1.20435e-22 -0.000184734 0.00247638 -2.40855e-22 -0.000184734 0.00247638 -2.40855e-22 -0.000141269
0.00342158 0 -0.000141269 0.00342158 0 -9.00605e-05 0.00416862 -4.82761e-22 -9.00605e-05 0.00416862
-4.82761e-22 -3.8157e-05 0.00469802 -5.75945e-26 -3.8157e-05 0.00469802 -5.75945e-26 1.30815e-05 0.00500837 4.82703e-22
1.30815e-05 0.00500837 4.82703e-22 6.61277e-05 0.00509839 -4.8502e-22 6.61277e-05 0.00509839 -4.8502e-22 0.000125413
0.00495731 2.75813e-26 0.000125413 0.00495731 2.75813e-26 0.000195801 0.00456484 4.85048e-22 0.000195801 0.00456484
4.85048e-22 0.000279162 0.00387215 4.89962e-22 0.000279162 0.00387215 4.89962e-22 0.000376214 0.00282692 -1.89171e-25
0.000376214 0.00282692 -1.89171e-25 0.000386259 0.00132455 -4.98839e-22 0.000386259 0.00132455 -4.98839e-22 6.99286e-05
-0.000349504 0 6.99286e-05 -0.000349504 0 -0.000222897 -0.00105426 0 -0.000222897 -0.00105426
0 7.90684e-05 -0.00118088 0 7.90684e-05 -0.00118088 0 0.000552096 -0.00240057 0
0.000552096 -0.00240057 0 0.000569917 -0.00437498 0 0.000569917 -0.00437498 0 0.000158272
-0.00527331 0 0.000158272 -0.00527331 0 -0.000401426 -0.00483885 0 -0.000401426 -0.00483885
0 -0.000908836 -0.00361028 0 -0.000908836 -0.00361028 0 -0.00136277 -0.00208025 0
-0.00136277 -0.00208025 0 -0.00113747 7.86928e-05 0 -0.00113747 7.86928e-05 0 -0.000763546
0.00124625 0 -0.000763546 0.00124625 0 0.000161206 -0.000296091 2.46284e-25 0.000161206 -0.000296091
2.46284e-25 0.000321837 -0.000312278 -2.7935e-23 0.000321837 -0.000312278 -2.7935e-23 0.000477552 -0.000302868 0
0.000477552 -0.000302868 0 0.000617455 -0.000290728 0 0.000617455 -0.000290728 0 0.000741286
-0.00027618 2.70438e-23 0.000741286 -0.00027618 2.70438e-23 0.000847566 -0.000258561 2.70924e-23 0.000847566 -0.000258561
2.70924e-23 0.000934125 -0.000237529 0 0.000934125 -0.000237529 0 0.000997898 -0.000213643 0
0.000997898 -0.000213643 0 0.00103655 -0.000188476 0 0.00103655 -0.000188476 0 0.00104763
-0.000162955 -2.59552e-23 0.00104763 -0.000162955 -2.59552e-23 0.00102755 -0.000135849 -2.60046e-23 0.00102755 -0.000135849
-2.60046e-23 0.000972795 -0.000104249 0 0.000972795 -0.000104249 0 0.000878955 -6.53686e-05 0
0.000878955 -6.53686e-05 0 0.000740347 -1.7478e-05 0 0.000740347 -1.7478e-05 0 0.00055064
3.97296e-05 -2.48912e-23 0.00055064 3.97296e-05 -2.48912e-23 0.00030362 0.00010587 -2.49415e-23 0.00030362 0.00010587
-2.49415e-23 -4.97358e-06 0.000180736 0 -4.97358e-06 0.000180736 0 -0.000379367 0.000263571 0
-0.000379367 0.000263571 0 -0.000823965 0.000352526 0 -0.000823965 0.000352526 0 -0.00133935
0.000443627 0 -0.00133935 0.000443627 0 -0.00192163 0.000530161 0 -0.00192163 0.000530161
0 -0.00256234 0.000604093 0 -0.00256234 0.000604093 0 -0.00325063 0.000660539 -2.29088e-23
-0.00325063 0.000660539 -2.29088e-23 -0.00397608 0.000700207 -3.50135e-25 -0.00397608 0.000700207 -3.50135e-25 -0.0047297
0.00072709 3.64495e-25 -0.0047297 0.00072709 3.64495e-25 -0.00550489 0.000745507 -4.43125e-23 -0.00550489 0.000745507
-4.43125e-23 -0.00629682 0.000758048 -2.20171e-23 -0.00629682 0.000758048 -2.20171e-23 -0.00710111 0.000765348 0
-0.00710111 0.000765348 0 -0.00791293 0.000766853 2.09029e-23 -0.00791293 0.000766853 2.09029e-23 -0.00872633
0.000761392 4.14788e-23 -0.00872633 0.000761392 4.14788e-23 -0.00953394 0.000747566 2.05756e-23 -0.00953394 0.000747566
2.05756e-23 -0.010327 0.000724233 0 -0.010327 0.000724233 0 -0.0110955 0.000690757 1.93707e-23
-0.0110955 0.000690757 1.93707e-23 -0.0118286 0.000646966 1.94184e-23 -0.0118286 0.000646966 1.94184e-23 -0.012515
0.000593132 0 -0.012515 0.000593132 0 -0.013143 0.000529973 -1.82698e-23 -0.013143 0.000529973
-1.82698e-23 -0.0137014 0.000458756 -1.83163e-23 -0.0137014 0.000458756 -1.83163e-23 -0.0141801 0.00038145 -1.76455e-23
-0.0141801 0.00038145 -1.76455e-23 -0.0145708 0.000300494 -5.24592e-23 -0.0145708 0.000300494 -5.24592e-23 -0.0148677
0.000218357 -3.4859e-23 -0.0148677 0.000218357 -3.4859e-23 -0.0150669 0.000137537 0 -0.0150669 0.000137537
0 -0.0151659 6.04151e-05 0 -0.0151659 6.04151e-05 0 -0.0151665 -1.13787e-05 0
-0.0151665 -1.13787e-05 0 -0.0150774 -7.71892e-05 0 -0.0150774 -7.71892e-05 0 -0.0149051
-0.000136994 -3.33942e-23 -0.0149051 -0.000136994 -3.33942e-23 -0.0146547 -0.000190693 -6.69337e-23 -0.0146547 -0.000190693
-6.69337e-23 -0.014334 -0.000238166 -6.71005e-23 -0.014334 -0.000238166 -6.71005e-23 -0.0139502 -0.000279581 -3.36553e-23
-0.0139502 -0.000279581 -3.36553e-23 -0.0135106 -0.000315233 3.39271e-23 -0.0135106 -0.000315233 3.39271e-23 -0.013022
-0.000345636 3.40254e-23 -0.013022 -0.000345636 3.40254e-23 -0.0124903 -0.000371516 -3.44132e-23 -0.0124903 -0.000371516
-3.44132e-23 -0.0119202 -0.0003936 -6.91933e-23 -0.0119202 -0.0003936 -6.91933e-23 -0.0113158 -0.000412505 -3.47818e-23
-0.0113158 -0.000412505 -3.47818e-23 -0.0106804 -0.000428705 0 -0.0106804 -0.000428705 0 -0.0100171
-0.000442404 0 -0.0100171 -0.000442404 0 -0.00932887 -0.000453586 -3.57209e-23 -0.00932887 -0.000453586
-3.57209e-23 -0.00861919 -0.000462074 -3.58316e-23 -0.00861919 -0.000462074 -3.58316e-23 -0.00789201 -0.000467583 0
-0.00789201 -0.000467583 0 -0.00715196 -0.00046978 0 -0.00715196 -0.00046978 0 -0.00640414
-0.000468403 0 -0.00640414 -0.000468403 0 -0.00565392 -0.000463383 0 -0.00565392 -0.000463383
0 -0.0049069 -0.000454824 0 -0.0049069 -0.000454824 0 -0.00416868 -0.00044296 0
-0.00416868 -0.00044296 0 -0.0034444 -0.0004281 0 -0.0034444 -0.0004281 0 -0.00273847
-0.000410622 3.65574e-23 -0.00273847 -0.000410622 3.65574e-23 -0.00205465 -0.000391482 3.66802e-23 -0.00205465 -0.000391482
3.66802e-23 -0.00139631 -0.000370855 0 -0.00139631 -0.000370855 0 -0.000765539 -0.000349208 -3.6171e-23
-0.000765539 -0.000349208 -3.6171e-23 -0.000166434 -0.000327759 -7.22424e-23 -0.000166434 -0.000327759 -7.22424e-23 0.000398553
-0.00030629 -3.60717e-23 0.000398553 -0.00030629 -3.60717e-23 0.000933698 -0.000284858 3.54295e-23 0.000933698 -0.000284858
3.54295e-23 0.00144044 -0.000263999 4.11066e-25 0.00144044 -0.000263999 4.11066e-25 0.00191736 -0.00024389 -3.52692e-23
0.00191736 -0.00024389 -3.52692e-23 0.00236515 -0.000224674 3.45382e-23 0.00236515 -0.000224674 3.45382e-23 0.00278478
-0.000206442 3.46635e-23 0.00278478 -0.000206442 3.46635e-23 0.0031774 -0.00018924 0 0.0031774 -0.00018924
0 0.0035443 -0.000173081 -3.35767e-23 0.0035443 -0.000173081 -3.35767e-23 0.00388681 -0.000157957 -3.37015e-23
0.00388681 -0.000157957 -3.37015e-23 0.00420626 -0.000143839 3.29189e-23 0.00420626 -0.000143839 3.29189e-23 0.00450396
-0.000130686 3.30433e-23 0.00450396 -0.000130686 3.30433e-23 0.00478118 -0.000118451 -3.22579e-23 0.00478118 -0.000118451
-3.22579e-23 0.00503913 -0.000107079 -6.43097e-23 0.00503913 -0.000107079 -6.43097e-23 0.00527895 -9.65183e-05 -6.36507e-23
0.00527895 -9.65183e-05 -6.36507e-23 0.00550171 -8.6715e-05 -9.42664e-23 0.00550171 -8.6715e-05 -9.42664e-23 0.0057084
-7.76192e-05 -8.96487e-25 0.0057084 -7.76192e-05 -8.96487e-25 0.00589996 -6.91847e-05 6.21382e-23 0.00589996 -6.91847e-05
6.21382e-23 0.00607725 -6.13696e-05 0 0.00607725 -6.13696e-05 0 0.00624109 -5.41367e-05 0
0.00624109 -5.41367e-05 0 0.00639225 -4.74529e-05 5.93362e-23 0.00639225 -4.74529e-05 5.93362e-23 0.00653146
-4.12891e-05 1.18288e-22 0.00653146 -4.12891e-05 1.18288e-22 0.0066594 -3.56194e-05 8.62081e-25 0.0066594 -3.56194e-05
8.62081e-25 0.00677676 -3.04202e-05 -5.83295e-23 0.00677676 -3.04202e-05 -5.83295e-23 0.00688417 -2.56699e-05 5.68642e-23
0.00688417 -2.56699e-05 5.68642e-23 0.00698226 -2.13478e-05 1.13363e-22 0.00698226 -2.13478e-05 1.13363e-22 0.00707162
-1.74339e-05 1.1216e-22 0.00707162 -1.74339e-05 1.1216e-22 0.00715286 -1.39081e-05 5.58989e-23 0.00715286 -1.39081e-05
5.58989e-23 0.00722652 -1.07505e-05 0 0.00722652 -1.07505e-05 0 0.00729318 -7.94064e-06 0
0.00729318 -7.94064e-06 0 0.00735335 -5.45766e-06 5.33237e-23 0.00735335 -5.45766e-06 5.33237e-23 0.00740755
-3.28039e-06 5.35572e-23 0.00740755 -3.28039e-06 5.35572e-23 0.00745627 -1.38711e-06 0 0.00745627 -1.38711e-06
0 0.00749998 2.44738e-07 -5.16261e-23 0.00749998 2.44738e-07 -5.16261e-23 0.00753912 1.63807e-06 -5.18567e-23
0.00753912 1.63807e-06 -5.18567e-23 0.00757413 2.81619e-06 0 0.00757413 2.81619e-06 0 0.00760538
3.80176e-06 -4.99736e-23 0.00760538 3.80176e-06 -4.99736e-23 0.00763326 4.61501e-06 -5.02012e-23 0.00763326 4.61501e-06
-5.02012e-23 0.00765812 5.27657e-06 0 0.00765812 5.27657e-06 0 0.00768027 5.80525e-06 4.83633e-23
0.00768027 5.80525e-06 4.83633e-23 0.00770001 6.22383e-06 9.64232e-23 0.00770001 6.22383e-06 9.64232e-23 0.00771761
6.56071e-06 4.80589e-23 0.00771761 6.56071e-06 4.80589e-23 0.00773322 6.82906e-06 -4.67924e-23 0.00773322 6.82906e-06
-4.67924e-23 0.00774704 7.02852e-06 -4.70136e-23 0.00774704 7.02852e-06 -4.70136e-23 0.00775928 7.16163e-06 4.57656e-23
0.00775928 7.16163e-06 4.57656e-23 0.00777017 7.23702e-06 4.59846e-23 0.00777017 7.23702e-06 4.59846e-23 0.00777987
7.26068e-06 4.47546e-23 0.00777987 7.26068e-06 4.47546e-23 0.00778855 7.24078e-06 8.9226e-23 0.00778855 7.24078e-06
8.9226e-23 0.00779636 7.18233e-06 4.44703e-23 0.00779636 7.18233e-06 4.44703e-23 0.00780344 7.0859e-06 0
0.00780344 7.0859e-06 0 0.0078099 6.96138e-06 0 0.0078099 6.96138e-06 0 0.00781583
6.81869e-06 0 0.00781583 6.81869e-06 0 0.00782132 6.66566e-06 0 0.00782132 6.66566e-06
0 0.00782642 6.512e-06 0 0.00782642 6.512e-06 0 0.00783121 6.36737e-06 0
0.00783121 6.36737e-06 0 0.00783571 6.23325e-06 4.03814e-23 0.00783571 6.23325e-06 4.03814e-23 0.00783998
6.10274e-06 6.75203e-25 0.00783998 6.10274e-06 6.75203e-25 0.00784404 5.97453e-06 -4.01161e-23 0.00784404 5.97453e-06
-4.01161e-23 0.00784793 5.86186e-06 0 0.00784793 5.86186e-06 0 0.00785166 5.78434e-06 0
0.00785166 5.78434e-06 0 0.00785522 5.7506e-06 0 0.00785522 5.7506e-06 0 0.00785858
5.7466e-06 -7.52164e-23 0.00785858 5.7466e-06 -7.52164e-23 0.00786177 5.73951e-06 -7.56115e-23 0.00786177 5.73951e-06
-7.56115e-23 0.00786484 5.69408e-06 7.34127e-23 0.00786484 5.69408e-06 7.34127e-23 0.00786788 5.58954e-06 1.28329e-24
0.00786788 5.58954e-06 1.28329e-24 0.00787099 5.4265e-06 -7.29055e-23 0.00787099 5.4265e-06 -7.29055e-23 0.00787427
5.22217e-06 0 0.00787427 5.22217e-06 0 0.00787777 4.99958e-06 0 0.00787777 4.99958e-06
0 0.00788152 4.77808e-06 6.8995e-23 0.00788152 4.77808e-06 6.8995e-23 0.00788554 4.56892e-06 1.37496e-22
0.00788554 4.56892e-06 1.37496e-22 0.00788979 4.37589e-06 6.84983e-23 0.00788979 4.37589e-06 6.84983e-23 0.00789426
4.19832e-06 6.64034e-23 0.00789426 4.19832e-06 6.64034e-23 0.00789893 4.03414e-06 1.32318e-22 0.00789893 4.03414e-06
1.32318e-22 0.00790378 3.88159e-06 1.21277e-24 0.00790378 3.88159e-06 1.21277e-24 0.0079088 3.73982e-06 -6.50585e-23
0.0079088 3.73982e-06 -6.50585e-23 0.00791398 3.60863e-06 0 0.00791398 3.60863e-06 0 0.00791931
3.48812e-06 -6.21751e-23 0.00791931 3.48812e-06 -6.21751e-23 0.00792477 3.37833e-06 -6.25253e-23 0.00792477 3.37833e-06
-6.25253e-23 0.00793037 3.2792e-06 0 0.00793037 3.2792e-06 0 0.00793609 3.1905e-06 0
0.00793609 3.1905e-06 0 0.00794192 3.11191e-06 0 0.00794192 3.11191e-06 0 0.00794786
3.04307e-06 5.80519e-23 0.00794786 3.04307e-06 5.80519e-23 0.00795389 2.98372e-06 1.15625e-22 0.00795389 2.98372e-06
1.15625e-22 0.00796001 2.93361e-06 5.75694e-23 0.00796001 2.93361e-06 5.75694e-23 0.0079662 2.8928e-06 5.56244e-23
0.0079662 2.8928e-06 5.56244e-23 0.00797245 2.86129e-06 5.5948e-23 0.00797245 2.86129e-06 5.5948e-23 0.00797874
2.83963e-06 0 0.00797874 2.83963e-06 0 0.00798505 2.82821e-06 5.32294e-23 0.00798505 2.82821e-06
5.32294e-23 0.00799137 2.82828e-06 5.35427e-23 0.00799137 2.82828e-06 5.35427e-23 0.00799765 2.84089e-06 5.165e-23
0.00799765 2.84089e-06 5.165e-23 0.00800388 2.86825e-06 5.19563e-23 0.00800388 2.86825e-06 5.19563e-23 0.00800998
2.9126e-06 0 0.00800998 2.9126e-06 0 0.00801594 2.97742e-06 4.93059e-23 0.00801594 2.97742e-06
4.93059e-23 0.00802165 3.06775e-06 4.96014e-23 0.00802165 3.06775e-06 4.96014e-23 0.00802706 3.1878e-06 4.77593e-23
0.00802706 3.1878e-06 4.77593e-23 0.00803198 3.35e-06 4.80476e-23 0.00803198 3.35e-06 4.80476e-23 0.00803641