/*--------------------------------*- C++ -*----------------------------------*\
  =========                 |
  \\      /  F ield         | OpenFOAM: The Open Source CFD Toolbox
   \\    /   O peration     | Website:  https://openfoam.org
    \\  /    A nd           | Version:  9
     \\/     M anipulation  |
\*---------------------------------------------------------------------------*/
FoamFile
{
    format      ascii;
    class       volScalarField;
    location    "0.065";
    object      pPrime2Mean;
}
// * * * * * * * * * * * * * * * * * * * * * * * * * * * * * * * * * * * * * //

dimensions      [0 4 -4 0 0 0 0];

internalField   nonuniform List<scalar> 
12225
(
295964
293089
289806
286273
282594
278850
275094
271361
267670
264033
260449
256915
253417
249936
246438
242864
239097
234860
296002
293116
289828
286291
282608
278862
275105
271371
267680
264043
260461
256928
253434
249958
246469
242915
239200
235158
296083
293176
289876
286330
282641
278889
275129
271393
267702
264066
260486
256958
253471
250007
246538
243023
239400
235614
296184
293275
289957
286395
282694
278935
275169
271430
267739
264104
260528
257007
253531
250086
246649
243192
239687
236149
296352
293423
290076
286491
282773
279001
275228
271485
267792
264160
260589
257078
253619
250199
246805
243420
240044
236724
296615
293629
290240
286623
282882
279094
275309
271561
267866
264236
260673
257176
253737
250350
247007
243704
240455
237319
296977
293905
290458
286798
283026
279215
275417
271660
267964
264337
260783
257302
253889
250541
247255
244037
240909
237925
297437
294262
290740
287024
283210
279372
275554
271787
268088
264465
260922
257460
254077
250772
247548
244415
241397
238539
298037
294714
291094
287306
283441
279567
275726
271946
268242
264623
261093
257652
254302
251043
247882
244831
241912
239158
298747
295268
291529
287654
283725
279806
275936
272139
268429
264814
261298
257881
254565
251355
248256
245281
242449
239783
299600
295942
292060
288075
284067
280094
276188
272371
268654
265042
261539
258147
254868
251705
248666
245761
243005
240413
300484
296682
292640
288535
284439
280406
276461
272622
268895
265285
261795
258426
255179
252059
249071
246225
243529
240994
301628
297542
293303
289054
284860
280758
276769
272903
269165
265557
262079
258732
255517
252437
249496
246701
244058
241573
303181
298693
294177
289736
285408
281216
277169
273268
269514
265906
262440
259117
255936
252898
250007
247264
244673
242235
305276
300207
295313
290616
286114
281805
277682
273736
269960
266348
262895
259596
256450
253455
250612
247920
245378
242986
308000
302175
296756
291722
286996
282540
278323
274321
270518
266899
263455
260180
257068
254114
251316
248671
246175
243824
311399
304505
298451
293020
288038
283415
279091
275026
271189
267561
264125
260872
257790
254874
252117
249514
247057
244742
314938
306926
300217
294385
289148
284365
279941
275817
271951
268315
264888
261655
258602
255719
252998
250430
248007
245723
317384
308621
301518
295461
290090
285223
280752
276604
272732
269103
265694
262484
259460
256608
253918
251381
248987
246729
315768
308095
301462
295638
290398
285613
281198
277093
273257
269661
266281
263100
260103
257277
254612
252097
249723
247482
313899
306978
300876
295383
290351
285703
281378
277338
273550
269991
266641
263486
260512
257706
255057
252557
250197
247967
311838
305750
300158
294990
290170
285663
281435
277462
273724
270202
266882
263750
260795
258005
255370
252882
250531
248309
309980
304605
299457
294578
289951
285571
281432
277520
273826
270337
267041
263929
260989
258212
255588
253109
250765
248549
308529
303674
298874
294224
289750
285475
281406
277544
273885
270422
267147
264050
261122
258355
255739
253266
250927
248716
307516
302969
298421
293945
289587
285390
281375
277552
273920
270477
267216
264130
261212
258451
255841
253373
251038
248830
306661
302436
298090
293739
289465
285325
281349
277553
273940
270511
267261
264183
261271
258515
255909
253444
251112
248906
306038
302065
297860
293597
289381
285279
281330
277551
273952
270532
267289
264217
261308
258556
255953
253490
251160
248955
305564
301816
297714
293508
289328
285250
281317
277550
273958
270544
267306
264237
261331
258581
255979
253518
251188
248984
305305
301678
297633
293459
289299
285234
281309
277549
273962
270551
267314
264247
261343
258595
255994
253533
251204
249000
305171
301619
297599
293439
289286
285227
281306
277548
273963
270554
267318
264252
261348
258600
255999
253539
251210
249007
198849
198829
198793
198742
198678
198600
198509
198401
198273
198123
197949
197752
197534
197296
197039
196765
196473
196163
195834
195488
195125
194744
194347
193933
193503
193055
192590
192108
191607
191091
190557
190006
189438
188851
188249
187633
187006
186372
185727
185070
184402
183723
183030
182321
181591
180843
180075
179286
178482
177665
176831
175982
175125
174256
173377
172493
171614
170723
169809
168877
167940
167002
166066
165130
164191
163245
162287
161316
160328
159320
158289
157234
156154
155048
153916
152765
151606
150450
149304
148169
147044
145922
144801
143677
142554
141424
140300
139179
138054
136905
135737
134578
133442
132329
131232
130139
129042
127930
126796
125636
124445
123220
121961
120667
119341
117988
116613
115223
113825
112426
111032
109648
108276
106917
105571
104237
102914
101600
100293
98992.9
97697.5
96406
95117.4
93830.9
92546
91262.3
89979.7
88698.1
87417.7
86138.3
84860.2
83583.4
82307.7
81033
79759.3
78486.4
77214
75941.9
74670.2
73398.6
72127.2
70855.9
69584.9
68314.2
67043.8
65774.1
64505
63236.9
61969.8
60704
59439.6
58176.8
56915.7
55656.8
54401.1
53150.6
51907
50671.6
49444.8
48227.5
47017.5
45809.6
44603.3
43404.3
42209.1
41017
39830.7
38653.5
37487.1
36331.7
35187.5
34054.7
32933.8
31825.5
30730.2
29648.4
28581
27530
26499.2
25499.2
198903
198884
198849
198797
198732
198654
198561
198450
198318
198165
197989
197791
197574
197339
197084
196812
196521
196211
195883
195536
195171
194788
194388
193970
193536
193085
192617
192131
191628
191109
190574
190021
189452
188866
188266
187650
187021
186384
185736
185077
184406
183722
183027
182319
181592
180843
180070
179271
178458
177636
176799
175949
175092
174229
173358
172474
171583
170685
169771
168848
167919
166989
166060
165129
164193
163248
162291
161319
160331
159321
158290
157234
156153
155045
153911
152757
151596
150437
149288
148153
147029
145910
144794
143676
142556
141431
140297
139160
138020
136867
135708
134565
133442
132338
131246
130157
129060
127949
126816
125656
124465
123240
121980
120685
119358
118004
116628
115236
113837
112436
111041
109655
108281
106922
105576
104241
102918
101603
100297
98995.9
97700.3
96408.6
95119.8
93833.2
92548.2
91264.5
89981.8
88700.2
87419.7
86140.3
84862.2
83585.2
82309.5
81034.9
79761.1
78488.2
77215.8
75943.9
74672.1
73400.6
72129.2
70857.9
69586.9
68316.3
67046
65776.2
64507.3
63239.3
61972.4
60706.8
59442.7
58180.3
56919.8
55661.5
54406.7
53157
51914
50678.8
49451.5
48232.6
47020
45809.4
44603.4
43406.6
42211.8
41018.4
39831
38653.3
37486.8
36331.3
35187.1
34054.3
32933.5
31825.1
30729.7
29647.7
28579.9
27528.3
26495.7
25489.7
199053
199035
199000
198947
198877
198791
198688
198568
198427
198267
198088
197891
197676
197442
197191
196920
196630
196320
195990
195640
195271
194883
194478
194054
193614
193156
192682
192191
191683
191160
190620
190064
189493
188907
188307
187693
187066
186428
185780
185119
184446
183762
183067
182355
181624
180868
180090
179289
178468
177635
176791
175936
175078
174216
173343
172460
171566
170665
169756
168844
167928
167007
166083
165153
164214
163264
162302
161327
160336
159328
158298
157243
156160
155047
153907
152749
151582
150418
149266
148130
147010
145899
144790
143679
142559
141427
140281
139127
137972
136820
135677
134551
133442
132348
131262
130176
129083
127974
126843
125685
124496
123272
122012
120717
119389
118033
116654
115261
113858
112455
111057
109668
108293
106932
105585
104250
102926
101611
100303
99002.3
97706.2
96414.1
95125
93838.2
92552.9
91269
89986.2
88704.5
87423.9
86144.4
84866.2
83589.2
82313.4
81038.7
79765
78492
77219.7
75947.7
74676
73404.5
72133.1
70861.9
69591
68320.3
67050.1
65780.5
64511.6
63243.8
61977.1
60711.7
59447.9
58185.9
56925.8
55668.1
54414
53164.5
51921.1
50685
49456.3
48235.4
47021.4
45811.8
44607.1
43408.1
42212.3
41019
39831.2
38652.7
37485.7
36330.3
35186.4
34053.8
32933
31824.6
30729
29646.7
28578.2
27525.4
26490.1
25477.1
199273
199255
199219
199164
199090
198998
198888
198760
198614
198449
198268
198069
197853
197619
197366
197094
196801
196487
196152
195797
195422
195027
194614
194183
193735
193270
192789
192292
191780
191252
190710
190152
189580
188994
188394
187782
187158
186522
185873
185213
184542
183859
183166
182456
181722
180959
180168
179354
178522
177677
176823
175962
175098
174229
173352
172468
171577
170682
169784
168881
167974
167059
166135
165200
164254
163294
162321
161337
160339
159329
158301
157248
156163
155047
153903
152738
151565
150399
149248
148115
146998
145891
144784
143668
142543
141401
140246
139085
137930
136786
135656
134542
133444
132359
131280
130200
129111
128006
126878
125723
124536
123314
122056
120761
119432
118073
116692
115295
113889
112483
111081
109689
108311
106948
105599
104263
102938
101622
100314
99012.1
97715.4
96422.7
95133.1
93845.8
92560.2
91276
89993
88711.1
87430.4
86150.8
84872.5
83595.4
82319.5
81044.8
79771.1
78498.1
77225.8
75953.8
74682.1
73410.6
72139.2
70868.1
69597.2
68326.5
67056.3
65786.7
64518
63250.3
61983.8
60718.6
59455.1
58193.4
56933.6
55676.5
54422.7
53173.3
51929.4
50692.2
49461.9
48238.8
47022.7
45812.1
44606.2
43406.1
42210.6
41017.8
39830
38651.4
37484.5
36329.3
35185.6
34053.1
32932.4
31823.9
30728
29645.1
28575.8
27521.2
26482.7
25463.2
199562
199544
199506
199448
199371
199276
199162
199031
198881
198713
198528
198325
198103
197864
197605
197325
197024
196702
196359
195995
195611
195207
194786
194346
193890
193417
192928
192425
191908
191377
190834
190277
189708
189127
188533
187926
187306
186672
186024
185366
184700
184023
183332
182622
181884
181114
180312
179481
178630
177765
176893
176016
175139
174261
173380
172495
171609
170720
169827
168931
168028
167117
166195
165260
164310
163344
162364
161372
160369
159354
158321
157264
156175
155054
153906
152741
151568
150403
149251
148119
147002
145892
144778
143655
142520
141368
140208
139049
137900
136763
135641
134536
133447
132370
131298
130225
129141
128041
126917
125765
124582
123363
122107
120812
119482
118121
116737
115337
113928
112517
111112
109716
108334
106969
105618
104281
102955
101638
100329
99025.7
97728
96434.4
95144.1
93856.2
92570.1
91285.5
90002.2
88720.1
87439.2
86159.4
84881
83603.9
82328
81053.3
79779.6
78506.7
77234.5
75962.5
74690.8
73419.2
72147.9
70876.7
69605.9
68335.2
67065
65795.4
64526.6
63259
61992.6
60727.6
59464.3
58202.8
56943.4
55686.5
54432.8
53183.3
51939
50700.6
49468.7
48243.6
47025.3
45812.9
44605.2
43403.3
42206.7
41014.1
39827.1
38649.4
37483.1
36328.2
35184.7
34052.4
32931.6
31823
30726.7
29643.2
28572.7
27516.1
26474.2
25448.7
199930
199908
199866
199806
199726
199628
199512
199377
199224
199052
198861
198651
198422
198173
197904
197614
197301
196967
196612
196236
195839
195424
194991
194541
194074
193592
193096
192585
192062
191527
190982
190427
189861
189286
188699
188098
187481
186849
186204
185548
184884
184210
183520
182809
182068
181290
180474
179625
178752
177863
176966
176068
175174
174288
173406
172524
171642
170758
169871
168979
168082
167176
166261
165332
164387
163425
162447
161454
160447
159425
158383
157315
156218
155092
153941
152774
151603
150439
149290
148155
147032
145913
144788
143654
142507
141348
140185
139027
137880
136747
135630
134531
133448
132377
131312
130245
129168
128073
126954
125807
124628
123414
122161
120867
119537
118174
116786
115383
113971
112557
111148
109748
108363
106995
105642
104303
102976
101657
100347
99042.7
97743.8
96449.3
95158.1
93869.4
92582.6
91297.5
90013.8
88731.4
87450.2
86170.4
84891.9
83614.7
82338.9
81064.3
79790.8
78518.1
77245.8
75974
74702.4
73430.8
72159.4
70888.1
69617.2
68346.6
67076.4
65806.5
64537.6
63270
62003.6
60738.7
59475.5
58214.2
56954.9
55698
54444.4
53194.7
51949.7
50710.3
49476.9
48249.8
47029.4
45814.9
44605.5
43401.6
42203.6
41010.9
39824.7
38647.7
37481.7
36327.2
35183.8
34051.6
32930.8
31821.9
30725.1
29640.7
28568.9
27510.1
26464.9
25434.1
200367
200345
200301
200239
200159
200059
199940
199801
199642
199463
199265
199046
198806
198545
198262
197956
197628
197279
196909
196518
196107
195678
195231
194768
194290
193797
193291
192772
192242
191701
191151
190593
190028
189455
188871
188272
187657
187026
186382
185727
185064
184391
183701
182988
182242
181457
180630
179765
178873
177962
177041
176121
175211
174318
173436
172558
171683
170806
169926
169041
168150
167252
166346
165427
164492
163540
162571
161583
160576
159549
158497
157417
156310
155176
154022
152854
151683
150519
149367
148227
147096
145964
144826
143677
142516
141347
140178
139017
137869
136737
135622
134526
133447
132380
131320
130258
129186
128097
126984
125843
124670
123461
122212
120922
119591
118226
116836
115430
114015
112599
111187
109784
108396
107024
105669
104328
103000
101680
100368
99062.7
97762.7
96467
95174.8
93885.2
92597.8
91312.1
90027.9
88745.1
87463.7
86183.7
84905.2
83628.1
82352.4
81078
79804.7
78532.3
77260.4
75988.8
74717.2
73445.8
72174.3
70903
69632
68361.2
67090.8
65820.7
64551.5
63283.6
62017.1
60752.2
59488.9
58227.6
56968.3
55711.4
54457.6
53207.5
51961.8
50721.2
49486.3
48257.4
47034.8
45818.2
44607
43401.4
42202
41008.9
39823.1
38646.5
37480.7
36326.2
35182.9
34050.7
32929.7
31820.5
30723.1
29637.8
28564.5
27503.6
26455.2
25420
200887
200864
200821
200758
200674
200569
200443
200296
200129
199940
199730
199499
199244
198967
198668
198345
198001
197635
197248
196841
196414
195970
195508
195031
194540
194036
193519
192991
192452
191903
191346
190782
190212
189635
189047
188445
187829
187198
186556
185904
185243
184571
183880
183165
182415
181623
180786
179907
178997
178065
177121
176181
175257
174359
173478
172606
171738
170870
169999
169123
168241
167353
166457
165550
164629
163689
162730
161748
160742
159710
158651
157564
156449
155310
154153
152985
151814
150648
149491
148344
147199
146052
144896
143728
142550
141366
140188
139020
137867
136731
135615
134519
133441
132375
131317
130258
129191
128106
126999
125865
124700
123497
122254
120968
119640
118275
116883
115474
114058
112640
111227
109822
108431
107056
105699
104357
103026
101705
100392
99085.4
97784.1
96487.3
95194.1
93903.6
92615.3
91329
90044.4
88761.3
87479.8
86199.7
84921.1
83644.1
82368.7
81094.6
79821.8
78549.8
77278.4
76007.2
74735.9
73464.6
72193.2
70921.8
69650.7
68379.7
67108.8
65838.3
64568.5
63300
62033.4
60768.3
59504.8
58243.4
56984
55726.7
54472.5
53221.9
51975.3
50733.5
49496.9
48266.1
47041.4
45822.6
44609.6
43402.4
42201.6
41008
39822.2
38645.9
37480.2
36325.5
35182
34049.6
32928.4
31818.7
30720.7
29634.3
28559.6
27496.5
26445.2
25406.1
201497
201473
201427
201359
201268
201155
201020
200862
200682
200480
200255
200008
199737
199442
199125
198785
198423
198040
197635
197211
196768
196308
195831
195340
194836
194320
193793
193254
192705
192146
191579
191005
190426
189839
189242
188634
188015
187385
186746
186100
185445
184777
184089
183372
182618
181819
180970
180075
179144
178189
177223
176264
175330
174426
173546
172679
171817
170957
170096
169232
168362
167485
166600
165703
164793
163864
162912
161936
160932
159899
158835
157742
156623
155482
154324
153156
151986
150818
149657
148499
147340
146174
144996
143804
142604
141405
140214
139035
137873
136731
135610
134511
133431
132364
131305
130246
129179
128098
126997
125870
124712
123518
122282
121001
119676
118312
116920
115512
114095
112678
111264
109858
108465
107090
105731
104387
103055
101733
100418
99110.4
97807.9
96510
95215.7
93924.3
92635.2
91348.3
90063.2
88779.9
87498.2
86218.2
84939.8
83663.2
82388.1
81114.6
79842.3
78571
77300.3
76029.7
74759.1
73488
72216.7
70945.6
69674.5
68403.1
67131.8
65860.5
64590
63320.8
62053.4
60787.8
59523.9
58262.1
57002.3
55744.5
54489.6
53238.2
51990.6
50747.2
49508.8
48276
47048.9
45828
44613
43404.1
42202.2
41007.8
39821.8
38645.5
37479.6
36324.8
35181
34048.3
32926.7
31816.5
30717.6
29630.2
28554
27488.9
26435.1
25392.7
202192
202166
202116
202041
201942
201819
201672
201500
201306
201088
200847
200582
200294
199982
199647
199289
198910
198508
198086
197645
197185
196709
196217
195713
195196
194668
194129
193579
193018
192447
191868
191281
190688
190088
189480
188864
188241
187611
186977
186338
185691
185030
184345
183627
182867
182057
181192
180277
179325
178346
177357
176383
175440
174533
173651
172787
171931
171078
170226
169370
168510
167642
166766
165878
164975
164054
163109
162138
161137
160104
159038
157943
156820
155676
154517
153351
152183
151016
149852
148686
147512
146325
145121
143903
142680
141463
140257
139064
137890
136738
135610
134505
133420
132348
131285
130222
129155
128075
126977
125857
124708
123522
122293
121017
119696
118334
116945
115538
114124
112708
111296
109891
108499
107123
105764
104419
103086
101762
100447
99137.4
97833.9
96534.9
95239.5
93947.2
92657.3
91369.7
90084.2
88800.7
87519.1
86239.3
84961.3
83685.2
82410.9
81138.2
79867.1
78596.9
77327.3
76057.8
74788
73517.5
72246.7
70975.8
69704.5
68433.1
67160.9
65888.6
64616.8
63346.7
62078.2
60811.5
59546.9
58284.6
57024.1
55765.6
54509.6
53257.1
52008
50762.8
49522.2
48287
47057.5
45834.2
44617
43406.5
42203.2
41008
39821.7
38645.1
37479.1
36323.9
35179.7
34046.7
32924.6
31813.7
30714
29625.4
28547.8
27480.9
26424.8
25379.6
202975
202946
202890
202809
202701
202567
202408
202224
202015
201782
201525
201243
200938
200608
200256
199881
199483
199064
198625
198166
197690
197198
196692
196173
195644
195103
194552
193990
193417
192832
192238
191636
191026
190410
189788
189160
188530
187897
187264
186629
185986
185329
184645
183923
183153
182328
181443
180508
179533
178532
177525
176537
175587
174677
173796
172932
172080
171233
170385
169535
168680
167818
166946
166063
165165
164248
163309
162342
161343
160311
159245
158148
157023
155876
154717
153551
152386
151223
150059
148888
147703
146496
145268
144024
142776
141540
140318
139110
137921
136758
135621
134507
133413
132333
131262
130193
129120
128039
126944
125830
124688
123509
122285
121012
119694
118337
116953
115551
114142
112730
111321
109919
108529
107155
105796
104451
103117
101793
100476
99166.1
97861.7
96561.7
95265.4
93972.1
92681.5
91393.4
90107.6
88824.1
87542.6
86263.2
84986
83710.9
82437.8
81166.7
79897.2
78628.8
77361.1
76093.2
74824.6
73554.8
72284.4
71013.9
69742.9
68471
67197.9
65924.1
64650.7
63379.1
62109.2
60841
59575.1
58311.8
57050.5
55790.8
54533.5
53279.4
52028.5
50780.9
49537.7
48299.6
47067.3
45841.2
44621.7
43409.2
42204.6
41008.4
39821.6
38644.7
37478.3
36322.8
35178.2
34044.6
32921.9
31810.3
30709.7
29620
28541
27472.5
26414.4
25367
203854
203822
203761
203673
203558
203415
203247
203052
202833
202588
202317
202022
201701
201357
200988
200595
200179
199741
199283
198807
198313
197804
197283
196750
196207
195653
195088
194512
193923
193323
192711
192089
191459
190822
190180
189535
188890
188246
187604
186962
186314
185652
184962
184231
183450
182612
181716
180771
179787
178772
177751
176751
175791
174873
173988
173122
172268
171420
170573
169722
168866
168004
167132
166249
165351
164436
163499
162534
161535
160502
159434
158336
157210
156063
154902
153738
152576
151418
150260
149090
147898
146679
145430
144162
142892
141636
140397
139173
137971
136796
135647
134522
133417
132325
131241
130163
129083
127998
126901
125788
124649
123473
122251
120982
119669
118318
116942
115549
114147
112741
111338
109941
108555
107184
105827
104482
103149
101824
100507
99196.1
97890.9
96590.2
95293
93999
92707.8
91419.3
90133.5
88850.1
87569.1
86290.6
85014.7
83741.3
82470.3
81201.6
79934.7
78669.2
77404
76138.1
74871.2
73602.5
72332.7
71062.6
69791.7
68519.4
67245
65969
64693.4
63419.7
62147.8
60877.6
59609.9
58345.1
57082.4
55821.1
54562.1
53306.1
52053
50802.6
49555.9
48314.3
47078.6
45849.3
44627.1
43412.5
42206.2
41009
39821.4
38644
37477.3
36321.3
35176.2
34042
32918.7
31806.4
30704.9
29614.1
28533.8
27463.9
26404.1
25354.7
204849
204815
204751
204659
204539
204392
204220
204021
203796
203544
203264
202957
202622
202260
201873
201460
201023
200565
200086
199588
199075
198548
198009
197459
196897
196325
195741
195145
194537
193917
193284
192640
191985
191322
190653
189982
189312
188644
187980
187317
186650
185969
185263
184518
183725
182880
181987
181050
180072
179063
178042
177036
176065
175134
174237
173362
172497
171638
170784
169927
169063
168193
167314
166425
165524
164606
163666
162698
161697
160660
159589
158489
157364
156217
155058
153896
152739
151588
150437
149274
148085
146859
145597
144309
143020
141747
140493
139256
138040
136852
135691
134552
133431
132324
131227
130137
129048
127955
126853
125735
124592
123414
122193
120927
119621
118280
116914
115532
114139
112742
111346
109956
108577
107210
105856
104512
103179
101855
100538
99226.8
97921.2
96619.8
95322.1
94027.6
92736.2
91447.7
90162.1
88879.3
87599.3
86322.4
85048.7
83778.3
82510.6
81245.5
79982.3
78720.3
77458.2
76195.1
74930.2
73662.6
72393.5
71123.8
69853.2
68580.2
67304.1
66025.7
64747.4
63470.8
62196
60923.2
59652.9
58385.6
57120.7
55857.4
54596.2
53338.1
52082.3
50828.4
49577.7
48331.9
47092.1
45859
44633.6
43416.4
42208.2
41009.6
39821.2
38643.2
37476
36319.5
35173.9
34039.1
32915.1
31802
30699.6
29607.8
28526.4
27455.1
26393.9
25343
205992
205956
205892
205800
205683
205539
205368
205169
204939
204677
204383
204057
203700
203316
202905
202470
202012
201530
201028
200506
199969
199417
198853
198278
197693
197097
196489
195869
195236
194591
193931
193259
192573
191877
191174
190468
189763
189061
188362
187666
186966
186256
185525
184765
183962
183116
182233
181316
180360
179373
178366
177364
176387
175441
174525
173631
172746
171869
170999
170129
169254
168372
167482
166582
165672
164746
163799
162824
161816
160773
159699
158597
157473
156330
155174
154016
152865
151722
150581
149427
148245
147021
145754
144456
143153
141865
140599
139351
138125
136925
135749
134594
133456
132333
131222
130119
129019
127915
126802
125674
124522
123338
122116
120855
119556
118226
116873
115502
114120
112732
111345
109964
108593
107231
105881
104540
103209
101885
100568
99257.6
97951.8
96650.2
95352.4
94057.9
92766.6
91478.6
90193.8
88912.3
87634.1
86359.8
85089.8
83823.9
82561.3
81301
80042.4
78784.2
77525.7
76266.1
75003
73736.4
72468
71198.5
69927.8
68654
67376.3
66094.9
64813.2
63533.6
62255.8
60979.7
59705.9
58435.2
57167.3
55901
54637
53376
52117
50859.1
49603.7
48352.9
47108.2
45870.6
44641.4
43421.2
42210.8
41010.7
39821.1
38642.3
37474.5
36317.4
35171.2
34035.8
32911.2
31797.3
30694.1
29601.3
28518.9
27446.4
26384
25331.7
207312
207276
207214
207125
207011
206870
206697
206489
206244
205961
205642
205290
204908
204498
204060
203598
203113
202604
202073
201521
200952
200369
199774
199168
198552
197925
197286
196635
195970
195292
194599
193893
193173
192442
191701
190957
190211
189468
188727
187990
187252
186507
185749
184969
184160
183315
182443
181546
180619
179661
178678
177690
176714
175758
174824
173906
172997
172094
171199
170310
169421
168525
167621
166709
165786
164849
163891
162907
161891
160842
159765
158663
157540
156401
155251
154099
152953
151816
150682
149538
148365
147149
145886
144588
143280
141983
140707
139452
138216
137003
135812
134641
133487
132350
131225
130109
128995
127877
126750
125608
124445
123254
122030
120771
119481
118161
116819
115460
114089
112713
111338
109967
108604
107249
105903
104565
103236
101914
100598
99288.1
97982.6
96681.3
95383.7
94089.8
92799.5
91512.7
90229.5
88950.1
87675
86404.8
85140.1
83880.4
82624.2
81369.9
80116.3
78862.4
77607.5
76350.1
75088.6
73823
72554.2
71284.4
70014.1
68739.5
67459.7
66175.7
64890.9
63608.4
62327.4
61047.5
59770
58495.2
57223.4
55953.3
54685.8
53421.2
52158
50895.3
49634.4
48377.9
47127.4
45884.5
44650.8
43427.1
42214.1
41012.1
39821.2
38641.5
37472.8
36315.2
35168.4
34032.3
32907.1
31792.5
30688.5
29594.8
28511.4
27437.9
26374.4
25321.1
208860
208822
208759
208670
208553
208404
208219
207993
207724
207414
207066
206682
206267
205820
205344
204841
204313
203765
203195
202605
201998
201377
200743
200097
199441
198774
198096
197406
196704
195989
195261
194519
193764
192997
192219
191435
190650
189866
189085
188306
187529
186749
185961
185160
184341
183496
182630
181747
180845
179914
178957
177983
177010
176051
175105
174168
173237
172310
171389
170476
169565
168651
167731
166803
165866
164915
163945
162950
161927
160875
159796
158694
157573
156437
155293
154147
153005
151872
150743
149603
148438
147232
145981
144694
143391
142094
140813
139550
138304
137080
135876
134691
133524
132372
131233
130102
128973
127839
126696
125540
124365
123166
121939
120683
119398
118088
116756
115407
114049
112686
111323
109964
108610
107262
105921
104588
103261
101942
100628
99318.4
98013.9
96713.4
95416.8
94124.2
92835.6
91551.1
90270.9
88995.3
87724.9
86460.5
85202.5
83949.9
82700.9
81452.9
80204.3
78954.1
77701.2
76444.3
75182.8
73917.2
72648
71378.4
70107.1
68831.7
67550.4
66265.2
64979.3
63694.2
62410.6
61127.6
59846.3
58567.5
57291.1
56016.6
54744.5
53475.3
52206.9
50938.4
49670.9
48407.4
47150.1
45901
44662
43434.2
42218.1
41014
39821.6
38640.7
37471.3
36312.9
35165.5
34028.8
32902.9
31787.6
30682.9
29588.4
28504.1
27429.8
26365.4
25311.1
210538
210497
210427
210328
210199
210036
209833
209584
209285
208936
208541
208105
207634
207133
206605
206051
205476
204883
204272
203640
202989
202325
201648
200958
200259
199553
198837
198111
197373
196623
195861
195086
194298
193499
192690
191874
191057
190241
189427
188615
187804
186991
186175
185352
184518
183668
182802
181922
181029
180115
179177
178217
177248
176283
175326
174376
173430
172486
171545
170609
169678
168746
167809
166865
165913
164947
163964
162959
161930
160875
159796
158695
157576
156444
155304
154163
153023
151891
150761
149622
148461
147265
146029
144760
143474
142186
140906
139637
138384
137150
135935
134739
133560
132396
131243
130096
128950
127801
126643
125473
124287
123080
121849
120592
119312
118008
116685
115349
114004
112655
111305
109957
108611
107270
105935
104606
103284
101967
100655
99347.2
98044.1
96745.2
95450.5
94160.2
92874.5
91593.9
90318.5
89048.6
87784.7
86527.2
85276.4
84030.5
82787.5
81544.1
80298.8
79049.5
77796.1
76538.3
75276.3
74008.4
72737.4
71466.8
70195.8
68921
67640.3
66355.3
65069.7
63785.3
62501
61216.7
59932.5
58650.6
57369.9
56090.7
54813.6
53538.9
52264.3
50988.5
49713.3
48441.7
47176.3
45919.8
44674.6
43442.2
42222.7
41016.1
39822
38640
37469.6
36310.5
35162.4
34025.1
32898.5
31782.6
30677.2
29582
28496.9
27421.8
26356.7
25301.6
212178
212131
212047
211928
211777
211588
211357
211073
210729
210325
209868
209367
208836
208280
207701
207100
206481
205844
205191
204519
203828
203124
202409
201684
200950
200211
199465
198708
197941
197163
196374
195572
194760
193936
193102
192262
191420
190579
189739
188902
188065
187227
186386
185541
184691
183830
182957
182073
181176
180266
179336
178386
177420
176451
175485
174522
173564
172608
171654
170702
169754
168807
167857
166900
165934
164956
163963
162950
161915
160858
159779
158680
157563
156434
155299
154160
153019
151883
150749
149607
148447
147260
146040
144791
143524
142249
140974
139705
138449
137208
135985
134780
133590
132414
131247
130085
128925
127761
126590
125408
124212
122997
121762
120505
119228
117930
116617
115293
113961
112624
111285
109946
108609
107275
105945
104621
103302
101988
100679
99373.4
98072.2
96775.4
95483.3
94196.5
92915.3
91640.1
90371.3
89108.9
87852.5
86601.8
85356.8
84115.4
82875.4
81633.9
80387.8
79136.7
77880.3
76619.6
75353.8
74083.2
72810.7
71539.4
70269
68996.4
67718.1
66436.3
65154.1
63873
62591.5
61307.9
60024.1
58740.8
57457.3
56174.1
54892.1
53611.1
52329.1
51045.2
49761.3
48480.4
47205.7
45940.8
44688.7
43450.9
42227.7
41018.5
39822.7
38639.4
37468
36308.1
35159.4
34021.5
32894.3
31777.8
30671.7
29575.8
28490.1
27414.3
26348.5
25292.8
213797
213736
213626
213472
213276
213041
212760
212425
212026
211564
211046
210488
209901
209293
208665
208020
207359
206681
205988
205278
204553
203815
203068
202313
201551
200784
200012
199231
198440
197638
196826
196003
195171
194328
193475
192615
191752
190890
190028
189168
188309
187450
186588
185723
184855
183981
183097
182204
181300
180384
179455
178509
177547
176575
175600
174626
173656
172690
171727
170765
169805
168846
167884
166916
165940
164953
163951
162932
161894
160836
159757
158660
157547
156421
155287
154148
153006
151864
150723
149577
148417
147236
146029
144797
143545
142281
141013
139748
138492
137248
136019
134806
133608
132421
131242
130068
128895
127719
126536
125343
124139
122919
121681
120424
119150
117860
116556
115242
113921
112594
111264
109934
108604
107277
105953
104634
103319
102008
100701
99397.8
98098.8
96804.3
95515.6
94233.6
92958.6
91690.9
90430.4
89176
87926.5
86681
85438.4
84197.9
82956.8
81712.7
80463
79206.6
77944.9
76679
75409.2
74135.7
72861.9
71591
70323
69053.9
67780.7
66504.7
65228.3
63952.7
62676.3
61397.3
60117.3
58835.1
57551.1
56265.3
54979.4
53692.1
52401.9
51108.8
49815.1
48523.7
47238.5
45964
44703.9
43460.3
42233.1
41021.3
39823.6
38638.9
37466.5
36305.9
35156.4
34018
32890.3
31773.1
30666.5
29570
28483.7
27407.4
26341
25284.7
215421
215337
215189
214981
214721
214414
214061
213656
213193
212672
212100
211490
210857
210205
209537
208855
208156
207441
206710
205965
205206
204437
203660
202877
202090
201299
200503
199699
198888
198066
197234
196393
195543
194684
193815
192938
192058
191176
190295
189415
188536
187657
186777
185895
185010
184121
183225
182320
181407
180484
179550
178603
177641
176668
175688
174705
173725
172750
171779
170809
169840
168871
167900
166923
165939
164944
163936
162913
161872
160813
159735
158641
157530
156407
155275
154136
152991
151845
150697
149546
148384
147206
146007
144784
143543
142287
141025
139765
138511
137267
136036
134818
133613
132417
131228
130044
128861
127675