/*--------------------------------*- C++ -*----------------------------------*\
  =========                 |
  \\      /  F ield         | OpenFOAM: The Open Source CFD Toolbox
   \\    /   O peration     | Website:  https://openfoam.org
    \\  /    A nd           | Version:  9
     \\/     M anipulation  |
\*---------------------------------------------------------------------------*/
FoamFile
{
    format      ascii;
    class       volVectorField;
    location    "0.065";
    object      U;
}
// * * * * * * * * * * * * * * * * * * * * * * * * * * * * * * * * * * * * * //

dimensions      [0 1 -1 0 0 0 0];

internalField   nonuniform List<vector> 
12225
(
(9.91149 0.0684565 0)
(9.61408 0.0884591 0)
(9.37351 0.0962693 0)
(9.07255 0.0880805 0)
(8.68649 0.0662136 0)
(8.30963 0.0434104 0)
(8.02014 0.0286359 0)
(7.80611 0.0277557 0)
(7.60375 0.0412022 0)
(7.36137 0.0628374 0)
(7.05969 0.0822619 0)
(6.72796 0.0919134 0)
(6.38984 0.0911719 0)
(6.07486 0.0863147 0)
(5.76748 0.0858746 0)
(5.44273 0.0900737 0)
(5.09854 0.104531 0)
(4.66913 0.129639 0)
(10.0533 0.0307677 0)
(10.0693 0.0595244 0)
(10.0531 0.0198333 0)
(10.084 0.0530063 0)
(10.1082 0.106602 0)
(10.0971 0.122 0)
(10.0705 0.103767 0)
(10.0515 0.0849106 0)
(10.036 0.0840798 0)
(10.0038 0.0976921 0)
(9.93349 0.112972 0)
(9.82764 0.120604 0)
(9.6971 0.12292 0)
(9.56269 0.122223 0)
(9.42934 0.132898 0)
(9.29593 0.155028 0)
(9.14575 0.194214 0)
(8.95197 0.246112 0)
(10.0807 0.0580867 0)
(10.1948 0.116222 0)
(10.0935 0.108112 0)
(9.97986 0.0873589 0)
(9.95308 0.0751022 0)
(9.97551 0.0582253 0)
(10.0122 0.0386384 0)
(10.0575 0.0316048 0)
(10.1088 0.0474098 0)
(10.1508 0.083998 0)
(10.1621 0.128262 0)
(10.1287 0.16522 0)
(10.0553 0.186195 0)
(9.95825 0.19255 0)
(9.86452 0.197326 0)
(9.78956 0.212355 0)
(9.74444 0.248733 0)
(9.70945 0.310071 0)
(10.0683 0.0285766 0)
(10.0277 0.0758843 0)
(10.0148 0.0776673 0)
(10.0367 0.0733075 0)
(10.0564 0.0914742 0)
(10.0563 0.0959493 0)
(10.0458 0.0767692 0)
(10.0403 0.0577688 0)
(10.0468 0.0615735 0)
(10.0612 0.0914974 0)
(10.0731 0.134361 0)
(10.0729 0.171549 0)
(10.0558 0.192298 0)
(10.0218 0.196474 0)
(9.97397 0.196082 0)
(9.92361 0.206278 0)
(9.8764 0.235167 0)
(9.84469 0.291494 0)
(9.94026 0.0867841 0)
(9.98705 0.146019 0)
(10.0698 0.107348 0)
(10.1138 0.0851205 0)
(10.1052 0.0838571 0)
(10.0609 0.0726996 0)
(10.0048 0.0483942 0)
(9.95586 0.0299497 0)
(9.92828 0.0352373 0)
(9.9289 0.0669039 0)
(9.95291 0.114173 0)
(9.98625 0.162066 0)
(10.0098 0.199953 0)
(10.0088 0.226252 0)
(9.97244 0.245797 0)
(9.91065 0.268678 0)
(9.83224 0.298832 0)
(9.76343 0.345024 0)
(9.79541 -0.00839111 0)
(9.96829 0.0729602 0)
(10.0481 0.0479166 0)
(10.1072 0.050322 0)
(10.1801 0.0922998 0)
(10.2033 0.118037 0)
(10.1235 0.109773 0)
(9.9622 0.0879777 0)
(9.79633 0.0770316 0)
(9.69234 0.0874789 0)
(9.67054 0.116373 0)
(9.71235 0.15344 0)
(9.78283 0.188288 0)
(9.85031 0.21809 0)
(9.89264 0.244545 0)
(9.9019 0.274839 0)
(9.88397 0.310707 0)
(9.84628 0.356289 0)
(10.132 -0.0109968 0)
(10.0282 0.0843295 0)
(10.0172 0.0618012 0)
(10.0015 0.0522221 0)
(10.0297 0.0688617 0)
(10.0939 0.102469 0)
(10.1406 0.135486 0)
(10.1381 0.148812 0)
(10.0975 0.138664 0)
(10.0501 0.118832 0)
(10.0192 0.107295 0)
(10.0121 0.11328 0)
(10.0199 0.135977 0)
(10.0309 0.172708 0)
(10.034 0.219276 0)
(10.0268 0.272348 0)
(10.0118 0.32714 0)
(9.99342 0.379206 0)
(9.86685 0.120113 0)
(9.91754 0.134405 0)
(9.95584 0.0640245 0)
(9.97502 0.0383736 0)
(9.97568 0.043506 0)
(9.98039 0.0662539 0)
(10.0043 0.0916206 0)
(10.0393 0.108048 0)
(10.0687 0.11394 0)
(10.0842 0.11743 0)
(10.085 0.127655 0)
(10.0738 0.148132 0)
(10.051 0.176501 0)
(10.02 0.21008 0)
(9.98445 0.247371 0)
(9.95258 0.287841 0)
(9.92598 0.330854 0)
(9.91369 0.376319 0)
(10.0172 0.136091 0)
(10.213 0.051684 0)
(10.1943 0.0329997 0)
(10.0418 0.0576848 0)
(9.89857 0.0868852 0)
(9.84849 0.104119 0)
(9.88836 0.11161 0)
(9.95957 0.115556 0)
(10.0019 0.115362 0)
(9.99497 0.113556 0)
(9.95749 0.118569 0)
(9.91673 0.137792 0)
(9.88939 0.171488 0)
(9.87524 0.215674 0)
(9.86929 0.2637 0)
(9.86562 0.311483 0)
(9.86328 0.354786 0)
(9.867 0.393246 0)
(10.0651 0.0540699 0)
(10.0913 0.0711164 0)
(10.0379 0.129673 0)
(9.9614 0.144673 0)
(9.90407 0.103074 0)
(9.89323 0.0540248 0)
(9.92998 0.0360156 0)
(9.99507 0.0565687 0)
(10.054 0.0985947 0)
(10.0754 0.13939 0)
(10.0479 0.166925 0)
(9.98297 0.182798 0)
(9.90624 0.196958 0)
(9.84126 0.218416 0)
(9.80334 0.249848 0)
(9.79495 0.288856 0)
(9.81269 0.32798 0)
(9.85298 0.364983 0)
(10.0931 0.0414064 0)
(10.0497 0.0455762 0)
(10.1459 0.0919304 0)
(10.2602 0.138426 0)
(10.3379 0.142579 0)
(10.3406 0.109475 0)
(10.2625 0.0714499 0)
(10.1371 0.0556212 0)
(10.0126 0.0729057 0)
(9.92129 0.11723 0)
(9.86596 0.173104 0)
(9.83077 0.224794 0)
(9.79985 0.263209 0)
(9.77047 0.287302 0)
(9.74538 0.299886 0)
(9.73622 0.307964 0)
(9.74372 0.311973 0)
(9.77541 0.320502 0)
(10.3592 0.134113 0)
(10.0862 0.0554202 0)
(9.89056 0.0411081 0)
(9.92963 0.0445083 0)
(10.0901 0.04756 0)
(10.2175 0.0770868 0)
(10.2392 0.13222 0)
(10.1693 0.18451 0)
(10.0657 0.212951 0)
(9.98071 0.219952 0)
(9.93635 0.21935 0)
(9.93033 0.222545 0)
(9.94893 0.233504 0)
(9.97991 0.251396 0)
(10.0092 0.270804 0)
(10.027 0.287852 0)
(10.0302 0.299258 0)
(10.0113 0.303239 0)
(9.95963 0.141362 0)
(9.99474 0.189891 0)
(9.97338 0.142109 0)
(9.94847 0.0685841 0)
(9.91637 0.0284779 0)
(9.91142 0.0470797 0)
(9.95452 0.0960462 0)
(10.0197 0.138455 0)
(10.0643 0.163893 0)
(10.066 0.181343 0)
(10.0317 0.198446 0)
(9.98664 0.216144 0)
(9.95706 0.23325 0)
(9.95676 0.250924 0)
(9.98581 0.271933 0)
(10.0294 0.296262 0)
(10.0774 0.324516 0)
(10.1104 0.350234 0)
(9.82825 0.000366936 0)
(9.9937 0.0638501 0)
(10.1837 0.0839186 0)
(10.228 0.0751022 0)
(10.1317 0.0620181 0)
(10.0059 0.0559983 0)
(9.93061 0.0798857 0)
(9.91742 0.132952 0)
(9.94135 0.198757 0)
(9.97696 0.256137 0)
(10.0097 0.286516 0)
(10.0367 0.283778 0)
(10.0577 0.257186 0)
(10.075 0.224552 0)
(10.0869 0.20268 0)
(10.0956 0.198513 0)
(10.0976 0.212867 0)
(10.0979 0.238641 0)
(9.86302 -0.0673263 0)
(9.94031 -0.09127 0)
(10.0441 -0.0114375 0)
(10.0612 0.0933797 0)
(9.96168 0.177446 0)
(9.82688 0.198347 0)
(9.73715 0.165163 0)
(9.71378 0.121136 0)
(9.75127 0.0981399 0)
(9.83171 0.101958 0)
(9.92872 0.123583 0)
(10.0171 0.154473 0)
(10.0813 0.190155 0)
(10.1158 0.228773 0)
(10.1236 0.270005 0)
(10.1113 0.310786 0)
(10.0865 0.352068 0)
(10.0562 0.388504 0)
(10.1962 0.0464696 0)
(10.1162 0.0104625 0)
(10.0239 0.0573383 0)
(9.99173 0.160702 0)
(10.032 0.223173 0)
(10.0923 0.220716 0)
(10.1294 0.175535 0)
(10.1289 0.127992 0)
(10.0974 0.10448 0)
(10.0503 0.106651 0)
(10.0022 0.122348 0)
(9.96276 0.139529 0)
(9.93989 0.154233 0)
(9.93535 0.169351 0)
(9.94846 0.189793 0)
(9.97248 0.21826 0)
(10.0031 0.252968 0)
(10.0361 0.291833 0)
(9.76805 0.169758 0)
(9.83486 0.104747 0)
(9.79285 0.0419004 0)
(9.78625 0.0147531 0)
(9.83155 0.0468229 0)
(9.88072 0.0940798 0)
(9.91354 0.125907 0)
(9.93438 0.150907 0)
(9.95171 0.181755 0)
(9.96848 0.215142 0)
(9.97951 0.238743 0)
(9.97796 0.245439 0)
(9.96237 0.239812 0)
(9.93904 0.232596 0)
(9.91685 0.233356 0)
(9.90591 0.246772 0)
(9.90846 0.270462 0)
(9.92886 0.302485 0)
(10.0453 0.0461328 0)
(10.0479 0.060729 0)
(9.98057 0.124112 0)
(9.88339 0.16979 0)
(9.81527 0.18063 0)
(9.79795 0.162731 0)
(9.81505 0.122322 0)
(9.84201 0.0743431 0)
(9.86943 0.0435119 0)
(9.90138 0.0481072 0)
(9.93838 0.0881329 0)
(9.97224 0.146915 0)
(9.99417 0.20139 0)
(10.0016 0.233975 0)
(9.99892 0.237896 0)
(9.99343 0.221493 0)
(9.99145 0.194422 0)
(9.99738 0.174424 0)
(9.93516 0.201986 0)
(9.96298 0.269635 0)
(9.92963 0.229653 0)
(9.95355 0.163159 0)
(10.0219 0.0983982 0)
(10.0887 0.0555326 0)
(10.1335 0.047682 0)
(10.1549 0.0642523 0)
(10.1588 0.0861967 0)
(10.1541 0.105081 0)
(10.1508 0.124832 0)
(10.1553 0.151688 0)
(10.1674 0.18648 0)
(10.1824 0.223892 0)
(10.1947 0.255133 0)
(10.2011 0.275599 0)
(10.2016 0.283702 0)
(10.1976 0.283694 0)
(9.76806 0.113789 0)
(9.89321 0.130613 0)
(9.96712 0.120418 0)
(10.0457 0.0622409 0)
(10.0469 0.00929734 0)
(10.002 -0.00346618 0)
(9.97522 0.0143372 0)
(9.98965 0.0391964 0)
(10.0379 0.0586469 0)
(10.1022 0.0742467 0)
(10.1623 0.091958 0)
(10.2058 0.11577 0)
(10.2321 0.144193 0)
(10.2476 0.172479 0)
(10.2575 0.193274 0)
(10.2654 0.203246 0)
(10.2719 0.200397 0)
(10.2783 0.188239 0)
(9.97514 -0.0330382 0)
(9.99057 -0.0708071 0)
(10.0573 0.00958728 0)
(10.08 0.0793972 0)
(10.0733 0.127698 0)
(10.0502 0.12236 0)
(10.0231 0.0541614 0)
(10.0044 -0.0326096 0)
(10.011 -0.0867107 0)
(10.0518 -0.0862024 0)
(10.1193 -0.0387734 0)
(10.1942 0.0343909 0)
(10.2567 0.110625 0)
(10.2963 0.174522 0)
(10.3111 0.218494 0)
(10.3065 0.243143 0)
(10.2895 0.251781 0)
(10.2702 0.248625 0)
(10.3547 0.0859774 0)
(10.2088 0.00952589 0)
(10.2185 0.0308032 0)
(10.2474 0.0529778 0)
(10.3028 0.0683974 0)
(10.3481 0.084836 0)
(10.3492 0.0835844 0)
(10.3003 0.0481931 0)
(10.2245 -0.0135731 0)
(10.1565 -0.0741748 0)
(10.1192 -0.100698 0)
(10.1156 -0.0760093 0)
(10.1353 -0.00632669 0)
(10.1649 0.0863287 0)
(10.1947 0.172702 0)
(10.2209 0.232852 0)
(10.2444 0.256737 0)
(10.2669 0.244199 0)
(9.95451 0.0977925 0)
(9.88712 0.0668289 0)
(9.91789 -0.00765807 0)
(10.0002 -0.0199972 0)
(10.0672 0.0145282 0)
(10.099 0.0679721 0)
(10.1323 0.103984 0)
(10.1845 0.100043 0)
(10.2373 0.0626606 0)
(10.2649 0.0170668 0)
(10.2567 -0.0094176 0)
(10.2231 -0.00148014 0)
(10.1876 0.03861 0)
(10.1715 0.0955406 0)
(10.1857 0.149179 0)
(10.2253 0.185007 0)
(10.2812 0.198074 0)
(10.3364 0.190849 0)
(10.0227 0.0388856 0)
(9.96443 0.0580551 0)
(9.92289 -0.0389559 0)
(9.82893 -0.0452808 0)
(9.75993 -0.00210571 0)
(9.75534 0.0276644 0)
(9.81272 0.0121291 0)
(9.90509 -0.0331399 0)
(9.99129 -0.0697865 0)
(10.042 -0.0711634 0)
(10.0537 -0.0392225 0)
(10.0406 0.00762795 0)
(10.0237 0.0506697 0)
(10.0184 0.0800375 0)
(10.0329 0.0950783 0)
(10.068 0.0999657 0)
(10.1185 0.0992328 0)
(10.1812 0.099076 0)
(10.1387 0.154279 0)
(10.148 0.124839 0)
(10.1344 0.0505018 0)
(10.1112 0.050029 0)
(10.1164 0.0590335 0)
(10.1343 0.0293402 0)
(10.1462 -0.0202104 0)
(10.1479 -0.0592619 0)
(10.1391 -0.0716745 0)
(10.1258 -0.0556249 0)
(10.1173 -0.018733 0)
(10.1167 0.0264442 0)
(10.1204 0.0667443 0)
(10.1238 0.0934606 0)
(10.1248 0.100962 0)
(10.1279 0.0916863 0)
(10.1363 0.0678835 0)
(10.155 0.0368134 0)
(9.89116 0.0516587 0)
(9.89053 0.0815207 0)
(9.90649 0.00569222 0)
(9.98553 -0.0180294 0)
(10.0899 0.000963086 0)
(10.1733 0.0106975 0)
(10.2183 -3.35582e-05 0)
(10.2294 -0.0218899 0)
(10.2137 -0.0400861 0)
(10.1831 -0.042594 0)
(10.1551 -0.0253033 0)
(10.1469 0.0067166 0)
(10.1663 0.0418882 0)
(10.2126 0.0697467 0)
(10.2796 0.0826454 0)
(10.3548 0.0794828 0)
(10.4288 0.0630734 0)
(10.4848 0.0377633 0)
(9.93232 0.0967577 0)
(9.95358 0.0833246 0)
(9.97631 -0.011413 0)
(9.99374 -0.0472262 0)
(10.0397 -0.0436375 0)
(10.0976 -0.0457666 0)
(10.1425 -0.057067 0)
(10.1718 -0.0610204 0)
(10.1935 -0.0495023 0)
(10.2149 -0.0268897 0)
(10.2414 -0.00220859 0)
(10.2759 0.0161285 0)
(10.3176 0.0224345 0)
(10.362 0.0147424 0)
(10.4057 -0.00211336 0)
(10.4461 -0.0216065 0)
(10.4824 -0.0357628 0)
(10.5168 -0.0381389 0)
(9.9345 0.0360544 0)
(10.1213 0.0338996 0)
(10.2637 -0.00733521 0)
(10.3102 -0.0379288 0)
(10.3147 -0.0465674 0)
(10.2857 -0.0419053 0)
(10.2239 -0.0374914 0)
(10.1612 -0.0411946 0)
(10.1308 -0.0510271 0)
(10.1443 -0.0575901 0)
(10.196 -0.0531726 0)
(10.2695 -0.0373688 0)
(10.3434 -0.0160598 0)
(10.3997 0.00224275 0)
(10.4276 0.0109056 0)
(10.4282 0.00805334 0)
(10.4083 -0.00563862 0)
(10.3786 -0.0255972 0)
(10.0913 0.00721424 0)
(10.0875 -0.0660132 0)
(10.1134 -0.071637 0)
(10.1674 -0.0573342 0)
(10.2105 -0.0359838 0)
(10.2419 -0.0167008 0)
(10.2625 -0.0130909 0)
(10.2667 -0.0284645 0)
(10.247 -0.0522301 0)
(10.2045 -0.0701349 0)
(10.1538 -0.0738246 0)
(10.1164 -0.0642488 0)
(10.1057 -0.047548 0)
(10.1245 -0.0294947 0)
(10.1651 -0.0142765 0)
(10.2153 -0.00284628 0)
(10.2627 0.00405019 0)
(10.2962 0.00485731 0)
(9.82844 -0.0562736 0)
(9.67993 -0.00971856 0)
(9.51064 -0.039456 0)
(9.31044 -0.0650084 0)
(9.11666 -0.068336 0)
(8.96894 -0.0561674 0)
(8.87038 -0.0385111 0)
(8.79606 -0.0233045 0)
(8.71367 -0.0154095 0)
(8.60998 -0.0154893 0)
(8.4954 -0.0197291 0)
(8.38759 -0.0248537 0)
(8.29538 -0.0306874 0)
(8.21942 -0.0372613 0)
(8.15529 -0.0436249 0)
(8.10027 -0.0483455 0)
(8.04965 -0.0502069 0)
(8.00367 -0.0496642 0)
(-0.209234 0.663979 -1.2274e-19)
(-0.730897 0.11501 1.21823e-19)
(-0.726294 -0.190274 0)
(-0.33373 -0.646149 0)
(0.328819 -0.817134 0)
(1.10711 -0.880225 -1.17755e-19)
(1.85193 -0.848693 0)
(2.55912 -0.766436 0)
(3.19602 -0.663897 0)
(3.74858 -0.558211 0)
(4.21774 -0.459312 1.13259e-19)
(4.61238 -0.373549 0)
(4.93896 -0.289032 0)
(5.19706 -0.203856 0)
(5.39196 -0.124399 0)
(5.51619 -0.030607 1.09399e-19)
(5.5704 0.0566713 0)
(5.54764 0.147689 0)
(5.41605 0.269013 0)
(5.18719 0.367814 0)
(4.8436 0.528014 0)
(4.34549 0.65752 0)
(3.77617 0.729275 0)
(3.0267 0.96984 1.02803e-19)
(2.0946 0.888724 -1.02128e-19)
(1.34122 0.288529 1.01514e-19)
(0.890395 -0.211302 1.00819e-19)
(0.636794 -0.352732 0)
(0.533603 -0.270269 0)
(0.586372 -0.156239 -9.8233e-20)
(0.71539 -0.0628973 -9.72806e-20)
(0.77046 0.045709 0)
(0.731226 0.085762 0)
(0.6954 -0.0354892 -9.45347e-20)
(0.654951 -0.13627 0)
(0.549283 -0.0635551 0)
(0.379396 0.027995 9.20184e-20)
(0.184307 0.0256138 0)
(-0.0638578 0.0340377 9.04804e-20)
(-0.444582 0.126978 1.7924e-19)
(-1.00621 0.379432 0)
(-1.75663 0.533538 0)
(-2.54203 0.532185 0)
(-3.32947 0.629432 0)
(-4.15165 0.653009 0)
(-4.89112 0.560554 1.70094e-19)
(-5.54299 0.516107 1.68882e-19)
(-6.14652 0.470418 1.67706e-19)
(-6.67473 0.404642 0)
(-7.13737 0.356507 -1.65391e-19)
(-7.54257 0.308973 0)
(-7.88484 0.257164 1.63012e-19)
(-8.16363 0.205347 1.61768e-19)
(-8.37542 0.149773 0)
(-8.51361 0.0891521 0)
(-8.56885 0.0234066 0)
(-8.52955 -0.047493 1.5619e-19)
(-8.39742 -0.121336 0)
(-8.15499 -0.200173 0)
(-7.79177 -0.28302 0)
(-7.29774 -0.369232 0)
(-6.66564 -0.456199 0)
(-5.89433 -0.54053 0)
(-4.99004 -0.617852 0)
(-3.96878 -0.682283 0)
(-2.85775 -0.727088 -1.4178e-19)
(-1.69522 -0.745601 0)
(-0.522958 -0.732537 0)
(0.615693 -0.690901 1.39239e-19)
(1.66684 -0.60698 1.38279e-19)
(2.59371 -0.499684 0)
(3.34989 -0.349784 -1.36593e-19)
(3.86259 -0.154393 1.35664e-19)
(4.07092 0.0838661 0)
(3.9027 0.33559 -1.32945e-19)
(3.2962 0.576165 0)
(2.26037 0.743074 0)
(0.949939 0.756903 1.2705e-19)
(-0.321707 0.616169 0)
(-1.32005 0.367 -1.23304e-19)
(-1.91856 -0.01669 0)
(-1.84909 -0.495058 1.20294e-19)
(-1.17516 -0.914952 1.1901e-19)
(-0.90989 -1.14903 1.17912e-19)
(-1.37349 -0.722584 2.32539e-19)
(-3.18674 1.44273 -2.2826e-19)
(-6.34221 1.68545 0)
(-8.13432 0.90514 0)
(-9.50477 0.92068 0)
(-10.7959 0.579616 -2.22301e-19)
(-11.555 0.48176 -2.21352e-19)
(-12.3187 0.337657 2.20195e-19)
(-12.7569 0.241069 0)
(-13.1368 0.161749 -2.17037e-19)
(-13.3225 0.0839764 -2.14988e-19)
(-13.4098 0.0264948 -2.12611e-19)
(-13.3623 -0.0332499 0)
(-13.225 -0.0795877 0)
(-12.9853 -0.12679 0)
(-12.6544 -0.166571 -2.00035e-19)
(-12.2382 -0.204604 0)
(-11.7404 -0.237502 0)
(-11.1711 -0.267027 1.88513e-19)
(-10.5342 -0.291946 0)
(-9.84132 -0.312064 0)
(-9.10074 -0.326464 1.76694e-19)
(-8.32802 -0.334098 0)
(-7.53819 -0.334374 0)
(-6.75031 -0.326918 -1.66077e-19)
(-5.98061 -0.312493 -1.6301e-19)
(-5.24408 -0.292417 0)
(-4.55201 -0.268496 1.57624e-19)
(-3.91281 -0.242608 0)
(-3.33 -0.216682 -1.53079e-19)
(-2.80336 -0.192138 0)
(-2.32966 -0.169901 -1.491e-19)
(-1.90396 -0.150356 -1.47241e-19)
(-1.5202 -0.133589 0)
(-1.17208 -0.119299 0)
(-0.853918 -0.107544 0)
(-0.560437 -0.0976715 0)
(-0.287195 -0.0891725 0)
(-0.0296116 -0.0821415 0)
(0.213263 -0.077497 0)
(0.442014 -0.0719973 -1.33199e-19)
(0.657637 -0.0661719 1.31428e-19)
(0.861252 -0.0613828 0)
(1.05544 -0.0581868 0)
(1.24535 -0.0570003 0)
(1.4377 -0.0577119 0)
(1.63822 -0.0596135 2.4526e-19)
(1.84959 -0.0618039 0)
(2.07096 -0.063669 -2.38118e-19)
(2.29932 -0.0651648 2.34522e-19)
(2.53169 -0.0668083 0)
(2.7669 -0.0693304 0)
(3.00629 -0.073298 0)
(3.25371 -0.0788936 -2.20166e-19)
(3.51479 -0.0860068 -2.16618e-19)
(3.79561 -0.0943967 0)
(4.10165 -0.103613 -2.0962e-19)
(4.43726 -0.113516 -2.06193e-19)
(4.80565 -0.123956 2.02833e-19)
(5.20908 -0.13298 0)
(5.64599 -0.141114 0)
(6.11532 -0.149687 1.93344e-19)
(6.61505 -0.151424 0)
(7.12582 -0.151363 0)
(7.64755 -0.14919 0)
(8.15846 -0.134488 0)
(8.62918 -0.129387 -1.80169e-19)
(9.09231 -0.101546 -1.77798e-19)
(9.43335 -0.0761774 0)
(9.74897 -0.059503 -1.72931e-19)
(9.93966 0.0132413 0)
(9.92402 0.0138366 0)
(9.94016 0.170624 -1.64253e-19)
(9.18654 0.284662 0)
(8.6255 0.3404 -1.57156e-19)
(7.23409 1.0567 0)
(3.4924 0.808561 0)
(1.33132 -0.272798 -1.50631e-19)
(0.706366 -0.177092 0)
(0.0591211 0.416316 -1.48011e-19)
(-1.01402 0.428739 0)
(-1.76294 0.215449 0)
(-1.98956 0.0675852 0)
(-1.83682 -0.0324012 1.38633e-19)
(-1.49913 -0.0934772 0)
(-1.11719 -0.108533 -1.29979e-19)
(-0.762104 -0.0975993 0)
(-0.437517 -0.0782193 0)
(-0.158159 -0.0549775 0)
(0.0369361 -0.0267597 0)
(0.0878147 0.00646646 0)
(-0.00853132 0.0396234 0)
(-0.221771 0.0564344 0)
(-0.44266 0.0579923 2.11388e-19)
(-0.544766 0.0553908 0)
(-0.691234 -0.0647108 0)
(0.0873229 1.08744 3.67921e-19)
(-0.0993135 0.969297 -3.66009e-19)
(0.492753 -0.583689 0)
(1.17117 -1.73671 2.39359e-19)
(1.85123 -2.27673 0)
(2.46791 -2.40662 1.17023e-19)
(3.01758 -2.29076 -2.32995e-19)
(3.49762 -2.0606 -2.31353e-19)
(3.90927 -1.79659 0)
(4.25983 -1.53963 -2.28269e-19)
(4.56275 -1.3051 -1.13036e-19)
(4.82547 -1.09371 0)
(5.05339 -0.89642 0)
(5.24914 -0.707468 0)
(5.41083 -0.520565 0)
(5.54033 -0.321227 -1.09366e-19)
(5.62103 -0.113281 0)
(5.66481 0.114432 2.16025e-19)
(5.66489 0.373343 0)
(5.60805 0.627798 0)
(5.48676 0.919139 -2.10596e-19)
(5.30092 1.22522 0)
(5.06199 1.4623 2.06883e-19)
(4.70057 1.74383 -1.0219e-19)
(4.30595 1.94285 1.01388e-19)
(3.91521 1.82473 -1.00724e-19)
(3.2772 1.44753 -1.00096e-19)
(2.48088 0.97204 0)
(1.87684 0.401141 0)
(1.55658 -0.173192 9.79748e-20)
(1.37165 -0.301694 -9.71523e-20)
(1.27604 -0.0523754 0)
(1.20163 0.0751284 0)
(0.971681 0.170749 9.4506e-20)
(0.553857 0.398888 0)
(0.0940371 0.547187 0)
(-0.35401 0.588523 -9.20022e-20)
(-0.864856 0.709315 0)
(-1.5555 1.04116 9.01268e-20)
(-2.41725 1.46122 -1.78186e-19)
(-3.25394 1.69617 0)
(-4.04358 1.76229 0)
(-4.78369 1.79245 -3.47109e-19)
(-5.39129 1.73891 -3.44436e-19)
(-5.90277 1.578 -3.41987e-19)
(-6.36199 1.41392 1.70343e-19)
(-6.76317 1.26562 -1.68265e-19)
(-7.11055 1.10988 -5.02491e-19)
(-7.42046 0.965385 3.33113e-19)
(-7.69709 0.833802 1.65086e-19)
(-7.93861 0.704202 0)
(-8.14864 0.575756 -1.62847e-19)
(-8.3252 0.444793 1.62304e-19)
(-8.46327 0.306288 0)
(-8.55728 0.156992 0)
(-8.59945 -0.00559946 0)
(-8.57729 -0.183357 -1.56159e-19)
(-8.46459 -0.37942 0)
(-8.25541 -0.595242 3.06359e-19)
(-7.93737 -0.829158 0)
(-7.50121 -1.07739 2.99335e-19)
(-6.94166 -1.33302 0)
(-6.25681 -1.58594 -2.92358e-19)
(-5.45138 -1.82208 0)
(-4.53763 -2.02292 2.86228e-19)
(-3.53758 -2.16671 -1.42443e-19)
(-2.48613 -2.23234 0)
(-1.42239 -2.20735 -2.80304e-19)
(-0.364865 -2.09627 -1.38991e-19)
(0.634003 -1.90591 -1.38298e-19)
(1.54056 -1.63749 0)
(2.33415 -1.2499 -1.37902e-19)
(2.95627 -0.726875 -1.35786e-19)
(3.32818 -0.085077 0)
(3.40884 0.614148 1.32987e-19)
(3.16463 1.28378 -2.6332e-19)
(2.52851 1.78961 0)
(1.55174 1.98003 -1.2669e-19)
(0.448678 1.79667 0)
(-0.518526 1.32319 3.70107e-19)
(-1.10303 0.607164 0)
(-1.31167 -0.26064 -3.6083e-19)
(-1.87851 -0.324008 -1.18727e-19)
(-4.27927 1.56196 1.17021e-19)
(-7.01309 3.27812 2.31556e-19)
(-8.17959 3.35389 -2.2928e-19)
(-9.56992 2.85883 0)
(-10.3251 2.17085 0)
(-10.9973 1.79016 0)
(-11.5678 1.32198 6.67788e-19)
(-11.9501 1.03759 2.21022e-19)
(-12.3382 0.76088 -2.20038e-19)
(-12.5566 0.54066 0)
(-12.7643 0.346797 -2.18331e-19)
(-12.8338 0.165195 2.15122e-19)
(-12.8629 0.00586466 2.12787e-19)
(-12.7806 -0.148999 0)
(-12.6175 -0.287509 0)
(-12.3523 -0.419931 0)
(-12.0065 -0.539393 2.00119e-19)
(-11.5729 -0.649654 0)
(-11.0651 -0.747804 -3.8567e-19)
(-10.4844 -0.834925 -5.66244e-19)
(-9.8401 -0.909477 3.69669e-19)
(-9.13874 -0.970103 0)
(-8.39127 -1.014 1.77142e-19)
(-7.61127 -1.03775 0)
(-6.81576 -1.03882 3.3907e-19)
(-6.02403 -1.01628 -1.66291e-19)
(-5.25392 -0.972299 -1.6317e-19)
(-4.52043 -0.911395 0)
(-3.83493 -0.838961 -4.73016e-19)
(-3.20535 -0.760948 3.10659e-19)
(-2.63425 -0.683158 1.53116e-19)
(-2.12015 -0.609814 0)
(-1.65892 -0.543555 1.49151e-19)
(-1.24505 -0.485502 4.41974e-19)
(-0.871955 -0.436299 0)
(-0.53331 -0.394333 2.87546e-19)
(-0.224047 -0.360702 2.84061e-19)
(0.0616323 -0.332843 2.80536e-19)
(0.328145 -0.310072 0)
(0.577866 -0.291545 0)
(0.812892 -0.275346 0)
(1.03456 -0.259009 -1.33133e-19)
(1.24202 -0.242313 -1.31312e-19)
(1.43593 -0.227323 0)
(1.61923 -0.217201 -2.55665e-19)
(1.79823 -0.214391 -2.52169e-19)
(1.98161 -0.218861 0)
(2.17768 -0.227932 -2.45064e-19)
(2.39142 -0.237659 -4.83131e-19)
(2.62339 -0.244793 2.37919e-19)
(2.8704 -0.248054 2.34439e-19)
(3.12744 -0.248378 0)
(3.38989 -0.248309 0)
(3.65544 -0.250819 0)
(3.92503 -0.258125 2.19956e-19)
(4.20258 -0.27119 -2.16474e-19)
(4.49389 -0.289898 -4.25835e-19)
(4.80528 -0.313495 2.09405e-19)
(5.14302 -0.340552 -2.06036e-19)
(5.5117 -0.369622 -2.02615e-19)
(5.91329 -0.399594 0)
(6.35223 -0.427586 0)
(6.8247 -0.451976 1.93207e-19)
(7.32295 -0.468997 0)
(7.84694 -0.474473 0)
(8.36942 -0.470264 -3.69854e-19)
(8.89163 -0.447378 0)
(9.38278 -0.416053 -1.80169e-19)
(9.82711 -0.367003 1.7761e-19)
(10.2338 -0.295571 0)
(10.5246 -0.229887 -1.73064e-19)
(10.7966 -0.111962 0)
(10.8401 0.0027766 0)
(10.9403 0.189703 1.64059e-19)
(10.8033 0.477295 -3.21892e-19)
(10.5142 0.728081 1.56745e-19)
(10.2597 1.39229 0)
(9.02514 2.12485 0)
(7.54316 1.92972 -1.50437e-19)
(3.969 0.91505 0)
(1.13949 0.489202 -1.48454e-19)
(0.0842709 0.507715 0)
(-0.464566 0.279886 0)
(-0.57714 -0.0233937 0)
(-0.345239 -0.230518 -1.38786e-19)
(0.0891959 -0.288331 0)
(0.522138 -0.261433 1.30007e-19)
(0.845317 -0.22518 0)
(1.08235 -0.205938 0)
(1.28517 -0.17068 -2.38093e-19)
(1.43191 -0.0907212 2.31895e-19)
(1.44721 0.0167986 0)
(1.28293 0.102486 0)
(1.01866 0.143779 0)
(0.776298 0.099924 -6.34042e-19)
(0.721991 0.0442088 0)
(0.770824 -0.0852802 4.01736e-19)
(-0.0860296 0.850568 -5.95226e-23)
(0.696848 -0.646548 4.86707e-19)
(1.65783 -2.43497 0)
(2.33916 -3.37699 -4.76596e-19)
(2.73799 -3.59243 0)
(2.9806 -3.38283 0)
(3.14677 -2.9897 -8.8165e-22)
(3.27183 -2.5623 2.31336e-19)
(3.38084 -2.17039 2.30802e-19)
(3.49111 -1.83735 2.28636e-19)
(3.6132 -1.5599 0)
(3.7494 -1.32284 0)
(3.89692 -1.10644 -2.24937e-19)
(4.05108 -0.895444 -4.46871e-19)
(4.20095 -0.679398 4.43843e-19)
(4.33812 -0.444865 0)
(4.45659 -0.190034 4.3771e-19)
(4.54549 0.088579 -2.16715e-19)
(4.59798 0.400344 0)
(4.62045 0.723207 4.27121e-19)
(4.61666 1.06427 2.10976e-19)
(4.59098 1.43747 -4.19328e-19)
(4.51513 1.79256 -2.06978e-19)
(4.37173 2.08842 0)
(4.20729 2.32233 4.07512e-19)
(3.97036 2.45548 4.03821e-19)
(3.59871 2.35915 0)
(3.13362 1.9714 3.97082e-19)
(2.66448 1.34766 0)
(2.21359 0.740395 3.91315e-19)
(1.79991 0.372264 1.94005e-19)
(1.4589 0.340403 0)
(1.04867 0.643298 0)
(0.53712 1.02242 0)
(0.0314362 1.25783 0)
(-0.449983 1.36128 0)
(-1.01902 1.51961 0)
(-1.7852 1.90923 3.63345e-19)
(-2.68308 2.41362 -5.38902e-19)
(-3.51702 2.72328 0)
(-4.19543 2.75817 0)
(-4.77443 2.67896 0)
(-5.25568 2.54844 -1.25293e-21)
(-5.61852 2.32914 3.43904e-19)
(-5.93414 2.08177 6.8458e-19)
(-6.24235 1.86652 -6.80205e-19)
(-6.5351 1.66804 -3.38514e-19)
(-6.82468 1.48394 3.35258e-19)
(-7.12082 1.32181 1.02556e-21)
(-7.41577 1.17013 3.31908e-19)
(-7.70394 1.02122 0)
(-7.97969 0.870256 3.27288e-19)
(-8.23235 0.707839 9.69668e-22)
(-8.45044 0.525917 0)
(-8.62035 0.317436 0)
(-8.72829 0.0767793 -3.1697e-19)
(-8.7653 -0.198921 0)
(-8.72275 -0.512613 0)
(-8.59334 -0.860445 3.08423e-19)
(-8.37255 -1.23658 6.07416e-19)
(-8.05587 -1.63259 -2.98766e-19)
(-7.63933 -2.03749 0)
(-7.12016 -2.43598 2.91514e-19)
(-6.49895 -2.80617 0)
(-5.78233 -3.11891 2.88301e-19)
(-4.98554 -3.33996 2.82494e-19)
(-4.13466 -3.43835 -5.63981e-19)
(-3.26074 -3.40092 -2.81869e-19)
(-2.38474 -3.24057 0)
(-1.51912 -2.98734 5.56318e-19)
(-0.670252 -2.61738 0)
(0.115232 -2.10742 8.28123e-19)
(0.788145 -1.37838 5.50065e-19)
(1.28029 -0.442734 5.46131e-19)
(1.53571 0.616652 -5.39665e-19)
(1.54829 1.65842 7.94567e-19)
(1.24762 2.48651 0)
(0.657972 2.9049 0)
(-0.098206 2.78587 -5.01195e-19)
(-0.921431 2.15201 -7.39191e-19)
(-1.6061 1.06513 0)
(-2.50948 0.546478 2.39647e-19)
(-4.74748 2.33631 0)
(-7.25141 4.1091 -6.97753e-19)
(-8.61692 4.48816 1.75888e-21)
(-9.00972 4.08452 -3.41344e-21)
(-9.48039 3.42841 4.54939e-19)
(-9.78414 2.74323 0)
(-10.1722 2.22917 -4.50864e-19)
(-10.5737 1.73363 2.54997e-21)
(-10.9263 1.37571 0)
(-11.2811 1.0373 0)
(-11.5267 0.748681 0)
(-11.7353 0.478496 4.36006e-19)
(-11.8234 0.220377 0)
(-11.8477 -0.0221129 0)
(-11.7613 -0.260469 0)
(-11.5955 -0.483847 0)
(-11.3314 -0.697858 0)
(-10.9872 -0.893857 4.02495e-19)
(-10.5586 -1.07461 0)
(-10.0569 -1.236 3.85915e-19)
(-9.48393 -1.37981 3.77902e-19)
(-8.84675 -1.50367 -3.69828e-19)
(-8.15055 -1.60581 0)
(-7.40403 -1.68093 -3.5393e-19)
(-6.62052 -1.72265 0)
(-5.81807 -1.7252 -3.39152e-19)
(-5.01913 -1.68651 3.32449e-19)
(-4.24537 -1.60989 9.79446e-19)
(-3.5139 -1.504 0)
(-2.83765 -1.37863 9.46919e-19)
(-2.22506 -1.24446 3.11152e-19)
(-1.67776 -1.11189 0)
(-1.1922 -0.988121 6.05138e-19)
(-0.762021 -0.877176 5.97449e-19)
(-0.380169 -0.780807 -8.84887e-19)
(-0.037774 -0.699735 0)
(0.271774 -0.632306 -2.87525e-19)
(0.553161 -0.57637 -2.83838e-19)
(0.813901 -0.529775 -8.40879e-19)
(1.05772 -0.491625 0)
(1.28764 -0.458954 0)
(1.50496 -0.429237 0)
(1.70778 -0.399795 -2.66119e-19)
(1.89126 -0.370398 0)
(2.05132 -0.344587 0)
(2.18914 -0.328203 2.55448e-19)
(2.31284 -0.325894 2.51973e-19)
(2.43542 -0.337929 0)
(2.57023 -0.359802 0)
(2.72697 -0.384504 4.82836e-19)
(2.9101 -0.405707 0)
(3.11932 -0.419844 -4.68503e-19)
(3.35098 -0.426749 -4.61479e-19)
(3.59996 -0.429297 0)
(3.86184 -0.432216 0)
(4.13455 -0.440387 4.39885e-19)
(4.41919 -0.457191 -1.17234e-22)
(4.71989 -0.483628 -1.07631e-22)
(5.04261 -0.519042 0)
(5.39303 -0.561889 8.23595e-19)
(5.77684 -0.609499 0)
(6.1979 -0.659298 0)
(6.6556 -0.707452 0)
(7.14914 -0.749109 -3.86008e-19)
(7.66989 -0.778869 0)
(8.2072 -0.787592 7.49848e-19)
(8.7469 -0.778582 3.69527e-19)
(9.2686 -0.742369 0)
(9.76372 -0.680805 3.59846e-19)
(10.2026 -0.603933 0)
(10.5899 -0.483982 0)
(10.8894 -0.370345 1.0379e-18)
(11.1118 -0.191845 -6.82124e-19)
(11.2186 -0.00631444 0)
(11.2144 0.200045 -6.59145e-19)
(11.121 0.575105 3.21732e-19)
(10.9089 0.881257 0)
(10.717 1.51567 0)
(10.5164 2.37263 0)
(10.4002 2.67635 8.9875e-19)
(8.89015 2.65382 0)
(6.34878 2.19379 2.94282e-19)
(4.18639 1.31797 0)
(2.7276 0.558603 0)
(1.80671 -0.0168225 0)
(1.43528 -0.42751 0)
(1.44793 -0.580399 0)
(1.67165 -0.514318 0)
(1.94975 -0.371563 5.02965e-19)
(2.14395 -0.283306 0)
(2.2206 -0.229614 2.37888e-19)
(2.19645 -0.115719 -6.95007e-19)
(2.05847 0.0666639 0)
(1.75387 0.228656 0)
(1.37235 0.2904 4.3211e-19)
(1.026 0.208712 4.22584e-19)
(0.913109 0.0509758 -4.1278e-19)
(0.962989 -0.173333 -4.01636e-19)
(0.35214 -0.16676 -7.35864e-19)
(1.41354 -2.76448 -7.2748e-19)
(2.05198 -3.91973 -4.80902e-19)
(2.2769 -4.01462 -2.39434e-19)
(2.27899 -3.65809 0)
(2.23826 -3.18069 4.72418e-19)
(2.21826 -2.73009 -2.35567e-19)
(2.22394 -2.36663 0)
(2.26025 -2.08765 -2.31516e-19)
(2.32635 -1.87318 0)
(2.42155 -1.69982 4.58218e-19)
(2.53886 -1.54619 0)
(2.67361 -1.38314 2.25639e-19)
(2.81512 -1.19137 4.48275e-19)
(2.94774 -0.972607 -4.4525e-19)
(3.07574 -0.718276 0)
(3.19763 -0.418884 -4.39125e-19)
(3.2978 -0.0746183 0)
(3.36989 0.304374 0)
(3.41669 0.700998 -4.28606e-19)
(3.45206 1.12152 0)
(3.47075 1.56118 -1.07994e-21)
(3.45055 1.97909 0)
(3.38652 2.36591 0)
(3.30705 2.67641 1.05582e-21)
(3.24038 2.76082 -4.04357e-19)
(3.10212 2.66194 -4.01441e-19)
(2.76923 2.50716 -3.97107e-19)
(2.39809 2.06565 0)
(2.11359 1.34531 -7.82727e-19)
(1.74087 0.967295 0)
(1.20245 1.18481 -3.85404e-19)
(0.655197 1.56883 0)
(0.169145 1.82738 0)
(-0.310355 2.01238 3.75182e-19)
(-0.895142 2.26835 0)
(-1.67412 2.71551 -3.67006e-19)
(-2.57194 3.27671 1.0317e-21)
(-3.39435 3.67222 7.1773e-19)
(-4.02172 3.7284 -7.12693e-19)
(-4.49871 3.56099 0)
(-4.89266 3.33359 0)
(-5.20861 3.07019 -3.5014e-19)
(-5.4855 2.78951 0)
(-5.78519 2.54775 -3.42792e-19)
(-6.11061 2.34395 3.40566e-19)
(-6.45289 2.15816 3.38344e-19)
(-6.81577 1.99155 0)
(-7.18789 1.83486 -3.33868e-19)
(-7.55484 1.67401 -3.31598e-19)
(-7.90636 1.5018 6.61295e-19)
(-8.22955 1.30885 -3.2694e-19)
(-8.51193 1.08577 -3.24526e-19)
(-8.74303 0.826472 0)
(-8.9136 0.526389 0)
(-9.01805 0.183624 3.1674e-19)
(-9.05695 -0.200606 0)
(-9.03261 -0.621566 0)
(-8.94406 -1.07451 -6.13819e-19)
(-8.79009 -1.5538 -6.06622e-19)
(-8.56921 -2.05278 0)
(-8.27872 -2.56148 0)
(-7.91609 -3.06397 0)
(-7.47856 -3.53544 0)
(-6.9648 -3.9402 -5.71411e-19)
(-6.37929 -4.23403 5.69568e-19)
(-5.73698 -4.37626 5.6151e-19)
(-5.05849 -4.35082 1.1191e-18)
(-4.36055 -4.18022 0)
(-3.66099 -3.90496 2.11894e-21)
(-2.97981 -3.52328 0)
(-2.32938 -2.95337 -5.50339e-19)
(-1.72641 -2.08993 1.13725e-21)
(-1.22865 -0.926137 -5.45847e-19)
(-0.8862 0.43501 5.4046e-19)
(-0.721176 1.75847 1.10978e-21)
(-0.769998 2.82342 0)
(-1.02802 3.44417 5.10969e-19)
(-1.44243 3.45887 4.99789e-19)
(-1.98625 2.86836 9.83759e-19)
(-2.70651 2.15981 0)
(-4.3923 2.83748 -4.77732e-19)
(-6.62801 4.65095 0)
(-8.03822 5.39096 9.29892e-19)
(-8.33485 4.89255 -4.60517e-19)
(-8.45484 4.34002 4.57601e-19)
(-8.72677 3.70995 -4.55234e-19)
(-8.97252 3.09955 -9.1221e-19)
(-9.30924 2.59898 4.51209e-19)
(-9.66446 2.1164 -4.49273e-19)
(-9.99314 1.71445 0)
(-10.3107 1.32398 8.93353e-19)
(-10.5458 0.964081 0)
(-10.7314 0.613765 8.80057e-19)
(-10.8148 0.2716 -8.7173e-19)
(-10.8273 -0.0595888 -8.61933e-19)
(-10.7405 -0.384308 8.50258e-19)
(-10.5719 -0.693209 8.37401e-19)
(-10.3117 -0.987958 0)
(-9.97251 -1.25982 4.05765e-19)
(-9.55491 -1.50939 0)
(-9.06834 -1.73305 0)
(-8.51534 -1.93283 7.60642e-19)
(-7.8999 -2.10741 0)
(-7.22373 -2.25424 0)
(-6.4912 -2.36564 7.11534e-19)
(-5.71255 -2.43061 0)
(-4.90595 -2.43852 0)