# vtk DataFile Version 2.0
sampleSurface
ASCII
DATASET POLYDATA
POINTS 502 float
-0.0206 0 -0.0005 -0.0190172 0 -0.0005 -0.0190172 0 0.0005 -0.0206 0
0.0005 -0.0174976 0 -0.0005 -0.0174976 0 0.0005 -0.0160387 0 -0.0005
-0.0160387 0 0.0005 -0.0146381 0 -0.0005 -0.0146381 0 0.0005 -0.0132934
0 -0.0005 -0.0132934 0 0.0005 -0.0120025 0 -0.0005 -0.0120025 0
0.0005 -0.0107632 0 -0.0005 -0.0107632 0 0.0005 -0.00957337 0 -0.0005
-0.00957337 0 0.0005 -0.00843108 0 -0.0005 -0.00843108 0 0.0005 -0.00733443
0 -0.0005 -0.00733443 0 0.0005 -0.0062816 0 -0.0005 -0.0062816 0
0.0005 -0.00527083 0 -0.0005 -0.00527083 0 0.0005 -0.00430044 0 -0.0005
-0.00430044 0 0.0005 -0.00336883 0 -0.0005 -0.00336883 0 0.0005 -0.00247443
0 -0.0005 -0.00247443 0 0.0005 -0.00161577 0 -0.0005 -0.00161577 0
0.0005 -0.000791418 0 -0.0005 -0.000791418 0 0.0005 0 0 -0.0005
0 0 0.0005 0 -0.0254 -0.0005 0 -0.0254 0.0005 0
-0.0242711 0.0005 0 -0.0242711 -0.0005 0 -0.0231422 0.0005 0 -0.0231422
-0.0005 0 -0.0220133 0.0005 0 -0.0220133 -0.0005 0 -0.0208844 0.0005
0 -0.0208844 -0.0005 0 -0.0197556 0.0005 0 -0.0197556 -0.0005 0
-0.0186267 0.0005 0 -0.0186267 -0.0005 0 -0.0174978 0.0005 0 -0.0174978
-0.0005 0 -0.0163689 0.0005 0 -0.0163689 -0.0005 0 -0.01524 0.0005
0 -0.01524 -0.0005 0 -0.0141111 0.0005 0 -0.0141111 -0.0005 0
-0.0129822 0.0005 0 -0.0129822 -0.0005 0 -0.0118533 0.0005 0 -0.0118533
-0.0005 0 -0.0107244 0.0005 0 -0.0107244 -0.0005 0 -0.00959556 0.0005
0 -0.00959556 -0.0005 0 -0.00846667 0.0005 0 -0.00846667 -0.0005 0
-0.00726604 0.0005 0 -0.00726604 -0.0005 0 -0.00618989 0.0005 0 -0.00618989
-0.0005 0 -0.00522531 0.0005 0 -0.00522531 -0.0005 0 -0.00436073 0.0005
0 -0.00436073 -0.0005 0 -0.00358579 0.0005 0 -0.00358579 -0.0005 0
-0.00289118 0.0005 0 -0.00289118 -0.0005 0 -0.0022686 0.0005 0 -0.0022686
-0.0005 0 -0.00171055 0.0005 0 -0.00171055 -0.0005 0 -0.00121037 0.0005
0 -0.00121037 -0.0005 0 -0.000762037 0.0005 0 -0.000762037 -0.0005 0
-0.000360188 0.0005 0 -0.000360188 -0.0005 0.000528387 -0.0254 -0.0005 0.000528387 -0.0254
0.0005 0.00106088 -0.0254 -0.0005 0.00106088 -0.0254 0.0005 0.00159752 -0.0254 -0.0005
0.00159752 -0.0254 0.0005 0.00213833 -0.0254 -0.0005 0.00213833 -0.0254 0.0005 0.00268334
-0.0254 -0.0005 0.00268334 -0.0254 0.0005 0.00323259 -0.0254 -0.0005 0.00323259 -0.0254
0.0005 0.00378611 -0.0254 -0.0005 0.00378611 -0.0254 0.0005 0.00434393 -0.0254 -0.0005
0.00434393 -0.0254 0.0005 0.00490609 -0.0254 -0.0005 0.00490609 -0.0254 0.0005 0.00547262
-0.0254 -0.0005 0.00547262 -0.0254 0.0005 0.00604356 -0.0254 -0.0005 0.00604356 -0.0254
0.0005 0.00661893 -0.0254 -0.0005 0.00661893 -0.0254 0.0005 0.00719878 -0.0254 -0.0005
0.00719878 -0.0254 0.0005 0.00778313 -0.0254 -0.0005 0.00778313 -0.0254 0.0005 0.00837203
-0.0254 -0.0005 0.00837203 -0.0254 0.0005 0.00896551 -0.0254 -0.0005 0.00896551 -0.0254
0.0005 0.0095636 -0.0254 -0.0005 0.0095636 -0.0254 0.0005 0.0101663 -0.0254 -0.0005
0.0101663 -0.0254 0.0005 0.0107738 -0.0254 -0.0005 0.0107738 -0.0254 0.0005 0.0113859
-0.0254 -0.0005 0.0113859 -0.0254 0.0005 0.0120028 -0.0254 -0.0005 0.0120028 -0.0254
0.0005 0.0126245 -0.0254 -0.0005 0.0126245 -0.0254 0.0005 0.0132511 -0.0254 -0.0005
0.0132511 -0.0254 0.0005 0.0138825 -0.0254 -0.0005 0.0138825 -0.0254 0.0005 0.0145188
-0.0254 -0.0005 0.0145188 -0.0254 0.0005 0.0151601 -0.0254 -0.0005 0.0151601 -0.0254
0.0005 0.0158063 -0.0254 -0.0005 0.0158063 -0.0254 0.0005 0.0164576 -0.0254 -0.0005
0.0164576 -0.0254 0.0005 0.0171139 -0.0254 -0.0005 0.0171139 -0.0254 0.0005 0.0177754
-0.0254 -0.0005 0.0177754 -0.0254 0.0005 0.018442 -0.0254 -0.0005 0.018442 -0.0254
0.0005 0.0191137 -0.0254 -0.0005 0.0191137 -0.0254 0.0005 0.0197907 -0.0254 -0.0005
0.0197907 -0.0254 0.0005 0.020473 -0.0254 -0.0005 0.020473 -0.0254 0.0005 0.0211606
-0.0254 -0.0005 0.0211606 -0.0254 0.0005 0.0218535 -0.0254 -0.0005 0.0218535 -0.0254
0.0005 0.0225517 -0.0254 -0.0005 0.0225517 -0.0254 0.0005 0.0232555 -0.0254 -0.0005
0.0232555 -0.0254 0.0005 0.0239647 -0.0254 -0.0005 0.0239647 -0.0254 0.0005 0.0246794
-0.0254 -0.0005 0.0246794 -0.0254 0.0005 0.0253996 -0.0254 -0.0005 0.0253996 -0.0254
0.0005 0.0261255 -0.0254 -0.0005 0.0261255 -0.0254 0.0005 0.026857 -0.0254 -0.0005
0.026857 -0.0254 0.0005 0.0275942 -0.0254 -0.0005 0.0275942 -0.0254 0.0005 0.0283371
-0.0254 -0.0005 0.0283371 -0.0254 0.0005 0.0290858 -0.0254 -0.0005 0.0290858 -0.0254
0.0005 0.0298403 -0.0254 -0.0005 0.0298403 -0.0254 0.0005 0.0306007 -0.0254 -0.0005
0.0306007 -0.0254 0.0005 0.031367 -0.0254 -0.0005 0.031367 -0.0254 0.0005 0.0321393
-0.0254 -0.0005 0.0321393 -0.0254 0.0005 0.0329175 -0.0254 -0.0005 0.0329175 -0.0254
0.0005 0.0337019 -0.0254 -0.0005 0.0337019 -0.0254 0.0005 0.0344923 -0.0254 -0.0005
0.0344923 -0.0254 0.0005 0.0352888 -0.0254 -0.0005 0.0352888 -0.0254 0.0005 0.0360916
-0.0254 -0.0005 0.0360916 -0.0254 0.0005 0.0369006 -0.0254 -0.0005 0.0369006 -0.0254
0.0005 0.0377158 -0.0254 -0.0005 0.0377158 -0.0254 0.0005 0.0385375 -0.0254 -0.0005
0.0385375 -0.0254 0.0005 0.0393655 -0.0254 -0.0005 0.0393655 -0.0254 0.0005 0.0401999
-0.0254 -0.0005 0.0401999 -0.0254 0.0005 0.0410408 -0.0254 -0.0005 0.0410408 -0.0254
0.0005 0.0418883 -0.0254 -0.0005 0.0418883 -0.0254 0.0005 0.0427424 -0.0254 -0.0005
0.0427424 -0.0254 0.0005 0.0436031 -0.0254 -0.0005 0.0436031 -0.0254 0.0005 0.0444704
-0.0254 -0.0005 0.0444704 -0.0254 0.0005 0.0453446 -0.0254 -0.0005 0.0453446 -0.0254
0.0005 0.0462255 -0.0254 -0.0005 0.0462255 -0.0254 0.0005 0.0471133 -0.0254 -0.0005
0.0471133 -0.0254 0.0005 0.048008 -0.0254 -0.0005 0.048008 -0.0254 0.0005 0.0489096
-0.0254 -0.0005 0.0489096 -0.0254 0.0005 0.0498183 -0.0254 -0.0005 0.0498183 -0.0254
0.0005 0.050734 -0.0254 -0.0005 0.050734 -0.0254 0.0005 0.0516568 -0.0254 -0.0005
0.0516568 -0.0254 0.0005 0.0525868 -0.0254 -0.0005 0.0525868 -0.0254 0.0005 0.053524
-0.0254 -0.0005 0.053524 -0.0254 0.0005 0.0544686 -0.0254 -0.0005 0.0544686 -0.0254
0.0005 0.0554204 -0.0254 -0.0005 0.0554204 -0.0254 0.0005 0.0563797 -0.0254 -0.0005
0.0563797 -0.0254 0.0005 0.0573464 -0.0254 -0.0005 0.0573464 -0.0254 0.0005 0.0583206
-0.0254 -0.0005 0.0583206 -0.0254 0.0005 0.0593025 -0.0254 -0.0005 0.0593025 -0.0254
0.0005 0.0602919 -0.0254 -0.0005 0.0602919 -0.0254 0.0005 0.0612891 -0.0254 -0.0005
0.0612891 -0.0254 0.0005 0.0622939 -0.0254 -0.0005 0.0622939 -0.0254 0.0005 0.0633067
-0.0254 -0.0005 0.0633067 -0.0254 0.0005 0.0643272 -0.0254 -0.0005 0.0643272 -0.0254
0.0005 0.0653557 -0.0254 -0.0005 0.0653557 -0.0254 0.0005 0.0663923 -0.0254 -0.0005
0.0663923 -0.0254 0.0005 0.0674368 -0.0254 -0.0005 0.0674368 -0.0254 0.0005 0.0684895
-0.0254 -0.0005 0.0684895 -0.0254 0.0005 0.0695504 -0.0254 -0.0005 0.0695504 -0.0254
0.0005 0.0706195 -0.0254 -0.0005 0.0706195 -0.0254 0.0005 0.0716969 -0.0254 -0.0005
0.0716969 -0.0254 0.0005 0.0727828 -0.0254 -0.0005 0.0727828 -0.0254 0.0005 0.073877
-0.0254 -0.0005 0.073877 -0.0254 0.0005 0.0749798 -0.0254 -0.0005 0.0749798 -0.0254
0.0005 0.0760911 -0.0254 -0.0005 0.0760911 -0.0254 0.0005 0.0772111 -0.0254 -0.0005
0.0772111 -0.0254 0.0005 0.0783398 -0.0254 -0.0005 0.0783398 -0.0254 0.0005 0.0794772
-0.0254 -0.0005 0.0794772 -0.0254 0.0005 0.0806235 -0.0254 -0.0005 0.0806235 -0.0254
0.0005 0.0817787 -0.0254 -0.0005 0.0817787 -0.0254 0.0005 0.0829429 -0.0254 -0.0005
0.0829429 -0.0254 0.0005 0.0841162 -0.0254 -0.0005 0.0841162 -0.0254 0.0005 0.0852985
-0.0254 -0.0005 0.0852985 -0.0254 0.0005 0.0864901 -0.0254 -0.0005 0.0864901 -0.0254
0.0005 0.0876909 -0.0254 -0.0005 0.0876909 -0.0254 0.0005 0.0889011 -0.0254 -0.0005
0.0889011 -0.0254 0.0005 0.0901207 -0.0254 -0.0005 0.0901207 -0.0254 0.0005 0.0913497
-0.0254 -0.0005 0.0913497 -0.0254 0.0005 0.0925883 -0.0254 -0.0005 0.0925883 -0.0254
0.0005 0.0938366 -0.0254 -0.0005 0.0938366 -0.0254 0.0005 0.0950945 -0.0254 -0.0005
0.0950945 -0.0254 0.0005 0.0963622 -0.0254 -0.0005 0.0963622 -0.0254 0.0005 0.0976398
-0.0254 -0.0005 0.0976398 -0.0254 0.0005 0.0989273 -0.0254 -0.0005 0.0989273 -0.0254
0.0005 0.100225 -0.0254 -0.0005 0.100225 -0.0254 0.0005 0.101532 -0.0254 -0.0005
0.101532 -0.0254 0.0005 0.10285 -0.0254 -0.0005 0.10285 -0.0254 0.0005 0.104178
-0.0254 -0.0005 0.104178 -0.0254 0.0005 0.105517 -0.0254 -0.0005 0.105517 -0.0254
0.0005 0.106865 -0.0254 -0.0005 0.106865 -0.0254 0.0005 0.108225 -0.0254 -0.0005
0.108225 -0.0254 0.0005 0.109594 -0.0254 -0.0005 0.109594 -0.0254 0.0005 0.110975
-0.0254 -0.0005 0.110975 -0.0254 0.0005 0.112366 -0.0254 -0.0005 0.112366 -0.0254
0.0005 0.113768 -0.0254 -0.0005 0.113768 -0.0254 0.0005 0.115181 -0.0254 -0.0005
0.115181 -0.0254 0.0005 0.116605 -0.0254 -0.0005 0.116605 -0.0254 0.0005 0.11804
-0.0254 -0.0005 0.11804 -0.0254 0.0005 0.119486 -0.0254 -0.0005 0.119486 -0.0254
0.0005 0.120943 -0.0254 -0.0005 0.120943 -0.0254 0.0005 0.122412 -0.0254 -0.0005
0.122412 -0.0254 0.0005 0.123892 -0.0254 -0.0005 0.123892 -0.0254 0.0005 0.125384
-0.0254 -0.0005 0.125384 -0.0254 0.0005 0.126887 -0.0254 -0.0005 0.126887 -0.0254
0.0005 0.128402 -0.0254 -0.0005 0.128402 -0.0254 0.0005 0.129928 -0.0254 -0.0005
0.129928 -0.0254 0.0005 0.131467 -0.0254 -0.0005 0.131467 -0.0254 0.0005 0.133017
-0.0254 -0.0005 0.133017 -0.0254 0.0005 0.13458 -0.0254 -0.0005 0.13458 -0.0254
0.0005 0.136155 -0.0254 -0.0005 0.136155 -0.0254 0.0005 0.137742 -0.0254 -0.0005
0.137742 -0.0254 0.0005 0.139341 -0.0254 -0.0005 0.139341 -0.0254 0.0005 0.140953
-0.0254 -0.0005 0.140953 -0.0254 0.0005 0.142577 -0.0254 -0.0005 0.142577 -0.0254
0.0005 0.144214 -0.0254 -0.0005 0.144214 -0.0254 0.0005 0.145863 -0.0254 -0.0005
0.145863 -0.0254 0.0005 0.147526 -0.0254 -0.0005 0.147526 -0.0254 0.0005 0.149201
-0.0254 -0.0005 0.149201 -0.0254 0.0005 0.15089 -0.0254 -0.0005 0.15089 -0.0254
0.0005 0.152591 -0.0254 -0.0005 0.152591 -0.0254 0.0005 0.154306 -0.0254 -0.0005
0.154306 -0.0254 0.0005 0.156034 -0.0254 -0.0005 0.156034 -0.0254 0.0005 0.157775
-0.0254 -0.0005 0.157775 -0.0254 0.0005 0.159531 -0.0254 -0.0005 0.159531 -0.0254
0.0005 0.161299 -0.0254 -0.0005 0.161299 -0.0254 0.0005 0.163082 -0.0254 -0.0005
0.163082 -0.0254 0.0005 0.164878 -0.0254 -0.0005 0.164878 -0.0254 0.0005 0.166688
-0.0254 -0.0005 0.166688 -0.0254 0.0005 0.168513 -0.0254 -0.0005 0.168513 -0.0254
0.0005 0.170351 -0.0254 -0.0005 0.170351 -0.0254 0.0005 0.172204 -0.0254 -0.0005
0.172204 -0.0254 0.0005 0.174071 -0.0254 -0.0005 0.174071 -0.0254 0.0005 0.175953
-0.0254 -0.0005 0.175953 -0.0254 0.0005 0.177849 -0.0254 -0.0005 0.177849 -0.0254
0.0005 0.17976 -0.0254 -0.0005 0.17976 -0.0254 0.0005 0.181686 -0.0254 -0.0005
0.181686 -0.0254 0.0005 0.183627 -0.0254 -0.0005 0.183627 -0.0254 0.0005 0.185583
-0.0254 -0.0005 0.185583 -0.0254 0.0005 0.187555 -0.0254 -0.0005 0.187555 -0.0254
0.0005 0.189541 -0.0254 -0.0005 0.189541 -0.0254 0.0005 0.191543 -0.0254 -0.0005
0.191543 -0.0254 0.0005 0.193561 -0.0254 -0.0005 0.193561 -0.0254 0.0005 0.195594
-0.0254 -0.0005 0.195594 -0.0254 0.0005 0.197643 -0.0254 -0.0005 0.197643 -0.0254
0.0005 0.199708 -0.0254 -0.0005 0.199708 -0.0254 0.0005 0.201789 -0.0254 -0.0005
0.201789 -0.0254 0.0005 0.203886 -0.0254 -0.0005 0.203886 -0.0254 0.0005 0.206
-0.0254 -0.0005 0.206 -0.0254 0.0005 0.208047 -0.0251856 -0.0005 0.208047 -0.0251856
0.0005 0.210173 -0.0249628 -0.0005 0.210173 -0.0249628 0.0005 0.212382 -0.0247314 -0.0005
0.212382 -0.0247314 0.0005 0.214677 -0.024491 -0.0005 0.214677 -0.024491 0.0005 0.217061
-0.0242412 -0.0005 0.217061 -0.0242412 0.0005 0.219538 -0.0239817 -0.0005 0.219538 -0.0239817
0.0005 0.222112 -0.0237121 -0.0005 0.222112 -0.0237121 0.0005 0.224785 -0.023432 -0.0005
0.224785 -0.023432 0.0005 0.227563 -0.023141 -0.0005 0.227563 -0.023141 0.0005 0.230449
-0.0228387 -0.0005 0.230449 -0.0228387 0.0005 0.233447 -0.0225246 -0.0005 0.233447 -0.0225246
0.0005 0.236562 -0.0221983 -0.0005 0.236562 -0.0221983 0.0005 0.239797 -0.0218593 -0.0005
0.239797 -0.0218593 0.0005 0.243159 -0.0215071 -0.0005 0.243159 -0.0215071 0.0005 0.246652
-0.0211412 -0.0005 0.246652 -0.0211412 0.0005 0.250281 -0.0207611 -0.0005 0.250281 -0.0207611
0.0005 0.254051 -0.0203661 -0.0005 0.254051 -0.0203661 0.0005 0.257967 -0.0199558 -0.0005
0.257967 -0.0199558 0.0005 0.262036 -0.0195295 -0.0005 0.262036 -0.0195295 0.0005 0.266264
-0.0190867 -0.0005 0.266264 -0.0190867 0.0005 0.270655 -0.0186266 -0.0005 0.270655 -0.0186266
0.0005 0.275218 -0.0181486 -0.0005 0.275218 -0.0181486 0.0005 0.279959 -0.017652 -0.0005
0.279959 -0.017652 0.0005 0.284883 -0.017136 -0.0005 0.284883 -0.017136 0.0005 0.29
-0.0166 -0.0005 0.29 -0.0166 0.0005 
POLYGONS 250 1250
4 0 1 2 3 4 1 4 5 2 4
4 6 7 5 4 6 8 9 7 4
8 10 11 9 4 10 12 13 11 4
12 14 15 13 4 14 16 17 15 4
16 18 19 17 4 18 20 21 19 4
20 22 23 21 4 22 24 25 23 4
24 26 27 25 4 26 28 29 27 4
28 30 31 29 4 30 32 33 31 4
32 34 35 33 4 34 36 37 35 4
38 39 40 41 4 41 40 42 43 4
43 42 44 45 4 45 44 46 47 4
47 46 48 49 4 49 48 50 51 4
51 50 52 53 4 53 52 54 55 4
55 54 56 57 4 57 56 58 59 4
59 58 60 61 4 61 60 62 63 4
63 62 64 65 4 65 64 66 67 4
67 66 68 69 4 69 68 70 71 4
71 70 72 73 4 73 72 74 75 4
75 74 76 77 4 77 76 78 79 4
79 78 80 81 4 81 80 82 83 4
83 82 84 85 4 85 84 86 87 4
87 86 88 89 4 89 88 90 91 4
91 90 37 36 4 38 92 93 39 4
92 94 95 93 4 94 96 97 95 4
96 98 99 97 4 98 100 101 99 4
100 102 103 101 4 102 104 105 103 4
104 106 107 105 4 106 108 109 107 4
108 110 111 109 4 110 112 113 111 4
112 114 115 113 4 114 116 117 115 4
116 118 119 117 4 118 120 121 119 4
120 122 123 121 4 122 124 125 123 4
124 126 127 125 4 126 128 129 127 4
128 130 131 129 4 130 132 133 131 4
132 134 135 133 4 134 136 137 135 4
136 138 139 137 4 138 140 141 139 4
140 142 143 141 4 142 144 145 143 4
144 146 147 145 4 146 148 149 147 4
148 150 151 149 4 150 152 153 151 4
152 154 155 153 4 154 156 157 155 4
156 158 159 157 4 158 160 161 159 4
160 162 163 161 4 162 164 165 163 4
164 166 167 165 4 166 168 169 167 4
168 170 171 169 4 170 172 173 171 4
172 174 175 173 4 174 176 177 175 4
176 178 179 177 4 178 180 181 179 4
180 182 183 181 4 182 184 185 183 4
184 186 187 185 4 186 188 189 187 4
188 190 191 189 4 190 192 193 191 4
192 194 195 193 4 194 196 197 195 4
196 198 199 197 4 198 200 201 199 4
200 202 203 201 4 202 204 205 203 4
204 206 207 205 4 206 208 209 207 4
208 210 211 209 4 210 212 213 211 4
212 214 215 213 4 214 216 217 215 4
216 218 219 217 4 218 220 221 219 4
220 222 223 221 4 222 224 225 223 4
224 226 227 225 4 226 228 229 227 4
228 230 231 229 4 230 232 233 231 4
232 234 235 233 4 234 236 237 235 4
236 238 239 237 4 238 240 241 239 4
240 242 243 241 4 242 244 245 243 4
244 246 247 245 4 246 248 249 247 4
248 250 251 249 4 250 252 253 251 4
252 254 255 253 4 254 256 257 255 4
256 258 259 257 4 258 260 261 259 4
260 262 263 261 4 262 264 265 263 4
264 266 267 265 4 266 268 269 267 4
268 270 271 269 4 270 272 273 271 4
272 274 275 273 4 274 276 277 275 4
276 278 279 277 4 278 280 281 279 4
280 282 283 281 4 282 284 285 283 4
284 286 287 285 4 286 288 289 287 4
288 290 291 289 4 290 292 293 291 4
292 294 295 293 4 294 296 297 295 4
296 298 299 297 4 298 300 301 299 4
300 302 303 301 4 302 304 305 303 4
304 306 307 305 4 306 308 309 307 4
308 310 311 309 4 310 312 313 311 4
312 314 315 313 4 314 316 317 315 4
316 318 319 317 4 318 320 321 319 4
320 322 323 321 4 322 324 325 323 4
324 326 327 325 4 326 328 329 327 4
328 330 331 329 4 330 332 333 331 4
332 334 335 333 4 334 336 337 335 4
336 338 339 337 4 338 340 341 339 4
340 342 343 341 4 342 344 345 343 4
344 346 347 345 4 346 348 349 347 4
348 350 351 349 4 350 352 353 351 4
352 354 355 353 4 354 356 357 355 4
356 358 359 357 4 358 360 361 359 4
360 362 363 361 4 362 364 365 363 4
364 366 367 365 4 366 368 369 367 4
368 370 371 369 4 370 372 373 371 4
372 374 375 373 4 374 376 377 375 4
376 378 379 377 4 378 380 381 379 4
380 382 383 381 4 382 384 385 383 4
384 386 387 385 4 386 388 389 387 4
388 390 391 389 4 390 392 393 391 4
392 394 395 393 4 394 396 397 395 4
396 398 399 397 4 398 400 401 399 4
400 402 403 401 4 402 404 405 403 4
404 406 407 405 4 406 408 409 407 4
408 410 411 409 4 410 412 413 411 4
412 414 415 413 4 414 416 417 415 4
416 418 419 417 4 418 420 421 419 4
420 422 423 421 4 422 424 425 423 4
424 426 427 425 4 426 428 429 427 4
428 430 431 429 4 430 432 433 431 4
432 434 435 433 4 434 436 437 435 4
436 438 439 437 4 438 440 441 439 4
440 442 443 441 4 442 444 445 443 4
444 446 447 445 4 446 448 449 447 4
448 450 451 449 4 450 452 453 451 4
452 454 455 453 4 454 456 457 455 4
456 458 459 457 4 458 460 461 459 4
460 462 463 461 4 462 464 465 463 4
464 466 467 465 4 466 468 469 467 4
468 470 471 469 4 470 472 473 471 4
472 474 475 473 4 474 476 477 475 4
476 478 479 477 4 478 480 481 479 4
480 482 483 481 4 482 484 485 483 4
484 486 487 485 4 486 488 489 487 4
488 490 491 489 4 490 492 493 491 4
492 494 495 493 4 494 496 497 495 4
496 498 499 497 4 498 500 501 499 
POINT_DATA 502
FIELD attributes 1
U 3 502 float
3.24263 -0.0375802 -0.0342601 1.62845 -0.0183778 -0.0168834 1.62845 -0.0183778 -0.0168834 3.24263 -0.0375802
-0.0342601 0.0589355 0.000289 0 0.0589355 0.000289 0 0.0567761 0.000252816 0
0.0567761 0.000252816 0 0.0547638 0.000220974 0 0.0547638 0.000220974 0 0.0528426
0.000259987 0 0.0528426 0.000259987 0 0.0511181 0.000288111 0 0.0511181 0.000288111
0 0.0496635 0.000278117 0 0.0496635 0.000278117 0 0.0483486 0.000263409 0
0.0483486 0.000263409 0 0.0469953 0.000270796 0 0.0469953 0.000270796 0 0.0454942
0.000291663 0 0.0454942 0.000291663 0 0.0439308 0.000298857 0 0.0439308 0.000298857
0 0.0424012 0.000282032 0 0.0424012 0.000282032 0 0.0411102 0.000250892 0
0.0411102 0.000250892 0 0.0399172 0.000225932 0 0.0399172 0.000225932 0 0.0390866
0.000216786 0 0.0390866 0.000216786 0 0.0380856 0.000280867 0 0.0380856 0.000280867
0 0.0371015 0.000340784 0 0.0371015 0.000340784 0 0.0161723 0.000541257 0
0.0161723 0.000541257 0 2.0159e-06 -9.26065e-05 -9.83722e-23 2.0159e-06 -9.26065e-05 -9.83722e-23 -7.99641e-05
0.000113012 2.65939e-22 -7.99641e-05 0.000113012 2.65939e-22 -0.000189267 0.000896209 3.15208e-22 -0.000189267 0.000896209
3.15208e-22 -0.000208564 0.00201832 -6.30219e-22 -0.000208564 0.00201832 -6.30219e-22 -0.000183411 0.00305986 -2.1014e-22
-0.000183411 0.00305986 -2.1014e-22 -0.0001481 0.00397922 4.20163e-22 -0.0001481 0.00397922 4.20163e-22 -0.000113145
0.00474692 0 -0.000113145 0.00474692 0 -8.05442e-05 0.0053667 8.44634e-22 -8.05442e-05 0.0053667
8.44634e-22 -4.80311e-05 0.00584799 1.11473e-25 -4.80311e-05 0.00584799 1.11473e-25 -1.26112e-05 0.00618731 -8.44522e-22
-1.26112e-05 0.00618731 -8.44522e-22 2.90515e-05 0.00636979 8.48932e-22 2.90515e-05 0.00636979 8.48932e-22 7.91302e-05
0.00636557 -2.59e-27 7.91302e-05 0.00636557 -2.59e-27 0.000139999 0.006142 -8.48934e-22 0.000139999 0.006142
-8.48934e-22 0.000216805 0.00565668 -8.53694e-22 0.000216805 0.00565668 -8.53694e-22 0.000313158 0.00485076 2.20607e-25
0.000313158 0.00485076 2.20607e-25 0.000431569 0.00362526 8.69049e-22 0.000431569 0.00362526 8.69049e-22 0.00053412
0.00180019 0 0.00053412 0.00180019 0 0.000349401 -0.000294513 0 0.000349401 -0.000294513
0 5.10807e-06 -0.00172569 0 5.10807e-06 -0.00172569 0 0.000182574 -0.00242857 0
0.000182574 -0.00242857 0 0.000614142 -0.00364591 0 0.000614142 -0.00364591 0 0.000394386
-0.00506155 0 0.000394386 -0.00506155 0 -0.000268785 -0.0052587 0 -0.000268785 -0.0052587
0 -0.000894783 -0.00425441 0 -0.000894783 -0.00425441 0 -0.0015517 -0.00281467 0
-0.0015517 -0.00281467 0 -0.00141929 -0.000325022 0 -0.00141929 -0.000325022 0 -0.00104256
0.00104308 0 -0.00104256 0.00104308 0 -1.08787e-05 -8.87549e-05 -4.10699e-25 -1.08787e-05 -8.87549e-05
-4.10699e-25 -3.95268e-05 -7.75452e-05 4.89008e-23 -3.95268e-05 -7.75452e-05 4.89008e-23 -7.87576e-05 -5.94488e-05 0
-7.87576e-05 -5.94488e-05 0 -0.000135802 -3.48571e-05 0 -0.000135802 -3.48571e-05 0 -0.000214279
-4.95295e-06 -4.74814e-23 -0.000214279 -4.95295e-06 -4.74814e-23 -0.000316471 2.84144e-05 -4.75667e-23 -0.000316471 2.84144e-05
-4.75667e-23 -0.000443879 6.35019e-05 0 -0.000443879 6.35019e-05 0 -0.000597108 9.89611e-05 0
-0.000597108 9.89611e-05 0 -0.000776355 0.000133993 0 -0.000776355 0.000133993 0 -0.000981683
0.000168288 4.58457e-23 -0.000981683 0.000168288 4.58457e-23 -0.00121306 0.000201796 4.59331e-23 -0.00121306 0.000201796
4.59331e-23 -0.00147047 0.000234562 0 -0.00147047 0.000234562 0 -0.00175387 0.0002666 0
-0.00175387 0.0002666 0 -0.00206315 0.000297741 0 -0.00206315 0.000297741 0 -0.00239808
0.000327618 4.42749e-23 -0.00239808 0.000327618 4.42749e-23 -0.00275824 0.000355764 4.43643e-23 -0.00275824 0.000355764
4.43643e-23 -0.00314298 0.00038175 0 -0.00314298 0.00038175 0 -0.00355118 0.000405277 0
-0.00355118 0.000405277 0 -0.00398102 0.000426055 0 -0.00398102 0.000426055 0 -0.00443007
0.000443684 0 -0.00443007 0.000443684 0 -0.00489566 0.000457784 0 -0.00489566 0.000457784
0 -0.00537495 0.000468059 0 -0.00537495 0.000468059 0 -0.00586476 0.000474239 4.20274e-23
-0.00586476 0.000474239 4.20274e-23 -0.00636158 0.000476071 3.45878e-25 -0.00636158 0.000476071 3.45878e-25 -0.00686148
0.000473346 -3.41537e-25 -0.00686148 0.000473346 -3.41537e-25 -0.00736008 0.000465864 8.29017e-23 -0.00736008 0.000465864
8.29017e-23 -0.00785251 0.000453405 4.13759e-23 -0.00785251 0.000453405 4.13759e-23 -0.00833333 0.000435747 0
-0.00833333 0.000435747 0 -0.00879661 0.000412688 -4.0551e-23 -0.00879661 0.000412688 -4.0551e-23 -0.00923587
0.000384093 -8.09472e-23 -0.00923587 0.000384093 -8.09472e-23 -0.00964427 0.00034995 -4.03967e-23 -0.00964427 0.00034995
-4.03967e-23 -0.0100147 0.000310398 0 -0.0100147 0.000310398 0 -0.0103401 0.000265734 -3.94876e-23
-0.0103401 0.000265734 -3.94876e-23 -0.0106135 0.000216488 -3.95848e-23 -0.0106135 0.000216488 -3.95848e-23 -0.0108288
0.000163557 0 -0.0108288 0.000163557 0 -0.0109797 0.000108243 3.85212e-23 -0.0109797 0.000108243
3.85212e-23 -0.0110617 5.1821e-05 3.86191e-23 -0.0110617 5.1821e-05 3.86191e-23 -0.0110712 -4.62999e-06 3.77605e-23
-0.0110712 -4.62999e-06 3.77605e-23 -0.0110083 -5.99073e-05 1.12544e-22 -0.0110083 -5.99073e-05 1.12544e-22 -0.0108743
-0.000113318 7.48814e-23 -0.0108743 -0.000113318 7.48814e-23 -0.0106699 -0.000164454 0 -0.0106699 -0.000164454
0 -0.0103976 -0.000212524 0 -0.0103976 -0.000212524 0 -0.0100612 -0.000256775 0
-0.0100612 -0.000256775 0 -0.00966548 -0.000296547 0 -0.00966548 -0.000296547 0 -0.00921597
-0.000331282 6.89565e-23 -0.00921597 -0.000331282 6.89565e-23 -0.00871908 -0.000360613 1.37098e-22 -0.00871908 -0.000360613
1.37098e-22 -0.00818167 -0.000384371 1.35087e-22 -0.00818167 -0.000384371 1.35087e-22 -0.00761091 -0.000402579 6.71375e-23
-0.00761091 -0.000402579 6.71375e-23 -0.00701393 -0.000415414 -6.49878e-23 -0.00701393 -0.000415414 -6.49878e-23 -0.00639761
-0.000423163 -6.51761e-23 -0.00639761 -0.000423163 -6.51761e-23 -0.00576853 -0.000426152 6.31219e-23 -0.00576853 -0.000426152
6.31219e-23 -0.00513285 -0.000424732 1.25541e-22 -0.00513285 -0.000424732 1.25541e-22 -0.00449619 -0.000419464 6.24187e-23
-0.00449619 -0.000419464 6.24187e-23 -0.00386349 -0.00041104 0 -0.00386349 -0.00041104 0 -0.00323912
-0.000399935 0 -0.00323912 -0.000399935 0 -0.00262678 -0.000386576 5.90031e-23 -0.00262678 -0.000386576
5.90031e-23 -0.00202937 -0.000371477 5.91859e-23 -0.00202937 -0.000371477 5.91859e-23 -0.00145001 -0.000355327 0
-0.00145001 -0.000355327 0 -0.000890663 -0.000338292 0 -0.000890663 -0.000338292 0 -0.000353469
-0.000320595 0 -0.000353469 -0.000320595 0 0.000159396 -0.000303 0 0.000159396 -0.000303
0 0.000649767 -0.000285587 0 0.000649767 -0.000285587 0 0.00111871 -0.000268329 0
0.00111871 -0.000268329 0 0.0015652 -0.000251441 0 0.0015652 -0.000251441 0 0.00198934
-0.000235051 -5.3094e-23 0.00198934 -0.000235051 -5.3094e-23 0.00239145 -0.000219243 -5.32724e-23 0.00239145 -0.000219243
-5.32724e-23 0.00277204 -0.000204073 0 0.00277204 -0.000204073 0 0.00313174 -0.000189573 5.14141e-23
0.00313174 -0.000189573 5.14141e-23 0.00347123 -0.000175763 1.02473e-22 0.00347123 -0.000175763 1.02473e-22 0.00379123
-0.000162648 5.10581e-23 0.00379123 -0.000162648 5.10581e-23 0.00409251 -0.000150226 -4.98477e-23 0.00409251 -0.000150226
-4.98477e-23 0.00437584 -0.000138489 -6.79029e-25 0.00437584 -0.000138489 -6.79029e-25 0.00464199 -0.000127424 4.95211e-23
0.00464199 -0.000127424 4.95211e-23 0.00489174 -0.000117015 -4.83633e-23 0.00489174 -0.000117015 -4.83633e-23 0.00512585
-0.000107243 -4.85388e-23 0.00512585 -0.000107243 -4.85388e-23 0.00534507 -9.80888e-05 0 0.00534507 -9.80888e-05
0 0.00555014 -8.95304e-05 4.69391e-23 0.00555014 -8.95304e-05 4.69391e-23 0.0057418 -8.15455e-05 4.71136e-23
0.0057418 -8.15455e-05 4.71136e-23 0.00592073 -7.41113e-05 -4.60154e-23 0.00592073 -7.41113e-05 -4.60154e-23 0.00608764
-6.72043e-05 -4.61893e-23 0.00608764 -6.72043e-05 -4.61893e-23 0.00624319 -6.08008e-05 4.51086e-23 0.00624319 -6.08008e-05
4.51086e-23 0.00638802 -5.48771e-05 8.99425e-23 0.00638802 -5.48771e-05 8.99425e-23 0.00652276 -4.94093e-05 8.90499e-23
0.00652276 -4.94093e-05 8.90499e-23 0.006648 -4.43738e-05 1.31939e-22 0.006648 -4.43738e-05 1.31939e-22 0.00676434
-3.9747e-05 1.22049e-24 0.00676434 -3.9747e-05 1.22049e-24 0.00687232 -3.55055e-05 -8.70167e-23 0.00687232 -3.55055e-05
-8.70167e-23 0.00697249 -3.16262e-05 0 0.00697249 -3.16262e-05 0 0.00706535 -2.80865e-05 0
0.00706535 -2.80865e-05 0 0.00715138 -2.48641e-05 -8.32224e-23 0.00715138 -2.48641e-05 -8.32224e-23 0.00723107
-2.19372e-05 -1.65934e-22 0.00723107 -2.19372e-05 -1.65934e-22 0.00730484 -1.92845e-05 -1.18382e-24 0.00730484 -1.92845e-05
-1.18382e-24 0.00737312 -1.68854e-05 8.18644e-23 0.00737312 -1.68854e-05 8.18644e-23 0.00743631 -1.47204e-05 -7.98501e-23
0.00743631 -1.47204e-05 -7.98501e-23 0.00749479 -1.27715e-05 -1.59204e-22 0.00749479 -1.27715e-05 -1.59204e-22 0.0075489
-1.10214e-05 -1.57544e-22 0.0075489 -1.10214e-05 -1.57544e-22 0.00759899 -9.45297e-06 -7.85243e-23 0.00759899 -9.45297e-06
-7.85243e-23 0.00764536 -8.05116e-06 0 0.00764536 -8.05116e-06 0 0.00768832 -6.80151e-06 0
0.00768832 -6.80151e-06 0 0.00772812 -5.68889e-06 -7.49256e-23 0.00772812 -5.68889e-06 -7.49256e-23 0.00776504
-4.70109e-06 -7.52536e-23 0.00776504 -4.70109e-06 -7.52536e-23 0.00779931 -3.82719e-06 0 0.00779931 -3.82719e-06
0 0.00783114 -3.05406e-06 7.25205e-23 0.00783114 -3.05406e-06 7.25205e-23 0.00786075 -2.37153e-06 7.28444e-23
0.00786075 -2.37153e-06 7.28444e-23 0.00788832 -1.77054e-06 0 0.00788832 -1.77054e-06 0 0.00791403
-1.24339e-06 7.01525e-23 0.00791403 -1.24339e-06 7.01525e-23 0.00793804 -7.79926e-07 7.0472e-23 0.00793804 -7.79926e-07
7.0472e-23 0.0079605 -3.70763e-07 0 0.0079605 -3.70763e-07 0 0.00798155 -1.09435e-08 -6.78212e-23
0.00798155 -1.09435e-08 -6.78212e-23 0.0080013 3.06121e-07 -1.35188e-22 0.0080013 3.06121e-07 -1.35188e-22 0.00801989
5.92617e-07 -6.73653e-23 0.00801989 5.92617e-07 -6.73653e-23 0.00803739 8.66306e-07 6.5526e-23 0.00803739 8.66306e-07
6.5526e-23 0.0080538 1.13397e-06 6.58358e-23 0.0080538 1.13397e-06 6.58358e-23 0.0080692 1.38721e-06 -6.40158e-23
0.0080692 1.38721e-06 -6.40158e-23 0.0080837 1.62877e-06 -6.43221e-23 0.0080837 1.62877e-06 -6.43221e-23 0.00809736
1.8673e-06 -6.25214e-23 0.00809736 1.8673e-06 -6.25214e-23 0.00811024 2.09261e-06 -1.24604e-22 0.00811024 2.09261e-06
-1.24604e-22 0.00812241 2.2956e-06 -6.2081e-23 0.00812241 2.2956e-06 -6.2081e-23 0.00813392 2.47653e-06 0
0.00813392 2.47653e-06 0 0.00814482 2.64425e-06 0 0.00814482 2.64425e-06 0 0.00815515
2.82212e-06 0 0.00815515 2.82212e-06 0 0.00816492 3.02942e-06 0 0.00816492 3.02942e-06
0 0.00817414 3.26077e-06 0 0.00817414 3.26077e-06 0 0.00818282 3.48613e-06 0
0.00818282 3.48613e-06 0 0.00819103 3.66633e-06 -5.59879e-23 0.00819103 3.66633e-06 -5.59879e-23 0.00819885
3.77235e-06 -9.92276e-25 0.00819885 3.77235e-06 -9.92276e-25 0.00820642 3.79665e-06 5.55638e-23 0.00820642 3.79665e-06
5.55638e-23 0.00821384 3.75168e-06 0 0.00821384 3.75168e-06 0 0.00822119 3.66019e-06 0
0.00822119 3.66019e-06 0 0.00822854 3.54492e-06 0 0.00822854 3.54492e-06 0 0.0082359
3.42249e-06 1.03597e-22 0.0082359 3.42249e-06 1.03597e-22 0.0082433 3.3023e-06 1.04141e-22 0.0082433 3.3023e-06
1.04141e-22 0.00825073 3.18826e-06 -1.0086e-22 0.00825073 3.18826e-06 -1.0086e-22 0.0082582 3.0814e-06 -1.8934e-24
0.0082582 3.0814e-06 -1.8934e-24 0.00826569 2.98165e-06 1.00032e-22 0.00826569 2.98165e-06 1.00032e-22 0.00827323
2.88881e-06 0 0.00827323 2.88881e-06 0 0.0082808 2.80273e-06 0 0.0082808 2.80273e-06
0 0.0082884 2.7233e-06 -9.41347e-23 0.0082884 2.7233e-06 -9.41347e-23 0.00829606 2.65039e-06 -1.87455e-22
0.00829606 2.65039e-06 -1.87455e-22 0.00830376 2.58382e-06 -9.33158e-23 0.00830376 2.58382e-06 -9.33158e-23 0.00831151
2.52335e-06 -9.01766e-23 0.00831151 2.52335e-06 -9.01766e-23 0.00831931 2.46871e-06 -1.79543e-22 0.00831931 2.46871e-06
-1.79543e-22 0.00832716 2.41956e-06 -1.79281e-24 0.00832716 2.41956e-06 -1.79281e-24 0.00833507 2.37554e-06 8.80554e-23
0.00833507 2.37554e-06 8.80554e-23 0.00834303 2.33633e-06 0 0.00834303 2.33633e-06 0 0.00835105
2.30165e-06 8.37009e-23 0.00835105 2.30165e-06 8.37009e-23 0.00835912 2.27128e-06 8.41722e-23 0.00835912 2.27128e-06
8.41722e-23 0.00836725 2.24507e-06 0 0.00836725 2.24507e-06 0 0.00837544 2.22292e-06 0
0.00837544 2.22292e-06 0 0.00838368 2.20476e-06 0 0.00838368 2.20476e-06 0 0.00839198
2.19063e-06 -7.7366e-23 0.00839198 2.19063e-06 -7.7366e-23 0.00840032 2.18063e-06 -1.53926e-22 0.00840032 2.18063e-06
-1.53926e-22 0.0084087 2.1749e-06 -7.65542e-23 0.0084087 2.1749e-06 -7.65542e-23 0.00841713 2.1738e-06 -7.36274e-23
0.00841713 2.1738e-06 -7.36274e-23 0.00842558 2.17761e-06 -7.40558e-23 0.00842558 2.17761e-06 -7.40558e-23 0.00843405
2.18718e-06 0 0.00843405 2.18718e-06 0 0.00844253 2.20292e-06 -6.9932e-23 0.00844253 2.20292e-06
-6.9932e-23 0.008451 2.22657e-06 -7.03436e-23 0.008451 2.22657e-06 -7.03436e-23 0.00845943 2.25871e-06 -6.7491e-23
0.00845943 2.25871e-06 -6.7491e-23 0.00846781 2.30235e-06 -6.78912e-23 0.00846781 2.30235e-06 -6.78912e-23 0.00847608
2.35877e-06 0 0.00847608 2.35877e-06 0 0.00848421 2.4322e-06 -6.38609e-23 0.00848421 2.4322e-06
-6.38609e-23 0.00849212 2.52657e-06 -6.42437e-23 0.00849212 2.52657e-06 -6.42437e-23 0.00849978 2.64618e-06 -6.14602e-23