/*--------------------------------*- C++ -*----------------------------------*\
  =========                 |
  \\      /  F ield         | OpenFOAM: The Open Source CFD Toolbox
   \\    /   O peration     | Website:  https://openfoam.org
    \\  /    A nd           | Version:  9
     \\/     M anipulation  |
\*---------------------------------------------------------------------------*/
FoamFile
{
    format      ascii;
    class       volScalarField;
    location    "0.043";
    object      nut;
}
// * * * * * * * * * * * * * * * * * * * * * * * * * * * * * * * * * * * * * //

dimensions      [0 2 -1 0 0 0 0];

internalField   nonuniform List<scalar> 
12225
(
4.02705e-10
0
0
0
0
0
0
0
0
0
0
0
0
0
0
3.4383e-09
1.49157e-08
2.27438e-07
4.31132e-10
0
0
0
0
0
0
0
0
0
0
0
0
6.42788e-11
0
1.63599e-09
2.5484e-09
2.55166e-08
5.44795e-10
0
0
0
0
2.85788e-10
2.43074e-10
0
0
0
0
3.70295e-11
0
5.74082e-10
0
2.51582e-09
6.81815e-10
1.5611e-08
4.8713e-08
0
0
0
3.86162e-09
3.55971e-09
8.37879e-10
0
0
3.88035e-10
1.60193e-09
3.69903e-09
2.15804e-09
4.61719e-09
0
1.0007e-08
0
5.44771e-08
2.18191e-07
0
0
0
0
0
0
0
0
0
0
0
0
0
0
0
0
0
0
0
0
0
0
0
0
0
0
0
0
0
0
0
0
0
0
0
0
4.25357e-09
1.72314e-07
0
0
0
0
0
0
0
0
0
0
0
0
0
0
0
0
4.67197e-07
6.10968e-07
1.65507e-07
0
0
0
0
0
0
0
0
0
0
0
0
0
0
0
0
8.09606e-07
8.73108e-08
0
0
0
0
0
0
0
0
0
0
0
0
0
0
0
8.86172e-07
1.39784e-06
0
0
0
0
0
0
0
0
0
0
0
0
0
0
0
0
3.18413e-07
0
0
0
0
0
0
0
0
0
0
0
0
0
0
0
4.61682e-09
0
0
0
0
0
0
0
0
0
0
0
0
0
0
0
0
0
1.83475e-09
0
0
0
0
0
0
0
0
0
0
0
0
0
0
0
0
2.30329e-08
1.47615e-08
0
0
0
0
0
0
0
0
0
0
0
0
0
4.95711e-08
1.16992e-07
1.39846e-07
1.31365e-07
9.35399e-08
0
0
2.91601e-07
0
0
0
4.43778e-07
6.34811e-07
1.01241e-07
0
0
1.56873e-08
1.39723e-07
2.5368e-07
2.9864e-07
2.70991e-07
1.98926e-07
1.09074e-07
0
3.75604e-07
1.49453e-06
1.25263e-06
6.68626e-07
1.78768e-06
2.16204e-06
1.45122e-06
5.89431e-07
1.29781e-07
4.00154e-08
1.07911e-07
2.0326e-07
2.4156e-07
1.90909e-07
9.27658e-08
1.4491e-08
0
0
5.03672e-07
1.31654e-06
1.1386e-06
1.48282e-06
1.52991e-06
9.42106e-07
2.53986e-07
0
7.87792e-08
2.28103e-07
2.89517e-07
2.70918e-07
1.80963e-07
4.29637e-08
0
0
0
0
0
0
9.79392e-07
2.05135e-06
2.53272e-06
1.6635e-06
2.25313e-07
0
6.0616e-07
7.11697e-07
4.1165e-07
1.73228e-07
5.36186e-09
0
0
0
0
2.96126e-08
0
0
0
1.30802e-06
1.55449e-06
9.69105e-07
7.71295e-07
7.77703e-07
9.68148e-07
7.95216e-07
3.88395e-07
9.67528e-08
0
0
0
0
0
5.67513e-07
1.41897e-07
0
0
0
5.90318e-07
5.91543e-07
5.09521e-07
5.48398e-07
6.3398e-07
5.17227e-07
2.44435e-07
1.34858e-08
0
0
0
0
6.61261e-08
6.82909e-07
3.97913e-07
0
4.55599e-08
4.39192e-07
4.46945e-07
1.54973e-07
2.29824e-08
1.42365e-08
1.24785e-07
3.59525e-07
4.79538e-07
2.39679e-07
7.09466e-08
1.16921e-07
2.87981e-07
4.62401e-07
5.50101e-07
9.55609e-07
1.73209e-07
3.83445e-07
4.4897e-07
3.58552e-07
6.02045e-07
3.13179e-07
5.59175e-08
0
0
6.51451e-08
2.46774e-07
4.51939e-07
7.11234e-07
1.69705e-06
1.91466e-06
1.83288e-06
1.69243e-06
2.94951e-07
0
4.19363e-07
3.93339e-07
1.46269e-07
2.21792e-07
5.10773e-07
1.93041e-07
2.23075e-08
4.9087e-08
2.72782e-07
5.62178e-07
5.35296e-07
3.83527e-07
9.2319e-07
1.67899e-06
1.98572e-06
1.99583e-06
3.04331e-07
0
2.06806e-08
4.97349e-07
3.68223e-07
1.44845e-07
7.21851e-07
4.49507e-07
1.55516e-07
2.22411e-07
5.68834e-07
5.56745e-07
0
0
0
0
0
0
8.25304e-07
0
0
1.57971e-06
1.9838e-06
4.05013e-07
4.88426e-07
6.07497e-07
3.16763e-07
3.50335e-07
2.52174e-07
0
0
0
0
0
0
0
5.39246e-07
0
0
1.47661e-06
1.87816e-06
8.21169e-07
5.24773e-07
4.48607e-07
2.69473e-07
4.68405e-08
0
0
0
0
0
1.02738e-08
2.15872e-07
3.50684e-07
0
0
0
0
0
0
0
5.07772e-09
1.82561e-09
0
0
0
0
0
0
0
0
0
0
0
0
0
0
0
0
0
0
0
0
0
0
0
0
0
0
0
0
0
0
0
0
0
0
0
0
0
0
0
0
0
0
0
0
0
0
0
0
0
0
0
0
0
0
0
0
0
0
0
0
0
0
0
0
7.93809e-06
2.05734e-05
0
0
0
0
5.29696e-07
3.42904e-06
3.15202e-06
1.41077e-06
0
0
0
0
0
0
0
0
0
0
0
3.9628e-09
1.83287e-07
2.73163e-07
1.81053e-07
1.66178e-07
2.1766e-07
0
0
0
4.78521e-06
2.06457e-05
4.28783e-05
7.1682e-05
8.36395e-05
4.72347e-05
0
0
0
2.70184e-06
0
0
0
4.28225e-06
1.31793e-05
4.1639e-06
1.38083e-05
3.06564e-05
2.32053e-05
6.65211e-06
1.35094e-06
1.87133e-07
8.97147e-08
2.33084e-07
3.43977e-07
3.78255e-07
3.58487e-07
3.01348e-07
2.44805e-07
1.85596e-07
1.37458e-07
9.53268e-08
6.5164e-08
4.17221e-08
2.34201e-08
8.97526e-09
0
0
0
0
0
0
0
9.8211e-10
1.11063e-08
1.8872e-08
2.71768e-08
3.61554e-08
3.68624e-08
2.57114e-08
4.70991e-10
0
0
0
0
0
0
0
0
0
0
0
0
0
0
0
0
0
0
0
0
0
0
0
0
0
0
0
0
0
0
0
0
0
0
0
0
0
0
0
0
0
0
0
0
0
0
0
0
0
0
0
0
0
0
0
0
0
0
0
0
0
0
0
0
0
0
1.83343e-09
5.47541e-09
5.8005e-09
3.29402e-09
8.10899e-10
0
0
0
0
0
0
0
0
0
0
0
0
0
0
0
0
0
0
0
0
0
0
0
0
0
0
0
0
0
0
0
0
0
0
2.20903e-06
4.53397e-06
4.45782e-06
2.84421e-06
8.23093e-07
0
0
0
0
0
0
0
0
0
0
4.79088e-08
2.24991e-07
3.42212e-07
1.54346e-07
7.57309e-08
4.14193e-07
0
0
0
1.68644e-07
1.9693e-06
4.92766e-06
1.09052e-05
2.08428e-05
3.49478e-05
6.67984e-06
0
0
7.6146e-06
5.99326e-06
3.68292e-07
1.52176e-06
3.55607e-06
0
0
0
0
3.03306e-06
3.01097e-06
1.23986e-06
3.03983e-07
1.40331e-07
2.25665e-07
2.8518e-07
2.96349e-07
2.74166e-07
2.40783e-07
2.06812e-07
1.72386e-07
1.39512e-07
1.08466e-07
7.96046e-08
5.32336e-08
2.97144e-08
9.85547e-09
0
0
0
0
0
0
0
1.28031e-09
1.53833e-08
2.80003e-08
4.19918e-08
5.8987e-08
6.96998e-08
5.68921e-08
5.94216e-09
0
0
0
0
0
0
0
0
0
0
0
0
0
0
0
0
0
0
0
0
0
0
0
0
0
0
0
0
0
0
0
0
0
0
0
0
0
0
0
0
0
0
0
0
0
0
0
0
0
0
0
0
0
0
0
0
0
0
0
0
0
0
0
0
0
0
0
2.58636e-09
5.85247e-09
5.17981e-09
2.579e-09
0
0
0
0
0
0
0
0
0
0
0
0
0
0
0
0
0
0
0
0
4.08112e-11
0
5.35465e-11
0
0
3.12987e-10
0
5.57208e-06
6.13825e-06
3.95548e-06
2.39255e-06
6.52256e-07
7.62182e-08
1.2368e-06
3.04457e-06
4.03175e-06
3.75096e-06
2.28737e-06
0
0
0
0
0
0
0
0
0
0
0
0
5.33108e-07
1.08951e-06
4.96205e-07
0
3.46181e-07
0
0
0
0
0
2.25124e-06
8.75004e-06
1.63488e-05
2.75284e-05
3.3536e-05
1.34211e-05
0
0
0
0
0
0
0
0
0
0
8.39618e-07
1.29587e-06
5.85693e-07
2.81995e-07
3.1589e-07
5.12112e-07
6.78152e-07
7.66282e-07
7.64057e-07
7.00477e-07
6.06308e-07
5.00723e-07
3.9497e-07
2.96596e-07
2.08777e-07
1.3221e-07
6.64485e-08
1.05149e-08
0
0
0
0
0
0
0
0
6.62612e-08
1.43153e-07
2.29557e-07
3.19664e-07
3.72004e-07
2.95826e-07
4.11161e-08
0
0
0
0
0
0
0
0
0
0
0
0
0
0
0
0
0
0
0
0
0
0
0
0
0
0
0
0
0
0
0
0
0
0
0
0
0
0
0
0
0
0
0
0
0
0
0
0
0
0
0
0
0
0
0
0
0
0
0
0
0
0
0
0
0
0
0
0
0
0
3.15495e-09
6.35231e-09
7.74382e-09
6.88091e-09
2.98181e-09
0
0
0
0
0
0
0
0
0
0
0
0
0
0
0
4.76699e-10
9.98233e-10
1.06422e-09
1.01776e-09
1.39146e-09
2.24214e-10
2.79769e-09
0
1.34489e-05
5.99491e-06
4.50278e-06
3.87408e-06
2.5414e-06
1.92736e-06
2.03747e-06
1.9643e-06
1.27963e-08
0
0
0
0
0
0
0
0
0
0
0
0
0
0
0
0
0
0
0
0
0
0
0
0
2.93996e-06
8.34922e-06
1.12514e-05
1.33837e-05
1.08453e-05
0
0
0
0
0
0
0
0
0
0
0
0
1.62944e-07
1.92961e-08
4.61726e-08
6.40733e-08
5.43215e-08
2.253e-08
0
1.13681e-08
7.87181e-08
2.32002e-07
4.92163e-07
9.26916e-07
1.64415e-06
2.90541e-06
4.85544e-06
6.33431e-07
0
0
0
0
0
0
0
0
0
0
0
0
0
0
0
0
0
0
0
0
0
0
0
0
0
0
0
0
0
0
0
0
0
0
0
0
0
0
0
0
0
0
0
0
0
0
0
0
0
0
0
0
0
0
0
0
0
0
0
0
0
0
0
0
0
0
0
0
0
0
0
0
0
0
0
0
0
0
0
0
0
0
0
0
0
0
0
0
0
1.95704e-08
4.46696e-08
2.98208e-08
4.90124e-09
0
0
0
0
0
0
0
0
0
0
0
1.08336e-10
1.86223e-09
3.09744e-09
3.10588e-09
3.93484e-09
2.01601e-09
4.41766e-09
0
6.00508e-09
0
1.10938e-05
6.6883e-06
3.09552e-06
1.85503e-06
1.65343e-06
1.06864e-06
0
0
0
0
0
0
0
0
0
0
0
0
0
0
0
0
0
0
0
0
0
0
0
0
0
0
5.43643e-06
8.39133e-06
7.78716e-06
5.7015e-06
4.63286e-06
1.01316e-06
0
0
0
0
0
0
0
0
0
0
0
0
0
0
0
0
0
0
0
0
0
0
0
0
9.21656e-08
3.38294e-07
9.53402e-08
0
0
1.41168e-07
3.44376e-07
3.94144e-07
3.65729e-07
2.89429e-07
1.85823e-07
7.71953e-08
0
0
0
0
0
0
0
0
0
0
0
0
0
0
0
0
0
0
0
0
0
0
0
0
0
0
0
0
0
0
0
0
0
0
0
0
0
0
0
0
0
0
0
0
0
0
0
0
0
0
0
0
0
0
0
0
0
0
0
0
0
0
0
0
0
6.41906e-07
1.64479e-06
3.23096e-06
2.94461e-06
2.29403e-06
2.03134e-06
1.67884e-06
1.00953e-06
3.99866e-07
2.35143e-07
2.13032e-07
1.68193e-07
9.07755e-08
1.8484e-08
0
0
0
0
0
0
0
0
1.52303e-08
5.51817e-08
8.1366e-08
6.28858e-08
2.29115e-08
0
0
0
0
0
0
0
0
5.85804e-09
0
1.13351e-08
0
9.75079e-09
0
2.77756e-06
3.15935e-06
2.40587e-06
2.24237e-06
2.00592e-06
7.93378e-07
0
0
0
0
0
0
0
0
0
0
0
0
0
0
0
0
0
0
0
0
4.91127e-06
1.5542e-05
1.55796e-05
0
0
0
4.47554e-06
6.40185e-06
4.3282e-06
1.14101e-06
0
0
0
0
0
0
0
0
0
0
0
0
0
0
0
0
0
0
0
0
0
0
0
0
0
1.86665e-07
4.10943e-07
0
0
0
0
0
0
1.52739e-07
4.28651e-07
5.74666e-07
5.91128e-07
5.2766e-07
3.87173e-07
2.1952e-07
6.82059e-08
0
0
0
0
0
0
0
0
0
0
0
0
0
0
0
0
0
0
0
0
0
0
0
0
0
0
0
0
0
0
0
0
0
0
0
0
0
0
0
0
0
0
0
0
0
0
0
0
0
0
0
0
0
0
0
0
0
0
0
0
0
1.31345e-06
2.31761e-06
3.6177e-06
4.81831e-06
3.51346e-06
2.09562e-06
1.52507e-06
1.18262e-06
8.2756e-07
6.06402e-07
7.69154e-07
1.18658e-06
2.1831e-06
2.01101e-06
1.40758e-06
1.10978e-06
9.92221e-07
9.10059e-07
7.72122e-07
6.153e-07
5.28068e-07
5.05024e-07
4.73065e-07
3.85818e-07
2.44838e-07
7.05939e-08
0
0
0
0
2.83527e-08
1.13992e-07
1.64809e-07
1.89348e-07
2.19537e-07
2.18242e-07
2.44616e-07
2.01984e-07
2.05491e-07
7.80073e-08
8.14776e-08
0
2.431e-07
5.23991e-07
1.09446e-06
2.54726e-06
2.28662e-06
0
0
2.93264e-06
9.64808e-06
0
0
0
0
4.83593e-07
1.12584e-06
1.06985e-06
5.24332e-07
0
0
0
0
0
0
0
0
0
9.32603e-06
4.85614e-05
3.93806e-05
1.59399e-05
4.57808e-06
1.59855e-06
1.05413e-06
1.27087e-06
6.06395e-07
0
0
0
0
0
0
0
0
0
0
0
0
0
0
0
0
0
0
0
0
0
0
0
0
7.18082e-07
2.44793e-06
4.38472e-06
0
0
0
0
0
0
0
0
0
0
2.44213e-07
5.85344e-07
7.04164e-07
6.74999e-07
5.54469e-07
3.90279e-07
1.88544e-07
0
0
0
0
0
0
0
0
0
0
0
0
0
0
0
0
0
2.39931e-08
8.12998e-08
1.55634e-08
0
0
0
0
0
0
0
0
0
0
0
0
0
0
0
0
0
0
0
0
0
0
0
0
0
0
0
0
0
0
0
0
0
0
0
0
0
0
0
3.2704e-07
1.75877e-06
4.49547e-06
5.13038e-06
2.51674e-06
1.39485e-06
1.18591e-06
1.06738e-06
8.57825e-07
6.36585e-07
7.06726e-07
8.99762e-07
1.03181e-06
1.54993e-06
2.7149e-06
3.03096e-06
3.02104e-06
3.08366e-06
3.08076e-06
2.86973e-06
2.50954e-06
2.12425e-06
1.74723e-06
1.37805e-06
1.02078e-06
6.31814e-07
2.02067e-07
5.05167e-09
1.48367e-07
3.59289e-07
4.34971e-07
3.73373e-07
4.11945e-07
4.39244e-07
3.99572e-07
3.36491e-07
3.09758e-07
2.59889e-07
2.47396e-07
1.56911e-07
1.00721e-07
0
0
0
1.36038e-07
1.91581e-06
0
7.80216e-06
2.57825e-05
2.46142e-05
2.28913e-06
0
0
0
5.32918e-07
4.99241e-07
1.73015e-08
0
0
0
0
0
0
0
0
0
0
0
0
7.20277e-05
3.07439e-05
1.28714e-05
5.82248e-06
2.46313e-06
7.2022e-07
0
0
0
0
0
0
0
0
0
0
0
0
0
0
3.05867e-07
2.38542e-07
0
0
0
0
0
0
0
0
3.60301e-07
2.62904e-06
7.1029e-06
1.29433e-05
0
0
0
0
0
0
0
0
0
0
0
0
0
2.15863e-07
6.48674e-07
9.43796e-07
1.06534e-06
1.08949e-06
9.68086e-07
6.46791e-07
1.04207e-07
0
0
0
0
0
0
0
0
0
0
0
0
0
0
2.10613e-08
1.23121e-07
2.00344e-07
1.48629e-07
0
0
0
0
0
0
0
0
0
0
0
0
0
0
0
0
0
0
0
0
0
0
0
0
0
0
0
0
0
0
0
0
0
0
0
0
0
0
5.32802e-07
7.96155e-07
3.72325e-07
2.28166e-06
1.62309e-06
1.26673e-06
1.35763e-06
1.40881e-06
1.31321e-06
9.84883e-07
8.40241e-07
9.92567e-07
1.06099e-06
8.95279e-07
9.06997e-07
1.35047e-06
1.66617e-06
1.78808e-06
1.7774e-06
1.74038e-06
1.85814e-06
2.09861e-06
2.0871e-06
1.7676e-06
1.38044e-06
1.07175e-06
8.30697e-07
4.21987e-07
4.58728e-07
6.17277e-07
6.19901e-07
5.02978e-07
3.91881e-07
4.31671e-07
4.36045e-07
3.50944e-07
2.97379e-07
2.40097e-07
2.15427e-07
1.55689e-07
1.03584e-07
0
0
0
0
8.71792e-07
8.80479e-06
1.36095e-05
1.48952e-05
8.26484e-06
0
0
0
0
0
0
0
0
0
0
0
0
0
0
0
0
0
0
0
0
2.35416e-05
1.19304e-05
6.0458e-06
3.4364e-06
1.44501e-06
0
0
0
0
0
0
0
0
0
0
0
0
0
8.20873e-07
7.01042e-07
1.63179e-07
0
0
0
0
0
0
0
1.12258e-06
5.12467e-06
1.31375e-05
2.38114e-05
0
0
0
0
0
0
0
0
0
0
0
0
0
0
0
7.96511e-08
4.82227e-07
8.24769e-07
1.09943e-06
1.28034e-06
1.29501e-06
1.15129e-06
9.65151e-07
8.07447e-07
6.04624e-07
2.76487e-07
8.50012e-09
0
0
0
0
7.70519e-09
2.03099e-08
2.28766e-08
1.86057e-08
7.59759e-09
0
7.67966e-09
7.38137e-08
1.66767e-07
2.1246e-07
1.70881e-07
7.06767e-08
0
0
0
0
0
0
0
0
0
0
0
0
0
0
0
0
0
0
0
0
0
0
0
0
0
0
0
0
0
0
0
5.06296e-08
1.15116e-08
0
8.69747e-08
6.81328e-07
1.03469e-06
8.75397e-07
1.98896e-07
2.67922e-07
1.33611e-06
1.89604e-06
2.15261e-06
2.38976e-06
2.24694e-06
1.36162e-06
1.2128e-06
1.32201e-06
1.1505e-06
7.00418e-07
7.46894e-07
1.09821e-06
1.30884e-06
1.35089e-06
1.25204e-06
1.09829e-06
1.0286e-06
1.01756e-06
9.33091e-07
7.53881e-07
5.66003e-07
4.49746e-07
4.41157e-07
5.67853e-07
5.69653e-07
5.73422e-07
5.21966e-07
3.97026e-07
3.23051e-07
3.83119e-07
3.20879e-07
2.56633e-07
2.03576e-07
1.74821e-07
1.27011e-07
8.64727e-08
0
0
0
0
0
2.50414e-06
4.23052e-06
3.71444e-06
9.07496e-07
0
0
7.35311e-08
0
0
0
0
0
0
0
0
0
0
0
0
0
0
0
0
0
0
7.01925e-06
6.36783e-06
4.40738e-06
0
0
0
0
0
0
0
0
0
0
0
0
0
1.68721e-06
1.87208e-06
7.96596e-07
0
0
0
0
0
0
0
1.77e-06
7.28875e-06
1.79791e-05
3.44445e-05
2.30475e-05
0
0
0
0
0
0
0
0
3.33314e-08
4.92686e-08
0
0
0
0
0
5.69541e-08
2.66254e-07
4.3942e-07
5.73737e-07
6.38295e-07
5.94907e-07
4.97597e-07
4.66898e-07
4.3549e-07
3.08326e-07
1.33881e-07
2.66769e-08
2.67682e-08
9.92426e-08
1.74947e-07
2.22989e-07
2.38672e-07
2.30506e-07
2.08935e-07
1.83236e-07
1.42824e-07
8.14661e-08
1.65808e-08
0
0
0
0
0
0
0
0
0
0
0
0
0
0
0
0
0
0
0
0
0
0
0
0
0
0
0
0
0
0
0
0
0
0
0
9.61661e-08
2.36187e-07
3.20971e-07
3.9691e-07
5.19175e-07
7.6256e-07
9.9222e-07
1.08395e-06
9.58589e-07
6.58739e-07
1.20157e-06
2.24442e-06
2.24596e-06
2.27052e-06
2.8335e-06
2.84066e-06
1.64323e-06
1.70665e-06
1.68952e-06
1.17039e-06
7.73556e-07
1.05421e-06
1.49312e-06
1.86515e-06
2.06194e-06
1.93905e-06
1.48979e-06
1.02843e-06
6.80515e-07
3.90232e-07
1.76414e-07
4.95184e-08
0
0
0
1.23661e-07
2.33235e-07
2.28438e-07
1.65236e-07
2.21755e-07
2.3759e-07
1.93542e-07
1.60486e-07
1.40506e-07
1.00464e-07
6.51091e-08
4.12532e-09
0
0
0
0
0
0
0
0
0
0
0
0
0
0
0
0
0
0
0
0
0
0
0
0
0
0
0
0
0
0
4.51762e-06
3.10313e-06
0
0
0
0
0
0
0
0
0
0
0
0
0
3.72579e-06
2.05541e-06
4.75894e-07
0
0
0
0
0
0
1.76873e-06
7.26253e-06
1.86241e-05
3.86456e-05
4.32896e-05
0
0
0
0
0
0
0
0
0
7.64003e-08
0
0
0
0
0
3.76938e-08
2.83216e-07
3.94955e-07
4.16793e-07
3.9771e-07
3.40498e-07
2.47815e-07
1.54397e-07
6.95292e-08
0
0
0
0
0
0
3.89483e-08
1.45042e-07
2.06283e-07
2.20707e-07
2.05324e-07
1.79554e-07
1.47098e-07
9.64218e-08
4.52184e-08
7.17956e-09
0
0
0
0
0
0
0
0
0
0
0
0
0
0
0
0
0
0
0
0
0
0
0
0
0
0
0
0
0
0
0
0
0
0
5.73543e-08
3.41922e-07
4.74297e-07
5.96652e-07
7.29946e-07
8.20925e-07
9.15665e-07
9.77505e-07
1.03683e-06
1.06357e-06
9.71522e-07
4.60983e-07
1.45504e-08
0
0
0
7.05958e-08
9.6043e-07
1.94057e-06
1.76677e-06
1.23018e-06
1.31348e-06
1.9681e-06
2.42233e-06
2.49781e-06
2.5115e-06
2.43382e-06
1.88513e-06
1.01796e-06
3.2095e-07
0
0
0
0
0
0
0
2.14971e-08
4.64289e-08
1.24903e-07
1.39968e-07
3.43516e-08
8.78102e-08
1.01716e-07
7.22201e-08
4.13647e-08
0
0
0
0
0
0
0
0
0
0
0
0
1.30342e-07
1.8037e-07
6.66901e-08
0
0
0
0
0
0
0
0
0
0
0
0
0
0
0
0
0
0
0
0
3.71245e-07
1.08689e-06
1.08311e-06
7.26853e-07
3.57698e-07
1.52833e-07
2.63957e-07
0
0
0
0
0
7.13992e-07
6.19051e-08
0
0
0
0
0
1.04032e-06
4.65922e-06
1.27906e-05
2.83292e-05
2.91583e-05
0
0
0
0
0
0
0
0
0
2.676e-07
2.29774e-07
0
0
0
0
0
9.83819e-08
3.92129e-07
4.57963e-07
4.17884e-07
3.4505e-07
2.52632e-07
1.47108e-07
4.03052e-08
0
0
0
0
0
0
0
5.50422e-09
7.00452e-08
1.13054e-07
1.27802e-07
1.21164e-07
1.05225e-07
8.40896e-08
5.28002e-08
1.50522e-08
0
0
0
0
0
0
0
0
0
0
0
0
0
0
0
0
0
0
0
0
0
0
0
0
0
0
0
0
0
0
0
0
0
0
0
0
3.51123e-07
5.82833e-07
7.15477e-07
8.59683e-07
9.09441e-07
8.8204e-07
8.83357e-07
8.86045e-07
9.66632e-07
1.01859e-06
0
0
0
0
0
1.67559e-08
0
0
7.16514e-07
6.02785e-07
3.67643e-07
1.53703e-06
1.79114e-06
1.1341e-06
1.36007e-06
1.43882e-06
1.23232e-06
7.23154e-07
1.62951e-07
0
0
0
0
0
0
0
2.84845e-08
7.14868e-08
1.3077e-07
1.49614e-07
0
0
4.0675e-09
3.10618e-08
1.60546e-08
0
0
0
0
0
0
0
0
0
0
0
2.126e-07
8.27902e-07
1.23197e-06
1.38312e-06
1.18498e-06
5.86356e-07
0
0
0
0
0
0
0
0
0
0
0
0
0
0
0
0
2.88692e-06
3.12444e-06
2.6877e-06
2.39158e-06
2.02701e-06
1.54958e-06
1.34141e-06
2.75882e-06
3.45927e-06
0
0
0
0
0
0
0
0
0
0
0
3.807e-07
1.79106e-06
4.54649e-06
7.47459e-06
0
0
0
0
0
0
0
0
0
0
0
2.99001e-07
2.62935e-07
0
0
0
0
0
1.2263e-07
5.97483e-07
7.07807e-07
6.61103e-07
5.37781e-07
3.70391e-07
2.13328e-07
6.82196e-08
0
0
0
0
0
0
0
0
1.5884e-08
5.88327e-08
8.11747e-08
8.58123e-08
7.83929e-08
6.25066e-08
3.89287e-08
8.97311e-09
0
0
0
0
0
0
0
3.94739e-09
3.33257e-08
5.25768e-08
8.23651e-08
1.16807e-07
1.18965e-07
6.44954e-08
0
0
0
0
0
0
0
0
2.35271e-08
4.01808e-08
2.41721e-08
0
0
0
0
0
0
0
0
0
0
0
1.65792e-07
6.18916e-07
8.0452e-07
9.27563e-07
1.0033e-06
9.06817e-07
8.13209e-07
7.55532e-07
7.03596e-07
6.99348e-07
1.26997e-07
0
0
0
0
2.83103e-07
4.43541e-07
1.3899e-07
0
0
0
0
9.12225e-07
1.0011e-06
1.23019e-06
1.19256e-06
8.13316e-07
2.3305e-07
0
0
0
0
0
0
0
7.59025e-08
9.42348e-08
9.02266e-08
8.54317e-08
5.6332e-08
0
0
0
0
0
0
0
0
0
0
0
0
0
0
0
7.71082e-08
1.26002e-06
2.34242e-06
3.22207e-06
3.75088e-06
3.68174e-06
3.01836e-06
2.15494e-06
1.31404e-06
4.39751e-07
0
0
0
0
0
0
0
0
0
0
0
0
0
2.99393e-06
3.10281e-06
2.74663e-06
2.395e-06
2.06966e-06
2.15238e-06
4.36753e-06
4.25251e-06
7.16585e-07
0
0
0
0
0
0
0
0
0
0
1.50824e-07
4.90779e-07
4.8371e-07
0
0
0
0
0
0
0
0
0
0
0
0
0
3.89692e-07
4.54447e-07
1.64007e-07
0
0
0
0
0
4.72594e-07
9.60846e-07
1.06081e-06
9.01165e-07
6.42345e-07
4.23216e-07
2.58118e-07
1.10648e-07
0
0
0
0
0
0
0
0
0
2.7694e-08
4.85911e-08
5.54719e-08
5.12728e-08
3.92986e-08
2.16261e-08
1.4868e-09
0
0
0
0
0
0
0
1.09855e-08
7.586e-09
0
1.06945e-08
4.78191e-08
8.17491e-08
8.78309e-08
6.28716e-08
2.85257e-08
4.56686e-09
0
0
0
1.89397e-08
1.19073e-07
1.55594e-07
1.20985e-07
2.80595e-08
0
0
6.64837e-09
2.97913e-09
0
2.22326e-09
7.72047e-08
8.56028e-08
2.35985e-08
0
0
4.96932e-07
8.34041e-07
9.72216e-07
1.04126e-06
9.82518e-07
7.92951e-07
6.46167e-07
5.11563e-07
3.44064e-07
4.47515e-08
0
0
0
6.29758e-08
4.42112e-07
6.22854e-07
6.25296e-07
3.74394e-07
0
0
0
0
1.84835e-06
1.67485e-06
1.47719e-06
9.87093e-07
4.05981e-07
1.34926e-07
1.25497e-07
8.84245e-08
0
0
0
0
1.11253e-07
1.50613e-07
1.05471e-07
2.24309e-08
0
0
0
0
0
0
0
0
0
0
0
0
0
0
0
3.03985e-07
7.60011e-07
1.37959e-06
2.4155e-06
3.72025e-06
5.12194e-06
5.4853e-06
4.58173e-06
3.3138e-06
2.44103e-06
2.01803e-06
1.79667e-06
1.57609e-06
1.31637e-06
9.83232e-07
6.90536e-07
4.8194e-07
3.02561e-07
1.19616e-07
9.61957e-09
0
0
0
4.66238e-07
1.9998e-06
2.18441e-06
1.98576e-06
1.73354e-06
2.05418e-06
3.69288e-06
3.78398e-06
1.27695e-06
1.57813e-07
0
0
0
0
0
8.05917e-08
1.01052e-07
7.25775e-08
9.57108e-08
2.08378e-07
3.44044e-07
5.47023e-08
0
0
0
0
0
0
0
0
0
0
0
0
0
0
4.3909e-07
7.26686e-07
4.35692e-07
0
0
0
0
0
0
5.24848e-07
1.05749e-06
9.79055e-07
7.03629e-07
4.62124e-07
3.00025e-07
1.78016e-07
6.59784e-08
0
0
0
0
0
0
0
0
0
0
0
0
0
0
0
0
0
0
0
0
0
4.95441e-09
4.24385e-08
6.24645e-08
5.27583e-08
2.46894e-08
3.34966e-09
9.10303e-09
3.95522e-08
7.12049e-08
8.92202e-08
1.07404e-07
1.30079e-07
1.18521e-07
7.24683e-08
8.18721e-08
1.57873e-07
1.96709e-07
1.64045e-07
8.56722e-08
0
0
0
8.80923e-08
1.06059e-07
7.99771e-08
9.814e-08
1.3701e-07
1.445e-07
1.25927e-07
1.01267e-07
3.10871e-07
7.61998e-07
9.79419e-07
1.05381e-06
1.04205e-06
8.52418e-07
6.06529e-07
3.94587e-07
1.81635e-07
0
0
0
0
4.26328e-07
6.61202e-07
7.6059e-07
7.55718e-07
6.37631e-07
3.955e-07
0
0
0
1.10254e-06
1.67663e-06
1.50218e-06
1.08028e-06
5.66771e-07
2.99104e-07
2.17327e-07
1.36477e-07
0
0
0
0
8.25508e-08
1.54736e-07
1.00413e-07
0
0
0
0
0
0
0
0
0
0
0
0
0
7.33286e-07
2.69263e-06
3.10557e-06
2.14026e-06
8.39027e-07
0
0
0
1.92034e-06
4.26107e-06
4.07235e-06
2.73459e-06
1.60823e-06
1.27577e-06
1.50757e-06
1.73567e-06
1.78349e-06
1.72833e-06
1.4757e-06
1.16864e-06
8.81439e-07
6.93371e-07
6.06731e-07
5.46754e-07
2.52886e-07
0
5.8944e-07
1.31414e-06
1.4435e-06
1.24995e-06
1.3767e-06
2.32814e-06
2.9085e-06
1.612e-06
5.43469e-07
1.55222e-08
0
0
0
0
0
1.52951e-07
2.37083e-07
2.88214e-07
3.66255e-07
4.73362e-07
4.58902e-07
0
0
0
0
0
0
0
0
0
0
0
0
0
0
0
1.79759e-07
8.28958e-07
6.68467e-07
0
0
0
0
0
0
0
4.46272e-07
6.0877e-07
4.32336e-07
2.58673e-07
1.59421e-07
1.03752e-07
5.61363e-08
0
0
0
0
0
0
0
0
0
0
0
0
0
0
0
0
0
0
0
0
0
1.3762e-08
5.26133e-08
1.00169e-07
1.54596e-07
2.02356e-07
2.37643e-07
2.82856e-07
3.59488e-07
4.40996e-07
4.77737e-07
4.64897e-07
4.25039e-07
3.32823e-07
1.80047e-07
6.52645e-08
5.54983e-08
8.42046e-08
8.21237e-08
5.32414e-08
4.54885e-10
0
0
6.20592e-08
1.86158e-07
1.97476e-07
1.65271e-07
1.65023e-07
1.8754e-07
2.0505e-07
2.16694e-07
2.84455e-07
6.11025e-07
9.52494e-07
1.07643e-06
1.09599e-06
9.8653e-07
6.90288e-07
4.04425e-07
1.76063e-07
4.00564e-08
6.3895e-08
2.63638e-07
5.62205e-07
9.2187e-07
1.07254e-06
1.02594e-06
9.17009e-07
7.4569e-07
5.48525e-07
4.96401e-07
7.82631e-07
3.50211e-07
2.54626e-07
5.17513e-07
8.39034e-07
7.56707e-07
4.71612e-07
2.68323e-07
1.75276e-07
8.99744e-08
0
0
0
0
1.49547e-08
8.65823e-08
8.03642e-09
0
0
0
0
0
0
0
0
0
0
0
0
3.54828e-06
8.29505e-06
8.83457e-06
6.93221e-06
2.551e-06
1.76517e-06
1.34207e-05
0
0
0
2.67925e-06
3.04118e-06
2.02091e-06
8.16415e-07
3.12866e-08
9.04542e-08
7.58644e-07
1.18333e-06
1.33118e-06
1.35998e-06
1.16444e-06
9.15805e-07
7.86288e-07
7.72017e-07
7.21845e-07
4.33585e-07
0
3.35581e-07
9.47938e-07
1.09594e-06
1.00068e-06
1.27584e-06
1.8229e-06
1.55792e-06
7.47509e-07
2.5461e-07
2.89315e-08
0
0
0
0
7.22619e-08
1.61583e-07
2.44216e-07
3.40849e-07
4.74673e-07
6.24869e-07
6.25932e-07
0
0
0
0
0
0
0
0
0
0
0
0
0
0
0
0
6.05057e-07
7.52721e-07
1.81436e-07
0
0
0
0
0
0
6.60548e-08
3.37578e-07
2.01323e-07
7.14195e-08
8.55871e-09
0
0
0
0
0
0
0
0
0
0
0
0
0
0
0
0
0
0
0
0
0
0
3.70634e-08
8.96288e-08
1.34382e-07
1.89897e-07
2.9225e-07
4.68144e-07
7.41815e-07
1.11798e-06
1.45874e-06
1.55673e-06
1.38121e-06
1.04233e-06
6.76352e-07
3.85006e-07
1.89365e-07
7.59002e-08
2.51888e-08
2.31196e-08
2.21546e-08
8.77046e-09
0
0
0
4.40494e-08
1.94795e-07
2.94067e-07
2.71712e-07
2.31847e-07
2.29071e-07
2.51011e-07
2.76664e-07
3.07731e-07
4.72561e-07
8.53419e-07
1.05782e-06
1.11316e-06
1.08362e-06
8.69846e-07
5.75505e-07
3.7985e-07
3.8103e-07
5.38781e-07
6.64214e-07
7.06261e-07
7.20504e-07
8.73853e-07
1.11632e-06
1.09391e-06
8.68669e-07
6.46147e-07
5.89695e-07
7.59895e-07
5.16978e-07
5.73713e-08
2.68968e-08
3.14581e-07
4.16143e-07
2.92712e-07
1.6516e-07
8.51813e-08
2.64336e-08
1.15585e-07
2.53021e-08
0
0
0
0
0
0
0
0
0
0
0
0
0
0
0
0
2.15877e-07
8.67705e-06
1.37555e-05
1.06585e-05
6.75593e-06
1.32069e-06
1.37859e-05
1.79798e-05
1.08667e-05
0
0
1.95353e-06
1.8648e-06
1.17347e-06
4.14231e-07
0
0
0
9.90402e-08
5.3967e-07
7.4626e-07
8.55553e-07
7.774e-07
6.89699e-07
7.02939e-07
6.82386e-07
4.51117e-07
0
1.36463e-07
7.57579e-07
9.97131e-07
9.88969e-07
1.1301e-06
1.24273e-06
8.80814e-07
3.59648e-07
1.16447e-07
4.4043e-08
5.73318e-08
8.4666e-08
9.7921e-08
1.23903e-07
1.58013e-07
1.93226e-07
2.34798e-07
3.12034e-07
4.47813e-07
6.2315e-07
7.03417e-07
3.90576e-07
0
0
0
0
0
0
0
0
0
0
0
1.07778e-06
0
0
0
3.80361e-07
7.1848e-07
4.7682e-07
0
0
0
0
0
0
3.78021e-07
4.33953e-07
2.40076e-07
1.0133e-07
3.87037e-08
7.41991e-09
0
0
0
0
0
0
0
0
0
0
0
0
0
0
0
0
0
0
0
0
6.2195e-08
1.90963e-07
3.50506e-07
5.45399e-07
8.14373e-07
1.25588e-06
1.98298e-06
2.86085e-06
3.03067e-06
2.33807e-06
1.53134e-06
1.0591e-06
8.15118e-07
4.97242e-07
2.08434e-07
1.4539e-07
1.17376e-07
5.46282e-08
0
0
0
0
2.01788e-09
2.28019e-08
7.41893e-08
1.99915e-07
3.49451e-07
4.05775e-07
3.55898e-07
3.16119e-07
3.16312e-07
3.36776e-07
3.53558e-07
4.19926e-07
7.1594e-07
9.94892e-07
1.09318e-06
1.08566e-06
9.67731e-07
7.96742e-07
7.44849e-07
8.00414e-07
8.37092e-07
8.02872e-07
7.43862e-07
6.38409e-07
5.16105e-07
5.29968e-07
7.63746e-07
8.19371e-07
6.46268e-07
5.56519e-07
5.74597e-07
4.5958e-07
1.80303e-08
0
7.65149e-08
1.89341e-07
1.36846e-07
7.15468e-08
6.71093e-09
0
2.73146e-07
2.78375e-07
1.54114e-07
2.36159e-08
0
0
0
0
0
0
0
0
0
0
0
0
0
0
0
0
0
0
0
6.06349e-06
1.62053e-05
1.59143e-05
7.97519e-06
0
0
5.7572e-08
1.18484e-07
0
0
0
0
0
0
0
2.94793e-09
3.09703e-07
5.15219e-07
5.3879e-07
5.49066e-07
5.54352e-07
3.82025e-07
0
0
6.0163e-07
9.47752e-07
9.10355e-07
8.57556e-07
7.89688e-07
5.0615e-07
1.49222e-07
5.02294e-08
4.20255e-08
7.19023e-08
8.95255e-08
8.78662e-08
1.22439e-07
1.69309e-07
2.07869e-07
2.33468e-07
2.77496e-07
3.67483e-07
5.04803e-07
6.11699e-07
5.65362e-07
2.42957e-07
0
0
0
0
0
0
0
0
0
6.1874e-06
2.94251e-06
0
0
0
2.79909e-07
4.99907e-07
5.08353e-07
2.83511e-07
1.29617e-07
8.84799e-07
2.17223e-06
3.41812e-06
2.30556e-06
9.76419e-07
5.92495e-07
3.16474e-07
1.56837e-07
8.40755e-08
4.6811e-08
2.10169e-08
4.22267e-10
0
0
0
0
0
0
0
0
0
0
0
0
0
0
0
0
0
9.58479e-08
5.63379e-07
1.17381e-06
1.96707e-06
2.84344e-06
3.43889e-06
3.17722e-06
2.34682e-06
1.5083e-06
1.00891e-06
7.05797e-07
4.78845e-07
3.04906e-07
2.64642e-07
2.40268e-07
1.26693e-07
8.44721e-08
4.56953e-08
0
0
0
0
0
2.8514e-08
7.47766e-08
1.28289e-07
2.3757e-07
4.0103e-07
5.14894e-07
5.32409e-07
4.67349e-07
4.30808e-07
4.22251e-07
4.2469e-07
4.3003e-07
5.87165e-07
8.69426e-07
1.00453e-06
1.00319e-06
9.06052e-07
7.50556e-07
7.02954e-07
7.81615e-07
8.33554e-07
7.98776e-07
7.32292e-07
6.22246e-07
4.77464e-07
3.23169e-07
3.08521e-07
4.77091e-07
5.27054e-07
4.89577e-07
4.77095e-07
4.00568e-07
6.0912e-08
0
0
5.30814e-08
3.48286e-08
1.40567e-08
0
0
3.31017e-07
3.7672e-07
3.46937e-07
2.73082e-07
4.87964e-09
0
0
0
0
0
0
0
0
0
0
2.58186e-07
6.45933e-07
2.53352e-06
1.56026e-06
0
0
0
0
2.42093e-06
1.33409e-05
1.28774e-05
1.00927e-06
0
0
0
0
0
0
0
0
0
0
0
0
0
1.09223e-07
3.26112e-07
4.12847e-07
4.41789e-07
2.99221e-07
0
0
4.34772e-07
9.60761e-07
8.44002e-07
5.43129e-07
3.95701e-07
2.50227e-07
2.97918e-08
3.9738e-08
6.42152e-08
7.57792e-08
6.06145e-08
1.91262e-08
3.52292e-08
8.5949e-08
1.45872e-07
1.9132e-07
2.29321e-07
2.86004e-07
3.78778e-07
4.89503e-07
6.01945e-07
7.06395e-07
7.88397e-07
9.20293e-07
1.0993e-06
1.29701e-06
1.26255e-06
8.72479e-07
5.61035e-07
1.0186e-06
1.98223e-06
2.86449e-06
2.69332e-06
0
5.85542e-07
7.15996e-07
2.83008e-07
1.69749e-07
3.27254e-07
4.7327e-07
9.17847e-07
1.76892e-06
2.48649e-06
4.05563e-06
4.5509e-06
1.31892e-06
6.27921e-07
3.13554e-07
1.5686e-07
8.27377e-08
4.1532e-08
1.55602e-08
0
0
0
0
0
0
0
0
0
0
0
0
0
0
0
0
0
0
9.99046e-07
1.86825e-06
1.79381e-06
1.48525e-06
1.21612e-06
9.60604e-07
7.13612e-07
5.25773e-07
4.02237e-07
3.40167e-07
3.15727e-07
2.98229e-07
2.46108e-07
1.18757e-07
4.58825e-08
1.17093e-08
0
0
0
0
0
0
0
4.8763e-08
1.33835e-07
2.11706e-07
3.19432e-07
4.90358e-07
6.45664e-07
7.03764e-07
6.70504e-07
6.04089e-07
5.56521e-07
5.29089e-07
5.01878e-07
5.35876e-07
7.39612e-07
8.83157e-07
9.06795e-07
8.4282e-07
7.059e-07
5.69468e-07
5.45248e-07
6.39455e-07
6.99348e-07
6.70282e-07
5.74909e-07
4.67638e-07
3.24365e-07
1.86087e-07
2.26479e-07
3.50047e-07
4.00123e-07
4.12421e-07
3.66153e-07
1.34432e-07
0
0
0
0
0
0
0
2.83832e-07
3.7646e-07
4.06844e-07
3.76899e-07
0
0
0
0
0
0
0
0
0
0
0
6.53748e-07
1.35319e-06
3.70465e-06
3.30899e-06
2.81598e-06
1.51017e-06
1.98209e-07
0
0
5.43049e-06
4.08788e-06
0
0
0
2.40177e-07
1.60911e-07
0
0
0
0
0
0
0
0
0
0
4.2607e-08
2.71321e-07
3.5895e-07
2.51966e-07
0
0
1.95825e-07
9.45652e-07
7.77034e-07
2.6492e-07
3.47139e-08
5.65751e-08
0
6.24564e-08
1.12957e-07
9.80078e-08
6.1589e-08
0
0
0
2.11715e-08
7.6754e-08
1.24525e-07
1.74645e-07
2.49429e-07
3.70702e-07
5.77663e-07
8.88173e-07
1.27036e-06
1.65852e-06
1.95159e-06
2.04692e-06
1.72675e-06
1.22654e-06
1.1478e-06
1.38653e-06
1.21081e-06
1.18027e-06
1.43849e-06
1.9681e-06
2.77393e-06
2.10569e-06
5.73601e-07
2.29509e-07
2.86157e-07
3.63653e-07
6.7399e-07
1.10298e-06
1.61207e-06
2.93295e-06
4.02938e-06
1.33551e-06
6.37238e-07
3.30153e-07
1.77415e-07
9.69613e-08
5.07145e-08
2.15584e-08
0
0
0
0
0
0
0
0
0
0
0
0
0
0
0
0
0
2.18154e-07
5.79679e-07
5.63651e-07
4.82866e-07
4.16732e-07
3.73411e-07
3.35757e-07
3.01445e-07
2.77143e-07
2.59147e-07
2.55253e-07
2.79621e-07
3.56688e-07
3.60525e-07
0
0
0
0
0
0
0
0
0
0
5.75694e-08
1.97265e-07
3.38819e-07
4.72965e-07
6.48953e-07
8.43321e-07
9.32942e-07
9.12064e-07
8.2991e-07
7.4677e-07
6.71566e-07
6.20563e-07
5.82065e-07
6.67234e-07
7.80299e-07
8.26045e-07
8.03268e-07
7.09203e-07
5.53279e-07
4.41041e-07
4.64035e-07
5.53192e-07
5.65729e-07
5.04716e-07
4.27832e-07
3.3173e-07
1.74802e-07
1.21084e-07
2.07992e-07
2.96755e-07
3.42175e-07
3.28215e-07
1.81709e-07
0
0
0
0
0
0
0
9.91692e-08
2.96763e-07
3.82867e-07
3.23454e-07
0
2.67323e-08
2.95435e-07
5.49241e-08
0
0
0
0
0
0
0
1.12806e-06
2.11258e-06
3.3208e-06
2.5561e-06
2.54664e-06
1.90853e-06
1.05262e-06
4.76752e-07
0
1.66227e-07
0
0
0
2.7787e-07
8.43103e-07
5.05732e-07
1.85147e-07
1.0037e-07
1.08162e-07
1.60874e-07
1.4863e-07
9.37324e-09
0
0
0
0
0
5.87023e-08
2.38557e-07
2.04388e-07
0
0
0
8.05217e-07
6.62454e-07
4.16011e-08
0
0
0
7.89574e-08
1.60261e-07
1.22704e-07
7.7128e-08
0
0
0
0
0
0
4.98441e-08
1.29763e-07
2.77833e-07
5.52601e-07
9.65062e-07
1.43999e-06
1.89613e-06
2.20594e-06
2.13976e-06
1.65257e-06
1.23397e-06
1.19484e-06
8.42617e-07
4.43478e-07
5.27583e-07
5.71618e-07
7.95271e-07
2.21493e-06
3.62147e-06
1.5978e-06
7.4032e-07
3.55219e-07
2.03188e-07
3.07683e-07
5.63512e-07
1.02764e-06
2.08084e-06
2.71567e-06
1.01442e-06
5.57483e-07
3.30657e-07
1.9453e-07
1.09814e-07
6.3125e-08
4.05107e-08
2.60313e-08
9.64459e-09
0
0
0
0
0
0
0
0
0
0
0
0
0
0
0
4.62606e-07
7.81764e-07
6.56575e-07
5.11719e-07
4.14072e-07
3.5484e-07
3.1887e-07
3.02688e-07
3.02762e-07
3.06637e-07
3.10345e-07
3.25998e-07
3.80946e-07
2.76882e-08
0
0
0
0
0
0
0
0
0
0
4.91589e-08
2.541e-07
5.20499e-07
7.33303e-07
9.34603e-07
1.17401e-06
1.29316e-06
1.23892e-06
1.11565e-06
9.94863e-07
8.61217e-07
7.68901e-07
6.94061e-07
6.75778e-07
7.29172e-07
7.72635e-07
7.81317e-07
7.30603e-07
5.93478e-07
4.44279e-07
3.76338e-07
4.1612e-07
4.45837e-07
4.1145e-07
3.56226e-07
2.95018e-07
1.72678e-07
8.08939e-08
1.24962e-07
2.07835e-07
2.66181e-07
2.74139e-07
1.85876e-07
0
0
0
0
0
0
0
0
1.07043e-07
2.87636e-07
1.61839e-07
0
5.01901e-07
8.04853e-07
3.27193e-07
0
0
0
0
0
0
2.44972e-08
1.47891e-06
2.63713e-06
1.78321e-06
8.28874e-07
8.50582e-07
7.24408e-07
5.90626e-07
5.25767e-07
1.03681e-07
0
0
0
0
1.39203e-06
9.21349e-07
4.69515e-07
2.73535e-07
3.12836e-07
4.17798e-07
4.85386e-07
3.9933e-07
1.89794e-07
9.36922e-08
0
0
0
0
0
4.59981e-08
1.03375e-07
0
0
0
4.77909e-07
4.91234e-07
0
0
0
0
4.68838e-08
1.69451e-07
1.31068e-07