/*--------------------------------*- C++ -*----------------------------------*\
  =========                 |
  \\      /  F ield         | OpenFOAM: The Open Source CFD Toolbox
   \\    /   O peration     | Website:  https://openfoam.org
    \\  /    A nd           | Version:  9
     \\/     M anipulation  |
\*---------------------------------------------------------------------------*/
FoamFile
{
    format      ascii;
    class       surfaceScalarField;
    location    "0.043";
    object      phi;
}
// * * * * * * * * * * * * * * * * * * * * * * * * * * * * * * * * * * * * * //

dimensions      [0 3 -1 0 0 0 0];

internalField   nonuniform List<scalar> 
24170
(
3.18211e-06
5.36933e-08
3.08e-06
1.02113e-07
2.95153e-06
1.28472e-07
2.82443e-06
1.27098e-07
2.72674e-06
9.76867e-08
2.66628e-06
6.04588e-08
2.63425e-06
3.20335e-08
2.61842e-06
1.58285e-08
2.60196e-06
1.64569e-08
2.57494e-06
2.70232e-08
2.53682e-06
3.81173e-08
2.50706e-06
2.97593e-08
2.48963e-06
1.74368e-08
2.50587e-06
-1.62456e-08
2.56415e-06
-5.82791e-08
2.64741e-06
-8.32596e-08
2.88933e-06
-2.4192e-07
-3.02704e-07
3.19203e-06
3.44125e-06
6.6883e-08
3.49282e-06
5.05452e-08
3.52389e-06
9.73976e-08
3.53117e-06
1.19826e-07
3.53064e-06
9.82114e-08
3.53018e-06
6.09213e-08
3.52723e-06
3.49873e-08
3.52242e-06
2.0638e-08
3.52393e-06
1.49478e-08
3.5392e-06
1.17497e-08
3.56996e-06
7.3535e-09
3.61554e-06
-1.58171e-08
3.67229e-06
-3.93102e-08
3.74486e-06
-8.88153e-08
3.82667e-06
-1.40092e-07
3.95975e-06
-2.16337e-07
4.07889e-06
-3.61065e-07
-5.3537e-07
4.31156e-06
3.68234e-06
3.81378e-08
3.72842e-06
4.46503e-09
3.75483e-06
7.09874e-08
3.78482e-06
8.98397e-08
3.82021e-06
6.28212e-08
3.85088e-06
3.02551e-08
3.87136e-06
1.45034e-08
3.88008e-06
1.19192e-08
3.88348e-06
1.15474e-08
3.88986e-06
5.37082e-09
3.90975e-06
-1.25391e-08
3.94081e-06
-4.68731e-08
3.99114e-06
-8.96391e-08
4.04748e-06
-1.45156e-07
4.12555e-06
-2.1816e-07
4.21813e-06
-3.08921e-07
4.31328e-06
-4.56216e-07
-6.62541e-07
4.44045e-06
4.00658e-06
-1.01837e-08
4.00477e-06
6.27067e-09
4.01603e-06
5.97296e-08
4.04455e-06
6.13226e-08
4.08037e-06
2.69976e-08
4.1087e-06
1.92401e-09
4.12662e-06
-3.4167e-09
4.13928e-06
-7.35988e-10
4.15343e-06
-2.59917e-09
4.17515e-06
-1.6352e-08
4.20454e-06
-4.19317e-08
4.24019e-06
-8.25191e-08
4.28204e-06
-1.31492e-07
4.33097e-06
-1.94087e-07
4.38953e-06
-2.76717e-07
4.4636e-06
-3.82988e-07
4.54173e-06
-5.34346e-07
-7.41719e-07
4.6209e-06
4.31396e-06
1.77349e-08
4.32225e-06
-2.0148e-09
4.35302e-06
2.89561e-08
4.37726e-06
3.70878e-08
4.37689e-06
2.73671e-08
4.35587e-06
2.29391e-08
4.33433e-06
1.81195e-08
4.32955e-06
4.05266e-09
4.34855e-06
-2.16051e-08
4.3885e-06
-5.63024e-08
4.44293e-06
-9.63587e-08
4.50401e-06
-1.43596e-07
4.56848e-06
-1.95965e-07
4.63392e-06
-2.59531e-07
4.69974e-06
-3.42533e-07
4.76974e-06
-4.52985e-07
4.83465e-06
-5.9926e-07
-7.92233e-07
4.88516e-06
4.52185e-06
2.18841e-08
4.56697e-06
-4.71381e-08
4.58162e-06
1.43076e-08
4.56382e-06
5.48868e-08
4.55572e-06
3.54676e-08
4.58098e-06
-2.31906e-09
4.63097e-06
-3.18675e-08
4.68587e-06
-5.08519e-08
4.73227e-06
-6.80013e-08
4.76891e-06
-9.29421e-08
4.8012e-06
-1.2865e-07
4.83511e-06
-1.77505e-07
4.87603e-06
-2.36882e-07
4.92544e-06
-3.08941e-07
4.98147e-06
-3.98565e-07
5.04172e-06
-5.13238e-07
5.09647e-06
-6.5401e-07
-8.29169e-07
5.13341e-06
4.89063e-06
-8.18528e-10
4.88769e-06
-4.41924e-08
4.90787e-06
-5.87855e-09
4.91918e-06
4.35815e-08
4.92311e-06
3.15328e-08
4.93815e-06
-1.73525e-08
4.97396e-06
-6.76841e-08
5.02483e-06
-1.01721e-07
5.0781e-06
-1.21271e-07
5.12401e-06
-1.38851e-07
5.16003e-06
-1.64673e-07
5.19004e-06
-2.07515e-07
5.22158e-06
-2.68413e-07
5.26042e-06
-3.47786e-07
5.30662e-06
-4.44766e-07
5.35668e-06
-5.63299e-07
5.40201e-06
-6.99341e-07
-8.57874e-07
5.43072e-06
5.20039e-06
8.01315e-08
5.24254e-06
-8.63393e-08
5.26627e-06
-2.96144e-08
5.27366e-06
3.61966e-08
5.28026e-06
2.49277e-08
5.28515e-06
-2.22393e-08
5.28942e-06
-7.19601e-08
5.29797e-06
-1.10268e-07
5.31584e-06
-1.39143e-07
5.34493e-06
-1.67942e-07
5.38535e-06
-2.05087e-07
5.43596e-06
-2.58131e-07
5.49556e-06
-3.28008e-07
5.56186e-06
-4.14091e-07
5.62967e-06
-5.12573e-07
5.69215e-06
-6.25776e-07
5.74121e-06
-7.48408e-07
-8.83404e-07
5.76674e-06
5.50382e-06
-5.35161e-08
5.51208e-06
-9.45983e-08
5.52254e-06
-4.00692e-08
5.57285e-06
-1.4111e-08
5.64648e-06
-4.87058e-08
5.71189e-06
-8.76548e-08
5.75824e-06
-1.18304e-07
5.79267e-06
-1.44699e-07
5.82587e-06
-1.72346e-07
5.86138e-06
-2.03452e-07
5.89713e-06
-2.40833e-07
5.93045e-06
-2.91453e-07
5.96145e-06
-3.59005e-07
5.99191e-06
-4.44553e-07
6.02187e-06
-5.42537e-07
6.04824e-06
-6.52146e-07
6.06516e-06
-7.65325e-07
-8.81906e-07
6.06366e-06
6.03913e-06
-9.87717e-08
6.00305e-06
-5.85109e-08
5.9525e-06
1.04794e-08
5.96108e-06
-2.26962e-08
6.02408e-06
-1.11703e-07
6.11293e-06
-1.76507e-07
6.18268e-06
-1.88055e-07
6.2092e-06
-1.71211e-07
6.19706e-06
-1.60206e-07
6.17126e-06
-1.77661e-07
6.1578e-06
-2.27365e-07
6.17027e-06
-3.03929e-07
6.20875e-06
-3.97487e-07
6.26452e-06
-5.00318e-07
6.32491e-06
-6.02925e-07
6.37634e-06
-7.03582e-07
6.40706e-06
-7.96047e-07
-8.83748e-07
6.40891e-06
6.27102e-06
3.43012e-08
6.29017e-06
-7.76568e-08
6.36591e-06
-6.52616e-08
6.429e-06
-8.57894e-08
6.47272e-06
-1.55422e-07
6.5029e-06
-2.06688e-07
6.52767e-06
-2.12819e-07
6.54879e-06
-1.92331e-07
6.56799e-06
-1.79413e-07
6.58898e-06
-1.98646e-07
6.61663e-06
-2.55019e-07
6.65286e-06
-3.40158e-07
6.69458e-06
-4.39207e-07
6.73455e-06
-5.40283e-07
6.76447e-06
-6.32847e-07
6.77685e-06
-7.1596e-07
6.76768e-06
-7.8688e-07
-8.52353e-07
6.73628e-06
5.69745e-06
-4.4145e-08
5.74188e-06
-1.22093e-07
5.75414e-06
-7.75246e-08
5.76463e-06
-9.62718e-08
5.76416e-06
-1.54958e-07
5.76115e-06
-2.03678e-07
5.76895e-06
-2.20614e-07
5.79045e-06
-2.13832e-07
5.82236e-06
-2.11325e-07
5.8616e-06
-2.37881e-07
5.90554e-06
-2.98964e-07
5.95045e-06
-3.85065e-07
5.99058e-06
-4.79341e-07
6.0199e-06
-5.69598e-07
6.03409e-06
-6.47036e-07
6.03109e-06
-7.12965e-07
6.01098e-06
-7.66768e-07
-8.17166e-07
5.97579e-06
6.90472e-06
-1.82755e-07
6.976e-06
-1.93371e-07
7.04396e-06
-1.45486e-07
7.08894e-06
-1.41253e-07
7.11123e-06
-1.77243e-07
7.12468e-06
-2.17126e-07
7.13858e-06
-2.3452e-07
7.1633e-06
-2.38552e-07
7.20711e-06
-2.55134e-07
7.26974e-06
-3.00513e-07
7.34053e-06
-3.69748e-07
7.40254e-06
-4.4708e-07
7.44021e-06
-5.1701e-07
7.44542e-06
-5.74804e-07
7.41948e-06
-6.21097e-07
7.37043e-06
-6.63916e-07
7.30806e-06
-7.04402e-07
-7.49293e-07
7.24019e-06
8.73767e-06
-1.77022e-07
8.62411e-06
-7.98107e-08
8.55809e-06
-7.94637e-08
8.53257e-06
-1.1574e-07
8.54247e-06
-1.87141e-07
8.5799e-06
-2.54552e-07
8.633e-06
-2.87623e-07
8.69248e-06
-2.98032e-07
8.75148e-06
-3.14132e-07
8.80362e-06
-3.5266e-07
8.84381e-06
-4.09935e-07
8.86928e-06
-4.72549e-07
8.87999e-06
-5.27716e-07
8.8773e-06
-5.72121e-07
8.86304e-06
-6.06829e-07
8.83798e-06
-6.38854e-07
8.80204e-06
-6.68467e-07
-6.99815e-07
8.75256e-06
1.01591e-05
-2.12348e-07
1.02066e-05
-1.2727e-07
1.02725e-05
-1.45377e-07
1.03687e-05
-2.11985e-07
1.04602e-05
-2.78644e-07
1.0521e-05
-3.15343e-07
1.05545e-05
-3.21112e-07
1.05737e-05
-3.17241e-07
1.0583e-05
-3.23413e-07
1.05798e-05
-3.49525e-07
1.05645e-05
-3.94566e-07
1.05424e-05
-4.50492e-07
1.05212e-05
-5.06488e-07
1.05046e-05
-5.55547e-07
1.04914e-05
-5.93608e-07
1.04752e-05
-6.22656e-07
1.04492e-05
-6.42494e-07
-6.57521e-07
1.04069e-05
1.27029e-05
-4.85056e-07
1.2968e-05
-3.92382e-07
1.30522e-05
-2.2956e-07
1.30625e-05
-2.22279e-07
1.30456e-05
-2.6175e-07
1.30044e-05
-2.74156e-07
1.29504e-05
-2.67077e-07
1.29038e-05
-2.7064e-07
1.28797e-05
-2.99294e-07
1.28764e-05
-3.46221e-07
1.28788e-05
-3.97053e-07
1.28705e-05
-4.42172e-07
1.28422e-05
-4.78196e-07
1.27931e-05
-5.06458e-07
1.2728e-05
-5.28503e-07
1.2653e-05
-5.47637e-07
1.25732e-05
-5.62686e-07
-5.76148e-07
1.24918e-05
1.58681e-05
-3.42817e-07
1.56963e-05
-2.20552e-07
1.54855e-05
-1.878e-08
1.53266e-05
-6.33854e-08
1.52526e-05
-1.87766e-07
1.52774e-05
-2.98968e-07
1.53567e-05
-3.4639e-07
1.54394e-05
-3.53315e-07
1.54934e-05
-3.53309e-07
1.55115e-05
-3.64341e-07
1.55031e-05
-3.8862e-07
1.54826e-05
-4.2163e-07
1.546e-05
-4.55611e-07
1.54373e-05
-4.83784e-07
1.541e-05
-5.01211e-07
1.53715e-05
-5.0911e-07
1.53161e-05
-5.07331e-07
-5.01732e-07
1.52417e-05
1.91762e-05
-7.29436e-08
1.90168e-05
-6.11077e-08
1.90564e-05
-5.84681e-08
1.91144e-05
-1.21359e-07
1.91091e-05
-1.82416e-07
1.90509e-05
-2.40834e-07
1.90042e-05
-2.99648e-07
1.89914e-05
-3.40566e-07
1.89918e-05
-3.53676e-07
1.89788e-05
-3.51296e-07
1.89411e-05
-3.50994e-07
1.88815e-05
-3.62032e-07
1.88085e-05
-3.82526e-07
1.87299e-05
-4.05271e-07
1.86509e-05
-4.22164e-07
1.85718e-05
-4.30058e-07
1.84922e-05
-4.27656e-07
-4.18422e-07
1.84089e-05
2.34131e-05
-5.41872e-08
2.33361e-05
1.59549e-08
2.33421e-05
-6.44995e-08
2.33569e-05
-1.36154e-07
2.3353e-05
-1.78556e-07
2.33432e-05
-2.31001e-07
2.33409e-05
-2.97373e-07
2.33518e-05
-3.51488e-07
2.33668e-05
-3.68621e-07
2.33657e-05
-3.50238e-07
2.33286e-05
-3.13922e-07
2.32452e-05
-2.78551e-07
2.31188e-05
-2.56135e-07
2.29641e-05
-2.50605e-07
2.28019e-05
-2.59971e-07
2.26501e-05
-2.78202e-07
2.25214e-05
-2.99016e-07
-3.16247e-07
2.24192e-05
1.71938e-05
2.32524e-07
1.70275e-05
1.82254e-07
1.69757e-05
-1.27223e-08
1.69656e-05
-1.26074e-07
1.69474e-05
-1.60338e-07
1.69036e-05
-1.87215e-07
1.68546e-05
-2.48366e-07
1.68185e-05
-3.1541e-07
1.67975e-05
-3.4757e-07
1.67796e-05
-3.32297e-07
1.67494e-05
-2.83763e-07
1.66968e-05
-2.25915e-07
1.662e-05
-1.79407e-07
1.6525e-05
-1.55572e-07
1.64211e-05
-1.56036e-07
1.63173e-05
-1.74475e-07
1.62205e-05
-2.02186e-07
-2.29654e-07
1.61339e-05
1.48278e-05
1.49981e-07
1.48959e-05
1.14119e-07
1.48862e-05
-3.06108e-09
1.48673e-05
-1.07158e-07
1.48556e-05
-1.4856e-07
1.48208e-05
-1.52497e-07
1.47386e-05
-1.66109e-07
1.46257e-05
-2.02495e-07
1.45186e-05
-2.40483e-07
1.44421e-05
-2.55809e-07
1.43991e-05
-2.40762e-07
1.43781e-05
-2.04946e-07
1.43645e-05
-1.65752e-07
1.4347e-05
-1.38141e-07
1.43205e-05
-1.29533e-07
1.42841e-05
-1.37997e-07
1.42393e-05
-1.57391e-07
-1.80844e-07
1.41904e-05
1.2944e-05
8.6848e-08
1.29721e-05
8.59998e-08
1.29834e-05
-1.43654e-08
1.30043e-05
-1.28011e-07
1.30055e-05
-1.49762e-07
1.29745e-05
-1.21447e-07
1.29079e-05
-9.9577e-08
1.28171e-05
-1.11704e-07
1.27231e-05
-1.46448e-07
1.26452e-05
-1.77906e-07
1.25968e-05
-1.92355e-07
1.2582e-05
-1.90153e-07
1.25939e-05
-1.77685e-07
1.26172e-05
-1.61379e-07
1.26351e-05
-1.47503e-07
1.26367e-05
-1.39583e-07
1.2618e-05
-1.38642e-07
-1.44694e-07
1.25818e-05
1.10977e-05
1.139e-07
1.10916e-05
9.20749e-08
1.11315e-05
-5.41956e-08
1.11597e-05
-1.56227e-07
1.117e-05
-1.60067e-07
1.11605e-05
-1.11957e-07
1.11362e-05
-7.52749e-08
1.11046e-05
-8.01127e-08
1.10693e-05
-1.11147e-07
1.10308e-05
-1.39446e-07
1.09893e-05
-1.50766e-07
1.09461e-05
-1.47035e-07
1.09046e-05
-1.36166e-07
1.08675e-05
-1.24296e-07
1.08355e-05
-1.1548e-07
1.08075e-05
-1.11601e-07
1.07816e-05
-1.12693e-07
-1.18968e-07
1.07559e-05
9.87102e-06
8.66368e-08
9.76903e-06
1.94064e-07
9.69111e-06
2.37281e-08
9.65746e-06
-1.22579e-07
9.67498e-06
-1.77584e-07
9.71271e-06
-1.49691e-07
9.72346e-06
-8.60251e-08
9.68908e-06
-4.57298e-08
9.62825e-06
-5.03187e-08
9.56812e-06
-7.93114e-08
9.52449e-06
-1.07141e-07
9.50036e-06
-1.22906e-07
9.49198e-06
-1.27784e-07
9.49488e-06
-1.27198e-07
9.5053e-06
-1.25891e-07
9.52007e-06
-1.26375e-07
9.53605e-06
-1.28676e-07
-1.3085e-07
9.54793e-06
8.26209e-06
1.32165e-07
8.33747e-06
1.18682e-07
8.33443e-06
2.67648e-08
8.30912e-06
-9.7266e-08
8.31799e-06
-1.8646e-07
8.36044e-06
-1.92134e-07
8.3999e-06
-1.25489e-07
8.3986e-06
-4.44272e-08
8.34788e-06
3.98766e-10
8.2707e-06
-2.12813e-09
8.20014e-06
-3.65823e-08
8.15801e-06
-8.07817e-08
8.14811e-06
-1.17878e-07
8.16209e-06
-1.41179e-07
8.18735e-06
-1.5115e-07
8.21278e-06
-1.51809e-07
8.23076e-06
-1.46658e-07
-1.38045e-07
8.23796e-06
7.23578e-06
2.62952e-07
7.34349e-06
1.09706e-08
7.42547e-06
-5.52194e-08
7.4245e-06
-9.62899e-08
7.36336e-06
-1.25319e-07
7.28668e-06
-1.15453e-07
7.23954e-06
-7.83543e-08
7.23456e-06
-3.94486e-08
7.25909e-06
-2.41272e-08
7.29649e-06
-3.95297e-08
7.33415e-06
-7.42448e-08
7.36424e-06
-1.1087e-07
7.38265e-06
-1.36286e-07
7.38826e-06
-1.46794e-07
7.38275e-06
-1.45637e-07
7.36918e-06
-1.38241e-07
7.35129e-06
-1.28761e-07
-1.18687e-07
7.33193e-06
6.3801e-06
1.06968e-07
6.41349e-06
-2.24231e-08
6.39224e-06
-3.39617e-08
6.37835e-06
-8.24001e-08
6.3715e-06
-1.18474e-07
6.3603e-06
-1.04256e-07
6.34846e-06
-6.6514e-08
6.34796e-06
-3.89485e-08
6.36149e-06
-3.76574e-08
6.3834e-06
-6.14338e-08
6.40671e-06
-9.75524e-08
6.42641e-06
-1.3057e-07
6.43904e-06
-1.48923e-07
6.44114e-06
-1.48893e-07
6.42994e-06
-1.34436e-07
6.40468e-06
-1.12977e-07
6.36717e-06
-9.12546e-08
-7.39878e-08
6.32247e-06
5.52113e-06
3.24185e-08
5.52327e-06
-2.45567e-08
5.55706e-06
-6.77535e-08
5.58841e-06
-1.13751e-07
5.60704e-06
-1.37105e-07
5.60978e-06
-1.06993e-07
5.60263e-06
-5.93693e-08
5.59771e-06
-3.40298e-08
5.60056e-06
-4.05055e-08
5.60501e-06
-6.58822e-08
5.59952e-06
-9.20632e-08
5.57757e-06
-1.08618e-07
5.54187e-06
-1.13224e-07
5.50169e-06
-1.08716e-07
5.4664e-06
-9.91488e-08
5.4412e-06
-8.77694e-08
5.42637e-06
-7.64292e-08
-6.58204e-08
5.4182e-06
4.90494e-06
-2.97668e-08
4.92733e-06
-4.6952e-08
4.94138e-06
-8.18012e-08
4.92658e-06
-9.89495e-08
4.88119e-06
-9.17122e-08
4.84103e-06
-6.68334e-08
4.83247e-06
-5.08074e-08
4.85321e-06
-5.47725e-08
4.88129e-06
-6.85887e-08
4.89345e-06
-7.8043e-08
4.87876e-06
-7.7372e-08
4.84049e-06
-7.03437e-08
4.7907e-06
-6.34344e-08
4.74279e-06
-6.08131e-08
4.70565e-06
-6.20076e-08
4.68201e-06
-6.41283e-08
4.66975e-06
-6.41689e-08
-6.014e-08
4.66407e-06
4.15223e-06
4.10528e-06
4.02347e-06
3.92453e-06
3.83281e-06
3.76598e-06
3.71517e-06
3.6604e-06
3.59181e-06
3.51377e-06
3.4364e-06
3.36605e-06
3.30262e-06
3.2418e-06
3.1798e-06
3.11567e-06
3.0515e-06
2.99136e-06
-7.06448e-07
7.06448e-07
-1.21127e-06
5.0482e-07
-1.54794e-06
3.3667e-07
-1.65275e-06
1.0481e-07
-1.3774e-06
-2.75344e-07
-7.76928e-07
-6.00476e-07
6.7087e-08
-8.44015e-07
1.02794e-06
-9.60848e-07
2.02878e-06
-1.00085e-06
3.00654e-06
-9.77756e-07
3.92114e-06
-9.14601e-07
4.7505e-06
-8.29365e-07
5.48475e-06
-7.34252e-07
6.12105e-06
-6.36298e-07
6.66091e-06
-5.39857e-07
7.10741e-06
-4.46495e-07
7.46252e-06
-3.55119e-07
7.72997e-06
-2.6745e-07
7.90526e-06
-1.75286e-07
7.99184e-06
-8.65822e-08
7.97554e-06
1.63072e-08
7.84738e-06
1.28151e-07
7.58811e-06
2.59275e-07
7.1838e-06
4.04306e-07
6.64299e-06
5.40809e-07
5.88599e-06
7.57004e-07
5.01879e-06
8.67199e-07
3.88037e-06
1.13843e-06
2.57199e-06
1.30838e-06
1.46943e-06
1.10256e-06
5.16912e-07
9.52514e-07
-2.91402e-07
8.08314e-07
-8.97952e-07
6.0655e-07
-1.43496e-06
5.37005e-07
-1.97246e-06
5.37503e-07
-2.41645e-06
4.43993e-07
-2.53423e-06
1.17776e-07
-2.20718e-06
-3.27049e-07
-1.4272e-06
-7.79977e-07
-1.89255e-07
-1.23795e-06
1.15704e-06
-1.34629e-06
2.17213e-06
-1.0151e-06
2.67302e-06
-5.00886e-07
2.52042e-06
1.52595e-07
2.09501e-06
4.25417e-07
1.82662e-06
2.68384e-07
1.75283e-06
7.3791e-08
1.73731e-06
1.5517e-08
1.37046e-06
3.66855e-07
8.83402e-08
1.28212e-06
-1.55434e-06
1.64268e-06
-3.14962e-06
1.59527e-06
-4.63859e-06
1.48897e-06
-5.99889e-06
1.3603e-06
-7.2162e-06
1.21731e-06
-8.29492e-06
1.07873e-06
-9.2388e-06
9.4388e-07
-1.00581e-05
8.19338e-07
-1.07605e-05
7.02349e-07
-1.13546e-05
5.94111e-07
-1.1847e-05
4.92378e-07
-1.22443e-05
3.97336e-07
-1.25525e-05
3.08193e-07
-1.27781e-05
2.25614e-07
-1.29281e-05
1.50006e-07
-1.30105e-05
8.24049e-08
-1.30339e-05
2.34029e-08
-1.3011e-05
-2.29229e-08
-1.29527e-05
-5.83544e-08
-1.28693e-05
-8.33266e-08
-1.27726e-05
-9.67605e-08
-1.26747e-05
-9.78444e-08
-1.25896e-05
-8.51315e-08
-1.25323e-05
-5.7296e-08
-1.25176e-05
-1.46788e-08
-1.25591e-05
4.15028e-08
-1.2666e-05
1.06833e-07
-1.2839e-05
1.73021e-07
-1.30558e-05
2.16841e-07
-1.32756e-05
2.19737e-07
-1.34419e-05
1.66322e-07
-1.34956e-05
5.37096e-08
-1.3402e-05
-9.35403e-08
-1.31618e-05
-2.40227e-07
-1.27739e-05
-3.87915e-07
-1.22375e-05
-5.36451e-07
-1.1571e-05
-6.66445e-07
-1.08099e-05
-7.61069e-07
-9.99524e-06
-8.14695e-07
-9.16971e-06
-8.25534e-07
-8.37059e-06
-7.99121e-07
-7.62427e-06
-7.46318e-07
-6.94777e-06
-6.76501e-07
-6.34922e-06
-5.98553e-07
-5.82671e-06
-5.2251e-07
-5.3707e-06
-4.5601e-07
-4.96857e-06
-4.02131e-07
-4.60759e-06
-3.60976e-07
-4.27565e-06
-3.31936e-07
-3.96101e-06
-3.14641e-07
-3.65271e-06
-3.083e-07
-3.34208e-06
-3.10636e-07
-3.02319e-06
-3.18891e-07
-2.69288e-06
-3.30308e-07
-2.35005e-06
-3.42828e-07
-1.996e-06
-3.54045e-07
-1.63313e-06
-3.62876e-07
-1.26461e-06
-3.68521e-07
-8.93183e-07
-3.71424e-07
-5.20762e-07
-3.72421e-07
-1.48651e-07
-3.72111e-07
2.22467e-07
-3.71118e-07
5.91541e-07
-3.69073e-07
9.57863e-07
-3.66322e-07
1.32037e-06
-3.62506e-07
1.67745e-06
-3.57076e-07
2.02687e-06
-3.49429e-07
2.36594e-06
-3.39064e-07
2.69167e-06
-3.25729e-07
3.00118e-06
-3.09509e-07
3.29202e-06
-2.90846e-07
3.5625e-06
-2.70479e-07
3.81187e-06
-2.49367e-07
4.04038e-06
-2.28511e-07
4.24907e-06
-2.08687e-07
4.43942e-06
-1.90354e-07
4.61334e-06
-1.7392e-07
4.77307e-06
-1.59726e-07
4.91972e-06
-1.4665e-07
5.05044e-06
-1.30724e-07
5.15863e-06
-1.08191e-07
5.24082e-06
-8.2193e-08
5.30157e-06
-6.07419e-08
5.34366e-06
-4.20976e-08
5.35692e-06
-1.32608e-08
5.32528e-06
3.16475e-08
5.24464e-06
8.06381e-08
5.12779e-06
1.16852e-07
4.99731e-06
1.30473e-07
4.87175e-06
1.2556e-07
4.75412e-06
1.17636e-07
4.63559e-06
1.18523e-07
4.50875e-06
1.26845e-07
4.37621e-06
1.32537e-07
4.24844e-06
1.2777e-07
4.13647e-06
1.11975e-07
4.04631e-06
9.0162e-08
3.97757e-06
6.87334e-08
3.92494e-06
5.26275e-08
3.8803e-06
4.46467e-08
3.83582e-06
4.44762e-08
3.78605e-06
4.97707e-08
3.72738e-06
5.86691e-08
3.6564e-06
7.09801e-08
3.56941e-06
8.69943e-08
3.46497e-06
1.04438e-07
3.34701e-06
1.17958e-07
3.22476e-06
1.22248e-07
3.10882e-06
1.15939e-07
3.00661e-06
1.0221e-07
2.92002e-06
8.65929e-08
2.84666e-06
7.33649e-08
2.78262e-06
6.40315e-08
2.72481e-06
5.78137e-08
2.67168e-06
5.31349e-08
2.62306e-06
4.86122e-08
2.57915e-06
4.39148e-08
2.54007e-06
3.90806e-08
2.50485e-06
3.52214e-08
2.47256e-06
3.22887e-08
2.44056e-06
3.19947e-08
2.40823e-06
3.23327e-08
2.37115e-06
3.70845e-08
2.3311e-06
4.00465e-08
2.27833e-06
5.27698e-08
2.22109e-06
5.72394e-08
2.13304e-06
8.80474e-08
2.04219e-06
9.08555e-08
1.87148e-06
1.70707e-07
1.60291e-07
1.71119e-06
6.94917e-08
6.36956e-07
3.11259e-08
5.43186e-07
1.1655e-09
3.66631e-07
2.72795e-07
-1.6682e-07
8.69811e-07
-8.7236e-07
1.68e-06
-1.41066e-06
2.55536e-06
-1.71938e-06
3.41939e-06
-1.82488e-06
4.23166e-06
-1.81312e-06
4.9746e-06
-1.7207e-06
5.64206e-06
-1.58206e-06
6.23375e-06
-1.42106e-06
6.75205e-06
-1.25255e-06
7.20085e-06
-1.0851e-06
7.58422e-06
-9.23228e-07
7.9067e-06
-7.68971e-07
8.17203e-06
-6.20452e-07
8.38248e-06
-4.77894e-07
8.54159e-06
-3.34404e-07
8.6475e-06
-1.92492e-07
8.70804e-06
-4.42316e-08
8.70674e-06
1.29449e-07
8.6509e-06
3.15124e-07
8.5255e-06
5.29706e-07
8.31814e-06
7.4816e-07
8.04788e-06
1.02727e-06
7.63043e-06
1.28465e-06
7.18568e-06
1.58317e-06
6.61237e-06
1.88168e-06
5.67913e-06
2.03581e-06
4.49578e-06
2.13586e-06
3.29687e-06
2.00723e-06
2.23827e-06
1.66514e-06
1.38471e-06
1.39057e-06
7.17035e-07
1.20518e-06
2.37536e-07
9.23493e-07
-2.19029e-08
3.77215e-07
-8.88414e-08
-2.60111e-07
1.10072e-07
-9.78891e-07
6.74211e-07
-1.80209e-06
1.47315e-06
-2.14523e-06
2.0851e-06
-1.62704e-06
2.22239e-06
-6.38176e-07
2.08519e-06
2.89797e-07
1.72969e-06
7.80918e-07
1.32137e-06
6.76699e-07
3.2687e-07
1.06829e-06
-1.64525e-06
1.98764e-06
-3.5955e-06
2.3171e-06
-4.98026e-06
2.66688e-06
-6.08065e-06
2.74307e-06
-7.1301e-06
2.64473e-06
-8.07577e-06
2.43464e-06
-8.92183e-06
2.20636e-06
-9.66408e-06
1.95956e-06
-1.03172e-05
1.73184e-06
-1.08878e-05
1.51446e-06
-1.13858e-05
1.31735e-06
-1.18161e-05
1.13266e-06
-1.21832e-05
9.61194e-07
-1.24895e-05
7.98691e-07
-1.27374e-05
6.45238e-07
-1.29287e-05
4.99448e-07
-1.3066e-05
3.62918e-07
-1.31532e-05
2.37244e-07
-1.31961e-05
1.25273e-07
-1.31999e-05
2.72004e-08
-1.31698e-05
-5.29978e-08
-1.31136e-05
-1.14586e-07
-1.30408e-05
-1.56108e-07
-1.29616e-05
-1.7591e-07
-1.28868e-05
-1.72697e-07
-1.28267e-05
-1.45246e-07
-1.27912e-05
-9.2729e-08
-1.27903e-05
-1.56211e-08
-1.28314e-05
8.25705e-08
-1.29149e-05
1.90374e-07
-1.30294e-05
2.87527e-07
-1.31589e-05
3.46375e-07
-1.32771e-05
3.37918e-07
-1.33518e-05
2.41011e-07
-1.33494e-05
5.13558e-08
-1.32377e-05
-2.05337e-07
-1.29784e-05
-4.99438e-07
-1.25657e-05
-8.00625e-07
-1.20099e-05
-1.09229e-06
-1.13242e-05
-1.35212e-06
-1.05359e-05
-1.54942e-06
-9.69063e-06
-1.65993e-06
-8.83517e-06
-1.68099e-06
-8.00758e-06
-1.62671e-06
-7.23843e-06
-1.51547e-06
-6.54866e-06
-1.36627e-06
-5.94648e-06
-1.20074e-06
-5.42782e-06
-1.04117e-06
-4.98058e-06
-9.03252e-07
-4.58931e-06
-7.93403e-07
-4.23909e-06
-7.11192e-07
-3.91707e-06
-6.53959e-07
-3.61113e-06
-6.20582e-07
-3.30952e-06
-6.09907e-07
-3.0027e-06
-6.17455e-07
-2.68539e-06
-6.36199e-07
-2.35527e-06
-6.60425e-07
-2.01165e-06
-6.86456e-07
-1.65653e-06
-7.09161e-07
-1.29339e-06
-7.2602e-07
-9.26011e-07
-7.35896e-07
-5.57393e-07
-7.40042e-07
-1.89441e-07
-7.40374e-07
1.76707e-07
-7.38258e-07
5.40031e-07
-7.34442e-07
9.00524e-07
-7.29566e-07
1.25784e-06
-7.23634e-07
1.61126e-06
-7.15927e-07
1.95952e-06
-7.05341e-07
2.30079e-06
-6.90702e-07
2.63278e-06
-6.71049e-07
2.95294e-06
-6.45889e-07
3.2588e-06
-6.15365e-07
3.54827e-06
-5.80317e-07
3.82e-06
-5.42206e-07
4.07345e-06
-5.02822e-07
4.30875e-06
-4.63807e-07
4.52638e-06
-4.26318e-07
4.72742e-06
-3.91398e-07
4.91415e-06
-3.60649e-07
5.09004e-06
-3.35619e-07
5.25855e-06
-3.1516e-07
5.42087e-06
-2.93042e-07
5.57286e-06
-2.60177e-07
5.70294e-06
-2.12272e-07
5.79851e-06
-1.56319e-07
5.86354e-06
-1.07127e-07
5.92443e-06
-7.4152e-08
6.00532e-06
-4.92389e-08
6.09875e-06
-1.27883e-08
6.16944e-06
4.61626e-08
6.177e-06
1.22911e-07
6.11099e-06
1.91565e-07
5.99902e-06
2.29603e-07
5.88441e-06
2.33138e-07
5.79794e-06
2.13312e-07
5.74528e-06
1.85203e-07
5.7111e-06
1.61945e-07
5.67122e-06
1.51856e-07
5.60617e-06
1.5521e-07
5.5107e-06
1.64204e-07
5.394e-06
1.69331e-07
5.27181e-06
1.66837e-07
5.15819e-06
1.58099e-07
5.06179e-06
1.46166e-07
4.98645e-06
1.34013e-07
4.93247e-06
1.24957e-07
4.89719e-06
1.2227e-07
4.87503e-06
1.266e-07
4.85896e-06
1.34029e-07
4.843e-06
1.38209e-07
4.82385e-06
1.35089e-07
4.80159e-06
1.2447e-07
4.77797e-06
1.10213e-07
4.75457e-06
9.67634e-08
4.73148e-06
8.71274e-08
4.70714e-06
8.21485e-08
4.67926e-06
8.10138e-08
4.64626e-06
8.16165e-08
4.60792e-06
8.22533e-08
4.5657e-06
8.12984e-08
4.52141e-06
7.95149e-08
4.47729e-06
7.64116e-08
4.4339e-06
7.53838e-08
4.3924e-06
7.38279e-08
4.35087e-06
7.86139e-08
4.31057e-06
8.03507e-08
4.26603e-06
9.73058e-08
4.22046e-06
1.02807e-07
4.16235e-06
1.4616e-07
4.09728e-06
1.55928e-07
4.00531e-06
2.62676e-07
2.8412e-07
3.88148e-06
2.22728e-07
4.14228e-07
3.67896e-07
3.98018e-07
9.73459e-07
-2.38932e-07
1.90173e-06
-1.09509e-06
2.8187e-06
-1.78933e-06
3.60554e-06
-2.1975e-06
4.2446e-06
-2.35844e-06
4.76863e-06
-2.3489e-06
5.19621e-06
-2.2407e-06
5.55575e-06
-2.08024e-06
5.86718e-06
-1.89349e-06
6.14285e-06
-1.69673e-06
6.38908e-06
-1.49878e-06
6.61051e-06
-1.30653e-06
6.81158e-06
-1.12431e-06
6.99564e-06
-9.53029e-07
7.16509e-06
-7.89902e-07
7.31912e-06
-6.31919e-07
7.45625e-06
-4.71535e-07
7.56929e-06
-3.0553e-07
7.6496e-06
-1.24544e-07
7.71167e-06
6.73824e-08
7.75548e-06
2.71307e-07
7.77895e-06
5.0624e-07
7.77608e-06
7.51034e-07
7.7676e-06
1.03575e-06
7.71906e-06
1.33319e-06
7.65331e-06
1.64892e-06
7.53776e-06
1.99723e-06
7.28319e-06
2.29038e-06
6.89029e-06
2.52876e-06
6.24869e-06
2.64883e-06
5.32926e-06
2.58458e-06
4.3849e-06
2.33492e-06
3.62123e-06
1.96885e-06
3.09085e-06
1.45387e-06
2.74703e-06
7.21036e-07
2.39848e-06
8.84437e-08
2.09812e-06
-6.78531e-07
2.05736e-06
-1.76133e-06
2.11296e-06
-2.20083e-06
1.92158e-06
-1.43566e-06
1.38757e-06
-1.04167e-07
7.5155e-07
9.25816e-07
3.53883e-08
1.49708e-06
-1.43874e-06
2.15083e-06
-3.29736e-06
2.92691e-06
-4.68892e-06
3.3792e-06
-5.8981e-06
3.52628e-06
-6.79176e-06
3.56054e-06
-7.45581e-06
3.40713e-06
-8.0222e-06
3.21112e-06
-8.54047e-06
2.95291e-06
-9.03601e-06
2.7019e-06
-9.51629e-06
2.43984e-06
-9.98195e-06
2.1975e-06
-1.04286e-05
1.96115e-06
-1.08503e-05
1.73897e-06
-1.12392e-05
1.52163e-06
-1.15878e-05
1.30978e-06
-1.18883e-05
1.0992e-06
-1.21343e-05
8.91217e-07
-1.2322e-05
6.87185e-07
-1.24508e-05
4.91714e-07
-1.25229e-05
3.09296e-07
-1.25424e-05
1.44766e-07
-1.25186e-05
3.4344e-09
-1.24549e-05
-1.16656e-07
-1.23634e-05
-2.0615e-07
-1.22546e-05
-2.64908e-07
-1.21392e-05
-2.91329e-07
-1.20283e-05
-2.8361e-07
-1.19338e-05
-2.39653e-07
-1.18691e-05
-1.57504e-07
-1.18472e-05
-3.75208e-08
-1.18804e-05
1.15785e-07
-1.19707e-05
2.80726e-07
-1.2117e-05
4.33745e-07
-1.23044e-05
5.33787e-07
-1.2496e-05
5.29583e-07
-1.26371e-05
3.82056e-07
-1.26729e-05
8.7222e-08
-1.25737e-05
-3.04615e-07
-1.23357e-05
-7.37384e-07
-1.19513e-05
-1.18506e-06
-1.14234e-05
-1.62021e-06
-1.07666e-05
-2.00888e-06
-1.00095e-05
-2.30656e-06
-9.18833e-06
-2.48106e-06
-8.34329e-06
-2.52604e-06
-7.51543e-06
-2.45457e-06
-6.73991e-06
-2.29099e-06
-6.04066e-06
-2.06552e-06
-5.43017e-06
-1.81122e-06
-4.90887e-06
-1.56248e-06
-4.46589e-06
-1.34623e-06
-4.08304e-06
-1.17625e-06
-3.74143e-06
-1.0528e-06
-3.42658e-06
-9.68806e-07
-3.12718e-06
-9.19982e-07
-2.83134e-06
-9.05747e-07
-2.5276e-06
-9.21203e-07
-2.20966e-06
-9.54134e-07
-1.87453e-06
-9.95554e-07
-1.52186e-06
-1.03913e-06
-1.15532e-06
-1.0757e-06
-7.80156e-07
-1.10119e-06
-4.0161e-07
-1.11444e-06
-2.39431e-08
-1.11771e-06
3.49352e-07
-1.11367e-06
7.16317e-07
-1.10522e-06
1.07641e-06
-1.09453e-06
1.42931e-06
-1.08247e-06
1.77436e-06
-1.06869e-06
2.1103e-06
-1.05187e-06
2.43517e-06
-1.03021e-06
2.74643e-06
-1.00196e-06
3.04136e-06
-9.65987e-07
3.31761e-06
-9.22136e-07
3.5737e-06
-8.71453e-07
3.80941e-06
-8.16024e-07
4.02579e-06
-7.58592e-07
4.22506e-06
-7.0209e-07
4.41024e-06
-6.48983e-07
4.58431e-06
-6.0039e-07
4.74898e-06
-5.56066e-07
4.9045e-06
-5.16171e-07
5.05218e-06
-4.83302e-07
5.19805e-06
-4.6103e-07
5.35172e-06
-4.46715e-07
5.51607e-06
-4.24528e-07
5.67498e-06
-3.71175e-07
5.79732e-06
-2.78656e-07
5.8636e-06
-1.73412e-07
5.89058e-06
-1.01129e-07
5.9251e-06
-8.37633e-08
6.00628e-06
-9.39703e-08
6.12587e-06
-7.34233e-08
6.23047e-06
1.83134e-08
6.26225e-06
1.59788e-07
6.2058e-06
2.86052e-07
6.0947e-06
3.44232e-07
5.98171e-06
3.26309e-07
5.90486e-06
2.62051e-07
5.87256e-06
1.94245e-07
5.86711e-06
1.57308e-07
5.85815e-06
1.64165e-07
5.81825e-06
2.04107e-07
5.73494e-06
2.52642e-07
5.61497e-06
2.86806e-07
5.47802e-06
2.95045e-07
5.34587e-06
2.78317e-07
5.23434e-06
2.45539e-07
5.15103e-06
2.08267e-07
5.09682e-06
1.76486e-07
5.06795e-06
1.55464e-07
5.05739e-06
1.44595e-07
5.05642e-06
1.39171e-07
5.05762e-06
1.33898e-07
5.0567e-06
1.25385e-07
5.05311e-06
1.13802e-07
5.04885e-06
1.01027e-07
5.04624e-06
8.97342e-08
5.046e-06
8.23852e-08
5.0463e-06
8.07182e-08
5.04343e-06
8.44863e-08
5.03341e-06
9.22695e-08
5.01394e-06
1.00776e-07
4.98498e-06
1.08469e-07
4.94872e-06
1.12677e-07
4.90805e-06
1.1605e-07
4.86578e-06
1.16099e-07
4.82377e-06
1.20618e-07
4.78231e-06
1.21814e-07
4.74265e-06
1.36968e-07
4.70136e-06
1.44097e-07
4.66345e-06
1.84066e-07
4.61606e-06
2.03324e-07
4.58119e-06
2.97541e-07
3.48406e-07
4.51691e-06
-2.56245e-08
4.39853e-07
6.92527e-07
-3.20134e-07
1.86374e-06
-1.41014e-06
2.90204e-06
-2.13339e-06
3.61859e-06
-2.50589e-06
4.05325e-06
-2.63215e-06
4.31282e-06
-2.61802e-06
4.48858e-06
-2.52466e-06
4.63357e-06
-2.3857e-06
4.76976e-06
-2.21642e-06
4.90223e-06
-2.02596e-06
5.03046e-06
-1.82495e-06
5.15665e-06
-1.62497e-06
5.28551e-06
-1.43539e-06
5.42163e-06
-1.26043e-06
5.56733e-06
-1.09873e-06
5.72197e-06
-9.44544e-07
5.88119e-06
-7.91134e-07
6.03987e-06
-6.30218e-07
6.19151e-06
-4.57167e-07
6.33331e-06
-2.6635e-07
6.45301e-06
-5.23161e-08
6.55174e-06
1.72576e-07
6.63431e-06
4.2367e-07
6.69955e-06
6.85794e-07
6.76738e-06
9.67926e-07
6.83822e-06
1.26235e-06
6.92334e-06
1.5638e-06
7.02975e-06
1.89082e-06
7.11644e-06
2.20369e-06
7.15463e-06
2.49057e-06
7.07032e-06
2.73314e-06
6.78751e-06
2.86738e-06
6.32399e-06
2.79844e-06
5.75165e-06
2.5412e-06
5.11236e-06
2.09315e-06
4.46691e-06
1.36649e-06
3.85756e-06
6.97792e-07
3.2926e-06
-1.13571e-07
2.80598e-06
-1.27471e-06
2.18626e-06
-1.58111e-06
1.24149e-06
-4.9089e-07
2.26673e-07
9.10647e-07
-8.07931e-07
1.96042e-06
-2.19053e-06
2.87968e-06
-3.74671e-06
3.707e-06
-4.96739e-06
4.1476e-06
-5.82163e-06
4.23344e-06
-6.49762e-06
4.20227e-06
-7.00385e-06
4.06676e-06
-7.4402e-06
3.84348e-06
-7.83454e-06
3.60546e-06
-8.22958e-06
3.34796e-06
-8.6318e-06
3.10412e-06
-9.04894e-06
2.85698e-06
-9.47362e-06
2.62217e-06
-9.89956e-06
2.38709e-06
-1.03151e-05
2.15455e-06
-1.07085e-05
1.91503e-06
-1.10662e-05
1.66742e-06
-1.13757e-05
1.40874e-06
-1.16269e-05
1.14242e-06
-1.18131e-05
8.73366e-07
-1.19313e-05
6.09926e-07
-1.1983e-05
3.60991e-07
-1.19747e-05
1.36489e-07
-1.19126e-05
-5.87416e-08
-1.18086e-05
-2.20621e-07
-1.16741e-05
-3.40621e-07
-1.15214e-05
-4.17664e-07
-1.13624e-05
-4.50247e-07
-1.12094e-05
-4.3665e-07
-1.10744e-05
-3.747e-07
-1.09692e-05
-2.62625e-07
-1.09057e-05
-1.01028e-07
-1.08937e-05
1.03805e-07
-1.09415e-05
3.28501e-07
-1.10406e-05
5.32776e-07
-1.11649e-05
6.58089e-07
-1.12784e-05
6.4311e-07
-1.13417e-05
4.45328e-07
-1.13146e-05
6.01772e-08
-1.11792e-05
-4.40032e-07
-1.09286e-05
-9.88024e-07
-1.05643e-05
-1.54931e-06
-1.00952e-05
-2.08936e-06
-9.53781e-06
-2.56623e-06
-8.91041e-06
-2.93397e-06
-8.23074e-06
-3.16073e-06
-7.52379e-06
-3.23298e-06
-6.82123e-06
-3.15713e-06
-6.15195e-06
-2.96027e-06
-5.53658e-06
-2.68089e-06
-4.98935e-06
-2.35844e-06
-4.51847e-06
-2.03336e-06
-4.12408e-06
-1.74062e-06
-3.79382e-06
-1.50651e-06
-3.50461e-06
-1.34201e-06
-3.23349e-06
-1.23993e-06
-2.96623e-06
-1.18724e-06
-2.69374e-06
-1.17823e-06
-2.40585e-06
-1.2091e-06
-2.09425e-06
-1.26574e-06
-1.75528e-06
-1.33452e-06
-1.39039e-06
-1.40401e-06
-1.00439e-06
-1.46169e-06
-6.04233e-07
-1.50135e-06
-1.96445e-07
-1.52223e-06
2.13359e-07
-1.52751e-06
6.21801e-07
-1.52211e-06
1.02739e-06
-1.51081e-06
1.42961e-06
-1.49675e-06
1.82805e-06
-1.4809e-06
2.22161e-06
-1.46225e-06
2.60791e-06
-1.43817e-06
2.98286e-06
-1.40516e-06
3.34049e-06
-1.35959e-06
3.67324e-06
-1.29873e-06