/*--------------------------------*- C++ -*----------------------------------*\
  =========                 |
  \\      /  F ield         | OpenFOAM: The Open Source CFD Toolbox
   \\    /   O peration     | Website:  https://openfoam.org
    \\  /    A nd           | Version:  9
     \\/     M anipulation  |
\*---------------------------------------------------------------------------*/
FoamFile
{
    format      ascii;
    class       volScalarField;
    location    "0.043";
    object      s;
}
// * * * * * * * * * * * * * * * * * * * * * * * * * * * * * * * * * * * * * //

dimensions      [0 0 0 0 0 0 0];

internalField   nonuniform List<scalar> 
12225
(
1
1
1
1
1
1
1
1
1
1
1
1
1
1
1
1
1
1
1
1
1
1
1
1
1
1
1
1
1
1
1
1
1
1
1
1
1
1
1
1
1
1
1
1
1
1
1
1
1
1
1
1
1
1
1
1
1
1
1
1
1
1
1
1
1
1
1
1
1
1
1
1
1
1
1
1
1
1
1
1
1
1
1
1
1
1
1
1
1
1
1
1
1
1
1
1
1
1
1
1
1
1
1
1
1
1
1
1
1
1
1
1
1
1
1
1
1
1
1
1
1
1
1
1
1
1
1
1
1
1
1
1
1
1
1
1
1
1
1
1
1
1
1
1
1
1
1
1
1
1
1
1
1
1
1
1
1
1
1
1
1
1
1
1
1
1
1
1
1
1
1
1
1
1
1
1
1
1
1
1
1
1
1
1
1
1
1
1
1
1
1
1
1
1
1
1
1
1
1
1
1
1
1
1
1
1
1
1
1
1
1
1
1
1
1
1
1
1
1
1
1
1
1
1
1
1
1
1
1
1
1
1
1
1
1
1
1
1
1
1
1
1
1
1
1
1
1
1
1
1
1
1
1
1
1
1
1
1
1
1
1
1
1
1
1
1
1
1
1
1
1
1
1
1
1
1
1
1
1
1
1
1
1
1
1
1
1
1
1
1
1
1
1
1
1
1
1
1
1
1
1
1
1
1
1
1
1
1
1
1
1
1
1
1
1
1
1
1
1
1
1
1
1
1
1
1
1
1
1
1
1
1
1
1
1
1
1
1
1
1
1
1
1
1
1
1
1
1
1
1
1
1
1
1
1
1
1
1
1
1
1
1
1
1
1
1
1
1
1
1
1
1
1
1
1
1
1
1
1
1
1
1
1
1
1
1
1
1
1
1
1
1
1
1
1
1
1
1
1
1
1
1
1
1
1
1
1
1
1
1
1
1
1
1
1
1
1
1
1
1
1
1
1
1
1
1
1
1
1
1
1
1
1
1
1
1
1
1
1
1
1
1
1
1
1
1
1
1
1
1
1
1
1
1
1
1
1
1
1
1
1
1
1
1
1
1
1
1
1
1
1
1
1
1
1
1
1
1
1
1
1
1
1
1
1
1
1
1
1
1
1
1
1
1
1
1
1
1
1
1
1
1
1
1
1
1
1
1
1
1
1
1
1
1
1
1
1
1
1
1
1
1
1
1
1
1
1
1
1
1
1
1
1
1
1
1
1
1
1
1
0.452263
0.56249
0.604769
0.621985
0.635662
0.679093
0.695957
0.712787
0.728139
0.737758
0.744078
0.747005
0.748906
0.748971
0.748671
0.747914
0.746804
0.745523
0.74344
0.741423
0.738783
0.735239
0.732553
0.727161
0.723626
0.717791
0.710147
0.701138
0.680259
0.586404
0.430222
0.396962
0.412181
0.43529
0.459032
0.484252
0.509565
0.52979
0.558795
0.577603
0.596982
0.616426
0.619998
0.61904
0.618746
0.617428
0.603428
0.534122
0.563362
0.814801
0.910735
0.914379
0.9162
0.916903
0.917196
0.917567
0.918006
0.918098
0.918122
0.918151
0.918231
0.918395
0.91846
0.91846
0.918375
0.918147
0.91784
0.917589
0.917438
0.917184
0.916831
0.916161
0.914923
0.912913
0.910167
0.906796
0.90304
0.899679
0.897364
0.895747
0.893915
0.89119
0.887239
0.883029
0.881075
0.880167
0.879953
0.880584
0.883147
0.887068
0.890387
0.892775
0.895069
0.897534
0.900245
0.901553
0.902581
0.903638
0.905191
0.906504
0.90742
0.908514
0.909845
0.911212
0.911956
0.913414
0.914646
0.916012
0.917522
0.919108
0.920811
0.922617
0.924515
0.926367
0.927855
0.929082
0.930238
0.931269
0.932114
0.932699
0.932918
0.932597
0.931302
0.929262
0.926552
0.92319
0.919274
0.914759
0.909603
0.90406
0.899129
0.895407
0.89168
0.886826
0.880953
0.87517
0.870225
0.866162
0.862773
0.860171
0.858426
0.857273
0.856445
0.855869
0.855476
0.855021
0.854119
0.851897
0.845009
0.834601
0.825884
0.814928
0.79339
0.747882
0.66894
0.560157
0.437108
0.32031
0.224709
0.154845
0.107272
0.0756464
0.0542343
0.0390941
0.027939
0.0196771
0.0136667
0.00935775
0.00629628
0.00414995
0.00267068
0.00167671
0.00102409
0.000609261
0.000351411
0.000197054
0.000106568
5.49993e-05
2.90172e-05
7.21091e-06
0.425564
0.491775
0.483993
0.486204
0.571166
0.672735
0.736624
0.768601
0.780638
0.784609
0.78409
0.782027
0.779851
0.776856
0.774107
0.772102
0.76934
0.767929
0.766381
0.765174
0.764397
0.763492
0.762044
0.758607
0.755807
0.749493
0.743961
0.732832
0.720852
0.69442
0.635023
0.496887
0.43642
0.414321
0.399546
0.388454
0.384603
0.408751
0.450158
0.529965
0.584619
0.626102
0.650984
0.651417
0.646402
0.622207
0.650897
0.82746
0.859283
0.901216
0.912259
0.912976
0.912912
0.910711
0.907356
0.903575
0.8996
0.894816
0.889476
0.883964
0.878508
0.873973
0.871325
0.869095
0.866732
0.865384
0.864671
0.864386
0.864352
0.864791
0.865203
0.865897
0.867264
0.868861
0.869402
0.869424
0.868603
0.86539
0.858882
0.849303
0.836797
0.821365
0.805724
0.795212
0.790281
0.786841
0.785092
0.784789
0.789313
0.80235
0.815636
0.830421
0.842903
0.849898
0.860872
0.865914
0.870532
0.872773
0.8748
0.876849
0.878423
0.879191
0.880428
0.88141
0.88205
0.882689
0.882949
0.883463
0.884041
0.884656
0.885436
0.886481
0.887898
0.89003
0.893537
0.898418
0.904475
0.911629
0.919817
0.928962
0.938879
0.948837
0.956789
0.962517
0.966961
0.970079
0.971851
0.972491
0.972209
0.969571
0.961364
0.95064
0.941046
0.934856
0.931582
0.928669
0.922939
0.910711
0.896867
0.885576
0.878562
0.875277
0.874001
0.872707
0.869601
0.865321
0.862035
0.860317
0.859922
0.860208
0.862907
0.874674
0.884265
0.885483
0.883683
0.876525
0.859856
0.819459
0.751503
0.694488
0.661999
0.648611
0.639346
0.620815
0.571836
0.477339
0.379654
0.292843
0.219614
0.159303
0.111321
0.0751604
0.048859
0.0308101
0.0186693
0.0110236
0.00620498
0.00338847
0.00178713
0.000753778
0.386036
0.392396
0.434518
0.575043
0.720558
0.775249
0.794737
0.797429
0.795536
0.792861
0.787604
0.781752
0.77507
0.766716
0.758318
0.749335
0.742046
0.734853
0.730522
0.725517
0.725188
0.726212
0.728769
0.73254
0.73743
0.738836
0.738432
0.736263
0.73107
0.72395
0.709552
0.677436
0.605306
0.49724
0.436105
0.400225
0.390011
0.391922
0.413247
0.497356
0.578914
0.628796
0.661939
0.660349
0.65213
0.73641
0.851428
0.890607
0.900659
0.905534
0.906454
0.899348
0.888822
0.870318
0.845504
0.830449
0.816766
0.808605
0.803406
0.801233
0.800509
0.800902
0.803387
0.805183
0.807729
0.812118
0.814638
0.817426
0.821708
0.826516
0.831646
0.837698
0.84622
0.854201
0.855782
0.855756
0.854005
0.847985
0.834461
0.810788
0.780282
0.767635
0.763462
0.761576
0.759916
0.756323
0.750908
0.74465
0.739378
0.737127
0.737392
0.74731
0.763364
0.786784
0.811812
0.833995
0.850267
0.857989
0.865067
0.871271
0.877975
0.881186
0.885497
0.889306
0.893118
0.897093
0.900986
0.903077
0.903522
0.902231
0.899402
0.895235
0.889889
0.8836
0.877237
0.87158
0.867876
0.866287
0.86597
0.867218
0.8711
0.87807
0.890427
0.907445
0.92701
0.946962
0.962995
0.973153
0.979343
0.982402
0.983155
0.98257
0.977746
0.963266
0.950867
0.943869
0.940553
0.938213
0.934003
0.922898
0.906886
0.895175
0.88854
0.885444
0.884171
0.883337
0.881797
0.877437
0.870529
0.866934
0.866363
0.866793
0.868495
0.872439
0.880855
0.895806
0.911319
0.920481
0.92299
0.922983
0.922755
0.922817
0.922492
0.920295
0.91114
0.899399
0.888307
0.867744
0.819584
0.691789
0.528235
0.384765
0.268772
0.18235
0.119402
0.0763785
0.0467685
0.027769
0.0159368
0.00783812
0.343678
0.469172
0.711865
0.785955
0.807971
0.8086
0.806596
0.801649
0.792764
0.784413
0.770502
0.7536
0.733902
0.710469
0.685961
0.661947
0.640483
0.616215
0.60337
0.590414
0.58893
0.591486
0.598314
0.613371
0.631786
0.659226
0.68378
0.70391
0.714857
0.715479
0.71236
0.704439
0.684126
0.650882
0.582782
0.495563
0.459467
0.461414
0.481651
0.54575
0.605606
0.64932
0.668687
0.675023
0.738883
0.85921
0.889922
0.896641
0.897832
0.892197
0.873171
0.838095
0.81616
0.800618
0.79503
0.793708
0.794795
0.800273
0.803961
0.809596
0.81846
0.829598
0.841334
0.850541
0.85796
0.864666
0.868298
0.870227
0.871197
0.871573
0.871636
0.871418
0.870825
0.868981
0.865451
0.859768
0.849277
0.830315
0.799567
0.773141
0.767138
0.766553
0.769282
0.777238
0.780768
0.781467
0.779136
0.767649
0.747702
0.729806
0.722622
0.719989
0.719942
0.725579
0.736305
0.753196
0.77348
0.792084
0.803803
0.815524
0.830172
0.84123
0.85241
0.864486
0.876906
0.890724
0.905071
0.917104
0.928002
0.93709
0.944028
0.949144
0.952869
0.955133
0.954904
0.951062
0.942266
0.929632
0.914248
0.897311
0.880804
0.868168
0.86241
0.861498
0.864372
0.875321
0.894755
0.920483
0.946891
0.967209
0.979111
0.984889
0.986441
0.985897
0.980646
0.965429
0.954224
0.948653
0.945712
0.941547
0.931193
0.915042
0.902185
0.894378
0.890572
0.889054
0.88838
0.887532
0.885747
0.880633
0.872599
0.866715
0.863643
0.863027
0.863602
0.866718
0.878807
0.8984
0.913877
0.928236
0.94268
0.956112
0.966602
0.972887
0.975344
0.975728
0.975462
0.973974
0.969254
0.956573
0.924165
0.82926
0.644221
0.472806
0.330973
0.22346
0.145089
0.0906602
0.0558341
0.0298135
0.509884
0.74831
0.812818
0.820472
0.817579
0.810474
0.800407
0.784628
0.770717
0.750866
0.726056
0.691302
0.651134
0.600774
0.558375
0.51894
0.492352
0.474011
0.46171
0.45193
0.445921
0.446343
0.449929
0.45888
0.477973
0.503898
0.541699
0.584756
0.638323
0.67332
0.693379
0.695141
0.690613
0.680008
0.659854
0.615231
0.569886
0.555597
0.560118
0.576573
0.614386
0.654475
0.680956
0.73093
0.846954
0.883906
0.889573
0.889517
0.873077
0.831977
0.803114
0.790286
0.785884
0.785825
0.793276
0.799559
0.814241
0.838671
0.858502
0.874182
0.888023
0.895726
0.9009
0.90364
0.907346
0.911383
0.915278
0.921015
0.924555
0.92624
0.926898
0.926688
0.923401
0.913866
0.897343
0.87547
0.851682
0.825156
0.792594
0.778284
0.776385
0.778935
0.789214
0.805201
0.814152
0.817172
0.817476
0.813004
0.796841
0.766837
0.731449
0.717321
0.713534
0.7134
0.717126
0.726128
0.73838
0.748494
0.756935
0.762667
0.766087
0.770647
0.775328
0.780896
0.7878
0.797634
0.814708
0.838199
0.864766
0.892351
0.91679
0.93452
0.948396
0.958906
0.966926
0.972959
0.977263
0.980088
0.981571
0.981203
0.976808
0.963611
0.940582
0.913426
0.888334
0.873277
0.870149
0.873043
0.888248
0.91481
0.943591
0.967345
0.980914
0.986437
0.987238
0.985585
0.975817
0.962783
0.956142
0.95219
0.945072
0.930654
0.915283
0.903595
0.896837
0.893798
0.892705
0.892266
0.891687
0.890281
0.885446
0.874755
0.867162
0.862725
0.860986
0.860897
0.861996
0.867449
0.885761
0.908746
0.928339
0.9449
0.958656
0.969982
0.979028
0.985309
0.988639
0.989646
0.989615
0.988735
0.985023
0.972996
0.938028
0.829947
0.636759
0.463546
0.323963
0.214798
0.140662
0.0800865
0.824245
0.83237
0.830688
0.824004
0.809666
0.792318
0.776762
0.758811
0.735298
0.703193
0.644108
0.583754
0.526118
0.488705
0.465542
0.448795
0.435535
0.42751
0.41516
0.405158
0.395063
0.385104
0.383838
0.385643
0.391659
0.406894
0.428726
0.469242
0.508516
0.564225
0.627698
0.663571
0.676623
0.674792
0.666921
0.653009
0.624318
0.598614
0.595647
0.604894
0.634783
0.668122
0.71456
0.826513
0.874055
0.882381
0.879563
0.855786
0.808035
0.786299
0.778783
0.777831
0.785387
0.793352
0.814816
0.843739
0.858654
0.866114
0.869677
0.871056
0.870879
0.858917
0.842586
0.826534
0.817171
0.813923
0.814677
0.83241
0.853121
0.872323
0.898165
0.911535
0.921974
0.925014
0.924721
0.913165
0.885863
0.851283
0.812572
0.790116
0.785335
0.785427
0.789905
0.800455
0.814776
0.821971
0.823393
0.821086
0.809598
0.785821
0.751437
0.720181
0.710673
0.709337
0.710774
0.717279
0.726468
0.735739
0.743959
0.751498
0.754986
0.758202
0.761076
0.763501
0.765848
0.768075
0.771332
0.776528
0.784888
0.798003
0.818596
0.847333
0.877996
0.906532
0.929484
0.948385
0.96338
0.974626
0.982392
0.987497
0.990616
0.992172
0.992511
0.99118
0.984316
0.96186
0.928015
0.901664
0.891031
0.891373
0.902335
0.930273
0.95744
0.976502
0.985058
0.986919
0.985981
0.979664
0.971558
0.964421
0.954128
0.939762
0.924253
0.91149
0.903436
0.899605
0.898204
0.897747
0.897469
0.896958
0.895577
0.89085
0.878388
0.868597
0.863619
0.862013
0.862002
0.863282
0.8698
0.890677
0.913953
0.93289
0.948647
0.961955
0.97292
0.981582
0.98789
0.991857
0.993693
0.99409
0.993914
0.992617
0.987527
0.97103
0.922065
0.776225
0.587526
0.419165
0.296798
0.181789
0.834831
0.836678
0.830141
0.808755
0.791745
0.774365
0.749853
0.714352
0.668276
0.595243
0.536573
0.49971
0.475073
0.456935
0.444164
0.434244
0.424076
0.415126
0.400116
0.382439
0.370491
0.355483
0.343845
0.342689
0.344575
0.350578
0.363168
0.392281
0.424721
0.467937
0.518583
0.585879
0.635292
0.657598
0.65848
0.652619
0.633293
0.609014
0.608456
0.626348
0.651525
0.696053
0.79754
0.860505
0.872904
0.871368
0.839263
0.794708
0.776111
0.77064
0.773531
0.781484
0.79955
0.832975
0.849415
0.854336
0.855251
0.849328
0.825217
0.780663
0.706895
0.62377
0.582785
0.554953
0.543846
0.541359
0.552869
0.577867
0.60353
0.634515
0.677322
0.726206
0.777428
0.832727
0.875514
0.898233
0.906228
0.906539
0.889329
0.84863
0.820527
0.812097
0.810253
0.811225
0.815596
0.822
0.823211
0.819891
0.808804
0.785517
0.752565
0.718545
0.705399
0.704224
0.708231
0.713787
0.721003
0.729837
0.736988
0.745183
0.751
0.755438
0.758878
0.761414
0.763503
0.765032
0.766444
0.768022
0.770249
0.773537
0.778646
0.787054
0.80043
0.82149
0.851546
0.883573
0.912365
0.937003
0.957235
0.972657
0.983482
0.990337
0.994161
0.996054
0.99669
0.996555
0.994532
0.984944
0.954667
0.92793
0.918156
0.918835
0.931399
0.95701
0.975473
0.984589
0.987208
0.987179
0.984944
0.975632
0.959574
0.942915
0.927225
0.915037
0.907681
0.904413
0.903386
0.903122
0.902976
0.90272
0.902092
0.900058
0.892591
0.879572
0.870617
0.866392
0.865431
0.865854
0.869099
0.882622
0.908522
0.930401
0.947541
0.960781
0.971179
0.979525
0.986141
0.991027
0.994213
0.995862
0.996368
0.996345
0.995797
0.993317
0.984713
0.957977
0.879293
0.686679
0.522286
0.347498
0.838612
0.837328
0.819133
0.795909
0.772938
0.736106
0.688687
0.634992
0.575558
0.532189
0.502821
0.482
0.466053
0.452318
0.441415
0.431786
0.421166
0.407262
0.38697
0.36079
0.335286
0.311288
0.299839
0.299876
0.302533
0.309417
0.320675
0.342557
0.377795
0.419164
0.465198
0.522925
0.576275
0.617071
0.6391
0.642964
0.628288
0.615801
0.626634
0.645364
0.67877
0.770138
0.84217
0.861546
0.864358
0.833992
0.787244
0.769013
0.76392
0.769426
0.778192
0.801067
0.834712
0.84632
0.848421
0.844221
0.818514
0.756987
0.63749
0.518278
0.461158
0.431584
0.419205
0.415656
0.420354
0.444486
0.46653
0.490993
0.518776
0.541021
0.565254
0.585421
0.607109
0.63143
0.661471
0.702906
0.757335
0.805697
0.843339
0.867509
0.878272
0.877298
0.849787
0.836152
0.830515
0.823651
0.810758
0.796217
0.775145
0.740885
0.708112
0.690202
0.690014
0.698661
0.70746
0.712839
0.719433
0.728147
0.735432
0.742923
0.749728
0.754968
0.758911
0.761936
0.764289
0.765878
0.766931
0.767861
0.768985
0.77044
0.772382
0.775122
0.779565
0.786588
0.798755
0.820161
0.850049
0.882907
0.914002
0.940547
0.961127
0.976256
0.986561
0.992915
0.996356
0.997906
0.998368
0.998267
0.996811
0.989014
0.964841
0.948583
0.94501
0.94787
0.963146
0.978564
0.985976
0.987977
0.987718
0.984219
0.969145
0.946674
0.928866
0.916733
0.91033
0.908008
0.907592
0.90762
0.907613
0.907476
0.906941
0.905092
0.897936
0.885778
0.877844
0.874122
0.87311
0.873222
0.875052
0.884155
0.909129
0.932734
0.950795
0.96414
0.973935
0.981284
0.986926
0.991228
0.994348
0.996392
0.99748
0.997846
0.997851
0.99757
0.996197
0.991269
0.975491
0.926478
0.798949
0.572564
0.841056
0.836241
0.805319
0.773928
0.732236
0.678146
0.62224
0.572781
0.541372
0.517095
0.496949
0.481408
0.468617
0.457413
0.444876
0.430477
0.417446
0.396994
0.366875
0.328566
0.295491
0.273185
0.265177
0.26564
0.269064
0.277949
0.29252
0.30993
0.338114
0.375657
0.428013
0.49299
0.554679
0.601736
0.622493
0.622974
0.62091
0.629909
0.646787
0.672812
0.749563
0.823036
0.85026
0.856228
0.837054
0.78393
0.763133
0.757647
0.763247
0.774025
0.797908
0.831753
0.842504
0.844084
0.835318
0.798081
0.703819
0.532068
0.432087
0.382238
0.359027
0.349975
0.34809
0.356266
0.383069
0.410254
0.441814
0.480411
0.508269
0.535308
0.561425
0.580187
0.596655
0.60886
0.617944
0.626885
0.63688
0.648467
0.662539
0.681119
0.707351
0.728394
0.750053
0.760885
0.760378
0.751331
0.732502
0.715773
0.697497
0.681429
0.67438
0.675317
0.684226
0.697004
0.707432
0.715082
0.722192
0.73089
0.740644
0.74783
0.754635
0.760414
0.764897
0.76856
0.770999
0.772296
0.772886
0.773004
0.772888
0.772827
0.773214
0.774535
0.77706
0.780943
0.786741
0.797929
0.818653
0.846139
0.876389
0.906432
0.933927
0.956298
0.9729
0.984225
0.991525
0.995825
0.998038
0.998926
0.999092
0.998833
0.996759
0.986209
0.971755
0.966682
0.966864
0.972959
0.98315
0.987617
0.988337
0.987195
0.979469
0.955324
0.933675
0.920551
0.914432
0.912723
0.912692
0.913147
0.913288
0.913092
0.912097
0.908421
0.898229
0.889002
0.883626
0.88142
0.881
0.881232
0.883012
0.890874
0.914891
0.9401
0.959081
0.972299
0.980902
0.986389
0.990111
0.992933
0.99518
0.996869
0.997989
0.998586
0.998785
0.998785
0.998612
0.997765
0.994688
0.984462
0.954131
0.841551
0.841515
0.83003
0.785404
0.74084
0.680965
0.617805
0.579664
0.555008
0.535774
0.519312
0.51014
0.503367
0.490133
0.469391
0.44593
0.425307
0.410493
0.391541
0.35799
0.314442
0.279967
0.262116
0.255331
0.254784
0.257012
0.264992
0.279799
0.301955
0.335009
0.376062
0.431906
0.498555
0.560094
0.600309
0.611135
0.618044
0.634666
0.658131
0.679955
0.739931
0.806821
0.838221
0.847014
0.838619
0.784775
0.758772
0.752035
0.755319
0.766631
0.79003
0.825997
0.838671
0.840652
0.832306
0.792743
0.680968
0.493296
0.389699
0.338448
0.313749
0.303483
0.300709
0.30388
0.325509
0.357883
0.392906
0.439474
0.488942
0.537078
0.583921
0.622434
0.652373
0.675327
0.685068
0.687492
0.686872
0.681822
0.673501
0.666122
0.662026
0.659642
0.659799
0.663506
0.668046
0.670094
0.672182
0.672866
0.672774
0.671626
0.670144
0.671056
0.675035
0.684976
0.698846
0.713527
0.725898
0.736301
0.745015
0.754722
0.763439
0.77033
0.774983
0.777719
0.779422
0.780761
0.781814
0.782383
0.782697
0.782752
0.782456
0.782135
0.782084
0.782421
0.784314
0.788511
0.796604
0.814004
0.838556
0.865967
0.893098
0.918183
0.940562
0.95949
0.974379
0.984852
0.99165
0.995779
0.998065
0.999121
0.999427
0.999387
0.998664
0.994461
0.985043
0.980738
0.980304
0.982374
0.987369
0.989058
0.988848
0.98559
0.969798
0.944816
0.92919
0.922045
0.920215
0.920309
0.921225
0.921524
0.921134
0.918845
0.910507
0.899083
0.891262
0.887192
0.885808
0.885713
0.88635
0.889816
0.903257
0.92803
0.949426
0.96606
0.977928
0.985713
0.990489
0.993373
0.995241
0.996606
0.997671
0.998471
0.998997
0.999268
0.999347
0.999338
0.999212
0.998631
0.996499
0.989436
0.957279
0.841133
0.818208
0.76013
0.694121
0.625853
0.591889
0.57252
0.557996
0.554443
0.555506
0.551024
0.532786
0.505063
0.473702
0.446142
0.42374
0.408532
0.393755
0.359523
0.311989
0.277333
0.261834
0.256804
0.256607
0.26008
0.269521
0.284875
0.309469
0.344509
0.389743
0.451112
0.521773
0.578724
0.602607
0.611866
0.636138
0.682349
0.696816
0.742675
0.794977
0.826313
0.836412
0.834627
0.790378
0.756653
0.747552
0.746776
0.757173
0.777698
0.818287
0.834692
0.837855
0.833229
0.801265
0.697626
0.51768
0.38106
0.320118
0.288204
0.272993
0.267163
0.266122
0.274469
0.30246
0.341455
0.392721
0.463519
0.548099
0.627424
0.69573
0.747859
0.783924
0.807054
0.820621
0.826266
0.827483
0.824969
0.814791
0.799094
0.782051
0.763614
0.745832
0.729149
0.714727
0.704177
0.69527
0.690586
0.688381
0.68763
0.688634
0.691613
0.696587
0.70504
0.719024
0.735552
0.748927
0.759691
0.767824
0.772605
0.777143
0.781351
0.783081
0.783711
0.783979
0.784618
0.78596
0.787715
0.789368
0.791024
0.792741
0.794396
0.79591
0.797556
0.800802
0.806399
0.814694
0.829845
0.850287
0.872371
0.89453
0.916362
0.936613
0.954057
0.968261
0.979402
0.987536
0.992978
0.996379
0.998322
0.999281
0.999607
0.999611
0.999259
0.997228
0.991631
0.988597
0.988113
0.988874
0.99039
0.99051
0.989339
0.982454
0.961626
0.943774
0.934627
0.931917
0.93189
0.93287
0.933369
0.932794
0.928866
0.915826
0.902989
0.89493
0.890908
0.889688
0.889687
0.890673
0.895552
0.912688
0.935887
0.955074
0.969949
0.98069
0.9879
0.992409
0.995082
0.996661
0.997664
0.998376
0.998909
0.99929
0.999525
0.999635
0.999659
0.999646
0.999542
0.999091
0.997439
0.98874
0.839285
0.802175
0.72055
0.644689
0.609044
0.593838
0.593923
0.60209
0.605652
0.602122
0.583258
0.561219
0.535447
0.499756
0.46518
0.435911
0.418971
0.408262
0.386676
0.346278
0.304107
0.28185
0.271836
0.26888
0.273319
0.283952
0.302293
0.331664
0.372139
0.430142
0.5032
0.564466
0.59267
0.607964
0.636697
0.698842
0.722952
0.747492
0.789206
0.815535
0.825572
0.827459
0.796306
0.756481
0.742733
0.739134
0.747342
0.763531
0.804096
0.828981
0.835166
0.835008
0.816694
0.740928
0.59108
0.421422
0.324424
0.280037
0.255828
0.245063
0.24146
0.241467
0.253395
0.28514
0.334342
0.404554
0.502001
0.608092
0.712208
0.798348
0.848368
0.873108
0.886955
0.896043
0.901965
0.905028
0.901723
0.893347
0.883401
0.872589
0.860537
0.846836
0.832774
0.820165
0.809572
0.799039
0.788752
0.777985
0.768874
0.763847
0.761771
0.760927
0.761466
0.76688
0.776004
0.783648
0.787447
0.790304
0.791496
0.791039
0.789736
0.788469
0.787911
0.787851
0.788054
0.789163
0.791841
0.794734
0.797742
0.801199
0.804778
0.808697
0.812595
0.818572
0.827604
0.846121
0.872319
0.898245
0.916986
0.926818
0.933755
0.943334
0.955057
0.967047
0.97743
0.985368
0.991047
0.994861
0.997308
0.998745
0.999473
0.999724
0.999728
0.999495
0.998168
0.994665
0.992751
0.992361
0.992473
0.992486
0.991979
0.988933
0.97725
0.961962
0.952389
0.948664
0.948263
0.948834
0.94944
0.94905
0.945557
0.931065
0.913732
0.903437
0.898541
0.897029
0.896978
0.897816
0.902069
0.917662
0.939953
0.958124
0.972042
0.982077
0.988885
0.993234
0.995864
0.997399
0.998305
0.998873
0.999257
0.999522
0.999694
0.999789
0.999825
0.999828
0.999811
0.999713
0.999309
0.996951
0.835847
0.778687
0.675644
0.632737
0.624821
0.637736
0.658042
0.66543
0.668017
0.66683
0.651887
0.624787
0.589282
0.549423
0.51089
0.470632
0.445525
0.430665
0.419318
0.395843
0.358946
0.32563
0.3077
0.300328
0.303606
0.318423
0.345921
0.385158
0.436514
0.499251
0.555911
0.587188
0.606145
0.636632
0.709415
0.742491
0.756618
0.785917
0.807083
0.815804
0.81902
0.797934
0.755777
0.737655
0.732875
0.737665
0.750333
0.779901
0.819231
0.832282
0.834251
0.825215
0.781728
0.684398
0.524115
0.358608
0.285903
0.252556
0.236682
0.230219
0.228466
0.229827
0.242578
0.273893
0.324549
0.398042
0.502606
0.623534
0.744585
0.8332
0.876738
0.897911
0.909849
0.918822
0.926904
0.934987
0.942202
0.947361
0.94719
0.938789
0.924205
0.905207
0.883853
0.865174
0.850974
0.839652
0.830157
0.821359
0.813847
0.808448
0.805159
0.803405
0.802761
0.802901
0.803821
0.804329
0.803999
0.802945
0.800469
0.798003
0.796691
0.795744
0.795165
0.795153
0.795488
0.79695
0.801162
0.806677
0.812071
0.817418
0.821817
0.827925
0.834501
0.840539
0.84819
0.865723
0.903269
0.936963
0.960011
0.972597
0.976015
0.974548
0.971668
0.971937
0.977638
0.984781
0.990267
0.99412
0.99664
0.998241
0.999186
0.999658
0.999808
0.9998
0.99959
0.998429
0.99618
0.995081
0.994753
0.994616
0.994298
0.992958
0.987359
0.976672
0.969227
0.966021
0.96555
0.965874
0.966293
0.965983
0.963198
0.951345
0.934277
0.922786
0.916909
0.914921
0.91472
0.915111
0.917192
0.925146
0.943635
0.960523
0.973744
0.983308
0.98977
0.993887
0.996386
0.99785
0.998697
0.999196
0.999501
0.999693
0.999812
0.99988
0.999911
0.999918
0.999916
0.999893
0.999786
0.999119
0.83048
0.745024
0.665537
0.655775
0.677362
0.722627
0.755746
0.776902
0.789182
0.792882
0.782688
0.758441
0.719001
0.666149
0.614217
0.547286
0.496843
0.461404
0.443975
0.435761
0.419639
0.398522
0.377815
0.368426
0.366002
0.382867
0.411093
0.449788
0.497805
0.548257
0.58125
0.602824
0.637477
0.713226
0.751911
0.76736
0.782225
0.800753
0.808202
0.811643
0.801127
0.758008
0.735488
0.728364
0.727972
0.73873
0.759178
0.799343
0.825585
0.832381
0.832939
0.81955
0.766629
0.641879
0.465611
0.330534
0.272939
0.245557
0.231945
0.226644
0.225413
0.227051
0.238624
0.268975
0.312145
0.380993
0.489432
0.620346
0.747108
0.833629
0.878811
0.900539
0.912071
0.920156
0.927584
0.936814
0.948052
0.958924
0.968484
0.975359
0.977839
0.976302
0.968471
0.951272
0.926091
0.89876
0.873788
0.855077
0.841105
0.831438
0.82521
0.821361
0.81923
0.817688
0.816096
0.814404
0.813033
0.811094
0.80903
0.806524
0.804369
0.803647
0.803644
0.803893
0.804788
0.807504
0.812711
0.819299
0.828117
0.83856
0.84673
0.855414
0.865818
0.880205
0.893754
0.913463
0.935445
0.957689
0.975817
0.987036
0.991909
0.992959
0.992499
0.989414
0.986248
0.98637
0.989868
0.993809
0.996342
0.997949
0.998948
0.999525
0.999796
0.999864
0.99984
0.999596
0.998448
0.997081
0.996491
0.996301
0.996132
0.995658
0.99379
0.98779
0.982152
0.979439
0.978818
0.978891
0.97904
0.978812
0.97689
0.968661
0.956954
0.948783
0.943919
0.941643
0.940997
0.941001
0.941395
0.943224
0.950301
0.964819
0.976994
0.985767
0.991529
0.995069
0.997153
0.998355
0.999045
0.999443
0.999676
0.999813
0.999892
0.999935
0.999956
0.999963
0.999963
0.999957
0.999926
0.999721
0.823968
0.724464
0.685724
0.702432
0.778604
0.856595
0.885224
0.899597
0.909915
0.919245
0.926082
0.92922
0.91406
0.883925
0.818725
0.725821
0.623606
0.540874
0.485247
0.458459
0.446846
0.438573
0.431726
0.428254
0.425006
0.437847
0.46289
0.499036
0.541224
0.580296
0.603599
0.635093
0.710426
0.75602
0.773049
0.781548
0.793934
0.802022
0.805456
0.79979
0.763551
0.736014
0.725117
0.721934
0.727148
0.744832
0.773296
0.808574
0.826559
0.831926
0.83101
0.812336
0.74543
0.62024
0.463341
0.333952
0.275958
0.248414
0.233835
0.227911
0.22707
0.230559
0.244796
0.279396
0.318085
0.378297
0.488648
0.617568
0.72881
0.814594
0.867324
0.893534
0.904623
0.908151
0.910374
0.918069
0.936163
0.954394
0.96835
0.978627
0.985899
0.990006
0.991486
0.991137
0.988188
0.9802
0.964234
0.939748
0.912413
0.887075
0.868159
0.855517
0.846115
0.839018
0.833579
0.829959
0.82737
0.825443
0.823249
0.820706
0.818421
0.817011
0.816622
0.816692
0.817422
0.820808
0.827565
0.833357
0.842941
0.857392
0.872376
0.884311
0.89789
0.918594
0.949954
0.969141
0.980342
0.987146
0.991836
0.995128
0.997082
0.997826
0.997868
0.997602
0.996212
0.9939
0.993192
0.99392
0.996227
0.997833
0.998817
0.999414
0.999743
0.999879
0.999898
0.99985
0.999515
0.998443
0.997727
0.99748
0.997401
0.997279
0.996857
0.995177
0.991442
0.988984
0.98798
0.987767
0.987676
0.987374
0.986038
0.980963
0.97476
0.970594
0.967653
0.965388
0.963828
0.963121
0.963056
0.96342
0.965447
0.972955
0.982692
0.989602
0.994009
0.996613
0.998087
0.998913
0.999381
0.999651
0.999806
0.999894
0.999942
0.999968
0.99998
0.999984
0.999985
0.999983
0.999972
0.999902
0.816362
0.732566
0.722989
0.802791
0.893235
0.915849
0.924135
0.927882
0.931317
0.940394
0.955501
0.972272
0.979972
0.98148
0.970941
0.943058
0.87471
0.744962
0.600983
0.514795
0.474042
0.45824
0.454088
0.454922
0.461845
0.473732
0.495046
0.526826
0.563925
0.598106
0.623606
0.68568
0.754642
0.775855
0.78302
0.787968
0.795194
0.799575
0.792433
0.763848
0.732675
0.718728
0.714554
0.71636
0.725951
0.745887
0.775373
0.808646
0.825801
0.830252
0.825958
0.801465
0.7416
0.62662
0.477384
0.351787
0.289314
0.259633
0.242959
0.236136
0.237695
0.246059
0.271902
0.313138
0.34533
0.40017
0.512897
0.624496
0.707958
0.782938
0.841908
0.875993
0.887386
0.88577
0.882353
0.88572
0.907929
0.939698
0.962754
0.977948
0.98726
0.992774
0.99574
0.997106
0.997437
0.997197
0.995933
0.992465
0.985471
0.973187
0.954658
0.933089
0.91205
0.892596
0.877169
0.866067
0.858306
0.852799
0.848092
0.843097
0.838518
0.835762
0.834991
0.835108
0.836202
0.841103
0.851747
0.860251
0.871221
0.886671
0.907941
0.926008
0.946355
0.96846
0.981617
0.98929
0.993765
0.99635
0.997808
0.998644
0.99914
0.999369
0.999404
0.999375
0.999223
0.998618
0.997545
0.997017
0.997071
0.997855
0.998787
0.999355
0.999693
0.999866
0.999921
0.999917
0.999824
0.999322
0.998595
0.998294
0.998252
0.998256
0.998217
0.997957
0.996876
0.995003
0.993916
0.993507
0.993338
0.993039
0.992171
0.989195
0.986047
0.984632
0.983779
0.982393
0.980686
0.979381
0.978861
0.978877
0.97949
0.98246
0.988687
0.993343
0.99627
0.997948
0.998865
0.999364
0.999643
0.999802
0.999894
0.999944
0.999971
0.999985
0.999991
0.999994
0.999994
0.999993
0.999989
0.999962
0.817822
0.753813
0.770536
0.874269
0.919681
0.92976
0.93205
0.932176
0.929153
0.927853
0.939138
0.967497
0.987101
0.993914
0.996441
0.99581
0.987715
0.95847
0.862615
0.669022
0.546407
0.488545
0.465946
0.461379
0.473218
0.488782
0.512075
0.5421
0.57604
0.609687
0.64823
0.726746
0.775014
0.785363
0.787527
0.789186
0.793755
0.794291
0.777687
0.735172
0.713234
0.70517
0.703406
0.708939
0.723359
0.744086
0.773383
0.806297
0.823393
0.826341
0.822275
0.801497
0.746891
0.644406
0.50932
0.389227
0.319022
0.284367
0.264903
0.261145
0.267158
0.287012
0.323853
0.35547
0.386568
0.451806
0.575473
0.655463
0.70563
0.754757
0.810807
0.85251
0.867991
0.86862
0.868316
0.87243
0.89455
0.931217
0.959646
0.977426
0.987904
0.993874
0.997032
0.998495
0.999147
0.999383
0.999407
0.999308
0.998922
0.997886
0.995375
0.991144
0.984699
0.974289
0.957075
0.936797
0.918976
0.905475
0.894967
0.885459
0.877029
0.871456
0.869492
0.869515
0.870736
0.876037
0.889483
0.903945
0.918032
0.936373
0.95639
0.974664
0.985356
0.991501
0.995018
0.997067
0.998286
0.999005
0.999411
0.999636
0.999762
0.999821
0.999831
0.999826
0.999804
0.999734
0.999479
0.999007
0.998749
0.998728
0.99893
0.99938
0.999679
0.999853
0.999929
0.99994
0.999915
0.99973
0.99918
0.998855
0.998789
0.998833
0.998929
0.998919
0.998753
0.998026
0.997146
0.996742
0.996584
0.996384
0.995872
0.994284
0.992832
0.992259
0.992066
0.991791
0.991002
0.989695
0.98895
0.988808
0.988992
0.990155
0.993484
0.996263
0.997959
0.998903
0.999404
0.99967
0.999816
0.999899
0.999947
0.999973
0.999987
0.999993
0.999997
0.999998
0.999998
0.999997
0.999995
0.999983
0.82376
0.770822
0.781951
0.879459
0.933033
0.94375
0.946317
0.947769
0.938502
0.918794
0.907816
0.930024
0.974565
0.991511
0.997433
0.999178
0.999449
0.997207
0.982761
0.915198
0.706124
0.569471
0.499412
0.47108
0.468566
0.486303
0.510303
0.541016
0.575136
0.60892
0.649594
0.741881
0.786218
0.793562
0.791065
0.788454
0.789302
0.784493
0.759917
0.725321
0.705261
0.697927
0.696377
0.701408
0.717576
0.738547
0.767221
0.799993
0.818021
0.822457
0.820009
0.803851
0.760126
0.675798
0.564859
0.458411
0.379767
0.33238
0.313177
0.317182
0.329775
0.351093
0.375846
0.399226
0.438555
0.534665
0.644394
0.703595
0.726733
0.749787
0.786796
0.826322
0.848944
0.855776
0.858643
0.866294
0.890966
0.929043
0.958849
0.978815
0.989794
0.995153
0.997761
0.999004
0.999542
0.999767
0.999857
0.999878
0.999872
0.999834
0.999718
0.999415
0.998893
0.997907
0.995823
0.990943
0.983547
0.975598
0.968264
0.959901
0.949528
0.940213
0.935431
0.934727
0.935405
0.938525
0.948511
0.962339
0.97438
0.983084
0.989357
0.993597
0.996257