/*--------------------------------*- C++ -*----------------------------------*\
  =========                 |
  \\      /  F ield         | OpenFOAM: The Open Source CFD Toolbox
   \\    /   O peration     | Website:  https://openfoam.org
    \\  /    A nd           | Version:  9
     \\/     M anipulation  |
\*---------------------------------------------------------------------------*/
FoamFile
{
    format      ascii;
    class       volVectorField;
    location    "0.043";
    object      U_0;
}
// * * * * * * * * * * * * * * * * * * * * * * * * * * * * * * * * * * * * * //

dimensions      [0 1 -1 0 0 0 0];

internalField   nonuniform List<vector> 
12225
(
(10.0716 0.0589536 0)
(9.80953 0.0573594 0)
(9.46619 0.0721502 0)
(9.04454 0.08848 0)
(8.67538 0.0883409 0)
(8.42862 0.0684807 0)
(8.30273 0.0381954 0)
(8.23433 0.014995 0)
(8.20592 0.00827047 0)
(8.12341 0.0238138 0)
(8.03196 0.0351087 0)
(7.87656 0.0456445 0)
(7.86683 0.0244267 0)
(7.7434 0.0261552 0)
(8.06224 -0.0671634 0)
(7.99749 0.0198132 0)
(8.82725 -0.311044 0)
(8.99677 -0.012642 0)
(9.96507 0.0246329 0)
(10.1037 0.0690325 0)
(10.2843 0.106561 0)
(10.3399 0.0973763 0)
(10.3299 0.0594082 0)
(10.3257 0.0233659 0)
(10.3266 0.0092792 0)
(10.3091 0.00911595 0)
(10.2996 0.0202536 0)
(10.3188 0.0288764 0)
(10.3926 0.0397421 0)
(10.5085 0.0167892 0)
(10.6706 0.0107746 0)
(10.8507 -0.0591284 0)
(11.1044 -0.0741267 0)
(11.3558 -0.196619 0)
(11.7605 -0.290588 0)
(12.1486 -0.614012 0)
(9.93618 0.0408619 0)
(10.1005 -0.0132221 0)
(10.2073 0.0218514 0)
(10.2944 0.0653053 0)
(10.3854 0.0785504 0)
(10.478 0.0696448 0)
(10.5497 0.0502077 0)
(10.5858 0.0284315 0)
(10.5947 0.00555007 0)
(10.5998 -0.0103595 0)
(10.633 -0.0285058 0)
(10.7083 -0.0513265 0)
(10.8215 -0.0911411 0)
(10.9757 -0.133138 0)
(11.1524 -0.222648 0)
(11.3771 -0.304412 0)
(11.6233 -0.518578 0)
(11.8941 -0.812574 0)
(10.1312 -0.0442651 0)
(10.1738 0.00411693 0)
(10.1975 0.0756031 0)
(10.2622 0.0665288 0)
(10.353 0.0139356 0)
(10.4377 -0.0260329 0)
(10.4939 -0.0296251 0)
(10.5264 -0.00681765 0)
(10.5565 0.0187779 0)
(10.6003 0.0239857 0)
(10.6666 0.00675799 0)
(10.7529 -0.0402947 0)
(10.8516 -0.09887 0)
(10.9648 -0.178522 0)
(11.0971 -0.275417 0)
(11.2551 -0.405113 0)
(11.4406 -0.608571 0)
(11.6308 -0.902248 0)
(10.2303 -0.0360625 0)
(10.2098 -0.0175008 0)
(10.3056 -0.00370217 0)
(10.3907 0.0095721 0)
(10.4156 0.0190906 0)
(10.3775 0.0291277 0)
(10.3128 0.0270154 0)
(10.2757 0.00768996 0)
(10.2964 -0.0238002 0)
(10.3729 -0.0584556 0)
(10.4914 -0.091157 0)
(10.6345 -0.126965 0)
(10.7852 -0.171148 0)
(10.9366 -0.234903 0)
(11.0877 -0.331913 0)
(11.2385 -0.476094 0)
(11.3918 -0.682305 0)
(11.5262 -0.975772 0)
(9.93404 -0.0286343 0)
(10.0693 -0.00815828 0)
(10.1735 0.0388826 0)
(10.1408 0.0464654 0)
(10.087 0.0248419 0)
(10.1116 0.00855972 0)
(10.2102 0.0031176 0)
(10.3367 -0.000101671 0)
(10.4517 -0.0128783 0)
(10.5391 -0.043812 0)
(10.6089 -0.0931264 0)
(10.6789 -0.159243 0)
(10.7602 -0.235483 0)
(10.858 -0.32341 0)
(10.9738 -0.432901 0)
(11.0986 -0.578328 0)
(11.2252 -0.772239 0)
(11.3271 -1.03714 0)
(10.1569 -0.0545558 0)
(10.072 -0.0743322 0)
(10.1295 -0.0295994 0)
(10.1716 0.0215014 0)
(10.1765 0.0180942 0)
(10.1912 -0.0173859 0)
(10.2455 -0.0574416 0)
(10.3416 -0.0874592 0)
(10.4568 -0.108478 0)
(10.5616 -0.127758 0)
(10.6424 -0.15191 0)
(10.7048 -0.189915 0)
(10.7638 -0.247192 0)
(10.8317 -0.331035 0)
(10.9189 -0.447685 0)
(11.0165 -0.607039 0)
(11.1183 -0.810222 0)
(11.1945 -1.06721 0)
(10.0269 0.0742088 0)
(10.0721 -0.0131413 0)
(10.1504 0.0241893 0)
(10.1699 0.0518943 0)
(10.1808 0.0314696 0)
(10.1975 -0.0123873 0)
(10.204 -0.0562501 0)
(10.2113 -0.0847349 0)
(10.2355 -0.100913 0)
(10.2817 -0.120976 0)
(10.3497 -0.158396 0)
(10.4387 -0.221431 0)
(10.5464 -0.309189 0)
(10.6678 -0.419662 0)
(10.7983 -0.549947 0)
(10.9243 -0.706532 0)
(11.0341 -0.889038 0)
(11.1061 -1.10589 0)
(9.93021 -0.0253092 0)
(9.92118 -0.125744 0)
(9.9202 -0.0751439 0)
(9.97503 -0.0151775 0)
(10.1027 -0.0052606 0)
(10.2436 -0.0282762 0)
(10.3415 -0.0620139 0)
(10.4042 -0.101608 0)
(10.4603 -0.144122 0)
(10.5225 -0.186907 0)
(10.588 -0.231852 0)
(10.6496 -0.287922 0)
(10.7053 -0.362644 0)
(10.7573 -0.462216 0)
(10.8105 -0.586724 0)
(10.861 -0.740831 0)
(10.903 -0.918525 0)
(10.9186 -1.12296 0)
(10.2322 -0.0724324 0)
(10.1349 -0.0157291 0)
(10.0142 0.0330863 0)
(9.9724 -0.00236658 0)
(10.052 -0.0676499 0)
(10.2068 -0.112747 0)
(10.3538 -0.132671 0)
(10.4314 -0.141668 0)
(10.4287 -0.153663 0)
(10.3809 -0.178039 0)
(10.3401 -0.220588 0)
(10.3396 -0.287056 0)
(10.3881 -0.37887 0)
(10.4733 -0.495872 0)
(10.5771 -0.631014 0)
(10.6749 -0.782677 0)
(10.7476 -0.94215 0)
(10.7737 -1.11085 0)
(9.8459 -0.000233837 0)
(9.80353 -0.0547041 0)
(9.932 -0.0306457 0)
(10.0381 -0.050252 0)
(10.1182 -0.116582 0)
(10.1783 -0.165911 0)
(10.2182 -0.16683 0)
(10.2504 -0.138732 0)
(10.2799 -0.121395 0)
(10.3092 -0.143884 0)
(10.3461 -0.211945 0)
(10.3967 -0.316579 0)
(10.46 -0.442884 0)
(10.5263 -0.579198 0)
(10.5828 -0.714966 0)
(10.6166 -0.849699 0)
(10.6186 -0.979625 0)
(10.5853 -1.11239 0)
(9.96483 -0.00100762 0)
(9.97078 -0.0778709 0)
(9.99746 -0.050318 0)
(10.0317 -0.0633354 0)
(10.04 -0.111101 0)
(10.0322 -0.152639 0)
(10.0327 -0.170666 0)
(10.0583 -0.174095 0)
(10.1071 -0.181843 0)
(10.1707 -0.212199 0)
(10.2447 -0.273232 0)
(10.3237 -0.363054 0)
(10.3993 -0.471684 0)
(10.4598 -0.58974 0)
(10.4972 -0.707178 0)
(10.5052 -0.822811 0)
(10.4845 -0.932931 0)
(10.4339 -1.04579 0)
(9.85792 -0.107206 0)
(9.91087 -0.0906858 0)
(10.0335 -0.0664294 0)
(10.1044 -0.094095 0)
(10.1444 -0.139381 0)
(10.1714 -0.174334 0)
(10.1862 -0.186334 0)
(10.2081 -0.18144 0)
(10.2569 -0.18486 0)
(10.3375 -0.221941 0)
(10.4397 -0.298963 0)
(10.5396 -0.40524 0)
(10.6123 -0.521741 0)
(10.6392 -0.634839 0)
(10.6188 -0.736119 0)
(10.5583 -0.829087 0)
(10.4761 -0.914982 0)
(10.3805 -1.00694 0)
(10.2319 -0.132645 0)
(10.1605 -0.152063 0)
(10.085 -0.127594 0)
(10.0029 -0.0927926 0)
(9.98958 -0.105626 0)
(10.029 -0.144412 0)
(10.0861 -0.178554 0)
(10.1524 -0.211721 0)
(10.2238 -0.260917 0)
(10.2907 -0.331003 0)
(10.3453 -0.409754 0)
(10.3828 -0.481588 0)
(10.4025 -0.538272 0)
(10.4054 -0.585759 0)
(10.3951 -0.634313 0)
(10.3714 -0.697414 0)
(10.3367 -0.775733 0)
(10.287 -0.872197 0)
(9.78286 -0.0968096 0)
(9.78599 0.0705995 0)
(9.85259 0.0359445 0)
(9.9243 -0.0815467 0)
(10.0162 -0.201496 0)
(10.0953 -0.283091 0)
(10.1358 -0.311741 0)
(10.1556 -0.30529 0)
(10.169 -0.297505 0)
(10.1723 -0.316694 0)
(10.1619 -0.37239 0)
(10.1412 -0.456971 0)
(10.1192 -0.55308 0)
(10.1018 -0.64579 0)
(10.0903 -0.724932 0)
(10.0794 -0.791106 0)
(10.0615 -0.844096 0)
(10.0301 -0.892304 0)
(10.0192 -0.143713 0)
(10.169 -0.233062 0)
(10.276 -0.245528 0)
(10.3041 -0.226996 0)
(10.2935 -0.199437 0)
(10.2718 -0.174065 0)
(10.2309 -0.169569 0)
(10.185 -0.197579 0)
(10.1568 -0.250283 0)
(10.1505 -0.312649 0)
(10.155 -0.37397 0)
(10.1546 -0.430913 0)
(10.1397 -0.484169 0)
(10.1075 -0.53665 0)
(10.0614 -0.58992 0)
(10.0051 -0.646105 0)
(9.94464 -0.702635 0)
(9.88081 -0.761128 0)
(10.2221 -0.276224 0)
(10.1829 -0.188925 0)
(10.0845 -0.00459528 0)
(9.94273 -0.0489557 0)
(9.85698 -0.183402 0)
(9.86301 -0.26705 0)
(9.91071 -0.282997 0)
(9.96581 -0.276192 0)
(10.011 -0.28751 0)
(10.0341 -0.327425 0)
(10.0347 -0.384854 0)
(10.0224 -0.445559 0)
(10.0075 -0.500739 0)
(9.99394 -0.548308 0)
(9.98017 -0.588353 0)
(9.95979 -0.624717 0)
(9.93087 -0.656375 0)
(9.88693 -0.688648 0)
(10.0954 -0.101842 0)
(10.0677 -0.0197541 0)
(10.0818 0.000660251 0)
(10.1291 -0.0489395 0)
(10.149 -0.108996 0)
(10.1218 -0.185285 0)
(10.0893 -0.258872 0)
(10.0762 -0.303193 0)
(10.0772 -0.319547 0)
(10.0772 -0.327704 0)
(10.0647 -0.34689 0)
(10.0369 -0.38512 0)
(9.99974 -0.436832 0)
(9.95886 -0.489596 0)
(9.91838 -0.530676 0)
(9.87708 -0.556718 0)
(9.83638 -0.566858 0)
(9.79295 -0.570281 0)
(10.1938 -0.0700038 0)
(10.1574 -0.13133 0)
(10.1614 -0.136709 0)
(10.1635 -0.149877 0)
(10.166 -0.166438 0)
(10.1636 -0.19475 0)
(10.1617 -0.23751 0)
(10.1634 -0.279837 0)
(10.1697 -0.306497 0)
(10.1763 -0.316175 0)
(10.1708 -0.318588 0)
(10.1433 -0.325085 0)
(10.0941 -0.341823 0)
(10.0296 -0.368913 0)
(9.95882 -0.401505 0)
(9.89017 -0.433743 0)
(9.82932 -0.461057 0)
(9.78131 -0.480718 0)
(10.1093 0.065156 0)
(10.1244 0.1383 0)
(10.1052 0.0372053 0)
(10.083 -0.0674171 0)
(10.0842 -0.122847 0)
(10.0668 -0.17412 0)
(10.036 -0.242985 0)
(10.0101 -0.303313 0)
(9.99447 -0.326702 0)
(9.98554 -0.311735 0)
(9.97392 -0.274898 0)
(9.94992 -0.234888 0)
(9.90956 -0.206697 0)
(9.85609 -0.199292 0)
(9.79526 -0.215582 0)
(9.73295 -0.251011 0)
(9.6731 -0.298171 0)
(9.61901 -0.347047 0)
(10.0048 0.135574 0)
(10.1566 0.0214998 0)
(10.1845 -0.090865 0)
(10.1586 -0.128376 0)
(10.1529 -0.124876 0)
(10.1438 -0.134841 0)
(10.1013 -0.184827 0)
(10.0285 -0.252071 0)
(9.94829 -0.296683 0)
(9.88418 -0.296835 0)
(9.84666 -0.258577 0)
(9.82953 -0.204487 0)
(9.82082 -0.158503 0)
(9.81089 -0.136305 0)
(9.79616 -0.142 0)
(9.77389 -0.170133 0)
(9.74608 -0.211073 0)
(9.71191 -0.254245 0)
(10.1684 -0.0627519 0)
(10.1686 0.0611532 0)
(10.1819 0.0400757 0)
(10.2024 -0.0616485 0)
(10.2193 -0.115133 0)
(10.2037 -0.108604 0)
(10.1577 -0.0901221 0)
(10.093 -0.099507 0)
(10.0183 -0.137196 0)
(9.9476 -0.178017 0)
(9.8971 -0.19958 0)
(9.87526 -0.196478 0)
(9.87916 -0.177535 0)
(9.89771 -0.156947 0)
(9.91663 -0.14772 0)
(9.92484 -0.154476 0)
(9.91677 -0.176235 0)
(9.89226 -0.207818 0)
(9.98576 0.100375 0)
(9.99905 0.0244445 0)
(10.0228 -0.081841 0)
(10.0573 -0.133557 0)
(10.0776 -0.117742 0)
(10.0729 -0.0887545 0)
(10.0528 -0.0821335 0)
(10.0262 -0.10182 0)
(9.9964 -0.130951 0)
(9.96292 -0.154125 0)
(9.92584 -0.168545 0)
(9.88699 -0.177358 0)
(9.84858 -0.182216 0)
(9.81307 -0.181625 0)
(9.78247 -0.176204 0)
(9.75599 -0.169229 0)
(9.73296 -0.164528 0)
(9.70962 -0.168468 0)
(10.2035 0.00490981 0)
(10.1798 0.0602333 0)
(10.0776 -0.0346075 0)
(10.0047 -0.112335 0)
(10.0041 -0.124585 0)
(10.0493 -0.0841129 0)
(10.0818 -0.0411358 0)
(10.0627 -0.0386216 0)
(10.0028 -0.0723058 0)
(9.93419 -0.108696 0)
(9.87995 -0.124763 0)
(9.84734 -0.119727 0)
(9.83361 -0.104924 0)
(9.83279 -0.0921776 0)
(9.84148 -0.0888089 0)
(9.85552 -0.0965567 0)
(9.87318 -0.113568 0)
(9.88828 -0.13542 0)
(9.75666 0.0848327 0)
(9.91953 0.156211 0)
(9.93043 0.0340312 0)
(9.90034 -0.0848212 0)
(9.88264 -0.150208 0)
(9.92092 -0.147653 0)
(9.98611 -0.0952822 0)
(10.0126 -0.0422391 0)
(9.97146 -0.0250617 0)
(9.88203 -0.0460716 0)
(9.78597 -0.0860355 0)
(9.71839 -0.12568 0)
(9.69221 -0.155733 0)
(9.70061 -0.174983 0)
(9.72913 -0.18589 0)
(9.76195 -0.191854 0)
(9.78947 -0.194372 0)
(9.80285 -0.193511 0)
(9.83411 0.0840486 0)
(9.9685 0.0146122 0)
(10.1161 -0.0160671 0)
(10.1869 -0.0814715 0)
(10.1225 -0.139918 0)
(9.99904 -0.145 0)
(9.90974 -0.0957764 0)
(9.88118 -0.0253738 0)
(9.90142 0.0246063 0)
(9.94958 0.0318501 0)
(10.0053 0.000829131 0)
(10.0533 -0.0492117 0)
(10.0859 -0.0984751 0)
(10.1002 -0.135137 0)
(10.0976 -0.155915 0)
(10.0823 -0.163694 0)
(10.059 -0.162577 0)
(10.0326 -0.155705 0)
(9.99982 0.171437 0)
(10.0814 -0.0315725 0)
(10.0506 -0.0641226 0)
(10.0316 -0.0609185 0)
(10.016 -0.0572291 0)
(9.99552 -0.0452062 0)
(9.97497 -0.0360622 0)
(9.96437 -0.0404446 0)
(9.97508 -0.0625143 0)
(10.0061 -0.0983529 0)
(10.0451 -0.136936 0)
(10.0807 -0.166645 0)
(10.1063 -0.180478 0)
(10.1177 -0.179295 0)
(10.109 -0.169707 0)
(10.0779 -0.158247 0)
(10.0249 -0.149291 0)
(9.95656 -0.143141 0)
(9.92981 0.00896515 0)
(9.94494 0.00424521 0)
(10.0015 -0.00327154 0)
(10.0706 -0.070967 0)
(10.1115 -0.119684 0)
(10.1221 -0.109052 0)
(10.1138 -0.0637742 0)
(10.0991 -0.0223771 0)
(10.0962 -0.00851629 0)
(10.1071 -0.0251981 0)
(10.1106 -0.0622405 0)
(10.0846 -0.103506 0)
(10.0268 -0.133142 0)
(9.95215 -0.141735 0)
(9.88117 -0.12927 0)
(9.82694 -0.103349 0)
(9.79367 -0.0727806 0)
(9.77649 -0.0472396 0)
(10.1372 0.0439197 0)
(10.1768 -0.0455789 0)
(10.2416 -0.0823911 0)
(10.2575 -0.0924302 0)
(10.1672 -0.0867524 0)
(10.0517 -0.0579878 0)
(10.002 -0.0329685 0)
(10.0292 -0.0365846 0)
(10.093 -0.0645267 0)
(10.1412 -0.0953358 0)
(10.1367 -0.111715 0)
(10.0734 -0.11074 0)
(9.9721 -0.101056 0)
(9.86443 -0.0937822 0)
(9.77501 -0.0941741 0)
(9.71497 -0.100864 0)
(9.68197 -0.109898 0)
(9.66865 -0.11468 0)
(9.93891 -0.0704443 0)
(9.83377 -0.0191284 0)
(9.70489 -0.0395848 0)
(9.47865 -0.0573766 0)
(9.22127 -0.0542904 0)
(9.02809 -0.0458819 0)
(8.90542 -0.0457172 0)
(8.79033 -0.0509725 0)
(8.63958 -0.0527235 0)
(8.45653 -0.048292 0)
(8.26656 -0.0405841 0)
(8.09067 -0.0347213 0)
(7.93378 -0.0342461 0)
(7.78879 -0.0390063 0)
(7.6425 -0.0452383 0)
(7.49184 -0.0491483 0)
(7.3353 -0.0479943 0)
(7.18745 -0.0417135 0)
(-0.390231 0.883103 4.66432e-20)
(-0.907203 0.547084 -4.61723e-20)
(-1.29624 0.178049 0)
(-1.52997 -0.0628102 0)
(-1.38151 -0.425811 0)
(-0.981939 -0.686544 4.49449e-20)
(-0.326185 -0.91096 0)
(0.481816 -0.98639 0)
(1.36823 -1.00623 0)
(2.23415 -0.969172 0)
(3.07198 -0.894352 -4.31089e-20)
(3.85418 -0.797808 0)
(4.55844 -0.692047 0)
(5.17734 -0.584317 0)
(5.70724 -0.480177 0)
(6.15512 -0.380351 -3.97825e-20)
(6.51435 -0.284149 0)
(6.80069 -0.195036 0)
(6.99779 -0.0994801 0)
(7.12384 -0.0165497 0)
(7.16187 0.0930205 0)
(7.10115 0.183939 0)
(6.94949 0.319131 0)
(6.6324 0.455357 -3.6543e-20)
(6.27347 0.574927 3.63972e-20)
(5.63129 0.835989 -3.62921e-20)
(4.9815 0.827476 -3.61996e-20)
(4.05969 1.24901 0)
(2.78602 1.32339 0)
(1.71147 0.537668 3.56236e-20)
(0.822113 0.254589 3.52782e-20)
(0.0381075 0.357172 0)
(-0.55521 0.287391 0)
(-1.07553 0.137886 3.37805e-20)
(-1.5955 0.00900114 0)
(-2.08502 -0.103991 0)
(-2.3391 -0.298957 -3.23463e-20)
(-2.1881 -0.600481 0)
(-1.66849 -0.894854 -3.21659e-20)
(-0.73366 -1.19718 -6.46336e-20)
(0.476533 -1.12275 0)
(1.54447 -0.821204 0)
(2.31985 -0.485126 0)
(2.53458 0.46243 0)
(2.13805 0.150778 0)
(1.62469 0.461002 -6.21777e-20)
(1.67302 0.404963 -6.17418e-20)
(1.4069 -1.43581 -6.11289e-20)
(1.64844 -1.33209 0)
(0.881082 0.466681 5.97265e-20)
(-0.759642 1.20524 0)
(-2.22938 1.18376 -5.81382e-20)
(-3.64978 1.11455 -5.67767e-20)
(-4.94624 1.00865 0)
(-6.11294 0.89631 0)
(-7.15221 0.784123 0)
(-8.06942 0.678259 -4.99479e-20)
(-8.8716 0.580994 0)
(-9.56703 0.491993 0)
(-10.1617 0.411278 0)
(-10.6624 0.337377 0)
(-11.0738 0.269906 0)
(-11.4018 0.207991 0)
(-11.6513 0.15185 0)
(-11.8287 0.101425 0)
(-11.9401 0.0571545 3.88668e-20)
(-11.9933 0.0192858 0)
(-11.9966 -0.0119573 0)
(-11.9641 -0.0366026 -3.74673e-20)
(-11.9026 -0.0538689 -3.71868e-20)
(-11.8239 -0.063267 0)
(-11.737 -0.0638607 3.68157e-20)
(-11.6555 -0.0548894 -3.66939e-20)
(-11.5908 -0.0359918 0)
(-11.5589 -0.00734719 3.65022e-20)
(-11.5748 0.0332837 0)
(-11.6472 0.0877809 0)
(-11.7839 0.141825 -3.6125e-20)
(-11.98 0.171283 0)
(-12.2088 0.163772 3.57507e-20)
(-12.4224 0.123427 0)
(-12.5605 0.0542409 -3.54438e-20)
(-12.5692 -0.0317842 -3.54192e-20)
(-12.4245 -0.110058 -3.55258e-20)
(-12.1427 -0.178202 -7.15509e-20)
(-11.717 -0.248779 7.23034e-20)
(-11.1527 -0.308344 0)
(-10.4827 -0.34775 0)
(-9.74541 -0.370671 0)
(-8.98026 -0.375295 7.59512e-20)
(-8.22525 -0.361357 7.65124e-20)
(-7.50868 -0.335552 -7.6828e-20)
(-6.8498 -0.303118 0)
(-6.26041 -0.266921 7.67775e-20)
(-5.74245 -0.231227 7.64835e-20)
(-5.28919 -0.199947 7.60676e-20)
(-4.89016 -0.174405 0)
(-4.53437 -0.154609 0)
(-4.2108 -0.140442 0)
(-3.90821 -0.131716 7.38415e-20)
(-3.61565 -0.128042 0)
(-3.32372 -0.128229 0)
(-3.02587 -0.130557 -7.21144e-20)
(-2.71826 -0.134054 0)
(-2.39917 -0.137966 0)
(-2.06868 -0.141332 -7.05013e-20)
(-1.72811 -0.143704 0)
(-1.37997 -0.144734 0)
(-1.02711 -0.144657 6.88788e-20)
(-0.671982 -0.143765 6.83132e-20)
(-0.316165 -0.142433 0)
(0.0392103 -0.140673 -6.71135e-20)
(0.393941 -0.138347 0)
(0.747591 -0.135732 6.57523e-20)
(1.09898 -0.132696 0)
(1.44674 -0.129047 6.43102e-20)
(1.78902 -0.124583 6.35606e-20)
(2.12341 -0.119156 0)
(2.44713 -0.112731 0)
(2.7573 -0.105394 0)
(3.05128 -0.0973215 0)
(3.32699 -0.0887681 0)
(3.58316 -0.0801044 0)
(3.81949 -0.0717529 0)
(4.03661 -0.0639306 5.6982e-20)
(4.23572 -0.0565165 -5.61367e-20)
(4.41835 -0.0494674 0)
(4.58651 -0.0431587 0)
(4.74233 -0.0373231 0)
(4.8855 -0.0297387 0)
(5.01035 -0.0187383 -1.04167e-19)
(5.10968 -0.00809807 0)
(5.18457 -0.00334373 1.01128e-19)
(5.24295 0.000415115 -9.96543e-20)
(5.28122 0.0161733 0)
(5.28013 0.0440907 0)
(5.22879 0.0684981 0)
(5.13208 0.0741258 9.40241e-20)
(5.01128 0.061304 9.2664e-20)
(4.88979 0.0442395 0)
(4.77767 0.0380945 9.00047e-20)
(4.66913 0.0462722 8.87031e-20)
(4.55358 0.0590841 -8.7412e-20)
(4.42855 0.0639105 0)
(4.3024 0.0554078 0)
(4.18756 0.037476 -8.35909e-20)
(4.09295 0.0181142 0)
(4.02094 0.00396795 0)
(3.96808 -0.00202014 0)
(3.92713 -0.000524845 0)
(3.88973 0.00572934 7.74476e-20)
(3.84918 0.0139695 7.62404e-20)
(3.80118 0.0229738 0)
(3.74227 0.0331589 7.38426e-20)
(3.66832 0.0444182 0)
(3.57591 0.0543378 0)
(3.46619 0.0590616 7.0286e-20)
(3.3468 0.0564813 0)
(3.22905 0.0480602 6.79326e-20)
(3.12262 0.0373547 0)
(3.03186 0.0276884 0)
(2.956 0.0206448 6.44639e-20)
(2.89125 0.0160736 0)
(2.83406 0.0129668 6.21942e-20)
(2.78187 0.0104019 0)
(2.73444 0.00798442 0)
(2.69135 0.00584886 0)
(2.65368 0.00426559 -5.77296e-20)
(2.61989 0.00354059 0)
(2.59042 0.00358941 5.55399e-20)
(2.56165 0.00457724 0)
(2.5336 0.00589652 0)
(2.50259 0.00835754 0)
(2.46604 0.0102703 0)
(2.42682 0.0149222 0)
(2.36449 0.0168693 0)
(2.3167 0.0274323 0)
(2.18256 0.0277275 -9.42821e-20)
(2.15143 0.0569693 0)
(1.7932 0.0457503 0)
(-0.0304408 1.60289 -1.39786e-19)
(0.13447 1.18448 1.38719e-19)
(-0.0720594 0.945022 0)
(0.0696102 0.372345 -9.0983e-20)
(0.455428 -0.698208 0)
(1.15848 -1.64009 -4.48331e-20)
(1.92729 -2.27525 8.8517e-20)
(2.68766 -2.59293 8.76775e-20)
(3.41268 -2.68021 0)
(4.0934 -2.60418 8.56597e-20)
(4.7203 -2.42727 4.28167e-20)
(5.28583 -2.19657 0)
(5.78638 -1.94341 0)
(6.22362 -1.686 0)
(6.60024 -1.43448 0)
(6.91975 -1.19381 3.96621e-20)
(7.18689 -0.961455 0)
(7.40217 -0.739841 -7.64308e-20)
(7.57206 -0.515576 0)
(7.69142 -0.295738 0)
(7.7687 -0.0596331 7.3886e-20)
(7.79435 0.184667 0)
(7.79631 0.44649 -7.25564e-20)
(7.70178 0.745523 3.64179e-20)
(7.59609 1.03475 -3.62382e-20)
(7.34873 1.42476 3.60887e-20)
(7.08712 1.73933 3.59488e-20)
(6.70381 2.14289 0)
(6.10407 2.53075 0)
(5.6224 2.64789 -3.52145e-20)
(4.66525 2.60862 3.42022e-20)
(3.36427 2.09859 0)
(2.40244 1.44367 0)
(1.56497 1.33041 -3.37387e-20)
(0.873757 1.41957 0)
(0.336376 1.23953 0)
(0.0596059 0.544076 3.25255e-20)
(-0.0814086 -0.486656 0)
(-0.0812806 -1.55788 -3.17492e-20)
(0.372864 -2.53763 6.45536e-20)
(0.952112 -2.84524 0)
(1.68336 -2.1085 0)
(1.95958 -0.958484 1.26624e-19)
(2.11378 -0.0776253 1.25784e-19)
(1.82092 0.985497 1.25229e-19)
(1.16761 0.253488 -6.22794e-20)
(1.33287 -0.168233 6.18161e-20)
(-0.743776 1.50542 1.83336e-19)
(-2.55511 2.28644 -1.19646e-19)
(-3.83077 2.79737 -5.91952e-20)
(-5.09044 2.89821 0)
(-6.07686 2.77279 5.75341e-20)
(-7.01036 2.54024 -5.40633e-20)
(-7.81554 2.29061 0)
(-8.53553 2.02301 0)
(-9.1679 1.77668 0)
(-9.72451 1.54287 4.9717e-20)
(-10.2152 1.33267 0)
(-10.6422 1.13803 -9.1728e-20)
(-11.0127 0.960087 0)
(-11.326 0.793835 -8.63021e-20)
(-11.5862 0.639289 0)
(-11.7927 0.495244 8.18282e-20)
(-11.949 0.362916 0)
(-12.057 0.243092 -7.84274e-20)
(-12.1217 0.137427 3.82708e-20)
(-12.1478 0.047191 0)
(-12.1418 -0.0263845 7.52098e-20)
(-12.1058 -0.0819939 3.74561e-20)
(-12.0508 -0.11889 3.7174e-20)
(-11.9839 -0.136471 0)
(-11.9165 -0.134228 3.66435e-20)
(-11.8572 -0.111726 3.66785e-20)
(-11.8168 -0.0690754 0)
(-11.8027 -0.00775875 -3.64883e-20)
(-11.8237 0.0698935 7.28331e-20)
(-11.8893 0.158663 0)
(-11.995 0.243406 3.61068e-20)
(-12.1266 0.297825 0)
(-12.2661 0.296798 -1.07125e-19)
(-12.386 0.22517 0)
(-12.4486 0.0784787 1.06032e-19)
(-12.4185 -0.121686 3.54248e-20)
(-12.2671 -0.339028 -3.508e-20)
(-11.9617 -0.55764 -7.05915e-20)
(-11.5122 -0.768705 7.13352e-20)
(-10.9337 -0.951781 0)
(-10.2414 -1.08517 0)
(-9.47405 -1.15565 0)
(-8.67996 -1.16224 -2.27206e-19)
(-7.897 -1.11684 -7.64644e-20)
(-7.15493 -1.03479 7.67889e-20)
(-6.47839 -0.929467 0)
(-5.88124 -0.814851 7.66171e-20)
(-5.36375 -0.705339 -7.6474e-20)
(-4.91683 -0.610887 -7.60651e-20)
(-4.52725 -0.535294 0)
(-4.18135 -0.47816 0)
(-3.86718 -0.438077 0)
(-3.57339 -0.414268 -7.38497e-20)
(-3.28787 -0.405398 0)
(-3.00024 -0.407992 1.45217e-19)
(-2.7043 -0.417353 2.16212e-19)
(-2.39725 -0.430063 -1.43e-19)
(-2.07736 -0.443738 0)
(-1.74559 -0.455338 -7.0372e-20)
(-1.40399 -0.463576 0)
(-1.05608 -0.467646 -1.38744e-19)
(-0.705193 -0.468312 6.87677e-20)
(-0.353602 -0.46673 6.82064e-20)
(-0.00297057 -0.463419 0)
(0.346207 -0.459011 2.01115e-19)
(0.693763 -0.453553 -1.32695e-19)
(1.03934 -0.447278 -6.5701e-20)
(1.38233 -0.439795 0)
(1.72175 -0.430492 -6.4263e-20)
(2.05608 -0.418722 -1.90483e-19)
(2.38335 -0.403974 0)
(2.70119 -0.386024 -1.23872e-19)
(3.00717 -0.365049 -1.22265e-19)
(3.29901 -0.341652 -1.20623e-19)
(3.57498 -0.316785 0)
(3.83412 -0.291562 0)
(4.07624 -0.267026 0)
(4.30157 -0.244006 5.69168e-20)
(4.51066 -0.223163 5.61089e-20)
(4.70493 -0.205036 0)
(4.88733 -0.189639 1.08862e-19)
(5.06162 -0.17552 1.07239e-19)
(5.23047 -0.159354 0)
(5.39308 -0.138052 1.04112e-19)
(5.54193 -0.112648 2.05104e-19)
(5.66196 -0.0881376 -1.01072e-19)
(5.74338 -0.0665874 -9.95577e-20)
(5.80411 -0.0432067 0)
(5.88005 -0.0129911 0)
(5.98065 0.0249758 0)
(6.08057 0.0653176 -9.393e-20)
(6.13415 0.0956715 9.2523e-20)
(6.10906 0.107386 1.8238e-19)
(6.01646 0.103364 -8.98811e-20)
(5.90095 0.0948372 8.85649e-20)
(5.80535 0.0903003 8.72917e-20)
(5.74759 0.0903485 0)
(5.7196 0.091359 0)
(5.69771 0.089857 -8.34632e-20)
(5.65666 0.0834084 0)
(5.58287 0.0718769 0)
(5.48002 0.0584261 1.59512e-19)
(5.36352 0.0471296 0)
(5.25018 0.0402468 7.73413e-20)
(5.15156 0.0375115 -7.6142e-20)
(5.07328 0.0377894 0)
(5.01684 0.0408948 7.37435e-20)
(4.98097 0.0472293 0)
(4.96149 0.056211 0)
(4.95184 0.0654289 -7.01871e-20)
(4.94514 0.0713222 1.38003e-19)
(4.93635 0.0712573 -6.7825e-20)
(4.92364 0.0657644 0)
(4.90812 0.0577514 0)
(4.89204 0.0501459 6.43577e-20)
(4.87656 0.0445215 0)
(4.86102 0.0409272 6.20868e-20)
(4.84304 0.0385308 0)
(4.82039 0.036172 0)
(4.79185 0.0332858 0)
(4.75828 0.0296705 5.7626e-20)
(4.72148 0.0262153 0)
(4.68364 0.022968 -5.54423e-20)
(4.64681 0.0214576 0)
(4.61056 0.02019 0)
(4.57753 0.0222941 1.04446e-19)
(4.54082 0.0230285 -1.02331e-19)
(4.5112 0.0309173 0)
(4.46281 0.0328792 0)
(4.43771 0.0525812 0)
(4.34817 0.0543039 2.82289e-19)
(4.34081 0.102642 0)
(4.13155 0.1024 -1.8026e-19)
(0.156924 0.952996 -1.26105e-22)
(0.239648 1.00433 -1.84932e-19)
(0.44612 0.545627 0)
(1.22528 -0.909349 1.81244e-19)
(2.13581 -2.34875 0)
(2.9288 -3.36393 0)
(3.55161 -3.89246 -6.31728e-22)
(4.03838 -4.02979 -8.7165e-20)
(4.43932 -3.90726 -8.52298e-20)
(4.78288 -3.63406 -8.53701e-20)
(5.0826 -3.28648 0)
(5.3472 -2.91164 0)
(5.58308 -2.53665 8.09242e-20)
(5.79521 -2.17658 1.59709e-19)
(5.98706 -1.83835 -1.57621e-19)
(6.16203 -1.52385 0)
(6.32267 -1.22892 -1.53646e-19)
(6.46916 -0.950559 7.65906e-20)
(6.60372 -0.676933 0)
(6.718 -0.406923 -1.48339e-19)
(6.81806 -0.125236 -7.40662e-20)
(6.88193 0.170134 1.4533e-19)
(6.93355 0.482756 7.27154e-20)
(6.95729 0.837298 0)
(6.98651 1.20123 -1.41492e-19)
(6.97853 1.63605 -1.40429e-19)
(6.95781 2.07183 0)
(6.93417 2.53384 -1.38488e-19)
(6.802 3.01809 0)
(6.71363 3.36964 -1.36557e-19)
(6.42893 3.63401 -6.86467e-20)
(5.87968 3.66843 0)
(5.26006 3.35561 0)
(4.35867 2.78859 0)
(3.45743 2.17276 0)
(2.89156 1.48158 0)
(2.61517 0.533297 0)
(2.33756 -0.289401 -1.28363e-19)
(2.00683 -1.25086 1.91561e-19)
(1.96215 -2.63231 0)
(1.90868 -3.20915 0)
(1.82763 -2.45668 0)
(1.55181 -0.783493 2.20365e-22)
(0.87293 0.857761 -1.25974e-19)
(0.580772 1.19691 -2.50985e-19)
(-0.544302 1.66451 2.48728e-19)
(-2.15184 2.94138 1.22233e-19)
(-3.79632 3.72697 -1.21081e-19)
(-4.90842 3.96715 1.1508e-21)
(-5.82602 4.1583 -1.15024e-19)
(-6.51299 4.03157 0)
(-7.07329 3.80228 -1.10036e-19)
(-7.57046 3.45252 2.63247e-21)
(-8.04014 3.11109 0)
(-8.48429 2.7578 0)
(-8.92605 2.44092 9.88394e-20)
(-9.34433 2.14145 0)
(-9.75182 1.87089 0)
(-10.1273 1.6161 -8.86262e-20)
(-10.4749 1.37766 -1.75031e-19)
(-10.7781 1.14921 8.63455e-20)
(-11.0363 0.931381 0)
(-11.2401 0.72355 -8.18859e-20)
(-11.3913 0.528359 0)
(-11.488 0.348447 -7.65983e-20)
(-11.5352 0.187783 -7.7202e-20)
(-11.5368 0.049775 1.50776e-19)
(-11.5 -0.0623279 7.397e-20)
(-11.4322 -0.146361 0)
(-11.3437 -0.200858 -1.47347e-19)
(-11.2435 -0.224718 0)
(-11.1418 -0.2172 -2.20046e-19)
(-11.0488 -0.177796 -1.46344e-19)
(-10.976 -0.10662 -1.46252e-19)
(-10.9361 -0.00579359 1.46163e-19)
(-10.9431 0.118039 -2.18894e-19)
(-11.0049 0.250739 0)
(-11.1225 0.371906 0)
(-11.2933 0.454877 1.43922e-19)
(-11.5 0.461213 2.14184e-19)
(-11.6974 0.350632 0)
(-11.816 0.115675 -7.0653e-20)
(-11.8055 -0.20767 0)
(-11.6608 -0.575738 2.10587e-19)
(-11.38 -0.954048 1.47216e-21)
(-10.9565 -1.314 -1.48963e-21)
(-10.3994 -1.63068 -1.44069e-19)
(-9.73364 -1.86706 0)
(-8.99361 -1.99255 1.48467e-19)
(-8.21513 -2.00647 8.40763e-22)
(-7.43537 -1.92837 0)
(-6.68964 -1.78195 0)
(-6.00522 -1.59185 0)
(-5.39873 -1.38508 -1.53353e-19)
(-4.87507 -1.18839 0)
(-4.42867 -1.0202 0)
(-4.04535 -0.887031 0)
(-3.70728 -0.7864 0)
(-3.39968 -0.714121 0)
(-3.11157 -0.668849 -1.47371e-19)
(-2.83146 -0.649357 0)
(-2.54771 -0.650877 -1.4525e-19)
(-2.25208 -0.665735 -1.44122e-19)
(-1.94151 -0.686978 1.43027e-19)
(-1.61408 -0.71036 0)
(-1.2719 -0.729631 1.409e-19)
(-0.918735 -0.742238 0)
(-0.559283 -0.747439 1.3877e-19)
(-0.198641 -0.746511 -1.37674e-19)
(0.159879 -0.741372 -4.09103e-19)
(0.514226 -0.733701 0)
(0.863146 -0.724641 -4.01343e-19)
(1.20613 -0.71485 -1.32242e-19)
(1.54266 -0.704233 0)
(1.87175 -0.692069 -2.59272e-19)
(2.1918 -0.677344 -2.56415e-19)
(2.50059 -0.65905 3.80328e-19)
(2.79555 -0.636445 0)
(3.07414 -0.60923 1.23769e-19)
(3.33449 -0.577637 1.22174e-19)
(3.57581 -0.542444 3.61505e-19)
(3.79853 -0.504926 0)
(4.00423 -0.466615 0)
(4.19546 -0.428885 0)
(4.37527 -0.392705 1.13719e-19)
(4.54609 -0.359058 0)
(4.70856 -0.329643 0)
(4.86242 -0.30628 -1.08845e-19)
(5.01061 -0.288318 -1.07226e-19)
(5.16216 -0.270099 0)
(5.32664 -0.242284 0)
(5.49925 -0.198839 -2.0508e-19)
(5.65204 -0.145569 0)
(5.75178 -0.100132 1.99142e-19)
(5.79468 -0.077322 1.96206e-19)
(5.81953 -0.0721304 0)
(5.88056 -0.0614455 0)
(5.99881 -0.0223748 -1.87798e-19)
(6.13571 0.0453463 -3.74537e-23)
(6.22082 0.118297 -3.39485e-23)
(6.21034 0.166753 0)
(6.11985 0.176591 -3.54144e-19)
(6.0038 0.154933 0)
(5.91338 0.119847 0)
(5.87123 0.0901996 0)
(5.86926 0.078795 1.66889e-19)
(5.87927 0.0872644 0)
(5.86839 0.106404 -3.23791e-19)
(5.81443 0.123377 -1.59444e-19)
(5.71551 0.129921 0)
(5.58818 0.125199 -1.54613e-19)
(5.45625 0.112812 0)
(5.33961 0.0972541 0)
(5.24947 0.0826326 -4.42336e-19)
(5.18927 0.0722497 2.90136e-19)
(5.1573 0.0673794 0)
(5.14815 0.0665101 2.80665e-19)
(5.15342 0.0660331 -1.37974e-19)
(5.16414 0.0626415 0)
(5.17382 0.0558282 0)
(5.18008 0.0472261 0)
(5.18418 0.0390678 -3.86036e-19)
(5.18908 0.0331883 0)
(5.19677 0.0304278 -1.24131e-19)
(5.20679 0.0306817 0)
(5.21575 0.0328113 0)
(5.21934 0.0355554 0)
(5.2135 0.0373829 0)
(5.19755 0.0382407 0)
(5.1719 0.0375313 0)
(5.14106 0.0372359 -2.17341e-19)
(5.10581 0.0359746 0)
(5.0725 0.0379211 -1.04398e-19)
(5.03617 0.0380922 3.06834e-19)
(5.00706 0.0460582 0)
(4.96906 0.048414 0)
(4.94647 0.0691969 -1.92067e-19)
(4.89911 0.0751233 -1.8808e-19)
(4.88749 0.124789 1.83951e-19)
(4.81847 0.141814 1.80157e-19)
(-0.162648 0.559289 2.79777e-19)
(0.127636 0.438567 2.77727e-19)
(1.1429 -1.48884 1.82946e-19)
(2.15692 -3.19725 8.998e-20)
(2.94565 -4.26089 0)
(3.45626 -4.71074 -1.75101e-19)
(3.75189 -4.72587 8.57293e-20)
(3.92764 -4.49543 0)
(4.05724 -4.15562 8.52749e-20)
(4.1784 -3.77799 0)
(4.30048 -3.39124 -1.64521e-19)
(4.42094 -3.00738 0)
(4.53799 -2.6355 -8.11285e-20)
(4.65403 -2.28415 -1.60156e-19)
(4.77361 -1.95852 1.58093e-19)
(4.90056 -1.65855 0)
(5.03692 -1.37805 1.54131e-19)
(5.1796 -1.10928 0)
(5.32639 -0.839883 0)
(5.46803 -0.562623 1.48794e-19)
(5.60329 -0.266777 0)
(5.72327 0.0527753 -1.15123e-21)
(5.8305 0.398729 0)
(5.91192 0.783425 0)
(5.98204 1.17908 1.42775e-21)
(6.04285 1.61225 1.40777e-19)
(6.10186 2.06055 1.38146e-19)
(6.18801 2.51771 1.38744e-19)
(6.25903 3.01068 0)
(6.3664 3.45385 2.71687e-19)
(6.44549 3.83815 0)
(6.41225 4.13961 1.33167e-19)
(6.28082 4.20694 0)
(5.92668 3.93571 0)
(5.376 3.42256 -1.30727e-19)
(4.84172 2.642 0)
(4.37943 1.52395 1.29541e-19)
(3.72171 0.51572 -1.42542e-21)
(3.17607 -0.620789 -2.56802e-19)
(2.90698 -2.21275 2.57608e-19)
(2.33441 -2.72896 0)
(1.53455 -1.29483 0)
(0.586205 0.585657 1.28731e-19)
(-0.189064 1.8422 0)
(-1.23381 2.88409 1.24936e-19)
(-2.79076 4.07779 -1.23339e-19)
(-4.08984 4.88035 -1.21393e-19)
(-5.00886 5.08851 0)
(-5.64512 5.09908 1.17128e-19)
(-6.19111 4.98028 1.14787e-19)
(-6.57897 4.70532 -2.202e-19)
(-6.97055 4.39419 1.0996e-19)
(-7.31759 4.02771 1.07362e-19)
(-7.70007 3.6801 0)
(-8.07158 3.3284 0)
(-8.4727 3.00344 -9.88479e-20)
(-8.86349 2.68747 0)
(-9.26232 2.38828 0)
(-9.63813 2.09443 1.80424e-19)
(-9.99375 1.80622 1.75085e-19)
(-10.3057 1.51876 0)
(-10.5711 1.23369 0)
(-10.7767 0.952777 0)
(-10.9222 0.682567 0)
(-11.0042 0.430617 1.5521e-19)
(-11.0277 0.205132 -1.50541e-19)
(-10.9979 0.0122409 -1.50919e-19)
(-10.9247 -0.143715 -2.97014e-19)
(-10.8179 -0.260853 0)
(-10.6885 -0.33699 1.28484e-21)
(-10.5471 -0.370674 0)
(-10.4049 -0.360088 1.4667e-19)
(-10.273 -0.303173 5.75775e-22)
(-10.1628 -0.19788 1.46435e-19)
(-10.0847 -0.0444481 -1.46364e-19)
(-10.0494 0.151019 -6.42844e-23)
(-10.0697 0.3689 0)
(-10.1499 0.566374 -1.45309e-19)
(-10.2745 0.68695 -1.44131e-19)
(-10.417 0.672403 -2.85786e-19)
(-10.5413 0.489193 0)
(-10.5955 0.145374 1.39966e-19)
(-10.5378 -0.313573 0)
(-10.3654 -0.825622 -2.78947e-19)
(-10.0811 -1.33905 1.40917e-19)
(-9.68782 -1.82964 -1.42311e-19)
(-9.19998 -2.25996 1.4421e-19)
(-8.64057 -2.5821 2.89848e-19)
(-8.02817 -2.76524 -1.48525e-19)
(-7.38106 -2.80247 1.5041e-19)
(-6.72603 -2.70692 0)
(-6.09065 -2.5081 -3.042e-19)
(-5.4965 -2.24282 0)
(-4.95925 -1.94837 -3.05311e-19)
(-4.48668 -1.66277 3.0451e-19)
(-4.08376 -1.41703 3.03059e-19)
(-3.74751 -1.22808 -3.01144e-19)