/*--------------------------------*- C++ -*----------------------------------*\
  =========                 |
  \\      /  F ield         | OpenFOAM: The Open Source CFD Toolbox
   \\    /   O peration     | Website:  https://openfoam.org
    \\  /    A nd           | Version:  9
     \\/     M anipulation  |
\*---------------------------------------------------------------------------*/
FoamFile
{
    format      ascii;
    class       surfaceScalarField;
    location    "0.27";
    object      phi;
}
// * * * * * * * * * * * * * * * * * * * * * * * * * * * * * * * * * * * * * //

dimensions      [0 3 -1 0 0 0 0];

internalField   nonuniform List<scalar> 
24170
(
3.04875e-06
1.39659e-07
2.88372e-06
1.65022e-07
2.72549e-06
1.58235e-07
2.57094e-06
1.54546e-07
2.41896e-06
1.5198e-07
2.2701e-06
1.48867e-07
2.12372e-06
1.46376e-07
1.97818e-06
1.45536e-07
1.83132e-06
1.46865e-07
1.68063e-06
1.50692e-07
1.52341e-06
1.57214e-07
1.3571e-06
1.66314e-07
1.17976e-06
1.77344e-07
9.90816e-07
1.8894e-07
7.92006e-07
1.98809e-07
5.87558e-07
2.04448e-07
3.85751e-07
2.01807e-07
1.90234e-07
1.95517e-07
3.49184e-06
6.50669e-08
3.53905e-06
1.17816e-07
3.56787e-06
1.2941e-07
3.57922e-06
1.43199e-07
3.57435e-06
1.56855e-07
3.55516e-06
1.68049e-07
3.52295e-06
1.7859e-07
3.47815e-06
1.90333e-07
3.4205e-06
2.04521e-07
3.34894e-06
2.22244e-07
3.26162e-06
2.44541e-07
3.15577e-06
2.72162e-07
3.02791e-06
3.05209e-07
2.87415e-06
3.42691e-07
2.69079e-06
3.82174e-07
2.4755e-06
4.19741e-07
2.22705e-06
4.50256e-07
4.7147e-07
1.94581e-06
3.6767e-06
5.08794e-08
3.69097e-06
1.03545e-07
3.70457e-06
1.15813e-07
3.71918e-06
1.28591e-07
3.73323e-06
1.42808e-07
3.74554e-06
1.55737e-07
3.75544e-06
1.68691e-07
3.76231e-06
1.83463e-07
3.76553e-06
2.01302e-07
3.76441e-06
2.23356e-07
3.75808e-06
2.50872e-07
3.74521e-06
2.85038e-07
3.72371e-06
3.26706e-07
3.69044e-06
3.75957e-07
3.64077e-06
4.31843e-07
3.56895e-06
4.91561e-07
3.46697e-06
5.52235e-07
6.05907e-07
3.33254e-06
3.93249e-06
4.37734e-08
3.93961e-06
9.64327e-08
3.94159e-06
1.13828e-07
3.94235e-06
1.27835e-07
3.94213e-06
1.43031e-07
3.94072e-06
1.57146e-07
3.93835e-06
1.71054e-07
3.93527e-06
1.86549e-07
3.93166e-06
2.04905e-07
3.92788e-06
2.27135e-07
3.92448e-06
2.54274e-07
3.92221e-06
2.87306e-07
3.92191e-06
3.27014e-07
3.92415e-06
3.73712e-07
3.92871e-06
4.27287e-07
3.93386e-06
4.86413e-07
3.93574e-06
5.50352e-07
6.13691e-07
3.92795e-06
4.21271e-06
3.81923e-08
4.21913e-06
9.00144e-08
4.22022e-06
1.12736e-07
4.21895e-06
1.29109e-07
4.21589e-06
1.46087e-07
4.21068e-06
1.62353e-07
4.20339e-06
1.7835e-07
4.19419e-06
1.95745e-07
4.18328e-06
2.15818e-07
4.17095e-06
2.39467e-07
4.15774e-06
2.67484e-07
4.1445e-06
3.0054e-07
4.13247e-06
3.39044e-07
4.12322e-06
3.82968e-07
4.11859e-06
4.31915e-07
4.12013e-06
4.84873e-07
4.12946e-06
5.41016e-07
5.9934e-07
4.14381e-06
4.51334e-06
3.3939e-08
4.51883e-06
8.45263e-08
4.52008e-06
1.1148e-07
4.51878e-06
1.30415e-07
4.51569e-06
1.49175e-07
4.51046e-06
1.67582e-07
4.50298e-06
1.8583e-07
4.49336e-06
2.05367e-07
4.48172e-06
2.27461e-07
4.46824e-06
2.52946e-07
4.45326e-06
2.82463e-07
4.43731e-06
3.1649e-07
4.42113e-06
3.5522e-07
4.40566e-06
3.98436e-07
4.39208e-06
4.45499e-07
4.38152e-06
4.95431e-07
4.37557e-06
5.46964e-07
6.0004e-07
4.37487e-06
4.83585e-06
3.0807e-08
4.8404e-06
7.99763e-08
4.84175e-06
1.10135e-07
4.84044e-06
1.31723e-07
4.83732e-06
1.52297e-07
4.83221e-06
1.72694e-07
4.82497e-06
1.93066e-07
4.81572e-06
2.14615e-07
4.80463e-06
2.38548e-07
4.79193e-06
2.65647e-07
4.77796e-06
2.96437e-07
4.76319e-06
3.31258e-07
4.74823e-06
3.7018e-07
4.73375e-06
4.12922e-07
4.72041e-06
4.58837e-07
4.70879e-06
5.07046e-07
4.69942e-06
5.56338e-07
6.06353e-07
4.69311e-06
5.18186e-06
2.85296e-08
5.18555e-06
7.62884e-08
5.18684e-06
1.0884e-07
5.18554e-06
1.33025e-07
5.18239e-06
1.55442e-07
5.17741e-06
1.77678e-07
5.17047e-06
2.00008e-07
5.16168e-06
2.23408e-07
5.15125e-06
2.48969e-07
5.13949e-06
2.77413e-07
5.12677e-06
3.0916e-07
5.1136e-06
3.44426e-07
5.10059e-06
3.83184e-07
5.0884e-06
4.25114e-07
5.07763e-06
4.69606e-07
5.06879e-06
5.15886e-07
5.06219e-06
5.6294e-07
6.10371e-07
5.05817e-06
5.55298e-06
2.68832e-08
5.55589e-06
7.33811e-08
5.55705e-06
1.07682e-07
5.55583e-06
1.34243e-07
5.55279e-06
1.58478e-07
5.54807e-06
1.82405e-07
5.54157e-06
2.06503e-07
5.53341e-06
2.31568e-07
5.52384e-06
2.5854e-07
5.51319e-06
2.88063e-07
5.50188e-06
3.20468e-07
5.49044e-06
3.55866e-07
5.47948e-06
3.94146e-07
5.46963e-06
4.3496e-07
5.46151e-06
4.77733e-07
5.45562e-06
5.21771e-07
5.45235e-06
5.66209e-07
6.10754e-07
5.45197e-06
5.95096e-06
2.5698e-08
5.95321e-06
7.11369e-08
5.95421e-06
1.06678e-07
5.95316e-06
1.35294e-07
5.95038e-06
1.61256e-07
5.94607e-06
1.86718e-07
5.94021e-06
2.12363e-07
5.93292e-06
2.38861e-07
5.92446e-06
2.66992e-07
5.91522e-06
2.97306e-07
5.90563e-06
3.30058e-07
5.89622e-06
3.65274e-07
5.88759e-06
4.02782e-07
5.88033e-06
4.42213e-07
5.87504e-06
4.83025e-07
5.87222e-06
5.24596e-07
5.87227e-06
5.66154e-07
6.07487e-07
5.87554e-06
6.37767e-06
2.48411e-08
6.3794e-06
6.94097e-08
6.38029e-06
1.05788e-07
6.37949e-06
1.36089e-07
6.37713e-06
1.63612e-07
6.37342e-06
1.90429e-07
6.36842e-06
2.17368e-07
6.36226e-06
2.45023e-07
6.35523e-06
2.74022e-07
6.34772e-06
3.04815e-07
6.34019e-06
3.37587e-07
6.33317e-06
3.72298e-07
6.32722e-06
4.08731e-07
6.32292e-06
4.46511e-07
6.32082e-06
4.85125e-07
6.3214e-06
5.24014e-07
6.32508e-06
5.62476e-07
6.00356e-07
6.33221e-06
5.74139e-06
2.4283e-08
5.74257e-06
6.82293e-08
5.7433e-06
1.05062e-07
5.7429e-06
1.36484e-07
5.74138e-06
1.65141e-07
5.73887e-06
1.92932e-07
5.73549e-06
2.20747e-07
5.73138e-06
2.49139e-07
5.72678e-06
2.78623e-07
5.72203e-06
3.09564e-07
5.71752e-06
3.42091e-07
5.7137e-06
3.76121e-07
5.71102e-06
4.1141e-07
5.70995e-06
4.47585e-07
5.71091e-06
4.84158e-07
5.71431e-06
5.20617e-07
5.72048e-06
5.56312e-07
5.91137e-07
5.72969e-06
6.99868e-06
2.3762e-08
6.99984e-06
6.70644e-08
7.00073e-06
1.04168e-07
7.00069e-06
1.36527e-07
6.99962e-06
1.66215e-07
6.99766e-06
1.94886e-07
6.99498e-06
2.23434e-07
6.99174e-06
2.52372e-07
6.98826e-06
2.82108e-07
6.98491e-06
3.12914e-07
6.98214e-06
3.44856e-07
6.98045e-06
3.77818e-07
6.98032e-06
4.11536e-07
6.98226e-06
4.45643e-07
6.98674e-06
4.79685e-07
6.99416e-06
5.13196e-07
7.00488e-06
5.45585e-07
5.76787e-07
7.01923e-06
8.53137e-06
2.32401e-08
8.53264e-06
6.57955e-08
8.53391e-06
1.02895e-07
8.53457e-06
1.35865e-07
8.53447e-06
1.66322e-07
8.53372e-06
1.95635e-07
8.53252e-06
2.24632e-07
8.53111e-06
2.53779e-07
8.52984e-06
2.83386e-07
8.52912e-06
3.13628e-07
8.52946e-06
3.44516e-07
8.53138e-06
3.75901e-07
8.5354e-06
4.07512e-07
8.54205e-06
4.38999e-07
8.55179e-06
4.69945e-07
8.56504e-06
4.9994e-07
8.58217e-06
5.28454e-07
5.55473e-07
8.60349e-06
1.03998e-05
2.26299e-08
1.04015e-05
6.41617e-08
1.04035e-05
1.00828e-07
1.04055e-05
1.33901e-07
1.04072e-05
1.64652e-07
1.04086e-05
1.94158e-07
1.04101e-05
2.23129e-07
1.0412e-05
2.51963e-07
1.04145e-05
2.80881e-07
1.04181e-05
3.09973e-07
1.04234e-05
3.39195e-07
1.0431e-05
3.68376e-07
1.04412e-05
3.97253e-07
1.04547e-05
4.25501e-07
1.04719e-05
4.52755e-07
1.04932e-05
4.78664e-07
1.05189e-05
5.02775e-07
5.25136e-07
1.05492e-05
1.26776e-05
2.17698e-08
1.26801e-05
6.17004e-08
1.26837e-05
9.72575e-08
1.26879e-05
1.29677e-07
1.26926e-05
1.59974e-07
1.26978e-05
1.88962e-07
1.27037e-05
2.17194e-07
1.27107e-05
2.44979e-07
1.27191e-05
2.72458e-07
1.27294e-05
2.9965e-07
1.27422e-05
3.26468e-07
1.27578e-05
3.52735e-07
1.27769e-05
3.78204e-07
1.27998e-05
4.02594e-07
1.28269e-05
4.25599e-07
1.28586e-05
4.46943e-07
1.28952e-05
4.66262e-07
4.83664e-07
1.29366e-05
1.54545e-05
2.04003e-08
1.54586e-05
5.7679e-08
1.54648e-05
9.10659e-08
1.54727e-05
1.21738e-07
1.54822e-05
1.5051e-07
1.54932e-05
1.77964e-07
1.55059e-05
2.0448e-07
1.55206e-05
2.30265e-07
1.55377e-05
2.55388e-07
1.55575e-05
2.79814e-07
1.55805e-05
3.0343e-07
1.56072e-05
3.26064e-07
1.56379e-05
3.47506e-07
1.5673e-05
3.67526e-07
1.57127e-05
3.85891e-07
1.57572e-05
4.02408e-07
1.58067e-05
4.16813e-07
4.29263e-07
1.58611e-05
1.88399e-05
1.81232e-08
1.88466e-05
5.10256e-08
1.8857e-05
8.06398e-08
1.88707e-05
1.08041e-07
1.88873e-05
1.33859e-07
1.89068e-05
1.58459e-07
1.89293e-05
1.82047e-07
1.89548e-05
2.04719e-07
1.89837e-05
2.26478e-07
1.90163e-05
2.47253e-07
1.90528e-05
2.66921e-07
1.90935e-05
2.85328e-07
1.91387e-05
3.02308e-07
1.91886e-05
3.17695e-07
1.92431e-05
3.31332e-07
1.93024e-05
3.43103e-07
1.93664e-05
3.52846e-07
3.6074e-07
1.94349e-05
2.29672e-05
1.42648e-08
2.29781e-05
4.01509e-08
2.2995e-05
6.36745e-08
2.30173e-05
8.57936e-08
2.30442e-05
1.06907e-07
2.30756e-05
1.27119e-07
2.31112e-05
1.46443e-07
2.3151e-05
1.64868e-07
2.31952e-05
1.82338e-07
2.32437e-05
1.98749e-07
2.32966e-05
2.13972e-07
2.33541e-05
2.27877e-07
2.3416e-05
2.40341e-07
2.34825e-05
2.51256e-07
2.35533e-05
2.60531e-07
2.36283e-05
2.68113e-07
2.37072e-05
2.73926e-07
2.78133e-07
2.37898e-05
1.68143e-05
1.06949e-08
1.68242e-05
3.0235e-08
1.68395e-05
4.83991e-08
1.68592e-05
6.60479e-08
1.68828e-05
8.33095e-08
1.69099e-05
1.00018e-07
1.69403e-05
1.16048e-07
1.69738e-05
1.3133e-07
1.70104e-05
1.45774e-07
1.70499e-05
1.59248e-07
1.70923e-05
1.71618e-07
1.71374e-05
1.82766e-07
1.71851e-05
1.92588e-07
1.72354e-05
2.01005e-07
1.7288e-05
2.07956e-07
1.73426e-05
2.13418e-07
1.73992e-05
2.17358e-07
2.19927e-07
1.74574e-05
1.46382e-05
7.04907e-09
1.46484e-05
2.00911e-08
1.46637e-05
3.30217e-08
1.46832e-05
4.65425e-08
1.47062e-05
6.03467e-08
1.47323e-05
7.39439e-08
1.47612e-05
8.71117e-08
1.47928e-05
9.97555e-08
1.48268e-05
1.11735e-07
1.48632e-05
1.22881e-07
1.49018e-05
1.33058e-07
1.49424e-05
1.42162e-07
1.49848e-05
1.50104e-07
1.5029e-05
1.56815e-07
1.50747e-05
1.62246e-07
1.51218e-05
1.66385e-07
1.51699e-05
1.69208e-07
1.70825e-07
1.5219e-05
1.27439e-05
3.29517e-09
1.27542e-05
9.7563e-09
1.27694e-05
1.77994e-08
1.27882e-05
2.77864e-08
1.28099e-05
3.86398e-08
1.28343e-05
4.9528e-08
1.28612e-05
6.02574e-08
1.28902e-05
7.07437e-08
1.29212e-05
8.07711e-08
1.29539e-05
9.01148e-08
1.29883e-05
9.86422e-08
1.30242e-05
1.06256e-07
1.30615e-05
1.12876e-07
1.30998e-05
1.1844e-07
1.31392e-05
1.22905e-07
1.31793e-05
1.26266e-07
1.322e-05
1.28534e-07
1.29826e-07
1.3261e-05
1.10949e-05
-6.46198e-10
1.11055e-05
-8.75464e-10
1.11205e-05
2.84028e-09
1.11382e-05
1.00737e-08
1.11583e-05
1.85194e-08
1.11807e-05
2.70967e-08
1.12052e-05
3.57834e-08
1.12315e-05
4.44925e-08
1.12593e-05
5.2901e-08
1.12886e-05
6.08003e-08
1.13192e-05
6.80632e-08
1.13509e-05
7.45783e-08
1.13835e-05
8.0264e-08
1.14169e-05
8.5058e-08
1.14509e-05
8.89159e-08
1.14853e-05
9.18277e-08
1.15201e-05
9.378e-08
9.48084e-08
1.15551e-05
9.65949e-06
-4.92295e-09
9.67056e-06
-1.19435e-08
9.6851e-06
-1.16971e-08
9.70164e-06
-6.46491e-09
9.72019e-06
-3.07807e-11
9.74064e-06
6.64674e-09
9.76263e-06
1.37895e-08
9.78592e-06
2.12016e-08
9.81058e-06
2.82417e-08
9.83641e-06
3.49707e-08
9.86323e-06
4.12375e-08
9.89089e-06
4.69205e-08
9.91922e-06
5.19357e-08
9.94809e-06
5.61916e-08
9.97735e-06
5.96498e-08
1.00069e-05
6.23174e-08
1.00364e-05
6.42222e-08
6.54828e-08
1.00657e-05
8.41034e-06
-9.90731e-09
8.42207e-06
-2.36735e-08
8.43574e-06
-2.53707e-08
8.45083e-06
-2.15535e-08
8.46788e-06
-1.70785e-08
8.48662e-06
-1.20947e-08
8.50663e-06
-6.22026e-09
8.52747e-06
3.61417e-10
8.54943e-06
6.28262e-09
8.57227e-06
1.21319e-08
8.59589e-06
1.76166e-08
8.62013e-06
2.26804e-08
8.64478e-06
2.72807e-08
8.66978e-06
3.11898e-08
8.69502e-06
3.44099e-08
8.72038e-06
3.69592e-08
8.74579e-06
3.88174e-08
3.99704e-08
8.7713e-06
7.32322e-06
-1.58454e-08
7.33617e-06
-3.66197e-08
7.34877e-06
-3.79691e-08
7.36206e-06
-3.48494e-08
7.37709e-06
-3.21104e-08
7.39349e-06
-2.84934e-08
7.41094e-06
-2.36632e-08
7.42957e-06
-1.82695e-08
7.44891e-06
-1.30627e-08
7.46899e-06
-7.94056e-09
7.48975e-06
-3.15044e-09
7.51108e-06
1.35521e-09
7.53266e-06
5.69711e-09
7.55449e-06
9.35895e-09
7.57646e-06
1.244e-08
7.59846e-06
1.49627e-08
7.62035e-06
1.69252e-08
1.84376e-08
7.64188e-06
6.37669e-06
-2.24703e-08
6.39065e-06
-5.05789e-08
6.40287e-06
-5.01892e-08
6.41564e-06
-4.76165e-08
6.42979e-06
-4.62596e-08
6.44487e-06
-4.35735e-08
6.46077e-06
-3.95708e-08
6.47759e-06
-3.50848e-08
6.49512e-06
-3.05892e-08
6.5133e-06
-2.6124e-08
6.53194e-06
-2.17861e-08
6.5509e-06
-1.76092e-08
6.57024e-06
-1.3646e-08
6.58974e-06
-1.01407e-08
6.60929e-06
-7.10812e-09
6.62881e-06
-4.55613e-09
6.64823e-06
-2.49975e-09
-8.64278e-10
6.66754e-06
5.55533e-06
-3.23335e-08
5.57037e-06
-6.56242e-08
5.58571e-06
-6.55262e-08
5.60331e-06
-6.52159e-08
5.62257e-06
-6.55175e-08
5.64258e-06
-6.3591e-08
5.66302e-06
-6.00022e-08
5.68369e-06
-5.57602e-08
5.70439e-06
-5.12893e-08
5.72497e-06
-4.67021e-08
5.74529e-06
-4.21095e-08
5.76531e-06
-3.76224e-08
5.78501e-06
-3.3347e-08
5.8043e-06
-2.94366e-08
5.82315e-06
-2.59583e-08
5.84159e-06
-2.29876e-08
5.85961e-06
-2.05247e-08
-1.88508e-08
5.8776e-06
4.88776e-06
-9.24843e-08
4.93464e-06
-1.12502e-07
4.97371e-06
-1.04603e-07
5.006e-06
-9.74995e-08
5.03186e-06
-9.13843e-08
5.05247e-06
-8.41949e-08
5.06893e-06
-7.64692e-08
5.08214e-06
-6.89643e-08
5.09278e-06
-6.19295e-08
5.10146e-06
-5.53818e-08
5.10868e-06
-4.93284e-08
5.11484e-06
-4.37886e-08
5.12028e-06
-3.8781e-08
5.12518e-06
-3.43439e-08
5.12971e-06
-3.04885e-08
5.13397e-06
-2.72473e-08
5.13808e-06
-2.46299e-08
-2.30902e-08
5.14232e-06
4.11019e-06
3.99769e-06
3.89309e-06
3.79559e-06
3.7042e-06
3.62001e-06
3.54354e-06
3.47457e-06
3.41265e-06
3.35726e-06
3.30793e-06
3.26415e-06
3.22537e-06
3.19102e-06
3.16053e-06
3.13329e-06
3.10866e-06
3.08557e-06
-5.20038e-07
5.20038e-07
-4.64782e-07
-5.52569e-08
3.42529e-07
-8.0731e-07
1.5617e-06
-1.21917e-06
2.82984e-06
-1.26815e-06
3.9317e-06
-1.10186e-06
4.77889e-06
-8.47189e-07
5.34391e-06
-5.65016e-07
5.62359e-06
-2.79683e-07
5.62581e-06
-2.2204e-09
5.31077e-06
3.15034e-07
4.72148e-06
5.89291e-07
3.91144e-06
8.10047e-07
2.96544e-06
9.45993e-07
2.00193e-06
9.63514e-07
1.1544e-06
8.4753e-07
5.5167e-07
6.0273e-07
2.8848e-07
2.6319e-07
3.1545e-07
-2.69698e-08
5.85142e-07
-2.69692e-07
1.00285e-06
-4.17703e-07
1.42111e-06
-4.18261e-07
1.70862e-06
-2.87517e-07
1.8077e-06
-9.90798e-08
1.73713e-06
7.05746e-08
1.46299e-06
2.7414e-07
9.39747e-07
5.23242e-07
1.55301e-07
7.84446e-07
-8.37967e-07
9.93268e-07
-1.96729e-06
1.12933e-06
-3.17052e-06
1.20322e-06
-4.39237e-06
1.22186e-06
-5.58678e-06
1.1944e-06
-6.71776e-06
1.13098e-06
-7.75945e-06
1.04169e-06
-8.6951e-06
9.35655e-07
-9.51549e-06
8.20383e-07
-1.02172e-05
7.01672e-07
-1.08009e-05
5.83712e-07
-1.12702e-05
4.69341e-07
-1.16306e-05
3.60356e-07
-1.18884e-05
2.57812e-07
-1.20512e-05
1.62788e-07
-1.21282e-05
7.70163e-08
-1.21317e-05
3.53369e-09
-1.2076e-05
-5.57621e-08
-1.19709e-05
-1.05101e-07
-1.18233e-05
-1.47591e-07
-1.1638e-05
-1.85277e-07
-1.14187e-05
-2.19241e-07
-1.11686e-05
-2.50195e-07
-1.08898e-05
-2.78704e-07
-1.05846e-05
-3.05294e-07
-1.02541e-05
-3.30481e-07
-9.89932e-06
-3.54755e-07
-9.52077e-06
-3.78546e-07
-9.1186e-06
-4.02173e-07
-8.69282e-06
-4.25783e-07
-8.24351e-06
-4.49305e-07
-7.7711e-06
-4.72406e-07
-7.27661e-06
-4.94493e-07
-6.76186e-06
-5.14748e-07
-6.22966e-06
-5.32201e-07
-5.6838e-06
-5.45858e-07
-5.12898e-06
-5.54829e-07
-4.57052e-06
-5.58457e-07
-4.0141e-06
-5.56418e-07
-3.46534e-06
-5.48757e-07
-2.92948e-06
-5.35862e-07
-2.4111e-06
-5.18385e-07
-1.91396e-06
-4.9714e-07
-1.44097e-06
-4.72986e-07
-9.94309e-07
-4.46662e-07
-5.75731e-07
-4.18578e-07
-1.85714e-07
-3.90017e-07
1.78497e-07
-3.64211e-07
5.15468e-07
-3.36972e-07
8.26306e-07
-3.10837e-07
1.11273e-06
-2.86422e-07
1.37567e-06
-2.62944e-07
1.61652e-06
-2.4085e-07
1.83739e-06
-2.20864e-07
2.0388e-06
-2.01416e-07
2.2213e-06
-1.82497e-07
2.38633e-06
-1.65033e-07
2.53494e-06
-1.48612e-07
2.66788e-06
-1.32939e-07
2.78572e-06
-1.17835e-07
2.88933e-06
-1.03609e-07
2.97901e-06
-8.96805e-08
3.04775e-06
-6.87382e-08
3.07683e-06
-2.90862e-08
3.04213e-06
3.47e-08
2.94338e-06
9.87538e-08
2.79289e-06
1.50492e-07
2.61473e-06
1.78161e-07
2.43629e-06
1.78437e-07
2.27818e-06
1.58106e-07
2.15363e-06
1.24555e-07
2.06745e-06
8.61822e-08
2.01799e-06
4.9454e-08
2.00033e-06
1.76621e-08
2.00442e-06
-4.09046e-09
2.02449e-06
-2.0075e-08
2.05584e-06
-3.13486e-08
2.09773e-06
-4.18907e-08
2.15335e-06
-5.56205e-08
2.22951e-06
-7.61607e-08
2.33617e-06
-1.06655e-07
2.48366e-06
-1.47489e-07
2.67566e-06
-1.92006e-07
2.89746e-06
-2.218e-07
3.10785e-06
-2.1039e-07
3.25326e-06
-1.45409e-07
3.2869e-06
-3.36329e-08
3.12574e-06
1.61159e-07
2.60835e-06
5.1739e-07
1.60248e-06
1.00587e-06
1.79144e-07
1.42334e-06
-1.42796e-06
1.60711e-06
-2.98633e-06
1.55837e-06
-4.36962e-06
1.38329e-06
-5.52792e-06
1.1583e-06
-6.45262e-06
9.24695e-07
-7.15295e-06
7.00335e-07
-7.64343e-06
4.90476e-07
-7.93935e-06
2.95927e-07
-8.05729e-06
1.1794e-07
-8.02475e-06
-3.25484e-08
-7.86217e-06
-1.62573e-07
-7.57844e-06
-2.83736e-07
-7.17735e-06
-4.01086e-07
-6.66206e-06
-5.1529e-07
-6.03661e-06
-6.25457e-07
-5.30674e-06
-7.29871e-07
-4.48063e-06
-8.2611e-07
-3.56986e-06
-9.10766e-07
-2.58994e-06
-9.79923e-07
-1.56361e-06
-1.02632e-06
-5.15714e-07
-1.0479e-06
5.28327e-07
-1.04404e-06
1.53654e-06
-1.00822e-06
2.48849e-06
-9.51947e-07
3.36772e-06
-8.79233e-07
4.16323e-06
-7.95507e-07
4.87008e-06
-7.06853e-07
5.48666e-06
-6.16572e-07
6.01251e-06
-5.25859e-07
6.45609e-06
-4.43578e-07
6.81997e-06
-3.63877e-07
7.02387e-06
-2.039e-07
6.90819e-06
1.15678e-07
6.39982e-06
5.08375e-07
5.54061e-06
8.59205e-07
4.47557e-06
1.06505e-06
3.42464e-06
1.05093e-06
2.61387e-06
8.10761e-07
2.19334e-06
4.20534e-07
2.1636e-06
2.97402e-08
2.43043e-06
-2.66833e-07
2.86392e-06
-4.33483e-07
3.17421e-06
-3.10293e-07
2.93173e-06
2.42476e-07
1.78771e-06
1.14402e-06
-2.93157e-07
2.08087e-06
-2.55222e-06
2.25907e-06
-4.29549e-06
1.74327e-06
-5.27925e-06
9.83756e-07
-5.52466e-06
2.45419e-07
-5.23061e-06
-2.94051e-07
-4.54073e-06
-6.89887e-07
-3.61956e-06
-9.21167e-07
-2.61818e-06
-1.00138e-06
-1.642e-06
-9.76177e-07
-7.46283e-07
-8.9572e-07
8.90748e-08
-8.35358e-07
8.7444e-07
-7.85365e-07
1.58302e-06
-7.0858e-07
2.07594e-06
-4.92918e-07
-1.8442e-07
2.26036e-06
3.582e-07
1.61838e-07
1.49309e-06
-1.19015e-06
2.789e-06
-2.10322e-06
3.88147e-06
-2.31163e-06
4.70006e-06
-2.08674e-06
5.28453e-06
-1.68632e-06
5.68272e-06
-1.24539e-06
5.93271e-06
-8.15002e-07
6.05714e-06
-4.0411e-07
6.0707e-06
-1.57855e-08
5.98438e-06
4.01357e-07
5.76142e-06
8.1225e-07
5.36646e-06
1.20501e-06
4.79254e-06
1.51991e-06
4.08136e-06
1.6747e-06
3.33146e-06
1.59742e-06
2.65813e-06
1.27606e-06
2.09212e-06
8.29198e-07
1.76481e-06
3.00336e-07
1.80406e-06
-3.08936e-07
1.74524e-06
-3.58882e-07
1.3364e-06
-9.42095e-09
6.64589e-07
3.8429e-07
-3.29814e-07
8.95324e-07
-1.58653e-06
1.32729e-06
-2.9897e-06
1.67731e-06
-4.42653e-06
1.96007e-06
-5.80762e-06
2.16554e-06
-7.09146e-06
2.2771e-06
-8.25421e-06
2.29208e-06
-9.27368e-06
2.2227e-06
-1.01384e-05
2.08657e-06
-1.08475e-05
1.90349e-06
-1.14092e-05
1.69267e-06
-1.18381e-05
1.47068e-06
-1.21529e-05
1.25036e-06
-1.2373e-05
1.04049e-06
-1.25174e-05
8.46153e-07
-1.26033e-05
6.69569e-07
-1.26447e-05
5.10742e-07
-1.26528e-05
3.68427e-07
-1.26358e-05
2.40876e-07
-1.25993e-05
1.26244e-07
-1.25449e-05
2.26544e-08
-1.2468e-05
-7.34065e-08
-1.23608e-05
-1.62907e-07
-1.22192e-05
-2.46702e-07
-1.20429e-05
-3.23901e-07
-1.18336e-05
-3.94609e-07
-1.15935e-05
-4.59326e-07
-1.1325e-05
-5.18736e-07
-1.103e-05
-5.73655e-07
-1.07103e-05
-6.25006e-07
-1.0367e-05
-6.73778e-07
-1.00008e-05
-7.20963e-07
-9.61189e-06
-7.6746e-07
-9.20011e-06
-8.13957e-07
-8.76509e-06
-8.60798e-07
-8.30654e-06
-9.0786e-07
-7.82448e-06
-9.54461e-07
-7.31963e-06
-9.99346e-07
-6.79363e-06
-1.04075e-06
-6.24926e-06
-1.07657e-06
-5.69048e-06
-1.10464e-06
-5.1223e-06
-1.12301e-06
-4.55047e-06
-1.13028e-06
-3.98112e-06
-1.12576e-06
-3.42029e-06
-1.10959e-06
-2.87352e-06
-1.08264e-06
-2.34553e-06
-1.04638e-06
-1.84005e-06
-1.00262e-06
-1.35977e-06
-9.53266e-07
-9.06362e-07
-9.00072e-07
-4.80506e-07
-8.44434e-07
-8.22631e-08
-7.8826e-07
2.87821e-07
-7.34295e-07
6.31354e-07
-6.80505e-07
9.49383e-07
-6.28865e-07
1.24307e-06
-5.80107e-07
1.51409e-06
-5.33969e-07
1.76368e-06
-4.90442e-07
1.99268e-06
-4.49857e-07
2.20296e-06
-4.11703e-07
2.39607e-06
-3.75606e-07
2.57277e-06
-3.41731e-07
2.73401e-06
-3.0985e-07
2.88073e-06
-2.79657e-07
3.01364e-06
-2.5075e-07
3.13261e-06
-2.22574e-07
3.23732e-06
-1.94391e-07
3.33404e-06
-1.65465e-07
3.43927e-06
-1.34313e-07
3.56857e-06
-9.46031e-08
3.71092e-06
-4.35968e-08
3.84886e-06
1.25557e-08
3.96706e-06
5.99581e-08
4.06021e-06
8.52864e-08
4.1313e-06
8.70183e-08
4.18546e-06
7.0392e-08
4.2268e-06
4.48426e-08
4.25561e-06
2.06438e-08
4.26877e-06
4.50206e-09
4.26426e-06
4.20277e-10
4.23713e-06
7.06184e-09
4.18423e-06
2.15438e-08
4.10871e-06
3.36274e-08
4.02041e-06
3.26819e-08
3.936e-06
8.25519e-09
3.87655e-06
-4.72075e-08
3.86459e-06
-1.35529e-07
3.91822e-06
-2.45633e-07
4.03286e-06
-3.36442e-07
4.15559e-06
-3.33119e-07
4.15198e-06
-1.41798e-07
3.76696e-06
3.51379e-07
2.68965e-06
1.23848e-06
9.11335e-07
2.2957e-06
-1.13895e-06
3.05615e-06
-3.00255e-06
3.28693e-06
-4.50203e-06
3.10659e-06
-5.63474e-06
2.69107e-06
-6.45312e-06
2.20168e-06
-7.02714e-06
1.73232e-06
-7.42158e-06
1.31913e-06
-7.68568e-06
9.64434e-07
-7.85199e-06
6.56788e-07
-7.93824e-06
3.82176e-07
-7.94893e-06
1.28634e-07
-7.8692e-06
-1.12281e-07
-7.68084e-06
-3.50932e-07
-7.37922e-06
-5.85361e-07
-6.96496e-06
-8.15341e-07
-6.44008e-06
-1.04017e-06
-5.80774e-06
-1.25779e-06
-5.07296e-06
-1.46466e-06
-4.24363e-06
-1.65544e-06
-3.33143e-06
-1.82296e-06
-2.3528e-06
-1.95855e-06
-1.3248e-06
-2.05432e-06
-2.73539e-07
-2.09916e-06
7.71188e-07
-2.08877e-06
1.78521e-06
-2.02224e-06
2.74606e-06
-1.91279e-06
3.63686e-06
-1.77003e-06
4.447e-06
-1.60565e-06
5.17168e-06
-1.43153e-06
5.8127e-06
-1.25759e-06
6.37632e-06
-1.08948e-06
6.85808e-06
-9.25333e-07
7.25408e-06
-7.59876e-07
7.64137e-06
-5.91188e-07
8.11739e-06
-3.60345e-07
8.60543e-06
2.03385e-08
8.91365e-06
5.5098e-07
8.91862e-06
1.06008e-06
8.62794e-06
1.34161e-06
8.09661e-06
1.34209e-06
7.32824e-06
1.18891e-06
6.35714e-06
1.00084e-06
5.39366e-06
6.96647e-07
4.70706e-06
2.53112e-07
4.22034e-06
1.76427e-07
3.21092e-06
1.2519e-06
1.21414e-06
3.1408e-06
-1.0454e-06
4.34041e-06
-2.82591e-06
4.03958e-06
-3.92546e-06
2.84282e-06
-4.48882e-06
1.54711e-06
-4.6012e-06
3.57805e-07
-4.29973e-06
-5.95519e-07
-3.62509e-06
-1.36453e-06
-2.73267e-06
-1.81358e-06
-1.77963e-06
-1.95443e-06
-8.6297e-07
-1.89283e-06
-2.91198e-08
-1.72957e-06
7.01004e-07
-1.56548e-06
1.39794e-06
-1.4823e-06
2.09478e-06
-1.40542e-06
2.70205e-06
-1.10019e-06
-4.96023e-07
3.01365e-06
1.12703e-06
-9.65189e-07
2.60328e-06
-2.6664e-06
3.53834e-06
-3.03828e-06
3.95846e-06
-2.73175e-06
4.10107e-06
-2.22935e-06
4.13648e-06
-1.72174e-06
4.14263e-06
-1.25154e-06
4.14496e-06
-8.17334e-07
4.14677e-06
-4.05919e-07
4.128e-06
2.9885e-09
4.10504e-06
4.24315e-07
4.04661e-06
8.70682e-07
3.91779e-06
1.33382e-06
3.68058e-06
1.75712e-06
3.31437e-06
2.04091e-06
2.83222e-06
2.07957e-06
2.29536e-06
1.81293e-06
1.89794e-06
1.22661e-06
1.6167e-06
5.81572e-07
9.00115e-07
4.07652e-07
-2.94499e-07
8.35732e-07
-1.77006e-06
1.46614e-06
-3.3525e-06
1.96673e-06
-4.84918e-06
2.39201e-06
-6.23975e-06
2.71786e-06
-7.49337e-06
2.93093e-06
-8.56658e-06
3.03328e-06
-9.43426e-06
3.03322e-06
-1.01009e-05
2.94378e-06
-1.05913e-05
2.7824e-06
-1.09389e-05
2.57035e-06
-1.11813e-05
2.32895e-06
-1.13544e-05
2.07657e-06
-1.14885e-05
1.82674e-06
-1.16055e-05
1.5877e-06
-1.17182e-05
1.36311e-06
-1.18312e-05
1.15342e-06
-1.19423e-05
9.57324e-07
-1.20457e-05
7.72922e-07
-1.21334e-05
5.98463e-07
-1.21977e-05
4.32727e-07
-1.22319e-05
2.75087e-07
-1.22309e-05
1.25271e-07
-1.2192e-05
-1.63414e-08
-1.21153e-05
-1.5003e-07
-1.20029e-05
-2.75311e-07
-1.18576e-05
-3.91992e-07
-1.16815e-05
-5.00053e-07
-1.14764e-05
-5.99663e-07
-1.12445e-05
-6.91296e-07
-1.09875e-05
-7.75727e-07
-1.07071e-05
-8.54026e-07
-1.04046e-05
-9.2751e-07
-1.00807e-05
-9.97675e-07
-9.73557e-06
-1.06609e-06
-9.3688e-06
-1.13423e-06
-8.97947e-06
-1.20329e-06
-8.56633e-06
-1.27394e-06
-8.12809e-06
-1.3461e-06
-7.66383e-06
-1.41872e-06
-7.17342e-06
-1.48976e-06
-6.65793e-06
-1.55623e-06
-6.11998e-06
-1.61452e-06
-5.56377e-06
-1.66084e-06
-4.99501e-06
-1.69178e-06
-4.42042e-06
-1.70486e-06
-3.84728e-06
-1.69891e-06
-3.28267e-06
-1.67419e-06
-2.73299e-06
-1.63231e-06
-2.20351e-06
-1.57586e-06
-1.6982e-06
-1.50792e-06
-1.21974e-06
-1.43173e-06
-7.69569e-07
-1.35025e-06
-3.47736e-07
-1.26627e-06
4.5872e-08
-1.18187e-06
4.10561e-07
-1.09898e-06
7.48619e-07
-1.01856e-06
1.0614e-06
-9.41651e-07
1.35008e-06
-8.68787e-07
1.61619e-06
-8.00079e-07
1.86129e-06
-7.35536e-07
2.08657e-06
-6.75138e-07
2.29345e-06
-6.18586e-07
2.48338e-06
-5.65537e-07
2.65744e-06
-5.15789e-07
2.81664e-06
-4.69048e-07
2.96193e-06
-4.24946e-07
3.09424e-06
-3.83058e-07
3.21441e-06
-3.4275e-07
3.32305e-06
-3.0303e-07
3.42061e-06
-2.63021e-07
3.50865e-06
-2.22355e-07
3.59414e-06
-1.80096e-07
3.68677e-06
-1.36219e-07
3.79247e-06
-9.31484e-08
3.90798e-06
-5.55473e-08
4.02271e-06
-2.9452e-08
4.12801e-06
-1.82748e-08
4.21974e-06
-2.13449e-08
4.29936e-06
-3.47775e-08
4.37276e-06
-5.27492e-08
4.44588e-06
-6.86219e-08
4.52172e-06
-7.54164e-08
4.59646e-06
-6.76814e-08
4.66217e-06
-4.41634e-08
4.70526e-06
-9.46743e-09
4.71487e-06
2.30728e-08
4.68506e-06
3.80635e-08
4.6249e-06
1.29583e-08
4.56296e-06
-7.35953e-08
4.52666e-06
-2.09327e-07
4.49186e-06
-3.01641e-07
4.32972e-06
-1.70981e-07
3.78258e-06
4.0534e-07
2.55698e-06
1.57698e-06
6.86742e-07
3.10872e-06
-1.28505e-06
4.26749e-06
-2.89013e-06
4.66123e-06
-4.04482e-06
4.44162e-06
-4.84336e-06
3.90513e-06
-5.4296e-06
3.27731e-06
-5.90979e-06
2.68187e-06
-6.33358e-06
2.15611e-06
-6.70835e-06
1.69391e-06
-7.02113e-06
1.27721e-06
-7.25415e-06
8.89803e-07
-7.39241e-06
5.20443e-07
-7.42502e-06
1.61245e-07
-7.35119e-06
-1.8611e-07
-7.16912e-06
-5.33008e-07
-6.8787e-06
-8.75784e-07
-6.48011e-06
-1.21392e-06
-5.97451e-06
-1.54577e-06
-5.36427e-06
-1.86803e-06
-4.65366e-06
-2.17528e-06
-3.84971e-06
-2.45938e-06
-2.96313e-06
-2.70954e-06
-2.00859e-06
-2.9131e-06
-1.00592e-06
-3.05698e-06
2.06969e-08
-3.12578e-06
1.04127e-06
-3.10935e-06
2.03153e-06
-3.0125e-06
2.9681e-06
-2.84936e-06
3.83375e-06
-2.63569e-06
4.6184e-06
-2.3903e-06
5.31853e-06
-2.13166e-06
5.93574e-06
-1.87481e-06
6.47574e-06
-1.62948e-06
6.94799e-06
-1.39758e-06
7.35922e-06
-1.17111e-06
7.70377e-06
-9.35741e-07
8.01303e-06
-6.69603e-07
8.38525e-06
-3.51879e-07
8.89137e-06
4.48624e-08
9.45227e-06
4.99175e-07
9.89104e-06
9.02843e-07
1.00521e-05
1.18105e-06
9.8398e-06
1.40118e-06
9.20706e-06
1.63358e-06
8.1485e-06
1.75521e-06
6.77238e-06
1.62923e-06
5.26285e-06
1.68595e-06
3.63134e-06
2.88341e-06
1.81587e-06
4.95627e-06
1.0788e-07
6.04841e-06
-1.23019e-06
5.37764e-06
-2.25505e-06
3.86768e-06
-2.93327e-06
2.22533e-06
-3.1408e-06
5.6534e-07
-2.90385e-06
-8.32473e-07
-2.30949e-06
-1.9589e-06
-1.51312e-06
-2.60994e-06
-6.47212e-07
-2.82034e-06
1.64021e-07
-2.70407e-06
8.57746e-07
-2.4233e-06
1.43136e-06
-2.13909e-06
1.92768e-06
-1.97862e-06
2.4135e-06
-1.89124e-06
2.84999e-06
-1.53669e-06
-6.31997e-07
2.98597e-06
1.42235e-06
-2.38754e-06
2.32922e-06
-3.57326e-06
2.52557e-06
-3.23463e-06
2.44741e-06
-2.65359e-06
2.34728e-06
-2.12922e-06
2.29141e-06
-1.66586e-06
2.2629e-06
-1.22303e-06
2.2342e-06
-7.88636e-07
2.20567e-06
-3.77383e-07
2.16961e-06
3.90457e-08
2.09747e-06
4.96459e-07
1.9686e-06
9.99553e-07
1.76604e-06
1.53638e-06
1.49635e-06
2.0268e-06
1.19577e-06
2.3415e-06
9.25359e-07
2.34998e-06
7.03706e-07
2.03458e-06
3.26023e-07
1.6043e-06
-6.39257e-07
1.54685e-06
-2.2398e-06
2.0082e-06
-3.93464e-06
2.53057e-06
-5.4524e-06
2.98391e-06
-6.79436e-06
3.30868e-06
-7.91637e-06
3.51401e-06
-8.80227e-06
3.60377e-06
-9.46029e-06
3.58895e-06
-9.9148e-06
3.48779e-06
-1.02031e-05
3.32157e-06
-1.03711e-05
3.11172e-06
-1.04663e-05
2.87767e-06
-1.0531e-05
2.63496e-06
-1.05958e-05
2.39384e-06
-1.06786e-05
2.15937e-06
-1.07846e-05
1.9327e-06
-1.09097e-05
1.7128e-06
-1.10446e-05
1.49797e-06
-1.11779e-05
1.28679e-06
-1.12991e-05
1.07855e-06
-1.13995e-05
8.73263e-07
-1.14726e-05
6.71522e-07
-1.15142e-05
4.74336e-07
-1.1522e-05
2.8293e-07
-1.14954e-05
9.86564e-08
-1.14346e-05
-7.71612e-08
-1.13411e-05
-2.43486e-07
-1.12169e-05
-3.99487e-07
-1.10645e-05
-5.44441e-07
-1.08865e-05
-6.78002e-07
-1.06859e-05
-8.00293e-07
-1.04652e-05
-9.11971e-07
-1.02267e-05
-1.01422e-06
-9.97208e-06
-1.10869e-06
-9.70216e-06
-1.19743e-06
-9.41708e-06
-1.28276e-06
-9.11608e-06
-1.36709e-06
-8.79754e-06
-1.45277e-06
-8.45906e-06
-1.54177e-06
-8.09765e-06
-1.63536e-06
-7.71006e-06
-1.73369e-06
-7.29332e-06
-1.83546e-06
-6.84537e-06
-1.93772e-06
-6.36572e-06
-2.03588e-06
-5.85605e-06
-2.12418e-06
-5.3205e-06
-2.1964e-06
-4.76547e-06
-2.24681e-06
-4.19912e-06
-2.27122e-06
-3.63047e-06
-2.26756e-06
-3.06846e-06
-2.23621e-06
-2.52102e-06
-2.17975e-06
-1.99457e-06
-2.10231e-06
-1.49369e-06
-2.0088e-06
-1.02119e-06
-1.90423e-06
-5.78255e-07
-1.79318e-06
-1.65515e-07
-1.67901e-06
2.18144e-07
-1.56553e-06
5.73359e-07
-1.4542e-06
9.01839e-07
-1.34704e-06
1.20521e-06
-1.24502e-06
1.48502e-06
-1.1486e-06
1.7429e-06
-1.05795e-06
1.98039e-06
-9.73029e-07
2.1989e-06
-8.93646e-07
2.39979e-06
-8.1948e-07
2.5844e-06
-7.50146e-07
2.75388e-06
-6.85268e-07
2.90927e-06
-6.24437e-07
3.05151e-06
-5.6719e-07
3.18148e-06
-5.1302e-07
3.30009e-06
-4.61363e-07
3.40867e-06
-4.11612e-07
3.50892e-06
-3.6327e-07
3.60254e-06
-3.15972e-07
3.69167e-06
-2.69234e-07
3.77877e-06
-2.23313e-07
3.86599e-06
-1.8037e-07
3.95449e-06
-1.44046e-07
4.04306e-06
-1.18019e-07
4.1289e-06
-1.04117e-07
4.20916e-06
-1.01609e-07
4.28223e-06
-1.07846e-07
4.34844e-06
-1.18957e-07
4.41022e-06
-1.304e-07
4.47196e-06
-1.3716e-07
4.53789e-06
-1.33608e-07
4.60761e-06
-1.13892e-07
4.67186e-06
-7.37146e-08
4.71175e-06
-1.68158e-08
4.71291e-06
3.69e-08
4.67948e-06
4.63925e-08
4.6308e-06
-2.49113e-08
4.56083e-06
-1.39362e-07
4.37419e-06
-1.15004e-07
3.85398e-06
3.49236e-07
2.75408e-06
1.50524e-06
1.05387e-06
3.27719e-06
-7.60259e-07
4.92284e-06
-2.16752e-06
5.67476e-06
-3.10463e-06
5.59834e-06
-3.73252e-06
5.06952e-06
-4.22839e-06
4.401e-06
-4.69909e-06
3.748e-06
-5.1688e-06
3.15158e-06
-5.61603e-06
2.60334e-06
-6.00974e-06
2.08762e-06
-6.32635e-06
1.59382e-06
-6.55239e-06
1.11584e-06
-6.68111e-06
6.49162e-07
-6.71072e-06
1.9086e-07