# vtk DataFile Version 2.0
sampleSurface
ASCII
DATASET POLYDATA
POINTS 502 float
-0.0206 0 -0.0005 -0.0190172 0 -0.0005 -0.0190172 0 0.0005 -0.0206 0
0.0005 -0.0174976 0 -0.0005 -0.0174976 0 0.0005 -0.0160387 0 -0.0005
-0.0160387 0 0.0005 -0.0146381 0 -0.0005 -0.0146381 0 0.0005 -0.0132934
0 -0.0005 -0.0132934 0 0.0005 -0.0120025 0 -0.0005 -0.0120025 0
0.0005 -0.0107632 0 -0.0005 -0.0107632 0 0.0005 -0.00957337 0 -0.0005
-0.00957337 0 0.0005 -0.00843108 0 -0.0005 -0.00843108 0 0.0005 -0.00733443
0 -0.0005 -0.00733443 0 0.0005 -0.0062816 0 -0.0005 -0.0062816 0
0.0005 -0.00527083 0 -0.0005 -0.00527083 0 0.0005 -0.00430044 0 -0.0005
-0.00430044 0 0.0005 -0.00336883 0 -0.0005 -0.00336883 0 0.0005 -0.00247443
0 -0.0005 -0.00247443 0 0.0005 -0.00161577 0 -0.0005 -0.00161577 0
0.0005 -0.000791418 0 -0.0005 -0.000791418 0 0.0005 0 0 -0.0005
0 0 0.0005 0 -0.0254 -0.0005 0 -0.0254 0.0005 0
-0.0242711 0.0005 0 -0.0242711 -0.0005 0 -0.0231422 0.0005 0 -0.0231422
-0.0005 0 -0.0220133 0.0005 0 -0.0220133 -0.0005 0 -0.0208844 0.0005
0 -0.0208844 -0.0005 0 -0.0197556 0.0005 0 -0.0197556 -0.0005 0
-0.0186267 0.0005 0 -0.0186267 -0.0005 0 -0.0174978 0.0005 0 -0.0174978
-0.0005 0 -0.0163689 0.0005 0 -0.0163689 -0.0005 0 -0.01524 0.0005
0 -0.01524 -0.0005 0 -0.0141111 0.0005 0 -0.0141111 -0.0005 0
-0.0129822 0.0005 0 -0.0129822 -0.0005 0 -0.0118533 0.0005 0 -0.0118533
-0.0005 0 -0.0107244 0.0005 0 -0.0107244 -0.0005 0 -0.00959556 0.0005
0 -0.00959556 -0.0005 0 -0.00846667 0.0005 0 -0.00846667 -0.0005 0
-0.00726604 0.0005 0 -0.00726604 -0.0005 0 -0.00618989 0.0005 0 -0.00618989
-0.0005 0 -0.00522531 0.0005 0 -0.00522531 -0.0005 0 -0.00436073 0.0005
0 -0.00436073 -0.0005 0 -0.00358579 0.0005 0 -0.00358579 -0.0005 0
-0.00289118 0.0005 0 -0.00289118 -0.0005 0 -0.0022686 0.0005 0 -0.0022686
-0.0005 0 -0.00171055 0.0005 0 -0.00171055 -0.0005 0 -0.00121037 0.0005
0 -0.00121037 -0.0005 0 -0.000762037 0.0005 0 -0.000762037 -0.0005 0
-0.000360188 0.0005 0 -0.000360188 -0.0005 0.000528387 -0.0254 -0.0005 0.000528387 -0.0254
0.0005 0.00106088 -0.0254 -0.0005 0.00106088 -0.0254 0.0005 0.00159752 -0.0254 -0.0005
0.00159752 -0.0254 0.0005 0.00213833 -0.0254 -0.0005 0.00213833 -0.0254 0.0005 0.00268334
-0.0254 -0.0005 0.00268334 -0.0254 0.0005 0.00323259 -0.0254 -0.0005 0.00323259 -0.0254
0.0005 0.00378611 -0.0254 -0.0005 0.00378611 -0.0254 0.0005 0.00434393 -0.0254 -0.0005
0.00434393 -0.0254 0.0005 0.00490609 -0.0254 -0.0005 0.00490609 -0.0254 0.0005 0.00547262
-0.0254 -0.0005 0.00547262 -0.0254 0.0005 0.00604356 -0.0254 -0.0005 0.00604356 -0.0254
0.0005 0.00661893 -0.0254 -0.0005 0.00661893 -0.0254 0.0005 0.00719878 -0.0254 -0.0005
0.00719878 -0.0254 0.0005 0.00778313 -0.0254 -0.0005 0.00778313 -0.0254 0.0005 0.00837203
-0.0254 -0.0005 0.00837203 -0.0254 0.0005 0.00896551 -0.0254 -0.0005 0.00896551 -0.0254
0.0005 0.0095636 -0.0254 -0.0005 0.0095636 -0.0254 0.0005 0.0101663 -0.0254 -0.0005
0.0101663 -0.0254 0.0005 0.0107738 -0.0254 -0.0005 0.0107738 -0.0254 0.0005 0.0113859
-0.0254 -0.0005 0.0113859 -0.0254 0.0005 0.0120028 -0.0254 -0.0005 0.0120028 -0.0254
0.0005 0.0126245 -0.0254 -0.0005 0.0126245 -0.0254 0.0005 0.0132511 -0.0254 -0.0005
0.0132511 -0.0254 0.0005 0.0138825 -0.0254 -0.0005 0.0138825 -0.0254 0.0005 0.0145188
-0.0254 -0.0005 0.0145188 -0.0254 0.0005 0.0151601 -0.0254 -0.0005 0.0151601 -0.0254
0.0005 0.0158063 -0.0254 -0.0005 0.0158063 -0.0254 0.0005 0.0164576 -0.0254 -0.0005
0.0164576 -0.0254 0.0005 0.0171139 -0.0254 -0.0005 0.0171139 -0.0254 0.0005 0.0177754
-0.0254 -0.0005 0.0177754 -0.0254 0.0005 0.018442 -0.0254 -0.0005 0.018442 -0.0254
0.0005 0.0191137 -0.0254 -0.0005 0.0191137 -0.0254 0.0005 0.0197907 -0.0254 -0.0005
0.0197907 -0.0254 0.0005 0.020473 -0.0254 -0.0005 0.020473 -0.0254 0.0005 0.0211606
-0.0254 -0.0005 0.0211606 -0.0254 0.0005 0.0218535 -0.0254 -0.0005 0.0218535 -0.0254
0.0005 0.0225517 -0.0254 -0.0005 0.0225517 -0.0254 0.0005 0.0232555 -0.0254 -0.0005
0.0232555 -0.0254 0.0005 0.0239647 -0.0254 -0.0005 0.0239647 -0.0254 0.0005 0.0246794
-0.0254 -0.0005 0.0246794 -0.0254 0.0005 0.0253996 -0.0254 -0.0005 0.0253996 -0.0254
0.0005 0.0261255 -0.0254 -0.0005 0.0261255 -0.0254 0.0005 0.026857 -0.0254 -0.0005
0.026857 -0.0254 0.0005 0.0275942 -0.0254 -0.0005 0.0275942 -0.0254 0.0005 0.0283371
-0.0254 -0.0005 0.0283371 -0.0254 0.0005 0.0290858 -0.0254 -0.0005 0.0290858 -0.0254
0.0005 0.0298403 -0.0254 -0.0005 0.0298403 -0.0254 0.0005 0.0306007 -0.0254 -0.0005
0.0306007 -0.0254 0.0005 0.031367 -0.0254 -0.0005 0.031367 -0.0254 0.0005 0.0321393
-0.0254 -0.0005 0.0321393 -0.0254 0.0005 0.0329175 -0.0254 -0.0005 0.0329175 -0.0254
0.0005 0.0337019 -0.0254 -0.0005 0.0337019 -0.0254 0.0005 0.0344923 -0.0254 -0.0005
0.0344923 -0.0254 0.0005 0.0352888 -0.0254 -0.0005 0.0352888 -0.0254 0.0005 0.0360916
-0.0254 -0.0005 0.0360916 -0.0254 0.0005 0.0369006 -0.0254 -0.0005 0.0369006 -0.0254
0.0005 0.0377158 -0.0254 -0.0005 0.0377158 -0.0254 0.0005 0.0385375 -0.0254 -0.0005
0.0385375 -0.0254 0.0005 0.0393655 -0.0254 -0.0005 0.0393655 -0.0254 0.0005 0.0401999
-0.0254 -0.0005 0.0401999 -0.0254 0.0005 0.0410408 -0.0254 -0.0005 0.0410408 -0.0254
0.0005 0.0418883 -0.0254 -0.0005 0.0418883 -0.0254 0.0005 0.0427424 -0.0254 -0.0005
0.0427424 -0.0254 0.0005 0.0436031 -0.0254 -0.0005 0.0436031 -0.0254 0.0005 0.0444704
-0.0254 -0.0005 0.0444704 -0.0254 0.0005 0.0453446 -0.0254 -0.0005 0.0453446 -0.0254
0.0005 0.0462255 -0.0254 -0.0005 0.0462255 -0.0254 0.0005 0.0471133 -0.0254 -0.0005
0.0471133 -0.0254 0.0005 0.048008 -0.0254 -0.0005 0.048008 -0.0254 0.0005 0.0489096
-0.0254 -0.0005 0.0489096 -0.0254 0.0005 0.0498183 -0.0254 -0.0005 0.0498183 -0.0254
0.0005 0.050734 -0.0254 -0.0005 0.050734 -0.0254 0.0005 0.0516568 -0.0254 -0.0005
0.0516568 -0.0254 0.0005 0.0525868 -0.0254 -0.0005 0.0525868 -0.0254 0.0005 0.053524
-0.0254 -0.0005 0.053524 -0.0254 0.0005 0.0544686 -0.0254 -0.0005 0.0544686 -0.0254
0.0005 0.0554204 -0.0254 -0.0005 0.0554204 -0.0254 0.0005 0.0563797 -0.0254 -0.0005
0.0563797 -0.0254 0.0005 0.0573464 -0.0254 -0.0005 0.0573464 -0.0254 0.0005 0.0583206
-0.0254 -0.0005 0.0583206 -0.0254 0.0005 0.0593025 -0.0254 -0.0005 0.0593025 -0.0254
0.0005 0.0602919 -0.0254 -0.0005 0.0602919 -0.0254 0.0005 0.0612891 -0.0254 -0.0005
0.0612891 -0.0254 0.0005 0.0622939 -0.0254 -0.0005 0.0622939 -0.0254 0.0005 0.0633067
-0.0254 -0.0005 0.0633067 -0.0254 0.0005 0.0643272 -0.0254 -0.0005 0.0643272 -0.0254
0.0005 0.0653557 -0.0254 -0.0005 0.0653557 -0.0254 0.0005 0.0663923 -0.0254 -0.0005
0.0663923 -0.0254 0.0005 0.0674368 -0.0254 -0.0005 0.0674368 -0.0254 0.0005 0.0684895
-0.0254 -0.0005 0.0684895 -0.0254 0.0005 0.0695504 -0.0254 -0.0005 0.0695504 -0.0254
0.0005 0.0706195 -0.0254 -0.0005 0.0706195 -0.0254 0.0005 0.0716969 -0.0254 -0.0005
0.0716969 -0.0254 0.0005 0.0727828 -0.0254 -0.0005 0.0727828 -0.0254 0.0005 0.073877
-0.0254 -0.0005 0.073877 -0.0254 0.0005 0.0749798 -0.0254 -0.0005 0.0749798 -0.0254
0.0005 0.0760911 -0.0254 -0.0005 0.0760911 -0.0254 0.0005 0.0772111 -0.0254 -0.0005
0.0772111 -0.0254 0.0005 0.0783398 -0.0254 -0.0005 0.0783398 -0.0254 0.0005 0.0794772
-0.0254 -0.0005 0.0794772 -0.0254 0.0005 0.0806235 -0.0254 -0.0005 0.0806235 -0.0254
0.0005 0.0817787 -0.0254 -0.0005 0.0817787 -0.0254 0.0005 0.0829429 -0.0254 -0.0005
0.0829429 -0.0254 0.0005 0.0841162 -0.0254 -0.0005 0.0841162 -0.0254 0.0005 0.0852985
-0.0254 -0.0005 0.0852985 -0.0254 0.0005 0.0864901 -0.0254 -0.0005 0.0864901 -0.0254
0.0005 0.0876909 -0.0254 -0.0005 0.0876909 -0.0254 0.0005 0.0889011 -0.0254 -0.0005
0.0889011 -0.0254 0.0005 0.0901207 -0.0254 -0.0005 0.0901207 -0.0254 0.0005 0.0913497
-0.0254 -0.0005 0.0913497 -0.0254 0.0005 0.0925883 -0.0254 -0.0005 0.0925883 -0.0254
0.0005 0.0938366 -0.0254 -0.0005 0.0938366 -0.0254 0.0005 0.0950945 -0.0254 -0.0005
0.0950945 -0.0254 0.0005 0.0963622 -0.0254 -0.0005 0.0963622 -0.0254 0.0005 0.0976398
-0.0254 -0.0005 0.0976398 -0.0254 0.0005 0.0989273 -0.0254 -0.0005 0.0989273 -0.0254
0.0005 0.100225 -0.0254 -0.0005 0.100225 -0.0254 0.0005 0.101532 -0.0254 -0.0005
0.101532 -0.0254 0.0005 0.10285 -0.0254 -0.0005 0.10285 -0.0254 0.0005 0.104178
-0.0254 -0.0005 0.104178 -0.0254 0.0005 0.105517 -0.0254 -0.0005 0.105517 -0.0254
0.0005 0.106865 -0.0254 -0.0005 0.106865 -0.0254 0.0005 0.108225 -0.0254 -0.0005
0.108225 -0.0254 0.0005 0.109594 -0.0254 -0.0005 0.109594 -0.0254 0.0005 0.110975
-0.0254 -0.0005 0.110975 -0.0254 0.0005 0.112366 -0.0254 -0.0005 0.112366 -0.0254
0.0005 0.113768 -0.0254 -0.0005 0.113768 -0.0254 0.0005 0.115181 -0.0254 -0.0005
0.115181 -0.0254 0.0005 0.116605 -0.0254 -0.0005 0.116605 -0.0254 0.0005 0.11804
-0.0254 -0.0005 0.11804 -0.0254 0.0005 0.119486 -0.0254 -0.0005 0.119486 -0.0254
0.0005 0.120943 -0.0254 -0.0005 0.120943 -0.0254 0.0005 0.122412 -0.0254 -0.0005
0.122412 -0.0254 0.0005 0.123892 -0.0254 -0.0005 0.123892 -0.0254 0.0005 0.125384
-0.0254 -0.0005 0.125384 -0.0254 0.0005 0.126887 -0.0254 -0.0005 0.126887 -0.0254
0.0005 0.128402 -0.0254 -0.0005 0.128402 -0.0254 0.0005 0.129928 -0.0254 -0.0005
0.129928 -0.0254 0.0005 0.131467 -0.0254 -0.0005 0.131467 -0.0254 0.0005 0.133017
-0.0254 -0.0005 0.133017 -0.0254 0.0005 0.13458 -0.0254 -0.0005 0.13458 -0.0254
0.0005 0.136155 -0.0254 -0.0005 0.136155 -0.0254 0.0005 0.137742 -0.0254 -0.0005
0.137742 -0.0254 0.0005 0.139341 -0.0254 -0.0005 0.139341 -0.0254 0.0005 0.140953
-0.0254 -0.0005 0.140953 -0.0254 0.0005 0.142577 -0.0254 -0.0005 0.142577 -0.0254
0.0005 0.144214 -0.0254 -0.0005 0.144214 -0.0254 0.0005 0.145863 -0.0254 -0.0005
0.145863 -0.0254 0.0005 0.147526 -0.0254 -0.0005 0.147526 -0.0254 0.0005 0.149201
-0.0254 -0.0005 0.149201 -0.0254 0.0005 0.15089 -0.0254 -0.0005 0.15089 -0.0254
0.0005 0.152591 -0.0254 -0.0005 0.152591 -0.0254 0.0005 0.154306 -0.0254 -0.0005
0.154306 -0.0254 0.0005 0.156034 -0.0254 -0.0005 0.156034 -0.0254 0.0005 0.157775
-0.0254 -0.0005 0.157775 -0.0254 0.0005 0.159531 -0.0254 -0.0005 0.159531 -0.0254
0.0005 0.161299 -0.0254 -0.0005 0.161299 -0.0254 0.0005 0.163082 -0.0254 -0.0005
0.163082 -0.0254 0.0005 0.164878 -0.0254 -0.0005 0.164878 -0.0254 0.0005 0.166688
-0.0254 -0.0005 0.166688 -0.0254 0.0005 0.168513 -0.0254 -0.0005 0.168513 -0.0254
0.0005 0.170351 -0.0254 -0.0005 0.170351 -0.0254 0.0005 0.172204 -0.0254 -0.0005
0.172204 -0.0254 0.0005 0.174071 -0.0254 -0.0005 0.174071 -0.0254 0.0005 0.175953
-0.0254 -0.0005 0.175953 -0.0254 0.0005 0.177849 -0.0254 -0.0005 0.177849 -0.0254
0.0005 0.17976 -0.0254 -0.0005 0.17976 -0.0254 0.0005 0.181686 -0.0254 -0.0005
0.181686 -0.0254 0.0005 0.183627 -0.0254 -0.0005 0.183627 -0.0254 0.0005 0.185583
-0.0254 -0.0005 0.185583 -0.0254 0.0005 0.187555 -0.0254 -0.0005 0.187555 -0.0254
0.0005 0.189541 -0.0254 -0.0005 0.189541 -0.0254 0.0005 0.191543 -0.0254 -0.0005
0.191543 -0.0254 0.0005 0.193561 -0.0254 -0.0005 0.193561 -0.0254 0.0005 0.195594
-0.0254 -0.0005 0.195594 -0.0254 0.0005 0.197643 -0.0254 -0.0005 0.197643 -0.0254
0.0005 0.199708 -0.0254 -0.0005 0.199708 -0.0254 0.0005 0.201789 -0.0254 -0.0005
0.201789 -0.0254 0.0005 0.203886 -0.0254 -0.0005 0.203886 -0.0254 0.0005 0.206
-0.0254 -0.0005 0.206 -0.0254 0.0005 0.208047 -0.0251856 -0.0005 0.208047 -0.0251856
0.0005 0.210173 -0.0249628 -0.0005 0.210173 -0.0249628 0.0005 0.212382 -0.0247314 -0.0005
0.212382 -0.0247314 0.0005 0.214677 -0.024491 -0.0005 0.214677 -0.024491 0.0005 0.217061
-0.0242412 -0.0005 0.217061 -0.0242412 0.0005 0.219538 -0.0239817 -0.0005 0.219538 -0.0239817
0.0005 0.222112 -0.0237121 -0.0005 0.222112 -0.0237121 0.0005 0.224785 -0.023432 -0.0005
0.224785 -0.023432 0.0005 0.227563 -0.023141 -0.0005 0.227563 -0.023141 0.0005 0.230449
-0.0228387 -0.0005 0.230449 -0.0228387 0.0005 0.233447 -0.0225246 -0.0005 0.233447 -0.0225246
0.0005 0.236562 -0.0221983 -0.0005 0.236562 -0.0221983 0.0005 0.239797 -0.0218593 -0.0005
0.239797 -0.0218593 0.0005 0.243159 -0.0215071 -0.0005 0.243159 -0.0215071 0.0005 0.246652
-0.0211412 -0.0005 0.246652 -0.0211412 0.0005 0.250281 -0.0207611 -0.0005 0.250281 -0.0207611
0.0005 0.254051 -0.0203661 -0.0005 0.254051 -0.0203661 0.0005 0.257967 -0.0199558 -0.0005
0.257967 -0.0199558 0.0005 0.262036 -0.0195295 -0.0005 0.262036 -0.0195295 0.0005 0.266264
-0.0190867 -0.0005 0.266264 -0.0190867 0.0005 0.270655 -0.0186266 -0.0005 0.270655 -0.0186266
0.0005 0.275218 -0.0181486 -0.0005 0.275218 -0.0181486 0.0005 0.279959 -0.017652 -0.0005
0.279959 -0.017652 0.0005 0.284883 -0.017136 -0.0005 0.284883 -0.017136 0.0005 0.29
-0.0166 -0.0005 0.29 -0.0166 0.0005 
POLYGONS 250 1250
4 0 1 2 3 4 1 4 5 2 4
4 6 7 5 4 6 8 9 7 4
8 10 11 9 4 10 12 13 11 4
12 14 15 13 4 14 16 17 15 4
16 18 19 17 4 18 20 21 19 4
20 22 23 21 4 22 24 25 23 4
24 26 27 25 4 26 28 29 27 4
28 30 31 29 4 30 32 33 31 4
32 34 35 33 4 34 36 37 35 4
38 39 40 41 4 41 40 42 43 4
43 42 44 45 4 45 44 46 47 4
47 46 48 49 4 49 48 50 51 4
51 50 52 53 4 53 52 54 55 4
55 54 56 57 4 57 56 58 59 4
59 58 60 61 4 61 60 62 63 4
63 62 64 65 4 65 64 66 67 4
67 66 68 69 4 69 68 70 71 4
71 70 72 73 4 73 72 74 75 4
75 74 76 77 4 77 76 78 79 4
79 78 80 81 4 81 80 82 83 4
83 82 84 85 4 85 84 86 87 4
87 86 88 89 4 89 88 90 91 4
91 90 37 36 4 38 92 93 39 4
92 94 95 93 4 94 96 97 95 4
96 98 99 97 4 98 100 101 99 4
100 102 103 101 4 102 104 105 103 4
104 106 107 105 4 106 108 109 107 4
108 110 111 109 4 110 112 113 111 4
112 114 115 113 4 114 116 117 115 4
116 118 119 117 4 118 120 121 119 4
120 122 123 121 4 122 124 125 123 4
124 126 127 125 4 126 128 129 127 4
128 130 131 129 4 130 132 133 131 4
132 134 135 133 4 134 136 137 135 4
136 138 139 137 4 138 140 141 139 4
140 142 143 141 4 142 144 145 143 4
144 146 147 145 4 146 148 149 147 4
148 150 151 149 4 150 152 153 151 4
152 154 155 153 4 154 156 157 155 4
156 158 159 157 4 158 160 161 159 4
160 162 163 161 4 162 164 165 163 4
164 166 167 165 4 166 168 169 167 4
168 170 171 169 4 170 172 173 171 4
172 174 175 173 4 174 176 177 175 4
176 178 179 177 4 178 180 181 179 4
180 182 183 181 4 182 184 185 183 4
184 186 187 185 4 186 188 189 187 4
188 190 191 189 4 190 192 193 191 4
192 194 195 193 4 194 196 197 195 4
196 198 199 197 4 198 200 201 199 4
200 202 203 201 4 202 204 205 203 4
204 206 207 205 4 206 208 209 207 4
208 210 211 209 4 210 212 213 211 4
212 214 215 213 4 214 216 217 215 4
216 218 219 217 4 218 220 221 219 4
220 222 223 221 4 222 224 225 223 4
224 226 227 225 4 226 228 229 227 4
228 230 231 229 4 230 232 233 231 4
232 234 235 233 4 234 236 237 235 4
236 238 239 237 4 238 240 241 239 4
240 242 243 241 4 242 244 245 243 4
244 246 247 245 4 246 248 249 247 4
248 250 251 249 4 250 252 253 251 4
252 254 255 253 4 254 256 257 255 4
256 258 259 257 4 258 260 261 259 4
260 262 263 261 4 262 264 265 263 4
264 266 267 265 4 266 268 269 267 4
268 270 271 269 4 270 272 273 271 4
272 274 275 273 4 274 276 277 275 4
276 278 279 277 4 278 280 281 279 4
280 282 283 281 4 282 284 285 283 4
284 286 287 285 4 286 288 289 287 4
288 290 291 289 4 290 292 293 291 4
292 294 295 293 4 294 296 297 295 4
296 298 299 297 4 298 300 301 299 4
300 302 303 301 4 302 304 305 303 4
304 306 307 305 4 306 308 309 307 4
308 310 311 309 4 310 312 313 311 4
312 314 315 313 4 314 316 317 315 4
316 318 319 317 4 318 320 321 319 4
320 322 323 321 4 322 324 325 323 4
324 326 327 325 4 326 328 329 327 4
328 330 331 329 4 330 332 333 331 4
332 334 335 333 4 334 336 337 335 4
336 338 339 337 4 338 340 341 339 4
340 342 343 341 4 342 344 345 343 4
344 346 347 345 4 346 348 349 347 4
348 350 351 349 4 350 352 353 351 4
352 354 355 353 4 354 356 357 355 4
356 358 359 357 4 358 360 361 359 4
360 362 363 361 4 362 364 365 363 4
364 366 367 365 4 366 368 369 367 4
368 370 371 369 4 370 372 373 371 4
372 374 375 373 4 374 376 377 375 4
376 378 379 377 4 378 380 381 379 4
380 382 383 381 4 382 384 385 383 4
384 386 387 385 4 386 388 389 387 4
388 390 391 389 4 390 392 393 391 4
392 394 395 393 4 394 396 397 395 4
396 398 399 397 4 398 400 401 399 4
400 402 403 401 4 402 404 405 403 4
404 406 407 405 4 406 408 409 407 4
408 410 411 409 4 410 412 413 411 4
412 414 415 413 4 414 416 417 415 4
416 418 419 417 4 418 420 421 419 4
420 422 423 421 4 422 424 425 423 4
424 426 427 425 4 426 428 429 427 4
428 430 431 429 4 430 432 433 431 4
432 434 435 433 4 434 436 437 435 4
436 438 439 437 4 438 440 441 439 4
440 442 443 441 4 442 444 445 443 4
444 446 447 445 4 446 448 449 447 4
448 450 451 449 4 450 452 453 451 4
452 454 455 453 4 454 456 457 455 4
456 458 459 457 4 458 460 461 459 4
460 462 463 461 4 462 464 465 463 4
464 466 467 465 4 466 468 469 467 4
468 470 471 469 4 470 472 473 471 4
472 474 475 473 4 474 476 477 475 4
476 478 479 477 4 478 480 481 479 4
480 482 483 481 4 482 484 485 483 4
484 486 487 485 4 486 488 489 487 4
488 490 491 489 4 490 492 493 491 4
492 494 495 493 4 494 496 497 495 4
496 498 499 497 4 498 500 501 499 
POINT_DATA 502
FIELD attributes 1
U 3 502 float
3.16589 0.0206736 -0.0303372 1.59035 0.0103075 -0.0149502 1.59035 0.0103075 -0.0149502 3.16589 0.0206736
-0.0303372 0.0587813 0.000295184 0 0.0587813 0.000295184 0 0.0570627 0.000339178 0
0.0570627 0.000339178 0 0.0551164 0.000290558 0 0.0551164 0.000290558 0 0.0531445
0.000255123 0 0.0531445 0.000255123 0 0.0511248 0.000294537 0 0.0511248 0.000294537
0 0.0490356 0.000373514 0 0.0490356 0.000373514 0 0.046985 0.000421003 0
0.046985 0.000421003 0 0.0451361 0.000416111 0 0.0451361 0.000416111 0 0.043529
0.000383821 0 0.043529 0.000383821 0 0.0421222 0.000351955 0 0.0421222 0.000351955
0 0.0407265 0.000341938 0 0.0407265 0.000341938 0 0.0392497 0.000369947 0
0.0392497 0.000369947 0 0.0374099 0.000456754 0 0.0374099 0.000456754 0 0.0352549
0.00059219 0 0.0352549 0.00059219 0 0.0324206 0.000770423 0 0.0324206 0.000770423
0 0.0291442 0.00102901 0 0.0291442 0.00102901 0 0.0121624 0.000399867 0
0.0121624 0.000399867 0 -0.000462053 0.000968945 -8.03409e-24 -0.000462053 0.000968945 -8.03409e-24 -0.000287855
0.00306227 2.21775e-23 -0.000287855 0.00306227 2.21775e-23 -1.46937e-05 0.00480767 2.60906e-23 -1.46937e-05 0.00480767
2.60906e-23 2.04077e-05 0.00398349 -5.19209e-23 2.04077e-05 0.00398349 -5.19209e-23 0.000824154 0.000387146 -1.75568e-23
0.000824154 0.000387146 -1.75568e-23 0.00185223 -0.00756057 3.42601e-23 0.00185223 -0.00756057 3.42601e-23 0.00157107
-0.0148319 0 0.00157107 -0.0148319 0 0.000880432 -0.0188571 8.73897e-23 0.000880432 -0.0188571
8.73897e-23 0.000429249 -0.0211393 3.22518e-26 0.000429249 -0.0211393 3.22518e-26 9.90743e-05 -0.0220241 -8.73575e-23
9.90743e-05 -0.0220241 -8.73575e-23 -0.00011411 -0.0219864 8.33535e-23 -0.00011411 -0.0219864 8.33535e-23 -0.000254293
-0.0213226 -2.248e-26 -0.000254293 -0.0213226 -2.248e-26 -0.000351333 -0.0202296 -8.33759e-23 -0.000351333 -0.0202296
-8.33759e-23 -0.000434891 -0.0187487 -6.55805e-23 -0.000434891 -0.0187487 -6.55805e-23 -0.00051339 -0.0169062 6.36591e-26
-0.00051339 -0.0169062 6.36591e-26 -0.000569845 -0.0147333 6.68076e-23 -0.000569845 -0.0147333 6.68076e-23 -0.000557632
-0.0123191 0 -0.000557632 -0.0123191 0 -0.000427391 -0.0102525 0 -0.000427391 -0.0102525
0 -0.000241708 -0.00886647 0 -0.000241708 -0.00886647 0 -0.000173814 -0.00813011 0
-0.000173814 -0.00813011 0 -0.000300148 -0.00746726 0 -0.000300148 -0.00746726 0 -0.000500245
-0.0064521 0 -0.000500245 -0.0064521 0 -0.000649851 -0.00523419 0 -0.000649851 -0.00523419
0 -0.000811616 -0.00395264 0 -0.000811616 -0.00395264 0 -0.00100185 -0.00271695 0
-0.00100185 -0.00271695 0 -0.000793897 -0.000932176 0 -0.000793897 -0.000932176 0 -0.000627089
3.86845e-06 0 -0.000627089 3.86845e-06 0 -0.000889067 0.000790034 1.49996e-28 -0.000889067 0.000790034
1.49996e-28 -0.00146631 0.000354572 4.0275e-24 -0.00146631 0.000354572 4.0275e-24 -0.00144604 -0.000203377 0
-0.00144604 -0.000203377 0 -0.000933339 -0.000705814 0 -0.000933339 -0.000705814 0 -8.06477e-05
-0.00101123 -3.68045e-24 -8.06477e-05 -0.00101123 -3.68045e-24 0.000995863 -0.00114913 -3.68706e-24 0.000995863 -0.00114913
-3.68706e-24 0.00212128 -0.00115383 0 0.00212128 -0.00115383 0 0.00320597 -0.00105478 0
0.00320597 -0.00105478 0 0.00418747 -0.000889807 0 0.00418747 -0.000889807 0 0.00500727
-0.00068934 3.78115e-24 0.00500727 -0.00068934 3.78115e-24 0.00563357 -0.000473912 3.78835e-24 0.00563357 -0.000473912
3.78835e-24 0.0060514 -0.000256934 0 0.0060514 -0.000256934 0 0.00625939 -4.61526e-05 0
0.00625939 -4.61526e-05 0 0.00625308 0.000153642 0 0.00625308 0.000153642 0 0.00604118
0.000337698 3.83601e-24 0.00604118 0.000337698 3.83601e-24 0.00565381 0.000489688 3.84375e-24 0.00565381 0.000489688
3.84375e-24 0.00512631 0.000609704 0 0.00512631 0.000609704 0 0.00450171 0.000689152 0
0.00450171 0.000689152 0 0.00380902 0.00073156 0 0.00380902 0.00073156 0 0.00309712
0.000735049 0 0.00309712 0.000735049 0 0.00237506 0.000671448 0 0.00237506 0.000671448
0 0.00168943 0.000617144 0 0.00168943 0.000617144 0 0.00113724 0.000479136 3.39769e-24
0.00113724 0.000479136 3.39769e-24 0.000608016 0.000195206 1.4541e-26 0.000608016 0.000195206 1.4541e-26 0.000271346
1.08707e-05 -1.68218e-26 0.000271346 1.08707e-05 -1.68218e-26 0.000314208 9.50314e-06 6.72955e-24 0.000314208 9.50314e-06
6.72955e-24 0.000485806 -8.02186e-05 3.34813e-24 0.000485806 -8.02186e-05 3.34813e-24 0.00078863 -0.000510475 0
0.00078863 -0.000510475 0 0.00146254 -0.000720759 -3.26289e-24 0.00146254 -0.000720759 -3.26289e-24 0.00207964
-0.00135606 -6.47101e-24 0.00207964 -0.00135606 -6.47101e-24 0.00203305 -0.00272121 -3.20805e-24 0.00203305 -0.00272121
-3.20805e-24 0.00184346 -0.00237738 0 0.00184346 -0.00237738 0 0.000951863 0.000261104 -3.16958e-24
0.000951863 0.000261104 -3.16958e-24 -0.00130078 0.00210689 -3.17738e-24 -0.00130078 0.00210689 -3.17738e-24 -0.00369529
0.0021383 0 -0.00369529 0.0021383 0 -0.00573299 0.00188496 3.38511e-24 -0.00573299 0.00188496
3.38511e-24 -0.00757903 0.00167159 3.39371e-24 -0.00757903 0.00167159 3.39371e-24 -0.00922131 0.00146884 3.96512e-24
-0.00922131 0.00146884 3.96512e-24 -0.0106922 0.00129015 1.25639e-23 -0.0106922 0.00129015 1.25639e-23 -0.0120032
0.00113174 8.611e-24 -0.0120032 0.00113174 8.611e-24 -0.0131754 0.000993383 0 -0.0131754 0.000993383
0 -0.0142206 0.000871353 0 -0.0142206 0.000871353 0 -0.0151514 0.000762347 0
-0.0151514 0.000762347 0 -0.0159752 0.000663286 0 -0.0159752 0.000663286 0 -0.0166987
0.000571806 1.20685e-23 -0.0166987 0.000571806 1.20685e-23 -0.017326 0.000486292 2.45726e-23 -0.017326 0.000486292
2.45726e-23 -0.0178606 0.000405572 2.53119e-23 -0.0178606 0.000405572 2.53119e-23 -0.0183049 0.00032897 1.28427e-23
-0.0183049 0.00032897 1.28427e-23 -0.0186614 0.000256243 -1.32682e-23 -0.0186614 0.000256243 -1.32682e-23 -0.0189323
0.000187714 -1.33066e-23 -0.0189323 0.000187714 -1.33066e-23 -0.0191207 0.000124034 1.34416e-23 -0.0191207 0.000124034
1.34416e-23 -0.0192296 6.59478e-05 2.69027e-23 -0.0192296 6.59478e-05 2.69027e-23 -0.0192634 1.39822e-05 1.34615e-23
-0.0192634 1.39822e-05 1.34615e-23 -0.0192319 -3.19392e-05 0 -0.0192319 -3.19392e-05 0 -0.0191417
-7.24195e-05 0 -0.0191417 -7.24195e-05 0 -0.0189969 -0.000107924 1.27043e-23 -0.0189969 -0.000107924
1.27043e-23 -0.0188038 -0.000138809 1.27437e-23 -0.0188038 -0.000138809 1.27437e-23 -0.0185672 -0.000165321 0
-0.0185672 -0.000165321 0 -0.0182931 -0.000187652 0 -0.0182931 -0.000187652 0 -0.0179863
-0.000206091 0 -0.0179863 -0.000206091 0 -0.017652 -0.000220923 0 -0.017652 -0.000220923
0 -0.0172946 -0.000232489 0 -0.0172946 -0.000232489 0 -0.0169185 -0.000241127 0
-0.0169185 -0.000241127 0 -0.0165273 -0.000247161 0 -0.0165273 -0.000247161 0 -0.0161245
-0.000250889 -8.99207e-24 -0.0161245 -0.000250889 -8.99207e-24 -0.0157132 -0.000252577 -9.02228e-24 -0.0157132 -0.000252577
-9.02228e-24 -0.0152963 -0.000252436 0 -0.0152963 -0.000252436 0 -0.0148765 -0.000250646 7.62322e-24
-0.0148765 -0.000250646 7.62322e-24 -0.0144562 -0.000247347 1.48304e-23 -0.0144562 -0.000247347 1.48304e-23 -0.0140378
-0.000242668 7.20586e-24 -0.0140378 -0.000242668 7.20586e-24 -0.0136237 -0.000236748 -6.32686e-24 -0.0136237 -0.000236748
-6.32686e-24 -0.0132159 -0.000229758 -4.31946e-25 -0.0132159 -0.000229758 -4.31946e-25 -0.0128162 -0.000221941 5.93842e-24
-0.0128162 -0.000221941 5.93842e-24 -0.0124259 -0.000213629 -5.13585e-24 -0.0124259 -0.000213629 -5.13585e-24 -0.0120459
-0.000205258 -5.15448e-24 -0.0120459 -0.000205258 -5.15448e-24 -0.0116759 -0.000197366 0 -0.0116759 -0.000197366
0 -0.0113148 -0.000190568 4.05483e-24 -0.0113148 -0.000190568 4.05483e-24 -0.0109603 -0.000185525 4.06991e-24
-0.0109603 -0.000185525 4.06991e-24 -0.0106087 -0.00018291 -3.38346e-24 -0.0106087 -0.00018291 -3.38346e-24 -0.0102549
-0.000183355 -3.39625e-24 -0.0102549 -0.000183355 -3.39625e-24 -0.00989255 -0.000187405 2.7346e-24 -0.00989255 -0.000187405
2.7346e-24 -0.00951429 -0.000195446 5.15806e-24 -0.00951429 -0.000195446 5.15806e-24 -0.00911207 -0.000207642 4.51277e-24
-0.00911207 -0.000207642 4.51277e-24 -0.00867777 -0.000223878 5.63022e-24 -0.00867777 -0.000223878 5.63022e-24 -0.00820374
-0.000243725 6.68507e-25 -0.00820374 -0.000243725 6.68507e-25 -0.00768334 -0.000266409 -2.88835e-24 -0.00768334 -0.000266409
-2.88835e-24 -0.00711163 -0.00029078 0 -0.00711163 -0.00029078 0 -0.00648624 -0.000315342 0
-0.00648624 -0.000315342 0 -0.00580806 -0.000338336 -2.85672e-25 -0.00580806 -0.000338336 -2.85672e-25 -0.00508182
-0.000357834 2.09301e-26 -0.00508182 -0.000357834 2.09301e-26 -0.00431599 -0.000371994 -5.43798e-25 -0.00431599 -0.000371994
-5.43798e-25 -0.00352192 -0.000379524 -8.5636e-25 -0.00352192 -0.000379524 -8.5636e-25 -0.00271237 -0.000379921 1.75133e-24
-0.00271237 -0.000379921 1.75133e-24 -0.00190027 -0.000373216 3.85011e-24 -0.00190027 -0.000373216 3.85011e-24 -0.00109772
-0.000360308 4.45732e-24 -0.00109772 -0.000360308 4.45732e-24 -0.000319477 -0.000342995 2.36709e-24 -0.000319477 -0.000342995
2.36709e-24 0.000422625 -0.00032292 0 0.000422625 -0.00032292 0 0.00112771 -0.000301307 0
0.00112771 -0.000301307 0 0.00179582 -0.000279371 2.78661e-24 0.00179582 -0.000279371 2.78661e-24 0.00242551
-0.000258051 2.79881e-24 0.00242551 -0.000258051 2.79881e-24 0.00301785 -0.00023765 0 0.00301785 -0.00023765
0 0.00357402 -0.000218002 -2.71598e-24 0.00357402 -0.000218002 -2.71598e-24 0.00409457 -0.000198745 -2.72811e-24
0.00409457 -0.000198745 -2.72811e-24 0.00457925 -0.000179572 0 0.00457925 -0.000179572 0 0.00502727
-0.000160376 -2.51496e-24 0.00502727 -0.000160376 -2.51496e-24 0.00543781 -0.000141271 -2.52641e-24 0.00543781 -0.000141271
-2.52641e-24 0.00581041 -0.000122531 0 0.00581041 -0.000122531 0 0.00614535 -0.000104512 2.27704e-24
0.00614535 -0.000104512 2.27704e-24 0.00644375 -8.75604e-05 4.48756e-24 0.00644375 -8.75604e-05 4.48756e-24 0.0067075
-7.19439e-05 2.21023e-24 0.0067075 -7.19439e-05 2.21023e-24 0.00693909 -5.77844e-05 -2.05696e-24 0.00693909 -5.77844e-05
-2.05696e-24 0.00714128 -4.50293e-05 -2.06669e-24 0.00714128 -4.50293e-05 -2.06669e-24 0.0073167 -3.34974e-05 1.93265e-24
0.0073167 -3.34974e-05 1.93265e-24 0.0074676 -2.28856e-05 1.9419e-24 0.0074676 -2.28856e-05 1.9419e-24 0.00759552
-1.29447e-05 1.82777e-24 0.00759552 -1.29447e-05 1.82777e-24 0.00770163 -3.54116e-06 3.6188e-24 0.00770163 -3.54116e-06
3.6188e-24 0.00778657 5.45712e-06 1.79086e-24 0.00778657 5.45712e-06 1.79086e-24 0.00785093 1.37527e-05 0
0.00785093 1.37527e-05 0 0.00789623 2.10867e-05 0 0.00789623 2.10867e-05 0 0.00792305
2.78774e-05 0 0.00792305 2.78774e-05 0 0.00793225 3.39848e-05 0 0.00793225 3.39848e-05
0 0.00792682 3.85744e-05 0 0.00792682 3.85744e-05 0 0.00791002 4.13893e-05 0
0.00791002 4.13893e-05 0 0.00788485 4.28005e-05 1.55167e-24 0.00788485 4.28005e-05 1.55167e-24 0.00785392
4.32871e-05 2.28417e-26 0.00785392 4.32871e-05 2.28417e-26 0.00781915 4.32432e-05 -1.5446e-24 0.00781915 4.32432e-05
-1.5446e-24 0.00778179 4.29626e-05 0 0.00778179 4.29626e-05 0 0.00774259 4.26638e-05 0
0.00774259 4.26638e-05 0 0.00770187 4.25216e-05 0 0.00770187 4.25216e-05 0 0.00765964
4.2682e-05 -2.99038e-24 0.00765964 4.2682e-05 -2.99038e-24 0.00761568 4.32397e-05 -3.00609e-24 0.00761568 4.32397e-05
-3.00609e-24 0.0075696 4.41942e-05 2.98125e-24 0.0075696 4.41942e-05 2.98125e-24 0.007521 4.54192e-05 1.65394e-26
0.007521 4.54192e-05 1.65394e-26 0.00746964 4.66756e-05 -2.99642e-24 0.00746964 4.66756e-05 -2.99642e-24 0.00741549
4.76647e-05 0 0.00741549 4.76647e-05 0 0.00735888 4.80982e-05 0 0.00735888 4.80982e-05
0 0.00730044 4.77624e-05 2.99757e-24 0.00730044 4.77624e-05 2.99757e-24 0.00724105 4.65569e-05 6.01985e-24
0.00724105 4.65569e-05 6.01985e-24 0.00718174 4.451e-05 3.02241e-24 0.00718174 4.451e-05 3.02241e-24 0.00712354
4.17666e-05 3.02726e-24 0.00712354 4.17666e-05 3.02726e-24 0.00706739 3.85395e-05 6.08394e-24 0.00706739 3.85395e-05
6.08394e-24 0.00701403 3.50538e-05 2.7535e-27 0.00701403 3.50538e-05 2.7535e-27 0.006964 3.15121e-05 -3.07105e-24
0.006964 3.15121e-05 -3.07105e-24 0.00691763 2.80765e-05 0 0.00691763 2.80765e-05 0 0.00687505
2.4861e-05 -3.10354e-24 0.00687505 2.4861e-05 -3.10354e-24 0.00683625 2.1934e-05 -3.12102e-24 0.00683625 2.1934e-05
-3.12102e-24 0.0068011 1.93252e-05 0 0.0068011 1.93252e-05 0 0.00676939 1.70374e-05 0
0.00676939 1.70374e-05 0 0.00674089 1.50571e-05 0 0.00674089 1.50571e-05 0 0.0067153
1.33629e-05 3.2052e-24 0.0067153 1.33629e-05 3.2052e-24 0.00669236 1.19267e-05 6.45136e-24 0.00669236 1.19267e-05
6.45136e-24 0.00667178 1.07154e-05 3.24636e-24 0.00667178 1.07154e-05 3.24636e-24 0.0066533 9.69583e-06 3.27447e-24
0.0066533 9.69583e-06 3.27447e-24 0.00663669 8.84256e-06 3.29352e-24 0.00663669 8.84256e-06 3.29352e-24 0.00662171
8.14048e-06 0 0.00662171 8.14048e-06 0 0.00660814 7.57703e-06 3.34828e-24 0.00660814 7.57703e-06
3.34828e-24 0.00659579 7.13157e-06 3.36799e-24 0.00659579 7.13157e-06 3.36799e-24 0.00658444 6.77121e-06 3.39965e-24
0.00658444 6.77121e-06 3.39965e-24 0.00657396 6.46024e-06 3.41981e-24 0.00657396 6.46024e-06 3.41981e-24 0.00656423
6.17526e-06 0 0.00656423 6.17526e-06 0 0.00655521 5.91623e-06 3.47995e-24 0.00655521 5.91623e-06
3.47995e-24 0.00654673 5.70674e-06 3.50081e-24 0.00654673 5.70674e-06 3.50081e-24 0.00653873 5.57934e-06 3.53603e-24
0.00653873 5.57934e-06 3.53603e-24 0.00653086 5.57129e-06 3.55738e-24 0.00653086 5.57129e-06 3.55738e-24 0.00652296