/*--------------------------------*- C++ -*----------------------------------*\
  =========                 |
  \\      /  F ield         | OpenFOAM: The Open Source CFD Toolbox
   \\    /   O peration     | Website:  https://openfoam.org
    \\  /    A nd           | Version:  9
     \\/     M anipulation  |
\*---------------------------------------------------------------------------*/
FoamFile
{
    format      ascii;
    class       volScalarField;
    location    "0.018";
    object      k;
}
// * * * * * * * * * * * * * * * * * * * * * * * * * * * * * * * * * * * * * //

dimensions      [0 2 -2 0 0 0 0];

internalField   nonuniform List<scalar> 
12225
(
4.89146e-05
5.69727e-05
8.16506e-05
0.000146563
0.000167283
0.000163436
0.000134311
0.000110848
0.000103431
0.00010155
9.97814e-05
9.48294e-05
7.62342e-05
5.27577e-05
4.01948e-05
3.65252e-05
3.67606e-05
4.58653e-05
2.05762e-05
2.24516e-05
2.84046e-05
3.92685e-05
4.3316e-05
4.37543e-05
4.30318e-05
4.27898e-05
4.41138e-05
4.94897e-05
5.3537e-05
5.46842e-05
5.43762e-05
5.25007e-05
4.70152e-05
3.98429e-05
3.56169e-05
3.53945e-05
2.00246e-05
1.86907e-05
1.89487e-05
1.94951e-05
1.94965e-05
1.8867e-05
1.72659e-05
1.65981e-05
1.65342e-05
1.66311e-05
1.6926e-05
1.75622e-05
1.91783e-05
2.1295e-05
2.18647e-05
2.18108e-05
2.14074e-05
1.99615e-05
2.0079e-05
2.00012e-05
2.00938e-05
2.06189e-05
2.07634e-05
2.06778e-05
2.04393e-05
2.02872e-05
1.99972e-05
1.8846e-05
1.60925e-05
1.52667e-05
1.55199e-05
1.67576e-05
1.76519e-05
1.79349e-05
1.79353e-05
1.76473e-05
2.0193e-05
2.18071e-05
3.04732e-05
3.59171e-05
3.28541e-05
2.69484e-05
2.49744e-05
2.47237e-05
2.48743e-05
2.52657e-05
2.64182e-05
2.91518e-05
3.00332e-05
2.96308e-05
2.68216e-05
2.33231e-05
2.12035e-05
1.9469e-05
2.97398e-05
3.16526e-05
3.94175e-05
4.15278e-05
3.44034e-05
2.59734e-05
2.31359e-05
2.27577e-05
2.3228e-05
2.67019e-05
4.10928e-05
5.26958e-05
5.48724e-05
5.31304e-05
4.40599e-05
3.35931e-05
2.73778e-05
2.3518e-05
2.20407e-05
2.32018e-05
2.89861e-05
3.06206e-05
3.04041e-05
2.71895e-05
2.38711e-05
2.3109e-05
2.34469e-05
2.67574e-05
4.40487e-05
0.000125554
0.000211395
0.000232428
0.000227586
0.000189656
0.000118496
7.40069e-05
2.31248e-05
2.33874e-05
2.52998e-05
3.2629e-05
3.28101e-05
2.76414e-05
2.34349e-05
2.2331e-05
2.24102e-05
2.39391e-05
3.14846e-05
6.36872e-05
9.77585e-05
0.00010725
0.000106147
9.45835e-05
6.77287e-05
5.00887e-05
2.07645e-05
2.27008e-05
2.42215e-05
2.44165e-05
2.3772e-05
2.23629e-05
2.16922e-05
2.15142e-05
2.15339e-05
2.18234e-05
2.3214e-05
2.69914e-05
2.98134e-05
3.10446e-05
3.12287e-05
3.07388e-05
2.97643e-05
2.98624e-05
2.21154e-05
2.43866e-05
2.3515e-05
2.25357e-05
2.34115e-05
2.49434e-05
2.50124e-05
2.44347e-05
2.27274e-05
2.17898e-05
2.14276e-05
2.13635e-05
2.13706e-05
2.13911e-05
2.14287e-05
2.15086e-05
2.17282e-05
2.24355e-05
2.64815e-05
2.26385e-05
2.19414e-05
2.40787e-05
3.75849e-05
4.27886e-05
4.20686e-05
3.79354e-05
3.04521e-05
2.56687e-05
2.32529e-05
2.21064e-05
2.1649e-05
2.15409e-05
2.15622e-05
2.17857e-05
2.26773e-05
2.57301e-05
2.10037e-05
2.08914e-05
2.11629e-05
2.57766e-05
5.77141e-05
8.02205e-05
7.32055e-05
4.83282e-05
3.31863e-05
2.62713e-05
2.32547e-05
2.20488e-05
2.16583e-05
2.16042e-05
2.16723e-05
2.20344e-05
2.32321e-05
2.72589e-05
2.20932e-05
2.12376e-05
2.14453e-05
2.41367e-05
2.99871e-05
3.07567e-05
3.04904e-05
2.79947e-05
2.4961e-05
2.35409e-05
2.28933e-05
2.2486e-05
2.22784e-05
2.22573e-05
2.22855e-05
2.24081e-05
2.27768e-05
2.4316e-05
2.04697e-05
2.03345e-05
2.032e-05
2.08444e-05
2.23623e-05
2.29435e-05
2.32978e-05
2.34475e-05
2.35223e-05
2.43113e-05
2.52008e-05
2.48966e-05
2.36522e-05
2.2901e-05
2.26e-05
2.2513e-05
2.25067e-05
2.25561e-05
2.11439e-05
2.15608e-05
2.1511e-05
2.14438e-05
2.12586e-05
2.12373e-05
2.15613e-05
2.41039e-05
2.70896e-05
2.72369e-05
2.5258e-05
2.27021e-05
2.16992e-05
2.14526e-05
2.14867e-05
2.18711e-05
2.23201e-05
2.24773e-05
2.12459e-05
2.20801e-05
2.2494e-05
2.22283e-05
2.19188e-05
2.20827e-05
2.27561e-05
2.30351e-05
2.30233e-05
2.27457e-05
2.21654e-05
2.19928e-05
2.20167e-05
2.24009e-05
2.30737e-05
2.32969e-05
2.33017e-05
2.31773e-05
2.02127e-05
2.23853e-05
2.39553e-05
2.36019e-05
2.24344e-05
2.15493e-05
2.13155e-05
2.14275e-05
2.14418e-05
2.12471e-05
2.13059e-05
2.19532e-05
2.39774e-05
2.57101e-05
2.66036e-05
2.6834e-05
2.67757e-05
2.62734e-05
2.09414e-05
2.12398e-05
2.14927e-05
2.14093e-05
2.08963e-05
2.06205e-05
2.06583e-05
2.13076e-05
2.18943e-05
2.22482e-05
2.28205e-05
2.35425e-05
2.42388e-05
2.45472e-05
2.45616e-05
2.43166e-05
2.33291e-05
2.25042e-05
2.01098e-05
2.11735e-05
2.32751e-05
2.38202e-05
2.35546e-05
2.21991e-05
2.11871e-05
2.08046e-05
2.07114e-05
2.07121e-05
2.07704e-05
2.09879e-05
2.15234e-05
2.20459e-05
2.24831e-05
2.27749e-05
2.28849e-05
2.28846e-05
2.03673e-05
2.04035e-05
2.0581e-05
2.16393e-05
2.25679e-05
2.23793e-05
2.14739e-05
2.10643e-05
2.1001e-05
2.1078e-05
2.13601e-05
2.13809e-05
2.12116e-05
2.10669e-05
2.10354e-05
2.10393e-05
2.10724e-05
2.10946e-05
2.12512e-05
2.13098e-05
2.15707e-05
2.31144e-05
2.67937e-05
2.79348e-05
2.77195e-05
2.6202e-05
2.35111e-05
2.22939e-05
2.2097e-05
2.19683e-05
2.13524e-05
2.0901e-05
2.07132e-05
2.06532e-05
2.06513e-05
2.06634e-05
2.0798e-05
2.15812e-05
2.16184e-05
2.16818e-05
2.2424e-05
2.66199e-05
3.09524e-05
3.12332e-05
2.92161e-05
2.50384e-05
2.30163e-05
2.22273e-05
2.18914e-05
2.18013e-05
2.18269e-05
2.19883e-05
2.21264e-05
2.21832e-05
2.18332e-05
2.49485e-05
2.54342e-05
2.54742e-05
2.56835e-05
2.64325e-05
2.68719e-05
2.63265e-05
2.44599e-05
2.31697e-05
2.25975e-05
2.24373e-05
2.24583e-05
2.26754e-05
2.27827e-05
2.27496e-05
2.26312e-05
2.2497e-05
2.00187e-05
2.14274e-05
2.27238e-05
2.27496e-05
2.2487e-05
2.23346e-05
2.23231e-05
2.24619e-05
2.2541e-05
2.24195e-05
2.19504e-05
2.15627e-05
2.14605e-05
2.15012e-05
2.16549e-05
2.16841e-05
2.16453e-05
2.14386e-05
2.0013e-05
2.02577e-05
2.19302e-05
2.37896e-05
2.39668e-05
2.38828e-05
2.3813e-05
2.36831e-05
2.33031e-05
2.24403e-05
2.19356e-05
2.18051e-05
2.18662e-05
2.2573e-05
2.45386e-05
2.51707e-05
2.49653e-05
2.37005e-05
2.05285e-05
2.06255e-05
2.20044e-05
2.42585e-05
2.44062e-05
2.38297e-05
2.28394e-05
2.24586e-05
2.23445e-05
2.22569e-05
2.20714e-05
2.1635e-05
2.12759e-05
2.10826e-05
2.10148e-05
2.10037e-05
2.10069e-05
2.10364e-05
2.00523e-05
1.9997e-05
1.99918e-05
1.99789e-05
1.9935e-05
1.98011e-05
1.93925e-05
1.81229e-05
1.72487e-05
1.71897e-05
1.72595e-05
1.74153e-05
1.78101e-05
1.89746e-05
1.99663e-05
2.04596e-05
2.06219e-05
2.06769e-05
2.00009e-05
1.61939e-05
1.7057e-05
1.77811e-05
1.76822e-05
1.65006e-05
1.28391e-05
9.74411e-06
8.0108e-06
7.28724e-06
7.12017e-06
7.1623e-06
7.59096e-06
9.27178e-06
1.11181e-05
1.23278e-05
1.31402e-05
1.3622e-05
2.00966e-05
2.00202e-05
2.00036e-05
2.01353e-05
2.06614e-05
2.22891e-05
2.45111e-05
2.59555e-05
2.64365e-05
2.63817e-05
2.5934e-05
2.46741e-05
2.35618e-05
2.28832e-05
2.25748e-05
2.25146e-05
2.25588e-05
2.27719e-05
4.77298e-05
2.53409e-05
2.02304e-05
2.18687e-05
3.4379e-05
6.11803e-05
7.32702e-05
7.50862e-05
7.24373e-05
5.8925e-05
4.3708e-05
3.44616e-05
2.96623e-05
2.78585e-05
2.76111e-05
2.80786e-05
3.11685e-05
3.63552e-05
9.1104e-05
0.000107077
0.000142424
0.000223669
0.000326355
0.000447193
0.000599361
0.00078338
0.000960065
0.00118548
0.00143791
0.00158485
0.00182432
0.00205407
0.00225863
0.00230591
0.00224951
0.00236459
0.00276499
0.00381085
0.00645198
0.0160637
0.0278555
0.0309942
0.0396557
0.0910973
0.146834
0.0817359
0.0231081
0.0121614
0.0101564
0.0100652
0.0101154
0.00944516
0.00848936
0.00715021
0.00578958
0.00444103
0.0034768
0.00237662
0.00184194
0.00119108
0.000896262
0.000614925
0.000491749
0.000432805
0.000417015
0.000418399
0.00041772
0.00041444
0.000409986
0.000408024
0.000402525
0.000393905
0.000388045
0.000382764
0.000377958
0.000368599
0.000362655
0.000354824
0.0003466
0.000336465
0.000328796
0.000322604
0.000314033
0.000303154
0.00029466
0.000286979
0.000273696
0.000257535
0.000243991
0.00023322
0.000213105
0.000195575
0.000178826
0.000159974
0.000143877
0.000126192
0.000109622
9.44702e-05
8.21863e-05
7.21578e-05
6.36875e-05
5.61725e-05
4.9391e-05
4.32829e-05
3.78261e-05
3.29683e-05
2.86512e-05
2.48473e-05
2.15236e-05
1.86065e-05
1.60268e-05
1.37591e-05
1.18135e-05
1.01885e-05
8.80865e-06
7.55302e-06
6.38547e-06
5.30954e-06
4.33926e-06
3.48798e-06
2.76306e-06
2.16361e-06
1.68004e-06
1.29576e-06
9.89861e-07
7.47435e-07
5.57529e-07
4.10535e-07
2.98513e-07
2.14234e-07
1.51482e-07
1.06011e-07
7.35419e-08
5.05901e-08
3.452e-08
2.33679e-08
1.5694e-08
1.04572e-08
6.91246e-09
4.53237e-09
2.94725e-09
1.90028e-09
1.2146e-09
7.69442e-10
4.83042e-10
3.00488e-10
1.8523e-10
1.13157e-10
6.85217e-11
4.11402e-11
2.44983e-11
1.44739e-11
8.48716e-12
4.94102e-12
2.85682e-12
1.64089e-12
9.36471e-13
5.31124e-13
2.99388e-13
1.67751e-13
9.34476e-14
5.17717e-14
2.85437e-14
1.56794e-14
8.59997e-15
4.72882e-15
2.6255e-15
1.49004e-15
8.81201e-16
5.57239e-16
3.86607e-16
2.98182e-16
2.53726e-16
2.32771e-16
2.2433e-16
2.22127e-16
2.22045e-16
2.22045e-16
2.22045e-16
2.22045e-16
2.22045e-16
2.22045e-16
2.22045e-16
2.22045e-16
2.22045e-16
2.22045e-16
2.22045e-16
2.22045e-16
2.22045e-16
2.22045e-16
2.22045e-16
2.22045e-16
2.22045e-16
2.22045e-16
5.33401e-16
3.13008e-13
3.08764e-10
2.99326e-07
0.000157469
0.000336554
0.000578995
0.000912859
0.00136416
0.00193419
0.00259714
0.00335983
0.00416028
0.0050362
0.00604443
0.00707434
0.00793903
0.00903795
0.0106299
0.0113997
0.0117406
0.012691
0.016007
0.0293253
0.0614741
0.084948
0.0902798
0.0833362
0.0730986
0.0722405
0.0446521
0.020991
0.010415
0.00719153
0.00588477
0.00498248
0.00403233
0.00327023
0.00269308
0.0021588
0.00186892
0.00160013
0.00147447
0.00138622
0.00135213
0.00133777
0.00133687
0.00135516
0.00136314
0.00137335
0.00138
0.00138212
0.00137705
0.0013635
0.00135716
0.00133901
0.0013058
0.00128007
0.00126746
0.0012535
0.00123008
0.00119332
0.00116841
0.00115368
0.00112826
0.00109326
0.00107221
0.00106111
0.00104371
0.00101338
0.000984982
0.000960669
0.000919753
0.00086211
0.00082085
0.000780828
0.00070805
0.000658045
0.000605665
0.000548786
0.000495627
0.000441597
0.000390763
0.000334228
0.000282638
0.000246079
0.00021941
0.00019726
0.00017635
0.000156517
0.000138132
0.000121442
0.000106332
9.25578e-05
8.03785e-05
6.99515e-05
6.09276e-05
5.31896e-05
4.65399e-05
4.07332e-05
3.56264e-05
3.11731e-05
2.72786e-05
2.3837e-05
2.0759e-05
1.79784e-05
1.54524e-05
1.31572e-05
1.10806e-05
9.2218e-06
7.59137e-06
6.18608e-06
4.99119e-06
3.98777e-06
3.15489e-06
2.47194e-06
1.91896e-06
1.47573e-06
1.12422e-06
8.48139e-07
6.33241e-07
4.67529e-07
3.41072e-07
2.458e-07
1.74955e-07
1.22976e-07
8.53517e-08
5.84878e-08
3.95687e-08
2.64279e-08
1.74267e-08
1.13464e-08
7.29605e-09
4.63487e-09
2.90997e-09
1.80659e-09
1.10967e-09
6.74743e-10
4.06386e-10
2.42566e-10
1.43557e-10
8.42776e-11
4.90958e-11
2.83883e-11
1.62962e-11
9.28855e-12
5.25736e-12
2.95514e-12
1.64972e-12
9.1475e-13
5.03889e-13
2.75835e-13
1.50137e-13
8.13275e-14
4.39012e-14
2.36626e-14
1.2772e-14
6.93408e-15
3.81235e-15
2.14473e-15
1.25341e-15
7.76406e-16
5.20954e-16
3.83946e-16
3.10287e-16
2.70552e-16
2.49011e-16
2.37253e-16
2.30774e-16
2.27158e-16
2.25108e-16
2.23924e-16
2.23224e-16
2.228e-16
2.22534e-16
2.22365e-16
2.2225e-16
2.22182e-16
2.22118e-16
2.2212e-16
2.43122e-16
2.29109e-14
2.47396e-11
2.27625e-08
0.000133453
0.000502357
0.000970119
0.00155933
0.00228795
0.00320625
0.00439547
0.00589781
0.0076386
0.00968044
0.01214
0.0148517
0.0176651
0.020894
0.0257101
0.0335444
0.0415952
0.0493648
0.0576256
0.0652387
0.0695354
0.0722722
0.0617815
0.048132
0.0321563
0.0174682
0.0102308
0.0058894
0.00414463
0.00338844
0.00297626
0.00260859
0.00237486
0.00222235
0.00211247
0.00201141
0.00196305
0.00194241
0.00196915
0.00203749
0.00211984
0.00220825
0.00229484
0.00237178
0.00245591
0.00252018
0.00255443
0.00257418
0.00258135
0.00257544
0.00256723
0.00251738
0.00244339
0.00238244
0.00233764
0.00229709
0.00223133
0.00212812
0.00206176
0.00201031
0.00196672
0.00189636
0.00186169
0.0018294
0.0018132
0.0017842
0.00174682
0.00171746
0.00167367
0.00157288
0.00147482
0.00135683
0.00123521
0.00112721
0.00102245
0.000917244
0.000813851
0.000712942
0.000615131
0.000523843
0.000443353
0.000375711
0.000326449
0.000292458
0.000263952
0.000238192
0.000214492
0.000192497
0.000172318
0.000153827
0.000135817
0.000117558
9.95705e-05
8.28112e-05
6.85283e-05
5.7029e-05
4.76595e-05
4.01057e-05
3.40575e-05
2.92199e-05
2.53321e-05
2.21708e-05
1.95474e-05
1.72995e-05
1.52842e-05
1.34537e-05
1.17742e-05
1.02228e-05
8.79376e-06
7.48837e-06
6.30876e-06
5.25549e-06
4.32736e-06
3.52201e-06
2.83406e-06
2.25469e-06
1.77341e-06
1.37888e-06
1.05964e-06
8.04577e-07
6.03381e-07
4.4678e-07
3.26541e-07
2.35509e-07
1.67575e-07
1.17621e-07
8.14409e-08
5.5635e-08
3.75098e-08
2.4972e-08
1.64283e-08
1.06902e-08
6.88795e-09
4.39752e-09
2.78298e-09
1.74636e-09
1.08682e-09
6.70832e-10
4.1065e-10
2.4927e-10
1.50013e-10
8.94885e-11
5.29071e-11
3.09974e-11
1.79967e-11
1.0355e-11
5.90609e-12
3.34045e-12
1.87462e-12
1.04459e-12
5.78505e-13
3.18745e-13
1.74923e-13
9.57262e-14
5.23063e-14
2.85806e-14
1.56482e-14
8.61174e-15
4.78785e-15
2.71134e-15
1.5838e-15
9.71142e-16
6.37535e-16
4.55184e-16
3.54871e-16
2.99111e-16
2.6775e-16
2.49812e-16
2.3927e-16
2.33047e-16
2.29125e-16
2.26662e-16
2.25184e-16
2.23986e-16
2.2381e-16
2.24304e-16
2.55976e-16
1.30449e-15
1.02347e-12
8.52461e-10
0.000188777
0.000636143
0.00118356
0.00189962
0.00273472
0.00376604
0.0052136
0.00707453
0.00944248
0.0126161
0.0166473
0.0213948
0.0268006
0.0324571
0.0377996
0.0425246
0.0466366
0.0498498
0.0514464
0.04896
0.041489
0.0304285
0.022929
0.0154528
0.00894209
0.00563566
0.00403097
0.00323981
0.00291264
0.0027683
0.00268112
0.00260348
0.00256942
0.00261268
0.00271635
0.00289415
0.0031357
0.00335903
0.00362079
0.00385105
0.00407382
0.00424388
0.00439937
0.00447917
0.00456133
0.00461068
0.00463076
0.00462958
0.00455817
0.00441332
0.00432112
0.0042269
0.00407054
0.00388342
0.00378181
0.0036603
0.00355641
0.00336061
0.00318399
0.00294852
0.00281483
0.00262057
0.00251883
0.0023637
0.00229696
0.0022485
0.00217865
0.00214229
0.00210691
0.0020281
0.00192545
0.00174703
0.00156422
0.00135841
0.0011937
0.00105259
0.000933181
0.000822862
0.000716057
0.000613285
0.000521481
0.000444311
0.000382131
0.00033329
0.000294557
0.000263562
0.000237985
0.000215458
0.000194691
0.000176701
0.000162197
0.00015012
0.000138811
0.000126274
0.000110909
9.31125e-05
7.5552e-05
6.06039e-05
4.87412e-05
3.94587e-05
3.23471e-05
2.69297e-05
2.2775e-05
1.95455e-05
1.70137e-05
1.49681e-05
1.32217e-05
1.1628e-05
1.01337e-05
8.74773e-06
7.47738e-06
6.32964e-06
5.30711e-06
4.40593e-06
3.61999e-06
2.94332e-06
2.36816e-06
1.88535e-06
1.48509e-06
1.15718e-06
8.91772e-07
6.79645e-07
5.12337e-07
3.82211e-07
2.82438e-07
2.06962e-07
1.50528e-07
1.08684e-07
7.78607e-08
5.53009e-08
3.89104e-08
2.71053e-08
1.86865e-08
1.27482e-08
8.60638e-09
5.7496e-09
3.80071e-09
2.48566e-09
1.60805e-09
1.02888e-09
6.51001e-10
4.07309e-10
2.51998e-10
1.54187e-10
9.33159e-11
5.58791e-11
3.31205e-11
1.94406e-11
1.13066e-11
6.51998e-12
3.73047e-12
2.1197e-12
1.19716e-12
6.72558e-13
3.76089e-13
2.09465e-13
1.16283e-13
6.44084e-14
3.56499e-14
1.97656e-14
1.10155e-14
6.20419e-15
3.55689e-15
2.09899e-15
1.29286e-15
8.4357e-16
5.90458e-16
4.46332e-16
3.59324e-16
3.10383e-16
2.79809e-16
2.5972e-16
2.5891e-16
2.68015e-16
3.46913e-16
6.03376e-16
1.62313e-14
2.92008e-14
1.70797e-13
3.51105e-11
0.000207749
0.000695023
0.00130297
0.00204923
0.00289025
0.00378534
0.00485819
0.00655816
0.00925951
0.012419
0.0157026
0.0193724
0.0232102
0.0267183
0.0295828
0.0311413
0.0316269
0.029444
0.0257107
0.0206008
0.016155
0.0116202
0.00839454
0.00576056
0.00405049
0.00335899
0.00307388
0.00296855
0.00292929
0.00291673
0.00301992
0.00318828
0.00351281
0.00380083
0.00420186
0.0045505
0.00500112
0.00549654
0.00605758
0.00658611
0.00709444
0.00757271
0.00785222
0.00797603
0.00801684
0.00796095
0.00769357
0.00753874
0.00732704
0.00694231
0.00653562
0.0061698
0.00583963
0.0054983
0.0051457
0.00490662
0.00465953
0.00454199
0.00437346
0.00424321
0.00407665
0.00379712
0.00350155
0.00318057
0.00285202
0.0027123
0.00252547
0.00239196
0.00227672
0.00216226
0.0020519
0.00187584
0.00166251
0.00141297
0.00120326
0.001032
0.000905724
0.0008162
0.0007315
0.000643688
0.000560101
0.000483137
0.000413434
0.000352865
0.000304122
0.000267611
0.000239746
0.000217523
0.000197842
0.000179806
0.000164863
0.00015306
0.000144079
0.00013693
0.000130397
0.00012297
0.000112361
9.70267e-05
7.83868e-05
6.01876e-05
4.54908e-05
3.44014e-05
2.63033e-05
2.05621e-05
1.65417e-05
1.36948e-05
1.16419e-05
1.01544e-05
9.03064e-06
8.0658e-06
7.12495e-06
6.19275e-06
5.30135e-06
4.47548e-06
3.73109e-06
3.07495e-06
2.50725e-06
2.02386e-06
1.61797e-06
1.28138e-06
1.00544e-06
7.81624e-07
6.01937e-07
4.59128e-07
3.46787e-07
2.59332e-07
1.91939e-07
1.40567e-07
1.01842e-07
7.29749e-08
5.1707e-08
3.62214e-08
2.50762e-08
1.7158e-08
1.16015e-08
7.74972e-09
5.11271e-09
3.3303e-09
2.14119e-09
1.35845e-09
8.50218e-10
5.24823e-10
3.19443e-10
1.91685e-10
1.13381e-10
6.61086e-11
3.80062e-11
2.15563e-11
1.20733e-11
6.68658e-12
3.66824e-12
1.99661e-12
1.08049e-12
5.83048e-13
3.1483e-13
1.70764e-13
9.33681e-14
5.16105e-14
2.89329e-14
1.65075e-14
9.62894e-15
5.78137e-15
3.58963e-15
2.32788e-15
1.57393e-15
1.10503e-15
8.36683e-16
6.28341e-16
5.20007e-16
5.26511e-16
6.50614e-16
1.1357e-15
3.16129e-15
7.29049e-15
4.40885e-14
9.64242e-14
4.49198e-12
4.76873e-12
4.57426e-11
4.68719e-11
0.000204801
0.000687945
0.00126907
0.001946
0.00268722
0.00346574
0.00435558
0.00540189
0.00656226
0.00779401
0.00935228
0.0113823
0.0133851
0.0147683
0.0154839
0.0157052
0.0149245
0.0132954
0.0112607
0.00897929
0.00697062
0.00529359
0.00408345
0.00344344
0.00314738
0.00307022
0.00310651
0.00315312
0.00342023
0.00376805
0.00414111
0.00453955
0.00494902
0.00554773
0.00624036
0.00715623
0.00840865
0.00987583
0.0114622
0.012594
0.0131698
0.0134676
0.0135545
0.0134557
0.0128527
0.0123807
0.0116081
0.0106025
0.0100108
0.00909168
0.00833843
0.00750048
0.00685543
0.00637636
0.00569022
0.00537966
0.00496458
0.00480112
0.0046845
0.00465124
0.00465141
0.00474542
0.00485598
0.00488085
0.00457508
0.00418406
0.00375141
0.00338095
0.00301812
0.00273054
0.00246576
0.0022017
0.00187766
0.00154807
0.00124302
0.00100376
0.000817695
0.000676918
0.000592736
0.00055221
0.000524576
0.000481072
0.000427614
0.000374093
0.000323882
0.000277652
0.000240167
0.000213885
0.000194516
0.000178755
0.000163891
0.000149857
0.000138507
0.000131409
0.000127687
0.000124573
0.000121046
0.000116465
0.000109593
9.80639e-05
8.08857e-05
6.14296e-05
4.44218e-05
3.15765e-05
2.23612e-05
1.60728e-05
1.19349e-05
9.25158e-06
7.49403e-06
6.33086e-06
5.56887e-06
5.01233e-06
4.4974e-06
3.9596e-06
3.41642e-06
2.8925e-06
2.40713e-06
1.97241e-06
1.59379e-06
1.27159e-06
1.00271e-06
7.82028e-07
6.03528e-07
4.61022e-07
3.48614e-07
2.60951e-07
1.93339e-07
1.41762e-07
1.02846e-07
7.38072e-08
5.23825e-08
3.67569e-08
2.54942e-08
1.74732e-08
1.18307e-08
7.9109e-09
5.22254e-09
3.40278e-09
2.18739e-09
1.38672e-09
8.66658e-10
5.33722e-10
3.23743e-10
1.93333e-10
1.13612e-10
6.56622e-11
3.73016e-11
2.08175e-11
1.14077e-11
6.13515e-12
3.23729e-12
1.67651e-12
8.52695e-13
4.26296e-13
2.0977e-13
1.01843e-13
4.90424e-14
2.36383e-14
1.15669e-14
5.88595e-15
3.14959e-15
1.82577e-15
1.18967e-15
7.6044e-16
5.95942e-16
6.38267e-16
9.74103e-16
2.40669e-15
7.77008e-15
2.54989e-14
8.07741e-14
2.38467e-13
6.84886e-13
1.80987e-12
5.03855e-12
1.054e-11
4.00071e-11
4.12137e-11
6.12024e-11
6.29092e-11
0.000183912
0.000622693
0.00113438
0.00171891
0.00233367
0.0029389
0.00358297
0.0042762
0.00492642
0.00543953
0.00603259
0.0068273
0.007556
0.00791135
0.00803636
0.00784919
0.00716898
0.0063728
0.00541002
0.00453936
0.00375241
0.00325849
0.00301275
0.00292792
0.00293604
0.0031184
0.00328498
0.00359899
0.00401372
0.00451047
0.00503976
0.0056794
0.00659401
0.00797734
0.00980945
0.0124841
0.0158985
0.0178151
0.0186776
0.0193675
0.0196936
0.019849
0.0197963
0.0189461
0.0182166
0.0173329
0.0159997
0.0148012
0.0129953
0.0116695
0.0102249
0.00847748
0.00767266
0.00686248
0.00599101
0.00557869
0.00496373
0.00468997
0.00443124
0.00437308
0.0043863
0.00457874
0.00500858
0.00533882
0.00551455
0.00559899
0.00553968
0.005195
0.00462098
0.00404182
0.00364093
0.00334069
0.00281081
0.00218804
0.00163918
0.00119905
0.000883094
0.000666747
0.000519814
0.000421928
0.000365413
0.000354029
0.000358927
0.000354135
0.000325505
0.000289215
0.000252439
0.000218808
0.000193766
0.00017643
0.000162652
0.000148968
0.000134843
0.000121798
0.000112569
0.00010922
0.000109245
0.00011006
0.000110072
0.00010868
0.000103793
9.42557e-05
7.90108e-05
5.96488e-05
4.17315e-05
2.82875e-05
1.88327e-05
1.25637e-05
8.60466e-06
6.19185e-06
4.73595e-06
3.8511e-06
3.31605e-06
2.97567e-06
2.68736e-06
2.38376e-06
2.06662e-06
1.75169e-06
1.45405e-06
1.18446e-06
9.48702e-07
7.48431e-07
5.82346e-07
4.4738e-07
3.39599e-07
2.54843e-07
1.89115e-07
1.38801e-07
1.00757e-07
7.23367e-08
5.13544e-08
3.60457e-08
2.50088e-08
1.7147e-08
1.1615e-08
7.77078e-09
5.13312e-09
3.34676e-09
2.15295e-09
1.36596e-09
8.5438e-10
5.26582e-10
3.19637e-10
1.90979e-10
1.12254e-10
6.48717e-11
3.68378e-11
2.05413e-11
1.12403e-11
6.03206e-12
3.17279e-12
1.63486e-12
8.24892e-13
4.07434e-13
1.96976e-13
9.32398e-14
4.32512e-14
1.97282e-14
8.8848e-15
4.01478e-15
1.87982e-15
9.15767e-16
5.48657e-16
5.11902e-16
5.84121e-16
8.73776e-16
1.73013e-15
4.06108e-15
1.04806e-14
2.77192e-14
7.5328e-14
1.9938e-13
5.31479e-13
1.30954e-12
3.71307e-12
6.93545e-12
2.19732e-11
2.31428e-11
2.54747e-11
3.21104e-11
0.000154828
0.000528939
0.000962475
0.00145457
0.00196252
0.00244287
0.00292098
0.00340089
0.00377954
0.00397456
0.00417774
0.00439645
0.004586
0.00469084
0.0047092
0.00445965
0.00406399
0.00368634
0.00323949
0.00295566
0.00274675
0.00266644
0.00265138
0.00277545
0.00297038
0.00329298
0.00370885
0.00426929
0.00490582
0.00553733
0.00641882
0.00773187
0.00986214
0.0132644
0.017549
0.0217365
0.0243013
0.0259227
0.0279314
0.0301839
0.0323979
0.0338702
0.0350573
0.0359611
0.0363852
0.0361647
0.0342365
0.0309363
0.0262009
0.0220596
0.0168785
0.0136935
0.0100182
0.00844098
0.00669349
0.00595171
0.00516654
0.00473645
0.00425334
0.00404138
0.00398713
0.00401666
0.00430805
0.00501046
0.00554179
0.00581165
0.00604556
0.00621584
0.00622554
0.0059337
0.00545937
0.00514351
0.00462785
0.00387772
0.00297245
0.00211099
0.00140807
0.000918546
0.000619236
0.000437345
0.000334863
0.00027716
0.000246045
0.000240117
0.000252929
0.000261243
0.00025287
0.000227209
0.000202957
0.000181799
0.000164859
0.000150654
0.000136649
0.000122303
0.000108934
9.80579e-05
9.14858e-05
8.99803e-05
9.13381e-05
9.56293e-05
9.80402e-05
9.83144e-05
9.6781e-05
9.00472e-05
7.35577e-05
5.36629e-05
3.62179e-05
2.34841e-05
1.48325e-05
9.30305e-06
5.94922e-06
4.0004e-06
2.89695e-06
2.2741e-06
1.92613e-06
1.72438e-06
1.56315e-06
1.39204e-06
1.20857e-06
1.02264e-06
8.44773e-07
6.82856e-07
5.41368e-07
4.21812e-07
3.2355e-07
2.44647e-07
1.82536e-07
1.34485e-07
9.78855e-08
7.04049e-08
5.00472e-08
3.51603e-08
2.4411e-08
1.67462e-08
1.13489e-08
7.59624e-09
5.02025e-09
3.2749e-09
2.10798e-09
1.33833e-09
8.37745e-10
5.16785e-10
3.1401e-10
1.87836e-10
1.10553e-10
6.39805e-11
3.63864e-11
2.03217e-11
1.11384e-11
5.98745e-12
3.1546e-12
1.62808e-12
8.22633e-13
4.06775e-13
1.96789e-13
9.31456e-14
4.3155e-14
1.96119e-14
8.77571e-15
3.90382e-15
1.79361e-15
8.46727e-16
4.71391e-16
4.19843e-16
4.72612e-16
6.91391e-16
1.34118e-15
3.07551e-15
7.76292e-15
1.99772e-14
5.2587e-14
1.3334e-13
3.38297e-13
7.83939e-13
2.25371e-12
3.6295e-12
7.91982e-12
8.87327e-12
9.5665e-12
1.19862e-11
0.00012274
0.00042737
0.000778335
0.0011821
0.00159646
0.00198344
0.00235761
0.00273899
0.00302022
0.00312014
0.00317118
0.00319315
0.00315816
0.00309951
0.00307902
0.00295598
0.00276942
0.00260616
0.00244714
0.00238328
0.0023596
0.00239158
0.00249822
0.00271909
0.00301699
0.00347621
0.00413516
0.00506669
0.00608718
0.00758383
0.00979657
0.0128857
0.0170768
0.021662
0.0261169
0.030032
0.0334654
0.0383269
0.0450501
0.0526015
0.0611057
0.0702865
0.0801844
0.0893448
0.0941141
0.0958289
0.0913428
0.0849621
0.0705267
0.0592084
0.0418396
0.0332599
0.0209632
0.0155539
0.0102424
0.00785857
0.00655861
0.00570317
0.00519826
0.00456135
0.004172
0.00400567
0.00402315
0.00425142
0.00487583
0.00554863
0.00599248
0.00635267
0.00659595
0.00664834
0.00636781
0.00577541
0.00525601
0.00465435
0.00390568
0.00309055
0.00230078
0.00160056
0.00103882
0.000657231
0.000419949
0.000295272
0.000234521
0.000203004
0.000186617
0.000183961
0.000194889
0.000204917
0.000202217
0.000186513
0.000170335
0.000155712
0.00014167
0.000126982
0.000112146
9.86046e-05
8.7469e-05
7.95599e-05
7.59627e-05
7.59359e-05
7.93434e-05
8.58841e-05
8.93996e-05
9.01076e-05
8.89199e-05
8.26463e-05
6.45691e-05
4.41657e-05
2.84715e-05
1.76052e-05
1.05784e-05
6.29209e-06
3.80497e-06
2.42188e-06
1.67572e-06
1.27781e-06
1.06976e-06
9.56963e-07
8.69309e-07
7.75585e-07
6.73326e-07
5.6815e-07
4.66701e-07
3.7414e-07
2.93473e-07
2.25763e-07
1.70665e-07
1.26978e-07
9.30974e-08
6.73229e-08
4.8048e-08
3.38572e-08
2.35604e-08
1.61922e-08
1.09901e-08
7.36576e-09
4.87382e-09
3.18308e-09
2.05125e-09
1.30387e-09
8.17184e-10
5.04766e-10
3.07139e-10
1.84005e-10
1.08475e-10
6.28888e-11
3.58337e-11
2.00541e-11
1.10159e-11
5.93559e-12
3.13515e-12
1.62236e-12
8.22035e-13
4.07656e-13
1.97796e-13
9.38956e-14
4.36278e-14
1.98738e-14
8.9173e-15
3.96928e-15
1.81509e-15
8.74546e-16
4.63176e-16
3.7756e-16
4.08209e-16
5.53778e-16
9.94647e-16
2.1558e-15
5.21516e-15
1.29278e-14
3.27396e-14
7.95327e-14
1.89963e-13
4.31751e-13
8.42073e-13
1.79831e-12
1.96339e-12
2.32368e-12
2.58812e-12
3.49746e-12
9.16057e-05
0.000330506
0.000598466
0.000927714
0.00127486
0.00159423
0.00189401
0.00218717
0.00248862
0.00265481
0.00268639
0.00267459
0.00257882
0.00241075
0.00228979
0.00223895
0.00219865
0.00215633
0.00213183
0.0021288
0.00216096
0.00224725
0.00240404
0.00266433
0.00305485
0.00371609
0.00469858
0.00568333
0.00680225
0.00832816
0.0106072
0.0142837
0.019311
0.0251066
0.031598
0.0392387
0.0495104
0.0654325
0.0827874
0.106278
0.134823
0.164133
0.189579
0.20762
0.216363
0.219205
0.210013
0.196219
0.166961
0.140526
0.103904
0.077835
0.0511583
0.0349021
0.021201
0.0130007
0.00872351
0.00663029
0.00560504
0.00504384
0.00460281
0.00423553
0.004006
0.00394647
0.00413169
0.00455459
0.0053087
0.00598693
0.00647675
0.00667402
0.00648855
0.00588823
0.00532807
0.00474663
0.00404071
0.00327269
0.00252934
0.00187485
0.00133932
0.000927488
0.000630043
0.000413271
0.000280815
0.000213075
0.000181106
0.000164191
0.000156178
0.000156732
0.000165782
0.000171519
0.000169212
0.000157904
0.00014575
0.000134052
0.000120692
0.000105419
9.10746e-05
7.94147e-05
7.10497e-05
6.63669e-05
6.53998e-05
6.68739e-05
7.40848e-05
8.13358e-05
8.43381e-05
8.45362e-05
8.24066e-05
7.24528e-05
5.08748e-05
3.27407e-05
2.0026e-05
1.17748e-05
6.7428e-06
3.82996e-06
2.21655e-06
1.35589e-06
9.09855e-07
6.82707e-07
5.70809e-07
5.12419e-07
4.66284e-07
4.16021e-07
3.60372e-07
3.02643e-07
2.46811e-07
1.95976e-07
1.51933e-07
1.15297e-07
8.58328e-08
6.27961e-08
4.52139e-08
3.20726e-08
2.24313e-08
1.54759e-08
1.0536e-08
7.07888e-09
4.69385e-09
3.07127e-09
1.98264e-09
1.26238e-09
7.92517e-10
4.90374e-10
2.98918e-10
1.79418e-10
1.05983e-10
6.15758e-11
3.51657e-11
1.97283e-11
1.08653e-11
5.87074e-12
3.11011e-12
1.61448e-12
8.20784e-13
4.0847e-13
1.98929e-13
9.48011e-14
4.42293e-14
2.02305e-14
9.11351e-15
4.07779e-15
1.85472e-15
9.09587e-16
4.77234e-16
3.37073e-16
3.44428e-16
4.24171e-16
6.84107e-16
1.36289e-15
3.09669e-15
7.29519e-15
1.7485e-14
3.99084e-14
1.01765e-13
1.78759e-13
3.82499e-13
4.50366e-13
4.94242e-13
5.90446e-13
6.63409e-13
9.24818e-13
6.27709e-05
0.000241873
0.000437899
0.000697166
0.000971784
0.0012506
0.00151263
0.00175494
0.00198912
0.00221949
0.00238182
0.002426
0.00239932
0.0022566
0.00206394
0.00193817
0.00191348
0.00191455
0.00193103
0.00198247
0.00206866
0.00217772
0.00236048
0.00264061
0.00312213
0.00391695
0.00475396
0.00566178
0.00687552
0.00878479
0.0118738
0.0166959
0.0238401
0.0334227
0.045511
0.0611863
0.0819071
0.106985
0.142836
0.188184
0.23212
0.27047
0.301298
0.320447
0.329775
0.332655
0.322482
0.306072
0.277344
0.241614
0.195787
0.143693
0.102543
0.0691463
0.0460674
0.0272108
0.0151211
0.00912333
0.00621426
0.00501391
0.00448394
0.00420097
0.00390974
0.00378164
0.00380623
0.00386042
0.00416245
0.00475759
0.00545335
0.00588162
0.00586257
0.00551986
0.00488212
0.00427083
0.00362123
0.0029709
0.00237001
0.00184274
0.00136327
0.000974633
0.000694429
0.000490375
0.000345778
0.000251041
0.000195907
0.000166625
0.000150613
0.000142389
0.000140329
0.000142016
0.000147214
0.000148448
0.000144942
0.000135192
0.000125812
0.00011524
0.00010121
8.59551e-05
7.33825e-05
6.45741e-05
5.95184e-05
5.79292e-05
5.85472e-05
6.3772e-05
7.39676e-05
7.94571e-05
8.0803e-05
8.00102e-05
7.4465e-05
5.57236e-05
3.55913e-05
2.15574e-05
1.24787e-05
6.9776e-06
3.8205e-06
2.08716e-06
1.16911e-06
6.97168e-07
4.60125e-07
3.43705e-07
2.8918e-07
2.61173e-07
2.38286e-07
2.12655e-07
1.83791e-07
1.53603e-07
1.24352e-07
9.77935e-08
7.49295e-08
5.60885e-08
4.11155e-08
2.95741e-08
2.09065e-08
1.45429e-08
9.96352e-09
6.72733e-09
4.47828e-09
2.93971e-09
1.90298e-09
1.21468e-09
7.64354e-10
4.74028e-10
2.89619e-10
1.7425e-10
1.03187e-10
6.01091e-11
3.44246e-11
1.93705e-11
1.07025e-11
5.80268e-12
3.08534e-12
1.6079e-12
8.20854e-13
4.10333e-13
2.00784e-13
9.61639e-14
4.5099e-14
2.07415e-14
9.39038e-15
4.22646e-15
1.92756e-15
9.34383e-16
5.16123e-16
3.21428e-16
2.88045e-16
3.14385e-16
4.25413e-16
7.27327e-16
1.47533e-15
3.17849e-15
6.94508e-15
1.55678e-14
2.96901e-14
4.89952e-14
5.66153e-14
7.36705e-14
8.51791e-14
1.10325e-13
1.29265e-13
1.97792e-13
3.81777e-05
0.000165628
0.000286907
0.000491298
0.000715827
0.00095583
0.0011768
0.00138428
0.00158882
0.00181956
0.00203429
0.00219365
0.00224862
0.00223006
0.00208066
0.00190045
0.00181448
0.00179773
0.0018122
0.00186762
0.00198299
0.00215247
0.00234799
0.00266289
0.00316668
0.00386274
0.0046433
0.00547299
0.00663926
0.0084735
0.0115207
0.0162904
0.0234767