/*--------------------------------*- C++ -*----------------------------------*\
  =========                 |
  \\      /  F ield         | OpenFOAM: The Open Source CFD Toolbox
   \\    /   O peration     | Website:  https://openfoam.org
    \\  /    A nd           | Version:  9
     \\/     M anipulation  |
\*---------------------------------------------------------------------------*/
FoamFile
{
    format      ascii;
    class       volScalarField;
    location    "0.018";
    object      p;
}
// * * * * * * * * * * * * * * * * * * * * * * * * * * * * * * * * * * * * * //

dimensions      [0 2 -2 0 0 0 0];

internalField   nonuniform List<scalar> 
12225
(
40.602
32.6423
26.5822
22.0671
18.5921
15.7963
13.5096
11.6181
10.0356
8.73773
7.70494
6.88423
6.21499
5.66798
5.21128
4.89435
4.72292
4.7642
41.0353
32.5376
26.5227
22.0289
18.5657
15.772
13.4802
11.5843
10.0007
8.70166
7.66639
6.84153
6.17084
5.62233
5.16861
4.83689
4.63277
4.49712
40.7746
32.3288
26.4101
21.9523
18.4922
15.7014
13.417
11.5322
9.95851
8.66386
7.62287
6.78584
6.09789
5.5301
5.0643
4.70196
4.42561
4.18056
39.2685
31.9711
26.2175
21.8115
18.3738
15.5972
13.3217
11.4432
9.87634
8.58596
7.54316
6.69844
6.00014
5.42191
4.94283
4.54752
4.21378
3.88924
38.2653
31.4449
25.926
21.6
18.1968
15.4404
13.1819
11.3219
9.77221
8.49011
7.44469
6.59067
5.88257
5.29251
4.79647
4.37188
3.99221
3.62296
37.6194
30.9326
25.555
21.3217
17.9633
15.2375
13.0029
11.1579
9.62099
8.34871
7.30683
6.45155
5.73903
5.13824
4.62506
4.17622
3.7677
3.37829
36.3631
30.1062
25.0078
20.9209
17.6438
14.965
12.7636
10.9454
9.4314
8.17286
7.13444
6.27667
5.56022
4.95429
4.43268
3.97138
3.54791
3.14413
34.334
29.2061
24.3796
20.4523
17.2639
14.633
12.4664
10.6782
9.18696
7.94498
6.91776
6.06607
5.35011
4.73897
4.20741
3.73472
3.30026
2.88799
34.3506
28.2649
23.5802
19.8411
16.7671
14.1998
12.0832
10.3397
8.88607
7.67115
6.65724
5.8091
5.09361
4.48187
3.94882
3.47425
3.04075
2.63452
29.7699
26.5972
22.6121
19.1116
16.169
13.6792
11.6262
9.93467
8.51911
7.33081
6.34002
5.51234
4.81055
4.20403
3.67087
3.19299
2.75736
2.35397
31.2075
25.7618
21.6276
18.283
15.4548
13.0466
11.0644
9.43708
8.07486
6.92664
5.96344
5.15371
4.46341
3.86489
3.33857
2.86991
2.44608
2.05636
27.5332
24.0712
20.5049
17.336
14.6292
12.334
10.449
8.89447
7.58583
6.48003
5.55198
4.77187
4.10477
3.52191
3.00536
2.54257
2.12275
1.73906
23.7541
22.9459
19.4789
16.3879
13.7444
11.5382
9.74431
8.26433
7.01905
5.96837
5.08525
4.33804
3.6938
3.12903
2.62835
2.18076
1.77567
1.40616
26.4292
21.5585
17.9012
14.9623
12.4856
10.4475
8.79322
7.422
6.26805
5.29536
4.47403
3.77469
3.17068
2.64045
2.16817
1.74271
1.35544
0.997247
25.6292
19.9425
16.1036
13.184
10.887
9.03968
7.54484
6.30762
5.26777
4.39262
3.6531
3.02086
2.47108
1.98462
1.54877
1.15449
0.794001
0.459636
20.8081
16.8773
13.4509
10.7239
8.66734
7.05412
5.79691
4.77482
3.92306
3.19876
2.57736
2.04371
1.57828
1.16302
0.785415
0.437668
0.112253
-0.196698
18.8012
12.8753
9.40941
6.95661
5.46681
4.36007
3.4794
2.7661
2.16944
1.64138
1.17455
0.771293
0.416174
0.0902374
-0.215682
-0.502187
-0.771206
-1.02875
11.0519
5.68153
3.54847
2.47773
1.55621
0.933012
0.477755
0.144838
-0.122855
-0.380986
-0.623198
-0.836238
-1.03331
-1.23124
-1.42905
-1.62257
-1.81474
-2.00967
-12.9879
-8.74643
-6.3379
-5.17776
-4.40423
-3.77831
-3.39726
-3.15797
-2.98472
-2.87043
-2.81339
-2.79463
-2.80673
-2.84505
-2.90282
-2.97514
-3.06197
-3.16429
-27.4332
-17.7664
-13.3133
-10.7506
-9.04075
-7.74024
-6.7785
-6.05716
-5.50911
-5.09297
-4.77281
-4.52666
-4.34989
-4.22745
-4.1516
-4.10843
-4.09694
-4.1163
-23.35
-21.5856
-17.6161
-14.4699
-12.1656
-10.3887
-9.06403
-8.04577
-7.25614
-6.6372
-6.14136
-5.75167
-5.46785
-5.23501
-5.06352
-4.93653
-4.85095
-4.80024
-32.6445
-24.3164
-19.9816
-16.8413
-14.5011
-12.492
-10.8379
-9.57591
-8.59021
-7.80114
-7.15984
-6.64319
-6.22736
-5.9204
-5.70077
-5.52223
-5.3864
-5.29336
-26.003
-25.0146
-21.5582
-18.3551
-15.7425
-13.6815
-12.0124
-10.6421
-9.54874
-8.66206
-7.93811
-7.34918
-6.89001
-6.53965
-6.23129
-5.99142
-5.80562
-5.66764
-31.3119
-27.1729
-23.131
-19.7602
-17.0075
-14.7784
-12.9017
-11.3957
-10.2139
-9.24647
-8.45875
-7.81722
-7.30204
-6.89537
-6.56212
-6.29467
-6.08401
-5.92146
-37.2617
-29.0339
-24.1708
-20.5742
-17.7076
-15.4113
-13.5066
-11.9703
-10.7032
-9.68425
-8.85562
-8.18814
-7.63576
-7.19224
-6.82936
-6.53223
-6.29319
-6.10667
-38.0093
-29.5829
-24.7616
-21.1524
-18.2258
-15.8633
-13.9149
-12.3118
-11.0015
-9.94758
-9.09137
-8.39219
-7.82066
-7.3597
-6.98467
-6.67613
-6.42562
-6.2281
-35.6285
-29.4821
-25.0581
-21.4777
-18.5414
-16.1487
-14.1706
-12.537
-11.2032
-10.1316
-9.26335
-8.54973
-7.96464
-7.49008
-7.10221
-6.78106
-6.51805
-6.30853
-33.3113
-29.0304
-25.1709
-21.6587
-18.7282
-16.3262
-14.3279
-12.6706
-11.3159
-10.228
-9.34813
-8.62771
-8.03968
-7.5616
-7.16751
-6.83838
-6.56643
-6.35012
-31.9651
-28.69
-25.1899
-21.751
-18.8289
-16.4193
-14.4058
-12.7367
-11.3783
-10.2852
-9.39943
-8.67543
-8.08735
-7.61084
-7.21629
-6.88143
-6.60005
-6.373
-28.3106
-28.3437
-25.1795
-21.8036
-18.887
-16.4681
-14.4413
-12.7574
-11.3893
-10.2948
-9.41351
-8.6967
-8.11318
-7.63398
-7.23088
-6.88783
-6.60195
-6.37345
-0.953597
-0.985871
-1.11618
-1.33471
-1.64223
-2.04162
-2.53567
-3.12561
-3.80918
-4.57829
-5.41652
-6.29659
-7.17954
-8.0161
-8.75198
-9.33297
-9.71406
-9.8678
-9.79286
-9.51743
-9.09949
-8.61293
-8.13613
-7.69018
-7.2561
-6.72147
-5.8787
-4.66619
-3.73882
-3.89644
-5.15345
-7.34379
-10.2008
-13.4895
-17.0226
-20.6543
-24.2718
-27.7844
-31.117
-34.2036
-36.9846
-39.4051
-41.4165
-42.9793
-44.0646
-44.6534
-44.734
-44.3035
-43.3801
-42.0041
-40.2248
-38.0991
-35.6858
-33.0457
-30.2366
-27.3126
-24.3214
-21.3035
-18.2926
-15.315
-12.3894
-9.52713
-6.73204
-4.0012
-1.32665
1.30132
3.88978
6.43913
8.94053
11.3755
13.7183
15.94
18.0134
19.916
21.6304
23.1452
24.4552
25.562
26.4733
27.1998
27.7568
28.166
28.4471
28.6184
28.6969
28.6986
28.6378
28.5272
28.3778
28.1989
27.9984
27.7829
27.5578
27.3276
27.0957
26.8648
26.6371
26.4141
26.1969
25.9864
25.783
25.587
25.3986
25.2177
25.0443
24.8782
24.719
24.5667
24.4208
24.2811
24.1474
24.0192
23.8966
23.7793
23.6665
23.558
23.4537
23.3538
23.2579
23.1658
23.0773
22.9923
22.9106
22.8321
22.7565
22.6837
22.6136
22.5458
22.4804
22.417
22.3555
22.2957
22.2376
22.1809
22.1256
22.0715
22.0184
21.9663
21.915
21.8645
21.8146
21.7652
21.7161
21.6675
21.6192
21.5712
21.5235
21.476
21.4288
21.3818
21.3349
21.2882
21.2414
21.1948
21.1481
21.1015
21.0549
21.0084
20.9619
20.9155
20.8693
20.8234
20.7778
20.7327
20.6883
20.6449
20.6028
20.5625
20.5244
20.4898
20.4591
20.4346
20.4173
20.412
20.4201
20.4528
20.5126
20.6268
20.8021
21.0876
-1.04363
-1.10501
-1.24862
-1.47351
-1.7839
-2.18692
-2.68921
-3.29516
-4.00549
-4.8145
-5.70728
-6.65621
-7.62151
-8.5559
-9.40942
-10.1312
-10.6509
-10.8958
-10.8321
-10.4726
-9.86422
-9.04646
-8.05776
-7.02829
-6.54797
-6.81055
-7.00348
-6.72195
-6.50135
-7.00488
-8.40258
-10.5799
-13.3205
-16.431
-19.7536
-23.167
-26.576
-29.9032
-33.0805
-36.0414
-38.7209
-41.0566
-42.9909
-44.474
-45.4667
-45.9449
-45.9034
-45.3626
-44.3457
-42.8822
-41.0169
-38.8042
-36.3061
-33.5855
-30.7033
-27.7153
-24.6702
-21.6089
-18.5648
-15.5637
-12.6245
-9.75837
-6.96905
-4.25278
-1.59968
1.00345
3.56849
6.10057
8.5941
11.0318
13.3876
15.6304
17.7303
19.6624
21.4075
22.9521
24.2897
25.4209
26.3521
27.0929
27.664
28.0846
28.375
28.5538
28.6386
28.6456
28.5895
28.483
28.3371
28.1614
27.9638
27.7509
27.5282
27.3002
27.0704
26.8414
26.6155
26.3942
26.1785
25.9694
25.7674
25.5726
25.3854
25.2056
25.0332
24.8679
24.7096
24.558
24.4128
24.2737
24.1404
24.0127
23.8902
23.7726
23.6599
23.5518
23.448
23.3485
23.2531
23.1616
23.0736
22.9891
22.9078
22.8296
22.7543
22.6818
22.6119
22.5444
22.4791
22.4159
22.3546
22.2949
22.2369
22.1804
22.1251
22.071
22.018
21.9659
21.9147
21.8642
21.8143
21.7649
21.716
21.6673
21.619
21.5711
21.5234
21.476
21.4288
21.3817
21.3349
21.2881
21.2413
21.1946
21.148
21.1014
21.0547
21.0082
20.9617
20.9153
20.869
20.823
20.7773
20.7322
20.6877
20.6441
20.6018
20.5613
20.523
20.4878
20.4566
20.4311
20.413
20.4053
20.4119
20.4381
20.4939
20.5849
20.7312
20.8872
-0.99343
-1.06808
-1.21631
-1.44141
-1.75355
-2.16253
-2.67889
-3.31142
-4.06571
-4.94267
-5.93293
-7.00916
-8.1227
-9.21283
-10.2056
-11.0237
-11.5934
-11.8455
-11.764
-11.3817
-10.8644
-10.3611
-9.92322
-9.47364
-9.08618
-8.99445
-9.24975
-9.74141
-10.5075
-11.665
-13.273
-15.3199
-17.747
-20.4776
-23.4298
-26.5239
-29.6806
-32.8199
-35.8603
-38.7234
-41.3326
-43.6141
-45.5007
-46.9343
-47.8676
-48.2695
-48.1338
-47.4702
-46.3011
-44.6662
-42.6195
-40.2246
-37.5498
-34.6642
-31.6332
-28.516
-25.3628
-22.2147
-19.104
-16.056
-13.0893
-10.2153
-7.43777
-4.75181
-2.14422
0.404477
2.91518
5.40306
7.87116
10.3078
12.6872
14.9736
17.1301
19.1254
20.936
22.5445
23.941
25.1243
26.1001
26.8653
27.4678
27.9134
28.2235
28.4181
28.5161
28.5342
28.4876
28.3892
28.2506
28.0812
27.8893
27.6817
27.4639
27.2405
27.0148
26.7899
26.5677
26.3498
26.1374
25.9313
25.7321
25.5401
25.3553
25.1778
25.0076
24.8444
24.6879
24.538
24.3943
24.2566
24.1247
23.9981
23.8768
23.7604
23.6489
23.5419
23.4393
23.3407
23.2461
23.1552
23.0678
22.9839
22.9032
22.8255
22.7508
22.6787
22.6092
22.5421
22.4771
22.4141
22.353
22.2936
22.2358
22.1794
22.1242
22.0703
22.0174
21.9654
21.9142
21.8638
21.814
21.7646
21.7157
21.6671
21.6189
21.571
21.5233
21.4759
21.4287
21.3817
21.3348
21.288
21.2413
21.1946
21.1479
21.1012
21.0546
21.008
20.9614
20.915
20.8687
20.8226
20.7768
20.7314
20.6868
20.643
20.6004
20.5594
20.5205
20.4845
20.4524
20.4254
20.4055
20.3944
20.3969
20.4145
20.4574
20.52
20.6192
20.6908
-0.67939
-0.748193
-0.885188
-1.09307
-1.3846
-1.76851
-2.2564
-2.8579
-3.57927
-4.4224
-5.37794
-6.41943
-7.50604
-8.59571
-9.61198
-10.4879
-11.1348
-11.5147
-11.6232
-11.5013
-11.2565
-11.0216
-10.8974
-10.926
-11.1193
-11.5207
-12.1706
-13.0943
-14.3088
-15.8196
-17.6255
-19.7182
-22.0815
-24.6867
-27.4931
-30.4482
-33.4889
-36.5415
-39.5248
-42.353
-44.9387
-47.196
-49.047
-50.4287
-51.2944
-51.6068
-51.3389
-50.4869
-49.0876
-47.1966
-44.8819
-42.2188
-39.286
-36.1609
-32.9157
-29.6137
-26.3074
-23.0373
-19.8339
-16.7203
-13.7147
-10.8296
-8.07041
-5.43239
-2.89953
-0.443965
1.96967
4.37444
6.78888
9.21075
11.6162
13.9634
16.2038
18.296
20.2082
21.9168
23.4059
24.6682
25.703
26.5269
27.1718
27.6532
27.9924
28.2112
28.3297
28.3658
28.3348
28.2502
28.1233
27.9641
27.7811
27.5813
27.3706
27.1537
26.9343
26.7152
26.4984
26.2857
26.0782
25.8766
25.6816
25.4935
25.3125
25.1386
24.9716
24.8114
24.6577
24.5104
24.3691
24.2335
24.1035
23.9787
23.859
23.7441
23.6339
23.5282
23.4266
23.3291
23.2355
23.1455
23.0591
22.976
22.8961
22.8192
22.7451
22.6737
22.6047
22.538
22.4735
22.411
22.3502
22.2911
22.2336
22.1774
22.1225
22.0688
22.016
21.9642
21.9132
21.8629
21.8131
21.7639
21.715
21.6665
21.6184
21.5705
21.523
21.4756
21.4284
21.3814
21.3346
21.2878
21.241
21.1943
21.1476
21.1009
21.0543
21.0076
20.961
20.9145
20.8681
20.8218
20.7759
20.7304
20.6855
20.6413
20.5983
20.5568
20.5172
20.4802
20.4469
20.418
20.3956
20.3808
20.3777
20.3862
20.4139
20.4519
20.508
20.5242
-0.0732233
-0.128087
-0.242438
-0.418485
-0.664273
-0.987877
-1.39821
-1.90358
-2.51086
-3.22206
-4.03105
-4.91495
-5.8058
-6.67257
-7.50777
-8.27304
-8.93266
-9.4648
-9.87168
-10.1845
-10.463
-10.7856
-11.2277
-11.8414
-12.6409
-13.6169
-14.7687
-16.1116
-17.6635
-19.4344
-21.4269
-23.6406
-26.0721
-28.7089
-31.5261
-34.4845
-37.5311
-40.6004
-43.6154
-46.4888
-49.1252
-51.4277
-53.3041
-54.6774
-55.4913
-55.6956
-55.2489
-54.1626
-52.487
-50.2863
-47.6413
-44.6423
-41.3829
-37.9535
-34.4358
-30.8995
-27.4
-23.9767
-20.6552
-17.4533
-14.3871
-11.4723
-8.72083
-6.13507
-3.70103
-1.38158
0.87679
3.13127
5.42806
7.78437
10.1858
12.5872
14.9279
17.1496
19.2049
21.0578
22.6824
24.0614
25.1643
26.0701
26.7771
27.3062
27.6829
27.9323
28.0769
28.1362
28.1263
28.0607
27.9509
27.8068
27.6369
27.4485
27.2476
27.0394
26.8279
26.6161
26.4062
26.2
25.9987
25.8029
25.6135
25.4306
25.2545
25.0852
24.9226
24.7664
24.6165
24.4726
24.3344
24.2018
24.0744
23.952
23.8345
23.7216
23.6133
23.5093
23.4094
23.3134
23.2212
23.1326
23.0474
22.9655
22.8866
22.8107
22.7375
22.6668
22.5986
22.5326
22.4687
22.4066
22.3464
22.2877
22.2306
22.1747
22.1201
22.0667
22.0142
21.9626
21.9117
21.8616
21.812
21.7628
21.7141
21.6657
21.6177
21.5699
21.5224
21.4751
21.428
21.3811
21.3342
21.2874
21.2407
21.194
21.1473
21.1006
21.0539
21.0072
20.9605
20.9139
20.8674
20.821
20.7749
20.7292
20.6839
20.6394
20.5959
20.5537
20.5133
20.4751
20.4403
20.4092
20.3839
20.3648
20.3552
20.3542
20.3661
20.3819
20.4012
20.3793
0.671307
0.629705
0.542017
0.406079
0.216392
-0.0326111
-0.347613
-0.735478
-1.20164
-1.73014
-2.32152
-2.96468
-3.66927
-4.39951
-5.12885
-5.8401
-6.52787
-7.1989
-7.87203
-8.57725
-9.35165
-10.2332
-11.2541
-12.4346
-13.7763
-15.263
-16.8756
-18.6041
-20.4521
-22.4349
-24.5763
-26.903
-29.4339
-32.1714
-35.0992
-38.184
-41.3778
-44.6184
-47.8275
-50.9104
-53.7587
-56.2576
-58.2923
-59.7536
-60.5506
-60.637
-60.0119
-58.6884
-56.7007
-54.1241
-51.0605
-47.626
-43.939
-40.11
-36.236
-32.3964
-28.6505
-25.0354
-21.5677
-18.2524
-15.0942
-12.1059
-9.3068
-6.71504
-4.33471
-2.14429
-0.0892078
1.91622
3.97469
6.14532
8.44661
10.8473
13.2765
15.6511
17.8951
19.9463
21.7645
23.3413
24.4532
25.4996
26.2924
26.8809
27.3025
27.5882
27.7637
27.8501
27.8648
27.8219
27.7331
27.6083
27.4558
27.2829
27.0958
26.8997
26.6986
26.4961
26.2945
26.096
25.9018
25.713
25.5301
25.3535
25.1834
25.0198
24.8625
24.7114
24.5661
24.4265
24.2923
24.1633
24.0391
23.9197
23.805
23.6946
23.5886
23.4866
23.3887
23.2946
23.2041
23.117
23.0333
22.9527
22.875
22.8002
22.7281
22.6584
22.591
22.5258
22.4625
22.4012
22.3415
22.2834
22.2267
22.1713
22.1171
22.0639
22.0118
21.9604
21.9098
21.8599
21.8104
21.7615
21.7129
21.6647
21.6167
21.5691
21.5217
21.4745
21.4274
21.3805
21.3337
21.287
21.2402
21.1935
21.1468
21.1001
21.0534
21.0067
20.9599
20.9132
20.8666
20.82
20.7737
20.7277
20.6821
20.6371
20.593
20.5501
20.5087
20.4692
20.4326
20.3992
20.3704
20.3468
20.3301
20.3195
20.3162
20.312
20.3015
20.2521
1.39157
1.36174
1.2974
1.19729
1.05776
0.875333
0.646292
0.367766
0.038878
-0.355937
-0.808552
-1.31387
-1.86898
-2.47101
-3.11762
-3.80952
-4.554
-5.36615
-6.26754
-7.28292
-8.43676
-9.74911
-11.2299
-12.8735
-14.6576
-16.5465
-18.5035
-20.5064
-22.5599
-24.6978
-26.9733
-29.442
-32.1432
-35.0903
-38.271
-41.6536
-45.1901
-48.8155
-52.4441
-55.9681
-59.259
-62.1718
-64.5542
-66.2599
-67.1704
-67.2217
-66.4118
-64.7588
-62.323
-59.2067
-55.5458
-51.4941
-47.2066
-42.8235
-38.4617
-34.2126
-30.1412
-26.2842
-22.6495
-19.2224
-15.9802
-12.9109
-10.0217
-7.34092
-4.89948
-2.70692
-0.744142
1.06007
2.81514
4.65588
6.68576
8.94351
11.371
13.8583
16.291
18.5662
20.6041
22.3458
23.7287
24.8598
25.7333
26.385
26.8557
27.1816
27.3924
27.5109
27.5546
27.5379
27.4729
27.3699
27.2377
27.0835
26.9134
26.7326
26.5452
26.3547
26.1637
25.9744
25.7885
25.6073
25.4317
25.2622
25.0989
24.9419
24.7909
24.6457
24.506
24.3715
24.242
24.1172
23.997
23.8812
23.7697
23.6623
23.559
23.4596
23.364
23.272
23.1835
23.0983
23.0162
22.9372
22.8611
22.7876
22.7167
22.6481
22.5818
22.5175
22.4551
22.3945
22.3356
22.2781
22.2219
22.1671
22.1133
22.0606
22.0088
21.9578
21.9075
21.8578
21.8085
21.7598
21.7114
21.6633
21.6155
21.568
21.5207
21.4736
21.4267
21.3798
21.3331
21.2864
21.2397
21.193
21.1463
21.0996
21.0529
21.0061
20.9592
20.9124
20.8656
20.8189
20.7724
20.7261
20.6801
20.6346
20.5898
20.546
20.5035
20.4626
20.424
20.3881
20.3557
20.3271
20.3034
20.2832
20.2658
20.2439
20.2096
20.1394
1.94646
1.92527
1.87793
1.80383
1.70002
1.56379
1.39172
1.18084
0.928207
0.629583
0.281391
-0.120168
-0.57985
-1.10461
-1.70469
-2.39388
-3.18946
-4.11069
-5.17819
-6.41354
-7.83588
-9.45534
-11.2665
-13.2442
-15.3439
-17.5092
-19.6899
-21.8638
-24.0521
-26.317
-28.7455
-31.4216
-34.3983
-37.6872
-41.2698
-45.1143
-49.1768
-53.3923
-57.6663
-61.87
-65.8397
-69.3831
-72.2937
-74.3748
-75.4721
-75.5057
-74.4806
-72.4175
-69.3988
-65.5677
-61.1123
-56.2432
-51.1681
-46.068
-41.0831
-36.3128
-31.8256
-27.6623
-23.8331
-20.315
-17.0573
-13.9982
-11.0953
-8.34115
-5.76613
-3.41634
-1.32312
0.538399
2.2453
3.88145
5.58742
7.50258
9.69743
12.1019
14.59
17.0237
19.2725
21.2296
22.8377
24.1156
25.0937
25.82
26.3458
26.7155
26.9644
27.1184
27.1958
27.2105
27.1739
27.0961
26.9864
26.8528
26.702
26.539
26.368
26.1922
26.0141
25.8363
25.6604
25.4881
25.3206
25.1586
25.0027
24.8528
24.7088
24.5703
24.4369
24.3084
24.1843
24.0645
23.9488
23.8371
23.7293
23.6253
23.5252
23.4286
23.3357
23.2461
23.1599
23.0768
22.9967
22.9195
22.845
22.7731
22.7036
22.6364
22.5712
22.508
22.4466
22.3869
22.3287
22.2719
22.2164
22.1622
22.1089
22.0567
22.0053
21.9547
21.9047
21.8553
21.8063
21.7578
21.7096
21.6617
21.6141
21.5668
21.5196
21.4726
21.4258
21.379
21.3323
21.2857
21.2391
21.1924
21.1457
21.099
21.0522
21.0054
20.9585
20.9115
20.8646
20.8177
20.7709
20.7242
20.6778
20.6318
20.5863
20.5416
20.4979
20.4554
20.4147
20.376
20.3399
20.3064
20.2756
20.2461
20.216
20.1786
20.1254
20.0387
2.30862
2.29339
2.25726
2.20025
2.11941
2.01223
1.87506
1.70452
1.4973
1.24997
0.957691
0.613203
0.20614
-0.277216
-0.854115
-1.54492
-2.37234
-3.36047
-4.53286
-5.90963
-7.50468
-9.32177
-11.3473
-13.5431
-15.8469
-18.1859
-20.5018
-22.7795
-25.0618
-27.441
-30.0387
-32.9672
-36.2886
-40.0062
-44.0957
-48.5301
-53.275
-58.2676
-63.3992
-68.5081
-73.3806
-77.7619
-81.3788
-83.9724
-85.3415
-85.3858
-84.1163
-81.5593
-77.8239
-73.1046
-67.6565
-61.7649
-55.7096
-49.7303
-43.9995
-38.6179
-33.6404
-29.0982
-25.0034
-21.3343
-18.0403
-15.0564
-12.2968
-9.66081
-7.07414
-4.55201
-2.16211
0.0225973
1.94498
3.64552
5.20745
6.84574
8.7118
10.8288
13.1523
15.566
17.9067
20.0218
21.8182
23.2577
24.3587
25.1745
25.7665
26.1882
26.4804
26.6732
26.7876
26.8377
26.834
26.7859
26.7028
26.5929
26.4635
26.3202
26.1674
26.0084
25.8456
25.6813
25.5173
25.3555
25.1974
25.0439
24.8959
24.7536
24.617
24.4857
24.3593
24.2373
24.1193
24.005
23.8944
23.7874
23.6838
23.5837
23.487
23.3937
23.3038
23.217
23.1333
23.0526
22.9747
22.8995
22.8269
22.7567
22.6888
22.623
22.5591
22.4971
22.4368
22.3781
22.3208
22.2649
22.2101
22.1565
22.1039
22.0522
22.0013
21.9511
21.9015
21.8524
21.8037
21.7554
21.7075
21.6599
21.6125
21.5653
21.5183
21.4715
21.4247
21.3781
21.3315
21.2849
21.2383
21.1917
21.145
21.0983
21.0515
21.0046
20.9576
20.9106
20.8635
20.8164
20.7693
20.7223
20.6754
20.6288
20.5826
20.5368
20.4919
20.4478
20.4049
20.3634
20.3234
20.2849
20.2473
20.2091
20.1676
20.1167
20.0482
19.9483
2.49928
2.48707
2.45693
2.40959
2.3419
2.25133
2.13396
1.98586
1.80305
1.58167
1.31643
0.999213
0.617793
0.155464
-0.408621
-1.0989
-1.94212
-2.96493
-4.19219
-5.64552
-7.33858
-9.27001
-11.4178
-13.7348
-16.1507
-18.5858
-20.9807
-23.3294
-25.6898
-28.1773
-30.9413
-34.1208
-37.7951
-41.9671
-46.6109
-51.7068
-57.2317
-63.1243
-69.256
-75.4201
-81.3395
-86.691
-91.1359
-94.3567
-96.1046
-96.2452
-94.7551
-91.6819
-87.1686
-81.4675
-74.9049
-67.8499
-60.6689
-53.6802
-47.1111
-41.0726
-35.588
-30.6453
-26.2411
-22.3632
-18.9582
-15.9454
-13.2272
-10.7096
-8.29891
-5.88875
-3.41188
-0.941691
1.35289
3.36226
5.04549
6.60145
8.24342
10.0964
12.184
14.4326
16.7073
18.8529
20.7445
22.3054
23.5227
24.4349
25.1045
25.5903
25.9369
26.1763
26.3319
26.4203
26.4531
26.4388
26.3859
26.303
26.1981
26.0773
25.945
25.8046
25.6587
25.5096
25.3594
25.2098
25.0625
24.9188
24.7796
24.6455
24.5167
24.393
24.2739
24.1589
24.0475
23.9394
23.8344
23.7325
23.6335
23.5377
23.4449
23.3552
23.2685
23.1848
23.1039
23.0258
22.9504
22.8774
22.8069
22.7386
22.6724
22.6082
22.5458
22.4851
22.426
22.3683
22.3121
22.257
22.2031
22.1502
22.0983
22.0472
21.9968
21.9471
21.8978
21.8491
21.8008
21.7528
21.7052
21.6578
21.6106
21.5636
21.5168
21.4701
21.4235
21.377
21.3305
21.284
21.2375
21.1909
21.1443
21.0975
21.0507
21.0037
20.9567
20.9095
20.8623
20.8149
20.7676
20.7202
20.6728
20.6256
20.5786
20.5319
20.4856
20.4398
20.3947
20.3503
20.3066
20.2631
20.2191
20.1728
20.1211
20.0586
19.9776
19.867
2.58243
2.57017
2.54042
2.49637
2.43366
2.34986
2.24089
2.10255
1.93021
1.71937
1.46448
1.15741
0.785964
0.332975
-0.223391
-0.908758
-1.75179
-2.78262
-4.02892
-5.51127
-7.23966
-9.21101
-11.4038
-13.7702
-16.2382
-18.7264
-21.175
-23.5814
-26.0059
-28.576
-31.4645
-34.8408
-38.8121
-43.3903
-48.5491
-54.2737
-60.5469
-67.3011
-74.38
-81.5291
-88.4138
-94.6547
-99.861
-103.666
-105.785
-106.064
-104.45
-100.994
-95.847
-89.3031
-81.7508
-73.6343
-65.3998
-57.4405
-50.0568
-43.4054
-37.4976
-32.2434
-27.5759
-23.4863
-19.9426
-16.8501
-14.0974
-11.6154
-9.29789
-6.99394
-4.63032
-2.12332
0.305665
2.50866
4.4241
6.13052
7.79818
9.5628
11.5042
13.5918
15.7336
17.8079
19.6963
21.3103
22.6105
23.6116
24.3625
24.9207
25.3324
25.6288
25.8329
25.963
26.0339
26.0556
26.0363
25.9837
25.9057
25.8095
25.7001
25.5808
25.4539
25.3217
25.1865
25.0505
24.9156
24.7831
24.654
24.5292
24.4089
24.2931
24.1817
24.074
23.9696
23.868
23.769
23.6726
23.5787
23.4875
23.399
23.3131
23.23
23.1496
23.0718
22.9966
22.9238
22.8533
22.785
22.7187
22.6544
22.5919
22.5311
22.4719
22.4141
22.3576
22.3024
22.2484
22.1954
22.1433
22.0921
22.0416
21.9918
21.9426
21.8938
21.8455
21.7975
21.7499
21.7026
21.6554
21.6085
21.5618
21.5152
21.4687
21.4222
21.3758
21.3294
21.283
21.2366
21.1901
21.1434
21.0967
21.0498
21.0029
20.9557
20.9084
20.861
20.8135
20.7658
20.718
20.6702
20.6223
20.5745
20.5267
20.4791
20.4316
20.3843
20.337
20.2896
20.2413
20.1913
20.1375
20.0768
20.0043
19.913
19.7938
2.62637
2.6083
2.5714
2.52318
2.45735
2.37218
2.26329
2.12616
1.95547
1.74598
1.49188
1.18552
0.815619
0.36607
-0.184434
-0.861584
-1.69361
-2.7102
-3.94079
-5.40973
-7.12785
-9.08906
-11.271
-13.6299
-16.1007
-18.6073
-21.0924
-23.5515
-26.0337
-28.6627
-31.6182
-35.0895
-39.2227
-44.0641
-49.5869
-55.761
-62.5575
-69.9049
-77.6365
-85.4673
-93.016
-99.8568
-105.567
-109.758
-112.133
-112.534
-110.881
-107.217
-101.696
-94.6354
-86.4692
-77.6862
-68.782
-60.1876
-52.2401
-45.1501
-38.9831
-33.5821
-28.7841
-24.5547
-20.9051
-17.8248
-15.0805
-12.5604
-10.1841
-7.88217
-5.56766
-3.14645
-0.694622
1.60174
3.61268
5.35991
7.01159
8.7407
10.6536
12.718
14.8183
16.8371
18.6884
20.3106
21.6635
22.7409
23.5714
24.2031
24.6821
25.0403
25.2986
25.4746
25.5847
25.6423
25.6572
25.6368
25.5885
25.519
25.4339
25.337
25.231
25.1177
24.9992
24.878
24.7565
24.6365
24.519
24.4046
24.2939
24.1869
24.0834
23.9834
23.8861
23.7914
23.6988
23.6082
23.5198
23.4335
23.3494
23.2678
23.1886
23.1117
23.0372
22.9651
22.8951
22.8272
22.7613
22.6973
22.635
22.5744
22.5153
22.4576
22.4012
22.3461
22.292
22.239
22.187
22.1358
22.0854
22.0356
21.9864
21.9377
21.8894
21.8416
21.794
21.7467
21.6997
21.6529
21.6063
21.5598
21.5134
21.4671
21.4208
21.3745
21.3283
21.282
21.2356
21.1891
21.1426
21.0958
21.049
21.0019
20.9547
20.9073
20.8597
20.8119
20.764
20.7158
20.6674
20.6189
20.5703
20.5214
20.4725
20.4232
20.3737
20.3237
20.2726
20.2199
20.1643
20.1037
20.035
19.9538
19.8539
19.7276
2.67849
2.64829
2.59603
2.53675
2.46137
2.36874
2.25331
2.1109
1.93597
1.72272
1.46475
1.15444
0.78181
0.333193
-0.210057
-0.874055
-1.68604
-2.67452
-3.86704
-5.28809
-6.95224
-8.85848
-10.9877
-13.2963
-15.7421
-18.2399
-20.7435
-23.2437
-25.7713
-28.4338
-31.3968
-34.8521
-38.967
-43.8375
-49.4611
-55.797
-62.7821
-70.3271
-78.2598
-86.2938
-94.0401
-101.063
-106.932
-111.271
-113.783
-114.284
-112.684
-109.022
-103.457
-96.3151
-88.0478
-79.1428
-70.1019
-61.3865
-53.3152
-46.0966
-39.865
-34.4846
-29.6903
-25.3998
-21.6974
-18.6145
-15.9844
-13.6064
-11.2959
-8.92356
-6.45664
-3.91576
-1.36432
1.06402
3.15458
4.80282
6.20649
7.68008
9.46106
11.5615
13.7826
15.8982
17.781
19.4012
20.7663
21.8878
22.7816
23.4783
24.0173
24.4319
24.743
24.9652
25.1149
25.2079
25.2561
25.2678
25.2499
25.2086
25.1493
25.076
24.9915
24.898
24.7976
24.6928
24.5859
24.4792
24.3742
24.2716
24.1716
24.0744
23.9797
23.8877
23.7979
23.7101
23.6241
23.5397
23.4569
23.3758
23.2966
23.2194
23.1443
23.0712
23.0003
22.9314
22.8645
22.7994
22.7361
22.6744
22.6143
22.5556
22.4983
22.4423
22.3874
22.3336
22.2809
22.229
22.178
22.1277
22.0781
22.0291
21.9805
21.9324
21.8847
21.8373
21.7902
21.7433
21.6966
21.6502
21.6038
21.5576
21.5114
21.4653
21.4192
21.3732
21.327
21.2808
21.2346
21.1882
21.1416
21.0949
21.048
21.001
20.9537
20.9062
20.8584
20.8104
20.7621
20.7135
20.6647
20.6155
20.566
20.5162
20.4658
20.4149
20.3633
20.3105
20.256
20.1991
20.1383
20.0715
19.9959
19.9072
19.8
19.6679
2.75317
2.70927
2.63459
2.55903
2.46998
2.36584
2.24068
2.09063
1.90914
1.69049
1.42831
1.1128
0.734418
0.281908
-0.248144
-0.897378
-1.68235
-2.63037
-3.7682
-5.11942
-6.70066
-8.51487
-10.5504
-12.775
-15.1452
-17.6071
-20.1126
-22.6416
-25.2132
-27.9009
-30.8328
-34.1762
-38.1009
-42.7356
-48.1307
-54.2606
-61.0464
-68.3655
-76.0338
-83.7825
-91.256
-98.0485
-103.75
-107.998
-110.507
-111.1
-109.684
-106.259
-100.994
-94.2108
-86.3527
-77.8895
-69.264
-60.9337
-53.224
-46.2607
-40.1745
-34.9735
-30.3567
-26.1024
-22.3225
-19.2216
-16.7222
-14.5666
-12.5154
-10.3749
-7.96919
-5.20118
-2.23966
0.554597
2.87332
4.58904
5.83901
7.00129
8.49961
10.5013
12.7977
15.0494
17.0291
18.6777
20.0342
21.1509
22.0619
22.7923
23.3707
23.8267
24.1808
24.4451
24.6326
24.7596
24.8401
24.8834
24.8958
24.8831
24.8502
24.8011
24.7388
24.6656
24.584
24.4963
24.4051
24.3126
24.2207
24.1304
24.0422
23.9557
23.8708
23.7874
23.7054
23.6249
23.5456
23.4674
23.3905
23.3149
23.2407
23.1682
23.0974
23.0284
22.9612
22.8958
22.8321
22.7699
22.7093
22.6502
22.5923
22.5358
22.4804
22.4261
22.3728
22.3205
22.269
22.2183
22.1684
22.1191
22.0703
22.0221
21.9742
21.9268
21.8796
21.8327
21.7861
21.7396
21.6934
21.6472
21.6012
21.5553
21.5094
21.4635
21.4176
21.3717
21.3257
21.2796
21.2335
21.1871
21.1407
21.094
21.0471
21
20.9526
20.905
20.8571
20.8088
20.7602
20.7113
20.6619
20.6121
20.5618
20.5109
20.4593
20.4067
20.353
20.2976
20.2399
20.1791
20.1135
20.0412
19.9594
19.8642
19.7509
19.6139
2.78789
2.75127
2.67791
2.59298
2.49422
2.38009
2.2462
2.08833
1.90107
1.67794
1.41103
1.09161
0.710702
0.258524
-0.276548
-0.912432
-1.66922
-2.57021
-3.63982
-4.90039
-6.3705
-8.05964
-9.96401
-12.0659
-14.3346
-16.7293
-19.2095
-21.7478
-24.3461
-27.045
-29.9288
-33.1188
-36.7554
-40.9675
-45.8399
-51.3877
-57.5555
-64.217
-71.1846
-78.2106
-84.9862
-91.1618
-96.3796
-100.316
-102.708
-103.385
-102.254
-99.2984
-94.671
-88.6673
-81.6868
-74.1657
-66.4676
-58.9765
-52.0429
-45.7377
-40.062
-35.1281
-30.7825
-26.7132
-22.9198
-19.7306
-17.2869
-15.3363
-13.5592
-11.7398
-9.67296
-7.1062
-3.97958
-0.668683
2.20762
4.23996
5.61061
6.79382
8.18828
10.0078
12.1723
14.3979
16.4129
18.0896
19.4422
20.5394
21.4376
22.17
22.7621
23.2393
23.6214
23.9193
24.1418
24.3021
24.4143
24.4889
24.532
24.548
24.5416
24.5168
24.4768
24.4243
24.3617
24.2917
24.2167
24.1389
24.0605
23.9827
23.9063
23.8311
23.7567
23.6827
23.609
23.536
23.4636
23.3919
23.321
23.251
23.1821
23.1144
23.0482
22.9834
22.9202
22.8584
22.798
22.739
22.6813
22.6247
22.5693
22.5149
22.4615
22.409
22.3574
22.3066
22.2565
22.2071
22.1583
22.11
22.0621
22.0147
21.9676
21.9208
21.8742
21.8279
21.7817
21.7357
21.6899
21.6441
21.5984
21.5528
21.5072
21.4615
21.4159
21.3701
21.3243
21.2784
21.2323
21.1861
21.1397
21.093
21.0461
20.999
20.9516
20.9038
20.8557
20.8073
20.7584
20.7091
20.6592
20.6088
20.5577
20.5058
20.4529
20.3988
20.343
20.2852
20.2245
20.16
20.0901
20.0129
19.9256
19.8248
19.7063
19.5653
2.72574
2.72067
2.69463
2.62299
2.52016
2.40073
2.2645
2.10722
1.92248
1.70259
1.43816
1.11914
0.735641
0.278347
-0.262019
-0.895988
-1.6362
-2.49804
-3.49959
-4.65997
-5.99802
-7.53007
-9.26416
-11.1986
-13.3187
-15.5979
-18.0054
-20.5137
-23.1099
-25.8056
-28.6432
-31.6946
-35.0524
-38.8137
-43.0563
-47.8163
-53.0723
-58.7348
-64.6495
-70.6069
-76.3533
-81.606
-86.0755
-89.4956
-91.6458
-92.3799
-91.6156
-89.3134
-85.5914
-80.6886
-74.9228
-68.677
-62.2567
-55.9342
-50.0343
-44.6335
-39.6041
-35.054
-31.0312
-27.2354
-23.5364
-20.2351
-17.6654
-15.7566
-14.1802
-12.6546
-10.9338
-8.7106
-5.79879
-2.42143
0.815874
3.32168
5.07805
6.54339
8.10256
9.88112
11.8485
13.8913
15.8246
17.4889
18.8432
19.9366
20.8304
21.5648
22.1661
22.6575
23.0586
23.3815
23.6346
23.8278
23.973
24.0798
24.1544
24.2008
24.2223
24.2227
24.2055
24.1737
24.1303
24.0781
24.0198
23.9575
23.8929
23.8278
23.7632
23.6994
23.6358
23.5717
23.5071
23.442
23.3769
23.3119
23.2473
23.1832
23.1199
23.0574
22.996
22.9358
22.8767
22.8188
22.762
22.7063
22.6515
22.5978
22.5449
22.4928
22.4415
22.3909
22.3411
22.2919
22.2432
22.1951
22.1475
22.1003
22.0534
22.0068
21.9605
21.9144
21.8685
21.8227
21.7771
21.7316
21.6862
21.6408
21.5955
21.5502
21.5048
21.4595
21.414
21.3685
21.3229
21.2771
21.2311
21.185
21.1386
21.092
21.0452
20.998
20.9505
20.9027
20.8544
20.8058
20.7566
20.7069
20.6566
20.6056
20.5537
20.5008
20.4467
20.3911
20.3335
20.2733
20.2099
20.142
20.0683
19.9866
19.8946
19.789
19.666
19.5215
2.71764
2.73875
2.73601
2.67093
2.55952
2.43269
2.29752
2.15146
1.98549
1.78577
1.53793
1.22861
0.845906
0.379959
-0.176524
-0.828334
-1.57867
-2.43106
-3.39155
-4.47046
-5.68283
-7.04769
-8.58451
-10.3081
-12.2239
-14.3251
-16.5948
-19.0117
-21.5574
-24.2253
-27.0258
-29.9889
-33.1599
-36.5916
-40.3299
-44.3993
-48.7882
-53.4388
-58.2431
-63.0483
-67.6665
-71.8893
-75.5041
-78.3135
-80.152
-80.9066
-80.5014
-78.8672
-76.0763
-72.3082
-67.7947
-62.8387
-57.7021
-52.5696
-47.692
-43.1794
-38.8516
-34.7233
-31.0128
-27.5617
-24.1064
-20.7763
-17.9634
-15.8686
-14.3542
-13.1224
-11.7546
-9.79391
-7.05523
-3.77402
-0.469506
2.2847
4.35364
6.12989
7.9462
9.79696
11.6276
13.4671
15.26
16.8635
18.1985
19.2908
20.1961
20.9507
21.5755
22.0902
22.5143
22.8616
23.1415
23.3638
23.5395
23.6771
23.7819
23.8573
23.9065
23.9325
23.9384
23.9272
23.9023
23.8672
23.8247
23.7771
23.726
23.6731
23.6197
23.5665
23.5133
23.459
23.4034
23.3464
23.2886
23.2305
23.1722
23.1141
23.0563
22.9991
22.9427
22.887
22.8322
22.7783
22.7251
22.6728
22.6211
22.5702
22.5198
22.4701
22.421