/*--------------------------------*- C++ -*----------------------------------*\
  =========                 |
  \\      /  F ield         | OpenFOAM: The Open Source CFD Toolbox
   \\    /   O peration     | Website:  https://openfoam.org
    \\  /    A nd           | Version:  9
     \\/     M anipulation  |
\*---------------------------------------------------------------------------*/
FoamFile
{
    format      ascii;
    class       surfaceScalarField;
    location    "0.018";
    object      phi_0;
}
// * * * * * * * * * * * * * * * * * * * * * * * * * * * * * * * * * * * * * //

dimensions      [0 3 -1 0 0 0 0];

internalField   nonuniform List<scalar> 
24170
(
3.09316e-06
1.17743e-07
2.94091e-06
1.52254e-07
2.81728e-06
1.23629e-07
2.73238e-06
8.48991e-08
2.67119e-06
6.1188e-08
2.61194e-06
5.925e-08
2.54376e-06
6.81827e-08
2.46789e-06
7.58648e-08
2.39085e-06
7.70389e-08
2.31654e-06
7.43186e-08
2.243e-06
7.3537e-08
2.16399e-06
7.90134e-08
2.07545e-06
8.85334e-08
1.97594e-06
9.95086e-08
1.8708e-06
1.05147e-07
1.76561e-06
1.0519e-07
1.65481e-06
1.10796e-07
1.30595e-07
1.52422e-06
3.45255e-06
7.59785e-08
3.46539e-06
1.39413e-07
3.43665e-06
1.52377e-07
3.41332e-06
1.08223e-07
3.40267e-06
7.18402e-08
3.39586e-06
6.60588e-08
3.38642e-06
7.76209e-08
3.3738e-06
8.84868e-08
3.36074e-06
9.00978e-08
3.35003e-06
8.50298e-08
3.34187e-06
8.16931e-08
3.33273e-06
8.81606e-08
3.31773e-06
1.03528e-07
3.29265e-06
1.24594e-07
3.25475e-06
1.43043e-07
3.20379e-06
1.56147e-07
3.1457e-06
1.68887e-07
1.95581e-07
3.08072e-06
3.68791e-06
4.69912e-08
3.72715e-06
1.00181e-07
3.74902e-06
1.30502e-07
3.76576e-06
9.14814e-08
3.76159e-06
7.60173e-08
3.73434e-06
9.33004e-08
3.69779e-06
1.14175e-07
3.66611e-06
1.20164e-07
3.64649e-06
1.09725e-07
3.64064e-06
9.08783e-08
3.64755e-06
7.47815e-08
3.66463e-06
7.10819e-08
3.68642e-06
8.17396e-08
3.70614e-06
1.04872e-07
3.71592e-06
1.3326e-07
3.71129e-06
1.6078e-07
3.69294e-06
1.87237e-07
2.18253e-07
3.67027e-06
3.95095e-06
9.37365e-08
3.96835e-06
8.27819e-08
4.00565e-06
9.32008e-08
4.01511e-06
8.20254e-08
4.00907e-06
8.2054e-08
4.00325e-06
9.912e-08
3.99911e-06
1.18318e-07
3.99068e-06
1.28591e-07
3.97523e-06
1.25173e-07
3.95551e-06
1.10601e-07
3.93717e-06
9.31265e-08
3.92546e-06
8.27857e-08
3.92233e-06
8.48714e-08
3.9267e-06
1.00508e-07
3.93385e-06
1.26108e-07
3.93913e-06
1.555e-07
3.9419e-06
1.84464e-07
2.1583e-07
3.94432e-06
4.28092e-06
2.898e-08
4.26083e-06
1.02875e-07
4.21788e-06
1.3615e-07
4.21899e-06
8.09158e-08
4.25941e-06
4.16307e-08
4.30195e-06
5.65871e-08
4.31672e-06
1.03545e-07
4.30084e-06
1.44472e-07
4.2706e-06
1.55411e-07
4.24295e-06
1.38245e-07
4.22521e-06
1.10867e-07
4.21652e-06
9.14755e-08
4.2128e-06
8.85962e-08
4.21093e-06
1.02382e-07
4.20936e-06
1.27676e-07
4.20736e-06
1.575e-07
4.20636e-06
1.85463e-07
2.13359e-07
4.20883e-06
4.51822e-06
-1.7407e-08
4.56456e-06
5.65322e-08
4.53088e-06
1.69831e-07
4.4786e-06
1.33201e-07
4.46837e-06
5.18602e-08
4.50005e-06
2.49022e-08
4.53979e-06
6.38095e-08
4.56e-06
1.2426e-07
4.554e-06
1.61414e-07
4.52943e-06
1.62815e-07
4.49764e-06
1.42651e-07
4.46797e-06
1.21147e-07
4.4453e-06
1.11266e-07
4.43156e-06
1.16121e-07
4.42689e-06
1.32344e-07
4.43033e-06
1.5406e-07
4.44173e-06
1.74064e-07
1.9274e-07
4.46235e-06
4.79904e-06
9.10204e-09
4.83756e-06
1.80157e-08
4.8891e-06
1.18287e-07
4.88819e-06
1.34115e-07
4.86019e-06
7.98556e-08
4.84383e-06
4.12711e-08
4.85379e-06
5.3846e-08
4.88084e-06
9.72088e-08
4.90898e-06
1.33279e-07
4.92671e-06
1.45076e-07
4.9294e-06
1.39969e-07
4.91819e-06
1.32351e-07
4.8981e-06
1.31355e-07
4.87574e-06
1.38481e-07
4.85729e-06
1.508e-07
4.84685e-06
1.64495e-07
4.84599e-06
1.74927e-07
1.82729e-07
4.856e-06
5.19752e-06
-2.20083e-08
5.18153e-06
3.40075e-08
5.16853e-06
1.31287e-07
5.16083e-06
1.41812e-07
5.14593e-06
9.47617e-08
5.13634e-06
5.08578e-08
5.14892e-06
4.12611e-08
5.18521e-06
6.09246e-08
5.23113e-06
8.73553e-08
5.26896e-06
1.07244e-07
5.28808e-06
1.20855e-07
5.28727e-06
1.33161e-07
5.2724e-06
1.46222e-07
5.25107e-06
1.59812e-07
5.23012e-06
1.71748e-07
5.21395e-06
1.80664e-07
5.20365e-06
1.85233e-07
1.85428e-07
5.20095e-06
5.60196e-06
2.53968e-08
5.61381e-06
2.21546e-08
5.57214e-06
1.72955e-07
5.52567e-06
1.88286e-07
5.50496e-06
1.1547e-07
5.50554e-06
5.02831e-08
5.51138e-06
3.54145e-08
5.51137e-06
6.0941e-08
5.5016e-06
9.71226e-08
5.48605e-06
1.22792e-07
5.47406e-06
1.32846e-07
5.47384e-06
1.33385e-07
5.48793e-06
1.32126e-07
5.51257e-06
1.35173e-07
5.53991e-06
1.44407e-07
5.56258e-06
1.57999e-07
5.57389e-06
1.73928e-07
1.86947e-07
5.57237e-06
6.01117e-06
-4.81442e-08
5.94863e-06
8.4689e-08
5.89934e-06
2.22245e-07
5.89128e-06
1.96344e-07
5.9008e-06
1.05953e-07
5.89634e-06
5.47433e-08
5.87356e-06
5.81995e-08
5.84509e-06
8.94036e-08
5.82477e-06
1.17443e-07
5.81958e-06
1.27986e-07
5.82958e-06
1.22843e-07
5.85058e-06
1.12387e-07
5.87678e-06
1.0592e-07
5.90393e-06
1.08026e-07
5.92877e-06
1.19564e-07
5.94953e-06
1.3724e-07
5.96497e-06
1.5849e-07
1.77849e-07
5.97407e-06
6.40736e-06
5.89905e-08
6.28587e-06
2.06181e-07
6.30311e-06
2.05004e-07
6.3684e-06
1.31052e-07
6.40162e-06
7.27389e-08
6.38873e-06
6.76327e-08
6.35023e-06
9.67023e-08
6.31246e-06
1.27169e-07
6.294e-06
1.35899e-07
6.30106e-06
1.20927e-07
6.32829e-06
9.56196e-08
6.36483e-06
7.58406e-08
6.39972e-06
7.103e-08
6.42586e-06
8.18869e-08
6.44092e-06
1.04512e-07
6.44666e-06
1.31499e-07
6.44659e-06
1.58557e-07
1.81209e-07
6.44323e-06
5.62216e-06
5.7078e-08
5.73694e-06
9.14026e-08
5.81715e-06
1.24791e-07
5.85348e-06
9.47209e-08
5.82914e-06
9.70829e-08
5.77343e-06
1.23344e-07
5.72762e-06
1.42509e-07
5.70977e-06
1.45024e-07
5.71379e-06
1.31875e-07
5.72596e-06
1.08754e-07
5.73783e-06
8.37558e-08
5.74834e-06
6.5329e-08
5.76004e-06
5.93243e-08
5.77479e-06
6.7142e-08
5.79215e-06
8.715e-08
5.80918e-06
1.14466e-07
5.82309e-06
1.4465e-07
1.7231e-07
5.83199e-06
7.05413e-06
8.96438e-08
6.97793e-06
1.67602e-07
6.95375e-06
1.48978e-07
6.92802e-06
1.20446e-07
6.89858e-06
1.26521e-07
6.89393e-06
1.27999e-07
6.92135e-06
1.15091e-07
6.96525e-06
1.01127e-07
7.00488e-06
9.22407e-08
7.0276e-06
8.60304e-08
7.03143e-06
7.99286e-08
7.02148e-06
7.5282e-08
7.00557e-06
7.5234e-08
6.99012e-06
8.25929e-08
6.97926e-06
9.80052e-08
6.97392e-06
1.19807e-07
6.97413e-06
1.44445e-07
1.6927e-07
6.97717e-06
8.43737e-06
1.20049e-07
8.45588e-06
1.491e-07
8.50504e-06
9.9819e-08
8.56423e-06
6.12493e-08
8.60864e-06
8.21091e-08
8.63158e-06
1.05064e-07
8.63976e-06
1.06907e-07
8.64056e-06
1.00332e-07
8.63578e-06
9.70153e-08
8.62475e-06
9.70612e-08
8.60863e-06
9.6051e-08
8.59096e-06
9.29501e-08
8.57603e-06
9.0163e-08
8.56673e-06
9.18995e-08
8.56382e-06
1.00907e-07
8.56672e-06
1.16908e-07
8.57285e-06
1.3832e-07
1.61031e-07
8.58109e-06
1.03075e-05
1.634e-07
1.02365e-05
2.20075e-07
1.02265e-05
1.09854e-07
1.02959e-05
-8.19333e-09
1.0407e-05
-2.89494e-08
1.04909e-05
2.11444e-08
1.05039e-05
9.38895e-08
1.04586e-05
1.45638e-07
1.03959e-05
1.59719e-07
1.03523e-05
1.40677e-07
1.03438e-05
1.04603e-07
1.03666e-05
7.01069e-08
1.0407e-05
4.98082e-08
1.04499e-05
4.89348e-08
1.0485e-05
6.58127e-08
1.05078e-05
9.413e-08
1.05186e-05
1.27474e-07
1.59199e-07
1.05205e-05
1.28692e-05
1.03272e-08
1.2839e-05
2.50221e-07
1.27912e-05
1.57706e-07
1.27755e-05
7.46932e-09
1.28048e-05
-5.82558e-08
1.28448e-05
-1.88581e-08
1.28448e-05
9.39383e-08
1.27993e-05
1.91093e-07
1.27449e-05
2.14109e-07
1.27147e-05
1.70886e-07
1.27187e-05
1.00622e-07
1.27471e-05
4.17108e-08
1.27816e-05
1.52812e-08
1.28077e-05
2.2896e-08
1.28193e-05
5.41537e-08
1.28189e-05
9.46086e-08
1.28128e-05
1.33527e-07
1.62928e-07
1.28091e-05
1.5317e-05
-2.98103e-08
1.54244e-05
1.4277e-07
1.54908e-05
9.12967e-08
1.55048e-05
-6.46889e-09
1.54923e-05
-4.57705e-08
1.5467e-05
6.44931e-09
1.54711e-05
8.97644e-08
1.55214e-05
1.40829e-07
1.55991e-05
1.36449e-07
1.56763e-05
9.36128e-08
1.57333e-05
4.3639e-08
1.57634e-05
1.16469e-08
1.57702e-05
8.46151e-09
1.57614e-05
3.16612e-08
1.57442e-05
7.1381e-08
1.5724e-05
1.14798e-07
1.57051e-05
1.52476e-07
1.77555e-07
1.56904e-05
1.86225e-05
3.35302e-09
1.8646e-05
1.19219e-07
1.86677e-05
6.96533e-08
1.86747e-05
-1.35276e-08
1.86711e-05
-4.21373e-08
1.8721e-05
-4.3431e-08
1.88357e-05
-2.49998e-08
1.89739e-05
2.65691e-09
1.90855e-05
2.48289e-08
1.91446e-05
3.4508e-08
1.91528e-05
3.54406e-08
1.91284e-05
3.61164e-08
1.90912e-05
4.55966e-08
1.90552e-05
6.7695e-08
1.90278e-05
9.88189e-08
1.90112e-05
1.31331e-07
1.90053e-05
1.58374e-07
1.73662e-07
1.90092e-05
2.2699e-05
-1.29189e-07
2.29931e-05
-1.74886e-07
2.3124e-05
-6.12629e-08
2.31482e-05
-3.76822e-08
2.31623e-05
-5.62224e-08
2.31708e-05
-5.19973e-08
2.31651e-05
-1.92901e-08
2.31484e-05
1.93944e-08
2.31326e-05
4.06451e-08
2.31273e-05
3.9815e-08
2.31373e-05
2.54417e-08
2.31583e-05
1.50653e-08
2.31835e-05
2.0379e-08
2.32084e-05
4.28246e-08
2.32315e-05
7.56726e-08
2.32541e-05
1.08749e-07
2.32782e-05
1.34308e-07
1.47035e-07
2.33048e-05
1.67334e-05
-1.54677e-07
1.67226e-05
-1.64072e-07
1.67402e-05
-7.88524e-08
1.67585e-05
-5.59439e-08
1.67705e-05
-6.82155e-08
1.67782e-05
-5.97627e-08
1.67861e-05
-2.71187e-08
1.67965e-05
8.99347e-09
1.68132e-05
2.38858e-08
1.6837e-05
1.60616e-08
1.68676e-05
-5.20641e-09
1.69026e-05
-1.9869e-08
1.69408e-05
-1.78672e-08
1.69822e-05
1.462e-09
1.70253e-05
3.25155e-08
1.70703e-05
6.3729e-08
1.71153e-05
8.93612e-08
1.05703e-07
1.71566e-05
1.47098e-05
-1.17269e-07
1.47076e-05
-1.6188e-07
1.47099e-05
-8.11852e-08
1.46397e-05
1.42526e-08
1.4545e-05
2.65398e-08
1.45033e-05
-1.81364e-08
1.45336e-05
-5.74192e-08
1.45994e-05
-5.67962e-08
1.4651e-05
-2.76839e-08
1.46637e-05
3.34697e-09
1.46418e-05
1.67367e-08
1.4609e-05
1.29242e-08
1.45913e-05
-1.41579e-10
1.46058e-05
-1.31002e-08
1.46552e-05
-1.68994e-08
1.47291e-05
-1.01632e-08
1.48143e-05
4.16209e-09
2.5039e-08
1.4895e-05
1.29285e-05
3.46253e-09
1.28929e-05
-1.26275e-07
1.29325e-05
-1.20819e-07
1.29868e-05
-4.00301e-08
1.30173e-05
-3.95208e-09
1.30028e-05
-3.68691e-09
1.29544e-05
-9.02009e-09
1.28997e-05
-2.09002e-09
1.28583e-05
1.37199e-08
1.2834e-05
2.76565e-08
1.28191e-05
3.16065e-08
1.28065e-05
2.55706e-08
1.27931e-05
1.32528e-08
1.278e-05
-2.8865e-11
1.27723e-05
-9.17373e-09
1.27746e-05
-1.24356e-08
1.2788e-05
-9.29438e-09
1.14133e-09
1.28119e-05
1.10574e-05
3.78627e-08
1.10327e-05
-1.01592e-07
1.10218e-05
-1.09891e-07
1.10795e-05
-9.78071e-08
1.11292e-05
-5.36465e-08
1.11258e-05
-2.83994e-10
1.10889e-05
2.7868e-08
1.10596e-05
2.72601e-08
1.1056e-05
1.73437e-08
1.10724e-05
1.12545e-08
1.10952e-05
8.77979e-09
1.11163e-05
4.41577e-09
1.11366e-05
-6.96089e-09
1.11584e-05
-2.1823e-08
1.11838e-05
-3.46349e-08
1.12119e-05
-4.04851e-08
1.12401e-05
-3.75768e-08
-2.50598e-08
1.12664e-05
9.492e-06
6.97972e-08
9.54395e-06
-1.53535e-07
9.54802e-06
-1.13963e-07
9.54293e-06
-9.27205e-08
9.56734e-06
-7.80568e-08
9.6148e-06
-4.77457e-08
9.65997e-06
-1.72998e-08
9.68776e-06
-5.27439e-10
9.69876e-06
6.34029e-09
9.70144e-06
8.57181e-09
9.70482e-06
5.40384e-09
9.71361e-06
-4.37788e-09
9.72676e-06
-2.01114e-08
9.7423e-06
-3.73602e-08
9.75795e-06
-5.02802e-08
9.7725e-06
-5.50423e-08
9.78592e-06
-5.09915e-08
-3.87605e-08
9.79962e-06
8.4892e-06
-1.54296e-07
8.56531e-06
-2.29644e-07
8.55078e-06
-9.94369e-08
8.50939e-06
-5.13293e-08
8.47973e-06
-4.83895e-08
8.46947e-06
-3.74911e-08
8.46303e-06
-1.08619e-08
8.45087e-06
1.16367e-08
8.43669e-06
2.0517e-08
8.429e-06
1.62635e-08
8.43221e-06
2.19856e-09
8.44707e-06
-1.92448e-08
8.46785e-06
-4.08922e-08
8.48824e-06
-5.77428e-08
8.50429e-06
-6.63347e-08
8.51549e-06
-6.62437e-08
8.5236e-06
-5.91023e-08
-4.73417e-08
8.53218e-06
7.4233e-06
-1.83011e-07
7.38947e-06
-1.95821e-07
7.39268e-06
-1.0264e-07
7.39751e-06
-5.61566e-08
7.3928e-06
-4.36883e-08
7.38355e-06
-2.8234e-08
7.37916e-06
-6.47239e-09
7.38542e-06
5.37377e-09
7.40455e-06
1.38626e-09
7.43333e-06
-1.25169e-08
7.46531e-06
-2.97761e-08
7.49148e-06
-4.54174e-08
7.50715e-06
-5.65638e-08
7.51201e-06
-6.2602e-08
7.50999e-06
-6.43106e-08
7.5063e-06
-6.25541e-08
7.50557e-06
-5.83799e-08
-5.21582e-08
7.51039e-06
6.40019e-06
-1.81676e-07
6.36379e-06
-1.59421e-07
6.33527e-06
-7.41244e-08
6.32923e-06
-5.01109e-08
6.33473e-06
-4.91926e-08
6.35105e-06
-4.45556e-08
6.37929e-06
-3.47112e-08
6.41265e-06
-2.79856e-08
6.44279e-06
-2.87538e-08
6.46598e-06
-3.57061e-08
6.48128e-06
-4.50747e-08
6.48875e-06
-5.28885e-08
6.48846e-06
-5.62729e-08
6.48057e-06
-5.47121e-08
6.46637e-06
-5.01149e-08
6.44829e-06
-4.4469e-08
6.42964e-06
-3.97276e-08
-3.65862e-08
6.41406e-06
5.56125e-06
-7.20249e-08
5.50301e-06
-1.01176e-07
5.52216e-06
-9.3279e-08
5.54887e-06
-7.68166e-08
5.55954e-06
-5.98636e-08
5.56095e-06
-4.5971e-08
5.56628e-06
-4.00369e-08
5.58069e-06
-4.24e-08
5.60008e-06
-4.81366e-08
5.61656e-06
-5.21872e-08
5.62374e-06
-5.22614e-08
5.61961e-06
-4.87552e-08
5.60688e-06
-4.35416e-08
5.59135e-06
-3.91811e-08
5.57842e-06
-3.71865e-08
5.57127e-06
-3.73173e-08
5.57004e-06
-3.84948e-08
-3.9345e-08
5.57279e-06
4.9097e-06
-3.07323e-08
4.89193e-06
-8.33981e-08
4.92348e-06
-1.24835e-07
4.93377e-06
-8.71015e-08
4.9205e-06
-4.65928e-08
4.90082e-06
-2.62985e-08
4.88522e-06
-2.44343e-08
4.87546e-06
-3.26432e-08
4.87128e-06
-4.39548e-08
4.87339e-06
-5.42999e-08
4.88173e-06
-6.05979e-08
4.8938e-06
-6.08215e-08
4.9053e-06
-5.50425e-08
4.9122e-06
-4.6084e-08
4.91264e-06
-3.76267e-08
4.90724e-06
-3.1921e-08
4.8985e-06
-2.97529e-08
-3.04247e-08
4.88958e-06
4.13568e-06
4.05228e-06
3.92744e-06
3.84034e-06
3.79375e-06
3.76745e-06
3.74302e-06
3.71037e-06
3.66642e-06
3.61212e-06
3.55152e-06
3.4907e-06
3.43566e-06
3.38957e-06
3.35195e-06
3.32002e-06
3.29027e-06
3.25985e-06
1.87761e-07
-1.87761e-07
4.44184e-07
-2.56423e-07
7.09254e-07
-2.6507e-07
9.74478e-07
-2.65224e-07
1.24053e-06
-2.66048e-07
1.50851e-06
-2.67984e-07
1.77848e-06
-2.69971e-07
2.04905e-06
-2.70567e-07
2.3172e-06
-2.68152e-07
2.57815e-06
-2.60947e-07
2.82509e-06
-2.46939e-07
3.04918e-06
-2.24096e-07
3.24028e-06
-1.91102e-07
3.38778e-06
-1.47495e-07
3.48119e-06
-9.34137e-08
3.51007e-06
-2.88773e-08
3.46216e-06
4.79143e-08
3.33317e-06
1.28984e-07
3.13293e-06
2.00246e-07
2.8892e-06
2.43722e-07
2.63298e-06
2.5622e-07
2.39611e-06
2.36872e-07
2.18152e-06
2.14595e-07
1.97197e-06
2.09548e-07
1.7235e-06
2.48468e-07
1.33231e-06
3.91196e-07
6.2754e-07
7.04767e-07
-4.07542e-07
1.03508e-06
-1.59939e-06
1.19184e-06
-2.79646e-06
1.19708e-06
-3.92169e-06
1.12523e-06
-4.94915e-06
1.02746e-06
-5.87838e-06
9.29225e-07
-6.71492e-06
8.36547e-07
-7.46657e-06
7.51644e-07
-8.14098e-06
6.74416e-07
-8.74479e-06
6.03809e-07
-9.28308e-06
5.38282e-07
-9.75936e-06
4.76284e-07
-1.01757e-05
4.16373e-07
-1.05331e-05
3.57369e-07
-1.08316e-05
2.98468e-07
-1.10708e-05
2.39277e-07
-1.12506e-05
1.79771e-07
-1.13709e-05
1.20269e-07
-1.14324e-05
6.15488e-08
-1.14369e-05
4.47259e-09
-1.13892e-05
-4.77064e-08
-1.12922e-05
-9.69884e-08
-1.115e-05
-1.42194e-07
-1.09669e-05
-1.83085e-07
-1.07473e-05
-2.19668e-07
-1.04956e-05
-2.51663e-07
-1.02165e-05
-2.79106e-07
-9.91447e-06
-3.0203e-07
-9.59373e-06
-3.20739e-07
-9.25815e-06
-3.35577e-07
-8.91115e-06
-3.47004e-07
-8.55566e-06
-3.55492e-07
-8.1941e-06
-3.61554e-07
-7.82829e-06
-3.65815e-07
-7.45923e-06
-3.69061e-07
-7.08696e-06
-3.72268e-07
-6.71042e-06
-3.76543e-07
-6.3274e-06
-3.83018e-07
-5.93484e-06
-3.9256e-07
-5.5294e-06
-4.05435e-07
-5.10836e-06
-4.2104e-07
-4.67046e-06
-4.37903e-07
-4.21645e-06
-4.54009e-07
-3.74917e-06
-4.67284e-07
-3.27305e-06
-4.76117e-07
-2.79337e-06
-4.79679e-07
-2.31558e-06
-4.77795e-07
-1.84488e-06
-4.70697e-07
-1.38596e-06
-4.5892e-07
-9.42728e-07
-4.4323e-07
-5.18411e-07
-4.24317e-07
-1.15633e-07
-4.02778e-07
2.6429e-07
-3.79923e-07
6.20638e-07
-3.56349e-07
9.52978e-07
-3.3234e-07
1.26145e-06
-3.08474e-07
1.54661e-06
-2.85156e-07
1.80926e-06
-2.62653e-07
2.05039e-06
-2.41131e-07
2.27109e-06
-2.20696e-07
2.47251e-06
-2.01417e-07
2.65585e-06
-1.83344e-07
2.82236e-06
-1.66512e-07
2.9733e-06
-1.5094e-07
3.10992e-06
-1.36624e-07
3.23346e-06
-1.23535e-07
3.34508e-06
-1.11621e-07
3.44589e-06
-1.00806e-07
3.53689e-06
-9.10025e-08
3.619e-06
-8.21135e-08
3.69304e-06
-7.40392e-08
3.75972e-06
-6.66815e-08
3.81967e-06
-5.99461e-08
3.87341e-06
-5.37433e-08
3.9214e-06
-4.79909e-08
3.96402e-06
-4.26123e-08
4.00156e-06
-3.75425e-08
4.03429e-06
-3.27273e-08
4.06241e-06
-2.81205e-08
4.08611e-06
-2.37053e-08
4.10556e-06
-1.94506e-08
4.12093e-06
-1.53702e-08
4.13241e-06
-1.14793e-08
4.14015e-06
-7.73878e-09
4.1444e-06
-4.24855e-09
4.14535e-06
-9.48387e-10
4.14304e-06
2.30403e-09
4.1377e-06
5.33782e-09
4.12972e-06
7.98461e-09
4.11949e-06
1.02293e-08
4.10739e-06
1.21032e-08
4.09377e-06
1.36166e-08
4.07899e-06
1.47822e-08
4.06332e-06
1.56643e-08
4.04702e-06
1.63069e-08
4.03029e-06
1.67315e-08
4.01331e-06
1.69726e-08
3.99625e-06
1.7065e-08
3.97921e-06
1.70342e-08
3.96231e-06
1.69069e-08
3.9456e-06
1.67044e-08
3.92916e-06
1.64463e-08
3.91301e-06
1.61509e-08
3.89717e-06
1.58311e-08
3.88168e-06
1.54967e-08
3.86652e-06
1.51572e-08
3.8517e-06
1.48233e-08
3.83719e-06
1.45027e-08
3.823e-06
1.41977e-08
3.80909e-06
1.39069e-08
3.79546e-06
1.36323e-08
3.78208e-06
1.3382e-08
3.76891e-06
1.31657e-08
3.75593e-06
1.29848e-08
3.7431e-06
1.28269e-08
3.73043e-06
1.26697e-08
3.71794e-06
1.24909e-08
3.70566e-06
1.22798e-08
3.69362e-06
1.20405e-08
3.68183e-06
1.17889e-08
3.67028e-06
1.15447e-08
3.65896e-06
1.13238e-08
3.64782e-06
1.11354e-08
3.63684e-06
1.09818e-08
3.62598e-06
1.08613e-08
3.61521e-06
1.07702e-08
3.60451e-06
1.07054e-08
3.59384e-06
1.06646e-08
3.58319e-06
1.06474e-08
3.57254e-06
1.06537e-08
3.56185e-06
1.06856e-08
3.55111e-06
1.0745e-08
3.54027e-06
1.08359e-08
3.52931e-06
1.0964e-08
3.51818e-06
1.11337e-08
3.50681e-06
1.13614e-08
3.49517e-06
1.16429e-08
3.48314e-06
1.20298e-08
3.47067e-06
1.24751e-08
3.45753e-06
1.3142e-08
3.4437e-06
1.38229e-08
3.42867e-06
1.50326e-08
3.41265e-06
1.6018e-08
3.39426e-06
1.83889e-08
3.37461e-06
1.96538e-08
3.34984e-06
2.47726e-08
3.32395e-06
2.58823e-08
3.28581e-06
3.81433e-08
3.24843e-06
3.73849e-08
3.17819e-06
7.02396e-08
3.11404e-06
6.41476e-08
2.94153e-06
1.72512e-07
1.7618e-07
2.76535e-06
1.80505e-07
-3.68266e-07
3.61275e-07
-4.37192e-07
5.39284e-07
-4.43079e-07
7.22652e-07
-4.48592e-07
9.14358e-07
-4.57754e-07
1.11453e-06
-4.68159e-07
1.32217e-06
-4.77612e-07
1.53502e-06
-4.83415e-07
1.74976e-06
-4.82886e-07
1.96158e-06
-4.72769e-07
2.16377e-06
-4.49134e-07
2.34809e-06
-4.08414e-07
2.50694e-06
-3.49948e-07
2.63461e-06
-2.75169e-07
2.72448e-06
-1.83287e-07
2.76472e-06
-6.91125e-08
2.74197e-06
7.06677e-08
2.64822e-06
2.22728e-07
2.482e-06
3.66471e-07
2.22763e-06
4.98092e-07
1.86114e-06
6.22707e-07
1.34063e-06
7.57382e-07
6.22931e-07
9.32294e-07
-3.48578e-07
1.18106e-06
-1.55383e-06
1.45372e-06
-2.83998e-06
1.67734e-06
-3.98426e-06
1.84905e-06
-4.91384e-06
1.96466e-06
-5.69721e-06
1.97522e-06
-6.39893e-06
1.89879e-06
-7.04468e-06
1.77098e-06
-7.64264e-06
1.62542e-06
-8.1929e-06
1.47948e-06
-8.69848e-06
1.34213e-06
-9.16278e-06
1.21594e-06
-9.58876e-06
1.10039e-06
-9.97803e-06
9.93078e-07
-1.03314e-05
8.91638e-07
-1.0649e-05
7.93929e-07
-1.09295e-05
6.96844e-07
-1.11707e-05
5.98607e-07
-1.13706e-05
4.98345e-07
-1.15272e-05
3.95897e-07
-1.16391e-05
2.91684e-07
-1.17054e-05
1.86522e-07
-1.17256e-05
8.17077e-08
-1.16994e-05
-2.16628e-08
-1.1626e-05
-1.21107e-07
-1.15069e-05
-2.16127e-07
-1.13443e-05
-3.04793e-07
-1.11417e-05
-3.85715e-07
-1.09035e-05
-4.5782e-07
-1.06345e-05
-5.20643e-07
-1.03396e-05
-5.74061e-07
-1.00232e-05
-6.1838e-07
-9.68978e-06
-6.54176e-07
-9.34308e-06
-6.82273e-07
-8.98647e-06
-7.03612e-07
-8.62279e-06
-7.19175e-07
-8.25437e-06
-7.29979e-07
-7.88298e-06
-7.37204e-07
-7.50964e-06
-7.42394e-07
-7.13439e-06
-7.47523e-07
-6.756e-06
-7.54929e-07
-6.37197e-06
-7.67047e-07
-5.97863e-06
-7.85905e-07
-5.57168e-06
-8.12387e-07
-5.14732e-06
-8.45395e-07
-4.70361e-06
-8.81613e-07
-4.24113e-06
-9.16486e-07
-3.76308e-06
-9.45342e-07
-3.27465e-06
-9.64543e-07
-2.78192e-06
-9.7241e-07
-2.29089e-06
-9.68824e-07
-1.80714e-06
-9.54445e-07
-1.33557e-06
-9.3049e-07
-8.80529e-07
-8.98275e-07
-4.45421e-07
-8.59425e-07
-3.30968e-08
-8.15102e-07
3.57588e-07
-7.70608e-07
7.23348e-07
-7.22108e-07
1.06454e-06
-6.73529e-07
1.38168e-06
-6.25621e-07
1.67561e-06
-5.7908e-07
1.94737e-06
-5.34412e-07
2.19817e-06
-4.91936e-07
2.42931e-06
-4.51834e-07
2.64209e-06
-4.14199e-07
2.83781e-06
-3.79066e-07
3.01774e-06
-3.46442e-07
3.18311e-06
-3.16309e-07
3.33512e-06
-2.88628e-07
3.47491e-06
-2.63326e-07
3.60359e-06
-2.40298e-07
3.72219e-06
-2.19408e-07
3.83168e-06
-2.00492e-07
3.93293e-06
-1.83372e-07
4.02676e-06
-1.67863e-07
4.11386e-06
-1.53781e-07
4.19486e-06
-1.40946e-07
4.2703e-06
-1.29187e-07
4.34065e-06
-1.18339e-07
4.40629e-06
-1.08252e-07
4.46754e-06
-9.8789e-08
4.52464e-06
-8.98327e-08
4.57781e-06
-8.12877e-08
4.62719e-06
-7.30837e-08
4.67291e-06
-6.51749e-08
4.71508e-06
-5.75423e-08
4.75379e-06
-5.0187e-08
4.78917e-06
-4.31207e-08
4.8213e-06
-3.6372e-08
4.85035e-06
-3.00022e-08
4.87669e-06
-2.40389e-08
4.90051e-06
-1.84802e-08
4.92185e-06
-1.33549e-08
4.94079e-06
-8.71057e-09
4.95743e-06
-4.53445e-09
4.97185e-06
-8.0343e-10
4.98422e-06
2.41471e-09
4.99462e-06
5.25965e-09
5.00321e-06
7.71636e-09
5.01013e-06
9.81059e-09
5.01552e-06
1.1588e-08
5.0195e-06
1.30847e-08
5.0222e-06
1.43312e-08
5.02374e-06
1.53651e-08
5.02423e-06
1.62127e-08
5.02378e-06
1.69015e-08
5.02247e-06
1.74593e-08
5.02039e-06
1.79063e-08
5.01763e-06
1.82602e-08
5.01425e-06
1.85379e-08
5.01032e-06
1.87558e-08
5.00589e-06
1.89269e-08
5.00103e-06
1.90596e-08
4.99578e-06
1.91592e-08
4.99018e-06
1.92331e-08
4.98427e-06
1.92929e-08
4.97808e-06
1.93493e-08
4.97166e-06
1.9405e-08
4.96504e-06
1.94508e-08
4.95824e-06
1.94708e-08
4.95128e-06
1.94509e-08
4.94417e-06
1.93863e-08
4.93693e-06
1.92827e-08
4.92957e-06
1.91527e-08
4.9221e-06
1.90103e-08
4.91456e-06
1.88684e-08
4.90695e-06
1.87381e-08
4.89931e-06
1.86297e-08
4.89161e-06
1.85529e-08
4.88387e-06
1.8516e-08
4.87605e-06
1.8525e-08
4.86813e-06
1.85824e-08
4.86009e-06
1.86878e-08
4.8519e-06
1.88402e-08
4.84355e-06
1.90367e-08
4.83502e-06
1.92804e-08
4.82628e-06
1.9569e-08
4.81733e-06
1.99188e-08
4.80814e-06
2.03229e-08
4.79867e-06
2.08269e-08
4.78892e-06
2.13989e-08
4.77879e-06
2.21587e-08
4.76828e-06
2.29851e-08
4.75722e-06
2.42024e-08
4.74563e-06
2.54119e-08
4.73316e-06
2.7507e-08
4.71992e-06
2.92572e-08
4.70514e-06
3.31603e-08
4.68921e-06
3.55847e-08
4.67046e-06
4.35288e-08
4.64976e-06
4.6577e-08
4.62354e-06
6.43702e-08
4.59308e-06
6.78377e-08
4.55077e-06
1.12548e-07
4.49522e-06
1.19706e-07
4.42003e-06
2.47698e-07
2.86798e-07
4.30941e-06
9.42997e-08
-4.62566e-07
1.63281e-07
-5.06173e-07
2.35601e-07
-5.15399e-07
3.15512e-07
-5.28504e-07
4.03281e-07
-5.45523e-07
4.9746e-07
-5.62339e-07
5.96111e-07
-5.76263e-07
6.96579e-07
-5.83883e-07
7.9586e-07
-5.82166e-07
8.89422e-07
-5.66331e-07
9.6952e-07
-5.29232e-07
1.02517e-06
-4.64068e-07
1.04335e-06
-3.68122e-07
1.01058e-06
-2.42402e-07
9.14345e-07
-8.70509e-08
7.45169e-07
1.00064e-07
4.97021e-07
3.18815e-07
1.62138e-07
5.57611e-07
-2.80406e-07
8.09016e-07
-8.465e-07
1.06418e-06
-1.54481e-06
1.32102e-06
-2.36246e-06
1.57504e-06
-3.25065e-06
1.82048e-06
-4.12025e-06
2.05066e-06
-4.91705e-06
2.25052e-06
-5.62877e-06
2.38906e-06
-6.23393e-06
2.45421e-06
-6.71245e-06
2.44318e-06
-7.10341e-06
2.36618e-06
-7.45357e-06
2.24895e-06
-7.79547e-06
2.11288e-06
-8.14326e-06
1.97321e-06
-8.50009e-06
1.83631e-06
-8.86375e-06
1.7058e-06
-9.22926e-06
1.58145e-06
-9.59029e-06
1.46142e-06
-9.94012e-06
1.34291e-06
-1.02717e-05
1.22319e-06
-1.05777e-05
1.09997e-06
-1.08522e-05
9.71328e-07
-1.10898e-05
8.36174e-07
-1.12857e-05
6.94293e-07
-1.14362e-05
5.46336e-07
-1.15382e-05
3.93727e-07
-1.15899e-05
2.38189e-07
-1.1589e-05
8.08263e-08
-1.15376e-05
-7.30305e-08
-1.14384e-05
-2.20274e-07
-1.12936e-05
-3.61007e-07
-1.11068e-05
-4.91607e-07
-1.08827e-05
-6.09782e-07
-1.06265e-05
-7.14056e-07
-1.03433e-05
-8.03792e-07
-1.00384e-05
-8.79011e-07
-9.71638e-06
-9.4035e-07
-9.38169e-06
-9.8887e-07
-9.03799e-06
-1.02597e-06
-8.68842e-06
-1.05318e-06
-8.33553e-06
-1.07207e-06
-7.98137e-06
-1.08414e-06
-7.62749e-06
-1.09108e-06
-7.27479e-06
-1.0951e-06
-6.92309e-06
-1.09922e-06
-6.57084e-06
-1.10718e-06
-6.21475e-06
-1.12314e-06
-5.84985e-06
-1.1508e-06
-5.47e-06
-1.19224e-06
-5.06902e-06
-1.24638e-06
-4.64271e-06
-1.30792e-06
-4.19055e-06
-1.36865e-06
-3.71607e-06
-1.41983e-06
-3.22632e-06
-1.45429e-06
-2.72971e-06
-1.46902e-06
-2.2338e-06
-1.46474e-06
-1.74483e-06
-1.44341e-06
-1.26824e-06
-1.40708e-06
-8.08526e-07
-1.35799e-06
-3.69368e-07
-1.29858e-06
4.73111e-08
-1.23178e-06
4.38208e-07
-1.16151e-06
8.03905e-07
-1.08781e-06
1.14391e-06
-1.01353e-06
1.45854e-06
-9.4025e-07
1.74849e-06
-8.69031e-07
2.01472e-06
-8.00641e-07
2.25842e-06
-7.35639e-07
2.48105e-06
-6.74462e-07
2.68429e-06
-6.17438e-07
2.86998e-06
-5.64757e-07
3.03999e-06
-5.16447e-07
3.19606e-06
-4.72381e-07
3.33975e-06
-4.32318e-07
3.47238e-06
-3.95956e-07
3.59506e-06
-3.62977e-07
3.70872e-06
-3.33073e-07
3.81419e-06
-3.05959e-07
3.91219e-06
-2.81371e-07
4.00339e-06
-2.59059e-07
4.08839e-06
-2.38785e-07
4.16776e-06
-2.20316e-07
4.24199e-06
-2.03423e-07
4.31154e-06
-1.87882e-07
4.37676e-06
-1.73476e-07
4.43798e-06
-1.60006e-07
4.49544e-06
-1.47291e-07
4.54934e-06
-1.35186e-07
4.59983e-06
-1.23576e-07
4.64704e-06
-1.12387e-07
4.69108e-06
-1.01579e-07
4.73203e-06
-9.11425e-08
4.77001e-06
-8.11001e-08
4.80512e-06
-7.1479e-08
4.83744e-06
-6.23216e-08
4.86708e-06
-5.36831e-08
4.89419e-06
-4.55902e-08
4.9189e-06
-3.80666e-08
4.94134e-06
-3.11457e-08
4.96163e-06
-2.48255e-08
4.97993e-06
-1.91062e-08
4.99634e-06
-1.3993e-08
5.011e-06
-9.40103e-09
5.02402e-06
-5.30076e-09
5.03549e-06
-1.6656e-09
5.04552e-06
1.56388e-09
5.05419e-06
4.41402e-09
5.06159e-06
6.92741e-09
5.06781e-06
9.15256e-09
5.07291e-06
1.11089e-08
5.07698e-06
1.28329e-08
5.08008e-06
1.43562e-08
5.08229e-06
1.57014e-08
5.08365e-06
1.68907e-08
5.08425e-06
1.79444e-08
5.08412e-06
1.88811e-08
5.08333e-06
1.9717e-08
5.08193e-06
2.04649e-08
5.07995e-06
2.11336e-08
5.07745e-06
2.1733e-08
5.07447e-06
2.22753e-08
5.07105e-06
2.2772e-08
5.06722e-06
2.32285e-08
5.06303e-06
2.36411e-08
5.0585e-06
2.4001e-08
5.05365e-06
2.43009e-08
5.0485e-06
2.45412e-08
5.04305e-06
2.47292e-08
5.03733e-06
2.48764e-08
5.03135e-06
2.49944e-08
5.02512e-06
2.5093e-08
5.01868e-06
2.51817e-08
5.01204e-06
2.52714e-08
5.00521e-06
2.53747e-08
4.99822e-06
2.5505e-08
4.99108e-06
2.56727e-08
4.98377e-06
2.58859e-08
4.97631e-06
2.6147e-08
4.96869e-06
2.64594e-08
4.96091e-06
2.68199e-08
4.95296e-06
2.7237e-08
4.94482e-06
2.77052e-08
4.93649e-06
2.82513e-08
4.92795e-06
2.88609e-08
4.91917e-06
2.96019e-08
4.91015e-06
3.04243e-08
4.90081e-06
3.14926e-08
4.89115e-06
3.26486e-08
4.88106e-06
3.42978e-08
4.87049e-06
3.59788e-08
4.85929e-06
3.87102e-08
4.84734e-06
4.12065e-08
4.83443e-06
4.60639e-08
4.82019e-06
4.9827e-08
4.80457e-06
5.91471e-08
4.78614e-06
6.50065e-08
4.76604e-06
8.44677e-08
4.73904e-06
9.48461e-08
4.71199e-06
1.39592e-07
4.66737e-06
1.64324e-07
4.63783e-06
2.77244e-07
3.52158e-07
4.57247e-06
-8.45121e-09
-4.54115e-07
-3.63325e-08
-4.78292e-07
-6.31797e-08
-4.88552e-07
-9.16306e-08
-5.00053e-07
-1.23691e-07
-5.13463e-07
-1.62282e-07
-5.23747e-07
-2.10434e-07
-5.28112e-07
-2.71656e-07
-5.22661e-07
-3.5124e-07
-5.02582e-07
-4.56213e-07
-4.61359e-07
-5.9304e-07
-3.92405e-07
-7.67201e-07
-2.89908e-07
-9.84485e-07
-1.50838e-07
-1.25279e-06
2.59026e-08
-1.56379e-06
2.23947e-07
-1.9205e-06
4.5678e-07
-2.32147e-06
7.19781e-07
-2.76795e-06
1.00409e-06
-3.25788e-06
1.29894e-06
-3.78616e-06
1.59247e-06
-4.33915e-06
1.87401e-06
-4.89638e-06
2.13226e-06
-5.43222e-06
2.35631e-06
-5.91673e-06
2.53518e-06
-6.32758e-06
2.66136e-06
-6.66898e-06
2.73046e-06
-6.9536e-06
2.73883e-06
-7.20191e-06
2.69148e-06
-7.43816e-06
2.60244e-06
-7.67911e-06
2.4899e-06
-7.93445e-06
2.36822e-06
-8.2072e-06
2.24597e-06
-8.49708e-06
2.12619e-06
-8.80029e-06
2.009e-06
-9.11072e-06
1.89188e-06
-9.42097e-06
1.77167e-06
-9.72332e-06
1.64526e-06
-1.00102e-05
1.5101e-06
-1.02745e-05
1.36423e-06
-1.05096e-05
1.20643e-06
-1.07097e-05
1.03629e-06
-1.08696e-05
8.54204e-07
-1.09847e-05
6.61414e-07
-1.10515e-05
4.60559e-07
-1.10687e-05
2.55331e-07
-1.10376e-05
4.97277e-08
-1.09544e-05
-1.56232e-07
-1.08197e-05
-3.54984e-07
-1.0639e-05
-5.41667e-07
-1.0418e-05
-7.12648e-07
-1.01626e-05
-8.65105e-07
-9.87952e-06
-9.97189e-07
-9.5751e-06
-1.10821e-06
-9.25557e-06
-1.19855e-06
-8.9264e-06
-1.26951e-06
-8.59226e-06
-1.32302e-06
-8.25699e-06
-1.36124e-06
-7.92381e-06
-1.38636e-06
-7.59547e-06
-1.40041e-06
-7.27428e-06
-1.40533e-06
-6.96207e-06
-1.40329e-06
-6.65967e-06
-1.3975e-06
-6.36631e-06
-1.39258e-06
-6.0791e-06
-1.39439e-06
-5.7928e-06
-1.40944e-06
-5.49962e-06
-1.44398e-06
-5.18966e-06
-1.50219e-06
-4.85206e-06
-1.58399e-06
-4.47764e-06
-1.68233e-06
-4.06253e-06
-1.78376e-06
-3.60965e-06
-1.87271e-06
-3.12896e-06
-1.93498e-06
-2.63414e-06
-1.96383e-06
-2.13686e-06
-1.96202e-06
-1.64578e-06
-1.93449e-06
-1.16725e-06
-1.88561e-06
-7.06337e-07
-1.81891e-06
-2.66345e-07
-1.73858e-06
1.5026e-07
-1.64839e-06
5.41332e-07
-1.55258e-06
9.07031e-07
-1.4535e-06
1.24764e-06
-1.35414e-06
1.56393e-06
-1.25654e-06
1.85673e-06
-1.16183e-06
2.12661e-06
-1.07052e-06
2.37379e-06
-9.82818e-07
2.5984e-06
-8.99069e-07
2.80087e-06
-8.19917e-07
2.98236e-06
-7.46242e-07
3.14479e-06
-6.78877e-07
3.29071e-06
-6.18304e-07
3.42289e-06
-5.64499e-07
3.5439e-06
-5.16966e-07
3.65584e-06
-4.74917e-07
3.76025e-06
-4.37478e-07
3.85814e-06
-4.03855e-07
3.95018e-06
-3.73408e-07
4.03679e-06
-3.45666e-07
4.11828e-06
-3.20281e-07
4.19495e-06
-2.96985e-07
4.26707e-06
-2.75543e-07
4.33492e-06
-2.55723e-07
4.39873e-06
-2.37293e-07
4.45875e-06
-2.20021e-07
4.51515e-06
-2.0369e-07
4.56807e-06
-1.88113e-07
4.61764e-06
-1.73145e-07
4.66395e-06
-1.5869e-07
4.70707e-06
-1.44697e-07
4.74708e-06
-1.31159e-07
4.78408e-06
-1.18103e-07
4.81818e-06
-1.0557e-07
4.84947e-06
-9.36187e-08
4.8781e-06
-8.23137e-08
4.90421e-06
-7.16994e-08
4.92795e-06
-6.18022e-08
4.94945e-06
-5.26461e-08
4.96886e-06
-4.42412e-08
4.98633e-06
-3.65697e-08
5.00195e-06
-2.96113e-08
5.01586e-06
-2.33192e-08
5.0282e-06
-1.76403e-08
5.03907e-06
-1.25297e-08
5.04857e-06
-7.93501e-09
5.05679e-06
-3.80943e-09
5.06383e-06
-1.13996e-10
5.06976e-06
3.22732e-09
5.07465e-06
6.21037e-09
5.07859e-06
8.89883e-09
5.08162e-06
1.13228e-08
5.08382e-06