/*--------------------------------*- C++ -*----------------------------------*\
  =========                 |
  \\      /  F ield         | OpenFOAM: The Open Source CFD Toolbox
   \\    /   O peration     | Website:  https://openfoam.org
    \\  /    A nd           | Version:  9
     \\/     M anipulation  |
\*---------------------------------------------------------------------------*/
FoamFile
{
    format      ascii;
    class       volScalarField;
    location    "0.018";
    object      s;
}
// * * * * * * * * * * * * * * * * * * * * * * * * * * * * * * * * * * * * * //

dimensions      [0 0 0 0 0 0 0];

internalField   nonuniform List<scalar> 
12225
(
1
1
1
1
1
1
1
1
1
1
1
1
1
1
1
1
1
0.999942
1
1
1
1
1
1
1
1
1
1
1
1
1
1
1
1
1
0.999998
1
1
1
1
1
1
1
1
1
1
1
1
1
1
1
1
1
1
1
1
1
1
1
1
1
1
1
1
1
1
1
1
1
1
1
1
1
1
1
1
1
1
1
1
1
1
1
1
1
1
1
1
1
1
1
1
1
1
1
1
1
1
1
1
1
1
1
1
1
1
1
1
1
1
1
1
1
1
1
1
1
1
1
1
1
1
1
1
1
1
1
1
1
1
1
1
1
1
1
1
1
1
1
1
1
1
1
1
1
1
1
1
1
1
1
1
1
1
1
1
1
1
1
1
1
1
1
1
1
1
1
1
1
1
1
1
1
1
1
1
1
1
1
1
1
1
1
1
1
1
1
1
1
1
1
1
1
1
1
1
1
1
1
1
1
1
1
1
1
1
1
1
1
1
1
1
1
1
1
1
1
1
1
1
1
1
1
1
1
1
1
1
1
1
1
1
1
1
1
1
1
1
1
1
1
1
1
1
1
1
1
1
1
1
1
1
1
1
1
1
1
1
1
1
1
1
1
1
1
1
1
1
1
1
1
1
1
1
1
1
1
1
1
1
1
1
1
1
1
1
1
1
1
1
1
1
1
1
1
1
1
1
1
1
1
1
1
1
1
1
1
1
1
1
1
1
1
1
1
1
1
1
1
1
1
1
1
1
1
1
1
1
1
1
1
1
1
1
1
1
1
1
1
1
1
1
1
1
1
1
1
1
1
1
1
1
1
1
1
1
1
1
1
1
1
1
1
1
1
1
1
1
1
1
1
1
1
1
1
1
1
1
1
1
1
1
1
1
1
1
1
1
1
1
1
1
1
1
1
1
1
1
1
1
1
1
1
1
1
1
1
1
1
1
1
1
1
1
1
1
1
1
1
1
1
1
1
1
1
1
1
1
1
1
1
1
1
1
1
1
1
1
1
1
1
1
1
1
1
1
1
1
1
1
1
1
1
1
1
1
1
1
1
1
1
1
1
1
1
1
1
1
1
1
1
1
1
1
1
1
1
1
1
1
1
1
1
1
1
1
1
1
1
1
1
1
1
1
1
1
1
1
1
1
1
1
1
1
1
1
1
1
1
1
1
1
1
1
1
1
1
1
1
1
1
1
1
1
1
1
1
1
1
1
1
1
1
1
1
1
1
1
1
1
2.25856e-09
1.88762e-08
9.80393e-08
3.6968e-07
1.13906e-06
2.99959e-06
6.97187e-06
1.48318e-05
2.92546e-05
4.42341e-05
6.56747e-05
7.93658e-05
9.27623e-05
9.37763e-05
8.99266e-05
7.98965e-05
6.46313e-05
5.07288e-05
3.63536e-05
2.5047e-05
2.11078e-05
2.29806e-05
4.48473e-05
0.000157704
0.000694478
0.00466132
0.0364914
0.144755
0.262044
0.355438
0.41631
0.445186
0.460604
0.469936
0.474679
0.47915
0.481706
0.483939
0.487486
0.489109
0.49167
0.496552
0.499608
0.500908
0.502879
0.506304
0.510318
0.51616
0.520244
0.522839
0.523619
0.522734
0.518239
0.51684
0.516029
0.513836
0.508748
0.503106
0.499281
0.494628
0.487663
0.480728
0.475181
0.469426
0.463201
0.456239
0.447739
0.438323
0.427951
0.41547
0.399183
0.379666
0.358516
0.333583
0.305753
0.275849
0.244282
0.212216
0.180728
0.151611
0.126443
0.105006
0.085108
0.0671465
0.0515057
0.0384434
0.0279998
0.0199303
0.0138036
0.00927409
0.00604885
0.00383349
0.00236018
0.00141115
0.000819395
0.000462108
0.000253126
0.000134669
6.95833e-05
3.49134e-05
1.70073e-05
8.04102e-06
3.68857e-06
1.64097e-06
7.07702e-07
2.95747e-07
1.19719e-07
4.69282e-08
1.78107e-08
6.54496e-09
2.32867e-09
8.02525e-10
2.6778e-10
8.78065e-11
2.83969e-11
9.04455e-12
2.834e-12
8.72849e-13
2.64056e-13
7.84604e-14
2.28995e-14
6.56514e-15
1.84896e-15
5.11569e-16
1.39061e-16
3.71414e-17
9.74758e-18
2.51388e-18
6.37131e-19
1.58698e-19
3.885e-20
9.34786e-21
2.21082e-21
5.1397e-22
1.17459e-22
2.6389e-23
5.8287e-24
1.26579e-24
2.70286e-25
5.67521e-26
1.17184e-26
2.37967e-27
4.7529e-28
9.33761e-29
1.80465e-29
3.43147e-30
6.4202e-31
1.18208e-31
2.14201e-32
3.82046e-33
6.70764e-34
1.15937e-34
1.97289e-35
3.30561e-36
5.45376e-37
8.86062e-38
1.41769e-38
2.23395e-39
3.46703e-40
5.29973e-41
7.97948e-42
1.18341e-42
1.72878e-43
2.48768e-44
3.52612e-45
4.92312e-46
6.77026e-47
9.16979e-48
1.2231e-48
1.60632e-49
2.07676e-50
2.64215e-51
3.30665e-52
4.06724e-53
4.91385e-54
5.81876e-55
6.74549e-56
7.60967e-57
8.32798e-58
8.13469e-59
3.14822e-08
2.85219e-07
1.63239e-06
6.63984e-06
2.14196e-05
5.74397e-05
0.000134155
0.000277695
0.000481796
0.000705263
0.000930787
0.00110286
0.00122539
0.00120585
0.00113255
0.00100621
0.0007766
0.000492795
0.000309046
0.000257098
0.000287739
0.000643983
0.00304386
0.0139565
0.0403619
0.0895781
0.171507
0.285294
0.395217
0.499152
0.586667
0.633458
0.681039
0.711298
0.742241
0.768018
0.784433
0.810953
0.827596
0.844157
0.857209
0.869561
0.877733
0.885798
0.890784
0.893864
0.895641
0.89657
0.899243
0.901639
0.903461
0.905204
0.908509
0.910249
0.911365
0.913138
0.915591
0.917298
0.918929
0.921374
0.923721
0.92573
0.927095
0.92817
0.929189
0.93055
0.931252
0.931258
0.930401
0.928918
0.926357
0.922355
0.915628
0.907358
0.895425
0.879785
0.859002
0.832152
0.797881
0.754906
0.701309
0.637938
0.567857
0.492186
0.412848
0.333261
0.25895
0.196898
0.14832
0.108059
0.0760058
0.0518746
0.0344324
0.0221779
0.0138576
0.00840364
0.0049467
0.00282678
0.00156844
0.000845077
0.000442197
0.000224719
0.00011091
5.31599e-05
2.47438e-05
1.11842e-05
4.90919e-06
2.09274e-06
8.66563e-07
3.48641e-07
1.36334e-07
5.18412e-08
1.91793e-08
6.90651e-09
2.42232e-09
8.281e-10
2.76151e-10
8.98944e-11
2.85787e-11
8.90172e-12
2.71866e-12
8.14112e-13
2.39042e-13
6.88275e-14
1.94355e-14
5.38302e-15
1.46253e-15
3.89834e-16
1.01954e-16
2.61653e-17
6.59019e-18
1.62919e-18
3.95368e-19
9.41976e-20
2.20365e-20
5.0625e-21
1.14226e-21
2.53163e-22
5.51221e-23
1.17923e-23
2.47901e-24
5.1218e-25
1.04014e-25
2.07656e-26
4.07609e-27
7.86773e-28
1.49353e-28
2.78866e-29
5.12201e-30
9.25559e-31
1.64564e-31
2.8793e-32
4.95797e-33
8.40292e-34
1.40187e-34
2.30235e-35
3.72268e-36
5.92636e-37
9.2896e-38
1.43386e-38
2.1794e-39
3.26219e-40
4.80884e-41
6.98139e-42
9.98207e-43
1.40566e-43
1.94946e-44
2.66262e-45
3.58115e-46
4.74278e-47
6.18332e-48
7.9352e-49
1.00174e-49
1.24397e-50
1.51703e-51
1.81748e-52
2.12936e-53
2.4431e-54
2.70724e-55
2.90416e-56
2.22616e-07
2.34186e-06
1.44532e-05
6.11635e-05
0.000199059
0.0005255
0.00118465
0.00221699
0.00346944
0.00471061
0.0058293
0.00668516
0.00681647
0.00639138
0.00539971
0.00478869
0.00418556
0.00400201
0.00492415
0.00781346
0.0144171
0.0283785
0.056278
0.108246
0.196447
0.338122
0.475588
0.602341
0.690236
0.741829
0.76753
0.782051
0.789944
0.795236
0.799922
0.804006
0.80808
0.81599
0.821054
0.823212
0.823863
0.82295
0.821358
0.821214
0.821953
0.822304
0.821745
0.823623
0.831237
0.838863
0.842962
0.850126
0.861548
0.871045
0.876821
0.883045
0.892609
0.899155
0.906621
0.91482
0.921975
0.929284
0.935829
0.940961
0.945345
0.951092
0.956895
0.960248
0.963914
0.967748
0.971283
0.97488
0.976813
0.979617
0.9813
0.983017
0.98444
0.98524
0.984667
0.982305
0.977568
0.969766
0.957631
0.939414
0.912465
0.872798
0.8149
0.73276
0.627915
0.511146
0.392518
0.286286
0.20425
0.141576
0.0946254
0.0611915
0.0382991
0.023197
0.0136014
0.00772281
0.0042474
0.00226321
0.00116858
0.000584764
0.000283625
0.000133354
6.079e-05
2.68733e-05
1.1524e-05
4.79562e-06
1.93758e-06
7.60484e-07
2.90144e-07
1.07679e-07
3.89001e-08
1.36896e-08
4.69652e-09
1.57186e-09
5.13573e-10
1.63899e-10
5.11186e-11
1.55906e-11
4.65171e-12
1.35976e-12
3.89838e-13
1.09631e-13
3.02464e-14
8.18765e-15
2.17491e-15
5.66982e-16
1.45074e-16
3.64378e-17
8.98463e-18
2.17511e-18
5.17063e-19
1.20707e-19
2.76753e-20
6.23267e-21
1.37886e-21
2.99696e-22
6.40029e-23
1.34316e-23
2.77021e-24
5.61577e-25
1.11909e-25
2.19245e-26
4.22329e-27
7.99968e-28
1.49019e-28
2.73022e-29
4.92026e-30
8.72276e-31
1.52138e-31
2.61084e-32
4.4088e-33
7.32654e-34
1.19826e-34
1.92893e-35
3.05652e-36
4.76777e-37
7.32169e-38
1.10699e-38
1.64793e-39
2.41553e-40
3.48646e-41
4.95527e-42
6.93513e-43
9.5577e-44
1.29694e-44
1.73284e-45
2.27901e-46
2.95049e-47
3.75747e-48
4.70807e-49
5.79375e-50
7.00798e-51
8.2933e-52
9.62615e-53
1.08268e-53
1.18877e-54
1.13272e-06
1.32377e-05
8.32015e-05
0.000348205
0.00109184
0.00272326
0.00557172
0.00948806
0.0137656
0.017754
0.0212404
0.022838
0.0225204
0.0211038
0.0201803
0.0201264
0.0223183
0.0276993
0.0384514
0.0582451
0.0935307
0.155367
0.261744
0.387228
0.530435
0.64285
0.726306
0.766964
0.785294
0.790343
0.788897
0.77874
0.77312
0.75551
0.735649
0.713706
0.698677
0.684165
0.674685
0.662856
0.656017
0.64876
0.644767
0.643002
0.642493
0.643015
0.643082
0.643968
0.643693
0.643792
0.647796
0.655155
0.662833
0.673138
0.687641
0.703581
0.719185
0.73788
0.757955
0.778598
0.799243
0.818944
0.838953
0.857892
0.873992
0.889687
0.905722
0.917915
0.928419
0.939672
0.949254
0.959478
0.966417
0.973244
0.977976
0.98195
0.985027
0.988097
0.99091
0.993353
0.995144
0.996049
0.996535
0.996481
0.995451
0.992845
0.988188
0.979916
0.964952
0.937522
0.887879
0.8035
0.678656
0.531284
0.386506
0.269025
0.181652
0.118001
0.0739013
0.0446499
0.0260372
0.0146617
0.00797586
0.00419304
0.00213099
0.0010473
0.000497901
0.000229064
0.000102024
4.4016e-05
1.84051e-05
7.4641e-06
2.93797e-06
1.12328e-06
4.17486e-07
1.5096e-07
5.31485e-08
1.82331e-08
6.09938e-09
1.99098e-09
6.34559e-10
1.97584e-10
6.01364e-11
1.78979e-11
5.21081e-12
1.48473e-12
4.14686e-13
1.13558e-13
3.04949e-14
8.03202e-15
2.07534e-15
5.26129e-16
1.30889e-16
3.19585e-17
7.65954e-18
1.80224e-18
4.16365e-19
9.44589e-20
2.10463e-20
4.60603e-21
9.9026e-22
2.0917e-22
4.3414e-23
8.85517e-24
1.77522e-24
3.49821e-25
6.77687e-26
1.29077e-26
2.41743e-27
4.45233e-28
8.06482e-29
1.43687e-29
2.51824e-30
4.34185e-31
7.3653e-32
1.22937e-32
2.01926e-33
3.26405e-34
5.19294e-35
8.13199e-36
1.25355e-36
1.90229e-37
2.84203e-38
4.18046e-39
6.05449e-40
8.63387e-41
1.21228e-41
1.67603e-42
2.28136e-43
3.05736e-44
4.03291e-45
5.23622e-46
6.68738e-47
8.40206e-48
1.03687e-48
1.2574e-49
1.4929e-50
1.73781e-51
1.96702e-52
2.17471e-53
4.6458e-06
5.39158e-05
0.000328625
0.00130236
0.00376723
0.00851678
0.0160116
0.0257632
0.0360107
0.044726
0.0512956
0.0552613
0.0564646
0.0573616
0.0622758
0.0717645
0.0888526
0.118081
0.166987
0.242496
0.334291
0.444177
0.548723
0.656348
0.737856
0.776369
0.794214
0.798914
0.794084
0.778875
0.757009
0.713276
0.665903
0.639747
0.62051
0.611748
0.604619
0.601398
0.599672
0.598468
0.597592
0.59643
0.59498
0.593777
0.59234
0.591178
0.589509
0.587393
0.585374
0.584706
0.584559
0.585349
0.585385
0.584091
0.581565
0.580074
0.58129
0.589172
0.600769
0.618259
0.641413
0.667814
0.697097
0.729664
0.763883
0.794017
0.821999
0.847571
0.869196
0.889858
0.909253
0.930057
0.947322
0.960943
0.970341
0.976763
0.981255
0.984344
0.986856
0.989354
0.991914
0.994568
0.996603
0.997987
0.998735
0.99906
0.999178
0.9991
0.998611
0.997266
0.994238
0.987637
0.973004
0.939503
0.862222
0.729632
0.562629
0.398082
0.268845
0.174643
0.108914
0.0652923
0.0376573
0.0209105
0.0111864
0.00576889
0.0028696
0.00137766
0.000638765
0.000286238
0.000124063
5.20531e-05
2.11607e-05
8.34241e-06
3.1925e-06
1.18698e-06
4.29156e-07
1.51013e-07
5.17593e-08
1.72926e-08
5.6354e-09
1.79249e-09
5.56805e-10
1.69001e-10
5.01442e-11
1.45508e-11
4.13028e-12
1.14784e-12
3.12601e-13
8.34471e-14
2.18394e-14
5.60488e-15
1.41082e-15
3.48365e-16
8.43981e-17
2.0065e-17
4.68193e-18
1.0724e-18
2.41161e-19
5.32519e-20
1.1548e-20
2.4597e-21
5.14666e-22
1.05802e-22
2.13721e-23
4.24269e-24
8.27811e-25
1.5877e-25
2.99369e-26
5.55e-27
1.01176e-27
1.81387e-28
3.19833e-29
5.54722e-30
9.46464e-31
1.58874e-31
2.62398e-32
4.26453e-33
6.82057e-34
1.07361e-34
1.66336e-35
2.5367e-36
3.80824e-37
5.62831e-38
8.18931e-39
1.17314e-39
1.65456e-40
2.29749e-41
3.14069e-42
4.22662e-43
5.59826e-44
7.29776e-45
9.35748e-46
1.18017e-46
1.46221e-47
1.77977e-48
2.12254e-49
2.48097e-50
2.82804e-51
3.15038e-52
8.92861e-06
0.000110232
0.000704038
0.00290406
0.00861108
0.0195778
0.0356598
0.0547411
0.0745056
0.0940843
0.112576
0.127073
0.140947
0.162115
0.188131
0.218158
0.27016
0.338216
0.409055
0.488987
0.571896
0.65005
0.730469
0.780918
0.802268
0.808255
0.807927
0.792423
0.769307
0.716948
0.647502
0.613408
0.59618
0.58691
0.582601
0.581082
0.580737
0.580652
0.580289
0.578505
0.575809
0.573447
0.571724
0.570056
0.567979
0.565482
0.564588
0.564588
0.566531
0.570927
0.572623
0.572779
0.571905
0.567811
0.55979
0.549895
0.542027
0.539287
0.538434
0.538582
0.5407
0.544198
0.548083
0.55186
0.563327
0.58736
0.62566
0.669877
0.714597
0.758095
0.799702
0.843511
0.888405
0.927104
0.953961
0.970694
0.980076
0.985116
0.98807
0.989713
0.990982
0.992621
0.994379
0.996021
0.997511
0.998632
0.999294
0.999611
0.999733
0.999765
0.999725
0.999497
0.998788
0.996894
0.991976
0.979146
0.944819
0.850183
0.679015
0.491348
0.331227
0.213697
0.131859
0.077932
0.0441712
0.0240352
0.0125681
0.00632161
0.00306152
0.00142901
0.000643534
0.000279907
0.000117718
4.7922e-05
1.89047e-05
7.23454e-06
2.68844e-06
9.71085e-07
3.41249e-07
1.16763e-07
3.89305e-08
1.26569e-08
4.01502e-09
1.24344e-09
3.76153e-10
1.11202e-10
3.21409e-11
9.08526e-12
2.51331e-12
6.81032e-13
1.8081e-13
4.70452e-14
1.19992e-14
3.00073e-15
7.35919e-16
1.77031e-16
4.17799e-17
9.6753e-18
2.19896e-18
4.90572e-19
1.07446e-19
2.31074e-20
4.88038e-21
1.01243e-21
2.06323e-22
4.13111e-23
8.12792e-24
1.57161e-24
2.9869e-25
5.58031e-26
1.02497e-26
1.85111e-27
3.28753e-28
5.74207e-29
9.86456e-30
1.66703e-30
2.77145e-31
4.53328e-32
7.2963e-33
1.15562e-33
1.80131e-34
2.76349e-35
4.17301e-36
6.20288e-37
9.07628e-38
1.30741e-38
1.85399e-39
2.5882e-40
3.55676e-41
4.81135e-42
6.40541e-43
8.39188e-44
1.08146e-44
1.37064e-45
1.70686e-46
2.0879e-47
2.50422e-48
2.94409e-49
3.38316e-50
3.80327e-51
1.03828e-05
0.00013058
0.000845515
0.00354351
0.0107334
0.0254052
0.0505115
0.0893665
0.142025
0.196405
0.238514
0.269773
0.289942
0.304161
0.341274
0.403814
0.459334
0.51816
0.586574
0.648073
0.710008
0.765981
0.802374
0.815866
0.819023
0.816004
0.799354
0.763196
0.690995
0.617287
0.588872
0.575896
0.570537
0.568737
0.568303
0.567819
0.5633
0.557972
0.550245
0.538135
0.526529
0.521527
0.519313
0.518922
0.522438
0.530461
0.536776
0.548307
0.558869
0.568298
0.578084
0.583632
0.585773
0.585622
0.576196
0.563842
0.546654
0.540156
0.537647
0.536643
0.536337
0.535829
0.528363
0.512423
0.49354
0.472242
0.46006
0.455362
0.467967
0.496882
0.545571
0.612347
0.699055
0.795854
0.877048
0.929985
0.96284
0.980245
0.988421
0.992187
0.994055
0.994643
0.994993
0.995803
0.996882
0.997858
0.998636
0.999226
0.999615
0.999815
0.999895
0.999919
0.999914
0.999853
0.999612
0.998838
0.996474
0.989364
0.968002
0.902588
0.732005
0.526963
0.351951
0.223619
0.135385
0.0782551
0.0432579
0.022903
0.011631
0.00567358
0.00266207
0.00120314
0.000524498
0.000220852
8.99418e-05
3.5471e-05
1.3563e-05
5.03374e-06
1.81521e-06
6.36607e-07
2.17319e-07
7.22677e-08
2.34269e-08
7.40778e-09
2.2862e-09
6.89004e-10
2.02871e-10
5.83854e-11
1.64287e-11
4.52385e-12
1.21974e-12
3.22108e-13
8.33357e-14
2.11285e-14
5.25073e-15
1.27934e-15
3.0568e-16
7.1639e-17
1.64711e-17
3.71598e-18
8.22769e-19
1.78821e-19
3.81564e-20
7.99466e-21
1.64508e-21
3.32504e-22
6.60229e-23
1.28808e-23
2.46947e-24
4.65303e-25
8.6178e-26
1.56906e-26
2.8088e-27
4.94412e-28
8.55848e-29
1.45711e-29
2.44017e-30
4.02003e-31
6.51572e-32
1.03911e-32
1.63066e-33
2.51831e-34
3.8276e-35
5.72594e-36
8.43124e-37
1.22202e-37
1.74348e-38
2.44854e-39
3.38479e-40
4.60545e-41
6.16679e-42
8.12539e-43
1.05311e-43
1.34229e-44
1.68134e-45
2.0688e-46
2.49754e-47
2.95658e-48
3.42696e-49
3.89085e-50
9.30203e-06
0.000119865
0.000789168
0.00337675
0.0105344
0.0261508
0.0559679
0.107464
0.185641
0.280209
0.353278
0.387106
0.409091
0.435929
0.471346
0.523722
0.590228
0.647459
0.695902
0.739417
0.779175
0.811572
0.823023
0.825553
0.823228
0.810021
0.77388
0.693454
0.605099
0.573121
0.561475
0.557622
0.5564
0.555737
0.55086
0.535235
0.515014
0.495008
0.477845
0.467713
0.463641
0.462
0.461834
0.464589
0.471924
0.479694
0.494059
0.509062
0.52796
0.548877
0.567957
0.590146
0.602788
0.610896
0.61427
0.614833
0.605168
0.596195
0.593596
0.595672
0.601891
0.615945
0.623526
0.610078
0.57464
0.515158
0.460741
0.427352
0.410414
0.407683
0.419255
0.447708
0.49903
0.579862
0.688505
0.800978
0.888917
0.94588
0.974893
0.988606
0.994252
0.996528
0.997538
0.997791
0.997774
0.997999
0.998561
0.999048
0.999417
0.999669
0.999834
0.999922
0.999959
0.999969
0.999966
0.999933
0.999794
0.999291
0.997557
0.991713
0.972309
0.907796
0.724262
0.506
0.330636
0.204736
0.120452
0.0674982
0.0361061
0.0184739
0.00905859
0.0042647
0.00193115
0.000842522
0.000354721
0.000144342
5.68473e-05
2.16972e-05
8.03505e-06
2.89024e-06
1.01079e-06
3.43996e-07
1.14012e-07
3.68268e-08
1.16004e-08
3.56558e-09
1.06996e-09
3.13614e-10
8.98263e-11
2.51538e-11
6.89224e-12
1.84853e-12
4.85442e-13
1.24861e-13
3.1464e-14
7.76987e-15
1.88076e-15
4.4635e-16
1.03882e-16
2.37147e-17
5.31132e-18
1.16729e-18
2.51785e-19
5.33135e-20
1.10835e-20
2.26268e-21
4.53677e-22
8.93546e-23
1.72902e-23
3.28745e-24
6.14265e-25
1.12811e-25
2.03657e-26
3.61458e-27
6.30782e-28
1.08247e-28
1.82693e-29
3.03277e-30
4.95242e-31
7.95613e-32
1.25757e-32
1.95591e-33
2.99355e-34
4.50894e-35
6.68404e-36
9.75218e-37
1.40046e-37
1.9795e-38
2.75383e-39
3.77053e-40
5.08038e-41
6.73542e-42
8.78391e-43
1.12656e-43
1.42015e-44
1.75888e-45
2.1385e-46
2.55094e-47
2.98333e-48
3.42208e-49
6.12905e-06
8.57908e-05
0.000602312
0.00275322
0.00912656
0.0236474
0.0517238
0.101356
0.181029
0.293859
0.432213
0.502925
0.521786
0.534592
0.562035
0.609361
0.671305
0.727721
0.763314
0.784808
0.808661
0.824039
0.827644
0.827488
0.819954
0.791187
0.724347
0.626306
0.57097
0.551849
0.544388
0.541176
0.538972
0.532548
0.518216
0.498969
0.476348
0.45513
0.441136
0.431633
0.418162
0.408645
0.397934
0.390551
0.38616
0.384622
0.391337
0.403272
0.423897
0.450787
0.491747
0.52599
0.567663
0.597486
0.616161
0.623963
0.626324
0.626629
0.621687
0.618807
0.621732
0.639266
0.667582
0.685591
0.693353
0.677142
0.6252
0.542103
0.465399
0.424797
0.416646
0.429897
0.464922
0.524219
0.607482
0.698989
0.787273
0.865412
0.92827
0.967458
0.986815
0.994638
0.997606
0.998698
0.999147
0.999264
0.999226
0.999251
0.999436
0.999642
0.99979
0.999886
0.999944
0.999973
0.999985
0.999987
0.999981
0.99995
0.999815
0.999292
0.997338
0.990225
0.9649
0.875147
0.653081
0.438378
0.276758
0.165195
0.0935513
0.0504118
0.0259177
0.0127441
0.00600712
0.00272019
0.0011857
0.000498409
0.000202378
7.9501e-05
3.02558e-05
1.11689e-05
4.0037e-06
1.39505e-06
4.72918e-07
1.56096e-07
5.02021e-08
1.57419e-08
4.81563e-09
1.43796e-09
4.19321e-10
1.19464e-10
3.32798e-11
9.06915e-12
2.41851e-12
6.31348e-13
1.61387e-13
4.04089e-14
9.91316e-15
2.38336e-15
5.6172e-16
1.29809e-16
2.94199e-17
6.54073e-18
1.42676e-18
3.05422e-19
6.4174e-20
1.32375e-20
2.68115e-21
5.33306e-22
1.04194e-22
1.9998e-23
3.77118e-24
6.98839e-25
1.27276e-25
2.27848e-26
4.00989e-27
6.93842e-28
1.18055e-28
1.9754e-29
3.25104e-30
5.263e-31
8.38169e-32
1.31328e-32
2.02466e-33
3.07146e-34
4.58528e-35
6.73656e-36
9.7404e-37
1.38609e-37
1.9412e-38
2.67549e-39
3.62868e-40
4.84234e-41
6.35669e-42
8.20666e-43
1.04159e-43
1.2991e-44
1.59139e-45
1.91374e-46
2.25864e-47
2.61778e-48
2.86058e-06
4.40175e-05
0.000335306
0.00168145
0.00617353
0.0177778
0.0418405
0.0856546
0.160473
0.274469
0.417613
0.555456
0.617682
0.629457
0.636278
0.662179
0.717372
0.773026
0.797228
0.810119
0.821635
0.82787
0.829031
0.826308
0.813832
0.775737
0.693002
0.591122
0.551045
0.538925
0.535582
0.534189
0.530236
0.518829
0.494599
0.45706
0.422366
0.401217
0.383713
0.353281
0.320371
0.29386
0.267926
0.249839
0.24065
0.237313
0.24267
0.255899
0.281688
0.3067
0.345718
0.383646
0.432749
0.491569
0.560045
0.605657
0.624518
0.62909
0.628345
0.617715
0.61209
0.616686
0.636127
0.673605
0.701087
0.710906
0.706436
0.692106
0.656117
0.601009
0.553113
0.532614
0.537262
0.562558
0.617311
0.691053
0.768005
0.836529
0.892456
0.936089
0.967201
0.985805
0.994555
0.998007
0.999185
0.999598
0.999758
0.999799
0.999788
0.99978
0.999817
0.999886
0.999936
0.999967
0.999984
0.999992
0.999994
0.999993
0.999983
0.999936
0.999735
0.998919
0.995715
0.983497
0.938048
0.777042
0.533899
0.341902
0.206144
0.117507
0.0635595
0.0327304
0.0160941
0.00757704
0.00342391
0.00148834
0.000623606
0.000252307
9.87309e-05
3.742e-05
1.3754e-05
4.90819e-06
1.70221e-06
5.74238e-07
1.88586e-07
6.03358e-08
1.88181e-08
5.72492e-09
1.69978e-09
4.92778e-10
1.39587e-10
3.86559e-11
1.04698e-11
2.77443e-12
7.19564e-13
1.82713e-13
4.54368e-14
1.1069e-14
2.64236e-15
6.1826e-16
1.41825e-16
3.19036e-17
7.03932e-18
1.52377e-18
3.23663e-19
6.74746e-20
1.38084e-20
2.77446e-21
5.47425e-22
1.06085e-22
2.01946e-23
3.77693e-24
6.94108e-25
1.25362e-25
2.22542e-26
3.88353e-27
6.66294e-28
1.12405e-28
1.8648e-29
3.04273e-30
4.88338e-31
7.7099e-32
1.19754e-32
1.83011e-33
2.75199e-34
4.07213e-35
5.92954e-36
8.49686e-37
1.19821e-37
1.66278e-38
2.27057e-39
3.05063e-40
4.0321e-41
5.24163e-42
6.7e-43
8.41797e-44
1.03926e-44
1.26029e-45
1.50119e-46
1.75792e-47
1.01848e-06
1.76836e-05
0.00014649
0.00080637
0.00327324
0.0104637
0.0274184
0.0612884
0.122172
0.223708
0.369006
0.529316
0.646291
0.700671
0.714126
0.720477
0.746881
0.796957
0.815605
0.822783
0.827448
0.829482
0.828083
0.817574
0.792277
0.73782
0.655161
0.578835
0.546437
0.53238
0.52406
0.518824
0.511079
0.488546
0.449142
0.4075
0.379445
0.359841
0.320952
0.273996
0.24087
0.208528
0.181065
0.167608
0.16115
0.15952
0.168395
0.181542
0.205442
0.235148
0.273149
0.31818
0.363002
0.399279
0.439367
0.517742
0.596952
0.628036
0.636287
0.619627
0.602242
0.593882
0.596379
0.609104
0.638724
0.671046
0.693337
0.703049
0.702947
0.695204
0.683349
0.679655
0.687214
0.710288
0.7498
0.788297
0.82073
0.852889
0.891063
0.929355
0.958698
0.978073
0.989538
0.995558
0.998331
0.999411
0.999779
0.9999
0.999944
0.999954
0.999952
0.999947
0.999952
0.99997
0.999984
0.999992
0.999996
0.999997
0.999997
0.999993
0.999971
0.999873
0.999446
0.99767
0.990506
0.962499
0.854891
0.60678
0.392361
0.237741
0.135786
0.0734325
0.0377471
0.0185066
0.00868043
0.00390576
0.0016899
0.000704579
0.00028361
0.000110396
4.16149e-05
1.52112e-05
5.39746e-06
1.86105e-06
6.24107e-07
2.03724e-07
6.47769e-08
2.00761e-08
6.06851e-09
1.79003e-09
5.15573e-10
1.45089e-10
3.99102e-11
1.07354e-11
2.82488e-12
7.27426e-13
1.8337e-13
4.52642e-14
1.09446e-14
2.59289e-15
6.02039e-16
1.37035e-16
3.05852e-17
6.69517e-18
1.43774e-18
3.0294e-19
6.26443e-20
1.27156e-20
2.53397e-21
4.95857e-22
9.52956e-23
1.79897e-23
3.3364e-24
6.07995e-25
1.08882e-25
1.91649e-26
3.31597e-27
5.64062e-28
9.43429e-29
1.55171e-29
2.51002e-30
3.99357e-31
6.25031e-32
9.62366e-33
1.45784e-33
2.17292e-34
3.18685e-35
4.5992e-36
6.53148e-37
9.12738e-38
1.25507e-38
1.69804e-39
2.26013e-40
2.95906e-41
3.81002e-42
4.82326e-43
6.00233e-44
7.34115e-45
8.82553e-46
1.04405e-46
2.52494e-07
5.41042e-06
4.97265e-05
0.000303284
0.00136587
0.00486338
0.0142716
0.0356418
0.0781626
0.154129
0.27494
0.44331
0.615198
0.707804
0.752027
0.771737
0.783543
0.811856
0.833256
0.835639
0.835029
0.83311
0.828691
0.815446
0.783023
0.725807
0.647167
0.573911
0.538767
0.52517
0.520504
0.514518
0.503645
0.48281
0.445982
0.396957
0.352379
0.318916
0.277979
0.226781
0.185474
0.157926
0.138899
0.12992
0.125899
0.124738
0.131966
0.145246
0.167386
0.198279
0.236887
0.282744
0.336104
0.379846
0.408153
0.439483
0.506959
0.608945
0.647491
0.650339
0.62135
0.598685
0.596874
0.604718
0.624896
0.642301
0.657031
0.670954
0.680006
0.681705
0.678164
0.680522
0.695469
0.723942
0.774669
0.832198
0.882377
0.918648
0.936062
0.946023
0.961007
0.977284
0.988318
0.994509
0.997591
0.999015
0.999629
0.99987
0.999953
0.99998
0.999989
0.99999
0.99999
0.99999
0.99999
0.999994
0.999997
0.999998
0.999999
0.999998
0.999996
0.999984
0.999923
0.999649
0.998448
0.99338
0.972716
0.890903
0.654665
0.423289
0.256303
0.145985
0.078616
0.0402024
0.0195962
0.00913482
0.00408395
0.00175548
0.000727099
0.000290731
0.00011241
4.2088e-05
1.52793e-05
5.38426e-06
1.84356e-06
6.13879e-07
1.98954e-07
6.28031e-08
1.93222e-08
5.79743e-09
1.69746e-09
4.85305e-10
1.35548e-10
3.70024e-11
9.87659e-12
2.57866e-12
6.58794e-13
1.64749e-13
4.03418e-14
9.67557e-15
2.27359e-15
5.23579e-16
1.18194e-16
2.61615e-17
5.67916e-18
1.20936e-18
2.52679e-19
5.18103e-20
1.04275e-20
2.06035e-21
3.99741e-22
7.61671e-23
1.42554e-23
2.6211e-24
4.7353e-25
8.4069e-26
1.46693e-26
2.51611e-27
4.24281e-28
7.03453e-29
1.1469e-29
1.83899e-30
2.90025e-31
4.49926e-32
6.86646e-33
1.03097e-33
1.52302e-34
2.21378e-35
3.16626e-36
4.45602e-37
6.17061e-38
8.40757e-39
1.12705e-39
1.48627e-40
1.9279e-41
2.4594e-42
3.08536e-43
3.80599e-44
4.61773e-45
5.51755e-46
5.16116e-08
1.28296e-06
1.2999e-05
8.80601e-05
0.000442118
0.00175735
0.0057749
0.0161778
0.0396407
0.0867028
0.17077
0.304048
0.493182
0.67116
0.74804
0.782573
0.802613
0.819477
0.838313
0.84687
0.84726
0.843361
0.833363
0.818826
0.787839
0.733429
0.656991
0.582088
0.541283
0.523185
0.512922
0.509714
0.503992
0.488168
0.45459
0.406751
0.358438
0.320887
0.281932
0.233203
0.189225
0.159487
0.139595
0.129912
0.11943
0.115991
0.120418
0.132744
0.153368
0.184225
0.22446
0.269535
0.324345
0.374913
0.406365
0.429296
0.464372
0.544104
0.640475
0.681937
0.684523
0.655274
0.642721
0.652425
0.686756
0.703681
0.706789
0.702744
0.691506
0.67187
0.640161
0.607438
0.587524
0.598434
0.652019
0.753787
0.857225
0.922029
0.95634
0.974024
0.981712
0.98608
0.990777
0.994865
0.997551
0.998934
0.999565
0.999832
0.999939
0.999979
0.999992
0.999997
0.999998
0.999998
0.999998
0.999998
0.999999
0.999999
1
1
0.999999
0.999998
0.999989
0.999943
0.999728
0.998748
0.994457
0.976362
0.902799
0.672468
0.432474
0.260227
0.14714
0.0786075
0.039865
0.0192684
0.00890659
0.00394874
0.00168337
0.000691539
0.00027427
0.000105188
3.90662e-05
1.40676e-05
4.91698e-06
1.66981e-06
5.51456e-07
1.77245e-07
5.54851e-08
1.69278e-08
5.0366e-09
1.46238e-09
4.14577e-10
1.1481e-10
3.10735e-11
8.22272e-12
2.12829e-12
5.39012e-13
1.33619e-13
3.24327e-14
7.71039e-15
1.79587e-15
4.09921e-16
9.17198e-17
2.01221e-17
4.32943e-18
9.13769e-19
1.89226e-19
3.84552e-20
7.67084e-21
1.5022e-21
2.88857e-22
5.45493e-23
1.01185e-23
1.84389e-24
3.30149e-25
5.8091e-26
1.0046e-26
1.70773e-27
2.85397e-28
4.68958e-29
7.57752e-30
1.20414e-30
1.88204e-31
2.8935e-32
4.37623e-33
6.51165e-34
9.53282e-35
1.37313e-35
1.94615e-36
2.71406e-37
3.72419e-38
5.02809e-39
6.6789e-40
8.72806e-41
1.12202e-41
1.41897e-42
1.76534e-43
2.16132e-44
2.60778e-45
1.19115e-07
2.96923e-07
2.65168e-06
2.14148e-05
0.000118031
0.000512427
0.00185481
0.00576173
0.0156939
0.0381794
0.0838004
0.167079
0.302949
0.50809
0.694869
0.770457
0.801445
0.819068
0.836663
0.848307
0.853329
0.85349
0.848296
0.833214
0.804664
0.755924
0.684631
0.606463
0.553651
0.527199
0.513349
0.505746
0.502112
0.494939
0.478631
0.444276
0.388613
0.340838
0.301259
0.258707
0.2146
0.180402
0.155867
0.144229
0.133226
0.133338
0.136932
0.147257
0.162634
0.189046
0.238156
0.285356
0.331248
0.385042
0.428094
0.445338
0.464192
0.523145
0.619758
0.683595
0.707276
0.708555
0.70602
0.712898
0.751033
0.802664
0.837079
0.854614
0.853717
0.817886
0.733938
0.629358
0.554088
0.51211
0.502091
0.532132
0.677782
0.853058
0.938533
0.974002
0.988042
0.994196
0.996839
0.997987
0.998691
0.999258
0.999632
0.999839
0.999937
0.999977
0.999992
0.999997
0.999999
1
1
1
1
1
1
1
1
1
0.999998
0.99999
0.999948
0.999744
0.998784
0.994458
0.97577
0.898317
0.659816
0.419958
0.249892
0.139697
0.0737946
0.0370139
0.0177
0.00809718
0.00355392
0.00150025
0.000610403
0.000239803
9.11084e-05
3.35218e-05
1.19588e-05
4.14102e-06
1.39319e-06
4.55804e-07
1.45129e-07
4.50044e-08
1.36015e-08
4.00898e-09
1.15305e-09
3.23791e-10
8.88182e-11
2.381e-11
6.24062e-12
1.59985e-12
4.01311e-13
9.85337e-14
2.36883e-14
5.57784e-15
1.28679e-15
2.90924e-16
6.44759e-17
1.4011e-17
2.98605e-18
6.24279e-19
1.28059e-19
2.57796e-20
5.09406e-21
9.88226e-22
1.88248e-22
3.52177e-23
6.47173e-24
1.16836e-24
2.07253e-25
3.61287e-26
6.19007e-27
1.04253e-27
1.72619e-28
2.81029e-29
4.4991e-30
7.08371e-31
1.09699e-31
1.67104e-32
2.50414e-33
3.69185e-34
5.35516e-35
7.643e-36
1.07333e-36
1.48316e-37
2.01666e-38
2.69811e-39
3.55201e-40
4.60119e-41
5.86539e-42
7.35849e-43
9.0891e-44
1.10709e-44
1.94924e-05
4.31871e-06
1.67459e-06
4.39013e-06
2.50043e-05
0.000123697
0.000490989
0.00166427
0.00495925
0.0132263
0.0319253
0.0705347
0.143573
0.267397
0.47097
0.683387
0.772827
0.809648
0.829837
0.845504
0.853051
0.856383
0.85596
0.851494
0.838708
0.810079
0.756126
0.664989
0.591588
0.546443
0.521194
0.508165
0.501536
0.496323
0.48964
0.477114
0.45603
0.412895
0.364446
0.318166
0.274726
0.237064
0.205411
0.189542
0.176181
0.176831
0.182661
0.19651
0.22565
0.256035
0.300194
0.362407
0.403873
0.417213
0.441565
0.472337
0.49837
0.537601
0.616128
0.677468
0.708607
0.717092
0.718275
0.721997
0.749173
0.806651
0.853166
0.887353
0.910467
0.92145
0.915875
0.861989
0.698648
0.550977
0.491655
0.486781
0.518615
0.677076
0.864861
0.950029
0.982808
0.994051
0.997786
0.999117
0.999618
0.999808
0.999892
0.999936
0.999966
0.999984
0.999993
0.999998
0.999999
1
1
1
1
1
1
1
1
1
1
0.999998
0.999989
0.999942
0.999707
0.998578
0.993396
0.970723
0.875848
0.618411
0.388083
0.227404
0.125263
0.0652506
0.032298
0.015252
0.00689417
0.00299125
0.00124872
0.000502562
0.000195336
7.34338e-05
2.67367e-05
9.4391e-06
3.23462e-06
1.07696e-06
3.48688e-07
1.0987e-07
3.37173e-08
1.00845e-08
2.94144e-09
8.37191e-10
2.32641e-10
6.31489e-11
1.6752e-11
4.34487e-12
1.10225e-12
2.73613e-13
6.64821e-14
1.58173e-14
3.68599e-15
8.4159e-16
1.88319e-16
4.13094e-17
8.88536e-18
1.87446e-18
3.87927e-19
7.87752e-20
1.56995e-20
3.07128e-21
5.89898e-22
1.11259e-22
2.06094e-23
3.75009e-24
6.704e-25
1.17763e-25
2.03295e-26
3.44947e-27
5.75364e-28
9.43528e-29
1.52139e-29
2.41243e-30
3.76219e-31
5.77092e-32
8.70781e-33
1.29262e-33
1.88782e-34
2.71275e-35
3.83569e-36
5.33679e-37
7.30702e-38
9.84546e-39
1.30556e-39
1.70391e-40
2.18906e-41
2.76884e-42
3.44955e-43
4.24022e-44
0.00212291
0.000397954
6.23413e-05
1.2422e-05
9.22414e-06
2.4009e-05
0.000103612
0.000390072
0.00126566
0.0036577
0.00957987
0.0229997
0.0511625
0.106162
0.203869
0.371762
0.600056
0.737283
0.796782
0.828645
0.8457
0.85394
0.856419
0.855974
0.853172
0.844384
0.823985
0.783442
0.703365
0.614297
0.559449
0.527904
0.509867
0.500508
0.494112
0.486416
0.478823
0.466741
0.444402
0.423032
0.391044
0.367855
0.336839
0.318665
0.301983
0.302807
0.308703
0.322016
0.343744
0.372217
0.400111
0.420736
0.437413
0.44618
0.456554
0.483719
0.534176
0.587712
0.62674
0.665887
0.693981
0.71098
0.717311
0.718441
0.720161
0.741167
0.785819
0.833121
0.884662
0.922183
0.936498
0.936134
0.913889
0.78393
0.583294
0.509137
0.510477