/*--------------------------------*- C++ -*----------------------------------*\
  =========                 |
  \\      /  F ield         | OpenFOAM: The Open Source CFD Toolbox
   \\    /   O peration     | Website:  https://openfoam.org
    \\  /    A nd           | Version:  9
     \\/     M anipulation  |
\*---------------------------------------------------------------------------*/
FoamFile
{
    format      ascii;
    class       volVectorField;
    location    "0.018";
    object      U;
}
// * * * * * * * * * * * * * * * * * * * * * * * * * * * * * * * * * * * * * //

dimensions      [0 1 -1 0 0 0 0];

internalField   nonuniform List<vector> 
12225
(
(9.91482 0.116884 0)
(9.48033 0.130987 0)
(9.0443 0.0750158 0)
(8.70609 0.0278306 0)
(8.47848 0.0217371 0)
(8.30236 0.0406154 0)
(8.10349 0.0591485 0)
(7.87253 0.0645682 0)
(7.62709 0.0576555 0)
(7.39125 0.0457071 0)
(7.15866 0.0381966 0)
(6.92704 0.0393845 0)
(6.65943 0.0497103 0)
(6.37449 0.0637291 0)
(6.02623 0.0724127 0)
(5.72897 0.0720063 0)
(5.34715 0.0889612 0)
(5.12589 0.0882062 0)
(10.0536 -0.0105276 0)
(10.1735 0.0581471 0)
(10.1406 0.0996323 0)
(10.0462 0.10131 0)
(9.98564 0.0756048 0)
(9.96359 0.0517655 0)
(9.93906 0.047056 0)
(9.90267 0.057751 0)
(9.86154 0.0724961 0)
(9.82558 0.0858181 0)
(9.79492 0.0979864 0)
(9.77142 0.11456 0)
(9.73646 0.13423 0)
(9.68296 0.154042 0)
(9.58792 0.169697 0)
(9.47225 0.177206 0)
(9.30654 0.178908 0)
(9.16842 0.216935 0)
(10.0032 0.128864 0)
(10.1469 0.136747 0)
(10.2279 0.119494 0)
(10.2929 0.0584572 0)
(10.3137 0.0324185 0)
(10.2675 0.0521061 0)
(10.1681 0.0826714 0)
(10.0628 0.0980923 0)
(9.98728 0.0934959 0)
(9.94948 0.0765263 0)
(9.94646 0.0601367 0)
(9.976 0.0568436 0)
(10.0297 0.0708767 0)
(10.0906 0.102349 0)
(10.1372 0.140118 0)
(10.1549 0.178345 0)
(10.1334 0.218806 0)
(10.0754 0.269242 0)
(10.0703 -0.050766 0)
(10.0614 0.00565978 0)
(10.1925 0.0613694 0)
(10.2582 0.0802655 0)
(10.2435 0.0870319 0)
(10.2203 0.0944275 0)
(10.207 0.100719 0)
(10.1919 0.102624 0)
(10.1628 0.0986809 0)
(10.1164 0.090931 0)
(10.062 0.0845735 0)
(10.0172 0.0863635 0)
(9.9946 0.0996316 0)
(9.99562 0.124094 0)
(10.0128 0.156747 0)
(10.0352 0.193498 0)
(10.0493 0.231774 0)
(10.0573 0.281507 0)
(10.1986 0.157821 0)
(10.2072 0.109234 0)
(10.0836 0.0732737 0)
(10.0178 0.041525 0)
(10.0726 0.0359217 0)
(10.1929 0.0597724 0)
(10.2732 0.0941789 0)
(10.2687 0.121421 0)
(10.2048 0.130666 0)
(10.1279 0.121048 0)
(10.0689 0.10089 0)
(10.0351 0.0834124 0)
(10.0208 0.0785564 0)
(10.0147 0.0916675 0)
(10.0112 0.122336 0)
(10.0095 0.165236 0)
(10.0061 0.215327 0)
(10.0083 0.272306 0)
(9.9304 -0.101204 0)
(10.1338 0.0550259 0)
(10.1422 0.136035 0)
(10.0057 0.0940001 0)
(9.9112 0.0376333 0)
(9.94036 0.03109 0)
(10.0342 0.0708668 0)
(10.1106 0.119171 0)
(10.1296 0.143054 0)
(10.0931 0.13739 0)
(10.0248 0.118498 0)
(9.95059 0.105532 0)
(9.88887 0.108519 0)
(9.84574 0.128374 0)
(9.8237 0.160275 0)
(9.82157 0.198483 0)
(9.83677 0.235252 0)
(9.87055 0.271708 0)
(9.96725 0.0792644 0)
(9.9389 0.0181228 0)
(10.0968 0.0937424 0)
(10.1608 0.107278 0)
(10.1108 0.0527815 0)
(10.0453 0.0131563 0)
(10.0305 0.0317089 0)
(10.0709 0.0895887 0)
(10.1344 0.143822 0)
(10.1871 0.167969 0)
(10.2107 0.162685 0)
(10.2018 0.143767 0)
(10.1675 0.128533 0)
(10.1208 0.126713 0)
(10.0747 0.140165 0)
(10.0421 0.165111 0)
(10.0278 0.193073 0)
(10.0344 0.222947 0)
(10.0595 -0.0443379 0)
(10.037 0.028067 0)
(10.0038 0.0886528 0)
(9.99568 0.106128 0)
(9.9714 0.0879254 0)
(9.93543 0.067153 0)
(9.92569 0.0625552 0)
(9.96956 0.0743817 0)
(10.0548 0.0892912 0)
(10.1438 0.0995694 0)
(10.2038 0.10944 0)
(10.2233 0.125277 0)
(10.2062 0.148029 0)
(10.1698 0.174351 0)
(10.125 0.198982 0)
(10.0883 0.219428 0)
(10.0596 0.233119 0)
(10.0467 0.241622 0)
(10.0744 0.0661716 0)
(10.1454 0.0401394 0)
(10.1164 0.098209 0)
(10.0109 0.108115 0)
(9.93984 0.0668007 0)
(9.92534 0.0220575 0)
(9.93498 0.00979344 0)
(9.94231 0.0320834 0)
(9.93354 0.068477 0)
(9.90774 0.100828 0)
(9.87689 0.123493 0)
(9.86055 0.14005 0)
(9.86947 0.154999 0)
(9.90482 0.171709 0)
(9.95388 0.190371 0)
(10.0027 0.209362 0)
(10.0378 0.227405 0)
(10.0483 0.240849 0)
(10.1096 -0.0274966 0)
(10.0696 -0.00558914 0)
(9.98059 0.148861 0)
(9.91471 0.183416 0)
(9.92057 0.131146 0)
(9.93694 0.0783704 0)
(9.91352 0.062433 0)
(9.86151 0.0786763 0)
(9.81263 0.107153 0)
(9.78673 0.130292 0)
(9.7886 0.139111 0)
(9.81388 0.135598 0)
(9.85407 0.127741 0)
(9.89919 0.125339 0)
(9.94453 0.135393 0)
(9.98316 0.158295 0)
(10.0157 0.192859 0)
(10.0368 0.23021 0)
(10.1567 0.0358933 0)
(9.91885 0.165801 0)
(9.87135 0.186019 0)
(9.95078 0.125963 0)
(10.038 0.0518668 0)
(10.0589 0.0216683 0)
(10.0118 0.0401086 0)
(9.93903 0.0786735 0)
(9.88465 0.106138 0)
(9.8715 0.11096 0)
(9.89837 0.101332 0)
(9.95021 0.0925089 0)
(10.0094 0.0952596 0)
(10.0597 0.111199 0)
(10.0942 0.13732 0)
(10.1102 0.167561 0)
(10.1148 0.198427 0)
(10.1106 0.226922 0)
(9.72126 0.0491452 0)
(9.90244 0.0910869 0)
(10.0799 0.10936 0)
(10.1999 0.0822771 0)
(10.2132 0.0730113 0)
(10.1314 0.0942671 0)
(10.0253 0.124464 0)
(9.96065 0.143738 0)
(9.94909 0.142883 0)
(9.96693 0.123853 0)
(9.98954 0.096499 0)
(10.0076 0.0732635 0)
(10.0243 0.0640948 0)
(10.0461 0.0730546 0)
(10.0738 0.0999386 0)
(10.1055 0.138185 0)
(10.1331 0.182734 0)
(10.1558 0.225553 0)
(10.1006 0.0365459 0)
(10.0179 0.0819922 0)
(9.98098 0.104781 0)
(9.93974 0.0899963 0)
(9.89102 0.0982944 0)
(9.85736 0.114194 0)
(9.86843 0.117311 0)
(9.92156 0.109374 0)
(9.98707 0.0975209 0)
(10.0364 0.0853321 0)
(10.0565 0.0741409 0)
(10.0506 0.0664193 0)
(10.0296 0.0658651 0)
(10.0054 0.075817 0)
(9.98446 0.0975227 0)
(9.97265 0.12988 0)
(9.96674 0.169268 0)
(9.97139 0.21246 0)
(9.91558 0.0827854 0)
(9.92748 0.131629 0)
(9.94159 0.107625 0)
(10.0064 0.0960852 0)
(10.0805 0.104688 0)
(10.1214 0.100102 0)
(10.1339 0.0847199 0)
(10.1363 0.0763201 0)
(10.1347 0.0800163 0)
(10.1261 0.0885883 0)
(10.1094 0.0955828 0)
(10.0877 0.100792 0)
(10.0667 0.106908 0)
(10.0508 0.117169 0)
(10.0428 0.133688 0)
(10.0418 0.156538 0)
(10.0478 0.18414 0)
(10.0549 0.213743 0)
(9.96025 0.0641315 0)
(9.89884 0.118134 0)
(9.84299 0.0736886 0)
(9.85345 0.0203982 0)
(9.95583 0.0411329 0)
(10.0673 0.0891386 0)
(10.119 0.114733 0)
(10.0992 0.11483 0)
(10.0385 0.106625 0)
(9.97867 0.101276 0)
(9.9481 0.0975457 0)
(9.9536 0.0916447 0)
(9.98523 0.0843631 0)
(10.0278 0.0819485 0)
(10.0677 0.0908 0)
(10.0972 0.113206 0)
(10.1139 0.149182 0)
(10.12 0.193663 0)
(10.1527 0.117847 0)
(10.1621 0.228162 0)
(10.1332 0.132987 0)
(10.0847 0.0112946 0)
(10.09 -0.0679368 0)
(10.1282 -0.0565323 0)
(10.1502 0.037936 0)
(10.1298 0.145783 0)
(10.0822 0.200265 0)
(10.0421 0.184856 0)
(10.0292 0.126522 0)
(10.0424 0.0654521 0)
(10.0697 0.0305865 0)
(10.0965 0.0312815 0)
(10.1127 0.0619597 0)
(10.1174 0.109266 0)
(10.1135 0.160867 0)
(10.1086 0.206634 0)
(9.95806 -0.0350728 0)
(10.0053 0.096325 0)
(10.0007 0.109265 0)
(10.0357 0.0489115 0)
(10.0406 0.0166441 0)
(10.0211 0.0573054 0)
(10.0092 0.137564 0)
(10.0235 0.19429 0)
(10.0647 0.194872 0)
(10.1187 0.149222 0)
(10.1665 0.0871071 0)
(10.1968 0.0365189 0)
(10.2084 0.0136135 0)
(10.2072 0.0225158 0)
(10.1985 0.0575966 0)
(10.1865 0.107415 0)
(10.1726 0.160778 0)
(10.1614 0.206451 0)
(9.96545 0.0751504 0)
(9.90236 0.135761 0)
(9.91036 0.0878324 0)
(9.9233 -0.00230124 0)
(9.9117 -0.0433275 0)
(9.91566 -0.0304536 0)
(9.96212 0.00930554 0)
(10.0326 0.0439711 0)
(10.1021 0.0521938 0)
(10.1525 0.035674 0)
(10.1731 0.0123897 0)
(10.1673 0.00251442 0)
(10.1485 0.0173733 0)
(10.128 0.0567918 0)
(10.1104 0.110956 0)
(10.0983 0.166935 0)
(10.0914 0.214973 0)
(10.0909 0.247205 0)
(9.87582 0.0207475 0)
(9.96615 0.07779 0)
(10.0219 0.0583027 0)
(10.0801 0.0347603 0)
(10.0877 0.0195013 0)
(10.0817 -0.004428 0)
(10.0863 -0.0262056 0)
(10.0858 -0.0241638 0)
(10.0768 0.00655449 0)
(10.0703 0.0481041 0)
(10.0714 0.0786557 0)
(10.0784 0.0907246 0)
(10.089 0.0918498 0)
(10.1005 0.0954197 0)
(10.1115 0.109872 0)
(10.1212 0.135013 0)
(10.131 0.165282 0)
(10.1417 0.190898 0)
(9.87638 -0.0538472 0)
(9.92208 -0.159854 0)
(9.93916 -0.0551804 0)
(9.95925 -0.0213919 0)
(9.96864 -0.0459411 0)
(9.97126 -0.0381227 0)
(9.97726 0.0118831 0)
(9.98247 0.060502 0)
(9.99039 0.0718099 0)
(10.0039 0.0432901 0)
(10.0206 0.000158216 0)
(10.0394 -0.0266116 0)
(10.0611 -0.020124 0)
(10.0854 0.0173843 0)
(10.1112 0.0711064 0)
(10.1372 0.124279 0)
(10.1645 0.165112 0)
(10.1908 0.186686 0)
(10.085 -0.116622 0)
(10.0098 -0.0685138 0)
(10.0356 -0.0324203 0)
(10.0308 -0.01531 0)
(9.96723 -0.0121302 0)
(9.90749 -0.0212099 0)
(9.90019 -0.0284861 0)
(9.93974 -0.0211769 0)
(9.99044 -0.00438009 0)
(10.0194 0.0076506 0)
(10.0159 0.00793188 0)
(9.99234 -0.000672101 0)
(9.97035 -0.00897007 0)
(9.96625 -0.00874806 0)
(9.98695 0.00408565 0)
(10.0289 0.0278128 0)
(10.0844 0.0581625 0)
(10.1439 0.0900789 0)
(10.1074 0.038571 0)
(10.1197 -0.0540724 0)
(10.0941 -0.0330106 0)
(10.1463 0.0574239 0)
(10.2048 0.0720065 0)
(10.2126 0.0148005 0)
(10.183 -0.0434314 0)
(10.1401 -0.057644 0)
(10.1024 -0.0305904 0)
(10.0778 0.00912801 0)
(10.0638 0.0356597 0)
(10.0539 0.0383682 0)
(10.0446 0.0209595 0)
(10.0348 -0.00543376 0)
(10.0258 -0.028755 0)
(10.0224 -0.0406652 0)
(10.0271 -0.0385137 0)
(10.0419 -0.0208313 0)
(9.96707 0.00438267 0)
(9.97451 -0.0776125 0)
(9.89123 -0.086981 0)
(9.92615 -0.073598 0)
(10.007 -0.04199 0)
(10.0367 0.00557858 0)
(10.0101 0.043826 0)
(9.9726 0.0606497 0)
(9.95697 0.0587344 0)
(9.96574 0.0465297 0)
(9.98633 0.0321962 0)
(10.0072 0.0214116 0)
(10.026 0.0158426 0)
(10.0448 0.0132426 0)
(10.0664 0.0120565 0)
(10.0907 0.0126782 0)
(10.1168 0.0152991 0)
(10.1421 0.022389 0)
(9.80313 0.125878 0)
(9.85014 -0.0243105 0)
(9.86581 -0.0519641 0)
(9.85557 -0.0598624 0)
(9.87108 -0.0327407 0)
(9.91538 0.00518024 0)
(9.9685 0.0178276 0)
(10.0112 0.00561271 0)
(10.0338 -0.00844774 0)
(10.0406 -0.00906889 0)
(10.0426 -0.00139916 0)
(10.0483 -0.000853933 0)
(10.0603 -0.0153026 0)
(10.0766 -0.0423206 0)
(10.0938 -0.0711481 0)
(10.1101 -0.0907626 0)
(10.1246 -0.0945036 0)
(10.1386 -0.078167 0)
(9.96512 0.0446385 0)
(10.1252 -0.117412 0)
(10.1787 -0.0691259 0)
(10.1295 -0.0429903 0)
(10.0839 -0.0577488 0)
(10.0673 -0.060004 0)
(10.0627 -0.0330361 0)
(10.0539 0.00229005 0)
(10.0379 0.0245615 0)
(10.0235 0.0283721 0)
(10.02 0.0174185 0)
(10.0309 -0.000975504 0)
(10.0537 -0.0201798 0)
(10.0809 -0.0339011 0)
(10.1045 -0.0393567 0)
(10.1216 -0.037529 0)
(10.1328 -0.0313807 0)
(10.1417 -0.0235151 0)
(10.1006 -0.132835 0)
(10.0556 -0.13885 0)
(10.0771 -0.0580829 0)
(10.0885 -0.0220748 0)
(10.0916 -0.00779427 0)
(10.0835 0.00589947 0)
(10.074 0.0184362 0)
(10.0731 0.0237207 0)
(10.0893 0.0211606 0)
(10.1244 0.0124693 0)
(10.1703 -0.00197304 0)
(10.2138 -0.0223838 0)
(10.2452 -0.0481882 0)
(10.2612 -0.0752639 0)
(10.2633 -0.0969547 0)
(10.2587 -0.108066 0)
(10.2535 -0.106497 0)
(10.2558 -0.0932831 0)
(10.0184 -0.0948775 0)
(9.97278 -0.126991 0)
(9.93659 -0.0713193 0)
(9.91736 -0.0449253 0)
(9.91787 -0.0452125 0)
(9.93538 -0.0391651 0)
(9.97324 -0.0211809 0)
(10.0245 -0.00773082 0)
(10.0775 -0.0103307 0)
(10.1235 -0.0272827 0)
(10.1571 -0.0479003 0)
(10.1768 -0.0623354 0)
(10.1838 -0.0652948 0)
(10.1797 -0.0584289 0)
(10.1637 -0.0483354 0)
(10.139 -0.040441 0)
(10.1087 -0.0381183 0)
(10.0809 -0.0405252 0)
(10.0219 -0.109544 0)
(9.89978 -0.0805256 0)
(9.90737 -0.0327849 0)
(9.963 -0.0197192 0)
(10.0037 -0.0223676 0)
(10.0139 -0.0266355 0)
(10.0169 -0.0305829 0)
(10.0329 -0.0326744 0)
(10.0659 -0.0318512 0)
(10.1049 -0.029768 0)
(10.1324 -0.0305078 0)
(10.1378 -0.0364858 0)
(10.1225 -0.045896 0)
(10.0958 -0.0545763 0)
(10.0689 -0.0594649 0)
(10.0492 -0.0596508 0)
(10.0411 -0.0561327 0)
(10.0427 -0.0516563 0)
(10.1299 -0.087628 0)
(10.0645 -0.05866 0)
(10.1546 -0.0849912 0)
(10.2024 -0.0790713 0)
(10.1976 -0.0584672 0)
(10.1616 -0.0388673 0)
(10.1237 -0.030526 0)
(10.0962 -0.0367694 0)
(10.0811 -0.0511859 0)
(10.0798 -0.0637429 0)
(10.092 -0.0667846 0)
(10.1145 -0.0588068 0)
(10.1412 -0.0446855 0)
(10.164 -0.0323628 0)
(10.1744 -0.0272577 0)
(10.1707 -0.0296981 0)
(10.155 -0.0371574 0)
(10.1358 -0.0451536 0)
(9.81872 0.00563606 0)
(9.75946 -0.0525212 0)
(9.47653 -0.0851879 0)
(9.1956 -0.0528783 0)
(9.04264 -0.017652 0)
(8.97203 -0.00496573 0)
(8.92184 -0.00779477 0)
(8.85788 -0.0144925 0)
(8.76989 -0.0214088 0)
(8.65673 -0.032109 0)
(8.52072 -0.0475013 0)
(8.37337 -0.0616089 0)
(8.23201 -0.0676963 0)
(8.11099 -0.063759 0)
(8.01198 -0.0532478 0)
(7.9312 -0.0414813 0)
(7.85909 -0.0334411 0)
(7.79012 -0.0321359 0)
(0.0727857 -0.1662 -1.44081e-22)
(0.272106 -0.267599 1.49668e-22)
(0.510559 -0.288384 0)
(0.748042 -0.288664 0)
(0.984431 -0.285085 0)
(1.22196 -0.281318 -2.93137e-22)
(1.46136 -0.277426 0)
(1.70197 -0.272431 0)
(1.94201 -0.264921 0)
(2.17811 -0.253391 0)
(2.40545 -0.235954 7.41118e-22)
(2.61724 -0.211268 0)
(2.8051 -0.177587 0)
(2.95997 -0.133842 0)
(3.07182 -0.0789896 0)
(3.13342 -0.0101511 1.2487e-21)
(3.13245 0.072482 0)
(3.0603 0.16606 0)
(2.91638 0.262052 0)
(2.71269 0.338714 0)
(2.48202 0.398753 0)
(2.24751 0.420362 0)
(2.03737 0.302134 0)
(1.85155 -0.0277425 8.93607e-22)
(1.6422 -0.425793 -8.32433e-22)
(1.41497 -0.521574 8.10486e-22)
(0.997786 -0.0907157 7.66788e-22)
(0.199308 0.597432 0)
(-0.86579 0.995651 0)
(-1.99324 1.09376 -6.33683e-22)
(-3.0657 1.03877 -7.80474e-22)
(-4.03886 0.932333 0)
(-4.9164 0.827317 0)
(-5.70748 0.73 -1.67612e-21)
(-6.41938 0.643142 0)
(-7.06062 0.566336 0)
(-7.63736 0.49858 2.77684e-21)
(-8.15483 0.438116 0)
(-8.61631 0.38307 3.44974e-21)
(-9.02398 0.331754 7.49034e-21)
(-9.37871 0.282886 0)
(-9.68062 0.235564 0)
(-9.92928 0.189392 0)
(-10.1244 0.144457 0)
(-10.2661 0.101123 0)
(-10.3542 0.0599867 9.24117e-21)
(-10.3891 0.0217988 9.18097e-21)
(-10.3719 -0.0128705 9.01961e-21)
(-10.3123 -0.0444759 0)
(-10.2082 -0.0734108 -8.42324e-21)
(-10.0661 -0.0993727 0)
(-9.88816 -0.12234 7.53041e-21)
(-9.67933 -0.142098 7.00359e-21)
(-9.44324 -0.158706 0)
(-9.18421 -0.172205 0)
(-8.90606 -0.18286 0)
(-8.6124 -0.190916 4.64537e-21)
(-8.3065 -0.196723 0)
(-7.99124 -0.20063 0)
(-7.66913 -0.203005 0)
(-7.34212 -0.204272 0)
(-7.01149 -0.20491 0)
(-6.67761 -0.205474 0)
(-6.33981 -0.206556 0)
(-5.9963 -0.208722 0)
(-5.64438 -0.212384 2.06497e-22)
(-5.28099 -0.217644 0)
(-4.90346 -0.224158 0)
(-4.51024 -0.231169 -1.54189e-21)
(-4.10151 -0.23767 -1.9582e-21)
(-3.6793 -0.242651 0)
(-3.24708 -0.245335 2.72516e-21)
(-2.80906 -0.245321 -3.06652e-21)
(-2.36964 -0.242518 0)
(-1.93321 -0.237036 3.64719e-21)
(-1.50405 -0.229171 0)
(-1.086 -0.219382 0)
(-0.682709 -0.207982 -4.24103e-21)
(-0.296883 -0.195271 0)
(0.066166 -0.18227 4.45827e-21)
(0.406673 -0.168899 0)
(0.727728 -0.155425 -4.55155e-21)
(1.02736 -0.142149 -4.56403e-21)
(1.30568 -0.129287 -4.55864e-21)
(1.56317 -0.116987 -9.07705e-21)
(1.80052 -0.105341 9.01306e-21)
(2.01862 -0.094405 0)
(2.21844 -0.0842086 0)
(2.40105 -0.0747639 0)
(2.56754 -0.0660712 8.60953e-21)
(2.71907 -0.0581207 8.4888e-21)
(2.85678 -0.0508923 -8.36504e-21)
(2.98181 -0.0443555 0)
(3.09529 -0.0384696 8.11486e-21)
(3.19826 -0.0331852 7.99079e-21)
(3.2917 -0.0284479 7.86852e-21)
(3.3765 -0.0242005 0)
(3.45347 -0.0203865 0)
(3.52331 -0.0169517 0)
(3.58665 -0.0138458 7.40656e-21)
(3.64401 -0.011022 0)
(3.69585 -0.00843997 0)
(3.74255 -0.00606246 -7.09379e-21)
(3.78441 -0.00386132 0)
(3.8217 -0.0018141 0)
(3.85461 9.90511e-05 -6.80995e-21)
(3.88332 0.00187498 0)
(3.908 0.00353324 0)
(3.92875 0.00505653 6.55234e-21)
(3.94581 0.00642879 6.47172e-21)
(3.95924 0.00769687 0)
(3.96927 0.0087774 -6.31765e-21)
(3.97623 0.00971187 0)
(3.97989 0.0106571 6.17242e-21)
(3.98056 0.0115218 0)
(3.97859 0.0121789 6.03504e-21)
(3.97428 0.0126098 5.9691e-21)
(3.96798 0.0128341 0)
(3.96006 0.0128831 0)
(3.95087 0.0127518 0)
(3.94071 0.0124702 0)
(3.92983 0.0120812 0)
(3.91845 0.0116136 0)
(3.90676 0.0110927 0)
(3.89492 0.0105404 5.49812e-21)
(3.88306 0.00997174 -5.44527e-21)
(3.8713 0.00939918 0)
(3.8597 0.0088329 0)
(3.84835 0.00828272 0)
(3.83728 0.00775676 0)
(3.82653 0.00725835 -1.03936e-20)
(3.81611 0.00678846 0)
(3.80604 0.00634953 1.02075e-20)
(3.79632 0.00594552 -1.01168e-20)
(3.78693 0.00557789 0)
(3.77787 0.00524324 0)
(3.76912 0.00493627 0)
(3.76066 0.00465609 9.76783e-21)
(3.75249 0.00440795 9.68367e-21)
(3.74457 0.00419805 0)
(3.73686 0.00402487 9.51862e-21)
(3.72934 0.00387559 9.4376e-21)
(3.72199 0.00373057 -9.35751e-21)
(3.71483 0.00357309 0)
(3.70788 0.00339715 0)
(3.70118 0.00320879 -9.12259e-21)
(3.69476 0.00302113 0)
(3.68861 0.00284732 0)
(3.68272 0.00269531 0)
(3.67707 0.00256662 0)
(3.67162 0.00245792 8.74771e-21)
(3.66633 0.0023643 8.67502e-21)
(3.66118 0.00228121 0)
(3.65613 0.00220623 8.53175e-21)
(3.65117 0.00213823 0)
(3.64626 0.00207802 0)
(3.64139 0.00202608 8.32198e-21)
(3.63654 0.0019844 0)
(3.63166 0.00195328 8.18549e-21)
(3.62676 0.0019354 0)
(3.62174 0.00193083 0)
(3.61665 0.00194322 7.98597e-21)
(3.61131 0.00197407 0)
(3.60586 0.00202664 7.85672e-21)
(3.59991 0.00211003 0)
(3.59384 0.0022181 0)
(3.5868 0.00239016 0)
(3.57971 0.00257422 -7.60962e-21)
(3.57079 0.00291774 0)
(3.56195 0.00319231 7.49405e-21)
(3.54977 0.00390861 0)
(3.53775 0.0042336 0)
(3.52006 0.00586235 0)
(3.50127 0.00598409 0)
(3.47482 0.0101026 0)
(3.43866 0.00902509 0)
(3.40041 0.0207276 0)
(3.31159 0.0152717 -1.43941e-20)
(3.2648 0.0551017 0)
(2.98978 0.0450908 0)
(0.0863135 -0.566684 4.37792e-22)
(0.240419 -0.724317 -4.60573e-22)
(0.400209 -0.730034 0)
(0.561323 -0.723362 4.10672e-22)
(0.728554 -0.722697 0)
(0.903046 -0.726246 2.93254e-22)
(1.08448 -0.730133 -7.38764e-22)
(1.27138 -0.730185 -9.02115e-22)
(1.46166 -0.722124 0)
(1.65179 -0.70123 -1.31171e-21)
(1.83684 -0.662484 -7.41963e-22)
(2.01104 -0.600483 0)
(2.16559 -0.513135 0)
(2.29565 -0.400728 0)
(2.39294 -0.265137 0)
(2.45437 -0.106166 -1.25099e-21)
(2.4705 0.0632784 0)
(2.4307 0.223361 2.88044e-21)
(2.32724 0.351689 0)
(2.14559 0.414042 0)
(1.87996 0.404283 -2.57164e-21)
(1.49909 0.374588 0)
(0.969681 0.444131 2.20401e-21)
(0.229005 0.772476 -8.96428e-22)
(-0.836115 1.29432 8.33554e-22)
(-2.01605 1.80868 -8.0863e-22)
(-3.06284 2.22479 -7.61782e-22)
(-3.96632 2.48895 0)
(-4.75689 2.53519 0)
(-5.44748 2.42648 6.27026e-22)
(-6.06932 2.23922 -1.69958e-21)
(-6.63347 2.03115 0)
(-7.15121 1.82725 0)
(-7.62646 1.63851 1.66613e-21)
(-8.06423 1.46804 0)
(-8.46755 1.31482 0)
(-8.83867 1.17563 -2.76636e-21)
(-9.17855 1.0466 0)
(-9.48717 0.924233 3.94862e-21)
(-9.76332 0.805724 -7.47286e-21)
(-10.0052 0.689 0)
(-10.2107 0.572843 0)
(-10.3778 0.456859 -1.84225e-20)
(-10.5048 0.341317 -1.88956e-20)
(-10.5905 0.227063 -1.91597e-20)
(-10.6344 0.1156 9.9725e-21)
(-10.6371 0.00873535 -9.17633e-21)
(-10.5996 -0.0921097 -2.76809e-20)
(-10.5164 -0.186037 1.81012e-20)
(-10.3942 -0.27208 8.41797e-21)
(-10.233 -0.349306 0)
(-10.0382 -0.417132 -7.52522e-21)
(-9.81283 -0.475213 7.36103e-21)
(-9.56185 -0.523657 0)
(-9.28917 -0.562825 0)
(-8.99884 -0.593439 0)
(-8.69448 -0.616371 -4.64196e-21)
(-8.37922 -0.632637 0)
(-8.05591 -0.643282 7.04863e-21)
(-7.72692 -0.649405 0)
(-7.39425 -0.652239 4.75143e-21)
(-7.0592 -0.653237 0)
(-6.72219 -0.654086 -2.62888e-21)
(-6.38251 -0.656624 0)
(-6.03812 -0.662629 6.74632e-22)
(-5.68578 -0.673449 4.57587e-23)
(-5.32156 -0.689511 0)
(-4.9418 -0.709904 2.03424e-21)
(-4.54419 -0.732336 1.54073e-21)
(-4.12858 -0.753587 1.9567e-21)
(-3.69718 -0.770283 0)
(-3.25407 -0.779779 2.55638e-21)
(-2.80425 -0.780738 3.06424e-21)
(-2.3527 -0.772975 0)
(-1.90413 -0.756996 -3.64474e-21)
(-1.46301 -0.733807 7.65891e-21)
(-1.0335 -0.704684 0)
(-0.619292 -0.670869 4.2388e-21)
(-0.223646 -0.633322 0)
(0.148323 -0.595577 -1.33124e-20)
(0.497694 -0.555749 0)
(0.827395 -0.51603 1.36051e-20)
(1.13531 -0.477109 4.56125e-21)
(1.42185 -0.439522 -4.52407e-21)
(1.68773 -0.403615 -9.01478e-21)
(1.9339 -0.369598 8.9566e-21)
(2.16144 -0.337588 0)
(2.37152 -0.307655 0)
(2.56533 -0.27984 0)
(2.74402 -0.254162 -2.57803e-20)
(2.90875 -0.23061 -8.48478e-21)
(3.06061 -0.20914 8.3611e-21)
(3.2007 -0.189669 0)
(3.33005 -0.172081 8.08512e-21)
(3.44964 -0.156238 -7.98693e-21)
(3.56041 -0.141984 -7.86465e-21)
(3.66322 -0.129159 0)
(3.75883 -0.117602 0)
(3.84796 -0.107157 0)
(3.93123 -0.0976799 -7.40252e-21)
(4.00916 -0.0890333 0)
(4.08224 -0.0810929 1.43679e-20)
(4.15084 -0.0737449 2.12565e-20)
(4.21531 -0.0668903 -1.39724e-20)
(4.27588 -0.0604454 0)
(4.33278 -0.0543408 -6.79617e-21)
(4.38617 -0.0485342 0)
(4.43614 -0.0429868 -1.32538e-20)
(4.48284 -0.0376912 6.5404e-21)
(4.52631 -0.0326536 6.46026e-21)
(4.56665 -0.0278536 0)
(4.60402 -0.0233456 1.8932e-20)
(4.63831 -0.0191194 -1.24723e-20)
(4.67005 -0.0150987 -6.16707e-21)
(4.69939 -0.0113646 0)
(4.72643 -0.00803918 -6.02949e-21)
(4.75123 -0.00514748 -1.78867e-20)
(4.77385 -0.00265539 0)
(4.7944 -0.00054921 -1.16702e-20)
(4.81294 0.00121677 -1.15484e-20)
(4.82961 0.00268425 -1.14297e-20)
(4.84455 0.00387038 0)
(4.85788 0.0047988 0)
(4.86972 0.00550511 0)
(4.88021 0.00602354 5.49047e-21)
(4.88946 0.00638081 5.43897e-21)
(4.89759 0.00660509 0)
(4.90471 0.00671834 1.06723e-20)
(4.91093 0.00674047 1.05731e-20)
(4.91632 0.00669143 0)
(4.92098 0.0065876 1.0381e-20)
(4.925 0.006442 2.05734e-20)
(4.92843 0.00626572 -1.0195e-20)
(4.93135 0.0060692 -1.01037e-20)
(4.93381 0.00586115 0)
(4.93587 0.00564743 0)
(4.93758 0.00543118 0)
(4.93899 0.00521593 -9.75574e-21)
(4.94012 0.00500704 9.67135e-21)
(4.94102 0.00481043 1.91772e-20)
(4.94173 0.00462837 -9.50685e-21)
(4.94227 0.00445666 9.42571e-21)
(4.94268 0.00428538 9.34597e-21)
(4.94299 0.00410328 0)
(4.9432 0.00390317 0)
(4.94332 0.00368493 -9.11134e-21)
(4.94337 0.00345523 0)
(4.94337 0.00322472 0)
(4.94333 0.00300454 1.7769e-20)
(4.94328 0.00280376 0)
(4.94324 0.00262803 8.73713e-21)
(4.94322 0.00247976 -8.66462e-21)
(4.94321 0.00235864 0)
(4.94321 0.00226298 8.52153e-21)
(4.94317 0.00219037 0)
(4.94309 0.00213885 0)
(4.94293 0.00210698 -8.31221e-21)
(4.94267 0.00209435 1.64874e-20)
(4.9423 0.00210206 -8.17598e-21)
(4.9418 0.00213089 0)
(4.94114 0.00218645 0)
(4.94031 0.002268 7.9765e-21)
(4.93928 0.00239206 0)
(4.93803 0.00254711 7.84733e-21)
(4.93649 0.00278082 0)
(4.93464 0.00304092 0)
(4.93235 0.00346691 0)
(4.92957 0.00387295 7.60114e-21)
(4.92614 0.00466799 0)
(4.92181 0.00525732 -7.48576e-21)
(4.91658 0.00683159 0)
(4.90946 0.00757997 0)
(4.9014 0.0109454 1.46552e-20)
(4.8887 0.0115915 -1.4564e-20)
(4.87629 0.0194411 0)
(4.85109 0.0191199 0)
(4.83267 0.0394327 0)
(4.77652 0.0370685 4.30582e-20)
(4.75414 0.098169 0)
(4.62269 0.103948 -2.8686e-20)
(0.0537703 -0.847799 -5.2516e-23)
(0.113486 -0.940679 5.70911e-22)
(0.178967 -0.945638 0)
(0.246106 -0.961523 -7.68221e-22)
(0.322272 -0.985656 0)
(0.404 -1.01056 0)
(0.490531 -1.03208 5.96483e-23)
(0.579408 -1.04471 9.0363e-22)
(0.668463 -1.04338 1.03782e-21)
(0.754285 -1.02175 1.31469e-21)
(0.832313 -0.9714 0)
(0.894797 -0.885245 0)
(0.931712 -0.762583 -2.06036e-21)
(0.928236 -0.607621 -4.66284e-21)
(0.877843 -0.415493 5.15381e-21)
(0.761422 -0.165385 0)
(0.58271 0.136102 5.82959e-21)
(0.331158 0.462241 -2.89611e-21)
(-0.00379391 0.79978 0)
(-0.441604 1.15692 5.73617e-21)
(-1.00874 1.54369 2.57443e-21)
(-1.70394 1.95611 -5.26156e-21)
(-2.48139 2.37554 -2.19101e-21)
(-3.27684 2.76794 0)
(-4.05457 3.08834 4.82989e-21)
(-4.75449 3.32467 4.85884e-21)
(-5.34254 3.46696 0)
(-5.81974 3.4921 5.31596e-21)
(-6.2062 3.39153 0)
(-6.53979 3.2012 6.29914e-21)
(-6.85611 2.96388 2.46531e-21)
(-7.171 2.71681 0)
(-7.49343 2.47841 0)
(-7.82281 2.25846 0)
(-8.15707 2.05749 0)
(-8.49073 1.87243 0)
(-8.81803 1.69821 0)
(-9.13215 1.52985 1.49708e-20)
(-9.4266 1.36333 -2.35357e-20)
(-9.69537 1.19584 0)
(-9.93323 1.02569 0)
(-10.1354 0.852308 0)
(-10.2979 0.67609 -1.26059e-21)
(-10.4176 0.498128 1.88949e-20)
(-10.492 0.319982 3.95189e-20)
(-10.5196 0.143541 -3.95788e-20)
(-10.5008 -0.0288843 -2.01461e-20)
(-10.4374 -0.194192 1.86693e-20)
(-10.3312 -0.348734 9.47026e-22)
(-10.1853 -0.489763 1.82213e-20)
(-10.0036 -0.615526 0)
(-9.79042 -0.724906 1.61352e-20)
(-9.55047 -0.817629 5.79386e-22)
(-9.28837 -0.89396 0)
(-9.00862 -0.954826 0)
(-8.71525 -1.0015 -1.10852e-20)
(-8.41178 -1.03564 0)
(-8.10119 -1.05899 0)
(-7.78598 -1.07332 7.52265e-21)
(-7.46836 -1.0804 1.21875e-20)
(-7.15017 -1.08221 -4.75057e-21)
(-6.83268 -1.08111 0)
(-6.51622 -1.08003 2.62821e-21)
(-6.19987 -1.0823 0)
(-5.88104 -1.09133 1.14268e-21)
(-5.55542 -1.10987 -2.52008e-22)
(-5.21731 -1.13892 1.73764e-21)
(-4.86084 -1.17684 1.42298e-21)
(-4.48159 -1.21906 0)
(-4.07805 -1.25914 -6.81312e-21)
(-3.65225 -1.2905 0)
(-3.20961 -1.30816 -1.5252e-20)
(-2.75721 -1.31002 -1.14222e-20)
(-2.30173 -1.2963 -1.27448e-20)
(-1.84857 -1.26832 1.39277e-20)
(-1.40269 -1.22797 -2.2613e-20)
(-0.968642 -1.17738 0)
(-0.550147 -1.11861 0)
(-0.152591 -1.0542 1.71111e-20)
(0.221213 -0.988537 2.63655e-20)
(0.572729 -0.919889 0)
(0.902047 -0.851786 -9.05047e-21)
(1.20843 -0.785494 0)
(1.49211 -0.721974 2.71156e-20)
(1.7537 -0.661845 9.76906e-23)
(1.99406 -0.605428 -8.78794e-23)
(2.21434 -0.552835 -1.77175e-20)
(2.41595 -0.504042 0)
(2.6005 -0.458956 1.7331e-20)
(2.76974 -0.417467 6.02355e-23)
(2.92534 -0.379462 0)
(3.06885 -0.344825 0)
(3.20161 -0.313413 0)
(3.32474 -0.285051 -1.61933e-20)
(3.43918 -0.259528 0)
(3.54573 -0.236606 0)
(3.6451 -0.216035 0)
(3.73793 -0.197563 0)
(3.82481 -0.180947 0)
(3.90628 -0.165954 -1.47618e-20)
(3.98285 -0.152363 0)
(4.05494 -0.13997 -1.43671e-20)
(4.12294 -0.128588 -1.41663e-20)
(4.18715 -0.11805 1.39718e-20)
(4.24785 -0.10821 0)
(4.30523 -0.0989536 1.36011e-20)
(4.35945 -0.0901868 0)
(4.41064 -0.0818525 1.32534e-20)
(4.4589 -0.0739159 -1.30876e-20)
(4.50431 -0.0663562 -3.87589e-20)
(4.54695 -0.0591941 0)
(4.58691 -0.0524248 -3.78398e-20)
(4.6243 -0.0460727 -1.24558e-20)
(4.65919 -0.0402048 0)
(4.69168 -0.034828 -2.43666e-20)
(4.7219 -0.0299469 -2.40974e-20)
(4.74998 -0.025562 3.57583e-20)
(4.77605 -0.0216473 0)
(4.80019 -0.0181846 1.167e-20)
(4.82258 -0.0151106 1.15483e-20)
(4.84331 -0.0123934 3.42814e-20)
(4.86248 -0.0100322 0)
(4.88019 -0.00800042 0)
(4.89654 -0.00625995 0)
(4.91161 -0.00477854 1.09775e-20)
(4.92548 -0.00352655 0)
(4.93824 -0.00246848 0)
(4.94996 -0.00158287 -1.06717e-20)
(4.96071 -0.000844213 -1.05725e-20)
(4.97055 -0.000229682 0)
(4.97955 0.000276973 0)
(4.98778 0.000691114 -2.05719e-20)
(4.99529 0.00102762 0)
(5.00213 0.00130013 2.02064e-20)
(5.00836 0.00151986 2.0027e-20)
(5.01403 0.00169422 0)
(5.01918 0.00182797 0)
(5.02386 0.00192744 -1.95084e-20)
(5.0281 0.00200201 -6.72325e-25)
(5.03195 0.00206065 -5.94344e-25)
(5.03545 0.00210633 0)
(5.03864 0.00213387 -3.76988e-20)
(5.04154 0.00213373 0)
(5.04418 0.0020989 0)
(5.04657 0.00202942 0)
(5.04873 0.00193185 1.82207e-20)
(5.05066 0.00181513 0)
(5.05239 0.00168677 -3.58327e-20)
(5.05393 0.00155218 -1.77669e-20)
(5.0553 0.00141622 0)
(5.05653 0.0012854 -1.74722e-20)
(5.05764 0.00116807 0)
(5.05863 0.00107327 0)
(5.05952 0.00100795 -5.1123e-20)
(5.06032 0.000976487 3.38e-20)
(5.06103 0.000978816 0)
(5.06165 0.00101431 3.32442e-20)
(5.06217 0.00107877 -1.64854e-20)
(5.06258 0.00117364 0)
(5.06287 0.00129416 0)
(5.06305 0.00145147 0)
(5.06308 0.00163704 -4.78533e-20)
(5.06297 0.0018826 0)
(5.06264 0.00216139 -1.56932e-20)
(5.06214 0.00255346 0)
(5.06131 0.00297405 0)
(5.06025 0.00362672 0)
(5.05864 0.00426094 0)
(5.05675 0.00540349 0)
(5.05386 0.00635104 0)
(5.05066 0.00847747 -2.97081e-20)
(5.04553 0.00986133 0)
(5.04021 0.0140965 -1.46532e-20)
(5.03104 0.0160649 4.36686e-20)
(5.02214 0.0251754 0)
(5.00544 0.0282258 0)
(4.99051 0.0498277 -2.86754e-20)
(4.96077 0.0576234 -2.86753e-20)
(4.93839 0.11494 2.85258e-20)
(4.89844 0.145739 2.86783e-20)
(0.00741072 -0.905735 -4.58207e-22)
(-0.0215972 -0.961276 -5.10856e-22)
(-0.0406875 -0.975131 -3.20447e-22)
(-0.0653939 -0.992669 -6.89172e-23)
(-0.0901776 -1.01636 0)
(-0.120397 -1.0379 7.66092e-22)
(-0.157974 -1.05159 -3.27459e-22)
(-0.206308 -1.05071 0)
(-0.268605 -1.02969 -1.039e-21)
(-0.350639 -0.978126 0)
(-0.458486 -0.879966 2.51967e-21)
(-0.596342 -0.721736 0)
(-0.769777 -0.501214 2.06162e-21)
(-0.988534 -0.222689 4.66295e-21)
(-1.2493 0.107848 -5.1475e-21)
(-1.54214 0.485178 0)
(-1.87145 0.907198 -5.80341e-21)
(-2.24283 1.36132 0)
(-2.65864 1.83164 0)
(-3.11589 2.298 -5.6882e-21)
(-3.60842 2.74512 0)
(-4.12035 3.15511 -1.03632e-22)
(-4.62439 3.51205 0)
(-5.09086 3.79717 0)
(-5.49838 3.99154 8.45432e-22)
(-5.83844 4.0883 -4.83958e-21)
(-6.11911 4.08682 -6.30535e-21)
(-6.35623 3.99775 -5.30451e-21)
(-6.57236 3.83835 0)
(-6.78784 3.63488 -1.43607e-20)
(-7.01456 3.41113 0)
(-7.25652 3.18497 -9.78075e-21)
(-7.51542 2.96513 0)
(-7.78868 2.75523 0)
(-8.07207 2.55361 1.30218e-20)
(-8.35901 2.35683 0)
(-8.64257 2.16077 -1.54395e-20)
(-8.91546 1.96175 1.67908e-21)
(-9.17096 1.75675 3.39623e-20)
(-9.40281 1.54364 -3.77931e-20)
(-9.60539 1.32151 0)
(-9.77355 1.09064 0)
(-9.90297 0.852414 -2.29402e-20)
(-9.99048 0.609269 0)
(-10.0341 0.364347 -2.03739e-20)
(-10.0321 0.120839 2.0388e-20)
(-9.98308 -0.116918 2.01656e-20)
(-9.88782 -0.342831 0)
(-9.74873 -0.553144 -1.90677e-20)
(-9.57075 -0.743977 -1.82374e-20)
(-9.35875 -0.912846 3.64896e-20)
(-9.11868 -1.05815 -1.61492e-20)
(-8.85632 -1.17953 -1.4952e-20)
(-8.57751 -1.27759 0)
(-8.28753 -1.35383 0)
(-7.99091 -1.41037 1.10943e-20)
(-7.69136 -1.44969 0)
(-7.39179 -1.47449 0)
(-7.09473 -1.48744 -1.4581e-20)
(-6.80266 -1.49111 -1.21958e-20)
(-6.51801 -1.48816 0)
(-6.24246 -1.48178 0)
(-5.97619 -1.47594 0)
(-5.71737 -1.47553 0)
(-5.46179 -1.48608 -1.81749e-21)
(-5.20266 -1.51271 6.53577e-22)
(-4.93092 -1.55799 -1.73754e-21)
(-4.63622 -1.62001 -6.10788e-21)
(-4.30965 -1.69109 0)
(-3.94615 -1.75959 8.80399e-22)
(-3.5461 -1.81392 0)
(-3.11646 -1.84545 9.96995e-21)
(-2.66842 -1.85156 7.5411e-22)
(-2.21286 -1.83407 1.27363e-20)
(-1.75786 -1.796 -1.39186e-20)
(-1.30991 -1.74001 4.99875e-22)
(-0.874257 -1.66886 0)
(-0.454713 -1.58614 -1.61875e-20)
(-0.0575651 -1.49501 -1.70996e-20)
(0.316057 -1.39994 -3.4742e-20)
(0.66818 -1.30216 0)
(0.997843 -1.20478 1.77528e-20)
(1.30531 -1.10968 0)
(1.5912 -1.01814 -3.59044e-20)
(1.85604 -0.93102 1.79692e-20)
(2.10011 -0.848991 -1.78587e-20)
(2.32341 -0.772617 1.77084e-20)
(2.52604 -0.702329 3.48514e-20)
(2.70859 -0.638329 -1.73233e-20)
(2.87243 -0.580531 1.71025e-20)
(3.01967 -0.52858 0)