/*--------------------------------*- C++ -*----------------------------------*\
  =========                 |
  \\      /  F ield         | OpenFOAM: The Open Source CFD Toolbox
   \\    /   O peration     | Website:  https://openfoam.org
    \\  /    A nd           | Version:  9
     \\/     M anipulation  |
\*---------------------------------------------------------------------------*/
FoamFile
{
    format      ascii;
    class       volScalarField;
    location    "0.12";
    object      k;
}
// * * * * * * * * * * * * * * * * * * * * * * * * * * * * * * * * * * * * * //

dimensions      [0 2 -2 0 0 0 0];

internalField   nonuniform List<scalar> 
12225
(
0.314461
0.264116
0.226172
0.198688
0.180266
0.16977
0.166173
0.168458
0.175596
0.186579
0.200466
0.216426
0.233788
0.252072
0.271033
0.290694
0.311579
0.342132
0.362008
0.350203
0.347445
0.357314
0.380182
0.415019
0.459938
0.51248
0.569993
0.630007
0.690506
0.75008
0.808004
0.864254
0.919587
0.975515
1.03523
1.10243
0.368494
0.362643
0.357126
0.353136
0.351839
0.353714
0.358798
0.36688
0.377583
0.390456
0.40508
0.421149
0.43855
0.457442
0.478364
0.50243
0.531684
0.569676
0.369749
0.364152
0.358737
0.353759
0.349567
0.346367
0.344186
0.342948
0.342526
0.342775
0.343571
0.344835
0.346556
0.34882
0.35185
0.356089
0.362334
0.371914
0.370288
0.365251
0.360268
0.355451
0.350923
0.346783
0.343073
0.339789
0.33689
0.334325
0.332035
0.329973
0.328112
0.32645
0.325025
0.323932
0.323362
0.323637
0.370515
0.365858
0.361278
0.356806
0.352491
0.348379
0.344499
0.340862
0.33746
0.334278
0.331293
0.328486
0.325837
0.323339
0.320993
0.318815
0.316838
0.315116
0.370602
0.366142
0.361823
0.357636
0.353589
0.349695
0.345965
0.342406
0.339019
0.335801
0.332746
0.329847
0.327101
0.324505
0.322063
0.319781
0.317669
0.315736
0.37063
0.366257
0.362079
0.358073
0.354226
0.350532
0.346989
0.343595
0.340349
0.337251
0.334298
0.331491
0.32883
0.326321
0.32397
0.321787
0.319781
0.317962
0.370638
0.366298
0.362184
0.358273
0.354545
0.350987
0.347587
0.344338
0.341234
0.338273
0.335452
0.332772
0.330236
0.32785
0.325623
0.323565
0.321688
0.320006
0.370639
0.36631
0.362221
0.358352
0.354684
0.351201
0.347889
0.344737
0.341737
0.338883
0.336172
0.333603
0.331178
0.328902
0.326784
0.324833
0.32306
0.32148
0.370638
0.366312
0.362232
0.358379
0.354737
0.35129
0.348023
0.344926
0.341988
0.339202
0.336564
0.334072
0.331726
0.32953
0.32749
0.325612
0.323906
0.322389
0.370637
0.366311
0.362233
0.358386
0.354753
0.35132
0.348073
0.344999
0.342091
0.339339
0.33674
0.334289
0.331986
0.329832
0.327832
0.32599
0.324314
0.322818
0.370636
0.36631
0.362233
0.358388
0.354759
0.351332
0.348094
0.345032
0.342139
0.339406
0.336827
0.334398
0.332119
0.329988
0.328008
0.326181
0.324512
0.323015
0.370635
0.366309
0.362232
0.358388
0.354761
0.351337
0.348103
0.345049
0.342163
0.33944
0.336871
0.334454
0.332185
0.330062
0.328086
0.326257
0.324577
0.32306
0.370634
0.366307
0.362231
0.358388
0.354762
0.351341
0.34811
0.345059
0.342178
0.33946
0.336897
0.334484
0.332217
0.330093
0.328111
0.326268
0.324565
0.323014
0.370633
0.366306
0.362229
0.358387
0.354763
0.351344
0.348116
0.345069
0.342192
0.339477
0.336917
0.334506
0.332238
0.330109
0.328115
0.326254
0.324523
0.322935
0.370632
0.366304
0.362227
0.358386
0.354764
0.351347
0.348122
0.345079
0.342206
0.339495
0.336938
0.334527
0.332257
0.330121
0.328116
0.326235
0.324477
0.322853
0.370631
0.366302
0.362225
0.358385
0.354765
0.351351
0.34813
0.34509
0.342221
0.339514
0.336959
0.334548
0.332276
0.330134
0.328117
0.326218
0.324435
0.32278
0.370629
0.366299
0.362223
0.358384
0.354766
0.351355
0.348138
0.345102
0.342238
0.339534
0.336981
0.334571
0.332295
0.330147
0.328119
0.326206
0.324401
0.322719
0.370628
0.366298
0.362222
0.358384
0.354769
0.351362
0.348148
0.345116
0.342255
0.339554
0.337002
0.334592
0.332314
0.330161
0.328125
0.3262
0.324381
0.322681
0.370627
0.366297
0.362223
0.358387
0.354775
0.35137
0.34816
0.345131
0.342273
0.339573
0.337022
0.33461
0.33233
0.330172
0.32813
0.326196
0.324365
0.322652
0.370627
0.366298
0.362225
0.358392
0.354783
0.35138
0.348171
0.345143
0.342283
0.339581
0.337026
0.334609
0.332321
0.330154
0.3281
0.326152
0.324306
0.322575
0.370628
0.366299
0.362228
0.358395
0.354782
0.351375
0.348157
0.345115
0.342238
0.339515
0.336934
0.334489
0.332169
0.329967
0.327876
0.325889
0.324002
0.32223
0.370628
0.366296
0.362217
0.358366
0.354724
0.351276
0.348008
0.344908
0.341965
0.339169
0.336512
0.333986
0.331585
0.329301
0.327128
0.32506
0.323094
0.321245
0.37062
0.366263
0.362132
0.358196
0.354437
0.350847
0.347419
0.344149
0.341034
0.338069
0.335252
0.332576
0.330038
0.32763
0.325347
0.323182
0.32113
0.319205
0.370574
0.366092
0.361769
0.357588
0.353545
0.349653
0.345931
0.342392
0.339046
0.335897
0.332941
0.330176
0.32759
0.325175
0.322918
0.320808
0.318836
0.317006
0.370374
0.365525
0.360696
0.355918
0.351302
0.346956
0.342947
0.3393
0.336023
0.333108
0.330536
0.328281
0.326313
0.324602
0.323116
0.321828
0.32071
0.319749
0.369699
0.364216
0.358358
0.35257
0.347431
0.343214
0.339989
0.337746
0.336443
0.336014
0.336371
0.337419
0.339059
0.341192
0.343725
0.346573
0.349663
0.352921
0.365803
0.354673
0.345373
0.339971
0.338887
0.341934
0.34875
0.358874
0.371784
0.38695
0.403858
0.422032
0.44104
0.460504
0.480108
0.499593
0.518783
0.537414
0.336634
0.302348
0.273975
0.250534
0.23135
0.215881
0.203683
0.194375
0.187611
0.183073
0.180465
0.179515
0.17997
0.181599
0.184194
0.187569
0.191562
0.196019
0.205724
0.418264
0.490908
0.51118
0.509599
0.497318
0.479318
0.457953
0.436067
0.410929
0.380089
0.341863
0.296289
0.247237
0.20487
0.185419
0.22361
0.280145
0.280309
0.256991
0.243355
0.248712
0.343113
0.526939
0.685629
0.824063
0.940654
1.0359
1.11143
1.16932
1.21177
1.24094
1.25884
1.26727
1.2679
1.26216
1.25131
1.23645
1.21853
1.19838
1.17737
1.15565
1.13336
1.11065
1.08765
1.06449
1.04126
1.01805
0.994929
0.971923
0.949032
0.926213
0.903384
0.88042
0.85716
0.833411
0.808964
0.783618
0.757205
0.729621
0.700857
0.671017
0.640331
0.609154
0.577977
0.547448
0.518505
0.49281
0.473865
0.467211
0.46809
0.471486
0.47674
0.483741
0.492447
0.502789
0.514617
0.52766
0.541405
0.554911
0.566431
0.573203
0.571683
0.559359
0.538373
0.508647
0.470569
0.427302
0.383547
0.34362
0.309912
0.282947
0.262701
0.249656
0.244978
0.247206
0.253355
0.26168
0.271096
0.281243
0.292607
0.306857
0.324674
0.350727
0.408347
0.548512
0.729811
0.878137
0.996789
1.08795
1.15553
1.20355
1.23563
1.25497
1.26434
1.26627
1.26313
1.25592
1.24479
1.23033
1.2129
1.19272
1.16978
1.14386
1.11452
1.08107
1.04268
0.998578
0.948561
0.894071
0.841867
0.827988
0.832722
0.836697
0.839371
0.841299
0.842978
0.844694
0.846507
0.848246
0.849567
0.850016
0.848518
0.841615
0.824061
0.790342
0.736331
0.660823
0.56763
0.466763
0.372748
0.299043
0.251324
0.225524
0.212676
0.205019
0.198311
0.19155
0.187372
0.188629
0.191841
0.190133
0.176502
0.15906
0.144032
0.134949
0.131593
0.132337
0.13641
0.145401
0.162698
0.183888
0.186823
0.220901
0.299145
0.362499
0.408107
0.437053
0.453162
0.465219
0.483547
0.74132
0.764965
0.753341
0.717616
0.667866
0.615452
0.566491
0.518487
0.474342
0.435986
0.403866
0.377844
0.362875
0.385462
0.492196
0.670196
0.876898
1.08741
1.14147
1.10321
1.05955
1.03801
1.033
1.02742
1.02009
1.01174
1.00368
0.997027
0.992528
0.990573
0.991267
0.994518
1.00012
1.00781
1.01733
1.02845
1.041
1.0548
1.06924
1.08338
1.09693
1.10978
1.12195
1.13355
1.14477
1.15583
1.16698
1.17841
1.19028
1.20262
1.21537
1.22829
1.24103
1.25302
1.26358
1.27189
1.27704
1.27816
1.27447
1.26541
1.25075
1.23062
1.20548
1.17615
1.14366
1.10916
1.07378
1.03854
1.00663
0.97883
0.953789
0.931457
0.911863
0.894971
0.880643
0.868626
0.85856
0.850027
0.842682
0.83637
0.831001
0.825639
0.81605
0.795107
0.765032
0.736191
0.7175
0.711224
0.712887
0.71118
0.692565
0.649262
0.584906
0.512554
0.449076
0.407123
0.387035
0.383921
0.398177
0.450268
0.567144
0.729157
0.85003
0.894048
0.928322
0.972499
1.02063
1.07364
1.13091
1.1905
1.25028
1.30862
1.36461
1.41801
1.46913
1.51873
1.56668
1.61391
1.66077
1.70741
1.75373
1.79926
1.84296
1.88302
1.91665
1.94015
1.9492
1.93973
1.90836
1.8536
1.78878
1.7145
1.63286
1.54763
1.46163
1.37681
1.29434
1.21485
1.1386
1.06551
0.995387
0.928145
0.862518
0.799378
0.74276
0.695233
0.659917
0.639988
0.637972
0.654204
0.684969
0.721774
0.752765
0.766517
0.756646
0.723955
0.674479
0.614964
0.552885
0.490877
0.434376
0.383127
0.335035
0.290581
0.251775
0.223167
0.207272
0.204378
0.216172
0.25474
0.326828
0.408808
0.492018
0.56754
0.641106
0.706079
0.758817
0.800059
0.835433
0.607041
0.730391
0.776847
0.784827
0.748552
0.690229
0.629628
0.577881
0.534868
0.499177
0.473752
0.469776
0.513415
0.64746
0.893341
1.23354
1.42437
1.39825
1.28834
1.17907
1.09003
1.02726
0.98814
0.965579
0.953353
0.949017
0.951092
0.958352
0.96957
0.983511
0.999043
1.01527
1.03159
1.04775
1.06368
1.07936
1.09472
1.10956
1.12341
1.13587
1.14665
1.15551
1.16242
1.16756
1.17135
1.17441
1.17747
1.1813
1.18666
1.1942
1.20435
1.21733
1.23307
1.2512
1.27106
1.29167
1.31181
1.33003
1.34483
1.35473
1.35851
1.35532
1.34482
1.32721
1.30316
1.27371
1.24009
1.20354
1.1653
1.12957
1.0963
1.06525
1.0367
1.01088
0.987999
0.968161
0.951382
0.937575
0.92656
0.918118
0.91208
0.908378
0.906812
0.906304
0.904008
0.895055
0.872737
0.83623
0.794153
0.756282
0.726919
0.70256
0.674785
0.636832
0.589303
0.540988
0.505163
0.497443
0.5268
0.614253
0.77371
0.948006
1.02428
1.01172
1.01059
1.04883
1.12011
1.21032
1.30533
1.39379
1.4702
1.53454
1.58959
1.63852
1.68361
1.72596
1.7656
1.80373
1.84112
1.87807
1.91492
1.95198
1.9893
2.02635
2.06167
2.09249
2.11465
2.12285
2.11169
2.07621
2.02014
1.95131
1.87094
1.78343
1.69298
1.60266
1.5145
1.42966
1.34867
1.27169
1.19854
1.12894
1.06247
0.996926
0.929046
0.858191
0.786881
0.718831
0.658395
0.609493
0.574078
0.55117
0.537318
0.528248
0.520551
0.512318
0.502779
0.49178
0.479461
0.466084
0.451189
0.433178
0.409832
0.379889
0.343937
0.304794
0.268017
0.243794
0.24155
0.269308
0.340844
0.452414
0.569911
0.692724
0.804762
0.897706
0.961824
1.00341
1.03135
1.05367
0.708824
0.796482
0.921579
0.923832
0.851918
0.756386
0.666342
0.600302
0.559828
0.545995
0.577913
0.681447
0.876431
1.14267
1.38268
1.4658
1.38335
1.24327
1.11752
1.02689
0.96894
0.937413
0.925592
0.927271
0.937786
0.95403
0.97364
0.994677
1.01556
1.03519
1.0531
1.06943
1.08476
1.09972
1.11476
1.12995
1.14498
1.15927
1.17114
1.17954
1.18368
1.18307
1.17749
1.16718
1.15279
1.13543
1.11658
1.09796
1.0814
1.06863
1.06109
1.05982
1.06532
1.07753
1.09583
1.11912
1.14583
1.17403
1.20154
1.22611
1.24564
1.25841
1.26333
1.25999
1.24863
1.23005
1.20534
1.17562
1.14327
1.1115
1.08022
1.04993
1.02114
0.994288
0.969754
0.947887
0.92899
0.91331
0.901022
0.892195
0.886735
0.884311
0.884267
0.885555
0.886536
0.884795
0.877138
0.859928
0.830427
0.79104
0.749772
0.713117
0.681909
0.653064
0.625016
0.603064
0.600933
0.637611
0.737534
0.900317
1.06091
1.11074
1.06685
1.04511
1.08093
1.16493
1.2737
1.38431
1.48146
1.55957
1.62049
1.669
1.70946
1.74446
1.77505
1.80132
1.82318
1.84283
1.86066
1.87699
1.89238
1.90761
1.92349
1.94043
1.95791
1.97393
1.98467
1.98467
1.96796
1.93099
1.87958
1.81558
1.74251
1.6648
1.58626
1.50956
1.43631
1.36726
1.3026
1.24218
1.18564
1.1325
1.08211
1.03333
0.983822
0.929526
0.869107
0.803399
0.735747
0.670576
0.611364
0.559704
0.515472
0.477559
0.44475
0.416309
0.392084
0.372277
0.357135
0.346703
0.340447
0.33679
0.332978
0.325675
0.312362
0.2933
0.27346
0.262774
0.275343
0.324195
0.416423
0.544197
0.686198
0.845172
0.988134
1.08734
1.14586
1.17748
1.19163
1.19447
0.800896
0.980844
1.11377
1.07471
0.95976
0.83405
0.740965
0.694536
0.693097
0.741145
0.848353
1.01225
1.19592
1.32641
1.3455
1.26536
1.14667
1.04141
0.968646
0.927828
0.912112
0.91449
0.929037
0.951144
0.977445
1.00541
1.03302
1.05888
1.08235
1.10362
1.12345
1.14283
1.16253
1.18296
1.20408
1.22543
1.24625
1.26549
1.2804
1.28992
1.29269
1.28748
1.27336
1.24993
1.21741
1.17681
1.12998
1.07956
1.02879
0.981188
0.940138
0.908461
0.888064
0.879774
0.883355
0.897676
0.920916
0.950719
0.984331
1.01876
1.05098
1.07829
1.09858
1.11058
1.1139
1.10889
1.09639
1.07754
1.05559
1.03184
1.00705
0.981907
0.957005
0.932855
0.90994
0.888732
0.869707
0.853326
0.840013
0.830107
0.823789
0.82099
0.821252
0.823594
0.826406
0.827612
0.825131
0.817122
0.801828
0.777995
0.746396
0.713461
0.685527
0.665955
0.656673
0.664124
0.704436
0.799587
0.954734
1.11703
1.17618
1.11005
1.058
1.07693
1.15801
1.27266
1.39167
1.49484
1.57429
1.63183
1.67336
1.7043
1.72811
1.74645
1.75988
1.76839
1.77242
1.77357
1.77187
1.76748
1.76098
1.75347
1.74642
1.74119
1.73831
1.73671
1.73308
1.72223
1.69845
1.66224
1.6142
1.55673
1.49366
1.42899
1.36589
1.30646
1.25175
1.20208
1.15729
1.11699
1.08068
1.04777
1.01754
0.988923
0.960097
0.927515
0.8887
0.842251
0.78833
0.729369
0.669227
0.611346
0.557574
0.508257
0.463025
0.421556
0.383954
0.35073
0.322572
0.300092
0.28356
0.272595
0.265934
0.261508
0.257122
0.251994
0.249441
0.259347
0.29544
0.367095
0.475764
0.612843
0.771589
0.951351
1.11643
1.22773
1.28539
1.30898
1.3098
1.28908
0.841655
1.16242
1.2694
1.19644
1.059
0.93896
0.879485
0.867945
0.902386
0.974347
1.06862
1.1573
1.20584
1.19415
1.13173
1.04889
0.975229
0.926198
0.90341
0.902079
0.916236
0.940775
0.971664
1.00569
1.04028
1.07352
1.10436
1.13268
1.15907
1.18457
1.2102
1.23677
1.26467
1.29387
1.32395
1.35407
1.38312
1.40906
1.43162
1.44919
1.45977
1.46132
1.4518
1.42949
1.3931
1.34212
1.27713
1.20015
1.11485
1.02644
0.941225
0.865488
0.80439
0.76105
0.736295
0.72905
0.737038
0.75736
0.786767
0.82176
0.858688
0.893996
0.924575
0.948126
0.963468
0.970322
0.969117
0.961596
0.949933
0.935321
0.91865
0.900594
0.881701
0.862455
0.84332
0.824779
0.807344
0.791553
0.777943
0.766998
0.759084
0.754362
0.752694
0.753527
0.75581
0.758037
0.758534
0.755805
0.74865
0.736053
0.717607
0.695846
0.677504
0.669571
0.678235
0.71311
0.792153
0.9319
1.10618
1.2143
1.17299
1.07688
1.05905
1.121
1.23157
1.35537
1.46556
1.54937
1.6066
1.64328
1.66593
1.67926
1.6861
1.68799
1.68558
1.679
1.66903
1.6561
1.6398
1.61993
1.59688
1.57181
1.54661
1.52345
1.50373
1.4873
1.47127
1.45073
1.42307
1.38618
1.34053
1.28871
1.23435
1.1809
1.13093
1.08591
1.04642
1.0124
0.983472
0.959149
0.938927
0.922305
0.908691
0.897225
0.886433
0.873418
0.85534
0.830209
0.796746
0.755105
0.707123
0.65566
0.60343
0.552206
0.502817
0.455648
0.411122
0.369881
0.332712
0.300383
0.273494
0.252327
0.236703
0.225982
0.219429
0.217237
0.222707
0.245128
0.298462
0.390773
0.515335
0.660908
0.829255
1.02107
1.1989
1.32062
1.38417
1.40236
1.39033
1.348
0.859777
1.31483
1.41686
1.32192
1.17961
1.07553
1.01992
1.00965
1.02865
1.05875
1.08265
1.08636
1.06386
1.02012
0.968512
0.923876
0.896118
0.887985
0.897096
0.919294
0.95047
0.98697
1.02556
1.06355
1.09913
1.13146
1.16066
1.1875
1.21311
1.23863
1.26508
1.29314
1.32315
1.35505
1.38841
1.42236
1.45574
1.4884
1.52014
1.54921
1.57344
1.59045
1.59776
1.59283
1.57319
1.53646
1.48062
1.40447
1.3085
1.19599
1.07378
0.951946
0.841662
0.752135
0.688125
0.649624
0.633558
0.635777
0.652135
0.678708
0.711594
0.746846
0.780673
0.809744
0.832127
0.846762
0.853749
0.854941
0.851838
0.845453
0.836529
0.825631
0.813202
0.799631
0.785294
0.770596
0.755996
0.742001
0.729154
0.717984
0.708945
0.702352
0.698314
0.696672
0.696941
0.69827
0.699513
0.699412
0.696816
0.690948
0.681641
0.67
0.661532
0.664471
0.68849
0.74675
0.857156
1.0225
1.18262
1.22498
1.13261
1.05182
1.07337
1.16651
1.28977
1.40804
1.50095
1.56358
1.60054
1.61897
1.62497
1.62276
1.61512
1.6037
1.58935
1.57225
1.55309
1.53129
1.50598
1.47656
1.44314
1.40672
1.36933
1.33382
1.30212
1.27499
1.24969
1.22359
1.19258
1.15507
1.11173
1.06503
1.01812
0.973835
0.934083
0.899776
0.871044
0.847559
0.828817
0.814331
0.803715
0.796678
0.792935
0.792013
0.792949
0.793826
0.791768
0.784356
0.769623
0.746541
0.715313
0.677254
0.634248
0.588148
0.540449
0.492356
0.444995
0.39953
0.357098
0.31868
0.28501
0.256543
0.233471
0.215823
0.203808
0.198641
0.204277
0.230049
0.290627
0.395244
0.533054
0.686949
0.860247
1.05673
1.24072
1.37046
1.43949
1.4557
1.43247
1.3743
0.855075
1.45481
1.56002
1.44996
1.29248
1.16451
1.08685
1.048
1.02846
1.01375
0.995458
0.970545
0.940608
0.910633
0.886995
0.875017
0.877142
0.892772
0.919416
0.95383
0.992533
1.03215
1.06983
1.10368
1.13291
1.15767
1.17883
1.19769
1.21565
1.23409
1.25413
1.27656
1.30183
1.33006
1.36101
1.39414
1.42853
1.46581
1.50479
1.54364
1.58011
1.61178
1.63615
1.65078
1.65337
1.64154
1.61257
1.56313
1.48959
1.38933
1.26322
1.11837
0.968912
0.832527
0.723706
0.6481
0.603237
0.583091
0.581681
0.594297
0.617011
0.645908
0.677078
0.706163
0.730873
0.74864
0.760562
0.767675
0.770885
0.770942
0.768419
0.763735
0.757207
0.749101
0.739679
0.72924
0.718139
0.706803
0.695714
0.685376
0.676258
0.668733
0.663037
0.659258
0.657327
0.656981
0.657665
0.658472
0.658267
0.656074
0.651942
0.646916
0.645461
0.656373
0.692031
0.76818
0.899344
1.07068
1.20019
1.19391
1.09069
1.03865
1.09212
1.20364
1.32773
1.4336
1.50835
1.55262
1.57305
1.57676
1.56948
1.55527
1.53693
1.51619
1.4939
1.47019
1.44546
1.41848
1.38807
1.35335
1.31408
1.27117
1.22641
1.18331
1.14383
1.10992
1.07948
1.04889
1.0155
0.978242
0.937869
0.896463
0.856552
0.820261
0.78886
0.762745
0.741681
0.725119
0.712462
0.703235
0.697159
0.694157
0.694264
0.697466
0.703445
0.711371
0.718942
0.723643
0.723075
0.715431
0.699808
0.676249
0.645506
0.608721
0.567205
0.52238
0.475808
0.429155
0.384056
0.341936
0.303874
0.270561
0.24235
0.219451
0.202343
0.192618
0.194539
0.217453
0.276644
0.384037
0.529518
0.690199
0.865448
1.06079
1.24535
1.37972
1.45294
1.4692
1.43868
1.36975
0.824511
1.55229
1.66467
1.53939
1.35167
1.19546
1.09077
1.02375
0.978114
0.943666
0.915561
0.892309
0.874405
0.863518
0.861707
0.870433
0.889797
0.918393
0.953623
0.992157
1.03051
1.06566
1.09555
1.11924
1.13687
1.14938
1.15825
1.1652
1.1719
1.17976
1.18989
1.20306
1.21982
1.24051
1.26532
1.29418
1.32805
1.3673
1.41074
1.45658
1.50249
1.54579
1.58365
1.61346
1.63309
1.64093
1.63547
1.61445
1.57379
1.50745
1.40933
1.27762
1.11998
0.955404
0.808643
0.696752
0.622509
0.579416
0.559121
0.555612
0.565112
0.583939
0.608673
0.633926
0.656442
0.675071
0.689542
0.700201
0.707605
0.712281
0.714623
0.714902
0.713298
0.709959
0.705039
0.698729
0.691284
0.683033
0.674374
0.665752
0.657608
0.65032
0.64417
0.639356
0.63605
0.634398
0.634376
0.635504
0.636723
0.636756
0.635175
0.633376
0.63548
0.651005
0.694308
0.781932
0.922284
1.0851
1.18256
1.14984
1.05687
1.03322
1.10644
1.22628
1.34594
1.4384
1.4977
1.52758
1.53537
1.52805
1.5111
1.48849
1.46295
1.43608
1.40856
1.38057
1.35222
1.32196
1.28848
1.25076
1.20825
1.16206
1.11329
1.06594
1.02347
0.98567
0.951083
0.91745
0.883029
0.847211
0.810631
0.774846
0.741694
0.712634
0.68838
0.668917
0.653736
0.642126
0.633412
0.627096
0.622935
0.620953
0.621394
0.6246
0.630831
0.640211
0.651425
0.66236
0.670614
0.673928
0.670592
0.659632
0.640783
0.614344
0.581073
0.542161
0.499193
0.454049
0.408695
0.364944
0.324269
0.287707
0.255876
0.229137
0.208
0.193978
0.191106
0.208258
0.260627
0.362696
0.508421
0.672347
0.846993
1.03688
1.21738
1.35282
1.42873
1.44608
1.41258
1.33762
0.760542
1.56861
1.68457
1.55569
1.35919
1.18857
1.06701
0.985427
0.930586
0.893651
0.869685
0.85601
0.851335
0.85537
0.86831
0.890092
0.919716
0.955
0.992802
1.02961
1.06225
1.08841
1.10692
1.11777
1.12192
1.12098
1.11692
1.11163
1.10673
1.10342
1.10257
1.10487
1.11094
1.12151
1.13738
1.15923
1.18952
1.22733
1.27172
1.3211
1.37323
1.42526
1.47397
1.51613
1.54899
1.57088
1.58123
1.57973
1.56449
1.53014
1.4678
1.36868
1.23087
1.06613
0.901732
0.765085
0.667064
0.604038
0.566481
0.547122
0.542776
0.550141
0.565429
0.584531
0.604016
0.621769
0.636901
0.649319
0.659277
0.667075
0.672933
0.676971
0.679248
0.679808
0.678716
0.676085
0.672085
0.666959
0.661021
0.654643
0.648219
0.642109
0.636603
0.631945
0.628423
0.626442
0.626385
0.628191
0.630915
0.632875
0.632837
0.63204
0.635007
0.65221
0.699222
0.79165
0.930989
1.0772
1.14816
1.10608
1.03177
1.031
1.11452
1.23335
1.34465
1.42663
1.47537
1.49522
1.49412
1.47918
1.4557
1.42754
1.39723
1.36621
1.33502
1.30392
1.27264
1.23981
1.20408
1.16448
1.11974
1.07196
1.02279
0.974818
0.93035
0.89003
0.853036
0.818036
0.784078
0.750848
0.718705
0.688608
0.661754
0.639065
0.620854
0.60683
0.596321
0.588529
0.582724
0.578367
0.575181
0.573181
0.572664
0.57415
0.578265
0.585788
0.596442
0.608867
0.621093
0.630847
0.635958
0.634686
0.625879
0.609007
0.584172
0.552121
0.514224
0.472339
0.428568
0.384968
0.343304
0.304915
0.270688
0.24118
0.216954
0.199344
0.191894
0.202564
0.245601
0.336841
0.475453
0.637458
0.808565
0.989699
1.16224
1.29533
1.37235
1.39128
1.35787
1.28136
0.665787
1.47891
1.61791
1.51515
1.33086
1.16038
1.03481
0.950763
0.897179
0.865334
0.849525
0.846087
0.852813
0.868546
0.892535
0.923665
0.959914
0.998303
1.03534
1.06767
1.09264
1.1087
1.11549
1.11379
1.10529
1.09216
1.07662
1.06054
1.04528
1.03171
1.02038
1.01178
1.00654
1.00581
1.01128
1.02498
1.04949
1.08316
1.12505
1.17383
1.22761
1.2838
1.33918
1.3901
1.43306
1.46551
1.48663
1.49724
1.49782
1.48536
1.45147
1.38448
1.27605
1.12941
0.968185
0.825399
0.715548
0.639162
0.588077
0.555196
0.537523
0.533285
0.539535
0.55231
0.56789
0.583684
0.598341
0.61139
0.622795
0.632631
0.640943
0.647716
0.652907
0.656483
0.658453
0.658878
0.657881
0.65564
0.652397
0.648449
0.64413
0.639768
0.635646
0.632029
0.62927
0.627941
0.628735
0.631967
0.636851
0.641282
0.643063
0.642622
0.645088
0.661819
0.708884
0.799924
0.930551
1.05692
1.10836
1.06725
1.01245
1.02737
1.11378
1.22719
1.32973
1.40307
1.44434
1.4583
1.45232
1.43309
1.40578
1.37407
1.34059
1.30666
1.27275
1.23903
1.20472
1.1692
1.1313
1.09021
1.04546
0.997759
0.948672
0.900565
0.855546
0.814392
0.776753
0.742075
0.710022
0.680336
0.652942
0.62822
0.606882
0.589496
0.576141
0.566389
0.559509
0.554684
0.551167
0.548375
0.545962
0.543864
0.542321
0.541862
0.543265
0.54764
0.555526
0.566409
0.579018
0.591443
0.601445
0.606828
0.605746
0.596913
0.579744
0.554451
0.522048
0.484227
0.443093
0.400832
0.359412
0.320399
0.284893
0.253617
0.227194
0.206802
0.195461
0.200037
0.233235
0.310833
0.436594
0.590946
0.755011
0.924713
1.08601
1.21347
1.28973
1.31024
1.27884
1.20425
0.738651
1.36399
1.50965
1.44032
1.2813
1.12249
1.00173
0.921769
0.873825
0.84934
0.842206
0.848367
0.865265
0.891229
0.924717
0.963647
1.00512
1.04565
1.08164
1.10999
1.12851
1.13617
1.13321
1.12107
1.10203
1.07868
1.05343
1.02809
1.0038
0.981137
0.960379
0.941848
0.926304
0.915323
0.911625
0.918995
0.938032
0.966754
1.00392
1.04851
1.09921
1.15409
1.2104
1.26463
1.31289
1.35182
1.37981
1.39761
1.40695
1.4068
1.39024
1.3455
1.26223
1.14122
0.999605
0.863391
0.751998
0.669428
0.609475
0.566375
0.538443
0.525025
0.523808
0.53102
0.542844
0.556447
0.570188
0.58331
0.595518
0.606675
0.616661
0.625343
0.632604
0.638369
0.642623
0.645415
0.646849
0.647073
0.646275
0.644683
0.642562
0.640188
0.637821
0.635724
0.634291
0.634211
0.636438
0.64166
0.64934
0.657121
0.661798
0.662601
0.664687
0.679829
0.723953
0.808543
0.925363
1.03153
1.06933
1.03403
0.99592
1.01992
1.10408
1.20987
1.30421
1.37101
1.40766
1.41856
1.41039
1.38941
1.36056
1.32733
1.29203
1.25596
1.21971
1.18367
1.14727
1.10953
1.06974
1.02732
0.98206
0.934394
0.885775
0.838356
0.79399
0.753424
0.716697
0.683884
0.654971
0.629461
0.606747
0.586747
0.569901
0.556627
0.546913
0.540304
0.536088
0.533482
0.531742
0.530251
0.528591
0.5266
0.524405
0.522443
0.521469
0.522666
0.527078
0.534932
0.54572
0.558123
0.570159
0.5795
0.583856
0.581319
0.570655
0.551499
0.524426
0.490863
0.452818
0.412526
0.372098
0.33328
0.297349
0.265161
0.237381
0.215042
0.200663
0.200017
0.224022
0.287334
0.396807
0.53845
0.691815
0.847878
0.995282
1.1139
1.18714
1.20853
1.18007
1.10985
0.684404
1.21421
1.37856
1.35017
1.22505
1.08457
0.972197
0.897633
0.855328
0.837422
0.837794
0.852309
0.878232
0.913455
0.955737
1.00222
1.04941
1.09348
1.13081
1.15837
1.17415
1.17733
1.16843
1.14924
1.12246
1.09109
1.05781
1.0246
0.992666
0.962595
0.934733
0.909568
0.887992
0.870915
0.85973
0.862353
0.876441
0.899536
0.92999
0.967122
1.01043
1.0588
1.11017
1.1615
1.20904
1.24921
1.27985
1.30116
1.31478
1.32059
1.31332
1.28233
1.21692
1.1156
0.991947
0.869101
0.76517
0.684029
0.62077
0.571933
0.537792
0.518661
0.512574
0.515893
0.524878
0.536693
0.549598
0.562658
0.575371
0.587408
0.598502
0.608433
0.617041
0.624244
0.630041
0.634502
0.637744
0.639913
0.64117
0.641689
0.641661
0.641289
0.640782
0.640373
0.640452
0.641773
0.645513
0.652766
0.663418
0.675169
0.684084
0.687971
0.691068
0.704681
0.74397
0.818622
0.918824
1.00578
1.034
1.00569
0.980157
1.00797
1.08656
1.18371
1.27065
1.33271
1.36699
1.37706
1.3688
1.34796
1.31916
1.28567
1.24966
1.21243
1.17466
1.13678
1.09847
1.05878
1.01719
0.973398
0.927402
0.879754
0.831869
0.785702
0.742831
0.703953
0.669453
0.639809
0.614953
0.593864
0.575393
0.559211
0.545727
0.535374
0.528156
0.523664
0.521252
0.520182
0.519717
0.519212
0.518202
0.516458
0.514011
0.511164
0.508534
0.50718
0.508334
0.512773
0.520682
0.531411
0.543442
0.554593
0.562382
0.564463
0.559039
0.545179
0.52298
0.493532
0.458671
0.420612
0.381558
0.343404
0.307582
0.275077
0.246599
0.223053
0.206494
0.20166
0.217676
0.267484
0.359469
0.484936
0.624456
0.765223
0.896834
1.00378
1.0714
1.09225
1.06678
1.00254
0.634041
1.06653
1.24922
1.2617
1.17413
1.05497
0.950896
0.879353
0.839519
0.825046
0.830083
0.85049
0.883396
0.926357
0.976635
1.03087
1.08516
1.13548
1.17805
1.20918
1.22707
1.23092
1.22118
1.19968
1.16923
1.13309
1.0943
1.05526
1.0176
0.982376
0.950355
0.92237
0.89935
0.881992
0.871501
0.86999
0.875948
0.888745
0.908189
0.934201
0.966615
1.00472
1.04693
1.09065
1.13256
1.16927
1.1985
1.21998
1.23474
1.24238
1.23798
1.21184
1.1544
1.06486
0.956202
0.84884
0.75672
0.681133
0.618319
0.567761
0.531576
0.510469
0.50241
0.503846
0.511274
0.522063
0.53453
0.547656
0.560782
0.573418
0.585187
0.595814
0.605136
0.613103
0.61976
0.625223
0.62965
0.633209
0.636059
0.638339
0.640174
0.641686
0.643004
0.64429
0.645872
0.64849
0.653463
0.662302
0.675517
0.691269
0.7054
0.714353
0.720548
0.733749
0.767673
0.830696
0.913357
0.982683
1.00364
0.981422
0.964278
0.991973
1.0629
1.15091
1.23109
1.28969
1.3232
1.33412
1.3274
1.30817
1.28068
1.24803
1.2123
1.17479
1.13618
1.09692
1.05688
1.0154
0.972128
0.927017
0.880292
0.832707
0.785731
0.741169
0.700375
0.664057
0.63289
0.607452
0.587198
0.57037
0.5554
0.541991
0.530746
0.522227
0.516516
0.513281
0.511943
0.511781
0.512036
0.512048
0.511359
0.509758
0.507256
0.504057
0.500583
0.497602
0.496259
0.497642
0.502472
0.51074
0.521501
0.532913
0.542529
0.547757
0.546361
0.536897
0.518984
0.493333
0.461555
0.425784
0.388267
0.351013
0.315597
0.283126
0.254374
0.230163
0.212151
0.20413
0.213535
0.251382
0.326385
0.434099
0.557713
0.682282
0.797218
0.890485
0.950003
0.968492
0.945446
0.888227
0.602684
0.939591
1.12957
1.1818
1.13344
1.03831
0.942622
0.870816
0.829135
0.813604
0.819115
0.841625
0.878133
0.925937
0.98198
1.0426
1.10368
1.16102
1.21066
1.24917
1.27431
1.28485
1.28083
1.26358
1.23557
1.19992
1.15985
1.11818
1.07717
1.03849
1.00342
0.973008
0.94802
0.929017
0.916852
0.910456
0.909077
0.912828
0.922259
0.937889
0.959826
0.987499
1.0195
1.05356
1.0868
1.11634
1.14029
1.15835
1.17089
1.17651
1.16965
1.14121
1.08388
0.999994
0.903623
0.811628
0.731745
0.662438
0.602163
0.553365
0.519002
0.499307
0.49188
0.493307
0.500481
0.511116
0.523669
0.53709
0.550599
0.563597
0.575644
0.58646
0.595922
0.604043
0.610941
0.616797
0.621826
0.626234
0.630197
0.63384
0.637241
0.640445
0.643487
0.646429
0.649483
0.653273
0.659133
0.668918
0.683897
0.703093
0.72272
0.738142
0.749499
0.76405
0.793346
0.844732
0.910394
0.963839
0.978642
0.960665
0.948221
0.972978
1.03493
1.11345
1.18712
1.24297
1.27668
1.28957
1.28555
1.26904
1.24388
1.21299
1.17836
1.14126
1.1024
1.06221
1.02083
0.977867
0.933203
0.886986
0.839686
0.7923
0.746409
0.703736
0.66551
0.632537
0.605668
0.585184
0.569669
0.556554
0.544114
0.532401
0.522374
0.514778
0.509791
0.507151
0.506289
0.506428
0.506752
0.506602
0.505617
0.503724
0.501042
0.49777
0.494152
0.490548
0.487783
0.48699
0.4892
0.494934
0.503837
0.514537
0.524809
0.531995
0.533561
0.527634
0.513379
0.491126
0.46222
0.428674
0.392734
0.35649
0.321636
0.289394
0.260611
0.236073
0.21713
0.206763
0.210878
0.238571
0.298121
0.388144
0.495101
0.603494
0.702064
0.780967
0.830799
0.845376
0.824137
0.774582
0.567887
0.85693
1.01207
1.0923
1.08854
1.0286
0.950478
0.881674
0.834899
0.81215
0.811182
0.828956
0.862675
0.909606
0.966649
1.03013
1.09594
1.15982
1.21773
1.26619
1.30251
1.32493
1.3328
1.32664
1.3081
1.2797
1.24436
1.20504
1.16438
1.12458
1.08737
1.05402
1.02528
1.00151
0.983165
0.969372
0.960298
0.956315
0.957868
0.965259
0.978392
0.996594
1.01852
1.04219
1.06524
1.08552
1.10181
1.11392
1.12139
1.12125
1.10689
1.0702
1.00787
0.927046
0.842297
0.764359
0.694386
0.630496
0.574591
0.53085
0.50155
0.485839
0.48097
0.483849
0.491886
0.503163
0.516277
0.530152
0.543939
0.556994
0.568884
0.57938
0.588439
0.596161
0.602749
0.608462
0.613575
0.61834
0.622962
0.627572
0.632221
0.636894
0.641538
0.646103
0.650656
0.655627
0.662199
0.672397
0.688232
0.709906
0.734531
0.757154
0.775426
0.793427
0.819826
0.860828
0.910833
0.949885
0.958752
0.942901
0.932094
0.951727
1.00352
1.07193
1.13886
1.19207
1.22643
1.242
1.24153
1.22864
1.20669
1.17836
1.14555
1.10952
1.07104
1.0306
0.988477
0.944556
0.898924
0.85195
0.804368
0.757445
0.712917
0.672501
0.637421
0.60863
0.586926
0.571839
0.56077
0.550471
0.539457
0.528418
0.518756
0.511392
0.50658
0.504066
0.50318
0.502994
0.502602
0.501409
0.499256
0.496342
0.493026
0.489619
0.486262
0.482876
0.47984
0.478061
0.478599
0.482303
0.489344
0.498888
0.509077
0.517358
0.521041
0.517921
0.506758
0.487508
0.461238
0.429809
0.395431
0.360245
0.32604
0.29414
0.265467
0.240794
0.221254
0.209166
0.209111
0.228377
0.274384
0.347808
0.438457
0.531551
0.615206
0.680662
0.720773
0.731005
0.71152
0.67011
0.549585
0.849444
0.950617
1.02033
1.04322
1.01824
0.96471
0.905599
0.856906
0.826037
0.814783