/*--------------------------------*- C++ -*----------------------------------*\
  =========                 |
  \\      /  F ield         | OpenFOAM: The Open Source CFD Toolbox
   \\    /   O peration     | Website:  https://openfoam.org
    \\  /    A nd           | Version:  9
     \\/     M anipulation  |
\*---------------------------------------------------------------------------*/
FoamFile
{
    format      ascii;
    class       volScalarField;
    location    "0.12";
    object      nut;
}
// * * * * * * * * * * * * * * * * * * * * * * * * * * * * * * * * * * * * * //

dimensions      [0 2 -1 0 0 0 0];

internalField   nonuniform List<scalar> 
12225
(
8.99096e-06
7.55151e-06
6.4666e-06
5.68079e-06
5.15422e-06
4.85446e-06
4.7523e-06
4.81878e-06
5.02469e-06
5.34136e-06
5.74202e-06
6.20313e-06
6.70569e-06
7.2363e-06
7.78836e-06
8.36324e-06
8.97708e-06
9.87882e-06
6.74035e-05
4.7707e-05
4.03751e-05
3.69444e-05
3.52678e-05
3.44848e-05
3.41413e-05
3.39894e-05
3.39028e-05
3.38223e-05
3.37234e-05
3.35992e-05
3.34523e-05
3.32911e-05
3.31285e-05
3.29789e-05
3.287e-05
3.28292e-05
0.000145995
0.000110945
9.15976e-05
7.88105e-05
6.92798e-05
6.16597e-05
5.53234e-05
4.99734e-05
4.54591e-05
4.16769e-05
3.85283e-05
3.59143e-05
3.37404e-05
3.19234e-05
3.03956e-05
2.91067e-05
2.80299e-05
2.71599e-05
0.000188776
0.00016321
0.00014318
0.000127535
0.000114807
0.000104038
9.46245e-05
8.62083e-05
7.85982e-05
7.1695e-05
6.54364e-05
5.97646e-05
5.4614e-05
4.99084e-05
4.55655e-05
4.15007e-05
3.76423e-05
3.39554e-05
0.000204923
0.000192189
0.000178889
0.000166435
0.000155107
0.000144829
0.000135427
0.000126725
0.000118588
0.000110923
0.000103664
9.67553e-05
9.0138e-05
8.37389e-05
7.74665e-05
7.12055e-05
6.48298e-05
5.8263e-05
0.000210138
0.000204706
0.000197771
0.000190172
0.000182421
0.000174789
0.000167391
0.000160253
0.000153359
0.000146678
0.000140175
0.000133806
0.000127522
0.000121254
0.000114914
0.000108379
0.0001015
9.41795e-05
0.000211674
0.000209315
0.00020604
0.000202056
0.000197591
0.00019284
0.000187941
0.000182983
0.000178011
0.000173045
0.000168085
0.000163117
0.000158113
0.000153029
0.000147799
0.000142333
0.000136516
0.000130299
0.000212093
0.00021082
0.000209173
0.000207139
0.000204756
0.000202085
0.000199194
0.000196138
0.000192959
0.000189683
0.000186327
0.000182891
0.000179367
0.000175734
0.000171955
0.000167978
0.000163736
0.000159227
0.0002122
0.000211264
0.000210224
0.000209039
0.000207694
0.00020619
0.000204536
0.000202752
0.000200852
0.000198851
0.00019676
0.000194582
0.000192315
0.000189953
0.000187478
0.000184864
0.000182081
0.000179146
0.000212225
0.000211383
0.000210539
0.000209669
0.000208756
0.000207788
0.000206758
0.000205666
0.000204511
0.000203296
0.000202023
0.000200692
0.000199303
0.000197853
0.000196335
0.000194738
0.000193049
0.00019129
0.00021223
0.000211412
0.000210624
0.000209855
0.000209096
0.000208338
0.000207575
0.0002068
0.000206009
0.000205201
0.000204373
0.000203525
0.000202654
0.00020176
0.000200839
0.000199888
0.000198903
0.0001979
0.000212231
0.000211418
0.000210643
0.000209901
0.000209187
0.000208497
0.000207823
0.000207164
0.000206515
0.000205873
0.000205237
0.000204605
0.000203976
0.000203349
0.000202723
0.000202096
0.00020147
0.000200854
0.000212231
0.000211419
0.000210648
0.000209914
0.000209215
0.000208547
0.000207908
0.000207294
0.000206704
0.000206135
0.000205586
0.000205056
0.000204545
0.000204052
0.000203578
0.000203123
0.000202688
0.000202281
0.00021223
0.000211419
0.000210649
0.000209917
0.000209223
0.000208562
0.000207934
0.000207337
0.000206768
0.000206227
0.000205713
0.000205226
0.000204766
0.000204332
0.000203926
0.000203548
0.000203199
0.000202886
0.00021223
0.000211418
0.000210648
0.000209918
0.000209224
0.000208566
0.000207941
0.000207349
0.000206787
0.000206254
0.000205752
0.000205278
0.000204833
0.000204417
0.000204032
0.000203676
0.000203352
0.000203065
0.00021223
0.000211418
0.000210648
0.000209918
0.000209225
0.000208568
0.000207944
0.000207353
0.000206793
0.000206263
0.000205763
0.000205292
0.00020485
0.000204437
0.000204052
0.000203696
0.000203371
0.00020308
0.000212229
0.000211417
0.000210647
0.000209917
0.000209225
0.000208569
0.000207946
0.000207356
0.000206797
0.000206269
0.00020577
0.000205299
0.000204856
0.00020444
0.000204052
0.00020369
0.000203355
0.000203053
0.000212229
0.000211417
0.000210647
0.000209917
0.000209225
0.000208569
0.000207948
0.000207359
0.000206802
0.000206274
0.000205775
0.000205304
0.000204859
0.000204441
0.000204048
0.000203679
0.000203335
0.000203021
0.000212228
0.000211416
0.000210646
0.000209916
0.000209225
0.000208571
0.00020795
0.000207362
0.000206806
0.000206279
0.00020578
0.000205309
0.000204863
0.000204442
0.000204044
0.000203669
0.000203317
0.000202993
0.000212228
0.000211415
0.000210645
0.000209917
0.000209226
0.000208572
0.000207953
0.000207366
0.00020681
0.000206284
0.000205785
0.000205313
0.000204865
0.000204442
0.000204041
0.000203661
0.000203303
0.000202972
0.000212228
0.000211415
0.000210646
0.000209917
0.000209227
0.000208574
0.000207955
0.000207368
0.000206811
0.000206283
0.000205783
0.000205307
0.000204856
0.000204427
0.000204019
0.000203632
0.000203264
0.000202924
0.000212228
0.000211415
0.000210645
0.000209916
0.000209224
0.000208566
0.00020794
0.000207343
0.000206775
0.000206231
0.000205711
0.000205214
0.000204737
0.00020428
0.000203842
0.000203421
0.000203017
0.000202638
0.000212227
0.00021141
0.000210631
0.000209884
0.000209162
0.000208462
0.00020778
0.000207114
0.000206461
0.000205821
0.000205193
0.000204578
0.000203975
0.000203384
0.000202806
0.000202241
0.00020169
0.000201162
0.000212216
0.00021136
0.000210497
0.00020961
0.000208692
0.00020774
0.000206756
0.000205748
0.000204721
0.000203683
0.000202641
0.000201601
0.000200566
0.000199543
0.000198534
0.000197543
0.000196572
0.000195634
0.000212114
0.000210955
0.000209565
0.000207946
0.000206132
0.00020417
0.000202111
0.000199998
0.000197866
0.000195743
0.000193649
0.000191599
0.000189602
0.000187662
0.000185784
0.000183965
0.000182207
0.000180522
0.000211343
0.000208459
0.000204729
0.00020049
0.000196011
0.000191491
0.000187058
0.000182786
0.000178707
0.000174834
0.000171164
0.000167689
0.000164396
0.000161271
0.0001583
0.000155471
0.000152773
0.000150212
0.000206572
0.000196694
0.000186325
0.000176567
0.000167728
0.000159843
0.000152828
0.000146557
0.000140909
0.000135777
0.000131078
0.000126741
0.000122715
0.000118956
0.000115431
0.000112116
0.000108991
0.000106052
0.000183056
0.000157239
0.00013892
0.00012556
0.000115342
0.000107243
0.000100614
9.50298e-05
9.02124e-05
8.59796e-05
8.22088e-05
7.88157e-05
7.57409e-05
7.29414e-05
7.03843e-05
6.8043e-05
6.58954e-05
6.3927e-05
0.000105377
7.87477e-05
6.68174e-05
6.01768e-05
5.60824e-05
5.34764e-05
5.18141e-05
5.07638e-05
5.01113e-05
4.97137e-05
4.94742e-05
4.9327e-05
4.92281e-05
4.91487e-05
4.90711e-05
4.89848e-05
4.88853e-05
4.87652e-05
1.67226e-05
1.50194e-05
1.361e-05
1.24456e-05
1.14926e-05
1.07241e-05
1.0118e-05
9.65525e-06
9.31873e-06
9.09254e-06
8.96198e-06
8.91344e-06
8.93436e-06
9.01329e-06
9.13988e-06
9.30488e-06
9.50029e-06
9.71844e-06
1.59787e-05
2.05776e-05
2.24484e-05
2.29192e-05
2.29019e-05
2.26584e-05
2.22963e-05
2.18633e-05
2.13978e-05
2.08536e-05
2.01499e-05
1.91991e-05
1.79165e-05
1.62779e-05
1.44882e-05
1.32663e-05
1.41189e-05
1.67393e-05
1.77e-05
1.64994e-05
1.5682e-05
1.48956e-05
1.57649e-05
2.07774e-05
2.4374e-05
2.71781e-05
2.93582e-05
3.1039e-05
3.23175e-05
3.32697e-05
3.39559e-05
3.44243e-05
3.47141e-05
3.48575e-05
3.48811e-05
3.48071e-05
3.46542e-05
3.4438e-05
3.41712e-05
3.38604e-05
3.35351e-05
3.3198e-05
3.28511e-05
3.24962e-05
3.21351e-05
3.17697e-05
3.14014e-05
3.10316e-05
3.06616e-05
3.0292e-05
2.99231e-05
2.95547e-05
2.91859e-05
2.88147e-05
2.84387e-05
2.80543e-05
2.76571e-05
2.7242e-05
2.68037e-05
2.63368e-05
2.58372e-05
2.53019e-05
2.47301e-05
2.41232e-05
2.34845e-05
2.2818e-05
2.21262e-05
2.14056e-05
2.06527e-05
2.0178e-05
2.00687e-05
2.00396e-05
2.00551e-05
2.01099e-05
2.02042e-05
2.03386e-05
2.05138e-05
2.07307e-05
2.09922e-05
2.13031e-05
2.16663e-05
2.20643e-05
2.24264e-05
2.25597e-05
2.25052e-05
2.23182e-05
2.18825e-05
2.11485e-05
2.01604e-05
1.90537e-05
1.79735e-05
1.69838e-05
1.60793e-05
1.52725e-05
1.47095e-05
1.45429e-05
1.4602e-05
1.47906e-05
1.50312e-05
1.52665e-05
1.54752e-05
1.56995e-05
1.5953e-05
1.58352e-05
1.53841e-05
1.69284e-05
2.14472e-05
2.47129e-05
2.7197e-05
2.90424e-05
3.03891e-05
3.13494e-05
3.20095e-05
3.24349e-05
3.26761e-05
3.27749e-05
3.27676e-05
3.27129e-05
3.25939e-05
3.24218e-05
3.2204e-05
3.19451e-05
3.16477e-05
3.13114e-05
3.09326e-05
3.05031e-05
3.00106e-05
2.94395e-05
2.87711e-05
2.7967e-05
2.67868e-05
2.5995e-05
2.60687e-05
2.61554e-05
2.62198e-05
2.62691e-05
2.63132e-05
2.63588e-05
2.64089e-05
2.64623e-05
2.65133e-05
2.6557e-05
2.66008e-05
2.66215e-05
2.65512e-05
2.62872e-05
2.57264e-05
2.47627e-05
2.33086e-05
2.13458e-05
1.90119e-05
1.6675e-05
1.48157e-05
1.36692e-05
1.30808e-05
1.27602e-05
1.25061e-05
1.22368e-05
1.1977e-05
5.17759e-05
5.30965e-05
5.19479e-05
4.82917e-05
4.33872e-05
3.88872e-05
3.59274e-05
3.45972e-05
3.4435e-05
3.50947e-05
3.681e-05
4.07054e-05
4.6279e-05
4.77444e-05
1.08311e-05
1.31496e-05
1.49652e-05
1.62243e-05
1.70163e-05
1.7456e-05
1.77775e-05
3.78458e-05
4.23565e-05
4.79163e-05
5.24809e-05
5.49388e-05
5.53964e-05
5.44843e-05
5.26477e-05
4.86348e-05
4.36398e-05
3.89427e-05
3.53114e-05
3.31066e-05
3.28377e-05
3.59207e-05
4.32738e-05
5.1796e-05
5.70207e-05
5.64292e-05
5.3033e-05
4.94069e-05
4.70471e-05
4.61141e-05
4.61533e-05
4.64529e-05
4.7084e-05
4.81796e-05
4.98796e-05
5.23176e-05
5.56178e-05
5.98903e-05
6.52171e-05
7.16264e-05
7.90529e-05
8.72909e-05
9.59514e-05
0.000104455
0.000112097
0.000118212
0.000121974
0.000125359
0.000128565
0.000131616
0.000134541
0.000137378
0.000140172
0.000142972
0.000145825
0.000148775
0.000151858
0.000155096
0.000158497
0.000162053
0.000165733
0.000169489
0.000173251
0.00017693
0.000180423
0.00018362
0.000186409
0.000188686
0.000190364
0.000191372
0.000191663
0.000191199
0.000189944
0.000187842
0.000184794
0.000180667
0.00017592
0.00017123
0.000166615
0.00016214
0.000157867
0.00015384
0.000150089
0.000146623
0.000143428
0.000140478
0.000137726
0.000135093
0.000132368
0.000128945
0.000123199
0.000112631
0.000100628
9.08686e-05
8.44346e-05
8.06591e-05
7.85903e-05
7.70349e-05
7.48064e-05
7.12033e-05
6.63932e-05
6.11961e-05
5.68108e-05
5.41438e-05
5.21926e-05
4.96936e-05
4.65814e-05
4.41136e-05
4.32406e-05
4.36282e-05
4.35312e-05
4.38921e-05
4.61607e-05
5.05538e-05
5.65801e-05
6.44662e-05
7.42351e-05
8.57017e-05
9.8493e-05
0.000112077
0.000125773
0.000138761
0.000150174
0.000159164
0.000166683
0.000174
0.000181191
0.000188282
0.000195276
0.00020214
0.000208789
0.000215064
0.000220721
0.000225428
0.000228785
0.00023034
0.000229497
0.000225134
0.00021781
0.000209332
0.000200039
0.000190257
0.000180227
0.000170118
0.000160037
0.000150045
0.000140171
0.000130414
0.000120751
0.000111066
9.95285e-05
8.48248e-05
7.13034e-05
6.06976e-05
5.34211e-05
4.91661e-05
4.73298e-05
4.72274e-05
4.82403e-05
4.98551e-05
5.15636e-05
5.28493e-05
5.33488e-05
5.29988e-05
5.1995e-05
5.05781e-05
4.93963e-05
4.84651e-05
4.83529e-05
4.84978e-05
4.82374e-05
4.74873e-05
4.65876e-05
4.61481e-05
4.6283e-05
4.64509e-05
4.63561e-05
4.74496e-05
5.01625e-05
4.95835e-05
5.47851e-05
6.64726e-05
8.10961e-05
9.71982e-05
0.000113139
0.000127288
0.000136723
4.78906e-05
3.83421e-05
5.01917e-05
6.04519e-05
6.60674e-05
6.79467e-05
6.76628e-05
6.64213e-05
6.32515e-05
5.83532e-05
5.30267e-05
4.93264e-05
4.91892e-05
5.3581e-05
6.17101e-05
7.03432e-05
7.33393e-05
7.02316e-05
6.49349e-05
6.04337e-05
5.77051e-05
5.67516e-05
5.73812e-05
5.94566e-05
6.29795e-05
6.81437e-05
7.51612e-05
8.41749e-05
9.51648e-05
0.000107857
0.000121675
0.000135792
0.000149283
0.000161352
0.000171492
0.000179544
0.000185629
0.000190016
0.000192964
0.000195246
0.000197191
0.000198848
0.000200252
0.000201457
0.000202535
0.000203576
0.000204679
0.000205949
0.000207489
0.000209387
0.000211718
0.000214528
0.000217836
0.000221627
0.000225853
0.000230432
0.000235253
0.000240182
0.000245067
0.000249748
0.000254064
0.000257868
0.000261025
0.000263423
0.000264975
0.000265613
0.000265291
0.000263977
0.000261658
0.000258623
0.000255244
0.000251651
0.000247943
0.000244211
0.000240533
0.000236974
0.000233574
0.00023034
0.000227239
0.00022418
0.000221013
0.000217508
0.00021331
0.000207867
0.000200437
0.000190424
0.000176438
0.000159457
0.000143056
0.000129017
0.000117857
0.000109236
0.000102262
9.60872e-05
9.03631e-05
8.50949e-05
7.99258e-05
7.46153e-05
6.88044e-05
6.44e-05
6.29067e-05
6.2758e-05
6.16127e-05
6.18946e-05
6.6794e-05
7.73773e-05
9.39273e-05
0.000115865
0.000141525
0.000168383
0.000194068
0.000217032
0.000236603
0.000252703
0.000265568
0.000275552
0.000283004
0.0002892
0.000294705
0.000299637
0.00030409
0.000308149
0.000311863
0.000315223
0.000318127
0.000320354
0.000321566
0.000321342
0.000319253
0.000314869
0.00030828
0.000300225
0.000291077
0.000281231
0.00027104
0.00026076
0.000250554
0.000240501
0.000230625
0.000220902
0.000211275
0.000201655
0.000191869
0.000181208
0.000167882
0.000150789
0.000131216
0.000111498
9.40168e-05
8.01095e-05
6.98993e-05
6.28206e-05
5.81191e-05
5.50879e-05
5.31592e-05
5.19373e-05
5.11932e-05
5.08283e-05
5.08232e-05
5.12127e-05
5.19803e-05
5.29921e-05
5.38712e-05
5.42143e-05
5.38261e-05
5.28889e-05
5.20634e-05
5.24568e-05
5.41297e-05
5.66191e-05
6.14707e-05
7.02031e-05
8.24932e-05
0.000107792
0.000139577
0.000171402
0.000198559
0.0002194
0.000233966
0.000242206
1.2585e-05
3.4119e-05
6.21924e-05
7.82376e-05
8.36511e-05
8.35499e-05
8.14871e-05
7.79601e-05
7.21865e-05
6.55428e-05
6.05518e-05
5.98984e-05
6.41657e-05
7.17355e-05
7.81733e-05
7.91829e-05
7.52077e-05
7.0119e-05
6.6396e-05
6.49632e-05
6.59537e-05
6.92491e-05
7.48029e-05
8.26786e-05
9.29519e-05
0.000105545
0.000120055
0.000135684
0.000151332
0.00016586
0.000178401
0.000188546
0.000196336
0.000202113
0.000206329
0.000209399
0.000211634
0.00021322
0.000214221
0.000214809
0.00021496
0.000214651
0.000213889
0.000212719
0.000211224
0.000209526
0.000207777
0.000206149
0.000204824
0.000203981
0.000203787
0.000204385
0.00020588
0.000208332
0.000211741
0.000216054
0.000221166
0.000226933
0.000233183
0.000239725
0.000246362
0.000252898
0.000259144
0.000264921
0.000270064
0.000274425
0.00027788
0.000280324
0.00028158
0.000281837
0.000281446
0.000280528
0.000279165
0.000277432
0.000275401
0.00027314
0.000270706
0.000268141
0.000265458
0.000262637
0.000259608
0.000256242
0.000252342
0.000247634
0.000241761
0.000234266
0.000224514
0.000211767
0.000195279
0.000177106
0.000159654
0.000144494
0.000132241
0.000122605
0.000114775
0.000107612
9.97072e-05
9.06891e-05
8.34512e-05
7.98551e-05
7.78376e-05
7.46885e-05
7.38333e-05
8.01235e-05
9.54645e-05
0.000120116
0.0001524
0.00018849
0.000223859
0.000255169
0.000281014
0.000301438
0.000317159
0.000329017
0.00033773
0.000343827
0.000347624
0.00035015
0.000351683
0.000352352
0.000352297
0.000351681
0.000350668
0.00034938
0.000347846
0.000345956
0.000343441
0.000339917
0.00033499
0.000328495
0.000321027
0.000312606
0.000303551
0.000294242
0.000285003
0.000276054
0.000267517
0.00025943
0.000251774
0.000244488
0.000237484
0.000230648
0.000223812
0.00021665
0.0002084
0.00019758
0.000183748
0.000167064
0.000148606
0.000130075
0.000113058
9.84905e-05
8.65987e-05
7.71166e-05
6.95737e-05
6.35325e-05
5.8713e-05
5.49979e-05
5.2368e-05
5.08317e-05
5.03597e-05
5.08096e-05
5.18475e-05
5.30012e-05
5.38628e-05
5.44008e-05
5.52173e-05
5.72654e-05
6.12203e-05
6.70265e-05
7.55629e-05
8.95885e-05
0.000113465
0.000155714
0.000203498
0.000243346
0.000272207
0.000290985
0.000301619
0.000305404
1.34067e-05
5.03868e-05
8.47997e-05
9.65284e-05
9.6477e-05
9.16427e-05
8.51317e-05
7.79126e-05
7.19967e-05
6.84705e-05
6.84621e-05
7.19012e-05
7.67768e-05
7.99883e-05
7.95497e-05
7.63037e-05
7.28039e-05
7.10913e-05
7.19993e-05
7.57411e-05
8.23015e-05
9.15721e-05
0.000103399
0.000117468
0.000133147
0.000149425
0.000165082
0.000179011
0.000190511
0.000199406
0.00020596
0.000210677
0.000214104
0.000216701
0.000218785
0.000220531
0.000222001
0.000223172
0.000223846
0.000223925
0.000223286
0.000221827
0.000219484
0.000216245
0.000212166
0.000207378
0.000202088
0.000196568
0.000191134
0.000186114
0.000181821
0.000178533
0.000176483
0.00017585
0.000176739
0.000179164
0.000183051
0.000188252
0.000194575
0.000201803
0.000209706
0.00021805
0.000226604
0.000235134
0.000243413
0.000251213
0.000258322
0.000264474
0.000269246
0.000273072
0.000276116
0.000278429
0.000280041
0.000280982
0.000281286
0.000280995
0.000280152
0.000278799
0.000276974
0.000274705
0.000272004
0.000268862
0.00026524
0.000261039
0.000256074
0.00025005
0.000242571
0.000233139
0.000221105
0.000205887
0.000188891
0.000172079
0.000157116
0.00014462
0.000133831
0.00012304
0.000111429
0.000101207
9.49979e-05
9.12631e-05
8.63042e-05
8.21898e-05
8.67754e-05
0.000102858
0.00013102
0.000168898
0.000211292
0.000252191
0.000287417
0.000315485
0.000336789
0.000352481
0.000363757
0.00037156
0.000376528
0.000379055
0.000379369
0.000378269
0.000375913
0.00037241
0.000367917
0.000362661
0.000356917
0.000350964
0.000344992
0.000339035
0.00033291
0.000326295
0.000318875
0.000311093
0.000302706
0.000293875
0.000284934
0.000276235
0.000268058
0.000260573
0.000253852
0.000247891
0.000242635
0.000238001
0.000233887
0.000230168
0.000226679
0.000223163
0.000219134
0.00021357
0.00020584
0.000195567
0.000182761
0.000168027
0.000152434
0.000137112
0.000122873
0.000110066
9.8681e-05
8.85551e-05
7.95557e-05
7.16633e-05
6.49597e-05
5.95719e-05
5.5608e-05
5.30908e-05
5.18925e-05
5.17354e-05
5.23092e-05
5.35258e-05
5.58302e-05
6.00729e-05
6.66422e-05
7.56155e-05
8.79776e-05
0.000107031
0.000140008
0.000192043
0.000248662
0.00029356
0.000322062
0.000337952
0.000344428
0.000343117
1.37118e-05
6.6853e-05
9.80538e-05
0.00010445
9.9848e-05
9.19153e-05
8.4435e-05
7.92169e-05
7.64037e-05
7.59029e-05
7.71146e-05
7.87666e-05
7.939e-05
7.83332e-05
7.63057e-05
7.48814e-05
7.55207e-05
7.89974e-05
8.55137e-05
9.49982e-05
0.000107192
0.000121615
0.000137524
0.000153903
0.000169587
0.000183534
0.000195093
0.000204108
0.000210847
0.000215823
0.000219606
0.000222691
0.000225432
0.000228032
0.000230568
0.000233016
0.000235291
0.000237167
0.000238549
0.000239273
0.00023915
0.000237988
0.000235609
0.000231868
0.000226673
0.000220011
0.000211977
0.000202809
0.0001929
0.000182786
0.000173081
0.000164381
0.000157171
0.000151804
0.000148506
0.000147375
0.000148377
0.000151362
0.000156115
0.000162394
0.000169948
0.000178522
0.000187854
0.000197676
0.000207723
0.000217711
0.000227353
0.000235922
0.00024356
0.000250467
0.000256641
0.000262041
0.000266625
0.000270356
0.000273211
0.000275176
0.000276252
0.000276451
0.00027579
0.000274297
0.000272008
0.000268976
0.000265266
0.000260947
0.000256048
0.000250519
0.000244191
0.000236761
0.000227752
0.000216552
0.00020278
0.000187624
0.00017256
0.000158413
0.000144679
0.000130472
0.000117127
0.000107933
0.000102935
9.7727e-05
9.06625e-05
8.9991e-05
0.000102662
0.000129728
0.000169214
0.00021532
0.000260794
0.000300235
0.000331486
0.000354818
0.000371563
0.000383191
0.000390891
0.000395479
0.000397446
0.000397051
0.000394503
0.000390385
0.00038478
0.000377756
0.000369464
0.000360162
0.000350224
0.000340087
0.000330104
0.000320489
0.000311135
0.000301788
0.000292808
0.000283674
0.000274339
0.000265024
0.000256054
0.000247743
0.000240318
0.000233898
0.000228506
0.000224105
0.000220624
0.00021798
0.000216085
0.000214835
0.000214094
0.000213651
0.000213128
0.000211737
0.000208827
0.000203943
0.000196787
0.000187387
0.00017617
0.000163835
0.000151112
0.000138542
0.000126413
0.000114833
0.00010385
9.35433e-05
8.40521e-05
7.55656e-05
6.82971e-05
6.24416e-05
5.81176e-05
5.53374e-05
5.40642e-05
5.43786e-05
5.66655e-05
6.15052e-05
6.95053e-05
8.14406e-05
9.77481e-05
0.000121431
0.00016039
0.000217312
0.000277369
0.00032427
0.000353663
0.00036787
0.000370876
0.000364908
1.38197e-05
7.62108e-05
0.000106313
0.000109508
0.000102362
9.36803e-05
8.70852e-05
8.30177e-05
8.08878e-05
7.99042e-05
7.93119e-05
7.85574e-05
7.75468e-05
7.67997e-05
7.72831e-05
8.00034e-05
8.56151e-05
9.42838e-05
0.000105807
0.00011972
0.000135287
0.000151525
0.000167332
0.000181693
0.0001939
0.000203674
0.000211149
0.000216743
0.000220996
0.000224433
0.00022748
0.000230424
0.000233424
0.000236528
0.000239699
0.000242841
0.000245811
0.00024851
0.000250901
0.000252809
0.000254012
0.000254273
0.00025335
0.000251011
0.000247035
0.000241226
0.000233432
0.000223583
0.000211772
0.000198347
0.000183991
0.000169674
0.000156468
0.000145268
0.00013664
0.000130829
0.000127823
0.000127437
0.000129401
0.000133441
0.000139299
0.000146718
0.000155433
0.000165127
0.000175551
0.000186369
0.000196812
0.000206764
0.000216356
0.000225517
0.000234137
0.000242091
0.00024926
0.00025553
0.000260804
0.000264998
0.000268047
0.000269904
0.000270539
0.000269938
0.000268119
0.000265137
0.000261109
0.000256216
0.000250684
0.000244724
0.000238456
0.000231817
0.000224501
0.000215932
0.000205385
0.00019277
0.000178766
0.00016389
0.000148157
0.000132399
0.000119694
0.000112369
0.000107663
0.000100753
9.41362e-05
9.93081e-05
0.000120896
0.000157886
0.000205075
0.000254322
0.000298605
0.000334399
0.000361287
0.000380486
0.000393647
0.000402229
0.000407287
0.00040949
0.000409197
0.000406567
0.000401804
0.000395339
0.00038719
0.00037738
0.000366034
0.000353432
0.00034
0.000326357
0.000312964
0.000300292
0.000288246
0.000277323
0.000266801
0.000256464
0.000246345
0.000236651
0.000227662
0.000219627
0.000212705
0.000206952
0.000202345
0.000198819
0.000196298
0.000194715
0.000194016
0.000194149
0.000195043
0.000196564
0.00019844
0.000200093
0.00020085
0.000200188
0.000197672
0.000193067
0.000186415
0.000178019
0.00016833
0.000157803
0.000146803
0.000135596
0.000124395
0.0001134
0.000102819
9.28664e-05
8.37606e-05
7.57233e-05
6.89695e-05
6.36983e-05
6.01175e-05
5.85248e-05
5.93531e-05
6.31208e-05
7.09851e-05
8.46782e-05
0.000104336
0.00013182
0.000173998
0.000232245
0.000292873
0.000340632
0.000370549
0.000384055
0.000384843
0.000375358
1.37744e-05
8.44657e-05
0.000113445
0.000114442
0.00010581
9.64298e-05
8.94602e-05
8.49534e-05
8.20633e-05
8.01113e-05
7.8776e-05
7.8088e-05
7.84032e-05
8.03274e-05
8.45421e-05
9.15536e-05
0.000101485
0.00011404
0.000128592
0.000144266
0.000160022
0.00017483
0.000187864
0.000198644
0.000207072
0.000213376
0.000217995
0.000221443
0.00022421
0.000226691
0.000229166
0.000231797
0.000234652
0.000237727
0.000240965
0.000244272
0.000247521
0.000250839
0.000254142
0.000257228
0.000259848
0.000261731
0.000262605
0.000262212
0.000260318
0.000256699
0.000251127
0.000243348
0.000233105
0.000220233
0.000204866
0.000187658
0.000169881
0.000153158
0.000138929
0.000128012
0.000120575
0.000116378
0.000115046
0.000116244
0.000119716
0.000125215
0.000132515
0.0001412
0.000151133
0.000161344
0.0001718
0.000182445
0.000193156
0.000203776
0.00021413
0.000224028
0.000233281
0.000241702
0.000249115
0.000255361
0.000260298
0.000263805
0.000265782
0.000266156
0.00026489
0.000262006
0.000257617
0.00025196
0.000245396
0.000238369
0.000231292
0.000224389
0.00021756
0.000210316
0.000201854
0.000191306
0.000178484
0.000163524
0.000147123
0.000131691
0.000120802
0.000115026
0.000109974
0.00010226
9.7981e-05
0.000109459
0.000139631
0.000184225
0.000235485
0.000284664
0.00032619
0.000358257
0.000381513
0.000397595
0.000408199
0.000414667
0.000417897
0.000418411
0.000416461
0.000412133
0.000405644
0.000397329
0.00038716
0.000375121
0.000361317
0.00034607
0.000329785
0.000313306
0.000297095
0.000282164
0.000268604
0.000256037
0.000244203
0.000232982
0.000222399
0.000212603
0.000203788
0.000196117
0.000189664
0.000184416
0.000180301
0.000177227
0.00017511
0.000173893
0.000173555
0.000174097
0.000175526
0.000177812
0.000180824
0.000184219
0.000187393
0.000189777
0.000190827
0.000190134
0.000187488
0.000182905
0.00017657
0.000168761
0.000159783
0.000149937
0.000139523
0.000128845
0.000118202
0.000107875
9.81075e-05
8.91142e-05
8.10915e-05
7.42468e-05
6.8843e-05
6.52519e-05
6.39341e-05
6.5519e-05
7.18841e-05
8.58348e-05
0.000107658
0.000137783
0.000181089
0.00023828
0.000297626
0.000345304
0.000375649
0.000389118
0.000388664
0.000376949
1.35746e-05
9.07542e-05
0.000118916
0.000118784
0.000109008
9.87072e-05
9.10115e-05
8.58867e-05
8.26217e-05
8.07642e-05
8.02188e-05
8.11583e-05
8.39371e-05
8.8991e-05
9.66747e-05
0.000107065
0.00011984
0.00013431
0.000149551
0.000164551
0.000178375
0.000190321
0.000200007
0.000207385
0.000212683
0.000216313
0.000218764
0.00022051
0.000221948
0.000223367
0.000224951
0.000226798
0.000228948
0.000231405
0.000234148
0.000237135
0.000240417
0.000244134
0.000248162
0.000252284
0.00025622
0.000259651
0.000262249
0.000263705
0.000263762
0.000262221
0.000258919
0.000253662
0.000246155
0.000235985
0.000222747
0.000206353
0.000187441
0.00016759
0.000148996
0.000133498
0.000121876
0.000114012
0.000109429
0.000107721
0.000108667
0.000112021
0.000117659
0.000124975
0.000133481
0.00014295
0.000153185
0.000164019
0.000175283
0.000186787
0.000198319
0.000209645
0.000220521
0.000230699
0.000239936
0.000248002
0.00025468
0.000259772
0.000263103
0.000264525
0.000263933
0.000261291
0.000256671
0.000250312
0.000242646
0.000234286
0.000225899
0.000218004
0.000210743
0.000203742
0.000196167
0.000186812
0.000174869
0.000160256
0.000144285
0.000130235
0.000121255
0.000116394
0.000110932
0.000103539
0.000102531
0.000119507
0.000156057
0.000205945
0.000259216
0.000306995
0.000345714
0.000374738
0.000395307
0.000409235
0.000418157
0.000423264
0.000425295
0.000424636
0.000421434
0.000415727
0.000407783
0.000397889
0.000386004
0.000372085
0.000356186
0.000338809
0.0003202
0.000301425
0.000283679
0.000267158
0.000251969
0.000238042
0.000225263
0.000213547
0.000202873
0.000193298
0.000184908
0.000177767
0.000171865
0.000167127
0.000163437
0.000160674
0.000158743
0.000157584
0.000157186
0.000157581
0.000158833
0.000161002
0.000164102
0.000168031
0.000172365
0.000176569
0.000180061
0.000182304
0.000182897
0.000181623
0.000178438
0.000173433
0.000166794
0.000158779
0.0001497
0.000139915
0.000129794
0.00011969
0.000109907
0.000100688
9.22188e-05
8.46632e-05
7.821e-05
7.31284e-05
6.97644e-05
6.88162e-05
7.28122e-05
8.56277e-05
0.000108117
0.000139539
0.000182459
0.000237053
0.000293795
0.000340501
0.000371016
0.0003848
0.000383989
0.000371179
1.31671e-05
9.39302e-05
0.000121619
0.000121266
0.000111283
0.000100673
9.26633e-05
8.74809e-05
8.46078e-05
8.37012e-05
8.47e-05
8.77365e-05
9.30421e-05
0.000100828
0.00011112
0.000123613
0.000137643
0.000152303
0.000166625
0.000179737
0.000190986
0.0002
0.000206704
0.000211274
0.000214075
0.000215568
0.000216224
0.000216453
0.000216564
0.000216763
0.000217172
0.000217858
0.000218871
0.00022026
0.000222081
0.000224375
0.0002274
0.000231193
0.000235629
0.00024049
0.000245483
0.000250252
0.000254407
0.000257562
0.000259381
0.000259629
0.000258174
0.000254936
0.000249762
0.000242294
0.000231961
0.000218175
0.000200813
0.000180756
0.000160211
0.000141791
0.000127018
0.000116161
0.000108784
0.000104454
0.000103084
0.000104427
0.00010817
0.000113934
0.000121347
0.000130105
0.000139975
0.000150765
0.000162289
0.000174341
0.000186686
0.000199059
0.000211178
0.000222753
0.000233493
0.000243111
0.000251331
0.000257886
0.000262526
0.00026503
0.000265218
0.000262981
0.000258333
0.000251474
0.000242857
0.000233192
0.000223347
0.000214101
0.000205843
0.000198349
0.000190755
0.000181816
0.000170388
0.000156364
0.000141418
0.000128996
0.000121476
0.00011701
0.000111384
0.000105128
0.000107495
0.000128846
0.000169545
0.000221672
0.000274831
0.000321394
0.000358465
0.000385618
0.000404444
0.000417055
0.000424991
0.000429293
0.00043056
0.000429068
0.000424874
0.000417921
0.000408593
0.000397214
0.000383767
0.00036821
0.000350383
0.000331227
0.000311286
0.000291292
0.000272035
0.000254031
0.000237548
0.000222665
0.000209362
0.000197555
0.000187143
0.000178065
0.000170297
0.000163809
0.000158525
0.000154324
0.000151059
0.000148594
0.000146818
0.000145663
0.000145109
0.000145191
0.00014599
0.000147621
0.0001502
0.000153817
0.000158284
0.000163202
0.000168039
0.000172216
0.000175202
0.000176588
0.000176124
0.000173714
0.000169402
0.000163358
0.00015586
0.000147273
0.000138009
0.000128477
0.00011904
0.00010999
0.000101533
9.38129e-05
8.69356e-05
8.10077e-05
7.61461e-05
7.29227e-05
7.42117e-05
8.48211e-05
0.000106466
0.000137777
0.000179173
0.000230177
0.00028332
0.000328178
0.000358408
0.000372563
0.000371998
0.000359052
1.21779e-05
9.25332e-05
0.000120534
0.0001216
0.000112629
0.000102443
9.46944e-05
9.00002e-05
8.80159e-05
8.84292e-05
9.11377e-05
9.6182e-05
0.000103638
0.000113481
0.00012544
0.000138924
0.000153096
0.000167028
0.000179873
0.000190967
0.000199892
0.000206487
0.000210838
0.000213231
0.000214088
0.000213876
0.000213035
0.000211915
0.000210756
0.000209703
0.000208835
0.000208205
0.000207876
0.000207956
0.000208605
0.000210009
0.000212512
0.000216063
0.000220523
0.000225684
0.000231263
0.000236903
0.00024219
0.000246678
0.000249949
0.000251677
0.00025169
0.000249956
0.000246454
0.000240977
0.000233036
0.000221866
0.000206883
0.000188256
0.000167804
0.000148579
0.000132286
0.00011955
0.000110156
0.000103802
0.000100409
9.99176e-05
0.000102122
0.000106676
0.000113201
0.000121369
0.000130924
0.000141656
0.000153361
0.000165817
0.000178768
0.000191927
0.000204991
0.000217643
0.000229567
0.000240442
0.00024995
0.000257774
0.000263605
0.000267152
0.000268161
0.000266451
0.000261962
0.000254836
0.0002455
0.000234712
0.000223477
0.000212796
0.000203289
0.000194894
0.000186798
0.000177743
0.000166565
0.000153209
0.000139434
0.000128395
0.000121749
0.000117342
0.000111841
0.000107106
0.000112356
0.000136542
0.000179199
0.000231756
0.000284057
0.000329307
0.000364956
0.000391065
0.000409265
0.000421458
0.000429084
0.000433058
0.000433854
0.000431719
0.000426665
0.000418571
0.000407829
0.000394952
0.000380006
0.00036303
0.000344167
0.000323877
0.000302736
0.000281529
0.000261069
0.000241983
0.000224654
0.000209281