/*--------------------------------*- C++ -*----------------------------------*\
  =========                 |
  \\      /  F ield         | OpenFOAM: The Open Source CFD Toolbox
   \\    /   O peration     | Website:  https://openfoam.org
    \\  /    A nd           | Version:  9
     \\/     M anipulation  |
\*---------------------------------------------------------------------------*/
FoamFile
{
    format      ascii;
    class       volScalarField;
    location    "0.085";
    object      nut;
}
// * * * * * * * * * * * * * * * * * * * * * * * * * * * * * * * * * * * * * //

dimensions      [0 2 -1 0 0 0 0];

internalField   nonuniform List<scalar> 
12225
(
3.56446e-09
0
0
0
0
0
0
0
0
0
0
0
0
0
0
0
0
0
1.12983e-09
0
0
0
0
0
0
0
0
0
0
0
0
0
0
0
0
0
1.33331e-09
0
0
0
0
0
0
0
0
0
0
0
0
0
0
0
0
0
2.64663e-08
0
0
0
0
0
1.21794e-09
3.5581e-09
3.77179e-09
2.457e-09
5.7952e-10
0
0
0
0
0
0
0
0
0
0
0
0
0
0
0
4.6618e-07
7.31627e-07
1.91186e-07
0
0
0
2.52731e-09
6.25429e-09
9.59647e-09
0
0
0
0
0
0
1.25775e-08
2.99698e-07
4.18625e-07
3.06216e-07
1.68791e-07
6.22662e-08
0
0
0
0
0
0
0
0
0
0
0
0
3.58744e-07
9.33236e-07
9.30061e-07
3.3906e-07
1.36094e-07
9.98403e-08
3.48227e-08
0
0
0
2.29245e-08
1.4667e-09
0
1.74417e-07
3.43022e-07
0
0
0
2.15144e-07
1.0827e-06
1.05408e-06
0
0
1.32253e-08
3.23444e-09
0
0
4.34604e-08
8.66851e-08
1.18517e-07
1.27191e-07
2.05165e-07
6.42194e-07
9.88786e-08
0
0
0
1.76662e-07
0
0
0
0
0
0
0
9.70177e-08
1.6413e-07
2.12128e-07
2.52779e-07
3.98743e-07
2.81701e-07
0
4.76973e-08
2.51613e-07
5.5273e-07
9.34933e-08
0
0
0
0
0
0
0
1.0688e-07
2.59756e-07
2.47577e-07
2.17201e-07
0
0
0
3.64061e-07
1.03435e-06
9.65488e-07
1.03745e-07
0
6.56818e-08
2.56518e-07
4.0978e-07
3.00042e-07
2.45011e-07
1.5995e-07
1.1253e-07
2.44086e-07
2.97416e-07
0
0
0
0
0
2.99966e-07
6.72747e-07
1.30888e-08
0
0
2.38911e-07
9.94819e-07
9.21399e-07
4.77152e-07
1.78392e-07
1.77789e-08
5.71038e-08
9.66719e-08
0
0
0
0
0
0
3.75757e-07
2.05762e-07
5.62476e-09
0
4.85208e-07
1.44316e-06
4.25066e-07
0
2.43998e-09
0
0
0
0
0
0
0
0
0
6.00451e-08
5.81935e-07
7.66209e-07
8.94129e-07
1.10228e-06
0
0
0
0
0
0
0
0
0
0
3.8493e-06
4.78672e-08
0
0
0
6.91502e-07
7.19656e-07
0
0
0
0
0
0
0
0
0
0
0
2.27612e-06
2.21971e-06
0
0
0
5.06493e-07
4.51828e-07
0
0
0
0
0
0
0
0
0
6.10537e-10
1.53415e-07
8.06459e-07
1.08728e-06
4.94409e-07
0
4.12078e-07
6.68667e-07
1.13006e-07
0
0
2.16073e-06
1.62485e-06
8.19127e-07
3.97839e-07
2.32223e-07
1.48937e-07
0
0
0
0
9.12678e-07
1.01001e-06
0
3.94047e-07
5.73459e-07
3.61212e-07
8.53067e-07
1.78049e-06
1.12062e-06
0
0
0
0
0
0
0
2.18771e-07
9.0754e-07
2.6174e-06
2.59618e-06
1.97874e-06
0
0
1.29355e-07
4.61257e-07
6.00904e-08
0
0
0
0
0
8.83544e-09
6.49182e-08
0
0
6.00774e-07
9.10479e-07
5.38613e-07
0
0
0
0
0
0
0
0
0
0
0
0
0
0
0
0
0
0
0
0
0
0
0
0
0
0
0
0
0
0
0
0
0
1.00011e-07
4.14062e-08
0
0
0
2.88571e-08
2.09308e-07
0
0
0
0
0
0
0
0
0
0
0
0
0
4.45541e-07
6.65317e-07
5.26291e-07
5.97693e-07
4.137e-07
6.60338e-08
0
0
0
0
0
0
0
0
0
0
0
0
0
0
0
0
1.61583e-07
2.37669e-07
1.90648e-07
2.90279e-07
2.34897e-07
0
0
0
0
0
3.2644e-07
0
0
0
0
0
0
0
1.1316e-06
1.72177e-06
1.71013e-06
1.27238e-06
8.20843e-07
4.50871e-07
6.25816e-08
0
0
0
3.63232e-07
3.72408e-07
0
0
0
0
0
0
4.41775e-08
2.57978e-07
8.00672e-07
9.6745e-07
9.51774e-07
8.16775e-07
5.13777e-07
1.8798e-07
0
0
0
0
0
1.46402e-08
1.92715e-08
2.49419e-08
3.38867e-08
3.28576e-08
2.09353e-08
6.9617e-09
0
0
0
0
0
0
0
0
1.72566e-10
0
0
0
0
0
4.19848e-10
7.89097e-10
4.53391e-10
0
0
0
0
0
0
0
0
0
2.69436e-10
0
0
0
0
0
0
0
0
0
0
0
0
0
0
0
0
0
3.99495e-10
0
0
0
0
0
0
0
0
0
0
0
0
0
0
0
0
0
0
6.41009e-07
4.64949e-06
0
0
0
0
0
0
0
0
0
0
0
1.11251e-06
0
0
0
0
0
8.10323e-08
1.95744e-06
1.4941e-06
0
0
0
0
0
0
1.99695e-07
3.63799e-07
5.08815e-07
6.22544e-07
7.04489e-07
7.71254e-07
8.09561e-07
8.17405e-07
8.11454e-07
7.8168e-07
7.20824e-07
6.46718e-07
5.56682e-07
4.53033e-07
3.45136e-07
2.34036e-07
1.22423e-07
1.12799e-08
0
0
0
0
0
0
0
0
0
0
0
0
0
0
0
0
0
0
0
0
0
0
0
0
0
0
0
0
0
0
1.15753e-06
3.84832e-07
0
0
1.66469e-06
0
0
0
0
6.40209e-06
2.54818e-05
3.25103e-05
2.6082e-05
1.41919e-05
8.85691e-07
0
0
0
0
0
0
0
8.36815e-06
3.02732e-05
6.3931e-05
8.17189e-05
5.82942e-05
2.41814e-05
6.78083e-06
1.49514e-06
1.39087e-07
1.5604e-08
2.12786e-07
3.66699e-07
3.58975e-07
2.76849e-07
1.80788e-07
9.02701e-08
2.50228e-09
0
0
0
0
0
0
0
0
0
0
0
0
0
0
0
0
0
0
0
0
0
0
0
0
0
0
0
0
0
0
0
0
0
0
0
0
0
0
0
0
0
0
0
0
0
0
0
1.15664e-08
1.55723e-08
6.61629e-09
1.77115e-09
4.97941e-09
1.22518e-08
2.04973e-08
2.81028e-08
2.60946e-08
1.7131e-08
1.14937e-08
0
0
0
0
0
0
0
2.1017e-06
5.9114e-08
1.89871e-06
5.12849e-06
6.15881e-06
4.81775e-06
2.08589e-06
0
0
0
0
0
0
0
0
3.71415e-07
3.38808e-06
1.75064e-06
0
7.30342e-07
4.57491e-06
4.03398e-06
1.1722e-06
6.16066e-07
8.69276e-07
7.94263e-07
8.37019e-07
9.19189e-07
8.73856e-07
8.2583e-07
8.16907e-07
7.97809e-07
7.93013e-07
7.97296e-07
7.84108e-07
7.69207e-07
7.50207e-07
7.09187e-07
6.55829e-07
5.90075e-07
5.09893e-07
4.19114e-07
3.21427e-07
2.22361e-07
1.22022e-07
2.17921e-08
0
0
0
0
0
0
0
0
0
0
0
0
0
0
0
0
0
0
0
0
0
8.51766e-07
2.94227e-06
2.30275e-06
0
0
0
0
0
0
1.47716e-06
0
0
0
0
6.38249e-07
0
0
0
2.05564e-05
4.0201e-05
3.82087e-05
2.78836e-05
1.66168e-05
4.38928e-06
0
0
0
0
0
0
4.69816e-06
2.24925e-05
2.83983e-05
2.39776e-05
1.88079e-05
1.47178e-05
9.97434e-06
6.05939e-06
3.1574e-06
1.38999e-06
6.94459e-07
5.95661e-07
6.31188e-07
6.00819e-07
5.03092e-07
3.70563e-07
2.01376e-07
5.33685e-09
0
0
0
0
0
0
0
0
0
0
0
0
0
0
0
0
0
0
0
0
0
0
0
0
0
0
0
0
0
0
0
0
0
0
0
0
0
0
0
0
0
0
0
0
0
0
0
0
0
0
0
0
1.02007e-09
1.95863e-08
3.5939e-08
3.97089e-08
3.21873e-08
2.799e-08
1.59643e-08
0
0
0
0
0
2.05044e-05
1.01853e-05
3.85014e-06
5.08977e-06
8.93982e-06
1.03058e-05
9.02204e-06
6.44762e-06
1.02686e-06
0
0
0
0
0
0
0
0
0
0
2.54884e-07
2.19565e-06
3.40618e-06
0
0
0
4.35464e-07
1.359e-06
1.93941e-06
2.06678e-06
1.7678e-06
1.46199e-06
1.16423e-06
8.81738e-07
7.01907e-07
5.69917e-07
4.70446e-07
4.24639e-07
4.03544e-07
3.85967e-07
3.79056e-07
3.61908e-07
3.2219e-07
2.73967e-07
2.14805e-07
1.52576e-07
9.44989e-08
4.30945e-08
1.66962e-09
0
0
0
0
0
0
0
0
0
0
0
0
0
0
0
0
0
0
4.65357e-07
1.33706e-06
2.18413e-06
2.87556e-06
3.68808e-06
3.56754e-06
2.84711e-07
0
0
0
0
2.08824e-07
0
0
1.36178e-06
5.13539e-06
3.3498e-06
0
0
0
7.23585e-06
1.07401e-05
8.59826e-06
6.52599e-06
4.8977e-06
3.19082e-06
1.39405e-06
0
0
0
0
1.64352e-06
4.38389e-06
6.45339e-06
6.94208e-06
6.26294e-06
5.68088e-06
5.50408e-06
5.54579e-06
5.24767e-06
4.76353e-06
4.27104e-06
3.83624e-06
3.50095e-06
3.2208e-06
2.91417e-06
2.47065e-06
1.75949e-06
9.14152e-07
4.20052e-08
0
0
0
0
0
0
0
0
0
0
0
0
0
0
0
0
0
0
0
0
0
0
0
0
0
0
0
0
0
0
0
0
0
0
0
0
0
0
0
0
0
0
0
0
0
0
0
0
0
0
0
0
0
0
5.04036e-08
8.21687e-08
7.80554e-08
7.69419e-08
7.06886e-08
1.09839e-08
0
0
0
0
1.8972e-05
1.44172e-05
7.11815e-06
5.4459e-06
7.02152e-06
7.18366e-06
5.3941e-06
3.80444e-06
1.71554e-06
0
0
0
0
0
0
0
0
0
0
0
0
0
0
0
0
0
0
0
0
0
0
0
0
0
0
0
0
0
0
0
0
0
0
0
0
0
0
0
0
0
1.20276e-07
3.06088e-07
5.0148e-07
6.96956e-07
8.71217e-07
1.01736e-06
1.12887e-06
1.20907e-06
1.28028e-06
1.36474e-06
1.45341e-06
1.51163e-06
1.54773e-06
1.59849e-06
1.66361e-06
1.69813e-06
1.66491e-06
1.68724e-06
1.77351e-06
1.99112e-06
2.68239e-06
2.99883e-06
5.68429e-07
0
0
0
0
0
0
1.23995e-05
1.25493e-05
6.75356e-06
1.36665e-06
0
0
0
7.79488e-07
3.30789e-06
3.67379e-06
3.03169e-06
3.11402e-06
4.11992e-06
5.30386e-06
5.7596e-06
5.50536e-06
5.08794e-06
4.6481e-06
4.30355e-06
4.15924e-06
4.17229e-06
4.18337e-06
3.95401e-06
3.95926e-06
4.49261e-06
5.30149e-06
6.0033e-06
6.41071e-06
6.42738e-06
6.13001e-06
5.53556e-06
4.49891e-06
2.72309e-06
1.1827e-06
7.65972e-07
5.91001e-07
2.63322e-07
0
0
0
0
0
0
0
0
0
0
0
0
0
0
0
0
0
0
0
0
0
0
0
0
0
0
0
0
0
0
0
0
0
0
0
0
0
0
0
0
0
0
0
0
0
0
0
0
0
0
0
0
0
0
0
5.80151e-08
6.05525e-08
4.93745e-08
1.19917e-07
5.50518e-08
6.84112e-08
4.4894e-08
2.53268e-07
5.69268e-08
8.35846e-06
9.58343e-06
7.25995e-06
6.15348e-06
4.62929e-06
0
0
0
0
0
0
0
0
0
0
0
0
0
0
0
0
0
0
0
0
0
0
0
0
0
0
0
0
0
0
0
0
0
0
0
0
0
0
0
0
0
0
0
8.36189e-08
2.38863e-07
3.88005e-07
5.07305e-07
6.12596e-07
6.94897e-07
7.53143e-07
7.85685e-07
7.90428e-07
7.88824e-07
7.90695e-07
8.09027e-07
8.29409e-07
8.42503e-07
8.53183e-07
8.71917e-07
9.25743e-07
1.00322e-06
1.12327e-06
1.28675e-06
1.35521e-06
1.36435e-06
1.84117e-06
1.87368e-06
0
0
0
0
0
0
0
8.17144e-06
1.60198e-05
7.4122e-06
3.47464e-08
0
0
0
0
1.82445e-06
4.5712e-06
5.13523e-06
3.81071e-06
2.82636e-06
2.48084e-06
2.51103e-06
2.70011e-06
2.9026e-06
3.05589e-06
3.25039e-06
3.45859e-06
3.71112e-06
3.93605e-06
3.99301e-06
3.97967e-06
3.8546e-06
3.53269e-06
3.03049e-06
2.54726e-06
2.15329e-06
1.63269e-06
6.486e-07
0
0
0
0
0
0
0
0
5.6979e-07
1.71126e-06
1.31834e-06
3.44117e-07
0
0
0
0
0
0
0
0
0
0
0
0
0
0
0
0
0
0
0
0
0
0
0
0
6.81339e-08
2.9409e-07
4.84376e-07
5.85365e-07
3.40258e-07
0
0
0
0
2.25603e-07
0
0
4.81619e-07
7.92875e-07
5.53305e-07
0
0
0
0
0
0
0
0
0
0
0
5.44666e-09
5.94613e-08
2.2734e-07
2.28204e-07
3.52462e-07
4.93764e-07
1.06264e-06
6.19422e-07
9.89297e-07
2.04567e-06
3.87857e-06
4.98755e-06
0
0
0
0
0
0
0
0
0
0
0
0
0
0
0
0
0
0
0
0
0
0
0
0
0
0
0
0
0
0
0
0
0
0
0
0
0
0
1.31111e-07
6.76668e-07
1.20106e-06
1.6617e-06
1.95815e-06
1.89789e-06
1.4369e-06
8.20913e-07
2.82553e-07
3.79119e-08
7.9693e-08
2.71511e-07
4.95397e-07
6.82137e-07
7.82575e-07
8.46253e-07
8.44247e-07
8.39664e-07
8.15378e-07
7.77305e-07
7.09787e-07
6.19389e-07
5.56462e-07
5.05301e-07
5.0443e-07
5.60019e-07
6.86991e-07
8.78965e-07
1.46056e-06
2.57518e-06
0
0
0
0
0
0
0
4.66019e-08
1.11633e-05
7.80309e-06
0
0
0
0
0
7.82187e-07
2.02823e-06
1.13959e-06
6.6357e-07
4.7904e-07
4.07181e-07
4.13099e-07
5.18735e-07
6.99475e-07
9.25502e-07
1.18778e-06
1.43901e-06
1.66659e-06
1.81803e-06
1.83564e-06
1.72386e-06
1.51231e-06
1.2842e-06
1.15787e-06
1.1709e-06
1.16778e-06
8.3122e-07
0
0
0
0
0
0
0
0
0
0
0
0
0
0
0
0
0
0
0
0
0
0
0
0
0
0
0
0
0
0
0
0
0
0
0
0
0
7.66821e-08
4.93331e-07
7.88344e-07
1.12149e-06
1.41195e-06
1.38221e-06
5.70285e-07
0
0
4.34286e-06
3.47437e-06
2.8455e-06
2.70715e-06
2.38632e-06
1.701e-06
1.15866e-06
8.30115e-07
3.55479e-07
0
0
0
0
0
0
0
0
0
7.36247e-08
3.76653e-07
4.74311e-07
4.85516e-07
4.25583e-07
9.87839e-07
4.1692e-07
8.24922e-08
3.56942e-07
1.30726e-06
0
0
0
0
0
0
0
0
0
0
0
0
0
0
0
0
0
0
0
0
0
0
0
0
0
0
0
0
0
0
0
0
0
0
0
0
1.81797e-07
1.33722e-06
2.52703e-06
3.51898e-06
4.35381e-06
5.23718e-06
6.42223e-06
7.98437e-06
9.26092e-06
7.97532e-06
1.22646e-06
0
0
0
0
0
0
0
0
3.28727e-07
7.63597e-07
9.93455e-07
1.07798e-06
1.00073e-06
7.82249e-07
5.81873e-07
4.40054e-07
3.39466e-07
2.57911e-07
2.43513e-07
5.21285e-07
1.62796e-06
4.93589e-06
0
0
0
0
0
0
0
0
6.00727e-06
6.43478e-06
0
0
0
0
0
0
4.77701e-07
4.00365e-07
2.95074e-07
2.38874e-07
2.394e-07
2.66594e-07
3.12502e-07
3.60921e-07
4.36567e-07
5.50883e-07
7.0085e-07
8.87721e-07
1.03434e-06
1.04235e-06
8.98745e-07
6.89337e-07
5.63447e-07
6.31556e-07
8.45736e-07
9.62423e-07
5.88115e-07
0
0
0
0
0
0
0
0
0
0
0
0
1.15311e-07
3.0727e-07
0
0
0
0
0
0
0
0
0
0
0
0
0
0
0
0
0
0
0
0
0
0
0
0
6.23828e-07
1.04955e-06
1.37846e-06
1.78546e-06
2.17795e-06
2.25411e-06
2.0811e-06
3.55429e-06
9.61786e-06
6.05431e-06
5.72052e-06
5.15236e-06
4.36281e-06
3.36497e-06
2.67163e-06
2.30178e-06
1.94554e-06
1.27599e-06
1.97105e-07
0
0
0
0
0
1.68191e-08
1.89101e-07
4.35235e-07
8.64535e-07
9.1911e-07
6.18691e-07
1.35865e-07
4.17073e-07
0
0
5.31215e-08
3.84076e-07
0
0
0
0
0
0
0
0
0
0
0
0
0
0
0
0
0
0
0
0
0
0
0
0
0
0
0
0
0
0
0
0
0
0
7.1968e-08
1.51062e-06
2.83102e-06
3.42712e-06
3.31209e-06
3.0683e-06
3.0719e-06
3.53671e-06
4.60008e-06
6.32351e-06
8.06469e-06
6.63233e-06
0
0
0
0
0
0
0
0
0
0
0
0
8.2725e-07
1.22634e-06
1.19588e-06
8.88854e-07
5.97868e-07
3.7489e-07
2.27916e-07
8.50507e-08
0
3.61008e-07
0
0
0
0
0
0
0
0
0
2.29285e-06
2.5961e-06
0
0
0
0
0
0
3.34291e-07
3.98417e-07
2.87356e-07
1.90106e-07
1.74089e-07
2.1916e-07
2.51092e-07
2.60048e-07
2.75386e-07
3.1169e-07
4.21506e-07
6.0043e-07
7.74509e-07
7.92791e-07
6.13318e-07
3.54229e-07
2.44286e-07
4.14153e-07
7.52095e-07
9.19471e-07
4.85769e-07
0
0
0
0
0
0
0
4.28165e-07
0
0
0
0
1.03427e-06
1.08302e-06
5.60023e-07
0
0
0
0
0
0
0
0
0
0
0
0
0
0
0
0
0
0
0
0
0
0
0
3.26057e-07
1.46177e-06
1.78974e-06
2.0901e-06
2.52606e-06
2.91583e-06
3.07651e-06
3.70409e-06
7.02131e-06
4.2864e-06
3.6688e-06
4.31206e-06
4.56757e-06
4.50091e-06
4.1883e-06
3.91732e-06
3.82887e-06
3.93482e-06
3.49498e-06
9.16741e-07
2.48196e-07
1.87598e-07
2.96214e-07
5.43219e-07
7.6735e-07
9.19343e-07
1.16307e-06
1.51205e-06
1.28618e-06
6.50809e-07
1.21365e-08
1.55511e-07
0
0
0
0
0
0
0
0
0
0
0
0
0
0
0
0
0
0
0
0
0
0
0
0
0
0
0
0
0
0
0
0
0
0
0
0
0
6.55309e-07
2.05412e-06
2.75352e-06
2.44887e-06
1.64994e-06
9.91726e-07
7.04299e-07
8.21368e-07
1.31414e-06
2.11103e-06
2.99836e-06
3.27694e-06
2.23598e-06
8.79828e-07
9.32734e-08
0
0
0
0
0
0
0
0
0
0
0
5.06636e-07
1.17304e-06
1.15515e-06
8.50352e-07
5.36038e-07
3.15803e-07
1.64564e-07
4.32859e-08
0
0
0
0
0
0
0
0
2.7835e-07
1.36831e-06
1.9582e-06
1.01393e-06
0
0
0
0
0
6.44645e-08
5.56324e-07
5.64782e-07
3.42416e-07
1.51228e-07
7.48768e-08
1.04752e-07
1.59145e-07
1.88843e-07
2.02059e-07
2.13841e-07
2.98267e-07
4.61772e-07
6.37212e-07
6.7159e-07
4.87028e-07
1.95215e-07
8.51538e-08
3.0965e-07
7.00466e-07
8.7356e-07
4.05789e-07
0
0
0
0
0
0
1.0565e-08
6.16357e-07
2.3777e-07
2.36372e-07
1.92831e-06
3.17955e-06
2.77986e-06
1.86703e-06
1.11306e-06
4.60157e-07
0
0
0
0
0
0
0
0
0
0
0
0
0
0
0
0
0
0
0
0
0
0
0
1.52714e-06
2.32718e-06
2.54394e-06
2.83524e-06
3.27059e-06
3.55046e-06
3.81252e-06
5.05398e-06
5.25587e-06
2.54097e-06
2.59171e-06
3.1135e-06
3.29948e-06
3.28645e-06
3.40992e-06
3.5023e-06
3.42934e-06
2.84366e-06
1.53182e-06
1.00764e-06
1.85095e-06
3.94566e-06
4.86646e-06
4.56457e-06
3.86299e-06
2.7223e-06
2.1808e-06
1.48305e-06
5.29265e-07
0
1.42041e-07
1.58755e-07
0
0
0
1.21757e-06
5.38713e-07
1.46584e-07
0
0
0
0
0
0
0
0
0
0
0
0
0
0
0
0
0
0
0
0
0
0
0
0
0
0
0
0
0
7.54088e-07
1.90677e-06
2.28547e-06
1.70911e-06
8.66235e-07
4.01414e-07
4.93129e-07
1.09438e-06
2.15792e-06
3.6686e-06
5.5626e-06
7.36422e-06
6.97837e-06
2.48579e-06
0
1.81043e-07
1.44002e-06
2.40786e-06
2.85252e-06
2.7266e-06
2.03901e-06
7.97191e-07
0
0
0
0
0
0
4.06941e-07
1.00805e-06
8.89762e-07
6.14854e-07
3.99901e-07
2.41077e-07
1.2866e-07
7.78982e-08
0
0
0
0
0
1.3758e-06
1.92871e-06
2.43031e-06
3.02465e-06
3.392e-06
2.95997e-06
3.86354e-06
5.95351e-06
2.037e-06
5.28098e-07
1.54382e-07
1.94438e-07
4.15091e-07
4.7189e-07
3.03205e-07
7.94533e-08
0
0
0
8.03011e-08
1.25475e-07
1.54464e-07
2.33988e-07
3.54601e-07
5.03753e-07
5.51626e-07
3.9544e-07
1.08953e-07
1.64679e-08
2.39442e-07
5.89605e-07
7.16227e-07
2.77802e-07
0
0
0
0
0
0
0
0
9.75762e-07
3.8274e-06
6.36962e-06
6.35963e-06
4.66761e-06
2.8452e-06
1.65021e-06
8.75553e-07
7.35134e-08
0
0
0
0
0
0
0
0
0
0
0
0
0
0
0
0
0
0
0
0
0
0
0
2.78782e-06
3.18426e-06
3.31573e-06
3.60179e-06
3.95635e-06
4.09174e-06
4.43461e-06
5.48144e-06
3.32972e-06
1.73238e-06
1.95525e-06
2.31192e-06
2.38329e-06
2.18875e-06
1.93794e-06
1.68979e-06
1.39831e-06
1.06973e-06
8.1624e-07
7.44379e-07
1.24172e-06
2.56316e-06
3.45374e-06
4.0191e-06
4.68371e-06
3.65896e-06
1.814e-06
4.94337e-07
0
1.88674e-07
3.76095e-07
0
0
0
0
2.94744e-07
0
0
0
0
0
0
0
0
0
0
0
2.05611e-06
0
0
0
0
0
0
0
0
0
0
0
0
0
0
0
0
0
5.49703e-07
1.44169e-06
1.82157e-06
1.46742e-06
8.33883e-07
4.69365e-07
6.17509e-07
1.33643e-06
2.63376e-06
4.51767e-06
7.10657e-06
1.08115e-05
1.64519e-05
2.29813e-05
3.71544e-06
0
0
0
0
0
1.15546e-06
2.50031e-06
3.09754e-06
2.88498e-06
1.84138e-06
0
0
0
0
0
0
5.23842e-07
5.05897e-07
3.75544e-07
2.65698e-07
1.63346e-07
8.86803e-08
4.42978e-08
0
0
0
0
0
4.74755e-07
1.32265e-06
1.86481e-06
2.05057e-06
2.19318e-06
4.29235e-06
4.00343e-06
1.72888e-06
6.1454e-07
2.87782e-07
2.66147e-07
2.93734e-07
2.44526e-07
1.72996e-07
7.03437e-08
0
0
0
0
2.16675e-08
7.56256e-08
1.49693e-07
2.57986e-07
3.85504e-07
4.36843e-07
2.78353e-07
2.16238e-08
0
1.5288e-07
4.32697e-07
5.3306e-07
1.83284e-07
0
0
0
0
0
0
0
0
5.85891e-07
3.87671e-06
6.19798e-06
6.35956e-06
4.97008e-06
3.23593e-06
1.95924e-06
1.14505e-06
5.42132e-07
0
0
0
0
0
0
0
0
0
0
0
0
0
0
0
0
0
0
0
0
0
0
0
2.20782e-06
3.91132e-06
3.96687e-06
4.04337e-06
4.30091e-06
4.45844e-06
4.48544e-06
4.8344e-06
4.88513e-06
2.18764e-06
1.35925e-06
1.58378e-06
1.79672e-06
1.72621e-06
1.3689e-06
9.77946e-07
6.88973e-07
5.89707e-07
6.14488e-07
5.64262e-07
6.49043e-07
1.54511e-06
2.37189e-06
2.6846e-06
2.08952e-06
1.66124e-06
2.61109e-06
8.59849e-07
0
1.97662e-07
4.34279e-07
0
0
0
0
0
0
0
0
0
0
0
0
0
0
0
0
0
0
0
0
0
0
0
0
0
0
0
0
0
0
0
0
0
2.43729e-07
8.33372e-07
1.20185e-06
1.07285e-06
6.38277e-07
3.30202e-07
4.05471e-07
9.57835e-07
2.03966e-06
3.66698e-06
5.7802e-06
8.46109e-06
1.20359e-05
1.69488e-05
2.0049e-05
0
0
0
0
0
0
0
0
4.88252e-09
1.37137e-06
2.28911e-06
2.32291e-06
9.61507e-07
0
0
0
0
0
1.6017e-08
2.32834e-07
2.27955e-07
1.78227e-07
1.08007e-07
5.50068e-08
1.89092e-08
0
0
0
0
0
0
1.20365e-07
7.27576e-07
1.75956e-06
2.573e-06
2.03602e-06
1.03148e-06
5.19527e-07
5.3392e-07
7.71257e-07
7.18788e-07
2.00282e-07
0
0
0
0
0
0
0
0
4.45236e-08
1.55196e-07
3.07585e-07
3.55785e-07
1.5146e-07
0
0
1.47356e-08
3.65225e-07
5.65951e-07
3.36675e-07
0
0
0
0
0
0
0
0
0
1.99331e-06
3.56152e-06
4.25562e-06
3.79101e-06
2.71123e-06
1.84014e-06
1.35033e-06
9.99857e-07
3.40106e-07
0
0
0
0
0
0
0
0
0
0
0
0
0
0
0
0
0
0
0
0
0
0
0
4.31554e-06
4.83538e-06
4.63118e-06
4.67193e-06
4.80262e-06
4.74545e-06
4.68983e-06
4.88591e-06
3.75613e-06
1.55263e-06
1.20587e-06
1.425e-06
1.49437e-06
1.20965e-06
7.77792e-07
4.22302e-07
2.89125e-07
3.3952e-07
3.57947e-07
2.95064e-07
1.13009e-06
2.05083e-06
2.47302e-06
1.93609e-06
3.9104e-07
0
6.34363e-07
1.02983e-06
4.12319e-07
2.92483e-07
4.94198e-08
0
0
0
0
0
0
0
0
2.20226e-07
4.93327e-07
0
0
0
0
0
5.17241e-07
2.56634e-06
6.90497e-06
9.63805e-06
2.33835e-06
0
0
0
0
0
0
0
0
0
0
0
3.02116e-09
3.19895e-07
5.55677e-07
5.51757e-07
3.22381e-07
1.0513e-07
1.3379e-07
5.40544e-07
1.39528e-06
2.71386e-06
4.40398e-06
6.32288e-06
8.32795e-06
1.01163e-05
1.055e-05
5.60107e-06
0
0
0
0
0
0
0
0
0
0
0
7.72959e-07
1.71441e-06
6.48599e-07
0
0
0
0
0
0
1.44224e-07
1.38146e-07
1.00807e-07
5.46002e-08
2.18665e-08
0
0
0
0
0
0
8.78754e-08
9.00683e-07
1.46075e-06
1.32777e-06
7.24417e-07
1.12319e-07
0
0
4.42681e-07
5.68505e-07
0
0
0
0
0
0
0
0
0
0
4.51009e-08
2.26445e-07
3.07816e-07
5.81517e-08
0
0
0
3.60345e-07
7.42906e-07
6.50395e-07
0
0
0
0
0
0
0
0
0
6.52184e-07
1.61568e-06
2.51116e-06
2.45663e-06
1.69209e-06
1.30079e-06
1.39057e-06
1.30618e-06
6.31269e-07
0
0
0
0
0
0
0
0
0
0
0
0
0
0
0
0
0
0
0
0
0
0
0
2.19759e-06
5.81214e-06
5.44484e-06
5.11491e-06
5.11689e-06
5.0202e-06
4.80632e-06
4.66773e-06
4.48901e-06
2.6442e-06
1.21896e-06
1.14146e-06
1.27376e-06
1.12084e-06
7.69123e-07
3.86661e-07
1.59492e-07
1.3005e-07
1.27569e-07
0
5.92876e-07
1.58808e-06
1.66084e-06
6.48736e-07
3.12983e-07
0
0
6.69736e-07
1.24155e-06
7.74972e-07
6.1154e-08
0
0
0
0
0
0
0
0
0
0
5.75575e-07
8.635e-07
1.25943e-06
2.09798e-06
3.42385e-06
4.98707e-06
6.52608e-06
7.70353e-06
7.76476e-06
5.36812e-06
1.82738e-07
0
0
0
0
0
0
0
0
0
0
0
4.75109e-08
6.3554e-08
0
0
0
0
3.09305e-07
1.05182e-06
2.06618e-06
3.22287e-06
4.30379e-06
4.96008e-06
4.6454e-06
2.55838e-06
0
0
0
0
0
0
0
0
0
0
0
0
0
0
1.05926e-06
0
0
0
0
0
0
1.07983e-07
1.10652e-07
7.01974e-08
4.60451e-08
3.00675e-08
2.16208e-08
1.3659e-08
6.64028e-09
2.42392e-08
1.02978e-07
1.59285e-07
2.56325e-07
5.76237e-07
7.64236e-07
4.30055e-07
0
0
0
0
0
0
0
0
0
0
0
0
0
0
0
0
0
1.11316e-07
2.48883e-07
7.75339e-09
0
0
0
2.80585e-07
8.69063e-07
9.37172e-07
3.55698e-07
0
0
0
0
0
0
0
3.85955e-07
8.29384e-07
1.47081e-06
2.09577e-06
1.56634e-06
5.42513e-07
5.08966e-07
1.20435e-06
1.32155e-06
6.9984e-07
0
0
0
0
0
0
0
0
0
0
0
0
0
0
0
0
0
0
0
0
0
0
0
0
6.14817e-06
6.49208e-06
5.71588e-06
5.41392e-06
5.27033e-06
4.98974e-06
4.64338e-06
4.38734e-06
3.65962e-06
1.74606e-06
9.26368e-07
9.28699e-07
9.14162e-07
7.57408e-07
4.766e-07
1.53666e-07
1.9994e-08
0
0
7.01877e-08
1.02971e-06
5.71726e-07
7.43313e-08
3.72779e-07
4.84831e-07
2.80349e-07
8.17682e-07
1.1954e-06
1.13461e-06
0
0
0
0
0
0
0
0
0
0
0
0
0
2.1202e-07
1.3928e-06
2.63206e-06
3.52992e-06
3.82021e-06
3.40405e-06
2.54177e-06
1.43959e-06
6.18122e-07
8.98554e-07
1.09737e-06
6.44537e-07
5.28859e-07
5.09312e-07
4.77024e-07
3.96379e-07
3.06254e-07
1.50232e-07
0
0
0
0
0
0
0
0
0
0
2.97328e-07
6.77511e-07
8.68548e-07
5.42482e-07
0
0
0
0
0
0
0
0
0
0
0
0
0
0
0
0
7.22064e-09
6.36461e-07
0
0
0
0
0
1.9833e-07
1.86738e-07
8.91094e-08
4.13914e-08
2.72075e-08
2.67674e-08
3.28978e-08
3.45909e-08
3.13288e-08
4.79034e-08
8.42461e-08
1.4482e-07
1.40271e-07
0
0
0
0
0
0
0
0
0
0
0
0
0
0
0
0
0
0
0
1.38066e-09
1.48497e-07
0
0
0
0
1.3055e-08
8.80739e-07
1.18048e-06
8.83341e-07
0
0
0
0
8.93135e-07
1.57141e-06
1.98348e-06
2.46718e-06
2.69707e-06
2.76797e-06
2.15516e-06
4.11093e-07
0
0
8.84481e-07
1.06455e-06
6.10662e-07
5.56289e-08
0
0
0
0
0
0
0
0
0
0
0
0
0
0
0
0
0
0
0
0
1.65473e-06
0
0
4.7633e-06
7.57296e-06
6.50698e-06
5.71861e-06
5.45009e-06
5.13563e-06
4.695e-06
4.23944e-06
3.78176e-06
2.50023e-06
9.00042e-07
4.45037e-07
4.95014e-07
5.64789e-07
5.33993e-07
2.60405e-07
1.64557e-08
0
3.99293e-08
1.83678e-07
5.09928e-07
4.22779e-07
2.51206e-07
6.18024e-07
1.05956e-06
1.17465e-06
1.15657e-06
1.13369e-06
9.79288e-07
0
0
0
0
0
0
0
0
0
0
0
0
0
0
0
0
0
0
0
0
0
2.86435e-06
5.41246e-06
4.81132e-06
2.68273e-06
1.60547e-06
1.19457e-06
1.04176e-06
9.07878e-07
7.54018e-07
4.89782e-07
0
0
0
4.23012e-08
3.15056e-07
2.8421e-07
0
0
0
0
0
0
0
0
0
0
0
0
0
0
0
0
0
0
0
0
0
2.6333e-07
0
0
0
6.64032e-07
0
0
0
0
0
3.06363e-07
3.50038e-07
1.83665e-07
8.20672e-08
4.42247e-08
3.21636e-08
2.65891e-08
2.71257e-08
3.07106e-08
3.45989e-08
4.79672e-08
6.68356e-08
0
0
0
0
0
0
0
0
0
0
0
0
0
0
0
0
0
0
0
0
0
0
0
0
0
0
0
6.48709e-07
1.32694e-06
1.33896e-06
6.47184e-07
0
0
0
7.16535e-07
2.26576e-06
3.42215e-06
4.38951e-06
4.77929e-06
3.83188e-06
7.80767e-07
0
0
0
5.27675e-07
9.45505e-07
7.95675e-07
3.41349e-07
0
0
0
0
0
0
0
0
0
0
0
0
0
0
0
0
0
0
0
0
0
3.0935e-06
0
2.82324e-06
8.54629e-06
7.5726e-06
6.21403e-06
5.64093e-06
5.33391e-06
4.86864e-06
4.26238e-06
3.64654e-06
2.80689e-06
1.10197e-06
1.20047e-08
0
1.4117e-07
3.44309e-07
3.4418e-07
1.09966e-07
2.29102e-08
1.65042e-07
2.84665e-07
7.24146e-08
1.13109e-08
1.33953e-07
7.27014e-07
1.7471e-06
1.38491e-06
1.61757e-06
1.10686e-06
7.50325e-07
0
0
0
0
0
0
0
0
0
0
0
0
0
0
0
0
0
0
0
0
2.70091e-06
5.42866e-06
6.40442e-06
5.46884e-06
3.5135e-06
2.25154e-06
1.61873e-06
1.35923e-06
1.20219e-06
1.01485e-06
7.63361e-07
3.21803e-07
0
0
2.02225e-07
7.63409e-07
9.7815e-07
7.63029e-07
1.68209e-07
0
0
0
0
0
0
0
0
0
0
0
0
0
0
0
4.14479e-07
7.09669e-07
3.925e-07
3.69281e-07
6.16369e-07
1.21893e-07
0
5.2672e-08
7.20334e-07
3.29361e-07
0
0
0
0
9.28744e-08
2.91594e-07
1.80172e-07
9.31337e-08
5.63982e-08
4.33389e-08
3.77404e-08
3.31069e-08
2.97666e-08
3.34915e-08
4.90502e-08
7.02943e-08
9.13004e-08
0
0
0
0
0
0
0
0
0
0
0
0
0
0
0
0
0
0
0
0
0
0
0
0
0
0
1.92712e-08
1.1385e-06
1.63934e-06
1.65819e-06
1.31865e-06
3.48475e-07
2.38797e-08
1.28885e-06
2.87802e-06
4.5908e-06
6.13598e-06
6.68778e-06
2.96908e-06
0
0
0
0
2.50535e-07
1.7065e-06
1.6099e-06
6.89772e-07
0
0
0
0
0
0
0
0
0
0
0
0
0
0
0
0
0
0
0
0
0
6.73582e-06
3.6139e-06
3.02472e-06
8.95602e-06
8.77626e-06
6.89429e-06
5.82707e-06
5.43736e-06
4.99475e-06
4.31983e-06
3.53016e-06
2.65664e-06
1.23246e-06
0
0
0
0
2.29495e-07
1.90784e-07
8.41209e-08
1.69347e-07
1.61154e-07
0
0
0
0
4.47144e-07
0
5.75924e-07
9.84308e-07
5.18638e-07
0
0
0
0
0
0
0
0
0
0
0
0
0
0
0
0
0
0
7.93132e-07
2.98343e-06
4.63724e-06
5.59787e-06
5.67297e-06
4.84979e-06
3.48135e-06
2.458e-06
1.80572e-06
1.467e-06
1.29182e-06
1.12412e-06
9.05393e-07
6.09236e-07
1.89311e-07
0
1.8444e-07
8.15776e-07
1.3185e-06
1.44566e-06
1.13982e-06
3.96406e-07
0
0
0
0
0
0
0
0
0
0
0
1.6895e-06
2.8137e-06
2.4646e-06
2.05284e-06
1.62531e-06
9.56144e-07
6.55865e-07
7.1501e-07
2.4226e-07
0
1.60129e-07
6.99609e-07
4.89673e-07
0
0
0
0
2.24727e-08
1.30075e-07
6.11476e-08
2.64666e-08
2.43684e-08
3.03537e-08
3.48755e-08
3.55888e-08
3.50072e-08
3.37494e-08
3.59473e-08
3.83521e-08
3.58346e-08
3.03388e-08
0
0
0
0
0
0
0
0
0
0
0
0
0
0
0
0
0
0
0
0
0
0
0
0
0
0
5.68987e-07
1.65753e-06
2.35033e-06
3.09563e-06
4.07397e-06
5.05081e-06
5.86794e-06
7.23821e-06
9.39681e-06
1.18807e-05
1.24406e-05
0
0
0
0
0
1.19841e-06
3.68004e-06
2.6681e-06
6.23045e-07
0
0
2.18123e-07
0
0
0
0
0
0
0
0
0
0
0
0
0
0
0
0
0
0
7.45049e-06
6.35382e-06
4.20563e-06
8.93738e-06
1.00551e-05
7.64661e-06
6.06019e-06
5.42242e-06
5.05688e-06
4.397e-06
3.49892e-06
2.45109e-06
1.14797e-06
0
0
0
0
9.03227e-08
1.83973e-07
1.01523e-07
4.91719e-08
0
0
0
0
0
0
0
0
3.94444e-07
2.25443e-07
0
0
0
0
0
0
0
0
0
3.39987e-07
1.20359e-06
1.1329e-06
6.87735e-07
1.9328e-08
0
0
0
2.6615e-07
2.43859e-06
3.67465e-06
4.08411e-06
4.27226e-06
4.16524e-06
3.59961e-06
2.77636e-06
2.11506e-06
1.67066e-06
1.37171e-06
1.17894e-06
1.03305e-06
8.79299e-07
6.5897e-07
3.7371e-07
7.33438e-08
4.05146e-08
4.52437e-07
1.02098e-06
1.43148e-06
1.52056e-06
1.2214e-06
4.91126e-07
0
0
0
0
0
0
0
0
0
4.44274e-06
7.25658e-06
4.8976e-06
2.96813e-06
1.98197e-06
1.41976e-06
7.63882e-07
5.34117e-07
7.23995e-07
3.82419e-07
0
1.76142e-07
6.83539e-07
7.60539e-07
5.90586e-08
0
0
3.1558e-07
4.93e-07
2.92184e-07
1.17447e-07
3.85213e-08
1.72121e-08
1.87701e-08
2.47265e-08
2.56792e-08
2.16184e-08
1.73444e-08
1.59523e-08
1.37082e-08
8.7122e-09
0
0
0
0
0
0
0
0
0
0
0
0
0
0
0
0
0
0
0
0
0
0
0
0
0
0
0
0
1.22314e-06
2.49706e-06
3.77445e-06
5.54849e-06
8.1947e-06
1.11477e-05
1.45315e-05
1.86324e-05
2.41459e-05
2.1255e-05
0
0
0
0
0
4.21478e-06
5.36821e-06
3.02438e-06
0
0
0
8.79665e-07
7.35556e-07
0
0
0
0
0
0
0
0
0
0
0
0
0
0
0
0
0
2.83596e-06
5.66003e-06
3.59202e-06
8.20092e-06
1.11867e-05
8.5197e-06
6.35822e-06
5.36574e-06
4.94542e-06
4.40222e-06
3.47275e-06
2.29252e-06
9.36135e-07
0
0
0
0
2.99861e-08
1.74632e-07
9.72412e-08
0
0
0
0
0
0
0
0
0
0
3.24555e-07
0
0
0
0
0
0
0
0
5.79839e-07
1.65329e-06
1.85694e-06
1.73043e-06
1.40724e-06
8.89206e-07
1.28681e-07
0
0
1.14314e-07
2.42785e-06
2.46354e-06
2.38069e-06
2.53845e-06
2.6378e-06
2.37671e-06
1.91948e-06
1.50923e-06
1.23733e-06
1.07182e-06
9.34697e-07
8.08979e-07
6.89897e-07
5.41301e-07
3.35441e-07
9.65153e-08
0
1.6482e-08
3.98066e-07
8.40669e-07
1.15379e-06
1.22205e-06
9.81898e-07
4.17945e-07
0
0
0
0
0
0
0
0
6.40182e-06
5.66735e-06
3.23562e-06
1.63271e-06
9.89352e-07
7.53477e-07
4.05506e-07
4.26151e-07
7.29019e-07
4.86266e-07
2.63549e-08
2.07092e-07
8.03255e-07
1.36443e-06
1.72798e-06
1.55951e-06
1.43075e-06
1.22365e-06
8.51323e-07
4.93431e-07
2.61102e-07
1.38753e-07
7.65373e-08
4.6307e-08
3.4475e-08
2.92325e-08
2.20355e-08
1.34894e-08
6.94231e-09
0
0
0
0
0
0
0
0
0
0
0
0
1.672e-08
0
0
0
0
0
0
0
0
0
0
0
0
0
0
0
0
0
2.2502e-07
2.06327e-06
3.74094e-06
5.64827e-06
8.1786e-06
1.11958e-05
1.44948e-05
1.6938e-05
1.69877e-05
7.59361e-06
0
0
0
0
5.75864e-07
6.43828e-06
5.40474e-06
2.14892e-06
0
0
0
1.31114e-06
1.63528e-06
1.51959e-07
0
0
0
0
0
0
0
0
0
0
0
0
7.77322e-07
3.97263e-06
1.90096e-06
0
0
1.50874e-06
4.21624e-08
6.1932e-06
1.17535e-05
9.24978e-06
6.59054e-06
5.28039e-06
4.70867e-06
4.26902e-06
3.40612e-06
2.186e-06
7.15484e-07
0
0
0
0
2.3618e-08
2.06518e-07
1.83358e-07
0
0
0
0
0
0
0
0
0
2.6341e-08
4.36358e-07
0
0
0
0
0
0
0
1.10251e-06
1.69716e-06
1.53894e-06
1.27196e-06
9.77709e-07
7.48001e-07
5.28312e-07
2.03551e-07
0
0
0
0
0
3.05768e-07
8.26733e-07
1.19827e-06
1.20639e-06
9.47268e-07
7.1695e-07
5.99138e-07
5.80587e-07
5.73711e-07
5.17213e-07
4.29072e-07
3.26622e-07
1.87715e-07
1.21142e-08
0
0
0
1.74361e-07
4.96668e-07
7.40397e-07
8.38898e-07
7.70803e-07
5.77162e-07
3.32968e-07
1.76726e-07
1.62788e-07
2.94606e-07
4.77504e-07
7.16306e-07
1.24187e-06
1.55296e-06
1.15148e-06
4.12573e-07
0
0
1.23519e-07
2.31925e-07
5.80456e-07
9.04423e-07
6.68331e-07
2.07896e-07
4.20225e-07
1.21415e-06
2.04045e-06
2.28316e-06
2.16176e-06
2.09521e-06
1.55915e-06
9.85695e-07
5.69318e-07
3.27654e-07
2.00992e-07
1.31184e-07
8.76723e-08
6.20523e-08
4.84982e-08
3.5987e-08
1.90191e-08
4.19224e-09
0
0
0
0
0
0
0
0
0
0
0
0
0
1.29998e-07
0
0
0
0
0
0
0
0
0
0
0
0
0
0
0
0
0
6.62965e-07
2.92536e-06
5.09239e-06
7.36827e-06
9.71393e-06
1.17647e-05
1.21816e-05
9.83953e-06
2.08858e-06
0
0
0
0
4.46818e-06
6.25424e-06
4.36901e-06
1.3674e-07
0
0
0
5.20421e-07
2.30863e-06
1.21142e-06
0
0
0
0
0
0
0
0
0
0
0
0
7.61314e-07
6.90864e-06
9.55899e-06
7.43054e-06
6.80069e-06
0
0
2.58643e-06
1.15753e-05
9.91359e-06
6.82331e-06
5.17286e-06
4.40374e-06
3.92382e-06
3.26451e-06
2.1217e-06
5.79767e-07
0
0
0
0
0
2.9361e-07
4.18623e-07
3.96471e-08
0
0
0
1.15317e-07
0
0
2.25175e-07
1.14478e-08
7.42678e-08
3.67561e-07
0
0
0
0
0
0
0
0
8.54521e-07
1.07182e-06
7.45114e-07
4.38202e-07
3.29295e-07
3.37541e-07
3.38864e-07
3.63014e-07
1.36531e-07
0
0
0
0
1.55823e-07
3.81619e-07
3.83285e-07
1.83902e-07
0
0
0
7.50872e-08
1.21053e-07
1.03978e-07
4.92031e-08
0
0
0
0
0
0
0
2.37165e-07
5.16614e-07
7.72327e-07
1.00133e-06
1.17575e-06
1.2935e-06
1.31185e-06
1.24678e-06
1.06425e-06
8.55637e-07
7.16169e-07
3.66232e-07
0
0
0
0
0
4.84684e-07
9.5689e-07
1.16823e-06
8.45728e-07
3.95751e-07
7.11814e-07
1.3472e-06
1.56163e-06
1.4698e-06
1.64781e-06
1.92491e-06
1.59831e-06
1.05482e-06
6.35442e-07
3.80045e-07
2.34402e-07
1.54738e-07
1.11445e-07
8.39317e-08
6.59884e-08
5.1929e-08
3.34962e-08
1.09037e-08
0
0
0
0
0
0
0
0
0
0
0
0
0
0
1.87996e-07
0
0
0
0
0
0
0
0
0
0
0
0
0
0
0
0
0
4.36999e-07
2.97668e-06
5.28743e-06
7.25098e-06
8.49239e-06
7.85671e-06
4.59124e-06
0
0
0
0
1.92181e-06
5.05581e-06
5.16952e-06
2.75945e-06
0
0
0
0
0
2.89654e-06
2.52287e-06
0
0
0
0
0
0
0
0
0
0
0
0
1.2581e-07
8.0154e-06
1.28189e-05
1.32334e-05
1.3688e-05
0
0
0
1.05059e-05
1.03827e-05
6.94837e-06
5.00447e-06
4.06563e-06
3.50472e-06
2.98293e-06
2.05634e-06
5.6953e-07
0
0
0
0
0
4.62002e-07
6.59295e-07
1.90636e-07
0
0
1.5809e-07
1.97393e-07
0
0
0
0
7.06111e-08
2.99275e-07
0
0
0
0
0
0
0
0
6.13574e-07
8.3888e-07
2.96856e-07
1.42705e-07
1.93745e-07
3.75875e-07
6.68709e-07
1.26012e-06
1.82342e-06
1.36822e-06
0
0
0
0
0
0
0
0
0
0
0
0
0
0
0
0
0
0
0
0
0
0
2.71166e-07
7.41456e-07
1.2206e-06
1.522e-06
1.54158e-06
1.32525e-06
1.05411e-06
7.53206e-07
5.15181e-07
3.34542e-07
0
0
0
0
0
2.84281e-07
9.51261e-07
1.36417e-06
1.3993e-06
9.65486e-07
4.94392e-07