/*--------------------------------*- C++ -*----------------------------------*\
  =========                 |
  \\      /  F ield         | OpenFOAM: The Open Source CFD Toolbox
   \\    /   O peration     | Website:  https://openfoam.org
    \\  /    A nd           | Version:  9
     \\/     M anipulation  |
\*---------------------------------------------------------------------------*/
FoamFile
{
    format      ascii;
    class       volScalarField;
    location    "0.085";
    object      p;
}
// * * * * * * * * * * * * * * * * * * * * * * * * * * * * * * * * * * * * * //

dimensions      [0 2 -2 0 0 0 0];

internalField   nonuniform List<scalar> 
12225
(
-1286.2
-1280.52
-1275.33
-1269.52
-1262.95
-1255.84
-1248.39
-1240.72
-1232.85
-1224.84
-1216.76
-1208.68
-1200.6
-1192.39
-1183.96
-1175.13
-1165.6
-1154.8
-1286.66
-1280.5
-1275.36
-1269.58
-1263.01
-1255.89
-1248.43
-1240.75
-1232.89
-1224.88
-1216.82
-1208.74
-1200.66
-1192.47
-1184.07
-1175.32
-1165.98
-1155.8
-1285.48
-1280.4
-1275.42
-1269.68
-1263.12
-1256
-1248.53
-1240.84
-1232.96
-1224.97
-1216.92
-1208.86
-1200.79
-1192.63
-1184.29
-1175.69
-1166.69
-1157.31
-1282.51
-1280.37
-1275.65
-1269.9
-1263.31
-1256.16
-1248.67
-1240.96
-1233.09
-1225.11
-1217.08
-1209.04
-1200.99
-1192.88
-1184.65
-1176.24
-1167.63
-1158.96
-1282.24
-1280.54
-1275.87
-1270.16
-1263.58
-1256.41
-1248.89
-1241.16
-1233.28
-1225.3
-1217.29
-1209.28
-1201.27
-1193.23
-1185.13
-1176.95
-1168.72
-1160.64
-1283.74
-1281.01
-1276.37
-1270.61
-1263.96
-1256.74
-1249.18
-1241.42
-1233.53
-1225.57
-1217.58
-1209.6
-1201.65
-1193.7
-1185.74
-1177.79
-1169.93
-1162.34
-1285.57
-1281.69
-1276.94
-1271.12
-1264.44
-1257.19
-1249.59
-1241.79
-1233.88
-1225.91
-1217.94
-1210.01
-1202.12
-1194.27
-1186.48
-1178.77
-1171.24
-1164.04
-1286.13
-1282.51
-1277.92
-1271.88
-1265.08
-1257.74
-1250.09
-1242.24
-1234.31
-1226.34
-1218.4
-1210.52
-1202.7
-1194.97
-1187.33
-1179.85
-1172.61
-1165.74
-1286.82
-1283.53
-1278.71
-1272.73
-1265.88
-1258.46
-1250.73
-1242.82
-1234.85
-1226.88
-1218.96
-1211.12
-1203.39
-1195.77
-1188.31
-1181.05
-1174.06
-1167.45
-1286.56
-1284.74
-1280.3
-1273.95
-1266.9
-1259.33
-1251.5
-1243.52
-1235.5
-1227.53
-1219.63
-1211.85
-1204.19
-1196.7
-1189.4
-1182.33
-1175.56
-1169.17
-1286.19
-1286.48
-1281.74
-1275.39
-1268.13
-1260.41
-1252.45
-1244.37
-1236.29
-1228.29
-1220.41
-1212.68
-1205.11
-1197.73
-1190.59
-1183.7
-1177.13
-1170.91
-1291.47
-1289.18
-1283.91
-1277.14
-1269.56
-1261.6
-1253.48
-1245.29
-1237.14
-1229.12
-1221.25
-1213.56
-1206.05
-1198.78
-1191.75
-1185.01
-1178.59
-1172.52
-1296.37
-1292.38
-1286.32
-1279.04
-1271.19
-1262.97
-1254.65
-1246.32
-1238.1
-1230.04
-1222.18
-1214.51
-1207.08
-1199.89
-1192.99
-1186.37
-1180.09
-1174.14
-1302.75
-1297.2
-1289.91
-1282.02
-1273.42
-1264.78
-1256.17
-1247.67
-1239.34
-1231.23
-1223.36
-1215.73
-1208.35
-1201.26
-1194.46
-1187.97
-1181.82
-1175.99
-1313.1
-1302.93
-1294.47
-1285.55
-1276.32
-1267.16
-1258.16
-1249.4
-1240.93
-1232.75
-1224.85
-1217.24
-1209.92
-1202.92
-1196.23
-1189.87
-1183.83
-1178.13
-1322.2
-1312.97
-1301.14
-1290.36
-1280.05
-1270.16
-1260.65
-1251.59
-1242.93
-1234.64
-1226.69
-1219.08
-1211.81
-1204.89
-1198.3
-1192.04
-1186.12
-1180.52
-1329.21
-1317.34
-1307.47
-1296.02
-1284.55
-1273.81
-1263.79
-1254.29
-1245.36
-1236.92
-1228.9
-1221.28
-1214.04
-1207.17
-1200.66
-1194.49
-1188.67
-1183.16
-1367.49
-1341.69
-1320.76
-1304
-1289.99
-1277.85
-1267.02
-1257.16
-1247.99
-1239.41
-1231.34
-1223.73
-1216.53
-1209.72
-1203.27
-1197.18
-1191.43
-1186
-1374.86
-1344.92
-1323.27
-1306.76
-1293.01
-1280.93
-1269.97
-1259.92
-1250.65
-1242
-1233.88
-1226.26
-1219.09
-1212.32
-1205.95
-1199.93
-1194.24
-1188.87
-1361.85
-1341.99
-1323.6
-1307.93
-1294.24
-1282.08
-1271.18
-1261.23
-1252.03
-1243.48
-1235.49
-1227.99
-1220.91
-1214.23
-1207.92
-1201.97
-1196.34
-1191.02
-1353.24
-1335.56
-1319.38
-1305.36
-1292.96
-1281.72
-1271.36
-1261.71
-1252.75
-1244.36
-1236.47
-1229.03
-1222.02
-1215.39
-1209.15
-1203.24
-1197.65
-1192.36
-1345.14
-1329.52
-1315.19
-1302.73
-1291.35
-1280.75
-1270.88
-1261.62
-1252.91
-1244.72
-1237
-1229.69
-1222.76
-1216.22
-1210.01
-1204.14
-1198.58
-1193.31
-1329.75
-1319.75
-1310
-1299.66
-1289.52
-1279.76
-1270.43
-1261.52
-1253.01
-1244.95
-1237.31
-1230.07
-1223.21
-1216.71
-1210.56
-1204.72
-1199.2
-1193.97
-1327.46
-1316.21
-1306.52
-1297.25
-1287.93
-1278.7
-1269.77
-1261.18
-1252.92
-1245.02
-1237.51
-1230.35
-1223.54
-1217.08
-1210.95
-1205.14
-1199.63
-1194.39
-1318.68
-1311.19
-1303.53
-1295.38
-1286.76
-1278.01
-1269.37
-1260.96
-1252.82
-1245.02
-1237.58
-1230.48
-1223.72
-1217.3
-1211.2
-1205.41
-1199.91
-1194.7
-1306.59
-1306.62
-1301.26
-1293.9
-1285.76
-1277.37
-1268.97
-1260.71
-1252.73
-1245.04
-1237.66
-1230.6
-1223.86
-1217.45
-1211.37
-1205.59
-1200.1
-1194.9
-1303.07
-1304.36
-1299.78
-1292.98
-1285.18
-1276.98
-1268.73
-1260.58
-1252.66
-1245.02
-1237.68
-1230.64
-1223.93
-1217.54
-1211.47
-1205.7
-1200.22
-1195.02
-1303.42
-1303.13
-1298.87
-1292.36
-1284.75
-1276.71
-1268.57
-1260.5
-1252.64
-1245.03
-1237.71
-1230.69
-1223.98
-1217.6
-1211.53
-1205.76
-1200.29
-1195.1
-1304.32
-1302.6
-1298.4
-1292.05
-1284.54
-1276.57
-1268.48
-1260.45
-1252.61
-1245.02
-1237.72
-1230.71
-1224.01
-1217.63
-1211.56
-1205.79
-1200.32
-1195.14
-1304.41
-1302.39
-1298.23
-1291.92
-1284.43
-1276.5
-1268.44
-1260.43
-1252.6
-1245.02
-1237.73
-1230.72
-1224.02
-1217.64
-1211.56
-1205.79
-1200.33
-1195.15
-1064.9
-1064.88
-1064.81
-1064.63
-1064.37
-1064.03
-1063.68
-1063.34
-1063.02
-1062.69
-1062.24
-1061.76
-1061.38
-1060.85
-1060.35
-1059.86
-1059.39
-1058.89
-1058.3
-1057.6
-1056.82
-1056.12
-1055.55
-1055.08
-1054.59
-1054.09
-1053.59
-1053.09
-1052.61
-1052.16
-1051.75
-1051.38
-1051.06
-1050.77
-1050.51
-1050.27
-1050.05
-1049.82
-1049.58
-1049.29
-1048.92
-1048.44
-1047.79
-1046.93
-1045.83
-1044.44
-1042.72
-1040.64
-1038.18
-1035.32
-1032.06
-1028.4
-1024.35
-1019.94
-1015.16
-1010.05
-1004.65
-999.003
-993.162
-987.174
-981.098
-975.017
-968.991
-963.037
-957.16
-951.389
-945.759
-940.31
-935.114
-930.297
-925.961
-922.734
-920.702
-919.498
-918.29
-916.264
-912.927
-908.046
-903.331
-900.15
-898.238
-895.272
-891.286
-886.465
-882.394
-878.665
-874.931
-871.145
-867.376
-863.646
-859.957
-856.322
-852.773
-849.361
-846.149
-843.174
-840.452
-837.924
-835.418
-832.746
-829.886
-826.894
-823.856
-820.646
-817.417
-813.971
-812.22
-811.8
-813.166
-816.641
-822.083
-828.607
-834.788
-839.28
-841.305
-840.63
-837.221
-831.228
-822.54
-811.439
-798.346
-783.78
-768.228
-752.165
-736.075
-720.393
-705.428
-691.356
-678.265
-666.202
-655.209
-645.332
-636.596
-628.971
-622.362
-616.619
-611.584
-607.113
-603.066
-599.324
-595.771
-592.297
-588.798
-585.183
-581.377
-577.324
-572.989
-568.351
-563.407
-558.194
-552.741
-547.058
-541.176
-535.188
-529.22
-523.335
-517.444
-511.394
-505.12
-498.663
-492.113
-485.517
-478.887
-472.212
-465.489
-458.716
-451.886
-444.982
-437.996
-430.921
-423.755
-416.516
-409.23
-401.889
-394.498
-387.082
-379.651
-372.192
-364.756
-357.42
-1065.33
-1065.31
-1065.21
-1064.99
-1064.63
-1064.22
-1063.79
-1063.36
-1062.96
-1062.62
-1062.26
-1061.87
-1061.46
-1060.93
-1060.4
-1059.89
-1059.37
-1058.86
-1058.34
-1057.81
-1057.14
-1056.39
-1055.76
-1055.21
-1054.67
-1054.17
-1053.69
-1053.22
-1052.77
-1052.35
-1051.97
-1051.64
-1051.34
-1051.09
-1050.88
-1050.71
-1050.55
-1050.4
-1050.23
-1050.01
-1049.7
-1049.26
-1048.64
-1047.81
-1046.71
-1045.31
-1043.57
-1041.47
-1039
-1036.14
-1032.88
-1029.21
-1025.15
-1020.69
-1015.87
-1010.7
-1005.23
-999.522
-993.623
-987.584
-981.477
-975.38
-969.342
-963.384
-957.541
-951.847
-946.321
-940.99
-935.927
-931.265
-927.088
-924.061
-922.224
-921.181
-920.189
-918.382
-915.492
-911.06
-906.166
-902.627
-899.413
-895.945
-892.053
-887.102
-882.697
-878.848
-875.021
-871.133
-867.291
-863.518
-859.822
-856.215
-852.702
-849.298
-846.082
-843.112
-840.423
-837.961
-835.563
-833.008
-830.114
-826.984
-823.809
-820.61
-817.558
-815.045
-813.868
-814.254
-816.527
-820.849
-826.869
-833.518
-839.346
-843.181
-844.47
-843.151
-839.367
-833.018
-824.2
-812.988
-799.787
-785.098
-769.419
-753.217
-736.979
-721.169
-706.117
-691.996
-678.873
-666.774
-655.735
-645.802
-637.014
-629.351
-622.716
-616.946
-611.886
-607.384
-603.305
-599.531
-595.952
-592.459
-588.946
-585.321
-581.506
-577.447
-573.105
-568.462
-563.524
-558.313
-552.856
-547.177
-541.313
-535.332
-529.354
-523.443
-517.526
-511.452
-505.142
-498.647
-492.063
-485.461
-478.858
-472.207
-465.491
-458.718
-451.887
-444.982
-437.996
-430.923
-423.756
-416.516
-409.23
-401.893
-394.498
-387.083
-379.654
-372.193
-364.745
-357.412
-1065.92
-1065.9
-1065.79
-1065.49
-1065.09
-1064.68
-1064.27
-1063.91
-1063.6
-1063.27
-1062.74
-1061.91
-1061.27
-1060.95
-1060.45
-1059.9
-1059.37
-1058.85
-1058.36
-1057.91
-1057.41
-1056.81
-1056.18
-1055.58
-1055.03
-1054.53
-1054.06
-1053.62
-1053.2
-1052.82
-1052.48
-1052.19
-1051.95
-1051.77
-1051.63
-1051.54
-1051.47
-1051.41
-1051.32
-1051.18
-1050.95
-1050.58
-1050.04
-1049.27
-1048.23
-1046.89
-1045.2
-1043.15
-1040.72
-1037.85
-1034.56
-1030.86
-1026.73
-1022.2
-1017.28
-1012.02
-1006.45
-1000.64
-994.639
-988.517
-982.346
-976.195
-970.117
-964.159
-958.379
-952.813
-947.463
-942.35
-937.533
-933.148
-929.304
-926.665
-925.222
-924.418
-923.516
-921.754
-918.716
-914.406
-909.401
-904.535
-899.94
-895.898
-891.59
-886.643
-882.213
-878.477
-874.751
-871.004
-867.269
-863.571
-859.912
-856.295
-852.73
-849.256
-845.937
-842.842
-840.001
-837.372
-834.844
-832.204
-829.398
-826.459
-823.535
-820.801
-818.55
-817.154
-817.076
-818.608
-821.96
-827.071
-833.362
-839.693
-844.747
-847.62
-848.052
-846.187
-842.168
-835.82
-826.963
-815.67
-802.324
-787.468
-771.604
-755.183
-738.701
-722.665
-707.451
-693.229
-680.039
-667.872
-656.748
-646.722
-637.852
-630.12
-623.431
-617.606
-612.481
-607.909
-603.761
-599.93
-596.307
-592.781
-589.244
-585.603
-581.776
-577.703
-573.348
-568.691
-563.727
-558.495
-553.022
-547.337
-541.481
-535.521
-529.538
-523.565
-517.544
-511.385
-505.063
-498.616
-492.089
-485.52
-478.895
-472.218
-465.487
-458.716
-451.89
-444.991
-438.006
-430.931
-423.761
-416.517
-409.226
-401.886
-394.495
-387.078
-379.645
-372.19
-364.741
-357.389
-1066.89
-1066.86
-1066.79
-1066.66
-1066.51
-1066.33
-1066.11
-1065.82
-1065.42
-1064.9
-1064.21
-1063.36
-1062.57
-1061.8
-1060.97
-1060.37
-1059.83
-1059.34
-1058.93
-1058.53
-1058.03
-1057.43
-1056.79
-1056.21
-1055.69
-1055.21
-1054.74
-1054.3
-1053.89
-1053.52
-1053.21
-1052.96
-1052.78
-1052.67
-1052.62
-1052.63
-1052.69
-1052.75
-1052.81
-1052.82
-1052.73
-1052.5
-1052.09
-1051.44
-1050.51
-1049.25
-1047.63
-1045.62
-1043.2
-1040.34
-1037.04
-1033.29
-1029.11
-1024.51
-1019.49
-1014.12
-1008.42
-1002.47
-996.315
-990.047
-983.749
-977.499
-971.357
-965.386
-959.648
-954.179
-948.993
-944.111
-939.57
-935.472
-932.033
-929.729
-928.583
-927.927
-927.058
-925.302
-922.116
-917.49
-912.02
-906.111
-900.273
-895.005
-890.172
-885.609
-881.493
-877.851
-874.38
-870.864
-867.287
-863.664
-860.017
-856.366
-852.732
-849.147
-845.67
-842.366
-839.295
-836.319
-833.476
-830.717
-828.007
-825.417
-823.075
-821.143
-819.874
-819.577
-820.587
-823.182
-827.506
-833.361
-839.982
-846.09
-850.418
-852.34
-851.953
-849.613
-845.434
-839.17
-830.452
-819.218
-805.823
-790.834
-774.77
-758.073
-741.259
-724.896
-709.433
-695.057
-681.773
-669.515
-658.285
-648.148
-639.172
-631.355
-624.588
-618.683
-613.459
-608.764
-604.487
-600.537
-596.831
-593.261
-589.692
-586.021
-582.171
-578.078
-573.699
-569.014
-564.008
-558.743
-553.246
-547.55
-541.694
-535.728
-529.708
-523.672
-517.593
-511.414
-505.094
-498.649
-492.121
-485.537
-478.909
-472.234
-465.507
-458.731
-451.898
-444.994
-438.008
-430.932
-423.763
-416.516
-409.222
-401.883
-394.49
-387.07
-379.638
-372.187
-364.729
-357.352
-1067.72
-1067.86
-1068.16
-1068.46
-1068.7
-1068.86
-1068.91
-1068.81
-1068.51
-1067.96
-1067.17
-1066.14
-1064.96
-1063.73
-1062.63
-1061.76
-1061.09
-1060.52
-1060.03
-1059.57
-1059.01
-1058.36
-1057.7
-1057.13
-1056.63
-1056.14
-1055.65
-1055.18
-1054.76
-1054.41
-1054.13
-1053.93
-1053.83
-1053.82
-1053.9
-1054.07
-1054.3
-1054.57
-1054.85
-1055.07
-1055.2
-1055.19
-1054.96
-1054.48
-1053.69
-1052.55
-1051.01
-1049.04
-1046.62
-1043.76
-1040.44
-1036.65
-1032.4
-1027.7
-1022.57
-1017.07
-1011.22
-1005.1
-998.757
-992.297
-985.811
-979.395
-973.133
-967.098
-961.347
-955.912
-950.816
-946.08
-941.729
-937.817
-934.511
-932.199
-930.903
-930.085
-929.026
-927.163
-923.887
-919.133
-913.427
-907.06
-900.528
-894.565
-889.467
-885.087
-881.183
-877.661
-874.294
-870.883
-867.38
-863.78
-860.107
-856.389
-852.658
-848.946
-845.29
-841.728
-838.273
-835.083
-832.058
-829.239
-826.684
-824.489
-822.769
-821.652
-821.311
-821.978
-823.938
-827.459
-832.648
-839.19
-846.121
-851.982
-855.589
-856.678
-855.707
-853.163
-849.087
-843.124
-834.736
-823.691
-810.312
-795.208
-778.924
-761.901
-744.667
-727.864
-712.056
-697.477
-684.09
-671.75
-660.414
-650.148
-641.043
-633.112
-626.245
-620.246
-614.914
-610.095
-605.684
-601.6
-597.744
-594.016
-590.349
-586.642
-582.748
-578.602
-574.183
-569.465
-564.382
-559.065
-553.521
-547.793
-541.919
-535.937
-529.892
-523.815
-517.687
-511.461
-505.113
-498.662
-492.144
-485.573
-478.949
-472.268
-465.53
-458.742
-451.902
-444.994
-438.005
-430.928
-423.757
-416.51
-409.211
-401.868
-394.476
-387.058
-379.631
-372.183
-364.717
-357.315
-1069.67
-1069.93
-1070.41
-1070.87
-1071.26
-1071.55
-1071.71
-1071.7
-1071.47
-1071.01
-1070.28
-1069.26
-1067.98
-1066.55
-1065.14
-1063.98
-1063.07
-1062.31
-1061.64
-1061.01
-1060.34
-1059.62
-1058.92
-1058.32
-1057.78
-1057.25
-1056.73
-1056.25
-1055.83
-1055.51
-1055.29
-1055.18
-1055.2
-1055.34
-1055.61
-1056.01
-1056.5
-1057.06
-1057.63
-1058.15
-1058.56
-1058.8
-1058.81
-1058.52
-1057.9
-1056.9
-1055.47
-1053.57
-1051.17
-1048.32
-1044.96
-1041.1
-1036.73
-1031.89
-1026.62
-1020.94
-1014.91
-1008.58
-1002.02
-995.315
-988.571
-981.905
-975.432
-969.246
-963.401
-957.917
-952.804
-948.072
-943.732
-939.802
-936.38
-933.722
-931.959
-930.572
-929.069
-926.912
-923.552
-918.882
-913.237
-906.957
-900.428
-894.393
-889.33
-885.096
-881.291
-877.793
-874.431
-871.024
-867.5
-863.862
-860.136
-856.348
-852.527
-848.703
-844.906
-841.176
-837.56
-834.143
-830.974
-828.144
-825.77
-823.962
-822.807
-822.387
-822.813
-824.266
-827.005
-831.304
-837.228
-844.342
-851.471
-857.026
-859.99
-860.486
-859.23
-856.75
-852.976
-847.451
-839.46
-828.657
-815.355
-800.193
-783.743
-766.426
-748.764
-731.462
-715.239
-700.419
-686.936
-674.545
-663.123
-652.735
-643.493
-635.416
-628.396
-622.253
-616.79
-611.836
-607.279
-603.052
-599.098
-595.305
-591.505
-587.586
-583.561
-579.326
-574.789
-569.941
-564.861
-559.47
-553.851
-548.064
-542.151
-536.147
-530.079
-523.96
-517.779
-511.514
-505.154
-498.709
-492.194
-485.617
-478.985
-472.296
-465.553
-458.756
-451.903
-444.984
-437.987
-430.906
-423.738
-416.494
-409.195
-401.852
-394.461
-387.045
-379.624
-372.183
-364.71
-357.279
-1072.52
-1072.79
-1073.15
-1073.54
-1073.93
-1074.25
-1074.45
-1074.45
-1074.23
-1073.78
-1073.08
-1072.11
-1070.87
-1069.42
-1067.9
-1066.52
-1065.37
-1064.43
-1063.58
-1062.78
-1061.98
-1061.17
-1060.4
-1059.74
-1059.14
-1058.55
-1057.99
-1057.51
-1057.12
-1056.86
-1056.73
-1056.76
-1056.95
-1057.32
-1057.87
-1058.58
-1059.43
-1060.35
-1061.28
-1062.14
-1062.85
-1063.36
-1063.6
-1063.54
-1063.11
-1062.29
-1061.01
-1059.25
-1056.99
-1054.12
-1050.71
-1046.73
-1042.21
-1037.19
-1031.71
-1025.83
-1019.58
-1013.02
-1006.2
-999.198
-992.112
-985.081
-978.258
-971.774
-965.701
-960.047
-954.795
-949.924
-945.424
-941.304
-937.6
-934.423
-931.862
-929.664
-927.465
-924.775
-921.264
-916.818
-911.573
-905.769
-899.679
-894.081
-889.365
-885.279
-881.522
-878.019
-874.616
-871.149
-867.571
-863.88
-860.096
-856.245
-852.355
-848.453
-844.569
-840.745
-837.034
-833.516
-830.295
-827.511
-825.328
-823.867
-823.19
-823.331
-824.354
-826.403
-829.735
-834.633
-841.112
-848.631
-855.836
-861.07
-863.551
-863.722
-862.431
-860.15
-856.725
-851.496
-843.819
-833.319
-820.253
-805.211
-788.757
-771.294
-753.312
-735.545
-718.87
-703.776
-690.215
-677.802
-666.326
-655.85
-646.496
-638.272
-631.056
-624.695
-619.036
-613.923
-609.226
-604.854
-600.75
-596.862
-593.054
-589.148
-584.967
-580.515
-575.784
-570.79
-565.532
-560.001
-554.264
-548.381
-542.401
-536.354
-530.254
-524.102
-517.888
-511.598
-505.222
-498.766
-492.242
-485.66
-479.023
-472.33
-465.579
-458.771
-451.904
-444.97
-437.964
-430.879
-423.715
-416.478
-409.182
-401.837
-394.444
-387.029
-379.615
-372.181
-364.701
-357.244
-1075.27
-1075.45
-1075.7
-1076.01
-1076.35
-1076.65
-1076.82
-1076.8
-1076.57
-1076.12
-1075.44
-1074.51
-1073.34
-1071.97
-1070.48
-1069.03
-1067.76
-1066.69
-1065.69
-1064.74
-1063.82
-1062.92
-1062.07
-1061.33
-1060.67
-1060.03
-1059.45
-1058.98
-1058.65
-1058.48
-1058.49
-1058.7
-1059.13
-1059.8
-1060.7
-1061.81
-1063.06
-1064.36
-1065.63
-1066.78
-1067.75
-1068.49
-1068.97
-1069.16
-1068.99
-1068.39
-1067.3
-1065.68
-1063.48
-1060.72
-1057.22
-1053.08
-1048.37
-1043.14
-1037.46
-1031.38
-1024.95
-1018.19
-1011.15
-1003.87
-996.42
-988.947
-981.64
-974.689
-968.213
-962.228
-956.694
-951.555
-946.772
-942.327
-938.214
-934.453
-931.065
-927.996
-924.996
-921.748
-918.002
-913.642
-908.868
-903.699
-898.361
-893.453
-889.183
-885.277
-881.606
-878.123
-874.685
-871.17
-867.545
-863.813
-859.996
-856.115
-852.196
-848.263
-844.347
-840.492
-836.752
-833.216
-830.013
-827.308
-825.298
-824.123
-823.829
-824.409
-825.872
-828.341
-832.072
-837.361
-844.181
-851.928
-859.117
-864.075
-866.266
-866.333
-865.166
-863.085
-859.829
-854.823
-847.464
-837.366
-824.666
-809.884
-793.573
-776.141
-758.02
-739.905
-722.784
-707.405
-693.794
-681.361
-669.861
-659.329
-649.892
-641.534
-634.107
-627.478
-621.563
-616.261
-611.438
-606.962
-602.737
-598.694
-594.789
-590.87
-586.741
-582.238
-577.321
-572.023
-566.471
-560.709
-554.787
-548.763
-542.68
-536.565
-530.423
-524.243
-518.006
-511.693
-505.3
-498.834
-492.303
-485.715
-479.07
-472.367
-465.607
-458.788
-451.908
-444.962
-437.947
-430.858
-423.693
-416.459
-409.168
-401.83
-394.443
-387.029
-379.614
-372.179
-364.688
-357.206
-1077.72
-1077.83
-1077.99
-1078.21
-1078.44
-1078.61
-1078.68
-1078.57
-1078.28
-1077.82
-1077.17
-1076.32
-1075.26
-1074.02
-1072.67
-1071.3
-1070.04
-1068.92
-1067.78
-1066.73
-1065.72
-1064.75
-1063.84
-1063.04
-1062.33
-1061.67
-1061.08
-1060.65
-1060.39
-1060.34
-1060.53
-1060.97
-1061.7
-1062.71
-1063.99
-1065.47
-1067.06
-1068.64
-1070.12
-1071.45
-1072.64
-1073.66
-1074.49
-1075.05
-1075.27
-1075.03
-1074.22
-1072.75
-1070.55
-1067.63
-1063.99
-1059.66
-1054.68
-1049.14
-1043.13
-1036.74
-1030.07
-1023.16
-1016.01
-1008.61
-1000.97
-993.161
-985.384
-977.896
-970.892
-964.434
-958.482
-952.959
-947.795
-942.942
-938.361
-934.021
-929.912
-926.023
-922.244
-918.448
-914.469
-910.245
-905.79
-901.189
-896.667
-892.508
-888.664
-884.991
-881.459
-878.033
-874.592
-871.062
-867.425
-863.692
-859.882
-856.011
-852.101
-848.176
-844.27
-840.429
-836.712
-833.218
-830.069
-827.45
-825.582
-824.624
-824.617
-825.52
-827.293
-830.024
-833.962
-839.426
-846.371
-854.191
-861.309
-866.076
-868.159
-868.283
-867.339
-865.469
-862.355
-857.545
-850.524
-840.842
-828.49
-813.946
-797.84
-780.593
-762.548
-744.245
-726.772
-711.168
-697.503
-685.069
-673.56
-662.992
-653.486
-645.001
-637.369
-630.468
-624.272
-618.756
-613.807
-609.26
-604.979
-600.852
-596.809
-592.786
-588.643
-584.198
-579.272
-573.793
-567.867
-561.716
-555.492
-549.249
-543.014
-536.798
-530.594
-524.379
-518.121
-511.795
-505.392
-498.916
-492.376
-485.777
-479.121
-472.408
-465.638
-458.808
-451.916
-444.959
-437.934
-430.84
-423.674
-416.443
-409.159
-401.828
-394.448
-387.037
-379.62
-372.179
-364.676
-357.169
-1079.85
-1079.91
-1079.99
-1080.13
-1080.28
-1080.37
-1080.35
-1080.17
-1079.84
-1079.36
-1078.72
-1077.89
-1076.9
-1075.75
-1074.54
-1073.29
-1072.08
-1070.92
-1069.76
-1068.63
-1067.58
-1066.58
-1065.63
-1064.8
-1064.06
-1063.39
-1062.82
-1062.44
-1062.28
-1062.38
-1062.77
-1063.48
-1064.5
-1065.84
-1067.42
-1069.16
-1070.94
-1072.67
-1074.33
-1075.91
-1077.46
-1078.99
-1080.43
-1081.67
-1082.54
-1082.89
-1082.54
-1081.3
-1079
-1076.02
-1072.14
-1067.37
-1061.81
-1055.6
-1048.91
-1041.91
-1034.73
-1027.44
-1020.05
-1012.55
-1004.87
-996.992
-988.983
-981.098
-973.595
-966.613
-960.164
-954.177
-948.571
-943.277
-938.239
-933.401
-928.728
-924.218
-919.843
-915.555
-911.305
-907.067
-902.871
-898.843
-895.002
-891.385
-887.884
-884.459
-881.11
-877.782
-874.387
-870.885
-867.275
-863.574
-859.799
-855.967
-852.097
-848.213
-844.35
-840.556
-836.897
-833.466
-830.391
-827.85
-826.088
-825.276
-825.459
-826.58
-828.545
-831.408
-835.384
-840.819
-847.68
-855.45
-862.454
-867.131
-869.244
-869.54
-868.893
-867.311
-864.426
-859.878
-853.208
-843.873
-831.746
-817.31
-801.362
-784.383
-766.592
-748.275
-730.65
-714.914
-701.2
-688.794
-677.301
-666.719
-657.158
-648.557
-640.746
-633.625
-627.204
-621.501
-616.428
-611.804
-607.466
-603.285
-599.138
-594.984
-590.751
-586.311
-581.455
-575.94
-569.755
-563.167
-556.491
-549.901
-543.434
-537.072
-530.781
-524.517
-518.236
-511.901
-505.493
-499.009
-492.458
-485.847
-479.179
-472.455
-465.674
-458.832
-451.928
-444.96
-437.927
-430.828
-423.661
-416.43
-409.148
-401.824
-394.453
-387.044
-379.617
-372.168
-364.665
-357.146
-1081.8
-1081.82
-1081.85
-1081.91
-1081.97
-1081.99
-1081.91
-1081.69
-1081.34
-1080.87
-1080.26
-1079.5
-1078.59
-1077.52
-1076.37
-1075.15
-1073.93
-1072.74
-1071.58
-1070.45
-1069.39
-1068.37
-1067.41
-1066.55
-1065.8
-1065.13
-1064.58
-1064.27
-1064.22
-1064.48
-1065.08
-1066.02
-1067.29
-1068.85
-1070.63
-1072.51
-1074.43
-1076.36
-1078.33
-1080.43
-1082.67
-1085.03
-1087.39
-1089.56
-1091.34
-1092.5
-1092.82
-1092.13
-1090.34
-1087.09
-1082.7
-1077.22
-1070.79
-1063.61
-1055.92
-1047.91
-1039.78
-1031.65
-1023.62
-1015.71
-1007.87
-999.985
-991.979
-983.939
-976.098
-968.662
-961.716
-955.242
-949.172
-943.444
-937.982
-932.738
-927.662
-922.738
-917.981
-913.411
-909.044
-904.862
-900.888
-897.16
-893.646
-890.292
-887.033
-883.843
-880.683
-877.471
-874.147
-870.697
-867.138
-863.487
-859.766
-855.991
-852.182
-848.363
-844.568
-840.846
-837.261
-833.905
-830.904
-828.438
-826.739
-826
-826.277
-827.514
-829.564
-832.469
-836.351
-841.587
-848.116
-855.81
-862.602
-867.257
-869.512
-870.06
-869.772
-868.592
-866.051
-861.827
-855.482
-846.416
-834.385
-819.916
-804.046
-787.341
-769.886
-751.786
-734.248
-718.499
-704.784
-692.424
-680.976
-670.422
-660.841
-652.153
-644.223
-636.979
-630.445
-624.657
-619.514
-614.826
-610.426
-606.173
-601.903
-597.549
-593.168
-588.673
-583.819
-578.317
-572.016
-565.077
-557.892
-550.814
-543.993
-537.413
-530.999
-524.669
-518.357
-512.011
-505.6
-499.112
-492.552
-485.928
-479.246
-472.509
-465.714
-458.861
-451.945
-444.966
-437.925
-430.82
-423.651
-416.419
-409.139
-401.816
-394.448
-387.04
-379.606
-372.149
-364.651
-357.133
-1083.69
-1083.69
-1083.66
-1083.65
-1083.65
-1083.61
-1083.48
-1083.24
-1082.87
-1082.39
-1081.8
-1081.1
-1080.25
-1079.27
-1078.17
-1076.92
-1075.68
-1074.49
-1073.33
-1072.21
-1071.14
-1070.1
-1069.12
-1068.25
-1067.49
-1066.81
-1066.28
-1066.02
-1066.07
-1066.47
-1067.23
-1068.35
-1069.79
-1071.48
-1073.36
-1075.36
-1077.47
-1079.71
-1082.19
-1085
-1088.14
-1091.48
-1094.83
-1097.97
-1100.65
-1102.61
-1103.58
-1103.34
-1101.72
-1098.52
-1093.89
-1087.91
-1080.76
-1072.68
-1063.94
-1054.82
-1045.59
-1036.42
-1027.44
-1018.71
-1010.29
-1002.17
-994.177
-986.155
-978.188
-970.454
-963.088
-956.155
-949.641
-943.522
-937.689
-932.106
-926.744
-921.568
-916.568
-911.812
-907.362
-903.224
-899.379
-895.844
-892.457
-889.267
-886.221
-883.256
-880.269
-877.172
-873.924
-870.536
-867.036
-863.447
-859.788
-856.078
-852.34
-848.597
-844.884
-841.247
-837.75
-834.478
-831.549
-829.134
-827.454
-826.722
-827.011
-828.269
-830.319
-833.154
-836.902
-841.867
-848.067
-855.116
-861.651
-866.382
-868.936
-869.82
-869.864
-869.079
-866.933
-863.036
-856.948
-848.059
-836.066
-821.567
-805.786
-789.363
-772.296
-754.608
-737.366
-721.781
-708.151
-695.866
-684.497
-674.023
-664.486
-655.784
-647.83
-640.596
-634.091
-628.334
-623.204
-618.496
-614.044
-609.727
-605.368
-600.795
-596.126
-591.45
-586.492
-580.915
-574.523
-567.369
-559.727
-552.072
-544.76
-537.861
-531.268
-524.847
-518.492
-512.13
-505.715
-499.224
-492.657
-486.02
-479.324
-472.57
-465.761
-458.894
-451.966
-444.976
-437.926
-430.815
-423.642
-416.41
-409.129
-401.804
-394.435
-387.028
-379.592
-372.129
-364.629
-357.11
-1085.69
-1085.65
-1085.58
-1085.5
-1085.42
-1085.31
-1085.14
-1084.85
-1084.43
-1083.9
-1083.26
-1082.51
-1081.66
-1080.69
-1079.61
-1078.44
-1077.24
-1076.08
-1074.94
-1073.82
-1072.74
-1071.68
-1070.69
-1069.8
-1069.02
-1068.33
-1067.8
-1067.56
-1067.67
-1068.16
-1069.04
-1070.27
-1071.79
-1073.55
-1075.49
-1077.61
-1079.94
-1082.59
-1085.65
-1089.19
-1093.17
-1097.4
-1101.65
-1105.69
-1109.25
-1112.03
-1113.68
-1113.87
-1112.36
-1109.22
-1104.38
-1097.95
-1090.13
-1081.21
-1071.53
-1061.44
-1051.24
-1041.16
-1031.32
-1021.75
-1012.51
-1003.79
-995.608
-987.634
-979.738
-971.912
-964.26
-956.926
-949.979
-943.588
-937.418
-931.572
-925.997
-920.673
-915.595
-910.758
-906.206
-902.007
-898.156
-894.589
-891.375
-888.373
-885.533
-882.752
-879.906
-876.914
-873.747
-870.428
-866.992
-863.468
-859.875
-856.231
-852.561
-848.893
-845.262
-841.712
-838.306
-835.121
-832.264
-829.881
-828.179
-827.383
-827.604
-828.803
-830.797
-833.504
-837.002
-841.548
-847.214
-853.662
-859.86
-864.623
-867.461
-868.672
-868.949
-868.43
-866.569
-862.874
-856.896
-848.173
-836.338
-821.976
-806.421
-790.377
-773.778
-756.611
-739.854
-724.625
-711.192
-699.037
-687.803
-677.474
-668.053
-659.434
-651.573
-644.471
-638.103
-632.438
-627.35
-622.648
-618.2
-613.86
-609.462
-604.819
-599.918
-594.929
-589.702
-583.877
-577.289
-569.94
-561.957
-553.728
-545.809
-538.464
-531.614
-525.065
-518.652
-512.265
-505.841
-499.346
-492.772
-486.123
-479.411
-472.641
-465.815
-458.933
-451.991
-444.989
-437.93
-430.812
-423.635
-416.401
-409.118
-401.79
-394.419
-387.011
-379.573
-372.104
-364.597
-357.068
-1087.94
-1087.86
-1087.71
-1087.56
-1087.39
-1087.21
-1086.97
-1086.64
-1086.19
-1085.59
-1084.87
-1084.04
-1083.1
-1082.07
-1080.97
-1079.82
-1078.66
-1077.52
-1076.39
-1075.27
-1074.16
-1073.09
-1072.07
-1071.14
-1070.31
-1069.59
-1069.03
-1068.78
-1068.9
-1069.42
-1070.35
-1071.62
-1073.18
-1074.96
-1076.96
-1079.2
-1081.76
-1084.78
-1088.35
-1092.53
-1097.22
-1102.21
-1107.26
-1112.11
-1116.49
-1120.04
-1122.33
-1122.98
-1121.73
-1118.52
-1113.37
-1106.42
-1097.94
-1088.24
-1077.73
-1066.77
-1055.72
-1044.9
-1034.46
-1024.36
-1014.5
-1005.11
-996.478
-988.473
-980.758
-973.054
-965.294
-957.666
-950.387
-943.582
-937.181
-931.157
-925.468
-920.077
-914.966
-910.158
-905.631
-901.38
-897.468
-893.924
-890.72
-887.793
-885.052
-882.371
-879.62
-876.716
-873.63
-870.379
-867.004
-863.544
-860.016
-856.437
-852.831
-849.231
-845.673
-842.205
-838.882
-835.779
-832.987
-830.63
-828.88
-827.96
-828.028
-829.089
-830.969
-833.499
-836.683
-840.718
-845.732
-851.511
-857.276
-861.991
-865.038
-866.479
-866.855
-866.404
-864.648
-861.019
-855.095
-846.537
-835.001
-820.991
-805.86
-790.341
-774.304
-757.751
-741.64
-726.939
-713.821
-701.877
-690.852
-680.734
-671.5
-663.049
-655.358
-648.436
-642.215
-636.616
-631.531
-626.815
-622.399
-618.146
-613.822
-609.283
-604.44
-599.238
-593.71
-587.437
-580.461
-572.801
-564.519
-555.782
-547.193
-539.276
-532.071
-525.341
-518.846
-512.424
-505.985
-499.482
-492.898
-486.237
-479.507
-472.719
-465.875
-458.976
-452.02
-445.005
-437.936
-430.81
-423.628
-416.39
-409.105
-401.774
-394.4
-386.989
-379.548
-372.073
-364.555
-357.016
-1090.54
-1090.4
-1090.17
-1089.93
-1089.67
-1089.4
-1089.08
-1088.7
-1088.19
-1087.56
-1086.79
-1085.89
-1084.89
-1083.8
-1082.65
-1081.47
-1080.28
-1079.1
-1077.93
-1076.75
-1075.57
-1074.41
-1073.29
-1072.26
-1071.33
-1070.53
-1069.89
-1069.57
-1069.64
-1070.15
-1071.07
-1072.35
-1073.91
-1075.71
-1077.74
-1080.07
-1082.8
-1086.08
-1090.01
-1094.62
-1099.79
-1105.31
-1110.9
-1116.29
-1121.17
-1125.16
-1127.83
-1128.74
-1127.66
-1124.32
-1118.97
-1111.73
-1102.86
-1092.7
-1081.66
-1070.18
-1058.6
-1047.22
-1036.35
-1026.03
-1015.96
-1006.14
-997.027
-988.891
-981.359
-973.911
-966.237
-958.44
-950.854
-943.725
-937.105
-930.947
-925.192
-919.8
-914.727
-909.94
-905.465
-901.295
-897.396
-893.784
-890.513
-887.575
-884.829
-882.145
-879.412
-876.558
-873.549
-870.39
-867.095
-863.683
-860.194
-856.666
-853.12
-849.585
-846.097
-842.7
-839.45
-836.415
-833.676
-831.337
-829.532
-828.454
-828.295
-829.121
-830.808
-833.125
-835.982
-839.481
-843.776
-848.785
-853.98
-858.497
-861.628
-863.219
-863.608
-863.047
-861.221
-857.592
-851.71
-843.321
-832.155
-818.668
-804.153
-789.284
-773.88
-758.035
-742.71
-728.675
-715.983
-704.34
-693.604
-683.755
-674.752
-666.523
-659.028
-652.247
-646.094
-640.484
-635.338
-630.57
-626.17
-622.049
-617.913
-613.647
-609.169
-604.128
-598.509
-591.788
-584.223
-576.086
-567.412
-558.214
-548.943
-540.346
-532.674
-525.695
-519.085
-512.614
-506.152
-499.635
-493.038
-486.36
-479.612
-472.803
-465.94
-459.023
-452.051
-445.023
-437.942
-430.809
-423.62
-416.378
-409.089
-401.755
-394.378
-386.964
-379.516
-372.033
-364.508
-356.962
-1093.71
-1093.54
-1093.25
-1092.91
-1092.51
-1092.1
-1091.65
-1091.14
-1090.54
-1089.83
-1089
-1088.06
-1087.02
-1085.9
-1084.72
-1083.5
-1082.26
-1080.99
-1079.71
-1078.39
-1077.05
-1075.7
-1074.4
-1073.18
-1072.09
-1071.13
-1070.37
-1069.91
-1069.88
-1070.3
-1071.18
-1072.45
-1074.01
-1075.82
-1077.86
-1080.21
-1083
-1086.37
-1090.44
-1095.21
-1100.58
-1106.3
-1112.09
-1117.64
-1122.62
-1126.66
-1129.36
-1130.33
-1129.3
-1125.97
-1120.58
-1113.28
-1104.31
-1094.05
-1082.88
-1071.29
-1059.64
-1048.1
-1037