/*--------------------------------*- C++ -*----------------------------------*\
  =========                 |
  \\      /  F ield         | OpenFOAM: The Open Source CFD Toolbox
   \\    /   O peration     | Website:  https://openfoam.org
    \\  /    A nd           | Version:  9
     \\/     M anipulation  |
\*---------------------------------------------------------------------------*/
FoamFile
{
    format      ascii;
    class       volVectorField;
    location    "0.085";
    object      U;
}
// * * * * * * * * * * * * * * * * * * * * * * * * * * * * * * * * * * * * * //

dimensions      [0 1 -1 0 0 0 0];

internalField   nonuniform List<vector> 
12225
(
(9.8835 0.0387182 0)
(9.4434 0.0720457 0)
(9.05253 0.0257998 0)
(8.79089 0.000972242 0)
(8.57524 0.0093277 0)
(8.3199 0.034613 0)
(8.02078 0.0515366 0)
(7.73818 0.0500669 0)
(7.50096 0.0402241 0)
(7.29398 0.0360435 0)
(7.07673 0.0432974 0)
(6.82859 0.0545794 0)
(6.54674 0.0588904 0)
(6.29374 0.0570955 0)
(6.00381 0.0523642 0)
(5.8164 0.0526524 0)
(5.50492 0.0747217 0)
(5.2137 0.109866 0)
(10.1188 -0.0110083 0)
(10.0404 0.110659 0)
(10.069 0.113555 0)
(10.0762 0.104144 0)
(10.0256 0.101185 0)
(9.97119 0.102875 0)
(9.95447 0.099914 0)
(9.96493 0.0904751 0)
(9.95915 0.0823731 0)
(9.91094 0.0836137 0)
(9.82509 0.0938173 0)
(9.72781 0.110075 0)
(9.63071 0.117491 0)
(9.55926 0.121817 0)
(9.48907 0.122959 0)
(9.441 0.122186 0)
(9.36877 0.158208 0)
(9.27512 0.202777 0)
(9.79157 0.0665452 0)
(9.86086 0.0946976 0)
(9.94308 0.0346805 0)
(10.0251 0.0166878 0)
(10.115 0.0330232 0)
(10.2096 0.044933 0)
(10.296 0.0461113 0)
(10.3464 0.0484108 0)
(10.335 0.0612698 0)
(10.2647 0.0838675 0)
(10.1654 0.107472 0)
(10.0735 0.124373 0)
(10.0087 0.125047 0)
(9.97111 0.115439 0)
(9.95526 0.105217 0)
(9.95259 0.105153 0)
(9.95847 0.138547 0)
(9.97396 0.207949 0)
(9.77881 0.000841342 0)
(9.90945 0.0325171 0)
(9.92004 0.0598577 0)
(9.88146 0.0514872 0)
(9.88835 0.0525613 0)
(9.92207 0.0596638 0)
(9.93971 0.0680637 0)
(9.93355 0.081925 0)
(9.91929 0.103863 0)
(9.91594 0.130281 0)
(9.93327 0.151405 0)
(9.96812 0.160451 0)
(10.0074 0.153192 0)
(10.0341 0.136649 0)
(10.0388 0.125217 0)
(10.026 0.126813 0)
(10.002 0.153003 0)
(9.9968 0.210347 0)
(9.82574 -0.0389123 0)
(9.84967 0.0756345 0)
(9.84231 0.0734839 0)
(9.83303 0.038189 0)
(9.85981 0.0184201 0)
(9.91616 0.0180678 0)
(9.95681 0.0335331 0)
(9.958 0.0549163 0)
(9.93597 0.0740171 0)
(9.92488 0.0881383 0)
(9.94571 0.0965112 0)
(9.99485 0.101153 0)
(10.0528 0.103035 0)
(10.0971 0.105943 0)
(10.1133 0.115553 0)
(10.1032 0.133509 0)
(10.0735 0.164494 0)
(10.044 0.208879 0)
(9.72306 -0.077163 0)
(9.79802 -0.0178879 0)
(9.91072 0.038253 0)
(10.0114 0.0382702 0)
(10.0445 0.0280473 0)
(10.017 0.0360303 0)
(9.9692 0.0630981 0)
(9.92875 0.0927413 0)
(9.9035 0.111086 0)
(9.89148 0.11626 0)
(9.88976 0.113096 0)
(9.89594 0.108205 0)
(9.90824 0.105629 0)
(9.9245 0.108439 0)
(9.94512 0.120837 0)
(9.96993 0.143866 0)
(9.99995 0.17711 0)
(10.0344 0.218263 0)
(10.1903 -0.0703801 0)
(10.1485 -1.21195e-05 0)
(10.1379 0.0406916 0)
(10.146 0.017119 0)
(10.1478 0.0155948 0)
(10.1334 0.032611 0)
(10.1177 0.05488 0)
(10.1132 0.0767842 0)
(10.1166 0.092795 0)
(10.1146 0.101501 0)
(10.0961 0.10376 0)
(10.0602 0.101107 0)
(10.0157 0.0958995 0)
(9.97559 0.0911784 0)
(9.94863 0.0933385 0)
(9.94384 0.106226 0)
(9.95798 0.130624 0)
(9.99739 0.167862 0)
(10.1098 -0.0209826 0)
(10.0009 -0.0103442 0)
(10.0536 0.0144931 0)
(10.108 0.0277902 0)
(10.1124 0.0370122 0)
(10.0634 0.0565234 0)
(9.99663 0.0800317 0)
(9.9535 0.0966202 0)
(9.95592 0.106942 0)
(9.9984 0.117641 0)
(10.0579 0.130542 0)
(10.1064 0.142028 0)
(10.1238 0.147902 0)
(10.1044 0.14721 0)
(10.0532 0.14329 0)
(9.99042 0.142448 0)
(9.92922 0.147708 0)
(9.8895 0.163048 0)
(10.0976 0.00170349 0)
(9.90958 0.0578889 0)
(9.82373 0.0112494 0)
(9.83448 -0.000334828 0)
(9.8742 0.02985 0)
(9.91445 0.0692104 0)
(9.95139 0.0926907 0)
(9.98536 0.0918257 0)
(10.0201 0.0744504 0)
(10.0608 0.057339 0)
(10.1091 0.0537089 0)
(10.1602 0.0672842 0)
(10.2038 0.093371 0)
(10.23 0.124502 0)
(10.2326 0.153449 0)
(10.2117 0.177167 0)
(10.1747 0.19508 0)
(10.1269 0.20796 0)
(10.1672 0.0890058 0)
(10.0166 0.0944329 0)
(10.0058 0.0268853 0)
(10.0278 0.00134025 0)
(10.0578 0.00698499 0)
(10.0787 0.0302169 0)
(10.0856 0.0524456 0)
(10.0761 0.0637655 0)
(10.0558 0.0671619 0)
(10.0401 0.069907 0)
(10.043 0.0774569 0)
(10.0688 0.0922663 0)
(10.1084 0.113278 0)
(10.145 0.137227 0)
(10.1635 0.160905 0)
(10.1568 0.182597 0)
(10.1294 0.202419 0)
(10.0901 0.21864 0)
(10.0805 0.156726 0)
(10.1717 0.129736 0)
(10.2567 0.0219225 0)
(10.2198 -0.0167055 0)
(10.1133 0.00769894 0)
(10.0391 0.0566934 0)
(10.0204 0.0955456 0)
(10.0317 0.108432 0)
(10.0447 0.0959406 0)
(10.0457 0.0673935 0)
(10.0359 0.0384126 0)
(10.0257 0.0259503 0)
(10.0271 0.0406986 0)
(10.0427 0.0815118 0)
(10.0703 0.137838 0)
(10.0977 0.19489 0)
(10.1232 0.241638 0)
(10.136 0.269694 0)
(9.64264 0.0746548 0)
(9.86843 0.00683323 0)
(10.0874 -2.15079e-05 0)
(10.0908 0.0513151 0)
(9.96287 0.0838499 0)
(9.86388 0.0774116 0)
(9.85445 0.0580007 0)
(9.9073 0.0493494 0)
(9.97605 0.0569142 0)
(10.0255 0.0728128 0)
(10.0418 0.087675 0)
(10.0308 0.0975551 0)
(10.0098 0.105177 0)
(9.99682 0.114798 0)
(10.0022 0.130859 0)
(10.0274 0.152476 0)
(10.0663 0.177912 0)
(10.1129 0.204807 0)
(9.90483 0.0463288 0)
(9.80142 -0.0272628 0)
(9.77931 -0.0449129 0)
(9.82519 0.0428384 0)
(9.8946 0.11009 0)
(9.95311 0.112807 0)
(9.97527 0.0779286 0)
(9.96641 0.0461483 0)
(9.95008 0.0327642 0)
(9.94328 0.0314739 0)
(9.94966 0.034087 0)
(9.9651 0.0404007 0)
(9.9825 0.0540192 0)
(9.99995 0.0770487 0)
(10.0137 0.107389 0)
(10.0288 0.140862 0)
(10.0394 0.173036 0)
(10.054 0.201647 0)
(10.1044 0.0103172 0)
(10.076 0.0149909 0)
(10.0165 -0.0220957 0)
(10.037 -0.0250468 0)
(10.1158 0.00144653 0)
(10.1693 0.0264401 0)
(10.1602 0.0458026 0)
(10.1162 0.0619021 0)
(10.0768 0.0740213 0)
(10.0562 0.0812439 0)
(10.0462 0.0845362 0)
(10.0359 0.0876864 0)
(10.0216 0.0935927 0)
(10.006 0.10431 0)
(9.99357 0.119811 0)
(9.98579 0.139285 0)
(9.9821 0.162251 0)
(9.97991 0.187497 0)
(10.1266 -0.0432549 0)
(10.0891 0.0182975 0)
(10.0707 0.0100417 0)
(10.0794 -0.00221452 0)
(10.1178 0.0394304 0)
(10.1379 0.102936 0)
(10.108 0.131423 0)
(10.0419 0.112197 0)
(9.97378 0.0744547 0)
(9.93081 0.0478588 0)
(9.92412 0.041349 0)
(9.94953 0.0505933 0)
(9.99264 0.0691005 0)
(10.0359 0.092289 0)
(10.068 0.118206 0)
(10.0847 0.146783 0)
(10.0896 0.176996 0)
(10.0901 0.208078 0)
(9.76832 -0.139346 0)
(9.73771 -0.0241876 0)
(9.72073 -0.0531129 0)
(9.69547 -0.0794968 0)
(9.71753 -0.0523439 0)
(9.80839 0.0229511 0)
(9.9219 0.113924 0)
(10.0172 0.17603 0)
(10.0826 0.183353 0)
(10.1186 0.140193 0)
(10.1287 0.0740183 0)
(10.1183 0.019318 0)
(10.0929 -0.000221041 0)
(10.0595 0.0190831 0)
(10.0249 0.0628503 0)
(9.99786 0.1129 0)
(9.98167 0.153598 0)
(9.98129 0.178823 0)
(10.3041 0.0729403 0)
(10.3143 0.113357 0)
(10.2555 0.106333 0)
(10.097 0.0341826 0)
(9.98174 -0.054284 0)
(9.96389 -0.103014 0)
(10.008 -0.111021 0)
(10.0812 -0.0984866 0)
(10.1677 -0.0736338 0)
(10.2435 -0.0309156 0)
(10.2844 0.0323761 0)
(10.2826 0.104937 0)
(10.2468 0.168632 0)
(10.195 0.21002 0)
(10.1449 0.226422 0)
(10.1082 0.224329 0)
(10.0884 0.212093 0)
(10.0835 0.200447 0)
(9.9944 -0.137006 0)
(9.96176 -0.0560459 0)
(10.0664 0.122472 0)
(10.1331 0.15566 0)
(10.1227 0.0877847 0)
(10.0887 0.0307783 0)
(10.0534 0.0133018 0)
(10.0119 0.0123149 0)
(9.96053 0.00786392 0)
(9.91062 0.00565763 0)
(9.87826 0.022321 0)
(9.87221 0.0623637 0)
(9.89078 0.1141 0)
(9.92569 0.160724 0)
(9.9663 0.189209 0)
(10.0046 0.197437 0)
(10.0355 0.188642 0)
(10.0571 0.172409 0)
(10.1538 0.039392 0)
(10.0083 0.0684631 0)
(9.95773 0.0261714 0)
(9.96478 0.00048894 0)
(9.99462 -0.0184625 0)
(9.99752 -0.0280132 0)
(9.98475 -0.00893365 0)
(9.98273 0.0343487 0)
(9.99112 0.079226 0)
(9.99765 0.105519 0)
(9.99791 0.107313 0)
(9.99651 0.0919612 0)
(9.99975 0.0716993 0)
(10.0109 0.0574123 0)
(10.0294 0.0560863 0)
(10.0517 0.0677946 0)
(10.0746 0.0905491 0)
(10.0937 0.118148 0)
(9.96761 0.132558 0)
(10.002 0.159948 0)
(10.0227 0.0937222 0)
(10.0498 0.0435195 0)
(10.0495 0.0299545 0)
(10.025 0.0312382 0)
(10.0008 0.0260291 0)
(9.99876 0.0123637 0)
(10.025 0.00296704 0)
(10.0727 0.0101589 0)
(10.1274 0.0325785 0)
(10.1724 0.0589783 0)
(10.1984 0.079134 0)
(10.2049 0.0879379 0)
(10.198 0.0871116 0)
(10.1847 0.0821829 0)
(10.1715 0.0787635 0)
(10.1616 0.0833832 0)
(10.0448 -0.0372887 0)
(10.0092 0.00372886 0)
(9.99151 0.0303314 0)
(9.94022 0.0317656 0)
(9.94542 0.041535 0)
(10.0046 0.0451339 0)
(10.0607 0.0270165 0)
(10.0834 -0.012177 0)
(10.08 -0.0532928 0)
(10.0712 -0.0729195 0)
(10.0724 -0.0612457 0)
(10.0925 -0.0243587 0)
(10.1311 0.0237271 0)
(10.1795 0.0688355 0)
(10.2251 0.102878 0)
(10.2584 0.124358 0)
(10.2765 0.136028 0)
(10.2786 0.142888 0)
(9.82654 -0.141642 0)
(9.81778 0.0624878 0)
(9.90374 0.0936785 0)
(10.0204 0.0420668 0)
(10.0739 -0.0269802 0)
(10.0583 -0.0656899 0)
(10.0055 -0.0523938 0)
(9.94088 -0.011535 0)
(9.88512 0.0187382 0)
(9.85091 0.0196207 0)
(9.84225 -0.00346289 0)
(9.85867 -0.0338397 0)
(9.89824 -0.0548199 0)
(9.95673 -0.0564781 0)
(10.0273 -0.0360564 0)
(10.0994 0.00163638 0)
(10.164 0.0495058 0)
(10.2131 0.0979162 0)
(9.88038 -0.0186738 0)
(9.94207 -0.0689599 0)
(9.98878 -0.098491 0)
(10.0086 -0.0797588 0)
(9.97333 -0.00175853 0)
(9.92309 0.0846754 0)
(9.90097 0.12001 0)
(9.91955 0.0945254 0)
(9.97097 0.0374155 0)
(10.0323 -0.0189574 0)
(10.0767 -0.0597168 0)
(10.0899 -0.0859345 0)
(10.076 -0.101667 0)
(10.0496 -0.107656 0)
(10.0259 -0.100246 0)
(10.0157 -0.0772382 0)
(10.0217 -0.0385819 0)
(10.0447 0.0131819 0)
(10.1337 -0.056137 0)
(10.1631 -0.0428181 0)
(10.1457 -0.00519859 0)
(10.1063 0.0303443 0)
(10.0429 0.0408068 0)
(9.99927 0.0307103 0)
(10.0056 -0.000952081 0)
(10.0442 -0.0450208 0)
(10.0883 -0.0791077 0)
(10.1234 -0.0883918 0)
(10.144 -0.0740284 0)
(10.1497 -0.0492124 0)
(10.1443 -0.0274991 0)
(10.132 -0.0151755 0)
(10.1164 -0.0102713 0)
(10.1027 -0.0062693 0)
(10.0949 0.0021901 0)
(10.098 0.0194184 0)
(9.90173 -0.0712496 0)
(9.93226 -0.0818921 0)
(10.0179 -0.0505498 0)
(10.0784 0.00863783 0)
(10.1319 0.0561287 0)
(10.1984 0.0755602 0)
(10.2503 0.0557886 0)
(10.2542 0.009386 0)
(10.21 -0.0362424 0)
(10.1455 -0.0638404 0)
(10.0887 -0.0727405 0)
(10.0524 -0.0713398 0)
(10.0356 -0.0668357 0)
(10.03 -0.0620255 0)
(10.028 -0.0554946 0)
(10.0282 -0.0449426 0)
(10.0318 -0.0288385 0)
(10.0431 -0.00749017 0)
(9.97309 0.0258412 0)
(9.96841 -0.131699 0)
(9.94788 -0.0784145 0)
(9.94871 -0.0155258 0)
(9.97657 -0.00878538 0)
(10.0315 -0.0198312 0)
(10.0812 -0.0186435 0)
(10.0957 -0.00900755 0)
(10.0756 -0.00444408 0)
(10.0433 -0.00844879 0)
(10.0202 -0.0163623 0)
(10.016 -0.0216881 0)
(10.0297 -0.0216151 0)
(10.053 -0.018207 0)
(10.0759 -0.015368 0)
(10.0935 -0.0142777 0)
(10.1055 -0.0146507 0)
(10.1153 -0.0121049 0)
(9.97541 -0.0117415 0)
(10.0437 -0.0805882 0)
(10.024 -0.0533489 0)
(9.99391 -0.0181863 0)
(9.95257 -0.00352852 0)
(9.92568 0.000265891 0)
(9.94713 0.0048656 0)
(10.0214 0.00858716 0)
(10.1226 0.00341885 0)
(10.213 -0.0133952 0)
(10.2659 -0.0387092 0)
(10.279 -0.0643594 0)
(10.2671 -0.0823248 0)
(10.2475 -0.0882278 0)
(10.2303 -0.0818437 0)
(10.219 -0.0669353 0)
(10.2136 -0.0476053 0)
(10.2121 -0.0287149 0)
(10.1821 -0.0806049 0)
(10.033 -0.107919 0)
(9.98524 -0.0423841 0)
(9.9769 0.0161894 0)
(9.98957 0.0242869 0)
(9.99673 -0.0125692 0)
(9.99626 -0.06355 0)
(10.0076 -0.0993195 0)
(10.0421 -0.107738 0)
(10.0892 -0.0924898 0)
(10.1266 -0.0640652 0)
(10.139 -0.0347764 0)
(10.1272 -0.0136747 0)
(10.1027 -0.00418724 0)
(10.0809 -0.00403539 0)
(10.0731 -0.00824445 0)
(10.0846 -0.0120919 0)
(10.1151 -0.0119553 0)
(9.8509 -0.0291026 0)
(9.74521 -0.0152336 0)
(9.76475 -0.0209421 0)
(9.8242 -0.0187076 0)
(9.94053 -0.0145087 0)
(10.0895 -0.00613742 0)
(10.2106 -0.00534001 0)
(10.2627 -0.0189689 0)
(10.2488 -0.0394616 0)
(10.2012 -0.0554105 0)
(10.1529 -0.0608475 0)
(10.1225 -0.0577554 0)
(10.1123 -0.0525081 0)
(10.1153 -0.051256 0)
(10.1215 -0.0556629 0)
(10.127 -0.0635843 0)
(10.1296 -0.0718244 0)
(10.1324 -0.0764903 0)
(9.8111 0.0169904 0)
(9.74296 -0.0587546 0)
(9.61554 -0.0607708 0)
(9.49547 -0.0448206 0)
(9.36509 -0.0672318 0)
(9.19973 -0.106192 0)
(9.00163 -0.12303 0)
(8.80153 -0.108302 0)
(8.62541 -0.0785678 0)
(8.47736 -0.0516914 0)
(8.35225 -0.0335471 0)
(8.24914 -0.0222074 0)
(8.1664 -0.0154286 0)
(8.09658 -0.0128428 0)
(8.02645 -0.0137816 0)
(7.95 -0.0167126 0)
(7.86318 -0.0196774 0)
(7.77433 -0.0208876 0)
(-0.0867154 0.211718 -1.53668e-19)
(-0.289937 0.147011 1.52495e-19)
(-0.417329 0.067224 0)
(-0.447928 -0.0307993 0)
(-0.397348 -0.118633 0)
(-0.316096 -0.188691 -1.4798e-19)
(-0.237923 -0.253382 0)
(-0.199205 -0.297459 0)
(-0.216778 -0.26353 0)
(-0.268893 -0.139761 0)
(-0.224492 -0.0331376 1.4249e-19)
(-0.0763916 0.0774572 0)
(0.0047519 0.264795 0)
(-0.128923 0.11996 0)
(-0.178833 -0.0934206 0)
(-0.0983651 -0.161674 1.37147e-19)
(-0.000180404 -0.194789 0)
(0.057154 -0.234582 0)
(0.0218471 -0.235838 0)
(-0.105847 -0.114066 0)
(-0.33654 0.210884 0)
(-0.669225 0.448749 0)
(-0.963322 0.286621 0)
(-1.10783 0.0816733 1.2851e-19)
(-1.23684 0.0761656 -1.27475e-19)
(-1.4129 0.0926816 1.26442e-19)
(-1.60245 0.108211 1.25414e-19)
(-1.81722 0.16423 0)
(-2.06344 0.207556 0)
(-2.3254 0.224297 -1.22356e-19)
(-2.59672 0.239038 -1.21355e-19)
(-2.8797 0.248732 0)
(-3.17207 0.255871 0)
(-3.47454 0.266702 -1.18426e-19)
(-3.7882 0.275155 0)
(-4.11057 0.283657 0)
(-4.44079 0.291853 1.15596e-19)
(-4.77507 0.295354 0)
(-5.10707 0.294087 1.13756e-19)
(-5.43051 0.286264 2.25696e-19)
(-5.73729 0.271267 0)
(-6.01956 0.249656 0)
(-6.2702 0.221421 0)
(-6.48286 0.187836 0)
(-6.65287 0.150314 0)
(-6.77723 0.110276 2.14807e-19)
(-6.85452 0.0697894 2.12931e-19)
(-6.88434 0.0307783 2.1102e-19)
(-6.86753 -0.00581439 0)
(-6.81283 -0.0401002 -2.07037e-19)
(-6.72039 -0.0709746 0)
(-6.59771 -0.0971446 2.02877e-19)
(-6.44974 -0.117172 2.00728e-19)
(-6.28297 -0.129661 0)
(-6.10203 -0.134635 0)
(-5.91011 -0.133735 0)
(-5.70777 -0.131392 1.91712e-19)
(-5.49083 -0.134212 0)
(-5.24744 -0.147637 0)
(-4.96139 -0.171824 0)
(-4.62569 -0.200743 0)
(-4.25181 -0.224847 0)
(-3.85893 -0.235853 0)
(-3.45541 -0.234257 0)
(-3.03652 -0.235216 0)
(-2.58803 -0.254997 -1.71492e-19)
(-2.08624 -0.285097 0)
(-1.52804 -0.317452 0)
(-0.906382 -0.367326 1.65589e-19)
(-0.171687 -0.426609 1.63725e-19)
(0.687074 -0.512093 0)
(1.66739 -0.561518 -1.5975e-19)
(2.69306 -0.490704 1.5804e-19)
(3.53207 -0.447792 0)
(4.27549 -0.279249 -1.55136e-19)
(4.59296 0.0808955 0)
(4.45704 0.172367 0)
(4.15532 0.751866 1.50432e-19)
(2.54102 1.19575 0)
(0.879551 0.313203 -1.47678e-19)
(0.064583 -0.182695 0)
(-0.35288 -0.173435 1.45089e-19)
(-0.213399 -0.302002 1.43443e-19)
(0.323577 -0.412911 1.41595e-19)
(0.954131 -0.314818 2.79662e-19)
(1.37218 -0.145014 -2.76437e-19)
(1.5104 -0.0526341 0)
(1.47874 -0.0421864 0)
(1.4134 -0.0460061 0)
(1.35111 -0.0401062 -2.64168e-19)
(1.30875 -0.0435743 -2.61358e-19)
(1.32792 -0.0616645 2.58566e-19)
(1.40261 -0.0784812 0)
(1.53505 -0.0954609 -2.52919e-19)
(1.72701 -0.122133 -2.50172e-19)
(1.9687 -0.149286 -2.47511e-19)
(2.23899 -0.163079 0)
(2.50053 -0.14505 0)
(2.69881 -0.0768506 0)
(2.76142 -0.00656003 -2.3769e-19)
(2.66346 -0.00742682 0)
(2.43703 -0.0592947 0)
(2.10023 -0.0431747 2.30194e-19)
(1.52885 0.130296 0)
(0.603462 0.359033 0)
(-0.615659 0.529017 2.23755e-19)
(-2.07294 0.661558 0)
(-3.77726 0.798128 0)
(-5.70285 0.922593 -2.17885e-19)
(-7.77087 0.98944 -2.16901e-19)
(-9.82963 0.962205 0)
(-11.6948 0.842317 2.16266e-19)
(-13.2185 0.664716 0)
(-14.337 0.472744 -2.15446e-19)
(-15.0695 0.297562 0)
(-15.4752 0.153699 -2.12606e-19)
(-15.6073 0.0428769 -2.10331e-19)
(-15.5016 -0.0491964 0)
(-15.2119 -0.128909 0)
(-14.7318 -0.201466 0)
(-14.0918 -0.259487 0)
(-13.3285 -0.306123 0)
(-12.461 -0.340653 0)
(-11.5166 -0.365239 0)
(-10.5123 -0.381615 -1.76479e-19)
(-9.47239 -0.388116 1.7181e-19)
(-8.4154 -0.38822 0)
(-7.35139 -0.385236 0)
(-6.28686 -0.381007 0)
(-5.22394 -0.376511 0)
(-4.16605 -0.370497 3.04489e-19)
(-3.11952 -0.361278 0)
(-2.09514 -0.346621 -2.92743e-19)
(-1.10573 -0.32591 2.87706e-19)
(-0.165847 -0.301121 0)
(0.712048 -0.281759 0)
(1.53062 -0.256123 0)
(2.28778 -0.22927 -2.70357e-19)
(2.97771 -0.201658 -2.66662e-19)
(3.59614 -0.173557 0)
(4.14003 -0.145433 -2.59818e-19)
(4.60798 -0.118059 -2.56564e-19)
(5.00158 -0.0923582 2.53357e-19)
(5.32412 -0.0686082 0)
(5.58032 -0.0461642 0)
(5.7729 -0.0253914 2.43641e-19)
(5.90566 -0.00865338 0)
(5.9872 0.00992538 0)
(5.99954 0.0374326 0)
(5.93329 0.0610354 0)
(5.80656 0.0677899 -2.26162e-19)
(5.64141 0.0748449 -2.225e-19)
(5.42115 0.114092 0)
(5.08556 0.180567 -2.15129e-19)
(4.61172 0.222369 0)
(4.07647 0.201127 0)
(3.59483 0.132678 -2.04497e-19)
(3.23082 0.0547113 0)
(2.98581 -0.0060406 -1.97347e-19)
(2.82807 -0.0363381 0)
(2.71986 -0.0378596 0)
(2.63354 -0.0196669 -1.86349e-19)
(2.55708 -0.000580142 0)
(2.48724 0.00779998 -1.79119e-19)
(2.42256 0.00908485 0)
(2.36307 0.00809796 0)
(2.31155 0.00668261 0)
(2.26909 0.00725932 1.64864e-19)
(2.23724 0.00968003 0)
(2.21775 0.00845029 -1.57795e-19)
(2.21381 0.00888626 0)
(2.20643 0.0146071 0)
(2.19895 0.0159591 0)
(2.19259 0.0133912 0)
(2.17268 0.0182158 0)
(2.13883 0.0176073 0)
(2.09971 0.0130114 0)
(2.03416 0.00489814 2.60261e-19)
(1.96888 0.0233357 0)
(1.78237 0.00515006 0)
(-0.00129708 0.548191 4.61053e-19)
(-0.130103 0.528226 -4.5773e-19)
(-0.131177 0.287014 0)
(-0.00570664 -0.00282962 3.00791e-19)
(0.164328 -0.151965 0)
(0.329474 -0.142833 1.47895e-19)
(0.435523 0.0094264 -2.93598e-19)
(0.456566 0.247068 -2.91451e-19)
(0.373637 0.405229 0)
(0.202282 0.233355 -2.872e-19)
(0.0502616 -0.323614 -1.42513e-19)
(-0.227604 -0.587927 0)
(-0.381583 -0.13448 0)
(-0.341824 0.203446 0)
(-0.338323 0.0224989 0)
(-0.443552 -0.179244 -1.37013e-19)
(-0.579415 -0.0902983 0)
(-0.76031 0.202338 2.69498e-19)
(-1.08673 0.542811 0)
(-1.44308 0.777995 0)
(-1.66797 0.780479 -2.62564e-19)
(-1.77097 0.61298 0)
(-1.8896 0.436926 2.58376e-19)
(-2.07591 0.428606 -1.28119e-19)
(-2.32018 0.504554 1.27055e-19)
(-2.59099 0.55886 -1.25994e-19)
(-2.86809 0.608696 -1.24945e-19)
(-3.13527 0.647664 0)
(-3.39477 0.666342 0)
(-3.65525 0.679582 1.21881e-19)
(-3.91825 0.693275 -1.20973e-19)
(-4.18753 0.705823 0)
(-4.46287 0.720423 0)
(-4.74227 0.735554 1.17993e-19)
(-5.02533 0.747284 0)
(-5.30811 0.754746 0)
(-5.58584 0.753509 -1.15215e-19)
(-5.85398 0.739599 0)
(-6.1077 0.71219 1.13618e-19)
(-6.34306 0.670018 -2.25106e-19)
(-6.55661 0.612942 0)
(-6.74573 0.542421 0)
(-6.909 0.46066 -4.40261e-19)
(-7.046 0.370667 -4.36773e-19)
(-7.1571 0.275796 -4.33233e-19)
(-7.24291 0.179658 2.15064e-19)
(-7.30391 0.0857156 -2.12713e-19)
(-7.3406 -0.00358284 -6.32967e-19)
(-7.35363 -0.0861997 4.18184e-19)
(-7.33649 -0.1607 2.06797e-19)
(-7.29137 -0.225366 0)
(-7.21514 -0.278819 -2.02581e-19)
(-7.10814 -0.320667 2.00875e-19)
(-6.96863 -0.351851 0)
(-6.79517 -0.375953 0)
(-6.58639 -0.399748 0)
(-6.34266 -0.432429 -1.91387e-19)
(-6.06458 -0.481942 0)
(-5.75115 -0.5497 3.73799e-19)
(-5.40246 -0.627769 0)
(-5.02496 -0.701216 3.64534e-19)
(-4.62769 -0.75446 0)
(-4.21064 -0.781301 -3.55547e-19)
(-3.7661 -0.796078 0)
(-3.2947 -0.831527 3.46947e-19)
(-2.80052 -0.908782 -1.71527e-19)
(-2.27151 -1.00944 0)
(-1.69275 -1.11531 -3.34858e-19)
(-1.05822 -1.2673 -1.65335e-19)
(-0.321363 -1.45795 -1.63484e-19)
(0.54767 -1.70842 0)
(1.49786 -1.88464 -1.60186e-19)
(2.52211 -1.74026 -1.57822e-19)
(3.41227 -1.40352 0)
(4.07468 -0.921623 1.55042e-19)
(4.56705 -0.173011 -3.08347e-19)
(4.61436 0.436063 0)
(4.58792 1.17629 -1.5012e-19)
(4.15916 2.08305 0)
(3.41618 2.26168 4.41237e-19)
(2.17942 1.55405 0)
(1.01302 0.454949 -4.34278e-19)
(0.616644 -0.487465 -1.433e-19)
(0.639104 -0.992058 1.41456e-19)
(0.895749 -0.856006 2.79459e-19)
(1.08316 -0.419248 -2.76445e-19)
(1.02762 -0.0607396 0)
(0.815371 0.128462 0)
(0.546774 0.183772 0)
(0.292631 0.155747 7.93798e-19)
(0.095382 0.0806971 2.61854e-19)
(-0.0310556 -0.0123035 -2.59098e-19)
(-0.069877 -0.113911 0)
(-0.0346247 -0.220256 -2.53458e-19)
(0.0658963 -0.313951 2.50762e-19)
(0.211756 -0.371638 2.48117e-19)
(0.365845 -0.375762 0)
(0.489511 -0.312384 0)
(0.526199 -0.175251 0)
(0.436753 0.0314632 2.38472e-19)
(0.1449 0.275907 0)
(-0.440716 0.553432 -4.66536e-19)
(-1.32311 0.877368 -6.91439e-19)
(-2.44248 1.23305 4.55317e-19)
(-3.7285 1.56025 0)
(-5.13727 1.84372 2.22858e-19)
(-6.62929 2.0894 0)
(-8.17009 2.28982 4.37158e-19)
(-9.70387 2.40093 -2.18589e-19)
(-11.1598 2.37306 -2.18217e-19)
(-12.4529 2.18083 0)
(-13.5005 1.84116 -6.49072e-19)
(-14.2545 1.41211 4.33514e-19)
(-14.7235 0.969869 2.15152e-19)
(-14.9606 0.573783 0)
(-15.0261 0.245459 2.12688e-19)
(-14.9616 -0.0265515 6.32691e-19)
(-14.7726 -0.26758 0)
(-14.4014 -0.485304 4.09272e-19)
(-13.87 -0.681754 4.0123e-19)
(-13.1982 -0.842521 3.92369e-19)
(-12.4068 -0.965839 0)
(-11.5319 -1.05751 0)
(-10.5821 -1.1245 0)
(-9.58 -1.16757 -1.77093e-19)
(-8.5495 -1.18508 -1.71789e-19)
(-7.50856 -1.18417 0)
(-6.46783 -1.17492 -3.26736e-19)
(-5.43055 -1.16255 -3.18867e-19)
(-4.39829 -1.14929 0)
(-3.37343 -1.13102 -3.04416e-19)
(-2.3631 -1.10204 -5.97147e-19)
(-1.37943 -1.0576 2.92666e-19)
(-0.436826 -0.998289 2.88149e-19)
(0.451617 -0.939246 0)
(1.26988 -0.875348 0)
(2.0278 -0.805856 0)
(2.7233 -0.73384 2.70043e-19)
(3.3554 -0.658802 -2.66699e-19)
(3.92355 -0.581116 -5.26138e-19)
(4.42727 -0.502903 2.59622e-19)
(4.86735 -0.426904 -2.56609e-19)
(5.24614 -0.354949 -2.53217e-19)
(5.56848 -0.288199 0)
(5.83983 -0.227052 0)
(6.06722 -0.170429 2.43699e-19)
(6.25385 -0.117546 0)
(6.39245 -0.0651929 0)
(6.49734 -0.00873223 -4.66619e-19)
(6.57167 0.0489744 0)
(6.59294 0.0996576 -2.26096e-19)
(6.54186 0.141614 2.22286e-19)
(6.43277 0.190563 0)
(6.29491 0.261126 -2.14962e-19)
(6.13302 0.331904 0)
(5.93935 0.359698 0)
(5.72393 0.329324 2.04041e-19)
(5.51405 0.268965 -4.00995e-19)
(5.3225 0.215265 1.96898e-19)
(5.11683 0.177382 0)
(4.85774 0.144427 0)
(4.55503 0.110681 -1.86004e-19)
(4.25892 0.0807023 0)
(4.0103 0.0610817 -1.78864e-19)
(3.81536 0.0524347 0)
(3.6609 0.0481697 0)
(3.53567 0.0409846 0)
(3.43449 0.029938 -1.64698e-19)
(3.36107 0.0165504 0)
(3.31862 0.00269132 1.57653e-19)
(3.29655 -0.00668753 0)
(3.28651 -0.00893037 0)
(3.29691 -0.00816957 -2.94248e-19)
(3.31714 -0.00552316 2.87297e-19)
(3.34239 0.00405741 0)
(3.37417 0.0150352 0)
(3.41335 0.0354833 0)
(3.38989 0.0473514 -7.79958e-19)
(3.32523 0.0931259 0)
(3.11826 0.0979016 4.93735e-19)
(-0.0564252 0.521401 2.25577e-22)
(-0.0869721 0.467577 6.10416e-19)
(0.199571 -0.154267 0)
(0.517182 -0.594865 -6.00469e-19)
(0.823967 -0.762606 0)
(1.08704 -0.708252 0)
(1.30157 -0.489203 -3.19441e-22)
(1.47455 -0.178725 2.90427e-19)
(1.60336 0.199599 2.88497e-19)
(1.61106 0.548408 2.85914e-19)
(1.48036 0.802007 0)
(1.02201 0.940837 0)
(0.333711 0.620208 -2.80362e-19)
(-0.0565303 0.0521852 -5.57006e-19)
(-0.300378 0.08037 5.52575e-19)
(-0.530069 0.33348 0)
(-0.796861 0.411331 5.43206e-19)
(-1.06456 0.728907 -2.69131e-19)
(-1.3587 1.02035 0)
(-1.61652 1.0817 5.29209e-19)
(-1.76478 0.964603 2.62382e-19)
(-1.85169 0.802923 -5.2085e-19)
(-2.01039 0.775094 -2.58195e-19)
(-2.26372 0.887811 0)
(-2.54697 0.992868 5.07949e-19)
(-2.82208 1.02616 5.03706e-19)
(-3.08095 1.04482 0)
(-3.32564 1.06436 4.95439e-19)
(-3.5651 1.07445 0)
(-3.80646 1.09059 4.87448e-19)
(-4.05322 1.1131 2.41627e-19)
(-4.30639 1.13329 0)
(-4.56505 1.15371 0)
(-4.82783 1.17037 0)
(-5.09256 1.17757 0)
(-5.35611 1.17387 0)
(-5.61584 1.15534 0)
(-5.87008 1.12013 4.5784e-19)
(-6.1169 1.06844 -6.81312e-19)
(-6.35388 0.999872 0)
(-6.57828 0.915388 0)
(-6.78694 0.81716 0)
(-6.97696 0.708068 -7.23126e-22)
(-7.14604 0.591474 4.36546e-19)
(-7.29184 0.470419 8.6679e-19)
(-7.41245 0.347286 -8.59588e-19)
(-7.50735 0.223843 -4.26523e-19)
(-7.57545 0.101253 4.21909e-19)
(-7.61444 -0.0195328 8.44478e-22)
(-7.62253 -0.137105 4.14669e-19)
(-7.59749 -0.250551 0)
(-7.53648 -0.358784 4.06104e-19)
(-7.43585 -0.460947 7.75049e-22)
(-7.29116 -0.556615 0)
(-7.09894 -0.646536 0)
(-6.85842 -0.733567 -3.8799e-19)
(-6.57202 -0.821883 0)
(-6.24433 -0.914719 0)
(-5.88075 -1.01224 3.74443e-19)
(-5.48759 -1.1112 7.38516e-19)
(-5.07132 -1.20556 -3.64206e-19)
(-4.63361 -1.28735 0)
(-4.16846 -1.35124 3.55257e-19)
(-3.67127 -1.40348 0)
(-3.15215 -1.46477 3.47464e-19)
(-2.62895 -1.55611 3.42564e-19)
(-2.10365 -1.68397 -6.77984e-19)
(-1.56031 -1.85346 -3.35671e-19)
(-0.982252 -2.09703 0)
(-0.334205 -2.42201 6.55554e-19)
(0.426882 -2.80939 0)
(1.22732 -3.07708 9.59823e-19)
(2.08357 -2.89099 6.34447e-19)
(2.89261 -2.32931 6.29224e-19)
(3.48446 -1.58578 -6.24295e-19)
(3.9952 -0.542473 9.27774e-19)
(4.24294 0.432326 0)
(4.19576 1.26686 0)
(4.12849 2.26316 -5.96459e-19)
(4.02826 2.87298 -8.82371e-19)
(3.41232 2.56012 0)
(2.5842 1.60161 2.88442e-19)
(1.98476 0.289436 0)
(1.421 -0.694257 -8.473e-19)
(0.965116 -0.705191 -3.81246e-22)
(0.625378 -0.166422 3.14065e-22)
(0.284486 0.266312 5.47218e-19)
(-0.0249768 0.452689 0)
(-0.277585 0.472409 -5.35139e-19)
(-0.467417 0.395837 4.49136e-23)
(-0.604214 0.26181 0)
(-0.701648 0.0912174 0)
(-0.767118 -0.0884644 0)
(-0.812611 -0.244295 5.06338e-19)
(-0.856808 -0.359746 0)
(-0.916201 -0.419887 0)
(-1.01118 -0.392592 0)
(-1.16647 -0.251784 0)
(-1.40551 0.019831 0)
(-1.76387 0.411189 4.75043e-19)
(-2.28856 0.875314 0)
(-2.9929 1.3598 4.64557e-19)
(-3.84395 1.83012 4.58887e-19)
(-4.79539 2.26442 -4.53289e-19)
(-5.8057 2.64158 0)
(-6.84969 2.95654 -4.43087e-19)
(-7.90493 3.20876 0)
(-8.95102 3.37812 -4.35943e-19)
(-9.96894 3.42203 4.33961e-19)
(-10.9343 3.29031 1.30601e-18)
(-11.8026 2.95213 0)
(-12.5068 2.42578 1.30784e-18)
(-12.9915 1.79218 4.39608e-19)
(-13.256 1.16589 0)
(-13.353 0.631234 8.65793e-19)
(-13.3432 0.20103 8.58653e-19)
(-13.2551 -0.163921 -1.27214e-18)
(-13.0664 -0.500333 0)
(-12.7317 -0.82635 -4.09896e-19)
(-12.2355 -1.12911 -4.01743e-19)
(-11.5847 -1.38507 -1.18132e-18)
(-10.8156 -1.58051 0)
(-9.95481 -1.72523 0)
(-9.01363 -1.83412 0)
(-8.01012 -1.90417 -3.55828e-19)
(-6.97365 -1.92971 0)
(-5.93218 -1.92069 0)
(-4.8965 -1.8967 3.26932e-19)
(-3.87052 -1.86791 3.19057e-19)
(-2.85053 -1.84009 0)
(-1.83658 -1.80447 0)
(-0.838039 -1.75033 5.97495e-19)
(0.127278 -1.6706 0)
(1.03698 -1.56839 -5.74803e-19)
(1.87825 -1.45959 -5.65512e-19)
(2.63528 -1.34035 0)
(3.30595 -1.2213 0)
(3.88842 -1.10496 5.40022e-19)
(4.38224 -0.989869 -5.20956e-22)
(4.79167 -0.874046 -4.40525e-22)
(5.12717 -0.757595 0)
(5.40235 -0.644356 1.02544e-18)
(5.62902 -0.539519 0)
(5.81614 -0.445188 0)
(5.97303 -0.360337 0)
(6.10964 -0.283767 -4.87136e-19)
(6.23429 -0.211985 0)
(6.35052 -0.140698 9.47711e-19)
(6.45803 -0.0676924 4.66612e-19)
(6.55642 0.00997528 0)
(6.63307 0.093038 4.52059e-19)
(6.65909 0.176913 0)
(6.61431 0.260142 0)
(6.51692 0.34619 1.28924e-18)
(6.40253 0.421497 -8.4479e-19)
(6.27855 0.449185 0)
(6.13126 0.403729 -8.15834e-19)
(5.96291 0.309569 4.00754e-19)
(5.7976 0.227837 0)
(5.66035 0.205401 0)
(5.5492 0.237959 0)
(5.42835 0.273646 1.11497e-18)
(5.25373 0.272647 0)
(5.00815 0.23703 3.57333e-19)
(4.72288 0.190624 0)
(4.45275 0.150303 0)
(4.22963 0.117219 0)
(4.05594 0.088837 0)
(3.92931 0.063155 0)
(3.84444 0.0378115 0)
(3.79067 0.0192189 6.16258e-19)
(3.75334 0.0115265 0)
(3.73128 0.00347326 2.94138e-19)
(3.71012 -0.00962499 -8.61598e-19)
(3.70332 -0.0138117 0)
(3.70296 -0.0111956 0)
(3.73195 0.00759057 5.33287e-19)
(3.72659 0.0427958 5.19812e-19)
(3.70792 0.130003 -5.06447e-19)
(3.55864 0.193298 -4.93493e-19)
(-0.0714527 0.774231 -9.21977e-19)
(0.356452 -0.0578424 -9.15309e-19)
(0.850855 -0.930383 -6.04859e-19)
(1.2547 -1.36377 -3.00191e-19)
(1.55909 -1.41916 0)
(1.78293 -1.22954 5.90099e-19)
(1.94814 -0.881554 -2.9355e-19)
(2.06215 -0.432227 0)
(2.12642 0.0570698 -2.88098e-19)
(2.13741 0.557554 0)
(2.06763 1.0294 5.6797e-19)
(1.89344 1.49471 0)
(1.51583 1.74322 2.79104e-19)
(0.987267 1.50815 5.54971e-19)
(0.271888 0.96305 -5.51878e-19)
(-0.227848 0.743135 0)
(-0.501752 0.951079 -5.43185e-19)
(-0.830883 1.23449 0)
(-1.1018 1.47086 0)
(-1.34639 1.42331 -5.29306e-19)
(-1.51889 1.21459 0)
(-1.66239 1.0981 -3.8073e-22)
(-1.87441 1.1966 0)
(-2.15221 1.37037 0)
(-2.42213 1.45679 3.84977e-22)
(-2.65938 1.45603 -5.0361e-19)
(-2.88067 1.44763 -4.99888e-19)
(-3.09823 1.4555 -4.95462e-19)
(-3.31949 1.46725 0)
(-3.55183 1.49201 -9.75347e-19)
(-3.79801 1.52642 0)
(-4.0574 1.55764 -4.80083e-19)
(-4.32879 1.5865 0)
(-4.61068 1.60875 0)
(-4.90125 1.61822 4.68899e-19)
(-5.19891 1.6142 0)
(-5.50178 1.5936 -4.6178e-19)
(-5.80659 1.5535 6.88408e-22)
(-6.10781 1.49163 9.09026e-19)
(-6.39823 1.40557 -9.0303e-19)
(-6.67045 1.29547 0)
(-6.91799 1.16367 0)
(-7.13604 1.01399 -4.42492e-19)
(-7.32199 0.851598 0)
(-7.47489 0.681938 -4.33493e-19)
(-7.59481 0.5094 4.29935e-19)
(-7.68274 0.337132 4.26295e-19)
(-7.74023 0.167613 0)
(-7.76864 0.00144616 -4.18677e-19)
(-7.76769 -0.161558 -4.14524e-19)
(-7.73677 -0.322447 8.22864e-19)
(-7.67414 -0.482107 -4.05911e-19)
(-7.57636 -0.640421 -4.01459e-19)
(-7.43892 -0.797149 0)
(-7.25703 -0.952179 0)
(-7.02706 -1.10565 3.87645e-19)
(-6.74703 -1.25751 0)
(-6.41677 -1.40661 0)
(-6.03872 -1.55055 -7.47043e-19)
(-5.61895 -1.68603 -7.37689e-19)
(-5.16573 -1.80902 0)
(-4.6852 -1.91504 0)
(-4.17944 -2.00176 0)
(-3.65224 -2.07263 0)
(-3.11474 -2.13706 -6.93485e-19)
(-2.57952 -2.20813 6.86434e-19)
(-2.05409 -2.30984 6.77358e-19)
(-1.54675 -2.48332 1.34047e-18)
(-1.05328 -2.76282 0)
(-0.557551 -3.17216 1.63562e-21)
(-0.0195731 -3.63945 0)
(0.534737 -3.96293 -6.40485e-19)
(1.15992 -3.76119 1.94488e-21)
(1.79611 -3.07569 -6.29725e-19)
(2.31685 -2.16962 6.25015e-19)
(2.81965 -0.987182 1.81592e-21)
(3.24902 0.255301 0)
(3.36871 1.25304 6.07323e-19)
(3.40351 2.2155 5.97162e-19)
(3.53559 2.93961 1.17841e-18)
(3.37767 2.97708 0)
(2.91048 2.23846 -5.75258e-19)
(2.36798 0.899755 0)
(1.72805 -0.0452635 1.12889e-18)
(0.991157 -0.0627031 -5.58752e-19)
(0.388058 0.353203 5.53136e-19)
(-0.0497276 0.642783 -5.47101e-19)
(-0.341709 0.710382 -1.0818e-18)
(-0.520512 0.641539 5.34875e-19)
(-0.629798 0.501034 -5.29005e-19)
(-0.70595 0.331642 0)
(-0.777458 0.160142 1.03519e-18)
(-0.864814 0.00504464 0)
(-0.980873 -0.125751 1.01219e-18)