/*--------------------------------*- C++ -*----------------------------------*\
  =========                 |
  \\      /  F ield         | OpenFOAM: The Open Source CFD Toolbox
   \\    /   O peration     | Website:  https://openfoam.org
    \\  /    A nd           | Version:  9
     \\/     M anipulation  |
\*---------------------------------------------------------------------------*/
FoamFile
{
    format      ascii;
    class       volVectorField;
    location    "0.085";
    object      UMean;
}
// * * * * * * * * * * * * * * * * * * * * * * * * * * * * * * * * * * * * * //

dimensions      [0 1 -1 0 0 0 0];

internalField   nonuniform List<vector> 
12225
(
(9.84027 0.0443745 0)
(9.54634 0.0603047 0)
(9.24787 0.0584291 0)
(8.94506 0.0572669 0)
(8.64649 0.0568786 0)
(8.35776 0.0562123 0)
(8.07945 0.0550802 0)
(7.81187 0.0541213 0)
(7.55151 0.0530484 0)
(7.30044 0.052783 0)
(7.05142 0.0520093 0)
(6.81298 0.0530577 0)
(6.56594 0.0525986 0)
(6.33601 0.0567456 0)
(6.07056 0.0570593 0)
(5.84355 0.0684522 0)
(5.51874 0.0711321 0)
(5.28567 0.0987552 0)
(10.0225 0.052325 0)
(10.0825 0.0749658 0)
(10.1213 0.0740101 0)
(10.1351 0.0750315 0)
(10.1318 0.078272 0)
(10.1183 0.0812823 0)
(10.0963 0.083697 0)
(10.0672 0.0859557 0)
(10.0298 0.0884041 0)
(9.98671 0.0911405 0)
(9.93496 0.0944472 0)
(9.8795 0.0982473 0)
(9.81263 0.103727 0)
(9.74374 0.11008 0)
(9.65665 0.121268 0)
(9.56935 0.133121 0)
(9.45244 0.157605 0)
(9.33618 0.179476 0)
(10.006 0.0309424 0)
(10.0394 0.0534473 0)
(10.0689 0.0559035 0)
(10.0868 0.0582046 0)
(10.0972 0.0629165 0)
(10.105 0.0677755 0)
(10.1117 0.0717701 0)
(10.1172 0.0756723 0)
(10.1208 0.0794386 0)
(10.1224 0.0840572 0)
(10.122 0.0886897 0)
(10.1191 0.0951541 0)
(10.1142 0.10208 0)
(10.1059 0.11285 0)
(10.0963 0.125771 0)
(10.083 0.145267 0)
(10.0726 0.170869 0)
(10.0605 0.201624 0)
(9.99267 0.0281473 0)
(10.0163 0.057269 0)
(10.04 0.0628491 0)
(10.0554 0.064755 0)
(10.0639 0.0688023 0)
(10.0696 0.0734836 0)
(10.0746 0.077573 0)
(10.0791 0.0812292 0)
(10.0826 0.0850101 0)
(10.0848 0.0892706 0)
(10.0858 0.0943856 0)
(10.0852 0.100598 0)
(10.0836 0.108675 0)
(10.0809 0.11914 0)
(10.0783 0.13332 0)
(10.0771 0.151842 0)
(10.0797 0.175149 0)
(10.0895 0.200567 0)
(10.0112 0.0215827 0)
(10.0287 0.0468037 0)
(10.0487 0.0540752 0)
(10.0632 0.0565859 0)
(10.0714 0.0606377 0)
(10.0763 0.0658682 0)
(10.0801 0.0707952 0)
(10.0834 0.0753188 0)
(10.0859 0.0797882 0)
(10.0872 0.0848145 0)
(10.0872 0.0906078 0)
(10.0861 0.0976688 0)
(10.0838 0.106387 0)
(10.0811 0.117416 0)
(10.0785 0.131439 0)
(10.0778 0.148717 0)
(10.0798 0.168673 0)
(10.0874 0.188818 0)
(9.98818 0.0166369 0)
(10.0021 0.0428877 0)
(10.0196 0.0535404 0)
(10.0336 0.0576546 0)
(10.0422 0.0618678 0)
(10.0475 0.067137 0)
(10.0519 0.0723592 0)
(10.0559 0.077151 0)
(10.0593 0.0819019 0)
(10.0617 0.0871697 0)
(10.0631 0.0933155 0)
(10.0635 0.100724 0)
(10.0632 0.109709 0)
(10.0628 0.120789 0)
(10.0627 0.134202 0)
(10.0643 0.150015 0)
(10.068 0.167169 0)
(10.0752 0.184341 0)
(10.0164 0.0155397 0)
(10.0249 0.0374709 0)
(10.0377 0.0488193 0)
(10.0493 0.0539511 0)
(10.057 0.0582006 0)
(10.0617 0.0633303 0)
(10.065 0.0687639 0)
(10.068 0.0739619 0)
(10.0705 0.0791007 0)
(10.0722 0.0847018 0)
(10.0731 0.0911795 0)
(10.0734 0.0988966 0)
(10.0733 0.1081 0)
(10.0735 0.119135 0)
(10.0743 0.131995 0)
(10.0767 0.146641 0)
(10.0808 0.162078 0)
(10.0876 0.177674 0)
(10.0057 0.0120318 0)
(10.0141 0.0329769 0)
(10.0256 0.0456558 0)
(10.0367 0.0523218 0)
(10.0447 0.0572064 0)
(10.0501 0.0625077 0)
(10.0541 0.0682041 0)
(10.0578 0.0738795 0)
(10.061 0.0795358 0)
(10.0636 0.0855725 0)
(10.0652 0.092353 0)
(10.0662 0.100223 0)
(10.0669 0.109365 0)
(10.0678 0.120023 0)
(10.0693 0.132089 0)
(10.0723 0.145519 0)
(10.0766 0.159494 0)
(10.0834 0.173694 0)
(10.0039 0.0111292 0)
(10.0095 0.0291418 0)
(10.0191 0.0416815 0)
(10.0296 0.049199 0)
(10.0382 0.0544188 0)
(10.0443 0.0595827 0)
(10.0488 0.0651706 0)
(10.0525 0.0709473 0)
(10.0558 0.0768899 0)
(10.0585 0.0832863 0)
(10.0606 0.0904253 0)
(10.0623 0.0985652 0)
(10.0636 0.107777 0)
(10.0653 0.118197 0)
(10.0673 0.129637 0)
(10.0707 0.142089 0)
(10.075 0.15487 0)
(10.0813 0.167878 0)
(9.99772 0.00960933 0)
(10.003 0.0251658 0)
(10.0108 0.0377212 0)
(10.0193 0.0462413 0)
(10.0267 0.0524543 0)
(10.0324 0.0581601 0)
(10.0366 0.0640492 0)
(10.0402 0.0701428 0)
(10.0434 0.0764244 0)
(10.0465 0.0830914 0)
(10.0493 0.0903606 0)
(10.0519 0.0984766 0)
(10.0542 0.107487 0)
(10.0569 0.117501 0)
(10.06 0.128291 0)
(10.0643 0.139864 0)
(10.0692 0.151599 0)
(10.076 0.163576 0)
(9.99563 0.00799558 0)
(9.9999 0.0238747 0)
(10.0054 0.0350071 0)
(10.0119 0.0432001 0)
(10.0183 0.0497349 0)
(10.0238 0.055556 0)
(10.0282 0.061306 0)
(10.032 0.0673018 0)
(10.0355 0.0736177 0)
(10.0387 0.080403 0)
(10.0417 0.0878032 0)
(10.0447 0.0960084 0)
(10.0477 0.104971 0)
(10.051 0.114733 0)
(10.0547 0.124994 0)
(10.0592 0.135791 0)
(10.0644 0.146579 0)
(10.0707 0.157577 0)
(9.99973 0.00584279 0)
(10.0027 0.0214182 0)
(10.0075 0.0324881 0)
(10.0139 0.0409702 0)
(10.0207 0.0477707 0)
(10.0269 0.0538093 0)
(10.0323 0.0598198 0)
(10.037 0.0661156 0)
(10.0412 0.0727147 0)
(10.0452 0.0796493 0)
(10.049 0.086997 0)
(10.0527 0.094946 0)
(10.0566 0.103506 0)
(10.0608 0.112763 0)
(10.0655 0.122462 0)
(10.0707 0.132651 0)
(10.0766 0.142805 0)
(10.0829 0.153189 0)
(9.99798 0.00636071 0)
(9.99884 0.0177746 0)
(10.0034 0.028795 0)
(10.0101 0.0376033 0)
(10.017 0.044316 0)
(10.0231 0.0501093 0)
(10.0283 0.055948 0)
(10.0331 0.0621956 0)
(10.0379 0.0688326 0)
(10.0426 0.0758472 0)
(10.0473 0.083255 0)
(10.0521 0.0911798 0)
(10.057 0.0996014 0)
(10.0622 0.108569 0)
(10.0678 0.11784 0)
(10.0739 0.127469 0)
(10.0804 0.136989 0)
(10.0878 0.146726 0)
(10.0014 0.00819132 0)
(10.0035 0.0168898 0)
(10.0073 0.0270571 0)
(10.0124 0.0357928 0)
(10.0178 0.0427073 0)
(10.023 0.0487233 0)
(10.0277 0.0546497 0)
(10.0322 0.0608307 0)
(10.0367 0.0672896 0)
(10.0413 0.0740539 0)
(10.046 0.0811395 0)
(10.0508 0.0886643 0)
(10.0559 0.0965666 0)
(10.0614 0.104936 0)
(10.0673 0.113499 0)
(10.0737 0.122416 0)
(10.0806 0.131162 0)
(10.088 0.140195 0)
(10.0035 0.00292109 0)
(10.007 0.0134931 0)
(10.0107 0.0226571 0)
(10.0148 0.0305626 0)
(10.0195 0.0373705 0)
(10.0244 0.0434196 0)
(10.0294 0.0491939 0)
(10.0344 0.0551273 0)
(10.0396 0.0613966 0)
(10.045 0.0680372 0)
(10.0506 0.0749857 0)
(10.0564 0.0822726 0)
(10.0624 0.0898058 0)
(10.0685 0.0976429 0)
(10.075 0.105562 0)
(10.0818 0.113708 0)
(10.089 0.121643 0)
(10.0966 0.12979 0)
(10.0125 0.00244502 0)
(10.015 0.0137722 0)
(10.0185 0.0217416 0)
(10.0235 0.0284563 0)
(10.0297 0.0348022 0)
(10.0361 0.0408887 0)
(10.0424 0.0466444 0)
(10.0482 0.0521943 0)
(10.0537 0.0577801 0)
(10.0593 0.0636632 0)
(10.065 0.0699392 0)
(10.071 0.0766611 0)
(10.0773 0.0836572 0)
(10.084 0.0909068 0)
(10.091 0.0981133 0)
(10.0985 0.105448 0)
(10.1062 0.112473 0)
(10.1145 0.119735 0)
(9.99548 -0.000119867 0)
(9.99282 0.00776368 0)
(9.99224 0.0140561 0)
(9.99491 0.0197289 0)
(9.99991 0.0254037 0)
(10.0058 0.0311866 0)
(10.0118 0.0369894 0)
(10.0177 0.0428013 0)
(10.0235 0.0486502 0)
(10.0294 0.0545889 0)
(10.0354 0.0605492 0)
(10.0417 0.0665377 0)
(10.0483 0.0724589 0)
(10.0553 0.0784456 0)
(10.0627 0.0843537 0)
(10.0706 0.0904387 0)
(10.0785 0.0963157 0)
(10.0872 0.102483 0)
(9.98893 0.0117435 0)
(9.98835 0.0133737 0)
(9.9893 0.0164079 0)
(9.99227 0.0201072 0)
(9.99687 0.0241756 0)
(10.0024 0.0284325 0)
(10.0084 0.0328203 0)
(10.0147 0.0373665 0)
(10.0212 0.0420863 0)
(10.0281 0.0470083 0)
(10.0355 0.0520421 0)
(10.0431 0.0571552 0)
(10.0509 0.0622011 0)
(10.0588 0.0672614 0)
(10.0669 0.0721756 0)
(10.0751 0.0771988 0)
(10.0835 0.0819865 0)
(10.0919 0.0870381 0)
(9.99439 -5.94608e-05 0)
(9.99875 0.00178183 0)
(10.0041 0.00436432 0)
(10.0098 0.00742425 0)
(10.0156 0.0107025 0)
(10.0217 0.0141324 0)
(10.0282 0.0176726 0)
(10.0352 0.0212811 0)
(10.0424 0.0249101 0)
(10.0498 0.0285884 0)
(10.0575 0.0323263 0)
(10.0654 0.036196 0)
(10.0735 0.0401365 0)
(10.0818 0.0442039 0)
(10.0902 0.048213 0)
(10.0987 0.0522929 0)
(10.1073 0.056118 0)
(10.1159 0.0600502 0)
(10.0057 0.000782208 0)
(10.007 0.0020454 0)
(10.0097 0.00289215 0)
(10.0141 0.00407123 0)
(10.0197 0.00584772 0)
(10.0263 0.00808721 0)
(10.0333 0.0105892 0)
(10.0408 0.0132733 0)
(10.0483 0.0161053 0)
(10.056 0.0190602 0)
(10.0638 0.0220587 0)
(10.0717 0.0250852 0)
(10.0797 0.0280698 0)
(10.0878 0.0310753 0)
(10.096 0.0340002 0)
(10.1044 0.0369784 0)
(10.1129 0.0397754 0)
(10.1215 0.0426789 0)
(10.0067 -0.00171945 0)
(10.0089 -0.00324414 0)
(10.0132 -0.00449439 0)
(10.0193 -0.00488223 0)
(10.0266 -0.00444283 0)
(10.0339 -0.00338131 0)
(10.0412 -0.00191464 0)
(10.0486 -0.000150767 0)
(10.0562 0.00186858 0)
(10.0641 0.00411777 0)
(10.0722 0.00648772 0)
(10.0805 0.00889629 0)
(10.0888 0.0112229 0)
(10.0972 0.0134803 0)
(10.1055 0.0155896 0)
(10.1138 0.0176771 0)
(10.1221 0.0195878 0)
(10.1305 0.0215661 0)
(9.99536 -0.00288313 0)
(9.99724 -0.00675344 0)
(10.0017 -0.00873385 0)
(10.0081 -0.00936628 0)
(10.0155 -0.00909403 0)
(10.0232 -0.00815959 0)
(10.031 -0.006864 0)
(10.0391 -0.00546826 0)
(10.0475 -0.00404686 0)
(10.0562 -0.00252886 0)
(10.0652 -0.000869527 0)
(10.0742 0.000954439 0)
(10.0833 0.00285921 0)
(10.0923 0.00481411 0)
(10.1012 0.00668222 0)
(10.1099 0.00849636 0)
(10.1186 0.0100902 0)
(10.1271 0.0116341 0)
(9.98953 -0.00161054 0)
(9.99578 -0.0106233 0)
(10.0029 -0.0153892 0)
(10.0107 -0.0171944 0)
(10.019 -0.0176525 0)
(10.0275 -0.0178447 0)
(10.036 -0.0180144 0)
(10.0446 -0.0179682 0)
(10.0532 -0.017532 0)
(10.0619 -0.016689 0)
(10.0705 -0.015554 0)
(10.0792 -0.0142329 0)
(10.0879 -0.012834 0)
(10.0967 -0.0113779 0)
(10.1056 -0.0099593 0)
(10.1145 -0.00855939 0)
(10.1234 -0.00732207 0)
(10.1322 -0.00614292 0)
(10.0116 -0.0108782 0)
(10.0174 -0.0141314 0)
(10.0255 -0.0187478 0)
(10.0345 -0.0212527 0)
(10.0433 -0.0218326 0)
(10.0517 -0.0217517 0)
(10.0599 -0.0215868 0)
(10.0681 -0.0212385 0)
(10.0764 -0.0205764 0)
(10.0849 -0.0196465 0)
(10.0934 -0.0186114 0)
(10.1019 -0.0175752 0)
(10.1104 -0.0165958 0)
(10.119 -0.0156492 0)
(10.1276 -0.0147622 0)
(10.1363 -0.0138826 0)
(10.1449 -0.0131055 0)
(10.1535 -0.0123357 0)
(9.98896 -0.0108101 0)
(9.9913 -0.0218311 0)
(9.99925 -0.0275329 0)
(10.0098 -0.0299112 0)
(10.0197 -0.0309404 0)
(10.0282 -0.0317685 0)
(10.036 -0.0325472 0)
(10.0439 -0.0330035 0)
(10.0523 -0.0330033 0)
(10.061 -0.0326514 0)
(10.0699 -0.0321277 0)
(10.079 -0.0315359 0)
(10.0881 -0.0309376 0)
(10.0972 -0.0303267 0)
(10.1063 -0.0297422 0)
(10.1154 -0.0291635 0)
(10.1245 -0.0286718 0)
(10.1334 -0.0282038 0)
(10.0124 -0.00689354 0)
(10.0233 -0.0239414 0)
(10.0368 -0.0281288 0)
(10.0494 -0.0285956 0)
(10.0599 -0.029175 0)
(10.0689 -0.0302107 0)
(10.0773 -0.0311393 0)
(10.0859 -0.031671 0)
(10.0948 -0.0318493 0)
(10.1039 -0.0318289 0)
(10.1131 -0.0317179 0)
(10.1222 -0.0315554 0)
(10.1314 -0.0313677 0)
(10.1404 -0.0311532 0)
(10.1494 -0.0309476 0)
(10.1582 -0.0307373 0)
(10.167 -0.030579 0)
(10.1757 -0.0304205 0)
(10.0045 -0.021488 0)
(10.0201 -0.0367847 0)
(10.0358 -0.0418009 0)
(10.0485 -0.0422736 0)
(10.0584 -0.0428027 0)
(10.0673 -0.043991 0)
(10.0763 -0.045042 0)
(10.0855 -0.0456028 0)
(10.0947 -0.045812 0)
(10.1036 -0.0458572 0)
(10.1123 -0.0458174 0)
(10.1209 -0.0457 0)
(10.1295 -0.0455162 0)
(10.1382 -0.0452954 0)
(10.1469 -0.0450946 0)
(10.1555 -0.0449372 0)
(10.1642 -0.0448686 0)
(10.1728 -0.0448537 0)
(10.013 -0.0199484 0)
(10.0307 -0.030216 0)
(10.0505 -0.0339578 0)
(10.0657 -0.0350577 0)
(10.0766 -0.0365927 0)
(10.0863 -0.0383836 0)
(10.0964 -0.03968 0)
(10.1069 -0.0403894 0)
(10.1174 -0.0407785 0)
(10.1277 -0.0410916 0)
(10.1377 -0.041414 0)
(10.1476 -0.0417831 0)
(10.1574 -0.0421604 0)
(10.1671 -0.0425577 0)
(10.1768 -0.0429202 0)
(10.1862 -0.0432952 0)
(10.1957 -0.043648 0)
(10.2047 -0.0440549 0)
(10.0104 -0.0373567 0)
(10.0471 -0.0545821 0)
(10.0795 -0.0530836 0)
(10.1018 -0.0524762 0)
(10.1163 -0.0537644 0)
(10.1265 -0.0550359 0)
(10.1339 -0.0558157 0)
(10.139 -0.0562837 0)
(10.1422 -0.0565807 0)
(10.1437 -0.0567901 0)
(10.1437 -0.05693 0)
(10.1426 -0.0570596 0)
(10.1404 -0.0571555 0)
(10.1374 -0.0572731 0)
(10.1333 -0.0573368 0)
(10.1289 -0.0574386 0)
(10.1234 -0.0575054 0)
(10.1181 -0.0577005 0)
(9.92386 -0.0306489 0)
(9.76151 -0.0472232 0)
(9.59582 -0.04593 0)
(9.42702 -0.0449822 0)
(9.26105 -0.0450974 0)
(9.10151 -0.0448545 0)
(8.94946 -0.0441324 0)
(8.80477 -0.0432587 0)
(8.66682 -0.0424314 0)
(8.53522 -0.0417026 0)
(8.40949 -0.0410459 0)
(8.28962 -0.0404534 0)
(8.17493 -0.039891 0)
(8.06577 -0.0393759 0)
(7.96094 -0.0388596 0)
(7.86167 -0.0383919 0)
(7.76549 -0.0379216 0)
(7.67557 -0.037569 0)
(-0.210437 0.455359 -1.06833e-21)
(-0.524675 0.248037 1.08793e-21)
(-0.68276 0.0586343 0)
(-0.684964 -0.127602 0)
(-0.514267 -0.29213 0)
(-0.223363 -0.409866 -1.05705e-21)
(0.147332 -0.473049 0)
(0.556343 -0.483102 0)
(0.964516 -0.453758 0)
(1.34512 -0.396503 0)
(1.68317 -0.325233 1.1119e-21)
(1.96896 -0.251445 0)
(2.19627 -0.176231 0)
(2.35693 -0.106664 0)
(2.45579 -0.0507039 0)
(2.50469 -0.00092591 1.3892e-21)
(2.50943 0.0181558 0)
(2.49881 0.00887889 0)
(2.47202 0.0171102 0)
(2.42647 0.0390475 0)
(2.34819 0.0700207 0)
(2.22793 0.102983 0)
(2.06011 0.138485 0)
(1.86074 0.184289 1.32739e-21)
(1.61692 0.238405 -1.29731e-21)
(1.34806 0.241663 1.27359e-21)
(1.0734 0.214637 1.25929e-21)
(0.787034 0.158073 0)
(0.530489 0.100104 0)
(0.281012 0.129485 -1.26506e-21)
(0.0240782 0.166991 -1.27917e-21)
(-0.238332 0.183986 0)
(-0.500527 0.179924 0)
(-0.742301 0.156199 -1.34754e-21)
(-0.948434 0.120714 0)
(-1.11549 0.0851761 0)
(-1.24033 0.0551201 1.38853e-21)
(-1.33541 0.0385181 0)
(-1.42401 0.0347648 1.41697e-21)
(-1.53548 0.055569 2.88239e-21)
(-1.69397 0.0976008 0)
(-1.89477 0.139499 0)
(-2.13993 0.157739 0)
(-2.37462 0.122773 0)
(-2.57106 0.0848257 0)
(-2.72414 0.0197817 3.0218e-21)
(-2.82347 -0.0868128 3.05569e-21)
(-2.91908 -0.107419 3.09008e-21)
(-2.99883 0.00769359 0)
(-3.13713 0.0710742 -3.07958e-21)
(-3.23078 0.061285 0)
(-3.29782 0.0563382 3.06178e-21)
(-3.3424 0.0485483 3.04461e-21)
(-3.36807 0.0335112 0)
(-3.37003 0.00973719 0)
(-3.36103 -0.039872 0)
(-3.33862 -0.0305222 2.91303e-21)
(-3.3533 -0.0037982 0)
(-3.34497 -0.0169371 0)
(-3.31866 -0.030931 0)
(-3.2495 -0.0502681 0)
(-3.17696 -0.110655 0)
(-3.09442 -0.0964952 0)
(-3.09056 -0.0245467 0)
(-3.11053 -0.0141502 0)
(-3.12873 -0.00450372 -3.02157e-21)
(-3.16245 -0.00112641 0)
(-3.19734 0.00463352 0)
(-3.24723 0.0127999 3.2499e-21)
(-3.30861 0.0234413 3.3205e-21)
(-3.38732 0.0343194 0)
(-3.48509 0.0474403 -3.42946e-21)
(-3.60288 0.0637903 3.47208e-21)
(-3.74083 0.0770289 0)
(-3.89532 0.0829176 -3.56136e-21)
(-4.06231 0.0843251 0)
(-4.23734 0.0803306 0)
(-4.41858 0.0714692 3.68533e-21)
(-4.60075 0.0533812 0)
(-4.76972 0.0435361 -3.7015e-21)
(-4.9322 0.0499528 0)
(-5.08966 0.0489964 3.6435e-21)
(-5.2213 0.0400035 3.59454e-21)
(-5.35034 0.0281829 3.53731e-21)
(-5.44365 0.00132078 6.94217e-21)
(-5.55389 -0.0149353 -6.80513e-21)
(-5.66364 -0.0141812 0)
(-5.84394 0.0467977 0)
(-6.10449 0.156774 0)
(-6.40166 0.16181 -6.30657e-21)
(-6.59645 0.11291 -6.34388e-21)
(-6.71839 0.0718297 6.39732e-21)
(-6.77445 0.0345699 0)
(-6.7747 0.0044519 -6.39454e-21)
(-6.7276 -0.0210077 -6.30485e-21)
(-6.63969 -0.0415427 -6.15056e-21)
(-6.51818 -0.0578863 0)
(-6.36891 -0.0702688 0)
(-6.19809 -0.0795801 0)
(-6.01051 -0.0865895 -4.92259e-21)
(-5.81056 -0.0915718 0)
(-5.60123 -0.0937355 0)
(-5.38507 -0.0933253 3.48725e-21)
(-5.16313 -0.0923056 0)
(-4.93396 -0.0930464 0)
(-4.69487 -0.095635 1.89146e-21)
(-4.44471 -0.098917 0)
(-4.18385 -0.102119 0)
(-3.91327 -0.104887 -4.19279e-22)
(-3.63417 -0.107111 1.7454e-23)
(-3.34758 -0.108878 0)
(-3.05454 -0.110283 -8.02104e-22)
(-2.75613 -0.111318 0)
(-2.45292 -0.112122 1.4901e-21)
(-2.14561 -0.113157 0)
(-1.83511 -0.113693 2.12777e-21)
(-1.52146 -0.113956 2.44009e-21)
(-1.20523 -0.113895 0)
(-0.887025 -0.113437 0)
(-0.567665 -0.112602 0)
(-0.248027 -0.111422 0)
(0.0712018 -0.109831 0)
(0.388396 -0.107798 0)
(0.701741 -0.105254 0)
(1.00964 -0.102074 4.74061e-21)
(1.31006 -0.0980138 -4.93646e-21)
(1.60134 -0.0933718 0)
(1.88195 -0.088285 0)
(2.15054 -0.0828878 0)
(2.40609 -0.0772294 0)
(2.6478 -0.0714004 -1.06901e-20)
(2.87497 -0.0653921 0)
(3.08702 -0.0592466 1.05276e-20)
(3.28336 -0.0529642 -1.03659e-20)
(3.46314 -0.0466904 0)
(3.62574 -0.0406048 0)
(3.77161 -0.0344387 0)
(3.90077 -0.0284053 9.38488e-21)
(4.0133 -0.0225661 9.10482e-21)
(4.10948 -0.0169605 0)
(4.18974 -0.0116092 8.55707e-21)
(4.25456 -0.00653331 8.29989e-21)
(4.30449 -0.00174048 -8.05885e-21)
(4.34014 0.00277156 0)
(4.36206 0.00701852 0)
(4.37079 0.0110121 -7.45208e-21)
(4.36677 0.0148035 0)
(4.35018 0.0184405 0)
(4.32138 0.0218112 0)
(4.281 0.0247876 0)
(4.22958 0.0274375 6.83753e-21)
(4.16739 0.029858 6.76598e-21)
(4.09458 0.0318908 0)
(4.01162 0.0332241 6.66174e-21)
(3.9194 0.0337183 0)
(3.81871 0.0334951 0)
(3.70982 0.0327053 6.56618e-21)
(3.5927 0.0311873 0)
(3.46874 0.0279337 6.50509e-21)
(3.34342 0.0226518 0)
(3.22506 0.0168604 0)
(3.12146 0.014025 6.39198e-21)
(3.03665 0.015182 0)
(2.96181 0.0225888 6.33059e-21)
(2.88259 0.0281248 0)
(2.79821 0.0279487 0)
(2.70993 0.0247199 0)
(2.62099 0.0181322 -6.18979e-21)
(2.53988 0.0117032 0)
(2.47083 0.00722006 6.11902e-21)
(2.41121 0.00542275 0)
(2.35842 0.00689793 0)
(2.30527 0.0116523 0)
(2.23959 0.0158799 0)
(2.16314 0.0181433 0)
(2.06961 0.0155011 0)
(1.98868 0.0204022 0)
(1.85513 0.017717 -1.19376e-20)
(1.80255 0.0409373 0)
(1.52598 0.0150893 0)
(-0.00926278 0.959951 3.29288e-21)
(0.00686217 0.676479 -3.33662e-21)
(0.0847723 0.23605 0)
(0.28713 -0.221697 2.33711e-21)
(0.569168 -0.676013 0)
(0.915008 -1.01195 1.05416e-21)
(1.27352 -1.19202 -2.36022e-21)
(1.61143 -1.24056 -2.38931e-21)
(1.91239 -1.19245 0)
(2.16686 -1.08345 -2.54113e-21)
(2.37335 -0.944807 -1.10912e-21)
(2.52818 -0.780131 0)
(2.64249 -0.590254 0)
(2.72654 -0.402499 0)
(2.7798 -0.244082 0)
(2.79754 -0.113824 -1.38677e-21)
(2.78408 -0.0148025 0)
(2.74231 0.0545757 3.10971e-21)
(2.67457 0.108828 0)
(2.58355 0.170662 0)
(2.45798 0.279066 -3.04634e-21)
(2.30579 0.403228 0)
(2.12894 0.500746 2.94659e-21)
(1.9411 0.580798 -1.32338e-21)
(1.74784 0.636491 1.29287e-21)
(1.53327 0.668866 -1.26883e-21)
(1.28798 0.716543 -1.25432e-21)
(1.00064 0.748765 0)
(0.677434 0.741885 0)
(0.322741 0.709163 1.261e-21)
(-0.016889 0.67341 -1.4879e-21)
(-0.317933 0.640351 0)
(-0.594274 0.60475 0)
(-0.826453 0.538898 1.34487e-21)
(-1.02953 0.444933 0)
(-1.20383 0.342142 0)
(-1.34909 0.239477 -1.38515e-21)
(-1.48577 0.187161 0)
(-1.63735 0.227568 1.70705e-21)
(-1.80838 0.330453 -2.87504e-21)
(-1.98786 0.428489 0)
(-2.16479 0.499315 0)
(-2.33716 0.515926 -6.41977e-21)
(-2.5171 0.453584 -6.41188e-21)
(-2.7138 0.397614 -6.44808e-21)
(-2.87892 0.329571 3.48624e-21)
(-3.07237 0.33708 -3.05094e-21)
(-3.28656 0.329902 -9.72883e-21)
(-3.40966 0.278455 6.68667e-21)
(-3.51448 0.211299 3.07318e-21)
(-3.56594 0.131098 0)
(-3.59827 0.0713305 -3.05554e-21)
(-3.59045 0.0139658 3.5861e-21)
(-3.57262 -0.0317207 0)
(-3.54218 -0.0499446 0)
(-3.54304 -0.0296596 0)
(-3.53243 -0.0150601 -2.90993e-21)
(-3.5202 -0.0280545 0)
(-3.48013 -0.0658826 6.15846e-21)
(-3.43889 -0.121306 0)
(-3.37936 -0.163356 6.12034e-21)
(-3.40282 -0.0984249 0)
(-3.43866 -0.029807 -6.21361e-21)
(-3.47421 0.00980014 0)
(-3.50841 0.0236467 6.40916e-21)
(-3.54048 0.0438359 -3.53648e-21)
(-3.57886 0.0596683 0)
(-3.61708 0.0798062 -6.89086e-21)
(-3.66439 0.101691 -3.24799e-21)
(-3.71991 0.127201 -3.31824e-21)
(-3.79053 0.15422 0)
(-3.87847 0.182996 -3.94972e-21)
(-3.96999 0.206288 -3.46894e-21)
(-4.07304 0.228445 0)
(-4.18613 0.255721 3.55871e-21)
(-4.31128 0.277468 -7.67446e-21)
(-4.45506 0.292164 0)
(-4.61939 0.30751 -3.6832e-21)
(-4.80367 0.311585 0)
(-4.9998 0.297404 1.14334e-20)
(-5.19335 0.271829 0)
(-5.37543 0.241775 -1.12081e-20)
(-5.53481 0.217815 -3.59232e-21)
(-5.69852 0.19633 3.77626e-21)
(-5.86719 0.198029 7.40934e-21)
(-6.10536 0.238692 -7.28983e-21)
(-6.34893 0.301799 0)
(-6.64243 0.389993 0)
(-6.82224 0.371643 0)
(-6.94204 0.283689 1.98168e-20)
(-6.98378 0.179631 6.34075e-21)
(-6.98623 0.0865222 -6.39397e-21)
(-6.94398 0.00393463 0)
(-6.87048 -0.0652508 -6.97424e-21)
(-6.76608 -0.123714 6.30322e-21)
(-6.63735 -0.171461 6.1498e-21)
(-6.48617 -0.209934 0)
(-6.31708 -0.239778 0)
(-6.13245 -0.262149 0)
(-5.93539 -0.27836 4.92431e-21)
(-5.72791 -0.290254 0)
(-5.51134 -0.299558 -8.32492e-21)
(-5.2848 -0.308247 -1.07861e-20)
(-5.04689 -0.317904 6.23256e-21)
(-4.79608 -0.329137 0)
(-4.53211 -0.341071 2.20267e-21)
(-4.25553 -0.352569 0)
(-3.9674 -0.36287 2.06685e-21)
(-3.66907 -0.371555 -7.06198e-22)
(-3.36197 -0.378352 -2.58159e-22)
(-3.04761 -0.383204 0)
(-2.7275 -0.386339 2.15926e-21)
(-2.40348 -0.387968 -2.07665e-21)
(-2.07688 -0.388673 -1.49023e-21)
(-1.74859 -0.389018 0)
(-1.41919 -0.388692 -2.1266e-21)
(-1.08897 -0.387816 -7.13602e-21)
(-0.758362 -0.386434 0)
(-0.427395 -0.38456 -5.96332e-21)
(-0.0958884 -0.38204 -6.59077e-21)
(0.236191 -0.378597 -7.20915e-21)
(0.567869 -0.373903 0)
(0.897835 -0.368026 0)
(1.22395 -0.360036 0)
(1.54494 -0.349947 4.6389e-21)
(1.85864 -0.337758 4.93156e-21)
(2.16336 -0.323825 0)
(2.45762 -0.308619 1.03459e-20)
(2.74026 -0.292531 1.05127e-20)
(3.01036 -0.275754 0)
(3.26722 -0.258473 1.06803e-20)
(3.51023 -0.240668 2.11507e-20)
(3.73882 -0.222425 -1.05183e-20)
(3.95253 -0.203756 -1.02645e-20)
(4.15048 -0.185354 0)
(4.33228 -0.167127 0)
(4.49869 -0.14897 0)
(4.64975 -0.131231 -9.37614e-21)
(4.78569 -0.114065 9.02533e-21)
(4.90691 -0.0975855 1.75691e-20)
(5.01386 -0.0818706 -8.54919e-21)
(5.10713 -0.0669484 8.22742e-21)
(5.18726 -0.0528249 8.05128e-21)
(5.25483 -0.0394905 0)
(5.31039 -0.0269002 0)
(5.3545 -0.0149893 -7.38313e-21)
(5.38775 -0.00365855 0)
(5.4109 0.00717529 0)
(5.4245 0.017503 1.39767e-20)
(5.42875 0.0273032 0)
(5.42388 0.0366416 6.76149e-21)
(5.4102 0.0456697 -6.75724e-21)
(5.38798 0.0544801 0)
(5.35713 0.0630124 6.57298e-21)
(5.31733 0.07114 0)
(5.26818 0.0789167 0)
(5.20922 0.086432 -6.55702e-21)
(5.13936 0.0934889 1.29501e-20)
(5.05725 0.0986347 -6.4961e-21)
(4.96171 0.0997061 0)
(4.85194 0.0940768 0)
(4.72783 0.0819383 6.29142e-21)
(4.59328 0.0666843 0)
(4.46667 0.0548585 6.23848e-21)
(4.36696 0.0522608 0)
(4.29451 0.0555647 0)
(4.23991 0.0606813 0)
(4.18526 0.0629275 6.18119e-21)
(4.12399 0.0594348 0)
(4.0593 0.052426 -6.11034e-21)
(3.9964 0.0461622 0)
(3.93565 0.0410993 0)
(3.88481 0.0424766 1.19996e-20)
(3.83686 0.0470928 -1.1962e-20)
(3.79718 0.0575097 0)
(3.73902 0.0603137 0)
(3.69025 0.0733673 0)
(3.58613 0.0664317 3.56518e-20)
(3.53801 0.0979752 0)
(3.34813 0.0810487 -2.36718e-20)
(0.0812506 0.59228 -4.17205e-23)
(0.338544 0.19457 4.43938e-21)
(0.695202 -0.416171 0)
(1.11051 -1.01832 -4.69469e-21)
(1.51191 -1.49366 0)
(1.84928 -1.7764 0)
(2.1061 -1.85771 -3.46225e-22)
(2.29063 -1.77859 2.38514e-21)
(2.41247 -1.58469 2.92312e-21)
(2.48672 -1.32397 2.53934e-21)
(2.51556 -1.04584 0)
(2.50489 -0.784272 0)
(2.463 -0.559408 -3.30286e-21)
(2.41279 -0.372826 -6.72312e-21)
(2.36119 -0.191477 6.80215e-21)
(2.30486 -0.0130925 0)
(2.24047 0.121053 6.86354e-21)
(2.1573 0.220404 -3.1115e-21)
(2.05639 0.311877 0)
(1.92145 0.445363 6.75888e-21)
(1.77382 0.582342 3.04577e-21)
(1.62874 0.695616 -6.60301e-21)
(1.47998 0.794133 -2.94437e-21)
(1.32923 0.874984 0)
(1.167 0.950089 6.2984e-21)
(0.973084 1.04686 6.20368e-21)
(0.760773 1.13807 0)
(0.523362 1.22219 6.05806e-21)
(0.263011 1.27837 0)
(-0.0181617 1.28939 6.01112e-21)
(-0.316495 1.24844 2.75404e-21)
(-0.602242 1.16664 0)
(-0.867808 1.05122 0)
(-1.09683 0.908489 0)
(-1.30831 0.76957 0)
(-1.4981 0.635601 0)
(-1.69698 0.549059 0)
(-1.9021 0.522732 6.66367e-21)
(-2.1095 0.556167 -9.90495e-21)
(-2.31595 0.627667 0)
(-2.49687 0.688009 0)
(-2.67152 0.708824 0)
(-2.80273 0.730399 -5.85234e-22)
(-2.95087 0.703638 6.40065e-21)
(-3.08148 0.645483 1.34431e-20)
(-3.20607 0.582544 -1.35574e-20)
(-3.31926 0.520018 -7.13361e-21)
(-3.4097 0.446366 6.63618e-21)
(-3.45533 0.370319 5.94343e-22)
(-3.48885 0.28786 7.30961e-21)
(-3.49858 0.199986 0)
(-3.50673 0.113979 7.28718e-21)
(-3.50334 0.0410616 6.0262e-22)
(-3.51727 0.00219369 0)
(-3.52753 -0.0132792 0)
(-3.53052 -0.019981 -6.96337e-21)
(-3.5098 -0.0377163 0)
(-3.48923 -0.0642981 0)
(-3.46341 -0.105598 7.22996e-21)
(-3.45852 -0.130953 1.32722e-20)
(-3.51107 -0.0843563 -6.12199e-21)
(-3.59758 -0.0149449 0)
(-3.66269 0.0334461 6.21342e-21)
(-3.71852 0.0592807 0)
(-3.76692 0.0713275 7.67348e-21)
(-3.80384 0.0846906 6.55337e-21)
(-3.83195 0.0944464 -1.48321e-20)
(-3.85271 0.112397 -8.31602e-21)
(-3.87304 0.143122 0)
(-3.89934 0.184101 1.57973e-20)
(-3.93797 0.22641 0)
(-3.98882 0.264726 2.35183e-20)
(-4.04676 0.297981 1.62617e-20)
(-4.11804 0.330982 1.63752e-20)
(-4.19521 0.361077 -1.6479e-20)
(-4.28911 0.397495 2.42417e-20)
(-4.40791 0.443032 0)
(-4.54356 0.485366 0)
(-4.69373 0.505656 -1.64884e-20)
(-4.86341 0.500606 -2.40759e-20)
(-5.04497 0.479192 0)
(-5.2378 0.445032 7.57383e-21)
(-5.43217 0.410851 0)
(-5.63779 0.40182 -2.26235e-20)
(-5.86864 0.446964 6.95474e-22)
(-6.10802 0.499346 -7.65998e-22)
(-6.34322 0.562362 1.47606e-20)
(-6.49521 0.548121 0)
(-6.53637 0.443449 -1.46572e-20)
(-6.54195 0.308197 1.10029e-21)
(-6.51262 0.17147 0)
(-6.47286 0.0482215 0)
(-6.41124 -0.0606966 0)
(-6.33477 -0.153597 1.3378e-20)
(-6.23679 -0.233175 0)
(-6.1206 -0.299798 0)
(-5.98432 -0.354577 0)
(-5.83065 -0.398012 0)
(-5.65999 -0.431782 0)
(-5.47451 -0.457867 1.07132e-20)
(-5.27474 -0.479134 0)
(-5.06143 -0.498174 8.33458e-21)
(-4.8345 -0.517097 7.30454e-21)
(-4.59473 -0.536914 -6.23904e-21)
(-4.34273 -0.557593 0)
(-4.07945 -0.578025 -4.09815e-21)
(-3.80551 -0.597148 0)
(-3.52151 -0.614125 -2.06791e-21)
(-3.22817 -0.628287 1.12513e-21)
(-2.92652 -0.63922 1.58543e-21)
(-2.61784 -0.646703 0)
(-2.30359 -0.650831 -3.27811e-21)
(-1.98523 -0.652322 -1.32939e-21)
(-1.66398 -0.652285 0)
(-1.34071 -0.651079 -6.16863e-21)
(-1.01581 -0.648891 -7.49683e-21)
(-0.689615 -0.646091 1.35034e-20)
(-0.36253 -0.642799 0)
(-0.0346936 -0.639081 5.95997e-21)
(0.293871 -0.634617 6.58747e-21)
(0.622795 -0.628786 2.11607e-20)
(0.951266 -0.621195 0)
(1.27776 -0.611024 0)
(1.60064 -0.597417 0)
(1.91779 -0.580277 9.04078e-21)
(2.22707 -0.559765 0)
(2.52654 -0.536412 0)
(2.8148 -0.511016 -1.03387e-20)
(3.09082 -0.484272 -1.05057e-20)
(3.35386 -0.456541 0)
(3.60332 -0.428044 0)
(3.83871 -0.398729 -2.11386e-20)
(4.0595 -0.36876 0)
(4.26522 -0.338298 2.06091e-20)
(4.4552 -0.308422 2.00549e-20)
(4.62912 -0.278569 0)
(4.78775 -0.249253 0)
(4.93127 -0.220777 -1.85418e-20)
(5.06016 -0.193351 -1.20502e-22)
(5.17503 -0.167131 -1.15744e-22)
(5.27661 -0.142221 0)
(5.36563 -0.118676 -3.29179e-20)
(5.44281 -0.0965038 0)
(5.50884 -0.0756704 0)
(5.56441 -0.0561108 0)
(5.61016 -0.0377552 1.48229e-20)
(5.64666 -0.0205397 0)
(5.6744 -0.00444105 -2.8238e-20)
(5.69388 0.010635 -1.39721e-20)
(5.70554 0.0247864 0)
(5.70976 0.0380876 -1.35856e-20)
(5.70702 0.0506801 0)
(5.69794 0.0627579 0)
(5.68316 0.0744796 -3.94382e-20)
(5.663 0.0859245 2.60487e-20)
(5.63743 0.0972129 0)
(5.60634 0.108547 2.57714e-20)
(5.56947 0.120124 -1.29441e-20)
(5.52591 0.131283 0)
(5.47398 0.140584 0)
(5.41056 0.146226 0)
(5.33288 0.147483 -3.77729e-20)
(5.23739 0.144874 0)
(5.12233 0.134906 -1.25541e-20)
(4.9944 0.115624 0)
(4.86562 0.095515 0)
(4.75571 0.0832713 0)
(4.67588 0.0796839 0)
(4.61226 0.0773165 0)
(4.54743 0.07173 0)
(4.4813 0.0668339 -2.39668e-20)
(4.41477 0.0624997 0)
(4.35536 0.0609766 -1.19934e-20)
(4.29979 0.0596202 3.56877e-20)
(4.2625 0.065528 0)
(4.22325 0.0683532 0)
(4.20394 0.0868804 -2.35968e-20)
(4.15181 0.0933319 -2.37186e-20)
(4.13003 0.130294 2.35366e-20)
(4.02332 0.128533 2.36582e-20)
(0.0803044 0.0143573 -6.61209e-21)
(0.514827 -0.707728 -6.69097e-21)
(1.02133 -1.45456 -4.72849e-21)
(1.45556 -1.95367 -2.69637e-21)
(1.78051 -2.23047 0)
(1.97949 -2.2656 5.7891e-21)
(2.07277 -2.11182 -3.42932e-21)
(2.10021 -1.85934 0)
(2.08481 -1.55802 -2.92527e-21)
(2.05572 -1.23739 0)
(2.01584 -0.927357 7.17174e-21)
(1.9678 -0.636809 0)
(1.90355 -0.377114 3.30795e-21)
(1.8223 -0.162374 6.73344e-21)
(1.71974 0.00858312 -6.81182e-21)
(1.61199 0.15625 0)
(1.51007 0.299739 -6.87052e-21)
(1.39916 0.423268 0)
(1.26605 0.556263 0)
(1.11519 0.703993 -6.76071e-21)
(0.968331 0.832872 0)
(0.817577 0.951616 -6.98011e-22)
(0.664075 1.05652 0)
(0.499414 1.16192 0)
(0.314551 1.28274 7.52349e-22)
(0.119831 1.4014 -6.19671e-21)
(-0.0820618 1.51354 -6.89184e-21)
(-0.286378 1.60869 -6.0476e-21)
(-0.492196 1.67402 0)
(-0.700492 1.69971 -1.27258e-20)
(-0.919608 1.67033 0)
(-1.14226 1.57906 -6.68971e-21)
(-1.36579 1.44102 0)
(-1.58057 1.28032 0)
(-1.79217 1.12467 6.8025e-21)
(-2.00471 0.993792 0)
(-2.23169 0.913512 -6.99192e-21)
(-2.45321 0.881975 4.81601e-22)
(-2.66987 0.906413 1.40794e-20)
(-2.87472 0.957683 -1.48762e-20)
(-3.05557 0.995392 0)
(-3.20597 0.978136 0)
(-3.3174 0.934541 -8.2288e-21)
(-3.405 0.855942 0)
(-3.46829 0.774574 -6.99605e-21)
(-3.51769 0.70161 7.05593e-21)
(-3.54186 0.612179 7.1265e-21)
(-3.54653 0.508656 0)
(-3.53568 0.401215 -7.27135e-21)
(-3.52251 0.29111 -7.30751e-21)
(-3.50697 0.186702 1.59705e-20)
(-3.50507 0.101304 -7.28685e-21)
(-3.51584 0.0456413 -7.22758e-21)
(-3.54311 0.00955836 0)
(-3.56188 -0.0224085 0)
(-3.57295 -0.0476047 6.96433e-21)
(-3.57664 -0.0685183 0)
(-3.59305 -0.0843155 0)
(-3.61709 -0.0995408 -1.33901e-20)
(-3.68408 -0.0625954 -1.32699e-20)
(-3.79608 0.0173209 0)
(-3.90648 0.079538 0)
(-3.98391 0.117147 0)
(-4.056 0.137677 0)
(-4.1154 0.135013 -1.40698e-20)
(-4.15238 0.126497 1.58848e-20)
(-4.17027 0.119567 1.48243e-20)
(-4.17566 0.12973 3.18962e-20)
(-4.1763 0.162053 0)
(-4.17261 0.20894 1.51152e-21)
(-4.17015 0.255008 0)
(-4.17141 0.296196 -1.61407e-20)
(-4.18207 0.338302 1.44272e-21)
(-4.20883 0.382923 -1.63879e-20)
(-4.24916 0.443295 1.64948e-20)
(-4.30534 0.509053 1.25314e-21)
(-4.36953 0.559073 0)
(-4.44876 0.607137 1.77041e-20)
(-4.54915 0.647916 1.65084e-20)
(-4.68005 0.669346 3.36501e-20)
(-4.83805 0.670173 0)
(-5.01886 0.649322 -1.67145e-20)
(-5.21002 0.629244 0)
(-5.41956 0.641738 3.14874e-20)
(-5.62935 0.678498 -1.50661e-20)
(-5.82174 0.708912 1.4881e-20)
(-5.95823 0.692426 -1.47739e-20)
(-5.99373 0.58477 -3.16589e-20)