/*--------------------------------*- C++ -*----------------------------------*\
  =========                 |
  \\      /  F ield         | OpenFOAM: The Open Source CFD Toolbox
   \\    /   O peration     | Website:  https://openfoam.org
    \\  /    A nd           | Version:  9
     \\/     M anipulation  |
\*---------------------------------------------------------------------------*/
FoamFile
{
    format      ascii;
    class       volSymmTensorField;
    location    "0.085";
    object      UPrime2Mean;
}
// * * * * * * * * * * * * * * * * * * * * * * * * * * * * * * * * * * * * * //

dimensions      [0 2 -2 0 0 0 0];

internalField   nonuniform List<symmTensor> 
12225
(
(-48.2961 -0.211899 0 0.00134559 0 0)
(-45.4646 -0.281294 0 -0.000655097 0 0)
(-42.6787 -0.264885 0 -0.000887421 0 0)
(-39.9428 -0.252259 0 -0.000991728 0 0)
(-37.3298 -0.24338 0 -0.00108457 0 0)
(-34.8849 -0.233162 0 -0.00111911 0 0)
(-32.6047 -0.221297 0 -0.00109951 0 0)
(-30.4867 -0.210334 0 -0.00107307 0 0)
(-28.4884 -0.200033 0 -0.00102401 0 0)
(-26.6258 -0.192703 0 -0.00100994 0 0)
(-24.823 -0.185189 0 -0.000918503 0 0)
(-23.1587 -0.182506 0 -0.000931373 0 0)
(-21.45 -0.1793 0 -0.000629677 0 0)
(-19.925 -0.18575 0 -0.000763647 0 0)
(-18.1091 -0.197032 0 0.000569036 0 0)
(-16.613 -0.220583 0 -0.000232954 0 0)
(-14.2594 -0.294457 0 0.00788476 0 0)
(-12.4242 -0.356569 0 0.00349653 0 0)
(-50.1951 -0.266336 0 0.00145058 0 0)
(-50.8075 -0.380642 0 -0.00158036 0 0)
(-51.2079 -0.376091 0 -0.00191484 0 0)
(-51.3554 -0.380784 0 -0.00213755 0 0)
(-51.3314 -0.396201 0 -0.00245874 0 0)
(-51.2068 -0.410322 0 -0.00273106 0 0)
(-50.9954 -0.420833 0 -0.00293383 0 0)
(-50.7152 -0.430811 0 -0.00308176 0 0)
(-50.3489 -0.44102 0 -0.00322336 0 0)
(-49.9311 -0.453513 0 -0.00326899 0 0)
(-49.4228 -0.467109 0 -0.00333414 0 0)
(-48.8883 -0.485162 0 -0.00306239 0 0)
(-48.2277 -0.508243 0 -0.00287925 0 0)
(-47.564 -0.541632 0 -0.00156809 0 0)
(-46.6816 -0.594583 0 -0.000376004 0 0)
(-45.8187 -0.667747 0 0.00489375 0 0)
(-44.5678 -0.809769 0 0.0127586 0 0)
(-43.3184 -0.99771 0 0.0410423 0 0)
(-49.9972 -0.147892 0 0.00309469 0 0)
(-50.3523 -0.261991 0 0.000393781 0 0)
(-50.6656 -0.274758 0 -0.000259376 0 0)
(-50.859 -0.287535 0 -0.000569917 0 0)
(-50.9727 -0.312445 0 -0.000943023 0 0)
(-51.0573 -0.337638 0 -0.00129249 0 0)
(-51.1278 -0.358332 0 -0.0015486 0 0)
(-51.1857 -0.378393 0 -0.00174563 0 0)
(-51.2238 -0.397841 0 -0.00183011 0 0)
(-51.2455 -0.42114 0 -0.00185866 0 0)
(-51.2456 -0.444593 0 -0.00158751 0 0)
(-51.227 -0.476624 0 -0.00118785 0 0)
(-51.1804 -0.511782 0 0.000136048 0 0)
(-51.1039 -0.566601 0 0.00190698 0 0)
(-50.9967 -0.636154 0 0.00675589 0 0)
(-50.8492 -0.743501 0 0.0145361 0 0)
(-50.703 -0.898298 0 0.0342723 0 0)
(-50.5407 -1.10651 0 0.0738823 0 0)
(-49.8062 -0.140074 0 0.003373 0 0)
(-50.0606 -0.28643 0 0.000297385 0 0)
(-50.3109 -0.313864 0 -0.000707315 0 0)
(-50.4821 -0.32378 0 -0.00103122 0 0)
(-50.5837 -0.344406 0 -0.00136032 0 0)
(-50.6546 -0.367956 0 -0.0016696 0 0)
(-50.7172 -0.388167 0 -0.00187836 0 0)
(-50.7743 -0.406295 0 -0.00195167 0 0)
(-50.8219 -0.424639 0 -0.001902 0 0)
(-50.8562 -0.445505 0 -0.00165372 0 0)
(-50.8761 -0.470058 0 -0.00116783 0 0)
(-50.8789 -0.500785 0 -0.000177412 0 0)
(-50.8664 -0.541039 0 0.00159083 0 0)
(-50.8375 -0.595567 0 0.00490854 0 0)
(-50.801 -0.671525 0 0.0111159 0 0)
(-50.7678 -0.775772 0 0.0229995 0 0)
(-50.7606 -0.916149 0 0.0460961 0 0)
(-50.8189 -1.08364 0 0.0893594 0 0)
(-50.148 -0.0992057 0 0.00388465 0 0)
(-50.341 -0.227633 0 0.00139907 0 0)
(-50.5561 -0.263418 0 0.000326547 0 0)
(-50.7166 -0.27653 0 -2.47541e-05 0 0)
(-50.8122 -0.297781 0 -0.000290516 0 0)
(-50.8721 -0.324853 0 -0.000535678 0 0)
(-50.9196 -0.35015 0 -0.000676783 0 0)
(-50.9614 -0.373152 0 -0.000665316 0 0)
(-50.9953 -0.395666 0 -0.000443498 0 0)
(-51.0182 -0.42093 0 4.45468e-05 0 0)
(-51.027 -0.450006 0 0.000975494 0 0)
(-51.0212 -0.485862 0 0.00257946 0 0)
(-50.9996 -0.530814 0 0.00537545 0 0)
(-50.9673 -0.589276 0 0.0102254 0 0)
(-50.9282 -0.66603 0 0.0186932 0 0)
(-50.9006 -0.765165 0 0.0338939 0 0)
(-50.8925 -0.886877 0 0.0600426 0 0)
(-50.9356 -1.02161 0 0.105381 0 0)
(-49.823 -0.0748016 0 0.00445655 0 0)
(-49.978 -0.206116 0 0.0017573 0 0)
(-50.1688 -0.26088 0 0.000353327 0 0)
(-50.3235 -0.282191 0 -0.000168367 0 0)
(-50.4202 -0.303546 0 -0.00045345 0 0)
(-50.4836 -0.32999 0 -0.000639302 0 0)
(-50.5385 -0.355878 0 -0.000676155 0 0)
(-50.592 -0.379277 0 -0.000494153 0 0)
(-50.6399 -0.402251 0 -4.23596e-05 0 0)
(-50.6783 -0.427956 0 0.00078134 0 0)
(-50.7051 -0.458424 0 0.00217513 0 0)
(-50.7211 -0.495941 0 0.00448407 0 0)
(-50.727 -0.542483 0 0.00830903 0 0)
(-50.727 -0.601569 0 0.0146888 0 0)
(-50.7253 -0.67572 0 0.025263 0 0)
(-50.7328 -0.767058 0 0.0430178 0 0)
(-50.7563 -0.872189 0 0.0716321 0 0)
(-50.8109 -0.985648 0 0.117504 0 0)
(-50.3628 -0.0707881 0 0.00508263 0 0)
(-50.4528 -0.177678 0 0.00277383 0 0)
(-50.5833 -0.235957 0 0.0014055 0 0)
(-50.7028 -0.262958 0 0.000850955 0 0)
(-50.7818 -0.284868 0 0.000647706 0 0)
(-50.8299 -0.310777 0 0.000602456 0 0)
(-50.8663 -0.337981 0 0.000719501 0 0)
(-50.8998 -0.363785 0 0.00109869 0 0)
(-50.9287 -0.389107 0 0.00185109 0 0)
(-50.95 -0.416766 0 0.00313022 0 0)
(-50.9625 -0.44917 0 0.00517074 0 0)
(-50.9684 -0.488589 0 0.00840127 0 0)
(-50.97 -0.536832 0 0.0134815 0 0)
(-50.9718 -0.596477 0 0.0215684 0 0)
(-50.9772 -0.668638 0 0.0342592 0 0)
(-50.9937 -0.754224 0 0.054337 0 0)
(-51.0251 -0.849201 0 0.0848543 0 0)
(-51.0813 -0.950222 0 0.130599 0 0)
(-50.054 -0.0501255 0 0.00437542 0 0)
(-50.1585 -0.155641 0 0.00235419 0 0)
(-50.286 -0.220066 0 0.00106629 0 0)
(-50.4043 -0.254121 0 0.00049256 0 0)
(-50.4914 -0.278712 0 0.000321946 0 0)
(-50.5523 -0.305152 0 0.000378484 0 0)
(-50.6023 -0.333285 0 0.000651822 0 0)
(-50.6503 -0.361125 0 0.00122816 0 0)
(-50.6945 -0.388825 0 0.00224444 0 0)
(-50.7308 -0.418571 0 0.00390214 0 0)
(-50.7556 -0.452343 0 0.00650278 0 0)
(-50.7714 -0.492228 0 0.010549 0 0)
(-50.7799 -0.539654 0 0.0167635 0 0)
(-50.7899 -0.596631 0 0.0263388 0 0)
(-50.8029 -0.663429 0 0.0407985 0 0)
(-50.8316 -0.740715 0 0.0625841 0 0)
(-50.871 -0.824469 0 0.0941326 0 0)
(-50.9397 -0.912817 0 0.139023 0 0)
(-50.0837 -0.0460955 0 0.0052425 0 0)
(-50.1517 -0.133814 0 0.00329872 0 0)
(-50.2621 -0.19779 0 0.00196204 0 0)
(-50.381 -0.236926 0 0.00137558 0 0)
(-50.4778 -0.263082 0 0.0012699 0 0)
(-50.5477 -0.28808 0 0.00146915 0 0)
(-50.5998 -0.314927 0 0.00195445 0 0)
(-50.6436 -0.342748 0 0.00283021 0 0)
(-50.6821 -0.371777 0 0.00425565 0 0)
(-50.7144 -0.403687 0 0.00646179 0 0)
(-50.7386 -0.439885 0 0.00978299 0 0)
(-50.756 -0.481714 0 0.0147653 0 0)
(-50.7679 -0.529736 0 0.0221539 0 0)
(-50.7804 -0.585165 0 0.0331106 0 0)
(-50.7955 -0.647459 0 0.0490319 0 0)
(-50.8222 -0.717162 0 0.0720036 0 0)
(-50.8588 -0.790525 0 0.10391 0 0)
(-50.9166 -0.866632 0 0.14747 0 0)
(-50.0171 -0.0357977 0 0.00575598 0 0)
(-50.0862 -0.111879 0 0.00371532 0 0)
(-50.174 -0.176247 0 0.0022202 0 0)
(-50.2645 -0.219992 0 0.00163278 0 0)
(-50.3428 -0.251466 0 0.00154307 0 0)
(-50.4031 -0.279942 0 0.00179864 0 0)
(-50.4487 -0.309019 0 0.00241953 0 0)
(-50.4877 -0.338854 0 0.00351997 0 0)
(-50.525 -0.369626 0 0.00527272 0 0)
(-50.5612 -0.402542 0 0.00794281 0 0)
(-50.5938 -0.438827 0 0.011895 0 0)
(-50.623 -0.479863 0 0.0176903 0 0)
(-50.6484 -0.526086 0 0.0260488 0 0)
(-50.6751 -0.578319 0 0.0380516 0 0)
(-50.7037 -0.635654 0 0.0548949 0 0)
(-50.7432 -0.698228 0 0.0783493 0 0)
(-50.7896 -0.762525 0 0.109774 0 0)
(-50.855 -0.828211 0 0.151287 0 0)
(-50.0681 -0.0253554 0 0.00651356 0 0)
(-50.1226 -0.108139 0 0.00484954 0 0)
(-50.1784 -0.163538 0 0.00365493 0 0)
(-50.2402 -0.204018 0 0.0030849 0 0)
(-50.3041 -0.236494 0 0.00298966 0 0)
(-50.362 -0.264861 0 0.0033922 0 0)
(-50.4106 -0.29196 0 0.00429366 0 0)
(-50.4527 -0.319998 0 0.00575273 0 0)
(-50.4914 -0.349913 0 0.00793939 0 0)
(-50.5282 -0.382801 0 0.0111481 0 0)
(-50.5625 -0.419525 0 0.0157618 0 0)
(-50.5957 -0.461073 0 0.0223356 0 0)
(-50.6281 -0.507115 0 0.0315555 0 0)
(-50.6628 -0.557748 0 0.0444064 0 0)
(-50.6996 -0.611311 0 0.061877 0 0)
(-50.7433 -0.667846 0 0.0854151 0 0)
(-50.7918 -0.72423 0 0.115922 0 0)
(-50.8518 -0.780923 0 0.155017 0 0)
(-49.957 -0.00973738 0 0.00652326 0 0)
(-50.0077 -0.0952872 0 0.00444398 0 0)
(-50.0596 -0.151444 0 0.00299003 0 0)
(-50.126 -0.192845 0 0.00246271 0 0)
(-50.2014 -0.225532 0 0.00257204 0 0)
(-50.2755 -0.254348 0 0.00320005 0 0)
(-50.3418 -0.28304 0 0.0043392 0 0)
(-50.3998 -0.313192 0 0.00609381 0 0)
(-50.4516 -0.344857 0 0.00866722 0 0)
(-50.4989 -0.378175 0 0.0123738 0 0)
(-50.5436 -0.413648 0 0.0175992 0 0)
(-50.5874 -0.452352 0 0.0248817 0 0)
(-50.6326 -0.494538 0 0.0348253 0 0)
(-50.6804 -0.540696 0 0.0482936 0 0)
(-50.7326 -0.589531 0 0.0660626 0 0)
(-50.7886 -0.640914 0 0.0893101 0 0)
(-50.8501 -0.691752 0 0.118601 0 0)
(-50.915 -0.742499 0 0.155249 0 0)
(-49.9369 -0.012515 0 0.0074392 0 0)
(-49.9481 -0.0752759 0 0.00601962 0 0)
(-50.0016 -0.131837 0 0.00426123 0 0)
(-50.0805 -0.175006 0 0.00377937 0 0)
(-50.1595 -0.206387 0 0.00409837 0 0)
(-50.2279 -0.232847 0 0.00494777 0 0)
(-50.2868 -0.259954 0 0.00630421 0 0)
(-50.3419 -0.289556 0 0.00830186 0 0)
(-50.3967 -0.32138 0 0.0111774 0 0)
(-50.4521 -0.355195 0 0.0152653 0 0)
(-50.5067 -0.391109 0 0.0209378 0 0)
(-50.5617 -0.429765 0 0.028696 0 0)
(-50.6163 -0.471048 0 0.0390668 0 0)
(-50.6742 -0.51505 0 0.0528047 0 0)
(-50.7336 -0.560355 0 0.0704933 0 0)
(-50.8003 -0.606885 0 0.0931258 0 0)
(-50.8672 -0.651803 0 0.120922 0 0)
(-50.946 -0.696217 0 0.154994 0 0)
(-49.8433 -0.025839 0 0.00774545 0 0)
(-49.8551 -0.0688951 0 0.00651939 0 0)
(-49.889 -0.120828 0 0.00516408 0 0)
(-49.9427 -0.165097 0 0.00464906 0 0)
(-50.0004 -0.198706 0 0.00485975 0 0)
(-50.053 -0.226878 0 0.00573679 0 0)
(-50.1006 -0.254297 0 0.00725217 0 0)
(-50.1472 -0.283017 0 0.00951352 0 0)
(-50.1954 -0.313105 0 0.0127322 0 0)
(-50.2458 -0.344607 0 0.0172001 0 0)
(-50.2973 -0.377545 0 0.0232438 0 0)
(-50.3507 -0.412593 0 0.031303 0 0)
(-50.4058 -0.449398 0 0.0418117 0 0)
(-50.465 -0.488355 0 0.0553936 0 0)
(-50.5273 -0.527785 0 0.0724518 0 0)
(-50.5958 -0.568283 0 0.0937608 0 0)
(-50.6666 -0.606608 0 0.119323 0 0)
(-50.7452 -0.644647 0 0.150035 0 0)
(-50.0004 -0.00473943 0 0.00926001 0 0)
(-50.0353 -0.053874 0 0.00858861 0 0)
(-50.0695 -0.0988694 0 0.00693258 0 0)
(-50.1089 -0.138482 0 0.00643525 0 0)
(-50.1528 -0.171461 0 0.00690828 0 0)
(-50.1984 -0.198928 0 0.00808252 0 0)
(-50.245 -0.224179 0 0.00986538 0 0)
(-50.2942 -0.250402 0 0.0123889 0 0)
(-50.3474 -0.278816 0 0.0158897 0 0)
(-50.4043 -0.309401 0 0.0206609 0 0)
(-50.464 -0.341549 0 0.0269952 0 0)
(-50.5245 -0.375175 0 0.0352737 0 0)
(-50.5856 -0.409655 0 0.0458077 0 0)
(-50.6464 -0.44499 0 0.059086 0 0)
(-50.7093 -0.479909 0 0.0752719 0 0)
(-50.773 -0.514708 0 0.094986 0 0)
(-50.8415 -0.547032 0 0.117949 0 0)
(-50.9099 -0.578339 0 0.144955 0 0)
(-50.0517 0.00580301 0 0.0104562 0 0)
(-50.0907 -0.0552324 0 0.00896226 0 0)
(-50.1372 -0.0957186 0 0.0069284 0 0)
(-50.1997 -0.128983 0 0.00639291 0 0)
(-50.2739 -0.159969 0 0.00692604 0 0)
(-50.3495 -0.18896 0 0.00820562 0 0)
(-50.4191 -0.215024 0 0.0101134 0 0)
(-50.4813 -0.238742 0 0.0127267 0 0)
(-50.5383 -0.26195 0 0.0162604 0 0)
(-50.5934 -0.286705 0 0.0210048 0 0)
(-50.6495 -0.313975 0 0.0271951 0 0)
(-50.7084 -0.343942 0 0.0350909 0 0)
(-50.7706 -0.375335 0 0.0448782 0 0)
(-50.8371 -0.407315 0 0.0569237 0 0)
(-50.9072 -0.437936 0 0.0712826 0 0)
(-50.9821 -0.467585 0 0.0884092 0 0)
(-51.0585 -0.494046 0 0.107936 0 0)
(-51.1396 -0.519761 0 0.130474 0 0)
(-49.9265 0.0157961 0 0.0111697 0 0)
(-49.883 -0.0239687 0 0.00973172 0 0)
(-49.857 -0.051698 0 0.0068944 0 0)
(-49.873 -0.0756952 0 0.00636091 0 0)
(-49.9218 -0.101406 0 0.00720157 0 0)
(-49.9833 -0.129336 0 0.00873518 0 0)
(-50.0443 -0.157825 0 0.0108234 0 0)
(-50.1021 -0.185958 0 0.0136039 0 0)
(-50.1569 -0.213629 0 0.0172834 0 0)
(-50.2102 -0.240989 0 0.0220859 0 0)
(-50.2632 -0.267459 0 0.0281751 0 0)
(-50.3192 -0.292774 0 0.0357351 0 0)
(-50.3778 -0.316403 0 0.0448287 0 0)
(-50.4426 -0.339016 0 0.0556659 0 0)
(-50.5096 -0.36015 0 0.0681653 0 0)
(-50.5837 -0.381059 0 0.0826678 0 0)
(-50.6558 -0.400021 0 0.0987435 0 0)
(-50.7366 -0.419144 0 0.11696 0 0)
(-49.7856 -0.0638004 0 0.0115191 0 0)
(-49.7704 -0.0697694 0 0.0111324 0 0)
(-49.7678 -0.0800092 0 0.00895667 0 0)
(-49.7882 -0.0931767 0 0.00819016 0 0)
(-49.8289 -0.10948 0 0.00845909 0 0)
(-49.8808 -0.127525 0 0.00952931 0 0)
(-49.9368 -0.146286 0 0.0112641 0 0)
(-49.9947 -0.165579 0 0.0136673 0 0)
(-50.0566 -0.18548 0 0.0168377 0 0)
(-50.1236 -0.20613 0 0.0209154 0 0)
(-50.1956 -0.226862 0 0.0259955 0 0)
(-50.2705 -0.247103 0 0.0321857 0 0)
(-50.347 -0.265841 0 0.0394914 0 0)
(-50.4232 -0.283355 0 0.0480252 0 0)
(-50.499 -0.299031 0 0.0576402 0 0)
(-50.5736 -0.314236 0 0.0685771 0 0)
(-50.6479 -0.327553 0 0.0804502 0 0)
(-50.7205 -0.34133 0 0.0936387 0 0)
(-49.8743 0.00273972 0 0.0109734 0 0)
(-49.916 0.000828376 0 0.010424 0 0)
(-49.9694 -0.00782936 0 0.00809152 0 0)
(-50.0273 -0.0208715 0 0.00736225 0 0)
(-50.0843 -0.0351048 0 0.00780004 0 0)
(-50.1432 -0.0496516 0 0.00900239 0 0)
(-50.2067 -0.06429 0 0.0107619 0 0)
(-50.274 -0.0786277 0 0.0130319 0 0)
(-50.3434 -0.0922602 0 0.0158523 0 0)
(-50.4145 -0.105368 0 0.0193036 0 0)
(-50.4879 -0.11821 0 0.0234389 0 0)
(-50.5632 -0.131325 0 0.0283143 0 0)
(-50.6403 -0.144521 0 0.0339034 0 0)
(-50.7178 -0.157976 0 0.0402623 0 0)
(-50.796 -0.170692 0 0.0472636 0 0)
(-50.8729 -0.183036 0 0.0550595 0 0)
(-50.9506 -0.193431 0 0.063367 0 0)
(-51.0256 -0.203344 0 0.0724506 0 0)
(-50.1101 -0.0170601 0 0.0129319 0 0)
(-50.1281 -0.0147024 0 0.0115739 0 0)
(-50.1554 -0.0135191 0 0.00878563 0 0)
(-50.1968 -0.0156298 0 0.00784172 0 0)
(-50.2494 -0.021105 0 0.00799008 0 0)
(-50.3116 -0.0288773 0 0.00876606 0 0)
(-50.3808 -0.037803 0 0.00998291 0 0)
(-50.4534 -0.0474959 0 0.0115713 0 0)
(-50.5269 -0.0578007 0 0.013528 0 0)
(-50.5999 -0.0684277 0 0.0158981 0 0)
(-50.6716 -0.0787653 0 0.018716 0 0)
(-50.7423 -0.088571 0 0.0220129 0 0)
(-50.8128 -0.0975343 0 0.0257665 0 0)
(-50.8835 -0.10599 0 0.0300035 0 0)
(-50.9552 -0.113628 0 0.0346209 0 0)
(-51.0275 -0.121054 0 0.0397227 0 0)
(-51.101 -0.127292 0 0.0451181 0 0)
(-51.1743 -0.133548 0 0.0509249 0 0)
(-50.135 0.0127561 0 0.0112211 0 0)
(-50.1631 0.022219 0 0.0109648 0 0)
(-50.2055 0.0314828 0 0.00866028 0 0)
(-50.2677 0.0368358 0 0.00763393 0 0)
(-50.3402 0.0380311 0 0.00758857 0 0)
(-50.4119 0.0360638 0 0.00811479 0 0)
(-50.4804 0.0321105 0 0.00897895 0 0)
(-50.5486 0.0265423 0 0.0101096 0 0)
(-50.6188 0.0194363 0 0.0115119 0 0)
(-50.6917 0.011068 0 0.0132261 0 0)
(-50.7664 0.00235162 0 0.0152811 0 0)
(-50.8419 -0.00588741 0 0.0176918 0 0)
(-50.9167 -0.0128126 0 0.020424 0 0)
(-50.9903 -0.0184114 0 0.0234719 0 0)
(-51.0616 -0.0224803 0 0.026739 0 0)
(-51.1318 -0.0257688 0 0.0303126 0 0)
(-51.2 -0.0277896 0 0.0340583 0 0)
(-51.2687 -0.0297703 0 0.0380374 0 0)
(-49.8442 0.00791716 0 0.0117594 0 0)
(-49.8647 0.0274388 0 0.0104129 0 0)
(-49.907 0.0422516 0 0.00775153 0 0)
(-49.968 0.050536 0 0.00664996 0 0)
(-50.0369 0.0525865 0 0.00637005 0 0)
(-50.1087 0.049855 0 0.00653362 0 0)
(-50.1817 0.045069 0 0.00701308 0 0)
(-50.2576 0.0406254 0 0.00775678 0 0)
(-50.338 0.0370354 0 0.00872885 0 0)
(-50.4227 0.0334787 0 0.00992101 0 0)
(-50.5098 0.0292506 0 0.0113396 0 0)
(-50.5971 0.0240364 0 0.0129904 0 0)
(-50.6829 0.0183308 0 0.0148543 0 0)
(-50.7661 0.0125527 0 0.0169352 0 0)
(-50.8457 0.00759652 0 0.0191738 0 0)
(-50.922 0.00355037 0 0.0216323 0 0)
(-50.9946 0.00120409 0 0.024215 0 0)
(-51.0646 -0.000131308 0 0.0269277 0 0)
(-49.8466 0.0111461 0 0.0095811 0 0)
(-49.9065 0.0569668 0 0.00844031 0 0)
(-49.9719 0.08202 0 0.00632841 0 0)
(-50.0467 0.0919372 0 0.00545632 0 0)
(-50.1286 0.0958752 0 0.00537293 0 0)
(-50.2136 0.100244 0 0.00560773 0 0)
(-50.2982 0.105741 0 0.00592686 0 0)
(-50.3818 0.110319 0 0.00633935 0 0)
(-50.4647 0.112377 0 0.00692522 0 0)
(-50.5461 0.111701 0 0.00771484 0 0)
(-50.6256 0.109096 0 0.00869277 0 0)
(-50.7034 0.105376 0 0.00983974 0 0)
(-50.7812 0.101255 0 0.0111278 0 0)
(-50.8591 0.0969846 0 0.0125543 0 0)
(-50.938 0.0931161 0 0.0140735 0 0)
(-51.0164 0.0897531 0 0.0157376 0 0)
(-51.0951 0.0876462 0 0.0174804 0 0)
(-51.171 0.0865166 0 0.0193141 0 0)
(-50.1214 0.0443537 0 0.00882071 0 0)
(-50.1693 0.0628045 0 0.00612013 0 0)
(-50.2401 0.09032 0 0.00401202 0 0)
(-50.323 0.106854 0 0.00331543 0 0)
(-50.4069 0.113154 0 0.00320359 0 0)
(-50.4885 0.116021 0 0.00330459 0 0)
(-50.5672 0.118272 0 0.00350275 0 0)
(-50.6438 0.11893 0 0.00379559 0 0)
(-50.7197 0.117396 0 0.00419844 0 0)
(-50.7954 0.114349 0 0.00472308 0 0)
(-50.8707 0.111048 0 0.00537107 0 0)
(-50.9456 0.108244 0 0.00613669 0 0)
(-51.0202 0.106224 0 0.00700422 0 0)
(-51.095 0.104788 0 0.00796682 0 0)
(-51.1697 0.103919 0 0.00899216 0 0)
(-51.2448 0.103345 0 0.0101101 0 0)
(-51.319 0.103456 0 0.0112762 0 0)
(-51.393 0.103907 0 0.012494 0 0)
(-49.8104 0.0431997 0 0.00728664 0 0)
(-49.824 0.106295 0 0.00524397 0 0)
(-49.8954 0.137753 0 0.00347777 0 0)
(-49.9979 0.151919 0 0.00277662 0 0)
(-50.0928 0.159974 0 0.00252241 0 0)
(-50.1697 0.167605 0 0.00246969 0 0)
(-50.2363 0.175044 0 0.0025339 0 0)
(-50.3023 0.180364 0 0.00269237 0 0)
(-50.3727 0.18273 0 0.00293563 0 0)
(-50.448 0.182928 0 0.00325895 0 0)
(-50.5269 0.182212 0 0.00366279 0 0)
(-50.6077 0.181317 0 0.0041459 0 0)
(-50.6894 0.18061 0 0.00469859 0 0)
(-50.7707 0.180055 0 0.0053178 0 0)
(-50.8518 0.179833 0 0.0059769 0 0)
(-50.9316 0.179866 0 0.00670143 0 0)
(-51.0108 0.180561 0 0.00745926 0 0)
(-51.0877 0.181682 0 0.00823971 0 0)
(-50.0922 0.0168684 0 0.00722236 0 0)
(-50.2085 0.115809 0 0.00519254 0 0)
(-50.3461 0.136082 0 0.00352834 0 0)
(-50.4757 0.138322 0 0.00284253 0 0)
(-50.5832 0.143174 0 0.00257209 0 0)
(-50.6723 0.150698 0 0.0024774 0 0)
(-50.7534 0.157355 0 0.00244834 0 0)
(-50.8344 0.161919 0 0.00246121 0 0)
(-50.9184 0.164803 0 0.00253101 0 0)
(-51.0043 0.166825 0 0.00266838 0 0)
(-51.0909 0.168491 0 0.00286963 0 0)
(-51.1769 0.169982 0 0.00312313 0 0)
(-51.2617 0.171423 0 0.00342092 0 0)
(-51.3444 0.17285 0 0.00376214 0 0)
(-51.4256 0.174436 0 0.00412908 0 0)
(-51.5043 0.176132 0 0.00454443 0 0)
(-51.5823 0.178173 0 0.00498865 0 0)
(-51.6573 0.180348 0 0.00543966 0 0)
(-50.1489 0.0930795 0 0.00551787 0 0)
(-50.3286 0.180909 0 0.0030918 0 0)
(-50.493 0.210667 0 0.00176832 0 0)
(-50.6198 0.214829 0 0.00129124 0 0)
(-50.7195 0.21924 0 0.00105368 0 0)
(-50.81 0.227445 0 0.000897299 0 0)
(-50.9009 0.235095 0 0.000795245 0 0)
(-50.9919 0.240156 0 0.000745936 0 0)
(-51.0792 0.243284 0 0.000747749 0 0)
(-51.1603 0.245403 0 0.000797214 0 0)
(-51.2366 0.246885 0 0.000890344 0 0)
(-51.3106 0.247779 0 0.00102342 0 0)
(-51.3845 0.2482 0 0.00119158 0 0)
(-51.4587 0.248431 0 0.00139098 0 0)
(-51.5336 0.248888 0 0.00161091 0 0)
(-51.6081 0.249821 0 0.00186502 0 0)
(-51.6828 0.251476 0 0.00213604 0 0)
(-51.7556 0.253729 0 0.0024149 0 0)
(-50.2456 0.0972121 0 0.00503998 0 0)
(-50.4384 0.142383 0 0.00256816 0 0)
(-50.6478 0.164477 0 0.00141576 0 0)
(-50.8043 0.17243 0 0.000983868 0 0)
(-50.9146 0.18167 0 0.000773463 0 0)
(-51.0107 0.192098 0 0.000647401 0 0)
(-51.1099 0.199721 0 0.00056613 0 0)
(-51.2127 0.203812 0 0.000514027 0 0)
(-51.3144 0.205971 0 0.000486421 0 0)
(-51.4117 0.20792 0 0.000484034 0 0)
(-51.5049 0.210421 0 0.000504102 0 0)
(-51.5951 0.21375 0 0.000538894 0 0)
(-51.6845 0.217589 0 0.000585652 0 0)
(-51.7729 0.221823 0 0.000644647 0 0)
(-51.8614 0.225986 0 0.000717961 0 0)
(-51.9474 0.230236 0 0.000817208 0 0)
(-52.0328 0.234337 0 0.000936954 0 0)
(-52.1127 0.238729 0 0.00106188 0 0)
(-50.1348 0.181997 0 0.00317678 0 0)
(-50.5219 0.275099 0 0.000442811 0 0)
(-50.8654 0.268621 0 -0.000155513 0 0)
(-51.1029 0.26748 0 -0.000374388 0 0)
(-51.2566 0.275739 0 -0.000582747 0 0)
(-51.3601 0.283671 0 -0.000748062 0 0)
(-51.4303 0.289122 0 -0.00086944 0 0)
(-51.4747 0.292817 0 -0.000951669 0 0)
(-51.4973 0.295279 0 -0.000998766 0 0)
(-51.5028 0.29702 0 -0.00102086 0 0)
(-51.4933 0.298343 0 -0.00102531 0 0)
(-51.4725 0.299722 0 -0.00101837 0 0)
(-51.4389 0.301089 0 -0.000998996 0 0)
(-51.3965 0.302696 0 -0.000970613 0 0)
(-51.3414 0.304054 0 -0.000930229 0 0)
(-51.2814 0.305594 0 -0.000877461 0 0)
(-51.2078 0.3069 0 -0.000812366 0 0)
(-51.1357 0.308875 0 -0.000753687 0 0)
(-49.3311 0.136653 0 0.00241356 0 0)
(-47.7618 0.228386 0 0.000241864 0 0)
(-46.1665 0.21814 0 -4.34391e-05 0 0)
(-44.5574 0.210318 0 -0.000149984 0 0)
(-42.9968 0.207897 0 -0.000252128 0 0)
(-41.5196 0.203167 0 -0.000304697 0 0)
(-40.1344 0.195916 0 -0.000322776 0 0)
(-38.8373 0.188251 0 -0.000324516 0 0)
(-37.6193 0.181403 0 -0.000317604 0 0)
(-36.4734 0.175643 0 -0.000309222 0 0)
(-35.3923 0.170737 0 -0.000302588 0 0)
(-34.3732 0.166526 0 -0.000298527 0 0)
(-33.4078 0.162748 0 -0.000295271 0 0)
(-32.4969 0.159386 0 -0.000294264 0 0)
(-31.6291 0.156137 0 -0.00029227 0 0)
(-30.813 0.153184 0 -0.000284605 0 0)
(-30.0282 0.150271 0 -0.00027623 0 0)
(-29.2982 0.147951 0 -0.000278314 0 0)
(-0.0104499 0.0282658 -1.37894e-22 -0.0638754 2.8003e-22 4.12015e-39)
(-0.070039 0.030797 3.6246e-22 0.000801516 -1.7852e-22 4.05388e-39)
(-0.0242941 -0.0545902 0 0.0480226 0 0)
(0.205758 -0.154945 0 0.0597304 0 0)
(0.560727 -0.193644 0 0.030112 0 0)
(0.907568 -0.160143 -5.81019e-22 -0.00374163 -1.75949e-22 3.81267e-39)
(1.15381 -0.0793519 0 -0.0223366 0 0)
(1.26119 0.00233696 0 -0.0190654 0 0)
(1.26786 0.0462289 0 0.00407796 0 0)
(1.22613 0.0357831 0 0.0360031 0 0)
(1.19169 -0.0192381 -8.12e-24 0.0612936 2.4979e-22 3.51376e-39)
(1.22039 -0.0987309 0 0.0740128 0 0)
(1.36761 -0.201909 0 0.0826722 0 0)
(1.71557 -0.294077 0 0.0825147 0 0)
(2.24657 -0.330928 0 0.0748917 0 0)
(2.86348 -0.345614 -3.98022e-22 0.0684275 1.40969e-22 3.23618e-39)
(3.51195 -0.249739 0 0.0531414 0 0)
(3.97333 -0.04013 0 0.046078 0 0)
(4.25346 0.0918594 0 0.0574333 0 0)
(4.40462 0.144337 0 0.0720472 0 0)
(4.55748 0.135904 0 0.0874676 0 0)
(4.82464 0.0909024 0 0.106586 0 0)
(5.23476 0.0333988 0 0.116336 0 0)
(5.70608 -0.0553082 -1.0951e-21 0.10761 2.84013e-24 2.84446e-39)
(6.30374 -0.164862 1.15122e-21 0.121542 3.57145e-23 2.79876e-39)
(6.94889 -0.18457 -1.19087e-21 0.136404 -8.11519e-23 2.75362e-39)
(7.60684 -0.167524 -1.2251e-21 0.171232 -1.27086e-22 2.70899e-39)
(8.29792 -0.154129 0 0.205142 0 0)
(8.97506 -0.136205 0 0.183593 0 0)
(9.62991 -0.18549 1.39009e-21 0.200729 8.46211e-23 2.5747e-39)
(10.2925 -0.245447 1.52831e-21 0.200163 7.63737e-23 2.52952e-39)
(10.9851 -0.28292 0 0.19074 0 0)
(11.7275 -0.303284 0 0.183779 0 0)
(12.4659 -0.299547 2.21803e-21 0.18939 2.51133e-23 2.39767e-39)
(13.1548 -0.291416 0 0.207474 0 0)
(13.8174 -0.291401 0 0.241385 0 0)
(14.5165 -0.335327 -2.98208e-21 0.297169 -2.51835e-23 2.27161e-39)
(15.3219 -0.415534 0 0.325376 0 0)
(16.225 -0.489152 -3.51852e-21 0.308246 -4.91896e-23 2.19144e-39)
(17.0411 -0.450856 -7.52063e-21 0.254624 -6.66837e-23 8.6084e-39)
(17.4923 -0.27346 0 0.217763 0 0)
(17.5042 -0.0615782 0 0.219242 0 0)
(17.0129 0.0555469 0 0.252923 0 0)
(16.4786 -0.0541659 0 0.275757 0 0)
(16.1751 -0.211461 0 0.339175 0 0)
(16.2605 -0.572871 -9.37124e-21 0.317383 6.95472e-22 7.71406e-39)
(16.8513 -1.01759 -9.81412e-21 0.305372 9.04791e-22 7.56991e-39)
(17.4635 -1.08914 -1.01978e-20 0.365914 9.18951e-22 7.42803e-39)
(18.1893 -0.64926 0 0.23336 0 0)
(18.6233 -0.500717 1.14429e-20 0.299936 -6.84225e-22 7.15019e-39)
(19.4425 -0.502758 0 0.238495 0 0)
(20.4073 -0.481022 -1.31422e-20 0.228699 5.99127e-22 6.88432e-39)
(21.4901 -0.443613 -1.43191e-20 0.212612 5.79299e-22 6.75612e-39)
(22.5798 -0.455887 0 0.189456 0 0)
(23.7834 -0.479324 0 0.167237 0 0)
(24.8708 -0.633585 0 0.174415 0 0)
(26.0173 -0.562707 -2.02523e-20 0.175105 7.89011e-22 6.26874e-39)
(26.9698 -0.572686 0 0.252419 0 0)
(28.3935 -0.677832 0 0.204455 0 0)
(29.9818 -0.791205 0 0.177443 0 0)
(32.1315 -0.864245 0 0.149187 0 0)
(34.0438 -1.1732 0 0.166646 0 0)
(35.929 -0.97041 0 0.127956 0 0)
(36.8653 -0.622398 0 0.247275 0 0)
(37.8879 -0.638438 0 0.240153 0 0)
(39.0589 -0.637154 2.99188e-20 0.23904 -1.93693e-22 5.25402e-39)
(40.2844 -0.639415 0 0.229276 0 0)
(41.4738 -0.592844 0 0.220939 0 0)
(42.5051 -0.503973 -3.03241e-20 0.211985 2.89652e-22 4.93798e-39)
(43.237 -0.375268 -3.04284e-20 0.20456 1.675e-22 4.83624e-39)
(43.5748 -0.235031 0 0.200268 0 0)
(43.4312 -0.0851424 3.02809e-20 0.19998 8.25409e-24 4.63883e-39)
(42.8277 0.0765226 -2.98306e-20 0.210372 -1.44036e-22 4.54285e-39)
(41.7874 0.193453 0 0.221388 0 0)
(40.4004 0.268598 2.76377e-20 0.211257 3.42909e-22 4.35346e-39)
(38.6371 0.325858 0 0.197364 0 0)
(36.5466 0.350982 0 0.186237 0 0)
(34.0812 0.336684 -2.20774e-20 0.177429 -2.75746e-22 4.08272e-39)
(31.387 0.198941 0 0.158299 0 0)
(28.7808 0.158395 1.90267e-20 0.149484 -2.83752e-22 3.91154e-39)
(26.0897 0.281969 0 0.149786 0 0)
(23.2993 0.327349 -1.7134e-20 0.140594 8.82403e-23 3.7476e-39)
(20.808 0.301432 -1.63433e-20 0.136341 6.32684e-23 3.66827e-39)
(18.1948 0.228028 -1.54804e-20 0.138532 5.32473e-23 3.59049e-39)
(16.0817 -0.000584591 -2.94212e-20 0.138053 3.36926e-22 1.40555e-38)
(13.5676 -0.157143 2.75106e-20 0.180148 -5.0473e-22 1.37537e-38)
(10.9658 -0.174036 0 0.189301 0 0)
(7.15504 0.333641 0 0.244517 0 0)
(2.23095 1.24129 0 0.215934 0 0)
(-2.70933 1.06536 1.45298e-20 0.250864 1.2759e-21 1.25748e-38)
(-5.25576 0.534296 1.12102e-20 0.178967 5.50472e-22 1.22906e-38)
(-6.29275 0.16347 -9.44474e-21 0.134317 4.79031e-23 1.20151e-38)
(-6.24334 -0.098571 0 0.0986802 0 0)
(-5.44302 -0.271609 1.02104e-20 0.0751855 -8.38167e-22 1.14892e-38)
(-4.11811 -0.387249 1.20968e-20 0.0582423 -1.04672e-21 1.12378e-38)
(-2.45878 -0.454346 1.45336e-20 0.0462134 -1.15967e-21 1.09929e-38)
(-0.633591 -0.476735 0 0.0372284 0 0)
(1.2025 -0.460226 0 0.0307808 0 0)
(2.92142 -0.416364 0 0.0265381 0 0)
(4.42147 -0.359618 2.45674e-20 0.0244209 -9.53156e-22 1.00626e-38)
(5.64956 -0.296012 0 0.0244904 0 0)
(6.59434 -0.220404 0 0.0271091 0 0)
(7.28682 -0.140894 -2.83197e-20 0.0322615 5.22369e-22 9.40146e-39)
(7.80798 -0.0850895 0 0.0385995 0 0)
(8.3064 -0.0761746 0 0.0435244 0 0)
(8.92061 -0.10427 -2.86334e-20 0.0456288 3.88593e-22 8.76466e-39)
(9.72469 -0.149127 0 0.0456641 0 0)
(10.7485 -0.199164 0 0.044495 0 0)
(11.9961 -0.248694 2.88848e-20 0.0425176 -5.18337e-22 8.1596e-39)
(13.4549 -0.293396 2.94159e-20 0.0395942 -5.60768e-22 7.96635e-39)
(15.0931 -0.328046 0 0.0353717 0 0)
(16.8515 -0.346229 -3.11687e-20 0.0298161 5.8256e-22 7.59236e-39)
(18.6405 -0.342467 0 0.0234538 0 0)
(20.3568 -0.315684 3.30848e-20 0.0170784 -4.73018e-22 7.23262e-39)
(21.8939 -0.269963 0 0.0113366 0 0)
(23.1601 -0.206741 3.37333e-20 0.00670649 -2.52524e-22 6.88106e-39)
(24.0921 -0.132893 3.31913e-20 0.00328688 -1.2355e-22 6.70799e-39)
(24.6422 -0.0544104 0 0.00103022 0 0)
(24.785 0.0241901 0 -0.000237241 0 0)
(24.5167 0.100619 0 -0.000739027 0 0)
(23.8506 0.173014 0 -0.000660504 0 0)
(22.8029 0.238451 0 -0.000125247 0 0)
(21.4196 0.293852 0 0.000816271 0 0)
(19.7546 0.336466 0 0.00191261 0 0)
(17.8772 0.365362 7.83041e-21 0.00303934 3.92676e-22 5.40797e-39)
(15.8558 0.380592 -3.95461e-21 0.00407637 -3.59692e-22 5.25907e-39)
(13.7562 0.383866 0 0.004942 0 0)
(11.6345 0.377447 0 0.00562119 0 0)
(9.53851 0.363509 0 0.00611803 0 0)
(7.50704 0.343536 0 0.00643719 0 0)
(5.5708 0.318955 1.7812e-20 0.00657999 -2.52097e-22 1.82994e-38)
(3.75449 0.290626 0 0.00654469 0 0)
(2.07723 0.259785 -2.19614e-20 0.00634611 1.18867e-22 1.72965e-38)
(0.552577 0.227374 2.30531e-20 0.00600052 -7.27597e-23 1.68109e-38)
(-0.805682 0.195391 0 0.00558529 0 0)
(-1.99411 0.165719 0 0.00520884 0 0)
(-3.02546 0.136796 0 0.00478096 0 0)
(-3.9072 0.110211 -2.35702e-20 0.00439487 -1.31655e-23 1.49536e-38)
(-4.64805 0.0863078 -2.32158e-20 0.00407756 -2.21253e-23 1.45132e-38)
(-5.25932 0.065159 0 0.00384363 0 0)
(-5.75291 0.0466501 -2.23388e-20 0.00369973 -3.29295e-23 1.36612e-38)
(-6.14018 0.03055 -2.18714e-20 0.00364578 -3.99183e-23 1.32494e-38)
(-6.43175 0.0165158 2.14022e-20 0.0036762 4.82029e-23 1.28466e-38)
(-6.63673 0.00419313 0 0.003785 0 0)
(-6.76309 -0.00674984 0 0.00396849 0 0)
(-6.81692 -0.0165246 2.00453e-20 0.0042291 7.55572e-23 1.16914e-38)
(-6.80434 -0.0253155 0 0.00457817 0 0)
(-6.72805 -0.0332119 0 0.0050345 0 0)
(-6.59272 -0.039793 0 0.00561941 0 0)
(-6.40407 -0.0447012 0 0.00633729 0 0)
(-6.16726 -0.0481154 -1.79361e-20 0.00718711 -1.3956e-22 9.93052e-39)
(-5.88567 -0.0502727 -1.7456e-20 0.00819147 -1.58829e-22 9.60161e-39)
(-5.56189 -0.0507995 0 0.0093985 0 0)
(-5.19898 -0.0489779 -1.63034e-20 0.0108867 -2.29469e-22 8.96593e-39)
(-4.79943 -0.0440812 0 0.0128573 0 0)
(-4.36479 -0.0352754 0 0.0156671 0 0)
(-3.89392 -0.0225881 -1.36511e-20 0.0195277 -2.77152e-22 8.06713e-39)
(-3.38087 -0.00618605 0 0.0239538 0 0)
(-2.82605 0.016382 -1.13713e-20 0.0278708 -1.71502e-22 7.50359e-39)
(-2.2684 0.0437869 0 0.0297289 0 0)
(-1.77154 0.0634765 0 0.0280559 0 0)
(-1.39577 0.0581263 -8.5552e-21 0.023975 3.13749e-23 6.70752e-39)
(-1.16196 0.0242645 0 0.0209912 0 0)
(-0.959123 -0.0334411 -7.5238e-21 0.0203748 -1.83711e-22 6.20727e-39)
(-0.673971 -0.0635537 0 0.0192857 0 0)
(-0.333503 -0.0607495 0 0.0161421 0 0)
(0.0387867 -0.0453808 0 0.0141233 0 0)
(0.422605 -0.0162354 4.88613e-21 0.0136764 6.71798e-23 5.28029e-39)
(0.741101 0.010982 0 0.0145432 0 0)
(0.958363 0.0256992 -3.79357e-21 0.0152701 -3.03287e-24 4.8522e-39)
(1.09084 0.0275156 0 0.0148967 0 0)
(1.17283 0.0167754 0 0.0139315 0 0)
(1.25157 0.000806903 0 0.0137237 0 0)
(1.39017 -0.0120948 0 0.0142748 0 0)
(1.57114 -0.00866891 0 0.0137464 0 0)
(1.75865 0.00669905 0 0.0129291 0 0)
(1.89261 0.0197494 0 0.0116524 0 0)
(2.00483 0.0201042 8.30561e-22 0.00961502 3.84142e-23 1.34431e-38)
(1.97969 0.0282074 0 0.00763601 0 0)
(1.96981 0.0753885 0 0.00914323 0 0)
(0.00623448 -0.00584413 1.12455e-23 -0.204415 -2.05664e-21 3.7073e-38)
(0.0474054 -0.0907732 -3.28267e-23 0.121183 1.83479e-21 3.65418e-38)
(0.17827 -0.275601 0 0.475954 0 0)
(0.358563 -0.387077 -8.74925e-23 0.547275 -5.06826e-22 1.57376e-38)
(0.507168 -0.301127 0 0.310036 0 0)
(0.578859 -0.096766 -2.65875e-22 0.0657336 2.47998e-22 3.79911e-39)