/*--------------------------------*- C++ -*----------------------------------*\
  =========                 |
  \\      /  F ield         | OpenFOAM: The Open Source CFD Toolbox
   \\    /   O peration     | Website:  https://openfoam.org
    \\  /    A nd           | Version:  9
     \\/     M anipulation  |
\*---------------------------------------------------------------------------*/
FoamFile
{
    format      ascii;
    class       volScalarField;
    location    "0.11";
    object      p;
}
// * * * * * * * * * * * * * * * * * * * * * * * * * * * * * * * * * * * * * //

dimensions      [0 2 -2 0 0 0 0];

internalField   nonuniform List<scalar> 
12225
(
4.27507
3.05837
2.43947
2.23146
2.03651
1.80044
1.56174
1.33116
1.09993
0.859641
0.605814
0.334858
0.0421534
-0.279058
-0.643337
-1.07162
-1.59824
-2.22674
3.13692
2.49171
2.21147
2.1076
1.96501
1.76475
1.54828
1.33169
1.11006
0.876619
0.62784
0.360798
0.0707009
-0.250791
-0.618919
-1.0463
-1.57127
-2.24423
3.03566
2.77339
2.45748
2.24417
2.05335
1.83557
1.60735
1.38186
1.1546
0.917956
0.667498
0.399938
0.110276
-0.210024
-0.573923
-0.993691
-1.50549
-2.16157
2.95883
2.74309
2.39436
2.16548
1.99328
1.79883
1.58607
1.371
1.15254
0.923991
0.68097
0.42045
0.138322
-0.172621
-0.522932
-0.924737
-1.40254
-1.97812
2.86703
2.67922
2.37745
2.16729
2.00509
1.81951
1.61217
1.4003
1.18505
0.960407
0.722055
0.466949
0.191335
-0.11031
-0.44572
-0.823852
-1.25563
-1.7407
2.78011
2.62914
2.37823
2.17479
2.00823
1.82594
1.62457
1.41775
1.20742
0.988355
0.756485
0.509195
0.243392
-0.0449518
-0.360727
-0.708173
-1.08803
-1.48823
2.70407
2.58495
2.37265
2.17557
2.00807
1.83313
1.64153
1.44242
1.23878
1.02693
0.803317
0.565776
0.31211
0.0398833
-0.253027
-0.566646
-0.895395
-1.22184
2.63822
2.54288
2.36198
2.17654
2.01261
1.84554
1.6635
1.47228
1.27575
1.0718
0.85749
0.63111
0.391451
0.137583
-0.130318
-0.409291
-0.690633
-0.956359
2.58163
2.50411
2.35015
2.17944
2.02123
1.86145
1.68882
1.50651
1.31848
1.12393
0.920595
0.707287
0.483686
0.250149
0.00849928
-0.236622
-0.475808
-0.693328
2.53397
2.47018
2.3391
2.18403
2.03328
1.88115
1.7184
1.54622
1.36811
1.18426
0.993288
0.794547
0.588458
0.376349
0.161011
-0.0523617
-0.255219
-0.435272
2.49516
2.44215
2.33029
2.19082
2.04924
1.90559
1.75321
1.59206
1.42506
1.25315
1.07581
0.892962
0.705541
0.515468
0.32591
0.141797
-0.0299434
-0.180538
2.46777
2.42252
2.32548
2.19991
2.068
1.93296
1.7905
1.64017
1.48439
1.32454
1.16078
0.993476
0.823864
0.654087
0.48725
0.32763
0.180513
0.0519828
2.44776
2.40881
2.32448
2.21212
2.09051
1.96468
1.83245
1.69342
1.54956
1.40252
1.25301
1.10175
0.950152
0.800361
0.655196
0.518132
0.392943
0.283578
2.4344
2.4014
2.32952
2.23124
2.12189
2.0074
1.88743
1.76194
1.63259
1.50116
1.36877
1.23645
1.10566
0.978354
0.856863
0.743724
0.641292
0.551769
2.43207
2.40459
2.34462
2.261
2.16577
2.06493
1.95954
1.85007
1.73806
1.62526
1.51306
1.40266
1.29545
1.19303
1.09713
1.0094
0.93108
0.863206
2.44612
2.42391
2.37532
2.30659
2.22701
2.14209
2.05371
1.96287
1.87107
1.77998
1.69104
1.60548
1.52448
1.44926
1.38097
1.32055
1.26857
1.22542
2.48361
2.46639
2.42853
2.37458
2.31168
2.24459
2.1755
2.10578
2.03689
1.97035
1.90749
1.84942
1.79708
1.75131
1.71282
1.6821
1.65937
1.64475
2.55283
2.5402
2.51225
2.47242
2.42634
2.37807
2.3298
2.28297
2.23892
2.19898
2.16426
2.13563
2.11378
2.09925
2.09243
2.09353
2.10262
2.11965
2.66281
2.65435
2.63503
2.60777
2.57748
2.54778
2.52062
2.49725
2.47878
2.46628
2.46059
2.46229
2.47178
2.48931
2.51501
2.54887
2.59084
2.64065
2.78811
2.78114
2.7653
2.7441
2.72293
2.70539
2.69298
2.68641
2.6865
2.69411
2.70987
2.73409
2.76689
2.80829
2.85823
2.91652
2.98294
3.05709
2.89721
2.88955
2.87277
2.85203
2.83419
2.82294
2.81895
2.82239
2.83394
2.85432
2.88384
2.92251
2.97023
3.02687
3.09221
3.16592
3.24765
3.33682
3.00049
2.99014
2.96827
2.94357
2.9258
2.91803
2.91903
2.92837
2.94714
2.97616
3.01541
3.0645
3.12309
3.19088
3.2675
3.35249
3.44541
3.54562
3.09886
3.08351
3.05185
3.01869
2.99875
2.99329
2.99766
3.01064
3.03384
3.06828
3.11365
3.16936
3.23497
3.3101
3.39424
3.48677
3.58708
3.69429
3.19395
3.17033
3.12414
3.07961
3.05569
3.05003
3.05543
3.07105
3.09868
3.13847
3.18942
3.25079
3.32219
3.40321
3.49322
3.59153
3.69755
3.81055
3.28823
3.25009
3.18208
3.12915
3.10583
3.09798
3.09833
3.11088
3.13867
3.18043
3.2341
3.29873
3.37388
3.45899
3.55326
3.65585
3.76593
3.88234
3.38511
3.32691
3.21666
3.15452
3.14486
3.1464
3.14841
3.16109
3.18984
3.23287
3.28779
3.35382
3.43067
3.51772
3.61407
3.71875
3.83099
3.94997
3.48152
3.42123
3.24933
3.14655
3.12687
3.12768
3.13163
3.14845
3.18207
3.22967
3.28886
3.35905
3.44003
3.53112
3.63143
3.73992
3.85552
3.97632
3.54989
3.51812
3.38562
3.29232
3.25099
3.22441
3.21009
3.21628
3.24233
3.28379
3.33821
3.40494
3.48342
3.57277
3.67197
3.77993
3.89535
4.0157
3.5996
3.19682
3.08213
3.11805
3.14444
3.14309
3.14612
3.16807
3.20659
3.25759
3.31993
3.39368
3.47854
3.5738
3.67864
3.79232
3.9138
4.04177
4.71714
3.81222
3.34507
3.2751
3.25543
3.21932
3.19963
3.20759
3.23621
3.27948
3.33569
3.40453
3.48537
3.57725
3.67926
3.79073
3.91089
4.0404
-1.28388
-1.39178
-1.55485
-1.73998
-1.92474
-2.09813
-2.26484
-2.4249
-2.56185
-2.68088
-2.78433
-2.87005
-2.93235
-2.96316
-2.95258
-2.88834
-2.75505
-2.53387
-2.20314
-1.73976
-1.1214
-0.326919
0.663766
1.88277
3.34807
5.04447
6.94777
9.02495
11.2329
13.5202
15.8306
18.1042
20.2821
22.3092
24.1239
25.6577
26.8551
27.6767
28.0974
28.1145
27.7549
27.1048
26.3805
25.8513
25.2053
24.2969
23.1099
21.7352
20.3541
19.1355
18.1334
17.2482
16.2853
15.0653
13.5584
11.9187
10.4243
9.41872
9.07985
9.64307
10.6766
11.9309
12.8214
13.0642
12.8465
12.4796
12.0944
11.7827
11.6446
11.6297
11.5467
11.1954
10.4788
9.36993
7.7723
5.4911
2.33678
-1.76832
-6.63786
-11.9648
-17.4262
-22.7402
-27.6897
-32.1242
-35.948
-39.1078
-41.581
-43.3669
-44.4686
-44.8809
-44.5934
-43.6022
-41.9718
-39.7496
-36.9803
-33.7113
-29.9946
-25.888
-21.4558
-16.7694
-11.9069
-6.95315
-1.99784
2.86697
7.55017
11.9656
16.0364
19.6998
22.911
25.6463
27.9041
29.706
31.0828
32.0563
32.6651
32.9614
32.9972
32.8232
32.4869
32.0312
31.4937
30.9067
30.2968
29.686
29.0919
28.5295
28.0199
27.5544
27.1055
26.6742
26.2554
25.8452
25.4418
25.052
24.6904
24.3638
24.0869
23.9154
23.8161
23.7224
23.6424
23.5766
23.5216
23.4773
23.4445
23.4238
23.416
23.4211
23.4385
23.4679
23.5165
23.5971
23.7372
23.9116
24.0226
23.8977
23.2114
21.4057
18.1963
14.0367
9.70476
5.91598
3.08352
1.39035
0.909386
1.56295
3.37188
6.15258
9.64774
13.5004
17.3016
20.6835
23.4058
25.3531
26.5364
27.0962
27.2274
27.1242
26.9963
27.0175
-1.38352
-1.55654
-1.78976
-1.98027
-2.11908
-2.23793
-2.35579
-2.45981
-2.56802
-2.68306
-2.80765
-2.94123
-3.07729
-3.20442
-3.30766
-3.36876
-3.36549
-3.27087
-3.05386
-2.68114
-2.11996
-1.34217
-0.328314
0.918953
2.39104
4.08221
5.97334
8.03359
10.2225
12.4921
14.7887
17.0533
19.2221
21.2266
23.0081
24.5243
25.7275
26.5696
27.0237
27.0819
26.764
26.1256
25.223
24.1034
23.1922
22.5111
21.7406
20.6995
19.6149
18.7578
18.1195
17.443
16.4623
15.0613
13.2732
11.2986
9.48393
8.19122
7.74801
8.25334
9.44861
10.9241
12.0947
12.5913
12.4869
12.1185
11.814
11.689
11.6559
11.6136
11.5176
11.287
10.6857
9.48908
7.56545
4.81103
1.06419
-3.61576
-8.94184
-14.5554
-20.1277
-25.4076
-30.2238
-34.4683
-38.0762
-41.0104
-43.2515
-44.7919
-45.6405
-45.8223
-45.3675
-44.3115
-42.6525
-40.4167
-37.6416
-34.371
-30.6551
-26.5501
-22.1186
-17.4303
-12.562
-7.59722
-2.6249
2.2631
6.97544
11.4255
15.5358
19.243
22.5015
25.2856
27.5899
29.4274
30.8329
31.8301
32.4626
32.7816
32.8388
32.6845
32.366
31.9262
31.4026
30.8275
30.2276
29.6246
29.0354
28.4724
27.9335
27.4262
26.9628
26.542
26.1442
25.7623
25.3903
25.0292
24.6911
24.3996
24.172
23.9826
23.8306
23.7268
23.6481
23.5834
23.5289
23.4842
23.4501
23.4279
23.4191
23.4239
23.442
23.4719
23.5141
23.5908
23.7333
23.9115
23.9952
23.9009
23.3252
21.4352
17.9309
13.4663
9.02446
5.27572
2.53376
0.928857
0.484403
1.21376
3.01741
5.78428
9.2744
13.1385
16.9687
20.3924
23.1518
25.127
26.3366
26.922
27.0757
26.9869
26.8428
26.7294
-1.63131
-1.74855
-1.8811
-1.98892
-2.10363
-2.2643
-2.44786
-2.64231
-2.85274
-3.08818
-3.35518
-3.65385
-3.97476
-4.29916
-4.60116
-4.85012
-5.01292
-5.05588
-4.94627
-4.65334
-4.14922
-3.41133
-2.4258
-1.18956
0.289345
1.99503
3.902
5.9755
8.17294
10.4457
12.7408
15.0019
17.1703
19.1867
20.9941
22.5396
23.7859
24.7031
25.2613
25.446
25.2709
24.778
24.0338
23.1142
22.0943
20.9475
19.7639
18.7247
17.8979
17.2675
16.7227
16.0976
15.207
13.8948
12.1516
10.197
8.40601
7.15223
6.67156
7.07855
8.27655
9.86066
11.1994
11.8332
11.8027
11.4946
11.2779
11.3054
11.4898
11.5736
11.3695
10.7051
9.38278
7.15215
3.95966
-0.0129283
-4.56675
-9.48575
-14.5572
-19.598
-24.4618
-29.0342
-33.2245
-36.9588
-40.1777
-42.8333
-44.8872
-46.3086
-47.0801
-47.2066
-46.701
-45.5872
-43.8828
-41.6136
-38.8138
-35.5245
-31.7933
-27.674
-23.2268
-18.5189
-13.6248
-8.62616
-3.61107
1.32838
6.09953
10.6138
14.7918
18.568
21.8947
24.7445
27.1124
28.9942
30.4522
31.4925
32.1638
32.5173
32.6049
32.4774
32.1823
31.7628
31.2569
30.6968
30.1095
29.5166
28.9344
28.375
27.8468
27.3563
26.9021
26.4701
26.065
25.6801
25.3132
24.9691
24.656
24.3819
24.1503
23.9594
23.8166
23.7137
23.6304
23.5609
23.5046
23.4607
23.4293
23.4111
23.4065
23.4153
23.4371
23.4712
23.5208
23.6072
23.7582
23.9515
24.0712
23.9643
23.2082
20.8126
16.7511
12.1612
7.94502
4.46125
1.89667
0.378727
-0.0324629
0.68133
2.47297
5.22812
8.72023
12.6062
16.4787
19.956
22.7654
24.7818
26.0285
26.6465
26.8266
26.7514
26.5834
26.3709
-1.88459
-1.9168
-1.96843
-2.06452
-2.22748
-2.46748
-2.77578
-3.15113
-3.59447
-4.10117
-4.66147
-5.26047
-5.87696
-6.48332
-7.04688
-7.53166
-7.90024
-8.11556
-8.14235
-7.94852
-7.50692
-6.79916
-5.81527
-4.55724
-3.03706
-1.27654
0.692485
2.82945
5.08693
7.41281
9.75242
12.0505
14.2527
16.3073
18.1656
19.7828
21.1193
22.1451
22.842
23.195
23.1992
22.8734
22.2557
21.4053
20.3897
19.2629
18.0543
16.8015
15.6552
14.7535
14.0853
13.5223
12.8655
11.9365
10.6922
9.27126
7.94839
7.02892
6.73845
7.16744
8.2653
9.69228
10.8447
11.275
11.0842
10.7555
10.6538
10.8156
10.9673
10.7217
9.75581
7.89286
5.15978
1.71736
-2.23348
-6.49032
-10.9159
-15.4216
-19.9383
-24.3961
-28.7156
-32.8104
-36.5935
-39.9848
-42.9157
-45.3301
-47.1842
-48.4443
-49.0898
-49.1227
-48.5421
-47.362
-45.6016
-43.287
-40.4508
-37.1321
-33.376
-29.2332
-24.7606
-20.0218
-15.0878
-10.0378
-4.95845
0.0580076
4.91702
9.52682
13.8041
17.6792
21.1002
24.0361
26.4813
28.4464
29.9639
31.0599
31.7806
32.1773
32.3026
32.208
31.9414
31.5467
31.0622
30.5206
29.9491
29.3695
28.7985
28.2485
27.7266
27.2357
26.7771
26.3491
25.951
25.5772
25.2265
24.901
24.6044
24.3421
24.1202
23.939
23.7956
23.6827
23.5915
23.5182
23.4608
23.4174
23.3877
23.3717
23.3701
23.3833
23.4125
23.4593
23.5275
23.6316
23.7961
24.0049
24.1273
23.9287
22.6899
19.5785
15.1657
10.7627
6.84175
3.57215
1.13083
-0.324692
-0.709628
0.000122528
1.7827
4.53195
8.03635
11.9562
15.8846
19.4255
22.2932
24.3551
25.6394
26.2902
26.4969
26.4357
26.2505
25.9787
-2.27137
-2.27096
-2.3134
-2.43615
-2.68688
-3.08961
-3.62993
-4.29475
-5.0703
-5.93794
-6.87411
-7.85045
-8.83432
-9.78935
-10.6762
-11.4534
-12.0787
-12.5106
-12.7094
-12.6397
-12.2726
-11.5915
-10.5964
-9.29005
-7.68957
-5.82411
-3.73364
-1.46696
0.920944
3.37177
5.82672
8.22899
10.5259
12.67
14.62
16.3401
17.7992
18.9705
19.8332
20.3777
20.5968
20.4909
20.077
19.3858
18.4613
17.3559
16.1283
14.8465
13.577
12.4234
11.5173
10.8809
10.4093
9.95451
9.41976
8.82449
8.30466
8.04363
8.19069
8.78945
9.77942
10.8678
11.5565
11.5286
11.0436
10.5703
10.3611
10.2335
9.71785
8.42204
6.2144
3.22734
-0.306249
-4.15864
-8.18055
-12.2935
-16.4654
-20.6713
-24.8714
-29.0064
-33.0024
-36.7796
-40.2594
-43.3696
-46.0473
-48.2388
-49.9006
-50.9977
-51.5069
-51.4323
-50.762
-49.5067
-47.6839
-45.3183
-42.4414
-39.0906
-35.3086
-31.1429
-26.6461
-21.8771
-16.9024
-11.7968
-6.64474
-1.5382
3.42631
8.15303
12.5533
16.5515
20.0905
23.1368
25.6846
27.7466
29.3429
30.5093
31.292
31.743
31.9158
31.8624
31.632
31.2686
30.8113
30.2933
29.742
29.1796
28.6231
28.0846
27.5718
27.0895
26.6401
26.2219
25.8319
25.4684
25.1305
24.819
24.5369
24.2883
24.0761
23.8987
23.7536
23.6377
23.545
23.4705
23.4118
23.3673
23.3367
23.3203
23.3189
23.3338
23.3672
23.4225
23.5041
23.6226
23.7959
24.0044
24.1074
23.7155
21.9122
18.241
13.7278
9.51306
5.77727
2.63832
0.288659
-1.10813
-1.46537
-0.755465
1.01645
3.75653
7.27301
11.2267
15.2108
18.8164
21.7399
23.845
25.1659
25.8504
26.0866
26.0445
25.8531
25.5492
-3.1432
-3.15891
-3.25618
-3.47622
-3.89239
-4.52165
-5.34688
-6.3476
-7.49712
-8.76459
-10.1158
-11.513
-12.9151
-14.2777
-15.5531
-16.6912
-17.6409
-18.352
-18.7764
-18.8714
-18.6046
-17.9609
-16.9403
-15.5496
-13.8127
-11.7683
-9.46768
-6.97199
-4.34813
-1.66495
1.01054
3.61637
6.09796
8.40954
10.5145
12.3845
13.9977
15.3364
16.3853
17.1318
17.5704
17.6934
17.5015
17.0056
16.2317
15.2233
14.0414
12.7626
11.4717
10.2513
9.19615
8.43095
8.0316
7.96714
8.14608
8.48846
8.96849
9.60042
10.4024
11.3577
12.3379
13.102
13.2915
12.7699
11.979
11.1417
10.3815
9.31995
7.57848
5.05395
1.87681
-1.72946
-5.5698
-9.51982
-13.5228
-17.5577
-21.6115
-25.6594
-29.6604
-33.5602
-37.297
-40.8063
-44.024
-46.8891
-49.345
-51.3406
-52.8314
-53.782
-54.1728
-53.9857
-53.2236
-51.8912
-50.004
-47.5858
-44.6677
-41.286
-37.4814
-33.2982
-28.7847
-23.994
-18.9862
-13.8307
-8.60794
-3.40856
1.6692
6.52489
11.063
15.2005
18.8747
22.0523
24.723
26.8929
28.584
29.8342
30.6908
31.2067
31.4364
31.4331
31.2463
30.9212
30.4973
30.0084
29.4825
28.942
28.4043
27.8819
27.3834
26.9137
26.4749
26.0666
25.6876
25.3368
25.0132
24.7171
24.4503
24.2148
24.0116
23.8399
23.6983
23.5835
23.4905
23.4151
23.3553
23.3098
23.2783
23.2607
23.258
23.2716
23.304
23.3595
23.4431
23.5623
23.7268
23.9117
23.9562
23.3403
21.094
17.0786
12.5319
8.41601
4.78463
1.73551
-0.538695
-1.8831
-2.21587
-1.507
0.249933
2.97191
6.49294
10.468
14.4986
18.1567
21.124
23.2643
24.6177
25.3358
25.6047
25.5881
25.4027
25.0889
-4.72657
-4.79155
-4.98952
-5.37006
-6.00959
-6.90595
-8.04145
-9.39445
-10.9343
-12.6252
-14.4275
-16.2977
-18.1875
-20.0431
-21.8051
-23.4097
-24.7903
-25.8809
-26.6184
-26.947
-26.8259
-26.2373
-25.1768
-23.654
-21.7016
-19.3717
-16.7323
-13.8626
-10.8481
-7.77485
-4.72421
-1.76894
1.02979
3.62417
5.97997
8.07497
9.89604
11.4356
12.6881
13.6469
14.3061
14.6595
14.6981
14.4192
13.8326
12.9686
11.8822
10.6519
9.36952
8.13036
7.02768
6.17946
5.74937
5.87612
6.57335
7.73608
9.19808
10.7911
12.3651
13.782
14.8952
15.5018
15.3888
14.6444
13.3747
11.9174
10.1692
7.82755
4.85139
1.36565
-2.43964
-6.39886
-10.4129
-14.4377
-18.4583
-22.4648
-26.4415
-30.3625
-34.1929
-37.8906
-41.4089
-44.6969
-47.7015
-50.3687
-52.6455
-54.4813
-55.8307
-56.6562
-56.9341
-56.653
-55.8056
-54.3977
-52.4451
-49.9725
-47.0115
-43.5989
-39.7745
-35.5802
-31.0599
-26.2603
-21.234
-16.043
-10.7616
-5.47757
-0.290079
4.69513
9.37506
13.659
17.481
20.8025
23.6059
25.8946
27.692
29.0366
29.977
30.567
30.8622
30.9167
30.7811
30.5011
30.117
29.663
29.1678
28.6543
28.1402
27.6385
27.1583
26.7048
26.2809
25.8871
25.5229
25.1872
24.8792
24.5988
24.3469
24.1242
23.9312
23.7672
23.6302
23.5174
23.4249
23.3497
23.2899
23.244
23.2116
23.1925
23.1875
23.1978
23.2258
23.275
23.3492
23.4523
23.5868
23.7219
23.6772
22.8576
20.3261
16.1181
11.5556
7.48565
3.91739
0.937633
-1.27323
-2.57306
-2.88604
-2.18275
-0.447592
2.25085
5.75138
9.73848
13.7958
17.483
20.474
22.6352
24.0135
24.7636
25.0677
25.0827
24.9148
24.6081
-7.01901
-7.15355
-7.48671
-8.0647
-8.95209
-10.1366
-11.6039
-13.3331
-15.2952
-17.4564
-19.7776
-22.2126
-24.7057
-27.1899
-29.5873
-31.811
-33.7696
-35.3718
-36.5317
-37.1744
-37.2467
-36.7242
-35.5955
-33.8734
-31.6023
-28.8519
-25.7124
-22.2883
-18.6906
-15.0298
-11.4089
-7.91805
-4.63139
-1.6039
1.12945
3.5513
5.65734
7.45083
8.9375
10.1219
11.0044
11.5836
11.849
11.7907
11.4071
10.7147
9.75736
8.60982
7.37007
6.14429
5.03992
4.17074
3.69987
3.85611
4.78524
6.45257
8.63734
11.0263
13.2989
15.1794
16.4722
17.0457
16.8233
15.8473
14.201
12.0103
9.14447
5.68056
1.7981
-2.31249
-6.50135
-10.6826
-14.8227
-18.9135
-22.9516
-26.9291
-30.8314
-34.6386
-38.3263
-41.8649
-45.2186
-48.3455
-51.1979
-53.7247
-55.8735
-57.5927
-58.8352
-59.5615
-59.7463
-59.3791
-58.4498
-56.9649
-54.9419
-52.4078
-49.3964
-45.9466
-42.0991
-37.8946
-33.3734
-28.5758
-23.5461
-18.3368
-13.0144
-7.66168
-2.37765
2.72652
7.54196
11.9721
15.9456
19.4133
22.353
24.7664
26.6766
28.1226
29.1538
29.8251
30.193
30.3123
30.2344
30.006
29.6677
29.2546
28.7956
28.3142
27.8287
27.3525
26.895
26.4622
26.0574
25.6818
25.3351
25.0167
24.7259
24.4622
24.2258
24.0169
23.8351
23.6795
23.5483
23.4389
23.3487
23.2748
23.2154
23.1693
23.1358
23.1148
23.1066
23.1121
23.133
23.1711
23.2278
23.3027
23.3912
23.4566
23.3048
22.3204
19.6321
15.3585
10.8114
6.76416
3.23458
0.30643
-1.8549
-3.12043
-3.41967
-2.72582
-1.01718
1.64811
5.11914
9.09459
13.1493
16.8343
19.8217
21.9846
23.3773
24.1555
24.4962
24.5474
24.4059
24.1182
-9.82982
-10.0868
-10.5656
-11.3515
-12.4942
-13.9813
-15.8048
-17.9483
-20.3899
-23.1025
-26.0504
-29.1837
-32.4343
-35.7132
-38.9124
-41.9104
-44.5808
-46.8011
-48.4595
-49.4573
-49.7272
-49.2453
-47.994
-45.9936
-43.3027
-40.0101
-36.2301
-32.0945
-27.7433
-23.315
-18.9382
-14.7268
-10.7752
-7.15334
-3.90292
-1.03906
1.44263
3.5571
5.32333
6.75914
7.87707
8.68166
9.16737
9.32443
9.1451
8.6345
7.8238
6.7796
5.60216
4.41037
3.32521
2.4749
2.01154
2.15146
3.11498
4.95759
7.49027
10.3348
13.0457
15.2318
16.6549
17.2368
16.9781
15.8663
13.8204
10.8847
7.18538
3.011
-1.38811
-5.83489
-10.2336
-14.5482
-18.7719
-22.9051
-26.9453
-30.8867
-34.7213
-38.4388
-42.0251
-45.4592
-48.7116
-51.7432
-54.5074
-56.952
-59.023
-60.6671
-61.8348
-62.4849
-62.5927
-62.1463
-61.1357
-59.5691
-57.467
-54.8597
-51.785
-48.2852
-44.4036
-40.1819
-35.6578
-30.8664
-25.8432
-20.6304
-15.2848
-9.88359
-4.52282
0.682103
5.62013
10.1883
14.3046
17.9132
20.9865
23.5244
25.549
27.0995
28.2257
28.9832
29.429
29.619
29.6049
29.4339
29.1475
28.7809
28.3637
27.9199
27.4681
27.0223
26.5923
26.1847
25.8031
25.4492
25.1232
24.8248
24.5532
24.3077
24.0879
23.8936
23.724
23.5779
23.4538
23.3494
23.2624
23.1905
23.132
23.0857
23.051
23.0274
23.0151
23.0143
23.0257
23.0493
23.0835
23.123
23.1569
23.1419
22.8804
21.7807
19.05
14.8244
10.3231
6.28566
2.77993
-0.108311
-2.23086
-3.47122
-3.76385
-3.08361
-1.40587
1.21819
4.6464
8.58414
12.6015
16.247
19.1987
21.3406
22.7345
23.5351
23.9112
24.0008
23.8917
23.6302
-12.8808
-13.2523
-13.8802
-14.8786
-16.2816
-18.0881
-20.2985
-22.9055
-25.8982
-29.2576
-32.9486
-36.9106
-41.0515
-45.2468
-49.3464
-53.1869
-56.6054
-59.4497
-61.5851
-62.8922
-63.2959
-62.7978
-61.3727
-59.0494
-55.8958
-52.0148
-47.541
-42.6323
-37.4562
-32.1757
-26.9413
-21.8904
-17.144
-12.7983
-8.91177
-5.50325
-2.56166
-0.0604252
2.0344
3.75533
5.12659
6.16146
6.86397
7.23037
7.25223
6.92703
6.27367
5.34761
4.24686
3.10148
2.05211
1.24104
0.813998
0.956356
1.88671
3.6977
6.25578
9.18483
11.9827
14.2028
15.6112
16.1769
15.8907
14.6082
12.2103
8.76042
4.61284
0.10415
-4.51695
-9.10744
-13.6047
-17.989
-22.2559
-26.4034
-30.4297
-34.3349
-38.1201
-41.784
-45.3194
-48.7086
-51.9225
-54.9207
-57.6537
-60.0663
-62.1018
-63.7044
-64.8224
-65.414
-65.456
-64.9355
-63.8433
-62.1905
-60.0007
-57.3087
-54.1567
-50.5916
-46.6611
-42.4093
-37.8734
-33.0844
-28.0702
-22.8631
-17.5099
-12.0813
-6.66491
-1.37988
3.6614
8.34975
12.5936
16.3303
19.5281
22.1843
24.3201
25.9742
27.1964
28.0427
28.5705
28.8358
28.8908
28.7829
28.554
28.2397
27.8701
27.4694
27.0567
26.6465
26.249
25.8711
25.517
25.1887
24.8869
24.6112
24.3609
24.1352
23.9335
23.755
23.5987
23.4634
23.3476
23.2493
23.1665
23.0972
23.04
22.9938
22.9576
22.9309
22.9135
22.9049
22.9048
22.9115
22.9201
22.9211
22.8975
22.8008
22.441
21.281
18.6099
14.5237
10.1001
6.07299
2.58421
-0.272192
-2.36432
-3.58713
-3.87942
-3.21643
-1.57328
1.00247
4.37291
8.24474
12.1862
15.7512
18.6322
20.7285
22.1088
22.9239
23.3321
23.4595
23.3849
23.153
-15.7172
-16.1493
-16.9253
-18.1431
-19.8196
-21.9679
-24.5977
-27.7135
-31.3155
-35.3893
-39.8925
-44.7424
-49.8101
-54.9259
-59.8937
-64.5104
-68.5852
-71.9492
-74.4617
-75.9951
-76.4676
-75.9703
-74.3988
-71.7829
-68.1919
-63.739
-58.5821
-52.9139
-46.9362
-40.8323
-34.7602
-28.8656
-23.2917
-18.1692
-13.5861
-9.57503
-6.12309
-3.19264
-0.735526
1.29343
2.93025
4.20169
5.12343
5.69937
5.92444
5.79271
5.3127
4.52682
3.52538
2.44376
1.44051
0.676468
0.308816
0.475581
1.36259
3.04941
5.42781
8.14604
10.7095
12.6982
13.9321
14.3972
14.012
12.5504
9.88315
6.18031
1.85922
-2.75197
-7.43089
-12.0608
-16.5901
-20.9973
-25.2724
-29.4118
-33.4183
-37.2997
-41.0649
-44.7179
-48.2531
-51.6515
-54.8802
-57.8941
-60.6392
-63.0565
-65.0863
-66.6708
-67.7569
-68.3031
-68.2889
-67.6996
-66.5281
-64.7881
-62.5068
-59.7231
-56.484
-52.8415
-48.8484
-44.553
-39.9938
-35.1993
-30.1918
-24.9954
-19.6473
-14.2068
-8.75881
-3.41326
1.70973
6.49439
10.8436
14.6893
17.9963
20.7595
22.9987
24.7519
26.0686
27.0044
27.6166
27.9609
28.0896
28.0502
27.8845
27.6284
27.3122
26.9605
26.5926
26.2235
25.8637
25.5205
25.1984
24.8998
24.6256
24.3756
24.1491
23.9452
23.763
23.6016
23.46
23.3367
23.2303
23.1392
23.0615
22.9957
22.9403
22.8942
22.8564
22.8263
22.803
22.7857
22.7726
22.7605
22.7421
22.7042
22.6245
22.4517
22.013
20.8428
18.3102
14.4388
10.1389
6.14113
2.66979
-0.16075
-2.2293
-3.44042
-3.73712
-3.09466
-1.48923
1.03118
4.32701
8.10192
11.9259
15.3675
18.1423
20.1683
21.5195
22.3399
22.7745
22.9364
22.8954
22.6926
-17.6666
-18.183
-19.1267
-20.5726
-22.5372
-25.0439
-28.1096
-31.7486
-35.9683
-40.7527
-46.0437
-51.7282
-57.6364
-63.5547
-69.248
-74.4847
-79.0622
-82.8157
-85.6163
-87.3513
-87.9525
-87.4905
-85.8314
-82.9916
-79.0304
-74.0604
-68.2623
-61.8781
-55.1657
-48.3391
-41.552
-34.9337
-28.6278
-22.7899
-17.5433
-12.9456
-8.99089
-5.63517
-2.82039
-0.486174
1.4178
2.92984
4.07573
4.8681
5.3077
5.38883
5.11227
4.50609
3.64713
2.66759
1.7381
1.03623
0.726897
0.924921
1.76243
3.28194
5.36218
7.67441
9.78314
11.3608
12.2976
12.5583
11.9824
10.3278
7.46296
3.641
-0.726112
-5.3397
-10.0081
-14.6299
-19.1539
-23.5535
-27.8159
-31.9399
-35.9347
-39.8146
-43.5931
-47.2751
-50.8522
-54.3005
-57.5813
-60.6435
-63.4282
-65.8728
-67.9151
-69.4965
-70.5638
-71.0758
-71.0152
-70.3643
-69.1191
-67.2957
-64.9243
-62.0484
-58.7196
-54.9951
-50.9322
-46.5853
-41.995
-37.1899
-32.1881
-27.0049
-21.668
-16.2271
-10.7618
-5.37942
-0.201732
4.65154
9.07925
13.01
16.4059
19.2601
21.5912
23.436
24.8432
25.8674
26.5651
26.9914
27.1982
27.2324
27.1356
26.9439
26.6873
26.3907
26.0738
25.7516
25.4351
25.1318
24.8465
24.5819
24.3391
24.1179
23.9177
23.7378
23.577
23.4343
23.3086
23.1986
23.1029
23.0199
22.9483
22.8866
22.8335
22.7878
22.7486
22.7148
22.6853
22.6584
22.6316
22.6001
22.5546
22.479
22.3478
22.1088
21.6118
20.4691
18.1301
14.5392
10.4248
6.49408
3.05069
0.243902
-1.80608
-3.01011
-3.31517
-2.69639
-1.13226
1.324
4.52473
8.16782
11.8304
15.106
17.7407
19.6731
20.9803
21.7959
22.2495
22.4403
22.4293
22.2528
-17.9861
-18.7743
-19.9277
-21.6258
-23.8965
-26.765
-30.2517
-34.3776
-39.1532
-44.5564
-50.5108
-56.8733
-63.4391
-69.9607
-76.1762
-81.8372
-86.7374
-90.7275
-93.6987
-95.5644
-96.2976
-95.8247
-94.1264
-91.1921
-87.0437
-81.7582
-75.5045
-68.5619
-61.2596
-53.8703
-46.5596
-39.4324
-32.6053
-26.2329
-20.4579
-15.3694
-10.9812
-7.25131
-4.11398
-1.49886
0.656357
2.40092
3.77028
4.786
5.45638
5.77938
5.75172
5.38733
4.74269
3.93374
3.1301
2.52035
2.27259
2.48744
3.24689
4.55231
6.24914
8.03596
9.57314
10.6511
11.2115
11.1732
10.3142
8.40112
5.37654
1.47201
-2.91132
-7.50895
-12.154
-16.7543
-21.2592
-25.6404
-29.8871
-34.0031
-38.0032
-41.9064
-45.7269
-49.4672
-53.1137
-56.6364
-59.9898
-63.1174
-65.9557
-68.4394
-70.505
-72.0933
-73.151
-73.6375
-73.54
-72.8358
-71.525
-69.6266
-67.1716
-64.2111
-60.7994
-56.9988
-52.8712
-48.4761
-43.8544
-39.0361
-34.0366
-28.8665
-23.5451
-18.1148
-12.6496
-7.25399
-2.05
2.84126
7.31714
11.305
14.7658
17.6918
20.1002
22.0268
23.5185
24.6287
25.4123
25.9233
26.2122
26.3253
26.3035
26.1825
25.9922
25.7575
25.498
25.2291
24.9618
24.704
24.4606
24.2347
24.0272
23.8382
23.6673
23.5136
23.3762
23.2538
23.1455
23.05
22.9661
22.8924
22.8278
22.7708
22.7205
22.6756
22.6351
22.5977
22.5619
22.5254
22.4848
22.434
22.3625
22.2523
22.0757
21.7822
21.2456
20.1553
18.0434
14.7867
10.9276
7.11925
3.72894
0.951621
-1.08147
-2.28179
-2.59864
-2.00701
-0.489857
1.88896
4.96811
8.4398
11.8961
14.9654
17.4303
19.2493
20.4991
21.2997
21.7639
21.9768
21.9902
21.8355
-16.2971
-17.476
-18.9661
-20.9782
-23.5786
-26.7917
-30.6423
-35.157
-40.3479
-46.188
-52.5891
-59.3883
-66.3585
-73.2345
-79.7435
-85.6313
-90.6857
-94.7602
-97.7714
-99.6664
-100.432
-100.046
-98.4276
-95.563
-91.4488
-86.1219
-79.7096
-72.4854
-64.8331
-57.102
-49.4941
-42.0928
-34.9725
-28.2641
-22.1287
-16.6866
-11.9754
-7.96152
-4.57357
-1.73198
0.635086
2.58568
4.16341
5.39817
6.30677
6.89434
7.15928
7.10616
6.7683
6.2309
5.63907
5.17162
4.99319
5.20031
5.83288
6.8566
8.09345
9.28941
10.2177
10.7717
10.9098
10.4988
9.28437
7.06025
3.82872
-0.165836
-4.58257
-9.18161
-13.8157
-18.4013
-22.8903
-27.2578
-31.4977
-35.6195
-39.6429
-43.5882
-47.4683
-51.2823
-55.0107
-58.6167
-62.0491
-65.2464
-68.1421
-70.6689
-72.7621
-74.3623
-75.4163
-75.8839
-75.758
-75.0096
-73.6448
-71.687
-69.1611
-66.1389
-62.6629
-58.8008
-54.62
-50.1813
-45.5327
-40.7049
-35.7116
-30.5589
-25.2601
-19.8523
-14.4057
-9.02207
-3.82223
1.07385
5.56475
9.57894
13.0781
16.0541
18.5235
20.5202
22.0896
23.2826
24.1522
24.7504
25.1259
25.3235
25.3832
25.3399
25.2231
25.0575
24.8628
24.654
24.4426
24.2362
24.0404
23.8579
23.69
23.5368
23.3982
23.2733
23.1613
23.0611
22.9717
22.892
22.821
22.7576
22.7008
22.6493
22.6023
22.5587
22.5172
22.4764
22.4345
22.3888
22.3348
22.2659
22.1705
22.0296
21.8149
21.479
20.9186
19.8941
18.0225
15.1351
11.5994
7.9828
4.68869
1.95927
-0.0519182
-1.24905
-1.58034
-1.02081
0.438921
2.71944
5.64277
8.8994
12.1062
14.935
17.2068
18.8974
20.0788
20.8552
21.3214
21.5484
21.5797
21.4413
-12.8025
-14.2002
-16.2221
-18.6396
-21.5594
-25.0551
-29.1656
-33.9221
-39.3411
-45.4003
-52.0136
-59.0174
-66.1786
-73.2269
-79.885
-85.8959
-91.0437
-95.1764
-98.2216
-100.16
-100.976
-100.641
-99.0779
-96.2855
-92.2513
-86.9891
-80.5909
-73.3136
-65.5697
-57.759
-50.1056
-42.6715
-35.4944
-28.6857
-22.411
-16.8092
-11.936
-7.76637
-4.22901
-1.23998
1.27786
3.38791
5.13918
6.56778
7.6982
8.54428
9.11147
9.40359
9.43762
9.26458
8.98429
8.73486
8.65524
8.83608
9.29668
9.97651
10.7069
11.3058
11.6519
11.7026
11.4022
10.5751
8.96366
6.39908
2.9301
-1.19615
-5.68101
-10.3123
-14.9602
-19.5494
-24.0378
-28.4063
-32.655
-36.7993
-40.8616
-44.8624
-48.8118
-52.7034
-56.513
-60.1986
-63.7044
-66.9658
-69.9141
-72.481
-74.6012
-76.2152
-77.2714
-77.7326
-77.585
-76.8055
-75.4029
-73.4002
-70.8338
-67.7593
-64.2353
-60.3298
-56.1131
-51.6494
-46.9895
-42.1646
-37.1872
-32.0604
-26.7947
-21.4241
-16.0169
-10.673
-5.51034
-0.645149
3.82523
7.83285
11.3416
14.3443
16.8567
18.911
20.5502
21.8225
22.7781
23.466
23.9326
24.2209
24.3691
24.4111
24.3758
24.2874
24.1652
24.0242
23.8757
23.7276
23.5853
23.4515
23.3277
23.2143
23.1112
23.0178
22.9334
22.8571
22.7881
22.7256
22.6687
22.6166
22.5683
22.5231
22.4801
22.4381
22.3961
22.3525
22.305
22.2506
22.1844
22.099
21.9824
21.8157
21.5706
21.2038
20.6324
19.6777
18.0405
15.5343
12.3773
9.02806
5.89025
3.2435
1.27003
0.0809932
-0.266034
0.253582
1.63813
3.78996
6.51593
9.5129
12.4328
14.9959
17.0601
18.6132
19.7186
20.4626
20.9226
21.1561
21.1983
21.0703
-8.70435
-9.73748
-12.1492
-15.0065
-18.161
-21.7671
-25.9133
-30.6402
-35.9728
-41.9033
-48.365
-55.2169
-62.2482
-69.2029
-75.8093
-81.8104
-86.99
-91.1938
-94.347
-96.4239
-97.3886
-97.1747
-95.723
-93.0429
-89.1379
-84.0267
-77.8008
-70.7234
-63.2173
-55.677
-48.2989
-41.1111
-34.13
-27.4616
-21.2773
-15.7256
-10.8713
-6.69501
-3.12804
-0.0871132
2.50512
4.71275
6.58628
8.16453
9.47653
10.5429
11.3771
11.9886
12.3897
12.6077
12.6955
12.7336
12.8078
12.9751
13.2587
13.5785
13.815
13.8702
13.7021
13.2928
12.5597
11.3042
9.28479
6.37391
2.65315
-1.63288
-6.21685
-10.9098
-15.5965
-20.2104
-24.7164
-29.1022
-33.3745
-37.553
-41.6624
-45.7227
-49.7412
-53.7076
-57.5928
-61.3506
-64.9218
-68.2397
-71.2345
-73.8373
-75.983
-77.612
-78.6726
-79.1288
-78.9664
-78.1653
-76.7378
-74.7077
-72.1149
-69.0135
-65.4664
-61.5435
-57.3172
-52.8539
-48.2056
-43.4036
-38.4587
-33.3728
-28.1554
-22.841
-17.4981
-12.2251
-7.13576
-2.34024
2.07129
6.03699
9.52483
12.5293
15.0659
17.1651
18.867
20.2163
21.2592
22.0413
22.6057
22.9926
23.2384
23.3755
23.4318
23.4305
23.3907
23.3271
23.2505
23.169
23.0877
23.0091
22.9351
22.8663
22.8028
22.7443
22.6903
22.6403
22.5936
22.5498
22.5083
22.4685
22.4299
22.3918
22.3533
22.3137
22.2718
22.2258
22.1734
22.1112
22.0341
21.9343
21.7998
21.6119
21.3439
20.9569
20.385
19.4991
18.0769
15.9412
13.1964
10.1842
7.27359
4.76089
2.8547
1.68641
1.32392
1.79152
3.07437
5.0581
7.54107
10.2373
12.8422
15.1254
16.9764
18.3887
19.4139
20.1196
20.5663
20.7992
20.8459
20.7226
-6.07005
-6.33513
-8.23577
-11.1487
-14.3264
-17.768
-21.6132
-25.9351
-30.7835
-36.1813
-42.0965
-48.4271
-55.0017
-61.5956
-67.9573
-73.838
-79.0174
-83.3219
-86.635
-88.878
-89.9842
-89.8824
-88.5587
-86.0391
-82.3401
-77.4974
-71.6323
-65.0378
-58.1232
-51.212
-44.419
-37.7312
-31.1675
-24.8528
-18.9702
-13.6686
-9.01005
-4.97517
-1.49913
1.49558
4.08056
6.3153
8.24712
9.91332
11.3432
12.5597
13.5806
14.4206
15.0945
15.6213
16.0272
16.3434
16.6009
16.8184
16.9659
17.0075
16.8783
16.544
16.0033
15.237
14.1411
12.5132
10.1373
6.92082
2.96783
-1.48061
-6.17861
-10.9526
-15.6973
-20.3537
-24.8931
-29.3096
-33.6148
-37.832
-41.9868
-46.0985
-50.1724
-54.1951
-58.1349
-61.943
-65.5589
-68.9148
-71.9409
-74.5683
-76.7323
-78.3736
-79.4409
-79.8991
-79.7327
-78.9264
-77.4942
-75.4607
-72.8674
-69.7693
-66.2312
-62.3245
-58.1225
-53.6925
-49.0861
-44.3331
-39.4432
-34.4183
-29.2701
-24.0363
-18.7875
-13.6208
-8.64459
-3.95997
0.352527