# vtk DataFile Version 2.0
sampleSurface
ASCII
DATASET POLYDATA
POINTS 502 float
-0.0206 0 -0.0005 -0.0190172 0 -0.0005 -0.0190172 0 0.0005 -0.0206 0
0.0005 -0.0174976 0 -0.0005 -0.0174976 0 0.0005 -0.0160387 0 -0.0005
-0.0160387 0 0.0005 -0.0146381 0 -0.0005 -0.0146381 0 0.0005 -0.0132934
0 -0.0005 -0.0132934 0 0.0005 -0.0120025 0 -0.0005 -0.0120025 0
0.0005 -0.0107632 0 -0.0005 -0.0107632 0 0.0005 -0.00957337 0 -0.0005
-0.00957337 0 0.0005 -0.00843108 0 -0.0005 -0.00843108 0 0.0005 -0.00733443
0 -0.0005 -0.00733443 0 0.0005 -0.0062816 0 -0.0005 -0.0062816 0
0.0005 -0.00527083 0 -0.0005 -0.00527083 0 0.0005 -0.00430044 0 -0.0005
-0.00430044 0 0.0005 -0.00336883 0 -0.0005 -0.00336883 0 0.0005 -0.00247443
0 -0.0005 -0.00247443 0 0.0005 -0.00161577 0 -0.0005 -0.00161577 0
0.0005 -0.000791418 0 -0.0005 -0.000791418 0 0.0005 0 0 -0.0005
0 0 0.0005 0 -0.0254 -0.0005 0 -0.0254 0.0005 0
-0.0242711 0.0005 0 -0.0242711 -0.0005 0 -0.0231422 0.0005 0 -0.0231422
-0.0005 0 -0.0220133 0.0005 0 -0.0220133 -0.0005 0 -0.0208844 0.0005
0 -0.0208844 -0.0005 0 -0.0197556 0.0005 0 -0.0197556 -0.0005 0
-0.0186267 0.0005 0 -0.0186267 -0.0005 0 -0.0174978 0.0005 0 -0.0174978
-0.0005 0 -0.0163689 0.0005 0 -0.0163689 -0.0005 0 -0.01524 0.0005
0 -0.01524 -0.0005 0 -0.0141111 0.0005 0 -0.0141111 -0.0005 0
-0.0129822 0.0005 0 -0.0129822 -0.0005 0 -0.0118533 0.0005 0 -0.0118533
-0.0005 0 -0.0107244 0.0005 0 -0.0107244 -0.0005 0 -0.00959556 0.0005
0 -0.00959556 -0.0005 0 -0.00846667 0.0005 0 -0.00846667 -0.0005 0
-0.00726604 0.0005 0 -0.00726604 -0.0005 0 -0.00618989 0.0005 0 -0.00618989
-0.0005 0 -0.00522531 0.0005 0 -0.00522531 -0.0005 0 -0.00436073 0.0005
0 -0.00436073 -0.0005 0 -0.00358579 0.0005 0 -0.00358579 -0.0005 0
-0.00289118 0.0005 0 -0.00289118 -0.0005 0 -0.0022686 0.0005 0 -0.0022686
-0.0005 0 -0.00171055 0.0005 0 -0.00171055 -0.0005 0 -0.00121037 0.0005
0 -0.00121037 -0.0005 0 -0.000762037 0.0005 0 -0.000762037 -0.0005 0
-0.000360188 0.0005 0 -0.000360188 -0.0005 0.000528387 -0.0254 -0.0005 0.000528387 -0.0254
0.0005 0.00106088 -0.0254 -0.0005 0.00106088 -0.0254 0.0005 0.00159752 -0.0254 -0.0005
0.00159752 -0.0254 0.0005 0.00213833 -0.0254 -0.0005 0.00213833 -0.0254 0.0005 0.00268334
-0.0254 -0.0005 0.00268334 -0.0254 0.0005 0.00323259 -0.0254 -0.0005 0.00323259 -0.0254
0.0005 0.00378611 -0.0254 -0.0005 0.00378611 -0.0254 0.0005 0.00434393 -0.0254 -0.0005
0.00434393 -0.0254 0.0005 0.00490609 -0.0254 -0.0005 0.00490609 -0.0254 0.0005 0.00547262
-0.0254 -0.0005 0.00547262 -0.0254 0.0005 0.00604356 -0.0254 -0.0005 0.00604356 -0.0254
0.0005 0.00661893 -0.0254 -0.0005 0.00661893 -0.0254 0.0005 0.00719878 -0.0254 -0.0005
0.00719878 -0.0254 0.0005 0.00778313 -0.0254 -0.0005 0.00778313 -0.0254 0.0005 0.00837203
-0.0254 -0.0005 0.00837203 -0.0254 0.0005 0.00896551 -0.0254 -0.0005 0.00896551 -0.0254
0.0005 0.0095636 -0.0254 -0.0005 0.0095636 -0.0254 0.0005 0.0101663 -0.0254 -0.0005
0.0101663 -0.0254 0.0005 0.0107738 -0.0254 -0.0005 0.0107738 -0.0254 0.0005 0.0113859
-0.0254 -0.0005 0.0113859 -0.0254 0.0005 0.0120028 -0.0254 -0.0005 0.0120028 -0.0254
0.0005 0.0126245 -0.0254 -0.0005 0.0126245 -0.0254 0.0005 0.0132511 -0.0254 -0.0005
0.0132511 -0.0254 0.0005 0.0138825 -0.0254 -0.0005 0.0138825 -0.0254 0.0005 0.0145188
-0.0254 -0.0005 0.0145188 -0.0254 0.0005 0.0151601 -0.0254 -0.0005 0.0151601 -0.0254
0.0005 0.0158063 -0.0254 -0.0005 0.0158063 -0.0254 0.0005 0.0164576 -0.0254 -0.0005
0.0164576 -0.0254 0.0005 0.0171139 -0.0254 -0.0005 0.0171139 -0.0254 0.0005 0.0177754
-0.0254 -0.0005 0.0177754 -0.0254 0.0005 0.018442 -0.0254 -0.0005 0.018442 -0.0254
0.0005 0.0191137 -0.0254 -0.0005 0.0191137 -0.0254 0.0005 0.0197907 -0.0254 -0.0005
0.0197907 -0.0254 0.0005 0.020473 -0.0254 -0.0005 0.020473 -0.0254 0.0005 0.0211606
-0.0254 -0.0005 0.0211606 -0.0254 0.0005 0.0218535 -0.0254 -0.0005 0.0218535 -0.0254
0.0005 0.0225517 -0.0254 -0.0005 0.0225517 -0.0254 0.0005 0.0232555 -0.0254 -0.0005
0.0232555 -0.0254 0.0005 0.0239647 -0.0254 -0.0005 0.0239647 -0.0254 0.0005 0.0246794
-0.0254 -0.0005 0.0246794 -0.0254 0.0005 0.0253996 -0.0254 -0.0005 0.0253996 -0.0254
0.0005 0.0261255 -0.0254 -0.0005 0.0261255 -0.0254 0.0005 0.026857 -0.0254 -0.0005
0.026857 -0.0254 0.0005 0.0275942 -0.0254 -0.0005 0.0275942 -0.0254 0.0005 0.0283371
-0.0254 -0.0005 0.0283371 -0.0254 0.0005 0.0290858 -0.0254 -0.0005 0.0290858 -0.0254
0.0005 0.0298403 -0.0254 -0.0005 0.0298403 -0.0254 0.0005 0.0306007 -0.0254 -0.0005
0.0306007 -0.0254 0.0005 0.031367 -0.0254 -0.0005 0.031367 -0.0254 0.0005 0.0321393
-0.0254 -0.0005 0.0321393 -0.0254 0.0005 0.0329175 -0.0254 -0.0005 0.0329175 -0.0254
0.0005 0.0337019 -0.0254 -0.0005 0.0337019 -0.0254 0.0005 0.0344923 -0.0254 -0.0005
0.0344923 -0.0254 0.0005 0.0352888 -0.0254 -0.0005 0.0352888 -0.0254 0.0005 0.0360916
-0.0254 -0.0005 0.0360916 -0.0254 0.0005 0.0369006 -0.0254 -0.0005 0.0369006 -0.0254
0.0005 0.0377158 -0.0254 -0.0005 0.0377158 -0.0254 0.0005 0.0385375 -0.0254 -0.0005
0.0385375 -0.0254 0.0005 0.0393655 -0.0254 -0.0005 0.0393655 -0.0254 0.0005 0.0401999
-0.0254 -0.0005 0.0401999 -0.0254 0.0005 0.0410408 -0.0254 -0.0005 0.0410408 -0.0254
0.0005 0.0418883 -0.0254 -0.0005 0.0418883 -0.0254 0.0005 0.0427424 -0.0254 -0.0005
0.0427424 -0.0254 0.0005 0.0436031 -0.0254 -0.0005 0.0436031 -0.0254 0.0005 0.0444704
-0.0254 -0.0005 0.0444704 -0.0254 0.0005 0.0453446 -0.0254 -0.0005 0.0453446 -0.0254
0.0005 0.0462255 -0.0254 -0.0005 0.0462255 -0.0254 0.0005 0.0471133 -0.0254 -0.0005
0.0471133 -0.0254 0.0005 0.048008 -0.0254 -0.0005 0.048008 -0.0254 0.0005 0.0489096
-0.0254 -0.0005 0.0489096 -0.0254 0.0005 0.0498183 -0.0254 -0.0005 0.0498183 -0.0254
0.0005 0.050734 -0.0254 -0.0005 0.050734 -0.0254 0.0005 0.0516568 -0.0254 -0.0005
0.0516568 -0.0254 0.0005 0.0525868 -0.0254 -0.0005 0.0525868 -0.0254 0.0005 0.053524
-0.0254 -0.0005 0.053524 -0.0254 0.0005 0.0544686 -0.0254 -0.0005 0.0544686 -0.0254
0.0005 0.0554204 -0.0254 -0.0005 0.0554204 -0.0254 0.0005 0.0563797 -0.0254 -0.0005
0.0563797 -0.0254 0.0005 0.0573464 -0.0254 -0.0005 0.0573464 -0.0254 0.0005 0.0583206
-0.0254 -0.0005 0.0583206 -0.0254 0.0005 0.0593025 -0.0254 -0.0005 0.0593025 -0.0254
0.0005 0.0602919 -0.0254 -0.0005 0.0602919 -0.0254 0.0005 0.0612891 -0.0254 -0.0005
0.0612891 -0.0254 0.0005 0.0622939 -0.0254 -0.0005 0.0622939 -0.0254 0.0005 0.0633067
-0.0254 -0.0005 0.0633067 -0.0254 0.0005 0.0643272 -0.0254 -0.0005 0.0643272 -0.0254
0.0005 0.0653557 -0.0254 -0.0005 0.0653557 -0.0254 0.0005 0.0663923 -0.0254 -0.0005
0.0663923 -0.0254 0.0005 0.0674368 -0.0254 -0.0005 0.0674368 -0.0254 0.0005 0.0684895
-0.0254 -0.0005 0.0684895 -0.0254 0.0005 0.0695504 -0.0254 -0.0005 0.0695504 -0.0254
0.0005 0.0706195 -0.0254 -0.0005 0.0706195 -0.0254 0.0005 0.0716969 -0.0254 -0.0005
0.0716969 -0.0254 0.0005 0.0727828 -0.0254 -0.0005 0.0727828 -0.0254 0.0005 0.073877
-0.0254 -0.0005 0.073877 -0.0254 0.0005 0.0749798 -0.0254 -0.0005 0.0749798 -0.0254
0.0005 0.0760911 -0.0254 -0.0005 0.0760911 -0.0254 0.0005 0.0772111 -0.0254 -0.0005
0.0772111 -0.0254 0.0005 0.0783398 -0.0254 -0.0005 0.0783398 -0.0254 0.0005 0.0794772
-0.0254 -0.0005 0.0794772 -0.0254 0.0005 0.0806235 -0.0254 -0.0005 0.0806235 -0.0254
0.0005 0.0817787 -0.0254 -0.0005 0.0817787 -0.0254 0.0005 0.0829429 -0.0254 -0.0005
0.0829429 -0.0254 0.0005 0.0841162 -0.0254 -0.0005 0.0841162 -0.0254 0.0005 0.0852985
-0.0254 -0.0005 0.0852985 -0.0254 0.0005 0.0864901 -0.0254 -0.0005 0.0864901 -0.0254
0.0005 0.0876909 -0.0254 -0.0005 0.0876909 -0.0254 0.0005 0.0889011 -0.0254 -0.0005
0.0889011 -0.0254 0.0005 0.0901207 -0.0254 -0.0005 0.0901207 -0.0254 0.0005 0.0913497
-0.0254 -0.0005 0.0913497 -0.0254 0.0005 0.0925883 -0.0254 -0.0005 0.0925883 -0.0254
0.0005 0.0938366 -0.0254 -0.0005 0.0938366 -0.0254 0.0005 0.0950945 -0.0254 -0.0005
0.0950945 -0.0254 0.0005 0.0963622 -0.0254 -0.0005 0.0963622 -0.0254 0.0005 0.0976398
-0.0254 -0.0005 0.0976398 -0.0254 0.0005 0.0989273 -0.0254 -0.0005 0.0989273 -0.0254
0.0005 0.100225 -0.0254 -0.0005 0.100225 -0.0254 0.0005 0.101532 -0.0254 -0.0005
0.101532 -0.0254 0.0005 0.10285 -0.0254 -0.0005 0.10285 -0.0254 0.0005 0.104178
-0.0254 -0.0005 0.104178 -0.0254 0.0005 0.105517 -0.0254 -0.0005 0.105517 -0.0254
0.0005 0.106865 -0.0254 -0.0005 0.106865 -0.0254 0.0005 0.108225 -0.0254 -0.0005
0.108225 -0.0254 0.0005 0.109594 -0.0254 -0.0005 0.109594 -0.0254 0.0005 0.110975
-0.0254 -0.0005 0.110975 -0.0254 0.0005 0.112366 -0.0254 -0.0005 0.112366 -0.0254
0.0005 0.113768 -0.0254 -0.0005 0.113768 -0.0254 0.0005 0.115181 -0.0254 -0.0005
0.115181 -0.0254 0.0005 0.116605 -0.0254 -0.0005 0.116605 -0.0254 0.0005 0.11804
-0.0254 -0.0005 0.11804 -0.0254 0.0005 0.119486 -0.0254 -0.0005 0.119486 -0.0254
0.0005 0.120943 -0.0254 -0.0005 0.120943 -0.0254 0.0005 0.122412 -0.0254 -0.0005
0.122412 -0.0254 0.0005 0.123892 -0.0254 -0.0005 0.123892 -0.0254 0.0005 0.125384
-0.0254 -0.0005 0.125384 -0.0254 0.0005 0.126887 -0.0254 -0.0005 0.126887 -0.0254
0.0005 0.128402 -0.0254 -0.0005 0.128402 -0.0254 0.0005 0.129928 -0.0254 -0.0005
0.129928 -0.0254 0.0005 0.131467 -0.0254 -0.0005 0.131467 -0.0254 0.0005 0.133017
-0.0254 -0.0005 0.133017 -0.0254 0.0005 0.13458 -0.0254 -0.0005 0.13458 -0.0254
0.0005 0.136155 -0.0254 -0.0005 0.136155 -0.0254 0.0005 0.137742 -0.0254 -0.0005
0.137742 -0.0254 0.0005 0.139341 -0.0254 -0.0005 0.139341 -0.0254 0.0005 0.140953
-0.0254 -0.0005 0.140953 -0.0254 0.0005 0.142577 -0.0254 -0.0005 0.142577 -0.0254
0.0005 0.144214 -0.0254 -0.0005 0.144214 -0.0254 0.0005 0.145863 -0.0254 -0.0005
0.145863 -0.0254 0.0005 0.147526 -0.0254 -0.0005 0.147526 -0.0254 0.0005 0.149201
-0.0254 -0.0005 0.149201 -0.0254 0.0005 0.15089 -0.0254 -0.0005 0.15089 -0.0254
0.0005 0.152591 -0.0254 -0.0005 0.152591 -0.0254 0.0005 0.154306 -0.0254 -0.0005
0.154306 -0.0254 0.0005 0.156034 -0.0254 -0.0005 0.156034 -0.0254 0.0005 0.157775
-0.0254 -0.0005 0.157775 -0.0254 0.0005 0.159531 -0.0254 -0.0005 0.159531 -0.0254
0.0005 0.161299 -0.0254 -0.0005 0.161299 -0.0254 0.0005 0.163082 -0.0254 -0.0005
0.163082 -0.0254 0.0005 0.164878 -0.0254 -0.0005 0.164878 -0.0254 0.0005 0.166688
-0.0254 -0.0005 0.166688 -0.0254 0.0005 0.168513 -0.0254 -0.0005 0.168513 -0.0254
0.0005 0.170351 -0.0254 -0.0005 0.170351 -0.0254 0.0005 0.172204 -0.0254 -0.0005
0.172204 -0.0254 0.0005 0.174071 -0.0254 -0.0005 0.174071 -0.0254 0.0005 0.175953
-0.0254 -0.0005 0.175953 -0.0254 0.0005 0.177849 -0.0254 -0.0005 0.177849 -0.0254
0.0005 0.17976 -0.0254 -0.0005 0.17976 -0.0254 0.0005 0.181686 -0.0254 -0.0005
0.181686 -0.0254 0.0005 0.183627 -0.0254 -0.0005 0.183627 -0.0254 0.0005 0.185583
-0.0254 -0.0005 0.185583 -0.0254 0.0005 0.187555 -0.0254 -0.0005 0.187555 -0.0254
0.0005 0.189541 -0.0254 -0.0005 0.189541 -0.0254 0.0005 0.191543 -0.0254 -0.0005
0.191543 -0.0254 0.0005 0.193561 -0.0254 -0.0005 0.193561 -0.0254 0.0005 0.195594
-0.0254 -0.0005 0.195594 -0.0254 0.0005 0.197643 -0.0254 -0.0005 0.197643 -0.0254
0.0005 0.199708 -0.0254 -0.0005 0.199708 -0.0254 0.0005 0.201789 -0.0254 -0.0005
0.201789 -0.0254 0.0005 0.203886 -0.0254 -0.0005 0.203886 -0.0254 0.0005 0.206
-0.0254 -0.0005 0.206 -0.0254 0.0005 0.208047 -0.0251856 -0.0005 0.208047 -0.0251856
0.0005 0.210173 -0.0249628 -0.0005 0.210173 -0.0249628 0.0005 0.212382 -0.0247314 -0.0005
0.212382 -0.0247314 0.0005 0.214677 -0.024491 -0.0005 0.214677 -0.024491 0.0005 0.217061
-0.0242412 -0.0005 0.217061 -0.0242412 0.0005 0.219538 -0.0239817 -0.0005 0.219538 -0.0239817
0.0005 0.222112 -0.0237121 -0.0005 0.222112 -0.0237121 0.0005 0.224785 -0.023432 -0.0005
0.224785 -0.023432 0.0005 0.227563 -0.023141 -0.0005 0.227563 -0.023141 0.0005 0.230449
-0.0228387 -0.0005 0.230449 -0.0228387 0.0005 0.233447 -0.0225246 -0.0005 0.233447 -0.0225246
0.0005 0.236562 -0.0221983 -0.0005 0.236562 -0.0221983 0.0005 0.239797 -0.0218593 -0.0005
0.239797 -0.0218593 0.0005 0.243159 -0.0215071 -0.0005 0.243159 -0.0215071 0.0005 0.246652
-0.0211412 -0.0005 0.246652 -0.0211412 0.0005 0.250281 -0.0207611 -0.0005 0.250281 -0.0207611
0.0005 0.254051 -0.0203661 -0.0005 0.254051 -0.0203661 0.0005 0.257967 -0.0199558 -0.0005
0.257967 -0.0199558 0.0005 0.262036 -0.0195295 -0.0005 0.262036 -0.0195295 0.0005 0.266264
-0.0190867 -0.0005 0.266264 -0.0190867 0.0005 0.270655 -0.0186266 -0.0005 0.270655 -0.0186266
0.0005 0.275218 -0.0181486 -0.0005 0.275218 -0.0181486 0.0005 0.279959 -0.017652 -0.0005
0.279959 -0.017652 0.0005 0.284883 -0.017136 -0.0005 0.284883 -0.017136 0.0005 0.29
-0.0166 -0.0005 0.29 -0.0166 0.0005 
POLYGONS 250 1250
4 0 1 2 3 4 1 4 5 2 4
4 6 7 5 4 6 8 9 7 4
8 10 11 9 4 10 12 13 11 4
12 14 15 13 4 14 16 17 15 4
16 18 19 17 4 18 20 21 19 4
20 22 23 21 4 22 24 25 23 4
24 26 27 25 4 26 28 29 27 4
28 30 31 29 4 30 32 33 31 4
32 34 35 33 4 34 36 37 35 4
38 39 40 41 4 41 40 42 43 4
43 42 44 45 4 45 44 46 47 4
47 46 48 49 4 49 48 50 51 4
51 50 52 53 4 53 52 54 55 4
55 54 56 57 4 57 56 58 59 4
59 58 60 61 4 61 60 62 63 4
63 62 64 65 4 65 64 66 67 4
67 66 68 69 4 69 68 70 71 4
71 70 72 73 4 73 72 74 75 4
75 74 76 77 4 77 76 78 79 4
79 78 80 81 4 81 80 82 83 4
83 82 84 85 4 85 84 86 87 4
87 86 88 89 4 89 88 90 91 4
91 90 37 36 4 38 92 93 39 4
92 94 95 93 4 94 96 97 95 4
96 98 99 97 4 98 100 101 99 4
100 102 103 101 4 102 104 105 103 4
104 106 107 105 4 106 108 109 107 4
108 110 111 109 4 110 112 113 111 4
112 114 115 113 4 114 116 117 115 4
116 118 119 117 4 118 120 121 119 4
120 122 123 121 4 122 124 125 123 4
124 126 127 125 4 126 128 129 127 4
128 130 131 129 4 130 132 133 131 4
132 134 135 133 4 134 136 137 135 4
136 138 139 137 4 138 140 141 139 4
140 142 143 141 4 142 144 145 143 4
144 146 147 145 4 146 148 149 147 4
148 150 151 149 4 150 152 153 151 4
152 154 155 153 4 154 156 157 155 4
156 158 159 157 4 158 160 161 159 4
160 162 163 161 4 162 164 165 163 4
164 166 167 165 4 166 168 169 167 4
168 170 171 169 4 170 172 173 171 4
172 174 175 173 4 174 176 177 175 4
176 178 179 177 4 178 180 181 179 4
180 182 183 181 4 182 184 185 183 4
184 186 187 185 4 186 188 189 187 4
188 190 191 189 4 190 192 193 191 4
192 194 195 193 4 194 196 197 195 4
196 198 199 197 4 198 200 201 199 4
200 202 203 201 4 202 204 205 203 4
204 206 207 205 4 206 208 209 207 4
208 210 211 209 4 210 212 213 211 4
212 214 215 213 4 214 216 217 215 4
216 218 219 217 4 218 220 221 219 4
220 222 223 221 4 222 224 225 223 4
224 226 227 225 4 226 228 229 227 4
228 230 231 229 4 230 232 233 231 4
232 234 235 233 4 234 236 237 235 4
236 238 239 237 4 238 240 241 239 4
240 242 243 241 4 242 244 245 243 4
244 246 247 245 4 246 248 249 247 4
248 250 251 249 4 250 252 253 251 4
252 254 255 253 4 254 256 257 255 4
256 258 259 257 4 258 260 261 259 4
260 262 263 261 4 262 264 265 263 4
264 266 267 265 4 266 268 269 267 4
268 270 271 269 4 270 272 273 271 4
272 274 275 273 4 274 276 277 275 4
276 278 279 277 4 278 280 281 279 4
280 282 283 281 4 282 284 285 283 4
284 286 287 285 4 286 288 289 287 4
288 290 291 289 4 290 292 293 291 4
292 294 295 293 4 294 296 297 295 4
296 298 299 297 4 298 300 301 299 4
300 302 303 301 4 302 304 305 303 4
304 306 307 305 4 306 308 309 307 4
308 310 311 309 4 310 312 313 311 4
312 314 315 313 4 314 316 317 315 4
316 318 319 317 4 318 320 321 319 4
320 322 323 321 4 322 324 325 323 4
324 326 327 325 4 326 328 329 327 4
328 330 331 329 4 330 332 333 331 4
332 334 335 333 4 334 336 337 335 4
336 338 339 337 4 338 340 341 339 4
340 342 343 341 4 342 344 345 343 4
344 346 347 345 4 346 348 349 347 4
348 350 351 349 4 350 352 353 351 4
352 354 355 353 4 354 356 357 355 4
356 358 359 357 4 358 360 361 359 4
360 362 363 361 4 362 364 365 363 4
364 366 367 365 4 366 368 369 367 4
368 370 371 369 4 370 372 373 371 4
372 374 375 373 4 374 376 377 375 4
376 378 379 377 4 378 380 381 379 4
380 382 383 381 4 382 384 385 383 4
384 386 387 385 4 386 388 389 387 4
388 390 391 389 4 390 392 393 391 4
392 394 395 393 4 394 396 397 395 4
396 398 399 397 4 398 400 401 399 4
400 402 403 401 4 402 404 405 403 4
404 406 407 405 4 406 408 409 407 4
408 410 411 409 4 410 412 413 411 4
412 414 415 413 4 414 416 417 415 4
416 418 419 417 4 418 420 421 419 4
420 422 423 421 4 422 424 425 423 4
424 426 427 425 4 426 428 429 427 4
428 430 431 429 4 430 432 433 431 4
432 434 435 433 4 434 436 437 435 4
436 438 439 437 4 438 440 441 439 4
440 442 443 441 4 442 444 445 443 4
444 446 447 445 4 446 448 449 447 4
448 450 451 449 4 450 452 453 451 4
452 454 455 453 4 454 456 457 455 4
456 458 459 457 4 458 460 461 459 4
460 462 463 461 4 462 464 465 463 4
464 466 467 465 4 466 468 469 467 4
468 470 471 469 4 470 472 473 471 4
472 474 475 473 4 474 476 477 475 4
476 478 479 477 4 478 480 481 479 4
480 482 483 481 4 482 484 485 483 4
484 486 487 485 4 486 488 489 487 4
488 490 491 489 4 490 492 493 491 4
492 494 495 493 4 494 496 497 495 4
496 498 499 497 4 498 500 501 499 
POINT_DATA 502
FIELD attributes 1
U 3 502 float
3.27671 0.0136666 -0.0167904 1.64484 0.00694742 -0.0082743 1.64484 0.00694742 -0.0082743 3.27671 0.0136666
-0.0167904 0.0584077 0.000419775 0 0.0584077 0.000419775 0 0.056808 0.000399637 0
0.056808 0.000399637 0 0.0552036 0.000370834 0 0.0552036 0.000370834 0 0.053314
0.000392503 0 0.053314 0.000392503 0 0.0513027 0.000450317 0 0.0513027 0.000450317
0 0.0494376 0.000482658 0 0.0494376 0.000482658 0 0.0478199 0.000480414 0
0.0478199 0.000480414 0 0.04635 0.000468836 0 0.04635 0.000468836 0 0.0448442
0.000462959 0 0.0448442 0.000462959 0 0.0431797 0.000457909 0 0.0431797 0.000457909
0 0.0413367 0.000446949 0 0.0413367 0.000446949 0 0.0393855 0.000430258 0
0.0393855 0.000430258 0 0.0373266 0.000442828 0 0.0373266 0.000442828 0 0.0351519
0.000472279 0 0.0351519 0.000472279 0 0.032761 0.00056973 0 0.032761 0.00056973
0 0.0300642 0.000675735 0 0.0300642 0.000675735 0 0.0128917 0.000445422 0
0.0128917 0.000445422 0 -0.000516204 0.00119081 3.02896e-23 -0.000516204 0.00119081 3.02896e-23 -0.000205169
0.00289106 -8.18936e-23 -0.000205169 0.00289106 -8.18936e-23 0.000178882 0.00333084 -9.71518e-23 0.000178882 0.00333084
-9.71518e-23 -0.000281254 0.00195544 1.94313e-22 -0.000281254 0.00195544 1.94313e-22 -0.000161137 0.00158591 6.50007e-23
-0.000161137 0.00158591 6.50007e-23 0.00140698 -0.00388434 -1.29426e-22 0.00140698 -0.00388434 -1.29426e-22 0.00195753
-0.0128772 0 0.00195753 -0.0128772 0 0.00120084 -0.0183038 -2.40386e-22 0.00120084 -0.0183038
-2.40386e-22 0.000634505 -0.0211572 -1.5744e-25 0.000634505 -0.0211572 -1.5744e-25 0.000308717 -0.0227712 2.40229e-22
0.000308717 -0.0227712 2.40229e-22 8.07953e-05 -0.0233309 -2.38636e-22 8.07953e-05 -0.0233309 -2.38636e-22 -5.23456e-05
-0.0233106 5.24476e-27 -5.23456e-05 -0.0233106 5.24476e-27 -0.000138916 -0.0228831 2.38641e-22 -0.000138916 -0.0228831
2.38641e-22 -0.000198488 -0.0222132 2.52021e-22 -0.000198488 -0.0222132 2.52021e-22 -0.00025995 -0.0212788 -1.83796e-25
-0.00025995 -0.0212788 -1.83796e-25 -0.000337256 -0.0200365 -2.56675e-22 -0.000337256 -0.0200365 -2.56675e-22 -0.000444188
-0.0183153 0 -0.000444188 -0.0183153 0 -0.000559656 -0.0162689 0 -0.000559656 -0.0162689
0 -0.000662697 -0.013997 0 -0.000662697 -0.013997 0 -0.000738919 -0.0116399 0
-0.000738919 -0.0116399 0 -0.00078165 -0.00933182 0 -0.00078165 -0.00933182 0 -0.000792714
-0.00717427 0 -0.000792714 -0.00717427 0 -0.000801935 -0.00517781 0 -0.000801935 -0.00517781
0 -0.000861092 -0.00325979 0 -0.000861092 -0.00325979 0 -0.000841424 -0.00164707 0
-0.000841424 -0.00164707 0 -0.000442188 -0.000120074 0 -0.000442188 -0.000120074 0 -0.000185361
0.000486485 0 -0.000185361 0.000486485 0 -0.00087582 0.000912762 1.76063e-25 -0.00087582 0.000912762
1.76063e-25 -0.00143134 0.000381745 -1.50073e-23 -0.00143134 0.000381745 -1.50073e-23 -0.0016809 -5.27803e-05 0
-0.0016809 -5.27803e-05 0 -0.00157689 -0.000434579 0 -0.00157689 -0.000434579 0 -0.00112885
-0.0007886 1.46301e-23 -0.00112885 -0.0007886 1.46301e-23 -0.000386192 -0.00106008 1.46564e-23 -0.000386192 -0.00106008
1.46564e-23 0.000608399 -0.00122353 0 0.000608399 -0.00122353 0 0.00173037 -0.00127172 0
0.00173037 -0.00127172 0 0.00288068 -0.00123775 0 0.00288068 -0.00123775 0 0.00399626
-0.0011369 -1.39177e-23 0.00399626 -0.0011369 -1.39177e-23 0.0050388 -0.000989287 -1.39442e-23 0.0050388 -0.000989287
-1.39442e-23 0.00596456 -0.000812993 0 0.00596456 -0.000812993 0 0.00673846 -0.000621609 0
0.00673846 -0.000621609 0 0.00733902 -0.000424325 0 0.00733902 -0.000424325 0 0.00775335
-0.000224392 -1.27538e-23 0.00775335 -0.000224392 -1.27538e-23 0.00797175 -2.25479e-05 -1.27795e-23 0.00797175 -2.25479e-05
-1.27795e-23 0.00798593 0.000185559 0 0.00798593 0.000185559 0 0.00778262 0.000406795 0
0.00778262 0.000406795 0 0.00736661 0.000631891 0 0.00736661 0.000631891 0 0.00674176
0.000849426 0 0.00674176 0.000849426 0 0.00591279 0.00104206 0 0.00591279 0.00104206
0 0.00490962 0.00118389 0 0.00490962 0.00118389 0 0.00372224 0.00127841 -1.24854e-23
0.00372224 0.00127841 -1.24854e-23 0.00243501 0.00111707 -9.15869e-26 0.00243501 0.00111707 -9.15869e-26 0.00128213
0.000535008 1.23526e-25 0.00128213 0.000535008 1.23526e-25 0.000451894 -1.18019e-05 -2.45853e-23 0.000451894 -1.18019e-05
-2.45853e-23 -4.84197e-05 -0.000141724 -1.22598e-23 -4.84197e-05 -0.000141724 -1.22598e-23 -0.000336858 -8.77556e-05 0
-0.000336858 -8.77556e-05 0 -0.00045452 -0.000139225 1.19822e-23 -0.00045452 -0.000139225 1.19822e-23 -0.00024205
-0.000347903 2.39368e-23 -0.00024205 -0.000347903 2.39368e-23 0.00037044 -0.000595884 1.19548e-23 0.00037044 -0.000595884
1.19548e-23 0.00117302 -0.000687989 0 0.00117302 -0.000687989 0 0.00201874 -0.00023678 1.16805e-23
0.00201874 -0.00023678 1.16805e-23 0.00276823 0.000175372 1.17093e-23 0.00276823 0.000175372 1.17093e-23 0.00309394
-0.000756054 0 0.00309394 -0.000756054 0 0.0030785 -0.00202604 -1.13719e-23 0.0030785 -0.00202604
-1.13719e-23 0.00296525 -0.00165067 -1.14008e-23 0.00296525 -0.00165067 -1.14008e-23 0.00217429 6.37274e-05 -1.11943e-23
0.00217429 6.37274e-05 -1.11943e-23 0.000456236 0.00134624 -3.35014e-23 0.000456236 0.00134624 -3.35014e-23 -0.00151489
0.00165252 -2.23365e-23 -0.00151489 0.00165252 -2.23365e-23 -0.00339317 0.00162524 0 -0.00339317 0.00162524
0 -0.00519071 0.00154734 0 -0.00519071 0.00154734 0 -0.00688153 0.00144483 0
-0.00688153 0.00144483 0 -0.00845743 0.00133214 0 -0.00845743 0.00133214 0 -0.00991626
0.00121788 -1.81828e-23 -0.00991626 0.00121788 -1.81828e-23 -0.01126 0.00110715 -3.55279e-23 -0.01126 0.00110715
-3.55279e-23 -0.0124934 0.0010025 -3.37558e-23 -0.0124934 0.0010025 -3.37558e-23 -0.0136222 0.000904971 -1.64594e-23
-0.0136222 0.000904971 -1.64594e-23 -0.0146524 0.000814584 1.47194e-23 -0.0146524 0.000814584 1.47194e-23 -0.01559
0.000730937 1.47621e-23 -0.01559 0.000730937 1.47621e-23 -0.0164403 0.000653453 -1.31746e-23 -0.0164403 0.000653453
-1.31746e-23 -0.0172082 0.000581545 -2.56863e-23 -0.0172082 0.000581545 -2.56863e-23 -0.0178977 0.000514508 -1.251e-23
-0.0178977 0.000514508 -1.251e-23 -0.0185124 0.000451487 0 -0.0185124 0.000451487 0 -0.0190546
0.000391775 0 -0.0190546 0.000391775 0 -0.0195265 0.000335064 -1.02367e-23 -0.0195265 0.000335064
-1.02367e-23 -0.0199298 0.000281253 -1.02684e-23 -0.0199298 0.000281253 -1.02684e-23 -0.0202664 0.00023027 0
-0.0202664 0.00023027 0 -0.0205379 0.000182121 0 -0.0205379 0.000182121 0 -0.0207462
0.000136928 0 -0.0207462 0.000136928 0 -0.020893 9.47869e-05 0 -0.020893 9.47869e-05
0 -0.0209804 5.57448e-05 0 -0.0209804 5.57448e-05 0 -0.0210111 1.98225e-05 0
-0.0210111 1.98225e-05 0 -0.0209919 -1.25756e-05 0 -0.0209919 -1.25756e-05 0 -0.0209271
-4.16475e-05 9.02642e-24 -0.0209271 -4.16475e-05 9.02642e-24 -0.0208185 -6.78543e-05 9.05675e-24 -0.0208185 -6.78543e-05
9.05675e-24 -0.0206699 -9.13556e-05 0 -0.0206699 -9.13556e-05 0 -0.0204843 -0.000112426 -9.60259e-24
-0.0204843 -0.000112426 -9.60259e-24 -0.0202651 -0.00013115 -1.94946e-23 -0.0202651 -0.00013115 -1.94946e-23 -0.0200152
-0.000147736 -9.89322e-24 -0.0200152 -0.000147736 -9.89322e-24 -0.0197376 -0.000162316 1.04353e-23 -0.0197376 -0.000162316
1.04353e-23 -0.019435 -0.000175067 -2.7397e-25 -0.019435 -0.000175067 -2.7397e-25 -0.0191099 -0.000186185 -1.07845e-23
-0.0191099 -0.000186185 -1.07845e-23 -0.0187646 -0.000195873 1.13953e-23 -0.0187646 -0.000195873 1.13953e-23 -0.018401
-0.000204405 1.14367e-23 -0.018401 -0.000204405 1.14367e-23 -0.0180204 -0.000212103 0 -0.0180204 -0.000212103
0 -0.0176238 -0.000219362 -1.2403e-23 -0.0176238 -0.000219362 -1.2403e-23 -0.0172113 -0.000226645 -1.24491e-23
-0.0172113 -0.000226645 -1.24491e-23 -0.0167822 -0.000234458 1.30839e-23 -0.0167822 -0.000234458 1.30839e-23 -0.0163347
-0.000243318 1.31333e-23 -0.0163347 -0.000243318 1.31333e-23 -0.0158663 -0.000253717 -1.377e-23 -0.0158663 -0.000253717
-1.377e-23 -0.0153733 -0.000266076 -2.79382e-23 -0.0153733 -0.000266076 -2.79382e-23 -0.0148513 -0.000280712 -2.86321e-23
-0.0148513 -0.000280712 -2.86321e-23 -0.0142951 -0.000297812 -4.41389e-23 -0.0142951 -0.000297812 -4.41389e-23 -0.0136992
-0.000317434 5.80354e-25 -0.0136992 -0.000317434 5.80354e-25 -0.0130578 -0.000339496 3.04371e-23 -0.0130578 -0.000339496
3.04371e-23 -0.0123652 -0.000363747 0 -0.0123652 -0.000363747 0 -0.0116164 -0.000389719 0
-0.0116164 -0.000389719 0 -0.0108078 -0.00041663 3.3036e-23 -0.0108078 -0.00041663 3.3036e-23 -0.00993771
-0.000443282 6.68326e-23 -0.00993771 -0.000443282 6.68326e-23 -0.00900765 -0.000468026 -4.41698e-25 -0.00900765 -0.000468026
-4.41698e-25 -0.00802273 -0.000488875 -3.43836e-23 -0.00802273 -0.000488875 -3.43836e-23 -0.00699246 -0.000503692 3.5195e-23
-0.00699246 -0.000503692 3.5195e-23 -0.00593071 -0.000510652 7.08756e-23 -0.00593071 -0.000510652 7.08756e-23 -0.00485397
-0.000509031 7.14438e-23 -0.00485397 -0.000509031 7.14438e-23 -0.00377825 -0.000499186 3.59131e-23 -0.00377825 -0.000499186
3.59131e-23 -0.00271704 -0.000482233 0 -0.00271704 -0.000482233 0 -0.00168125 -0.00046034 0
-0.00168125 -0.00046034 0 -0.000681428 -0.000435549 3.5588e-23 -0.000681428 -0.000435549 3.5588e-23 0.000272401
-0.000410289 3.57438e-23 0.000272401 -0.000410289 3.57438e-23 0.00117547 -0.000383241 0 0.00117547 -0.000383241
0 0.00202348 -0.000351753 -3.45326e-23 0.00202348 -0.000351753 -3.45326e-23 0.0028065 -0.000316331 -3.46868e-23
0.0028065 -0.000316331 -3.46868e-23 0.00351355 -0.000277688 0 0.00351355 -0.000277688 0 0.00413719
-0.000237669 -3.31489e-23 0.00413719 -0.000237669 -3.31489e-23 0.00467544 -0.000198594 -3.32998e-23 0.00467544 -0.000198594
-3.32998e-23 0.00513208 -0.00016246 0 0.00513208 -0.00016246 0 0.0055152 -0.000130607 3.17052e-23
0.0055152 -0.000130607 3.17052e-23 0.00583518 -0.000103796 6.30941e-23 0.00583518 -0.000103796 6.30941e-23 0.00610329
-8.23445e-05 3.13877e-23 0.00610329 -8.23445e-05 3.13877e-23 0.00633097 -6.6172e-05 -3.03556e-23 0.00633097 -6.6172e-05
-3.03556e-23 0.00652936 -5.47943e-05 -3.04992e-23 0.00652936 -5.47943e-05 -3.04992e-23 0.00670862 -4.73297e-05 2.95251e-23
0.00670862 -4.73297e-05 2.95251e-23 0.00687691 -4.25903e-05 2.96664e-23 0.00687691 -4.25903e-05 2.96664e-23 0.00703961
-3.92677e-05 2.87452e-23 0.00703961 -3.92677e-05 2.87452e-23 0.007199 -3.61079e-05 5.7256e-23 0.007199 -3.61079e-05
5.7256e-23 0.00735448 -3.2197e-05 2.85098e-23 0.00735448 -3.2197e-05 2.85098e-23 0.0075036 -2.72102e-05 0
0.0075036 -2.72102e-05 0 0.00764325 -2.11585e-05 0 0.00764325 -2.11585e-05 0 0.00777034
-1.42091e-05 0 0.00777034 -1.42091e-05 0 0.00788246 -7.03293e-06 0 0.00788246 -7.03293e-06
0 0.00797878 -2.9126e-07 0 0.00797878 -2.9126e-07 0 0.00805933 6.22486e-06 0
0.00805933 6.22486e-06 0 0.00812416 1.24393e-05 2.56483e-23 0.00812416 1.24393e-05 2.56483e-23 0.00817469
1.75841e-05 4.44675e-25 0.00817469 1.75841e-05 4.44675e-25 0.00821258 2.25684e-05 -2.54639e-23 0.00821258 2.25684e-05
-2.54639e-23 0.00823617 2.96108e-05 0 0.00823617 2.96108e-05 0 0.00824224 3.91895e-05 0
0.00824224 3.91895e-05 0 0.00822868 4.97294e-05 0 0.00822868 4.97294e-05 0 0.00819462
5.91639e-05 -4.76617e-23 0.00819462 5.91639e-05 -4.76617e-23 0.00814137 6.59502e-05 -4.79121e-23 0.00814137 6.59502e-05
-4.79121e-23 0.0080721 6.93551e-05 4.65092e-23 0.0080721 6.93551e-05 4.65092e-23 0.00799126 6.94479e-05 8.13887e-25
0.00799126 6.94479e-05 8.13887e-25 0.00790361 6.69917e-05 -4.6187e-23 0.00790361 6.69917e-05 -4.6187e-23 0.00781338
6.30932e-05 0 0.00781338 6.30932e-05 0 0.00772362 5.88063e-05 0 0.00772362 5.88063e-05
0 0.00763608 5.48995e-05 4.37326e-23 0.00763608 5.48995e-05 4.37326e-23 0.00755137 5.18276e-05 8.71642e-23
0.00755137 5.18276e-05 8.71642e-23 0.00746921 4.97928e-05 4.34298e-23 0.00746921 4.97928e-05 4.34298e-23 0.00738878
4.87965e-05 4.2131e-23 0.00738878 4.87965e-05 4.2131e-23 0.00730903 4.86561e-05 8.39691e-23 0.00730903 4.86561e-05
8.39691e-23 0.00722907 4.9016e-05 7.51507e-25 0.00722907 4.9016e-05 7.51507e-25 0.00714841 4.93998e-05 -4.13131e-23
0.00714841 4.93998e-05 -4.13131e-23 0.00706713 4.93212e-05 0 0.00706713 4.93212e-05 0 0.00698599
4.8413e-05 -3.95421e-23 0.00698599 4.8413e-05 -3.95421e-23 0.00690621 4.65062e-05 -3.97648e-23 0.00690621 4.65062e-05
-3.97648e-23 0.0068293 4.36416e-05 0 0.0068293 4.36416e-05 0 0.00675668 4.00282e-05 0
0.00675668 4.00282e-05 0 0.00668949 3.59635e-05 0 0.00668949 3.59635e-05 0 0.0066284
3.17499e-05 3.70402e-23 0.0066284 3.17499e-05 3.70402e-23 0.00657362 2.76416e-05 7.38033e-23 0.00657362 2.76416e-05
7.38033e-23 0.00652499 2.38217e-05 3.67611e-23 0.00652499 2.38217e-05 3.67611e-23 0.00648208 2.04001e-05 3.55791e-23
0.00648208 2.04001e-05 3.55791e-23 0.00644434 1.74258e-05 3.57861e-23 0.00644434 1.74258e-05 3.57861e-23 0.00641113
1.49039e-05 0 0.00641113 1.49039e-05 0 0.00638184 1.28123e-05 3.41432e-23 0.00638184 1.28123e-05
3.41432e-23 0.00635589 1.11114e-05 3.43441e-23 0.00635589 1.11114e-05 3.43441e-23 0.00633277 9.75195e-06 3.31983e-23
0.00633277 9.75195e-06 3.31983e-23 0.00631201 8.68287e-06 3.33952e-23 0.00631201 8.68287e-06 3.33952e-23 0.00629318
7.86153e-06 0 0.00629318 7.86153e-06 0 0.00627593 7.25749e-06 3.17984e-23 0.00627593 7.25749e-06
3.17984e-23 0.00625985 6.84963e-06 3.19891e-23 0.00625985 6.84963e-06 3.19891e-23 0.00624466 6.61265e-06 3.08765e-23
0.00624466 6.61265e-06 3.08765e-23 0.00622986 6.52347e-06 3.10629e-23 0.00622986 6.52347e-06 3.10629e-23 0.00621528