/*--------------------------------*- C++ -*----------------------------------*\
  =========                 |
  \\      /  F ield         | OpenFOAM: The Open Source CFD Toolbox
   \\    /   O peration     | Website:  https://openfoam.org
    \\  /    A nd           | Version:  9
     \\/     M anipulation  |
\*---------------------------------------------------------------------------*/
FoamFile
{
    format      ascii;
    class       volScalarField;
    location    "0.028";
    object      pMean;
}
// * * * * * * * * * * * * * * * * * * * * * * * * * * * * * * * * * * * * * //

dimensions      [0 2 -2 0 0 0 0];

internalField   nonuniform List<scalar> 
12225
(
-4.29731
-4.84951
-5.12605
-5.21143
-5.22952
-5.22936
-5.21798
-5.18987
-5.14022
-5.06535
-4.96433
-4.83187
-4.66804
-4.46133
-4.21885
-3.92067
-3.60433
-3.25352
-4.53795
-4.88098
-5.1285
-5.22149
-5.24135
-5.24
-5.2282
-5.20067
-5.15219
-5.07892
-4.97991
-4.85079
-4.69107
-4.49247
-4.25865
-3.98159
-3.69119
-3.44124
-4.57321
-4.88657
-5.12265
-5.22595
-5.25146
-5.25028
-5.2384
-5.21215
-5.1659
-5.09584
-5.00086
-4.87819
-4.72684
-4.54327
-4.32946
-4.09179
-3.85495
-3.67523
-4.73213
-4.93728
-5.13328
-5.23869
-5.26931
-5.26778
-5.25473
-5.22917
-5.18536
-5.1191
-5.02931
-4.91432
-4.77388
-4.60725
-4.41831
-4.21768
-4.02664
-3.88092
-4.84049
-4.97804
-5.14021
-5.24617
-5.2844
-5.28544
-5.27224
-5.24778
-5.20705
-5.1457
-5.06238
-4.95658
-4.82881
-4.68062
-4.51718
-4.34931
-4.19353
-4.07019
-4.92189
-5.02624
-5.1585
-5.25866
-5.30296
-5.30785
-5.29525
-5.27191
-5.23456
-5.17884
-5.10318
-5.00784
-4.89428
-4.76538
-4.62678
-4.48792
-4.36126
-4.26014
-5.03846
-5.09431
-5.18995
-5.27863
-5.3255
-5.33434
-5.32317
-5.30119
-5.26735
-5.21783
-5.15086
-5.06707
-4.96867
-4.85928
-4.74455
-4.63236
-4.5324
-4.45413
-5.09072
-5.13423
-5.21436
-5.29587
-5.34614
-5.36067
-5.35307
-5.33418
-5.30531
-5.26327
-5.20631
-5.13531
-5.05303
-4.96334
-4.87158
-4.78439
-4.70949
-4.65391
-5.22693
-5.21825
-5.26371
-5.33113
-5.37849
-5.39526
-5.39094
-5.37531
-5.35108
-5.31642
-5.26986
-5.21234
-5.1466
-5.07657
-5.00721
-4.94411
-4.8934
-4.86032
-5.2678
-5.25854
-5.29621
-5.35672
-5.4052
-5.42821
-5.43005
-5.42003
-5.40237
-5.37652
-5.34156
-5.2984
-5.24984
-5.1996
-5.15221
-5.11236
-5.08497
-5.07408
-5.30641
-5.32513
-5.36112
-5.40826
-5.44915
-5.47171
-5.47744
-5.47315
-5.46248
-5.44563
-5.42228
-5.39355
-5.362
-5.33115
-5.30492
-5.28737
-5.28238
-5.2934
-5.39494
-5.37674
-5.39653
-5.44198
-5.485
-5.51157
-5.52331
-5.52603
-5.52314
-5.5155
-5.50358
-5.48866
-5.47306
-5.45988
-5.45257
-5.45466
-5.46946
-5.50002
-5.42166
-5.42846
-5.45763
-5.49765
-5.53426
-5.56013
-5.57599
-5.58543
-5.59041
-5.59192
-5.59118
-5.58979
-5.58977
-5.59372
-5.60461
-5.62547
-5.65919
-5.70821
-5.43177
-5.48219
-5.52087
-5.55478
-5.58681
-5.6151
-5.63886
-5.65781
-5.67286
-5.6857
-5.69819
-5.71209
-5.72928
-5.75196
-5.78258
-5.8237
-5.87755
-5.94609
-5.53464
-5.56177
-5.59286
-5.62555
-5.65934
-5.69254
-5.7232
-5.75098
-5.7769
-5.80276
-5.8304
-5.8614
-5.89738
-5.94009
-5.99151
-6.05357
-6.12821
-6.2172
-5.66022
-5.66855
-5.68677
-5.71392
-5.74679
-5.78244
-5.81978
-5.85804
-5.89721
-5.93827
-5.98274
-6.03218
-6.08796
-6.15138
-6.22395
-6.30707
-6.402
-6.50943
-5.74381
-5.74713
-5.76838
-5.80482
-5.84691
-5.89196
-5.94024
-5.99124
-6.0448
-6.10201
-6.16434
-6.23281
-6.30835
-6.39194
-6.48465
-6.58734
-6.70107
-6.82648
-5.97396
-5.9319
-5.91859
-5.93425
-5.9702
-6.02066
-6.07935
-6.14182
-6.2077
-6.27918
-6.35796
-6.44436
-6.53829
-6.63996
-6.75003
-6.8689
-6.9969
-7.13385
-5.88168
-5.91882
-5.96375
-6.01462
-6.07287
-6.13898
-6.21204
-6.29082
-6.37496
-6.46485
-6.56115
-6.66414
-6.77384
-6.89029
-7.01371
-7.14418
-7.28179
-7.42632
-6.09527
-6.07103
-6.07881
-6.11791
-6.17846
-6.25059
-6.33022
-6.41668
-6.50949
-6.60855
-6.71411
-6.82603
-6.94399
-7.06773
-7.19718
-7.33214
-7.47234
-7.61724
-6.06715
-6.05724
-6.08646
-6.14982
-6.22812
-6.31155
-6.39915
-6.49239
-6.59212
-6.69826
-6.81034
-6.92801
-7.05088
-7.17861
-7.31091
-7.44751
-7.58796
-7.73192
-6.04361
-6.0645
-6.10817
-6.17647
-6.25823
-6.34729
-6.4415
-6.54052
-6.6456
-6.75701
-6.87397
-6.99573
-7.12176
-7.25175
-7.38545
-7.52245
-7.66234
-7.80455
-5.97021
-6.03271
-6.1098
-6.19386
-6.28376
-6.37795
-6.47612
-6.57937
-6.68825
-6.80267
-6.92215
-7.046
-7.17373
-7.3049
-7.43904
-7.57557
-7.71405
-7.85397
-5.94848
-5.99734
-6.08219
-6.18488
-6.2879
-6.38756
-6.48849
-6.59459
-6.70725
-6.82568
-6.94846
-7.07452
-7.20351
-7.33533
-7.46973
-7.60617
-7.74408
-7.8829
-5.9433
-5.98898
-6.08269
-6.19508
-6.30328
-6.40433
-6.50587
-6.61333
-6.72755
-6.84736
-6.97107
-7.09774
-7.22716
-7.35917
-7.49341
-7.62929
-7.76609
-7.90319
-5.79936
-5.92642
-6.06218
-6.18766
-6.29844
-6.40084
-6.50491
-6.61572
-6.73301
-6.85494
-6.98015
-7.10793
-7.23807
-7.37049
-7.50482
-7.64043
-7.77672
-7.91317
-5.77363
-5.90748
-6.06454
-6.19814
-6.3065
-6.40645
-6.51105
-6.62356
-6.74205
-6.86444
-6.98976
-7.11768
-7.24803
-7.38057
-7.51486
-7.65022
-7.78596
-7.92132
-5.73773
-5.86758
-6.04454
-6.18991
-6.29978
-6.40026
-6.50718
-6.62207
-6.74204
-6.86523
-6.99113
-7.11948
-7.25011
-7.3827
-7.51682
-7.65182
-7.78714
-7.9224
-5.67336
-5.86101
-6.05469
-6.19386
-6.29904
-6.4
-6.50842
-6.624
-6.74417
-6.86755
-6.99373
-7.12239
-7.25333
-7.38614
-7.52042
-7.6553
-7.79028
-7.92448
-5.47022
-5.83135
-6.05944
-6.19004
-6.29228
-6.39545
-6.50562
-6.62171
-6.742
-6.86554
-6.99191
-7.12075
-7.25182
-7.38467
-7.51895
-7.65362
-7.78823
-7.92131
-11.6542
-11.6844
-11.6954
-11.6924
-11.7229
-11.8486
-12.1032
-12.4894
-12.9786
-13.5247
-14.0728
-14.5701
-14.9722
-15.2482
-15.3834
-15.3808
-15.2583
-15.044
-14.7766
-14.4988
-14.2551
-14.0765
-13.9922
-13.968
-14.0209
-14.0577
-14.1576
-14.2976
-14.4446
-14.6383
-14.8799
-15.2528
-15.9126
-17.0053
-18.6354
-20.7799
-23.2473
-25.8669
-28.5005
-31.0382
-33.3949
-35.5052
-37.3199
-38.8036
-39.9326
-40.6927
-41.0783
-41.0924
-40.7481
-40.0668
-39.077
-37.8119
-36.3074
-34.6011
-32.7304
-30.7316
-28.6388
-26.4831
-24.2925
-22.0909
-19.8982
-17.7302
-15.5985
-13.5107
-11.4713
-9.4823
-7.54457
-5.65859
-3.82535
-2.04687
-0.326388
1.33176
2.92246
4.44029
5.88001
7.23722
8.50911
9.69506
10.7971
11.8196
12.7689
13.6523
14.4774
15.2512
15.9795
16.6659
17.3119
17.9165
18.4765
18.987
19.4423
19.8362
20.1644
20.4238
20.6145
20.7385
20.8005
20.8072
20.7671
20.6884
20.5794
20.4476
20.2999
20.1417
19.9778
19.8118
19.6468
19.4849
19.3279
19.1771
19.0333
18.897
18.7684
18.6477
18.5347
18.4292
18.3309
18.2395
18.1546
18.0758
18.0027
17.9349
17.8721
17.814
17.7604
17.7109
17.6653
17.6232
17.5845
17.5489
17.5161
17.4858
17.458
17.4324
17.4088
17.387
17.3671
17.3487
17.332
17.3166
17.3027
17.29
17.2785
17.2682
17.2589
17.2505
17.2431
17.2364
17.2305
17.2253
17.2207
17.2166
17.2131
17.2101
17.2075
17.2054
17.2038
17.2026
17.2019
17.2017
17.2021
17.2032
17.205
17.2078
17.2116
17.2168
17.2236
17.2326
17.2441
17.2594
17.2789
17.3049
17.3381
17.3835
17.4421
17.5249
17.6342
17.7966
18.0188
18.3516
-12.0131
-12.0729
-12.1166
-12.1306
-12.1802
-12.3339
-12.6224
-13.0399
-13.5551
-14.1204
-14.684
-15.1967
-15.6167
-15.9123
-16.0642
-16.0655
-15.9261
-15.6718
-15.3404
-14.9763
-14.6271
-14.3403
-14.1482
-14.0625
-14.0686
-14.2049
-14.3568
-14.6929
-15.1192
-15.6468
-16.317
-17.2096
-18.2924
-19.5738
-21.2522
-23.3426
-25.6981
-28.1736
-30.6453
-33.0173
-35.2134
-37.1742
-38.8524
-40.2112
-41.2238
-41.8731
-42.1531
-42.0686
-41.6335
-40.8677
-39.7978
-38.4562
-36.8797
-35.1068
-33.1757
-31.1231
-28.9828
-26.7858
-24.5597
-22.3282
-20.1114
-17.9248
-15.7797
-13.6833
-11.6391
-9.64816
-7.71002
-5.82402
-3.99013
-2.20975
-0.485731
1.17759
2.77496
4.30058
5.74871
7.11429
8.39388
9.58631
10.6933
11.7193
12.6708
13.5557
14.3818
15.1568
15.8867
16.5755
17.2248
17.8337
18.3989
18.9153
19.3767
19.7769
20.111
20.3757
20.5707
20.6982
20.7629
20.7716
20.7333
20.6562
20.5488
20.4187
20.2728
20.1165
19.9546
19.7906
19.6275
19.4675
19.3122
19.1629
19.0205
18.8854
18.758
18.6383
18.5261
18.4214
18.3237
18.2328
18.1483
18.0698
17.9971
17.9297
17.8673
17.8097
17.7565
17.7075
17.6622
17.6205
17.5821
17.5467
17.5141
17.4841
17.4565
17.431
17.4076
17.386
17.3662
17.348
17.3314
17.3162
17.3023
17.2897
17.2783
17.268
17.2588
17.2505
17.243
17.2364
17.2305
17.2253
17.2206
17.2166
17.2131
17.21
17.2075
17.2053
17.2037
17.2025
17.2018
17.2015
17.2019
17.2029
17.2046
17.2073
17.211
17.216
17.2226
17.2314
17.2427
17.2574
17.2765
17.3014
17.3339
17.3769
17.4341
17.5105
17.6159
17.7553
17.9487
18.1492
-12.217
-12.2845
-12.4054
-12.5524
-12.7616
-13.0742
-13.5037
-14.0363
-14.6376
-15.2627
-15.8639
-16.3946
-16.8135
-17.0882
-17.1963
-17.1338
-16.9169
-16.5761
-16.1518
-15.6847
-15.214
-14.7784
-14.4285
-14.2306
-14.1736
-14.3867
-14.7933
-15.3633
-16.1854
-17.2283
-18.3958
-19.7544
-21.3236
-23.0563
-24.9532
-27.012
-29.1904
-31.4269
-33.6503
-35.7922
-37.7877
-39.5783
-41.1119
-42.3449
-43.2433
-43.7856
-43.9627
-43.773
-43.224
-42.3365
-41.141
-39.6736
-37.974
-36.0834
-34.042
-31.8884
-29.6577
-27.3813
-25.0868
-22.7978
-20.5343
-18.3116
-16.1409
-14.0283
-11.9759
-9.9825
-8.0451
-6.16061
-4.3269
-2.54383
-0.813563
0.859706
2.47035
4.01183
5.47728
6.86032
8.15605
9.36221
10.4798
11.5134
12.4699
13.358
14.1866
14.9642
15.6974
16.391
17.0469
17.6643
18.2397
18.7676
19.2413
19.6539
19.9997
20.2749
20.4786
20.613
20.6829
20.6962
20.6615
20.5877
20.4836
20.3571
20.2149
20.0627
19.905
19.7452
19.5861
19.4299
19.2782
19.1322
18.9928
18.8605
18.7356
18.6181
18.508
18.405
18.309
18.2195
18.1364
18.0591
17.9875
17.9211
17.8596
17.8028
17.7503
17.7018
17.6572
17.616
17.578
17.5431
17.5109
17.4813
17.454
17.4288
17.4057
17.3845
17.365
17.3471
17.3307
17.3157
17.302
17.2896
17.2783
17.2681
17.259
17.2507
17.2433
17.2366
17.2307
17.2255
17.2208
17.2168
17.2132
17.2101
17.2075
17.2054
17.2037
17.2024
17.2016
17.2014
17.2016
17.2025
17.2041
17.2066
17.2101
17.2149
17.2212
17.2294
17.2402
17.2541
17.2722
17.2956
17.3263
17.366
17.4191
17.4871
17.5799
17.6917
17.8388
17.9584
-12.27
-12.388
-12.6535
-13.0301
-13.4947
-14.0429
-14.6713
-15.3612
-16.0817
-16.794
-17.4525
-18.0098
-18.4216
-18.6516
-18.6772
-18.5032
-18.156
-17.6804
-17.1291
-16.5546
-16.0025
-15.5268
-15.1717
-15.0148
-15.1476
-15.5392
-16.2425
-17.2154
-18.3777
-19.7451
-21.2878
-22.9711
-24.7785
-26.6923
-28.697
-30.7715
-32.8914
-35.0225
-37.1209
-39.1342
-41.0058
-42.6794
-44.1023
-45.2284
-46.0202
-46.4498
-46.4997
-46.1641
-45.4551
-44.3976
-43.0254
-41.3794
-39.5043
-37.4456
-35.2479
-32.9522
-30.595
-28.208
-25.8183
-23.4492
-21.1202
-18.8472
-16.6412
-14.5076
-12.4462
-10.4528
-8.5207
-6.64274
-4.8132
-3.02945
-1.29249
0.393576
2.02244
3.5864
5.07709
6.4861
7.80639
9.03378
10.1683
11.2141
12.179
13.0726
13.9053
14.6867
15.4247
16.1249
16.7898
17.4188
18.0081
18.5519
19.0426
19.4725
19.8347
20.1247
20.3409
20.4854
20.5636
20.5835
20.5544
20.4859
20.387
20.266
20.1298
19.9838
19.8325
19.679
19.5261
19.3757
19.2294
19.0884
18.9535
18.8253
18.7041
18.5899
18.4828
18.3825
18.2888
18.2014
18.1201
18.0445
17.9742
17.9091
17.8489
17.7931
17.7415
17.6939
17.65
17.6095
17.5722
17.5378
17.5062
17.477
17.4502
17.4255
17.4028
17.3819
17.3627
17.3451
17.329
17.3143
17.3009
17.2886
17.2775
17.2675
17.2584
17.2502
17.2429
17.2363
17.2304
17.2252
17.2206
17.2165
17.213
17.2099
17.2073
17.2051
17.2034
17.2021
17.2013
17.2009
17.2011
17.2018
17.2033
17.2056
17.2088
17.2132
17.2191
17.2268
17.2369
17.2498
17.2667
17.2882
17.3165
17.3524
17.4
17.4591
17.5369
17.6248
17.7299
17.7954
-12.4515
-12.6981
-13.1719
-13.764
-14.4402
-15.188
-15.9921
-16.8314
-17.6777
-18.4914
-19.2197
-19.8053
-20.1974
-20.3544
-20.2612
-19.9374
-19.4362
-18.8261
-18.1786
-17.5587
-17.0189
-16.6032
-16.3789
-16.4104
-16.7522
-17.4315
-18.4268
-19.6992
-21.1799
-22.8119
-24.5617
-26.4042
-28.3276
-30.3251
-32.3878
-34.4981
-36.6326
-38.7601
-40.842
-42.8312
-44.6739
-46.3133
-47.6937
-48.7628
-49.4748
-49.7923
-49.6938
-49.1824
-48.2748
-46.9991
-45.3963
-43.5164
-41.4125
-39.1372
-36.7397
-34.2638
-31.7473
-29.2213
-26.7118
-24.2406
-21.8267
-19.4865
-17.232
-15.0693
-12.9968
-11.0071
-9.08828
-7.22682
-5.41111
-3.63441
-1.89568
-0.198984
1.44855
3.03792
4.55896
6.00059
7.35263
8.60805
9.76504
10.8275
11.8041
12.7057
13.5444
14.3313
15.0758
15.7844
16.4604
17.1033
17.7093
18.2719
18.7828
19.2334
19.6157
19.924
20.1559
20.3133
20.4021
20.431
20.4099
20.3489
20.2575
20.1442
20.016
19.8784
19.7356
19.5907
19.4459
19.3032
19.164
19.0296
18.9007
18.7779
18.6616
18.5518
18.4486
18.3518
18.2612
18.1766
18.0977
18.0243
17.956
17.8926
17.8339
17.7796
17.7293
17.683
17.6402
17.6007
17.5643
17.5307
17.4998
17.4713
17.4451
17.4209
17.3987
17.3783
17.3596
17.3424
17.3267
17.3123
17.2992
17.2872
17.2763
17.2665
17.2576
17.2495
17.2423
17.2358
17.23
17.2249
17.2203
17.2163
17.2127
17.2097
17.207
17.2048
17.2031
17.2017
17.2008
17.2004
17.2004
17.2011
17.2023
17.2043
17.2073
17.2113
17.2167
17.2237
17.2329
17.2447
17.26
17.2795
17.3048
17.3365
17.3777
17.4275
17.4899
17.5559
17.6252
17.6531
-13.1422
-13.4651
-14.0184
-14.699
-15.4832
-16.351
-17.2777
-18.2391
-19.2029
-20.1172
-20.9117
-21.5154
-21.8692
-21.9344
-21.7111
-21.2488
-20.6257
-19.9312
-19.2554
-18.6726
-18.2337
-17.9887
-17.9867
-18.2685
-18.8792
-19.819
-21.0589
-22.5409
-24.1962
-25.9737
-27.8425
-29.7865
-31.7992
-33.8768
-36.0141
-38.199
-40.4115
-42.6215
-44.7897
-46.8663
-48.7927
-50.503
-51.9265
-52.9959
-53.6552
-53.8691
-53.6228
-52.9147
-51.7653
-50.2146
-48.3165
-46.1332
-43.7306
-41.1729
-38.5173
-35.8125
-33.0976
-30.4027
-27.7503
-25.1573
-22.639
-20.2107
-17.8869
-15.6768
-13.58
-11.5871
-9.68148
-7.84305
-6.05257
-4.29627
-2.56854
-0.87161
0.787088
2.39761
3.94811
5.42459
6.81305
8.10226
9.28718
10.3706
11.3618
12.2735
13.1199
13.914
14.6667
15.3854
16.0738
16.7319
17.3556
17.9381
18.4706
18.9435
19.3478
19.6764
19.9258
20.0981
20.1994
20.239
20.2281
20.1774
20.0964
19.9937
19.8761
19.7492
19.6171
19.4827
19.348
19.2148
19.0844
18.958
18.8365
18.7204
18.6101
18.5057
18.4072
18.3147
18.2279
18.1467
18.0709
18.0002
17.9344
17.8732
17.8164
17.7639
17.7153
17.6703
17.6287
17.5903
17.5549
17.5223
17.4922
17.4645
17.4389
17.4154
17.3938
17.3739
17.3557
17.339
17.3237
17.3097
17.2969
17.2853
17.2747
17.2651
17.2563
17.2485
17.2414
17.235
17.2293
17.2242
17.2197
17.2157
17.2122
17.2092
17.2066
17.2044
17.2026
17.2012
17.2002
17.1997
17.1996
17.2
17.2011
17.2028
17.2054
17.209
17.2138
17.2201
17.2283
17.2388
17.2523
17.2694
17.2914
17.3186
17.353
17.3933
17.4408
17.4873
17.5275
17.5288
-13.9951
-14.3047
-14.7948
-15.4525
-16.2539
-17.1616
-18.1438
-19.173
-20.2088
-21.1824
-22.0055
-22.5987
-22.9048
-22.8966
-22.5996
-22.0855
-21.4499
-20.7954
-20.2143
-19.7764
-19.5306
-19.5176
-19.7711
-20.325
-21.191
-22.3527
-23.7689
-25.3804
-27.1383
-29.009
-30.9696
-33.0087
-35.1229
-37.3123
-39.5759
-41.907
-44.2893
-46.6933
-49.0748
-51.3733
-53.5142
-55.4106
-56.9715
-58.1141
-58.7732
-58.9083
-58.501
-57.5577
-56.1088
-54.2072
-51.9232
-49.3389
-46.5402
-43.6088
-40.6154
-37.6158
-34.651
-31.7494
-28.9286
-26.1978
-23.5634
-21.0347
-18.6252
-16.3476
-14.2053
-12.1901
-10.2837
-8.46135
-6.69645
-4.967
-3.25987
-1.57281
0.087703
1.71077
3.28325
4.78958
6.21278
7.53732
8.75375
9.86232
10.8717
11.7966
12.6531
13.4563
14.2185
14.9479
15.6492
16.3223
16.9635
17.5652
18.118
18.6116
19.0365
19.3844
19.6518
19.8404
19.9562
20.009
20.0104
19.9721
19.9043
19.8151
19.7111
19.5975
19.4783
19.3563
19.2335
19.1113
18.9912
18.8742
18.7612
18.6528
18.5494
18.4512
18.3584
18.2708
18.1885
18.1113
18.039
17.9714
17.9084
17.8498
17.7953
17.7448
17.6979
17.6546
17.6146
17.5776
17.5435
17.512
17.4829
17.4561
17.4314
17.4086
17.3877
17.3685
17.3509
17.3347
17.3199
17.3064
17.294
17.2828
17.2725
17.2632
17.2547
17.2471
17.2402
17.2339
17.2284
17.2234
17.219
17.215
17.2116
17.2086
17.206
17.2038
17.2019
17.2005
17.1995
17.1988
17.1986
17.1989
17.1997
17.2011
17.2033
17.2064
17.2105
17.216
17.2231
17.2321
17.2438
17.2583
17.2768
17.2992
17.3266
17.3575
17.3913
17.4206
17.4376
17.4189
-14.3843
-14.633
-15.0534
-15.6544
-16.408
-17.2727
-18.2204
-19.226
-20.2471
-21.2054
-22.0046
-22.5646
-22.8432
-22.8362
-22.5844
-22.1634
-21.6708
-21.2053
-20.8492
-20.6608
-20.677
-20.9288
-21.4481
-22.2555
-23.3478
-24.6981
-26.2593
-27.985
-29.8418
-31.8056
-33.8636
-36.0135
-38.261
-40.616
-43.0864
-45.6712
-48.3548
-51.1013
-53.8528
-56.5292
-59.031
-61.2461
-63.0616
-64.3709
-65.086
-65.1511
-64.5505
-63.3059
-61.4633
-59.097
-56.304
-53.1941
-49.8797
-46.4654
-43.0389
-39.6657
-36.3884
-33.2324
-30.2104
-27.324
-24.568
-21.9396
-19.4446
-17.0952
-14.8979
-12.8468
-10.9235
-9.10038
-7.34681
-5.63509
-3.94496
-2.2684
-0.610271
1.01873
2.6052
4.13311
5.58355
6.93749
8.18201
9.31533
10.3453
11.287
12.1576
12.9735
13.7479
14.49
15.2055
15.8936
16.5499
17.1669
17.7353
18.2448
18.6861
19.051
19.3355
19.541
19.6737
19.7433
19.7609
19.7385
19.6864
19.6131
19.5251
19.427
19.3227
19.2148
19.1052
18.9954
18.8866
18.7801
18.6765
18.5767
18.481
18.3898
18.3031
18.2211
18.1438
18.071
18.0027
17.9387
17.8789
17.8232
17.7713
17.7232
17.6785
17.6372
17.5989
17.5634
17.5307
17.5004
17.4725
17.4467
17.423
17.4011
17.3809
17.3624
17.3454
17.3299
17.3156
17.3026
17.2907
17.2798
17.2699
17.2609
17.2527
17.2453
17.2386
17.2326
17.2272
17.2223
17.218
17.2142
17.2108
17.2078
17.2052
17.203
17.2012
17.1997
17.1986
17.1978
17.1975
17.1976
17.1981
17.1992
17.201
17.2035
17.2069
17.2115
17.2174
17.2249
17.2345
17.2464
17.2611
17.2787
17.2992
17.3211
17.3425
17.3567
17.3553
17.3209
-14.1732
-14.3654
-14.7123
-15.2247
-15.8755
-16.627
-17.4559
-18.3449
-19.2597
-20.1249
-20.8507
-21.3752
-21.6775
-21.7644
-21.6751
-21.4774
-21.2554
-21.0904
-21.0465
-21.1657
-21.4783
-22.016
-22.8064
-23.861
-25.1696
-26.6994
-28.4079
-30.2595
-32.2286
-34.3008
-36.4779
-38.7748
-41.2142
-43.8197
-46.6073
-49.5782
-52.711
-55.9565
-59.2363
-62.4443
-65.4514
-68.1142
-70.2829
-71.8176
-72.6111
-72.6056
-71.7882
-70.1844
-67.8612
-64.923
-61.5004
-57.7385
-53.7834
-49.7688
-45.8047
-41.9691
-38.3074
-34.8401
-31.5733
-28.5012
-25.6085
-22.8791
-20.306
-17.8941
-15.6481
-13.5609
-11.6126
-9.77476
-8.01559
-6.30468
-4.6184
-2.94512
-1.28786
0.343763
1.93795
3.47895
4.94623
6.31861
7.58207
8.7356
9.78686
10.7497
11.6404
12.4749
13.2667
14.0259
14.7571
15.4591
16.1271
16.7541
17.3316
17.851
18.304
18.6829
18.9833
19.2058
19.3568
19.4461
19.4839
19.4811
19.4482
19.3935
19.3232
19.2422
19.154
19.0613
18.9658
18.8692
18.7727
18.6772
18.5838
18.4931
18.4057
18.3219
18.2419
18.1659
18.094
18.026
17.9621
17.9021
17.8459
17.7934
17.7444
17.6989
17.6566
17.6173
17.581
17.5473
17.5161
17.4873
17.4607
17.436
17.4133
17.3924
17.3731
17.3554
17.3391
17.3242
17.3106
17.2982
17.2868
17.2764
17.2669
17.2583
17.2504
17.2433
17.2368
17.231
17.2258
17.2211
17.2169
17.2131
17.2098
17.2069
17.2044
17.2022
17.2003
17.1988
17.1976
17.1968
17.1962
17.1961
17.1964
17.1972
17.1985
17.2004
17.2031
17.2066
17.2113
17.2172
17.2247
17.2338
17.2448
17.2574
17.2713
17.2848
17.295
17.2963
17.2801
17.2331
-13.439
-13.5804
-13.8546
-14.2664
-14.7873
-15.3873
-16.047
-16.7556
-17.4915
-18.2027
-18.8261
-19.326
-19.693
-19.937
-20.0896
-20.2
-20.3246
-20.5165
-20.8179
-21.2625
-21.8842
-22.7163
-23.7816
-25.0855
-26.6104
-28.3222
-30.1849
-32.171
-34.2648
-36.4693
-38.8062
-41.3096
-44.0204
-46.9744
-50.1912
-53.6661
-57.3651
-61.2204
-65.1286
-68.9528
-72.5311
-75.6851
-78.2347
-80.018
-80.9134
-80.8528
-79.8202
-77.8469
-75.0162
-71.46
-67.3458
-62.8588
-58.1825
-53.4838
-48.9001
-44.5272
-40.4158
-36.5833
-33.0273
-29.7342
-26.6797
-23.8355
-21.1819
-18.7121
-16.4226
-14.3015
-12.3255
-10.4653
-8.68901
-6.96673
-5.27454
-3.60036
-1.94325
-0.310124
1.28784
2.83396
4.30663
5.68517
6.95864
8.12815
9.20174
10.1913
11.11
11.9714
12.7877
13.5678
14.3152
15.0284
15.7032
16.3338
16.9145
17.4391
17.9005
18.2915
18.6073
18.8483
19.02
19.1306
19.1897
19.2079
19.1955
19.1609
19.1102
19.0474
18.9762
18.8993
18.8186
18.7356
18.6516
18.5676
18.4846
18.4034
18.3246
18.2485
18.1756
18.106
18.0397
17.977
17.9178
17.862
17.8097
17.7607
17.7149
17.6722
17.6325
17.5956
17.5614
17.5296
17.5002
17.4729
17.4477
17.4243
17.4028
17.3829
17.3645
17.3477
17.3322
17.3181
17.3051
17.2933
17.2824
17.2725
17.2635
17.2553
17.2478
17.2409
17.2348
17.2292
17.2241
17.2196
17.2155
17.2119
17.2087
17.2059
17.2034
17.2012
17.1993
17.1978
17.1965
17.1956
17.1949
17.1946
17.1946
17.195
17.1958
17.1971
17.199
17.2016
17.2049
17.2092
17.2145
17.2208
17.2281
17.2359
17.2435
17.2491
17.2495
17.2395
17.2114
17.1543
-12.3608
-12.4706
-12.6887
-13.0148
-13.4239
-13.89
-14.3958
-14.9326
-15.4918
-16.0513
-16.5827
-17.0715
-17.5143
-17.9196
-18.3076
-18.7073
-19.1507
-19.6684
-20.2887
-21.0425
-21.9639
-23.0825
-24.4154
-25.9591
-27.6907
-29.5782
-31.5937
-33.7212
-35.9609
-38.3345
-40.8817
-43.6528
-46.6999
-50.0631
-53.7572
-57.7661
-62.0386
-66.4868
-70.9867
-75.381
-79.4854
-83.0978
-86.0131
-88.0449
-89.0518
-88.9554
-87.7394
-85.44
-82.1528
-78.0313
-73.2744
-68.1012
-62.7293
-57.3575
-52.1506
-47.2271
-42.6468
-38.4279
-34.5628
-31.0285
-27.7929
-24.817
-22.0712
-19.5373
-17.2012
-15.0424
-13.0338
-11.1451
-9.34648
-7.61092
-5.91281
-4.23615
-2.57762
-0.943614
0.653037
2.19494
3.66246
5.03938
6.31973
7.50612
8.60587
9.62766
10.5808
11.4752
12.3201
13.1217
13.8823
14.6011
15.2762
15.9055
16.4866
17.0156
17.4857
17.8891
18.22
18.479
18.6719
18.8062
18.8887
18.928
18.9354
18.9206
18.8894
18.8456
18.792
18.7313
18.6656
18.5964
18.525
18.4525
18.38
18.3084
18.2383
18.1703
18.1047
18.0417
17.9815
17.9243
17.87
17.8188
17.7705
17.7252
17.6828
17.6432
17.6063
17.572
17.5401
17.5104
17.4828
17.4572
17.4335
17.4115
17.3912
17.3725
17.3552
17.3393
17.3247
17.3113
17.299
17.2878
17.2776
17.2682
17.2597
17.2519
17.2448
17.2383
17.2324
17.2271
17.2223
17.2179
17.2141
17.2106
17.2075
17.2047
17.2023
17.2001
17.1983
17.1967
17.1953
17.1943
17.1935
17.1929
17.1926
17.1926
17.193
17.1937
17.1948
17.1963
17.1984
17.2009
17.204
17.2075
17.2112
17.2145
17.2162
17.2145
17.2062
17.1866
17.1486
17.0834
-11.1183
-11.2102
-11.3932
-11.6672
-12.0108
-12.3991
-12.8137
-13.246
-13.6958
-14.1612
-14.6406
-15.1322
-15.6386
-16.1663
-16.7271
-17.3369
-18.0137
-18.7775
-19.6525
-20.667
-21.849
-23.2195
-24.7858
-26.5367
-28.4493
-30.499
-32.6676
-34.9506
-37.3612
-39.9341
-42.7189
-45.7709
-49.142
-52.8675
-56.9531
-61.3738
-66.0717
-70.9524
-75.8844
-80.6995
-85.1974
-89.1546
-92.3453
-94.5667
-95.6674
-95.5643
-94.2391
-91.7255
-88.1234
-83.6015
-78.381
-72.7012
-66.8039
-60.9106
-55.2049
-49.8227
-44.8339
-40.2646
-36.1089
-32.3413
-28.9229
-25.8104
-22.9662
-20.3614
-17.9712
-15.7678
-13.7216
-11.8046
-9.98779
-8.24073
-6.53413
-4.85099
-3.18949
-1.55727
0.032229
1.56346
3.02202
4.39795
5.68833
6.89521
8.02326
9.07793
10.0652
10.9914
11.862
12.6807
13.4492
14.1688
14.842
15.4713
16.0566
16.5935
17.0741
17.4897
17.8348
18.1097
18.3206
18.4757
18.5811
18.6434
18.672
18.6768
18.6646
18.6392
18.6032
18.5588
18.508
18.4526
18.3937
18.3327
18.2707
18.2088
18.1477
18.0879
18.0297
17.9736
17.9197
17.8682
17.8192
17.7727
17.7287
17.6874
17.6486
17.6122
17.5783
17.5466
17.5171
17.4897
17.4641
17.4403
17.4183
17.3978
17.3788
17.3613
17.3451
17.3302
17.3165
17.304
17.2925
17.282
17.2724
17.2636
17.2555
17.2482
17.2415
17.2354
17.2298
17.2248
17.2202
17.2161
17.2124
17.2091
17.2061
17.2034
17.2011
17.199
17.1971
17.1955
17.1941
17.1929
17.1919
17.1912
17.1906
17.1902
17.1901
17.1901
17.1904
17.1909
17.1916
17.1925
17.1935
17.1943
17.1944
17.1933
17.1896
17.1813
17.1654
17.1374
17.0912
17.0195
-9.83909
-9.92079
-10.0861
-10.3336
-10.6465
-11.0028
-11.3845
-11.783
-12.199
-12.6389
-13.1105
-13.6207
-14.1762
-14.7853
-15.4576
-16.2046
-17.0402
-17.9818
-19.0502
-20.2675
-21.6535
-23.2204
-24.9682
-26.8836
-28.9486
-31.1462
-33.465
-35.9059
-38.485
-41.2365
-44.2068
-47.4473
-51.0051
-54.9146
-59.1834
-63.7905
-68.682
-73.7635
-78.8978
-83.9076
-88.5836
-92.6967
-96.0183
-98.3465
-99.5279
-99.471
-98.1439
-95.5801
-91.8787
-87.2106
-81.803
-75.9038
-69.7613
-63.6049
-57.6267
-51.971
-46.7186
-41.9056
-37.5335
-33.5791
-30.0053
-26.7696
-23.832
-21.1576
-18.713
-16.4666
-14.3896
-12.452
-10.6198
-8.85766
-7.13711
-5.44492
-3.78148
-2.15377
-0.572135
0.952043
2.40868
3.79065
5.09482
6.32129
7.4724
8.55181
9.56401
10.5135
11.4034
12.2355
13.0115
13.7353
14.4127
15.0491
15.6444
16.1923
16.6832
17.1087
17.4642
17.7507
17.9747
18.1455
18.2702
18.3543
18.4051
18.4307
18.4377
18.4302
18.411
18.3823
18.3462
18.3043
18.2579
18.2085
18.1572
18.1051
18.0531
18.0016
17.9512
17.9022
17.8548
17.8092
17.7656
17.7241
17.6847
17.6474
17.6123
17.5794
17.5485
17.5197
17.4928
17.4676
17.4442
17.4223
17.402
17.3831
17.3655
17.3493
17.3343
17.3205
17.3078
17.2962
17.2855
17.2757
17.2668
17.2586
17.2511
17.2442
17.238
17.2323
17.227
17.2223
17.218
17.2141
17.2106
17.2074
17.2046
17.202
17.1997
17.1977
17.1959
17.1942
17.1928
17.1915
17.1904
17.1894
17.1885
17.1877
17.1871
17.1865
17.186
17.1855
17.1849
17.1841
17.183
17.1811
17.178
17.1727
17.164
17.1498
17.1271
17.0919
17.0389
16.9618
-8.59456
-8.67041
-8.82633
-9.05958
-9.3596
-9.70847
-10.0901
-10.4939
-10.9191
-11.3731
-11.8658
-12.4083
-13.0115
-13.6859
-14.4417
-15.2902
-16.2446
-17.3205
-18.5345
-19.9025
-21.4372
-23.1444
-25.0212
-27.0561
-29.2353
-31.5453
-33.9748
-36.5203
-39.1913
-42.0135
-45.0277
-48.2839
-51.8308
-55.7059
-59.924
-64.47
-69.2936
-74.3034
-79.3652
-84.3078
-88.932
-93.0196
-96.35
-98.7257
-99.9896
-100.045
-98.8526
-96.4269
-92.8637
-88.3323
-83.0493
-77.2532
-71.1829
-65.0616
-59.0799
-53.3817
-48.0566
-43.1507
-38.676
-34.6176
-30.9459
-27.6258
-24.6207
-21.8946
-19.4118
-17.1392
-15.0437
-13.0896
-11.2376
-9.45338
-7.71485
-6.013
-4.34707
-2.72052
-1.14035
0.384315
1.84471
3.23419
4.54926
5.78903
6.95471
8.04946
9.07764
10.0434
10.9492
11.7962
12.5857
13.3219
14.0113
14.6593
15.2654
15.8221
16.3193
16.7494
17.1101
17.4039
17.638
17.8216
17.9622
18.0656
18.1371
18.1831
18.2091
18.2191
18.2161
18.2026
18.1806
18.152
18.1181
18.0803
18.0399
17.9978
17.9551
17.9123
17.8698
17.828
17.7873
17.7478
17.7098
17.6734
17.6386
17.6056
17.5744
17.545
17.5173
17.4914
17.4671
17.4444
17.4232
17.4033
17.3848
17.3676
17.3515
17.3367
17.3229
17.3103
17.2986
17.2879
17.2781
17.2691
17.2608
17.2532
17.2463
17.24
17.2342
17.2289
17.224
17.2196
17.2156
17.212
17.2087
17.2057
17.203
17.2006
17.1984
17.1964
17.1945
17.1929
17.1914
17.19
17.1887
17.1875
17.1864
17.1853
17.1841
17.1829
17.1816
17.1801
17.1782
17.1758
17.1727
17.1683
17.162
17.1529
17.1396
17.1201
17.0915
17.0501
16.9914
16.9098
-7.44889
-7.51465
-7.65499
-7.86946
-8.15273
-8.49131
-8.87398
-9.29126
-9.74091
-10.2277
-10.76
-11.3484
-12.0059
-12.7452
-13.5785
-14.5178
-15.5742
-16.7589
-18.0827
-19.5559
-21.186
-22.9749
-24.9171
-27.0021
-29.2169
-31.5482
-33.9826
-36.5122
-39.1417
-41.8928
-44.8009
-47.9142
-51.2795
-54.9333
-58.8931
-63.151
-67.664
-72.3522
-77.0973
-81.7473
-86.1238
-90.0294
-93.262
-95.6334
-96.9879
-97.2201
-96.2798
-94.1755
-90.9853
-86.8588
-81.994
-76.6059
-70.9117
-65.1168
-59.3996
-53.8968
-48.7011
-43.868
-39.4207
-35.3581
-31.6652
-28.3197
-25.2925
-22.5505
-20.0583
-17.7793
-15.6741
-13.7011
-11.8222
-10.0102
-8.24999
-6.53483
-4.86258
-3.23461
-1.65575
-0.132819
1.32732
2.71927
4.03954
5.28651
6.46102
7.56651
8.60783
9.58907
10.5121
11.3767
12.1836
12.9362
13.6411
14.3026
14.9185
15.4798
15.9774
16.4068
16.7688
17.0679
17.3112
17.5068
17.6618
17.7817
17.8714
17.9357
17.9793
18.0061
18.0189
18.0201
18.0121
17.9966
17.9752
17.9492
17.9197
17.8878
17.8545
17.8205
17.7861
17.7517
17.7178
17.6845
17.6522
17.6209
17.5909
17.5623
17.535
17.5092
17.4848
17.4619
17.4404
17.4202
17.4012
17.3834
17.3668
17.3513
17.3369
17.3234
17.311
17.2995
17.2889
17.2792
17.2703
17.262
17.2545
17.2476
17.2413
17.2355
17.2302
17.2253
17.2208
17.2168
17.2131
17.2097
17.2066
17.2038
17.2013
17.199
17.1969
17.195
17.1932
17.1915
17.19
17.1885
17.1871
17.1857
17.1843
17.1828
17.1812
17.1794
17.1773
17.1748
17.1717
17.1677
17.1626
17.1559
17.1467
17.1341
17.1166
17.0923
17.0585
17.0118
16.9482
16.8629
-6.44803
-6.49686
-6.60224
-6.78637
-7.04097
-7.35551
-7.72484
-8.14421
-8.61161
-9.12948
-9.70381
-10.3434
-11.0599
-11.865
-12.7699
-13.7849
-14.9186
-16.1777
-17.5664
-19.0873
-20.7399
-22.5207
-24.4225
-26.4393
-28.5635
-30.7899
-33.1112
-35.5201
-38.018
-40.616
-43.3378
-46.2182
-49.2948
-52.6007
-56.1563
-59.9622
-63.9906
-68.1809
-72.438
-76.6359
-80.6219
-84.2246
-87.2655
-89.5732
-91.002
-91.4458
-90.8497
-89.2093
-86.582
-83.0859
-78.8822
-74.1532
-69.0859
-63.8581
-58.6275
-53.52
-48.6288
-44.017
-39.7213
-35.7587
-32.1321
-28.8325
-25.8394
-23.1245
-20.6536
-18.3854
-16.2745
-14.2789
-12.3675
-10.5229
-8.7372
-7.00684
-5.32996
-3.70603
-2.13596
-0.62208
0.831812
2.22116
3.54168
4.79105
5.9707
7.08558
8.14128
9.14104
10.0849
10.9713
11.7996
12.5722
13.2942
13.9683
14.5903
15.1512
15.6444
16.0699
16.432
16.7363
16.9888
17.196
17.3642
17.4987
17.6042
17.6851
17.7453
17.7882
17.8165
17.8326
17.8386
17.8365
17.8278
17.8137
17.7954
17.774
17.7504
17.7253
17.6991
17.6724
17.6454
17.6185
17.592
17.5661
17.541
17.5168
17.4936
17.4715
17.4506
17.4308
17.4121
17.3946
17.378
17.3625
17.3478
17.3341
17.3213
17.3094
17.2983
17.2881
17.2786
17.2699
17.2619
17.2546
17.2478
17.2416
17.2359
17.2307
17.2259
17.2215
17.2174
17.2137
17.2103
17.2073
17.2044
17.2019
17.1995
17.1973
17.1953
17.1935
17.1917
17.1901
17.1885
17.187
17.1854
17.1838
17.1821
17.1803
17.1782
17.1758
17.173
17.1696
17.1653
17.1599
17.153
17.144
17.1321
17.1162
17.095
17.0665
17.0282
16.9769
16.9091
16.8207
-5.63987
-5.66311
-5.74517
-5.9055
-6.13983
-6.43906
-6.79957
-7.21967
-7.6966
-8.2307
-8.82526
-9.48661
-10.2238
-11.0473
-11.9681
-12.9952
-14.1339
-15.3837
-16.7425
-18.2058
-19.7726
-21.4404
-23.209
-25.0779
-27.0468
-29.1148
-31.2785
-33.5315
-35.8701
-38.2964
-40.8208
-43.4633
-46.2505
-49.209
-52.3569
-55.6985
-59.2172
-62.8703
-66.5863
-70.2665
-73.788
-77.0103
-79.7843
-81.9657
-83.428
-84.0704
-83.8331
-82.6949
-80.6876
-77.895
-74.4397
-70.4678
-66.1326
-61.5814
-56.9479
-52.3465
-47.869
-43.5847
-39.5434
-35.7783
-32.3058
-29.1252
-26.2227
-23.5764
-21.1529
-18.9069
-16.7915
-14.7716