/*--------------------------------*- C++ -*----------------------------------*\
  =========                 |
  \\      /  F ield         | OpenFOAM: The Open Source CFD Toolbox
   \\    /   O peration     | Website:  https://openfoam.org
    \\  /    A nd           | Version:  9
     \\/     M anipulation  |
\*---------------------------------------------------------------------------*/
FoamFile
{
    format      ascii;
    class       volScalarField;
    location    "0.028";
    object      s;
}
// * * * * * * * * * * * * * * * * * * * * * * * * * * * * * * * * * * * * * //

dimensions      [0 0 0 0 0 0 0];

internalField   nonuniform List<scalar> 
12225
(
1
1
1
1
1
1
1
1
1
1
1
1
1
1
1
1
1
0.999902
1
1
1
1
1
1
1
1
1
1
1
1
1
1
1
1
1
0.999996
1
1
1
1
1
1
1
1
1
1
1
1
1
1
1
1
1
1
1
1
1
1
1
1
1
1
1
1
1
1
1
1
1
1
1
1
1
1
1
1
1
1
1
1
1
1
1
1
1
1
1
1
1
1
1
1
1
1
1
1
1
1
1
1
1
1
1
1
1
1
1
1
1
1
1
1
1
1
1
1
1
1
1
1
1
1
1
1
1
1
1
1
1
1
1
1
1
1
1
1
1
1
1
1
1
1
1
1
1
1
1
1
1
1
1
1
1
1
1
1
1
1
1
1
1
1
1
1
1
1
1
1
1
1
1
1
1
1
1
1
1
1
1
1
1
1
1
1
1
1
1
1
1
1
1
1
1
1
1
1
1
1
1
1
1
1
1
1
1
1
1
1
1
1
1
1
1
1
1
1
1
1
1
1
1
1
1
1
1
1
1
1
1
1
1
1
1
1
1
1
1
1
1
1
1
1
1
1
1
1
1
1
1
1
1
1
1
1
1
1
1
1
1
1
1
1
1
1
1
1
1
1
1
1
1
1
1
1
1
1
1
1
1
1
1
1
1
1
1
1
1
1
1
1
1
1
1
1
1
1
1
1
1
1
1
1
1
1
1
1
1
1
1
1
1
1
1
1
1
1
1
1
1
1
1
1
1
1
1
1
1
1
1
1
1
1
1
1
1
1
1
1
1
1
1
1
1
1
1
1
1
1
1
1
1
1
1
1
1
1
1
1
1
1
1
1
1
1
1
1
1
1
1
1
1
1
1
1
1
1
1
1
1
1
1
1
1
1
1
1
1
1
1
1
1
1
1
1
1
1
1
1
1
1
1
1
1
1
1
1
1
1
1
1
1
1
1
1
1
1
1
1
1
1
1
1
1
1
1
1
1
1
1
1
1
1
1
1
1
1
1
1
1
1
1
1
1
1
1
1
1
1
1
1
1
1
1
1
1
1
1
1
1
1
1
1
1
1
1
1
1
1
1
1
1
1
1
1
1
1
1
1
1
1
1
1
1
1
1
1
1
1
1
1
1
1
1
1
1
1
1
1
1
1
1
1
1
1
1
1
1
1
1
1
1
1
1
1
1
1
1
1
1
1
1
1
1
1
1
1
1
1
1
1
1
1
1
1
1
1
1
1
1
1
0.0221745
0.0717426
0.121312
0.158936
0.207033
0.252403
0.298698
0.341037
0.366018
0.383373
0.387622
0.38663
0.38327
0.376386
0.365205
0.350455
0.33463
0.317434
0.290804
0.249132
0.192438
0.129239
0.0732235
0.032079
0.00913288
0.00276555
0.00411393
0.00877822
0.0166107
0.0434434
0.0884456
0.0902949
0.107607
0.335705
0.776578
0.809572
0.808201
0.807089
0.806719
0.806519
0.806281
0.806074
0.805789
0.805613
0.805613
0.805711
0.805992
0.806483
0.807095
0.807619
0.807879
0.808115
0.808633
0.809408
0.809824
0.810018
0.810353
0.811114
0.811928
0.812371
0.812815
0.813478
0.813999
0.814549
0.815206
0.815824
0.816488
0.817206
0.817745
0.818262
0.818837
0.819371
0.819893
0.820402
0.820852
0.821412
0.822
0.822638
0.823317
0.82399
0.824623
0.825336
0.82613
0.827012
0.827944
0.828919
0.82987
0.830873
0.831933
0.83309
0.834214
0.835446
0.836652
0.837725
0.838654
0.839299
0.839609
0.839393
0.838404
0.836406
0.83321
0.828652
0.822615
0.814949
0.805399
0.793592
0.779068
0.761334
0.739951
0.714443
0.684458
0.649681
0.610169
0.566002
0.516943
0.463302
0.405451
0.343926
0.281446
0.221445
0.1665
0.120411
0.0850147
0.0585442
0.0392877
0.0257
0.0164037
0.0102277
0.0062359
0.0037209
0.00217403
0.00124418
0.000697478
0.000382967
0.000205911
0.000108386
5.58422e-05
2.81588e-05
1.38983e-05
6.71585e-06
3.17809e-06
1.47332e-06
6.6929e-07
2.97978e-07
1.30024e-07
5.56015e-08
2.32967e-08
9.56174e-09
3.84326e-09
1.51243e-09
5.82605e-10
2.19648e-10
8.10395e-11
2.92592e-11
1.03379e-11
3.57468e-12
1.2098e-12
4.00793e-13
1.29992e-13
4.12834e-14
1.28402e-14
3.91189e-15
1.16763e-15
3.41513e-16
9.78954e-17
2.75058e-17
7.57575e-18
2.0454e-18
5.41331e-19
1.40424e-19
3.56947e-20
8.88859e-21
2.16698e-21
5.16879e-22
1.2045e-22
2.73815e-23
6.05146e-24
1.29484e-24
2.6636e-25
4.69724e-26
0.0126285
0.0422589
0.0650141
0.104002
0.200133
0.310938
0.401584
0.451099
0.472859
0.473616
0.47096
0.468342
0.462942
0.45923
0.457685
0.454396
0.447383
0.438812
0.420048
0.392409
0.348188
0.248425
0.151579
0.0850042
0.0462356
0.0206018
0.0167359
0.0347319
0.0538763
0.0610867
0.246748
0.631271
0.704555
0.755583
0.803222
0.805664
0.800328
0.796287
0.79115
0.785307
0.780815
0.776554
0.773398
0.770221
0.766865
0.765355
0.763631
0.761789
0.76003
0.759293
0.758944
0.758852
0.759028
0.760129
0.761292
0.761704
0.762244
0.763688
0.765439
0.767071
0.76879
0.770798
0.773014
0.775318
0.777633
0.78015
0.782905
0.785639
0.7882
0.790697
0.793188
0.795793
0.798173
0.800028
0.801631
0.80313
0.804692
0.806316
0.808006
0.809574
0.811032
0.812647
0.814419
0.81618
0.817902
0.819882
0.821974
0.82421
0.826476
0.829263
0.832143
0.835449
0.839159
0.843369
0.848237
0.853867
0.860392
0.868037
0.877062
0.887362
0.898199
0.908789
0.918327
0.926944
0.935262
0.943492
0.951464
0.958525
0.963939
0.968044
0.970992
0.972766
0.97325
0.972494
0.96825
0.960044
0.950058
0.937938
0.920557
0.89167
0.84409
0.770632
0.670368
0.554206
0.437591
0.331963
0.243529
0.173414
0.120078
0.0809235
0.0531017
0.0339361
0.0211254
0.0128121
0.0075723
0.00436297
0.00245177
0.00134442
0.000719693
0.000376255
0.000192151
9.58672e-05
4.67236e-05
2.22418e-05
1.03388e-05
4.69165e-06
2.07799e-06
8.98156e-07
3.78797e-07
1.55884e-07
6.25984e-08
2.45325e-08
9.38455e-09
3.50491e-09
1.27833e-09
4.55442e-10
1.58552e-10
5.395e-11
1.79481e-11
5.83961e-12
1.85873e-12
5.78955e-13
1.76517e-13
5.26927e-14
1.54038e-14
4.41072e-15
1.2372e-15
3.40006e-16
9.15444e-17
2.41512e-17
6.24083e-18
1.57996e-18
3.91425e-19
9.49573e-20
2.24884e-20
5.20912e-21
1.17065e-21
2.56561e-22
5.36658e-23
1.0578e-23
0.00609612
0.0133968
0.0402509
0.109131
0.269369
0.403026
0.484497
0.499713
0.494852
0.483861
0.463231
0.450061
0.431992
0.416479
0.415181
0.417313
0.424946
0.429077
0.436842
0.437769
0.431964
0.409746
0.34484
0.205717
0.132908
0.0627956
0.0403932
0.0776644
0.397418
0.626175
0.716822
0.767201
0.784912
0.792281
0.794556
0.780143
0.772573
0.763626
0.759225
0.755494
0.753022
0.750398
0.749118
0.747387
0.746122
0.744844
0.743069
0.741159
0.738959
0.736867
0.735669
0.735118
0.734829
0.73469
0.734637
0.734629
0.734642
0.734673
0.734741
0.734885
0.735131
0.735474
0.735887
0.736355
0.736947
0.737784
0.738844
0.740034
0.741391
0.742969
0.744883
0.747148
0.749766
0.752798
0.756151
0.759731
0.763506
0.767521
0.771808
0.776121
0.780087
0.783846
0.787546
0.791026
0.794073
0.796866
0.799682
0.802408
0.804824
0.807582
0.80997
0.812479
0.81491
0.817389
0.819919
0.822507
0.825188
0.827924
0.830896
0.834796
0.840944
0.85004
0.861617
0.873281
0.884578
0.895367
0.906013
0.917916
0.931726
0.946324
0.960519
0.972705
0.981793
0.987703
0.991336
0.993398
0.994406
0.994765
0.994763
0.994307
0.9929
0.990647
0.986161
0.976314
0.951611
0.879816
0.744765
0.600497
0.462387
0.341641
0.24338
0.167581
0.111751
0.0722903
0.0454253
0.0277585
0.0165115
0.00956755
0.00540355
0.0029756
0.00159794
0.000836848
0.000427363
0.000212792
0.00010329
4.88728e-05
2.254e-05
1.01328e-05
4.44051e-06
1.89725e-06
7.9048e-07
3.21243e-07
1.2737e-07
4.92851e-08
1.86169e-08
6.86703e-09
2.47419e-09
8.71011e-10
2.99685e-10
1.00804e-10
3.31574e-11
1.0668e-11
3.35809e-12
1.03443e-12
3.1188e-13
9.20508e-14
2.65985e-14
7.52576e-15
2.08484e-15
5.65605e-16
1.50208e-16
3.9063e-17
9.93626e-18
2.47422e-18
6.01305e-19
1.42945e-19
3.29869e-20
7.43119e-21
1.60437e-21
3.32736e-22
0.018951
0.0720267
0.159774
0.367856
0.50482
0.542007
0.535621
0.515731
0.467602
0.416053
0.367352
0.333245
0.316736
0.294765
0.289478
0.293626
0.308217
0.347497
0.402404
0.433034
0.449191
0.446658
0.4237
0.335305
0.163103
0.0732152
0.193583
0.590347
0.701991
0.75358
0.775522
0.782634
0.783888
0.779914
0.763314
0.756048
0.752843
0.750738
0.749744
0.748965
0.74814
0.746998
0.746209
0.745376
0.744682
0.743836
0.742701
0.741505
0.740212
0.738795
0.737661
0.736984
0.736687
0.73653
0.736501
0.736557
0.736667
0.736757
0.736823
0.736929
0.736977
0.736979
0.737025
0.73718
0.737431
0.737951
0.7386
0.739404
0.740513
0.74189
0.743668
0.745841
0.748453
0.751852
0.75593
0.76073
0.766726
0.774224
0.782312
0.789576
0.794759
0.798593
0.801739
0.8043
0.806372
0.808129
0.809952
0.812013
0.813879
0.815925
0.817902
0.820142
0.822346
0.824273
0.825724
0.827442
0.829229
0.830716
0.831605
0.831886
0.833139
0.836132
0.842231
0.853928
0.868304
0.881704
0.893512
0.903047
0.910902
0.918894
0.927897
0.938873
0.951874
0.965544
0.977454
0.986273
0.99195
0.995288
0.997176
0.998185
0.998657
0.998813
0.998819
0.998701
0.998175
0.996438
0.991669
0.979558
0.94612
0.840958
0.667809
0.5065
0.368617
0.258268
0.174705
0.114301
0.072447
0.0445455
0.0265947
0.0154245
0.00869213
0.00475925
0.00253167
0.00130828
0.000656789
0.000320361
0.000151863
6.99867e-05
3.13702e-05
1.36825e-05
5.81001e-06
2.40309e-06
9.6864e-07
3.80679e-07
1.45934e-07
5.45935e-08
1.99382e-08
7.11143e-09
2.47801e-09
8.4386e-10
2.80925e-10
9.1452e-11
2.91198e-11
9.0716e-12
2.76541e-12
8.25096e-13
2.40967e-13
6.88959e-14
1.92837e-14
5.28474e-15
1.41757e-15
3.7228e-16
9.56258e-17
2.40384e-17
5.89974e-18
1.41553e-18
3.30208e-19
7.51118e-20
1.64688e-20
3.4753e-21
0.176086
0.226648
0.406037
0.552042
0.578507
0.562889
0.510739
0.403543
0.34876
0.325642
0.311946
0.291556
0.28024
0.269709
0.2472
0.238121
0.240634
0.257543
0.320565
0.409236
0.452077
0.464164
0.442165
0.31358
0.134004
0.260755
0.617397
0.730551
0.764465
0.776246
0.779023
0.77814
0.767208
0.754486
0.749168
0.746896
0.746056
0.745679
0.745479
0.744995
0.744288
0.743019
0.741566
0.74031
0.739346
0.73852
0.737378
0.736336
0.736008
0.736005
0.737005
0.738887
0.739574
0.740014
0.740818
0.742127
0.743731
0.745448
0.747059
0.74785
0.748597
0.74953
0.749862
0.749956
0.749885
0.74984
0.749351
0.749258
0.749285
0.749513
0.75045
0.752077
0.754222
0.7581
0.763259
0.769558
0.777188
0.78489
0.791554
0.797307
0.80128
0.804943
0.807834
0.809862
0.811521
0.81331
0.814871
0.816357
0.817228
0.818403
0.820223
0.822805
0.826211
0.830402
0.834362
0.836315
0.837149
0.839359
0.842035
0.843842
0.842804
0.838246
0.83645
0.837373
0.844589
0.864627
0.88689
0.903869
0.915336
0.921938
0.926845
0.933377
0.941413
0.950623
0.960614
0.970736
0.979984
0.987378
0.992589
0.995881
0.997781
0.998806
0.999315
0.999531
0.999589
0.999582
0.999479
0.99903
0.997483
0.99273
0.979334
0.939417
0.811254
0.621739
0.456047
0.321548
0.218507
0.143423
0.0910176
0.0558743
0.033189
0.0190765
0.0106103
0.0057111
0.00297557
0.00150126
0.000733888
0.000347848
0.000159981
7.1451e-05
3.10135e-05
1.30924e-05
5.37929e-06
2.1525e-06
8.39335e-07
3.19107e-07
1.18348e-07
4.28356e-08
1.51373e-08
5.22465e-09
1.76192e-09
5.80732e-10
1.87135e-10
5.89713e-11
1.81773e-11
5.48173e-12
1.61756e-12
4.67124e-13
1.32019e-13
3.652e-14
9.88581e-15
2.61905e-15
6.78597e-16
1.71991e-16
4.25692e-17
1.0293e-17
2.4226e-18
5.55449e-19
1.23257e-19
2.63486e-20
0.182082
0.29356
0.551834
0.608711
0.591158
0.501276
0.379212
0.341978
0.32536
0.319884
0.308687
0.286234
0.275403
0.26505
0.238127
0.219477
0.218249
0.223232
0.271204
0.404538
0.467678
0.478172
0.424501
0.222002
0.230325
0.611671
0.736192
0.768636
0.776701
0.777948
0.775387
0.764423
0.752401
0.746894
0.742911
0.741341
0.739839
0.738589
0.737088
0.734965
0.731917
0.727554
0.723251
0.720263
0.71932
0.719139
0.719163
0.720513
0.72333
0.725247
0.726387
0.729112
0.733796
0.737126
0.738397
0.739362
0.741806
0.745848
0.748991
0.750429
0.752091
0.75505
0.757326
0.758422
0.759953
0.762183
0.763804
0.764622
0.766036
0.767212
0.76789
0.768958
0.769834
0.771549
0.774039
0.777363
0.78168
0.786624
0.791458
0.796259
0.800724
0.805353
0.809636
0.812987
0.81596
0.818082
0.818507
0.817838
0.816712
0.81565
0.815241
0.816554
0.820827
0.828606
0.837027
0.844434
0.848538
0.847176
0.84592
0.848582
0.852453
0.853947
0.849498
0.838516
0.835064
0.836631
0.849311
0.88468
0.915341
0.933809
0.943055
0.945297
0.946393
0.950363
0.95791
0.965869
0.973727
0.980865
0.986905
0.991666
0.995086
0.997289
0.998578
0.999272
0.999618
0.99977
0.999815
0.999814
0.999769
0.999553
0.998761
0.99609
0.987569
0.961252
0.872987
0.67912
0.499114
0.351612
0.238149
0.155302
0.097578
0.0590766
0.0344652
0.0193797
0.0105081
0.00549826
0.00277876
0.00135786
0.000642274
0.000294395
0.000130903
5.65207e-05
2.37194e-05
9.68264e-06
3.84767e-06
1.48937e-06
5.61904e-07
2.06732e-07
7.42078e-08
2.60001e-08
8.89529e-09
2.97278e-09
9.70791e-10
3.09872e-10
9.67036e-11
2.9513e-11
8.80979e-12
2.57266e-12
7.34992e-13
2.05457e-13
5.61868e-14
1.5033e-14
3.9331e-15
1.0062e-15
2.51418e-16
6.13453e-17
1.45828e-17
3.37605e-18
7.5857e-19
1.64478e-19
0.170496
0.426082
0.619445
0.624393
0.552461
0.401555
0.343763
0.335015
0.342727
0.333662
0.301798
0.249113
0.231492
0.225591
0.203229
0.179876
0.178557
0.204623
0.288574
0.42712
0.490448
0.464908
0.320336
0.259146
0.548785
0.729197
0.768698
0.77683
0.777664
0.775405
0.766771
0.752804
0.745364
0.739333
0.73415
0.730236
0.725083
0.719573
0.714208
0.708683
0.706363
0.705346
0.704658
0.704034
0.703215
0.702081
0.701983
0.701988
0.702401
0.70229
0.701851
0.702013
0.70451
0.709429
0.713544
0.716007
0.719773
0.726648
0.733499
0.738185
0.74205
0.747816
0.752893
0.756483
0.759502
0.76217
0.765137
0.766527
0.769021
0.771212
0.772797
0.77497
0.776675
0.778538
0.780573
0.782804
0.785432
0.788325
0.791596
0.795672
0.800471
0.805316
0.810441
0.814847
0.818044
0.819054
0.818179
0.81328
0.805199
0.797399
0.793332
0.793217
0.796249
0.804252
0.81881
0.83699
0.85417
0.862481
0.862164
0.854956
0.853782
0.857603
0.860801
0.859532
0.845933
0.836211
0.836113
0.844094
0.878712
0.923304
0.949116
0.962517
0.9673
0.967358
0.966824
0.967735
0.972904
0.979655
0.985223
0.989733
0.993218
0.995785
0.997552
0.99867
0.999314
0.999656
0.999824
0.999893
0.99991
0.999907
0.99987
0.999699
0.99905
0.996759
0.988964
0.963373
0.875482
0.677085
0.492929
0.343082
0.228771
0.146277
0.08973
0.0528332
0.0298815
0.0162507
0.00850879
0.00429545
0.00209377
0.000986847
0.000450361
0.000199251
8.55572e-05
3.5691e-05
1.44774e-05
5.7146e-06
2.19657e-06
8.22682e-07
3.0039e-07
1.06984e-07
3.71818e-08
1.26153e-08
4.18002e-09
1.35308e-09
4.28015e-10
1.32344e-10
4.0008e-11
1.18271e-11
3.41931e-12
9.66901e-13
2.67412e-13
7.23333e-14
1.91298e-14
4.94565e-15
1.24893e-15
3.07931e-16
7.40187e-17
1.73318e-17
3.94657e-18
8.69048e-19
0.159147
0.482452
0.644161
0.628782
0.496532
0.374029
0.339695
0.361777
0.367974
0.326447
0.211847
0.153707
0.12758
0.132249
0.14212
0.156107
0.178258
0.228616
0.376487
0.476743
0.481475
0.380369
0.326216
0.450936
0.705733
0.764666
0.775865
0.776968
0.77468
0.765196
0.745798
0.735341
0.727127
0.718594
0.712026
0.704683
0.700933
0.698249
0.696235
0.694624
0.693942
0.692222
0.689488
0.685721
0.679937
0.672531
0.66639
0.660731
0.656364
0.653043
0.649523
0.648112
0.647909
0.650723
0.655917
0.660835
0.665828
0.675814
0.685792
0.69683
0.707509
0.718136
0.728177
0.737772
0.746246
0.75154
0.757187
0.759971
0.763668
0.766555
0.769887
0.772518
0.775508
0.777977
0.780477
0.782928
0.785603
0.788472
0.791749
0.795585
0.800067
0.804507
0.80907
0.812786
0.814475
0.814563
0.813335
0.80745
0.798255
0.791394
0.788982
0.791006
0.794011
0.798529
0.806036
0.816382
0.832989
0.857532
0.872616
0.874268
0.865348
0.858548
0.860678
0.865745
0.866189
0.855096
0.843403
0.84264
0.850867
0.886928
0.934064
0.961612
0.975918
0.982516
0.98426
0.984037
0.983348
0.983564
0.98585
0.989825
0.992948
0.995346
0.997087
0.998274
0.999033
0.999487
0.99974
0.999871
0.999931
0.999952
0.999955
0.999947
0.999899
0.999693
0.998915
0.996109
0.986293
0.952741
0.834925
0.626557
0.445258
0.301601
0.194999
0.120471
0.0711998
0.0403106
0.0218988
0.0114361
0.0057517
0.00279087
0.00130867
0.000593905
0.000261203
0.000111461
4.6195e-05
1.86115e-05
7.29496e-06
2.78368e-06
1.03476e-06
3.74909e-07
1.32463e-07
4.56608e-08
1.53622e-08
5.0465e-09
1.61918e-09
5.07579e-10
1.55497e-10
4.65638e-11
1.36316e-11
3.90191e-12
1.09205e-12
2.98842e-13
7.99443e-14
2.09021e-14
5.33857e-15
1.33127e-15
3.23828e-16
7.67707e-17
1.77246e-17
3.9658e-18
0.153508
0.51158
0.656216
0.628528
0.479497
0.368566
0.356252
0.377864
0.377952
0.298804
0.178086
0.131672
0.123078
0.132358
0.147478
0.17305
0.221967
0.355726
0.458372
0.475442
0.416815
0.374556
0.405087
0.6648
0.75531
0.773419
0.775608
0.773368
0.762443
0.73838
0.722683
0.711804
0.703383
0.697684
0.692764
0.688756
0.686974
0.686174
0.685809
0.683255
0.677032
0.665931
0.655156
0.642302
0.630148
0.620023
0.610314
0.604359
0.59843
0.594377
0.590519
0.588784
0.588191
0.589089
0.591965
0.596151
0.602073
0.61256
0.622093
0.63313
0.649452
0.66347
0.679454
0.693392
0.706552
0.717781
0.726331
0.733394
0.738673
0.742953
0.74796
0.753253
0.759236
0.765075
0.770444
0.774965
0.779189
0.783251
0.787172
0.791042
0.795196
0.799445
0.803512
0.80663
0.809699
0.81218
0.813666
0.813807
0.812553
0.816064
0.826731
0.842257
0.85259
0.853746
0.848651
0.834475
0.828153
0.836579
0.859468
0.876996
0.878316
0.869836
0.86193
0.863843
0.872145
0.875142
0.867548
0.858897
0.858805
0.869945
0.910529
0.95007
0.972998
0.984933
0.990781
0.993221
0.993915
0.993968
0.993824
0.993826
0.994406
0.995926
0.997237
0.998246
0.998957
0.999413
0.999686
0.999839
0.99992
0.99996
0.999975
0.999978
0.999975
0.999957
0.999872
0.999535
0.998271
0.993664
0.977212
0.918808
0.740126
0.53209
0.363496
0.236057
0.145993
0.0861614
0.0486243
0.0262954
0.0136567
0.00682654
0.00329119
0.0015331
0.000691059
0.000301836
0.000127893
5.26229e-05
2.10447e-05
8.18623e-06
3.09954e-06
1.14301e-06
4.10759e-07
1.43921e-07
4.91882e-08
1.64051e-08
5.34125e-09
1.69824e-09
5.27438e-10
1.60057e-10
4.74669e-11
1.37591e-11
3.89856e-12
1.07979e-12
2.92319e-13
7.73344e-14
1.99868e-14
5.0439e-15
1.24222e-15
2.98345e-16
6.98585e-17
1.58833e-17
0.150976
0.520769
0.661266
0.63492
0.480112
0.384783
0.36836
0.385113
0.399246
0.361408
0.244131
0.187067
0.170642
0.175111
0.211098
0.28632
0.384389
0.446206
0.461849
0.437502
0.406816
0.416763
0.619412
0.739516
0.76899
0.773164
0.771609
0.759086
0.72814
0.708669
0.697053
0.688802
0.684794
0.682613
0.680642
0.678785
0.677834
0.675993
0.670772
0.65917
0.643039
0.628342
0.615189
0.604201
0.596241
0.588847
0.580125
0.573099
0.567106
0.559597
0.552109
0.546735
0.542803
0.541407
0.541926
0.545879
0.550048
0.558711
0.569688
0.580895
0.595936
0.61208
0.629481
0.646544
0.663837
0.68
0.693916
0.704816
0.712449
0.716564
0.719258
0.722185
0.725589
0.729911
0.735016
0.741241
0.748282
0.756009
0.764062
0.771815
0.77866
0.78523
0.791886
0.79822
0.804284
0.810445
0.817042
0.825209
0.836757
0.854222
0.878684
0.905355
0.928266
0.942571
0.946191
0.938332
0.8962
0.852377
0.848187
0.863017
0.876225
0.876277
0.867878
0.864531
0.86865
0.883461
0.890731
0.887378
0.883277
0.884614
0.900817
0.939082
0.9668
0.982819
0.99112
0.995202
0.997122
0.997924
0.998196
0.998247
0.998234
0.998205
0.99826
0.998616
0.999108
0.99946
0.999694
0.999836
0.999916
0.999958
0.999979
0.999988
0.999989
0.999988
0.999979
0.999934
0.999749
0.999035
0.996349
0.986405
0.950037
0.818428
0.59515
0.407122
0.263843
0.162454
0.0952978
0.0534062
0.0286677
0.0147753
0.00732783
0.00350435
0.00161899
0.000723795
0.000313572
0.000131789
5.37844e-05
2.1332e-05
8.22867e-06
3.08918e-06
1.12937e-06
4.02295e-07
1.39699e-07
4.73127e-08
1.56344e-08
5.04272e-09
1.58809e-09
4.88468e-10
1.46776e-10
4.30936e-11
1.23642e-11
3.4669e-12
9.50013e-13
2.54377e-13
6.65431e-14
1.7e-14
4.24012e-15
1.03194e-15
2.45074e-16
5.66111e-17
0.149113
0.516025
0.663074
0.650002
0.523137
0.39803
0.37488
0.387121
0.411085
0.415163
0.385965
0.34527
0.330053
0.332643
0.379351
0.424876
0.44736
0.454207
0.4423
0.427934
0.434951
0.566569
0.72126
0.762786
0.770486
0.770274
0.75834
0.723173
0.698763
0.687497
0.677963
0.671377
0.667868
0.665414
0.663855
0.662236
0.658478
0.651566
0.639567
0.626516
0.614429
0.603735
0.593082
0.583956
0.575162
0.561993
0.546502
0.529781
0.512779
0.496729
0.480938
0.467034
0.459076
0.45618
0.457136
0.465206
0.473411
0.487342
0.502471
0.517916
0.536307
0.560951
0.587516
0.615992
0.640607
0.663554
0.684017
0.700883
0.713069
0.719368
0.720929
0.721304
0.721889
0.722567
0.722841
0.722697
0.722796
0.724173
0.727404
0.733009
0.741164
0.75098
0.761263
0.771159
0.78029
0.789567
0.799331
0.811694
0.82936
0.85116
0.877141
0.9065
0.934329
0.954734
0.965698
0.968554
0.965403
0.937311
0.876726
0.862022
0.86851
0.873492
0.871855
0.866536
0.866913
0.876824
0.901618
0.913892
0.913748
0.912537
0.915235
0.934475
0.962288
0.979955
0.989946
0.995084
0.997573
0.998748
0.999264
0.999455
0.999501
0.9995
0.999475
0.999463
0.999481
0.999601
0.999761
0.999864
0.999927
0.999962
0.999981
0.999991
0.999994
0.999995
0.999994
0.999988
0.999957
0.999831
0.999329
0.997382
0.989937
0.961846
0.856553
0.627924
0.427727
0.2751
0.167851
0.0975
0.0540931
0.0287486
0.0146746
0.00721065
0.00341737
0.00156471
0.000693165
0.000297497
0.000123849
5.00657e-05
1.96708e-05
7.51679e-06
2.7954e-06
1.01229e-06
3.57154e-07
1.2283e-07
4.11954e-08
1.34793e-08
4.30451e-09
1.34202e-09
4.08595e-10
1.21515e-10
3.53059e-11
1.00229e-11
2.78028e-12
7.53557e-13
1.99545e-13
5.16133e-14
1.30383e-14
3.21561e-15
7.74458e-16
1.8169e-16
0.139183
0.492359
0.665699
0.664077
0.561532
0.428414
0.387668
0.384127
0.413845
0.431447
0.434631
0.432253
0.427833
0.433585
0.44413
0.451002
0.452381
0.444844
0.439832
0.447658
0.534808
0.698169
0.755276
0.768047
0.76915
0.760257
0.728179
0.69343
0.677727
0.668179
0.662042
0.659834
0.658947
0.657778
0.656416
0.654886
0.650207
0.640314
0.626732
0.613401
0.603528
0.591474
0.576625
0.558252
0.5329
0.504068
0.471412
0.439037
0.411544
0.383737
0.362594
0.351166
0.345099
0.343291
0.351551
0.365707
0.393021
0.416689
0.442648
0.467064
0.487429
0.504949
0.52268
0.546396
0.58008
0.619661
0.661129
0.695435
0.722677
0.744206
0.759159
0.766015
0.767252
0.765735
0.762524
0.756491
0.746478
0.735473
0.729431
0.730053
0.735375
0.744857
0.755968
0.766255
0.773384
0.777667
0.777881
0.776441
0.775502
0.782538
0.803293
0.840247
0.89334
0.93716
0.961526
0.969871
0.970421
0.964877
0.931427
0.884543
0.872629
0.873514
0.873501
0.869759
0.868048
0.871351
0.892284
0.924329
0.939271
0.941195
0.941117
0.944298
0.960755
0.978286
0.988669
0.99442
0.997376
0.998792
0.999436
0.999714
0.999818
0.999846
0.999847
0.99984
0.999834
0.999837
0.999865
0.999916
0.999952
0.999973
0.999986
0.999993
0.999996
0.999998
0.999998
0.999997
0.999991
0.999966
0.999859
0.999425
0.997686
0.990835
0.964308
0.863207
0.630062
0.424348
0.269557
0.162364
0.0931127
0.0510211
0.0267949
0.0135228
0.00657299
0.00308294
0.00139753
0.000613106
0.000260604
0.00010743
4.29894e-05
1.6714e-05
6.31894e-06
2.32483e-06
8.32977e-07
2.90795e-07
9.89581e-08
3.28404e-08
1.06324e-08
3.35949e-09
1.03627e-09
3.12135e-10
9.18305e-11
2.6392e-11
7.41058e-12
2.03301e-12
5.44936e-13
1.42699e-13
3.65066e-14
9.12263e-15
2.22757e-15
5.30503e-16
0.133942
0.457392
0.666586
0.675412
0.605565
0.472002
0.408381
0.392085
0.395323
0.423621
0.439954
0.446199
0.449143
0.451232
0.451694
0.450346
0.447345
0.445806
0.45514
0.514726
0.677086
0.745547
0.765261
0.768158
0.763109
0.737442
0.69897
0.675608
0.664666
0.656313
0.650991
0.64868
0.647632
0.647498
0.646243
0.641943
0.635977
0.625261
0.609564
0.59445
0.579655
0.563482
0.538028
0.500294
0.45818
0.420456
0.385631
0.351905
0.320953
0.29393
0.275494
0.266319
0.26289
0.266149
0.279974
0.306444
0.336291
0.371488
0.411415
0.445972
0.474307
0.496039
0.509705
0.523339
0.538603
0.557409
0.584281
0.626578
0.679203
0.730106
0.762341
0.779814
0.787976
0.792726
0.798392
0.806117
0.814427
0.81859
0.814708
0.807431
0.8064
0.812182
0.826251
0.839529
0.844161
0.842015
0.827068
0.795779
0.769693
0.752683
0.746121
0.749345
0.77827
0.863417
0.931212
0.958248
0.96409
0.962308
0.941265
0.902791
0.88531
0.882108
0.881659
0.87895
0.874537
0.87471
0.883538
0.917305
0.947627
0.961561
0.964757
0.965114
0.967568
0.978242
0.988299
0.994062
0.997145
0.998691
0.999422
0.999746
0.999882
0.999933
0.999949
0.999951
0.99995
0.99995
0.999953
0.999964
0.999978
0.999987
0.999992
0.999996
0.999998
0.999999
0.999999
0.999999
0.999998
0.999992
0.999967
0.999857
0.999397
0.997504
0.989864
0.959729
0.843509
0.602437
0.399125
0.249417
0.147878
0.0835397
0.0451306
0.0233863
0.0116539
0.00559657
0.00259465
0.00116301
0.000504646
0.000212206
8.65586e-05
3.42774e-05
1.31879e-05
4.93296e-06
1.79505e-06
6.35876e-07
2.19418e-07
7.37967e-08
2.4206e-08
7.74699e-09
2.41993e-09
7.37994e-10
2.19782e-10
6.39306e-11
1.81668e-11
5.04361e-12
1.3682e-12
3.62658e-13
9.39389e-14
2.37782e-14
5.88444e-15
1.42185e-15
0.120998
0.407033
0.664531
0.684354
0.636524
0.531796
0.443671
0.409338
0.40098
0.407241
0.428499
0.438183
0.446448
0.449043
0.449288
0.4483
0.448915
0.460071
0.509797
0.66056
0.736421
0.762717
0.768307
0.766489
0.750171
0.713548
0.678084
0.662596
0.654837
0.647313
0.644176
0.643073
0.641333
0.639143
0.637412
0.633097
0.623223
0.611063
0.59781
0.58441
0.569753
0.546427
0.508047
0.463107
0.415783
0.371392
0.331418
0.29442
0.261132
0.233231
0.213562
0.202381
0.197797
0.197054
0.204944
0.221198
0.249278
0.296665
0.356604
0.4151
0.462349
0.493696
0.514807
0.531248
0.540313
0.551961
0.565082
0.581105
0.601313
0.63396
0.683473
0.727334
0.752703
0.764256
0.774981
0.792235
0.813415
0.834279
0.851586
0.864929
0.877136
0.89022
0.904692
0.919219
0.932502
0.941609
0.9432
0.930826
0.879186
0.806655
0.756425
0.741687
0.746114
0.780036
0.876737
0.933662
0.948809
0.947606
0.930869
0.904639
0.894846
0.895242
0.900702
0.900857
0.895902
0.892003
0.89355
0.910767
0.945906
0.968046
0.978549
0.981953
0.982859
0.984606
0.98984
0.994464
0.997202
0.998676
0.999407
0.999746
0.999893
0.999953
0.999975
0.999982
0.999984
0.999985
0.999987
0.99999
0.999993
0.999995
0.999997
0.999998
0.999999
0.999999
1
1
0.999999
0.999998
0.999991
0.999959
0.999822
0.999232
0.996753
0.986589
0.946168
0.794176
0.550044
0.356673
0.218643
0.127333
0.0707469
0.0376322
0.0192198
0.00944713
0.00447772
0.00204984
0.00090758
0.000389098
0.000161692
6.51879e-05
2.55183e-05
9.70655e-06
3.59006e-06
1.29191e-06
4.52585e-07
1.5443e-07
5.13487e-08
1.66453e-08
5.26293e-09
1.62381e-09
4.89096e-10
1.43874e-10
4.13477e-11
1.16105e-11
3.18603e-12
8.54441e-13
2.23997e-13
5.74069e-14
1.43907e-14
3.52569e-15
0.113438
0.34464
0.65395
0.692041
0.657608
0.584709
0.4998
0.443431
0.42211
0.416657
0.422042
0.436236
0.442024
0.447163
0.450522
0.453455
0.465946
0.511829
0.644784
0.729439
0.760788
0.769817
0.770793
0.762359
0.73477
0.693889
0.667736
0.655598
0.647418
0.640899
0.637866
0.636211
0.635623
0.63465
0.63152
0.626461
0.617336
0.604553
0.591165
0.576066
0.552745
0.513011
0.463431
0.411261
0.361778
0.318493
0.280226
0.245675
0.216834
0.193682
0.181085
0.174629
0.171383
0.172427
0.177426
0.188701
0.20947
0.24287
0.29697
0.368188
0.43603
0.47969
0.51184
0.542903
0.577249
0.591098
0.593662
0.596422
0.601356
0.611627
0.62929
0.65006
0.665415
0.672094
0.676038
0.685736
0.712785
0.755451
0.801939
0.838565
0.862171
0.879548
0.894909
0.911856
0.931031
0.948283
0.95997
0.964927
0.96413
0.947918
0.873395
0.788524
0.76238
0.771749
0.835977
0.916244
0.943562
0.943174
0.924038
0.903608
0.89865
0.900313
0.915739
0.933188
0.935034
0.929738
0.925345
0.927347
0.945486
0.969677
0.983276
0.989547
0.992444
0.994233
0.995693
0.997031
0.998175
0.998999
0.999505
0.999775
0.999904
0.99996
0.999983
0.999991
0.999994
0.999996
0.999997
0.999997
0.999998
0.999999
0.999999
0.999999
1
1
1
1
1
0.999999
0.999997
0.999987
0.99994
0.999731
0.998823
0.994974
0.979138
0.916318
0.712335
0.478385
0.30315
0.181966
0.103949
0.0567399
0.0296896
0.0149315
0.00723281
0.00338047
0.00152668
0.00066706
0.000282295
0.00011582
4.61091e-05
1.78262e-05
6.69753e-06
2.44708e-06
8.70019e-07
3.01165e-07
1.01556e-07
3.33767e-08
1.06957e-08
3.3433e-09
1.01975e-09
3.03594e-10
8.82467e-11
2.50524e-11
6.9486e-12
1.88359e-12
4.99285e-13
1.29444e-13
3.28415e-14
8.1509e-15
0.100786
0.263834
0.632158
0.697839
0.684738
0.622315
0.577207
0.499014
0.460507
0.444051
0.439265
0.442634
0.449353
0.455664
0.46626
0.48664
0.538354
0.646452
0.72601
0.759253
0.77072
0.773044
0.769807
0.753216
0.723221
0.690633
0.667432
0.655202
0.645906
0.639405
0.63579
0.632208
0.629379
0.628087
0.624911
0.61828
0.609441
0.597417
0.583872
0.569009
0.54792
0.511728
0.462116
0.407784
0.355488
0.309985
0.272168
0.239857
0.214427
0.193391
0.179564
0.170923
0.167339
0.167793
0.170984
0.179628
0.197731
0.225442
0.269445
0.342138
0.418526
0.467128
0.49411
0.527745
0.585233
0.646023
0.682415
0.691257
0.688641
0.676017
0.663055
0.656953
0.655243
0.652124
0.648434
0.644762
0.643522
0.646824
0.66231
0.689204
0.716858
0.736957
0.754186
0.781661
0.832308
0.894769
0.937398
0.960337
0.96773
0.967396
0.956663
0.898911
0.826536
0.808068
0.829141
0.905981
0.942457
0.944249
0.927501
0.907428
0.902093
0.903425
0.918254
0.950164
0.967126
0.971709
0.970699
0.966936
0.966712
0.973989
0.986033
0.992777
0.996121
0.997769
0.998628
0.999105
0.999404
0.999615
0.999769
0.999874
0.999938
0.999972
0.999988
0.999995
0.999997
0.999999
0.999999
0.999999
1
1
1
1
1
1
1
1
1
1
0.999999
0.999995
0.999977
0.999893
0.999521
0.997898
0.991034
0.963042
0.852954
0.606725
0.397933
0.246112
0.144503
0.0809125
0.0433626
0.0223062
0.0110394
0.00526621
0.00242526
0.0010797
0.0004652
0.000194184
7.86004e-05
3.08775e-05
1.17816e-05
4.36937e-06
1.57608e-06
5.53286e-07
1.89139e-07
6.29947e-08
2.04518e-08
6.4753e-09
2.00019e-09
6.03016e-10
1.77496e-10
5.10253e-11
1.43304e-11
3.9328e-12
1.05499e-12
2.7671e-13
7.10095e-14
1.78299e-14
0.0945999
0.188383
0.588675
0.700538
0.700684
0.663549
0.632229
0.602011
0.538244
0.507916
0.488183
0.482087
0.485162
0.500308
0.531389
0.588398
0.668022
0.728868
0.759388
0.771916
0.775604
0.775862
0.769518
0.751158
0.723285
0.692793
0.670156
0.657005
0.646785
0.639919
0.636024
0.632077
0.627977
0.624674
0.621242
0.615516
0.607279
0.596999
0.584121
0.569798
0.550833
0.518415
0.471812
0.41874
0.366363
0.31991
0.281503
0.249126
0.223658
0.203432
0.189371
0.179042
0.176809
0.178043
0.182041
0.191366
0.210722
0.230537
0.264474
0.332536
0.411904
0.465842
0.492063
0.514671
0.565163
0.651819
0.723808
0.772315
0.804331
0.823966
0.826155
0.800315
0.755701
0.711991
0.681792
0.660143
0.646284
0.638934
0.636175
0.636453
0.639808
0.643091
0.647143
0.656045
0.678083
0.751847
0.861285
0.924922
0.951876
0.960285
0.95803
0.928249
0.87231
0.851125
0.852498
0.893462
0.946002
0.95611
0.948128
0.92449
0.913955
0.913577
0.923401
0.954733
0.976396
0.986525
0.990268
0.991022
0.990867
0.990776
0.991973
0.995495
0.997753
0.998908
0.999447
0.999698
0.99982
0.999888
0.999931
0.999959
0.999977
0.999988
0.999994
0.999997