/*--------------------------------*- C++ -*----------------------------------*\
  =========                 |
  \\      /  F ield         | OpenFOAM: The Open Source CFD Toolbox
   \\    /   O peration     | Website:  https://openfoam.org
    \\  /    A nd           | Version:  9
     \\/     M anipulation  |
\*---------------------------------------------------------------------------*/
FoamFile
{
    format      ascii;
    class       volScalarField;
    location    "0.028";
    object      s_0;
}
// * * * * * * * * * * * * * * * * * * * * * * * * * * * * * * * * * * * * * //

dimensions      [0 0 0 0 0 0 0];

internalField   nonuniform List<scalar> 
12225
(
1
1
1
1
1
1
1
1
1
1
1
1
1
1
1
1
1
0.999903
1
1
1
1
1
1
1
1
1
1
1
1
1
1
1
1
1
0.999996
1
1
1
1
1
1
1
1
1
1
1
1
1
1
1
1
1
1
1
1
1
1
1
1
1
1
1
1
1
1
1
1
1
1
1
1
1
1
1
1
1
1
1
1
1
1
1
1
1
1
1
1
1
1
1
1
1
1
1
1
1
1
1
1
1
1
1
1
1
1
1
1
1
1
1
1
1
1
1
1
1
1
1
1
1
1
1
1
1
1
1
1
1
1
1
1
1
1
1
1
1
1
1
1
1
1
1
1
1
1
1
1
1
1
1
1
1
1
1
1
1
1
1
1
1
1
1
1
1
1
1
1
1
1
1
1
1
1
1
1
1
1
1
1
1
1
1
1
1
1
1
1
1
1
1
1
1
1
1
1
1
1
1
1
1
1
1
1
1
1
1
1
1
1
1
1
1
1
1
1
1
1
1
1
1
1
1
1
1
1
1
1
1
1
1
1
1
1
1
1
1
1
1
1
1
1
1
1
1
1
1
1
1
1
1
1
1
1
1
1
1
1
1
1
1
1
1
1
1
1
1
1
1
1
1
1
1
1
1
1
1
1
1
1
1
1
1
1
1
1
1
1
1
1
1
1
1
1
1
1
1
1
1
1
1
1
1
1
1
1
1
1
1
1
1
1
1
1
1
1
1
1
1
1
1
1
1
1
1
1
1
1
1
1
1
1
1
1
1
1
1
1
1
1
1
1
1
1
1
1
1
1
1
1
1
1
1
1
1
1
1
1
1
1
1
1
1
1
1
1
1
1
1
1
1
1
1
1
1
1
1
1
1
1
1
1
1
1
1
1
1
1
1
1
1
1
1
1
1
1
1
1
1
1
1
1
1
1
1
1
1
1
1
1
1
1
1
1
1
1
1
1
1
1
1
1
1
1
1
1
1
1
1
1
1
1
1
1
1
1
1
1
1
1
1
1
1
1
1
1
1
1
1
1
1
1
1
1
1
1
1
1
1
1
1
1
1
1
1
1
1
1
1
1
1
1
1
1
1
1
1
1
1
1
1
1
1
1
1
1
1
1
1
1
1
1
1
1
1
1
1
1
1
1
1
1
1
1
1
1
1
1
1
1
1
1
1
1
1
1
1
1
1
1
1
1
1
1
1
1
1
1
1
1
1
1
1
1
1
1
1
1
1
1
0.0219081
0.0710566
0.120485
0.158246
0.206394
0.251832
0.298314
0.340814
0.365625
0.382942
0.38702
0.385993
0.382571
0.375634
0.364331
0.349465
0.333626
0.316243
0.289218
0.247247
0.19061
0.127853
0.0724143
0.0317196
0.00902313
0.00274848
0.00411459
0.00877073
0.0166319
0.0438862
0.0885079
0.090295
0.107994
0.340658
0.778092
0.809602
0.808253
0.807116
0.806737
0.806537
0.806301
0.806097
0.805823
0.805618
0.805612
0.805695
0.805954
0.806424
0.80703
0.807574
0.807853
0.808077
0.808559
0.80933
0.809794
0.809996
0.810306
0.811041
0.811879
0.812352
0.812789
0.813451
0.813982
0.814527
0.815181
0.8158
0.816458
0.817182
0.817731
0.818245
0.818818
0.819353
0.819875
0.820387
0.820834
0.821389
0.821975
0.82261
0.823288
0.823963
0.824596
0.825306
0.826097
0.826977
0.827908
0.828886
0.829838
0.830841
0.831901
0.833058
0.834182
0.835413
0.836614
0.837681
0.838599
0.839229
0.839521
0.839278
0.838254
0.836214
0.832969
0.828359
0.822266
0.814537
0.804913
0.793017
0.778387
0.760532
0.739014
0.713359
0.683217
0.64828
0.608619
0.5643
0.515094
0.461324
0.403362
0.341784
0.279359
0.219519
0.164841
0.119103
0.084023
0.0578125
0.0387644
0.0253373
0.0161599
0.0100685
0.00613456
0.00365797
0.00213584
0.00122151
0.000684314
0.000375485
0.00020175
0.000106123
5.46377e-05
2.7532e-05
1.35793e-05
6.55706e-06
3.10074e-06
1.43644e-06
6.52067e-07
2.90101e-07
1.26494e-07
5.4052e-08
2.26305e-08
9.28126e-09
3.72768e-09
1.46582e-09
5.64213e-10
2.12551e-10
7.83604e-11
2.82703e-11
9.98093e-12
3.44862e-12
1.16626e-12
3.86083e-13
1.25129e-13
3.97099e-14
1.23419e-14
3.7574e-15
1.12073e-15
3.27567e-16
9.3833e-17
2.63464e-17
7.25152e-18
1.95656e-18
5.17475e-19
1.34147e-19
3.40772e-20
8.48035e-21
2.06614e-21
4.92516e-22
1.14702e-22
2.60587e-23
5.75562e-24
1.23081e-24
2.53038e-25
4.45989e-26
0.0124753
0.0418603
0.0647733
0.104249
0.200911
0.311934
0.40235
0.451353
0.472749
0.473377
0.470744
0.46814
0.462685
0.459083
0.457566
0.454297
0.447323
0.438684
0.419593
0.391832
0.346742
0.245989
0.150008
0.0841374
0.045719
0.0203796
0.0166991
0.0350733
0.0534983
0.0611929
0.251332
0.632722
0.704729
0.756383
0.803405
0.805699
0.800385
0.796302
0.791168
0.785335
0.780827
0.776548
0.773382
0.770295
0.766847
0.76529
0.763613
0.761828
0.759998
0.759221
0.75885
0.758748
0.758887
0.759928
0.761189
0.761661
0.762169
0.763562
0.765326
0.766987
0.768712
0.770717
0.772939
0.775261
0.777588
0.780101
0.78286
0.785617
0.7882
0.790709
0.793199
0.79581
0.798221
0.800106
0.801719
0.803215
0.804765
0.806379
0.808065
0.809636
0.81109
0.812694
0.814463
0.816229
0.817952
0.819933
0.822031
0.824276
0.826549
0.829344
0.832239
0.835559
0.839293
0.843531
0.848431
0.854098
0.860667
0.868363
0.877446
0.88778
0.898619
0.909177
0.918668
0.927269
0.93559
0.943822
0.951778
0.958785
0.964136
0.968195
0.971099
0.972828
0.973267
0.972436
0.968001
0.959727
0.949666
0.93741
0.91973
0.890304
0.841936
0.767564
0.666612
0.550226
0.433831
0.328714
0.240896
0.171376
0.118559
0.0798286
0.0523374
0.0334186
0.0207855
0.0125953
0.00743797
0.00428206
0.00240437
0.00131738
0.000704665
0.00036811
0.000187845
9.36446e-05
4.56039e-05
2.16913e-05
1.00746e-05
4.56799e-06
2.02153e-06
8.73019e-07
3.67887e-07
1.51268e-07
6.06937e-08
2.37663e-08
9.084e-09
3.3899e-09
1.23539e-09
4.39793e-10
1.52984e-10
5.20151e-11
1.72911e-11
5.62162e-12
1.78801e-12
5.56518e-13
1.69553e-13
5.05776e-14
1.47751e-14
4.22772e-15
1.18505e-15
3.25451e-16
8.75664e-17
2.30863e-17
5.9617e-18
1.5083e-18
3.73432e-19
9.05343e-20
2.14273e-20
4.96025e-21
1.11403e-21
2.44005e-22
5.1009e-23
1.00488e-23
0.00605381
0.0133531
0.040384
0.109601
0.270443
0.403797
0.484787
0.499401
0.494469
0.483284
0.462718
0.449722
0.431221
0.416024
0.414956
0.417197
0.425085
0.429257
0.437259
0.438123
0.432155
0.409481
0.342774
0.203727
0.131395
0.061841
0.0401763
0.0787339
0.401154
0.626982
0.71793
0.76746
0.785065
0.792415
0.794642
0.780137
0.772555
0.76358
0.759181
0.755474
0.753035
0.750398
0.749119
0.747425
0.746163
0.744931
0.743209
0.741338
0.739164
0.737035
0.735736
0.735144
0.734836
0.734689
0.734634
0.734626
0.734636
0.734662
0.734724
0.734858
0.735093
0.735427
0.735835
0.736297
0.736873
0.73769
0.738739
0.739923
0.74127
0.742831
0.744722
0.746966
0.749561
0.752569
0.755902
0.759469
0.763233
0.767229
0.771504
0.775826
0.77981
0.783582
0.787297
0.790802
0.793876
0.796688
0.799518
0.802258
0.804676
0.807438
0.809839
0.812363
0.814817
0.81731
0.819858
0.822464
0.825162
0.827917
0.830917
0.8349
0.841164
0.850391
0.862013
0.873657
0.88493
0.895705
0.906371
0.918374
0.932254
0.946872
0.961031
0.973116
0.982079
0.987882
0.991445
0.993457
0.994434
0.994775
0.994762
0.994276
0.992836
0.990539
0.985934
0.975796
0.950244
0.875901
0.740046
0.595783
0.458114
0.338064
0.240555
0.165456
0.11022
0.0712304
0.0447173
0.0273012
0.0162252
0.00939352
0.00530071
0.00291647
0.00156484
0.000818799
0.000417778
0.000207835
0.000100794
4.76486e-05
2.19557e-05
9.86129e-06
4.31766e-06
1.84313e-06
7.67257e-07
3.11535e-07
1.23415e-07
4.77145e-08
1.80086e-08
6.63719e-09
2.38944e-09
8.40503e-10
2.8896e-10
9.7121e-11
3.19213e-11
1.02626e-11
3.22803e-12
9.93632e-13
2.99359e-13
8.82915e-14
2.5494e-14
7.20814e-15
1.99546e-15
5.4098e-16
1.4357e-16
3.73115e-17
9.48438e-18
2.36013e-18
5.73203e-19
1.36176e-19
3.14049e-20
7.07033e-21
1.52551e-21
3.16195e-22
0.019016
0.07205
0.160039
0.368742
0.50506
0.541708
0.535201
0.515157
0.4667
0.415036
0.366054
0.332319
0.31578
0.293838
0.288936
0.293225
0.308152
0.348583
0.40336
0.434016
0.44979
0.447056
0.423302
0.332717
0.160767
0.0726194
0.197615
0.591951
0.702641
0.753834
0.775675
0.782714
0.783968
0.779935
0.76325
0.755927
0.752689
0.750625
0.749653
0.748919
0.748145
0.747027
0.746228
0.745409
0.744733
0.743922
0.742821
0.741645
0.740374
0.738954
0.737785
0.737049
0.736727
0.736546
0.736499
0.736541
0.736638
0.736716
0.736772
0.73687
0.736919
0.736923
0.736963
0.737107
0.737342
0.737846
0.738489
0.73928
0.740373
0.741732
0.743488
0.745639
0.748217
0.751572
0.75561
0.760352
0.766263
0.773676
0.781768
0.789127
0.794422
0.798322
0.80152
0.804128
0.806225
0.807989
0.80981
0.811872
0.813738
0.815807
0.81779
0.820022
0.822202
0.824102
0.825585
0.827337
0.829148
0.830644
0.831513
0.831804
0.833129
0.836221
0.842529
0.854431
0.86879
0.882123
0.893848
0.903282
0.911113
0.919142
0.928215
0.939291
0.952367
0.96603
0.977846
0.986544
0.992115
0.995384
0.99723
0.998212
0.998669
0.998817
0.99882
0.998693
0.998145
0.996346
0.991433
0.978945
0.944288
0.835694
0.662316
0.501648
0.36463
0.255177
0.172423
0.112687
0.0713514
0.0438284
0.026141
0.0151466
0.00852719
0.00466434
0.00247871
0.00127964
0.000641768
0.000312723
0.000148096
6.81845e-05
3.05332e-05
1.33049e-05
5.64445e-06
2.3325e-06
9.39352e-07
3.68846e-07
1.41277e-07
5.28068e-08
1.92697e-08
6.86738e-09
2.39105e-09
8.13601e-10
2.70641e-10
8.80362e-11
2.80109e-11
8.71958e-12
2.65613e-12
7.9191e-13
2.31107e-13
6.60297e-14
1.84683e-14
5.05775e-15
1.35574e-15
3.55798e-16
9.13303e-17
2.29432e-17
5.62721e-18
1.34925e-18
3.14543e-19
7.15027e-20
1.56676e-20
3.30421e-21
0.176182
0.226886
0.406801
0.552241
0.578195
0.562412
0.509659
0.402453
0.347806
0.324823
0.311005
0.290695
0.279611
0.268749
0.246138
0.237461
0.24015
0.257645
0.322404
0.411045
0.453073
0.464767
0.441617
0.310247
0.132677
0.264841
0.619779
0.731156
0.764735
0.776385
0.779129
0.778197
0.767251
0.754486
0.749095
0.746745
0.745886
0.745515
0.745324
0.744886
0.744235
0.743015
0.74156
0.740273
0.739281
0.738472
0.737377
0.73629
0.735933
0.735908
0.736811
0.738766
0.739516
0.739952
0.740708
0.741975
0.74356
0.745271
0.746912
0.747741
0.748454
0.749388
0.749728
0.749821
0.749727
0.749684
0.749182
0.749058
0.749078
0.749281
0.75019
0.751805
0.753916
0.75773
0.762842
0.769099
0.77672
0.784503
0.791257
0.797092
0.801121
0.804804
0.807714
0.80975
0.811409
0.813179
0.814743
0.816279
0.817207
0.818396
0.820232
0.822826
0.826231
0.830398
0.834235
0.836063
0.836984
0.839258
0.841988
0.843761
0.842582
0.838001
0.836364
0.837425
0.84515
0.865572
0.887649
0.904355
0.9156
0.922043
0.926983
0.933591
0.94169
0.950947
0.960969
0.971089
0.980293
0.987612
0.992746
0.995975
0.997834
0.998833
0.999327
0.999536
0.99959
0.999582
0.999473
0.999005
0.997402
0.99249
0.978648
0.937221
0.805294
0.616017
0.451264
0.31779
0.215706
0.141428
0.0896519
0.0549753
0.0326191
0.0187281
0.010405
0.00559435
0.00291153
0.00146736
0.000716546
0.000339274
0.000155878
6.95496e-05
3.01589e-05
1.27197e-05
5.22131e-06
2.08741e-06
8.13234e-07
3.08917e-07
1.14471e-07
4.13979e-08
1.46173e-08
5.0411e-09
1.69867e-09
5.59446e-10
1.80137e-10
5.67228e-11
1.74711e-11
5.26484e-12
1.55242e-12
4.47988e-13
1.2652e-13
3.49741e-14
9.4607e-15
2.50469e-15
6.48522e-16
1.64257e-16
4.06277e-17
9.81705e-18
2.30906e-18
5.29075e-19
1.17329e-19
2.5066e-20
0.182219
0.293996
0.552134
0.608501
0.590711
0.500121
0.378279
0.341247
0.32458
0.319133
0.307952
0.285682
0.275011
0.264301
0.236855
0.218597
0.217547
0.222849
0.272779
0.4068
0.469078
0.47846
0.422979
0.220028
0.231611
0.613601
0.736888
0.768907
0.77686
0.778074
0.775505
0.764575
0.752508
0.74696
0.742785
0.741139
0.739612
0.738341
0.736841
0.734711
0.731661
0.727366
0.723119
0.719961
0.718945
0.718746
0.718761
0.720023
0.722846
0.72489
0.726029
0.728608
0.733263
0.736904
0.738283
0.739229
0.741539
0.745528
0.748837
0.750343
0.751938
0.754847
0.757212
0.758329
0.759808
0.762032
0.763681
0.764496
0.765871
0.767047
0.76771
0.768748
0.769589
0.77127
0.77375
0.777075
0.781407
0.786394
0.791272
0.796106
0.800576
0.805213
0.809503
0.812856
0.815821
0.818028
0.818514
0.817891
0.816842
0.815907
0.815646
0.817073
0.821392
0.829059
0.83729
0.844558
0.848287
0.846726
0.84572
0.848594
0.852491
0.853872
0.849017
0.838146
0.834967
0.836753
0.850336
0.886213
0.916255
0.934288
0.943168
0.945238
0.946389
0.95056
0.958162
0.96614
0.97399
0.9811
0.9871
0.991815
0.995189
0.997352
0.998613
0.99929
0.999627
0.999774
0.999816
0.999814
0.999766
0.999541
0.998719
0.995948
0.987125
0.959836
0.867947
0.673033
0.493931
0.347506
0.235076
0.15311
0.0960831
0.0581
0.0338536
0.0190125
0.0102965
0.00538119
0.00271645
0.00132593
0.000626493
0.000286861
0.000127423
5.49642e-05
2.30441e-05
9.39823e-06
3.73126e-06
1.44303e-06
5.43947e-07
1.99955e-07
7.17149e-08
2.5106e-08
8.58244e-09
2.86594e-09
9.35167e-10
2.9827e-10
9.3012e-11
2.83649e-11
8.46081e-12
2.46893e-12
7.04846e-13
1.96889e-13
5.38056e-14
1.43858e-14
3.76117e-15
9.61561e-16
2.40101e-16
5.85448e-17
1.39079e-17
3.21769e-18
7.22522e-19
1.56564e-19
0.170824
0.426598
0.619415
0.624059
0.551344
0.400645
0.343096
0.334406
0.34223
0.333163
0.301364
0.249053
0.231559
0.225039
0.201837
0.178956
0.178055
0.204982
0.290787
0.429297
0.490954
0.464545
0.318465
0.259003
0.552156
0.72991
0.768955
0.776956
0.77776
0.775479
0.766795
0.75277
0.745307
0.739195
0.733903
0.729875
0.724675
0.719158
0.713882
0.708244
0.705914
0.704922
0.704266
0.703664
0.702906
0.701638
0.70148
0.701489
0.701933
0.701924
0.70147
0.701577
0.703907
0.708852
0.713226
0.715828
0.719478
0.726261
0.733256
0.738103
0.741922
0.747615
0.752756
0.756389
0.759404
0.762047
0.765062
0.766458
0.76892
0.77114
0.772718
0.774888
0.776598
0.778453
0.780482
0.782703
0.785324
0.788216
0.791479
0.795546
0.800349
0.805203
0.810349
0.814781
0.818039
0.8191
0.818307
0.813504
0.805527
0.797737
0.79358
0.793383
0.79645
0.804719
0.819607
0.837929
0.854737
0.862601
0.861712
0.854432
0.853665
0.857742
0.860846
0.85929
0.845198
0.835973
0.836089
0.844694
0.880697
0.924644
0.949824
0.962824
0.967297
0.967269
0.966752
0.967775
0.973153
0.979866
0.985399
0.989874
0.993325
0.995863
0.997604
0.998701
0.999331
0.999665
0.999828
0.999894
0.99991
0.999906
0.999867
0.999689
0.999015
0.996635
0.988546
0.961984
0.870483
0.670828
0.487674
0.338943
0.225701
0.144117
0.0882855
0.0519131
0.0293225
0.0159263
0.00832863
0.00419949
0.00204464
0.00096263
0.000438842
0.000193956
8.32009e-05
3.46746e-05
1.40519e-05
5.5416e-06
2.12817e-06
7.96368e-07
2.90532e-07
1.03387e-07
3.59018e-08
1.21711e-08
4.02962e-09
1.30337e-09
4.1197e-10
1.27285e-10
3.84498e-11
1.1358e-11
3.28128e-12
9.27195e-13
2.56247e-13
6.92641e-14
1.83053e-14
4.72921e-15
1.19346e-15
2.94055e-16
7.06361e-17
1.65288e-17
3.76128e-18
8.27722e-19
0.159432
0.482872
0.644028
0.628429
0.495587
0.373303
0.339097
0.361381
0.367587
0.32608
0.211638
0.153609
0.127393
0.131992
0.14173
0.155849
0.178103
0.229586
0.379235
0.477748
0.481497
0.379135
0.325255
0.454105
0.70678
0.764897
0.775953
0.777041
0.774678
0.765051
0.745399
0.734852
0.726503
0.717956
0.711442
0.704098
0.70038
0.697766
0.695846
0.69426
0.693546
0.69176
0.689046
0.685319
0.679552
0.672108
0.665883
0.660181
0.655785
0.65259
0.649142
0.647709
0.647482
0.650216
0.65549
0.660617
0.665559
0.67546
0.685528
0.696636
0.707355
0.71803
0.728089
0.7377
0.746271
0.7516
0.757301
0.760101
0.763776
0.766665
0.769979
0.772596
0.775556
0.778003
0.780479
0.782914
0.785574
0.788432
0.791699
0.795532
0.800026
0.804483
0.809072
0.812825
0.814552
0.814634
0.81334
0.807385
0.798085
0.79109
0.788503
0.79034
0.793216
0.797801
0.80556
0.816386
0.833823
0.858655
0.872969
0.874144
0.864637
0.858359
0.860816
0.86585
0.866057
0.854322
0.843058
0.84256
0.85145
0.888957
0.93548
0.96237
0.976286
0.982635
0.984239
0.983964
0.983294
0.983557
0.985981
0.989945
0.993044
0.995419
0.997139
0.998308
0.999055
0.9995
0.999747
0.999874
0.999933
0.999953
0.999955
0.999946
0.999896
0.999682
0.998872
0.995955
0.985759
0.950892
0.828929
0.620416
0.440166
0.297698
0.192189
0.118561
0.0699712
0.0395604
0.0214628
0.0111942
0.0056232
0.00272535
0.00127653
0.0005787
0.000254254
0.000108388
4.48779e-05
1.80639e-05
7.07381e-06
2.69688e-06
1.00162e-06
3.62588e-07
1.28001e-07
4.40864e-08
1.48205e-08
4.86463e-09
1.5596e-09
4.88522e-10
1.49544e-10
4.47473e-11
1.30901e-11
3.74415e-12
1.04714e-12
2.86345e-13
7.65471e-14
1.99999e-14
5.10461e-15
1.27206e-15
3.09216e-16
7.32578e-17
1.69024e-17
3.77942e-18
0.153574
0.511913
0.656104
0.628128
0.478591
0.367899
0.355665
0.3775
0.377612
0.29845
0.177913
0.131561
0.123
0.132184
0.147328
0.173202
0.222857
0.357938
0.459395
0.476032
0.415913
0.373994
0.405911
0.666102
0.755619
0.773467
0.775635
0.773279
0.762114
0.737668
0.722076
0.711114
0.702706
0.697108
0.692297
0.688342
0.686555
0.685749
0.685389
0.682879
0.676675
0.665565
0.654702
0.641844
0.629727
0.619684
0.609897
0.603891
0.598002
0.593996
0.590162
0.58844
0.587859
0.588817
0.591753
0.596025
0.601879
0.612405
0.622101
0.633042
0.649357
0.663465
0.679478
0.693508
0.706711
0.71806
0.726746
0.733915
0.7393
0.743592
0.748626
0.753898
0.759847
0.765617
0.770869
0.775283
0.779471
0.78349
0.78737
0.791209
0.79535
0.799593
0.803659
0.806766
0.809803
0.812223
0.813569
0.813426
0.811714
0.814758
0.82491
0.839809
0.849486
0.850317
0.845133
0.83177
0.827145
0.836886
0.860585
0.877519
0.87835
0.869214
0.861755
0.863983
0.872398
0.874998
0.866907
0.858553
0.85868
0.870731
0.912368
0.951231
0.973631
0.985249
0.990921
0.993259
0.993908
0.993947
0.993797
0.993812
0.994442
0.995978
0.997277
0.998276
0.998977
0.999426
0.999694
0.999843
0.999922
0.999961
0.999975
0.999978
0.999975
0.999956
0.999868
0.999517
0.998201
0.993409
0.976302
0.915523
0.733104
0.52619
0.358884
0.23269
0.143689
0.0846757
0.0477181
0.0257704
0.0133668
0.00667353
0.0032137
0.00149534
0.000673319
0.000293786
0.000124358
5.1119e-05
2.0424e-05
7.9375e-06
3.00267e-06
1.10632e-06
3.9723e-07
1.39063e-07
4.74885e-08
1.58253e-08
5.14835e-09
1.63561e-09
5.07592e-10
1.53916e-10
4.56114e-11
1.32114e-11
3.74062e-12
1.0353e-12
2.80072e-13
7.40421e-14
1.91225e-14
4.82246e-15
1.18687e-15
2.84861e-16
6.66567e-17
1.51455e-17
0.150964
0.521077
0.661185
0.63457
0.479495
0.384292
0.367944
0.384758
0.399026
0.361444
0.244433
0.187312
0.170875
0.175501
0.21179
0.28804
0.386302
0.447127
0.46232
0.437005
0.406434
0.416957
0.62164
0.73999
0.769074
0.773172
0.771475
0.75863
0.727218
0.707981
0.696331
0.688034
0.684051
0.681924
0.680044
0.67824
0.677272
0.675505
0.67026
0.658759
0.642706
0.628023
0.614842
0.603823
0.595866
0.588534
0.579814
0.572637
0.566668
0.559297
0.551848
0.546569
0.542687
0.54132
0.541978
0.546064
0.55031
0.558916
0.56997
0.581178
0.596188
0.612263
0.62961
0.646584
0.663834
0.679925
0.69377
0.704615
0.712247
0.716429
0.719169
0.722183
0.725704
0.730189
0.735514
0.741947
0.749111
0.756943
0.765071
0.772753
0.779504
0.786001
0.792599
0.798852
0.804772
0.810805
0.817372
0.82554
0.837123
0.85471
0.87928
0.905795
0.928236
0.941818
0.944747
0.935471
0.891164
0.850042
0.847809
0.863816
0.87662
0.876298
0.867457
0.864459
0.869003
0.883944
0.890603
0.886905
0.882969
0.884558
0.901945
0.94035
0.967602
0.983258
0.99134
0.995308
0.997166
0.997938
0.998196
0.998242
0.998227
0.9982
0.998262
0.998634
0.999122
0.99947
0.9997
0.999839
0.999918
0.99996
0.99998
0.999988
0.999989
0.999988
0.999978
0.999931
0.999739
0.998995
0.996199
0.985847
0.947992
0.811887
0.588706
0.401971
0.260068
0.159875
0.093643
0.0524038
0.0280916
0.0144597
0.0071626
0.00342136
0.0015789
0.000705127
0.000305173
0.000128132
5.22416e-05
2.07006e-05
7.9778e-06
2.99231e-06
1.09299e-06
3.89003e-07
1.34969e-07
4.56728e-08
1.50802e-08
4.86006e-09
1.52935e-09
4.70037e-10
1.41129e-10
4.14045e-11
1.18707e-11
3.32608e-12
9.10766e-13
2.43694e-13
6.37034e-14
1.62632e-14
4.05355e-15
9.85862e-16
2.33974e-16
5.40115e-17
0.149026
0.516253
0.663021
0.649755
0.522594
0.397618
0.374476
0.386736
0.410796
0.415022
0.38626
0.345932
0.330867
0.333917
0.380424
0.425701
0.448007
0.454577
0.442135
0.42761
0.434977
0.568401
0.721971
0.762982
0.770547
0.770213
0.758032
0.722384
0.698042
0.68681
0.677351
0.670825
0.667333
0.664882
0.663331
0.661779
0.65806
0.6511
0.639165
0.626134
0.614171
0.603551
0.592871
0.583585
0.574642
0.561501
0.545966
0.529072
0.512008
0.496076
0.480556
0.466931
0.458986
0.456128
0.45727
0.465516
0.47378
0.487667
0.502871
0.518422
0.536882
0.561724
0.588362
0.616644
0.640906
0.663657
0.683891
0.700616
0.712542
0.718621
0.720024
0.720554
0.721292
0.722008
0.722344
0.722288
0.722524
0.724048
0.727386
0.733212
0.741523
0.75139
0.761681
0.771613
0.780924
0.79045
0.800556
0.813422
0.831379
0.852959
0.879159
0.908441
0.93575
0.955529
0.965986
0.968474
0.964725
0.933177
0.873904
0.861534
0.868786
0.873578
0.871679
0.866386
0.866947
0.877663
0.902335
0.913863
0.913424
0.91228
0.915303
0.935532
0.963112
0.98046
0.990221
0.99522
0.997638
0.998778
0.999275
0.999458
0.999501
0.999499
0.999473
0.999462
0.999482
0.999607
0.999766
0.999867
0.999928
0.999963
0.999982
0.999991
0.999995
0.999995
0.999994
0.999987
0.999956
0.999824
0.9993
0.997271
0.989515
0.960255
0.850562
0.621128
0.422261
0.27111
0.165149
0.0957849
0.0530659
0.0281649
0.0143584
0.00704681
0.00333588
0.00152571
0.000675171
0.000289477
0.000120392
4.86217e-05
1.90856e-05
7.28652e-06
2.70734e-06
9.79547e-07
3.45303e-07
1.18654e-07
3.97618e-08
1.29997e-08
4.14801e-09
1.2922e-09
3.93123e-10
1.16824e-10
3.39174e-11
9.62154e-12
2.667e-12
7.2233e-13
1.91139e-13
4.94043e-14
1.24716e-14
3.07373e-15
7.39784e-16
1.7344e-16
0.139057
0.492779
0.665674
0.663974
0.561301
0.428002
0.387281
0.383736
0.413469
0.431313
0.434609
0.432459
0.428162
0.434153
0.444499
0.451259
0.452596
0.444805
0.439648
0.447639
0.536037
0.698983
0.755561
0.768133
0.769183
0.760058
0.72772
0.69296
0.677241
0.667651
0.661452
0.659288
0.658459
0.657361
0.656021
0.654484
0.649905
0.640107
0.626533
0.61311
0.603221
0.591234
0.576316
0.557691
0.531904
0.502942
0.470315
0.43796
0.410648
0.38304
0.361858
0.350644
0.34479
0.343063
0.351385
0.365312
0.392597
0.416501
0.442432
0.466821
0.487148
0.504743
0.522821
0.547059
0.581399
0.621166
0.662406
0.695981
0.722914
0.744138
0.758764
0.765129
0.766012
0.764345
0.760928
0.754593
0.744291
0.733596
0.728279
0.729089
0.734545
0.744055
0.755084
0.765253
0.772345
0.776665
0.77714
0.776184
0.776193
0.785391
0.807724
0.845963
0.898452
0.939943
0.962698
0.970225
0.970531
0.964377
0.928674
0.88278
0.872249
0.873472
0.873416
0.869512
0.867975
0.871606
0.893665
0.925195
0.939382
0.940986
0.940927
0.944449
0.961523
0.978786
0.988961
0.994579
0.997455
0.998829
0.999453
0.99972
0.99982
0.999846
0.999847
0.999839
0.999834
0.999838
0.999867
0.999918
0.999952
0.999974
0.999986
0.999993
0.999997
0.999998
0.999998
0.999997
0.999991
0.999965
0.999853
0.9994
0.997586
0.990442
0.962796
0.857433
0.622936
0.418792
0.265559
0.159697
0.0914461
0.0500376
0.0262437
0.0132281
0.00642216
0.00300879
0.00136243
0.000597077
0.000253532
0.00010441
4.17408e-05
1.62134e-05
6.12406e-06
2.25114e-06
8.05873e-07
2.81093e-07
9.55761e-08
3.16919e-08
1.02522e-08
3.23677e-09
9.97629e-10
3.00265e-10
8.82707e-11
2.53498e-11
7.11268e-12
1.94986e-12
5.2227e-13
1.36666e-13
3.49386e-14
8.72475e-15
2.12895e-15
5.06678e-16
0.133818
0.45792
0.666573
0.675363
0.605359
0.47173
0.408117
0.391808
0.39495
0.423205
0.439708
0.446084
0.449137
0.45134
0.451798
0.450373
0.447282
0.445717
0.455181
0.515506
0.677838
0.745936
0.76544
0.768277
0.763052
0.737168
0.698625
0.675275
0.664336
0.655967
0.65062
0.648307
0.647188
0.64704
0.645828
0.641524
0.635516
0.624883
0.609281
0.594188
0.579277
0.563012
0.537408
0.499506
0.457237
0.419239
0.384466
0.350919
0.320111
0.293218
0.274846
0.265757
0.262387
0.265854
0.27966
0.306323
0.336407
0.371474
0.411267
0.445726
0.473954
0.495647
0.509179
0.522919
0.538324
0.557562
0.585315
0.628821
0.682015
0.732291
0.763448
0.780548
0.788474
0.79314
0.798752
0.806361
0.81439
0.817566
0.812346
0.804644
0.803368
0.809054
0.822871
0.835597
0.839614
0.837028
0.821266
0.790961
0.767106
0.751482
0.745901
0.750451
0.783651
0.870854
0.934562
0.959517
0.964661
0.962478
0.93979
0.901538
0.884674
0.881823
0.881411
0.878554
0.874286
0.874623
0.884212
0.918894
0.948449
0.961762
0.964655
0.964999
0.967686
0.978702
0.988582
0.994221
0.997228
0.998732
0.99944
0.999755
0.999886
0.999934
0.999949
0.999951
0.99995
0.99995
0.999953
0.999965
0.999978
0.999987
0.999993
0.999996
0.999998
0.999999
0.999999
0.999999
0.999998
0.999992
0.999965
0.99985
0.99937
0.997395
0.989423
0.958008
0.836993
0.595547
0.393719
0.24561
0.145389
0.0820134
0.0442452
0.022898
0.0113966
0.00546665
0.00253158
0.00113352
0.000491338
0.000206401
8.41078e-05
3.32749e-05
1.27902e-05
4.77978e-06
1.73774e-06
6.15036e-07
2.12045e-07
7.12573e-08
2.3354e-08
7.46831e-09
2.33103e-09
7.10328e-10
2.1138e-10
6.14399e-11
1.74459e-11
4.83991e-12
1.31198e-12
3.47507e-13
8.99506e-14
2.27527e-14
5.62677e-15
1.35866e-15
0.120909
0.407564
0.664555
0.684325
0.636625
0.531592
0.443467
0.409148
0.400772
0.40693
0.428209
0.437902
0.446274
0.448977
0.449263
0.448263
0.448837
0.460116
0.510358
0.661545
0.736914
0.763017
0.768533
0.766628
0.750232
0.713509
0.677878
0.662359
0.654577
0.647027
0.643874
0.64278
0.641058
0.638845
0.637079
0.632807
0.622916
0.610733
0.597556
0.584183
0.569421
0.545754
0.507049
0.461962
0.414615
0.370197
0.330284
0.293453
0.260381
0.232654
0.213163
0.202086
0.197605
0.197067
0.205091
0.221556
0.249932
0.297581
0.357382
0.415589
0.462503
0.493705
0.514686
0.530486
0.539251
0.551273
0.564637
0.580954
0.601638
0.635968
0.686955
0.730963
0.755746
0.766988
0.777674
0.794618
0.815284
0.835763
0.852561
0.865549
0.877628
0.890711
0.905219
0.91971
0.932699
0.940954
0.941552
0.926024
0.870127
0.798679
0.752959
0.740675
0.746401
0.784094
0.882532
0.935848
0.949428
0.947791
0.930102
0.903955
0.894556
0.895162
0.900522
0.900446
0.895238
0.891607
0.893469
0.912003
0.947018
0.968641
0.978749
0.981946
0.982822
0.984658
0.990033
0.994591
0.997277
0.998715
0.999426
0.999755
0.999897
0.999954
0.999976
0.999982
0.999984
0.999985
0.999987
0.99999
0.999993
0.999995
0.999997
0.999998
0.999999
0.999999
1
1
0.999999
0.999998
0.99999
0.999957
0.999814
0.999197
0.996608
0.986002
0.943863
0.786883
0.543314
0.351637
0.215195
0.125132
0.0694248
0.0368796
0.0188117
0.0092355
0.0043724
0.00199943
0.000884316
0.000378733
0.000157227
6.33258e-05
2.47657e-05
9.4115e-06
3.47775e-06
1.25037e-06
4.37651e-07
1.49206e-07
4.95695e-08
1.60552e-08
5.07223e-09
1.56372e-09
4.70633e-10
1.38338e-10
3.97269e-11
1.11471e-11
3.05664e-12
8.19147e-13
2.14591e-13
5.49576e-14
1.37671e-14
3.37061e-15
0.113346
0.344989
0.653924
0.692057
0.657689
0.584799
0.499685
0.443372
0.422001
0.416522
0.421814
0.436057
0.441882
0.447052
0.450499
0.45353
0.466151
0.51239
0.646018
0.729973
0.76112
0.770065
0.771018
0.762545
0.734969
0.694106
0.667842
0.655592
0.647309
0.640763
0.63769
0.635953
0.635333
0.634385
0.631223
0.626112
0.617023
0.604246
0.590851
0.575734
0.552306
0.51231
0.462496
0.410127
0.360558
0.317305
0.279181
0.244833
0.216238
0.193264
0.180803
0.174475
0.17131
0.172446
0.177539
0.188992
0.210019
0.243949
0.298801
0.369865
0.437201
0.480688
0.512787
0.543483
0.576585
0.588638
0.591606
0.594599
0.600037
0.61088
0.629223
0.650478
0.666573
0.673689
0.678132
0.689013
0.717588
0.760926
0.8071
0.842381
0.865176
0.882488
0.898019
0.915018
0.933619
0.949945
0.960771
0.965098
0.963568
0.943938
0.86292
0.782518
0.7605
0.772356
0.84094
0.918988
0.944148
0.943082
0.922949
0.903099
0.898496
0.900404
0.916556
0.933116
0.934483
0.928867
0.924804
0.927252
0.946505
0.97039
0.983629
0.989688
0.992496
0.99426
0.995718
0.997063
0.998205
0.999021
0.999519
0.999782
0.999907
0.999961
0.999983
0.999991
0.999994
0.999996
0.999997
0.999997
0.999998
0.999999
0.999999
1
1
1
1
1
1
0.999999
0.999997
0.999986
0.999937
0.999718
0.99877
0.99475
0.978227
0.912749
0.704408
0.472149
0.298683
0.178996
0.1021
0.0556539
0.0290836
0.0146088
0.00706821
0.00329981
0.00148864
0.000649753
0.00027469
0.000112588
4.47788e-05
1.72955e-05
6.49211e-06
2.36988e-06
8.41823e-07
2.91151e-07
9.80954e-08
3.22122e-08
1.0314e-08
3.22137e-09
9.81775e-10
2.92057e-10
8.48275e-11
2.40634e-11
6.66932e-12
1.80657e-12
4.78528e-13
1.23975e-13
3.14321e-14
7.79576e-15
0.100754
0.263528
0.631863
0.697846
0.684876
0.622461
0.577283
0.499258
0.460627
0.444102
0.439279
0.44259
0.449363
0.455727
0.466498
0.487238
0.539837
0.647824
0.726656
0.759601
0.770977
0.773275
0.770024
0.753452
0.723532
0.691
0.667648
0.655289
0.645919
0.639388
0.635745
0.632107
0.62919
0.627833
0.624621
0.61794
0.609086
0.597087
0.583526
0.568607
0.547428
0.511122
0.461351
0.406905
0.354566
0.309093
0.271376
0.239207
0.21393
0.193026
0.179304
0.170762
0.167289
0.167787
0.171054
0.179857
0.198138
0.226293
0.271329
0.344745
0.420558
0.468131
0.495089
0.52973
0.587002
0.646395
0.679664
0.687057
0.683549
0.670778
0.659198
0.654239
0.653589
0.651081
0.647848
0.644491
0.643512
0.647783
0.665178
0.693976
0.722764
0.743529
0.761819
0.791023
0.842809
0.901651
0.941191
0.961941
0.968224
0.967419
0.954992
0.891934
0.821858
0.806169
0.831269
0.909489
0.943176
0.94409
0.926157
0.906734
0.901856
0.903447
0.919411
0.951042
0.967341
0.97147
0.970184
0.96645
0.966453
0.974437
0.986371
0.992953
0.996202
0.997806
0.998646
0.999114
0.99941
0.99962
0.999773
0.999877
0.99994
0.999973
0.999988
0.999995
0.999997
0.999999
0.999999
0.999999
1
1
1
1
1
1
1
1
1
1
0.999999
0.999995
0.999975
0.999888
0.999499
0.997803
0.990637
0.961446
0.846726
0.599571
0.392486
0.242327
0.14206
0.0794316
0.0425122
0.0218412
0.0107964
0.00514434
0.00236651
0.00105242
0.000452973
0.000188889
7.63816e-05
2.9977e-05
1.14272e-05
4.23406e-06
1.5259e-06
5.35196e-07
1.82797e-07
6.08307e-08
1.97328e-08
6.24252e-09
1.92673e-09
5.80409e-10
1.70709e-10
4.90362e-11
1.37612e-11
3.77377e-12
1.01158e-12
2.65129e-13
6.79886e-14
1.70594e-14
0.0945548
0.187172
0.587596
0.700481
0.700781
0.663636
0.632206
0.602385
0.538925
0.508625
0.488814
0.482656
0.485774
0.501122
0.5328
0.589799
0.669133
0.729571
0.759784
0.772192
0.775838
0.776084
0.769753
0.751459
0.723613
0.693196
0.670482
0.657173
0.646837
0.639933
0.63601
0.632025
0.62789
0.624534
0.621056
0.615298
0.607009
0.596698
0.583781
0.5694
0.550349
0.517848
0.471135
0.417964
0.365546
0.319114
0.280786
0.24853
0.223179
0.203111
0.189112
0.178888
0.176796
0.178062
0.182122
0.191701
0.210994
0.230863
0.26593
0.33532
0.414381
0.46698
0.49265
0.515958
0.569048
0.655
0.725807
0.772814
0.80326
0.820692
0.819834
0.790923
0.746231
0.704852
0.677
0.657061
0.64448
0.63792
0.635662
0.636274
0.639985
0.643428
0.648022
0.658001
0.682963
0.764954
0.869935
0.929213
0.953921
0.961193
0.958103
0.92524
0.869866
0.84985
0.852132
0.896744
0.947223
0.955781
0.946706
0.923092
0.913336
0.91327
0.92411
0.955927
0.976954
0.986719
0.990255
0.990919
0.990737
0.990661
0.992025
0.995601
0.99781
0.998936
0.999459
0.999703
0.999823
0.99989
0.999932
0.99996
0.999977
0.999988
0.999994
0.999997