/*--------------------------------*- C++ -*----------------------------------*\
  =========                 |
  \\      /  F ield         | OpenFOAM: The Open Source CFD Toolbox
   \\    /   O peration     | Website:  https://openfoam.org
    \\  /    A nd           | Version:  9
     \\/     M anipulation  |
\*---------------------------------------------------------------------------*/
FoamFile
{
    format      ascii;
    class       volSymmTensorField;
    location    "0.028";
    object      UPrime2Mean;
}
// * * * * * * * * * * * * * * * * * * * * * * * * * * * * * * * * * * * * * //

dimensions      [0 2 -2 0 0 0 0];

internalField   nonuniform List<symmTensor> 
12225
(
(-48.3285 -0.222444 0 0.00137305 0 0)
(-45.4541 -0.289657 0 -0.000752756 0 0)
(-42.5724 -0.272041 0 -0.00100211 0 0)
(-39.7405 -0.261632 0 -0.00115767 0 0)
(-37.0345 -0.256155 0 -0.00130729 0 0)
(-34.4834 -0.248646 0 -0.00138532 0 0)
(-32.0506 -0.240845 0 -0.0014278 0 0)
(-29.743 -0.231508 0 -0.00144709 0 0)
(-27.5012 -0.225634 0 -0.0014697 0 0)
(-25.3808 -0.217523 0 -0.001509 0 0)
(-23.2587 -0.218059 0 -0.00155032 0 0)
(-21.282 -0.21088 0 -0.00165381 0 0)
(-19.1761 -0.225508 0 -0.00167403 0 0)
(-17.2733 -0.216306 0 -0.00196013 0 0)
(-14.9953 -0.265905 0 -0.00169839 0 0)
(-13.0267 -0.24314 0 -0.00248632 0 0)
(-10.2514 -0.391047 0 0.000339555 0 0)
(-7.91523 -0.343062 0 -0.00417272 0 0)
(-50.3359 -0.254939 0 0.00154341 0 0)
(-50.8744 -0.383951 0 -0.00155486 0 0)
(-51.1335 -0.387711 0 -0.00210109 0 0)
(-51.134 -0.393798 0 -0.00240534 0 0)
(-50.9666 -0.409893 0 -0.0027957 0 0)
(-50.6963 -0.431017 0 -0.00319918 0 0)
(-50.3254 -0.451823 0 -0.00358735 0 0)
(-49.8657 -0.477948 0 -0.00402365 0 0)
(-49.2856 -0.501854 0 -0.00447055 0 0)
(-48.6143 -0.535498 0 -0.00497522 0 0)
(-47.7915 -0.563537 0 -0.00552965 0 0)
(-46.886 -0.610765 0 -0.006133 0 0)
(-45.7718 -0.650814 0 -0.00700326 0 0)
(-44.5925 -0.729024 0 -0.00778549 0 0)
(-43.0874 -0.806646 0 -0.00958359 0 0)
(-41.5302 -0.953416 0 -0.0104712 0 0)
(-39.4492 -1.14821 0 -0.014253 0 0)
(-37.3297 -1.48057 0 -0.0107608 0 0)
(-49.841 -0.171101 0 0.00271191 0 0)
(-50.1343 -0.28642 0 0.000171834 0 0)
(-50.3614 -0.312695 0 -0.000762035 0 0)
(-50.4565 -0.33369 0 -0.00122977 0 0)
(-50.4602 -0.364914 0 -0.00171642 0 0)
(-50.4284 -0.397345 0 -0.00220891 0 0)
(-50.373 -0.429152 0 -0.00266947 0 0)
(-50.291 -0.462152 0 -0.00316336 0 0)
(-50.165 -0.501512 0 -0.00368059 0 0)
(-49.9948 -0.546712 0 -0.00435821 0 0)
(-49.7634 -0.60422 0 -0.00503348 0 0)
(-49.4713 -0.669326 0 -0.0060391 0 0)
(-49.0967 -0.757971 0 -0.00689322 0 0)
(-48.6389 -0.860661 0 -0.00854514 0 0)
(-48.083 -1.01452 0 -0.00971638 0 0)
(-47.4252 -1.20612 0 -0.0123658 0 0)
(-46.7006 -1.51027 0 -0.0131551 0 0)
(-45.919 -1.92246 0 -0.00942443 0 0)
(-50.1613 -0.14797 0 0.00288523 0 0)
(-50.3434 -0.303693 0 3.94397e-05 0 0)
(-50.4793 -0.344114 0 -0.00103486 0 0)
(-50.5478 -0.362233 0 -0.00150299 0 0)
(-50.5491 -0.389892 0 -0.00200906 0 0)
(-50.5042 -0.425228 0 -0.00257376 0 0)
(-50.4267 -0.46228 0 -0.00312628 0 0)
(-50.3177 -0.503706 0 -0.00368787 0 0)
(-50.1757 -0.549151 0 -0.00430365 0 0)
(-49.9971 -0.603723 0 -0.00498367 0 0)
(-49.7787 -0.666069 0 -0.00578757 0 0)
(-49.5136 -0.743918 0 -0.00667225 0 0)
(-49.1974 -0.838934 0 -0.00778065 0 0)
(-48.8251 -0.96313 0 -0.00899049 0 0)
(-48.3975 -1.12662 0 -0.0104597 0 0)
(-47.929 -1.3472 0 -0.0116903 0 0)
(-47.4457 -1.64831 0 -0.0112295 0 0)
(-47.0177 -2.03681 0 -0.00613755 0 0)
(-49.9476 -0.129813 0 0.00367124 0 0)
(-50.0874 -0.274693 0 0.000993023 0 0)
(-50.2435 -0.32446 0 -0.000431038 0 0)
(-50.3614 -0.348155 0 -0.000999947 0 0)
(-50.3924 -0.380832 0 -0.00150296 0 0)
(-50.3437 -0.422348 0 -0.00206384 0 0)
(-50.2419 -0.465873 0 -0.00262172 0 0)
(-50.105 -0.511068 0 -0.00318755 0 0)
(-49.9378 -0.56215 0 -0.00377413 0 0)
(-49.7402 -0.622882 0 -0.00445056 0 0)
(-49.5075 -0.696878 0 -0.00518792 0 0)
(-49.2386 -0.787137 0 -0.00604321 0 0)
(-48.9272 -0.899056 0 -0.00693501 0 0)
(-48.5773 -1.03985 0 -0.00786173 0 0)
(-48.1852 -1.21971 0 -0.00865056 0 0)
(-47.7766 -1.45313 0 -0.00850926 0 0)
(-47.3613 -1.74646 0 -0.00637419 0 0)
(-47.0046 -2.10686 0 0.00232834 0 0)
(-49.8638 -0.109055 0 0.00504935 0 0)
(-49.9479 -0.252743 0 0.00194132 0 0)
(-50.071 -0.309385 0 0.000239954 0 0)
(-50.1797 -0.341655 0 -0.000539538 0 0)
(-50.2296 -0.383546 0 -0.0012374 0 0)
(-50.2218 -0.437142 0 -0.00199712 0 0)
(-50.1665 -0.493686 0 -0.00273745 0 0)
(-50.0653 -0.551055 0 -0.00342472 0 0)
(-49.9163 -0.612048 0 -0.00408645 0 0)
(-49.724 -0.681133 0 -0.00476214 0 0)
(-49.4939 -0.761952 0 -0.00545267 0 0)
(-49.234 -0.859271 0 -0.00615341 0 0)
(-48.943 -0.97885 0 -0.00679774 0 0)
(-48.6267 -1.12857 0 -0.00728994 0 0)
(-48.282 -1.31646 0 -0.00729167 0 0)
(-47.9301 -1.55195 0 -0.00604884 0 0)
(-47.5769 -1.8368 0 -0.0020829 0 0)
(-47.2704 -2.17332 0 0.00763965 0 0)
(-49.3967 -0.106045 0 0.00439387 0 0)
(-49.4716 -0.222199 0 0.00238398 0 0)
(-49.5442 -0.287669 0 0.000642351 0 0)
(-49.5893 -0.331603 0 -0.00025612 0 0)
(-49.5883 -0.375671 0 -0.000879284 0 0)
(-49.5562 -0.428721 0 -0.00149942 0 0)
(-49.5077 -0.489307 0 -0.00215938 0 0)
(-49.442 -0.555714 0 -0.00283447 0 0)
(-49.3473 -0.628195 0 -0.00349002 0 0)
(-49.2139 -0.709097 0 -0.00410241 0 0)
(-49.0353 -0.801538 0 -0.00465755 0 0)
(-48.8138 -0.91084 0 -0.00510949 0 0)
(-48.5518 -1.04231 0 -0.00537173 0 0)
(-48.2618 -1.20364 0 -0.00521773 0 0)
(-47.9519 -1.40002 0 -0.00428958 0 0)
(-47.6485 -1.63881 0 -0.0017257 0 0)
(-47.3587 -1.91873 0 0.00372311 0 0)
(-47.1243 -2.24126 0 0.0140726 0 0)
(-49.8139 -0.098097 0 0.00582602 0 0)
(-49.8203 -0.216814 0 0.00304635 0 0)
(-49.8429 -0.295208 0 0.00119202 0 0)
(-49.8896 -0.350409 0 0.000307685 0 0)
(-49.9109 -0.398571 0 -0.000315632 0 0)
(-49.8807 -0.451596 0 -0.000891156 0 0)
(-49.8083 -0.512903 0 -0.00148823 0 0)
(-49.7133 -0.582444 0 -0.00212987 0 0)
(-49.6023 -0.660944 0 -0.00279488 0 0)
(-49.4706 -0.750743 0 -0.00343358 0 0)
(-49.3088 -0.854522 0 -0.00398492 0 0)
(-49.1125 -0.976108 0 -0.00435541 0 0)
(-48.8799 -1.11894 0 -0.00440013 0 0)
(-48.619 -1.28837 0 -0.00383483 0 0)
(-48.3386 -1.48742 0 -0.00222579 0 0)
(-48.0589 -1.7216 0 0.00123378 0 0)
(-47.7938 -1.98922 0 0.00756843 0 0)
(-47.5701 -2.29205 0 0.0181789 0 0)
(-49.5316 -0.0818269 0 0.00561613 0 0)
(-49.4896 -0.194084 0 0.00305052 0 0)
(-49.5092 -0.272763 0 0.00135779 0 0)
(-49.5655 -0.332578 0 0.000432826 0 0)
(-49.593 -0.387669 0 -0.000235349 0 0)
(-49.5679 -0.449705 0 -0.000886543 0 0)
(-49.4984 -0.520291 0 -0.00152905 0 0)
(-49.4017 -0.597584 0 -0.00210963 0 0)
(-49.2881 -0.682306 0 -0.00259338 0 0)
(-49.16 -0.778329 0 -0.00295998 0 0)
(-49.0156 -0.889711 0 -0.00316922 0 0)
(-48.8545 -1.02065 0 -0.00312099 0 0)
(-48.6773 -1.17392 0 -0.00263639 0 0)
(-48.4885 -1.35312 0 -0.00139051 0 0)
(-48.2935 -1.55953 0 0.00107256 0 0)
(-48.1037 -1.79602 0 0.00545933 0 0)
(-47.9286 -2.06019 0 0.0125737 0 0)
(-47.7835 -2.35245 0 0.0233759 0 0)
(-49.7333 -0.129217 0 0.00535928 0 0)
(-49.7315 -0.185549 0 0.00331894 0 0)
(-49.7546 -0.270728 0 0.00185939 0 0)
(-49.7914 -0.342326 0 0.00103986 0 0)
(-49.8004 -0.403811 0 0.000372935 0 0)
(-49.7747 -0.46916 0 -0.000264128 0 0)
(-49.7247 -0.543309 0 -0.000860898 0 0)
(-49.6583 -0.626112 0 -0.00138517 0 0)
(-49.5734 -0.71711 0 -0.00179819 0 0)
(-49.4651 -0.818437 0 -0.00205767 0 0)
(-49.3315 -0.933555 0 -0.00209093 0 0)
(-49.1772 -1.06664 0 -0.00175608 0 0)
(-49.0092 -1.22047 0 -0.000837815 0 0)
(-48.8375 -1.39822 0 0.000979444 0 0)
(-48.6704 -1.60052 0 0.00412094 0 0)
(-48.5197 -1.82978 0 0.00915501 0 0)
(-48.3914 -2.08298 0 0.0167177 0 0)
(-48.2977 -2.36163 0 0.0273517 0 0)
(-49.7036 -0.0868627 0 0.00530875 0 0)
(-49.7506 -0.168902 0 0.00398422 0 0)
(-49.7766 -0.258583 0 0.00229097 0 0)
(-49.8138 -0.337769 0 0.00113984 0 0)
(-49.8378 -0.408884 0 0.000427561 0 0)
(-49.8259 -0.478448 0 -2.63329e-05 0 0)
(-49.7789 -0.55342 0 -0.00039132 0 0)
(-49.7077 -0.638764 0 -0.000713314 0 0)
(-49.6187 -0.736595 0 -0.000938609 0 0)
(-49.513 -0.848393 0 -0.000970672 0 0)
(-49.3913 -0.975415 0 -0.000683533 0 0)
(-49.2564 -1.11957 0 8.17217e-05 0 0)
(-49.1139 -1.28176 0 0.00154893 0 0)
(-48.9699 -1.46396 0 0.00400949 0 0)
(-48.8326 -1.66606 0 0.00782838 0 0)
(-48.7084 -1.89016 0 0.0134655 0 0)
(-48.6071 -2.13372 0 0.021384 0 0)
(-48.5316 -2.39828 0 0.031984 0 0)
(-50.1552 -0.0828329 0 0.00583386 0 0)
(-50.1744 -0.169717 0 0.00446076 0 0)
(-50.1802 -0.246551 0 0.00278855 0 0)
(-50.2094 -0.322772 0 0.0016274 0 0)
(-50.2394 -0.399404 0 0.000860038 0 0)
(-50.2402 -0.478814 0 0.000332351 0 0)
(-50.2053 -0.564924 0 -0.000120964 0 0)
(-50.1435 -0.660147 0 -0.000503751 0 0)
(-50.065 -0.764788 0 -0.000701796 0 0)
(-49.9774 -0.879633 0 -0.000583839 0 0)
(-49.8865 -1.00672 0 -3.25381e-05 0 0)
(-49.7957 -1.14918 0 0.00108076 0 0)
(-49.7087 -1.30889 0 0.00294933 0 0)
(-49.6264 -1.48794 0 0.00583584 0 0)
(-49.554 -1.68598 0 0.0100437 0 0)
(-49.4919 -1.9044 0 0.0159627 0 0)
(-49.4498 -2.1401 0 0.0239368 0 0)
(-49.4256 -2.3947 0 0.0341862 0 0)
(-49.8612 -0.0878262 0 0.00673258 0 0)
(-49.8481 -0.163475 0 0.00454477 0 0)
(-49.8658 -0.252598 0 0.00265123 0 0)
(-49.9078 -0.339387 0 0.00173507 0 0)
(-49.9345 -0.420372 0 0.00123069 0 0)
(-49.928 -0.500701 0 0.000909098 0 0)
(-49.8923 -0.586817 0 0.000652511 0 0)
(-49.8362 -0.682184 0 0.000491404 0 0)
(-49.7629 -0.787586 0 0.000542734 0 0)
(-49.677 -0.904109 0 0.000941961 0 0)
(-49.5843 -1.03334 0 0.00182251 0 0)
(-49.4947 -1.17767 0 0.00333228 0 0)
(-49.4141 -1.33804 0 0.00565941 0 0)
(-49.3515 -1.51604 0 0.00903361 0 0)
(-49.307 -1.71067 0 0.0137147 0 0)
(-49.2892 -1.92351 0 0.0200004 0 0)
(-49.2911 -2.15075 0 0.0281287 0 0)
(-49.328 -2.39528 0 0.0382672 0 0)
(-50.2311 -0.0918126 0 0.00915786 0 0)
(-50.2868 -0.135367 0 0.00692954 0 0)
(-50.338 -0.211975 0 0.00547825 0 0)
(-50.3955 -0.299133 0 0.00462551 0 0)
(-50.4379 -0.386693 0 0.00385352 0 0)
(-50.4535 -0.478195 0 0.00321447 0 0)
(-50.4459 -0.578625 0 0.00269213 0 0)
(-50.4199 -0.688978 0 0.00234883 0 0)
(-50.3777 -0.807461 0 0.00235478 0 0)
(-50.3218 -0.932901 0 0.00287685 0 0)
(-50.2574 -1.0651 0 0.0040165 0 0)
(-50.1908 -1.20617 0 0.00584347 0 0)
(-50.1298 -1.35805 0 0.00848147 0 0)
(-50.081 -1.52434 0 0.0121345 0 0)
(-50.0517 -1.70525 0 0.0170285 0 0)
(-50.0454 -1.90388 0 0.0234154 0 0)
(-50.0676 -2.11582 0 0.0314583 0 0)
(-50.1168 -2.34519 0 0.041205 0 0)
(-50.0817 -0.0465824 0 0.00856994 0 0)
(-50.1191 -0.145105 0 0.00691105 0 0)
(-50.1362 -0.232842 0 0.00475949 0 0)
(-50.1444 -0.321016 0 0.00383177 0 0)
(-50.1489 -0.412042 0 0.0033317 0 0)
(-50.1527 -0.50672 0 0.00303306 0 0)
(-50.157 -0.606064 0 0.00293535 0 0)
(-50.1635 -0.711602 0 0.00309946 0 0)
(-50.1728 -0.825206 0 0.00362088 0 0)
(-50.1841 -0.948919 0 0.00460904 0 0)
(-50.1952 -1.08302 0 0.00618273 0 0)
(-50.2049 -1.22774 0 0.00847279 0 0)
(-50.213 -1.38196 0 0.0116081 0 0)
(-50.2242 -1.54684 0 0.0157327 0 0)
(-50.2422 -1.72107 0 0.0209889 0 0)
(-50.2761 -1.90766 0 0.0275691 0 0)
(-50.3276 -2.10287 0 0.0355941 0 0)
(-50.4081 -2.3117 0 0.0451436 0 0)
(-50.0262 -0.0306336 0 0.0106618 0 0)
(-50.0564 -0.132994 0 0.00937233 0 0)
(-50.0682 -0.207953 0 0.00755346 0 0)
(-50.1039 -0.285516 0 0.00642994 0 0)
(-50.163 -0.373146 0 0.00570793 0 0)
(-50.234 -0.468574 0 0.00525645 0 0)
(-50.3066 -0.570747 0 0.00505848 0 0)
(-50.3727 -0.680419 0 0.00520657 0 0)
(-50.4298 -0.798023 0 0.0058266 0 0)
(-50.4812 -0.924082 0 0.00702354 0 0)
(-50.5315 -1.05813 0 0.00887343 0 0)
(-50.5848 -1.20062 0 0.0114389 0 0)
(-50.6435 -1.35048 0 0.0148037 0 0)
(-50.7103 -1.50922 0 0.0190755 0 0)
(-50.7872 -1.67477 0 0.0243375 0 0)
(-50.879 -1.85016 0 0.030773 0 0)
(-50.9866 -2.03023 0 0.0384281 0 0)
(-51.1174 -2.22066 0 0.0473256 0 0)
(-50.224 -0.0319483 0 0.01226 0 0)
(-50.1642 -0.11943 0 0.0111473 0 0)
(-50.1321 -0.201847 0 0.00768017 0 0)
(-50.1353 -0.279019 0 0.00596596 0 0)
(-50.1576 -0.354379 0 0.00552864 0 0)
(-50.1926 -0.437204 0 0.0057927 0 0)
(-50.2358 -0.532676 0 0.00633609 0 0)
(-50.2848 -0.640259 0 0.00701319 0 0)
(-50.3392 -0.756531 0 0.0079589 0 0)
(-50.4018 -0.879495 0 0.0093873 0 0)
(-50.473 -1.00809 0 0.0114426 0 0)
(-50.5549 -1.14307 0 0.0142124 0 0)
(-50.6466 -1.28331 0 0.0177497 0 0)
(-50.7537 -1.42992 0 0.0221366 0 0)
(-50.8747 -1.57973 0 0.0273947 0 0)
(-51.0191 -1.73548 0 0.0336597 0 0)
(-51.179 -1.89115 0 0.0408982 0 0)
(-51.3711 -2.05378 0 0.0491732 0 0)
(-49.8145 -0.0889031 0 0.0119175 0 0)
(-49.8143 -0.149569 0 0.0113174 0 0)
(-49.822 -0.217742 0 0.00895909 0 0)
(-49.8459 -0.285184 0 0.00790336 0 0)
(-49.8785 -0.356445 0 0.00775564 0 0)
(-49.922 -0.435424 0 0.00801423 0 0)
(-49.9763 -0.52253 0 0.00839841 0 0)
(-50.0399 -0.617704 0 0.00896415 0 0)
(-50.1146 -0.720997 0 0.00989452 0 0)
(-50.2066 -0.832426 0 0.0113406 0 0)
(-50.3183 -0.950001 0 0.0133838 0 0)
(-50.4502 -1.07208 0 0.0160679 0 0)
(-50.5985 -1.1957 0 0.0193955 0 0)
(-50.7635 -1.3211 0 0.0233928 0 0)
(-50.9408 -1.44579 0 0.0280027 0 0)
(-51.1341 -1.5732 0 0.0333692 0 0)
(-51.3364 -1.69888 0 0.0394673 0 0)
(-51.5564 -1.82993 0 0.0463477 0 0)
(-49.7174 -0.022228 0 0.0114064 0 0)
(-49.7755 -0.0914876 0 0.0105221 0 0)
(-49.8302 -0.159854 0 0.00752669 0 0)
(-49.8891 -0.227644 0 0.00627341 0 0)
(-49.9519 -0.297007 0 0.00610114 0 0)
(-50.0221 -0.369808 0 0.00645361 0 0)
(-50.1021 -0.446281 0 0.00716239 0 0)
(-50.1954 -0.525954 0 0.00818633 0 0)
(-50.3063 -0.607482 0 0.00949498 0 0)
(-50.4385 -0.690339 0 0.0110747 0 0)
(-50.5931 -0.774808 0 0.0129649 0 0)
(-50.7681 -0.863402 0 0.0152863 0 0)
(-50.9595 -0.957038 0 0.0181476 0 0)
(-51.1645 -1.05759 0 0.02163 0 0)
(-51.3798 -1.16218 0 0.0256873 0 0)
(-51.6058 -1.27167 0 0.0303875 0 0)
(-51.839 -1.37978 0 0.0356219 0 0)
(-52.0833 -1.4905 0 0.0414862 0 0)
(-49.9422 0.00558057 0 0.012244 0 0)
(-49.9049 -0.0690534 0 0.0111003 0 0)
(-49.9073 -0.130142 0 0.0074972 0 0)
(-49.9739 -0.185681 0 0.00607795 0 0)
(-50.0773 -0.244834 0 0.0059194 0 0)
(-50.192 -0.307575 0 0.0062779 0 0)
(-50.3134 -0.370166 0 0.00685143 0 0)
(-50.445 -0.431148 0 0.00751563 0 0)
(-50.5874 -0.492045 0 0.00829998 0 0)
(-50.7393 -0.555587 0 0.00933547 0 0)
(-50.8998 -0.623005 0 0.0107248 0 0)
(-51.0695 -0.695211 0 0.012516 0 0)
(-51.2493 -0.771147 0 0.0147051 0 0)
(-51.4416 -0.850959 0 0.0173003 0 0)
(-51.6471 -0.931964 0 0.0202499 0 0)
(-51.8669 -1.01499 0 0.0236293 0 0)
(-52.0984 -1.09561 0 0.0273576 0 0)
(-52.3414 -1.17728 0 0.0314821 0 0)
(-50.2015 -0.0712391 0 0.010218 0 0)
(-50.2673 -0.0849087 0 0.00972962 0 0)
(-50.3571 -0.105357 0 0.00721401 0 0)
(-50.4824 -0.140692 0 0.00593524 0 0)
(-50.6216 -0.185637 0 0.00551025 0 0)
(-50.7637 -0.234108 0 0.00569165 0 0)
(-50.9032 -0.284058 0 0.00627359 0 0)
(-51.04 -0.335068 0 0.0070832 0 0)
(-51.1779 -0.387412 0 0.00804473 0 0)
(-51.321 -0.441782 0 0.00917454 0 0)
(-51.4739 -0.497694 0 0.0104988 0 0)
(-51.6399 -0.554905 0 0.0120417 0 0)
(-51.8217 -0.612539 0 0.0138153 0 0)
(-52.0183 -0.671455 0 0.015854 0 0)
(-52.2303 -0.730997 0 0.0181534 0 0)
(-52.453 -0.792829 0 0.0207917 0 0)
(-52.6877 -0.854185 0 0.0236962 0 0)
(-52.9264 -0.917878 0 0.0268965 0 0)
(-50.4052 0.0549195 0 0.0117498 0 0)
(-50.5281 0.024429 0 0.00954529 0 0)
(-50.6338 -0.0190346 0 0.00663669 0 0)
(-50.7585 -0.0570708 0 0.00573632 0 0)
(-50.9061 -0.0975513 0 0.00562417 0 0)
(-51.0732 -0.14567 0 0.0058142 0 0)
(-51.2504 -0.198903 0 0.00615389 0 0)
(-51.4315 -0.252878 0 0.00665508 0 0)
(-51.6169 -0.304118 0 0.00732948 0 0)
(-51.8077 -0.351458 0 0.00813412 0 0)
(-52.0047 -0.395374 0 0.00902407 0 0)
(-52.2088 -0.437556 0 0.0100061 0 0)
(-52.4211 -0.47948 0 0.0111336 0 0)
(-52.6433 -0.523179 0 0.0124882 0 0)
(-52.8759 -0.568847 0 0.0140763 0 0)
(-53.1204 -0.617749 0 0.015957 0 0)
(-53.3738 -0.667333 0 0.018046 0 0)
(-53.6373 -0.719541 0 0.0203301 0 0)
(-49.659 0.027161 0 0.00962021 0 0)
(-49.7245 0.013295 0 0.00713499 0 0)
(-49.841 -0.000843429 0 0.00448707 0 0)
(-49.9983 -0.0170748 0 0.00378881 0 0)
(-50.1684 -0.0402487 0 0.00390723 0 0)
(-50.3409 -0.0701603 0 0.0042944 0 0)
(-50.5192 -0.104749 0 0.00472676 0 0)
(-50.7094 -0.142477 0 0.00518201 0 0)
(-50.9128 -0.181897 0 0.00571846 0 0)
(-51.1275 -0.221706 0 0.0063796 0 0)
(-51.3487 -0.260342 0 0.00716357 0 0)
(-51.5734 -0.296856 0 0.00803913 0 0)
(-51.7986 -0.330519 0 0.00895745 0 0)
(-52.0255 -0.362461 0 0.00992359 0 0)
(-52.2527 -0.393109 0 0.0109606 0 0)
(-52.4847 -0.425011 0 0.0121756 0 0)
(-52.7183 -0.457054 0 0.0135635 0 0)
(-52.9612 -0.492439 0 0.0151694 0 0)
(-50.4264 0.0802696 0 0.00854231 0 0)
(-50.4822 0.0820545 0 0.0060444 0 0)
(-50.5974 0.0792305 0 0.00393873 0 0)
(-50.7489 0.0646002 0 0.0033593 0 0)
(-50.8939 0.0371621 0 0.00349282 0 0)
(-51.028 0.0029444 0 0.0037578 0 0)
(-51.1641 -0.0324998 0 0.00403046 0 0)
(-51.3124 -0.0663251 0 0.00434885 0 0)
(-51.4786 -0.0979805 0 0.0047328 0 0)
(-51.6636 -0.128441 0 0.00518996 0 0)
(-51.8641 -0.158404 0 0.00572298 0 0)
(-52.0748 -0.188564 0 0.00634152 0 0)
(-52.291 -0.21889 0 0.00705308 0 0)
(-52.5096 -0.24981 0 0.0078662 0 0)
(-52.7293 -0.280724 0 0.00876389 0 0)
(-52.9499 -0.312048 0 0.00977365 0 0)
(-53.1724 -0.342236 0 0.010859 0 0)
(-53.3976 -0.372122 0 0.0120013 0 0)
(-50.0659 0.0566991 0 0.00709512 0 0)
(-50.1534 0.10439 0 0.00463824 0 0)
(-50.2731 0.0984611 0 0.00304948 0 0)
(-50.4289 0.0750241 0 0.00256269 0 0)
(-50.5941 0.0518153 0 0.00251505 0 0)
(-50.7577 0.0313605 0 0.002638 0 0)
(-50.9253 0.011847 0 0.00285523 0 0)
(-51.104 -0.00828577 0 0.00313257 0 0)
(-51.2974 -0.0287954 0 0.00344619 0 0)
(-51.505 -0.0493331 0 0.00379433 0 0)
(-51.7228 -0.0698676 0 0.00418721 0 0)
(-51.9472 -0.0908194 0 0.00463735 0 0)
(-52.1761 -0.111962 0 0.00514442 0 0)
(-52.4091 -0.133265 0 0.00570767 0 0)
(-52.646 -0.153935 0 0.00630732 0 0)
(-52.8871 -0.174424 0 0.00697311 0 0)
(-53.1312 -0.193713 0 0.00768007 0 0)
(-53.3788 -0.213401 0 0.00844902 0 0)
(-50.2255 0.105861 0 0.00662155 0 0)
(-50.3391 0.154477 0 0.00445787 0 0)
(-50.4465 0.160842 0 0.00270464 0 0)
(-50.5709 0.143407 0 0.0020652 0 0)
(-50.7129 0.119989 0 0.0018838 0 0)
(-50.8664 0.097515 0 0.00189752 0 0)
(-51.0329 0.077329 0 0.00203204 0 0)
(-51.2174 0.0594066 0 0.00222545 0 0)
(-51.4234 0.0431882 0 0.00242439 0 0)
(-51.65 0.0279402 0 0.00261772 0 0)
(-51.8912 0.0125139 0 0.00283174 0 0)
(-52.1392 -0.0040935 0 0.00309006 0 0)
(-52.3875 -0.0218289 0 0.00339803 0 0)
(-52.6331 -0.0403194 0 0.00375587 0 0)
(-52.8739 -0.0586793 0 0.00414788 0 0)
(-53.111 -0.0768711 0 0.00459251 0 0)
(-53.3443 -0.0940412 0 0.00507077 0 0)
(-53.5768 -0.110977 0 0.00557482 0 0)
(-50.0283 0.118099 0 0.00536755 0 0)
(-50.1503 0.145459 0 0.0034702 0 0)
(-50.287 0.160124 0 0.0021275 0 0)
(-50.4352 0.154688 0 0.00167739 0 0)
(-50.5929 0.144292 0 0.00160895 0 0)
(-50.7637 0.13572 0 0.00161909 0 0)
(-50.95 0.128961 0 0.00162691 0 0)
(-51.1487 0.123429 0 0.00161415 0 0)
(-51.356 0.118353 0 0.00159451 0 0)
(-51.569 0.112402 0 0.00161072 0 0)
(-51.7866 0.104034 0 0.00170571 0 0)
(-52.008 0.0923754 0 0.00188685 0 0)
(-52.2338 0.077867 0 0.00213035 0 0)
(-52.4641 0.061663 0 0.00241564 0 0)
(-52.6988 0.0455259 0 0.00272613 0 0)
(-52.9369 0.0302952 0 0.00306971 0 0)
(-53.177 0.0170891 0 0.003426 0 0)
(-53.4187 0.00543788 0 0.00378317 0 0)
(-50.0295 0.161985 0 0.00363055 0 0)
(-50.1592 0.187663 0 0.00157823 0 0)
(-50.3495 0.194336 0 0.000792728 0 0)
(-50.5399 0.191275 0 0.000534573 0 0)
(-50.7153 0.186148 0 0.000455375 0 0)
(-50.8951 0.178963 0 0.000447899 0 0)
(-51.0916 0.170352 0 0.000474574 0 0)
(-51.3004 0.162216 0 0.000519574 0 0)
(-51.514 0.155341 0 0.00056683 0 0)
(-51.7304 0.149001 0 0.000616103 0 0)
(-51.9514 0.142123 0 0.000678757 0 0)
(-52.18 0.134272 0 0.000763073 0 0)
(-52.4191 0.125427 0 0.000872011 0 0)
(-52.6688 0.116077 0 0.00100604 0 0)
(-52.9292 0.106632 0 0.00116148 0 0)
(-53.1954 0.0976348 0 0.00134021 0 0)
(-53.4666 0.0894084 0 0.00153513 0 0)
(-53.7357 0.0822031 0 0.00173939 0 0)
(-50.1714 0.16163 0 0.00358404 0 0)
(-50.4888 0.24894 0 0.000530773 0 0)
(-50.7906 0.23321 0 0.000126646 0 0)
(-51.0334 0.225186 0 5.97473e-05 0 0)
(-51.2242 0.22788 0 -2.96915e-05 0 0)
(-51.3862 0.229728 0 -8.85182e-05 0 0)
(-51.535 0.229237 0 -0.000103255 0 0)
(-51.6757 0.228408 0 -9.67204e-05 0 0)
(-51.8087 0.227848 0 -8.45972e-05 0 0)
(-51.9354 0.227268 0 -6.94727e-05 0 0)
(-52.0569 0.226088 0 -4.49321e-05 0 0)
(-52.1773 0.224112 0 -5.26142e-06 0 0)
(-52.2973 0.220968 0 5.78923e-05 0 0)
(-52.4227 0.216964 0 0.000143012 0 0)
(-52.5496 0.212048 0 0.000241346 0 0)
(-52.684 0.206936 0 0.000356263 0 0)
(-52.8141 0.201618 0 0.000481241 0 0)
(-52.9526 0.196921 0 0.000590762 0 0)
(-48.9126 0.189313 0 0.00170345 0 0)
(-47.2807 0.258157 0 -1.60538e-05 0 0)
(-45.6495 0.244289 0 -0.000205495 0 0)
(-44.0696 0.231475 0 -0.000239024 0 0)
(-42.5955 0.221968 0 -0.000273003 0 0)
(-41.2437 0.210728 0 -0.000268323 0 0)
(-40.004 0.199307 0 -0.000241616 0 0)
(-38.8596 0.189477 0 -0.000220813 0 0)
(-37.7971 0.181147 0 -0.000212603 0 0)
(-36.809 0.173722 0 -0.00021172 0 0)
(-35.8875 0.16687 0 -0.000213621 0 0)
(-35.0298 0.160586 0 -0.000216292 0 0)
(-34.2282 0.154688 0 -0.000217102 0 0)
(-33.4859 0.149181 0 -0.00021621 0 0)
(-32.7918 0.143757 0 -0.000209284 0 0)
(-32.1559 0.138626 0 -0.000194316 0 0)
(-31.5554 0.133549 0 -0.00017527 0 0)
(-31.0156 0.129171 0 -0.000160004 0 0)
(0.0128576 -0.0278465 -1.12204e-23 0.0604977 -3.05697e-23 4.26645e-39)
(0.119137 -0.0821206 -9.68637e-23 0.0497356 1.84479e-22 4.20214e-39)
(0.258014 -0.0703683 0 0.00560341 0 0)
(0.297771 0.000331219 0 -0.0288171 0 0)
(0.226469 0.0726597 0 -0.0390006 0 0)
(0.0508239 0.123912 1.02513e-21 -0.036079 -3.23121e-22 3.94203e-39)
(-0.172396 0.147638 0 -0.0286401 0 0)
(-0.403234 0.14805 0 -0.0206532 0 0)
(-0.609525 0.130628 0 -0.0131535 0 0)
(-0.763721 0.100043 0 -0.00610173 0 0)
(-0.844215 0.0592135 -2.29786e-21 0.000463878 1.80168e-22 3.62945e-39)
(-0.832277 0.0101878 0 0.00599465 0 0)
(-0.716784 -0.0445486 0 0.00969621 0 0)
(-0.48826 -0.101142 0 0.0106201 0 0)
(-0.146229 -0.154367 0 0.00814433 0 0)
(0.290745 -0.19678 -2.48735e-21 0.0020547 -1.33915e-22 3.35247e-39)
(0.797888 -0.222639 0 -0.0071385 0 0)
(1.32953 -0.22675 0 -0.0178239 0 0)
(1.84983 -0.210435 0 -0.0285901 0 0)
(2.30265 -0.176985 0 -0.0359347 0 0)
(2.6725 -0.135217 0 -0.0395192 0 0)
(2.932 -0.101774 0 -0.0313762 0 0)
(3.09423 -0.0854383 0 -0.0200559 0 0)
(3.25593 -0.150743 -5.41115e-22 0.03063 -1.09217e-22 2.96411e-39)
(3.39392 -0.220876 3.86743e-22 0.0559651 8.58175e-23 2.91654e-39)
(3.82885 -0.453344 -4.32317e-22 0.123688 1.16415e-22 2.86706e-39)
(4.5553 -0.780048 -5.35091e-22 0.286167 3.65165e-22 2.81687e-39)
(5.49075 -1.14849 0 0.480217 0 0)
(6.5353 -1.4606 0 0.626427 0 0)
(7.46687 -1.70552 5.32287e-22 0.838742 -3.38459e-22 2.6675e-39)
(7.80099 -1.74752 1.5765e-22 1.00942 -1.13583e-22 2.618e-39)
(6.97886 -1.18722 0 0.912176 0 0)
(4.80448 0.262693 0 0.339701 0 0)
(0.764303 1.92597 -2.2623e-21 -0.19113 1.10243e-21 2.46675e-39)
(-4.53998 2.55477 0 -0.23596 0 0)
(-9.70669 2.4908 0 -0.183477 0 0)
(-14.7357 2.36683 7.05924e-21 -0.137826 -1.00496e-21 2.31914e-39)
(-19.4823 2.18568 0 -0.0995273 0 0)
(-23.8746 1.97528 1.10389e-20 -0.0683253 -8.35367e-22 2.2271e-39)
(-27.8434 1.7451 2.59388e-20 -0.0434985 -1.47031e-21 8.73237e-39)
(-31.3499 1.50717 0 -0.0240696 0 0)
(-34.3611 1.26717 0 -0.00918956 0 0)
(-36.8594 1.02983 0 0.00193649 0 0)
(-38.8328 0.798143 0 0.00993375 0 0)
(-40.2797 0.574774 0 0.0153239 0 0)
(-41.2026 0.362364 3.94444e-20 0.0185116 -1.24921e-22 7.77992e-39)
(-41.6141 0.163493 3.9484e-20 0.0198656 8.16669e-23 7.63704e-39)
(-41.5362 -0.0194639 3.88627e-20 0.0197402 2.70499e-22 7.49813e-39)
(-40.999 -0.18469 0 0.0184622 0 0)
(-40.0454 -0.331055 -3.58258e-20 0.0163358 -5.8027e-22 7.23111e-39)
(-38.7168 -0.45759 0 0.0136245 0 0)
(-37.0629 -0.563523 3.08772e-20 0.0105635 7.85767e-22 6.97687e-39)
(-35.1328 -0.649267 2.79038e-20 0.00737566 8.48234e-22 6.85385e-39)
(-32.9774 -0.715202 0 0.00422542 0 0)
(-30.6496 -0.762952 0 0.00125015 0 0)
(-28.1936 -0.794165 0 -0.00146342 0 0)
(-25.6538 -0.81071 1.47582e-20 -0.00385113 8.71841e-22 6.38275e-39)
(-23.0675 -0.814571 0 -0.0058885 0 0)
(-20.47 -0.807757 0 -0.00756783 0 0)
(-17.8899 -0.791914 0 -0.0089143 0 0)
(-15.3522 -0.768971 0 -0.00996415 0 0)
(-12.8778 -0.740334 0 -0.0107691 0 0)
(-10.4822 -0.707597 0 -0.0113799 0 0)
(-8.17809 -0.671953 0 -0.0118458 0 0)
(-5.97416 -0.634572 0 -0.012206 0 0)
(-3.87589 -0.595997 7.26994e-21 -0.0124891 -3.76627e-22 5.40459e-39)
(-1.88763 -0.557149 0 -0.0127119 0 0)
(-0.0131753 -0.517801 0 -0.0128789 0 0)
(1.74467 -0.478379 -1.0683e-20 -0.0129864 2.22659e-22 5.09972e-39)
(3.38206 -0.438543 -1.14309e-20 -0.0130236 1.77004e-22 5.00058e-39)
(4.89446 -0.398359 0 -0.0129747 0 0)
(6.27778 -0.357644 1.2393e-20 -0.0128166 -9.35712e-23 4.80597e-39)
(7.52846 -0.316868 -1.26262e-20 -0.0125294 5.59446e-23 4.71054e-39)
(8.64428 -0.276306 0 -0.0120966 0 0)
(9.62467 -0.236632 1.26545e-20 -0.0115201 9.81048e-24 4.5236e-39)
(10.471 -0.198277 0 -0.0108218 0 0)
(11.1863 -0.161752 0 -0.0100464 0 0)
(11.7749 -0.127227 -1.18053e-20 -0.00925142 -8.28309e-23 4.25251e-39)
(12.2417 -0.0945885 0 -0.00849395 0 0)
(12.5909 -0.063605 1.07985e-20 -0.00782058 1.18594e-22 4.07806e-39)
(12.8248 -0.0337002 0 -0.00725556 0 0)
(12.9439 -0.00431061 -9.52559e-21 -0.0068009 -1.49538e-22 3.90863e-39)
(12.9471 0.0250117 -8.80273e-21 -0.00643901 -1.64324e-22 3.82574e-39)
(12.8316 0.0545834 -8.02758e-21 -0.00613702 -1.78775e-22 3.74408e-39)
(12.5943 0.0844535 -1.44106e-20 -0.0058537 -3.85448e-22 1.46546e-38)
(12.2325 0.114406 1.26836e-20 -0.00555023 4.11511e-22 1.43378e-38)
(11.7455 0.143806 0 -0.00518948 0 0)
(11.1349 0.171832 0 -0.00474958 0 0)
(10.4064 0.197517 0 -0.00422603 0 0)
(9.56944 0.219593 5.35356e-21 -0.00362525 4.72936e-22 1.31209e-38)
(8.63851 0.237272 3.55564e-21 -0.00297728 4.72409e-22 1.28296e-38)
(7.63249 0.249662 -1.83627e-21 -0.00231782 -4.64453e-22 1.25434e-38)
(6.57186 0.256173 0 -0.00168576 0 0)
(5.4784 0.257079 -1.25677e-21 -0.00111708 4.28082e-22 1.19861e-38)
(4.37417 0.252604 -2.59147e-21 -0.000636566 4.01854e-22 1.17145e-38)
(3.27927 0.243655 -3.77146e-21 -0.000251589 3.72332e-22 1.14474e-38)
(2.21277 0.231233 0 4.24436e-05 0 0)
(1.18974 0.216396 0 0.000259542 0 0)
(0.218303 0.199664 0 0.00040466 0 0)
(-0.695785 0.182014 -7.02173e-21 0.000496408 2.4673e-22 1.04239e-38)
(-1.54757 0.164078 0 0.000547272 0 0)
(-2.33504 0.146307 0 0.000566789 0 0)
(-3.05778 0.128996 8.28052e-21 0.000562011 -1.65757e-22 9.70801e-39)
(-3.71639 0.112328 0 0.000538319 0 0)
(-4.31218 0.0964171 0 0.000500233 0 0)
(-4.84694 0.0813504 8.91413e-21 0.000451877 -1.02016e-22 9.03435e-39)
(-5.32293 0.0672067 0 0.000397216 0 0)
(-5.7428 0.0540581 0 0.000339915 0 0)
(-6.10966 0.0419635 -9.15165e-21 0.000283209 5.28752e-23 8.39985e-39)
(-6.42694 0.0309531 -9.16913e-21 0.000229536 3.95184e-23 8.19658e-39)
(-6.69831 0.0210268 0 0.000180565 0 0)
(-6.92747 0.012148 9.13656e-21 0.00013705 -1.70606e-23 7.80185e-39)
(-7.11806 0.00425409 0 9.90183e-05 0 0)
(-7.27358 -0.00273165 -9.03541e-21 6.61599e-05 -3.33518e-25 7.42231e-39)
(-7.39724 -0.00890133 0 3.78674e-05 0 0)
(-7.49195 -0.014346 -8.8853e-21 1.36239e-05 -1.36924e-23 7.05737e-39)
(-7.56032 -0.019138 -8.7963e-21 -6.91443e-06 -1.9168e-23 6.88021e-39)
(-7.60473 -0.0233855 0 -2.4293e-05 0 0)
(-7.62699 -0.027143 0 -3.86956e-05 0 0)
(-7.6292 -0.0304056 0 -5.00367e-05 0 0)
(-7.61335 -0.0332277 0 -5.87886e-05 0 0)
(-7.58132 -0.0355896 0 -6.50082e-05 0 0)
(-7.53543 -0.0373722 0 -6.8419e-05 0 0)
(-7.47805 -0.03855 0 -6.94909e-05 0 0)
(-7.41135 -0.0392129 -7.88757e-21 -6.89834e-05 -4.17765e-23 5.58194e-39)
(-7.33724 -0.0394883 7.76435e-21 -6.73956e-05 4.18724e-23 5.4337e-39)
(-7.25721 -0.0394862 0 -6.49708e-05 0 0)
(-7.17244 -0.0392884 0 -6.1839e-05 0 0)
(-7.08381 -0.0389494 0 -5.80979e-05 0 0)
(-6.992 -0.0384996 0 -5.38397e-05 0 0)
(-6.89759 -0.0379523 1.43429e-20 -4.9154e-05 7.82321e-23 1.89428e-38)
(-6.80106 -0.0373067 0 -4.4126e-05 0 0)
(-6.70289 -0.0365475 -1.38965e-20 -3.88436e-05 -7.49034e-23 1.79031e-38)
(-6.60361 -0.0356482 1.36796e-20 -3.34171e-05 7.29935e-23 1.73991e-38)
(-6.50378 -0.0345768 0 -2.80044e-05 0 0)
(-6.40406 -0.0333049 0 -2.28272e-05 0 0)
(-6.3052 -0.0318167 0 -1.81565e-05 0 0)
(-6.20796 -0.0301173 -1.2859e-20 -1.42534e-05 -6.18159e-23 1.54846e-38)
(-6.11313 -0.0282346 -1.26681e-20 -1.12913e-05 -5.79292e-23 1.50305e-38)
(-6.02141 -0.0262168 0 -9.2954e-06 0 0)
(-5.93342 -0.0241261 -1.23072e-20 -8.13618e-06 -4.92868e-23 1.41508e-38)
(-5.84962 -0.0220293 -1.2138e-20 -7.57906e-06 -4.48203e-23 1.37249e-38)
(-5.77029 -0.0199881 1.19767e-20 -7.3647e-06 4.04539e-23 1.3308e-38)
(-5.69559 -0.018053 0 -7.27549e-06 0 0)
(-5.62551 -0.0162596 0 -7.16731e-06 0 0)
(-5.55991 -0.0146287 1.15386e-20 -6.97063e-06 2.89925e-23 1.21102e-38)
(-5.4986 -0.0131684 0 -6.67169e-06 0 0)
(-5.44132 -0.0118767 0 -6.28936e-06 0 0)
(-5.38775 -0.0107446 0 -5.85516e-06 0 0)
(-5.3376 -0.00975913 0 -5.40121e-06 0 0)
(-5.29055 -0.00890551 -1.09384e-20 -4.95337e-06 -1.69719e-23 1.02823e-38)
(-5.24631 -0.0081685 -1.08336e-20 -4.53059e-06 -1.54605e-23 9.94079e-39)
(-5.20458 -0.00753289 0 -4.14394e-06 0 0)
(-5.16511 -0.0069853 -1.0636e-20 -3.79989e-06 -1.306e-23 9.28085e-39)
(-5.12765 -0.0065136 0 -3.4993e-06 0 0)
(-5.09198 -0.00610887 0 -3.24301e-06 0 0)
(-5.05785 -0.00576217 -1.03642e-20 -3.02766e-06 -1.06144e-23 8.34681e-39)
(-5.02513 -0.0054675 0 -2.85346e-06 0 0)
(-4.9935 -0.00521769 -1.01961e-20 -2.71534e-06 -9.54685e-24 7.76003e-39)
(-4.96294 -0.0050115 0 -2.61639e-06 0 0)
(-4.93299 -0.00484851 0 -2.55359e-06 0 0)
(-4.9038 -0.00473555 -9.95951e-21 -2.5371e-06 -8.59367e-24 6.93152e-39)
(-4.87451 -0.00468206 0 -2.57157e-06 0 0)
(-4.8457 -0.0046935 -9.80966e-21 -2.67192e-06 -8.46654e-24 6.41239e-39)
(-4.81558 -0.00479423 0 -2.86554e-06 0 0)
(-4.78569 -0.00496477 0 -3.1515e-06 0 0)
(-4.75247 -0.0052854 0 -3.64965e-06 0 0)
(-4.71947 -0.00564833 9.51918e-21 -4.24509e-06 1.0105e-23 5.45032e-39)
(-4.67971 -0.00632286 0 -5.44538e-06 0 0)
(-4.64044 -0.00691012 -9.37195e-21 -6.55904e-06 -1.23432e-23 5.00593e-39)
(-4.58887 -0.00826866 0 -9.76071e-06 0 0)
(-4.53727 -0.00907848 0 -1.15883e-05 0 0)
(-4.466 -0.0119703 0 -2.17697e-05 0 0)
(-4.38781 -0.0127933 0 -2.32319e-05 0 0)
(-4.28714 -0.0195393 0 -6.32963e-05 0 0)
(-4.1433 -0.0193501 0 -5.27977e-05 0 0)
(-4.0104 -0.0368178 0 -0.000255359 0 0)