/*--------------------------------*- C++ -*----------------------------------*\
  =========                 |
  \\      /  F ield         | OpenFOAM: The Open Source CFD Toolbox
   \\    /   O peration     | Website:  https://openfoam.org
    \\  /    A nd           | Version:  9
     \\/     M anipulation  |
\*---------------------------------------------------------------------------*/
FoamFile
{
    format      ascii;
    class       surfaceScalarField;
    location    "0.026";
    object      phi;
}
// * * * * * * * * * * * * * * * * * * * * * * * * * * * * * * * * * * * * * //

dimensions      [0 3 -1 0 0 0 0];

internalField   nonuniform List<scalar> 
24170
(
3.10069e-06
1.12693e-07
2.97325e-06
1.27443e-07
2.86088e-06
1.12367e-07
2.76097e-06
9.99069e-08
2.6819e-06
7.90775e-08
2.61609e-06
6.58062e-08
2.55224e-06
6.38517e-08
2.4839e-06
6.83423e-08
2.40592e-06
7.7975e-08
2.31402e-06
9.18986e-08
2.20817e-06
1.05854e-07
2.09323e-06
1.14935e-07
1.97537e-06
1.17858e-07
1.8563e-06
1.19072e-07
1.73783e-06
1.18471e-07
1.61647e-06
1.21359e-07
1.48027e-06
1.36203e-07
1.48544e-07
1.33173e-06
3.44557e-06
5.35487e-08
3.44423e-06
1.28781e-07
3.43406e-06
1.2253e-07
3.44666e-06
8.7307e-08
3.46562e-06
6.01196e-08
3.47412e-06
5.73055e-08
3.46904e-06
6.89361e-08
3.45616e-06
8.12203e-08
3.44116e-06
9.29789e-08
3.42484e-06
1.08217e-07
3.40456e-06
1.26131e-07
3.37612e-06
1.43372e-07
3.33738e-06
1.56607e-07
3.28638e-06
1.70072e-07
3.22387e-06
1.80972e-07
3.15075e-06
1.94488e-07
3.07003e-06
2.16914e-07
2.33374e-07
2.9852e-06
3.62149e-06
-1.51701e-08
3.62295e-06
1.2732e-07
3.64854e-06
9.69382e-08
3.68214e-06
5.37051e-08
3.69897e-06
4.32909e-08
3.7009e-06
5.53815e-08
3.69998e-06
6.98472e-08
3.70176e-06
7.94402e-08
3.7055e-06
8.92411e-08
3.70964e-06
1.04083e-07
3.71331e-06
1.22456e-07
3.71545e-06
1.41236e-07
3.71362e-06
1.58439e-07
3.70606e-06
1.77628e-07
3.68888e-06
1.98152e-07
3.66329e-06
2.20081e-07
3.63283e-06
2.47373e-07
2.67379e-07
3.59882e-06
3.90636e-06
-1.67891e-09
3.97011e-06
6.35721e-08
3.9889e-06
7.81417e-08
3.96935e-06
7.32612e-08
3.9451e-06
6.75379e-08
3.93708e-06
6.34033e-08
3.94166e-06
6.52625e-08
3.94564e-06
7.5467e-08
3.94282e-06
9.20585e-08
3.9365e-06
1.10399e-07
3.93264e-06
1.26318e-07
3.93403e-06
1.39844e-07
3.93884e-06
1.5363e-07
3.94325e-06
1.73223e-07
3.94195e-06
1.9945e-07
3.93289e-06
2.29139e-07
3.91815e-06
2.62109e-07
2.88393e-07
3.89714e-06
4.19935e-06
-5.82539e-08
4.25025e-06
1.26646e-08
4.24166e-06
8.67308e-08
4.22806e-06
8.68684e-08
4.22789e-06
6.77055e-08
4.2341e-06
5.71969e-08
4.23318e-06
6.61834e-08
4.21766e-06
9.09824e-08
4.1918e-06
1.17923e-07
4.16621e-06
1.35983e-07
4.14962e-06
1.42914e-07
4.14479e-06
1.44669e-07
4.14918e-06
1.49242e-07
4.15862e-06
1.63781e-07
4.16802e-06
1.90051e-07
4.17365e-06
2.23513e-07
4.17418e-06
2.61571e-07
2.96059e-07
4.16652e-06
4.54605e-06
-5.00175e-08
4.57598e-06
-1.72671e-08
4.601e-06
6.17121e-08
4.60113e-06
8.67423e-08
4.57788e-06
9.09487e-08
4.5371e-06
9.79825e-08
4.49116e-06
1.12121e-07
4.45287e-06
1.29269e-07
4.42888e-06
1.41916e-07
4.41843e-06
1.46436e-07
4.41627e-06
1.45066e-07
4.41709e-06
1.43855e-07
4.41796e-06
1.48374e-07
4.41936e-06
1.62381e-07
4.42239e-06
1.87012e-07
4.42687e-06
2.19042e-07
4.43268e-06
2.55759e-07
2.92134e-07
4.4366e-06
4.74776e-06
-7.38607e-08
4.68821e-06
4.22778e-08
4.689e-06
6.09221e-08
4.7276e-06
4.81454e-08
4.77072e-06
4.78265e-08
4.79749e-06
7.12102e-08
4.80928e-06
1.00339e-07
4.81725e-06
1.21297e-07
4.82901e-06
1.30157e-07
4.84369e-06
1.31748e-07
4.8543e-06
1.3446e-07
4.85323e-06
1.44922e-07
4.83695e-06
1.64657e-07
4.80833e-06
1.90997e-07
4.77494e-06
2.20402e-07
4.74376e-06
2.50226e-07
4.72056e-06
2.78959e-07
3.07287e-07
4.70541e-06
5.20068e-06
-1.42107e-07
5.19158e-06
5.13732e-08
5.16956e-06
8.29463e-08
5.17786e-06
3.98489e-08
5.20775e-06
1.7931e-08
5.23201e-06
4.69543e-08
5.22854e-06
1.03805e-07
5.20135e-06
1.48487e-07
5.17071e-06
1.60802e-07
5.15361e-06
1.48846e-07
5.15354e-06
1.34523e-07
5.16274e-06
1.35724e-07
5.16932e-06
1.58077e-07
5.16485e-06
1.95471e-07
5.14808e-06
2.37171e-07
5.12345e-06
2.74857e-07
5.09802e-06
3.0439e-07
3.27449e-07
5.07785e-06
5.45256e-06
-4.01655e-08
5.48284e-06
2.10951e-08
5.53463e-06
3.11618e-08
5.57413e-06
3.49267e-10
5.58648e-06
5.57911e-09
5.57013e-06
6.33035e-08
5.53924e-06
1.34699e-07
5.50811e-06
1.79611e-07
5.48192e-06
1.86996e-07
5.46024e-06
1.70524e-07
5.44419e-06
1.50568e-07
5.43736e-06
1.4256e-07
5.44215e-06
1.5329e-07
5.45659e-06
1.81026e-07
5.47524e-06
2.18526e-07
5.49213e-06
2.57958e-07
5.50218e-06
2.94342e-07
3.25808e-07
5.50382e-06
5.93624e-06
1.70738e-08
5.91325e-06
4.40816e-08
5.9238e-06
2.06172e-08
5.94859e-06
-2.44477e-08
5.97129e-06
-1.71155e-08
5.98511e-06
4.94847e-08
5.99253e-06
1.27279e-07
6.00017e-06
1.71965e-07
6.00804e-06
1.79133e-07
6.00918e-06
1.69375e-07
5.99736e-06
1.6239e-07
5.97288e-06
1.67047e-07
5.9427e-06
1.83467e-07
5.91526e-06
2.08462e-07
5.89643e-06
2.3736e-07
5.88669e-06
2.677e-07
5.88327e-06
2.97759e-07
3.26869e-07
5.88221e-06
6.44484e-06
9.42727e-08
6.42822e-06
6.07028e-08
6.42404e-06
2.47988e-08
6.395e-06
4.59278e-09
6.36331e-06
1.45749e-08
6.35221e-06
6.05848e-08
6.35656e-06
1.22924e-07
6.35874e-06
1.69787e-07
6.3505e-06
1.87374e-07
6.33619e-06
1.83685e-07
6.32482e-06
1.7376e-07
6.32184e-06
1.70021e-07
6.32655e-06
1.78757e-07
6.33359e-06
2.01421e-07
6.33642e-06
2.34536e-07
6.33095e-06
2.73167e-07
6.31645e-06
3.12258e-07
3.47747e-07
6.29558e-06
5.7205e-06
1.27841e-07
5.76103e-06
2.01813e-08
5.79683e-06
-1.10082e-08
5.81247e-06
-1.10451e-08
5.80277e-06
2.42797e-08
5.79236e-06
7.09951e-08
5.7936e-06
1.21676e-07
5.79744e-06
1.65949e-07
5.789e-06
1.95816e-07
5.7632e-06
2.09485e-07
5.72712e-06
2.09839e-07
5.69358e-06
2.03565e-07
5.67292e-06
1.99409e-07
5.66982e-06
2.04527e-07
5.68179e-06
2.22566e-07
5.70325e-06
2.51707e-07
5.72723e-06
2.8828e-07
3.27755e-07
5.74722e-06
6.95023e-06
-4.31568e-09
7.02254e-06
-5.21335e-08
7.08655e-06
-7.50161e-08
7.13175e-06
-5.62435e-08
7.14537e-06
1.06548e-08
7.13051e-06
8.58627e-08
7.10098e-06
1.51207e-07
7.07156e-06
1.95368e-07
7.05114e-06
2.16237e-07
7.0412e-06
2.19424e-07
7.03681e-06
2.14224e-07
7.03067e-06
2.0971e-07
7.01867e-06
2.11407e-07
7.00227e-06
2.20931e-07
6.98717e-06
2.3766e-07
6.97848e-06
2.60401e-07
6.97946e-06
2.87302e-07
3.18041e-07
6.98917e-06
8.56335e-06
1.10195e-07
8.53648e-06
-2.52554e-08
8.57102e-06
-1.09555e-07
8.6101e-06
-9.5333e-08
8.63635e-06
-1.55877e-08
8.63781e-06
8.43966e-08
8.62503e-06
1.6399e-07
8.61477e-06
2.05629e-07
8.6191e-06
2.11906e-07
8.63827e-06
2.00258e-07
8.6635e-06
1.88994e-07
8.68373e-06
1.8948e-07
8.69115e-06
2.03983e-07
8.68347e-06
2.28613e-07
8.66356e-06
2.57573e-07
8.63714e-06
2.86818e-07
8.61035e-06
3.14092e-07
3.40501e-07
8.58789e-06
1.06248e-05
3.65631e-07
1.04976e-05
1.02013e-07
1.04623e-05
-7.42798e-08
1.04263e-05
-5.93151e-08
1.03922e-05
1.84773e-08
1.03828e-05
9.38378e-08
1.03901e-05
1.56615e-07
1.04141e-05
1.81669e-07
1.04478e-05
1.78175e-07
1.04814e-05
1.66653e-07
1.05075e-05
1.62927e-07
1.05248e-05
1.72174e-07
1.05366e-05
1.92205e-07
1.05465e-05
2.1872e-07
1.05568e-05
2.47291e-07
1.05677e-05
2.7585e-07
1.05794e-05
3.02448e-07
3.27295e-07
1.05926e-05
1.2681e-05
1.11487e-07
1.27391e-05
4.38683e-08
1.264e-05
2.48946e-08
1.25829e-05
-2.23353e-09
1.26134e-05
-1.20809e-08
1.26774e-05
2.99091e-08
1.27416e-05
9.23661e-08
1.27998e-05
1.23444e-07
1.28562e-05
1.21772e-07
1.2913e-05
1.09902e-07
1.29639e-05
1.1199e-07
1.29978e-05
1.38305e-07
1.3006e-05
1.83975e-07
1.29866e-05
2.38177e-07
1.29457e-05
2.8821e-07
1.28939e-05
3.27647e-07
1.28433e-05
3.53056e-07
3.6547e-07
1.28051e-05
1.52448e-05
3.88782e-08
1.52968e-05
-8.19603e-09
1.53582e-05
-3.64379e-08
1.54584e-05
-1.02475e-07
1.55541e-05
-1.07735e-07
1.56032e-05
-1.92726e-08
1.56248e-05
7.08295e-08
1.56288e-05
1.19428e-07
1.56352e-05
1.15358e-07
1.56547e-05
9.03675e-08
1.56863e-05
8.04607e-08
1.57214e-05
1.03155e-07
1.57516e-05
1.53812e-07
1.57722e-05
2.17543e-07
1.57825e-05
2.77873e-07
1.5786e-05
3.24198e-07
1.57866e-05
3.52425e-07
3.62979e-07
1.57891e-05
1.90702e-05
-1.31279e-07
1.91836e-05
-1.21573e-07
1.91748e-05
-2.76792e-08
1.90888e-05
-1.64444e-08
1.89952e-05
-1.41969e-08
1.89292e-05
4.67413e-08
1.88766e-05
1.23479e-07
1.88367e-05
1.59264e-07
1.88064e-05
1.4573e-07
1.87912e-05
1.05529e-07
1.87995e-05
7.21707e-08
1.88354e-05
6.72926e-08
1.88961e-05
9.30402e-08
1.89751e-05
1.38568e-07
1.90637e-05
1.89284e-07
1.91539e-05
2.34012e-07
1.92388e-05
2.67485e-07
2.89477e-07
1.93123e-05
2.30622e-05
-3.32422e-07
2.31039e-05
-1.63326e-07
2.30923e-05
-1.60081e-08
2.308e-05
-4.16701e-09
2.31029e-05
-3.71555e-08
2.31784e-05
-2.87467e-08
2.32863e-05
1.55555e-08
2.33828e-05
6.2771e-08
2.34328e-05
9.58161e-08
2.34285e-05
1.09805e-07
2.33848e-05
1.15844e-07
2.33274e-05
1.24668e-07
2.328e-05
1.40483e-07
2.32566e-05
1.61965e-07
2.32619e-05
1.83936e-07
2.32932e-05
2.02771e-07
2.33455e-05
2.152e-07
2.22667e-07
2.34123e-05
1.69396e-05
-7.42784e-08
1.69254e-05
-1.49155e-07
1.69746e-05
-6.52552e-08
1.69551e-05
1.53653e-08
1.6878e-05
3.99863e-08
1.68193e-05
2.9921e-08
1.68102e-05
2.46917e-08
1.68408e-05
3.2137e-08
1.68853e-05
5.13476e-08
1.69202e-05
7.48907e-08
1.69379e-05
9.81089e-08
1.69431e-05
1.1947e-07
1.69459e-05
1.37669e-07
1.6956e-05
1.51877e-07
1.69799e-05
1.60048e-07
1.70201e-05
1.62575e-07
1.70762e-05
1.5911e-07
1.53024e-07
1.71458e-05
1.48024e-05
1.18213e-07
1.48644e-05
-2.11109e-07
1.49206e-05
-1.21464e-07
1.48931e-05
4.28574e-08
1.48095e-05
1.2357e-07
1.47124e-05
1.27003e-07
1.46546e-05
8.25091e-08
1.46564e-05
3.03397e-08
1.47115e-05
-3.71181e-09
1.47978e-05
-1.14237e-08
1.48915e-05
4.4063e-09
1.49742e-05
3.67851e-08
1.50386e-05
7.32232e-08
1.5085e-05
1.05443e-07
1.51168e-05
1.28237e-07
1.51385e-05
1.40871e-07
1.5153e-05
1.44683e-07
1.42853e-07
1.51631e-05
1.27692e-05
6.71179e-08
1.27301e-05
-1.72014e-07
1.27905e-05
-1.81837e-07
1.28904e-05
-5.7106e-08
1.2978e-05
3.60268e-08
1.3057e-05
4.80114e-08
1.31248e-05
1.47044e-08
1.3172e-05
-1.68913e-08
1.31906e-05
-2.23158e-08
1.31849e-05
-5.66451e-09
1.31736e-05
1.56253e-08
1.31776e-05
3.27916e-08
1.32071e-05
4.37803e-08
1.32608e-05
5.17384e-08
1.3328e-05
6.10488e-08
1.33953e-05
7.35177e-08
1.34507e-05
8.92943e-08
1.0544e-07
1.34881e-05
1.129e-05
3.46873e-09
1.11777e-05
-5.9745e-08
1.11272e-05
-1.31294e-07
1.11396e-05
-6.95274e-08
1.12026e-05
-2.69721e-08
1.12979e-05
-4.7327e-08
1.13967e-05
-8.40995e-08
1.14677e-05
-8.79185e-08
1.14932e-05
-4.77422e-08
1.1477e-05
1.05064e-08
1.14401e-05
5.25551e-08
1.14094e-05
6.34549e-08
1.14037e-05
4.94521e-08
1.14287e-05
2.67504e-08
1.14789e-05
1.09199e-08
1.15423e-05
1.00385e-08
1.16075e-05
2.41791e-08
4.73098e-08
1.16656e-05
1.01024e-05
-7.68786e-10
9.95351e-06
8.91749e-08
9.82785e-06
-5.62804e-09
9.78913e-06
-3.08082e-08
9.78176e-06
-1.96057e-08
9.77181e-06
-3.73771e-08
9.76077e-06
-7.30619e-08
9.75675e-06
-8.38984e-08
9.76705e-06
-5.80415e-08
9.79168e-06
-1.41223e-08
9.82517e-06
1.9064e-08
9.8583e-06
3.03281e-08
9.88567e-06
2.20857e-08
9.90608e-06
6.33253e-09
9.92356e-06
-6.55511e-09
9.94134e-06
-7.74239e-09
9.96282e-06
2.69559e-09
2.04076e-08
9.98973e-06
8.52841e-06
1.82005e-07
8.54613e-06
7.14514e-08
8.58326e-06
-4.27599e-08
8.62903e-06
-7.65733e-08
8.65818e-06
-4.87547e-08
8.66279e-06
-4.19864e-08
8.65633e-06
-6.66085e-08
8.65648e-06
-8.40404e-08
8.66875e-06
-7.03144e-08
8.68816e-06
-3.35334e-08
8.70293e-06
4.29129e-09
8.70536e-06
2.79038e-08
8.69352e-06
3.39238e-08
8.67086e-06
2.89903e-08
8.64256e-06
2.17499e-08
8.61573e-06
1.90827e-08
8.59552e-06
2.29107e-08
3.04728e-08
8.58545e-06
7.63165e-06
5.23088e-08
7.58482e-06
1.18281e-07
7.52329e-06
1.87726e-08
7.49864e-06
-5.19186e-08
7.51545e-06
-6.55695e-08
7.5383e-06
-6.48355e-08
7.54027e-06
-6.85795e-08
7.52266e-06
-6.64331e-08
7.50392e-06
-5.15669e-08
7.49964e-06
-2.92546e-08
7.51362e-06
-9.68713e-09
7.53986e-06
1.65746e-09
7.56871e-06
5.07274e-09
7.59219e-06
5.5087e-09
7.60633e-06
7.61095e-09
7.61147e-06
1.39418e-08
7.61021e-06
2.4173e-08
3.359e-08
7.6071e-06
6.38325e-06
-3.63585e-08
6.46128e-06
4.02535e-08
6.45641e-06
2.364e-08
6.43517e-06
-3.06779e-08
6.43469e-06
-6.50877e-08
6.45535e-06
-8.54955e-08
6.478e-06
-9.12289e-08
6.49496e-06
-8.33985e-08
6.51159e-06
-6.81905e-08
6.5344e-06
-5.20702e-08
6.56294e-06
-3.82234e-08
6.59125e-06
-2.66535e-08
6.61332e-06
-1.69958e-08
6.62774e-06
-8.912e-09
6.63686e-06
-1.51603e-09
6.64349e-06
7.31709e-09
6.65057e-06
1.70903e-08
2.57903e-08
6.65837e-06
5.52995e-06
4.37708e-08
5.59908e-06
-2.88716e-08
5.66254e-06
-3.98224e-08
5.69521e-06
-6.33465e-08
5.71722e-06
-8.70978e-08
5.72293e-06
-9.12068e-08
5.70784e-06
-7.61417e-08
5.68131e-06
-5.68726e-08
5.6576e-06
-4.44787e-08
5.64486e-06
-3.93273e-08
5.64414e-06
-3.75002e-08
5.65404e-06
-3.65533e-08
5.67372e-06
-3.66746e-08
5.70353e-06
-3.87228e-08
5.74262e-06
-4.06076e-08
5.78912e-06
-3.91864e-08
5.83812e-06
-3.1908e-08
-1.98742e-08
5.88378e-06
4.8719e-06
-4.15054e-08
4.92031e-06
-7.72768e-08
4.94354e-06
-6.30605e-08
4.95143e-06
-7.12272e-08
4.94272e-06
-7.839e-08
4.92711e-06
-7.55953e-08
4.91931e-06
-6.83501e-08
4.92384e-06
-6.14019e-08
4.93307e-06
-5.37065e-08
4.93662e-06
-4.28727e-08
4.93018e-06
-3.10618e-08
4.91783e-06
-2.42025e-08
4.90764e-06
-2.64888e-08
4.90553e-06
-3.6615e-08
4.91278e-06
-4.78562e-08
4.92751e-06
-5.39103e-08
4.94664e-06
-5.10421e-08
-4.08092e-08
4.96758e-06
4.21062e-06
4.13334e-06
4.07028e-06
3.99905e-06
3.92066e-06
3.84507e-06
3.77672e-06
3.71532e-06
3.66161e-06
3.61874e-06
3.58768e-06
3.56347e-06
3.53699e-06
3.50037e-06
3.45251e-06
3.3986e-06
3.34756e-06
3.30675e-06
-4.14903e-07
4.14903e-07
-6.20423e-07
2.05519e-07
-4.47753e-07
-1.72669e-07
-1.19271e-08
-4.35826e-07
5.64262e-07
-5.76189e-07
1.19479e-06
-6.30526e-07
1.81102e-06
-6.16231e-07
2.36786e-06
-5.56837e-07
2.836e-06
-4.68147e-07
3.19924e-06
-3.63237e-07
3.44986e-06
-2.50621e-07
3.58656e-06
-1.367e-07
3.61237e-06
-2.58056e-08
3.53592e-06
7.64468e-08
3.36708e-06
1.68841e-07
3.12015e-06
2.4693e-07
2.81143e-06
3.08722e-07
2.45605e-06
3.55373e-07
2.06947e-06
3.86589e-07
1.67208e-06
3.97388e-07
1.26583e-06
4.06246e-07
8.90403e-07
3.75428e-07
5.50001e-07
3.40402e-07
2.50807e-07
2.99195e-07
1.48625e-07
1.02181e-07
2.28982e-07
-8.03565e-08
2.57157e-07
-2.81756e-08
5.89441e-07
-3.32283e-07
1.11858e-06
-5.29136e-07
1.18146e-06
-6.28845e-08
1.11663e-06
6.48306e-08
7.00861e-07
4.15769e-07
-5.36381e-07
1.23724e-06
-1.98251e-06
1.44613e-06
-3.30904e-06
1.32653e-06
-4.5238e-06
1.21476e-06
-5.60808e-06
1.08428e-06
-6.56823e-06
9.60145e-07
-7.41061e-06
8.42379e-07
-8.14584e-06
7.3523e-07
-8.78511e-06
6.39274e-07
-9.33905e-06
5.53935e-07
-9.81749e-06
4.7844e-07
-1.02286e-05
4.11095e-07
-1.05792e-05
3.5062e-07
-1.08746e-05
2.95402e-07
-1.11189e-05
2.44342e-07
-1.13153e-05
1.96401e-07
-1.14663e-05
1.50967e-07
-1.15738e-05
1.07515e-07
-1.16396e-05
6.58061e-08
-1.16654e-05
2.57669e-08
-1.16539e-05
-1.14956e-08
-1.1608e-05
-4.58984e-08
-1.15292e-05
-7.88545e-08
-1.1419e-05
-1.10195e-07
-1.12791e-05
-1.39877e-07
-1.11112e-05
-1.6789e-07
-1.0917e-05
-1.94186e-07
-1.06985e-05
-2.18515e-07
-1.04578e-05
-2.40678e-07
-1.01974e-05
-2.60363e-07
-9.92014e-06
-2.77307e-07
-9.62886e-06
-2.91277e-07
-9.32673e-06
-3.0213e-07
-9.01688e-06
-3.09849e-07
-8.70235e-06
-3.14529e-07
-8.38599e-06
-3.16364e-07
-8.07039e-06
-3.15599e-07
-7.75789e-06
-3.12503e-07
-7.45052e-06
-3.07364e-07
-7.15002e-06
-3.00503e-07
-6.85775e-06
-2.92268e-07
-6.57469e-06
-2.83062e-07
-6.30133e-06
-2.73358e-07
-6.03762e-06
-2.63715e-07
-5.78285e-06
-2.54767e-07
-5.53564e-06
-2.47214e-07
-5.29384e-06
-2.41801e-07
-5.05454e-06
-2.39298e-07
-4.81408e-06
-2.40462e-07
-4.56818e-06
-2.45898e-07
-4.31228e-06
-2.55895e-07
-4.04194e-06
-2.70345e-07
-3.75323e-06
-2.88706e-07
-3.44325e-06
-3.0998e-07
-3.11051e-06
-3.32742e-07
-2.75521e-06
-3.55302e-07
-2.37939e-06
-3.75823e-07
-1.98683e-06
-3.92555e-07
-1.58249e-06
-4.0434e-07
-1.17209e-06
-4.10398e-07
-7.61567e-07
-4.10524e-07
-3.55945e-07
-4.05622e-07
4.04039e-08
-3.96349e-07
4.25619e-07
-3.85215e-07
7.97016e-07
-3.71397e-07
1.15309e-06
-3.56071e-07
1.49245e-06
-3.39361e-07
1.81363e-06
-3.21179e-07
2.11507e-06
-3.01439e-07
2.39527e-06
-2.80204e-07
2.65302e-06
-2.57753e-07
2.88757e-06
-2.34549e-07
3.09875e-06
-2.11175e-07
3.28699e-06
-1.88247e-07
3.45331e-06
-1.6632e-07
3.59911e-06
-1.458e-07
3.726e-06
-1.26888e-07
3.83556e-06
-1.09562e-07
3.9292e-06
-9.36357e-08
4.00804e-06
-7.88376e-08
4.07297e-06
-6.49381e-08
4.12476e-06
-5.17903e-08
4.16419e-06
-3.94244e-08
4.19214e-06
-2.79533e-08
4.20966e-06
-1.75184e-08
4.21806e-06
-8.39593e-09
4.21851e-06
-4.57621e-10
4.21209e-06
6.42803e-09
4.20021e-06
1.18804e-08
4.18427e-06
1.59386e-08
4.16532e-06
1.89435e-08
4.14413e-06
2.11949e-08
4.12121e-06
2.29215e-08
4.09687e-06
2.43417e-08
4.07125e-06
2.56146e-08
4.04438e-06
2.6871e-08
4.01616e-06
2.82149e-08
3.98646e-06
2.97043e-08
3.95513e-06
3.13307e-08
3.92211e-06
3.3024e-08
3.88744e-06
3.46618e-08
3.85135e-06
3.6092e-08
3.81417e-06
3.71781e-08
3.77636e-06
3.78175e-08
3.7384e-06
3.79529e-08
3.70082e-06
3.75831e-08
3.66406e-06
3.67591e-08
3.62849e-06
3.55684e-08
3.59439e-06
3.41077e-08
3.56191e-06
3.24725e-08
3.53116e-06
3.07508e-08
3.50215e-06
2.90156e-08
3.47482e-06
2.73225e-08
3.44911e-06
2.57103e-08
3.42491e-06
2.42036e-08
3.40209e-06
2.28168e-08
3.38054e-06
2.15578e-08
3.36011e-06
2.0428e-08
3.34069e-06
1.94213e-08
3.32216e-06
1.85276e-08
3.30442e-06
1.77385e-08
3.28737e-06
1.70509e-08
3.27091e-06
1.64635e-08
3.25494e-06
1.59689e-08
3.23939e-06
1.55486e-08
3.22421e-06
1.51778e-08
3.20937e-06
1.48364e-08
3.19485e-06
1.45201e-08
3.18061e-06
1.4246e-08
3.16657e-06
1.40379e-08
3.15263e-06
1.39385e-08
3.13868e-06
1.39546e-08
3.12453e-06
1.41502e-08
3.11006e-06
1.44687e-08
3.09498e-06
1.50782e-08
3.07922e-06
1.57566e-08
3.06219e-06
1.70349e-08
3.04402e-06
1.81662e-08
3.02326e-06
2.07604e-08
3.00084e-06
2.242e-08
2.97289e-06
2.79527e-08
2.94293e-06
2.99578e-08
2.90019e-06
4.27448e-08
2.85618e-06
4.40038e-08
2.77984e-06
7.63427e-08
2.70557e-06
7.42705e-08
2.53304e-06
1.72533e-07
1.73458e-07
2.35958e-06
-1.67535e-07
5.82439e-07
-6.45844e-08
1.02568e-07
3.39207e-07
-5.76461e-07
9.17622e-07
-1.01424e-06
1.55649e-06
-1.21505e-06
2.17481e-06
-1.24884e-06
2.73351e-06
-1.17494e-06
3.21171e-06
-1.03504e-06
3.59868e-06
-8.55118e-07
3.88713e-06
-6.51692e-07
4.07308e-06
-4.36566e-07
4.15596e-06
-2.1958e-07
4.13839e-06
-8.23343e-09
4.03614e-06
1.78695e-07
3.86229e-06
3.42687e-07
3.63394e-06
4.75278e-07
3.3638e-06
5.78867e-07
3.06763e-06
6.51538e-07
2.75546e-06
6.98765e-07
2.43752e-06
7.15323e-07
2.14819e-06
6.95583e-07
1.84437e-06
6.79239e-07
1.64601e-06
5.38763e-07
1.46444e-06
4.80765e-07
1.15041e-06
4.16217e-07
1.34828e-06
-2.78226e-07
1.68981e-06
-3.69713e-07
1.21783e-06
1.39705e-07
2.78922e-07
4.09768e-07
-1.13809e-06
1.35412e-06
-2.9071e-06
1.83384e-06
-4.45518e-06
1.96385e-06
-5.38559e-06
2.16765e-06
-6.12731e-06
2.18786e-06
-6.87417e-06
2.07339e-06
-7.55262e-06
1.89321e-06
-8.16717e-06
1.69882e-06
-8.70894e-06
1.50192e-06
-9.18869e-06
1.32212e-06
-9.6107e-06
1.15724e-06
-9.98398e-06
1.01256e-06
-1.03133e-05
8.83293e-07
-1.0604e-05
7.69144e-07
-1.08589e-05
6.65916e-07
-1.10801e-05
5.71814e-07
-1.12687e-05
4.84043e-07
-1.14255e-05
4.01113e-07
-1.15506e-05
3.21536e-07
-1.16444e-05
2.44723e-07
-1.17071e-05
1.70204e-07
-1.17388e-05
9.75978e-08
-1.17391e-05
2.59968e-08
-1.17082e-05
-4.23317e-08
-1.16462e-05
-1.0798e-07
-1.15534e-05
-1.71658e-07
-1.14308e-05
-2.32736e-07
-1.12798e-05
-2.90877e-07
-1.11019e-05
-3.45777e-07
-1.0899e-05
-3.97145e-07
-1.06728e-05
-4.44632e-07
-1.04258e-05
-4.87758e-07
-1.01601e-05
-5.25988e-07
-9.87867e-06
-5.58777e-07
-9.58428e-06
-5.85671e-07
-9.28001e-06
-6.06395e-07
-8.96895e-06
-6.20913e-07
-8.65405e-06
-6.29429e-07
-8.33807e-06
-6.32338e-07
-8.02352e-06
-6.30153e-07
-7.71259e-06
-6.2343e-07
-7.4072e-06
-6.12762e-07
-7.10892e-06
-5.98781e-07
-6.81901e-06
-5.82181e-07
-6.53833e-06
-5.63742e-07
-6.26731e-06
-5.44371e-07
-6.00587e-06
-5.25158e-07
-5.75326e-06
-5.07372e-07
-5.50806e-06
-4.92418e-07
-5.26807e-06
-4.81791e-07
-5.0303e-06
-4.77064e-07
-4.79097e-06
-4.79795e-07
-4.54562e-06
-4.91253e-07
-4.28945e-06
-5.12062e-07
-4.01779e-06
-5.42009e-07
-3.72649e-06
-5.80004e-07
-3.41248e-06
-6.23987e-07
-3.07424e-06
-6.70983e-07
-2.71213e-06
-7.17414e-07
-2.3285e-06
-7.59454e-07
-1.92756e-06
-7.93493e-07
-1.51482e-06
-8.17078e-07
-1.09676e-06
-8.2846e-07
-6.79329e-07
-8.27952e-07
-2.67809e-07
-8.17142e-07
1.34134e-07
-7.98292e-07
5.24171e-07
-7.75251e-07
9.0101e-07
-7.48236e-07
1.26364e-06
-7.18702e-07
1.61109e-06
-6.86815e-07
1.9421e-06
-6.52185e-07
2.2551e-06
-6.14433e-07
2.54846e-06
-5.73566e-07
2.82081e-06
-5.30101e-07
3.07124e-06
-4.84988e-07
3.29952e-06
-4.39454e-07
3.50608e-06
-3.94806e-07
3.69198e-06
-3.52221e-07
3.85873e-06
-3.12545e-07
4.008e-06
-2.76163e-07
4.14143e-06
-2.42989e-07
4.26036e-06
-2.12563e-07
4.36577e-06
-1.84253e-07
4.45831e-06
-1.57478e-07
4.53844e-06
-1.31916e-07
4.6066e-06
-1.07589e-07
4.66348e-06
-8.48366e-08
4.71012e-06
-6.41522e-08
4.74772e-06
-4.59936e-08
4.77793e-06
-3.06717e-08
4.8025e-06
-1.81455e-08
4.82256e-06
-8.17747e-09
4.83898e-06
-4.79342e-10
4.85239e-06
5.53269e-09
4.86345e-06
1.01324e-08
4.87271e-06
1.36684e-08
4.88052e-06
1.65263e-08
4.88723e-06
1.89081e-08
4.89313e-06
2.09661e-08
4.89853e-06
2.28197e-08
4.90368e-06
2.45561e-08
4.90878e-06
2.62285e-08
4.91394e-06
2.78654e-08
4.91914e-06
2.94568e-08
4.92427e-06
3.09624e-08
4.9291e-06
3.23543e-08
4.93333e-06
3.35862e-08
4.93668e-06
3.46017e-08
4.9389e-06
3.53566e-08
4.93983e-06
3.58312e-08
4.93937e-06
3.60327e-08
4.9375e-06
3.59755e-08
4.93429e-06
3.56861e-08
4.92983e-06
3.52048e-08
4.92427e-06
3.45745e-08
4.91776e-06
3.38389e-08
4.91043e-06
3.30382e-08
4.90243e-06
3.22077e-08
4.89387e-06
3.13774e-08
4.88485e-06
3.05731e-08
4.87546e-06
2.98134e-08
4.86578e-06
2.91088e-08
4.85584e-06
2.84641e-08
4.8457e-06
2.7883e-08
4.83538e-06
2.73713e-08
4.82491e-06
2.69335e-08
4.81431e-06
2.65666e-08
4.8036e-06
2.62582e-08
4.79279e-06
2.59893e-08
4.78187e-06
2.57506e-08
4.77085e-06
2.554e-08
4.75971e-06
2.53873e-08
4.74844e-06
2.53092e-08
4.737e-06
2.53765e-08
4.72538e-06
2.55784e-08
4.71348e-06
2.60476e-08
4.70128e-06
2.6671e-08
4.68859e-06
2.77676e-08
4.67541e-06
2.89352e-08
4.66137e-06
3.10783e-08
4.64656e-06
3.29734e-08
4.63015e-06
3.71713e-08
4.61251e-06
4.00581e-08
4.59175e-06
4.87177e-08
4.56889e-06
5.28133e-08
4.53972e-06
7.19186e-08
4.50633e-06
7.73865e-08
4.45938e-06
1.23298e-07
4.40056e-06
1.33086e-07
4.31745e-06
2.55641e-07
2.92428e-07
4.19849e-06
1.39648e-07
4.42791e-07
7.17804e-07
-4.75587e-07
1.41971e-06
-1.27837e-06
2.08964e-06
-1.68417e-06
2.67995e-06
-1.80536e-06
3.18444e-06
-1.75334e-06
3.60958e-06
-1.60008e-06
3.95924e-06
-1.38469e-06
4.23249e-06
-1.12838e-06
4.42453e-06
-8.43726e-07
4.52796e-06
-5.4e-07
4.53716e-06
-2.28781e-07
4.45196e-06
7.69716e-08
4.26931e-06
3.61345e-07
4.00887e-06
6.03121e-07
3.69489e-06
7.89262e-07
3.35405e-06
9.1971e-07
3.00766e-06
9.97926e-07
2.66508e-06
1.04134e-06
2.33715e-06
1.04326e-06
2.03016e-06
1.00256e-06
1.7408e-06
9.68607e-07
1.47485e-06
8.04708e-07
1.21995e-06
7.35662e-07
1.17053e-06
4.65641e-07
7.56678e-07
1.35626e-07
-1.32e-07
5.18965e-07
-1.62811e-06
1.63582e-06
-3.41186e-06
2.19352e-06
-4.58863e-06
2.53089e-06
-5.48943e-06
2.73464e-06
-6.30216e-06
2.77657e-06
-6.87737e-06
2.74286e-06
-7.27626e-06
2.58675e-06
-7.6197e-06
2.41683e-06
-7.94061e-06
2.21412e-06
-8.2576e-06
2.01581e-06
-8.57193e-06
1.81626e-06
-8.88297e-06
1.63316e-06
-9.18757e-06
1.46184e-06
-9.48228e-06
1.30726e-06
-9.76328e-06
1.16429e-06
-1.00269e-05
1.03273e-06
-1.02695e-05
9.0858e-07
-1.04882e-05
7.9045e-07
-1.068e-05
6.75885e-07
-1.08428e-05
5.63875e-07
-1.09746e-05
4.534e-07
-1.10741e-05
3.44222e-07
-1.11402e-05
2.36283e-07
-1.11726e-05
1.29968e-07
-1.11713e-05
2.46922e-08
-1.11381e-05
-7.55114e-08
-1.10728e-05
-1.7327e-07
-1.09773e-05
-2.67183e-07
-1.08536e-05
-3.56366e-07
-1.07039e-05
-4.40634e-07
-1.05299e-05
-5.19761e-07
-1.03336e-05
-5.93469e-07
-1.01168e-05
-6.61401e-07
-9.88152e-06
-7.23049e-07
-9.62972e-06
-7.77794e-07
-9.36352e-06
-8.24972e-07
-9.08519e-06
-8.64e-07
-8.79709e-06
-8.94494e-07
-8.50167e-06
-9.16339e-07
-8.2014e-06
-9.29698e-07
-7.89878e-06
-9.3496e-07
-7.59627e-06
-9.32663e-07
-7.29626e-06
-9.23435e-07
-7.00101e-06
-9.08009e-07
-6.71251e-06
-8.8728e-07
-6.43236e-06
-8.62338e-07
-6.16165e-06
-8.34447e-07
-5.90101e-06
-8.05015e-07
-5.6505e-06
-7.75664e-07
-5.40957e-06
-7.48303e-07
-5.17688e-06
-7.25108e-07
-4.95024e-06
-7.08433e-07
-4.72652e-06
-7.00787e-07
-4.50159e-06
-7.04718e-07
-4.27045e-06
-7.22401e-07
-4.02753e-06
-7.5498e-07
-3.76736e-06
-8.02173e-07
-3.48512e-06
-8.62248e-07
-3.17729e-06
-9.31819e-07
-2.84236e-06
-1.00591e-06
-2.4812e-06
-1.07858e-06
-2.09688e-06
-1.14377e-06
-1.69506e-06
-1.19531e-06
-1.28287e-06
-1.22927e-06
-8.68177e-07
-1.24315e-06
-4.58352e-07
-1.23778e-06
-6.03351e-08
-1.21516e-06
3.25931e-07
-1.18456e-06
6.95827e-07
-1.14515e-06
1.05034e-06
-1.10275e-06
1.39034e-06
-1.05871e-06
1.71628e-06
-1.01275e-06
2.0278e-06
-9.63711e-07
2.32383e-06
-9.10455e-07
2.60278e-06
-8.52519e-07
2.863e-06
-7.90319e-07
3.10308e-06
-7.2507e-07
3.32222e-06
-6.58597e-07
3.52048e-06
-5.93059e-07
3.69882e-06
-5.30567e-07
3.85901e-06
-4.72736e-07
4.00319e-06
-4.20342e-07
4.13343e-06
-3.73228e-07
4.25137e-06
-3.305e-07
4.35801e-06
-2.90897e-07
4.45373e-06
-2.53198e-07
4.53838e-06
-2.16564e-07
4.61153e-06
-1.8074e-07
4.67283e-06
-1.46134e-07
4.72238e-06
-1.13701e-07
4.76098e-06
-8.45946e-08
4.79013e-06
-5.98234e-08
4.81188e-06
-3.98978e-08
4.82836e-06
-2.46616e-08
4.84136e-06
-1.34697e-08
4.8523e-06
-5.41328e-09
4.86192e-06
5.13129e-10
4.87089e-06
4.70169e-09
4.8794e-06
8.00829e-09
4.88766e-06
1.06547e-08
4.89582e-06
1.28045e-08
4.90408e-06
1.45551e-08
4.91267e-06
1.59734e-08
4.92177e-06
1.71301e-08
4.93151e-06
1.81192e-08
4.94194e-06
1.9028e-08
4.95297e-06
1.99332e-08
4.96439e-06
2.09333e-08
4.97591e-06
2.20685e-08
4.98717e-06
2.33438e-08
4.9978e-06
2.47184e-08
5.00751e-06
2.6126e-08
5.01603e-06
2.75078e-08
5.02322e-06
2.87924e-08
5.02898e-06
2.99203e-08
5.03333e-06
3.0857e-08
5.03632e-06
3.15866e-08
5.03804e-06
3.21138e-08
5.03862e-06
3.24589e-08
5.03818e-06
3.26508e-08
5.03683e-06
3.27244e-08
5.03469e-06
3.27158e-08
5.03185e-06
3.26578e-08
5.02838e-06
3.25769e-08
5.02435e-06
3.24919e-08
5.01982e-06
3.24187e-08
5.01482e-06
3.23705e-08
5.00939e-06
3.2359e-08
5.00357e-06
3.23867e-08
4.99738e-06
3.24512e-08
4.99083e-06
3.25402e-08
4.98392e-06
3.26566e-08
4.97666e-06
3.27983e-08
4.96904e-06
3.30052e-08
4.96107e-06
3.32816e-08
4.95273e-06
3.37165e-08
4.94403e-06
3.42775e-08
4.93493e-06
3.51466e-08
4.92543e-06
3.61724e-08
4.91543e-06
3.77707e-08
4.9049e-06
3.94683e-08
4.89366e-06
4.23121e-08
4.88164e-06
4.49931e-08
4.86862e-06
5.01975e-08
4.85426e-06
5.44169e-08
4.83848e-06
6.44939e-08
4.82002e-06
7.12772e-08
4.79985e-06
9.20814e-08
4.7733e-06
1.03938e-07
4.74649e-06
1.50111e-07
4.7037e-06
1.75871e-07
4.67319e-06
2.86155e-07
3.56582e-07
4.60904e-06
6.09172e-07
-1.66381e-07
1.5384e-06
-1.40481e-06
2.28545e-06
-2.02542e-06
2.83099e-06
-2.22971e-06
3.25128e-06
-2.22566e-06
3.59619e-06
-2.09825e-06
3.88682e-06
-1.89071e-06
4.13165e-06
-1.62951e-06
4.33029e-06
-1.32702e-06
4.47354e-06
-9.86978e-07
4.54842e-06
-6.14878e-07
4.54288e-06
-2.23237e-07
4.43961e-06
1.80244e-07
4.23087e-06
5.70084e-07
3.92912e-06
9.04868e-07
3.55434e-06
1.16405e-06
3.13591e-06
1.33813e-06
2.7109e-06
1.42294e-06
2.30262e-06
1.44962e-06
1.90927e-06
1.43662e-06
1.5344e-06
1.37743e-06
1.20914e-06
1.29387e-06
8.19921e-07
1.19393e-06
6.27133e-07
9.28451e-07
2.57284e-07
8.35489e-07
-1.14417e-06
1.53708e-06
-2.9414e-06
2.31619e-06
-4.14203e-06
2.83645e-06
-5.08364e-06
3.13513e-06
-5.78774e-06
3.23499e-06
-6.27714e-06
3.22404e-06
-6.65273e-06
3.15216e-06
-6.92996e-06
3.02009e-06
-7.17771e-06
2.83451e-06
-7.39796e-06
2.63708e-06
-7.61842e-06
2.43458e-06
-7.84485e-06
2.24223e-06
-8.0847e-06
2.05611e-06
-8.33444e-06
1.88291e-06
-8.59118e-06
1.71858e-06
-8.84903e-06
1.56511e-06
-9.10324e-06
1.41849e-06
-9.34797e-06
1.27746e-06
-9.57815e-06
1.13876e-06
-9.78863e-06
1.00093e-06
-9.97478e-06
8.62036e-07
-1.01323e-05
7.21416e-07
-1.02578e-05
5.78842e-07
-1.03487e-05
4.35193e-07
-1.04042e-05
2.91766e-07
-1.0424e-05
1.49783e-07
-1.0412e-05
1.26595e-08
-1.03619e-05
-1.25569e-07
-1.02802e-05
-2.55027e-07
-1.01705e-05
-3.76839e-07
-1.00361e-05
-4.90783e-07
-9.8802e-06
-5.96548e-07
-9.70591e-06
-6.94053e-07
-9.51603e-06
-7.83351e-07
-9.3129e-06
-8.64532e-07
-9.09832e-06
-9.37623e-07
-8.87368e-06
-1.00244e-06
-8.63994e-06
-1.05871e-06
-8.39777e-06
-1.10617e-06
-8.14766e-06
-1.1446e-06
-7.89007e-06
-1.17394e-06
-7.62555e-06
-1.19422e-06
-7.35499e-06
-1.20552e-06
-7.07978e-06
-1.20787e-06
-6.8019e-06
-1.20131e-06
-6.52397e-06
-1.18593e-06
-6.24909e-06
-1.16216e-06
-5.98032e-06
-1.1311e-06
-5.72014e-06
-1.09463e-06
-5.46999e-06
-1.05516e-06
-5.2303e-06
-1.01535e-06
-5.00055e-06
-9.78059e-07
-4.77931e-06
-9.46348e-07
-4.5643e-06
-9.23445e-07
-4.35232e-06
-9.12767e-07
-4.13907e-06
-9.17966e-07
-3.919e-06
-9.42466e-07
-3.6856e-06
-9.88381e-07
-3.43219e-06
-1.05559e-06
-3.15283e-06
-1.1416e-06
-2.84324e-06
-1.24142e-06
-2.5016e-06
-1.34754e-06
-2.12929e-06
-1.4509e-06
-1.73058e-06
-1.54247e-06
-1.31289e-06
-1.61301e-06
-8.85878e-07
-1.65628e-06
-4.60587e-07
-1.66844e-06
-4.68407e-08
-1.65152e-06
3.50753e-07
-1.61275e-06
7.23916e-07
-1.55772e-06
1.07396e-06
-1.49519e-06
1.40231e-06
-1.4311e-06
1.71143e-06
-1.36782e-06
2.00343e-06
-1.30475e-06
2.27971e-06
-1.23999e-06
2.54108e-06
-1.17182e-06
2.78783e-06
-1.09927e-06
3.0197e-06
-1.02219e-06
3.23587e-06
-9.41242e-07
3.43525e-06
-8.57974e-07
3.61696e-06
-7.74774e-07
3.78087e-06
-6.94476e-07
3.92785e-06
-6.19712e-07
4.05972e-06
-5.52209e-07
4.1788e-06
-4.92312e-07
4.28729e-06
-4.3899e-07
4.38674e-06
-3.90351e-07
4.47796e-06
-3.44416e-07
4.56115e-06
-2.99748e-07
4.6361e-06
-2.55693e-07
4.70227e-06
-2.12301e-07
4.75876e-06
-1.70192e-07
4.80464e-06
-1.30472e-07
4.83942e-06
-9.46099e-08
4.8636e-06
-6.40721e-08
4.87875e-06
-3.98118e-08
4.88724e-06
-2.19614e-08
4.89163e-06
-9.8047e-09
4.89432e-06
-2.17294e-09
4.89662e-06
2.39354e-09
4.89943e-06
5.2038e-09
4.90317e-06
6.91567e-09
4.90795e-06
8.02116e-09
4.91379e-06
8.71448e-09
4.92068e-06
9.08546e-09
4.9286e-06