/*--------------------------------*- C++ -*----------------------------------*\
  =========                 |
  \\      /  F ield         | OpenFOAM: The Open Source CFD Toolbox
   \\    /   O peration     | Website:  https://openfoam.org
    \\  /    A nd           | Version:  9
     \\/     M anipulation  |
\*---------------------------------------------------------------------------*/
FoamFile
{
    format      ascii;
    class       volScalarField;
    location    "0.026";
    object      s_0;
}
// * * * * * * * * * * * * * * * * * * * * * * * * * * * * * * * * * * * * * //

dimensions      [0 0 0 0 0 0 0];

internalField   nonuniform List<scalar> 
12225
(
1
1
1
1
1
1
1
1
1
1
1
1
1
1
1
1
1
0.999945
1
1
1
1
1
1
1
1
1
1
1
1
1
1
1
1
1
0.999998
1
1
1
1
1
1
1
1
1
1
1
1
1
1
1
1
1
1
1
1
1
1
1
1
1
1
1
1
1
1
1
1
1
1
1
1
1
1
1
1
1
1
1
1
1
1
1
1
1
1
1
1
1
1
1
1
1
1
1
1
1
1
1
1
1
1
1
1
1
1
1
1
1
1
1
1
1
1
1
1
1
1
1
1
1
1
1
1
1
1
1
1
1
1
1
1
1
1
1
1
1
1
1
1
1
1
1
1
1
1
1
1
1
1
1
1
1
1
1
1
1
1
1
1
1
1
1
1
1
1
1
1
1
1
1
1
1
1
1
1
1
1
1
1
1
1
1
1
1
1
1
1
1
1
1
1
1
1
1
1
1
1
1
1
1
1
1
1
1
1
1
1
1
1
1
1
1
1
1
1
1
1
1
1
1
1
1
1
1
1
1
1
1
1
1
1
1
1
1
1
1
1
1
1
1
1
1
1
1
1
1
1
1
1
1
1
1
1
1
1
1
1
1
1
1
1
1
1
1
1
1
1
1
1
1
1
1
1
1
1
1
1
1
1
1
1
1
1
1
1
1
1
1
1
1
1
1
1
1
1
1
1
1
1
1
1
1
1
1
1
1
1
1
1
1
1
1
1
1
1
1
1
1
1
1
1
1
1
1
1
1
1
1
1
1
1
1
1
1
1
1
1
1
1
1
1
1
1
1
1
1
1
1
1
1
1
1
1
1
1
1
1
1
1
1
1
1
1
1
1
1
1
1
1
1
1
1
1
1
1
1
1
1
1
1
1
1
1
1
1
1
1
1
1
1
1
1
1
1
1
1
1
1
1
1
1
1
1
1
1
1
1
1
1
1
1
1
1
1
1
1
1
1
1
1
1
1
1
1
1
1
1
1
1
1
1
1
1
1
1
1
1
1
1
1
1
1
1
1
1
1
1
1
1
1
1
1
1
1
1
1
1
1
1
1
1
1
1
1
1
1
1
1
1
1
1
1
1
1
1
1
1
1
1
1
1
1
1
1
1
1
1
1
1
1
1
1
1
1
1
1
1
1
1
1
1
1
1
1
1
1
1
1
1
1
1
1
1
1
1
1
1
1
1
1
1
1
1
1
1
1
1
1
1
1
1
1
1
1
1
1
1
1
1
0.00133168
0.00641216
0.0189762
0.0411305
0.0695482
0.102773
0.127787
0.155371
0.173083
0.178627
0.175884
0.167861
0.149728
0.128939
0.111306
0.0958576
0.0812312
0.0668963
0.0536383
0.0420535
0.0315845
0.0218394
0.0126677
0.00521829
0.00153123
0.00148213
0.00373392
0.0127898
0.0673176
0.0737223
0.0728392
0.150763
0.667511
0.809389
0.812314
0.812471
0.812354
0.812006
0.811589
0.811255
0.811028
0.810845
0.810622
0.810419
0.810375
0.810379
0.810434
0.810602
0.810683
0.810684
0.810594
0.810332
0.809957
0.809647
0.809395
0.809185
0.809065
0.80903
0.809064
0.809359
0.809905
0.810473
0.810967
0.811397
0.811787
0.812251
0.81284
0.81357
0.814347
0.815081
0.815696
0.816257
0.816844
0.817407
0.817782
0.817971
0.818039
0.817852
0.817674
0.817462
0.817249
0.816941
0.816727
0.816414
0.816094
0.815907
0.815728
0.814847
0.814096
0.812731
0.810924
0.808334
0.804838
0.800371
0.794686
0.787588
0.778835
0.768196
0.755392
0.740081
0.721858
0.700298
0.674968
0.645515
0.611902
0.574168
0.532312
0.48642
0.43668
0.383594
0.328142
0.272014
0.217714
0.16822
0.126059
0.0919573
0.064993
0.0442295
0.0290139
0.0185937
0.0116544
0.00714693
0.00428872
0.00251876
0.00144802
0.000815011
0.000449149
0.00024235
0.000128011
6.61744e-05
3.34671e-05
1.65532e-05
8.00506e-06
3.7844e-06
1.74895e-06
7.90251e-07
3.49195e-07
1.50946e-07
6.38504e-08
2.64375e-08
1.07173e-08
4.25429e-09
1.65378e-09
6.29574e-10
2.34711e-10
8.56903e-11
3.06359e-11
1.07259e-11
3.67741e-12
1.23475e-12
4.06043e-13
1.30786e-13
4.12661e-14
1.27564e-14
3.86388e-15
1.14695e-15
3.33708e-16
9.51829e-17
2.66198e-17
7.3011e-18
1.96423e-18
5.1843e-19
1.34261e-19
3.41213e-20
8.51054e-21
2.08341e-21
5.00597e-22
1.18059e-22
2.73264e-23
6.20712e-24
1.38332e-24
3.02378e-25
6.47923e-26
1.35997e-26
2.79268e-27
5.60086e-28
1.09391e-28
2.07098e-29
3.77622e-30
5.95879e-31
0.00154623
0.0101652
0.0431843
0.110218
0.204677
0.317289
0.397884
0.438571
0.457941
0.472513
0.477351
0.476468
0.471907
0.459193
0.428307
0.384549
0.324421
0.232828
0.15595
0.102676
0.0670396
0.0425409
0.0268498
0.0150871
0.00800317
0.00906427
0.0204597
0.0192697
0.107321
0.556705
0.688268
0.72949
0.796745
0.811822
0.811742
0.810245
0.809106
0.806869
0.803732
0.800987
0.798533
0.795666
0.792609
0.789683
0.786612
0.783088
0.779734
0.777448
0.775285
0.772471
0.771172
0.770178
0.768613
0.76714
0.766002
0.76516
0.764787
0.76461
0.764545
0.764859
0.766035
0.767496
0.768632
0.769843
0.771579
0.773647
0.776073
0.779135
0.782818
0.787264
0.792111
0.797361
0.802903
0.808683
0.814506
0.820253
0.825822
0.831286
0.836266
0.840947
0.845471
0.849649
0.853326
0.857003
0.860832
0.8648
0.869371
0.874262
0.880104
0.886603
0.893872
0.901844
0.9104
0.919306
0.928302
0.937151
0.945432
0.952692
0.958633
0.96379
0.968132
0.971556
0.974017
0.975529
0.975879
0.974647
0.970257
0.963641
0.954427
0.941777
0.924658
0.900979
0.866834
0.816724
0.74578
0.653738
0.546844
0.435928
0.332814
0.245467
0.175892
0.122427
0.0828879
0.0546246
0.0350582
0.0219213
0.0133582
0.00793461
0.00459476
0.00259425
0.0014283
0.000766907
0.000401639
0.000205192
0.000102275
4.97402e-05
2.3605e-05
1.09313e-05
4.93988e-06
2.17838e-06
9.37389e-07
3.93624e-07
1.61302e-07
6.451e-08
2.51825e-08
9.59679e-09
3.57104e-09
1.29779e-09
4.60748e-10
1.59842e-10
5.42008e-11
1.79696e-11
5.82654e-12
1.84821e-12
5.73698e-13
1.74313e-13
5.18572e-14
1.51093e-14
4.31272e-15
1.20627e-15
3.30695e-16
8.8878e-17
2.34223e-17
6.05354e-18
1.53461e-18
3.81641e-19
9.31133e-20
2.22903e-20
5.23526e-21
1.20648e-21
2.72717e-22
6.04743e-23
1.31418e-23
2.79993e-24
5.83274e-25
1.18974e-25
2.35913e-26
4.56598e-27
8.4562e-28
1.48848e-28
0.00349352
0.0306036
0.0955071
0.238545
0.416632
0.486947
0.511363
0.514469
0.515535
0.516105
0.520221
0.526564
0.539532
0.548514
0.548618
0.544772
0.531257
0.500201
0.425564
0.306767
0.184345
0.0966059
0.0563029
0.0346661
0.0168163
0.0226524
0.14967
0.518156
0.683396
0.762208
0.790397
0.802944
0.80828
0.808488
0.801928
0.793996
0.783488
0.769907
0.757438
0.74717
0.74159
0.735943
0.733164
0.730299
0.728739
0.72798
0.727841
0.728336
0.728787
0.728756
0.728815
0.729533
0.730872
0.731938
0.732652
0.733518
0.73494
0.736612
0.738275
0.739696
0.740674
0.741045
0.741175
0.741201
0.740979
0.74006
0.73834
0.736348
0.735408
0.735038
0.734912
0.73489
0.735264
0.735984
0.736787
0.737897
0.739309
0.741173
0.74299
0.745031
0.747526
0.750508
0.753523
0.756978
0.760673
0.764925
0.769671
0.774878
0.780637
0.787207
0.794616
0.802871
0.812172
0.822727
0.834217
0.846966
0.861279
0.877206
0.894648
0.912633
0.930576
0.947562
0.962721
0.974828
0.983087
0.988592
0.992144
0.994206
0.995257
0.995676
0.9957
0.995179
0.993617
0.991751
0.988875
0.983129
0.970819
0.941976
0.870323
0.75807
0.624803
0.487723
0.36305
0.259948
0.179874
0.12056
0.0783853
0.0494919
0.0303722
0.0181278
0.0105278
0.00595071
0.00327425
0.0017539
0.000914685
0.000464462
0.000229663
0.000110602
5.18868e-05
2.37174e-05
1.05658e-05
4.58852e-06
1.94311e-06
8.02596e-07
3.2344e-07
1.27208e-07
4.88408e-08
1.83116e-08
6.7061e-09
2.39959e-09
8.39173e-10
2.869e-10
9.5916e-11
3.1365e-11
1.00347e-11
3.14174e-12
9.62833e-13
2.88901e-13
8.4891e-14
2.44334e-14
6.88973e-15
1.90369e-15
5.15509e-16
1.36832e-16
3.56046e-17
9.08339e-18
2.27216e-18
5.57355e-19
1.34059e-19
3.16221e-20
7.31236e-21
1.65809e-21
3.68285e-22
8.01817e-23
1.70651e-23
3.55694e-24
7.21115e-25
1.42869e-25
2.71971e-26
4.99699e-27
0.0568932
0.112855
0.25449
0.466435
0.527974
0.52825
0.517386
0.489001
0.454995
0.414636
0.41428
0.42438
0.452579
0.493666
0.523426
0.542368
0.552075
0.550343
0.533091
0.474942
0.347202
0.226956
0.120757
0.0419899
0.044358
0.39792
0.641176
0.74108
0.783124
0.798883
0.802991
0.803566
0.80058
0.786828
0.767107
0.751878
0.737182
0.724029
0.712958
0.706368
0.702842
0.701193
0.700702
0.700729
0.702302
0.70551
0.707301
0.708981
0.713684
0.718614
0.720436
0.721703
0.724125
0.727991
0.73103
0.733502
0.736447
0.740012
0.744041
0.747349
0.749494
0.750377
0.750705
0.750771
0.750525
0.749333
0.746913
0.743469
0.739268
0.735874
0.734444
0.733837
0.733582
0.73352
0.733546
0.733783
0.734389
0.735331
0.736388
0.737708
0.739688
0.742267
0.745152
0.748514
0.752115
0.756384
0.760998
0.765895
0.770997
0.776543
0.782614
0.789232
0.79647
0.804554
0.813769
0.823729
0.834239
0.845174
0.856561
0.868322
0.88067
0.894281
0.909296
0.926111
0.944584
0.962088
0.976318
0.986174
0.992109
0.995512
0.997353
0.99832
0.998799
0.999006
0.999058
0.999027
0.998813
0.998123
0.996351
0.992169
0.981985
0.954165
0.867777
0.70895
0.549671
0.406366
0.287853
0.196253
0.129186
0.0822799
0.050777
0.0303883
0.0176438
0.00993944
0.00543254
0.00288074
0.00148217
0.000740099
0.000358787
0.000168944
7.73115e-05
3.44025e-05
1.48949e-05
6.27827e-06
2.57776e-06
1.03151e-06
4.02493e-07
1.53214e-07
5.69224e-08
2.06487e-08
7.31632e-09
2.53303e-09
8.57195e-10
2.83628e-10
9.17866e-11
2.90597e-11
9.00332e-12
2.7304e-12
8.10712e-13
2.35736e-13
6.71416e-14
1.87349e-14
5.12243e-15
1.37258e-15
3.60487e-16
9.28095e-17
2.34244e-17
5.79662e-18
1.40631e-18
3.34534e-19
7.80027e-20
1.78309e-20
3.99241e-21
8.75951e-22
1.87917e-22
3.94589e-23
8.06935e-24
1.6111e-24
3.10669e-25
5.79023e-26
0.170073
0.253223
0.485766
0.557568
0.546281
0.492848
0.383202
0.278636
0.224296
0.194224
0.182264
0.186354
0.205685
0.254324
0.372779
0.483606
0.536109
0.551842
0.550614
0.526796
0.432967
0.240015
0.101554
0.0903908
0.404906
0.682875
0.76179
0.790507
0.799642
0.801383
0.800206
0.791969
0.771332
0.745878
0.725029
0.708913
0.695404
0.684223
0.673406
0.664498
0.659711
0.65655
0.654186
0.653411
0.65327
0.653768
0.656002
0.658615
0.661567
0.666426
0.671926
0.676934
0.683486
0.691488
0.698336
0.703844
0.710231
0.717923
0.724285
0.729122
0.734955
0.740053
0.743207
0.745445
0.746417
0.746725
0.746427
0.744245
0.74118
0.738224
0.735645
0.733873
0.733109
0.732842
0.732809
0.732993
0.733607
0.734607
0.735679
0.737177
0.739452
0.742333
0.746008
0.750763
0.756049
0.762102
0.7682
0.774007
0.779055
0.783485
0.787416
0.791401
0.796387
0.802817
0.811503
0.823114
0.835411
0.848151
0.859911
0.869696
0.878074
0.887977
0.89889
0.91048
0.922546
0.935552
0.949532
0.963806
0.976553
0.98608
0.992254
0.995832
0.997804
0.998828
0.999331
0.999567
0.999662
0.999682
0.99967
0.999583
0.999268
0.998286
0.995347
0.986622
0.959383
0.867098
0.684352
0.512271
0.366584
0.251767
0.166456
0.10616
0.0653914
0.0389255
0.0223971
0.0124565
0.00669582
0.0034804
0.00175036
0.000852366
0.000402242
0.000184119
8.18167e-05
3.53259e-05
1.48322e-05
6.06047e-06
2.41155e-06
9.35079e-07
3.53517e-07
1.3038e-07
4.69301e-08
1.64939e-08
5.66239e-09
1.89951e-09
6.22875e-10
1.99717e-10
6.26354e-11
1.92194e-11
5.77155e-12
1.69664e-12
4.88352e-13
1.37662e-13
3.8012e-14
1.02832e-14
2.72582e-15
7.08102e-16
1.80284e-16
4.4992e-17
1.10056e-17
2.63896e-18
6.20129e-19
1.42823e-19
3.22165e-20
7.11827e-21
1.53815e-21
3.25131e-22
6.70022e-23
1.34695e-23
2.62506e-24
4.94848e-25
0.185069
0.389366
0.580037
0.572463
0.480243
0.28051
0.194717
0.163475
0.152404
0.14565
0.129428
0.115781
0.118447
0.136209
0.189885
0.331452
0.474721
0.539403
0.549888
0.526303
0.413656
0.188025
0.130726
0.371726
0.677009
0.767505
0.792257
0.798851
0.799621
0.796854
0.784546
0.76035
0.73807
0.709608
0.691135
0.672271
0.660277
0.65348
0.644796
0.639193
0.636728
0.635456
0.634952
0.634873
0.635197
0.636395
0.63764
0.639171
0.642036
0.645352
0.647691
0.649722
0.65318
0.658679
0.664796
0.669655
0.674962
0.682398
0.689553
0.695846
0.702645
0.709349
0.715135
0.72103
0.725751
0.730853
0.734803
0.737187
0.738027
0.738074
0.736789
0.73388
0.732043
0.731167
0.730929
0.730946
0.73154
0.733051
0.734954
0.737286
0.74071
0.745538
0.752128
0.76137
0.771856
0.782714
0.791986
0.799567
0.805441
0.809614
0.811755
0.810562
0.805741
0.803739
0.805027
0.810492
0.824224
0.845221
0.866044
0.884176
0.898006
0.904349
0.907177
0.912907
0.921597
0.931851
0.942859
0.953871
0.964603
0.974614
0.983261
0.989943
0.994413
0.997068
0.998504
0.999242
0.999604
0.999773
0.999844
0.999865
0.999864
0.999841
0.999736
0.999351
0.998008
0.993432
0.978082
0.925233
0.763967
0.570535
0.407675
0.279067
0.183406
0.11589
0.070462
0.0412426
0.0232488
0.0126259
0.00660899
0.00333818
0.00162912
0.000769114
0.000351671
0.000155916
6.70994e-05
2.80573e-05
1.14093e-05
4.51544e-06
1.74053e-06
6.53848e-07
2.39516e-07
8.56009e-08
2.98615e-08
1.01723e-08
3.38512e-09
1.10087e-09
3.4999e-10
1.08811e-10
3.30916e-11
9.84726e-12
2.86799e-12
8.1773e-13
2.283e-13
6.24244e-14
1.67196e-14
4.38727e-15
1.12799e-15
2.84189e-16
7.01627e-17
1.69758e-17
4.02445e-18
9.34826e-19
2.1266e-19
4.73724e-20
1.0322e-20
2.19936e-21
4.57259e-22
9.27231e-23
1.82771e-23
3.48996e-24
0.185757
0.491781
0.609354
0.54524
0.313413
0.200261
0.164311
0.157969
0.162314
0.15526
0.129507
0.100687
0.0962178
0.104851
0.147082
0.291766
0.465966
0.541256
0.548014
0.50231
0.296394
0.194303
0.306658
0.651817
0.762329
0.791682
0.798089
0.798722
0.795736
0.783679
0.758357
0.73349
0.704505
0.68118
0.663935
0.648024
0.641323
0.63721
0.632411
0.630212
0.629574
0.629459
0.629485
0.629655
0.630193
0.630953
0.631307
0.632257
0.634708
0.63779
0.639115
0.639752
0.641819
0.64691
0.652865
0.657058
0.662072
0.669671
0.676962
0.684189
0.691986
0.699813
0.706254
0.713333
0.719104
0.725939
0.732083
0.736207
0.738431
0.740058
0.741338
0.741899
0.741222
0.738771
0.737835
0.737539
0.737637
0.738809
0.741524
0.745662
0.752281
0.761939
0.774145
0.78754
0.797485
0.804597
0.809965
0.814953
0.820104
0.82649
0.834543
0.843207
0.848557
0.841675
0.821923
0.807094
0.803108
0.806891
0.830154
0.869388
0.901613
0.923143
0.935998
0.938844
0.937846
0.938719
0.944947
0.953735
0.962867
0.97164
0.979352
0.985734
0.990775
0.994487
0.996971
0.998441
0.999228
0.99962
0.999808
0.999893
0.999928
0.999937
0.999936
0.999922
0.999853
0.999574
0.998521
0.994686
0.981065
0.9328
0.776091
0.573501
0.404494
0.272608
0.175817
0.108632
0.0643598
0.0365953
0.0199907
0.0105012
0.0053123
0.00259238
0.00122224
0.000557548
0.00024641
0.000105637
4.39765e-05
1.77949e-05
7.00501e-06
2.68464e-06
1.00235e-06
3.6481e-07
1.29498e-07
4.4856e-08
1.51683e-08
5.00943e-09
1.61639e-09
5.09759e-10
1.57178e-10
4.73986e-11
1.39833e-11
4.03682e-12
1.14068e-12
3.15559e-13
8.54816e-14
2.26788e-14
5.89357e-15
1.5004e-15
3.74214e-16
9.14423e-17
2.18898e-17
5.13313e-18
1.17873e-18
2.65e-19
5.82821e-20
1.25336e-20
2.63176e-21
5.39149e-22
1.07573e-22
2.08314e-23
0.183169
0.538288
0.619781
0.490799
0.260562
0.186885
0.175466
0.209377
0.243756
0.219126
0.140807
0.0969763
0.0967002
0.114487
0.17538
0.338113
0.499481
0.54177
0.523826
0.373251
0.269149
0.285448
0.613277
0.750067
0.78833
0.796867
0.79786
0.795215
0.78312
0.753995
0.72626
0.696943
0.67146
0.658751
0.645623
0.636385
0.632892
0.630544
0.627496
0.625305
0.623563
0.622087
0.620626
0.618858
0.617221
0.614634
0.610701
0.608189
0.607169
0.606925
0.608605
0.60966
0.610762
0.616018
0.623219
0.628455
0.635843
0.646335
0.654382
0.665295
0.676263
0.687904
0.697631
0.707906
0.715826
0.724149
0.732069
0.738641
0.74387
0.748142
0.75173
0.754848
0.756087
0.756479
0.75649
0.755564
0.755158
0.755905
0.758676
0.763276
0.769793
0.777877
0.785876
0.794077
0.800437
0.803416
0.80262
0.799261
0.796803
0.798447
0.808407
0.830342
0.856097
0.873597
0.879688
0.865413
0.825419
0.801681
0.799046
0.810058
0.857039
0.910329
0.940908
0.958243
0.966446
0.96718
0.965196
0.964666
0.967097
0.973368
0.979577
0.985208
0.989836
0.993375
0.995916
0.997643
0.998732
0.999359
0.999688
0.999849
0.999924
0.999957
0.999969
0.99997
0.999968
0.99995
0.99987
0.999541
0.998279
0.99357
0.976413
0.914218
0.730715
0.527513
0.362464
0.237217
0.148107
0.0883502
0.0504322
0.027592
0.0144926
0.00732125
0.00356405
0.00167491
0.000761088
0.000334895
0.000142881
5.91737e-05
2.38122e-05
9.31897e-06
3.5495e-06
1.31672e-06
4.76007e-07
1.6779e-07
5.76996e-08
1.93657e-08
6.34655e-09
2.03169e-09
6.35556e-10
1.94348e-10
5.81134e-11
1.69969e-11
4.86387e-12
1.36213e-12
3.73404e-13
1.00219e-13
2.63391e-14
6.77945e-15
1.70909e-15
4.22028e-16
1.02071e-16
2.41782e-17
5.60791e-18
1.27328e-18
2.82849e-19
6.14419e-20
1.30393e-20
2.70126e-21
5.45801e-22
1.07239e-22
0.177317
0.55914
0.624343
0.471953
0.251943
0.201685
0.213718
0.25585
0.286498
0.256013
0.169592
0.138806
0.139112
0.189675
0.326707
0.461805
0.508196
0.516591
0.400834
0.324922
0.316974
0.555717
0.732226
0.782027
0.794359
0.796339
0.794296
0.782718
0.755108
0.729973
0.702547
0.673772
0.657753
0.649574
0.640202
0.632109
0.628524
0.625299
0.62083
0.616373
0.61085
0.603555
0.594024
0.583367
0.572537
0.563473
0.557592
0.55292
0.550861
0.550214
0.551413
0.552867
0.558456
0.564413
0.570693
0.576973
0.586122
0.597863
0.605181
0.61867
0.631616
0.646798
0.663647
0.68179
0.699167
0.714625
0.727402
0.737783
0.745587
0.751819
0.756747
0.76065
0.763917
0.76638
0.767483
0.766442
0.763969
0.762893
0.764346
0.768083
0.773759
0.780497
0.786746
0.792427
0.795644
0.795708
0.792186
0.784713
0.77544
0.766411
0.761697
0.764259
0.787232
0.839023
0.882995
0.896621
0.893048
0.854196
0.808474
0.800683
0.80968
0.855278
0.919552
0.954992
0.973112
0.982171
0.985179
0.985324
0.984412
0.984056
0.98495
0.98794
0.991003
0.993665
0.995824
0.997424
0.998509
0.999186
0.999579
0.999792
0.999901
0.999952
0.999975
0.999984
0.999986
0.999986
0.999979
0.999947
0.999811
0.999265
0.997162
0.989242
0.959945
0.851722
0.633156
0.440897
0.290945
0.182486
0.109035
0.0622
0.0339533
0.0177738
0.00894186
0.00433265
0.00202581
0.000915603
0.000400624
0.000169925
6.99463e-05
2.79698e-05
1.08745e-05
4.11397e-06
1.51544e-06
5.43891e-07
1.90294e-07
6.49382e-08
2.16245e-08
7.03e-09
2.23206e-09
6.92409e-10
2.09934e-10
6.22309e-11
1.80412e-11
5.11663e-12
1.41993e-12
3.8567e-13
1.02544e-13
2.66947e-14
6.80468e-15
1.69861e-15
4.15224e-16
9.93936e-17
2.32945e-17
5.34403e-18
1.19961e-18
2.63367e-19
5.65168e-20
1.18463e-20
2.42456e-21
4.83393e-22
0.172453
0.564449
0.626559
0.482894
0.285741
0.235993
0.228521
0.269298
0.309032
0.317442
0.306188
0.293281
0.313204
0.387828
0.445869
0.470671
0.479107
0.403623
0.360833
0.356678
0.506554
0.710118
0.773011
0.790126
0.793579
0.793063
0.783876
0.759493
0.737854
0.710288
0.678121
0.655651
0.645645
0.64027
0.632368
0.62402
0.617289
0.609901
0.600325
0.588798
0.576464
0.560797
0.54936
0.541531
0.533265
0.522675
0.515599
0.50805
0.504596
0.50345
0.506067
0.511309
0.517465
0.529382
0.541037
0.550547
0.561151
0.571856
0.580557
0.590963
0.602455
0.614217
0.627204
0.641868
0.658515
0.677995
0.698077
0.715814
0.730577
0.741597
0.750036
0.756814
0.763344
0.7698
0.775558
0.78046
0.783845
0.782964
0.780308
0.778609
0.781048
0.786495
0.793635
0.801295
0.809795
0.818303
0.825033
0.827933
0.823256
0.805468
0.779818
0.760922
0.756729
0.768453
0.81641
0.881228
0.900598
0.897281
0.861039
0.817789
0.811244
0.823785
0.877932
0.937112
0.968501
0.983638
0.99065
0.993518
0.994493
0.994839
0.995004
0.995153
0.995458
0.996083
0.996926
0.997824
0.998601
0.999176
0.99955
0.999769
0.999886
0.999946
0.999975
0.999988
0.999993
0.999994
0.999994
0.999991
0.999974
0.999901
0.9996
0.998409
0.9938
0.976282
0.91083
0.71458
0.499245
0.330045
0.206774
0.123136
0.0699077
0.0379429
0.0197392
0.00986632
0.00474856
0.00220512
0.000989822
0.000430109
0.000181156
7.40393e-05
2.93918e-05
1.13427e-05
4.25856e-06
1.55654e-06
5.54215e-07
1.92337e-07
6.50942e-08
2.14944e-08
6.92802e-09
2.18059e-09
6.70489e-10
2.01473e-10
5.91831e-11
1.70006e-11
4.77684e-12
1.31321e-12
3.53299e-13
9.30351e-14
2.39834e-14
6.05315e-15
1.49582e-15
3.61911e-16
8.57258e-17
1.98762e-17
4.50982e-18
1.00098e-18
2.17259e-19
4.60884e-20
9.55533e-21
1.93283e-21
0.16053
0.557536
0.64017
0.552613
0.329159
0.25454
0.244929
0.269991
0.31776
0.342363
0.3644
0.376293
0.395776
0.428217
0.43936
0.43195
0.395591
0.381187
0.388116
0.496435
0.688043
0.761809
0.783716
0.789163
0.789893
0.78236
0.759601
0.74092
0.718576
0.69104
0.664477
0.648408
0.64091
0.63336
0.624721
0.617969
0.609231
0.595759
0.581759
0.570212
0.553655
0.534006
0.5145
0.495298
0.473817
0.447359
0.42294
0.405649
0.395167
0.391193
0.392896
0.404177
0.425653
0.448042
0.476939
0.502349
0.528587
0.547205
0.563159
0.575654
0.588492
0.60273
0.616877
0.631849
0.648185
0.665131
0.682616
0.699671
0.714917
0.726995
0.735597
0.741235
0.745286
0.750626
0.759647
0.771865
0.786157
0.796718
0.804561
0.810292
0.815726
0.820834
0.829067
0.838388
0.84706
0.856271
0.867467
0.881826
0.897451
0.906584
0.901613
0.863927
0.8045
0.77152
0.7757
0.814102
0.877627
0.89631
0.890633
0.854839
0.832034
0.831821
0.855196
0.915861
0.95858
0.980667
0.990864
0.995386
0.997341
0.99814
0.9985
0.998697
0.998805
0.998852
0.998886
0.998958
0.999149
0.9994
0.999625
0.999788
0.99989
0.999946
0.999974
0.999988
0.999995
0.999997
0.999998
0.999997
0.999995
0.999984
0.999935
0.999729
0.998891
0.995561
0.982581
0.933108
0.76217
0.53207
0.350105
0.217932
0.128787
0.0725069
0.0390157
0.0201236
0.00997419
0.00476105
0.00219281
0.000976146
0.000420629
0.000175689
7.12097e-05
2.80333e-05
1.07275e-05
3.99335e-06
1.44703e-06
5.10722e-07
1.75675e-07
5.89222e-08
1.928e-08
6.15728e-09
1.92005e-09
5.84852e-10
1.74081e-10
5.06491e-11
1.44093e-11
4.0095e-12
1.09148e-12
2.9075e-13
7.58015e-14
1.93441e-14
4.83253e-15
1.18187e-15
2.82959e-16
6.63118e-17
1.52094e-17
3.4133e-18
7.49372e-19
1.60892e-19
3.37868e-20
6.93165e-21
0.146983
0.543908
0.646146
0.587838
0.409457
0.305904
0.273846
0.269687
0.30698
0.336524
0.357647
0.378289
0.391878
0.401443
0.400801
0.394725
0.393276
0.412348
0.510266
0.67601
0.749224
0.775312
0.782854
0.784746
0.778832
0.758177
0.743815
0.728304
0.705071
0.676644
0.652149
0.640287
0.634045
0.626767
0.616437
0.60549
0.591731
0.574798
0.555053
0.528872
0.502825
0.476731
0.438535
0.394176
0.354732
0.320411
0.288305
0.269364
0.259928
0.256873
0.263579
0.274894
0.297103
0.323625
0.362859
0.410746
0.455983
0.497339
0.528808
0.549102
0.564203
0.580005
0.600793
0.624332
0.646229
0.668547
0.691125
0.710862
0.726843
0.738759
0.745808
0.7475
0.745704
0.743884
0.742413
0.742796
0.747406
0.763031
0.785153
0.807396
0.822622
0.831623
0.837878
0.842445
0.844806
0.846726
0.851734
0.865737
0.892938
0.918617
0.932188
0.934725
0.924368
0.865255
0.80109
0.796122
0.827428
0.880341
0.895864
0.888127
0.86464
0.858157
0.864142
0.903138
0.949502
0.976111
0.989367
0.99532
0.997873
0.998963
0.999409
0.999589
0.999668
0.9997
0.999709
0.999711
0.999718
0.999743
0.999801
0.999867
0.99992
0.999957
0.999978
0.99999
0.999995
0.999998
0.999999
0.999999
0.999999
0.999997
0.999988
0.999948
0.999775
0.999054
0.996115
0.98439
0.93881
0.774555
0.53706
0.34987
0.215405
0.125859
0.0700628
0.0372883
0.01903
0.00933687
0.00441368
0.00201388
0.000888313
0.000379285
0.000156943
6.30049e-05
2.45637e-05
9.30911e-06
3.43204e-06
1.23167e-06
4.30521e-07
1.46652e-07
4.87084e-08
1.57817e-08
4.99036e-09
1.54073e-09
4.64632e-10
1.36911e-10
3.94334e-11
1.1105e-11
3.05859e-12
8.24104e-13
2.17267e-13
5.6057e-14
1.41563e-14
3.49937e-15
8.4677e-16
2.00568e-16
4.65009e-17
1.05511e-17
2.34291e-18
5.09044e-19
1.08248e-19
2.25145e-20
0.116442
0.516469
0.654034
0.641197
0.510894
0.373511
0.319575
0.303048
0.302791
0.336089
0.3506
0.368798
0.377242
0.388417
0.396343
0.404488
0.434975
0.538465
0.673745
0.738552
0.765311
0.774687
0.777877
0.773334
0.754242
0.741348
0.730462
0.715531
0.692974
0.665309
0.644871
0.635804
0.630687
0.62337
0.612
0.598136
0.579633
0.555069
0.532961
0.505535
0.469822
0.425453
0.372128
0.317871
0.274798
0.240311
0.217349
0.205584
0.200043
0.198683
0.207389
0.220763
0.242076
0.266321
0.29773
0.33842
0.391947
0.447968
0.500555
0.537687
0.55699
0.566221
0.575298
0.590822
0.620077
0.658927
0.695243
0.727011
0.752261
0.771397
0.786341
0.797487
0.80188
0.796578
0.781013
0.758595
0.742102
0.735055
0.735461
0.743695
0.761385
0.776474
0.781154
0.776267
0.761518
0.744268
0.735625
0.740533
0.784367
0.86708
0.918589
0.937074
0.938972
0.930763
0.882968
0.825458
0.820465
0.850964
0.897961
0.911697
0.9049
0.894184
0.893465
0.906598
0.945878
0.972886
0.987425
0.994549
0.997725
0.999049
0.99959
0.999805
0.999886
0.999913
0.999921
0.999922
0.999922
0.999924
0.999933
0.999947
0.999963
0.999977
0.999987
0.999993
0.999997
0.999998
0.999999
1
1
0.999999
0.999997
0.999988
0.999948
0.999772
0.999021
0.995887
0.983146
0.932878
0.754971
0.515409
0.330841
0.200725
0.115627
0.0635007
0.0333649
0.016822
0.00815862
0.00381419
0.00172182
0.000751637
0.00031769
0.00013015
5.17288e-05
1.99634e-05
7.48687e-06
2.73071e-06
9.6937e-07
3.35164e-07
1.12944e-07
3.71125e-08
1.18966e-08
3.72191e-09
1.13691e-09
3.39212e-10
9.8892e-11
2.818e-11
7.85131e-12
2.13937e-12
5.70269e-13
1.48735e-13
3.7963e-14
9.48374e-15
2.31907e-15
5.55107e-16
1.30074e-16
2.98353e-17
6.6994e-18
1.4726e-18
3.1699e-19
6.68067e-20
0.0950548
0.462222
0.655801
0.664481
0.599785
0.481903
0.397836
0.357274
0.343462
0.3421
0.36384
0.37405
0.385487
0.402461
0.426535
0.472696
0.574215
0.678069
0.730925
0.755008
0.7649
0.769044
0.765071
0.746466
0.732705
0.724335
0.714475
0.700018
0.678975
0.65396
0.636625
0.62932
0.625204
0.618244
0.606102
0.586693
0.562986
0.537968
0.510413
0.471789
0.420496
0.363608
0.308223
0.256677
0.219322
0.195282
0.181745
0.173667
0.16935
0.167854
0.174235
0.186857
0.209336
0.238054
0.268585
0.30337
0.351405
0.41567
0.478772
0.530261
0.557972
0.568945
0.573732
0.579156
0.587169
0.602796
0.640832
0.692573
0.735453
0.762924
0.783989
0.803211
0.820982
0.836294
0.847646
0.851282
0.833537
0.793369
0.755821
0.737005
0.732038
0.731489
0.728909
0.720253
0.702629
0.686024
0.676037
0.674275
0.682546
0.730544
0.846304
0.910621
0.929167
0.928788
0.907104
0.856396
0.836802
0.841514
0.88344
0.927075
0.940466
0.936947
0.930441
0.93112
0.94662
0.97197
0.98651
0.993882
0.997374
0.998932
0.99958
0.999835
0.999931
0.999965
0.999975
0.999978
0.999978
0.999979
0.999981
0.999984
0.999988
0.999992
0.999995
0.999997
0.999998
0.999999
1
1
1
1
0.999999
0.999997
0.999986
0.999938
0.999721
0.998779
0.994784
0.97836
0.913105
0.704328
0.470986
0.296838
0.176976
0.100292
0.0542465
0.0280997
0.013979
0.00669406
0.00309155
0.00137921
0.000595172
0.000248727
0.000100768
3.96127e-05
1.51224e-05
5.61059e-06
2.02437e-06
7.10788e-07
2.43007e-07
8.09471e-08
2.62877e-08
8.32775e-09
2.57497e-09
7.77498e-10
2.2933e-10
6.61e-11
1.86234e-11
5.13048e-12
1.38235e-12
3.64367e-13
9.39756e-14
2.37202e-14
5.86028e-15
1.41728e-15
3.35571e-16
7.77901e-17
1.76586e-17
3.92562e-18
8.55026e-19
1.82492e-19
0.0716798
0.358303
0.64631
0.677797
0.657616
0.598026
0.530311
0.460175
0.427712
0.413071
0.409927
0.421599
0.441038
0.482516
0.547124
0.625277
0.684001
0.725956
0.745558
0.754669
0.758961
0.753791
0.734534
0.719547
0.711718
0.705844
0.69823
0.686741
0.669701
0.648579
0.633641
0.626817
0.621826
0.615752
0.604419
0.584904
0.558575
0.531565
0.503242
0.46688
0.416374
0.35787
0.301045
0.251771
0.2137
0.188279
0.173226
0.163708
0.158141
0.157428
0.161786
0.173173
0.190785
0.223164
0.258692
0.290919
0.326313
0.38541
0.461189
0.524409
0.572358
0.591906
0.594318
0.592215
0.590003
0.591488
0.598264
0.613232
0.642714
0.672416
0.697296
0.725071
0.760979
0.80218
0.837722
0.86594
0.885063
0.894779
0.89039
0.857251
0.818817
0.792621
0.776104
0.760617
0.740785
0.716787
0.695069
0.680031
0.676937
0.690197
0.747125
0.854556
0.899102
0.905534
0.895976
0.862266
0.846414
0.846201
0.865167
0.922084
0.95572
0.966719
0.966783
0.963661
0.964118
0.974179
0.986911
0.993814
0.997258
0.998853
0.999545
0.999827
0.999936
0.999975
0.999988
0.999992
0.999994
0.999994
0.999995
0.999996
0.999997
0.999998
0.999998
0.999999
0.999999
1
1
1
1
1
1
0.999999
0.999996
0.99998
0.999909
0.999588
0.998178
0.992168
0.96744
0.869278
0.625684
0.410091
0.253078
0.147975
0.0823746
0.0438286
0.0223587
0.010964
0.00517884
0.00236043
0.00103964
0.000443052
0.000182889
7.31995e-05
2.84317e-05
1.07256e-05
3.93272e-06
1.40253e-06
4.86804e-07
1.64543e-07
5.41908e-08
1.73985e-08
5.44805e-09
1.66463e-09
4.96544e-10
1.44666e-10
4.11854e-11
1.14627e-11
3.11998e-12
8.30698e-13
2.164e-13
5.51671e-14
1.37656e-14
3.36251e-15
8.04213e-16
1.88352e-16
4.32089e-17
9.71075e-18
2.1391e-18
4.62093e-19
0.0501192
0.210646
0.598181
0.68271
0.686493
0.657033
0.629119
0.590124
0.561572
0.548266
0.543533
0.556951
0.576807
0.614236
0.658333
0.696096
0.722557
0.736743
0.744944
0.748928
0.746014
0.729347
0.70973
0.699813
0.693834
0.689308
0.684081
0.676405
0.664482
0.648224
0.630755
0.623653
0.619927
0.615283
0.606491
0.588219
0.562311
0.535111
0.507365
0.473988
0.427329
0.371393
0.315087
0.26582
0.226404
0.198497
0.1815
0.170097
0.164021
0.164244
0.167035
0.173845
0.186394
0.216198
0.263039
0.293765
0.321804
0.373097
0.443688
0.517592
0.576184
0.615645
0.629629
0.631202
0.627129
0.61694
0.607832
0.604851
0.609394
0.619182
0.625628
0.63022
0.637343
0.656586
0.704423
0.774197
0.847093
0.894513
0.921936
0.937274
0.945002
0.945969
0.943426
0.939356
0.930117
0.908043
0.864066
0.801653
0.740218
0.715939
0.727692
0.8012
0.880339
0.898724
0.889982
0.86262
0.851476
0.851281
0.86342
0.913292
0.956213
0.977042
0.984718
0.986502
0.986916
0.987731
0.991511
0.995413
0.997713
0.998956
0.999559
0.999827
0.999936
0.999977
0.999992
0.999996
0.999998
0.999998
0.999999
0.999999
0.999999
0.999999
1
1
1
1
1
1
1
1
1
1
0.999999
0.999993
0.999966
0.999843
0.999287
0.996848
0.986503
0.944351
0.784404
0.535116
0.341569
0.205998
0.117996
0.0644698
0.0337173
0.0169269
0.00817554
0.00380613
0.00171065
0.000743241
0.000312537
0.00012733
5.03069e-05
1.92915e-05
7.18605e-06
2.60207e-06
9.16536e-07
3.14237e-07
1.04931e-07
3.41447e-08
1.08329e-08
3.35258e-09
1.01256e-09
2.98572e-10
8.59863e-11
2.4194e-11
6.65327e-12
1.78884e-12
4.70398e-13
1.21019e-13
3.04703e-14
7.51049e-15
1.81298e-15
4.28678e-16
9.93135e-17
2.25487e-17
5.01994e-18
1.09671e-18
0.0438782
0.0959262
0.456633
0.675531
0.700323
0.699286
0.681604
0.663301
0.643235
0.636181
0.634569
0.646405
0.65604
0.679987
0.704617
0.718208
0.729202
0.734801
0.737601
0.73271
0.718029
0.69893
0.686666
0.680522
0.676583
0.673626
0.670572
0.666053
0.659079
0.647333
0.630238
0.617393
0.613625
0.612454
0.607501
0.597745
0.577019
0.546627
0.51876
0.489211
0.454335
0.407162
0.354598
0.30523
0.262491
0.229535
0.209509
0.194611
0.187077
0.18789
0.192171
0.203608
0.218086
0.243048
0.296232
0.341039
0.360152
0.383273
0.437064
0.500505
0.568229
0.627661
0.664863
0.679515
0.68375
0.683598
0.672916
0.647148
0.629161
0.622659
0.622226
0.621036
0.616331
0.610914
0.610645
0.621948
0.670761
0.776435
0.873566
0.92807
0.955908
0.971493
0.981224
0.987138
0.989372
0.989307