/*--------------------------------*- C++ -*----------------------------------*\
  =========                 |
  \\      /  F ield         | OpenFOAM: The Open Source CFD Toolbox
   \\    /   O peration     | Website:  https://openfoam.org
    \\  /    A nd           | Version:  9
     \\/     M anipulation  |
\*---------------------------------------------------------------------------*/
FoamFile
{
    format      ascii;
    class       volVectorField;
    location    "0.026";
    object      U;
}
// * * * * * * * * * * * * * * * * * * * * * * * * * * * * * * * * * * * * * //

dimensions      [0 1 -1 0 0 0 0];

internalField   nonuniform List<vector> 
12225
(
(9.85481 0.0464157 0)
(9.5237 0.0882041 0)
(9.1641 0.100905 0)
(8.80369 0.0960339 0)
(8.52283 0.0697025 0)
(8.30637 0.0409127 0)
(8.10719 0.0243238 0)
(7.90582 0.0258045 0)
(7.67941 0.0426784 0)
(7.41617 0.0653488 0)
(7.10055 0.0822043 0)
(6.75312 0.0866496 0)
(6.37984 0.0835005 0)
(6.01739 0.0782502 0)
(5.6272 0.0787761 0)
(5.29641 0.0793035 0)
(4.84582 0.104427 0)
(4.50758 0.107525 0)
(10.0508 0.0527605 0)
(10.1006 0.0693959 0)
(10.0471 0.057372 0)
(10.0559 0.0475666 0)
(10.1183 0.0450095 0)
(10.1657 0.0573517 0)
(10.167 0.0764863 0)
(10.1365 0.0886096 0)
(10.0923 0.0935311 0)
(10.0473 0.100039 0)
(9.99432 0.114289 0)
(9.92887 0.134754 0)
(9.8295 0.153444 0)
(9.70503 0.173121 0)
(9.52996 0.185319 0)
(9.34957 0.200862 0)
(9.11116 0.226333 0)
(8.88797 0.24937 0)
(9.93168 0.00554654 0)
(9.8563 0.109129 0)
(9.90173 0.109579 0)
(10.0192 0.0725675 0)
(10.0928 0.0442614 0)
(10.1075 0.0339372 0)
(10.1016 0.0358694 0)
(10.1026 0.0452418 0)
(10.1113 0.0643973 0)
(10.1218 0.0924257 0)
(10.1321 0.122823 0)
(10.142 0.149176 0)
(10.1449 0.169821 0)
(10.1344 0.190521 0)
(10.1036 0.213959 0)
(10.0479 0.242992 0)
(9.97109 0.284217 0)
(9.87622 0.327465 0)
(9.92004 -0.00892314 0)
(10.0245 0.053502 0)
(10.1647 0.0235839 0)
(10.1569 0.00656876 0)
(10.0747 0.0223904 0)
(10.0273 0.0512225 0)
(10.0319 0.0752831 0)
(10.0506 0.0877173 0)
(10.0522 0.0930165 0)
(10.0356 0.0990416 0)
(10.0187 0.110391 0)
(10.0157 0.128784 0)
(10.0266 0.153453 0)
(10.042 0.186277 0)
(10.0499 0.224804 0)
(10.0393 0.266066 0)
(10.0074 0.313062 0)
(9.95721 0.355493 0)
(9.96483 -0.0192826 0)
(10.063 0.0253654 0)
(10.0985 0.0826432 0)
(10.0627 0.0943413 0)
(10.0419 0.0751684 0)
(10.0567 0.0461979 0)
(10.0713 0.0301726 0)
(10.0529 0.0395576 0)
(9.99787 0.0682823 0)
(9.92918 0.101532 0)
(9.87498 0.128035 0)
(9.85019 0.146396 0)
(9.85266 0.162189 0)
(9.87225 0.185288 0)
(9.89812 0.221004 0)
(9.91809 0.26813 0)
(9.92644 0.326106 0)
(9.9168 0.38156 0)
(10.0433 -0.0295248 0)
(10.1068 -0.00476473 0)
(10.1899 0.0378996 0)
(10.2169 0.0363355 0)
(10.1918 0.0296904 0)
(10.1161 0.0439425 0)
(10.011 0.0773188 0)
(9.91136 0.114707 0)
(9.84039 0.140857 0)
(9.80345 0.15025 0)
(9.79265 0.147656 0)
(9.79425 0.143555 0)
(9.79738 0.147652 0)
(9.79923 0.166384 0)
(9.80379 0.201974 0)
(9.81281 0.250404 0)
(9.82431 0.307882 0)
(9.83736 0.36625 0)
(9.8537 -0.0445959 0)
(9.75301 -0.0180141 0)
(9.67062 0.0405708 0)
(9.72647 0.0806656 0)
(9.83409 0.101973 0)
(9.91079 0.108911 0)
(9.9437 0.106271 0)
(9.95819 0.103326 0)
(9.9769 0.105519 0)
(10.0062 0.112762 0)
(10.0369 0.123248 0)
(10.0511 0.13714 0)
(10.0343 0.156044 0)
(9.98511 0.182413 0)
(9.91641 0.218512 0)
(9.84685 0.263707 0)
(9.78748 0.316806 0)
(9.7499 0.374858 0)
(10.0174 -0.0577219 0)
(10.0645 0.0734825 0)
(9.98158 0.051099 0)
(9.96664 -0.00859692 0)
(10.0225 -0.0321405 0)
(10.0903 -0.0031928 0)
(10.1129 0.0518357 0)
(10.0758 0.0995872 0)
(10.0094 0.124112 0)
(9.95689 0.130755 0)
(9.94172 0.135826 0)
(9.9566 0.152889 0)
(9.97832 0.186026 0)
(9.98288 0.23011 0)
(9.9617 0.276952 0)
(9.91832 0.321642 0)
(9.86698 0.36191 0)
(9.81961 0.402153 0)
(9.805 -0.0725842 0)
(9.84153 0.00101386 0)
(9.90757 0.0579044 0)
(10.0094 0.0633259 0)
(10.0708 0.0594818 0)
(10.0616 0.079958 0)
(10.008 0.120371 0)
(9.94812 0.153008 0)
(9.89703 0.158084 0)
(9.85354 0.13916 0)
(9.81788 0.116025 0)
(9.79592 0.110095 0)
(9.794 0.133198 0)
(9.81317 0.183218 0)
(9.84574 0.248286 0)
(9.88014 0.315292 0)
(9.9071 0.375331 0)
(9.91626 0.425019 0)
(10.0298 -0.0276559 0)
(9.94353 0.0162188 0)
(9.92522 -0.0156492 0)
(9.97041 -0.0644792 0)
(10.0228 -0.0542172 0)
(10.0534 0.0135403 0)
(10.0658 0.0920592 0)
(10.0768 0.144881 0)
(10.0923 0.167264 0)
(10.1033 0.172638 0)
(10.096 0.17405 0)
(10.0644 0.178804 0)
(10.0149 0.190789 0)
(9.96324 0.212449 0)
(9.92229 0.244537 0)
(9.89963 0.28633 0)
(9.88936 0.336515 0)
(9.88873 0.393913 0)
(10.0947 0.0646727 0)
(10.0741 0.054486 0)
(10.0963 0.0444687 0)
(10.0623 0.0264308 0)
(9.99727 0.0300301 0)
(9.96045 0.0677428 0)
(9.96226 0.118492 0)
(9.97386 0.148958 0)
(9.96971 0.149616 0)
(9.94822 0.136663 0)
(9.92441 0.131547 0)
(9.91254 0.146172 0)
(9.91556 0.18043 0)
(9.92753 0.228811 0)
(9.93771 0.282419 0)
(9.93658 0.336538 0)
(9.92115 0.387911 0)
(9.89078 0.435867 0)
(9.93102 0.0822628 0)
(9.99558 0.0208264 0)
(10.0695 -0.00629701 0)
(10.1268 -0.0153665 0)
(10.1223 -0.00488425 0)
(10.0935 0.0264761 0)
(10.0862 0.0778721 0)
(10.098 0.132577 0)
(10.0994 0.173113 0)
(10.069 0.192911 0)
(10.01 0.195195 0)
(9.94369 0.190321 0)
(9.89339 0.191556 0)
(9.87137 0.209524 0)
(9.88201 0.248601 0)
(9.91235 0.305087 0)
(9.95719 0.373131 0)
(9.99539 0.443667 0)
(9.89988 0.0442213 0)
(9.97244 0.0024681 0)
(10.0793 -0.0133257 0)
(10.1705 -0.00420725 0)
(10.2129 0.0408423 0)
(10.2076 0.0907145 0)
(10.171 0.126492 0)
(10.1243 0.152165 0)
(10.0863 0.17361 0)
(10.0654 0.192049 0)
(10.0578 0.205889 0)
(10.0531 0.214533 0)
(10.0408 0.220461 0)
(10.0192 0.228195 0)
(9.99384 0.243864 0)
(9.97596 0.272068 0)
(9.9689 0.313625 0)
(9.9792 0.370125 0)
(10.048 -0.0430452 0)
(9.99202 -0.0675095 0)
(10.024 -0.0844217 0)
(10.0728 -0.0729584 0)
(10.1151 -0.0300297 0)
(10.1314 0.0369195 0)
(10.1205 0.114384 0)
(10.1012 0.175229 0)
(10.0954 0.203544 0)
(10.111 0.204713 0)
(10.1406 0.196142 0)
(10.1704 0.196065 0)
(10.1885 0.214028 0)
(10.1883 0.249907 0)
(10.1709 0.296945 0)
(10.1418 0.348112 0)
(10.1092 0.39942 0)
(10.0786 0.450044 0)
(10.2135 0.209607 0)
(10.1395 0.0551379 0)
(10.0851 -0.0855606 0)
(10.0421 -0.0789847 0)
(10.0058 0.00158542 0)
(9.98435 0.0911777 0)
(9.98385 0.150947 0)
(9.99907 0.170863 0)
(10.0285 0.166886 0)
(10.0638 0.160272 0)
(10.0942 0.163911 0)
(10.1146 0.180103 0)
(10.1275 0.205844 0)
(10.1371 0.237027 0)
(10.1467 0.271363 0)
(10.157 0.30914 0)
(10.168 0.349916 0)
(10.1797 0.396573 0)
(9.99831 0.126805 0)
(10.0688 0.0565858 0)
(10.0045 0.0146205 0)
(9.9327 0.0194769 0)
(9.92181 0.032325 0)
(9.97108 0.065871 0)
(10.0296 0.105574 0)
(10.0756 0.133497 0)
(10.1176 0.14154 0)
(10.1631 0.137774 0)
(10.2088 0.137889 0)
(10.245 0.153268 0)
(10.2624 0.185939 0)
(10.258 0.232355 0)
(10.2318 0.285106 0)
(10.1941 0.339546 0)
(10.1499 0.391214 0)
(10.1147 0.438321 0)
(9.89278 0.0164735 0)
(9.8953 0.0133397 0)
(9.90428 0.016816 0)
(9.96767 -0.0412513 0)
(10.0333 -0.0747129 0)
(10.0846 -0.0396942 0)
(10.1103 0.021904 0)
(10.1145 0.0580363 0)
(10.1131 0.0606406 0)
(10.1208 0.0555826 0)
(10.1393 0.0713143 0)
(10.163 0.120355 0)
(10.1849 0.196285 0)
(10.2015 0.284571 0)
(10.2115 0.366894 0)
(10.2153 0.431749 0)
(10.2165 0.472864 0)
(10.216 0.490059 0)
(10.1547 0.0500945 0)
(10.1362 -0.0640066 0)
(10.1925 -0.0783306 0)
(10.1706 -0.0892928 0)
(10.1063 -0.0609047 0)
(10.0597 0.0235721 0)
(10.0335 0.115968 0)
(10.0111 0.163559 0)
(9.99051 0.154899 0)
(9.97651 0.114885 0)
(9.97399 0.0794899 0)
(9.98599 0.074412 0)
(10.0122 0.106165 0)
(10.05 0.165557 0)
(10.0956 0.237779 0)
(10.144 0.308479 0)
(10.1915 0.370219 0)
(10.2342 0.419626 0)
(10.0522 -0.207544 0)
(10.0616 -0.0623755 0)
(10.0588 0.0561633 0)
(10.05 0.0711287 0)
(10.0513 0.0423032 0)
(10.0723 0.035283 0)
(10.1144 0.059476 0)
(10.1636 0.085769 0)
(10.1993 0.0890004 0)
(10.2098 0.0727479 0)
(10.1969 0.0577695 0)
(10.1715 0.0621569 0)
(10.1463 0.0906704 0)
(10.1299 0.13669 0)
(10.1259 0.18824 0)
(10.1344 0.236623 0)
(10.1528 0.275864 0)
(10.18 0.307394 0)
(10.0304 -0.105535 0)
(10.0616 -0.0864737 0)
(10.0897 -0.0440342 0)
(10.1 -0.043986 0)
(10.066 -0.062181 0)
(10.017 -0.053612 0)
(9.99597 -0.0170854 0)
(10.0052 0.0328244 0)
(10.0305 0.0806681 0)
(10.057 0.117845 0)
(10.0736 0.143621 0)
(10.0789 0.161835 0)
(10.0791 0.177071 0)
(10.0816 0.193363 0)
(10.0912 0.211006 0)
(10.1102 0.229384 0)
(10.1388 0.245241 0)
(10.1768 0.258702 0)
(10.0857 0.0215723 0)
(10.1189 -0.141282 0)
(10.1817 -0.0693197 0)
(10.2026 0.0492372 0)
(10.1574 0.0958838 0)
(10.0846 0.0817876 0)
(10.0249 0.0474351 0)
(10.0038 0.0216184 0)
(10.025 0.0162492 0)
(10.0782 0.029702 0)
(10.1445 0.055819 0)
(10.2067 0.0880697 0)
(10.2568 0.120089 0)
(10.2942 0.145931 0)
(10.3208 0.160178 0)
(10.3383 0.1629 0)
(10.3506 0.15488 0)
(10.3576 0.142993 0)
(10.0107 0.0377094 0)
(9.96729 -0.115212 0)
(10.0101 -0.0765108 0)
(10.0753 0.0301441 0)
(10.1541 0.104447 0)
(10.2223 0.119271 0)
(10.2789 0.0860464 0)
(10.3247 0.0295718 0)
(10.3516 -0.0210238 0)
(10.3552 -0.0465723 0)
(10.3445 -0.042176 0)
(10.3375 -0.0132822 0)
(10.349 0.0299217 0)
(10.3829 0.0768341 0)
(10.4335 0.120553 0)
(10.4885 0.157174 0)
(10.5395 0.186472 0)
(10.5752 0.207024 0)
(10.1373 0.0396548 0)
(10.095 -0.133052 0)
(10.0733 -0.190537 0)
(10.0273 -0.113611 0)
(10.055 -0.0472401 0)
(10.1403 -0.0370951 0)
(10.2362 -0.053466 0)
(10.3158 -0.0519313 0)
(10.3613 -0.0175305 0)
(10.364 0.0312145 0)
(10.3343 0.0666233 0)
(10.2973 0.0756019 0)
(10.2773 0.0625943 0)
(10.2861 0.041938 0)
(10.3223 0.0282202 0)
(10.3764 0.0293042 0)
(10.4366 0.0462388 0)
(10.4937 0.0745148 0)
(10.4905 -0.0199615 0)
(10.3525 0.048565 0)
(10.2431 0.01655 0)
(10.154 0.0143416 0)
(10.1266 0.00900028 0)
(10.1285 -0.03368 0)
(10.1183 -0.0814537 0)
(10.1043 -0.0944916 0)
(10.1054 -0.0637346 0)
(10.1256 -0.0113452 0)
(10.1579 0.0319543 0)
(10.1939 0.0478262 0)
(10.2261 0.0373408 0)
(10.2507 0.0143813 0)
(10.2689 -0.0035357 0)
(10.2865 -0.00604528 0)
(10.3055 0.0107138 0)
(10.3316 0.0431099 0)
(10.0848 0.0794376 0)
(10.1277 0.0686939 0)
(10.1953 -0.0240297 0)
(10.2431 -0.060762 0)
(10.2884 -0.0407165 0)
(10.3109 -0.0286373 0)
(10.3044 -0.0388437 0)
(10.2944 -0.0481631 0)
(10.3022 -0.0381589 0)
(10.325 -0.0138366 0)
(10.3484 0.00835215 0)
(10.3599 0.0170248 0)
(10.3541 0.0120713 0)
(10.3324 0.000700128 0)
(10.2997 -0.00837791 0)
(10.2653 -0.00970353 0)
(10.2355 -0.0014733 0)
(10.2174 0.0138497 0)
(10.3445 0.0836582 0)
(10.4064 0.0358953 0)
(10.3268 -0.0185019 0)
(10.2507 -0.0367565 0)
(10.2505 -0.0250244 0)
(10.2928 -0.032171 0)
(10.3129 -0.0648931 0)
(10.2961 -0.0901725 0)
(10.2654 -0.0829365 0)
(10.2467 -0.0462406 0)
(10.2532 -0.00102552 0)
(10.2831 0.0343557 0)
(10.3242 0.051897 0)
(10.3623 0.0541168 0)
(10.3885 0.0494571 0)
(10.401 0.0468314 0)
(10.4028 0.0501094 0)
(10.398 0.0575307 0)
(9.93178 -0.0289703 0)
(10.0984 0.0853293 0)
(10.155 0.0344895 0)
(10.1167 -0.0482009 0)
(10.0919 -0.0761545 0)
(10.1148 -0.0687861 0)
(10.1528 -0.0489224 0)
(10.1831 -0.0278457 0)
(10.2079 -0.0132179 0)
(10.2379 -0.00955458 0)
(10.2789 -0.015909 0)
(10.326 -0.0264048 0)
(10.3676 -0.0345304 0)
(10.3957 -0.03469 0)
(10.4128 -0.0247306 0)
(10.4236 -0.00725073 0)
(10.434 0.014716 0)
(10.4461 0.0325344 0)
(9.94197 0.0115621 0)
(9.99562 -0.0103224 0)
(10.1591 0.0086616 0)
(10.2483 0.00790048 0)
(10.2986 -0.0221584 0)
(10.3268 -0.0633935 0)
(10.3143 -0.0936038 0)
(10.2695 -0.104355 0)
(10.2205 -0.0977512 0)
(10.1867 -0.0790518 0)
(10.1742 -0.0536043 0)
(10.1823 -0.0265849 0)
(10.2089 -0.00354065 0)
(10.2526 0.0111052 0)
(10.3152 0.0178828 0)
(10.3933 0.0197468 0)
(10.4829 0.0230413 0)
(10.5706 0.0300521 0)
(10.0607 0.02742 0)
(10.1352 -0.0472993 0)
(10.2104 -0.0703057 0)
(10.2583 -0.0955768 0)
(10.2594 -0.0999939 0)
(10.2235 -0.0745636 0)
(10.1899 -0.0330817 0)
(10.1875 -0.000282453 0)
(10.2097 0.00924169 0)
(10.2288 -0.00177954 0)
(10.2253 -0.0229641 0)
(10.2014 -0.0457574 0)
(10.1736 -0.0666346 0)
(10.1582 -0.0845924 0)
(10.1632 -0.0960903 0)
(10.1874 -0.0983206 0)
(10.224 -0.0895083 0)
(10.2683 -0.0718755 0)
(10.1216 -0.0442041 0)
(9.89715 -0.0376816 0)
(9.76525 -0.0130564 0)
(9.61139 -0.00988734 0)
(9.4271 -0.0229007 0)
(9.23803 -0.0471986 0)
(9.06413 -0.0760577 0)
(8.90995 -0.0955092 0)
(8.77295 -0.0933489 0)
(8.6566 -0.0682309 0)
(8.56879 -0.0320238 0)
(8.50726 -0.00220998 0)
(8.45267 0.00862461 0)
(8.3804 -0.000497414 0)
(8.27753 -0.0192543 0)
(8.15277 -0.0360618 0)
(8.02131 -0.0423843 0)
(7.91262 -0.0375412 0)
(-0.234562 0.443126 5.62437e-20)
(-0.544271 0.217668 -5.57969e-20)
(-0.530962 -0.142838 0)
(-0.240577 -0.392461 0)
(0.224943 -0.529511 0)
(0.780235 -0.585749 5.42572e-20)
(1.32933 -0.571735 0)
(1.85248 -0.512161 0)
(2.31366 -0.425597 0)
(2.68928 -0.326591 0)
(2.97017 -0.222074 -5.15335e-20)
(3.14979 -0.119069 0)
(3.23277 -0.0187677 0)
(3.2181 0.0745037 0)
(3.10749 0.16018 0)
(2.92304 0.233465 -4.94717e-20)
(2.66928 0.292566 0)
(2.37452 0.337424 0)
(2.03109 0.359505 0)
(1.6846 0.37945 0)
(1.31201 0.348733 0)
(0.943607 0.357697 0)
(0.660453 0.296256 0)
(0.323598 0.163537 -4.6949e-20)
(0.0860846 0.0275549 4.65713e-20)
(0.216965 0.0157019 -4.62122e-20)
(0.152812 -0.1124 -4.5786e-20)
(0.339358 -0.476953 0)
(0.758425 -0.44401 0)
(1.1664 -0.919045 4.45921e-20)
(0.953744 -1.81847 4.41513e-20)
(0.968853 -1.30541 0)
(0.363308 0.69204 0)
(-1.23524 1.32475 4.29936e-20)
(-2.43728 1.16738 0)
(-3.61283 1.07705 0)
(-4.63457 0.942767 -4.09316e-20)
(-5.55574 0.827715 0)
(-6.35888 0.713411 -3.92641e-20)
(-7.06797 0.614687 -7.68668e-20)
(-7.68437 0.525807 0)
(-8.22363 0.449735 0)
(-8.69077 0.383331 0)
(-9.09605 0.326144 0)
(-9.44411 0.275967 0)
(-9.74125 0.23157 -6.82933e-20)
(-9.99062 0.191538 -6.71628e-20)
(-10.1959 0.155041 -6.61244e-20)
(-10.359 0.121395 0)
(-10.4822 0.090184 6.43245e-20)
(-10.5669 0.0612827 0)
(-10.6145 0.0347421 -6.2886e-20)
(-10.6266 0.0102535 -6.22929e-20)
(-10.6063 -0.0123335 0)
(-10.5557 -0.0330178 0)
(-10.4762 -0.0524526 0)
(-10.3686 -0.0706051 -6.06297e-20)
(-10.2348 -0.087495 0)
(-10.076 -0.103131 0)
(-9.89388 -0.117342 0)
(-9.69021 -0.130066 0)
(-9.46706 -0.141113 0)
(-9.22679 -0.150364 0)
(-8.97197 -0.157701 0)
(-8.70542 -0.163075 0)
(-8.42997 -0.166508 5.91323e-20)
(-8.14851 -0.168083 0)
(-7.86371 -0.167947 0)
(-7.57813 -0.166274 -5.87318e-20)
(-7.29404 -0.163262 -5.8577e-20)
(-7.01349 -0.159109 0)
(-6.73824 -0.154024 5.82257e-20)
(-6.46974 -0.148226 -5.80275e-20)
(-6.20913 -0.14196 0)
(-5.95708 -0.135502 5.75849e-20)
(-5.71376 -0.129161 0)
(-5.4788 -0.123269 0)
(-5.25118 -0.118176 -5.68184e-20)
(-5.02922 -0.114238 0)
(-4.81054 -0.111817 5.62616e-20)
(-4.59198 -0.111257 0)
(-4.36971 -0.112819 -5.56947e-20)
(-4.1395 -0.116611 -5.54148e-20)
(-3.89714 -0.122545 -5.51398e-20)
(-3.6388 -0.130316 -1.09741e-19)
(-3.3614 -0.13941 1.09211e-19)
(-3.063 -0.149123 0)
(-2.74309 -0.158598 0)
(-2.4027 -0.166947 0)
(-2.04453 -0.173476 1.07038e-19)
(-1.67275 -0.177749 1.06427e-19)
(-1.29241 -0.179234 -1.05766e-19)
(-0.908155 -0.177832 0)
(-0.524505 -0.174235 1.04274e-19)
(-0.147002 -0.168634 1.03434e-19)
(0.220443 -0.162335 1.02479e-19)
(0.576764 -0.15481 0)
(0.920746 -0.146641 0)
(1.25053 -0.137914 0)
(1.56465 -0.128622 9.81041e-20)
(1.8616 -0.118754 0)
(2.13983 -0.108364 0)
(2.39793 -0.097595 -9.46237e-20)
(2.63483 -0.0866657 0)
(2.84998 -0.0758408 0)
(3.0434 -0.0653888 -9.11209e-20)
(3.21569 -0.055541 0)
(3.36796 -0.0464497 0)
(3.50164 -0.0381683 8.7686e-20)
(3.61826 -0.0306549 8.65645e-20)
(3.71923 -0.0238039 0)
(3.80576 -0.0174824 -8.43607e-20)
(3.87874 -0.0115987 0)
(3.93895 -0.00610058 8.22089e-20)
(3.98698 -0.00104084 0)
(4.02372 0.00350028 8.01072e-20)
(4.04986 0.00745822 7.90744e-20)
(4.06674 0.0106649 0)
(4.07562 0.0132934 0)
(4.07699 0.0155282 0)
(4.07253 0.017221 0)
(4.06363 0.0183143 0)
(4.05138 0.0189785 0)
(4.03663 0.0193702 0)
(4.02 0.0195975 7.11926e-20)
(4.00187 0.0197643 -7.02497e-20)
(3.98246 0.0199555 0)
(3.96184 0.0202455 0)
(3.93995 0.0206874 0)
(3.91667 0.0212973 0)
(3.89182 0.0220305 -1.31308e-19)
(3.86529 0.0227808 0)
(3.83706 0.0234088 1.27735e-19)
(3.80725 0.0237794 -1.25969e-19)
(3.77614 0.0237907 0)
(3.74411 0.023385 0)
(3.71166 0.0225598 0)
(3.67927 0.0213707 1.19032e-19)
(3.64745 0.019913 1.17328e-19)
(3.61661 0.0182941 0)
(3.58706 0.0166111 1.13957e-19)
(3.55903 0.0149436 1.12288e-19)
(3.53265 0.0133521 -1.10631e-19)
(3.50797 0.0118764 0)
(3.48498 0.0105384 0)
(3.46363 0.00934535 -1.05725e-19)
(3.44382 0.00829496 0)
(3.42544 0.00738023 0)
(3.40838 0.006592 0)
(3.3925 0.00591827 0)
(3.3777 0.00534397 9.77587e-20)
(3.36384 0.0048543 9.61954e-20)
(3.35083 0.00443895 0)
(3.33857 0.00409319 9.30977e-20)
(3.32696 0.00381237 0)
(3.31589 0.00358634 0)
(3.30529 0.00339709 8.85217e-20)
(3.2951 0.00322608 0)
(3.28527 0.00306084 8.55168e-20)
(3.27581 0.0029027 0)
(3.26663 0.00276231 0)
(3.25777 0.00265638 8.10764e-20)
(3.249 0.00259888 0)
(3.24042 0.0025965 7.81601e-20)
(3.23154 0.00265915 0)
(3.22272 0.00277553 0)
(3.21298 0.00298153 0)
(3.20323 0.00322304 -7.24327e-20)
(3.19158 0.00363908 0)
(3.1799 0.00402151 6.9623e-20)
(3.16471 0.00484328 0)
(3.14922 0.00536516 0)
(3.12798 0.00713157 0)
(3.10422 0.00764902 0)
(3.07358 0.0119144 0)
(3.02909 0.0116988 0)
(2.98704 0.023334 0)
(2.88286 0.0197209 -1.17735e-19)
(2.83935 0.0561493 0)
(2.53415 0.0457244 0)
(-0.130833 1.05266 -1.68397e-19)
(-0.195675 0.499752 1.67325e-19)
(0.0834602 -0.551291 0)
(0.559758 -1.27711 -1.09647e-19)
(1.11278 -1.63641 0)
(1.66186 -1.74009 -5.40231e-20)
(2.17798 -1.66472 1.06572e-19)
(2.64053 -1.47705 1.05483e-19)
(3.02886 -1.2248 0)
(3.336 -0.938621 1.03343e-19)
(3.55206 -0.640977 5.14199e-20)
(3.68105 -0.346881 0)
(3.71419 -0.0704687 0)
(3.66762 0.180728 0)
(3.54662 0.397136 0)
(3.3683 0.576442 4.93825e-20)
(3.14221 0.7143 0)
(2.88715 0.815377 -9.72972e-20)
(2.6128 0.887642 0)
(2.3239 0.892805 0)
(2.04943 0.941124 9.55802e-20)
(1.78058 0.819101 0)
(1.53278 0.75293 -9.43281e-20)
(1.38594 0.744931 4.6796e-20)
(1.20746 0.268399 -4.64333e-20)
(0.940193 -0.28889 4.60858e-20)
(1.38259 0.00493889 4.56331e-20)
(1.59097 -0.642087 0)
(0.626349 -1.19219 0)
(-0.0542295 0.770709 -4.45716e-20)
(-2.084 2.0455 4.39012e-20)
(-3.44808 2.42918 0)
(-4.29524 2.78741 0)
(-5.22827 2.74884 -4.24873e-20)
(-5.87694 2.55455 0)
(-6.57058 2.31118 0)
(-7.12634 2.05332 4.0622e-20)
(-7.65901 1.80047 0)
(-8.10723 1.57075 -3.82377e-20)
(-8.51833 1.36243 7.65255e-20)
(-8.87471 1.18065 0)
(-9.19646 1.01977 0)
(-9.47922 0.879171 1.43118e-19)
(-9.73127 0.753782 1.40504e-19)
(-9.95155 0.641504 1.38028e-19)
(-10.143 0.538846 -6.74962e-20)
(-10.3052 0.444077 6.70946e-20)
(-10.439 0.355264 1.9761e-19)
(-10.5444 0.271462 -1.29714e-19)
(-10.6214 0.191847 -6.42987e-20)
(-10.67 0.116193 0)
(-10.6906 0.0444568 6.28779e-20)
(-10.6838 -0.0234599 -6.18662e-20)
(-10.6482 -0.0877857 0)
(-10.5842 -0.148144 0)
(-10.4923 -0.204776 0)
(-10.3742 -0.257602 6.06162e-20)
(-10.2306 -0.306546 0)
(-10.0633 -0.3515 -1.20008e-19)
(-9.87368 -0.392167 0)
(-9.66364 -0.428239 -1.1933e-19)
(-9.43518 -0.459307 0)
(-9.19058 -0.485015 1.18807e-19)
(-8.93241 -0.505098 0)
(-8.66341 -0.519468 -1.18346e-19)
(-8.3864 -0.528251 5.90076e-20)
(-8.10415 -0.531771 0)
(-7.81932 -0.530502 1.17621e-19)
(-7.53434 -0.524998 5.87084e-20)
(-7.25142 -0.515841 5.8554e-20)
(-6.97246 -0.503612 0)
(-6.69912 -0.488896 5.81603e-20)
(-6.43272 -0.4723 5.80067e-20)
(-6.17429 -0.454487 0)
(-5.92444 -0.436224 -5.75659e-20)
(-5.68329 -0.418377 1.14621e-19)
(-5.45043 -0.401905 0)
(-5.22479 -0.387831 5.68018e-20)
(-5.00465 -0.37722 0)
(-4.78758 -0.371169 -1.68695e-19)
(-4.5703 -0.370724 0)
(-4.34883 -0.376672 1.66976e-19)
(-4.11875 -0.389308 5.53979e-20)
(-3.87562 -0.408326 -5.50468e-20)
(-3.6154 -0.432799 -1.09544e-19)
(-3.33486 -0.461167 1.09009e-19)
(-3.03193 -0.491302 0)
(-2.70611 -0.5207 0)
(-2.35871 -0.546703 0)
(-1.99292 -0.566932 -3.2085e-19)
(-1.61326 -0.579804 -1.06379e-19)
(-1.22506 -0.584239 1.05719e-19)
(-0.833657 -0.580407 0)
(-0.443804 -0.569459 1.04155e-19)
(-0.0614735 -0.55289 -1.03381e-19)
(0.31051 -0.533622 -1.02415e-19)
(0.67213 -0.511467 0)
(1.02189 -0.487711 0)
(1.3587 -0.462587 0)
(1.68142 -0.435987 -9.80488e-20)
(1.98862 -0.407796 0)
(2.27871 -0.378103 1.9142e-19)
(2.55013 -0.347275 2.83667e-19)
(2.80167 -0.315903 -1.8676e-19)
(3.03266 -0.284715 0)
(3.24308 -0.254464 -9.10345e-20)
(3.43359 -0.225827 0)
(3.60538 -0.199289 -1.77522e-19)
(3.75998 -0.175076 8.76141e-20)
(3.89897 -0.153144 8.64963e-20)
(4.02378 -0.133238 0)
(4.13551 -0.115002 2.52935e-19)
(4.23492 -0.0981163 -1.66453e-19)
(4.32241 -0.0823634 -8.21654e-20)
(4.39844 -0.0676941 0)
(4.46334 -0.0541777 -8.00621e-20)
(4.51806 -0.0419353 -2.37074e-19)
(4.56354 -0.0311741 0)
(4.60097 -0.0219072 -1.53981e-19)
(4.6326 -0.0140984 -1.51979e-19)
(4.65944 -0.00785141 -1.49998e-19)
(4.68244 -0.00306264 0)
(4.70234 0.000535892 0)
(4.71978 0.00327256 0)
(4.73531 0.00535473 7.11302e-20)
(4.74936 0.00701023 7.01902e-20)
(4.76225 0.0083849 0)
(4.7743 0.00959849 1.36649e-19)
(4.78579 0.0107489 1.34808e-19)
(4.797 0.0119056 0)
(4.80815 0.0131027 1.31175e-19)
(4.81941 0.0143448 2.58753e-19)
(4.83083 0.0156002 -1.27596e-19)
(4.84235 0.016803 -1.25823e-19)
(4.85379 0.0178807 0)
(4.86487 0.0187621 0)
(4.8753 0.0193889 0)
(4.8848 0.0197224 -1.1888e-19)
(4.89317 0.0197511 1.17174e-19)
(4.90026 0.0194947 2.30963e-19)
(4.90601 0.0189903 -1.13801e-19)
(4.91046 0.0182853 1.12132e-19)
(4.91367 0.0174334 1.10475e-19)
(4.91577 0.016486 0)
(4.9169 0.0154886 0)
(4.9172 0.014479 -1.05573e-19)
(4.91682 0.0134859 0)
(4.91589 0.0125303 0)
(4.9145 0.0116271 2.01534e-19)
(4.91276 0.0107854 0)
(4.91073 0.0100088 9.76156e-20)
(4.90849 0.00929743 -9.60542e-20)
(4.90606 0.00864952 0)
(4.9035 0.00806424 9.29618e-20)
(4.90083 0.00754073 0)
(4.89807 0.00707617 0)
(4.89523 0.00666337 -8.83933e-20)
(4.89235 0.00629161 1.73778e-19)
(4.88942 0.00595172 -8.53937e-20)
(4.88645 0.0056387 0)
(4.8834 0.00536154 0)
(4.88029 0.00512823 8.0961e-20)
(4.87706 0.00496914 0)
(4.87374 0.00487983 7.80496e-20)
(4.87019 0.00491616 0)
(4.86646 0.00502015 0)
(4.86229 0.00533761 0)
(4.85778 0.00567549 7.23325e-20)
(4.85251 0.00645757 0)
(4.84652 0.00708639 -6.95275e-20)
(4.83939 0.00877192 0)
(4.8305 0.00972537 0)
(4.82037 0.0133686 1.30782e-19)
(4.80526 0.0145096 -1.2807e-19)
(4.7907 0.0227989 0)
(4.76097 0.0235367 0)
(4.74163 0.0439942 0)
(4.6746 0.0434679 3.52622e-19)
(4.65727 0.10003 0)
(4.49292 0.104512 -2.25015e-19)
(-0.0952662 1.09404 1.4604e-23)
(0.324403 -0.130797 -2.22614e-19)
(0.97529 -1.59165 0)
(1.5972 -2.46243 2.17936e-19)
(2.14134 -2.80973 0)
(2.61103 -2.80642 0)
(3.0177 -2.58854 -7.63308e-22)
(3.36243 -2.24473 -1.05137e-19)
(3.64302 -1.82747 -1.03237e-19)
(3.85549 -1.36965 -1.03114e-19)
(3.99398 -0.893242 0)
(4.05312 -0.420236 0)
(4.02676 0.0303201 9.97414e-20)
(3.91542 0.433258 1.98018e-19)
(3.71937 0.775562 -1.96774e-19)
(3.4601 1.03528 0)
(3.16074 1.22843 -1.94726e-19)
(2.84594 1.34633 9.7232e-20)
(2.5434 1.40946 0)
(2.22408 1.44434 -1.91839e-19)
(1.96366 1.32768 -9.55389e-20)
(1.66051 1.39774 1.8972e-19)
(1.47852 1.01069 9.43128e-20)
(1.10543 0.835964 0)
(1.16053 1.10733 -1.86225e-19)
(0.857254 -0.546045 -1.84995e-19)
(0.474355 -1.06408 0)
(-0.655558 1.15677 -1.81393e-19)
(-2.4756 2.52082 0)
(-3.49518 3.20512 -1.75702e-19)
(-4.67464 3.57044 -8.70457e-20)
(-5.35095 3.6768 0)
(-5.95994 3.76354 0)
(-6.37754 3.59253 0)
(-6.71074 3.34895 0)
(-7.03055 3.02295 0)
(-7.31369 2.70373 0)
(-7.60952 2.38759 -1.55384e-19)
(-7.89078 2.10617 2.29946e-19)
(-8.17558 1.84966 0)
(-8.44932 1.62571 0)
(-8.71546 1.42478 0)
(-8.96672 1.2462 -1.19159e-21)
(-9.20163 1.08312 -1.40595e-19)
(-9.41615 0.933119 -2.75237e-19)
(-9.60787 0.792103 2.70658e-19)
(-9.77437 0.658318 1.32742e-19)
(-9.91368 0.529835 -1.3165e-19)
(-10.0244 0.405911 8.15234e-22)
(-10.1053 0.286093 -1.27415e-19)
(-10.1556 0.170259 0)
(-10.1753 0.0578696 -1.24744e-19)
(-10.1654 -0.0507517 6.40714e-22)
(-10.1261 -0.154062 0)
(-10.0588 -0.25213 0)
(-9.96505 -0.344136 1.21189e-19)
(-9.8466 -0.430092 0)
(-9.70516 -0.509777 0)
(-9.54238 -0.5829 -1.19415e-19)
(-9.35989 -0.649109 -2.38833e-19)
(-9.15935 -0.707804 1.19394e-19)
(-8.94247 -0.758357 0)
(-8.71108 -0.800121 -1.18858e-19)
(-8.46712 -0.832615 0)
(-8.21272 -0.855635 -1.18033e-19)
(-7.95007 -0.869333 -1.1815e-19)
(-7.68145 -0.874217 2.35522e-19)
(-7.40914 -0.871067 1.17387e-19)
(-7.13544 -0.860824 0)
(-6.86263 -0.844485 -2.33936e-19)
(-6.59292 -0.823067 0)
(-6.32834 -0.797599 -3.49007e-19)
(-6.07059 -0.769117 -2.31871e-19)
(-5.82098 -0.738712 -2.3105e-19)
(-5.58031 -0.707594 2.30159e-19)
(-5.34888 -0.677179 -3.43838e-19)
(-5.12637 -0.649094 0)
(-4.91183 -0.625124 0)
(-4.70359 -0.607131 2.25957e-19)
(-4.49915 -0.597024 3.37254e-19)
(-4.29505 -0.596633 0)
(-4.08679 -0.607369 -1.11304e-19)
(-3.86932 -0.629797 0)
(-3.63749 -0.663436 3.30259e-19)
(-3.3866 -0.706697 2.56292e-22)
(-3.11282 -0.756787 -2.62103e-22)
(-2.81393 -0.809815 -2.16833e-19)
(-2.48966 -0.861278 0)
(-2.1419 -0.906536 2.14717e-19)
(-1.77491 -0.941302 1.97399e-22)
(-1.39462 -0.962739 0)
(-1.0079 -0.969128 0)
(-0.621424 -0.961095 0)
(-0.24061 -0.94048 -2.08329e-19)
(0.127757 -0.912515 0)
(0.482007 -0.878486 0)
(0.823743 -0.841366 0)
(1.15229 -0.802464 0)
(1.46818 -0.76183 0)
(1.77145 -0.718917 -1.95794e-19)
(2.06138 -0.673248 0)
(2.33664 -0.624844 -1.91329e-19)
(2.59558 -0.574311 -1.89012e-19)
(2.83658 -0.522726 1.86689e-19)
(3.05842 -0.471439 0)
(3.26061 -0.421852 1.82058e-19)
(3.44354 -0.375175 0)
(3.60851 -0.332221 1.77483e-19)
(3.75742 -0.293289 -1.75226e-19)
(3.89235 -0.258165 -5.18884e-19)
(4.0151 -0.226252 0)
(4.12697 -0.196789 -5.05717e-19)
(4.22857 -0.169097 -1.66374e-19)
(4.31996 -0.142815 0)
(4.40076 -0.117984 -3.24326e-19)
(4.47048 -0.0950027 -3.20156e-19)
(4.52887 -0.0744421 4.74066e-19)
(4.57629 -0.0567233 0)
(4.61387 -0.0420945 1.53973e-19)
(4.64335 -0.0305097 1.51974e-19)
(4.66682 -0.021582 4.49965e-19)
(4.68623 -0.0148066 0)
(4.70319 -0.00974852 0)
(4.7187 -0.00601061 0)
(4.73341 -0.0031334 1.42253e-19)
(4.7477 -0.000878215 0)
(4.76173 0.000916354 0)
(4.77566 0.00236312 -1.36649e-19)
(4.78968 0.00354388 -1.34809e-19)
(4.80398 0.00451813 0)
(4.81878 0.00533551 0)
(4.83427 0.00604424 -2.5875e-19)
(4.85052 0.00667821 0)
(4.86753 0.00724816 2.51645e-19)
(4.88515 0.00777172 2.48127e-19)
(4.90313 0.00824668 0)
(4.92114 0.00865778 0)
(4.93881 0.00899299 -2.37743e-19)
(4.9558 0.00924633 -1.97046e-24)
(4.97183 0.00941116 -1.39342e-24)
(4.98668 0.00947736 0)
(5.00024 0.00944184 -4.48486e-19)
(5.01245 0.00931079 0)
(5.02337 0.00909447 0)
(5.03305 0.00880762 0)
(5.04161 0.00846758 2.11117e-19)
(5.04917 0.00809176 0)
(5.05584 0.00769741 -4.09374e-19)
(5.06175 0.00730092 -2.01503e-19)
(5.06698 0.00691553 0)
(5.07162 0.00654951 -1.95198e-19)
(5.07575 0.00620699 0)
(5.07941 0.0058914 0)
(5.08266 0.00560724 -5.57669e-19)
(5.08553 0.00535885 3.65651e-19)
(5.08805 0.00514504 0)
(5.09027 0.00495952 3.53505e-19)
(5.09218 0.00479061 -1.73744e-19)
(5.09381 0.00463471 0)
(5.09514 0.00448988 0)
(5.09618 0.00437639 0)
(5.09692 0.00429962 -4.85666e-19)
(5.09737 0.00430485 0)
(5.09749 0.004377 -1.56067e-19)
(5.09734 0.0046052 0)
(5.09677 0.00490649 0)
(5.09591 0.00548899 0)
(5.09442 0.0060935 0)
(5.09262 0.00726051 0)
(5.0897 0.00826602 0)
(5.08654 0.0105412 -2.72479e-19)
(5.08125 0.0121192 0)
(5.07609 0.0167348 -1.30752e-19)
(5.06653 0.0191432 3.84096e-19)
(5.05836 0.0290121 0)
(5.04077 0.032815 0)
(5.02825 0.0553774 -2.4008e-19)
(4.99601 0.0636218 -2.34985e-19)
(4.97993 0.119943 2.29737e-19)
(4.93025 0.147656 2.24927e-19)
(0.0954 0.656018 3.36716e-19)
(0.97358 -1.57728 3.32697e-19)
(1.73787 -3.07001 2.18713e-19)
(2.30157 -3.6965 1.07517e-19)
(2.71611 -3.79569 0)
(3.04432 -3.60248 -2.10827e-19)
(3.32157 -3.24288 1.03242e-19)
(3.55901 -2.78154 0)
(3.75943 -2.25148 1.03147e-19)
(3.9172 -1.67022 0)
(4.02289 -1.05286 -2.00247e-19)
(4.06311 -0.420343 0)
(4.02607 0.198289 -9.97123e-20)
(3.90057 0.765622 -1.97912e-19)
(3.67684 1.24504 1.96652e-19)
(3.37043 1.60975 0)
(3.00456 1.84478 1.94631e-19)
(2.61808 1.97499 0)
(2.23067 2.03652 0)
(1.89504 1.99098 1.91857e-19)
(1.50742 1.95545 0)
(1.22809 1.75635 -3.32182e-22)
(0.990225 1.60612 0)
(0.412309 1.48854 0)
(0.756561 0.389922 1.46742e-22)
(-0.240427 1.02286 1.84839e-19)
(-1.96197 2.63141 1.81891e-19)
(-3.19834 3.69304 1.79757e-19)
(-4.26433 4.23464 0)
(-4.90708 4.48544 3.48339e-19)
(-5.49705 4.53356 0)
(-5.81678 4.45479 1.68477e-19)
(-6.14811 4.29228 0)
(-6.348 4.03001 0)
(-6.57254 3.73607 -1.61113e-19)
(-6.76497 3.41035 0)
(-6.97548 3.09584 1.5613e-19)
(-7.19015 2.7894 1.84692e-21)
(-7.41809 2.5093 -3.03774e-19)
(-7.65212 2.2493 2.96871e-19)
(-7.89098 2.01402 0)
(-8.12803 1.79658 0)
(-8.35994 1.59572 1.3947e-19)
(-8.58062 1.40579 0)
(-8.78635 1.22425 1.37239e-19)
(-8.97171 1.04771 -1.34985e-19)
(-9.13314 0.874812 -1.32879e-19)
(-9.26678 0.704448 0)
(-9.37021 0.536579 1.29166e-19)
(-9.44153 0.371675 1.27575e-19)
(-9.48114 0.210886 -2.50433e-19)
(-9.48938 0.0553892 1.24922e-19)
(-9.46485 -0.0936057 1.23803e-19)
(-9.40978 -0.235134 0)
(-9.32803 -0.368449 0)
(-9.22205 -0.493115 -1.21339e-19)
(-9.09519 -0.608729 0)
(-8.95019 -0.715149 0)
(-8.78976 -0.812198 2.3977e-19)
(-8.61612 -0.899635 2.39087e-19)
(-8.43109 -0.97708 0)
(-8.23603 -1.04401 0)
(-8.03191 -1.09986 0)
(-7.81942 -1.14413 0)
(-7.59905 -1.17657 2.3658e-19)
(-7.37119 -1.19725 -2.35724e-19)
(-7.13629 -1.20655 -2.35646e-19)
(-6.89497 -1.20511 -4.69946e-19)
(-6.64825 -1.19371 0)
(-6.39766 -1.17327 2.7126e-22)
(-6.14543 -1.14484 0)
(-5.89434 -1.1098 2.32693e-19)
(-5.64741 -1.06985 1.65313e-22)
(-5.40737 -1.02686 2.31116e-19)
(-5.1761 -0.982717 -2.30224e-19)
(-4.95443 -0.939325 1.04593e-22)
(-4.74212 -0.898805 0)
(-4.53804 -0.863561 -2.27035e-19)
(-4.34041 -0.836298 -2.26017e-19)
(-4.1467 -0.819985 -4.49525e-19)
(-3.95339 -0.817638 0)
(-3.75563 -0.831737 2.22212e-19)
(-3.54753 -0.863482 0)
(-3.32298 -0.912365 -4.39912e-19)
(-3.0762 -0.976065 2.18991e-19)
(-2.80247 -1.05028 -2.17898e-19)
(-2.49907 -1.12887 2.16831e-19)
(-2.16596 -1.20481 4.30872e-19)
(-1.80555 -1.27104 -2.14706e-19)
(-1.42363 -1.32071 2.13595e-19)
(-1.02822 -1.34964 0)
(-0.628666 -1.35484 -4.21853e-19)
(-0.233777 -1.33793 0)
(0.147079 -1.30319 -4.15869e-19)
(0.5082 -1.25765 4.12138e-19)
(0.848924 -1.20523 4.08169e-19)
(1.16936 -1.15125 -4.04029e-19)