/*--------------------------------*- C++ -*----------------------------------*\
  =========                 |
  \\      /  F ield         | OpenFOAM: The Open Source CFD Toolbox
   \\    /   O peration     | Website:  https://openfoam.org
    \\  /    A nd           | Version:  9
     \\/     M anipulation  |
\*---------------------------------------------------------------------------*/
FoamFile
{
    format      ascii;
    class       volScalarField;
    location    "0.024";
    object      k_0;
}
// * * * * * * * * * * * * * * * * * * * * * * * * * * * * * * * * * * * * * //

dimensions      [0 2 -2 0 0 0 0];

internalField   nonuniform List<scalar> 
12225
(
3.87207e-05
3.14311e-05
3.53206e-05
4.14202e-05
4.71516e-05
4.85765e-05
4.72051e-05
3.91634e-05
3.32751e-05
3.27574e-05
3.56947e-05
4.5638e-05
5.0916e-05
5.16352e-05
4.99044e-05
4.16933e-05
3.02482e-05
3.9714e-05
2.01683e-05
2.1184e-05
2.19228e-05
2.29919e-05
2.59593e-05
2.81768e-05
2.84527e-05
2.77806e-05
2.58089e-05
2.51659e-05
2.53187e-05
2.64779e-05
3.10012e-05
3.77009e-05
4.05237e-05
4.05304e-05
4.00219e-05
3.80738e-05
2.00117e-05
1.55904e-05
1.44647e-05
1.44412e-05
1.46611e-05
1.55373e-05
1.64212e-05
1.67304e-05
1.67942e-05
1.685e-05
1.6963e-05
1.7238e-05
1.83081e-05
1.93979e-05
2.04286e-05
2.24772e-05
2.43539e-05
2.4929e-05
2.01514e-05
1.99456e-05
1.92873e-05
1.8896e-05
1.89149e-05
1.89779e-05
1.90237e-05
1.90219e-05
1.89938e-05
1.89086e-05
1.86605e-05
1.79271e-05
1.73295e-05
1.70664e-05
1.70578e-05
1.71144e-05
1.72945e-05
1.74848e-05
2.09713e-05
2.04432e-05
2.04466e-05
2.10111e-05
2.22099e-05
2.78715e-05
3.04957e-05
2.79499e-05
2.47049e-05
2.40327e-05
2.39214e-05
2.38118e-05
2.35082e-05
2.25737e-05
2.17245e-05
2.09904e-05
2.05677e-05
2.0156e-05
2.08053e-05
2.05439e-05
2.06726e-05
2.07387e-05
2.08227e-05
2.1137e-05
2.12854e-05
2.12611e-05
2.13904e-05
2.22531e-05
2.32361e-05
2.36228e-05
2.36325e-05
2.35102e-05
2.3535e-05
2.41337e-05
2.66383e-05
3.3875e-05
2.09761e-05
2.07018e-05
2.06488e-05
2.04275e-05
2.02604e-05
2.02508e-05
2.03634e-05
2.10241e-05
2.37379e-05
3.21058e-05
3.91001e-05
4.04752e-05
3.72095e-05
3.01342e-05
2.7313e-05
2.67367e-05
2.70629e-05
2.96552e-05
2.04859e-05
2.31578e-05
2.36318e-05
2.28058e-05
2.15386e-05
2.15935e-05
2.40807e-05
4.02266e-05
0.000119921
0.000240416
0.000278623
0.000271769
0.000206415
0.00011366
6.68722e-05
4.42847e-05
3.336e-05
2.94024e-05
2.00531e-05
2.23e-05
2.75933e-05
2.83175e-05
2.59519e-05
2.3551e-05
2.40232e-05
2.78575e-05
4.01818e-05
7.32295e-05
9.44081e-05
9.77558e-05
9.12352e-05
6.60333e-05
4.62035e-05
3.52595e-05
3.01364e-05
2.87602e-05
2.00572e-05
2.09243e-05
2.17955e-05
2.21512e-05
2.27224e-05
2.54417e-05
4.32018e-05
0.000141325
0.000219076
0.000218273
0.000164889
9.51654e-05
5.91635e-05
4.0298e-05
3.06276e-05
2.6216e-05
2.49523e-05
2.49946e-05
2.1811e-05
2.55436e-05
2.55294e-05
2.34032e-05
2.23332e-05
2.27734e-05
2.75961e-05
5.67494e-05
0.000145371
0.000185794
0.000186073
0.000162609
0.000104657
6.60761e-05
4.43357e-05
3.29664e-05
2.7059e-05
2.4452e-05
2.00897e-05
2.12207e-05
2.5473e-05
2.79166e-05
2.79106e-05
2.45895e-05
2.31684e-05
2.37841e-05
2.82982e-05
4.04761e-05
4.65417e-05
4.70321e-05
4.57951e-05
4.23084e-05
3.63164e-05
3.0847e-05
2.65845e-05
2.39825e-05
2.00488e-05
2.27786e-05
2.69341e-05
2.70974e-05
2.48047e-05
2.24593e-05
2.20284e-05
2.23373e-05
2.47173e-05
3.01361e-05
3.3421e-05
3.56853e-05
3.7794e-05
3.92641e-05
3.95436e-05
3.89184e-05
3.48435e-05
2.87771e-05
2.10439e-05
2.18868e-05
2.15108e-05
2.14742e-05
2.3055e-05
2.48939e-05
2.46916e-05
2.48518e-05
2.90354e-05
4.28409e-05
4.92726e-05
4.98673e-05
4.98061e-05
4.91561e-05
4.50069e-05
3.72344e-05
3.16212e-05
2.81892e-05
2.01866e-05
2.2384e-05
2.33541e-05
2.30873e-05
2.27562e-05
2.34888e-05
2.74152e-05
3.05259e-05
3.13249e-05
3.1086e-05
2.98993e-05
2.94273e-05
2.9437e-05
2.94181e-05
2.88263e-05
2.69427e-05
2.57353e-05
2.50908e-05
2.13131e-05
2.11036e-05
2.09267e-05
2.0957e-05
2.11564e-05
2.21888e-05
2.58509e-05
2.82332e-05
2.84484e-05
2.79656e-05
2.64357e-05
2.47377e-05
2.32649e-05
2.22968e-05
2.184e-05
2.17093e-05
2.17152e-05
2.1912e-05
2.06929e-05
2.04993e-05
2.0276e-05
2.02955e-05
2.05122e-05
2.11636e-05
2.15895e-05
2.16689e-05
2.16745e-05
2.16983e-05
2.16968e-05
2.15849e-05
2.12526e-05
2.10599e-05
2.10219e-05
2.10723e-05
2.13582e-05
2.1877e-05
2.01564e-05
2.04079e-05
2.07396e-05
2.08669e-05
2.09137e-05
2.11202e-05
2.24401e-05
2.34252e-05
2.33939e-05
2.30005e-05
2.27037e-05
2.25145e-05
2.23e-05
2.20996e-05
2.19893e-05
2.1958e-05
2.19496e-05
2.19267e-05
2.0063e-05
2.01832e-05
2.06938e-05
2.15344e-05
2.17952e-05
2.17092e-05
2.14266e-05
2.13584e-05
2.14366e-05
2.20113e-05
2.32131e-05
2.37271e-05
2.3774e-05
2.36296e-05
2.32169e-05
2.29984e-05
2.29634e-05
2.30283e-05
2.01286e-05
2.01408e-05
2.02786e-05
2.06013e-05
2.07764e-05
2.0796e-05
2.07083e-05
2.06945e-05
2.07817e-05
2.12888e-05
2.18514e-05
2.19954e-05
2.19744e-05
2.19599e-05
2.20881e-05
2.23544e-05
2.25138e-05
2.25911e-05
2.00564e-05
2.01126e-05
2.03369e-05
2.10149e-05
2.19208e-05
2.21483e-05
2.19918e-05
2.2053e-05
2.22701e-05
2.22806e-05
2.21188e-05
2.1724e-05
2.15233e-05
2.14633e-05
2.14615e-05
2.1495e-05
2.16296e-05
2.2083e-05
2.00651e-05
2.18527e-05
2.32931e-05
2.3196e-05
2.23433e-05
2.20618e-05
2.23161e-05
2.4441e-05
2.824e-05
2.95945e-05
2.94083e-05
2.73349e-05
2.4252e-05
2.25178e-05
2.16999e-05
2.14077e-05
2.13633e-05
2.14285e-05
2.01511e-05
2.14769e-05
2.22251e-05
2.19491e-05
2.18215e-05
2.28372e-05
2.67711e-05
2.77873e-05
2.76859e-05
2.71963e-05
2.50081e-05
2.2777e-05
2.1734e-05
2.13101e-05
2.1182e-05
2.11706e-05
2.12182e-05
2.13702e-05
2.0169e-05
2.07649e-05
2.12486e-05
2.14024e-05
2.14409e-05
2.16015e-05
2.25426e-05
2.53126e-05
2.68222e-05
2.6691e-05
2.44633e-05
2.23911e-05
2.14707e-05
2.11174e-05
2.10277e-05
2.1033e-05
2.1142e-05
2.16279e-05
2.29781e-05
2.18336e-05
2.03985e-05
2.02375e-05
2.04322e-05
2.14619e-05
2.46179e-05
2.58367e-05
2.51003e-05
2.31969e-05
2.21005e-05
2.1637e-05
2.14984e-05
2.14874e-05
2.15382e-05
2.16467e-05
2.17037e-05
2.17778e-05
2.21621e-05
2.12665e-05
2.04144e-05
2.0467e-05
2.09448e-05
2.14623e-05
2.16624e-05
2.15755e-05
2.14989e-05
2.1462e-05
2.14242e-05
2.13493e-05
2.11504e-05
2.09282e-05
2.07569e-05
2.06431e-05
2.05867e-05
2.05763e-05
2.31796e-05
2.11402e-05
2.07475e-05
2.04881e-05
1.98611e-05
1.95994e-05
1.95833e-05
1.96197e-05
1.96439e-05
1.96461e-05
1.96502e-05
1.96856e-05
1.97007e-05
1.96746e-05
1.95074e-05
1.88404e-05
1.81618e-05
1.79482e-05
2.00204e-05
1.95847e-05
1.82655e-05
1.77458e-05
1.72142e-05
1.57036e-05
1.41054e-05
1.34607e-05
1.33847e-05
1.34555e-05
1.3747e-05
1.43638e-05
1.49924e-05
1.54907e-05
1.60259e-05
1.64133e-05
1.68185e-05
1.72095e-05
2.0193e-05
2.44776e-05
3.3972e-05
3.55987e-05
3.36583e-05
2.72433e-05
2.39859e-05
2.33905e-05
2.36914e-05
2.58318e-05
2.88079e-05
2.9908e-05
3.00213e-05
2.97475e-05
2.9015e-05
2.88668e-05
2.89895e-05
2.94556e-05
5.3017e-05
0.000116653
0.000151218
0.000154483
0.000138066
8.80191e-05
5.81133e-05
4.65476e-05
4.40567e-05
4.4634e-05
4.7956e-05
5.01693e-05
5.09777e-05
5.16395e-05
5.29748e-05
5.6795e-05
7.01643e-05
8.50896e-05
0.000792696
0.00298811
0.0041509
0.00466823
0.00458712
0.00393717
0.00344044
0.00327198
0.00318376
0.00306576
0.00290395
0.00279664
0.00256551
0.00246441
0.00250439
0.00264714
0.00286515
0.00336426
0.00368301
0.00431952
0.00469813
0.00548439
0.00768403
0.0122267
0.0128672
0.0131618
0.0144612
0.0224082
0.0233218
0.0264097
0.0880766
0.0748328
0.0209015
0.0119721
0.0109804
0.0110541
0.0105911
0.00931487
0.00784808
0.00636718
0.00495342
0.00390427
0.00281265
0.00226053
0.00159146
0.00128799
0.000987662
0.000853581
0.000788081
0.000770112
0.000782677
0.000787621
0.000792519
0.0007943
0.000794682
0.000791997
0.000788169
0.000784953
0.000778307
0.00077215
0.000769281
0.000764959
0.000758166
0.000748975
0.000737857
0.00072399
0.000710155
0.00069549
0.000680896
0.000669248
0.000657722
0.000639744
0.000618258
0.00059347
0.00056718
0.000538779
0.000510012
0.000485339
0.000458856
0.000434505
0.000401935
0.000378496
0.00035756
0.000332079
0.000314879
0.00029383
0.000278375
0.000262521
0.000248562
0.000235707
0.000223957
0.000213089
0.000202987
0.000193514
0.000184545
0.00017597
0.00016762
0.00015915
0.00014947
0.000138658
0.000127192
0.000115452
0.000103517
9.14964e-05
7.98237e-05
6.89672e-05
5.91421e-05
5.03866e-05
4.26348e-05
3.58186e-05
2.9922e-05
2.4959e-05
2.08911e-05
1.76014e-05
1.49085e-05
1.26311e-05
1.06375e-05
8.8559e-06
7.26323e-06
5.85627e-06
4.64405e-06
3.62716e-06
2.79493e-06
2.12789e-06
1.60207e-06
1.19326e-06
8.79416e-07
6.41507e-07
4.63493e-07
3.31993e-07
2.36005e-07
1.66664e-07
1.16999e-07
8.16709e-08
5.66884e-08
3.9116e-08
2.68214e-08
1.82651e-08
1.2343e-08
8.26917e-09
5.487e-09
3.60313e-09
2.33987e-09
1.50185e-09
9.52373e-10
5.96502e-10
3.68968e-10
2.25399e-10
1.36012e-10
8.1094e-11
4.77919e-11
2.78526e-11
1.60598e-11
9.16647e-12
5.18172e-12
2.90245e-12
1.61158e-12
8.87306e-13
4.84545e-13
2.6249e-13
1.41088e-13
7.52633e-14
3.9867e-14
2.09903e-14
1.10058e-14
5.76862e-15
3.04357e-15
1.638e-15
9.18762e-16
5.54927e-16
3.72596e-16
2.83779e-16
2.41819e-16
2.25384e-16
2.22045e-16
2.22045e-16
7.24989e-16
4.67843e-13
4.25867e-10
3.77948e-07
0.000549921
0.00467643
0.00441444
0.00455484
0.00522622
0.00603523
0.00620823
0.00659214
0.00724895
0.00738149
0.00740265
0.00734595
0.00720988
0.00697799
0.00654669
0.00600085
0.00524744
0.00477958
0.00440276
0.00441034
0.00448582
0.00475287
0.00589306
0.00669445
0.00856828
0.00918257
0.0110001
0.0288652
0.0405687
0.0415792
0.0421952
0.0201061
0.00989552
0.00697916
0.00591068
0.00488307
0.00408666
0.00329865
0.00290448
0.00254357
0.00237165
0.00226931
0.0022248
0.00221336
0.00221453
0.00227634
0.00230283
0.00234649
0.00236731
0.00239825
0.0024205
0.0024501
0.00247217
0.00248697
0.00249473
0.00249877
0.00250013
0.00249775
0.00249362
0.00247791
0.00246738
0.00245724
0.00243604
0.00240972
0.00238212
0.00235312
0.00231761
0.00228638
0.00223955
0.00220296
0.00215412
0.00210815
0.00203485
0.00194717
0.00186301
0.00176542
0.00165912
0.00156537
0.00146431
0.00137653
0.00127281
0.00117889
0.00108644
0.000996992
0.000907979
0.000829221
0.000751158
0.000678652
0.00061148
0.000550624
0.000495759
0.000446849
0.000404287
0.000367638
0.000336437
0.000310189
0.000288177
0.000269796
0.000255014
0.0002427
0.000231708
0.000221276
0.000210752
0.000199203
0.000186156
0.000172387
0.000158173
0.000143655
0.000129247
0.000115396
0.000102373
9.02319e-05
7.89486e-05
6.85384e-05
5.91008e-05
5.07646e-05
4.35868e-05
3.75147e-05
3.24062e-05
2.8091e-05
2.44013e-05
2.1192e-05
1.8351e-05
1.58036e-05
1.35042e-05
1.14262e-05
9.55612e-06
7.88888e-06
6.42306e-06
5.15619e-06
4.08153e-06
3.18698e-06
2.45568e-06
1.86776e-06
1.40247e-06
1.03988e-06
7.61746e-07
5.51734e-07
3.95183e-07
2.7966e-07
1.9538e-07
1.34668e-07
9.1528e-08
6.13167e-08
4.04776e-08
2.63261e-08
1.68685e-08
1.06492e-08
6.62544e-09
4.06371e-09
2.45844e-09
1.46786e-09
8.65549e-10
5.04403e-10
2.90689e-10
1.65771e-10
9.3595e-11
5.23424e-11
2.90042e-11
1.59287e-11
8.67123e-12
4.67957e-12
2.50373e-12
1.32823e-12
6.9873e-13
3.64609e-13
1.88778e-13
9.70566e-14
4.95859e-14
2.52256e-14
1.28077e-14
6.52408e-15
3.37036e-15
1.77283e-15
1.01416e-15
5.75144e-16
4.24462e-16
3.21963e-14
3.3254e-11
2.94147e-08
0.000905964
0.00342368
0.00319562
0.00364584
0.00483817
0.0071181
0.00888412
0.0112829
0.0132402
0.0136735
0.0136579
0.0138501
0.0138014
0.0135626
0.0130268
0.011658
0.0106562
0.0087118
0.00692642
0.00585671
0.00497714
0.00490319
0.00517915
0.00612071
0.0116718
0.0276402
0.0313265
0.0319677
0.0318267
0.0183991
0.0101719
0.00615977
0.00447797
0.00380954
0.00350407
0.00325062
0.00312724
0.00301973
0.00297394
0.00295599
0.00304363
0.00308715
0.00318114
0.00322986
0.00329979
0.00332779
0.00337669
0.00341168
0.00345293
0.00347513
0.00349259
0.0035006
0.00350359
0.00350391
0.0034984
0.00349344
0.00347824
0.00346124
0.0034466
0.00343555
0.00341186
0.00338705
0.00337176
0.00335701
0.00334629
0.00334176
0.00333745
0.00333493
0.00332859
0.00331861
0.00330283
0.00328673
0.00325917
0.00321328
0.00313688
0.00304656
0.00293179
0.00281321
0.00269282
0.00257949
0.00246965
0.00237113
0.00226892
0.00216279
0.00203883
0.00190074
0.00175282
0.00159265
0.00142199
0.00124373
0.00106704
0.000899312
0.000751781
0.000629196
0.000522271
0.000433069
0.000363516
0.000312925
0.000277613
0.000253525
0.000236771
0.000224089
0.000213559
0.000204446
0.000195746
0.000185338
0.000172426
0.000157466
0.000141565
0.000126345
0.000113074
0.00010189
9.21678e-05
8.29643e-05
7.3466e-05
6.35008e-05
5.37479e-05
4.50923e-05
3.79548e-05
3.21689e-05
2.75069e-05
2.37701e-05
2.0771e-05
1.83235e-05
1.62614e-05
1.44589e-05
1.28289e-05
1.13165e-05
9.89353e-06
8.55199e-06
7.2971e-06
6.14009e-06
5.09256e-06
4.1628e-06
3.35398e-06
2.66381e-06
2.08536e-06
1.60873e-06
1.22275e-06
9.15633e-07
6.75314e-07
4.90459e-07
3.50729e-07
2.46915e-07
1.71108e-07
1.16708e-07
7.83516e-08
5.17822e-08
3.3701e-08
2.16109e-08
1.36651e-08
8.52944e-09
5.26181e-09
3.21187e-09
1.94054e-09
1.16043e-09
6.86832e-10
4.02363e-10
2.33297e-10
1.33873e-10
7.60199e-11
4.27145e-11
2.37469e-11
1.30627e-11
7.11003e-12
3.83028e-12
2.04253e-12
1.07879e-12
5.64409e-13
2.92816e-13
1.50638e-13
7.69647e-14
3.90757e-14
1.97441e-14
9.93094e-15
5.16725e-15
2.25946e-15
3.09306e-15
1.40454e-12
1.15586e-09
0.000564209
0.00211667
0.00266892
0.00406826
0.00647367
0.0110842
0.0134666
0.0158233
0.0181925
0.0190439
0.0190223
0.0191943
0.0196759
0.0194626
0.018705
0.0167762
0.0139035
0.0125211
0.0111616
0.0077001
0.00619905
0.00529107
0.00572399
0.0163505
0.0270287
0.0279776
0.0274667
0.0197111
0.0110312
0.00668984
0.00476366
0.0039827
0.00369125
0.0035769
0.00352456
0.00350166
0.00361854
0.0036756
0.00380928
0.00387609
0.00391271
0.00395603
0.00398799
0.00402006
0.00403431
0.00403861
0.00403699
0.00401973
0.00401139
0.00400922
0.00400083
0.00397661
0.00392467
0.00386727
0.00381991
0.00378499
0.00374591
0.00368637
0.00363166
0.0036035
0.00357207
0.00352705
0.00350961
0.00350313
0.00350206
0.003503
0.00350973
0.00352488
0.00354577
0.00355822
0.00356165
0.00355955
0.00354989
0.00353459
0.00349283
0.00342706
0.00334114
0.00323049
0.00312509
0.00301501
0.00291437
0.00282637
0.00275021
0.0026872
0.00262801
0.00256967
0.00250702
0.00243423
0.00234649
0.00223298
0.00208876
0.00191139
0.00169744
0.00145253
0.00119911
0.000948845
0.00071768
0.000532515
0.000404357
0.000317038
0.000262893
0.000231428
0.000213693
0.000203637
0.000198001
0.000194503
0.000190185
0.000184191
0.000176628
0.000167573
0.000157795
0.000148739
0.000141334
0.000135399
0.000129646
0.000122381
0.00011203
9.82402e-05
8.22776e-05
6.64135e-05
5.24758e-05
4.11008e-05
3.2232e-05
2.55229e-05
2.05221e-05
1.67896e-05
1.39498e-05
1.1713e-05
9.87156e-06
8.29139e-06
6.89482e-06
5.64347e-06
4.53587e-06
3.59098e-06
2.82022e-06
2.21427e-06
1.74548e-06
1.38145e-06
1.09474e-06
8.6544e-07
6.80032e-07
5.29584e-07
4.0793e-07
3.1041e-07
2.33145e-07
1.72622e-07
1.2585e-07
9.02901e-08
6.37326e-08
4.42609e-08
3.0247e-08
2.03439e-08
1.34702e-08
8.78289e-09
5.64242e-09
3.57351e-09
2.232e-09
1.37524e-09
8.36021e-10
5.01497e-10
2.96874e-10
1.73454e-10
1.00039e-10
5.69694e-11
3.20425e-11
1.78098e-11
9.78497e-12
5.31851e-12
2.86027e-12
1.52366e-12
8.04207e-13
4.19841e-13
2.19004e-13
1.10213e-13
6.15608e-14
2.51144e-14
3.17276e-14
2.61812e-14
2.022e-13
4.93388e-11
0.000387926
0.00200106
0.00310184
0.00617122
0.0102773
0.0144522
0.0165362
0.0192463
0.0233809
0.025939
0.0270553
0.0299476
0.0309082
0.0302619
0.028616
0.0251889
0.01877
0.0150131
0.0124795
0.0101601
0.00657859
0.00671195
0.0164102
0.0246647
0.0259249
0.0230132
0.0135166
0.00803694
0.00547234
0.00438923
0.00399418
0.00386655
0.00382434
0.00389597
0.00400285
0.00408401
0.00412103
0.00418701
0.00429257
0.0043989
0.00448388
0.00458791
0.00466773
0.00475838
0.00481569
0.00483787
0.00484272
0.0048197
0.00475751
0.00469528
0.00461798
0.0045353
0.00446919
0.00434107
0.00415053
0.004033
0.00396608
0.00385953
0.003732
0.00364931
0.00360344
0.00352187
0.00347762
0.00345548
0.00344689
0.00344627
0.00346217
0.00349896
0.0035427
0.00358039
0.00360079
0.00360934
0.00361071
0.00357913
0.00354571
0.00348174
0.00341851
0.00331534
0.003231
0.00313692
0.00305158
0.00297234
0.00289964
0.00282851
0.00276092
0.00270024
0.00263853
0.00257349
0.00250765
0.0024384
0.00235493
0.00225131
0.0021262
0.00197559
0.00179835
0.00159837
0.00137375
0.00111352
0.000834596
0.000588564
0.000410163
0.000301791
0.000238349
0.000204011
0.00018623
0.000177403
0.000174735
0.000174847
0.000174396
0.000170581
0.000161349
0.000151204
0.000141323
0.000133461
0.000128191
0.000124929
0.000122095
0.000117885
0.000110819
9.99686e-05
8.56509e-05
6.97664e-05
5.46302e-05
4.18191e-05
3.16622e-05
2.39783e-05
1.8387e-05
1.44281e-05
1.16524e-05
9.67402e-06
8.19775e-06
7.02368e-06
6.02341e-06
5.12603e-06
4.30746e-06
3.56657e-06
2.90859e-06
2.3371e-06
1.85137e-06
1.44677e-06
1.11611e-06
8.50106e-07
6.3904e-07
4.73808e-07
3.46252e-07
2.49364e-07
1.76993e-07
1.23815e-07
8.53802e-08
5.80634e-08
3.89735e-08
2.585e-08
1.69621e-08
1.10187e-08
7.08632e-09
4.5088e-09
2.83513e-09
1.75961e-09
1.07664e-09
6.4882e-10
3.84827e-10
2.24545e-10
1.28865e-10
7.27367e-11
4.03851e-11
2.20647e-11
1.18701e-11
6.29195e-12
3.29207e-12
1.70333e-12
8.71172e-13
4.44038e-13
2.32131e-13
1.06324e-13
8.83776e-14
8.51501e-14
8.64388e-13
9.3806e-13
8.04601e-12
1.07043e-11
0.000562166
0.00291083
0.00421241
0.00837833
0.0125367
0.0157787
0.0198706
0.0278372
0.0391947
0.0474717
0.0540597
0.0574997
0.0558735
0.0510503
0.0429579
0.0331512
0.0278587
0.0224701
0.0153533
0.00993647
0.00792223
0.0152385
0.0218661
0.0232127
0.0196749
0.0108695
0.0067685
0.0050219
0.00434329
0.00412346
0.00406322
0.0040877
0.00428768
0.00437709
0.00446798
0.00459216
0.0047823
0.00510043
0.00549193
0.00573396
0.00586372
0.00602174
0.00615802
0.00622273
0.00625113
0.00625523
0.00620726
0.00619419
0.00614574
0.00603509
0.00575139
0.00556398
0.0054672
0.00525634
0.00493547
0.00475304
0.00453391
0.00431466
0.00416731
0.00393082
0.0038268
0.00364862
0.0035646
0.00344605
0.00339698
0.00336662
0.0033592
0.00335929
0.00340169
0.00348567
0.00357826
0.00362703
0.00367346
0.00372782
0.00375179
0.00367483
0.00357296
0.00342681
0.00331218
0.00320618
0.00311392
0.00303298
0.00296444
0.00290984
0.00284787
0.00278158
0.00270105
0.00261325
0.00252458
0.0024444
0.0023678
0.0022778
0.00217211
0.0020445
0.00189275
0.00172452
0.00155151
0.00137673
0.00118997
0.000979886
0.000747896
0.000527838
0.000364012
0.000262765
0.000206836
0.000177819
0.000163834
0.000158116
0.000157653
0.000158873
0.00015894
0.000156336
0.000146463
0.000133778
0.000122853
0.000115166
0.000111031
0.000109554
0.000108939
0.000107843
0.000105241
9.81409e-05
8.53153e-05
7.0131e-05
5.44261e-05
4.03647e-05
2.91461e-05
2.07655e-05
1.48392e-05
1.08306e-05
8.19789e-06
6.47776e-06
5.31946e-06
4.48242e-06
3.81631e-06
3.23864e-06
2.71545e-06
2.24006e-06
1.81567e-06
1.44641e-06
1.13339e-06
8.74297e-07
6.64428e-07
4.97744e-07
3.67724e-07
2.67985e-07
1.92676e-07
1.36673e-07
9.56415e-08
6.60183e-08
4.49436e-08
3.01702e-08
1.9967e-08
1.3025e-08
8.37285e-09
5.30263e-09
3.30756e-09
2.03136e-09
1.22795e-09
7.30341e-10
4.27221e-10
2.45683e-10
1.38832e-10
7.70996e-11
4.21036e-11
2.26088e-11
1.1938e-11
6.16105e-12
3.17436e-12
1.61511e-12
8.33074e-13
6.85254e-13
8.42195e-13
1.42855e-12
3.66141e-12
7.42838e-12
3.06712e-11
2.99835e-11
4.20982e-11
4.06681e-11
0.000771317
0.00362635
0.00527944
0.010529
0.0138382
0.0203725
0.0334552
0.0538466
0.0813854
0.0960375
0.107857
0.105585
0.0995195
0.0934412
0.0810067
0.0588029
0.0389512
0.0223207
0.013664
0.0105914
0.0137291
0.0194203
0.0206355
0.0174292
0.00956079
0.00625301
0.00489696
0.00441213
0.00427303
0.00423681
0.0043964
0.00460297
0.00473095
0.00491938
0.00520657
0.00564537
0.00624281
0.00657897
0.00676133
0.00696721
0.00716555
0.00752267
0.00776739
0.00800405
0.00818619
0.00829565
0.00838056
0.00847526
0.00851431
0.00834882
0.00775683
0.00729919
0.00698539
0.00627774
0.00560693
0.00532365
0.0049204
0.00455492
0.00438457
0.00413933
0.00402511
0.00387309
0.00379659
0.00367574
0.00360155
0.00346577
0.00339806
0.0033385
0.00331417
0.00331123
0.00335723
0.00349406
0.00363599
0.00376912
0.00394032
0.00404518
0.00406383
0.00388795
0.00363096
0.00345101
0.00330918
0.00319702
0.00309788
0.00300618
0.00292812
0.00286498
0.00278245
0.00267671
0.00255309
0.00242519
0.00229343
0.00218155
0.00209933
0.00200585
0.00187961
0.00172325
0.0015545
0.00139036
0.00123057
0.0010664
0.00089572
0.000721124
0.000549332
0.000396864
0.000282919
0.000211764
0.000173249
0.000154353
0.000145997
0.000143943
0.000144816
0.000146161
0.000145952
0.00014265
0.000130815
0.000116452
0.000105254
9.80577e-05
9.45917e-05
9.36822e-05
9.36484e-05
9.36504e-05
9.33425e-05
9.15867e-05
8.4909e-05
6.86634e-05
5.18026e-05
3.71088e-05
2.56459e-05
1.7312e-05
1.16119e-05
7.91383e-06
5.60994e-06
4.20088e-06
3.32184e-06
2.7334e-06
2.29268e-06
1.92444e-06
1.59776e-06
1.30423e-06
1.04436e-06
8.20207e-07
6.32255e-07
4.78845e-07
3.56674e-07
2.61516e-07
1.88869e-07
1.34419e-07
9.43022e-08
6.52238e-08
4.44759e-08
2.98986e-08
1.98121e-08
1.29386e-08
8.32575e-09
5.27759e-09
3.29459e-09
2.02484e-09
1.22478e-09
7.28879e-10
4.266e-10
2.45454e-10
1.38789e-10
7.70845e-11
4.20246e-11
2.2517e-11
1.18733e-11
6.18917e-12
3.30356e-12
1.77745e-12
1.06463e-12
9.799e-13
1.13044e-12
1.63026e-12
3.47289e-12
5.82143e-12
1.68546e-11
1.79986e-11
1.96486e-11
2.40093e-11
0.00104904
0.00429147
0.00644189
0.0121748
0.0185228
0.0325458
0.0559758
0.0900604
0.118198
0.128972
0.136972
0.134724
0.119032
0.102494
0.0824543
0.0576985
0.034827
0.0187043
0.0136871
0.0133476
0.0174797
0.0185723
0.0162974
0.00901268
0.0060004
0.00486134
0.00447447
0.00437549
0.0043552
0.00451242
0.0048201
0.00510486
0.00542853
0.00596701
0.00671157
0.00744621
0.00777813
0.00803601
0.00839169
0.00895122
0.00974989
0.0107238
0.0118417
0.0132451
0.0147463
0.0161657
0.0173773
0.0179733
0.0181665
0.0174786
0.0163141
0.0145287
0.0131871
0.0113391
0.00886387
0.0077315
0.00654707
0.00534871
0.00482298
0.00426851
0.00404211
0.00386911
0.00376265
0.00370549
0.00367144
0.00365484
0.00359674
0.00352965
0.00339253
0.00329957
0.00327082
0.00328614
0.00336276
0.0035618
0.00385503
0.00411761
0.0042557
0.00429729
0.00419075
0.00394691
0.00369962
0.00349841
0.00335713
0.00324938
0.00314496
0.0030259
0.00291051
0.00278159
0.00263187
0.00246145
0.00227951
0.00208826
0.00189951
0.00176606
0.00168637
0.00158421
0.00143597
0.0012751
0.00113714
0.00101648
0.00088897
0.000746244
0.000601174
0.000469062
0.000357252
0.000269014
0.00020621
0.000167473
0.000146692
0.000136951
0.000133588
0.000133451
0.000134502
0.00013494
0.000134083
0.000128608
0.000113621
9.93566e-05
8.94327e-05
8.39063e-05
8.19139e-05
8.1772e-05
8.24443e-05
8.31784e-05
8.31648e-05
8.22111e-05
7.76697e-05
6.32084e-05
4.56611e-05
3.13484e-05
2.06791e-05
1.32563e-05
8.40414e-06
5.40199e-06
3.62421e-06
2.59504e-06
1.98906e-06
1.60403e-06
1.32587e-06
1.09875e-06
9.00344e-07
7.24522e-07
5.71109e-07
4.4085e-07
3.33497e-07
2.47514e-07
1.80426e-07
1.29307e-07
9.11814e-08
6.33009e-08
4.32816e-08
2.91532e-08
1.93466e-08
1.2649e-08
8.14698e-09
5.16846e-09
3.22889e-09
1.98592e-09
1.20214e-09
7.1595e-10
4.19364e-10
2.41493e-10
1.36661e-10
7.59731e-11
4.14572e-11
2.22115e-11
1.17095e-11
6.08867e-12
3.21871e-12
1.72841e-12
9.84881e-13
8.0663e-13
8.75171e-13
1.12468e-12
2.18623e-12
3.09331e-12
5.70103e-12
6.465e-12
7.01922e-12
8.87309e-12
0.00115684
0.00467278
0.00799495
0.0136479
0.0210967
0.0379583
0.0654568
0.102818
0.127644
0.13406
0.134302
0.126698
0.11061
0.0932185
0.0710351
0.0414255
0.0228376
0.015776
0.014526
0.0161611
0.016945
0.0154883
0.00879468
0.00592186
0.00486558
0.00452586
0.00445179
0.00447214
0.00474496
0.00527387
0.00581027
0.00640123
0.00734293
0.00857234
0.00923317
0.00953003
0.00974281
0.0103412
0.0113572
0.0131872
0.0156834
0.0190577
0.0233435
0.0283882
0.0335853
0.038216
0.0413494
0.0427068
0.0429385
0.0400748
0.0374225
0.0331119
0.02833
0.0250279
0.0196601
0.0155048
0.0128548
0.00920247
0.00747676
0.00565793
0.00478079
0.00425374
0.0038278
0.00364211
0.00352854
0.00348147
0.00352896
0.00355758
0.00352234
0.00345689
0.00332822
0.00327794
0.00325865
0.00325897
0.00334286
0.00362656
0.00403197
0.00427029
0.00434577
0.00429391
0.00416537
0.00400416
0.00383712
0.00368896
0.00356936
0.00344521
0.00329078
0.00310774
0.00288209
0.00263034
0.00238127
0.00212343
0.0018658
0.0016128
0.00139386
0.00127754
0.00121897
0.00109902
0.000935888
0.000805053
0.0007231
0.000654961
0.000568935
0.000468289
0.000370437
0.000288326
0.000225919
0.000182051
0.000153954
0.000137742
0.000129295
0.000125447
0.000124302
0.00012433
0.000124558
0.000124338
0.000122065
0.000112201
9.60424e-05
8.38434e-05
7.65227e-05
7.33225e-05
7.27283e-05
7.31952e-05
7.51524e-05
7.61321e-05
7.61094e-05
7.4924e-05
6.9267e-05
5.29341e-05
3.63303e-05
2.37472e-05
1.48937e-05
9.07007e-06
5.46284e-06
3.34375e-06
2.15017e-06
1.49147e-06
1.11958e-06
8.90033e-07
7.26836e-07
5.94887e-07
4.80797e-07
3.80994e-07
2.95255e-07
2.23727e-07
1.65902e-07
1.2054e-07
8.59187e-08
6.01446e-08
4.1385e-08
2.80104e-08
1.86564e-08
1.22322e-08
7.89598e-09
5.01822e-09
3.1398e-09
1.93373e-09
1.17202e-09
6.9888e-10
4.09878e-10
2.36341e-10
1.3393e-10
7.45603e-11
4.07619e-11
2.18601e-11
1.15299e-11
5.98533e-12
3.12333e-12
1.6652e-12
9.1537e-13
6.22963e-13
6.21219e-13
6.87704e-13
8.91749e-13
1.31016e-12
1.40266e-12
1.6313e-12
1.82447e-12
2.50309e-12
0.0011866
0.0048225
0.00890187
0.013948
0.0215934
0.0386262
0.0659249
0.0950791
0.109244
0.114126
0.114205
0.10122
0.0813294
0.0613382
0.0382897
0.0233832
0.0176364
0.0159517
0.0157288
0.0157989
0.0145093
0.00870088
0.00591182
0.00487408
0.00453939
0.00446488
0.00450724
0.00472355
0.00524111
0.0060298
0.00701323
0.00823042
0.00967742
0.0105255
0.010923
0.0113629
0.0123313
0.0142875
0.0174945
0.0221351
0.0290783
0.0383344
0.0497308
0.0621492
0.0738215
0.0824657
0.0868957
0.0885661
0.0863162
0.0803912
0.0706302
0.0636702
0.0511011
0.0435067
0.0367294
0.0286625
0.0237362
0.0180592
0.0129121
0.0095859
0.00697031
0.0056392
0.00471024
0.00415665
0.00370375
0.00343787
0.00335914
0.00339692
0.00350268
0.00356743
0.00364625
0.00361146
0.00345446
0.00330406
0.00316331
0.00306215
0.00304144
0.00327025
0.00365348
0.00397748
0.00408294
0.00401532
0.00388754
0.00375499
0.00364858
0.00357041
0.00350915
0.00343391
0.00332646
0.00313435
0.00279238
0.0023601
0.00196467
0.00162332
0.00132927
0.00106735
0.000874876
0.000804808
0.000771857
0.000662488
0.000524005
0.000444414
0.000409335
0.000380827
0.000335021
0.000279466
0.00022641
0.000184452
0.000155767
0.000138274
0.000128309
0.00012255
0.000118964
0.000116841
0.000115954
0.000115629
0.000115168
0.000113717
0.000107996
9.30718e-05
7.9748e-05
7.12655e-05
6.71914e-05
6.61427e-05
6.63807e-05
6.84865e-05
7.08455e-05
7.13983e-05
7.10548e-05
6.84005e-05
5.74066e-05
3.95819e-05
2.57034e-05
1.59127e-05
9.47257e-06
5.49026e-06
3.16047e-06
1.86227e-06
1.16563e-06
7.96269e-07
5.93029e-07
4.68423e-07
3.79214e-07
3.06705e-07
2.44275e-07
1.90333e-07
1.44783e-07
1.0753e-07
7.80558e-08
5.54536e-08
3.86084e-08
2.63736e-08
1.76933e-08
1.16661e-08
7.56382e-09
4.824e-09
3.02692e-09
1.86871e-09
1.135e-09
6.78107e-10
3.98421e-10
2.30144e-10
1.30657e-10
7.28682e-11
3.9915e-11
2.14569e-11
1.13192e-11
5.86977e-12
3.02547e-12
1.57976e-12
8.53183e-13
4.90709e-13
3.86513e-13
3.65683e-13
3.59315e-13
3.42462e-13
3.47338e-13
3.85232e-13
4.35792e-13
6.2398e-13
0.00107456
0.00471661
0.00907768
0.0126777
0.0174831
0.0265001
0.0403355
0.0597543
0.0700244
0.0732148
0.0709597
0.0536946
0.0403073
0.0322808
0.0225387
0.0184888
0.0167815
0.0159365
0.0152753
0.0137495
0.00864184
0.00595127
0.00487904
0.00452814
0.00444558
0.00450061
0.00472195
0.00536684
0.0062435
0.00706794
0.00807286
0.00965705
0.0113369
0.0123879
0.013154
0.014631
0.0174499
0.0217813
0.0284098
0.0403523
0.0574398
0.0804923
0.107584
0.131717
0.15202
0.166727
0.173928
0.176164
0.167988
0.156472
0.132404
0.110636
0.0885453
0.0664156
0.0526294
0.0421922
0.0340224
0.0283344
0.0217203
0.0152049
0.0104423
0.00715592
0.00557561
0.00466397
0.00416388
0.00379015
0.00349398
0.00338328
0.00343286
0.00354727
0.00376187
0.00405965
0.00432701
0.00424653
0.00383279
0.00333276
0.00294066
0.0026792
0.00255698
0.00256086
0.00274013
0.00288476
0.00287619
0.00280652
0.00276242
0.00280737
0.00297363
0.00318781
0.00330656
0.00333192
0.00325359
0.00299698
0.00238947
0.00177645
0.00134754
0.00102782
0.000771235
0.000574984
0.00046557
0.000439649
0.000413841
0.000331107
0.000263987
0.000234232
0.000227865
0.000223047
0.000205977
0.000177665
0.000152506
0.000134796
0.000125044
0.000120011
0.000116654
0.000113531
0.000110847
0.000109159
0.000108323
0.000107544
0.000105922
0.000101267
8.85852e-05
7.57314e-05
6.70804e-05
6.26875e-05
6.13922e-05
6.15005e-05
6.33617e-05
6.66476e-05
6.78088e-05
6.7743e-05
6.61023e-05
5.82159e-05
4.05691e-05
2.61727e-05
1.6019e-05
9.3813e-06
5.30487e-06
2.93593e-06
1.6263e-06
9.33308e-07
5.77137e-07
3.94072e-07
2.94554e-07
2.32681e-07
1.87255e-07
1.49773e-07
1.17527e-07
8.99903e-08
6.71446e-08
4.88427e-08
3.46827e-08
2.40766e-08
1.63631e-08
1.0901e-08
7.12592e-09
4.57438e-09
2.88528e-09
1.78883e-09
1.09034e-09
6.53415e-10
3.84967e-10
2.2294e-10
1.26877e-10
7.09367e-11
3.89474e-11
2.09942e-11
1.11073e-11
5.75467e-12
2.93966e-12
1.49003e-12
7.73168e-13
4.01158e-13
2.36365e-13
1.38085e-13
9.03543e-14
7.14058e-14
6.79817e-14
6.96169e-14
7.63393e-14
1.17756e-13
0.000936325
0.00391945
0.00824897
0.0119784
0.0160463
0.0218897
0.0286663
0.0376294
0.041956
0.0432877
0.0398753
0.0294099
0.0251455
0.0221005
0.018693
0.0172951
0.0161472
0.0151199
0.0131649
0.00877521
0.00604165
0.00491229
0.00450411
0.00440914
0.0044563
0.00464103
0.00520732
0.00609451
0.00717368
0.00864697
0.0108129
0.0135463
0.0158617
0.0171232
0.0187903
0.0220432
0.0266821
0.0341937
0.050019
0.0784117
0.116758
0.158072
0.197095
0.229367
0.254443
0.272245
0.280298
0.282491
0.270452
0.25409
0.225804
0.191802
0.14871
0.109756
0.0750407
0.05266
0.0402231
0.0319978
0.0271376
0.0222969
0.0159468
0.0100401
0.00661856
0.00490488
0.004159
0.00383304
0.00360468
0.00341545