/*--------------------------------*- C++ -*----------------------------------*\
  =========                 |
  \\      /  F ield         | OpenFOAM: The Open Source CFD Toolbox
   \\    /   O peration     | Website:  https://openfoam.org
    \\  /    A nd           | Version:  9
     \\/     M anipulation  |
\*---------------------------------------------------------------------------*/
FoamFile
{
    format      ascii;
    class       volScalarField;
    location    "0.024";
    object      pMean;
}
// * * * * * * * * * * * * * * * * * * * * * * * * * * * * * * * * * * * * * //

dimensions      [0 2 -2 0 0 0 0];

internalField   nonuniform List<scalar> 
12225
(
-4.23007
-4.78543
-5.07977
-5.19084
-5.23688
-5.26777
-5.29112
-5.30157
-5.29493
-5.26847
-5.22175
-5.15018
-5.05476
-4.92499
-4.76755
-4.56118
-4.33939
-4.08113
-4.46593
-4.81548
-5.08156
-5.2001
-5.24779
-5.27715
-5.29971
-5.31046
-5.30476
-5.27952
-5.2343
-5.16518
-5.0727
-4.94909
-4.79804
-4.60917
-4.40956
-4.24426
-4.49999
-4.82129
-5.07701
-5.20455
-5.25708
-5.28623
-5.30827
-5.3198
-5.3157
-5.2928
-5.25041
-5.18617
-5.09961
-4.98745
-4.85084
-4.69396
-4.53751
-4.42897
-4.64087
-4.86898
-5.08657
-5.2154
-5.27264
-5.30128
-5.32181
-5.33348
-5.33111
-5.31099
-5.2724
-5.21383
-5.13532
-5.03597
-4.91862
-4.79138
-4.67125
-4.58713
-4.75909
-4.90851
-5.09279
-5.22247
-5.28647
-5.31685
-5.33655
-5.34855
-5.34825
-5.33174
-5.29786
-5.24616
-5.17712
-5.09191
-4.99436
-4.89284
-4.80016
-4.7327
-4.83619
-4.95339
-5.10921
-5.23295
-5.30175
-5.33516
-5.35503
-5.36751
-5.36953
-5.35717
-5.32901
-5.28522
-5.22701
-5.15668
-5.07844
-4.9996
-4.92988
-4.88023
-4.94436
-5.01738
-5.13909
-5.25142
-5.32187
-5.35822
-5.37865
-5.39135
-5.39532
-5.38727
-5.36554
-5.3305
-5.28387
-5.22855
-5.16887
-5.11096
-5.06248
-5.03122
-4.97327
-5.05502
-5.16129
-5.26431
-5.33712
-5.37851
-5.40183
-5.4166
-5.42401
-5.42139
-5.40719
-5.38193
-5.34777
-5.30781
-5.26625
-5.22828
-5.20013
-5.18741
-5.09536
-5.13339
-5.21018
-5.29699
-5.3653
-5.40788
-5.43324
-5.44963
-5.4596
-5.46184
-5.45507
-5.43978
-5.41808
-5.39309
-5.36883
-5.34972
-5.34082
-5.34639
-5.14017
-5.17353
-5.2381
-5.31639
-5.38495
-5.43287
-5.46303
-5.48343
-5.49809
-5.50682
-5.50874
-5.50432
-5.49572
-5.4859
-5.4786
-5.47762
-5.48704
-5.51027
-5.19708
-5.23637
-5.29528
-5.36249
-5.42385
-5.46973
-5.50151
-5.52527
-5.5444
-5.55924
-5.56946
-5.57567
-5.57977
-5.58464
-5.59353
-5.60979
-5.6367
-5.67713
-5.31462
-5.29096
-5.32341
-5.38882
-5.45199
-5.50023
-5.53601
-5.56459
-5.58914
-5.61057
-5.62917
-5.6457
-5.66187
-5.68015
-5.70349
-5.73479
-5.77694
-5.83242
-5.31922
-5.33861
-5.38173
-5.43779
-5.49236
-5.53907
-5.57749
-5.61042
-5.64009
-5.6677
-5.69415
-5.72041
-5.74791
-5.77874
-5.81551
-5.86072
-5.91695
-5.98618
-5.31431
-5.37918
-5.43488
-5.48476
-5.53245
-5.57883
-5.62267
-5.6623
-5.69894
-5.7346
-5.77067
-5.80817
-5.84841
-5.89318
-5.94459
-6.00481
-6.07574
-6.15909
-5.48344
-5.47673
-5.50115
-5.54276
-5.59139
-5.64131
-5.68881
-5.73334
-5.7767
-5.82096
-5.86729
-5.91643
-5.96959
-6.02834
-6.09439
-6.16932
-6.25473
-6.35203
-5.48631
-5.53169
-5.56933
-5.60982
-5.65602
-5.70514
-5.75575
-5.80779
-5.86135
-5.91678
-5.97485
-6.03677
-6.1038
-6.17707
-6.25778
-6.34705
-6.44588
-6.55495
-5.6238
-5.62715
-5.65068
-5.69189
-5.74137
-5.79232
-5.84633
-5.90535
-5.96846
-6.03456
-6.10396
-6.17782
-6.25739
-6.34355
-6.43697
-6.53814
-6.64791
-6.76668
-5.83237
-5.77253
-5.75107
-5.77103
-5.81716
-5.87605
-5.93992
-6.00645
-6.07644
-6.15107
-6.23104
-6.31671
-6.40823
-6.50571
-6.60943
-6.71956
-6.83638
-6.95977
-5.7069
-5.74265
-5.78729
-5.83765
-5.89549
-5.96093
-6.0325
-6.10923
-6.19069
-6.2766
-6.36687
-6.46161
-6.56102
-6.66519
-6.77422
-6.88806
-7.0067
-7.12997
-5.76871
-5.78643
-5.82805
-5.88316
-5.94759
-6.01992
-6.09841
-6.18157
-6.26866
-6.35993
-6.45562
-6.55523
-6.65844
-6.76518
-6.8755
-6.98918
-7.10588
-7.22515
-5.82148
-5.81468
-5.84165
-5.90238
-5.98023
-6.06223
-6.14598
-6.23236
-6.32245
-6.41681
-6.51522
-6.61699
-6.72144
-6.82831
-6.93758
-7.04913
-7.16257
-7.27759
-5.73818
-5.76208
-5.81367
-5.89253
-5.98152
-6.07062
-6.16005
-6.25149
-6.34592
-6.4438
-6.54499
-6.64871
-6.75414
-6.86104
-6.96948
-7.07926
-7.19
-7.30113
-5.66546
-5.74569
-5.82993
-5.91402
-6.00044
-6.08955
-6.18146
-6.27622
-6.37319
-6.47239
-6.57403
-6.67769
-6.78269
-6.88863
-6.99537
-7.10263
-7.21009
-7.31732
-5.58932
-5.66764
-5.77407
-5.88575
-5.98894
-6.08448
-6.17885
-6.27578
-6.37579
-6.47812
-6.58193
-6.6866
-6.79179
-6.89736
-7.00329
-7.10938
-7.2152
-7.32038
-5.64296
-5.68305
-5.78046
-5.8959
-6.00104
-6.09561
-6.18935
-6.28702
-6.38835
-6.49151
-6.59543
-6.6997
-6.80418
-6.90881
-7.01342
-7.11774
-7.22125
-7.32344
-5.48119
-5.6001
-5.74177
-5.8766
-5.98941
-6.08632
-6.18171
-6.28191
-6.38585
-6.49096
-6.59592
-6.70049
-6.80486
-6.90916
-7.01321
-7.11663
-7.21904
-7.32005
-5.44214
-5.58565
-5.74894
-5.88729
-5.99502
-6.089
-6.18444
-6.28586
-6.39074
-6.49609
-6.6008
-6.70496
-6.80888
-6.91263
-7.01603
-7.11867
-7.22001
-7.31947
-5.36129
-5.53529
-5.72838
-5.87582
-5.98363
-6.07878
-6.17717
-6.28097
-6.38721
-6.49342
-6.59864
-6.70296
-6.80675
-6.91016
-7.01304
-7.11496
-7.21555
-7.31453
-5.3087
-5.52792
-5.73717
-5.88002
-5.98261
-6.07741
-6.17711
-6.28174
-6.38832
-6.49471
-6.6
-6.70418
-6.80772
-6.91079
-7.01336
-7.11478
-7.21471
-7.31244
-5.1414
-5.49808
-5.73816
-5.87578
-5.97567
-6.07166
-6.1727
-6.27796
-6.38492
-6.49162
-6.5971
-6.70126
-6.80464
-6.90748
-7.00982
-7.11089
-7.21036
-7.30689
-9.56455
-9.55879
-9.60583
-9.72957
-9.93653
-10.2243
-10.582
-10.9955
-11.4485
-11.921
-12.3888
-12.8252
-13.202
-13.4945
-13.6833
-13.7584
-13.7205
-13.5839
-13.3758
-13.1343
-12.9048
-12.7218
-12.6263
-12.5723
-12.6298
-12.676
-12.821
-13.0657
-13.2886
-13.5139
-13.8185
-14.4509
-15.6842
-17.4221
-19.5021
-21.7842
-24.1406
-26.4672
-28.677
-30.6999
-32.4783
-33.9659
-35.1263
-35.9331
-36.3696
-36.4282
-36.1098
-35.4248
-34.395
-33.0519
-31.4346
-29.5862
-27.5518
-25.3761
-23.1014
-20.7667
-18.4062
-16.05
-13.7228
-11.4449
-9.23171
-7.09375
-5.03705
-3.06348
-1.17157
0.642299
2.38255
4.05344
5.65805
7.19771
8.67186
10.0781
11.4126
12.6701
13.8447
14.9303
15.9218
16.8158
17.6113
18.3101
18.9161
19.4351
19.8738
20.2394
20.5393
20.7802
20.9684
21.1093
21.2077
21.2678
21.2933
21.2875
21.2537
21.1951
21.1151
21.0169
20.9042
20.7802
20.6481
20.511
20.3713
20.2313
20.0928
19.9571
19.8254
19.6985
19.5768
19.4607
19.3505
19.2462
19.1477
19.0549
18.9677
18.8858
18.809
18.737
18.6696
18.6065
18.5473
18.4919
18.4399
18.3913
18.3457
18.303
18.263
18.2254
18.1902
18.1571
18.1261
18.097
18.0696
18.044
18.0199
17.9974
17.9763
17.9564
17.9378
17.9204
17.904
17.8885
17.874
17.8603
17.8473
17.835
17.8233
17.8122
17.8016
17.7915
17.7818
17.7725
17.7636
17.755
17.7468
17.7388
17.7312
17.7239
17.7169
17.7102
17.7039
17.698
17.6926
17.6877
17.6834
17.6799
17.6775
17.6763
17.6766
17.6791
17.684
17.6926
17.7054
17.7247
17.7512
17.7901
17.8424
17.9199
18.0247
18.1873
18.4131
18.7679
-9.67091
-9.68992
-9.76693
-9.91855
-10.1474
-10.4515
-10.8247
-11.2573
-11.7351
-12.2392
-12.7451
-13.2248
-13.6483
-13.9868
-14.2175
-14.3248
-14.3024
-14.1555
-13.9066
-13.5944
-13.2665
-12.978
-12.7729
-12.6698
-12.691
-12.862
-13.0115
-13.4487
-14.1682
-15.0336
-15.7298
-16.5854
-17.916
-19.6625
-21.698
-23.8943
-26.1392
-28.3414
-30.4254
-32.3284
-33.9966
-35.3842
-36.4526
-37.1713
-37.519
-37.4852
-37.072
-36.2949
-35.1794
-33.7571
-32.0652
-30.1463
-28.0456
-25.8085
-23.4784
-21.0945
-18.6916
-16.2994
-13.9426
-11.641
-9.40977
-7.2593
-5.1953
-3.21911
-1.32833
0.481769
2.21708
3.88305
5.48387
7.02155
8.496
9.90493
11.2445
12.5093
13.6931
14.7892
15.7916
16.6962
17.5016
18.2093
18.8233
19.3494
19.7946
20.1663
20.472
20.7184
20.9119
21.0579
21.1612
21.2258
21.2554
21.2534
21.223
21.1674
21.09
20.9941
20.8832
20.7609
20.6303
20.4945
20.3561
20.2172
20.0798
19.9451
19.8144
19.6883
19.5674
19.4521
19.3425
19.2388
19.1408
19.0486
18.9618
18.8803
18.8038
18.7321
18.6649
18.602
18.5431
18.488
18.4363
18.388
18.3427
18.3002
18.2605
18.2232
18.1882
18.1553
18.1245
18.0956
18.0684
18.043
18.0191
17.9966
17.9756
17.9559
17.9374
17.92
17.9036
17.8882
17.8737
17.8601
17.8471
17.8348
17.8232
17.8121
17.8015
17.7914
17.7817
17.7724
17.7635
17.7549
17.7466
17.7387
17.731
17.7237
17.7167
17.71
17.7037
17.6977
17.6922
17.6873
17.683
17.6794
17.6768
17.6755
17.6757
17.6779
17.6826
17.6907
17.703
17.7213
17.7471
17.7836
17.8346
17.9055
18.0065
18.1438
18.3375
18.5421
-9.80142
-9.85515
-9.97957
-10.1731
-10.4377
-10.7751
-11.1843
-11.659
-12.1865
-12.7467
-13.3127
-13.8521
-14.3294
-14.7111
-14.9678
-15.0816
-15.0474
-14.8759
-14.5936
-14.235
-13.8413
-13.4615
-13.1606
-13.039
-13.0617
-13.3765
-14.0176
-14.7614
-15.6877
-16.8502
-18.1518
-19.5743
-21.1717
-22.9492
-24.8778
-26.9014
-28.9576
-30.9813
-32.91
-34.6837
-36.2459
-37.5446
-38.5335
-39.1745
-39.4409
-39.3205
-38.8154
-37.9357
-36.7008
-35.1455
-33.3145
-31.2573
-29.0245
-26.6652
-24.225
-21.7446
-19.2588
-16.7969
-14.3826
-12.035
-9.76866
-7.59374
-5.5156
-3.53465
-1.64689
0.154756
1.8789
3.53372
5.12571
6.65857
8.13301
9.5471
10.8969
12.1767
13.3793
14.4969
15.5218
16.4484
17.2742
18.0002
18.6306
19.1713
19.6299
20.014
20.3315
20.5892
20.7936
20.9499
21.063
21.1367
21.1748
21.1805
21.157
21.1075
21.0354
20.9442
20.8374
20.7187
20.5913
20.4584
20.3227
20.1864
20.0513
19.9189
19.7902
19.666
19.5469
19.4333
19.3252
19.2229
19.1262
19.0351
18.9495
18.869
18.7935
18.7228
18.6564
18.5943
18.5361
18.4816
18.4305
18.3827
18.3379
18.296
18.2566
18.2197
18.1851
18.1526
18.1221
18.0935
18.0667
18.0415
18.0178
17.9956
17.9748
17.9552
17.9368
17.9195
17.9033
17.888
17.8735
17.8599
17.847
17.8347
17.8231
17.812
17.8014
17.7913
17.7817
17.7724
17.7634
17.7549
17.7466
17.7386
17.731
17.7236
17.7166
17.7098
17.7035
17.6975
17.6919
17.6868
17.6824
17.6787
17.6759
17.6744
17.6742
17.676
17.6802
17.6876
17.699
17.7158
17.74
17.7732
17.8203
17.8829
17.9713
18.0803
18.2262
18.3462
-9.97273
-10.0554
-10.2187
-10.4519
-10.759
-11.1449
-11.6117
-12.1538
-12.7564
-13.3953
-14.0368
-14.6415
-15.1678
-15.5773
-15.8377
-15.9321
-15.8619
-15.6501
-15.3351
-14.9624
-14.5777
-14.256
-14.0409
-14.0517
-14.4336
-15.0134
-15.841
-16.893
-18.1255
-19.5186
-21.0538
-22.715
-24.4839
-26.3447
-28.2795
-30.2597
-32.2475
-34.1963
-36.0536
-37.7624
-39.2642
-40.5024
-41.4265
-41.9948
-42.1767
-41.9537
-41.3192
-40.2802
-38.8648
-37.1158
-35.0849
-32.8289
-30.4058
-27.8706
-25.2729
-22.6554
-20.053
-17.4938
-14.9996
-12.5878
-10.2721
-8.0627
-5.96492
-3.97843
-2.09708
-0.310535
1.39381
3.0287
4.60456
6.1278
7.60038
9.02063
10.3843
11.685
12.9147
14.0635
15.1216
16.0809
16.9372
17.6907
18.3455
18.9082
19.3867
19.7893
20.1242
20.3985
20.6187
20.79
20.9173
21.0044
21.0548
21.0718
21.0585
21.0182
20.9542
20.87
20.7695
20.6563
20.5339
20.4055
20.2739
20.1415
20.0101
19.8811
19.7556
19.6344
19.518
19.4068
19.3011
19.2008
19.1061
19.0167
18.9327
18.8537
18.7795
18.7099
18.6447
18.5835
18.5262
18.4726
18.4223
18.3752
18.331
18.2897
18.2509
18.2146
18.1805
18.1485
18.1184
18.0902
18.0637
18.0389
18.0155
17.9936
17.973
17.9536
17.9354
17.9183
17.9022
17.887
17.8727
17.8592
17.8463
17.8342
17.8226
17.8116
17.801
17.791
17.7813
17.7721
17.7632
17.7546
17.7463
17.7384
17.7307
17.7233
17.7163
17.7095
17.703
17.697
17.6913
17.6861
17.6816
17.6777
17.6747
17.6728
17.6723
17.6735
17.677
17.6834
17.6937
17.7087
17.7305
17.7601
17.8018
17.8555
17.9287
18.0131
18.1158
18.1794
-10.158
-10.2603
-10.4491
-10.7172
-11.0715
-11.5185
-12.0599
-12.6869
-13.3792
-14.1044
-14.8201
-15.477
-16.0274
-16.4266
-16.6452
-16.6781
-16.5513
-16.3092
-16.0052
-15.6941
-15.4281
-15.2615
-15.2933
-15.5926
-16.1913
-17.0694
-18.1743
-19.4664
-20.9094
-22.4758
-24.1539
-25.9371
-27.8118
-29.7595
-31.7584
-33.7836
-35.8033
-37.778
-39.6588
-41.3895
-42.9085
-44.1534
-45.0667
-45.5971
-45.7035
-45.3563
-44.5462
-43.2959
-41.6429
-39.6364
-37.3383
-34.8173
-32.1421
-29.3763
-26.5752
-23.7833
-21.0351
-18.3555
-15.7624
-13.2697
-10.8891
-8.63101
-6.50232
-4.50381
-2.62866
-0.863199
0.810741
2.413
3.96067
5.46462
6.92885
8.35167
9.72833
11.0519
12.3132
13.5003
14.6002
15.6016
16.4975
17.287
17.9741
18.566
19.0712
19.4986
19.8564
20.1523
20.3926
20.5828
20.7276
20.8311
20.8967
20.9276
20.9271
20.8983
20.8447
20.7699
20.6776
20.5718
20.4561
20.3338
20.2079
20.0807
19.9542
19.8298
19.7087
19.5914
19.4787
19.3709
19.2682
19.1708
19.0786
18.9917
18.9097
18.8327
18.7603
18.6923
18.6286
18.5688
18.5128
18.4603
18.4111
18.365
18.3218
18.2813
18.2433
18.2077
18.1743
18.1429
18.1134
18.0857
18.0597
18.0353
18.0124
17.9908
17.9705
17.9515
17.9336
17.9167
17.9008
17.8858
17.8716
17.8582
17.8455
17.8334
17.8219
17.811
17.8005
17.7905
17.7809
17.7717
17.7628
17.7543
17.746
17.7381
17.7304
17.723
17.7159
17.7091
17.7026
17.6964
17.6906
17.6853
17.6806
17.6764
17.6732
17.6709
17.6699
17.6705
17.6732
17.6785
17.6873
17.7002
17.7191
17.7446
17.7799
17.8242
17.8818
17.9438
18.0097
18.0338
-10.2885
-10.4008
-10.6041
-10.9011
-11.3019
-11.8128
-12.4321
-13.1447
-13.9209
-14.7176
-15.4818
-16.1593
-16.6971
-17.0517
-17.2076
-17.1868
-17.0338
-16.8084
-16.5796
-16.4062
-16.3339
-16.4288
-16.7512
-17.3355
-18.1948
-19.3023
-20.6113
-22.0856
-23.6951
-25.417
-27.2368
-29.1453
-31.1342
-33.1921
-35.3028
-37.4445
-39.587
-41.6909
-43.7054
-45.5695
-47.213
-48.5599
-49.5319
-50.0584
-50.0871
-49.5942
-48.5839
-47.076
-45.1161
-42.771
-40.1196
-37.2474
-34.2394
-31.1725
-28.1101
-25.1001
-22.1752
-19.3558
-16.652
-14.0689
-11.6113
-9.28785
-7.10857
-5.07938
-3.19626
-1.44446
0.198794
1.76032
3.26595
4.73481
6.17619
7.59032
8.97204
10.3138
11.6054
12.8324
13.9785
15.0278
15.9697
16.8015
17.527
18.1539
18.6916
19.1494
19.5361
19.8588
20.1239
20.3367
20.5021
20.6242
20.7067
20.7532
20.7668
20.7509
20.7092
20.6453
20.5631
20.4664
20.3591
20.2445
20.1258
20.0053
19.8851
19.7666
19.6508
19.5386
19.4305
19.327
19.2281
19.1342
19.0453
18.9612
18.882
18.8074
18.7372
18.6712
18.6093
18.5512
18.4967
18.4456
18.3977
18.3528
18.3106
18.2712
18.2341
18.1994
18.1668
18.1361
18.1073
18.0803
18.0549
18.031
18.0085
17.9873
17.9674
17.9487
17.9311
17.9145
17.8988
17.8841
17.8701
17.8568
17.8443
17.8323
17.821
17.8101
17.7998
17.7898
17.7803
17.7711
17.7623
17.7538
17.7455
17.7376
17.7299
17.7225
17.7154
17.7085
17.7019
17.6957
17.6898
17.6843
17.6793
17.675
17.6713
17.6686
17.667
17.6669
17.6687
17.6727
17.6797
17.6904
17.706
17.727
17.7554
17.7902
17.8327
17.8746
17.9105
17.907
-10.2435
-10.3561
-10.5646
-10.8785
-11.3098
-11.8637
-12.5333
-13.2943
-14.108
-14.9246
-15.6872
-16.339
-16.832
-17.1381
-17.2648
-17.2486
-17.1497
-17.0383
-16.9747
-17.0111
-17.1949
-17.5719
-18.1793
-19.0384
-20.1385
-21.4493
-22.9427
-24.5903
-26.3654
-28.2476
-30.2224
-32.2818
-34.4223
-36.6404
-38.9286
-41.2709
-43.6402
-45.9946
-48.2755
-50.4075
-52.3001
-53.8516
-54.959
-55.5346
-55.5173
-54.8813
-53.6299
-51.7964
-49.4423
-46.6538
-43.5342
-40.1951
-36.7455
-33.282
-29.8811
-26.5951
-23.4541
-20.4712
-17.6466
-14.9718
-12.4385
-10.0461
-7.80408
-5.72417
-3.80906
-2.048
-0.418256
1.11152
2.57499
4.00102
5.40809
6.80188
8.17831
9.52896
10.8426
12.1036
13.2925
14.389
15.3777
16.2531
17.0181
17.682
18.2553
18.7478
19.1681
19.5225
19.8168
20.056
20.245
20.388
20.4892
20.5522
20.5807
20.5786
20.5495
20.4974
20.4263
20.3401
20.2427
20.1374
20.0273
19.915
19.8024
19.6909
19.5817
19.4756
19.373
19.2745
19.1803
19.0906
19.0055
18.925
18.8489
18.7772
18.7096
18.6461
18.5864
18.5302
18.4775
18.428
18.3816
18.3381
18.2973
18.259
18.2231
18.1894
18.1577
18.1279
18.0999
18.0736
18.0489
18.0256
18.0037
17.983
17.9636
17.9453
17.9281
17.9118
17.8964
17.8819
17.8682
17.8552
17.8428
17.831
17.8198
17.8091
17.7988
17.789
17.7795
17.7704
17.7616
17.7532
17.745
17.737
17.7294
17.7219
17.7148
17.7079
17.7012
17.6948
17.6888
17.6832
17.678
17.6733
17.6693
17.6661
17.6639
17.6629
17.6636
17.6662
17.6714
17.6795
17.6916
17.7078
17.7292
17.7545
17.783
17.8072
17.8193
17.795
-9.945
-10.049
-10.2493
-10.5569
-10.9835
-11.5318
-12.1894
-12.9271
-13.704
-14.4713
-15.1775
-15.7718
-16.2232
-16.5282
-16.7044
-16.7924
-16.8503
-16.9389
-17.1109
-17.4091
-17.869
-18.5265
-19.4117
-20.5305
-21.8656
-23.3937
-25.0891
-26.924
-28.8751
-30.926
-33.0682
-35.3026
-37.6361
-40.0782
-42.633
-45.2926
-48.0302
-50.7956
-53.5126
-56.081
-58.3796
-60.2759
-61.6412
-62.3592
-62.3428
-61.5498
-59.9922
-57.7295
-54.848
-51.4645
-47.7186
-43.7582
-39.7253
-35.7426
-31.9031
-28.2646
-24.8524
-21.6692
-18.7037
-15.9339
-13.3336
-10.8852
-8.58872
-6.45669
-4.49875
-2.71004
-1.07081
0.450809
1.89184
3.28716
4.66419
6.03639
7.40212
8.7535
10.0794
11.3643
12.5865
13.7213
14.7494
15.6632
16.4653
17.1655
17.775
18.3041
18.7604
19.1495
19.4759
19.7443
19.9591
20.1251
20.2464
20.3272
20.3715
20.3835
20.3676
20.3279
20.2688
20.1942
20.108
20.0133
19.9134
19.8105
19.7068
19.6037
19.5021
19.403
19.3069
19.2142
19.1254
19.0406
18.9599
18.8834
18.8111
18.7427
18.6782
18.6174
18.5602
18.5063
18.4557
18.4081
18.3634
18.3215
18.2821
18.2452
18.2105
18.1779
18.1474
18.1186
18.0915
18.0661
18.0421
18.0195
17.9982
17.9781
17.9592
17.9414
17.9246
17.9087
17.8936
17.8794
17.866
17.8532
17.841
17.8294
17.8184
17.8078
17.7977
17.7879
17.7786
17.7696
17.7609
17.7524
17.7443
17.7364
17.7287
17.7213
17.7141
17.7071
17.7004
17.6939
17.6877
17.6819
17.6764
17.6714
17.667
17.6632
17.6603
17.6585
17.658
17.6591
17.6622
17.6677
17.6761
17.6874
17.7019
17.718
17.7338
17.7427
17.7358
17.6953
-9.39599
-9.4855
-9.66547
-9.94404
-10.3321
-10.8289
-11.4181
-12.071
-12.7532
-13.4252
-14.045
-14.5829
-15.0305
-15.3903
-15.6825
-15.9439
-16.2209
-16.5593
-16.9982
-17.5701
-18.3085
-19.2487
-20.4105
-21.7907
-23.3726
-25.1324
-27.0409
-29.0702
-31.2006
-33.4233
-35.7454
-38.1871
-40.7755
-43.5361
-46.4831
-49.6109
-52.8863
-56.2423
-59.5778
-62.7592
-65.6274
-68.0094
-69.7294
-70.6303
-70.6043
-69.6141
-67.6841
-64.8869
-61.3438
-57.2145
-52.6854
-47.9503
-43.1917
-38.564
-34.1811
-30.1082
-26.3647
-22.9386
-19.8028
-16.9212
-14.2518
-11.7591
-9.4264
-7.25912
-5.26716
-3.44826
-1.78448
-0.24692
1.19924
2.5901
3.95651
5.31694
6.67321
8.02011
9.34967
10.647
11.8882
13.046
14.0997
15.0431
15.8791
16.6162
17.2639
17.8311
18.3246
18.7489
19.108
19.4059
19.6474
19.837
19.9794
20.0788
20.1397
20.1667
20.1645
20.1381
20.0918
20.0298
19.9559
19.8733
19.7848
19.6928
19.5991
19.5053
19.4124
19.3212
19.2323
19.1463
19.0635
18.9842
18.9086
18.8366
18.7685
18.7039
18.6428
18.5852
18.5308
18.4795
18.4311
18.3857
18.3429
18.3028
18.265
18.2296
18.1963
18.1651
18.1357
18.108
18.082
18.0574
18.0343
18.0125
17.9919
17.9725
17.9541
17.9368
17.9205
17.905
17.8904
17.8765
17.8634
17.8509
17.8389
17.8276
17.8167
17.8063
17.7963
17.7867
17.7775
17.7686
17.7599
17.7516
17.7435
17.7356
17.7279
17.7205
17.7133
17.7063
17.6994
17.6929
17.6865
17.6805
17.6747
17.6694
17.6645
17.6602
17.6566
17.6538
17.652
17.6515
17.6526
17.6553
17.6599
17.6663
17.6741
17.6816
17.6861
17.6816
17.6596
17.6061
-8.66921
-8.74306
-8.89634
-9.1332
-9.46263
-9.88194
-10.3759
-10.9213
-11.4921
-12.0606
-12.6038
-13.1128
-13.5863
-14.0325
-14.4705
-14.9274
-15.4343
-16.0218
-16.719
-17.558
-18.5748
-19.7975
-21.2345
-22.8773
-24.7064
-26.6934
-28.806
-31.0195
-33.3235
-35.7276
-38.2618
-40.9694
-43.8988
-47.0895
-50.5585
-54.2923
-58.2409
-62.3133
-66.3749
-70.2514
-73.7396
-76.6212
-78.6822
-79.742
-79.6822
-78.4627
-76.1157
-72.7323
-68.4642
-63.515
-58.1219
-52.5297
-46.9651
-41.618
-36.627
-32.0686
-27.9565
-24.2617
-20.9368
-17.9288
-15.1817
-12.6438
-10.2838
-8.09449
-6.07912
-4.23297
-2.53834
-0.969645
0.503597
1.91335
3.28847
4.64723
5.99745
7.33907
8.6665
9.96478
11.2088
12.372
13.4372
14.4011
15.2676
16.0425
16.7313
17.3396
17.872
18.3319
18.7225
19.0482
19.3145
19.527
19.6904
19.8089
19.8869
19.9295
19.9419
19.9295
19.8971
19.8489
19.7885
19.7191
19.6432
19.5631
19.4806
19.397
19.3136
19.2311
19.1502
19.0715
18.9953
18.9221
18.8519
18.7851
18.7215
18.6611
18.6039
18.5497
18.4984
18.4499
18.4041
18.361
18.3204
18.2822
18.2462
18.2125
18.1807
18.1509
18.1228
18.0963
18.0714
18.0479
18.0257
18.0047
17.9849
17.9662
17.9485
17.9318
17.9159
17.901
17.8867
17.8733
17.8605
17.8483
17.8366
17.8255
17.8149
17.8047
17.7948
17.7854
17.7763
17.7675
17.7589
17.7506
17.7426
17.7347
17.7271
17.7197
17.7124
17.7053
17.6984
17.6917
17.6852
17.679
17.6729
17.6672
17.6619
17.657
17.6526
17.6488
17.6458
17.6436
17.6425
17.6424
17.6433
17.6449
17.6463
17.6458
17.6402
17.6242
17.5899
17.5261
-7.87727
-7.93816
-8.06434
-8.25798
-8.5277
-8.87146
-9.27844
-9.73211
-10.2153
-10.7122
-11.2136
-11.72
-12.2353
-12.7697
-13.3394
-13.9642
-14.6667
-15.471
-16.4051
-17.5007
-18.7861
-20.2761
-21.9703
-23.8553
-25.907
-28.0938
-30.3871
-32.7733
-35.2588
-37.8737
-40.6693
-43.7075
-47.0482
-50.7342
-54.7742
-59.1378
-63.7513
-68.4954
-73.2067
-77.6822
-81.689
-84.9784
-87.3084
-88.4734
-88.3403
-86.8695
-84.1068
-80.1623
-75.2129
-69.4978
-63.2991
-56.9065
-50.5871
-44.563
-38.9962
-33.9779
-29.5168
-25.5697
-22.0696
-18.9433
-16.1202
-13.5351
-11.1465
-8.93697
-6.90043
-5.02587
-3.2957
-1.68789
-0.178622
1.25624
2.64514
4.01008
5.36191
6.70204
8.02392
9.31261
10.5464
11.7045
12.7759
13.7587
14.655
15.4667
16.1956
16.8442
17.4145
17.9081
18.3275
18.6775
18.9652
19.1981
19.3813
19.519
19.6148
19.6739
19.702
19.7047
19.6872
19.6538
19.6081
19.5529
19.4906
19.4232
19.3526
19.28
19.2067
19.1335
19.0612
18.9902
18.9212
18.8545
18.7904
18.729
18.6704
18.6145
18.5614
18.5109
18.4631
18.4177
18.3747
18.3341
18.2959
18.2598
18.2258
18.1938
18.1637
18.1354
18.1087
18.0836
18.0598
18.0374
18.0162
17.9962
17.9772
17.9593
17.9423
17.9262
17.9109
17.8964
17.8827
17.8697
17.8572
17.8454
17.834
17.8232
17.8128
17.8028
17.7932
17.7839
17.7749
17.7662
17.7578
17.7496
17.7416
17.7338
17.7262
17.7187
17.7115
17.7043
17.6973
17.6905
17.6839
17.6774
17.6711
17.665
17.6591
17.6536
17.6484
17.6436
17.6393
17.6354
17.6321
17.6292
17.6265
17.6234
17.6189
17.611
17.5966
17.5707
17.5262
17.4541
-7.12799
-7.17842
-7.28201
-7.43834
-7.65687
-7.93755
-8.27553
-8.66094
-9.0841
-9.5381
-10.0239
-10.5447
-11.1074
-11.7229
-12.4059
-13.174
-14.0472
-15.0482
-16.2022
-17.5319
-19.0525
-20.7683
-22.6745
-24.7552
-26.9865
-29.3419
-31.8019
-34.3652
-37.0511
-39.9042
-42.9857
-46.3606
-50.0857
-54.194
-58.6798
-63.4988
-68.5662
-73.752
-78.8803
-83.7321
-88.053
-91.5689
-94.0162
-95.1783
-94.922
-93.216
-90.1177
-85.7451
-80.2887
-74.0144
-67.2379
-60.2761
-53.4235
-46.9238
-40.9528
-35.6085
-30.8953
-26.764
-23.1355
-19.9223
-17.039
-14.4136
-11.998
-9.76637
-7.70388
-5.79584
-4.027
-2.38331
-0.846442
0.609306
2.01504
3.39278
4.75109
6.08992
7.40318
8.67924
9.90307
11.061
12.1449
13.1508
14.0771
14.9222
15.6851
16.3661
16.9656
17.4848
17.9266
18.2967
18.6031
18.8541
19.0556
19.2116
19.3255
19.402
19.4469
19.4662
19.465
19.4477
19.4175
19.3772
19.3292
19.2752
19.2169
19.1558
19.0931
19.0296
18.9662
18.9035
18.842
18.7822
18.7244
18.6688
18.6155
18.5645
18.5158
18.4693
18.4251
18.383
18.3431
18.3052
18.2695
18.2357
18.2038
18.1738
18.1455
18.1188
18.0936
18.0698
18.0474
18.0261
18.006
17.987
17.9689
17.9518
17.9355
17.9201
17.9055
17.8916
17.8783
17.8657
17.8537
17.8422
17.8312
17.8207
17.8105
17.8008
17.7913
17.7822
17.7734
17.7649
17.7565
17.7484
17.7405
17.7328
17.7252
17.7178
17.7104
17.7033
17.6962
17.6893
17.6824
17.6757
17.6691
17.6626
17.6563
17.6501
17.6441
17.6383
17.6326
17.6271
17.6216
17.616
17.6098
17.6023
17.5922
17.5777
17.5554
17.521
17.4682
17.3893
-6.49007
-6.53281
-6.62091
-6.74915
-6.92791
-7.16031
-7.44697
-7.78443
-8.16999
-8.60275
-9.08767
-9.63178
-10.245
-10.9401
-11.7318
-12.6364
-13.6716
-14.8549
-16.2015
-17.7223
-19.4236
-21.3067
-23.3682
-25.5948
-27.9682
-30.4698
-33.0875
-35.8245
-38.7008
-41.7574
-45.0487
-48.6313
-52.5526
-56.842
-61.4934
-66.4657
-71.6775
-76.9957
-82.2348
-87.1622
-91.5124
-95.0078
-97.3888
-98.4508
-98.0702
-96.2169
-92.9401
-88.3668
-82.6951
-76.1989
-69.2036
-62.036
-54.9958
-48.3315
-42.2209
-36.7604
-31.9547
-27.7525
-24.0721
-20.8178
-17.8998
-15.2448
-12.8043
-10.5497
-8.46094
-6.52332
-4.72737
-3.06173
-1.50506
-0.0273526
1.39993
2.79299
4.15715
5.49374
6.80098
8.07253
9.29842
10.4675
11.57
12.5984
13.5478
14.4155
15.2002
15.902
16.5207
17.0575
17.5158
17.9027
18.2276
18.4982
18.719
18.8931
19.0244
19.1182
19.1806
19.2173
19.2335
19.233
19.2192
19.1944
19.1609
19.1206
19.075
19.0257
18.9738
18.9204
18.8663
18.8121
18.7584
18.7058
18.6546
18.6051
18.5573
18.5113
18.4672
18.425
18.3846
18.3461
18.3094
18.2745
18.2414
18.21
18.1804
18.1525
18.126
18.1011
18.0775
18.0552
18.0341
18.0141
17.9951
17.9771
17.96
17.9437
17.9283
17.9136
17.8996
17.8863
17.8736
17.8615
17.8499
17.8388
17.8281
17.8179
17.8081
17.7986
17.7894
17.7805
17.7718
17.7634
17.7552
17.7472
17.7394
17.7317
17.7241
17.7167
17.7094
17.7022
17.695
17.6879
17.6809
17.674
17.6671
17.6602
17.6534
17.6466
17.6398
17.6329
17.626
17.6188
17.6112
17.6029
17.5933
17.5817
17.5666
17.5459
17.5168
17.475
17.4152
17.3309
-5.97931
-6.02017
-6.10492
-6.21995
-6.37607
-6.57863
-6.83284
-7.14077
-7.50568
-7.93427
-8.4344
-9.01601
-9.69112
-10.4731
-11.3759
-12.4127
-13.595
-14.9313
-16.4266
-18.084
-19.907
-21.8992
-24.0604
-26.383
-28.8534
-31.4566
-34.1795
-37.0174
-39.9793
-43.0932
-46.4038
-49.9635
-53.8195
-58.0036
-62.5176
-67.3259
-72.3497
-77.4578
-82.4674
-87.1536
-91.2665
-94.547
-96.7532
-97.6946
-97.2518
-95.3952
-92.1676
-87.6778
-82.1257
-75.7861
-68.9714
-61.9947
-55.1419
-48.6496
-42.6864
-37.3405
-32.6177
-28.4702
-24.8201
-21.5763
-18.6534
-15.9854
-13.5294
-11.2593
-9.15673
-7.20897
-5.40484
-3.72714
-2.14934
-0.644191
0.807803
2.21726
3.59069
4.93326
6.24617
7.52494
8.76036
9.94071
11.0544
12.092
13.0485
13.9231
14.7172
15.4317
16.0659
16.6197
17.0961
17.5016
17.8452
18.1349
18.375
18.5677
18.7168
18.8283
18.9084
18.9629
18.9965
19.0131
19.0156
19.0065
18.9877
18.9611
18.9284
18.8909
18.8501
18.8069
18.7622
18.7168
18.6712
18.6261
18.5817
18.5384
18.4963
18.4556
18.4163
18.3784
18.342
18.3072
18.2738
18.242
18.2117
18.183
18.1557
18.1299
18.1055
18.0824
18.0605
18.0397
18.02
18.0013
17.9835
17.9666
17.9505
17.9352
17.9205
17.9066
17.8933
17.8807
17.8685
17.8569
17.8458
17.8351
17.8249
17.815
17.8054
17.7962
17.7872
17.7785
17.7701
17.7618
17.7538
17.7459
17.7381
17.7305
17.723
17.7156
17.7083
17.701
17.6938
17.6866
17.6794
17.6723
17.6651
17.6578
17.6505
17.6431
17.6355
17.6276
17.6194
17.6106
17.601
17.5901
17.5774
17.5618
17.5421
17.516
17.4809
17.4328
17.3671
17.2782
-5.59935
-5.6376
-5.72352
-5.83948
-5.99237
-6.18789
-6.4345
-6.73953
-7.11228
-7.56283
-8.10149
-8.73929
-9.4883
-10.3607
-11.3674
-12.5167
-13.8121
-15.2533
-16.8382
-18.5671
-20.4442
-22.4746
-24.6593
-26.9918
-29.4589
-32.0451
-34.7337
-37.5123
-40.3828
-43.3665
-46.4996
-49.8308
-53.4035
-57.2473
-61.3661
-65.7331
-70.2774
-74.8825
-79.3864
-83.5909
-87.2756
-90.2126
-92.1875
-93.0266
-92.6162
-90.9172
-87.9613
-83.8469
-78.7538
-72.9357
-66.6779
-60.2611
-53.9404
-47.9279
-42.3724
-37.3497
-32.8676
-28.887
-25.3408
-22.1537
-19.2574
-16.6004
-14.1494
-11.8833
-9.788
-7.84988
-6.04926
-4.36065
-2.7584
-1.2236
0.255577
1.68759
3.0802
4.43893
5.76424
7.05124
8.29113
9.47306
10.5858
11.62
12.5718
13.4437
14.2406
14.9648
15.6142
16.1866
16.6831
17.1084
17.47
17.7759
18.0314
18.2399
18.4057
18.535
18.6335
18.7063
18.7575
18.7908
18.8093
18.8154
18.8111
18.7981
18.7781
18.7526
18.7229
18.69
18.655
18.6184
18.5811
18.5435
18.5061
18.4691
18.433
18.3977
18.3633
18.3299
18.2977
18.2666
18.2367
18.208
18.1807
18.1546
18.1298
18.1063
18.084
18.0627
18.0426
18.0235
18.0052
17.9879
17.9713
17.9556
17.9405
17.9261
17.9124
17.8993
17.8867
17.8747
17.8632
17.8521
17.8415
17.8313
17.8214
17.8119
17.8026
17.7937
17.785
17.7765
17.7682
17.7602
17.7522
17.7445
17.7368
17.7293
17.7218
17.7144
17.7071
17.6998
17.6925
17.6852
17.6779
17.6705
17.6631
17.6554
17.6476
17.6396
17.6312
17.6224
17.6129
17.6025
17.591
17.5777
17.562
17.5429
17.5189
17.4881
17.4476
17.3941
17.3234
17.2307
-5.36099
-5.39451
-5.46934
-5.59432
-5.76171
-5.97396
-6.24231
-6.57821
-6.99295
-7.49567
-8.09575
-8.80291
-9.62706
-10.5762
-11.6555
-12.8672
-14.2101
-15.6798
-17.2708
-18.9799
-20.8071
-22.7544
-24.8213
-27.0062
-29.3025
-31.7043
-34.202
-36.7834
-39.4451
-42.1938
-45.0494
-48.0418
-51.2032
-54.5584
-58.1154
-61.8577
-65.7343
-69.6545
-73.4885
-77.0742
-80.2272
-82.7547
-84.4735
-85.2312
-84.9247
-83.5117
-81.0162
-77.5185
-73.1668
-68.1713
-62.7704
-57.2006
-51.6768
-46.3755
-41.419
-36.8708
-32.743
-29.0101
-25.6244
-22.5355
-19.7013
-17.0886
-14.6717
-12.4341
-10.3641
-8.44475
-6.64914
-4.94834
-3.32105
-1.75629
-0.247917
1.2101
2.62403
3.99807
5.33264
6.62394
7.86415
9.04292
10.1492
11.1746
12.1173
12.9835
13.7814
14.5148
15.1798
15.7705
16.2851
16.7272
17.1035
17.4213
17.688
17.9094
18.0905
18.2368
18.3533
18.444
18.5128
18.5631
18.5976
18.6189
18.629
18.6297
18.6225
18.6091
18.5907
18.5684
18.5432
18.5158
18.4868
18.457
18.4268
18.3965
18.3665
18.3368
18.3076
18.2789
18.251
18.2238
18.1975
18.1722
18.1479
18.1246
18.1024
18.0813
18.0611
18.0419
18.0236
18.0062
17.9896
17.9736
17.9584
17.9439
17.9299
17.9166
17.9037
17.8915
17.8797
17.8684
17.8575
17.847
17.8369
17.8272
17.8177
17.8086
17.7997
17.791
17.7826
17.7744
17.7663
17.7584
17.7506
17.743
17.7355
17.728
17.7206
17.7132
17.7059
17.6986
17.6913
17.6839
17.6764
17.6688
17.661
17.6531
17.6448
17.6362
17.627
17.6172
17.6066
17.5948
17.5814
17.5659
17.5474
17.5251
17.4973
17.4621
17.417
17.3588
17.2839
17.188
-5.18474
-5.20584
-5.28924
-5.44235
-5.654
-5.91995
-6.24875
-6.65074
-7.13384
-7.70338
-8.36358
-9.11844
-9.97253
-10.9299
-11.9938
-13.1645
-14.439
-15.8094
-17.2696
-18.8151
-20.4495
-22.1774
-24.0068
-25.9424
-27.9868
-30.1386
-32.3914
-34.7343
-37.1567
-39.653
-42.2258
-44.8879
-47.6577
-50.5523
-53.5779
-56.7233
-59.9531
-63.2015
-66.3716
-69.3388
-71.9583
-74.0767
-75.5463
-76.2435
-76.0833
-75.0224
-73.0717
-70.2846
-66.7705
-62.6905
-58.2338
-53.5907
-48.9329
-44.399
-40.0858
-36.0482
-32.3047
-28.8468
-25.6521
-22.6972
-19.9614
-17.4243
-15.068
-12.8803
-10.8475
-8.94664
-7.1489
-5.43133
-3.78236
-2.19713
-0.671694
0.799823
2.2248
3.60878
4.95233
6.25048
7.49376
8.66999