/*--------------------------------*- C++ -*----------------------------------*\
  =========                 |
  \\      /  F ield         | OpenFOAM: The Open Source CFD Toolbox
   \\    /   O peration     | Website:  https://openfoam.org
    \\  /    A nd           | Version:  9
     \\/     M anipulation  |
\*---------------------------------------------------------------------------*/
FoamFile
{
    format      ascii;
    class       volScalarField;
    location    "0.024";
    object      pPrime2Mean;
}
// * * * * * * * * * * * * * * * * * * * * * * * * * * * * * * * * * * * * * //

dimensions      [0 4 -4 0 0 0 0];

internalField   nonuniform List<scalar> 
12225
(
301143
298400
295115
291535
287793
283979
280152
276347
272585
268877
265224
261622
258058
254510
250944
247301
243463
239153
301183
298431
295139
291553
287808
283992
280163
276357
272595
268888
265236
261636
258075
254532
250976
247353
243568
239449
301308
298502
295191
291595
287841
284020
280188
276380
272618
268911
265262
261666
258112
254582
251047
247465
243773
239915
301503
298618
295278
291663
287897
284067
280229
276418
272655
268950
265305
261716
258174
254663
251160
247638
244066
240461
301722
298788
295407
291764
287979
284135
280289
276474
272709
269006
265367
261789
258264
254779
251320
247871
244431
241048
302022
299017
295583
291903
288091
284230
280372
276551
272785
269085
265453
261888
258385
254933
251526
248161
244851
241655
302432
299321
295815
292086
288240
284355
280482
276652
272884
269187
265565
262017
258539
255128
251780
248501
245314
242274
302905
299701
296114
292322
288430
284515
280622
276781
273010
269317
265706
262178
258731
255363
252078
248886
245812
242900
303553
300182
296485
292614
288668
284715
280797
276943
273167
269478
265880
262374
258960
255640
252419
249310
246337
243532
304303
300771
296943
292975
288959
284959
281011
277139
273357
269672
266088
262606
259228
255957
252800
249769
246884
244168
305220
301479
297491
293407
289310
285253
281268
277374
273585
269903
266333
262877
259535
256313
253217
250258
247450
244809
306210
302265
298093
293879
289690
285570
281544
277628
273829
270150
266593
263160
259852
256673
253630
250729
247983
245401
307476
303161
298771
294409
290117
285928
281856
277914
274103
270426
266881
263471
260195
257057
254062
251214
248522
245990
309100
304346
299665
295102
290672
286391
282261
278284
274457
270779
267248
263862
260621
257526
254581
251787
249147
246664
311051
305839
300801
295984
291383
286984
282779
278757
274909
271228
267709
264348
261143
258092
255196
252453
249864
247427
313858
307788
302235
297091
292269
287724
283425
279347
275471
271785
268277
264940
261770
258761
255911
253217
250674
248279
316888
310029
303902
298378
293306
288600
284197
280056
276149
272454
268955
265641
262503
259532
256724
254072
251570
249212
320388
312431
305662
299743
294420
289554
285051
280853
276918
273216
269727
266434
263325
260389
257618
255002
252535
250208
323140
314177
306951
300810
295356
290409
285864
281645
277705
274012
270542
267274
264195
261291
258552
255968
253530
251229
321255
313588
306886
300978
295658
290801
286313
282137
278235
274576
271136
267898
264847
261970
259256
256695
254277
251994
319354
312431
306273
300710
295609
290888
286493
282385
278531
274910
271501
268289
265261
262404
259708
257162
254758
252487
317311
311191
305549
300319
295430
290850
286553
282512
278709
275125
271746
268558
265549
262708
260026
257492
255098
252835
315388
310043
304854
299913
295215
290763
286552
282573
278814
275262
271908
268739
265746
262919
260247
257722
255336
253079
314017
309148
304289
299569
295021
290670
286529
282599
278875
275350
272015
268862
265882
263064
260400
257882
255501
253249
312947
308473
303859
299303
294864
290590
286502
282609
278911
275406
272086
268944
265973
263162
260504
257991
255614
253365
312245
307993
303551
299108
294749
290529
286479
282612
278933
275442
272132
268999
266033
263228
260574
258063
255689
253442
311824
307677
303343
298977
294670
290486
286460
282611
278946
275463
272161
269033
266072
263269
260618
258110
255737
253492
311462
307467
303213
298895
294620
290459
286449
282611
278953
275476
272178
269053
266095
263295
260645
258138
255766
253522
311209
307347
303141
298850
294593
290443
286442
282610
278957
275483
272188
269064
266107
263308
260659
258153
255782
253538
311102
307298
303111
298831
294582
290437
286439
282610
278958
275486
272191
269069
266112
263314
260665
258160
255788
253544
202392
202376
202343
202292
202223
202136
202030
201906
201763
201600
201420
201220
201003
200767
200514
200244
199957
199653
199331
198991
198632
198254
197855
197438
197000
196545
196069
195575
195066
194541
194000
193434
192836
192204
191540
190848
190131
189395
188644
187883
187115
186344
185572
184803
184037
183275
182515
181757
180998
180234
179463
178682
177887
177076
176247
175399
174531
173642
172733
171805
170857
169892
168909
167910
166895
165865
164821
163765
162695
161614
160521
159418
158305
157184
156055
154918
153776
152629
151477
150321
149161
147998
146831
145660
144485
143307
142125
140939
139749
138555
137357
136155
134948
133738
132524
131305
130083
128856
127625
126389
125150
123906
122658
121406
120151
118891
117627
116360
115089
113815
112537
111257
109973
108686
107396
106104
104809
103512
102212
100910
99606.4
98300.8
96993.5
95684.7
94374.4
93062.8
91750
90436.3
89121.8
87806.6
86491
85175
83858.8
82542.7
81226.7
79911.1
78596.1
77281.7
75968.3
74656
73345
72035.6
70727.8
69421.9
68118.1
66816.7
65517.8
64221.6
62928.4
61638.4
60351.9
59069
57790.1
56515.3
55245
53979.3
52718.6
51463.2
50213.3
48969.2
47731.2
46499.6
45274.8
44057
42846.6
41644
40449.5
39263.5
38086.4
36918.6
35760.6
34613
33476.3
32351.2
31238.5
30139.1
29054.5
27986.5
26938.7
25919.1
202464
202447
202414
202362
202293
202205
202098
201973
201828
201665
201482
201281
201061
200824
200569
200297
200008
199703
199380
199040
198681
198303
197905
197487
197050
196592
196117
195617
195092
194550
193996
193420
192814
192176
191508
190813
190095
189360
188610
187849
187083
186314
185544
184777
184014
183255
182499
181744
180988
180228
179460
178681
177889
177079
176252
175404
174537
173649
172740
171812
170864
169899
168916
167916
166902
165872
164829
163772
162703
161622
160530
159427
158314
157193
156063
154926
153784
152636
151483
150327
149167
148003
146836
145665
144490
143311
142128
140942
139752
138557
137359
136157
134951
133740
132526
131307
130084
128857
127626
126390
125151
123907
122659
121407
120151
118892
117628
116361
115090
113816
112538
111257
109973
108686
107396
106104
104809
103512
102212
100910
99606.6
98301
96993.7
95684.8
94374.5
93062.9
91750.1
90436.4
89121.9
87806.7
86491
85175
83858.9
82542.7
81226.7
79911.1
78596.1
77281.8
75968.3
74656
73345.1
72035.6
70727.8
69421.9
68118.1
66816.7
65517.8
64221.6
62928.4
61638.4
60351.9
59069
57790.1
56515.3
55245
53979.3
52718.6
51463.2
50213.3
48969.2
47731.2
46499.6
45274.8
44057
42846.6
41644
40449.4
39263.4
38086.3
36918.5
35760.5
34612.8
33476.1
32350.9
31238.1
30138.5
29053.6
27985.3
26936.3
25913.4
202610
202592
202558
202505
202435
202346
202237
202110
201963
201797
201612
201407
201185
200944
200686
200410
200119
199810
199485
199142
198782
198403
198005
197586
197147
196681
196192
195683
195151
194595
194017
193418
192794
192145
191472
190775
190057
189322
188572
187811
187045
186275
185506
184740
183978
183221
182469
181719
180968
180214
179452
178679
177890
177085
176260
175415
174548
173661
172753
171825
170877
169912
168929
167930
166915
165886
164844
163788
162719
161639
160547
159445
158332
157210
156080
154942
153799
152650
151497
150340
149179
148014
146846
145674
144498
143319
142136
140949
139758
138563
137364
136162
134955
133744
132529
131310
130087
128860
127629
126393
125153
123909
122661
121409
120153
118893
117629
116362
115091
113817
112539
111258
109974
108687
107397
106105
104810
103512
102213
100911
99606.9
98301.3
96994
95685
94374.7
93063.1
91750.3
90436.6
89122
87806.8
86491.1
85175.1
83858.9
82542.8
81226.8
79911.2
78596.1
77281.8
75968.4
74656.1
73345.1
72035.6
70727.8
69421.9
68118.1
66816.7
65517.8
64221.6
62928.4
61638.4
60351.9
59069
57790.1
56515.3
55245
53979.3
52718.6
51463.2
50213.3
48969.2
47731.2
46499.6
45274.7
44056.9
42846.5
41643.9
40449.3
39263.2
38086.1
36918.2
35760.2
34612.4
33475.5
32350.2
31237.1
30137.3
29051.9
27982.7
26931.9
25903.8
202830
202812
202777
202723
202651
202560
202450
202320
202170
202000
201811
201602
201375
201129
200866
200586
200290
199977
199646
199298
198933
198549
198145
197718
197266
196791
196292
195768
195222
194651
194058
193442
192802
192141
191457
190751
190027
189285
188530
187765
186994
186220
185449
184682
183922
183168
182421
181678
180936
180191
179438
178673
177892
177092
176271
175429
174565
173678
172771
171843
170896
169931
168948
167949
166935
165907
164865
163810
162742
161663
160572
159470
158357
157235
156104
154966
153821
152671
151516
150358
149196
148030
146861
145688
144511
143331
142147
140959
139767
138572
137372
136169
134961
133750
132535
131315
130092
128864
127632
126396
125156
123912
122664
121412
120155
118895
117631
116364
115093
113818
112540
111259
109975
108688
107398
106105
104810
103513
102213
100911
99607.4
98301.8
96994.4
95685.4
94375
93063.4
91750.6
90436.8
89122.2
87807
86491.3
85175.2
83859
82542.8
81226.9
79911.2
78596.2
77281.8
75968.4
74656.1
73345.1
72035.6
70727.8
69421.9
68118.2
66816.7
65517.8
64221.6
62928.4
61638.4
60351.9
59069
57790.1
56515.3
55245
53979.3
52718.6
51463.2
50213.3
48969.1
47731.1
46499.5
45274.7
44056.9
42846.4
41643.7
40449.1
39263
38085.8
36917.8
35759.7
34611.8
33474.7
32349.1
31235.7
30135.4
29049.1
27978.6
26925.3
25891.6
203128
203109
203073
203018
202944
202851
202738
202605
202452
202279
202085
201871
201638
201386
201117
200830
200527
200206
199867
199511
199135
198741
198325
197886
197422
196932
196418
195879
195317
194732
194124
193493
192839
192162
191464
190746
190008
189254
188487
187710
186928
186146
185368
184597
183837
183088
182349
181617
180887
180155
179415
178662
177891
177100
176285
175447
174585
173701
172794
171866
170919
169954
168971
167973
166959
165931
164890
163836
162770
161692
160603
159501
158389
157267
156135
154996
153849
152698
151541
150381
149218
148051
146880
145706
144528
143346
142161
140972
139779
138583
137383
136178
134970
133758
132542
131322
130098
128870
127638
126401
125161
123916
122668
121415
120158
118898
117634
116366
115095
113820
112542
111261
109976
108689
107399
106107
104811
103514
102214
100912
99608.1
98302.4
96994.9
95685.9
94375.4
93063.7
91750.9
90437.1
89122.5
87807.2
86491.4
85175.4
83859.2
82543
81227
79911.3
78596.2
77281.9
75968.5
74656.1
73345.1
72035.7
70727.9
69422
68118.2
66816.8
65517.8
64221.7
62928.5
61638.5
60351.9
59069
57790.1
56515.3
55245
53979.3
52718.6
51463.2
50213.2
48969.1
47731.1
46499.5
45274.6
44056.7
42846.3
41643.5
40448.9
39262.7
38085.4
36917.3
35759
34610.9
33473.6
32347.7
31233.8
30132.8
29045.6
27973.4
26917.3
25878.3
203505
203486
203448
203392
203316
203221
203105
202970
202813
202636
202437
202218
201978
201719
201441
201145
200831
200499
200149
199781
199393
198984
198553
198098
197618
197112
196582
196028
195449
194847
194222
193574
192903
192209
191493
190755
189998
189223
188434
187636
186835
186036
185246
184469
183709
182966
182238
181522
180812
180100
179379
178644
177888
177108
176302
175470
174611
173728
172822
171895
170948
169982
169000
168001
166987
165960
164919
163866
162802
161725
160637
159537
158426
157304
156172
155031
153883
152730
151572
150410
149245
148076
146903
145727
144548
143365
142178
140988
139794
138596
137395
136190
134981
133768
132551
131330
130106
128877
127644
126407
125166
123921
122672
121419
120162
118901
117637
116369
115097
113822
112544
111263
109978
108691
107401
106108
104813
103515
102215
100913
99608.9
98303.1
96995.6
95686.5
94376
93064.2
91751.3
90437.4
89122.8
87807.5
86491.7
85175.6
83859.3
82543.1
81227.1
79911.4
78596.3
77282
75968.5
74656.2
73345.2
72035.7
70727.9
69422
68118.3
66816.8
65517.9
64221.7
62928.5
61638.5
60351.9
59069.1
57790.1
56515.3
55245
53979.3
52718.6
51463.1
50213.2
48969.1
47731
46499.4
45274.5
44056.6
42846.1
41643.3
40448.6
39262.3
38084.9
36916.7
35758.2
34609.9
33472.3
32345.9
31231.5
30129.7
29041.3
27967.3
26908.4
25864.6
203965
203945
203906
203848
203770
203672
203555
203416
203256
203074
202870
202643
202395
202126
201838
201530
201204
200859
200495
200111
199707
199281
198833
198360
197862
197339
196791
196219
195623
195002
194358
193690
192998
192282
191541
190776
189989
189182
188360
187530
186698
185873
185064
184277
183516
182783
182072
181380
180697
180014
179322
178612
177878
177115
176321
175497
174643
173762
172857
171930
170983
170017
169034
168034
167020
165992
164952
163899
162835
161760
160674
159575
158465
157344
156212
155070
153921
152766
151606
150442
149275
148105
146931
145753
144571
143387
142198
141006
139811
138612
137410
136203
134993
133780
132562
131340
130115
128885
127652
126414
125173
123927
122678
121424
120167
118906
117641
116372
115100
113825
112547
111265
109980
108693
107402
106109
104814
103516
102216
100914
99609.9
98304
96996.4
95687.2
94376.6
93064.7
91751.8
90437.9
89123.1
87807.8
86492
85175.8
83859.5
82543.3
81227.2
79911.6
78596.4
77282.1
75968.6
74656.3
73345.3
72035.8
70728
69422.1
68118.3
66816.9
65517.9
64221.7
62928.5
61638.5
60352
59069.1
57790.1
56515.3
55245
53979.3
52718.6
51463.1
50213.2
48969
47730.9
46499.3
45274.3
44056.4
42845.9
41643
40448.2
39261.8
38084.3
36915.9
35757.3
34608.7
33470.7
32343.9
31228.8
30126.1
29036.5
27960.6
26898.8
25850.8
204509
204488
204447
204387
204306
204205
204084
203940
203775
203587
203375
203141
202883
202604
202303
201983
201643
201283
200904
200503
200082
199638
199170
198678
198161
197619
197052
196460
195844
195204
194538
193847
193130
192384
191610
190807
189977
189123
188252
187373
186495
185630
184791
183986
183222
182500
181816
181160
180519
179880
179231
178559
177856
177117
176341
175528
174680
173803
172899
171972
171024
170057
169074
168074
167059
166030
164989
163936
162872
161797
160711
159614
158506
157385
156254
155112
153961
152805
151643
150478
149309
148137
146961
145781
144598
143411
142221
141027
139830
138630
137426
136218
135007
133793
132574
131352
130125
128895
127661
126423
125180
123934
122684
121430
120172
118910
117645
116376
115104
113829
112550
111268
109983
108695
107404
106111
104816
103518
102218
100915
99611
98305
96997.3
95688
94377.3
93065.4
91752.3
90438.3
89123.6
87808.2
86492.3
85176.1
83859.8
82543.5
81227.4
79911.7
78596.6
77282.2
75968.7
74656.4
73345.4
72035.9
70728.1
69422.2
68118.4
66816.9
65518
64221.8
62928.6
61638.6
60352
59069.1
57790.1
56515.3
55245
53979.3
52718.6
51463.1
50213.1
48968.9
47730.9
46499.2
45274.2
44056.2
42845.6
41642.7
40447.8
39261.3
38083.6
36915.1
35756.2
34607.3
33469
32341.6
31225.9
30122.2
29031.2
27953.4
26888.9
25837.2
205140
205118
205075
205011
204926
204820
204693
204543
204369
204173
203952
203708
203440
203150
202837
202504
202149
201774
201378
200961
200521
200058
199571
199059
198522
197959
197372
196760
196124
195462
194773
194055
193305
192522
191703
190847
189958
189038
188097
187145
186199
185274
184388
183557
182789
182086
181439
180836
180257
179683
179095
178477
177818
177112
176359
175561
174723
173851
172949
172022
171073
170105
169120
168120
167104
166075
165033
163978
162913
161837
160751
159654
158547
157427
156296
155154
154003
152846
151683
150516
149346
148171
146993
145812
144626
143438
142245
141050
139851
138649
137444
136235
135023
133807
132588
131365
130137
128906
127671
126432
125189
123942
122691
121437
120178
118916
117650
116381
115108
113832
112553
111271
109986
108698
107407
106113
104818
103519
102219
100917
99612.3
98306.1
96998.3
95688.9
94378.1
93066.1
91752.9
90438.9
89124.1
87808.6
86492.7
85176.4
83860.1
82543.7
81227.6
79911.9
78596.8
77282.3
75968.9
74656.5
73345.5
72036
70728.2
69422.3
68118.5
66817
65518.1
64221.9
62928.7
61638.6
60352.1
59069.1
57790.2
56515.4
55245
53979.3
52718.6
51463.1
50213.1
48968.9
47730.8
46499
45274
44056
42845.3
41642.3
40447.4
39260.8
38082.9
36914.2
35755
34605.8
33467.1
32339.2
31222.6
30118
29025.7
27946
26879
25824.1
205862
205838
205792
205724
205634
205522
205386
205227
205044
204837
204606
204351
204072
203769
203444
203097
202728
202337
201923
201488
201029
200547
200040
199507
198950
198368
197762
197130
196473
195788
195073
194325
193538
192708
191833
190911
189943
188936
187900
186852
185813
184809
183863
182998
182226
181547
180951
180416
179918
179427
178918
178369
177765
177102
176378
175599
174772
173905
173006
172079
171130
170160
169173
168171
167155
166124
165081
164026
162959
161882
160794
159696
158588
157468
156338
155196
154046
152888
151725
150557
149385
148208
147028
145844
144657
143466
142272
141075
139874
138671
137464
136254
135041
133824
132603
131379
130150
128918
127682
126442
125198
123951
122699
121444
120185
118922
117656
116386
115113
113836
112557
111274
109989
108700
107409
106116
104820
103521
102221
100918
99613.7
98307.4
96999.4
95689.9
94379
93066.8
91753.6
90439.5
89124.6
87809.1
86493.1
85176.8
83860.4
82544
81227.9
79912.1
78596.9
77282.5
75969
74656.7
73345.7
72036.1
70728.3
69422.4
68118.6
66817.1
65518.2
64222
62928.7
61638.7
60352.1
59069.2
57790.2
56515.4
55245
53979.3
52718.5
51463
50213
48968.8
47730.7
46498.9
45273.9
44055.8
42845.1
41642
40446.9
39260.2
38082.1
36913.2
35753.8
34604.2
33465
32336.5
31219.3
30113.6
29019.9
27938.4
26869.1
25811.4
206683
206656
206607
206534
206437
206316
206172
206002
205808
205589
205346
205077
204785
204468
204129
203766
203380
202972
202542
202088
201611
201110
200585
200034
199459
198859
198234
197584
196907
196199
195458
194678
193852
192973
192036
191037
189978
188867
187719
186557
185410
184313
183299
182396
181619
180967
180425
179967
179557
179158
178734
178259
177715
177096
176403
175643
174827
173966
173069
172143
171194
170223
169234
168229
167209
166177
165133
164077
163010
161931
160842
159742
158632
157511
156380
155239
154089
152932
151768
150599
149425
148247
147064
145878
144688
143495
142300
141101
139899
138694
137486
136274
135059
133841
132619
131394
130165
128931
127694
126453
125209
123960
122708
121452
120192
118928
117662
116391
115118
113841
112561
111278
109992
108703
107412
106118
104822
103523
102223
100920
99615.2
98308.7
97000.6
95690.9
94379.9
93067.7
91754.4
90440.2
89125.2
87809.6
86493.5
85177.2
83860.7
82544.3
81228.1
79912.4
78597.2
77282.7
75969.2
74656.9
73345.8
72036.3
70728.5
69422.5
68118.7
66817.2
65518.3
64222
62928.8
61638.8
60352.2
59069.2
57790.2
56515.4
55245
53979.3
52718.5
51463
50213
48968.7
47730.6
46498.8
45273.7
44055.6
42844.7
41641.6
40446.4
39259.5
38081.3
36912.2
35752.5
34602.6
33462.9
32333.8
31215.8
30109.1
29014.1
27930.9
26859.4
25799.2
207608
207579
207525
207446
207341
207211
207055
206874
206666
206433
206175
205891
205583
205250
204894
204515
204112
203687
203240
202770
202277
201760
201219
200652
200061
199445
198805
198138
197444
196718
195955
195148
194287
193361
192362
191284
190131
188913
187651
186376
185126
183942
182865
181926
181142
180512
180016
179620
179285
178962
178609
178194
177698
177114
176445
175700
174892
174035
173140
172213
171263
170292
169301
168294
167271
166236
165190
164133
163064
161984
160893
159792
158680
157558
156425
155284
154134
152976
151812
150641
149466
148285
147101
145912
144721
143526
142329
141128
139925
138719
137509
136296
135079
133860
132637
131410
130180
128945
127707
126465
125220
123970
122717
121460
120200
118935
117668
116397
115123
113846
112565
111282
109996
108707
107415
106121
104824
103526
102225
100922
99616.8
98310.1
97001.9
95692.1
94381
93068.6
91755.2
90440.9
89125.8
87810.1
86494
85177.6
83861.1
82544.7
81228.4
79912.6
78597.4
77282.9
75969.4
74657.1
73346
72036.5
70728.6
69422.7
68118.8
66817.3
65518.4
64222.1
62928.9
61638.8
60352.2
59069.3
57790.3
56515.4
55245
53979.3
52718.5
51463
50212.9
48968.7
47730.5
46498.6
45273.5
44055.3
42844.4
41641.2
40445.9
39258.9
38080.5
36911.1
35751.1
34600.8
33460.7
32331
31212.2
30104.5
29008.3
27923.5
26850.1
25787.6
208648
208616
208556
208470
208356
208214
208045
207849
207625
207375
207099
206798
206472
206121
205748
205352
204934
204494
204032
203549
203042
202512
201958
201378
200774
200146
199493
198814
198109
197369
196589
195757
194861
193888
192829
191681
190446
189141
187792
186433
185107
183863
182742
181777
180985
180361
179886
179521
179220
178933
178612
178223
177748
177178
176517
175776
174971
174115
173218
172291
171339
170367
169375
168365
167340
166302
165253
164193
163122
162040
160948
159845
158732
157609
156475
155331
154180
153021
151856
150684
149506
148324
147137
145947
144753
143557
142359
141157
139952
138744
137533
136318
135101
133880
132655
131427
130196
128960
127721
126478
125231
123981
122727
121469
120208
118943
117675
116403
115129
113851
112570
111286
109999
108710
107418
106124
104827
103528
102227
100924
99618.5
98311.7
97003.2
95693.3
94382.1
93069.6
91756.1
90441.6
89126.5
87810.7
86494.5
85178.1
83861.5
82545
81228.8
79912.9
78597.7
77283.2
75969.7
74657.3
73346.2
72036.6
70728.8
69422.8
68119
66817.5
65518.5
64222.2
62929
61638.9
60352.3
59069.3
57790.3
56515.5
55245.1
53979.3
52718.5
51463
50212.9
48968.6
47730.4
46498.5
45273.3
44055.1
42844.1
41640.8
40445.3
39258.2
38079.6
36910
35749.7
34599.1
33458.5
32328.2
31208.6
30100
29002.5
27916.3
26841.1
25776.7
209812
209776
209710
209614
209488
209333
209148
208934
208692
208423
208127
207806
207461
207093
206704
206294
205863
205412
204940
204446
203929
203388
202822
202232
201617
200978
200313
199620
198896
198134
197324
196455
195516
194497
193390
192193
190912
189563
188175
186784
185434
184170
183035
182058
181253
180615
180123
179741
179422
179116
178776
178370
177879
177296
176625
175877
175066
174206
173308
172378
171423
170448
169453
168441
167413
166373
165321
164258
163184
162099
161004
159899
158785
157660
156524
155379
154225
153065
151898
150726
149548
148364
147176
145983
144788
143590
142390
141187
139981
138771
137558
136342
135123
133900
132675
131445
130212
128975
127735
126491
125243
123992
122737
121478
120216
118951
117682
116410
115135
113856
112575
111291
110004
108714
107422
106127
104830
103530
102229
100926
99620.3
98313.3
97004.7
95694.6
94383.2
93070.6
91757
90442.5
89127.2
87811.4
86495.1
85178.6
83861.9
82545.4
81229.1
79913.2
78598
77283.5
75969.9
74657.5
73346.4
72036.8
70729
69423
68119.1
66817.6
65518.6
64222.3
62929.1
61639
60352.4
59069.4
57790.4
56515.5
55245.1
53979.3
52718.5
51462.9
50212.8
48968.5
47730.3
46498.4
45273.1
44054.8
42843.8
41640.3
40444.8
39257.5
38078.8
36908.9
35748.4
34597.3
33456.3
32325.4
31205.1
30095.6
28997
27909.4
26832.6
25766.4
211113
211073
210999
210892
210752
210579
210376
210141
209878
209588
209272
208931
208569
208187
207785
207365
206925
206466
205985
205481
204952
204399
203818
203210
202574
201907
201208
200476
199706
198895
198035
197120
196141
195089
193959
192752
191474
190139
188775
187415
186098
184860
183739
182761
181937
181262
180716
180270
179881
179503
179096
178631
178091
177471
176772
176004
175180
174311
173407
172474
171516
170537
169537
168520
167490
166447
165394
164329
163252
162162
161063
159954
158838
157711
156573
155426
154270
153108
151940
150767
149589
148405
147216
146022
144824
143624
142422
141218
140010
138798
137584
136366
135145
133922
132694
131464
130229
128991
127750
126504
125256
124003
122747
121488
120225
118959
117689
116417
115141
113862
112580
111295
110008
108718
107425
106130
104833
103533
102231
100928
99622.2
98315
97006.2
95696
94384.4
93071.7
91757.9
90443.3
89127.9
87812
86495.7
85179.1
83862.4
82545.8
81229.5
79913.6
78598.3
77283.7
75970.2
74657.7
73346.6
72037
70729.1
69423.2
68119.3
66817.7
65518.7
64222.4
62929.2
61639.1
60352.4
59069.5
57790.4
56515.6
55245.1
53979.3
52718.5
51462.9
50212.8
48968.5
47730.2
46498.2
45272.9
44054.6
42843.5
41639.9
40444.3
39256.8
38077.9
36907.9
35747
34595.6
33454.1
32322.7
31201.6
30091.2
28991.6
27902.7
26824.6
25756.8
212617
212570
212485
212363
212205
212011
211785
211528
211243
210933
210598
210243
209867
209472
209058
208626
208173
207698
207198
206671
206113
205522
204896
204235
203539
202807
202043
201245
200414
199546
198636
197680
196673
195609
194487
193309
192081
190813
189527
188249
187008
185831
184748
183777
182929
182200
181576
181031
180532
180044
179536
178982
178369
177693
176954
176158
175314
174433
173521
172583
171622
170637
169631
168608
167572
166527
165472
164406
163326
162232
161127
160014
158894
157764
156624
155474
154316
153152
151982
150809
149631
148447
147256
146061
144861
143659
142455
141248
140039
138826
137610
136391
135169
133944
132715
131483
130247
129008
127765
126519
125269
124015
122758
121498
120234
118967
117697
116424
115147
113868
112585
111300
110012
108722
107429
106133
104836
103536
102234
100930
99624.2
98316.8
97007.9
95697.4
94385.7
93072.9
91759
90444.2
89128.8
87812.8
86496.4
85179.7
83863
82546.3
81229.9
79914
78598.7
77284.1
75970.5
74658.1
73346.9
72037.3
70729.4
69423.4
68119.5
66817.9
65518.9
64222.6
62929.3
61639.2
60352.6
59069.6
57790.5
56515.7
55245.2
53979.4
52718.6
51463
50212.8
48968.5
47730.1
46498.2
45272.8
44054.4
42843.2
41639.6
40443.8
39256.3
38077.2
36906.9
35745.7
34594
33452
32320.1
31198.4
30087.2
28986.5
27896.6
26817.1
25748
214282
214227
214128
213987
213805
213588
213339
213062
212760
212434
212086
211714
211318
210898
210453
209982
209484
208956
208394
207797
207164
206494
205790
205054
204287
203491
202666
201814
200934
200024
199082
198105
197092
196042
194953
193829
192674
191495
190305
189123
187969
186861
185820
184860
183987
183201
182491
181840
181225
180622
180007
179361
178672
177937
177155
176329
175463
174566
173644
172699
171732
170742
169730
168701
167659
166609
165551
164483
163400
162303
161194
160078
158953
157821
156677
155524
154363
153196
152024
150849
149671
148486
147295
146097
144896
143692
142486
141277
140067
138853
137636
136416
135193
133966
132736
131502
130265
129024
127780
126533
125282
124027
122769
121508
120244
118976
117705
116431
115154
113874
112591
111305
110017
108726
107432
106137
104839
103538
102236
100932
99626.2
98318.6
97009.4
95698.8
94386.9
93073.9
91759.9
90445.1
89129.5
87813.4
86496.9
85180.2
83863.4
82546.7
81230.3
79914.3
78599
77284.4
75970.7
74658.3
73347.1
72037.5
70729.5
69423.5
68119.6
66818
65519
64222.7
62929.3
61639.2
60352.6
59069.6
57790.5
56515.6
55245.1
53979.3
52718.5
51462.8
50212.7
48968.3
47729.9
46497.9
45272.5
44054.1
42842.8
41639.1
40443.2
39255.5
38076.2
36905.7
35744.3
34592.3
33449.9
32317.4
31195.1
30083.1
28981.6
27890.6
26810
25739.7
215961
215896
215782
215620
215417
215179
214912
214619
214303
213959
213584
213174
212726
212241
211720
211165
210578
209960
209310
208629
207918
207178
206412
205621
204808
203973
203114
202234
201332
200406
199454
198477
197475
196446
195392
194315
193219
192108
190991
189881
188790
187733
186721
185766
184872
184039
183261
182527
181822
181127
180427
179705
178954
178170
177352
176498
175612
174700
173767
172813
171838
170841
169824
168788
167742
166687
165626
164554
163468
162369
161259
160140
159012
157875
156729
155573
154409
153238
152064
150887
149707
148521
147328
146129
144927
143722
142514
141305
140093
138878
137660
136439
135214
133986
132755
131520
130282
129040
127795
126546
125294
124039
122780
121518
120253
118984
117712
116438
115160
113880
112596
111310
110021
108730
107436
106140
104842
103541
102239
100934
99628.1
98320.2
97010.9
95700.1
94388.1
93075
91760.9
90445.9
89130.2
87814
86497.5
85180.7
83863.8
82547.1
81230.6
79914.6
78599.2
77284.6
75971
74658.5
73347.3
72037.6
70729.6
69423.6
68119.7
66818.1
65519
64222.7
62929.4
61639.2
60352.6
59069.6
57790.5
56515.6
55245.1
53979.3
52718.4
51462.7
50212.6
48968.1
47729.8
46497.7
45272.3
44053.8
42842.5
41638.7
40442.7
39254.8
38075.4
36904.7
35743
34590.7
33447.9
32314.9
31192.1
30079.4
28977.1
27885.1
26803.5
25732.1
217649
217573
217441
217259
217036
216778
216491
216173
215819
215422
214975
214478
213934
213349
212731
212084
211409
210711
209991
209249
208486
207703
206899
206078
205240
204384
203511
202619
201710
200780
199830
198858
197867
196855
195826
194780
193721
192653
191582
190515
189464
188436
187441
186487
185576
184709
183882
183088
182316
181554
180789
180010
179211
178388
177539
176662
175757
174832
173888
172925
171941
170935
169911
168870
167820
166761
165696
164620
163531
162431
161320
160199
159068
157926
156776
155617
154451
153279
152102
150923
149740
148552
147357
146157
144955
143749
142541
141331
140118
138902
137683
136460
135234
134005
132773
131537
130297
129055
127808
126559
125306
124050
122790
121527
120261
118992
117720
116444
115166
113885
112601
111314
110025
108734
107439
106143
104844
103544
102241
100936
99629.9
98321.9
97012.3
95701.4
94389.3
93076
91761.8
90446.7
89131
87814.7
86498
85181.2
83864.3
82547.5
81231
79915
78599.5
77284.9
75971.2
74658.7
73347.5
72037.8
70729.8
69423.7
68119.8
66818.1
65519.1
64222.7
62929.4
61639.2
60352.6
59069.5
57790.4
56515.5
55245
53979.2
52718.3
51462.7
50212.5
48968
47729.6
46497.5
45272.1
44053.5
42842.1
41638.3
40442.2
39254.2
38074.6
36903.7
35741.8
34589.2
33446.1
32312.7
31189.3
30076
28972.9
27880.1
26797.6
25725.3
219340
219253
219101
218897
218649
218359
218024
217638
217195
216693
216138
215537
214898
214227
213532
212817
212084
211335
210569
209788
208992
208180
207353
206512
205658
204790
203908
203010
202097
201166
200217
199249
198265
197264
196249
195221
194183
193139
192092
191051
190020
189008
188021
187064
186139
185247
184385
183548
182728
181915
181102
180281
179444
178590
177715
176816
175896
174958
174005
173033
172040
171026
169995
168949
167894
166832
165762
164682
163590
162488
161376
160252
159118
157973
156818
155657
154489
153315
152137
150956
149771
148581
147385
146185
144981
143775
142567
141355
140141
138924
137704
136480
135253
134023
132790
131553
130312
129068
127821
126571
125317