/*--------------------------------*- C++ -*----------------------------------*\
  =========                 |
  \\      /  F ield         | OpenFOAM: The Open Source CFD Toolbox
   \\    /   O peration     | Website:  https://openfoam.org
    \\  /    A nd           | Version:  9
     \\/     M anipulation  |
\*---------------------------------------------------------------------------*/
FoamFile
{
    format      ascii;
    class       volScalarField;
    location    "0.024";
    object      s;
}
// * * * * * * * * * * * * * * * * * * * * * * * * * * * * * * * * * * * * * //

dimensions      [0 0 0 0 0 0 0];

internalField   nonuniform List<scalar> 
12225
(
1
1
1
1
1
1
1
1
1
1
1
1
1
1
1
1
1
0.99988
1
1
1
1
1
1
1
1
1
1
1
1
1
1
1
1
1
0.999995
1
1
1
1
1
1
1
1
1
1
1
1
1
1
1
1
1
1
1
1
1
1
1
1
1
1
1
1
1
1
1
1
1
1
1
1
1
1
1
1
1
1
1
1
1
1
1
1
1
1
1
1
1
1
1
1
1
1
1
1
1
1
1
1
1
1
1
1
1
1
1
1
1
1
1
1
1
1
1
1
1
1
1
1
1
1
1
1
1
1
1
1
1
1
1
1
1
1
1
1
1
1
1
1
1
1
1
1
1
1
1
1
1
1
1
1
1
1
1
1
1
1
1
1
1
1
1
1
1
1
1
1
1
1
1
1
1
1
1
1
1
1
1
1
1
1
1
1
1
1
1
1
1
1
1
1
1
1
1
1
1
1
1
1
1
1
1
1
1
1
1
1
1
1
1
1
1
1
1
1
1
1
1
1
1
1
1
1
1
1
1
1
1
1
1
1
1
1
1
1
1
1
1
1
1
1
1
1
1
1
1
1
1
1
1
1
1
1
1
1
1
1
1
1
1
1
1
1
1
1
1
1
1
1
1
1
1
1
1
1
1
1
1
1
1
1
1
1
1
1
1
1
1
1
1
1
1
1
1
1
1
1
1
1
1
1
1
1
1
1
1
1
1
1
1
1
1
1
1
1
1
1
1
1
1
1
1
1
1
1
1
1
1
1
1
1
1
1
1
1
1
1
1
1
1
1
1
1
1
1
1
1
1
1
1
1
1
1
1
1
1
1
1
1
1
1
1
1
1
1
1
1
1
1
1
1
1
1
1
1
1
1
1
1
1
1
1
1
1
1
1
1
1
1
1
1
1
1
1
1
1
1
1
1
1
1
1
1
1
1
1
1
1
1
1
1
1
1
1
1
1
1
1
1
1
1
1
1
1
1
1
1
1
1
1
1
1
1
1
1
1
1
1
1
1
1
1
1
1
1
1
1
1
1
1
1
1
1
1
1
1
1
1
1
1
1
1
1
1
1
1
1
1
1
1
1
1
1
1
1
1
1
1
1
1
1
1
1
1
1
1
1
1
1
1
1
1
1
1
1
1
1
1
1
1
1
1
1
1
1
1
1
1
1
1
1
1
1
1
1
1
1
1
1
1
1
1
1
1
1
1
1
1
1
1
1
1
1
1
1
1
1
1
1
8.47431e-05
0.000734477
0.00277258
0.00606972
0.0105622
0.0202021
0.0253755
0.0314596
0.0348327
0.0378036
0.0375003
0.0362074
0.033031
0.0295188
0.0262985
0.0232791
0.0203605
0.0173548
0.0143846
0.0114892
0.00866529
0.00586937
0.00331979
0.00140912
0.000609463
0.00129219
0.00992128
0.0479569
0.0452719
0.0481771
0.174928
0.697598
0.764392
0.77238
0.778728
0.783138
0.786518
0.790329
0.793506
0.794703
0.796323
0.79904
0.801051
0.801969
0.803115
0.804192
0.804757
0.806093
0.807643
0.808331
0.809148
0.810749
0.811773
0.812103
0.812247
0.812298
0.81231
0.812305
0.812299
0.812295
0.812293
0.812294
0.812293
0.812228
0.812209
0.81228
0.812472
0.812812
0.813301
0.813525
0.813572
0.813229
0.812405
0.81203
0.811615
0.810589
0.809101
0.806909
0.80379
0.800231
0.796125
0.791105
0.785577
0.778767
0.771675
0.763728
0.754734
0.744953
0.734158
0.721989
0.708404
0.693059
0.675636
0.655748
0.63297
0.607137
0.578095
0.545612
0.509528
0.469813
0.426638
0.380417
0.331876
0.28216
0.232965
0.186579
0.145524
0.111493
0.0835091
0.0604983
0.0423306
0.0286647
0.0188254
0.0120003
0.00742645
0.00446499
0.00260686
0.00148149
0.000824393
0.000449162
0.000239602
0.00012513
6.39671e-05
3.19983e-05
1.56568e-05
7.49015e-06
3.50182e-06
1.59945e-06
7.13561e-07
3.10932e-07
1.32352e-07
5.50483e-08
2.23805e-08
8.89789e-09
3.46085e-09
1.31743e-09
4.90988e-10
1.79197e-10
6.40623e-11
2.24365e-11
7.69915e-12
2.58884e-12
8.53054e-13
2.75478e-13
8.71906e-14
2.70494e-14
8.22598e-15
2.45246e-15
7.16884e-16
2.05484e-16
5.77622e-17
1.59259e-17
4.3074e-18
1.14299e-18
2.97617e-19
7.60551e-20
1.90781e-20
4.69843e-21
1.1362e-21
2.69836e-22
6.29431e-23
1.44227e-23
3.24665e-24
7.18041e-25
1.56033e-25
3.33164e-26
6.99005e-27
1.44104e-27
2.91885e-28
5.80804e-29
1.13508e-29
2.17795e-30
4.10074e-31
7.5705e-32
1.36885e-32
2.41961e-33
4.17103e-34
6.97655e-35
1.12583e-35
1.58659e-36
0.000473016
0.00461159
0.0146406
0.0366692
0.0630852
0.113515
0.150185
0.190715
0.217779
0.237183
0.238982
0.233764
0.220581
0.195922
0.164565
0.130214
0.0983543
0.0701043
0.048103
0.031643
0.0201461
0.0126922
0.00741499
0.00382857
0.00447704
0.00444088
0.0100627
0.14306
0.52682
0.649889
0.699647
0.776586
0.792096
0.798435
0.806636
0.811742
0.818737
0.824509
0.827374
0.829578
0.833598
0.836577
0.837503
0.837817
0.837853
0.837295
0.83551
0.83361
0.832534
0.831344
0.829531
0.828543
0.827097
0.825572
0.82413
0.822892
0.821896
0.820934
0.820144
0.819523
0.819195
0.819082
0.819093
0.819019
0.819752
0.821424
0.822717
0.824078
0.826631
0.82982
0.832836
0.835557
0.839219
0.844547
0.851052
0.858307
0.866256
0.87504
0.884201
0.893835
0.903847
0.91381
0.923371
0.931437
0.938619
0.944879
0.950833
0.95626
0.961125
0.965281
0.968686
0.971368
0.973425
0.974949
0.975974
0.976104
0.97476
0.971596
0.966744
0.959782
0.95017
0.937136
0.919662
0.896183
0.864432
0.821185
0.762673
0.686414
0.594534
0.492778
0.389682
0.29547
0.217602
0.156479
0.109396
0.0743102
0.0490818
0.0315353
0.019712
0.0119919
0.00710239
0.00409589
0.00230029
0.00125749
0.000669865
0.000347673
0.000175812
8.66278e-05
4.15968e-05
1.9469e-05
8.884e-06
3.95331e-06
1.71593e-06
7.2664e-07
3.00268e-07
1.21102e-07
4.7679e-08
1.83282e-08
6.88046e-09
2.52294e-09
9.03829e-10
3.16414e-10
1.08273e-10
3.62235e-11
1.18516e-11
3.79312e-12
1.18785e-12
3.64068e-13
1.09239e-13
3.20967e-14
9.23715e-15
2.60446e-15
7.19625e-16
1.94899e-16
5.17526e-17
1.34765e-17
3.44227e-18
8.62631e-19
2.1213e-19
5.11985e-20
1.213e-20
2.82151e-21
6.44437e-22
1.44549e-22
3.18446e-23
6.89107e-24
1.46483e-24
3.05891e-25
6.27463e-26
1.26434e-26
2.50174e-27
4.86119e-28
9.26729e-29
1.73376e-29
3.17538e-30
5.69963e-31
9.96158e-32
1.70084e-32
2.78536e-33
4.36448e-34
0.00625648
0.0188358
0.0514991
0.127459
0.235797
0.355709
0.447594
0.499952
0.52469
0.532916
0.531134
0.525475
0.513369
0.491942
0.462073
0.411064
0.345283
0.257353
0.161056
0.0907636
0.0469696
0.0336796
0.0175699
0.0086441
0.0243069
0.193143
0.521814
0.648297
0.733007
0.765371
0.781692
0.791844
0.795109
0.797608
0.798807
0.796931
0.794739
0.790255
0.783851
0.776693
0.772029
0.766995
0.763045
0.757676
0.752545
0.74666
0.742073
0.73836
0.735344
0.732
0.728783
0.724891
0.720044
0.717331
0.716329
0.715844
0.715613
0.715506
0.715592
0.716463
0.718237
0.720716
0.723683
0.72683
0.728607
0.729247
0.729589
0.730048
0.730253
0.730468
0.730426
0.730285
0.730877
0.73229
0.734255
0.736932
0.740428
0.744752
0.750032
0.755566
0.762654
0.770981
0.781365
0.794131
0.80985
0.827141
0.845889
0.865821
0.886542
0.907262
0.926658
0.943436
0.956617
0.967456
0.976154
0.982946
0.988087
0.991651
0.993915
0.995229
0.995913
0.996198
0.99613
0.995404
0.993615
0.991093
0.987623
0.982462
0.972584
0.951986
0.909868
0.836984
0.730771
0.601374
0.466553
0.344038
0.245025
0.16927
0.113355
0.0736269
0.0464166
0.0284207
0.0169096
0.00977955
0.00549721
0.00300304
0.00159389
0.000821756
0.000411328
0.00020004
9.46173e-05
4.35493e-05
1.95155e-05
8.51916e-06
3.62461e-06
1.50377e-06
6.0862e-07
2.404e-07
9.27062e-08
3.49153e-08
1.28468e-08
4.61933e-09
1.62363e-09
5.58001e-10
1.87558e-10
6.1673e-11
1.98434e-11
6.2488e-12
1.92635e-12
5.81469e-13
1.71894e-13
4.97769e-14
1.41227e-14
3.92658e-15
1.07006e-15
2.85881e-16
7.48902e-17
1.924e-17
4.84834e-18
1.19856e-18
2.90714e-19
6.91946e-20
1.61634e-20
3.70598e-21
8.34111e-22
1.84308e-22
3.99832e-23
8.51657e-24
1.78101e-24
3.65699e-25
7.37028e-26
1.45823e-26
2.82967e-27
5.38812e-28
1.00432e-28
1.83526e-29
3.26749e-30
5.69098e-31
9.54583e-32
1.55148e-32
0.026107
0.0563139
0.148754
0.349015
0.52032
0.583539
0.605954
0.605085
0.601873
0.594445
0.585161
0.58005
0.575426
0.565184
0.548836
0.528959
0.491741
0.426234
0.345868
0.227676
0.118407
0.0460146
0.0205424
0.0963781
0.468848
0.637363
0.717289
0.754684
0.771666
0.777789
0.780605
0.781704
0.772875
0.759574
0.745115
0.737404
0.734235
0.733816
0.73578
0.735887
0.735468
0.734613
0.733369
0.730687
0.726378
0.721704
0.717802
0.714266
0.710921
0.708017
0.704974
0.701024
0.696001
0.691846
0.690562
0.690133
0.689997
0.6903
0.691943
0.69492
0.699022
0.704349
0.710695
0.717615
0.723078
0.725556
0.7267
0.727005
0.726737
0.725469
0.724776
0.723211
0.722765
0.722643
0.722639
0.723018
0.723779
0.724879
0.726442
0.727705
0.729405
0.731286
0.733094
0.735225
0.738039
0.742253
0.748114
0.756479
0.767885
0.783259
0.80314
0.827318
0.855102
0.883381
0.909917
0.933561
0.954339
0.97091
0.982272
0.989766
0.994218
0.996628
0.997897
0.998557
0.998895
0.999061
0.999109
0.999084
0.998911
0.998393
0.997187
0.994589
0.988918
0.975573
0.940528
0.844678
0.699853
0.545293
0.401005
0.282404
0.191759
0.12577
0.0797933
0.0490188
0.0291759
0.0168295
0.00940856
0.00509711
0.00267568
0.00136073
0.000670392
0.000319995
0.000148076
6.6553e-05
2.90767e-05
1.23582e-05
5.11336e-06
2.06105e-06
8.09785e-07
3.10306e-07
1.16031e-07
4.23564e-08
1.51013e-08
5.26047e-09
1.79105e-09
5.96223e-10
1.94115e-10
6.18282e-11
1.92712e-11
5.87948e-12
1.75624e-12
5.13742e-13
1.47205e-13
4.13247e-14
1.13685e-14
3.06542e-15
8.10316e-16
2.10028e-16
5.33868e-17
1.33104e-17
3.25547e-18
7.81203e-19
1.83949e-19
4.25077e-20
9.6409e-21
2.14632e-21
4.69042e-22
1.00625e-22
2.11903e-23
4.3807e-24
8.88752e-25
1.76973e-25
3.45591e-26
6.62051e-27
1.24173e-27
2.28217e-28
4.09107e-29
7.16874e-30
1.21544e-30
1.99888e-31
0.0542031
0.125111
0.366722
0.570879
0.625083
0.628052
0.62161
0.603573
0.56712
0.535813
0.51124
0.510166
0.515461
0.528436
0.530508
0.524869
0.506551
0.461833
0.360442
0.22358
0.0963529
0.0522933
0.142979
0.511952
0.684735
0.738733
0.759808
0.767182
0.769438
0.767093
0.753669
0.727787
0.714518
0.707987
0.706096
0.707066
0.711343
0.713285
0.715212
0.715172
0.711939
0.704886
0.694648
0.684193
0.677592
0.672091
0.664716
0.659139
0.65643
0.654048
0.652078
0.650406
0.649293
0.648749
0.648502
0.64894
0.649864
0.651839
0.655966
0.661426
0.668477
0.677804
0.688982
0.701815
0.714236
0.725409
0.732249
0.735841
0.73834
0.739464
0.739545
0.736775
0.734657
0.733469
0.731802
0.729888
0.727394
0.726416
0.726212
0.72659
0.727635
0.729246
0.730703
0.731912
0.733314
0.73532
0.737922
0.741825
0.747391
0.755272
0.765985
0.780114
0.797977
0.819385
0.843795
0.868962
0.893438
0.918305
0.943113
0.964371
0.979647
0.988786
0.994038
0.996877
0.99833
0.999043
0.999393
0.999572
0.999663
0.999696
0.999695
0.999658
0.999512
0.999068
0.997818
0.994356
0.984686
0.956021
0.864232
0.691416
0.520069
0.371012
0.253774
0.166969
0.105875
0.0647758
0.0382609
0.0218245
0.0120238
0.00639895
0.00329039
0.00163548
0.000786225
0.000365694
0.000164744
7.20255e-05
3.05914e-05
1.2634e-05
5.07774e-06
1.98752e-06
7.58155e-07
2.82015e-07
1.02351e-07
3.626e-08
1.25452e-08
4.24047e-09
1.40089e-09
4.52473e-10
1.4293e-10
4.41701e-11
1.33576e-11
3.95407e-12
1.146e-12
3.25283e-13
9.04432e-14
2.46392e-14
6.57822e-15
1.72151e-15
4.41682e-16
1.11119e-16
2.74168e-17
6.63532e-18
1.57538e-18
3.66984e-19
8.38867e-20
1.88179e-20
4.14287e-21
8.95199e-22
1.89844e-22
3.95146e-23
8.07024e-24
1.61735e-24
3.17848e-25
6.1259e-26
1.15612e-26
2.137e-27
3.85644e-28
6.79802e-29
1.16357e-29
1.93291e-30
0.0776848
0.234647
0.553914
0.641483
0.641167
0.623972
0.568125
0.452506
0.346789
0.278655
0.244112
0.254331
0.290325
0.371835
0.465139
0.495171
0.491477
0.450949
0.336104
0.158171
0.0959362
0.166492
0.525199
0.693147
0.742906
0.756714
0.760242
0.760901
0.747588
0.716139
0.695679
0.687529
0.685412
0.685795
0.690891
0.692712
0.693727
0.689818
0.678437
0.662092
0.652177
0.641461
0.633625
0.630298
0.627951
0.626106
0.624341
0.623484
0.623247
0.623667
0.624983
0.625412
0.625659
0.625968
0.626053
0.626026
0.625864
0.625829
0.626056
0.62757
0.63006
0.63486
0.642856
0.655096
0.673017
0.693015
0.714066
0.731769
0.74039
0.747353
0.754805
0.762298
0.765256
0.765671
0.763654
0.759171
0.751671
0.745564
0.740491
0.735929
0.733081
0.731842
0.733277
0.735908
0.739512
0.743331
0.747058
0.750067
0.752735
0.757116
0.764778
0.775415
0.789567
0.807105
0.827778
0.85134
0.874479
0.89516
0.914206
0.933115
0.952406
0.970102
0.983115
0.991117
0.995463
0.997728
0.998849
0.999385
0.999642
0.99977
0.999838
0.999869
0.999875
0.99987
0.999838
0.999715
0.999296
0.997921
0.993468
0.979101
0.931342
0.783356
0.589438
0.42072
0.286981
0.18764
0.117803
0.0710896
0.0412633
0.0230499
0.0123985
0.00642631
0.00321229
0.00155014
0.0007229
0.000326084
0.000142535
6.04614e-05
2.49147e-05
9.98311e-06
3.89294e-06
1.4785e-06
5.47259e-07
1.97538e-07
6.95711e-08
2.39189e-08
8.03119e-09
2.63464e-09
8.44749e-10
2.64821e-10
8.11963e-11
2.43564e-11
7.15009e-12
2.05471e-12
5.78155e-13
1.59333e-13
4.30163e-14
1.13796e-14
2.9504e-15
7.49853e-16
1.86851e-16
4.56573e-17
1.09419e-17
2.57219e-18
5.93196e-19
1.34223e-19
2.98002e-20
6.49242e-21
1.38796e-21
2.91165e-22
5.99258e-23
1.21e-23
2.39571e-24
4.65063e-25
8.842e-26
1.64603e-26
2.99404e-27
5.31919e-28
9.19975e-29
1.54623e-29
0.0940687
0.39351
0.626619
0.654849
0.630214
0.532685
0.321099
0.1728
0.116369
0.0943377
0.0897557
0.0966367
0.125658
0.195058
0.336142
0.451859
0.46801
0.405794
0.224012
0.14465
0.179208
0.513949
0.690158
0.740987
0.753204
0.755161
0.750669
0.729717
0.690802
0.674382
0.668625
0.667571
0.669737
0.673443
0.67476
0.671451
0.656142
0.637918
0.626538
0.62071
0.616688
0.613833
0.612841
0.612694
0.612949
0.613688
0.61348
0.612813
0.612658
0.613555
0.616486
0.618615
0.619765
0.622116
0.6236
0.624315
0.624765
0.624939
0.624258
0.623966
0.624096
0.625623
0.628232
0.633515
0.642258
0.65547
0.671598
0.690542
0.715464
0.737764
0.751385
0.764348
0.771435
0.772829
0.772105
0.767171
0.759755
0.755973
0.753886
0.751744
0.748233
0.743845
0.741041
0.740365
0.743094
0.748605
0.756778
0.767378
0.7784
0.786878
0.792152
0.795568
0.800818
0.811515
0.827169
0.848177
0.87118
0.892085
0.910176
0.92637
0.941491
0.955925
0.969377
0.980843
0.989275
0.994498
0.997335
0.998729
0.999384
0.999683
0.999821
0.99989
0.999926
0.999941
0.999944
0.999942
0.999927
0.99986
0.999606
0.998683
0.995393
0.983882
0.943775
0.807505
0.601179
0.423594
0.284562
0.182652
0.112185
0.0660106
0.0372501
0.0201817
0.0105108
0.00526916
0.00254621
0.00118769
0.000535444
0.000233732
9.8933e-05
4.06523e-05
1.62331e-05
6.305e-06
2.38391e-06
8.78063e-07
3.1526e-07
1.10399e-07
3.77262e-08
1.25864e-08
4.10139e-09
1.30588e-09
4.06424e-10
1.23683e-10
3.68164e-11
1.07227e-11
3.05652e-12
8.52968e-13
2.33095e-13
6.23934e-14
1.63624e-14
4.20491e-15
1.05914e-15
2.61529e-16
6.33188e-17
1.50336e-17
3.5008e-18
7.9966e-19
1.79189e-19
3.93931e-20
8.49636e-21
1.79786e-21
3.73194e-22
7.59857e-23
1.51702e-23
2.96901e-24
5.69198e-25
1.06841e-25
1.96084e-26
3.51604e-27
6.14932e-28
1.04687e-28
0.106242
0.477329
0.65405
0.65434
0.556993
0.311183
0.141078
0.0863843
0.0712852
0.0672376
0.0661568
0.0933857
0.144199
0.229118
0.365852
0.427977
0.396085
0.255028
0.190608
0.206461
0.479573
0.682313
0.737388
0.749756
0.751164
0.743261
0.715442
0.678619
0.663771
0.658703
0.657679
0.658087
0.658996
0.658201
0.64849
0.62674
0.610837
0.603799
0.601045
0.600434
0.600407
0.598558
0.593548
0.589088
0.585314
0.582605
0.578851
0.575935
0.575095
0.577375
0.583703
0.589036
0.593382
0.603207
0.612779
0.618551
0.623953
0.62746
0.629074
0.629922
0.628096
0.627189
0.627159
0.629921
0.635084
0.643827
0.655763
0.6688
0.681657
0.697252
0.715931
0.736055
0.749462
0.753853
0.753247
0.745269
0.735
0.731391
0.733171
0.740864
0.746207
0.746731
0.744099
0.742249
0.742605
0.746559
0.754802
0.767705
0.78389
0.80215
0.821551
0.839516
0.851069
0.855015
0.856531
0.861014
0.875827
0.895079
0.91349
0.928436
0.941499
0.954033
0.965809
0.976039
0.98428
0.990471
0.994727
0.997351
0.998762
0.999438
0.999737
0.999867
0.999927
0.999956
0.999969
0.999974
0.999974
0.999971
0.999957
0.999892
0.999633
0.998641
0.994934
0.981407
0.932736
0.772517
0.559711
0.384321
0.250954
0.156122
0.0926996
0.0526231
0.0286095
0.0149228
0.00748137
0.0036115
0.0016815
0.000756321
0.000329222
0.000138884
5.68504e-05
2.26047e-05
8.73894e-06
3.28757e-06
1.20439e-06
4.29953e-07
1.49655e-07
5.08171e-08
1.68418e-08
5.45035e-09
1.72305e-09
5.32326e-10
1.60777e-10
4.74881e-11
1.37216e-11
3.87984e-12
1.07384e-12
2.91005e-13
7.72339e-14
2.00801e-14
5.11532e-15
1.27708e-15
3.12527e-16
7.49819e-17
1.76398e-17
4.06968e-18
9.20875e-19
2.04388e-19
4.44974e-20
9.50274e-21
1.99049e-21
4.08914e-22
8.23661e-23
1.62628e-23
3.14583e-24
5.95857e-25
1.10414e-25
2.0001e-26
3.53875e-27
6.10509e-28
0.118809
0.518348
0.662003
0.638487
0.483161
0.219964
0.101049
0.0739858
0.0699204
0.0824525
0.116598
0.161411
0.229275
0.305709
0.343625
0.32382
0.246425
0.222752
0.242097
0.450996
0.670307
0.733464
0.747231
0.748422
0.739667
0.707645
0.668382
0.652408
0.646234
0.643987
0.643069
0.640672
0.635328
0.62262
0.601003
0.591075
0.586596
0.585416
0.585179
0.583064
0.575997
0.565877
0.548777
0.52666
0.511479
0.501941
0.495573
0.49339
0.493534
0.501227
0.509974
0.521455
0.532083
0.544586
0.561104
0.580143
0.59925
0.618685
0.62837
0.635313
0.640015
0.642317
0.638938
0.637085
0.63667
0.643038
0.653539
0.665823
0.675811
0.68663
0.697254
0.707825
0.718918
0.727087
0.729668
0.72549
0.715098
0.704234
0.697279
0.69556
0.701357
0.710484
0.71828
0.722749
0.725147
0.727857
0.733563
0.746195
0.767848
0.793414
0.820441
0.846933
0.871663
0.893208
0.908593
0.914679
0.913269
0.913409
0.925769
0.941648
0.952146
0.959979
0.967878
0.976095
0.98352
0.989366
0.993533
0.996293
0.998022
0.999027
0.999556
0.999803
0.99991
0.999956
0.999976
0.999985
0.999988
0.999989
0.999988
0.999983
0.99996
0.999862
0.999465
0.997911
0.991989
0.969962
0.888936
0.678615
0.473645
0.312835
0.196058
0.116894
0.0664644
0.036124
0.0188111
0.00940612
0.00452577
0.00209931
0.000940499
0.000407629
0.000171166
6.97193e-05
2.7577e-05
1.06026e-05
3.96561e-06
1.44399e-06
5.12226e-07
1.77118e-07
5.97319e-08
1.96567e-08
6.31504e-09
1.98149e-09
6.07485e-10
1.82041e-10
5.33399e-11
1.52872e-11
4.28683e-12
1.17654e-12
3.16127e-13
8.31792e-14
2.14375e-14
5.41301e-15
1.33937e-15
3.24824e-16
7.72242e-17
1.80005e-17
4.11431e-18
9.2222e-19
2.02732e-19
4.37093e-20
9.24212e-21
1.91638e-21
3.89603e-22
7.76404e-23
1.51603e-23
2.89921e-24
5.42682e-25
9.93628e-26
1.77892e-26
3.11048e-27
0.126154
0.531338
0.662986
0.631539
0.458773
0.194088
0.09767
0.0827779
0.0855006
0.109159
0.151522
0.194043
0.235216
0.256199
0.256868
0.243676
0.241197
0.277611
0.458103
0.659908
0.7292
0.745847
0.747697
0.739739
0.709417
0.666591
0.648872
0.641793
0.638862
0.637499
0.63484
0.628987
0.615996
0.593069
0.580852
0.575416
0.57283
0.570042
0.56231
0.546142
0.516704
0.486266
0.458712
0.44249
0.432295
0.426133
0.423626
0.423183
0.430049
0.442626
0.458209
0.470601
0.488907
0.504207
0.51601
0.531175
0.546868
0.56908
0.601391
0.625146
0.641087
0.650951
0.657384
0.661234
0.661102
0.660213
0.668311
0.68294
0.692478
0.702252
0.710345
0.716363
0.721923
0.72935
0.734259
0.734353
0.729504
0.71857
0.70467
0.695238
0.693249
0.697657
0.705141
0.712306
0.715804
0.716476
0.715086
0.714664
0.718585
0.738696
0.780461
0.829144
0.868369
0.897685
0.920974
0.939746
0.953026
0.957443
0.955529
0.956174
0.965635
0.973859
0.978226
0.981987
0.986147
0.990238
0.993655
0.996161
0.997821
0.998837
0.999415
0.999724
0.999876
0.999946
0.999976
0.999988
0.999994
0.999995
0.999996
0.999995
0.999993
0.999982
0.999933
0.999728
0.998897
0.995623
0.983039
0.935733
0.771538
0.543226
0.36047
0.22629
0.134807
0.0764468
0.0413887
0.0214523
0.0106718
0.00510696
0.00235575
0.00104942
0.000452199
0.000188752
7.64126e-05
3.00342e-05
1.14723e-05
4.26214e-06
1.54123e-06
5.42829e-07
1.86326e-07
6.23653e-08
2.03654e-08
6.49131e-09
2.02047e-09
6.1438e-10
1.82581e-10
5.30478e-11
1.50739e-11
4.19053e-12
1.14007e-12
3.03628e-13
7.91795e-14
2.02234e-14
5.06022e-15
1.24065e-15
2.98112e-16
7.0216e-17
1.62136e-17
3.67085e-18
8.14948e-19
1.77416e-19
3.78751e-20
7.92849e-21
1.62724e-21
3.27377e-22
6.45453e-23
1.24662e-23
2.35776e-24
4.36463e-25
7.90763e-26
1.40119e-26
0.120175
0.530257
0.667364
0.643005
0.48432
0.231689
0.124697
0.100089
0.0982212
0.116122
0.154266
0.183248
0.20575
0.222073
0.239727
0.255996
0.312467
0.493441
0.661432
0.727328
0.746694
0.749784
0.742753
0.718835
0.66887
0.645782
0.635487
0.630638
0.627916
0.624273
0.616988
0.604832
0.58612
0.569976
0.562709
0.559016
0.553626
0.539839
0.513676
0.476456
0.442111
0.414475
0.388153
0.364265
0.346356
0.329386
0.321003
0.318345
0.326323
0.342691
0.370366
0.403945
0.439575
0.472485
0.496266
0.512911
0.526613
0.538983
0.555196
0.583902
0.617206
0.64188
0.65775
0.66833
0.677106
0.683517
0.687711
0.692593
0.700205
0.71359
0.726853
0.736492
0.743549
0.750213
0.758232
0.767428
0.776562
0.782702
0.784158
0.777943
0.769817
0.769264
0.775565
0.785266
0.788115
0.78383
0.764819
0.73457
0.713158
0.704148
0.70882
0.746166
0.825622
0.886971
0.921808
0.945344
0.962851
0.97514
0.981593
0.982974
0.982328
0.983695
0.98861
0.991591
0.99322
0.994457
0.995727
0.996998
0.998092
0.998887
0.999401
0.9997
0.999859
0.999937
0.999973
0.999988
0.999995
0.999997
0.999998
0.999998
0.999998
0.999997
0.99999
0.999959
0.999826
0.999273
0.997027
0.988143
0.95385
0.82407
0.586037
0.388555
0.242988
0.143963
0.0811084
0.0436026
0.0224349
0.0110786
0.0052629
0.00241008
0.00106585
0.000455961
0.000188942
7.59294e-05
2.96225e-05
1.12295e-05
4.13978e-06
1.48523e-06
5.18916e-07
1.76666e-07
5.86413e-08
1.89879e-08
6.00049e-09
1.85151e-09
5.58066e-10
1.64375e-10
4.73305e-11
1.33278e-11
3.67136e-12
9.89663e-13
2.61135e-13
6.74651e-14
1.70703e-14
4.23107e-15
1.02755e-15
2.44557e-16
5.70503e-17
1.30465e-17
2.9251e-18
6.43023e-19
1.38602e-19
2.92926e-20
6.06973e-21
1.23293e-21
2.45469e-22
4.78872e-23
9.15218e-24
1.71304e-24
3.14052e-25
5.63794e-26
0.0840092
0.483499
0.669072
0.66909
0.561541
0.338678
0.18015
0.133742
0.12409
0.128552
0.159822
0.187351
0.208436
0.23857
0.280331
0.358385
0.549298
0.674688
0.730106
0.748907
0.752645
0.74665
0.724998
0.681327
0.648521
0.635257
0.629182
0.626216
0.622725
0.617123
0.604776
0.583156
0.55812
0.543841
0.537602
0.530317
0.517401
0.492555
0.455951
0.412869
0.371627
0.330563
0.293959
0.264121
0.236776
0.218339
0.209857
0.207423
0.217825
0.232734
0.259648
0.294241
0.338421
0.398829
0.455561
0.497596
0.519077
0.533177
0.541789
0.554712
0.576391
0.607763
0.638593
0.662135
0.677705
0.691147
0.695938
0.696526
0.699643
0.707339
0.717116
0.727652
0.736432
0.744034
0.753071
0.766487
0.782042
0.798169
0.815658
0.832496
0.847366
0.861969
0.878516
0.896872
0.914037
0.924115
0.923542
0.901556
0.835134
0.752849
0.707435
0.704204
0.730413
0.826579
0.907584
0.945479
0.966996
0.980884
0.989138
0.993176
0.994564
0.994783
0.995029
0.996405
0.997674
0.998313
0.998646
0.998853
0.99906
0.999311
0.999556
0.999746
0.999868
0.999937
0.999972
0.999988
0.999995
0.999998
0.999999
0.999999
0.999999
0.999999
0.999998
0.999993
0.999969
0.999864
0.999412
0.997532
0.989898
0.959718
0.842779
0.599633
0.39493
0.244815
0.143663
0.0801469
0.0426658
0.0217437
0.010638
0.00500834
0.00227358
0.000996893
0.00042282
0.000173703
6.92037e-05
2.67658e-05
1.00586e-05
3.67571e-06
1.30708e-06
4.52591e-07
1.52693e-07
5.02212e-08
1.61116e-08
5.04416e-09
1.54184e-09
4.60337e-10
1.343e-10
3.83011e-11
1.06815e-11
2.91399e-12
7.77887e-13
2.03257e-13
5.19992e-14
1.30281e-14
3.19742e-15
7.68858e-16
1.81177e-16
4.1845e-17
9.47383e-18
2.10278e-18
4.57592e-19
9.76315e-20
2.04233e-20
4.18842e-21
8.42038e-22
1.65917e-22
3.2041e-23
6.06313e-24
1.12453e-24
2.04451e-25
0.0594904
0.411981
0.666108
0.686816
0.640695
0.502582
0.30914
0.219373
0.188097
0.181359
0.194987
0.233835
0.270203
0.34116
0.46244
0.604062
0.694739
0.736524
0.752697
0.756501
0.75381
0.739562
0.705671
0.658151
0.636114
0.627013
0.622772
0.619439
0.614374
0.604387
0.587743
0.564936
0.54581
0.534839
0.526763
0.516103
0.493289
0.455547
0.405265
0.352585
0.308886
0.267051
0.227695
0.201913
0.180712
0.169769
0.164949
0.163898
0.174455
0.189286
0.211861
0.247578
0.291813
0.34765
0.411943
0.473498
0.514715
0.533641
0.541163
0.548391
0.557822
0.575603
0.606185
0.64102
0.671663
0.696935
0.714387
0.718658
0.716522
0.713597
0.713372
0.715408
0.717453
0.718396
0.717044
0.713708
0.719624
0.740923
0.773597
0.809006
0.836197
0.856688
0.87615
0.89839
0.923335
0.94446
0.957099
0.960971
0.957218
0.928562
0.816333
0.728076
0.718486
0.749399
0.853823
0.932726
0.967296
0.983913
0.992364
0.996279
0.997896
0.998457
0.998755
0.999043
0.999301
0.999493
0.999617
0.999693
0.999742
0.999782
0.999825
0.999873
0.999919
0.999955
0.999977
0.999989
0.999995
0.999998
0.999999
1
1
1
1
0.999999
0.999994
0.999971
0.99987
0.999424
0.997523
0.989631
0.957853
0.833248
0.585018
0.380305
0.232674
0.13478
0.0742551
0.0390589
0.0196798
0.00952411
0.00443739
0.00199422
0.000865898
0.000363758
0.000148021
5.84053e-05
2.23683e-05
8.32269e-06
3.0111e-06
1.06012e-06
3.63437e-07
1.21395e-07
3.95285e-08
1.25542e-08
3.89086e-09
1.1773e-09
3.47938e-10
1.00477e-10
2.83631e-11
7.82921e-12
2.11401e-12
5.58552e-13
1.44449e-13
3.65748e-14
9.06937e-15
2.20294e-15
5.24268e-16
1.22267e-16
2.79474e-17
6.26194e-18
1.37549e-18
2.96221e-19
6.25464e-20
1.29483e-20
2.62812e-21
5.22959e-22
1.02024e-22
1.95132e-23
3.6601e-24
6.73609e-25
0.0283654
0.276723
0.635049
0.693299
0.682674
0.612687
0.50843
0.416626
0.368279
0.348623
0.346994
0.4035
0.476225
0.564736
0.657282
0.715256
0.745001
0.75758
0.761075
0.760711
0.750286
0.724694
0.685583
0.647676
0.631916
0.624623
0.619851
0.614708
0.60721
0.594615
0.574978
0.548723
0.525544
0.517672
0.513193
0.495443
0.461544
0.415631
0.36286
0.3111
0.267059
0.230678
0.198904
0.177257
0.162331
0.152089
0.146701
0.149353
0.158671
0.171797
0.189935
0.223407
0.270102
0.330199
0.398295
0.465149
0.513109
0.545851
0.556364
0.555568
0.556879
0.563384
0.574977
0.602282
0.648878
0.694202
0.730422
0.758511
0.773771
0.775775
0.767021
0.750826
0.736012
0.727201
0.718649
0.702481
0.68554
0.674668
0.670857
0.676964
0.695752
0.714679
0.735484
0.770194
0.833453
0.901536
0.944535
0.961892
0.964466
0.959446
0.927709
0.818075
0.75498
0.753196
0.803587
0.90205
0.958855
0.983326
0.993176
0.997232
0.998834
0.999429
0.999654
0.999759
0.999822
0.999865
0.999895
0.999915
0.999929
0.99994
0.999951
0.999962
0.999972
0.999981
0.999989
0.999994
0.999997
0.999999
0.999999
1
1
1
1
1
0.999999
0.999993
0.999967
0.999849
0.999318
0.997013
0.987302
0.947819
0.795664
0.544851
0.347813
0.209296
0.119364
0.0648091
0.0336279
0.0167272
0.0079972
0.0036828
0.00163656
0.000702845
0.000292102
0.000117612
4.59249e-05
1.74064e-05
6.40885e-06
2.29398e-06
7.98849e-07
2.70844e-07
8.94651e-08
2.88111e-08
9.05034e-09
2.77442e-09
8.30375e-10
2.42749e-10
6.93421e-11
1.93625e-11
5.28696e-12
1.41215e-12
3.69084e-13
9.44209e-14
2.36501e-14
5.80136e-15
1.394e-15
3.2819e-16
7.57184e-17
1.71222e-17
3.79547e-18
8.24827e-19
1.7575e-19
3.67183e-20
7.52242e-21
1.51121e-21
2.97747e-22
5.75376e-23
1.09098e-23
2.03135e-24
0.0142856
0.118451
0.534597
0.693658
0.704262
0.68238
0.62243
0.568977
0.546711
0.538558
0.54639
0.597251
0.64099
0.688545
0.733927
0.754003
0.763588
0.766858
0.767156
0.762888
0.749276
0.721494
0.68192
0.647471
0.632366
0.62505
0.620033
0.614649
0.606993
0.594682
0.575399
0.549165
0.522373
0.503462
0.492404
0.475981
0.44719
0.409097
0.363437
0.313257
0.268995
0.233183
0.202726
0.180899
0.166803
0.156316
0.152833
0.154426
0.159481
0.169224
0.185668
0.216611
0.262866
0.326049
0.4042
0.477323
0.530959
0.561008
0.575797
0.578469
0.574599
0.56993
0.57164
0.581619
0.603767
0.655099
0.716965
0.761377
0.791897
0.813355
0.830695
0.842318
0.839811
0.820742
0.798998
0.771044
0.735568
0.700284
0.671676
0.648067
0.628272
0.612963
0.604158
0.606057
0.632593
0.736179
0.869402
0.93512
0.954534
0.953183
0.933047
0.865671
0.81075
0.797338
0.810788
0.884856
0.948649
0.979287
0.992283
0.997206
0.998984
0.999622
0.999845
0.999922
0.999951
0.999965
0.999972
0.999977
0.999981
0.999984
0.999987
0.99999
0.999992
0.999995
0.999997
0.999998
0.999999
0.999999
1
1
1
1
1
1
1
0.999998
0.99999
0.999954
0.999787
0.999029
0.995708
0.981664
0.924597
0.727127
0.483689
0.302389
0.178539
0.100059
0.0534608
0.0273285
0.013405
0.00632439
0.00287565
0.00126223
0.000535606
0.000219984
8.7548e-05
3.37937e-05
1.26631e-05
4.61011e-06
1.63179e-06
5.61945e-07
1.88395e-07
6.15236e-08
1.95827e-08
6.07887e-09
1.84136e-09
5.44586e-10
1.57337e-10
4.44228e-11
1.22614e-11
3.30971e-12
8.73961e-13
2.25832e-13
5.71213e-14
1.41465e-14
3.43125e-15
8.15284e-16
1.89808e-16
4.33064e-17
9.68503e-18
2.12336e-18
4.56441e-19
9.62117e-20
1.98892e-20
4.03264e-21
8.02129e-22
1.56547e-22
2.99914e-23
5.64624e-24
0.0113547
0.0392692
0.275994
0.643454
0.711818
0.71315
0.696734
0.663177
0.648281
0.644074
0.652236
0.689275
0.716167
0.738358
0.759676
0.766973
0.770069
0.770862
0.770242
0.765304
0.751755
0.725504
0.687215
0.651193
0.635626
0.627539
0.622006
0.616359
0.608936
0.597837
0.580504
0.555651
0.527325
0.504734
0.489192
0.474439
0.449771
0.415804
0.374961
0.329558
0.286519
0.250858
0.221777
0.199063
0.185775
0.174238
0.173111
0.175322
0.181552
0.192887
0.216859
0.250332
0.295535
0.361671
0.451014
0.512974
0.545579
0.569324
0.583888
0.591029
0.593417
0.592772
0.590107
0.590539
0.597168
0.618321
0.658506
0.711435
0.75834
0.794925
0.826323
0.857569
0.883091
0.90169
0.912995
0.915767
0.909942
0.888403
0.848872
0.789925
0.714256
0.644466
0.604713
0.588754
0.589955
0.614149
0.721873
0.870567
0.928621
0.938221
0.925055
0.882709
0.855629
0.847827
0.851305
0.887908
0.946485
0.977204
0.990968
0.996662
0.998846
0.999615
0.999871
0.999954
0.999981
0.99999
0.999993
0.999994
0.999995
0.999996
0.999997
0.999997
0.999998
0.999999
0.999999
0.999999
1
1
1
1
1
1
1
1
1
0.999999
0.999997
0.999984
0.999924
0.999646
0.998386
0.992878
0.969749
0.876515
0.632073
0.410819
0.251143
0.145268
0.0799113
0.0419744
0.0211205
0.0102072
0.00474817
0.00212981
0.000922602
0.000386471
0.000156731
6.15994e-05
2.34851e-05
8.69313e-06
3.12659e-06
1.09344e-06
3.72089e-07
1.23282e-07
3.97931e-08
1.25203e-08
3.84182e-09
1.15022e-09
3.3616e-10
9.59485e-11
2.67585e-11
7.29471e-12
1.94476e-12
5.07242e-13
1.29488e-13
3.23619e-14
7.92012e-15
1.89857e-15
4.45883e-16
1.02613e-16
2.31454e-17
5.11779e-18
1.10953e-18
2.35885e-19
4.91876e-20
1.00617e-20
2.01964e-21
3.97889e-22
7.69759e-23
1.46426e-23
0.0243557
0.00839384
0.0721149
0.361235
0.664523
0.715404
0.719421
0.713578
0.703243
0.700177
0.702531
0.723739
0.742536
0.752464
0.764878
0.769047
0.77085
0.77128
0.770325
0.765223
0.751969
0.727151
0.694343
0.662057
0.643971
0.634221
0.628184
0.622422
0.615783
0.607264
0.594586
0.574919
0.544565
0.51604
0.49459
0.478358
0.458038
0.432001
0.401599
0.367494
0.331931