/*--------------------------------*- C++ -*----------------------------------*\
  =========                 |
  \\      /  F ield         | OpenFOAM: The Open Source CFD Toolbox
   \\    /   O peration     | Website:  https://openfoam.org
    \\  /    A nd           | Version:  9
     \\/     M anipulation  |
\*---------------------------------------------------------------------------*/
FoamFile
{
    format      ascii;
    class       volSymmTensorField;
    location    "0.024";
    object      UPrime2Mean;
}
// * * * * * * * * * * * * * * * * * * * * * * * * * * * * * * * * * * * * * //

dimensions      [0 2 -2 0 0 0 0];

internalField   nonuniform List<symmTensor> 
12225
(
(-48.4127 -0.256446 0 0.000865593 0 0)
(-45.4524 -0.319424 0 -0.00126136 0 0)
(-42.5703 -0.295582 0 -0.00135014 0 0)
(-39.7583 -0.275781 0 -0.001347 0 0)
(-37.0621 -0.263158 0 -0.00137701 0 0)
(-34.5283 -0.25233 0 -0.00139614 0 0)
(-32.1322 -0.244293 0 -0.00142971 0 0)
(-29.8785 -0.235262 0 -0.00145376 0 0)
(-27.6954 -0.229826 0 -0.00146633 0 0)
(-25.6436 -0.220198 0 -0.00148498 0 0)
(-23.5886 -0.220361 0 -0.00147889 0 0)
(-21.6957 -0.210021 0 -0.00155308 0 0)
(-19.6587 -0.225865 0 -0.00146526 0 0)
(-17.8635 -0.208338 0 -0.00170243 0 0)
(-15.6639 -0.262041 0 -0.00104716 0 0)
(-13.8589 -0.217514 0 -0.0017524 0 0)
(-11.1816 -0.389723 0 0.00302432 0 0)
(-9.05651 -0.299811 0 -0.00233289 0 0)
(-49.597 -0.245007 0 0.00156929 0 0)
(-50.1516 -0.354034 0 -0.00118376 0 0)
(-50.4969 -0.360295 0 -0.00179284 0 0)
(-50.6144 -0.376105 0 -0.00220948 0 0)
(-50.547 -0.398689 0 -0.00265122 0 0)
(-50.3511 -0.419155 0 -0.00303104 0 0)
(-50.046 -0.433701 0 -0.00332538 0 0)
(-49.653 -0.453608 0 -0.00363714 0 0)
(-49.1487 -0.472185 0 -0.00396871 0 0)
(-48.5561 -0.503218 0 -0.00434739 0 0)
(-47.826 -0.526742 0 -0.00478009 0 0)
(-47.0186 -0.571761 0 -0.00515245 0 0)
(-46.0321 -0.604129 0 -0.00580056 0 0)
(-44.9897 -0.677395 0 -0.00604269 0 0)
(-43.6697 -0.738687 0 -0.00729397 0 0)
(-42.2959 -0.87448 0 -0.00670406 0 0)
(-40.4671 -1.04617 0 -0.00858437 0 0)
(-38.5846 -1.37782 0 0.00119289 0 0)
(-49.8515 -0.199121 0 0.00265285 0 0)
(-50.0976 -0.286734 0 0.000183001 0 0)
(-50.3211 -0.304815 0 -0.000612877 0 0)
(-50.4615 -0.318283 0 -0.00102782 0 0)
(-50.533 -0.345537 0 -0.00148752 0 0)
(-50.5667 -0.377039 0 -0.00196076 0 0)
(-50.5702 -0.408872 0 -0.00239267 0 0)
(-50.5478 -0.441025 0 -0.00283665 0 0)
(-50.4878 -0.47899 0 -0.00325548 0 0)
(-50.3876 -0.519862 0 -0.00378271 0 0)
(-50.2265 -0.571526 0 -0.00417995 0 0)
(-50.001 -0.626042 0 -0.00483227 0 0)
(-49.6922 -0.70345 0 -0.00506689 0 0)
(-49.2986 -0.786644 0 -0.00598161 0 0)
(-48.8079 -0.920458 0 -0.00566669 0 0)
(-48.2109 -1.08063 0 -0.0063884 0 0)
(-47.5437 -1.35725 0 -0.00268646 0 0)
(-46.8171 -1.74115 0 0.00959029 0 0)
(-50.2086 -0.161058 0 0.00296893 0 0)
(-50.4201 -0.294856 0 0.000215781 0 0)
(-50.5878 -0.325179 0 -0.000825669 0 0)
(-50.682 -0.342927 0 -0.00130909 0 0)
(-50.7137 -0.372782 0 -0.00181095 0 0)
(-50.7034 -0.406317 0 -0.00230743 0 0)
(-50.6593 -0.435848 0 -0.00272911 0 0)
(-50.5817 -0.467512 0 -0.00310276 0 0)
(-50.4714 -0.504072 0 -0.00350123 0 0)
(-50.3276 -0.552372 0 -0.00393047 0 0)
(-50.1483 -0.609232 0 -0.00444685 0 0)
(-49.9259 -0.681182 0 -0.00489623 0 0)
(-49.6555 -0.767144 0 -0.00537484 0 0)
(-49.3308 -0.878029 0 -0.00553434 0 0)
(-48.9497 -1.02295 0 -0.00534176 0 0)
(-48.5222 -1.21963 0 -0.00374781 0 0)
(-48.0692 -1.49486 0 0.00187109 0 0)
(-47.6549 -1.85521 0 0.0159111 0 0)
(-49.8961 -0.132288 0 0.00373825 0 0)
(-50.053 -0.264632 0 0.00129176 0 0)
(-50.1921 -0.295072 0 -1.98122e-05 0 0)
(-50.2781 -0.31113 0 -0.000581839 0 0)
(-50.3195 -0.34224 0 -0.00105599 0 0)
(-50.3371 -0.383731 0 -0.00156017 0 0)
(-50.3339 -0.427951 0 -0.00205039 0 0)
(-50.3027 -0.47339 0 -0.00251857 0 0)
(-50.2374 -0.522885 0 -0.00293066 0 0)
(-50.1357 -0.57865 0 -0.00332387 0 0)
(-49.9939 -0.644152 0 -0.00361812 0 0)
(-49.809 -0.722237 0 -0.00383108 0 0)
(-49.5754 -0.819032 0 -0.00377853 0 0)
(-49.2949 -0.941048 0 -0.00330084 0 0)
(-48.9661 -1.09847 0 -0.00192138 0 0)
(-48.611 -1.30638 0 0.00177147 0 0)
(-48.2423 -1.57203 0 0.00960865 0 0)
(-47.9183 -1.90724 0 0.0280239 0 0)
(-50.065 -0.123875 0 0.00546301 0 0)
(-50.192 -0.255189 0 0.00236487 0 0)
(-50.3105 -0.307232 0 0.000501099 0 0)
(-50.3825 -0.335793 0 -0.000359147 0 0)
(-50.3998 -0.365241 0 -0.000974201 0 0)
(-50.3855 -0.4 0 -0.00149635 0 0)
(-50.3555 -0.438522 0 -0.00193328 0 0)
(-50.3074 -0.482318 0 -0.00230476 0 0)
(-50.2292 -0.534186 0 -0.0026376 0 0)
(-50.1122 -0.597234 0 -0.00293786 0 0)
(-49.9513 -0.673493 0 -0.00314698 0 0)
(-49.7488 -0.765793 0 -0.00316289 0 0)
(-49.5042 -0.878091 0 -0.00277535 0 0)
(-49.2254 -1.01637 0 -0.00166312 0 0)
(-48.9134 -1.18775 0 0.000860944 0 0)
(-48.5891 -1.40236 0 0.00609433 0 0)
(-48.2627 -1.66363 0 0.016279 0 0)
(-47.9796 -1.97791 0 0.0357263 0 0)
(-49.5875 -0.0950052 0 0.00436959 0 0)
(-49.6831 -0.203965 0 0.00277095 0 0)
(-49.8238 -0.262376 0 0.0011853 0 0)
(-49.9467 -0.298474 0 0.000354119 0 0)
(-50.0072 -0.336143 0 -0.000197332 0 0)
(-50.0191 -0.381538 0 -0.000663834 0 0)
(-50.0058 -0.433369 0 -0.0010846 0 0)
(-49.9749 -0.491685 0 -0.00146483 0 0)
(-49.9222 -0.55768 0 -0.00178715 0 0)
(-49.8432 -0.632998 0 -0.00197711 0 0)
(-49.7362 -0.719263 0 -0.00192548 0 0)
(-49.6022 -0.820114 0 -0.00146498 0 0)
(-49.4399 -0.939718 0 -0.000378681 0 0)
(-49.2507 -1.08504 0 0.00179118 0 0)
(-49.0344 -1.26114 0 0.00571308 0 0)
(-48.8028 -1.47606 0 0.0128043 0 0)
(-48.5674 -1.73007 0 0.0249088 0 0)
(-48.3575 -2.02649 0 0.0449805 0 0)
(-49.8156 -0.107086 0 0.00607286 0 0)
(-49.8612 -0.198761 0 0.00330781 0 0)
(-49.9179 -0.27425 0 0.00147204 0 0)
(-49.9736 -0.326826 0 0.000667289 0 0)
(-49.986 -0.366609 0 0.000154157 0 0)
(-49.9582 -0.404685 0 -0.000274161 0 0)
(-49.9126 -0.448312 0 -0.000637119 0 0)
(-49.8596 -0.501363 0 -0.000901173 0 0)
(-49.7923 -0.565518 0 -0.00105266 0 0)
(-49.7028 -0.641779 0 -0.00102923 0 0)
(-49.5862 -0.731807 0 -0.000707211 0 0)
(-49.4474 -0.839361 0 0.000110377 0 0)
(-49.2879 -0.968548 0 0.0017051 0 0)
(-49.1186 -1.12495 0 0.00459155 0 0)
(-48.9377 -1.31151 0 0.009504 0 0)
(-48.7644 -1.53281 0 0.0177607 0 0)
(-48.5931 -1.78683 0 0.0308688 0 0)
(-48.4629 -2.07438 0 0.050975 0 0)
(-49.821 -0.0627252 0 0.00597456 0 0)
(-49.8473 -0.165473 0 0.00349701 0 0)
(-49.8622 -0.239699 0 0.00183369 0 0)
(-49.9193 -0.296413 0 0.000953738 0 0)
(-49.9794 -0.344857 0 0.000426595 0 0)
(-49.9989 -0.39343 0 1.91334e-05 0 0)
(-49.9645 -0.447901 0 -0.000290594 0 0)
(-49.8856 -0.512793 0 -0.000460668 0 0)
(-49.7743 -0.590145 0 -0.000471335 0 0)
(-49.6407 -0.680007 0 -0.000225257 0 0)
(-49.4884 -0.781594 0 0.000476016 0 0)
(-49.3238 -0.896927 0 0.00188537 0 0)
(-49.1484 -1.02905 0 0.00430811 0 0)
(-48.9716 -1.1841 0 0.00827059 0 0)
(-48.7938 -1.36516 0 0.0144824 0 0)
(-48.6316 -1.57728 0 0.0240508 0 0)
(-48.4836 -1.81764 0 0.0381557 0 0)
(-48.3773 -2.08765 0 0.0582809 0 0)
(-49.7183 -0.0994886 0 0.00570409 0 0)
(-49.7673 -0.178272 0 0.00333419 0 0)
(-49.8176 -0.25693 0 0.00210814 0 0)
(-49.8713 -0.311615 0 0.00137559 0 0)
(-49.9048 -0.357149 0 0.000781929 0 0)
(-49.8983 -0.409565 0 0.00039003 0 0)
(-49.8529 -0.472081 0 0.00021195 0 0)
(-49.7876 -0.544062 0 0.000231731 0 0)
(-49.7186 -0.624362 0 0.000487142 0 0)
(-49.6513 -0.713436 0 0.00108424 0 0)
(-49.58 -0.813295 0 0.00218285 0 0)
(-49.4989 -0.928465 0 0.00404758 0 0)
(-49.4021 -1.06299 0 0.00704784 0 0)
(-49.2922 -1.22171 0 0.0117215 0 0)
(-49.1725 -1.40585 0 0.018737 0 0)
(-49.0553 -1.61722 0 0.0290259 0 0)
(-48.9487 -1.85208 0 0.0435184 0 0)
(-48.8685 -2.10979 0 0.0631758 0 0)
(-49.6763 -0.0527954 0 0.00607987 0 0)
(-49.7196 -0.145201 0 0.00459811 0 0)
(-49.7666 -0.21668 0 0.00286205 0 0)
(-49.8322 -0.283981 0 0.00185453 0 0)
(-49.8874 -0.349277 0 0.00136643 0 0)
(-49.9081 -0.411815 0 0.0012236 0 0)
(-49.893 -0.475101 0 0.00126118 0 0)
(-49.8544 -0.544597 0 0.00145928 0 0)
(-49.8014 -0.624447 0 0.00193747 0 0)
(-49.7354 -0.717567 0 0.00287252 0 0)
(-49.6552 -0.82551 0 0.00447083 0 0)
(-49.5598 -0.950366 0 0.00699723 0 0)
(-49.4541 -1.09332 0 0.0108027 0 0)
(-49.3443 -1.25673 0 0.0163817 0 0)
(-49.2419 -1.44065 0 0.0243078 0 0)
(-49.1539 -1.64653 0 0.0353502 0 0)
(-49.0911 -1.87081 0 0.0501676 0 0)
(-49.0567 -2.11395 0 0.0694655 0 0)
(-50.5144 -0.0471916 0 0.00604599 0 0)
(-50.4941 -0.15656 0 0.00535319 0 0)
(-50.4472 -0.22091 0 0.0034241 0 0)
(-50.4275 -0.278504 0 0.00206022 0 0)
(-50.428 -0.340105 0 0.00141989 0 0)
(-50.4256 -0.407243 0 0.00125774 0 0)
(-50.4027 -0.481364 0 0.00133821 0 0)
(-50.3542 -0.563485 0 0.0016408 0 0)
(-50.2843 -0.653904 0 0.00229685 0 0)
(-50.2007 -0.753448 0 0.00349793 0 0)
(-50.1108 -0.863764 0 0.0054521 0 0)
(-50.02 -0.987707 0 0.0084121 0 0)
(-49.9325 -1.12752 0 0.0127073 0 0)
(-49.8529 -1.28584 0 0.018792 0 0)
(-49.786 -1.46273 0 0.0271512 0 0)
(-49.7414 -1.65967 0 0.0384235 0 0)
(-49.7207 -1.87251 0 0.0530778 0 0)
(-49.7392 -2.1028 0 0.0716031 0 0)
(-49.3073 -0.0829889 0 0.00715552 0 0)
(-49.3202 -0.144676 0 0.0055303 0 0)
(-49.3658 -0.230308 0 0.00349711 0 0)
(-49.4187 -0.305427 0 0.00259655 0 0)
(-49.46 -0.367428 0 0.0023088 0 0)
(-49.4856 -0.42767 0 0.00234151 0 0)
(-49.4934 -0.496173 0 0.00258561 0 0)
(-49.4861 -0.575797 0 0.00309302 0 0)
(-49.4671 -0.665729 0 0.00401988 0 0)
(-49.4409 -0.766315 0 0.00556831 0 0)
(-49.4085 -0.878882 0 0.00795141 0 0)
(-49.3731 -1.0058 0 0.0114276 0 0)
(-49.3356 -1.14759 0 0.0163018 0 0)
(-49.3054 -1.30573 0 0.0229721 0 0)
(-49.2857 -1.47793 0 0.0318333 0 0)
(-49.2922 -1.66598 0 0.0433953 0 0)
(-49.3205 -1.86424 0 0.05793 0 0)
(-49.3925 -2.0771 0 0.0758527 0 0)
(-50.0768 -0.0473871 0 0.009032 0 0)
(-50.1194 -0.0986788 0 0.00606996 0 0)
(-50.1648 -0.173234 0 0.00404895 0 0)
(-50.2097 -0.247837 0 0.00331572 0 0)
(-50.2387 -0.317851 0 0.00296065 0 0)
(-50.2488 -0.391381 0 0.00294808 0 0)
(-50.2396 -0.474827 0 0.00324914 0 0)
(-50.2115 -0.567619 0 0.00391409 0 0)
(-50.1693 -0.666998 0 0.00510235 0 0)
(-50.1211 -0.77296 0 0.00698772 0 0)
(-50.0752 -0.887034 0 0.00975529 0 0)
(-50.0393 -1.01175 0 0.0136528 0 0)
(-50.0193 -1.14782 0 0.0189501 0 0)
(-50.0197 -1.29701 0 0.0259804 0 0)
(-50.043 -1.45757 0 0.0350225 0 0)
(-50.0899 -1.63181 0 0.0464627 0 0)
(-50.1622 -1.81484 0 0.0604788 0 0)
(-50.2571 -2.01161 0 0.0773589 0 0)
(-49.882 -0.0536045 0 0.00866306 0 0)
(-49.8834 -0.146543 0 0.00735028 0 0)
(-49.8794 -0.229063 0 0.00509209 0 0)
(-49.8816 -0.298002 0 0.00429254 0 0)
(-49.8883 -0.363415 0 0.00418768 0 0)
(-49.8969 -0.433695 0 0.00445357 0 0)
(-49.9065 -0.511794 0 0.00503673 0 0)
(-49.9197 -0.598596 0 0.00601929 0 0)
(-49.937 -0.693554 0 0.00757914 0 0)
(-49.9562 -0.796186 0 0.00990321 0 0)
(-49.9743 -0.905671 0 0.0131417 0 0)
(-49.9928 -1.02318 0 0.0174665 0 0)
(-50.0145 -1.14926 0 0.0230771 0 0)
(-50.046 -1.28668 0 0.0302777 0 0)
(-50.0897 -1.43421 0 0.0393007 0 0)
(-50.1515 -1.59426 0 0.0504932 0 0)
(-50.2311 -1.7615 0 0.0639155 0 0)
(-50.3346 -1.94004 0 0.0798238 0 0)
(-50.2331 -0.011635 0 0.0117634 0 0)
(-50.323 -0.0947931 0 0.0116259 0 0)
(-50.3969 -0.164999 0 0.00954524 0 0)
(-50.4741 -0.232387 0 0.00817152 0 0)
(-50.5342 -0.307635 0 0.00758377 0 0)
(-50.5696 -0.387375 0 0.00751361 0 0)
(-50.592 -0.469095 0 0.00789105 0 0)
(-50.6151 -0.556044 0 0.00882714 0 0)
(-50.6469 -0.651711 0 0.0104811 0 0)
(-50.6877 -0.757098 0 0.0130043 0 0)
(-50.735 -0.870456 0 0.01652 0 0)
(-50.7867 -0.99076 0 0.0211448 0 0)
(-50.8443 -1.11665 0 0.0269999 0 0)
(-50.9097 -1.24946 0 0.034268 0 0)
(-50.9877 -1.38806 0 0.043047 0 0)
(-51.0798 -1.53493 0 0.0536511 0 0)
(-51.1903 -1.68588 0 0.0660583 0 0)
(-51.3179 -1.84512 0 0.0804275 0 0)
(-50.1064 0.00374808 0 0.0120868 0 0)
(-50.0744 -0.0758639 0 0.0117083 0 0)
(-50.0637 -0.152337 0 0.008012 0 0)
(-50.1042 -0.235799 0 0.00606078 0 0)
(-50.1644 -0.321647 0 0.00574646 0 0)
(-50.2188 -0.404089 0 0.0064891 0 0)
(-50.2678 -0.482232 0 0.00770062 0 0)
(-50.3191 -0.560223 0 0.00915716 0 0)
(-50.3755 -0.643164 0 0.0110405 0 0)
(-50.4393 -0.734448 0 0.0136581 0 0)
(-50.5115 -0.833957 0 0.0172212 0 0)
(-50.5952 -0.941131 0 0.0218725 0 0)
(-50.6897 -1.05367 0 0.027672 0 0)
(-50.7987 -1.17216 0 0.0347414 0 0)
(-50.9191 -1.29417 0 0.0430852 0 0)
(-51.0594 -1.42249 0 0.0529257 0 0)
(-51.2113 -1.55178 0 0.0641426 0 0)
(-51.392 -1.68799 0 0.0769837 0 0)
(-49.8961 -0.0604353 0 0.0112517 0 0)
(-49.8631 -0.0916551 0 0.0113348 0 0)
(-49.8452 -0.143266 0 0.00930402 0 0)
(-49.8751 -0.201341 0 0.0084103 0 0)
(-49.9433 -0.261488 0 0.00848567 0 0)
(-50.0314 -0.328829 0 0.00912585 0 0)
(-50.1218 -0.405975 0 0.0100433 0 0)
(-50.2069 -0.490599 0 0.011282 0 0)
(-50.2875 -0.578997 0 0.0130744 0 0)
(-50.3697 -0.669761 0 0.0156197 0 0)
(-50.4586 -0.76252 0 0.0189948 0 0)
(-50.56 -0.858321 0 0.0232349 0 0)
(-50.675 -0.956358 0 0.0283375 0 0)
(-50.807 -1.05738 0 0.0343947 0 0)
(-50.9535 -1.15876 0 0.041355 0 0)
(-51.1192 -1.26278 0 0.0494306 0 0)
(-51.2975 -1.36474 0 0.0584861 0 0)
(-51.4972 -1.47056 0 0.0686821 0 0)
(-49.7477 -0.0268452 0 0.0119806 0 0)
(-49.8183 -0.0506658 0 0.0109075 0 0)
(-49.8846 -0.0974332 0 0.00781348 0 0)
(-49.9619 -0.153606 0 0.00664184 0 0)
(-50.0457 -0.212635 0 0.00663588 0 0)
(-50.1346 -0.274885 0 0.0073265 0 0)
(-50.2305 -0.342372 0 0.00856621 0 0)
(-50.3366 -0.415484 0 0.0102576 0 0)
(-50.4537 -0.491959 0 0.0123557 0 0)
(-50.5804 -0.569354 0 0.014895 0 0)
(-50.714 -0.645694 0 0.0179223 0 0)
(-50.8541 -0.721025 0 0.0214975 0 0)
(-51.0007 -0.794892 0 0.0256522 0 0)
(-51.156 -0.869182 0 0.0304861 0 0)
(-51.3198 -0.942984 0 0.0359803 0 0)
(-51.4944 -1.01916 0 0.0423085 0 0)
(-51.6777 -1.09394 0 0.0493017 0 0)
(-51.8735 -1.1721 0 0.0571479 0 0)
(-49.9172 0.046341 0 0.0130461 0 0)
(-49.9794 -0.010131 0 0.0125487 0 0)
(-50.049 -0.0509653 0 0.00860615 0 0)
(-50.1274 -0.0928851 0 0.0067688 0 0)
(-50.2121 -0.140627 0 0.00642079 0 0)
(-50.3097 -0.191136 0 0.00681533 0 0)
(-50.4234 -0.244038 0 0.00760975 0 0)
(-50.5513 -0.301159 0 0.00868819 0 0)
(-50.6901 -0.363282 0 0.0100637 0 0)
(-50.8369 -0.429646 0 0.0118215 0 0)
(-50.989 -0.49791 0 0.0140354 0 0)
(-51.1438 -0.566328 0 0.0167461 0 0)
(-51.3007 -0.632805 0 0.0199308 0 0)
(-51.4612 -0.697492 0 0.0235835 0 0)
(-51.6271 -0.759157 0 0.0276186 0 0)
(-51.8003 -0.819459 0 0.0321367 0 0)
(-51.981 -0.875845 0 0.0370076 0 0)
(-52.1703 -0.931263 0 0.042314 0 0)
(-50.2335 0.0519162 0 0.0101467 0 0)
(-50.248 0.0192747 0 0.00954587 0 0)
(-50.2891 -0.0168831 0 0.00733106 0 0)
(-50.3858 -0.0562158 0 0.00609338 0 0)
(-50.5101 -0.0926501 0 0.00569073 0 0)
(-50.6351 -0.126181 0 0.00592076 0 0)
(-50.7527 -0.163234 0 0.00661849 0 0)
(-50.8665 -0.208371 0 0.00767359 0 0)
(-50.9861 -0.261151 0 0.00897955 0 0)
(-51.1204 -0.318655 0 0.0105356 0 0)
(-51.2727 -0.377572 0 0.0124017 0 0)
(-51.44 -0.435809 0 0.0146336 0 0)
(-51.6175 -0.491331 0 0.0172178 0 0)
(-51.8007 -0.543711 0 0.0201312 0 0)
(-51.989 -0.591697 0 0.0232837 0 0)
(-52.1805 -0.636774 0 0.0267234 0 0)
(-52.3771 -0.677356 0 0.0303456 0 0)
(-52.5761 -0.716887 0 0.0342412 0 0)
(-50.6729 0.0434389 0 0.0113156 0 0)
(-50.6538 0.0530222 0 0.008286 0 0)
(-50.6581 0.0375697 0 0.00509817 0 0)
(-50.7335 0.00841946 0 0.00438573 0 0)
(-50.8424 -0.0264143 0 0.00448313 0 0)
(-50.9519 -0.0665469 0 0.00485365 0 0)
(-51.0584 -0.110455 0 0.0053774 0 0)
(-51.1687 -0.155012 0 0.00607107 0 0)
(-51.2894 -0.197498 0 0.0069453 0 0)
(-51.4247 -0.237866 0 0.00798906 0 0)
(-51.5748 -0.277789 0 0.00922863 0 0)
(-51.7377 -0.319101 0 0.0107172 0 0)
(-51.9101 -0.36175 0 0.0124688 0 0)
(-52.0924 -0.405007 0 0.0144869 0 0)
(-52.2825 -0.446463 0 0.0167113 0 0)
(-52.4817 -0.485689 0 0.0191816 0 0)
(-52.6842 -0.520453 0 0.0217925 0 0)
(-52.893 -0.552785 0 0.024565 0 0)
(-49.566 0.0333257 0 0.00907903 0 0)
(-49.5878 0.03182 0 0.00601708 0 0)
(-49.6127 0.0355124 0 0.00361031 0 0)
(-49.6805 0.0273641 0 0.00306933 0 0)
(-49.7758 0.00604019 0 0.00323467 0 0)
(-49.8863 -0.022726 0 0.00358845 0 0)
(-50.014 -0.0532978 0 0.00401257 0 0)
(-50.1608 -0.0839288 0 0.00454745 0 0)
(-50.3233 -0.115917 0 0.00523738 0 0)
(-50.4988 -0.150499 0 0.00610184 0 0)
(-50.6852 -0.186674 0 0.00713965 0 0)
(-50.8811 -0.222524 0 0.00835427 0 0)
(-51.0839 -0.255881 0 0.00972353 0 0)
(-51.2932 -0.286247 0 0.0112286 0 0)
(-51.5065 -0.313038 0 0.0128165 0 0)
(-51.7237 -0.337915 0 0.0145268 0 0)
(-51.9408 -0.360177 0 0.0163171 0 0)
(-52.1594 -0.382629 0 0.0182565 0 0)
(-50.2365 0.063447 0 0.0084834 0 0)
(-50.2975 0.0491136 0 0.00590334 0 0)
(-50.3968 0.0583342 0 0.00415507 0 0)
(-50.5223 0.0601936 0 0.00373765 0 0)
(-50.6405 0.0479005 0 0.00389963 0 0)
(-50.7492 0.0277715 0 0.00413352 0 0)
(-50.8612 0.00523677 0 0.00436743 0 0)
(-50.9848 -0.0168135 0 0.00466548 0 0)
(-51.123 -0.0383512 0 0.00506246 0 0)
(-51.2768 -0.0605419 0 0.00557555 0 0)
(-51.4468 -0.083913 0 0.00620562 0 0)
(-51.6312 -0.108502 0 0.00695148 0 0)
(-51.8268 -0.13368 0 0.00781049 0 0)
(-52.0287 -0.159202 0 0.00878776 0 0)
(-52.2338 -0.184015 0 0.00985557 0 0)
(-52.4378 -0.208032 0 0.0110401 0 0)
(-52.6406 -0.229818 0 0.0122968 0 0)
(-52.8386 -0.250003 0 0.013606 0 0)
(-49.9041 0.0915616 0 0.00733392 0 0)
(-50.0007 0.111632 0 0.00488215 0 0)
(-50.1609 0.11549 0 0.003189 0 0)
(-50.3473 0.107293 0 0.00267328 0 0)
(-50.5136 0.0889041 0 0.00259787 0 0)
(-50.6612 0.0685607 0 0.00269218 0 0)
(-50.8101 0.0508192 0 0.00289462 0 0)
(-50.9709 0.0350495 0 0.00316651 0 0)
(-51.1444 0.0195965 0 0.00349419 0 0)
(-51.3275 0.00358157 0 0.00388756 0 0)
(-51.5161 -0.0127752 0 0.00434911 0 0)
(-51.7073 -0.0293789 0 0.00487889 0 0)
(-51.8995 -0.0461641 0 0.00547746 0 0)
(-52.0925 -0.0635227 0 0.00615387 0 0)
(-52.2872 -0.0811553 0 0.0068925 0 0)
(-52.4837 -0.0989079 0 0.0077198 0 0)
(-52.6817 -0.115594 0 0.00859718 0 0)
(-52.8803 -0.13124 0 0.00952125 0 0)
(-49.8636 0.0763119 0 0.00713573 0 0)
(-49.9752 0.133063 0 0.0046803 0 0)
(-50.13 0.150379 0 0.00267571 0 0)
(-50.2964 0.14389 0 0.00200563 0 0)
(-50.4446 0.128311 0 0.0018635 0 0)
(-50.5794 0.112503 0 0.00193115 0 0)
(-50.722 0.100435 0 0.00208831 0 0)
(-50.886 0.0912488 0 0.00225628 0 0)
(-51.0717 0.0820347 0 0.00242633 0 0)
(-51.2734 0.070678 0 0.00262878 0 0)
(-51.4842 0.0568346 0 0.002882 0 0)
(-51.7001 0.0411635 0 0.00318483 0 0)
(-51.9192 0.024845 0 0.00353307 0 0)
(-52.1411 0.00865332 0 0.00393039 0 0)
(-52.365 -0.0067233 0 0.00436435 0 0)
(-52.5901 -0.0211111 0 0.00485647 0 0)
(-52.8142 -0.0338251 0 0.00538183 0 0)
(-53.037 -0.0452178 0 0.00592388 0 0)
(-49.7736 0.134122 0 0.00549821 0 0)
(-49.9382 0.190771 0 0.0031778 0 0)
(-50.1111 0.204627 0 0.00191135 0 0)
(-50.2716 0.189408 0 0.00147615 0 0)
(-50.4221 0.170623 0 0.00131696 0 0)
(-50.5778 0.158614 0 0.00131189 0 0)
(-50.7453 0.154188 0 0.00133243 0 0)
(-50.9199 0.153877 0 0.00129127 0 0)
(-51.0932 0.153082 0 0.00125611 0 0)
(-51.2607 0.149225 0 0.00130207 0 0)
(-51.4234 0.142436 0 0.00142889 0 0)
(-51.5857 0.134032 0 0.00160974 0 0)
(-51.7526 0.125061 0 0.00182774 0 0)
(-51.928 0.115775 0 0.00208024 0 0)
(-52.1135 0.106206 0 0.00236305 0 0)
(-52.3095 0.096176 0 0.00268794 0 0)
(-52.5132 0.0862442 0 0.00303814 0 0)
(-52.7241 0.0763245 0 0.00340747 0 0)
(-50.0825 0.131963 0 0.00390057 0 0)
(-50.1658 0.186557 0 0.00148111 0 0)
(-50.2615 0.195765 0 0.000636456 0 0)
(-50.3629 0.191068 0 0.000365414 0 0)
(-50.4791 0.18821 0 0.000237043 0 0)
(-50.6173 0.186531 0 0.000189891 0 0)
(-50.774 0.183394 0 0.000197272 0 0)
(-50.9421 0.178281 0 0.000232698 0 0)
(-51.1162 0.171004 0 0.000285744 0 0)
(-51.293 0.161761 0 0.00035553 0 0)
(-51.4711 0.151902 0 0.000442774 0 0)
(-51.6508 0.143198 0 0.000546153 0 0)
(-51.8345 0.136455 0 0.000659397 0 0)
(-52.0238 0.131758 0 0.000774608 0 0)
(-52.2214 0.128555 0 0.000888387 0 0)
(-52.4258 0.126445 0 0.0010113 0 0)
(-52.6392 0.125061 0 0.00114365 0 0)
(-52.856 0.124088 0 0.00129235 0 0)
(-50.1577 0.174462 0 0.00356483 0 0)
(-50.5354 0.250475 0 0.000655451 0 0)
(-50.8574 0.244603 0 0.000109673 0 0)
(-51.077 0.236254 0 -2.34305e-06 0 0)
(-51.2282 0.23541 0 -7.2362e-05 0 0)
(-51.3636 0.237143 0 -0.000135446 0 0)
(-51.5071 0.240337 0 -0.000202752 0 0)
(-51.655 0.244214 0 -0.000269877 0 0)
(-51.7944 0.246291 0 -0.000296932 0 0)
(-51.9199 0.24509 0 -0.000267305 0 0)
(-52.0318 0.241442 0 -0.000201402 0 0)
(-52.1362 0.237691 0 -0.000128605 0 0)
(-52.2342 0.235139 0 -6.59541e-05 0 0)
(-52.3302 0.234282 0 -2.32929e-05 0 0)
(-52.4185 0.234203 0 2.56074e-06 0 0)
(-52.5044 0.234581 0 3.14464e-05 0 0)
(-52.5774 0.234597 0 7.37079e-05 0 0)
(-52.6513 0.234685 0 0.000115014 0 0)
(-48.8736 0.198165 0 0.0018746 0 0)
(-47.1794 0.25789 0 7.36003e-05 0 0)
(-45.5067 0.24352 0 -0.000172301 0 0)
(-43.9253 0.225059 0 -0.000228408 0 0)
(-42.4668 0.214656 0 -0.000271355 0 0)
(-41.1108 0.210398 0 -0.000322775 0 0)
(-39.8273 0.207454 0 -0.000384969 0 0)
(-38.6085 0.201602 0 -0.000402244 0 0)
(-37.4656 0.191756 0 -0.00037788 0 0)
(-36.4123 0.17976 0 -0.000347116 0 0)
(-35.4482 0.168215 0 -0.000317365 0 0)
(-34.5655 0.158873 0 -0.000287997 0 0)
(-33.7466 0.151781 0 -0.000262574 0 0)
(-32.9854 0.146358 0 -0.000244491 0 0)
(-32.2656 0.141622 0 -0.000228452 0 0)
(-31.5953 0.137386 0 -0.000208726 0 0)
(-30.9529 0.133234 0 -0.000185762 0 0)
(-30.3642 0.129789 0 -0.000169428 0 0)
(0.00483474 -0.00849124 3.33901e-23 0.0143019 -1.00039e-22 4.40362e-39)
(0.0134175 -0.00113993 -1.61803e-22 -0.00908625 1.87314e-22 4.33737e-39)
(0.0065429 0.0151324 0 -0.0172945 0 0)
(-0.00892026 0.0255695 0 -0.0168953 0 0)
(-0.0221312 0.0295585 0 -0.0142943 0 0)
(-0.0248179 0.028341 8.39411e-22 -0.0111285 -2.10162e-22 4.06729e-39)
(-0.00997401 0.0226064 0 -0.00765255 0 0)
(0.0294538 0.012436 0 -0.00391733 0 0)
(0.100034 -0.00216257 0 -2.13274e-05 0 0)
(0.209393 -0.0211106 0 0.00385731 0 0)
(0.364873 -0.0440887 -1.61789e-21 0.00746539 1.36811e-22 3.75107e-39)
(0.573672 -0.070398 0 0.0104705 0 0)
(0.83987 -0.0986289 0 0.0124425 0 0)
(1.16531 -0.126697 0 0.0129568 0 0)
(1.54543 -0.151287 0 0.0114892 0 0)
(1.96866 -0.168641 -1.81951e-21 0.00789957 -6.92851e-23 3.4634e-39)
(2.4148 -0.174539 0 0.00212691 0 0)
(2.85601 -0.166716 0 -0.00509153 0 0)
(3.26004 -0.145865 0 -0.0129801 0 0)
(3.59485 -0.115088 0 -0.0191911 0 0)
(3.83787 -0.0832981 0 -0.0237823 0 0)
(3.99293 -0.0671768 0 -0.0162312 0 0)
(4.03883 -0.0717622 0 -0.00758776 0 0)
(4.18338 -0.187303 -6.18723e-22 0.0481435 -7.23217e-23 3.05469e-39)
(4.1906 -0.225764 4.80859e-22 0.0638417 9.31753e-23 3.00496e-39)
(4.66185 -0.596042 -5.60796e-22 0.166714 1.39094e-22 2.95316e-39)
(5.45189 -1.07898 -6.97532e-22 0.382551 3.93315e-22 2.90105e-39)
(6.12751 -1.55902 0 0.655842 0 0)
(6.17184 -1.65784 0 0.837876 0 0)
(5.37232 -0.898885 9.4211e-23 0.67754 1.06134e-22 2.74763e-39)
(3.24855 0.851571 -4.73575e-22 0.0121603 6.68565e-22 2.69553e-39)
(-0.942897 2.06528 0 -0.20601 0 0)
(-5.33313 2.14224 0 -0.175643 0 0)
(-9.67188 2.1187 -3.83061e-21 -0.142835 8.87971e-22 2.53728e-39)
(-13.9295 2.01984 0 -0.111251 0 0)
(-17.9593 1.88026 0 -0.0831638 0 0)
(-21.7182 1.70786 8.71438e-21 -0.0587788 -6.93901e-22 2.3893e-39)
(-25.1262 1.51741 0 -0.0383541 0 0)
(-28.15 1.31399 1.18026e-20 -0.0216376 -5.1884e-22 2.29734e-39)
(-30.7438 1.1042 2.62079e-20 -0.00836027 -8.46036e-22 9.01317e-39)
(-32.8838 0.890858 0 0.00182704 0 0)
(-34.5444 0.677634 0 0.0092452 0 0)
(-35.7133 0.467194 0 0.0141928 0 0)
(-36.385 0.263082 0 0.0169598 0 0)
(-36.5657 0.0687944 0 0.0178387 0 0)
(-36.2679 -0.111543 3.03882e-20 0.0171349 3.0384e-22 8.0565e-39)
(-35.5172 -0.274293 2.8985e-20 0.0151951 4.49748e-22 7.91203e-39)
(-34.3528 -0.416728 2.70679e-20 0.0123836 5.70375e-22 7.77113e-39)
(-32.8208 -0.537431 0 0.00901467 0 0)
(-30.982 -0.636477 -2.20296e-20 0.00535746 -7.29731e-22 7.49859e-39)
(-28.8893 -0.714141 0 0.00162689 0 0)
(-26.5997 -0.770902 1.60282e-20 -0.00198599 7.8441e-22 7.23696e-39)
(-24.1644 -0.808416 1.29034e-20 -0.00532015 7.7798e-22 7.10961e-39)
(-21.636 -0.827986 0 -0.00825521 0 0)
(-19.06 -0.832032 0 -0.0107155 0 0)
(-16.4773 -0.82288 0 -0.0126661 0 0)
(-13.9226 -0.802926 1.32778e-21 -0.0141154 6.06604e-22 6.61823e-39)
(-11.4246 -0.774484 0 -0.0150984 0 0)
(-9.00703 -0.739741 0 -0.0156769 0 0)
(-6.68722 -0.700228 0 -0.0159243 0 0)
(-4.47876 -0.657654 0 -0.0159262 0 0)
(-2.39222 -0.612981 0 -0.0157657 0 0)
(-0.433824 -0.567271 0 -0.015522 0 0)
(1.39133 -0.521079 0 -0.0152589 0 0)
(3.08007 -0.474911 0 -0.0150253 0 0)
(4.63061 -0.428647 1.18071e-20 -0.0148451 -8.3965e-23 5.59123e-39)
(6.04043 -0.382659 0 -0.0147342 0 0)
(7.30607 -0.336272 0 -0.0146801 0 0)
(8.42397 -0.28961 -1.23552e-20 -0.014673 -5.36827e-23 5.27201e-39)
(9.38887 -0.242192 -1.21986e-20 -0.0146873 -9.63764e-23 5.16834e-39)
(10.1946 -0.194043 0 -0.0146967 0 0)
(10.8354 -0.145104 1.14269e-20 -0.0146561 1.75884e-22 4.96504e-39)
(11.3066 -0.0960419 -1.0834e-20 -0.0145235 -2.11492e-22 4.86544e-39)
(11.606 -0.0475673 0 -0.0142439 0 0)
(11.7348 -0.000899676 9.3105e-21 -0.0137807 2.69451e-22 4.67063e-39)
(11.6988 0.0427421 0 -0.0131118 0 0)
(11.5084 0.0820956 0 -0.0122518 0 0)
(11.1782 0.116226 -6.50504e-21 -0.0112396 -3.10182e-22 4.38876e-39)
(10.7256 0.144651 0 -0.0101305 0 0)
(10.1687 0.167361 4.55805e-21 -0.00899089 3.06763e-22 4.2078e-39)
(9.52584 0.184637 0 -0.00786902 0 0)
(8.81395 0.197062 -2.71509e-21 -0.00680367 -2.86772e-22 4.03227e-39)
(8.04884 0.205366 -1.85876e-21 -0.00582052 -2.73278e-22 3.94645e-39)
(7.24483 0.21024 -1.05388e-21 -0.00492936 -2.58576e-22 3.86189e-39)
(6.41322 0.212093 -6.07246e-22 -0.00413037 -4.86373e-22 1.51144e-38)
(5.5637 0.211889 -7.82446e-22 -0.00342204 4.55592e-22 1.47861e-38)
(4.70548 0.209628 0 -0.00279441 0 0)
(3.84545 0.205625 0 -0.00224091 0 0)
(2.98989 0.200332 0 -0.00175435 0 0)
(2.14457 0.193469 -5.23715e-21 -0.00133007 3.36485e-22 1.35228e-38)
(1.31534 0.185307 -6.08679e-21 -0.00096437 3.08592e-22 1.32198e-38)
(0.508361 0.175849 6.83737e-21 -0.00065561 -2.81385e-22 1.2922e-38)
(-0.270579 0.165194 0 -0.000402357 0 0)
(-1.01581 0.153496 -8.05906e-21 -0.000202596 2.29233e-22 1.23438e-38)
(-1.72237 0.140967 -8.54068e-21 -5.29403e-05 2.04405e-22 1.20632e-38)
(-2.38614 0.127871 -8.94399e-21 5.18406e-05 1.80581e-22 1.17882e-38)
(-3.00411 0.114507 0 0.000118621 0 0)
(-3.57441 0.101171 0 0.000155211 0 0)
(-4.0964 0.0881337 0 0.000169411 0 0)
(-4.5705 0.0756151 -9.91089e-21 0.000168168 9.84937e-23 1.07412e-38)
(-4.99797 0.0637767 0 0.000157096 0 0)
(-5.38076 0.0527221 0 0.000140366 0 0)
(-5.72123 0.0425066 1.01476e-20 0.000120901 -5.30104e-23 1.00082e-38)
(-6.02196 0.0331511 0 0.000100675 0 0)
(-6.28568 0.0246539 0 8.10136e-05 0 0)
(-6.51514 0.0169998 1.0132e-20 6.27707e-05 -2.02847e-23 9.31673e-39)
(-6.7131 0.0101653 0 4.64765e-05 0 0)
(-6.88227 0.00411914 0 3.23659e-05 0 0)
(-7.02529 -0.00118141 -9.96353e-21 2.04312e-05 -1.85046e-24 8.66417e-39)
(-7.14468 -0.00578754 -9.88558e-21 1.04954e-05 -7.23173e-24 8.45491e-39)
(-7.24287 -0.00976802 0 2.2441e-06 0 0)
(-7.32195 -0.0131978 9.70843e-21 -4.66255e-06 1.56208e-23 8.04829e-39)
(-7.38388 -0.0161524 0 -1.05174e-05 0 0)
(-7.43037 -0.0187041 -9.51189e-21 -1.55394e-05 -2.15261e-23 7.65708e-39)
(-7.46294 -0.0209173 0 -1.98576e-05 0 0)
(-7.48279 -0.0228562 -9.30361e-21 -2.35702e-05 -2.57146e-23 7.28074e-39)
(-7.49108 -0.024574 -9.19666e-21 -2.67334e-05 -2.73618e-23 7.09799e-39)
(-7.48855 -0.0261422 0 -2.94281e-05 0 0)
(-7.47588 -0.0275636 0 -3.1591e-05 0 0)
(-7.45399 -0.0287981 0 -3.30838e-05 0 0)
(-7.42368 -0.0298198 0 -3.38254e-05 0 0)
(-7.38568 -0.0306254 0 -3.38072e-05 0 0)
(-7.3407 -0.0312143 0 -3.3051e-05 0 0)
(-7.28949 -0.0315753 0 -3.15937e-05 0 0)
(-7.23279 -0.0316902 -8.3138e-21 -2.95057e-05 -3.30732e-23 5.75831e-39)
(-7.17141 -0.0315404 8.20377e-21 -2.69125e-05 3.27496e-23 5.60532e-39)
(-7.10617 -0.0311156 0 -2.40052e-05 0 0)
(-7.03797 -0.0304171 0 -2.10185e-05 0 0)
(-6.9677 -0.0294604 0 -1.81905e-05 0 0)
(-6.89628 -0.0282761 0 -1.57116e-05 0 0)
(-6.82455 -0.0269092 1.5347e-20 -1.36842e-05 5.45811e-23 1.95398e-38)
(-6.75328 -0.02541 0 -1.21225e-05 0 0)
(-6.68315 -0.0238298 -1.49532e-20 -1.09723e-05 -4.78315e-23 1.84668e-38)
(-6.6147 -0.0222183 1.47648e-20 -1.01362e-05 4.43552e-23 1.79467e-38)
(-6.54838 -0.0206194 0 -9.50609e-06 0 0)
(-6.48449 -0.0190686 0 -8.98954e-06 0 0)
(-6.42323 -0.0175912 0 -8.52202e-06 0 0)
(-6.36471 -0.0162044 -1.40719e-20 -8.06506e-06 -3.16634e-23 1.59709e-38)
(-6.30896 -0.0149184 -1.39135e-20 -7.60006e-06 -2.89999e-23 1.55024e-38)
(-6.25595 -0.013738 0 -7.12311e-06 0 0)
(-6.2056 -0.0126631 -1.36131e-20 -6.63916e-06 -2.43729e-23 1.45946e-38)
(-6.1578 -0.0116902 -1.34706e-20 -6.1572e-06 -2.23939e-23 1.41551e-38)
(-6.11241 -0.0108138 1.33328e-20 -5.68664e-06 2.06182e-23 1.3725e-38)
(-6.06931 -0.0100272 0 -5.23575e-06 0 0)
(-6.02833 -0.00932262 0 -4.81089e-06 0 0)
(-5.98933 -0.00869182 1.29446e-20 -4.41659e-06 1.63466e-23 1.24893e-38)
(-5.95216 -0.00812638 0 -4.05522e-06 0 0)
(-5.91668 -0.0076187 0 -3.72748e-06 0 0)
(-5.88278 -0.00716215 0 -3.43262e-06 0 0)
(-5.85034 -0.00675071 0 -3.16933e-06 0 0)
(-5.81923 -0.00637776 -1.23663e-20 -2.93538e-06 -1.17548e-23 1.06037e-38)
(-5.78937 -0.00603671 -1.22591e-20 -2.72853e-06 -1.10897e-23 1.02515e-38)
(-5.76067 -0.00572154 0 -2.54585e-06 0 0)
(-5.73304 -0.00542994 -1.20518e-20 -2.38589e-06 -9.91924e-24 9.57082e-39)
(-5.7064 -0.00516256 0 -2.24692e-06 0 0)
(-5.68069 -0.00492462 0 -2.13e-06 0 0)
(-5.65573 -0.00472045 -1.17567e-20 -2.03458e-06 -8.5551e-24 8.60749e-39)
(-5.63145 -0.00455589 0 -1.96409e-06 0 0)
(-5.60759 -0.00443095 -1.15691e-20 -1.91752e-06 -7.98502e-24 8.00232e-39)
(-5.58412 -0.00434797 0 -1.90007e-06 0 0)
(-5.56058 -0.00430322 0 -1.90935e-06 0 0)
(-5.53715 -0.00429885 -1.12981e-20 -1.95368e-06 -7.68427e-24 7.14787e-39)
(-5.51297 -0.00433556 0 -2.03356e-06 0 0)
(-5.48871 -0.00441485 -1.11225e-20 -2.16107e-06 -7.85532e-24 6.6125e-39)
(-5.46263 -0.00455753 0 -2.35569e-06 0 0)
(-5.43643 -0.00474473 0 -2.61738e-06 0 0)
(-5.40651 -0.00506376 0 -3.04982e-06 0 0)
(-5.37672 -0.00539996 1.07767e-20 -3.5479e-06 9.54216e-24 5.62034e-39)
(-5.33983 -0.00605382 0 -4.57339e-06 0 0)
(-5.30368 -0.00657238 -1.06018e-20 -5.46897e-06 -1.15864e-23 5.16206e-39)
(-5.25469 -0.00792445 0 -8.2522e-06 0 0)
(-5.20659 -0.00858549 0 -9.60812e-06 0 0)
(-5.13757 -0.0115538 0 -1.86706e-05 0 0)
(-5.06391 -0.0120289 0 -1.90705e-05 0 0)
(-4.96456 -0.0191433 0 -5.561e-05 0 0)
(-4.82695 -0.0180957 0 -4.26287e-05 0 0)