/*--------------------------------*- C++ -*----------------------------------*\
  =========                 |
  \\      /  F ield         | OpenFOAM: The Open Source CFD Toolbox
   \\    /   O peration     | Website:  https://openfoam.org
    \\  /    A nd           | Version:  9
     \\/     M anipulation  |
\*---------------------------------------------------------------------------*/
FoamFile
{
    format      ascii;
    class       volScalarField;
    location    "0.044";
    object      k_0;
}
// * * * * * * * * * * * * * * * * * * * * * * * * * * * * * * * * * * * * * //

dimensions      [0 2 -2 0 0 0 0];

internalField   nonuniform List<scalar> 
12225
(
2.53309e-05
5.79467e-05
6.72149e-05
6.36203e-05
5.53824e-05
4.95826e-05
4.37734e-05
4.0006e-05
3.7976e-05
3.73832e-05
3.75054e-05
4.4922e-05
6.95263e-05
0.000226106
0.000263401
0.000431167
0.000991753
0.0116627
2.03402e-05
2.43768e-05
2.56636e-05
2.52604e-05
2.44681e-05
2.43335e-05
2.44432e-05
2.48153e-05
2.57743e-05
2.72243e-05
2.76754e-05
2.82825e-05
2.88628e-05
3.20617e-05
3.26279e-05
3.43503e-05
3.74205e-05
0.000108868
2.00308e-05
1.67221e-05
1.70511e-05
1.66186e-05
1.44266e-05
1.26273e-05
1.20252e-05
1.19797e-05
1.21435e-05
1.30147e-05
1.49466e-05
1.65515e-05
1.75389e-05
1.82949e-05
1.85373e-05
1.88638e-05
1.89869e-05
2.01792e-05
2.032e-05
2.01108e-05
1.99874e-05
1.9492e-05
1.93611e-05
1.9521e-05
1.94937e-05
1.90323e-05
1.78633e-05
1.74227e-05
1.74257e-05
1.75524e-05
1.77783e-05
1.82939e-05
1.86614e-05
1.98315e-05
2.02519e-05
2.51499e-05
2.07599e-05
2.24588e-05
2.24196e-05
2.12868e-05
2.05808e-05
2.0468e-05
2.04881e-05
2.05807e-05
2.07704e-05
2.12274e-05
2.19489e-05
2.26013e-05
2.30875e-05
2.33971e-05
2.35598e-05
2.36096e-05
2.35731e-05
2.32625e-05
2.06054e-05
2.1687e-05
2.15786e-05
2.08719e-05
2.06626e-05
2.06737e-05
2.07275e-05
2.08139e-05
2.09857e-05
2.14486e-05
2.27236e-05
2.38496e-05
2.44858e-05
2.47296e-05
2.47684e-05
2.47328e-05
2.44842e-05
2.40019e-05
2.05544e-05
2.0749e-05
2.09527e-05
2.17187e-05
2.22098e-05
2.23255e-05
2.24164e-05
2.26635e-05
2.29327e-05
2.33337e-05
2.42192e-05
2.47657e-05
2.48665e-05
2.48376e-05
2.47097e-05
2.43168e-05
2.36504e-05
2.33926e-05
2.33939e-05
2.49674e-05
2.44014e-05
2.26537e-05
2.213e-05
2.22458e-05
2.33163e-05
2.7796e-05
3.19231e-05
3.26311e-05
3.17827e-05
2.8309e-05
2.51021e-05
2.34025e-05
2.27581e-05
2.26623e-05
2.28044e-05
2.34579e-05
2.56848e-05
2.65897e-05
2.46709e-05
2.23768e-05
2.20572e-05
2.25555e-05
2.46449e-05
2.68327e-05
2.82365e-05
2.85263e-05
2.7709e-05
2.5026e-05
2.33259e-05
2.26537e-05
2.25295e-05
2.26265e-05
2.33328e-05
2.56903e-05
2.04964e-05
2.12e-05
2.11049e-05
2.06869e-05
2.07291e-05
2.16587e-05
2.69698e-05
3.44208e-05
3.66013e-05
3.63327e-05
3.32988e-05
2.77875e-05
2.46349e-05
2.32412e-05
2.28349e-05
2.28325e-05
2.32162e-05
2.50035e-05
2.29248e-05
2.96812e-05
2.95293e-05
2.45656e-05
2.21847e-05
2.24311e-05
2.55896e-05
2.83863e-05
2.86669e-05
2.82279e-05
2.62174e-05
2.42909e-05
2.32686e-05
2.27657e-05
2.25463e-05
2.24408e-05
2.23343e-05
2.22244e-05
2.06227e-05
2.5471e-05
2.79292e-05
2.49089e-05
2.23372e-05
2.21562e-05
2.30632e-05
2.4546e-05
2.5249e-05
2.55282e-05
2.55742e-05
2.55264e-05
2.53997e-05
2.52007e-05
2.47626e-05
2.37906e-05
2.28332e-05
2.21393e-05
2.09272e-05
2.22177e-05
2.32793e-05
2.47315e-05
2.49869e-05
2.43083e-05
2.35773e-05
2.35049e-05
2.37594e-05
2.48247e-05
2.54383e-05
2.55161e-05
2.54652e-05
2.53019e-05
2.49354e-05
2.39296e-05
2.29239e-05
2.23065e-05
2.18345e-05
2.1625e-05
2.15018e-05
2.37165e-05
2.84855e-05
2.89054e-05
2.90914e-05
2.93312e-05
2.92794e-05
2.89382e-05
2.7513e-05
2.53852e-05
2.40324e-05
2.33166e-05
2.28354e-05
2.2491e-05
2.24311e-05
2.24807e-05
2.125e-05
2.26577e-05
2.23095e-05
2.20243e-05
2.29112e-05
2.99288e-05
3.67346e-05
3.77595e-05
3.65001e-05
3.17685e-05
2.8108e-05
2.6613e-05
2.64181e-05
2.68635e-05
2.89736e-05
3.0101e-05
3.01907e-05
2.95212e-05
2.01497e-05
2.04926e-05
2.05673e-05
2.06518e-05
2.10061e-05
2.27142e-05
2.99638e-05
3.72588e-05
3.97717e-05
3.98855e-05
3.89315e-05
3.87133e-05
3.94041e-05
4.40555e-05
4.83559e-05
4.87662e-05
4.74777e-05
4.1891e-05
2.00691e-05
2.16175e-05
2.26999e-05
2.25357e-05
2.14642e-05
2.10078e-05
2.10748e-05
2.17991e-05
2.45106e-05
3.24893e-05
4.31097e-05
5.21396e-05
5.57965e-05
5.55419e-05
5.0571e-05
3.93453e-05
3.17202e-05
2.77032e-05
2.0049e-05
2.06762e-05
2.11153e-05
2.10957e-05
2.06913e-05
2.04308e-05
2.03996e-05
2.04491e-05
2.06682e-05
2.12884e-05
2.27769e-05
2.44777e-05
2.59695e-05
2.68083e-05
2.6932e-05
2.65196e-05
2.49736e-05
2.38271e-05
2.00745e-05
2.18089e-05
2.34018e-05
2.35262e-05
2.2902e-05
2.17575e-05
2.12635e-05
2.11522e-05
2.11939e-05
2.15775e-05
2.25007e-05
2.32819e-05
2.38796e-05
2.41861e-05
2.42329e-05
2.41694e-05
2.39426e-05
2.38288e-05
2.00148e-05
2.01223e-05
2.12004e-05
2.44945e-05
2.64257e-05
2.78069e-05
2.88382e-05
2.82881e-05
2.53912e-05
2.31371e-05
2.23358e-05
2.22444e-05
2.25567e-05
2.3884e-05
2.47711e-05
2.49779e-05
2.49503e-05
2.4827e-05
2.09278e-05
2.03514e-05
2.0619e-05
2.14523e-05
2.20271e-05
2.23333e-05
2.24775e-05
2.24972e-05
2.22314e-05
2.16888e-05
2.14957e-05
2.14972e-05
2.17421e-05
2.21852e-05
2.2236e-05
2.21452e-05
2.18371e-05
2.16525e-05
2.07814e-05
2.19366e-05
2.22067e-05
2.20448e-05
2.14195e-05
2.11589e-05
2.11915e-05
2.16551e-05
2.2972e-05
2.37694e-05
2.39937e-05
2.39721e-05
2.38336e-05
2.36785e-05
2.33378e-05
2.23961e-05
2.15939e-05
2.11323e-05
2.06634e-05
2.38761e-05
2.4409e-05
2.39651e-05
2.23071e-05
2.15365e-05
2.14175e-05
2.16192e-05
2.28928e-05
2.448e-05
2.50081e-05
2.49755e-05
2.44937e-05
2.38761e-05
2.32469e-05
2.25564e-05
2.20812e-05
2.19421e-05
2.00956e-05
2.12892e-05
2.97391e-05
3.28847e-05
3.17671e-05
2.74802e-05
2.4208e-05
2.38282e-05
2.53209e-05
3.12927e-05
3.45149e-05
3.45849e-05
3.27311e-05
2.83564e-05
2.58761e-05
2.50089e-05
2.48812e-05
2.49561e-05
2.01191e-05
2.03974e-05
2.16708e-05
2.76454e-05
3.88846e-05
4.04059e-05
3.62901e-05
3.05928e-05
3.01727e-05
3.29362e-05
3.69708e-05
3.73561e-05
3.57673e-05
3.19398e-05
2.96525e-05
2.86582e-05
2.84565e-05
2.85541e-05
2.01241e-05
2.07931e-05
2.64375e-05
3.85499e-05
3.90307e-05
3.24384e-05
2.60119e-05
2.41203e-05
2.35881e-05
2.44709e-05
2.88839e-05
4.05864e-05
4.53391e-05
4.52173e-05
4.26214e-05
3.56435e-05
2.96665e-05
2.59283e-05
2.01626e-05
2.01165e-05
2.00792e-05
2.00689e-05
2.00091e-05
1.98493e-05
1.9733e-05
1.96144e-05
1.94175e-05
1.89531e-05
1.83563e-05
1.79523e-05
1.77068e-05
1.75823e-05
1.75134e-05
1.74792e-05
1.74777e-05
1.75052e-05
2.00288e-05
1.73676e-05
1.64367e-05
1.65099e-05
1.63195e-05
1.51834e-05
1.40674e-05
1.36943e-05
1.3669e-05
1.377e-05
1.42495e-05
1.4702e-05
1.48484e-05
1.48471e-05
1.47062e-05
1.42483e-05
1.3928e-05
1.37803e-05
2.15083e-05
3.0143e-05
3.32657e-05
3.25925e-05
2.86284e-05
2.37541e-05
2.16302e-05
2.10995e-05
2.11653e-05
2.19739e-05
2.52373e-05
2.84652e-05
3.01476e-05
3.09108e-05
3.11625e-05
3.1159e-05
3.09112e-05
3.02169e-05
0.000638764
0.000394208
0.00025292
0.000183123
0.00010661
5.70161e-05
3.44231e-05
2.76382e-05
2.73732e-05
3.15095e-05
4.36398e-05
5.14961e-05
5.48673e-05
5.56613e-05
5.54533e-05
5.34563e-05
4.76374e-05
4.34334e-05
0.110337
0.133105
0.125736
0.109803
0.107135
0.105864
0.0967127
0.0905909
0.0971084
0.111984
0.111066
0.106379
0.0985938
0.0930019
0.0889516
0.0859755
0.0839321
0.0823789
0.0815402
0.0807943
0.0807907
0.0809827
0.0814614
0.0822308
0.0827059
0.0836958
0.0862
0.0875636
0.0895897
0.0928097
0.0944947
0.142918
0.238643
0.244698
0.24241
0.238716
0.208809
0.172661
0.158209
0.155697
0.155196
0.162789
0.144932
0.141838
0.143046
0.147276
0.175198
0.217633
0.217598
0.221428
0.277525
0.160384
0.0378505
0.0208924
0.0184958
0.0184962
0.0183997
0.0182087
0.018224
0.0183588
0.0185983
0.0188981
0.019123
0.0190733
0.0185061
0.0172938
0.0156962
0.0140215
0.0124428
0.0109547
0.00932352
0.00747566
0.00587822
0.00514814
0.00489196
0.00506469
0.0053752
0.00545096
0.00547162
0.0054082
0.00513404
0.00481545
0.00466744
0.00449769
0.00426069
0.0039316
0.00359706
0.00329169
0.00304775
0.00289387
0.00277666
0.002672
0.00258838
0.00250691
0.00242086
0.0023567
0.00231362
0.00228937
0.00227072
0.00224492
0.00223394
0.00222228
0.00220984
0.00219814
0.00219342
0.00217623
0.00216464
0.00215421
0.0021393
0.00212805
0.00211592
0.00210445
0.00209309
0.00208114
0.00206624
0.00204751
0.00202445
0.00199916
0.00197274
0.00194484
0.00191551
0.00188657
0.00186477
0.00184849
0.00183576
0.00182782
0.00182538
0.00182906
0.00184659
0.00188271
0.00191919
0.00194565
0.00196009
0.00196518
0.00196481
0.00196474
0.00196247
0.00195075
0.00190508
0.00180892
0.00173887
0.00169733
0.00164227
0.0015142
0.00117676
0.000794107
0.000543349
0.000445524
0.000436748
0.000473012
0.000599892
0.000667793
0.00064897
0.000473868
0.000260614
0.000154155
9.96828e-05
6.54118e-05
4.27996e-05
2.86033e-05
2.01867e-05
1.52505e-05
1.2163e-05
1.00029e-05
8.32429e-06
6.95018e-06
5.78511e-06
4.79678e-06
3.93606e-06
3.20809e-06
2.57298e-06
2.05659e-06
1.60784e-06
1.26352e-06
9.58666e-07
7.38924e-07
5.33035e-07
3.9807e-07
2.80774e-07
7.32567e-07
0.0913855
0.0999494
0.099
0.116612
0.126393
0.120964
0.107112
0.0848138
0.0725191
0.0623615
0.0560519
0.0513316
0.0477309
0.0456565
0.044391
0.0437317
0.0433954
0.0433787
0.0434119
0.0435012
0.0437146
0.0439131
0.0441707
0.0447834
0.0462649
0.0479541
0.0512618
0.0560267
0.060082
0.0700306
0.076871
0.0915379
0.132024
0.190812
0.249471
0.296461
0.241075
0.203283
0.196196
0.197527
0.174864
0.153626
0.136839
0.131772
0.132487
0.138404
0.17839
0.194882
0.16168
0.142502
0.109461
0.0456208
0.0183662
0.0119675
0.0096525
0.00799895
0.00684896
0.00595875
0.00551889
0.00527181
0.00518829
0.00518729
0.00542396
0.00583961
0.00626422
0.00681952
0.00742805
0.00801534
0.0086423
0.00935806
0.0102685
0.0113809
0.0126251
0.0132228
0.0136743
0.0143498
0.0146984
0.0148487
0.0149008
0.0148732
0.0145312
0.0139199
0.0132026
0.0123558
0.0111433
0.00984714
0.0087726
0.00772001
0.00668673
0.00602139
0.00551722
0.00513648
0.00485825
0.0046462
0.0043728
0.00408268
0.00391476
0.00377633
0.00368322
0.00357042
0.00349977
0.00346235
0.00340461
0.00332949
0.00329305
0.00320729
0.00314046
0.00306054
0.00298144
0.00290646
0.00283727
0.00277234
0.00271082
0.00265212
0.00259905
0.00255399
0.00251774
0.0024898
0.00246603
0.00244169
0.00241479
0.00237792
0.00231394
0.00221993
0.00210043
0.00195933
0.00180515
0.00166535
0.00156219
0.00148196
0.00142929
0.0014151
0.00143452
0.00151785
0.00160817
0.00168702
0.00174913
0.00178761
0.00182754
0.0018821
0.00195665
0.00203499
0.00208918
0.00210618
0.00210349
0.00207507
0.00197908
0.00191004
0.0018832
0.00186187
0.00181494
0.00169837
0.00151479
0.00129912
0.00108339
0.000888039
0.00071937
0.000576233
0.00045744
0.000362513
0.000289428
0.000234726
0.000194419
0.000165231
0.000143939
0.000127884
0.000114174
0.0001013
8.79556e-05
7.47769e-05
6.17189e-05
5.0276e-05
3.98872e-05
3.17355e-05
2.47304e-05
1.94248e-05
1.54904e-05
1.08691e-05
9.35713e-06
5.74007e-06
0.090827
0.0819104
0.0921977
0.130128
0.125031
0.106687
0.0721264
0.0514965
0.0437161
0.0405599
0.0392944
0.0385999
0.0385494
0.0385838
0.0387078
0.0389457
0.0391998
0.0394394
0.0396836
0.0399386
0.0402153
0.0404715
0.040803
0.0410649
0.041372
0.04171
0.0421486
0.0431195
0.0444331
0.0472364
0.0525167
0.058294
0.0712809
0.0922043
0.141454
0.244595
0.260918
0.266292
0.278727
0.270796
0.239808
0.163871
0.135903
0.136944
0.150805
0.160253
0.135458
0.0966762
0.0735591
0.0497641
0.0248416
0.0122353
0.00729612
0.00551873
0.0046742
0.00409864
0.00383329
0.00371177
0.00367644
0.00368622
0.00383519
0.00411348
0.00452346
0.00515288
0.00601449
0.00710032
0.00845172
0.0101647
0.0122532
0.0144142
0.0158029
0.0164376
0.0168096
0.0172597
0.0176649
0.0178185
0.0179038
0.0179972
0.0181271
0.0182894
0.0184843
0.0186957
0.0188063
0.0188349
0.0184727
0.0174735
0.0159911
0.0138718
0.0118358
0.0098789
0.00833951
0.00744245
0.00677946
0.00644066
0.00614589
0.00592053
0.00576185
0.00560877
0.00548503
0.00537235
0.00524524
0.0051715
0.00511155
0.00496699
0.00487101
0.00471503
0.00453574
0.00432185
0.00407134
0.00380064
0.00353213
0.00328047
0.00306746
0.00289814
0.0027504
0.00262077
0.00251093
0.00242167
0.00236119
0.00234344
0.00236476
0.00244633
0.00256226
0.00265793
0.00270267
0.00270997
0.00267777
0.00253639
0.00222139
0.00184228
0.00143521
0.00107823
0.000864057
0.000783948
0.000755185
0.000701861
0.000647286
0.000632881
0.000649196
0.000739989
0.000986328
0.00122979
0.00140902
0.00150112
0.00152189
0.00150881
0.00142337
0.0013341
0.00130876
0.00131171
0.00132844
0.00132858
0.0013181
0.00127983
0.00115271
0.000948635
0.000778662
0.000645355
0.000538449
0.000448682
0.000371449
0.000305733
0.000252029
0.000210442
0.000179597
0.000156501
0.000139089
0.000125447
0.00011459
0.000104599
9.5395e-05
8.51569e-05
7.51166e-05
6.3846e-05
5.41013e-05
4.34766e-05
3.62626e-05
2.74738e-05
2.36759e-05
1.68105e-05
0.088052
0.127954
0.163583
0.140771
0.0884497
0.0528033
0.0407027
0.0371218
0.0368123
0.0368987
0.0370902
0.03717
0.0374366
0.0374967
0.0376168
0.0376221
0.0375166
0.037333
0.0371901
0.0372347
0.0374071
0.0378037
0.0382799
0.0390809
0.0399475
0.040643
0.0412175
0.0418233
0.0422219
0.0428425
0.0443194
0.0463742
0.0506514
0.0581055
0.0737968
0.110222
0.194041
0.237204
0.264015
0.264858
0.25039
0.1801
0.139117
0.14467
0.138346
0.0990177
0.0624289
0.0459538
0.0301875
0.0156704
0.00857983
0.00550975
0.00428751
0.00378464
0.003561
0.00347035
0.00344925
0.00346558
0.00355669
0.00369531
0.0039488
0.00439639
0.00503653
0.00595633
0.0072653
0.00905681
0.0113778
0.0139808
0.0162779
0.0172681
0.0177108
0.017932
0.0180748
0.0181329
0.0181482
0.0181471
0.0181453
0.0181744
0.018267
0.0184456
0.0187334
0.0191224
0.0195998
0.0201749
0.0206354
0.0207853
0.020644
0.0198363
0.0182421
0.015336
0.0121479
0.00964925
0.00826585
0.00730326
0.00684669
0.0066025
0.00639698
0.00629622
0.00620443
0.00615501
0.00609607
0.00602601
0.00595209
0.00586565
0.00578299
0.00569688
0.00559946
0.00549187
0.00536032
0.0051991
0.00499322
0.00473325
0.00442178
0.00407108
0.00370382
0.00331548
0.00291696
0.00253077
0.00220461
0.00194877
0.00174194
0.00159862
0.00152766
0.00155433
0.00179304
0.00219208
0.00258275
0.00289163
0.00304602
0.00307724
0.00303124
0.0027702
0.00224152
0.00176175
0.00143688
0.00128741
0.00124919
0.0012648
0.00135551
0.00160725
0.00186816
0.00197652
0.00197989
0.00191547
0.00180204
0.0017276
0.00156682
0.0012681
0.00108457
0.00105629
0.00108325
0.00120869
0.00131337
0.0013383
0.0013322
0.00129714
0.00125101
0.00121673
0.00115508
0.0010132
0.000813788
0.000616779
0.000451891
0.00032558
0.000233917
0.000169758
0.000126526
9.84202e-05
8.18135e-05
7.24751e-05
6.76911e-05
6.38878e-05
6.01224e-05
5.4473e-05
4.80448e-05
4.02166e-05
3.26791e-05
2.55609e-05
1.9665e-05
1.57126e-05
0.0789119
0.144289
0.0979142
0.0518725
0.0380003
0.0351631
0.0352133
0.0356425
0.03632
0.0366
0.0361888
0.0351589
0.0337848
0.0322465
0.0311274
0.0300884
0.0295297
0.0293889
0.0295929
0.0299935
0.0305761
0.0315496
0.0327748
0.0340021
0.0350415
0.0364235
0.0378624
0.0391107
0.0401377
0.0408459
0.0414001
0.0420617
0.0434039
0.0460139
0.0513227
0.0628418
0.0878141
0.138125
0.202175
0.224205
0.217736
0.168392
0.134308
0.131913
0.0879997
0.0485177
0.0315247
0.0219977
0.0117875
0.00691039
0.00479009
0.00394579
0.00362871
0.00351829
0.00348559
0.00348282
0.00354104
0.00363305
0.00377443
0.00396022
0.00422128
0.00459426
0.00512629
0.00594394
0.00715554
0.00886982
0.0111131
0.0136581
0.0161888
0.0175233
0.0179315
0.0180511
0.0180701
0.0180361
0.0179332
0.0179208
0.0179725
0.0180447
0.0181264
0.0182908
0.0185842
0.018976
0.0194267
0.0199427
0.0207661
0.0212967
0.0214296
0.021396
0.0209464
0.0197395
0.0176593
0.0148581
0.0118842
0.00945183
0.00781554
0.00702075
0.00661764
0.006375
0.00617978
0.00605412
0.00595556
0.00582196
0.00572203
0.00562315
0.005539
0.00547949
0.00543668
0.00540782
0.00536702
0.0053215
0.00525595
0.00515117
0.00501967
0.00487808
0.00473309
0.00457326
0.00436491
0.00407926
0.0036615
0.00310202
0.00247559
0.00188072
0.00145384
0.00115854
0.000975007
0.000892601
0.000897197
0.00109364
0.00178476
0.00251139
0.00298574
0.00315491
0.00315558
0.0029992
0.00242404
0.00179019
0.00138775
0.00122083
0.00118496
0.00120134
0.00135724
0.00180804
0.00209849
0.00218313
0.00218099
0.00214713
0.00205127
0.00198446
0.00194035
0.00184284
0.00169869
0.00162111
0.00161608
0.00163821
0.00172342
0.00180984
0.0018519
0.00186096
0.00185095
0.00178245
0.00155038
0.0012409
0.000967448
0.000753827
0.00058699
0.000435999
0.000290678
0.000169826
9.27051e-05
5.7477e-05
4.62158e-05
4.45115e-05
4.54047e-05
4.75507e-05
4.7735e-05
4.68672e-05
4.34367e-05
3.39922e-05
2.44729e-05
1.66169e-05
0.0784863
0.061128
0.0384377
0.0331989
0.0334225
0.0345716
0.0358767
0.0358127
0.0345423
0.0320782
0.0296799
0.0282941
0.0274407
0.0270768
0.0269263
0.0270499
0.0273866
0.0279861
0.0292366
0.0301942
0.0320989
0.0357797
0.0375134
0.0402501
0.0422119
0.0425811
0.0424844
0.0422805
0.0420868
0.0417908
0.0416721
0.0417153
0.0418685
0.0424315
0.0440065
0.0479363
0.056637
0.0746829
0.11669
0.157334
0.159908
0.137312
0.127184
0.110133
0.0507724
0.0273515
0.0172653
0.0108845
0.00628639
0.00455187
0.00389352
0.00367709
0.00361594
0.00360136
0.00373918
0.00401385
0.00444939
0.00494251
0.00543031
0.00581008
0.00602601
0.00620121
0.00638577
0.00671506
0.00739147
0.00830981
0.00940692
0.0107789
0.0124228
0.0142055
0.0159173
0.016783
0.0170535
0.0171908
0.0173999
0.0177752
0.0180793
0.0181486
0.018151
0.0182425
0.0184926
0.0188586
0.0192549
0.0195408
0.0200751
0.020813
0.0212727
0.0213769
0.0212578
0.0205979
0.0193373
0.0175007
0.0152942
0.0129891
0.0108417
0.00901198
0.00779863
0.00708991
0.00661246
0.00619682
0.00597477
0.00573885
0.0055574
0.00538376
0.00522582
0.00507229
0.00493908
0.00483387
0.00475954
0.00472561
0.00472092
0.00474009
0.00475524
0.00475075
0.00471533
0.00465146
0.0045699
0.00446417
0.00434709
0.00420278
0.00397183
0.00355066
0.00284643
0.0020349
0.00137437
0.000937333
0.000678227
0.00055559
0.000531297
0.000595382
0.00102101
0.00207849
0.00279273
0.00304804
0.00305421
0.00286818
0.0022063
0.0015921
0.00128183
0.0011713
0.00115916
0.0012518
0.00170421
0.00214951
0.00234321
0.00241743
0.00247583
0.00252602
0.00254645
0.00254574
0.00252286
0.00241257
0.00211179
0.00191558
0.00187543
0.00188338
0.00190148
0.00190188
0.00187995
0.00177316
0.00153248
0.00129494
0.00106823
0.000866008
0.000701718
0.00057239
0.000461143
0.000354775
0.000256037
0.000176375
0.000123556
9.63597e-05
8.59168e-05
8.33132e-05
8.31757e-05
8.32796e-05
8.24757e-05
7.68052e-05
6.01927e-05
3.64767e-05
0.0269825
0.0316948
0.0313441
0.0325832
0.0346662
0.0350413
0.0335058
0.0309615
0.0295434
0.0285123
0.0277754
0.0273355
0.0271389
0.027279
0.0277554
0.0287417
0.030447
0.0333014
0.0381229
0.0433246
0.0538144
0.0645789
0.0702802
0.0819032
0.0856909
0.0839345
0.0787174
0.0684122
0.0584115
0.0506847
0.0459344
0.0433735
0.0423052
0.0419305
0.0421485
0.0432976
0.0465242
0.0540416
0.0721468
0.113833
0.124303
0.11523
0.119525
0.0875508
0.0330321
0.0170567
0.0102867
0.00645535
0.0045843
0.00394776
0.00375858
0.00371735
0.00379845
0.0041575
0.00497942
0.00637202
0.00843615
0.0110578
0.0139918
0.0165008
0.0176656
0.0180466
0.017275
0.0160788
0.0155296
0.013743
0.0133699
0.0135069
0.0138767
0.0144799
0.0151619
0.0157001
0.0165062
0.017409
0.0180644
0.0182837
0.0181876
0.017835
0.0172647
0.0169782
0.016875
0.0170233
0.0173958
0.0177557
0.0182693
0.018768
0.0193937
0.0198504
0.0200481
0.0200342
0.0193969
0.018024
0.0161663
0.0141368
0.0120986
0.0104909
0.00914946
0.00807803
0.00741108
0.00691064
0.00646869
0.00605826
0.00572082
0.00545878
0.00525784
0.0050697
0.00490594
0.00477368
0.0046768
0.00460592
0.00455345
0.00451182
0.00447642
0.00444432
0.00441207
0.00437565
0.00434145
0.00432208
0.00430837
0.00426587
0.00417928
0.0040695
0.00389059
0.00351298
0.00276683
0.0018901
0.00119962
0.000732232
0.000471055
0.000365332
0.000353462
0.000422824
0.000876192
0.00200323
0.00264752
0.00281203
0.00276151
0.00234904
0.00166143
0.00129445
0.00118699
0.00120014
0.00137049
0.00190206
0.00231545
0.00256705
0.00272512
0.00280723
0.00282877
0.00282482
0.00279626
0.00270162
0.00246244
0.00222108
0.00205945
0.00199386
0.00197585
0.0019501
0.00187707
0.00164707
0.0013724
0.00115152
0.000961651
0.000789317
0.000636519
0.000510008
0.000411574
0.000336408
0.000275532
0.000222014
0.000176406
0.000141907
0.000119456
0.000107412
0.000102422
0.000100827
9.99009e-05
9.78739e-05
9.26191e-05
7.41388e-05
0.0246978
0.033472
0.0331639
0.0345561
0.0332723
0.0313115
0.0304701
0.0299803
0.0297632
0.0297545
0.0299843
0.0301797
0.0305903
0.0315541
0.0336017
0.0371497
0.0428119
0.0521958
0.0658382
0.0852745
0.104446
0.120983
0.133631
0.146102
0.150419
0.149147
0.144321
0.134042
0.113204
0.0832312
0.0615107
0.0501125
0.0447596
0.0425502
0.0417137
0.04183
0.0428288
0.0462267
0.0558598
0.0891194
0.0997582
0.0993367
0.116241
0.068642
0.0230608
0.0115638
0.00699784
0.00490228
0.00408302
0.00385383
0.00380795
0.00394997
0.00452915
0.00598547
0.00892351
0.0140984
0.0223284
0.032568
0.0372369
0.039181
0.0394635
0.0362249
0.034918
0.0328675
0.029831
0.0286131
0.0270762
0.0253159
0.0245931
0.024055
0.0233067
0.0229519
0.021601
0.0195896
0.0183197
0.0164829
0.0146176
0.0130264
0.0115308
0.010458
0.00990317
0.00968583
0.00998035
0.0107674
0.0118187
0.0128272
0.0138495
0.0148196
0.0155544
0.0161267
0.0166049
0.0167088
0.0158592
0.0142477
0.0123387
0.0107282
0.0094024
0.00827976
0.00749466
0.00700785
0.00654483
0.00610077
0.00572217
0.0054213
0.00518184
0.0050012
0.00487023
0.00476053
0.00467981
0.00461334
0.00455865
0.00451326
0.00447356
0.00443541
0.00439501
0.00434209
0.00426861
0.00416949
0.00406278
0.00402133
0.00403755
0.00402927
0.00396871
0.00384193
0.00361348
0.00307988
0.00221783
0.00144017
0.00085696
0.000488675
0.00031058
0.000263027
0.000278767
0.000452702
0.00126943
0.0021594
0.00247167
0.00247635
0.00221846
0.0016009
0.00131009
0.00126442
0.00131923
0.00166147
0.00219406
0.002531
0.00272615
0.00281337
0.00282553
0.00279736
0.00272843
0.0026735
0.00257472
0.00243066
0.00230243
0.00223238
0.00220377
0.00217038
0.00208956
0.00185463
0.00153441
0.00124945
0.00100438
0.000786061
0.000587838
0.000420506
0.000300376
0.000233764
0.000208843
0.000196682
0.000177069
0.000151105
0.000127035
0.000110265
0.000101839
9.88779e-05
9.802e-05
9.71601e-05
9.55382e-05
9.0691e-05
0.0294524
0.0343514
0.03334
0.0322966
0.0311775
0.0311282
0.0322218
0.0342894
0.0356833
0.0360678
0.0357525
0.0355494
0.0359127
0.0374105
0.0405697
0.045848
0.0542734
0.0674207
0.0854004
0.106262
0.125853
0.141504
0.154367
0.164356
0.17001
0.170831
0.169412
0.164558
0.153638
0.130678
0.0981541
0.0706134
0.0536547
0.0453016
0.042194
0.0415109
0.041752
0.0432021
0.0497078
0.0731823
0.0799125
0.0942547
0.115193
0.0531337
0.0168606
0.00852731
0.00552229
0.00434594
0.00396473
0.00388906
0.00399388
0.00461347
0.00638693
0.0105292
0.0190641
0.0351417
0.0531217
0.0592797
0.0608679
0.0602038
0.0514768
0.0429652
0.0387916
0.0327397
0.0289812
0.0269378
0.0237498
0.0217572
0.0203795
0.0180696
0.0158032
0.0140318
0.0121575
0.0108648
0.0101723
0.00953464
0.0090143
0.00827992
0.00742381
0.0064903
0.00552914
0.00462951
0.00397491
0.00366757
0.00384998
0.00442277
0.00527635
0.0063671
0.00754395
0.00861562
0.00957248
0.0106164
0.0114789
0.0115828
0.0107721
0.0095703
0.00856445
0.00768244
0.00682061
0.00619735
0.00575878
0.00542521
0.00515613
0.00495991
0.00484414
0.00478002
0.00474408
0.00471584
0.00467595
0.00463579
0.00459695
0.00456252
0.00453397
0.00450801
0.0044821
0.00444185
0.00438236
0.00425497
0.00405682
0.00384041
0.00370744
0.00369068
0.00370399
0.00371588
0.00368013
0.00350632
0.00304915
0.00223858
0.00146991
0.00088172
0.000491099
0.000285238
0.000219748
0.000224842
0.00033604
0.000931832
0.00181753
0.00216947
0.00218988
0.0019793
0.00151596
0.00135375
0.00135581
0.00150753
0.00198355
0.00236287
0.00255937
0.00261507
0.00259971
0.0024925
0.00242553
0.00242866
0.00244523
0.00244135
0.0024273
0.0023982
0.00235942
0.00228064
0.00210573
0.00184524
0.00155982
0.00128182
0.0010232
0.000789287
0.000585586
0.000417559
0.000289788
0.000208821
0.000176675
0.000170887
0.000167167
0.000157554
0.00013068
0.00010482
9.00921e-05
8.47399e-05
8.42302e-05
8.56429e-05
8.7126e-05
8.70206e-05
0.031371
0.0340317
0.0321218
0.031563
0.0321177
0.0348363
0.0377992
0.0385464
0.0385334
0.0379035
0.0366732
0.0363319
0.0366969
0.0384267
0.0418735
0.0475784
0.0565774
0.0700588
0.0879129
0.108704
0.127949
0.143036
0.155796
0.165298
0.171172
0.173865
0.174101
0.171518
0.162439
0.140427
0.111077
0.0834293
0.0628572
0.0501843
0.043694
0.0412845
0.0408757
0.0414657
0.0468441
0.0599444
0.0703149
0.0972026
0.111686
0.0403085
0.0127739
0.00679902
0.00481416
0.00413946
0.00398583
0.00402355
0.00464515
0.0066747
0.0114941
0.0221371
0.0434098
0.0718437
0.0821736
0.085033
0.0847382
0.0750097
0.055927
0.0403303
0.0291188
0.0196693
0.0156643
0.0132035
0.010784
0.00964936
0.00890066
0.00836441
0.00821457
0.00822769
0.00851016
0.00886053
0.00911214
0.00921297
0.00913097
0.00860976
0.00777575
0.00671709
0.00554269
0.00438055
0.00332869
0.00251038
0.00198353
0.00185557
0.00207739
0.00260623
0.00333334
0.00410009
0.00482579
0.00548912
0.00608026
0.00652904
0.00670321
0.00661801
0.00624906
0.00586879
0.00558977
0.00532054
0.00510551
0.00494753
0.00483881
0.00477211
0.00473697
0.00472163
0.00471719
0.00470904
0.00469482
0.00468218
0.00466854
0.00465671
0.00464985
0.00464008
0.00462243
0.00459493
0.00454865
0.00446883
0.00428473
0.00390847
0.00352216
0.0032923
0.00322485
0.00323761
0.00331603
0.00335328
0.00327797
0.00289341
0.00208342
0.00134081
0.000796375
0.000439062
0.000250552
0.000192239
0.000198363
0.000303756
0.000856851
0.00165697
0.00195879
0.00196597
0.00175457
0.00144029
0.00137577
0.0014291
0.00172409
0.00203724
0.00221177
0.00229272
0.00230486
0.00227545
0.00219442
0.00218652
0.00224593
0.00235013
0.0023761
0.00237112
0.00234011
0.00224921
0.00202712
0.00173716
0.00144199
0.00117554
0.000940845
0.000729011
0.000541561
0.000386766
0.000272767
0.000202954
0.000173405
0.000165583
0.000161482
0.000153239
0.00012917
9.67236e-05
7.60317e-05
6.77096e-05
6.65073e-05
6.79961e-05
7.43046e-05
7.92522e-05
0.0319816
0.0331086
0.0319421
0.032428
0.0345861
0.0373816
0.0383306
0.0380529
0.0367565
0.0347214
0.0333042
0.0330839
0.0334953
0.0349696
0.037714
0.0421671
0.0485551
0.0558188
0.0659687
0.0822884
0.100602
0.116561
0.130963
0.143798
0.153401
0.15961
0.16217
0.160633
0.151248
0.130981
0.105375
0.0807084
0.0618325
0.0498544
0.0435411
0.0411697
0.0411756
0.0418513
0.0447352
0.0528626
0.0698171
0.102945
0.10202
0.0295758
0.00995583
0.00576827
0.00449002
0.00411542
0.00403901
0.00425458
0.00540119
0.0088213
0.0172396
0.0365901
0.0769312
0.102414
0.110268
0.112101
0.108297
0.089114
0.060918
0.0358953
0.0190094
0.012621
0.00982933
0.00846745
0.00781502
0.00757071
0.00751317
0.00756177
0.00795244
0.00894463
0.0105027
0.0120518
0.0129859
0.0133999
0.0134619
0.0125926
0.011154
0.00918273
0.00722395
0.00533412
0.00371002
0.00253229
0.00174645
0.00123895
0.0010509
0.00114533
0.0015898
0.00228405
0.00299644
0.00364161
0.00419388
0.00464179
0.0049707
0.00516244
0.00524108
0.00521521
0.00509127
0.00497222
0.00486986
0.00479223
0.00473967
0.00471194
0.0047011
0.00470187
0.00470824
0.00472098
0.00474135
0.00476704
0.0047935
0.00481752
0.00483058
0.00483302
0.00481632
0.00472525
0.0046028
0.00451914
0.00439155
0.00409581
0.00352694
0.00300246
0.00271299
0.00264091
0.00266937
0.00283215
0.0029463
0.0029219
0.00260855
0.0018227
0.0011355
0.00065677
0.000356373
0.000208483
0.000171012
0.000184689
0.000318592
0.000933833
0.00159688
0.00180402
0.00178695
0.001562
0.00136476
0.00135018
0.00145509
0.00179475
0.00203506
0.00216627
0.00220935
0.00220521
0.0021486
0.00206858
0.00206475
0.00214196
0.00222677
0.0022323
0.00217425
0.00202152
0.00193075
0.00178106
0.00149734
0.00118793
0.000912732
0.000690562
0.000513067
0.000370902
0.000262709
0.000193053
0.000162454
0.000152442
0.000148382
0.000142822
0.00012824
9.92381e-05
7.66525e-05
6.56129e-05
6.31374e-05
6.3775e-05
6.82723e-05
7.41483e-05
0.0321772
0.0326996
0.0320439
0.0331404
0.0354409
0.0357758
0.0341162
0.0301307
0.0253578
0.0231404
0.0225048
0.0223911
0.0224888
0.0233206
0.0247966
0.0283117
0.0334289
0.0380214
0.0436189
0.0512767
0.0609684
0.0728076
0.0856837
0.0994039
0.1113
0.120676
0.125842
0.126092
0.11899
0.105548
0.0884345
0.0713198
0.0572948
0.047471
0.0422426
0.0413264
0.0417048
0.0422115
0.0453489
0.0525376
0.0765058
0.105706
0.0820984
0.0210887
0.00798133
0.00515999
0.00433679
0.00413824
0.00419422
0.00488813
0.00727664
0.0137747
0.030865
0.0672322
0.114083
0.133197
0.140454
0.142483
0.138493
0.114949
0.0784936
0.0463106
0.0240905
0.014897
0.0107876
0.00885735
0.00806526
0.00785772
0.0078849
0.00837137
0.00984495
0.0124584
0.0149199
0.0158167
0.0160933
0.016108
0.0157958
0.0151938
0.0141403
0.0123026
0.0093779
0.00676861
0.00457098
0.00288264
0.00180137
0.00116238
0.000772246
0.000603243
0.000605575
0.000793516
0.00132142
0.0020797
0.0028788
0.00351182
0.00400569
0.00437807
0.00462387
0.00475501
0.0048002
0.00479206
0.00474599
0.00470791
0.00468502
0.00467893
0.00468016
0.00468585
0.00470417
0.00475255
0.00482175
0.00489606
0.0049601
0.00499791
0.00500957
0.005005
0.00496517
0.00479903
0.00461601
0.00449644
0.00436537
0.00410347
0.0035385
0.00285651
0.00231942
0.00206488
0.00202288
0.00207401
0.00231382
0.00247577
0.00247253
0.00220009
0.00147816
0.000891229
0.000500244
0.000269541
0.000170471
0.000154908
0.000183885
0.000390048
0.00108508
0.00156043
0.00166792
0.00161701
0.00137873
0.00126707
0.00127936
0.00145406
0.00181876
0.00202294
0.00209283
0.00209462
0.00204834
0.00192966
0.00187573
0.00187926
0.00195679
0.00200727
0.00199243
0.00187918
0.00179975
0.00175537
0.0016542
0.00137099
0.00102783
0.00075266
0.000544434
0.000388454
0.000274903
0.000201023
0.00016296
0.000143826
0.000135139
0.000131101
0.000125276
0.000111188
9.00944e-05
7.46258e-05
6.80694e-05
6.7231e-05
6.83194e-05
7.17098e-05
0.0322507
0.0323064
0.0314957
0.031998
0.0321642
0.0313614
0.0283855
0.0226246
0.0170704
0.0148861
0.0137985