/*--------------------------------*- C++ -*----------------------------------*\
  =========                 |
  \\      /  F ield         | OpenFOAM: The Open Source CFD Toolbox
   \\    /   O peration     | Website:  https://openfoam.org
    \\  /    A nd           | Version:  9
     \\/     M anipulation  |
\*---------------------------------------------------------------------------*/
FoamFile
{
    format      ascii;
    class       volScalarField;
    location    "0.044";
    object      nut;
}
// * * * * * * * * * * * * * * * * * * * * * * * * * * * * * * * * * * * * * //

dimensions      [0 2 -1 0 0 0 0];

internalField   nonuniform List<scalar> 
12225
(
1.72867e-10
0
0
0
0
0
0
0
0
0
0
0
0
1.21216e-09
1.11129e-09
5.00535e-09
1.34006e-08
1.35599e-07
2.37041e-10
0
0
0
0
0
0
0
0
0
0
0
0
6.57834e-10
4.18128e-10
1.83961e-09
2.63059e-09
1.68423e-08
4.5069e-10
0
0
0
0
0
0
0
0
0
0
0
0
1.13388e-09
3.13762e-10
3.12882e-09
1.80542e-09
1.28649e-08
5.30325e-08
7.55337e-09
2.15452e-09
0
2.78203e-10
2.99528e-09
3.4401e-09
1.73778e-09
0
0
0
6.0779e-10
0
4.58107e-09
0
1.35556e-08
0
5.83964e-08
1.10797e-07
0
0
0
0
0
0
0
0
0
0
0
0
0
0
0
0
0
6.65673e-08
0
0
0
0
0
0
0
0
0
0
0
0
0
0
0
0
0
0
0
0
0
0
0
0
0
0
0
0
0
0
0
0
0
0
0
0
0
0
0
0
0
0
0
3.06746e-08
6.40524e-08
1.33067e-08
0
0
0
0
0
0
0
0
0
0
0
0
0
0
2.12342e-07
3.39788e-07
2.11662e-07
6.0862e-08
0
0
0
0
0
0
0
0
0
0
0
0
0
0
1.67371e-07
3.75748e-07
2.92365e-07
6.14409e-08
0
0
0
0
0
0
0
0
0
0
0
0
0
0
2.57336e-09
0
0
0
0
0
0
0
0
0
0
0
0
1.22519e-06
0
0
0
0
0
0
0
0
0
0
0
0
0
2.04078e-11
4.66693e-09
0
4.7696e-07
7.57992e-07
8.35223e-08
3.42486e-07
0
0
0
0
0
0
0
0
0
0
0
0
2.43747e-08
0
0
0
0
5.82298e-07
3.91299e-07
0
0
0
0
0
0
0
0
0
0
0
8.46974e-09
0
7.067e-09
0
0
5.82035e-08
0
0
0
0
0
0
0
0
0
7.97346e-08
4.49439e-08
0
0
0
0
3.62345e-08
0
0
0
0
0
0
0
0
0
0
3.9921e-07
5.75113e-07
4.86839e-07
3.00502e-07
1.22074e-07
0
0
7.73139e-08
0
0
0
0
0
0
0
0
1.05356e-07
4.59498e-07
7.25368e-07
8.29367e-07
7.24534e-07
5.4243e-07
3.61535e-07
0
0
0
4.40603e-07
0
0
0
0
0
0
0
2.00919e-07
5.0577e-07
6.97902e-07
7.4212e-07
6.65429e-07
5.07619e-07
3.22655e-07
1.19763e-07
2.13852e-07
5.38293e-07
6.3675e-07
4.53057e-07
5.84583e-07
2.94739e-07
0
0
1.22072e-07
2.25845e-07
1.87868e-07
2.04646e-07
1.94584e-07
1.38352e-07
8.77648e-08
6.61996e-08
6.37107e-08
8.84447e-08
0
3.45938e-07
2.43419e-07
0
1.84184e-07
1.12184e-06
6.40817e-07
1.05955e-08
0
0
0
0
1.26184e-07
1.68907e-07
1.478e-07
1.00434e-07
5.26868e-08
2.8489e-07
1.78371e-07
5.27086e-07
8.7868e-07
0
0
0
3.89027e-08
2.24603e-10
0
0
4.66749e-08
2.31254e-07
1.92884e-07
7.21319e-08
0
0
0
0
2.60454e-07
1.3786e-06
1.2162e-06
0
0
0
0
1.37897e-07
1.37819e-07
1.62011e-07
1.98241e-07
2.86453e-07
3.43566e-07
2.21504e-07
6.61849e-08
0
0
0
0
0
1.27451e-06
1.5516e-06
8.06147e-07
0
0
2.53896e-08
1.19287e-07
1.86084e-07
1.94062e-07
1.5664e-07
1.86204e-07
2.46613e-07
1.84132e-07
6.2903e-08
0
0
0
5.12343e-08
2.54931e-06
2.87442e-06
1.88977e-06
8.76838e-07
1.24602e-07
3.94856e-09
1.61875e-07
4.86313e-07
8.33392e-07
9.1792e-07
7.03132e-07
5.83766e-07
4.02058e-07
1.85043e-07
3.47679e-08
0
0
0
2.42361e-06
2.25198e-06
1.63217e-06
9.37053e-07
2.76007e-07
1.60118e-07
7.23849e-07
1.37149e-06
1.55408e-06
1.26041e-06
7.4555e-07
3.80605e-07
4.51377e-07
4.59293e-07
2.35361e-07
0
3.03162e-07
7.39957e-07
1.64297e-06
1.56415e-06
1.40386e-06
1.27924e-06
7.3761e-07
0
4.15309e-07
1.44807e-06
1.44392e-06
9.87905e-07
5.19853e-07
2.72243e-07
3.67357e-07
6.69033e-07
7.60881e-07
9.80926e-09
0
0
0
0
0
0
0
0
0
0
0
0
0
0
8.07588e-10
1.76883e-09
4.36702e-10
2.26359e-09
0
0
0
0
0
0
0
0
0
0
0
0
0
0
0
0
0
2.31004e-09
0
0
0
0
0
0
0
0
0
0
0
0
0
0
0
0
0
1.1401e-08
0
0
0
0
0
0
0
0
0
0
0
0
0
0
0
0
0
0
8.30185e-06
2.7871e-05
1.23035e-05
0
0
0
0
2.11893e-06
3.60423e-06
2.34643e-06
5.36575e-07
0
0
0
0
0
0
0
0
0
0
0
0
0
1.5295e-07
2.52175e-07
1.83506e-07
1.66969e-07
4.09621e-07
0
0
0
4.11998e-07
1.60513e-05
3.99746e-05
5.69487e-05
4.20843e-05
9.15173e-06
0
0
3.03324e-06
0
0
0
0
2.93692e-06
1.04499e-05
2.89406e-05
4.52105e-05
5.1271e-05
2.30187e-05
4.5221e-06
8.69612e-07
1.59525e-07
1.75451e-07
3.11808e-07
4.10309e-07
4.58824e-07
4.72353e-07
4.6571e-07
4.48473e-07
4.23071e-07
3.89332e-07
3.45352e-07
2.94838e-07
2.47896e-07
2.13294e-07
1.92611e-07
1.78642e-07
1.58797e-07
1.25436e-07
8.35247e-08
4.00699e-08
0
0
0
0
0
0
0
0
0
0
0
0
0
0
0
0
0
0
0
0
0
0
0
0
0
0
0
0
0
0
0
0
0
0
0
0
0
0
0
0
0
0
0
0
0
0
0
0
0
0
0
0
0
0
0
0
0
0
0
0
0
0
0
0
0
0
0
0
0
0
0
0
0
0
0
0
0
1.55935e-09
4.89745e-09
4.48336e-09
1.98106e-09
0
0
0
0
0
0
0
0
0
0
0
0
0
0
0
0
0
0
0
0
0
0
0
2.97287e-11
1.32192e-10
0
0
5.4286e-07
0
0
0
0
0
3.18243e-06
4.36495e-06
3.49591e-06
1.57192e-06
0
0
0
0
0
0
0
0
0
0
0
0
7.24109e-09
2.06122e-07
3.23461e-07
1.69456e-07
3.26889e-09
4.89446e-07
0
0
0
0
7.88216e-07
5.90377e-06
1.44241e-05
2.72055e-05
3.58178e-05
3.55193e-06
0
9.67827e-06
4.81199e-06
0
0
0
0
0
0
0
2.57021e-06
4.15918e-06
2.37514e-06
8.03947e-07
2.14985e-07
2.11997e-07
3.05845e-07
3.53657e-07
3.64849e-07
3.55584e-07
3.39055e-07
3.20292e-07
3.06513e-07
2.93785e-07
2.76376e-07
2.57667e-07
2.39381e-07
2.26273e-07
2.22584e-07
2.25e-07
2.23619e-07
2.05112e-07
1.58288e-07
7.6571e-08
0
0
0
0
0
0
0
0
0
0
0
0
0
0
0
0
0
0
0
0
0
0
0
0
0
0
0
0
0
0
0
0
0
0
0
0
0
0
0
0
0
0
0
0
0
0
0
0
0
0
0
0
0
0
0
0
0
0
0
0
0
0
0
0
0
0
0
0
0
0
0
0
0
0
0
0
0
0
1.98102e-09
5.40687e-09
4.72102e-09
2.16861e-09
0
0
0
0
0
0
0
0
0
0
0
0
0
0
0
0
0
0
0
3.03377e-10
2.83062e-10
2.43244e-10
1.06338e-09
1.27815e-10
3.58851e-06
7.02424e-06
3.14847e-06
1.14175e-06
0
0
0
1.19794e-06
3.22469e-06
3.68734e-06
2.49757e-06
0
0
0
0
0
0
0
0
0
0
0
0
0
0
3.82389e-07
8.53024e-07
1.78146e-07
0
0
0
0
0
0
0
9.21419e-07
6.38073e-06
1.10149e-05
1.7657e-05
1.93988e-05
6.52954e-06
0
0
0
0
0
0
0
0
0
2.31991e-07
1.22719e-06
1.02159e-06
4.14364e-07
2.84458e-07
4.77119e-07
7.23178e-07
8.96177e-07
9.69843e-07
9.75001e-07
9.58901e-07
9.41432e-07
9.31028e-07
9.34692e-07
9.43971e-07
9.50476e-07
9.54909e-07
9.64894e-07
9.80574e-07
9.78472e-07
9.11116e-07
7.62576e-07
5.23317e-07
1.82103e-07
0
0
0
0
0
0
0
0
0
0
0
0
0
0
0
0
0
0
0
0
0
0
0
0
0
0
0
0
0
0
0
0
0
0
0
0
0
0
0
0
0
0
0
0
0
0
0
0
0
0
0
0
0
0
0
0
0
0
0
0
0
0
0
0
0
0
0
0
0
0
0
0
0
0
0
0
0
0
0
0
3.17653e-09
9.91219e-09
1.32255e-08
1.20739e-08
5.66947e-09
0
0
0
0
0
0
0
0
0
0
0
0
0
0
6.9241e-10
1.50164e-09
1.87393e-09
2.69533e-09
1.25605e-09
4.99698e-09
0
1.57029e-05
6.67918e-06
5.06971e-06
3.92439e-06
2.39271e-06
1.06008e-06
1.28505e-07
0
0
0
0
0
0
0
0
0
0
0
0
0
0
0
0
0
0
0
0
0
0
0
0
0
0
0
0
1.39852e-06
5.44081e-06
6.04854e-06
7.24518e-06
5.64882e-06
0
0
0
0
0
2.34165e-08
4.6453e-07
0
4.66847e-07
3.65563e-07
9.63903e-09
3.86861e-07
2.78491e-07
1.57977e-07
1.60575e-07
1.56637e-07
1.27753e-07
1.30422e-07
1.6793e-07
2.26833e-07
2.8429e-07
3.23394e-07
3.3977e-07
3.44939e-07
3.5562e-07
3.82232e-07
4.2642e-07
4.7347e-07
4.84928e-07
4.07855e-07
2.33663e-07
0
0
0
0
0
0
0
0
0
0
0
0
0
0
0
0
0
0
0
0
0
0
0
0
0
0
0
0
0
0
0
0
0
0
0
0
0
0
0
0
0
0
0
0
0
0
0
0
0
0
0
0
0
0
0
0
0
0
0
0
0
0
0
0
0
0
0
0
0
0
0
0
0
0
0
0
0
0
0
0
0
0
0
0
0
0
0
3.04902e-08
2.17457e-08
4.76532e-10
0
0
0
0
0
0
0
0
0
0
0
6.15985e-10
2.32603e-09
4.69207e-09
3.16269e-09
6.88322e-09
0
9.46003e-09
0
8.60742e-06
5.59243e-06
2.96933e-06
1.72106e-06
5.92928e-07
0
0
0
0
0
0
0
0
0
0
0
0
0
0
0
0
0
0
0
0
0
0
0
0
0
0
0
0
0
0
4.02896e-06
5.28463e-06
3.50566e-06
2.59527e-06
2.91399e-07
0
0
0
0
0
0
1.75583e-07
1.57052e-07
1.55145e-07
0
0
2.49197e-07
2.22517e-07
0
0
0
0
0
0
0
0
0
0
0
0
0
0
0
0
0
0
0
0
0
0
0
0
0
0
0
0
0
0
0
0
0
0
0
0
0
0
0
0
0
0
0
0
0
0
0
0
0
0
0
0
0
0
0
0
0
0
0
0
0
0
0
0
0
0
0
0
0
0
0
0
0
0
0
0
0
0
0
0
0
0
0
0
0
0
0
0
0
2.87284e-07
1.31715e-06
2.63377e-06
2.59155e-06
1.88364e-06
1.78597e-06
1.7111e-06
1.13358e-06
3.50716e-07
1.29203e-07
1.35065e-07
9.61141e-08
9.71474e-09
0
0
0
0
0
0
0
0
1.41366e-08
4.15548e-08
6.93283e-08
6.95066e-08
3.70805e-08
6.56674e-09
0
0
0
0
0
2.19671e-09
0
1.59194e-08
0
2.03537e-08
0
3.90646e-06
3.98935e-06
2.32578e-06
2.11088e-07
0
0
4.84534e-07
8.36626e-07
0
0
0
0
0
0
4.43439e-07
1.00159e-06
1.30617e-06
1.36766e-06
1.15607e-06
5.83368e-07
0
0
0
0
0
0
0
0
0
0
0
0
0
0
0
1.3266e-05
6.52637e-06
1.47609e-06
0
0
0
0
0
0
0
0
0
0
0
0
0
0
0
0
0
0
0
0
0
0
0
0
0
0
0
0
0
0
0
0
0
0
0
0
0
0
0
0
0
0
0
0
0
0
0
0
0
0
0
0
0
0
0
2.49395e-08
7.76173e-08
8.97819e-08
4.8656e-08
0
0
0
0
0
0
0
0
0
0
0
0
0
0
0
0
0
0
0
0
0
0
0
0
0
0
0
0
0
0
0
0
0
0
0
0
0
0
0
0
0
0
0
0
1.51929e-06
2.2405e-06
3.51017e-06
4.88529e-06
3.77639e-06
2.14352e-06
1.60674e-06
1.29675e-06
9.27195e-07
6.15856e-07
7.44907e-07
1.26779e-06
2.05805e-06
1.555e-06
9.91762e-07
7.18654e-07
6.15883e-07
5.64887e-07
5.03748e-07
4.60809e-07
4.68295e-07
4.6966e-07
4.17288e-07
3.0691e-07
1.51046e-07
0
0
0
0
8.11296e-09
8.29017e-08
1.54908e-07
1.77196e-07
2.25419e-07
2.02421e-07
2.48956e-07
1.4855e-07
1.82434e-07
0
1.90282e-07
3.56008e-07
1.14633e-07
0
0
2.95714e-07
1.99854e-07
0
0
0
1.02795e-07
3.1097e-07
4.26663e-07
5.34122e-07
6.53097e-07
7.50136e-07
7.47484e-07
5.06713e-07
0
0
0
0
0
0
0
0
0
0
0
0
0
0
0
0
0
5.88557e-06
4.80392e-06
4.53463e-08
0
0
0
0
0
0
0
0
0
0
0
0
0
0
0
0
0
0
0
0
1.15112e-07
1.09588e-06
2.88923e-06
4.72875e-06
1.28027e-06
0
1.24397e-07
4.61726e-07
6.33439e-07
6.11463e-07
3.86704e-07
0
0
0
0
0
0
0
0
0
0
0
0
4.69275e-08
1.18647e-07
1.17223e-07
9.11583e-08
4.03923e-08
0
0
0
0
0
0
0
0
0
6.08475e-08
1.42203e-07
1.7481e-07
1.3783e-07
4.73094e-08
0
0
0
0
0
0
0
0
0
0
0
0
0
0
0
0
0
0
0
0
0
0
0
0
0
0
0
0
0
0
0
0
0
0
0
0
0
0
0
0
0
3.86312e-07
1.46808e-06
4.19641e-06
5.48185e-06
2.76988e-06
1.30771e-06
1.15175e-06
1.0623e-06
8.50218e-07
6.04645e-07
6.55395e-07
8.9655e-07
1.0895e-06
1.74248e-06
2.94587e-06
3.05763e-06
2.95786e-06
2.96886e-06
2.88969e-06
2.63757e-06
2.28698e-06
1.90661e-06
1.53988e-06
1.19376e-06
8.3245e-07
4.27017e-07
1.0754e-07
1.01743e-07
2.65397e-07
3.90526e-07
3.65089e-07
3.53014e-07
3.90478e-07
3.99083e-07
3.35606e-07
3.20837e-07
2.37984e-07
2.23312e-07
7.37421e-08
0
0
0
0
0
0
0
0
0
0
0
0
0
0
0
5.5934e-08
0
0
0
0
0
0
0
0
0
0
0
0
0
0
0
0
2.95709e-05
5.5814e-07
0
3.22334e-06
1.13162e-06
0
0
0
0
0
0
0
0
0
0
0
0
0
0
0
0
0
0
0
0
9.0731e-07
3.08872e-06
6.87931e-06
1.13862e-05
1.30865e-06
0
0
0
0
0
0
0
1.26203e-07
2.25249e-07
3.91023e-08
0
0
1.81025e-07
3.7681e-07
4.88917e-07
5.39763e-07
5.15072e-07
4.32398e-07
3.37864e-07
2.62053e-07
2.12213e-07
1.74932e-07
1.50906e-07
1.28004e-07
1.04561e-07
7.9836e-08
5.20703e-08
2.78538e-08
2.71212e-09
0
0
0
0
0
1.55524e-08
7.7872e-08
1.31423e-07
1.63889e-07
1.61953e-07
1.27102e-07
7.8353e-08
4.07735e-08
1.65958e-08
0
0
0
0
0
0
0
0
0
0
0
0
0
0
0
0
0
0
0
0
0
0
0
0
0
0
0
0
0
0
0
0
0
0
0
0
7.11484e-07
9.28687e-07
2.20569e-07
1.16658e-06
1.20767e-06
1.01085e-06
1.21979e-06
1.27405e-06
1.13948e-06
8.41252e-07
7.46664e-07
9.40657e-07
1.03659e-06
9.22723e-07
1.00715e-06
1.47649e-06
1.77081e-06
1.86713e-06
1.86237e-06
1.90561e-06
2.13895e-06
2.32289e-06
2.14261e-06
1.75367e-06
1.37323e-06
1.07351e-06
6.70453e-07
3.94592e-07
5.16985e-07
5.83976e-07
5.08541e-07
3.93714e-07
3.48838e-07
3.89563e-07
3.36058e-07
3.02201e-07
2.2939e-07
2.02804e-07
1.00341e-07
0
0
0
0
0
0
0
0
0
0
0
0
0
4.33157e-07
7.57527e-07
6.99397e-07
2.29161e-07
0
0
0
0
0
0
0
0
0
0
0
0
0
0
0
0
0
9.81776e-06
1.10646e-05
4.13098e-06
0
0
0
0
0
0
0
0
0
0
0
0
0
0
0
0
0
0
0
1.60341e-06
4.43382e-06
8.48888e-06
1.51908e-05
8.26841e-06
0
0
0
0
0
0
0
0
0
0
0
0
0
0
8.19069e-08
2.08488e-07
3.33429e-07
3.9191e-07
3.63012e-07
2.76936e-07
1.71751e-07
7.50147e-08
5.95188e-09
0
0
0
0
0
6.72112e-09
3.56925e-08
5.11277e-08
4.41675e-08
2.57561e-08
1.55901e-08
1.26328e-08
3.88907e-09
0
0
0
0
0
0
0
3.19976e-09
1.3744e-08
9.86295e-09
0
0
0
0
0
0
0
4.13653e-08
5.82984e-08
4.30878e-08
3.66679e-10
0
0
0
0
0
0
0
0
0
0
0
0
0
0
0
0
0
0
1.70012e-08
1.54327e-07
2.39621e-07
3.24848e-07
4.79557e-07
8.39238e-07
1.1155e-06
8.88824e-07
7.8023e-10
0
8.25702e-07
1.6439e-06
1.91617e-06
1.97406e-06
1.71992e-06
1.14747e-06
1.10976e-06
1.23447e-06
1.08009e-06
6.84754e-07
7.48195e-07
1.06397e-06
1.22122e-06
1.22053e-06
1.13903e-06
1.08004e-06
1.10351e-06
1.10796e-06
9.93612e-07
7.98519e-07
6.29678e-07
5.71933e-07
5.93398e-07
5.72304e-07
5.76446e-07
5.408e-07
4.32785e-07
3.0367e-07
2.95833e-07
2.70738e-07
2.43763e-07
1.89039e-07
1.64657e-07
8.88136e-08
0
0
0
0
0
0
0
0
0
0
0
0
6.2403e-07
1.19043e-06
1.36906e-06
1.0991e-06
4.00759e-07
0
0
0
0
0
0
0
0
0
0
0
0
0
0
0
0
0
0
0
4.05687e-06
0
0
0
0
0
0
0
0
0
0
0
0
0
0
0
0
0
0
2.11559e-06
5.35628e-06
8.84014e-06
1.28571e-05
1.74629e-05
1.49505e-06
0
0
0
0
0
0
0
0
0
0
0
0
0
0
0
7.1125e-08
4.4005e-07
7.11104e-07
8.30664e-07
7.81581e-07
6.01388e-07
3.71907e-07
1.79746e-07
4.61078e-08
0
0
0
0
0
0
0
1.5937e-08
3.00327e-08
3.13866e-08
2.2954e-08
1.25032e-08
6.50105e-09
0
0
0
0
0
0
0
0
0
0
0
0
0
0
0
0
0
0
0
0
0
0
0
0
0
0
0
0
0
0
0
0
0
0
0
0
0
0
1.48088e-08
2.80835e-07
4.18259e-07
5.35955e-07
6.9405e-07
8.8815e-07
1.10172e-06
1.14111e-06
9.3254e-07
3.89439e-07
5.83464e-07
1.99896e-06
2.38145e-06
2.54483e-06
3.05908e-06
2.66739e-06
1.53308e-06
1.57968e-06
1.52479e-06
1.00875e-06
6.5918e-07
9.21998e-07
1.26317e-06
1.51133e-06
1.61435e-06
1.49095e-06
1.19823e-06
9.03157e-07
6.31185e-07
3.78792e-07
1.95454e-07
7.02761e-08
0
0
1.43478e-07
2.55531e-07
2.67048e-07
1.82851e-07
1.48465e-07
1.33822e-07
1.35182e-07
1.1839e-07
1.17206e-07
6.51883e-08
0
0
0
0
0
0
0
0
0
0
0
7.54538e-08
9.01241e-07
1.56214e-06
1.88718e-06
1.87486e-06
1.54497e-06
7.26271e-07
0
0
0
0
0
0
0
0
0
0
0
0
0
0
0
0
0
0
8.24902e-06
9.22129e-06
0
0
0
0
0
0
0
0
0
0
0
0
0
0
0
0
1.94984e-06
5.72451e-06
9.27095e-06
1.21794e-05
1.45857e-05
1.58741e-05
1.11532e-05
0
0
0
0
0
0
0
0
0
0
0
0
0
0
0
0
0
0
3.87552e-07
7.6301e-07
7.46135e-07
5.52378e-07
3.55555e-07
2.00072e-07
8.68675e-08
8.2255e-09
0
0
0
0
0
0
0
0
0
0
0
0
0
0
0
0
0
0
0
0
0
0
3.63419e-09
1.45578e-09
0
0
0
0
0
0
0
0
0
0
0
0
0
0
0
0
0
0
0
0
0
0
0
0
0
0
3.17822e-07
5.52834e-07
6.8231e-07
8.23114e-07
9.59644e-07
1.05968e-06
1.13103e-06
1.11645e-06
1.06581e-06
8.64567e-07
9.51485e-07
7.7137e-07
2.80198e-07
9.75433e-08
4.09133e-07
8.04388e-07
1.51551e-06
1.94621e-06
1.61342e-06
1.03844e-06
1.04926e-06
1.59357e-06
2.22106e-06
2.59915e-06
2.65958e-06
2.30343e-06
1.55387e-06
7.57061e-07
1.87455e-07
0
0
0
0
0
0
0
0
5.04419e-09
0
0
0
4.78558e-08
2.85881e-08
0
0
0
0
0
0
0
0
0
0
8.96764e-08
7.64066e-07
1.45044e-06
2.04287e-06
2.47554e-06
2.74263e-06
2.76914e-06
2.36492e-06
1.55433e-06
4.61685e-07
0
0
0
0
0
0
0
0
0
0
0
0
0
0
0
5.73108e-06
1.19368e-05
1.94008e-05
2.93051e-05
3.70366e-06
0
0
0
0
0
0
0
0
0
0
0
0
0
1.19794e-06
5.31504e-06
9.7781e-06
1.31828e-05
1.56905e-05
1.78504e-05
1.9441e-05
2.03583e-05
0
0
0
0
0
0
0
0
0
0
0
0
0
0
0
0
0
0
0
0
2.90343e-07
3.48529e-07
2.59061e-07
1.56254e-07
8.93613e-08
4.48488e-08
1.56981e-09
0
0
0
0
0
0
0
0
0
0
0
0
0
0
0
0
0
0
0
0
1.04892e-08
2.94469e-08
5.32985e-08
7.56139e-08
9.40976e-08
1.08619e-07
1.16176e-07
1.08833e-07
7.78336e-08
1.89325e-08
0
0
0
0
0
0
3.24271e-08
8.00211e-08
6.47085e-08
1.54238e-08
5.54482e-08
1.31769e-07
1.22619e-07
8.23973e-08
8.90113e-08
2.8731e-08
0
0
0
2.07552e-07
6.23368e-07
8.0287e-07
9.19539e-07
1.03788e-06
1.06907e-06
1.07818e-06
1.08483e-06
1.12099e-06
1.17888e-06
0
0
0
0
0
0
0
0
1.18795e-06
7.37044e-07
5.19091e-07
1.62942e-06
1.84364e-06
1.4823e-06
1.65966e-06
1.63172e-06
1.27716e-06
6.18903e-07
2.21373e-08
0
0
0
0
0
0
0
0
1.59228e-07
2.09572e-07
0
0
0
0
0
0
0
0
0
0
0
0
7.05945e-07
9.25313e-07
9.60532e-07
1.282e-06
1.74592e-06
2.30233e-06
2.92703e-06
3.28209e-06
3.30967e-06
3.2575e-06
2.96843e-06
2.51528e-06
1.92437e-06
1.2715e-06
5.99368e-07
0
0
0
0
0
0
0
0
0
0
8.52748e-07
4.17172e-06
6.95287e-06
9.30151e-06
1.26468e-05
1.44593e-05
3.34195e-06
6.16391e-07
0
0
0
0
0
0
0
0
0
0
0
2.91109e-07
3.16444e-06
8.8682e-06
1.41151e-05
1.77026e-05
2.02749e-05
2.30148e-05
2.64031e-05
3.11957e-05
2.42715e-05
0
0
0
2.34116e-07
3.33777e-07
7.02174e-08
0
0
0
0
0
0
0
0
0
0
0
0
0
0
1.18289e-07
1.46216e-07
6.90998e-08
1.31661e-08
0
0
0
0
0
0
0
0
0
0
0
0
0
0
0
0
0
0
0
0
0
0
0
0
8.84597e-10
2.1818e-08
3.77052e-08
4.68914e-08
5.30578e-08
6.53047e-08
8.6883e-08
1.01251e-07
8.58659e-08
6.32384e-08
6.72195e-08
7.02217e-08
5.08782e-08
3.84031e-08
7.32793e-08
1.48751e-07
1.56836e-07
4.51533e-08
0
1.40905e-07
2.7665e-07
2.42401e-07
2.04099e-07
2.26596e-07
1.61883e-07
3.55576e-09
0
0
5.33645e-07
8.60067e-07
9.9317e-07
1.08705e-06
1.11897e-06
1.04244e-06
9.98913e-07
9.74147e-07
9.99064e-07
2.20223e-07
0
0
0
0
1.17658e-07
2.97285e-07
0
0
0
0
0
9.65229e-07
9.30608e-07
1.23199e-06
1.10549e-06
6.05104e-07
0
0
0
0
0
0
0
7.41656e-09
1.30551e-08
4.02306e-08
1.42728e-07
1.2454e-07
0
0
0
0
0
0
0
0
0
8.20992e-07
2.33821e-06
3.71613e-06
4.52247e-06
4.08418e-06
1.4639e-06
1.10887e-07
5.51966e-07
1.45243e-06
2.54478e-06
3.29615e-06
3.03387e-06
2.26362e-06
2.09213e-06
2.19931e-06
2.21841e-06
2.12301e-06
1.94544e-06
1.69874e-06
1.39945e-06
1.05186e-06
6.80265e-07
3.20078e-07
8.6412e-08
9.59349e-08
3.94958e-07
1.27088e-06
2.81111e-06
4.46154e-06
5.58506e-06
6.18557e-06
7.49367e-06
1.09265e-05
6.64528e-06
3.24024e-06
1.45561e-06
2.15329e-07
0
0
0
0
3.25433e-07
0
0
0
0
0
7.97932e-07
4.73884e-06
1.22324e-05
1.84499e-05
2.23917e-05
2.52824e-05
2.80748e-05
3.1841e-05
3.60775e-05
2.88214e-05
0
0
0
0
9.23963e-07
9.52346e-07
4.84791e-07
0
0
0
0
0
0
0
0
0
0
0
0
0
1.3592e-07
1.95836e-07
1.17806e-07
5.1338e-08
1.03916e-08
0
0
0
0
0
0
0
0
0
0
0
0
0
0
0
0
0
0
0
0
0
0
0
4.45001e-09
3.68248e-08
6.31808e-08
7.18496e-08
6.02658e-08
5.53082e-08
1.0302e-07
2.13601e-07
3.13043e-07
3.37574e-07
3.2946e-07
2.96562e-07
2.01586e-07
8.32344e-08
2.20948e-08
7.15459e-08
1.45996e-07
8.52393e-08
0
0
2.04551e-07
3.66988e-07
3.25351e-07
3.04639e-07
2.99274e-07
2.32489e-07
1.4599e-07
3.45831e-08
3.1558e-07
7.804e-07
1.01473e-06
1.11925e-06
1.15098e-06
1.05354e-06
9.05007e-07
7.92767e-07
6.38827e-07
1.73748e-07
0
0
0
0
3.08272e-07
5.53388e-07
5.26547e-07
5.71678e-08
0
0
0
0
1.52874e-06
1.52428e-06
1.28404e-06
6.84794e-07
1.60864e-07
1.58666e-08
5.78699e-08
0
0
0
0
3.86219e-08
1.00714e-07
9.6108e-08
7.97603e-08
0
0
0
0
0
0
0
0
0
3.09882e-06
5.94995e-06
8.73145e-06
1.15519e-05
1.40902e-05
1.68158e-05
1.80868e-05
9.28812e-06
3.22005e-07
0
7.00986e-07
2.90094e-06
3.23852e-06
2.01305e-06
1.07131e-06
7.11195e-07
7.4752e-07
1.07076e-06
1.44801e-06
1.66723e-06
1.67538e-06
1.54914e-06
1.34852e-06
1.14931e-06
1.06679e-06
1.3669e-06
2.16054e-06
3.21235e-06
4.02824e-06
4.43707e-06
4.65644e-06
5.51731e-06
8.22274e-06
8.55198e-06
6.25928e-06
4.17725e-06
2.55245e-06
1.26341e-06
4.56719e-07
3.29768e-07
0
0
0
0
0
0
0
0
4.52069e-07
4.05404e-06
1.32479e-05
2.24306e-05
2.75337e-05
3.03848e-05
3.24832e-05
3.44926e-05
3.49156e-05
2.51177e-05
0
0
0
0
0
7.18932e-07
1.11827e-06
1.17973e-06
7.07356e-07
0
0
0
0
0
0
0
0
0
0
0
3.07392e-07
2.36721e-07
1.3808e-07
8.37963e-08
5.3429e-08
3.08399e-08
1.09792e-08
0
0
0
0
0
0
0
0
0
0
0
0
0
0
0
0
0
0
0
0
0
0
5.69576e-08
1.34693e-07
2.24861e-07
3.23672e-07
4.69498e-07
7.33239e-07
1.0633e-06
1.18328e-06
9.54286e-07
6.07152e-07
3.88961e-07
2.54583e-07
1.14228e-07
0
0
2.5261e-08
7.13101e-08
0
0
1.43386e-08
2.77926e-07
4.03913e-07
3.70225e-07
3.48694e-07
3.13951e-07
2.70658e-07
2.4469e-07
2.65888e-07
5.79222e-07
9.55342e-07
1.11426e-06
1.16137e-06
1.08961e-06
8.65509e-07
6.35995e-07
3.81095e-07
0
0
0
0
8.08599e-08
5.05771e-07
6.83284e-07
7.00236e-07
5.66917e-07
1.60237e-07
0
0
0
1.58858e-06
1.78465e-06
1.4729e-06
9.34795e-07
4.43178e-07
2.50093e-07
1.96197e-07
0
0
0
0
0
1.16828e-07
1.16196e-07
1.92691e-09
0
0
0
0
0
0
0
0
3.57908e-06
7.6569e-06
1.06981e-05
1.28007e-05
1.42692e-05
1.46078e-05
1.33333e-05
5.46181e-06
2.41084e-05
1.77965e-05
9.97603e-06
2.1441e-06
1.46859e-06
2.72677e-06
1.91183e-06
8.93589e-07
4.00396e-07
1.80317e-07
1.58396e-08
1.283e-07
7.3789e-07
1.27355e-06
1.47989e-06
1.49391e-06
1.46302e-06
1.50395e-06
1.82754e-06
2.47877e-06
3.02166e-06
3.05358e-06
2.84644e-06
3.35398e-06
5.65285e-06
7.94615e-06
8.15188e-06
6.9962e-06
5.45822e-06
4.06537e-06
3.22111e-06
5.36371e-06
1.97127e-06
1.80401e-07
0
0
1.22514e-07
2.31699e-07
2.38209e-07
2.47558e-07
9.61996e-08
0
5.17716e-07
8.05982e-06
2.04727e-05
2.87254e-05
3.24511e-05
3.4038e-05
3.44738e-05
3.26279e-05
2.41868e-05
4.59183e-06
0
0
0
0
0
0
2.0805e-07
1.22118e-06
1.52818e-06
1.11238e-06
4.34167e-07
1.07805e-07
3.66329e-07
8.64944e-07
8.5496e-07
5.09489e-07
4.40644e-07
1.01076e-06
8.91964e-07
4.38872e-07
1.76466e-07
7.3685e-08
4.34109e-08
3.53548e-08
3.18586e-08
2.84138e-08
2.19725e-08
1.13347e-08
0
0
0
0
0
0
0
0
0
0
0
0
0
0
0
0
0
0
0
1.96344e-08
2.42452e-07
5.5964e-07
1.07087e-06
1.8445e-06
2.71885e-06
3.07978e-06
2.60295e-06
1.91675e-06
1.27269e-06
5.19154e-07
8.47886e-08
7.74348e-08
1.13337e-07
7.3713e-08
1.49319e-08
5.10913e-09
3.86094e-08
3.53089e-08
0
0
1.53949e-07
3.47777e-07
4.35245e-07
4.07133e-07
3.63834e-07
3.27782e-07
3.19535e-07
3.30838e-07
4.58084e-07
8.31008e-07
1.08818e-06
1.1783e-06
1.14271e-06
9.25906e-07
5.9043e-07
2.58287e-07
0
0
0
0
6.31474e-07
8.87152e-07
9.15553e-07
8.48047e-07
7.02065e-07
5.11574e-07
3.67584e-07
4.7549e-08
8.94212e-08
3.00992e-07
7.62478e-07
9.73395e-07
7.64538e-07
4.44227e-07
2.61031e-07
1.67641e-07
0
0
0
0
0
6.48668e-08
4.34455e-08
0
0
0
0
0
0
0
0
0
5.6524e-06
7.92629e-06
9.73379e-06
1.01372e-05
9.47627e-06
8.92146e-06
7.90887e-06
1.79522e-06
6.02838e-06
8.41404e-06
8.27541e-06
4.04091e-06
9.74836e-07
8.49294e-07
8.12221e-07
3.60773e-07
1.23633e-07
2.40063e-08
0
0
0
1.1262e-08
7.00066e-07
1.02303e-06
1.12651e-06
1.18947e-06
1.34818e-06
1.59018e-06
1.55026e-06
1.10409e-06
1.37072e-06
2.9534e-06
4.88514e-06
6.18119e-06
6.52831e-06
6.12778e-06
5.4298e-06
5.20767e-06
6.59055e-06
3.19126e-06
1.12839e-06
4.18071e-07
9.31042e-08
1.21938e-07
3.1127e-07
3.92095e-07
4.42658e-07
5.25706e-07
4.61518e-07
0
0
0
7.42917e-06
1.89692e-05
2.49043e-05
2.67574e-05
2.65158e-05
2.41976e-05
1.87158e-05
8.53297e-06
0
0
0
0
0
0
0
0
4.0954e-07
1.66077e-06
1.68244e-06
8.4048e-07
1.41086e-07
0
0
0
0
8.96553e-07
1.08795e-06
3.68432e-07
1.13067e-07
3.68704e-08
1.71234e-08
1.08737e-08
8.65979e-09
9.14902e-09
9.73464e-09
8.71914e-09
5.26813e-09
0
0
0
0
0
0
0
0
0
0
0
0
0
0
0
0
0
0
7.16912e-07
1.77548e-06
2.50044e-06
2.6475e-06
2.16496e-06
1.52308e-06
1.02416e-06
7.07805e-07
5.49349e-07
6.65816e-07
2.74373e-07
0
3.73645e-09
5.14204e-08
6.01244e-08
3.5286e-08
1.42139e-08
2.29846e-08
4.7342e-08
5.66522e-08
6.87448e-08
1.44643e-07
3.04646e-07
4.40318e-07
4.84642e-07
4.3176e-07
3.813e-07
3.63969e-07
3.77655e-07
4.29578e-07
6.84906e-07
1.02386e-06
1.16511e-06
1.17826e-06
1.03469e-06
6.67626e-07
2.93277e-07
5.29235e-08
8.32901e-08
3.37111e-07
5.73918e-07
7.83753e-07
1.08252e-06
1.1962e-06
1.06422e-06
8.43762e-07
6.48714e-07
6.35349e-07
8.74054e-07
3.3286e-07
0
9.96253e-08
4.18435e-07
4.44967e-07
2.92918e-07
1.68725e-07
7.22988e-08
2.31259e-08
3.92828e-08
0
0
0
0
0
0
0
0
0
0
0
0
7.82518e-08
7.00641e-07
0
0
1.16656e-06
3.70122e-06
5.37607e-06
7.42128e-06
1.10942e-05
1.24427e-05
5.71076e-06
4.80038e-06
0
0
0
1.07548e-07
0
0
0
0
0
0
0
0
0
1.76909e-07
5.56203e-07
7.06568e-07
6.99442e-07
4.1885e-07
2.16189e-07
6.51191e-07
1.44327e-06
2.3244e-06
3.06368e-06
3.61782e-06
3.9061e-06
3.97891e-06
4.23779e-06
4.93743e-06
3.43065e-06
1.58149e-06
8.04804e-07
4.44795e-07
2.87934e-07
2.901e-07
3.71862e-07
4.31905e-07
5.0299e-07
6.25886e-07
7.13582e-07
3.77802e-07
0
0
0
3.15378e-06
1.18645e-05
1.51391e-05
1.48503e-05
1.24991e-05
9.17775e-06
5.06345e-06
0
0
0
0
3.68644e-07
0
0
0
0
1.49745e-06
5.60197e-07
0
0
0
0
0
0
8.20376e-07
8.29839e-07
2.42233e-07
8.16982e-08
2.81154e-08
1.00623e-08
3.08829e-09
2.60993e-10
0
0
0
0
0
0
0
0
0
0
0
0
0
0
0
0
0
0
0
0
0
1.94339e-07
4.33837e-07
4.46849e-07
4.11285e-07
3.68276e-07
3.30763e-07
3.11375e-07
3.08774e-07
3.23328e-07
4.10548e-07
3.2971e-07
4.51502e-08
0
0
0
0
0
0
7.9102e-09
4.86579e-08
1.03288e-07
1.51116e-07
2.12726e-07
3.35146e-07
4.7967e-07
5.61839e-07
5.52867e-07
4.74135e-07
4.26737e-07
4.27247e-07
4.49442e-07
5.86853e-07
9.36446e-07
1.13225e-06
1.17154e-06
1.10227e-06
8.59157e-07
5.66474e-07
4.73348e-07
5.97198e-07
7.20344e-07
7.50194e-07
6.88845e-07
6.16549e-07
7.61722e-07
9.87638e-07
8.90441e-07
6.81856e-07
6.10707e-07
6.43028e-07
3.27847e-07
0
0
1.28065e-07
1.94755e-07
1.30676e-07
6.76795e-08
0
9.56336e-08
2.80806e-07
1.77913e-07
2.05113e-08
0
0
0
0
0
0
0
0
0
1.41489e-07
4.13496e-07
1.76128e-06
0
0
0
0
0
1.9238e-07
6.339e-06
1.06958e-05
8.788e-06
8.2887e-06
0
0
0
5.79768e-07
5.37525e-08
0
0
0
0
0
0
0
0
0
0
2.14432e-07
1.67151e-07
0
0
5.50681e-07
1.18793e-06
1.57189e-06
1.76568e-06
1.97672e-06
2.16729e-06
2.42418e-06
2.89393e-06
2.70059e-06
1.6413e-06
8.88756e-07
5.27143e-07
3.44822e-07
2.68575e-07
2.60808e-07
2.97967e-07
3.38177e-07
3.98878e-07
5.05298e-07
6.3212e-07
6.18663e-07
0
0
0
0
0
1.90331e-06
2.15202e-06
8.74238e-08
0
0
0
0
0
3.33684e-07
6.99768e-07
2.54899e-07
3.82408e-07
3.20248e-07
0
7.59982e-07
3.85487e-08
0
0
0
0
0
0
1.45506e-06
4.89184e-07
1.83267e-07
6.9014e-08
2.01164e-08
4.01855e-09
0
0
0
0
0
0
0
0
0
0
0
0
0
0
0
0
0
0
0
0
0
0
1.82189e-07
3.36683e-07
3.13101e-07
2.52341e-07
2.0095e-07
1.67128e-07
1.58895e-07
1.84327e-07
2.72686e-07
5.11898e-07
1.77219e-07
0
0
0
0
0
0
0
0
0
4.28525e-08
1.30275e-07
2.2314e-07
3.06564e-07
4.15922e-07
5.53213e-07
6.50306e-07
6.82353e-07
6.17338e-07
5.27765e-07
4.91578e-07
4.93183e-07
5.42876e-07
8.04165e-07
1.03581e-06
1.08347e-06
1.00571e-06
8.60265e-07
7.46269e-07
7.90198e-07
8.58018e-07
8.51636e-07
7.97119e-07
6.81221e-07
5.08478e-07
3.67907e-07
4.45557e-07
6.14833e-07
5.85759e-07
5.2982e-07
5.06732e-07
3.15473e-07
0
0
0
3.58501e-08
1.58446e-08
0
0
1.69234e-07
3.74143e-07
3.51807e-07
2.84677e-07
1.30588e-07
0
0
0
0
0
0
0
0
3.10439e-07
8.39806e-07
2.92441e-06
2.55434e-06
3.20463e-07
0
0
0
0
1.40304e-06
4.85511e-06
6.13735e-06
7.48939e-07
0
0
0
5.85665e-07
1.3212e-07
0
0
0
0
0
0
0
0
0
0
0
0
0
0
2.96088e-07
8.60994e-07
1.08227e-06
1.08346e-06
1.15266e-06
1.30859e-06
1.53637e-06
1.64513e-06
1.30983e-06
7.85767e-07
4.55882e-07
2.85025e-07
1.98852e-07
1.58966e-07
1.47894e-07
1.61281e-07
1.78021e-07
2.12553e-07
2.78484e-07
3.66334e-07
4.32607e-07
3.33345e-07
0
0
0
0
0
0
0
0
0
0
0
0
0
0
1.35779e-07
6.54339e-07
3.41695e-07
0
0
0
0
0
0
0
0
0
9.74378e-07
3.23303e-07
1.17987e-07
4.00332e-08
1.2626e-08
2.69716e-09
0
0
0
0
0
0
0
0
0
0
0
0
0
0
0
0
0
0
0
0
0
0
6.14509e-07
6.89855e-07
5.55513e-07
4.21583e-07
3.34027e-07
3.14008e-07
3.55144e-07
4.30148e-07
6.5547e-07
2.27576e-07
0
0
0
0
0
0
0
0
0
0
3.13828e-08
1.44335e-07
2.90292e-07
4.19347e-07
5.39284e-07
6.70434e-07
7.703e-07
8.13745e-07
7.85052e-07
6.72619e-07
5.89298e-07
5.59756e-07
5.51646e-07
6.81746e-07
8.99746e-07
9.60398e-07
8.83033e-07
7.52836e-07
6.26627e-07
6.6426e-07
7.88385e-07
8.18623e-07
7.67184e-07
6.52323e-07
5.04105e-07
3.19456e-07
2.13761e-07
3.11423e-07
4.18541e-07
4.38554e-07
4.29112e-07
3.0893e-07
0
0
0
0
0
0
0
1.41963e-07
3.64336e-07
4.0025e-07
4.05345e-07
2.61594e-07
0
0
0
0
0
0
0
0
3.33972e-07
1.27373e-06
3.57755e-06
3.3351e-06
1.9574e-06
8.07897e-07
0
0
0
6.75959e-07
2.87746e-06
7.76889e-07
0
0
0
5.85807e-07
5.16418e-07
1.17373e-07
0
0
0
0
0
0
0
0
0
0
0
0
0
0
9.08786e-08
6.20846e-07
7.89297e-07
7.26256e-07
7.30552e-07
8.17382e-07
8.80013e-07
8.06802e-07
5.64789e-07
3.14773e-07
1.73001e-07
9.73935e-08
5.29685e-08
2.78601e-08
1.57811e-08
1.25241e-08
4.87096e-09
7.8038e-09
3.22238e-08
6.88185e-08
1.06093e-07
1.42163e-07
2.40578e-07
6.89356e-07
1.87206e-06
2.24328e-06
0
0
0
0
0
0
0
0
0
0
1.32107e-07
1.00183e-06
8.90407e-08
0
0
0
0
0
0
0
0
0
2.08541e-07
9.16738e-08
3.84005e-08
1.92843e-08
9.91341e-09
1.15711e-09
0
0
0
0
0
0
0
0
0
0
0
0
0
0
0
0
0
0
0
0
0
1.06531e-07
4.5288e-07
6.14455e-07
6.67703e-07
6.21634e-07
5.56929e-07
5.81435e-07
6.61453e-07
7.53293e-07
6.41643e-07
0
0
0
0
0
0
0
0
0
0
0
1.76604e-08
1.5885e-07
3.61799e-07
5.62495e-07
7.1555e-07
8.52385e-07
9.51526e-07
9.8575e-07
9.6271e-07
8.42761e-07
7.18204e-07
6.49665e-07
6.06659e-07
6.21043e-07
7.75071e-07
8.44961e-07
7.99426e-07
7.01902e-07
5.59363e-07
5.03531e-07
6.02957e-07
6.94396e-07
6.76395e-07
5.88881e-07
4.79373e-07
3.33344e-07
1.67771e-07
1.59272e-07
2.64072e-07
3.3806e-07
3.62212e-07
2.94082e-07
4.92423e-08
0
0
0
0
0
0
0
2.57906e-07
3.6789e-07
4.06494e-07
1.59839e-07
0
3.09506e-07
8.29257e-08
0
0
0
0
0
2.27707e-07
1.57129e-06
3.0993e-06
2.94099e-06
2.31171e-06
1.63366e-06
9.65549e-07
4.5533e-07
4.57326e-07
1.38393e-06
1.44392e-07
0
0
0
0
8.6586e-07
4.31769e-07
1.15184e-07
0
0
0
0
0
0
1.23986e-08
0
0
0
0
0
0
0
0
4.56968e-07
6.1085e-07
5.03115e-07
4.56459e-07
4.69012e-07
4.01692e-07
2.81463e-07
1.47138e-07
4.29451e-08
0
0
0
0
0
0
0
0
0
0
0
0
8.76898e-09
9.15184e-07
3.77795e-06
1.08646e-05
2.05833e-05
0
0
0
0
0
0
0
0
0
5.11088e-07
1.32978e-06
0
0
0
0
4.07752e-07
4.75447e-07
2.88218e-07
0
0
0
0
0
0
1.96115e-09
0
0
0
0
0
0
0
0
0
0
0
0
0
0
0
0
0
0
0
0
0
0
0
4.05652e-07
5.58715e-07
5.66848e-07
5.21958e-07
4.22503e-07
3.70144e-07
4.05087e-07
4.69492e-07
4.97549e-07
0
0
0
0
0
0
0
0
0
0
0
0
3.89492e-09
1.93389e-07
4.53984e-07
7.43021e-07
9.59628e-07
1.13128e-06
1.23722e-06
1.2446e-06
1.16912e-06
1.04497e-06
8.99255e-07
7.85763e-07
7.11269e-07
6.47352e-07
6.93775e-07
7.55083e-07
7.45556e-07
6.86918e-07
5.6396e-07
4.51378e-07
4.62345e-07
5.41694e-07
5.58424e-07
5.00754e-07
4.18659e-07
3.16218e-07
1.61108e-07
9.55048e-08
1.62336e-07
2.44644e-07
2.88945e-07
2.58206e-07
9.56315e-08
0
0
0
0
0
0
0
5.12652e-09
2.53881e-07
3.26446e-07
0
0
9.81817e-07
4.09937e-07
0
0
0
0
0
9.09632e-07
2.4104e-06
2.40275e-06
1.54367e-06
1.1504e-06
8.39883e-07
4.95035e-07
1.91241e-07
0
0
0
0
0
0
1.00162e-06
7.03599e-07
3.12421e-07
1.06841e-07
5.81144e-08
5.51146e-08
3.76435e-08
1.37606e-08
0
0
1.7309e-08
2.13613e-08
0
0
0
0
0
0
0
2.66512e-07
4.7836e-07
3.18849e-07
2.08481e-07
1.86278e-07
6.30058e-08
0
0
0
0
0
0
0
0
0
0
0
0
0
0
0
0
3.91595e-07
3.00547e-06
1.00287e-05
2.60468e-05
1.32062e-05
0
0
0
0
0
0
0
0
1.08042e-06
1.43822e-06
0
0
0
3.44262e-07
8.29269e-07
6.01305e-07
1.66053e-07
0
0
0
0
0
0
0
0
0
0
0
0
0
0
0
0
0
0
0
0
0
0
0
0
0
0
0
0
0
1.01397e-07
3.89012e-07
3.83399e-07
4.08414e-07
3.69909e-07
2.92498e-07
2.77194e-07
3.01892e-07
3.03919e-07
1.66883e-07
0
0
0
0
0
0
0
0
0
0
0
0
0
2.62253e-07
6.10553e-07
9.9478e-07
1.29951e-06
1.54134e-06
1.67413e-06
1.62962e-06
1.4579e-06
1.27221e-06
1.07775e-06
9.08802e-07
8.04273e-07
7.11905e-07
6.75016e-07
7.0445e-07
7.18831e-07
6.93162e-07
6.01707e-07
4.66924e-07
3.97529e-07
4.16598e-07