/*--------------------------------*- C++ -*----------------------------------*\
  =========                 |
  \\      /  F ield         | OpenFOAM: The Open Source CFD Toolbox
   \\    /   O peration     | Website:  https://openfoam.org
    \\  /    A nd           | Version:  9
     \\/     M anipulation  |
\*---------------------------------------------------------------------------*/
FoamFile
{
    format      ascii;
    class       volScalarField;
    location    "0.044";
    object      p;
}
// * * * * * * * * * * * * * * * * * * * * * * * * * * * * * * * * * * * * * //

dimensions      [0 2 -2 0 0 0 0];

internalField   nonuniform List<scalar> 
12225
(
442.793
435.824
431.066
427.358
424.104
421.056
418.074
415.019
411.817
408.471
405.048
401.515
397.857
393.849
389.511
384.321
378.321
370.104
441.767
435.755
431.05
427.357
424.112
421.06
418.068
415.018
411.832
408.514
405.112
401.619
397.929
393.974
389.616
384.679
378.797
372.258
441.39
435.581
430.99
427.32
424.088
421.056
418.079
415.047
411.885
408.592
405.218
401.735
398.088
394.178
389.936
385.201
379.894
374.175
441.616
435.349
430.876
427.283
424.099
421.077
418.103
415.077
411.939
408.697
405.357
401.914
398.313
394.486
390.372
385.917
381.092
376.088
440.612
435.073
430.736
427.198
424.062
421.089
418.147
415.152
412.049
408.843
405.542
402.145
398.61
394.889
390.949
386.779
382.402
378.01
439.729
434.493
430.496
427.1
424.061
421.124
418.211
415.248
412.184
409.023
405.778
402.442
398.991
395.394
391.643
387.753
383.787
379.916
437.617
434.012
430.213
426.965
424.023
421.164
418.307
415.39
412.372
409.261
406.073
402.807
399.452
395.995
392.442
388.83
385.236
381.803
436.726
433.148
429.811
426.818
424.011
421.238
418.43
415.559
412.593
409.543
406.429
403.256
400.017
396.714
393.366
390.02
386.755
383.687
435.997
432.483
429.372
426.596
423.997
421.344
418.618
415.805
412.893
409.902
406.86
403.778
400.66
397.519
394.379
391.289
388.323
385.574
438.644
431.72
428.812
426.43
424.025
421.479
418.825
416.075
413.23
410.316
407.361
404.381
401.39
398.41
395.472
392.621
389.921
387.45
434.553
430.228
428.158
426.231
424.082
421.704
419.156
416.473
413.683
410.831
407.953
405.069
402.2
399.375
396.625
393.992
391.524
389.279
430.643
428.431
427.531
426.113
424.19
421.939
419.474
416.854
414.13
411.354
408.563
405.781
403.028
400.337
397.739
395.274
392.983
390.908
425.793
426.47
426.884
426.062
424.423
422.326
419.945
417.376
414.697
411.977
409.255
406.553
403.902
401.334
398.878
396.567
394.434
392.512
414.508
423.841
426.426
426.23
424.844
422.857
420.525
417.996
415.378
412.738
410.112
407.52
404.989
402.552
400.24
398.08
396.097
394.315
412.948
423.505
426.902
426.99
425.709
423.799
421.521
419.015
416.408
413.795
411.224
408.708
406.274
403.953
401.774
399.754
397.91
396.255
417.215
425.77
428.914
428.758
427.267
425.183
422.782
420.235
417.642
415.073
412.574
410.165
407.858
405.671
403.623
401.725
399.987
398.416
427.674
432.991
433.595
432.123
429.917
427.413
424.772
422.101
419.454
416.868
414.37
411.974
409.693
407.551
405.566
403.74
402.072
400.559
459.185
447.322
441.144
437.33
433.843
430.512
427.342
424.349
421.522
418.846
416.323
413.948
411.721
409.647
407.726
405.953
404.322
402.828
479.649
462.143
451.537
444.094
438.505
434.147
430.422
427.103
424.086
421.291
418.689
416.269
414.018
411.928
409.992
408.205
406.556
405.04
460.375
454.987
449.847
444.975
440.391
436.223
432.525
429.146
426.013
423.131
420.481
418.031
415.76
413.657
411.712
409.911
408.242
406.695
458.606
455.252
450.329
445.952
441.6
437.543
433.878
430.495
427.347
424.434
421.743
419.252
416.944
414.806
412.826
410.992
409.294
407.716
456.471
453.899
450.727
446.632
442.459
438.51
434.852
431.445
428.275
425.335
422.615
420.1
417.777
415.626
413.633
411.782
410.063
408.461
452.412
452.669
450.83
447.227
443.195
439.288
435.607
432.179
428.995
426.036
423.292
420.753
418.403
416.226
414.205
412.327
410.582
408.957
453.657
455.876
452.586
448.244
443.987
439.955
436.202
432.717
429.489
426.501
423.735
421.181
418.821
416.633
414.602
412.714
410.956
409.316
461.352
457.939
453.621
449.058
444.594
440.444
436.629
433.113
429.864
426.853
424.068
421.501
419.132
416.935
414.89
412.984
411.21
409.555
469.119
461.762
455.31
449.906
445.123
440.829
436.947
433.39
430.103
427.065
424.268
421.699
419.332
417.137
415.092
413.182
411.396
409.727
473.943
463.551
456.246
450.444
445.47
441.091
437.167
433.586
430.284
427.236
424.43
421.853
419.477
417.275
415.224
413.309
411.518
409.84
475.498
465.029
457.009
450.835
445.714
441.27
437.311
433.705
430.383
427.319
424.505
421.927
419.556
417.357
415.309
413.393
411.597
409.914
478.767
465.904
457.382
451.036
445.84
441.363
437.394
433.784
430.456
427.381
424.556
421.976
419.61
417.419
415.372
413.452
411.645
409.95
480.797
466.4
457.548
451.136
445.894
441.399
437.433
433.83
430.5
427.416
424.576
421.984
419.616
417.43
415.393
413.483
411.683
409.991
381.794
381.227
380.623
380.088
380.209
381.082
382.479
383.833
384.65
384.701
383.958
382.526
380.613
378.416
376.096
373.775
371.543
369.472
367.614
366.017
364.726
363.782
363.244
363.113
363.463
364.256
365.484
367.006
368.53
369.832
369.889
368.294
365.694
363.039
361.101
358.89
356.252
354.141
353.237
353.67
355.207
356.631
356.112
353.783
351.459
350.118
349.178
348.229
347.208
345.918
345.399
345.875
345.242
342.138
337.103
330.803
323.807
316.534
309.277
302.226
295.495
289.143
283.197
277.665
272.548
267.846
263.555
259.659
256.132
252.969
250.22
248.007
246.526
245.989
246.534
248.247
251.238
255.33
260.285
265.812
271.589
277.323
282.763
287.719
292.061
295.72
298.677
300.953
302.601
303.691
304.3
304.503
304.372
303.97
303.351
302.562
301.647
300.643
299.587
298.511
297.446
296.413
295.422
294.478
293.573
292.693
291.823
290.944
290.041
289.106
288.134
287.126
286.083
285.008
283.9
282.755
281.565
280.319
279.006
277.612
276.127
274.543
272.858
271.073
269.195
267.236
265.211
263.136
261.031
258.911
256.79
254.681
252.59
250.52
248.472
246.447
244.447
242.473
240.507
238.537
236.551
234.55
232.547
230.553
228.558
226.546
224.512
222.467
220.421
218.379
216.335
214.283
212.214
210.119
207.994
205.841
203.658
201.444
199.197
196.923
194.63
192.329
190.024
187.712
185.387
183.044
180.683
178.303
175.909
173.5
171.078
168.644
166.199
163.746
161.286
158.824
156.367
153.92
151.505
149.103
379.629
379.078
378.719
378.094
378.159
379.03
380.315
381.394
381.877
381.656
380.751
379.308
377.509
375.51
373.431
371.359
369.361
367.487
365.778
364.266
362.986
361.966
361.242
360.859
360.838
361.244
362.012
363.138
364.29
365.364
365.762
364.616
363.424
362.495
360.373
357.284
353.88
350.995
349.583
349.582
350.794
352.633
352.972
351.381
349.875
348.985
348.184
347.743
348.303
346.178
343.957
343.051
341.439
337.942
332.876
326.767
320.106
313.243
306.414
299.771
293.408
287.378
281.706
276.394
271.427
266.785
262.446
258.395
254.634
251.209
248.235
245.877
244.33
243.813
244.518
246.529
249.682
253.911
259
264.647
270.544
276.392
281.94
287.001
291.447
295.208
298.263
300.634
302.367
303.529
304.194
304.437
304.332
303.943
303.328
302.536
301.611
300.592
299.517
298.424
297.342
296.296
295.296
294.347
293.442
292.566
291.701
290.826
289.927
288.994
288.022
287.013
285.97
284.897
283.791
282.65
281.466
280.227
278.921
277.535
276.058
274.483
272.805
271.026
269.153
267.197
265.173
263.1
260.996
258.876
256.755
254.647
252.558
250.49
248.444
246.421
244.42
242.436
240.465
238.494
236.51
234.517
232.525
230.542
228.554
226.543
224.508
222.464
220.422
218.385
216.346
214.296
212.223
210.122
207.992
205.835
203.65
201.436
199.19
196.918
194.628
192.329
190.025
187.713
185.388
183.045
180.683
178.304
175.91
173.501
171.078
168.642
166.196
163.74
161.277
158.81
156.348
153.889
151.463
149.027
380.608
380.432
380.257
379.736
379.238
379.045
379.073
378.983
378.526
377.644
376.408
374.93
373.301
371.591
369.848
368.108
366.404
364.763
363.211
361.775
360.486
359.381
358.499
357.883
357.567
357.507
357.656
358.034
358.537
359.054
359.495
359.486
359.253
358.53
356.967
355.086
352.619
349.811
348.383
348.527
349.67
351.609
352.278
351.215
349.648
348.868
348.57
347.325
346.145
344.539
341.925
338.975
335.472
331.209
326.207
320.618
314.626
308.424
302.171
296.004
290.026
284.31
278.894
273.791
268.99
264.461
260.175
256.117
252.302
248.792
245.707
243.208
241.508
240.901
241.57
243.616
246.889
251.289
256.583
262.449
268.557
274.601
280.336
285.58
290.209
294.154
297.392
299.938
301.833
303.136
303.915
304.245
304.2
303.847
303.248
302.456
301.52
300.483
299.382
298.258
297.147
296.076
295.058
294.099
293.191
292.319
291.46
290.593
289.699
288.769
287.797
286.789
285.748
284.677
283.578
282.446
281.273
280.048
278.757
277.387
275.926
274.366
272.703
270.936
269.072
267.121
265.099
263.026
260.922
258.802
256.682
254.574
252.485
250.421
248.381
246.364
244.368
242.389
240.42
238.453
236.478
234.494
232.503
230.515
228.526
226.525
224.507
222.479
220.445
218.403
216.354
214.293
212.214
210.112
207.98
205.82
203.633
201.42
199.181
196.918
194.638
192.346
190.043
187.729
185.399
183.054
180.69
178.309
175.913
173.501
171.075
168.637
166.186
163.725
161.256
158.779
156.305
153.824
151.362
148.871
381.287
381.261
380.998
380.429
379.543
378.533
377.518
376.488
375.386
374.177
372.866
371.483
370.055
368.599
367.128
365.651
364.178
362.722
361.3
359.938
358.663
357.508
356.503
355.67
355.005
354.557
354.311
354.249
354.331
354.495
354.734
354.869
354.889
354.73
354.215
353.442
352.371
351.263
350.989
351.691
352.745
354.252
355.134
354.164
352.376
350.746
349.161
347.253
344.761
341.751
338.201
334.258
329.931
325.249
320.202
314.824
309.168
303.333
297.43
291.573
285.862
280.374
275.156
270.222
265.561
261.141
256.926
252.887
249.038
245.448
242.263
239.693
238.001
237.473
238.239
240.38
243.868
248.517
254.035
260.095
266.375
272.577
278.462
283.857
288.649
292.773
296.203
298.949
301.044
302.535
303.478
303.941
303.993
303.703
303.134
302.346
301.395
300.327
299.185
298.014
296.855
295.741
294.692
293.714
292.8
291.933
291.085
290.23
289.347
288.425
287.451
286.446
285.408
284.343
283.254
282.137
280.983
279.779
278.51
277.163
275.725
274.187
272.545
270.797
268.949
267.012
265
262.931
260.825
258.703
256.582
254.474
252.385
250.323
248.291
246.287
244.304
242.332
240.366
238.4
236.432
234.453
232.467
230.481
228.498
226.51
224.506
222.485
220.452
218.407
216.351
214.284
212.203
210.099
207.968
205.808
203.623
201.413
199.179
196.922
194.646
192.355
190.051
187.735
185.404
183.056
180.692
178.31
175.912
173.498
171.07
168.628
166.174
163.707
161.231
158.744
156.254
153.753
151.255
148.717
381.662
381.587
381.184
380.205
378.833
377.356
375.905
374.505
373.148
371.82
370.51
369.208
367.906
366.593
365.259
363.896
362.503
361.084
359.657
358.244
356.876
355.59
354.426
353.419
352.596
351.973
351.554
351.323
351.245
351.263
351.371
351.523
351.715
352.014
352.398
352.835
353.37
353.999
354.921
356.269
357.714
359.107
359.862
359.079
357.073
354.294
350.9
347.085
342.972
338.668
334.258
329.732
325.026
320.104
314.933
309.519
303.893
298.128
292.32
286.575
280.995
275.659
270.613
265.868
261.403
257.179
253.144
249.266
245.552
242.086
239.035
236.63
235.11
234.788
235.856
238.296
242.021
246.814
252.401
258.485
264.765
270.967
276.869
282.306
287.167
291.388
294.942
297.836
300.097
301.763
302.878
303.494
303.672
303.474
302.963
302.196
301.232
300.125
298.929
297.691
296.465
295.291
294.197
293.192
292.269
291.411
290.577
289.739
288.871
287.956
286.988
285.98
284.941
283.878
282.798
281.696
280.563
279.384
278.145
276.828
275.423
273.918
272.306
270.584
268.756
266.832
264.83
262.773
260.681
258.572
256.457
254.349
252.261
250.199
248.171
246.177
244.213
242.257
240.302
238.345
236.385
234.416
232.435
230.45
228.468
226.489
224.498
222.49
220.462
218.414
216.35
214.275
212.188
210.083
207.954
205.797
203.615
201.409
199.178
196.925
194.652
192.364
190.061
187.745
185.412
183.063
180.696
178.313
175.912
173.496
171.065
168.619
166.159
163.686
161.202
158.705
156.2
153.678
151.146
148.571
382.815
382.171
380.926
379.409
377.792
376.17
374.606
373.125
371.72
370.373
369.066
367.781
366.5
365.204
363.874
362.495
361.057
359.565
358.032
356.487
354.969
353.525
352.201
351.038
350.068
349.308
348.776
348.478
348.385
348.449
348.653
348.973
349.419
350.073
350.952
352.121
353.678
355.472
357.465
359.6
361.39
362.662
363.04
362.025
359.404
355.501
350.793
345.707
340.552
335.473
330.494
325.558
320.556
315.391
310.005
304.388
298.582
292.675
286.782
281.028
275.519
270.326
265.48
260.977
256.785
252.856
249.141
245.61
242.277
239.229
236.623
234.635
233.416
233.649
235.069
237.691
241.436
246.149
251.602
257.535
263.68
269.783
275.628
281.047
285.925
290.188
293.808
296.786
299.147
300.925
302.162
302.905
303.2
303.099
302.656
301.927
300.975
299.856
298.621
297.332
296.047
294.816
293.673
292.633
291.692
290.838
290.005
289.175
288.314
287.403
286.436
285.425
284.381
283.318
282.243
281.154
280.04
278.884
277.671
276.383
275.009
273.538
271.965
270.281
268.488
266.592
264.608
262.56
260.472
258.369
256.271
254.187
252.116
250.063
248.04
246.052
244.107
242.172
240.233
238.287
236.335
234.376
232.404
230.422
228.441
226.467
224.49
222.494
220.471
218.42
216.348
214.265
212.173
210.067
207.941
205.789
203.612
201.409
199.182
196.931
194.661
192.374
190.072
187.754
185.419
183.068
180.699
178.313
175.911
173.492
171.058
168.608
166.143
163.664
161.171
158.663
156.142
153.602
151.04
148.434
382.325
381.39
379.784
378.18
376.637
375.152
373.696
372.253
370.824
369.425
368.06
366.719
365.383
364.027
362.626
361.158
359.61
357.981
356.285
354.558
352.856
351.241
349.765
348.478
347.415
346.576
346.021
345.741
345.72
345.916
346.295
346.829
347.515
348.373
349.47
350.915
352.738
354.935
357.437
359.869
361.761
362.934
363.195
361.893
358.669
353.971
348.585
342.986
337.429
332.018
326.738
321.502
316.184
310.667
304.89
298.869
292.698
286.518
280.483
274.726
269.34
264.371
259.82
255.656
251.829
248.286
244.979
241.89
239.05
236.548
234.532
233.219
232.848
233.108
234.581
237.184
240.842
245.421
250.738
256.568
262.658
268.748
274.607
280.05
284.95
289.235
292.881
295.894
298.301
300.137
301.441
302.254
302.619
302.584
302.2
301.505
300.582
299.471
298.231
296.922
295.615
294.356
293.184
292.116
291.15
290.266
289.421
288.58
287.712
286.797
285.828
284.814
283.771
282.712
281.645
280.569
279.471
278.333
277.138
275.868
274.516
273.072
271.531
269.886
268.131
266.272
264.319
262.293
260.22
258.129
256.04
253.967
251.918
249.894
247.893
245.908
243.989
242.073
240.153
238.221
236.28
234.334
232.374
230.399
228.42
226.448
224.478
222.493
220.477
218.425
216.348
214.258
212.161
210.054
207.93
205.783
203.611
201.412
199.187
196.939
194.67
192.383
190.08
187.762
185.426
183.073
180.702
178.314
175.909
173.488
171.05
168.596
166.125
163.639
161.138
158.619
156.084
153.525
150.938
148.306
380.495
379.64
378.514
377.326
376.039
374.648
373.176
371.661
370.134
368.623
367.155
365.736
364.352
362.949
361.477
359.909
358.233
356.455
354.596
352.712
350.87
349.131
347.551
346.175
345.048
344.206
343.644
343.4
343.454
343.771
344.305
345.01
345.856
346.825
347.943
349.276
350.935
353.017
355.346
357.581
359.365
360.348
360.345
358.769
355.189
350.279
344.834
339.229
333.653
328.169
322.732
317.225
311.508
305.478
299.129
292.559
285.943
279.481
273.35
267.674
262.511
257.86
253.685
249.923
246.505
243.364
240.456
237.769
235.342
233.259
231.647
230.665
230.463
231.104
232.743
235.423
239.122
243.755
249.171
255.149
261.42
267.688
273.686
279.215
284.156
288.457
292.107
295.123
297.535
299.387
300.716
301.563
301.968
301.976
301.638
300.934
300.051
298.966
297.742
296.443
295.134
293.87
292.688
291.604
290.616
289.705
288.834
287.97
287.083
286.155
285.179
284.163
283.123
282.073
281.021
279.964
278.885
277.765
276.582
275.322
273.978
272.548
271.028
269.413
267.693
265.869
263.952
261.959
259.913
257.841
255.769
253.714
251.684
249.684
247.715
245.792
243.861
241.96
240.061
238.149
236.226
234.291
232.345
230.381
228.406
226.433
224.464
222.484
220.474
218.425
216.348
214.256
212.156
210.047
207.922
205.778
203.61
201.415
199.193
196.945
194.677
192.391
190.088
187.769
185.432
183.078
180.705
178.315
175.907
173.483
171.041
168.583
166.107
163.614
161.104
158.575
156.025
153.449
150.841
148.186
380.003
379.462
378.571
377.436
376.087
374.583
372.939
371.187
369.405
367.688
366.103
364.654
363.281
361.894
360.416
358.818
357.101
355.278
353.38
351.484
349.648
347.919
346.342
344.962
343.822
342.954
342.376
342.124
342.178
342.509
343.069
343.809
344.667
345.587
346.587
347.714
349.043
350.649
352.433
354.189
355.55
356.108
355.811
353.95
350.23
345.45
340.229
334.825
329.374
323.905
318.332
312.512
306.304
299.661
292.677
285.569
278.597
271.986
265.895
260.406
255.531
251.235
247.449
244.091
241.075
238.326
235.788
233.443
231.323
229.513
228.132
227.324
227.245
228.013
229.752
232.538
236.384
241.235
246.949
253.29
259.936
266.526
272.747
278.401
283.395
287.704
291.341
294.339
296.735
298.58
299.914
300.775
301.201
301.235
300.919
300.287
299.421
298.36
297.162
295.89
294.599
293.342
292.157
291.063
290.06
289.127
288.233
287.345
286.438
285.493
284.504
283.48
282.438
281.396
280.36
279.326
278.273
277.174
276.005
274.749
273.405
271.977
270.466
268.87
267.18
265.391
263.509
261.551
259.54
257.5
255.454
253.422
251.415
249.438
247.496
245.591
243.7
241.828
239.954
238.066
236.161
234.244
232.314
230.364
228.396
226.423
224.451
222.469
220.459
218.415
216.344
214.256
212.156
210.045
207.919
205.776
203.609
201.416
199.196
196.95
194.683
192.398
190.095
187.776
185.438
183.082
180.707
178.315
175.905
173.477
171.032
168.569
166.088
163.588
161.07
158.53
155.968
153.376
150.75
148.075
380.939
380.401
379.413
378.088
376.429
374.508
372.384
370.171
368.025
366.093
364.45
363.054
361.777
360.483
359.097
357.615
356.045
354.395
352.707
351.031
349.4
347.846
346.404
345.129
344.053
343.207
342.624
342.321
342.298
342.53
342.977
343.586
344.287
345.03
345.797
346.571
347.424
348.438
349.583
350.681
351.383
351.499
350.816
348.632
344.866
340.29
335.324
330.131
324.8
319.322
313.569
307.379
300.638
293.384
285.835
278.313
271.12
264.469
258.481
253.201
248.615
244.663
241.258
238.299
235.685
233.325
231.148
229.113
227.236
225.593
224.305
223.518
223.359
224.028
225.693
228.477
232.437
237.546
243.673
250.56
257.797
264.911
271.508
277.373
282.463
286.798
290.429
293.412
295.799
297.641
298.979
299.855
300.304
300.367
300.084
299.502
298.678
297.666
296.516
295.284
294.027
292.793
291.617
290.518
289.499
288.544
287.626
286.714
285.785
284.822
283.82
282.787
281.74
280.698
279.672
278.654
277.623
276.546
275.39
274.139
272.793
271.359
269.848
268.259
266.589
264.83
262.986
261.068
259.099
257.099
255.091
253.092
251.115
249.165
247.247
245.365
243.508
241.668
239.825
237.966
236.088
234.191
232.278
230.343
228.386
226.415
224.439
222.45
220.437
218.396
216.334
214.256
212.16
210.048
207.921
205.776
203.609
201.417
199.197
196.953
194.688
192.404
190.101
187.781
185.443
183.085
180.709
178.314
175.902
173.471
171.022
168.555
166.069
163.562
161.036
158.486
155.911
153.306
150.663
147.972
381.989
381.306
379.983
378.132
375.83
373.198
370.381
367.576
365.004
362.863
361.223
359.988
358.965
357.984
356.975
355.929
354.827
353.657
352.448
351.227
350.004
348.809
347.679
346.646
345.74
344.991
344.432
344.082
343.932
343.995
344.229
344.58
344.978
345.367
345.699
345.983
346.311
346.739
347.224
347.601
347.62
347.286
346.059
343.51
339.723
335.301
330.519
325.463
320.186
314.634
308.648
302.056
294.79
286.98
278.957
271.111
263.75
257.063
251.145
246.026
241.677
238.034
234.995
232.446
230.266
228.336
226.547
224.819
223.138
221.565
220.216
219.241
218.816
219.196
220.616
223.248
227.193
232.455
238.955
246.473
254.524
262.454
269.685
275.891
281.156
285.571
289.227
292.222
294.628
296.497
297.868
298.779
299.267
299.374
299.142
298.618
297.852
296.896
295.806
294.634
293.429
292.231
291.075
289.979
288.948
287.972
287.027
286.089
285.136
284.156
283.145
282.109
281.063
280.024
279.001
277.989
276.964
275.891
274.737
273.483
272.13
270.69
269.174
267.586
265.926
264.191
262.381
260.506
258.583
256.631
254.67
252.717
250.781
248.869
246.98
245.119
243.29
241.482
239.673
237.847
235.999
234.128
232.234
230.314
228.368
226.403
224.425
222.432
220.416
218.379
216.325
214.255
212.167
210.057
207.927
205.78
203.612
201.418
199.199
196.956
194.692
192.409
190.107
187.786
185.447
183.088
180.71
178.314
175.899
173.465
171.013
168.541
166.049
163.537
161.002
158.444
155.858
153.239
150.582
147.876
380.841
379.871
377.964
375.254
371.962
368.421
364.879
361.534
358.655
356.475
355.04
354.203
353.739
353.471
353.294
353.135
352.925
352.623
352.231
351.752
351.189
350.572
349.928
349.282
348.662
348.095
347.61
347.226
346.947
346.797
346.731
346.703
346.657
346.551
346.374
346.184
346.021
345.889
345.677
345.262
344.607
343.646
341.802
338.923
335.125
330.801
326.118
321.117
315.823
310.141
303.887
296.891
289.13
280.817
272.37
264.215
256.652
249.856
243.915
238.857
234.662
231.272
228.59
226.485
224.804
223.388
222.077
220.734
219.292
217.79
216.391
215.138
214.354
214.351
215.427
217.808
221.601
226.821
233.46
241.437
250.31
259.272
267.379
273.862
279.473
284.005
287.7
290.719
293.16
295.08
296.517
297.502
298.066
298.249
298.092
297.643
296.953
296.074
295.057
293.95
292.8
291.646
290.519
289.436
288.4
287.407
286.438
285.474
284.497
283.5
282.484
281.451
280.412
279.379
278.36
277.346
276.315
275.231
274.06
272.786
271.415
269.963
268.442
266.855
265.202
263.482
261.702
259.87
257.998
256.1
254.192
252.289
250.405
248.54
246.692
244.862
243.056
241.275
239.499
237.708
235.892
234.049
232.178
230.276
228.343
226.384
224.408
222.415
220.401
218.368
216.32
214.258
212.176
210.069
207.938
205.788
203.617
201.423
199.203
196.96
194.697
192.415
190.113
187.791
185.451
183.091
180.712
178.313
175.896
173.459
171.003
168.527
166.031
163.512
160.97
158.403
155.806
153.176
150.507
147.788
373.452
372.135
369.472
365.757
361.463
357.059
352.848
349.133
346.263
344.43
343.615
343.65
344.35
345.532
346.957
348.381
349.66
350.748
351.614
352.237
352.615
352.785
352.777
352.628
352.373
352.043
351.67
351.281
350.902
350.478
350.067
349.63
349.144
348.595
348.009
347.391
346.701
345.848
344.744
343.452
342.103
340.458
338.158
335.07
331.298
327.041
322.393
317.382
312.015
306.166
299.638
292.26
284.04
275.256
266.385
257.873
250.016
242.985
236.881
231.75
227.591
224.373
222.014
220.378
219.277
218.495
217.814
217.025
216.007
214.693
213.469
212.306
211.378
211.162
212.013
214.199
217.795
222.756
229.122
237.032
246.219
256.128
264.681
271.814
277.598
282.231
285.975
289.029
291.508
293.479
294.98
296.042
296.696
296.977
296.923
296.578
295.989
295.204
294.272
293.244
292.161
291.058
289.962
288.894
287.859
286.856
285.87
284.885
283.89
282.882
281.861
280.832
279.799
278.77
277.748
276.723
275.674
274.567
273.37
272.067
270.67
269.196
267.66
266.069
264.423
262.721
260.967
259.171
257.348
255.508
253.661
251.815
249.985
248.174
246.376
244.587
242.812
241.055
239.308
237.549
235.766
233.953
232.108
230.227
228.309
226.36
224.389
222.4
220.392
218.365
216.322
214.264
212.186
210.082
207.951
205.798
203.624
201.428
199.209
196.966
194.703
192.421
190.119
187.797
185.455
183.094
180.713
178.313
175.893
173.453
170.994
168.514
166.013
163.488
160.939
158.364
155.758
153.118
150.437
147.707
359.262
357.461
353.715
348.491
342.629
337.038
332.242
328.531
326.054
325.029
325.389
326.903
329.436
332.95
337.103
341.233
344.856
347.9
350.425
352.444
353.981
355.083
355.803
356.202
356.336
356.255
355.998
355.602
355.091
354.471
353.852
353.137
352.324
351.391
350.333
349.067
347.519
345.679
343.685
341.721
339.844
337.801
335.352
332.252
328.499
324.258
319.586
314.518
309.04
303.008
296.224
288.505
279.872
270.646
261.339
252.411
244.163
236.778
230.375
225.029
220.771
217.599
215.462
214.233
213.71
213.626
213.699
213.617
213.346
212.946
212.167
211.445
210.628
210.758
211.779
213.993
217.451
222.055
227.844
235.114
243.949
253.501
262.241
269.591
275.508
280.248
284.091
287.232
289.788
291.827
293.393
294.523
295.254
295.624
295.671
295.436
294.959
294.284
293.456
292.517
291.506
290.461
289.408
288.367
287.344
286.337
285.34
284.342
283.336
282.324
281.307
280.285
279.258
278.229
277.194
276.142
275.054
273.904
272.667
271.333
269.911
268.417
266.864
265.26
263.61
261.921
260.195
258.434
256.653
254.865
253.077
251.294
249.522
247.767
246.025
244.288
242.554
240.827
239.106
237.378
235.626
233.843
232.024
230.165
228.265
226.33
224.368
222.387
220.386
218.367
216.329
214.275
212.198
210.095
207.964
205.809
203.633
201.435
199.215
196.973
194.71
192.427
190.125
187.803
185.46
183.097
180.715
178.313
175.89
173.448
170.985
168.502
165.996
163.466
160.91
158.327
155.713
153.063
150.372
147.633
339.532
337.231
332.373
325.704
318.367
311.424
305.667
301.787
300.185
300.812
303.21
306.663
310.975
316.743
324.159
332.106
339.117
344.742
349.215
352.732
355.441
357.453
358.879
359.818
360.336
360.505
360.381
360.016
359.462
358.777
357.863
356.823
355.592
354.083
352.219
349.992
347.53
345.009
342.601
340.417
338.402
336.341
333.891
330.75
326.947
322.647
317.899
312.733
307.112
300.889
293.876
285.881
276.922
267.317
257.591
248.219
239.524
231.709
224.913
219.245
214.763
211.498
209.426
208.44
208.338
208.829
209.492
210.136
210.59
210.877
211.046
211.195
211.427
212.14
213.584
215.959
219.308
223.558
228.737
235.196
243.178
251.962
260.291
267.457
273.322
278.108
282.054
285.32
288.002
290.152
291.81
293.017
293.821
294.268
294.402
294.264
293.893
293.328
292.606
291.764
290.839
289.863
288.861
287.851
286.847
285.851
284.857
283.86
282.855
281.845
280.833
279.817
278.794
277.758
276.702
275.612
274.471
273.262
271.97
270.594
269.144
267.633
266.068
264.454
262.8
261.114
259.404
257.674
255.931
254.187
252.452
250.728
249.019
247.323
245.639
243.96
242.276
240.587
238.897
237.198
235.477
233.723
231.93
230.094
228.215
226.295
224.346
222.375
220.384
218.373
216.341
214.288
212.212
210.108
207.976
205.82
203.642
201.443
199.223
196.98
194.717
192.434
190.132
187.809
185.466
183.102
180.718
178.313
175.888
173.443
170.977
168.49
165.98
163.445
160.883
158.293
155.671
153.013
150.313
147.565
321.233
318.809
313.525
306.467
298.853
291.867
286.375
283.103
282.364
284.108
287.945
292.875
297.79
303.4
311.866
323.01
333.667
342.182
348.663
353.604
357.351
360.139
362.146
363.539
364.412
364.821
364.827
364.481
363.83
362.916
361.751
360.311
358.499
356.279
353.685
350.869
348.037
345.369
342.978
340.864
338.94
336.795
334.116
330.72
326.731
322.268
317.372
312.063
306.285
299.892
292.687
284.505
275.346
265.474
255.385
245.58
236.426
228.158
220.913
214.881
210.104
206.64
204.489
203.555
203.637
204.454
205.663
206.829
207.754
208.559
209.37
210.292
211.397
212.893
214.964
217.702
221.121
225.192
229.995
235.89
243.13
251.1
258.777
265.54
271.234
276.002
280.01
283.371
286.16
288.419
290.183
291.491
292.385
292.916
293.133
293.083
292.805
292.337
291.713
290.968
290.131
289.23
288.291
287.332
286.364
285.391
284.413
283.429
282.437
281.441
280.439
279.426
278.395
277.338
276.246
275.107
273.91
272.643
271.298
269.877
268.392
266.854
265.268
263.641
261.981
260.297
258.597
256.887
255.174
253.47
251.781
250.112
248.465
246.833
245.214
243.596
241.97
240.33
238.678
237.012
235.321
233.596
231.83
230.018
228.16
226.259
224.326
222.367
220.386
218.383
216.357
214.305
212.226
210.121
207.989
205.832
203.653
201.453
199.231
196.988
194.724
192.441
190.139
187.816
185.472
183.107
180.721
178.314
175.887
173.439
170.97
168.479
165.965
163.425
160.858
158.262
155.633
152.967
150.259
147.504
313.445
310.817
305.527
298.649
291.113
283.969
278.024
274.427
273.621
275.641
280.223
286.969
293.511
298.6
306.395
318.347
331.342
341.862
349.648
355.458
359.847
363.168
365.583
367.265
368.372
368.97
369.095
368.784
368.071
367
365.605
363.873
361.735
359.229
356.483
353.69
351.012
348.539
346.298
344.141
341.883
339.227
335.968
332.111
327.8
323.083
317.984
312.514
306.598
300.098
292.823
284.593
275.378
265.391
255.081
244.946
235.393
226.704
219.074
212.655
207.538
203.793
201.445
200.401
200.473
201.44
202.925
204.386
205.589
206.61
207.683
208.948
210.449
212.347
214.822
217.922
221.604
225.826
230.702
236.507
243.331
250.623
257.646
263.97
269.47
274.197
278.231
281.642
284.486
286.802
288.628
290.005
290.981
291.603
291.915
291.957
291.767
291.384
290.843
290.176
289.415
288.584
287.707
286.8
285.876
284.94
283.995
283.04
282.073
281.096
280.105
279.093
278.049
276.962
275.826
274.636
273.384
272.066
270.675
269.216
267.694
266.121
264.502
262.848
261.17
259.478
257.78
256.082
254.391
252.719
251.074
249.455
247.87
246.307
244.756
243.205
241.641
240.057
238.451
236.822
235.165
233.469
231.729
229.941
228.106
226.226
224.309
222.363
220.393
218.398
216.376
214.323
212.242
210.135
208.002
205.844
203.665
201.464
199.241
196.997
194.732
192.448
190.146
187.823
185.478
183.111
180.724
178.315
175.886
173.435
170.963
168.469
165.95
163.406
160.834
158.233
155.598
152.926
150.21
147.448
315.829
312.877
307.561
300.531
292.618
284.848
278.164
273.59
272.074
274.089
279.288
287.127
294.854
299.764
306.366
318.416
332.803
344.357
352.664
358.717
363.205
366.561
369.076
370.86
372.052
372.744
372.952
372.706
372.029
370.951
369.541
367.832
365.797
363.511
361.069
358.581
356.121
353.707
351.282
348.701
345.79
342.405
338.505
334.19
329.535
324.559
319.268
313.658
307.651
301.119
293.883
285.748
276.646
266.729
256.379
246.078
236.262
227.256
219.287
212.521
207.072
203.024
200.415
199.157
199.063
199.927
201.425
202.994
204.305
205.403
206.536
207.836
209.377
211.378
214.072
217.51
221.594
226.2
231.356
237.186
243.654
250.361
256.842
262.808
268.135
272.799
276.818
280.236
283.1
285.448
287.311
288.727
289.746
290.422
290.802
290.922
290.817
290.517
290.053
289.455
288.755
287.98
287.153
286.292
285.409
284.511
283.599
282.673
281.732
280.774
279.794
278.782
277.725
276.614
275.443
274.213