/*--------------------------------*- C++ -*----------------------------------*\
  =========                 |
  \\      /  F ield         | OpenFOAM: The Open Source CFD Toolbox
   \\    /   O peration     | Website:  https://openfoam.org
    \\  /    A nd           | Version:  9
     \\/     M anipulation  |
\*---------------------------------------------------------------------------*/
FoamFile
{
    format      ascii;
    class       surfaceScalarField;
    location    "0.044";
    object      phi_0;
}
// * * * * * * * * * * * * * * * * * * * * * * * * * * * * * * * * * * * * * //

dimensions      [0 3 -1 0 0 0 0];

internalField   nonuniform List<scalar> 
24170
(
3.08241e-06
1.28313e-07
2.93458e-06
1.47828e-07
2.83115e-06
1.03437e-07
2.76908e-06
6.20693e-08
2.73061e-06
3.84634e-08
2.69118e-06
3.94382e-08
2.63249e-06
5.86822e-08
2.55912e-06
7.33724e-08
2.48472e-06
7.44006e-08
2.4298e-06
5.49243e-08
2.40307e-06
2.67271e-08
2.40377e-06
-7.04693e-10
2.42902e-06
-2.52425e-08
2.47432e-06
-4.53077e-08
2.5471e-06
-7.27774e-08
2.62399e-06
-7.68913e-08
2.81898e-06
-1.94986e-07
-2.25243e-07
3.04422e-06
3.35607e-06
1.19734e-07
3.37893e-06
1.24968e-07
3.39136e-06
9.10018e-08
3.39299e-06
6.04352e-08
3.39799e-06
3.34727e-08
3.41733e-06
2.00931e-08
3.44912e-06
2.68912e-08
3.48368e-06
3.88112e-08
3.51343e-06
4.46528e-08
3.53795e-06
3.04079e-08
3.56028e-06
4.39531e-09
3.58868e-06
-2.91013e-08
3.62321e-06
-5.97775e-08
3.67465e-06
-9.67504e-08
3.73124e-06
-1.29368e-07
3.83327e-06
-1.78914e-07
3.92263e-06
-2.84351e-07
-4.04122e-07
4.10151e-06
3.64795e-06
1.07503e-07
3.62809e-06
1.44827e-07
3.63631e-06
8.27809e-08
3.65135e-06
4.53908e-08
3.66118e-06
2.3648e-08
3.6749e-06
6.3726e-09
3.70273e-06
-9.42113e-10
3.74152e-06
2.11155e-11
3.7859e-06
2.77952e-10
3.82668e-06
-1.03755e-08
3.86752e-06
-3.64408e-08
3.90857e-06
-7.01561e-08
3.95843e-06
-1.0964e-07
4.01446e-06
-1.52778e-07
4.08697e-06
-2.01881e-07
4.17228e-06
-2.64223e-07
4.25687e-06
-3.68941e-07
-5.14008e-07
4.36676e-06
3.90085e-06
1.42977e-07
3.92893e-06
1.16753e-07
3.93546e-06
7.62473e-08
3.91789e-06
6.29659e-08
3.91522e-06
2.63135e-08
3.93888e-06
-1.72871e-08
3.97757e-06
-3.96368e-08
4.01852e-06
-4.09284e-08
4.05738e-06
-3.85747e-08
4.09626e-06
-4.92592e-08
4.13726e-06
-7.74446e-08
4.18314e-06
-1.16034e-07
4.23331e-06
-1.59809e-07
4.28865e-06
-2.08113e-07
4.34995e-06
-2.63184e-07
4.41939e-06
-3.33665e-07
4.48784e-06
-4.3739e-07
-5.81521e-07
4.55535e-06
4.13692e-06
1.86685e-07
4.13821e-06
1.15465e-07
4.14984e-06
6.4615e-08
4.18503e-06
2.77787e-08
4.23265e-06
-2.13103e-08
4.27383e-06
-5.84676e-08
4.30842e-06
-7.42188e-08
4.34341e-06
-7.59191e-08
4.38359e-06
-7.87534e-08
4.42726e-06
-9.29365e-08
4.4696e-06
-1.19777e-07
4.50767e-06
-1.5411e-07
4.54046e-06
-1.92593e-07
4.57188e-06
-2.39536e-07
4.60711e-06
-2.98414e-07
4.65194e-06
-3.78499e-07
4.70248e-06
-4.87926e-07
-6.32482e-07
4.75344e-06
4.45969e-06
9.43338e-08
4.49695e-06
7.82099e-08
4.47325e-06
8.83186e-08
4.46031e-06
4.07191e-08
4.46489e-06
-2.58901e-08
4.49123e-06
-8.48102e-08
4.53646e-06
-1.1945e-07
4.58984e-06
-1.29301e-07
4.63785e-06
-1.26763e-07
4.67182e-06
-1.2691e-07
4.69308e-06
-1.41031e-07
4.71155e-06
-1.72581e-07
4.7379e-06
-2.18939e-07
4.77891e-06
-2.80548e-07
4.83593e-06
-3.55439e-07
4.90537e-06
-4.47941e-07
4.97798e-06
-5.60533e-07
-6.97573e-07
5.04307e-06
4.82686e-06
-1.40242e-08
4.80309e-06
1.01978e-07
4.81832e-06
7.3097e-08
4.85106e-06
7.97228e-09
4.88072e-06
-5.55464e-08
4.90038e-06
-1.04476e-07
4.91871e-06
-1.37778e-07
4.94313e-06
-1.53716e-07
4.9728e-06
-1.56433e-07
5.00345e-06
-1.57561e-07
5.03235e-06
-1.69929e-07
5.06127e-06
-2.01503e-07
5.0942e-06
-2.51872e-07
5.13389e-06
-3.20239e-07
5.18107e-06
-4.02616e-07
5.23277e-06
-4.99646e-07
5.28264e-06
-6.10405e-07
-7.36751e-07
5.32182e-06
5.16438e-06
2.56173e-09
5.18989e-06
7.64666e-08
5.20901e-06
5.39824e-08
5.22621e-06
-9.22531e-09
5.23231e-06
-6.16451e-08
5.23611e-06
-1.0828e-07
5.24765e-06
-1.49323e-07
5.26986e-06
-1.75922e-07
5.29969e-06
-1.86265e-07
5.33307e-06
-1.90934e-07
5.36793e-06
-2.04798e-07
5.40456e-06
-2.38129e-07
5.44377e-06
-2.9108e-07
5.48528e-06
-3.6175e-07
5.5275e-06
-4.44835e-07
5.56825e-06
-5.40398e-07
5.60321e-06
-6.45369e-07
-7.62408e-07
5.62887e-06
5.60137e-06
2.24667e-08
5.62895e-06
4.88862e-08
5.65099e-06
3.19458e-08
5.63596e-06
5.80031e-09
5.61166e-06
-3.7345e-08
5.59613e-06
-9.27457e-08
5.58972e-06
-1.42922e-07
5.58779e-06
-1.73988e-07
5.59225e-06
-1.90728e-07
5.60949e-06
-2.08171e-07
5.64381e-06
-2.39114e-07
5.69469e-06
-2.89006e-07
5.75806e-06
-3.54452e-07
5.82758e-06
-4.31271e-07
5.89641e-06
-5.13665e-07
5.95832e-06
-6.02305e-07
6.00667e-06
-6.93723e-07
-7.91701e-07
6.03596e-06
5.74257e-06
-4.48439e-08
5.76243e-06
2.90222e-08
5.80437e-06
-9.99084e-09
5.87028e-06
-6.01172e-08
5.94321e-06
-1.10273e-07
6.00531e-06
-1.54846e-07
6.04318e-06
-1.80794e-07
6.05359e-06
-1.84393e-07
6.04657e-06
-1.83708e-07
6.0405e-06
-2.02102e-07
6.05117e-06
-2.49787e-07
6.08448e-06
-3.22314e-07
6.13702e-06
-4.06988e-07
6.19921e-06
-4.93463e-07
6.25972e-06
-5.74174e-07
6.30731e-06
-6.49902e-07
6.3336e-06
-7.20013e-07
-7.9059e-07
6.33249e-06
6.43159e-06
-5.32295e-08
6.40028e-06
6.03275e-08
6.35902e-06
3.12759e-08
6.35854e-06
-5.96439e-08
6.37015e-06
-1.21884e-07
6.36844e-06
-1.53136e-07
6.36006e-06
-1.72411e-07
6.36329e-06
-1.87624e-07
6.38728e-06
-2.07694e-07
6.42821e-06
-2.43035e-07
6.47557e-06
-2.97152e-07
6.52001e-06
-3.66747e-07
6.55629e-06
-4.43276e-07
6.58268e-06
-5.19847e-07
6.5998e-06
-5.91295e-07
6.60791e-06
-6.58013e-07
6.60825e-06
-7.20352e-07
-7.8314e-07
6.6008e-06
5.76557e-06
-1.53586e-07
5.78121e-06
4.46852e-08
5.73004e-06
8.24485e-08
5.68268e-06
-1.22837e-08
5.66526e-06
-1.04465e-07
5.67222e-06
-1.60094e-07
5.69458e-06
-1.94771e-07
5.72651e-06
-2.19551e-07
5.76279e-06
-2.43971e-07
5.79729e-06
-2.77542e-07
5.82531e-06
-3.25169e-07
5.84527e-06
-3.86712e-07
5.85816e-06
-4.5616e-07
5.86593e-06
-5.27617e-07
5.87006e-06
-5.95432e-07
5.87144e-06
-6.59384e-07
5.87006e-06
-7.18979e-07
-7.80231e-07
5.86715e-06
7.0222e-06
-1.97931e-08
6.97235e-06
9.45374e-08
6.97713e-06
7.76748e-08
6.95241e-06
1.24317e-08
6.91611e-06
-6.81664e-08
6.90766e-06
-1.51638e-07
6.93259e-06
-2.19704e-07
6.97667e-06
-2.6363e-07
7.02522e-06
-2.92519e-07
7.06918e-06
-3.21504e-07
7.10476e-06
-3.60749e-07
7.13178e-06
-4.13737e-07
7.15154e-06
-4.75917e-07
7.16509e-06
-5.41172e-07
7.17285e-06
-6.0319e-07
7.17555e-06
-6.6208e-07
7.17332e-06
-7.1675e-07
-7.73152e-07
7.16624e-06
8.54069e-06
-5.37266e-08
8.50178e-06
1.33453e-07
8.49267e-06
8.67836e-08
8.51156e-06
-6.46382e-09
8.55798e-06
-1.14586e-07
8.61556e-06
-2.09221e-07
8.65575e-06
-2.59886e-07
8.66262e-06
-2.70506e-07
8.64093e-06
-2.70828e-07
8.60765e-06
-2.88221e-07
8.58022e-06
-3.33319e-07
8.56718e-06
-4.00694e-07
8.56822e-06
-4.76956e-07
8.57851e-06
-5.51469e-07
8.59154e-06
-6.16221e-07
8.60197e-06
-6.72512e-07
8.60439e-06
-7.19162e-07
-7.61943e-07
8.59318e-06
1.04191e-05
-5.01729e-08
1.04527e-05
9.98463e-08
1.05384e-05
1.0783e-09
1.05963e-05
-6.43331e-08
1.05799e-05
-9.82068e-08
1.04996e-05
-1.28871e-07
1.03985e-05
-1.58821e-07
1.03217e-05
-1.93735e-07
1.0293e-05
-2.42104e-07
1.03118e-05
-3.07032e-07
1.03604e-05
-3.81919e-07
1.04166e-05
-4.56885e-07
1.04627e-05
-5.2304e-07
1.04889e-05
-5.77689e-07
1.04928e-05
-6.20065e-07
1.04754e-05
-6.55135e-07
1.04393e-05
-6.83068e-07
-7.1073e-07
1.03881e-05
1.24567e-05
-6.04857e-08
1.2671e-05
-1.14473e-07
1.27721e-05
-9.99747e-08
1.2767e-05
-5.92051e-08
1.27109e-05
-4.2141e-08
1.26788e-05
-9.68045e-08
1.27065e-05
-1.86493e-07
1.27773e-05
-2.64592e-07
1.28537e-05
-3.18459e-07
1.29074e-05
-3.60698e-07
1.29289e-05
-4.03442e-07
1.29209e-05
-4.48917e-07
1.28892e-05
-4.91317e-07
1.28382e-05
-5.2669e-07
1.27727e-05
-5.54577e-07
1.2697e-05
-5.79428e-07
1.26162e-05
-6.02282e-07
-6.26464e-07
1.2532e-05
1.56464e-05
-2.24514e-07
1.56414e-05
-1.09462e-07
1.5571e-05
-2.95112e-08
1.55546e-05
-4.28919e-08
1.56279e-05
-1.15356e-07
1.57211e-05
-1.9009e-07
1.57606e-05
-2.25982e-07
1.57121e-05
-2.16053e-07
1.55884e-05
-1.94715e-07
1.54268e-05
-1.99104e-07
1.52666e-05
-2.43281e-07
1.51346e-05
-3.16935e-07
1.50419e-05
-3.98639e-07
1.49874e-05
-4.72199e-07
1.49609e-05
-5.28042e-07
1.49479e-05
-5.66443e-07
1.4934e-05
-5.88379e-07
-5.9961e-07
1.49072e-05
1.87271e-05
-9.0076e-08
1.86771e-05
-5.94814e-08
1.86599e-05
-1.23125e-08
1.86667e-05
-4.96138e-08
1.8663e-05
-1.1173e-07
1.8644e-05
-1.71033e-07
1.86168e-05
-1.98817e-07
1.86118e-05
-2.11017e-07
1.86416e-05
-2.24499e-07
1.86891e-05
-2.46614e-07
1.87232e-05
-2.77398e-07
1.87222e-05
-3.15956e-07
1.86839e-05
-3.60326e-07
1.86197e-05
-4.07991e-07
1.85442e-05
-4.52531e-07
1.84672e-05
-4.89516e-07
1.83931e-05
-5.14259e-07
-5.25227e-07
1.83187e-05
2.27726e-05
1.23535e-08
2.28051e-05
-9.19406e-08
2.27967e-05
-3.9589e-09
2.27488e-05
-1.69712e-09
2.27201e-05
-8.30064e-08
2.2693e-05
-1.43943e-07
2.26727e-05
-1.78539e-07
2.26602e-05
-1.98479e-07
2.26557e-05
-2.20089e-07
2.26579e-05
-2.48802e-07
2.26597e-05
-2.79191e-07
2.26514e-05
-3.07664e-07
2.26269e-05
-3.35758e-07
2.25858e-05
-3.66955e-07
2.25334e-05
-4.00058e-07
2.24742e-05
-4.30409e-07
2.24127e-05
-4.52708e-07
-4.61675e-07
2.23491e-05
1.66022e-05
-1.33807e-07
1.66414e-05
-1.31095e-07
1.67199e-05
-8.25519e-08
1.68397e-05
-1.21425e-07
1.69115e-05
-1.54868e-07
1.69029e-05
-1.35291e-07
1.68287e-05
-1.04327e-07
1.67349e-05
-1.04717e-07
1.66559e-05
-1.41075e-07
1.65973e-05
-1.90256e-07
1.65484e-05
-2.30269e-07
1.64971e-05
-2.56371e-07
1.64368e-05
-2.75473e-07
1.63665e-05
-2.96643e-07
1.629e-05
-3.23526e-07
1.62122e-05
-3.52587e-07
1.61376e-05
-3.78077e-07
-3.92021e-07
1.60679e-05
1.44794e-05
3.0993e-07
1.42719e-05
7.64413e-08
1.42766e-05
-8.72431e-08
1.43013e-05
-1.46142e-07
1.43273e-05
-1.80893e-07
1.43733e-05
-1.81267e-07
1.44241e-05
-1.55152e-07
1.44581e-05
-1.38722e-07
1.44692e-05
-1.5218e-07
1.44656e-05
-1.86654e-07
1.44574e-05
-2.22065e-07
1.44462e-05
-2.45144e-07
1.44246e-05
-2.53813e-07
1.43819e-05
-2.53993e-07
1.43125e-05
-2.54096e-07
1.42184e-05
-2.58467e-07
1.41077e-05
-2.67472e-07
-2.77992e-07
1.39937e-05
1.25508e-05
2.22851e-07
1.25748e-05
5.24634e-08
1.25587e-05
-7.11741e-08
1.25552e-05
-1.4261e-07
1.25524e-05
-1.78055e-07
1.25462e-05
-1.75135e-07
1.25432e-05
-1.52091e-07
1.25483e-05
-1.43904e-07
1.25608e-05
-1.64601e-07
1.25756e-05
-2.01487e-07
1.25863e-05
-2.32789e-07
1.25865e-05
-2.4529e-07
1.25717e-05
-2.39039e-07
1.254e-05
-2.22345e-07
1.24912e-05
-2.05273e-07
1.24273e-05
-1.94543e-07
1.23516e-05
-1.91755e-07
-1.95451e-07
1.2269e-05
1.07797e-05
7.09919e-09
1.09192e-05
-8.70734e-08
1.09644e-05
-1.16369e-07
1.09972e-05
-1.75396e-07
1.1017e-05
-1.97899e-07
1.10046e-05
-1.62744e-07
1.0968e-05
-1.15411e-07
1.09249e-05
-1.0081e-07
1.08873e-05
-1.27054e-07
1.08591e-05
-1.73222e-07
1.08385e-05
-2.12262e-07
1.08214e-05
-2.28163e-07
1.08025e-05
-2.20106e-07
1.07781e-05
-1.98009e-07
1.07475e-05
-1.74671e-07
1.0712e-05
-1.5903e-07
1.06737e-05
-1.53402e-07
-1.55361e-07
1.06336e-05
9.67515e-06
1.05868e-07
9.55514e-06
3.29348e-08
9.48293e-06
-4.41571e-08
9.45556e-06
-1.48032e-07
9.46532e-06
-2.07654e-07
9.49863e-06
-1.96053e-07
9.52567e-06
-1.42456e-07
9.52023e-06
-9.53651e-08
9.47955e-06
-8.63797e-08
9.42278e-06
-1.16452e-07
9.37471e-06
-1.64192e-07
9.34985e-06
-2.03302e-07
9.34703e-06
-2.17281e-07
9.35397e-06
-2.04954e-07
9.35605e-06
-1.76752e-07
9.34347e-06
-1.46446e-07
9.31287e-06
-1.22803e-07
-1.10264e-07
9.26777e-06
8.33204e-06
-2.29073e-08
8.46262e-06
-9.76425e-08
8.52593e-06
-1.07464e-07
8.5185e-06
-1.40605e-07
8.45704e-06
-1.46192e-07
8.37553e-06
-1.14546e-07
8.3021e-06
-6.9031e-08
8.24375e-06
-3.7006e-08
8.1945e-06
-3.71327e-08
8.14815e-06
-7.00989e-08
8.10641e-06
-1.22458e-07
8.07604e-06
-1.72932e-07
8.06235e-06
-2.03591e-07
8.06403e-06
-2.06632e-07
8.07223e-06
-1.84957e-07
8.0752e-06
-1.49416e-07
8.06246e-06
-1.10057e-07
-7.87873e-08
8.03098e-06
7.24318e-06
-8.69064e-08
7.25442e-06
-1.08888e-07
7.23318e-06
-8.62212e-08
7.17614e-06
-8.35642e-08
7.11398e-06
-8.40319e-08
7.07896e-06
-7.95312e-08
7.08411e-06
-7.41751e-08
7.12346e-06
-7.63527e-08
7.17581e-06
-8.94846e-08
7.21544e-06
-1.09727e-07
7.22276e-06
-1.29779e-07
7.19305e-06
-1.43224e-07
7.13668e-06
-1.47218e-07
7.07148e-06
-1.41432e-07
7.01383e-06
-1.27311e-07
6.97277e-06
-1.08358e-07
6.95037e-06
-8.76589e-08
-7.16356e-08
6.94322e-06
6.36348e-06
1.22824e-08
6.35739e-06
-1.02802e-07
6.33797e-06
-6.67981e-08
6.29907e-06
-4.46585e-08
6.26939e-06
-5.43581e-08
6.26132e-06
-7.14637e-08
6.2654e-06
-7.82522e-08
6.26729e-06
-7.82407e-08
6.26012e-06
-8.23183e-08
6.24481e-06
-9.44146e-08
6.22482e-06
-1.09793e-07
6.2024e-06
-1.20797e-07
6.17837e-06
-1.23193e-07
6.15386e-06
-1.16918e-07
6.13127e-06
-1.04726e-07
6.11352e-06
-9.06049e-08
6.10248e-06
-7.66173e-08
-6.70422e-08
6.09788e-06
5.46459e-06
-3.10411e-08
5.43043e-06
-6.86448e-08
5.45252e-06
-8.88789e-08
5.48995e-06
-8.20927e-08
5.5036e-06
-6.80057e-08
5.48934e-06
-5.72025e-08
5.46527e-06
-5.41886e-08
5.4487e-06
-6.16681e-08
5.44464e-06
-7.82612e-08
5.44748e-06
-9.72521e-08
5.44889e-06
-1.11201e-07
5.44393e-06
-1.15841e-07
5.43208e-06
-1.11346e-07
5.41624e-06
-1.01077e-07
5.4006e-06
-8.90864e-08
5.38877e-06
-7.87667e-08
5.38275e-06
-7.0598e-08
-6.5666e-08
5.38137e-06
4.82131e-06
5.51187e-08
4.83622e-06
-8.35611e-08
4.8393e-06
-9.19521e-08
4.84359e-06
-8.63876e-08
4.83924e-06
-6.3655e-08
4.83016e-06
-4.81259e-08
4.82848e-06
-5.25076e-08
4.83735e-06
-7.05306e-08
4.84573e-06
-8.665e-08
4.83801e-06
-8.95314e-08
4.80628e-06
-7.94628e-08
4.75551e-06
-6.50712e-08
4.69948e-06
-5.53237e-08
4.65226e-06
-5.3854e-08
4.62127e-06
-5.80961e-08
4.60632e-06
-6.38124e-08
4.60248e-06
-6.67583e-08
-6.57694e-08
4.60258e-06
4.07879e-06
3.99523e-06
3.90328e-06
3.81689e-06
3.75324e-06
3.70511e-06
3.65261e-06
3.58207e-06
3.49542e-06
3.40589e-06
3.32643e-06
3.26136e-06
3.20604e-06
3.15218e-06
3.09409e-06
3.03027e-06
2.96351e-06
2.89774e-06
-7.81716e-07
7.81716e-07
-1.34144e-06
5.59722e-07
-1.70154e-06
3.60097e-07
-1.89504e-06
1.93509e-07
-1.73458e-06
-1.60468e-07
-1.24377e-06
-4.90806e-07
-4.89602e-07
-7.54169e-07
4.08175e-07
-8.97777e-07
1.36883e-06
-9.60652e-07
2.3247e-06
-9.55875e-07
3.2309e-06
-9.06197e-07
4.0638e-06
-8.32899e-07
4.81328e-06
-7.49478e-07
5.47761e-06
-6.64337e-07
6.06039e-06
-5.82773e-07
6.56517e-06
-5.04787e-07
6.99726e-06
-4.32085e-07
7.35918e-06
-3.61917e-07
7.65235e-06
-2.93172e-07
7.8774e-06
-2.25056e-07
8.02809e-06
-1.50691e-07
8.10404e-06
-7.59416e-08
8.0901e-06
1.39343e-08
7.96968e-06
1.20417e-07
7.72261e-06
2.47074e-07
7.32552e-06
3.97087e-07
6.77683e-06
5.48699e-07
6.00128e-06
7.75541e-07
5.05584e-06
9.45441e-07
3.83238e-06
1.22346e-06
2.33073e-06
1.50165e-06
1.05856e-06
1.27217e-06
1.04656e-07
9.53902e-07
-6.2595e-07
7.30606e-07
-1.14456e-06
5.18611e-07
-1.71791e-06
5.73351e-07
-2.31281e-06
5.94898e-07
-2.64397e-06
3.31162e-07
-2.5313e-06
-1.12675e-07
-1.98008e-06
-5.51216e-07
-9.29435e-07
-1.05065e-06
5.05648e-07
-1.43508e-06
1.82258e-06
-1.31694e-06
2.67824e-06
-8.55661e-07
2.87947e-06
-2.01224e-07
2.61478e-06
2.64687e-07
2.2283e-06
3.86485e-07
2.10559e-06
1.22701e-07
2.10532e-06
2.76053e-10
1.95026e-06
1.55054e-07
1.12655e-06
8.23717e-07
-4.40561e-07
1.56711e-06
-2.13262e-06
1.69206e-06
-3.70746e-06
1.57483e-06
-5.11303e-06
1.40558e-06
-6.34163e-06
1.2286e-06
-7.40168e-06
1.06005e-06
-8.31048e-06
9.08795e-07
-9.08879e-06
7.78315e-07
-9.75762e-06
6.68831e-07
-1.0338e-05
5.80402e-07
-1.08506e-05
5.12569e-07
-1.13168e-05
4.66207e-07
-1.17598e-05
4.43032e-07
-1.2205e-05
4.45149e-07
-1.26772e-05
4.72191e-07
-1.31952e-05
5.18074e-07
-1.37623e-05
5.67059e-07
-1.4361e-05
5.98721e-07
-1.49578e-05
5.96768e-07
-1.55118e-05
5.54022e-07
-1.59851e-05
4.73329e-07
-1.63463e-05
3.61193e-07
-1.65686e-05
2.22259e-07
-1.66302e-05
6.16161e-08
-1.65296e-05
-1.00656e-07
-1.62751e-05
-2.54424e-07
-1.58694e-05
-4.05785e-07
-1.53242e-05
-5.4513e-07
-1.46663e-05
-6.57885e-07
-1.39212e-05
-7.45118e-07
-1.31117e-05
-8.09529e-07
-1.22631e-05
-8.4861e-07
-1.14001e-05
-8.62969e-07
-1.05442e-05
-8.55959e-07
-9.71404e-06
-8.30114e-07
-8.92596e-06
-7.88076e-07
-8.19256e-06
-7.33398e-07
-7.52225e-06
-6.70309e-07
-6.91905e-06
-6.03203e-07
-6.38279e-06
-5.36258e-07
-5.90992e-06
-4.72873e-07
-5.49469e-06
-4.15227e-07
-5.13039e-06
-3.64307e-07
-4.81011e-06
-3.20271e-07
-4.52682e-06
-2.8329e-07
-4.27305e-06
-2.53778e-07
-4.04092e-06
-2.32127e-07
-3.82222e-06
-2.18699e-07
-3.60896e-06
-2.13264e-07
-3.39367e-06
-2.15289e-07
-3.17005e-06
-2.23618e-07
-2.93332e-06
-2.36735e-07
-2.68029e-06
-2.53023e-07
-2.41021e-06
-2.70077e-07
-2.12471e-06
-2.85503e-07
-1.82668e-06
-2.98028e-07
-1.52008e-06
-3.06602e-07
-1.20844e-06
-3.1164e-07
-8.94577e-07
-3.13866e-07
-5.80272e-07
-3.14305e-07
-2.66094e-07
-3.14178e-07
4.86472e-08
-3.14741e-07
3.64545e-07
-3.15898e-07
6.82601e-07
-3.18056e-07
1.00347e-06
-3.20867e-07
1.32711e-06
-3.23639e-07
1.65262e-06
-3.2551e-07
1.9782e-06
-3.25583e-07
2.30122e-06
-3.23024e-07
2.61837e-06
-3.17147e-07
2.92584e-06
-3.07467e-07
3.21963e-06
-2.93788e-07
3.49592e-06
-2.76292e-07
3.75154e-06
-2.55621e-07
3.98436e-06
-2.32818e-07
4.19344e-06
-2.09079e-07
4.37889e-06
-1.85458e-07
4.54191e-06
-1.63013e-07
4.68518e-06
-1.43276e-07
4.81287e-06
-1.27684e-07
4.92778e-06
-1.14909e-07
5.02756e-06
-9.9784e-08
5.10672e-06
-7.91565e-08
5.16482e-06
-5.8106e-08
5.20664e-06
-4.18167e-08
5.22923e-06
-2.2594e-08
5.21777e-06
1.1464e-08
5.15773e-06
6.00437e-08
5.04914e-06
1.08588e-07
4.90849e-06
1.40652e-07
4.75941e-06
1.49073e-07
4.61741e-06
1.41999e-07
4.48187e-06
1.35542e-07
4.34434e-06
1.37528e-07
4.20239e-06
1.41955e-07
4.06476e-06
1.37628e-07
3.94409e-06
1.20669e-07
3.84826e-06
9.58354e-08
3.77714e-06
7.11143e-08
3.72439e-06
5.2753e-08
3.68122e-06
4.31698e-08
3.63879e-06
4.2426e-08
3.59009e-06
4.8703e-08
3.52982e-06
6.02677e-08
3.45353e-06
7.62914e-08
3.35816e-06
9.5371e-08
3.24472e-06
1.13441e-07
3.12049e-06
1.24233e-07
2.99702e-06
1.2347e-07
2.88508e-06
1.11939e-07
2.79018e-06
9.4899e-08
2.71176e-06
7.84143e-08
2.64586e-06
6.59012e-08
2.58817e-06
5.76959e-08
2.53597e-06
5.22002e-08
2.48812e-06
4.78424e-08
2.4447e-06
4.34292e-08
2.40526e-06
3.94344e-08
2.36951e-06
3.57494e-08
2.3352e-06
3.43145e-08
2.3017e-06
3.34969e-08
2.26439e-06
3.73109e-08
2.22473e-06
3.96593e-08
2.17271e-06
5.20217e-08
2.11643e-06
5.62801e-08
2.02955e-06
8.68806e-08
1.94011e-06
8.94394e-08
1.77166e-06
1.6845e-07
1.56057e-07
1.6156e-06
3.45325e-08
7.47184e-07
2.50591e-08
5.69196e-07
-3.63801e-08
4.21536e-07
7.81754e-08
7.89536e-08
4.99382e-07
-5.81675e-07
1.17097e-06
-1.16239e-06
1.96158e-06
-1.54478e-06
2.77898e-06
-1.71518e-06
3.56012e-06
-1.7418e-06
4.28103e-06
-1.67679e-06
4.93278e-06
-1.55795e-06
5.51542e-06
-1.41554e-06
6.03406e-06
-1.26811e-06
6.49469e-06
-1.12497e-06
6.90252e-06
-9.90606e-07
7.26275e-06
-8.65011e-07
7.57821e-06
-7.47543e-07
7.85195e-06
-6.35661e-07
8.08441e-06
-5.25633e-07
8.27563e-06
-4.16272e-07
8.42551e-06
-3.00575e-07
8.52988e-06
-1.8031e-07
8.5922e-06
-4.83904e-08
8.60139e-06
1.11231e-07
8.55855e-06
2.89916e-07
8.45021e-06
5.05425e-07
8.26047e-06
7.38435e-07
8.00041e-06
1.0356e-06
7.60047e-06
1.34539e-06
7.1361e-06
1.68783e-06
6.56474e-06
2.07301e-06
5.54606e-06
2.29085e-06
4.08909e-06
2.41088e-06
2.59414e-06
2.22555e-06
1.31771e-06
1.79505e-06
3.62637e-07
1.52842e-06
-3.12552e-07
1.27009e-06
-7.60912e-07
7.79522e-07
-9.58157e-07
8.45697e-08
-9.06042e-07
-6.0333e-07
-4.923e-07
-1.46439e-06
3.45315e-07
-2.2727e-06
1.18975e-06
-2.16137e-06
1.65456e-06
-1.32048e-06
1.87268e-06
-4.19344e-07
1.93907e-06
1.98305e-07
1.9e-06
4.25547e-07
1.3243e-06
6.98403e-07
-2.41708e-07
1.56629e-06
-2.27165e-06
2.185e-06
-4.00219e-06
2.55426e-06
-5.25141e-06
2.81634e-06
-6.30733e-06
2.74798e-06
-7.27226e-06
2.53976e-06
-8.13532e-06
2.26863e-06
-8.90161e-06
1.9949e-06
-9.58517e-06
1.74361e-06
-1.02014e-05
1.52499e-06
-1.07655e-05
1.34249e-06
-1.12905e-05
1.1938e-06
-1.17876e-05
1.07748e-06
-1.22666e-05
9.91577e-07
-1.27358e-05
9.35355e-07
-1.32007e-05
9.07987e-07
-1.36631e-05
9.0754e-07
-1.41198e-05
9.28881e-07
-1.45631e-05
9.61357e-07
-1.49842e-05
9.88142e-07
-1.53745e-05
9.89025e-07
-1.57247e-05
9.47054e-07
-1.60247e-05
8.54016e-07
-1.62625e-05
7.11068e-07
-1.64239e-05
5.22588e-07
-1.64928e-05
2.91216e-07
-1.64531e-05
2.19132e-08
-1.62868e-05
-2.66941e-07
-1.59762e-05
-5.65115e-07
-1.55291e-05
-8.52787e-07
-1.49639e-05
-1.11037e-06
-1.42959e-05
-1.32593e-06
-1.35472e-05
-1.49378e-06
-1.27448e-05
-1.61197e-06
-1.19106e-05
-1.68276e-06
-1.10631e-05
-1.71048e-06
-1.02203e-05
-1.69874e-06
-9.39961e-06
-1.65081e-06
-8.61616e-06
-1.57153e-06
-7.88218e-06
-1.46738e-06
-7.20697e-06
-1.34552e-06
-6.59689e-06
-1.21328e-06
-6.05462e-06
-1.07853e-06
-5.57856e-06
-9.48927e-07
-5.16338e-06
-8.30409e-07
-4.80117e-06
-7.26519e-07
-4.4835e-06
-6.37945e-07
-4.20271e-06
-5.64072e-07
-3.95157e-06
-5.04926e-07
-3.72233e-06
-4.61363e-07
-3.50634e-06
-4.34691e-07
-3.29459e-06
-4.25015e-07
-3.07922e-06
-4.3066e-07
-2.85389e-06
-4.48944e-07
-2.61372e-06
-4.76904e-07
-2.35557e-06
-5.11178e-07
-2.07894e-06
-5.46709e-07
-1.7861e-06
-5.7834e-07
-1.48069e-06
-6.0344e-07
-1.16735e-06
-6.19937e-07
-8.50222e-07
-6.2877e-07
-5.32442e-07
-6.31647e-07
-2.16229e-07
-6.30517e-07
9.86187e-08
-6.29026e-07
4.12249e-07
-6.28371e-07
7.26099e-07
-6.29748e-07
1.04139e-06
-6.33347e-07
1.35887e-06
-6.3835e-07
1.6785e-06
-6.4327e-07
1.99932e-06
-6.46327e-07
2.31947e-06
-6.45736e-07
2.63636e-06
-6.39907e-07
2.9468e-06
-6.27593e-07
3.24735e-06
-6.08019e-07
3.5346e-06
-5.81029e-07
3.80553e-06
-5.47231e-07
4.05793e-06
-5.08017e-07
4.29045e-06
-4.65337e-07
4.50255e-06
-4.21176e-07
4.69431e-06
-3.77226e-07
4.86659e-06
-3.35294e-07
5.02124e-06
-2.97921e-07
5.1614e-06
-2.67847e-07
5.29236e-06
-2.45862e-07
5.42071e-06
-2.2814e-07
5.54747e-06
-2.05916e-07
5.65975e-06
-1.7038e-07
5.7396e-06
-1.2167e-07
5.78876e-06
-7.17575e-08
5.83304e-06
-3.28135e-08
5.89721e-06
-4.12426e-09
5.98154e-06
2.42566e-08
6.05524e-06
6.69474e-08
6.07558e-06
1.28736e-07
6.02138e-06
1.96195e-07
5.91203e-06
2.44893e-07
5.78929e-06
2.60272e-07
5.68773e-06
2.43515e-07
5.61802e-06
2.07332e-07
5.56929e-06
1.69403e-07
5.51909e-06
1.4604e-07
5.44701e-06
1.43186e-07
5.34682e-06
1.52947e-07
5.22766e-06
1.62329e-07
5.10536e-06
1.64724e-07
4.9935e-06
1.60562e-07
4.90017e-06
1.53599e-07
4.82881e-06
1.47653e-07
4.77876e-06
1.45426e-07
4.74527e-06
1.46924e-07
4.72135e-06
1.48153e-07
4.70027e-06
1.44547e-07
4.67822e-06
1.33995e-07
4.65472e-06
1.18396e-07
4.63105e-06
1.02088e-07
4.60844e-06
8.85075e-08
4.58675e-06
7.93879e-08
4.56434e-06
7.46103e-08
4.53866e-06
7.35246e-08
4.50778e-06
7.4301e-08
4.47084e-06
7.63787e-08
4.42907e-06
7.75167e-08
4.38364e-06
7.97431e-08
4.33716e-06
7.99838e-08
4.28924e-06
8.52282e-08
4.24223e-06
8.66666e-08
4.19139e-06
1.02867e-07
4.14017e-06
1.07495e-07
4.07738e-06
1.49677e-07
4.0088e-06
1.58012e-07
3.91487e-06
2.62382e-07
2.79654e-07
3.79127e-06
3.20377e-07
4.26807e-07
4.37536e-07
4.52036e-07
8.26873e-07
3.21985e-08
1.58325e-06
-6.77421e-07
2.40666e-06
-1.40508e-06
3.15432e-06
-1.91005e-06
3.77e-06
-2.16047e-06
4.26567e-06
-2.21085e-06
4.65845e-06
-2.13457e-06
4.97468e-06
-1.99302e-06
5.24253e-06
-1.8258e-06
5.48194e-06
-1.65494e-06
5.70498e-06
-1.49115e-06
5.9185e-06
-1.33849e-06
6.12534e-06
-1.19745e-06
6.32637e-06
-1.06604e-06
6.52105e-06
-9.42228e-07
6.70803e-06
-8.22641e-07
6.88555e-06
-7.03155e-07
7.05024e-06
-5.80959e-07
7.1988e-06
-4.49135e-07
7.32464e-06
-3.06146e-07
7.42016e-06
-1.43913e-07
7.49275e-06
3.86397e-08
7.54795e-06
2.3472e-07
7.58398e-06
4.69394e-07
7.59782e-06
7.24593e-07
7.60814e-06
1.02529e-06
7.59344e-06
1.36008e-06
7.55889e-06
1.72238e-06
7.48667e-06
2.14524e-06
7.2471e-06
2.53042e-06
6.80196e-06
2.85602e-06
5.99869e-06
3.02881e-06
4.8468e-06
2.94693e-06
3.72209e-06
2.65314e-06
2.81963e-06
2.17254e-06
2.12166e-06
1.47749e-06
1.54868e-06
6.57549e-07
1.10918e-06
-1.63826e-07
8.30539e-07
-1.18575e-06
7.8504e-07
-2.2272e-06
8.84773e-07
-2.2611e-06
8.65672e-07
-1.30138e-06
6.96016e-07
-2.49688e-07
3.14854e-07
5.79466e-07
-8.03129e-07
1.54353e-06
-2.51024e-06
2.40552e-06
-3.98376e-06
3.0398e-06
-5.2196e-06
3.42084e-06
-6.22228e-06
3.55694e-06
-6.89784e-06
3.4919e-06
-7.42887e-06
3.27901e-06
-7.90114e-06
3.01204e-06
-8.35912e-06
2.72661e-06
-8.8169e-06
2.45268e-06
-9.27734e-06
2.20405e-06
-9.73694e-06
1.98459e-06
-1.01907e-05
1.79625e-06
-1.06351e-05
1.63816e-06
-1.10688e-05
1.5112e-06
-1.14938e-05
1.41656e-06
-1.19134e-05
1.35496e-06
-1.23309e-05
1.32549e-06
-1.27473e-05
1.32399e-06
-1.31606e-05
1.34221e-06
-1.35659e-05
1.36661e-06
-1.3957e-05
1.37922e-06
-1.43275e-05
1.3596e-06
-1.46691e-05
1.28861e-06
-1.49667e-05
1.15164e-06
-1.51968e-05
9.41115e-07
-1.53309e-05
6.56674e-07
-1.53445e-05
3.04897e-07
-1.52127e-05
-1.09936e-07
-1.49572e-05
-5.22429e-07
-1.4581e-05
-9.4136e-07
-1.41001e-05
-1.33363e-06
-1.35332e-05
-1.67725e-06
-1.29001e-05
-1.95909e-06
-1.22209e-05
-2.17292e-06
-1.15138e-05
-2.31907e-06
-1.07928e-05
-2.40378e-06
-1.0069e-05
-2.43427e-06
-9.35176e-06
-2.416e-06
-8.64862e-06
-2.35395e-06
-7.96637e-06
-2.25378e-06
-7.31204e-06
-2.12171e-06
-6.69339e-06
-1.96418e-06
-6.11875e-06
-1.78792e-06
-5.59577e-06
-1.60151e-06
-5.12948e-06
-1.41522e-06
-4.72103e-06
-1.23886e-06
-4.36663e-06
-1.08092e-06
-4.05818e-06
-9.46399e-07
-3.78634e-06
-8.35911e-07
-3.54286e-06
-7.4841e-07
-3.32131e-06
-6.82906e-07
-3.11501e-06
-6.40994e-07
-2.91484e-06
-6.25179e-07
-2.71091e-06
-6.3459e-07
-2.4944e-06
-6.65455e-07
-2.25969e-06
-7.11615e-07
-2.00292e-06
-7.67949e-07
-1.72336e-06
-8.2627e-07
-1.4236e-06
-8.78099e-07
-1.10832e-06
-9.18722e-07
-7.8341e-07
-9.44845e-07
-4.54284e-07
-9.57896e-07
-1.25568e-07
-9.60362e-07
2.00981e-07
-9.57067e-07
5.24221e-07
-9.52266e-07
8.45193e-07
-9.49343e-07
1.16552e-06
-9.50074e-07
1.48667e-06
-9.54495e-07
1.80939e-06
-9.61069e-07
2.1333e-06
-9.67186e-07
2.45673e-06
-9.69751e-07
2.77664e-06
-9.65652e-07
3.08884e-06
-9.52101e-07
3.38818e-06
-9.26942e-07
3.6692e-06
-8.89032e-07
3.92684e-06
-8.38673e-07
4.15751e-06
-7.77898e-07
4.35984e-06
-7.10346e-07
4.53517e-06
-6.40666e-07
4.68744e-06
-5.7345e-07
4.82203e-06
-5.11814e-07
4.9434e-06
-4.56667e-07
5.05339e-06
-4.07906e-07
5.1529e-06
-3.67356e-07
5.24737e-06
-3.40341e-07
5.34937e-06
-3.30132e-07
5.47041e-06
-3.26964e-07
5.60463e-06
-3.04595e-07
5.72257e-06
-2.3961e-07
5.79274e-06
-1.41924e-07
5.8154e-06
-5.54764e-08
5.83055e-06
-1.92727e-08
5.88364e-06
-2.88345e-08
5.98553e-06
-3.4946e-08
6.09622e-06
1.80431e-08
6.15488e-06
1.37543e-07
6.12805e-06
2.71718e-07
6.0324e-06
3.55919e-07
5.91592e-06
3.6e-07
5.82312e-06
3.00127e-07
5.77247e-06
2.20056e-07
5.75324e-06
1.65267e-07
5.73655e-06
1.59878e-07
5.69245e-06
1.97046e-07
5.60568e-06
2.49098e-07
5.48224e-06
2.88168e-07
5.34276e-06
3.00043e-07
5.21045e-06
2.8591e-07
5.10229e-06
2.55814e-07
5.02615e-06
2.21566e-07
4.98143e-06
1.91639e-07
4.96089e-06
1.68694e-07
4.95435e-06
1.5109e-07
4.95268e-06
1.35663e-07
4.95018e-06
1.20892e-07
4.94525e-06
1.07021e-07
4.93932e-06
9.44403e-08
4.93473e-06
8.39736e-08
4.9328e-06
7.65475e-08
4.93242e-06
7.39008e-08
4.9304e-06
7.6323e-08
4.92252e-06
8.4255e-08
4.90565e-06
9.43922e-08
4.87869e-06
1.06704e-07
4.84299e-06
1.15684e-07
4.80125e-06
1.26963e-07
4.75574e-06
1.32178e-07
4.70969e-06
1.48912e-07
4.66116e-06
1.56025e-07
4.61581e-06
1.9503e-07
4.56141e-06
2.12413e-07
4.51961e-06
3.04179e-07
3.49808e-07
4.44946e-06
5.79857e-08
3.68821e-07
5.4537e-07
-3.5348e-08
1.51564e-06
-9.38068e-07
2.54064e-06
-1.70242e-06
3.31043e-06
-2.17488e-06
3.78279e-06
-2.38241e-06
4.02572e-06
-2.4034e-06
4.13238e-06
-2.3175e-06
4.17946e-06
-2.18165e-06
4.21683e-06
-2.03038e-06
4.27076e-06
-1.87973e-06
4.35106e-06
-1.73525e-06
4.45851e-06
-1.59859e-06
4.59016e-06
-1.47015e-06
4.74219e-06
-1.34948e-06
4.91116e-06
-1.23501e-06
5.09319e-06
-1.12426e-06
5.28375e-06
-1.01319e-06
5.47768e-06
-8.97091e-07
5.66844e-06
-7.71718e-07
5.85038e-06
-6.3107e-07
6.01784e-06
-4.73609e-07
6.16946e-06
-2.95534e-07
6.30105e-06
-9.29504e-08
6.40853e-06
1.27237e-07
6.5018e-06
3.76125e-07
6.581e-06
6.45394e-07
6.66433e-06
9.41961e-07
6.75802e-06
1.26639e-06
6.87028e-06
1.61012e-06
7.02034e-06
1.99518e-06
7.15876e-06
2.392e-06
7.24185e-06
2.77293e-06
7.16012e-06
3.11054e-06
6.79821e-06
3.30885e-06
6.17891e-06
3.27243e-06
5.38085e-06
2.97061e-06
4.4525e-06
2.40583e-06
3.53738e-06
1.57267e-06
2.7246e-06
6.48953e-07
1.90425e-06
-3.654e-07
1.17972e-06
-1.50267e-06
6.00651e-07
-1.68203e-06
-1.09129e-08
-6.89811e-07
-8.65007e-07
6.04406e-07
-2.13458e-06
1.84904e-06
-3.44731e-06
2.85626e-06
-4.59996e-06
3.55816e-06
-5.49674e-06
3.93659e-06
-6.14435e-06
4.06844e-06
-6.61469e-06
4.02728e-06
-6.97045e-06
3.84765e-06
-7.28987e-06
3.59843e-06
-7.6114e-06
3.33356e-06
-7.95922e-06
3.07443e-06
-8.33848e-06
2.83194e-06
-8.74198e-06
2.60755e-06
-9.15775e-06
2.40035e-06
-9.57304e-06
2.21154e-06
-9.97912e-06
2.04425e-06
-1.0371e-05
1.90304e-06
-1.07472e-05
1.7928e-06
-1.11088e-05
1.71655e-06
-1.14579e-05
1.67455e-06
-1.1796e-05
1.66216e-06
-1.21232e-05
1.66942e-06
-1.24365e-05
1.67986e-06
-1.27285e-05
1.67121e-06
-1.29868e-05
1.61792e-06
-1.31943e-05
1.49613e-06
-1.33305e-05
1.28786e-06
-1.33747e-05
9.85252e-07
-1.33106e-05
5.92598e-07
-1.31296e-05
1.23904e-07
-1.28459e-05
-3.93649e-07
-1.24618e-05
-9.06517e-07
-1.20036e-05
-1.39957e-06
-1.14929e-05
-1.84432e-06
-1.0949e-05
-2.22117e-06
-1.03892e-05
-2.51887e-06
-9.8279e-06
-2.73422e-06
-9.27525e-06
-2.87172e-06
-8.738e-06
-2.94103e-06
-8.21961e-06
-2.95266e-06
-7.71987e-06
-2.91575e-06
-7.23575e-06
-2.83807e-06
-6.76368e-06
-2.72585e-06
-6.30148e-06
-2.5839e-06
-5.84957e-06
-2.41609e-06
-5.41156e-06
-2.22594e-06
-4.99425e-06
-2.01882e-06
-4.606e-06
-1.80347e-06
-4.25552e-06
-1.58934e-06
-3.94919e-06
-1.38725e-06
-3.68781e-06
-1.20778e-06
-3.46394e-06
-1.05978e-06
-3.26535e-06
-9.46996e-07
-3.08149e-06
-8.66773e-07
-2.90514e-06
-8.17337e-07
-2.72883e-06
-8.01498e-07
-2.54439e-06
-8.19027e-07
-2.34325e-06
-8.66598e-07
-2.11873e-06
-9.36131e-07
-1.86846e-06
-1.01822e-06
-1.59296e-06
-1.10177e-06
-1.29543e-06
-1.17562e-06
-9.81706e-07
-1.23245e-06
-6.58136e-07
-1.26842e-06
-3.30623e-07
-1.28541e-06
-2.72582e-09
-1.28826e-06
3.24184e-07
-1.28398e-06
6.50278e-07
-1.27836e-06
9.77698e-07
-1.27676e-06
1.30913e-06
-1.28151e-06
1.64705e-06
-1.29241e-06
1.99304e-06
-1.30706e-06