/*--------------------------------*- C++ -*----------------------------------*\
  =========                 |
  \\      /  F ield         | OpenFOAM: The Open Source CFD Toolbox
   \\    /   O peration     | Website:  https://openfoam.org
    \\  /    A nd           | Version:  9
     \\/     M anipulation  |
\*---------------------------------------------------------------------------*/
FoamFile
{
    format      ascii;
    class       volScalarField;
    location    "0.044";
    object      pPrime2Mean;
}
// * * * * * * * * * * * * * * * * * * * * * * * * * * * * * * * * * * * * * //

dimensions      [0 4 -4 0 0 0 0];

internalField   nonuniform List<scalar> 
12225
(
302280
299478
296230
292696
288993
285209
281404
277614
273862
270159
266508
262906
259340
255789
252221
248576
244735
240417
302303
299507
296253
292714
289008
285222
281415
277624
273872
270170
266520
262919
259357
255812
252253
248627
244839
240714
302377
299571
296305
292756
289042
285251
281441
277648
273895
270193
266546
262950
259394
255861
252322
248736
245039
241175
302498
299678
296391
292826
289100
285300
281483
277687
273933
270233
266590
263000
259456
255941
252434
248906
245329
241718
302679
299838
296519
292928
289184
285371
281546
277745
273989
270291
266653
263074
259546
256057
252593
249138
245691
242301
302972
300061
296696
293070
289300
285469
281632
277824
274067
270371
266741
263175
259667
256212
252799
249427
246110
242906
303370
300360
296930
293258
289453
285598
281746
277929
274169
270476
266855
263305
259823
256407
253052
249767
246572
243523
303867
300743
297232
293499
289650
285764
281892
278063
274299
270610
266999
263468
260017
256644
253352
250152
247070
244149
304517
301229
297611
293801
289897
285972
282074
278231
274461
270775
267176
263667
260248
256922
253694
250578
247595
244781
305266
301822
298076
294171
290199
286226
282296
278435
274658
270975
267389
263904
260520
257242
254078
251039
248145
245420
306167
302542
298642
294621
290563
286532
282564
278680
274894
271213
267641
264179
260832
257602
254498
251530
248714
246064
307158
303340
299264
295110
290960
286864
282853
278944
275148
271468
267907
264469
261154
257967
254915
252006
249251
246659
308434
304264
299969
295664
291408
287239
283180
279242
275432
271752
268203
264786
261503
258357
255352
252496
249794
247253
310067
305486
300896
296389
291992
287727
283604
279629
275800
272118
268580
265186
261937
258833
255878
253075
250426
247933
312240
307071
302098
297324
292743
288353
284149
280124
276271
272582
269055
265685
262470
259409
256502
253750
251151
248705
315047
309126
303627
298502
293684
289137
284832
280745
276859
273161
269641
266293
263111
260091
257230
254525
251972
249567
318389
311562
305429
299891
294800
290074
285652
281494
277570
273858
270344
267015
263863
260879
258059
255395
252882
250513
322436
314237
307362
301379
296005
291099
286564
282338
278378
274654
271145
267834
264708
261757
258971
256343
253863
251525
325463
316249
308853
302584
297045
292037
287442
283182
279210
275489
271993
268703
265604
262683
259928
257329
254877
252564
323797
315743
308832
302802
297396
292469
287928
283710
279771
276080
272613
269351
266277
263381
260649
258071
255639
253342
321596
314504
308215
302547
297364
292578
288130
283977
280086
276431
272994
269757
266705
263828
261113
258550
256130
253844
319364
313188
307457
302143
297184
292547
288198
284115
280274
276657
273249
270034
267002
264140
261438
258887
256477
254199
317436
311997
306733
301722
296964
292459
288202
284181
280385
276801
273418
270223
267206
264357
261666
259123
256720
254448
316047
311072
306143
301362
296761
292364
288180
284210
280450
276893
273530
270351
267346
264506
261823
259286
256888
254621
315044
310367
305689
301082
296597
292280
288152
284221
280489
276952
273603
270435
267440
264607
261929
259398
257003
254739
314225
309837
305354
300874
296475
292215
288127
284224
280512
276989
273651
270491
267502
264674
262000
259472
257080
254817
313591
309466
305124
300732
296391
292170
288108
284224
280525
277012
273681
270527
267541
264717
262046
259519
257129
254868
313096
309215
304977
300643
296338
292142
288096
284223
280532
277025
273699
270548
267565
264743
262073
259548
257159
254899
312827
309074
304895
300593
296309
292126
288089
284223
280536
277032
273708
270559
267578
264757
262088
259564
257175
254915
312692
309014
304862
300573
296297
292119
288086
284222
280538
277035
273712
270564
267583
264763
262094
259570
257182
254922
203470
203451
203414
203363
203300
203225
203135
203026
202893
202734
202548
202337
202102
201845
201569
201277
200971
200651
200318
199972
199611
199234
198840
198428
197997
197546
197071
196575
196056
195517
194959
194379
193784
193173
192550
191921
191293
190663
190014
189336
188641
187931
187212
186479
185719
184936
184134
183311
182476
181623
180709
179738
178726
177688
176640
175593
174556
173533
172525
171533
170556
169592
168640
167697
166761
165829
164898
163967
163030
162087
161132
160164
159181
158180
157160
156119
155059
153979
152880
151764
150632
149486
148328
147159
145981
144794
143596
142388
141167
139934
138686
137426
136153
134872
133585
132296
131006
129717
128429
127144
125861
124579
123297
122016
120736
119454
118173
116890
115606
114321
113035
111746
110456
109164
107870
106574
105275
103975
102673
101369
100063
98755.6
97446.4
96135.5
94823.2
93509.4
92194.2
90877.9
89560.4
88241.9
86922.6
85602.7
84282.3
82961.7
81640.9
80320.2
78999.9
77680.1
76361
75043
73726.1
72410.6
71096.8
69784.7
68474.7
67166.9
65861.6
64559.1
63259.4
61962.9
60669.9
59380.5
58095.1
56813.9
55537.2
54265.2
52998.3
51736.5
50480.4
49230
47985.7
46747.8
45516.7
44292.6
43075.9
41867
40666.3
39474.1
38290.8
37116.9
35952.9
34799.3
33656.8
32525.9
31407.5
30302.7
29212.8
28140.2
27088.4
26066.6
203529
203509
203473
203420
203357
203280
203187
203073
202934
202770
202581
202366
202129
201871
201596
201304
200998
200678
200344
199997
199634
199256
198861
198448
198015
197563
197089
196594
196077
195539
194977
194390
193785
193163
192531
191893
191257
190624
189979
189311
188623
187919
187206
186485
185736
184962
184149
183273
182399
181515
180586
179613
178605
177578
176543
175511
174487
173475
172477
171493
170522
169564
168615
167676
166742
165813
164885
163956
163022
162080
161127
160161
159179
158180
157160
156121
155061
153981
152882
151765
150633
149487
148329
147161
145984
144797
143601
142394
141175
139942
138695
137435
136162
134880
133593
132302
131011
129721
128434
127149
125865
124583
123302
122021
120739
119458
118176
116893
115609
114324
113037
111748
110458
109166
107871
106575
105277
103976
102674
101370
100064
98756.3
97447
96136.2
94823.7
93509.9
92194.7
90878.3
89560.8
88242.3
86923
85603.1
84282.6
82962
81641.2
80320.5
79000.1
77680.3
76361.2
75043.2
73726.3
72410.8
71096.8
69784.8
68474.7
67167
65861.7
64559.1
63259.4
61962.9
60669.9
59380.5
58095.1
56814
55537.3
54265.3
52998.3
51736.5
50480.4
49230
47985.7
46747.8
45516.6
44292.5
43075.9
41867
40666.2
39474
38290.7
37116.8
35952.8
34799.1
33656.5
32525.5
31407
30302
29211.9
28138.7
27085.4
26058.6
203683
203667
203632
203577
203505
203415
203307
203178
203025
202849
202649
202427
202186
201926
201649
201356
201050
200730
200397
200049
199687
199308
198913
198499
198066
197611
197137
196643
196127
195589
195027
194443
193838
193215
192580
191938
191292
190641
189983
189308
188621
187926
187225
186497
185735
184936
184101
183219
182306
181372
180414
179435
178438
177430
176417
175406
174400
173403
172416
171441
170477
169523
168579
167643
166713
165787
164861
163935
163004
162065
161116
160153
159174
158177
157160
156122
155063
153984
152885
151768
150636
149489
148331
147164
145988
144803
143609
142405
141189
139959
138714
137454
136180
134897
133607
132314
131022
129731
128444
127158
125875
124592
123310
122029
120747
119465
118182
116899
115615
114329
113042
111753
110462
109169
107875
106578
105279
103979
102676
101372
100066
98757.9
97448.5
96137.5
94824.9
93511
92195.7
90879.3
89561.6
88243.1
86923.7
85603.7
84283.2
82962.5
81641.6
80320.9
79000.5
77680.6
76361.5
75043.4
73726.5
72411
71097
69784.9
68474.8
67167
65861.7
64559.1
63259.5
61963
60669.9
59380.6
58095.2
56814
55537.3
54265.3
52998.3
51736.5
50480.3
49229.9
47985.6
46747.7
45516.5
44292.4
43075.7
41866.8
40666
39473.8
38290.5
37116.5
35952.4
34798.7
33656
32524.8
31406.1
30300.8
29210.1
28136
27080.5
26047.9
203905
203889
203853
203795
203713
203610
203486
203341
203176
202990
202783
202556
202311
202049
201770
201476
201168
200846
200510
200160
199795
199413
199015
198597
198161
197704
197228
196734
196220
195688
195136
194564
193972
193362
192738
192103
191455
190790
190106
189408
188702
187985
187261
186514
185727
184898
184030
183126
182193
181239
180267
179284
178291
177294
176295
175298
174305
173320
172343
171376
170418
169470
168531
167599
166673
165750
164828
163905
162978
162044
161099
160140
159166
158172
157158
156123
155065
153987
152888
151771
150638
149492
148334
147168
145994
144812
143622
142422
141210
139984
138741
137482
136207
134922
133628
132333
131038
129746
128458
127172
125888
124605
123323
122041
120758
119476
118192
116908
115623
114336
113049
111759
110468
109174
107879
106582
105283
103982
102679
101375
100068
98760.2
97450.5
96139.3
94826.6
93512.5
92197.1
90880.5
89562.8
88244.2
86924.7
85604.6
84284.1
82963.2
81642.3
80321.5
79001
77681.1
76362
75043.8
73726.8
72411.2
71097.3
69785.1
68475
67167.2
65861.8
64559.2
63259.6
61963.1
60670
59380.7
58095.3
56814
55537.3
54265.3
52998.2
51736.5
50480.2
49229.8
47985.5
46747.6
45516.4
44292.3
43075.6
41866.6
40665.8
39473.5
38290.1
37116.1
35951.9
34798.1
33655.2
32523.8
31404.7
30298.9
29207.3
28131.7
27073.6
26035
204205
204185
204142
204074
203981
203867
203733
203578
203404
203210
202997
202765
202515
202248
201964
201666
201353
201026
200685
200329
199958
199571
199166
198743
198301
197839
197359
196863
196352
195826
195287
194733
194165
193582
192983
192365
191723
191051
190350
189629
188897
188148
187377
186577
185744
184875
183971
183042
182091
181124
180146
179159
178167
177175
176183
175194
174210
173232
172262
171301
170350
169407
168473
167545
166623
165704
164786
163868
162945
162016
161076
160123
159153
158164
157153
156120
155065
153987
152889
151771
150638
149492
148335
147170
145999
144821
143636
142442
141236
140016
138777
137520
136245
134955
133658
132357
131059
129765
128476
127190
125906
124623
123340
122057
120774
119490
118205
116920
115634
114346
113058
111767
110475
109181
107885
106588
105288
103987
102683
101378
100072
98763.3
97453.3
96141.8
94828.9
93514.6
92199
90882.2
89564.4
88245.6
86926
85605.8
84285.1
82964.2
81643.1
80322.2
79001.6
77681.7
76362.4
75044.2
73727.2
72411.6
71097.6
69785.4
68475.2
67167.4
65862
64559.4
63259.7
61963.2
60670.1
59380.8
58095.3
56814.1
55537.3
54265.3
52998.2
51736.4
50480.1
49229.7
47985.4
46747.4
45516.2
44292.1
43075.4
41866.4
40665.5
39473.2
38289.7
37115.6
35951.3
34797.3
33654.1
32522.4
31402.8
30296.3
29203.7
28126.3
27065.2
26021.1
204584
204556
204499
204419
204318
204196
204054
203892
203710
203508
203287
203046
202786
202509
202216
201908
201587
201253
200904
200542
200164
199769
199357
198926
198477
198009
197525
197026
196515
195993
195463
194924
194376
193815
193237
192635
192000
191326
190617
189876
189113
188327
187514
186669
185790
184879
183943
182987
182016
181034
180045
179052
178059
177067
176077
175092
174113
173139
172174
171217
170270
169332
168403
167481
166564
165650
164738
163824
162907
161984
161050
160102
159137
158152
157145
156115
155061
153984
152886
151769
150635
149489
148332
147169
146000
144826
143647
142460
141262
140050
138819
137566
136292
134999
133696
132389
131086
129789
128498
127211
125927
124644
123360
122077
120792
119507
118221
116934
115647
114358
113069
111777
110484
109190
107893
106595
105294
103992
102688
101383
100076
98767
97456.7
96144.9
94831.6
93517
92201.2
90884.3
89566.2
88247.2
86927.4
85607.1
84286.3
82965.2
81644.1
80323
79002.4
77682.3
76363
75044.7
73727.6
72411.9
71097.9
69785.7
68475.5
67167.6
65862.2
64559.5
63259.8
61963.3
60670.3
59380.9
58095.4
56814.2
55537.4
54265.3
52998.2
51736.4
50480.1
49229.6
47985.2
46747.3
45516.1
44291.9
43075.1
41866.1
40665.2
39472.8
38289.2
37115
35950.5
34796.2
33652.7
32520.6
31400.5
30293.1
29199.3
28120.1
27055.9
26006.8
205012
204978
204916
204832
204728
204602
204454
204286
204098
203888
203656
203404
203132
202843
202537
202218
201885
201540
201180
200807
200418
200012
199589
199149
198691
198216
197726
197223
196710
196187
195658
195123
194584
194035
193468
192871
192237
191563
190847
190094
189311
188500
187656
186777
185862
184918
183951
182966
181971
180968
179964
178960
177960
176965
175975
174991
174012
173040
172076
171122
170178
169244
168320
167404
166494
165587
164682
163776
162866
161949
161022
160081
159121
158141
157137
156109
155056
153980
152883
151765
150632
149485
148329
147166
145997
144826
143651
142470
141281
140080
138859
137615
136343
135049
133740
132427
131118
129817
128524
127236
125951
124667
123383
122099
120813
119526
118239
116951
115662
114372
113081
111789
110495
109199
107901
106602
105301
103999
102694
101388
100081
98771.4
97460.7
96148.5
94834.9
93520
92203.9
90886.6
89568.4
88249.2
86929.2
85608.7
84287.7
82966.5
81645.2
80324
79003.2
77683
76363.6
75045.2
73728.1
72412.4
71098.3
69786
68475.8
67167.8
65862.4
64559.7
63260
61963.5
60670.4
59381
58095.5
56814.2
55537.4
54265.3
52998.2
51736.3
50480
49229.5
47985.1
46747.1
45515.9
44291.7
43074.9
41865.8
40664.8
39472.3
38288.6
37114.2
35949.5
34795
33651.2
32518.6
31397.8
30289.5
29194.4
28113.1
27046
25992.6
205503
205470
205411
205329
205223
205094
204943
204770
204574
204356
204115
203851
203567
203264
202945
202611
202264
201903
201528
201138
200733
200313
199876
199423
198954
198471
197974
197464
196945
196416
195881
195342
194799
194247
193675
193073
192437
191760
191043
190287
189498
188675
187815
186914
185974
185001
184003
182987
181960
180930
179903
178883
177872
176869
175874
174887
173907
172934
171971
171018
170076
169145
168226
167316
166413
165514
164618
163721
162820
161913
160994
160061
159108
158133
157133
156107
155056
153981
152883
151765
150631
149483
148326
147162
145994
144823
143649
142472
141290
140098
138889
137655
136391
135098
133786
132467
131153
129848
128552
127263
125978
124693
123408
122122
120835
119547
118258
116968
115678
114387
113095
111801
110506
109209
107911
106611
105309
104006
102701
101394
100086
98776.4
97465.2
96152.6
94838.6
93523.3
92206.9
90889.4
89570.9
88251.4
86931.2
85610.5
84289.3
82967.9
81646.4
80325.1
79004.1
77683.8
76364.3
75045.8
73728.6
72412.8
71098.7
69786.4
68476.1
67168.1
65862.6
64559.9
63260.2
61963.6
60670.5
59381.1
58095.6
56814.3
55537.5
54265.3
52998.2
51736.3
50480
49229.4
47985
46747
45515.7
44291.5
43074.6
41865.5
40664.4
39471.7
38287.9
37113.4
35948.4
34793.6
33649.4
32516.3
31394.8
30285.5
29189
28105.8
27035.9
25978.7
206094
206063
206006
205923
205816
205685
205530
205352
205149
204923
204672
204397
204101
203786
203453
203104
202739
202360
201965
201555
201131
200691
200237
199768
199285
198789
198281
197763
197233
196694
196148
195597
195042
194476
193891
193281
192639
191962
191248
190499
189714
188892
188025
187110
186149
185147
184114
183058
181993
180927
179868
178823
177793
176778
175774
174782
173800
172828
171866
170913
169972
169043
168125
167220
166323
165434
164548
163663
162774
161878
160970
160046
159101
158131
157135
156111
155061
153985
152886
151768
150632
149484
148326
147162
145993
144820
143646
142469
141290
140105
138906
137683
136427
135139
133827
132506
131188
129880
128582
127292
126006
124720
123434
122146
120857
119568
118278
116987
115695
114403
113109
111815
110518
109220
107921
106620
105318
104014
102708
101401
100092
98782
97470.4
96157.3
94842.9
93527.2
92210.4
90892.6
89573.7
88254
86933.5
85612.5
84291.1
82969.4
81647.8
80326.3
79005.2
77684.7
76365.1
75046.5
73729.2
72413.3
71099.1
69786.8
68476.5
67168.4
65862.9
64560.2
63260.4
61963.8
60670.7
59381.2
58095.7
56814.4
55537.5
54265.4
52998.2
51736.3
50479.9
49229.3
47984.9
46746.8
45515.5
44291.2
43074.3
41865.1
40663.9
39471.2
38287.2
37112.4
35947.3
34792.1
33647.5
32513.8
31391.5
30281.2
29183.3
28098.1
27025.7
25965.2
206799
206768
206711
206627
206517
206383
206223
206039
205829
205595
205335
205051
204744
204416
204069
203704
203321
202920
202504
202072
201624
201162
200687
200198
199698
199187
198665
198132
197589
197037
196477
195910
195338
194755
194156
193536
192892
192219
191513
190775
190000
189182
188313
187385
186401
185367
184292
183191
182076
180964
179865
178786
177731
176697
175682
174684
173699
172727
171765
170813
169871
168941
168024
167121
166230
165349
164476
163604
162730
161848
160951
160037
159099
158135
157142
156120
155070
153993
152893
151772
150636
149487
148329
147164
145994
144821
143646
142468
141289
140106
138913
137697
136450
135169
133860
132539
131220
129912
128613
127322
126034
124747
123459
122170
120881
119590
118298
117006
115713
114420
113125
111829
110531
109232
107932
106630
105327
104022
102716
101408
100099
98788.2
97476.1
96162.6
94847.7
93531.6
92214.4
90896.1
89576.9
88256.9
86936.1
85614.8
84293.1
82971.2
81649.3
80327.6
79006.3
77685.7
76366
75047.3
73729.9
72413.9
71099.6
69787.2
68476.9
67168.8
65863.2
64560.4
63260.6
61964
60670.9
59381.4
58095.8
56814.5
55537.6
54265.4
52998.2
51736.3
50479.9
49229.3
47984.8
46746.7
45515.3
44291
43074
41864.7
40663.4
39470.5
38286.4
37111.4
35946
34790.5
33645.4
32511.1
31388.1
30276.7
29177.5
28090.4
27015.6
25952.3
207621
207590
207530
207444
207329
207189
207023
206832
206615
206371
206102
205808
205490
205149
204787
204404
204002
203581
203142
202687
202216
201731
201234
200724
200204
199675
199135
198586
198027
197459
196883
196301
195712
195115
194504
193877
193230
192560
191861
191130
190362
189545
188670
187727
186717
185646
184526
183373
182206
181043
179898
178780
177693
176638
175609
174603
173615
172640
171676
170722
169778
168846
167928
167026
166140
165268
164408
163551
162692
161823
160938
160033
159102
158143
157154
156133
155083
154005
152903
151781
150643
149494
148335
147170
146000
144827
143651
142472
141292
140108
138916
137705
136464
135189
133885
132567
131250
129942
128643
127352
126063
124774
123485
122195
120904
119612
118319
117026
115732
114437
113141
111843
110545
109245
107944
106641
105337
104031
102724
101416
100106
98795.2
97482.5
96168.5
94853.1
93536.6
92218.9
90900.2
89580.5
88260.1
86939
85617.3
84295.3
82973.2
81651.1
80329.1
79007.7
77686.9
76367
75048.1
73730.6
72414.5
71100.1
69787.7
68477.3
67169.1
65863.6
64560.7
63260.9
61964.2
60671
59381.5
58095.9
56814.6
55537.7
54265.4
52998.2
51736.2
50479.8
49229.2
47984.7
46746.5
45515.1
44290.7
43073.6
41864.3
40662.9
39469.9
38285.6
37110.4
35944.6
34788.8
33643.2
32508.3
31384.5
30272.1
29171.5
28082.7
27005.7
25939.9
208562
208528
208464
208372
208251
208103
207928
207726
207499
207244
206964
206658
206326
205971
205593
205193
204772
204332
203872
203395
202903
202396
201877
201348
200808
200259
199701
199134
198558
197975
197384
196788
196186
195575
194951
194312
193656
192977
192272
191537
190762
189936
189045
188080
187041
185933
184771
183573
182359
181151
179965
178811
177696
176618
175574
174558
173562
172582
171613
170654
169706
168770
167850
166948
166066
165203
164354
163510
162664
161806
160930
160032
159107
158153
157166
156147
155097
154019
152916
151793
150654
149504
148345
147180
146010
144837
143660
142481
141299
140113
138920
137711
136473
135202
133903
132590
131277
129971
128673
127381
126091
124801
123510
122219
120927
119634
118340
117046
115751
114454
113157
111859
110559
109258
107956
106653
105348
104041
102734
101425
100115
98802.8
97489.6
96175
94859.2
93542.1
92223.9
90904.7
89584.6
88263.7
86942.2
85620.2
84297.8
82975.4
81653
80330.8
79009.1
77688.1
76368
75049.1
73731.4
72415.2
71100.7
69788.1
68477.7
67169.5
65863.9
64561
63261.1
61964.4
60671.2
59381.6
58096.1
56814.7
55537.7
54265.5
52998.2
51736.2
50479.8
49229.1
47984.5
46746.4
45514.9
44290.4
43073.3
41863.8
40662.3
39469.2
38284.7
37109.3
35943.3
34787
33641
32505.5
31380.9
30267.5
29165.6
28075.2
26996.2
25928.1
209618
209582
209513
209414
209284
209124
208937
208722
208480
208210
207914
207591
207243
206871
206476
206058
205619
205160
204683
204187
203676
203151
202614
202066
201508
200941
200366
199782
199191
198593
197987
197375
196753
196121
195474
194811
194129
193426
192697
191937
191137
190284
189365
188373
187306
186170
184980
183754
182513
181277
180065
178887
177750
176654
175595
174566
173560
172570
171593
170627
169672
168731
167807
166905
166025
165166
164323
163487
162648
161797
160926
160032
159111
158160
157176
156159
155111
154035
152932
151809
150669
149518
148359
147194
146024
144850
143673
142493
141310
140123
138929
137718
136480
135211
133916
132609
131301
129999
128702
127409
126118
124827
123535
122243
120949
119656
118361
117066
115769
114472
113174
111875
110574
109272
107969
106665
105359
104052
102744
101435
100124
98811.1
97497.4
96182.2
94865.8
93548.2
92229.4
90909.7
89589.1
88267.7
86945.7
85623.3
84300.6
82977.8
81655.1
80332.7
79010.8
77689.6
76369.3
75050.1
73732.3
72415.9
71101.4
69788.7
68478.1
67169.9
65864.2
64561.3
63261.4
61964.6
60671.4
59381.8
58096.2
56814.7
55537.8
54265.5
52998.2
51736.2
50479.7
49229
47984.4
46746.2
45514.7
44290.2
43073
41863.4
40661.8
39468.5
38283.8
37108.2
35941.9
34785.3
33638.7
32502.6
31377.3
30262.9
29159.7
28067.9
26987.1
25917
210802
210761
210687
210580
210441
210270
210067
209835
209573
209282
208963
208617
208247
207852
207436
206998
206541
206065
205570
205059
204532
203992
203438
202874
202300
201716
201124
200522
199912
199293
198664
198024
197371
196704
196020
195317
194593
193846
193073
192270
191428
190537
189586
188568
187482
186334
185135
183903
182657
181417
180198
179011
177863
176754
175681
174639
173621
172619
171632
170657
169695
168748
167819
166912
166030
165169
164326
163489
162650
161798
160927
160032
159111
158161
157179
156166
155121
154047
152946
151825
150686
149534
148375
147210
146040
144866
143689
142509
141326
140138
138939
137724
136483
135215
133925
132624
131322
130024
128729
127436
126144
124852
123559
122266
120972
119677
118382
117086
115788
114490
113191
111891
110589
109287
107983
106678
105371
104064
102755
101445
100133
98820.1
97505.7
96190
94873
93554.8
92235.5
90915.2
89594
88272.1
86949.6
85626.7
84303.6
82980.4
81657.4
80334.7
79012.5
77691.1
76370.6
75051.2
73733.2
72416.8
71102
69789.3
68478.6
67170.3
65864.6
64561.6
63261.6
61964.8
60671.5
59381.9
58096.3
56814.8
55537.9
54265.6
52998.3
51736.2
50479.7
49229
47984.3
46746.1
45514.5
44289.9
43072.6
41863
40661.2
39467.8
38282.9
37107
35940.4
34783.5
33636.5
32499.8
31373.7
30258.4
29154.1
28060.8
26978.4
25906.6
212137
212093
212015
211902
211755
211573
211357
211104
210816
210493
210139
209758
209354
208929
208485
208023
207545
207050
206539
206011
205469
204912
204342
203759
203165
202558
201941
201311
200670
200017
199350
198671
197976
197264
196531
195777
194999
194197
193371
192516
191626
190695
189713
188676
187582
186436
185248
184031
182802
181576
180367
179184
178033
176917
175834
174779
173748
172734
171737
170755
169786
168833
167897
166982
166091
165221
164368
163522
162675
161816
160938
160036
159110
158158
157177
156165
155123
154052
152955
151836
150700
149551
148393
147229
146060
144886
143710
142529
141345
140154
138950
137729
136483
135214
133929
132635
131340
130046
128753
127461
126169
124876
123582
122288
120994
119699
118403
117106
115807
114508
113208
111907
110605
109301
107997
106691
105384
104076
102767
101456
100143
98829.7
97514.7
96198.3
94880.7
93561.9
92241.9
90921
89599.3
88276.8
86953.8
85630.5
84306.9
82983.3
81659.9
80336.9
79014.4
77692.7
76372
75052.5
73734.3
72417.6
71102.8
69789.9
68479.2
67170.8
65865
64561.9
63261.9
61965.1
60671.7
59382.1
58096.4
56814.9
55537.9
54265.6
52998.3
51736.2
50479.7
49228.9
47984.2
46745.9
45514.3
44289.6
43072.3
41862.5
40660.7
39467.1
38282.1
37105.9
35939
34781.7
33634.3
32497
31370.1
30254
29148.6
28054.1
26970.2
25896.8
213703
213655
213573
213455
213300
213106
212870
212590
212265
211900
211499
211070
210621
210154
209672
209178
208672
208153
207619
207069
206502
205918
205318
204703
204073
203429
202772
202102
201420
200724
200014
199288
198545
197782
196996
196185
195352
194496
193616
192712
191780
190813
189806
188756
187663
186529
185362
184172
182971
181770
180580
179407
178259
177139
176047
174981
173938
172914
171908
170918
169944
168984
168040
167114
166209
165323
164452
163589
162726
161853
160962
160050
159116
158158
157174
156162
155121
154052
152959
151845
150713
149568
148414
147252
146085
144912
143736
142556
141369
140172
138961
137731
136480
135211
133931
132644
131356
130066
128775
127484
126191
124899
123605
122310
121015
119720
118423
117125
115826
114526
113225
111924
110621
109317
108012
106705
105398
104089
102779
101467
100154
98840
97524.3
96207.2
94888.9
93569.5
92248.9
90927.4
89605
88282
86958.5
85634.6
84310.5
82986.4
81662.6
80339.2
79016.5
77694.5
76373.6
75053.8
73735.4
72418.6
71103.6
69790.6
68479.8
67171.3
65865.4
64562.3
63262.2
61965.4
60672
59382.3
58096.6
56815.1
55538.1
54265.7
52998.4
51736.3
50479.7
49228.9
47984.2
46745.8
45514.2
44289.5
43072
41862.2
40660.2
39466.5
38281.3
37104.9
35937.7
34780.1
33632.2
32494.3
31366.8
30249.8
29143.5
28047.8
26962.7
25887.9
215439
215387
215297
215169
215004
214796
214539
214226
213858
213438
212978
212489
211984
211468
210940
210402
209857
209299
208725
208132
207521
206892
206246
205586
204912
204226
203528
202818
202095
201358
200606
199837
199051
198244
197412
196555
195677
194778
193858
192915
191949
190955
189930
188872
187781
186660
185514
184349
183174
181997
180825
179664
178520
177398
176300
175224
174171
173138
172123
171126
170144
169176
168222
167283
166361
165456
164565
163682
162800
161908
161002
160078
159133
158167
157177
156163
155121
154054
152964
151853
150725
149585
148435
147277
146113
144943
143768
142586
141395
140191
138971
137733
136478
135210
133934
132654
131369
130083
128794
127504
126212
124919
123626
122331
121035
119739
118442
117144
115844
114544
113243
111940
110637
109332
108027
106720
105412
104102
102791
101479
100165
98850.5
97534.1
96216.4
94897.4
93577.3
92256.1
90934
89611
88287.4
86963.2
85638.8
84314.2
82989.6
81665.4
80341.6
79018.5
77696.2
76375
75055
73736.4
72419.5
71104.3
69791.2
68480.2
67171.7
65865.7
64562.5
63262.4
61965.5
60672.1
59382.4
58096.6
56815.1
55538.1
54265.7
52998.3
51736.2
50479.6
49228.7
47984
46745.6
45513.9
44289.1
43071.6
41861.7
40659.6
39465.7
38280.3
37103.8
35936.3
34778.3
33630
32491.6
31363.5
30245.7
29138.5
28041.7
26955.4
25879.4
217170
217110
217007
216865
216685
216461
216185
215844
215430
214949
214418
213859
213291
212717
212131
211539
210941
210333
209707
209063
208402
207725
207035
206334
205622
204901
204169
203427
202673
201904
201119
200318
199500
198662
197797
196908
195999
195069
194120
193150
192159
191145
190105
189040
187949
186835
185701
184552
183393
182232
181073
179921
178781
177658
176555
175473
174412
173371
172348
171342
170351
169373
168407
167455
166519
165597
164688
163785
162883
161974
161053
160115
159160
158185
157190
156172
155129
154062
152972
151864
150740
149604
148457
147302
146141
144973
143798
142615
141418
140207
138978
137734
136477
135212
133940
132663
131382
130097
128810
127520
126229
124937
123644
122349
121053
119757
118459
117161
115861
114560
113258
111956
110652
109347
108041
106733
105425
104115
102803
101491
100176
98860.7
97543.7
96225.4
94905.9
93585.2
92263.4
90940.6
89617
88292.8
86968.1
85643
84317.9
82992.8
81668.1
80344
79020.5
77697.9
76376.4
75056.2
73737.4
72420.3
71105
69791.7
68480.7
67172
65866
64562.7
63262.5
61965.6
60672.2
59382.4
58096.7
56815.1
55538.1
54265.7
52998.3
51736.1
50479.5
49228.6
47983.8
46745.4
45513.6
44288.8
43071.2
41861.2
40659
39465
38279.5
37102.7
35935
34776.7
33627.9
32489.1
31360.4
30241.9
29133.8
28036.1
26948.8
25871.7
218878
218806
218681
218509
218295
218037
217727
217349
216887
216346
215746
215118
214483
213847
213205
212561
211914
211255
210580
209887
209180
208460
207730
206992
206248
205496
204737
203968
203188
202393
201583
200757
199915
199052
198164
197251
196318
195366
194395
193405
192396
191365
190314
189240
188146
187034
185905
184765
183616
182464
181314
180168
179032
177909
176804
175716
174648
173600
172569
171554
170553
169564
168587
167624
166674
165738
164812
163891
162971
162046
161111
160162
159197
158214
157212
156189
155143
154074
152984
151878
150757
149624
148481
147328
146168
145000
143824
142638
141436
140217
138981
137734
136477
135214
133945
132671
131392
130109
128823
127535
126245
124953
123659
122365
121069
119772
118475
117176
115876
114575
113273
111970
110666
109361
108054
106747
105437
104127
102815
101502
100187
98870.8
97553.3
96234.5
94914.5
93593.2
92270.8
90947.4
89623.3
88298.4
86973
85647.4
84321.7
82996.1
81670.9
80346.3
79022.5
77699.6
76377.9
75057.4
73738.4
72421.1
71105.7
69792.3
68481.1
67172.4
65866.3
64563
63262.7
61965.7
60672.3
59382.5
58096.7
56815.2
55538.1
54265.7
52998.2
51736
50479.4
49228.5
47983.7
46745.2
45513.4
44288.5
43070.9
41860.8
40658.5
39464.4
38278.7
37101.7
35933.8
34775.2
33626.1
32486.8
31357.5
30238.4
29129.6
28031.1
26942.9
25864.8
220568
220478
220319
220101
219831
219510
219134
218691
218170
217572
216916
216233
215549
214867
214187
213509
212823
212119
211396
210655
209901
209137
208368
207594
206818
206038
205254
204461
203659
202841
202009
201161
200298
199415
198507
197575
196624
195654
194666
193660
192636
191593
190531
189451
188353
187240
186113
184977
183834
182689
181544
180403
179269
178147
177040
175948
174874
173818
172780
171756
170745
169746
168759
167786
166825
165875
164933
163995
163060
162123
161177
160218
159243
158250
157240
156212
155163
154092
153002
151896
150778
149648
148507
147355
146193
145023
143844
142653
141446
140221
138982
137733
136478
135216
133949
132677
131400
130119