/*--------------------------------*- C++ -*----------------------------------*\
  =========                 |
  \\      /  F ield         | OpenFOAM: The Open Source CFD Toolbox
   \\    /   O peration     | Website:  https://openfoam.org
    \\  /    A nd           | Version:  9
     \\/     M anipulation  |
\*---------------------------------------------------------------------------*/
FoamFile
{
    format      ascii;
    class       volVectorField;
    location    "0.044";
    object      UMean;
}
// * * * * * * * * * * * * * * * * * * * * * * * * * * * * * * * * * * * * * //

dimensions      [0 1 -1 0 0 0 0];

internalField   nonuniform List<vector> 
12225
(
(9.85109 0.0462147 0)
(9.55465 0.0616319 0)
(9.25413 0.059337 0)
(8.94912 0.0580322 0)
(8.64741 0.0577222 0)
(8.35316 0.0572893 0)
(8.06748 0.0564557 0)
(7.78944 0.0557316 0)
(7.51866 0.0549712 0)
(7.2517 0.0551274 0)
(6.9897 0.0552752 0)
(6.72299 0.0577561 0)
(6.45872 0.059157 0)
(6.17269 0.0667375 0)
(5.88892 0.0693646 0)
(5.54805 0.089778 0)
(5.22114 0.0888476 0)
(4.75348 0.141384 0)
(10.0244 0.0513086 0)
(10.0839 0.0742752 0)
(10.1219 0.0739978 0)
(10.1343 0.0754692 0)
(10.1297 0.0792724 0)
(10.1135 0.0830975 0)
(10.0883 0.0866364 0)
(10.0535 0.0897436 0)
(10.0103 0.0934472 0)
(9.95694 0.0969862 0)
(9.89641 0.102798 0)
(9.82333 0.10838 0)
(9.74446 0.119331 0)
(9.64508 0.129119 0)
(9.5427 0.150442 0)
(9.40059 0.168432 0)
(9.26521 0.204864 0)
(9.04657 0.232444 0)
(10.0007 0.0328152 0)
(10.0317 0.0540786 0)
(10.0597 0.0573401 0)
(10.0759 0.0600103 0)
(10.0848 0.0651598 0)
(10.0906 0.0707554 0)
(10.0955 0.0758672 0)
(10.0979 0.0809014 0)
(10.0982 0.08632 0)
(10.0938 0.0927629 0)
(10.0874 0.100359 0)
(10.075 0.110379 0)
(10.0623 0.122719 0)
(10.041 0.140304 0)
(10.0232 0.162173 0)
(9.99399 0.193574 0)
(9.97541 0.228809 0)
(9.94205 0.271086 0)
(10.0146 0.0293954 0)
(10.0375 0.0568481 0)
(10.0581 0.0632851 0)
(10.0699 0.0657207 0)
(10.0752 0.0703835 0)
(10.0776 0.0760993 0)
(10.0789 0.0817713 0)
(10.0786 0.0870623 0)
(10.0766 0.0929772 0)
(10.072 0.0995194 0)
(10.0656 0.108109 0)
(10.0566 0.11834 0)
(10.0466 0.132374 0)
(10.0349 0.149883 0)
(10.0246 0.173348 0)
(10.0163 0.202638 0)
(10.0144 0.236144 0)
(10.0208 0.271826 0)
(10.0072 0.0226134 0)
(10.0254 0.0491354 0)
(10.0444 0.0570569 0)
(10.0573 0.0600237 0)
(10.0633 0.0648017 0)
(10.0653 0.0711622 0)
(10.0655 0.0777209 0)
(10.0644 0.0841418 0)
(10.0617 0.090965 0)
(10.0568 0.0987852 0)
(10.0499 0.108311 0)
(10.0412 0.119985 0)
(10.0313 0.134611 0)
(10.0213 0.152824 0)
(10.0122 0.175332 0)
(10.0068 0.202286 0)
(10.0058 0.231597 0)
(10.0122 0.260454 0)
(9.98813 0.0176043 0)
(9.99954 0.0450755 0)
(10.0144 0.0554339 0)
(10.0264 0.0599881 0)
(10.0334 0.0654002 0)
(10.0369 0.0723265 0)
(10.0385 0.0796389 0)
(10.0388 0.0868394 0)
(10.0372 0.0944391 0)
(10.0338 0.10294 0)
(10.0285 0.113013 0)
(10.022 0.125209 0)
(10.0147 0.140081 0)
(10.0077 0.158237 0)
(10.0015 0.179762 0)
(9.99807 0.204533 0)
(9.99757 0.230533 0)
(10.0022 0.255888 0)
(9.98276 0.0176821 0)
(9.9898 0.0404633 0)
(10.0014 0.0518114 0)
(10.0119 0.0572814 0)
(10.018 0.0626239 0)
(10.0202 0.0695563 0)
(10.0205 0.0773957 0)
(10.0199 0.085482 0)
(10.0182 0.0940051 0)
(10.015 0.103479 0)
(10.0104 0.114414 0)
(10.0048 0.12733 0)
(9.99871 0.142605 0)
(9.99293 0.160674 0)
(9.98808 0.181359 0)
(9.98547 0.204408 0)
(9.98532 0.228244 0)
(9.98879 0.251731 0)
(10.0065 0.0136572 0)
(10.0119 0.0353374 0)
(10.0205 0.048576 0)
(10.0288 0.0563807 0)
(10.0341 0.0629545 0)
(10.0364 0.070372 0)
(10.0367 0.078642 0)
(10.0361 0.0872992 0)
(10.0345 0.0963508 0)
(10.0319 0.106271 0)
(10.0281 0.117549 0)
(10.0235 0.130674 0)
(10.0186 0.145927 0)
(10.014 0.163564 0)
(10.0103 0.183323 0)
(10.0083 0.204865 0)
(10.0082 0.227037 0)
(10.0103 0.248979 0)
(9.99476 0.0149706 0)
(9.99743 0.0340904 0)
(10.0032 0.0465996 0)
(10.0101 0.0546169 0)
(10.0156 0.0613216 0)
(10.0189 0.0686826 0)
(10.0205 0.077072 0)
(10.0212 0.0862624 0)
(10.0213 0.0961407 0)
(10.0207 0.106918 0)
(10.0193 0.118951 0)
(10.0173 0.132636 0)
(10.0149 0.148143 0)
(10.0127 0.165586 0)
(10.011 0.18471 0)
(10.0106 0.205218 0)
(10.0113 0.226236 0)
(10.0138 0.247165 0)
(9.97843 0.0134887 0)
(9.98298 0.0293623 0)
(9.99053 0.0427335 0)
(9.99922 0.0524795 0)
(10.0062 0.0603632 0)
(10.0101 0.0683001 0)
(10.0116 0.0770125 0)
(10.0119 0.0864622 0)
(10.0117 0.0965243 0)
(10.0111 0.107424 0)
(10.0104 0.119507 0)
(10.0094 0.133169 0)
(10.0083 0.148535 0)
(10.0074 0.165674 0)
(10.007 0.184226 0)
(10.0078 0.203926 0)
(10.0092 0.223973 0)
(10.0125 0.244053 0)
(9.97245 0.0121546 0)
(9.97383 0.0268099 0)
(9.97768 0.0388539 0)
(9.98339 0.0491515 0)
(9.98867 0.0581581 0)
(9.99224 0.0668698 0)
(9.99434 0.0760844 0)
(9.99569 0.0860075 0)
(9.99654 0.096588 0)
(9.99684 0.10799 0)
(9.9965 0.120507 0)
(9.99568 0.134472 0)
(9.99468 0.149919 0)
(9.99395 0.166881 0)
(9.99388 0.184942 0)
(9.99478 0.203935 0)
(9.99684 0.223109 0)
(9.99996 0.242436 0)
(10.0113 0.0127102 0)
(10.0109 0.0270163 0)
(10.0137 0.0381539 0)
(10.019 0.0480232 0)
(10.0246 0.0571394 0)
(10.029 0.0660039 0)
(10.0322 0.0752764 0)
(10.0343 0.0852871 0)
(10.0358 0.0960812 0)
(10.0365 0.107746 0)
(10.0369 0.120435 0)
(10.037 0.134378 0)
(10.037 0.149566 0)
(10.0372 0.165995 0)
(10.0382 0.18333 0)
(10.0394 0.201456 0)
(10.0418 0.219795 0)
(10.044 0.238406 0)
(10.0014 0.0124879 0)
(10.0018 0.022539 0)
(10.0049 0.0343884 0)
(10.01 0.045073 0)
(10.0154 0.0543867 0)
(10.0205 0.0633883 0)
(10.0248 0.0729415 0)
(10.0283 0.0833412 0)
(10.0311 0.0945579 0)
(10.0334 0.10665 0)
(10.0353 0.119675 0)
(10.037 0.133794 0)
(10.0389 0.149014 0)
(10.0409 0.165329 0)
(10.0435 0.182444 0)
(10.0464 0.200248 0)
(10.05 0.218284 0)
(10.0537 0.236624 0)
(10.0291 0.0154 0)
(10.0339 0.0230668 0)
(10.0386 0.0337164 0)
(10.0431 0.0439373 0)
(10.0474 0.0530391 0)
(10.0511 0.0620144 0)
(10.054 0.0717511 0)
(10.0561 0.0824667 0)
(10.0579 0.0939958 0)
(10.0597 0.10624 0)
(10.0619 0.119209 0)
(10.0644 0.133047 0)
(10.0674 0.147744 0)
(10.0706 0.163381 0)
(10.0742 0.17969 0)
(10.0782 0.196739 0)
(10.0827 0.214033 0)
(10.0872 0.231919 0)
(10.0077 0.00406308 0)
(10.0123 0.0188321 0)
(10.0166 0.0293122 0)
(10.02 0.0387113 0)
(10.0231 0.0483484 0)
(10.0265 0.0584636 0)
(10.0305 0.0688569 0)
(10.0349 0.079432 0)
(10.0396 0.0903123 0)
(10.0444 0.101799 0)
(10.0494 0.114123 0)
(10.0543 0.127517 0)
(10.0592 0.141927 0)
(10.0643 0.157374 0)
(10.0695 0.1735 0)
(10.0753 0.190345 0)
(10.0811 0.207353 0)
(10.0879 0.224891 0)
(10.0063 0.00964775 0)
(10.0063 0.0202595 0)
(10.008 0.0296675 0)
(10.0112 0.0389638 0)
(10.0153 0.0479177 0)
(10.0201 0.0566019 0)
(10.0251 0.0655164 0)
(10.0299 0.0752562 0)
(10.0344 0.0860831 0)
(10.0387 0.0980031 0)
(10.0429 0.110791 0)
(10.0475 0.124347 0)
(10.0524 0.138419 0)
(10.0578 0.153062 0)
(10.0637 0.16797 0)
(10.0703 0.183423 0)
(10.0773 0.198908 0)
(10.0851 0.21508 0)
(9.9975 0.00306755 0)
(9.99869 0.0127374 0)
(10.0015 0.0224722 0)
(10.0054 0.0315769 0)
(10.0098 0.0403401 0)
(10.0142 0.0494596 0)
(10.0184 0.0592547 0)
(10.0227 0.0695931 0)
(10.0274 0.0801998 0)
(10.0327 0.0910806 0)
(10.0389 0.102358 0)
(10.0459 0.114327 0)
(10.0535 0.126964 0)
(10.0618 0.140408 0)
(10.0705 0.154283 0)
(10.0796 0.16881 0)
(10.089 0.183353 0)
(10.0987 0.198579 0)
(9.99766 0.00928388 0)
(9.99915 0.0159204 0)
(10.002 0.0227414 0)
(10.0063 0.0299383 0)
(10.0117 0.0376309 0)
(10.0179 0.0457879 0)
(10.0246 0.0542592 0)
(10.0318 0.0629659 0)
(10.0393 0.0719391 0)
(10.047 0.0813461 0)
(10.0549 0.0912446 0)
(10.063 0.101774 0)
(10.0715 0.112861 0)
(10.0803 0.124651 0)
(10.0895 0.136881 0)
(10.0992 0.149773 0)
(10.1093 0.162771 0)
(10.1198 0.176397 0)
(10.0085 -0.00046842 0)
(10.014 0.00595634 0)
(10.02 0.0116891 0)
(10.0264 0.0172382 0)
(10.0332 0.0233714 0)
(10.0406 0.0302496 0)
(10.0484 0.0377788 0)
(10.0567 0.0458939 0)
(10.0653 0.0544837 0)
(10.0743 0.0635121 0)
(10.0837 0.0728897 0)
(10.0933 0.0826481 0)
(10.1033 0.092667 0)
(10.1136 0.103071 0)
(10.1243 0.113649 0)
(10.1353 0.124671 0)
(10.1466 0.13567 0)
(10.1584 0.14721 0)
(9.9963 -0.0067704 0)
(9.99639 0.000997661 0)
(9.99915 0.00618639 0)
(10.0045 0.0104361 0)
(10.0109 0.0153778 0)
(10.0177 0.0211077 0)
(10.025 0.0272287 0)
(10.0331 0.0335673 0)
(10.042 0.0401376 0)
(10.0516 0.0470721 0)
(10.0617 0.054394 0)
(10.0724 0.0621517 0)
(10.0836 0.0702256 0)
(10.0952 0.0787024 0)
(10.1072 0.0873953 0)
(10.1197 0.0965218 0)
(10.1325 0.105666 0)
(10.1459 0.115278 0)
(9.9946 0.000382198 0)
(9.99599 -0.000391761 0)
(10.0004 0.000921007 0)
(10.0083 0.00400149 0)
(10.0176 0.00799299 0)
(10.027 0.0122926 0)
(10.0366 0.0167088 0)
(10.0464 0.0213306 0)
(10.0565 0.0263669 0)
(10.0671 0.0319873 0)
(10.0781 0.038111 0)
(10.0894 0.0446377 0)
(10.1011 0.0513661 0)
(10.1131 0.0583268 0)
(10.1255 0.0653706 0)
(10.1383 0.0727175 0)
(10.1515 0.0800459 0)
(10.1651 0.0877762 0)
(10.017 -0.00474072 0)
(10.0199 -0.00892711 0)
(10.0256 -0.00846278 0)
(10.0336 -0.00613266 0)
(10.0428 -0.00314129 0)
(10.0525 0.00054119 0)
(10.0626 0.00475601 0)
(10.073 0.00922149 0)
(10.0838 0.0138174 0)
(10.095 0.0186366 0)
(10.1066 0.0237488 0)
(10.1184 0.0291942 0)
(10.1306 0.0348389 0)
(10.143 0.0406537 0)
(10.1558 0.0464339 0)
(10.169 0.0523097 0)
(10.1825 0.0580263 0)
(10.1964 0.0639766 0)
(9.9929 -0.00318761 0)
(9.99961 -0.00980956 0)
(10.0081 -0.0122558 0)
(10.0171 -0.0117341 0)
(10.0263 -0.00962588 0)
(10.0359 -0.00710708 0)
(10.0458 -0.00466637 0)
(10.0565 -0.0020975 0)
(10.0677 0.000952672 0)
(10.0795 0.00464094 0)
(10.0919 0.00885137 0)
(10.1046 0.0134018 0)
(10.1176 0.0180615 0)
(10.1309 0.0227853 0)
(10.1445 0.0274409 0)
(10.1584 0.0321725 0)
(10.1726 0.0367929 0)
(10.1869 0.0415934 0)
(10.022 -0.0136559 0)
(10.0291 -0.0163061 0)
(10.0388 -0.0192751 0)
(10.0497 -0.0198807 0)
(10.0607 -0.0181732 0)
(10.0713 -0.015573 0)
(10.0818 -0.012978 0)
(10.0926 -0.0104992 0)
(10.1038 -0.00789939 0)
(10.1158 -0.00495102 0)
(10.1284 -0.00161961 0)
(10.1414 0.00203776 0)
(10.1549 0.00584783 0)
(10.1686 0.00971319 0)
(10.1824 0.0134702 0)
(10.1963 0.0172145 0)
(10.2104 0.0208085 0)
(10.2247 0.0245334 0)
(9.98828 -0.015205 0)
(9.99232 -0.022325 0)
(10.0005 -0.0261954 0)
(10.0106 -0.0269016 0)
(10.0204 -0.0258169 0)
(10.0301 -0.0242491 0)
(10.0404 -0.0227696 0)
(10.0517 -0.0213857 0)
(10.064 -0.0199136 0)
(10.0771 -0.0181609 0)
(10.0907 -0.0160131 0)
(10.1048 -0.013418 0)
(10.1193 -0.0104854 0)
(10.1341 -0.00732454 0)
(10.149 -0.00415581 0)
(10.1639 -0.00101887 0)
(10.1789 0.00191654 0)
(10.1941 0.00481185 0)
(10.0014 -0.0129908 0)
(10.0109 -0.0254845 0)
(10.0233 -0.0284944 0)
(10.0361 -0.0279391 0)
(10.0481 -0.0271921 0)
(10.0597 -0.0269527 0)
(10.0718 -0.0267978 0)
(10.0844 -0.0263234 0)
(10.0973 -0.0254363 0)
(10.1101 -0.0241648 0)
(10.1228 -0.0225487 0)
(10.1357 -0.0205963 0)
(10.149 -0.0183834 0)
(10.1629 -0.0159684 0)
(10.1773 -0.0135224 0)
(10.1922 -0.0110931 0)
(10.2074 -0.00885349 0)
(10.2228 -0.00670869 0)
(9.97301 -0.0246429 0)
(9.9863 -0.0363405 0)
(10.0013 -0.0399377 0)
(10.0146 -0.0397986 0)
(10.0261 -0.0395084 0)
(10.0371 -0.0395665 0)
(10.0485 -0.0393663 0)
(10.0607 -0.0386534 0)
(10.0733 -0.0375644 0)
(10.0863 -0.0362754 0)
(10.0996 -0.0348897 0)
(10.1132 -0.0334436 0)
(10.1272 -0.031972 0)
(10.1415 -0.0304764 0)
(10.1562 -0.0289967 0)
(10.1711 -0.0274824 0)
(10.1862 -0.0259993 0)
(10.2014 -0.0244429 0)
(9.99923 -0.0234379 0)
(10.015 -0.0330116 0)
(10.0341 -0.0353309 0)
(10.0499 -0.0357131 0)
(10.0621 -0.0367516 0)
(10.0735 -0.0379436 0)
(10.0857 -0.038633 0)
(10.0989 -0.0388481 0)
(10.1128 -0.0387849 0)
(10.1268 -0.0385227 0)
(10.1409 -0.0380217 0)
(10.1551 -0.0372805 0)
(10.1695 -0.0363238 0)
(10.184 -0.0352462 0)
(10.1988 -0.0341076 0)
(10.2137 -0.0329975 0)
(10.2288 -0.0319392 0)
(10.2437 -0.0309764 0)
(10.0027 -0.0360853 0)
(10.0369 -0.0526737 0)
(10.0671 -0.0513377 0)
(10.0883 -0.0501455 0)
(10.1031 -0.0507355 0)
(10.1145 -0.0515147 0)
(10.1242 -0.051907 0)
(10.1324 -0.0519559 0)
(10.1388 -0.0517247 0)
(10.1438 -0.0512691 0)
(10.1475 -0.0506476 0)
(10.1507 -0.0499883 0)
(10.1535 -0.0493183 0)
(10.1566 -0.0486992 0)
(10.1594 -0.048037 0)
(10.1625 -0.0473767 0)
(10.1649 -0.0466253 0)
(10.1679 -0.0459126 0)
(9.91579 -0.0365301 0)
(9.74956 -0.0493936 0)
(9.58233 -0.0477018 0)
(9.41509 -0.0463883 0)
(9.25246 -0.0462141 0)
(9.09688 -0.0459634 0)
(8.94883 -0.0453371 0)
(8.80825 -0.0444369 0)
(8.675 -0.0433824 0)
(8.54918 -0.0422938 0)
(8.43043 -0.0412604 0)
(8.31863 -0.0403341 0)
(8.21291 -0.0394559 0)
(8.11352 -0.0385808 0)
(8.01921 -0.0376212 0)
(7.93134 -0.0366291 0)
(7.84739 -0.0355854 0)
(7.77068 -0.0346694 0)
(-0.204498 0.432238 -1.42443e-21)
(-0.452843 0.209406 1.43992e-21)
(-0.574242 0.0159146 0)
(-0.56332 -0.153138 0)
(-0.367814 -0.330109 0)
(-0.0437838 -0.464651 -1.36962e-21)
(0.399182 -0.552526 0)
(0.906781 -0.582098 0)
(1.43474 -0.574302 0)
(1.944 -0.5345 0)
(2.41716 -0.472284 1.47587e-21)
(2.83665 -0.396264 0)
(3.1894 -0.312804 0)
(3.467 -0.226519 0)
(3.66523 -0.13991 0)
(3.78325 -0.0547323 2.03515e-21)
(3.82064 0.0285803 0)
(3.77905 0.10922 0)
(3.6579 0.187655 0)
(3.46235 0.261626 0)
(3.1901 0.331067 0)
(2.85791 0.388216 0)
(2.45762 0.436456 0)
(2.0259 0.448245 1.74574e-21)
(1.54258 0.470015 -1.67949e-21)
(1.06067 0.406944 1.63385e-21)
(0.593632 0.277298 1.61306e-21)
(0.136531 0.0784537 0)
(-0.216061 -0.049704 0)
(-0.580094 0.113741 -1.66889e-21)
(-0.989467 0.212255 -1.72833e-21)
(-1.43587 0.231655 0)
(-1.88627 0.226315 0)
(-2.27668 0.179259 -1.99392e-21)
(-2.56336 0.0952047 0)
(-2.741 -0.00566457 0)
(-2.78606 -0.106975 2.1316e-21)
(-2.72413 -0.16878 0)
(-2.61563 -0.15893 2.22389e-21)
(-2.55776 -0.0689813 4.65363e-21)
(-2.61288 0.0401911 0)
(-2.79039 0.134245 0)
(-3.09964 0.209 0)
(-3.47303 0.209976 0)
(-3.8046 0.20044 0)
(-4.15817 0.188924 5.43505e-21)
(-4.48868 -0.0471766 5.54708e-21)
(-4.86391 -0.11607 5.70548e-21)
(-5.25399 0.273631 0)
(-5.93634 0.495688 -5.85922e-21)
(-6.53037 0.468749 0)
(-7.06867 0.439208 6.23141e-21)
(-7.54088 0.374641 6.49395e-21)
(-7.9337 0.316664 0)
(-8.26742 0.261617 0)
(-8.53905 0.214672 0)
(-8.76287 0.173438 7.52639e-21)
(-8.93994 0.1383 0)
(-9.07904 0.107755 0)
(-9.18206 0.0811904 0)
(-9.254 0.0576027 0)
(-9.29637 0.0363919 0)
(-9.31181 0.0169812 0)
(-9.30125 -0.000960453 0)
(-9.26604 -0.0176436 0)
(-9.20675 -0.0331029 -7.86054e-21)
(-9.12426 -0.0473225 0)
(-9.01944 -0.0602265 0)
(-8.89433 -0.0718524 7.24949e-21)
(-8.75004 -0.0822758 6.97032e-21)
(-8.58793 -0.0915681 0)
(-8.40985 -0.0997438 -6.31779e-21)
(-8.21728 -0.106826 5.95343e-21)
(-8.01198 -0.112782 0)
(-7.79569 -0.117633 -5.17361e-21)
(-7.57024 -0.121391 0)
(-7.33733 -0.124131 0)
(-7.09857 -0.12601 3.94948e-21)
(-6.85514 -0.127301 0)
(-6.60769 -0.128291 -3.14214e-21)
(-6.35647 -0.129255 0)
(-6.10107 -0.130519 2.36163e-21)
(-5.84062 -0.132375 1.98279e-21)
(-5.57377 -0.135021 1.6111e-21)
(-5.29882 -0.138553 2.49152e-21)
(-5.01388 -0.143026 -1.77176e-21)
(-4.71713 -0.1483 0)
(-4.40694 -0.154141 0)
(-4.08214 -0.160223 0)
(-3.74236 -0.166114 1.01015e-21)
(-3.38834 -0.171432 1.67294e-21)
(-3.02161 -0.175698 -2.31245e-21)
(-2.64482 -0.178454 0)
(-2.26129 -0.179396 3.48682e-21)
(-1.87495 -0.178331 4.00363e-21)
(-1.48977 -0.17529 4.46359e-21)
(-1.10939 -0.170481 0)
(-0.73688 -0.164258 0)
(-0.374785 -0.156999 0)
(-0.0249612 -0.149085 5.69708e-21)
(0.311025 -0.141251 0)
(0.63216 -0.13296 0)
(0.938327 -0.124691 -6.07631e-21)
(1.22905 -0.116363 0)
(1.50424 -0.108133 0)
(1.76383 -0.0999811 -6.15427e-21)
(2.00783 -0.0920211 0)
(2.2363 -0.0843074 0)
(2.44938 -0.0769527 6.05236e-21)
(2.64751 -0.0699147 5.99282e-21)
(2.83135 -0.0632398 0)
(3.00152 -0.0569239 -5.84915e-21)
(3.15865 -0.0509845 0)
(3.30336 -0.0454039 5.68382e-21)
(3.43625 -0.0401621 0)
(3.55786 -0.0352245 5.50699e-21)
(3.66866 -0.0305558 5.41646e-21)
(3.76908 -0.0261219 0)
(3.85945 -0.0218956 0)
(3.94009 -0.0178606 0)
(4.0113 -0.0140073 0)
(4.07332 -0.0103295 0)
(4.12646 -0.00682842 0)
(4.171 -0.0035085 0)
(4.20729 -0.000375854 4.71896e-21)
(4.23567 0.00256335 -4.64212e-21)
(4.25656 0.00530698 0)
(4.27033 0.00785711 0)
(4.27742 0.0102093 0)
(4.27822 0.0123656 0)
(4.27314 0.0143425 -8.62239e-21)
(4.26251 0.0161684 0)
(4.24662 0.0178326 8.40668e-21)
(4.2258 0.0192747 -8.30813e-21)
(4.20047 0.0204806 0)
(4.17107 0.0215521 0)
(4.13793 0.0225479 0)
(4.1014 0.0232986 7.96517e-21)
(4.06212 0.0235314 7.88981e-21)
(4.02101 0.0231507 0)
(3.97906 0.0223717 7.7487e-21)
(3.937 0.0215697 7.68247e-21)
(3.89516 0.0209653 -7.6188e-21)
(3.85365 0.0204663 0)
(3.81259 0.0198207 0)
(3.77227 0.0188987 -7.44025e-21)
(3.73302 0.0178192 0)
(3.69494 0.016845 0)
(3.65788 0.0161951 0)
(3.62144 0.0159285 0)
(3.58522 0.0159504 7.17527e-21)
(3.54887 0.0160851 7.12546e-21)
(3.51224 0.016159 0)
(3.47536 0.0160562 7.02763e-21)
(3.43842 0.015711 0)
(3.40177 0.0150637 0)
(3.36592 0.0140485 6.88524e-21)
(3.33154 0.012657 0)
(3.29932 0.0110047 6.79389e-21)
(3.2698 0.00930973 0)
(3.24311 0.00778229 0)
(3.2192 0.00653864 6.66477e-21)
(3.19753 0.00558502 0)
(3.1779 0.00486273 6.58405e-21)
(3.15959 0.00431831 0)
(3.14276 0.00391354 0)
(3.12638 0.00368641 0)
(3.1111 0.00360581 -6.43457e-21)
(3.09503 0.00380526 0)
(3.07956 0.00409206 6.36747e-21)
(3.06142 0.00487783 0)
(3.04293 0.00547568 0)
(3.01954 0.00727885 0)
(2.9927 0.00800062 0)
(2.9605 0.0122209 0)
(2.91217 0.0124174 0)
(2.86969 0.0235615 0)
(2.75982 0.0208148 -1.24704e-20)
(2.7206 0.0554177 0)
(2.40761 0.0448316 0)
(0.0075577 0.821018 4.35199e-21)
(0.067724 0.491616 -4.38019e-21)
(0.0944171 0.154754 0)
(0.307917 -0.253007 2.99118e-21)
(0.667981 -0.760079 0)
(1.14481 -1.17898 1.36519e-21)
(1.65406 -1.44783 -2.98318e-21)
(2.15254 -1.56708 -3.04764e-21)
(2.6174 -1.56426 0)
(3.03722 -1.46981 -3.38021e-21)
(3.40375 -1.31285 -1.47015e-21)
(3.71164 -1.11728 0)
(3.95736 -0.90086 0)
(4.1412 -0.675386 0)
(4.26441 -0.448749 0)
(4.32913 -0.225627 -2.02978e-21)
(4.33718 -0.00961912 0)
(4.29227 0.197587 4.71686e-21)
(4.19618 0.393434 0)
(4.05157 0.578547 0)
(3.86006 0.747794 -4.43589e-21)
(3.6224 0.901852 0)
(3.34882 1.02496 4.09787e-21)
(3.03427 1.13212 -1.73699e-21)
(2.70492 1.17923 1.67014e-21)
(2.31999 1.18241 -1.62398e-21)
(1.8453 1.25404 -1.60275e-21)
(1.25924 1.29935 0)
(0.572559 1.25235 0)
(-0.183752 1.17614 1.66226e-21)
(-0.855605 1.15269 -2.03931e-21)
(-1.43044 1.13949 0)
(-1.96355 1.04833 0)
(-2.3914 0.850233 1.99083e-21)
(-2.72891 0.584176 0)
(-2.97121 0.282288 0)
(-3.10363 -0.0461962 -2.12555e-21)
(-3.1747 -0.267669 0)
(-3.24832 -0.250113 2.84327e-21)
(-3.36587 -0.00992533 -4.64132e-21)
(-3.55299 0.284356 0)
(-3.80935 0.594095 0)
(-4.1248 0.772983 -1.10969e-20)
(-4.55893 0.764251 -1.11829e-20)
(-5.08317 0.793203 -1.13699e-20)
(-5.55198 0.827786 6.13827e-21)
(-6.19642 1.03793 -5.53335e-21)
(-6.9366 1.20123 -1.7906e-20)
(-7.41338 1.23258 1.25309e-20)
(-7.8767 1.19392 5.84215e-21)
(-8.21155 1.05293 0)
(-8.50869 0.923885 -6.21494e-21)
(-8.74302 0.774098 7.49562e-21)
(-8.93642 0.644969 0)
(-9.08896 0.523961 0)
(-9.20822 0.421395 0)
(-9.29816 0.330722 -7.51368e-21)
(-9.36244 0.253253 0)
(-9.40417 0.184961 1.61923e-20)
(-9.42522 0.124923 0)
(-9.42735 0.0706775 1.64995e-20)
(-9.41139 0.0211704 0)
(-9.37804 -0.024985 -1.6529e-20)
(-9.32748 -0.0684652 0)
(-9.25985 -0.109873 1.62546e-20)
(-9.17503 -0.149396 -8.13691e-21)
(-9.07297 -0.187093 0)
(-8.95351 -0.222768 -1.52349e-20)
(-8.81585 -0.256157 -7.25005e-21)
(-8.66032 -0.286979 -6.97093e-21)
(-8.48774 -0.314912 0)
(-8.29884 -0.339689 -6.50238e-21)
(-8.09532 -0.361081 -5.95384e-21)
(-7.87895 -0.37896 0)
(-7.65177 -0.393347 5.17409e-21)
(-7.4158 -0.404382 -9.65431e-21)
(-7.17302 -0.412401 0)
(-6.92497 -0.417956 -3.95005e-21)
(-6.67285 -0.421769 0)
(-6.41736 -0.424697 9.50876e-21)
(-6.15864 -0.427594 0)
(-5.89629 -0.431349 -7.16874e-21)
(-5.62934 -0.436756 -1.98324e-21)
(-5.35637 -0.44444 1.70592e-21)
(-5.07557 -0.454744 2.69707e-21)
(-4.78493 -0.467758 -1.9934e-21)
(-4.48248 -0.483166 0)
(-4.16653 -0.500319 0)
(-3.83581 -0.518288 0)
(-3.4898 -0.535889 -2.77477e-21)
(-3.12885 -0.55177 -1.67168e-21)
(-2.75476 -0.564472 2.31112e-21)
(-2.37034 -0.572666 0)
(-1.97939 -0.575401 3.28854e-21)
(-1.58617 -0.572198 -4.00192e-21)
(-1.19499 -0.563152 -4.46174e-21)
(-0.809596 -0.548933 0)
(-0.433007 -0.530594 0)
(-0.067569 -0.509363 0)
(0.284994 -0.486528 -5.69423e-21)
(0.623656 -0.462928 0)
(0.947912 -0.438799 1.18691e-20)
(1.25768 -0.414614 1.81182e-20)
(1.55271 -0.390409 -1.21569e-20)
(1.83295 -0.366393 0)
(2.09833 -0.34261 -6.07115e-21)
(2.34888 -0.319296 0)
(2.58461 -0.296689 -1.21274e-20)
(2.80571 -0.275025 5.98767e-21)
(3.01271 -0.254278 5.93355e-21)
(3.20624 -0.234544 0)
(3.38694 -0.215901 1.74901e-20)
(3.55546 -0.198358 -1.14878e-20)
(3.71243 -0.181869 -5.68006e-21)
(3.85847 -0.166359 0)
(3.99411 -0.151726 -5.50338e-21)
(4.11985 -0.13787 -1.62113e-20)
(4.2361 -0.124696 0)
(4.34324 -0.112132 -1.04398e-20)
(4.44158 -0.100124 -1.02613e-20)
(4.53143 -0.0886428 -1.00849e-20)
(4.61311 -0.0776775 0)
(4.68693 -0.0672367 0)
(4.75325 -0.0573373 0)
(4.81242 -0.0479998 4.70287e-21)
(4.86482 -0.0392429 4.63868e-21)
(4.91085 -0.0310772 0)
(4.95092 -0.0235025 8.98087e-21)
(4.98542 -0.0165035 8.84922e-21)
(5.01477 -0.010045 0)
(5.03932 -0.00407554 8.61499e-21)
(5.05943 0.00146326 1.69938e-20)
(5.07537 0.00660407 -8.39902e-21)
(5.08735 0.0113272 -8.289e-21)
(5.09547 0.0155852 0)
(5.10001 0.0193696 0)
(5.10156 0.0226987 0)
(5.1007 0.0255516 -7.95665e-21)
(5.09757 0.0278628 7.87462e-21)
(5.09194 0.029532 1.56123e-20)
(5.08351 0.0304768 -7.7398e-21)
(5.07239 0.0307392 7.66953e-21)
(5.05934 0.0305015 7.60974e-21)
(5.04553 0.030002 0)
(5.03187 0.0293974 0)
(5.01864 0.0287197 -7.42936e-21)
(5.0056 0.0279637 0)
(4.99235 0.0271675 0)
(4.97865 0.0264009 1.4535e-20)
(4.96464 0.0257301 0)
(4.95074 0.02521 7.16487e-21)
(4.93749 0.0248594 -7.116e-21)
(4.92529 0.0246391 0)
(4.91424 0.0244635 7.01737e-21)
(4.90423 0.0242308 0)
(4.89502 0.0238421 0)
(4.88629 0.0231988 -6.87561e-21)
(4.87773 0.0222182 1.36595e-20)
(4.86908 0.0208754 -6.78425e-21)
(4.86026 0.019243 0)
(4.85124 0.0174948 0)
(4.84215 0.0158156 6.65637e-21)
(4.83304 0.0143425 0)
(4.82399 0.0130957 6.5754e-21)
(4.81487 0.012099 0)
(4.80568 0.0112602 0)
(4.79623 0.0106979 0)
(4.78655 0.010235 6.42556e-21)
(4.77647 0.0102998 0)
(4.76588 0.0103487 -6.35864e-21)
(4.75479 0.0115557 0)
(4.74202 0.0122123 0)
(4.72896 0.01559 1.25419e-20)
(4.71044 0.0167198 -1.24954e-20)
(4.69408 0.0248226 0)
(4.66081 0.0258122 0)
(4.6411 0.0457722 0)
(4.5696 0.0455952 3.72907e-20)
(4.55444 0.0999925 0)
(4.38414 0.103327 -2.49203e-20)
(0.0797664 0.420755 -3.68637e-23)
(0.198432 0.193089 5.81003e-21)
(0.515682 -0.391726 0)
(1.05673 -1.19874 -5.97677e-21)
(1.64572 -1.89473 0)
(2.18002 -2.34934 0)
(2.62861 -2.55663 -5.30143e-22)
(2.9933 -2.56053 3.03571e-21)
(3.28634 -2.41681 3.96704e-21)
(3.51862 -2.1761 3.37127e-21)
(3.6979 -1.8781 0)
(3.8302 -1.55092 0)
(3.92049 -1.21337 -4.97298e-21)
(3.9721 -0.87726 -1.03137e-20)
(3.98686 -0.549777 1.05851e-20)
(3.96588 -0.234824 0)
(3.911 0.0648576 1.08069e-20)
(3.82427 0.347733 -4.71876e-21)
(3.70882 0.61253 0)
(3.56825 0.858664 1.03723e-20)
(3.40767 1.08432 4.43557e-21)
(3.22447 1.28225 -9.7255e-21)
(3.02424 1.45713 -4.09461e-21)
(2.80897 1.57088 0)
(2.56313 1.67351 8.63338e-21)
(2.21411 1.87605 8.33553e-21)
(1.81342 2.07272 0)
(1.34454 2.26811 7.94255e-21)
(0.814897 2.39889 0)
(0.240185 2.4169 7.9484e-21)
(-0.363028 2.3092 3.74329e-21)
(-0.920412 2.11698 0)
(-1.4314 1.85629 0)
(-1.86031 1.50474 0)
(-2.25227 1.10986 0)
(-2.55896 0.67151 0)
(-2.83165 0.280669 0)
(-3.07457 0.0574804 1.0652e-20)
(-3.36599 0.120567 -1.61343e-20)
(-3.73369 0.40518 0)
(-4.11855 0.743961 0)
(-4.59743 1.04023 0)
(-5.01612 1.39814 -1.03885e-21)
(-5.59342 1.6181 1.11731e-20)
(-6.14888 1.69838 2.38162e-20)
(-6.68864 1.80312 -2.42842e-20)
(-7.19741 1.86976 -1.30478e-20)
(-7.60981 1.81918 1.22054e-20)
(-7.87446 1.71283 1.26943e-21)
(-8.09689 1.56023 1.41457e-20)
(-8.23807 1.3646 0)
(-8.37029 1.17378 1.4843e-20)
(-8.46783 0.979953 1.21129e-21)
(-8.562 0.809891 0)
(-8.6387 0.654744 0)
(-8.70886 0.522231 -1.61407e-20)
(-8.76544 0.405181 0)
(-8.81185 0.303946 0)
(-8.84458 0.213627 1.74281e-20)
(-8.86442 0.132819 3.39046e-20)
(-8.86946 0.0585166 -1.65158e-20)
(-8.85958 -0.0106091 0)
(-8.8336 -0.0762807 1.65463e-20)
(-8.79102 -0.139372 0)
(-8.73089 -0.200686 1.71231e-20)
(-8.65259 -0.260503 1.60152e-20)
(-8.55538 -0.318857 -3.21439e-20)
(-8.43886 -0.375371 -1.60143e-20)
(-8.30297 -0.429352 0)
(-8.1482 -0.47997 2.90355e-20)
(-7.97556 -0.526333 0)
(-7.78649 -0.567647 3.9087e-20)
(-7.58276 -0.603265 2.47017e-20)
(-7.36639 -0.632807 2.30761e-20)
(-7.13955 -0.656214 -2.13992e-20)
(-6.90448 -0.673766 2.93596e-20)
(-6.66347 -0.686124 0)
(-6.41855 -0.694238 0)
(-6.1713 -0.699344 -1.46212e-20)
(-5.92269 -0.702905 -1.93666e-20)
(-5.67303 -0.706478 0)
(-5.42196 -0.711608 4.81198e-21)
(-5.1684 -0.719677 0)
(-4.91066 -0.731792 -1.02557e-20)
(-4.6465 -0.748615 3.18991e-22)
(-4.37341 -0.770276 -3.47005e-22)
(-4.08871 -0.796302 2.73749e-21)
(-3.78995 -0.82561 0)
(-3.4751 -0.856575 -2.59471e-24)
(-3.1429 -0.887061 4.10849e-22)
(-2.79331 -0.914568 0)
(-2.42786 -0.936424 0)
(-2.04972 -0.950247 0)
(-1.66345 -0.954362 -6.77259e-21)
(-1.27443 -0.948093 0)
(-0.888104 -0.931702 0)
(-0.509019 -0.906381 0)
(-0.140504 -0.874036 0)
(0.214938 -0.83724 0)
(0.555885 -0.797913 -1.10726e-20)
(0.881928 -0.757584 0)
(1.19297 -0.716986 -1.18631e-20)
(1.48936 -0.67665 -1.20398e-20)
(1.77118 -0.636714 1.21511e-20)
(2.03867 -0.59741 0)
(2.2918 -0.558697 1.22163e-20)
(2.53065 -0.520847 0)
(2.75522 -0.484248 1.21227e-20)
(2.96572 -0.448937 -1.20315e-20)
(3.1627 -0.415154 -3.55691e-20)
(3.3467 -0.38311 0)
(3.51834 -0.352912 -3.47681e-20)
(3.67828 -0.324567 -1.1346e-20)
(3.8272 -0.297992 0)
(3.96569 -0.273042 -2.21837e-20)
(4.09428 -0.249547 -2.1845e-20)
(4.21344 -0.227335 3.22954e-20)
(4.32355 -0.206259 0)
(4.42495 -0.186203 1.04374e-20)
(4.51793 -0.167092 1.02592e-20)
(4.60281 -0.148883 3.01891e-20)
(4.67987 -0.131567 0)
(4.74947 -0.11516 0)
(4.81202 -0.0996896 0)
(4.86796 -0.0851762 9.37621e-21)
(4.91776 -0.07163 0)
(4.96189 -0.0590547 0)
(5.0008 -0.0474443 -8.97999e-21)
(5.0349 -0.0367781 -8.8484e-21)
(5.06456 -0.0270171 0)
(5.09013 -0.0180826 0)
(5.11198 -0.00986564 -1.69923e-20)
(5.13039 -0.00225842 0)
(5.14549 0.00479557 1.65879e-20)
(5.15721 0.0112254 1.63877e-20)
(5.16549 0.0168346 0)
(5.17065 0.0214923 0)
(5.17347 0.0253134 -1.58938e-20)
(5.17479 0.0285869 -9.35747e-24)
(5.17485 0.0315235 -8.16899e-24)
(5.17319 0.0340801 0)
(5.16912 0.0359642 -3.06762e-20)
(5.16249 0.0368366 0)
(5.15402 0.0365967 0)
(5.14496 0.0355205 0)
(5.13634 0.0341161 1.48583e-20)
(5.12851 0.0328651 0)
(5.12117 0.0320287 -2.92728e-20)
(5.11377 0.0315633 -1.45328e-20)
(5.10591 0.031194 0)
(5.09762 0.0306145 -1.43284e-20)
(5.08938 0.0296726 0)
(5.08193 0.028418 0)
(5.07594 0.0270048 -4.20976e-20)
(5.07174 0.0255681 2.78732e-20)
(5.06928 0.0241641 0)
(5.06822 0.0227718 2.74984e-20)
(5.06801 0.021327 -1.36569e-20)
(5.06809 0.0197853 0)
(5.068 0.0181665 0)
(5.06747 0.0165847 0)
(5.0664 0.0151502 -3.99288e-20)
(5.06485 0.0139677 0)
(5.06283 0.0130276 -1.31471e-20)
(5.06044 0.0123871 0)
(5.0575 0.0119227 0)
(5.05406 0.0118025 0)
(5.04973 0.0117474 0)
(5.04489 0.0122838 0)
(5.03876 0.0127069 0)
(5.03253 0.0144396 -2.52926e-20)
(5.02426 0.0155685 0)
(5.01676 0.0197698 -1.25387e-20)
(5.00502 0.0219316 3.7457e-20)
(4.99582 0.0314759 0)
(4.97689 0.0352217 0)
(4.96509 0.0572588 -2.47721e-20)
(4.93181 0.0652179 -2.48302e-20)
(4.91862 0.119318 2.47414e-20)
(4.86571 0.144778 2.49099e-20)
(-0.0669268 0.143732 -8.68379e-21)
(0.31356 -0.519665 -8.68976e-21)
(1.01638 -1.73767 -6.03789e-21)
(1.67402 -2.64788 -3.47549e-21)
(2.19547 -3.15144 0)
(2.56292 -3.313 7.65456e-21)
(2.79966 -3.22871 -4.7984e-21)
(2.94239 -2.98551 0)
(3.02423 -2.65101 -3.96695e-21)
(3.06995 -2.27255 0)
(3.09518 -1.87886 1.06019e-20)
(3.10736 -1.48505 0)
(3.10795 -1.09813 4.9823e-21)
(3.0942 -0.722082 1.03345e-20)
(3.06232 -0.35978 -1.06071e-20)
(3.00902 -0.0138534 0)
(2.93408 0.31309 -1.08292e-20)
(2.83762 0.61921 0)
(2.72176 0.904348 0)
(2.58943 1.16814 -1.03911e-20)
(2.44744 1.41112 0)
(2.2932 1.62968 -1.08096e-21)
(2.14082 1.79848 0)
(1.9524 1.98174 0)
(1.69928 2.23779 1.09739e-21)
(1.41236 2.50513 -8.33393e-21)
(1.09843 2.76871 -9.16879e-21)
(0.770864 2.99279 -7.931e-21)
(0.431444 3.14096 0)
(0.0781096 3.1936 -1.66861e-20)
(-0.314417 3.12489 0)
(-0.728851 2.9335 -8.87089e-21)
(-1.16048 2.64285 0)
(-1.57906 2.26059 0)
(-2.00584 1.81383 9.59187e-21)
(-2.40647 1.30456 0)
(-2.82937 0.896428 -1.03426e-20)
(-3.2689 0.723331 2.25082e-22)
(-3.77383 0.881364 2.25519e-20)
(-4.32708 1.25503 -2.40938e-20)
(-4.88287 1.67887 0)
(-5.40951 1.98613 0)
(-5.86908 2.24247 -1.42167e-20)
(-6.31438 2.36911 0)
(-6.71909 2.42215 -1.24494e-20)
(-7.08107 2.42596 1.2733e-20)
(-7.34269 2.31747 1.30461e-20)
(-7.52233 2.14088 0)
(-7.64425 1.94336 -1.37984e-20)
(-7.74127 1.72417 -1.41542e-20)
(-7.80968 1.5019 3.17259e-20)
(-7.87846 1.28933 -1.48545e-20)
(-7.93413 1.08804 -1.5201e-20)
(-7.99399 0.907687 0)
(-8.04612 0.743702 0)
(-8.09801 0.599129 1.6156e-20)
(-8.142 0.468848 0)
(-8.18059 0.352314 0)
(-8.20922 0.24549 -3.36695e-20)
(-8.22821 0.146859 -3.39401e-20)
(-8.23474 0.0537281 0)
(-8.22831 -0.0352246 0)
(-8.20702 -0.121597 0)
(-8.16998 -0.206206 0)
(-8.11561 -0.289721 -3.34353e-20)
(-8.04283 -0.372187 3.39622e-20)
(-7.95029 -0.453327 3.21849e-20)
(-7.8371 -0.532458 6.36116e-20)
(-7.70276 -0.608568 0)
(-7.54749 -0.680295 8.9948e-22)
(-7.37211 -0.746165 0)
(-7.17817 -0.804768 -2.62857e-20)
(-6.96779 -0.855096 6.92242e-22)
(-6.74356 -0.896489 -2.31065e-20)
(-6.50839 -0.928749 2.14285e-20)
(-6.26537 -0.95213 4.66567e-22)
(-6.01766 -0.967393 0)
(-5.76807 -0.975859 1.66647e-20)
(-5.51898 -0.979411 1.46439e-20)
(-5.272 -0.980369 2.63214e-20)
(-5.02789 -0.981228 0)
(-4.78657 -0.984452 -1.01892e-20)
(-4.547 -0.992269 0)
(-4.3073 -1.00647 1.42443e-20)
(-4.06487 -1.02819 -5.52498e-21)
(-3.81663 -1.05778 4.12658e-21)
(-3.55921 -1.09467 -2.74428e-21)
(-3.28922 -1.13738 -3.75888e-21)
(-3.00348 -1.18349 6.63421e-24)
(-2.69946 -1.22974 1.34984e-21)
(-2.37577 -1.27221 0)
(-2.03267 -1.30669 -6.95526e-21)
(-1.67274 -1.32908 0)
(-1.3007 -1.33633 -1.1998e-20)
(-0.922905 -1.32729 1.42627e-20)
(-0.546638 -1.30279 1.62838e-20)