/*--------------------------------*- C++ -*----------------------------------*\
  =========                 |
  \\      /  F ield         | OpenFOAM: The Open Source CFD Toolbox
   \\    /   O peration     | Website:  https://openfoam.org
    \\  /    A nd           | Version:  9
     \\/     M anipulation  |
\*---------------------------------------------------------------------------*/
FoamFile
{
    format      ascii;
    class       volSymmTensorField;
    location    "0.044";
    object      UPrime2Mean;
}
// * * * * * * * * * * * * * * * * * * * * * * * * * * * * * * * * * * * * * //

dimensions      [0 2 -2 0 0 0 0];

internalField   nonuniform List<symmTensor> 
12225
(
(-48.3981 -0.23289 0 0.000977186 0 0)
(-45.5212 -0.295831 0 -0.000942396 0 0)
(-42.7012 -0.274628 0 -0.00109671 0 0)
(-39.9292 -0.260122 0 -0.00116033 0 0)
(-37.2637 -0.251471 0 -0.00124152 0 0)
(-34.7266 -0.242587 0 -0.00129025 0 0)
(-32.3284 -0.232704 0 -0.00129775 0 0)
(-30.0479 -0.222767 0 -0.00128954 0 0)
(-27.8957 -0.21449 0 -0.00125988 0 0)
(-25.8029 -0.209139 0 -0.00127903 0 0)
(-23.8208 -0.208182 0 -0.00124073 0 0)
(-21.7699 -0.213682 0 -0.00141232 0 0)
(-19.8265 -0.224333 0 -0.00109963 0 0)
(-17.5743 -0.250069 0 -0.00170009 0 0)
(-15.469 -0.285335 0 0.000602738 0 0)
(-12.5578 -0.354048 0 -0.00227448 0 0)
(-9.89624 -0.468978 0 0.0160181 0 0)
(-5.06396 -0.634263 0 0.000140087 0 0)
(-50.3376 -0.253401 0 0.00125802 0 0)
(-50.937 -0.37165 0 -0.00142629 0 0)
(-51.318 -0.374424 0 -0.0018602 0 0)
(-51.4396 -0.383994 0 -0.00214327 0 0)
(-51.388 -0.405155 0 -0.00254594 0 0)
(-51.2079 -0.427747 0 -0.00295413 0 0)
(-50.9344 -0.449878 0 -0.00335916 0 0)
(-50.5378 -0.468608 0 -0.00363059 0 0)
(-50.0579 -0.491496 0 -0.00397263 0 0)
(-49.4302 -0.512075 0 -0.00404037 0 0)
(-48.7495 -0.550881 0 -0.00454681 0 0)
(-47.8558 -0.587135 0 -0.00425074 0 0)
(-46.957 -0.666313 0 -0.00514367 0 0)
(-45.6629 -0.737297 0 -0.00324871 0 0)
(-44.4648 -0.89776 0 -0.0036909 0 0)
(-42.4417 -1.04732 0 0.00579349 0 0)
(-40.7591 -1.336 0 0.0180707 0 0)
(-37.2506 -1.64357 0 0.0773006 0 0)
(-49.8759 -0.16426 0 0.00277849 0 0)
(-50.1852 -0.264002 0 0.000402426 0 0)
(-50.4738 -0.287167 0 -0.000399915 0 0)
(-50.6417 -0.304136 0 -0.000761198 0 0)
(-50.7323 -0.333305 0 -0.00117055 0 0)
(-50.7848 -0.365957 0 -0.00162117 0 0)
(-50.8266 -0.39855 0 -0.00204455 0 0)
(-50.8288 -0.430383 0 -0.00240767 0 0)
(-50.8066 -0.467445 0 -0.00270019 0 0)
(-50.7132 -0.509719 0 -0.0029639 0 0)
(-50.6034 -0.564782 0 -0.00295667 0 0)
(-50.3978 -0.634558 0 -0.00294637 0 0)
(-50.2066 -0.729022 0 -0.0016766 0 0)
(-49.8729 -0.859552 0 -8.47656e-05 0 0)
(-49.6159 -1.03255 0 0.00713247 0 0)
(-49.1515 -1.28004 0 0.0188018 0 0)
(-48.8676 -1.56196 0 0.0568932 0 0)
(-48.2736 -1.92559 0 0.134747 0 0)
(-50.2523 -0.158682 0 0.002807 0 0)
(-50.5076 -0.283953 0 0.00022547 0 0)
(-50.705 -0.321077 0 -0.000756366 0 0)
(-50.8077 -0.335573 0 -0.00109174 0 0)
(-50.8511 -0.361254 0 -0.00144738 0 0)
(-50.8626 -0.394594 0 -0.00185493 0 0)
(-50.8562 -0.430421 0 -0.00227179 0 0)
(-50.8226 -0.46468 0 -0.00253762 0 0)
(-50.7646 -0.504282 0 -0.00273197 0 0)
(-50.6678 -0.548198 0 -0.00264292 0 0)
(-50.5485 -0.608586 0 -0.00244209 0 0)
(-50.3892 -0.681578 0 -0.00153326 0 0)
(-50.2219 -0.785395 0 0.000220991 0 0)
(-50.024 -0.917111 0 0.00445721 0 0)
(-49.8556 -1.09678 0 0.0134643 0 0)
(-49.707 -1.32472 0 0.0331273 0 0)
(-49.6578 -1.58705 0 0.075871 0 0)
(-49.705 -1.87506 0 0.160134 0 0)
(-50.177 -0.0960515 0 0.00416096 0 0)
(-50.4014 -0.242562 0 0.00148978 0 0)
(-50.6005 -0.287275 0 0.000187707 0 0)
(-50.7309 -0.306164 0 -0.000199825 0 0)
(-50.7878 -0.335568 0 -0.00047406 0 0)
(-50.7937 -0.374515 0 -0.000810201 0 0)
(-50.7723 -0.416698 0 -0.0011575 0 0)
(-50.7296 -0.459137 0 -0.00139024 0 0)
(-50.6625 -0.505719 0 -0.00141415 0 0)
(-50.5661 -0.559355 0 -0.00114455 0 0)
(-50.4401 -0.626732 0 -0.000401142 0 0)
(-50.2898 -0.710294 0 0.00118969 0 0)
(-50.1231 -0.817581 0 0.00451736 0 0)
(-49.9574 -0.953091 0 0.0112097 0 0)
(-49.8076 -1.12279 0 0.0243726 0 0)
(-49.7104 -1.32934 0 0.0504302 0 0)
(-49.6769 -1.5553 0 0.0986295 0 0)
(-49.7417 -1.78227 0 0.187444 0 0)
(-49.939 -0.0833799 0 0.00489777 0 0)
(-50.0505 -0.231776 0 0.0017676 0 0)
(-50.1934 -0.28029 0 0.000343146 0 0)
(-50.3119 -0.304278 0 -0.000129407 0 0)
(-50.3834 -0.337226 0 -0.000492413 0 0)
(-50.4162 -0.37989 0 -0.000872329 0 0)
(-50.423 -0.426228 0 -0.00119543 0 0)
(-50.4062 -0.473301 0 -0.00131643 0 0)
(-50.361 -0.524656 0 -0.00114797 0 0)
(-50.2881 -0.582791 0 -0.000484365 0 0)
(-50.1902 -0.653071 0 0.000939711 0 0)
(-50.0777 -0.73958 0 0.00365903 0 0)
(-49.9551 -0.84724 0 0.00867457 0 0)
(-49.8384 -0.980559 0 0.0179134 0 0)
(-49.7331 -1.1407 0 0.0345551 0 0)
(-49.6677 -1.32649 0 0.0647369 0 0)
(-49.6413 -1.52265 0 0.116306 0 0)
(-49.6826 -1.71302 0 0.203862 0 0)
(-49.7669 -0.0734864 0 0.0049129 0 0)
(-49.8234 -0.200802 0 0.00281073 0 0)
(-49.9314 -0.26019 0 0.00145255 0 0)
(-50.0326 -0.290642 0 0.000981804 0 0)
(-50.084 -0.323708 0 0.000816171 0 0)
(-50.0895 -0.367538 0 0.000669345 0 0)
(-50.0695 -0.41839 0 0.000528239 0 0)
(-50.0354 -0.47244 0 0.000562475 0 0)
(-49.9854 -0.530839 0 0.000974254 0 0)
(-49.9164 -0.596453 0 0.00204872 0 0)
(-49.8281 -0.672894 0 0.00417915 0 0)
(-49.7274 -0.764129 0 0.00807851 0 0)
(-49.6197 -0.87345 0 0.0148711 0 0)
(-49.518 -1.00412 0 0.0267066 0 0)
(-49.4293 -1.15514 0 0.0466196 0 0)
(-49.3717 -1.32383 0 0.080287 0 0)
(-49.346 -1.49843 0 0.133975 0 0)
(-49.3688 -1.66648 0 0.21844 0 0)
(-50.1082 -0.0653659 0 0.00531449 0 0)
(-50.1394 -0.173523 0 0.00292031 0 0)
(-50.2052 -0.243946 0 0.00146937 0 0)
(-50.2717 -0.28881 0 0.00085998 0 0)
(-50.308 -0.329145 0 0.000558925 0 0)
(-50.3104 -0.375987 0 0.000392405 0 0)
(-50.2908 -0.429412 0 0.000366298 0 0)
(-50.2578 -0.486653 0 0.000632575 0 0)
(-50.2118 -0.547728 0 0.00143595 0 0)
(-50.1507 -0.615593 0 0.00311709 0 0)
(-50.0751 -0.693642 0 0.00615256 0 0)
(-49.9889 -0.785393 0 0.0113746 0 0)
(-49.8992 -0.89324 0 0.0199759 0 0)
(-49.8135 -1.01887 0 0.0341372 0 0)
(-49.7412 -1.16048 0 0.0566415 0 0)
(-49.6882 -1.31422 0 0.0924554 0 0)
(-49.6628 -1.47125 0 0.146214 0 0)
(-49.6588 -1.62063 0 0.225862 0 0)
(-49.9635 -0.0812318 0 0.00539478 0 0)
(-49.9841 -0.17747 0 0.0030167 0 0)
(-50.0205 -0.242632 0 0.00183136 0 0)
(-50.0685 -0.286977 0 0.00148559 0 0)
(-50.1071 -0.327109 0 0.00149186 0 0)
(-50.1243 -0.373034 0 0.00168299 0 0)
(-50.1221 -0.426934 0 0.00205576 0 0)
(-50.1085 -0.487865 0 0.00272831 0 0)
(-50.0872 -0.55528 0 0.00395384 0 0)
(-50.0572 -0.630081 0 0.00617725 0 0)
(-50.0169 -0.714345 0 0.00996705 0 0)
(-49.9676 -0.810644 0 0.0162236 0 0)
(-49.9127 -0.920343 0 0.0261598 0 0)
(-49.8584 -1.04382 0 0.0418759 0 0)
(-49.8103 -1.17916 0 0.0658109 0 0)
(-49.7757 -1.3224 0 0.102081 0 0)
(-49.7542 -1.46648 0 0.153951 0 0)
(-49.7493 -1.60244 0 0.227209 0 0)
(-49.6625 -0.0559521 0 0.00560286 0 0)
(-49.7157 -0.145507 0 0.00366846 0 0)
(-49.7948 -0.219749 0 0.00231347 0 0)
(-49.8885 -0.275491 0 0.00190769 0 0)
(-49.9589 -0.32313 0 0.00187339 0 0)
(-49.9876 -0.37325 0 0.00206277 0 0)
(-49.9822 -0.429725 0 0.00255776 0 0)
(-49.9592 -0.492045 0 0.00358334 0 0)
(-49.9298 -0.55929 0 0.00547613 0 0)
(-49.8988 -0.63296 0 0.00867693 0 0)
(-49.8665 -0.715567 0 0.0137101 0 0)
(-49.8324 -0.809763 0 0.0214178 0 0)
(-49.7962 -0.916566 0 0.0328669 0 0)
(-49.7618 -1.03555 0 0.0498853 0 0)
(-49.7314 -1.16388 0 0.0744362 0 0)
(-49.712 -1.29725 0 0.109893 0 0)
(-49.701 -1.4296 0 0.158334 0 0)
(-49.7046 -1.55391 0 0.224178 0 0)
(-49.7604 -0.0704318 0 0.00566138 0 0)
(-49.7494 -0.138309 0 0.00424726 0 0)
(-49.7638 -0.200667 0 0.00322877 0 0)
(-49.8079 -0.26026 0 0.00281651 0 0)
(-49.8496 -0.315726 0 0.00277251 0 0)
(-49.8705 -0.37145 0 0.00315783 0 0)
(-49.8735 -0.4317 0 0.00398627 0 0)
(-49.8677 -0.497479 0 0.00540542 0 0)
(-49.8557 -0.568431 0 0.00774279 0 0)
(-49.8356 -0.645619 0 0.0114829 0 0)
(-49.8053 -0.731275 0 0.017154 0 0)
(-49.7666 -0.827406 0 0.0255522 0 0)
(-49.724 -0.934225 0 0.0376083 0 0)
(-49.683 -1.05103 0 0.0549131 0 0)
(-49.6492 -1.17458 0 0.0789957 0 0)
(-49.6259 -1.30159 0 0.112514 0 0)
(-49.6151 -1.42647 0 0.156699 0 0)
(-49.6123 -1.54493 0 0.214744 0 0)
(-50.0034 -0.0631757 0 0.00579952 0 0)
(-49.9922 -0.142822 0 0.00421094 0 0)
(-50.0064 -0.200608 0 0.00284551 0 0)
(-50.0553 -0.255386 0 0.002436 0 0)
(-50.1128 -0.310686 0 0.00263397 0 0)
(-50.1592 -0.366916 0 0.00332735 0 0)
(-50.1894 -0.42698 0 0.00451825 0 0)
(-50.205 -0.492673 0 0.00638917 0 0)
(-50.209 -0.56438 0 0.00926403 0 0)
(-50.2023 -0.642677 0 0.0136221 0 0)
(-50.1885 -0.72865 0 0.0199978 0 0)
(-50.1677 -0.823506 0 0.0291733 0 0)
(-50.1465 -0.926989 0 0.0419879 0 0)
(-50.1236 -1.03815 0 0.0598285 0 0)
(-50.1088 -1.15455 0 0.0837698 0 0)
(-50.0916 -1.2734 0 0.115841 0 0)
(-50.0876 -1.3908 0 0.156461 0 0)
(-50.0678 -1.50331 0 0.207936 0 0)
(-50.1333 -0.0686594 0 0.00716991 0 0)
(-50.1165 -0.122442 0 0.00582373 0 0)
(-50.1319 -0.185209 0 0.00397809 0 0)
(-50.1749 -0.243969 0 0.00357302 0 0)
(-50.2277 -0.299033 0 0.00409172 0 0)
(-50.2794 -0.356036 0 0.00515473 0 0)
(-50.3231 -0.418926 0 0.00667812 0 0)
(-50.3546 -0.488538 0 0.00888106 0 0)
(-50.3744 -0.564284 0 0.0121479 0 0)
(-50.3836 -0.646452 0 0.0169571 0 0)
(-50.3863 -0.735421 0 0.0238106 0 0)
(-50.3837 -0.83193 0 0.0334096 0 0)
(-50.3811 -0.935917 0 0.0464177 0 0)
(-50.3773 -1.04629 0 0.063958 0 0)
(-50.3788 -1.16086 0 0.086727 0 0)
(-50.3778 -1.27687 0 0.116324 0 0)
(-50.3828 -1.39151 0 0.152539 0 0)
(-50.3754 -1.5018 0 0.197256 0 0)
(-50.3271 -0.100476 0 0.00879658 0 0)
(-50.3811 -0.123814 0 0.00714741 0 0)
(-50.4279 -0.180854 0 0.00550567 0 0)
(-50.4723 -0.240978 0 0.0051517 0 0)
(-50.5145 -0.295768 0 0.0056982 0 0)
(-50.5469 -0.351853 0 0.00689342 0 0)
(-50.564 -0.415414 0 0.00851141 0 0)
(-50.568 -0.487339 0 0.0106569 0 0)
(-50.5666 -0.565712 0 0.0137619 0 0)
(-50.5666 -0.649149 0 0.0184176 0 0)
(-50.5722 -0.737524 0 0.0251537 0 0)
(-50.5823 -0.831483 0 0.0345721 0 0)
(-50.5968 -0.930985 0 0.047155 0 0)
(-50.6122 -1.0357 0 0.0636904 0 0)
(-50.6301 -1.14376 0 0.0845 0 0)
(-50.6456 -1.25394 0 0.110616 0 0)
(-50.6616 -1.36351 0 0.141456 0 0)
(-50.669 -1.47204 0 0.178238 0 0)
(-50.0649 -0.0144075 0 0.00891837 0 0)
(-50.134 -0.102519 0 0.00767648 0 0)
(-50.181 -0.158989 0 0.00645776 0 0)
(-50.2029 -0.211358 0 0.00655186 0 0)
(-50.2153 -0.269664 0 0.00727934 0 0)
(-50.2329 -0.334625 0 0.00844521 0 0)
(-50.2611 -0.40333 0 0.0102686 0 0)
(-50.299 -0.473576 0 0.0131674 0 0)
(-50.3432 -0.54563 0 0.0174868 0 0)
(-50.3907 -0.621812 0 0.0235226 0 0)
(-50.4371 -0.704292 0 0.0314751 0 0)
(-50.481 -0.794729 0 0.0415989 0 0)
(-50.5196 -0.89263 0 0.0540137 0 0)
(-50.5562 -0.997208 0 0.0691812 0 0)
(-50.5889 -1.10577 0 0.0871369 0 0)
(-50.6239 -1.2171 0 0.108697 0 0)
(-50.6537 -1.32807 0 0.133151 0 0)
(-50.6889 -1.43881 0 0.161688 0 0)
(-49.9823 -0.0527547 0 0.0106838 0 0)
(-49.9547 -0.115924 0 0.00943956 0 0)
(-49.9491 -0.169981 0 0.00731545 0 0)
(-49.9691 -0.225593 0 0.00688285 0 0)
(-50.0035 -0.280276 0 0.00763117 0 0)
(-50.0469 -0.334065 0 0.00918966 0 0)
(-50.0918 -0.390781 0 0.0114829 0 0)
(-50.1322 -0.454958 0 0.0145476 0 0)
(-50.1652 -0.528335 0 0.0184077 0 0)
(-50.1926 -0.610354 0 0.023235 0 0)
(-50.2176 -0.698877 0 0.0293119 0 0)
(-50.2441 -0.792508 0 0.0370667 0 0)
(-50.273 -0.889196 0 0.0468014 0 0)
(-50.3068 -0.98862 0 0.0589683 0 0)
(-50.3443 -1.08893 0 0.0734792 0 0)
(-50.3876 -1.19121 0 0.0907565 0 0)
(-50.432 -1.29319 0 0.109927 0 0)
(-50.481 -1.3976 0 0.131542 0 0)
(-49.9479 -0.0372592 0 0.0105819 0 0)
(-49.9522 -0.079984 0 0.00968349 0 0)
(-49.9691 -0.133758 0 0.00720038 0 0)
(-50.0014 -0.18781 0 0.00682321 0 0)
(-50.0386 -0.24148 0 0.00786109 0 0)
(-50.0711 -0.299749 0 0.00967427 0 0)
(-50.0963 -0.364774 0 0.0118836 0 0)
(-50.1198 -0.434689 0 0.0146354 0 0)
(-50.1483 -0.506615 0 0.0183796 0 0)
(-50.187 -0.580174 0 0.023477 0 0)
(-50.2384 -0.656538 0 0.030012 0 0)
(-50.3022 -0.738198 0 0.0379511 0 0)
(-50.3756 -0.825463 0 0.0470938 0 0)
(-50.4551 -0.918974 0 0.0574605 0 0)
(-50.5381 -1.01618 0 0.0688254 0 0)
(-50.6217 -1.11767 0 0.0814933 0 0)
(-50.7054 -1.21977 0 0.0948885 0 0)
(-50.7862 -1.32559 0 0.109503 0 0)
(-49.8967 -0.0550342 0 0.0119812 0 0)
(-49.9288 -0.0980347 0 0.0107996 0 0)
(-49.9682 -0.14051 0 0.00778227 0 0)
(-50.0178 -0.185846 0 0.00711221 0 0)
(-50.0752 -0.236228 0 0.00781783 0 0)
(-50.139 -0.291218 0 0.00916242 0 0)
(-50.2082 -0.34892 0 0.0110307 0 0)
(-50.2824 -0.408169 0 0.0136132 0 0)
(-50.3603 -0.469135 0 0.0171075 0 0)
(-50.4391 -0.533213 0 0.0216362 0 0)
(-50.5179 -0.601106 0 0.0271988 0 0)
(-50.5969 -0.67393 0 0.03375 0 0)
(-50.678 -0.751484 0 0.0411012 0 0)
(-50.7615 -0.83478 0 0.0491572 0 0)
(-50.8495 -0.922443 0 0.0575496 0 0)
(-50.9398 -1.01553 0 0.0663778 0 0)
(-51.0352 -1.11098 0 0.0751056 0 0)
(-51.1298 -1.21111 0 0.0841445 0 0)
(-50.1729 0.00843648 0 0.0102068 0 0)
(-50.2357 -0.0372024 0 0.0103995 0 0)
(-50.2988 -0.0764715 0 0.00892697 0 0)
(-50.3701 -0.112956 0 0.00865733 0 0)
(-50.4473 -0.153811 0 0.00940666 0 0)
(-50.5315 -0.201023 0 0.0108369 0 0)
(-50.6194 -0.254145 0 0.0127573 0 0)
(-50.7105 -0.312559 0 0.0150749 0 0)
(-50.806 -0.375133 0 0.0177799 0 0)
(-50.9056 -0.441345 0 0.0209115 0 0)
(-51.0083 -0.510475 0 0.0244871 0 0)
(-51.1142 -0.58273 0 0.0285243 0 0)
(-51.2232 -0.657423 0 0.032959 0 0)
(-51.3357 -0.735513 0 0.0377674 0 0)
(-51.4519 -0.815904 0 0.0427227 0 0)
(-51.5717 -0.900453 0 0.0478561 0 0)
(-51.6948 -0.986396 0 0.0528034 0 0)
(-51.8208 -1.07723 0 0.0577301 0 0)
(-50.0102 0.0397829 0 0.0121443 0 0)
(-50.0124 -0.0156703 0 0.0118582 0 0)
(-50.0414 -0.0525241 0 0.00839337 0 0)
(-50.1021 -0.0808037 0 0.00706483 0 0)
(-50.1686 -0.114455 0 0.00728395 0 0)
(-50.2329 -0.154523 0 0.00832177 0 0)
(-50.3032 -0.197693 0 0.00985664 0 0)
(-50.3858 -0.242517 0 0.0117443 0 0)
(-50.4806 -0.289215 0 0.0139244 0 0)
(-50.586 -0.339036 0 0.0163909 0 0)
(-50.6999 -0.392423 0 0.0191366 0 0)
(-50.8211 -0.449852 0 0.0221439 0 0)
(-50.9483 -0.510613 0 0.0253409 0 0)
(-51.0822 -0.575446 0 0.0286539 0 0)
(-51.2218 -0.643343 0 0.0318823 0 0)
(-51.3688 -0.715943 0 0.0350009 0 0)
(-51.5204 -0.790567 0 0.0378053 0 0)
(-51.68 -0.870187 0 0.0403496 0 0)
(-49.9115 0.00435093 0 0.0105335 0 0)
(-49.9251 0.00171906 0 0.00982314 0 0)
(-49.9721 -0.0145362 0 0.00755637 0 0)
(-50.0688 -0.0422391 0 0.00676526 0 0)
(-50.1831 -0.075237 0 0.00680528 0 0)
(-50.2964 -0.108951 0 0.00740306 0 0)
(-50.4085 -0.14221 0 0.00841824 0 0)
(-50.5224 -0.176359 0 0.00974865 0 0)
(-50.6399 -0.213736 0 0.0113352 0 0)
(-50.7626 -0.256101 0 0.0131191 0 0)
(-50.8911 -0.302981 0 0.0150424 0 0)
(-51.025 -0.353533 0 0.0170901 0 0)
(-51.1636 -0.406214 0 0.0192463 0 0)
(-51.3068 -0.461314 0 0.0214993 0 0)
(-51.4555 -0.518035 0 0.0237368 0 0)
(-51.6105 -0.578249 0 0.0259434 0 0)
(-51.7735 -0.639941 0 0.0279694 0 0)
(-51.9441 -0.706247 0 0.0298017 0 0)
(-50.1244 0.0180407 0 0.0112039 0 0)
(-50.1594 0.0424745 0 0.00998415 0 0)
(-50.2201 0.035447 0 0.00740668 0 0)
(-50.3112 0.0165281 0 0.006218 0 0)
(-50.4163 -0.00703587 0 0.0060978 0 0)
(-50.5286 -0.0364733 0 0.0064885 0 0)
(-50.6464 -0.0702494 0 0.00708272 0 0)
(-50.7691 -0.10553 0 0.00783965 0 0)
(-50.897 -0.141264 0 0.00876378 0 0)
(-51.0304 -0.178574 0 0.00983499 0 0)
(-51.1685 -0.218454 0 0.0110194 0 0)
(-51.3108 -0.261501 0 0.0122861 0 0)
(-51.4572 -0.306773 0 0.0136163 0 0)
(-51.6088 -0.354008 0 0.0150268 0 0)
(-51.7658 -0.401657 0 0.016488 0 0)
(-51.9298 -0.450799 0 0.0180433 0 0)
(-52.1 -0.49971 0 0.0196087 0 0)
(-52.2786 -0.551565 0 0.0211141 0 0)
(-49.8583 0.0248661 0 0.00971277 0 0)
(-49.9265 0.0517344 0 0.00796125 0 0)
(-50.015 0.0563548 0 0.005582 0 0)
(-50.114 0.0445602 0 0.00461709 0 0)
(-50.2152 0.0236825 0 0.00453302 0 0)
(-50.3205 0.00141196 0 0.00492174 0 0)
(-50.433 -0.0189097 0 0.00551225 0 0)
(-50.5555 -0.0394113 0 0.00619383 0 0)
(-50.6888 -0.0635703 0 0.00694569 0 0)
(-50.8319 -0.0932185 0 0.00773521 0 0)
(-50.9833 -0.127657 0 0.00853258 0 0)
(-51.1414 -0.165374 0 0.00936618 0 0)
(-51.3054 -0.204399 0 0.010278 0 0)
(-51.4747 -0.24428 0 0.0112973 0 0)
(-51.6496 -0.28407 0 0.0123807 0 0)
(-51.8295 -0.325038 0 0.0135269 0 0)
(-52.0153 -0.36599 0 0.0146578 0 0)
(-52.206 -0.409279 0 0.015745 0 0)
(-50.3679 0.0744826 0 0.00850857 0 0)
(-50.441 0.0845465 0 0.00587539 0 0)
(-50.5383 0.095538 0 0.00377052 0 0)
(-50.6594 0.0938813 0 0.00314762 0 0)
(-50.789 0.0777436 0 0.00315618 0 0)
(-50.9167 0.0553686 0 0.00338076 0 0)
(-51.0412 0.0331474 0 0.00369112 0 0)
(-51.1673 0.0122965 0 0.00406441 0 0)
(-51.3011 -0.00894995 0 0.00450708 0 0)
(-51.4464 -0.032802 0 0.0050239 0 0)
(-51.6038 -0.060099 0 0.00558423 0 0)
(-51.7716 -0.0906766 0 0.00615709 0 0)
(-51.9463 -0.123106 0 0.00674488 0 0)
(-52.1256 -0.156376 0 0.00738141 0 0)
(-52.3074 -0.189069 0 0.00807434 0 0)
(-52.4925 -0.221978 0 0.00883682 0 0)
(-52.6803 -0.254247 0 0.00962526 0 0)
(-52.874 -0.288316 0 0.0104015 0 0)
(-49.6441 0.0778872 0 0.00811902 0 0)
(-49.6819 0.109509 0 0.00606144 0 0)
(-49.7492 0.127104 0 0.00435084 0 0)
(-49.8397 0.126961 0 0.00365604 0 0)
(-49.9345 0.115229 0 0.00338449 0 0)
(-50.0337 0.0998241 0 0.00338515 0 0)
(-50.1465 0.0853803 0 0.00357958 0 0)
(-50.2772 0.0728191 0 0.00387349 0 0)
(-50.4243 0.0607559 0 0.00421786 0 0)
(-50.5851 0.0469356 0 0.00462346 0 0)
(-50.7571 0.029564 0 0.00509389 0 0)
(-50.9394 0.00769425 0 0.00558255 0 0)
(-51.1298 -0.0178613 0 0.00603944 0 0)
(-51.3265 -0.04599 0 0.00646987 0 0)
(-51.526 -0.0745941 0 0.00689641 0 0)
(-51.7288 -0.103179 0 0.00738427 0 0)
(-51.9325 -0.130366 0 0.00792163 0 0)
(-52.1416 -0.157523 0 0.00848041 0 0)
(-49.8917 0.0743062 0 0.0069268 0 0)
(-49.9759 0.128461 0 0.00517748 0 0)
(-50.091 0.135909 0 0.00353984 0 0)
(-50.2246 0.127085 0 0.00285363 0 0)
(-50.3628 0.118558 0 0.00263576 0 0)
(-50.5064 0.113675 0 0.0026063 0 0)
(-50.6597 0.109872 0 0.00265951 0 0)
(-50.821 0.104593 0 0.00276896 0 0)
(-50.9845 0.0968606 0 0.00293521 0 0)
(-51.1458 0.0862303 0 0.00315622 0 0)
(-51.3057 0.0724821 0 0.00341574 0 0)
(-51.4687 0.0554047 0 0.00368001 0 0)
(-51.6401 0.0355475 0 0.00392438 0 0)
(-51.8237 0.0134344 0 0.00415703 0 0)
(-52.0198 -0.00939482 0 0.00439039 0 0)
(-52.227 -0.0323657 0 0.00467707 0 0)
(-52.4421 -0.0539557 0 0.00501622 0 0)
(-52.6628 -0.0748302 0 0.00538368 0 0)
(-49.5832 0.118017 0 0.00552352 0 0)
(-49.7127 0.181884 0 0.00312748 0 0)
(-49.8525 0.199335 0 0.0018105 0 0)
(-49.9865 0.197114 0 0.00137 0 0)
(-50.1143 0.193627 0 0.00126614 0 0)
(-50.2439 0.191179 0 0.00128009 0 0)
(-50.3814 0.186788 0 0.00133064 0 0)
(-50.5275 0.179284 0 0.00140553 0 0)
(-50.6808 0.16941 0 0.0015109 0 0)
(-50.8406 0.15802 0 0.00165006 0 0)
(-51.0073 0.145718 0 0.0018224 0 0)
(-51.1816 0.13279 0 0.00202799 0 0)
(-51.3637 0.119584 0 0.00226438 0 0)
(-51.5537 0.106085 0 0.00252688 0 0)
(-51.7509 0.09254 0 0.00280113 0 0)
(-51.9546 0.0784001 0 0.00309904 0 0)
(-52.1636 0.0641169 0 0.00340125 0 0)
(-52.3764 0.0487615 0 0.00369702 0 0)
(-50.0562 0.118235 0 0.00426531 0 0)
(-50.2258 0.158041 0 0.00182833 0 0)
(-50.427 0.168509 0 0.00103478 0 0)
(-50.5962 0.170085 0 0.000728712 0 0)
(-50.7302 0.175094 0 0.000558912 0 0)
(-50.8571 0.180491 0 0.000465271 0 0)
(-50.9967 0.182926 0 0.000420646 0 0)
(-51.152 0.182818 0 0.000407824 0 0)
(-51.3179 0.181141 0 0.000422521 0 0)
(-51.4889 0.177951 0 0.000466401 0 0)
(-51.6627 0.172685 0 0.00053707 0 0)
(-51.8396 0.165157 0 0.000623492 0 0)
(-52.0215 0.155635 0 0.000717363 0 0)
(-52.2088 0.144807 0 0.000820437 0 0)
(-52.4029 0.133362 0 0.000938915 0 0)
(-52.6016 0.121884 0 0.00108361 0 0)
(-52.8065 0.110745 0 0.00125018 0 0)
(-53.0122 0.100047 0 0.00142905 0 0)
(-50.0495 0.19041 0 0.00304676 0 0)
(-50.3719 0.274155 0 7.05933e-05 0 0)
(-50.6642 0.264566 0 -0.000321183 0 0)
(-50.879 0.256037 0 -0.000403719 0 0)
(-51.0351 0.256694 0 -0.000492436 0 0)
(-51.1636 0.259134 0 -0.000542105 0 0)
(-51.2789 0.260303 0 -0.000554688 0 0)
(-51.3815 0.259558 0 -0.000535124 0 0)
(-51.4678 0.256527 0 -0.000485433 0 0)
(-51.5397 0.251391 0 -0.000416066 0 0)
(-51.6025 0.244862 0 -0.000333549 0 0)
(-51.666 0.238113 0 -0.000240188 0 0)
(-51.7344 0.231604 0 -0.000134646 0 0)
(-51.8136 0.225633 0 -2.17061e-05 0 0)
(-51.8979 0.219494 0 9.57433e-05 0 0)
(-51.9912 0.213069 0 0.00022259 0 0)
(-52.0814 0.205711 0 0.000357887 0 0)
(-52.1807 0.197896 0 0.000480847 0 0)
(-49.1643 0.157483 0 0.00196855 0 0)
(-47.543 0.231323 0 0.000117993 0 0)
(-45.9265 0.219249 0 -9.21316e-05 0 0)
(-44.3487 0.210048 0 -0.000156942 0 0)
(-42.8504 0.207258 0 -0.000245292 0 0)
(-41.4438 0.204216 0 -0.000313159 0 0)
(-40.1258 0.199111 0 -0.000345638 0 0)
(-38.894 0.192206 0 -0.000349756 0 0)
(-37.7485 0.184189 0 -0.000338907 0 0)
(-36.6909 0.176052 0 -0.000323945 0 0)
(-35.7161 0.168647 0 -0.00031044 0 0)
(-34.819 0.162359 0 -0.000301854 0 0)
(-33.9875 0.156698 0 -0.000294311 0 0)
(-33.2208 0.151084 0 -0.000282275 0 0)
(-32.5065 0.144868 0 -0.000260869 0 0)
(-31.8558 0.138241 0 -0.000231106 0 0)
(-31.2477 0.131215 0 -0.000199369 0 0)
(-30.7089 0.124843 0 -0.000173781 0 0)
(-0.0117818 0.022433 -2.3349e-22 -0.0387461 5.22299e-22 4.2867e-39)
(-0.00512419 -0.0331382 5.39563e-22 0.0449784 -3.17432e-22 4.21788e-39)
(0.127782 -0.119915 0 0.0512218 0 0)
(0.399389 -0.176467 0 0.0162331 0 0)
(0.69366 -0.138342 0 -0.0547893 0 0)
(0.864633 -0.0103209 -5.41038e-22 -0.1228 -4.37583e-22 3.96895e-39)
(0.744277 0.19025 0 -0.168988 0 0)
(0.249846 0.394292 0 -0.180571 0 0)
(-0.612798 0.569612 0 -0.167418 0 0)
(-1.73824 0.679931 0 -0.136372 0 0)
(-3.0245 0.713461 -2.16443e-21 -0.0969681 6.27212e-22 3.63953e-39)
(-4.33938 0.671155 0 -0.0570576 0 0)
(-5.54393 0.562965 0 -0.0216864 0 0)
(-6.5148 0.403264 0 0.00628955 0 0)
(-7.15442 0.206761 0 0.0258273 0 0)
(-7.39874 -0.0102681 -5.42883e-21 0.0365316 1.89873e-22 3.34084e-39)
(-7.20648 -0.234133 0 0.0385673 0 0)
(-6.57731 -0.447396 0 0.0318483 0 0)
(-5.51976 -0.636939 0 0.0164608 0 0)
(-4.12391 -0.777293 0 -0.00716155 0 0)
(-2.43696 -0.854263 0 -0.0373878 0 0)
(-0.694778 -0.8319 0 -0.0663434 0 0)
(1.07095 -0.722419 0 -0.0890465 0 0)
(2.46491 -0.472311 -3.44232e-21 -0.0635647 -4.97973e-22 2.95657e-39)
(3.60407 -0.263803 2.99024e-21 -0.0382498 5.40274e-22 2.9141e-39)
(4.15312 0.0234846 -2.54604e-21 0.102451 -5.12441e-22 2.87165e-39)
(4.34951 0.212978 -2.13175e-21 0.324475 -4.25408e-22 2.82912e-39)
(4.31452 0.12635 0 0.490855 0 0)
(4.35083 -0.15197 0 0.399832 0 0)
(4.42821 -0.337748 9.41743e-22 0.503225 1.31354e-22 2.68968e-39)
(4.57397 -0.522679 5.83205e-22 0.495145 2.09242e-22 2.63917e-39)
(4.8133 -0.695463 0 0.463845 0 0)
(5.16205 -0.805273 0 0.447267 0 0)
(5.76026 -0.940806 -2.21398e-22 0.46397 -1.0439e-23 2.49213e-39)
(6.85242 -1.20389 0 0.515075 0 0)
(8.68578 -1.60565 0 0.615214 0 0)
(11.7943 -2.21768 -1.15115e-21 0.778947 5.83077e-22 2.35751e-39)
(16.3429 -2.80349 0 0.837609 0 0)
(21.9605 -3.03236 -4.14301e-21 0.761635 1.0406e-21 2.27338e-39)
(27.4789 -2.66531 -1.1246e-20 0.579151 1.86878e-21 8.92441e-39)
(31.7521 -1.93706 0 0.43951 0 0)
(34.1872 -1.15733 0 0.345168 0 0)
(34.2841 -0.3667 0 0.314361 0 0)
(32.6748 -0.10538 0 0.312928 0 0)
(31.215 0.0468656 0 0.443053 0 0)
(28.7873 0.128189 -1.63473e-20 0.579032 -4.02201e-22 7.98235e-39)
(26.2449 -1.90822 -1.49546e-20 0.689919 8.97536e-22 7.83195e-39)
(22.3791 -2.6883 -1.20106e-20 0.951869 1.55056e-21 7.68011e-39)
(17.7891 1.18111 0 0.330821 0 0)
(6.69056 3.64879 3.90803e-21 0.281436 3.51933e-21 7.36999e-39)
(-3.30668 3.78229 0 0.116313 0 0)
(-12.7829 3.73381 8.6087e-21 0.10301 -3.37458e-21 7.06303e-39)
(-21.1472 3.2056 1.50606e-20 0.103088 -2.84579e-21 6.9131e-39)
(-28.1111 2.68885 0 0.0985873 0 0)
(-33.9471 2.18369 0 0.090964 0 0)
(-38.6168 1.74581 0 0.0828611 0 0)
(-42.3451 1.35816 3.45209e-20 0.0747199 -9.70961e-22 6.35595e-39)
(-45.1662 1.02645 0 0.0672413 0 0)
(-47.231 0.73864 0 0.0602623 0 0)
(-48.5903 0.490588 0 0.0538441 0 0)
(-49.3418 0.274518 0 0.0478088 0 0)
(-49.5348 0.086332 0 0.042112 0 0)
(-49.2356 -0.078225 0 0.0366909 0 0)
(-48.4882 -0.221524 0 0.031556 0 0)
(-47.3429 -0.34553 0 0.0267472 0 0)
(-45.8391 -0.451212 -3.39976e-20 0.0223409 -7.77838e-22 5.32216e-39)
(-44.019 -0.539904 0 0.0184496 0 0)
(-41.9224 -0.612553 0 0.0151321 0 0)
(-39.5973 -0.67129 2.53284e-20 0.0123755 9.01252e-22 5.02525e-39)
(-37.0782 -0.717722 2.20502e-20 0.0100291 9.11184e-22 4.92996e-39)
(-34.4012 -0.753032 0 0.00792084 0 0)
(-31.6022 -0.777539 -1.53132e-20 0.00592948 -8.84047e-22 4.74398e-39)
(-28.716 -0.791522 1.19854e-20 0.00402525 8.47427e-22 4.65309e-39)
(-25.7779 -0.794937 0 0.00223184 0 0)
(-22.8233 -0.788281 -5.70699e-21 0.000604819 -7.38797e-22 4.47507e-39)
(-19.8867 -0.772195 0 -0.000784715 0 0)
(-16.9999 -0.748073 0 -0.00187156 0 0)
(-14.1901 -0.717609 -2.12557e-21 -0.00263968 5.29741e-22 4.21621e-39)
(-11.4775 -0.682705 0 -0.00311093 0 0)
(-8.87518 -0.645612 6.06995e-21 -0.00332752 -3.93119e-22 4.0488e-39)
(-6.39049 -0.608007 0 -0.00336955 0 0)
(-4.0241 -0.571316 -9.05569e-21 -0.00333316 2.861e-22 3.88572e-39)
(-1.77318 -0.536522 -1.0248e-20 -0.0033299 2.44576e-22 3.8059e-39)
(0.366318 -0.503816 -1.12723e-20 -0.00348216 2.08657e-22 3.72726e-39)
(2.39905 -0.472473 -2.42906e-20 -0.00390186 3.50033e-22 1.45994e-38)
(4.32635 -0.441681 2.57456e-20 -0.00467237 -2.81607e-22 1.42946e-38)
(6.14323 -0.409517 0 -0.00582714 0 0)
(7.83838 -0.374189 0 -0.00733668 0 0)
(9.39269 -0.334222 0 -0.00910292 0 0)
(10.7813 -0.288387 2.8287e-20 -0.0109648 6.80084e-23 1.31229e-38)
(11.9777 -0.236848 2.79175e-20 -0.0127381 1.78977e-22 1.28412e-38)
(12.9562 -0.180682 -2.70905e-20 -0.0141818 -2.91789e-22 1.25637e-38)
(13.7004 -0.122095 0 -0.0150812 0 0)
(14.2039 -0.0641757 2.41687e-20 -0.0153343 4.88059e-22 1.20218e-38)
(14.4724 -0.00974499 2.2206e-20 -0.0149517 5.57249e-22 1.17573e-38)
(14.5214 0.0390208 2.00301e-20 -0.0140588 6.02727e-22 1.14973e-38)
(14.3726 0.0811339 0 -0.012838 0 0)
(14.0492 0.116701 0 -0.0114724 0 0)
(13.5729 0.146513 0 -0.0101057 0 0)
(12.9616 0.171675 1.08154e-20 -0.0088255 6.0853e-22 1.05001e-38)
(12.2301 0.193191 0 -0.00768867 0 0)
(11.3913 0.211616 0 -0.00664097 0 0)
(10.4575 0.227121 -4.57788e-21 -0.00567122 -5.41406e-22 9.78741e-39)
(9.44134 0.239208 0 -0.00474824 0 0)
(8.35616 0.24784 0 -0.00386378 0 0)
(7.21754 0.252478 5.92685e-22 -0.00301726 -4.51988e-22 9.10851e-39)
(6.04213 0.253305 0 -0.00222414 0 0)
(4.84793 0.250482 0 -0.00149963 0 0)
(3.65265 0.244717 -4.50631e-21 -0.000856671 3.50849e-22 8.4657e-39)
(2.47118 0.236128 -5.52608e-21 -0.000305755 3.18184e-22 8.25885e-39)
(1.31477 0.225345 0 0.000153278 0 0)
(0.193404 0.212776 7.18135e-21 0.000524395 -2.57842e-22 7.85647e-39)
(-0.884616 0.198984 0 0.000815598 0 0)
(-1.9126 0.184311 -8.39041e-21 0.00103584 2.05347e-22 7.46908e-39)
(-2.88524 0.169061 0 0.00119402 0 0)
(-3.79822 0.15342 -9.23471e-21 0.00129783 1.60871e-22 7.09749e-39)
(-4.64811 0.137532 -9.54267e-21 0.00135371 1.41105e-22 6.91751e-39)
(-5.43214 0.121528 0 0.00136753 0 0)
(-6.14813 0.105534 0 0.00134446 0 0)
(-6.79458 0.089696 0 0.00128936 0 0)
(-7.37081 0.0741661 0 0.00120762 0 0)
(-7.87674 0.0590915 0 0.00110531 0 0)
(-8.31336 0.0446244 0 0.000988658 0 0)
(-8.68238 0.0309005 0 0.000864008 0 0)
(-8.98633 0.0180288 -1.01366e-20 0.000737129 2.0089e-23 5.60578e-39)
(-9.22839 0.00608293 1.00608e-20 0.000612397 -9.34556e-24 5.45663e-39)
(-9.41226 -0.00490412 0 0.000492798 0 0)
(-9.54174 -0.0149324 0 0.00038045 0 0)
(-9.62087 -0.0239969 0 0.000277409 0 0)
(-9.65363 -0.032126 0 0.000185169 0 0)
(-9.64377 -0.0394043 1.89166e-20 0.000102845 7.03177e-23 1.90219e-38)
(-9.59461 -0.0459477 0 2.84009e-05 0 0)
(-9.50907 -0.0517279 -1.82777e-20 -3.57198e-05 -9.51749e-23 1.7979e-38)
(-9.3903 -0.0565581 1.79329e-20 -8.22778e-05 1.06077e-22 1.74736e-38)
(-9.24205 -0.0604378 0 -0.000110565 0 0)
(-9.06798 -0.0637463 0 -0.000129949 0 0)
(-8.87083 -0.0667006 0 -0.000145171 0 0)
(-8.65337 -0.0688174 -1.64267e-20 -0.000143652 -1.41679e-22 1.55544e-38)
(-8.41993 -0.0693564 -1.60158e-20 -0.000121209 -1.4963e-22 1.50994e-38)
(-8.17613 -0.0681011 0 -0.000104927 0 0)
(-7.92775 -0.0656745 -1.51762e-20 -0.000108041 -1.41169e-22 1.42177e-38)
(-7.67915 -0.0631523 -1.47682e-20 -0.000107035 -1.30359e-22 1.37908e-38)
(-7.43242 -0.0612075 1.4376e-20 -9.09653e-05 1.22553e-22 1.33728e-38)
(-7.18825 -0.0595934 0 -6.94487e-05 0 0)
(-6.94744 -0.0575436 0 -4.79742e-05 0 0)
(-6.71179 -0.0546325 1.32808e-20 -3.20819e-05 1.11571e-22 1.21718e-38)
(-6.48333 -0.0512098 0 -2.12393e-05 0 0)
(-6.26289 -0.0481213 0 -4.31286e-06 0 0)
(-6.04935 -0.0461163 0 2.01645e-05 0 0)
(-5.84011 -0.0454217 0 3.86771e-05 0 0)
(-5.63219 -0.0457255 -1.17341e-20 4.19784e-05 -8.72691e-23 1.03379e-38)
(-5.42325 -0.0464283 -1.14486e-20 3.5869e-05 -8.97112e-23 9.99512e-39)
(-5.21209 -0.0469461 0 3.25331e-05 0 0)
(-4.99876 -0.0469007 -1.08751e-20 3.87774e-05 -9.32652e-23 9.3327e-39)
(-4.78436 -0.0460896 0 5.4333e-05 0 0)
(-4.571 -0.0443294 0 7.46522e-05 0 0)
(-4.36177 -0.0414062 -1.00243e-20 9.05824e-05 -8.4696e-23 8.39498e-39)
(-4.16091 -0.0372603 0 9.01013e-05 0 0)
(-3.97283 -0.0322054 -9.50176e-21 6.93827e-05 -6.67828e-23 7.80567e-39)
(-3.80133 -0.0268955 0 3.94065e-05 0 0)
(-3.6478 -0.0220117 0 1.47617e-05 0 0)
(-3.51202 -0.0179631 -8.86849e-21 9.29018e-07 -3.65191e-23 6.97312e-39)
(-3.3914 -0.0148031 0 -4.92759e-06 0 0)
(-3.28423 -0.0123451 -8.54597e-21 -7.074e-06 -2.48162e-23 6.4512e-39)
(-3.18728 -0.0103981 0 -7.90832e-06 0 0)
(-3.10043 -0.008839 0 -8.1498e-06 0 0)
(-3.01998 -0.00773296 0 -8.20012e-06 0 0)
(-2.94734 -0.00706792 8.04621e-21 -8.07971e-06 1.46485e-23 5.48358e-39)
(-2.87634 -0.0070325 0 -8.83388e-06 0 0)
(-2.8097 -0.00739592 -7.83761e-21 -1.00954e-05 -1.55086e-23 5.03653e-39)
(-2.7381 -0.00856272 0 -1.44145e-05 0 0)
(-2.6649 -0.00982336 0 -1.8541e-05 0 0)
(-2.58099 -0.0124726 0 -3.27334e-05 0 0)
(-2.48142 -0.0144738 0 -4.03173e-05 0 0)
(-2.37582 -0.0198529 0 -9.1598e-05 0 0)
(-2.20866 -0.0224177 0 -9.75752e-05 0 0)
(-2.08698 -0.0343005 0 -0.000328194 0 0)
(-1.74665 -0.0355146 1.30348e-20 -0.000274239 1.61247e-22 1.39281e-38)
(-1.68678 -0.0627285 0 -0.00158537 0 0)
(-0.894244 -0.0427387 0 -0.00103463 0 0)
(0.00353664 -0.0219931 -1.66091e-23 -0.00973073 -2.90048e-21 3.85862e-38)
(0.022443 -0.0873674 2.64218e-22 0.330423 2.16182e-21 3.80371e-38)
(0.0815668 -0.171606 0 0.45843 0 0)