/*--------------------------------*- C++ -*----------------------------------*\
  =========                 |
  \\      /  F ield         | OpenFOAM: The Open Source CFD Toolbox
   \\    /   O peration     | Website:  https://openfoam.org
    \\  /    A nd           | Version:  9
     \\/     M anipulation  |
\*---------------------------------------------------------------------------*/
FoamFile
{
    format      ascii;
    class       volScalarField;
    location    "0.28";
    object      k;
}
// * * * * * * * * * * * * * * * * * * * * * * * * * * * * * * * * * * * * * //

dimensions      [0 2 -2 0 0 0 0];

internalField   nonuniform List<scalar> 
12225
(
0.283102
0.213609
0.165549
0.133047
0.112215
0.100408
0.095769
0.0969447
0.102948
0.113096
0.126972
0.144361
0.165147
0.189083
0.215404
0.242192
0.266205
0.28925
0.349211
0.324749
0.310904
0.310039
0.322778
0.349114
0.388528
0.440055
0.502504
0.574687
0.65547
0.743601
0.837256
0.933415
1.02729
1.11183
1.17967
1.2184
0.361953
0.348108
0.336023
0.326417
0.31989
0.316817
0.317441
0.321987
0.330757
0.344234
0.363139
0.388358
0.420717
0.460658
0.507928
0.56145
0.619521
0.679952
0.365602
0.355026
0.344766
0.335307
0.326991
0.32002
0.314454
0.310257
0.307351
0.305673
0.305247
0.306245
0.309016
0.314061
0.321919
0.333015
0.347609
0.36576
0.366986
0.358243
0.349539
0.34112
0.33317
0.325809
0.319094
0.313024
0.307554
0.302622
0.298167
0.294155
0.290594
0.287539
0.285066
0.283248
0.282199
0.281985
0.367522
0.35973
0.352056
0.344576
0.337367
0.330492
0.323987
0.317862
0.312102
0.306673
0.301528
0.29661
0.291867
0.287257
0.282754
0.278352
0.274067
0.269931
0.367718
0.360373
0.353291
0.346454
0.339869
0.333547
0.327499
0.32173
0.316231
0.310988
0.305974
0.301154
0.296487
0.291928
0.287432
0.282958
0.278476
0.273999
0.367784
0.360628
0.353844
0.347383
0.341214
0.335318
0.329682
0.324298
0.319153
0.314235
0.309525
0.305
0.300634
0.296395
0.292251
0.28817
0.284125
0.280133
0.367804
0.360719
0.354067
0.347796
0.341864
0.336239
0.330894
0.325809
0.320966
0.316349
0.31194
0.307719
0.303664
0.299754
0.295963
0.292269
0.288654
0.285144
0.367809
0.360749
0.354148
0.347961
0.342146
0.336667
0.331495
0.326603
0.32197
0.317575
0.3134
0.309425
0.30563
0.301996
0.298502
0.29513
0.291866
0.288739
0.367809
0.360757
0.354174
0.34802
0.342256
0.336847
0.331763
0.326977
0.322467
0.318211
0.31419
0.310384
0.306774
0.303342
0.30007
0.296941
0.293945
0.291108
0.367809
0.360758
0.354182
0.348039
0.342293
0.336911
0.331864
0.327126
0.322674
0.318487
0.314546
0.310831
0.307326
0.304013
0.300875
0.297897
0.295071
0.292419
0.367809
0.360758
0.354184
0.348046
0.342308
0.336938
0.331909
0.327194
0.322771
0.318621
0.314724
0.311063
0.30762
0.30438
0.301329
0.298452
0.295741
0.293217
0.367808
0.360758
0.354185
0.348049
0.342315
0.336951
0.33193
0.327227
0.32282
0.318688
0.314815
0.311182
0.307774
0.304576
0.301576
0.29876
0.296123
0.293682
0.367807
0.360757
0.354184
0.34805
0.342319
0.336959
0.331944
0.327247
0.322847
0.318725
0.314863
0.311244
0.307853
0.304676
0.301702
0.298918
0.296319
0.293923
0.367806
0.360755
0.354184
0.348051
0.342322
0.336966
0.331955
0.327264
0.32287
0.318755
0.3149
0.311289
0.307908
0.304742
0.30178
0.299012
0.296431
0.294053
0.367805
0.360754
0.354182
0.348051
0.342325
0.336972
0.331966
0.327281
0.322894
0.318786
0.314938
0.311335
0.307962
0.304805
0.301852
0.299092
0.296519
0.294149
0.367804
0.360751
0.35418
0.34805
0.342326
0.336979
0.331978
0.3273
0.322921
0.318822
0.314984
0.31139
0.308026
0.304878
0.301934
0.299181
0.296614
0.294247
0.367802
0.360748
0.354176
0.348048
0.342328
0.336985
0.331992
0.327322
0.322953
0.318864
0.315037
0.311454
0.308101
0.304963
0.302027
0.299282
0.296719
0.294353
0.3678
0.360745
0.354173
0.348047
0.342331
0.336993
0.332006
0.327344
0.322983
0.318904
0.315086
0.311513
0.308169
0.305039
0.30211
0.299369
0.296809
0.294443
0.367799
0.360743
0.354173
0.348049
0.342336
0.337003
0.332022
0.327366
0.323012
0.31894
0.315129
0.311562
0.308223
0.305097
0.302171
0.299432
0.296871
0.294503
0.367799
0.360743
0.354174
0.348052
0.342343
0.337013
0.332034
0.327381
0.323028
0.318957
0.315145
0.311577
0.308236
0.305106
0.302175
0.299429
0.29686
0.294482
0.367798
0.360743
0.354173
0.34805
0.342334
0.336995
0.332003
0.32733
0.322955
0.318855
0.315012
0.311409
0.308029
0.30486
0.301886
0.299098
0.296484
0.294061
0.367796
0.360732
0.354143
0.347985
0.342218
0.336811
0.331737
0.326973
0.322496
0.318289
0.314335
0.310618
0.307126
0.303844
0.30076
0.297865
0.295148
0.292626
0.367778
0.360654
0.353954
0.34763
0.341649
0.335994
0.33065
0.325606
0.320848
0.316365
0.312147
0.308182
0.304457
0.300961
0.297682
0.294607
0.291726
0.289056
0.367671
0.360268
0.353146
0.346305
0.339759
0.333527
0.327626
0.322065
0.316845
0.311961
0.3074
0.303146
0.299183
0.295494
0.292059
0.288862
0.285886
0.283138
0.367182
0.358829
0.350554
0.342523
0.334871
0.327693
0.321036
0.314912
0.309312
0.304211
0.299581
0.295385
0.291581
0.288127
0.28498
0.282106
0.279471
0.277065
0.365309
0.35444
0.343789
0.333818
0.324845
0.317003
0.310297
0.304665
0.300026
0.29628
0.293315
0.291015
0.289266
0.287965
0.287014
0.286322
0.285817
0.285446
0.35758
0.338103
0.321518
0.309115
0.301024
0.296964
0.296506
0.299147
0.30435
0.311579
0.320325
0.330115
0.340524
0.351189
0.361806
0.372129
0.381996
0.391204
0.31473
0.264075
0.22455
0.193533
0.169192
0.150174
0.135452
0.124219
0.115825
0.109737
0.105509
0.102771
0.101209
0.100559
0.100601
0.101152
0.102064
0.103209
0.0874566
0.134705
0.151792
0.165669
0.171547
0.173394
0.170338
0.167206
0.169042
0.174166
0.182617
0.194576
0.210393
0.230645
0.256114
0.287946
0.32365
0.358289
0.389294
0.413002
0.424212
0.415827
0.378629
0.303064
0.198365
0.116949
0.0711369
0.0684038
0.0722623
0.0773419
0.0833488
0.0913893
0.0992223
0.0988837
0.0926335
0.0845052
0.0777647
0.0743989
0.0762231
0.0842116
0.0976762
0.118648
0.161331
0.284689
0.510783
0.720403
0.916275
1.08987
1.23705
1.35654
1.44891
1.51582
1.55955
1.58265
1.58778
1.57751
1.55431
1.52046
1.47803
1.42881
1.37427
1.31779
1.2611
1.20437
1.14785
1.09177
1.03635
0.981806
0.928321
0.876076
0.825226
0.775906
0.728221
0.682238
0.637982
0.59543
0.55451
0.515105
0.477073
0.440267
0.404562
0.369889
0.336258
0.303767
0.272601
0.243022
0.215399
0.190378
0.169326
0.157516
0.167197
0.16465
0.16273
0.157741
0.159061
0.159984
0.154896
0.148544
0.142103
0.137991
0.148937
0.172343
0.189378
0.203234
0.215019
0.225179
0.233692
0.238996
0.237599
0.224397
0.189592
0.14673
0.114775
0.0910242
0.0740814
0.0628647
0.0562663
0.0531074
0.0522439
0.052695
0.0537153
0.0548025
0.0556662
0.0561858
0.0563715
0.0563351
0.0562617
0.0563868
0.0569917
0.0583668
0.0608181
0.0647364
0.0703629
0.0779864
0.0884494
0.103715
0.131089
0.168364
0.18751
0.234659
0.410505
0.580123
0.685923
0.731202
0.727812
0.689772
0.630173
0.559825
0.490822
0.425726
0.366273
0.31332
0.267051
0.227473
0.195679
0.179297
0.182314
0.186159
0.214786
0.252562
0.298037
0.350146
0.407241
0.466956
0.527273
0.58732
0.631885
0.637039
0.591606
0.494283
0.361626
0.229284
0.135198
0.0908518
0.0788729
0.0753564
0.0648339
0.0518597
0.0453817
0.0420094
0.0598996
0.112337
0.10866
0.159797
0.212885
0.212046
0.197313
0.181213
0.165999
0.151892
0.139092
0.127832
0.118236
0.110314
0.104
0.0992997
0.0990881
0.106211
0.1207
0.141603
0.166894
0.193299
0.216083
0.229234
0.230883
0.220711
0.188348
0.140442
0.0963488
0.0711457
0.0745703
0.0950121
0.114451
0.121855
0.114395
0.0996943
0.0946229
0.116741
0.176539
0.270937
0.350669
0.383599
0.414518
0.453058
0.492068
0.517938
0.530978
0.532236
0.523948
0.50881
0.489518
0.468481
0.447662
0.428527
0.412068
0.398892
0.389333
0.38357
0.381693
0.383736
0.38984
0.397651
0.405707
0.414015
0.422603
0.431506
0.440758
0.450393
0.460435
0.470896
0.481762
0.492981
0.50445
0.515987
0.52732
0.538061
0.547696
0.555593
0.561031
0.56326
0.561583
0.555465
0.544622
0.529085
0.509207
0.485615
0.45911
0.430533
0.400606
0.370093
0.345024
0.322152
0.301077
0.281764
0.264611
0.248892
0.235229
0.222254
0.209861
0.198115
0.187349
0.176576
0.166018
0.155818
0.146052
0.136763
0.128015
0.120061
0.113604
0.108852
0.106692
0.104397
0.10273
0.102521
0.10435
0.108359
0.114205
0.121167
0.128354
0.134934
0.140285
0.144059
0.146149
0.146615
0.1456
0.143272
0.139767
0.135162
0.129463
0.122629
0.114618
0.105448
0.0953937
0.0853985
0.0775613
0.0752887
0.084528
0.122345
0.191394
0.245502
0.28071
0.294158
0.289845
0.279535
0.270829
0.266895
0.268709
0.276449
0.285104
0.294501
0.304211
0.31319
0.319775
0.321827
0.316959
0.302573
0.284829
0.264992
0.245149
0.226533
0.20965
0.194527
0.180944
0.168545
0.156985
0.14633
0.141901
0.149625
0.162108
0.171492
0.177109
0.192382
0.222422
0.26697
0.310019
0.324286
0.299265
0.249348
0.195468
0.151398
0.0401314
0.0926839
0.181668
0.275872
0.259463
0.213184
0.172846
0.143421
0.122341
0.106868
0.0952044
0.0862435
0.0792709
0.073797
0.0694778
0.0660818
0.0636816
0.0632734
0.0658145
0.0725048
0.084149
0.100496
0.11987
0.139377
0.156727
0.169656
0.171427
0.157214
0.131598
0.107685
0.0995518
0.116628
0.14256
0.16135
0.162379
0.183402
0.233402
0.292159
0.322585
0.335809
0.340097
0.341058
0.343863
0.347593
0.349083
0.346687
0.341648
0.335556
0.329929
0.325821
0.323699
0.323537
0.325023
0.327772
0.331456
0.335853
0.340823
0.346263
0.352074
0.358146
0.364529
0.371148
0.377997
0.385109
0.392549
0.400404
0.408784
0.417807
0.427603
0.438293
0.449984
0.46275
0.476609
0.491495
0.507223
0.523455
0.539667
0.555134
0.568941
0.580041
0.58735
0.589891
0.586946
0.57818
0.563702
0.544052
0.520074
0.492702
0.462732
0.431577
0.404364
0.378916
0.355043
0.332845
0.312342
0.293409
0.27601
0.259923
0.244995
0.231132
0.218283
0.206205
0.194809
0.184056
0.173922
0.164383
0.15542
0.147016
0.139155
0.131785
0.124879
0.11868
0.113286
0.108746
0.105098
0.102346
0.100437
0.0992644
0.0986827
0.0985221
0.0986028
0.0987485
0.0988013
0.0986318
0.0981426
0.0972628
0.0959342
0.0940912
0.0916379
0.0884398
0.0843368
0.0791955
0.0731665
0.0674758
0.0651732
0.0719342
0.0997634
0.152841
0.196901
0.211105
0.221738
0.229227
0.235972
0.24161
0.244707
0.246154
0.247572
0.249939
0.254134
0.260147
0.267624
0.275729
0.282988
0.287281
0.285906
0.276078
0.262131
0.245621
0.228292
0.211637
0.196424
0.18288
0.170939
0.1604
0.151071
0.142807
0.135215
0.127728
0.120887
0.115802
0.11317
0.114861
0.121578
0.131783
0.1425
0.153284
0.16472
0.173441
0.174577
0.166993
0.0366783
0.211954
0.320816
0.271076
0.204703
0.155875
0.124093
0.103395
0.0893241
0.0793045
0.0718962
0.0662498
0.0618303
0.0582926
0.055422
0.0530919
0.0512605
0.0502133
0.0501888
0.0518411
0.0561698
0.0641148
0.0758613
0.0904092
0.106275
0.121897
0.134005
0.138252
0.133927
0.129148
0.13625
0.16752
0.212456
0.261024
0.291548
0.288077
0.291666
0.294515
0.29084
0.285152
0.280543
0.278093
0.27772
0.27834
0.279107
0.280059
0.281692
0.284244
0.287601
0.291418
0.295323
0.299085
0.302652
0.306101
0.309529
0.312988
0.316462
0.319887
0.323189
0.326329
0.329434
0.332425
0.335317
0.338165
0.341064
0.344158
0.347626
0.351688
0.356591
0.362602
0.369996
0.379039
0.389966
0.402944
0.418033
0.435131
0.453914
0.473788
0.493852
0.512916
0.529581
0.542389
0.550033
0.551583
0.546629
0.535351
0.518426
0.496771
0.471107
0.444685
0.420081
0.396277
0.373512
0.351995
0.331812
0.312951
0.295367
0.278995
0.26376
0.249575
0.236362
0.224037
0.212524
0.201756
0.191677
0.182239
0.173398
0.165113
0.157338
0.150017
0.143083
0.136433
0.130169
0.124391
0.11915
0.114471
0.110344
0.106736
0.103598
0.100872
0.0984976
0.0964091
0.0945379
0.0928103
0.0911462
0.0894584
0.0876519
0.0856242
0.0832646
0.0804539
0.0770719
0.0730617
0.0687844
0.0658685
0.0684344
0.0849305
0.122228
0.165019
0.182
0.189885
0.202696
0.216056
0.224932
0.226315
0.222378
0.216788
0.211765
0.208499
0.20753
0.20897
0.212759
0.218455
0.224963
0.230329
0.231611
0.226399
0.216984
0.20464
0.191219
0.178224
0.166488
0.156287
0.147562
0.140109
0.13371
0.128175
0.123341
0.119011
0.114759
0.1099
0.104753
0.100032
0.0961703
0.0930095
0.0903498
0.088856
0.0894323
0.0915
0.0929829
0.0926052
0.0390522
0.290941
0.24465
0.17703
0.132724
0.106515
0.0903785
0.0796091
0.0718474
0.0659059
0.0611545
0.0572309
0.053915
0.0510847
0.0486893
0.0467193
0.0451746
0.0440806
0.0435133
0.0437092
0.045202
0.0488518
0.0555069
0.0653516
0.0778038
0.0920892
0.107065
0.120775
0.133416
0.153467
0.194219
0.259021
0.346721
0.331828
0.29212
0.271731
0.259894
0.251497
0.245085
0.241348
0.240393
0.241754
0.244743
0.248688
0.253158
0.25789
0.262593
0.266907
0.270551
0.273437
0.275673
0.277487
0.279118
0.280744
0.282459
0.284282
0.286179
0.288074
0.289874
0.29156
0.292761
0.293409
0.293497
0.293076
0.292255
0.291194
0.29011
0.289269
0.288986
0.289625
0.291587
0.295303
0.30121
0.309723
0.321189
0.335829
0.353662
0.374419
0.397452
0.421683
0.445613
0.467426
0.485229
0.497381
0.50277
0.501017
0.492467
0.477904
0.458398
0.438085
0.417426
0.396728
0.376461
0.356933
0.338317
0.32069
0.304074
0.288459
0.273813
0.260087
0.247231
0.235191
0.223913
0.213342
0.203429
0.194129
0.1854
0.177202
0.1695
0.162249
0.155401
0.148901
0.142675
0.136756
0.131191
0.126006
0.121212
0.116812
0.112789
0.109121
0.105779
0.102727
0.0999282
0.0973344
0.0948882
0.0925182
0.0901377
0.0876451
0.0849257
0.0818545
0.078319
0.0743807
0.0707887
0.0698476
0.0767931
0.0992943
0.135231
0.161392
0.168658
0.180099
0.19744
0.211268
0.214764
0.208978
0.199174
0.189151
0.18074
0.174553
0.170517
0.1689
0.16995
0.173641
0.179314
0.185286
0.188555
0.186877
0.180865
0.171721
0.161192
0.150797
0.141454
0.133519
0.126969
0.121596
0.117133
0.113349
0.110101
0.107296
0.104838
0.102491
0.099669
0.0962865
0.0924172
0.0881452
0.0836322
0.0792193
0.0753399
0.072218
0.0697621
0.0679784
0.0371235
0.205831
0.154169
0.117061
0.0972141
0.0853808
0.0771162
0.0705706
0.0650231
0.0602114
0.056002
0.0522847
0.0489834
0.0460802
0.0436035
0.0415943
0.040073
0.0390822
0.0386425
0.0387675
0.0396179
0.0416574
0.0457013
0.0525317
0.0623994
0.0753531
0.0919369
0.113181
0.144455
0.197791
0.275927
0.367736
0.344312
0.288982
0.2536
0.234175
0.223521
0.218135
0.21644
0.217701
0.221207
0.226232
0.232098
0.238204
0.244041
0.249197
0.253387
0.256522
0.258722
0.26025
0.261422
0.262524
0.263765
0.265267
0.267072
0.269149
0.271413
0.273732
0.275946
0.277238
0.2773
0.276107
0.273723
0.270287
0.266001
0.261116
0.255911
0.250694
0.245798
0.241589
0.238482
0.236944
0.237488
0.240662
0.247004
0.257001
0.271011
0.289172
0.311275
0.336638
0.364002
0.391519
0.416899
0.437831
0.452446
0.459602
0.459109
0.451493
0.439047
0.424229
0.407823
0.390638
0.373271
0.356129
0.33947
0.323447
0.308144
0.293598
0.279818
0.266791
0.254492
0.242894
0.231961
0.221657
0.211948
0.202799
0.194177
0.18605
0.178385
0.171146
0.164295
0.157797
0.151618
0.14571
0.140103
0.134811
0.129838
0.125187
0.120852
0.116821
0.113077
0.109595
0.106349
0.103304
0.100412
0.0976155
0.0948367
0.0919774
0.0889145
0.085505
0.0816526
0.0775912
0.0744548
0.075128
0.0852809
0.109863
0.138751
0.153018
0.159698
0.176266
0.196099
0.206889
0.204612
0.194437
0.182166
0.17067
0.161059
0.153352
0.147274
0.1433
0.142007
0.143778
0.148383
0.154468
0.15905
0.15997
0.156825
0.150344
0.142069
0.133525
0.12574
0.119181
0.113907
0.109752
0.106468
0.103808
0.101575
0.0996382
0.0979367
0.0964282
0.0948382
0.0928044
0.0901868
0.086978
0.0832738
0.0792561
0.0751398
0.0711177
0.0674056
0.0643946
0.0407704
0.132734
0.108605
0.0954874
0.0868381
0.0796753
0.0732121
0.0672532
0.0618474
0.0570661
0.052829
0.0489985
0.0455056
0.0423727
0.0396813
0.0375022
0.0358619
0.0349775
0.0348003
0.035237
0.0362351
0.0379464
0.0409922
0.0463939
0.055029
0.0678738
0.0873765
0.11966
0.176224
0.249719
0.336974
0.341426
0.285634
0.241608
0.216919
0.204771
0.200112
0.200158
0.203366
0.208774
0.215615
0.223209
0.230952
0.238337
0.245017
0.250842
0.255862
0.260281
0.264379
0.268431
0.27265
0.277156
0.28197
0.287024
0.292172
0.297205
0.301873
0.305907
0.308405
0.308657
0.306616
0.302302
0.29587
0.287598
0.277875
0.267156
0.255923
0.244646
0.233769
0.22371
0.214885
0.20773
0.202721
0.200372
0.201224
0.205813
0.214641
0.228116
0.246438
0.269436
0.296387
0.32581
0.355371
0.382249
0.404002
0.418516
0.425002
0.424051
0.417885
0.408145
0.395997
0.382375
0.367978
0.3533
0.338681
0.324343
0.310426
0.297016
0.28416
0.271879
0.260177
0.249048
0.238479
0.22845
0.21894
0.209927
0.201385
0.193292
0.185622
0.178348
0.171443
0.164883
0.158643
0.152703
0.147034
0.141662
0.136585
0.131801
0.127302
0.12308
0.11912
0.115402
0.111905
0.108596
0.105437
0.102372
0.0993305
0.0962128
0.092887
0.0892026
0.0851133
0.0810333
0.0783948
0.0804633
0.0925229
0.115893
0.136684
0.144277
0.15373
0.174945
0.195477
0.202635
0.196742
0.185049
0.172581
0.161131
0.151171
0.142327
0.134457
0.128312
0.124775
0.12461
0.127971
0.13368
0.139078
0.142109
0.141465
0.137322
0.130935
0.123797
0.117039
0.11126
0.106632
0.103077
0.100407
0.0984114
0.0968989
0.0957192
0.0947665
0.0939448
0.0930873
0.09189
0.0900809
0.0875307
0.0842867
0.0805502
0.076581
0.0725895
0.0687731
0.065495
0.0454655
0.103911
0.0994216
0.0931707
0.0857187
0.0785508
0.0719342
0.0657937
0.0603395
0.0556263
0.0513959
0.0474193
0.0436302
0.040105
0.0370571
0.0346524
0.0329772
0.0322884
0.0324003
0.0331085
0.0343255
0.0362037
0.0393816
0.0450225
0.0543827
0.0697869
0.0977881
0.146801
0.215075
0.284996
0.315113
0.278455
0.233365
0.205398
0.191978
0.187703
0.189022
0.193888
0.201104
0.209871
0.219549
0.22959
0.239566
0.249224
0.258498
0.267476
0.276334
0.285266
0.294437
0.303944
0.313808
0.323959
0.334234
0.344378
0.35405
0.362845
0.370323
0.376067
0.378468
0.377733
0.373666
0.366203
0.355479
0.34185
0.325864
0.308209
0.289623
0.270813
0.252402
0.234933
0.21891
0.204842
0.19327
0.18475
0.179801
0.178853
0.182281
0.190467
0.203762
0.222368
0.246146
0.274291
0.304863
0.334643
0.36109
0.380907
0.3929
0.397683
0.396931
0.391928
0.38385
0.37368
0.362188
0.349941
0.337345
0.324682
0.312143
0.299858
0.287914
0.276365
0.265243
0.254567
0.244343
0.23457
0.225238
0.216338
0.207856
0.199774
0.192076
0.184743
0.177756
0.171095
0.164747
0.158696
0.152921
0.147435
0.142235
0.137317
0.132673
0.128293
0.124165
0.120271
0.11659
0.113093
0.109742
0.106488
0.103257
0.0999486
0.0964228
0.0925376
0.0883161
0.0843244
0.0821935
0.085306
0.0979847
0.118345
0.132251
0.136607
0.14883
0.173604
0.194641
0.199238
0.192005
0.180678
0.169182
0.158384
0.148216
0.138143
0.128432
0.120201
0.114552
0.112517
0.114494
0.119466
0.125557
0.130305
0.131839
0.129752
0.124959
0.118888
0.112761
0.107313
0.102848
0.0993987
0.0968716
0.0951292
0.0940277
0.0934303
0.0932043
0.0932019
0.0932161
0.0929294
0.0919722
0.0901063
0.0872719
0.0836162
0.0794497
0.075133
0.0710139
0.067484
0.0500689
0.101869
0.102707
0.0950137
0.0864004
0.0788622
0.0720605
0.0658534
0.060529
0.0559971
0.0517617
0.047511
0.0432184
0.0390809
0.035536
0.0329773
0.031755
0.0314835
0.0318495
0.0329014
0.0348382
0.0380941
0.0433342
0.051509
0.0642582
0.0858553
0.123033
0.176849
0.235688
0.272796
0.26137
0.225536
0.197281
0.182944
0.178741
0.180912
0.18711
0.195986
0.206713
0.218688
0.231414
0.244512
0.257751
0.271042
0.284395
0.297862
0.311509
0.3254
0.339584
0.354072
0.368815
0.383678
0.398426
0.412716
0.426101
0.438047
0.447957
0.454811
0.458048
0.457586
0.452966
0.443883
0.430295
0.412494
0.391125
0.367128
0.3416
0.315604
0.290006
0.265435
0.242369
0.22128
0.202748
0.187538
0.176421
0.169909
0.168174
0.17134
0.179608
0.193257
0.212525
0.237339
0.266608
0.296621
0.325432
0.347963
0.363968
0.373558
0.377433
0.376638
0.372271
0.365318
0.356576
0.346657
0.336014
0.324972
0.313769
0.302574
0.291508
0.280658
0.270086
0.259834
0.249928
0.240385
0.23121
0.222406
0.213967
0.205886
0.198151
0.19075
0.18367
0.176899
0.170427
0.164243
0.158338
0.152707
0.147357
0.142282
0.137475
0.132928
0.128627
0.124559
0.120703
0.117032
0.113511
0.11009
0.106698
0.103229
0.0995434
0.0955169
0.0912403
0.087384
0.0856806
0.0894051
0.101711
0.118477
0.127272
0.130368
0.144599
0.170772
0.191576
0.196365
0.190171
0.180356
0.170398
0.160458
0.14978
0.138226
0.126524
0.116242
0.108751
0.104983
0.105491
0.109878
0.11647
0.122655
0.126071
0.125752
0.122265
0.116958
0.111138
0.105679
0.101016
0.0973012
0.094543
0.092688
0.0916533
0.0913371
0.0916133
0.0923107
0.0931809
0.0938794
0.0939842
0.0930809
0.0909549
0.087666
0.0834557
0.0787198
0.0739969
0.0699064
0.0545334
0.108657
0.107806
0.0977865
0.0883351
0.0804659
0.0735515
0.0674469
0.0623829
0.0580713
0.0537988
0.0492364
0.0444992
0.0399995
0.0363798
0.0342378
0.0337758
0.0340134
0.0350819
0.0372311
0.0407502
0.045974
0.0534258
0.0644092
0.0817349
0.109326
0.148861
0.194861
0.230401
0.235102
0.214512
0.190668
0.17637
0.172022
0.174582
0.181645
0.191791
0.204185
0.218247
0.233498
0.24954
0.266073
0.282879
0.299796
0.316705
0.333547
0.350332
0.367131
0.384036
0.401108
0.418337
0.435613
0.452706
0.469265
0.484822
0.498805
0.510566
0.518853
0.524055
0.525486
0.522388
0.514114
0.500253
0.480777
0.456163
0.427443
0.396097
0.363766
0.331854
0.301296
0.272592
0.246038
0.221891
0.200861
0.184054
0.172436
0.166116
0.164961
0.168872
0.178001
0.192672
0.213296
0.240003
0.268445
0.296177
0.320473
0.339531
0.352698
0.36024
0.36295
0.3618
0.357717
0.351487
0.343731
0.334923
0.325419
0.315487
0.305327
0.295094
0.284904
0.274844
0.264982
0.255364
0.246025
0.236986
0.228259
0.219851
0.211761
0.203986
0.196518
0.18935
0.182473
0.17588
0.169565
0.163522
0.157744
0.152238
0.146998
0.142019
0.137295
0.132815
0.128567
0.124532
0.120686
0.116997
0.113415
0.109872
0.106258
0.102438
0.0983103
0.0940147
0.0902765
0.088844
0.0927462
0.10404
0.117358
0.122621
0.125187
0.14005
0.16587
0.186443
0.192791
0.18913
0.181806
0.173511
0.164097
0.152803
0.140049
0.126948
0.114958
0.105591
0.100154
0.0994779
0.103444
0.110523
0.117968
0.122992
0.124133
0.121649
0.116823
0.111049
0.105332
0.100236
0.0960208
0.0927886
0.0905594
0.0893046
0.0889562
0.089403
0.0904725
0.0919026
0.0933291
0.0943136
0.0944128
0.0932764
0.0907578
0.0869972
0.082296
0.0771922
0.0724929
0.059064
0.116617
0.113181
0.101715
0.0914917
0.0831859
0.0762081
0.070345
0.0655982
0.0615517
0.0575101
0.0531348
0.048628
0.0445325
0.041481
0.0399583
0.0398166
0.0406854
0.0426614
0.0459092
0.0506812
0.0574497
0.0671951
0.0816165
0.102752
0.131606
0.165577
0.194935
0.206676
0.199151
0.183503
0.171266
0.166918
0.169439
0.176796
0.187602
0.201052
0.216601
0.233774
0.252117
0.2712
0.290613
0.309971
0.328961
0.347404
0.365286
0.382743
0.399986
0.417227
0.434611
0.452173
0.469817
0.48732
0.504337
0.520417
0.535001
0.547424
0.557277
0.564503
0.568339
0.567895
0.562267
0.550661
0.532563
0.507941
0.477471
0.442665
0.405681
0.368638
0.333083
0.299862
0.269451
0.241673
0.216761
0.195766
0.180342
0.170542
0.166095
0.166616
0.17215
0.182955
0.199611
0.221786
0.247684
0.274536
0.299419
0.320151
0.335662
0.345868
0.351312
0.352802
0.351168
0.347145
0.341331
0.334199
0.326113
0.317361
0.308167
0.29871
0.289131
0.279544
0.270036
0.260675
0.251513
0.242587
0.233921
0.225531
0.217425
0.209606
0.202073
0.194822
0.187849
0.181147
0.174712
0.168541
0.162628
0.156975
0.151579
0.146436
0.141541
0.136886
0.132461
0.12825
0.124231
0.120376
0.116638
0.112948
0.109202
0.105267
0.101062
0.0967529
0.093074
0.0917232
0.0954307
0.105389
0.115768
0.118655
0.120716
0.134838
0.159025
0.179313
0.187843
0.187296
0.182532
0.175698
0.166815
0.155379
0.141823
0.127535
0.114145
0.10337
0.0967479
0.0953358
0.0992
0.106881
0.115481
0.121845
0.124113
0.12231
0.117697
0.111764
0.105637
0.0999901
0.0951771
0.091372
0.0886493
0.0870159
0.0864222
0.0867617
0.0878597
0.0894527
0.0911816
0.0926222
0.093353
0.0930332
0.091462
0.0885948
0.0845601
0.0797201
0.0748266
0.0638948
0.123194
0.119232
0.106816
0.0957605
0.0869151
0.0798183
0.074146
0.0697194
0.0661309
0.0627564
0.0591948
0.0555305
0.0522199
0.0498344
0.0488503
0.048841
0.0501318
0.0527547
0.0568998
0.0629534
0.0715663
0.0836612
0.100217
0.121598
0.146111
0.168367
0.181215
0.181918
0.174627
0.166568
0.163032
0.16534
0.172474
0.183277
0.197032
0.213268
0.231542
0.251362
0.272171
0.293361
0.314316
0.334511
0.353634
0.371645
0.388751
0.405305
0.421686
0.438195
0.454987
0.472031
0.489128
0.505954
0.522121
0.537214
0.5508
0.562391
0.572261
0.580119
0.585293
0.586899
0.583929
0.575376
0.560363
0.538299
0.509188
0.474033
0.435119
0.395134
0.356191
0.319533
0.286389
0.256557
0.229704
0.206344
0.188921
0.177153
0.17066
0.168802
0.171323
0.178758
0.191922
0.210901
0.234377
0.259834
0.2844
0.305749
0.322572
0.334534
0.341965
0.345505
0.345868
0.343708
0.339576
0.333922
0.327105
0.319419
0.311101
0.302349
0.293326
0.284164
0.274972
0.265837
0.256826
0.24799
0.239367
0.230982
0.222853
0.214987
0.20739
0.200061
0.192999
0.1862
0.17966
0.173376
0.167346
0.161565
0.156033
0.150745
0.145698
0.140885
0.136298
0.131925
0.127747
0.123737
0.119854
0.116031
0.112167
0.108136
0.103869
0.0995365
0.0958422
0.0943883
0.0976141
0.106146
0.114205
0.115494
0.116799
0.129081
0.150698
0.17034
0.180928
0.183416
0.181092
0.175705
0.167502
0.156137
0.142104
0.12704
0.112769
0.101172
0.0939637
0.0923647
0.0965419
0.105015
0.114697
0.122121
0.125148
0.123688
0.119042
0.112799
0.106191
0.0999785
0.0945852
0.0902405
0.0870562
0.0850604
0.0842098
0.0843928
0.0854236
0.0870322
0.0888649
0.0905149
0.0915824
0.0917427
0.0908
0.0887109
0.0855492
0.0814486
0.0768777
0.0670405
0.129955
0.125956
0.112835
0.100984
0.0915088
0.084107
0.0784212
0.0741814
0.0710374
0.0684977
0.0661235
0.0637702
0.0616263
0.0600709
0.0594872
0.0598056
0.0615313
0.0648116
0.0698934
0.0771508
0.0870478
0.0999762
0.11584
0.133345
0.14958
0.161027
0.165764
0.164803
0.16156
0.159952
0.162325
0.168962
0.179245
0.192636
0.208782
0.227333
0.247819
0.269621
0.291984
0.314085
0.335178
0.354771
0.372746
0.389345
0.405054
0.420442
0.435999
0.452012
0.468483
0.48512
0.501417
0.516806
0.530811
0.54314
0.553708
0.562684
0.570577
0.577212
0.582083
0.584348
0.582939
0.576749
0.56475
0.546035
0.520007
0.486835
0.448551
0.408262
0.36829
0.329894
0.295102
0.264433
0.237204
0.214057
0.19588
0.183101
0.175393
0.171982
0.172556
0.177732
0.18851
0.205202
0.226732
0.250782
0.274599
0.295877
0.313233
0.326202
0.334959
0.340002
0.341917
0.341268
0.33854
0.334145
0.328424
0.321667
0.314119
0.305989
0.297455
0.288666
0.279749
0.270806
0.261919
0.253153
0.244556
0.236164
0.228002
0.220085
0.212423
0.205019
0.197875
0.190988
0.184357
0.177977
0.171847
0.16596
0.160314
0.154906
0.149732
0.144787
0.140065
0.135554
0.131241
0.127099
0.123092
0.119157
0.115198
0.111095
0.106782
0.102413
0.0986345
0.0969217
0.0994633
0.106614
0.112954
0.113181
0.113457
0.123155
0.141513
0.159862
0.171821
0.176815
0.176668
0.172691
0.165245
0.154167
0.14008
0.124778
0.11024
0.0984822
0.0913567
0.0901827
0.095135
0.104611
0.115288
0.123451
0.126834
0.125374
0.120475
0.113828
0.106735
0.100015
0.0941415
0.0893863
0.0858928
0.0837082
0.0827965
0.083043
0.0842518
0.0861421
0.0883544
0.090478
0.0920971
0.0928404
0.0924315
0.0907487
0.0879281
0.0842294
0.0798821
0.0686932
0.135808
0.132737
0.11954
0.107195
0.0971263
0.0892444
0.083258
0.0788853
0.0758263
0.0737304
0.0722419
0.0711165
0.0703053
0.069944
0.0700368
0.0711225
0.0735475
0.0775388
0.0833217
0.0910943
0.100913
0.112476
0.124898
0.136716
0.146323
0.152639
0.155622
0.156482
0.157372
0.16039
0.166613
0.176132
0.188725
0.204209
0.222372
0.242847
0.265047
0.288163
0.31123
0.333282
0.353586
0.371832
0.38819
0.403213
0.41765
0.432234
0.447482
0.463541
0.480102
0.496439
0.511628
0.524847
0.535576
0.543723
0.5498
0.55476
0.559133
0.562966
0.565975
0.567427
0.566212
0.561135
0.551101
0.53512
0.512339
0.482143
0.44588
0.407391
0.368631
0.331609
0.297485
0.266688
0.239557
0.216731
0.198949
0.186436
0.178607
0.174573
0.174131
0.178104
0.187623
0.203038
0.223304
0.246202
0.26913
0.28992
0.307257
0.320654
0.330197
0.336265
0.339328
0.339851
0.338247
0.334883
0.330074
0.324098
0.317201
0.309598
0.301479
0.293006
0.284318
0.275531
0.266741
0.258023
0.249436
0.241025
0.232823
0.22485
0.217121
0.209645
0.202423
0.195457
0.188744
0.182283
0.17607
0.170096
0.16436
0.158857
0.153584
0.148537
0.143709
0.139092
0.134673
0.130431
0.12633
0.122313
0.11829
0.114145
0.109806
0.105399
0.10149
0.0994074
0.101135
0.107005
0.112147
0.111729
0.110827
0.117547
0.132177
0.148451
0.160769
0.167436
0.169018
0.166301
0.159651
0.149098
0.13541
0.120462
0.106326
0.0951182
0.0887825
0.0886672
0.0948523
0.105505
0.117028
0.125549
0.128853
0.127058
0.121727
0.11463
0.1071
0.0999749
0.0937614
0.088765
0.0851596
0.0830137
0.0823016
0.0829074
0.0846255
0.0871633
0.0901524
0.0931772
0.095811
0.0976398
0.0982747
0.0973858
0.0947943
0.0909474
0.086123
0.068469
0.139636
0.138748
0.126501
0.11435
0.104037
0.0957365
0.0893192
0.0845819
0.0812831
0.0791605
0.0779547
0.0774558
0.0775539
0.0782639
0.079414
0.0814632
0.0846466
0.089137
0.0950217
0.102253
0.110584
0.119534
0.128438
0.136581
0.143364
0.14849
0.152195
0.155404
0.159484
0.165627
0.17444
0.186091
0.200616
0.217977
0.237965
0.26012
0.283688
0.307662
0.330908
0.352412
0.371542
0.388208
0.402854
0.416296
0.429497
0.443303
0.458206
0.474192
0.490676
0.506591
0.520695
0.531858
0.539305
0.543002
0.544161
0.544614
0.544786
0.544787
0.544615
0.543782
0.541239
0.535818
0.526351
0.511786
0.491286
0.464557
0.432424
0.39685
0.360263
0.32477
0.291719
0.26188
0.235887
0.214475
0.198212
0.186964
0.179817
0.175883
0.175256
0.179032
0.188373
0.203467
0.223135
0.245183
0.267195
0.287239
0.304173
0.317569
0.327474
0.334172
0.338027
0.33941
0.338665
0.336106
0.332021
0.326674
0.320304
0.31313
0.305348
0.297129
0.288622
0.279956
0.271234
0.262543
0.253951
0.245511
0.237261
0.229228
0.221433
0.213885
0.20659
0.199551
0.192767
0.186235
0.179954
0.173912
0.168106
0.162532
0.157187
0.152066
0.147164
0.142473
0.137983
0.133674
0.129515
0.125453
0.121401
0.11725
0.112918
0.108486
0.104432
0.101919
0.102759
0.107444
0.111804
0.111121
0.109085
0.112749
0.123401
0.136858
0.148428
0.155771
0.158465
0.156744
0.150874
0.141051
0.128205
0.114207
0.101149
0.0912044
0.08636
0.0879108
0.0957262
0.107634
0.119743
0.128161
0.130935
0.128503
0.122612
0.115069
0.10718
0.099772
0.0933593
0.0882733
0.0847121
0.0827585
0.0823866
0.0834684
0.0857812
0.0890201
0.0928183