/*--------------------------------*- C++ -*----------------------------------*\
  =========                 |
  \\      /  F ield         | OpenFOAM: The Open Source CFD Toolbox
   \\    /   O peration     | Website:  https://openfoam.org
    \\  /    A nd           | Version:  9
     \\/     M anipulation  |
\*---------------------------------------------------------------------------*/
FoamFile
{
    format      ascii;
    class       volScalarField;
    location    "0.28";
    object      kU;
}
// * * * * * * * * * * * * * * * * * * * * * * * * * * * * * * * * * * * * * //

dimensions      [0 2 -2 0 0 0 0];

internalField   nonuniform List<scalar> 
12225
(
0.0849307
0.0640827
0.0496646
0.0399142
0.0336644
0.0301223
0.0287307
0.0290834
0.0308843
0.0339289
0.0380915
0.0433083
0.049544
0.0567248
0.0646212
0.0726575
0.0798615
0.0867749
0.104763
0.0974246
0.0932713
0.0930118
0.0968335
0.104734
0.116558
0.132016
0.150751
0.172406
0.196641
0.22308
0.251177
0.280025
0.308188
0.33355
0.3539
0.365519
0.108586
0.104432
0.100807
0.0979252
0.095967
0.095045
0.0952324
0.0965962
0.0992271
0.10327
0.108942
0.116507
0.126215
0.138197
0.152378
0.168435
0.185856
0.203986
0.109681
0.106508
0.10343
0.100592
0.0980972
0.0960059
0.0943363
0.0930772
0.0922052
0.0917019
0.0915742
0.0918734
0.0927047
0.0942182
0.0965756
0.0999046
0.104283
0.109728
0.110096
0.107473
0.104862
0.102336
0.0999509
0.0977427
0.0957283
0.0939071
0.0922662
0.0907867
0.0894502
0.0882464
0.0871783
0.0862617
0.0855198
0.0849745
0.0846598
0.0845956
0.110257
0.107919
0.105617
0.103373
0.10121
0.0991477
0.0971962
0.0953586
0.0936307
0.092002
0.0904583
0.088983
0.0875601
0.086177
0.0848261
0.0835057
0.0822202
0.0809792
0.110315
0.108112
0.105987
0.103936
0.101961
0.100064
0.0982498
0.0965189
0.0948694
0.0932964
0.0917922
0.0903462
0.0889462
0.0875785
0.0862297
0.0848874
0.0835429
0.0821998
0.110335
0.108188
0.106153
0.104215
0.102364
0.100595
0.0989047
0.0972893
0.0957459
0.0942704
0.0928574
0.0915
0.0901901
0.0889184
0.0876752
0.0864509
0.0852375
0.0840398
0.110341
0.108216
0.10622
0.104339
0.102559
0.100872
0.0992682
0.0977427
0.0962899
0.0949048
0.093582
0.0923156
0.0910993
0.0899261
0.0887888
0.0876807
0.0865962
0.0855433
0.110343
0.108225
0.106244
0.104388
0.102644
0.101
0.0994485
0.0979809
0.0965909
0.0952725
0.0940199
0.0928274
0.091689
0.0905987
0.0895505
0.0885389
0.0875597
0.0866217
0.110343
0.108227
0.106252
0.104406
0.102677
0.101054
0.0995288
0.0980932
0.0967401
0.0954634
0.094257
0.0931151
0.0920322
0.0910026
0.090021
0.0890824
0.0881836
0.0873324
0.110343
0.108227
0.106255
0.104412
0.102688
0.101073
0.0995592
0.0981378
0.0968021
0.0955461
0.0943637
0.0932494
0.0921978
0.0912038
0.0902624
0.0893692
0.0885213
0.0877258
0.110343
0.108227
0.106255
0.104414
0.102692
0.101081
0.0995726
0.0981582
0.0968314
0.0955864
0.0944173
0.0933189
0.0922861
0.0913141
0.0903986
0.0895355
0.0887222
0.0879652
0.110342
0.108227
0.106255
0.104415
0.102694
0.101085
0.0995791
0.0981682
0.096846
0.0956065
0.0944444
0.0933545
0.0923321
0.0913729
0.0904727
0.0896281
0.0888368
0.0881046
0.110342
0.108227
0.106255
0.104415
0.102696
0.101088
0.0995831
0.0981741
0.0968542
0.0956176
0.0944589
0.0933732
0.0923559
0.0914029
0.0905106
0.0896755
0.0888958
0.0881768
0.110342
0.108227
0.106255
0.104415
0.102697
0.10109
0.0995865
0.0981791
0.0968611
0.0956265
0.09447
0.0933867
0.0923723
0.0914226
0.0905341
0.0897037
0.0889292
0.088216
0.110342
0.108226
0.106255
0.104415
0.102697
0.101092
0.0995898
0.0981842
0.0968682
0.0956357
0.0944815
0.0934006
0.0923886
0.0914414
0.0905556
0.0897277
0.0889558
0.0882448
0.110341
0.108225
0.106254
0.104415
0.102698
0.101094
0.0995934
0.0981899
0.0968763
0.0956466
0.0944951
0.0934171
0.0924079
0.0914634
0.0905801
0.0897544
0.0889842
0.088274
0.110341
0.108224
0.106253
0.104414
0.102698
0.101096
0.0995975
0.0981965
0.0968858
0.0956591
0.094511
0.0934363
0.0924303
0.0914889
0.0906082
0.0897846
0.0890157
0.0883059
0.11034
0.108224
0.106252
0.104414
0.102699
0.101098
0.0996018
0.0982032
0.096895
0.0956712
0.0945259
0.0934539
0.0924506
0.0915116
0.0906329
0.0898108
0.0890427
0.0883329
0.11034
0.108223
0.106252
0.104415
0.102701
0.101101
0.0996066
0.0982098
0.0969037
0.0956819
0.0945386
0.0934685
0.0924669
0.0915291
0.0906513
0.0898297
0.0890614
0.0883509
0.11034
0.108223
0.106252
0.104416
0.102703
0.101104
0.0996103
0.0982142
0.0969085
0.095687
0.0945436
0.0934732
0.0924707
0.0915319
0.0906525
0.0898288
0.089058
0.0883445
0.110339
0.108223
0.106252
0.104415
0.1027
0.101099
0.0996008
0.0981991
0.0968864
0.0956565
0.0945036
0.0934226
0.0924088
0.0914579
0.0905659
0.0897293
0.0889452
0.0882184
0.110339
0.10822
0.106243
0.104395
0.102665
0.101043
0.0995212
0.0980918
0.0967489
0.0954867
0.0943005
0.0931855
0.0921377
0.0911531
0.0902281
0.0893594
0.0885443
0.0877877
0.110333
0.108196
0.106186
0.104289
0.102495
0.100798
0.099195
0.0976817
0.0962543
0.0949095
0.093644
0.0924545
0.0913372
0.0902884
0.0893045
0.088382
0.0875179
0.0867167
0.110301
0.10808
0.105944
0.103891
0.101928
0.100058
0.0982879
0.0966194
0.0950535
0.0935883
0.0922201
0.0909439
0.089755
0.0886481
0.0876178
0.0866586
0.0857657
0.0849413
0.110155
0.107649
0.105166
0.102757
0.100461
0.0983078
0.0963108
0.0944736
0.0927935
0.0912634
0.0898743
0.0886155
0.0874743
0.086438
0.0854941
0.0846317
0.0838414
0.0831194
0.109593
0.106332
0.103137
0.100146
0.0974534
0.095101
0.093089
0.0913996
0.0900078
0.0888839
0.0879944
0.0873044
0.0867799
0.0863896
0.0861042
0.0858966
0.085745
0.0856339
0.107274
0.101431
0.0964554
0.0927345
0.0903072
0.0890891
0.0889519
0.0897442
0.091305
0.0934737
0.0960974
0.0990345
0.102157
0.105357
0.108542
0.111639
0.114599
0.117361
0.094419
0.0792226
0.067365
0.05806
0.0507577
0.0450523
0.0406356
0.0372657
0.0347476
0.032921
0.0316528
0.0308313
0.0303627
0.0301677
0.0301804
0.0303457
0.0306192
0.0309628
0.026237
0.0404114
0.0455376
0.0497008
0.051464
0.0520183
0.0511015
0.0501618
0.0507127
0.0522499
0.0547851
0.0583729
0.063118
0.0691936
0.0768341
0.0863838
0.0970951
0.107487
0.116788
0.123901
0.127264
0.124748
0.113589
0.0909192
0.0595094
0.0350847
0.0213411
0.0205211
0.0216787
0.0232026
0.0250046
0.0274168
0.0297667
0.0296651
0.02779
0.0253516
0.0233294
0.0223197
0.0228669
0.0252635
0.0293029
0.0355945
0.0483993
0.0854066
0.153235
0.216121
0.274883
0.326961
0.371114
0.406962
0.434673
0.454746
0.467864
0.474796
0.476333
0.473252
0.466292
0.456139
0.44341
0.428644
0.412282
0.395338
0.378329
0.361312
0.344356
0.327532
0.310906
0.294542
0.278496
0.262823
0.247568
0.232772
0.218466
0.204671
0.191395
0.178629
0.166353
0.154531
0.143122
0.13208
0.121369
0.110967
0.100877
0.0911302
0.0817803
0.0729066
0.0646197
0.0571135
0.0507977
0.0472547
0.0501591
0.0493951
0.0488189
0.0473223
0.0477183
0.0479951
0.0464689
0.0445631
0.0426308
0.0413973
0.044681
0.0517028
0.0568133
0.0609703
0.0645057
0.0675538
0.0701076
0.0716988
0.0712796
0.0673192
0.0568776
0.0440191
0.0344326
0.0273073
0.0222244
0.0188594
0.0168799
0.0159322
0.0156732
0.0158085
0.0161146
0.0164408
0.0166999
0.0168557
0.0169115
0.0169005
0.0168785
0.016916
0.0170975
0.01751
0.0182454
0.0194209
0.0211089
0.0233959
0.0265348
0.0311145
0.0393268
0.0505091
0.0562529
0.0703978
0.123151
0.174037
0.205777
0.21936
0.218344
0.206932
0.189052
0.167948
0.147247
0.127718
0.109882
0.093996
0.0801154
0.068242
0.0587037
0.0537891
0.0546942
0.0558476
0.0644357
0.0757686
0.0894111
0.105044
0.122172
0.140087
0.158182
0.176196
0.189565
0.191112
0.177482
0.148285
0.108488
0.0687852
0.0405594
0.0272555
0.0236619
0.0226069
0.0194502
0.0155579
0.0136145
0.0126028
0.0179699
0.0337012
0.0325979
0.0479391
0.0638656
0.0636138
0.059194
0.0543638
0.0497997
0.0455677
0.0417277
0.0383495
0.0354709
0.0330942
0.0312001
0.0297899
0.0297264
0.0318633
0.0362101
0.0424808
0.0500682
0.0579898
0.0648248
0.0687703
0.0692649
0.0662133
0.0565044
0.0421326
0.0289046
0.0213437
0.0223711
0.0285036
0.0343354
0.0365566
0.0343184
0.0299083
0.0283869
0.0350224
0.0529617
0.081281
0.105201
0.11508
0.124355
0.135917
0.14762
0.155381
0.159293
0.159671
0.157184
0.152643
0.146855
0.140544
0.134299
0.128558
0.12362
0.119668
0.1168
0.115071
0.114508
0.115121
0.116952
0.119295
0.121712
0.124204
0.126781
0.129452
0.132227
0.135118
0.138131
0.141269
0.144529
0.147894
0.151335
0.154796
0.158196
0.161418
0.164309
0.166678
0.168309
0.168978
0.168475
0.16664
0.163387
0.158725
0.152762
0.145685
0.137733
0.12916
0.120182
0.111028
0.103507
0.0966457
0.0903232
0.0845292
0.0793832
0.0746677
0.0705687
0.0666762
0.0629583
0.0594346
0.0562047
0.0529728
0.0498055
0.0467455
0.0438155
0.041029
0.0384044
0.0360183
0.0340811
0.0326556
0.0320076
0.031319
0.0308189
0.0307562
0.031305
0.0325077
0.0342614
0.03635
0.0385063
0.0404802
0.0420854
0.0432177
0.0438448
0.0439845
0.0436801
0.0429816
0.0419301
0.0405486
0.0388388
0.0367887
0.0343853
0.0316343
0.0286181
0.0256195
0.0232684
0.0225866
0.0253584
0.0367036
0.0574181
0.0736507
0.0842129
0.0882475
0.0869535
0.0838606
0.0812488
0.0800686
0.0806127
0.0829348
0.0855311
0.0883503
0.0912632
0.093957
0.0959326
0.0965481
0.0950878
0.0907719
0.0854488
0.0794975
0.0735448
0.0679598
0.0628951
0.058358
0.0542831
0.0505635
0.0470956
0.0438991
0.0425702
0.0448876
0.0486324
0.0514477
0.0531327
0.0577146
0.0667265
0.080091
0.0930058
0.0972859
0.0897795
0.0748044
0.0586405
0.0454195
0.0120394
0.0278052
0.0545005
0.0827617
0.077839
0.0639553
0.0518538
0.0430264
0.0367023
0.0320605
0.0285613
0.0258731
0.0237813
0.0221391
0.0208433
0.0198245
0.0191045
0.018982
0.0197443
0.0217514
0.0252447
0.0301487
0.0359611
0.0418131
0.0470182
0.0508967
0.0514281
0.0471641
0.0394793
0.0323054
0.0298655
0.0349884
0.0427679
0.0484051
0.0487138
0.0550205
0.0700205
0.0876477
0.0967755
0.100743
0.102029
0.102317
0.103159
0.104278
0.104725
0.104006
0.102494
0.100667
0.0989786
0.0977464
0.0971098
0.097061
0.0975069
0.0983316
0.0994369
0.100756
0.102247
0.103879
0.105622
0.107444
0.109359
0.111344
0.113399
0.115533
0.117765
0.120121
0.122635
0.125342
0.128281
0.131488
0.134995
0.138825
0.142983
0.147448
0.152167
0.157036
0.1619
0.16654
0.170682
0.174012
0.176205
0.176967
0.176084
0.173454
0.169111
0.163216
0.156022
0.147811
0.13882
0.129473
0.121309
0.113675
0.106513
0.0998535
0.0937025
0.0880227
0.082803
0.0779769
0.0734985
0.0693397
0.0654849
0.0618616
0.0584426
0.0552168
0.0521766
0.0493148
0.0466259
0.0441049
0.0417465
0.0395356
0.0374638
0.0356041
0.0339858
0.0326237
0.0315294
0.0307038
0.0301311
0.0297793
0.0296048
0.0295566
0.0295808
0.0296246
0.0296404
0.0295895
0.0294428
0.0291788
0.0287803
0.0282274
0.0274914
0.0265319
0.025301
0.0237586
0.02195
0.0202427
0.019552
0.0215803
0.029929
0.0458523
0.0590704
0.0633316
0.0665213
0.068768
0.0707916
0.072483
0.0734122
0.0738462
0.0742716
0.0749816
0.0762403
0.078044
0.0802873
0.0827186
0.0848963
0.0861842
0.0857717
0.0828233
0.0786392
0.0736863
0.0684876
0.0634912
0.0589271
0.0548641
0.0512817
0.04812
0.0453214
0.0428422
0.0405646
0.0383183
0.0362661
0.0347407
0.0339511
0.0344582
0.0364733
0.0395349
0.04275
0.0459852
0.0494159
0.0520323
0.0523731
0.0500978
0.0110035
0.0635862
0.0962448
0.0813229
0.061411
0.0467624
0.0372279
0.0310184
0.0267972
0.0237914
0.0215689
0.0198749
0.0185491
0.0174878
0.0166266
0.0159276
0.0153782
0.015064
0.0150567
0.0155523
0.0168509
0.0192344
0.0227584
0.0271228
0.0318824
0.036569
0.0402016
0.0414756
0.0401782
0.0387445
0.0408751
0.0502561
0.0637369
0.0783071
0.0874644
0.0864231
0.0874997
0.0883544
0.087252
0.0855456
0.0841628
0.0834279
0.0833161
0.0835021
0.0837322
0.0840176
0.0845076
0.0852731
0.0862803
0.0874254
0.088597
0.0897254
0.0907957
0.0918303
0.0928587
0.0938964
0.0949385
0.095966
0.0969567
0.0978987
0.0988303
0.0997275
0.100595
0.101449
0.102319
0.103247
0.104288
0.105506
0.106977
0.10878
0.110999
0.113712
0.11699
0.120883
0.12541
0.130539
0.136174
0.142136
0.148156
0.153875
0.158874
0.162717
0.16501
0.165475
0.163989
0.160605
0.155528
0.149031
0.141332
0.133405
0.126024
0.118883
0.112054
0.105599
0.0995437
0.0938854
0.08861
0.0836985
0.0791279
0.0748725
0.0709086
0.0672111
0.0637572
0.0605268
0.0575031
0.0546718
0.0520195
0.0495338
0.0472013
0.0450052
0.0429248
0.0409299
0.0390506
0.0373172
0.0357451
0.0343412
0.0331031
0.0320207
0.0310793
0.0302616
0.0295493
0.0289227
0.0283614
0.0278431
0.0273439
0.0268375
0.0262956
0.0256873
0.0249794
0.0241362
0.0231216
0.0219185
0.0206353
0.0197605
0.0205303
0.0254791
0.0366684
0.0495057
0.0546001
0.0569656
0.0608087
0.0648168
0.0674797
0.0678945
0.0667133
0.0650363
0.0635294
0.0625497
0.0622589
0.062691
0.0638278
0.0655366
0.0674888
0.0690987
0.0694832
0.0679196
0.0650953
0.0613919
0.0573657
0.0534673
0.0499464
0.0468861
0.0442685
0.0420326
0.0401131
0.0384524
0.0370024
0.0357034
0.0344277
0.0329699
0.031426
0.0300096
0.0288511
0.0279029
0.0271049
0.0266568
0.0268297
0.02745
0.0278949
0.0277816
0.0117157
0.0872823
0.073395
0.0531091
0.0398171
0.0319544
0.0271135
0.0238827
0.0215542
0.0197718
0.0183464
0.0171693
0.0161745
0.0153254
0.0146068
0.0140158
0.0135524
0.0132242
0.013054
0.0131128
0.0135606
0.0146556
0.0166521
0.0196055
0.0233411
0.0276268
0.0321194
0.0362324
0.0400247
0.04604
0.0582656
0.0777063
0.104016
0.0995485
0.0876361
0.0815192
0.0779681
0.075449
0.0735254
0.0724044
0.0721179
0.0725262
0.0734229
0.0746065
0.0759473
0.0773671
0.078778
0.0800721
0.0811654
0.082031
0.0827018
0.0832461
0.0837354
0.0842231
0.0847376
0.0852847
0.0858536
0.0864223
0.0869622
0.087468
0.0878284
0.0880227
0.088049
0.0879229
0.0876764
0.0873582
0.087033
0.0867806
0.0866958
0.0868875
0.0874761
0.0885908
0.0903629
0.0929168
0.0963566
0.100749
0.106099
0.112326
0.119236
0.126505
0.133684
0.140228
0.145569
0.149214
0.150831
0.150305
0.14774
0.143371
0.137519
0.131425
0.125228
0.119018
0.112938
0.10708
0.101495
0.0962069
0.0912221
0.0865378
0.0821439
0.0780262
0.0741693
0.0705574
0.0671739
0.0640026
0.0610288
0.0582388
0.0556199
0.0531607
0.05085
0.0486748
0.0466203
0.0446704
0.0428026
0.0410267
0.0393574
0.0378017
0.0363637
0.0350435
0.0338367
0.0327363
0.0317336
0.0308182
0.0299785
0.0292003
0.0284665
0.0277555
0.0270413
0.0262935
0.0254777
0.0245563
0.0234957
0.0223142
0.0212366
0.0209543
0.0230379
0.0297883
0.0405692
0.0484177
0.0505973
0.0540298
0.059232
0.0633804
0.0644293
0.0626933
0.0597522
0.0567454
0.0542219
0.0523658
0.051155
0.0506699
0.050985
0.0520922
0.0537943
0.0555858
0.0565666
0.056063
0.0542594
0.0515163
0.0483577
0.045239
0.0424361
0.0400556
0.0380908
0.0364787
0.03514
0.0340047
0.0330303
0.0321887
0.0314513
0.0307472
0.0299007
0.0288859
0.0277252
0.0264436
0.0250897
0.0237658
0.022602
0.0216654
0.0209286
0.0203935
0.0111371
0.0617492
0.0462508
0.0351184
0.0291642
0.0256142
0.0231349
0.0211712
0.0195069
0.0180634
0.0168006
0.0156854
0.014695
0.013824
0.0130811
0.0124783
0.0120219
0.0117247
0.0115927
0.0116303
0.0118854
0.0124972
0.0137104
0.0157595
0.0187198
0.0226059
0.0275811
0.0339542
0.0433366
0.0593372
0.0827781
0.110321
0.103293
0.0866947
0.0760799
0.0702525
0.0670563
0.0654404
0.064932
0.0653103
0.066362
0.0678695
0.0696293
0.0714611
0.0732124
0.074759
0.076016
0.0769566
0.0776165
0.0780749
0.0784266
0.0787571
0.0791294
0.0795801
0.0801215
0.0807448
0.081424
0.0821196
0.0827837
0.0831713
0.0831899
0.0828321
0.0821169
0.0810861
0.0798004
0.0783347
0.0767733
0.0752083
0.0737394
0.0724768
0.0715447
0.0710831
0.0712465
0.0721985
0.0741013
0.0771003
0.0813034
0.0867517
0.0933826
0.100991
0.109201
0.117456
0.12507
0.131349
0.135734
0.137881
0.137733
0.135448
0.131714
0.127269
0.122347
0.117191
0.111981
0.106839
0.101841
0.0970341
0.0924431
0.0880795
0.0839454
0.0800372
0.0763477
0.0728681
0.0695882
0.0664971
0.0635844
0.0608396
0.058253
0.0558149
0.0535155
0.0513438
0.0492886
0.0473392
0.0454854
0.043713
0.0420309
0.0404432
0.0389514
0.0375561
0.0362557
0.0350464
0.033923
0.0328786
0.0319048
0.0309911
0.0301236
0.0292846
0.028451
0.0275932
0.0266743
0.0256515
0.0244958
0.0232773
0.0223364
0.0225384
0.0255843
0.0329588
0.0416253
0.0459053
0.0479093
0.0528797
0.0588298
0.0620666
0.0613837
0.058331
0.0546497
0.0512011
0.0483178
0.0460057
0.0441822
0.04299
0.0426021
0.0431333
0.044515
0.0463404
0.0477151
0.0479909
0.0470474
0.0451032
0.0426208
0.0400576
0.0377219
0.0357542
0.034172
0.0329256
0.0319403
0.0311425
0.0304724
0.0298915
0.029381
0.0289285
0.0284515
0.0278413
0.027056
0.0260934
0.0249821
0.0237768
0.022542
0.0213353
0.0202217
0.0193184
0.0122311
0.0398203
0.0325816
0.0286462
0.0260514
0.0239026
0.0219636
0.020176
0.0185542
0.0171198
0.0158487
0.0146996
0.0136517
0.0127118
0.0119044
0.0112507
0.0107586
0.0104933
0.0104401
0.0105711
0.0108705
0.0113839
0.0122977
0.0139182
0.0165087
0.0203621
0.026213
0.035898
0.0528672
0.0749157
0.101092
0.102428
0.0856902
0.0724824
0.0650758
0.0614314
0.0600337
0.0600474
0.0610098
0.0626323
0.0646844
0.0669627
0.0692855
0.0715011
0.0735051
0.0752526
0.0767585
0.0780842
0.0793136
0.0805294
0.0817951
0.0831467
0.0845909
0.0861071
0.0876516
0.0891615
0.0905619
0.091772
0.0925214
0.092597
0.0919847
0.0906907
0.0887609
0.0862794
0.0833624
0.0801467
0.0767768
0.0733939
0.0701307
0.0671131
0.0644656
0.0623191
0.0608162
0.0601115
0.0603671
0.0617438
0.0643923
0.0684349
0.0739314
0.0808309
0.0889161
0.0977429
0.106611
0.114675
0.121201
0.125555
0.127501
0.127215
0.125365
0.122444
0.118799
0.114713
0.110393
0.10599
0.101604
0.0973029
0.0931279
0.0891049
0.085248
0.0815636
0.0780531
0.0747145
0.0715437
0.068535
0.0656821
0.062978
0.0604156
0.0579876
0.0556865
0.0535043
0.051433
0.0494648
0.047593
0.0458108
0.0441103
0.0424986
0.0409755
0.0395402
0.0381907
0.0369241
0.0357359
0.0346207
0.0335714
0.0325789
0.031631
0.0307117
0.0297991
0.0288638
0.0278661
0.0267608
0.025534
0.02431
0.0235184
0.024139
0.0277569
0.0347678
0.0410052
0.043283
0.0461191
0.0524836
0.058643
0.0607906
0.0590227
0.0555147
0.0517742
0.0483394
0.0453514
0.042698
0.0403372
0.0384937
0.0374324
0.037383
0.0383913
0.0401039
0.0417235
0.0426327
0.0424394
0.0411966
0.0392805
0.0371392
0.0351118
0.0333781
0.0319896
0.030923
0.0301221
0.0295234
0.0290697
0.0287157
0.0284299
0.0281834
0.0279262
0.027567
0.0270243
0.0262592
0.025286
0.0241651
0.0229743
0.0217768
0.0206319
0.0196485
0.0136397
0.0311734
0.0298265
0.0279512
0.0257156
0.0235652
0.0215803
0.0197381
0.0181018
0.0166879
0.0154188
0.0142258
0.0130891
0.0120315
0.0111171
0.0103957
0.00989315
0.00968652
0.0097201
0.00993254
0.0102977
0.0108611
0.0118145
0.0135067
0.0163148
0.0209361
0.0293364
0.0440402
0.0645225
0.0854987
0.094534
0.0835365
0.0700095
0.0616195
0.0575935
0.0563109
0.0567065
0.0581664
0.0603311
0.0629613
0.0658647
0.0688769
0.0718699
0.0747672
0.0775494
0.0802429
0.0829002
0.0855799
0.088331
0.0911832
0.0941425
0.0971878
0.10027
0.103313
0.106215
0.108853
0.111097
0.11282
0.11354
0.11332
0.1121
0.109861
0.106644
0.102555
0.0977592
0.0924627
0.086887
0.0812439
0.0757205
0.0704798
0.0656729
0.0614527
0.057981
0.0554251
0.0539402
0.0536558
0.0546844
0.0571401
0.0611287
0.0667105
0.0738437
0.0822873
0.0914589
0.100393
0.108327
0.114272
0.11787
0.119305
0.119079
0.117579
0.115155
0.112104
0.108656
0.104982
0.101204
0.0974045
0.0936428
0.0899574
0.0863742
0.0829094
0.079573
0.0763702
0.073303
0.0703709
0.0675715
0.0649015
0.0623567
0.0599322
0.0576229
0.055423
0.0533267
0.0513286
0.049424
0.0476087
0.0458763
0.0442306
0.0426706
0.041195
0.0398018
0.0384879
0.0372494
0.0360812
0.0349769
0.0339278
0.0329227
0.0319463
0.0309771
0.0299846
0.0289268
0.0277613
0.0264948
0.0252973
0.024658
0.0255918
0.0293954
0.0355035
0.0396753
0.040982
0.0446491
0.0520813
0.0583923
0.0597714
0.0576014
0.0542033
0.0507546
0.0475151
0.0444648
0.041443
0.0385297
0.0360603
0.0343656
0.033755
0.0343483
0.0358397
0.037667
0.0390915
0.0395517
0.0389257
0.0374878
0.0356664
0.0338282
0.032194
0.0308545
0.0298196
0.0290615
0.0285388
0.0282083
0.0280291
0.0279613
0.0279606
0.0279648
0.0278788
0.0275917
0.0270319
0.0261816
0.0250849
0.0238349
0.0225399
0.0213042
0.0202452
0.0150207
0.0305607
0.0308121
0.0285041
0.0259201
0.0236587
0.0216182
0.019756
0.0181587
0.0167991
0.0155285
0.0142533
0.0129655
0.0117243
0.0106608
0.00989318
0.0095265
0.00944505
0.00955484
0.00987042
0.0104515
0.0114282
0.0130003
0.0154527
0.0192775
0.0257566
0.0369098
0.0530547
0.0707064
0.0818388
0.078411
0.0676608
0.0591844
0.0548833
0.0536224
0.0542736
0.056133
0.0587957
0.062014
0.0656065
0.0694242
0.0733536
0.0773252
0.0813127
0.0853185
0.0893585
0.0934527
0.0976201
0.101875
0.106222
0.110645
0.115103
0.119528
0.123815
0.12783
0.131414
0.134387
0.136443
0.137414
0.137276
0.13589
0.133165
0.129088
0.123748
0.117337
0.110138
0.10248
0.0946813
0.0870018
0.0796306
0.0727107
0.066384
0.0608245
0.0562613
0.0529262
0.0509727
0.0504523
0.0514021
0.0538824
0.057977
0.0637575
0.0712017
0.0799823
0.0889864
0.0976297
0.104389
0.10919
0.112067
0.11323
0.112991
0.111681
0.109595
0.106973
0.103997
0.100804
0.0974917
0.0941308
0.0907722
0.0874524
0.0841975
0.0810259
0.0779502
0.0749784
0.0721154
0.0693631
0.0667218
0.0641902
0.0617657
0.0594452
0.0572249
0.0551011
0.0530698
0.051128
0.0492728
0.0475013
0.0458122
0.0442072
0.0426847
0.0412426
0.0398783
0.0385882
0.0373677
0.0362109
0.0351096
0.0340532
0.033027
0.0320094
0.0309688
0.029863
0.0286551
0.0273721
0.0262152
0.0257042
0.0268215
0.0305132
0.0355431
0.0381815
0.0391105
0.0433798
0.0512316
0.0574728
0.0589096
0.0570513
0.0541068
0.0511195
0.0481374
0.0449339
0.0414677
0.0379572
0.0348725
0.0326254
0.0314948
0.0316473
0.0329633
0.0349409
0.0367965
0.0378214
0.0377257
0.0366795
0.0350874
0.0333415
0.0317038
0.0303049
0.0291904
0.0283629
0.0278064
0.027496
0.0274011
0.027484
0.0276932
0.0279543
0.0281638
0.0281953
0.0279243
0.0272865
0.0262998
0.0250367
0.023616
0.0221991
0.0209719
0.01636
0.0325972
0.0323417
0.029336
0.0265005
0.0241398
0.0220654
0.0202341
0.0187149
0.0174214
0.0161396
0.0147709
0.0133498
0.0119999
0.010914
0.0102713
0.0101327
0.010204
0.0105246
0.0111693
0.0122251
0.0137922
0.0160277
0.0193228
0.0245205
0.0327979
0.0446583
0.0584583
0.0691203
0.0705307
0.0643536
0.0572003
0.0529109
0.0516065
0.0523745
0.0544935
0.0575374
0.0612556
0.0654741
0.0700493
0.0748619
0.0798218
0.0848637
0.0899388
0.0950116
0.100064
0.1051
0.110139
0.115211
0.120332
0.125501
0.130684
0.135812
0.140779
0.145447
0.149641
0.15317
0.155656
0.157217
0.157646
0.156716
0.154234
0.150076
0.144233
0.136849
0.128233
0.118829
0.10913
0.0995563
0.0903887
0.0817775
0.0738114
0.0665674
0.0602584
0.0552162
0.0517309
0.0498347
0.0494884
0.0506616
0.0534003
0.0578015
0.0639887
0.072001
0.0805335
0.0888532
0.0961418
0.101859
0.10581
0.108072
0.108885
0.10854
0.107315
0.105446
0.103119
0.100477
0.0976257
0.094646
0.0915982
0.0885283
0.0854712
0.0824533
0.0794946
0.0766092
0.0738074
0.0710957
0.0684777
0.0659553
0.0635283
0.0611957
0.0589553
0.0568049
0.0547419
0.052764
0.0508695
0.0490565
0.0473233
0.0456713
0.0440993
0.0426057
0.0411885
0.0398446
0.03857
0.0373596
0.0362059
0.035099
0.0340246
0.0329615
0.0318775
0.0307315
0.0294931
0.0282044
0.0270829
0.0266532
0.0278239
0.0312119
0.0352074
0.0367864
0.0375561
0.0420149
0.049761
0.055933
0.0578372
0.056739
0.0545419
0.0520534
0.0492292
0.0458408
0.0420148
0.0380845
0.0344873
0.0316774
0.0300463
0.0298434
0.0310332
0.0331568
0.0353904
0.0368975
0.03724
0.0364947
0.0350468
0.0333146
0.0315997
0.0300707
0.0288062
0.0278366
0.0271678
0.0267914
0.0266869
0.0268209
0.0271418
0.0275708
0.0279987
0.0282941
0.0283238
0.0279829
0.0272273
0.0260991
0.0246888
0.0231577
0.0217479
0.0177192
0.034985
0.0339544
0.0305144
0.0274475
0.0249558
0.0228624
0.0211035
0.0196795
0.0184655
0.017253
0.0159404
0.0145884
0.0133598
0.0124443
0.0119875
0.011945
0.0122056
0.0127984
0.0137728
0.0152044
0.0172349
0.0201585
0.024485
0.0308255
0.0394819
0.0496731
0.0584805
0.0620029
0.0597452
0.0550509
0.0513798
0.0500754
0.0508317
0.0530389
0.0562806
0.0603156
0.0649803
0.0701322
0.0756352
0.0813601
0.0871839
0.0929913
0.0986884
0.104221
0.109586
0.114823
0.119996
0.125168
0.130383
0.135652
0.140945
0.146196
0.151301
0.156125
0.1605
0.164227
0.167183
0.169351
0.170502
0.170369
0.16868
0.165198
0.159769
0.152382
0.143241
0.1328
0.121704
0.110592
0.099925
0.0899587
0.0808352
0.0725019
0.0650282
0.0587297
0.0541027
0.0511627
0.0498286
0.0499849
0.0516451
0.0548866
0.0598834
0.0665358
0.0743052
0.0823609
0.0898257
0.0960452
0.100698
0.10376
0.105394
0.105841
0.10535
0.104144
0.102399
0.10026
0.097834
0.0952084
0.0924502
0.0896131
0.0867394
0.0838632
0.0810107
0.0782025
0.075454
0.072776
0.0701762
0.0676592
0.0652275
0.0628819
0.060622
0.0584467
0.0563546
0.054344
0.0524137
0.0505622
0.0487883
0.0470924
0.0454736
0.0439308
0.0424623
0.0410658
0.0397382
0.0384749
0.0372694
0.0361127
0.0349913
0.0338844
0.0327605
0.0315801
0.0303185
0.0290259
0.0279222
0.027517
0.0286292
0.0316168
0.0347303
0.0355965
0.0362149
0.0404515
0.0477075
0.053794
0.0563529
0.0561889
0.0547597
0.0527094
0.0500445
0.0466137
0.0425469
0.0382605
0.0342434
0.0310109
0.0290244
0.0286007
0.02976
0.0320642
0.0346443
0.0365536
0.037234
0.036693
0.0353092
0.0335292
0.0316911
0.029997
0.0285531
0.0274116
0.0265948
0.0261048
0.0259267
0.0260285
0.0263579
0.0268358
0.0273545
0.0277867
0.0280059
0.02791
0.0274386
0.0265784
0.025368
0.023916
0.022448
0.0191684
0.0369583
0.0357695
0.0320447
0.0287281
0.0260745
0.0239455
0.0222438
0.0209158
0.0198393
0.0188269
0.0177584
0.0166592
0.015666
0.0149503
0.0146551
0.0146523
0.0150396
0.0158264
0.0170699
0.018886
0.0214699
0.0250984
0.030065
0.0364795
0.0438332
0.05051
0.0543646
0.0545755
0.0523881
0.0499704
0.0489096
0.049602
0.0517421
0.054983
0.0591097
0.0639803
0.0694626
0.0754086
0.0816514
0.0880084
0.0942947
0.100353
0.10609
0.111493
0.116625
0.121591
0.126506
0.131459
0.136496
0.141609
0.146738
0.151786
0.156636
0.161164
0.16524
0.168717
0.171678
0.174036
0.175588
0.17607
0.175179
0.172613
0.168109
0.16149
0.152756
0.14221
0.130536
0.11854
0.106857
0.0958598
0.0859168
0.076967
0.0689112
0.0619032
0.0566762
0.0531458
0.051198
0.0506407
0.051397
0.0536273
0.0575766
0.0632702
0.070313
0.0779501
0.0853199
0.0917247
0.0967715
0.10036
0.102589
0.103651
0.10376
0.103112
0.101873
0.100177
0.0981315
0.0958256
0.0933303
0.0907048
0.0879977
0.0852492
0.0824916
0.0797511
0.0770478
0.0743971
0.0718101
0.0692947
0.0668558
0.0644962
0.062217
0.0600183
0.0578996
0.0558599
0.053898
0.0520129
0.0502037
0.0484696
0.0468099
0.0452236
0.0437093
0.0422655
0.0408894
0.0395775
0.0383241
0.0371212
0.0359562
0.0348093
0.03365
0.0324409
0.0311608
0.029861
0.0287527
0.0283165
0.0292842
0.0318438
0.0342616
0.0346483
0.0350397
0.0387244
0.0452094
0.0511019
0.0542783
0.0550249
0.0543275
0.0527115
0.0502505
0.046841
0.0426313
0.0381121
0.0338307
0.0303515
0.0281891
0.0277094
0.0289626
0.0315044
0.0344091
0.0366363
0.0375444
0.0371065
0.0357125
0.0338398
0.0318574
0.0299936
0.0283756
0.0270721
0.0261169
0.0255181
0.025263
0.0253178
0.0256271
0.0261097
0.0266595
0.0271545
0.0274747
0.0275228
0.02724
0.0266133
0.0256648
0.0244346
0.0230633
0.0201122
0.0389866
0.0377869
0.0338505
0.0302952
0.0274526
0.0252321
0.0235264
0.0222544
0.0213112
0.0205493
0.019837
0.019131
0.0184879
0.0180213
0.0178461
0.0179417
0.0184594
0.0194435
0.020968
0.0231452
0.0261143
0.0299929
0.034752
0.0400036
0.044874
0.048308
0.0497291
0.049441
0.048468
0.0479856
0.0486974
0.0506887
0.0537734
0.0577907
0.0626347
0.0682
0.0743456
0.0808863
0.0875952
0.0942255
0.100553
0.106431
0.111824
0.116803
0.121516
0.126133
0.1308
0.135604
0.140545
0.145536
0.150425
0.155042
0.159243
0.162942
0.166112
0.168805
0.171173
0.173164
0.174625
0.175304
0.174882
0.173025
0.169425
0.16381
0.156002
0.146051
0.134565
0.122479
0.110487
0.0989681
0.0885306
0.0793298
0.0711613
0.0642171
0.058764
0.0549303
0.0526179
0.0515947
0.0517667
0.0533195
0.056553
0.0615607
0.0680195
0.0752345
0.0823798
0.0887631
0.0939698
0.0978605
0.100488
0.102
0.102575
0.10238
0.101562
0.100243
0.0985272
0.0965002
0.0942358
0.0917968
0.0892365
0.0865999
0.0839248
0.0812418
0.0785757
0.0759458
0.0733668
0.0708493
0.0684006
0.0660256
0.0637269
0.0615058
0.0593624
0.0572965
0.055307
0.0533931
0.051554
0.0497881
0.0480943
0.0464719
0.0449197
0.0434362
0.0420195
0.0406663
0.0393722
0.0381298
0.0369277
0.0357472
0.0345593
0.0333286
0.0320346
0.0307238
0.0295903
0.0290765
0.029839
0.0319841
0.0338861
0.0339543
0.034037
0.0369464
0.042454
0.0479586
0.0515463
0.0530444
0.0530004
0.0518072
0.0495735
0.0462502
0.0420239
0.0374335
0.033072
0.0295447
0.027407
0.0270548
0.0285405
0.0313833
0.0345864
0.0370354
0.0380503
0.0376122
0.0361424
0.0341483
0.0320206
0.0300045
0.0282425
0.0268159
0.0257678
0.0251124
0.0248389
0.0249129
0.0252755
0.0258426
0.0265063
0.0271434
0.0276291
0.0278521
0.0277295
0.0272246
0.0263784
0.0252688
0.0239646
0.020608
0.0407425
0.039821
0.035862
0.0321586
0.0291379
0.0267733
0.0249774
0.0236656
0.0227479
0.0221191
0.0216726
0.021335
0.0210916
0.0209832
0.021011
0.0213367
0.0220642
0.0232617
0.0249965
0.0273283
0.0302738
0.0337428
0.0374695
0.0410147
0.043897
0.0457918
0.0466867
0.0469446
0.0472117
0.048117
0.0499838
0.0528396
0.0566176
0.0612628
0.0667117
0.0728541
0.079514
0.0864489
0.0933689
0.0999845
0.106076
0.11155
0.116457
0.120964
0.125295
0.12967
0.134245
0.139062
0.144031
0.148932
0.153488
0.157454
0.160673
0.163117
0.16494
0.166428
0.16774
0.16889
0.169792
0.170228
0.169864
0.168341
0.16533
0.160536
0.153702
0.144643
0.133764
0.122217
0.110589
0.0994826
0.0892454
0.0800065
0.071867
0.0650194
0.0596847
0.0559309
0.0535821
0.0523719
0.0522393
0.0534311
0.0562869
0.0609114
0.0669912
0.0738606
0.080739
0.0869761
0.092177
0.0961961
0.0990592
0.100879
0.101799
0.101955
0.101474
0.100465
0.0990221
0.0972294
0.0951603
0.0928795
0.0904437
0.0879018
0.0852954
0.0826593
0.0800222
0.0774068
0.0748308
0.0723076
0.0698468
0.067455
0.0651364
0.0628934
0.0607269
0.0586371
0.0566233
0.0546848
0.0528209
0.0510289
0.0493081
0.0476572
0.0460753
0.044561
0.0431126
0.0417276
0.0404019
0.0391292
0.0378991
0.036694
0.0354869
0.0342434
0.0329419
0.0316196
0.0304471
0.0298222
0.0303405
0.0321014
0.033644
0.0335186
0.033248
0.0352642
0.0396532
0.0445354
0.0482308
0.0502309
0.0507054
0.0498903
0.0478953
0.0447294
0.0406231
0.0361387
0.0318979
0.0285355
0.0266348
0.0266002