/*--------------------------------*- C++ -*----------------------------------*\
  =========                 |
  \\      /  F ield         | OpenFOAM: The Open Source CFD Toolbox
   \\    /   O peration     | Website:  https://openfoam.org
    \\  /    A nd           | Version:  9
     \\/     M anipulation  |
\*---------------------------------------------------------------------------*/
FoamFile
{
    format      ascii;
    class       volScalarField;
    location    "0.28";
    object      p;
}
// * * * * * * * * * * * * * * * * * * * * * * * * * * * * * * * * * * * * * //

dimensions      [0 2 -2 0 0 0 0];

internalField   nonuniform List<scalar> 
12225
(
4.15151
3.22225
2.86339
2.87274
2.93623
3.0088
3.1265
3.30122
3.52076
3.76456
4.0063
4.21169
4.34208
4.36538
4.27194
4.08134
3.84105
3.6104
3.53946
2.97585
2.74957
2.78997
2.87229
2.95744
3.07943
3.25289
3.46845
3.7079
3.9476
4.15641
4.29758
4.33801
4.26398
4.08921
3.86025
3.63538
3.37958
3.07094
2.84808
2.82796
2.87951
2.9466
3.04734
3.19438
3.3786
3.58192
3.78329
3.95757
4.07684
4.11693
4.06839
3.94078
3.77262
3.58739
3.25387
3.03451
2.80537
2.75814
2.80744
2.87852
2.97527
3.11001
3.27516
3.45293
3.62323
3.76417
3.85367
3.87517
3.82565
3.71742
3.58211
3.43557
3.12856
2.96277
2.76745
2.71962
2.76687
2.83587
2.92343
3.04197
3.18618
3.33958
3.48365
3.5996
3.6697
3.68163
3.63429
3.5395
3.42098
3.30518
3.00721
2.88616
2.73078
2.68082
2.71582
2.77611
2.85275
2.95508
3.07899
3.20948
3.32981
3.42417
3.4788
3.48508
3.44342
3.36472
3.26754
3.17681
2.89051
2.80377
2.68143
2.62993
2.65268
2.70493
2.77238
2.85987
2.96418
3.07247
3.17008
3.24397
3.28375
3.28386
3.24605
3.18022
3.10183
3.02879
2.77672
2.71461
2.61912
2.56986
2.58295
2.62666
2.68411
2.75627
2.84076
2.9272
3.00308
3.05779
3.08372
3.07756
3.04196
2.98569
2.92187
2.86474
2.66401
2.61931
2.54557
2.50074
2.50547
2.53911
2.58521
2.64186
2.70701
2.77245
2.82785
2.86467
2.87748
2.86468
2.82939
2.77936
2.72583
2.68119
2.55088
2.5184
2.46156
2.4215
2.41879
2.44158
2.47559
2.51693
2.56344
2.60875
2.64462
2.66439
2.66431
2.64401
2.60676
2.55936
2.51126
2.4727
2.43605
2.41202
2.36766
2.33164
2.32231
2.33401
2.35534
2.38138
2.40973
2.43557
2.45259
2.45578
2.44266
2.41363
2.37189
2.3232
2.27524
2.23594
2.32821
2.30929
2.27289
2.23949
2.22455
2.22604
2.23527
2.2472
2.25928
2.2678
2.268
2.25612
2.23057
2.19209
2.14367
2.09008
2.03749
1.99186
2.2186
2.20308
2.17206
2.14005
2.11964
2.11102
2.10796
2.10582
2.10204
2.09377
2.07754
2.05065
2.01214
1.96293
1.90564
1.84412
1.78312
1.72692
2.08953
2.07628
2.04863
2.01641
1.98944
1.96929
1.95199
1.93367
1.91202
1.88493
1.85009
1.80575
1.75142
1.68805
1.61771
1.54328
1.46805
1.3947
1.93796
1.9257
1.89896
1.86428
1.82919
1.79592
1.76234
1.72563
1.68392
1.63579
1.57986
1.51512
1.44142
1.35953
1.27094
1.17751
1.08122
0.983411
1.76105
1.7484
1.7199
1.67995
1.63457
1.58628
1.53427
1.47681
1.41266
1.34097
1.26107
1.17247
1.07518
0.969723
0.856984
0.737969
0.61362
0.484339
1.55737
1.54292
1.50985
1.46142
1.40298
1.33733
1.26453
1.18381
1.09457
0.996496
0.889378
0.773087
0.647683
0.513452
0.37081
0.220168
0.0617926
-0.104374
1.32918
1.31148
1.27099
1.21065
1.13603
1.05034
0.954313
0.847841
0.730913
0.60368
0.466283
0.318818
0.161405
-0.00577966
-0.182539
-0.368709
-0.564261
-0.769236
1.08741
1.06448
1.01305
0.936703
0.842098
0.733221
0.611263
0.476536
0.329509
0.17078
0.00081833
-0.180078
-0.371678
-0.573749
-0.78607
-1.00843
-1.24071
-1.4827
0.910892
0.882255
0.818851
0.725863
0.612117
0.482644
0.33869
0.180538
0.00895551
-0.17504
-0.370662
-0.577397
-0.794839
-1.02259
-1.26025
-1.50742
-1.76377
-2.02873
0.8098
0.775931
0.701188
0.593176
0.463628
0.318426
0.158316
-0.0166647
-0.205479
-0.406846
-0.619895
-0.844049
-1.0788
-1.32363
-1.57803
-1.84149
-2.11363
-2.39389
0.756566
0.716202
0.628009
0.504088
0.360167
0.201974
0.0285187
-0.16045
-0.363088
-0.577692
-0.80347
-1.03988
-1.28635
-1.54231
-1.80723
-2.08049
-2.36146
-2.64918
0.7416
0.692732
0.587614
0.446326
0.289721
0.121597
-0.0621861
-0.26246
-0.476575
-0.702498
-0.939298
-1.18639
-1.44306
-1.7086
-1.98243
-2.26399
-2.55282
-2.84831
0.757518
0.69661
0.57018
0.410581
0.242863
0.0658423
-0.126812
-0.334765
-0.554869
-0.787211
-1.03023
-1.28294
-1.54493
-1.81565
-2.09429
-2.38015
-2.67252
-2.9701
0.799283
0.719383
0.564823
0.3905
0.217277
0.0314773
-0.174325
-0.395019
-0.623107
-0.863092
-1.11405
-1.37328
-1.64024
-1.91548
-2.19841
-2.48811
-2.78387
-3.08536
0.863783
0.755743
0.559836
0.372743
0.205368
0.0233176
-0.183943
-0.407625
-0.643747
-0.88665
-1.14206
-1.40672
-1.67797
-1.95622
-2.24173
-2.53459
-2.83286
-3.13498
0.946496
0.807773
0.561794
0.347967
0.168673
-0.0231722
-0.238252
-0.466757
-0.704456
-0.950214
-1.20345
-1.46744
-1.74143
-2.02158
-2.30675
-2.59958
-2.89829
-3.20233
1.03507
0.856983
0.613549
0.416703
0.232329
0.0236557
-0.204936
-0.442179
-0.686378
-0.938492
-1.19872
-1.46831
-1.74598
-2.03057
-2.32168
-2.61606
-2.91524
-3.22047
1.13289
0.730295
0.461092
0.32153
0.16774
-0.0326961
-0.256058
-0.487931
-0.728324
-0.978807
-1.2388
-1.50782
-1.78493
-2.0689
-2.35841
-2.65147
-2.94889
-3.25082
1.72659
0.986867
0.56883
0.391457
0.215451
-0.00518936
-0.242572
-0.483456
-0.730425
-0.986313
-1.25072
-1.52296
-1.80229
-2.08768
-2.37805
-2.67162
-2.96789
-3.26411
-24.768
-25.1226
-25.9142
-26.7423
-26.2095
-23.694
-20.0635
-16.6069
-14.907
-15.4528
-17.9825
-21.6575
-25.6325
-29.2842
-32.1736
-33.9554
-34.5567
-34.2685
-33.4364
-32.3385
-31.279
-30.5943
-30.5294
-31.082
-31.9261
-32.7404
-33.5058
-34.1688
-34.7252
-34.9474
-34.5508
-33.3354
-31.6586
-30.6788
-30.7905
-31.3989
-31.8013
-31.9103
-31.8746
-31.9223
-32.0623
-32.184
-32.1828
-32.1607
-32.4679
-33.467
-35.3643
-38.1645
-41.7243
-45.8075
-50.1431
-54.4707
-58.5686
-62.2659
-65.4429
-68.0272
-69.9893
-71.3319
-72.072
-72.2203
-71.7666
-70.7091
-69.1368
-67.121
-64.7195
-61.9792
-58.9391
-55.6317
-52.083
-48.3138
-44.3405
-40.1772
-35.838
-31.34
-26.7071
-21.9729
-17.1834
-12.3983
-7.68979
-3.13819
1.17372
5.16849
8.78114
11.9648
14.6944
16.967
18.8
20.2266
21.2907
22.0428
22.5311
22.7924
22.8687
22.7998
22.6186
22.3588
22.044
21.6878
21.3067
20.916
20.5216
20.1274
19.7428
19.3742
19.0249
18.6981
18.401
18.1403
17.8838
17.6181
17.3538
17.0952
16.8293
16.5624
16.313
16.0978
15.9271
15.803
15.7202
15.6693
15.6416
15.6304
15.6326
15.6473
15.675
15.7164
15.7722
15.8428
15.9284
16.0285
16.1424
16.2687
16.4076
16.5728
16.7986
17.0785
17.3075
17.2239
16.1879
13.4171
8.10994
0.611012
-7.67994
-15.0782
-20.6258
-23.9656
-25.0502
-23.9523
-20.8112
-15.9553
-9.76893
-2.76788
4.40401
11.0632
16.6409
20.821
23.5013
24.8572
25.1004
24.596
23.6556
22.5114
21.3273
20.2105
19.232
18.4766
17.9992
17.6106
17.0924
16.1739
14.6979
12.8607
11.0295
9.58147
8.94601
9.21494
9.86591
10.2491
10.4361
10.9043
-27.0497
-27.8311
-29.1349
-30.1839
-29.7675
-27.6221
-24.8089
-22.8538
-22.6874
-24.2441
-27.056
-30.5211
-34.0851
-37.3403
-40.0091
-41.952
-43.0022
-42.9428
-41.7429
-39.6694
-37.2078
-34.9487
-33.4327
-32.9223
-33.0502
-33.2897
-33.8833
-35.0108
-36.1151
-36.6419
-36.3694
-35.165
-33.5034
-32.5347
-32.5698
-32.8706
-32.8909
-32.4933
-31.8802
-31.3235
-31.3653
-32.034
-32.6189
-32.9432
-33.6482
-35.2394
-37.8674
-41.4281
-45.6578
-50.2312
-54.8363
-59.2163
-63.1826
-66.6099
-69.423
-71.5834
-73.0789
-73.92
-74.1367
-73.7819
-72.9271
-71.6432
-69.9346
-67.8294
-65.3651
-62.581
-59.5129
-56.1914
-52.641
-48.8809
-44.9251
-40.7851
-36.4714
-31.9974
-27.3828
-22.6575
-17.8647
-13.0623
-8.32267
-3.72811
0.635244
4.68571
8.35436
11.5915
14.37
16.686
18.5561
20.0143
21.1048
21.8777
22.3823
22.6569
22.746
22.6906
22.526
22.2772
21.9655
21.6137
21.2379
20.8473
20.4536
20.0675
19.692
19.3296
18.9835
18.6568
18.347
18.0461
17.7708
17.5225
17.2849
17.0388
16.7909
16.5456
16.3118
16.1046
15.9365
15.8119
15.7268
15.6727
15.6414
15.6267
15.6258
15.6379
15.6637
15.7042
15.7604
15.8329
15.9218
16.0268
16.1465
16.2778
16.4195
16.5876
16.8162
17.0766
17.2451
17.2115
16.2127
13.0186
6.69184
-1.74419
-10.26
-17.3812
-22.4644
-25.3373
-26.0526
-24.7366
-21.5465
-16.6752
-10.4749
-3.44731
3.77033
10.4928
16.1389
20.382
23.1341
24.5216
24.8033
24.3364
23.4315
22.3215
21.1677
20.073
19.1073
18.2983
17.63
17.1305
16.6446
15.8687
14.5373
12.7411
10.8825
9.4423
8.86844
9.24145
9.9348
10.2709
10.3407
10.615
-27.7198
-27.9201
-28.2345
-28.724
-29.2586
-29.508
-29.9025
-31.0082
-32.9935
-35.6645
-38.723
-41.8883
-44.9156
-47.6065
-49.8092
-51.4137
-52.3388
-52.5148
-51.9084
-50.553
-48.5206
-45.9454
-43.0719
-40.2686
-37.9094
-36.2938
-35.635
-35.6945
-35.8809
-35.8608
-35.5323
-34.6576
-33.7214
-33.5929
-34.1207
-34.2068
-33.6737
-32.9268
-32.519
-32.4953
-32.9091
-34.1002
-35.8674
-38.0376
-40.6307
-43.6603
-47.0621
-50.7103
-54.4596
-58.1748
-61.7414
-65.0648
-68.0652
-70.6743
-72.8351
-74.5029
-75.644
-76.2337
-76.2621
-75.7596
-74.7507
-73.2889
-71.4168
-69.1746
-66.6023
-63.7382
-60.617
-57.268
-53.7138
-49.9708
-46.0491
-41.9549
-37.692
-33.2662
-28.6888
-23.9818
-19.1821
-14.3442
-9.54043
-4.85715
-0.387798
3.77699
7.55945
10.9029
13.776
16.173
18.1109
19.6246
20.7604
21.5676
22.104
22.4054
22.5185
22.4844
22.3375
22.1059
21.812
21.4761
21.1138
20.7369
20.3562
19.9794
19.6104
19.253
18.9109
18.5862
18.2806
17.9956
17.7321
17.4795
17.2278
16.9795
16.7402
16.5124
16.3021
16.1173
15.9636
15.8424
15.7518
15.6876
15.6454
15.622
15.6153
15.6242
15.6486
15.6887
15.7449
15.8177
15.9074
16.0144
16.139
16.2803
16.4396
16.6316
16.8729
17.1232
17.3082
16.9736
15.0509
9.87665
2.03281
-6.30071
-13.8366
-19.9802
-24.4121
-26.934
-27.485
-26.0963
-22.8651
-17.9781
-11.7594
-4.68934
2.60521
9.43385
15.1966
19.5507
22.4011
23.8583
24.2088
23.8089
22.9704
21.9248
20.8287
19.7797
18.8346
18.0258
17.3639
16.8057
16.2005
15.3614
14.1513
12.6225
11.0521
9.81686
9.26719
9.45198
9.92974
10.1759
10.2691
10.6157
-26.7934
-26.5499
-26.7457
-27.9989
-30.531
-33.5712
-36.6253
-39.6813
-42.7704
-45.8432
-48.8274
-51.6531
-54.2416
-56.5039
-58.3512
-59.7085
-60.5267
-60.762
-60.3577
-59.3165
-57.6415
-55.3014
-52.2589
-48.5655
-44.4898
-40.531
-37.2096
-34.7858
-33.1708
-32.1689
-31.4951
-30.8442
-31.0769
-32.1342
-33.065
-33.7326
-33.9595
-34.1843
-34.8758
-36.1354
-37.9598
-40.3685
-43.1971
-46.2456
-49.3854
-52.5594
-55.7458
-58.9321
-62.0962
-65.1964
-68.1708
-70.9438
-73.4352
-75.5693
-77.2823
-78.5262
-79.2693
-79.4967
-79.2125
-78.4211
-77.1623
-75.4744
-73.4001
-70.9842
-68.2704
-65.2996
-62.1077
-58.7238
-55.1695
-51.458
-47.5947
-43.5785
-39.4039
-35.0651
-30.5605
-25.8991
-21.1067
-16.2309
-11.3428
-6.53423
-1.90964
2.42601
6.38056
9.88554
12.9021
15.4212
17.4596
19.0538
20.2546
21.1204
21.7004
22.0406
22.1883
22.185
22.0658
21.8594
21.5889
21.274
20.9306
20.571
20.2047
19.8399
19.4822
19.1355
18.8029
18.4866
18.1873
17.9039
17.6353
17.3799
17.1359
16.9036
16.6802
16.4678
16.2711
16.0952
15.945
15.8228
15.7286
15.66
15.6139
15.5874
15.5783
15.5854
15.6084
15.6473
15.7028
15.7758
15.8674
15.9792
16.1127
16.2695
16.4536
16.6779
16.9375
17.198
17.3107
15.9361
11.9061
4.76725
-3.16905
-10.6358
-17.2424
-22.7019
-26.6854
-28.93
-29.3312
-27.8758
-24.6198
-19.7299
-13.5006
-6.38589
1.00022
7.95964
13.8761
18.375
21.3448
22.9018
23.3489
23.0454
22.3036
21.3517
20.3399
19.3596
18.4645
17.6804
17.0005
16.3859
15.7509
14.954
13.8915
12.6056
11.2968
10.2232
9.62393
9.57094
9.8283
10.0515
10.2796
10.7649
-26.7154
-26.646
-27.6349
-30.7737
-35.049
-39.3322
-43.3372
-47.0679
-50.5344
-53.7562
-56.7547
-59.5254
-62.0257
-64.1824
-65.9096
-67.1291
-67.7812
-67.8571
-67.3177
-66.1782
-64.4451
-62.0845
-58.9982
-55.0368
-50.1229
-44.4674
-38.6981
-33.6417
-29.8691
-27.4572
-26.0918
-26.1601
-27.3774
-29.1707
-31.0648
-32.8308
-34.6529
-36.688
-39.0536
-41.7575
-44.703
-47.7782
-50.8814
-53.9576
-56.997
-60.0099
-63.0058
-65.9796
-68.9043
-71.7318
-74.3985
-76.8332
-78.9648
-80.7275
-82.0658
-82.937
-83.3137
-83.1861
-82.5622
-81.4607
-79.9144
-77.9636
-75.6541
-73.0345
-70.1532
-67.0548
-63.7783
-60.3544
-56.8045
-53.1398
-49.3613
-45.4604
-41.4208
-37.2221
-32.8453
-28.2806
-23.5364
-18.6472
-13.6792
-8.72926
-3.91571
0.636621
4.81468
8.53235
11.739
14.4199
16.5917
18.2965
19.5819
20.5255
21.1657
21.5577
21.7512
21.7888
21.7062
21.5331
21.2932
21.0062
20.6882
20.3514
20.006
19.6596
19.3182
18.9857
18.6653
18.3588
18.0674
17.7914
17.5309
17.2845
17.0496
16.8246
16.6096
16.4073
16.2213
16.0553
15.9128
15.7955
15.7031
15.6339
15.5856
15.5562
15.544
15.5482
15.5687
15.6055
15.6595
15.7315
15.8233
15.9366
16.074
16.2392
16.4417
16.694
16.9789
17.2309
16.9795
14.0111
7.81972
0.00163273
-7.51596
-14.3922
-20.4923
-25.5263
-29.1621
-31.1571
-31.4152
-29.9013
-26.6376
-21.7646
-15.5435
-8.39674
-0.922705
6.17518
12.2597
16.9235
20.0287
21.7071
22.2736
22.0917
21.4722
20.6379
19.732
18.8396
18.0083
17.2582
16.5866
15.9659
15.3292
14.5768
13.6348
12.5252
11.3855
10.4098
9.78558
9.59071
9.69858
9.89032
10.1826
10.7588
-27.2139
-27.7814
-30.8742
-35.6743
-40.4806
-44.9647
-49.1849
-53.1196
-56.76
-60.1372
-63.2785
-66.1733
-68.7647
-70.9621
-72.6698
-73.8107
-74.3353
-74.2244
-73.469
-72.0881
-70.1063
-67.5262
-64.2728
-60.1439
-54.8767
-48.4266
-41.3149
-34.5736
-29.2532
-25.7875
-24.1988
-24.3611
-25.7828
-28.0497
-30.924
-34.1271
-37.513
-40.9806
-44.4674
-47.9173
-51.2828
-54.5431
-57.6992
-60.7721
-63.7891
-66.7674
-69.7062
-72.5854
-75.3682
-78.0051
-80.4382
-82.6058
-84.446
-85.9012
-86.9208
-87.465
-87.509
-87.0479
-86.0955
-84.6753
-82.8219
-80.5808
-78.0047
-75.1492
-72.0694
-68.8156
-65.4313
-61.9506
-58.3964
-54.7799
-51.0994
-47.3404
-43.4766
-39.4723
-35.2885
-30.8909
-26.2627
-21.417
-16.4078
-11.3325
-6.32382
-1.53082
2.90563
6.87462
10.3083
13.1831
15.5156
17.3545
18.7579
19.7881
20.5025
20.9591
21.2096
21.298
21.2612
21.1295
20.9275
20.675
20.3882
20.0796
19.7594
19.4355
19.1138
18.7989
18.4939
18.2011
17.9217
17.6563
17.4046
17.1657
16.9384
16.7226
16.5189
16.3288
16.1546
15.9986
15.8634
15.75
15.6587
15.5886
15.5382
15.5062
15.4914
15.493
15.5108
15.5452
15.5967
15.6667
15.7569
15.8697
16.0082
16.1794
16.3972
16.6699
16.9678
17.1411
16.1919
11.6002
4.03458
-3.90712
-11.1709
-17.7631
-23.5593
-28.2772
-31.6324
-33.4208
-33.5608
-32.005
-28.7508
-23.914
-17.7226
-10.5643
-3.02023
4.20857
10.4584
15.2874
18.5374
20.3509
21.0539
21.0125
20.5342
19.8345
19.0489
18.2565
17.5007
16.8007
16.1563
15.5452
14.9177
14.206
13.3581
12.3846
11.3815
10.4967
9.8762
9.5904
9.57543
9.70151
9.98424
10.5812
-30.0133
-31.7754
-36.3013
-41.1646
-45.6586
-49.97
-54.1237
-58.046
-61.7115
-65.1463
-68.3728
-71.3601
-74.0159
-76.2213
-77.8777
-78.9286
-79.3474
-79.117
-78.2163
-76.6594
-74.4806
-71.7195
-68.3549
-64.2101
-58.9635
-52.4246
-45.0026
-37.817
-32.1308
-28.4883
-26.9988
-27.0946
-28.6841
-31.4332
-34.9218
-38.7736
-42.7259
-46.6127
-50.351
-53.9163
-57.3222
-60.6007
-63.7842
-66.8981
-69.9576
-72.964
-75.9046
-78.753
-81.471
-84.0104
-86.3154
-88.3256
-89.9796
-91.2194
-91.9939
-92.2641
-92.0083
-91.229
-89.942
-88.1752
-85.9738
-83.3943
-80.4998
-77.3558
-74.0257
-70.5672
-67.0291
-63.4495
-59.8541
-56.2555
-52.6522
-49.0273
-45.3481
-41.5666
-37.6242
-33.4599
-29.0251
-24.3016
-19.3199
-14.1696
-8.99338
-3.96616
0.737759
4.97488
8.65536
11.7449
14.2618
16.2558
17.786
18.9181
19.7193
20.2516
20.569
20.7175
20.7349
20.6524
20.495
20.2831
20.0329
19.7574
19.467
19.1698
18.872
18.5782
18.292
18.0156
17.7508
17.4981
17.258
17.03
16.814
16.6097
16.4176
16.2387
16.0745
15.9272
15.7987
15.6899
15.6011
15.5318
15.4809
15.4475
15.4307
15.4297
15.4446
15.4756
15.5235
15.5897
15.676
15.7847
15.9202
16.0917
16.3148
16.5921
16.8749
16.8465
14.9959
9.21996
0.823732
-7.17822
-14.3264
-20.7556
-26.3294
-30.8031
-33.941
-35.57
-35.6219
-34.0419
-30.8107
-26.0235
-19.8815
-12.7352
-5.14777
2.18686
8.58699
13.5684
16.9611
18.9145
19.7632
19.8738
19.5474
18.9912
18.333
17.6467
16.9731
16.3315
15.7238
15.1349
14.5302
13.8628
13.0951
12.2323
11.3408
10.5284
9.90708
9.54409
9.42339
9.48101
9.73167
10.2981
-35.7465
-38.3061
-42.2103
-46.1173
-50.0451
-54.0132
-57.905
-61.6239
-65.1515
-68.5188
-71.7323
-74.7183
-77.3371
-79.4473
-80.9639
-81.8752
-82.1993
-81.9148
-80.977
-79.3911
-77.1985
-74.462
-71.1849
-67.1884
-62.1429
-55.8549
-48.9921
-42.6512
-37.7281
-34.7361
-33.639
-33.8689
-35.4773
-38.1554
-41.4903
-45.1328
-48.8479
-52.5007
-56.0386
-59.4607
-62.7893
-66.0521
-69.2703
-72.4547
-75.6049
-78.7093
-81.7456
-84.6799
-87.4669
-90.0509
-92.3676
-94.3484
-95.9247
-97.0325
-97.6179
-97.6427
-97.0922
-95.9762
-94.316
-92.1522
-89.5437
-86.5612
-83.2817
-79.783
-76.1389
-72.4149
-68.6648
-64.9298
-61.2376
-57.6024
-54.0244
-50.4877
-46.9584
-43.3825
-39.6872
-35.7874
-31.6012
-27.0717
-22.1942
-17.038
-11.7485
-6.52375
-1.57328
2.92203
6.84837
10.1607
12.8722
15.0267
16.6886
17.9319
18.8291
19.4457
19.8384
20.0546
20.1335
20.1068
20.0001
19.8342
19.6257
19.3879
19.1313
18.8645
18.5938
18.3243
18.0597
17.8027
17.555
17.3178
17.0916
16.8767
16.6729
16.4804
16.2998
16.132
15.9782
15.8401
15.7189
15.6155
15.53
15.4621
15.4112
15.3766
15.3576
15.3538
15.3651
15.3919
15.4349
15.4954
15.575
15.6762
15.8037
15.9681
16.1832
16.4445
16.6702
16.3465
13.6745
6.99481
-1.85705
-9.8944
-16.9764
-23.3001
-28.7095
-33.001
-35.9784
-37.4914
-37.4812
-35.8894
-32.6893
-27.9612
-21.8855
-14.7751
-7.17743
0.235062
6.755
11.8641
15.3855
17.4738
18.4687
18.7338
18.5617
18.15
17.6193
17.0393
16.4495
15.8702
15.3064
14.7491
14.1745
13.55
12.8485
12.0714
11.2632
10.502
9.876
9.45051
9.24071
9.22778
9.42944
9.93907
-41.4886
-43.8525
-46.5519
-49.571
-52.9187
-56.4251
-59.9301
-63.3443
-66.6542
-69.8799
-72.9999
-75.9033
-78.4198
-80.3987
-81.7701
-82.5562
-82.8123
-82.5166
-81.6413
-80.1845
-78.1734
-75.6392
-72.5449
-68.739
-64.033
-58.5305
-52.8978
-47.9719
-44.3774
-42.3175
-41.3635
-41.6066
-43.0366
-45.3348
-48.1784
-51.3091
-54.5591
-57.8389
-61.1162
-64.389
-67.6668
-70.9592
-74.271
-77.5993
-80.9319
-84.2465
-87.5083
-90.6691
-93.6674
-96.4305
-98.8782
-100.928
-102.502
-103.529
-103.953
-103.736
-102.877
-101.392
-99.3103
-96.6905
-93.6089
-90.1543
-86.4213
-82.5029
-78.4849
-74.4407
-70.428
-66.4887
-62.6494
-58.9235
-55.312
-51.8017
-48.3615
-44.9375
-41.4506
-37.7983
-33.8702
-29.5703
-24.8519
-19.7537
-14.4148
-9.05063
-3.89993
0.818925
4.97366
8.49753
11.3908
13.6994
15.493
16.8504
17.8481
18.5545
19.0284
19.3184
19.4645
19.499
19.4481
19.3329
19.1703
18.9741
18.7551
18.522
18.2816
18.0393
17.799
17.5638
17.3357
17.1161
16.9059
16.7057
16.5157
16.3364
16.1682
16.0121
15.8691
15.7401
15.6263
15.5284
15.4465
15.3806
15.3302
15.2948
15.2739
15.2671
15.2745
15.2962
15.3329
15.3856
15.4556
15.5451
15.6589
15.8071
15.9991
16.2212
16.3472
15.695
12.3646
5.0917
-3.97902
-12.0392
-19.0944
-25.3512
-30.6413
-34.8
-37.6617
-39.0918
-39.0384
-37.4435
-34.2817
-29.6267
-23.631
-16.5846
-8.99365
-1.53699
5.05948
10.26
13.8847
16.0925
17.2245
17.638
17.6145
17.3415
16.9327
16.4548
15.947
15.4308
14.9144
14.3936
13.8525
13.2681
12.6205
11.9088
11.1624
10.4392
9.80886
9.33218
9.04173
8.94947
9.08303
9.52179
-44.8526
-46.5306
-48.4118
-50.8093
-53.6207
-56.6586
-59.7655
-62.8529
-65.9042
-68.9335
-71.9096
-74.7132
-77.1721
-79.1288
-80.5016
-81.3004
-81.5886
-81.3558
-80.5919
-79.2833
-77.4325
-75.0473
-72.1
-68.5389
-64.4241
-60.061
-55.9165
-52.4459
-49.9618
-48.3354
-47.6296
-47.9885
-49.2691
-51.2331
-53.6561
-56.3681
-59.263
-62.2849
-65.4108
-68.6338
-71.9529
-75.3667
-78.8702
-82.451
-86.0867
-89.7411
-93.3618
-96.8797
-100.211
-103.26
-105.93
-108.123
-109.75
-110.735
-111.017
-110.561
-109.378
-107.487
-104.933
-101.794
-98.1686
-94.1693
-89.912
-85.5089
-81.0604
-76.649
-72.3359
-68.1603
-64.143
-60.2917
-56.6042
-53.0682
-49.6566
-46.3193
-42.9771
-39.5179
-35.8112
-31.7287
-27.1858
-22.187
-16.8569
-11.4198
-6.12086
-1.22642
3.11245
6.81234
9.86382
12.3116
14.2286
15.6966
16.7946
17.5928
18.151
18.5187
18.7361
18.836
18.8449
18.7841
18.671
18.5197
18.3413
18.1448
17.9375
17.725
17.5115
17.3003
17.0939
16.894
16.7016
16.5178
16.3429
16.1777
16.0227
15.8786
15.7463
15.6268
15.5207
15.4288
15.3512
15.2877
15.2383
15.2024
15.1796
15.1697
15.1726
15.1883
15.2174
15.2603
15.3179
15.3917
15.486
15.6084
15.7631
15.925
15.9229
14.971
11.2091
3.63052
-5.48895
-13.5805
-20.6531
-26.8793
-32.0988
-36.1643
-38.944
-40.3159
-40.2367
-38.6496
-35.5294
-30.9482
-25.0341
-18.0572
-10.5008
-3.0438
3.57846
8.82401
12.5159
14.8181
16.0696
16.6177
16.7308
16.5854
16.2892
15.9063
15.4762
15.0219
14.5539
14.072
13.5658
13.0186
12.4154
11.7538
11.0535
10.3572
9.72121
9.20092
8.83745
8.66201
8.71303
9.06719
-45.054
-46.1012
-47.5721
-49.578
-52.0008
-54.6782
-57.4599
-60.2539
-63.0355
-65.8124
-68.5647
-71.2063
-73.5938
-75.5725
-77.0317
-77.9432
-78.3252
-78.1646
-77.4664
-76.2346
-74.4843
-72.2421
-69.5573
-66.5374
-63.3585
-60.2265
-57.3685
-54.9936
-53.1847
-52.0343
-51.7384
-52.2865
-53.5458
-55.3534
-57.5614
-60.0654
-62.802
-65.7378
-68.8578
-72.156
-75.6296
-79.2751
-83.0831
-87.0343
-91.094
-95.2085
-99.3032
-103.284
-107.041
-110.457
-113.414
-115.802
-117.522
-118.49
-118.641
-117.947
-116.428
-114.106
-111.046
-107.347
-103.131
-98.5353
-93.6992
-88.7572
-83.828
-79.0071
-74.3608
-69.9259
-65.7139
-61.721
-57.9363
-54.3437
-50.9175
-47.6107
-44.3499
-41.015
-37.4664
-33.5545
-29.1685
-24.2831
-18.9992
-13.5318
-8.15626
-3.13809
1.33392
5.16362
8.33764
10.9
12.9244
14.4937
15.6874
16.5761
17.2192
17.6662
17.9573
18.1252
18.1966
18.1931
18.1323
18.0285
17.8932
17.7359
17.564
17.3835
17.1989
17.0139
16.8312
16.6526
16.4798
16.3137
16.1552
16.0051
15.8639
15.7324
15.6113
15.5015
15.4036
15.318
15.2449
15.1844
15.1362
15.0999
15.0754
15.0622
15.0601
15.069
15.0892
15.1205
15.1632
15.2179
15.2871
15.3755
15.4811
15.5674
15.4292
14.2461
10.2786
2.66654
-6.38947
-14.5285
-21.6382
-27.8459
-33.0174
-37.025
-39.7534
-41.0926
-41.0049
-39.4351
-36.3615
-31.8516
-26.0206
-19.1237
-11.6313
-4.22212
2.36832
7.60376
11.3183
13.6818
15.0283
15.6913
15.9241
15.8921
15.6968
15.4006
15.0426
14.6474
14.2275
13.785
13.3135
12.8005
12.2341
11.6108
10.9439
10.2658
9.62294
9.06555
8.63812
8.38205
8.34273
8.59842
-42.3062
-42.9825
-44.2402
-46.0152
-48.1878
-50.6122
-53.1428
-55.6769
-58.1709
-60.6227
-63.0288
-65.3479
-67.4914
-69.3414
-70.7896
-71.7836
-72.2776
-72.2339
-71.6683
-70.6165
-69.1398
-67.3273
-65.2891
-63.1342
-60.9544
-58.843
-56.9134
-55.2782
-54.0875
-53.5312
-53.6886
-54.5091
-55.893
-57.7276
-59.9208
-62.4121
-65.1674
-68.1706
-71.4171
-74.9077
-78.6446
-82.6262
-86.8412
-91.2621
-95.8398
-100.5
-105.144
-109.649
-113.88
-117.695
-120.96
-123.554
-125.372
-126.323
-126.345
-125.427
-123.585
-120.849
-117.299
-113.051
-108.248
-103.052
-97.6278
-92.132
-86.7031
-81.4521
-76.4542
-71.7458
-67.3298
-63.1887
-59.2987
-55.6349
-52.1674
-48.848
-45.6329
-42.3573
-38.9047
-35.1095
-30.8373
-26.0403
-20.8014
-15.3343
-9.92486
-4.8495
-0.308492
3.59644
6.85014
9.49583
11.6064
13.2635
14.545
15.5197
16.2459
16.7718
17.1372
17.3744
17.5099
17.5655
17.5588
17.5046
17.4145
17.2983
17.1639
17.0173
16.8635
16.7064
16.5489
16.3934
16.2415
16.0945
15.9534
15.8192
15.6925
15.5741
15.4647
15.3649
15.2754
15.1965
15.1284
15.0711
15.0244
14.9881
14.9618
14.9451
14.9377
14.9393
14.9495
14.9679
14.9936
15.0261
15.066
15.1142
15.1629
15.1659
14.9009
13.5732
9.59866
2.18101
-6.71722
-14.8924
-22.0429
-28.2397
-33.3773
-37.3456
-40.0426
-41.3694
-41.2888
-39.7463
-36.7246
-32.2862
-26.5397
-19.735
-12.3399
-5.03166
1.46288
6.62637
10.3126
12.699
14.1113
14.8661
15.1994
15.265
15.1583
14.9394
14.6474
14.3076
13.9336
13.5296
13.0914
12.6093
12.0732
11.4792
10.8363
10.1699
9.51926
8.93008
8.44742
8.11686
7.98663
8.13488
-37.1523
-37.7529
-38.8817
-40.515
-42.5385
-44.8132
-47.1922
-49.5569
-51.8367
-54.0062
-56.0607
-57.9888
-59.7555
-61.299
-62.5507
-63.4625
-63.9802
-64.0877
-63.8048
-63.1781
-62.2729
-61.1597
-59.8995
-58.5399
-57.13
-55.7395
-54.4768
-53.5027
-52.9969
-53.0685
-53.7227
-54.9044
-56.5352
-58.5411
-60.8701
-63.4925
-66.3961
-69.581
-73.0548
-76.8282
-80.9107
-85.3034
-89.9919
-94.9391
-100.079
-105.316
-110.525
-115.555
-120.243
-124.428
-127.963
-130.728
-132.621
-133.555
-133.466
-132.374
-130.272
-127.186
-123.207
-118.467
-113.13
-107.383
-101.417
-95.4086
-89.5147
-83.8596
-78.5268
-73.5548
-68.9404
-64.6547
-60.6598
-56.9203
-53.4033
-50.0633
-46.83
-43.581
-40.1696
-36.4258
-32.2053
-27.4515
-22.2444
-16.7987
-11.4028
-6.33265
-1.78622
2.13783
5.42626
8.12191
10.2953
12.0243
13.3832
14.4376
15.243
15.8459
16.2848
16.5912
16.7913
16.9069
16.9556
16.9522
16.9088
16.8353
16.7398
16.6287
16.5073
16.3796
16.2489
16.1177
15.9879
15.8611
15.7385
15.621
15.5095
15.4047
15.3073
15.2179
15.1371
15.0652
15.0024
14.9487
14.9038
14.8676
14.8397
14.8195
14.8066
14.8003
14.7998
14.8041
14.8114
14.8198
14.8275
14.8319
14.8201
14.7394
14.3687
12.9817
9.16397
2.12394
-6.50644
-14.672
-21.8597
-28.0563
-33.1737
-37.1161
-39.7949
-41.1208
-41.0565
-39.5476
-36.5802
-32.214
-26.5565
-19.8618
-12.6032
-5.45569
0.873249
5.89883
9.503
11.8717
13.3192
14.1413
14.5552
14.7024
14.6717
14.5207
14.288
13.9988
13.6675
13.2993
12.8914
12.4361
11.9244
11.3521
10.7254
10.0649
9.40456
8.787
8.25693
7.86052
7.64535
7.6849
-30.4426
-31.0005
-32.0575
-33.5993
-35.5304
-37.7237
-40.036
-42.3392
-44.5395
-46.5843
-48.4516
-50.1323
-51.6161
-52.8858
-53.9224
-54.711
-55.2371
-55.5005
-55.5143
-55.3011
-54.8868
-54.2974
-53.5608
-52.7157
-51.8261
-50.998
-50.3794
-50.1253
-50.3403
-51.0516
-52.2309
-53.8233
-55.7724
-58.0361
-60.591
-63.4304
-66.56
-69.9945
-73.7537
-77.8585
-82.3244
-87.1541
-92.3284
-97.7989
-103.483
-109.261
-114.983
-120.473
-125.545
-130.021
-133.754
-136.634
-138.573
-139.487
-139.307
-138.122
-135.828
-132.478
-128.17
-123.047
-117.29
-111.104
-104.707
-98.2942
-92.0335
-86.0576
-80.4547
-75.2636
-70.4805
-66.0693
-61.9817
-58.1734
-54.605
-51.2278
-47.9655
-44.6994
-41.2741
-37.5175
-33.2869
-28.5322
-23.3423
-17.936
-12.5973
-7.58956
-3.09636
0.794954
4.07646
6.79068
9.00408
10.7891
12.2145
13.341
14.2207
14.8973
15.4076
15.7823
16.0468
16.2225
16.3271
16.3755
16.3798
16.3501
16.2948
16.2205
16.1327
16.0357
15.9329
15.8272
15.7207
15.615
15.5116
15.4115
15.3157
15.225
15.14
15.0614
14.9897
14.9251
14.8679
14.818
14.7752
14.7394
14.7099
14.6862
14.6676
14.6532
14.6417
14.6314
14.6195
14.6027
14.5772
14.5366
14.4647
14.3058
13.8549
12.4807
8.94447
2.43456
-5.79852
-13.8761
-21.0827
-27.2867
-32.3958
-36.3244
-38.9941
-40.3257
-40.2837
-38.8128
-35.9016
-31.6103
-26.052
-19.4939
-12.4205
-5.50103
0.588691
5.40991
8.8796
11.1916
12.6445
13.5105
13.9861
14.1995
14.2327
14.1403
13.9595
13.7153
13.4221
13.0856
12.7039
12.2704
11.7771
11.2193
10.6012
9.93987
9.26558
8.61883
8.04519
7.59111
7.30127
7.23863
-22.9619
-23.4715
-24.4457
-25.8789
-27.6964
-29.7907
-32.0326
-34.2969
-36.4796
-38.5084
-40.3406
-41.9538
-43.3363
-44.4873
-45.4249
-46.1592
-46.6928
-47.0299
-47.1773
-47.1447
-46.9466
-46.607
-46.1679
-45.6982
-45.2995
-45.0963
-45.2073
-45.7122
-46.636
-47.9604
-49.6449
-51.6459
-53.9303
-56.4807
-59.2948
-62.3831
-65.7658
-69.4697
-73.5251
-77.9605
-82.7955
-88.032
-93.6446
-99.5736
-105.72
-111.944
-118.073
-123.911
-129.257
-133.924
-137.77
-140.698
-142.638
-143.529
-143.345
-142.041
-139.62
-136.117
-131.622
-126.279
-120.282
-113.843
-107.201
-100.549
-94.066
-87.89
-82.1141
-76.78
-71.8824
-67.3812
-63.2233
-59.3598
-55.7459
-52.3266
-49.0187
-45.6986
-42.208
-38.3789
-34.0831
-29.2921
-24.113
-18.7692
-13.5314
-8.63878
-4.25016
-0.43588
2.8033
5.50903
7.7423
9.56843
11.0492
12.2398
13.1878
13.934
14.513
14.954
15.2818
15.5172
15.6777
15.7782
15.8308
15.8458
15.8316
15.7951
15.7419
15.6766
15.6028
15.5235
15.4411
15.3574
15.2739
15.1918
15.1123
15.0361
14.9639
14.8963
14.834
14.777
14.7257
14.6799
14.6395
14.6042
14.5733
14.5463
14.5221
14.4996
14.477
14.4519
14.4208
14.379
14.3205
14.2364
14.1078
13.88
13.3734
12.0642
8.89466
3.03633
-4.65776
-12.5341
-19.7143
-25.9218
-31.0304
-34.9546
-37.6237
-38.9675
-38.953
-37.5235
-34.6711
-30.4615
-25.0213
-18.6382
-11.8104
-5.19399
0.58126
5.13471
8.42236
10.643
12.0754
12.9642
13.4842
13.7497
13.8354
13.7924
13.6562
13.4509
13.1905
12.8807
12.5202
12.1032
11.6219
11.0714
10.454
9.78396
9.08869
8.40726
7.78679
7.27682
6.92069
6.76709
-15.3572
-15.7778
-16.6029
-17.8385
-19.4334
-21.3071
-23.3539
-25.4631
-27.5332
-29.4833
-31.2569
-32.819
-34.1537
-35.2636
-36.1617
-36.8567
-37.3624
-37.6941
-37.8708
-37.9175
-37.8695
-37.7775
-37.7111
-37.7581
-38.0128
-38.5573
-39.4426
-40.6814
-42.2557
-44.1314
-46.2728
-48.6531
-51.259
-54.0915
-57.1635
-60.4986
-64.1278
-68.0868
-72.4131
-77.1396
-82.2869
-87.8541
-93.8095
-100.083
-106.564
-113.097
-119.495
-125.547
-131.055
-135.833
-139.74
-142.687
-144.623
-145.509
-145.323
-144.029
-141.594
-138.061
-133.517
-128.106
-122.024
-115.497
-108.76
-102.023
-95.4649
-89.2253
-83.396
-78.0172
-73.0798
-68.5419
-64.3508
-60.4569
-56.8115
-53.3515
-49.9827
-46.5734
-42.9651
-39.0042
-34.5926
-29.7384
-24.5747
-19.3259
-14.2382
-9.51395
-5.27859
-1.5815
1.58411
4.25775
6.49325
8.34733
9.87384
11.1213
12.1326
12.9449
13.5902
14.0964
14.487
14.7822
14.9994
15.1528
15.2549
15.3159
15.3441
15.3468
15.3297
15.2975
15.254
15.2025
15.1453
15.0847
15.0221
14.959
14.8964
14.8354
14.7766
14.7207
14.6681
14.6192
14.5742
14.5329
14.4952
14.4606
14.4287
14.3985
14.3688
14.3383
14.3047
14.265
14.2151
14.1488
14.0586
13.9335
13.7535
13.4678
12.9265
11.7144
8.95804
3.83814
-3.16921
-10.6913
-17.7573
-23.9399
-29.0465
-32.9734
-35.6503
-37.0137
-37.0318
-35.6482
-32.8613
-28.7488
-23.4591
-17.3058
-10.7986
-4.56915
0.814379
5.03994
8.10348
10.2037
11.5938
12.4881
13.0382
13.3438
13.4721
13.4702
13.3716
13.1992
12.9663
12.6783
12.3343
11.9284
11.453
10.9026
10.2778
9.59026
8.86493
8.13986
7.46372
6.891
6.46817
6.23235
-8.9006
-9.20019
-9.81317
-10.7613
-12.0137
-13.5168
-15.1926
-16.9527
-18.7104
-20.39
-21.9328
-23.2991
-24.4707
-25.4503
-26.2431
-26.8576
-27.3194
-27.6602
-27.9194
-28.1452
-28.3954
-28.7356
-29.2351
-29.9576
-30.9514
-32.2411
-33.8262
-35.686
-37.7901
-40.1077
-42.6159
-45.304
-48.1739
-51.239
-54.5226
-58.0565
-61.8781
-66.0286
-70.5489
-75.4739
-80.8235
-86.5938
-92.7489
-99.2139
-105.872
-112.564
-119.096
-125.254
-130.831
-135.647
-139.57