/*--------------------------------*- C++ -*----------------------------------*\
  =========                 |
  \\      /  F ield         | OpenFOAM: The Open Source CFD Toolbox
   \\    /   O peration     | Website:  https://openfoam.org
    \\  /    A nd           | Version:  9
     \\/     M anipulation  |
\*---------------------------------------------------------------------------*/
FoamFile
{
    format      ascii;
    class       volScalarField;
    location    "0.083";
    object      nut;
}
// * * * * * * * * * * * * * * * * * * * * * * * * * * * * * * * * * * * * * //

dimensions      [0 2 -1 0 0 0 0];

internalField   nonuniform List<scalar> 
12225
(
0
0
0
0
0
0
0
0
0
0
0
0
0
0
0
0
0
0
0
0
0
0
0
0
0
0
0
0
0
0
0
0
0
0
0
0
0
0
0
0
0
0
0
0
0
0
0
0
0
0
0
0
0
0
1.72243e-10
0
0
0
4.06269e-10
0
0
0
0
0
0
0
0
0
0
0
0
0
0
0
0
0
9.36576e-07
5.89292e-07
0
0
0
0
1.71845e-08
9.84365e-09
3.32333e-09
1.30244e-08
2.16783e-08
3.49764e-08
4.66451e-08
2.76651e-08
0
0
0
0
1.78564e-06
1.87138e-06
0
0
0
0
9.63192e-08
2.36413e-07
2.00074e-07
7.17208e-08
8.44794e-08
2.37137e-07
3.88814e-07
4.19923e-07
0
0
0
0
0
0
0
0
0
1.11474e-08
4.38638e-07
4.46342e-07
3.53112e-07
2.82587e-07
2.45276e-07
2.65372e-07
3.02092e-07
2.62763e-07
7.80967e-08
1.38199e-07
0
0
0
0
0
0
0
3.19658e-07
6.0724e-07
7.59171e-07
7.72959e-07
5.64658e-07
1.67459e-07
0
0
0
5.15668e-07
5.76447e-07
3.74645e-07
0
0
0
0
4.95426e-08
2.12706e-07
5.36555e-07
9.49135e-07
1.36625e-06
1.62735e-06
1.04614e-06
0
0
0
0
7.50975e-07
6.64865e-07
4.84325e-07
1.21319e-07
0
0
2.34665e-08
0
0
0
6.86888e-08
6.06054e-07
8.12555e-07
4.2252e-07
0
0
0
0
6.54829e-07
5.70416e-07
4.46615e-07
2.52501e-07
0
0
0
0
0
0
0
0
1.98934e-07
4.92067e-07
6.48352e-07
4.27206e-07
0
0
1.43261e-07
0
2.47238e-07
8.22376e-07
2.39127e-07
0
0
0
0
0
5.52035e-08
6.41125e-07
1.12667e-06
1.22749e-06
1.00191e-06
4.30639e-07
0
0
0
0
1.00939e-07
3.13779e-07
0
0
0
0
0
1.9938e-07
1.00304e-06
1.76827e-06
2.18999e-06
2.2303e-06
1.72907e-06
8.6084e-07
1.09532e-07
0
0
0
0
0
0
0
0
2.58853e-08
1.18765e-07
3.13371e-07
1.26748e-06
2.14802e-06
2.34617e-06
2.00011e-06
1.30253e-06
5.79208e-07
6.60885e-08
0
0
0
0
0
0
0
0
0
1.53007e-07
0
0
0
1.4532e-07
6.18051e-07
7.25297e-07
5.59401e-07
2.69642e-07
1.13714e-08
0
0
0
0
0
0
0
0
1.6403e-07
0
0
0
0
1.18952e-07
5.1412e-07
3.75571e-07
1.38161e-07
3.76448e-08
0
0
0
0
0
0
0
0
0
3.21406e-07
4.96519e-07
0
0
0
0
0
4.21441e-08
2.43389e-07
0
0
0
0
0
0
0
0
1.62455e-07
6.37898e-07
4.10412e-07
0
0
0
0
0
0
0
6.41481e-07
1.18543e-07
0
0
0
1.71831e-06
9.92075e-07
4.22521e-07
1.03898e-07
0
0
0
0
0
0
0
0
0
3.64701e-07
3.7425e-07
1.545e-07
0
0
1.48001e-06
6.42821e-07
1.08607e-07
0
0
0
0
0
0
0
3.83425e-08
1.69434e-07
9.68332e-08
0
1.78657e-07
1.86068e-08
0
0
2.31523e-07
0
0
0
0
0
0
1.64434e-07
0
0
0
1.43256e-06
9.88729e-07
0
0
0
0
0
2.92885e-07
0
0
0
0
0
0
9.52676e-07
1.64368e-06
5.0863e-07
0
0
6.46398e-07
0
0
0
0
0
0
3.07499e-07
8.11544e-07
3.06807e-07
0
1.31092e-07
8.28541e-07
2.09426e-06
2.36547e-06
3.3374e-07
0
0
0
0
0
0
0
0
0
1.10981e-06
3.84079e-06
4.47332e-06
3.62115e-06
2.25187e-06
9.63134e-07
1.26375e-07
0
0
0
0
0
0
0
0
0
0
0
0
1.63595e-06
2.72193e-06
2.74391e-06
1.59303e-06
0
0
0
0
0
0
2.6085e-08
0
0
0
0
0
0
0
1.96845e-06
3.27715e-06
3.6577e-06
2.33672e-06
0
0
0
0
0
0
0
0
0
0
2.45851e-09
0
0
0
0
0
0
0
0
1.65435e-09
2.86165e-09
1.85977e-09
0
0
0
3.12746e-09
0
0
0
0
0
0
0
0
0
0
1.10173e-10
5.07555e-10
5.8444e-10
2.52898e-10
0
0
0
2.85071e-09
0
0
0
0
0
0
0
0
0
0
0
0
0
0
0
0
0
7.8121e-09
1.95758e-11
0
0
0
0
0
0
0
0
0
0
0
0
0
0
0
0
0
8.97203e-06
5.98754e-06
0
0
0
0
3.02356e-06
6.35052e-06
1.43704e-06
0
0
0
0
4.43901e-06
8.31097e-06
9.11526e-06
7.62909e-06
5.37331e-06
2.40896e-06
0
0
0
1.26802e-06
2.34531e-06
2.65914e-06
3.0269e-06
3.25696e-06
3.22546e-06
3.21621e-06
3.29402e-06
3.22678e-06
2.91617e-06
2.52688e-06
2.19802e-06
1.89182e-06
1.56413e-06
1.2564e-06
9.97151e-07
7.65323e-07
5.47172e-07
3.40284e-07
1.43551e-07
0
0
0
0
0
0
0
0
0
0
0
0
0
0
0
0
0
0
5.989e-07
0
0
0
0
0
0
0
0
0
0
0
0
0
0
0
0
0
0
0
4.95593e-06
1.05989e-05
2.52667e-05
4.41426e-05
4.70222e-05
4.42682e-05
4.70514e-05
5.8883e-05
7.43414e-05
7.38108e-05
4.64389e-05
1.81234e-05
4.98747e-06
6.31245e-06
1.6822e-05
2.63803e-05
2.66987e-05
1.95706e-05
1.10778e-05
4.90085e-06
1.64033e-06
3.40041e-07
0
2.09937e-08
1.38283e-07
2.41928e-07
3.00863e-07
3.16481e-07
3.00938e-07
2.66967e-07
2.24435e-07
1.79164e-07
1.35103e-07
9.39847e-08
5.53616e-08
1.7291e-08
0
0
0
0
0
0
0
0
0
0
0
0
0
0
0
0
0
0
0
0
0
0
0
0
0
0
0
0
0
0
0
0
0
0
0
0
0
0
0
0
0
1.11794e-09
1.38999e-08
1.05119e-08
5.01696e-09
4.65728e-09
9.2101e-09
1.68687e-08
2.42313e-08
2.64475e-08
2.57363e-08
2.13279e-08
1.35802e-08
3.01228e-09
0
0
0
0
0
0
0
0
0
1.1872e-05
8.64179e-06
7.44644e-06
6.21005e-06
3.43746e-06
6.615e-07
0
0
0
0
0
0
0
0
0
0
6.36981e-07
1.18939e-06
5.30816e-07
3.46267e-07
7.57638e-07
1.1669e-06
2.05317e-06
3.65496e-06
3.83665e-06
3.6925e-06
3.93468e-06
4.09164e-06
3.85203e-06
3.60542e-06
3.48377e-06
3.26694e-06
2.85866e-06
2.43678e-06
2.0941e-06
1.77374e-06
1.44436e-06
1.14294e-06
8.90234e-07
6.68589e-07
4.67296e-07
2.85063e-07
1.19171e-07
0
0
0
0
0
0
0
0
0
0
0
0
0
0
0
0
4.05478e-07
3.22216e-06
3.54601e-06
5.05605e-07
0
0
0
0
0
0
0
0
0
0
0
0
0
0
0
0
0
0
7.116e-06
1.83383e-05
3.66727e-05
4.9333e-05
4.11437e-05
3.19288e-05
2.53286e-05
2.03798e-05
1.62655e-05
1.28198e-05
9.9384e-06
7.78454e-06
6.592e-06
6.44883e-06
7.11261e-06
8.02599e-06
8.59292e-06
8.2982e-06
7.0641e-06
5.24829e-06
3.29033e-06
1.6726e-06
7.33326e-07
3.73928e-07
2.98669e-07
3.06182e-07
3.17243e-07
3.13841e-07
2.96068e-07
2.68008e-07
2.32819e-07
1.95644e-07
1.5503e-07
1.13902e-07
7.02586e-08
2.36894e-08
0
0
0
0
0
0
0
0
0
0
0
0
0
0
0
0
0
0
0
0
0
0
0
0
0
0
0
0
0
0
0
0
0
0
0
0
0
0
0
0
0
0
0
0
0
0
0
7.265e-09
2.52417e-08
3.47296e-08
3.72147e-08
3.37846e-08
2.84851e-08
2.02593e-08
2.15634e-09
0
0
0
0
0
0
0
0
1.17971e-05
1.09904e-05
1.1765e-05
1.21959e-05
1.01544e-05
5.9271e-06
6.0701e-07
0
0
0
0
0
0
0
0
0
0
0
0
0
0
0
5.26673e-07
6.17006e-06
8.74179e-06
6.19717e-06
2.61057e-06
1.39131e-07
0
0
0
9.67417e-07
1.60862e-06
1.77734e-06
1.7384e-06
1.52399e-06
1.18779e-06
8.96689e-07
6.67594e-07
4.64369e-07
3.06582e-07
1.81438e-07
8.1375e-08
0
0
0
0
0
0
0
0
0
0
0
0
4.65937e-08
6.38981e-07
1.45416e-06
2.62438e-06
4.07429e-06
4.43902e-06
2.36632e-06
6.29673e-07
2.21279e-07
0
0
2.04852e-07
9.33487e-07
1.1351e-06
1.94633e-07
0
0
0
0
0
0
1.97939e-06
4.02241e-06
5.80034e-06
5.0411e-06
1.14399e-06
0
0
4.8886e-06
8.37038e-06
8.77744e-06
8.72769e-06
9.1082e-06
9.52473e-06
9.92363e-06
1.00487e-05
9.8713e-06
9.51705e-06
9.22165e-06
9.05321e-06
8.93428e-06
8.72455e-06
8.1928e-06
7.43327e-06
6.41966e-06
5.32461e-06
4.16799e-06
3.08564e-06
2.22225e-06
1.63567e-06
1.29951e-06
1.12801e-06
1.04008e-06
9.47324e-07
8.5156e-07
7.43917e-07
6.3191e-07
5.15475e-07
3.98054e-07
2.84159e-07
1.73536e-07
6.31254e-08
0
0
0
0
0
0
0
0
0
0
0
0
0
0
0
0
0
0
0
0
0
0
0
0
0
0
0
0
0
0
0
0
0
0
0
0
0
0
0
0
0
0
0
0
0
0
0
0
8.4649e-09
6.07478e-08
7.92491e-08
7.69019e-08
7.90297e-08
8.16044e-08
4.26467e-08
1.95539e-08
4.58741e-09
0
0
0
0
0
0
6.41941e-06
1.18967e-05
1.33103e-05
1.3511e-05
1.12827e-05
7.25996e-06
3.6911e-06
6.25151e-07
0
0
0
0
0
0
0
0
0
0
0
0
0
0
0
0
0
0
0
0
0
0
0
0
0
0
0
0
0
0
0
0
0
0
0
8.60612e-08
2.04565e-07
3.01218e-07
3.79984e-07
4.45959e-07
4.98508e-07
5.40598e-07
5.76747e-07
6.28692e-07
6.93916e-07
7.83278e-07
9.15251e-07
1.10321e-06
1.33927e-06
1.62568e-06
2.02184e-06
2.53968e-06
2.58653e-06
2.03961e-06
2.39554e-06
3.1219e-06
2.89485e-06
3.18063e-06
3.98668e-06
5.14256e-06
6.58799e-06
7.76249e-06
7.08481e-06
4.22269e-06
0
0
0
1.08836e-05
1.05658e-05
8.14627e-06
4.96518e-06
2.05402e-06
0
0
0
0
1.71114e-06
3.28371e-06
4.90941e-06
6.9189e-06
7.86543e-06
7.05131e-06
5.91644e-06
5.23599e-06
5.0411e-06
5.15502e-06
5.30506e-06
5.36489e-06
5.25308e-06
4.81439e-06
4.28309e-06
3.65707e-06
3.01849e-06
2.43924e-06
1.98765e-06
1.73551e-06
1.7087e-06
1.86413e-06
2.19564e-06
2.61892e-06
2.89407e-06
2.95196e-06
2.8145e-06
2.53352e-06
2.15134e-06
1.55977e-06
5.92275e-07
0
0
1.99407e-07
5.08175e-07
4.01215e-07
1.08814e-07
0
0
0
0
0
0
0
0
0
0
0
0
0
0
0
0
0
0
0
0
0
0
0
0
0
0
0
0
0
3.53957e-08
0
0
0
0
0
0
0
0
0
0
0
0
0
0
0
0
7.82347e-08
1.13861e-07
8.51924e-08
5.56108e-08
2.78023e-08
9.39427e-08
1.49262e-07
7.95496e-08
1.20989e-07
2.68413e-07
0
0
0
1.8443e-06
4.23388e-06
8.48229e-06
8.92648e-06
5.71195e-07
0
0
0
0
0
0
0
0
0
0
0
0
0
0
0
0
0
0
0
0
0
0
0
0
0
0
0
0
0
0
0
0
0
0
0
0
0
0
0
2.08761e-07
4.18516e-07
5.68977e-07
6.76077e-07
7.39371e-07
7.56527e-07
7.53455e-07
7.52427e-07
7.36341e-07
7.22454e-07
7.14249e-07
7.06811e-07
7.35944e-07
8.14514e-07
9.7068e-07
1.1934e-06
1.47044e-06
1.97436e-06
3.01057e-06
3.87218e-06
3.52257e-06
3.24928e-06
3.2307e-06
3.76088e-06
4.86923e-06
5.83377e-06
4.65093e-06
0
0
0
0
1.37092e-05
5.30194e-06
1.75695e-06
1.4032e-06
3.72391e-07
0
0
0
0
9.80287e-07
4.36493e-06
4.81118e-06
2.33674e-06
1.21946e-06
7.89854e-07
6.09354e-07
5.48757e-07
5.48649e-07
5.83685e-07
6.43019e-07
7.05263e-07
7.40072e-07
7.32757e-07
7.27605e-07
7.66556e-07
8.51207e-07
9.73209e-07
1.06719e-06
1.19748e-06
1.45196e-06
1.85964e-06
2.08324e-06
2.03251e-06
1.70598e-06
1.22872e-06
6.75221e-07
3.53696e-08
0
0
0
0
1.65693e-07
9.32893e-07
1.07187e-06
9.32913e-07
6.77954e-07
3.79743e-07
6.88499e-08
0
0
0
0
0
0
0
0
0
0
0
0
0
0
0
0
0
0
0
0
0
0
0
0
0
0
0
0
0
0
0
0
0
0
0
0
0
0
0
0
0
0
0
0
0
9.12037e-08
1.55207e-07
1.09153e-07
4.43496e-08
1.29883e-07
2.57046e-07
4.36991e-07
7.00232e-07
8.64489e-07
3.8028e-08
0
2.59866e-07
4.08098e-07
1.11365e-06
4.10928e-06
0
0
0
0
0
0
0
0
0
0
0
0
0
0
0
0
0
0
0
0
0
0
0
0
0
0
0
0
0
0
0
0
0
0
0
0
0
0
0
0
0
7.3681e-08
3.64531e-07
6.16137e-07
8.16379e-07
9.45289e-07
9.97363e-07
1.0109e-06
9.88049e-07
9.45804e-07
8.63472e-07
8.01579e-07
7.25731e-07
6.71701e-07
6.37099e-07
6.09992e-07
6.52379e-07
7.85769e-07
1.1096e-06
1.96196e-06
2.88188e-06
2.96178e-06
3.07923e-06
2.67812e-06
2.52522e-06
3.47264e-06
4.12952e-06
1.01893e-06
0
0
0
0
0
1.87896e-06
4.01269e-07
8.15414e-07
0
0
0
0
0
0
1.26122e-06
5.62976e-07
3.64204e-07
3.13137e-07
2.81451e-07
2.5126e-07
2.54547e-07
2.66646e-07
2.65756e-07
2.64832e-07
2.73056e-07
2.8925e-07
3.14628e-07
3.70431e-07
5.14903e-07
7.54585e-07
9.98662e-07
1.20993e-06
1.48142e-06
1.64248e-06
1.61288e-06
1.41971e-06
1.12109e-06
8.05863e-07
4.32502e-07
0
0
0
0
0
4.82142e-07
1.04247e-06
1.04217e-06
8.16042e-07
5.11107e-07
1.93312e-07
0
0
0
0
0
0
0
0
0
0
0
0
0
0
0
0
0
0
0
0
0
0
0
0
0
0
0
0
0
0
0
0
0
0
0
0
0
0
0
0
0
0
0
0
0
0
0
3.20628e-08
1.86484e-07
2.30248e-07
1.56817e-07
5.25153e-08
0
1.94634e-07
3.5302e-07
5.47187e-07
0
0
1.06387e-06
5.35897e-08
3.0418e-07
1.51041e-06
0
0
0
0
0
0
0
0
0
0
9.20006e-06
7.52511e-06
0
0
0
0
0
0
0
0
0
0
0
0
0
0
0
0
0
0
0
0
0
0
0
0
0
9.90911e-08
4.21301e-07
4.41963e-07
1.60029e-07
0
0
0
0
2.92029e-08
4.32823e-07
7.88924e-07
1.02669e-06
1.1655e-06
1.17986e-06
1.10886e-06
9.69006e-07
8.12121e-07
6.5603e-07
5.51442e-07
4.86355e-07
4.41716e-07
4.84865e-07
6.85066e-07
1.10547e-06
1.74617e-06
2.76946e-06
3.53204e-06
2.48803e-06
3.19593e-06
4.80864e-06
0
0
0
0
0
0
0
0
0
0
0
0
0
0
0
0
0
6.15706e-08
2.29971e-07
2.63949e-07
2.42753e-07
2.40789e-07
2.5211e-07
2.50952e-07
2.45015e-07
2.44049e-07
2.55522e-07
2.8242e-07
3.5397e-07
5.39554e-07
8.33056e-07
1.15453e-06
1.45204e-06
1.38999e-06
1.05283e-06
7.31543e-07
6.8662e-07
7.78146e-07
7.33102e-07
4.40745e-07
0
0
0
0
7.96967e-07
1.09448e-06
9.79108e-07
6.3347e-07
2.7317e-07
0
0
0
0
0
0
0
0
0
0
0
0
0
0
0
0
0
0
0
0
0
0
0
0
0
0
0
0
0
0
0
0
0
0
0
0
0
0
0
0
0
0
0
0
0
0
0
3.85353e-08
1.16342e-07
3.0786e-07
5.66364e-07
6.61628e-07
4.8821e-07
8.9559e-08
0
0
0
1.45341e-07
0
0
2.24063e-06
0
1.83283e-08
3.76629e-07
0
0
0
0
0
0
0
0
0
0
2.91894e-05
2.21114e-05
5.4118e-06
0
0
0
0
0
0
0
0
0
0
0
0
0
0
0
0
0
0
0
0
0
5.00232e-07
1.54399e-06
2.56852e-06
3.30124e-06
3.55466e-06
2.92296e-06
1.00295e-06
0
0
0
0
0
0
0
0
0
3.69674e-07
1.0278e-06
1.29435e-06
1.23596e-06
1.00153e-06
7.09662e-07
5.14524e-07
4.01867e-07
3.38219e-07
3.36031e-07
4.1042e-07
5.55968e-07
1.23946e-06
3.93243e-06
4.30579e-06
3.29792e-06
4.67881e-06
0
0
0
0
0
0
0
0
0
0
0
0
0
0
0
0
0
2.43726e-08
1.42752e-07
1.38496e-07
1.1613e-07
1.23917e-07
1.54657e-07
1.88348e-07
2.08449e-07
2.1901e-07
2.38775e-07
2.60667e-07
3.36214e-07
5.433e-07
8.99445e-07
1.33938e-06
1.41685e-06
8.67399e-07
2.1104e-07
1.36689e-07
6.51316e-07
1.05326e-06
1.01766e-06
5.86163e-07
0
0
9.85393e-08
7.92439e-07
1.0552e-06
1.05115e-06
8.95008e-07
6.15042e-07
3.2242e-07
5.08878e-08
0
0
0
0
0
0
0
0
0
0
0
0
0
0
0
0
0
0
0
5.68011e-08
4.3183e-07
3.45469e-07
2.61198e-07
3.6681e-07
5.38918e-07
6.29088e-07
4.53352e-07
0
0
0
0
1.43585e-07
4.19712e-07
1.44842e-06
2.86063e-06
1.03544e-06
1.44761e-06
1.16774e-06
7.96865e-07
0
0
0
0
2.6471e-07
1.16952e-06
1.42306e-06
1.40863e-06
1.28557e-06
1.26077e-06
1.31373e-06
1.1631e-06
7.0771e-07
3.7837e-08
0
0
1.49282e-08
2.49397e-07
4.50017e-07
1.55746e-06
4.45775e-06
0
0
0
5.71894e-07
0
0
0
0
2.32898e-07
5.86109e-07
2.5322e-06
7.04898e-06
1.2275e-05
1.92945e-05
2.94785e-05
2.26475e-05
1.42355e-06
0
0
0
0
0
0
0
0
0
0
0
0
0
0
0
0
0
0
3.6471e-07
1.2354e-06
1.8131e-06
2.19096e-06
2.41626e-06
2.52859e-06
2.41583e-06
1.8308e-06
4.75801e-07
0
0
0
0
0
0
0
0
0
0
0
3.1647e-08
1.10385e-06
1.33679e-06
1.05219e-06
7.09654e-07
4.50361e-07
3.11086e-07
2.46943e-07
2.10775e-07
1.92154e-07
2.00707e-08
0
1.5513e-06
6.28118e-07
0
0
0
0
0
0
0
0
1.35203e-06
2.36201e-08
0
0
0
0
0
0
3.56373e-08
1.80794e-07
3.84183e-07
2.01829e-07
0
0
0
0
3.93879e-08
1.13621e-07
1.58401e-07
1.91557e-07
2.13439e-07
2.88827e-07
5.10414e-07
9.47223e-07
1.38416e-06
1.138e-06
2.29922e-07
0
4.78711e-08
9.25616e-07
1.31263e-06
1.05502e-06
3.54578e-07
0
0
5.18453e-07
1.1463e-06
1.62868e-06
2.02205e-06
2.10917e-06
1.8813e-06
1.54249e-06
1.24662e-06
1.08328e-06
9.6316e-07
6.36427e-07
1.10867e-07
0
0
0
0
0
0
0
0
0
0
0
0
0
0
0
3.1926e-08
6.06167e-07
1.07435e-06
1.06436e-06
1.1022e-06
1.21818e-06
1.37503e-06
1.42804e-06
1.2634e-06
7.62977e-08
0
0
1.45655e-07
5.02817e-07
1.07821e-06
2.08756e-06
1.92361e-06
1.79105e-06
2.78018e-06
3.14208e-06
2.73567e-06
1.0035e-06
0
0
1.04404e-06
2.65612e-06
4.62756e-06
5.52149e-06
5.51882e-06
4.89703e-06
3.06692e-06
1.74366e-06
9.17802e-07
2.568e-08
0
0
4.27247e-07
8.65965e-07
1.37815e-06
4.51149e-06
8.69262e-06
0
0
0
1.97664e-06
1.90594e-06
3.06222e-07
0
0
0
1.40088e-06
3.57965e-06
5.03591e-06
5.12795e-06
4.5132e-06
4.00185e-06
3.72562e-06
2.84066e-06
4.05783e-06
1.30123e-06
0
0
0
0
0
0
0
0
0
0
0
0
0
0
0
6.42793e-07
1.08243e-06
1.24665e-06
1.38333e-06
1.63178e-06
1.98969e-06
2.32791e-06
2.38635e-06
1.93481e-06
1.32718e-06
1.27561e-06
1.67659e-06
2.07755e-06
2.16422e-06
1.73022e-06
6.76893e-07
0
0
0
0
0
0
0
6.63264e-07
1.18609e-06
9.73547e-07
6.31625e-07
3.93691e-07
2.55895e-07
1.9279e-07
1.44537e-07
6.72093e-08
0
0
0
0
0
0
0
0
0
0
8.67348e-07
2.14704e-06
5.59291e-07
0
0
2.2231e-07
2.66863e-07
2.59466e-07
2.79788e-07
2.64322e-07
2.03123e-07
3.91247e-07
3.89889e-07
7.45455e-08
0
0
0
0
0
7.74673e-08
1.31018e-07
1.68585e-07
2.39161e-07
4.47611e-07
8.64023e-07
1.20238e-06
7.49803e-07
0
0
1.34718e-07
1.08376e-06
1.29914e-06
7.71424e-07
0
0
0
4.46044e-07
1.67035e-06
3.43096e-06
4.56277e-06
4.51297e-06
3.87669e-06
3.23176e-06
2.8912e-06
2.94431e-06
2.82343e-06
2.09182e-06
1.11193e-06
1.53066e-07
0
0
0
0
0
0
0
0
0
0
0
0
0
0
5.21236e-07
9.10621e-07
1.29694e-06
1.67901e-06
1.61589e-06
1.69116e-06
1.78524e-06
1.89032e-06
1.89137e-06
1.66382e-06
8.59254e-07
0
2.86379e-07
7.52681e-07
1.26937e-06
1.88525e-06
1.73301e-06
3.26066e-07
8.79984e-07
1.18159e-06
1.02851e-06
7.90434e-07
2.47493e-07
1.09854e-07
5.91956e-07
9.45128e-07
1.5975e-06
2.52969e-06
3.13609e-06
3.8033e-06
5.3369e-06
3.72303e-06
1.664e-06
4.30378e-07
0
2.14125e-07
1.14411e-06
1.84582e-06
2.55082e-06
6.48562e-06
4.85676e-06
0
0
0
0
1.4507e-06
7.98325e-07
0
0
0
0
0
0
0
0
0
1.7551e-06
7.48182e-06
7.04811e-06
4.35865e-06
1.73739e-06
0
0
0
0
0
0
0
0
0
0
0
0
5.03876e-07
1.1673e-06
1.41134e-06
1.6276e-06
2.12731e-06
3.05059e-06
4.37563e-06
5.93271e-06
7.23944e-06
7.21878e-06
4.46336e-06
0
0
0
0
7.87818e-07
2.39004e-06
3.46032e-06
3.78891e-06
3.20805e-06
1.53518e-06
0
0
0
0
0
3.65286e-07
9.75696e-07
7.92442e-07
5.16633e-07
3.23828e-07
2.11002e-07
1.49092e-07
9.54895e-08
4.43307e-08
0
0
0
0
0
0
0
0
0
0
0
0
2.16525e-06
1.5732e-06
7.74415e-07
4.3491e-07
3.9486e-07
4.78693e-07
5.27899e-07
3.34752e-07
2.61968e-08
1.50796e-07
1.42876e-07
1.92099e-08
0
0
0
0
3.76244e-09
6.53551e-08
1.16982e-07
1.89574e-07
3.71771e-07
7.14653e-07
8.6554e-07
2.94269e-07
0
0
1.71775e-07
1.02873e-06
1.05922e-06
3.41369e-07
0
0
0
0
2.10603e-06
5.46242e-06
6.2959e-06
5.36672e-06
4.13386e-06
3.28397e-06
3.19009e-06
3.64503e-06
3.41641e-06
2.4667e-06
1.25649e-06
1.06267e-08
0
0
0
0
0
0
0
0
0
0
0
0
0
0
7.89989e-07
1.60987e-06
1.74772e-06
1.9363e-06
2.15497e-06
1.98676e-06
2.04223e-06
2.08115e-06
2.12986e-06
2.04922e-06
1.76476e-06
9.43629e-07
5.47109e-09
9.15057e-07
1.51467e-06
2.26803e-06
2.68226e-06
8.54037e-07
7.05725e-07
1.00454e-06
8.95613e-07
8.50041e-07
7.60962e-07
2.95112e-07
4.6108e-07
7.74527e-07
1.27029e-06
2.03702e-06
2.52542e-06
2.89108e-06
3.16942e-06
3.76189e-06
3.6354e-06
2.27285e-06
1.68762e-06
1.69466e-06
2.17952e-06
2.80173e-06
1.3791e-06
0
0
0
0
0
0
0
1.51536e-07
0
0
0
0
0
0
0
0
0
4.86923e-06
8.5845e-06
8.39868e-06
6.5133e-06
4.50916e-06
3.0657e-06
1.85435e-06
0
0
0
0
0
0
0
0
0
9.57064e-07
1.53145e-06
1.69522e-06
1.91114e-06
2.53497e-06
3.74825e-06
5.67355e-06
8.3994e-06
1.2064e-05
1.65097e-05
1.93794e-05
9.1829e-06
0
0
0
0
0
0
0
5.5897e-07
2.47712e-06
3.60969e-06
3.34069e-06
1.02808e-06
0
0
0
0
0
6.67929e-07
5.73426e-07
3.83563e-07
2.45733e-07
1.60186e-07
1.0516e-07
6.00799e-08
3.82697e-08
0
0
0
0
0
0
0
0
0
3.91135e-07
1.44274e-06
1.50764e-06
8.75742e-07
3.70555e-07
3.3069e-07
6.63837e-07
1.05377e-06
1.30502e-06
8.93404e-07
0
0
0
3.51072e-08
5.85135e-09
0
0
0
0
1.24442e-08
5.85499e-08
1.24315e-07
2.9104e-07
5.6121e-07
5.3652e-07
0
0
0
1.11674e-07
8.41497e-07
7.21423e-07
0
0
0
0
0
2.34233e-06
5.78609e-06
5.94168e-06
4.53252e-06
3.00863e-06
2.1816e-06
2.83378e-06
3.81541e-06
3.65095e-06
2.73162e-06
1.35024e-06
0
0
0
0
0
0
0
0
0
0
0
0
0
0
0
0
1.78213e-06
2.53574e-06
2.4685e-06
2.53294e-06
2.53179e-06
2.23905e-06
2.24382e-06
2.19145e-06
2.13819e-06
1.89207e-06
1.51832e-06
8.71663e-08
0
1.32713e-06
2.22504e-06
3.17972e-06
3.02116e-06
1.31276e-06
1.54724e-06
1.18793e-06
1.05492e-06
1.00394e-06
6.40934e-07
5.005e-07
7.18594e-07
1.14052e-06
1.72529e-06
2.00974e-06
2.0464e-06
1.49962e-06
1.21288e-06
1.12762e-06
1.59815e-06
1.89881e-06
2.34304e-06
2.12102e-06
1.44663e-06
0
0
0
0
0
0
0
0
0
0
0
0
0
0
0
0
0
1.18414e-07
3.11676e-06
5.28753e-06
6.13195e-06
6.19788e-06
6.05022e-06
5.22303e-06
3.19183e-06
1.03002e-06
0
0
0
0
0
0
0
5.83989e-07
1.06522e-06
1.23666e-06
1.42751e-06
1.97608e-06
3.11397e-06
5.0002e-06
7.80654e-06
1.17965e-05
1.7591e-05
2.64706e-05
3.80194e-05
0
0
0
0
0
0
0
0
0
0
0
2.25342e-06
2.93827e-06
1.02279e-06
0
0
0
0
0
4.64325e-07
3.99271e-07
2.52625e-07
1.4964e-07
9.13141e-08
5.6335e-08
3.13765e-08
1.41812e-08
0
0
0
0
0
0
0
4.2741e-07
1.03547e-06
1.00906e-06
4.92493e-07
0
0
0
0
1.18747e-06
1.76611e-06
4.70428e-07
0
0
0
0
1.87801e-08
1.25939e-08
0
0
0
0
7.83597e-09
5.22857e-08
2.04476e-07
4.76932e-07
3.8231e-07
0
0
0
0
6.40155e-07
4.33851e-07
0
0
0
0
0
2.45269e-06
5.31366e-06
5.42909e-06
4.13568e-06
2.73181e-06
2.53675e-06
4.05232e-06
4.92668e-06
4.67792e-06
3.69902e-06
1.9211e-06
0
0
0
0
0
0
0
0
0
0
0
0
0
0
0
0
5.96559e-07
2.96739e-06
3.45515e-06
3.09482e-06
2.99387e-06
2.70969e-06
2.35675e-06
2.27872e-06
2.11297e-06
1.9242e-06
1.46314e-06
9.30212e-07
0
0
6.90322e-07
1.75862e-06
2.97131e-06
3.45092e-06
3.55051e-06
2.53426e-06
1.5635e-06
1.25358e-06
9.15167e-07
7.4158e-07
5.76769e-07
6.9409e-07
1.10986e-06
1.00494e-06
5.65961e-07
4.21373e-07
6.49715e-07
2.62963e-07
2.50939e-07
8.51766e-07
1.27718e-06
1.44362e-06
1.74597e-06
0
0
2.95938e-07
0
0
0
0
0
0
0
0
0
0
0
0
0
5.38558e-07
1.71806e-06
3.07355e-06
4.34124e-06
5.27616e-06
5.63484e-06
5.18769e-06
4.09326e-06
2.72276e-06
1.35741e-06
4.08562e-07
8.85043e-11
0
0
0
0
0
9.3906e-08
3.05849e-07
5.33334e-07
9.53298e-07
1.75573e-06
3.08275e-06
4.99335e-06
7.50967e-06
1.06124e-05
1.39935e-05
1.59508e-05
7.6478e-06
0
0
0
0
0
0
0
0
0
0
0
0
1.51312e-06
1.96901e-06
0
0
0
0
0
1.31788e-07
3.2303e-07
2.24416e-07
1.21576e-07
6.15944e-08
3.38157e-08
1.88417e-08
3.40654e-09
0
0
0
0
0
0
0
3.36639e-07
5.55511e-07
3.82948e-07
0
0
0
0
0
0
0
0
0
0
0
0
0
3.12026e-08
2.49358e-08
9.68522e-09
0
0
0
0
1.20797e-07
4.09492e-07
3.82689e-07
0
0
0
0
6.19228e-07
4.95422e-07
0
0
0
0
0
2.29725e-06
4.4486e-06
4.84433e-06
4.00363e-06
3.11315e-06
3.81179e-06
5.29544e-06
5.874e-06
5.76463e-06
4.68291e-06
2.17974e-06
0
0
0
0
0
0
0
0
0
0
0
0
0
0
0
0
0
2.52732e-06
4.17524e-06
4.02327e-06
3.45031e-06
3.16861e-06
2.64589e-06
2.30308e-06
2.09825e-06
1.83387e-06
1.46251e-06
7.75905e-07
0
0
0
0
0
0
4.38949e-06
4.75759e-06
2.91943e-06
1.60504e-06
1.128e-06
8.38547e-07
3.68506e-07
1.28313e-07
6.57407e-07
5.78639e-07
3.23166e-07
4.63487e-07
6.94393e-07
4.59017e-07
0
5.64494e-07
9.68241e-07
1.1949e-06
1.8463e-06
0
0
5.51823e-07
0
0
0
0
0
0
0
0
0
0
3.62121e-07
1.37919e-06
2.30574e-06
3.21783e-06
4.10276e-06
4.88623e-06
5.42297e-06
5.56697e-06
5.20392e-06
4.4815e-06
3.53581e-06
2.48089e-06
1.48315e-06
8.57778e-07
5.67921e-07
4.45674e-07
3.73465e-07
2.62317e-07
3.36253e-08
0
0
0
0
1.92976e-07
5.3565e-07
9.94099e-07
1.48686e-06
1.841e-06
1.71561e-06
3.66898e-07
0
0
0
0
0
0
0
0
0
0
0
0
0
0
1.80079e-07
1.38471e-06
6.15593e-07
0
0
0
0
1.13201e-07
3.17984e-07
2.18242e-07
1.13967e-07
5.07765e-08
2.00031e-08
6.93229e-09
1.73085e-09
0
0
0
0
0
0
0
0
0
1.27763e-07
1.34712e-07
0
0
0
0
0
0
0
0
0
0
0
0
3.07701e-08
3.90335e-08
3.14153e-08
1.68677e-08
0
0
0
5.41799e-08
3.07885e-07
4.08953e-07
0
0
0
0
7.42392e-07
9.81895e-07
2.41346e-07
0
0
0
0
1.70642e-06
3.12208e-06
3.59675e-06
3.00082e-06
2.74945e-06
4.24401e-06
5.78385e-06
6.50608e-06
6.68727e-06
5.07926e-06
1.38668e-06
0
0
0
0
0
0
0
0
0
0
0
0
0
0
0
0
0
0
4.29951e-06
4.87562e-06
4.10444e-06
3.5307e-06
3.04659e-06
2.40565e-06
2.07333e-06
1.74671e-06
1.3593e-06
7.08217e-07
0
0
0
0
0
0
0
2.35416e-06
2.25851e-06
1.64456e-06
1.03857e-06
6.06229e-07
1.79656e-07
0
2.69835e-07
6.99864e-07
6.82493e-07
6.03541e-07
6.90088e-07
3.86408e-07
0
7.57828e-07
9.63859e-07
1.06983e-06
1.49533e-06
1.16271e-06
5.71135e-07
6.64186e-07
0
0
0
0
0
0
0
0
0
0
4.8454e-07
1.95551e-06
3.13298e-06
4.03622e-06
4.68258e-06
5.04053e-06
5.08733e-06
4.85671e-06
4.40593e-06
3.80334e-06
3.0609e-06
2.26532e-06
1.60188e-06
1.21157e-06
1.0018e-06
8.93111e-07
7.8246e-07
6.0908e-07
2.92753e-07
0
0
0
0
0
0
0
0
0
0
0
0
0
0
0
0
0
0
0
0
0
0
0
0
0
2.20412e-07
8.84885e-07
7.79729e-07
0
0
0
0
6.15042e-07
5.14769e-07
2.95628e-07
1.50846e-07
6.81279e-08
2.52086e-08
7.8095e-09
3.07115e-09
2.82313e-09
5.22445e-09
1.30743e-08
3.31069e-08
6.79711e-08
3.23032e-08
0
0
0
0
4.88599e-08
1.98988e-07
0
0
0
0
0
0
0
0
0
0
0
1.00327e-08
2.25807e-08
2.05322e-08
1.01962e-08
0
0
0
0
1.57945e-07
3.04504e-07
0
0
0
0
6.6606e-07
1.57815e-06
1.30057e-06
4.09052e-07
0
0
8.66241e-07
2.25182e-06
2.91252e-06
2.74784e-06
2.01419e-06
2.88289e-06
5.58614e-06
7.41561e-06
8.42221e-06
8.57937e-06
5.22981e-06
3.93035e-07
0
0
0
0
0
9.78754e-08
0
0
0
0
0
0
0
0
0
0
0
0
3.33726e-06
5.53972e-06
5.04641e-06
4.095e-06
3.48043e-06
2.7581e-06
2.11917e-06
1.7204e-06
1.25488e-06
6.34621e-07
0
0
0
0
0
0
0
1.77828e-06
2.06557e-06
1.58822e-06
8.30531e-07
2.34083e-07
0
0
6.5531e-08
3.35827e-07
3.83812e-07
2.69382e-07
2.76218e-07
0
0
3.68597e-07
7.28741e-07
9.44575e-07
1.20443e-06
7.75267e-07
6.20159e-07
6.92639e-07
5.2221e-07
1.07871e-06
0
0
0
0
0
0
0
0
2.20258e-07
1.48701e-06
2.42556e-06
3.06609e-06
3.46669e-06
3.6817e-06
3.71345e-06
3.57265e-06
3.2592e-06
2.87704e-06
2.42997e-06
1.97024e-06
1.62051e-06
1.37331e-06
1.23067e-06
1.14152e-06
1.03087e-06
8.94507e-07
6.53204e-07
2.99226e-07
3.37281e-08
0
0
0
0
0
0
0
0
0
0
0
0
0
0
0
0
0
0
4.16777e-07
3.49986e-07
2.9372e-07
1.1704e-07
0
2.08211e-07
4.69935e-07
7.17119e-07
8.75949e-07
1.38781e-07
0
1.01128e-06
1.03772e-06
6.17361e-07
3.07084e-07
1.58124e-07
8.4916e-08
4.10263e-08
1.76627e-08
9.54587e-09
1.11217e-08
1.45907e-08
1.30411e-08
1.41529e-08
2.88935e-08
8.94339e-08
1.6901e-07
0
0
0
0
0
1.60272e-07
0
0
0
0
0
0
0
0
0
0
0
0
0
0
0
0
0
0
0
3.09105e-08
0
0
0
0
1.36999e-07
1.86125e-06
2.44004e-06
2.59168e-06
3.03107e-06
4.0959e-06
5.8655e-06
6.95154e-06
6.45061e-06
3.97494e-06
2.66558e-06
5.35473e-06
9.12264e-06
1.08459e-05
1.19927e-05
1.11422e-05
4.49451e-06
9.99148e-08
0
0
0
2.29795e-07
4.25754e-07
0
0
0
0
0
0
0
0
0
0
0
0
0
0
5.86868e-06
5.89607e-06
4.73864e-06
3.8984e-06
3.13728e-06
2.27807e-06
1.69436e-06
1.15671e-06
5.03311e-07
0
0
0
3.78432e-07
8.50976e-08
0
0
1.80363e-06
2.09959e-06
1.64128e-06
1.05785e-06
4.4656e-07
0
0
0
1.3631e-07
1.07101e-07
4.63502e-08
4.16736e-09
0
0
7.65768e-08
3.72784e-07
6.49253e-07
7.40165e-07
6.63732e-07
5.88734e-07
7.65111e-07
8.69148e-07
3.31729e-06
4.22912e-06
0
0
0
0
0
0
0
4.93831e-07
1.40168e-06
1.95103e-06
2.27314e-06
2.42897e-06
2.50237e-06
2.50279e-06
2.42315e-06
2.25627e-06
2.06281e-06
1.85495e-06
1.67128e-06
1.50669e-06
1.37664e-06
1.29002e-06
1.22829e-06
1.14138e-06
1.05062e-06
9.57486e-07
7.64013e-07
5.83985e-07
4.34467e-07
2.1399e-07
0
0
0
0
0
0
0
0
0
0
0
0
0
2.70573e-06
3.15412e-06
2.74905e-06
1.92569e-06
1.11457e-06
7.88999e-07
5.5095e-07
1.71255e-07
2.02152e-08
2.35972e-07
9.59179e-07
1.78424e-06
1.266e-06
1.18845e-06
1.62841e-06
1.17115e-06
5.66286e-07
2.35782e-07
1.11948e-07
6.74066e-08
4.11569e-08
2.32075e-08
1.49376e-08
1.2702e-08
1.41093e-08
1.79701e-08
2.24849e-08
2.64627e-08
3.50431e-08
6.00471e-08
9.97233e-08
0
0
0
0
0
0
1.34457e-07
5.1833e-08
0
0
0
0
0
0
0
0
0
0
0
0
0
0
0
0
0
0
0
0
0
0
1.66415e-06
3.24804e-06
4.51477e-06
6.49106e-06
1.01481e-05
1.4815e-05
1.90822e-05
2.01427e-05
1.19877e-05
7.95075e-06
1.19544e-05
1.52711e-05
1.65317e-05
1.79296e-05
1.34778e-05
2.2515e-06
4.2362e-07
4.40894e-07
1.64904e-07
4.76474e-07
1.00812e-06
3.03711e-07
0
0
0
0
0
0
0
0
0
0
9.75006e-07
0
0
0
5.5064e-06
6.75509e-06
5.43335e-06
4.31471e-06
3.51438e-06
2.57334e-06
1.75047e-06
1.12191e-06
4.07554e-07
0
0
0
7.74279e-07
7.96591e-07
8.37271e-07
1.12303e-06
1.90434e-06
2.03925e-06
1.62876e-06
1.17287e-06
7.56173e-07
4.40371e-08
0
0
1.0145e-08
0
1.13722e-07
3.11199e-08
0
0
1.22412e-07
3.10709e-07
5.51925e-07
7.6815e-07
6.6079e-07
5.9561e-07
1.02057e-06
8.60152e-07
2.65018e-06
4.51783e-06
1.01687e-06
1.50513e-07
0
0
0
0
0
7.80317e-07
1.29399e-06
1.52846e-06
1.64412e-06
1.68721e-06
1.71269e-06
1.71912e-06
1.69138e-06
1.63078e-06
1.5559e-06
1.48197e-06
1.42853e-06
1.36018e-06
1.28266e-06
1.21618e-06
1.16082e-06
1.08689e-06
1.01443e-06
9.93299e-07
9.19015e-07
8.32433e-07
7.61368e-07
6.67869e-07
4.61479e-07
6.23347e-08
0
0
0
0
0
0
0
0
0
0
6.77668e-06
6.37051e-06
4.34907e-06
2.97909e-06
1.80381e-06
8.81094e-07
6.82287e-07
6.54079e-07
3.05287e-07
8.07626e-08
4.88295e-07
1.46619e-06
1.64064e-06
1.2319e-06
1.54079e-06
1.64725e-06
9.76777e-07
4.36783e-07
1.83078e-07
8.53434e-08
5.06351e-08
3.48063e-08
2.35494e-08
1.73719e-08
1.78988e-08
2.13269e-08
2.28185e-08
2.33328e-08
2.27679e-08
2.31633e-08
2.35988e-08
2.87972e-08
1.65586e-08
0
0
0
0
0
0
3.98959e-08
3.09394e-07
0
0
0
0
0
0
0
0
0
0
0
0
0
0
0
0
0
0
0
0
0
1.10044e-06
3.41243e-06
5.5738e-06
8.44425e-06
1.32548e-05
2.03362e-05
2.96848e-05
4.02068e-05
3.42513e-05
2.21721e-05
2.33901e-05
2.42728e-05
2.58248e-05
2.57741e-05
0
0
5.62629e-07
1.71022e-06
1.39378e-06
1.90179e-06
2.12675e-06
7.11712e-07
0
0
0
0
0
0
0
0
0
0
1.28577e-06
0
0
0
3.1671e-06
7.50251e-06
6.13992e-06
4.714e-06
3.80723e-06
2.89401e-06
1.90055e-06
1.13948e-06
3.61183e-07
0
0
0
5.89798e-07
1.21711e-06
1.29909e-06
1.53194e-06
1.88389e-06
1.88119e-06
1.55031e-06
1.19585e-06
9.13202e-07
3.59676e-07
0
0
0
0
1.97106e-07
1.55992e-07
0
7.33301e-08
2.87886e-07
5.2826e-07
9.82673e-07
8.1795e-07
6.6826e-07
7.18966e-07
1.41396e-06
0
0
0
0
0
0
0
0
0
8.8064e-07
1.29873e-06
1.4179e-06
1.42718e-06
1.37207e-06
1.28093e-06
1.19973e-06
1.13893e-06
1.09307e-06
1.06278e-06
1.04301e-06
1.03485e-06
1.03586e-06
1.02221e-06
9.82834e-07
9.32674e-07
8.83924e-07
8.28643e-07
7.76543e-07
7.63622e-07
7.77254e-07
7.53961e-07
7.38089e-07
7.17264e-07
6.44393e-07
4.62812e-07
1.30025e-07
0
0
0
0
0
0
0
0
1.63412e-06
7.73035e-06
4.37092e-06
2.46721e-06
1.55975e-06
7.86289e-07
3.37676e-07
6.49326e-07
8.58282e-07
5.23715e-07
3.35188e-07
9.81292e-07
1.59185e-06
1.34977e-06
1.25588e-06
1.59921e-06
1.44649e-06
7.50971e-07
3.49313e-07
1.71988e-07
9.62609e-08
6.17416e-08
4.36635e-08
3.27597e-08
2.68483e-08
2.55267e-08
2.57553e-08
2.23761e-08
1.83411e-08
1.63289e-08
1.4656e-08
1.11989e-08
3.25828e-09
0
0
0
0
0
0
0
0
0
3.38259e-07
1.58898e-07
0
0
0
0
0
0
0
0
0
0
0
0
0
0
0
0
0
0
0
7.1688e-07
3.17499e-06
5.86908e-06
9.25054e-06
1.39765e-05
2.08118e-05
2.98274e-05
4.11915e-05
5.00791e-05
4.2183e-05
3.82425e-05
3.71334e-05
3.37105e-05
0
0
0
0
4.079e-06
3.98687e-06
3.90102e-06
4.57515e-06
0
0
0
0
0
0
0
0
0
0
0
9.41131e-07
1.49748e-06
0
0
0
7.92292e-06
6.88034e-06
5.10569e-06
4.00182e-06
3.17131e-06
2.12416e-06
1.21669e-06
3.78784e-07
0
0
0
0
1.6093e-06
1.64023e-06
1.73945e-06
1.83629e-06
1.70931e-06
1.42617e-06
1.1433e-06
9.51899e-07
5.88201e-07
1.07179e-07
0
0
0
5.17575e-08
1.57188e-07
2.69808e-07
4.56976e-07
6.06511e-07
1.01548e-06
9.81487e-07
7.31545e-07
6.58324e-07
9.41203e-07
1.92328e-06
0
0
0
0
0
0
0
4.56989e-07
7.20408e-07
7.06373e-07
8.65472e-07
9.88792e-07
1.02416e-06
9.46533e-07
8.15275e-07
7.21413e-07
6.93343e-07
7.0839e-07
7.37584e-07
7.56613e-07
7.60712e-07
7.51844e-07
7.26597e-07
6.78666e-07
6.15154e-07
5.47514e-07
4.8227e-07
4.23974e-07
3.84552e-07
3.83172e-07
3.98963e-07
4.18944e-07
4.44785e-07
4.55907e-07
4.21948e-07
3.18956e-07
1.45399e-07
0
0
0
0
0
0
0
2.21746e-06
1.89103e-06
7.04467e-07
3.1737e-07
2.07764e-07
0
1.07901e-07
9.42835e-07
1.19217e-06
8.06571e-07
7.53257e-07
1.62889e-06
1.80181e-06
1.51169e-06
1.55633e-06
1.85254e-06
1.08324e-06
5.12686e-07
2.62618e-07
1.53238e-07
1.01437e-07
7.46435e-08
5.94212e-08
4.88089e-08
3.99711e-08
3.41091e-08
3.13712e-08
2.60702e-08
1.6136e-08
7.68785e-09
3.27183e-09
7.6031e-10
0
0
0
0
0
0
0
0
0
0
0
2.68259e-07
3.13556e-07
0
0
0
0
0
0
0
0
0
0
0
0
0
0
0
0
0
0
4.84371e-07
3.20299e-06