/*--------------------------------*- C++ -*----------------------------------*\
  =========                 |
  \\      /  F ield         | OpenFOAM: The Open Source CFD Toolbox
   \\    /   O peration     | Website:  https://openfoam.org
    \\  /    A nd           | Version:  9
     \\/     M anipulation  |
\*---------------------------------------------------------------------------*/
FoamFile
{
    format      ascii;
    class       surfaceScalarField;
    location    "0.083";
    object      phi_0;
}
// * * * * * * * * * * * * * * * * * * * * * * * * * * * * * * * * * * * * * //

dimensions      [0 3 -1 0 0 0 0];

internalField   nonuniform List<scalar> 
24170
(
3.14037e-06
1.46806e-07
2.99439e-06
1.45982e-07
2.87332e-06
1.21065e-07
2.77713e-06
9.61955e-08
2.70091e-06
7.62221e-08
2.62547e-06
7.54317e-08
2.53147e-06
9.40028e-08
2.42034e-06
1.11131e-07
2.31327e-06
1.07068e-07
2.22766e-06
8.56099e-08
2.16301e-06
6.4652e-08
2.10189e-06
6.11231e-08
2.02858e-06
7.33076e-08
1.93291e-06
9.5665e-08
1.82696e-06
1.05953e-07
1.71528e-06
1.11677e-07
1.59967e-06
1.15615e-07
1.33363e-07
1.46631e-06
3.43367e-06
3.0588e-08
3.48756e-06
9.20909e-08
3.4777e-06
1.3093e-07
3.44681e-06
1.27085e-07
3.41092e-06
1.12111e-07
3.38145e-06
1.04897e-07
3.36267e-06
1.12782e-07
3.35125e-06
1.22557e-07
3.34179e-06
1.16526e-07
3.32921e-06
9.81913e-08
3.3108e-06
8.30576e-08
3.28652e-06
8.54066e-08
3.25892e-06
1.00905e-07
3.2288e-06
1.2579e-07
3.19632e-06
1.38429e-07
3.1619e-06
1.46098e-07
3.12009e-06
1.57423e-07
1.73022e-07
3.08043e-06
3.67615e-06
4.79952e-08
3.7049e-06
6.33433e-08
3.69019e-06
1.45635e-07
3.6646e-06
1.52673e-07
3.64532e-06
1.31397e-07
3.63404e-06
1.16171e-07
3.63166e-06
1.15165e-07
3.638e-06
1.16219e-07
3.64854e-06
1.05986e-07
3.65832e-06
8.84141e-08
3.66444e-06
7.69368e-08
3.66708e-06
8.27629e-08
3.66638e-06
1.01604e-07
3.66495e-06
1.27224e-07
3.65901e-06
1.44367e-07
3.6506e-06
1.54508e-07
3.64365e-06
1.64373e-07
1.77606e-07
3.63907e-06
3.93161e-06
-7.59062e-08
3.91195e-06
8.30071e-08
3.92754e-06
1.30043e-07
3.95497e-06
1.25241e-07
3.9576e-06
1.28767e-07
3.9395e-06
1.34269e-07
3.92166e-06
1.33014e-07
3.91539e-06
1.22489e-07
3.91815e-06
1.03218e-07
3.92432e-06
8.22525e-08
3.9307e-06
7.05515e-08
3.93654e-06
7.69201e-08
3.94012e-06
9.80234e-08
3.94061e-06
1.26735e-07
3.93487e-06
1.50105e-07
3.92431e-06
1.65076e-07
3.91291e-06
1.75771e-07
1.85832e-07
3.90468e-06
4.2046e-06
6.52024e-08
4.17682e-06
1.10787e-07
4.1859e-06
1.20964e-07
4.18822e-06
1.22917e-07
4.18986e-06
1.2713e-07
4.19161e-06
1.32521e-07
4.19199e-06
1.32634e-07
4.19032e-06
1.24156e-07
4.18815e-06
1.05394e-07
4.1894e-06
8.10015e-08
4.19746e-06
6.24852e-08
4.21292e-06
6.14674e-08
4.2316e-06
7.93435e-08
4.24865e-06
1.09684e-07
4.25858e-06
1.40173e-07
4.26008e-06
1.63571e-07
4.25563e-06
1.80229e-07
1.90605e-07
4.25085e-06
4.53243e-06
8.03129e-08
4.56957e-06
7.36478e-08
4.58895e-06
1.01585e-07
4.57427e-06
1.37594e-07
4.55649e-06
1.44908e-07
4.55047e-06
1.38545e-07
4.55404e-06
1.29063e-07
4.559e-06
1.19194e-07
4.55847e-06
1.05925e-07
4.55082e-06
8.86537e-08
4.53981e-06
7.34945e-08
4.5317e-06
6.95793e-08
4.53024e-06
8.08047e-08
4.53527e-06
1.04648e-07
4.54229e-06
1.33159e-07
4.54685e-06
1.59009e-07
4.54756e-06
1.79512e-07
1.91509e-07
4.54666e-06
4.83067e-06
1.78936e-08
4.84593e-06
5.83864e-08
4.84872e-06
9.87886e-08
4.83342e-06
1.52901e-07
4.80953e-06
1.68794e-07
4.80413e-06
1.43947e-07
4.8244e-06
1.08791e-07
4.85886e-06
8.4733e-08
4.88917e-06
7.56201e-08
4.90167e-06
7.61454e-08
4.8935e-06
8.16641e-08
4.87178e-06
9.13053e-08
4.84743e-06
1.05152e-07
4.8293e-06
1.2278e-07
4.82056e-06
1.41902e-07
4.82003e-06
1.59532e-07
4.82548e-06
1.74066e-07
1.82912e-07
4.83408e-06
5.03901e-06
-2.69358e-08
5.04135e-06
5.60503e-08
5.08171e-06
5.84249e-08
5.14861e-06
8.60042e-08
5.21225e-06
1.05152e-07
5.24966e-06
1.06536e-07
5.25429e-06
1.04165e-07
5.2374e-06
1.01626e-07
5.21574e-06
9.72781e-08
5.19968e-06
9.22056e-08
5.191e-06
9.03441e-08
5.18686e-06
9.54434e-08
5.18385e-06
1.08158e-07
5.18001e-06
1.26619e-07
5.17483e-06
1.47082e-07
5.16858e-06
1.65787e-07
5.16204e-06
1.80608e-07
1.89398e-07
5.15555e-06
5.59358e-06
3.28411e-08
5.55616e-06
9.34708e-08
5.52886e-06
8.57185e-08
5.53478e-06
8.00884e-08
5.55721e-06
8.27264e-08
5.58071e-06
8.30344e-08
5.59524e-06
8.96344e-08
5.59191e-06
1.04954e-07
5.56634e-06
1.22849e-07
5.5232e-06
1.35348e-07
5.47523e-06
1.38307e-07
5.43658e-06
1.34095e-07
5.41587e-06
1.28873e-07
5.41444e-06
1.28048e-07
5.42738e-06
1.34134e-07
5.44808e-06
1.45094e-07
5.46974e-06
1.58949e-07
1.71516e-07
5.48762e-06
6.00412e-06
2.92114e-07
5.86814e-06
2.29444e-07
5.87525e-06
7.86139e-08
5.91491e-06
4.0427e-08
5.93605e-06
6.15804e-08
5.93795e-06
8.11403e-08
5.93763e-06
8.99527e-08
5.94381e-06
9.87784e-08
5.95248e-06
1.1417e-07
5.95655e-06
1.31287e-07
5.95346e-06
1.41389e-07
5.94607e-06
1.41488e-07
5.93931e-06
1.35633e-07
5.93711e-06
1.30254e-07
5.94027e-06
1.30969e-07
5.94712e-06
1.38244e-07
5.95406e-06
1.52008e-07
1.68492e-07
5.95709e-06
6.45467e-06
2.0469e-07
6.45796e-06
2.2615e-07
6.41208e-06
1.2449e-07
6.36551e-06
8.70051e-08
6.33191e-06
9.51716e-08
6.30847e-06
1.04585e-07
6.29202e-06
1.06399e-07
6.285e-06
1.05798e-07
6.28943e-06
1.09745e-07
6.30122e-06
1.19499e-07
6.31237e-06
1.30235e-07
6.31654e-06
1.37315e-07
6.31246e-06
1.39717e-07
6.30379e-06
1.38926e-07
6.29601e-06
1.38743e-07
6.29273e-06
1.41523e-07
6.29544e-06
1.49299e-07
1.62424e-07
6.30151e-06
5.72872e-06
2.10992e-07
5.81102e-06
1.43857e-07
5.82652e-06
1.08992e-07
5.79945e-06
1.14067e-07
5.7798e-06
1.14824e-07
5.78561e-06
9.87756e-08
5.80609e-06
8.592e-08
5.82453e-06
8.73556e-08
5.83256e-06
1.01719e-07
5.82896e-06
1.23094e-07
5.81561e-06
1.43587e-07
5.79528e-06
1.57651e-07
5.7712e-06
1.63796e-07
5.74619e-06
1.63934e-07
5.72331e-06
1.61622e-07
5.70424e-06
1.60593e-07
5.69061e-06
1.62931e-07
1.70271e-07
5.68276e-06
6.90832e-06
2.67553e-07
6.92636e-06
1.25816e-07
6.94623e-06
8.9122e-08
6.96745e-06
9.28487e-08
7.00383e-06
7.84454e-08
7.04759e-06
5.50178e-08
7.08187e-06
5.16394e-08
7.09415e-06
7.50705e-08
7.08225e-06
1.13622e-07
7.05333e-06
1.52019e-07
7.01715e-06
1.7976e-07
6.98126e-06
1.93539e-07
6.94922e-06
1.9584e-07
6.92065e-06
1.92508e-07
6.89452e-06
1.87745e-07
6.86939e-06
1.85721e-07
6.84627e-06
1.86056e-07
1.90473e-07
6.82607e-06
8.37401e-06
1.04312e-07
8.42406e-06
7.57707e-08
8.43727e-06
7.59139e-08
8.45952e-06
7.05924e-08
8.51108e-06
2.68838e-08
8.57438e-06
-8.28069e-09
8.61331e-06
1.27104e-08
8.61138e-06
7.70002e-08
8.57253e-06
1.52476e-07
8.51364e-06
2.10911e-07
8.45114e-06
2.42252e-07
8.39572e-06
2.48959e-07
8.3531e-06
2.38458e-07
8.32549e-06
2.2012e-07
8.31293e-06
2.00303e-07
8.31395e-06
1.84708e-07
8.32596e-06
1.74043e-07
1.69474e-07
8.34696e-06
1.04395e-05
1.31505e-07
1.03778e-05
1.37453e-07
1.04109e-05
4.28215e-08
1.04643e-05
1.72055e-08
1.04706e-05
2.06185e-08
1.04186e-05
4.36914e-08
1.03632e-05
6.8112e-08
1.03467e-05
9.35193e-08
1.0378e-05
1.21149e-07
1.04403e-05
1.48609e-07
1.0508e-05
1.74601e-07
1.0558e-05
1.98877e-07
1.05772e-05
2.19267e-07
1.05637e-05
2.33648e-07
1.05243e-05
2.39699e-07
1.04709e-05
2.38068e-07
1.04145e-05
2.30459e-07
2.19708e-07
1.03643e-05
1.22238e-05
1.05484e-07
1.2425e-05
-6.37928e-08
1.25415e-05
-7.36221e-08
1.25858e-05
-2.71619e-08
1.25711e-05
3.53445e-08
1.25441e-05
7.07061e-08
1.25346e-05
7.75814e-08
1.25598e-05
6.83604e-08
1.2611e-05
6.99202e-08
1.26675e-05
9.21223e-08
1.27105e-05
1.31553e-07
1.27318e-05
1.77642e-07
1.27331e-05
2.17911e-07
1.27242e-05
2.42557e-07
1.27161e-05
2.47858e-07
1.27164e-05
2.37709e-07
1.27302e-05
2.16733e-07
1.94991e-07
1.27549e-05
1.52917e-05
-8.72544e-08
1.5402e-05
-1.74097e-07
1.53925e-05
-6.41618e-08
1.53486e-05
1.66985e-08
1.53071e-05
7.68418e-08
1.52894e-05
8.84529e-08
1.52913e-05
7.56409e-08
1.52863e-05
7.34483e-08
1.52632e-05
9.30096e-08
1.52268e-05
1.28505e-07
1.51908e-05
1.67544e-07
1.51705e-05
1.97942e-07
1.51771e-05
2.11297e-07
1.52149e-05
2.04788e-07
1.52817e-05
1.81035e-07
1.53704e-05
1.49002e-07
1.54716e-05
1.15522e-07
9.17964e-08
1.55748e-05
1.88865e-05
4.83684e-08
1.87051e-05
7.28041e-09
1.86476e-05
-6.63861e-09
1.86549e-05
9.4085e-09
1.86903e-05
4.14895e-08
1.87187e-05
6.00422e-08
1.87041e-05
9.01707e-08
1.86508e-05
1.26811e-07
1.85891e-05
1.54714e-07
1.8551e-05
1.66555e-07
1.8556e-05
1.62622e-07
1.86046e-05
1.49327e-07
1.86829e-05
1.32954e-07
1.87695e-05
1.18236e-07
1.88441e-05
1.06407e-07
1.88955e-05
9.75657e-08
1.89198e-05
9.12894e-08
8.62086e-08
1.89253e-05
2.28497e-05
-9.68534e-08
2.28595e-05
-2.59423e-09
2.28037e-05
4.9237e-08
2.27171e-05
9.59575e-08
2.26772e-05
8.14545e-08
2.27024e-05
3.47781e-08
2.27875e-05
5.102e-09
2.29087e-05
5.59956e-09
2.30411e-05
2.22784e-08
2.31702e-05
3.7443e-08
2.32894e-05
4.34785e-08
2.33952e-05
4.35251e-08
2.34821e-05
4.60215e-08
2.35433e-05
5.70275e-08
2.35728e-05
7.68902e-08
2.35701e-05
1.00337e-07
2.35388e-05
1.22551e-07
1.37023e-07
2.3488e-05
1.65605e-05
-1.13329e-07
1.66244e-05
-6.64684e-08
1.66361e-05
3.74534e-08
1.66465e-05
8.55771e-08
1.66488e-05
7.92066e-08
1.66561e-05
2.74153e-08
1.66944e-05
-3.32073e-08
1.6763e-05
-6.29848e-08
1.68382e-05
-5.28635e-08
1.68939e-05
-1.83251e-08
1.69198e-05
1.76533e-08
1.69268e-05
3.64808e-08
1.69359e-05
3.69538e-08
1.69642e-05
2.86471e-08
1.70195e-05
2.16362e-08
1.70986e-05
2.12774e-08
1.71937e-05
2.7363e-08
3.8937e-08
1.72918e-05
1.48886e-05
-1.38193e-07
1.47563e-05
6.57905e-08
1.46258e-05
1.67971e-07
1.45777e-05
1.33676e-07
1.45807e-05
7.62519e-08
1.46058e-05
2.24888e-09
1.4655e-05
-8.23155e-08
1.47281e-05
-1.36139e-07
1.48124e-05
-1.37161e-07
1.48828e-05
-8.87155e-08
1.49159e-05
-1.54709e-08
1.49004e-05
5.19878e-08
1.48424e-05
9.49327e-08
1.47638e-05
1.07243e-07
1.46913e-05
9.41372e-08
1.46445e-05
6.81175e-08
1.46338e-05
3.81005e-08
1.53658e-08
1.46573e-05
1.30165e-05
-7.19198e-08
1.28955e-05
1.86696e-07
1.27975e-05
2.65998e-07
1.27179e-05
2.13288e-07
1.26749e-05
1.19213e-07
1.26618e-05
1.54349e-08
1.26516e-05
-7.21108e-08
1.26483e-05
-1.32868e-07
1.26603e-05
-1.49195e-07
1.26937e-05
-1.22098e-07
1.2744e-05
-6.57309e-08
1.27967e-05
-7.5932e-10
1.28391e-05
5.25204e-08
1.2863e-05
8.33583e-08
1.28683e-05
8.88584e-08
1.28607e-05
7.56568e-08
1.28478e-05
5.10325e-08
2.51971e-08
1.2838e-05
1.08389e-05
-2.70826e-07
1.10577e-05
-3.20787e-08
1.11828e-05
1.40911e-07
1.12371e-05
1.59031e-07
1.12688e-05
8.74379e-08
1.12866e-05
-2.36281e-09
1.13004e-05
-8.58405e-08
1.12994e-05
-1.31891e-07
1.12872e-05
-1.37022e-07
1.12731e-05
-1.08033e-07
1.12665e-05
-5.90853e-08
1.12716e-05
-5.90103e-09
1.12848e-05
3.93214e-08
1.13023e-05
6.58857e-08
1.13186e-05
7.2598e-08
1.13302e-05
6.40534e-08
1.13357e-05
4.5466e-08
2.35802e-08
1.13374e-05
9.66078e-06
-3.22996e-07
9.68402e-06
-5.53256e-08
9.74544e-06
7.94902e-08
9.82522e-06
7.92522e-08
9.88706e-06
2.5597e-08
9.91364e-06
-2.89391e-08
9.90329e-06
-7.54935e-08
9.8759e-06
-1.04496e-07
9.84201e-06
-1.03138e-07
9.8042e-06
-7.02157e-08
9.76501e-06
-1.98951e-08
9.73072e-06
2.83822e-08
9.70799e-06
6.2056e-08
9.69869e-06
7.51813e-08
9.70232e-06
6.89762e-08
9.71646e-06
4.99041e-08
9.73752e-06
2.44081e-08
-4.40954e-10
9.76154e-06
8.33231e-06
-8.45623e-08
8.33958e-06
-6.25946e-08
8.39701e-06
2.20594e-08
8.42356e-06
5.27078e-08
8.40982e-06
3.93294e-08
8.38601e-06
-5.1253e-09
8.37692e-06
-6.64037e-08
8.37911e-06
-1.0669e-07
8.38294e-06
-1.06966e-07
8.38528e-06
-7.2553e-08
8.39127e-06
-2.58904e-08
8.40773e-06
1.19262e-08
8.43902e-06
3.07626e-08
8.48359e-06
3.06122e-08
8.53478e-06
1.77867e-08
8.58546e-06
-7.71092e-10
8.62894e-06
-1.90743e-08
-3.26559e-08
8.66115e-06
7.39292e-06
4.95131e-10
7.34049e-06
-1.01581e-08
7.38012e-06
-1.75722e-08
7.46623e-06
-3.34075e-08
7.55199e-06
-4.64294e-08
7.60649e-06
-5.96237e-08
7.61537e-06
-7.52795e-08
7.59147e-06
-8.27929e-08
7.55772e-06
-7.32194e-08
7.53341e-06
-4.82394e-08
7.52669e-06
-1.917e-08
7.53654e-06
2.07324e-09
7.55698e-06
1.03285e-08
7.58067e-06
6.9206e-09
7.60176e-06
-3.31038e-09
7.61696e-06
-1.59664e-08
7.62572e-06
-2.78296e-08
-3.61898e-08
7.62925e-06
6.42059e-06
-2.27589e-07
6.4432e-06
-3.2771e-08
6.42585e-06
-2.25194e-10
6.44925e-06
-5.68093e-08
6.49769e-06
-9.48614e-08
6.53397e-06
-9.591e-08
6.53051e-06
-7.1823e-08
6.48835e-06
-4.06322e-08
6.43177e-06
-1.66388e-08
6.38907e-06
-5.53808e-09
6.37643e-06
-6.52816e-09
6.39479e-06
-1.62847e-08
6.43496e-06
-2.9848e-08
6.48411e-06
-4.22268e-08
6.53099e-06
-5.01886e-08
6.56836e-06
-5.33394e-08
6.59287e-06
-5.2339e-08
-4.8841e-08
6.60552e-06
5.53072e-06
-1.6956e-07
5.58681e-06
-8.88677e-08
5.63593e-06
-4.93472e-08
5.63868e-06
-5.95588e-08
5.61109e-06
-6.7271e-08
5.58262e-06
-6.74382e-08
5.57235e-06
-6.15563e-08
5.58296e-06
-5.12361e-08
5.60665e-06
-4.03341e-08
5.63404e-06
-3.29233e-08
5.65962e-06
-3.21129e-08
5.68082e-06
-3.74808e-08
5.69638e-06
-4.54124e-08
5.70562e-06
-5.14596e-08
5.70868e-06
-5.32519e-08
5.70693e-06
-5.15925e-08
5.70236e-06
-4.77616e-08
-4.37094e-08
5.69722e-06
4.90661e-06
-1.08868e-07
4.88599e-06
-6.82498e-08
4.88816e-06
-5.1519e-08
4.91426e-06
-8.56579e-08
4.93601e-06
-8.90207e-08
4.93701e-06
-6.84364e-08
4.92654e-06
-5.10907e-08
4.91973e-06
-4.44213e-08
4.92351e-06
-4.41218e-08
4.93763e-06
-4.70399e-08
4.95842e-06
-5.29052e-08
4.98072e-06
-5.97812e-08
4.99875e-06
-6.34373e-08
5.00746e-06
-6.01759e-08
5.00449e-06
-5.02775e-08
4.99029e-06
-3.73922e-08
4.96782e-06
-2.52957e-08
-1.79384e-08
4.94205e-06
4.16596e-06
4.09771e-06
4.04619e-06
3.96054e-06
3.87152e-06
3.80308e-06
3.75199e-06
3.70757e-06
3.66345e-06
3.61641e-06
3.5635e-06
3.50372e-06
3.44028e-06
3.38011e-06
3.32983e-06
3.29244e-06
3.26714e-06
3.2492e-06
-1.52951e-07
1.52951e-07
-2.84172e-07
1.3122e-07
-3.48278e-07
6.4106e-08
-3.65483e-07
1.72051e-08
-3.69626e-07
4.14326e-09
-3.8576e-07
1.61339e-08
-4.22888e-07
3.71283e-08
-4.73336e-07
5.04476e-08
-5.17096e-07
4.37598e-08
-5.30701e-07
1.36055e-08
-4.96664e-07
-3.40376e-08
-4.43751e-07
-5.29127e-08
-4.39332e-07
-4.41901e-09
-5.5008e-07
1.10748e-07
-7.12798e-07
1.62718e-07
-8.34181e-07
1.21383e-07
-8.90604e-07
5.6423e-08
-9.1239e-07
2.17858e-08
-9.38129e-07
2.5739e-08
-1.0095e-06
7.13669e-08
-1.16603e-06
1.56539e-07
-1.45057e-06
2.8453e-07
-1.86918e-06
4.18617e-07
-2.3806e-06
5.11422e-07
-2.9156e-06
5.34997e-07
-3.41256e-06
4.96954e-07
-3.81084e-06
3.98284e-07
-4.08751e-06
2.76674e-07
-4.30808e-06
2.20563e-07
-4.54281e-06
2.34737e-07
-4.78848e-06
2.45664e-07
-5.02922e-06
2.40746e-07
-5.27569e-06
2.46464e-07
-5.5293e-06
2.53615e-07
-5.77776e-06
2.48453e-07
-6.01351e-06
2.35749e-07
-6.23227e-06
2.18763e-07
-6.42838e-06
1.96107e-07
-6.59596e-06
1.67587e-07
-6.72989e-06
1.33932e-07
-6.82641e-06
9.65116e-08
-6.88272e-06
5.6311e-08
-6.89767e-06
1.49516e-08
-6.87037e-06
-2.73005e-08
-6.80059e-06
-6.97816e-08
-6.68862e-06
-1.11968e-07
-6.53529e-06
-1.53332e-07
-6.3413e-06
-1.93991e-07
-6.10824e-06
-2.33055e-07
-5.8385e-06
-2.69742e-07
-5.53491e-06
-3.0359e-07
-5.2007e-06
-3.3421e-07
-4.83937e-06
-3.61329e-07
-4.45428e-06
-3.85087e-07
-4.04773e-06
-4.06552e-07
-3.61966e-06
-4.28066e-07
-3.16617e-06
-4.53492e-07
-2.67826e-06
-4.87907e-07
-2.14353e-06
-5.3473e-07
-1.55396e-06
-5.89572e-07
-9.25997e-07
-6.27964e-07
-3.20937e-07
-6.0506e-07
1.8722e-07
-5.08157e-07
6.56322e-07
-4.69102e-07
1.14415e-06
-4.87823e-07
1.65072e-06
-5.06576e-07
2.18576e-06
-5.35035e-07
2.75998e-06
-5.74222e-07
3.3648e-06
-6.04818e-07
3.95677e-06
-5.91977e-07
4.46819e-06
-5.1142e-07
4.78657e-06
-3.18382e-07
4.83852e-06
-5.19414e-08
4.50175e-06
3.36769e-07
3.64257e-06
8.5918e-07
2.42576e-06
1.21681e-06
1.27395e-06
1.15181e-06
5.38283e-07
7.35662e-07
2.498e-07
2.88483e-07
3.66664e-07
-1.16863e-07
8.58951e-07
-4.92287e-07
1.43114e-06
-5.72187e-07
1.76334e-06
-3.322e-07
1.8162e-06
-5.28602e-08
1.68989e-06
1.26306e-07
1.47288e-06
2.17014e-07
1.22578e-06
2.47095e-07
9.9794e-07
2.27843e-07
8.18813e-07
1.79127e-07
6.96813e-07
1.22001e-07
6.2867e-07
6.81429e-08
6.04664e-07
2.40058e-08
6.12464e-07
-7.7997e-09
6.39246e-07
-2.67826e-08
6.64067e-07
-2.48202e-08
6.66524e-07
-2.45698e-09
6.13143e-07
5.33807e-08
4.70924e-07
1.42218e-07
2.04024e-07
2.66901e-07
-2.19574e-07
4.23598e-07
-8.11321e-07
5.91747e-07
-1.56121e-06
7.49893e-07
-2.43661e-06
8.75393e-07
-3.39599e-06
9.59386e-07
-4.39754e-06
1.00155e-06
-5.40471e-06
1.00717e-06
-6.38918e-06
9.84466e-07
-7.32977e-06
9.4059e-07
-8.2108e-06
8.81031e-07
-9.02055e-06
8.0975e-07
-9.74918e-06
7.28631e-07
-1.03876e-05
6.38425e-07
-1.09284e-05
5.40779e-07
-1.13662e-05
4.37774e-07
-1.16965e-05
3.30358e-07
-1.19162e-05
2.19643e-07
-1.20251e-05
1.08923e-07
-1.20243e-05
-7.77553e-10
-1.19161e-05
-1.0816e-07
-1.17026e-05
-2.13499e-07
-1.13828e-05
-3.19816e-07
-1.09557e-05
-4.27165e-07
-1.04222e-05
-5.33476e-07
-9.78613e-06
-6.36062e-07
-9.05436e-06
-7.31762e-07
-8.23704e-06
-8.17323e-07
-7.34705e-06
-8.89993e-07
-6.39946e-06
-9.4759e-07
-5.41102e-06
-9.8844e-07
-4.39958e-06
-1.01144e-06
-3.38342e-06
-1.01616e-06
-2.38055e-06
-1.00287e-06
-1.40849e-06
-9.72057e-07
-4.84275e-07
-9.24216e-07
3.80853e-07
-8.65128e-07
1.17502e-06
-7.94165e-07
1.88648e-06
-7.11461e-07
2.50821e-06
-6.2173e-07
3.03675e-06
-5.28537e-07
3.47212e-06
-4.35372e-07
3.81748e-06
-3.45363e-07
4.07842e-06
-2.60937e-07
4.26232e-06
-1.83899e-07
4.37791e-06
-1.1559e-07
4.43658e-06
-5.86714e-08
4.45447e-06
-1.78965e-08
4.43693e-06
1.75409e-08
4.36365e-06
7.32811e-08
4.20911e-06
1.54544e-07
3.97159e-06
2.37516e-07
3.68322e-06
2.88366e-07
3.39446e-06
2.88765e-07
3.14622e-06
2.48238e-07
2.95371e-06
1.92508e-07
2.8127e-06
1.41014e-07
2.70786e-06
1.04837e-07
2.62472e-06
8.31435e-08
2.5536e-06
7.11185e-08
2.48952e-06
6.40838e-08
2.42971e-06
5.98063e-08
2.37474e-06
5.49735e-08
2.32672e-06
4.8011e-08
2.28792e-06
3.8808e-08
2.26055e-06
2.73617e-08
2.24748e-06
1.30794e-08
2.24647e-06
1.00609e-09
2.25027e-06
-3.80185e-09
2.25711e-06
-6.84258e-09
2.26524e-06
-8.12904e-09
2.26568e-06
-4.38717e-10
2.25563e-06
1.00519e-08
2.25061e-06
5.02184e-09
2.24277e-06
7.8364e-09
2.21278e-06
2.9988e-08
2.16914e-06
4.36389e-08
2.12569e-06
4.34559e-08
2.04151e-06
8.41755e-08
1.93789e-06
1.03625e-07
1.80674e-06
1.3115e-07
6.34465e-08
1.74329e-06
1.46517e-08
1.383e-07
1.06453e-07
3.94185e-08
2.808e-07
-1.10241e-07
4.76039e-07
-1.78034e-07
6.35717e-07
-1.55534e-07
7.17972e-07
-6.61217e-08
6.99911e-07
5.51898e-08
5.72515e-07
1.77843e-07
3.56114e-07
2.60161e-07
8.38085e-08
2.85911e-07
-2.12709e-07
2.62479e-07
-4.63772e-07
1.98151e-07
-6.12314e-07
1.44123e-07
-6.20582e-07
1.19016e-07
-6.0719e-07
1.49326e-07
-7.42031e-07
2.56225e-07
-9.54843e-07
2.69234e-07
-1.15497e-06
2.2191e-07
-1.38531e-06
2.5608e-07
-1.67873e-06
3.64791e-07
-2.03121e-06
5.09015e-07
-2.44804e-06
7.01361e-07
-2.8917e-06
8.62277e-07
-3.27047e-06
8.90197e-07
-3.53311e-06
7.97632e-07
-3.70207e-06
6.6591e-07
-3.84697e-06
5.43189e-07
-4.02723e-06
4.56932e-07
-4.25029e-06
4.43625e-07
-4.50982e-06
4.94272e-07
-4.80646e-06
5.42294e-07
-5.1215e-06
5.55792e-07
-5.43005e-06
5.55009e-07
-5.72502e-06
5.48589e-07
-6.00289e-06
5.26323e-07
-6.25567e-06
4.88531e-07
-6.47914e-06
4.42232e-07
-6.67263e-06
3.89601e-07
-6.83575e-06
3.30704e-07
-6.96818e-06
2.66362e-07
-7.06956e-06
1.97887e-07
-7.13848e-06
1.25235e-07
-7.17173e-06
4.81995e-08
-7.16827e-06
-3.07592e-08
-7.12672e-06
-1.11329e-07
-7.04462e-06
-1.94075e-07
-6.92118e-06
-2.76767e-07
-6.75728e-06
-3.5789e-07
-6.55398e-06
-4.3636e-07
-6.31242e-06
-5.113e-07
-6.03405e-06
-5.81964e-07
-5.72056e-06
-6.47696e-07
-5.37385e-06
-7.08042e-07
-4.99564e-06
-7.63292e-07
-4.58694e-06
-8.15259e-07
-4.14715e-06
-8.67853e-07
-3.67379e-06
-9.26853e-07
-3.16327e-06
-9.98425e-07
-2.61453e-06
-1.08347e-06
-2.03746e-06
-1.16665e-06
-1.45795e-06
-1.20747e-06
-9.13088e-07
-1.14992e-06
-4.35134e-07
-9.86111e-07
8.82877e-09
-9.13065e-07
4.85263e-07
-9.64257e-07
9.85441e-07
-1.00675e-06
1.54384e-06
-1.09343e-06
2.16646e-06
-1.19684e-06
2.84951e-06
-1.28787e-06
3.56613e-06
-1.30859e-06
4.2344e-06
-1.1797e-06
4.76295e-06
-8.46928e-07
5.06404e-06
-3.53034e-07
5.15579e-06
2.45017e-07
5.07514e-06
9.39833e-07
4.73957e-06
1.55238e-06
4.08794e-06
1.80344e-06
3.23573e-06
1.58788e-06
2.38859e-06
1.13562e-06
1.80501e-06
4.66708e-07
1.66001e-06
-3.47286e-07
1.67909e-06
-5.91263e-07
1.52153e-06
-1.7464e-07
1.1683e-06
3.00371e-07
7.2605e-07
5.68552e-07
2.85258e-07
6.57807e-07
-9.44622e-08
6.26815e-07
-4.03618e-07
5.36999e-07
-6.51775e-07
4.27283e-07
-8.49757e-07
3.19983e-07
-1.0091e-06
2.27484e-07
-1.14063e-06
1.55541e-07
-1.25563e-06
1.07199e-07
-1.36722e-06
8.48008e-08
-1.49303e-06
1.0099e-07
-1.65615e-06
1.60669e-07
-1.8761e-06
2.73329e-07
-2.17648e-06
4.42596e-07
-2.5726e-06
6.63019e-07
-3.06671e-06
9.17706e-07
-3.65272e-06
1.17776e-06
-4.3177e-06
1.41488e-06
-5.03631e-06
1.594e-06
-5.78559e-06
1.70867e-06
-6.54645e-06
1.76241e-06
-7.30184e-06
1.76256e-06
-8.03679e-06
1.71942e-06
-8.74064e-06
1.64443e-06
-9.40369e-06
1.54409e-06
-1.00161e-05
1.42214e-06
-1.05685e-05
1.28109e-06
-1.10529e-05
1.12273e-06
-1.14616e-05
9.4956e-07
-1.17883e-05
7.64462e-07
-1.20285e-05
5.70581e-07
-1.21802e-05
3.71323e-07
-1.22396e-05
1.68278e-07
-1.2204e-05
-3.63406e-08
-1.2072e-05
-2.40145e-07
-1.18369e-05
-4.48675e-07
-1.1496e-05
-6.60639e-07
-1.10487e-05
-8.74478e-07
-1.04956e-05
-1.08657e-06
-9.84036e-06
-1.29133e-06
-9.09008e-06
-1.48205e-06
-8.25522e-06
-1.65218e-06
-7.34893e-06
-1.79629e-06
-6.38631e-06
-1.91021e-06
-5.38384e-06
-1.99091e-06
-4.35888e-06
-2.03641e-06
-3.32905e-06
-2.04599e-06
-2.31109e-06
-2.02083e-06
-1.32158e-06
-1.96157e-06
-3.76582e-07
-1.86922e-06
5.15741e-07
-1.75745e-06
1.33982e-06
-1.61824e-06
2.08675e-06
-1.45839e-06
2.74869e-06
-1.28368e-06
3.32142e-06
-1.10127e-06
3.80443e-06
-9.18378e-07
4.20027e-06
-7.41199e-07
4.51369e-06
-5.7436e-07
4.75085e-06
-4.2106e-07
4.91917e-06
-2.83912e-07
5.02536e-06
-1.64856e-07
5.07115e-06
-6.3693e-08
5.06772e-06
2.09756e-08
5.04246e-06
9.85418e-08
5.01966e-06
1.77343e-07
5.00202e-06
2.55151e-07
4.98085e-06
3.09542e-07
4.95017e-06
3.19441e-07
4.90852e-06
2.89892e-07
4.84641e-06
2.5462e-07
4.73941e-06
2.48015e-07
4.57175e-06
2.72492e-07
4.35681e-06
2.98086e-07
4.12978e-06
2.98144e-07
3.92444e-06
2.69428e-07
3.75179e-06
2.32454e-07
3.60712e-06
1.9964e-07
3.48602e-06
1.69118e-07
3.38904e-06
1.35789e-07
3.31751e-06
9.88875e-08
3.27129e-06
5.93037e-08
3.24776e-06
2.45294e-08
3.24103e-06
2.93055e-09
3.24457e-06
-1.03789e-08
3.25256e-06
-1.61228e-08
3.26641e-06
-1.42931e-08
3.2958e-06
-1.93381e-08
3.33404e-06
-3.32127e-08
3.36777e-06
-2.58979e-08
3.38317e-06
1.45964e-08
3.35396e-06
7.28486e-08
3.25312e-06
1.44287e-07
3.08258e-06
2.5472e-07
2.86855e-06
3.17657e-07
2.66649e-06
3.3321e-07
2.14017e-07
2.51592e-06
2.57779e-08
1.12522e-07
3.91269e-07
-3.26073e-07
8.68325e-07
-5.87296e-07
1.32849e-06
-6.38198e-07
1.7268e-06
-5.53841e-07
2.04621e-06
-3.85539e-07
2.25908e-06
-1.57676e-07
2.34453e-06
9.23926e-08
2.28621e-06
3.18478e-07
2.05439e-06
5.17737e-07
1.64737e-06
6.69498e-07
1.11633e-06
7.29189e-07
5.60585e-07
6.99868e-07
1.17483e-07
5.62119e-07
-1.62835e-07
4.29643e-07
-3.92186e-07
4.85576e-07
-6.65229e-07
5.42277e-07
-9.48183e-07
5.04864e-07
-1.25331e-06
5.61212e-07
-1.59062e-06
7.02092e-07
-1.92876e-06
8.47162e-07
-2.24418e-06
1.01678e-06
-2.5173e-06
1.13539e-06
-2.73209e-06
1.10499e-06
-2.88675e-06
9.52285e-07
-3.03225e-06
8.11412e-07
-3.25195e-06
7.62895e-07
-3.58042e-06
7.85394e-07
-3.98148e-06
8.4469e-07
-4.40419e-06
9.16982e-07
-4.81028e-06
9.48384e-07
-5.17922e-06
9.24728e-07
-5.50972e-06
8.85513e-07
-5.80599e-06
8.44862e-07
-6.0695e-06
7.89827e-07
-6.3061e-06
7.25128e-07
-6.52156e-06
6.57694e-07
-6.71473e-06
5.82777e-07
-6.88311e-06
4.99077e-07
-7.02569e-06
4.08946e-07
-7.13918e-06
3.11373e-07
-7.2201e-06
2.06163e-07
-7.26733e-06
9.54273e-08
-7.27757e-06
-2.05163e-08
-7.24419e-06
-1.4471e-07
-7.17004e-06
-2.68224e-07
-7.05576e-06
-3.91053e-07
-6.90159e-06
-5.1206e-07
-6.70792e-06
-6.30027e-07
-6.47543e-06
-7.4379e-07
-6.20509e-06
-8.52309e-07
-5.89818e-06
-9.546e-07
-5.55628e-06
-1.04994e-06
-5.18143e-06
-1.13814e-06
-4.77649e-06
-1.2202e-06
-4.34488e-06
-1.29946e-06
-3.89193e-06
-1.3798e-06
-3.42555e-06
-1.4648e-06
-2.95662e-06
-1.55241e-06
-2.49458e-06
-1.62868e-06
-2.04079e-06
-1.66126e-06
-1.59411e-06
-1.5966e-06
-1.15355e-06
-1.42667e-06
-7.31069e-07
-1.33555e-06
-2.73215e-07
-1.42211e-06
2.10243e-07
-1.49021e-06
7.62566e-07
-1.64576e-06
1.41479e-06
-1.84907e-06
2.15585e-06
-2.02893e-06
2.94793e-06
-2.10067e-06
3.7032e-06
-1.93497e-06
4.32349e-06
-1.46721e-06
4.71745e-06
-7.46998e-07
4.8801e-06
8.23749e-08
4.92892e-06
8.91004e-07
4.87141e-06
1.6099e-06
4.59458e-06
2.08027e-06
4.09249e-06
2.08997e-06
3.42075e-06
1.80736e-06
2.76293e-06
1.12453e-06
2.17025e-06
2.45396e-07
1.53846e-06
4.05212e-08
8.93566e-07
4.70258e-07
3.11885e-07
8.82052e-07
-1.51951e-07
1.03239e-06
-4.98486e-07
1.00434e-06
-7.57741e-07
8.8607e-07
-9.57057e-07
7.36316e-07
-1.11947e-06
5.89693e-07
-1.26354e-06
4.64058e-07
-1.40337e-06
3.67317e-07
-1.55036e-06
3.0253e-07
-1.71343e-06
2.70271e-07
-1.90157e-06
2.72936e-07
-2.11863e-06
3.18047e-07
-2.37192e-06
4.13967e-07
-2.66763e-06
5.69033e-07
-3.01024e-06
7.8521e-07
-3.40067e-06
1.05345e-06
-3.8355e-06
1.35253e-06
-4.31061e-06
1.65287e-06
-4.8217e-06
1.92597e-06
-5.37623e-06
2.14853e-06
-5.97685e-06
2.30929e-06
-6.61849e-06
2.40405e-06
-7.28902e-06
2.43309e-06
-7.97106e-06
2.40146e-06
-8.64458e-06
2.31795e-06
-9.29135e-06
2.19086e-06
-9.89603e-06
2.02682e-06
-1.0446e-05
1.83105e-06
-1.09302e-05
1.60691e-06
-1.13382e-05
1.35762e-06
-1.16611e-05
1.08732e-06
-1.18925e-05
8.01989e-07
-1.20285e-05
5.07281e-07
-1.2066e-05
2.05798e-07
-1.20075e-05
-9.4833e-08
-1.18521e-05
-3.95517e-07
-1.15975e-05
-7.03298e-07
-1.12408e-05
-1.01731e-06
-1.07799e-05
-1.33543e-06
-1.02147e-05
-1.65172e-06
-9.54916e-06
-1.95689e-06
-8.79119e-06
-2.24002e-06
-7.95258e-06
-2.49079e-06
-7.04782e-06
-2.70104e-06
-6.0931e-06
-2.86493e-06
-5.10552e-06
-2.97849e-06
-4.1026e-06
-3.03933e-06
-3.1016e-06
-3.04698e-06
-2.11857e-06
-3.00386e-06
-1.16818e-06
-2.91195e-06
-2.63699e-07
-2.7737e-06
5.89569e-07
-2.61072e-06
1.37985e-06
-2.40852e-06
2.10104e-06
-2.17958e-06
2.74722e-06
-1.92986e-06
3.31451e-06
-1.66855e-06
3.80216e-06
-1.40603e-06
4.21311e-06
-1.15215e-06
4.55292e-06
-9.14174e-07
4.82718e-06
-6.95318e-07
5.03878e-06
-4.95517e-07
5.18806e-06
-3.14127e-07
5.27573e-06
-1.51362e-07
5.30376e-06
-7.05698e-09
5.2877e-06
1.14601e-07
5.24947e-06
2.15567e-07
5.20989e-06
2.94739e-07
5.17797e-06
3.41457e-07
5.15377e-06
3.43647e-07
5.13715e-06
3.06508e-07
5.13093e-06
2.6084e-07
5.13474e-06
2.44207e-07
5.13335e-06
2.73881e-07
5.09375e-06
3.37685e-07
4.9867e-06
4.05192e-07
4.80647e-06
4.49665e-07
4.58226e-06
4.56661e-07
4.35584e-06
4.26064e-07
4.15826e-06
3.66691e-07
4.00109e-06
2.92961e-07
3.88255e-06
2.17425e-07
3.79673e-06
1.45127e-07
3.73943e-06
8.18315e-08
3.70454e-06
3.78235e-08
3.67923e-06
1.493e-08
3.65405e-06
9.04867e-09
3.631e-06
8.76622e-09
3.61908e-06
-7.42139e-09
3.62234e-06
-3.64751e-08
3.63801e-06
-4.15636e-08
3.65103e-06
1.57358e-09
3.62867e-06
9.52112e-08
3.54078e-06
2.32179e-07
3.37923e-06
4.1626e-07
3.16964e-06
5.27255e-07
3.001e-06
5.01843e-07
3.17021e-07
2.898e-06
3.57462e-07
-2.4494e-07
9.90479e-07
-9.59089e-07
1.54944e-06
-1.14626e-06
1.99126e-06
-1.08002e-06
2.335e-06
-8.97582e-07
2.58859e-06
-6.39123e-07
2.76248e-06
-3.31566e-07
2.86817e-06
-1.32991e-08
2.87304e-06
3.13609e-07
2.79554e-06
5.95239e-07
2.63925e-06
8.25782e-07
2.38292e-06
9.85526e-07
1.99093e-06
1.09185e-06
1.45471e-06
1.09834e-06
8.31985e-07
1.05237e-06
2.90376e-07
1.02719e-06
-9.07056e-08
9.23359e-07
-4.07202e-07
8.21361e-07
-7.5693e-07
9.1094e-07
-1.12578e-06
1.07094e-06
-1.45666e-06
1.17804e-06
-1.72738e-06
1.2875e-06
-1.94455e-06
1.35256e-06
-2.14678e-06
1.30722e-06
-2.38602e-06
1.19153e-06
-2.70768e-06
1.13307e-06
-3.12789e-06
1.18311e-06
-3.60245e-06
1.25995e-06
-4.05833e-06
1.30057e-06
-4.4513e-06
1.30996e-06
-4.78516e-06
1.28225e-06
-5.08227e-06
1.22183e-06
-5.35907e-06
1.16231e-06
-5.62375e-06
1.10954e-06
-5.88302e-06
1.04909e-06
-6.13979e-06
9.81903e-07
-6.38955e-06
9.07456e-07
-6.62537e-06
8.18589e-07
-6.84037e-06
7.14083e-07
-7.02624e-06
5.9481e-07
-7.17573e-06
4.60871e-07
-7.284e-06
3.1443e-07
-7.34731e-06
1.58741e-07
-7.3653e-06
-2.53367e-09
-7.33431e-06
-1.75699e-07
-7.25549e-06
-3.47037e-07
-7.12966e-06
-5.16884e-07
-6.95835e-06
-6.83368e-07
-6.74373e-06
-8.44652e-07
-6.48849e-06
-9.9903e-07
-6.19584e-06
-1.14496e-06
-5.86945e-06
-1.28099e-06
-5.51356e-06
-1.40583e-06
-5.13319e-06
-1.51851e-06
-4.73461e-06
-1.61879e-06
-4.32648e-06
-1.70759e-06
-3.91839e-06
-1.78789e-06
-3.51891e-06
-1.86428e-06
-3.1334e-06
-1.93792e-06
-2.75572e-06
-2.00635e-06
-2.36667e-06
-2.05032e-06
-1.93996e-06
-2.02331e-06
-1.46087e-06
-1.90576e-06
-1.00096e-06
-1.79546e-06
-5.70342e-07
-1.85273e-06
-1.13642e-07
-1.94691e-06
3.87949e-07
-2.14735e-06
9.9041e-07
-2.45153e-06
1.69974e-06
-2.73825e-06
2.49026e-06
-2.89119e-06
3.27222e-06
-2.71694e-06
3.92653e-06
-2.12153e-06
4.37105e-06
-1.19152e-06
4.56106e-06
-1.07628e-07
4.51421e-06
9.37851e-07
4.3644e-06
1.75971e-06
4.17297e-06
2.2717e-06
3.84538e-06
2.41755e-06
3.32153e-06
2.33122e-06
2.71398e-06
1.73207e-06
1.99372e-06
9.65658e-07
1.16884e-06
8.65407e-07
4.36128e-07
1.20296e-06
-7.96145e-08
1.39779e-06
-4.08468e-07
1.36124e-06
-6.13744e-07
1.20962e-06
-7.48416e-07
1.02074e-06
-8.50812e-07
8.38712e-07
-9.45497e-07
6.84378e-07
-1.04737e-06
5.65925e-07
-1.16649e-06
4.86444e-07
-1.3102e-06
4.46233e-07
-1.4838e-06
4.43871e-07
-1.69123e-06
4.80374e-07
-1.93334e-06
5.60153e-07
-2.2095e-06
6.90124e-07
-2.51818e-06
8.77715e-07
-2.85767e-06
1.12471e-06
-3.22701e-06
1.42278e-06
-3.62868e-06
1.7542e-06
-4.072e-06
2.09619e-06
-4.57101e-06
2.42498e-06
-5.13862e-06
2.71615e-06
-5.77352e-06
2.94419e-06
-6.45477e-06
3.0853e-06
-7.15122e-06
3.12954e-06
-7.83305e-06
3.08329e-06
-8.47888e-06
2.96379e-06
-9.07897e-06
2.79095e-06
-9.62923e-06
2.57708e-06
-1.01244e-05
2.32625e-06
-1.05569e-05
2.03937e-06
-1.09179e-05
1.71859e-06
-1.1199e-05
1.36844e-06
-1.13933e-05
9.96311e-07
-1.14958e-05
6.09822e-07
-1.15057e-05
2.15644e-07
-1.14231e-05
-1.77456e-07
-1.12446e-05
-5.73931e-07
-1.09694e-05
-9.78539e-07
-1.05928e-05
-1.39393e-06
-1.01108e-05
-1.81742e-06
-9.52278e-06
-2.23973e-06
-8.83353e-06
-2.64614e-06
-8.05348e-06
-3.02006e-06
-7.19747e-06
-3.34681e-06
-6.28274e-06
-3.61577e-06
-5.32745e-06
-3.82022e-06