/*--------------------------------*- C++ -*----------------------------------*\
  =========                 |
  \\      /  F ield         | OpenFOAM: The Open Source CFD Toolbox
   \\    /   O peration     | Website:  https://openfoam.org
    \\  /    A nd           | Version:  9
     \\/     M anipulation  |
\*---------------------------------------------------------------------------*/
FoamFile
{
    format      ascii;
    class       volScalarField;
    location    "0.083";
    object      pPrime2Mean;
}
// * * * * * * * * * * * * * * * * * * * * * * * * * * * * * * * * * * * * * //

dimensions      [0 4 -4 0 0 0 0];

internalField   nonuniform List<scalar> 
12225
(
293823
290970
287712
284206
280556
276843
273118
269416
265756
262148
258594
255088
251619
248165
244693
241146
237407
233202
293849
290997
287734
284224
280570
276855
273129
269426
265766
262159
258605
255101
251635
248186
244724
241197
237510
233498
293924
291057
287782
284262
280602
276882
273153
269448
265788
262181
258631
255131
251672
248235
244793
241305
237709
233952
294036
291157
287862
284326
280655
276927
273193
269485
265824
262219
258672
255180
251732
248313
244903
241473
237995
234484
294227
291307
287980
284421
280733
276993
273251
269540
265878
262275
258734
255251
251819
248426
245058
241700
238350
235055
294524
291515
288143
284552
280841
277084
273332
269615
265951
262351
258817
255348
251937
248577
245259
241982
238759
235647
294910
291789
288358
284725
280983
277205
273438
269714
266048
262451
258927
255473
252088
248766
245506
242313
239210
236249
295316
292138
288636
284948
281166
277360
273575
269840
266171
262579
259065
255631
252275
248996
245797
242689
239695
236859
295868
292576
288983
285226
281394
277553
273745
269997
266325
262736
259235
255822
252499
249266
246130
243103
240207
237475
296537
293119
289412
285569
281675
277790
273954
270190
266511
262927
259439
256050
252761
249576
246502
243550
240740
238095
297382
293781
289933
285985
282013
278075
274204
270420
266735
263153
259679
256315
253062
249924
246909
244027
241293
238721
298293
294514
290506
286438
282381
278385
274475
270669
266975
263396
259934
256593
253372
250277
247312
244488
241813
239298
299466
295366
291159
286952
282797
278734
274781
270950
267244
263666
260217
256897
253708
250652
247735
244962
242340
239874
301007
296496
292018
287623
283340
279189
275179
271313
267592
264014
260577
257281
254125
251112
248243
245522
242951
240532
302970
297973
293136
288494
284040
279774
275689
271780
268037
264455
261030
257758
254638
251667
248845
246174
243653
241279
305592
299889
294559
289590
284916
280506
276329
272364
268593
265005
261590
258341
255254
252323
249547
246922
244445
242112
308956
302210
296247
290883
285957
281381
277098
273069
269265
265667
262260
259032
255975
253081
250346
247762
245324
243027
312517
304644
298026
292260
287076
282337
277953
273864
270030
266424
263024
259816
256786
253925
251224
248676
246271
244004
315102
306390
299353
293355
288034
283210
278776
274661
270820
267219
263834
260648
257646
254815
252145
249626
247249
245007
313562
305936
299353
293575
288374
283625
279242
275165
271356
267785
264428
261269
258293
255487
252840
250342
247985
245759
311706
304880
298822
293361
288359
283737
279439
275423
271659
268123
264795
261660
258705
255917
253287
250804
248459
246244
309783
303717
298147
293001
288203
283717
279511
275560
271842
268341
265041
261928
258991
256219
253601
251130
248794
246587
308051
302641
297494
292621
288007
283643
279521
275628
271952
268481
265205
262110
259188
256428
253821
251358
249029
246828
306662
301750
296938
292289
287822
283559
279504
275658
272017
268571
265314
262234
259323
256573
253973
251516
249192
246995
305610
301067
296508
292027
287672
283483
279481
275672
272056
268629
265385
262316
259414
256670
254076
251623
249304
247110
304807
300562
296192
291833
287559
283425
279460
275676
272079
268666
265432
262371
259475
256735
254145
251695
249378
247186
304240
300208
295975
291699
287481
283384
279444
275678
272093
268688
265461
262405
259513
256777
254189
251741
249426
247235
303796
299975
295837
291616
287431
283357
279433
275678
272100
268702
265479
262426
259536
256802
254216
251769
249454
247264
303546
299846
295761
291570
287404
283343
279427
275678
272104
268709
265488
262437
259549
256816
254230
251784
249470
247280
303448
299791
295729
291551
287393
283337
279424
275677
272106
268712
265492
262441
259554
256821
254236
251790
249476
247287
197437
197419
197384
197334
197271
197194
197102
196992
196863
196714
196544
196352
196141
195910
195661
195393
195107
194802
194479
194137
193778
193401
193007
192596
192169
191724
191262
190782
190284
189771
189241
188696
188137
187561
186970
186365
185748
185121
184487
183843
183188
182520
181835
181133
180412
179674
178923
178159
177383
176597
175802
174999
174189
173372
172545
171709
170865
170004
169123
168223
167311
166386
165454
164511
163544
162547
161524
160484
159437
158382
157321
156252
155175
154084
152973
151847
150710
149568
148429
147297
146172
145049
143926
142802
141677
140545
139416
138285
137146
135972
134769
133567
132384
131225
130085
128959
127839
126717
125587
124444
123284
122104
120903
119682
118442
117188
115923
114650
113371
112086
110797
109500
108195
106881
105556
104221
102877
101526
100170
98812.2
97454.8
96100.5
94751.4
93409.5
92076.2
90752.7
89439.2
88135.6
86840.9
85553.8
84272.7
82996
81722.2
80450.2
79179.1
77908.5
76638.1
75367.9
74098.1
72828.6
71559.8
70291.7
69024.5
67758.3
66493.3
65229.6
63967.3
62706.6
61447.6
60190.6
58935.7
57683.3
56433.5
55186.8
53944
52706.2
51474.4
50249.3
49031.2
47820.3
46616
45416.7
44221.9
43034.6
41856.1
40684.7
39522
38369.9
37226.8
36092.7
34969.2
33854.1
32748.3
31654.8
30573
29504.8
28450
27411.3
26393.5
25406.1
197496
197478
197444
197394
197330
197252
197159
197047
196916
196765
196593
196402
196191
195962
195714
195448
195162
194857
194534
194191
193830
193451
193054
192640
192208
191761
191295
190813
190314
189800
189271
188728
188170
187597
187008
186404
185787
185159
184522
183874
183214
182541
181853
181149
180428
179688
178940
178183
177409
176622
175823
175016
174203
173386
172561
171724
170877
170016
169138
168245
167340
166416
165477
164521
163543
162543
161520
160480
159433
158380
157319
156254
155181
154088
152977
151851
150710
149568
148428
147293
146167
145045
143925
142804
141681
140551
139411
138262
137103
135922
134727
133539
132370
131221
130088
128966
127848
126727
125598
124455
123295
122115
120913
119691
118452
117198
115933
114661
113382
112099
110810
109513
108208
106893
105567
104231
102886
101534
100177
98818.3
97460.1
96105
94755.2
93412.6
92078.8
90754.8
89441
88137.1
86842.1
85554.9
84273.8
82997
81723.3
80451.3
79180.3
77909.7
76639.4
75369.3
74099.4
72830
71561.2
70293.1
69025.9
67759.8
66494.9
65231.2
63969
62708.4
61449.5
60192.6
58938
57685.8
56436.5
55190.2
53948
52710.8
51479.6
50254.8
49036.6
47825.1
46619.5
45418.8
44223.5
43037.2
41859.5
40687.8
39525
38372.8
37229.6
36095.8
34972.7
33857.9
32752.8
31659.1
30577.2
29508.4
28452.1
27411.6
26391.6
25398.8
197644
197627
197594
197542
197474
197390
197290
197172
197037
196882
196710
196520
196311
196083
195835
195568
195281
194975
194649
194303
193938
193554
193152
192732
192295
191842
191372
190887
190386
189870
189340
188795
188237
187664
187077
186476
185861
185235
184598
183950
183289
182614
181923
181219
180502
179768
179019
178256
177478
176686
175885
175076
174262
173443
172615
171776
170926
170064
169191
168303
167397
166470
165519
164548
163558
162549
161524
160485
159436
158382
157322
156255
155180
154087
152976
151851
150713
149570
148429
147292
146165
145044
143927
142809
141683
140546
139390
138221
137043
135860
134679
133510
132355
131217
130091
128974
127859
126741
125613
124471
123312
122132
120930
119708
118468
117215
115951
114680
113403
112121
110833
109537
108232
106916
105589
104252
102905
101551
100192
98831.2
97471.3
96114.6
94763.4
93419.5
92084.5
90759.5
89444.9
88140.3
86845
85557.5
84276.2
82999.5
81725.7
80453.8
79182.8
77912.3
76642
75371.9
74102.1
72832.7
71563.9
70295.8
69028.7
67762.7
66497.8
65234.2
63972.1
62711.6
61452.9
60196.2
58941.8
57689.9
56440.9
55195.2
53953.5
52716.5
51485.2
50260.1
49041.4
47829.3
46623.3
45423.3
44229.3
43042.5
41863.5
40692.1
39530
38378
37235.4
36102.3
34979.5
33865.4
32760.2
31665.8
30583.1
29512.6
28455
27412.7
26389.1
25388.8
197860
197843
197809
197756
197685
197597
197492
197371
197231
197074
196900
196707
196496
196267
196018
195749
195459
195149
194818
194467
194096
193707
193299
192873
192430
191971
191496
191006
190501
189982
189450
188903
188344
187770
187182
186581
185969
185345
184710
184064
183404
182730
182042
181340
180623
179889
179137
178371
177591
176799
175997
175186
174367
173540
172705
171860
171007
170146
169273
168385
167474
166537
165575
164594
163597
162582
161551
160507
159452
158391
157324
156253
155172
154079
152970
151845
150708
149566
148426
147291
146164
145044
143926
142803
141671
140522
139354
138174
136993
135815
134645
133487
132343
131213
130095
128983
127873
126757
125632
124493
123334
122155
120953
119732
118492
117239
115976
114707
113433
112153
110867
109572
108267
106951
105623
104283
102933
101576
100214
98850.8
97488.4
96129.3
94775.9
93430
92093.3
90766.8
89450.9
88145.4
86849.4
85561.6
84280.1
83003.2
81729.5
80457.7
79186.7
77916.3
76646.1
75376
74106.2
72836.8
71568
70300.1
69033
67767
66502.2
65238.7
63976.7
62716.4
61457.8
60201.3
58947.1
57695.6
56446.9
55201.6
53960.2
52723.5
51492.2
50266.8
49047.5
47834.7
46628.1
45427.9
44233.9
43047
41868.4
40698.1
39536.4
38384.9
37243.5
36111.8
34990.4
33877.4
32772.4
31677.4
30593.8
29521.7
28461
27415.1
26386.7
25379.1
198146
198128
198091
198036
197963
197872
197765
197639
197497
197336
197157
196960
196745
196510
196256
195981
195686
195370
195033
194675
194298
193901
193487
193054
192605
192139
191658
191163
190653
190131
189596
189049
188488
187915
187328
186729
186117
185494
184860
184216
183560
182891
182208
181508
180792
180055
179299
178525
177736
176935
176124
175304
174478
173646
172808
171961
171107
170244
169369
168475
167556
166611
165644
164661
163662
162645
161609
160557
159492
158417
157337
156253
155165
154068
152961
151840
150707
149569
148430
147296
146170
145049
143926
142797
141655
140494
139319
138137
136958
135784
134620
133469
132333
131211
130099
128992
127886
126775
125653
124516
123360
122182
120981
119760
118521
117269
116009
114744
113474
112198
110914
109620
108315
106998
105667
104324
102970
101609
100244
98876.5
97510.8
96148.7
94792.5
93444
92105
90776.6
89459.1
88152.4
86855.7
85567.3
84285.6
83008.6
81735
80463.2
79192.4
77922.1
76652
75381.9
74112.1
72842.7
71574
70306.1
69039.1
67773.2
66508.4
65244.9
63982.9
62722.7
61464.3
60207.9
58954
57702.7
56454.4
55209.4
53968.3
52731.8
51500.5
50274.9
49055.3
47841.9
46634.8
45434.1
44239.7
43052.4
41873.4
40702.9
39541.5
38390.6
37250.5
36121.2
35002.1
33890.7
32786.1
31691.2
30607.1
29533.5
28470
27420.1
26386.2
25371
198507
198486
198446
198389
198313
198220
198110
197982
197835
197669
197485
197282
197060
196818
196557
196274
195970
195645
195299
194932
194546
194140
193716
193274
192817
192343
191856
191354
190840
190314
189777
189228
188668
188096
187512
186914
186304
185682
185049
184406
183752
183086
182406
181709
180991
180251
179487
178703
177902
177088
176265
175436
174602
173765
172923
172074
171217
170350
169470
168570
167643
166695
165730
164752
163756
162741
161705
160649
159573
158482
157383
156281
155180
154078
152971
151852
150723
149589
148454
147322
146195
145070
143942
142804
141651
140481
139300
138117
136937
135764
134603
133456
132325
131207
130100
128999
127898
126791
125673
124539
123386
122211
121012
119792
118555
117307
116051
114790
113525
112254
110973
109681
108375
107056
105722
104374
103015
101649
100279
98907.6
97537.8
96172.1
94812.5
93460.9
92119.2
90788.5
89469.2
88161.2
86863.4
85574.5
84292.5
83015.5
81742
80470.4
79199.8
77929.7
76659.7
75389.8
74120.1
72850.7
71581.9
70314
69047.1
67781.2
66516.5
65252.9
63990.9
62730.7
61472.4
60216.2
58962.4
57711.3
56463.3
55218.6
53977.9
52741.6
51510.4
50284.7
49064.9
47851.2
46643.5
45442.4
44247.6
43059.8
41879.9
40708.6
39546.6
38395.3
37255.4
36127.3
35010.3
33901.1
32798.3
31704.5
30620.9
29546.6
28480.9
27427.5
26388.2
25365.9
198940
198919
198877
198818
198741
198646
198532
198398
198246
198075
197884
197673
197442
197191
196919
196625
196310
195973
195615
195237
194838
194421
193985
193533
193066
192585
192090
191583
191064
190534
189993
189442
188881
188309
187725
187129
186519
185898
185266
184624
183971
183307
182628
181930
181211
180466
179695
178900
178087
177259
176422
175579
174735
173892
173045
172194
171335
170466
169582
168677
167748
166804
165846
164875
163887
162879
161848
160792
159711
158609
157493
156373
155255
154141
153027
151906
150777
149643
148509
147377
146249
145120
143984
142835
141670
140490
139302
138113
136929
135753
134592
133446
132316
131202
130099
129002
127905
126802
125689
124560
123411
122239
121044
119827
118594
117350
116100
114846
113587
112320
111043
109752
108446
107123
105785
104431
103067
101695
100319
98942.8
97568.4
96198.5
94835.2
93480.2
92135.6
90802.4
89481.2
88171.6
86872.9
85583.4
84301
83024.1
81750.7
80479.3
79209.1
77939.3
76669.6
75399.9
74130.3
72861
71592.3
70324.4
69057.5
67791.6
66526.9
65263.2
64001.1
62740.8
61482.4
60226.2
58972.5
57721.6
56473.8
55229.4
53988.9
52752.9
51521.9
50296.2
49076.4
47862.3
46654.4
45452.8
44257.7
43069.4
41888.7
40716.4
39553.4
38400.7
37259.4
36130.6
35014.1
33906.8
32806.7
31715
30633
29559.3
28492.6
27436.4
26392.3
25364.2
199455
199433
199391
199330
199249
199149
199029
198888
198728
198548
198348
198127
197884
197620
197334
197027
196698
196348
195976
195585
195174
194745
194298
193835
193358
192869
192367
191854
191329
190793
190247
189691
189126
188550
187964
187365
186756
186136
185506
184867
184218
183556
182878
182179
181457
180707
179928
179123
178296
177453
176599
175742
174886
174034
173183
172329
171469
170600
169715
168809
167884
166947
165999
165037
164057
163057
162033
160981
159899
158792
157666
156531
155398
154269
153143
152014
150879
149743
148607
147473
146340
145203
144056
142893
141714
140521
139323
138125
136933
135752
134586
133438
132308
131194
130093
128998
127904
126805
125696
124573
123429
122262
121071
119860
118633
117397
116155
114908
113656
112395
111122
109833
108526
107200
105855
104495
103123
101744
100362
98980.4
97601.3
96227
94859.7
93501.3
92153.7
90817.9
89494.7
88183.7
86884
85593.9
84311.3
83034.3
81761.1
80490.1
79220.3
77951
76681.7
75412.3
74143
72873.9
71605.3
70337.5
69070.7
67804.8
66539.8
65276
64013.5
62753
61494.6
60238.3
58984.6
57733.8
56486.3
55242
54001.8
52766
51535.2
50309.7
49089.8
47875.6
46667.4
45465.5
44270
43081.2
41899.9
40726.7
39562.6
38408.2
37264.7
36133.3
35014.8
33907.5
32809.2
31720.8
30641.5
29569.6
28503.4
27445.7
26398.3
25365.5
200062
200039
199994
199929
199842
199734
199604
199453
199282
199090
198876
198640
198383
198104
197803
197481
197137
196773
196388
195983
195559
195117
194659
194186
193700
193202
192692
192171
191639
191095
190541
189977
189404
188823
188231
187631
187021
186404
185779
185145
184501
183844
183169
182471
181745
180989
180201
179382
178539
177678
176805
175931
175062
174201
173345
172489
171628
170759
169876
168972
168054
167126
166187
165231
164258
163265
162246
161199
160121
159015
157885
156742
155596
154452
153311
152170
151028
149886
148745
147608
146467
145319
144157
142977
141781
140574
139363
138153
136950
135759
134587
133434
132301
131185
130083
128988
127895
126799
125695
124577
123439
122279
121094
119891
118673
117446
116213
114974
113730
112476
111209
109922
108614
107283
105931
104562
103182
101795
100407
99019.3
97635.2
96256.6
94885.4
93523.6
92173
90834.9
89509.8
88197.4
86896.8
85606
84323.2
83046.3
81773.3
80502.8
79233.5
77964.8
76696.2
75427.4
74158.6
72889.9
71621.5
70354.1
69087.4
67821.4
66556.3
65292.1
64029.3
62768.4
61509.6
60253
58999.1
57748.4
56501
55256.9
54016.9
52781.3
51550.7
50325.3
49105.3
47890.9
46682.4
45480.2
44284.3
43095
41913.1
40739.3
39574.1
38418.3
37272.5
36138
35015.9
33906.1
32807.7
31720.9
30644.3
29575
28510.6
27453.4
26404.9
25369.1
200762
200736
200688
200616
200521
200404
200263
200100
199914
199706
199475
199223
198949
198653
198336
197997
197637
197257
196857
196438
196001
195547
195077
194594
194098
193590
193071
192541
191999
191446
190883
190310
189729
189140
188544
187941
187333
186719
186099
185472
184835
184182
183510
182811
182082
181318
180517
179683
178822
177941
177048
176157
175274
174403
173540
172681
171819
170950
170069
169168
168256
167336
166401
165449
164479
163489
162475
161431
160357
159255
158128
156982
155827
154670
153514
152360
151209
150062
148918
147774
146625
145464
144285
143085
141870
140648
139422
138198
136980
135778
134596
133436
132298
131179
130074
128977
127883
126788
125687
124574
123444
122290
121114
119919
118711
117494
116270
115041
113806
112561
111300
110016
108706
107369
106008
104630
103240
101846
100451
99058.1
97669.4
96286.7
94911.7
93546.6
92193.4
90853.1
89526.3
88212.8
86911.2
85619.9
84336.9
83060
81787.3
80517.3
79248.9
77981.1
76713.5
75445.8
74177.9
72909.8
71642
70374.9
69108.4
67842.6
66577.2
65312.5
64049.1
62787.6
61528.2
60271.1
59016.9
57766.2
56518.9
55274.8
54034.7
52799.3
51568.7
50343.1
49122.9
47908.3
46699.6
45496.9
44300.6
43110.7
41928.2
40753.7
39587.8
38430.8
37283.2
36145.8
35020.1
33906.6
32805.7
31718
30642.4
29575.2
28512.9
27457.6
26410
25373.4
201555
201527
201474
201397
201294
201166
201013
200836
200635
200410
200163
199893
199601
199287
198951
198594
198217
197820
197403
196968
196516
196048
195566
195071
194564
194047
193518
192978
192427
191864
191290
190707
190116
189519
188916
188308
187697
187082
186464
185839
185205
184556
183884
183184
182449
181676
180862
180012
179134
178235
177324
176417
175521
174640
173770
172906
172042
171173
170291
169393
168484
167565
166631
165679
164708
163718
162704
161661
160590
159491
158366
157222
156063
154897
153730
152567
151409
150258
149111
147963
146805
145631
144435
143218
141983
140744
139503
138261
137028
135813
134620
133452
132307
131182
130071
128969
127873
126777
125678
124571
123447
122300
121130
119943
118744
117536
116322
115104
113880
112645
111391
110110
108796
107452
106083
104695
103297
101895
100494
99096
97703.1
96316.6
94938.2
93570.2
92214.6
90872.5
89544.4
88229.9
86927.6
85635.9
84352.6
83075.9
81803.6
80534.3
79267
78000.7
76734.6
75468.4
74201.9
72934.8
71667.8
70401.3
69135.3
67869.5
66603.8
65338.4
64074.1
62811.9
61551.7
60293.7
59039
57787.9
56540.5
55296.3
54056
52820.3
51589.5
50363.6
49143
47928
46718.8
45515.6
44318.6
43128.2
41945.1
40770
39603.5
38445.5
37296.6
36157.2
35028.5
33911.3
32806.6
31715.8
30638.4
29571.1
28510.6
27457.4
26411.8
25376.2
202447
202417
202360
202276
202165
202029
201865
201677
201463
201224
200961
200674
200363
200030
199675
199298
198900
198482
198046
197592
197123
196639
196143
195635
195116
194588
194048
193497
192934
192359
191772
191175
190570
189958
189342
188722
188101
187478
186852
186222
185584
184932
184258
183554
182812
182030
181208
180350
179461
178549
177626
176707
175801
174911
174035
173165
172296
171423
170539
169640
168728
167805
166867
165909
164933
163938
162920
161876
160803
159703
158579
157435
156276
155109
153938
152771
151612
150461
149314
148162
146998
145814
144605
143371
142119
140863
139604
138345
137095
135866
134662
133485
132332
131199
130081
128974
127872
126775
125676
124570
123449
122307
121142
119960
118769
117570
116366
115159
113948
112724
111477
110196
108880
107530
106151
104754
103348
101939
100533
99131.8
97735.4
96345.6
94964.3
93594
92236.7
90893.4
89564.3
88249.1
86946.4
85654.5
84371.3
83094.9
81823.5
80555.4
79289.5
78025
76761
75496.7
74232
72966.4
71700.5
70434.8
69169.4
67903.8
66637.6
65371.2
64105.8
62842.4
61581.1
60322
59066.3
57814.6
56566.7
55321.9
54081.1
52844.9
51613.6
50387.1
49165.8
47950.2
46740.4
45536.5
44338.9
43147.7
41964
40788.4
39621.3
38462.7
37312.8
36172.1
35041.2
33921.1
32812.5
31717.4
30636
29566.3
28505.4
27453.6
26410.1
25376.2
203450
203418
203357
203270
203154
203012
202843
202647
202424
202173
201896
201593
201264
200909
200531
200130
199708
199266
198806
198331
197841
197338
196825
196301
195767
195222
194667
194099
193519
192927
192323
191706
191080
190447
189809
189169
188528
187887
187244
186599
185948
185283
184599
183885
183135
182347
181523
180665
179776
178863
177938
177015
176104
175209
174325
173449
172573
171692
170802
169897
168977
168044
167095
166128
165142
164137
163112
162061
160984
159881
158755
157611
156454
155289
154121
152957
151802
150654
149510
148360
147194
146006
144788
143542
142275
141001
139725
138449
137184
135940
134725
133538
132377
131237
130112
128998
127891
126789
125686
124578
123454
122311
121147
119969
118783
117592
116399
115205
114006
112792
111549
110270
108950
107594
106208
104803
103391
101978
100568
99163.9
97764.9
96372.6
94989.3
93617.7
92259.5
90915.7
89586.4
88271
86968.2
85676.5
84393.9
83118.5
81848.5
80582.4
79318.6
78056.2
76794.4
75532.4
74269.9
73005.9
71741.5
70477
69212.4
67947
66680.2
65412.7
64145.8
62880.8
61617.8
60357.2
59099.9
57846.9
56597.8
55352.1
54110.2
52873.3
51641.4
50414.1
49192
47975.5
46764.9
45560.1
44361.6
43169.8
41985.5
40809.4
39641.8
38482.7
37332.2
36190.6
35058.4
33936
32824.4
31725
30638.7
29564.6
28501.2
27448.7
26405.9
25373.4
204587
204553
204491
204402
204287
204143
203972
203770
203539
203276
202983
202660
202307
201927
201522
201094
200645
200176
199690
199188
198673
198146
197608
197060
196504
195937
195359
194770
194168
193552
192922
192278
191622
190959
190291
189622
188953
188283
187614
186943
186268
185582
184879
184152
183393
182603
181782
180932
180054
179152
178235
177316
176406
175507
174618
173735
172850
171961
171061
170146
169214
168266
167302
166321
165321
164304
163267
162209
161125
160017
158889
157745
156591
155431
154271
153117
151969
150830
149693
148547
147384
146197
144977
143722
142442
141152
139859
138568
137289
136033
134807
133612
132444
131299
130169
129049
127935
126824
125712
124594
123462
122313
121147
119970
118789
117605
116422
115239
114050
112842
111602
110321
108998
107636
106246
104837
103422
102008
100597
99191.5
97790.9
96396.9
95012.6
93640.6
92282.6
90939.4
89610.9
88296.3
86994.3
85703.4
84422.1
83148.6
81881
80617.5
79356.3
78096.3
76836.9
75577.5
74316.7
73054.6
71791.6
70528.4
69264.7
67999.5
66732.4
65463.5
64194.9
62928.2
61663.4
60400.6
59141.2
57885.9
56634.8
55387.3
54144.1
52906.2
51673.3
50445.1
49221.9
48004.4
46792.7
45587
44387.5
43195
42010.2
40833.7
39665.8
38506.4
37355.6
36213.4
35080.2
33956.2
32842.2
31739.2
30648.1
29569
28501.4
27445.9
26401.7
25369.1
205881
205846
205784
205694
205578
205433
205256
205046
204801
204521
204207
203860
203482
203074
202638
202178
201696
201195
200676
200142
199596
199038
198471
197895
197309
196713
196106
195485
194849
194199
193534
192856
192166
191467
190763
190058
189354
188650
187946
187241
186535
185822
185095
184351
183583
182790
181973
181135
180272
179388
178486
177578
176674
175776
174884
173994
173101
172200
171287
170361
169416
168454
167473
166476
165462
164431
163383
162316
161226
160115
158986
157845
156696
155544
154393
153249
152112
150982
149851
148713
147558
146376
145159
143901
142611
141306
139998
138694
137404
136137
134902
133701
132530
131385
130254
129129
128005
126878
125750
124616
123472
122314
121144
119968
118789
117611
116435
115259
114075
112868
111626
110342
109016
107653
106262
104854
103441
102028
100619
99213.5
97812.3
96417.8
95033.6
93662.6
92306.3
90965
89638.6
88326
87026
85737.1
84458.1
83187.5
81923.2
80662.8
79404.6
78147.1
76890
75632.1
74372.9
73112
71850
70587.8
69325.4
68060.7
66793.1
65523.2
64253
62984.7
61717.9
60452.7
59190.5
57932.4
56678.5
55428.7
54183.6
52944.2
51710
50480.5
49256
48037.3
46824.6
45617.8
44417.5
43224.4
42039.1
40862.4
39694.3
38534.9
37383.9
36241.3
35107.4
33982.2
32866.3
31760.4
30665.2
29581.1
28508.4
27448.3
26400.7
25365.9
207389
207350
207285
207191
207069
206914
206726
206502
206240
205940
205604
205230
204821
204376
203900
203395
202869
202325
201767
201194
200610
200017
199413
198799
198175
197538
196889
196226
195548
194856
194151
193433
192705
191968
191226
190482
189740
188998
188257
187515
186774
186029
185276
184511
183731
182932
182116
181285
180437
179569
178684
177788
176891
175996
175104
174209
173308
172395
171470
170530
169573
168597
167602
166591
165564
164522
163464
162389
161296
160184
159058
157921
156778
155633
154492
153358
152230
151108
149984
148851
147701
146526
145314
144059
142768
141455
140135
138821
137522
136247
135007
133803
132633
131493
130366
129237
128099
126952
125800
124645
123486
122319
121144
119965
118788
117613
116440
115265
114078
112867
111620
110332
109005
107644
106257
104856
103448
102040
100633
99228.4
97828
96434.8
95052.9
93684.8
92331.8
90994.2
89671.4
88362.4
87065.8
85780.3
84504.8
83237.8
81977.1
80720.2
79464.9
78209.4
76953.4
75695.8
74436.7
73176.1
71914.6
70653.5
69391.6
68127.6
66860
65590
64319.6
63049.9
61781.4
60513.9
59248.9
57987.6
56730.6
55477.9
54230.2
52988.6
51752.5
50521.4
49295.4
48075.4
46861.5
45653.9
44453
43259.5
42073.9
40896.9
39728.7
38569.2
37418.2
36275.4
35140.9
34014.7
32897.2
31788.9
30690.2
29601.6
28523.7
27458.2
26405.5
25366.6
209034
208991
208916
208810
208673
208503
208298
208056
207772
207446
207075
206660
206202
205705
205175
204617
204038
203446
202842
202228
201602
200966
200321
199665
198997
198318
197625
196920
196201
195468
194723
193967
193202
192428
191650
190870
190093
189318
188543
187768
186994
186219
185439
184651
183854
183046
182227
181396
180552
179694
178819
177932
177039
176144
175249
174350
173442
172521
171586
170635
169668
168683
167680
166659
165624
164574
163510
162431
161336
160227
159104
157972
156835
155698
154566
153439
152317
151198
150076
148944
147794
146621
145415
144168
142883
141573
140252
138935
137633
136355
135112
133908
132741
131606
130484
129353
128202
127032
125856
124680
123506
122329
121149
119967
118788
117611
116435
115254
114058
112838
111586
110296
108970
107614
106236
104843
103443
102039
100635
99232.9
97835.5
96446.7
95069.9
93707.2
92359.7
91027.4
89710
88406.4
87114.9
85834
84562.5
83299.1
82041.5
80786.9
79533.3
78278
77021.2
75763
74503.2
73240.8
71978.1
70716.9
69456.2
68193.5
66927.4
65658.4
64388.8
63119.7
61850.6
60581.8
59314.5
58050.8
56790.6
55534.7
54284.1
53039.9
51801.5
50568.1
49340.6
48119.4
46904.8
45696.7
44495.4
43301.6
42115.8
40938.6
39770.1
38610.4
37459.3
36316.3
35181.3
34054.2
32935.3
31824.7
30722.9
29630.3
28547.4
27476.3
26417.8
25373.4
210660
210609
210518
210390
210228
210032
209800
209526
209208
208841
208423
207953
207436
206879
206289
205677
205051
204415
203770
203117
202454
201780
201097
200403
199698
198981
198252
197511
196758
195992
195214
194427
193631
192829
192021
191212
190407
189604
188801
188000
187199
186398
185594
184784
183970
183149
182321
181484
180636
179777
178905
178021
177127
176229
175328
174421
173505
172577
171634
170678
169705
168716
167709
166685
165646
164593
163528
162450
161358
160251
159133
158006
156875
155744
154616
153493
152370
151248
150123
148987
147836
146663
145461
144223
142951
141652
140338
139026
137728
136450
135206
134002
132836
131701
130579
129445
128284
127098
125904
124713
123527
122343
121157
119971
118786
117604
116420
115229
114024
112796
111538
110247
108925
107575
106206
104821
103426
102026
100626
99227.9
97836.5
96454.7
95085.3
93730.1
92389.9
91064.8
89754.3
88457.4
87172.1
85896.1
84628.5
83367.5
82111.3
80857.5
79603
78346.2
77086.7
75825.7
74562.6
73297.8
72033.3
70771.4
69511.7
68251.4
66987.8
65721.7
64454.7
63187.9
61920.5
60651.9
59384.3
58119.2
56856.8
55598.1
54344.7
53097.6
51856.4
50621.1
49392.2
48170.4
46955.7
45747.7
44546.5
43352.5
42166.5
40988.8
39819.7
38659.5
37507.9
36364.7
35229.2
34101.3
32981
31868.4
30763.8
29667.5
28580.1
27503.6
26439.2
25388.4
212273
212208
212092
211928
211722
211479
211198
210876
210507
210088
209616
209089
208512
207894
207249
206592
205928
205256
204576
203888
203191
202485
201768
201040
200301
199552
198792
198022
197242
196449
195646
194833
194014
193187
192356
191524
190695
189867
189042
188217
187393
186570
185745
184916
184084
183248
182408
181560
180703
179837
178961
178074
177177
176273
175364
174447
173521
172586
171639
170678
169702
168710
167703
166679
165641
164590
163528
162452
161365
160263
159150
158028
156901
155773
154646
153521
152395
151267
150135
148994
147840
146666
145468
144240
142980
141694
140392
139091
137800
136527
135284
134079
132911
131771
130644
129504
128336
127142
125937
124738
123545
122356
121166
119975
118783
117592
116398
115198
113983
112748
111487
110195
108875
107531
106167
104788
103399
102003
100608
99217
97833.8
96460.9
95100.3
93754
92422.9
91106.7
89804.8
88515.6
87236.5
85965
84699.5
83439
82182
80926.3
79669.1
78408.3
77144.1
75878.6
74611.7
73343.5
72076.9
70814.4
69555.9
68298.5
67039
65777.3
64514.5
63251.4
61987.2
60721.3
59455.7
58190.8
56927.6
55667.2
54411.7
53161.8
51918.3
50681.4
49451.9
48230.4
47016.5
45809.3
44608.5
43414.5
42228.2
41049.8
39879.5
38718
37565.5
36421.4
35285.1
34156.2
33034.5
31920
30812.8
29713.2
28621.7
27540.3
26470.2
25413.1
213891
213804
213649
213434
213167
212855
212503
212111
211677
211197
210667
210086
209457
208789
208101
207408
206714
206011
205300
204579
203849
203111
202362
201604
200836
200058
199273
198479
197675
196860
196035
195202
194361
193515
192664
191813
190962
190115
189268
188424
187580
186737
185893
185046
184197
183346
182491
181631
180763
179887
179002
178109
177206
176295
175375
174448
173513
172570
171618
170654
169676
168683
167675
166653
165618
164571
163512
162442
161359
160263
159155
158038
156914
155787
154659
153531
152401
151266
150126
148979
147821
146646
145450
144229
142980
141708
140421
139133
137852
136586
135346
134140
132967
131820
130683