/*--------------------------------*- C++ -*----------------------------------*\
  =========                 |
  \\      /  F ield         | OpenFOAM: The Open Source CFD Toolbox
   \\    /   O peration     | Website:  https://openfoam.org
    \\  /    A nd           | Version:  9
     \\/     M anipulation  |
\*---------------------------------------------------------------------------*/
FoamFile
{
    format      ascii;
    class       volVectorField;
    location    "0.083";
    object      U;
}
// * * * * * * * * * * * * * * * * * * * * * * * * * * * * * * * * * * * * * //

dimensions      [0 1 -1 0 0 0 0];

internalField   nonuniform List<vector> 
12225
(
(10.0733 0.0919191 0)
(9.59783 0.0646654 0)
(9.21613 0.0520135 0)
(8.87793 0.056977 0)
(8.60729 0.0501788 0)
(8.3869 0.0465132 0)
(8.13353 0.0605362 0)
(7.80627 0.0785861 0)
(7.44488 0.0783004 0)
(7.13867 0.0578633 0)
(6.905 0.0344679 0)
(6.73017 0.0269647 0)
(6.51575 0.0399153 0)
(6.27924 0.0614809 0)
(5.90915 0.0761569 0)
(5.65427 0.0750177 0)
(5.17664 0.0762217 0)
(5.03 0.0916157 0)
(9.91891 0.00673397 0)
(10.1565 0.107495 0)
(10.2368 0.112033 0)
(10.1809 0.0819197 0)
(10.0693 0.0630544 0)
(9.96238 0.0667041 0)
(9.88795 0.0862701 0)
(9.84641 0.10558 0)
(9.81984 0.108661 0)
(9.79639 0.0974419 0)
(9.7537 0.0858673 0)
(9.69398 0.0894521 0)
(9.60878 0.106317 0)
(9.53166 0.140272 0)
(9.42613 0.161304 0)
(9.35832 0.179742 0)
(9.24382 0.199912 0)
(9.1637 0.204346 0)
(9.97199 0.0539857 0)
(10.0881 0.0190861 0)
(10.1372 0.0700308 0)
(10.076 0.0996693 0)
(10.0077 0.101485 0)
(9.96135 0.0918108 0)
(9.93805 0.0895982 0)
(9.94399 0.0956976 0)
(9.97215 0.0961999 0)
(10.0058 0.0866656 0)
(10.0304 0.0769538 0)
(10.0425 0.0791477 0)
(10.0429 0.0938087 0)
(10.0403 0.118536 0)
(10.035 0.136929 0)
(10.0256 0.149775 0)
(10.0104 0.162776 0)
(10.0018 0.195918 0)
(10.0461 -0.0411329 0)
(9.96337 0.0263205 0)
(9.9761 0.101828 0)
(10.0733 0.105859 0)
(10.1268 0.0926019 0)
(10.0964 0.0909898 0)
(10.0364 0.100235 0)
(10.0024 0.104305 0)
(10.0021 0.0928802 0)
(10.0181 0.0737785 0)
(10.0362 0.0639246 0)
(10.0523 0.0760959 0)
(10.0647 0.107483 0)
(10.0729 0.149601 0)
(10.0719 0.183972 0)
(10.0588 0.206281 0)
(10.0338 0.225979 0)
(10.0089 0.244858 0)
(10.01 0.00807332 0)
(9.93282 0.0811967 0)
(9.96337 0.0784934 0)
(9.97749 0.0752841 0)
(9.98588 0.0951135 0)
(9.98984 0.11059 0)
(9.99107 0.10774 0)
(9.98997 0.0956307 0)
(9.98582 0.0832475 0)
(9.98372 0.0736142 0)
(9.99288 0.0691183 0)
(10.0198 0.0747987 0)
(10.0619 0.091728 0)
(10.1087 0.117159 0)
(10.1477 0.1424 0)
(10.1675 0.165154 0)
(10.1679 0.187138 0)
(10.155 0.207404 0)
(9.97746 -0.0222902 0)
(10.0926 0.0195158 0)
(10.1987 0.0581065 0)
(10.1916 0.0800652 0)
(10.1514 0.0838917 0)
(10.1225 0.09227 0)
(10.1184 0.108706 0)
(10.1317 0.118309 0)
(10.1425 0.10745 0)
(10.1368 0.0786183 0)
(10.1149 0.0495688 0)
(10.0898 0.0407262 0)
(10.0763 0.0600747 0)
(10.0813 0.102723 0)
(10.0992 0.15412 0)
(10.1178 0.200728 0)
(10.1271 0.236686 0)
(10.1266 0.257219 0)
(9.97662 0.0338403 0)
(10.0178 0.0444204 0)
(10.0582 0.0738755 0)
(10.0508 0.116242 0)
(10.0055 0.13191 0)
(9.96545 0.118489 0)
(9.9739 0.0924448 0)
(10.0352 0.0738015 0)
(10.1142 0.0710439 0)
(10.1691 0.0786781 0)
(10.1775 0.087811 0)
(10.1442 0.0951687 0)
(10.0916 0.102944 0)
(10.0442 0.115448 0)
(10.0156 0.134194 0)
(10.0075 0.157211 0)
(10.0129 0.18248 0)
(10.0284 0.205759 0)
(9.74222 -0.0823373 0)
(9.75014 0.00288801 0)
(9.76389 0.0272393 0)
(9.87485 0.0730015 0)
(10.0282 0.102751 0)
(10.1421 0.100297 0)
(10.1813 0.0847294 0)
(10.163 0.0708519 0)
(10.1219 0.0618486 0)
(10.0845 0.0582749 0)
(10.0609 0.0628318 0)
(10.0494 0.0785427 0)
(10.0436 0.104425 0)
(10.0388 0.13633 0)
(10.0312 0.168536 0)
(10.0218 0.19675 0)
(10.0087 0.219136 0)
(9.99625 0.233038 0)
(10.1855 -0.064154 0)
(10.0733 0.0192559 0)
(9.98022 0.0402158 0)
(9.96835 0.0429349 0)
(10.0142 0.0482287 0)
(10.0634 0.0593349 0)
(10.0979 0.0765649 0)
(10.1126 0.0929187 0)
(10.0933 0.10257 0)
(10.0327 0.105157 0)
(9.94543 0.103967 0)
(9.86019 0.104175 0)
(9.80145 0.110551 0)
(9.7793 0.125668 0)
(9.79075 0.148984 0)
(9.82209 0.176446 0)
(9.86317 0.204322 0)
(9.89874 0.227948 0)
(10.255 0.0855609 0)
(9.95921 0.0932448 0)
(9.87354 0.0524392 0)
(9.92442 0.0519171 0)
(9.99609 0.0607209 0)
(10.0159 0.0593436 0)
(10.0061 0.0610453 0)
(10.0076 0.07784 0)
(10.0253 0.107579 0)
(10.0413 0.138031 0)
(10.0433 0.156871 0)
(10.0329 0.159894 0)
(10.0188 0.151944 0)
(10.0098 0.14173 0)
(10.0104 0.137636 0)
(10.0192 0.142315 0)
(10.0323 0.157045 0)
(10.0417 0.17761 0)
(10.0703 0.163494 0)
(10.1902 0.18778 0)
(10.1401 0.0535098 0)
(10.0444 -0.0044744 0)
(9.98262 0.0220914 0)
(9.9438 0.0603765 0)
(9.90857 0.0775699 0)
(9.88503 0.079439 0)
(9.88338 0.0813671 0)
(9.8999 0.0899056 0)
(9.92141 0.101324 0)
(9.93574 0.111274 0)
(9.93657 0.119809 0)
(9.92586 0.129925 0)
(9.91116 0.145875 0)
(9.90108 0.167918 0)
(9.89825 0.196622 0)
(9.90673 0.229253 0)
(9.9448 0.0930188 0)
(10.0921 0.082395 0)
(10.1872 0.0935696 0)
(10.1622 0.104556 0)
(10.1049 0.0987211 0)
(10.0922 0.0870581 0)
(10.1195 0.0845925 0)
(10.1575 0.0918672 0)
(10.185 0.104964 0)
(10.1925 0.121719 0)
(10.1787 0.139019 0)
(10.1491 0.152656 0)
(10.1096 0.159439 0)
(10.0669 0.158192 0)
(10.0234 0.152185 0)
(9.98662 0.146978 0)
(9.95425 0.14785 0)
(9.93649 0.160348 0)
(9.92376 0.159914 0)
(9.91142 0.12056 0)
(9.93524 0.0555938 0)
(9.96283 0.0489196 0)
(10.0026 0.0623321 0)
(10.0646 0.0588013 0)
(10.1264 0.0455878 0)
(10.1638 0.0420654 0)
(10.1672 0.056692 0)
(10.139 0.085173 0)
(10.0909 0.117591 0)
(10.0367 0.146385 0)
(9.98707 0.169214 0)
(9.94426 0.188537 0)
(9.90541 0.206822 0)
(9.86923 0.225947 0)
(9.83237 0.245664 0)
(9.80155 0.265519 0)
(9.83232 0.0667252 0)
(9.88869 0.0131754 0)
(9.9097 0.0368157 0)
(9.91718 0.0610976 0)
(9.96175 0.0391334 0)
(10.0395 0.0124932 0)
(10.11 0.0239353 0)
(10.1371 0.0753592 0)
(10.1142 0.140238 0)
(10.0553 0.195356 0)
(9.98108 0.229519 0)
(9.90794 0.241207 0)
(9.84775 0.234979 0)
(9.8046 0.219243 0)
(9.77996 0.200734 0)
(9.77097 0.187993 0)
(9.77797 0.181891 0)
(9.79462 0.187821 0)
(10.1506 0.122806 0)
(9.99802 0.113903 0)
(9.99427 0.0767378 0)
(10.0733 0.0402508 0)
(10.116 -0.00668851 0)
(10.0863 -0.0357961 0)
(10.0206 -0.0206911 0)
(9.97574 0.0334158 0)
(9.9809 0.102956 0)
(10.0299 0.165941 0)
(10.0976 0.210501 0)
(10.1592 0.236228 0)
(10.197 0.247044 0)
(10.2029 0.249241 0)
(10.1784 0.246651 0)
(10.1319 0.242643 0)
(10.0775 0.239498 0)
(10.022 0.236197 0)
(9.6457 0.0659289 0)
(9.76591 0.0365818 0)
(9.86474 -0.0447719 0)
(9.94891 -0.0459238 0)
(9.96246 0.0224977 0)
(9.93712 0.0977919 0)
(9.91457 0.130253 0)
(9.91789 0.121023 0)
(9.95103 0.0992284 0)
(9.99828 0.0898957 0)
(10.0408 0.104601 0)
(10.0673 0.142335 0)
(10.077 0.19292 0)
(10.0724 0.243049 0)
(10.0643 0.282104 0)
(10.0577 0.305826 0)
(10.062 0.314131 0)
(10.0753 0.312992 0)
(9.91133 -0.0744644 0)
(9.93685 -0.156594 0)
(10.0057 -0.059589 0)
(9.98535 0.00658153 0)
(9.94525 0.0182661 0)
(9.92777 -0.0015545 0)
(9.92582 -0.0270023 0)
(9.92812 -0.0292213 0)
(9.92081 0.00247421 0)
(9.89998 0.0599236 0)
(9.87285 0.128295 0)
(9.85098 0.192508 0)
(9.84366 0.240423 0)
(9.85574 0.263865 0)
(9.88727 0.260029 0)
(9.93663 0.236385 0)
(9.99745 0.19875 0)
(10.0651 0.164895 0)
(10.0919 -0.0171108 0)
(9.99995 -0.0836044 0)
(9.95979 -0.0783623 0)
(9.9358 -0.0134945 0)
(9.94266 0.0703008 0)
(9.96478 0.129643 0)
(9.97176 0.15812 0)
(9.95277 0.167628 0)
(9.9182 0.1727 0)
(9.88585 0.181005 0)
(9.87209 0.19091 0)
(9.88473 0.195633 0)
(9.91899 0.18801 0)
(9.96516 0.166063 0)
(10.0098 0.13307 0)
(10.0456 0.0978288 0)
(10.0669 0.0681432 0)
(10.0745 0.052034 0)
(10.0689 -0.00909808 0)
(10.0178 0.0589404 0)
(10.0141 0.0514505 0)
(9.95816 0.0177057 0)
(9.90986 -0.0252016 0)
(9.90587 -0.0525088 0)
(9.93173 -0.035871 0)
(9.97666 0.0184967 0)
(10.0307 0.0748007 0)
(10.0866 0.102812 0)
(10.1408 0.0986504 0)
(10.1909 0.079993 0)
(10.2344 0.067329 0)
(10.2678 0.0732213 0)
(10.2892 0.0970833 0)
(10.2959 0.129017 0)
(10.2901 0.159537 0)
(10.271 0.176169 0)
(9.91629 -0.0314365 0)
(9.9543 -0.0128044 0)
(9.95079 0.0392196 0)
(9.94922 0.101574 0)
(9.93993 0.118638 0)
(9.93308 0.0883141 0)
(9.94249 0.0370403 0)
(9.97509 -0.00523218 0)
(10.0218 -0.0214684 0)
(10.0636 -0.0144782 0)
(10.0881 0.00209426 0)
(10.0962 0.0180764 0)
(10.0983 0.0322229 0)
(10.1059 0.0477142 0)
(10.128 0.0696343 0)
(10.1662 0.0974087 0)
(10.2178 0.129134 0)
(10.2772 0.159379 0)
(10.2378 -0.0230068 0)
(10.1634 -0.0288508 0)
(10.0808 0.0382206 0)
(10.0054 0.0621005 0)
(9.98441 0.0399823 0)
(9.9995 -0.01612 0)
(10.0224 -0.0715056 0)
(10.06 -0.0943354 0)
(10.1158 -0.0744164 0)
(10.1742 -0.0264533 0)
(10.2147 0.0213583 0)
(10.2242 0.0458406 0)
(10.2 0.041062 0)
(10.1508 0.0157222 0)
(10.0941 -0.0159101 0)
(10.0491 -0.0404583 0)
(10.0243 -0.0537161 0)
(10.0283 -0.0503811 0)
(10.2485 0.0405581 0)
(10.1695 0.181643 0)
(10.1155 0.203936 0)
(10.042 0.139382 0)
(9.98792 0.0887321 0)
(9.96788 0.0391322 0)
(9.96302 -0.0350222 0)
(9.95677 -0.109287 0)
(9.95624 -0.147453 0)
(9.97165 -0.127865 0)
(10.0048 -0.0542499 0)
(10.0476 0.0462453 0)
(10.088 0.138679 0)
(10.1164 0.196976 0)
(10.1286 0.210483 0)
(10.1273 0.186493 0)
(10.118 0.137496 0)
(10.1072 0.0830428 0)
(9.76732 -0.0821715 0)
(9.89219 0.0452206 0)
(10.0323 0.190683 0)
(10.1287 0.190019 0)
(10.1741 0.10857 0)
(10.1954 0.00830479 0)
(10.2098 -0.072476 0)
(10.2189 -0.116097 0)
(10.2135 -0.123206 0)
(10.1982 -0.107052 0)
(10.1859 -0.0803558 0)
(10.1845 -0.051528 0)
(10.1932 -0.0255098 0)
(10.2078 -0.00542283 0)
(10.224 0.00577366 0)
(10.2373 0.00849898 0)
(10.2455 0.00341037 0)
(10.2485 -0.00694665 0)
(9.97917 -0.174975 0)
(10.018 -0.0546198 0)
(10.063 0.057956 0)
(10.143 0.0844291 0)
(10.2402 0.0597881 0)
(10.2897 0.0144204 0)
(10.2931 -0.0369535 0)
(10.2731 -0.0832456 0)
(10.2432 -0.105959 0)
(10.2059 -0.0913852 0)
(10.1643 -0.0418017 0)
(10.1243 0.0254708 0)
(10.093 0.0874555 0)
(10.0746 0.129021 0)
(10.0704 0.142867 0)
(10.0787 0.132181 0)
(10.0969 0.103159 0)
(10.1203 0.0663024 0)
(9.92893 -0.138564 0)
(9.90685 -0.0322753 0)
(9.95516 0.045903 0)
(10.0267 0.0406276 0)
(10.048 -0.00339342 0)
(10.0186 -0.0483995 0)
(9.99189 -0.08278 0)
(9.99057 -0.0962965 0)
(9.99818 -0.0821849 0)
(10.0011 -0.0467698 0)
(10.0028 -0.00596833 0)
(10.0132 0.0259398 0)
(10.0397 0.0414479 0)
(10.0839 0.0392377 0)
(10.142 0.0226555 0)
(10.204 -0.00178027 0)
(10.2631 -0.0285671 0)
(10.3091 -0.0525149 0)
(10.1367 0.0306807 0)
(10.0392 -0.00903767 0)
(10.0514 0.0063812 0)
(10.1465 0.0525339 0)
(10.2832 0.0753125 0)
(10.3912 0.0518025 0)
(10.4381 -0.00616085 0)
(10.4263 -0.0666846 0)
(10.3819 -0.09624 0)
(10.3363 -0.0845922 0)
(10.3113 -0.0468126 0)
(10.3126 -0.00660562 0)
(10.3345 0.0198142 0)
(10.3665 0.0279253 0)
(10.3989 0.0210335 0)
(10.4251 0.00565873 0)
(10.4426 -0.0116459 0)
(10.4509 -0.0261488 0)
(10.0568 -0.07556 0)
(10.1302 -0.0179799 0)
(10.089 -0.0274644 0)
(10.1037 -0.0853252 0)
(10.1791 -0.127621 0)
(10.2606 -0.132742 0)
(10.2953 -0.111136 0)
(10.2607 -0.0763426 0)
(10.1758 -0.0415844 0)
(10.0866 -0.014421 0)
(10.0348 0.00195843 0)
(10.0366 0.00715617 0)
(10.0836 0.00278393 0)
(10.1568 -0.00851296 0)
(10.2359 -0.0234519 0)
(10.3056 -0.0390427 0)
(10.3572 -0.0534085 0)
(10.387 -0.0638347 0)
(9.99239 -0.177065 0)
(10.0008 -0.0238057 0)
(10.1288 0.0316271 0)
(10.2023 0.0138669 0)
(10.1832 -0.00593947 0)
(10.1173 -0.0119428 0)
(10.071 -0.00568104 0)
(10.0717 0.00471055 0)
(10.1073 0.0095657 0)
(10.1563 0.00382116 0)
(10.2053 -0.0123368 0)
(10.2489 -0.0347016 0)
(10.284 -0.0567086 0)
(10.3082 -0.0722615 0)
(10.3203 -0.0780976 0)
(10.3218 -0.0755014 0)
(10.3157 -0.0670094 0)
(10.306 -0.0572489 0)
(10.2151 -0.144053 0)
(10.1579 -0.121197 0)
(10.1078 -0.0951845 0)
(10.1563 -0.0913465 0)
(10.2377 -0.0906196 0)
(10.2618 -0.091152 0)
(10.2406 -0.0917871 0)
(10.2174 -0.0869491 0)
(10.2133 -0.0742769 0)
(10.2312 -0.0576666 0)
(10.2674 -0.0434826 0)
(10.3142 -0.0369497 0)
(10.3595 -0.0380657 0)
(10.3918 -0.0431208 0)
(10.4012 -0.0485832 0)
(10.3862 -0.0529896 0)
(10.3482 -0.0555594 0)
(10.2967 -0.0560504 0)
(9.96092 -0.00105137 0)
(9.83165 0.0169937 0)
(9.73068 0.018293 0)
(9.55879 -0.027192 0)
(9.33995 -0.0389964 0)
(9.14383 -0.016254 0)
(9.00234 0.00460673 0)
(8.89495 0.00606855 0)
(8.79443 -0.00811529 0)
(8.68896 -0.0303562 0)
(8.57252 -0.0550451 0)
(8.43962 -0.0759119 0)
(8.29084 -0.0857301 0)
(8.13952 -0.0796752 0)
(8.00388 -0.0597142 0)
(7.89744 -0.0332744 0)
(7.82176 -0.00842159 0)
(7.77322 0.00583651 0)
(-0.0622829 0.195786 1.14735e-19)
(-0.21549 0.153662 -1.13849e-19)
(-0.289438 0.0800529 0)
(-0.319742 0.0219276 0)
(-0.323751 -0.0343494 0)
(-0.33115 -0.0747324 1.10532e-19)
(-0.356557 -0.0908052 0)
(-0.39868 -0.0780752 0)
(-0.443233 -0.0422529 0)
(-0.470045 0.00429343 0)
(-0.454876 0.0520647 -1.06289e-19)
(-0.411174 0.111123 0)
(-0.372682 0.218334 0)
(-0.403893 0.303641 0)
(-0.554492 0.200466 0)
(-0.706381 0.0347397 -1.02079e-19)
(-0.774789 -0.0326594 0)
(-0.797462 -0.0598149 0)
(-0.810565 -0.0827446 0)
(-0.849884 -0.0724961 0)
(-0.94573 -0.0173634 0)
(-1.13061 0.0828401 0)
(-1.43754 0.226851 0)
(-1.86781 0.386351 -9.51663e-20)
(-2.36655 0.495428 9.4183e-20)
(-2.85641 0.504666 -9.31978e-20)
(-3.27287 0.386212 -9.22268e-20)
(-3.56627 0.217561 0)
(-3.7625 0.157243 0)
(-3.95799 0.182238 8.94103e-20)
(-4.18258 0.162593 8.84703e-20)
(-4.40412 0.124315 0)
(-4.62374 0.132183 0)
(-4.85482 0.146381 8.56608e-20)
(-5.08722 0.137231 0)
(-5.30994 0.12819 0)
(-5.51964 0.125167 -8.2925e-20)
(-5.7117 0.116158 0)
(-5.88047 0.0996552 -8.11992e-20)
(-6.02116 0.0792229 -1.60757e-19)
(-6.1295 0.0562946 0)
(-6.20276 0.0315587 0)
(-6.23862 0.00614985 0)
(-6.23468 -0.0190999 0)
(-6.19449 -0.0444559 0)
(-6.11569 -0.0704454 -1.52406e-19)
(-5.99902 -0.0965711 -1.51281e-19)
(-5.84476 -0.121899 -1.50228e-19)
(-5.65415 -0.145623 0)
(-5.42898 -0.16732 1.48316e-19)
(-5.17142 -0.186822 0)
(-4.88429 -0.203879 -1.46606e-19)
(-4.57083 -0.218157 -1.45803e-19)
(-4.23439 -0.229505 0)
(-3.8777 -0.238423 0)
(-3.50148 -0.246115 0)
(-3.10269 -0.254185 -1.42705e-19)
(-2.67435 -0.265067 0)
(-2.20709 -0.283064 0)
(-1.69322 -0.311618 0)
(-1.13665 -0.340495 0)
(-0.561076 -0.340123 0)
(-0.0399304 -0.280466 0)
(0.387266 -0.253225 0)
(0.824052 -0.254484 0)
(1.28171 -0.256966 1.33751e-19)
(1.75985 -0.263336 0)
(2.26249 -0.285877 0)
(2.80278 -0.297757 -1.29583e-19)
(3.35534 -0.280201 -1.28053e-19)
(3.88285 -0.239638 0)
(4.30799 -0.113605 1.24925e-19)
(4.53469 0.0557439 -1.23486e-19)
(4.50014 0.33 0)
(3.99266 0.770758 1.21088e-19)
(2.87912 0.934666 0)
(1.60131 0.592242 0)
(0.724755 0.0461428 -1.18005e-19)
(0.280219 -0.307577 0)
(0.2127 -0.431001 1.15769e-19)
(0.53549 -0.496325 0)
(1.08026 -0.439423 -1.13418e-19)
(1.54695 -0.282194 -1.12174e-19)
(1.73973 -0.154992 -1.10922e-19)
(1.68455 -0.0686193 -2.19356e-19)
(1.50857 0.0134889 2.16998e-19)
(1.27764 0.0751331 0)
(1.04591 0.0927359 0)
(0.853196 0.0772355 0)
(0.714594 0.0491467 2.07469e-19)
(0.630854 0.0186654 2.05087e-19)
(0.59298 -0.0103202 -2.02797e-19)
(0.590034 -0.0350365 0)
(0.610623 -0.0538818 1.98069e-19)
(0.639966 -0.0651861 1.9557e-19)
(0.65908 -0.0663355 1.93014e-19)
(0.643247 -0.0568932 0)
(0.562879 -0.0296811 0)
(0.381113 0.0222373 0)
(0.0668559 0.103981 1.82927e-19)
(-0.403644 0.204919 0)
(-1.04251 0.307691 0)
(-1.83242 0.391813 -1.74608e-19)
(-2.72915 0.447484 0)
(-3.68506 0.473328 0)
(-4.66052 0.474752 -1.64824e-19)
(-5.62544 0.460093 0)
(-6.55738 0.435293 0)
(-7.43949 0.403665 1.53973e-19)
(-8.25909 0.367627 1.5036e-19)
(-9.00631 0.328261 0)
(-9.67195 0.28587 -1.43539e-19)
(-10.2478 0.241578 0)
(-10.728 0.196601 1.37688e-19)
(-11.1084 0.150792 0)
(-11.3852 0.104635 1.33208e-19)
(-11.5559 0.0604815 1.3155e-19)
(-11.6211 0.0185817 0)
(-11.58 -0.021578 0)
(-11.4381 -0.0605987 0)
(-11.1928 -0.0994817 0)
(-10.842 -0.138373 0)
(-10.3855 -0.176281 0)
(-9.82551 -0.212255 0)
(-9.16718 -0.245236 1.30528e-19)
(-8.41899 -0.274054 -1.31236e-19)
(-7.59242 -0.29778 0)
(-6.70138 -0.315747 0)
(-5.76183 -0.327505 0)
(-4.79098 -0.332808 0)
(-3.80605 -0.331569 -2.65217e-19)
(-2.82257 -0.324047 0)
(-1.85496 -0.310845 2.62726e-19)
(-0.916288 -0.292285 -2.60646e-19)
(-0.0304397 -0.269661 0)
(0.786118 -0.244677 0)
(1.53177 -0.215748 0)
(2.19547 -0.18488 2.46602e-19)
(2.77126 -0.153357 2.42304e-19)
(3.25661 -0.122299 0)
(3.65221 -0.0926589 2.33426e-19)
(3.9617 -0.0650581 2.28965e-19)
(4.19089 -0.0399226 -2.24552e-19)
(4.34741 -0.0178665 0)
(4.44001 -0.00126143 0)
(4.48197 0.00619245 -2.11879e-19)
(4.49378 0.0141224 0)
(4.46194 0.0433206 0)
(4.35814 0.0946579 0)
(4.16224 0.143068 0)
(3.88968 0.160624 1.93187e-19)
(3.59088 0.138685 1.89769e-19)
(3.31802 0.0896331 0)
(3.09879 0.034983 1.83206e-19)
(2.93595 -0.00509915 0)
(2.81736 -0.022241 0)
(2.72731 -0.0187982 1.73962e-19)
(2.65355 -0.00564567 0)
(2.58885 0.00422838 1.68029e-19)
(2.52946 0.00695859 0)
(2.47442 0.0058795 0)
(2.42547 0.00421324 1.59355e-19)
(2.38472 0.00387147 0)
(2.35403 0.0044799 1.53709e-19)
(2.33735 0.0037844 0)
(2.3352 0.00368913 0)
(2.34097 0.00665072 0)
(2.35022 0.0076177 -1.42763e-19)
(2.36424 0.00561247 0)
(2.37338 0.00975494 1.37425e-19)
(2.37219 0.0161932 0)
(2.36548 0.00773299 0)
(2.37382 0.00340446 0)
(2.34997 0.0116498 0)
(2.31447 0.00555564 0)
(2.27816 -0.0103775 0)
(2.21962 0.00302201 0)
(2.09946 0.00407902 -2.33829e-19)
(2.00735 0.0101014 0)
(1.86139 -0.0143161 0)
(0.00891717 0.367508 -3.43991e-19)
(0.0186704 0.324923 3.41709e-19)
(0.165294 0.150053 0)
(0.341484 0.0431653 -2.2434e-19)
(0.511581 0.0500712 0)
(0.622515 0.141176 -1.10428e-19)
(0.654457 0.242993 2.1919e-19)
(0.585992 0.284038 2.17493e-19)
(0.428407 0.222058 0)
(0.204687 0.0555552 2.14331e-19)
(-0.0579855 -0.159542 1.0636e-19)
(-0.315837 -0.305815 0)
(-0.510054 -0.236753 0)
(-0.559107 0.0565174 0)
(-0.515612 0.333827 0)
(-0.574267 0.368361 1.02114e-19)
(-0.757808 0.226371 0)
(-0.929922 0.137575 -2.00877e-19)
(-1.10947 0.176503 0)
(-1.3542 0.323917 0)
(-1.6409 0.553581 1.95488e-19)
(-1.98242 0.866172 0)
(-2.38458 1.13067 -1.91577e-19)
(-2.78015 1.2101 9.48538e-20)
(-3.07874 1.13299 -9.39319e-20)
(-3.25473 0.980313 9.30316e-20)
(-3.37573 0.779301 9.21389e-20)
(-3.5175 0.580644 0)
(-3.69782 0.487218 0)
(-3.91698 0.511875 -8.93757e-20)
(-4.17677 0.562259 8.83832e-20)
(-4.46264 0.587346 0)
(-4.74869 0.600062 0)
(-5.02391 0.605925 -8.55838e-20)
(-5.28701 0.59487 0)
(-5.53043 0.560491 0)
(-5.74797 0.50779 8.2849e-20)
(-5.93881 0.446239 0)
(-6.10258 0.377794 -8.09616e-20)
(-6.23919 0.301377 1.60643e-19)
(-6.34831 0.219636 0)
(-6.42815 0.135388 0)
(-6.47801 0.0497129 3.11924e-19)
(-6.49748 -0.0366439 3.09193e-19)
(-6.48056 -0.124144 3.06589e-19)
(-6.4281 -0.211149 -1.51864e-19)
(-6.33833 -0.296008 1.51138e-19)
(-6.21168 -0.377226 4.49799e-19)
(-6.04871 -0.45344 -2.97739e-19)
(-5.85024 -0.523721 -1.4812e-19)
(-5.61737 -0.587304 0)
(-5.35136 -0.643501 1.46382e-19)
(-5.05394 -0.691883 -1.45255e-19)
(-4.72714 -0.733051 0)
(-4.37238 -0.769488 0)
(-3.98928 -0.805946 0)
(-3.57509 -0.849749 1.42455e-19)
(-3.12586 -0.91064 0)
(-2.63875 -0.99485 -2.81433e-19)
(-2.11982 -1.08978 0)
(-1.59801 -1.14939 -2.77925e-19)
(-1.10262 -1.1045 0)
(-0.597405 -0.929948 2.74217e-19)
(-0.201905 -0.849723 0)
(0.217677 -0.867471 -2.69994e-19)
(0.672229 -0.889267 1.33614e-19)
(1.15571 -0.932762 0)
(1.69291 -0.986664 2.61942e-19)
(2.28198 -1.03743 1.29572e-19)
(2.92517 -1.0334 1.28018e-19)
(3.58505 -0.912459 0)
(4.16329 -0.622371 1.24462e-19)
(4.58211 -0.203054 1.23436e-19)
(4.82317 0.310371 0)
(4.852 0.948592 -1.20794e-19)
(4.64733 1.53502 2.38464e-19)
(4.127 1.73661 0)
(3.42433 1.42007 1.17335e-19)
(2.60796 0.868653 0)
(1.87935 0.17055 -3.46357e-19)
(1.5789 -0.559601 0)
(1.55119 -0.776979 3.39923e-19)
(1.54391 -0.430988 1.12162e-19)
(1.31723 0.028902 -1.1103e-19)
(0.919122 0.314907 -2.19657e-19)
(0.482782 0.42409 2.17364e-19)
(0.0907372 0.424613 0)
(-0.231238 0.366419 0)
(-0.487725 0.283118 0)
(-0.691363 0.196923 -6.23166e-19)
(-0.855496 0.120519 -2.05276e-19)
(-0.989891 0.0609635 2.02827e-19)
(-1.10296 0.0219555 0)
(-1.20666 0.0055085 1.97982e-19)
(-1.31554 0.0153213 -1.95364e-19)
(-1.44816 0.058861 -1.92804e-19)
(-1.62387 0.141561 0)
(-1.86405 0.267832 0)
(-2.1881 0.433388 0)
(-2.60533 0.624326 -1.82195e-19)
(-3.1188 0.813482 0)
(-3.72346 0.976494 3.53328e-19)
(-4.39922 1.09704 5.21187e-19)
(-5.1169 1.16934 -3.41156e-19)
(-5.85398 1.19721 0)
(-6.5915 1.18875 -1.63606e-19)
(-7.31549 1.15234 0)
(-8.01517 1.09407 -3.13599e-19)
(-8.68105 1.01933 1.5281e-19)
(-9.30342 0.932319 1.49232e-19)
(-9.87295 0.835135 0)
(-10.3811 0.728875 4.29108e-19)
(-10.8206 0.61526 -2.79728e-19)
(-11.1845 0.496265 -1.3755e-19)
(-11.4678 0.373561 0)
(-11.6674 0.249196 -1.33137e-19)
(-11.7817 0.126122 -3.93758e-19)
(-11.8073 0.00513899 0)
(-11.7428 -0.114559 -2.58059e-19)
(-11.5789 -0.233313 -2.57046e-19)
(-11.3127 -0.352138 -2.56728e-19)
(-10.9421 -0.470311 0)
(-10.4665 -0.585747 0)
(-9.88762 -0.695409 0)
(-9.21091 -0.795752 1.2999e-19)
(-8.44515 -0.883393 1.31115e-19)
(-7.60202 -0.955638 0)
(-6.69561 -1.01054 2.64208e-19)
(-5.74171 -1.04682 2.64867e-19)
(-4.75712 -1.0638 0)
(-3.75855 -1.06157 2.64943e-19)
(-2.76107 -1.04123 5.27508e-19)
(-1.77814 -1.00361 -2.62479e-19)
(-0.820471 -0.94866 -2.60041e-19)
(0.0873951 -0.883867 0)
(0.930569 -0.807683 0)
(1.70925 -0.721776 0)
(2.41093 -0.62986 -2.46388e-19)
(3.02903 -0.535597 2.41969e-19)
(3.56053 -0.442462 4.75303e-19)
(4.0056 -0.353519 -2.33262e-19)
(4.36715 -0.271215 2.28703e-19)
(4.65011 -0.197346 2.24408e-19)
(4.86046 -0.132906 0)
(5.00631 -0.0785021 0)
(5.09358 -0.0355578 -2.11629e-19)
(5.1172 -0.000698335 0)
(5.10214 0.0347677 0)
(5.0806 0.078589 4.00164e-19)
(5.06634 0.127572 0)
(5.0543 0.168028 1.92823e-19)
(5.03633 0.186988 -1.89483e-19)
(5.00989 0.185564 0)
(4.9715 0.174823 1.82817e-19)
(4.90083 0.160821 0)
(4.76876 0.140123 0)
(4.57212 0.112591 -1.73647e-19)
(4.34299 0.084371 3.4137e-19)
(4.12305 0.0639064 -1.67778e-19)
(3.9356 0.0531274 0)
(3.78064 0.0484701 0)
(3.65091 0.0430863 1.59169e-19)
(3.54439 0.0337783 0)
(3.46291 0.0207305 1.53552e-19)
(3.40945 0.00570653 0)
(3.37978 -0.00748315 0)
(3.36945 -0.0154257 0)
(3.37579 -0.0201325 1.42645e-19)
(3.39086 -0.0196942 0)
(3.40227 -0.0155459 -1.37312e-19)
(3.42841 -0.0114829 0)
(3.48009 -0.00829098 0)
(3.52754 -0.00135002 2.58873e-19)
(3.55414 0.0128153 -2.53723e-19)
(3.56999 0.0311399 0)
(3.51552 0.0473786 0)
(3.36825 0.075625 0)
(3.1485 0.0917889 7.00782e-19)
(2.95552 0.110416 0)
(2.72193 0.0682724 -4.4794e-19)
(-0.0773314 0.18021 -1.8803e-23)
(0.129259 -0.161749 -4.55293e-19)
(0.562042 -0.533002 0)
(0.983469 -0.665603 4.47218e-19)
(1.36166 -0.590872 0)
(1.68116 -0.370042 0)
(1.92694 -0.0395664 -2.19085e-22)
(2.06526 0.337938 -2.16515e-19)
(2.08809 0.680971 -2.14496e-19)
(1.97004 0.956642 -2.13093e-19)
(1.69502 1.1109 0)
(1.28111 1.04232 0)
(0.738335 0.783631 2.0886e-19)
(0.260342 0.393194 4.15178e-19)
(-0.0486661 0.20839 -4.12287e-19)
(-0.242751 0.527259 0)
(-0.469717 0.699966 -4.05305e-19)
(-0.698802 0.617042 2.00891e-19)
(-0.968582 0.684859 0)
(-1.27265 0.891609 -3.94579e-19)
(-1.57025 1.12701 -1.95376e-19)
(-1.86549 1.41924 3.86899e-19)
(-2.14375 1.63241 1.91548e-19)
(-2.37692 1.59721 0)
(-2.53265 1.35874 -3.75658e-19)
(-2.63749 1.09941 -3.72214e-19)
(-2.78229 0.929589 0)
(-3.03165 0.868883 -3.65045e-19)
(-3.37553 0.925646 0)
(-3.76537 1.05008 -3.57207e-19)
(-4.15162 1.12917 -1.7671e-19)
(-4.5033 1.12484 0)
(-4.81689 1.09008 0)
(-5.09979 1.04545 0)
(-5.35258 0.972913 0)
(-5.57806 0.882254 0)
(-5.78462 0.789044 0)
(-5.97321 0.689667 -3.26918e-19)
(-6.13982 0.582557 4.8553e-19)
(-6.28381 0.471057 0)
(-6.40444 0.354636 0)
(-6.49815 0.232366 0)
(-6.56059 0.105322 -6.64484e-22)
(-6.58987 -0.0251644 -3.09132e-19)
(-6.58313 -0.158336 -6.12315e-19)
(-6.53834 -0.291226 6.07383e-19)
(-6.45692 -0.422171 3.01059e-19)
(-6.33901 -0.549739 -2.99558e-19)
(-6.18482 -0.672618 6.17438e-22)
(-5.99489 -0.78959 -2.95052e-19)
(-5.76967 -0.899619 0)
(-5.51003 -1.00191 -2.91632e-19)
(-5.21739 -1.0962 4.9796e-22)
(-4.89379 -1.18335 0)
(-4.54121 -1.26592 0)
(-4.16179 -1.34882 2.85428e-19)
(-3.75931 -1.43918 0)
(-3.33924 -1.54226 0)
(-2.90823 -1.65164 -2.80164e-19)
(-2.48172 -1.73986 -5.57658e-19)
(-2.084 -1.75714 2.77399e-19)
(-1.69395 -1.64119 0)
(-1.24503 -1.40494 -2.73654e-19)
(-0.862336 -1.29755 0)
(-0.475609 -1.37882 -2.6902e-19)
(-0.0301505 -1.42911 -2.67413e-19)
(0.434517 -1.55188 5.29046e-19)
(0.986719 -1.70591 2.61326e-19)
(1.61879 -1.83732 0)
(2.32183 -1.86742 -5.10716e-19)
(3.05139 -1.68706 0)
(3.70663 -1.23831 -7.4655e-19)
(4.22374 -0.580538 -4.91112e-19)
(4.51335 0.187845 -4.85543e-19)
(4.59655 0.980436 4.7997e-19)
(4.62526 1.67386 -7.13569e-19)
(4.47142 2.08234 0)
(4.12435 1.98989 0)
(3.51941 1.5823 4.64389e-19)
(2.867 0.857144 6.91681e-19)
(2.35349 -0.0903458 0)
(1.73464 -0.377766 -2.26706e-19)
(1.12558 0.0821922 0)
(0.559837 0.584791 6.66917e-19)
(0.0658684 0.816594 -3.97056e-24)
(-0.311552 0.845608 -1.00031e-22)
(-0.588323 0.767391 -4.29725e-19)
(-0.795138 0.643298 0)
(-0.958441 0.511072 4.19897e-19)
(-1.09785 0.390748 1.21065e-22)
(-1.22814 0.291954 0)
(-1.36101 0.218286 0)
(-1.50591 0.172206 0)
(-1.6709 0.157823 -3.95501e-19)
(-1.86168 0.181897 0)
(-2.08352 0.252902 0)
(-2.3427 0.378999 0)
(-2.64451 0.55997 0)
(-2.99215 0.785471 0)
(-3.38477 1.03371 -3.64249e-19)
(-3.81889 1.27418 0)
(-4.29253 1.47925 -3.52766e-19)
(-4.80851 1.6338 -3.46884e-19)
(-5.36933 1.73288 3.40721e-19)
(-5.97328 1.77993 0)
(-6.61228 1.77964 3.27488e-19)
(-7.27173 1.73752 0)
(-7.93293 1.6607 3.13346e-19)
(-8.57731 1.5571 -3.06162e-19)
(-9.18879 1.43198 -8.9491e-19)
(-9.75394 1.28808 0)
(-10.2614 1.12742 -8.54503e-19)
(-10.7008 0.952643 -2.77085e-19)
(-11.0626 0.767066 0)
(-11.3395 0.574694 -5.36369e-19)
(-11.5272 0.378699 -5.28469e-19)
(-11.6233 0.181271 7.84464e-19)
(-11.6274 -0.0152677 0)
(-11.5383 -0.212198 2.58078e-19)
(-11.3538 -0.409155 2.5704e-19)
(-11.0707 -0.606144 7.68122e-19)
(-10.6855 -0.802041 0)
(-10.1967 -0.993429 0)
(-9.60622 -1.17497 0)
(-8.91984 -1.34044 2.58898e-19)
(-8.14757 -1.4841 0)
(-7.3025 -1.60155 0)
(-6.39983 -1.68988 -2.64008e-19)
(-5.45621 -1.74737 -2.64654e-19)
(-4.48889 -1.77336 0)
(-3.51479 -1.76854 0)
(-2.54842 -1.73473 -5.27042e-19)
(-1.60203 -1.67259 0)
(-0.685228 -1.58327 5.20006e-19)
(0.182138 -1.48241 5.14062e-19)
(0.987764 -1.3575 0)
(1.73575 -1.21804 0)
(2.4159 -1.06826 -4.91963e-19)
(3.02283 -0.914162 -2.40414e-22)
(3.55336 -0.761632 -2.08135e-22)
(4.00757 -0.615439 0)
(4.38921 -0.47881 -9.14502e-19)
(4.70398 -0.3536 0)
(4.95632 -0.241546 0)
(5.14695 -0.144693 0)
(5.27505 -0.0622973 4.23274e-19)
(5.34112 0.00778373 0)
(5.35123 0.065568 -8.14701e-19)
(5.32398 0.114545 -4.00056e-19)
(5.28604 0.156901 0)
(5.25595 0.183194 -3.8568e-19)
(5.23627 0.179041 0)
(5.22357 0.146977 0)
(5.21847 0.114 -1.09658e-18)
(5.22526 0.111346 7.18376e-19)
(5.23977 0.14746 0)
(5.23654 0.19724 6.93901e-19)
(5.17717 0.225721 -3.41055e-19)
(5.03637 0.220248 0)
(4.82652 0.192199 0)
(4.59273 0.158449 0)
(4.37765 0.126629 -9.5423e-19)
(4.2017 0.0976177 0)
(4.0679 0.0702335 -3.06918e-19)
(3.97128 0.0432244 0)
(3.90431 0.0198971 0)
(3.86407 0.00560259 0)
(3.84386 -0.0031892 0)
(3.82562 -0.00919666 0)
(3.80346 -0.0123708 0)
(3.79066 -0.0211194 -5.38477e-19)
(3.79467 -0.0368866 0)
(3.81437 -0.0373384 -2.58805e-19)
(3.83639 -0.0127724 7.60956e-19)
(3.85391 0.027775 0)
(3.80736 0.080346 0)
(3.68458 0.154583 -4.76848e-19)
(3.46028 0.199538 -4.66961e-19)
(3.28397 0.195928 4.56984e-19)
(3.09664 0.127344 4.47762e-19)
(0.0382063 0.247348 6.87805e-19)
(0.618933 -1.05199 6.81005e-19)
(1.1476 -1.63381 4.49294e-19)
(1.58088 -1.6798 2.22213e-19)
(1.92395 -1.43818 0)
(2.19321 -1.03475 -4.37636e-19)
(2.38844 -0.534587 2.16609e-19)
(2.51242 -0.00989836 0)
(2.5726 0.463728 2.14164e-19)
(2.5533 0.890626 0)
(2.44786 1.24131 -4.20768e-19)
(2.27872 1.45637 0)
(1.97689 1.57374 -2.07885e-19)
(1.58253 1.4872 -4.13198e-19)
(1.05468 1.25001 4.10767e-19)
(0.441612 1.15049 0)
(0.0401235 1.14432 4.0531e-19)
(-0.197081 1.08967 0)
(-0.511681 1.1981 0)
(-0.861003 1.43594 3.94696e-19)
(-1.16188 1.64441 0)
(-1.43394 1.85618 -1.17685e-22)
(-1.65725 1.98483 0)
(-1.83815 1.89824 0)
(-2.01373 1.65299 5.72078e-23)
(-2.2421 1.47134 3.72446e-19)
(-2.58069 1.48178 3.68576e-19)
(-3.01196 1.59033 3.64767e-19)
(-3.45322 1.68056 0)
(-3.83857 1.72599 7.13337e-19)
(-4.16028 1.70059 0)
(-4.43916 1.6097 3.48632e-19)
(-4.69563 1.51392 0)
(-4.94013 1.42698 0)
(-5.17764 1.32817 -3.37148e-19)
(-5.41397 1.2246 0)
(-5.64781 1.12011 3.29723e-19)
(-5.87235 1.00408 7.32118e-22)
(-6.08185 0.873821 -6.46056e-19)
(-6.2688 0.729329 6.38535e-19)
(-6.42505 0.568994 0)
(-6.54548 0.395279 0)
(-6.62694 0.212155 3.09191e-19)
(-6.668 0.0225781 0)
(-6.66621 -0.1676 3.05743e-19)
(-6.62018 -0.358022 -3.03255e-19)
(-6.53112 -0.545991 -3.00937e-19)
(-6.4 -0.729112 0)
(-6.22842 -0.905518 2.96771e-19)
(-6.01842 -1.0736 2.94895e-19)
(-5.77251 -1.23205 -5.84701e-19)
(-5.49369 -1.37973 2.91461e-19)
(-5.18566 -1.51586 2.89859e-19)
(-4.85257 -1.64006 0)
(-4.49931 -1.75258 0)
(-4.13278 -1.85477 -2.85214e-19)
(-3.76164 -1.949 0)
(-3.39311 -2.03677 0)
(-3.03334 -2.11735 5.60597e-19)
(-2.69151 -2.185 5.57031e-19)
(-2.36136 -2.21067 0)
(-1.99541 -2.13073 0)
(-1.56002 -1.9394 0)
(-1.102 -1.8151 0)
(-0.728602 -1.91732 5.37949e-19)
(-0.314436 -2.00259 -5.32811e-19)
(0.114757 -2.2031 -5.28738e-19)
(0.625262 -2.48292 -1.04517e-18)
(1.21908 -2.72546 0)
(1.89426 -2.82821 1.23809e-21)
(2.63329 -2.61955 0)
(3.31594 -2.02428 4.97038e-19)
(3.86154 -1.11067 2.08789e-21)
(4.21838 -0.0664192 4.85866e-19)
(4.29653 0.889438 -4.80241e-19)
(4.17893 1.71956 1.54415e-21)
(4.00771 2.26365 0)
(3.81735 2.32605 -4.66933e-19)
(3.39496 2.13845 -4.64079e-19)
(2.84466 1.50078 -9.21974e-19)
(2.24252 0.622897 0)
(1.47508 0.45275 4.54056e-19)
(0.710869 0.851912 0)
(0.13223 1.15635 -8.8916e-19)
(-0.247308 1.20431 4.39607e-19)
(-0.481515 1.10393 -4.34548e-19)
(-0.629311 0.940965 4.29621e-19)
(-0.733235 0.768822 8.49166e-19)
(-0.821353 0.615998 -4.19938e-19)
(-0.910942 0.494874 4.15132e-19)
(-1.01301 0.408376 0)
(-1.13547 0.356169 -8.11009e-19)
(-1.28425 0.33762 0)
(-1.46384 0.35366 -7.91612e-19)
(-1.67653 0.408854 7.81717e-19)
(-1.92223 0.50912 7.71644e-19)
(-2.19978 0.660554 -7.61353e-19)