/*--------------------------------*- C++ -*----------------------------------*\
  =========                 |
  \\      /  F ield         | OpenFOAM: The Open Source CFD Toolbox
   \\    /   O peration     | Website:  https://openfoam.org
    \\  /    A nd           | Version:  9
     \\/     M anipulation  |
\*---------------------------------------------------------------------------*/
FoamFile
{
    format      ascii;
    class       volVectorField;
    location    "0.083";
    object      U_0;
}
// * * * * * * * * * * * * * * * * * * * * * * * * * * * * * * * * * * * * * //

dimensions      [0 1 -1 0 0 0 0];

internalField   nonuniform List<vector> 
12225
(
(10.0722 0.102831 0)
(9.5832 0.063509 0)
(9.19703 0.0525446 0)
(8.85678 0.0576454 0)
(8.58648 0.0502122 0)
(8.36436 0.0470003 0)
(8.10583 0.0617506 0)
(7.77354 0.0794532 0)
(7.41108 0.0779658 0)
(7.10745 0.056694 0)
(6.87646 0.0335247 0)
(6.70147 0.0270665 0)
(6.48354 0.040977 0)
(6.24159 0.0626598 0)
(5.86766 0.0768202 0)
(5.61011 0.0750588 0)
(5.1282 0.0769702 0)
(4.97186 0.0967298 0)
(9.92657 0.02968 0)
(10.1549 0.115118 0)
(10.219 0.113029 0)
(10.1533 0.0814451 0)
(10.0382 0.0632393 0)
(9.93109 0.06783 0)
(9.85802 0.0877461 0)
(9.81782 0.106434 0)
(9.79185 0.108496 0)
(9.7677 0.0969027 0)
(9.72307 0.0859309 0)
(9.66112 0.0905096 0)
(9.57437 0.108391 0)
(9.4961 0.142576 0)
(9.38971 0.163004 0)
(9.32103 0.181603 0)
(9.20239 0.20161 0)
(9.11759 0.211994 0)
(9.96492 0.0495357 0)
(10.0823 0.0229251 0)
(10.1176 0.0758993 0)
(10.0485 0.102789 0)
(9.97908 0.102224 0)
(9.93274 0.0918061 0)
(9.90994 0.0899908 0)
(9.91672 0.0962333 0)
(9.94529 0.0962937 0)
(9.97858 0.0865322 0)
(10.002 0.0772408 0)
(10.0126 0.0801078 0)
(10.0111 0.0953769 0)
(10.0067 0.120194 0)
(9.99925 0.138352 0)
(9.98702 0.151546 0)
(9.96795 0.166543 0)
(9.95568 0.206594 0)
(10.0631 -0.0488456 0)
(9.9486 0.0395512 0)
(9.96161 0.108924 0)
(10.057 0.108406 0)
(10.1035 0.0936407 0)
(10.0668 0.0922385 0)
(10.0053 0.101451 0)
(9.97247 0.10458 0)
(9.97343 0.0921981 0)
(9.9897 0.0732314 0)
(10.0074 0.0647137 0)
(10.0226 0.0786598 0)
(10.0335 0.111427 0)
(10.0394 0.153959 0)
(10.0353 0.187922 0)
(10.0184 0.210399 0)
(9.98936 0.231623 0)
(9.96219 0.255254 0)
(9.98783 0.0291593 0)
(9.91995 0.0952181 0)
(9.94594 0.083797 0)
(9.95537 0.0796506 0)
(9.96132 0.0987506 0)
(9.96367 0.112378 0)
(9.96355 0.108022 0)
(9.96111 0.095447 0)
(9.95601 0.0832352 0)
(9.95396 0.0740123 0)
(9.96413 0.0701605 0)
(9.99215 0.0767356 0)
(10.0344 0.0945685 0)
(10.0797 0.120646 0)
(10.1157 0.146405 0)
(10.1314 0.170266 0)
(10.1278 0.194469 0)
(10.1126 0.219195 0)
(9.96876 0.00362632 0)
(10.0886 0.0332593 0)
(10.1822 0.0673839 0)
(10.1665 0.0854589 0)
(10.1238 0.0870701 0)
(10.0951 0.0950019 0)
(10.0916 0.111179 0)
(10.1044 0.119519 0)
(10.1135 0.10688 0)
(10.1056 0.0771245 0)
(10.0822 0.0489263 0)
(10.0568 0.0424029 0)
(10.0438 0.0644812 0)
(10.0491 0.1093 0)
(10.0661 0.161895 0)
(10.0826 0.209274 0)
(10.0893 0.246286 0)
(10.0871 0.268906 0)
(9.98487 0.0857321 0)
(10.0036 0.0625274 0)
(10.0374 0.0850924 0)
(10.0243 0.123652 0)
(9.97625 0.135256 0)
(9.93732 0.119088 0)
(9.94901 0.0922453 0)
(10.0125 0.0743727 0)
(10.0906 0.0727478 0)
(10.1418 0.0809727 0)
(10.1456 0.0901215 0)
(10.1086 0.097433 0)
(10.0543 0.105644 0)
(10.0069 0.11923 0)
(9.97914 0.139523 0)
(9.9718 0.164484 0)
(9.97771 0.192115 0)
(9.99385 0.218071 0)
(9.72802 -0.0360255 0)
(9.72282 0.0228275 0)
(9.74341 0.0380833 0)
(9.85923 0.081334 0)
(10.0123 0.107378 0)
(10.1214 0.102093 0)
(10.1544 0.0855968 0)
(10.1316 0.0717549 0)
(10.0888 0.0630632 0)
(10.0515 0.0600701 0)
(10.0285 0.0655815 0)
(10.0172 0.0824726 0)
(10.011 0.109502 0)
(10.0051 0.142409 0)
(9.99645 0.175522 0)
(9.98598 0.204786 0)
(9.97231 0.228483 0)
(9.96003 0.243995 0)
(10.1653 -0.0340454 0)
(10.0397 0.0382096 0)
(9.95127 0.0493864 0)
(9.94394 0.0490961 0)
(9.99117 0.0530451 0)
(10.0393 0.0635567 0)
(10.0717 0.0804307 0)
(10.0833 0.096165 0)
(10.0599 0.105097 0)
(9.99563 0.107206 0)
(9.9066 0.10599 0)
(9.822 0.106727 0)
(9.76558 0.114182 0)
(9.7463 0.130802 0)
(9.76008 0.155788 0)
(9.7928 0.184912 0)
(9.83441 0.214391 0)
(9.87 0.239379 0)
(10.2016 0.114538 0)
(9.91407 0.105622 0)
(9.84507 0.0590331 0)
(9.90246 0.0582561 0)
(9.97232 0.0655923 0)
(9.98836 0.0628458 0)
(9.97725 0.0645977 0)
(9.97925 0.0822764 0)
(9.99702 0.112531 0)
(10.012 0.142509 0)
(10.0125 0.160159 0)
(10.001 0.162078 0)
(9.98657 0.153819 0)
(9.97792 0.144387 0)
(9.97921 0.141984 0)
(9.98855 0.148896 0)
(10.0019 0.16603 0)
(10.0112 0.188706 0)
(10.0567 0.177776 0)
(10.16 0.191973 0)
(10.106 0.0536786 0)
(10.011 0.000282911 0)
(9.95123 0.0294926 0)
(9.91295 0.0664498 0)
(9.87768 0.0813776 0)
(9.85481 0.0821833 0)
(9.85434 0.0842614 0)
(9.87158 0.093213 0)
(9.89273 0.104779 0)
(9.90572 0.114823 0)
(9.90487 0.123792 0)
(9.893 0.134933 0)
(9.87812 0.15242 0)
(9.86874 0.176276 0)
(9.86727 0.206866 0)
(9.87718 0.240966 0)
(9.93102 0.105015 0)
(10.0679 0.0910059 0)
(10.1606 0.101998 0)
(10.1307 0.110701 0)
(10.074 0.102791 0)
(10.0647 0.0905232 0)
(10.0938 0.0881829 0)
(10.1314 0.0956763 0)
(10.1571 0.109003 0)
(10.1624 0.125929 0)
(10.1466 0.143191 0)
(10.1153 0.156552 0)
(10.0747 0.162948 0)
(10.0314 0.161529 0)
(9.98799 0.155977 0)
(9.95193 0.151988 0)
(9.92084 0.1548 0)
(9.90492 0.169585 0)
(9.89234 0.177146 0)
(9.8752 0.117804 0)
(9.90731 0.0588499 0)
(9.93621 0.0548635 0)
(9.9777 0.0675835 0)
(10.0408 0.0623003 0)
(10.1013 0.0483924 0)
(10.1358 0.045585 0)
(10.1359 0.06145 0)
(10.105 0.0907891 0)
(10.0555 0.123383 0)
(10.0008 0.151973 0)
(9.95145 0.174705 0)
(9.909 0.194327 0)
(9.87044 0.213279 0)
(9.8345 0.233273 0)
(9.79821 0.253845 0)
(9.7685 0.274527 0)
(9.82963 0.0518389 0)
(9.86218 0.0120615 0)
(9.88288 0.0448015 0)
(9.89046 0.0673686 0)
(9.93762 0.0426889 0)
(10.0163 0.0164469 0)
(10.0845 0.0304176 0)
(10.1073 0.083725 0)
(10.0803 0.148628 0)
(10.0189 0.202391 0)
(9.94392 0.234631 0)
(9.87129 0.244517 0)
(9.81244 0.237123 0)
(9.77104 0.221066 0)
(9.74836 0.203102 0)
(9.74139 0.191558 0)
(9.75041 0.186985 0)
(9.76908 0.194518 0)
(10.1455 0.121281 0)
(9.97 0.117228 0)
(9.97034 0.0808661 0)
(10.0489 0.0430176 0)
(10.0867 -0.0042333 0)
(10.0523 -0.031759 0)
(9.98581 -0.0138705 0)
(9.94389 0.0420992 0)
(9.95318 0.111805 0)
(10.0053 0.173608 0)
(10.074 0.216507 0)
(10.1345 0.240817 0)
(10.1697 0.250777 0)
(10.1725 0.252712 0)
(10.1452 0.250245 0)
(10.0971 0.246637 0)
(10.0425 0.243907 0)
(9.98796 0.24111 0)
(9.64161 0.0675922 0)
(9.74945 0.0388816 0)
(9.84357 -0.039456 0)
(9.92299 -0.0356717 0)
(9.93218 0.0343221 0)
(9.90485 0.107 0)
(9.88328 0.13499 0)
(9.88899 0.122855 0)
(9.92425 0.100707 0)
(9.97219 0.0929062 0)
(10.0139 0.109897 0)
(10.039 0.149622 0)
(10.0471 0.201192 0)
(10.0418 0.251117 0)
(10.034 0.2891 0)
(10.0284 0.311391 0)
(10.0346 0.318437 0)
(10.0496 0.316548 0)
(9.92091 -0.0590643 0)
(9.92796 -0.135237 0)
(9.98183 -0.0392609 0)
(9.95146 0.019132 0)
(9.91053 0.0243819 0)
(9.89469 0.00112802 0)
(9.89401 -0.0247214 0)
(9.89668 -0.0250298 0)
(9.88878 0.0091339 0)
(9.86738 0.0683005 0)
(9.84041 0.137159 0)
(9.81968 0.200597 0)
(9.81435 0.246682 0)
(9.8289 0.267597 0)
(9.86299 0.26127 0)
(9.9146 0.235781 0)
(9.9771 0.197477 0)
(10.0457 0.164296 0)
(10.068 0.0410561 0)
(9.95606 -0.0572078 0)
(9.91808 -0.0625602 0)
(9.89725 -0.000867697 0)
(9.90815 0.0801394 0)
(9.9321 0.135973 0)
(9.93879 0.161856 0)
(9.91894 0.170145 0)
(9.88446 0.175162 0)
(9.85354 0.183736 0)
(9.8423 0.193518 0)
(9.85772 0.197439 0)
(9.89413 0.18851 0)
(9.94135 0.165264 0)
(9.98585 0.131556 0)
(10.0207 0.0965497 0)
(10.0405 0.0680592 0)
(10.0471 0.0537696 0)
(10.0249 0.0262625 0)
(9.93874 0.0732939 0)
(9.95966 0.0534202 0)
(9.91126 0.0155291 0)
(9.86972 -0.0281368 0)
(9.87135 -0.0531601 0)
(9.90117 -0.0329935 0)
(9.94894 0.0234613 0)
(10.0047 0.0789576 0)
(10.0615 0.104483 0)
(10.1162 0.09834 0)
(10.1665 0.0795063 0)
(10.2097 0.0683774 0)
(10.2424 0.0765388 0)
(10.2626 0.10216 0)
(10.268 0.134718 0)
(10.2609 0.164535 0)
(10.2408 0.179614 0)
(9.869 -0.0819639 0)
(9.8784 -0.0362184 0)
(9.89417 0.0294425 0)
(9.90512 0.0962289 0)
(9.9023 0.112631 0)
(9.89957 0.0812442 0)
(9.91243 0.0306286 0)
(9.94789 -0.00929956 0)
(9.99581 -0.0227464 0)
(10.0372 -0.0137394 0)
(10.0606 0.00372005 0)
(10.0678 0.0200239 0)
(10.0703 0.0345342 0)
(10.0794 0.050778 0)
(10.1036 0.0737186 0)
(10.1439 0.102345 0)
(10.1973 0.134487 0)
(10.2575 0.164304 0)
(10.2202 -0.130247 0)
(10.1227 -0.0735711 0)
(10.0402 0.0166397 0)
(9.96819 0.047744 0)
(9.9517 0.0283218 0)
(9.96943 -0.0261478 0)
(9.99438 -0.0782179 0)
(10.0344 -0.0965982 0)
(10.092 -0.0725878 0)
(10.1503 -0.0226511 0)
(10.1888 0.0245025 0)
(10.1953 0.0466912 0)
(10.1681 0.0396522 0)
(10.1173 0.0131124 0)
(10.0609 -0.0183127 0)
(10.0178 -0.0416476 0)
(9.99597 -0.0531458 0)
(10.0032 -0.0478688 0)
(10.2604 -0.00166751 0)
(10.1617 0.151511 0)
(10.0888 0.179517 0)
(10.0109 0.119861 0)
(9.95761 0.0747626 0)
(9.93903 0.0273899 0)
(9.93455 -0.0455847 0)
(9.9283 -0.116982 0)
(9.92878 -0.150008 0)
(9.94588 -0.124425 0)
(9.98049 -0.0461832 0)
(10.0239 0.0558829 0)
(10.0639 0.146629 0)
(10.0911 0.201081 0)
(10.1019 0.210213 0)
(10.0996 0.182731 0)
(10.0899 0.131897 0)
(10.0795 0.0775704 0)
(9.77567 -0.0872061 0)
(9.88849 0.0367907 0)
(10.0245 0.180242 0)
(10.1114 0.17532 0)
(10.1515 0.0932836 0)
(10.1708 -0.00416258 0)
(10.1843 -0.0812946 0)
(10.1921 -0.120803 0)
(10.1854 -0.12456 0)
(10.1698 -0.106227 0)
(10.1581 -0.0783675 0)
(10.1578 -0.0490994 0)
(10.1673 -0.0232233 0)
(10.1825 -0.00366931 0)
(10.1987 0.00676916 0)
(10.2117 0.00873058 0)
(10.2195 0.00300128 0)
(10.2221 -0.00761315 0)
(9.97119 -0.213161 0)
(10.0083 -0.0600736 0)
(10.051 0.049905 0)
(10.1291 0.0749712 0)
(10.2232 0.0502761 0)
(10.2674 0.00580557 0)
(10.2668 -0.0443575 0)
(10.2448 -0.0885322 0)
(10.2137 -0.107837 0)
(10.1756 -0.0893158 0)
(10.1335 -0.0366567 0)
(10.0938 0.0316999 0)
(10.0635 0.0927538 0)
(10.0465 0.132031 0)
(10.0438 0.143114 0)
(10.0536 0.129978 0)
(10.073 0.0994417 0)
(10.0971 0.062141 0)
(9.92096 -0.158721 0)
(9.9081 -0.033538 0)
(9.94707 0.0395759 0)
(10.0119 0.0312468 0)
(10.0258 -0.0123448 0)
(9.99276 -0.055726 0)
(9.96602 -0.0877345 0)
(9.96525 -0.0983006 0)
(9.97253 -0.0812588 0)
(9.97491 -0.0440512 0)
(9.97674 -0.00300632 0)
(9.98839 0.0279688 0)
(10.0166 0.0419322 0)
(10.0627 0.03811 0)
(10.1221 0.0203548 0)
(10.1846 -0.0045456 0)
(10.2432 -0.0313737 0)
(10.2879 -0.054798 0)
(10.1252 0.0318659 0)
(10.0295 -0.0162858 0)
(10.0406 0.00366589 0)
(10.137 0.0501491 0)
(10.2721 0.0713123 0)
(10.3748 0.0456602 0)
(10.4152 -0.0132833 0)
(10.3985 -0.0721076 0)
(10.352 -0.0979787 0)
(10.307 -0.082807 0)
(10.284 -0.0433356 0)
(10.2875 -0.00348786 0)
(10.311 0.0214308 0)
(10.3436 0.0278481 0)
(10.3758 0.0196903 0)
(10.4013 0.00382932 0)
(10.4178 -0.0134447 0)
(10.4254 -0.0274379 0)
(10.0867 -0.0751848 0)
(10.1257 -0.0182399 0)
(10.0753 -0.0335013 0)
(10.0894 -0.0928357 0)
(10.1648 -0.132564 0)
(10.2432 -0.134506 0)
(10.2716 -0.110447 0)
(10.2307 -0.0745651 0)
(10.1425 -0.0397214 0)
(10.0542 -0.0130148 0)
(10.0063 0.00262816 0)
(10.0127 0.00699506 0)
(10.0633 0.00184337 0)
(10.1385 -0.010024 0)
(10.2178 -0.0252506 0)
(10.2863 -0.0408906 0)
(10.336 -0.0548517 0)
(10.3637 -0.0646777 0)
(9.98461 -0.139855 0)
(9.99552 -0.00889079 0)
(10.1216 0.0314798 0)
(10.1861 0.0104169 0)
(10.1593 -0.00877372 0)
(10.0905 -0.013388 0)
(10.0455 -0.00593062 0)
(10.0486 0.00475208 0)
(10.0858 0.00912355 0)
(10.1351 0.00260154 0)
(10.1836 -0.0142433 0)
(10.2263 -0.0369129 0)
(10.2603 -0.0587003 0)
(10.2832 -0.0735919 0)
(10.2942 -0.0785544 0)
(10.2949 -0.0751606 0)
(10.2883 -0.0660446 0)
(10.2787 -0.0560592 0)
(10.1897 -0.104512 0)
(10.1375 -0.116277 0)
(10.0914 -0.0955217 0)
(10.1426 -0.0922387 0)
(10.2213 -0.0917197 0)
(10.24 -0.0923018 0)
(10.2155 -0.0924711 0)
(10.1922 -0.0867862 0)
(10.1894 -0.0733437 0)
(10.2089 -0.0564022 0)
(10.2463 -0.0424548 0)
(10.2935 -0.0365403 0)
(10.3383 -0.0382493 0)
(10.3689 -0.0436919 0)
(10.3758 -0.0493255 0)
(10.3582 -0.0537179 0)
(10.3181 -0.0560394 0)
(10.2655 -0.0561409 0)
(9.93462 0.00655074 0)
(9.8151 0.0211007 0)
(9.71766 0.0164158 0)
(9.53996 -0.0296405 0)
(9.31751 -0.0388057 0)
(9.12177 -0.0147952 0)
(8.9813 0.00528215 0)
(8.8737 0.00540468 0)
(8.77215 -0.00971829 0)
(8.66538 -0.0324118 0)
(8.5473 -0.0570778 0)
(8.41257 -0.077329 0)
(8.26249 -0.0859706 0)
(8.11113 -0.0785476 0)
(7.9768 -0.0575885 0)
(7.87242 -0.0308526 0)
(7.7989 -0.00650438 0)
(7.75183 0.00674538 0)
(-0.0624013 0.19615 -3.15147e-20)
(-0.215936 0.154262 3.1271e-20)
(-0.290269 0.080715 0)
(-0.321202 0.0228155 0)
(-0.326028 -0.0332368 0)
(-0.334217 -0.0734315 -3.03579e-20)
(-0.360246 -0.089324 0)
(-0.402687 -0.0765911 0)
(-0.447325 -0.0410705 0)
(-0.47418 0.00493414 0)
(-0.459246 0.0520214 2.92842e-20)
(-0.415781 0.110403 0)
(-0.377317 0.217101 0)
(-0.407937 0.303528 0)
(-0.558207 0.2023 0)
(-0.711188 0.0366221 2.81419e-20)
(-0.781014 -0.0314695 0)
(-0.804779 -0.0586275 0)
(-0.818619 -0.0815703 0)
(-0.858279 -0.0716601 0)
(-0.953839 -0.0170389 0)
(-1.13769 0.082356 0)
(-1.44311 0.225056 0)
(-1.8722 0.383417 2.64672e-20)
(-2.37076 0.493128 -2.62913e-20)
(-2.86187 0.506326 2.61387e-20)
(-3.28213 0.392456 2.60064e-20)
(-3.5807 0.222298 0)
(-3.77909 0.15687 0)
(-3.97361 0.181677 -2.56743e-20)
(-4.19779 0.164349 -2.55745e-20)
(-4.41968 0.124862 0)
(-4.63877 0.130907 0)
(-4.86896 0.145652 -2.52988e-20)
(-5.10086 0.136949 0)
(-5.32316 0.127246 0)
(-5.53233 0.123891 2.5006e-20)
(-5.72383 0.1151 0)
(-5.89207 0.0987712 2.47612e-20)
(-6.03224 0.0783717 4.92283e-20)
(-6.14003 0.0554526 0)
(-6.21263 0.0307188 0)
(-6.24775 0.0052795 0)
(-6.24295 -0.0199828 0)
(-6.20187 -0.0453431 0)
(-6.12215 -0.0713267 4.64459e-20)
(-6.00453 -0.0974575 4.5792e-20)
(-5.84927 -0.122804 4.50882e-20)
(-5.65761 -0.146545 0)
(-5.43136 -0.168237 -4.35529e-20)
(-5.17272 -0.187711 0)
(-4.88452 -0.204728 4.1894e-20)
(-4.57005 -0.218956 4.10384e-20)
(-4.23271 -0.230232 0)
(-3.87528 -0.23904 0)
(-3.49858 -0.246576 0)
(-3.09971 -0.254436 3.76388e-20)
(-2.67177 -0.265007 0)
(-2.20538 -0.282584 0)
(-1.69255 -0.310856 0)
(-1.13645 -0.339962 0)
(-0.559962 -0.340319 0)
(-0.0374757 -0.281083 0)
(0.391005 -0.253838 0)
(0.828365 -0.254342 0)
(1.28601 -0.25675 -3.18493e-20)
(1.76392 -0.26294 0)
(2.26596 -0.285327 0)
(2.80517 -0.296531 3.0592e-20)
(3.35561 -0.27842 3.03392e-20)
(3.88005 -0.237011 0)
(4.30069 -0.10975 -3.00383e-20)
(4.52222 0.0604291 2.98748e-20)
(4.48113 0.338069 0)
(3.9622 0.776379 -2.92101e-20)
(2.8445 0.928873 0)
(1.57474 0.583124 0)
(0.706275 0.0415001 2.84121e-20)
(0.266766 -0.308829 0)
(0.204435 -0.431816 -2.77778e-20)
(0.530707 -0.496731 0)
(1.07555 -0.437754 2.6829e-20)
(1.53913 -0.280354 2.64693e-20)
(1.72732 -0.153952 2.61587e-20)
(1.6691 -0.0673661 5.17142e-20)
(1.4911 0.0151467 -5.11666e-20)
(1.25882 0.0764027 0)
(1.02659 0.0932931 0)
(0.833831 0.0774472 0)
(0.695254 0.049328 -4.93224e-20)
(0.611315 0.0189331 -4.8936e-20)
(0.572896 -0.00996943 4.85938e-20)
(0.569176 -0.0346593 0)
(0.588805 -0.0534201 -4.79597e-20)
(0.616983 -0.0645982 -4.76696e-20)
(0.634791 -0.0656084 -4.74134e-20)
(0.617409 -0.0560018 0)
(0.535197 -0.0284809 0)
(0.351512 0.0237105 0)
(0.0357206 0.105535 -4.67686e-20)
(-0.435819 0.206082 0)
(-1.07518 0.308257 0)
(-1.86471 0.391806 4.66106e-20)
(-2.76034 0.44707 0)
(-3.71477 0.47268 0)
(-4.68857 0.473972 4.78189e-20)
(-5.65171 0.459221 0)
(-6.58175 0.434348 0)
(-7.46181 0.402628 -5.03772e-20)
(-8.27912 0.366485 -5.13095e-20)
(-9.0238 0.327039 0)
(-9.68667 0.284576 5.29012e-20)
(-10.2595 0.240188 0)
(-10.7365 0.195164 -5.37006e-20)
(-11.1136 0.149407 0)
(-11.3872 0.103292 -5.3307e-20)
(-11.5547 0.0591968 -5.25918e-20)
(-11.6169 0.0175185 0)
(-11.5738 -0.0224036 0)
(-11.43 -0.0612552 0)
(-11.1834 -0.0998844 0)
(-10.8321 -0.138501 0)
(-10.3758 -0.176146 0)
(-9.81658 -0.211879 0)
(-9.15963 -0.244674 -3.58523e-20)
(-8.4132 -0.273378 3.30698e-20)
(-7.58858 -0.29706 0)
(-6.69953 -0.315038 0)
(-5.76188 -0.326841 0)
(-4.79279 -0.332204 0)
(-3.80944 -0.331022 4.32208e-20)
(-2.8274 -0.323539 0)
(-1.86118 -0.310348 -3.77911e-20)
(-0.923908 -0.291771 3.59217e-20)
(-0.039712 -0.269096 0)
(0.774952 -0.244036 0)
(1.51858 -0.215052 0)
(2.18005 -0.184159 -3.28272e-20)
(2.75356 -0.152653 -3.28444e-20)
(3.23671 -0.121654 0)
(3.63033 -0.0921077 -3.33374e-20)
(3.93816 -0.0646205 -3.36865e-20)
(4.16611 -0.0396121 3.40364e-20)
(4.32182 -0.0177196 0)
(4.4141 -0.00136348 0)
(4.45635 0.00590928 3.47657e-20)
(4.4688 0.0140805 0)
(4.43714 0.0438446 0)
(4.33293 0.0954229 0)
(4.13661 0.143393 0)
(3.86448 0.160125 -3.42183e-20)
(3.56721 0.137513 -3.38962e-20)
(3.29649 0.0882265 0)
(3.07936 0.033794 -3.30308e-20)
(2.91822 -0.00575318 0)
(2.80082 -0.0223694 0)
(2.71152 -0.0185625 -3.12081e-20)
(2.63824 -0.00537603 0)
(2.57385 0.00433104 -2.98408e-20)
(2.51468 0.00693636 0)
(2.45984 0.00582405 0)
(2.4111 0.00416875 -2.77089e-20)
(2.37062 0.00385232 0)
(2.34025 0.00446597 -2.62463e-20)
(2.32394 0.00376073 0)
(2.32209 0.0036867 0)
(2.32806 0.00666959 0)
(2.33743 0.00759894 2.31897e-20)
(2.35152 0.00559677 0)
(2.3606 0.00980691 -2.16415e-20)
(2.35938 0.0161733 0)
(2.35282 0.00759168 0)
(2.36127 0.00335997 0)
(2.33726 0.0116254 0)
(2.30183 0.00536228 0)
(2.26554 -0.0104995 0)
(2.20674 0.00308426 0)
(2.08648 0.00396946 3.09721e-20)
(1.99519 0.0098061 0)
(1.85099 -0.0146533 0)
(0.0090745 0.368258 9.45247e-20)
(0.0191514 0.325684 -9.38707e-20)
(0.165725 0.15142 0)
(0.341427 0.0452042 6.1602e-20)
(0.510824 0.0524138 0)
(0.620955 0.143029 3.03292e-20)
(0.652106 0.243602 -6.02758e-20)
(0.582935 0.283363 -5.98694e-20)
(0.425012 0.220852 0)
(0.201013 0.0550698 -5.91067e-20)
(-0.0614946 -0.158573 -2.93035e-20)
(-0.318715 -0.304529 0)
(-0.512611 -0.237148 0)
(-0.56202 0.0545732 0)
(-0.518508 0.333557 0)
(-0.576739 0.371039 -2.81518e-20)
(-0.760457 0.23005 0)
(-0.933171 0.14007 5.53816e-20)
(-1.11279 0.177429 0)
(-1.35745 0.32321 0)
(-1.64386 0.550287 -5.40295e-20)
(-1.9844 0.86163 0)
(-2.38598 1.12901 5.32266e-20)
(-2.78345 1.2125 -2.63803e-20)
(-3.08622 1.13752 2.62209e-20)
(-3.26556 0.986774 -2.60917e-20)
(-3.38719 0.787816 -2.59814e-20)
(-3.52829 0.587511 0)
(-3.70778 0.488785 0)
(-3.92575 0.50998 2.56648e-20)
(-4.18424 0.560496 -2.56381e-20)
(-4.46953 0.586131 0)
(-4.75571 0.598509 0)
(-5.03105 0.604219 2.52765e-20)
(-5.29427 0.593691 0)
(-5.53803 0.559976 0)
(-5.75593 0.507439 -2.49834e-20)
(-5.94695 0.445704 0)
(-6.11069 0.377168 2.49398e-20)
(-6.24703 0.300687 -4.9194e-20)
(-6.35574 0.218734 0)
(-6.43502 0.134192 0)
(-6.48414 0.0482141 -9.65591e-20)
(-6.50285 -0.0383852 -9.5587e-20)
(-6.4851 -0.125973 -9.44849e-20)
(-6.43171 -0.213067 4.6859e-20)
(-6.34103 -0.298033 -4.5749e-20)
(-6.21348 -0.379362 -1.3555e-19)
(-6.04968 -0.455661 8.89889e-20)
(-5.85045 -0.525977 4.34955e-20)
(-5.61693 -0.589541 0)
(-5.35039 -0.645662 -4.183e-20)
(-5.05257 -0.693894 4.13084e-20)
(-4.72551 -0.734788 0)
(-4.3707 -0.770768 0)
(-3.98775 -0.806534 0)
(-3.57394 -0.849382 -3.75728e-20)
(-3.12521 -0.909171 0)
(-2.63852 -0.992615 7.2292e-20)
(-2.11947 -1.08791 0)
(-1.59663 -1.14939 6.95515e-20)
(-1.09998 -1.10689 0)
(-0.593567 -0.932661 -6.72232e-20)
(-0.196406 -0.851548 0)
(0.223542 -0.868344 6.49861e-20)
(0.677398 -0.889799 -3.20524e-20)
(1.16134 -0.932442 0)
(1.69831 -0.985423 -6.20504e-20)
(2.28665 -1.03503 -3.05892e-20)
(2.92866 -1.02915 -3.03308e-20)
(3.58631 -0.90576 0)
(4.16068 -0.613694 -3.04417e-20)
(4.57578 -0.19396 -2.98627e-20)
(4.81366 0.320621 0)
(4.83862 0.95874 2.91382e-20)
(4.6298 1.53856 -5.81692e-20)
(4.1056 1.73077 0)
(3.40125 1.4097 -2.82511e-20)
(2.5859 0.85967 0)
(1.86284 0.161644 8.29159e-20)
(1.56699 -0.565468 0)
(1.5405 -0.77389 -8.03022e-20)
(1.53011 -0.42304 -2.64669e-20)
(1.29843 0.0358986 2.61343e-20)
(0.897584 0.319068 5.1741e-20)
(0.460624 0.426144 -5.12627e-20)
(0.0689744 0.425374 0)
(-0.252449 0.366501 0)
(-0.508478 0.283006 0)
(-0.711892 0.196976 1.48223e-19)
(-0.875954 0.12094 4.89826e-20)
(-1.01045 0.061797 -4.86031e-20)
(-1.12387 0.0231627 0)
(-1.22821 0.00709645 -4.7821e-20)
(-1.33807 0.0172881 4.76204e-20)
(-1.47181 0.061141 4.73626e-20)
(-1.64872 0.143978 0)
(-1.88992 0.270194 0)
(-2.21468 0.435357 0)
(-2.63217 0.625631 4.65813e-20)
(-3.14539 0.813785 0)
(-3.74935 0.975881 -9.27633e-20)
(-4.424 1.09572 -1.39414e-19)
(-5.14036 1.16756 9.36099e-20)
(-5.87604 1.19516 0)
(-6.61216 1.18656 4.82413e-20)
(-7.33473 1.15006 0)
(-8.03291 1.09167 9.93212e-20)
(-8.69721 1.01674 -5.10113e-20)
(-9.31783 0.92947 -5.19882e-20)
(-9.88541 0.832023 0)
(-10.3914 0.725509 -1.59287e-19)
(-10.8285 0.611661 1.07562e-19)
(-11.19 0.492523 5.36472e-20)
(-11.4707 0.369817 0)
(-11.6677 0.245546 5.32791e-20)
(-11.7796 0.122684 1.58482e-19)
(-11.8032 0.00213096 0)
(-11.7363 -0.116998 1.00825e-19)
(-11.5708 -0.235117 9.72545e-20)
(-11.3034 -0.353177 9.30654e-20)
(-10.9325 -0.470525 0)
(-10.4572 -0.585145 0)
(-9.8793 -0.694089 0)
(-9.20413 -0.793892 -3.62484e-20)
(-8.44026 -0.881214 -3.30394e-20)
(-7.59916 -0.953356 0)
(-6.69474 -1.00833 -5.59131e-20)
(-5.74268 -1.04478 -5.12216e-20)
(-4.75971 -1.06196 0)
(-3.7625 -1.05991 -4.31762e-20)
(-2.76619 -1.03968 -8.08266e-20)
(-1.78433 -1.0021 3.77556e-20)
(-0.8277 -0.947078 3.62665e-20)
(0.0788778 -0.882102 0)
(0.920488 -0.805674 0)
(1.6974 -0.719579 0)
(2.39701 -0.627563 3.27989e-20)
(3.01291 -0.533329 -3.29556e-20)
(3.54222 -0.440363 -6.61437e-20)
(3.98527 -0.351713 3.33138e-20)
(4.34508 -0.269791 -3.37739e-20)
(4.62665 -0.196355 -3.40146e-20)
(4.83599 -0.132357 0)
(4.98125 -0.0783921 0)
(5.06812 -0.0358386 3.48709e-20)
(5.0916 -0.00117455 0)
(5.07728 0.0343577 0)
(5.05713 0.0783388 -6.94455e-20)
(5.04436 0.127281 0)
(5.03362 0.167417 -3.42973e-20)
(5.01681 0.186019 3.3845e-20)
(4.99138 0.184507 0)
(4.95359 0.173911 -3.30191e-20)
(4.88263 0.159992 0)
(4.74962 0.139235 0)
(4.55236 0.11168 3.11518e-20)
(4.32347 0.083627 -6.0983e-20)
(4.10445 0.0634509 2.97963e-20)
(3.91802 0.052913 0)
(3.76384 0.0483402 0)
(3.63472 0.0428934 -2.76841e-20)
(3.52881 0.0334921 0)
(3.44797 0.0203852 -2.62275e-20)
(3.39514 0.00536226 0)
(3.366 -0.00775659 0)
(3.35608 -0.015596 0)
(3.36271 -0.020216 -2.31705e-20)
(3.37789 -0.0196909 0)
(3.3894 -0.0155285 2.16237e-20)
(3.41594 -0.0114965 0)
(3.46797 -0.00829973 0)
(3.51537 -0.00130976 -3.86364e-20)
(3.54181 0.0129126 3.70827e-20)
(3.5572 0.0312827 0)
(3.50152 0.0475585 0)
(3.3531 0.0758113 0)
(3.13319 0.0916619 -9.28781e-20)
(2.9411 0.109663 0)
(2.70957 0.0668038 5.58575e-20)
(-0.0767521 0.179533 1.12434e-22)
(0.130389 -0.161905 1.25194e-19)
(0.563162 -0.531112 0)
(0.984501 -0.662409 -1.22997e-19)
(1.36249 -0.587092 0)
(1.6817 -0.365859 0)
(1.9268 -0.0350833 -3.4045e-22)
(2.0642 0.341808 5.96e-20)
(2.08619 0.683674 5.95339e-20)
(1.96719 0.958201 5.87653e-20)
(1.69226 1.1103 0)
(1.27919 1.03963 0)
(0.737576 0.782054 -5.77922e-20)
(0.26043 0.393674 -1.14754e-19)
(-0.0494539 0.209514 1.13823e-19)
(-0.244285 0.528696 0)
(-0.471222 0.702633 1.11861e-19)
(-0.699657 0.619492 -5.53858e-20)
(-0.969205 0.68579 0)
(-1.27376 0.891474 1.08995e-19)
(-1.57205 1.12475 5.39987e-20)
(-1.86807 1.41579 -1.07364e-19)
(-2.14705 1.63279 -5.32186e-20)
(-2.38169 1.60405 0)
(-2.53991 1.36855 1.0555e-19)
(-2.64609 1.10802 1.05018e-19)
(-2.78976 0.935724 0)
(-3.03687 0.871261 1.03971e-19)
(-3.3793 0.923327 0)
(-3.76929 1.04638 1.03046e-19)
(-4.15695 1.12801 5.11719e-20)
(-4.51041 1.12536 0)
(-4.82539 1.0902 0)
(-5.10938 1.04568 0)
(-5.36307 0.973651 0)
(-5.58888 0.882581 0)
(-5.79521 0.788695 0)
(-5.98342 0.688867 1.00403e-19)
(-6.14951 0.581186 -1.49613e-19)
(-6.29268 0.469055 0)
(-6.41234 0.352162 0)
(-6.50515 0.229521 0)
(-6.5667 0.102141 -7.26935e-22)
(-6.59486 -0.0286447 9.5568e-20)
(-6.587 -0.161818 1.89647e-19)
(-6.54126 -0.294744 -1.87186e-19)
(-6.45893 -0.425671 -9.26041e-20)
(-6.34023 -0.553144 9.04573e-20)
(-6.1854 -0.675843 6.62996e-22)
(-5.99499 -0.792552 8.79558e-20)
(-5.76951 -0.902242 0)
(-5.50978 -1.00412 8.4507e-20)
(-5.21724 -1.09794 5.3424e-22)
(-4.89385 -1.18452 0)
(-4.54156 -1.26638 0)
(-4.16236 -1.34846 -7.74616e-20)
(-3.75988 -1.43802 0)
(-3.33946 -1.54071 0)
(-2.90768 -1.65057 7.30698e-20)
(-2.47991 -1.7404 1.42352e-19)
(-2.08108 -1.76007 -6.94199e-20)
(-1.69124 -1.64602 0)
(-1.24205 -1.40872 6.70849e-20)
(-0.859937 -1.29909 0)
(-0.473515 -1.37976 6.5555e-20)
(-0.0282174 -1.42979 6.39166e-20)
(0.436719 -1.55177 -1.26556e-19)
(0.988928 -1.70416 -6.27585e-20)
(1.62084 -1.83345 0)
(2.32315 -1.86031 1.22602e-19)
(3.05066 -1.67626 0)
(3.7031 -1.22494 1.8273e-19)
(4.21695 -0.566722 1.22167e-19)
(4.50314 0.201372 1.21523e-19)
(4.58591 0.991809 -1.19977e-19)
(4.61312 1.68005 1.76031e-19)
(4.45447 2.08064 0)
(4.10413 1.98225 0)
(3.49633 1.57388 -1.11416e-19)
(2.84623 0.844828 -1.64769e-19)
(2.33267 -0.0993752 0)
(1.71262 -0.372729 5.35211e-20)
(1.10356 0.0931437 0)
(0.537344 0.592605 -1.56972e-19)
(0.0443395 0.820354 8.13024e-24)
(-0.331651 0.846942 -1.11011e-22)
(-0.607316 0.7674 1.01684e-19)
(-0.813405 0.64282 0)
(-0.976308 0.510583 -9.98139e-20)
(-1.11556 0.390557 1.27806e-22)
(-1.24588 0.292231 0)
(-1.37892 0.219146 0)
(-1.52409 0.173745 0)
(-1.68944 0.159999 9.56495e-20)
(-1.88062 0.184606 0)
(-2.10289 0.255933 0)
(-2.36242 0.38204 0)
(-2.66437 0.562616 0)
(-3.01196 0.787354 0)
(-3.40432 1.03456 9.25359e-20)
(-3.83808 1.27387 0)
(-4.31136 1.47792 9.26168e-20)
(-4.82702 1.63171 9.28843e-20)
(-5.38759 1.73032 -9.34913e-20)
(-5.99136 1.77713 0)
(-6.6302 1.77673 -9.57872e-20)
(-7.28941 1.73448 0)
(-7.9502 1.65743 -9.92415e-20)
(-8.59392 1.55347 1.01185e-19)
(-9.20441 1.42788 3.11634e-19)
(-9.76815 1.28348 0)
(-10.2738 1.12236 3.21735e-19)
(-10.711 0.947213 1.10061e-19)
(-11.0704 0.761392 0)
(-11.3447 0.568953 2.18674e-19)
(-11.5297 0.373128 2.17183e-19)
(-11.6233 0.176031 -3.20158e-19)
(-11.6251 -0.0199986 0)
(-11.5339 -0.21608 -1.00832e-19)
(-11.348 -0.411962 -9.72519e-20)
(-11.064 -0.607706 -2.81115e-19)
(-10.6787 -0.802241 0)
(-10.1906 -0.992276 0)
(-9.60152 -1.17264 0)
(-8.91711 -1.33725 -7.34e-20)
(-8.14712 -1.48044 0)
(-7.30438 -1.59781 0)
(-6.40391 -1.68634 5.58705e-20)
(-5.46219 -1.7442 5.11801e-20)
(-4.49645 -1.77061 0)
(-3.52358 -1.76617 0)
(-2.55812 -1.73263 8.07548e-20)
(-1.61245 -1.67059 0)
(-0.696213 -1.58113 -7.20939e-20)
(0.170469 -1.47994 -6.98327e-20)
(0.975279 -1.35453 0)
(1.72228 -1.21465 0)
(2.40113 -1.06461 6.6006e-20)
(3.0065 -0.910489 -2.36774e-22)
(3.53537 -0.758178 -2.06322e-22)
(3.98799 -0.612399 0)
(4.36829 -0.476312 1.35017e-19)
(4.682 -0.351718 0)
(4.93351 -0.240333 0)
(5.12343 -0.144143 0)
(5.25092 -0.0623103 -6.95982e-20)
(5.31661 0.00731371 0)
(5.32674 0.0647303 1.39784e-19)
(5.30016 0.113505 6.94267e-20)
(5.26346 0.155627 0)
(5.23477 0.181433 6.84571e-20)
(5.21641 0.17673 0)
(5.20497 0.144604 0)
(5.20116 0.11238 1.98066e-19)
(5.20919 0.110936 -1.29815e-19)
(5.22442 0.147958 0)
(5.22091 0.197727 -1.24682e-19)
(5.16028 0.225566 6.09266e-20)
(5.01794 0.219505 0)
(4.80727 0.191259 0)
(4.57375 0.157589 0)
(4.35961 0.12588 1.65977e-19)
(4.18476 0.0969272 0)
(4.05195 0.0695738 5.24152e-20)
(3.95614 0.0426155 0)
(3.88985 0.0194223 0)
(3.85016 0.00530166 0)
(3.83022 -0.00338127 0)
(3.81197 -0.00933525 0)
(3.78985 -0.0125573 0)
(3.77732 -0.021457 8.34182e-20)
(3.78172 -0.0372032 0)
(3.80175 -0.0373474 3.86264e-20)
(3.82391 -0.0124347 -1.11256e-19)
(3.84101 0.0283725 0)
(3.7933 0.0811807 0)
(3.66917 0.155286 6.49303e-20)
(3.44453 0.199311 6.1907e-20)
(3.2695 0.194336 -5.90509e-20)
(3.08457 0.124715 -5.58353e-20)
(0.0385294 0.245044 -1.89835e-19)
(0.618605 -1.05307 -1.88081e-19)
(1.14716 -1.63224 -1.24603e-19)
(1.58042 -1.67656 -6.24207e-20)
(1.92347 -1.4341 0)
(2.19246 -1.03029 1.22536e-19)
(2.38714 -0.530122 -6.16474e-20)
(2.51047 -0.00660357 0)
(2.5701 0.46546 -5.94421e-20)
(2.55047 0.89128 0)
(2.44566 1.23974 1.1809e-19)
(2.27692 1.45348 0)
(1.97527 1.57124 5.75228e-20)
(1.58209 1.48462 1.14208e-19)
(1.05383 1.25074 -1.13401e-19)
(0.44012 1.1544 0)
(0.0399972 1.14632 -1.11861e-19)
(-0.195515 1.09077 0)
(-0.510569 1.19963 0)
(-0.861551 1.43752 -1.09027e-19)
(-1.16375 1.64463 0)
(-1.43731 1.85565 -3.49268e-22)
(-1.66223 1.98722 0)
(-1.84408 1.90618 0)
(-2.02 1.6634 2.64891e-22)
(-2.24771 1.47868 -1.05085e-19)
(-2.58501 1.48492 -1.04765e-19)
(-3.01592 1.5916 -1.03893e-19)
(-3.45876 1.68103 0)
(-3.8468 1.72692 -2.06379e-19)
(-4.17064 1.70344 0)
(-4.45066 1.61294 -1.02863e-19)
(-4.70766 1.51567 0)
(-4.95233 1.42785 0)
(-5.18955 1.32848 1.02125e-19)
(-5.42519 1.22376 0)
(-5.65826 1.11827 -1.01571e-19)
(-5.88197 1.0016 8.48496e-22)
(-6.0906 0.87072 2.00761e-19)
(-6.27676 0.725777 -2.00707e-19)
(-6.43226 0.565148 0)
(-6.55192 0.391166 0)
(-6.63261 0.207907 -9.93315e-20)
(-6.67246 0.0183217 0)
(-6.66941 -0.172152 -9.5167e-20)
(-6.62246 -0.362633 9.39237e-20)
(-6.5324 -0.550499 9.25666e-20)
(-6.40028 -0.733348 0)
(-6.2278 -0.909335 -8.95469e-20)
(-6.01703 -1.07688 -8.7909e-20)
(-5.77051 -1.23473 1.74088e-19)
(-5.49128 -1.38179 -8.44579e-20)
(-5.18305 -1.51734 -8.2683e-20)
(-4.84995 -1.64103 0)
(-4.49683 -1.75314 0)
(-4.13044 -1.85505 7.74041e-20)
(-3.75938 -1.94919 0)
(-3.39089 -2.0371 0)
(-3.03109 -2.11801 -1.45104e-19)
(-2.68932 -2.18622 -1.42192e-19)
(-2.35999 -2.21296 0)
(-1.99552 -2.13389 0)
(-1.5611 -1.94139 0)
(-1.10396 -1.81535 0)
(-0.73119 -1.9178 -1.30289e-19)
(-0.317175 -2.00313 1.29212e-19)
(0.112251 -2.20356 1.26488e-19)
(0.623665 -2.48171 2.50529e-19)
(1.2181 -2.72138 0)
(1.89381 -2.81952 1.27121e-21)
(2.6322 -2.60581 0)
(3.31273 -2.00726 -1.22219e-19)
(3.85628 -1.09263 2.1138e-21)
(4.20983 -0.050389 -1.21606e-19)
(4.28455 0.902832 1.20044e-19)
(4.1648 1.7301 1.56042e-21)
(3.99271 2.26564 0)
(3.79929 2.32188 1.13996e-19)
(3.37224 2.13299 1.11342e-19)
(2.822 1.48891 2.19023e-19)
(2.21842 0.616096 0)
(1.4489 0.459154 -1.06569e-19)
(0.6862 0.861357 0)
(0.11061 1.16157 2.09241e-19)
(-0.266307 1.20602 -1.03604e-19)
(-0.498709 1.10376 1.02609e-19)
(-0.645497 0.940065 -1.0166e-19)
(-0.748948 0.767893 -2.01851e-19)
(-0.836948 0.615414 9.98244e-20)
(-0.926618 0.49481 -9.89231e-20)
(-1.02887 0.408905 0)
(-1.15152 0.357301 1.943e-19)
(-1.30047 0.339343 0)
(-1.48019 0.355926 1.90816e-19)
(-1.69295 0.411544 -1.8924e-19)
(-1.93865 0.512026 -1.87817e-19)
(-2.21614 0.663394 1.86586e-19)
(-2.52376 0.86628 1.85591e-19)
(-2.86011 1.11195 0)