/*--------------------------------*- C++ -*----------------------------------*\
  =========                 |
  \\      /  F ield         | OpenFOAM: The Open Source CFD Toolbox
   \\    /   O peration     | Website:  https://openfoam.org
    \\  /    A nd           | Version:  9
     \\/     M anipulation  |
\*---------------------------------------------------------------------------*/
FoamFile
{
    format      ascii;
    class       volScalarField;
    location    "0.26";
    object      k;
}
// * * * * * * * * * * * * * * * * * * * * * * * * * * * * * * * * * * * * * //

dimensions      [0 2 -2 0 0 0 0];

internalField   nonuniform List<scalar> 
12225
(
0.283119
0.213708
0.16578
0.133383
0.112491
0.100271
0.0946161
0.093856
0.0966111
0.101722
0.108222
0.115321
0.122407
0.129031
0.134901
0.139859
0.143888
0.148263
0.349229
0.324732
0.310497
0.308343
0.318088
0.338648
0.368228
0.404464
0.444727
0.486456
0.527416
0.565855
0.600559
0.630838
0.656499
0.677775
0.695621
0.709481
0.36197
0.34814
0.336005
0.326227
0.319281
0.315303
0.314139
0.315415
0.318594
0.323056
0.328181
0.333426
0.338367
0.342735
0.346446
0.349679
0.353053
0.357673
0.365611
0.355065
0.344838
0.335401
0.327064
0.319968
0.314088
0.309283
0.305346
0.302042
0.299142
0.296453
0.293827
0.291164
0.288421
0.285616
0.282866
0.280446
0.366989
0.358274
0.349621
0.34128
0.333426
0.32617
0.31955
0.313546
0.308097
0.303119
0.298523
0.294224
0.290148
0.28624
0.282459
0.278786
0.275233
0.271889
0.36752
0.35975
0.352124
0.344718
0.337612
0.330868
0.324523
0.318585
0.313042
0.307865
0.30302
0.298467
0.294169
0.290094
0.286214
0.28251
0.278979
0.275665
0.367714
0.360384
0.353338
0.34656
0.340059
0.333853
0.327955
0.322369
0.317091
0.312111
0.307413
0.302978
0.298785
0.294817
0.291054
0.287485
0.284104
0.280945
0.367778
0.36063
0.353872
0.347454
0.341349
0.335541
0.330022
0.324782
0.319813
0.315106
0.310647
0.306426
0.302429
0.298642
0.295053
0.291654
0.288439
0.285438
0.367797
0.360715
0.35408
0.347839
0.341951
0.336387
0.331123
0.326138
0.321418
0.316946
0.312709
0.308696
0.304893
0.30129
0.297875
0.294641
0.291582
0.288724
0.367801
0.36074
0.354149
0.347982
0.342196
0.336758
0.331636
0.326807
0.322247
0.317939
0.313864
0.31001
0.306361
0.302906
0.299634
0.296537
0.293606
0.290865
0.367801
0.360744
0.354167
0.348025
0.342279
0.336895
0.331841
0.32709
0.322617
0.318403
0.314426
0.310672
0.307124
0.30377
0.300598
0.297597
0.294759
0.292104
0.3678
0.360744
0.354168
0.348032
0.342298
0.336931
0.331901
0.32718
0.322743
0.318569
0.314638
0.310932
0.307436
0.304134
0.301015
0.298067
0.295282
0.292677
0.3678
0.360742
0.354166
0.348031
0.342299
0.336936
0.331914
0.327204
0.322783
0.318626
0.314716
0.311033
0.307562
0.304288
0.301198
0.298279
0.295523
0.292948
0.367799
0.36074
0.354163
0.348026
0.342293
0.33693
0.331908
0.327201
0.322783
0.318632
0.314728
0.311054
0.307594
0.304331
0.301254
0.298349
0.295608
0.293048
0.367798
0.360739
0.35416
0.34802
0.342285
0.33692
0.331896
0.327187
0.322767
0.318615
0.314712
0.311038
0.307579
0.304318
0.301243
0.298341
0.295604
0.293049
0.367798
0.360738
0.354157
0.348016
0.342278
0.33691
0.331884
0.327171
0.322748
0.318593
0.314686
0.31101
0.307548
0.304284
0.301207
0.298304
0.295565
0.293009
0.367798
0.360737
0.354155
0.348013
0.342272
0.336902
0.331872
0.327156
0.32273
0.318571
0.31466
0.31098
0.307513
0.304246
0.301164
0.298257
0.295514
0.292954
0.367798
0.360737
0.354154
0.34801
0.342268
0.336896
0.331863
0.327144
0.322714
0.318551
0.314636
0.310951
0.307479
0.304207
0.30112
0.298206
0.295457
0.292891
0.367798
0.360737
0.354154
0.348009
0.342266
0.336892
0.331857
0.327135
0.322701
0.318534
0.314614
0.310924
0.307447
0.304168
0.301074
0.298153
0.295395
0.292821
0.367798
0.360737
0.354155
0.34801
0.342267
0.336892
0.331855
0.327131
0.322695
0.318525
0.314601
0.310907
0.307424
0.304139
0.301039
0.29811
0.295345
0.292762
0.367798
0.360738
0.354156
0.348012
0.342269
0.336893
0.331856
0.32713
0.322692
0.318519
0.314592
0.310892
0.307404
0.304112
0.301004
0.298067
0.295292
0.292698
0.367799
0.360739
0.354158
0.348014
0.34227
0.336892
0.331851
0.32712
0.322674
0.318492
0.314552
0.310838
0.307333
0.304023
0.300893
0.297932
0.295132
0.292511
0.367799
0.360739
0.354155
0.348006
0.342251
0.336857
0.331794
0.327033
0.322551
0.318326
0.314338
0.310571
0.307007
0.303634
0.300438
0.297408
0.294536
0.291842
0.367797
0.360727
0.354121
0.347931
0.342117
0.336643
0.331482
0.326608
0.321999
0.317636
0.313503
0.309586
0.30587
0.302344
0.298996
0.295816
0.292797
0.289961
0.367779
0.360646
0.353922
0.347557
0.341518
0.335782
0.330332
0.325156
0.320242
0.315579
0.311158
0.306967
0.302997
0.299236
0.295675
0.292302
0.289109
0.286116
0.367671
0.360254
0.353101
0.346206
0.339584
0.333254
0.327232
0.321529
0.316149
0.311088
0.306342
0.301898
0.297743
0.293863
0.29024
0.286857
0.2837
0.280778
0.367179
0.358809
0.350509
0.342441
0.334742
0.327512
0.320808
0.314654
0.309053
0.303996
0.299459
0.295416
0.291831
0.288669
0.285892
0.283465
0.281354
0.279543
0.365299
0.354411
0.343758
0.33382
0.324932
0.317257
0.310829
0.305629
0.301619
0.298745
0.296942
0.296137
0.296255
0.297218
0.29895
0.301382
0.304453
0.308101
0.357575
0.338106
0.321609
0.309494
0.302043
0.299149
0.300577
0.306026
0.315158
0.327618
0.343045
0.361076
0.381355
0.403543
0.427324
0.452407
0.47856
0.505431
0.314724
0.264029
0.224427
0.193309
0.168868
0.149791
0.135096
0.12403
0.115999
0.110526
0.107223
0.105767
0.105888
0.107357
0.109979
0.113588
0.118044
0.123212
0.0779842
0.149091
0.166962
0.16896
0.164706
0.15706
0.145055
0.135864
0.129354
0.126232
0.126943
0.131036
0.136449
0.138438
0.136126
0.161383
0.281327
0.426806
0.567721
0.699002
0.815503
0.914487
0.994946
1.05706
1.10181
1.13067
1.14537
1.14782
1.13992
1.12351
1.10031
1.07188
1.03957
1.00618
0.972156
0.937735
0.903102
0.868409
0.833773
0.799291
0.765038
0.731073
0.697445
0.664192
0.631349
0.598952
0.56705
0.535709
0.505023
0.475123
0.446184
0.418438
0.392212
0.368016
0.34678
0.330434
0.323325
0.329092
0.340294
0.353954
0.3695
0.386652
0.405043
0.424031
0.442382
0.458048
0.467955
0.468395
0.45677
0.432664
0.39443
0.344048
0.286742
0.228881
0.173265
0.12849
0.0964321
0.077723
0.0707355
0.073538
0.0840084
0.101197
0.128985
0.164708
0.193721
0.217681
0.23543
0.247749
0.261316
0.295652
0.396364
0.594544
0.7769
0.928639
1.04403
1.1236
1.17046
1.18878
1.18306
1.15778
1.11717
1.06508
1.00472
0.941499
0.877906
0.814958
0.753498
0.694173
0.637441
0.583587
0.532751
0.484961
0.440179
0.398366
0.359564
0.324048
0.292934
0.271054
0.275685
0.298774
0.326368
0.357826
0.393347
0.433179
0.477456
0.526114
0.578817
0.63492
0.693323
0.752611
0.811899
0.865727
0.897171
0.899123
0.866054
0.795547
0.690193
0.559115
0.417679
0.284624
0.180521
0.106536
0.0655134
0.0508231
0.0508769
0.0589326
0.0670183
0.0710951
0.0720614
0.0708988
0.0681999
0.0642982
0.0594361
0.0538769
0.047933
0.0419541
0.0363212
0.031479
0.0279926
0.0265432
0.027843
0.0322064
0.0392187
0.0476707
0.0566097
0.0672409
0.0753299
0.0775229
0.0806164
0.0845432
0.088484
0.0922465
0.0958804
0.0995405
0.102289
0.103453
0.102453
0.098795
0.092754
0.0866043
0.181445
0.269461
0.282421
0.266814
0.242268
0.218383
0.202349
0.198795
0.211294
0.242261
0.290165
0.350922
0.411649
0.450521
0.480882
0.511628
0.550076
0.58833
0.621632
0.648849
0.670024
0.685938
0.697693
0.706458
0.713321
0.719228
0.724956
0.731134
0.738269
0.746781
0.757023
0.769251
0.783744
0.798976
0.814365
0.829566
0.844234
0.858061
0.870781
0.882157
0.891977
0.900036
0.906125
0.910021
0.911494
0.910323
0.906319
0.899364
0.889441
0.876665
0.861292
0.843717
0.824448
0.804071
0.783231
0.762607
0.742812
0.725819
0.711061
0.697707
0.68546
0.674013
0.663024
0.652232
0.641581
0.631163
0.620573
0.607318
0.585526
0.551785
0.51201
0.474894
0.442578
0.412821
0.379241
0.336243
0.282066
0.22395
0.173109
0.137284
0.118717
0.112107
0.110032
0.109967
0.114889
0.134825
0.183045
0.254281
0.319624
0.361733
0.399912
0.438081
0.461878
0.4735
0.476951
0.476053
0.473602
0.471365
0.470381
0.471318
0.474746
0.481228
0.491431
0.503076
0.51492
0.526952
0.539083
0.551143
0.562877
0.573926
0.583815
0.591955
0.597684
0.600347
0.599412
0.594543
0.585478
0.572298
0.558643
0.543932
0.527783
0.51063
0.49277
0.474426
0.455781
0.436972
0.418087
0.399181
0.380238
0.36115
0.341876
0.323089
0.31118
0.304255
0.299864
0.295181
0.287455
0.275113
0.258783
0.24188
0.230211
0.223811
0.223445
0.229041
0.238785
0.247851
0.253617
0.256277
0.25589
0.252466
0.245916
0.236141
0.223152
0.207144
0.188531
0.16796
0.146333
0.124845
0.104952
0.0883257
0.0767137
0.0720663
0.0765729
0.091466
0.118218
0.165394
0.209112
0.17383
0.131767
0.116852
0.116048
0.121116
0.128153
0.135283
0.142574
0.148782
0.151865
0.149755
0.14095
0.126381
0.274499
0.359462
0.369335
0.341605
0.314014
0.304934
0.316915
0.345884
0.389283
0.436371
0.474764
0.498305
0.510417
0.518391
0.527992
0.541412
0.5584
0.576609
0.594595
0.611751
0.62783
0.642748
0.656473
0.669009
0.680434
0.690943
0.700862
0.710597
0.720533
0.730928
0.741837
0.753107
0.765652
0.779316
0.793731
0.808552
0.823475
0.838267
0.852771
0.86688
0.880502
0.893509
0.905699
0.916753
0.926239
0.933626
0.938344
0.939852
0.937724
0.931716
0.921818
0.908266
0.891519
0.872199
0.851026
0.828748
0.80625
0.785996
0.767573
0.750842
0.735848
0.722544
0.710751
0.700177
0.690504
0.681507
0.67309
0.664983
0.656032
0.643261
0.621255
0.584831
0.539219
0.493232
0.451434
0.412005
0.369668
0.321728
0.271373
0.225485
0.189238
0.166949
0.155805
0.154717
0.172891
0.216858
0.267873
0.30158
0.316456
0.329879
0.346445
0.363998
0.379965
0.395168
0.409616
0.422561
0.433307
0.441824
0.448749
0.454982
0.461247
0.46785
0.474738
0.482507
0.491044
0.500193
0.50981
0.519745
0.529821
0.539792
0.549286
0.55778
0.564605
0.569049
0.570502
0.568592
0.563075
0.554514
0.544805
0.533385
0.520629
0.506916
0.492492
0.477537
0.462207
0.446638
0.430954
0.41527
0.399684
0.384246
0.368989
0.353455
0.336618
0.317494
0.296561
0.274712
0.25293
0.231992
0.212468
0.195069
0.18076
0.169508
0.160785
0.15374
0.147505
0.141664
0.13638
0.132149
0.129406
0.128301
0.12862
0.129809
0.13108
0.131546
0.130365
0.126864
0.120644
0.111693
0.100505
0.0882639
0.0773116
0.0716424
0.0776539
0.102233
0.152934
0.224774
0.23394
0.162835
0.127613
0.118713
0.117829
0.119524
0.123135
0.128209
0.134544
0.140864
0.145234
0.145443
0.139698
0.128469
0.360525
0.487333
0.476899
0.433979
0.414005
0.415435
0.425657
0.444303
0.464997
0.48179
0.49207
0.497662
0.502666
0.510394
0.522084
0.537322
0.5548
0.572916
0.590384
0.606207
0.619587
0.629942
0.636994
0.640894
0.642258
0.642063
0.64142
0.641324
0.64249
0.645292
0.649795
0.656195
0.664135
0.672971
0.682218
0.69153
0.700731
0.709842
0.719076
0.728788
0.739395
0.751251
0.764524
0.779089
0.794483
0.80992
0.824382
0.836751
0.845951
0.851101
0.851632
0.847346
0.838426
0.825357
0.808821
0.789562
0.769254
0.749869
0.73135
0.714111
0.698547
0.684963
0.673535
0.664266
0.656941
0.651069
0.64586
0.640333
0.633542
0.624719
0.612968
0.596235
0.570709
0.534569
0.492714
0.450726
0.409986
0.368994
0.327502
0.288209
0.254504
0.228726
0.216836
0.224801
0.250118
0.273108
0.283142
0.287185
0.29459
0.308796
0.32854
0.350663
0.372193
0.390744
0.404375
0.41254
0.416191
0.417045
0.41674
0.416394
0.41658
0.417508
0.419299
0.422178
0.42589
0.430218
0.43503
0.440285
0.445997
0.452167
0.458675
0.465191
0.471137
0.475778
0.478403
0.478486
0.475881
0.471494
0.46564
0.45854
0.450523
0.441846
0.432693
0.423214
0.413543
0.403804
0.394112
0.384565
0.375242
0.366198
0.357445
0.348899
0.340118
0.329672
0.31633
0.299438
0.279254
0.256961
0.234058
0.211879
0.191446
0.17328
0.157432
0.143618
0.131433
0.120545
0.110783
0.102128
0.0946537
0.0884619
0.0836261
0.0801401
0.077884
0.0766084
0.0759398
0.0754057
0.0744788
0.0726644
0.0696659
0.0656602
0.061978
0.0628157
0.0764694
0.114316
0.182525
0.247246
0.214704
0.146594
0.122149
0.114494
0.110463
0.10887
0.110003
0.113501
0.118793
0.124934
0.130367
0.132933
0.130372
0.122597
0.452399
0.612955
0.590992
0.532371
0.488041
0.465394
0.458872
0.460135
0.464295
0.469167
0.474704
0.482102
0.492525
0.506222
0.52244
0.53983
0.556848
0.57202
0.584092
0.592108
0.595566
0.59459
0.589972
0.583014
0.575232
0.568043
0.562546
0.559445
0.559062
0.561411
0.566273
0.573243
0.580625
0.58757
0.593352
0.597414
0.599472
0.599628
0.598442
0.596923
0.596412
0.598347
0.603949
0.61392
0.628249
0.64619
0.666412
0.687212
0.70675
0.723287
0.735416
0.742228
0.7434
0.739129
0.729952
0.716666
0.70152
0.685517
0.669254
0.65338
0.638485
0.625077
0.613542
0.604089
0.596719
0.591189
0.58698
0.583259
0.578935
0.573002
0.565069
0.55515
0.542288
0.523614
0.495628
0.461436
0.425891
0.392171
0.361408
0.334163
0.311396
0.295217
0.2896
0.291717
0.287606
0.27467
0.267588
0.270722
0.283657
0.304417
0.329098
0.353115
0.372427
0.384529
0.389134
0.387897
0.383246
0.377358
0.371739
0.367256
0.364292
0.362908
0.363043
0.36409
0.365602
0.367252
0.368894
0.370592
0.372587
0.375194
0.378636
0.382869
0.38747
0.391709
0.394758
0.395939
0.395247
0.393038
0.389587
0.385192
0.380099
0.3745
0.36856
0.362439
0.356297
0.350287
0.344547
0.339194
0.334319
0.329972
0.326145
0.322736
0.319466
0.315575
0.310066
0.301954
0.290364
0.275069
0.25682
0.237049
0.217212
0.198323
0.18089
0.165042
0.150661
0.137527
0.125428
0.114236
0.103921
0.0945247
0.086126
0.0788058
0.0726167
0.0675601
0.0635718
0.0605137
0.0581746
0.0562903
0.0546283
0.0532089
0.0530369
0.058168
0.0783235
0.126718
0.201218
0.246116
0.192329
0.134963
0.116957
0.108373
0.102221
0.0990605
0.0987801
0.100982
0.105101
0.110658
0.116551
0.120836
0.120864
0.116073
0.530499
0.737151
0.696363
0.599833
0.527048
0.486707
0.466986
0.458882
0.457871
0.461879
0.469987
0.481623
0.496031
0.512069
0.528291
0.543122
0.555042
0.562792
0.565625
0.563514
0.55721
0.548087
0.537844
0.528169
0.52046
0.515681
0.514324
0.516457
0.521801
0.529816
0.539783
0.550838
0.561788
0.571551
0.578905
0.582592
0.581521
0.575045
0.563277
0.547342
0.529445
0.512621
0.500115
0.494558
0.497293
0.508162
0.52583
0.548204
0.572775
0.596922
0.618236
0.634805
0.64551
0.650009
0.648548
0.64227
0.63294
0.621511
0.608772
0.595425
0.582125
0.569473
0.557963
0.547912
0.539409
0.53232
0.526352
0.52112
0.516152
0.510929
0.505107
0.498736
0.491773
0.482745
0.468485
0.447033
0.421654
0.397391
0.377414
0.36162
0.348475
0.338787
0.332095
0.316234
0.284601
0.257953
0.252913
0.262316
0.282047
0.307464
0.333049
0.353563
0.365662
0.36887
0.365093
0.357201
0.347846
0.338959
0.331714
0.32667
0.32391
0.323173
0.323971
0.325197
0.326216
0.326573
0.326077
0.324872
0.323431
0.322432
0.322509
0.323991
0.326672
0.32987
0.332655
0.33419
0.334361
0.333292
0.331196
0.328287
0.324738
0.320704
0.31635
0.311863
0.307439
0.30327
0.299529
0.296364
0.293897
0.292204
0.291301
0.291104
0.291376
0.291563
0.290944
0.288744
0.284123
0.276401
0.265375
0.251517
0.235839
0.219492
0.203386
0.188032
0.173578
0.159947
0.146994
0.134626
0.122832
0.111674
0.101251
0.0916714
0.0830294
0.0753946
0.0688027
0.0632509
0.0586966
0.0550676
0.0523218
0.0506465
0.0511707
0.0580637
0.0815279
0.134911
0.208586
0.235385
0.17667
0.127681
0.112471
0.102812
0.0959053
0.0922042
0.0909954
0.0919337
0.0947357
0.0993406
0.105075
0.110286
0.112279
0.109998
0.569836
0.799375
0.743078
0.632665
0.547689
0.497957
0.472533
0.462142
0.461541
0.467681
0.478473
0.492185
0.50716
0.521693
0.534061
0.542697
0.546475
0.544987
0.538663
0.528676
0.516681
0.504484
0.493744
0.485761
0.481363
0.480909
0.484352
0.491333
0.501279
0.513469
0.527088
0.542827
0.559994
0.577442
0.593561
0.606296
0.613274
0.612111
0.600924
0.57906
0.547893
0.511287
0.475146
0.445763
0.427667
0.422349
0.428859
0.444917
0.467588
0.493594
0.519651
0.542754
0.560713
0.572414
0.577722
0.577791
0.574041
0.567393
0.558607
0.548353
0.537258
0.525919
0.514859
0.504443
0.494802
0.485837
0.477357
0.469275
0.461711
0.45488
0.448926
0.443926
0.439866
0.436091
0.430425
0.419768
0.404916
0.389988
0.378915
0.371813
0.365931
0.359832
0.346786
0.312966
0.267133
0.242305
0.243742
0.259825
0.284433
0.311308
0.334186
0.348544
0.353075
0.349402
0.340556
0.329589
0.318869
0.309935
0.303586
0.300022
0.298976
0.299858
0.301832
0.303675
0.304621
0.304093
0.301817
0.29795
0.293142
0.288431
0.284876
0.28323
0.283518
0.285163
0.287039
0.288357
0.288809
0.288338
0.287029
0.284986
0.28231
0.279126
0.275604
0.271953
0.268388
0.265111
0.262302
0.260119
0.258714
0.25822
0.258732
0.260255
0.262623
0.265378
0.267899
0.269485
0.269397
0.266991
0.26186
0.253961
0.243649
0.231573
0.21847
0.204957
0.191428
0.178053
0.164887
0.151968
0.139378
0.127241
0.1157
0.10489
0.0949223
0.0858756
0.0777963
0.0707031
0.064595
0.0594702
0.0553929
0.0527076
0.0527364
0.0597765
0.0840799
0.138422
0.207526
0.22259
0.166754
0.124832
0.108899
0.0986403
0.0917944
0.0879921
0.0860781
0.085856
0.0873403
0.090794
0.0959046
0.101346
0.104523
0.104239
0.554674
0.790371
0.746018
0.639956
0.554092
0.50322
0.478363
0.470077
0.472333
0.481228
0.493889
0.507919
0.521136
0.531528
0.537427
0.537803
0.532473
0.522115
0.508069
0.492048
0.475838
0.461044
0.448914
0.440244
0.435385
0.43433
0.436858
0.442672
0.451505
0.463137
0.477747
0.496577
0.519274
0.545039
0.572473
0.599465
0.623138
0.639895
0.645623
0.636303
0.609376
0.565818
0.511833
0.457956
0.414768
0.387808
0.377444
0.38138
0.396407
0.418874
0.444963
0.470865
0.493137
0.509749
0.520207
0.525622
0.526818
0.524585
0.519638
0.5126
0.504034
0.49447
0.484388
0.474137
0.463831
0.453334
0.44245
0.431248
0.420312
0.410602
0.402984
0.397843
0.395066
0.394112
0.393535
0.390487
0.383974
0.376287
0.371238
0.369654
0.368574
0.363559
0.34275
0.29739
0.249428
0.230429
0.238592
0.259996
0.287209
0.313045
0.331558
0.339942
0.33889
0.331213
0.320202
0.308655
0.298535
0.290978
0.286419
0.284732
0.285367
0.287508
0.290183
0.292302
0.293049
0.29175
0.288012
0.281906
0.274133
0.266041
0.25907
0.254388
0.252224
0.252019
0.252701
0.253491
0.253916
0.253774
0.253006
0.251599
0.249582
0.247059
0.244204
0.241226
0.238326
0.235666
0.233376
0.231581
0.230426
0.23009
0.230772
0.232635
0.235698
0.239732
0.244197
0.248382
0.251512
0.25289
0.252027
0.248716
0.243025
0.235241
0.225774
0.215054
0.203444
0.191213
0.178559
0.165668
0.152745
0.140016
0.127708
0.116025
0.105128
0.0951288
0.0860906
0.0780334
0.0709492
0.0648295
0.0597474
0.0561009
0.0553206
0.0617439
0.0853479
0.137833
0.201133
0.210542
0.161179
0.124017
0.107124
0.0961233
0.0894787
0.0857197
0.0832949
0.0821427
0.0824599
0.0847314
0.0889618
0.0938768
0.097677
0.0988549
0.520605
0.747228
0.720376
0.628943
0.550491
0.504121
0.483558
0.479676
0.485951
0.497874
0.511973
0.525302
0.535323
0.540072
0.538429
0.530254
0.516303
0.497966
0.476985
0.455191
0.434281
0.415619
0.400101
0.388119
0.379652
0.374454
0.372288
0.373121
0.377212
0.385088
0.398385
0.417584
0.442775
0.473535
0.508835
0.546934
0.585297
0.62059
0.64847
0.663239
0.658219
0.628078
0.573522
0.505002
0.439885
0.390933
0.361927
0.351187
0.355384
0.370717
0.393052
0.418511
0.441722
0.460959
0.475417
0.485064
0.490349
0.491915
0.490418
0.48644
0.480481
0.472986
0.464349
0.454848
0.444529
0.433153
0.420412
0.406389
0.391991
0.378873
0.368728
0.362478
0.360027
0.360576
0.362994
0.364741
0.363704
0.360596
0.358882
0.360161
0.361567
0.355768
0.328851
0.279085
0.234743
0.221878
0.235383
0.260568
0.288625
0.312201
0.326453
0.330372
0.325964
0.316478
0.305058
0.294134
0.285285
0.279301
0.276326
0.275986
0.277539
0.280061
0.282664
0.284502
0.284787
0.282809
0.278048
0.270435
0.260539
0.249895
0.240287
0.233142
0.228918
0.226932
0.226409
0.226592
0.226926
0.22708
0.226849
0.22611
0.224837
0.223115
0.221115
0.219026
0.216989
0.21508
0.21333
0.211777
0.210513
0.209721
0.209672
0.210683
0.213024
0.21686
0.221881
0.227448
0.23275
0.236958
0.239393
0.239656
0.237628
0.23341
0.227226
0.219344
0.210024
0.199506
0.188019
0.175808
0.163152
0.150354
0.137715
0.12551
0.113965
0.103249
0.0934661
0.0846639
0.0768429
0.0699858
0.0641423
0.0596898
0.058063
0.0635089
0.0854454
0.134278
0.191712
0.199739
0.158189
0.124429
0.106503
0.095335
0.0888804
0.0850155
0.0821874
0.0803036
0.0796589
0.0807867
0.0837335
0.0879493
0.0919228
0.0940164
0.477847
0.690193
0.681904
0.6094
0.542103
0.502444
0.487354
0.48854
0.499227
0.514362
0.529842
0.542202
0.548757
0.547908
0.539266
0.523498
0.501989
0.476529
0.449089
0.421621
0.395823
0.372894
0.353392
0.337271
0.324101
0.313394
0.304964
0.299217
0.29721
0.300481
0.311523
0.330105
0.356304
0.389792
0.429762
0.474715
0.522247
0.569436
0.612998
0.648282
0.668013
0.662411
0.624091
0.556748
0.480075
0.414507
0.3692
0.344438
0.337237
0.344072
0.360368
0.381787
0.404296
0.4249
0.441863
0.454538
0.462996
0.467679
0.469145
0.467932
0.464494
0.459199
0.452346
0.44411
0.434427
0.422907
0.409031
0.392737
0.375088
0.358347
0.345103
0.337019
0.334208
0.335592
0.339686
0.343967
0.345748
0.344865
0.344507
0.346807
0.348927
0.341602
0.311405
0.262283
0.223588
0.215902
0.232552
0.25962
0.287589
0.309245
0.320315
0.321424
0.315329
0.305305
0.29423
0.284208
0.276523
0.271704
0.269679
0.269882
0.271447
0.273471
0.275322
0.276385
0.275947
0.273349
0.267955
0.259605
0.248654
0.236465
0.225576
0.216893
0.21095
0.207541
0.206056
0.205802
0.206192
0.206784
0.207251
0.207373
0.207077
0.206438
0.205615
0.204748
0.203893
0.203008
0.202003
0.200805
0.199427
0.19801
0.196838
0.196317
0.196922
0.199217
0.203283
0.20873
0.21487
0.220819
0.225699
0.228828
0.229823
0.228579
0.22518
0.219798
0.212632
0.20389
0.193793
0.182603
0.170624
0.158193
0.145655
0.133332
0.1215
0.110375
0.100104
0.0907703
0.082395
0.0749665
0.0685134
0.0633656
0.0608948
0.0651476
0.0847867
0.128923
0.180777
0.189914
0.156433
0.125649
0.107047
0.0956888
0.0892078
0.0852242
0.0821997
0.0797961
0.0782941
0.0782944
0.0801171
0.0835164
0.0872984
0.0898724
0.430325
0.633154
0.64248
0.589115
0.533254
0.499821
0.489398
0.495042
0.509936
0.528465
0.54582
0.558003
0.562239
0.557293
0.543367
0.521673
0.493986
0.462383
0.429105
0.396352
0.365934
0.338926
0.315512
0.295133
0.276867
0.259962
0.24443
0.231498
0.223591
0.223815
0.234323
0.253446
0.280787
0.315983
0.358595
0.407633
0.460695
0.51445
0.566183
0.612771
0.648804
0.66414
0.646518
0.591386
0.515202
0.442481
0.386702
0.351202
0.333973
0.331886
0.341433
0.358564
0.379121
0.39962
0.417743
0.432334
0.44309
0.450215
0.454135
0.455329
0.454218
0.451123
0.446256
0.439685
0.431218
0.420284
0.406083
0.388244
0.367766
0.347358
0.330539
0.319931
0.316096
0.317676
0.322486
0.327638
0.330215
0.329839
0.329569
0.331758
0.333512
0.324759
0.293856
0.248207
0.215305
0.211352
0.229594
0.257087
0.284128
0.303943
0.313433
0.313541
0.306966
0.296942
0.286362
0.277094
0.270218
0.266049
0.2643
0.264248
0.265098
0.2661
0.26684
0.266856
0.265546
0.262342
0.256504
0.247806
0.236877
0.224767
0.213159
0.203508
0.196545
0.192264
0.190238
0.189881
0.190607
0.19189
0.193292
0.194513
0.195443
0.196147
0.196758
0.197354
0.197889
0.198201
0.198085
0.197377
0.196019
0.194098
0.191864
0.189728
0.188255
0.18825
0.190217
0.194151
0.199665
0.206016
0.212255
0.217453
0.220899
0.222195
0.221218
0.218028
0.212778
0.205662
0.196908
0.186787
0.175618
0.163755
0.151565
0.1394
0.127566
0.116315
0.105825
0.0962066
0.0875024
0.0797066
0.0728257
0.0671246
0.0638615
0.0667986
0.0837549
0.122693
0.169291
0.180687
0.155001
0.127337
0.108579
0.0969145
0.0901546
0.0859459
0.0827132
0.0799453
0.0778155
0.0769025
0.0777228
0.0803132
0.0837414
0.0864985
0.378467
0.582099
0.608138
0.572819
0.527115
0.497968
0.490053
0.498504
0.51681
0.538873
0.559131
0.572932
0.577203
0.570795
0.554193
0.528895
0.496887
0.460457
0.422142
0.384509
0.349669
0.318787
0.291888
0.268062
0.245961
0.224437
0.203211
0.183464
0.169202
0.170018
0.183242
0.204544
0.233241
0.269072
0.312063
0.362112
0.417472
0.473879
0.528713
0.579292
0.621767
0.647506
0.643788
0.603818
0.537081
0.464611
0.403846
0.361368
0.336866
0.328065
0.332054
0.345161
0.363326
0.382895
0.401231
0.416832
0.429102
0.438022
0.443882
0.447088
0.448036
0.447025
0.444213
0.439575
0.432794
0.423119
0.40944
0.390946
0.368307
0.344419
0.32366
0.30981
0.304183
0.30528
0.309985
0.314903
0.316967
0.316009
0.315062
0.316475
0.317292
0.307547
0.277756
0.236824
0.209036
0.207384
0.225854
0.252703
0.278507
0.297081
0.305996
0.306184
0.300142
0.290771
0.280683
0.271822
0.265336
0.261412
0.259525
0.258816
0.258607
0.258354
0.257849
0.256617
0.254271
0.25036
0.244391
0.236032
0.225456
0.213575
0.201942
0.192045
0.184718
0.180125
0.178032
0.177979
0.179386
0.181647
0.184222
0.18674
0.189061
0.191237
0.193366
0.195452
0.197343
0.198768
0.199448
0.19918
0.197895
0.19566
0.192675
0.189285
0.186013
0.183684
0.183091
0.184644
0.188369
0.193841
0.200237
0.206528
0.211728
0.2151
0.216235
0.215006
0.211479
0.20583
0.1983
0.189177
0.1788
0.16754
0.155781
0.143893
0.132207
0.120998
0.11047
0.100755
0.0919154
0.0839504
0.0768448
0.0707858
0.066866
0.0684818
0.0825874
0.116208
0.157858
0.171763
0.153308
0.129114
0.110786
0.0988281
0.0916302
0.0870728
0.0835807
0.080495
0.0778568
0.0762047
0.0761988
0.0780924
0.0811441
0.0839085
0.333494
0.536124
0.572816
0.559475
0.525995
0.500387
0.492438
0.50077
0.520202
0.544693
0.568172
0.585295
0.59238
0.587883
0.572122
0.546556
0.513187
0.474354
0.432743
0.391211
0.352269
0.317484
0.287196
0.260708
0.236844
0.214654
0.194057
0.176114
0.163521
0.163523
0.174996
0.195351
0.223132
0.257789
0.299206
0.347033
0.399958
0.455315
0.509653
0.559959
0.60285
0.6312
0.633455
0.601545
0.541746
0.4729
0.412363
0.367733
0.339835
0.327297
0.327803
0.338051
0.354185
0.37261
0.390618
0.406562
0.419672
0.429777
0.437051
0.441835
0.444505
0.445361
0.444541
0.441957
0.437191
0.429343
0.417015
0.398888
0.375047
0.34821
0.32338
0.305594
0.297286
0.297147
0.301198
0.30521
0.306067
0.30393
0.301839
0.302034
0.301597
0.291286
0.263653
0.227689
0.204075
0.203514
0.221139
0.246608
0.271109
0.288985
0.298082
0.29908
0.294083
0.285646
0.276238
0.267828
0.261584
0.257571
0.255111
0.25348
0.252054
0.250585
0.248968
0.246732
0.243545
0.239076
0.232912
0.224712
0.214524
0.203101
0.191845
0.182177
0.174974
0.17055
0.168851
0.16952
0.171958
0.175466
0.179399
0.183319
0.187062
0.190668
0.194193
0.197549
0.200465
0.202588
0.203621
0.203425
0.202017
0.199523
0.19613
0.192077
0.187724
0.183696
0.180824
0.179847
0.181218
0.184926
0.19045
0.19685
0.203007
0.207897
0.210787
0.211294
0.209334
0.205025
0.198606
0.19039
0.180739
0.170047
0.158716
0.147134
0.135649
0.124554
0.114075
0.104364
0.0955008
0.0874954
0.0803212
0.0740939
0.0697057
0.0701078
0.081388
0.109833
0.146829
0.162962
0.151013
0.130596
0.113278
0.101216
0.0935472
0.0885335
0.0846951
0.0812715
0.0781753
0.0759213
0.0752859
0.0766619
0.0794032
0.0820837
0.293118
0.516533
0.543165
0.545184
0.527358
0.50746
0.498721
0.5044
0.522
0.546552
0.572153
0.593099
0.605023
0.6056
0.594485
0.572704
0.542012
0.504592
0.463009
0.420103
0.378591
0.340512
0.306878
0.277728
0.252552
0.230864
0.212667
0.198647
0.190456
0.191644
0.201436
0.219191
0.244398
0.276739
0.31593
0.36138
0.411633
0.463978
0.514991
0.561586
0.600308
0.624425
0.623559
0.591067
0.53358
0.468493
0.411031
0.367761
0.339813
0.326452
0.325761
0.334672
0.349544
0.366983
0.384415
0.400227
0.413611
0.424322
0.432469
0.438352
0.442342
0.444752
0.445731
0.445167
0.442582
0.436973
0.426727
0.410036
0.386217
0.357378
0.328722
0.306452
0.294468
0.29221
0.29517
0.298074
0.297592
0.294089
0.290594
0.289243
0.287327
0.276706
0.251636
0.220325
0.199949
0.19955
0.215543
0.23913
0.262302
0.279839
0.289602
0.291884
0.288317
0.281113
0.272599
0.264712
0.258553
0.254157
0.250925
0.24827
0.245826
0.243491
0.24107
0.238122
0.234292
0.229301
0.222841
0.214645
0.204741
0.19378
0.183033
0.173833
0.167075
0.16321
0.162328
0.164116
0.167904
0.172872
0.178263
0.183576
0.188637
0.193475
0.198083
0.202243
0.20555
0.207608
0.208207
0.207387
0.205371
0.202438
0.19882
0.194672
0.190129
0.185428
0.181185
0.178258
0.177417
0.179078
0.183119
0.188865
0.195237
0.201047
0.205278
0.207262
0.206706
0.203622
0.198219
0.190824
0.181828
0.17165
0.160715
0.149427
0.138151
0.127195
0.116799
0.107132
0.0982906
0.0903007
0.0831388
0.076872
0.0721919
0.0715566
0.0801836
0.103756
0.136367
0.154204
0.147968
0.131472
0.115656
0.103788
0.0957446
0.0902445
0.0859848
0.0821551
0.0786048
0.0758753
0.074831
0.0759074
0.0784459
0.080993
0.26303
0.555079
0.547661
0.537535
0.527255
0.515242
0.507837
0.510384
0.523877
0.545774
0.571416
0.595391
0.612879
0.620646
0.617349
0.603204
0.579422
0.5478
0.510549
0.470198
0.429351
0.390295
0.354662
0.323329
0.296596
0.274512
0.257162
0.244846
0.238469
0.240626
0.250436
0.267569
0.291775
0.322824
0.3603
0.403283
0.449938
0.497371
0.542285
0.581692
0.611792
0.625612
0.614155
0.574289
0.515436
0.453782
0.400944
0.361356
0.335979
0.32432
0.324509
0.333524
0.347934
0.364656
0.381398
0.39672
0.409885
0.420654
0.429121
0.435586
0.44043
0.443998
0.446471
0.447748
0.447334
0.444184
0.436569
0.422301
0.399877
0.370398
0.338668
0.311687
0.295016
0.289533
0.290936
0.292901
0.2914
0.286698
0.28173
0.278599
0.275021
0.264158
0.241609
0.214357
0.196393
0.19549
0.209316
0.230652
0.252412
0.269747
0.280416
0.284271
0.282452
0.276804
0.269432
0.262165
0.25606
0.25126
0.247389
0.244022
0.240878
0.237883
0.234811
0.23125
0.22687
0.22141
0.21462
0.206301
0.196517
0.185894
0.175624
0.166978
0.160882
0.15791
0.158241
0.161513
0.166919
0.17348
0.180327
0.186914
0.193074
0.198822
0.204034
0.208307
0.211113
0.212101
0.211281
0.208993
0.20574
0.202004
0.198115
0.194194
0.190174
0.185842
0.181452
0.177697
0.175435
0.175395
0.177879
0.182583
0.188639
0.194848
0.200004
0.203177
0.203844
0.201864
0.197387
0.190737
0.182327
0.172606
0.162025
0.151008
0.139932
0.129119
0.118818
0.109211
0.100407
0.0924487
0.085324
0.0790772
0.0742281
0.0727436
0.078979
0.0980657
0.12652
0.145457
0.144152
0.131555
0.11758
0.106211
0.0979714
0.0920318
0.0873062
0.0830071
0.079025
0.0759834
0.0747855
0.0757946
0.0782364
0.0805999
0.262713
0.658891
0.630213
0.575223
0.543059
0.526168
0.51831
0.518475
0.527292
0.544282
0.567039
0.591642
0.613663
0.62927
0.635989
0.632858
0.620156
0.599002
0.571062
0.538365
0.503129
0.467537
0.433487
0.402432
0.375369
0.352928
0.335521
0.32349
0.317938
0.319429