/*--------------------------------*- C++ -*----------------------------------*\
  =========                 |
  \\      /  F ield         | OpenFOAM: The Open Source CFD Toolbox
   \\    /   O peration     | Website:  https://openfoam.org
    \\  /    A nd           | Version:  9
     \\/     M anipulation  |
\*---------------------------------------------------------------------------*/
FoamFile
{
    format      ascii;
    class       volScalarField;
    location    "0.26";
    object      p;
}
// * * * * * * * * * * * * * * * * * * * * * * * * * * * * * * * * * * * * * //

dimensions      [0 2 -2 0 0 0 0];

internalField   nonuniform List<scalar> 
12225
(
-5.85955
-6.82935
-7.28588
-7.4242
-7.55125
-7.70993
-7.86337
-7.99562
-8.10887
-8.20542
-8.28296
-8.33659
-8.35994
-8.34386
-8.27368
-8.12376
-7.86226
-7.4501
-6.4617
-7.06753
-7.38793
-7.49047
-7.5931
-7.73232
-7.87325
-7.99752
-8.10528
-8.19815
-8.2737
-8.32701
-8.35201
-8.3405
-8.28036
-8.15299
-7.9476
-7.70555
-6.61565
-6.96443
-7.27682
-7.43391
-7.55861
-7.70328
-7.84804
-7.97551
-8.085
-8.17881
-8.25552
-8.31119
-8.34104
-8.33937
-8.29968
-8.21705
-8.11256
-8.07725
-6.73209
-6.99027
-7.30641
-7.48586
-7.60558
-7.73607
-7.87082
-7.99186
-8.09626
-8.18614
-8.2607
-8.31671
-8.35056
-8.35907
-8.34104
-8.30218
-8.27613
-8.33984
-6.84422
-7.04695
-7.32528
-7.49902
-7.61237
-7.73386
-7.86337
-7.98244
-8.08592
-8.17555
-8.25121
-8.31056
-8.3513
-8.37261
-8.37731
-8.37663
-8.40355
-8.51598
-6.94798
-7.10403
-7.33831
-7.50791
-7.62506
-7.74398
-7.86975
-7.98681
-8.08924
-8.17846
-8.25511
-8.31792
-8.36587
-8.40005
-8.42574
-8.45587
-8.51797
-8.65174
-7.04209
-7.16184
-7.3586
-7.52276
-7.64262
-7.75712
-7.87634
-7.9893
-8.08975
-8.17837
-8.25621
-8.3229
-8.37851
-8.4254
-8.46984
-8.52397
-8.60835
-8.74691
-7.12762
-7.22064
-7.38564
-7.53992
-7.65921
-7.76925
-7.8825
-7.99203
-8.09149
-8.18062
-8.26066
-8.33207
-8.39579
-8.45482
-8.51537
-8.58756
-8.68538
-8.82171
-7.20571
-7.27907
-7.41707
-7.55873
-7.67557
-7.78218
-7.89049
-7.99675
-8.09516
-8.18484
-8.26711
-8.34311
-8.41434
-8.48399
-8.55756
-8.64275
-8.7484
-8.88047
-7.27712
-7.33584
-7.45137
-7.5796
-7.69248
-7.79593
-7.89975
-8.00258
-8.09975
-8.19005
-8.27471
-8.35525
-8.43348
-8.51239
-8.59649
-8.69126
-8.80195
-8.93077
-7.34237
-7.3901
-7.48725
-7.60228
-7.70987
-7.80999
-7.90973
-8.00928
-8.10522
-8.19623
-8.2833
-8.36809
-8.45248
-8.53911
-8.63144
-8.73325
-8.84752
-8.97477
-7.39687
-7.43705
-7.52059
-7.62424
-7.72609
-7.82289
-7.91927
-8.01604
-8.11081
-8.20234
-8.2914
-8.37957
-8.4687
-8.56102
-8.65921
-8.76591
-8.88295
-9.0103
-7.44646
-7.48078
-7.55313
-7.64642
-7.74222
-7.8355
-7.92876
-8.02293
-8.11646
-8.20831
-8.29902
-8.39004
-8.48305
-8.57991
-8.68266
-8.79315
-8.91255
-9.04079
-7.49728
-7.52637
-7.58846
-7.67139
-7.76028
-7.84928
-7.9391
-8.03046
-8.12247
-8.21432
-8.30639
-8.39986
-8.49614
-8.59674
-8.70314
-8.81661
-8.93801
-9.06745
-7.54715
-7.5717
-7.6248
-7.6979
-7.77934
-7.86334
-7.94933
-8.03761
-8.12768
-8.21896
-8.31167
-8.40669
-8.50512
-8.6081
-8.71669
-8.83178
-8.95407
-9.08385
-7.59281
-7.61358
-7.6591
-7.72336
-7.79732
-7.87578
-7.95746
-8.04224
-8.1297
-8.21945
-8.31156
-8.40659
-8.50534
-8.60857
-8.71703
-8.83135
-8.95207
-9.07948
-7.62946
-7.64725
-7.6867
-7.74344
-7.81039
-7.88307
-7.95993
-8.04048
-8.1243
-8.21102
-8.30057
-8.39324
-8.48948
-8.58977
-8.69455
-8.80419
-8.91901
-9.03915
-7.64988
-7.66553
-7.70056
-7.75148
-7.8124
-7.87944
-7.951
-8.0264
-8.10513
-8.18675
-8.27105
-8.35806
-8.44797
-8.54098
-8.63724
-8.7369
-8.84003
-8.94658
-7.64319
-7.65752
-7.69001
-7.73732
-7.79382
-7.85579
-7.92168
-7.99083
-8.06263
-8.13651
-8.21211
-8.28927
-8.36798
-8.44822
-8.52998
-8.61319
-8.69773
-8.78348
-7.60282
-7.61774
-7.65135
-7.6993
-7.75488
-7.8141
-7.87575
-7.93947
-8.00467
-8.07065
-8.13693
-8.20334
-8.26977
-8.33616
-8.40242
-8.46845
-8.53409
-8.59925
-7.55032
-7.56725
-7.60487
-7.65672
-7.71402
-7.77254
-7.83189
-7.89216
-7.95264
-8.0125
-8.07135
-8.12913
-8.18581
-8.24132
-8.29557
-8.34852
-8.40007
-8.45026
-7.48685
-7.50769
-7.55299
-7.61203
-7.67268
-7.73131
-7.78948
-7.84782
-7.90507
-7.96009
-8.01261
-8.06277
-8.11067
-8.15627
-8.19956
-8.2406
-8.27932
-8.31577
-7.41498
-7.44236
-7.49997
-7.56958
-7.6344
-7.69312
-7.75048
-7.80756
-7.86247
-7.91393
-7.96191
-8.00665
-8.04817
-8.08644
-8.1215
-8.15352
-8.18266
-8.2093
-7.33579
-7.37383
-7.44926
-7.53144
-7.60039
-7.66027
-7.71841
-7.77471
-7.82658
-7.87342
-7.91594
-7.95455
-7.98924
-8.01998
-8.0469
-8.07023
-8.0901
-8.10666
-7.2491
-7.30484
-7.40578
-7.49862
-7.56711
-7.62825
-7.6909
-7.75072
-7.80345
-7.84926
-7.88959
-7.92496
-7.9553
-7.98065
-8.0013
-8.01766
-8.03012
-8.03947
-7.15367
-7.2359
-7.376
-7.47959
-7.54013
-7.59492
-7.6555
-7.71362
-7.76387
-7.80702
-7.84466
-7.877
-7.90375
-7.92493
-7.94086
-7.95203
-7.95876
-7.96134
-7.0508
-7.16217
-7.34827
-7.47369
-7.54238
-7.60323
-7.66674
-7.72389
-7.77122
-7.81087
-7.84458
-7.87239
-7.89401
-7.90949
-7.9192
-7.92377
-7.92389
-7.92128
-6.94947
-7.10301
-7.28633
-7.39178
-7.4617
-7.53584
-7.60982
-7.67282
-7.72415
-7.76705
-7.80304
-7.83202
-7.85374
-7.86837
-7.8763
-7.87816
-7.87489
-7.86937
-6.8408
-7.21808
-7.42753
-7.47551
-7.51289
-7.57582
-7.64128
-7.69521
-7.73864
-7.77499
-7.80503
-7.82809
-7.84373
-7.85193
-7.85289
-7.84685
-7.83443
-7.81631
-6.24393
-6.95313
-7.30858
-7.39246
-7.44985
-7.53064
-7.60789
-7.66873
-7.7167
-7.75632
-7.78857
-7.81294
-7.82916
-7.83736
-7.83777
-7.83056
-7.81613
-7.79393
-14.5797
-14.5614
-15.0851
-16.1298
-17.2173
-18.0006
-18.4175
-18.5615
-18.5026
-18.3258
-18.1079
-17.9365
-17.8556
-17.81
-17.7404
-17.6457
-17.5362
-17.6651
-18.1499
-19.1025
-20.566
-22.5111
-24.8465
-27.4377
-30.1281
-32.756
-35.1694
-37.2385
-38.8687
-39.9978
-40.576
-40.5411
-39.8152
-38.3632
-36.2985
-33.7147
-30.7022
-27.3477
-23.7344
-19.9409
-16.0405
-12.0995
-8.17704
-4.3253
-0.58948
2.99161
6.38534
9.5652
12.511
15.2089
17.6514
19.8369
21.77
23.4607
24.9241
26.1798
27.2492
28.1478
28.8806
29.4589
29.8915
30.1832
30.3351
30.3448
30.2099
29.9421
29.6018
29.2919
28.9151
28.3334
27.5579
26.6713
25.7787
24.9953
24.3959
23.951
23.5802
23.2645
23.0742
23.0962
23.3904
23.8912
24.3611
24.5823
24.5454
24.4046
24.1108
23.3629
21.8687
19.5075
15.9579
10.9157
4.34235
-3.22277
-11.0897
-18.6641
-25.5174
-31.3761
-36.0828
-39.5607
-41.7711
-42.6937
-42.3171
-40.616
-37.7284
-33.7679
-28.8562
-23.1303
-16.7451
-9.87383
-2.709
4.5392
11.6468
18.3846
24.5342
29.9132
34.3943
37.9194
40.4782
42.0534
42.6677
42.4146
41.4026
39.7563
37.6119
35.1106
32.3935
29.5984
26.8579
24.2931
22.0439
20.2441
18.7673
17.5468
16.5034
15.5159
14.4335
13.1642
11.7377
10.3074
9.12334
8.34083
7.98851
8.09734
8.65575
9.58309
10.7144
11.8588
12.8955
13.7943
14.5644
15.2259
15.7997
16.3043
16.7556
17.1666
17.5482
17.9095
18.2573
18.5925
18.9171
19.2641
19.6685
20.0254
20.1473
19.8833
18.5863
15.1454
9.64423
3.18476
-2.8259
-7.16122
-9.22214
-8.92631
-6.35407
-2.06558
3.14546
8.41531
13.0218
16.5791
-15.8543
-16.3458
-17.3945
-18.5585
-19.4875
-20.0593
-20.2871
-20.1373
-19.6797
-19.0517
-18.4017
-17.839
-17.4782
-17.4405
-17.6687
-17.9166
-18.1367
-18.5935
-19.5169
-21.0322
-23.1473
-25.7702
-28.7404
-31.8622
-34.9343
-37.7711
-40.2148
-42.1374
-43.441
-44.0665
-43.9983
-43.2674
-41.9649
-40.1749
-37.8866
-35.1403
-31.9982
-28.5344
-24.8269
-20.952
-16.9813
-12.9794
-9.00394
-5.10494
-1.32603
2.29515
5.72647
8.94139
11.9193
14.6461
17.114
19.3222
21.2756
22.9847
24.4636
25.7296
26.7999
27.6933
28.4198
28.9928
29.4224
29.7148
29.8737
29.9019
29.8055
29.597
29.2814
28.8235
28.2782
27.699
27.0381
26.2612
25.4789
24.8387
24.3771
24.0289
23.7004
23.3521
23.0604
23.0011
23.2661
23.809
24.3226
24.5226
24.3996
24.1705
23.9286
23.4168
22.0185
19.2583
14.913
8.87448
1.45111
-6.63211
-14.6724
-22.1562
-28.7611
-34.2956
-38.6447
-41.7384
-43.5525
-44.1034
-43.4348
-41.6252
-38.6847
-34.6925
-29.7591
-24.017
-17.6176
-10.7309
-3.54563
3.73022
10.8733
17.6534
23.8503
29.2769
33.8029
37.3768
39.9728
41.5679
42.2075
41.9799
40.9933
39.3722
37.2521
34.7735
32.0768
29.2985
26.5661
23.9991
21.6745
19.6058
17.9104
16.6042
15.5913
14.7286
13.8311
12.7463
11.4569
10.1264
8.98775
8.21982
7.90745
8.0545
8.65252
9.62291
10.7679
11.9028
12.9282
13.8183
14.5824
15.2398
15.8104
16.3125
16.7616
17.1709
17.5511
17.9114
18.2588
18.5934
18.9137
19.2551
19.6645
20.0254
20.118
19.9107
18.6761
14.9069
8.97214
2.16635
-3.85766
-8.04435
-9.90927
-9.46742
-6.84019
-2.50387
2.77376
8.12421
12.8188
16.4477
-17.0699
-17.9955
-19.1007
-20.129
-20.9206
-21.3862
-21.4754
-21.1962
-20.624
-19.9094
-19.2935
-18.9161
-18.7979
-19.0488
-19.7343
-20.8137
-22.2342
-23.9811
-26.0361
-28.3575
-30.8759
-33.5041
-36.149
-38.7192
-41.1277
-43.2912
-45.1293
-46.5647
-47.5201
-47.9196
-47.7074
-46.8723
-45.4234
-43.4064
-40.8725
-37.884
-34.5133
-30.839
-26.9415
-22.898
-18.7798
-14.6494
-10.5612
-6.56124
-2.68963
1.01852
4.53205
7.82392
10.8721
13.6606
16.1808
18.4312
20.4172
22.1497
23.6436
24.9176
25.9919
26.883
27.6062
28.1773
28.6085
28.9084
29.0824
29.1337
29.0654
28.8841
28.5972
28.2043
27.7045
27.0556
26.2527
25.4253
24.716
24.1913
23.8445
23.6035
23.3761
23.1307
22.9489
22.9893
23.3756
23.9574
24.4109
24.4753
24.3366
24.0321
23.5662
22.3557
19.6089
14.931
8.78017
1.74827
-5.65225
-13.0065
-20.0216
-26.4907
-32.2515
-37.1629
-41.0969
-43.9397
-45.6084
-46.0704
-45.3339
-43.4388
-40.4309
-36.3882
-31.4171
-25.646
-19.2216
-12.3075
-5.08616
2.23921
9.44606
16.3004
22.5747
28.0773
32.6853
36.3345
38.9842
40.6274
41.3147
41.1323
40.1889
38.6094
36.5287
34.0867
31.4226
28.6709
25.9558
23.385
21.0462
19.0052
17.3119
15.907
14.7329
13.6946
12.7115
11.7197
10.7008
9.71912
8.89371
8.35457
8.18091
8.39526
8.99328
9.89677
10.9526
12.0174
13.0014
13.8701
14.6234
15.2748
15.8415
16.3405
16.7873
17.1947
17.5735
17.9335
18.2832
18.6226
18.9451
19.2851
19.6995
20.0665
20.1642
19.8945
18.1147
13.6009
7.06
0.359385
-5.33492
-9.26268
-10.9644
-10.4651
-7.77044
-3.34898
2.05059
7.54998
12.4076
16.1662
-15.858
-16.7831
-17.7968
-18.831
-19.7387
-20.4256
-20.8377
-20.942
-20.848
-20.7386
-20.7973
-21.142
-21.8328
-22.9177
-24.3997
-26.2267
-28.3182
-30.599
-33.0099
-35.5079
-38.0592
-40.629
-43.1729
-45.6305
-47.9253
-49.968
-51.6643
-52.9211
-53.6548
-53.7979
-53.3117
-52.1864
-50.4351
-48.0956
-45.2256
-41.8992
-38.2006
-34.219
-30.0422
-25.7519
-21.4199
-17.106
-12.8583
-8.71582
-4.71155
-0.875622
2.76276
6.17553
9.33754
12.2292
14.8385
17.1623
19.2054
20.9792
22.501
23.7942
24.8805
25.7765
26.5014
27.0734
27.5074
27.8151
28.0043
28.079
28.0393
27.8824
27.6023
27.1933
26.6559
25.9968
25.2401
24.4304
23.658
23.0613
22.7289
22.6423
22.7174
22.8763
23.1069
23.4793
24.046
24.6795
25.0376
25.0217
24.5415
23.6069
21.8464
18.5202
13.561
7.50822
0.955873
-5.7218
-12.3475
-18.8181
-25.0282
-30.8396
-36.0893
-40.6099
-44.2451
-46.8614
-48.3622
-48.7035
-47.8747
-45.8938
-42.812
-38.7103
-33.6949
-27.8921
-21.4435
-14.5045
-7.24714
0.133727
7.41771
14.3651
20.7389
26.3452
31.0616
34.8058
37.5283
39.2387
39.9895
39.8673
38.9816
37.4578
35.4306
33.0391
30.421
27.7087
25.0241
22.4758
20.1501
18.101
16.3569
14.9064
13.7022
12.6659
11.7282
10.8477
10.0266
9.31434
8.78552
8.51022
8.52716
8.84549
9.45021
10.282
11.2375
12.2088
13.1206
13.9395
14.6612
15.2942
15.8515
16.3471
16.7941
17.2044
17.5884
17.9558
18.3159
18.6694
19.0101
19.3694
19.8026
20.1905
20.2789
19.6585
16.8305
11.3879
4.75455
-1.67169
-7.10733
-10.853
-12.4368
-11.8554
-9.07928
-4.54498
1.02228
6.72373
11.7973
15.7366
-11.7502
-12.4423
-13.4524
-14.6004
-15.7585
-16.8493
-17.8181
-18.7028
-19.5835
-20.5624
-21.7351
-23.1645
-24.8693
-26.8311
-29.0102
-31.3634
-33.8563
-36.4663
-39.1772
-41.9719
-44.8237
-47.6902
-50.5096
-53.2016
-55.6721
-57.8192
-59.5405
-60.7384
-61.3265
-61.2445
-60.471
-59.0058
-56.869
-54.1081
-50.7948
-47.0194
-42.8841
-38.4943
-33.9515
-29.3459
-24.7512
-20.2225
-15.7972
-11.5004
-7.35101
-3.36918
0.420321
3.98788
7.30266
10.3378
13.0749
15.5065
17.6359
19.4758
21.0477
22.3788
23.4909
24.4033
25.1389
25.7181
26.1584
26.4734
26.6729
26.7617
26.7391
26.599
26.331
25.924
25.373
24.6878
23.9042
23.0872
22.3258
21.7247
21.4021
21.4283
21.7807
22.3683
23.0912
23.9012
24.7651
25.4976
25.825
25.4879
24.2947
21.9978
18.1752
12.9193
6.87779
0.580713
-5.70685
-11.9212
-18.0575
-24.0757
-29.8776
-35.3204
-40.2408
-44.4739
-47.8646
-50.2778
-51.6139
-51.8258
-50.8908
-48.8167
-45.6544
-41.4876
-36.4253
-30.5943
-24.1316
-17.1827
-9.90581
-2.48318
4.86985
11.9088
18.3886
24.1174
28.9538
32.7953
35.6026
37.3897
38.2124
38.1588
37.3398
35.8814
33.9185
31.5889
29.0287
26.3683
23.7278
21.213
18.9078
16.8708
15.135
13.6944
12.5136
11.5322
10.6928
9.9593
9.32934
8.83762
8.53768
8.47421
8.66527
9.10188
9.75393
10.5676
11.4655
12.368
13.219
13.9922
14.6825
15.2954
15.8408
16.3301
16.7749
17.1862
17.5744
17.9494
18.3211
18.6938
19.0636
19.4552
19.9104
20.3148
20.3392
19.0986
15.2049
9.10433
2.48392
-3.82594
-9.12251
-12.7205
-14.1918
-13.5243
-10.6647
-6.00708
-0.244844
5.69121
11.0213
15.1698
-6.5878
-7.20241
-8.19207
-9.46415
-10.9371
-12.5543
-14.2898
-16.1411
-18.1178
-20.2337
-22.4976
-24.9085
-27.4568
-30.1308
-32.9219
-35.8274
-38.85
-41.9916
-45.246
-48.5913
-51.9861
-55.3678
-58.6539
-61.7463
-64.5372
-66.9145
-68.768
-69.9947
-70.505
-70.2403
-69.1896
-67.3506
-64.7507
-61.4545
-57.5568
-53.1759
-48.4433
-43.4939
-38.454
-33.4319
-28.5096
-23.7381
-19.1382
-14.7095
-10.4436
-6.33807
-2.40543
1.32541
4.81531
8.02478
10.9235
13.4954
15.7403
17.6725
19.3195
20.7082
21.8605
22.8027
23.56
24.1547
24.6061
24.9299
25.1371
25.2331
25.2169
25.0803
24.8097
24.3908
23.8171
23.1018
22.2881
21.4511
20.6897
20.1089
19.8218
19.9291
20.4685
21.3832
22.5327
23.7621
24.9148
25.7395
25.9184
25.1272
22.8243
18.9084
13.4541
7.25813
0.905911
-5.33924
-11.4379
-17.4315
-23.336
-29.1068
-34.6476
-39.8293
-44.5056
-48.5224
-51.7281
-53.9832
-55.1824
-55.2773
-54.2363
-52.0635
-48.8118
-44.5703
-39.4548
-33.5959
-27.1287
-20.1886
-12.9176
-5.48079
1.91572
9.02782
15.6109
21.4566
26.4004
30.3363
33.2265
35.0885
35.9817
35.9965
35.2458
33.8569
31.9644
29.7049
27.2121
24.614
22.029
19.562
17.2988
15.3011
13.6034
12.205
11.0816
10.1868
9.47533
8.91487
8.49543
8.23247
8.15611
8.29155
8.64403
9.19528
9.90896
10.7341
11.6089
12.4739
13.2874
14.029
14.6944
15.2882
15.819
16.2974
16.7343
17.1402
17.5255
17.9006
18.2764
18.6612
19.0555
19.4739
19.9378
20.3328
20.2176
18.3054
13.5554
6.98632
0.275962
-6.03105
-11.2302
-14.6967
-16.073
-15.3263
-12.395
-7.62341
-1.66244
4.51686
10.1264
14.4942
-3.0269
-3.57697
-4.58051
-6.01295
-7.83513
-9.9875
-12.4037
-15.0233
-17.7957
-20.6823
-23.658
-26.713
-29.8517
-33.0904
-36.4514
-39.956
-43.6186
-47.4408
-51.4066
-55.479
-59.5991
-63.6855
-67.636
-71.3323
-74.6459
-77.4459
-79.6064
-81.0139
-81.5706
-81.2075
-79.9073
-77.6522
-74.4888
-70.5064
-65.8325
-60.6247
-55.0578
-49.3107
-43.5509
-37.9207
-32.525
-27.4212
-22.6157
-18.0733
-13.7393
-9.56708
-5.53875
-1.67216
1.98666
5.38051
8.46036
11.1957
13.5803
15.6309
17.3736
18.8341
20.0415
21.0263
21.816
22.4349
22.9036
23.2389
23.4528
23.5517
23.5346
23.3926
23.1101
22.6703
22.0655
21.3101
20.453
19.5797
18.8016
18.2341
17.9861
18.163
18.8236
19.937
21.3489
22.8323
24.1311
24.9317
24.8492
23.3922
19.9899
14.7663
8.46679
1.92394
-4.47723
-10.6529
-16.6518
-22.528
-28.2881
-33.8882
-39.2454
-44.2477
-48.7609
-52.6359
-55.7187
-57.8631
-58.9579
-58.9538
-57.8111
-55.5335
-52.1799
-47.8485
-42.6655
-36.7705
-30.3005
-23.3832
-16.1434
-8.72654
-1.3219
5.83575
12.4966
18.4331
23.4624
27.4745
30.432
32.3555
33.308
33.3831
32.6963
31.3759
29.5563
27.3716
24.9525
22.424
19.9032
17.4956
15.2895
13.3504
11.7184
10.3992
9.37572
8.61021
8.06358
7.70448
7.51535
7.49464
7.65064
7.98921
8.50326
9.16954
9.95189
10.8051
11.6796
12.5299
13.3242
14.0467
14.6948
15.2732
15.7905
16.2566
16.6821
17.0773
17.4524
17.8179
18.1853
18.5659
18.9641
19.385
19.8294
20.1773
19.8664
17.3781
11.9564
5.02261
-1.82348
-8.14847
-13.2627
-16.615
-17.9267
-17.1071
-14.1265
-9.2715
-3.12265
3.29592
9.15214
13.745
-2.08318
-2.61718
-3.66387
-5.22805
-7.27332
-9.72388
-12.4866
-15.4717
-18.6073
-21.8484
-25.1787
-28.607
-32.1599
-35.8725
-39.7797
-43.9083
-48.2709
-52.862
-57.655
-62.6
-67.6207
-72.6133
-77.4464
-81.9667
-86.0109
-89.4188
-92.0411
-93.745
-94.4189
-93.9896
-92.4273
-89.7254
-85.9459
-81.1975
-75.6346
-69.4506
-62.8644
-56.1034
-49.3871
-42.9096
-36.822
-31.2127
-26.0926
-21.3967
-17.0118
-12.8245
-8.76184
-4.8117
-1.01746
2.54553
5.80465
8.71157
11.2518
13.4356
15.2838
16.8273
18.1009
19.1383
19.9696
20.6207
21.1131
21.4642
21.6866
21.7872
21.7653
21.6118
21.3098
20.8408
20.1955
19.3895
18.4769
17.5536
16.7446
16.1811
15.9628
16.1963
16.9269
18.119
19.607
21.1301
22.385
23.0094
22.5245
20.3581
16.1444
10.1835
3.56025
-3.03211
-9.37141
-15.4693
-21.3954
-27.1914
-32.8552
-38.3478
-43.5982
-48.5046
-52.9366
-56.7424
-59.762
-61.8408
-62.8615
-62.7772
-61.5382
-59.1513
-55.6834
-51.2443
-45.9743
-40.0263
-33.5446
-26.654
-19.4641
-12.0975
-4.72053
2.44373
9.14519
15.1335
20.2133
24.2702
27.2678
29.2297
30.2229
30.3448
29.7137
28.4589
26.7127
24.6054
22.263
19.8073
17.3541
15.0109
12.8703
11.0043
9.46073
8.25166
7.36674
6.77197
6.42892
6.30212
6.36471
6.60041
6.99956
7.55138
8.23767
9.03099
9.89663
10.7957
11.6886
12.541
13.3294
14.0429
14.6808
15.2486
15.755
16.2098
16.6232
17.0051
17.3654
17.7139
18.0617
18.4206
18.7968
19.187
19.5765
19.837
19.3062
16.3773
10.4593
3.24897
-3.71432
-10.0414
-15.0779
-18.3304
-19.5732
-18.7213
-15.7229
-10.8336
-4.51479
2.0906
8.175
12.9648
-3.46916
-3.96849
-4.97209
-6.51488
-8.56094
-11.0285
-13.8185
-16.8408
-20.0325
-23.3654
-26.8441
-30.4971
-34.3658
-38.4939
-42.9184
-47.664
-52.7392
-58.1332
-63.8121
-69.7126
-75.7354
-81.7409
-87.5517
-92.9639
-97.769
-101.776
-104.82
-106.759
-107.489
-106.961
-105.16
-102.078
-97.7739
-92.3577
-85.9962
-78.9053
-71.3354
-63.55
-55.8094
-48.3586
-41.4121
-35.1224
-29.5387
-24.5912
-20.1165
-15.9239
-11.8677
-7.88725
-4.00739
-0.312486
3.10362
6.1747
8.8683
11.1823
13.1381
14.7697
16.1152
17.2114
18.0907
18.7804
19.3026
19.6748
19.9097
20.0144
19.9887
19.8233
19.5007
19.0004
18.3116
17.4502
16.4748
15.4906
14.6355
14.0531
13.8551
14.1235
14.8784
16.0572
17.4777
18.8712
19.9247
20.2448
19.2984
16.5491
11.8377
5.62414
-1.01422
-7.51464
-13.7529
-19.7775
-25.6489
-31.3928
-37.0033
-42.448
-47.6629
-52.5483
-56.9702
-60.7683
-63.7736
-65.8224
-66.793
-66.6473
-65.3207
-62.8252
-59.2369
-54.678
-49.3045
-43.2853
-36.7785
-29.9112
-22.7819
-15.4892
-8.17273
-1.03689
5.6583
11.6507
16.7357
20.7965
23.7987
25.7699
26.7814
26.9349
26.3512
25.1591
23.4866
21.4575
19.1914
16.8062
14.4175
12.1361
10.0614
8.27371
6.82954
5.7495
5.03174
4.64261
4.53955
4.67852
5.0201
5.53284
6.1914
6.97141
7.84559
8.78277
9.74949
10.7124
11.6407
12.5097
13.3036
14.0165
14.6502
15.2116
15.7098
16.1548
16.5566
16.9247
17.2683
17.5961
17.9173
18.2419
18.5746
18.9052
19.2091
19.3482
18.6025
15.3731
9.15564
1.76773
-5.30136
-11.6187
-16.5774
-19.7417
-20.9162
-20.0638
-17.0777
-12.1598
-5.80218
0.981125
7.24969
12.1946
-5.84804
-6.28397
-7.19993
-8.63661
-10.5611
-12.8979
-15.5578
-18.466
-21.5798
-24.8924
-28.4273
-32.2274
-36.3424
-40.8192
-45.6944
-50.9911
-56.7164
-62.857
-69.371
-76.1762
-83.1391
-90.0717
-96.74
-102.885
-108.258
-112.656
-115.934
-117.983
-118.732
-118.168
-116.256
-112.955
-108.303
-102.407
-95.4423
-87.6425
-79.285
-70.6651
-62.0662
-53.755
-45.9891
-38.9884
-32.8671
-27.5853
-22.9588
-18.7353
-14.6979
-10.7271
-6.81422
-3.03487
0.505127
3.71441
6.5414
8.97379
11.0305
12.7469
14.1638
15.3204
16.2508
16.9833
17.5405
17.9396
18.1931
18.308
18.2841
18.1125
17.7751
17.25
16.5241
15.6123
14.5757
13.5279
12.6198
12.0086
11.8053
12.0811
12.8209
13.9237
15.1896
16.3544
17.1164
17.0765
15.7035
12.5449
7.58792
1.39304
-5.11668
-11.4773
-17.6136
-23.5748
-29.4041
-35.1176
-40.7109
-46.1563
-51.3911
-56.3112
-60.7739
-64.6049
-67.6269
-69.6679
-70.6038
-70.4171
-69.0157
-66.4192
-62.7147
-58.0369
-52.5566
-46.4598
-39.9224
-33.0775
-26.0129
-18.806
-11.5729
-4.50557
2.13506
8.07955
13.119
17.1376
20.1052
22.0543
23.0612
23.2319
22.6887
21.5567
19.9564
18.0021
15.8058
13.4817
11.1468
8.91748
6.90174
5.18976
3.84713
2.90516
2.37225
2.21363
2.38017
2.81645
3.4671
4.28318
5.22329
6.25068
7.33048
8.42887
9.5141
10.5581
11.5377
12.4368
13.2467
13.9665
14.6014
15.1599
15.6522
16.0888
16.4797
16.8342
17.1606
17.4662
17.7578
18.0416
18.318
18.5714
18.7701
18.7682
17.8379
14.4498
8.12382
0.649365
-6.49317
-12.7942
-17.6848
-20.7819
-21.9109
-21.0728
-18.1192
-13.2144
-6.84205
0.0419704
6.42718
11.472
-7.90178
-8.31864
-9.18617
-10.5355
-12.3422
-14.5409
-17.0568
-19.8339
-22.8489
-26.1131
-29.6644
-33.5555
-37.8417
-42.5715
-47.7824
-53.4981
-59.7263
-66.4516
-73.622
-81.1324
-88.8122
-96.425
-103.685
-110.292
-115.975
-120.542
-123.893
-125.974
-126.743
-126.201
-124.274
-120.89
-116.065
-109.894
-102.557
-94.2987
-85.4226
-76.2595
-67.1137
-58.2516
-49.932
-42.4053
-35.843
-30.2526
-25.463
-21.1998
-17.1882
-13.2469
-9.32783
-5.49375
-1.86339
1.45121
4.38194
6.90924
9.04983
10.8398
12.3214
13.5353
14.5165
15.2939
15.8901
16.322
16.6015
16.7354
16.7236
16.5575
16.2191
15.6853
14.9402
13.9961
12.9139
11.8118
10.8516
10.2029
9.97844
10.2357
10.9262
11.9118
12.9783
13.8729
14.3147
13.9219
12.2013
8.78457
3.74771
-2.33588
-8.68171
-14.9081
-20.9539
-26.8555
-32.6467
-38.3428
-43.9442
-49.4229
-54.7104
-59.6925
-64.2221
-68.1005
-71.15
-73.1931
-74.1051
-73.8936
-72.4315
-69.7497
-65.9497
-61.173
-55.6075
-49.452
-42.8892
-36.0639
-29.0656
-21.956
-14.8297
-7.86711
-1.3279
4.5162
9.45772
13.3866
16.2795
18.1751
19.1555
19.3301
18.8196
17.7416
16.2049
14.3122
12.1679
9.88458
7.58364
5.39008
3.42262
1.78192
0.542087
-0.255525
-0.592822
-0.505434
-0.0486004
0.710224
1.69762
2.84463
4.09193
5.38955
6.69524
7.9733
9.19437
10.3357
11.3816
12.3232
13.1588
13.8928
14.5337
15.0925
15.5809
16.0102
16.3908
16.7318
17.0408
17.3237
17.5848
17.8257
18.0413
18.2111
18.2978
18.1526
17.0832
13.6663
7.39553
-0.0746686
-7.24698
-13.5177
-18.3446
-21.3931
-22.5045
-21.6898
-18.7831
-13.9225
-7.57753
-0.671232
5.74985
10.8276
-8.84975
-9.41757
-10.3018
-11.6267
-13.3788
-15.4977
-17.9202
-20.6044
-23.5414
-26.7548
-30.2924
-34.2133
-38.5768
-43.4338
-48.8227
-54.7684
-61.2787
-68.3351
-75.8765
-83.7802
-91.849
-99.8143
-107.359
-114.162
-119.946
-124.529
-127.833
-129.841
-130.56
-130.039
-128.16
-124.819
-120.002
-113.789
-106.357
-97.9625
-88.9285
-79.5993
-70.2834
-61.2477
-52.7338
-44.9864
-38.2078
-32.4526
-27.577
-23.2971
-19.3049
-15.3819
-11.4554
-7.5849
-3.89751
-0.516823
2.48033
5.0707
7.27037
9.11602
10.6505
11.9145
12.9434
13.7656
14.4035
14.8736
15.1873
15.3509
15.3647
15.2206
14.9016
14.3838
13.6491
12.705
11.6087
10.4786
9.48234
8.79843
8.54203
8.75647
9.36709
10.2062
11.0528
11.6693
11.7981
11.0874
9.09722
5.52686
0.491772
-5.45708
-11.6495
-17.7589
-23.7267
-29.5799
-35.3469
-41.0423
-46.6664
-52.1899
-57.5338
-62.5646
-67.1675
-71.0796
-74.1508
-76.2012
-77.1066
-76.8667
-75.3614
-72.6244
-68.7816
-63.952
-58.3314
-52.1341
-45.5615
-38.7705
-31.851
-24.8525
-17.8548
-11.0302
-4.63689
1.05586
5.84835
9.64109
12.4201
14.2317
15.1633
15.3257
14.8337
13.7927
12.2962
10.4347
8.30743
6.02948
3.7315
1.55124
-0.379516
-1.94942
-3.07718
-3.71623
-3.84383
-3.49685
-2.73427
-1.63396
-0.287158
1.21607
2.7965
4.38909
5.94312
7.42077
8.79533
10.0497
11.1754
12.1709
13.0412
13.7958
14.4474
15.0096
15.496
15.919
16.2897
16.6172
16.9085
17.1685
17.399
17.5975
17.7532
17.8414
17.8203
17.5437
16.3846
13.0472
6.97213
-0.39255
-7.54242
-13.766
-18.5366
-21.5521
-22.664
-21.8792
-19.0294
-14.2382
-7.96724
-1.1198
5.24795
10.2837
-8.6146
-9.34793
-10.3681
-11.7547
-13.5223
-15.6245
-18.0073
-20.6375
-23.5144
-26.6688
-30.1538
-34.0326
-38.3674
-43.211
-48.6029
-54.568
-61.113
-68.2176
-75.8177
-83.7871
-91.9242
-99.9556
-107.561
-114.415
-120.24
-124.849
-128.16
-130.176
-130.94
-130.461
-128.61
-125.309
-120.552
-114.415
-107.069
-98.77
-89.8385
-80.6188
-71.4267
-62.5201
-54.1213
-46.4598
-39.7404
-34.034
-29.205
-24.9638
-20.9949
-17.076
-13.1367
-9.24322
-5.53001
-2.12424
0.897454
3.51391
5.74308
7.62238
9.19429
10.4987
11.5696
12.4347
13.1156
13.6283
13.9838
14.1884
14.2426
14.1398
13.8641
13.393
12.7062
11.8063
10.7429
9.6284
8.62915
7.92563
7.6339
7.78427
8.28734
8.95747
9.57579
9.92146
9.75947
8.77131
6.57069
2.90819
-2.08836
-7.90775
-13.9708
-19.9846
-25.8876
-31.6992
-37.4468
-43.1479
-48.8023
-54.3745
-59.7767
-64.8667
-69.4825
-73.4269
-76.5149
-78.575
-79.4982
-79.2097
-77.6716
-74.9218
-71.0541
-66.2061
-60.5713
-54.3729
-47.8267
-41.0988
-34.2797
-27.411
-20.5647
-13.9102
-7.70502
-2.21184
2.38349
5.99642
8.62435
10.3214
11.1791
11.3056
10.8051
9.76569
8.26417
6.3807
4.21392
1.88809
-0.450578
-2.64648
-4.55196
-6.0449
-7.03879
-7.48955
-7.37897
-6.74923
-5.66159
-4.20195
-2.47666
-0.595455
1.34199
3.25381
5.07909
6.77678
8.32249
9.70494
10.9229
11.9826
12.8957
13.6771
14.3438
14.9124
15.3987
15.8166
16.1778
16.4917
16.7651
17.002
17.2022
17.36
17.4599
17.4735
17.3556
16.9682
15.7664
12.5955
6.8411
-0.304945
-7.36738
-13.5278
-18.2507
-21.2447
-22.3664
-21.6162
-18.8304
-14.1324
-7.98708
-1.28252
4.93824
9.85346
-7.62607
-8.31616
-9.53896
-11.0521
-12.8556
-14.9525
-17.3093
-19.8952
-22.7079
-25.7769
-29.155
-32.9062
-37.0935
-41.771
-46.9782
-52.739
-59.0579
-65.9138
-73.2459
-80.938
-88.8062
-96.5998
-104.021
-110.763
-116.551
-121.186
-124.56
-126.645
-127.461
-127.028
-125.207
-121.963
-117.322
-111.381
-104.317
-96.381
-87.8728
-79.114
-70.3955
-61.952
-53.99
-46.7274
-40.3537
-34.9206
-30.2794
-26.1415
-22.209
-18.2873
-14.3339
-10.4345
-6.72998
-3.34269
-0.340186
2.26402
4.49192
6.38157
7.97412
9.3073
10.4131
11.3177
12.0414
12.5997
13.0035
13.2589
13.3674
13.3239
13.1156
12.722
12.1232
11.3166
10.3417
9.29828
8.34211
7.64664
7.326
7.39786
7.77166
8.25743
8.64659
8.73621
8.31164
7.08546
4.7187
1.00033
-3.94365
-9.65054
-15.6109
-21.5522
-27.4048
-33.1809
-38.9082
-44.6061
-50.2724
-55.867
-61.2956
-66.4121
-71.0441
-74.9995
-78.0877
-80.1384
-81.0367
-80.7445
-79.2024
-76.4643
-72.6147
-67.7949
-62.1985
-56.0524
-49.5806
-42.955
-36.266
-29.5517
-22.8828
-16.432
-10.4566
-5.20836
-0.854581
2.53813
4.97956
6.53087
7.28452
7.34095
6.78742
5.6919
4.11521
2.13197
-0.152402
-2.59662
-5.03171
-7.2787
-9.17106
-10.5754
-11.4019
-11.6181
-11.2213
-10.2671
-8.82156
-6.97818
-4.85448
-2.57584
-0.260473
1.99259
4.11071
6.04818
7.78212
9.3069
10.6289
11.7621
12.7252
13.5391
14.2249
14.8029
15.2911
15.705
16.0573
16.358
16.6136
16.8274
16.998
17.1174
17.1668
17.1152
16.9152
16.4414
15.2376
12.3006
6.97449
0.167494
-6.72588
-12.7964
-17.4726
-20.453
-21.5916
-20.8813
-18.1688
-13.5921
-7.63032
-1.15591
4.82343
9.5405
-6.7156
-7.0992
-8.29166
-9.88075
-11.678
-13.7144
-15.9936
-18.4902
-21.1948
-24.1267
-27.3292
-30.8595
-34.7779
-39.1376
-43.978
-49.3213
-55.17
-61.5022
-68.2634
-75.3545
-82.6227
-89.8596
-96.8137
-103.215
-108.811
-113.394
-116.821
-119.012
-119.923
-119.557
-117.824
-114.751
-110.402
-104.886
-98.3773
-91.1083
-83.3499
-75.3825
-67.4553
-59.7734
-52.531
-45.9321
-40.1329
-35.1414
-30.785
-26.7889
-22.8986
-18.9734
-15.0174
-11.142
-7.48938
-4.16796
-1.2288
1.32594
3.52298
5.40029
6.99654
8.34634
9.47887
10.418
11.1828
11.7879
12.2439
12.5573
12.7307
12.7612
12.6393
12.3486
11.8711
11.2009
10.3666
9.45007
8.58694
7.93351
7.59847
7.59058
7.82686
8.12584
8.29586
8.15221
7.49783
6.07261
3.57716
-0.171732
-5.05893
-10.6714
-16.5532
-22.4417
-28.2559
-33.9999
-39.6998
-45.3759
-51.0255
-56.6056
-62.0193
-67.1194
-71.7298
-75.6598
-78.7259
-80.7639
-81.6574
-81.3673
-79.8446
-77.1472
-73.3562
-68.6129
-63.1101
-57.0747
-50.7317
-44.2536
-37.729
-31.1965
-24.7339
-18.5223
-12.8185
-7.8589
-3.78847
-0.65486
1.56371
2.9338
3.54466
3.48267
2.81299
1.58185
-0.16231
-2.34306
-4.83929
-7.48428
-10.0794
-12.4175
-14.3108
-15.6135
-16.2345
-16.1593
-15.4116
-14.0705
-12.2159
-9.9515
-7.40324
-4.70675
-1.99458
0.618822
3.04882
5.24389
7.18172
8.86192
10.2985
11.5136
12.5333
13.3845
14.0934
14.6835
15.1756
15.5869
15.9314
16.2194
16.4577
16.6491
16.7914
16.8752
16.88
16.7731
16.5068
15.9706
14.7967
12.1393
7.32581
0.978351
-5.64565
-11.578
-16.1944
-19.1636
-20.3248
-19.6614
-17.038
-12.6202
-6.90884
-0.754452
4.89239
9.33949
-6.55905
-6.67101
-7.36132
-8.65679
-10.2897
-12.1732
-14.2917
-16.6178
-19.1361
-21.8568
-24.8102
-28.0402
-31.5973
-35.5294
-39.8739
-44.6515
-49.8635
-55.4885
-61.4777
-67.7486
-74.179
-80.6046
-86.8252
-92.6186
-97.7628
-102.057
-105.34
-107.495
-108.453
-108.199
-106.714
-104.039
-100.242
-95.4308
-89.77
-83.4667
-76.752
-69.8541
-62.9754
-56.2998
-50.0167
-44.3047
-39.2559
-34.8092
-30.7694
-26.9
-23.0234
-19.0829
-15.1445
-11.3412
-7.80149
-4.60588
-1.78127
0.683569
2.819
4.66095
6.24384
7.59783
8.74842
9.71676
10.5201
11.172
11.6829
12.0597
12.3059
12.421
12.3993
12.229
11.8955
11.3913
10.7349
9.98895
9.26326
8.68813
8.35977
8.28481
8.38925
8.5093
8.47592
8.12437
7.2741
5.68876
3.10068
-0.654439
-5.47685
-11.001
-16.8137
-22.6572
-28.4369
-34.146
-39.8067
-45.4388
-51.0387
-56.562
-61.9122
-66.9455
-71.4893
-75.3608
-78.3856
-80.4026
-81.2931
-81.0102
-79.5252
-76.8963
-73.2024
-68.5839
-63.2309
-57.3663
-51.2104
-44.9297
-38.6081
-32.288
-26.0616
-20.1257
-14.7371
-10.1133
-6.37307
-3.54438
-1.59499
-0.455775
-0.044858
-0.294802
-1.16572
-2.63229
-4.65328
-7.14228
-9.95366
-12.8874
-15.7094
-18.1806
-20.0897
-21.278
-21.6554
-21.2266
-20.0488
-18.237
-15.898
-13.154
-10.1396
-6.9956
-3.86305
-0.867957
1.89417
4.3655
6.52349
8.37256
9.93437
11.2396
12.3221
13.2155
13.951
14.556
15.054
15.4644
15.8022
16.0786
16.3005
16.4706
16.5863
16.6376
16.6036
16.4511
16.1338
15.5568
14.4345
12.0796
7.83515
2.05951
-4.17791
-9.89782
-14.4215
-17.3707
-18.5568
-17.9513
-15.4444
-11.2374
-5.85333
-0.109413
5.12158
9.2373
-6.85627
-6.88594
-6.99139
-7.63028
-8.89808
-10.5639
-12.4633
-14.5452
-16.8033
-19.2473
-21.898
-24.7866
-27.9505
-31.4274
-35.2476
-39.4284
-43.9696
-48.8503
-54.0263
-59.4267
-64.9515
-70.4706
-75.8271
-80.8452
-85.3441
-89.1526
-92.1242
-94.1463
-95.1507
-95.1026
-93.9882
-91.8456
-88.7425
-84.7839
-80.1143