# vtk DataFile Version 2.0
sampleSurface
ASCII
DATASET POLYDATA
POINTS 502 float
-0.0206 0 -0.0005 -0.0190172 0 -0.0005 -0.0190172 0 0.0005 -0.0206 0
0.0005 -0.0174976 0 -0.0005 -0.0174976 0 0.0005 -0.0160387 0 -0.0005
-0.0160387 0 0.0005 -0.0146381 0 -0.0005 -0.0146381 0 0.0005 -0.0132934
0 -0.0005 -0.0132934 0 0.0005 -0.0120025 0 -0.0005 -0.0120025 0
0.0005 -0.0107632 0 -0.0005 -0.0107632 0 0.0005 -0.00957337 0 -0.0005
-0.00957337 0 0.0005 -0.00843108 0 -0.0005 -0.00843108 0 0.0005 -0.00733443
0 -0.0005 -0.00733443 0 0.0005 -0.0062816 0 -0.0005 -0.0062816 0
0.0005 -0.00527083 0 -0.0005 -0.00527083 0 0.0005 -0.00430044 0 -0.0005
-0.00430044 0 0.0005 -0.00336883 0 -0.0005 -0.00336883 0 0.0005 -0.00247443
0 -0.0005 -0.00247443 0 0.0005 -0.00161577 0 -0.0005 -0.00161577 0
0.0005 -0.000791418 0 -0.0005 -0.000791418 0 0.0005 0 0 -0.0005
0 0 0.0005 0 -0.0254 -0.0005 0 -0.0254 0.0005 0
-0.0242711 0.0005 0 -0.0242711 -0.0005 0 -0.0231422 0.0005 0 -0.0231422
-0.0005 0 -0.0220133 0.0005 0 -0.0220133 -0.0005 0 -0.0208844 0.0005
0 -0.0208844 -0.0005 0 -0.0197556 0.0005 0 -0.0197556 -0.0005 0
-0.0186267 0.0005 0 -0.0186267 -0.0005 0 -0.0174978 0.0005 0 -0.0174978
-0.0005 0 -0.0163689 0.0005 0 -0.0163689 -0.0005 0 -0.01524 0.0005
0 -0.01524 -0.0005 0 -0.0141111 0.0005 0 -0.0141111 -0.0005 0
-0.0129822 0.0005 0 -0.0129822 -0.0005 0 -0.0118533 0.0005 0 -0.0118533
-0.0005 0 -0.0107244 0.0005 0 -0.0107244 -0.0005 0 -0.00959556 0.0005
0 -0.00959556 -0.0005 0 -0.00846667 0.0005 0 -0.00846667 -0.0005 0
-0.00726604 0.0005 0 -0.00726604 -0.0005 0 -0.00618989 0.0005 0 -0.00618989
-0.0005 0 -0.00522531 0.0005 0 -0.00522531 -0.0005 0 -0.00436073 0.0005
0 -0.00436073 -0.0005 0 -0.00358579 0.0005 0 -0.00358579 -0.0005 0
-0.00289118 0.0005 0 -0.00289118 -0.0005 0 -0.0022686 0.0005 0 -0.0022686
-0.0005 0 -0.00171055 0.0005 0 -0.00171055 -0.0005 0 -0.00121037 0.0005
0 -0.00121037 -0.0005 0 -0.000762037 0.0005 0 -0.000762037 -0.0005 0
-0.000360188 0.0005 0 -0.000360188 -0.0005 0.000528387 -0.0254 -0.0005 0.000528387 -0.0254
0.0005 0.00106088 -0.0254 -0.0005 0.00106088 -0.0254 0.0005 0.00159752 -0.0254 -0.0005
0.00159752 -0.0254 0.0005 0.00213833 -0.0254 -0.0005 0.00213833 -0.0254 0.0005 0.00268334
-0.0254 -0.0005 0.00268334 -0.0254 0.0005 0.00323259 -0.0254 -0.0005 0.00323259 -0.0254
0.0005 0.00378611 -0.0254 -0.0005 0.00378611 -0.0254 0.0005 0.00434393 -0.0254 -0.0005
0.00434393 -0.0254 0.0005 0.00490609 -0.0254 -0.0005 0.00490609 -0.0254 0.0005 0.00547262
-0.0254 -0.0005 0.00547262 -0.0254 0.0005 0.00604356 -0.0254 -0.0005 0.00604356 -0.0254
0.0005 0.00661893 -0.0254 -0.0005 0.00661893 -0.0254 0.0005 0.00719878 -0.0254 -0.0005
0.00719878 -0.0254 0.0005 0.00778313 -0.0254 -0.0005 0.00778313 -0.0254 0.0005 0.00837203
-0.0254 -0.0005 0.00837203 -0.0254 0.0005 0.00896551 -0.0254 -0.0005 0.00896551 -0.0254
0.0005 0.0095636 -0.0254 -0.0005 0.0095636 -0.0254 0.0005 0.0101663 -0.0254 -0.0005
0.0101663 -0.0254 0.0005 0.0107738 -0.0254 -0.0005 0.0107738 -0.0254 0.0005 0.0113859
-0.0254 -0.0005 0.0113859 -0.0254 0.0005 0.0120028 -0.0254 -0.0005 0.0120028 -0.0254
0.0005 0.0126245 -0.0254 -0.0005 0.0126245 -0.0254 0.0005 0.0132511 -0.0254 -0.0005
0.0132511 -0.0254 0.0005 0.0138825 -0.0254 -0.0005 0.0138825 -0.0254 0.0005 0.0145188
-0.0254 -0.0005 0.0145188 -0.0254 0.0005 0.0151601 -0.0254 -0.0005 0.0151601 -0.0254
0.0005 0.0158063 -0.0254 -0.0005 0.0158063 -0.0254 0.0005 0.0164576 -0.0254 -0.0005
0.0164576 -0.0254 0.0005 0.0171139 -0.0254 -0.0005 0.0171139 -0.0254 0.0005 0.0177754
-0.0254 -0.0005 0.0177754 -0.0254 0.0005 0.018442 -0.0254 -0.0005 0.018442 -0.0254
0.0005 0.0191137 -0.0254 -0.0005 0.0191137 -0.0254 0.0005 0.0197907 -0.0254 -0.0005
0.0197907 -0.0254 0.0005 0.020473 -0.0254 -0.0005 0.020473 -0.0254 0.0005 0.0211606
-0.0254 -0.0005 0.0211606 -0.0254 0.0005 0.0218535 -0.0254 -0.0005 0.0218535 -0.0254
0.0005 0.0225517 -0.0254 -0.0005 0.0225517 -0.0254 0.0005 0.0232555 -0.0254 -0.0005
0.0232555 -0.0254 0.0005 0.0239647 -0.0254 -0.0005 0.0239647 -0.0254 0.0005 0.0246794
-0.0254 -0.0005 0.0246794 -0.0254 0.0005 0.0253996 -0.0254 -0.0005 0.0253996 -0.0254
0.0005 0.0261255 -0.0254 -0.0005 0.0261255 -0.0254 0.0005 0.026857 -0.0254 -0.0005
0.026857 -0.0254 0.0005 0.0275942 -0.0254 -0.0005 0.0275942 -0.0254 0.0005 0.0283371
-0.0254 -0.0005 0.0283371 -0.0254 0.0005 0.0290858 -0.0254 -0.0005 0.0290858 -0.0254
0.0005 0.0298403 -0.0254 -0.0005 0.0298403 -0.0254 0.0005 0.0306007 -0.0254 -0.0005
0.0306007 -0.0254 0.0005 0.031367 -0.0254 -0.0005 0.031367 -0.0254 0.0005 0.0321393
-0.0254 -0.0005 0.0321393 -0.0254 0.0005 0.0329175 -0.0254 -0.0005 0.0329175 -0.0254
0.0005 0.0337019 -0.0254 -0.0005 0.0337019 -0.0254 0.0005 0.0344923 -0.0254 -0.0005
0.0344923 -0.0254 0.0005 0.0352888 -0.0254 -0.0005 0.0352888 -0.0254 0.0005 0.0360916
-0.0254 -0.0005 0.0360916 -0.0254 0.0005 0.0369006 -0.0254 -0.0005 0.0369006 -0.0254
0.0005 0.0377158 -0.0254 -0.0005 0.0377158 -0.0254 0.0005 0.0385375 -0.0254 -0.0005
0.0385375 -0.0254 0.0005 0.0393655 -0.0254 -0.0005 0.0393655 -0.0254 0.0005 0.0401999
-0.0254 -0.0005 0.0401999 -0.0254 0.0005 0.0410408 -0.0254 -0.0005 0.0410408 -0.0254
0.0005 0.0418883 -0.0254 -0.0005 0.0418883 -0.0254 0.0005 0.0427424 -0.0254 -0.0005
0.0427424 -0.0254 0.0005 0.0436031 -0.0254 -0.0005 0.0436031 -0.0254 0.0005 0.0444704
-0.0254 -0.0005 0.0444704 -0.0254 0.0005 0.0453446 -0.0254 -0.0005 0.0453446 -0.0254
0.0005 0.0462255 -0.0254 -0.0005 0.0462255 -0.0254 0.0005 0.0471133 -0.0254 -0.0005
0.0471133 -0.0254 0.0005 0.048008 -0.0254 -0.0005 0.048008 -0.0254 0.0005 0.0489096
-0.0254 -0.0005 0.0489096 -0.0254 0.0005 0.0498183 -0.0254 -0.0005 0.0498183 -0.0254
0.0005 0.050734 -0.0254 -0.0005 0.050734 -0.0254 0.0005 0.0516568 -0.0254 -0.0005
0.0516568 -0.0254 0.0005 0.0525868 -0.0254 -0.0005 0.0525868 -0.0254 0.0005 0.053524
-0.0254 -0.0005 0.053524 -0.0254 0.0005 0.0544686 -0.0254 -0.0005 0.0544686 -0.0254
0.0005 0.0554204 -0.0254 -0.0005 0.0554204 -0.0254 0.0005 0.0563797 -0.0254 -0.0005
0.0563797 -0.0254 0.0005 0.0573464 -0.0254 -0.0005 0.0573464 -0.0254 0.0005 0.0583206
-0.0254 -0.0005 0.0583206 -0.0254 0.0005 0.0593025 -0.0254 -0.0005 0.0593025 -0.0254
0.0005 0.0602919 -0.0254 -0.0005 0.0602919 -0.0254 0.0005 0.0612891 -0.0254 -0.0005
0.0612891 -0.0254 0.0005 0.0622939 -0.0254 -0.0005 0.0622939 -0.0254 0.0005 0.0633067
-0.0254 -0.0005 0.0633067 -0.0254 0.0005 0.0643272 -0.0254 -0.0005 0.0643272 -0.0254
0.0005 0.0653557 -0.0254 -0.0005 0.0653557 -0.0254 0.0005 0.0663923 -0.0254 -0.0005
0.0663923 -0.0254 0.0005 0.0674368 -0.0254 -0.0005 0.0674368 -0.0254 0.0005 0.0684895
-0.0254 -0.0005 0.0684895 -0.0254 0.0005 0.0695504 -0.0254 -0.0005 0.0695504 -0.0254
0.0005 0.0706195 -0.0254 -0.0005 0.0706195 -0.0254 0.0005 0.0716969 -0.0254 -0.0005
0.0716969 -0.0254 0.0005 0.0727828 -0.0254 -0.0005 0.0727828 -0.0254 0.0005 0.073877
-0.0254 -0.0005 0.073877 -0.0254 0.0005 0.0749798 -0.0254 -0.0005 0.0749798 -0.0254
0.0005 0.0760911 -0.0254 -0.0005 0.0760911 -0.0254 0.0005 0.0772111 -0.0254 -0.0005
0.0772111 -0.0254 0.0005 0.0783398 -0.0254 -0.0005 0.0783398 -0.0254 0.0005 0.0794772
-0.0254 -0.0005 0.0794772 -0.0254 0.0005 0.0806235 -0.0254 -0.0005 0.0806235 -0.0254
0.0005 0.0817787 -0.0254 -0.0005 0.0817787 -0.0254 0.0005 0.0829429 -0.0254 -0.0005
0.0829429 -0.0254 0.0005 0.0841162 -0.0254 -0.0005 0.0841162 -0.0254 0.0005 0.0852985
-0.0254 -0.0005 0.0852985 -0.0254 0.0005 0.0864901 -0.0254 -0.0005 0.0864901 -0.0254
0.0005 0.0876909 -0.0254 -0.0005 0.0876909 -0.0254 0.0005 0.0889011 -0.0254 -0.0005
0.0889011 -0.0254 0.0005 0.0901207 -0.0254 -0.0005 0.0901207 -0.0254 0.0005 0.0913497
-0.0254 -0.0005 0.0913497 -0.0254 0.0005 0.0925883 -0.0254 -0.0005 0.0925883 -0.0254
0.0005 0.0938366 -0.0254 -0.0005 0.0938366 -0.0254 0.0005 0.0950945 -0.0254 -0.0005
0.0950945 -0.0254 0.0005 0.0963622 -0.0254 -0.0005 0.0963622 -0.0254 0.0005 0.0976398
-0.0254 -0.0005 0.0976398 -0.0254 0.0005 0.0989273 -0.0254 -0.0005 0.0989273 -0.0254
0.0005 0.100225 -0.0254 -0.0005 0.100225 -0.0254 0.0005 0.101532 -0.0254 -0.0005
0.101532 -0.0254 0.0005 0.10285 -0.0254 -0.0005 0.10285 -0.0254 0.0005 0.104178
-0.0254 -0.0005 0.104178 -0.0254 0.0005 0.105517 -0.0254 -0.0005 0.105517 -0.0254
0.0005 0.106865 -0.0254 -0.0005 0.106865 -0.0254 0.0005 0.108225 -0.0254 -0.0005
0.108225 -0.0254 0.0005 0.109594 -0.0254 -0.0005 0.109594 -0.0254 0.0005 0.110975
-0.0254 -0.0005 0.110975 -0.0254 0.0005 0.112366 -0.0254 -0.0005 0.112366 -0.0254
0.0005 0.113768 -0.0254 -0.0005 0.113768 -0.0254 0.0005 0.115181 -0.0254 -0.0005
0.115181 -0.0254 0.0005 0.116605 -0.0254 -0.0005 0.116605 -0.0254 0.0005 0.11804
-0.0254 -0.0005 0.11804 -0.0254 0.0005 0.119486 -0.0254 -0.0005 0.119486 -0.0254
0.0005 0.120943 -0.0254 -0.0005 0.120943 -0.0254 0.0005 0.122412 -0.0254 -0.0005
0.122412 -0.0254 0.0005 0.123892 -0.0254 -0.0005 0.123892 -0.0254 0.0005 0.125384
-0.0254 -0.0005 0.125384 -0.0254 0.0005 0.126887 -0.0254 -0.0005 0.126887 -0.0254
0.0005 0.128402 -0.0254 -0.0005 0.128402 -0.0254 0.0005 0.129928 -0.0254 -0.0005
0.129928 -0.0254 0.0005 0.131467 -0.0254 -0.0005 0.131467 -0.0254 0.0005 0.133017
-0.0254 -0.0005 0.133017 -0.0254 0.0005 0.13458 -0.0254 -0.0005 0.13458 -0.0254
0.0005 0.136155 -0.0254 -0.0005 0.136155 -0.0254 0.0005 0.137742 -0.0254 -0.0005
0.137742 -0.0254 0.0005 0.139341 -0.0254 -0.0005 0.139341 -0.0254 0.0005 0.140953
-0.0254 -0.0005 0.140953 -0.0254 0.0005 0.142577 -0.0254 -0.0005 0.142577 -0.0254
0.0005 0.144214 -0.0254 -0.0005 0.144214 -0.0254 0.0005 0.145863 -0.0254 -0.0005
0.145863 -0.0254 0.0005 0.147526 -0.0254 -0.0005 0.147526 -0.0254 0.0005 0.149201
-0.0254 -0.0005 0.149201 -0.0254 0.0005 0.15089 -0.0254 -0.0005 0.15089 -0.0254
0.0005 0.152591 -0.0254 -0.0005 0.152591 -0.0254 0.0005 0.154306 -0.0254 -0.0005
0.154306 -0.0254 0.0005 0.156034 -0.0254 -0.0005 0.156034 -0.0254 0.0005 0.157775
-0.0254 -0.0005 0.157775 -0.0254 0.0005 0.159531 -0.0254 -0.0005 0.159531 -0.0254
0.0005 0.161299 -0.0254 -0.0005 0.161299 -0.0254 0.0005 0.163082 -0.0254 -0.0005
0.163082 -0.0254 0.0005 0.164878 -0.0254 -0.0005 0.164878 -0.0254 0.0005 0.166688
-0.0254 -0.0005 0.166688 -0.0254 0.0005 0.168513 -0.0254 -0.0005 0.168513 -0.0254
0.0005 0.170351 -0.0254 -0.0005 0.170351 -0.0254 0.0005 0.172204 -0.0254 -0.0005
0.172204 -0.0254 0.0005 0.174071 -0.0254 -0.0005 0.174071 -0.0254 0.0005 0.175953
-0.0254 -0.0005 0.175953 -0.0254 0.0005 0.177849 -0.0254 -0.0005 0.177849 -0.0254
0.0005 0.17976 -0.0254 -0.0005 0.17976 -0.0254 0.0005 0.181686 -0.0254 -0.0005
0.181686 -0.0254 0.0005 0.183627 -0.0254 -0.0005 0.183627 -0.0254 0.0005 0.185583
-0.0254 -0.0005 0.185583 -0.0254 0.0005 0.187555 -0.0254 -0.0005 0.187555 -0.0254
0.0005 0.189541 -0.0254 -0.0005 0.189541 -0.0254 0.0005 0.191543 -0.0254 -0.0005
0.191543 -0.0254 0.0005 0.193561 -0.0254 -0.0005 0.193561 -0.0254 0.0005 0.195594
-0.0254 -0.0005 0.195594 -0.0254 0.0005 0.197643 -0.0254 -0.0005 0.197643 -0.0254
0.0005 0.199708 -0.0254 -0.0005 0.199708 -0.0254 0.0005 0.201789 -0.0254 -0.0005
0.201789 -0.0254 0.0005 0.203886 -0.0254 -0.0005 0.203886 -0.0254 0.0005 0.206
-0.0254 -0.0005 0.206 -0.0254 0.0005 0.208047 -0.0251856 -0.0005 0.208047 -0.0251856
0.0005 0.210173 -0.0249628 -0.0005 0.210173 -0.0249628 0.0005 0.212382 -0.0247314 -0.0005
0.212382 -0.0247314 0.0005 0.214677 -0.024491 -0.0005 0.214677 -0.024491 0.0005 0.217061
-0.0242412 -0.0005 0.217061 -0.0242412 0.0005 0.219538 -0.0239817 -0.0005 0.219538 -0.0239817
0.0005 0.222112 -0.0237121 -0.0005 0.222112 -0.0237121 0.0005 0.224785 -0.023432 -0.0005
0.224785 -0.023432 0.0005 0.227563 -0.023141 -0.0005 0.227563 -0.023141 0.0005 0.230449
-0.0228387 -0.0005 0.230449 -0.0228387 0.0005 0.233447 -0.0225246 -0.0005 0.233447 -0.0225246
0.0005 0.236562 -0.0221983 -0.0005 0.236562 -0.0221983 0.0005 0.239797 -0.0218593 -0.0005
0.239797 -0.0218593 0.0005 0.243159 -0.0215071 -0.0005 0.243159 -0.0215071 0.0005 0.246652
-0.0211412 -0.0005 0.246652 -0.0211412 0.0005 0.250281 -0.0207611 -0.0005 0.250281 -0.0207611
0.0005 0.254051 -0.0203661 -0.0005 0.254051 -0.0203661 0.0005 0.257967 -0.0199558 -0.0005
0.257967 -0.0199558 0.0005 0.262036 -0.0195295 -0.0005 0.262036 -0.0195295 0.0005 0.266264
-0.0190867 -0.0005 0.266264 -0.0190867 0.0005 0.270655 -0.0186266 -0.0005 0.270655 -0.0186266
0.0005 0.275218 -0.0181486 -0.0005 0.275218 -0.0181486 0.0005 0.279959 -0.017652 -0.0005
0.279959 -0.017652 0.0005 0.284883 -0.017136 -0.0005 0.284883 -0.017136 0.0005 0.29
-0.0166 -0.0005 0.29 -0.0166 0.0005 
POLYGONS 250 1250
4 0 1 2 3 4 1 4 5 2 4
4 6 7 5 4 6 8 9 7 4
8 10 11 9 4 10 12 13 11 4
12 14 15 13 4 14 16 17 15 4
16 18 19 17 4 18 20 21 19 4
20 22 23 21 4 22 24 25 23 4
24 26 27 25 4 26 28 29 27 4
28 30 31 29 4 30 32 33 31 4
32 34 35 33 4 34 36 37 35 4
38 39 40 41 4 41 40 42 43 4
43 42 44 45 4 45 44 46 47 4
47 46 48 49 4 49 48 50 51 4
51 50 52 53 4 53 52 54 55 4
55 54 56 57 4 57 56 58 59 4
59 58 60 61 4 61 60 62 63 4
63 62 64 65 4 65 64 66 67 4
67 66 68 69 4 69 68 70 71 4
71 70 72 73 4 73 72 74 75 4
75 74 76 77 4 77 76 78 79 4
79 78 80 81 4 81 80 82 83 4
83 82 84 85 4 85 84 86 87 4
87 86 88 89 4 89 88 90 91 4
91 90 37 36 4 38 92 93 39 4
92 94 95 93 4 94 96 97 95 4
96 98 99 97 4 98 100 101 99 4
100 102 103 101 4 102 104 105 103 4
104 106 107 105 4 106 108 109 107 4
108 110 111 109 4 110 112 113 111 4
112 114 115 113 4 114 116 117 115 4
116 118 119 117 4 118 120 121 119 4
120 122 123 121 4 122 124 125 123 4
124 126 127 125 4 126 128 129 127 4
128 130 131 129 4 130 132 133 131 4
132 134 135 133 4 134 136 137 135 4
136 138 139 137 4 138 140 141 139 4
140 142 143 141 4 142 144 145 143 4
144 146 147 145 4 146 148 149 147 4
148 150 151 149 4 150 152 153 151 4
152 154 155 153 4 154 156 157 155 4
156 158 159 157 4 158 160 161 159 4
160 162 163 161 4 162 164 165 163 4
164 166 167 165 4 166 168 169 167 4
168 170 171 169 4 170 172 173 171 4
172 174 175 173 4 174 176 177 175 4
176 178 179 177 4 178 180 181 179 4
180 182 183 181 4 182 184 185 183 4
184 186 187 185 4 186 188 189 187 4
188 190 191 189 4 190 192 193 191 4
192 194 195 193 4 194 196 197 195 4
196 198 199 197 4 198 200 201 199 4
200 202 203 201 4 202 204 205 203 4
204 206 207 205 4 206 208 209 207 4
208 210 211 209 4 210 212 213 211 4
212 214 215 213 4 214 216 217 215 4
216 218 219 217 4 218 220 221 219 4
220 222 223 221 4 222 224 225 223 4
224 226 227 225 4 226 228 229 227 4
228 230 231 229 4 230 232 233 231 4
232 234 235 233 4 234 236 237 235 4
236 238 239 237 4 238 240 241 239 4
240 242 243 241 4 242 244 245 243 4
244 246 247 245 4 246 248 249 247 4
248 250 251 249 4 250 252 253 251 4
252 254 255 253 4 254 256 257 255 4
256 258 259 257 4 258 260 261 259 4
260 262 263 261 4 262 264 265 263 4
264 266 267 265 4 266 268 269 267 4
268 270 271 269 4 270 272 273 271 4
272 274 275 273 4 274 276 277 275 4
276 278 279 277 4 278 280 281 279 4
280 282 283 281 4 282 284 285 283 4
284 286 287 285 4 286 288 289 287 4
288 290 291 289 4 290 292 293 291 4
292 294 295 293 4 294 296 297 295 4
296 298 299 297 4 298 300 301 299 4
300 302 303 301 4 302 304 305 303 4
304 306 307 305 4 306 308 309 307 4
308 310 311 309 4 310 312 313 311 4
312 314 315 313 4 314 316 317 315 4
316 318 319 317 4 318 320 321 319 4
320 322 323 321 4 322 324 325 323 4
324 326 327 325 4 326 328 329 327 4
328 330 331 329 4 330 332 333 331 4
332 334 335 333 4 334 336 337 335 4
336 338 339 337 4 338 340 341 339 4
340 342 343 341 4 342 344 345 343 4
344 346 347 345 4 346 348 349 347 4
348 350 351 349 4 350 352 353 351 4
352 354 355 353 4 354 356 357 355 4
356 358 359 357 4 358 360 361 359 4
360 362 363 361 4 362 364 365 363 4
364 366 367 365 4 366 368 369 367 4
368 370 371 369 4 370 372 373 371 4
372 374 375 373 4 374 376 377 375 4
376 378 379 377 4 378 380 381 379 4
380 382 383 381 4 382 384 385 383 4
384 386 387 385 4 386 388 389 387 4
388 390 391 389 4 390 392 393 391 4
392 394 395 393 4 394 396 397 395 4
396 398 399 397 4 398 400 401 399 4
400 402 403 401 4 402 404 405 403 4
404 406 407 405 4 406 408 409 407 4
408 410 411 409 4 410 412 413 411 4
412 414 415 413 4 414 416 417 415 4
416 418 419 417 4 418 420 421 419 4
420 422 423 421 4 422 424 425 423 4
424 426 427 425 4 426 428 429 427 4
428 430 431 429 4 430 432 433 431 4
432 434 435 433 4 434 436 437 435 4
436 438 439 437 4 438 440 441 439 4
440 442 443 441 4 442 444 445 443 4
444 446 447 445 4 446 448 449 447 4
448 450 451 449 4 450 452 453 451 4
452 454 455 453 4 454 456 457 455 4
456 458 459 457 4 458 460 461 459 4
460 462 463 461 4 462 464 465 463 4
464 466 467 465 4 466 468 469 467 4
468 470 471 469 4 470 472 473 471 4
472 474 475 473 4 474 476 477 475 4
476 478 479 477 4 478 480 481 479 4
480 482 483 481 4 482 484 485 483 4
484 486 487 485 4 486 488 489 487 4
488 490 491 489 4 490 492 493 491 4
492 494 495 493 4 494 496 497 495 4
496 498 499 497 4 498 500 501 499 
POINT_DATA 502
FIELD attributes 1
U 3 502 float
3.27055 -0.0528116 -0.0588281 1.64203 -0.025745 -0.0289905 1.64203 -0.025745 -0.0289905 3.27055 -0.0528116
-0.0588281 0.0585959 0.000593676 0 0.0585959 0.000593676 0 0.056338 0.000617464 0
0.056338 0.000617464 0 0.0543305 0.00051871 0 0.0543305 0.00051871 0 0.0527737
0.000345762 0 0.0527737 0.000345762 0 0.0514711 0.000203953 0 0.0514711 0.000203953
0 0.050215 0.000157277 0 0.050215 0.000157277 0 0.0488726 0.000215409 0
0.0488726 0.000215409 0 0.0473358 0.000339619 0 0.0473358 0.000339619 0 0.0455189
0.000463358 0 0.0455189 0.000463358 0 0.0434387 0.000529734 0 0.0434387 0.000529734
0 0.0411779 0.000533553 0 0.0411779 0.000533553 0 0.0388712 0.00050715 0
0.0388712 0.00050715 0 0.0365103 0.000492507 0 0.0365103 0.000492507 0 0.0342512
0.00049581 0 0.0342512 0.00049581 0 0.0317978 0.000576911 0 0.0317978 0.000576911
0 0.0293271 0.000664836 0 0.0293271 0.000664836 0 0.0126544 0.00073698 0
0.0126544 0.00073698 0 -0.000415651 0.000785234 9.96656e-23 -0.000415651 0.000785234 9.96656e-23 -0.000455451
0.00238496 -2.68889e-22 -0.000455451 0.00238496 -2.68889e-22 -0.000427934 0.00406302 -3.18695e-22 -0.000427934 0.00406302
-3.18695e-22 2.53344e-07 0.00331231 6.37325e-22 2.53344e-07 0.00331231 6.37325e-22 0.00109679 -0.00107632 2.12927e-22
0.00109679 -0.00107632 2.12927e-22 0.00185206 -0.00887516 -4.2437e-22 0.00185206 -0.00887516 -4.2437e-22 0.00147967
-0.0154459 0 0.00147967 -0.0154459 0 0.000835301 -0.0190815 -8.29918e-22 0.000835301 -0.0190815
-8.29918e-22 0.00039305 -0.0209349 -1.95849e-25 0.00039305 -0.0209349 -1.95849e-25 7.12247e-05 -0.0214887 8.29722e-22
7.12247e-05 -0.0214887 8.29722e-22 -0.000145931 -0.0211463 -8.42303e-22 -0.000145931 -0.0211463 -8.42303e-22 -0.000300377
-0.0201884 3.21212e-25 -0.000300377 -0.0201884 3.21212e-25 -0.00042672 -0.0187423 8.42624e-22 -0.00042672 -0.0187423
8.42624e-22 -0.000535174 -0.0168759 8.7194e-22 -0.000535174 -0.0168759 8.7194e-22 -0.000620474 -0.0146751 -9.37934e-25
-0.000620474 -0.0146751 -9.37934e-25 -0.000658845 -0.0122763 -8.88348e-22 -0.000658845 -0.0122763 -8.88348e-22 -0.000630878
-0.00980461 0 -0.000630878 -0.00980461 0 -0.000542403 -0.00770422 0 -0.000542403 -0.00770422
0 -0.000359671 -0.00607903 0 -0.000359671 -0.00607903 0 -7.10499e-05 -0.00527641 0
-7.10499e-05 -0.00527641 0 0.000140963 -0.00543127 0 0.000140963 -0.00543127 0 1.12918e-05
-0.00571388 0 1.12918e-05 -0.00571388 0 -0.000397343 -0.00522761 0 -0.000397343 -0.00522761
0 -0.000836617 -0.00404253 0 -0.000836617 -0.00404253 0 -0.00124623 -0.00260243 0
-0.00124623 -0.00260243 0 -0.00117593 -0.000438972 0 -0.00117593 -0.000438972 0 -0.000635856
0.000874412 0 -0.000635856 0.000874412 0 -0.000690032 0.000585727 4.59072e-25 -0.000690032 0.000585727
4.59072e-25 -0.000953297 6.65499e-05 -4.95007e-23 -0.000953297 6.65499e-05 -4.95007e-23 -0.000684503 -0.000474651 0
-0.000684503 -0.000474651 0 -1.41462e-05 -0.000818043 0 -1.41462e-05 -0.000818043 0 0.000892021
-0.000990044 4.81348e-23 0.000892021 -0.000990044 4.81348e-23 0.00187328 -0.00102803 4.82213e-23 0.00187328 -0.00102803
4.82213e-23 0.00282687 -0.000963131 0 0.00282687 -0.000963131 0 0.00370321 -0.000833675 0
0.00370321 -0.000833675 0 0.00444916 -0.000669026 0 0.00444916 -0.000669026 0 0.00503541
-0.00048825 -4.582e-23 0.00503541 -0.00048825 -4.582e-23 0.00544775 -0.000303745 -4.59073e-23 0.00544775 -0.000303745
-4.59073e-23 0.00568424 -0.000122822 0 0.00568424 -0.000122822 0 0.00574785 4.96e-05 0
0.00574785 4.96e-05 0 0.00563897 0.000209149 0 0.00563897 0.000209149 0 0.00537857
0.000351029 -4.40886e-23 0.00537857 0.000351029 -4.40886e-23 0.00499021 0.000469336 -4.41777e-23 0.00499021 0.000469336
-4.41777e-23 0.00450299 0.000562383 0 0.00450299 0.000562383 0 0.00393522 0.000622464 0
0.00393522 0.000622464 0 0.00332065 0.000660328 0 0.00332065 0.000660328 0 0.00267944
0.000651064 0 0.00267944 0.000651064 0 0.00201795 0.000631905 0 0.00201795 0.000631905
0 0.00143579 0.000585313 0 0.00143579 0.000585313 0 0.000881399 0.00041181 -4.2004e-23
0.000881399 0.00041181 -4.2004e-23 0.000367211 0.000171301 -4.0962e-25 0.000367211 0.000171301 -4.0962e-25 0.000271539
3.87827e-05 3.93445e-25 0.000271539 3.87827e-05 3.93445e-25 0.000331676 -8.66212e-05 -8.25069e-23 0.000331676 -8.66212e-05
-8.25069e-23 0.000441478 -0.00052854 -4.11201e-23 0.000441478 -0.00052854 -4.11201e-23 0.000985234 -0.00082685 0
0.000985234 -0.00082685 0 0.00172867 -0.001224 4.00194e-23 0.00172867 -0.001224 4.00194e-23 0.00190566
-0.00245961 7.97587e-23 0.00190566 -0.00245961 7.97587e-23 0.00172887 -0.00280956 3.97395e-23 0.00172887 -0.00280956
3.97395e-23 0.00119911 -0.000553551 0 0.00119911 -0.000553551 0 -0.000783587 0.00181506 3.86681e-23
-0.000783587 0.00181506 3.86681e-23 -0.00330698 0.00224491 3.87634e-23 -0.00330698 0.00224491 3.87634e-23 -0.00545168
0.00202288 0 -0.00545168 0.00202288 0 -0.00743637 0.00182153 -3.68749e-23 -0.00743637 0.00182153
-3.68749e-23 -0.00919379 0.00159759 -3.69686e-23 -0.00919379 0.00159759 -3.69686e-23 -0.010756 0.00139145 -3.54128e-23
-0.010756 0.00139145 -3.54128e-23 -0.0121284 0.00119982 -1.04872e-22 -0.0121284 0.00119982 -1.04872e-22 -0.0133337
0.00103095 -6.95488e-23 -0.0133337 0.00103095 -6.95488e-23 -0.0143869 0.000882365 0 -0.0143869 0.000882365
0 -0.0153063 0.000753951 0 -0.0153063 0.000753951 0 -0.0161056 0.000642487 0
-0.0161056 0.000642487 0 -0.0167981 0.000545595 0 -0.0167981 0.000545595 0 -0.0173934
0.000460183 -6.1849e-23 -0.0173934 0.000460183 -6.1849e-23 -0.0179 0.000383872 -1.22883e-22 -0.0179 0.000383872
-1.22883e-22 -0.018324 0.000314641 -1.20991e-22 -0.018324 0.000314641 -1.20991e-22 -0.0186702 0.000251125 -6.01284e-23
-0.0186702 0.000251125 -6.01284e-23 -0.0189423 0.000192335 5.83987e-23 -0.0189423 0.000192335 5.83987e-23 -0.0191435
0.000137785 5.85679e-23 -0.0191435 0.000137785 5.85679e-23 -0.0192764 8.74164e-05 -5.71649e-23 -0.0192764 8.74164e-05
-5.71649e-23 -0.0193434 4.10013e-05 -1.13996e-22 -0.0193434 4.10013e-05 -1.13996e-22 -0.0193487 -1.87142e-06 -5.68311e-23
-0.0193487 -1.87142e-06 -5.68311e-23 -0.0192969 -4.13319e-05 0 -0.0192969 -4.13319e-05 0 -0.0191911
-7.79683e-05 0 -0.0191911 -7.79683e-05 0 -0.0190333 -0.000112343 -5.52938e-23 -0.0190333 -0.000112343
-5.52938e-23 -0.0188257 -0.000144439 -5.5465e-23 -0.0188257 -0.000144439 -5.5465e-23 -0.0185711 -0.000174279 0
-0.0185711 -0.000174279 0 -0.018272 -0.00020171 0 -0.018272 -0.00020171 0 -0.0179316
-0.000226514 0 -0.0179316 -0.000226514 0 -0.0175531 -0.000248456 0 -0.0175531 -0.000248456
0 -0.0171407 -0.000267245 0 -0.0171407 -0.000267245 0 -0.0166987 -0.000282659 0
-0.0166987 -0.000282659 0 -0.016232 -0.000294537 0 -0.016232 -0.000294537 0 -0.0157458
-0.000302846 5.42651e-23 -0.0157458 -0.000302846 5.42651e-23 -0.0152453 -0.000307675 5.44474e-23 -0.0152453 -0.000307675
5.44474e-23 -0.0147355 -0.000309229 0 -0.0147355 -0.000309229 0 -0.0142212 -0.000307796 -5.40155e-23
-0.0142212 -0.000307796 -5.40155e-23 -0.0137069 -0.000303712 -1.08115e-22 -0.0137069 -0.000303712 -1.08115e-22 -0.0131965
-0.000297336 -5.41006e-23 -0.0131965 -0.000297336 -5.41006e-23 -0.0126936 -0.000289038 5.36703e-23 -0.0126936 -0.000289038
5.36703e-23 -0.0122011 -0.000279209 3.31908e-25 -0.0122011 -0.000279209 3.31908e-25 -0.0117215 -0.000268275 -5.37193e-23
-0.0117215 -0.000268275 -5.37193e-23 -0.0112564 -0.000256714 5.32019e-23 -0.0112564 -0.000256714 5.32019e-23 -0.0108066
-0.000245066 5.3395e-23 -0.0108066 -0.000245066 5.3395e-23 -0.0103721 -0.000233926 0 -0.0103721 -0.000233926
0 -0.00995141 -0.000223926 -5.26179e-23 -0.00995141 -0.000223926 -5.26179e-23 -0.00954221 -0.000215724 -5.28136e-23
-0.00954221 -0.000215724 -5.28136e-23 -0.00914072 -0.000209992 5.21863e-23 -0.00914072 -0.000209992 5.21863e-23 -0.00874178
-0.000207392 5.23835e-23 -0.00874178 -0.000207392 5.23835e-23 -0.0083389 -0.000208494 -5.17452e-23 -0.0083389 -0.000208494
-5.17452e-23 -0.00792455 -0.000213652 -1.03472e-22 -0.00792455 -0.000213652 -1.03472e-22 -0.00749085 -0.000222896 -1.03042e-22
-0.00749085 -0.000222896 -1.03042e-22 -0.00703021 -0.000235868 -1.5373e-22 -0.00703021 -0.000235868 -1.5373e-22 -0.00653612
-0.000251816 -8.0833e-25 -0.00653612 -0.000251816 -8.0833e-25 -0.00600379 -0.000269608 1.02211e-22 -0.00600379 -0.000269608
1.02211e-22 -0.0054308 -0.000287792 0 -0.0054308 -0.000287792 0 -0.00481753 -0.000304734 0
-0.00481753 -0.000304734 0 -0.00416735 -0.000318949 1.00131e-22 -0.00416735 -0.000318949 1.00131e-22 -0.00348659
-0.00032937 2.00187e-22 -0.00348659 -0.00032937 2.00187e-22 -0.00278381 -0.000335078 9.38903e-25 -0.00278381 -0.000335078
9.38903e-25 -0.00206803 -0.000335467 -9.95283e-23 -0.00206803 -0.000335467 -9.95283e-23 -0.00134783 -0.000331081 9.78981e-23
-0.00134783 -0.000331081 9.78981e-23 -0.000632639 -0.000322736 1.95508e-22 -0.000632639 -0.000322736 1.95508e-22 6.86224e-05
-0.00031183 1.94001e-22 6.86224e-05 -0.00031183 1.94001e-22 0.000751239 -0.000299091 9.68014e-23 0.000751239 -0.000299091
9.68014e-23 0.00141302 -0.000284565 0 0.00141302 -0.000284565 0 0.00205101 -0.000268877 0
0.00205101 -0.000268877 0 0.00266201 -0.000252097 9.26275e-23 0.00266201 -0.000252097 9.26275e-23 0.00324316
-0.000234207 9.3033e-23 0.00324316 -0.000234207 9.3033e-23 0.00379147 -0.000215243 0 0.00379147 -0.000215243
0 0.00430405 -0.000195388 -8.96049e-23 0.00430405 -0.000195388 -8.96049e-23 0.00477846 -0.000174982 -9.00051e-23
0.00477846 -0.000174982 -9.00051e-23 0.00521305 -0.000154483 0 0.00521305 -0.000154483 0 0.00560718
-0.000134396 -8.65491e-23 0.00560718 -0.000134396 -8.65491e-23 0.00596135 -0.000115199 -8.69433e-23 0.00596135 -0.000115199
-8.69433e-23 0.00627708 -9.72608e-05 0 0.00627708 -9.72608e-05 0 0.00655667 -8.07802e-05 8.35456e-23
0.00655667 -8.07802e-05 8.35456e-23 0.00680284 -6.57731e-05 1.66498e-22 0.00680284 -6.57731e-05 1.66498e-22 0.0070183
-5.21029e-05 8.29498e-23 0.0070183 -5.21029e-05 8.29498e-23 0.00720547 -3.95449e-05 -8.06343e-23 0.00720547 -3.95449e-05
-8.06343e-23 0.00736627 -2.78875e-05 -8.10155e-23 0.00736627 -2.78875e-05 -8.10155e-23 0.00750223 -1.6995e-05 7.87486e-23
0.00750223 -1.6995e-05 7.87486e-23 0.00761458 -6.86989e-06 7.91254e-23 0.00761458 -6.86989e-06 7.91254e-23 0.00770467
2.35745e-06 7.69055e-23 0.00770467 2.35745e-06 7.69055e-23 0.00777397 1.05448e-05 1.53277e-22 0.00777397 1.05448e-05
1.53277e-22 0.00782434 1.74649e-05 7.63694e-23 0.00782434 1.74649e-05 7.63694e-23 0.00785824 2.31176e-05 0
0.00785824 2.31176e-05 0 0.00787729 2.78443e-05 0 0.00787729 2.78443e-05 0 0.00788355
3.16773e-05 0 0.00788355 3.16773e-05 0 0.00787996 3.44142e-05 0 0.00787996 3.44142e-05
0 0.00786888 3.61603e-05 0 0.00786888 3.61603e-05 0 0.00785215 3.72295e-05 0
0.00785215 3.72295e-05 0 0.00783119 3.78768e-05 6.90673e-23 0.00783119 3.78768e-05 6.90673e-23 0.00780698
3.83069e-05 1.18345e-24 0.00780698 3.83069e-05 1.18345e-24 0.00778007 3.87032e-05 -6.85849e-23 0.00778007 3.87032e-05
-6.85849e-23 0.00775074 3.92207e-05 0 0.00775074 3.92207e-05 0 0.00771899 3.99848e-05 0
0.00771899 3.99848e-05 0 0.00768463 4.10641e-05 0 0.00768463 4.10641e-05 0 0.00764735
4.2432e-05 -1.28345e-22 0.00764735 4.2432e-05 -1.28345e-22 0.00760688 4.39418e-05 -1.29019e-22 0.00760688 4.39418e-05
-1.29019e-22 0.00756306 4.53527e-05 1.25175e-22 0.00756306 4.53527e-05 1.25175e-22 0.00751597 4.63948e-05 2.23306e-24
0.00751597 4.63948e-05 2.23306e-24 0.007466 4.68333e-05 -1.24265e-22 0.007466 4.68333e-05 -1.24265e-22 0.00741378
4.65082e-05 0 0.00741378 4.65082e-05 0 0.00736018 4.53569e-05 0 0.00736018 4.53569e-05
0 0.00730615 4.34285e-05 1.17428e-22 0.00730615 4.34285e-05 1.17428e-22 0.00725268 4.0869e-05 2.33973e-22
0.00725268 4.0869e-05 2.33973e-22 0.00720066 3.78766e-05 1.16539e-22 0.00720066 3.78766e-05 1.16539e-22 0.00715084
3.46523e-05 1.1289e-22 0.00715084 3.46523e-05 1.1289e-22 0.00710374 3.13708e-05 2.24906e-22 0.00710374 3.13708e-05
2.24906e-22 0.00705974 2.81714e-05 2.10399e-24 0.00705974 2.81714e-05 2.10399e-24 0.00701904 2.5154e-05 -1.10518e-22
0.00701904 2.5154e-05 -1.10518e-22 0.00698168 2.23812e-05 0 0.00698168 2.23812e-05 0 0.00694762
1.98832e-05 -1.05492e-22 0.00694762 1.98832e-05 -1.05492e-22 0.00691671 1.7666e-05 -1.06086e-22 0.00691671 1.7666e-05
-1.06086e-22 0.00688878 1.57216e-05 0 0.00688878 1.57216e-05 0 0.00686361 1.40347e-05 0
0.00686361 1.40347e-05 0 0.00684096 1.25853e-05 0 0.00684096 1.25853e-05 0 0.00682059
1.13472e-05 9.82803e-23 0.00682059 1.13472e-05 9.82803e-23 0.00680228 1.02912e-05 1.95704e-22 0.00680228 1.02912e-05
1.95704e-22 0.00678582 9.39255e-06 9.74179e-23 0.00678582 9.39255e-06 9.74179e-23 0.00677099 8.63691e-06 9.4035e-23
0.00677099 8.63691e-06 9.4035e-23 0.00675762 8.01536e-06 9.45821e-23 0.00675762 8.01536e-06 9.45821e-23 0.00674551
7.5135e-06 0 0.00674551 7.5135e-06 0 0.00673447 7.10329e-06 8.98459e-23 0.00673447 7.10329e-06
8.98459e-23 0.00672437 6.74792e-06 9.03747e-23 0.00672437 6.74792e-06 9.03747e-23 0.00671511 6.41599e-06 8.70828e-23
0.00671511 6.41599e-06 8.70828e-23 0.00670665 6.09618e-06 8.75991e-23 0.00670665 6.09618e-06 8.75991e-23 0.00669892
5.80079e-06 0 0.00669892 5.80079e-06 0 0.00669186 5.55799e-06 8.29804e-23 0.00669186 5.55799e-06
8.29804e-23 0.00668529 5.39956e-06 8.34778e-23 0.00668529 5.39956e-06 8.34778e-23 0.00667908 5.34721e-06 8.02729e-23
0.00667908 5.34721e-06 8.02729e-23 0.00667283 5.41861e-06 8.07574e-23 0.00667283 5.41861e-06 8.07574e-23 0.00666639