/*--------------------------------*- C++ -*----------------------------------*\
  =========                 |
  \\      /  F ield         | OpenFOAM: The Open Source CFD Toolbox
   \\    /   O peration     | Website:  https://openfoam.org
    \\  /    A nd           | Version:  9
     \\/     M anipulation  |
\*---------------------------------------------------------------------------*/
FoamFile
{
    format      ascii;
    class       volScalarField;
    location    "0.15";
    object      nut;
}
// * * * * * * * * * * * * * * * * * * * * * * * * * * * * * * * * * * * * * //

dimensions      [0 2 -1 0 0 0 0];

internalField   nonuniform List<scalar> 
12225
(
2.91415e-06
2.19972e-06
1.70642e-06
1.37298e-06
1.15796e-06
1.03216e-06
9.73869e-07
9.6589e-07
9.93992e-07
1.04623e-06
1.11262e-06
1.18505e-06
1.25722e-06
1.3245e-06
1.38389e-06
1.43374e-06
1.47372e-06
1.51651e-06
2.47247e-05
1.75168e-05
1.48146e-05
1.35403e-05
1.29172e-05
1.26214e-05
1.24773e-05
1.23882e-05
1.23064e-05
1.22122e-05
1.20987e-05
1.19652e-05
1.1813e-05
1.16446e-05
1.14631e-05
1.12709e-05
1.10687e-05
1.08314e-05
5.33051e-05
4.10582e-05
3.42931e-05
2.98583e-05
2.65697e-05
2.39197e-05
2.16665e-05
1.97019e-05
1.79844e-05
1.64969e-05
1.52233e-05
1.4142e-05
1.32263e-05
1.24488e-05
1.1783e-05
1.12043e-05
1.0687e-05
1.02043e-05
6.81454e-05
5.93458e-05
5.24916e-05
4.71749e-05
4.2894e-05
3.93071e-05
3.61918e-05
3.34126e-05
3.08979e-05
2.86163e-05
2.65558e-05
2.4709e-05
2.3066e-05
2.16115e-05
2.03251e-05
1.91807e-05
1.81473e-05
1.72039e-05
7.36176e-05
6.9087e-05
6.44765e-05
6.02337e-05
5.64374e-05
5.30508e-05
5.00062e-05
4.72377e-05
4.46963e-05
4.2351e-05
4.01853e-05
3.819e-05
3.6359e-05
3.46851e-05
3.31581e-05
3.17641e-05
3.04877e-05
2.93312e-05
7.53712e-05
7.32321e-05
7.06703e-05
6.79668e-05
6.5287e-05
6.27152e-05
6.02851e-05
5.80021e-05
5.586e-05
5.38501e-05
5.19653e-05
5.02003e-05
4.85506e-05
4.70124e-05
4.55807e-05
4.42499e-05
4.30156e-05
4.1893e-05
7.58871e-05
7.47538e-05
7.33627e-05
7.17905e-05
7.01172e-05
6.84084e-05
6.67105e-05
6.50522e-05
6.34498e-05
6.1912e-05
6.04433e-05
5.90458e-05
5.77199e-05
5.64653e-05
5.52808e-05
5.41651e-05
5.31187e-05
5.2158e-05
7.60286e-05
7.52524e-05
7.4383e-05
7.3421e-05
7.23835e-05
7.12945e-05
7.01782e-05
6.90551e-05
6.79411e-05
6.68477e-05
6.57831e-05
6.47531e-05
6.37613e-05
6.28102e-05
6.1901e-05
6.10347e-05
6.02135e-05
5.9451e-05
7.60647e-05
7.54002e-05
7.47264e-05
7.40316e-05
7.33121e-05
7.25702e-05
7.1812e-05
7.10449e-05
7.02764e-05
6.95132e-05
6.87612e-05
6.80249e-05
6.73079e-05
6.66128e-05
6.59417e-05
6.52962e-05
6.46783e-05
6.40987e-05
7.60733e-05
7.54401e-05
7.48298e-05
7.42342e-05
7.36473e-05
7.30655e-05
7.24876e-05
7.19137e-05
7.13452e-05
7.07839e-05
7.02317e-05
6.96907e-05
6.91626e-05
6.86488e-05
6.81506e-05
6.76689e-05
6.72053e-05
6.67677e-05
7.6075e-05
7.54497e-05
7.48576e-05
7.4294e-05
7.37544e-05
7.32352e-05
7.27336e-05
7.22476e-05
7.1776e-05
7.13179e-05
7.08732e-05
7.04416e-05
7.00232e-05
6.96182e-05
6.92267e-05
6.8849e-05
6.84856e-05
6.81424e-05
7.60753e-05
7.54515e-05
7.48637e-05
7.43084e-05
7.37824e-05
7.32827e-05
7.28068e-05
7.23523e-05
7.19175e-05
7.15008e-05
7.1101e-05
7.07172e-05
7.03487e-05
6.99947e-05
6.96549e-05
6.93287e-05
6.90164e-05
6.87225e-05
7.60753e-05
7.54518e-05
7.48649e-05
7.4312e-05
7.37901e-05
7.32969e-05
7.28301e-05
7.23876e-05
7.19675e-05
7.15681e-05
7.1188e-05
7.0826e-05
7.04809e-05
7.01518e-05
6.98377e-05
6.95379e-05
6.92523e-05
6.8985e-05
7.60752e-05
7.54517e-05
7.48649e-05
7.43123e-05
7.37914e-05
7.32999e-05
7.28358e-05
7.2397e-05
7.19819e-05
7.15888e-05
7.12162e-05
7.08628e-05
7.05274e-05
7.02089e-05
6.99062e-05
6.96186e-05
6.93457e-05
6.90915e-05
7.60752e-05
7.54515e-05
7.48646e-05
7.43119e-05
7.37909e-05
7.32995e-05
7.28357e-05
7.23976e-05
7.19834e-05
7.15917e-05
7.12209e-05
7.08697e-05
7.0537e-05
7.02216e-05
6.99225e-05
6.96388e-05
6.93702e-05
6.91207e-05
7.60751e-05
7.54514e-05
7.48643e-05
7.43113e-05
7.37901e-05
7.32985e-05
7.28344e-05
7.2396e-05
7.19816e-05
7.15897e-05
7.12189e-05
7.08678e-05
7.05353e-05
7.02201e-05
6.99215e-05
6.96384e-05
6.93706e-05
6.91219e-05
7.60751e-05
7.54513e-05
7.48641e-05
7.43109e-05
7.37895e-05
7.32975e-05
7.2833e-05
7.23943e-05
7.19795e-05
7.15871e-05
7.12158e-05
7.08642e-05
7.05312e-05
7.02156e-05
6.99164e-05
6.96329e-05
6.93646e-05
6.91155e-05
7.60751e-05
7.54513e-05
7.4864e-05
7.43107e-05
7.3789e-05
7.32967e-05
7.28319e-05
7.23927e-05
7.19775e-05
7.15846e-05
7.12127e-05
7.08605e-05
7.05268e-05
7.02105e-05
6.99106e-05
6.96262e-05
6.9357e-05
6.91071e-05
7.60751e-05
7.54513e-05
7.48639e-05
7.43106e-05
7.37887e-05
7.32962e-05
7.28311e-05
7.23916e-05
7.19759e-05
7.15825e-05
7.121e-05
7.08571e-05
7.05226e-05
7.02054e-05
6.99045e-05
6.9619e-05
6.93487e-05
6.90975e-05
7.60752e-05
7.54513e-05
7.4864e-05
7.43106e-05
7.37887e-05
7.32961e-05
7.28308e-05
7.23909e-05
7.19748e-05
7.1581e-05
7.12079e-05
7.08542e-05
7.05189e-05
7.02007e-05
6.98987e-05
6.96119e-05
6.93402e-05
6.90873e-05
7.60752e-05
7.54514e-05
7.48641e-05
7.43107e-05
7.37887e-05
7.32958e-05
7.28301e-05
7.23896e-05
7.19726e-05
7.15776e-05
7.12029e-05
7.08474e-05
7.05098e-05
7.01889e-05
6.98838e-05
6.95935e-05
6.93177e-05
6.90603e-05
7.60752e-05
7.54514e-05
7.48638e-05
7.43097e-05
7.37863e-05
7.32913e-05
7.28223e-05
7.23773e-05
7.19545e-05
7.15521e-05
7.11686e-05
7.08026e-05
7.0453e-05
7.01185e-05
6.97981e-05
6.9491e-05
6.91969e-05
6.89199e-05
7.60749e-05
7.54496e-05
7.48583e-05
7.4297e-05
7.3762e-05
7.32503e-05
7.2759e-05
7.22861e-05
7.18296e-05
7.13882e-05
7.09606e-05
7.05459e-05
7.01431e-05
6.97517e-05
6.93709e-05
6.90002e-05
6.86397e-05
6.82942e-05
7.6071e-05
7.54311e-05
7.4809e-05
7.41974e-05
7.35914e-05
7.29885e-05
7.23881e-05
7.17906e-05
7.1197e-05
7.06085e-05
7.00263e-05
6.94513e-05
6.88843e-05
6.83258e-05
6.77761e-05
6.72352e-05
6.67037e-05
6.61876e-05
7.60348e-05
7.52881e-05
7.44817e-05
7.36163e-05
7.27022e-05
7.17541e-05
7.07867e-05
6.9813e-05
6.88429e-05
6.78834e-05
6.69392e-05
6.60129e-05
6.51055e-05
6.42171e-05
6.33467e-05
6.2493e-05
6.16548e-05
6.08386e-05
7.5765e-05
7.44243e-05
7.28223e-05
7.1075e-05
6.92727e-05
6.74784e-05
6.57306e-05
6.4049e-05
6.24405e-05
6.09047e-05
5.94366e-05
5.80292e-05
5.66743e-05
5.53637e-05
5.40894e-05
5.28443e-05
5.16229e-05
5.04296e-05
7.41057e-05
7.03837e-05
6.65526e-05
6.29731e-05
5.97393e-05
5.68505e-05
5.42684e-05
5.19431e-05
4.98261e-05
4.78747e-05
4.60534e-05
4.43332e-05
4.26909e-05
4.11086e-05
3.95735e-05
3.80763e-05
3.66118e-05
3.51853e-05
6.58833e-05
5.66587e-05
5.01077e-05
4.53142e-05
4.16394e-05
3.87075e-05
3.62814e-05
3.42047e-05
3.23738e-05
3.07194e-05
2.91956e-05
2.77726e-05
2.6432e-05
2.5164e-05
2.39639e-05
2.28302e-05
2.17631e-05
2.07658e-05
3.80737e-05
2.83696e-05
2.39808e-05
2.14848e-05
1.99206e-05
1.89065e-05
1.82472e-05
1.78249e-05
1.75617e-05
1.74041e-05
1.73138e-05
1.72641e-05
1.72365e-05
1.72189e-05
1.72038e-05
1.71869e-05
1.71665e-05
1.71412e-05
5.62828e-06
4.72169e-06
4.01346e-06
3.45694e-06
3.01985e-06
2.67868e-06
2.41591e-06
2.21807e-06
2.07457e-06
1.9769e-06
1.91812e-06
1.89249e-06
1.89518e-06
1.92213e-06
1.96985e-06
2.0354e-06
2.11628e-06
2.2101e-06
2.18177e-06
1.92194e-05
4.78748e-06
4.77464e-06
4.73031e-06
1.89894e-05
1.76855e-05
1.67083e-05
1.61141e-05
1.59726e-05
1.62893e-05
1.69275e-05
1.7598e-05
1.81099e-05
3.8558e-06
4.14838e-06
5.87784e-06
7.25609e-06
8.42134e-06
9.38736e-06
1.01733e-05
1.07991e-05
1.12838e-05
1.16452e-05
1.18993e-05
1.20606e-05
1.21421e-05
1.21557e-05
1.21122e-05
1.20212e-05
1.18913e-05
1.17303e-05
1.15422e-05
1.13469e-05
1.11454e-05
1.09385e-05
1.07274e-05
1.05125e-05
1.02944e-05
1.00735e-05
9.85009e-06
9.62429e-06
9.39616e-06
9.16566e-06
8.93267e-06
8.69703e-06
8.45858e-06
8.21726e-06
7.97317e-06
7.72656e-06
7.47779e-06
7.22686e-06
6.97249e-06
6.71015e-06
6.42709e-06
6.1415e-06
6.09145e-06
6.1579e-06
6.25883e-06
6.38128e-06
6.52272e-06
6.6836e-06
6.86556e-06
7.06955e-06
7.29188e-06
7.51682e-06
7.69529e-06
7.80655e-06
7.8691e-06
7.81964e-06
7.62656e-06
7.20656e-06
6.85333e-06
2.31963e-05
1.67636e-05
1.20173e-05
9.18932e-06
8.05086e-06
8.2079e-06
9.18917e-06
1.07015e-05
1.30533e-05
3.86084e-06
4.35959e-06
4.76049e-06
5.05006e-06
5.16703e-06
5.01441e-06
4.64026e-06
4.87969e-06
6.72459e-06
8.23515e-06
9.43336e-06
1.03356e-05
1.09831e-05
1.14167e-05
1.16718e-05
1.17781e-05
1.17607e-05
1.1641e-05
1.14376e-05
1.11593e-05
1.08265e-05
1.04737e-05
1.0106e-05
9.72834e-06
9.34526e-06
8.96062e-06
8.57764e-06
8.19884e-06
7.82598e-06
7.46007e-06
7.10138e-06
6.74963e-06
6.40342e-06
6.0563e-06
5.66509e-06
5.263e-06
5.40496e-06
5.62902e-06
5.88191e-06
6.15748e-06
6.45507e-06
6.774e-06
7.11274e-06
7.46845e-06
7.83694e-06
8.21312e-06
8.58774e-06
8.95231e-06
9.32932e-06
9.68035e-06
9.90101e-06
9.96384e-06
9.83825e-06
9.49481e-06
8.91117e-06
8.08345e-06
7.04698e-06
5.84224e-06
1.70843e-05
1.00896e-05
6.2839e-06
4.92926e-06
4.90685e-06
5.66889e-06
6.40128e-06
6.79952e-06
6.9263e-06
6.85437e-06
6.62884e-06
6.27657e-06
5.82033e-06
5.28725e-06
4.70981e-06
4.12349e-06
3.5649e-06
3.073e-06
2.69669e-06
2.5013e-06
2.56604e-06
2.9383e-06
3.59091e-06
4.41459e-06
5.29684e-06
6.43773e-06
7.32374e-06
7.49434e-06
7.79008e-06
8.14963e-06
8.50311e-06
8.83161e-06
9.13906e-06
9.46331e-06
9.68986e-06
9.77481e-06
9.66609e-06
9.31342e-06
8.71003e-06
8.02132e-06
4.98428e-06
1.07843e-05
1.32162e-05
1.3881e-05
1.37461e-05
1.35738e-05
1.35562e-05
1.35296e-05
1.31868e-05
1.24894e-05
1.15889e-05
1.07934e-05
1.05625e-05
1.0491e-05
1.04785e-05
1.07821e-05
1.12334e-05
1.16918e-05
1.21869e-05
1.27582e-05
1.34545e-05
1.43319e-05
1.54536e-05
1.68912e-05
1.87217e-05
2.10208e-05
2.38427e-05
2.7185e-05
3.09342e-05
3.48109e-05
3.8365e-05
4.10847e-05
4.2976e-05
4.48295e-05
4.66704e-05
4.84913e-05
5.02839e-05
5.20402e-05
5.37526e-05
5.54127e-05
5.70109e-05
5.85357e-05
5.99725e-05
6.13039e-05
6.25095e-05
6.35668e-05
6.44524e-05
6.51436e-05
6.56188e-05
6.58587e-05
6.58451e-05
6.55592e-05
6.49779e-05
6.407e-05
6.27971e-05
6.11486e-05
5.94237e-05
5.77536e-05
5.61015e-05
5.44617e-05
5.28251e-05
5.11793e-05
4.95094e-05
4.77926e-05
4.59606e-05
4.38205e-05
4.08327e-05
3.60875e-05
3.07889e-05
2.65329e-05
2.36116e-05
2.15437e-05
1.98588e-05
1.82358e-05
1.58482e-05
1.30531e-05
1.0427e-05
8.48999e-06
7.46573e-06
7.24019e-06
7.18307e-06
6.82259e-06
6.22571e-06
5.76469e-06
5.62707e-06
5.86569e-06
6.20117e-06
6.17297e-06
6.10361e-06
6.26658e-06
6.63602e-06
6.97529e-06
7.36167e-06
7.88466e-06
8.64237e-06
9.7408e-06
1.12925e-05
1.33964e-05
1.60733e-05
1.9141e-05
2.21155e-05
2.43149e-05
2.6094e-05
2.78736e-05
2.96446e-05
3.13895e-05
3.30881e-05
3.47177e-05
3.62533e-05
3.76665e-05
3.89253e-05
3.99956e-05
4.08421e-05
4.14302e-05
4.17205e-05
4.16482e-05
4.10628e-05
3.99501e-05
3.87046e-05
3.73063e-05
3.57685e-05
3.40995e-05
3.2307e-05
3.04016e-05
2.83986e-05
2.63187e-05
2.41875e-05
2.20343e-05
1.98863e-05
1.77634e-05
1.56086e-05
1.25552e-05
9.75766e-06
7.8949e-06
6.79456e-06
6.17718e-06
5.83481e-06
5.63325e-06
5.50137e-06
5.49553e-06
5.73221e-06
5.88295e-06
6.09379e-06
6.44944e-06
6.94983e-06
7.50794e-06
8.09287e-06
8.68106e-06
9.23717e-06
9.72216e-06
1.00983e-05
1.03339e-05
1.04057e-05
1.03002e-05
1.00137e-05
9.55419e-06
8.94567e-06
8.23567e-06
7.5112e-06
6.92019e-06
6.6691e-06
6.96814e-06
7.89107e-06
9.3333e-06
1.13035e-05
1.39649e-05
1.58396e-05
1.46838e-05
1.35901e-05
1.37822e-05
1.46588e-05
1.56779e-05
1.65475e-05
1.71679e-05
1.77459e-05
1.82066e-05
1.84162e-05
1.822e-05
1.74544e-05
1.60326e-05
7.66753e-06
1.54463e-05
1.83366e-05
1.84384e-05
1.77971e-05
1.67627e-05
1.53772e-05
1.45437e-05
1.41722e-05
1.39711e-05
1.37699e-05
1.35835e-05
1.35424e-05
1.36946e-05
1.40715e-05
1.47312e-05
1.56619e-05
1.68991e-05
1.85234e-05
2.06276e-05
2.33045e-05
2.66249e-05
3.06048e-05
3.51651e-05
4.01008e-05
4.50874e-05
4.97464e-05
5.37541e-05
5.69365e-05
5.92936e-05
6.09493e-05
6.21055e-05
6.32641e-05
6.44967e-05
6.58071e-05
6.7192e-05
6.86472e-05
7.01688e-05
7.17529e-05
7.33945e-05
7.5086e-05
7.68149e-05
7.85627e-05
8.03031e-05
8.20022e-05
8.36187e-05
8.5106e-05
8.64147e-05
8.74966e-05
8.83076e-05
8.88111e-05
8.89804e-05
8.88006e-05
8.82686e-05
8.73943e-05
8.62062e-05
8.48718e-05
8.3471e-05
8.20182e-05
8.0523e-05
7.89829e-05
7.73794e-05
7.56791e-05
7.3837e-05
7.17995e-05
6.94981e-05
6.68139e-05
6.35456e-05
5.94367e-05
5.39163e-05
4.72727e-05
4.09936e-05
3.55745e-05
3.09813e-05
2.68567e-05
2.29562e-05
1.92963e-05
1.6125e-05
1.36517e-05
1.18924e-05
1.06366e-05
9.34178e-06
8.08754e-06
7.28193e-06
7.01665e-06
6.90879e-06
6.68765e-06
6.59027e-06
6.75872e-06
7.27258e-06
8.19463e-06
9.62917e-06
1.17791e-05
1.48109e-05
1.87654e-05
2.34577e-05
2.8436e-05
3.30825e-05
3.686e-05
3.95382e-05
4.12108e-05
4.21268e-05
4.28837e-05
4.35812e-05
4.42263e-05
4.4824e-05
4.5379e-05
4.58945e-05
4.63698e-05
4.67978e-05
4.71631e-05
4.74426e-05
4.76096e-05
4.76406e-05
4.75193e-05
4.72321e-05
4.67729e-05
4.62333e-05
4.56303e-05
4.49676e-05
4.42569e-05
4.35031e-05
4.27064e-05
4.18652e-05
4.09762e-05
4.00352e-05
3.90367e-05
3.79737e-05
3.68349e-05
3.56025e-05
3.42112e-05
3.23463e-05
2.90973e-05
2.44359e-05
1.93691e-05
1.49762e-05
1.17152e-05
9.4859e-06
8.00301e-06
7.04051e-06
6.44274e-06
6.04385e-06
5.77494e-06
5.60057e-06
5.49879e-06
5.4608e-06
5.49119e-06
5.60255e-06
5.8066e-06
6.10645e-06
6.49148e-06
6.93574e-06
7.39987e-06
7.83549e-06
8.19117e-06
8.41877e-06
8.47934e-06
8.35034e-06
8.03806e-06
7.61672e-06
7.30928e-06
7.50008e-06
8.53817e-06
1.06088e-05
1.38944e-05
1.74563e-05
1.75299e-05
1.55674e-05
1.52124e-05
1.57527e-05
1.62996e-05
1.67055e-05
1.70599e-05
1.74127e-05
1.78666e-05
1.83319e-05
1.86793e-05
1.87452e-05
1.83601e-05
1.75124e-05
1.02013e-05
2.11078e-05
2.27549e-05
2.10043e-05
1.89878e-05
1.7536e-05
1.66228e-05
1.60927e-05
1.5802e-05
1.56626e-05
1.56766e-05
1.59123e-05
1.6451e-05
1.73399e-05
1.862e-05
2.03419e-05
2.25492e-05
2.52953e-05
2.86089e-05
3.24513e-05
3.66826e-05
4.10514e-05
4.52284e-05
4.8886e-05
5.17928e-05
5.38749e-05
5.52134e-05
5.59867e-05
5.63979e-05
5.66204e-05
5.67735e-05
5.70426e-05
5.74858e-05
5.80911e-05
5.88458e-05
5.97431e-05
6.07833e-05
6.19732e-05
6.33246e-05
6.48507e-05
6.65625e-05
6.8465e-05
7.05529e-05
7.28083e-05
7.5198e-05
7.76731e-05
8.01704e-05
8.26154e-05
8.49272e-05
8.70244e-05
8.88304e-05
9.02793e-05
9.13203e-05
9.19196e-05
9.20596e-05
9.17377e-05
9.10775e-05
9.0182e-05
8.90936e-05
8.78423e-05
8.64495e-05
8.49265e-05
8.32741e-05
8.14815e-05
7.95264e-05
7.73752e-05
7.49861e-05
7.23084e-05
6.92608e-05
6.56614e-05
6.11882e-05
5.53906e-05
4.90355e-05
4.27962e-05
3.70681e-05
3.1962e-05
2.7481e-05
2.36632e-05
2.05018e-05
1.77023e-05
1.48774e-05
1.20798e-05
9.87478e-06
8.49209e-06
7.62842e-06
7.13256e-06
7.05158e-06
7.40075e-06
8.29704e-06
9.89719e-06
1.24231e-05
1.60704e-05
2.08361e-05
2.63291e-05
3.18145e-05
3.65195e-05
3.99889e-05
4.2205e-05
4.34395e-05
4.40289e-05
4.42366e-05
4.42272e-05
4.41998e-05
4.41578e-05
4.40966e-05
4.40174e-05
4.39279e-05
4.38402e-05
4.37665e-05
4.37125e-05
4.36726e-05
4.36278e-05
4.35505e-05
4.34142e-05
4.32027e-05
4.2911e-05
4.25883e-05
4.22424e-05
4.18777e-05
4.15065e-05
4.1138e-05
4.07774e-05
4.04279e-05
4.00919e-05
3.97718e-05
3.94693e-05
3.91852e-05
3.89181e-05
3.86631e-05
3.84092e-05
3.81314e-05
3.77518e-05
3.6968e-05
3.53418e-05
3.26105e-05
2.88332e-05
2.45144e-05
2.03437e-05
1.67996e-05
1.40296e-05
1.19591e-05
1.04261e-05
9.28785e-06
8.43512e-06
7.78486e-06
7.27491e-06
6.86322e-06
6.5263e-06
6.25619e-06
6.05556e-06
5.93205e-06
5.89273e-06
5.93933e-06
6.0647e-06
6.25109e-06
6.47016e-06
6.68489e-06
6.85422e-06
6.9449e-06
6.96566e-06
7.04631e-06
7.49203e-06
8.77135e-06
1.15337e-05
1.56469e-05
1.85955e-05
1.71611e-05
1.58196e-05
1.58761e-05
1.60296e-05
1.59511e-05
1.58476e-05
1.58672e-05
1.60447e-05
1.63912e-05
1.68449e-05
1.73019e-05
1.76029e-05
1.7548e-05
1.71061e-05
1.29131e-05
2.51633e-05
2.597e-05
2.34676e-05
2.08336e-05
1.90942e-05
1.81185e-05
1.76402e-05
1.75238e-05
1.77332e-05
1.82914e-05
1.92437e-05
2.06312e-05
2.24781e-05
2.4798e-05
2.75862e-05
3.07956e-05
3.43155e-05
3.79485e-05
4.14211e-05
4.44343e-05
4.67415e-05
4.82178e-05
4.88901e-05
4.89136e-05
4.85118e-05
4.79104e-05
4.72935e-05
4.67874e-05
4.6464e-05
4.63538e-05
4.64649e-05
4.67064e-05
4.70402e-05
4.74422e-05
4.79038e-05
4.84343e-05
4.90627e-05
4.98357e-05
5.08114e-05
5.20496e-05
5.36018e-05
5.55024e-05
5.77647e-05
6.0377e-05
6.33013e-05
6.6472e-05
6.97994e-05
7.31748e-05
7.64791e-05
7.95905e-05
8.2394e-05
8.47905e-05
8.6699e-05
8.80504e-05
8.87723e-05
8.90226e-05
8.88848e-05
8.83977e-05
8.75927e-05
8.64978e-05
8.51369e-05
8.35309e-05
8.17005e-05
7.96697e-05
7.74654e-05
7.51116e-05
7.26209e-05
6.99929e-05
6.71952e-05
6.40935e-05
6.03662e-05
5.55714e-05
5.00148e-05
4.42581e-05
3.88127e-05
3.39752e-05
2.98021e-05
2.60659e-05
2.225e-05
1.8004e-05
1.39536e-05
1.08435e-05
8.76781e-06
7.61405e-06
7.40422e-06
7.82336e-06
8.94628e-06
1.09633e-05
1.4108e-05
1.85266e-05
2.40065e-05
2.98433e-05
3.50804e-05
3.90039e-05
4.14431e-05
4.26718e-05
4.31162e-05
4.31397e-05
4.29722e-05
4.27295e-05
4.24627e-05
4.21916e-05
4.18893e-05
4.15371e-05
4.11312e-05
4.06842e-05
4.02228e-05
3.97803e-05
3.93852e-05
3.90508e-05
3.87678e-05
3.85103e-05
3.82449e-05
3.79503e-05
3.76449e-05
3.73395e-05
3.70294e-05
3.67268e-05
3.64411e-05
3.61782e-05
3.59425e-05
3.57389e-05
3.55736e-05
3.54541e-05
3.53886e-05
3.53846e-05
3.54485e-05
3.55842e-05
3.57908e-05
3.6059e-05
3.63589e-05
3.65867e-05
3.65332e-05
3.59799e-05
3.47011e-05
3.25917e-05
2.97798e-05
2.66065e-05
2.34679e-05
2.06498e-05
1.82728e-05
1.63378e-05
1.47839e-05
1.35274e-05
1.24841e-05
1.15849e-05
1.07821e-05
1.00488e-05
9.37508e-06
8.76323e-06
8.22249e-06
7.76502e-06
7.40201e-06
7.14035e-06
6.97995e-06
6.91193e-06
6.91816e-06
6.97452e-06
7.0681e-06
7.24426e-06
7.69226e-06
9.0726e-06
1.23236e-05
1.66457e-05
1.85321e-05
1.6652e-05
1.5968e-05
1.59875e-05
1.56879e-05
1.52189e-05
1.48555e-05
1.46908e-05
1.47361e-05
1.49643e-05
1.53589e-05
1.58545e-05
1.63117e-05
1.65051e-05
1.63405e-05
1.52007e-05
2.87252e-05
2.92735e-05
2.60253e-05
2.29695e-05
2.10668e-05
2.01184e-05
1.98442e-05
2.01023e-05
2.08437e-05
2.20595e-05
2.37465e-05
2.58865e-05
2.84332e-05
3.13015e-05
3.43534e-05
3.73909e-05
4.0171e-05
4.24451e-05
4.40174e-05
4.47986e-05
4.48325e-05
4.42803e-05
4.33717e-05
4.23415e-05
4.13821e-05
4.06206e-05
4.01212e-05
3.98984e-05
3.9934e-05
4.02023e-05
4.05621e-05
4.0942e-05
4.12884e-05
4.15528e-05
4.16978e-05
4.17092e-05
4.16079e-05
4.14597e-05
4.13758e-05
4.14988e-05
4.19748e-05
4.29239e-05
4.44221e-05
4.65006e-05
4.91497e-05
5.23202e-05
5.59237e-05
5.9836e-05
6.39083e-05
6.79756e-05
7.18676e-05
7.54328e-05
7.85418e-05
8.09991e-05
8.2789e-05
8.40517e-05
8.48127e-05
8.50851e-05
8.4884e-05
8.42269e-05
8.31318e-05
8.16182e-05
7.97125e-05
7.74602e-05
7.49368e-05
7.22486e-05
6.95142e-05
6.68357e-05
6.42715e-05
6.17944e-05
5.92138e-05
5.61204e-05
5.21394e-05
4.74839e-05
4.26217e-05
3.797e-05
3.36082e-05
2.91799e-05
2.42199e-05
1.89536e-05
1.43046e-05
1.08036e-05
8.50232e-06
7.69469e-06
7.97737e-06
9.09105e-06
1.11941e-05
1.45111e-05
1.91448e-05
2.48106e-05
3.06967e-05
3.57752e-05
3.9355e-05
4.13657e-05
4.21884e-05
4.23152e-05
4.21305e-05
4.18594e-05
4.16006e-05
4.1375e-05
4.11606e-05
4.08989e-05
4.05421e-05
4.00596e-05
3.9444e-05
3.87148e-05
3.79176e-05
3.71147e-05
3.63669e-05
3.57165e-05
3.51698e-05
3.4709e-05
3.42942e-05
3.39169e-05
3.35688e-05
3.32298e-05
3.29062e-05
3.26046e-05
3.23279e-05
3.20774e-05
3.18557e-05
3.16688e-05
3.15254e-05
3.1437e-05
3.1416e-05
3.1475e-05
3.16254e-05
3.18763e-05
3.22332e-05
3.26949e-05
3.32491e-05
3.38512e-05
3.44112e-05
3.48064e-05
3.4874e-05
3.44483e-05
3.34287e-05
3.18402e-05
2.98382e-05
2.76465e-05
2.54735e-05
2.34596e-05
2.1666e-05
2.00911e-05
1.86973e-05
1.74373e-05
1.62712e-05
1.51727e-05
1.41298e-05
1.31414e-05
1.22139e-05
1.13582e-05
1.05872e-05
9.91386e-06
9.34931e-06
8.90109e-06
8.57046e-06
8.34816e-06
8.20989e-06
8.12144e-06
8.22357e-06
9.46989e-06
1.28669e-05
1.70203e-05
1.80676e-05
1.63252e-05
1.60748e-05
1.58905e-05
1.52959e-05
1.46672e-05
1.42049e-05
1.3929e-05
1.38378e-05
1.3913e-05
1.41898e-05
1.46461e-05
1.51741e-05
1.55376e-05
1.55964e-05
1.61939e-05
3.05406e-05
3.13364e-05
2.82305e-05
2.51849e-05
2.33478e-05
2.2612e-05
2.26985e-05
2.34345e-05
2.47256e-05
2.65036e-05
2.86916e-05
3.11839e-05
3.38346e-05
3.64566e-05
3.88353e-05
4.07565e-05
4.20477e-05
4.26189e-05
4.249e-05
4.17915e-05
4.07334e-05
3.95515e-05
3.84541e-05
3.75872e-05
3.70262e-05
3.67863e-05
3.68407e-05
3.71388e-05
3.76197e-05
3.8239e-05
3.89319e-05
3.9647e-05
4.03151e-05
4.08504e-05
4.11577e-05
4.11469e-05
4.07556e-05
3.99795e-05
3.89035e-05
3.77173e-05
3.66928e-05
3.61157e-05
3.62057e-05
3.70815e-05
3.8779e-05
4.12788e-05
4.45124e-05
4.83594e-05
5.26587e-05
5.72175e-05
6.18004e-05
6.62083e-05
7.02238e-05
7.35564e-05
7.63564e-05
7.8613e-05
8.02983e-05
8.13887e-05
8.18692e-05
8.17331e-05
8.09795e-05
7.96126e-05
7.76483e-05
7.51322e-05
7.21647e-05
6.89183e-05
6.56224e-05
6.25118e-05
5.97589e-05
5.742e-05
5.53858e-05
5.3341e-05
5.07736e-05
4.74797e-05
4.3624e-05
3.94851e-05
3.50978e-05
3.01533e-05
2.4518e-05
1.88553e-05
1.4027e-05
1.03907e-05
8.279e-06
7.98019e-06
8.84699e-06
1.07568e-05
1.39056e-05
1.84086e-05
2.40184e-05
2.99643e-05
3.51876e-05
3.8908e-05
4.09876e-05
4.18081e-05
4.19055e-05
4.17086e-05
4.14687e-05
4.12925e-05
4.11944e-05
4.11384e-05
4.10542e-05
4.08556e-05
4.04819e-05
3.98935e-05
3.90791e-05
3.80637e-05
3.69107e-05
3.57143e-05
3.45715e-05
3.35629e-05
3.27098e-05
3.20125e-05
3.14447e-05
3.09741e-05
3.05518e-05
3.01686e-05
2.9822e-05
2.95082e-05
2.92218e-05
2.89585e-05
2.87192e-05
2.851e-05
2.83418e-05
2.82284e-05
2.81848e-05
2.82266e-05
2.83688e-05
2.86248e-05
2.90045e-05
2.95112e-05
3.01378e-05
3.08565e-05
3.16285e-05
3.23853e-05
3.30279e-05
3.34358e-05
3.34932e-05
3.31265e-05
3.23346e-05
3.11896e-05
2.98083e-05
2.83125e-05
2.67972e-05
2.53178e-05
2.38935e-05
2.25223e-05
2.11954e-05
1.99066e-05
1.86557e-05
1.74479e-05
1.6292e-05
1.5199e-05
1.41801e-05
1.32455e-05
1.24042e-05
1.1663e-05
1.10236e-05
1.04728e-05
9.95765e-06
9.37126e-06
8.9167e-06
9.85669e-06
1.31513e-05
1.69747e-05
1.7551e-05
1.61059e-05
1.60962e-05
1.57761e-05
1.50569e-05
1.44165e-05
1.39423e-05
1.3586e-05
1.33459e-05
1.32377e-05
1.33488e-05
1.37034e-05
1.4222e-05
1.46732e-05
1.49178e-05
1.57038e-05
3.08036e-05
3.2451e-05
2.99362e-05
2.72299e-05
2.56822e-05
2.53094e-05
2.58379e-05
2.70488e-05
2.87836e-05
3.0898e-05
3.3232e-05
3.55998e-05
3.77961e-05
3.96172e-05
4.08903e-05
4.15045e-05
4.14354e-05
4.07576e-05
3.96343e-05
3.82832e-05
3.6927e-05
3.57476e-05
3.48605e-05
3.43131e-05
3.40989e-05
3.41785e-05
3.44991e-05
3.50076e-05
3.56569e-05
3.64693e-05
3.7454e-05
3.85731e-05
3.97555e-05
4.08966e-05
4.18607e-05
4.24887e-05
4.26141e-05
4.20919e-05
4.08509e-05
3.89697e-05
3.67332e-05
3.45973e-05
3.30349e-05
3.23625e-05
3.27086e-05
3.40963e-05
3.64911e-05
3.97937e-05
4.38481e-05
4.84752e-05
5.33516e-05
5.82488e-05
6.27316e-05
6.68474e-05
7.05235e-05
7.36799e-05
7.62421e-05
7.81443e-05
7.93315e-05
7.97616e-05
7.94038e-05
7.82369e-05
7.62552e-05
7.34892e-05
7.00441e-05
6.61367e-05
6.2096e-05
5.82995e-05
5.50621e-05
5.25381e-05
5.06759e-05
4.92005e-05
4.76366e-05
4.55185e-05
4.26863e-05
3.91647e-05
3.49108e-05
2.97664e-05
2.39587e-05
1.83134e-05
1.35086e-05
9.9617e-06
8.22105e-06
8.4287e-06
9.91505e-06
1.26395e-05
1.67474e-05
2.21111e-05
2.80977e-05
3.36767e-05
3.79145e-05
4.04653e-05
4.1603e-05
4.18773e-05
4.17815e-05
4.16251e-05
4.15492e-05
4.15829e-05
4.16888e-05
4.17957e-05
4.18062e-05
4.16345e-05
4.12152e-05
4.05026e-05
3.94807e-05
3.81756e-05
3.66611e-05
3.50614e-05
3.35117e-05
3.21306e-05
3.09543e-05
3.0038e-05
2.93095e-05
2.871e-05
2.82076e-05
2.77816e-05
2.74155e-05
2.70927e-05
2.67983e-05
2.65228e-05
2.62652e-05
2.60319e-05
2.58342e-05
2.5686e-05
2.56023e-05
2.55991e-05
2.56941e-05
2.59052e-05
2.62491e-05
2.6737e-05
2.73674e-05
2.81193e-05
2.89678e-05
2.98659e-05
3.07488e-05
3.15352e-05
3.21366e-05
3.24745e-05
3.24987e-05
3.22008e-05
3.1612e-05
3.07892e-05
2.97954e-05
2.86846e-05
2.74951e-05
2.62515e-05
2.49715e-05
2.36709e-05
2.23665e-05
2.10766e-05
1.98192e-05
1.86112e-05
1.74666e-05
1.6395e-05
1.54014e-05
1.44843e-05
1.36313e-05
1.28031e-05
1.18932e-05
1.07304e-05
9.64952e-06
1.0187e-05
1.32121e-05
1.66778e-05
1.70849e-05
1.59213e-05
1.59927e-05
1.57129e-05
1.50205e-05
1.44452e-05
1.40067e-05
1.35856e-05
1.31876e-05
1.28808e-05
1.27973e-05
1.30038e-05
1.3433e-05
1.39267e-05
1.43069e-05
1.47245e-05
3.01487e-05
3.27915e-05
3.11388e-05
2.89992e-05
2.78766e-05
2.79249e-05
2.88855e-05
3.04892e-05
3.25057e-05
3.47159e-05
3.68961e-05
3.88249e-05
4.03042e-05
4.11848e-05
4.13868e-05
4.09152e-05
3.98632e-05
3.84007e-05
3.67435e-05
3.51076e-05
3.36673e-05
3.25303e-05
3.17352e-05
3.12682e-05
3.10861e-05
3.11391e-05
3.13877e-05
3.18099e-05
3.24005e-05
3.3276e-05
3.44669e-05
3.59428e-05
3.76316e-05
3.94204e-05
4.1159e-05
4.26634e-05
4.37276e-05
4.41186e-05
4.35996e-05
4.20148e-05
3.94433e-05
3.63192e-05
3.33473e-05
3.11676e-05
3.00906e-05
3.02152e-05
3.15539e-05
3.40484e-05
3.75389e-05
4.19309e-05
4.67186e-05
5.16464e-05
5.65506e-05
6.12675e-05
6.56536e-05
6.95816e-05
7.29345e-05
7.56032e-05
7.74883e-05
7.85044e-05
7.85819e-05
7.76663e-05
7.57219e-05
7.27534e-05
6.88539e-05
6.42632e-05
5.93919e-05
5.47592e-05
5.08428e-05
4.79189e-05
4.59912e-05
4.48023e-05
4.38817e-05
4.26393e-05
4.06614e-05
3.77344e-05
3.3742e-05
2.86846e-05
2.30379e-05
1.76123e-05
1.29661e-05
9.65208e-06
8.30042e-06
8.94779e-06
1.10538e-05
1.45333e-05
1.94137e-05
2.52838e-05
3.12353e-05
3.62138e-05
3.95692e-05
4.13298e-05
4.19836e-05
4.20887e-05
4.20438e-05
4.20559e-05
4.21909e-05
4.24282e-05
4.26955e-05
4.28974e-05
4.29279e-05
4.27193e-05
4.22088e-05
4.13497e-05
4.01206e-05
3.8547e-05
3.67039e-05
3.47284e-05
3.28126e-05
3.1074e-05
2.96644e-05
2.85158e-05
2.7599e-05
2.68736e-05
2.63001e-05
2.58434e-05
2.54712e-05
2.51533e-05
2.48654e-05
2.45937e-05
2.43358e-05
2.40975e-05
2.38883e-05
2.3719e-05
2.36008e-05
2.3547e-05
2.35748e-05
2.37057e-05
2.39644e-05
2.43737e-05
2.49466e-05
2.56771e-05
2.65453e-05
2.75092e-05
2.85137e-05
2.94936e-05
3.03791e-05
3.11042e-05
3.16148e-05
3.18764e-05
3.18777e-05
3.16284e-05
3.11524e-05
3.04798e-05
2.96405e-05
2.86626e-05
2.75733e-05
2.64003e-05
2.51724e-05
2.39188e-05
2.2667e-05
2.1442e-05
2.02633e-05
1.91435e-05
1.80864e-05
1.70832e-05
1.61039e-05
1.5072e-05
1.38133e-05
1.20965e-05
1.03957e-05
1.04698e-05
1.31135e-05
1.62401e-05
1.66686e-05
1.57405e-05
1.57853e-05
1.56324e-05
1.51157e-05
1.46777e-05
1.42937e-05
1.3817e-05
1.32604e-05
1.27587e-05
1.24708e-05
1.24924e-05
1.28145e-05
1.33019e-05
1.37696e-05
1.35084e-05
2.89897e-05
3.26488e-05
3.19785e-05
3.05054e-05
2.98341e-05
3.02668e-05
3.15805e-05
3.34642e-05
3.56222e-05
3.77763e-05
3.96685e-05
4.10805e-05
4.18557e-05
4.19142e-05
4.12607e-05
3.99842e-05
3.82482e-05
3.62662e-05
3.42617e-05
3.24236e-05
3.08741e-05
2.96598e-05
2.87646e-05
2.81365e-05
2.77185e-05
2.74742e-05
2.74044e-05
2.75482e-05
2.79722e-05
2.88688e-05
3.02487e-05
3.20666e-05
3.42345e-05
3.66238e-05
3.90663e-05
4.13556e-05
4.32913e-05
4.46479e-05
4.51412e-05
4.44507e-05
4.23733e-05
3.9088e-05
3.53047e-05
3.19934e-05
2.97057e-05
2.86695e-05
2.896e-05
3.06014e-05
3.33947e-05
3.71671e-05
4.16605e-05
4.66075e-05
5.17592e-05
5.68974e-05
6.18338e-05
6.64006e-05
7.04419e-05
7.38079e-05
7.6356e-05
7.79552e-05
7.84922e-05
7.78731e-05
7.60267e-05
7.29236e-05
6.86294e-05
6.33849e-05
5.76596e-05
5.21053e-05
4.73776e-05
4.39031e-05
4.17481e-05
4.06532e-05
4.01192e-05
3.94744e-05
3.81394e-05
3.57336e-05
3.20883e-05
2.73158e-05
2.20095e-05
1.69025e-05
1.25105e-05
9.49586e-06
8.49578e-06
9.50165e-06
1.20879e-05
1.61641e-05
2.16273e-05
2.78055e-05
3.35349e-05
3.79321e-05
4.06361e-05
4.19258e-05
4.23729e-05
4.2486e-05
4.25771e-05
4.27799e-05
4.31064e-05
4.34978e-05
4.38572e-05
4.40729e-05
4.40445e-05
4.37317e-05
4.30851e-05
4.20611e-05
4.0631e-05
3.88221e-05
3.67207e-05
3.44158e-05
3.22516e-05
3.02901e-05
2.86115e-05
2.72382e-05
2.61566e-05
2.53291e-05
2.47084e-05
2.42449e-05
2.38901e-05
2.36004e-05
2.33436e-05
2.31026e-05
2.2874e-05
2.26618e-05
2.24716e-05
2.23082e-05
2.21761e-05
2.20828e-05
2.20417e-05
2.20745e-05
2.2211e-05
2.24858e-05
2.29298e-05
2.35645e-05
2.43842e-05
2.53532e-05
2.64185e-05
2.75158e-05
2.85773e-05
2.95398e-05
3.03504e-05
3.09697e-05
3.1372e-05
3.15446e-05
3.14862e-05
3.12047e-05
3.07148e-05
3.00366e-05
2.91955e-05
2.82218e-05
2.71488e-05
2.60117e-05
2.48446e-05
2.36786e-05
2.25386e-05
2.14411e-05
2.03904e-05
1.93726e-05
1.83416e-05
1.71835e-05
1.56552e-05
1.34646e-05
1.11826e-05
1.0743e-05
1.29249e-05
1.57303e-05
1.62776e-05
1.55566e-05
1.55177e-05
1.54947e-05
1.52117e-05
1.49302e-05
1.46138e-05
1.41209e-05
1.34459e-05
1.27662e-05
1.22832e-05
1.21318e-05
1.23386e-05
1.27932e-05
1.33121e-05
1.21548e-05
2.75943e-05
3.22529e-05
3.25937e-05
3.18009e-05
3.15306e-05
3.22486e-05
3.38038e-05
3.5867e-05
3.80936e-05
4.0162e-05
4.17965e-05
4.27919e-05
4.303e-05
4.2484e-05
4.12144e-05
3.9361e-05
3.71267e-05
3.47467e-05
3.24444e-05
3.0386e-05
2.86533e-05
2.72437e-05
2.60938e-05
2.51174e-05
2.42507e-05
2.34928e-05
2.29264e-05
2.27036e-05
2.30298e-05
2.40388e-05
2.56731e-05
2.78508e-05
3.04673e-05
3.33907e-05
3.64465e-05
3.93766e-05
4.19785e-05
4.40561e-05
4.53625e-05
4.5552e-05
4.42582e-05
4.13826e-05
3.74042e-05
3.35128e-05
3.04169e-05
2.8503e-05
2.791e-05
2.86703e-05
3.07361e-05
3.39689e-05
3.81467e-05
4.30029e-05
4.82669e-05
5.36881e-05
5.90425e-05
6.41266e-05
6.87502e-05
7.27288e-05
7.5882e-05
7.80374e-05
7.90386e-05
7.87507e-05
7.70638e-05
7.39087e-05
6.93104e-05
6.34852e-05
5.69314e-05
5.04142e-05
4.47761e-05
4.0627e-05
3.81185e-05
3.69755e-05
3.6638e-05
3.63614e-05
3.54736e-05
3.35025e-05
3.02475e-05
2.58744e-05
2.09949e-05
1.62587e-05
1.21798e-05
9.47739e-06
8.76475e-06
1.00442e-05
1.29923e-05
1.74702e-05
2.32088e-05
2.94059e-05
3.49365e-05
3.89855e-05
4.1354e-05
4.23967e-05
4.27805e-05
4.29665e-05
4.32064e-05
4.35839e-05
4.40683e-05
4.45646e-05
4.49475e-05
4.50992e-05
4.49463e-05
4.44699e-05
4.36494e-05
4.245e-05
4.08306e-05
3.87974e-05
3.65325e-05
3.41157e-05
3.17296e-05
2.95358e-05
2.7642e-05
2.60941e-05
2.48921e-05
2.40028e-05
2.33717e-05
2.29348e-05
2.2628e-05
2.23955e-05
2.21987e-05
2.20186e-05
2.18507e-05
2.1696e-05
2.1555e-05
2.14253e-05