/*--------------------------------*- C++ -*----------------------------------*\
  =========                 |
  \\      /  F ield         | OpenFOAM: The Open Source CFD Toolbox
   \\    /   O peration     | Website:  https://openfoam.org
    \\  /    A nd           | Version:  9
     \\/     M anipulation  |
\*---------------------------------------------------------------------------*/
FoamFile
{
    format      ascii;
    class       surfaceScalarField;
    location    "0.15";
    object      phi;
}
// * * * * * * * * * * * * * * * * * * * * * * * * * * * * * * * * * * * * * //

dimensions      [0 3 -1 0 0 0 0];

internalField   nonuniform List<scalar> 
24170
(
3.0519e-06
1.36503e-07
2.89411e-06
1.57788e-07
2.74801e-06
1.46101e-07
2.61117e-06
1.3684e-07
2.48338e-06
1.27789e-07
2.36635e-06
1.17038e-07
2.26078e-06
1.0557e-07
2.16656e-06
9.4217e-08
2.08327e-06
8.32851e-08
2.01034e-06
7.29344e-08
1.94702e-06
6.33203e-08
1.89244e-06
5.45831e-08
1.84558e-06
4.68549e-08
1.80528e-06
4.03025e-08
1.77003e-06
3.52495e-08
1.73738e-06
3.26454e-08
1.70223e-06
3.51549e-08
5.74898e-08
1.64474e-06
3.49138e-06
6.23692e-08
3.53976e-06
1.09408e-07
3.57165e-06
1.14219e-07
3.5887e-06
1.19781e-07
3.59309e-06
1.23404e-07
3.58779e-06
1.22335e-07
3.5754e-06
1.17963e-07
3.55798e-06
1.11637e-07
3.53725e-06
1.04018e-07
3.51461e-06
9.55697e-08
3.49118e-06
8.67533e-08
3.46776e-06
7.80042e-08
3.44488e-06
6.97277e-08
3.42283e-06
6.23579e-08
3.40154e-06
5.65428e-08
3.3806e-06
5.35781e-08
3.35923e-06
5.65233e-08
7.02638e-08
3.34646e-06
3.6776e-06
4.72816e-08
3.69446e-06
9.25559e-08
3.71175e-06
9.69214e-08
3.73089e-06
1.00642e-07
3.75017e-06
1.04125e-07
3.7684e-06
1.04102e-07
3.78504e-06
1.01325e-07
3.79973e-06
9.69443e-08
3.81229e-06
9.14623e-08
3.82268e-06
8.5177e-08
3.83101e-06
7.84253e-08
3.83744e-06
7.15717e-08
3.84219e-06
6.49848e-08
3.84546e-06
5.90872e-08
3.84753e-06
5.44726e-08
3.84898e-06
5.21274e-08
3.8521e-06
5.33962e-08
5.84623e-08
3.86391e-06
3.93373e-06
3.89372e-08
3.94429e-06
8.19961e-08
3.95166e-06
8.95517e-08
3.95953e-06
9.27719e-08
3.96796e-06
9.56973e-08
3.97652e-06
9.55434e-08
3.9852e-06
9.26423e-08
3.99395e-06
8.81972e-08
4.00258e-06
8.28291e-08
4.01092e-06
7.68402e-08
4.01882e-06
7.05259e-08
4.02618e-06
6.42086e-08
4.03295e-06
5.82121e-08
4.03915e-06
5.28928e-08
4.04495e-06
4.86729e-08
4.05101e-06
4.60695e-08
4.05917e-06
4.52339e-08
4.46474e-08
4.07298e-06
4.21399e-06
3.20789e-08
4.22396e-06
7.20175e-08
4.23074e-06
8.27728e-08
4.23719e-06
8.63196e-08
4.24386e-06
8.90354e-08
4.25031e-06
8.90876e-08
4.25656e-06
8.6391e-08
4.2627e-06
8.20651e-08
4.26869e-06
7.68332e-08
4.2745e-06
7.10328e-08
4.28008e-06
6.49454e-08
4.28541e-06
5.88765e-08
4.2905e-06
5.31248e-08
4.29541e-06
4.79819e-08
4.30037e-06
4.37082e-08
4.306e-06
4.04414e-08
4.31347e-06
3.77684e-08
3.36293e-08
4.32449e-06
4.51464e-06
2.65248e-08
4.52379e-06
6.28671e-08
4.53089e-06
7.56717e-08
4.53751e-06
7.97069e-08
4.54435e-06
8.21881e-08
4.55104e-06
8.2399e-08
4.55743e-06
7.99995e-08
4.56358e-06
7.59158e-08
4.5695e-06
7.09142e-08
4.57517e-06
6.53671e-08
4.58057e-06
5.95438e-08
4.58572e-06
5.37262e-08
4.59066e-06
4.8182e-08
4.59551e-06
4.31357e-08
4.6005e-06
3.87169e-08
4.6061e-06
3.48375e-08
4.61296e-06
3.09105e-08
2.51089e-08
4.62148e-06
4.83718e-06
2.20681e-08
4.84548e-06
5.45596e-08
4.85281e-06
6.8341e-08
4.85958e-06
7.29409e-08
4.86654e-06
7.523e-08
4.87345e-06
7.54916e-08
4.8801e-06
7.33478e-08
4.88651e-06
6.95058e-08
4.8927e-06
6.47255e-08
4.89865e-06
5.94158e-08
4.90435e-06
5.38401e-08
4.90982e-06
4.8253e-08
4.91512e-06
4.2886e-08
4.92035e-06
3.79058e-08
4.92571e-06
3.33582e-08
4.93148e-06
2.90692e-08
4.93787e-06
2.45193e-08
1.84728e-08
4.9445e-06
5.1832e-06
1.84496e-08
5.1907e-06
4.70563e-08
5.19807e-06
6.09774e-08
5.20493e-06
6.60772e-08
5.21194e-06
6.82211e-08
5.219e-06
6.84284e-08
5.22589e-06
6.6462e-08
5.23256e-06
6.28361e-08
5.23903e-06
5.82569e-08
5.24528e-06
5.31582e-08
5.25132e-06
4.78019e-08
5.25716e-06
4.24156e-08
5.26285e-06
3.71971e-08
5.26848e-06
3.22736e-08
5.27418e-06
2.76555e-08
5.28007e-06
2.31841e-08
5.28609e-06
1.85025e-08
1.29374e-08
5.29162e-06
5.55433e-06
1.54582e-08
5.56107e-06
4.03193e-08
5.56831e-06
5.37356e-08
5.57525e-06
5.91318e-08
5.58232e-06
6.11491e-08
5.58952e-06
6.12289e-08
5.59662e-06
5.9362e-08
5.60354e-06
5.59219e-08
5.61027e-06
5.15264e-08
5.61681e-06
4.66133e-08
5.62317e-06
4.14461e-08
5.62935e-06
3.62307e-08
5.63541e-06
3.11384e-08
5.64141e-06
2.62763e-08
5.64741e-06
2.16567e-08
5.65341e-06
1.71858e-08
5.65923e-06
1.2679e-08
7.89959e-09
5.66427e-06
5.95229e-06
1.29401e-08
5.95833e-06
3.42806e-08
5.96536e-06
4.67131e-08
5.97235e-06
5.21343e-08
5.97949e-06
5.40118e-08
5.9868e-06
5.39209e-08
5.99408e-06
5.20793e-08
6.00122e-06
4.87804e-08
6.00821e-06
4.45412e-08
6.01504e-06
3.97832e-08
6.02171e-06
3.4771e-08
6.02825e-06
2.96959e-08
6.03467e-06
2.47109e-08
6.04103e-06
1.9918e-08
6.04734e-06
1.53511e-08
6.05353e-06
1.09913e-08
6.05942e-06
6.78751e-09
2.77806e-09
6.06455e-06
6.37897e-06
1.07821e-08
6.3844e-06
2.8854e-08
6.39114e-06
3.99696e-08
6.39814e-06
4.51339e-08
6.40533e-06
4.68208e-08
6.41273e-06
4.65253e-08
6.42017e-06
4.46381e-08
6.42753e-06
4.14229e-08
6.43476e-06
3.73033e-08
6.44188e-06
3.26673e-08
6.44887e-06
2.77759e-08
6.45576e-06
2.28112e-08
6.46256e-06
1.79151e-08
6.46928e-06
1.31916e-08
6.47593e-06
8.70077e-09
6.48244e-06
4.48421e-09
6.48865e-06
5.72076e-10
-2.85763e-09
6.49429e-06
5.74245e-06
9.16342e-09
5.74663e-06
2.46762e-08
5.75209e-06
3.45132e-08
5.75796e-06
3.92564e-08
5.76407e-06
4.07157e-08
5.77038e-06
4.02201e-08
5.77677e-06
3.82448e-08
5.78314e-06
3.50518e-08
5.78944e-06
3.09996e-08
5.79567e-06
2.64392e-08
5.80182e-06
2.16229e-08
5.80791e-06
1.67264e-08
5.81394e-06
1.18857e-08
5.81992e-06
7.20839e-09
5.82585e-06
2.7711e-09
5.83169e-06
-1.35086e-09
5.83735e-06
-5.09422e-09
-8.23181e-09
5.84273e-06
6.99982e-06
7.49414e-09
7.00422e-06
2.02858e-08
7.01018e-06
2.85502e-08
7.01682e-06
3.26149e-08
7.02382e-06
3.3716e-08
7.03109e-06
3.29496e-08
7.03851e-06
3.08226e-08
7.04596e-06
2.76006e-08
7.05338e-06
2.3583e-08
7.06074e-06
1.90744e-08
7.06806e-06
1.43109e-08
7.07532e-06
9.46108e-09
7.08255e-06
4.65489e-09
7.08976e-06
2.3884e-12
7.09694e-06
-4.41042e-09
7.10408e-06
-8.48995e-09
7.11115e-06
-1.21661e-08
-1.52089e-08
7.11813e-06
8.53255e-06
5.78821e-09
8.53711e-06
1.57249e-08
8.54353e-06
2.21328e-08
8.55092e-06
2.52256e-08
8.55885e-06
2.57892e-08
8.56715e-06
2.46519e-08
8.57568e-06
2.22908e-08
8.58431e-06
1.89677e-08
8.59296e-06
1.49302e-08
8.60161e-06
1.04319e-08
8.61023e-06
5.68311e-09
8.61885e-06
8.41248e-10
8.62748e-06
-3.97089e-09
8.63613e-06
-8.64913e-09
8.64483e-06
-1.31061e-08
8.65359e-06
-1.72509e-08
8.66245e-06
-2.10292e-08
-2.42437e-08
8.67148e-06
1.0401e-05
4.05664e-09
1.04057e-05
1.10211e-08
1.04125e-05
1.5316e-08
1.04206e-05
1.71339e-08
1.04294e-05
1.69382e-08
1.04388e-05
1.52944e-08
1.04485e-05
1.25958e-08
1.04584e-05
9.07927e-09
1.04683e-05
4.94581e-09
1.04784e-05
3.96043e-10
1.04885e-05
-4.39419e-09
1.04986e-05
-9.28607e-09
1.05088e-05
-1.41699e-08
1.05191e-05
-1.8954e-08
1.05295e-05
-2.35621e-08
1.05402e-05
-2.79211e-08
1.05512e-05
-3.2002e-08
-3.56544e-08
1.05626e-05
1.26785e-05
2.30384e-09
1.26834e-05
6.18076e-09
1.26906e-05
8.14113e-09
1.26993e-05
8.39835e-09
1.2709e-05
7.20112e-09
1.27194e-05
4.88633e-09
1.27303e-05
1.72855e-09
1.27415e-05
-2.08643e-09
1.27528e-05
-6.40639e-09
1.27643e-05
-1.10837e-08
1.27759e-05
-1.59838e-08
1.27876e-05
-2.09952e-08
1.27995e-05
-2.60282e-08
1.28115e-05
-3.10094e-08
1.28238e-05
-3.5881e-08
1.28365e-05
-4.0592e-08
1.28496e-05
-4.51336e-08
-4.94002e-08
1.28634e-05
1.5455e-05
5.18029e-10
1.546e-05
1.18126e-09
1.54675e-05
6.12394e-10
1.54768e-05
-9.3849e-10
1.54874e-05
-3.3644e-09
1.54988e-05
-6.51541e-09
1.55108e-05
-1.025e-08
1.55231e-05
-1.44578e-08
1.55358e-05
-1.90429e-08
1.55486e-05
-2.39113e-08
1.55616e-05
-2.89737e-08
1.55748e-05
-3.4152e-08
1.55881e-05
-3.93809e-08
1.56017e-05
-4.46071e-08
1.56156e-05
-4.97893e-08
1.56299e-05
-5.48928e-08
1.56447e-05
-5.99131e-08
-6.47797e-08
1.56601e-05
1.88395e-05
-1.36587e-09
1.88448e-05
-4.0795e-09
1.88527e-05
-7.34908e-09
1.88627e-05
-1.08945e-08
1.8874e-05
-1.47076e-08
1.88863e-05
-1.88033e-08
1.88993e-05
-2.31789e-08
1.89126e-05
-2.78141e-08
1.89262e-05
-3.2677e-08
1.89401e-05
-3.77292e-08
1.8954e-05
-4.29284e-08
1.89681e-05
-4.82316e-08
1.89823e-05
-5.3598e-08
1.89967e-05
-5.89907e-08
1.90113e-05
-6.43787e-08
1.90261e-05
-6.97347e-08
1.90413e-05
-7.50456e-08
-8.02679e-08
1.90568e-05
2.29654e-05
-3.38466e-09
2.29711e-05
-9.83947e-09
2.29798e-05
-1.60327e-08
2.29906e-05
-2.16739e-08
2.30028e-05
-2.68828e-08
2.30158e-05
-3.18725e-08
2.30294e-05
-3.67967e-08
2.30434e-05
-4.17296e-08
2.30574e-05
-4.67068e-08
2.30714e-05
-5.17506e-08
2.30853e-05
-5.68692e-08
2.30992e-05
-6.2055e-08
2.31129e-05
-6.72891e-08
2.31264e-05
-7.25472e-08
2.31398e-05
-7.78034e-08
2.31531e-05
-8.30317e-08
2.31663e-05
-8.8206e-08
-9.33021e-08
2.31793e-05
1.68122e-05
-4.90608e-09
1.68165e-05
-1.41431e-08
1.68228e-05
-2.2348e-08
1.68304e-05
-2.92458e-08
1.68387e-05
-3.51555e-08
1.68473e-05
-4.051e-08
1.68561e-05
-4.55785e-08
1.68649e-05
-5.04824e-08
1.68735e-05
-5.52991e-08
1.68818e-05
-6.00959e-08
1.68898e-05
-6.49156e-08
1.68976e-05
-6.97718e-08
1.69049e-05
-7.46592e-08
1.69119e-05
-7.95623e-08
1.69186e-05
-8.44588e-08
1.69249e-05
-8.9323e-08
1.69308e-05
-9.41203e-08
-9.88332e-08
1.69363e-05
1.46361e-05
-6.42521e-09
1.46403e-05
-1.8359e-08
1.46462e-05
-2.82834e-08
1.4653e-05
-3.60064e-08
1.46601e-05
-4.22232e-08
1.46672e-05
-4.76479e-08
1.46742e-05
-5.26179e-08
1.4681e-05
-5.72705e-08
1.46875e-05
-6.17309e-08
1.46935e-05
-6.61158e-08
1.46991e-05
-7.04948e-08
1.47042e-05
-7.48934e-08
1.47088e-05
-7.93141e-08
1.4713e-05
-8.37488e-08
1.47167e-05
-8.81795e-08
1.472e-05
-9.25827e-08
1.47228e-05
-9.69251e-08
-1.01197e-07
1.47252e-05
1.27418e-05
-8.09433e-09
1.27463e-05
-2.28617e-08
1.27522e-05
-3.42285e-08
1.27585e-05
-4.22914e-08
1.27648e-05
-4.84624e-08
1.27709e-05
-5.37567e-08
1.27767e-05
-5.84603e-08
1.27821e-05
-6.26914e-08
1.27871e-05
-6.66423e-08
1.27914e-05
-7.04864e-08
1.27952e-05
-7.4314e-08
1.27985e-05
-7.81583e-08
1.28012e-05
-8.20303e-08
1.28034e-05
-8.59287e-08
1.28051e-05
-8.98387e-08
1.28062e-05
-9.37353e-08
1.28069e-05
-9.75745e-08
-1.01337e-07
1.2807e-05
1.10929e-05
-1.00701e-08
1.1098e-05
-2.79744e-08
1.11042e-05
-4.04245e-08
1.11102e-05
-4.8265e-08
1.11158e-05
-5.40795e-08
1.11211e-05
-5.90909e-08
1.11261e-05
-6.33975e-08
1.11305e-05
-6.71045e-08
1.11343e-05
-7.04844e-08
1.11376e-05
-7.37468e-08
1.11403e-05
-7.69842e-08
1.11423e-05
-8.02354e-08
1.11438e-05
-8.35234e-08
1.11448e-05
-8.68569e-08
1.11451e-05
-9.02274e-08
1.1145e-05
-9.36151e-08
1.11444e-05
-9.69897e-08
-1.00359e-07
1.11435e-05
9.65772e-06
-1.25737e-08
9.66368e-06
-3.3937e-08
9.67013e-06
-4.68711e-08
9.67586e-06
-5.39939e-08
9.6811e-06
-5.93186e-08
9.68591e-06
-6.39098e-08
9.69015e-06
-6.76296e-08
9.69372e-06
-7.06782e-08
9.69666e-06
-7.34262e-08
9.699e-06
-7.60831e-08
9.70074e-06
-7.87222e-08
9.70188e-06
-8.13827e-08
9.70246e-06
-8.40973e-08
9.70248e-06
-8.68822e-08
9.70199e-06
-8.97334e-08
9.70101e-06
-9.26326e-08
9.69955e-06
-9.55314e-08
-9.83927e-08
9.69758e-06
8.40873e-06
-1.59506e-08
8.41583e-06
-4.10346e-08
8.42218e-06
-5.32231e-08
8.42745e-06
-5.92672e-08
8.4324e-06
-6.42695e-08
8.43694e-06
-6.84514e-08
8.44081e-06
-7.14927e-08
8.44395e-06
-7.38179e-08
8.44641e-06
-7.58888e-08
8.44822e-06
-7.78942e-08
8.44939e-06
-7.98936e-08
8.44994e-06
-8.19333e-08
8.4499e-06
-8.40549e-08
8.4493e-06
-8.62797e-08
8.44817e-06
-8.86085e-08
8.44657e-06
-9.10249e-08
8.44455e-06
-9.35117e-08
-9.60843e-08
8.44224e-06
7.32177e-06
-2.0435e-08
7.33053e-06
-4.97996e-08
7.3366e-06
-5.92895e-08
7.34116e-06
-6.38299e-08
7.34543e-06
-6.85415e-08
7.34923e-06
-7.22429e-08
7.35235e-06
-7.46139e-08
7.35484e-06
-7.6314e-08
7.35676e-06
-7.78051e-08
7.3581e-06
-7.92297e-08
7.35885e-06
-8.06474e-08
7.35904e-06
-8.21215e-08
7.35869e-06
-8.37052e-08
7.35784e-06
-8.54279e-08
7.35653e-06
-8.73004e-08
7.35481e-06
-8.93107e-08
7.35273e-06
-9.14233e-08
-9.35244e-08
7.35017e-06
6.37539e-06
-2.57623e-08
6.38554e-06
-5.99441e-08
6.39182e-06
-6.55737e-08
6.39678e-06
-6.87859e-08
6.4014e-06
-7.31601e-08
6.4054e-06
-7.62436e-08
6.40882e-06
-7.80381e-08
6.41186e-06
-7.93557e-08
6.41461e-06
-8.05508e-08
6.41707e-06
-8.16935e-08
6.41926e-06
-8.2838e-08
6.4212e-06
-8.4057e-08
6.4229e-06
-8.54097e-08
6.42441e-06
-8.69347e-08
6.42576e-06
-8.86543e-08
6.42704e-06
-9.05887e-08
6.42833e-06
-9.27118e-08
-9.49771e-08
6.42978e-06
5.55429e-06
-3.4584e-08
5.56642e-06
-7.2077e-08
5.57731e-06
-7.64607e-08
5.58929e-06
-8.07677e-08
5.60199e-06
-8.58594e-08
5.61466e-06
-8.89157e-08
5.62708e-06
-9.04624e-08
5.63918e-06
-9.14475e-08
5.65083e-06
-9.22018e-08
5.66194e-06
-9.28054e-08
5.67244e-06
-9.33441e-08
5.6823e-06
-9.39162e-08
5.69149e-06
-9.45983e-08
5.7e-06
-9.54457e-08
5.70784e-06
-9.64928e-08
5.71506e-06
-9.78031e-08
5.72171e-06
-9.93669e-08
-1.0154e-07
5.72827e-06
4.88792e-06
-9.48975e-08
4.93407e-06
-1.18227e-07
4.97127e-06
-1.13665e-07
5.00046e-06
-1.09952e-07
5.02181e-06
-1.07207e-07
5.0363e-06
-1.03405e-07
5.0449e-06
-9.90709e-08
5.04838e-06
-9.4918e-08
5.04732e-06
-9.1144e-08
5.04226e-06
-8.77479e-08
5.03365e-06
-8.47297e-08
5.02183e-06
-8.20999e-08
5.00709e-06
-7.98581e-08
4.98964e-06
-7.79944e-08
4.96964e-06
-7.64914e-08
4.9472e-06
-7.53631e-08
4.92242e-06
-7.45909e-08
-7.44496e-08
4.89533e-06
4.10778e-06
3.98955e-06
3.87589e-06
3.76594e-06
3.65873e-06
3.55532e-06
3.45625e-06
3.36133e-06
3.27019e-06
3.18244e-06
3.09771e-06
3.01561e-06
2.93575e-06
2.85776e-06
2.78127e-06
2.70591e-06
2.63131e-06
2.55686e-06
4.15129e-07
-4.15129e-07
1.13136e-06
-7.16228e-07
1.75586e-06
-6.24501e-07
2.19419e-06
-4.38331e-07
2.45192e-06
-2.57733e-07
2.55631e-06
-1.04387e-07
2.53366e-06
2.26536e-08
2.38411e-06
1.49541e-07
2.17032e-06
2.13797e-07
1.95545e-06
2.14872e-07
1.77878e-06
1.76662e-07
1.59939e-06
1.79398e-07
1.36186e-06
2.37522e-07
1.01262e-06
3.4924e-07
4.98652e-07
5.13972e-07
-2.03457e-07
7.02109e-07
-1.06218e-06
8.58723e-07
-2.03083e-06
9.6865e-07
-3.06453e-06
1.0337e-06
-4.12176e-06
1.05723e-06
-5.16593e-06
1.04417e-06
-6.16625e-06
1.00032e-06
-7.09815e-06
9.31897e-07
-7.94304e-06
8.44891e-07
-8.68766e-06
7.44619e-07
-9.32321e-06
6.35555e-07
-9.84453e-06
5.21323e-07
-1.02494e-05
4.0486e-07
-1.05379e-05
2.88553e-07
-1.07128e-05
1.74857e-07
-1.078e-05
6.71758e-08
-1.07543e-05
-2.5707e-08
-1.06487e-05
-1.05567e-07
-1.0474e-05
-1.74744e-07
-1.02382e-05
-2.35787e-07
-9.9479e-06
-2.90277e-07
-9.60901e-06
-3.38883e-07
-9.22707e-06
-3.81944e-07
-8.80738e-06
-4.19693e-07
-8.35501e-06
-4.52363e-07
-7.8748e-06
-4.80215e-07
-7.37127e-06
-5.03529e-07
-6.84869e-06
-5.22579e-07
-6.31107e-06
-5.37619e-07
-5.76221e-06
-5.48866e-07
-5.20569e-06
-5.56517e-07
-4.64492e-06
-5.60767e-07
-4.08308e-06
-5.6184e-07
-3.52307e-06
-5.60013e-07
-2.96745e-06
-5.55626e-07
-2.41838e-06
-5.49068e-07
-1.87762e-06
-5.40754e-07
-1.34641e-06
-5.31218e-07
-8.25162e-07
-5.21244e-07
-3.12779e-07
-5.12383e-07
1.93613e-07
-5.06393e-07
6.95905e-07
-5.02291e-07
1.19504e-06
-4.99135e-07
1.69258e-06
-4.97536e-07
2.19023e-06
-4.97654e-07
2.68943e-06
-4.99204e-07
3.19026e-06
-5.00828e-07
3.68881e-06
-4.98545e-07
4.17013e-06
-4.8132e-07
4.59531e-06
-4.25179e-07
4.89966e-06
-3.04351e-07
5.01336e-06
-1.13704e-07
4.91215e-06
1.01216e-07
4.63638e-06
2.75768e-07
4.24828e-06
3.88096e-07
3.8163e-06
4.31984e-07
3.40352e-06
4.1278e-07
3.05413e-06
3.49382e-07
2.78e-06
2.7413e-07
2.56804e-06
2.11964e-07
2.40226e-06
1.65781e-07
2.27932e-06
1.22943e-07
2.22935e-06
4.99617e-08
2.28428e-06
-5.49278e-08
2.48002e-06
-1.95736e-07
2.79333e-06
-3.13316e-07
3.13973e-06
-3.46396e-07
3.42466e-06
-2.84925e-07
3.60001e-06
-1.7535e-07
3.66076e-06
-6.07529e-08
3.5693e-06
9.14551e-08
3.19316e-06
3.76145e-07
2.36967e-06
8.23484e-07
1.08054e-06
1.28913e-06
-5.42934e-07
1.62348e-06
-2.27744e-06
1.7345e-06
-3.95361e-06
1.67618e-06
-5.47485e-06
1.52123e-06
-6.79568e-06
1.32084e-06
-7.90321e-06
1.10753e-06
-8.80225e-06
8.9904e-07
-9.50515e-06
7.029e-07
-1.00259e-05
5.20703e-07
-1.03776e-05
3.51751e-07
-1.05742e-05
1.96605e-07
-1.06298e-05
5.55788e-08
-1.05704e-05
-5.93512e-08
-1.04107e-05
-1.59746e-07
-1.01574e-05
-2.53264e-07
-9.81428e-06
-3.43145e-07
-9.38401e-06
-4.30272e-07
-8.86927e-06
-5.14741e-07
-8.27302e-06
-5.96245e-07
-7.59893e-06
-6.74091e-07
-6.8518e-06
-7.47125e-07
-6.03809e-06
-8.13711e-07
-5.16624e-06
-8.71852e-07
-4.24673e-06
-9.19509e-07
-3.29175e-06
-9.54987e-07
-2.31478e-06
-9.7697e-07
-1.32999e-06
-9.84782e-07
-3.52432e-07
-9.77562e-07
6.14215e-07
-9.66647e-07
1.54873e-06
-9.34518e-07
2.44662e-06
-8.97887e-07
3.30123e-06
-8.54608e-07
4.10556e-06
-8.04329e-07
4.85321e-06
-7.4765e-07
5.53824e-06
-6.85028e-07
6.15509e-06
-6.16856e-07
6.69882e-06
-5.43728e-07
7.16469e-06
-4.65871e-07
7.54706e-06
-3.82373e-07
7.84246e-06
-2.95398e-07
8.042e-06
-1.99535e-07
8.10939e-06
-6.73911e-08
7.98188e-06
1.27511e-07
7.65374e-06
3.28138e-07
7.12789e-06
5.2585e-07
6.42346e-06
7.04433e-07
5.57872e-06
8.44739e-07
4.65425e-06
9.24469e-07
3.72671e-06
9.27541e-07
2.87167e-06
8.55034e-07
2.14651e-06
7.25159e-07
1.57708e-06
5.69436e-07
1.15883e-06
4.18251e-07
8.80628e-07
2.782e-07
7.30338e-07
1.50289e-07
6.95697e-07
3.46412e-08
7.3939e-07
-4.36932e-08
8.25194e-07
-8.58036e-08
9.20588e-07
-9.53944e-08
1.0096e-06
-8.90077e-08
1.08669e-06
-7.70928e-08
1.15188e-06
-6.5195e-08
1.2074e-06
-5.5519e-08
1.25601e-06
-4.86069e-08
1.3005e-06
-4.44894e-08
1.3436e-06
-4.30988e-08
1.38788e-06
-4.4285e-08
1.43576e-06
-4.78804e-08
1.48946e-06
-5.36927e-08
1.55101e-06
-6.15556e-08
1.6238e-06
-7.27888e-08
1.72401e-06
-1.00208e-07
1.88999e-06
-1.65981e-07
2.13973e-06
-2.49744e-07
2.38506e-06
-2.45328e-07
2.45431e-06
-6.92532e-08
2.14945e-06
3.04868e-07
1.17296e-06
9.76486e-07
-3.72502e-07
1.54546e-06
-2.01883e-06
1.64632e-06
-3.33893e-06
1.3201e-06
-4.20536e-06
8.6643e-07
-4.62989e-06
4.24537e-07
-4.67738e-06
4.74867e-08
-4.42545e-06
-2.51928e-07
-3.92372e-06
-5.01732e-07
-3.20808e-06
-7.15635e-07
-2.32883e-06
-8.79259e-07
-1.35721e-06
-9.71617e-07
-3.83452e-07
-9.73757e-07
-8.43827e-07
4.60375e-07
6.75176e-07
-1.09031e-06
1.23035e-06
-1.27141e-06
1.58442e-06
-9.78567e-07
1.79395e-06
-6.47859e-07
1.88546e-06
-3.49244e-07
1.87567e-06
-9.46007e-08
1.76161e-06
1.3672e-07
1.57683e-06
3.34321e-07
1.28354e-06
5.07086e-07
8.35508e-07
6.62902e-07
1.79091e-07
8.33079e-07
-6.88649e-07
1.04714e-06
-1.73217e-06
1.28104e-06
-2.88498e-06
1.50205e-06
-4.0653e-06
1.69429e-06
-5.20469e-06
1.8415e-06
-6.2746e-06
1.92864e-06
-7.25653e-06
1.95058e-06
-8.13407e-06
1.91125e-06
-8.89647e-06
1.81963e-06
-9.53956e-06
1.68726e-06
-1.00655e-05
1.52622e-06
-1.04812e-05
1.34766e-06
-1.07972e-05
1.16091e-06
-1.10257e-05
9.73088e-07
-1.11794e-05
7.89207e-07
-1.12703e-05
6.12305e-07
-1.13094e-05
4.4394e-07
-1.13056e-05
2.84764e-07
-1.12659e-05
1.35109e-07
-1.11926e-05
-6.13271e-09
-1.10772e-05
-1.41069e-07
-1.09123e-05
-2.70462e-07
-1.0694e-05
-3.93027e-07
-1.04229e-05
-5.06939e-07
-1.0102e-05
-6.1115e-07
-9.73576e-06
-7.05136e-07
-9.329e-06
-7.88704e-07
-8.88676e-06
-8.61939e-07
-8.41397e-06
-9.25154e-07
-7.91536e-06
-9.78825e-07
-7.39538e-06
-1.02351e-06
-6.85819e-06
-1.05976e-06
-6.30773e-06
-1.08808e-06
-5.74773e-06
-1.10886e-06
-5.1818e-06
-1.12245e-06
-4.61339e-06
-1.12918e-06
-4.04576e-06
-1.12947e-06
-3.48189e-06
-1.12388e-06
-2.92438e-06
-1.11313e-06
-2.37533e-06
-1.09812e-06
-1.83623e-06
-1.07986e-06
-1.30792e-06
-1.05953e-06
-7.90547e-07
-1.03862e-06
-2.83704e-07
-1.01923e-06
2.13328e-07
-1.00342e-06
7.02077e-07
-9.91041e-07
1.18467e-06
-9.81725e-07
1.6629e-06
-9.75769e-07
2.13798e-06
-9.7273e-07
2.60992e-06
-9.71146e-07
3.07729e-06
-9.68197e-07
3.53795e-06
-9.59208e-07
3.9938e-06
-9.37165e-07
4.4606e-06
-8.91983e-07
4.96736e-06
-8.11115e-07
5.529e-06
-6.75337e-07
6.09705e-06
-4.66836e-07
6.5675e-06
-1.94686e-07
6.8503e-06
1.05298e-07
6.89786e-06
3.84426e-07
6.70474e-06
6.05895e-07
6.3048e-06
7.49331e-07
5.76569e-06
8.13231e-07
5.1704e-06
8.0726e-07
4.59575e-06
7.40431e-07
4.1092e-06
6.0949e-07
3.76782e-06
3.91341e-07
3.6199e-06
9.29989e-08
3.67711e-06
-2.52946e-07
3.90315e-06
-5.39365e-07
4.2031e-06
-6.46344e-07
4.44893e-06
-5.30755e-07
4.47833e-06
-2.0475e-07
4.04942e-06
3.6816e-07
2.90313e-06
1.23774e-06
1.05817e-06
2.22111e-06
-1.13384e-06
3.01549e-06
-3.2525e-06
3.40779e-06
-5.0763e-06
3.44728e-06
-6.55487e-06
3.21307e-06
-7.69949e-06
2.8208e-06
-8.55039e-06
2.37213e-06
-9.16332e-06
1.93377e-06
-9.59461e-06
1.53881e-06
-9.89204e-06
1.19647e-06
-1.00917e-05
9.02519e-07
-1.02184e-05
6.47411e-07
-1.02877e-05
4.21056e-07
-1.03057e-05
2.14623e-07
-1.02713e-05
2.11984e-08
-1.01647e-05
-1.65951e-07
-9.97375e-06
-3.50705e-07
-9.69643e-06
-5.30588e-07
-9.33377e-06
-7.05801e-07
-8.88753e-06
-8.76519e-07
-8.35972e-06
-1.04255e-06
-7.75276e-06
-1.2032e-06
-7.06973e-06
-1.35712e-06
-6.31488e-06
-1.50198e-06
-5.49416e-06
-1.63443e-06
-4.61575e-06
-1.75026e-06
-3.69016e-06
-1.84509e-06
-2.72989e-06
-1.91526e-06
-1.74838e-06
-1.95848e-06
-7.59304e-07
-1.97386e-06
2.26796e-07
-1.96366e-06
1.18867e-06
-1.92852e-06
2.1261e-06
-1.87195e-06
3.02827e-06
-1.80005e-06
3.88768e-06
-1.71402e-06
4.69807e-06
-1.61472e-06
5.45361e-06
-1.50319e-06
6.14888e-06
-1.3803e-06
6.7789e-06
-1.24688e-06
7.33891e-06
-1.10374e-06
7.82469e-06
-9.51652e-07
8.2336e-06
-7.91276e-07
8.56063e-06
-6.22432e-07
8.80704e-06
-4.45941e-07
9.00616e-06
-2.66518e-07
9.1972e-06
-6.3526e-08
9.36843e-06
1.56909e-07
9.47588e-06
4.18403e-07
9.47358e-06
7.06729e-07
9.32014e-06
9.98182e-07
8.99391e-06
1.2507e-06
8.50399e-06
1.41746e-06
7.89057e-06
1.46845e-06
7.21393e-06
1.4018e-06
6.54005e-06
1.24331e-06
5.92602e-06
1.03229e-06
5.40382e-06
8.00398e-07
4.98032e-06
5.73789e-07
4.63754e-06
3.77425e-07
4.36178e-06
2.32062e-07
4.13798e-06
1.37994e-07
3.95502e-06
8.7569e-08
3.79994e-06
6.60686e-08
3.66189e-06
6.09588e-08
3.53318e-06
6.35155e-08
3.40941e-06
6.82563e-08
3.28881e-06
7.19842e-08
3.17151e-06
7.28192e-08
3.05881e-06
6.95935e-08
2.95306e-06
6.14733e-08
2.85779e-06
4.73824e-08
2.7783e-06
2.58034e-08
2.72032e-06
-3.58195e-09
2.68712e-06
-3.95877e-08
2.68785e-06
-1.00934e-07
2.75886e-06
-2.36996e-07
2.93336e-06
-4.24243e-07
3.1102e-06
-4.22171e-07
2.92781e-06
1.13144e-07
1.8639e-06
1.36877e-06
-7.0999e-08
2.91139e-06
-1.9772e-06
3.45167e-06
-3.28403e-06
2.95315e-06
-4.04873e-06
2.0848e-06
-4.45096e-06
1.26866e-06
-4.61485e-06
5.88425e-07
-4.57494e-06
7.57882e-09
-4.30505e-06
-5.21817e-07
-3.79549e-06
-1.0113e-06
-3.07481e-06
-1.43631e-06
-2.19194e-06
-1.76213e-06
-1.218e-06
-1.94556e-06
-2.37926e-07
-1.95383e-06
-1.75149e-06
6.69737e-07
4.57342e-07
-1.54765e-06
5.70699e-07
-1.38476e-06
5.76411e-07
-9.84279e-07
5.1134e-07
-5.82788e-07
3.56388e-07
-1.94292e-07
9.25006e-08
1.69286e-07
-3.03256e-07
5.32477e-07
-8.49333e-07
8.80398e-07
-1.55237e-06
1.21012e-06
-2.41384e-06
1.52437e-06
-3.40122e-06
1.82047e-06
-4.44156e-06
2.08747e-06
-5.46646e-06
2.30594e-06
-6.42543e-06
2.46102e-06
-7.27896e-06
2.54782e-06
-8.00477e-06
2.56731e-06
-8.60111e-06
2.52498e-06
-9.08034e-06
2.4298e-06
-9.4626e-06
2.29351e-06
-9.77134e-06
2.12836e-06
-1.00293e-05
1.94524e-06
-1.02555e-05
1.75237e-06
-1.04627e-05
1.55494e-06
-1.06573e-05
1.3555e-06
-1.0839e-05
1.15475e-06
-1.10023e-05
9.52518e-07
-1.11385e-05
7.48524e-07
-1.12376e-05
5.42985e-07
-1.12897e-05
3.36852e-07
-1.12863e-05
1.3175e-07
-1.12222e-05
-7.02199e-08
-1.10962e-05
-2.67079e-07
-1.09107e-05
-4.55923e-07
-1.06694e-05
-6.34379e-07
-1.03758e-05
-8.00486e-07
-1.00343e-05
-9.52684e-07
-9.64949e-06
-1.08996e-06
-9.22634e-06
-1.21185e-06
-8.76985e-06
-1.31843e-06
-8.28481e-06
-1.41019e-06
-7.77571e-06
-1.48793e-06
-7.24666e-06
-1.55256e-06
-6.70149e-06
-1.60494e-06
-6.1438e-06
-1.64577e-06
-5.57717e-06
-1.67549e-06
-5.00521e-06
-1.69441e-06
-4.4316e-06
-1.70278e-06
-3.86002e-06
-1.70105e-06
-3.29395e-06
-1.68995e-06
-2.73647e-06
-1.67061e-06
-2.19008e-06
-1.64451e-06
-1.65652e-06
-1.61341e-06
-1.13674e-06
-1.57931e-06
-6.30969e-07
-1.54439e-06
-1.39136e-07
-1.51106e-06
3.39217e-07
-1.48178e-06
8.05577e-07
-1.4574e-06
1.2623e-06
-1.43845e-06
1.71197e-06
-1.42544e-06
2.15725e-06
-1.41801e-06
2.60058e-06
-1.41447e-06
3.04358e-06
-1.4112e-06
3.48647e-06
-1.4021e-06
3.92787e-06
-1.37856e-06
4.3664e-06
-1.33051e-06
4.8038e-06
-1.24852e-06
5.25311e-06
-1.12464e-06
5.73826e-06
-9.51987e-07
6.26498e-06
-7.21405e-07
6.78743e-06
-4.17151e-07
7.21195e-06
-4.00963e-08
7.44476e-06
3.73088e-07
7.43411e-06
7.5998e-07
7.18641e-06
1.06093e-06
6.75808e-06
1.23558e-06
6.23332e-06
1.26519e-06
5.69998e-06
1.14283e-06
5.22951e-06
8.61809e-07
4.89421e-06
4.28295e-07
4.73517e-06
-9.3906e-08
4.71935e-06
-5.2354e-07
4.71314e-06
-6.40138e-07
4.47147e-06
-2.89085e-07
3.66708e-06
5.99637e-07
2.0834e-06
1.95184e-06
-3.80361e-08
3.35918e-06
-2.18255e-06
4.36563e-06
-3.98052e-06
4.81347e-06
-5.34229e-06
4.76956e-06
-6.2971e-06
4.40208e-06
-6.95291e-06
3.86888e-06
-7.42739e-06
3.29528e-06
-7.81087e-06
2.75561e-06
-8.15517e-06
2.27807e-06
-8.47855e-06
1.86219e-06
-8.77756e-06
1.49549e-06
-9.03871e-06
1.16366e-06
-9.24634e-06
8.55047e-07
-9.38679e-06
5.61505e-07
-9.44969e-06
2.7752e-07
-9.43027e-06
1.77529e-09
-9.32647e-06
-2.69751e-07
-9.14006e-06
-5.37115e-07
-8.87108e-06
-7.99562e-07
-8.52026e-06
-1.05663e-06
-8.08881e-06
-1.30797e-06
-7.57822e-06
-1.55314e-06
-6.99019e-06
-1.79123e-06
-6.3269e-06
-2.02041e-06
-5.59155e-06
-2.23733e-06
-4.78918e-06
-2.43681e-06
-3.92733e-06
-2.61211e-06
-3.0165e-06
-2.75592e-06
-2.06971e-06
-2.86205e-06
-1.10135e-06
-2.92684e-06
-1.24768e-07
-2.95044e-06
8.42696e-07
-2.93113e-06
1.79059e-06
-2.87641e-06
2.71175e-06
-2.79312e-06
3.59749e-06
-2.68579e-06
4.44074e-06
-2.55727e-06
5.23543e-06
-2.40941e-06
5.97586e-06
-2.24362e-06
6.65669e-06
-2.06112e-06
7.27293e-06
-1.86313e-06
7.82009e-06
-1.65089e-06
8.29424e-06
-1.42581e-06
8.69255e-06
-1.18958e-06
9.01374e-06
-9.43624e-07
9.25659e-06
-6.88791e-07
9.41739e-06
-4.27312e-07
9.51287e-06
-1.59008e-07
9.55977e-06
1.10012e-07
9.5939e-06
3.84273e-07
9.63793e-06
6.62695e-07
9.69337e-06
9.42744e-07
9.73361e-06
1.21045e-06
9.71548e-06
1.43559e-06
9.60238e-06
1.58155e-06
9.38119e-06
1.62299e-06
9.06601e-06
1.55849e-06
8.6896e-06
1.4087e-06
8.28558e-06
1.20442e-06
7.87944e-06
9.79932e-07
7.48799e-06
7.68875e-07
7.12284e-06
5.9721e-07
6.78664e-06
4.74193e-07
6.47819e-06
3.96025e-07
6.19251e-06
3.51744e-07
5.92382e-06
3.29654e-07
5.66699e-06
3.20343e-07
5.41821e-06
3.17039e-07
5.17503e-06
3.15164e-07
4.93618e-06
3.11664e-07
4.70133e-06
3.04444e-07
4.47092e-06
2.91883e-07
4.24622e-06
2.72078e-07
4.02941e-06
2.42621e-07
3.82263e-06
2.03197e-07
3.62923e-06
1.53806e-07
3.46072e-06
6.75807e-08
3.35306e-06
-1.29338e-07
3.31828e-06
-3.89457e-07
3.19181e-06
-2.95708e-07
2.51629e-06
7.88667e-07
9.49282e-07
2.93578e-06
-9.10502e-07
4.77117e-06
-2.22529e-06
4.76646e-06
-3.03659e-06
3.76445e-06
-3.61481e-06
2.66302e-06
-4.03581e-06
1.68966e-06
-4.26121e-06
8.13824e-07
-4.25213e-06
-1.50168e-09
-4.00016e-06
-7.73787e-07
-3.5168e-06
-1.49466e-06
-2.82647e-06
-2.12664e-06
-1.97551e-06
-2.61308e-06
-1.03247e-06
-2.88861e-06
-6.9708e-08
-2.91658e-06
-2.64891e-06
8.27709e-07
-6.22657e-08
-1.48538e-06
-3.25894e-07
-1.12114e-06
-6.48988e-07
-6.61185e-07
-1.07318e-06
-1.58595e-07
-1.56472e-06
2.97244e-07
-2.161e-06
7.65565e-07
-2.84281e-06
1.21429e-06
-3.59719e-06
1.63477e-06
-4.40323e-06
2.01616e-06
-5.22471e-06
2.34585e-06
-6.01596e-06
2.61172e-06
-6.73367e-06
2.80518e-06
-7.35144e-06
2.92371e-06
-7.86175e-06
2.97133e-06
-8.27133e-06
2.9574e-06
-8.59787e-06
2.89385e-06
-8.8659e-06
2.79301e-06
-9.10201e-06
2.66591e-06
-9.32945e-06
2.52096e-06
-9.56416e-06
2.36307e-06
-9.81283e-06
2.19391e-06
-1.00733e-05
2.01287e-06
-1.03368e-05
1.81838e-06
-1.05903e-05
1.60905e-06
-1.082e-05
1.38446e-06
-1.10129e-05
1.1454e-06
-1.11583e-05
8.93923e-07
-1.12484e-05
6.33119e-07
-1.12783e-05
3.66727e-07
-1.12455e-05
9.89455e-08
-1.11498e-05
-1.65893e-07
-1.09929e-05
-4.23985e-07
-1.07775e-05
-6.71307e-07
-1.05077e-05
-9.04277e-07
-1.01882e-05
-1.11997e-06
-9.82459e-06
-1.31626e-06
-9.42255e-06
-1.492e-06
-8.98749e-06
-1.64692e-06
-8.52429e-06
-1.78163e-06
-8.03716e-06
-1.89732e-06
-7.52955e-06
-1.99554e-06
-7.00423e-06
-2.07787e-06
-6.46364e-06
-2.14554e-06
-5.91012e-06
-2.19929e-06
-5.34635e-06
-2.23926e-06
-4.77557e-06
-2.26519e-06
-4.20161e-06
-2.27674e-06
-3.62876e-06
-2.2739e-06
-3.06139e-06
-2.25732e-06
-2.50355e-06
-2.22846e-06
-1.95857e-06
-2.18949e-06
-1.42886e-06
-2.14312e-06
-9.15845e-07
-2.09233e-06
-4.20054e-07
-2.04018e-06
5.86643e-08
-1.98978e-06
5.20823e-07
-1.94393e-06
9.67626e-07
-1.9042e-06
1.40125e-06
-1.87208e-06
1.82443e-06
-1.84862e-06
2.24046e-06
-1.83404e-06
2.65319e-06
-1.82721e-06
3.06698e-06
-1.82499e-06
3.48632e-06
-1.82144e-06
3.91501e-06
-1.80725e-06
4.35439e-06
-1.76989e-06
4.80105e-06
-1.69518e-06
5.247e-06
-1.57059e-06
5.68398e-06
-1.38896e-06
6.11087e-06
-1.1483e-06
6.53757e-06
-8.43849e-07
6.95888e-06
-4.61406e-07
7.32523e-06
6.73365e-09
7.55792e-06
5.2729e-07
7.59591e-06
1.02294e-06
7.42589e-06
1.40561e-06
7.08295e-06
1.60813e-06
6.6312e-06
1.59458e-06
6.14446e-06
1.34855e-06
5.69466e-06
8.78098e-07
5.32558e-06
2.75176e-07
4.9908e-06
-1.88757e-07
4.48875e-06
-1.38089e-07
3.49839e-06
7.01271e-07
1.81566e-06
2.28237e-06
-2.6361e-07
4.03112e-06
-2.18915e-06
5.28472e-06
-3.66217e-06
5.83864e-06
-4.65717e-06
5.80847e-06
-5.28829e-06
5.40068e-06
-5.70635e-06
4.82014e-06
-6.04488e-06
4.20741e-06
-6.38377e-06
3.63417e-06
-6.74728e-06
3.11912e-06
-7.12399e-06
2.65477e-06
-7.48897e-06
2.22717e-06
-7.81788e-06
1.82439e-06
-8.09238e-06
1.43816e-06
-8.30051e-06
1.06318e-06
-8.43504e-06
6.96033e-07
-8.49225e-06
3.34734e-07
-8.46958e-06
-2.08979e-08
-8.36694e-06
-3.72388e-07
-8.18487e-06
-7.19187e-07
-7.9241e-06
-1.06033e-06
-7.5858e-06
-1.39493e-06
-7.17137e-06
-1.7224e-06
-6.68212e-06
-2.04238e-06
-6.11913e-06
-2.35423e-06
-5.48337e-06
-2.65618e-06
-4.77639e-06
-2.9443e-06
-4.00146e-06
-3.21174e-06
-3.16465e-06
-3.44892e-06
-2.27603e-06
-3.64454e-06
-1.34867e-06
-3.78941e-06
-3.98013e-07
-3.8775e-06
5.57385e-07
-3.90584e-06
1.50441e-06
-3.87815e-06
2.43326e-06
-3.80525e-06
3.33495e-06
-3.69481e-06
4.20185e-06
-3.55269e-06
5.02734e-06
-3.38276e-06