# vtk DataFile Version 2.0
sampleSurface
ASCII
DATASET POLYDATA
POINTS 502 float
-0.0206 0 -0.0005 -0.0190172 0 -0.0005 -0.0190172 0 0.0005 -0.0206 0
0.0005 -0.0174976 0 -0.0005 -0.0174976 0 0.0005 -0.0160387 0 -0.0005
-0.0160387 0 0.0005 -0.0146381 0 -0.0005 -0.0146381 0 0.0005 -0.0132934
0 -0.0005 -0.0132934 0 0.0005 -0.0120025 0 -0.0005 -0.0120025 0
0.0005 -0.0107632 0 -0.0005 -0.0107632 0 0.0005 -0.00957337 0 -0.0005
-0.00957337 0 0.0005 -0.00843108 0 -0.0005 -0.00843108 0 0.0005 -0.00733443
0 -0.0005 -0.00733443 0 0.0005 -0.0062816 0 -0.0005 -0.0062816 0
0.0005 -0.00527083 0 -0.0005 -0.00527083 0 0.0005 -0.00430044 0 -0.0005
-0.00430044 0 0.0005 -0.00336883 0 -0.0005 -0.00336883 0 0.0005 -0.00247443
0 -0.0005 -0.00247443 0 0.0005 -0.00161577 0 -0.0005 -0.00161577 0
0.0005 -0.000791418 0 -0.0005 -0.000791418 0 0.0005 0 0 -0.0005
0 0 0.0005 0 -0.0254 -0.0005 0 -0.0254 0.0005 0
-0.0242711 0.0005 0 -0.0242711 -0.0005 0 -0.0231422 0.0005 0 -0.0231422
-0.0005 0 -0.0220133 0.0005 0 -0.0220133 -0.0005 0 -0.0208844 0.0005
0 -0.0208844 -0.0005 0 -0.0197556 0.0005 0 -0.0197556 -0.0005 0
-0.0186267 0.0005 0 -0.0186267 -0.0005 0 -0.0174978 0.0005 0 -0.0174978
-0.0005 0 -0.0163689 0.0005 0 -0.0163689 -0.0005 0 -0.01524 0.0005
0 -0.01524 -0.0005 0 -0.0141111 0.0005 0 -0.0141111 -0.0005 0
-0.0129822 0.0005 0 -0.0129822 -0.0005 0 -0.0118533 0.0005 0 -0.0118533
-0.0005 0 -0.0107244 0.0005 0 -0.0107244 -0.0005 0 -0.00959556 0.0005
0 -0.00959556 -0.0005 0 -0.00846667 0.0005 0 -0.00846667 -0.0005 0
-0.00726604 0.0005 0 -0.00726604 -0.0005 0 -0.00618989 0.0005 0 -0.00618989
-0.0005 0 -0.00522531 0.0005 0 -0.00522531 -0.0005 0 -0.00436073 0.0005
0 -0.00436073 -0.0005 0 -0.00358579 0.0005 0 -0.00358579 -0.0005 0
-0.00289118 0.0005 0 -0.00289118 -0.0005 0 -0.0022686 0.0005 0 -0.0022686
-0.0005 0 -0.00171055 0.0005 0 -0.00171055 -0.0005 0 -0.00121037 0.0005
0 -0.00121037 -0.0005 0 -0.000762037 0.0005 0 -0.000762037 -0.0005 0
-0.000360188 0.0005 0 -0.000360188 -0.0005 0.000528387 -0.0254 -0.0005 0.000528387 -0.0254
0.0005 0.00106088 -0.0254 -0.0005 0.00106088 -0.0254 0.0005 0.00159752 -0.0254 -0.0005
0.00159752 -0.0254 0.0005 0.00213833 -0.0254 -0.0005 0.00213833 -0.0254 0.0005 0.00268334
-0.0254 -0.0005 0.00268334 -0.0254 0.0005 0.00323259 -0.0254 -0.0005 0.00323259 -0.0254
0.0005 0.00378611 -0.0254 -0.0005 0.00378611 -0.0254 0.0005 0.00434393 -0.0254 -0.0005
0.00434393 -0.0254 0.0005 0.00490609 -0.0254 -0.0005 0.00490609 -0.0254 0.0005 0.00547262
-0.0254 -0.0005 0.00547262 -0.0254 0.0005 0.00604356 -0.0254 -0.0005 0.00604356 -0.0254
0.0005 0.00661893 -0.0254 -0.0005 0.00661893 -0.0254 0.0005 0.00719878 -0.0254 -0.0005
0.00719878 -0.0254 0.0005 0.00778313 -0.0254 -0.0005 0.00778313 -0.0254 0.0005 0.00837203
-0.0254 -0.0005 0.00837203 -0.0254 0.0005 0.00896551 -0.0254 -0.0005 0.00896551 -0.0254
0.0005 0.0095636 -0.0254 -0.0005 0.0095636 -0.0254 0.0005 0.0101663 -0.0254 -0.0005
0.0101663 -0.0254 0.0005 0.0107738 -0.0254 -0.0005 0.0107738 -0.0254 0.0005 0.0113859
-0.0254 -0.0005 0.0113859 -0.0254 0.0005 0.0120028 -0.0254 -0.0005 0.0120028 -0.0254
0.0005 0.0126245 -0.0254 -0.0005 0.0126245 -0.0254 0.0005 0.0132511 -0.0254 -0.0005
0.0132511 -0.0254 0.0005 0.0138825 -0.0254 -0.0005 0.0138825 -0.0254 0.0005 0.0145188
-0.0254 -0.0005 0.0145188 -0.0254 0.0005 0.0151601 -0.0254 -0.0005 0.0151601 -0.0254
0.0005 0.0158063 -0.0254 -0.0005 0.0158063 -0.0254 0.0005 0.0164576 -0.0254 -0.0005
0.0164576 -0.0254 0.0005 0.0171139 -0.0254 -0.0005 0.0171139 -0.0254 0.0005 0.0177754
-0.0254 -0.0005 0.0177754 -0.0254 0.0005 0.018442 -0.0254 -0.0005 0.018442 -0.0254
0.0005 0.0191137 -0.0254 -0.0005 0.0191137 -0.0254 0.0005 0.0197907 -0.0254 -0.0005
0.0197907 -0.0254 0.0005 0.020473 -0.0254 -0.0005 0.020473 -0.0254 0.0005 0.0211606
-0.0254 -0.0005 0.0211606 -0.0254 0.0005 0.0218535 -0.0254 -0.0005 0.0218535 -0.0254
0.0005 0.0225517 -0.0254 -0.0005 0.0225517 -0.0254 0.0005 0.0232555 -0.0254 -0.0005
0.0232555 -0.0254 0.0005 0.0239647 -0.0254 -0.0005 0.0239647 -0.0254 0.0005 0.0246794
-0.0254 -0.0005 0.0246794 -0.0254 0.0005 0.0253996 -0.0254 -0.0005 0.0253996 -0.0254
0.0005 0.0261255 -0.0254 -0.0005 0.0261255 -0.0254 0.0005 0.026857 -0.0254 -0.0005
0.026857 -0.0254 0.0005 0.0275942 -0.0254 -0.0005 0.0275942 -0.0254 0.0005 0.0283371
-0.0254 -0.0005 0.0283371 -0.0254 0.0005 0.0290858 -0.0254 -0.0005 0.0290858 -0.0254
0.0005 0.0298403 -0.0254 -0.0005 0.0298403 -0.0254 0.0005 0.0306007 -0.0254 -0.0005
0.0306007 -0.0254 0.0005 0.031367 -0.0254 -0.0005 0.031367 -0.0254 0.0005 0.0321393
-0.0254 -0.0005 0.0321393 -0.0254 0.0005 0.0329175 -0.0254 -0.0005 0.0329175 -0.0254
0.0005 0.0337019 -0.0254 -0.0005 0.0337019 -0.0254 0.0005 0.0344923 -0.0254 -0.0005
0.0344923 -0.0254 0.0005 0.0352888 -0.0254 -0.0005 0.0352888 -0.0254 0.0005 0.0360916
-0.0254 -0.0005 0.0360916 -0.0254 0.0005 0.0369006 -0.0254 -0.0005 0.0369006 -0.0254
0.0005 0.0377158 -0.0254 -0.0005 0.0377158 -0.0254 0.0005 0.0385375 -0.0254 -0.0005
0.0385375 -0.0254 0.0005 0.0393655 -0.0254 -0.0005 0.0393655 -0.0254 0.0005 0.0401999
-0.0254 -0.0005 0.0401999 -0.0254 0.0005 0.0410408 -0.0254 -0.0005 0.0410408 -0.0254
0.0005 0.0418883 -0.0254 -0.0005 0.0418883 -0.0254 0.0005 0.0427424 -0.0254 -0.0005
0.0427424 -0.0254 0.0005 0.0436031 -0.0254 -0.0005 0.0436031 -0.0254 0.0005 0.0444704
-0.0254 -0.0005 0.0444704 -0.0254 0.0005 0.0453446 -0.0254 -0.0005 0.0453446 -0.0254
0.0005 0.0462255 -0.0254 -0.0005 0.0462255 -0.0254 0.0005 0.0471133 -0.0254 -0.0005
0.0471133 -0.0254 0.0005 0.048008 -0.0254 -0.0005 0.048008 -0.0254 0.0005 0.0489096
-0.0254 -0.0005 0.0489096 -0.0254 0.0005 0.0498183 -0.0254 -0.0005 0.0498183 -0.0254
0.0005 0.050734 -0.0254 -0.0005 0.050734 -0.0254 0.0005 0.0516568 -0.0254 -0.0005
0.0516568 -0.0254 0.0005 0.0525868 -0.0254 -0.0005 0.0525868 -0.0254 0.0005 0.053524
-0.0254 -0.0005 0.053524 -0.0254 0.0005 0.0544686 -0.0254 -0.0005 0.0544686 -0.0254
0.0005 0.0554204 -0.0254 -0.0005 0.0554204 -0.0254 0.0005 0.0563797 -0.0254 -0.0005
0.0563797 -0.0254 0.0005 0.0573464 -0.0254 -0.0005 0.0573464 -0.0254 0.0005 0.0583206
-0.0254 -0.0005 0.0583206 -0.0254 0.0005 0.0593025 -0.0254 -0.0005 0.0593025 -0.0254
0.0005 0.0602919 -0.0254 -0.0005 0.0602919 -0.0254 0.0005 0.0612891 -0.0254 -0.0005
0.0612891 -0.0254 0.0005 0.0622939 -0.0254 -0.0005 0.0622939 -0.0254 0.0005 0.0633067
-0.0254 -0.0005 0.0633067 -0.0254 0.0005 0.0643272 -0.0254 -0.0005 0.0643272 -0.0254
0.0005 0.0653557 -0.0254 -0.0005 0.0653557 -0.0254 0.0005 0.0663923 -0.0254 -0.0005
0.0663923 -0.0254 0.0005 0.0674368 -0.0254 -0.0005 0.0674368 -0.0254 0.0005 0.0684895
-0.0254 -0.0005 0.0684895 -0.0254 0.0005 0.0695504 -0.0254 -0.0005 0.0695504 -0.0254
0.0005 0.0706195 -0.0254 -0.0005 0.0706195 -0.0254 0.0005 0.0716969 -0.0254 -0.0005
0.0716969 -0.0254 0.0005 0.0727828 -0.0254 -0.0005 0.0727828 -0.0254 0.0005 0.073877
-0.0254 -0.0005 0.073877 -0.0254 0.0005 0.0749798 -0.0254 -0.0005 0.0749798 -0.0254
0.0005 0.0760911 -0.0254 -0.0005 0.0760911 -0.0254 0.0005 0.0772111 -0.0254 -0.0005
0.0772111 -0.0254 0.0005 0.0783398 -0.0254 -0.0005 0.0783398 -0.0254 0.0005 0.0794772
-0.0254 -0.0005 0.0794772 -0.0254 0.0005 0.0806235 -0.0254 -0.0005 0.0806235 -0.0254
0.0005 0.0817787 -0.0254 -0.0005 0.0817787 -0.0254 0.0005 0.0829429 -0.0254 -0.0005
0.0829429 -0.0254 0.0005 0.0841162 -0.0254 -0.0005 0.0841162 -0.0254 0.0005 0.0852985
-0.0254 -0.0005 0.0852985 -0.0254 0.0005 0.0864901 -0.0254 -0.0005 0.0864901 -0.0254
0.0005 0.0876909 -0.0254 -0.0005 0.0876909 -0.0254 0.0005 0.0889011 -0.0254 -0.0005
0.0889011 -0.0254 0.0005 0.0901207 -0.0254 -0.0005 0.0901207 -0.0254 0.0005 0.0913497
-0.0254 -0.0005 0.0913497 -0.0254 0.0005 0.0925883 -0.0254 -0.0005 0.0925883 -0.0254
0.0005 0.0938366 -0.0254 -0.0005 0.0938366 -0.0254 0.0005 0.0950945 -0.0254 -0.0005
0.0950945 -0.0254 0.0005 0.0963622 -0.0254 -0.0005 0.0963622 -0.0254 0.0005 0.0976398
-0.0254 -0.0005 0.0976398 -0.0254 0.0005 0.0989273 -0.0254 -0.0005 0.0989273 -0.0254
0.0005 0.100225 -0.0254 -0.0005 0.100225 -0.0254 0.0005 0.101532 -0.0254 -0.0005
0.101532 -0.0254 0.0005 0.10285 -0.0254 -0.0005 0.10285 -0.0254 0.0005 0.104178
-0.0254 -0.0005 0.104178 -0.0254 0.0005 0.105517 -0.0254 -0.0005 0.105517 -0.0254
0.0005 0.106865 -0.0254 -0.0005 0.106865 -0.0254 0.0005 0.108225 -0.0254 -0.0005
0.108225 -0.0254 0.0005 0.109594 -0.0254 -0.0005 0.109594 -0.0254 0.0005 0.110975
-0.0254 -0.0005 0.110975 -0.0254 0.0005 0.112366 -0.0254 -0.0005 0.112366 -0.0254
0.0005 0.113768 -0.0254 -0.0005 0.113768 -0.0254 0.0005 0.115181 -0.0254 -0.0005
0.115181 -0.0254 0.0005 0.116605 -0.0254 -0.0005 0.116605 -0.0254 0.0005 0.11804
-0.0254 -0.0005 0.11804 -0.0254 0.0005 0.119486 -0.0254 -0.0005 0.119486 -0.0254
0.0005 0.120943 -0.0254 -0.0005 0.120943 -0.0254 0.0005 0.122412 -0.0254 -0.0005
0.122412 -0.0254 0.0005 0.123892 -0.0254 -0.0005 0.123892 -0.0254 0.0005 0.125384
-0.0254 -0.0005 0.125384 -0.0254 0.0005 0.126887 -0.0254 -0.0005 0.126887 -0.0254
0.0005 0.128402 -0.0254 -0.0005 0.128402 -0.0254 0.0005 0.129928 -0.0254 -0.0005
0.129928 -0.0254 0.0005 0.131467 -0.0254 -0.0005 0.131467 -0.0254 0.0005 0.133017
-0.0254 -0.0005 0.133017 -0.0254 0.0005 0.13458 -0.0254 -0.0005 0.13458 -0.0254
0.0005 0.136155 -0.0254 -0.0005 0.136155 -0.0254 0.0005 0.137742 -0.0254 -0.0005
0.137742 -0.0254 0.0005 0.139341 -0.0254 -0.0005 0.139341 -0.0254 0.0005 0.140953
-0.0254 -0.0005 0.140953 -0.0254 0.0005 0.142577 -0.0254 -0.0005 0.142577 -0.0254
0.0005 0.144214 -0.0254 -0.0005 0.144214 -0.0254 0.0005 0.145863 -0.0254 -0.0005
0.145863 -0.0254 0.0005 0.147526 -0.0254 -0.0005 0.147526 -0.0254 0.0005 0.149201
-0.0254 -0.0005 0.149201 -0.0254 0.0005 0.15089 -0.0254 -0.0005 0.15089 -0.0254
0.0005 0.152591 -0.0254 -0.0005 0.152591 -0.0254 0.0005 0.154306 -0.0254 -0.0005
0.154306 -0.0254 0.0005 0.156034 -0.0254 -0.0005 0.156034 -0.0254 0.0005 0.157775
-0.0254 -0.0005 0.157775 -0.0254 0.0005 0.159531 -0.0254 -0.0005 0.159531 -0.0254
0.0005 0.161299 -0.0254 -0.0005 0.161299 -0.0254 0.0005 0.163082 -0.0254 -0.0005
0.163082 -0.0254 0.0005 0.164878 -0.0254 -0.0005 0.164878 -0.0254 0.0005 0.166688
-0.0254 -0.0005 0.166688 -0.0254 0.0005 0.168513 -0.0254 -0.0005 0.168513 -0.0254
0.0005 0.170351 -0.0254 -0.0005 0.170351 -0.0254 0.0005 0.172204 -0.0254 -0.0005
0.172204 -0.0254 0.0005 0.174071 -0.0254 -0.0005 0.174071 -0.0254 0.0005 0.175953
-0.0254 -0.0005 0.175953 -0.0254 0.0005 0.177849 -0.0254 -0.0005 0.177849 -0.0254
0.0005 0.17976 -0.0254 -0.0005 0.17976 -0.0254 0.0005 0.181686 -0.0254 -0.0005
0.181686 -0.0254 0.0005 0.183627 -0.0254 -0.0005 0.183627 -0.0254 0.0005 0.185583
-0.0254 -0.0005 0.185583 -0.0254 0.0005 0.187555 -0.0254 -0.0005 0.187555 -0.0254
0.0005 0.189541 -0.0254 -0.0005 0.189541 -0.0254 0.0005 0.191543 -0.0254 -0.0005
0.191543 -0.0254 0.0005 0.193561 -0.0254 -0.0005 0.193561 -0.0254 0.0005 0.195594
-0.0254 -0.0005 0.195594 -0.0254 0.0005 0.197643 -0.0254 -0.0005 0.197643 -0.0254
0.0005 0.199708 -0.0254 -0.0005 0.199708 -0.0254 0.0005 0.201789 -0.0254 -0.0005
0.201789 -0.0254 0.0005 0.203886 -0.0254 -0.0005 0.203886 -0.0254 0.0005 0.206
-0.0254 -0.0005 0.206 -0.0254 0.0005 0.208047 -0.0251856 -0.0005 0.208047 -0.0251856
0.0005 0.210173 -0.0249628 -0.0005 0.210173 -0.0249628 0.0005 0.212382 -0.0247314 -0.0005
0.212382 -0.0247314 0.0005 0.214677 -0.024491 -0.0005 0.214677 -0.024491 0.0005 0.217061
-0.0242412 -0.0005 0.217061 -0.0242412 0.0005 0.219538 -0.0239817 -0.0005 0.219538 -0.0239817
0.0005 0.222112 -0.0237121 -0.0005 0.222112 -0.0237121 0.0005 0.224785 -0.023432 -0.0005
0.224785 -0.023432 0.0005 0.227563 -0.023141 -0.0005 0.227563 -0.023141 0.0005 0.230449
-0.0228387 -0.0005 0.230449 -0.0228387 0.0005 0.233447 -0.0225246 -0.0005 0.233447 -0.0225246
0.0005 0.236562 -0.0221983 -0.0005 0.236562 -0.0221983 0.0005 0.239797 -0.0218593 -0.0005
0.239797 -0.0218593 0.0005 0.243159 -0.0215071 -0.0005 0.243159 -0.0215071 0.0005 0.246652
-0.0211412 -0.0005 0.246652 -0.0211412 0.0005 0.250281 -0.0207611 -0.0005 0.250281 -0.0207611
0.0005 0.254051 -0.0203661 -0.0005 0.254051 -0.0203661 0.0005 0.257967 -0.0199558 -0.0005
0.257967 -0.0199558 0.0005 0.262036 -0.0195295 -0.0005 0.262036 -0.0195295 0.0005 0.266264
-0.0190867 -0.0005 0.266264 -0.0190867 0.0005 0.270655 -0.0186266 -0.0005 0.270655 -0.0186266
0.0005 0.275218 -0.0181486 -0.0005 0.275218 -0.0181486 0.0005 0.279959 -0.017652 -0.0005
0.279959 -0.017652 0.0005 0.284883 -0.017136 -0.0005 0.284883 -0.017136 0.0005 0.29
-0.0166 -0.0005 0.29 -0.0166 0.0005 
POLYGONS 250 1250
4 0 1 2 3 4 1 4 5 2 4
4 6 7 5 4 6 8 9 7 4
8 10 11 9 4 10 12 13 11 4
12 14 15 13 4 14 16 17 15 4
16 18 19 17 4 18 20 21 19 4
20 22 23 21 4 22 24 25 23 4
24 26 27 25 4 26 28 29 27 4
28 30 31 29 4 30 32 33 31 4
32 34 35 33 4 34 36 37 35 4
38 39 40 41 4 41 40 42 43 4
43 42 44 45 4 45 44 46 47 4
47 46 48 49 4 49 48 50 51 4
51 50 52 53 4 53 52 54 55 4
55 54 56 57 4 57 56 58 59 4
59 58 60 61 4 61 60 62 63 4
63 62 64 65 4 65 64 66 67 4
67 66 68 69 4 69 68 70 71 4
71 70 72 73 4 73 72 74 75 4
75 74 76 77 4 77 76 78 79 4
79 78 80 81 4 81 80 82 83 4
83 82 84 85 4 85 84 86 87 4
87 86 88 89 4 89 88 90 91 4
91 90 37 36 4 38 92 93 39 4
92 94 95 93 4 94 96 97 95 4
96 98 99 97 4 98 100 101 99 4
100 102 103 101 4 102 104 105 103 4
104 106 107 105 4 106 108 109 107 4
108 110 111 109 4 110 112 113 111 4
112 114 115 113 4 114 116 117 115 4
116 118 119 117 4 118 120 121 119 4
120 122 123 121 4 122 124 125 123 4
124 126 127 125 4 126 128 129 127 4
128 130 131 129 4 130 132 133 131 4
132 134 135 133 4 134 136 137 135 4
136 138 139 137 4 138 140 141 139 4
140 142 143 141 4 142 144 145 143 4
144 146 147 145 4 146 148 149 147 4
148 150 151 149 4 150 152 153 151 4
152 154 155 153 4 154 156 157 155 4
156 158 159 157 4 158 160 161 159 4
160 162 163 161 4 162 164 165 163 4
164 166 167 165 4 166 168 169 167 4
168 170 171 169 4 170 172 173 171 4
172 174 175 173 4 174 176 177 175 4
176 178 179 177 4 178 180 181 179 4
180 182 183 181 4 182 184 185 183 4
184 186 187 185 4 186 188 189 187 4
188 190 191 189 4 190 192 193 191 4
192 194 195 193 4 194 196 197 195 4
196 198 199 197 4 198 200 201 199 4
200 202 203 201 4 202 204 205 203 4
204 206 207 205 4 206 208 209 207 4
208 210 211 209 4 210 212 213 211 4
212 214 215 213 4 214 216 217 215 4
216 218 219 217 4 218 220 221 219 4
220 222 223 221 4 222 224 225 223 4
224 226 227 225 4 226 228 229 227 4
228 230 231 229 4 230 232 233 231 4
232 234 235 233 4 234 236 237 235 4
236 238 239 237 4 238 240 241 239 4
240 242 243 241 4 242 244 245 243 4
244 246 247 245 4 246 248 249 247 4
248 250 251 249 4 250 252 253 251 4
252 254 255 253 4 254 256 257 255 4
256 258 259 257 4 258 260 261 259 4
260 262 263 261 4 262 264 265 263 4
264 266 267 265 4 266 268 269 267 4
268 270 271 269 4 270 272 273 271 4
272 274 275 273 4 274 276 277 275 4
276 278 279 277 4 278 280 281 279 4
280 282 283 281 4 282 284 285 283 4
284 286 287 285 4 286 288 289 287 4
288 290 291 289 4 290 292 293 291 4
292 294 295 293 4 294 296 297 295 4
296 298 299 297 4 298 300 301 299 4
300 302 303 301 4 302 304 305 303 4
304 306 307 305 4 306 308 309 307 4
308 310 311 309 4 310 312 313 311 4
312 314 315 313 4 314 316 317 315 4
316 318 319 317 4 318 320 321 319 4
320 322 323 321 4 322 324 325 323 4
324 326 327 325 4 326 328 329 327 4
328 330 331 329 4 330 332 333 331 4
332 334 335 333 4 334 336 337 335 4
336 338 339 337 4 338 340 341 339 4
340 342 343 341 4 342 344 345 343 4
344 346 347 345 4 346 348 349 347 4
348 350 351 349 4 350 352 353 351 4
352 354 355 353 4 354 356 357 355 4
356 358 359 357 4 358 360 361 359 4
360 362 363 361 4 362 364 365 363 4
364 366 367 365 4 366 368 369 367 4
368 370 371 369 4 370 372 373 371 4
372 374 375 373 4 374 376 377 375 4
376 378 379 377 4 378 380 381 379 4
380 382 383 381 4 382 384 385 383 4
384 386 387 385 4 386 388 389 387 4
388 390 391 389 4 390 392 393 391 4
392 394 395 393 4 394 396 397 395 4
396 398 399 397 4 398 400 401 399 4
400 402 403 401 4 402 404 405 403 4
404 406 407 405 4 406 408 409 407 4
408 410 411 409 4 410 412 413 411 4
412 414 415 413 4 414 416 417 415 4
416 418 419 417 4 418 420 421 419 4
420 422 423 421 4 422 424 425 423 4
424 426 427 425 4 426 428 429 427 4
428 430 431 429 4 430 432 433 431 4
432 434 435 433 4 434 436 437 435 4
436 438 439 437 4 438 440 441 439 4
440 442 443 441 4 442 444 445 443 4
444 446 447 445 4 446 448 449 447 4
448 450 451 449 4 450 452 453 451 4
452 454 455 453 4 454 456 457 455 4
456 458 459 457 4 458 460 461 459 4
460 462 463 461 4 462 464 465 463 4
464 466 467 465 4 466 468 469 467 4
468 470 471 469 4 470 472 473 471 4
472 474 475 473 4 474 476 477 475 4
476 478 479 477 4 478 480 481 479 4
480 482 483 481 4 482 484 485 483 4
484 486 487 485 4 486 488 489 487 4
488 490 491 489 4 490 492 493 491 4
492 494 495 493 4 494 496 497 495 4
496 498 499 497 4 498 500 501 499 
POINT_DATA 502
FIELD attributes 1
U 3 502 float
3.22013 0.0247557 0.00943272 1.61743 0.0123644 0.00464845 1.61743 0.0123644 0.00464845 3.22013 0.0247557
0.00943272 0.0590036 0.000474819 0 0.0590036 0.000474819 0 0.0563992 0.000610694 0
0.0563992 0.000610694 0 0.053843 0.000444073 0 0.053843 0.000444073 0 0.0519365
0.000155543 0 0.0519365 0.000155543 0 0.0506964 2.87605e-05 0 0.0506964 2.87605e-05
0 0.0495438 0.000157392 0 0.0495438 0.000157392 0 0.0479028 0.000403454 0
0.0479028 0.000403454 0 0.0457503 0.000568434 0 0.0457503 0.000568434 0 0.0434507
0.000570483 0 0.0434507 0.000570483 0 0.0414527 0.000466454 0 0.0414527 0.000466454
0 0.0398334 0.000351332 0 0.0398334 0.000351332 0 0.038585 0.000286122 0
0.038585 0.000286122 0 0.0373839 0.000296491 0 0.0373839 0.000296491 0 0.0361725
0.000368065 0 0.0361725 0.000368065 0 0.0345271 0.000495689 0 0.0345271 0.000495689
0 0.0326264 0.000657976 0 0.0326264 0.000657976 0 0.0136557 0.000756795 0
0.0136557 0.000756795 0 -0.000123619 0.000380443 -1.63751e-22 -0.000123619 0.000380443 -1.63751e-22 1.19135e-05
0.000999332 4.42678e-22 1.19135e-05 0.000999332 4.42678e-22 0.000109443 0.00083055 5.24722e-22 0.000109443 0.00083055
5.24722e-22 0.000161933 -0.000361839 -1.0502e-21 0.000161933 -0.000361839 -1.0502e-21 0.000747562 -0.0028939 -3.50998e-22
0.000747562 -0.0028939 -3.50998e-22 0.00130041 -0.00818381 6.99374e-22 0.00130041 -0.00818381 6.99374e-22 0.00103767
-0.0128826 0 0.00103767 -0.0128826 0 0.000460203 -0.0150336 1.41223e-21 0.000460203 -0.0150336
1.41223e-21 4.79243e-05 -0.0154196 -4.12594e-27 4.79243e-05 -0.0154196 -4.12594e-27 -0.000185982 -0.0147946 -1.41223e-21
-0.000185982 -0.0147946 -1.41223e-21 -0.000360486 -0.0134972 1.41042e-21 -0.000360486 -0.0134972 1.41042e-21 -0.000494461
-0.0114198 -1.10234e-24 -0.000494461 -0.0114198 -1.10234e-24 -0.000461039 -0.00921304 -1.41152e-21 -0.000461039 -0.00921304
-1.41152e-21 -0.000347372 -0.00722043 -1.41232e-21 -0.000347372 -0.00722043 -1.41232e-21 -0.000269472 -0.0056049 1.0104e-24
-0.000269472 -0.0056049 1.0104e-24 -0.000247982 -0.00457002 1.43837e-21 -0.000247982 -0.00457002 1.43837e-21 -0.000308941
-0.00389659 0 -0.000308941 -0.00389659 0 -0.000199092 -0.00349898 0 -0.000199092 -0.00349898
0 0.000331386 -0.00384752 0 0.000331386 -0.00384752 0 0.000834668 -0.00592769 0
0.000834668 -0.00592769 0 0.00069667 -0.00831748 0 0.00069667 -0.00831748 0 3.89532e-05
-0.00881459 0 3.89532e-05 -0.00881459 0 -0.000605254 -0.00790516 0 -0.000605254 -0.00790516
0 -0.00110557 -0.00630692 0 -0.00110557 -0.00630692 0 -0.00151189 -0.00428402 0
-0.00151189 -0.00428402 0 -0.00166265 -0.00167441 0 -0.00166265 -0.00167441 0 -0.00158649
0.000331245 0 -0.00158649 0.000331245 0 -0.000286092 0.000372129 -7.72812e-25 -0.000286092 0.000372129
-7.72812e-25 -0.000548184 0.000303126 8.13113e-23 -0.000548184 0.000303126 8.13113e-23 -0.000717233 0.000205385 0
-0.000717233 0.000205385 0 -0.000838728 0.000135708 0 -0.000838728 0.000135708 0 -0.000931361
7.57338e-05 -7.88975e-23 -0.000931361 7.57338e-05 -7.88975e-23 -0.00100352 2.9488e-05 -7.90392e-23 -0.00100352 2.9488e-05
-7.90392e-23 -0.00105357 -1.25822e-06 0 -0.00105357 -1.25822e-06 0 -0.00107263 -2.23575e-05 0
-0.00107263 -2.23575e-05 0 -0.00104995 -4.24258e-05 0 -0.00104995 -4.24258e-05 0 -0.000973472
-6.18727e-05 7.62929e-23 -0.000973472 -6.18727e-05 7.62929e-23 -0.000841728 -5.49376e-05 7.64383e-23 -0.000841728 -5.49376e-05
7.64383e-23 -0.000680124 2.42066e-05 0 -0.000680124 2.42066e-05 0 -0.000544046 0.000216522 0
-0.000544046 0.000216522 0 -0.000549048 0.00041624 0 -0.000549048 0.00041624 0 -0.000762734
0.000413939 7.33966e-23 -0.000762734 0.000413939 7.33966e-23 -0.00106118 0.000238605 7.35448e-23 -0.00106118 0.000238605
7.35448e-23 -0.00129871 9.11715e-05 0 -0.00129871 9.11715e-05 0 -0.00145836 3.05917e-05 0
-0.00145836 3.05917e-05 0 -0.00159004 1.11664e-05 0 -0.00159004 1.11664e-05 0 -0.00174749
2.10593e-05 0 -0.00174749 2.10593e-05 0 -0.00195787 7.12096e-05 0 -0.00195787 7.12096e-05
0 -0.00223532 0.000161103 0 -0.00223532 0.000161103 0 -0.00260926 0.00029238 6.88712e-23
-0.00260926 0.00029238 6.88712e-23 -0.00312907 0.000473184 7.27093e-25 -0.00312907 0.000473184 7.27093e-25 -0.00384022
0.000656951 -7.29347e-25 -0.00384022 0.000656951 -7.29347e-25 -0.0047253 0.000724011 1.3504e-22 -0.0047253 0.000724011
1.3504e-22 -0.00565614 0.000650783 6.73208e-23 -0.00565614 0.000650783 6.73208e-23 -0.00649519 0.000617868 0
-0.00649519 0.000617868 0 -0.00725027 0.000722665 -6.56879e-23 -0.00725027 0.000722665 -6.56879e-23 -0.00798488
0.000753685 -1.31066e-22 -0.00798488 0.000753685 -1.31066e-22 -0.00863716 0.000541382 -6.53785e-23 -0.00863716 0.000541382
-6.53785e-23 -0.00910827 0.000265724 0 -0.00910827 0.000265724 0 -0.00943006 0.00014727 -6.38853e-23
-0.00943006 0.00014727 -6.38853e-23 -0.00970226 0.000144321 -6.40427e-23 -0.00970226 0.000144321 -6.40427e-23 -0.00996423
0.000125404 0 -0.00996423 0.000125404 0 -0.0102013 7.22643e-05 6.25124e-23 -0.0102013 7.22643e-05
6.25124e-23 -0.0103989 2.7773e-05 6.26713e-23 -0.0103989 2.7773e-05 6.26713e-23 -0.0105548 2.05764e-06 6.1545e-23
-0.0105548 2.05764e-06 6.1545e-23 -0.0106697 -2.40913e-05 1.83782e-22 -0.0106697 -2.40913e-05 1.83782e-22 -0.01074
-6.27545e-05 1.22397e-22 -0.01074 -6.27545e-05 1.22397e-22 -0.0107558 -0.000107728 0 -0.0107558 -0.000107728
0 -0.0107099 -0.000149464 0 -0.0107099 -0.000149464 0 -0.0106003 -0.000187352 0
-0.0106003 -0.000187352 0 -0.0104257 -0.000224891 0 -0.0104257 -0.000224891 0 -0.0101844
-0.00026372 1.15212e-22 -0.0101844 -0.00026372 1.15212e-22 -0.00987508 -0.000304123 2.29488e-22 -0.00987508 -0.000304123
2.29488e-22 -0.00949664 -0.000345779 2.26956e-22 -0.00949664 -0.000345779 2.26956e-22 -0.00904813 -0.000386876 1.13e-22
-0.00904813 -0.000386876 1.13e-22 -0.00853059 -0.00042565 -1.10096e-22 -0.00853059 -0.00042565 -1.10096e-22 -0.00794706
-0.00046157 -1.10415e-22 -0.00794706 -0.00046157 -1.10415e-22 -0.00730029 -0.000494168 1.07514e-22 -0.00730029 -0.000494168
1.07514e-22 -0.00659305 -0.00052237 2.14074e-22 -0.00659305 -0.00052237 2.14074e-22 -0.00583225 -0.000544384 1.06559e-22
-0.00583225 -0.000544384 1.06559e-22 -0.0050292 -0.000558083 0 -0.0050292 -0.000558083 0 -0.00419546
-0.000562619 0 -0.00419546 -0.000562619 0 -0.00334261 -0.00055777 1.01411e-22 -0.00334261 -0.00055777
1.01411e-22 -0.00248162 -0.00054629 1.01725e-22 -0.00248162 -0.00054629 1.01725e-22 -0.00162044 -0.000530961 0
-0.00162044 -0.000530961 0 -0.000761369 -0.000516182 0 -0.000761369 -0.000516182 0 0.000117873
-0.000521917 0 0.000117873 -0.000521917 0 0.00105463 -0.00054227 0 0.00105463 -0.00054227
0 0.00202941 -0.000524903 0 0.00202941 -0.000524903 0 0.00296741 -0.000474488 0
0.00296741 -0.000474488 0 0.0038367 -0.0004311 0 0.0038367 -0.0004311 0 0.00465168
-0.00039864 -9.1878e-23 0.00465168 -0.00039864 -9.1878e-23 0.00542558 -0.000382984 -9.21867e-23 0.00542558 -0.000382984
-9.21867e-23 0.00617592 -0.000355168 0 0.00617592 -0.000355168 0 0.00687757 -0.000283271 8.93909e-23
0.00687757 -0.000283271 8.93909e-23 0.00747314 -0.000158539 1.7835e-22 0.00747314 -0.000158539 1.7835e-22 0.00786573
8.76414e-05 8.89596e-23 0.00786573 8.76414e-05 8.89596e-23 0.00791133 0.000396621 -8.71391e-23 0.00791133 0.000396621
-8.71391e-23 0.00752037 0.00071859 -1.12178e-24 0.00752037 0.00071859 -1.12178e-24 0.00656411 0.00100796 8.66337e-23
0.00656411 0.00100796 8.66337e-23 0.00518498 0.000957186 -8.47237e-23 0.00518498 0.000957186 -8.47237e-23 0.00377961
0.000709296 -8.50311e-23 0.00377961 0.000709296 -8.50311e-23 0.0024869 0.000456803 0 0.0024869 0.000456803
0 0.00148449 -1.91818e-05 8.24536e-23 0.00148449 -1.91818e-05 8.24536e-23 0.00107722 -0.000532409 8.27601e-23
0.00107722 -0.000532409 8.27601e-23 0.00137148 -0.000816818 -8.06075e-23 0.00137148 -0.000816818 -8.06075e-23 0.00214788
-0.000829341 -8.0912e-23 0.00214788 -0.000829341 -8.0912e-23 0.00291233 -0.000633827 7.88065e-23 0.00291233 -0.000633827
7.88065e-23 0.00323724 -0.000376387 1.57107e-22 0.00323724 -0.000376387 1.57107e-22 0.00306093 -0.000101052 1.55552e-22
0.00306093 -0.000101052 1.55552e-22 0.00257063 0.000143056 2.30684e-22 0.00257063 0.000143056 2.30684e-22 0.00196411
0.000275516 1.92677e-24 0.00196411 0.000275516 1.92677e-24 0.00137796 0.000297629 -1.52406e-22 0.00137796 0.000297629
-1.52406e-22 0.00087296 0.000264519 0 0.00087296 0.000264519 0 0.000461785 0.000211068 0
0.000461785 0.000211068 0 0.000140878 0.000153097 -1.46823e-22 0.000140878 0.000153097 -1.46823e-22 -0.000101285
9.99628e-05 -2.92974e-22 -0.000101285 9.99628e-05 -2.92974e-22 -0.00028514 5.66443e-05 -1.87196e-24 -0.00028514 5.66443e-05
-1.87196e-24 -0.000433538 2.6175e-05 1.44876e-22 -0.000433538 2.6175e-05 1.44876e-22 -0.000569725 1.05185e-05 -1.41805e-22
-0.000569725 1.05185e-05 -1.41805e-22 -0.000719512 1.11317e-05 -2.83016e-22 -0.000719512 1.11317e-05 -2.83016e-22 -0.000911214
2.97226e-05 -2.80671e-22 -0.000911214 2.97226e-05 -2.80671e-22 -0.00117636 6.89892e-05 -1.40054e-22 -0.00117636 6.89892e-05
-1.40054e-22 -0.00154932 0.00013164 0 -0.00154932 0.00013164 0 -0.00206515 0.000218485 0
-0.00206515 0.000218485 0 -0.00275538 0.00032572 -1.35226e-22 -0.00275538 0.00032572 -1.35226e-22 -0.00364235
0.000443028 -1.35818e-22 -0.00364235 0.000443028 -1.35818e-22 -0.00473221 0.00055585 0 -0.00473221 0.00055585
0 -0.00600738 0.000650737 1.32766e-22 -0.00600738 0.000650737 1.32766e-22 -0.00742669 0.000718025 1.33359e-22
-0.00742669 0.000718025 1.33359e-22 -0.00893805 0.000753687 0 -0.00893805 0.000753687 0 -0.0104885
0.000758564 1.31424e-22 -0.0104885 0.000758564 1.31424e-22 -0.0120281 0.000735764 1.32023e-22 -0.0120281 0.000735764
1.32023e-22 -0.0135124 0.000690263 0 -0.0135124 0.000690263 0 -0.0149026 0.000627495 -1.30756e-22
-0.0149026 0.000627495 -1.30756e-22 -0.0161646 0.00055231 -2.61816e-22 -0.0161646 0.00055231 -2.61816e-22 -0.017271
0.000469085 -1.31062e-22 -0.017271 0.000469085 -1.31062e-22 -0.0182013 0.000381259 1.29378e-22 -0.0182013 0.000381259
1.29378e-22 -0.0189414 0.000290814 1.2999e-22 -0.0189414 0.000290814 1.2999e-22 -0.0194828 0.000200218 -1.27397e-22
-0.0194828 0.000200218 -1.27397e-22 -0.0198226 0.000114262 -1.28006e-22 -0.0198226 0.000114262 -1.28006e-22 -0.0199653
3.66405e-05 -1.24353e-22 -0.0199653 3.66405e-05 -1.24353e-22 -0.0199282 -3.33535e-05 -2.47394e-22 -0.0199282 -3.33535e-05
-2.47394e-22 -0.0197255 -9.70021e-05 -1.23034e-22 -0.0197255 -9.70021e-05 -1.23034e-22 -0.0193674 -0.00015464 0
-0.0193674 -0.00015464 0 -0.0188647 -0.000207804 0 -0.0188647 -0.000207804 0 -0.0182234
-0.000257313 0 -0.0182234 -0.000257313 0 -0.0174498 -0.000303499 0 -0.0174498 -0.000303499
0 -0.0165485 -0.000347092 0 -0.0165485 -0.000347092 0 -0.0155237 -0.00038801 0
-0.0155237 -0.00038801 0 -0.0143813 -0.000425596 -1.01399e-22 -0.0143813 -0.000425596 -1.01399e-22 -0.0131301
-0.000458674 -3.36567e-24 -0.0131301 -0.000458674 -3.36567e-24 -0.011783 -0.00048566 9.90537e-23 -0.011783 -0.00048566
9.90537e-23 -0.0103581 -0.000504904 0 -0.0103581 -0.000504904 0 -0.00887747 -0.000514956 0
-0.00887747 -0.000514956 0 -0.00736597 -0.000514999 0 -0.00736597 -0.000514999 0 -0.00584971
-0.000505142 1.72889e-22 -0.00584971 -0.000505142 1.72889e-22 -0.00435529 -0.000485864 1.73797e-22 -0.00435529 -0.000485864
1.73797e-22 -0.00290707 -0.000458561 -1.66185e-22 -0.00290707 -0.000458561 -1.66185e-22 -0.00152407 -0.000424676 -3.60354e-24
-0.00152407 -0.000424676 -3.60354e-24 -0.000230062 -0.000388545 1.64334e-22 -0.000230062 -0.000388545 1.64334e-22 0.0009559
-0.000350849 0 0.0009559 -0.000350849 0 0.00203749 -0.000310817 0 0.00203749 -0.000310817
0 0.00301705 -0.000271261 -1.54823e-22 0.00301705 -0.000271261 -1.54823e-22 0.00389046 -0.000232479 -3.08723e-22
0.00389046 -0.000232479 -3.08723e-22 0.00465914 -0.000194751 -1.53894e-22 0.00465914 -0.000194751 -1.53894e-22 0.00532544
-0.000158465 -1.49672e-22 0.00532544 -0.000158465 -1.49672e-22 0.00589286 -0.00012507 -2.98478e-22 0.00589286 -0.00012507
-2.98478e-22 0.00636747 -9.75815e-05 -2.53821e-24 0.00636747 -9.75815e-05 -2.53821e-24 0.00675991 -7.76449e-05 1.47075e-22
0.00675991 -7.76449e-05 1.47075e-22 0.00708281 -5.7239e-05 0 0.00708281 -5.7239e-05 0 0.00733448
-1.40018e-05 1.40825e-22 0.00733448 -1.40018e-05 1.40825e-22 0.0074734 6.76869e-05 1.41618e-22 0.0074734 6.76869e-05
1.41618e-22 0.00744527 0.000164825 0 0.00744527 0.000164825 0 0.00724651 0.000228485 0
0.00724651 0.000228485 0 0.00693379 0.00022836 0 0.00693379 0.00022836 0 0.00658793
0.000170104 -1.31052e-22 0.00658793 0.000170104 -1.31052e-22 0.00627381 8.3879e-05 -2.60817e-22 0.00627381 8.3879e-05
-2.60817e-22 0.00602118 7.71886e-06 -1.29757e-22 0.00602118 7.71886e-06 -1.29757e-22 0.00582998 -3.33229e-05 -1.24828e-22
0.00582998 -3.33229e-05 -1.24828e-22 0.00568395 -3.67061e-05 -1.25554e-22 0.00568395 -3.67061e-05 -1.25554e-22 0.00556427
-1.78478e-05 0 0.00556427 -1.78478e-05 0 0.00545745 1.43257e-06 -1.18487e-22 0.00545745 1.43257e-06
-1.18487e-22 0.00535616 1.04129e-05 -1.19185e-22 0.00535616 1.04129e-05 -1.19185e-22 0.00525822 1.14001e-05 -1.14285e-22
0.00525822 1.14001e-05 -1.14285e-22 0.00516701 9.16899e-06 -1.14962e-22 0.00516701 9.16899e-06 -1.14962e-22 0.00509044
6.49205e-06 0 0.00509044 6.49205e-06 0 0.00503599 5.5589e-06 -1.07997e-22 0.00503599 5.5589e-06
-1.07997e-22 0.00500631 6.91066e-06 -1.08645e-22 0.00500631 6.91066e-06 -1.08645e-22 0.00500188 7.43852e-06 -1.03778e-22