/*--------------------------------*- C++ -*----------------------------------*\
  =========                 |
  \\      /  F ield         | OpenFOAM: The Open Source CFD Toolbox
   \\    /   O peration     | Website:  https://openfoam.org
    \\  /    A nd           | Version:  9
     \\/     M anipulation  |
\*---------------------------------------------------------------------------*/
FoamFile
{
    format      ascii;
    class       volScalarField;
    location    "0.03";
    object      epsilonU;
}
// * * * * * * * * * * * * * * * * * * * * * * * * * * * * * * * * * * * * * //

dimensions      [0 2 -3 0 0 0 0];

internalField   nonuniform List<scalar> 
12225
(
222.792
168.147
130.401
104.885
88.4667
78.9654
74.7818
74.6705
77.6204
82.7968
89.5126
97.2134
105.469
113.965
122.495
130.96
139.332
149.453
39.9945
48.8667
52.9525
57.3872
64.5143
75.759
92.1904
114.561
143.226
178.106
218.74
264.428
314.406
368.034
424.951
485.295
549.49
620.607
19.9179
23.9446
26.7548
29.0528
31.4232
34.3019
38.034
42.887
49.0428
56.5987
65.5877
76.0149
87.9067
101.37
116.67
134.327
155.294
181.327
15.8914
17.2198
18.3828
19.3846
20.3294
21.3256
22.4678
23.8317
25.47
27.4149
29.6844
32.2938
35.2689
38.6632
42.5822
47.214
52.9027
60.1677
14.8197
15.0544
15.3699
15.6919
16.0099
16.3368
16.6934
17.1011
17.5771
18.1341
18.7806
19.5242
20.3751
21.3512
22.4843
23.8297
25.4823
27.5791
14.5163
14.3168
14.2173
14.1745
14.1656
14.1809
14.2183
14.2797
14.3689
14.4893
14.6441
14.8363
15.07
15.3513
15.6903
16.1034
16.6168
17.2611
14.4326
14.0736
13.7866
13.5563
13.3692
13.2157
13.0895
12.9872
12.9069
12.8482
12.8109
12.7957
12.8036
12.8367
12.8984
12.9941
13.1317
13.3169
14.4107
13.999
13.6371
13.3202
13.0424
12.7983
12.5829
12.3925
12.2242
12.0761
11.9469
11.8357
11.7423
11.6668
11.6102
11.574
11.5607
11.5709
14.4053
13.978
13.5898
13.2381
12.9197
12.6314
12.3702
12.133
11.9176
11.7218
11.5441
11.3833
11.2384
11.1088
10.9944
10.8953
10.8121
10.7446
14.404
13.9725
13.5762
13.2124
12.8782
12.5712
12.289
12.0295
11.7905
11.5703
11.3675
11.1807
11.0088
10.8511
10.7069
10.5759
10.4577
10.3525
14.4036
13.9711
13.5726
13.205
12.8655
12.5517
12.2613
11.9923
11.7429
11.5115
11.2968
11.0973
10.9122
10.7404
10.5811
10.4339
10.2982
10.1743
14.4035
13.9707
13.5717
13.2031
12.8621
12.5462
12.2532
11.9811
11.728
11.4925
11.2732
11.0687
10.8781
10.7004
10.5347
10.3804
10.2369
10.1047
14.4035
13.9706
13.5713
13.2024
12.861
12.5444
12.2505
11.9773
11.7228
11.4857
11.2645
11.0579
10.8649
10.6846
10.5159
10.3582
10.2109
10.0744
14.4034
13.9705
13.5711
13.2021
12.8605
12.5438
12.2496
11.976
11.7211
11.4835
11.2617
11.0543
10.8605
10.679
10.5091
10.3499
10.2007
10.0622
14.4034
13.9704
13.571
13.2019
12.8603
12.5435
12.2492
11.9756
11.7206
11.4829
11.261
11.0535
10.8594
10.6776
10.5073
10.3475
10.1976
10.0581
14.4034
13.9703
13.5709
13.2018
12.8601
12.5433
12.249
11.9754
11.7205
11.4828
11.2609
11.0534
10.8593
10.6775
10.507
10.347
10.1968
10.0569
14.4033
13.9702
13.5708
13.2016
12.86
12.5432
12.249
11.9753
11.7205
11.4829
11.261
11.0536
10.8596
10.6777
10.5072
10.3471
10.1968
10.0567
14.4033
13.9702
13.5707
13.2016
12.8599
12.5431
12.249
11.9754
11.7207
11.4832
11.2614
11.0541
10.8601
10.6783
10.5078
10.3477
10.1974
10.0573
14.4033
13.9701
13.5707
13.2015
12.8599
12.5432
12.2492
11.9757
11.7211
11.4837
11.2621
11.0549
10.861
10.6794
10.509
10.349
10.1988
10.0589
14.4032
13.9701
13.5707
13.2016
12.8601
12.5435
12.2496
11.9763
11.7218
11.4846
11.2631
11.0561
10.8624
10.6809
10.5107
10.351
10.201
10.0613
14.4032
13.9702
13.5708
13.2018
12.8604
12.5439
12.2502
11.9771
11.7228
11.4858
11.2645
11.0577
10.8642
10.683
10.513
10.3535
10.2037
10.0643
14.4033
13.9702
13.571
13.2022
12.861
12.5449
12.2515
11.9788
11.725
11.4885
11.2678
11.0616
10.8688
10.6882
10.5189
10.3601
10.2111
10.0724
14.4033
13.9706
13.5718
13.2039
12.8639
12.5494
12.2579
11.9873
11.736
11.502
11.284
11.0806
10.8906
10.7128
10.5463
10.3903
10.2439
10.1079
14.4039
13.9731
13.5781
13.2158
12.8831
12.5773
12.2957
12.0359
11.7956
11.5728
11.366
11.1736
10.9942
10.8268
10.6701
10.5234
10.3858
10.258
14.4093
13.9932
13.6219
13.2903
12.9927
12.7241
12.4801
12.2572
12.0523
11.8633
11.6883
11.5259
11.3747
11.2339
11.1024
10.9796
10.8647
10.7583
14.452
14.1242
13.8658
13.6545
13.4747
13.316
13.1721
13.0397
12.9172
12.8038
12.6993
12.6034
12.5161
12.437
12.3658
12.302
12.245
12.1949
14.7357
14.8134
14.9446
15.0671
15.1642
15.2362
15.2901
15.3348
15.3786
15.4284
15.4891
15.5638
15.654
15.7599
15.8805
16.0144
16.1594
16.313
16.404
17.9475
19.0796
19.8735
20.456
20.926
21.355
21.795
22.2826
22.8416
23.4858
24.2208
25.0455
25.9539
26.936
27.9797
29.0713
30.195
27.195
32.6048
34.8614
35.9687
36.8382
37.8999
39.379
41.3955
44.0062
47.2273
51.0463
55.4286
60.3207
65.6541
71.3506
77.3252
83.4992
89.759
142.551
119.596
101.675
87.6018
76.5531
67.9252
61.2637
56.2146
52.4942
49.8701
48.1487
47.166
46.7819
46.8758
47.3437
48.0965
49.0588
50.1626
20.9428
7.63274
37.0677
45.4413
51.3796
55.4715
58.695
60.0011
59.513
59.4936
61.1985
63.9371
67.6876
72.5471
78.6915
86.3593
95.8514
107.516
121.835
138.128
153.666
166.867
175.632
177.328
169.028
148.144
113.899
71.209
42.045
6.13325
4.25433
4.12499
4.31847
4.56579
4.84741
5.18392
5.58358
5.84845
5.74709
5.40927
4.98116
4.58903
4.32386
4.2529
4.47231
4.97488
5.88371
7.39097
42.3409
81.591
187.994
325.632
480.099
639.202
792.362
931.99
1053.2
1153.3
1231.27
1287.28
1322.3
1337.8
1335.59
1317.65
1286.03
1242.8
1189.96
1129.37
1062.71
994.461
925.819
857.452
790.057
724.302
660.794
600.048
542.475
488.367
437.89
391.091
347.908
308.196
271.754
238.363
207.814
179.933
154.6
131.742
111.328
93.3553
77.8601
64.9786
55.2265
51.2527
11.0263
10.6698
49.4935
10.9918
48.0223
11.1464
10.7611
10.3356
9.96532
9.83793
10.5737
52.0687
59.2452
65.4254
71.1388
76.6071
81.9127
87.0686
92.0518
96.8217
101.331
105.535
109.39
112.866
115.948
118.429
120.189
121.232
121.574
121.249
120.303
118.794
116.789
114.362
111.597
108.579
105.398
102.141
98.889
95.7152
92.6793
89.8267
87.1879
84.7793
82.605
80.6593
78.9299
77.4002
76.0516
74.8653
73.8232
72.9088
72.107
71.4047
70.7902
70.2528
69.7832
69.3729
69.0139
68.6992
68.4221
68.1767
67.9573
67.7588
67.5764
67.4054
67.2411
67.0788
66.9034
15.1175
14.2561
13.1291
12.1853
11.2994
10.4843
9.72817
9.00495
8.30504
7.629
6.97737
6.35029
5.74973
5.17903
4.64062
4.13434
3.66034
14.3494
11.0976
19.3082
22.7062
28.1653
47.3377
57.7563
60.5835
59.4225
56.5275
52.6593
48.3006
43.8876
39.7333
36.0138
32.8043
30.1249
27.9701
26.3429
25.6323
27.8438
32.8039
40.0053
48.4701
56.7818
63.191
65.9183
64.2377
60.1258
53.1757
43.1746
30.5323
19.165
11.6558
8.51756
9.34803
12.2205
15.4924
17.3616
16.7766
14.4535
11.9317
11.3499
15.4653
28.1924
54.7396
95.305
126.17
149.945
174.821
203.605
230.02
250.692
263.774
268.767
266.176
257.114
242.968
225.155
204.989
183.627
162.079
141.247
121.947
104.91
90.7561
79.9474
72.7544
69.3231
67.6514
66.0765
64.5961
63.2223
61.9663
60.8361
59.8345
58.9565
58.1863
57.4949
56.8376
56.1536
55.3674
54.3947
53.1507
51.563
49.5841
47.2034
44.4516
41.3999
38.1511
34.8258
31.5452
28.4119
25.4792
22.0587
19.8431
18.6376
16.5218
15.4676
13.1478
11.8086
10.7936
9.96988
9.36129
9.22007
10.0555
10.4648
10.6279
10.6572
10.6153
10.5356
10.4347
10.3205
10.1958
10.0609
9.91517
9.75755
9.58734
9.40598
9.2952
9.31567
9.39311
9.47261
9.51414
9.50929
9.45323
9.34516
9.18787
8.98586
8.74428
8.46893
8.16624
7.84314
7.50701
7.16537
6.82557
6.49432
6.17735
5.87911
5.60267
5.3497
5.12067
4.91508
4.7317
4.56886
4.42468
4.29727
4.18484
4.08576
3.99861
3.92217
3.85537
3.7973
3.74714
3.70415
3.66768
3.6371
3.6119
3.59158
3.57575
3.56389
3.55461
3.54694
3.26116
3.13833
3.09927
3.08809
3.0988
3.12777
3.17245
3.23104
3.30417
3.39425
3.50487
3.64164
3.81415
4.03587
4.33564
4.71911
5.40617
9.05261
8.30452
11.9087
21.0482
56.9185
76.2042
73.6213
63.1193
52.3358
43.3277
36.174
30.553
26.1397
22.6695
19.9366
17.7821
16.0847
14.7527
13.719
12.9431
12.6314
13.0801
14.6473
17.5954
21.8634
26.9267
31.8665
35.796
38.5079
39.835
38.963
34.9256
28.2615
21.1754
15.9856
13.8696
15.4901
19.2152
22.5686
23.5014
22.4047
26.742
42.2138
70.0219
90.4171
99.3349
106.212
111.572
116.317
120.799
124.068
124.395
121.164
114.511
105.121
93.9786
82.1536
70.6165
60.1136
51.1071
43.7861
38.1271
33.9722
31.0979
29.2633
28.2388
27.8231
27.8523
28.1481
28.5137
28.9393
29.4361
30.0168
30.6943
31.4796
32.3806
33.3999
34.5309
35.7547
37.0356
38.3177
39.5232
40.5546
41.3018
41.6545
41.5193
40.8373
39.5977
37.8421
35.6591
33.1683
30.4984
27.764
25.0522
22.4042
20.1158
18.2411
16.5505
15.0338
13.6406
12.4278
11.3674
10.4397
9.63993
8.97976
8.44998
7.98153
7.55218
7.15494
6.78705
6.44656
6.13145
5.83951
5.56844
5.31597
5.07993
4.85834
4.64941
4.45181
4.26662
4.09509
3.93602
3.78875
3.6579
3.53897
3.42737
3.32023
3.21535
3.11104
3.00606
2.89959
2.79124
2.681
2.56926
2.45672
2.34431
2.23309
2.12415
2.01848
1.91694
1.82018
1.72865
1.64261
1.56214
1.48719
1.41762
1.35322
1.29371
1.23884
1.18832
1.14188
1.09928
1.06025
1.02457
0.992026
0.962414
0.935541
0.911229
0.889312
0.869637
0.852058
0.836436
0.82271
0.808357
0.795786
0.785648
0.777594
0.771968
0.769028
0.769074
0.77253
0.780079
0.792759
0.812066
0.840304
0.881051
0.940455
1.02721
1.16078
1.36366
5.69679
9.68539
33.6779
95.5977
108.948
91.565
69.3911
51.5508
38.8077
29.9165
23.6704
19.2214
16.0058
13.6487
11.8982
10.5833
9.58698
8.82935
8.25624
7.83338
7.59984
7.60911
7.9704
8.88573
10.5787
13.1399
16.3729
19.8234
23.0655
25.812
27.6412
27.8833
26.159
23.1644
20.5709
19.9341
23.2706
29.9197
37.4554
44.027
56.5223
67.9349
74.6946
79.699
81.1652
80.7479
80.4233
80.0873
79.4488
77.991
75.1117
70.49
64.391
57.442
50.399
43.9218
38.4351
34.1024
30.8806
28.6052
27.0666
26.0596
25.4107
24.9865
24.6931
24.4709
24.2883
24.136
23.9886
23.8511
23.7473
23.7021
23.7407
23.8891
24.1735
24.619
25.2479
26.0768
27.1119
28.344
29.7417
31.2459
32.7662
34.1831
35.3564
36.1438
36.4235
36.1189
35.2151
33.7622
31.8628
29.6487
27.2514
24.7818
22.3312
20.2274
18.3931
16.7374
15.2471
13.9104
12.7172
11.6541
10.7075
9.86589
9.12007
8.45985
7.87223
7.34608
6.87262
6.44486
6.05706
5.70437
5.38266
5.08828
4.81809
4.56927
4.33939
4.12626
3.928
3.74309
3.57025
3.40833
3.25632
3.11347
2.97912
2.85307
2.73404
2.62105
2.51321
2.40979
2.31019
2.21394
2.12069
2.03025
1.94249
1.8574
1.77503
1.69547
1.61884
1.54524
1.47476
1.40747
1.34339
1.28253
1.22484
1.17027
1.11874
1.07014
1.02439
0.98135
0.940927
0.903005
0.867477
0.83424
0.803194
0.774246
0.747305
0.722284
0.699098
0.677664
0.657903
0.639734
0.623085
0.60784
0.593947
0.581354
0.569999
0.559852
0.550891
0.543112
0.536539
0.531245
0.52737
0.525164
0.52506
0.527801
0.534782
0.548274
0.573706
0.617819
12.8185
43.3168
131.559
124.92
92.0997
63.6028
44.1134
31.4793
23.2534
17.7955
14.0993
11.5441
9.74131
8.44434
7.49421
6.78618
6.25051
5.84138
5.52961
5.29807
5.16283
5.15275
5.2929
5.65875
6.38591
7.63276
9.48093
11.8346
14.4453
17.0528
19.4334
21.3078
22.3946
23.0313
24.655
28.6078
36.8253
51.7109
72.2107
75.4183
69.0461
67.1348
65.6561
64.1906
62.4756
60.8921
59.5421
58.0347
56.0099
53.2226
49.6604
45.5979
41.5047
37.8352
34.8883
32.7624
31.3887
30.5995
30.1945
29.9869
29.8286
29.6173
29.2934
28.8317
28.2317
27.5092
26.6897
25.8049
24.9059
24.0189
23.1652
22.3672
21.6507
21.0451
20.5833
20.3005
20.2334
20.4168
20.8806
21.644
22.7085
24.0495
25.607
27.2802
28.9273
30.3773
31.4531
32.0046
31.9409
31.2495
29.9965
28.3023
26.3077
24.1411
21.9706
20.0831
18.3475
16.7577
15.3145
14.0119
12.841
11.7907
10.8496
10.0067
9.25187
8.57554
7.96867
7.42289
6.93085
6.48618
6.08329
5.71732
5.38403
5.07966
4.80095
4.545
4.30928
4.09154
3.88979
3.70231
3.52756
3.3642
3.21103
3.06703
2.93129
2.80306
2.68168
2.56654
2.45702
2.35256
2.25268
2.15699
2.06516
1.97693
1.89211
1.81055
1.73216
1.65687
1.58464
1.51544
1.44925
1.38602
1.32572
1.2683
1.21369
1.16184
1.11266
1.06606
1.02195
0.980248
0.940854
0.903684
0.868652
0.835682
0.804697
0.77563
0.748415
0.722987
0.699285
0.677245
0.656802
0.637892
0.620448
0.604399
0.589677
0.576211
0.56393
0.552764
0.542647
0.533514
0.525308
0.51798
0.511493
0.505837
0.501035
0.497184
0.494514
0.493505
0.495297
0.501889
18.8561
129.155
120.617
80.9043
51.9396
34.5015
24.0921
17.654
13.5146
10.7634
8.88312
7.56611
6.62283
5.93211
5.41339
5.01278
4.69611
4.44364
4.24506
4.09541
4.0017
3.98359
4.05239
4.24028
4.6151
5.28343
6.35868
7.89447
9.83136
12.0335
14.4108
16.9799
19.9033
24.1398
31.7946
44.4923
65.4346
90.1578
79.8903
66.834
59.0664
54.8868
52.2024
50.3108
48.8106
47.5107
46.168
44.531
42.5092
40.186
37.789
35.6025
33.8574
32.6563
31.9675
31.6656
31.5867
31.5753
31.5138
31.3315
31.0002
30.5211
29.9122
29.1961
28.3932
27.5197
26.5872
25.6029
24.6366
23.6789
22.7194
21.757
20.8017
19.8752
19.0109
18.252
17.6492
17.2572
17.1302
17.3165
17.852
18.7529
20.0048
21.5519
23.2868
25.0488
26.638
27.8473
28.5061
28.5227
27.9049
26.7424
25.1697
23.3298
21.524
19.8195
18.2043
16.7001
15.3174
14.0574
12.9155
11.8845
10.9553
10.1188
9.36577
8.68779
8.07684
7.52555
7.02727
6.57607
6.16667
5.7944
5.45515
5.14527
4.86152
4.60106
4.36135
4.14015
3.93548
3.74556
3.56882
3.40387
3.24946
3.1045
2.96802
2.83916
2.71717
2.60134
2.49119
2.38618
2.28587
2.18987
2.09787
2.0096
1.92484
1.84343
1.76523
1.69017
1.61815
1.54912
1.48304
1.41985
1.35952
1.302
1.24722
1.19512
1.14562
1.09866
1.05413
1.01197
0.972075
0.934373
0.898776
0.865204
0.833587
0.803862
0.775971
0.749866
0.725491
0.70279
0.681703
0.662169
0.644126
0.627505
0.612239
0.598255
0.58548
0.57384
0.563257
0.553655
0.54496
0.537096
0.529992
0.523583
0.517811
0.512638
0.508054
0.504126
0.501064
0.499381
17.5416
106.258
69.8456
42.2135
27.468
19.3811
14.5244
11.3636
9.20726
7.69946
6.62849
5.85778
5.29037
4.85396
4.49955
4.20054
3.94649
3.73525
3.56713
3.4426
3.36567
3.34991
3.40148
3.53652
3.79145
4.23168
4.94394
6.00752
7.45949
9.29349
11.5689
14.6037
19.2924
27.7277
41.4164
61.7112
88.7937
82.3787
64.9015
53.7265
47.5539
44.2076
42.2575
40.9997
40.0061
39.0208
37.8793
36.5293
35.0421
33.5577
32.2198
31.1184
30.2615
29.5853
28.9899
28.3786
27.6853
26.8865
25.997
25.0591
24.1278
23.2577
22.4944
21.8684
21.3926
21.0618
20.8531
20.7347
20.6001
20.4054
20.1228
19.7348
19.2354
18.6319
17.9467
17.2184
16.5008
15.8612
15.3745
15.1168
15.1569
15.5495
16.3273
17.4901
18.9894
20.7129
22.4814
24.0678
25.2421
25.8296
25.7693
25.0993
23.9322
22.4893
20.9922
19.4772
17.9994
16.5955
15.2851
14.0765
12.9707
11.9642
11.051
10.2242
9.47615
8.79963
8.18758
7.6334
7.13105
6.67504
6.26045
5.88289
5.53841
5.22349
4.93502
4.67019
4.42652
4.20179
3.99401
3.80142
3.62243
3.45562
3.29972
3.1536
3.01625
2.88676
2.76435
2.64826
2.5379
2.43275
2.33236
2.23631
2.14427
2.05594
1.97111
1.88957
1.81118
1.73583
1.66344
1.59393
1.52726
1.4634
1.4023
1.34393
1.28825
1.2352
1.18474
1.13679
1.09129
1.04816
1.00732
0.968693
0.932199
0.897766
0.865327
0.834817
0.806174
0.779336
0.754256
0.730888
0.709175
0.689058
0.670474
0.653358
0.637641
0.623251
0.610113
0.59815
0.587282
0.577429
0.568508
0.560439
0.55314
0.546532
0.540539
0.535093
0.530133
0.525628
0.521586
0.518132
16.9445
55.876
34.9501
23.5427
17.5296
13.6894
10.928
8.91276
7.45584
6.41031
5.66844
5.13646
4.72574
4.37326
4.05295
3.76332
3.51012
3.29894
3.13327
3.01472
2.94758
2.9426
3.00271
3.13765
3.37036
3.74343
4.31664
5.15846
6.34525
7.97093
10.2667
13.9585
20.9055
33.4413
50.5306
76.074
79.8905
64.0364
50.5061
42.8242
38.8039
36.753
35.6513
34.9376
34.2886
33.5412
32.6394
31.6071
30.5104
29.4142
28.3573
27.3477
26.3709
25.4057
24.4354
23.4561
22.4799
21.5348
20.6593
19.8956
19.2805
18.8398
18.5851
18.514
18.6127
18.8586
19.2248
19.603
19.8605
19.9652
19.8996
19.658
19.2476
18.688
18.0096
17.2518
16.4617
15.6933
15.0071
14.4695
14.1476
14.1066
14.4047
15.0853
16.1616
17.5903
19.2464
20.9248
22.3728
23.3455
23.7137
23.4546
22.6837
21.6236
20.3862
19.0674
17.738
16.4447
15.216
14.067
13.0039
12.0273
11.1344
10.3206
9.58024
8.90729
8.29583
7.7401
7.23472
6.77471
6.35552
5.97301
5.62348
5.30355
5.01022
4.74078
4.4928
4.26411
4.05274
3.85695
3.67514
3.5059
3.34795
3.20014
3.06143
2.9309
2.80771
2.69111
2.58041
2.47508
2.37461
2.27856
2.18657
2.09831
2.01353
1.932
1.85356
1.77807
1.70543
1.63556
1.56841
1.50395
1.44214
1.38297
1.3264
1.27241
1.22096
1.17201
1.1255
1.08137
1.03955
0.999979
0.962581
0.927287
0.894032
0.862752
0.833385
0.805873
0.780155
0.75618
0.733902
0.713262
0.694199
0.676649
0.660543
0.645811
0.632376
0.62016
0.609083
0.59906
0.590008
0.581842
0.574478
0.567833
0.561826
0.556382
0.55143
0.546914
0.542799
0.539102
18.9057
32.7178
23.1368
18.271
14.7562
11.8151
9.52876
7.85548
6.65952
5.82821
5.26566
4.85938
4.5073
4.16305
3.82807
3.51681
3.23935
3.0059
2.82464
2.69994
2.64188
2.65845
2.74458
2.90375
3.15269
3.524
4.06661
4.85143
5.98824
7.64616
10.2474
15.1282
24.9149
39.9135
59.2653
70.6899
61.9957
48.6964
39.8032
35.1049
32.8275
31.778
31.2512
30.8573
30.3917
29.7685
28.9726
28.03
26.9892
25.9104
24.8576
23.8864
23.0292
22.2894
21.6526
21.1053
20.6515
20.3152
20.1312
20.1322
20.3366
20.7433
21.3308
22.0598
22.8777
23.7233
24.5303
25.13
25.4918
25.5716
25.3379
24.7781
23.9043
22.7576
21.4099
19.958
18.5105
17.1678
16.0076
15.078
14.3993
13.9851
13.8603
14.0676
14.6573
15.6533
16.9999
18.5381
20.0329
21.1949
21.8376
21.9
21.4871
20.7252
19.7308
18.6054
17.4266
16.2489
15.1076
14.0239
13.0089
12.0669
11.1984
10.401
9.67097
9.00391
8.39497
7.83933
7.33228
6.86938
6.44649
6.05977
5.70574
5.3812
5.08328
4.80935
4.55708
4.32432
4.10916
3.90987
3.7249
3.55282
3.39237
3.24239
3.10183
2.96977
2.84534
2.72778
2.61637
2.51054
2.40974
2.31351
2.22144
2.13317
2.04842
1.96694
1.88853
1.81302
1.74029
1.67025
1.60284
1.538
1.47572
1.41596
1.35873
1.304
1.25175
1.20195
1.15458
1.10959
1.06691
1.02651
0.988313
0.952257
0.918279
0.886315
0.856306
0.828193
0.801918
0.777422
0.754656
0.733565
0.71409
0.696167
0.67973
0.664707
0.651023
0.6386
0.627356
0.617207
0.608068
0.599852
0.592474
0.585851
0.5799
0.574545
0.569716
0.56535
0.561403
0.557862
21.4288
25.7193
20.7338
17.3442
13.9558
11.066
8.90973
7.38026
6.32406
5.63052
5.18449
4.84299
4.49931
4.12966
3.75358
3.3933
3.06279
2.78646
2.58313
2.46176
2.45106
2.51218
2.62751
2.81062
3.08924
3.50649
4.12837
5.08335
6.51436
8.60461
12.14
18.802
29.9629
44.8319
57.4498
56.7879
47.0098
37.9602
32.6015
29.9972
28.8832
28.4476
28.2187
27.9425
27.4956
26.8382
25.9899
25.0211
24.0404
23.166
22.4832
22.0135
21.7177
21.533
21.4176
21.373
21.4387
21.6695
22.1134
22.7966
23.7185
24.8534
26.1552
27.5617
28.9999
30.391
31.5941
32.5343
33.1707
33.4411
33.289
32.6693
31.5558
29.9546
27.9217
25.5787
23.1106
20.7293
18.6292
16.9471
15.7033
14.8472
14.3169
14.0889
14.2002
14.7191
15.6575
16.9046
18.2668
19.4503
20.2106
20.5055
20.3546
19.8382
19.0581
18.1115
17.0774
16.0144
14.9624
13.9471
12.9836
12.0797
11.2387
10.4605
9.74337
9.08432
8.47975
7.92578
7.41845
6.95388
6.52836
6.13839
5.7807
5.4523
5.15042
4.87255
4.61641
4.37992
4.16122
3.95859
3.7705
3.59556
3.4325
3.28019
3.13756
3.0037
2.87774
2.7589
2.64648
2.53984
2.43843
2.34176
2.24939
2.16095
2.07611
1.9946
1.91618
1.84067
1.76792
1.69782
1.63028
1.56524
1.50267
1.44255
1.38486
1.3296
1.27676
1.22633
1.17829
1.1326
1.08924
1.04815
1.00929
0.972601
0.938016
0.905479
0.87493
0.846311
0.819563
0.794631
0.771456
0.749987
0.730165
0.711928
0.695211
0.679942
0.666049
0.653453
0.642072
0.631823
0.622619
0.614375
0.607004
0.600423
0.594551
0.58931
0.584633
0.580457
0.576737
0.573447
24.0589
24.52
21.1141
17.5659
13.894
10.9176
8.77289
7.2948
6.31449
5.70585
5.32388
5.0042
4.64436
4.23693
3.80863
3.39616
3.02097
2.72279
2.53526
2.47233
2.50741
2.5902
2.73951
2.98561
3.37288
3.96627
4.85052
6.12225
7.91633
10.6734
15.3771
23.0954
33.9491
44.9113
48.7511
44.0591
36.5982
31.0066
28.0206
26.7445
26.3073
26.1628
26.0011
25.6655
25.1031
24.3448
23.4949
22.704
22.1146
21.7981
21.7265
21.8035
21.9324
22.0717
22.2472
22.5284
22.9937
23.7033
24.687
25.9426
27.4406
29.1319
30.9522
32.8274
34.6759
36.4133
37.8768
39.0625
39.9127
40.3722
40.3897
39.9136
38.8888
37.2635
35.0147
32.195
28.9836
25.6519
22.5034
19.865
17.8573
16.4294
15.455
14.814
14.4834
14.5378
15.0448
15.9344
17.0273
18.0823
18.8847
19.3105
19.3343
19.003
18.3982
17.6069
16.7046
15.7502
14.7857
13.8393
12.929
12.0654
11.2541
10.4974
9.7951
9.14585
8.54724
7.99636
7.49002
7.02492
6.59782
6.20555
5.8451
5.51364
5.20857
4.92746
4.66809
4.42846
4.20671
4.00117
3.81033
3.63281
3.46737
3.31285
3.16824
3.03259
2.90506
2.78486
2.67129
2.5637
2.46152
2.36425
2.27144
2.18268
2.09763
2.01598
1.9375
1.86196
1.78919
1.71907
1.65148
1.58635
1.52364
1.46331
1.40535
1.34975
1.29651
1.24563
1.19709
1.15089
1.10699
1.06537
1.02598
0.988778
0.953705
0.920703
0.889715
0.860683
0.833549
0.808256
0.784747
0.762966
0.742857
0.724359
0.707406
0.691931
0.67786
0.665116
0.653619
0.643285
0.634029
0.625764
0.618406
0.611869
0.606075
0.600946
0.596417
0.592426
0.588926
0.585889
26.781
25.4179
22.4305
18.4187
14.4197
11.2679
9.03708
7.5333
6.56817
5.98379
5.61071
5.28606
4.91838
4.50227
4.07189
3.66255
3.30564
3.03265
2.86903
2.83058
2.89131
3.02935
3.26841
3.64656
4.21342
5.02684
6.1552
7.72362
10.0162
13.5609
18.9934
26.6097
35.043
40.1911
39.4577
34.8386
29.9355
26.7444
25.2467
24.7315
24.602
24.4949
24.2215
23.7217
23.0417
22.3157
21.7217
21.4063
21.4112
21.6574
22.0038
22.3369
22.6259
22.9215
23.3175
23.909
24.765
25.9185
27.3685
29.0872
31.0267
33.1244
35.305
37.4812
39.557
41.4284
42.9804
44.2037
45.0485
45.4807
45.4821
45.0373
44.1132
42.6416
40.5243
37.6906
34.2361
30.4362
26.5706
23.1449
20.4327
18.4148
16.974
15.9333
15.206
14.8379
14.9105
15.4187
16.2264
17.1149
17.8661
18.3309
18.4517
18.2461
17.7745
17.1105
16.3227
15.4668
14.5844
13.7047
12.8474
12.025
11.2449
10.5111
9.82532
9.18738
8.59611
8.04956
7.54533
7.08074
6.653
6.2593
5.89691
5.56319
5.25567
4.97202
4.71011
4.46796
4.24377
4.03588
3.8428
3.66316
3.49572
3.33935
3.19304
3.05584
2.92691
2.80547
2.69083
2.58233
2.47939
2.3815
2.2882
2.19907
2.11376
2.03195
1.95337
1.87779
1.80502
1.7349
1.66732
1.60219
1.53944
1.47902
1.42093
1.36514
1.31166
1.26049
1.21163
1.16506
1.12078
1.07876
1.03897
1.00138
0.965928
0.932564
0.901232
0.871876
0.844436
0.818858
0.795081
0.773051
0.752709
0.733997
0.71685
0.701201
0.686979
0.674109
0.66251
0.6521
0.642795
0.63451
0.627159
0.620659
0.614931
0.609899
0.605497
0.601666
0.598358
0.595541
29.7401
27.2402
24.2667
19.8707
15.5329
12.1116
9.6849
8.06014
7.02722
6.4014
6.0075
5.69118
5.358
4.98737
4.60394
4.24282
3.9355
3.70933
3.58818
3.59159
3.70397
3.92401
4.27465
4.79042
5.51728
6.52032
7.90573
9.85495
12.6441
16.6152
21.9686
28.0527
32.7734
34.1272
32.2122
28.8511
25.9487
24.3001
23.657
23.4872
23.3877
23.1381
22.6688
22.0365
21.396
20.9446
20.8321
21.082
21.5799
22.1494
22.6557
23.0656
23.4398
23.8867
24.5151
25.4052
26.5997
28.1065
29.9065
31.9594
34.2073
36.5751
38.9702
41.2903
43.4251
45.2324
46.7018
47.8031
48.4815
48.7097
48.4974
47.878
46.877
45.4751
43.5611
40.9523
37.5911
33.8201
29.8588
26.1019
22.8933
20.397
18.5451
17.1412
16.0583
15.3268
15.0398
15.2184
15.7564
16.4568
17.1078
17.5507
17.7089
17.5783
17.2008
16.6359
15.9433
15.1736
14.3659
13.5489
12.7426
11.9608
11.2122
10.5023
9.83405
9.2086
8.62585
8.08475
7.58367
7.12054
6.69303
6.29873
5.93515
5.59989
5.29061
5.0051
4.74129
4.49725
4.2712
4.06153
3.86674
3.68549
3.51653
3.35875
3.21112
3.07272
2.94269
2.82028
2.70478
2.59554
2.49198
2.39359
2.29988
2.21046
2.12494
2.043
1.96436
1.88878
1.81604
1.74599
1.67849
1.61342
1.55073
1.49035
1.43225
1.37641
1.32284
1.27153
1.22248
1.1757
1.13118
1.0889
1.04884
1.01097
0.975244
0.941616
0.910032
0.880434
0.852767
0.826973
0.802994
0.780771
0.760249
0.741367
0.724063
0.708272
0.693923
0.680943
0.669254
0.658775
0.649422
0.641112
0.63376
0.627284
0.621605
0.616648
0.612347
0.608643
0.60549
0.602849
32.3053
29.6371
26.6557
21.8995
17.1746
13.3981
10.6825
8.84683
7.66704
6.94223
6.49835
6.1911
5.92195
5.64834
5.37154
5.11291
4.89738
4.74927
4.69333
4.75526
4.93005
5.23489
5.69326
6.3411
7.23053
8.43699
10.0696
12.2809
15.2514
19.0617
23.3506
27.0935
29.1304
29.0343
27.3816
25.3122
23.7758
23.0267
22.7781
22.6507
22.3977
21.9336
21.3146
20.7047
20.3158
20.3135
20.7284
21.4353
22.2267
22.9297
23.4815
23.9312
24.3916
24.9856
25.8113
26.9293
28.3651
30.115
32.1499
34.4158
36.8342
39.3031
41.7048
43.9155
45.8292
47.3696
48.6018
49.4915
49.965
49.9689
49.5117
48.6494
47.4544
45.991
44.2115
41.9401
39.0589
35.5955
31.7761
27.9879
24.6273
21.9217
19.836
18.1771
16.8198
15.8067
15.2455
15.1691
15.4851
16.0112
16.5465
16.9339
17.0891
16.9953
16.6795
16.1888
15.5733
14.8772
14.1359
13.3764
12.6182
11.8754
11.1579
10.472
9.82188
9.20976
8.63647
8.10181
7.60484
7.14407
6.71766
6.32354
5.95953
5.62341
5.31303
5.02627
4.76115
4.51579
4.28845
4.07754
3.88156
3.69919
3.52918
3.37043
3.22191
3.08269
2.95194
2.82887
2.71281
2.60309
2.49913
2.40042
2.30649
2.21691
2.13131
2.04935
1.97075
1.89526
1.82265
1.75276
1.68542
1.62054
1.55801
1.49778
1.4398
1.38405
1.33053
1.27922
1.23014
1.18329
1.13866
1.09625
1.05604
1.01801
0.982115
0.94832
0.916573
0.886818
0.858999
0.833059
0.80894
0.786583
0.76593
0.746923
0.7295
0.713597
0.699146
0.686075
0.674307
0.663765
0.654365
0.646026
0.638664
0.632197
0.626548
0.621643
0.617415
0.613806
0.610768
0.608259
34.2126
32.2236
29.4205
24.4577
19.3998
15.239
12.1561
10.0114
8.58937
7.6847
7.12571
6.77754
6.54414
6.36915
6.22999
6.12538
6.06351
6.05639
6.11936
6.27132
6.52964
6.92437
7.48105
8.23551
9.23805
10.5583
12.2863
14.5101
17.2349
20.2473
23.0609
25.0868
25.9323
25.6153
24.587
23.4911
22.7687
22.4397
22.2577
21.9837
21.5136
20.8904
20.2673
19.8652
19.8757
20.3653
21.232
22.2537
23.2058
23.9639
24.5341
25.0161
25.5433
26.2369
27.1846
28.4378
30.0165
31.9108
34.0772
36.4368
38.8727
41.2449
43.4149
45.2446
46.6408
47.726
48.5574
49.132
49.3671
49.1892
48.5816
47.5919
46.3281
44.8807
43.2257
41.2242
38.7139
35.6412
32.1619
28.624
25.4196
22.7775
20.6565
18.873
17.3408
16.1426
15.4031
15.156
15.3109
15.6946
16.1192
16.4371
16.5656
16.4822
16.2041
15.7677
15.2139
14.5802
13.8973
13.1899
12.4764
11.7708
11.0834
10.4214
9.78965
9.19143
8.62835
8.10099
7.60901
7.15149
6.727
6.33386
5.97014
5.63386
5.32302
5.03561
4.76975
4.5236
4.29549
4.08382
3.88713
3.7041
3.53349
3.37419
3.22518
3.08553
2.9544
2.83103
2.71471
2.6048
2.50071
2.40192
2.30797
2.21843
2.13292
2.05112
1.97271
1.89744
1.82509
1.75548
1.68844
1.62385
1.56161
1.50166
1.44393
1.38841
1.33507
1.28392
1.23495
1.18816
1.14357
1.10116
1.06093
1.02285
0.986899
0.953036
0.921217
0.891388
0.863494
0.837479
0.813284
0.79085
0.770119
0.751032
0.73353
0.717549
0.703022
0.68988
0.678049
0.667451
0.658007
0.649636
0.642257
0.635788
0.630153
0.625279
0.621098
0.617553
0.614595
0.612179
35.3346
34.5878
32.3061
27.463
22.278
17.8059
14.3295
11.795
10.0312
8.8487
8.08056
7.59623
7.30253
7.13967
7.07423
7.09011
7.18002
7.33986
7.56723
7.8623
8.2479
8.74914
9.39376
10.2185
11.27
12.5992
14.2414
16.1786
18.2975
20.3808
22.1525
23.3597
23.8683
23.7491
23.277
22.7818
22.4378
22.189
21.875
21.3901
20.754
20.1061
19.6717
19.6563
20.1407
21.0765
22.2808
23.5113
24.5707
25.3796
25.9808
26.493
27.0534
27.7808
28.761
30.0451
31.6513
33.5592
35.6977
37.9469
40.1512
42.148
43.8116
45.0753
45.9312
46.5208
46.9037
47.0941
47.0697
46.7701
46.1314
45.1599
43.9395
42.5619
41.0355
39.255
37.0616
34.3756
31.3134
28.1874
25.3493
22.9698
20.9613
19.1595
17.5485
16.2651
15.4448
15.1106
15.1655
15.4431
15.7711
16.0172
16.1071
16.018
15.7612
15.3646
14.8608
14.2803
13.6493
12.9895
12.3178
11.6477
10.9895
10.3511
9.73808
9.15429
8.60214
8.08286
7.59673
7.14329
6.72157
6.33017
5.96749
5.63172
5.32104
5.03356
4.76749
4.52107
4.29265
4.08067
3.88371
3.70042
3.5296
3.37013
3.22099
3.08126
2.95009
2.82672
2.71045
2.60062
2.49666
2.39805
2.30431
2.21503
2.12983
2.04836
1.97032
1.89545
1.82352
1.75434
1.68774
1.62359
1.56179
1.50225
1.44493
1.38977
1.33677
1.28591
1.23719
1.19062
1.1462
1.10392
1.06379
1.02579
0.989887
0.956058
0.924258
0.89444
0.866549
0.84053
0.816324
0.793871
0.773115
0.753996
0.736455
0.720431
0.705857
0.692667
0.680789
0.670148
0.660666
0.652264
0.644863
0.638383
0.632749
0.627887
0.623733
0.620225
0.617315
0.614958
35.3256
36.2976
35.0881
30.9488
26.0808
21.5465
17.7529
14.7879
12.5825
11.0026
9.9041
9.16153
8.67862
8.38902
8.25122
8.241
8.34397
8.54993
8.85034
9.23888
9.73199
10.3252
11.042
11.9125
12.968
14.2292
15.6892
17.2981
18.9558
20.5209
21.8322
22.7473
23.1996
23.2441
23.041
22.7589
22.4673
22.1187
21.6328
20.9745
20.3101
19.8245
19.705
20.078
20.9526
22.2167
23.6606
25.0507
26.2159
27.099
27.7528
28.2945
28.8561
29.5525
30.4681
31.6523
33.1169
34.8278
36.6974
38.5897
40.3479
41.8322
42.96
43.705
44.126
44.3016
44.2812
44.1178
43.8236
43.3598
42.6696
41.7374
40.6133
39.3665
38.0052
36.4384
34.5257
32.2016
29.587
26.9715
24.6307
22.6208
20.7924
19.0328
17.423
16.1488
15.3382
14.9903
14.9966
15.1985
15.4433
15.6195
15.6657
15.5628
15.3187
14.954
14.4937
13.9617
13.3795
12.7654
12.1347
11.5001
10.8717
10.2578
9.66451
9.0963
8.55626
8.04623
7.56705
7.11875
6.70076
6.31202
5.95119
5.6167
5.30687
5.01996
4.75426
4.50809
4.27985
4.06802
3.8712
3.68807
3.51742
3.35815
3.20923
3.06975
2.93886
2.8158
2.69986
2.59041
2.48686
2.38868
2.29541
2.20662
2.12194
2.04101
1.96353
1.88924
1.8179
1.74931
1.68331
1.61976
1.55854
1.49956
1.44278
1.38814
1.33561
1.28519
1.23687
1.19065
1.14654
1.10453
1.06463
1.02683
0.9911
0.957416
0.92574
0.896027
0.868225
0.84228
0.818135
0.795731
0.775011
0.755917
0.738389
0.722366
0.707786
0.694581
0.682684
0.672021
0.662517
0.654096
0.64668
0.64019
0.634554
0.629697
0.625556
0.622071
0.61919
0.616869
33.8244
36.4512
36.7399
33.9347
30.0215
25.96
22.2247
19.0449
16.4894
14.5238
13.061
11.9999
11.2484
10.7346
10.409
10.2416
10.2171
10.3283
10.5714
10.9437
11.4609
12.1066
12.8679
13.7625
14.8049
15.996
17.3135
18.7056
20.0898
21.3594
22.4002
23.1196
23.481
23.5245
23.3479
23.0488
22.6638
22.1449
21.5065
20.8244
20.2735
20.0234
20.2189
20.9251
22.1041
23.6177
25.2553
26.7983
28.09
29.0767
29.8031
30.3734
30.9083
31.5158
32.2776
33.2417
34.4185
35.7751
37.2328
38.6749
39.9693
41.0031
41.7086
42.0548
42.1127