/*--------------------------------*- C++ -*----------------------------------*\
  =========                 |
  \\      /  F ield         | OpenFOAM: The Open Source CFD Toolbox
   \\    /   O peration     | Website:  https://openfoam.org
    \\  /    A nd           | Version:  9
     \\/     M anipulation  |
\*---------------------------------------------------------------------------*/
FoamFile
{
    format      ascii;
    class       volScalarField;
    location    "0.03";
    object      p;
}
// * * * * * * * * * * * * * * * * * * * * * * * * * * * * * * * * * * * * * //

dimensions      [0 2 -2 0 0 0 0];

internalField   nonuniform List<scalar> 
12225
(
-0.0133784
-0.957159
-1.38087
-1.46863
-1.52827
-1.60547
-1.66349
-1.6861
-1.67559
-1.63439
-1.56017
-1.44807
-1.29258
-1.08769
-0.82622
-0.501895
-0.105606
0.339096
-0.60033
-1.20026
-1.49062
-1.54242
-1.57865
-1.63797
-1.68539
-1.70225
-1.68882
-1.64688
-1.57393
-1.46515
-1.31519
-1.11845
-0.868466
-0.560389
-0.187724
0.213179
-0.767088
-1.10642
-1.38473
-1.49061
-1.55155
-1.62011
-1.67598
-1.70176
-1.69712
-1.66473
-1.60353
-1.51013
-1.38098
-1.21306
-1.00385
-0.754618
-0.472099
-0.207904
-0.887592
-1.13137
-1.41455
-1.54647
-1.60601
-1.66371
-1.71328
-1.73723
-1.73326
-1.70421
-1.65006
-1.56874
-1.4585
-1.3191
-1.15272
-0.967232
-0.782227
-0.643628
-1.00401
-1.19264
-1.44102
-1.56991
-1.62519
-1.67654
-1.72455
-1.75134
-1.7525
-1.73071
-1.68698
-1.62051
-1.53124
-1.42136
-1.29673
-1.16975
-1.06543
-1.02502
-1.11387
-1.25689
-1.46276
-1.58895
-1.65013
-1.70215
-1.75077
-1.78097
-1.78769
-1.77356
-1.74066
-1.68961
-1.62195
-1.54197
-1.45819
-1.38574
-1.3508
-1.39238
-1.216
-1.32353
-1.49314
-1.61592
-1.68283
-1.73444
-1.78144
-1.81348
-1.82541
-1.81936
-1.79813
-1.76358
-1.71864
-1.6692
-1.62546
-1.60366
-1.62891
-1.73477
-1.31161
-1.39313
-1.53252
-1.64789
-1.71756
-1.76886
-1.81497
-1.84977
-1.8682
-1.87167
-1.86342
-1.84641
-1.82473
-1.80531
-1.79911
-1.8221
-1.89664
-2.04946
-1.40209
-1.46471
-1.57882
-1.68426
-1.75499
-1.80727
-1.8539
-1.89208
-1.91744
-1.93091
-1.93602
-1.93661
-1.9376
-1.94641
-1.97388
-2.03465
-2.14748
-2.33271
-1.48848
-1.53729
-1.63078
-1.72565
-1.79622
-1.85011
-1.89808
-1.93984
-1.97223
-1.99598
-2.01465
-2.03259
-2.05514
-2.08969
-2.14626
-2.23745
-2.37818
-2.5831
-1.57161
-1.61028
-1.68739
-1.77216
-1.84151
-1.89713
-1.94714
-1.99288
-2.03251
-2.06668
-2.09879
-2.13333
-2.17568
-2.23272
-2.31321
-2.42734
-2.58632
-2.79986
-1.64541
-1.67737
-1.7428
-1.81921
-1.88681
-1.94398
-1.99646
-2.04625
-2.09255
-2.13609
-2.17997
-2.22852
-2.28686
-2.36112
-2.45862
-2.58733
-2.75536
-2.96878
-1.71679
-1.74374
-1.8
-1.86918
-1.93485
-1.99351
-2.04879
-2.10285
-2.15567
-2.20811
-2.26293
-2.3241
-2.39624
-2.48457
-2.59489
-2.73309
-2.90455
-3.11252
-1.79613
-1.81888
-1.86731
-1.92991
-1.99354
-2.05383
-2.11258
-2.17168
-2.2317
-2.29358
-2.35965
-2.43326
-2.51824
-2.61864
-2.73856
-2.88174
-3.05106
-3.24732
-1.88324
-1.90273
-1.94505
-2.00226
-2.06419
-2.12632
-2.18911
-2.25395
-2.32159
-2.39294
-2.46979
-2.55467
-2.65035
-2.75955
-2.88468
-3.02752
-3.18887
-3.36785
-1.97723
-1.99447
-2.03261
-2.08616
-2.1472
-2.21158
-2.27888
-2.34985
-2.4251
-2.50529
-2.59157
-2.68551
-2.78874
-2.90265
-3.02816
-3.16554
-3.31418
-3.4723
-2.07581
-2.09183
-2.12783
-2.17979
-2.24131
-2.30861
-2.38076
-2.4579
-2.54024
-2.62799
-2.72161
-2.82173
-2.92892
-3.04348
-3.16526
-3.29361
-3.42725
-3.56428
-2.17392
-2.18977
-2.22575
-2.27851
-2.34231
-2.41351
-2.49084
-2.57393
-2.66249
-2.75623
-2.85494
-2.95849
-3.0667
-3.17915
-3.29512
-3.41362
-3.53329
-3.65257
-2.26102
-2.27811
-2.31667
-2.37326
-2.44181
-2.51844
-2.60162
-2.69069
-2.78491
-2.88351
-2.98579
-3.09118
-3.19912
-3.30895
-3.41988
-3.53101
-3.6413
-3.74977
-2.30357
-2.32337
-2.36739
-2.43095
-2.5065
-2.58953
-2.67866
-2.77333
-2.87266
-2.97554
-3.08105
-3.18849
-3.29722
-3.40654
-3.51573
-3.62405
-3.73072
-3.83507
-2.31048
-2.33357
-2.38463
-2.45673
-2.53986
-2.62903
-2.72353
-2.8232
-2.92693
-3.03339
-3.1417
-3.25126
-3.36152
-3.47184
-3.58157
-3.69012
-3.79698
-3.90178
-2.29251
-2.32058
-2.3818
-2.46494
-2.55628
-2.6512
-2.75095
-2.85584
-2.96417
-3.07423
-3.18521
-3.29667
-3.40814
-3.51912
-3.62912
-3.73771
-3.84429
-3.9485
-2.25472
-2.29021
-2.36575
-2.46258
-2.56208
-2.66177
-2.76601
-2.8756
-2.98822
-3.10203
-3.21644
-3.33113
-3.44554
-3.55909
-3.67113
-3.78188
-3.89085
-3.99798
-2.20052
-2.24734
-2.34237
-2.45428
-2.56108
-2.66577
-2.77527
-2.88908
-3.00411
-3.11919
-3.23446
-3.34984
-3.46483
-3.57883
-3.69165
-3.80255
-3.91145
-4.01842
-2.13173
-2.19658
-2.31883
-2.44364
-2.55233
-2.66114
-2.77878
-2.90047
-3.02132
-3.14086
-3.25996
-3.37865
-3.49638
-3.61261
-3.72714
-3.83968
-3.95032
-4.05901
-2.049
-2.13974
-2.30267
-2.44081
-2.54408
-2.64885
-2.76686
-2.88975
-3.01155
-3.13236
-3.2532
-3.37375
-3.4932
-3.611
-3.72694
-3.84088
-3.95261
-4.06179
-1.95535
-2.07448
-2.28251
-2.44338
-2.55752
-2.67151
-2.79557
-2.92071
-3.04305
-3.16416
-3.28522
-3.4058
-3.52508
-3.64261
-3.75819
-3.87182
-3.98365
-4.09463
-1.85909
-2.02711
-2.232
-2.3706
-2.48535
-2.61354
-2.74974
-2.88278
-3.01151
-3.13859
-3.265
-3.39011
-3.5132
-3.63391
-3.75208
-3.86774
-3.98112
-4.09411
-1.73967
-2.13916
-2.37636
-2.46088
-2.54441
-2.66271
-2.79223
-2.91848
-3.04204
-3.16583
-3.29008
-3.41364
-3.53558
-3.6554
-3.77274
-3.88723
-3.99889
-4.10801
-1.16453
-1.8765
-2.25815
-2.38131
-2.48679
-2.62463
-2.76777
-2.90283
-3.03287
-3.16188
-3.29035
-3.41726
-3.54184
-3.66369
-3.78247
-3.89762
-4.00881
-4.11411
-12.3985
-12.5819
-12.9368
-13.4925
-14.0726
-14.099
-13.0921
-11.1125
-8.91709
-7.10277
-6.08933
-6.15344
-7.24496
-9.05974
-11.2497
-13.5186
-15.6214
-17.3563
-18.5589
-19.1333
-19.2042
-18.9444
-18.4865
-17.9588
-17.5288
-17.3606
-17.5458
-18.0349
-18.6029
-19.083
-19.5001
-19.9207
-20.353
-20.702
-20.709
-20.1985
-19.0731
-17.5504
-16.5502
-16.4054
-16.8179
-17.2348
-17.4922
-17.5782
-17.5393
-17.5403
-17.702
-17.9192
-18.1028
-18.2736
-18.6389
-19.4772
-21.0328
-23.3449
-26.3231
-29.7932
-33.5454
-37.3728
-41.0962
-44.5753
-47.7101
-50.4358
-52.7154
-54.5339
-55.8934
-56.8084
-57.2995
-57.3737
-57.0069
-56.1866
-54.9519
-53.3319
-51.3456
-49.0046
-46.3166
-43.2876
-39.9246
-36.2383
-32.2467
-27.9795
-23.4815
-18.8148
-14.0585
-9.30559
-4.65706
-0.213044
3.93599
7.71714
11.0799
13.9974
16.4654
18.5003
20.1355
21.4139
22.3826
23.0683
23.5535
23.8391
23.971
23.9841
23.9011
23.7467
23.5402
23.2986
23.0346
22.7516
22.4572
22.1632
21.873
21.5894
21.315
21.0515
20.8
20.5611
20.3354
20.1229
19.9236
19.7375
19.5651
19.406
19.2559
19.1132
18.9788
18.8533
18.7351
18.6241
18.52
18.4223
18.3306
18.2444
18.1637
18.0883
18.0182
17.9534
17.894
17.8398
17.7908
17.7467
17.7071
17.6718
17.6404
17.6124
17.5874
17.5651
17.5452
17.5275
17.5116
17.4974
17.4848
17.4735
17.4633
17.4542
17.4461
17.4387
17.4321
17.4261
17.4206
17.4157
17.4113
17.4073
17.4037
17.3999
17.3933
17.3925
17.3979
17.4022
17.4079
17.4145
17.4229
17.4344
17.4497
17.47
17.4968
17.5315
17.5762
17.6332
17.7062
17.7932
17.9133
18.0007
-13.5016
-13.9793
-14.7373
-15.6829
-16.4677
-16.3623
-15.2183
-13.4798
-11.6124
-10.2655
-9.8317
-10.3065
-11.5349
-13.2876
-15.3096
-17.3707
-19.29
-20.9344
-22.2276
-23.1261
-23.4997
-23.283
-22.5448
-21.4745
-20.3347
-19.4095
-18.9303
-18.9345
-19.1311
-19.274
-19.5832
-20.2683
-21.112
-21.7424
-21.9093
-21.4466
-20.3075
-18.8357
-17.7976
-17.58
-17.8244
-18.0418
-18.0189
-17.8294
-17.5567
-17.2531
-17.225
-17.6319
-18.2085
-18.6934
-19.3421
-20.5991
-22.6738
-25.5392
-29.0189
-32.8701
-36.8479
-40.7452
-44.4065
-47.7266
-50.6404
-53.1118
-55.1242
-56.6728
-57.7599
-58.3941
-58.5886
-58.3685
-57.7772
-56.8434
-55.5557
-53.9143
-51.9249
-49.5936
-46.9253
-43.9232
-40.5911
-36.9358
-32.9711
-28.7223
-24.2302
-19.5543
-14.7727
-9.9798
-5.27933
-0.775793
3.43571
7.27808
10.6977
13.6663
16.1796
18.255
19.9251
21.2311
22.2198
22.9362
23.4289
23.7293
23.8743
23.8952
23.8206
23.6741
23.4747
23.2367
22.971
22.6926
22.4096
22.1232
21.8383
21.5591
21.2883
21.0278
20.7788
20.5421
20.3182
20.1072
19.909
19.7235
19.5494
19.3851
19.2315
19.0884
18.955
18.8325
18.717
18.6085
18.5071
18.4121
18.3228
18.2391
18.1607
18.0874
18.019
17.9557
17.8973
17.8438
17.7951
17.751
17.7113
17.6758
17.6439
17.6155
17.5902
17.5675
17.5473
17.5292
17.5131
17.4987
17.4859
17.4744
17.4641
17.4549
17.4467
17.4392
17.4325
17.4264
17.4209
17.4159
17.4114
17.4074
17.4039
17.401
17.4013
17.4014
17.4011
17.4035
17.407
17.4122
17.4198
17.4304
17.4446
17.4636
17.4886
17.521
17.5629
17.616
17.684
17.7648
17.8765
17.9548
-14.0706
-14.3669
-14.7559
-15.148
-15.4777
-15.7165
-15.5
-14.9574
-14.5183
-14.528
-15.1089
-16.211
-17.7156
-19.4778
-21.345
-23.1762
-24.8551
-26.2908
-27.4142
-28.1773
-28.5478
-28.5204
-28.1237
-27.3981
-26.3929
-25.1866
-23.9001
-22.6836
-21.6661
-20.9848
-20.7867
-20.9903
-21.3135
-21.5212
-21.4867
-21.1083
-20.2549
-19.2381
-18.7472
-18.9011
-19.2078
-19.1323
-18.6113
-18.0198
-17.7546
-17.8628
-18.1962
-19.0548
-20.4453
-22.2268
-24.3647
-26.8781
-29.7349
-32.8465
-36.0981
-39.3772
-42.5879
-45.654
-48.5153
-51.124
-53.4409
-55.4348
-57.0819
-58.3645
-59.2698
-59.7862
-59.9066
-59.6421
-59.0044
-58.0147
-56.6853
-55.0243
-53.0381
-50.7311
-48.1051
-45.1593
-41.8916
-38.3015
-34.394
-30.185
-25.7071
-21.0135
-16.1804
-11.3043
-6.49538
-1.86744
2.47421
6.44322
9.97929
13.0506
15.6522
17.8019
19.5331
20.8883
21.9187
22.6736
23.1951
23.5196
23.6868
23.7279
23.6713
23.5405
23.3549
23.1299
22.8781
22.6101
22.3336
22.0533
21.7745
21.5011
21.2355
20.9798
20.7351
20.5024
20.2819
20.074
19.8785
19.6951
19.5231
19.3624
19.2131
19.074
18.944
18.8205
18.7057
18.5981
18.4976
18.4032
18.3148
18.232
18.1546
18.0823
18.0152
17.953
17.8957
17.8433
17.7954
17.7521
17.7129
17.6776
17.646
17.6176
17.5922
17.5695
17.5491
17.531
17.5147
17.5001
17.4871
17.4755
17.4651
17.4557
17.4473
17.4397
17.4328
17.4266
17.4209
17.4158
17.4112
17.4071
17.4035
17.4008
17.3999
17.399
17.3981
17.3993
17.4021
17.407
17.4139
17.4234
17.4363
17.4532
17.4752
17.5037
17.5399
17.5853
17.6419
17.7079
17.7931
17.8585
-13.5
-13.4383
-13.3913
-13.5903
-14.1948
-15.0674
-16.0154
-16.9798
-18.0369
-19.2649
-20.6863
-22.2758
-23.9802
-25.7327
-27.4604
-29.091
-30.5579
-31.8032
-32.7792
-33.4531
-33.8026
-33.8097
-33.4784
-32.8316
-31.8868
-30.6491
-29.1254
-27.3598
-25.4763
-23.6719
-22.1375
-20.9657
-20.1298
-19.5134
-18.9801
-18.4375
-17.8871
-17.7009
-18.1623
-18.9033
-19.2824
-19.2833
-19.0968
-19.0474
-19.45
-20.4121
-21.8571
-23.7849
-26.091
-28.6223
-31.2671
-33.9685
-36.701
-39.4502
-42.2
-44.9249
-47.5886
-50.1459
-52.5482
-54.7474
-56.6998
-58.3686
-59.7251
-60.7489
-61.4274
-61.7522
-61.7184
-61.3404
-60.6173
-59.5635
-58.1924
-56.5157
-54.5423
-52.2771
-49.7202
-46.8665
-43.7067
-40.2294
-36.4263
-32.2983
-27.8633
-23.1635
-18.2696
-13.2801
-8.31469
-3.50184
1.03645
5.19855
8.91286
12.1412
14.8767
17.1374
18.9585
20.3874
21.4801
22.2881
22.8516
23.213
23.4121
23.4818
23.4506
23.3424
23.1768
22.9695
22.7332
22.4787
22.2144
21.946
21.6781
21.4143
21.1574
20.9094
20.6717
20.4451
20.2301
20.0271
19.8358
19.6562
19.4879
19.3304
19.183
19.0451
18.9159
18.7945
18.6816
18.5763
18.4781
18.3858
18.2994
18.2187
18.1433
18.0731
18.0077
17.9472
17.8914
17.8401
17.7932
17.7506
17.712
17.6771
17.6456
17.6174
17.5921
17.5694
17.549
17.5308
17.5146
17.5
17.487
17.4753
17.4649
17.4555
17.447
17.4394
17.4325
17.4262
17.4206
17.4154
17.4107
17.4066
17.403
17.4002
17.3985
17.3972
17.3964
17.3972
17.3995
17.4035
17.4094
17.4174
17.4284
17.4428
17.4616
17.4856
17.5158
17.5529
17.5978
17.6482
17.7067
17.7486
-13.0575
-12.9498
-12.9332
-13.3121
-14.435
-16.1379
-18.0543
-19.9931
-21.9166
-23.8269
-25.7232
-27.5963
-29.4286
-31.1949
-32.864
-34.3984
-35.7564
-36.8946
-37.7724
-38.3567
-38.6249
-38.5577
-38.1506
-37.4185
-36.3762
-35.0267
-33.3532
-31.322
-28.9125
-26.1763
-23.2915
-20.5513
-18.2216
-16.4243
-15.1719
-14.398
-14.1476
-14.8557
-15.9909
-17.1913
-18.2283
-19.0489
-19.9641
-21.1681
-22.7742
-24.7862
-27.0958
-29.5873
-32.1543
-34.727
-37.2786
-39.8081
-42.3214
-44.8198
-47.294
-49.722
-52.0724
-54.308
-56.3896
-58.2788
-59.9398
-61.3407
-62.4547
-63.2612
-63.7456
-63.9008
-63.7277
-63.2197
-62.3944
-61.2648
-59.8461
-58.153
-56.1978
-53.9882
-51.5248
-48.7998
-45.7969
-42.4927
-38.8613
-34.8824
-30.5512
-25.8904
-20.9586
-15.8534
-10.7051
-5.66197
-0.870135
3.54596
7.49738
10.9356
13.8496
16.2576
18.1987
19.7273
20.9037
21.7793
22.3988
22.8088
23.05
23.1569
23.159
23.0804
22.9414
22.758
22.5435
22.3084
22.0613
21.8081
21.5537
21.3021
21.0562
20.8179
20.5889
20.3702
20.1622
19.9654
19.7798
19.6052
19.4413
19.2877
19.144
19.0095
18.8838
18.7662
18.6564
18.5541
18.4577
18.3676
18.2835
18.2048
18.1313
18.0628
17.9991
17.9401
17.8856
17.8354
17.7895
17.7477
17.7097
17.6753
17.6442
17.6163
17.5911
17.5686
17.5484
17.5303
17.5141
17.4995
17.4866
17.4749
17.4645
17.4551
17.4466
17.439
17.432
17.4257
17.42
17.4148
17.41
17.4058
17.4021
17.3991
17.3969
17.3953
17.3943
17.3945
17.396
17.3989
17.4035
17.41
17.419
17.4309
17.4463
17.4659
17.4901
17.5191
17.5529
17.5885
17.6239
17.6392
-13.1881
-13.1344
-13.3185
-14.367
-16.2718
-18.5598
-20.9464
-23.3312
-25.6644
-27.9161
-30.0716
-32.1235
-34.0671
-35.8969
-37.599
-39.1461
-40.4985
-41.6102
-42.4368
-42.9432
-43.1077
-42.9146
-42.3633
-41.4687
-40.246
-38.7029
-36.8276
-34.5711
-31.8462
-28.583
-24.848
-20.9436
-17.3252
-14.4102
-12.3958
-11.3083
-11.3448
-12.2685
-13.8102
-15.5742
-17.5224
-19.6244
-21.8946
-24.3287
-26.8979
-29.546
-32.2067
-34.8346
-37.4024
-39.9035
-42.3465
-44.7427
-47.0978
-49.4093
-51.6664
-53.8522
-55.9442
-57.9166
-59.7406
-61.3855
-62.8202
-64.0142
-64.9395
-65.5731
-65.8988
-65.9078
-65.5984
-64.9733
-64.0473
-62.8373
-61.3628
-59.6444
-57.7007
-55.5454
-53.1837
-50.6093
-47.8024
-44.7293
-41.3459
-37.6057
-33.4728
-28.939
-24.0396
-18.8624
-13.5451
-8.2587
-3.18082
1.53268
5.76767
9.45955
12.59
15.1769
17.2651
18.9173
20.1961
21.1531
21.8417
22.3111
22.6041
22.7568
22.7995
22.7573
22.6508
22.4966
22.3083
22.0967
21.8704
21.636
21.3985
21.1622
20.9299
20.704
20.486
20.2771
20.0781
19.8892
19.7107
19.5425
19.3844
19.236
19.097
18.9668
18.845
18.7309
18.6242
18.5245
18.431
18.3437
18.2622
18.1859
18.1147
18.0484
17.9867
17.9295
17.8766
17.8279
17.7833
17.7425
17.7054
17.6717
17.6412
17.6137
17.5889
17.5666
17.5466
17.5287
17.5126
17.4982
17.4854
17.4738
17.4634
17.4541
17.4457
17.4381
17.4312
17.4249
17.4191
17.4139
17.4091
17.4048
17.401
17.3977
17.3952
17.3932
17.3918
17.3914
17.3921
17.394
17.3973
17.4022
17.4092
17.4184
17.4304
17.4454
17.4637
17.4848
17.5078
17.5294
17.5449
17.5373
-13.2911
-13.3896
-14.3327
-16.3406
-18.7614
-21.2928
-23.888
-26.4861
-29.018
-31.4405
-33.7357
-35.9056
-37.9622
-39.9098
-41.7313
-43.3849
-44.8127
-45.9543
-46.7605
-47.197
-47.2466
-46.8982
-46.1603
-45.0554
-43.607
-41.8367
-39.7521
-37.32
-34.4423
-30.9859
-26.9186
-22.4834
-18.1983
-14.6462
-12.1913
-11.0314
-11.0704
-12.0456
-13.8587
-16.2779
-19.0834
-22.0779
-25.1335
-28.1625
-31.1082
-33.9397
-36.647
-39.2365
-41.7197
-44.1101
-46.4208
-48.6626
-50.8424
-52.9623
-55.019
-57.0042
-58.9034
-60.6961
-62.3564
-63.8536
-65.1544
-66.2252
-67.034
-67.5536
-67.7651
-67.6583
-67.2326
-66.4971
-65.4677
-64.1647
-62.6136
-60.8429
-58.8804
-56.7492
-54.4636
-52.0242
-49.4142
-46.5961
-43.5121
-40.0903
-36.2588
-31.9671
-27.2115
-22.0549
-16.6321
-11.1345
-5.77562
-0.750896
3.79134
7.7628
11.1342
13.9231
16.1823
17.9771
19.3697
20.4207
21.1892
21.7275
22.0806
22.2864
22.3765
22.3766
22.3081
22.1881
22.0305
21.8464
21.6448
21.4326
21.2151
20.9967
20.7805
20.5691
20.3641
20.1669
19.9783
19.7989
19.6289
19.4683
19.317
19.1748
19.0414
18.9163
18.7991
18.6893
18.5866
18.4906
18.4007
18.3166
18.238
18.1645
18.096
18.032
17.9725
17.9173
17.8662
17.8191
17.7758
17.7362
17.7
17.6671
17.6372
17.6102
17.5859
17.564
17.5443
17.5266
17.5107
17.4965
17.4838
17.4724
17.4621
17.4529
17.4445
17.437
17.4301
17.4238
17.4181
17.4128
17.4079
17.4035
17.3996
17.3962
17.3933
17.3909
17.3891
17.388
17.3879
17.3887
17.3907
17.394
17.3988
17.4053
17.4138
17.4242
17.4365
17.4499
17.4628
17.4716
17.4703
17.4445
-13.8265
-14.3368
-16.272
-18.7751
-21.306
-23.9078
-26.5884
-29.2637
-31.8558
-34.3266
-36.6761
-38.9283
-41.1054
-43.2025
-45.1758
-46.951
-48.4471
-49.5982
-50.3649
-50.7284
-50.6796
-50.198
-49.2944
-48.0001
-46.3522
-44.39
-42.1425
-39.6004
-36.6833
-33.2472
-29.2145
-24.7776
-20.4746
-16.9418
-14.6053
-13.5586
-13.6557
-14.805
-16.8724
-19.5843
-22.6534
-25.8462
-29.0111
-32.059
-34.95
-37.6765
-40.2482
-42.6832
-45.0014
-47.2216
-49.3614
-51.4362
-53.4588
-55.4371
-57.3729
-59.2605
-61.0855
-62.8247
-64.4469
-65.915
-67.1889
-68.228
-68.9951
-69.4586
-69.5942
-69.3917
-68.8556
-67.9999
-66.8406
-65.406
-63.7312
-61.8546
-59.8146
-57.6454
-55.3729
-53.0085
-50.5442
-47.9469
-45.1547
-42.0785
-38.6135
-34.662
-30.1675
-25.1491
-19.7219
-14.086
-8.49133
-3.17783
1.66475
5.91714
9.53688
12.5416
14.9843
16.9287
18.4432
19.5968
20.4531
21.0675
21.4875
21.7526
21.8956
21.9432
21.9174
21.8358
21.7127
21.5598
21.3862
21.1992
21.0044
20.8063
20.6086
20.4136
20.2236
20.0398
19.8633
19.6948
19.5345
19.3828
19.2395
19.1045
18.9776
18.8584
18.7467
18.6419
18.5438
18.4519
18.3659
18.2854
18.2101
18.1396
18.0739
18.0126
17.9555
17.9024
17.8533
17.8079
17.7662
17.7278
17.6928
17.6609
17.6318
17.6055
17.5817
17.5603
17.541
17.5236
17.508
17.4941
17.4816
17.4703
17.4602
17.4511
17.4429
17.4355
17.4287
17.4224
17.4167
17.4114
17.4066
17.4021
17.398
17.3944
17.3911
17.3884
17.3861
17.3844
17.3834
17.3831
17.3837
17.3853
17.3879
17.3917
17.3967
17.4027
17.4092
17.4152
17.4187
17.4159
17.4005
17.3603
-15.7944
-16.8429
-18.9707
-21.2767
-23.6726
-26.2167
-28.8462
-31.4617
-33.9952
-36.4275
-38.7796
-41.0863
-43.3598
-45.5644
-47.62
-49.4263
-50.8952
-51.9774
-52.6618
-52.9489
-52.8445
-52.3013
-51.3203
-49.9335
-48.1893
-46.144
-43.8468
-41.3071
-38.4585
-35.1579
-31.3461
-27.2845
-23.5087
-20.555
-18.7107
-17.9748
-18.1619
-19.3554
-21.3848
-23.9647
-26.8301
-29.7777
-32.6768
-35.4565
-38.0882
-40.5697
-42.9125
-45.1358
-47.2623
-49.3159
-51.3201
-53.2956
-55.2586
-57.2181
-59.174
-61.1153
-63.019
-64.8514
-66.5696
-68.1244
-69.4651
-70.5431
-71.3148
-71.7447
-71.8089
-71.5017
-70.8297
-69.8058
-68.4598
-66.8305
-64.9637
-62.9086
-60.7148
-58.4283
-56.0867
-53.7136
-51.3119
-48.8576
-46.2927
-43.5221
-40.4195
-36.8457
-32.6878
-27.9084
-22.5831
-16.9042
-11.1493
-5.60358
-0.500435
4.00933
7.8687
11.0868
13.7077
15.8002
17.4394
18.6995
19.6478
20.3429
20.8343
21.1632
21.3634
21.4626
21.4833
21.4437
21.3587
21.24
21.0972
20.938
20.7683
20.593
20.4156
20.2391
20.0657
19.8969
19.734
19.5776
19.4284
19.2866
19.1523
19.0255
18.9059
18.7935
18.6878
18.5887
18.4957
18.4085
18.3268
18.2503
18.1786
18.1117
18.049
17.9906
17.9362
17.8855
17.8386
17.7951
17.7551
17.7182
17.6845
17.6536
17.6255
17.6
17.5768
17.5559
17.5371
17.5201
17.5049
17.4912
17.479
17.4679
17.458
17.4491
17.441
17.4337
17.427
17.4209
17.4152
17.4099
17.405
17.4004
17.3962
17.3924
17.3888
17.3857
17.3829
17.3805
17.3786
17.3773
17.3765
17.3764
17.3769
17.3779
17.3794
17.381
17.382
17.381
17.3759
17.3628
17.3355
17.2838
-18.5015
-19.733
-21.4276
-23.3362
-25.5025
-27.8701
-30.332
-32.7932
-35.1989
-37.5433
-39.8555
-42.1662
-44.4683
-46.6938
-48.7359
-50.4835
-51.8575
-52.8302
-53.4186
-53.6418
-53.4964
-52.9354
-51.955
-50.5829
-48.872
-46.8863
-44.6752
-42.2403
-39.5131
-36.4138
-33.0027
-29.5947
-26.6216
-24.4511
-23.1253
-22.5149
-22.7777
-23.9248
-25.751
-28.0167
-30.5088
-33.0681
-35.593
-38.0283
-40.352
-42.5634
-44.6759
-46.7119
-48.6984
-50.6642
-52.6365
-54.6378
-56.6827
-58.7748
-60.9046
-63.0477
-65.166
-67.2096
-69.1204
-70.8364
-72.2964
-73.4439
-74.2307
-74.6209
-74.5947
-74.1529
-73.3023
-72.0658
-70.4829
-68.6031
-66.4828
-64.1823
-61.7626
-59.2822
-56.7912
-54.3258
-51.9006
-49.501
-47.0752
-44.5278
-41.7226
-38.4935
-34.6811
-30.1901
-25.0464
-19.415
-13.5912
-7.89318
-2.59272
2.13424
6.20303
9.6082
12.3919
14.6238
16.3834
17.7483
18.7891
19.5664
20.1316
20.527
20.7874
20.9412
21.0113
21.0165
20.9721
20.8902
20.7807
20.6516
20.5091
20.3584
20.2033
20.0469
19.8916
19.7393
19.5912
19.4482
19.3112
19.1804
19.056
18.9382
18.8268
18.7218
18.6229
18.53
18.4426
18.3606
18.2837
18.2115
18.1439
18.0807
18.0214
17.9661
17.9145
17.8665
17.8219
17.7805
17.7423
17.7071
17.6747
17.6451
17.618
17.5934
17.571
17.5507
17.5325
17.516
17.5011
17.4878
17.4759
17.4651
17.4554
17.4467
17.4388
17.4316
17.4251
17.419
17.4134
17.4082
17.4032
17.3986
17.3943
17.3902
17.3864
17.3828
17.3795
17.3765
17.3737
17.3713
17.3692
17.3673
17.3656
17.364
17.3621
17.3594
17.3551
17.3477
17.3348
17.3126
17.2753
17.2142
-20.5688
-21.6134
-22.8545
-24.4337
-26.342
-28.4807
-30.7368
-33.0189
-35.2771
-37.508
-39.7379
-41.9871
-44.2352
-46.406
-48.4079
-50.088
-51.3889
-52.2915
-52.8143
-52.9852
-52.8084
-52.2478
-51.3063
-50.0127
-48.4139
-46.5569
-44.4701
-42.1493
-39.5692
-36.7657
-33.9098
-31.2603
-29.0703
-27.4877
-26.4226
-26.017
-26.3945
-27.4747
-29.0851
-31.0388
-33.1738
-35.371
-37.5543
-39.6829
-41.7423
-43.7375
-45.6871
-47.6186
-49.5638
-51.5546
-53.6189
-55.7761
-58.033
-60.3814
-62.7956
-65.2341
-67.641
-69.9504
-72.0911
-73.9911
-75.5818
-76.8014
-77.6001
-77.9424
-77.8133
-77.2195
-76.1721
-74.7036
-72.8619
-70.7057
-68.301
-65.7176
-63.027
-60.2999
-57.5998
-54.9765
-52.457
-50.0345
-47.6637
-45.2488
-42.6503
-39.6887
-36.1744
-31.9661
-27.0438
-21.5133
-15.7146
-9.94597
-4.51424
0.37109
4.60204
8.15824
11.0783
13.4321
15.3006
16.7637
17.8933
18.7515
19.3905
19.8534
20.1754
20.3855
20.507
20.5591
20.5572
20.5141
20.4398
20.3426
20.2291
20.1046
19.9733
19.8385
19.7027
19.5681
19.436
19.3076
19.1836
19.0647
18.9512
18.8432
18.7407
18.6438
18.5523
18.4661
18.3849
18.3085
18.2367
18.1693
18.1061
18.0468
17.9912
17.9392
17.8907
17.8454
17.8033
17.7642
17.728
17.6945
17.6637
17.6355
17.6096
17.5859
17.5644
17.5449
17.5273
17.5113
17.4969
17.484
17.4724
17.4619
17.4525
17.4441
17.4364
17.4293
17.4229
17.417
17.4114
17.4062
17.4013
17.3966
17.3922
17.3879
17.3838
17.3798
17.376
17.3723
17.3687
17.3652
17.3617
17.3582
17.3544
17.3501
17.3449
17.3382
17.329
17.3156
17.2957
17.2654
17.2197
17.151
-21.1475
-21.8723
-22.8384
-24.2
-25.9045
-27.8582
-29.9521
-32.0949
-34.2339
-36.3607
-38.4943
-40.6501
-42.8086
-44.9009
-46.8205
-48.4529
-49.721
-50.592
-51.0715
-51.1881
-50.9547
-50.3684
-49.4439
-48.2053
-46.6834
-44.9093
-42.91
-40.7141
-38.3821
-36.0359
-33.8201
-31.8601
-30.2561
-29.0244
-28.2507
-28.1025
-28.5964
-29.6437
-31.1042
-32.8319
-34.7054
-36.637
-38.572
-40.484
-42.3686
-44.2393
-46.1214
-48.0481
-50.055
-52.1749
-54.4324
-56.8391
-59.3895
-62.0597
-64.8076
-67.5749
-70.2913
-72.8787
-75.2558
-77.3433
-79.0669
-80.3609
-81.1709
-81.4633
-81.2327
-80.4866
-79.2409
-77.5372
-75.4335
-72.9982
-70.3058
-67.4336
-64.4604
-61.4669
-58.5294
-55.7109
-53.0505
-50.548
-48.1678
-45.8089
-43.3378
-40.5656
-37.2814
-33.3088
-28.5839
-23.2105
-17.4652
-11.6836
-6.18799
-1.21151
3.12195
6.78247
9.80407
12.2549
14.2155
15.7655
16.9768
17.9117
18.6223
19.1518
19.5355
19.8025
19.9763
20.0764
20.1185
20.1155
20.0778
20.0139
19.9307
19.8338
19.7276
19.6155
19.5005
19.3846
19.2695
19.1566
19.0467
18.9405
18.8385
18.741
18.6482
18.5599
18.4764
18.3974
18.3228
18.2524
18.1862
18.1238
18.0652
18.0102
17.9585
17.9101
17.8648
17.8225
17.783
17.7463
17.7122
17.6807
17.6516
17.6248
17.6002
17.5776
17.5571
17.5384
17.5214
17.5061
17.4922
17.4798
17.4685
17.4584
17.4493
17.4411
17.4336
17.4268
17.4205
17.4147
17.4093
17.4041
17.3992
17.3945
17.39
17.3855
17.3811
17.3768
17.3725
17.3681
17.3637
17.3591
17.3543
17.3491
17.3432
17.3364
17.3281
17.3176
17.3037
17.2849
17.2586
17.2213
17.1684
17.0934
-20.0161
-20.5011
-21.3478
-22.5862
-24.1691
-26.0111
-28.0074
-30.064
-32.1199
-34.1545
-36.1758
-38.1952
-40.2008
-42.1423
-43.9362
-45.4878
-46.7166
-47.5696
-48.0273
-48.1097
-47.8322
-47.207
-46.2569
-45.011
-43.5047
-41.7836
-39.9088
-37.9641
-36.0468
-34.2387
-32.5904
-31.1385
-29.9178
-29.0145
-28.5798
-28.6978
-29.3458
-30.4349
-31.8447
-33.4602
-35.1899
-36.9706
-38.7661
-40.5641
-42.3716
-44.2107
-46.1144
-48.1209
-50.2682
-52.5873
-55.0967
-57.7977
-60.6718
-63.6812
-66.7703
-69.8689
-72.8956
-75.762
-78.3779
-80.6566
-82.5188
-83.8934
-84.7196
-84.9645
-84.6469
-83.7542
-82.3109
-80.3702
-78.0036
-75.2932
-72.3238
-69.1789
-65.9403
-62.694
-59.5239
-56.5021
-53.6773
-51.0638
-48.6275
-46.278
-43.8728
-41.2156
-38.0822
-34.2756
-29.708
-24.4649
-18.8024
-13.0617
-7.57131
-2.57344
1.80021
5.51397
8.59775
11.1166
13.1486
14.7712
16.0547
17.0599
17.8381
18.4317
18.8758
19.1991
19.4253
19.5738
19.6604
19.6983
19.6981
19.6686
19.6167
19.5484
19.4682
19.3799
19.2864
19.1902
19.093
18.9964
18.9013
18.8086
18.7188
18.6324
18.5497
18.4707
18.3956
18.3242
18.2567
18.1927
18.1323
18.0753
18.0216
17.9711
17.9235
17.8789
17.837
17.7978
17.7611
17.727
17.6952
17.6656
17.6383
17.6131
17.5899
17.5686
17.5491
17.5313
17.5151
17.5004
17.4871
17.4751
17.4643
17.4546
17.4458
17.4379
17.4307
17.4241
17.418
17.4123
17.407
17.4019
17.397
17.3923
17.3876
17.383
17.3784
17.3737
17.3689
17.3639
17.3586
17.353
17.3469
17.3401
17.3322
17.323
17.3117
17.2977
17.2796
17.2557
17.2237
17.1804
17.1213
17.0411
-17.3128
-17.7246
-18.5142
-19.6956
-21.2267
-23.0288
-24.9992
-27.0382
-29.0713
-31.0593
-32.9923
-34.8724
-36.6918
-38.419
-39.9985
-41.3616
-42.443
-43.1915
-43.5747
-43.5931
-43.2481
-42.5589
-41.5642
-40.3146
-38.8734
-37.3162
-35.7247
-34.1712
-32.7009
-31.3325
-30.0772
-28.9646
-28.0787
-27.5561
-27.5017
-27.9377
-28.8133
-30.0345
-31.4971
-33.1099
-34.8045
-36.5378
-38.2902
-40.0632
-41.8746
-43.7555
-45.7456
-47.8871
-50.2189
-52.7687
-55.5478
-58.548
-61.7407
-65.0784
-68.4968
-71.9164
-75.2461
-78.3868
-81.2388
-83.7078
-85.7074
-87.162
-88.0078
-88.204
-87.8138
-86.778
-85.1434
-82.9742
-80.3567
-77.3894
-74.1693
-70.7861
-67.3231
-63.8621
-60.4872
-57.2791
-54.2977
-51.5678
-49.0613
-46.6884
-44.2994
-41.6907
-38.6299
-34.9128
-30.4448
-25.3041
-19.7375
-14.0803
-8.65511
-3.70038
0.653656
4.37032
7.47655
10.0335
12.1148
13.7943
15.1388
16.2066
17.047
17.7012
18.2033
18.5816
18.8593
19.0559
19.1872
19.2663
19.3041
19.3094
19.2896
19.2506
19.1972
19.1334
19.0623
18.9864
18.9078
18.8281
18.7484
18.6698
18.5928
18.5181
18.446
18.3767
18.3104
18.2471
18.1869
18.1297
18.0755
18.0241
17.9756
17.9297
17.8864
17.8457
17.8074
17.7714
17.7377
17.7062
17.6768
17.6494
17.624
17.6005
17.5787
17.5587
17.5404
17.5235
17.5082
17.4943
17.4816
17.4702
17.4598
17.4505
17.4421
17.4344
17.4275
17.4211
17.4152
17.4097
17.4045
17.3996
17.3947
17.39
17.3852
17.3804
17.3756
17.3705
17.3652
17.3596
17.3536
17.347
17.3397
17.3313
17.3216
17.31
17.296
17.2786
17.2566
17.2282
17.1912
17.1425
17.0782
16.9936
-13.4726
-13.8737
-14.6434
-15.8038
-17.3233
-19.1318
-21.131
-23.2166
-25.2995
-27.3184
-29.2398
-31.0474
-32.7265
-34.2525
-35.5877
-36.6869
-37.5066
-38.01
-38.1769
-38.0145
-37.5317
-36.7599
-35.7521
-34.5745
-33.298
-31.9897
-30.7009
-29.4617
-28.2851
-27.1839
-26.1953
-25.4025
-24.9261
-24.8691
-25.2692
-26.0966
-27.2748
-28.7088
-30.3094
-32.0051
-33.7474
-35.5099
-37.2904
-39.1029
-40.9747
-42.9444
-45.0572
-47.3583
-49.8859
-52.6641
-55.6986
-58.9745
-62.4569
-66.0923
-69.8095
-73.5204
-77.1235
-80.5089
-83.5667
-86.1952
-88.3048
-89.8176
-90.6794
-90.8748
-90.3719
-89.2082
-87.4226
-85.0823
-82.28
-79.116
-75.6976
-72.1248
-68.4834
-64.8522
-61.3159
-57.9606
-54.8555
-52.031
-49.4592
-47.0461
-44.6342
-42.0137
-38.9515
-35.2496
-30.8231
-25.7565
-20.2931
-14.7552
-9.44801
-4.59417
-0.314029
3.35909
6.45043
9.01653
11.1256
12.8457
14.2393
15.3611
16.2575
16.9677
17.5247
17.9557
18.2836
18.5273
18.7027
18.8229
18.8988
18.9393
18.9518
18.9425
18.9165
18.8776
18.8294
18.7745
18.7151
18.6528
18.5891
18.525
18.4613
18.3987
18.3377
18.2785
18.2214
18.1665
18.1139
18.0637
18.0159
17.9704
17.9272
17.8862
17.8475
17.8108
17.7762
17.7436
17.713
17.6843
17.6573
17.6322
17.6088
17.587
17.5669
17.5482
17.5311
17.5153
17.5009
17.4877
17.4758
17.4649
17.4551
17.4462
17.4381
17.4308
17.4242
17.4181
17.4124
17.4071
17.402
17.3971
17.3923
17.3876
17.3828
17.3778
17.3727
17.3674
17.3616
17.3555
17.3487
17.3412
17.3326
17.3228
17.3113
17.2976
17.281
17.2605
17.2349
17.2025
17.161
17.1076
17.0389
16.9506
-8.92834
-9.31331
-10.0573
-11.1841
-12.6771
-14.483
-16.5162
-18.6757
-20.8624
-22.9936
-25.0081
-26.8628
-28.5244
-29.961
-31.1376
-32.0183
-32.5725
-32.7817
-32.649
-32.207
-31.4929
-30.5587
-29.4659
-28.2786
-27.0545
-25.8391
-24.6639
-23.5512
-22.528
-21.6437
-20.9805
-20.6412
-20.712
-21.2267
-22.1598
-23.4408
-24.9785
-26.6831
-28.4798
-30.3152
-32.1631
-34.0111
-35.8687
-37.7621
-39.7284
-41.8129
-44.0644
-46.5293
-49.2441
-52.2297
-55.4877
-58.9995
-62.7268
-66.6114
-70.576
-74.5246
-78.346
-81.9214
-85.1339
-87.8781
-90.0649
-91.6217
-92.4936
-92.6654
-92.1313
-90.9047
-89.0314
-86.578
-83.64
-80.3308
-76.7691
-73.0611
-69.2951
-65.5511
-61.9134
-58.4699
-55.2932
-52.4132
-49.7969
-47.3406
-44.8768
-42.1913
-39.0587
-35.3017
-30.8624
-25.8454
-20.4937
-15.1102
-9.97129
-5.27276
-1.11747
2.46848
5.50967
8.05752
10.1734
11.9186
13.3499
14.5171
15.4634
16.2254
16.8342
17.316
17.6928
17.9831
18.2025
18.3638
18.4781
18.5542
18.5998
18.621
18.6229
18.6099
18.5854
18.5521
18.5126
18.4685
18.4214
18.3725
18.3228
18.2729
18.2234
18.1748
18.1274
18.0814
18.0369
17.9941
17.953
17.9137
17.8761
17.8403
17.8062
17.7738
17.7431
17.7141
17.6867
17.6609
17.6366
17.6138
17.5925
17.5726
17.5541
17.537
17.5211
17.5065
17.493
17.4807
17.4695
17.4593
17.45
17.4416
17.434
17.427
17.4207
17.4148
17.4094
17.4042
17.3993
17.3946
17.3898
17.3851
17.3802
17.3752
17.3699
17.3642
17.3581
17.3514
17.3439
17.3355
17.3259
17.3147
17.3015
17.2858
17.2668
17.2435
17.2147
17.1786
17.1331
17.0757
17.0031
16.9118
-4.63057
-4.97757
-5.65586
-6.69264
-8.08828
-9.81249
-11.8037
-13.9772
-16.2368
-18.4872
-20.6416
-22.6259
-24.3767
-25.8391
-26.9652
-27.7149
-28.0612
-27.9968
-27.543
-26.7533
-25.6938
-24.439
-23.0646
-21.6413
-20.2296
-18.88
-17.6381
-16.5551
-15.6959
-15.1401
-14.9689
-15.2408
-15.9706
-17.1231
-18.6237
-20.3784
-22.2933
-24.2879
-26.3061