/*--------------------------------*- C++ -*----------------------------------*\
  =========                 |
  \\      /  F ield         | OpenFOAM: The Open Source CFD Toolbox
   \\    /   O peration     | Website:  https://openfoam.org
    \\  /    A nd           | Version:  9
     \\/     M anipulation  |
\*---------------------------------------------------------------------------*/
FoamFile
{
    format      ascii;
    class       volVectorField;
    location    "0.03";
    object      U;
}
// * * * * * * * * * * * * * * * * * * * * * * * * * * * * * * * * * * * * * //

dimensions      [0 1 -1 0 0 0 0];

internalField   nonuniform List<vector> 
12225
(
(9.76795 -0.0600174 0)
(9.307 -0.0352268 0)
(8.83752 -0.00636354 0)
(8.36991 0.0149659 0)
(7.92272 0.0291542 0)
(7.50253 0.0375748 0)
(7.10774 0.0422495 0)
(6.73543 0.0447988 0)
(6.38303 0.0462332 0)
(6.04754 0.0472251 0)
(5.72503 0.0483032 0)
(5.41075 0.0499275 0)
(5.09926 0.0525367 0)
(4.78416 0.056593 0)
(4.4583 0.0627065 0)
(4.11146 0.071412 0)
(3.73795 0.0853676 0)
(3.29987 0.0997627 0)
(10.0986 0.0947857 0)
(10.2955 0.158302 0)
(10.4222 0.162963 0)
(10.4855 0.159377 0)
(10.505 0.155967 0)
(10.4909 0.152295 0)
(10.448 0.148883 0)
(10.3803 0.146376 0)
(10.2917 0.145038 0)
(10.1851 0.145068 0)
(10.0623 0.146789 0)
(9.92358 0.150676 0)
(9.76809 0.157378 0)
(9.59353 0.167769 0)
(9.39618 0.183128 0)
(9.16927 0.205145 0)
(8.90661 0.237133 0)
(8.58606 0.283575 0)
(10.0088 0.0410582 0)
(10.0554 0.0559531 0)
(10.1068 0.0519451 0)
(10.1539 0.0573678 0)
(10.2007 0.0682891 0)
(10.2476 0.0790994 0)
(10.2915 0.0890064 0)
(10.33 0.0985973 0)
(10.3621 0.10831 0)
(10.3874 0.118581 0)
(10.4054 0.130046 0)
(10.4158 0.143552 0)
(10.4181 0.160185 0)
(10.4116 0.181343 0)
(10.3954 0.209036 0)
(10.3676 0.245784 0)
(10.3284 0.296439 0)
(10.272 0.36551 0)
(10.0044 0.0277591 0)
(10.0275 0.0547738 0)
(10.0516 0.0671256 0)
(10.0674 0.0792664 0)
(10.0795 0.0904562 0)
(10.0923 0.098777 0)
(10.1056 0.105226 0)
(10.1186 0.111285 0)
(10.1309 0.117811 0)
(10.1424 0.125383 0)
(10.1531 0.134654 0)
(10.1629 0.146445 0)
(10.1719 0.161809 0)
(10.1804 0.182112 0)
(10.1891 0.209317 0)
(10.1995 0.24594 0)
(10.2137 0.296043 0)
(10.24 0.363725 0)
(10.0033 0.0232353 0)
(10.0219 0.0538881 0)
(10.0422 0.06731 0)
(10.0546 0.0757453 0)
(10.0618 0.0834714 0)
(10.0678 0.0901795 0)
(10.0729 0.0962427 0)
(10.0765 0.102561 0)
(10.0781 0.109734 0)
(10.078 0.118173 0)
(10.0765 0.12839 0)
(10.0734 0.141093 0)
(10.0692 0.157207 0)
(10.0641 0.177926 0)
(10.0592 0.204831 0)
(10.0563 0.239973 0)
(10.0578 0.285588 0)
(10.0716 0.345081 0)
(10.0024 0.0199387 0)
(10.017 0.048733 0)
(10.0344 0.0622176 0)
(10.0464 0.0706648 0)
(10.0539 0.0793196 0)
(10.0598 0.0877505 0)
(10.0648 0.0955417 0)
(10.0681 0.10328 0)
(10.0692 0.11163 0)
(10.0685 0.121098 0)
(10.066 0.132235 0)
(10.062 0.145747 0)
(10.0565 0.162507 0)
(10.0503 0.183579 0)
(10.044 0.210229 0)
(10.0395 0.243971 0)
(10.0391 0.285934 0)
(10.0476 0.338195 0)
(10.0017 0.0171152 0)
(10.013 0.0436176 0)
(10.0278 0.0582444 0)
(10.0392 0.0679908 0)
(10.0468 0.0774305 0)
(10.0528 0.0864627 0)
(10.0578 0.0947111 0)
(10.0614 0.102795 0)
(10.0631 0.1115 0)
(10.0633 0.121405 0)
(10.0621 0.133052 0)
(10.0597 0.147083 0)
(10.0565 0.164262 0)
(10.053 0.185467 0)
(10.0504 0.211645 0)
(10.0501 0.243781 0)
(10.0545 0.282318 0)
(10.0671 0.328052 0)
(10.0013 0.0148306 0)
(10.0101 0.0392518 0)
(10.0225 0.0546729 0)
(10.0331 0.06526 0)
(10.0406 0.0748807 0)
(10.0465 0.0840783 0)
(10.0515 0.0927196 0)
(10.0553 0.101333 0)
(10.0577 0.110635 0)
(10.0587 0.121175 0)
(10.0587 0.133434 0)
(10.058 0.147958 0)
(10.0569 0.165376 0)
(10.0563 0.186358 0)
(10.0571 0.211541 0)
(10.0609 0.241441 0)
(10.0696 0.275981 0)
(10.0862 0.315117 0)
(10.001 0.0130126 0)
(10.0078 0.0354625 0)
(10.0182 0.051105 0)
(10.028 0.0622636 0)
(10.0353 0.0721096 0)
(10.0411 0.0815938 0)
(10.0461 0.0907423 0)
(10.0502 0.0999321 0)
(10.0532 0.109771 0)
(10.0552 0.120778 0)
(10.0563 0.133396 0)
(10.0572 0.148087 0)
(10.0581 0.165343 0)
(10.06 0.185632 0)
(10.0636 0.209306 0)
(10.0706 0.236504 0)
(10.0824 0.266779 0)
(10.1012 0.299663 0)
(10.0007 0.0115449 0)
(10.0062 0.032139 0)
(10.0149 0.0476172 0)
(10.0237 0.0591968 0)
(10.0308 0.0693172 0)
(10.0366 0.07906 0)
(10.0418 0.0885885 0)
(10.0462 0.0981965 0)
(10.0498 0.108403 0)
(10.0526 0.119694 0)
(10.055 0.132469 0)
(10.0573 0.147093 0)
(10.0602 0.163913 0)
(10.0642 0.183202 0)
(10.0703 0.205066 0)
(10.0796 0.229367 0)
(10.0934 0.255433 0)
(10.1133 0.282584 0)
(10.0006 0.0103328 0)
(10.0049 0.0292234 0)
(10.0122 0.0442925 0)
(10.0202 0.0561058 0)
(10.0271 0.0664377 0)
(10.0329 0.076346 0)
(10.0382 0.0861207 0)
(10.043 0.0960238 0)
(10.0472 0.106486 0)
(10.0509 0.117931 0)
(10.0545 0.130693 0)
(10.0583 0.145039 0)
(10.0628 0.161177 0)
(10.0687 0.179212 0)
(10.0767 0.199066 0)
(10.0878 0.220415 0)
(10.1027 0.242493 0)
(10.1227 0.264545 0)
(10.0005 0.0093756 0)
(10.0041 0.0268215 0)
(10.0104 0.0413655 0)
(10.0176 0.0532248 0)
(10.0243 0.0636708 0)
(10.0302 0.0736642 0)
(10.0356 0.0835743 0)
(10.0408 0.0936485 0)
(10.0456 0.104235 0)
(10.0501 0.115687 0)
(10.0547 0.128273 0)
(10.0597 0.142176 0)
(10.0655 0.157495 0)
(10.0728 0.174212 0)
(10.0821 0.192127 0)
(10.0942 0.210821 0)
(10.1096 0.229519 0)
(10.129 0.247497 0)
(10.0004 0.00856352 0)
(10.0035 0.0246874 0)
(10.0089 0.038583 0)
(10.0155 0.0503133 0)
(10.022 0.0607777 0)
(10.028 0.0707898 0)
(10.0336 0.0807436 0)
(10.0392 0.0908772 0)
(10.0445 0.10147 0)
(10.0498 0.112803 0)
(10.0554 0.125079 0)
(10.0614 0.138408 0)
(10.0684 0.152803 0)
(10.0768 0.168156 0)
(10.0871 0.184194 0)
(10.0997 0.200461 0)
(10.115 0.216228 0)
(10.1334 0.230843 0)
(10.0003 0.00774502 0)
(10.0029 0.0224626 0)
(10.0077 0.0355244 0)
(10.0137 0.0469326 0)
(10.02 0.0572853 0)
(10.026 0.067217 0)
(10.032 0.0771025 0)
(10.0379 0.0871661 0)
(10.0439 0.0976222 0)
(10.0501 0.108672 0)
(10.0565 0.12045 0)
(10.0637 0.132993 0)
(10.0717 0.146243 0)
(10.081 0.160026 0)
(10.0919 0.174033 0)
(10.1047 0.187819 0)
(10.1195 0.200751 0)
(10.1364 0.212294 0)
(10.0003 0.00690576 0)
(10.0025 0.020127 0)
(10.0067 0.032165 0)
(10.0123 0.0430136 0)
(10.0183 0.0530516 0)
(10.0245 0.0627358 0)
(10.0308 0.0723839 0)
(10.0373 0.0821909 0)
(10.0439 0.0923103 0)
(10.0509 0.102867 0)
(10.0583 0.113924 0)
(10.0663 0.125462 0)
(10.0752 0.137372 0)
(10.0851 0.149452 0)
(10.0963 0.161402 0)
(10.1088 0.172836 0)
(10.1226 0.183263 0)
(10.1377 0.192296 0)
(10.0003 0.00602322 0)
(10.0022 0.0176207 0)
(10.0061 0.0284149 0)
(10.0113 0.0384186 0)
(10.0173 0.0478669 0)
(10.0236 0.0570622 0)
(10.0303 0.0662402 0)
(10.0373 0.0755493 0)
(10.0446 0.0850866 0)
(10.0523 0.0949109 0)
(10.0605 0.105029 0)
(10.0693 0.115382 0)
(10.0788 0.125842 0)
(10.089 0.136219 0)
(10.1001 0.146262 0)
(10.112 0.155684 0)
(10.1246 0.164151 0)
(10.1377 0.171432 0)
(10.0002 0.00505413 0)
(10.0021 0.0148232 0)
(10.0057 0.0240984 0)
(10.0108 0.0329183 0)
(10.0168 0.0414307 0)
(10.0234 0.0498159 0)
(10.0305 0.0582214 0)
(10.0381 0.0667389 0)
(10.046 0.0754158 0)
(10.0544 0.0842628 0)
(10.0633 0.0932506 0)
(10.0726 0.102306 0)
(10.0824 0.111313 0)
(10.0927 0.120123 0)
(10.1035 0.128561 0)
(10.1146 0.136447 0)
(10.1259 0.143591 0)
(10.1373 0.149896 0)
(10.0002 0.00392207 0)
(10.0021 0.011528 0)
(10.0057 0.0189169 0)
(10.0109 0.0261493 0)
(10.0171 0.0333167 0)
(10.0241 0.0405064 0)
(10.0317 0.0477849 0)
(10.0398 0.055189 0)
(10.0483 0.0627265 0)
(10.0573 0.0703781 0)
(10.0666 0.0780996 0)
(10.0763 0.0858236 0)
(10.0863 0.0934654 0)
(10.0966 0.10093 0)
(10.107 0.108119 0)
(10.1175 0.114946 0)
(10.1279 0.121331 0)
(10.1381 0.127269 0)
(10.0003 0.00249602 0)
(10.0022 0.00737065 0)
(10.0061 0.0123291 0)
(10.0116 0.0174557 0)
(10.0184 0.0227926 0)
(10.0259 0.0283417 0)
(10.034 0.0340951 0)
(10.0428 0.040043 0)
(10.0519 0.0461653 0)
(10.0615 0.052427 0)
(10.0713 0.058781 0)
(10.0813 0.0651732 0)
(10.0916 0.0715473 0)
(10.1019 0.0778492 0)
(10.1123 0.0840314 0)
(10.1226 0.0900618 0)
(10.1327 0.0959117 0)
(10.1426 0.101619 0)
(10.0003 0.0010107 0)
(10.0026 0.00304658 0)
(10.007 0.00548631 0)
(10.0132 0.00845479 0)
(10.0206 0.0119323 0)
(10.0288 0.0158255 0)
(10.0376 0.0200601 0)
(10.0469 0.0245922 0)
(10.0566 0.0293801 0)
(10.0667 0.0343732 0)
(10.077 0.0395199 0)
(10.0875 0.0447748 0)
(10.0981 0.0500994 0)
(10.1087 0.0554619 0)
(10.1193 0.0608366 0)
(10.1298 0.0662108 0)
(10.1402 0.0715718 0)
(10.1503 0.0769682 0)
(10.0003 -0.000370432 0)
(10.003 -0.000926066 0)
(10.0081 -0.000686784 0)
(10.0151 0.000506881 0)
(10.0232 0.00250538 0)
(10.032 0.00508298 0)
(10.0414 0.00811715 0)
(10.0513 0.0115572 0)
(10.0616 0.0153465 0)
(10.0721 0.0194103 0)
(10.0829 0.0236788 0)
(10.0937 0.0280983 0)
(10.1047 0.032628 0)
(10.1157 0.0372363 0)
(10.1266 0.0419046 0)
(10.1375 0.0466281 0)
(10.1483 0.0513931 0)
(10.1588 0.0562356 0)
(10.0004 -0.00182594 0)
(10.0036 -0.00502488 0)
(10.0097 -0.00684736 0)
(10.0177 -0.00715072 0)
(10.0266 -0.00635081 0)
(10.0361 -0.00486791 0)
(10.0461 -0.00286254 0)
(10.0565 -0.000374118 0)
(10.0673 0.002539 0)
(10.0783 0.00579677 0)
(10.0894 0.00933054 0)
(10.1006 0.0130917 0)
(10.1118 0.0170465 0)
(10.1231 0.0211488 0)
(10.1343 0.0253579 0)
(10.1454 0.0296659 0)
(10.1564 0.0340717 0)
(10.1673 0.0386095 0)
(10.0005 -0.00342202 0)
(10.0046 -0.00937528 0)
(10.0119 -0.0130745 0)
(10.0211 -0.0145865 0)
(10.0309 -0.0147522 0)
(10.0409 -0.0141364 0)
(10.0514 -0.0128898 0)
(10.0624 -0.0110953 0)
(10.0737 -0.00888893 0)
(10.0851 -0.00638867 0)
(10.0967 -0.00365603 0)
(10.1083 -0.000723502 0)
(10.1199 0.00237339 0)
(10.1316 0.00562664 0)
(10.1431 0.00903054 0)
(10.1546 0.0125533 0)
(10.1661 0.0161616 0)
(10.1775 0.0199119 0)
(10.0007 -0.00527267 0)
(10.006 -0.0141396 0)
(10.015 -0.0192847 0)
(10.0256 -0.021609 0)
(10.0362 -0.0227148 0)
(10.0468 -0.0230667 0)
(10.0579 -0.0225256 0)
(10.0693 -0.0211393 0)
(10.0808 -0.0191509 0)
(10.0925 -0.0167648 0)
(10.1042 -0.0140867 0)
(10.116 -0.0111784 0)
(10.1278 -0.00809651 0)
(10.1396 -0.00486931 0)
(10.1514 -0.00151666 0)
(10.1631 0.0019383 0)
(10.1747 0.00546618 0)
(10.1862 0.00906129 0)
(10.001 -0.00750534 0)
(10.0081 -0.019673 0)
(10.0194 -0.02557 0)
(10.0312 -0.0277331 0)
(10.0422 -0.0292219 0)
(10.0534 -0.030579 0)
(10.0652 -0.0313429 0)
(10.0774 -0.0313767 0)
(10.0895 -0.0308228 0)
(10.1016 -0.0298022 0)
(10.1137 -0.0283718 0)
(10.1259 -0.0265791 0)
(10.138 -0.0244735 0)
(10.15 -0.0221263 0)
(10.162 -0.0195987 0)
(10.174 -0.0169087 0)
(10.1858 -0.0140698 0)
(10.1975 -0.0111294 0)
(10.0014 -0.0100549 0)
(10.0113 -0.0260778 0)
(10.0256 -0.0331969 0)
(10.0385 -0.03502 0)
(10.0495 -0.0352638 0)
(10.0605 -0.0348424 0)
(10.0723 -0.033835 0)
(10.0846 -0.0324777 0)
(10.0969 -0.0309684 0)
(10.1092 -0.0293433 0)
(10.1216 -0.0275792 0)
(10.134 -0.0256723 0)
(10.1465 -0.0236403 0)
(10.1588 -0.0215084 0)
(10.1711 -0.0192966 0)
(10.1833 -0.0170154 0)
(10.1955 -0.014689 0)
(10.2074 -0.0122079 0)
(10.0019 -0.0129802 0)
(10.0148 -0.0301292 0)
(10.0326 -0.0397161 0)
(10.0476 -0.0473266 0)
(10.06 -0.0534216 0)
(10.0724 -0.0569953 0)
(10.0855 -0.0583771 0)
(10.0991 -0.0584513 0)
(10.1127 -0.0577578 0)
(10.1266 -0.0565045 0)
(10.1406 -0.0548081 0)
(10.1547 -0.0527803 0)
(10.1689 -0.0505165 0)
(10.183 -0.0480912 0)
(10.197 -0.0455664 0)
(10.2108 -0.0429848 0)
(10.2246 -0.0403876 0)
(10.2382 -0.037672 0)
(10.0034 -0.0205343 0)
(10.0246 -0.0261084 0)
(10.051 -0.0183443 0)
(10.0762 -0.0164676 0)
(10.1017 -0.0196174 0)
(10.1287 -0.0233558 0)
(10.1566 -0.0264051 0)
(10.1841 -0.0289375 0)
(10.2109 -0.0310285 0)
(10.2367 -0.0325957 0)
(10.2615 -0.0336082 0)
(10.2852 -0.0341092 0)
(10.3076 -0.0341647 0)
(10.3286 -0.0338449 0)
(10.3485 -0.0332201 0)
(10.367 -0.0323913 0)
(10.3846 -0.0314263 0)
(10.4009 -0.03053 0)
(10.0512 -0.0652392 0)
(10.1727 -0.115931 0)
(10.2682 -0.121058 0)
(10.3363 -0.117778 0)
(10.388 -0.114434 0)
(10.4278 -0.110493 0)
(10.4566 -0.106026 0)
(10.4756 -0.101559 0)
(10.4864 -0.0972555 0)
(10.4909 -0.0930553 0)
(10.4903 -0.0889038 0)
(10.4857 -0.0847918 0)
(10.4783 -0.0807283 0)
(10.4686 -0.0767323 0)
(10.4574 -0.0728244 0)
(10.4453 -0.0690919 0)
(10.4326 -0.0655446 0)
(10.4202 -0.0627041 0)
(9.87579 0.0463633 0)
(9.63104 0.0284219 0)
(9.37636 0.00752266 0)
(9.11838 -0.00777473 0)
(8.87106 -0.018433 0)
(8.64014 -0.0251213 0)
(8.42552 -0.0289358 0)
(8.22636 -0.0309074 0)
(8.04238 -0.0316614 0)
(7.87335 -0.0315461 0)
(7.71874 -0.0307972 0)
(7.57782 -0.0295967 0)
(7.44979 -0.0280851 0)
(7.33383 -0.0263726 0)
(7.2291 -0.0245463 0)
(7.13473 -0.0227113 0)
(7.04939 -0.0209329 0)
(6.97325 -0.0196046 0)
(-0.289793 0.498862 -5.00499e-20)
(-0.78465 0.457969 4.35643e-20)
(-1.27839 0.290974 0)
(-1.75103 0.0768275 0)
(-2.10645 -0.171058 0)
(-2.1809 -0.440772 -3.80184e-20)
(-1.88037 -0.71595 0)
(-1.32542 -0.986635 0)
(-0.578997 -1.18947 0)
(0.280452 -1.28252 0)
(1.22321 -1.27047 2.06471e-20)
(2.18157 -1.18644 0)
(3.09617 -1.06328 0)
(3.92081 -0.921081 0)
(4.63237 -0.770392 0)
(5.22252 -0.61676 2.16897e-20)
(5.68972 -0.461849 0)
(6.02828 -0.304752 0)
(6.23928 -0.140382 0)
(6.31317 0.0418983 0)
(6.21172 0.243739 0)
(5.94037 0.45431 0)
(5.50538 0.653735 0)
(4.91252 0.818015 2.87978e-20)
(4.17888 0.919931 -3.02319e-20)
(3.3383 0.930989 3.29401e-20)
(2.43835 0.818737 3.76268e-20)
(1.5683 0.539942 0)
(0.89595 0.165383 0)
(0.426071 -0.00839857 -6.24196e-20)
(0.0432403 0.0832342 -6.73562e-20)
(-0.299153 0.1358 0)
(-0.613985 0.0766093 0)
(-0.861183 -0.0636876 -6.19409e-20)
(-0.951823 -0.2483 0)
(-0.834615 -0.465646 0)
(-0.500112 -0.695615 6.11352e-20)
(0.0713423 -0.865484 0)
(0.813015 -0.846951 4.24814e-20)
(1.5387 -0.648486 7.55063e-20)
(2.07579 -0.355771 0)
(2.29753 -0.060108 0)
(2.2354 0.16874 0)
(2.10037 0.263919 0)
(2.03711 0.150728 0)
(2.05388 -0.13732 7.48719e-20)
(2.06868 -0.419805 7.48874e-20)
(1.96659 -0.473997 7.76745e-20)
(1.63691 -0.239743 0)
(1.00033 0.145802 -9.7995e-20)
(0.0925671 0.495803 0)
(-0.97561 0.726582 8.4042e-20)
(-2.10961 0.864047 7.58835e-20)
(-3.26197 0.925483 0)
(-4.38646 0.927753 0)
(-5.44878 0.88749 0)
(-6.42626 0.819487 7.60006e-20)
(-7.30619 0.735754 0)
(-8.08356 0.645258 0)
(-8.75884 0.554167 0)
(-9.33594 0.466377 0)
(-9.82068 0.384122 0)
(-10.2195 0.308504 0)
(-10.5392 0.23997 0)
(-10.7857 0.178763 0)
(-10.9648 0.125047 -9.10687e-20)
(-11.0819 0.0790017 0)
(-11.1416 0.041123 0)
(-11.1476 0.0112422 8.98311e-20)
(-11.1157 -0.0129912 8.84842e-20)
(-11.0472 -0.0348308 0)
(-10.9444 -0.0555685 -8.45946e-20)
(-10.8074 -0.0759583 8.20414e-20)
(-10.6359 -0.0964185 0)
(-10.429 -0.117222 -7.56683e-20)
(-10.1851 -0.138538 0)
(-9.90281 -0.160432 0)
(-9.58024 -0.182838 6.25709e-20)
(-9.21594 -0.205544 0)
(-8.80893 -0.228167 -5.10556e-20)
(-8.35914 -0.250157 0)
(-7.86769 -0.270821 3.69838e-20)
(-7.33724 -0.289373 2.89525e-20)
(-6.77206 -0.305015 2.02751e-20)
(-6.17808 -0.317033 2.19816e-20)
(-5.56259 -0.324883 -2.31292e-21)
(-4.93387 -0.328272 0)
(-4.3006 -0.327197 0)
(-3.67139 -0.321924 0)
(-3.05433 -0.312925 8.45241e-20)
(-2.45672 -0.300736 1.0759e-19)
(-1.88444 -0.285758 -1.30986e-19)
(-1.34135 -0.268191 0)
(-0.830899 -0.248528 1.78507e-19)
(-0.354311 -0.228936 2.01775e-19)
(0.0883717 -0.208556 2.07297e-19)
(0.496906 -0.189188 0)
(0.875352 -0.168173 0)
(1.22047 -0.150422 0)
(1.53272 -0.136254 1.69302e-19)
(1.81661 -0.122542 0)
(2.07334 -0.108919 0)
(2.30413 -0.0965088 -1.49143e-19)
(2.51113 -0.0894979 0)
(2.698 -0.0852832 0)
(2.86694 -0.0751746 -1.34031e-19)
(3.01739 -0.0617602 0)
(3.14966 -0.050601 0)
(3.26582 -0.0412281 1.22329e-19)
(3.36749 -0.0332531 1.19089e-19)
(3.45587 -0.0263537 0)
(3.53209 -0.0202982 -1.1346e-19)
(3.59713 -0.0149354 0)
(3.65192 -0.0101573 1.08808e-19)
(3.69724 -0.0058854 0)
(3.73385 -0.0020492 1.04974e-19)
(3.76239 0.00144204 1.03322e-19)
(3.78326 0.00457042 0)
(3.7975 0.00782523 0)
(3.80308 0.0119754 0)
(3.79878 0.0168203 0)
(3.78541 0.0217397 0)
(3.76384 0.0263036 0)
(3.73518 0.0301656 0)
(3.70044 0.0333391 9.50034e-20)
(3.66044 0.0358684 -9.44681e-20)
(3.61598 0.0377558 0)
(3.56794 0.0390061 0)
(3.5172 0.0396076 0)
(3.46468 0.0395438 0)
(3.4113 0.0388123 -1.85462e-19)
(3.35799 0.0374357 0)
(3.30565 0.0354752 1.84564e-19)
(3.2551 0.0330339 -1.8415e-19)
(3.20704 0.0302473 0)
(3.16198 0.0272668 0)
(3.12027 0.0242416 0)
(3.08209 0.0213016 1.82442e-19)
(3.04743 0.0185465 1.81969e-19)
(3.01619 0.0160398 0)
(2.98814 0.013811 1.80953e-19)
(2.96301 0.0118613 1.80411e-19)
(2.94054 0.0101716 -1.7985e-19)
(2.92042 0.00871149 0)
(2.90239 0.00744671 0)
(2.88622 0.00634456 -1.78071e-19)
(2.87168 0.00537732 0)
(2.8586 0.00452364 0)
(2.84681 0.00376839 0)
(2.83615 0.00310166 0)
(2.82649 0.00251724 1.74909e-19)
(2.81769 0.00201117 1.7426e-19)
(2.80964 0.00158041 0)
(2.80221 0.00122194 1.72957e-19)
(2.79531 0.000932401 0)
(2.78883 0.000707973 0)
(2.78269 0.000544617 1.71002e-19)
(2.77678 0.00043831 0)
(2.77102 0.000385141 1.69711e-19)
(2.76534 0.000380374 0)
(2.75968 0.000411822 0)
(2.75408 0.00041328 1.67811e-19)
(2.74822 0.00183329 0)
(2.74372 0.00286141 1.66279e-19)
(2.73825 0.00294839 0)
(2.73286 0.00316304 0)
(2.72606 0.00287495 0)
(2.7177 0.00310946 -1.6418e-19)
(2.70752 0.00356603 0)
(2.69457 0.00422807 1.6337e-19)
(2.67836 0.00527632 0)
(2.65787 0.00670202 0)
(2.63166 0.00860664 0)
(2.5979 0.0112015 0)
(2.55422 0.0147522 0)
(2.49645 0.019599 0)
(2.42218 0.0263092 0)
(2.31497 0.0350585 -3.32014e-19)
(2.20471 0.0488116 0)
(1.9161 0.0581349 0)
(-0.101476 1.37045 1.49655e-19)
(-0.281009 1.28543 -1.45637e-19)
(-0.444886 1.1393 0)
(-0.550541 0.928234 1.10241e-19)
(-0.471386 0.581047 0)
(0.0832292 -0.113146 5.7187e-20)
(0.62703 -1.11356 -9.05663e-20)
(1.35078 -1.99098 -6.53353e-20)
(2.13618 -2.57597 0)
(2.94078 -2.84735 -4.09362e-20)
(3.72358 -2.86548 -1.18074e-20)
(4.44655 -2.71027 0)
(5.09438 -2.45326 0)
(5.66259 -2.14354 0)
(6.14977 -1.81052 0)
(6.55664 -1.4701 -1.78897e-20)
(6.88448 -1.12935 0)
(7.13882 -0.789234 5.33507e-20)
(7.31897 -0.446512 0)
(7.43489 -0.0932415 0)
(7.51266 0.276796 -5.74073e-20)
(7.53545 0.662444 0)
(7.48004 1.05639 5.40431e-20)
(7.3207 1.44394 -2.09791e-20)
(7.02952 1.79805 2.03851e-20)
(6.58247 2.07749 -2.04147e-20)
(5.96268 2.22828 -2.14034e-20)
(5.17869 2.18656 0)
(4.27296 1.93103 0)
(3.27315 1.53774 3.23418e-20)
(2.28816 1.12033 -4.11109e-20)
(1.52137 0.793968 0)
(1.01836 0.605794 0)
(0.741944 0.441733 6.04312e-20)
(0.623547 0.0973002 0)
(0.672776 -0.48235 0)
(0.935857 -1.17216 -4.59519e-20)
(1.35178 -1.70949 0)
(1.80772 -1.78257 3.70914e-20)
(2.18693 -1.39181 -6.4988e-20)
(2.39862 -0.770484 0)
(2.45566 -0.185504 0)
(2.44016 0.097642 -1.47349e-19)
(2.33586 0.0209534 -1.47963e-19)
(2.03075 -0.102979 -1.56263e-19)
(1.30955 0.14974 8.98704e-20)
(0.118641 0.756228 -8.34924e-20)
(-1.2819 1.34682 -1.97276e-19)
(-2.73044 1.8362 1.10876e-19)
(-4.15535 2.19103 4.44701e-20)
(-5.49019 2.39275 0)
(-6.69287 2.45226 -3.83173e-20)
(-7.7446 2.39653 5.42988e-20)
(-8.63687 2.25666 0)
(-9.37139 2.06251 0)
(-9.95922 1.83981 0)
(-10.4174 1.60856 -5.44531e-20)
(-10.7659 1.38278 0)
(-11.0247 1.17113 1.4102e-19)
(-11.2123 0.977971 0)
(-11.3444 0.804601 1.57119e-19)
(-11.434 0.650354 0)
(-11.4911 0.51347 -1.69654e-19)
(-11.5233 0.391727 0)
(-11.5361 0.282955 1.77843e-19)
(-11.5334 0.185353 -9.23657e-20)
(-11.5171 0.0976988 0)
(-11.4884 0.0194819 -1.80959e-19)
(-11.4464 -0.0501741 -8.79291e-20)
(-11.377 -0.113365 -8.66054e-20)
(-11.2793 -0.17296 0)
(-11.1517 -0.230716 -8.52842e-20)
(-10.9932 -0.28793 -8.00798e-20)
(-10.8029 -0.345548 0)
(-10.5794 -0.404278 7.35993e-20)
(-10.3208 -0.464593 -1.42352e-19)
(-10.0253 -0.526675 0)
(-9.69079 -0.590334 -6.03641e-20)
(-9.31523 -0.654928 0)
(-8.89721 -0.719297 1.50482e-19)
(-8.43621 -0.781761 0)
(-7.933 -0.840187 -1.09381e-19)
(-7.39001 -0.892158 -2.73714e-20)
(-6.81149 -0.935214 2.304e-20)
(-6.20355 -0.967156 2.82273e-20)
(-5.57383 -0.986337 -9.38499e-21)
(-4.93107 -0.991902 0)
(-4.28445 -0.983905 0)
(-3.64303 -0.963279 0)
(-3.01516 -0.931622 -2.28632e-19)
(-2.408 -0.890897 -9.90973e-20)
(-1.82707 -0.843097 1.205e-19)
(-1.27631 -0.790018 0)
(-0.758724 -0.733766 1.60185e-19)
(-0.274931 -0.67833 -1.8325e-19)
(0.175209 -0.622995 -1.87066e-19)
(0.591668 -0.566708 0)
(0.97603 -0.515568 0)
(1.32808 -0.466106 0)
(1.64973 -0.420061 -1.58561e-19)
(1.94295 -0.377596 0)
(2.20989 -0.33855 2.92141e-19)
(2.45312 -0.302393 4.23062e-19)
(2.6744 -0.268612 -2.71957e-19)
(2.87442 -0.237856 0)
(3.05466 -0.211065 -1.272e-19)
(3.2178 -0.187564 0)
(3.36612 -0.166318 -2.4059e-19)
(3.50055 -0.14687 1.16753e-19)
(3.62198 -0.12911 1.13749e-19)
(3.7314 -0.112897 0)
(3.82982 -0.0980913 3.25984e-19)
(3.91815 -0.0845806 -2.12439e-19)
(3.99725 -0.0722592 -1.04177e-19)
(4.06789 -0.0610264 0)
(4.13077 -0.0507788 -1.00273e-19)
(4.18656 -0.0413877 -2.95433e-19)
(4.236 -0.0327535 0)
(4.2792 -0.0244751 -1.9082e-19)
(4.319 -0.0160711 -1.8801e-19)
(4.35762 -0.00781368 -1.85293e-19)
(4.3951 -0.000242254 0)
(4.43087 0.00643339 0)
(4.46442 0.0125231 0)
(4.49575 0.0179225 8.77519e-20)
(4.5246 0.0226078 8.68263e-20)
(4.55078 0.0265757 0)
(4.57421 0.0298587 1.69726e-19)
(4.59486 0.0324496 1.68015e-19)
(4.61271 0.0343229 0)
(4.62778 0.0354655 1.64991e-19)
(4.64015 0.0358819 3.27169e-19)
(4.64995 0.0356033 -1.62336e-19)
(4.6574 0.0346924 -1.61154e-19)
(4.66276 0.0332419 0)
(4.66634 0.0313675 0)
(4.66848 0.0291967 0)
(4.66954 0.0268564 -1.57259e-19)
(4.66983 0.0244616 1.56491e-19)
(4.66965 0.022107 3.11383e-19)
(4.66927 0.0198635 -1.54928e-19)
(4.66888 0.017778 1.54266e-19)
(4.66862 0.0158763 1.53537e-19)
(4.66861 0.0141673 0)
(4.66887 0.0126483 0)
(4.66943 0.0113094 -1.51625e-19)
(4.67028 0.0101367 0)
(4.67135 0.00911505 0)
(4.6726 0.0082296 2.99575e-19)
(4.67396 0.00746627 0)
(4.67536 0.00681196 1.48637e-19)
(4.67671 0.00625453 -1.48061e-19)
(4.67794 0.00578268 0)
(4.67899 0.00538591 1.46976e-19)
(4.67981 0.00505467 0)
(4.68032 0.00478065 0)
(4.68051 0.00455702 -1.45403e-19)
(4.68033 0.00437869 2.89802e-19)
(4.67976 0.00424205 -1.44408e-19)
(4.67878 0.00414316 0)
(4.67738 0.00406918 0)
(4.67545 0.0039575 1.42989e-19)
(4.67305 0.00350079 0)
(4.66858 0.00313809 1.42021e-19)
(4.66383 0.00311775 0)
(4.65802 0.00326597 0)
(4.6516 0.00399851 0)
(4.64469 0.00510558 1.40518e-19)
(4.63692 0.00642132 0)
(4.62805 0.00820353 -1.39895e-19)
(4.61781 0.0104842 0)
(4.60569 0.0133695 0)
(4.591 0.0172007 2.78321e-19)
(4.57281 0.0223318 -2.78081e-19)
(4.54998 0.0292242 0)
(4.52019 0.0384449 0)
(4.48232 0.0514029 0)
(4.42588 0.0678561 8.37876e-19)
(4.36796 0.0956179 0)
(4.20927 0.117023 -5.62713e-19)
(0.13414 1.36769 -6.12196e-24)
(0.30473 1.59836 1.90448e-19)
(0.422604 1.24948 0)
(0.582133 0.765644 -2.0644e-19)
(1.01215 -0.13335 0)
(1.78702 -1.48228 0)
(2.64032 -2.76884 -1.37436e-21)
(3.42202 -3.67377 4.18222e-20)
(4.09016 -4.12773 4.31243e-20)
(4.64976 -4.20851 3.0723e-20)
(5.11921 -4.03602 0)
(5.51828 -3.71232 0)
(5.86324 -3.30824 -4.74519e-20)
(6.16437 -2.86781 -1.01885e-19)
(6.42652 -2.41604 1.09426e-19)
(6.65153 -1.96552 0)
(6.84005 -1.52145 1.24421e-19)
(6.99207 -1.08442 -5.33493e-20)
(7.10755 -0.652961 0)
(7.18432 -0.225958 1.42673e-19)
(7.22588 0.202616 5.91976e-20)
(7.24011 0.643187 -1.38019e-19)
(7.23801 1.10599 -5.46585e-20)
(7.22482 1.59477 0)
(7.19113 2.09897 1.19984e-19)
(7.10944 2.58726 1.13275e-19)
(6.93496 3.0044 0)
(6.61376 3.27616 1.03514e-19)
(6.1032 3.33201 0)
(5.39745 3.13899 1.05044e-19)
(4.56752 2.72694 5.28726e-20)
(3.7454 2.1815 0)
(3.03911 1.58715 0)
(2.52608 0.949893 0)
(2.22775 0.240232 0)
(2.12848 -0.544999 0)
(2.2091 -1.47261 0)
(2.37454 -2.19205 1.25411e-19)
(2.46269 -2.22057 -1.91556e-19)
(2.39077 -1.60187 0)
(2.18923 -0.797766 0)
(1.858 -0.122665 0)
(1.24502 0.435741 -5.39133e-21)
(0.217482 1.04331 1.65951e-19)
(-1.17268 1.77754 2.53349e-19)
(-2.69084 2.50357 -1.99666e-19)
(-4.1979 3.1131 -9.04649e-20)
(-5.57097 3.53608 7.23614e-20)
(-6.7552 3.77745 1.41024e-20)
(-7.72321 3.85247 8.50699e-20)
(-8.47382 3.77691 0)
(-9.03059 3.57594 9.51261e-20)
(-9.42992 3.28522 2.16692e-20)
(-9.71236 2.94221 0)
(-9.91651 2.57995 0)
(-10.0745 2.22383 -1.30362e-19)
(-10.2097 1.89068 0)
(-10.3362 1.5895 0)
(-10.4607 1.3232 1.70255e-19)
(-10.5839 1.0907 3.3032e-19)
(-10.7032 0.888631 -1.62343e-19)
(-10.8146 0.712671 0)
(-10.9136 0.558354 1.7487e-19)
(-10.9959 0.42147 0)
(-11.0582 0.298182 1.94054e-19)
(-11.0976 0.185079 1.84806e-19)
(-11.1119 0.0794213 -3.81723e-19)
(-11.1001 -0.0210681 -1.93974e-19)
(-11.0621 -0.118442 0)
(-10.9982 -0.213236 3.66061e-19)
(-10.9085 -0.305709 0)
(-10.7926 -0.397006 5.17494e-19)
(-10.6494 -0.488401 3.36369e-19)
(-10.4776 -0.581157 3.23572e-19)
(-10.2753 -0.676378 -3.0925e-19)
(-10.0404 -0.774881 4.35281e-19)
(-9.77013 -0.877049 0)
(-9.46143 -0.982645 0)
(-9.11133 -1.09064 -2.34555e-19)
(-8.71723 -1.19908 -3.1022e-19)
(-8.27746 -1.30504 0)
(-7.79183 -1.40474 7.18798e-20)
(-7.26211 -1.49383 0)
(-6.69236 -1.56784 -1.33621e-19)
(-6.08897 -1.62276 1.20099e-20)
(-5.46032 -1.65556 -1.13152e-20)
(-4.81622 -1.66468 -1.5374e-20)
(-4.16708 -1.65022 0)
(-3.52304 -1.61385 9.35743e-20)
(-2.8933 -1.55851 8.09047e-21)
(-2.28554 -1.48781 0)
(-1.70556 -1.40563 0)
(-1.15732 -1.31603 0)
(-0.643289 -1.22304 -3.03948e-19)
(-0.163957 -1.12868 0)
(0.2808 -1.03522 0)
(0.692112 -0.944536 0)
(1.07025 -0.858808 0)
(1.41632 -0.778118 0)
(1.73261 -0.70321 -2.96374e-19)
(2.02112 -0.634122 0)
(2.28389 -0.570589 -2.7992e-19)
(2.52299 -0.51251 -2.71041e-19)
(2.74031 -0.460187 2.62646e-19)
(2.93744 -0.413284 0)
(3.11613 -0.370253 2.47478e-19)
(3.27832 -0.330239 0)
(3.42546 -0.293461 2.34261e-19)
(3.55866 -0.259994 -2.28305e-19)
(3.67906 -0.229643 -6.66806e-19)
(3.78778 -0.202145 0)
(3.88584 -0.177244 -6.37401e-19)
(3.97417 -0.154699 -2.07381e-19)
(4.05362 -0.134283 0)
(4.12495 -0.115789 -4.0033e-19)
(4.18886 -0.099021 -3.93434e-19)
(4.24603 -0.0838011 5.80935e-19)
(4.29707 -0.0699085 0)
(4.34256 -0.0572898 1.8813e-19)
(4.38289 -0.0460869 1.8556e-19)
(4.41849 -0.0362498 5.49086e-19)
(4.44993 -0.0275999 0)
(4.47799 -0.0198972 0)
(4.50332 -0.0127029 0)
(4.52617 -0.00612815 1.745e-19)
(4.54698 -0.000297084 0)
(4.5661 0.00479666 0)
(4.58387 0.00923187 -1.69244e-19)
(4.60051 0.0130028 -1.67594e-19)
(4.61622 0.0160821 0)
(4.63112 0.0184549 0)
(4.64528 0.0201178 -3.26333e-19)
(4.65874 0.0210825 0)
(4.6715 0.0213817 3.21219e-19)
(4.68357 0.0210738 3.18827e-19)
(4.69496 0.0202414 0)
(4.70572 0.0189852 0)
(4.71595 0.017414 -3.12626e-19)
(4.72574 0.015635 5.41401e-24)
(4.73524 0.0137456 1.13213e-23)
(4.74459 0.0118274 0)
(4.75395 0.00994458 -6.11317e-19)
(4.76345 0.00814421 0)
(4.77319 0.00645871 0)
(4.78327 0.00490922 0)
(4.79375 0.00350889 2.99549e-19)
(4.80465 0.00226549 0)
(4.81598 0.00118315 -5.9338e-19)
(4.82772 0.000263537 -2.95277e-19)
(4.83981 -0.000493769 0)
(4.8522 -0.00109156 -2.9253e-19)
(4.8648 -0.00153501 0)
(4.87753 -0.00183178 0)
(4.89028 -0.00199211 -8.65652e-19)
(4.90296 -0.00202818 5.74523e-19)
(4.91545 -0.00195339 0)
(4.92766 -0.00178159 5.69494e-19)
(4.93948 -0.00152634 -2.83529e-19)
(4.95082 -0.00120033 0)
(4.96161 -0.000816072 0)
(4.97176 -0.0003883 0)
(4.98118 7.04228e-05 -8.36705e-19)
(4.98984 0.000695798 0)
(4.99775 0.00141684 -2.76817e-19)
(5.00482 0.00227394 0)
(5.01101 0.00342534 0)
(5.01628 0.00470954 0)
(5.02057 0.00617752 0)
(5.02386 0.0079987 0)
(5.02609 0.0102452 0)
(5.02713 0.0130429 -5.40927e-19)
(5.02687 0.0166745 0)
(5.02512 0.0214681 -2.69297e-19)
(5.02161 0.0277857 8.05751e-19)
(5.01611 0.0362449 0)
(5.00801 0.0475833 0)
(4.99761 0.0636138 -5.33998e-19)
(4.98157 0.0841925 -5.34797e-19)
(4.96737 0.118575 5.31541e-19)
(4.92796 0.150182 5.33217e-19)
(0.0897219 0.694721 -3.25946e-19)
(0.278704 1.16774 -2.92618e-19)
(0.439234 0.820092 -1.88586e-19)
(1.02939 -0.426928 -7.01912e-20)
(2.03893 -2.13022 0)
(3.06993 -3.62383 9.71008e-20)
(3.89849 -4.60075 -4.88009e-20)
(4.48255 -5.05128 0)
(4.87504 -5.10288 -3.78483e-20)
(5.14776 -4.90066 0)
(5.35552 -4.55365 1.04782e-19)
(5.53032 -4.12878 0)
(5.6877 -3.66397 4.73187e-20)
(5.83398 -3.18109 1.03391e-19)
(5.97082 -2.69299 -1.12659e-19)
(6.09739 -2.20655 0)
(6.21133 -1.72441 -1.30952e-19)
(6.30944 -1.24654 0)
(6.38883 -0.77162 0)
(6.44664 -0.297753 -1.5344e-19)
(6.48378 0.176876 0)
(6.50047 0.652943 -2.39379e-20)
(6.50032 1.13233 0)
(6.49312 1.61997 0)
(6.49039 2.12306 2.17886e-20)
(6.49717 2.6441 -1.18268e-19)
(6.50154 3.16682 -1.28825e-19)
(6.46511 3.64221 -1.01385e-19)
(6.32754 3.98694 0)
(6.0325 4.10319 -1.96626e-19)
(5.56184 3.91945 0)
(4.95726 3.4316 -9.99819e-20)
(4.3119 2.70211 0)
(3.73718 1.81914 0)
(3.28581 0.86646 1.20559e-19)
(2.97005 -0.207108 0)
(2.84016 -1.40743 -1.07781e-19)
(2.68444 -2.1181 -1.4923e-20)
(2.25555 -1.83115 2.82391e-19)
(1.6021 -0.837625 -3.49856e-19)
(0.686221 0.399773 0)
(-0.514348 1.50745 0)
(-1.88912 2.50472 -1.21061e-19)
(-3.34506 3.3967 0)
(-4.74576 4.11547 -7.62575e-20)
(-5.97499 4.61297 6.98753e-20)
(-6.98011 4.88939 6.75868e-20)
(-7.74577 4.9589 0)
(-8.28958 4.85662 -7.26932e-20)
(-8.64672 4.62246 -7.85428e-20)
(-8.86316 4.2947 2.11778e-19)
(-8.98887 3.91082 -9.4649e-20)
(-9.06932 3.50518 -1.04376e-19)
(-9.13892 3.10439 0)
(-9.21829 2.72548 0)
(-9.31558 2.37675 1.35851e-19)
(-9.42987 2.06011 0)
(-9.55525 1.77386 0)
(-9.68413 1.51469 -3.28581e-19)
(-9.8093 1.27908 -3.44615e-19)
(-9.92489 1.0638 0)
(-10.0266 0.866134 0)
(-10.1117 0.683852 0)
(-10.1784 0.515096 0)
(-10.2259 0.358256 -3.97477e-19)
(-10.2537 0.211862 4.15789e-19)
(-10.2613 0.0740979 4.04675e-19)
(-10.249 -0.0568692 8.11866e-19)
(-10.2175 -0.182485 0)
(-10.1663 -0.304463 1.06412e-20)
(-10.0955 -0.424264 0)
(-10.0045 -0.543471 -3.63471e-19)
(-9.89246 -0.663798 1.02899e-20)
(-9.75783 -0.787014 -3.35611e-19)
(-9.59853 -0.914798 3.19247e-19)
(-9.41165 -1.04853 1.19154e-20)
(-9.1935 -1.18905 0)
(-8.9397 -1.33632 2.73672e-19)
(-8.64544 -1.48908 2.36327e-19)
(-8.30599 -1.64465 4.37716e-19)
(-7.91743 -1.79871 0)
(-7.47746 -1.94547 -1.71454e-19)
(-6.98624 -2.07812 0)
(-6.4469 -2.18952 1.98423e-19)
(-5.86583 -2.27317 -5.67583e-20)
(-5.25229 -2.32414 2.14902e-20)
(-4.61762 -2.33987 1.47713e-20)
(-3.97411 -2.32047 7.78466e-20)
(-3.33376 -2.26862 -8.94803e-20)
(-2.70724 -2.18893 1.2762e-19)
(-2.10329 -2.08715 0)
(-1.52839 -1.96936 -3.91951e-19)
(-0.986872 -1.84156 0)
(-0.480625 -1.70927 -5.5181e-19)
(-0.00982919 -1.5757 5.99934e-19)
(0.425606 -1.44379 6.02439e-19)
(0.827254 -1.31707 -5.93911e-19)
(1.19555 -1.19743 -5.82887e-19)