/*--------------------------------*- C++ -*----------------------------------*\
  =========                 |
  \\      /  F ield         | OpenFOAM: The Open Source CFD Toolbox
   \\    /   O peration     | Website:  https://openfoam.org
    \\  /    A nd           | Version:  9
     \\/     M anipulation  |
\*---------------------------------------------------------------------------*/
FoamFile
{
    format      ascii;
    class       volScalarField;
    location    "0.008";
    object      k_0;
}
// * * * * * * * * * * * * * * * * * * * * * * * * * * * * * * * * * * * * * //

dimensions      [0 2 -2 0 0 0 0];

internalField   nonuniform List<scalar> 
12225
(
4.32237e-05
3.48597e-05
3.45153e-05
4.96495e-05
6.19771e-05
6.76095e-05
7.68266e-05
0.000105387
0.000157951
0.000185793
0.000192457
0.000190031
0.000169986
0.000117717
7.57978e-05
4.91763e-05
3.28959e-05
4.02888e-05
2.05292e-05
2.06247e-05
2.13005e-05
2.4214e-05
2.63744e-05
2.7917e-05
3.06266e-05
3.69023e-05
5.63407e-05
8.20718e-05
9.71197e-05
0.000102414
0.000102556
0.00010035
9.29977e-05
7.86066e-05
6.46085e-05
4.62625e-05
2.00081e-05
1.91555e-05
1.8841e-05
1.76922e-05
1.6072e-05
1.55099e-05
1.55501e-05
1.61594e-05
1.89182e-05
2.44823e-05
2.84919e-05
3.01795e-05
3.08192e-05
3.22792e-05
3.25471e-05
3.22059e-05
3.10399e-05
2.72289e-05
2.00956e-05
2.00807e-05
2.00343e-05
1.97564e-05
1.94453e-05
1.89758e-05
1.87141e-05
1.88538e-05
1.94685e-05
2.01986e-05
2.05384e-05
2.05884e-05
2.04767e-05
1.97342e-05
1.80638e-05
1.71271e-05
1.68476e-05
1.67414e-05
2.00066e-05
2.00823e-05
2.0459e-05
2.24757e-05
3.25365e-05
4.07149e-05
4.07393e-05
3.53857e-05
2.75425e-05
2.38596e-05
2.19949e-05
2.10503e-05
2.0558e-05
2.02161e-05
2.00208e-05
1.99765e-05
2.00253e-05
2.03374e-05
2.00098e-05
2.04045e-05
2.29028e-05
2.99114e-05
3.10312e-05
2.89651e-05
2.84134e-05
2.82331e-05
2.77068e-05
2.5822e-05
2.33328e-05
2.19449e-05
2.13198e-05
2.11133e-05
2.10822e-05
2.10955e-05
2.11789e-05
2.15027e-05
2.01132e-05
2.19719e-05
2.2742e-05
2.25554e-05
2.16196e-05
2.12234e-05
2.12268e-05
2.15918e-05
2.26186e-05
2.32332e-05
2.33583e-05
2.33067e-05
2.29367e-05
2.2292e-05
2.18919e-05
2.16921e-05
2.16188e-05
2.1614e-05
2.01577e-05
2.45576e-05
2.84801e-05
2.82803e-05
2.48214e-05
2.21296e-05
2.18737e-05
2.31866e-05
3.15715e-05
5.89355e-05
7.48085e-05
7.63554e-05
7.02654e-05
5.0918e-05
3.74559e-05
2.98005e-05
2.56016e-05
2.33324e-05
2.00318e-05
2.08362e-05
2.52674e-05
3.12508e-05
3.1979e-05
2.78517e-05
2.35665e-05
2.29519e-05
2.38131e-05
2.86857e-05
4.39278e-05
5.52077e-05
5.78643e-05
5.62601e-05
4.67542e-05
3.58143e-05
2.9285e-05
2.56615e-05
2.00767e-05
2.2236e-05
3.12277e-05
3.984e-05
3.89595e-05
3.02031e-05
2.47779e-05
2.42005e-05
2.61306e-05
3.96361e-05
6.89519e-05
7.69923e-05
7.17097e-05
5.20717e-05
3.78029e-05
2.9956e-05
2.57015e-05
2.34968e-05
2.06243e-05
2.30079e-05
2.4506e-05
2.47758e-05
2.38323e-05
2.17614e-05
2.09005e-05
2.07771e-05
2.10375e-05
2.29584e-05
2.55406e-05
2.60629e-05
2.57492e-05
2.51061e-05
2.50946e-05
2.54006e-05
2.5431e-05
2.46817e-05
2.25615e-05
2.28986e-05
2.25711e-05
2.21119e-05
2.13283e-05
2.073e-05
2.04154e-05
2.03067e-05
2.02957e-05
2.03235e-05
2.0413e-05
2.05911e-05
2.09926e-05
2.21972e-05
2.68942e-05
3.26445e-05
3.47074e-05
3.45598e-05
2.05895e-05
2.14636e-05
2.16916e-05
2.09236e-05
2.05699e-05
2.05972e-05
2.09692e-05
2.15351e-05
2.18393e-05
2.19807e-05
2.20786e-05
2.22354e-05
2.2551e-05
2.35352e-05
2.54977e-05
2.64966e-05
2.64546e-05
2.56891e-05
2.22872e-05
2.45617e-05
2.466e-05
2.26899e-05
2.18153e-05
2.17981e-05
2.20097e-05
2.25366e-05
2.41136e-05
2.66101e-05
2.73563e-05
2.69867e-05
2.56611e-05
2.44322e-05
2.34927e-05
2.26893e-05
2.20717e-05
2.15366e-05
2.32509e-05
2.23653e-05
2.10069e-05
2.06409e-05
2.0643e-05
2.0988e-05
2.26646e-05
2.80579e-05
3.27434e-05
3.45956e-05
3.43071e-05
3.21179e-05
3.0006e-05
2.79686e-05
2.58968e-05
2.42529e-05
2.33161e-05
2.30998e-05
2.11776e-05
2.06293e-05
2.05668e-05
2.06549e-05
2.09066e-05
2.17088e-05
2.35497e-05
2.40864e-05
2.40466e-05
2.38373e-05
2.38214e-05
2.41208e-05
2.50223e-05
2.52024e-05
2.49891e-05
2.39321e-05
2.27673e-05
2.21491e-05
2.04787e-05
2.04515e-05
2.02125e-05
2.02221e-05
2.06255e-05
2.28777e-05
2.4971e-05
2.48551e-05
2.38481e-05
2.31664e-05
2.30122e-05
2.30557e-05
2.34241e-05
2.39537e-05
2.42783e-05
2.44613e-05
2.46403e-05
2.47227e-05
2.02593e-05
2.02154e-05
2.02996e-05
2.06142e-05
2.09905e-05
2.13287e-05
2.19512e-05
2.35642e-05
2.49499e-05
2.53977e-05
2.55673e-05
2.59739e-05
2.7454e-05
3.30414e-05
3.95755e-05
4.28492e-05
4.35247e-05
4.3088e-05
2.05155e-05
2.04396e-05
2.05646e-05
2.12667e-05
2.13203e-05
2.10693e-05
2.07077e-05
2.05992e-05
2.06263e-05
2.09512e-05
2.27565e-05
2.83471e-05
3.16747e-05
3.21394e-05
3.12691e-05
2.96278e-05
2.93943e-05
3.01002e-05
2.06579e-05
2.04282e-05
2.0747e-05
2.19554e-05
2.26754e-05
2.2406e-05
2.11812e-05
2.0571e-05
2.04764e-05
2.05932e-05
2.14804e-05
2.47468e-05
2.74658e-05
2.83861e-05
2.83392e-05
2.74488e-05
2.67862e-05
2.68261e-05
2.41617e-05
2.14187e-05
2.07391e-05
2.11132e-05
2.10411e-05
2.10874e-05
2.1286e-05
2.09215e-05
2.07117e-05
2.08453e-05
2.16969e-05
2.52004e-05
3.14144e-05
3.54245e-05
3.68105e-05
3.68521e-05
3.64975e-05
3.48477e-05
2.12451e-05
2.09575e-05
2.03924e-05
2.04196e-05
2.09628e-05
2.14e-05
2.14734e-05
2.14851e-05
2.14557e-05
2.14762e-05
2.16668e-05
2.23766e-05
2.4508e-05
3.09527e-05
5.46248e-05
9.74844e-05
0.000126588
0.000138972
2.05891e-05
2.09261e-05
2.08668e-05
2.06977e-05
2.07655e-05
2.13198e-05
2.19111e-05
2.20615e-05
2.20593e-05
2.23459e-05
2.39145e-05
2.94515e-05
4.76211e-05
8.59778e-05
0.000117324
0.000136745
0.000145407
0.000147644
2.09247e-05
2.04468e-05
2.02029e-05
2.05774e-05
2.2376e-05
2.29759e-05
2.34402e-05
2.34345e-05
2.35074e-05
2.4746e-05
3.10682e-05
5.88453e-05
9.65103e-05
0.000114946
0.000118297
0.000115497
9.84746e-05
7.15206e-05
2.31835e-05
2.20629e-05
2.04951e-05
2.04551e-05
2.15044e-05
2.68429e-05
3.0531e-05
2.98534e-05
2.61516e-05
2.44413e-05
2.42945e-05
2.51195e-05
2.84712e-05
3.82596e-05
4.71371e-05
5.12504e-05
5.15004e-05
4.80196e-05
2.02239e-05
2.0889e-05
2.29195e-05
2.34324e-05
2.36053e-05
2.47711e-05
2.62176e-05
2.66093e-05
2.68095e-05
2.56782e-05
2.43259e-05
2.36075e-05
2.328e-05
2.31941e-05
2.31857e-05
2.31716e-05
2.3023e-05
2.23975e-05
2.02331e-05
2.06842e-05
2.08846e-05
2.08389e-05
2.05493e-05
2.03344e-05
2.01648e-05
1.98335e-05
1.92206e-05
1.87442e-05
1.849e-05
1.83691e-05
1.82456e-05
1.79907e-05
1.71682e-05
1.54013e-05
1.43887e-05
1.42083e-05
2.0007e-05
1.67234e-05
1.73165e-05
1.73189e-05
1.67905e-05
1.63525e-05
1.58749e-05
1.53083e-05
1.47892e-05
1.43902e-05
1.41092e-05
1.39348e-05
1.38664e-05
1.38784e-05
1.40785e-05
1.46948e-05
1.51742e-05
1.5428e-05
2.08017e-05
2.12521e-05
2.1311e-05
2.18357e-05
2.22192e-05
2.22787e-05
2.23156e-05
2.2519e-05
2.33716e-05
2.39867e-05
2.4064e-05
2.39764e-05
2.35164e-05
2.29224e-05
2.26247e-05
2.25539e-05
2.2579e-05
2.26213e-05
8.00325e-05
6.49143e-05
4.62525e-05
4.19691e-05
4.10525e-05
3.95344e-05
3.65744e-05
3.49979e-05
3.43006e-05
3.33261e-05
3.11227e-05
2.90557e-05
2.78216e-05
2.7259e-05
2.70463e-05
2.69142e-05
2.66819e-05
2.60959e-05
1.21532e-06
1.10102e-05
4.92418e-05
0.000136391
0.000261106
0.000399076
0.000532869
0.000655744
0.000763407
0.000854035
0.000926886
0.000977835
0.00100459
0.00101545
0.00100003
0.000962964
0.000905583
0.000831272
0.00074289
0.000647429
0.000546399
0.000444118
0.000349728
0.00026303
0.000189878
0.000131103
8.38565e-05
5.6004e-05
3.47913e-05
2.46524e-05
2.08646e-05
2.11962e-05
2.28692e-05
2.4468e-05
2.56539e-05
2.65936e-05
2.71277e-05
2.7383e-05
2.74557e-05
2.71304e-05
2.64174e-05
2.54583e-05
2.42433e-05
2.27916e-05
2.11622e-05
1.94852e-05
1.76538e-05
1.57511e-05
1.37445e-05
1.17076e-05
9.72314e-06
7.738e-06
5.91083e-06
4.42815e-06
3.36352e-06
2.66239e-06
2.15598e-06
1.75835e-06
1.43945e-06
1.17915e-06
9.62821e-07
7.81812e-07
6.30862e-07
5.05841e-07
4.03043e-07
3.1908e-07
2.50925e-07
1.95947e-07
1.51894e-07
1.16848e-07
8.91812e-08
6.75159e-08
5.0694e-08
3.77447e-08
2.78645e-08
2.03918e-08
1.47908e-08
1.0631e-08
7.56961e-09
5.33813e-09
3.72774e-09
2.57716e-09
1.76346e-09
1.19419e-09
8.00397e-10
5.31061e-10
3.48884e-10
2.26983e-10
1.46268e-10
9.33726e-11
5.90588e-11
3.70205e-11
2.30046e-11
1.41756e-11
8.66519e-12
5.25639e-12
3.16532e-12
1.89282e-12
1.12441e-12
6.63864e-13
3.89785e-13
2.27731e-13
1.32487e-13
7.68168e-14
4.44326e-14
2.56764e-14
1.48523e-14
8.61965e-15
5.03478e-15
2.97083e-15
1.78953e-15
1.11281e-15
7.24104e-16
5.00969e-16
3.73295e-16
3.00828e-16
2.60407e-16
2.38664e-16
2.27836e-16
2.23305e-16
2.2208e-16
2.22045e-16
2.22045e-16
2.22045e-16
2.22045e-16
2.22045e-16
2.22045e-16
2.22045e-16
2.22045e-16
2.22045e-16
2.22045e-16
2.22045e-16
2.22045e-16
2.22045e-16
2.22045e-16
2.22045e-16
2.22045e-16
2.22045e-16
2.22045e-16
2.22045e-16
2.22045e-16
2.22045e-16
2.22045e-16
2.22045e-16
2.22045e-16
2.22045e-16
2.22045e-16
2.22045e-16
2.22045e-16
2.22045e-16
2.22045e-16
2.22045e-16
2.22045e-16
2.22045e-16
2.22045e-16
2.22045e-16
2.22045e-16
2.22045e-16
2.22045e-16
2.22045e-16
2.22045e-16
2.22045e-16
2.22045e-16
2.22045e-16
2.22045e-16
2.22045e-16
2.22045e-16
2.29736e-16
3.00689e-16
7.70158e-16
3.51558e-15
1.8637e-14
1.20162e-13
3.47215e-12
4.4869e-11
3.68824e-09
1.16962e-08
3.0141e-08
5.06231e-08
3.60873e-07
2.67316e-06
9.8258e-06
3.55e-05
8.55117e-05
0.000145193
0.000200345
0.000243982
0.000274053
0.000289906
0.000295027
0.000287808
0.000274326
0.000254379
0.000231388
0.000206734
0.000181573
0.000157687
0.000136003
0.000117453
0.000103158
9.22415e-05
8.54842e-05
8.21977e-05
8.10408e-05
8.36461e-05
8.85211e-05
9.49288e-05
0.000104318
0.000114573
0.000125772
0.00013686
0.000147492
0.0001569
0.000164947
0.000171473
0.000176358
0.000178993
0.000180187
0.000180424
0.000178423
0.000174918
0.000170138
0.000164106
0.000156946
0.000149229
0.000141524
0.000133663
0.000124555
0.000114734
0.000104509
9.47015e-05
8.57271e-05
7.01011e-05
5.15296e-05
3.51864e-05
2.50082e-05
1.96315e-05
1.58499e-05
1.29403e-05
1.06952e-05
8.89529e-06
7.38278e-06
6.0995e-06
5.01432e-06
4.10187e-06
3.33867e-06
2.70309e-06
2.17601e-06
1.74096e-06
1.38383e-06
1.09243e-06
8.56192e-07
6.6606e-07
5.14144e-07
3.93771e-07
2.99104e-07
2.25277e-07
1.6821e-07
1.24436e-07
9.11735e-08
6.61626e-08
4.75453e-08
3.38242e-08
2.38204e-08
1.66119e-08
1.14781e-08
7.86072e-09
5.33671e-09
3.59187e-09
2.3967e-09
1.5855e-09
1.04e-09
6.76563e-10
4.36643e-10
2.7967e-10
1.77842e-10
1.12288e-10
7.03993e-11
4.38417e-11
2.71321e-11
1.66935e-11
1.02159e-11
6.22082e-12
3.77076e-12
2.27621e-12
1.36926e-12
8.21353e-13
4.91379e-13
2.9302e-13
1.74018e-13
1.02865e-13
6.04864e-14
3.5352e-14
2.06125e-14
1.20165e-14
7.02602e-15
4.14214e-15
2.48253e-15
1.53004e-15
9.83526e-16
6.69158e-16
4.87271e-16
3.81086e-16
3.18415e-16
2.81001e-16
2.58429e-16
2.44687e-16
2.36257e-16
2.31051e-16
2.27816e-16
2.2579e-16
2.24509e-16
2.23691e-16
2.23162e-16
2.22814e-16
2.22581e-16
2.22424e-16
2.22315e-16
2.22239e-16
2.22185e-16
2.22147e-16
2.22119e-16
2.22098e-16
2.22083e-16
2.22072e-16
2.22064e-16
2.22058e-16
2.22053e-16
2.22049e-16
2.22047e-16
2.22046e-16
2.22045e-16
2.22045e-16
2.22045e-16
2.22045e-16
2.22045e-16
2.22045e-16
2.22045e-16
2.22045e-16
2.22045e-16
2.22045e-16
2.22045e-16
2.22045e-16
2.22045e-16
2.22045e-16
2.22046e-16
2.22071e-16
2.22337e-16
2.24477e-16
2.39009e-16
3.28824e-16
8.43631e-16
4.19408e-15
7.9392e-14
1.10401e-12
4.44972e-11
2.69288e-10
8.69134e-10
2.96173e-09
3.58322e-08
3.25718e-06
6.47719e-06
1.57373e-05
3.2904e-05
5.11571e-05
6.33635e-05
6.90093e-05
7.07896e-05
7.01548e-05
6.7174e-05
6.40713e-05
6.19172e-05
6.09472e-05
6.14145e-05
6.4203e-05
6.843e-05
7.43978e-05
8.20095e-05
9.12561e-05
0.000102015
0.00011529
0.000133424
0.000155938
0.000181844
0.000211057
0.000243194
0.000277161
0.00031032
0.000342849
0.000373957
0.000403406
0.000430357
0.00045374
0.000472699
0.000486651
0.00049448
0.000497846
0.00049843
0.000490874
0.000482697
0.000471136
0.000458286
0.000445024
0.000427199
0.000405835
0.000380661
0.000352106
0.00032288
0.000293995
0.000264405
0.00023465
0.000205551
0.000177276
0.000150422
0.000125502
0.000102751
8.22616e-05
6.48175e-05
5.10075e-05
4.09239e-05
3.41153e-05
2.86333e-05
2.3979e-05
2.00127e-05
1.66411e-05
1.37855e-05
1.13735e-05
9.34032e-06
7.63119e-06
6.20016e-06
5.00764e-06
4.01848e-06
3.20256e-06
2.53276e-06
1.98795e-06
1.54716e-06
1.19356e-06
9.13032e-07
6.90877e-07
5.17457e-07
3.84179e-07
2.82868e-07
2.06511e-07
1.49485e-07
1.07365e-07
7.6607e-08
5.43538e-08
3.83578e-08
2.69074e-08
1.87503e-08
1.29757e-08
8.91666e-09
6.08631e-09
4.12895e-09
2.78641e-09
1.8722e-09
1.25166e-09
8.31906e-10
5.5096e-10
3.63891e-10
2.39549e-10
1.57107e-10
1.02606e-10
6.66973e-11
4.31392e-11
2.77656e-11
1.77852e-11
1.13269e-11
7.15368e-12
4.46837e-12
2.7599e-12
1.68704e-12
1.0208e-12
6.10709e-13
3.62793e-13
2.1508e-13
1.27557e-13
7.58738e-14
4.538e-14
2.73493e-14
1.66335e-14
1.02186e-14
6.34678e-15
3.99183e-15
2.55063e-15
1.66491e-15
1.11922e-15
7.82503e-16
5.74447e-16
4.45558e-16
3.654e-16
3.15209e-16
2.83492e-16
2.63227e-16
2.50077e-16
2.41415e-16
2.35625e-16
2.31675e-16
2.28935e-16
2.27022e-16
2.25666e-16
2.2468e-16
2.2396e-16
2.23443e-16
2.23071e-16
2.22788e-16
2.22564e-16
2.2239e-16
2.22263e-16
2.22177e-16
2.22123e-16
2.22091e-16
2.22072e-16
2.22061e-16
2.22055e-16
2.22051e-16
2.22049e-16
2.22048e-16
2.22047e-16
2.22047e-16
2.22046e-16
2.22046e-16
2.22045e-16
2.22045e-16
2.22045e-16
2.22045e-16
2.22046e-16
2.22055e-16
2.22118e-16
2.22544e-16
2.25233e-16
2.41002e-16
3.37761e-16
1.67571e-15
1.93009e-14
4.31326e-13
3.85281e-12
1.7009e-11
8.96744e-11
1.79433e-09
3.71343e-06
5.70921e-06
9.25578e-06
1.52806e-05
2.11372e-05
2.42256e-05
2.56955e-05
2.70746e-05
2.88043e-05
3.16618e-05
3.62331e-05
4.22954e-05
4.98897e-05
5.91115e-05
7.00426e-05
8.5154e-05
0.000105538
0.000132668
0.000168376
0.000210024
0.000257241
0.000308231
0.000364239
0.000424236
0.000486542
0.000549449
0.000612719
0.000675444
0.000735662
0.000792627
0.000844422
0.000890917
0.000931929
0.000959548
0.000972961
0.000976781
0.000960616
0.000941909
0.00090115
0.000855933
0.000802304
0.000745065
0.00068367
0.000623784
0.000563471
0.000506408
0.000452743
0.000402755
0.000356135
0.000313219
0.00027428
0.000239405
0.000207778
0.000179456
0.000154419
0.000132445
0.000113216
9.64395e-05
8.18644e-05
6.92607e-05
5.84057e-05
4.91046e-05
4.11686e-05
3.4417e-05
2.86854e-05
2.38329e-05
1.97376e-05
1.62917e-05
1.34002e-05
1.09803e-05
8.96114e-06
7.28174e-06
5.88975e-06
4.73777e-06
3.78918e-06
3.01029e-06
2.37432e-06
1.86096e-06
1.4431e-06
1.11323e-06
8.5769e-07
6.59125e-07
5.04836e-07
3.85077e-07
2.92239e-07
2.20443e-07
1.65165e-07
1.22881e-07
9.07879e-08
6.66142e-08
4.85379e-08
3.51124e-08
2.52253e-08
1.80304e-08
1.28711e-08
9.20729e-09
6.58782e-09
4.70228e-09
3.33992e-09
2.357e-09
1.65136e-09
1.14818e-09
7.92075e-10
5.42049e-10
3.68008e-10
2.47895e-10
1.65689e-10
1.09919e-10
7.2422e-11
4.74235e-11
3.08783e-11
2.00011e-11
1.28956e-11
8.28192e-12
5.30168e-12
3.38529e-12
2.15838e-12
1.37494e-12
8.75105e-13
5.56145e-13
3.52569e-13
2.22742e-13
1.40145e-13
8.78046e-14
5.48128e-14
3.41412e-14
2.12664e-14
1.32887e-14
8.36421e-15
5.3284e-15
3.45538e-15
2.29461e-15
1.5699e-15
1.11311e-15
8.20881e-16
6.31133e-16
5.06157e-16
4.21988e-16
3.64197e-16
3.24307e-16
2.96286e-16
2.7596e-16
2.61163e-16
2.5067e-16
2.43152e-16
2.3737e-16
2.32716e-16
2.29074e-16
2.26447e-16
2.24737e-16
2.23724e-16
2.23161e-16
2.22853e-16
2.22675e-16
2.22561e-16
2.22475e-16
2.22406e-16
2.22346e-16
2.22287e-16
2.22236e-16
2.22194e-16
2.22138e-16
2.22094e-16
2.22087e-16
2.22093e-16
2.22133e-16
2.22209e-16
2.22371e-16
2.22834e-16
2.24381e-16
2.31314e-16
2.73792e-16
5.57398e-16
2.29375e-15
1.09294e-14
4.71203e-14
2.43124e-13
8.03973e-13
3.62826e-12
1.0022e-10
4.02216e-06
5.89168e-06
7.89888e-06
1.05157e-05
1.30697e-05
1.48385e-05
1.6842e-05
2.00097e-05
2.43442e-05
3.0187e-05
3.75444e-05
4.76099e-05
6.14588e-05
8.0938e-05
0.000110065
0.00014712
0.000190278
0.000237692
0.000289831
0.000352721
0.00042801
0.000519048
0.000611828
0.000709594
0.000808634
0.000907333
0.0010041
0.00109586
0.00118576
0.00126456
0.00133338
0.00139106
0.0014406
0.00146666
0.0014746
0.00144219
0.00138454
0.00133127
0.00123965
0.00114729
0.00104274
0.000952114
0.000845481
0.000756888
0.000666468
0.000584938
0.000510618
0.000442826
0.000383936
0.000332927
0.000287573
0.000247815
0.000214013
0.000184595
0.000158896
0.000136433
0.000116782
9.96288e-05
8.47012e-05
7.17646e-05
6.05982e-05
5.09937e-05
4.27669e-05
3.57486e-05
2.97859e-05
2.47372e-05
2.04786e-05
1.69021e-05
1.39105e-05
1.1416e-05
9.34127e-06
7.61995e-06
6.19651e-06
5.02392e-06
4.0604e-06
3.26945e-06
2.62183e-06
2.09337e-06
1.66377e-06
1.31598e-06
1.0357e-06
8.10868e-07
6.31409e-07
4.88895e-07
3.76328e-07
2.87907e-07
2.18859e-07
1.65267e-07
1.23933e-07
9.22661e-08
6.81663e-08
4.99665e-08
3.63932e-08
2.63327e-08
1.89235e-08
1.35029e-08
9.56408e-09
6.72222e-09
4.68694e-09
3.24053e-09
2.22086e-09
1.50806e-09
1.01415e-09
6.75082e-10
4.4458e-10
2.89485e-10
1.86252e-10
1.18319e-10
7.41529e-11
4.5807e-11
2.78633e-11
1.66716e-11
9.80191e-12
5.65619e-12
3.20016e-12
1.77499e-12
9.65428e-13
5.15502e-13
2.70883e-13
1.40669e-13
7.26571e-14
3.76625e-14
1.98075e-14
1.07044e-14
6.04607e-15
3.77526e-15
2.5851e-15
1.90878e-15
1.49355e-15
1.21869e-15
1.02382e-15
8.77555e-16
7.62976e-16
6.70524e-16
5.94354e-16
5.30556e-16
4.76803e-16
4.31488e-16
3.93703e-16
3.62382e-16
3.3651e-16
3.15214e-16
2.97774e-16
2.83544e-16
2.71965e-16
2.62547e-16
2.54831e-16
2.48503e-16
2.43349e-16
2.39179e-16
2.35806e-16
2.33086e-16
2.30846e-16
2.29025e-16
2.2755e-16
2.26253e-16
2.2529e-16
2.24536e-16
2.23784e-16
2.23555e-16
2.23637e-16
2.24061e-16
2.25058e-16
2.27568e-16
2.31312e-16
2.38585e-16
2.5272e-16
2.89241e-16
3.94636e-16
7.82227e-16
2.73494e-15
1.61626e-14
1.1145e-13
6.95555e-13
3.41359e-12
1.24084e-11
6.25419e-11
8.40449e-11
2.20261e-10
2.14311e-10
4.23543e-06
6.59742e-06
7.96212e-06
9.70136e-06
1.15293e-05
1.34833e-05
1.62696e-05
2.04892e-05
2.68171e-05
3.62916e-05
5.06198e-05
7.11516e-05
9.94897e-05
0.00013532
0.000176242
0.000223763
0.000283311
0.000365903
0.000468018
0.000598596
0.000752502
0.000890361
0.0010472
0.00118715
0.00132428
0.00146896
0.00161215
0.00176783
0.00191609
0.00205662
0.00215259
0.00225011
0.00232797
0.0023626
0.00236865
0.00227184
0.00213295
0.00200577
0.0018359
0.00161086
0.00145847
0.00125949
0.00109687
0.000947363
0.000810065
0.000688569
0.000582437
0.000491654
0.000414249
0.000349353
0.000295219
0.000249833
0.000211456
0.000180155
0.000154967
0.000133734
0.000114949
9.85403e-05
8.41761e-05
7.15909e-05
6.0628e-05
5.11395e-05
4.29671e-05
3.59616e-05
2.99883e-05
2.49169e-05
2.06296e-05
1.70226e-05
1.40022e-05
1.14829e-05
9.38795e-06
7.65036e-06
6.21252e-06
5.02593e-06
4.05031e-06
3.25169e-06
2.60045e-06
2.07129e-06
1.64289e-06
1.29734e-06
1.01973e-06
7.97625e-07
6.20715e-07
4.80457e-07
3.69816e-07
2.82979e-07
2.15214e-07
1.62613e-07
1.2206e-07
9.09511e-08
6.72985e-08
4.93674e-08
3.59877e-08
2.60633e-08
1.87476e-08
1.33898e-08
9.49269e-09
6.67804e-09
4.66027e-09
3.22491e-09
2.21206e-09
1.50335e-09
1.0118e-09
6.7403e-10
4.44193e-10
2.89402e-10
1.86283e-10
1.1837e-10
7.41869e-11
4.58134e-11
2.78453e-11
1.6637e-11
9.75868e-12
5.61166e-12
3.15896e-12
1.73828e-12
9.3372e-13
4.88973e-13
2.49384e-13
1.23785e-13
5.97925e-14
2.81359e-14
1.29406e-14
5.86498e-15
2.66726e-15
1.26355e-15
6.63292e-16
4.11972e-16
3.08015e-16
2.64847e-16
2.46378e-16
2.37926e-16
2.33623e-16
2.31139e-16
2.29437e-16
2.2838e-16
2.27759e-16
2.27313e-16
2.2678e-16
2.26226e-16
2.25686e-16
2.25185e-16
2.24737e-16
2.24339e-16
2.2399e-16
2.23688e-16
2.23428e-16
2.23205e-16
2.23015e-16
2.22852e-16
2.22717e-16
2.22602e-16
2.22506e-16
2.22428e-16
2.22352e-16
2.22307e-16
2.22233e-16
2.22813e-16
2.27141e-16
2.39388e-16
2.66974e-16
3.17555e-16
4.11157e-16
5.62183e-16
8.65704e-16
1.51733e-15
3.02059e-15
6.70381e-15
1.6233e-14
4.14975e-14
1.10777e-13
2.99702e-13
8.24764e-13
2.20438e-12
5.85361e-12
1.34813e-11
5.21266e-11
6.02986e-11
9.50301e-11
1.21087e-10
4.33855e-06
7.28346e-06
8.92461e-06
9.92384e-06
1.16061e-05
1.38389e-05
1.72066e-05
2.28968e-05
3.20116e-05
4.55007e-05
6.53913e-05
9.37802e-05
0.000133143
0.00018522
0.000252824
0.000349646
0.000500008
0.000697883
0.000880739
0.00102595
0.00119818
0.00136464
0.00151884
0.00173614
0.00198904
0.00224788
0.0025467
0.00283957
0.0031428
0.00336496
0.00354714
0.00368706
0.00381729
0.00386678
0.00383949
0.00359828
0.00336398
0.00315336
0.00277751
0.00240122
0.00219418
0.00171454
0.00151486
0.00124519
0.00104876
0.000868598
0.000715907
0.000587432
0.000477965
0.000387041
0.000313248
0.000254014
0.0002074
0.000169781
0.000139257
0.000115724
9.83891e-05
8.52067e-05
7.43773e-05
6.47297e-05
5.5749e-05
4.77482e-05
4.06595e-05
3.4421e-05
2.89762e-05
2.42627e-05
2.02122e-05
1.6753e-05
1.38168e-05
1.13407e-05
9.26698e-06
7.54159e-06
6.11413e-06
4.93869e-06
3.97463e-06
3.18681e-06
2.54532e-06
2.02483e-06
1.60407e-06
1.26521e-06
9.93388e-07
7.76242e-07
6.03534e-07
4.66791e-07
3.5906e-07
2.74599e-07
2.08757e-07
1.5769e-07
1.18352e-07
8.8186e-08
6.5268e-08
4.78886e-08
3.49145e-08
2.52918e-08
1.81984e-08
1.30029e-08
9.22309e-09
6.49228e-09
4.53376e-09
3.13984e-09
2.15563e-09
1.46647e-09
9.8808e-10
6.5903e-10
4.34877e-10
2.83734e-10
1.82913e-10
1.16422e-10
7.30984e-11
4.52311e-11
2.75514e-11
1.65005e-11
9.70349e-12
5.59528e-12
3.15898e-12
1.74368e-12
9.39623e-13
4.93655e-13
2.52555e-13
1.25704e-13
6.08408e-14
2.86467e-14
1.31514e-14
5.92458e-15
2.66007e-15
1.23231e-15
6.27908e-16
3.80252e-16
2.81997e-16
2.44223e-16
2.3013e-16
2.25011e-16
2.23188e-16
2.22542e-16
2.22307e-16
2.22214e-16
2.22171e-16
2.22149e-16
2.22134e-16
2.22123e-16
2.22113e-16
2.22104e-16
2.22097e-16
2.2209e-16
2.22084e-16
2.22078e-16
2.22074e-16
2.2207e-16
2.22066e-16
2.22063e-16
2.2206e-16
2.22058e-16
2.22056e-16
2.22054e-16
2.22052e-16
2.22051e-16
2.2205e-16
2.22053e-16
2.22703e-16
2.26499e-16
2.37e-16
2.60413e-16
3.09001e-16
4.08817e-16
6.20806e-16
1.09405e-15
2.22138e-15
5.02036e-15
1.23604e-14
3.16968e-14
8.4604e-14
2.24609e-13
6.04498e-13
1.53659e-12
4.19714e-12
8.5319e-12
2.9023e-11
2.99781e-11
3.20691e-11
4.06989e-11
4.36531e-06
7.5399e-06
9.95487e-06
1.09882e-05
1.26315e-05
1.60121e-05
2.14067e-05
3.01724e-05
4.42496e-05
6.66079e-05
0.000100245
0.000149137
0.000218104
0.000309785
0.000418207
0.000562984
0.000770866
0.000966319
0.00115336
0.00139181
0.00165825
0.00199428
0.00245013
0.00301055
0.003425
0.00384117
0.00417894
0.00462933
0.00499617
0.00522649
0.00542942
0.00561437
0.00569935
0.0057191
0.00547051
0.0049151
0.00461783
0.00420636
0.00369273
0.00320193
0.00288405
0.00236316
0.00200679
0.00161022
0.0013237
0.00108489
0.000887639
0.000723519
0.0005904
0.000477059
0.000377565
0.000291952
0.000224773
0.000175248
0.000138117
0.000109621
8.73043e-05
6.98491e-05
5.70118e-05
4.81582e-05
4.21081e-05
3.72469e-05
3.28694e-05
2.86766e-05
2.47727e-05
2.12415e-05
1.80644e-05
1.52347e-05
1.27486e-05
1.05907e-05
8.73841e-06
7.16479e-06
5.84045e-06
4.73534e-06
3.82013e-06
3.06724e-06
2.45153e-06
1.95068e-06
1.54525e-06
1.21857e-06
9.56513e-07
7.47237e-07
5.80861e-07
4.492e-07
3.45515e-07
2.64263e-07
2.00934e-07
1.51831e-07
1.13997e-07
8.49958e-08
6.29388e-08
4.62312e-08
3.37205e-08
2.44388e-08
1.75944e-08
1.25793e-08
8.92876e-09
6.28991e-09
4.39616e-09
3.04737e-09
2.09428e-09
1.42632e-09
9.62196e-10
6.42617e-10
4.24662e-10
2.77509e-10
1.79212e-10
1.14285e-10
7.19083e-11
4.45984e-11
2.72359e-11
1.6358e-11
9.64996e-12
5.58379e-12
3.16463e-12
1.75419e-12
9.49679e-13
5.01459e-13
2.57947e-13
1.29135e-13
6.28837e-14
2.97934e-14
1.37604e-14
6.23121e-15
2.80687e-15
1.29928e-15
6.56938e-16
3.92117e-16
2.86479e-16
2.45705e-16
2.30472e-16
2.24958e-16
2.23024e-16
2.22366e-16
2.22149e-16
2.22079e-16
2.22057e-16
2.2205e-16
2.22047e-16
2.22047e-16
2.22046e-16
2.22046e-16
2.22046e-16
2.22046e-16
2.22045e-16
2.22045e-16
2.22045e-16
2.22045e-16
2.22045e-16
2.22045e-16
2.22045e-16
2.22045e-16
2.22045e-16
2.22045e-16
2.22045e-16
2.22045e-16
2.22045e-16
2.22045e-16
2.22058e-16
2.24572e-16
2.32754e-16
2.51847e-16
2.92028e-16
3.74012e-16
5.46267e-16
9.21988e-16
1.80042e-15
3.92382e-15
9.38015e-15
2.33295e-14
6.04614e-14
1.54488e-13
3.97517e-13
9.52094e-13
2.67279e-12
4.66166e-12
1.16502e-11
1.27015e-11
1.34834e-11
1.63919e-11
4.39481e-06
7.56213e-06
1.05561e-05
1.18595e-05
1.34853e-05
1.73256e-05
2.42423e-05
3.58938e-05
5.46585e-05
8.35054e-05
0.000125991
0.000190408
0.000290352
0.000443679
0.000690208
0.000940031
0.00112354
0.00136706
0.00173218
0.00230059
0.00275931
0.00335851
0.00383965
0.004131
0.00448833
0.00491533
0.00555164
0.00620142
0.00678032
0.00729027
0.00775199
0.00824964
0.00847833
0.00850743
0.00792498
0.00676666
0.00588507
0.00481446
0.00415643
0.00348861
0.00310611
0.00265264
0.002262
0.00187348
0.00150536
0.00120897
0.000974956
0.000786338
0.00063806
0.00052376
0.000434053
0.000357652
0.000283951
0.000213156
0.000157403
0.000117738
8.92152e-05
6.85017e-05
5.30144e-05
4.1229e-05
3.24891e-05
2.63793e-05
2.22331e-05
1.93651e-05
1.71444e-05
1.52517e-05
1.35424e-05
1.18908e-05
1.03133e-05
8.8464e-06
7.50186e-06
6.29242e-06
5.22542e-06
4.29999e-06
3.50942e-06
2.84298e-06
2.28758e-06
1.82929e-06
1.45435e-06
1.14991e-06
9.0435e-07
7.07487e-07
5.50558e-07
4.26146e-07
3.28037e-07
2.51086e-07
1.91057e-07
1.4449e-07
1.08575e-07
8.10417e-08
6.00661e-08
4.41892e-08
3.22574e-08
2.33987e-08
1.68611e-08
1.20669e-08
8.57405e-09
6.04681e-09
4.2313e-09
2.93684e-09
2.02107e-09
1.37847e-09
9.31375e-10
6.23079e-10
4.12496e-10
2.70085e-10
1.74786e-10
1.1172e-10
7.04707e-11
4.38271e-11
2.68459e-11
1.61775e-11
9.57858e-12
5.56499e-12
3.1681e-12
1.76478e-12
9.60573e-13
5.10202e-13
2.64122e-13
1.33135e-13
6.5306e-14
3.11789e-14
1.45137e-14
6.62201e-15
3.00071e-15
1.3913e-15
6.98812e-16
4.10398e-16
2.94137e-16
2.48777e-16
2.31647e-16
2.25387e-16
2.23172e-16
2.22414e-16
2.22162e-16
2.22081e-16
2.22056e-16
2.22048e-16
2.22046e-16
2.22045e-16
2.22045e-16
2.22045e-16
2.22045e-16
2.22045e-16
2.22045e-16
2.22045e-16
2.22045e-16
2.22045e-16
2.22045e-16
2.22045e-16
2.22045e-16
2.22045e-16
2.22045e-16
2.22045e-16
2.22045e-16
2.22045e-16
2.22045e-16
2.22045e-16
2.22046e-16
2.23318e-16
2.28958e-16
2.43417e-16
2.74892e-16
3.392e-16
4.72687e-16
7.56374e-16
1.402e-15
2.91313e-15
6.67879e-15
1.59786e-14
3.97463e-14
9.70485e-14
2.35387e-13
5.24609e-13
1.22575e-12
2.22527e-12
3.04955e-12
3.70536e-12
4.13482e-12
5.43611e-12
4.41334e-06
7.49654e-06
1.10168e-05
1.28466e-05
1.48985e-05
1.92601e-05
2.67488e-05
4.01677e-05
6.29677e-05
0.000100445
0.000163831
0.000287414
0.00046184
0.000655901
0.000854047
0.00115098
0.00146356
0.00191784
0.00267498
0.00326152
0.00385437
0.00433423
0.0047992
0.00526625
0.00607839
0.00712526
0.00867886
0.0106983
0.013297
0.016494
0.0198992
0.0225529
0.0237576
0.0239923
0.0217527
0.0179699
0.0136027
0.00949221
0.00661264
0.0044353
0.00334283
0.00273676
0.00232427
0.00196184
0.00160949
0.00128131
0.00101772
0.000816964
0.000653719
0.000530743
0.00044018
0.000371455
0.000315477
0.000265133
0.00020828
0.000149802
0.00010658
7.64079e-05
5.56256e-05
4.12938e-05
3.11373e-05
2.36922e-05
1.83186e-05
1.461e-05
1.19766e-05
1.00009e-05
8.54014e-06
7.52534e-06
6.76473e-06
6.1037e-06
5.45715e-06
4.79108e-06
4.14039e-06
3.526e-06
2.96126e-06
2.45585e-06
2.01389e-06
1.6349e-06
1.31529e-06
1.04958e-06
8.31342e-07
6.53953e-07
5.11069e-07
3.96907e-07
3.06353e-07
2.35018e-07
1.79176e-07
1.3575e-07
1.02174e-07
7.63988e-08
5.67105e-08
4.18088e-08
3.05577e-08
2.21938e-08
1.60137e-08
1.14757e-08
8.16543e-09
5.76704e-09
4.04171e-09
2.80977e-09
1.93692e-09
1.32345e-09
8.95913e-10
6.00576e-10
3.98462e-10
2.61503e-10
1.69656e-10
1.08733e-10
6.87875e-11
4.29168e-11
2.63802e-11
1.59579e-11
9.48851e-12
5.53836e-12
3.16913e-12
1.77534e-12
9.72339e-13
5.19977e-13
2.71186e-13
1.37798e-13
6.81778e-14
3.28473e-14
1.54337e-14
7.10558e-15
3.24359e-15
1.5081e-15
7.5267e-16
4.34242e-16
3.04286e-16
2.52936e-16
2.33292e-16
2.26014e-16
2.23403e-16
2.22495e-16
2.2219e-16
2.2209e-16
2.22058e-16
2.22049e-16
2.22046e-16
2.22045e-16
2.22045e-16
2.22045e-16
2.22045e-16
2.22045e-16
2.22045e-16
2.22045e-16
2.22045e-16
2.22045e-16
2.22045e-16
2.22045e-16
2.22045e-16
2.22045e-16
2.22045e-16
2.22045e-16
2.22045e-16
2.22045e-16
2.22045e-16
2.22045e-16
2.22045e-16
2.22055e-16
2.24831e-16
2.3399e-16
2.55794e-16
3.01479e-16
3.95821e-16
5.91362e-16
1.02145e-15
1.99091e-15
4.3065e-15
9.78233e-15
2.30065e-14
5.28788e-14
1.29515e-13
2.46647e-13
6.09921e-13
7.02536e-13
7.59295e-13
9.05925e-13
1.04498e-12
1.49437e-12
4.46794e-06
7.25123e-06
1.10139e-05
1.33868e-05
1.59789e-05
2.18968e-05
3.30007e-05
5.28503e-05
8.72472e-05
0.000144571
0.000239608
0.000368983
0.000567494
0.0008551
0.00128276
0.00170868
0.00232051
0.0031754
0.00388997
0.00435772
0.0049037
0.00544996
0.00623806
0.00747498
0.00958631
0.0129325
0.0184093
0.0267441
0.0380204
0.0512372
0.064223
0.071912
0.0748427
0.0724872
0.0650186
0.0543065
0.0416917
0.0295486
0.0190971
0.0111283
0.00628151
0.00381527
0.00255638
0.00199453
0.00164034
0.00130975
0.00102517
0.000818692
0.000649936
0.000511237
0.000414006
0.000354723
0.00031151
0.000273424
0.000238131
0.000199482
0.00014727
0.000100783
6.85204e-05
4.69639e-05
3.2933e-05
2.37677e-05
1.75508e-05
1.31547e-05
1.01298e-05
8.03724e-06
6.45737e-06
5.24516e-06
4.33033e-06
3.66028e-06
3.19984e-06
2.89136e-06
2.6404e-06
2.39399e-06
2.12797e-06
1.85107e-06
1.58145e-06
1.32875e-06
1.0997e-06
8.98037e-07
7.24678e-07
5.78598e-07
4.5756e-07
3.58697e-07
2.78929e-07
2.15255e-07
1.64905e-07
1.25436e-07
9.47374e-08
7.10483e-08
5.28913e-08
3.9089e-08
2.86554e-08
2.08506e-08
1.50717e-08
1.08202e-08
7.71307e-09
5.4578e-09
3.83243e-09
2.66968e-09
1.84427e-09
1.26299e-09
8.57018e-10
5.75949e-10
3.83139e-10
2.52156e-10
1.64085e-10
1.05504e-10
6.69779e-11
4.19468e-11
2.58922e-11
1.57359e-11
9.40523e-12
5.52135e-12
3.17943e-12
1.79357e-12
9.89949e-13
5.33974e-13
2.81179e-13
1.44419e-13
7.23102e-14
3.52962e-14
1.68174e-14
7.85272e-15
3.62978e-15
1.69939e-15
8.43541e-16
4.75676e-16
3.22433e-16
2.60576e-16
2.36385e-16
2.2722e-16
2.23856e-16
2.22659e-16
2.22247e-16
2.22109e-16
2.22065e-16
2.22051e-16
2.22046e-16
2.22045e-16
2.22045e-16
2.22045e-16
2.22045e-16