/*--------------------------------*- C++ -*----------------------------------*\
  =========                 |
  \\      /  F ield         | OpenFOAM: The Open Source CFD Toolbox
   \\    /   O peration     | Website:  https://openfoam.org
    \\  /    A nd           | Version:  9
     \\/     M anipulation  |
\*---------------------------------------------------------------------------*/
FoamFile
{
    format      ascii;
    class       surfaceScalarField;
    location    "0.008";
    object      phi;
}
// * * * * * * * * * * * * * * * * * * * * * * * * * * * * * * * * * * * * * //

dimensions      [0 3 -1 0 0 0 0];

internalField   nonuniform List<scalar> 
24170
(
3.10497e-06
8.6708e-08
2.97915e-06
1.25817e-07
2.88783e-06
9.13191e-08
2.8214e-06
6.64327e-08
2.76215e-06
5.92462e-08
2.69726e-06
6.48954e-08
2.61846e-06
7.87954e-08
2.52764e-06
9.08197e-08
2.43507e-06
9.25657e-08
2.34786e-06
8.7211e-08
2.27009e-06
7.77751e-08
2.20041e-06
6.96757e-08
2.13834e-06
6.20696e-08
2.07781e-06
6.05339e-08
2.0239e-06
5.39118e-08
1.96776e-06
5.61365e-08
1.90433e-06
6.34269e-08
4.6189e-08
1.85815e-06
3.51041e-06
3.05849e-08
3.52877e-06
1.07458e-07
3.53341e-06
8.6677e-08
3.51359e-06
8.6251e-08
3.4911e-06
8.17374e-08
3.48642e-06
6.95796e-08
3.49591e-06
6.9305e-08
3.50523e-06
8.15018e-08
3.50471e-06
9.30835e-08
3.49344e-06
9.84771e-08
3.47496e-06
9.62589e-08
3.4534e-06
9.12307e-08
3.43069e-06
8.47861e-08
3.40561e-06
8.56158e-08
3.37804e-06
8.14762e-08
3.34903e-06
8.51425e-08
3.31951e-06
9.29528e-08
6.44275e-08
3.30127e-06
3.71986e-06
5.68372e-08
3.67759e-06
1.4973e-07
3.6928e-06
7.14655e-08
3.72243e-06
5.66203e-08
3.72862e-06
7.55517e-08
3.71585e-06
8.23487e-08
3.70914e-06
7.60143e-08
3.72131e-06
6.93333e-08
3.74648e-06
6.79115e-08
3.77282e-06
7.2141e-08
3.79066e-06
7.84135e-08
3.79782e-06
8.40741e-08
3.79534e-06
8.72691e-08
3.7893e-06
9.16525e-08
3.77913e-06
9.16446e-08
3.77269e-06
9.15813e-08
3.77223e-06
9.34153e-08
7.89859e-08
3.75767e-06
4.00036e-06
1.77735e-07
3.98124e-06
1.6885e-07
3.97453e-06
7.81769e-08
3.963e-06
6.81515e-08
3.95089e-06
8.76605e-08
3.9407e-06
9.25368e-08
3.9365e-06
8.02171e-08
3.94102e-06
6.48124e-08
3.95137e-06
5.75661e-08
3.96263e-06
6.08759e-08
3.97139e-06
6.96523e-08
3.978e-06
7.74719e-08
3.98437e-06
8.08944e-08
3.99361e-06
8.2411e-08
4.00492e-06
8.03313e-08
4.01956e-06
7.69448e-08
4.03666e-06
7.6318e-08
6.75797e-08
4.04806e-06
4.24597e-06
1.55061e-07
4.28258e-06
1.32238e-07
4.2972e-06
6.35512e-08
4.29999e-06
6.53698e-08
4.2858e-06
1.01843e-07
4.25244e-06
1.25899e-07
4.20953e-06
1.23131e-07
4.17056e-06
1.03777e-07
4.14493e-06
8.3194e-08
4.13661e-06
6.92053e-08
4.14505e-06
6.12106e-08
4.16703e-06
5.54869e-08
4.19783e-06
5.00934e-08
4.23319e-06
4.7059e-08
4.26812e-06
4.53942e-08
4.29978e-06
4.52872e-08
4.3277e-06
4.83969e-08
4.86758e-08
4.3466e-06
4.4588e-06
4.18037e-08
4.54179e-06
4.92513e-08
4.56111e-06
4.42306e-08
4.54278e-06
8.37038e-08
4.51988e-06
1.24741e-07
4.50906e-06
1.3672e-07
4.50931e-06
1.22881e-07
4.51121e-06
1.01872e-07
4.50736e-06
8.70452e-08
4.49861e-06
7.79541e-08
4.49167e-06
6.81543e-08
4.49234e-06
5.48198e-08
4.50248e-06
3.99482e-08
4.52047e-06
2.90686e-08
4.54213e-06
2.37371e-08
4.5634e-06
2.40179e-08
4.58185e-06
2.99471e-08
3.63722e-08
4.59415e-06
4.91353e-06
7.03379e-08
4.87031e-06
9.24768e-08
4.84607e-06
6.84667e-08
4.85957e-06
7.02018e-08
4.88853e-06
9.57817e-08
4.90275e-06
1.22498e-07
4.89177e-06
1.33866e-07
4.86319e-06
1.30453e-07
4.83126e-06
1.18979e-07
4.80859e-06
1.00623e-07
4.80178e-06
7.49568e-08
4.81075e-06
4.58544e-08
4.8311e-06
1.9602e-08
4.85729e-06
2.87128e-09
4.88385e-06
-2.81882e-09
4.90664e-06
1.22552e-09
4.92389e-06
1.26982e-08
2.61437e-08
4.93412e-06
5.1345e-06
4.62592e-08
5.20576e-06
2.1211e-08
5.21379e-06
6.04368e-08
5.19547e-06
8.85266e-08
5.20375e-06
8.75018e-08
5.22903e-06
9.722e-08
5.24606e-06
1.16829e-07
5.24514e-06
1.31376e-07
5.23165e-06
1.32472e-07
5.21465e-06
1.17619e-07
5.19947e-06
9.01356e-08
5.18768e-06
5.76438e-08
5.17998e-06
2.73e-08
5.17763e-06
5.22106e-09
5.18146e-06
-6.6402e-09
5.19059e-06
-7.9038e-09
5.20358e-06
-2.97368e-10
1.13129e-08
5.21841e-06
5.45802e-06
-2.67477e-08
5.62931e-06
-1.50078e-07
5.70315e-06
-1.34005e-08
5.6899e-06
1.01775e-07
5.65066e-06
1.26744e-07
5.63487e-06
1.13009e-07
5.65592e-06
9.57794e-08
5.69892e-06
8.83735e-08
5.74103e-06
9.03691e-08
5.76447e-06
9.41718e-08
5.76282e-06
9.1792e-08
5.7411e-06
7.93658e-08
5.71062e-06
5.77786e-08
5.6829e-06
3.29395e-08
5.6641e-06
1.21589e-08
5.65561e-06
5.8415e-10
5.65589e-06
-5.76582e-10
6.4945e-09
5.66071e-06
5.96805e-06
-1.58857e-07
6.00978e-06
-1.91802e-07
6.0144e-06
-1.8025e-08
5.99352e-06
1.22656e-07
5.96202e-06
1.5824e-07
5.94739e-06
1.27642e-07
5.95947e-06
8.36974e-08
5.98599e-06
6.18563e-08
6.00879e-06
6.75717e-08
6.01743e-06
8.55267e-08
6.01347e-06
9.57524e-08
6.00536e-06
8.74799e-08
6.00117e-06
6.19689e-08
6.00577e-06
2.83309e-08
6.01992e-06
-1.98485e-09
6.0422e-06
-2.16925e-08
6.07019e-06
-2.85741e-08
-2.40628e-08
6.10075e-06
6.38538e-06
-6.6989e-08
6.39717e-06
-2.03592e-07
6.40625e-06
-2.71057e-08
6.40413e-06
1.24773e-07
6.40824e-06
1.54131e-07
6.41689e-06
1.18993e-07
6.4216e-06
7.89852e-08
6.41939e-06
6.40671e-08
6.41437e-06
7.25902e-08
6.41388e-06
8.60182e-08
6.42353e-06
8.61006e-08
6.44389e-06
6.71186e-08
6.47118e-06
3.46855e-08
6.49872e-06
7.92241e-10
6.52173e-06
-2.49962e-08
6.53819e-06
-3.81555e-08
6.54875e-06
-3.91373e-08
-3.18508e-08
6.55654e-06
5.75907e-06
-1.21379e-07
5.75598e-06
-2.00497e-07
5.74007e-06
-1.11953e-08
5.73868e-06
1.26158e-07
5.74242e-06
1.50388e-07
5.7458e-06
1.15619e-07
5.74655e-06
7.82331e-08
5.75086e-06
5.97602e-08
5.76859e-06
5.48595e-08
5.8058e-06
4.8806e-08
5.85837e-06
3.35335e-08
5.91382e-06
1.16702e-08
5.95849e-06
-9.99015e-09
5.98211e-06
-2.28284e-08
5.98301e-06
-2.58967e-08
5.96607e-06
-2.12185e-08
5.94065e-06
-1.37103e-08
-7.05641e-09
5.91585e-06
7.0479e-06
-2.25456e-07
6.97527e-06
-1.27867e-07
6.90491e-06
5.91693e-08
6.88181e-06
1.4926e-07
6.91794e-06
1.14258e-07
6.98986e-06
4.36978e-08
7.06024e-06
7.85404e-09
7.10488e-06
1.51162e-08
7.12462e-06
3.51192e-08
7.13357e-06
3.98549e-08
7.14316e-06
2.39456e-08
7.15591e-06
-1.07522e-09
7.1684e-06
-2.2483e-08
7.17734e-06
-3.17634e-08
7.18123e-06
-2.97885e-08
7.18174e-06
-2.17348e-08
7.18168e-06
-1.36423e-08
-9.24812e-09
7.18387e-06
8.74092e-06
-1.4992e-07
8.63519e-06
-2.21375e-08
8.56594e-06
1.28415e-07
8.55772e-06
1.57483e-07
8.60392e-06
6.80585e-08
8.68091e-06
-3.32916e-08
8.75772e-06
-6.89565e-08
8.80339e-06
-3.05554e-08
8.80523e-06
3.3282e-08
8.77419e-06
7.08926e-08
8.73097e-06
6.71676e-08
8.69462e-06
3.52708e-08
8.67534e-06
-3.19904e-09
8.6728e-06
-2.92279e-08
8.68169e-06
-3.86753e-08
8.69485e-06
-3.48958e-08
8.70755e-06
-2.63478e-08
-1.86832e-08
8.71699e-06
1.07068e-05
3.06276e-08
1.05759e-05
1.08778e-07
1.05515e-05
1.5281e-07
1.05946e-05
1.14354e-07
1.06155e-05
4.71845e-08
1.05918e-05
-9.62333e-09
1.05498e-05
-2.69111e-08
1.05264e-05
-7.22406e-09
1.05364e-05
2.33267e-08
1.05649e-05
4.24253e-08
1.059e-05
4.20159e-08
1.05979e-05
2.73903e-08
1.05863e-05
8.3995e-09
1.0563e-05
-5.95376e-09
1.05414e-05
-1.70206e-08
1.05309e-05
-2.44303e-08
1.05375e-05
-3.29678e-08
-4.2907e-08
1.05617e-05
1.2775e-05
2.84184e-07
1.26284e-05
2.55349e-07
1.26124e-05
1.6887e-07
1.26596e-05
6.70637e-08
1.27342e-05
-2.73657e-08
1.27903e-05
-6.57315e-08
1.28087e-05
-4.53136e-08
1.28024e-05
-8.97027e-10
1.27876e-05
3.80611e-08
1.27796e-05
5.04212e-08
1.2778e-05
4.36385e-08
1.27762e-05
2.9192e-08
1.27701e-05
1.45306e-08
1.27624e-05
1.75174e-09
1.27558e-05
-1.03944e-08
1.27549e-05
-2.35817e-08
1.27609e-05
-3.89303e-08
-5.77211e-08
1.27757e-05
1.50814e-05
2.15504e-07
1.52805e-05
5.61849e-08
1.54855e-05
-3.60781e-08
1.56432e-05
-9.0679e-08
1.57479e-05
-1.32005e-07
1.58014e-05
-1.19236e-07
1.58134e-05
-5.73176e-08
1.58056e-05
6.84893e-09
1.58088e-05
3.48903e-08
1.58251e-05
3.4115e-08
1.58486e-05
2.0144e-08
1.58722e-05
5.54538e-09
1.58948e-05
-8.03558e-09
1.59169e-05
-2.03041e-08
1.59417e-05
-3.51816e-08
1.59707e-05
-5.26612e-08
1.6003e-05
-7.11939e-08
-8.59199e-08
1.60312e-05
1.86638e-05
-4.8998e-08
1.88772e-05
-1.57182e-07
1.90151e-05
-1.73997e-07
1.90918e-05
-1.67394e-07
1.90914e-05
-1.31583e-07
1.9045e-05
-7.28823e-08
1.90045e-05
-1.68118e-08
1.89997e-05
1.16546e-08
1.90179e-05
1.66766e-08
1.90387e-05
1.3337e-08
1.90429e-05
1.59685e-08
1.9025e-05
2.34309e-08
1.89908e-05
2.61676e-08
1.89543e-05
1.62033e-08
1.8928e-05
-8.86703e-09
1.89195e-05
-4.41314e-08
1.8932e-05
-8.37789e-08
-1.185e-07
1.89646e-05
2.32049e-05
-9.42074e-08
2.31834e-05
-1.35646e-07
2.31119e-05
-1.02522e-07
2.30202e-05
-7.56856e-08
2.29515e-05
-6.28841e-08
2.29276e-05
-4.89618e-08
2.2934e-05
-2.32459e-08
2.29446e-05
1.12001e-09
2.29526e-05
8.68332e-09
2.29686e-05
-2.74573e-09
2.30106e-05
-2.60274e-08
2.30853e-05
-5.12027e-08
2.31827e-05
-7.12738e-08
2.3282e-05
-8.31115e-08
2.33611e-05
-8.79835e-08
2.34067e-05
-8.96889e-08
2.34143e-05
-9.13531e-08
-9.65709e-08
2.33924e-05
1.67586e-05
-2.54557e-08
1.68288e-05
-2.05848e-07
1.6887e-05
-1.60733e-07
1.68885e-05
-7.72408e-08
1.68435e-05
-1.77956e-08
1.67839e-05
1.05672e-08
1.67429e-05
1.7753e-08
1.67321e-05
1.19556e-08
1.67429e-05
-2.0837e-09
1.67644e-05
-2.4259e-08
1.67904e-05
-5.20959e-08
1.68196e-05
-8.04103e-08
1.68533e-05
-1.04941e-07
1.68934e-05
-1.2315e-07
1.6939e-05
-1.33657e-07
1.69864e-05
-1.37039e-07
1.70294e-05
-1.34372e-07
-1.28173e-07
1.7061e-05
1.48963e-05
1.99191e-07
1.47082e-05
-1.77858e-08
1.46175e-05
-7.00321e-08
1.45482e-05
-7.90488e-09
1.45098e-05
2.05581e-08
1.4541e-05
-2.06475e-08
1.46355e-05
-7.67696e-08
1.47479e-05
-1.00373e-07
1.48314e-05
-8.55855e-08
1.48613e-05
-5.41704e-08
1.48386e-05
-2.94524e-08
1.47812e-05
-2.29656e-08
1.47107e-05
-3.44752e-08
1.46441e-05
-5.6486e-08
1.459e-05
-7.95828e-08
1.45504e-05
-9.74782e-08
1.45236e-05
-1.07561e-07
-1.10722e-07
1.45062e-05
1.28829e-05
1.57819e-07
1.28086e-05
5.6525e-08
1.27585e-05
-1.99479e-08
1.27735e-05
-2.28776e-08
1.28166e-05
-2.26221e-08
1.28426e-05
-4.65588e-08
1.28418e-05
-7.59912e-08
1.2833e-05
-9.15431e-08
1.28375e-05
-9.01755e-08
1.28643e-05
-8.09246e-08
1.29083e-05
-7.34914e-08
1.29565e-05
-7.11645e-08
1.29941e-05
-7.20137e-08
1.30106e-05
-7.30205e-08
1.30032e-05
-7.21374e-08
1.29761e-05
-7.04097e-08
1.29373e-05
-6.87705e-08
-6.98746e-08
1.28965e-05
1.1161e-05
-6.03298e-08
1.11316e-05
8.59858e-08
1.10783e-05
3.3322e-08
1.10817e-05
-2.62946e-08
1.11221e-05
-6.30526e-08
1.11618e-05
-8.62545e-08
1.11788e-05
-9.29888e-08
1.11722e-05
-8.49455e-08
1.11566e-05
-7.45284e-08
1.11495e-05
-7.38141e-08
1.11619e-05
-8.59095e-08
1.11947e-05
-1.03942e-07
1.12408e-05
-1.18199e-07
1.12908e-05
-1.2295e-07
1.13358e-05
-1.17175e-07
1.137e-05
-1.04632e-07
1.13904e-05
-8.91547e-08
-7.49801e-08
1.13955e-05
9.7251e-06
-9.04692e-09
9.78423e-06
2.68502e-08
9.83258e-06
-1.50271e-08
9.83041e-06
-2.41238e-08
9.78181e-06
-1.44482e-08
9.72795e-06
-3.23934e-08
9.70805e-06
-7.30882e-08
9.72897e-06
-1.05869e-07
9.76646e-06
-1.12019e-07
9.78835e-06
-9.57003e-08
9.77598e-06
-7.35407e-08
9.73056e-06
-5.8528e-08
9.66684e-06
-5.44722e-08
9.60218e-06
-5.82917e-08
9.54921e-06
-6.42031e-08
9.51258e-06
-6.80093e-08
9.49156e-06
-6.81357e-08
-6.53208e-08
9.4819e-06
8.49722e-06
-1.31947e-08
8.45759e-06
6.64793e-08
8.45517e-06
-1.2606e-08
8.46301e-06
-3.19662e-08
8.45343e-06
-4.87014e-09
8.42226e-06
-1.2251e-09
8.38421e-06
-3.50388e-08
8.36066e-06
-8.2313e-08
8.36485e-06
-1.16215e-07
8.39344e-06
-1.24289e-07
8.43092e-06
-1.1102e-07
8.46081e-06
-8.84143e-08
8.47349e-06
-6.71523e-08
8.46801e-06
-5.28139e-08
8.45001e-06
-4.62067e-08
8.42739e-06
-4.53817e-08
8.40731e-06
-4.80633e-08
-5.26122e-08
8.39461e-06
7.33646e-06
-1.08144e-08
7.33029e-06
7.26504e-08
7.34612e-06
-2.84416e-08
7.36282e-06
-4.86662e-08
7.39446e-06
-3.65085e-08
7.42951e-06
-3.62701e-08
7.45033e-06
-5.58626e-08
7.45208e-06
-8.40632e-08
7.44319e-06
-1.07323e-07
7.43508e-06
-1.16176e-07
7.43308e-06
-1.09028e-07
7.43525e-06
-9.05796e-08
7.43683e-06
-6.87339e-08
7.43513e-06
-5.11181e-08
7.431e-06
-4.20727e-08
7.4272e-06
-4.15859e-08
7.42675e-06
-4.76085e-08
-5.63118e-08
7.43045e-06
6.28769e-06
-8.79742e-09
6.43585e-06
-7.55105e-08
6.50824e-06
-1.00839e-07
6.53585e-06
-7.62694e-08
6.52675e-06
-2.74077e-08
6.48177e-06
8.70333e-09
6.41941e-06
6.49747e-09
6.36772e-06
-3.23693e-08
6.34572e-06
-8.53258e-08
6.35319e-06
-1.23647e-07
6.37756e-06
-1.33394e-07
6.40462e-06
-1.17646e-07
6.42538e-06
-8.94925e-08
6.43716e-06
-6.28928e-08
6.44136e-06
-4.62698e-08
6.44071e-06
-4.0945e-08
6.43733e-06
-4.42199e-08
-5.11708e-08
6.43218e-06
5.56747e-06
5.37184e-08
5.51991e-06
-2.79538e-08
5.47767e-06
-5.85961e-08
5.46567e-06
-6.4273e-08
5.48929e-06
-5.10326e-08
5.53486e-06
-3.68617e-08
5.58201e-06
-4.06555e-08
5.61623e-06
-6.65829e-08
5.63172e-06
-1.00819e-07
5.63202e-06
-1.23947e-07
5.62445e-06
-1.2582e-07
5.61533e-06
-1.08534e-07
5.60801e-06
-8.217e-08
5.6033e-06
-5.81809e-08
5.60064e-06
-4.36113e-08
5.59921e-06
-3.95099e-08
5.59813e-06
-4.31387e-08
-4.95993e-08
5.59655e-06
4.82708e-06
-5.09787e-08
4.89264e-06
-9.35111e-08
4.90727e-06
-7.32303e-08
4.91018e-06
-6.71815e-08
4.92383e-06
-6.46856e-08
4.94913e-06
-6.21576e-08
4.97428e-06
-6.5807e-08
4.98405e-06
-7.63547e-08
4.96988e-06
-8.66469e-08
4.93498e-06
-8.90508e-08
4.89107e-06
-8.19105e-08
4.85148e-06
-6.89441e-08
4.82488e-06
-5.55661e-08
4.81281e-06
-4.61156e-08
4.81152e-06
-4.23127e-08
4.8152e-06
-4.31913e-08
4.8185e-06
-4.64432e-08
-4.9419e-08
4.81832e-06
4.20339e-06
4.10988e-06
4.03665e-06
3.96947e-06
3.90478e-06
3.84262e-06
3.77681e-06
3.70046e-06
3.61381e-06
3.52476e-06
3.44285e-06
3.37391e-06
3.31834e-06
3.27223e-06
3.22991e-06
3.18672e-06
3.14028e-06
3.09086e-06
-8.9267e-08
8.9267e-08
-1.9157e-07
1.02303e-07
-2.98136e-07
1.06567e-07
-4.11563e-07
1.13427e-07
-5.33104e-07
1.21541e-07
-6.6369e-07
1.30586e-07
-8.03761e-07
1.40071e-07
-9.53395e-07
1.49634e-07
-1.11239e-06
1.58996e-07
-1.28036e-06
1.67973e-07
-1.45681e-06
1.76443e-07
-1.64113e-06
1.84327e-07
-1.83272e-06
1.9159e-07
-2.03095e-06
1.98227e-07
-2.23494e-06
2.0399e-07
-2.44347e-06
2.08526e-07
-2.65528e-06
2.11817e-07
-2.86904e-06
2.13758e-07
-3.08322e-06
2.14178e-07
-3.2961e-06
2.12875e-07
-3.50572e-06
2.09626e-07
-3.70991e-06
2.04193e-07
-3.90626e-06
1.96348e-07
-4.09215e-06
1.85886e-07
-4.26478e-06
1.72638e-07
-4.42128e-06
1.56491e-07
-4.55868e-06
1.37402e-07
-4.67409e-06
1.15414e-07
-4.76475e-06
9.06603e-08
-4.82815e-06
6.34005e-08
-4.86225e-06
3.40949e-08
-4.86564e-06
3.39693e-09
-4.83711e-06
-2.85344e-08
-4.77672e-06
-6.03912e-08
-4.68482e-06
-9.18998e-08
-4.56224e-06
-1.22582e-07
-4.41029e-06
-1.51946e-07
-4.23077e-06
-1.79515e-07
-4.02591e-06
-2.04866e-07
-3.79825e-06
-2.27662e-07
-3.55059e-06
-2.47652e-07
-3.28593e-06
-2.64664e-07
-3.00731e-06
-2.78624e-07
-2.71776e-06
-2.89546e-07
-2.42023e-06
-2.97529e-07
-2.11758e-06
-3.02647e-07
-1.81244e-06
-3.0514e-07
-1.50705e-06
-3.05391e-07
-1.20382e-06
-3.03234e-07
-9.04478e-07
-2.99341e-07
-6.10449e-07
-2.94029e-07
-3.23712e-07
-2.86737e-07
-4.50479e-08
-2.78664e-07
2.2524e-07
-2.70288e-07
4.85841e-07
-2.60602e-07
7.36331e-07
-2.5049e-07
9.76407e-07
-2.40076e-07
1.20589e-06
-2.29484e-07
1.42472e-06
-2.18829e-07
1.63293e-06
-2.08207e-07
1.83063e-06
-1.97701e-07
2.018e-06
-1.87375e-07
2.19529e-06
-1.77283e-07
2.36275e-06
-1.67466e-07
2.52071e-06
-1.57957e-07
2.66949e-06
-1.48778e-07
2.80943e-06
-1.39945e-07
2.9409e-06
-1.3147e-07
3.06426e-06
-1.23356e-07
3.17986e-06
-1.15607e-07
3.28808e-06
-1.0822e-07
3.38927e-06
-1.0119e-07
3.48379e-06
-9.45125e-08
3.57197e-06
-8.81781e-08
3.65414e-06
-8.2178e-08
3.73065e-06
-7.65021e-08
3.80178e-06
-7.11394e-08
3.86786e-06
-6.60788e-08
3.92917e-06
-6.13083e-08
3.98599e-06
-5.68162e-08
4.03858e-06
-5.25906e-08
4.0872e-06
-4.86194e-08
4.13209e-06
-4.48908e-08
4.17348e-06
-4.13928e-08
4.2116e-06
-3.81139e-08
4.24664e-06
-3.50426e-08
4.27881e-06
-3.21679e-08
4.30828e-06
-2.9479e-08
4.33525e-06
-2.69655e-08
4.35987e-06
-2.46172e-08
4.38229e-06
-2.24244e-08
4.40267e-06
-2.03777e-08
4.42114e-06
-1.84681e-08
4.43783e-06
-1.66874e-08
4.45285e-06
-1.50271e-08
4.46633e-06
-1.34792e-08
4.47837e-06
-1.2037e-08
4.48906e-06
-1.06935e-08
4.4985e-06
-9.44065e-09
4.50678e-06
-8.27302e-09
4.51396e-06
-7.18782e-09
4.52014e-06
-6.17476e-09
4.52537e-06
-5.22756e-09
4.52972e-06
-4.35013e-09
4.53325e-06
-3.53084e-09
4.53601e-06
-2.76187e-09
4.53806e-06
-2.04876e-09
4.53943e-06
-1.37467e-09
4.54018e-06
-7.49567e-10
4.54035e-06
-1.66899e-10
4.53991e-06
4.43137e-10
4.53886e-06
1.04483e-09
4.53726e-06
1.6042e-09
4.53513e-06
2.12641e-09
4.53249e-06
2.63571e-09
4.52935e-06
3.14175e-09
4.52572e-06
3.63665e-09
4.52161e-06
4.1044e-09
4.51709e-06
4.52188e-09
4.51222e-06
4.87435e-09
4.50705e-06
5.16072e-09
4.50166e-06
5.39166e-09
4.49608e-06
5.58268e-09
4.49033e-06
5.74892e-09
4.48443e-06
5.90102e-09
4.47839e-06
6.04506e-09
4.4722e-06
6.18376e-09
4.46588e-06
6.31766e-09
4.45944e-06
6.44683e-09
4.45287e-06
6.57132e-09
4.44617e-06
6.69104e-09
4.43937e-06
6.80643e-09
4.43245e-06
6.91758e-09
4.42543e-06
7.02499e-09
4.4183e-06
7.12893e-09
4.41107e-06
7.22982e-09
4.40374e-06
7.32779e-09
4.39632e-06
7.42339e-09
4.3888e-06
7.51667e-09
4.38119e-06
7.60796e-09
4.37349e-06
7.69756e-09
4.36571e-06
7.78568e-09
4.35784e-06
7.87267e-09
4.34988e-06
7.95866e-09
4.34183e-06
8.04395e-09
4.3337e-06
8.12882e-09
4.32549e-06
8.21359e-09
4.31719e-06
8.2986e-09
4.30881e-06
8.38424e-09
4.30034e-06
8.47088e-09
4.29178e-06
8.55896e-09
4.28313e-06
8.64914e-09
4.27439e-06
8.74214e-09
4.26555e-06
8.83876e-09
4.25661e-06
8.9401e-09
4.24756e-06
9.04763e-09
4.2384e-06
9.16278e-09
4.22911e-06
9.28832e-09
4.21968e-06
9.42557e-09
4.2101e-06
9.58071e-09
4.20035e-06
9.75354e-09
4.19039e-06
9.95749e-09
4.1802e-06
1.01893e-08
4.16973e-06
1.04714e-08
4.15892e-06
1.08086e-08
4.14771e-06
1.12082e-08
4.13596e-06
1.17516e-08
4.12365e-06
1.231e-08
4.11036e-06
1.32885e-08
4.09635e-06
1.40162e-08
4.08036e-06
1.59923e-08
4.06363e-06
1.67276e-08
4.04243e-06
2.11989e-08
4.02124e-06
2.11871e-08
3.9888e-06
3.24384e-08
3.95965e-06
2.91538e-08
3.89812e-06
6.15313e-08
3.84777e-06
5.03518e-08
3.67803e-06
1.69737e-07
1.81222e-07
3.49681e-06
-1.5581e-07
2.45077e-07
-3.27834e-07
2.74326e-07
-5.00274e-07
2.79008e-07
-6.74494e-07
2.87647e-07
-8.50263e-07
2.9731e-07
-1.02764e-06
3.07961e-07
-1.20657e-06
3.19e-07
-1.38709e-06
3.30158e-07
-1.56931e-06
3.41216e-07
-1.75333e-06
3.51988e-07
-1.93919e-06
3.62311e-07
-2.12691e-06
3.72041e-07
-2.31636e-06
3.81042e-07
-2.50728e-06
3.89149e-07
-2.6994e-06
3.96112e-07
-2.89249e-06
4.01613e-07
-3.08601e-06
4.05335e-07
-3.27918e-06
4.06925e-07
-3.47099e-06
4.05989e-07
-3.66021e-06
4.021e-07
-3.84539e-06
3.94804e-07
-4.02482e-06
3.83625e-07
-4.19658e-06
3.68101e-07
-4.35849e-06
3.47803e-07
-4.50822e-06
3.22361e-07
-4.64323e-06
2.91505e-07
-4.76093e-06
2.55104e-07
-4.85872e-06
2.13206e-07
-4.93414e-06
1.66071e-07
-4.98492e-06
1.14183e-07
-5.00911e-06
5.82854e-08
-5.00505e-06
-6.57165e-10
-4.96888e-06
-6.47093e-08
-4.90034e-06
-1.28926e-07
-4.79936e-06
-1.92889e-07
-4.66657e-06
-2.55366e-07
-4.50336e-06
-3.15156e-07
-4.31169e-06
-3.71192e-07
-4.09397e-06
-4.22579e-07
-3.85302e-06
-4.68618e-07
-3.59186e-06
-5.08812e-07
-3.31367e-06
-5.42854e-07
-3.02168e-06
-5.70614e-07
-2.71903e-06
-5.92195e-07
-2.40879e-06
-6.07764e-07
-2.09375e-06
-6.17685e-07
-1.7767e-06
-6.22196e-07
-1.45995e-06
-6.22141e-07
-1.14581e-06
-6.17377e-07
-8.35682e-07
-6.09465e-07
-5.31898e-07
-5.97813e-07
-2.34648e-07
-5.83987e-07
5.41635e-08
-5.67475e-07
3.33619e-07
-5.49743e-07
6.03565e-07
-5.30548e-07
8.63476e-07
-5.10401e-07
1.11305e-06
-4.89646e-07
1.35212e-06
-4.68558e-07
1.58066e-06
-4.47371e-07
1.79873e-06
-4.26276e-07
2.00646e-06
-4.0543e-07
2.20404e-06
-3.84959e-07
2.39172e-06
-3.64963e-07
2.56978e-06
-3.4552e-07
2.73851e-06
-3.26688e-07
2.89824e-06
-3.08509e-07
3.04931e-06
-2.91011e-07
3.19205e-06
-2.74212e-07
3.32681e-06
-2.58119e-07
3.45394e-06
-2.42734e-07
3.57377e-06
-2.2805e-07
3.68664e-06
-2.14057e-07
3.79287e-06
-2.00742e-07
3.89278e-06
-1.88088e-07
3.98667e-06
-1.76076e-07
4.07486e-06
-1.64687e-07
4.15762e-06
-1.53897e-07
4.23522e-06
-1.43686e-07
4.30795e-06
-1.34031e-07
4.37604e-06
-1.24909e-07
4.43975e-06
-1.16296e-07
4.4993e-06
-1.08171e-07
4.55492e-06
-1.00512e-07
4.60682e-06
-9.32949e-08
4.65521e-06
-8.65001e-08
4.70027e-06
-8.01061e-08
4.74219e-06
-7.40927e-08
4.78116e-06
-6.844e-08
4.81732e-06
-6.31291e-08
4.85084e-06
-5.81414e-08
4.88188e-06
-5.34594e-08
4.91057e-06
-4.90659e-08
4.93704e-06
-4.49448e-08
4.96144e-06
-4.10805e-08
4.98387e-06
-3.74579e-08
5.00445e-06
-3.40626e-08
5.0233e-06
-3.08817e-08
5.0405e-06
-2.79018e-08
5.05617e-06
-2.51099e-08
5.0704e-06
-2.24959e-08
5.08326e-06
-2.00488e-08
5.09484e-06
-1.77559e-08
5.10522e-06
-1.56089e-08
5.11447e-06
-1.36006e-08
5.12266e-06
-1.17188e-08
5.12985e-06
-9.95451e-09
5.1361e-06
-8.30303e-09
5.14149e-06
-6.75588e-09
5.14604e-06
-5.30564e-09
5.14982e-06
-3.9478e-09
5.15293e-06
-2.66508e-09
5.15543e-06
-1.45305e-09
5.15734e-06
-3.07189e-10
5.15871e-06
7.51968e-10
5.15958e-06
1.76917e-09
5.15999e-06
2.73133e-09
5.15999e-06
3.637e-09
5.15961e-06
4.48113e-09
5.15889e-06
5.25075e-09
5.15782e-06
5.94247e-09
5.15641e-06
6.56386e-09
5.15468e-06
7.1293e-09
5.1526e-06
7.65469e-09
5.1502e-06
8.15312e-09
5.14747e-06
8.63242e-09
5.14442e-06
9.0956e-09
5.14106e-06
9.54258e-09
5.13741e-06
9.97234e-09
5.13347e-06
1.03837e-08
5.12926e-06
1.07763e-08
5.1248e-06
1.11502e-08
5.1201e-06
1.15061e-08
5.11518e-06
1.18448e-08
5.11003e-06
1.21676e-08
5.10469e-06
1.24753e-08
5.09915e-06
1.27691e-08
5.09343e-06
1.30502e-08
5.08753e-06
1.33194e-08
5.08147e-06
1.35778e-08
5.07525e-06
1.38262e-08
5.06888e-06
1.40656e-08
5.06237e-06
1.42968e-08
5.05572e-06
1.45208e-08
5.04894e-06
1.47381e-08
5.04204e-06
1.49498e-08
5.03501e-06
1.51566e-08
5.02786e-06
1.53594e-08
5.0206e-06
1.55589e-08
5.01323e-06
1.57561e-08
5.00575e-06
1.5952e-08
4.99816e-06
1.61477e-08
4.99047e-06
1.63445e-08
4.98267e-06
1.65437e-08
4.97476e-06
1.67471e-08
4.96674e-06
1.69568e-08
4.95861e-06
1.71751e-08
4.95037e-06
1.74055e-08
4.94201e-06
1.76511e-08
4.93352e-06
1.79182e-08
4.92489e-06
1.82104e-08
4.9161e-06
1.85406e-08
4.90715e-06
1.8909e-08
4.89799e-06
1.93485e-08
4.88862e-06
1.98381e-08
4.87896e-06
2.04732e-08
4.86902e-06
2.11489e-08
4.85862e-06
2.21493e-08
4.84783e-06
2.30988e-08
4.8363e-06
2.48202e-08
4.82418e-06
2.61329e-08
4.81079e-06
2.93873e-08
4.79644e-06
3.10709e-08
4.77982e-06
3.78214e-08
4.76138e-06
3.96287e-08
4.73867e-06
5.51448e-08
4.71135e-06
5.64741e-08
4.67513e-06
9.77542e-08
4.62262e-06
1.02856e-07
4.56055e-06
2.31808e-07
2.73395e-07
4.46838e-06
-1.58843e-07
4.0392e-07
-3.33581e-07
4.49064e-07
-5.07215e-07
4.52642e-07
-6.80525e-07
4.60956e-07
-8.53211e-07
4.69996e-07
-1.02538e-06
4.80128e-07
-1.19747e-06
4.91093e-07
-1.37016e-06
5.02847e-07
-1.54402e-06
5.15079e-07
-1.71965e-06
5.27617e-07
-1.89764e-06
5.40294e-07
-2.0785e-06
5.52904e-07
-2.26263e-06
5.6517e-07
-2.45022e-06
5.76747e-07
-2.64133e-06
5.87215e-07
-2.83579e-06
5.96076e-07
-3.03324e-06
6.02786e-07
-3.23305e-06
6.06736e-07
-3.43432e-06
6.07257e-07
-3.63583e-06
6.03611e-07
-3.83601e-06
5.94987e-07
-4.03292e-06
5.80534e-07
-4.22422e-06
5.59402e-07
-4.40721e-06
5.30786e-07
-4.57883e-06
4.93981e-07
-4.73577e-06
4.48447e-07
-4.87454e-06
3.93875e-07
-4.99159e-06
3.30257e-07
-5.08347e-06
2.57953e-07
-5.14703e-06
1.77742e-07
-5.17967e-06
9.09295e-08
-5.17968e-06
-6.50467e-10
-5.14345e-06
-1.00938e-07
-5.07112e-06
-2.01257e-07
-4.96314e-06
-3.00875e-07
-4.82065e-06
-3.97848e-07
-4.64553e-06
-4.90276e-07
-4.44026e-06
-5.7647e-07
-4.2078e-06
-6.5504e-07
-3.95148e-06
-7.24935e-07
-3.67484e-06
-7.8545e-07
-3.38148e-06
-8.36212e-07
-3.07499e-06
-8.77109e-07
-2.75889e-06
-9.08295e-07
-2.43644e-06
-9.30217e-07
-2.11067e-06
-9.43454e-07
-1.78422e-06
-9.48638e-07
-1.45977e-06
-9.46599e-07
-1.13886e-06
-9.3828e-07
-8.24161e-07
-9.24168e-07
-5.16296e-07
-9.05678e-07
-2.16937e-07
-8.83347e-07
7.32074e-08
-8.57619e-07
3.53394e-07
-8.29929e-07
6.23227e-07
-8.00381e-07
8.824e-07
-7.69575e-07
1.13075e-06
-7.37994e-07
1.36823e-06
-7.06043e-07
1.59492e-06
-6.74054e-07
1.81094e-06
-6.42299e-07
2.01651e-06
-6.11e-07
2.21188e-06
-5.80333e-07
2.39736e-06
-5.50436e-07
2.57325e-06
-5.21414e-07
2.7399e-06
-4.93342e-07
2.89767e-06
-4.66274e-07
3.0469e-06
-4.40245e-07
3.18796e-06
-4.15273e-07
3.32121e-06
-3.91365e-07
3.44699e-06
-3.68516e-07
3.56565e-06
-3.46713e-07
3.67754e-06
-3.25938e-07
3.78296e-06
-3.06167e-07
3.88225e-06
-2.87373e-07
3.9757e-06
-2.69525e-07
4.0636e-06
-2.52592e-07
4.14624e-06
-2.36539e-07
4.22389e-06
-2.21333e-07
4.2968e-06
-2.06939e-07
4.36521e-06
-1.93323e-07
4.42937e-06
-1.80451e-07
4.48949e-06
-1.68289e-07
4.54578e-06
-1.56805e-07
4.59845e-06
-1.45965e-07
4.64769e-06
-1.35739e-07
4.69368e-06
-1.26096e-07
4.73659e-06
-1.17008e-07
4.7766e-06
-1.08445e-07
4.81385e-06
-1.00381e-07
4.8485e-06
-9.27891e-08
4.88068e-06
-8.56442e-08
4.91054e-06
-7.89222e-08
4.93819e-06
-7.26003e-08
4.96377e-06
-6.66563e-08
4.98738e-06
-6.1069e-08
5.00914e-06
-5.58183e-08
5.02914e-06
-5.08856e-08
5.04749e-06
-4.6252e-08
5.06428e-06
-4.18999e-08
5.0796e-06
-3.78141e-08
5.09353e-06
-3.39787e-08
5.10615e-06
-3.0377e-08
5.11754e-06
-2.69966e-08
5.12776e-06
-2.38255e-08
5.13689e-06
-2.08488e-08
5.14499e-06
-1.80541e-08
5.15212e-06
-1.54307e-08
5.15833e-06
-1.29699e-08
5.16369e-06
-1.06591e-08
5.16823e-06
-8.48581e-09
5.172e-06
-6.43922e-09
5.17506e-06
-4.51307e-09
5.17746e-06
-2.71048e-09
5.17924e-06
-1.02911e-09
5.18045e-06
5.6332e-10
5.18111e-06
2.06639e-09
5.18127e-06
3.47889e-09
5.18096e-06
4.79656e-09
5.1802e-06
6.01283e-09
5.17901e-06
7.13067e-09
5.17741e-06
8.15982e-09
5.17543e-06
9.11457e-09
5.17307e-06
1.00096e-08
5.17037e-06
1.08571e-08
5.16734e-06
1.16643e-08
5.164e-06
1.24353e-08
5.16037e-06
1.31712e-08
5.15647e-06
1.38724e-08
5.15231e-06
1.45395e-08
5.14791e-06
1.51734e-08
5.14329e-06
1.57753e-08
5.13845e-06
1.63468e-08
5.1334e-06
1.68898e-08
5.12816e-06
1.7406e-08
5.12274e-06
1.78972e-08
5.11715e-06
1.83653e-08
5.11138e-06
1.8812e-08
5.10547e-06
1.92388e-08
5.0994e-06
1.96473e-08
5.09318e-06
2.00391e-08
5.08683e-06
2.04155e-08
5.08035e-06
2.0778e-08
5.07375e-06
2.11278e-08
5.06702e-06
2.14663e-08
5.06017e-06
2.17949e-08
5.05321e-06
2.21147e-08
5.04615e-06
2.2427e-08
5.03897e-06
2.27333e-08
5.03169e-06
2.30349e-08
5.02431e-06
2.33333e-08
5.01683e-06
2.36301e-08
5.00925e-06
2.39272e-08
5.00156e-06
2.42269e-08
4.99378e-06
2.45314e-08
4.98589e-06
2.48439e-08
4.9779e-06
2.51677e-08
4.9698e-06
2.5508e-08
4.96158e-06
2.58688e-08
4.95324e-06
2.62599e-08
4.94476e-06
2.66846e-08
4.93614e-06
2.71644e-08
4.92735e-06
2.76942e-08
4.91837e-06
2.83286e-08
4.90919e-06
2.90271e-08
4.89972e-06
2.99347e-08
4.88997e-06
3.08999e-08
4.87982e-06
3.23026e-08
4.86923e-06
3.36883e-08
4.85803e-06
3.60215e-08
4.8461e-06
3.80591e-08
4.83324e-06
4.22514e-08
4.81902e-06
4.52858e-08
4.80341e-06
5.34383e-08
4.78486e-06
5.8178e-08
4.76446e-06
7.55456e-08
4.73653e-06
8.44021e-08
4.70808e-06
1.26208e-07
4.66064e-06
1.50291e-07
4.62957e-06
2.62881e-07
3.47034e-07
4.55593e-06
-1.45837e-07
5.49757e-07
-3.07966e-07
6.11193e-07
-4.69761e-07
6.14437e-07
-6.32101e-07
6.23297e-07
-7.95076e-07
6.32971e-07
-9.59337e-07
6.44389e-07
-1.12534e-06
6.57093e-07
-1.29352e-06
6.71034e-07
-1.46467e-06
6.86225e-07
-1.63966e-06
7.02607e-07
-1.81919e-06
7.1982e-07
-2.00368e-06
7.374e-07
-2.1934e-06
7.54887e-07
-2.38848e-06
7.71826e-07
-2.58899e-06
7.87728e-07
-2.7949e-06
8.01982e-07
-3.00592e-06
8.13808e-07
-3.22146e-06
8.2228e-07
-3.44055e-06
8.26347e-07
-3.6618e-06
8.24856e-07
-3.88339e-06
8.1658e-07
-4.10311e-06
8.00253e-07
-4.3183e-06
7.74588e-07
-4.52583e-06
7.38324e-07
-4.72215e-06
6.903e-07
-4.90328e-06
6.29575e-07
-5.06496e-06
5.55551e-07
-5.20279e-06
4.68093e-07
-5.31247e-06
3.67627e-07
-5.38997e-06
2.55251e-07
-5.43195e-06
1.3291e-07
-5.43705e-06
4.44415e-09
-5.39983e-06
-1.38161e-07
-5.32114e-06
-2.79947e-07
-5.20165e-06
-4.20359e-07
-5.04313e-06
-5.5637e-07
-4.84823e-06
-6.8518e-07
-4.62033e-06
-8.04364e-07
-4.36338e-06
-9.11996e-07
-4.0816e-06
-1.00671e-06
-3.77935e-06
-1.08769e-06
-3.461e-06
-1.15457e-06
-3.13072e-06
-1.20739e-06
-2.79242e-06
-1.24659e-06
-2.44974e-06
-1.2729e-06
-2.10595e-06
-1.28724e-06
-1.76387e-06
-1.29072e-06
-1.42596e-06
-1.28451e-06
-1.09449e-06
-1.26976e-06
-7.70636e-07
-1.24802e-06
-4.55897e-07
-1.22042e-06
-1.51663e-07
-1.18758e-06
1.4211e-07
-1.15139e-06
4.24595e-07
-1.11241e-06
6.95559e-07
-1.07134e-06
9.54897e-07
-1.02891e-06
1.20263e-06
-9.85725e-07
1.43887e-06
-9.42287e-07
1.66383e-06
-8.99009e-07
1.87775e-06
-8.56224e-07
2.08095e-06
-8.14199e-07
2.27376e-06
-7.73142e-07
2.45654e-06
-7.33214e-07
2.62966e-06
-6.94535e-07
2.79351e-06
-6.57189e-07
2.94847e-06
-6.21233e-07
3.09492e-06
-5.867e-07
3.23325e-06
-5.53605e-07
3.36383e-06
-5.21946e-07
3.48703e-06
-4.91711e-07
3.60319e-06
-4.62876e-07
3.71267e-06
-4.35412e-07
3.81578e-06
-4.09284e-07
3.91286e-06
-3.8445e-07
4.0042e-06
-3.60868e-07
4.0901e-06
-3.38493e-07
4.17084e-06
-3.1728e-07
4.24669e-06
-2.97181e-07
4.3179e-06
-2.78149e-07
4.38472e-06
-2.60139e-07
4.44737e-06
-2.43103e-07
4.50608e-06
-2.26998e-07
4.56105e-06
-2.11779e-07
4.61249e-06
-1.97404e-07
4.66058e-06
-1.83832e-07
4.70551e-06
-1.71022e-07
4.74744e-06
-1.58936e-07
4.78653e-06
-1.47538e-07
4.82294e-06
-1.36791e-07
4.85681e-06
-1.26661e-07
4.88828e-06
-1.17116e-07
4.91749e-06
-1.08125e-07
4.94455e-06
-9.96583e-08
4.96958e-06
-9.16868e-08
4.99269e-06
-8.41837e-08
5.014e-06
-7.71229e-08
5.03359e-06
-7.04801e-08
5.05157e-06
-6.42318e-08
5.06803e-06
-5.83556e-08
5.08304e-06
-5.28305e-08
5.0967e-06
-4.76368e-08
5.10908e-06
-4.27546e-08
5.12025e-06
-3.81661e-08
5.13028e-06
-3.38549e-08
5.13923e-06
-2.98039e-08
5.14717e-06
-2.5997e-08
5.15416e-06
-2.24203e-08
5.16026e-06
-1.90612e-08
5.1655e-06
-1.59024e-08
5.16994e-06
-1.29311e-08
5.17365e-06
-1.01409e-08
5.17666e-06
-7.52237e-09
5.17901e-06
-5.06171e-09
5.18072e-06
-2.74694e-09
5.18185e-06
-5.57683e-10
5.18243e-06
1.48068e-09
5.18251e-06
3.40246e-09
5.18211e-06
5.19783e-09
5.18125e-06
6.87283e-09
5.17995e-06
8.4309e-09
5.17823e-06
9.88032e-09
5.17611e-06
1.12329e-08
5.17362e-06
1.25009e-08
5.17078e-06
1.36955e-08
5.16762e-06
1.48254e-08
5.16415e-06
1.58966e-08
5.16041e-06
1.69132e-08
5.15641e-06
1.78779e-08
5.15215e-06