/*--------------------------------*- C++ -*----------------------------------*\
  =========                 |
  \\      /  F ield         | OpenFOAM: The Open Source CFD Toolbox
   \\    /   O peration     | Website:  https://openfoam.org
    \\  /    A nd           | Version:  9
     \\/     M anipulation  |
\*---------------------------------------------------------------------------*/
FoamFile
{
    format      ascii;
    class       volScalarField;
    location    "0.008";
    object      pMean;
}
// * * * * * * * * * * * * * * * * * * * * * * * * * * * * * * * * * * * * * //

dimensions      [0 2 -2 0 0 0 0];

internalField   nonuniform List<scalar> 
12225
(
-0.198778
-0.890752
-1.30112
-1.51196
-1.67582
-1.85413
-2.05739
-2.28097
-2.51798
-2.76916
-3.03636
-3.32791
-3.6471
-4.00823
-4.41776
-4.91253
-5.5207
-6.37978
-0.392894
-0.917138
-1.29996
-1.51862
-1.68435
-1.86004
-2.06094
-2.28195
-2.51742
-2.76568
-3.03228
-3.31921
-3.63983
-3.9906
-4.40559
-4.86526
-5.46394
-6.1185
-0.483812
-0.925402
-1.28673
-1.51924
-1.68913
-1.86135
-2.05836
-2.27724
-2.51012
-2.75656
-3.01895
-3.30388
-3.61627
-3.96459
-4.35772
-4.80725
-5.32636
-5.89564
-0.742202
-0.971497
-1.283
-1.52463
-1.69928
-1.86719
-2.0591
-2.27334
-2.50301
-2.74474
-3.00338
-3.28208
-3.58878
-3.92636
-4.30476
-4.72539
-5.18937
-5.68233
-0.835802
-1.00224
-1.27911
-1.52059
-1.70013
-1.86678
-2.05402
-2.26447
-2.4905
-2.72876
-2.98204
-3.25468
-3.55188
-3.87709
-4.23499
-4.62549
-5.04397
-5.4757
-0.859041
-1.04558
-1.29452
-1.52224
-1.70356
-1.86994
-2.05173
-2.25522
-2.47538
-2.70817
-2.9551
-3.21999
-3.50666
-3.81775
-4.15437
-4.51518
-4.89411
-5.27955
-0.949579
-1.0949
-1.30906
-1.51864
-1.69809
-1.86514
-2.04346
-2.24107
-2.45484
-2.68103
-2.92036
-3.17578
-3.44978
-3.7441
-4.05874
-4.39144
-4.7358
-5.08317
-0.966783
-1.12321
-1.32326
-1.51928
-1.69421
-1.86087
-2.03524
-2.22528
-2.43128
-2.65013
-2.88069
-3.1248
-3.38483
-3.6616
-3.95381
-4.25913
-4.57248
-4.88733
-1.0492
-1.17078
-1.34298
-1.51946
-1.68709
-1.84977
-2.01879
-2.20208
-2.39934
-2.60795
-2.8276
-3.05955
-3.30435
-3.56213
-3.83196
-4.11138
-4.39638
-4.68263
-1.11342
-1.20542
-1.34919
-1.5159
-1.67983
-1.83883
-2.00217
-2.17679
-2.36368
-2.56172
-2.77042
-2.98926
-3.21831
-3.45671
-3.70382
-3.95738
-4.21497
-4.47239
-1.17738
-1.23253
-1.36147
-1.51951
-1.67311
-1.82074
-1.97449
-2.14097
-2.319
-2.50581
-2.70076
-2.90394
-3.11493
-3.33331
-3.55822
-3.78758
-4.01904
-4.25022
-1.20406
-1.24601
-1.36925
-1.51351
-1.65778
-1.80114
-1.94968
-2.1074
-2.27427
-2.44902
-2.63139
-2.82049
-3.01519
-3.21468
-3.41814
-3.62424
-3.83135
-4.0373
-1.17129
-1.27053
-1.38454
-1.51027
-1.64342
-1.77595
-1.91352
-2.06155
-2.21799
-2.38024
-2.54793
-2.72121
-2.89905
-3.08003
-3.26317
-3.44706
-3.63098
-3.81308
-1.05717
-1.23769
-1.38382
-1.50351
-1.62191
-1.74373
-1.87245
-2.01027
-2.15434
-2.30187
-2.45287
-2.60735
-2.76447
-2.92303
-3.08184
-3.23995
-3.39617
-3.54919
-1.21571
-1.30353
-1.39096
-1.48561
-1.59111
-1.69764
-1.81038
-1.93201
-2.0585
-2.18718
-2.3178
-2.45011
-2.58319
-2.71587
-2.84734
-2.97663
-3.10276
-3.22453
-1.21473
-1.29122
-1.37186
-1.46307
-1.55442
-1.64284
-1.73664
-1.8398
-1.94866
-2.05758
-2.16515
-2.27134
-2.37585
-2.47785
-2.57694
-2.67203
-2.76226
-2.8464
-1.2418
-1.28411
-1.34698
-1.41405
-1.47714
-1.54192
-1.61702
-1.70078
-1.78559
-1.86827
-1.94796
-2.02449
-2.09772
-2.16765
-2.2334
-2.29377
-2.34793
-2.39537
-1.50406
-1.40343
-1.35349
-1.35593
-1.39226
-1.44312
-1.49917
-1.55512
-1.60877
-1.65953
-1.70705
-1.75041
-1.78907
-1.82245
-1.84986
-1.8704
-1.88337
-1.88841
-1.03848
-1.11773
-1.17402
-1.20409
-1.23494
-1.26949
-1.3036
-1.33541
-1.36398
-1.38782
-1.40534
-1.41578
-1.4192
-1.41577
-1.40535
-1.3875
-1.36209
-1.32902
-1.05783
-1.06242
-1.06712
-1.08164
-1.10279
-1.12673
-1.14856
-1.16376
-1.17109
-1.17091
-1.16329
-1.148
-1.12504
-1.09443
-1.05621
-1.01019
-0.956484
-0.895092
-1.10964
-1.04298
-1.00109
-0.998645
-1.01951
-1.03593
-1.0404
-1.03665
-1.02727
-1.01159
-0.988094
-0.956199
-0.915959
-0.867629
-0.811351
-0.747336
-0.675789
-0.597176
-0.896503
-0.872892
-0.868521
-0.888011
-0.916458
-0.934248
-0.937531
-0.930281
-0.914942
-0.891507
-0.858604
-0.815623
-0.763152
-0.702147
-0.633064
-0.556269
-0.471926
-0.380798
-0.695049
-0.800975
-0.854435
-0.864549
-0.870229
-0.875866
-0.873311
-0.859371
-0.835654
-0.803089
-0.760895
-0.708449
-0.646396
-0.575725
-0.496921
-0.410205
-0.315973
-0.214793
-0.467085
-0.623214
-0.740573
-0.793119
-0.808574
-0.809585
-0.803715
-0.790104
-0.766292
-0.731071
-0.684032
-0.625731
-0.557457
-0.480414
-0.395111
-0.301933
-0.201317
-0.0941038
-0.65796
-0.663042
-0.71217
-0.764027
-0.789096
-0.787399
-0.773148
-0.753288
-0.725666
-0.686795
-0.635351
-0.571933
-0.498074
-0.415247
-0.324189
-0.225399
-0.119218
-0.00649626
-0.41239
-0.53978
-0.653106
-0.725974
-0.754361
-0.750655
-0.734465
-0.713924
-0.685747
-0.645275
-0.591181
-0.524595
-0.447321
-0.360904
-0.26622
-0.163791
-0.0540627
0.062299
-0.422626
-0.52106
-0.643277
-0.718048
-0.741449
-0.733711
-0.715877
-0.694983
-0.666075
-0.623899
-0.567405
-0.498046
-0.417729
-0.32806
-0.230069
-0.124392
-0.0115137
0.107871
-0.331473
-0.481498
-0.623906
-0.702514
-0.723947
-0.714996
-0.697722
-0.677204
-0.647713
-0.604182
-0.546135
-0.475097
-0.392839
-0.301045
-0.200935
-0.093204
0.0216867
0.14293
-0.273973
-0.457145
-0.617935
-0.696975
-0.713672
-0.703463
-0.687317
-0.667682
-0.638053
-0.593839
-0.534904
-0.46269
-0.378892
-0.28521
-0.183109
-0.0732434
0.0437691
0.167567
-0.140348
-0.431477
-0.618651
-0.693032
-0.705579
-0.694926
-0.679545
-0.660369
-0.630606
-0.585784
-0.525836
-0.452295
-0.367052
-0.272005
-0.168863
-0.0581754
0.0594916
0.184578
-4.25472
-4.25687
-4.26018
-4.26404
-4.26839
-4.27269
-4.27641
-4.27878
-4.27888
-4.27558
-4.26749
-4.25302
-4.23027
-4.19695
-4.15025
-4.08713
-4.00417
-3.89758
-3.76321
-3.59679
-3.39369
-3.14931
-2.859
-2.5184
-2.12347
-1.67081
-1.15786
-0.582972
0.0541657
0.752588
1.50977
2.32195
3.18343
4.08698
5.02394
5.98482
6.95962
7.93816
8.91042
9.86687
10.7987
11.6982
12.5587
13.3748
14.1425
14.8588
15.5221
16.1317
16.688
17.1918
17.6449
18.0497
18.4087
18.7247
19.001
19.2406
19.4464
19.6215
19.7686
19.8907
19.9903
20.0698
20.1315
20.1775
20.2097
20.2298
20.2395
20.24
20.2328
20.2189
20.1994
20.1751
20.1469
20.1155
20.0814
20.0453
20.0077
19.9689
19.9293
19.8892
19.849
19.8087
19.7687
19.729
19.6898
19.6513
19.6136
19.5766
19.5404
19.5052
19.4709
19.4375
19.4051
19.3737
19.3433
19.3137
19.2852
19.2575
19.2308
19.2049
19.1799
19.1556
19.1322
19.1096
19.0876
19.0664
19.0458
19.0259
19.0065
18.9878
18.9695
18.9517
18.9344
18.9176
18.9011
18.885
18.8693
18.854
18.839
18.8242
18.8098
18.7956
18.7817
18.768
18.7545
18.7411
18.728
18.715
18.7021
18.6893
18.6766
18.664
18.6515
18.6391
18.6267
18.6144
18.6021
18.5898
18.5776
18.5653
18.5531
18.5408
18.5286
18.5163
18.504
18.4917
18.4794
18.4671
18.4547
18.4423
18.4298
18.4174
18.4049
18.3925
18.38
18.3676
18.3553
18.343
18.3309
18.3189
18.3073
18.2959
18.285
18.2748
18.2653
18.257
18.25
18.245
18.2423
18.2431
18.248
18.2594
18.278
18.3097
18.355
18.4294
18.5334
18.7149
18.9756
19.4662
-4.32031
-4.32326
-4.32893
-4.33636
-4.3454
-4.35538
-4.36564
-4.37531
-4.38333
-4.38843
-4.38903
-4.38336
-4.36937
-4.34465
-4.30665
-4.25228
-4.17806
-4.08013
-3.95413
-3.79561
-3.59985
-3.36189
-3.07692
-2.74011
-2.3473
-1.89493
-1.3802
-0.801411
-0.158238
0.548254
1.31531
2.13859
3.01208
3.92825
4.87829
5.8526
6.84087
7.83262
8.81754
9.78584
10.7286
11.6378
12.507
13.3305
14.1047
14.8263
15.4939
16.1071
16.6662
17.1721
17.6272
18.0331
18.3931
18.7101
18.9871
19.2272
19.4334
19.6088
19.7563
19.8787
19.9786
20.0584
20.1204
20.1668
20.1993
20.2198
20.2298
20.2307
20.2238
20.2102
20.191
20.1671
20.1392
20.1081
20.0744
20.0387
20.0013
19.9628
19.9235
19.8838
19.8437
19.8037
19.764
19.7245
19.6856
19.6473
19.6098
19.573
19.537
19.502
19.4679
19.4347
19.4024
19.3712
19.3409
19.3115
19.283
19.2555
19.2288
19.2031
19.1781
19.154
19.1306
19.1081
19.0862
19.065
19.0445
19.0246
19.0052
18.9865
18.9683
18.9506
18.9333
18.9165
18.9001
18.8842
18.8685
18.8532
18.8383
18.8236
18.8092
18.795
18.7811
18.7675
18.754
18.7407
18.7275
18.7145
18.7017
18.6889
18.6763
18.6637
18.6512
18.6388
18.6264
18.6141
18.6018
18.5895
18.5773
18.565
18.5528
18.5406
18.5283
18.5161
18.5038
18.4915
18.4792
18.4668
18.4544
18.442
18.4296
18.4172
18.4047
18.3922
18.3798
18.3674
18.355
18.3427
18.3306
18.3186
18.3069
18.2955
18.2846
18.2743
18.2647
18.2563
18.2492
18.2439
18.241
18.2414
18.246
18.2564
18.2747
18.3039
18.3487
18.4157
18.5166
18.6628
18.8732
19.1096
-4.54058
-4.54394
-4.55102
-4.56055
-4.57253
-4.5863
-4.60124
-4.61648
-4.63101
-4.64357
-4.65273
-4.65662
-4.65322
-4.64008
-4.61443
-4.57306
-4.51228
-4.42817
-4.31623
-4.17165
-3.98934
-3.76396
-3.49021
-3.16292
-2.77734
-2.32936
-1.81573
-1.23429
-0.584512
0.132557
0.914246
1.75607
2.65173
3.59288
4.56991
5.57227
6.58886
7.60843
8.62003
9.61331
10.579
11.5088
12.3961
13.2355
14.023
14.7558
15.4327
16.0535
16.6185
17.1294
17.5881
17.9971
18.3593
18.6782
18.9567
19.1979
19.4052
19.5815
19.7299
19.8531
19.9538
20.0344
20.0972
20.1444
20.1777
20.199
20.2098
20.2115
20.2054
20.1927
20.1743
20.1511
20.124
20.0936
20.0607
20.0256
19.9889
19.9511
19.9124
19.8732
19.8338
19.7944
19.7551
19.7162
19.6778
19.6399
19.6028
19.5664
19.5309
19.4962
19.4624
19.4296
19.3977
19.3667
19.3367
19.3076
19.2794
19.2521
19.2257
19.2001
19.1754
19.1514
19.1283
19.1059
19.0842
19.0631
19.0427
19.023
19.0038
18.9852
18.9671
18.9495
18.9323
18.9156
18.8993
18.8834
18.8678
18.8526
18.8376
18.823
18.8087
18.7946
18.7807
18.7671
18.7536
18.7403
18.7272
18.7143
18.7014
18.6887
18.676
18.6635
18.651
18.6386
18.6263
18.6139
18.6017
18.5894
18.5772
18.5649
18.5527
18.5405
18.5282
18.516
18.5037
18.4914
18.4791
18.4667
18.4544
18.442
18.4295
18.4171
18.4046
18.3921
18.3797
18.3672
18.3549
18.3426
18.3304
18.3184
18.3066
18.2951
18.2841
18.2737
18.264
18.2554
18.2481
18.2425
18.2392
18.239
18.243
18.2523
18.2692
18.2959
18.3375
18.3972
18.4862
18.6023
18.7625
18.9103
-4.88243
-4.88646
-4.89529
-4.90763
-4.92356
-4.94248
-4.96389
-4.987
-5.01088
-5.03438
-5.05614
-5.07443
-5.08719
-5.09201
-5.086
-5.06573
-5.02743
-4.96674
-4.87883
-4.75831
-4.59951
-4.39638
-4.14275
-3.83252
-3.46006
-3.02028
-2.50921
-1.92411
-1.26401
-0.529741
0.275759
1.14753
2.0787
3.05977
4.07989
5.12716
6.18912
7.25328
8.30761
9.3409
10.3431
11.3058
12.222
13.0864
13.8951
14.6457
15.3373
15.9699
16.5446
17.063
17.5278
17.9416
18.3074
18.6294
18.9103
19.1536
19.3627
19.5406
19.6904
19.815
19.917
19.9989
20.063
20.1115
20.1461
20.1687
20.1808
20.1837
20.1789
20.1674
20.1502
20.1282
20.1023
20.073
20.0411
20.0071
19.9714
19.9345
19.8968
19.8585
19.8199
19.7813
19.7428
19.7046
19.6668
19.6297
19.5932
19.5574
19.5224
19.4882
19.455
19.4226
19.3911
19.3606
19.3309
19.3022
19.2744
19.2474
19.2213
19.196
19.1716
19.1479
19.1249
19.1027
19.0812
19.0604
19.0402
19.0206
19.0016
18.9831
18.9651
18.9476
18.9306
18.914
18.8978
18.882
18.8665
18.8514
18.8366
18.822
18.8078
18.7937
18.7799
18.7664
18.753
18.7397
18.7267
18.7137
18.7009
18.6882
18.6756
18.6631
18.6506
18.6383
18.6259
18.6136
18.6014
18.5891
18.5769
18.5647
18.5525
18.5403
18.528
18.5158
18.5035
18.4912
18.4789
18.4666
18.4542
18.4418
18.4293
18.4169
18.4044
18.3919
18.3795
18.367
18.3546
18.3423
18.33
18.318
18.3061
18.2946
18.2834
18.2729
18.263
18.2541
18.2464
18.2404
18.2366
18.2357
18.2386
18.2464
18.2613
18.2848
18.3214
18.3725
18.446
18.5363
18.6494
18.7282
-5.34085
-5.3458
-5.35709
-5.37338
-5.39495
-5.42136
-5.45226
-5.48695
-5.52469
-5.56451
-5.60512
-5.64487
-5.68182
-5.71348
-5.73688
-5.74855
-5.74442
-5.71974
-5.66902
-5.58611
-5.46446
-5.29686
-5.07594
-4.79422
-4.44456
-4.02046
-3.51654
-2.92892
-2.25593
-1.49804
-0.658322
0.257538
1.24129
2.28172
3.36597
4.48009
5.60955
6.73992
7.8574
8.94956
10.0055
11.0161
11.9744
12.8749
13.7143
14.4906
15.2032
15.8529
16.4412
16.9705
17.4439
17.8643
18.2357
18.562
18.8465
19.0929
19.3045
19.4847
19.6367
19.7633
19.8672
19.951
20.017
20.0673
20.1037
20.1281
20.142
20.1467
20.1436
20.1338
20.1182
20.0979
20.0735
20.0457
20.0153
19.9827
19.9483
19.9127
19.8762
19.8391
19.8016
19.7641
19.7266
19.6894
19.6526
19.6163
19.5806
19.5456
19.5113
19.4779
19.4453
19.4135
19.3826
19.3526
19.3235
19.2953
19.2679
19.2414
19.2156
19.1908
19.1667
19.1433
19.1207
19.0988
19.0776
19.057
19.037
19.0177
18.9989
18.9806
18.9628
18.9455
18.9286
18.9122
18.8961
18.8804
18.8651
18.8501
18.8354
18.8209
18.8067
18.7928
18.7791
18.7655
18.7522
18.739
18.726
18.7131
18.7004
18.6877
18.6751
18.6627
18.6503
18.6379
18.6256
18.6133
18.6011
18.5889
18.5767
18.5645
18.5523
18.5401
18.5278
18.5156
18.5033
18.4911
18.4787
18.4664
18.454
18.4416
18.4292
18.4167
18.4042
18.3917
18.3792
18.3667
18.3543
18.3419
18.3296
18.3175
18.3055
18.2939
18.2826
18.2718
18.2617
18.2525
18.2444
18.2379
18.2333
18.2314
18.233
18.239
18.2513
18.2709
18.3015
18.343
18.4007
18.4661
18.5389
18.5688
-5.91132
-5.91782
-5.93295
-5.95534
-5.98547
-6.02301
-6.06782
-6.11951
-6.17751
-6.24102
-6.30891
-6.3798
-6.4518
-6.52262
-6.58923
-6.64799
-6.69443
-6.72328
-6.72834
-6.70263
-6.63824
-6.52638
-6.35769
-6.12246
-5.81116
-5.41489
-4.92602
-4.33887
-3.6504
-2.86076
-1.97355
-0.995739
0.0626695
1.18844
2.36567
3.57687
4.80404
6.02969
7.23761
8.41343
9.54524
10.6232
11.6402
12.591
13.4727
14.2842
15.0254
15.6984
16.3053
16.8492
17.3343
17.7638
18.1428
18.4751
18.7645
19.015
19.2303
19.4137
19.5686
19.6979
19.8045
19.8909
19.9593
20.012
20.0509
20.0776
20.0938
20.1008
20.0999
20.0922
20.0788
20.0604
20.038
20.0121
19.9835
19.9526
19.92
19.886
19.851
19.8154
19.7793
19.7431
19.7068
19.6708
19.6351
19.5999
19.5652
19.5312
19.4979
19.4653
19.4335
19.4025
19.3723
19.343
19.3145
19.2869
19.26
19.234
19.2088
19.1844
19.1607
19.1378
19.1156
19.094
19.0731
19.0529
19.0332
19.0141
18.9955
18.9775
18.9599
18.9428
18.9262
18.9099
18.894
18.8785
18.8633
18.8484
18.8338
18.8195
18.8054
18.7916
18.778
18.7645
18.7513
18.7382
18.7252
18.7124
18.6997
18.6871
18.6746
18.6621
18.6498
18.6374
18.6252
18.6129
18.6007
18.5885
18.5764
18.5642
18.552
18.5398
18.5276
18.5154
18.5031
18.4909
18.4785
18.4662
18.4538
18.4414
18.429
18.4165
18.404
18.3915
18.379
18.3664
18.3539
18.3415
18.3292
18.3169
18.3049
18.2931
18.2816
18.2706
18.2602
18.2505
18.242
18.2348
18.2294
18.2263
18.2263
18.2302
18.2394
18.2547
18.2785
18.3102
18.352
18.3954
18.4348
18.4329
-6.58802
-6.59688
-6.61766
-6.64902
-6.69162
-6.74535
-6.81038
-6.88654
-6.9735
-7.07079
-7.17771
-7.29319
-7.41548
-7.54241
-7.67114
-7.79803
-7.91841
-8.02659
-8.11551
-8.17658
-8.20005
-8.17465
-8.08819
-7.9277
-7.67999
-7.33242
-6.87388
-6.29576
-5.59285
-4.76388
-3.81205
-2.7454
-1.57718
-0.325959
0.986627
2.3378
3.70485
5.06618
6.40205
7.69576
8.93353
10.1048
11.2022
12.2215
13.1603
14.0188
14.7982
15.5018
16.133
16.6962
17.1963
17.6381
18.0268
18.367
18.663
18.919
19.139
19.3267
19.4854
19.6184
19.7284
19.8181
19.8897
19.9455
19.9874
20.017
20.0361
20.0459
20.0477
20.0427
20.0318
20.0159
19.9958
19.9723
19.9458
19.9171
19.8865
19.8544
19.8212
19.7873
19.7529
19.7183
19.6835
19.6489
19.6146
19.5806
19.5472
19.5143
19.482
19.4504
19.4196
19.3895
19.3602
19.3317
19.3039
19.277
19.2508
19.2254
19.2008
19.1769
19.1538
19.1313
19.1095
19.0884
19.0679
19.048
19.0287
19.0099
18.9917
18.9739
18.9566
18.9398
18.9233
18.9073
18.8916
18.8762
18.8612
18.8465
18.8321
18.8179
18.8039
18.7902
18.7767
18.7634
18.7502
18.7372
18.7243
18.7116
18.6989
18.6864
18.6739
18.6615
18.6492
18.6369
18.6247
18.6125
18.6003
18.5882
18.576
18.5639
18.5517
18.5395
18.5273
18.5151
18.5029
18.4906
18.4783
18.466
18.4536
18.4412
18.4287
18.4163
18.4037
18.3912
18.3787
18.3661
18.3536
18.3411
18.3286
18.3163
18.3041
18.2921
18.2804
18.2691
18.2584
18.2483
18.2392
18.2312
18.2248
18.2204
18.2187
18.2202
18.226
18.2366
18.2533
18.2753
18.3021
18.3262
18.339
18.3136
-7.36283
-7.37522
-7.40427
-7.44848
-7.50879
-7.58538
-7.67865
-7.78882
-7.91608
-8.06062
-8.22224
-8.40027
-8.59357
-8.80055
-9.01884
-9.24495
-9.47394
-9.69935
-9.91289
-10.1045
-10.2621
-10.3716
-10.4165
-10.3787
-10.2391
-9.97868
-9.57962
-9.02689
-8.31
-7.42497
-6.37626
-5.1778
-3.85233
-2.42373
-0.918413
0.634289
2.20397
3.76181
5.28192
6.74353
8.13041
9.43123
10.6392
11.7511
12.7664
13.6868
14.516
15.259
15.9213
16.5088
17.028
17.4853
17.8863
18.2365
18.5407
18.8038
19.0299
19.2231
19.3869
19.5244
19.6388
19.7326
19.8082
19.8678
19.9133
19.9466
19.969
19.9822
19.9872
19.9853
19.9775
19.9645
19.9472
19.9263
19.9025
19.8762
19.8479
19.818
19.787
19.7551
19.7226
19.6898
19.6568
19.6239
19.5911
19.5586
19.5265
19.4949
19.4639
19.4335
19.4037
19.3747
19.3463
19.3187
19.2918
19.2657
19.2403
19.2156
19.1917
19.1684
19.1458
19.1239
19.1027
19.082
19.062
19.0425
19.0236
19.0052
18.9873
18.9698
18.9528
18.9363
18.9201
18.9043
18.8888
18.8737
18.8589
18.8443
18.8301
18.816
18.8022
18.7886
18.7752
18.762
18.749
18.7361
18.7233
18.7106
18.698
18.6856
18.6732
18.6609
18.6486
18.6364
18.6242
18.612
18.5999
18.5877
18.5756
18.5635
18.5514
18.5392
18.5271
18.5149
18.5026
18.4904
18.4781
18.4657
18.4534
18.441
18.4285
18.416
18.4035
18.3909
18.3783
18.3657
18.3531
18.3406
18.328
18.3156
18.3032
18.2911
18.2791
18.2676
18.2564
18.2458
18.236
18.2273
18.2198
18.2139
18.2103
18.2092
18.2114
18.217
18.2267
18.2391
18.2524
18.2597
18.2515
18.2076
-8.22239
-8.23965
-8.28004
-8.34186
-8.42646
-8.53433
-8.66646
-8.82377
-9.00737
-9.21798
-9.45603
-9.72177
-10.0153
-10.3361
-10.6825
-11.0515
-11.4383
-11.8364
-12.2369
-12.6284
-12.996
-13.3204
-13.5781
-13.7416
-13.7806
-13.6642
-13.3632
-12.8538
-12.1208
-11.1609
-9.98307
-8.60578
-7.05473
-5.35997
-3.5622
-1.70655
0.162441
2.00493
3.78805
5.4865
7.08207
8.56311
9.92331
11.1613
12.2787
13.2808
14.1741
14.9672
15.668
16.2853
16.8279
17.304
17.72
18.0824
18.3969
18.6687
18.9025
19.1025
19.2725
19.4158
19.5355
19.6343
19.7147
19.7789
19.8288
19.8663
19.8928
19.9099
19.9187
19.9204
19.916
19.9064
19.8923
19.8745
19.8536
19.83
19.8044
19.7771
19.7485
19.7189
19.6886
19.6578
19.6268
19.5957
19.5646
19.5338
19.5033
19.4732
19.4435
19.4144
19.3859
19.358
19.3308
19.3042
19.2783
19.253
19.2285
19.2046
19.1814
19.1589
19.137
19.1157
19.095
19.0749
19.0554
19.0363
19.0179
18.9999
18.9823
18.9653
18.9486
18.9323
18.9165
18.9009
18.8857
18.8708
18.8562
18.8419
18.8278
18.814
18.8003
18.7869
18.7736
18.7605
18.7476
18.7348
18.7221
18.7095
18.6971
18.6847
18.6724
18.6601
18.6479
18.6357
18.6236
18.6115
18.5994
18.5873
18.5752
18.5631
18.551
18.5389
18.5267
18.5146
18.5023
18.4901
18.4778
18.4655
18.4531
18.4407
18.4282
18.4157
18.4032
18.3906
18.378
18.3653
18.3527
18.34
18.3274
18.3148
18.3023
18.2899
18.2777
18.2658
18.2542
18.2431
18.2327
18.223
18.2143
18.2069
18.2012
18.1974
18.1959
18.1966
18.1994
18.2027
18.2039
18.1966
18.1716
18.1133
-9.14674
-9.17105
-9.22741
-9.31355
-9.43138
-9.58206
-9.76751
-9.98951
-10.2499
-10.5506
-10.8936
-11.2813
-11.7159
-12.1982
-12.7279
-13.3032
-13.9208
-14.5762
-15.2614
-15.9631
-16.6605
-17.3241
-17.9156
-18.3905
-18.7007
-18.7986
-18.6414
-18.1947
-17.436
-16.3589
-14.9718
-13.2976
-11.3734
-9.26218
-7.03172
-4.74812
-2.47155
-0.25156
1.87401
3.87902
5.74566
7.46319
9.02543
10.4314
11.6845
12.7935
13.7695
14.6249
15.3729
16.026
16.5967
17.0943
17.5277
17.9045
18.2312
18.5135
18.7566
18.9648
19.1422
19.2924
19.4185
19.5234
19.6095
19.679
19.7341
19.7765
19.8077
19.8293
19.8424
19.8482
19.8478
19.8419
19.8314
19.817
19.7994
19.7789
19.7563
19.7318
19.7059
19.6788
19.6509
19.6224
19.5936
19.5645
19.5354
19.5064
19.4776
19.4492
19.4211
19.3934
19.3662
19.3396
19.3136
19.2881
19.2633
19.2391
19.2155
19.1925
19.1701
19.1483
19.1272
19.1066
19.0865
19.067
19.048
19.0296
19.0116
18.994
18.9769
18.9602
18.9439
18.928
18.9125
18.8972
18.8823
18.8677
18.8533
18.8392
18.8253
18.8117
18.7982
18.785
18.7719
18.7589
18.7461
18.7334
18.7209
18.7084
18.696
18.6837
18.6715
18.6593
18.6471
18.635
18.6229
18.6109
18.5988
18.5868
18.5747
18.5627
18.5506
18.5385
18.5264
18.5142
18.502
18.4898
18.4775
18.4652
18.4528
18.4404
18.428
18.4154
18.4029
18.3902
18.3776
18.3649
18.3522
18.3394
18.3267
18.314
18.3013
18.2887
18.2763
18.264
18.252
18.2403
18.229
18.2184
18.2085
18.1995
18.1917
18.1851
18.1798
18.1756
18.1719
18.1667
18.1571
18.1373
18.0987
18.0289
-10.1088
-10.1431
-10.221
-10.3396
-10.5022
-10.7105
-10.9676
-11.2765
-11.641
-12.0655
-12.555
-13.1144
-13.7476
-14.4576
-15.2477
-16.1219
-17.0833
-18.1315
-19.2568
-20.4362
-21.6318
-22.7918
-23.8547
-24.7519
-25.4118
-25.7644
-25.7492
-25.3182
-24.4404
-23.1059
-21.3333
-19.1742
-16.7085
-14.0274
-11.2244
-8.38864
-5.59784
-2.91464
-0.382721
1.97459
4.14943
6.13973
7.94251
9.5545
10.9776
12.2211
13.3003
14.2328
15.0375
15.7338
16.3361
16.858
17.3107
17.7035
18.0439
18.3384
18.5922
18.8102
18.9964
19.1547
19.2883
19.4002
19.4928
19.5686
19.6296
19.6775
19.7141
19.7407
19.7587
19.7691
19.773
19.7713
19.7648
19.7542
19.7401
19.7231
19.7038
19.6824
19.6594
19.6351
19.6099
19.5839
19.5574
19.5306
19.5036
19.4766
19.4497
19.423
19.3966
19.3705
19.3448
19.3196
19.2949
19.2707
19.247
19.2239
19.2013
19.1793
19.1578
19.1369
19.1165
19.0966
19.0773
19.0584
19.0401
19.0222
19.0047
18.9876
18.971
18.9548
18.9389
18.9233
18.9081
18.8932
18.8786
18.8643
18.8502
18.8363
18.8227
18.8092
18.7959
18.7829
18.7699
18.7571
18.7445
18.7319
18.7195
18.7071
18.6948
18.6826
18.6705
18.6584
18.6463
18.6343
18.6222
18.6102
18.5982
18.5862
18.5742
18.5622
18.5502
18.5381
18.526
18.5139
18.5017
18.4895
18.4772
18.4649
18.4526
18.4401
18.4277
18.4151
18.4025
18.3899
18.3772
18.3644
18.3516
18.3388
18.326
18.3131
18.3003
18.2874
18.2747
18.262
18.2495
18.2373
18.2253
18.2136
18.2025
18.1918
18.1818
18.1724
18.1635
18.1545
18.1446
18.1316
18.1126
18.082
18.0323
17.9534
-11.0699
-11.1183
-11.2262
-11.3889
-11.6118
-11.8976
-12.2515
-12.6789
-13.1871
-13.7835
-14.476
-15.2726
-16.1821
-17.216
-18.3884
-19.7131
-21.1976
-22.8345
-24.5961
-26.4333
-28.2786
-30.0504
-31.6598
-33.0149
-34.0269
-34.6147
-34.7034
-34.2272
-33.1401
-31.4325
-29.1448
-26.3644
-23.2095
-19.7855
-16.2184
-12.6364
-9.15601
-5.86704
-2.82956
-0.0678703
2.42902
4.68942
6.7329
8.56296
10.1762
11.5746
12.7733
13.7956
14.6674
15.4119
16.0495
16.5979
17.0713
17.4813
17.8367
18.1444
18.4103
18.6393
18.8357
19.0033
19.1455
19.2653
19.3654
19.4482
19.5158
19.57
19.6124
19.6446
19.6679
19.6834
19.6921
19.6949
19.6928
19.6863
19.6762
19.6629
19.6471
19.629
19.6092
19.588
19.5656
19.5423
19.5184
19.494
19.4693
19.4444
19.4196
19.3948
19.3702
19.3458
19.3218
19.2981
19.2747
19.2519
19.2295
19.2075
19.186
19.165
19.1446
19.1245
19.105
19.0859
19.0673
19.0492
19.0315
19.0142
18.9973
18.9808
18.9647
18.9489
18.9334
18.9183
18.9035
18.8889
18.8746
18.8606
18.8468
18.8332
18.8198
18.8065
18.7935
18.7806
18.7678
18.7552
18.7427
18.7303
18.718
18.7058
18.6936
18.6815
18.6694
18.6574
18.6454
18.6334
18.6215
18.6096
18.5976
18.5857
18.5737
18.5617
18.5497
18.5377
18.5256
18.5135
18.5014
18.4892
18.4769
18.4646
18.4523
18.4398
18.4273
18.4148
18.4022
18.3895
18.3768
18.364
18.3511
18.3382
18.3252
18.3122
18.2992
18.2861
18.2731
18.26
18.2471
18.2342
18.2214
18.2087
18.1963
18.184
18.1718
18.1597
18.1472
18.1336
18.1179
18.0979
18.0704
18.0306
17.9718
17.8855
-11.9827
-12.0522
-12.2008
-12.4221
-12.7256
-13.1157
-13.6014
-14.1914
-14.8963
-15.7284
-16.7025
-17.8364
-19.1515
-20.6711
-22.4159
-24.3968
-26.6069
-29.0139
-31.5585
-34.1587
-36.7188
-39.1372
-41.314
-43.1525
-44.559
-45.437
-45.6859
-45.2091
-43.933
-41.8283
-38.9321
-35.3471
-31.2199
-26.7334
-22.0867
-17.4741
-13.066
-8.98621
-5.31301
-2.07493
0.75804
3.26336
5.51426
7.53889
9.33525
10.8897
12.2126
13.3294
14.2706
15.0659
15.7409
16.3174
16.8127
17.2407
17.6117
17.9337
18.2126
18.4537
18.6613
18.8392
18.9909
19.1196
19.228
19.3185
19.3934
19.4544
19.5033
19.5416
19.5707
19.5916
19.6055
19.6133
19.6158
19.6138
19.6078
19.5986
19.5865
19.5721
19.5557
19.5377
19.5183
19.4979
19.4767
19.4549
19.4327
19.4101
19.3874
19.3647
19.342
19.3195
19.2971
19.275
19.2532
19.2318
19.2107
19.19
19.1697
19.1499
19.1304
19.1114
19.0927
19.0745
19.0567
19.0393
19.0223
19.0057
18.9894
18.9735
18.9579
18.9426
18.9276
18.9129
18.8985
18.8843
18.8704
18.8566
18.8431
18.8298
18.8167
18.8037
18.7909
18.7782
18.7656
18.7532
18.7408
18.7286
18.7164
18.7043
18.6923
18.6803
18.6683
18.6564
18.6445
18.6326
18.6207
18.6088
18.5969
18.5851
18.5731
18.5612
18.5492
18.5372
18.5252
18.5131
18.501
18.4888
18.4766
18.4643
18.4519
18.4395
18.427
18.4145
18.4018
18.3891
18.3763
18.3635
18.3506
18.3375
18.3245
18.3113
18.2981
18.2848
18.2714
18.258
18.2445
18.231
18.2174
18.2038
18.19
18.1761
18.1618
18.147
18.131
18.1132
18.0921
18.0657
18.0309
17.9831
17.9167
17.8244
-12.7862
-12.8858
-13.0891
-13.3916
-13.8063
-14.3406
-15.0076
-15.8212
-16.802
-17.9746
-19.367
-21.0072
-22.9214
-25.1306
-27.6444
-30.4535
-33.5255
-36.7993
-40.1866
-43.579
-46.8657
-49.9429
-52.7132
-55.0769
-56.9235
-58.1192
-58.5086
-57.9386
-56.2905
-53.5184
-49.6831
-44.9496
-39.5467
-33.7579
-27.8668
-22.1273
-16.7477
-11.8696
-7.56414
-3.8548
-0.706571
2.00657
4.41624
6.58737
8.52774
10.2175
11.6534
12.8568
13.8623
14.7055
15.4167
16.021
16.5386
16.9851
17.3722
17.7088
18.0014
18.2553
18.4748
18.6638
18.8259
18.9643
19.0817
19.1806
19.2633
19.3316
19.3875
19.4323
19.4675
19.4943
19.5138
19.5268
19.5343
19.537
19.5355
19.5305
19.5224
19.5118
19.499
19.4844
19.4683
19.451
19.4327
19.4136
19.3939
19.3738
19.3534
19.3329
19.3122
19.2916
19.2711
19.2507
19.2305
19.2105
19.1909
19.1715
19.1525
19.1338
19.1154
19.0974
19.0798
19.0625
19.0455
19.0289
19.0126
18.9967
18.981
18.9657
18.9507
18.9359
18.9214
18.9072
18.8932
18.8794
18.8659
18.8525
18.8393
18.8263
18.8134
18.8007
18.7881
18.7756
18.7633
18.751
18.7389
18.7268
18.7147
18.7028
18.6908
18.679
18.6671
18.6553
18.6435
18.6317
18.6199
18.6081
18.5962
18.5844
18.5726
18.5607
18.5487
18.5368
18.5248
18.5127
18.5006
18.4885
18.4762
18.464
18.4516
18.4392
18.4267
18.4141
18.4015
18.3887
18.3759
18.363
18.35
18.3369
18.3237
18.3104
18.297
18.2834
18.2698
18.256
18.242
18.2278
18.2135
18.1988
18.1838
18.1683
18.1519
18.1345
18.1153
18.0934
18.0675
18.0354
17.994
17.9395
17.8667
17.7695
-13.4127
-13.5575
-13.8402
-14.2559
-14.8228
-15.5539
-16.4744
-17.6158
-19.0163
-20.7092
-22.7209
-25.0702
-27.7709
-30.8276
-34.2292
-37.9397
-41.8936
-45.998
-50.1438
-54.2174
-58.1082
-61.7047
-64.8895
-67.5231
-69.4472
-70.4843
-70.4493
-69.1882
-66.6197
-62.7715
-57.7709
-51.867
-45.3498
-38.5476
-31.7587
-25.2628
-19.2576
-13.8817
-9.18828
-5.18323
-1.82275
1.02384
3.52838
5.79114
7.8295
9.61736
11.1382
12.4079
13.4635
14.3451
15.0867
15.7159
16.2544
16.719
17.1223
17.4737
17.7801
18.0469
18.2787
18.4793
18.6523
18.8008
18.9277
19.0355
19.1264
19.2026
19.2658
19.3175
19.3592
19.3921
19.4174
19.4359
19.4486
19.4563
19.4595
19.459
19.4551
19.4485
19.4395
19.4285
19.4158
19.4017
19.3864
19.3702
19.3532
19.3357
19.3177
19.2994
19.2809
19.2623
19.2437
19.2251
19.2066
19.1882
19.17
19.1521
19.1343
19.1169
19.0997
19.0827
19.0661
19.0498
19.0337
19.0179
19.0024
18.9872
18.9723
18.9576
18.9431
18.9289
18.915
18.9012
18.8877
18.8743
18.8611
18.8481
18.8353
18.8225
18.81
18.7975
18.7852
18.773
18.7608
18.7488
18.7368
18.7248
18.713
18.7012
18.6894
18.6776
18.6659
18.6541
18.6424
18.6307
18.619
18.6073
18.5955
18.5837
18.5719
18.5601
18.5482
18.5363
18.5243
18.5123
18.5002
18.4881
18.4759
18.4636
18.4513
18.4389
18.4264
18.4138
18.4011
18.3883
18.3755
18.3625
18.3494
18.3362
18.3229
18.3095
18.2959
18.2821
18.2681
18.2539
18.2395
18.2247
18.2096
18.1939
18.1777
18.1606
18.1423
18.1224
18.1002
18.0746
18.0442
18.0069
17.96
17.8996
17.8214
17.7201
-13.7943
-14.0063
-14.4058
-14.985
-15.7731
-16.8047
-18.1331
-19.8083
-21.8663
-24.3166
-27.1546
-30.3727
-33.9583
-37.8809
-42.0892
-46.5178
-51.0843
-55.6862
-60.2034
-64.504
-68.446
-71.8826
-74.6656
-76.6712
-77.7633
-77.8328
-76.7756
-74.5072
-71.0195
-66.366
-60.6929
-54.2223
-47.2394
-40.0665
-33.0025
-26.3022
-20.1568
-14.693
-9.95267
-5.91512
-2.52098
0.354751
2.88789
5.19206
7.2834
9.12577
10.6937
12.0005
13.0855
13.9918
14.7552
15.4041
15.9606
16.4419
16.8608
17.2269
17.547
17.8269
18.0711
18.2835
18.4678
18.6269
18.7638
18.8809
18.9807
19.0651
19.136
19.1951
19.2437
19.2832
19.3146
19.339
19.3573
19.3702
19.3785
19.3827
19.3834
19.381
19.376
19.3689
19.3598
19.3491
19.337
19.3239
19.3098
19.295
19.2796
19.2637
19.2475
19.2311
19.2145
19.1978
19.1811
19.1644
19.1478
19.1313
19.115
19.0988
19.0829
19.0671
19.0515
19.0362
19.0211
19.0062
18.9916
18.9771
18.9629
18.9489
18.9351
18.9215
18.9081
18.8948
18.8817
18.8688
18.8561
18.8434
18.831
18.8186
18.8063
18.7942
18.7821
18.7701
18.7582
18.7463
18.7346
18.7228
18.7111
18.6994
18.6878
18.6762
18.6645
18.6529
18.6413
18.6297
18.6181
18.6064
18.5947
18.583
18.5713
18.5595
18.5477
18.5358
18.5238
18.5119
18.4998
18.4877
18.4755
18.4633
18.4509
18.4385
18.426
18.4134
18.4007
18.3879
18.375
18.362
18.3489
18.3356
18.3222
18.3086
18.2948
18.2807
18.2665
18.2519
18.237
18.2216
18.2057
18.1892
18.1717
18.1531
18.133
18.1108
18.0857
18.0567
18.0223
17.9805
17.9286
17.8632
17.7805
17.6758
-13.815
-14.1263
-14.7055
-15.5318
-16.6664
-18.1779
-20.1359
-22.5658
-25.4498
-28.7411
-32.3797
-36.2993
-40.4376
-44.7326
-49.1265
-53.5479
-57.9092
-62.0883
-65.9692
-69.422
-72.3583
-74.6759
-76.3069
-77.1811
-77.2328
-76.3916
-74.589
-71.7752
-67.9502
-63.1684
-57.5541
-51.2997
-44.6494
-37.8768
-31.2542
-25.0025
-19.2814
-14.1897
-9.75842
-5.96242
-2.73274
0.055573
2.55656
4.85795
6.9552
8.79942
10.3652
11.6712
12.7597
13.6736
14.4476
15.1087
15.6783
16.173
16.6052
16.9842
17.3169
17.6087
17.8644
18.0879
18.2828
18.4521
18.5987
18.725
18.8334
18.926
19.0047
19.071
19.1266
19.1726
19.2103
19.2406
19.2645
19.2828
19.2961
19.3051
19.3103
19.3123
19.3114
19.3081
19.3027
19.2955
19.2867
19.2767
19.2655
19.2535
19.2407
19.2273
19.2134
19.1991
19.1846
19.1699
19.155
19.14
19.1251
19.1101
19.0952
19.0804
19.0657
19.0511
19.0366
19.0223
19.0082
18.9942
18.9804
18.9668
18.9533
18.94
18.9268
18.9138
18.901
18.8883
18.8757
18.8632
18.8509
18.8387
18.8265
18.8145
18.8026
18.7907
18.7789