/*--------------------------------*- C++ -*----------------------------------*\
  =========                 |
  \\      /  F ield         | OpenFOAM: The Open Source CFD Toolbox
   \\    /   O peration     | Website:  https://openfoam.org
    \\  /    A nd           | Version:  9
     \\/     M anipulation  |
\*---------------------------------------------------------------------------*/
FoamFile
{
    format      ascii;
    class       volScalarField;
    location    "0.008";
    object      pPrime2Mean;
}
// * * * * * * * * * * * * * * * * * * * * * * * * * * * * * * * * * * * * * //

dimensions      [0 4 -4 0 0 0 0];

internalField   nonuniform List<scalar> 
12225
(
393535
388767
383547
378216
372874
367574
362350
357220
352196
347279
342461
337730
333066
328438
323802
319091
314163
308743
393550
388789
383565
378231
372887
367586
362360
357230
352207
347290
342475
337747
333087
328466
323844
319153
314287
308993
393667
388843
383605
378264
372916
367611
362384
357253
352231
347316
342504
337783
333133
328528
323931
319291
314526
309552
393809
388925
383671
378320
372964
367654
362423
357292
352270
347359
342554
337842
333208
328628
324073
319505
314886
310228
393976
389050
383770
378403
373034
367716
362480
357348
352328
347423
342626
337929
333317
328772
324272
319796
315339
310961
394180
389207
383905
378516
373132
367802
362560
357425
352408
347509
342725
338047
333465
328963
324529
320158
315866
311726
394424
389422
384084
378667
373261
367916
362665
357527
352513
347623
342854
338200
333652
329202
324844
320584
316449
312507
394663
389688
384317
378862
373427
368062
362799
357658
352646
347767
343017
338391
333885
329493
325217
321068
317077
313299
395051
390035
384609
379109
373636
368245
362968
357821
352812
347944
343215
338623
334162
329833
325641
321600
317739
314099
395544
390477
384978
379413
373893
368469
363173
358017
353012
348158
343454
338897
334487
330224
326115
322176
318429
314905
396196
391029
385430
379785
374204
368739
363419
358254
353252
348413
343735
339216
334857
330660
326633
322788
319142
315716
396974
391659
385935
380194
374544
369034
363686
358511
353510
348684
344031
339549
335238
331101
327144
323377
319813
316464
397955
392414
386523
380664
374930
369367
363988
358799
353799
348986
344358
339913
335649
331569
327678
323983
320490
317208
399189
393427
387311
381280
375436
369799
364379
359171
354171
349373
344773
340369
336157
332139
328317
324695
321274
318057
401253
394866
388355
382086
376087
370355
364880
359647
354645
349863
345295
340934
336778
332825
329072
325521
322169
319016
404209
396735
389682
383096
376900
371051
365509
360244
355235
350470
345935
341621
337521
333632
329947
326464
323177
320082
407639
398985
391246
384273
377857
371876
366258
360959
355947
351198
346696
342428
338385
334556
330935
327515
324288
321246
410297
400880
392679
385423
378833
372751
367080
361761
356752
352027
347562
343341
339351
335580
332017
328653
325478
322483
411215
401840
393602
386293
379657
373550
367876
362569
357587
352900
348480
344309
340372
336654
333144
329829
326700
323746
410024
401276
393447
386386
379915
373923
368333
363094
358170
353533
349162
345037
341143
337467
333994
330715
327617
324690
407480
400043
392871
386168
379908
374047
368549
363380
358511
353921
349589
345500
341637
337989
334542
331285
328207
325297
406082
399163
392318
385866
379784
374053
368648
363546
358729
354180
349882
345821
341983
338356
334928
331688
328624
325727
405046
398371
391814
385571
379639
374013
368685
363640
358866
354351
350081
346043
342224
338613
335199
331970
328917
326028
404345
397752
391389
385309
379500
373961
368694
363694
358954
354465
350215
346194
342389
338791
335386
332166
329120
326238
403319
397200
391046
385106
379386
373911
368690
363724
359010
354540
350305
346296
342502
338912
335515
332301
329259
326381
402420
396733
390786
384951
379301
373872
368684
363741
359044
354588
350364
346364
342576
338992
335600
332390
329352
326477
401861
396419
390604
384844
379240
373844
368677
363751
359066
354619
350402
346407
342624
339043
335654
332447
329412
326538
401594
396231
390493
384777
379203
373825
368673
363756
359079
354637
350424
346432
342653
339074
335688
332482
329448
326576
401445
396132
390431
384740
379182
373815
368670
363759
359085
354646
350436
346446
342668
339091
335705
332501
329467
326596
401350
396091
390406
384725
379173
373811
368669
363760
359088
354650
350441
346452
342674
339098
335713
332508
329475
326604
260960
260940
260898
260835
260750
260643
260514
260361
260186
259987
259764
259518
259247
258952
258634
258291
257923
257532
257116
256675
256211
255722
255208
254671
254109
253522
252911
252276
251616
250931
250221
249487
248728
247945
247138
246307
245453
244576
243677
242757
241817
240857
239877
238879
237864
236831
235781
234715
233633
232536
231424
230297
229155
227999
226829
225645
224448
223237
222013
220777
219528
218266
216992
215706
214408
213098
211777
210444
209101
207747
206382
205006
203620
202225
200819
199403
197979
196544
195101
193649
192187
190718
189239
187753
186258
184756
183246
181728
180203
178670
177131
175584
174031
172471
170905
169332
167753
166168
164577
162981
161379
159771
158158
156540
154917
153289
151657
150020
148378
146733
145083
143429
141771
140110
138446
136778
135107
133433
131756
130077
128395
126711
125025
123336
121647
119955
118262
116568
114873
113178
111481
109785
108088
106391
104694
102999
101303
99609
97916
96224.4
94534.5
92846.6
91160.9
89477.7
87797.2
86119.8
84445.6
82775
81108.2
79445.6
77787.4
76134
74485.7
72842.7
71205.5
69574.4
67949.7
66331.7
64720.9
63117.6
61522.1
59935
58356.5
56787.2
55227.4
53677.6
52138.3
50609.9
49093.1
47588.3
46096.2
44617.4
43152.8
41703.1
40269.5
38853
37455.6
36079.2
34728.7
33411.9
261053
261033
260991
260927
260842
260734
260604
260451
260274
260074
259850
259602
259330
259034
258714
258369
258000
257607
257189
256747
256281
255790
255275
254736
254172
253584
252972
252335
251673
250986
250275
249539
248778
247993
247184
246351
245495
244616
243716
242794
241852
240890
239909
238909
237892
236858
235807
234739
233656
232558
231444
230316
229173
228016
226845
225661
224463
223251
222027
220790
219540
218277
217003
215716
214417
213107
211785
210453
209109
207754
206388
205012
203626
202230
200824
199408
197983
196549
195105
193652
192191
190721
189243
187756
186261
184759
183248
181730
180205
178672
177133
175586
174033
172473
170906
169333
167754
166169
164578
162982
161380
159772
158159
156541
154918
153290
151657
150020
148379
146733
145083
143429
141772
140111
138446
136778
135107
133433
131756
130077
128395
126711
125025
123337
121647
119955
118262
116568
114873
113178
111481
109785
108088
106391
104695
102999
101303
99609
97916
96224.4
94534.5
92846.6
91160.9
89477.7
87797.2
86119.8
84445.6
82775
81108.2
79445.6
77787.4
76134
74485.7
72842.8
71205.5
69574.4
67949.7
66331.7
64720.9
63117.6
61522.1
59935
58356.5
56787.1
55227.3
53677.5
52138.2
50609.8
49092.9
47588.1
46096
44617.2
43152.4
41702.6
40268.8
38852.1
37454.3
36077.7
34726
33407.5
261240
261219
261177
261112
261026
260917
260785
260630
260451
260248
260022
259772
259497
259198
258875
258527
258154
257758
257337
256891
256421
255927
255409
254866
254299
253708
253092
252451
251786
251096
250382
249642
248878
248089
247276
246439
245580
244697
243793
242867
241921
240956
239972
238969
237949
236912
235858
234788
233702
232601
231486
230355
229210
228052
226879
225692
224493
223280
222054
220815
219564
218300
217024
215736
214436
213125
211802
210469
209124
207768
206402
205025
203638
202241
200835
199418
197992
196557
195113
193660
192198
190728
189249
187762
186267
184764
183253
181735
180209
178676
177136
175589
174036
172475
170909
169336
167757
166171
164580
162984
161381
159773
158160
156542
154919
153291
151658
150021
148380
146734
145084
143430
141772
140111
138446
136778
135107
133433
131756
130077
128395
126711
125025
123337
121647
119955
118263
116569
114874
113178
111481
109785
108088
106391
104695
102999
101303
99609.1
97916
96224.4
94534.6
92846.6
91161
89477.7
87797.3
86119.8
84445.6
82775
81108.2
79445.6
77787.4
76134
74485.7
72842.8
71205.5
69574.4
67949.7
66331.7
64720.9
63117.5
61522.1
59934.9
58356.4
56787.1
55227.2
53677.4
52138
50609.6
49092.7
47587.8
46095.5
44616.6
43151.7
41701.6
40267.4
38850.3
37451.8
36074
34719.9
33394.8
261522
261500
261456
261391
261303
261191
261057
260899
260717
260511
260281
260027
259748
259444
259116
258763
258386
257984
257558
257107
256632
256132
255609
255061
254489
253893
253272
252627
251957
251262
250542
249797
249028
248234
247415
246573
245707
244819
243909
242978
242026
241055
240066
239058
238034
236992
235934
234860
233771
232666
231547
230414
229266
228104
226929
225740
224538
223322
222094
220853
219600
218334
217056
215766
214465
213152
211828
210493
209146
207789
206422
205044
203656
202258
200850
199433
198006
196570
195125
193671
192209
190737
189258
187770
186275
184771
183260
181741
180215
178682
177141
175594
174040
172480
170913
169339
167760
166174
164583
162986
161384
159776
158163
156544
154921
153293
151660
150023
148381
146735
145085
143431
141773
140112
138447
136779
135108
133434
131757
130078
128396
126711
125025
123337
121647
119956
118263
116569
114874
113178
111482
109785
108088
106391
104695
102999
101303
99609.1
97916.1
96224.5
94534.6
92846.7
91161
89477.8
87797.3
86119.8
84445.7
82775
81108.3
79445.6
77787.5
76134
74485.7
72842.8
71205.5
69574.4
67949.7
66331.7
64720.8
63117.5
61522
59934.8
58356.3
56786.9
55227.1
53677.2
52137.8
50609.3
49092.2
47587.2
46094.8
44615.7
43150.5
41700.1
40265.5
38847.7
37448
36068.5
34711.2
33378.8
261899
261877
261832
261764
261674
261560
261422
261260
261074
260863
260628
260368
260083
259773
259438
259079
258695
258286
257852
257394
256912
256406
255875
255321
254742
254139
253512
252861
252184
251483
250757
250005
249229
248427
247601
246751
245878
244981
244064
243125
242166
241188
240192
239178
238146
237099
236035
234956
233862
232753
231629
230492
229340
228174
226995
225803
224597
223379
222147
220903
219647
218379
217099
215807
214503
213188
211862
210524
209176
207817
206448
205069
203679
202280
200871
199452
198024
196587
195141
193686
192223
190750
189270
187782
186285
184781
183269
181750
180223
178689
177148
175601
174046
172485
170918
169344
167764
166179
164587
162990
161387
159779
158165
156547
154923
153295
151662
150024
148382
146736
145086
143432
141774
140113
138448
136780
135109
133435
131758
130078
128396
126712
125026
123337
121647
119956
118263
116569
114874
113178
111482
109785
108088
106391
104695
102999
101303
99609.2
97916.1
96224.5
94534.6
92846.7
91161
89477.8
87797.4
86119.9
84445.7
82775.1
81108.3
79445.7
77787.5
76134.1
74485.7
72842.8
71205.6
69574.4
67949.6
66331.7
64720.8
63117.4
61522
59934.8
58356.2
56786.8
55226.9
53676.9
52137.4
50608.8
49091.7
47586.5
46093.9
44614.6
43149
41698.2
40262.9
38844.2
37443.2
36061.6
34700.6
33361.5
262376
262352
262305
262236
262142
262024
261882
261715
261523
261306
261064
260797
260504
260186
259843
259474
259081
258662
258220
257753
257261
256746
256207
255644
255057
254447
253812
253153
252469
251760
251027
250267
249482
248671
247836
246976
246092
245186
244258
243309
242341
241354
240349
239326
238287
237232
236162
235076
233975
232861
231731
230588
229432
228261
227078
225881
224671
223449
222213
220966
219707
218435
217152
215856
214550
213232
211903
210564
209213
207852
206481
205100
203708
202307
200896
199476
198047
196608
195161
193705
192240
190767
189285
187796
186299
184793
183281
181761
180233
178699
177157
175609
174054
172492
170924
169350
167770
166184
164592
162994
161391
159782
158169
156550
154926
153298
151664
150027
148384
146738
145088
143434
141776
140114
138449
136781
135110
133435
131758
130079
128397
126713
125026
123338
121648
119956
118263
116569
114874
113178
111482
109785
108088
106391
104695
102999
101304
99609.2
97916.2
96224.6
94534.7
92846.8
91161.1
89477.9
87797.4
86119.9
84445.7
82775.1
81108.3
79445.7
77787.5
76134.1
74485.7
72842.8
71205.6
69574.4
67949.6
66331.6
64720.8
63117.4
61521.9
59934.6
58356.1
56786.6
55226.6
53676.6
52137
50608.3
49091
47585.7
46092.9
44613.2
43147.3
41695.9
40259.8
38840.1
37437.6
36053.6
34688.8
33343.6
262954
262929
262880
262807
262709
262587
262439
262266
262067
261842
261591
261314
261012
260683
260329
259949
259544
259115
258660
258181
257679
257152
256602
256030
255433
254814
254171
253504
252812
252095
251352
250584
249789
248968
248121
247248
246352
245434
244493
243532
242551
241553
240537
239504
238456
237392
236313
235219
234111
232989
231853
230704
229541
228365
227176
225974
224759
223532
222292
221041
219777
218502
217214
215916
214606
213285
211953
210611
209258
207894
206520
205137
203743
202340
200927
199505
198074
196633
195184
193727
192261
190786
189303
187813
186314
184808
183294
181773
180245
178710
177167
175618
174063
172501
170932
169357
167777
166190
164597
162999
161396
159787
158173
156554
154930
153301
151667
150029
148387
146740
145090
143435
141777
140116
138451
136782
135111
133436
131759
130080
128398
126713
125027
123338
121648
119957
118264
116570
114874
113179
111482
109785
108088
106391
104695
102999
101304
99609.3
97916.3
96224.7
94534.8
92846.9
91161.2
89478
87797.5
86120
84445.8
82775.2
81108.4
79445.7
77787.6
76134.1
74485.8
72842.8
71205.6
69574.4
67949.6
66331.6
64720.7
63117.3
61521.8
59934.5
58355.9
56786.4
55226.3
53676.2
52136.5
50607.7
49090.3
47584.7
46091.6
44611.6
43145.2
41693.2
40256.3
38835.3
37431.2
36044.7
34676.3
33325.6
263638
263611
263559
263483
263380
263251
263096
262915
262707
262472
262211
261922
261607
261266
260898
260504
260085
259640
259171
258678
258161
257622
257059
256474
255867
255238
254586
253912
253212
252487
251736
250959
250153
249319
248459
247572
246661
245726
244770
243793
242798
241785
240756
239711
238651
237576
236488
235385
234268
233138
231994
230837
229667
228485
227289
226081
224861
223628
222384
221127
219858
218579
217287
215985
214671
213346
212011
210665
209309
207942
206565
205179
203783
202377
200962
199538
198105
196662
195212
193752
192284
190808
189324
187832
186333
184825
183310
181788
180259
178723
177179
175629
174073
172510
170941
169366
167784
166197
164604
163005
161401
159792
158178
156558
154934
153304
151671
150032
148390
146743
145092
143438
141779
140117
138452
136784
135112
133438
131760
130081
128398
126714
125027
123339
121649
119957
118264
116570
114875
113179
111482
109786
108089
106392
104695
102999
101304
99609.4
97916.4
96224.8
94534.9
92847
91161.3
89478
87797.6
86120.1
84445.9
82775.2
81108.4
79445.8
77787.6
76134.2
74485.8
72842.8
71205.6
69574.4
67949.6
66331.6
64720.7
63117.2
61521.7
59934.4
58355.7
56786.1
55226
53675.8
52136
50607.1
49089.4
47583.6
46090.2
44609.8
43142.9
41690.2
40252.4
38830.2
37424.3
36035.3
34663.4
33308
264433
264404
264349
264267
264159
264022
263859
263667
263448
263201
262926
262623
262292
261935
261550
261139
260701
260238
259750
259239
258704
258147
257570
256971
256353
255714
255055
254374
253670
252941
252184
251397
250581
249734
248858
247953
247023
246068
245092
244096
243082
242052
241007
239947
238873
237786
236686
235572
234446
233306
232154
230988
229811
228620
227418
226203
224976
223737
222487
221224
219951
218666
217369
216062
214744
213415
212076
210726
209366
207996
206617
205227
203828
202420
201002
199575
198140
196695
195242
193781
192311
190834
189348
187854
186353
184844
183328
181805
180274
178737
177193
175642
174085
172521
170951
169375
167793
166205
164611
163012
161408
159798
158183
156563
154938
153308
151674
150036
148393
146746
145095
143440
141782
140119
138454
136785
135114
133439
131762
130082
128399
126715
125028
123340
121649
119958
118265
116570
114875
113179
111483
109786
108089
106392
104695
102999
101304
99609.6
97916.5
96224.9
94535
92847.1
91161.4
89478.1
87797.6
86120.2
84445.9
82775.3
81108.5
79445.9
77787.7
76134.2
74485.8
72842.8
71205.6
69574.4
67949.6
66331.5
64720.6
63117.1
61521.6
59934.2
58355.5
56785.8
55225.7
53675.4
52135.4
50606.3
49088.5
47582.4
46088.7
44607.8
43140.3
41686.9
40248.1
38824.6
37417
36025.6
34650.4
33290.8
265345
265314
265255
265167
265051
264906
264731
264527
264294
264031
263740
263419
263069
262691
262285
261851
261391
260904
260392
259857
259299
258720
258122
257506
256875
256227
255564
254882
254177
253448
252690
251899
251073
250213
249319
248394
247441
246463
245462
244442
243405
242354
241289
240211
239122
238020
236907
235781
234644
233493
232331
231156
229970
228771
227560
226338
225104
223858
222601
221333
220053
218762
217461
216148
214825
213492
212148
210794
209430
208057
206673
205280
203878
202467
201046
199617
198178
196732
195276
193813
192341
190862
189374
187879
186376
184866
183348
181823
180292
178753
177208
175656
174098
172533
170962
169385
167802
166214
164619
163020
161415
159804
158189
156568
154943
153313
151678
150040
148396
146749
145098
143443
141784
140122
138456
136787
135115
133441
131763
130083
128401
126716
125029
123341
121650
119958
118265
116571
114876
113180
111483
109786
108089
106392
104695
102999
101304
99609.7
97916.6
96225
94535.1
92847.2
91161.5
89478.2
87797.7
86120.2
84446
82775.4
81108.6
79445.9
77787.7
76134.3
74485.9
72842.9
71205.6
69574.4
67949.6
66331.5
64720.5
63117.1
61521.4
59934
58355.3
56785.6
55225.3
53674.9
52134.8
50605.5
49087.5
47581.1
46087
44605.7
43137.7
41683.5
40243.7
38818.9
37409.4
36015.7
34637.6
33274.3
266384
266350
266286
266191
266065
265909
265721
265502
265251
264970
264657
264314
263941
263537
263104
262642
262152
261634
261090
260520
259929
259318
258692
258053
257405
256748
256082
255404
254708
253988
253237
252447
251615
250742
249830
248883
247905
246903
245878
244832
243769
242691
241602
240504
239395
238277
237149
236010
234860
233699
232525
231341
230144
228936
227717
226486
225244
223991
222726
221451
220165
218868
217560
216242
214914
213576
212227
210869
209500
208123
206735
205339
203933
202518
201094
199662
198221
196772
195314
193848
192374
190892
189403
187905
186401
184889
183370
181844
180311
178771
177224
175671
174112
172546
170974
169396
167813
166223
164628
163028
161422
159811
158195
156574
154948
153318
151683
150044
148400
146753
145101
143446
141787
140124
138458
136789
135117
133442
131765
130084
128402
126717
125030
123341
121651
119959
118266
116571
114876
113180
111483
109786
108089
106392
104696
103000
101304
99609.9
97916.8
96225.2
94535.3
92847.3
91161.6
89478.4
87797.9
86120.4
84446.1
82775.5
81108.7
79446
77787.8
76134.3
74485.9
72842.9
71205.6
69574.4
67949.6
66331.5
64720.5
63117
61521.3
59933.9
58355
56785.2
55224.9
53674.4
52134.2
50604.7
49086.4
47579.8
46085.3
44603.5
43134.9
41679.9
40239.1
38813
37401.8
36005.9
34625
33258.6
267561
267523
267453
267349
267212
267041
266837
266599
266328
266023
265685
265315
264912
264478
264011
263513
262983
262423
261833
261215
260574
259916
259247
258574
257901
257233
256568
255903
255230
254533
253802
253028
252201
251319
250387
249413
248405
247374
246323
245253
244165
243062
241946
240823
239693
238557
237412
236258
235095
233921
232736
231540
230333
229115
227886
226646
225396
224134
222862
221579
220286
218982
217669
216344
215010
213666
212313
210949
209576
208194
206802
205402
203992
202574
201147
199711
198267
196815
195354
193886
192409
190925
189434
187934
186428
184914
183393
181866
180331
178790
177242
175688
174127
172560
170987
169409
167824
166234
164638
163037
161430
159819
158202
156581
154954
153323
151688
150048
148404
146756
145104
143449
141789
140127
138461
136791
135119
133444
131766
130086
128403
126718
125031
123342
121652
119960
118266
116572
114877
113180
111484
109787
108090
106393
104696
103000
101304
99610.1
97917
96225.3
94535.4
92847.5
91161.8
89478.5
87798
86120.5
84446.2
82775.6
81108.7
79446.1
77787.8
76134.4
74486
72842.9
71205.6
69574.4
67949.5
66331.4
64720.4
63116.9
61521.2
59933.7
58354.8
56784.9
55224.5
53673.8
52133.5
50603.8
49085.3
47578.4
46083.5
44601.2
43132
41676.2
40234.4
38807
37394.3
35996.3
34612.9
33243.6
268891
268849
268770
268656
268505
268318
268094
267833
267537
267204
266836
266433
265995
265523
265015
264472
263892
263275
262622
261936
261224
260495
259760
259031
258319
257631
256970
256334
255710
255073
254398
253664
252854
251966
251009
249996
248944
247869
246784
245691
244581
243455
242315
241166
240013
238856
237694
236524
235345
234158
232961
231753
230535
229307
228068
226818
225558
224288
223008
221717
220416
219105
217784
216454
215113
213764
212404
211035
209657
208270
206874
205469
204056
202634
201203
199764
198316
196861
195398
193926
192447
190961
189467
187965
186457
184941
183419
181889
180353
178810
177261
175705
174143
172575
171001
169422
167836
166245
164648
163046
161439
159827
158210
156588
154961
153329
151693
150053
148409
146760
145108
143452
141793
140130
138463
136794
135121
133446
131768
130087
128405
126719
125032
123343
121653
119961
118267
116573
114877
113181
111484
109787
108090
106393
104696
103000
101305
99610.3
97917.1
96225.5
94535.6
92847.6
91161.9
89478.6
87798.1
86120.6
84446.3
82775.7
81108.8
79446.1
77787.9
76134.4
74486
72843
71205.7
69574.4
67949.5
66331.4
64720.4
63116.8
61521
59933.5
58354.6
56784.6
55224.1
53673.3
52132.8
50602.9
49084.2
47576.9
46081.7
44598.9
43129.1
41672.5
40229.8
38801.1
37386.8
35986.9
34601.3
33229.4
270394
270345
270258
270130
269963
269756
269509
269223
268898
268534
268132
267694
267218
266705
266153
265560
264921
264232
263496
262715
261898
261061
260222
259401
258619
257895
257238
256647
256099
255555
254972
254307
253532
252643
251659
250606
249506
248382
247254
246133
245005
243860
242699
241527
240351
239173
237992
236805
235612
234410
233200
231980
230750
229510
228260
227001
225731
224451
223162
221863
220554
219235
217907
216570
215223
213867
212501
211127
209744
208352
206951
205541
204123
202697
201262
199820
198369
196910
195444
193969
192488
190999
189502
187998
186488
184970
183445
181914
180376
178832
177281
175724
174161
172592
171016
169436
167849
166257
164659
163057
161449
159836
158218
156595
154967
153335
151699
150058
148414
146765
145112
143456
141796
140133
138466
136796
135123
133448
131770
130089
128406
126721
125033
123344
121654
119961
118268
116573
114878
113181
111485
109787
108090
106393
104696
103000
101305
99610.5
97917.4
96225.7
94535.8
92847.8
91162.1
89478.8
87798.3
86120.7
84446.5
82775.8
81108.9
79446.2
77788
76134.5
74486.1
72843
71205.7
69574.4
67949.5
66331.4
64720.3
63116.7
61520.9
59933.3
58354.3
56784.3
55223.6
53672.8
52132.1
50602
49083
47575.5
46079.9
44596.7
43126.2
41668.9
40225.2
38795.3
37379.5
35977.9
34590.2
33216.1
272093
272038
271939
271797
271611
271383
271113
270802
270450
270060
269631
269163
268657
268110
267517
266871
266164
265388
264542
263633
262672
261687
260702
259752
258869
258085
257415
256861
256384
255930
255428
254832
254099
253222
252230
251160
250037
248883
247724
246576
245431
244271
243091
241898
240701
239503
238304
237100
235891
234675
233451
232218
230976
229724
228463
227193
225913
224623
223324
222016
220699
219372
218037
216692
215338
213975
212604
211223
209835
208437
207031
205617
204194
202764
201325
199878
198424
196962
195492
194015
192530
191038
189539
188033
186520
185000
183474
181940
180401
178855
177302
175744
174179
172609
171032
169450
167863
166270
164671
163067
161459
159845
158226
156603
154975
153342
151705
150064
148419
146769
145116
143460
141799
140136
138469
136799
135126
133450
131772
130091
128408
126722
125035
123345
121655
119962
118269
116574
114878
113182
111485
109788
108091
106394
104697
103001
101305
99610.7
97917.6
96225.9
94536
92848
91162.3
89479
87798.4
86120.9
84446.6
82775.9
81109
79446.3
77788.1
76134.6
74486.1
72843.1
71205.7
69574.4
67949.5
66331.3
64720.3
63116.6
61520.8
59933.1
58354.1
56784
55223.2
53672.2
52131.4
50601.2
49081.9
47574.1
46078.1
44594.4
43123.3
41665.3
40220.7
38789.7
37372.6
35969.3
34579.8
33203.6
274082
274019
273907
273749
273545
273300
273015
272695
272343
271955
271530
271065
270551
269983
269350
268641
267845
266953
265967
264896
263762
262596
261443
260351
259363
258507
257804
257246
256791
256362
255888
255308
254589
253722
252728
251653
250530
249371
248197
247030
245869
244695
243498
242287
241069
239853
238636
237416
236191
234959
233720
232473
231218
229954
228681
227399
226108
224808
223499
222181
220855
219519
218175
216823
215462
214092
212714
211327
209932
208529
207117
205698
204271
202835
201392
199942
198483
197017
195544
194064
192576
191081
189579
188070
186555
185033
183504
181969
180427
178879
177325
175765
174199
172627
171049
169466
167877
166283
164684
163079
161469
159855
158235
156611
154982
153349
151711
150070
148424
146774
145121
143464
141803
140139
138472
136802
135128
133452
131774
130093
128409
126724
125036
123347
121656
119963
118269
116575
114879
113183
111486
109788
108091
106394
104697
103001
101306
99611.1
97917.9
96226.3
94536.3
92848.3
91162.5
89479.2
87798.6
86121.1
84446.8
82776.1
81109.2
79446.5
77788.2
76134.7
74486.3
72843.2
71205.8
69574.5
67949.6
66331.4
64720.3
63116.6
61520.8
59933.1
58353.9
56783.8
55222.9
53671.8
52130.8
50600.4
49080.9
47572.8
46076.5
44592.3
43120.7
41661.9
40216.4
38784.4
37366
35961.3
34570.1
33192.2
276312
276241
276118
275947
275737
275498
275242
274974
274692
274383
274024
273595
273078
272460
271734
270894
269938
268868
267698
266445
265145
263834
262567
261392
260343
259437
258672
258042
257507
256998
256447
255805
255046
254160
253162
252090
250973
249823
248651
247477
246303
245112
243900
242671
241437
240203
238970
237734
236494
235247
233994
232733
231465
230188
228902
227609
226306
224996
223677
222349
221014
219670
218317
216957
215588
214211
212826
211433
210032
208622
207206
205781
204348
202908
201461
200006
198544
197074
195597
194113
192622
191125
189620
188108
186590
185066
183535
181998
180454
178904
177348
175787
174219
172646
171067
169482
167892
166297
164696
163091
161480
159864
158244
156619
154990
153356
151718
150076
148429
146779
145125
143468
141807
140142
138475
136804
135131
133455
131776
130094
128411
126725
125037
123348
121657
119964
118270
116575
114879
113183
111486
109789
108091
106394
104697
103001
101306
99611.3
97918.1
96226.4
94536.4
92848.4
91162.6
89479.3
87798.7
86121.1
84446.8
82776.1
81109.2
79446.5
77788.2
76134.7
74486.2
72843.1
71205.8
69574.4
67949.5
66331.3
64720.1
63116.4
61520.5
59932.8
58353.6
56783.3
55222.4
53671.2
52130.1
50599.5
49079.8
47571.4
46074.7
44590
43117.9
41658.5
40212.2
38779.1
37359.6
35953.5
34560.9
33181.4
278584
278508
278384
278224
278051
277885
277739
277608
277466
277266
276953
276488
275851
275044
274086
273000
271808
270538
269210
267848
266481
265137
263854
262664
261593
260641
259799
259063
258399
257758
257081
256336
255502
254574
253562
252492
251382
250237
249067
247888
246700
245494
244265
243021
241774
240527
239281
238031
236777
235517
234250
232977
231696
230407
229110
227806
226493
225173
223844
222508
221163
219811
218451
217083
215707
214323
212932
211533
210126
208711
207289
205859
204422
202978
201526
200067
198601
197128
195648
194161
192667
191166
189659
188145
186624
185098
183564
182025
180480
178928
177371
175807
174238
172663
171083
169497
167906
166310
164708
163102
161490
159874
158253
156627
154997
153363
151724
150081
148435
146784
145130
143472
141810
140146
138478
136807
135133
133457
131778
130096
128412
126726
125038
123349
121658
119965
118271
116576
114880
113183
111486
109789
108092
106395
104698
103001
101306
99611.5
97918.3
96226.5
94536.5
92848.5
91162.7
89479.3
87798.7
86121.2
84446.8
82776.1
81109.2
79446.5
77788.2
76134.6
74486.2
72843.1
71205.7
69574.3
67949.4
66331.1
64720
63116.2
61520.3
59932.5
58353.3
56782.9
55221.9
53670.6
52129.3
50598.6
49078.7
47570
46073
44587.9
43115.3
41655.3
40208.2
38774.3
37353.7
35946.4
34552.5
33171.6
280881
280810
280707
280608
280545
280527
280547
280551
280460
280196
279706
278978
278035
276934
275718
274423
273079
271713
270340
268975
267633
266330
265082
263911
262832
261841
260933
260097
259312
258537
257737
256888
255978
255002
253968
252890
251775
250627
249455
248268
247065
245841
244597
243341
242084
240827
239568
238306
237039
235767
234488
233203
231911
230611
229304
227989
226667
225338
224001
222656
221303
219944
218576
217201
215819
214429
213031
211626
210214
208795
207368
205933
204492
203043
201588
200125
198655
197179
195696
194205
192709
191205
189696
188179
186657
185128
183593
182051
180504
178951
177392
175827
174257
172681
171099
169512
167920
166323
164720
163113
161500
159883
158261
156635
155004
153369
151730
150087
148440
146788
145134
143475
141814
140149
138481
136810
135136
133459
131779
130098
128414
126728
125040
123350
121658
119966
118272
116577
114881
113184
111487
109789
108092
106395
104698
103002
101306
99611.7
97918.4
96226.7
94536.7
92848.6
91162.8
89479.4
87798.8
86121.2
84446.9
82776.1
81109.2
79446.5
77788.2
76134.6
74486.1
72843
71205.6
69574.3
67949.3
66331
64719.8
63116.1
61520.1
59932.3
58353
56782.6
55221.5
53670.1
52128.7
50597.8
49077.7
47568.8
46071.4
44586
43112.9
41652.3
40204.5
38769.8
37348.3
35940
34544.8
33162.8
283193
283145
283103
283123
283226
283343
283405
283302
282958
282344
281487
280435
279240
277948
276606
275249
273884
272534
271202
269894
268613
267365
266161
265014
263933
262914
261948
261031
260145
259263
258363
257430
256455
255435
254376
253282
252155
250998
249817
248617
247397
246156
244899
243635
242369
241103
239833
238560
237282
235998
234709
233413
232110
230801
229484
228160
226830
225492
224146
222794
221434
220067
218693
217312
215923
214528
213125
211715
210297
208873
207441
206003
204557
203105
201646
200179
198707
197227
195741
194248
192748
191243
189730
188212
186687
185156
183619
182076
180527
178972
177412
175846
174274
172697
171114
169526
167933
166335
164731
163123
161510
159892
158270
156643
155011
153376
151736
150092
148444
146793
145138
143479
141817
140152
138483
136812
135138
133461
131781
130099
128415
126729
125041
123351
121659
119966
118272
116577
114881
113184
111487
109790
108092