/*--------------------------------*- C++ -*----------------------------------*\
  =========                 |
  \\      /  F ield         | OpenFOAM: The Open Source CFD Toolbox
   \\    /   O peration     | Website:  https://openfoam.org
    \\  /    A nd           | Version:  9
     \\/     M anipulation  |
\*---------------------------------------------------------------------------*/
FoamFile
{
    format      ascii;
    class       volVectorField;
    location    "0.008";
    object      UMean;
}
// * * * * * * * * * * * * * * * * * * * * * * * * * * * * * * * * * * * * * //

dimensions      [0 1 -1 0 0 0 0];

internalField   nonuniform List<vector> 
12225
(
(9.86471 0.0439728 0)
(9.58298 0.0571702 0)
(9.30129 0.0537046 0)
(9.01569 0.0523759 0)
(8.73634 0.0518142 0)
(8.46725 0.0506275 0)
(8.21506 0.0471974 0)
(7.97883 0.0446585 0)
(7.766 0.0399837 0)
(7.57032 0.0389434 0)
(7.40045 0.0325552 0)
(7.24766 0.0341722 0)
(7.11777 0.0229684 0)
(7.01399 0.0302546 0)
(6.91582 0.00837901 0)
(6.88593 0.0274916 0)
(6.79731 -0.0187757 0)
(6.9088 0.0151944 0)
(10.03 0.0522821 0)
(10.0957 0.0754823 0)
(10.1362 0.0724877 0)
(10.1519 0.0717662 0)
(10.1568 0.0743683 0)
(10.1575 0.0762603 0)
(10.1542 0.0775708 0)
(10.1468 0.075848 0)
(10.1355 0.0738447 0)
(10.1238 0.0683631 0)
(10.1124 0.0648067 0)
(10.1064 0.0567472 0)
(10.1026 0.0529606 0)
(10.1101 0.0415805 0)
(10.1192 0.0364918 0)
(10.1505 0.0185628 0)
(10.1785 0.00617062 0)
(10.2477 -0.0362678 0)
(10.0312 0.0217934 0)
(10.0699 0.0512322 0)
(10.1104 0.0488094 0)
(10.1373 0.048791 0)
(10.1556 0.0511665 0)
(10.1746 0.0527688 0)
(10.1986 0.0519719 0)
(10.2258 0.0510087 0)
(10.2539 0.0478123 0)
(10.2813 0.0455882 0)
(10.309 0.0394811 0)
(10.3378 0.0355852 0)
(10.3698 0.0255139 0)
(10.406 0.0190115 0)
(10.448 0.00328285 0)
(10.4962 -0.0106664 0)
(10.5523 -0.0372021 0)
(10.6117 -0.0801627 0)
(9.9935 0.0263988 0)
(10.0114 0.0570044 0)
(10.04 0.0578478 0)
(10.0638 0.0574229 0)
(10.0831 0.0592417 0)
(10.1038 0.0602493 0)
(10.1285 0.0599144 0)
(10.1569 0.0578199 0)
(10.1871 0.05474 0)
(10.2187 0.0496811 0)
(10.2518 0.0433208 0)
(10.2874 0.0345525 0)
(10.3259 0.0242612 0)
(10.3682 0.0110396 0)
(10.4144 -0.00522452 0)
(10.4649 -0.0266436 0)
(10.5186 -0.0559209 0)
(10.574 -0.0976167 0)
(9.96186 0.0253207 0)
(9.97407 0.039939 0)
(9.99615 0.0434548 0)
(10.0146 0.042168 0)
(10.0276 0.041009 0)
(10.0416 0.0397 0)
(10.0614 0.0367996 0)
(10.0879 0.0329037 0)
(10.1197 0.0280117 0)
(10.1555 0.0225641 0)
(10.1941 0.0154965 0)
(10.2348 0.00678571 0)
(10.2772 -0.00433145 0)
(10.3214 -0.0183858 0)
(10.3672 -0.0360313 0)
(10.4152 -0.0596772 0)
(10.4638 -0.0897423 0)
(10.5127 -0.130307 0)
(9.92512 0.0187781 0)
(9.94489 0.0386657 0)
(9.96634 0.0482902 0)
(9.98551 0.0492124 0)
(10.0028 0.0476329 0)
(10.0215 0.0454595 0)
(10.0431 0.0419221 0)
(10.0677 0.0365224 0)
(10.0946 0.0293825 0)
(10.1242 0.0207913 0)
(10.157 0.0106827 0)
(10.193 -0.000997495 0)
(10.232 -0.0147757 0)
(10.2737 -0.0312781 0)
(10.3176 -0.0516206 0)
(10.3632 -0.0771205 0)
(10.4095 -0.108956 0)
(10.4552 -0.148494 0)
(9.97701 0.0136422 0)
(9.9824 0.0287908 0)
(10.0014 0.0365922 0)
(10.0227 0.0361938 0)
(10.0404 0.0317151 0)
(10.0553 0.0264431 0)
(10.0714 0.0208211 0)
(10.0913 0.0143892 0)
(10.1158 0.00676793 0)
(10.1444 -0.00228438 0)
(10.1768 -0.0130253 0)
(10.212 -0.0257919 0)
(10.2493 -0.0408755 0)
(10.2882 -0.0588808 0)
(10.3285 -0.0806889 0)
(10.3695 -0.107311 0)
(10.4109 -0.139724 0)
(10.4508 -0.178293 0)
(9.97511 0.019817 0)
(9.99262 0.0296062 0)
(10.0109 0.0345031 0)
(10.03 0.0349903 0)
(10.0495 0.0334446 0)
(10.0681 0.0304976 0)
(10.0862 0.0251634 0)
(10.1057 0.0169131 0)
(10.1279 0.00600413 0)
(10.1531 -0.00685735 0)
(10.1815 -0.0211036 0)
(10.2129 -0.0366187 0)
(10.2474 -0.0538717 0)
(10.2843 -0.0736485 0)
(10.3236 -0.0971076 0)
(10.3637 -0.124945 0)
(10.4048 -0.158188 0)
(10.4437 -0.196286 0)
(10.1025 0.000235899 0)
(10.1218 0.0188431 0)
(10.1358 0.0270387 0)
(10.146 0.0253351 0)
(10.1576 0.0201205 0)
(10.1726 0.0139866 0)
(10.1901 0.00678689 0)
(10.2085 -0.00208934 0)
(10.2266 -0.0130273 0)
(10.2444 -0.0262028 0)
(10.2632 -0.0414239 0)
(10.2843 -0.0587606 0)
(10.3086 -0.0783705 0)
(10.3363 -0.100766 0)
(10.3667 -0.126444 0)
(10.3991 -0.155921 0)
(10.4321 -0.189795 0)
(10.4649 -0.227906 0)
(10.0213 0.00345241 0)
(10.029 0.0196314 0)
(10.0423 0.0260877 0)
(10.0579 0.0253664 0)
(10.0752 0.0208006 0)
(10.0947 0.0144243 0)
(10.1162 0.00710588 0)
(10.1388 -0.00152791 0)
(10.1616 -0.0123697 0)
(10.185 -0.0260812 0)
(10.2094 -0.0427971 0)
(10.236 -0.0622866 0)
(10.264 -0.0844369 0)
(10.2942 -0.109153 0)
(10.3244 -0.136872 0)
(10.356 -0.16776 0)
(10.3851 -0.202542 0)
(10.4153 -0.240703 0)
(9.96903 -0.00329277 0)
(9.97435 0.00940125 0)
(9.98718 0.0152568 0)
(10.0033 0.0130536 0)
(10.0196 0.00580198 0)
(10.0355 -0.00348347 0)
(10.0523 -0.0134387 0)
(10.0709 -0.0242293 0)
(10.0916 -0.0368087 0)
(10.114 -0.0519735 0)
(10.138 -0.0700463 0)
(10.163 -0.0907792 0)
(10.1883 -0.114024 0)
(10.2136 -0.139487 0)
(10.2387 -0.167481 0)
(10.2635 -0.198071 0)
(10.2875 -0.231982 0)
(10.3109 -0.268889 0)
(10.0445 -0.000407669 0)
(10.0479 0.00862584 0)
(10.0616 0.0157544 0)
(10.0784 0.0135121 0)
(10.0955 0.00612833 0)
(10.1125 -0.00271527 0)
(10.1304 -0.0122762 0)
(10.15 -0.0232252 0)
(10.171 -0.0366271 0)
(10.1926 -0.0530115 0)
(10.2136 -0.0722576 0)
(10.2333 -0.0938592 0)
(10.2515 -0.117591 0)
(10.2686 -0.143482 0)
(10.2854 -0.172058 0)
(10.3025 -0.203539 0)
(10.3201 -0.238569 0)
(10.3382 -0.276543 0)
(10.0046 -0.000885973 0)
(10.0117 -0.00186301 0)
(10.0248 0.000702086 0)
(10.0444 -0.00257362 0)
(10.0665 -0.0104394 0)
(10.0864 -0.0204972 0)
(10.1035 -0.0320084 0)
(10.119 -0.0449473 0)
(10.1341 -0.0594224 0)
(10.1496 -0.0755221 0)
(10.166 -0.0934418 0)
(10.1831 -0.113482 0)
(10.2004 -0.136049 0)
(10.218 -0.161565 0)
(10.2352 -0.190433 0)
(10.2528 -0.222647 0)
(10.2694 -0.258275 0)
(10.2865 -0.296686 0)
(10.0301 -0.00196427 0)
(10.0381 0.00425 0)
(10.0478 0.00316669 0)
(10.0599 -0.00461654 0)
(10.0731 -0.0139575 0)
(10.0848 -0.0220658 0)
(10.0948 -0.029869 0)
(10.1034 -0.0399876 0)
(10.1118 -0.0541368 0)
(10.1211 -0.0724104 0)
(10.1326 -0.0938603 0)
(10.1463 -0.117507 0)
(10.1619 -0.142923 0)
(10.1783 -0.170144 0)
(10.1949 -0.199744 0)
(10.2109 -0.231887 0)
(10.2264 -0.267096 0)
(10.2406 -0.304883 0)
(10.0624 -0.0146648 0)
(10.0621 -0.00804974 0)
(10.0672 -0.01158 0)
(10.0745 -0.0188977 0)
(10.0812 -0.0270586 0)
(10.0873 -0.0355271 0)
(10.0956 -0.0450635 0)
(10.107 -0.0572071 0)
(10.1201 -0.0729436 0)
(10.1333 -0.092195 0)
(10.1461 -0.114111 0)
(10.1586 -0.138041 0)
(10.1711 -0.163642 0)
(10.1839 -0.191245 0)
(10.1972 -0.221069 0)
(10.2105 -0.253501 0)
(10.2235 -0.288572 0)
(10.2354 -0.326112 0)
(9.99424 0.0111397 0)
(10.0007 0.00518174 0)
(10.0115 -0.00402232 0)
(10.0255 -0.0133274 0)
(10.0378 -0.0229993 0)
(10.0471 -0.0339641 0)
(10.0557 -0.0467206 0)
(10.0653 -0.0615104 0)
(10.0761 -0.0784743 0)
(10.0874 -0.0977587 0)
(10.0989 -0.119473 0)
(10.1104 -0.143769 0)
(10.1216 -0.170596 0)
(10.1327 -0.199742 0)
(10.1432 -0.23094 0)
(10.1533 -0.263793 0)
(10.1622 -0.298209 0)
(10.1704 -0.333671 0)
(10.0435 -0.0251052 0)
(10.0595 -0.0273199 0)
(10.0734 -0.0326216 0)
(10.0831 -0.0403034 0)
(10.0885 -0.0477315 0)
(10.0915 -0.0548139 0)
(10.0947 -0.0639288 0)
(10.099 -0.0773312 0)
(10.1039 -0.095405 0)
(10.1087 -0.117045 0)
(10.1131 -0.140852 0)
(10.1169 -0.166084 0)
(10.1199 -0.192504 0)
(10.1223 -0.220431 0)
(10.1238 -0.249927 0)
(10.1241 -0.281487 0)
(10.1232 -0.314563 0)
(10.1208 -0.349723 0)
(10.0505 -0.0200095 0)
(10.0483 -0.0215816 0)
(10.0471 -0.0231672 0)
(10.0478 -0.0266843 0)
(10.0497 -0.0331325 0)
(10.0528 -0.0430343 0)
(10.0577 -0.0565434 0)
(10.0632 -0.0729456 0)
(10.0685 -0.0910121 0)
(10.0731 -0.110163 0)
(10.0768 -0.130626 0)
(10.0797 -0.153046 0)
(10.0821 -0.177555 0)
(10.084 -0.204004 0)
(10.0855 -0.231554 0)
(10.086 -0.259841 0)
(10.0854 -0.288247 0)
(10.0832 -0.317015 0)
(10.03 -0.0085029 0)
(10.0368 -0.0238839 0)
(10.0402 -0.0353498 0)
(10.0424 -0.0455362 0)
(10.0463 -0.0556417 0)
(10.0513 -0.0666062 0)
(10.0562 -0.0793559 0)
(10.0605 -0.0945168 0)
(10.0641 -0.112166 0)
(10.0669 -0.132169 0)
(10.0687 -0.154161 0)
(10.0689 -0.177922 0)
(10.0671 -0.203025 0)
(10.0631 -0.229383 0)
(10.0569 -0.2565 0)
(10.0487 -0.284386 0)
(10.0388 -0.31228 0)
(10.0278 -0.340533 0)
(9.98554 -0.0355525 0)
(9.98656 -0.0316456 0)
(9.98747 -0.0343544 0)
(9.98773 -0.0417274 0)
(9.98806 -0.0510793 0)
(9.98952 -0.0618416 0)
(9.99189 -0.0743816 0)
(9.99411 -0.0887445 0)
(9.99536 -0.104384 0)
(9.99528 -0.120597 0)
(9.99361 -0.136799 0)
(9.99033 -0.152873 0)
(9.9853 -0.168901 0)
(9.97862 -0.1854 0)
(9.96998 -0.202574 0)
(9.95967 -0.221014 0)
(9.94713 -0.240343 0)
(9.93332 -0.261205 0)
(9.94696 -0.0167755 0)
(9.93527 -0.0267382 0)
(9.92786 -0.0350394 0)
(9.92662 -0.0447668 0)
(9.92951 -0.0561964 0)
(9.93274 -0.0689371 0)
(9.93377 -0.0825142 0)
(9.93153 -0.096617 0)
(9.92604 -0.111193 0)
(9.91793 -0.126358 0)
(9.90823 -0.142137 0)
(9.8978 -0.158577 0)
(9.8873 -0.17547 0)
(9.87673 -0.192724 0)
(9.8661 -0.210007 0)
(9.85491 -0.227522 0)
(9.84321 -0.244956 0)
(9.83039 -0.26294 0)
(10.0205 -0.000888262 0)
(10.0159 -0.0251388 0)
(10.0148 -0.0350412 0)
(10.0177 -0.0440997 0)
(10.0207 -0.0554795 0)
(10.0209 -0.0663023 0)
(10.0187 -0.0748018 0)
(10.0154 -0.0820167 0)
(10.0114 -0.0899922 0)
(10.0061 -0.100114 0)
(9.99904 -0.112499 0)
(9.98952 -0.126578 0)
(9.97771 -0.141472 0)
(9.96378 -0.156668 0)
(9.94848 -0.171749 0)
(9.93188 -0.186947 0)
(9.91495 -0.202046 0)
(9.89697 -0.217656 0)
(10.0387 -0.00139182 0)
(10.0475 -0.0277418 0)
(10.0529 -0.0431176 0)
(10.0562 -0.0510749 0)
(10.0583 -0.0580884 0)
(10.0584 -0.0668111 0)
(10.0559 -0.0770318 0)
(10.0514 -0.0878392 0)
(10.0458 -0.0984957 0)
(10.0393 -0.108727 0)
(10.0317 -0.118574 0)
(10.0222 -0.128404 0)
(10.0104 -0.138579 0)
(9.99625 -0.149549 0)
(9.97974 -0.161342 0)
(9.96114 -0.174154 0)
(9.94064 -0.187466 0)
(9.91881 -0.201541 0)
(9.94306 -0.0130127 0)
(9.95436 -0.0223077 0)
(9.96017 -0.0366707 0)
(9.95786 -0.0478756 0)
(9.95177 -0.0553778 0)
(9.94594 -0.0610371 0)
(9.94138 -0.0662133 0)
(9.93649 -0.0718248 0)
(9.92953 -0.0785258 0)
(9.91983 -0.0864822 0)
(9.90794 -0.0952606 0)
(9.89484 -0.104225 0)
(9.88165 -0.112894 0)
(9.86877 -0.121271 0)
(9.85632 -0.129532 0)
(9.8437 -0.138187 0)
(9.83081 -0.147326 0)
(9.8169 -0.157433 0)
(10.0069 -0.0245361 0)
(10.0061 -0.0344757 0)
(10.0113 -0.0430925 0)
(10.0166 -0.0497368 0)
(10.0186 -0.0566286 0)
(10.0177 -0.0647878 0)
(10.0166 -0.0730579 0)
(10.0161 -0.079981 0)
(10.0153 -0.0854497 0)
(10.0126 -0.0905998 0)
(10.007 -0.096632 0)
(9.99824 -0.104178 0)
(9.98697 -0.113114 0)
(9.97378 -0.12304 0)
(9.95951 -0.133338 0)
(9.94426 -0.143738 0)
(9.92861 -0.153877 0)
(9.91187 -0.163942 0)
(10.0473 -0.00261389 0)
(10.0607 -0.0267373 0)
(10.0725 -0.0398083 0)
(10.0806 -0.0461993 0)
(10.0831 -0.0515021 0)
(10.0802 -0.0572774 0)
(10.0739 -0.063187 0)
(10.066 -0.0685718 0)
(10.0569 -0.0732058 0)
(10.0467 -0.0773593 0)
(10.0351 -0.08141 0)
(10.0218 -0.0857002 0)
(10.0069 -0.0904245 0)
(9.99048 -0.0957872 0)
(9.97284 -0.101752 0)
(9.95406 -0.10836 0)
(9.93423 -0.115338 0)
(9.91326 -0.122747 0)
(10.0033 -0.0374322 0)
(10.0177 -0.0478766 0)
(10.0264 -0.0520756 0)
(10.0269 -0.054317 0)
(10.0208 -0.0578807 0)
(10.0117 -0.0626739 0)
(10.0038 -0.0675231 0)
(9.99874 -0.0716066 0)
(9.99513 -0.0748798 0)
(9.99068 -0.0778687 0)
(9.98383 -0.081202 0)
(9.97396 -0.0853966 0)
(9.96133 -0.0906303 0)
(9.94639 -0.096813 0)
(9.92977 -0.103511 0)
(9.91171 -0.110379 0)
(9.89261 -0.11701 0)
(9.87239 -0.123359 0)
(9.97342 -0.0195754 0)
(9.98652 -0.0339661 0)
(10.0041 -0.0381155 0)
(10.0196 -0.0398866 0)
(10.0303 -0.04355 0)
(10.0357 -0.0496004 0)
(10.0369 -0.0565085 0)
(10.0347 -0.06249 0)
(10.0292 -0.066541 0)
(10.0212 -0.0687024 0)
(10.0112 -0.0696553 0)
(9.99967 -0.0703909 0)
(9.98696 -0.0716807 0)
(9.97301 -0.0739943 0)
(9.95796 -0.0772554 0)
(9.94154 -0.0813343 0)
(9.92412 -0.0858064 0)
(9.90515 -0.0906476 0)
(10.026 -0.041158 0)
(10.0598 -0.0581822 0)
(10.0849 -0.061483 0)
(10.0983 -0.0627887 0)
(10.1019 -0.0647459 0)
(10.0982 -0.0666391 0)
(10.0888 -0.0679046 0)
(10.0742 -0.0686312 0)
(10.0551 -0.069124 0)
(10.0328 -0.0697715 0)
(10.0087 -0.0709063 0)
(9.98365 -0.0728312 0)
(9.95733 -0.0755973 0)
(9.92943 -0.0791356 0)
(9.8989 -0.0830246 0)
(9.86592 -0.0870228 0)
(9.82954 -0.0907524 0)
(9.79121 -0.0942842 0)
(9.9148 -0.0423626 0)
(9.73437 -0.0496488 0)
(9.55643 -0.0474854 0)
(9.37565 -0.0459332 0)
(9.1945 -0.0459501 0)
(9.01609 -0.0468344 0)
(8.84246 -0.0478784 0)
(8.6744 -0.0484768 0)
(8.51215 -0.0483131 0)
(8.35621 -0.0474857 0)
(8.20654 -0.0463237 0)
(8.06251 -0.0451906 0)
(7.92249 -0.0442882 0)
(7.78574 -0.0437019 0)
(7.65065 -0.0433418 0)
(7.51812 -0.0432115 0)
(7.38617 -0.0431949 0)
(7.25802 -0.0434085 0)
(-0.0420584 0.0816699 -6.02296e-22)
(-0.126868 0.0820118 5.98188e-22)
(-0.211421 0.0831721 0)
(-0.299262 0.0851383 0)
(-0.387731 0.0871102 0)
(-0.478182 0.0891353 -5.83404e-22)
(-0.569792 0.0909962 0)
(-0.662651 0.0925178 0)
(-0.756116 0.0934791 0)
(-0.849857 0.0937468 0)
(-0.943217 0.0932358 5.63227e-22)
(-1.03559 0.0918972 0)
(-1.12631 0.0897313 0)
(-1.21466 0.0867243 0)
(-1.29971 0.0829431 0)
(-1.3806 0.0782806 5.21352e-22)
(-1.4565 0.072794 0)
(-1.52647 0.0664667 0)
(-1.58951 0.05931 0)
(-1.64474 0.0513532 0)
(-1.6912 0.0426717 0)
(-1.72793 0.0332509 0)
(-1.75406 0.0232131 0)
(-1.76874 0.0125728 3.02972e-22)
(-1.77121 0.00153683 -2.53149e-22)
(-1.76079 -0.00982607 1.97091e-22)
(-1.73699 -0.0213765 1.34602e-22)
(-1.69937 -0.0329579 0)
(-1.64768 -0.0444238 0)
(-1.58188 -0.0556213 9.12187e-23)
(-1.50219 -0.0663991 1.78461e-22)
(-1.4089 -0.0765646 0)
(-1.30263 -0.0860752 0)
(-1.18418 -0.0947892 4.67587e-22)
(-1.05434 -0.102598 0)
(-0.914155 -0.109451 0)
(-0.764744 -0.115278 -7.7728e-22)
(-0.607328 -0.120043 0)
(-0.443156 -0.123735 -9.80541e-22)
(-0.273524 -0.126368 -2.15582e-21)
(-0.0997383 -0.127983 0)
(0.0769152 -0.128622 0)
(0.255278 -0.128345 0)
(0.434174 -0.12724 0)
(0.612612 -0.125436 0)
(0.789582 -0.122951 -3.10799e-21)
(0.964253 -0.119933 -3.22318e-21)
(1.13587 -0.116531 -3.32564e-21)
(1.3038 -0.112684 0)
(1.46758 -0.108572 3.4931e-21)
(1.62659 -0.104305 0)
(1.78062 -0.0998077 -3.6146e-21)
(1.92939 -0.0952815 -3.65999e-21)
(2.07274 -0.090715 0)
(2.21056 -0.086154 0)
(2.34276 -0.0816427 0)
(2.46933 -0.0772116 -3.75432e-21)
(2.59028 -0.0728855 0)
(2.70568 -0.0686842 0)
(2.81561 -0.0646229 0)
(2.9202 -0.0607131 0)
(3.01959 -0.0569626 0)
(3.11392 -0.0533766 0)
(3.20335 -0.0499576 0)
(3.28806 -0.0467065 0)
(3.36823 -0.043622 3.65998e-21)
(3.44402 -0.0407019 0)
(3.51564 -0.0379426 0)
(3.58324 -0.0353399 -3.58343e-21)
(3.64702 -0.0328888 -3.55578e-21)
(3.70715 -0.030584 0)
(3.7638 -0.0284195 3.49848e-21)
(3.81714 -0.0263894 -3.46917e-21)
(3.86734 -0.0244876 0)
(3.91455 -0.0227078 3.40986e-21)
(3.95892 -0.021044 0)
(4.00061 -0.0194899 0)
(4.03976 -0.0180397 -3.32065e-21)
(4.0765 -0.0166874 0)
(4.11097 -0.0154274 3.26186e-21)
(4.14328 -0.0142541 0)
(4.17357 -0.0131625 -3.20405e-21)
(4.20193 -0.0121472 -3.17559e-21)
(4.22849 -0.0112037 -3.14747e-21)
(4.25335 -0.0103272 -6.2394e-21)
(4.2766 -0.00951328 6.18458e-21)
(4.29834 -0.00875792 0)
(4.31865 -0.00805709 0)
(4.33762 -0.0074071 0)
(4.35532 -0.00680444 5.97282e-21)
(4.37185 -0.00624578 5.92179e-21)
(4.38725 -0.005728 -5.87151e-21)
(4.4016 -0.00524819 0)
(4.41497 -0.00480352 5.7732e-21)
(4.42741 -0.00439126 5.72514e-21)
(4.43898 -0.00400881 5.67779e-21)
(4.44974 -0.00365365 0)
(4.45972 -0.00332333 0)
(4.46897 -0.00301572 0)
(4.47755 -0.00272889 5.49527e-21)
(4.48548 -0.00246057 0)
(4.49281 -0.00220872 0)
(4.49956 -0.00197215 -5.36514e-21)
(4.50578 -0.00174885 0)
(4.51148 -0.00153657 0)
(4.5167 -0.00133472 -5.24029e-21)
(4.52146 -0.00114105 0)
(4.52578 -0.000953746 0)
(4.52968 -0.000772383 5.12031e-21)
(4.53318 -0.000594223 5.08132e-21)
(4.53628 -0.000421951 0)
(4.539 -0.000260564 -5.00477e-21)
(4.54139 -0.000113516 0)
(4.54345 1.80355e-05 4.93003e-21)
(4.54521 0.000134549 0)
(4.54671 0.000234691 4.857e-21)
(4.54796 0.000316616 4.8211e-21)
(4.54899 0.000379528 0)
(4.54983 0.000424481 0)
(4.55051 0.000454465 0)
(4.55104 0.000473399 0)
(4.55144 0.000485122 0)
(4.55173 0.00049265 0)
(4.5519 0.000497989 0)
(4.55198 0.00050225 4.54739e-21)
(4.55196 0.000505977 -4.51472e-21)
(4.55185 0.000509376 0)
(4.55166 0.000512544 0)
(4.55138 0.000515508 0)
(4.55103 0.00051831 0)
(4.55062 0.000520958 -8.71213e-21)
(4.55013 0.000523483 0)
(4.54958 0.000525889 8.58932e-21)
(4.54898 0.000528204 -8.52875e-21)
(4.54832 0.000530431 0)
(4.5476 0.000532596 0)
(4.54684 0.0005347 0)
(4.54603 0.000536768 8.29184e-21)
(4.54518 0.000538798 8.23391e-21)
(4.54428 0.000540825 0)
(4.54334 0.000542849 8.11957e-21)
(4.54236 0.000544907 8.06314e-21)
(4.54135 0.000547011 -8.00719e-21)
(4.5403 0.000549201 0)
(4.53921 0.000551507 0)
(4.53809 0.000553978 -7.84221e-21)
(4.53693 0.000556655 0)
(4.53574 0.000559603 0)
(4.53452 0.000562887 0)
(4.53326 0.000566603 0)
(4.53197 0.000570853 7.57651e-21)
(4.53064 0.000575782 7.52473e-21)
(4.52927 0.000581552 0)
(4.52786 0.000588386 7.42252e-21)
(4.5264 0.000596534 0)
(4.5249 0.000606367 0)
(4.52334 0.000618248 7.27263e-21)
(4.52172 0.00063286 0)
(4.52002 0.000650612 7.17506e-21)
(4.51824 0.000672979 0)
(4.51635 0.000699946 0)
(4.51433 0.000735192 7.03255e-21)
(4.51216 0.000776687 0)
(4.50981 0.000833527 6.94046e-21)
(4.50718 0.00089895 0)
(4.50432 0.00099076 0)
(4.50095 0.00110081 0)
(4.49729 0.00124246 -6.76575e-21)
(4.49263 0.00145231 0)
(4.48771 0.00164073 6.68543e-21)
(4.48075 0.00211295 0)
(4.47364 0.00224966 0)
(4.4626 0.00348907 0)
(4.45099 0.00311462 0)
(4.43286 0.00672864 0)
(4.40953 0.00422339 0)
(4.37974 0.0156935 0)
(4.31755 0.0067126 -1.30751e-20)
(4.26779 0.0511935 0)
(4.04976 0.0409887 0)
(-0.0509051 0.284523 1.84737e-21)
(-0.159014 0.287053 -1.83474e-21)
(-0.263668 0.287376 0)
(-0.371048 0.289587 1.222e-21)
(-0.476999 0.290616 0)
(-0.582685 0.291069 5.82919e-22)
(-0.686873 0.29061 -1.20352e-21)
(-0.789624 0.28903 -1.19762e-21)
(-0.89036 0.286065 0)
(-0.988787 0.28153 -1.18462e-21)
(-1.0844 0.275339 -5.6264e-22)
(-1.17678 0.267317 0)
(-1.26552 0.257473 0)
(-1.35009 0.245688 0)
(-1.43005 0.231969 0)
(-1.50486 0.216182 -5.20826e-22)
(-1.57381 0.198327 0)
(-1.63631 0.178408 1.04707e-21)
(-1.69151 0.156395 0)
(-1.73864 0.132285 0)
(-1.77702 0.106191 -9.08948e-22)
(-1.80581 0.0781474 0)
(-1.82421 0.0483557 7.70078e-22)
(-1.83139 0.0169697 -3.02733e-22)
(-1.82657 -0.0157235 2.52966e-22)
(-1.80927 -0.049439 -1.96975e-22)
(-1.77889 -0.0838293 -1.34556e-22)
(-1.73496 -0.118486 0)
(-1.6772 -0.152949 0)
(-1.60549 -0.186758 -9.11271e-23)
(-1.51984 -0.219498 1.09773e-22)
(-1.42049 -0.250639 0)
(-1.30787 -0.279835 0)
(-1.1826 -0.306631 -4.67447e-22)
(-1.0456 -0.330743 0)
(-0.898028 -0.351872 0)
(-0.741002 -0.369846 7.7703e-22)
(-0.575832 -0.384534 0)
(-0.403849 -0.395913 -9.48558e-22)
(-0.226419 -0.404023 2.15501e-21)
(-0.0448873 -0.408989 0)
(0.139438 -0.41099 0)
(0.325339 -0.410198 5.33271e-21)
(0.511551 -0.406936 5.64528e-21)
(0.697166 -0.401416 5.93172e-21)
(0.881176 -0.393984 -3.0851e-21)
(1.06259 -0.384809 3.22168e-21)
(1.24091 -0.374416 9.95613e-21)
(1.41548 -0.362734 -6.81357e-21)
(1.58565 -0.35031 -3.49131e-21)
(1.75108 -0.337206 0)
(1.91147 -0.323639 3.61298e-21)
(2.06647 -0.309817 -3.64843e-21)
(2.2161 -0.295888 0)
(2.36018 -0.28197 0)
(2.49865 -0.268181 0)
(2.6315 -0.254614 3.75232e-21)
(2.75875 -0.241343 0)
(2.88048 -0.228426 -7.51117e-21)
(2.99678 -0.215909 0)
(3.10777 -0.203825 -7.48661e-21)
(3.21357 -0.192199 0)
(3.31435 -0.181047 7.43215e-21)
(3.41025 -0.170377 0)
(3.50144 -0.160191 -7.35539e-21)
(3.5881 -0.150489 3.65253e-21)
(3.67038 -0.141264 0)
(3.74847 -0.132507 7.21155e-21)
(3.82252 -0.124208 3.58158e-21)
(3.89272 -0.116353 3.55394e-21)
(3.95923 -0.108927 0)
(4.02221 -0.101915 3.49253e-21)
(4.08182 -0.0953011 3.46736e-21)
(4.13822 -0.0890684 0)
(4.19155 -0.0832003 -3.40808e-21)
(4.24196 -0.0776799 6.75329e-21)
(4.28959 -0.0724907 0)
(4.33458 -0.0676164 3.31891e-21)
(4.37705 -0.0630409 0)
(4.41712 -0.0587487 -9.77778e-21)
(4.45493 -0.0547247 0)
(4.49058 -0.0509543 9.60472e-21)
(4.52419 -0.0474235 3.1739e-21)
(4.55585 -0.0441186 -3.14376e-21)
(4.58567 -0.0410268 -6.23226e-21)
(4.61375 -0.0381357 6.1777e-21)
(4.64017 -0.0354334 0)
(4.66503 -0.0329086 0)
(4.68841 -0.0305507 0)
(4.71038 -0.0283494 -1.79061e-20)
(4.73103 -0.0262951 -5.91861e-21)
(4.75042 -0.0243786 5.86836e-21)
(4.76863 -0.0225912 0)
(4.78572 -0.0209247 5.76803e-21)
(4.80175 -0.0193714 -5.72208e-21)
(4.81679 -0.0179238 -5.67476e-21)
(4.83088 -0.0165749 0)
(4.84409 -0.0153182 0)
(4.85646 -0.0141474 0)
(4.86804 -0.0130567 -5.49236e-21)
(4.87889 -0.0120407 0)
(4.88905 -0.0110939 1.08089e-20)
(4.89855 -0.0102117 1.60859e-20)
(4.90745 -0.00938944 -1.06393e-20)
(4.91578 -0.00862253 0)
(4.92358 -0.00790725 -5.23667e-21)
(4.93088 -0.00723927 0)
(4.93773 -0.00661504 -1.03135e-20)
(4.94415 -0.00603199 5.11693e-21)
(4.95019 -0.00548584 5.07802e-21)
(4.95588 -0.00497652 0)
(4.96124 -0.00450548 1.5006e-20)
(4.96628 -0.0040706 -9.92872e-21)
(4.97104 -0.00366843 -4.92751e-21)
(4.97552 -0.00329866 0)
(4.97973 -0.00296158 -4.85452e-21)
(4.9837 -0.00265634 -1.44555e-20)
(4.98742 -0.00238155 0)
(4.99091 -0.00213501 -9.4958e-21)
(4.99418 -0.00191341 -9.42639e-21)
(4.99723 -0.00171309 -9.35772e-21)
(5.00007 -0.00153055 0)
(5.00271 -0.00136297 0)
(5.00516 -0.00120826 0)
(5.00742 -0.00106511 4.5449e-21)
(5.00952 -0.0009326 4.51247e-21)
(5.01145 -0.000810115 0)
(5.01323 -0.000697066 8.89612e-21)
(5.01488 -0.000592914 8.83273e-21)
(5.01639 -0.000497056 0)
(5.01778 -0.000408935 8.70787e-21)
(5.01906 -0.000327964 1.72922e-20)
(5.02023 -0.000253616 -8.58515e-21)
(5.0213 -0.000185354 -8.52441e-21)
(5.02228 -0.000122708 0)
(5.02318 -6.51963e-05 0)
(5.024 -1.24137e-05 0)
(5.02474 3.60597e-05 -8.28792e-21)
(5.02542 8.05702e-05 8.22987e-21)
(5.02604 0.000121498 1.63452e-20)
(5.0266 0.00015915 -8.1158e-21)
(5.02711 0.000193865 8.05926e-21)
(5.02756 0.000225938 8.00351e-21)
(5.02798 0.000255686 0)
(5.02834 0.000283401 0)
(5.02867 0.000309393 -7.83854e-21)
(5.02896 0.000333949 0)
(5.02922 0.000357393 0)
(5.02944 0.00038005 1.53559e-20)
(5.02963 0.000402297 0)
(5.02979 0.000424529 7.57305e-21)
(5.02991 0.000447221 -7.52145e-21)
(5.03001 0.000470904 0)
(5.03007 0.00049623 7.41918e-21)
(5.0301 0.000523962 0)
(5.0301 0.000555058 0)
(5.03005 0.000590662 -7.26955e-21)
(5.02997 0.000632271 1.44409e-20)
(5.02983 0.000681638 -7.17206e-21)
(5.02962 0.000741217 0)
(5.02935 0.000813735 0)
(5.02898 0.000903291 7.02936e-21)
(5.02851 0.00101455 0)
(5.02789 0.0011534 6.93723e-21)
(5.02712 0.00133107 0)
(5.02607 0.00154903 0)
(5.02485 0.00184764 0)
(5.02308 0.00218519 6.76305e-21)
(5.02112 0.00272631 0)
(5.01805 0.00321928 -6.68278e-21)
(5.01493 0.00430629 0)
(5.00946 0.00491499 0)
(5.00437 0.00737321 1.31537e-20)
(4.99423 0.00774881 -1.30973e-20)
(4.98551 0.0139958 0)
(4.96581 0.0129143 0)
(4.94911 0.0310559 0)
(4.9097 0.0269987 3.91295e-20)
(4.87657 0.0926595 0)
(4.81519 0.104994 -2.6286e-20)
(-0.0500901 0.513153 8.10616e-23)
(-0.159106 0.518103 2.55321e-21)
(-0.263673 0.515955 0)
(-0.371218 0.515611 -2.52347e-21)
(-0.477056 0.51254 0)
(-0.582651 0.508153 0)
(-0.686825 0.502269 -8.24317e-23)
(-0.789809 0.494737 1.19719e-21)
(-0.891157 0.485424 1.27616e-21)
(-0.990677 0.47417 1.18417e-21)
(-1.08809 0.460815 0)
(-1.18301 0.445129 0)
(-1.27501 0.426946 -1.2502e-21)
(-1.36368 0.406084 -2.47894e-21)
(-1.44843 0.382324 2.45161e-21)
(-1.52863 0.355537 0)
(-1.60345 0.325606 2.3729e-21)
(-1.67219 0.292401 -1.0466e-21)
(-1.73399 0.255891 0)
(-1.78787 0.215971 2.16615e-21)
(-1.83289 0.17274 9.08492e-22)
(-1.86804 0.126288 -1.94322e-21)
(-1.89231 0.0768151 -7.69582e-22)
(-1.90473 0.0246283 0)
(-1.90439 -0.0299126 1.43605e-21)
(-1.89049 -0.0863289 1.21317e-21)
(-1.86236 -0.143994 0)
(-1.81937 -0.202265 6.79557e-22)
(-1.76117 -0.260377 0)
(-1.68775 -0.31755 2.92765e-23)
(-1.59918 -0.37296 -2.88185e-22)
(-1.49576 -0.425812 0)
(-1.37811 -0.475321 0)
(-1.24712 -0.520737 0)
(-1.10385 -0.561513 0)
(-0.949562 -0.597125 0)
(-0.785632 -0.627248 0)
(-0.61353 -0.651699 -3.31822e-21)
(-0.434766 -0.670434 5.67311e-21)
(-0.250856 -0.683566 0)
(-0.0632953 -0.691286 0)
(0.126551 -0.693995 0)
(0.31737 -0.692029 -6.04132e-23)
(0.507905 -0.685877 -5.64302e-21)
(0.697191 -0.675966 -1.18148e-20)
(0.884264 -0.662957 1.23408e-20)
(1.06814 -0.647128 6.39006e-21)
(1.24834 -0.629103 -6.62955e-21)
(1.42427 -0.609255 2.47469e-23)
(1.59532 -0.588047 -6.94539e-21)
(1.76128 -0.565831 0)
(1.92182 -0.542991 -7.1948e-21)
(2.07673 -0.519729 1.69533e-23)
(2.22598 -0.496351 0)
(2.36953 -0.473054 0)
(2.50732 -0.450019 7.45517e-21)
(2.63938 -0.427391 0)
(2.76578 -0.405286 0)
(2.88662 -0.383798 -7.48434e-21)
(3.00202 -0.362995 -1.49788e-20)
(3.11211 -0.34293 7.48494e-21)
(3.21705 -0.323637 0)
(3.31699 -0.30514 -7.43069e-21)
(3.41212 -0.287448 0)
(3.50259 -0.270563 -7.33484e-21)
(3.58859 -0.254479 -7.30945e-21)
(3.6703 -0.239186 1.45053e-20)
(3.74787 -0.224665 7.1939e-21)
(3.8215 -0.210898 0)
(3.89134 -0.19786 -1.41899e-20)
(3.95757 -0.185528 0)
(4.02034 -0.173875 -2.0952e-20)
(4.07981 -0.162873 -1.38476e-20)
(4.13613 -0.152495 -1.37306e-20)
(4.18945 -0.142713 1.36129e-20)
(4.23991 -0.1335 -2.02477e-20)
(4.28765 -0.124827 0)
(4.3328 -0.11667 0)
(4.37547 -0.109001 1.31425e-20)
(4.4158 -0.101795 1.95436e-20)
(4.45389 -0.0950278 0)
(4.48987 -0.0886759 -6.40205e-21)
(4.52383 -0.0827165 0)
(4.55587 -0.0771278 1.88615e-20)
(4.58609 -0.0718891 5.92262e-24)
(4.61459 -0.0669805 -5.53271e-24)
(4.64145 -0.062383 -1.22455e-20)
(4.66676 -0.0580787 0)
(4.69059 -0.0540503 1.2035e-20)
(4.71303 -0.0502816 4.1881e-24)
(4.73414 -0.0467571 0)
(4.75401 -0.0434621 0)
(4.77268 -0.0403829 0)
(4.79023 -0.0375062 -1.15378e-20)
(4.80672 -0.0348199 0)
(4.8222 -0.0323123 0)
(4.83674 -0.0299724 0)
(4.85037 -0.0277896 0)
(4.86316 -0.0257543 0)
(4.87514 -0.0238572 -1.09811e-20)
(4.88637 -0.0220896 0)
(4.89689 -0.0204434 -1.08087e-20)
(4.90673 -0.0189109 -1.07233e-20)
(4.91595 -0.0174845 1.06391e-20)
(4.92456 -0.0161577 0)
(4.93262 -0.0149241 1.04741e-20)
(4.94014 -0.0137783 0)
(4.94717 -0.0127145 1.03133e-20)
(4.95374 -0.0117269 -1.02344e-20)
(4.95986 -0.0108112 -3.04679e-20)
(4.96558 -0.00996261 0)
(4.97091 -0.00917542 -3.00094e-20)
(4.97589 -0.00844397 -9.92715e-21)
(4.98054 -0.00776483 0)
(4.98487 -0.00713795 -1.95608e-20)
(4.98891 -0.00656026 -1.94158e-20)
(4.99267 -0.00602775 2.89093e-20)
(4.99617 -0.00553726 0)
(4.99942 -0.00508493 9.49566e-21)
(5.00244 -0.00466631 9.42626e-21)
(5.00525 -0.0042773 2.8072e-20)
(5.00785 -0.00391464 0)
(5.01026 -0.00357602 0)
(5.01249 -0.00325997 0)
(5.01456 -0.00296553 9.08939e-21)
(5.01648 -0.00269192 0)
(5.01825 -0.00243836 0)
(5.01989 -0.00220392 -8.896e-21)
(5.02141 -0.00198756 -8.83261e-21)
(5.02281 -0.00178815 0)
(5.02411 -0.00160458 0)
(5.0253 -0.00143572 -1.7292e-20)
(5.0264 -0.00128052 0)
(5.02742 -0.00113795 1.70488e-20)
(5.02836 -0.00100706 1.69287e-20)
(5.02922 -0.000886926 0)
(5.03002 -0.000776711 0)
(5.03075 -0.000675618 -1.65753e-20)
(5.03142 -0.000582907 -1.61101e-25)
(5.03204 -0.000497863 -1.50348e-25)
(5.03261 -0.000419819 0)
(5.03314 -0.00034812 -3.22368e-20)
(5.03362 -0.000282155 0)
(5.03406 -0.000221315 0)
(5.03446 -0.000165024 0)
(5.03483 -0.000112708 1.5677e-20)
(5.03516 -6.38113e-05 0)
(5.03547 -1.77534e-05 -3.09235e-20)
(5.03574 2.60636e-05 -1.53557e-20)
(5.03599 6.82885e-05 0)
(5.03621 0.00010962 -1.5146e-20)
(5.03641 0.000150842 0)
(5.03657 0.000192848 0)
(5.03671 0.000236676 -4.45146e-20)
(5.03682 0.000283584 2.94748e-20)
(5.03689 0.000335025 0)
(5.03693 0.00039293 2.90771e-20)
(5.03692 0.000459364 -1.44407e-20)
(5.03687 0.000537582 0)
(5.03675 0.000630313 0)
(5.03657 0.000743776 0)
(5.0363 0.000880464 -4.21757e-20)
(5.03592 0.00105431 0)
(5.03539 0.00126256 -1.38747e-20)
(5.03471 0.00154154 0)
(5.03378 0.00186377 0)
(5.03262 0.00233264 0)
(5.03101 0.00283185 0)
(5.02905 0.00366194 0)
(5.02626 0.00442634 0)
(5.02297 0.00599017 -2.65716e-20)
(5.01808 0.00713144 0)
(5.01243 0.0103043 -1.31534e-20)
(5.00366 0.011978 3.92772e-20)
(4.9936 0.0190222 0)
(4.97742 0.0218592 0)
(4.95874 0.0397386 -2.59753e-20)
(4.92987 0.0485699 -2.60587e-20)
(4.89775 0.101857 2.60096e-20)
(4.86135 0.140369 2.62833e-20)
(-0.0491387 0.734716 -4.20647e-21)
(-0.158275 0.743554 -4.17849e-21)
(-0.262889 0.739871 -2.8458e-21)
(-0.371144 0.738005 -1.53052e-21)
(-0.478115 0.732357 0)
(-0.585435 0.724892 2.81151e-21)
(-0.69211 0.715468 -1.51937e-21)
(-0.798379 0.704103 0)
(-0.903689 0.69052 -1.27561e-21)
(-1.00791 0.674466 0)
(-1.11072 0.655643 2.78433e-21)
(-1.21173 0.63381 0)
(-1.31039 0.60861 1.24951e-21)
(-1.40616 0.579748 2.47749e-21)
(-1.4984 0.546898 -2.45017e-21)
(-1.58627 0.50979 0)
(-1.66898 0.468159 -2.37147e-21)
(-1.74564 0.421727 0)
(-1.81526 0.370358 0)
(-1.87675 0.313967 -2.16471e-21)
(-1.92896 0.252605 0)
(-1.97076 0.186372 -3.76872e-22)
(-2.00094 0.115547 0)
(-2.01831 0.0405188 0)
(-2.02178 -0.0381381 4.00843e-22)
(-2.01039 -0.119712 -1.2118e-21)
(-1.98326 -0.203306 -1.36295e-21)
(-1.93975 -0.2879 -6.78534e-22)
(-1.87943 -0.37235 0)
(-1.80218 -0.455461 -4.35588e-22)
(-1.70811 -0.535932 0)
(-1.5977 -0.612525 3.8483e-22)
(-1.47165 -0.684067 0)
(-1.33107 -0.749472 0)
(-1.17729 -0.807852 -1.72877e-21)
(-1.01185 -0.858512 0)
(-0.836445 -0.900981 2.66451e-21)
(-0.652854 -0.935018 1.90265e-22)
(-0.462867 -0.960599 -7.32139e-21)
(-0.268225 -0.977984 8.02441e-21)
(-0.0706694 -0.987534 0)
(0.128269 -0.989776 0)
(0.327284 -0.985415 5.08921e-21)
(0.525009 -0.975093 0)
(0.720358 -0.959564 5.88293e-21)
(0.91251 -0.939691 -6.14892e-21)
(1.10063 -0.91606 -6.38736e-21)
(1.2841 -0.88941 0)
(1.46252 -0.860418 6.78345e-21)
(1.63532 -0.829619 6.94259e-21)
(1.8023 -0.797631 -1.40987e-20)
(1.96339 -0.764812 7.19209e-21)
(2.11838 -0.731632 7.28445e-21)
(2.26732 -0.698378 0)
(2.41022 -0.665349 0)
(2.5471 -0.632781 -7.45249e-21)
(2.67805 -0.600864 0)
(2.80318 -0.569749 0)
(2.92263 -0.539553 1.4989e-20)
(3.03656 -0.510363 1.49744e-20)
(3.14513 -0.482242 0)
(3.24853 -0.455231 0)
(3.34692 -0.429354 0)
(3.44049 -0.40462 0)
(3.52944 -0.381026 1.46857e-20)
(3.61395 -0.358561 -1.4572e-20)