/*--------------------------------*- C++ -*----------------------------------*\
  =========                 |
  \\      /  F ield         | OpenFOAM: The Open Source CFD Toolbox
   \\    /   O peration     | Website:  https://openfoam.org
    \\  /    A nd           | Version:  9
     \\/     M anipulation  |
\*---------------------------------------------------------------------------*/
FoamFile
{
    format      ascii;
    class       volVectorField;
    location    "0.24";
    object      U;
}
// * * * * * * * * * * * * * * * * * * * * * * * * * * * * * * * * * * * * * //

dimensions      [0 1 -1 0 0 0 0];

internalField   nonuniform List<vector> 
12225
(
(9.86107 -0.874318 0)
(9.67248 -0.700192 0)
(9.45897 -0.387592 0)
(9.22466 -0.188478 0)
(9.00349 -0.0843941 0)
(8.81039 -0.0328765 0)
(8.64511 -0.00755158 0)
(8.50412 0.00502363 0)
(8.38394 0.0113351 0)
(8.28106 0.0144708 0)
(8.19209 0.0159656 0)
(8.11417 0.0166344 0)
(8.0449 0.0169202 0)
(7.98246 0.0171141 0)
(7.92395 0.0174085 0)
(7.87035 0.0185095 0)
(7.80107 0.0214729 0)
(7.77477 0.0298724 0)
(10.0547 0.263069 0)
(10.1201 0.36074 0)
(10.118 0.27382 0)
(10.0826 0.187086 0)
(10.0405 0.131161 0)
(9.99392 0.096925 0)
(9.94012 0.0755548 0)
(9.88039 0.0617469 0)
(9.81783 0.0523405 0)
(9.75491 0.0455226 0)
(9.69308 0.0403499 0)
(9.63315 0.0363617 0)
(9.57551 0.0333015 0)
(9.52053 0.0311499 0)
(9.46745 0.0297405 0)
(9.4187 0.0308332 0)
(9.36735 0.0319042 0)
(9.34209 0.0522164 0)
(9.99919 0.0460865 0)
(10.0244 0.0342087 0)
(10.0538 0.0149484 0)
(10.0708 0.0218084 0)
(10.0778 0.0366694 0)
(10.0783 0.0460048 0)
(10.0722 0.0499441 0)
(10.0603 0.0511338 0)
(10.0439 0.0510388 0)
(10.0246 0.0503204 0)
(10.0031 0.0493497 0)
(9.98001 0.0483725 0)
(9.95587 0.0475387 0)
(9.93109 0.047081 0)
(9.90562 0.0470722 0)
(9.8805 0.0488412 0)
(9.85496 0.0515642 0)
(9.83506 0.0628789 0)
(9.9968 0.0064275 0)
(10.0085 0.025017 0)
(10.0342 0.0389356 0)
(10.0528 0.0502988 0)
(10.0644 0.0571024 0)
(10.0731 0.0591568 0)
(10.079 0.0588429 0)
(10.0816 0.0579205 0)
(10.0816 0.0569113 0)
(10.0795 0.0558906 0)
(10.0758 0.0549109 0)
(10.0707 0.0540586 0)
(10.0645 0.0534236 0)
(10.0573 0.0531987 0)
(10.0493 0.0535166 0)
(10.0411 0.055248 0)
(10.0332 0.0580584 0)
(10.0277 0.0644297 0)
(9.99922 0.00673683 0)
(10.0081 0.0335719 0)
(10.0271 0.0460397 0)
(10.0418 0.0508397 0)
(10.0524 0.0539061 0)
(10.0622 0.0554923 0)
(10.0708 0.0558363 0)
(10.0775 0.0556492 0)
(10.0823 0.0552769 0)
(10.0857 0.0548106 0)
(10.0881 0.0543244 0)
(10.0894 0.0539225 0)
(10.09 0.053714 0)
(10.0898 0.0538718 0)
(10.0891 0.0545455 0)
(10.0884 0.0562217 0)
(10.0883 0.0587126 0)
(10.0899 0.062499 0)
(10.0002 0.00907322 0)
(10.0078 0.0321221 0)
(10.0225 0.0419067 0)
(10.035 0.0456586 0)
(10.0448 0.0491157 0)
(10.0542 0.0516493 0)
(10.063 0.0527851 0)
(10.0705 0.0531334 0)
(10.0767 0.0531695 0)
(10.0819 0.0530573 0)
(10.0863 0.0528882 0)
(10.0901 0.0527697 0)
(10.0932 0.0528116 0)
(10.0958 0.0531562 0)
(10.0982 0.0539253 0)
(10.1006 0.0553576 0)
(10.1037 0.057294 0)
(10.108 0.059581 0)
(10.0003 0.00879946 0)
(10.0068 0.0275149 0)
(10.019 0.0370773 0)
(10.0303 0.0417325 0)
(10.0395 0.0456501 0)
(10.0482 0.0484714 0)
(10.0566 0.049878 0)
(10.0641 0.0504672 0)
(10.0706 0.050725 0)
(10.0763 0.0508233 0)
(10.0815 0.0508485 0)
(10.0862 0.0509001 0)
(10.0904 0.0510786 0)
(10.0942 0.0514928 0)
(10.098 0.052224 0)
(10.1018 0.0533629 0)
(10.1062 0.0547486 0)
(10.1115 0.0560622 0)
(10.0004 0.00783632 0)
(10.0057 0.0236914 0)
(10.016 0.0333627 0)
(10.0264 0.0385776 0)
(10.0351 0.0424691 0)
(10.0433 0.0452588 0)
(10.0512 0.0468086 0)
(10.0584 0.0475837 0)
(10.0649 0.0480088 0)
(10.0708 0.0482571 0)
(10.0762 0.0484157 0)
(10.0812 0.0485756 0)
(10.0859 0.0488245 0)
(10.0904 0.0492407 0)
(10.0947 0.0498676 0)
(10.0993 0.0507125 0)
(10.1042 0.0516153 0)
(10.1097 0.0522684 0)
(10.0004 0.0069502 0)
(10.0049 0.020704 0)
(10.0136 0.0300281 0)
(10.023 0.0353903 0)
(10.0312 0.0391708 0)
(10.0389 0.0419266 0)
(10.0464 0.0436119 0)
(10.0534 0.0445518 0)
(10.0598 0.0451108 0)
(10.0656 0.04547 0)
(10.0711 0.0457209 0)
(10.0762 0.0459458 0)
(10.0811 0.0462179 0)
(10.0859 0.0465905 0)
(10.0905 0.0470786 0)
(10.0954 0.047648 0)
(10.1004 0.0481529 0)
(10.1059 0.0483545 0)
(10.0004 0.00616333 0)
(10.0042 0.0181183 0)
(10.0116 0.0267903 0)
(10.0199 0.0321269 0)
(10.0277 0.0358311 0)
(10.035 0.0385558 0)
(10.0421 0.0403338 0)
(10.0488 0.0413985 0)
(10.055 0.0420595 0)
(10.0608 0.0424995 0)
(10.0663 0.0428122 0)
(10.0714 0.0430703 0)
(10.0764 0.043333 0)
(10.0812 0.0436351 0)
(10.0861 0.0439739 0)
(10.0909 0.0443005 0)
(10.096 0.0444929 0)
(10.1012 0.0443864 0)
(10.0003 0.00542647 0)
(10.0036 0.0157955 0)
(10.0099 0.0237038 0)
(10.0173 0.028897 0)
(10.0245 0.0325094 0)
(10.0314 0.0351673 0)
(10.0381 0.0369789 0)
(10.0446 0.0381244 0)
(10.0506 0.0388587 0)
(10.0563 0.0393547 0)
(10.0617 0.0397048 0)
(10.0669 0.0399727 0)
(10.0719 0.0402054 0)
(10.0767 0.0404253 0)
(10.0815 0.0406213 0)
(10.0864 0.040745 0)
(10.0913 0.0407021 0)
(10.0963 0.0403893 0)
(10.0003 0.00477397 0)
(10.0031 0.0138502 0)
(10.0086 0.0210294 0)
(10.0152 0.0259894 0)
(10.0219 0.0294743 0)
(10.0285 0.0320372 0)
(10.0348 0.0338347 0)
(10.041 0.035017 0)
(10.0469 0.0357922 0)
(10.0525 0.0363177 0)
(10.0578 0.0366823 0)
(10.0629 0.0369421 0)
(10.0679 0.0371354 0)
(10.0727 0.0372776 0)
(10.0775 0.0373556 0)
(10.0823 0.0373288 0)
(10.087 0.0371273 0)
(10.0918 0.0366921 0)
(10.0003 0.00416747 0)
(10.0028 0.012083 0)
(10.0075 0.018515 0)
(10.0134 0.0231514 0)
(10.0197 0.0264662 0)
(10.0258 0.0289104 0)
(10.0319 0.0306598 0)
(10.0378 0.0318468 0)
(10.0435 0.03264 0)
(10.049 0.0331773 0)
(10.0542 0.0335415 0)
(10.0593 0.033783 0)
(10.0642 0.0339331 0)
(10.069 0.0340031 0)
(10.0737 0.0339818 0)
(10.0783 0.0338384 0)
(10.0829 0.033523 0)
(10.0875 0.0330092 0)
(10.0003 0.00353558 0)
(10.0024 0.0102446 0)
(10.0064 0.0158225 0)
(10.0117 0.0200042 0)
(10.0174 0.0230611 0)
(10.0232 0.0253281 0)
(10.0289 0.0269778 0)
(10.0346 0.0281275 0)
(10.0401 0.0289087 0)
(10.0454 0.0294351 0)
(10.0505 0.0297805 0)
(10.0554 0.0299892 0)
(10.0603 0.0300869 0)
(10.065 0.0300829 0)
(10.0696 0.0299699 0)
(10.0741 0.0297285 0)
(10.0784 0.0293276 0)
(10.0828 0.0287651 0)
(10.0002 0.0028767 0)
(10.002 0.00833418 0)
(10.0055 0.0129621 0)
(10.0101 0.0165543 0)
(10.0153 0.0192439 0)
(10.0206 0.0212563 0)
(10.026 0.0227401 0)
(10.0314 0.0237956 0)
(10.0366 0.024521 0)
(10.0417 0.0250043 0)
(10.0467 0.0253068 0)
(10.0515 0.0254661 0)
(10.0562 0.0255034 0)
(10.0608 0.0254277 0)
(10.0653 0.0252368 0)
(10.0696 0.0249221 0)
(10.0738 0.0244678 0)
(10.0778 0.0238878 0)
(10.0002 0.00219114 0)
(10.0017 0.00635241 0)
(10.0047 0.00993893 0)
(10.0088 0.0128032 0)
(10.0134 0.0149976 0)
(10.0183 0.0166575 0)
(10.0233 0.0178929 0)
(10.0284 0.018782 0)
(10.0334 0.0193942 0)
(10.0383 0.019792 0)
(10.0431 0.0200217 0)
(10.0478 0.020113 0)
(10.0523 0.0200836 0)
(10.0567 0.0199423 0)
(10.061 0.0196916 0)
(10.0651 0.0193308 0)
(10.0691 0.0188549 0)
(10.0729 0.0182864 0)
(10.0002 0.0014758 0)
(10.0015 0.00428281 0)
(10.0041 0.00673088 0)
(10.0077 0.00872724 0)
(10.0119 0.0102862 0)
(10.0164 0.0114773 0)
(10.0211 0.0123671 0)
(10.0258 0.0130062 0)
(10.0306 0.0134378 0)
(10.0353 0.0137004 0)
(10.0399 0.0138238 0)
(10.0444 0.0138287 0)
(10.0487 0.0137279 0)
(10.053 0.0135294 0)
(10.0571 0.0132378 0)
(10.061 0.012857 0)
(10.0648 0.0123875 0)
(10.0684 0.0118542 0)
(10.0001 0.000713093 0)
(10.0013 0.00206962 0)
(10.0037 0.00325875 0)
(10.0069 0.00423886 0)
(10.0108 0.00501211 0)
(10.015 0.00560311 0)
(10.0194 0.00603676 0)
(10.0239 0.00633309 0)
(10.0285 0.0065098 0)
(10.033 0.00658276 0)
(10.0374 0.00656452 0)
(10.0417 0.00646401 0)
(10.0459 0.00628745 0)
(10.05 0.00603948 0)
(10.0539 0.00572392 0)
(10.0576 0.00534504 0)
(10.0612 0.00490481 0)
(10.0647 0.00442592 0)
(10.0001 -0.000143591 0)
(10.0013 -0.00041896 0)
(10.0035 -0.000666074 0)
(10.0066 -0.000872612 0)
(10.0104 -0.00103615 0)
(10.0145 -0.00117047 0)
(10.0188 -0.00129482 0)
(10.0232 -0.00142305 0)
(10.0276 -0.00156384 0)
(10.032 -0.0017244 0)
(10.0363 -0.00191123 0)
(10.0405 -0.0021293 0)
(10.0445 -0.00238181 0)
(10.0484 -0.00267046 0)
(10.0522 -0.0029957 0)
(10.0558 -0.00335633 0)
(10.0592 -0.00375219 0)
(10.0625 -0.00416636 0)
(10.0001 -0.000967123 0)
(10.0014 -0.0028179 0)
(10.0037 -0.00445561 0)
(10.0071 -0.00579842 0)
(10.0111 -0.00684013 0)
(10.0153 -0.00764221 0)
(10.0197 -0.00827161 0)
(10.0242 -0.0087736 0)
(10.0287 -0.00918269 0)
(10.0331 -0.0095309 0)
(10.0373 -0.00984472 0)
(10.0415 -0.0101428 0)
(10.0455 -0.0104374 0)
(10.0493 -0.0107374 0)
(10.053 -0.0110483 0)
(10.0565 -0.0113733 0)
(10.0599 -0.0117148 0)
(10.0631 -0.012062 0)
(10.0002 -0.00168055 0)
(10.0015 -0.00491976 0)
(10.0042 -0.00777601 0)
(10.0079 -0.0100462 0)
(10.0123 -0.0117458 0)
(10.0168 -0.0130316 0)
(10.0215 -0.0140211 0)
(10.0261 -0.0147739 0)
(10.0307 -0.0153441 0)
(10.0352 -0.0157906 0)
(10.0395 -0.0161605 0)
(10.0437 -0.0164839 0)
(10.0477 -0.0167803 0)
(10.0516 -0.0170637 0)
(10.0552 -0.0173438 0)
(10.0587 -0.0176263 0)
(10.062 -0.0179154 0)
(10.0652 -0.0182038 0)
(10.0002 -0.00236199 0)
(10.0017 -0.00700696 0)
(10.0048 -0.0111095 0)
(10.0092 -0.0142119 0)
(10.0141 -0.0164081 0)
(10.019 -0.0180355 0)
(10.0239 -0.0192746 0)
(10.0288 -0.0201896 0)
(10.0336 -0.0208525 0)
(10.0382 -0.0213461 0)
(10.0427 -0.0217315 0)
(10.0469 -0.0220472 0)
(10.0509 -0.022319 0)
(10.0548 -0.0225664 0)
(10.0584 -0.0228023 0)
(10.0619 -0.0230345 0)
(10.0652 -0.0232682 0)
(10.0683 -0.0234985 0)
(10.0002 -0.00299711 0)
(10.0018 -0.00911446 0)
(10.0056 -0.014489 0)
(10.0108 -0.0183355 0)
(10.0163 -0.0209569 0)
(10.0217 -0.0228533 0)
(10.027 -0.0242193 0)
(10.0321 -0.0251606 0)
(10.0371 -0.0258148 0)
(10.0419 -0.0262935 0)
(10.0464 -0.0266567 0)
(10.0507 -0.0269394 0)
(10.0548 -0.0271703 0)
(10.0586 -0.0273721 0)
(10.0623 -0.0275596 0)
(10.0658 -0.0277411 0)
(10.0691 -0.0279218 0)
(10.0722 -0.0280988 0)
(10.0001 -0.00357273 0)
(10.0019 -0.011544 0)
(10.0064 -0.0179401 0)
(10.0127 -0.022069 0)
(10.0189 -0.0250538 0)
(10.0247 -0.0273556 0)
(10.0304 -0.0288991 0)
(10.0359 -0.0298135 0)
(10.0411 -0.0303758 0)
(10.046 -0.0307639 0)
(10.0506 -0.0310439 0)
(10.0549 -0.0312479 0)
(10.059 -0.0314052 0)
(10.0629 -0.0315392 0)
(10.0666 -0.0316637 0)
(10.07 -0.0317856 0)
(10.0733 -0.0319083 0)
(10.0763 -0.0320279 0)
(9.99997 -0.00369213 0)
(10.0018 -0.0151866 0)
(10.0076 -0.022661 0)
(10.0148 -0.0259934 0)
(10.0214 -0.0285582 0)
(10.0277 -0.031022 0)
(10.034 -0.0328021 0)
(10.0399 -0.0338429 0)
(10.0454 -0.0344457 0)
(10.0505 -0.0348192 0)
(10.0552 -0.0350469 0)
(10.0596 -0.0351775 0)
(10.0637 -0.0352531 0)
(10.0675 -0.0353035 0)
(10.071 -0.0353449 0)
(10.0743 -0.0353857 0)
(10.0774 -0.0354293 0)
(10.0802 -0.0354735 0)
(9.99898 -0.00131089 0)
(9.99999 -0.0179791 0)
(10.0085 -0.0290776 0)
(10.0174 -0.0327044 0)
(10.0244 -0.0341295 0)
(10.0311 -0.0353568 0)
(10.0382 -0.0363046 0)
(10.0448 -0.0369481 0)
(10.0507 -0.0373997 0)
(10.0559 -0.0376996 0)
(10.0605 -0.0378626 0)
(10.0647 -0.0379245 0)
(10.0683 -0.0379266 0)
(10.0716 -0.0378983 0)
(10.0745 -0.0378579 0)
(10.077 -0.0378167 0)
(10.0793 -0.037778 0)
(10.0813 -0.0377411 0)
(9.99528 0.00386774 0)
(9.99333 -0.0103149 0)
(10.007 -0.0271083 0)
(10.0212 -0.0389327 0)
(10.0311 -0.0448719 0)
(10.0391 -0.0464795 0)
(10.0465 -0.045997 0)
(10.0529 -0.045041 0)
(10.058 -0.0441667 0)
(10.062 -0.0433952 0)
(10.0651 -0.0426831 0)
(10.0674 -0.0420275 0)
(10.0689 -0.0414348 0)
(10.0698 -0.0409046 0)
(10.0702 -0.0404345 0)
(10.0702 -0.0400235 0)
(10.0698 -0.0396621 0)
(10.0692 -0.0393234 0)
(9.99144 -0.0172942 0)
(9.99188 0.000363333 0)
(10.01 0.0176619 0)
(10.0295 0.011583 0)
(10.0441 -0.00511615 0)
(10.0541 -0.018834 0)
(10.0599 -0.027182 0)
(10.0622 -0.0320608 0)
(10.0616 -0.0349441 0)
(10.059 -0.0365514 0)
(10.0548 -0.0373303 0)
(10.0494 -0.0376057 0)
(10.0431 -0.0375907 0)
(10.036 -0.0374148 0)
(10.0284 -0.0371616 0)
(10.0205 -0.0368924 0)
(10.0123 -0.0366626 0)
(10.0042 -0.036441 0)
(10.0236 -0.206008 0)
(10.0684 -0.31234 0)
(10.0788 -0.255595 0)
(10.0704 -0.18418 0)
(10.0605 -0.134906 0)
(10.0498 -0.102732 0)
(10.0342 -0.0811723 0)
(10.0129 -0.0666271 0)
(9.98773 -0.0566365 0)
(9.96049 -0.049482 0)
(9.93225 -0.0441258 0)
(9.90374 -0.0399786 0)
(9.87542 -0.036682 0)
(9.84766 -0.0340032 0)
(9.82066 -0.0317943 0)
(9.79456 -0.0299918 0)
(9.76961 -0.0285654 0)
(9.74581 -0.0278315 0)
(9.94226 0.671595 0)
(9.87995 0.567454 0)
(9.77443 0.338465 0)
(9.63235 0.183317 0)
(9.4876 0.0949036 0)
(9.35647 0.0470803 0)
(9.24088 0.021295 0)
(9.13936 0.0070729 0)
(9.05039 -0.000987066 0)
(8.97238 -0.00562882 0)
(8.90359 -0.0083185 0)
(8.84248 -0.0098812 0)
(8.78782 -0.0107872 0)
(8.73861 -0.0113052 0)
(8.69403 -0.0115961 0)
(8.65337 -0.0117846 0)
(8.61579 -0.0119644 0)
(8.5809 -0.0124965 0)
(0.00407397 -0.00983145 -3.50171e-20)
(0.0139565 -0.0147989 3.46021e-20)
(0.022277 -0.0124563 0)
(0.027279 -0.00707704 0)
(0.0282053 -0.00103192 0)
(0.0251253 0.0042831 -3.2492e-20)
(0.0189227 0.0082685 0)
(0.0102956 0.0109675 0)
(-0.00015731 0.0127171 0)
(-0.0119764 0.0138915 0)
(-0.0248995 0.0147567 2.98918e-20)
(-0.0387718 0.0154671 0)
(-0.0534935 0.0161076 0)
(-0.0690103 0.016719 0)
(-0.0852909 0.0173189 0)
(-0.102314 0.0179127 2.6695e-20)
(-0.120064 0.0185006 0)
(-0.138527 0.0190806 0)
(-0.157686 0.0196494 0)
(-0.177527 0.0202026 0)
(-0.198031 0.0207348 0)
(-0.219179 0.0212403 0)
(-0.240948 0.0217133 0)
(-0.263313 0.0221482 2.27746e-20)
(-0.286246 0.0225381 -2.23951e-20)
(-0.309716 0.0228712 2.20397e-20)
(-0.333682 0.0231282 2.17084e-20)
(-0.358095 0.023293 0)
(-0.382896 0.0233946 0)
(-0.408061 0.0235889 -2.08604e-20)
(-0.433659 0.0241885 -2.06257e-20)
(-0.459888 0.0254611 0)
(-0.487073 0.0274508 0)
(-0.515403 0.0300526 -2.00578e-20)
(-0.544474 0.0316312 0)
(-0.573929 0.0296525 0)
(-0.60376 0.0294248 1.96482e-20)
(-0.634042 0.0338769 0)
(-0.665926 0.0370174 1.93149e-20)
(-0.699628 0.0414596 3.82834e-20)
(-0.736047 0.0532612 0)
(-0.775806 0.0784651 0)
(-0.818034 0.0698677 0)
(-0.85947 0.0331334 0)
(-0.893602 0.0279087 0)
(-0.929679 0.0310248 4.00879e-20)
(-0.968329 0.0331244 3.96378e-20)
(-1.00828 0.0339015 3.91939e-20)
(-1.04889 0.0343536 0)
(-1.08997 0.0345329 -3.83354e-20)
(-1.13131 0.0345435 0)
(-1.17279 0.0344427 3.75223e-20)
(-1.21433 0.0342658 3.71329e-20)
(-1.25585 0.0340351 0)
(-1.29732 0.0337642 0)
(-1.33869 0.033462 0)
(-1.37992 0.033134 3.56774e-20)
(-1.42099 0.0327836 0)
(-1.46187 0.0324128 0)
(-1.50253 0.0320226 0)
(-1.54294 0.0316134 0)
(-1.58307 0.0311853 0)
(-1.6229 0.030738 0)
(-1.66239 0.0302712 0)
(-1.70152 0.0297845 0)
(-1.74024 0.0292776 -3.28196e-20)
(-1.77853 0.02875 0)
(-1.81635 0.0282014 0)
(-1.85367 0.0276319 3.1933e-20)
(-1.89045 0.0270412 3.16394e-20)
(-1.92666 0.0264295 0)
(-1.96225 0.0257969 -3.10516e-20)
(-1.9972 0.0251438 3.07563e-20)
(-2.03145 0.0244705 0)
(-2.06498 0.0237775 -3.016e-20)
(-2.09774 0.0230655 0)
(-2.12971 0.0223351 0)
(-2.16083 0.0215871 2.9243e-20)
(-2.19107 0.0208221 0)
(-2.22041 0.0200411 -2.86104e-20)
(-2.24879 0.0192448 0)
(-2.27619 0.0184341 2.79562e-20)
(-2.30257 0.0176095 2.76197e-20)
(-2.3279 0.0167716 2.72764e-20)
(-2.35214 0.015921 5.38518e-20)
(-2.37525 0.0150578 -5.31352e-20)
(-2.39722 0.0141818 0)
(-2.41799 0.0132925 0)
(-2.43755 0.0123888 0)
(-2.45585 0.0114687 -5.00986e-20)
(-2.47286 0.0105294 -4.92933e-20)
(-2.48854 0.00956708 4.84681e-20)
(-2.50285 0.00857709 0)
(-2.51575 0.007554 -4.67563e-20)
(-2.52717 0.00649114 -4.58687e-20)
(-2.53707 0.00538213 -4.49596e-20)
(-2.54536 0.00422662 0)
(-2.55197 0.00304214 0)
(-2.55678 0.0018725 0)
(-2.55966 0.000773787 -4.11033e-20)
(-2.56076 -0.000202393 0)
(-2.56047 -0.00105287 0)
(-2.55869 -0.00187224 3.7939e-20)
(-2.55545 -0.00267733 0)
(-2.55074 -0.00347584 0)
(-2.54456 -0.00426911 3.45394e-20)
(-2.5369 -0.00505722 0)
(-2.52774 -0.00583957 0)
(-2.51707 -0.0066154 -3.09006e-20)
(-2.5049 -0.00738385 -2.96347e-20)
(-2.49122 -0.00814407 0)
(-2.47601 -0.00889521 2.70242e-20)
(-2.4593 -0.00963645 0)
(-2.44107 -0.010367 -2.43108e-20)
(-2.42133 -0.011086 0)
(-2.40008 -0.0117926 -2.14976e-20)
(-2.37734 -0.0124863 -2.00547e-20)
(-2.3531 -0.0131661 0)
(-2.3274 -0.0138313 0)
(-2.30022 -0.0144813 0)
(-2.2716 -0.0151154 0)
(-2.24155 -0.0157329 0)
(-2.21008 -0.0163333 0)
(-2.17723 -0.0169159 0)
(-2.143 -0.0174802 -7.72813e-21)
(-2.10743 -0.0180258 6.10175e-21)
(-2.07054 -0.0185521 0)
(-2.03236 -0.0190586 0)
(-1.99291 -0.019545 0)
(-1.95223 -0.0200107 0)
(-1.91036 -0.0204555 -4.48996e-21)
(-1.86732 -0.020879 0)
(-1.82315 -0.021281 1.13238e-20)
(-1.77788 -0.0216612 -1.47641e-20)
(-1.73156 -0.0220196 0)
(-1.68422 -0.0223559 0)
(-1.6359 -0.0226701 0)
(-1.58664 -0.022962 2.86195e-20)
(-1.53649 -0.0232317 3.2093e-20)
(-1.48548 -0.0234793 0)
(-1.43366 -0.023705 3.90321e-20)
(-1.38108 -0.0239089 4.2492e-20)
(-1.32777 -0.0240911 -4.59417e-20)
(-1.27377 -0.0242521 0)
(-1.21914 -0.0243921 0)
(-1.16391 -0.0245118 -5.6202e-20)
(-1.10813 -0.0246114 0)
(-1.05184 -0.0246915 0)
(-0.99508 -0.0247528 0)
(-0.937891 -0.0247959 0)
(-0.880313 -0.0248215 7.28446e-20)
(-0.822385 -0.0248304 7.60814e-20)
(-0.764143 -0.0248235 0)
(-0.705622 -0.0248017 8.24443e-20)
(-0.646856 -0.0247657 0)
(-0.587878 -0.0247166 0)
(-0.528718 -0.0246553 9.16797e-20)
(-0.469403 -0.0245826 0)
(-0.40996 -0.024499 9.76078e-20)
(-0.350416 -0.0244049 0)
(-0.290796 -0.0243003 0)
(-0.231125 -0.0241827 1.06122e-19)
(-0.171434 -0.0240451 0)
(-0.11175 -0.0238834 1.11529e-19)
(-0.0520985 -0.0236916 0)
(0.00748837 -0.0234211 0)
(0.0668714 -0.023048 0)
(0.126148 -0.022665 -1.18332e-19)
(0.185315 -0.0223058 0)
(0.244384 -0.0219647 1.19838e-19)
(0.303362 -0.0216313 0)
(0.362234 -0.0212947 0)
(0.420956 -0.0209404 0)
(0.479421 -0.0205448 0)
(0.537451 -0.0200623 0)
(0.594543 -0.0194007 0)
(0.650277 -0.0183139 0)
(0.700576 -0.0161722 -2.46945e-19)
(0.749485 -0.0113589 0)
(0.751841 0.00626284 0)
(0.00378531 -0.0280448 1.04082e-19)
(0.0080627 -0.0270635 -1.00066e-19)
(0.00756838 -0.0161996 0)
(0.00462971 -0.00457327 6.06658e-20)
(-0.000348946 0.00632994 0)
(-0.00715924 0.0158002 2.85636e-20)
(-0.0157867 0.023537 -5.57143e-20)
(-0.0261374 0.0295967 -5.44248e-20)
(-0.0380929 0.0342562 0)
(-0.051498 0.0378776 -5.19475e-20)
(-0.0661869 0.0407925 -2.5381e-20)
(-0.0820109 0.0432456 0)
(-0.0988533 0.0453998 0)
(-0.116629 0.0473564 0)
(-0.135279 0.0491749 0)
(-0.154764 0.0508885 -2.25975e-20)
(-0.17506 0.0525148 0)
(-0.196152 0.0540629 4.32355e-20)
(-0.218032 0.0555368 0)
(-0.240697 0.056938 0)
(-0.264151 0.0582666 -4.07e-20)
(-0.288399 0.0595223 0)
(-0.313453 0.0607057 3.92431e-20)
(-0.33933 0.0618173 -1.93137e-20)
(-0.366057 0.0628577 1.90083e-20)
(-0.393666 0.0638257 -1.87264e-20)
(-0.422206 0.0647186 -1.84687e-20)
(-0.451745 0.065541 0)
(-0.482373 0.0663262 0)
(-0.514186 0.0671591 1.78456e-20)
(-0.547249 0.0681637 -1.76302e-20)
(-0.581581 0.0694146 0)
(-0.617091 0.0708611 0)
(-0.653586 0.0723884 1.74158e-20)
(-0.691273 0.0736944 0)
(-0.73082 0.0743698 0)
(-0.771683 0.0751614 -1.72729e-20)
(-0.813021 0.0767207 0)
(-0.854943 0.0779492 1.68914e-20)
(-0.897324 0.0785451 -3.35991e-20)
(-0.938801 0.079022 0)
(-0.976982 0.0806235 0)
(-1.01565 0.0835668 -6.55103e-20)
(-1.05671 0.0848712 -6.50195e-20)
(-1.10031 0.0860264 -6.43086e-20)
(-1.14238 0.0874147 3.16822e-20)
(-1.18269 0.0883116 -3.14759e-20)
(-1.22201 0.0885709 -9.31942e-20)
(-1.26077 0.088419 6.13859e-20)
(-1.29911 0.0879881 3.04314e-20)
(-1.3371 0.0873599 0)
(-1.37478 0.0865911 -2.97887e-20)
(-1.41217 0.0857195 2.93342e-20)
(-1.44925 0.0847705 0)
(-1.48603 0.0837605 0)
(-1.5225 0.0827005 0)
(-1.55865 0.0815969 -2.83323e-20)
(-1.59445 0.0804539 0)
(-1.62989 0.0792735 5.54454e-20)
(-1.66497 0.0780565 0)
(-1.69965 0.0768031 5.44155e-20)
(-1.73391 0.0755126 0)
(-1.76774 0.0741844 -5.34177e-20)
(-1.80111 0.0728176 0)
(-1.834 0.0714115 5.24439e-20)
(-1.86638 0.0699652 -2.59105e-20)
(-1.89823 0.0684783 0)
(-1.92952 0.0669503 -5.10107e-20)
(-1.96022 0.0653813 -2.53365e-20)
(-1.9903 0.0637712 -2.50982e-20)
(-2.01974 0.0621205 0)
(-2.04851 0.0604298 -2.44913e-20)
(-2.07658 0.0586999 -2.43787e-20)
(-2.10392 0.0569319 0)
(-2.13049 0.055127 2.38907e-20)
(-2.15628 0.0532868 -4.71714e-20)
(-2.18126 0.0514127 0)
(-2.20538 0.0495066 -2.31378e-20)
(-2.22864 0.0475701 0)
(-2.25099 0.0456053 6.77545e-20)
(-2.27241 0.043614 0)
(-2.29288 0.0415981 -6.61476e-20)
(-2.31236 0.0395595 -2.18009e-20)
(-2.33084 0.0374999 2.14417e-20)
(-2.34827 0.035421 4.23169e-20)
(-2.36465 0.0333242 -4.17383e-20)
(-2.37994 0.0312107 0)
(-2.39411 0.0290814 0)
(-2.40715 0.0269368 0)
(-2.41903 0.024777 1.18029e-19)
(-2.42973 0.0226012 3.87075e-20)
(-2.43922 0.0204083 -3.80302e-20)
(-2.44749 0.0181963 0)
(-2.45451 0.015963 -3.66049e-20)
(-2.46029 0.0137052 3.59003e-20)
(-2.46481 0.0114187 3.51565e-20)
(-2.4681 0.00910006 0)
(-2.47022 0.00675877 0)
(-2.47124 0.00443582 0)
(-2.47128 0.0021948 3.19971e-20)
(-2.47026 5.76183e-05 0)
(-2.46786 -0.00198447 -6.06787e-20)
(-2.46408 -0.0039879 -8.83543e-20)
(-2.45888 -0.00596605 5.71606e-20)
(-2.45224 -0.00792577 0)
(-2.44415 -0.00986756 2.68245e-20)
(-2.43459 -0.0117902 0)
(-2.42355 -0.0136917 4.96869e-20)
(-2.41103 -0.0155698 -2.39642e-20)
(-2.39702 -0.0174223 -2.29749e-20)
(-2.38151 -0.0192467 0)
(-2.3645 -0.0210411 -6.23363e-20)
(-2.346 -0.0228031 3.95419e-20)
(-2.326 -0.0245308 1.85663e-20)
(-2.30451 -0.0262223 0)
(-2.28153 -0.0278755 1.63719e-20)
(-2.25708 -0.0294888 4.60771e-20)
(-2.23115 -0.0310604 0)
(-2.20376 -0.0325885 2.62855e-20)
(-2.17493 -0.0340716 2.39738e-20)
(-2.14467 -0.0355081 2.1636e-20)
(-2.11299 -0.0368967 0)
(-2.07992 -0.038236 0)
(-2.04548 -0.0395249 0)
(-2.00968 -0.0407623 -6.23778e-21)
(-1.97255 -0.0419473 -4.58289e-21)
(-1.93413 -0.043079 0)
(-1.89442 -0.0441566 -4.65588e-21)
(-1.85348 -0.0451792 -2.16066e-21)
(-1.81131 -0.0461463 0)
(-1.76796 -0.0470573 3.34987e-21)
(-1.72346 -0.0479119 1.07845e-20)
(-1.67785 -0.0487098 -8.42663e-21)
(-1.63116 -0.0494511 -9.95818e-21)
(-1.58343 -0.0501357 0)
(-1.53469 -0.0507637 0)
(-1.48499 -0.0513352 0)
(-1.43436 -0.0518507 -2.1166e-20)
(-1.38285 -0.0523105 2.2639e-20)
(-1.3305 -0.0527155 5.1407e-20)
(-1.27736 -0.0530664 -2.87667e-20)
(-1.22345 -0.0533641 3.01952e-20)
(-1.16883 -0.0536095 3.37846e-20)
(-1.11354 -0.0538038 0)
(-1.05763 -0.0539485 0)
(-1.00113 -0.0540449 -4.01048e-20)
(-0.944083 -0.0540947 0)
(-0.886538 -0.0540993 0)
(-0.828533 -0.0540607 9.57941e-20)
(-0.770109 -0.0539809 0)
(-0.711304 -0.053862 5.20671e-20)
(-0.652157 -0.053706 -5.54685e-20)
(-0.592703 -0.0535152 0)
(-0.532978 -0.053292 5.89405e-20)
(-0.473016 -0.0530387 0)
(-0.412846 -0.0527576 0)
(-0.3525 -0.0524513 -6.65873e-20)
(-0.292005 -0.0521215 1.36382e-19)
(-0.231386 -0.0517701 -7.07992e-20)
(-0.170668 -0.051398 0)
(-0.109876 -0.0510042 0)
(-0.0490305 -0.050587 7.58352e-20)
(0.0118446 -0.0501427 0)
(0.0727251 -0.0496688 7.87445e-20)
(0.133594 -0.0491717 0)
(0.194435 -0.0486517 0)
(0.25523 -0.0480963 0)
(0.316009 -0.0475305 8.36985e-20)
(0.37676 -0.0469793 0)
(0.437477 -0.0464417 -8.5448e-20)
(0.498147 -0.0459048 0)
(0.558745 -0.0453491 0)
(0.619216 -0.0447438 1.74575e-19)
(0.679449 -0.0440373 -1.75897e-19)
(0.739256 -0.0431291 0)
(0.798203 -0.0418249 0)
(0.855841 -0.0396252 0)
(0.909632 -0.0355768 5.42924e-19)
(0.962143 -0.0264437 0)
(0.992754 -0.00430014 -3.69359e-19)
(0.000975932 -0.0335131 -4.21701e-23)
(-0.0020476 -0.0215886 1.29726e-19)
(-0.00820027 -0.00543538 0)
(-0.0155425 0.00947969 -1.11877e-19)
(-0.0241274 0.0229284 0)
(-0.0337933 0.0347988 0)
(-0.0445226 0.045021 1.15136e-23)
(-0.0563713 0.05363 4.83665e-20)
(-0.0693879 0.0607875 4.71677e-20)
(-0.0835755 0.0667411 4.6066e-20)
(-0.098895 0.0717605 0)
(-0.115285 0.0760891 0)
(-0.132679 0.0799223 -4.29721e-20)
(-0.151021 0.083404 -8.40384e-20)
(-0.170266 0.0866351 8.22102e-20)
(-0.190382 0.0896832 0)
(-0.211348 0.0925929 7.87955e-20)
(-0.233154 0.0953934 -3.862e-20)
(-0.255798 0.0981047 0)
(-0.279286 0.100741 7.42861e-20)
(-0.303627 0.103315 3.64869e-20)
(-0.328837 0.105836 -7.16793e-20)
(-0.354937 0.108319 -3.52614e-20)
(-0.381951 0.110778 0)
(-0.409908 0.113229 6.8341e-20)
(-0.438838 0.115691 6.73747e-20)
(-0.468777 0.118187 0)
(-0.499759 0.120749 6.565e-20)
(-0.531814 0.123421 0)
(-0.564945 0.126259 6.41768e-20)
(-0.5991 0.129309 3.17776e-20)
(-0.634164 0.132557 0)
(-0.669958 0.135915 0)
(-0.706253 0.139204 0)
(-0.742984 0.142125 0)
(-0.780283 0.144449 0)
(-0.817959 0.146343 0)
(-0.855579 0.148087 5.93681e-20)
(-0.892949 0.149541 -8.79861e-20)
(-0.930013 0.150688 0)
(-0.966358 0.151775 0)
(-1.00115 0.152228 0)
(-1.03509 0.150538 -3.42761e-23)
(-1.06989 0.147489 5.50823e-20)
(-1.10569 0.145263 1.08762e-19)
(-1.14121 0.143796 -1.07371e-19)
(-1.17607 0.142536 -5.29699e-20)
(-1.2104 0.141251 5.23833e-20)
(-1.24434 0.139885 -7.68911e-23)
(-1.27797 0.138422 5.10423e-20)
(-1.31134 0.136867 0)
(-1.34447 0.13523 4.9846e-20)
(-1.37739 0.133522 -8.46743e-23)
(-1.41009 0.131753 0)
(-1.44257 0.12993 0)
(-1.47483 0.128056 -4.76374e-20)
(-1.50687 0.126135 0)
(-1.53865 0.124167 0)
(-1.57018 0.122152 4.60194e-20)
(-1.60143 0.120088 9.12495e-20)
(-1.63238 0.117975 -4.52401e-20)
(-1.66302 0.11581 0)
(-1.69331 0.113591 4.43041e-20)
(-1.72325 0.111317 0)
(-1.75279 0.108986 4.32014e-20)
(-1.78193 0.106598 4.29414e-20)
(-1.81063 0.104151 -8.48028e-20)
(-1.83886 0.101644 -4.18659e-20)
(-1.8666 0.0990784 0)
(-1.89382 0.0964534 8.21564e-20)
(-1.92048 0.0937698 0)
(-1.94657 0.0910287 1.20687e-19)
(-1.97205 0.0882314 7.95205e-20)
(-1.99689 0.0853796 7.86376e-20)
(-2.02106 0.0824752 -7.77502e-20)
(-2.04453 0.0795204 1.15363e-19)
(-2.06727 0.0765176 0)
(-2.08926 0.0734694 0)
(-2.11046 0.0703786 -7.41307e-20)
(-2.13084 0.067248 -1.09868e-19)
(-2.15037 0.0640805 0)
(-2.16903 0.060879 3.57122e-20)
(-2.18679 0.0576463 0)
(-2.20362 0.0543853 -1.04088e-19)
(-2.21949 0.0510986 -9.22498e-23)
(-2.23438 0.0477887 8.37187e-23)
(-2.24826 0.0444578 6.63106e-20)
(-2.26111 0.041108 0)
(-2.2729 0.037741 -6.41863e-20)
(-2.28361 0.0343585 -4.69259e-23)
(-2.29322 0.0309621 0)
(-2.30172 0.0275533 0)
(-2.30908 0.0241343 0)
(-2.31529 0.0207082 5.85133e-20)
(-2.32034 0.0172803 0)
(-2.32424 0.0138589 0)
(-2.32697 0.0104566 0)
(-2.32854 0.00709074 0)
(-2.32894 0.0037805 0)
(-2.32814 0.000536355 5.08816e-20)
(-2.32607 -0.00267003 0)
(-2.32266 -0.00586659 4.80313e-20)
(-2.31789 -0.00904537 4.65986e-20)
(-2.31175 -0.0122028 -4.51404e-20)
(-2.30421 -0.0153355 0)
(-2.29526 -0.0184399 -4.21477e-20)
(-2.28489 -0.0215122 0)
(-2.27308 -0.0245485 -3.90544e-20)
(-2.25982 -0.0275448 3.74707e-20)
(-2.24512 -0.0304975 1.07942e-19)
(-2.22897 -0.0334026 0)
(-2.21136 -0.0362568 9.81277e-20)
(-2.1923 -0.0390566 3.132e-20)
(-2.17179 -0.0417987 0)
(-2.14982 -0.04448 5.54221e-20)
(-2.12641 -0.0470975 5.19608e-20)
(-2.10156 -0.0496483 -7.24354e-20)
(-2.07528 -0.0521296 0)
(-2.04758 -0.0545388 -2.03977e-20)
(-2.01848 -0.0568733 -1.85826e-20)
(-1.98799 -0.0591308 -5.08416e-20)
(-1.95612 -0.061309 0)
(-1.92289 -0.063406 0)
(-1.88832 -0.0654199 0)
(-1.85244 -0.0673492 -9.94601e-21)
(-1.81527 -0.0691923 0)
(-1.77683 -0.070948 0)
(-1.73715 -0.072615 3.57681e-21)
(-1.69626 -0.0741922 1.6581e-21)
(-1.65418 -0.0756788 0)
(-1.61095 -0.0770739 0)
(-1.5666 -0.0783771 -8.24988e-21)
(-1.52116 -0.0795882 0)
(-1.47468 -0.0807072 1.59788e-20)
(-1.42718 -0.0817344 1.90544e-20)
(-1.3787 -0.08267 0)
(-1.32928 -0.0835143 0)
(-1.27897 -0.0842681 -3.0574e-20)
(-1.22779 -0.0849322 -8.15487e-22)
(-1.17579 -0.0855081 -8.20755e-22)
(-1.12302 -0.0859971 0)
(-1.06951 -0.0864008 -9.23197e-20)
(-1.0153 -0.0867209 0)
(-0.960446 -0.0869593 0)
(-0.904976 -0.0871183 0)
(-0.848937 -0.0872007 6.13867e-20)
(-0.792368 -0.0872089 0)
(-0.735312 -0.0871455 -1.35536e-19)
(-0.677807 -0.0870138 -7.21556e-20)
(-0.619893 -0.0868171 0)
(-0.561608 -0.0865587 -7.91401e-20)
(-0.502989 -0.086242 0)
(-0.444071 -0.085871 0)
(-0.384889 -0.0854494 -2.66224e-19)
(-0.325473 -0.084981 1.83521e-19)
(-0.265856 -0.0844696 0)
(-0.206064 -0.0839191 1.96383e-19)
(-0.146126 -0.0833327 -1.02122e-19)
(-0.0860652 -0.0827131 0)
(-0.0259049 -0.0820631 0)
(0.0343336 -0.0813843 0)
(0.0946297 -0.0806763 -3.36785e-19)
(0.154966 -0.0799378 0)
(0.215326 -0.0791691 -1.16624e-19)
(0.275702 -0.0783763 0)
(0.336093 -0.0775722 0)
(0.396522 -0.0767674 0)
(0.456987 -0.0759681 0)
(0.51747 -0.0751806 0)
(0.577954 -0.0744 0)
(0.638417 -0.07361 -2.55133e-19)
(0.698828 -0.0727822 0)
(0.759129 -0.0718699 -1.30927e-19)
(0.819212 -0.0707928 3.95329e-19)
(0.878903 -0.0694025 0)
(0.937839 -0.0674164 0)
(0.995679 -0.0642201 -2.70266e-19)
(1.05072 -0.058642 -2.73797e-19)
(1.10563 -0.0477516 2.75793e-19)
(1.14838 -0.0252792 2.80594e-19)
(-0.00271588 -0.0257427 -2.05373e-19)
(-0.0107146 -0.00621794 -1.89969e-19)
(-0.020359 0.0128412 -1.14225e-19)
(-0.0307802 0.0295681 -5.25707e-20)
(-0.0420124 0.0445443 0)
(-0.0538703 0.0579241 9.47381e-20)
(-0.0663747 0.0697545 -4.57037e-20)
(-0.0796216 0.0800943 0)
(-0.0937032 0.0890617 -4.32056e-20)
(-0.10868 0.0968332 0)
(-0.12458 0.103616 8.23273e-20)
(-0.141401 0.109615 0)
(-0.159128 0.115016 3.93526e-20)
(-0.177737 0.119966 7.70105e-20)
(-0.197207 0.124583 -7.5391e-20)
(-0.217517 0.128953 0)
(-0.238656 0.133137 -7.23726e-20)
(-0.260617 0.13718 0)
(-0.283398 0.141115 0)
(-0.307001 0.144967 -6.83796e-20)
(-0.331431 0.148755 0)
(-0.356694 0.152496 4.6565e-24)
(-0.382795 0.156205 0)
(-0.40974 0.159896 0)
(-0.437526 0.163581 -4.18846e-24)
(-0.466147 0.16727 -6.20979e-20)
(-0.495584 0.170968 -6.12312e-20)
(-0.525804 0.174678 -6.04141e-20)
(-0.556754 0.178394 0)
(-0.588352 0.182097 -1.17742e-19)
(-0.620478 0.185747 0)
(-0.65298 0.189266 -5.7417e-20)
(-0.685689 0.192546 0)
(-0.718441 0.195447 0)
(-0.751134 0.197792 5.52958e-20)
(-0.783761 0.199474 0)
(-0.816293 0.200577 -5.38452e-20)
(-0.848628 0.20124 -1.13589e-23)
(-0.880673 0.201495 1.04724e-19)
(-0.912381 0.201403 -1.03228e-19)
(-0.943654 0.20105 0)
(-0.974419 0.200255 0)
(-1.00489 0.198578 -4.94593e-20)
(-1.03547 0.196208 0)
(-1.06623 0.193834 -4.80974e-20)
(-1.09696 0.191624 4.74402e-20)
(-1.12752 0.189503 4.68006e-20)
(-1.1579 0.187398 0)
(-1.18811 0.185275 -4.55766e-20)
(-1.21816 0.183114 -4.49909e-20)
(-1.24807 0.180903 8.87823e-20)
(-1.27785 0.17864 -4.38685e-20)
(-1.30749 0.176323 -4.33301e-20)
(-1.33701 0.173952 0)
(-1.36639 0.171528 0)