/*--------------------------------*- C++ -*----------------------------------*\
  =========                 |
  \\      /  F ield         | OpenFOAM: The Open Source CFD Toolbox
   \\    /   O peration     | Website:  https://openfoam.org
    \\  /    A nd           | Version:  9
     \\/     M anipulation  |
\*---------------------------------------------------------------------------*/
FoamFile
{
    format      ascii;
    class       volScalarField;
    location    "0.07";
    object      epsilonU;
}
// * * * * * * * * * * * * * * * * * * * * * * * * * * * * * * * * * * * * * //

dimensions      [0 2 -3 0 0 0 0];

internalField   nonuniform List<scalar> 
12225
(
222.81
168.24
130.598
105.161
88.6924
78.8815
73.9839
72.6081
73.608
76.0409
79.144
82.5472
86.8049
91.3584
96.0238
100.914
106.608
114.955
39.8877
48.574
52.281
55.9598
61.5741
69.9543
81.3446
95.4955
111.704
128.927
145.947
161.35
173.847
182.828
187.753
188.118
182.907
170.975
19.8945
23.8485
26.5085
28.5499
30.4841
32.6206
35.1206
38.0145
41.2123
44.5216
47.6759
50.5872
53.2162
55.3444
56.801
57.4464
57.1404
55.7473
15.8836
17.1842
18.289
19.192
19.9772
20.7203
21.4701
22.245
23.0325
23.7815
24.4851
25.1443
25.7332
26.2216
26.5817
26.7918
26.8381
26.7064
14.8168
15.0403
15.3317
15.6121
15.8648
16.0927
16.3035
16.5015
16.6816
16.8481
17.0031
17.1427
17.2627
17.3587
17.428
17.4697
17.4869
17.4788
14.5151
14.3116
14.2022
14.1413
14.1033
14.0752
14.0504
14.024
13.9974
13.9717
13.9462
13.9204
13.894
13.8676
13.843
13.8232
13.8125
13.8105
14.432
14.072
13.782
13.5448
13.3458
13.1742
13.0215
12.8834
12.7578
12.6428
12.5371
12.4405
12.3531
12.2761
12.2115
12.1619
12.1301
12.1143
14.4103
13.9988
13.6369
13.3189
13.0382
12.7884
12.5647
12.363
12.1803
12.0145
11.864
11.7283
11.6074
11.502
11.4135
11.3434
11.2929
11.2595
14.405
13.9781
13.5912
13.241
12.9239
12.6367
12.3762
12.1396
11.9246
11.7292
11.5522
11.3929
11.251
11.1269
11.0211
10.9343
10.8664
10.8151
14.4037
13.9727
13.5779
13.2165
12.8855
12.5825
12.3052
12.0516
11.8197
11.6082
11.416
11.2424
11.0869
10.9496
10.8307
10.7299
10.6467
10.5793
14.4034
13.9713
13.5742
13.2091
12.8733
12.5643
12.2801
12.019
11.7793
11.5597
11.3593
11.1773
11.0133
10.8669
10.738
10.6261
10.5304
10.4495
14.4033
13.9709
13.5731
13.2068
12.8694
12.5583
12.2716
12.0074
11.7643
11.5409
11.3363
11.1496
10.9803
10.8279
10.6919
10.5716
10.4663
10.3749
14.4033
13.9707
13.5726
13.2058
12.8675
12.5554
12.2673
12.0015
11.7564
11.5307
11.3234
11.1335
10.9604
10.8033
10.6618
10.535
10.4221
10.3224
14.4033
13.9707
13.5722
13.205
12.8662
12.5533
12.2642
11.9971
11.7505
11.5229
11.3133
11.1205
10.9439
10.7826
10.6359
10.503
10.383
10.2758
14.4034
13.9706
13.572
13.2044
12.865
12.5514
12.2614
11.9931
11.745
11.5155
11.3036
11.1081
10.9281
10.7627
10.6111
10.4725
10.3461
10.232
14.4034
13.9707
13.5719
13.2039
12.864
12.5496
12.2586
11.9891
11.7394
11.5081
11.2939
11.0956
10.9122
10.7429
10.5867
10.4428
10.3106
10.1902
14.4035
13.9707
13.5718
13.2035
12.863
12.5479
12.2559
11.9852
11.734
11.5008
11.2843
11.0833
10.8968
10.7237
10.5633
10.4147
10.2772
10.1512
14.4036
13.9708
13.5717
13.2031
12.8622
12.5464
12.2534
11.9815
11.7288
11.4938
11.2752
11.0718
10.8824
10.7061
10.542
10.3892
10.2472
10.1163
14.4036
13.9708
13.5716
13.2028
12.8613
12.5449
12.2511
11.9781
11.724
11.4875
11.2671
11.0615
10.8698
10.6908
10.5237
10.3677
10.222
10.0874
14.4036
13.9708
13.5715
13.2024
12.8607
12.5437
12.2494
11.9756
11.7207
11.4832
11.2616
11.0547
10.8614
10.6807
10.5117
10.3537
10.2058
10.0688
14.4036
13.9708
13.5714
13.2021
12.8602
12.543
12.2484
11.9743
11.719
11.4809
11.2588
11.0513
10.8574
10.676
10.5062
10.3473
10.1986
10.0606
14.4036
13.9707
13.5713
13.2021
12.8601
12.543
12.2485
11.9746
11.7195
11.4818
11.2601
11.0532
10.8599
10.6792
10.5102
10.3522
10.2044
10.0674
14.4037
13.9709
13.5719
13.2034
12.8627
12.5472
12.2549
11.9836
11.7318
11.4979
11.2803
11.078
10.8896
10.7143
10.551
10.399
10.2575
10.127
14.4042
13.9734
13.5782
13.2157
12.8832
12.5779
12.2975
12.0397
11.8024
11.5839
11.3827
11.1973
11.0265
10.8694
10.7248
10.5921
10.4704
10.36
14.4096
13.9938
13.6233
13.2935
12.9993
12.7362
12.4998
12.287
12.0951
11.9221
11.7667
11.6275
11.5037
11.3947
11.2998
11.2184
11.1499
11.0943
14.4526
14.1267
13.8727
13.6692
13.5011
13.359
13.2372
13.1335
13.0471
12.9788
12.9296
12.9008
12.8937
12.9094
12.9485
13.0115
13.098
13.2066
14.7376
14.8221
14.9678
15.1137
15.2448
15.3636
15.48
15.6071
15.7581
15.9458
16.1815
16.4751
16.8346
17.266
17.7731
18.3575
19.0181
19.7481
16.4103
17.9746
19.1448
20.0022
20.6808
21.2886
21.9105
22.6161
23.4653
24.5094
25.7936
27.3565
29.2295
31.4356
33.9877
36.8881
40.1278
43.6766
27.2175
32.7052
35.074
36.3654
37.5325
39.064
41.2648
44.3564
48.5175
53.9045
60.6557
68.8873
78.6839
90.0878
103.092
117.634
133.605
150.762
142.548
119.572
101.605
87.4716
76.3649
67.7032
61.0583
56.1064
52.5964
50.3288
49.142
48.9006
49.4874
50.7977
52.7345
55.2058
58.1235
61.3918
9.41918
3.66453
3.91819
4.02381
4.11353
4.21179
4.34328
4.50506
4.66732
4.82657
4.99985
5.19863
5.41197
5.65932
5.95052
6.28853
6.67167
7.0939
7.54237
8.00032
8.44671
8.85872
39.0971
40.8512
42.0795
43.1267
53.1343
65.0787
79.4302
97.1219
119.463
148.154
184.036
223.782
261.985
291.916
304.513
289.848
242.323
169.356
97.6434
50.8891
6.99729
4.88163
4.17354
4.11722
4.28473
4.47002
4.65049
4.83547
5.03228
5.27654
5.55711
5.71909
5.62056
5.28316
4.82946
4.44133
4.27307
4.43809
5.07462
6.25801
8.24773
46.4217
60.0432
78.4452
118.316
214.517
348.817
489.244
623.964
742.694
839.493
911.806
959.536
984.223
988.416
975.195
947.811
909.438
862.98
810.928
756.293
702.138
649.018
597.423
547.753
500.311
455.308
412.871
373.058
335.861
301.222
269.043
239.198
211.551
185.97
162.348
140.611
120.727
102.717
86.6604
72.6981
60.8929
52.3232
55.2692
49.65
50.6386
52.1433
52.9567
50.7043
11.3094
10.5351
9.74238
8.96629
8.22104
7.50885
6.81922
6.14577
5.5326
4.98888
4.51684
4.13579
3.87893
3.78296
3.86874
4.12205
4.48905
4.89107
5.24792
5.49614
5.59684
5.5358
5.32051
4.97725
4.5498
4.09877
3.68699
3.36805
3.18548
3.17314
3.38575
3.95424
5.1239
7.19691
10.3115
64.8058
134.239
199.92
246.412
269.616
272.127
259.054
235.873
208.426
180.134
152.787
127.564
105.132
86.0168
71.5231
69.3027
15.8248
68.8669
72.5945
86.0732
104.324
126.795
153.129
182.727
214.748
248.027
281.744
316.069
340.396
337.798
299.524
228.018
145.176
17.5473
7.92938
4.7045
4.46147
4.64375
5.56793
7.22137
8.29253
9.24087
10.0442
10.8954
12.0007
13.4996
15.5042
18.0702
21.2316
24.9041
28.9404
33.2062
37.4924
41.6163
45.3747
48.5835
51.3872
53.145
53.952
53.8119
52.9915
51.3206
48.9035
45.9086
42.5441
39.1469
36.3944
35.9383
42.6081
55.3185
70.874
85.2839
94.2679
95.6426
92.156
87.2496
79.994
68.4229
51.888
34.6835
21.2147
12.8306
8.92071
7.98151
8.59049
10.1063
12.3931
15.1042
17.1769
17.3795
15.623
12.942
10.5833
10.0118
12.6567
21.2808
40.4887
73.0327
112.508
145.979
171.328
198.313
221.374
236.148
241.576
238.031
226.899
210.038
189.457
167.122
144.834
124.139
106.241
91.9374
81.6201
75.3055
72.7166
70.9858
69.402
67.9389
66.5797
65.3084
64.1083
62.9603
61.8411
60.7214
59.565
58.3281
56.9603
55.4072
53.6154
51.5401
49.1534
46.4528
43.4657
40.2532
36.9079
33.5408
30.3002
27.2116
25.011
22.9113
20.8608
18.741
16.0868
13.1593
11.3723
10.0211
8.90616
7.9545
7.13285
6.43038
5.85374
5.41539
5.12551
5.01001
5.12214
5.5459
6.37567
7.67918
9.45315
11.5926
13.8961
16.1078
17.9766
19.3032
19.9609
19.8931
19.1025
17.6449
15.6317
13.2369
10.7154
8.37743
6.55467
5.60279
5.87711
8.37111
16.1781
32.589
58.4255
71.6879
75.7229
71.7601
63.2818
53.8236
45.9866
41.4632
40.2041
39.1479
38.3343
37.6946
37.0145
35.9871
34.3083
31.6113
28.0486
26.7517
25.4134
24.1939
23.2788
22.7166
22.4607
22.4316
22.5466
22.73
22.9332
23.2086
26.0979
34.3197
42.7319
46.9305
46.5793
43.8724
4.92995
3.85429
4.25674
5.52827
8.20656
9.75381
11.3676
13.6729
16.2063
19.2727
23.1675
27.8795
33.2212
38.9827
44.9578
50.9414
56.7445
62.2042
67.1196
71.3673
74.8009
77.2481
78.5754
78.6972
77.6425
75.4386
72.177
67.9853
63.0641
57.6515
52.0131
46.4098
41.1095
36.4096
32.6692
30.707
32.0624
36.3561
41.8177
46.5023
49.8329
52.489
54.9121
56.3085
54.4174
47.4095
36.6473
25.7441
17.4136
12.2144
9.57791
9.29931
10.8251
13.6778
17.1202
19.4264
19.1889
17.3285
16.8632
22.3335
38.647
66.7763
95.0523
109.658
117.501
123.157
126.756
128.351
126.035
119.242
108.695
95.8268
82.311
69.6232
58.7594
50.1708
43.8671
39.5882
36.9554
35.5742
35.0926
35.2307
35.7315
36.3322
37.0041
37.7368
38.5226
39.3551
40.2267
41.1275
42.0424
42.9485
43.8129
44.5902
45.2222
45.6387
45.762
45.5139
44.8272
43.6562
41.9863
39.8414
37.2873
34.4204
31.3465
28.2351
25.5386
22.9927
20.5925
18.344
16.2282
14.3203
12.664
11.2237
9.96763
8.87092
7.91371
7.08065
6.35977
5.73941
5.21583
4.7961
4.4966
4.32807
4.29933
4.41593
4.67367
5.05423
5.52615
6.04991
6.58365
7.08728
7.5238
7.85705
8.04703
8.04722
7.81015
7.30544
6.54922
5.66135
4.95227
4.93123
6.54566
11.8662
23.6356
38.6086
47.3775
48.7264
46.0612
41.267
36.5193
32.929
30.6742
29.4853
28.8221
28.4167
28.2777
28.3134
28.2924
27.88
26.7206
24.7872
22.6544
20.4576
18.3598
16.4669
14.8364
13.4673
12.3288
11.3817
10.5889
9.91941
9.35412
8.90016
8.64638
8.96931
10.6142
13.0236
15.1303
16.3127
3.12884
3.4255
5.76213
9.69108
11.6505
15.5089
21.5857
27.029
32.1177
37.2456
42.6202
48.3759
54.447
60.5764
66.4756
71.9721
76.9302
81.2422
84.8212
87.5912
89.4912
90.462
90.4351
89.3284
87.0387
83.5679
79.1033
73.6963
67.5949
61.0206
54.2639
47.6078
41.3187
35.6421
30.7776
26.8886
24.2252
23.4454
24.632
26.9802
29.5956
32.0837
34.5733
37.1556
39.1907
39.1886
36.0256
30.3177
23.9489
18.5327
14.7646
12.7726
13.126
15.7858
20.2722
24.767
26.8475
27.9346
35.3237
52.948
76.4696
90.7748
93.6425
93.1096
91.8291
89.9733
86.7912
81.6584
74.2921
65.3678
56.0599
47.4905
40.3864
35.0043
31.2481
28.8386
27.4483
26.779
26.5934
26.7195
27.0429
27.4949
28.0293
28.6137
29.2465
29.9305
30.6715
31.4776
32.3572
33.3173
34.3604
35.4814
36.6637
37.875
39.0648
40.1617
41.0758
41.7041
41.9417
41.6959
40.9014
39.5354
37.6271
35.2501
32.4922
29.6561
27.0086
24.4427
22.0004
19.715
17.6061
15.6899
13.9697
12.4374
11.0792
9.87996
8.82443
7.89782
7.08592
6.37551
5.7539
5.21088
4.74118
4.35242
4.04686
3.82258
3.67343
3.59007
3.5619
3.57853
3.63063
3.70988
3.80796
3.91456
4.01442
4.0852
4.0995
4.03382
3.8856
3.71913
3.7878
4.73319
7.85343
15.2555
27.2052
36.9367
39.4213
38.4981
36.0037
33.1859
30.7336
28.7345
27.041
25.5328
24.2131
23.176
22.4714
22.0417
21.6814
21.0761
19.9439
18.4586
16.7232
14.9107
13.1907
11.6672
10.3752
9.30432
8.42446
7.70103
7.10275
6.60465
6.18956
5.84847
5.58415
5.42613
5.51326
5.94406
6.63087
7.25021
3.5837
4.48504
9.14061
14.5547
25.2137
34.9531
40.9242
45.8834
51.1089
56.597
62.1309
67.6012
72.8723
77.9297
82.5512
86.5665
89.9372
92.6431
94.6673
95.9893
96.5802
96.4002
95.4013
93.5323
90.7435
86.9804
82.139
76.2005
69.6443
62.4762
55.026
47.6039
40.562
34.218
28.7844
24.3384
20.8684
18.4245
17.3277
17.7045
19.1587
21.1283
23.14
25.0571
26.85
28.151
28.2471
26.71
23.8857
20.6528
17.9265
16.4129
16.9105
20.4094
27.0969
35.3812
42.3348
51.5755
63.3032
74.9355
79.6896
78.8397
75.6525
72.3702
69.0654
65.0914
59.9593
53.6908
46.8125
40.1471
34.3919
29.904
26.7093
24.623
23.3799
22.723
22.4456
22.401
22.4943
22.6691
22.894
23.1539
23.4488
23.7674
24.112
24.4905
24.9163
25.4074
25.9857
26.6743
27.4947
28.4634
29.5871
30.857
32.2437
33.6915
35.1153
36.4026
37.4222
38.04
38.1376
37.6358
36.5126
34.8032
32.5916
30.255
27.8683
25.4664
23.1191
20.8786
18.7799
16.8441
15.0806
13.4895
12.0641
10.7942
9.66746
8.67052
7.78998
7.01314
6.32764
5.72195
5.18575
4.71107
4.29894
3.94669
3.65125
3.40847
3.21328
3.06037
2.94481
2.86225
2.80872
2.77988
2.76991
2.7709
2.77471
2.77931
2.80236
2.9229
3.4094
4.9751
9.08463
17.3548
27.6344
33.5785
34.1357
33.1425
31.6767
30.0631
28.3512
26.5136
24.543
22.5553
20.7358
19.2294
18.1034
17.3106
16.679
15.9077
14.9233
13.6782
12.2593
10.814
9.47432
8.31632
7.36042
6.59179
5.98064
5.49508
5.1073
4.79548
4.54368
4.34124
4.18348
4.07204
4.01956
4.07225
4.23041
4.42208
5.18146
8.22535
18.886
33.0384
43.7449
51.6936
58.5185
64.4146
69.6863
74.5648
79.124
83.3357
87.1235
90.4204
93.2795
95.5929
97.3874
98.6907
99.5126
99.8393
99.6332
98.838
97.3873
95.2165
92.2737
88.5248
83.9404
78.4741
71.983
64.5784
56.767
48.7105
40.8076
33.5034
27.1834
22.0569
18.1204
15.2321
13.285
12.419
12.7149
13.9647
15.7581
17.5637
19.0865
20.2731
21.0258
21.1348
20.5134
19.4073
18.4444
18.6119
20.9401
26.9998
38.0879
53.1159
67.5447
72.1406
71.0512
69.8388
67.0428
63.3868
59.7508
56.2516
52.4243
47.8985
42.7213
37.3097
32.2317
27.9576
24.7016
22.432
20.9685
20.0868
19.5874
19.3244
19.2056
19.1785
19.215
19.2982
19.4165
19.5677
19.7328
19.895
20.0506
20.2049
20.3719
20.5745
20.8426
21.2112
21.7174
22.3968
23.2792
24.3828
25.7074
27.226
28.8776
30.5616
32.1403
33.4548
34.3441
34.67
34.3521
33.3711
31.8637
30.0812
28.08
25.9592
23.8069
21.6915
19.6632
17.7559
15.9901
14.3748
12.9112
11.5945
10.4163
9.36609
8.43217
7.60271
6.8659
6.21061
5.62689
5.10558
4.64224
4.23409
3.87695
3.56692
3.30009
3.07259
2.8808
2.72147
2.59174
2.48897
2.41058
2.35451
2.32163
2.32181
2.38819
2.62135
3.31733
5.23892
9.86819
18.0898
26.4716
30.2828
30.4772
30.0269
29.3347
28.2131
26.6369
24.6804
22.4837
20.2676
18.2352
16.5232
15.1978
14.1893
13.3765
12.5865
11.6724
10.6042
9.43743
8.27774
7.22197
6.32574
5.60187
5.03542
4.59978
4.2673
4.01438
3.82287
3.67967
3.57569
3.50524
3.46582
3.4589
3.48617
3.55335
3.63069
9.61127
18.4988
36.7437
51.3504
61.3518
69.2789
75.798
81.0776
85.4583
89.2002
92.3977
95.0526
97.1396
98.6491
99.6513
100.363
100.884
101.258
101.474
101.469
101.144
100.37
99.013
96.9545
94.1207
90.4916
86.0862
80.9274
75.0051
68.2084
60.3312
51.8585
43.1771
34.7973
27.302
21.1307
16.4309
13.0684
10.7757
9.34858
8.82135
9.20748
10.3928
12.0405
13.6356
14.8703
15.7486
16.3586
16.7438
17.0327
17.7488
20.0907
25.5722
35.4849
53.1548
75.6482
81.6874
70.9298
63.4425
58.6689
54.718
51.1933
47.8766
44.414
40.5177
36.1983
31.7615
27.6319
24.1594
21.5019
19.6217
18.3631
17.5419
17.0042
16.6478
16.4179
16.2908
16.2569
16.3093
16.4373
16.6242
16.8472
17.037
17.1764
17.2588
17.2886
17.2818
17.2648
17.2734
17.35
17.5414
17.8953
18.4571
19.2656
20.3467
21.7053
23.315
25.1065
26.9578
28.7067
30.1775
31.1745
31.5696
31.303
30.5089
29.2906
27.7484
25.9882
24.1064
22.1836
20.2836
18.4531
16.7242
15.1167
13.64
12.2964
11.0826
9.99177
9.01493
8.14189
7.36216
6.66565
6.04309
5.48609
4.98726
4.54334
4.14966
3.80194
3.49618
3.22865
2.99598
2.79518
2.62376
2.47969
2.36163
2.26978
2.20859
2.19297
2.2647
2.54032
3.33606
5.42547
10.1777
17.8431
24.6963
27.4384
27.7729
27.852
27.6209
26.7522
25.2312
23.2197
20.9726
18.7242
16.6254
14.8305
13.4107
12.2901
11.3606
10.5099
9.64373
8.72163
7.76
6.82062
5.97082
5.25297
4.67772
4.23333
3.89805
3.64925
3.46802
3.34038
3.2565
3.20948
3.19454
3.20915
3.25306
3.32401
3.41464
3.49793
18.2543
34.5678
55.6155
68.7642
78.4525
85.6613
90.848
94.5333
97.1069
98.8125
99.7992
100.176
100.037
99.4712
98.5755
97.9217
97.7365
98.0007
98.6073
99.3834
100.1
100.487
100.258
99.1565
97.0127
93.7927
89.5957
84.5807
78.8676
72.4656
65.2585
56.9831
47.7241
38.3194
29.4729
21.9202
16.0969
11.9799
9.24776
7.52396
6.56372
6.35979
6.86131
7.99213
9.44179
10.7767
11.8015
12.6276
13.466
14.5951
16.7149
21.3662
30.6001
46.5081
69.9646
86.2307
76.5964
61.811
53.7101
48.8388
45.2595
42.155
39.0619
35.7021
32.0408
28.2869
24.772
21.7858
19.4706
17.8082
16.6771
15.927
15.4324
15.1127
14.9279
14.8622
14.9083
15.0566
15.29
15.5845
15.9121
16.2021
16.3981
16.4829
16.451
16.3105
16.0831
15.8035
15.5157
15.2707
15.1223
15.1243
15.3282
15.7803
16.5197
17.5722
18.9417
20.5981
22.4536
24.3522
26.1456
27.5836
28.524
28.8717
28.6908
28.0327
26.9789
25.6252
24.0669
22.3901
20.6678
18.9573
17.302
15.7317
14.2653
12.9129
11.6775
10.5571
9.54611
8.637
7.82104
7.08929
6.4332
5.84487
5.31683
4.84466
4.42332
4.04825
3.71523
3.42044
3.16049
2.9325
2.73418
2.56394
2.42127
2.30776
2.22946
2.20282
2.2723
2.56112
3.39103
5.50817
10.1016
17.0166
22.7489
24.9863
25.5863
26.0092
26.0147
25.3126
23.9227
22.0569
19.9458
17.794
15.7519
13.9343
12.4032
11.1374
10.08
9.17637
8.36047
7.56987
6.77856
6.009
5.30601
4.70512
4.21898
3.84098
3.55488
3.34308
3.19112
3.08877
3.02912
3.00721
3.0192
3.06241
3.13501
3.23338
3.34723
3.45612
29.576
51.8985
72.3472
84.213
92.488
97.3272
99.5595
99.8899
98.8511
96.872
94.3253
91.5372
88.7827
86.283
84.2016
83.0863
83.2128
84.4671
86.667
89.5619
92.8146
95.9905
98.5725
100.023
99.907
98.04
94.5583
89.8158
84.1787
77.8662
70.897
63.1138
54.2058
44.0146
33.8448
24.6576
17.3198
12.0924
8.67543
6.56769
5.34091
4.76168
4.80837
5.40834
6.46628
7.6907
8.78825
9.74547
10.8166
12.47
15.6735
22.1135
33.551
51.8513
74.8475
81.8512
65.3844
52.3374
45.3849
41.2412
38.1688
35.3611
32.4373
29.2935
26.0562
22.9863
20.3426
18.2762
16.8023
15.8338
15.2421
14.9102
14.7594
14.7499
14.8662
15.0998
15.4371
15.8538
16.3153
16.7797
17.2015
17.5124
17.683
17.6889
17.5189
17.179
16.6941
16.106
15.4706
14.8525
14.3182
13.9323
13.7523
13.8239
14.1869
14.8725
15.8973
17.2627
18.9304
20.7391
22.6103
24.233
25.4892
26.3011
26.6252
26.4699
25.8853
24.9461
23.7369
22.3412
20.8346
19.2813
17.7327
16.228
14.7951
13.452
12.209
11.0696
10.0327
9.09406
8.24721
7.48477
6.79913
6.18298
5.62931
5.13276
4.68805
4.29037
3.93535
3.61902
3.33793
3.08917
2.87053
2.68068
2.51969
2.39016
2.29939
2.26466
2.33027
2.6179
3.43884
5.48298
9.74923
15.8871
20.793
22.8052
23.6385
24.2686
24.4212
23.8811
22.694
21.0553
19.163
17.1711
15.203
13.3702
11.7474
10.3561
9.2027
8.2805
7.53276
6.86793
6.21901
5.57711
4.9732
4.44208
4.0016
3.65134
3.38054
3.17612
3.02735
2.92697
2.87029
2.85392
2.87511
2.93219
3.02411
3.14867
3.29667
3.45309
40.6928
66.2231
84.5723
94.5134
99.5746
100.225
97.7629
93.1972
87.3993
81.087
74.8473
69.1564
64.4094
60.9194
58.8825
58.3059
59.287
61.7383
65.5853
70.7175
76.9126
83.75
90.546
96.371
100.231
101.43
99.8981
96.1431
90.8736
84.6465
77.723
70.0757
61.4774
51.5889
40.3387
29.4521
20.2363
13.4636
9.02718
6.34168
4.79336
3.97213
3.70464
3.94309
4.62234
5.60101
6.63932
7.64316
8.8441
10.8504
14.8234
22.3426
34.7192
53.4145
72.4215
71.2869
54.8004
44.3554
38.8288
35.4323
32.7546
30.1639
27.4383
24.6164
21.8961
19.5145
17.642
16.3306
15.5223
15.0966
14.9285
14.9292
15.056
15.2978
15.6535
16.1162
16.666
17.27
17.8852
18.462
18.946
19.2994
19.491
19.4849
19.2592
18.8117
18.1627
17.3534
16.4434
15.5067
14.6228
13.8712
13.3274
13.0401
13.0456
13.375
14.0402
15.0528
16.4373
18.0099
19.6829
21.3104
22.7381
23.8379
24.5271
24.7756
24.5988
24.0447
23.1795
22.0766
20.8076
19.4377
18.0231
16.6094
15.232
13.9166
12.6804
11.533
10.4786
9.5168
8.64401
7.85489
7.1431
6.50205
5.92533
5.40695
4.9415
4.52402
4.15
3.81536
3.51656
3.25065
3.01536
2.80946
2.63325
2.48981
2.38721
2.3433
2.4012
2.67585
3.45545
5.35611
9.20965
14.613
18.8975
20.8066
21.7897
22.5466
22.8201
22.4505
21.4925
20.1048
18.4449
16.6188
14.7325
12.9013
11.214
9.73841
8.54217
7.65109
6.99812
6.45618
5.92322
5.37046
4.82502
4.32679
3.9009
3.55321
3.2777
3.06485
2.90674
2.79837
2.73698
2.7212
2.7509
2.82759
2.95326
3.12746
3.34119
3.57876
49.1607
74.7652
90.2793
97.358
98.2131
94.1973
87.1188
78.4004
69.1699
60.2275
52.138
45.3173
40.0804
36.6439
35.1482
35.1482
36.4435
39.0462
43.0635
48.6597
55.9819
65.0187
75.3727
86.0158
95.2841
101.44
103.612
102.151
98.0729
92.3694
85.6594
78.131
69.6548
59.9555
48.7303
36.3419
25.034
16.2372
10.3227
6.7765
4.77585
3.69652
3.21145
3.20869
3.62395
4.3712
5.2866
6.27507
7.5573
9.81987
14.2722
22.2054
34.6386
52.2033
65.8895
60.0838
46.043
38.0281
33.7269
30.9226
28.5417
26.1536
23.6814
21.2517
19.0766
17.3445
16.1453
15.4489
15.1368
15.0684
15.1403
15.3072
15.5661
15.9287
16.3994
16.9682
17.6107
18.2921
18.9701
19.5971
20.1203
20.5307
20.7771
20.8119
20.6029
20.1408
19.4427
18.5472
17.5098
16.4044
15.3128
14.3126
13.5022
12.9431
12.6645
12.7027
13.0628
13.7455
14.7404
16.004
17.4575
18.9779
20.4218
21.6533
22.568
23.1061
23.2522
23.0264
22.4735
21.6512
20.6222
19.448
18.1847
16.8814
15.5783
14.3075
13.0922
11.9484
10.8853
9.90697
9.01325
8.20125
7.46629
6.80277
6.20505
5.66681
5.18259
4.74735
4.35645
4.00572
3.69155
3.41089
3.16145
2.94193
2.75262
2.59665
2.48214
2.42683
2.47162
2.72154
3.43384
5.14353
8.54852
13.285
17.0995
18.9458
19.9865
20.8081
21.1935
20.996
20.2597
19.1086
17.663
15.9958
14.1993
12.3875
10.6697
9.16773
7.99953
7.19796
6.66626
6.23997
5.79321
5.29198
4.77012
4.27718
3.84596
3.48727
3.19829
2.97189
2.8021
2.68578
2.62229
2.61309
2.66151
2.77209
2.94762
3.1851
3.47088
3.78542
53.7544
76.8982
89.3966
93.514
90.7896
83.4185
73.5795
62.9019
52.4907
43.0286
34.9548
28.5532
23.9633
21.1926
20.1667
20.3867
21.5028
23.5537
26.6931
31.1909
37.4364
45.9099
56.9841
70.3807
84.4626
96.3611
103.676
105.948
104.229
99.887
93.9543
86.9061
78.7478
69.2349
58.1336
45.2495
31.9441
20.7339
12.7447
7.8977
5.22736
3.81616
3.13127
2.95247
3.20184
3.78565
4.58529
5.54138
6.89043
9.34831
14.0372
21.9256
33.9065
49.2882
57.9404
50.3891
39.1577
33.0847
29.7217
27.3618
25.2253
23.056
20.8827
18.8767
17.236
16.0896
15.4427
15.1848
15.1587
15.2412
15.3809
15.5821
15.8689
16.2576
16.7472
17.3224
17.9586
18.6258
19.2877
19.9014
20.4497
20.907
21.2137
21.3102
21.1513
20.7192
20.0314
19.1332
18.0761
16.9318
15.7908
14.7022
13.7657
13.0706
12.6249
12.4506
12.5602
12.9629
13.6623
14.6424
15.8536
17.2041
18.5713
19.8248
20.8524
21.576
21.9565
21.9906
21.7012
21.1294
20.3257
19.3441
18.2375
17.0549
15.8393
14.6264
13.4447
12.3153
11.2524
10.2645
9.3551
8.52413
7.76893
7.08522
6.46834
5.91189
5.41052
4.95914
4.55304
4.18798
3.86023
3.56669
3.30497
3.07368
2.87296
2.7057
2.57956
2.51128
2.53836
2.75361
3.37944
4.86933
7.81613
11.9552
15.4141
17.2104
18.2299
19.0463
19.5186
19.4841
18.9513
18.0108
16.7544
15.2322
13.5243
11.7466
10.044
8.59288
7.53536
6.87993
6.48584
6.15686
5.76024
5.27374
4.74731
4.24183
3.79559
3.42172
3.11868
2.88053
2.70265
2.58355
2.5248
2.53052
2.60621
2.75627
2.97974
3.26721
3.59908
3.95353
54.4344
73.9484
83.9154
85.9504
81.2235
72.4094
61.7717
50.8747
40.6592
31.6915
24.3405
18.8017
15.0812
13.0338
12.449
12.8179
13.7897
15.3696
17.6739
20.9306
25.499
31.9669
41.2274
54.152
70.3311
86.7532
99.3356
106.109
107.691
105.623
101.262
95.3603
88.0847
79.202
68.4217
55.6053
41.0981
27.4404
16.7649
9.95426
6.21975
4.31909
3.39601
3.06718
3.19734
3.67152
4.38422
5.31553
6.73267
9.34079
14.0774
21.6811
32.8781
45.4989
50.1959
42.6697
33.8271
29.2063
26.5348
24.5154
22.6015
20.6691
18.8169
17.2338
16.0865
15.4301
15.1798
15.1672
15.2415
15.3338
15.4499
15.6256
15.8895
16.2494
16.6952
17.2074
17.7639
18.3409
18.9139
19.4592
19.9858
20.4559
20.8091
20.9741
20.8883
20.517
19.8705
19.0125
17.9961
16.8757
15.7868
14.7593
13.8518
13.1191
12.5994
12.313
12.2703
12.4825
12.9626
13.7138
14.7103
15.8864
17.1407
18.3557
19.4206
20.249
20.7875
21.0144
20.9348
20.5736
19.9685
19.1643
18.2086
17.1478
16.0251
14.8785
13.7397
12.6337
11.5791
10.5883
9.66863
8.8228
8.05045
7.34892
6.71465
6.14148
5.62433
5.15819
4.73832
4.3604
4.02061
3.71574
3.44331
3.20179
2.99112
2.81375
2.67659
2.59479
2.60141
2.77563
3.30377
4.56119
7.05421
10.651
13.8368
15.6036
16.5562
17.2899
17.7867
17.8814
17.528
16.7739
15.683
14.2852
12.6567
10.9367
9.31912
8.01557
7.15191
6.68419
6.42377
6.15786
5.76945
5.26464
4.71462
4.1889
3.72676
3.34031
3.02755
2.78292
2.6027
2.48682
2.43864
2.46373
2.56732
2.75054
3.00665
3.32013
3.6681
4.02907
51.2091
68.7765
76.8183
77.762
72.5239
63.7134
53.4863
43.2183
33.6882
25.4042
18.7206
13.8121
10.6691
9.13426
8.9821
9.62132
10.6773
12.1161
14.0208
16.5563
19.9362
24.5991
31.4508
41.9233
57.109
75.2517
91.5779
102.424
107.476
108.152
106.016
101.972
96.3178
88.8469
79.1328
66.8399
52.2315
36.7249
23.0904
13.5143
8.04142
5.32294
4.04367
3.53016
3.54633
3.93134
4.57308
5.49129
6.98481
9.69421
14.3398
21.5588
31.6741
41.4086
43.3561
36.6462
29.8039
26.1425
23.969
22.2233
20.521
18.8322
17.2998
16.1133
15.392
15.1067
15.097
15.1777
15.243
15.2862
15.3531
15.4896
15.7162
16.0277
16.403
16.8176
17.2494
17.6799
18.1022
18.5226
18.9631
19.3886
19.7465
19.959
19.9488
19.6626
19.0812
18.2932
17.3691
16.3778
15.3838
14.4437
13.6112
12.9308
12.4309
12.1237
12.0156
12.1198
12.4581
13.0478
13.8809
14.9108
16.0545
17.2082
18.2681
19.1473
19.785
20.1479
20.2274
20.0349
19.5961
18.9467
18.1276
17.1816
16.1504
15.0725
13.9814
12.9049
11.8649
10.8773
9.95232
9.09578
8.30952
7.59275
6.94294
6.35452
5.82289
5.34324
4.91086
4.52139
4.17092
3.85613
3.5744
3.32404
3.10472
2.9184
2.77107
2.67595
2.66126
2.79211
3.21947
4.2461
6.30023
9.38701
12.3476
14.1238
15.014
15.6069
16.0348
16.1811
15.9562
15.3524
14.397
13.1019
11.5622
9.96178
8.53382
7.48291
6.87842
6.60952
6.45014
6.19675
5.77341
5.22604
4.64478
4.10066
3.62833
3.23611
2.92043
2.67564
2.49874
2.39077
2.35618
2.40066
2.52751
2.7337
3.00753
3.32971
3.67672
4.02836
47.5643
63.8969
69.5793
70.5837
65.8794
57.9472
48.7541
39.4905
30.8135
23.1815
16.9291
12.2377
9.17325
7.69958
7.79808
8.76856
10.056
11.6067
13.4905
15.8654
18.8261
22.556
27.7543
35.7712
48.3172
65.1993
82.5156
95.8144
103.627
106.916
107.146
105.312
101.8
96.4741
88.7967
78.1385
64.3771
48.322
32.2764
19.3928
11.2596
7.12476
5.23064
4.41606
4.26851
4.54639
5.11449
6.0288
7.59081
10.3234
14.7892
21.5476
30.3078
37.3868
37.629
31.9761
26.6797
23.7303
21.9009
20.3725
18.8729
17.429
16.2037
15.3668
14.98
14.9439
15.0563
15.1448
15.1601
15.1465
15.1712
15.2785
15.4772
15.7482
16.0589
16.3778
16.6745
16.9325
17.1714
17.4389
17.7392
18.0499
18.3404
18.538
18.5622
18.3547
17.8973
17.2255
16.4071
15.5196
14.6336
13.8084
13.0916
12.5157
12.0945
11.8281
11.7175
11.7788
12.042
12.5349
13.2608
14.1857
15.2399
16.3324
17.3688
18.2662
18.962
19.4166
19.6121
19.5493
19.244
18.7234
18.022
17.1782
16.2313
15.2193
14.1764
13.1322
12.1107
11.1306
10.2047
9.34129
8.54437
7.81548
7.15185
6.54967
6.00489
5.51297
5.06931
4.66951
4.30962
3.98618
3.69645
3.43853
3.21182
3.01772
2.86122
2.75353
2.71805
2.80658
3.13703
3.9465
5.58779
8.17711
10.9163
12.7462
13.6335
14.0827
14.3586
14.4449
14.2524
13.728
12.86
11.6647
10.2756
8.90797
7.79158
7.07676
6.75352
6.64908
6.52626
6.22489
5.73117
5.13098
4.52285
3.96983
3.49728
3.10821
2.79718
2.55844
2.38964
2.29275
2.27282
2.33498
2.48025
2.70209
2.98539
3.30889
3.64952
3.98812
43.3516
65.5178
63.9816
64.5357
61.0931
54.543
46.7514
38.7972
31.2476
24.4972
18.8444
14.4666
11.4427
9.73306
9.35607
9.98825
11.1874
12.7822
14.7527
17.2004
20.1831
23.7184
28.2287
34.7261
44.759
58.9604
74.8844
88.4752
97.5733
102.505
104.534
104.677
103.363
100.49
95.5074
87.5616
75.9865
60.979
44.0633
28.2629
16.6843
10.2202
7.22828
5.94147
5.53305
5.63915
6.09986
6.98379
8.54844
11.1985
15.4117
21.5463
28.703
33.4873
32.7806
28.2199
24.1236
21.7066
20.1376
18.8034
17.5121
16.3212
15.3915
14.8577
14.7242
14.8426
15.0037
15.0714
15.0401
14.9832
14.9791
15.0698
15.2539
15.4981
15.7588
15.9944
16.1632
16.2674
16.3498
16.4658
16.6013
16.7523
16.9065
17.0258
17.0422
16.8832
16.511
15.9394
15.226
14.4478
13.6791
12.9812
12.3974
11.9483
11.6329
11.4391
11.3644
11.4287
11.6693
12.1201
12.7896
13.6502
14.6412
15.6826
16.6901
17.5875
18.3141
18.8278
19.1047
19.1381
18.9361
18.5185
17.914
17.1568
16.2836
15.3311
14.3335
13.3213
12.3201
11.3503
10.4269
9.56009
8.75579
8.01728
7.34206
6.72794
6.17147
5.66851
5.21465
4.80558
4.43729
4.10627
3.80962
3.54526
3.31225
3.11147
2.94681
2.82751
2.77247
2.82155
3.06294
3.67502
4.93639
7.02768
9.49596
11.3956
12.3773
12.7578
12.8671
12.8064
12.5393
12.0064
11.1813
10.1241
8.98863
7.97073
7.24743
6.88688
6.79866
6.7714
6.59699
6.19196
5.61065
4.96437
4.34413
3.79676
3.33603
2.95962
2.66064
2.43351
2.27674
2.19327
2.18862
2.2673
2.42846
2.66281
2.95295
3.27643
3.61082
3.93762
39.287
91.3434
70.5167
63.1518
58.8332
53.3954
46.9163
40.1942
33.7451
27.9019
22.9163
18.9533
16.0972
14.3384
13.6483
13.7706
14.5546
15.9385
17.9033
20.4862
23.6172
27.1763
31.4175
37.1002
45.4491
57.0486
70.2099
81.8814
90.2361
95.3768
98.2825
99.8252
100.403
99.9331
97.9135
93.4348
85.3917
73.2223
57.5651
40.516
25.5066
15.5173
10.4298
8.23839
7.32587
7.13476
7.40991
8.18142
9.64817
12.1443
16.0642
21.4788
27.1567
30.328
29.2335
25.549
22.2662
20.2046
18.8148
17.6364
16.5267
15.5519
14.8566
14.5402
14.5675
14.7704
14.9525
15.0076
14.954
14.8764
14.8553
14.9297
15.0926
15.304
15.515
15.6792
15.763
15.7678
15.7201
15.6724
15.6352
15.6172
15.6205
15.6216
15.5677
15.3934
15.0542
14.5509
13.9286
13.2574
12.6102
12.047
11.6044
11.2907
11.0901
10.982
10.9643
11.0632
11.321
11.7728
12.4261
13.2549
14.205
15.2061
16.1847
17.0725
17.8129
18.3635
18.697
18.8013
18.6781
18.3414
17.8148
17.1287
16.3172
15.4155
14.4576
13.4743
12.4924
11.5333
10.6139
9.74571
8.93673
8.18986
7.50485
6.88045
6.31386
5.80133
5.33868
4.92169
4.54635
4.20906
3.90681
3.63732
3.39936
3.19325
3.02194
2.89278
2.82091
2.83669
3.00439
3.45415
4.39773
6.02832
8.16203
10.0825
11.2383
11.6842
11.7137
11.5148
11.1317
10.5445
9.74875
8.85384
8.01732
7.3819
7.03847
6.95862
6.98409
6.90545
6.59047
6.0499
5.38939
4.71991
4.10973
3.58519
3.14894
2.79456
2.51452
2.30401
2.16278
2.09493
2.10666
2.20207
2.37875
2.62524
2.92228
3.24657
3.57638
3.8936
36.1885
180.71
116.465
81.0752
64.8926
55.8454
48.9904
42.8649
37.2257
32.1474
27.7691
24.2113
21.5465
19.7826
18.9024
18.7492
19.3252
20.6542
22.7478
25.5746
28.8882
32.4778
36.5303
41.6799
48.869
58.2747
68.3839
77.0722
83.3174
87.4172
90.1807
92.2717
93.974
95.1879
95.478
94.0428
89.6807
81.2163
68.4625
52.6256
36.2522
22.969
14.9453
11.1748
9.52616
8.91754
8.9119
9.48241
10.7805
13.0818
16.652
21.3014
25.7281
27.8105
26.6092
23.5946
20.8772
19.0655
17.8067
16.7553
15.8005
15.0046
14.4907
14.3285
14.4607
14.7181
14.921
14.9819
14.9268
14.8405
14.8011
14.8468
14.9709
15.1358
15.2953
15.4057
15.4371
15.3786
15.2423
15.0771
14.9098
14.7587
14.634
14.5228
14.3841
14.1623
13.816
13.3421
12.7796
12.1927
11.6503
11.2067
10.889
10.6916
10.5882
10.5557
10.5981
10.7479
11.0484
11.5299
12.1948
13.0156
13.9428
14.9152
15.8686
16.7427
17.4855
18.0553
18.4231
18.5731
18.5028
18.2216
17.7495
17.1137
16.3466