/*--------------------------------*- C++ -*----------------------------------*\
  =========                 |
  \\      /  F ield         | OpenFOAM: The Open Source CFD Toolbox
   \\    /   O peration     | Website:  https://openfoam.org
    \\  /    A nd           | Version:  9
     \\/     M anipulation  |
\*---------------------------------------------------------------------------*/
FoamFile
{
    format      ascii;
    class       volScalarField;
    location    "0.07";
    object      kU;
}
// * * * * * * * * * * * * * * * * * * * * * * * * * * * * * * * * * * * * * //

dimensions      [0 2 -2 0 0 0 0];

internalField   nonuniform List<scalar> 
12225
(
0.0849402
0.0641362
0.0497855
0.0400876
0.0338097
0.0300707
0.0282064
0.0276864
0.0280738
0.0290089
0.0302007
0.0314761
0.0330848
0.0348036
0.0365594
0.0383884
0.0404981
0.0435344
0.104772
0.0973999
0.0930395
0.0921368
0.0945073
0.0996864
0.107007
0.115667
0.124831
0.133732
0.141738
0.14826
0.152695
0.155044
0.155294
0.153397
0.148978
0.141548
0.108598
0.104447
0.100788
0.0978175
0.0956568
0.0943136
0.0937007
0.0936659
0.0940167
0.0945466
0.0950656
0.0954877
0.0957502
0.0957522
0.0954441
0.0948153
0.0938838
0.0927261
0.109686
0.106529
0.103469
0.100647
0.0981508
0.0960139
0.0942203
0.0927224
0.0914573
0.0903625
0.0893872
0.0885031
0.087693
0.08695
0.0862851
0.0857349
0.0853704
0.0852858
0.110098
0.107492
0.104913
0.102436
0.100113
0.0979769
0.0960377
0.0942899
0.092721
0.0913102
0.0900397
0.0888996
0.0878872
0.0870094
0.0862856
0.0857525
0.0854651
0.0854741
0.110256
0.107933
0.105662
0.103466
0.101371
0.0993967
0.0975565
0.0958566
0.0942942
0.0928651
0.0915667
0.0903989
0.0893662
0.0884796
0.0877592
0.0872348
0.0869439
0.0869046
0.110314
0.108121
0.106022
0.104012
0.102096
0.100283
0.0985783
0.0969863
0.0955073
0.094143
0.0928953
0.0917684
0.0907694
0.0899101
0.0892077
0.0886835
0.088359
0.0882327
0.110333
0.108193
0.106178
0.104273
0.102472
0.100773
0.0991764
0.0976806
0.0962865
0.0949955
0.0938103
0.0927356
0.0917783
0.0909488
0.0902599
0.0897255
0.0893557
0.0891409
0.110338
0.108218
0.106237
0.104382
0.102642
0.101011
0.0994822
0.0980537
0.0967233
0.0954907
0.0943572
0.0933263
0.0924032
0.0915952
0.0909107
0.0903572
0.0899377
0.0896412
0.11034
0.108224
0.106255
0.10442
0.102707
0.101108
0.0996152
0.0982243
0.0969314
0.0957343
0.0946329
0.0936283
0.0927237
0.0919233
0.0912316
0.0906516
0.0901826
0.0898151
0.11034
0.108225
0.106259
0.10443
0.102725
0.101138
0.0996598
0.0982849
0.0970084
0.095827
0.0947391
0.0937443
0.0928433
0.092038
0.0913297
0.0907186
0.0902021
0.0897736
0.11034
0.108225
0.106258
0.104429
0.102726
0.101141
0.0996654
0.0982937
0.0970203
0.0958413
0.094754
0.0937568
0.092849
0.0920304
0.0913005
0.0906577
0.0900989
0.0896198
0.11034
0.108224
0.106257
0.104427
0.102722
0.101136
0.0996589
0.0982853
0.0970095
0.095827
0.0947344
0.0937291
0.0928094
0.0919737
0.0912203
0.0905468
0.0899498
0.089427
0.11034
0.108224
0.106256
0.104423
0.102717
0.101127
0.0996464
0.0982681
0.0969864
0.0957964
0.0946941
0.0936762
0.0927401
0.0918832
0.091103
0.0903965
0.0897605
0.0891946
0.11034
0.108224
0.106254
0.10442
0.102711
0.101117
0.0996317
0.0982471
0.0969576
0.0957578
0.0946432
0.0936101
0.092655
0.0917747
0.0909664
0.0902265
0.0895523
0.088945
0.11034
0.108224
0.106254
0.104417
0.102705
0.101107
0.0996165
0.098225
0.0969268
0.0957161
0.0945883
0.0935389
0.0925641
0.0916605
0.0908245
0.0900528
0.0893428
0.088697
0.110341
0.108225
0.106253
0.104415
0.1027
0.101098
0.0996018
0.0982032
0.0968961
0.0956745
0.0945334
0.093468
0.0924744
0.0915486
0.0906871
0.0898864
0.0891441
0.0884636
0.110341
0.108225
0.106253
0.104413
0.102695
0.10109
0.099588
0.0981827
0.0968671
0.0956352
0.0944818
0.0934018
0.0923911
0.0914456
0.0905617
0.0897358
0.0889655
0.0882551
0.110341
0.108225
0.106252
0.104411
0.102691
0.101082
0.099575
0.0981636
0.0968406
0.0955997
0.0944356
0.0933433
0.0923183
0.0913566
0.0904544
0.0896082
0.0888156
0.0880813
0.110341
0.108225
0.106252
0.104409
0.102687
0.101075
0.0995655
0.0981499
0.0968218
0.0955749
0.0944037
0.0933032
0.0922689
0.0912966
0.0903824
0.0895229
0.0887156
0.0879657
0.110341
0.108225
0.106251
0.104408
0.102684
0.101071
0.0995591
0.0981409
0.0968095
0.0955588
0.0943829
0.093277
0.0922364
0.0912568
0.0903343
0.0894655
0.0886478
0.0878866
0.110341
0.108224
0.10625
0.104406
0.102681
0.101066
0.0995514
0.0981297
0.0967938
0.0955374
0.0943547
0.0932406
0.0921904
0.0911999
0.0902651
0.0893824
0.0885496
0.0877721
0.110341
0.108224
0.106248
0.104401
0.102672
0.10105
0.0995265
0.0980933
0.0967433
0.0954702
0.0942684
0.0931327
0.0920588
0.0910424
0.09008
0.0891682
0.0883047
0.0874959
0.11034
0.108219
0.106235
0.104375
0.102626
0.100978
0.0994212
0.0979492
0.0965554
0.0952344
0.0939816
0.0927929
0.0916645
0.0905932
0.0895758
0.0886097
0.0876929
0.0868321
0.110335
0.108194
0.106173
0.104257
0.102438
0.100707
0.0990591
0.0974914
0.0960005
0.0945838
0.0932388
0.0919629
0.0907535
0.089608
0.0885236
0.0874973
0.0865271
0.0856189
0.110302
0.108074
0.105922
0.103844
0.101845
0.0999301
0.0981059
0.0963764
0.094744
0.0932093
0.0917715
0.0904283
0.0891766
0.0880122
0.0869303
0.0859254
0.0849923
0.0841326
0.110153
0.107638
0.105141
0.102713
0.100394
0.0982163
0.0962001
0.0943556
0.0926873
0.091195
0.089875
0.0887206
0.0877222
0.0868681
0.0861452
0.0855389
0.0850348
0.0846212
0.109588
0.10631
0.103105
0.100123
0.097472
0.0952032
0.0933334
0.0918648
0.090795
0.0901177
0.0898225
0.0898944
0.0903135
0.0910548
0.0920884
0.0933805
0.0948939
0.0965845
0.10727
0.101421
0.0964829
0.092908
0.0908133
0.0902025
0.0910433
0.0932828
0.096852
0.101667
0.10763
0.114623
0.122516
0.13116
0.140401
0.150074
0.160025
0.170045
0.0944158
0.0791982
0.067298
0.0579373
0.0505814
0.0448446
0.0404434
0.0371632
0.0348377
0.0333351
0.0325485
0.0323889
0.0327792
0.0336509
0.0349406
0.0365884
0.0385368
0.0407232
0.00965314
0.0171109
0.0182719
0.0187637
0.0191944
0.019676
0.0203296
0.0211206
0.0219033
0.0226701
0.0235042
0.024483
0.0256182
0.0269246
0.0284914
0.0303405
0.0324661
0.0348398
0.0373942
0.0400388
0.0426608
0.0451887
0.0487725
0.0515379
0.0537387
0.0556041
0.0599342
0.0659343
0.0730319
0.0812691
0.090945
0.102539
0.116461
0.132325
0.147565
0.16026
0.167816
0.166992
0.154511
0.129017
0.0945521
0.0629277
0.0400757
0.0260751
0.02014
0.0186672
0.0190226
0.0198526
0.0206375
0.0214294
0.0222512
0.0232043
0.0243837
0.0254363
0.0255
0.0244142
0.0225117
0.0205311
0.0192897
0.0193046
0.021178
0.0253645
0.0326432
0.0437749
0.0528175
0.0619017
0.0768537
0.108366
0.158921
0.206437
0.249153
0.285124
0.313733
0.335057
0.349561
0.357917
0.360886
0.359259
0.353807
0.345255
0.334264
0.321408
0.307178
0.292541
0.277766
0.262985
0.248314
0.233855
0.21969
0.205886
0.192489
0.179534
0.167034
0.154993
0.143399
0.132233
0.121473
0.111097
0.101096
0.0914751
0.082266
0.0735366
0.0654003
0.0580001
0.0520006
0.0520353
0.0485823
0.0490726
0.0500143
0.0507255
0.0502738
0.0474172
0.0441626
0.0408048
0.0375011
0.0343241
0.0312954
0.0283846
0.0255468
0.022914
0.0205844
0.0185482
0.0168664
0.0156601
0.0150761
0.0152156
0.0160514
0.0173944
0.0189402
0.0203624
0.0213925
0.0218591
0.0216915
0.0209077
0.0196002
0.0179293
0.0161188
0.0144278
0.0130642
0.0122008
0.0119634
0.012514
0.0142469
0.0179681
0.0248163
0.0354795
0.049229
0.082844
0.11241
0.132271
0.142467
0.144658
0.14081
0.132796
0.122417
0.11114
0.0995969
0.088291
0.0775738
0.0677584
0.0595213
0.0561544
0.058075
0.0555795
0.0579672
0.0646637
0.0733572
0.0834689
0.0946247
0.106442
0.118535
0.130489
0.142001
0.153246
0.16174
0.162215
0.151539
0.128414
0.0969007
0.0622244
0.00838244
0.0186321
0.0185025
0.0172158
0.0170147
0.0186129
0.0207235
0.0230389
0.0252043
0.0274332
0.0300843
0.0334113
0.0376241
0.0428132
0.0490231
0.0560823
0.0637179
0.0716886
0.0796308
0.0872303
0.0941388
0.100021
0.104602
0.107684
0.109126
0.108847
0.107184
0.103737
0.0987876
0.0926452
0.0856605
0.0783185
0.0712818
0.0654164
0.0627693
0.0636854
0.0675169
0.0727075
0.0772614
0.0794468
0.0791391
0.0774141
0.0732798
0.064635
0.0522986
0.0404509
0.0319218
0.0258626
0.0214411
0.0192176
0.0194089
0.0213011
0.024408
0.0280513
0.0307843
0.0311003
0.0289175
0.0255578
0.0227446
0.0221758
0.0251634
0.0335799
0.0490644
0.0695132
0.088097
0.100338
0.109234
0.118898
0.127753
0.133561
0.136617
0.137481
0.136865
0.135433
0.133723
0.132121
0.130878
0.130146
0.130021
0.130567
0.131837
0.133877
0.136692
0.139676
0.142684
0.145706
0.148731
0.151741
0.154712
0.157609
0.16038
0.162959
0.165254
0.167152
0.168514
0.169183
0.168988
0.167764
0.16537
0.161709
0.156743
0.150511
0.143142
0.134857
0.125888
0.116415
0.108502
0.10091
0.0938237
0.0872258
0.0809209
0.0751353
0.069547
0.0642264
0.0592432
0.0546295
0.0503958
0.0465696
0.0431874
0.0401447
0.0375221
0.0356742
0.034865
0.0353393
0.0372378
0.0405068
0.0448668
0.0498418
0.0548461
0.0593014
0.0627381
0.0648442
0.0654582
0.0645274
0.0620664
0.0581423
0.0528911
0.0465612
0.0396241
0.032776
0.0268934
0.0228442
0.0212718
0.0235221
0.0324599
0.0468485
0.0588971
0.0694241
0.0773681
0.0835195
0.0886239
0.0929152
0.096473
0.0995924
0.102542
0.105201
0.107678
0.109815
0.111133
0.110917
0.10837
0.102712
0.0964148
0.0892696
0.0821638
0.0753969
0.0693069
0.0638759
0.0590129
0.0546118
0.0505796
0.0468423
0.0433389
0.0400459
0.0378042
0.038165
0.0401222
0.0419894
0.0433737
0.0482777
0.00535861
0.015055
0.0169687
0.0178922
0.0201751
0.0227562
0.0266811
0.032078
0.0380103
0.0448663
0.0531019
0.0626936
0.0733344
0.0846731
0.0963616
0.108052
0.119424
0.130198
0.140026
0.148685
0.155902
0.161331
0.164664
0.165651
0.16428
0.160515
0.154464
0.146332
0.136492
0.125421
0.113679
0.101839
0.0904604
0.0800576
0.0709885
0.0634627
0.0580227
0.0549666
0.0538319
0.0537456
0.0541632
0.0551088
0.0563589
0.056875
0.0549709
0.0494931
0.0413787
0.0327846
0.0254823
0.0204
0.017815
0.0180361
0.0206186
0.0249573
0.0298431
0.0330474
0.0330299
0.030994
0.0305056
0.0358547
0.0495209
0.0689303
0.0842934
0.0901581
0.0925876
0.09461
0.0969375
0.0996721
0.102225
0.104376
0.106373
0.108411
0.110567
0.112815
0.115093
0.117364
0.119639
0.121959
0.124376
0.12692
0.129595
0.132377
0.135306
0.138401
0.141648
0.145039
0.148568
0.152228
0.156008
0.159889
0.163835
0.167788
0.17166
0.175329
0.178631
0.181367
0.183306
0.184204
0.183832
0.181997
0.178574
0.173528
0.166937
0.158972
0.149843
0.140035
0.130921
0.12204
0.113451
0.105237
0.097433
0.0901103
0.0832636
0.076899
0.0710173
0.065609
0.0606559
0.056139
0.0520347
0.0482949
0.0448992
0.0418307
0.039238
0.0372186
0.0358102
0.035013
0.0347795
0.0350154
0.0355941
0.0363766
0.0372296
0.038034
0.0386858
0.0390858
0.0391221
0.0386552
0.0375215
0.0355662
0.032711
0.0291193
0.0254607
0.0229643
0.0234301
0.0294162
0.0422275
0.0560386
0.0653137
0.0767807
0.0896693
0.100874
0.108053
0.111362
0.112258
0.111937
0.111178
0.110611
0.110421
0.110478
0.110261
0.108968
0.10569
0.100225
0.0939172
0.0869605
0.0799319
0.0733392
0.0673988
0.0621461
0.0575295
0.0534658
0.0498705
0.0466677
0.0438035
0.0412532
0.0389251
0.0366045
0.0342263
0.032097
0.0305309
0.0300751
0.00344239
0.01246
0.0174859
0.0219998
0.0252166
0.0337101
0.0464127
0.0585371
0.0700691
0.0815233
0.0932617
0.105577
0.118425
0.131384
0.143932
0.155778
0.166687
0.176471
0.184966
0.192011
0.197448
0.201095
0.202728
0.20207
0.198774
0.192639
0.183888
0.172592
0.159249
0.144389
0.128752
0.113114
0.0982183
0.0847098
0.07304
0.0634294
0.0559218
0.0505313
0.0469598
0.0447011
0.0433661
0.0428035
0.0430244
0.0438582
0.044592
0.0439706
0.0410298
0.0360314
0.0302949
0.0252331
0.0217559
0.0204337
0.0220755
0.0265708
0.0329954
0.0389425
0.0418741
0.0434293
0.0499374
0.0628761
0.0775055
0.0846347
0.0850808
0.0843736
0.0845351
0.0859489
0.0884046
0.0915325
0.0949438
0.0983855
0.101658
0.104562
0.106969
0.108884
0.110423
0.111763
0.113064
0.114431
0.11591
0.117508
0.119211
0.121003
0.122965
0.125101
0.127416
0.129925
0.132649
0.135617
0.138856
0.142392
0.146236
0.150378
0.154774
0.159335
0.163922
0.168332
0.172307
0.175543
0.17772
0.17853
0.177719
0.175127
0.170725
0.164597
0.156876
0.148336
0.139883
0.131306
0.122781
0.114459
0.10645
0.0988366
0.0916732
0.0849864
0.0787827
0.073055
0.0677887
0.0629619
0.0585458
0.0545059
0.0507989
0.0473807
0.0442148
0.0413833
0.0389289
0.0368594
0.0351532
0.0337682
0.0326548
0.0317649
0.031056
0.0304911
0.030036
0.029652
0.0292868
0.0288655
0.0282887
0.0274415
0.0262125
0.0245978
0.0230394
0.0228373
0.0261742
0.0352436
0.0487982
0.0610748
0.072468
0.088621
0.104494
0.114943
0.119137
0.118885
0.116014
0.111727
0.10713
0.103041
0.0998009
0.0973937
0.0953462
0.0928289
0.0890245
0.0842651
0.0786685
0.0726614
0.066752
0.0613172
0.0565272
0.0524013
0.0488786
0.0458697
0.0432852
0.04105
0.0391103
0.03743
0.0359787
0.0347094
0.0335142
0.0322013
0.0307582
0.0292713
0.00373438
0.0127987
0.0211957
0.0309777
0.0510675
0.0706534
0.0848761
0.0973028
0.109822
0.122547
0.135202
0.147657
0.159703
0.171395
0.182338
0.19221
0.200962
0.208567
0.214991
0.220166
0.223979
0.226263
0.226795
0.225308
0.221499
0.215036
0.205483
0.192564
0.177229
0.159628
0.140709
0.121465
0.103019
0.0863676
0.0721676
0.0606305
0.0516216
0.0449169
0.040434
0.0377558
0.0362522
0.0354702
0.0351152
0.0351266
0.035442
0.0356702
0.0351228
0.0333275
0.0304754
0.0273275
0.0248555
0.0240053
0.0258736
0.0314192
0.0402661
0.0500415
0.0576337
0.065427
0.0727641
0.0787284
0.0804383
0.0792644
0.0778281
0.0777945
0.0793939
0.082273
0.0859198
0.0898092
0.0934734
0.0965587
0.098863
0.100371
0.101238
0.101697
0.10197
0.102213
0.102511
0.1029
0.103389
0.103977
0.104661
0.105445
0.106396
0.107486
0.108722
0.110132
0.111756
0.113654
0.115893
0.118547
0.121686
0.125363
0.129603
0.134385
0.139625
0.145163
0.150752
0.156063
0.160705
0.164265
0.166351
0.166655
0.165001
0.161359
0.155818
0.149338
0.142253
0.134706
0.126939
0.119152
0.111505
0.104115
0.0970676
0.0904158
0.0841868
0.0783895
0.0730193
0.0680613
0.0634936
0.0592906
0.0554203
0.0518467
0.048531
0.0454393
0.0426133
0.0400623
0.037789
0.0357842
0.0340282
0.0324949
0.0311564
0.0299856
0.0289568
0.0280435
0.0272161
0.0264388
0.0256713
0.0248729
0.0240055
0.0230967
0.0225551
0.023709
0.0288581
0.0393779
0.0519813
0.0637533
0.0788731
0.0982194
0.114108
0.122235
0.123522
0.120281
0.114325
0.107021
0.0996227
0.092982
0.0875428
0.083333
0.079984
0.0766061
0.0729497
0.0686196
0.0637124
0.0585987
0.0536949
0.0492992
0.045542
0.0424234
0.0398725
0.0377939
0.0360954
0.0347004
0.033551
0.032606
0.0318428
0.031247
0.0307927
0.0304332
0.0300225
0.0293985
0.0054732
0.0188567
0.0386099
0.0645676
0.086352
0.104313
0.120401
0.134767
0.147848
0.160023
0.171436
0.182062
0.19179
0.200518
0.208432
0.21541
0.221557
0.226961
0.231654
0.235595
0.238655
0.240622
0.241209
0.240073
0.236844
0.231149
0.222623
0.210893
0.195426
0.176347
0.155109
0.132533
0.110097
0.0893706
0.0716181
0.0574507
0.0467726
0.0390374
0.0336663
0.030402
0.0288238
0.0283599
0.0285014
0.0287694
0.0289719
0.02911
0.0290856
0.0286592
0.0277048
0.0264604
0.0256465
0.0264731
0.0302116
0.0383673
0.0513053
0.066535
0.0787915
0.0809359
0.0781181
0.0760444
0.0739415
0.0725593
0.0727062
0.0745271
0.0776156
0.081369
0.0851705
0.088486
0.0909539
0.0924462
0.093054
0.0930032
0.092549
0.0919042
0.0912192
0.0905916
0.0900836
0.0897337
0.0895608
0.0895666
0.0897399
0.0900933
0.0905616
0.0910871
0.0916616
0.0923043
0.0930631
0.0940123
0.0952492
0.0968876
0.0990492
0.101852
0.105394
0.109737
0.114885
0.120759
0.127174
0.13383
0.140311
0.146136
0.150802
0.153842
0.154922
0.153861
0.150843
0.146526
0.141139
0.134971
0.128299
0.12136
0.11435
0.107425
0.100701
0.0942601
0.0881542
0.0824123
0.0770453
0.0720509
0.0674168
0.0631241
0.0591475
0.0554591
0.0520309
0.0488317
0.0458598
0.0431272
0.0406313
0.0383671
0.0363245
0.0344886
0.0328416
0.0313635
0.0300332
0.0288282
0.0277242
0.0266956
0.0257192
0.0247785
0.0238731
0.0230929
0.0229176
0.0247573
0.0308703
0.041668
0.0531384
0.0650021
0.0827223
0.103992
0.119222
0.125299
0.124483
0.119198
0.111269
0.102152
0.0930837
0.0849182
0.0781469
0.0727137
0.0684327
0.0647909
0.0611339
0.057174
0.0529105
0.0485874
0.0445179
0.0409384
0.0379536
0.0355577
0.033682
0.0322366
0.0311364
0.0303123
0.0297125
0.0293
0.0290503
0.0289498
0.0289947
0.029158
0.0293749
0.0294337
0.0103781
0.0368866
0.069706
0.0977279
0.119469
0.137876
0.153724
0.167216
0.178841
0.189012
0.197911
0.205588
0.21205
0.217329
0.221612
0.225486
0.229242
0.233039
0.236908
0.240753
0.244356
0.24738
0.249393
0.249903
0.24841
0.24445
0.237618
0.227561
0.213952
0.196368
0.174268
0.149221
0.122945
0.097536
0.0751154
0.0570978
0.0437862
0.0345552
0.0284014
0.0244711
0.0223739
0.0216816
0.0219694
0.0227451
0.0234673
0.0238996
0.0241133
0.0242141
0.0242413
0.0243577
0.0252169
0.0282462
0.0351431
0.0469011
0.0650911
0.0847423
0.0890208
0.0797984
0.0733024
0.069815
0.0682465
0.0684616
0.0703176
0.0733734
0.0769922
0.0805174
0.0834043
0.0853203
0.0861875
0.0861344
0.0853952
0.0842207
0.0828305
0.0814015
0.0800728
0.0789502
0.0781084
0.0775888
0.0773988
0.0775138
0.0778824
0.0784366
0.078923
0.0792934
0.0795376
0.0796806
0.0797816
0.0799321
0.0802513
0.0808805
0.0819758
0.0836993
0.0862059
0.0896278
0.0940536
0.0995006
0.105886
0.112991
0.120435
0.127716
0.134297
0.139539
0.142987
0.144334
0.143725
0.141518
0.137963
0.133347
0.127952
0.122038
0.115829
0.109513
0.103237
0.097112
0.0912174
0.0856046
0.0803033
0.0753257
0.0706709
0.0663288
0.0622827
0.0585129
0.0549994
0.051722
0.048661
0.0458251
0.0432098
0.0408093
0.0386156
0.0366179
0.0348031
0.0331563
0.0316606
0.030297
0.0290438
0.0278764
0.026769
0.0256982
0.0246672
0.0238147
0.0237069
0.0258033
0.0321856
0.0425816
0.053238
0.0655089
0.0842918
0.105347
0.119806
0.125313
0.123801
0.117644
0.108827
0.0988263
0.0887406
0.0795823
0.0719477
0.06578
0.0608459
0.0567692
0.0531134
0.0495438
0.045917
0.0423216
0.0389637
0.036028
0.0336058
0.0316964
0.0302431
0.0291708
0.0284104
0.027909
0.0276286
0.0275415
0.0276275
0.0278748
0.0282802
0.0288222
0.0294404
0.0299499
0.0196289
0.0632693
0.101179
0.128186
0.149804
0.167133
0.180727
0.1913
0.199456
0.205622
0.210113
0.213193
0.215115
0.216134
0.216516
0.21745
0.219545
0.222916
0.227489
0.233034
0.239166
0.245345
0.250888
0.25502
0.256974
0.256099
0.251932
0.244171
0.232586
0.216912
0.196816
0.171782
0.142539
0.112453
0.0844618
0.0612141
0.0439696
0.0323141
0.0249181
0.0203922
0.0177685
0.0166422
0.0165817
0.0173044
0.0183541
0.0192492
0.0198427
0.0203113
0.0209099
0.0219824
0.0243758
0.0298383
0.0404801
0.0575629
0.0795095
0.0928745
0.0852233
0.0735179
0.0673999
0.0649074
0.0648029
0.0664687
0.0693389
0.0727553
0.0760512
0.0786856
0.0803443
0.0809652
0.0806819
0.0797312
0.078374
0.0768494
0.0753566
0.0740524
0.0730512
0.0724234
0.0721931
0.0723394
0.0728024
0.0734956
0.0743239
0.0750408
0.0754501
0.0755132
0.0752338
0.0746581
0.0738735
0.0730035
0.0722002
0.0716348
0.0714899
0.0719516
0.0732011
0.0754034
0.0786971
0.0831697
0.0888332
0.0955869
0.103141
0.110982
0.11867
0.125372
0.130614
0.133882
0.135371
0.135164
0.133437
0.130431
0.126408
0.12163
0.116336
0.110735
0.105001
0.0992726
0.0936555
0.0882258
0.0830341
0.07811
0.0734666
0.0691048
0.065017
0.061191
0.0576124
0.0542669
0.0511377
0.0482257
0.0455255
0.0430309
0.0407341
0.0386261
0.0366968
0.0349349
0.0333282
0.0318625
0.0305214
0.0292838
0.0281204
0.02699
0.0258739
0.0249222
0.0247496
0.0268066
0.0329546
0.0426244
0.0526689
0.0649555
0.0833787
0.103303
0.117095
0.122612
0.121363
0.115554
0.106953
0.0968915
0.086538
0.0768354
0.0683675
0.0613289
0.0556803
0.0512516
0.0476931
0.0445736
0.041582
0.0386497
0.0358868
0.0334415
0.0314045
0.0297899
0.0285603
0.027661
0.0270436
0.0266746
0.0265324
0.0266005
0.0268637
0.0273093
0.0279256
0.0286858
0.0295201
0.0302943
0.0315605
0.0898458
0.128078
0.153767
0.173203
0.186631
0.195119
0.199682
0.201181
0.200382
0.197999
0.194707
0.191122
0.187786
0.185142
0.184367
0.18622
0.190694
0.197634
0.206757
0.217596
0.229443
0.241316
0.251996
0.26019
0.264795
0.265123
0.260903
0.252084
0.238627
0.220388
0.197122
0.168432
0.134627
0.100889
0.0711475
0.0483536
0.0329621
0.0234908
0.0179802
0.0148793
0.0132859
0.0128499
0.0132134
0.0141424
0.0152297
0.0161517
0.0169506
0.0179661
0.0197776
0.0235209
0.0310636
0.0440908
0.0631999
0.0840388
0.0897607
0.0771234
0.0671691
0.0627147
0.0617262
0.0629288
0.0654993
0.0687155
0.0719004
0.0745115
0.0762322
0.0769949
0.0769307
0.0762829
0.0753212
0.0742849
0.0733622
0.0726947
0.0723827
0.072483
0.0730009
0.0738878
0.0750456
0.0763409
0.0776221
0.0787351
0.0794299
0.0796227
0.0792621
0.0783426
0.0769129
0.0750768
0.0729882
0.0708405
0.0688521
0.0672497
0.066257
0.0660815
0.0668962
0.0688526
0.0720629
0.0765824
0.0824173
0.0894341
0.0970497
0.105073
0.112382
0.118574
0.123368
0.126561
0.128098
0.128056
0.126606
0.123965
0.120374
0.116067
0.111262
0.106149
0.100888
0.0956088
0.0904118
0.0853695
0.0805311
0.0759258
0.0715675
0.067459
0.0635956
0.059969
0.0565695
0.0533852
0.0504121
0.0476441
0.0450748
0.0426969
0.0405024
0.0384826
0.0366288
0.034932
0.0333826
0.0319698
0.0306789
0.029484
0.0283358
0.027192
0.0261809
0.0259045
0.0277418
0.0333511
0.0421529
0.051559
0.0632867
0.0803757
0.0987243
0.111939
0.117864
0.117496
0.11266
0.104897
0.095312
0.0849714
0.0748789
0.0657506
0.0579983
0.0518399
0.047278
0.0439794
0.0413858
0.0390142
0.0366593
0.0343617
0.0322549
0.0304442
0.0289665
0.0278085
0.0269384
0.0263294
0.0259673
0.0258458
0.0259593
0.0263
0.0268606
0.0276319
0.0285926
0.0296762
0.0307794
0.0432481
0.110921
0.14729
0.170212
0.184581
0.191132
0.191582
0.187433
0.180113
0.170916
0.161008
0.151419
0.143071
0.136746
0.133022
0.132182
0.134652
0.140417
0.149502
0.161914
0.177504
0.195779
0.215703
0.235601
0.253317
0.266752
0.274506
0.276099
0.271655
0.261446
0.245615
0.224108
0.196753
0.163354
0.124796
0.0879931
0.0579667
0.0370876
0.0243241
0.0171602
0.0133026
0.0113033
0.0104785
0.0105123
0.0111637
0.0121779
0.01324
0.014277
0.0156288
0.0180688
0.0229609
0.0320314
0.0463166
0.0656373
0.0826751
0.0818835
0.0694076
0.0619433
0.0593448
0.0597175
0.061838
0.0648362
0.0679944
0.0707498
0.0727611
0.0739351
0.0743863
0.0743488
0.0740738
0.073761
0.073552
0.0735583
0.0738769
0.0745799
0.0756924
0.077178
0.0789412
0.0808413
0.082711
0.0843736
0.0856418
0.0863679
0.0864832
0.0859063
0.084605
0.0826098
0.0800172
0.0769836
0.0737177
0.0704705
0.0675098
0.0651078
0.0635337
0.0629782
0.0635955
0.0655101
0.0687587
0.0733926
0.0795133
0.0863897
0.0937409
0.101062
0.107826
0.113577
0.117991
0.120903
0.122287
0.122229
0.120889
0.118462
0.115163
0.111198
0.106763
0.102029
0.0971443
0.0922287
0.0873761
0.0826555
0.0781139
0.0737802
0.0696689
0.0657844
0.0621248
0.0586846
0.0554569
0.0524342
0.0496107
0.0469798
0.0445348
0.0422683
0.040173
0.0382418
0.0364677
0.0348443
0.0333647
0.0320198
0.0307896
0.0296279
0.028482
0.0274471
0.0270643
0.0285876
0.033509
0.0413811
0.050023
0.0607175
0.0758845
0.0923896
0.10498
0.111427
0.112175
0.108579
0.101903
0.0930154
0.0829082
0.0726671
0.0631471
0.0549895
0.0486574
0.0442664
0.041427
0.0394282
0.0376342
0.0357448
0.0337712
0.0318594
0.0301418
0.0286836
0.0274962
0.0265699
0.0258978
0.0254836
0.0253362
0.0254648
0.0258776
0.0265843
0.0275893
0.0288752
0.0303693
0.0319611
0.0522185
0.123464
0.156556
0.175015
0.182623
0.181257
0.17339
0.161221
0.146703
0.131433
0.116712
0.103628
0.0930909
0.0858065
0.0823014
0.0819228
0.084401
0.0898071
0.0984494
0.110828
0.127513
0.148886
0.174691
0.203471
0.232306
0.257476
0.27596
0.286406
0.288825
0.283757
0.271708
0.252882
0.227235
0.194746
0.1556
0.112433
0.0740307
0.045603
0.0277871
0.017971
0.0129016
0.0103439
0.00916786
0.00891803
0.00932605
0.0101879
0.0112546
0.0124346
0.0140745
0.017078
0.0228839
0.032851
0.0474569
0.065532
0.0777785
0.0732774
0.0629311
0.0578986
0.0569278
0.0583473
0.061033
0.0641677
0.0671381
0.0695543
0.0712739
0.0723724
0.0730523
0.0735198
0.0739069
0.074289
0.0747481
0.0753989
0.0763587
0.0777001
0.079424
0.0814602
0.0836872
0.085953
0.0880912
0.0899329
0.091267
0.0920832
0.0922445
0.091635
0.0901945
0.0879384
0.084961
0.0814187
0.0775111
0.0734954
0.0696481
0.0662315
0.0635875
0.0619473
0.0614498
0.0622617
0.0643815
0.0678319
0.0725642
0.0783955
0.0850272
0.0920141
0.0988465
0.105038
0.110201
0.114082
0.116569
0.117666
0.117464
0.116108
0.113774
0.110647
0.106914
0.102746
0.0982991
0.0937085
0.0890847
0.0845149
0.0800638
0.0757759
0.071679
0.0677876
0.0641073
0.0606376
0.0573764
0.0543144
0.0514459
0.0487647
0.0462642
0.0439379
0.0417792
0.0397822
0.0379418
0.0362532
0.0347125
0.0333138
0.0320424
0.0308592
0.0297111
0.0286633
0.0281738
0.0293405
0.0335196
0.040448
0.0482242
0.0575923
0.0705209
0.0849596
0.0967353
0.103563
0.105353
0.102984
0.0974199
0.0893416
0.079687
0.0695787
0.0600112
0.0518626
0.0457871
0.0419144
0.039727
0.0383551
0.0370556
0.0354944
0.0337019
0.0318617
0.0301404
0.0286297
0.0273616
0.0263451
0.025591
0.0251195
0.0249572
0.0251325
0.025674
0.0266054
0.0279288
0.0296027
0.0315209
0.0335484
0.0571671
0.127046
0.156158
0.169775
0.171279
0.163677
0.150085
0.133169
0.115044
0.097306
0.081202
0.0677084
0.0575022
0.0509386
0.0481107
0.0480385
0.0499149
0.0537925
0.0600414
0.0693734
0.0828581
0.10186
0.127665
0.160471
0.197954
0.235014
0.266138
0.288065
0.300048
0.302551
0.296361
0.281961
0.259403
0.228622
0.189986
0.144303
0.0977464
0.0599753
0.034726
0.0206616
0.0136538
0.010282
0.00871064
0.00819256
0.00841928
0.00914806
0.0101758
0.0114521
0.013361
0.0168729
0.0233296
0.0336287
0.0478663
0.0636579
0.0714235
0.0656145
0.0577745
0.054794
0.0551062
0.0572662
0.060277
0.0634318
0.0662645
0.0685586
0.0703277
0.0717274
0.0729118
0.0739362
0.0747959
0.0755349
0.07629
0.0772376
0.0785126
0.0801622
0.0821482
0.0843742
0.0867143
0.0890306
0.0911751
0.0929929
0.0943769
0.0952802
0.0955355
0.0949886
0.0935394
0.0911806
0.0880171
0.0842384
0.0800344
0.0756645
0.0714505
0.0675557
0.0643275
0.0620836
0.0608789
0.0608202
0.0619739
0.0643835
0.0680531
0.0728999
0.0787143
0.0851407
0.0917228
0.0979844
0.10351
0.107995
0.111262
0.113246
0.113975
0.113541
0.112076
0.109736
0.106687
0.103092
0.0991066
0.0948719
0.0905098
0.0861217
0.0817879
0.0775678
0.0735027
0.0696182
0.0659285
0.0624392
0.0591531
0.0560604
0.0531562
0.0504346
0.0478894
0.0455142
0.0433033
0.0412516
0.039355
0.0376105
0.0360157
0.0345671
0.033254
0.0320439
0.030887
0.0298229
0.0292228
0.0300188
0.0334482
0.0394532
0.0463364
0.0542734
0.064852
0.0770249
0.0876787
0.0945711
0.0971447
0.0958234
0.0912826
0.0840554
0.0750275
0.0653354
0.0561261
0.0484833
0.0431377
0.040113
0.0387123
0.0379333
0.0369965
0.0356092
0.0338679
0.0320081
0.0302266
0.0286322
0.0272708
0.0261653
0.0253418
0.0248369
0.0246948
0.0249614
0.025676
0.026855
0.0284695
0.0304331
0.032603
0.0348347
0.0579745
0.123384
0.148843
0.158772
0.156416
0.145488
0.12937
0.11079
0.0917669
0.0738355
0.058226
0.0458309
0.0370993
0.0320301
0.0303004
0.0306732
0.032178
0.0347372
0.0385948
0.0443727
0.053157
0.0666479
0.0872359
0.117383
0.157335
0.202495
0.245087
0.279086
0.302225
0.314332
0.316181
0.308396
0.291075
0.263951
0.227087
0.181388
0.129643
0.08212
0.04686
0.0260665
0.0157927
0.0111255
0.00903103
0.00823599
0.00829613
0.00891599
0.00990459
0.0112674
0.0134414
0.0173953
0.0242209
0.0344225
0.0477638
0.0607034
0.0649767
0.0593426
0.0537299
0.0523557
0.0536203
0.0562835
0.0594873
0.0626566
0.0654743
0.0678696
0.0699438
0.0718121
0.0734666
0.0748075
0.0758056
0.0765943
0.077408
0.0784578
0.0798523
0.08159
0.0835939
0.0857521
0.0879452
0.0900553
0.0919673
0.0935696
0.0948691
0.0957756
0.0961134
0.0956869
0.0943372
0.0920016
0.088766
0.0849065
0.0806136
0.0760894
0.0718441
0.06797
0.0646747
0.0621618
0.0605845
0.0600396
0.0605863
0.0622752
0.0651462
0.069184
0.0742581
0.0800917
0.0862892
0.0924068
0.0980312
0.102835
0.106602
0.109218
0.11066
0.110973
0.110246
0.108603
0.106183
0.103136
0.0996096
0.0957426
0.0916627
0.0874804
0.0832877
0.0791567
0.0751413
0.0712781
0.0675905
0.064091
0.0607877
0.0576716
0.0547395
0.0519862
0.0494056
0.0469919
0.0447395
0.0426439
0.0407017
0.0389108
0.0372702
0.0357782
0.0344271
0.0331904
0.0320217
0.0309373
0.030225
0.0306547
0.0333463
0.0384621
0.0444991
0.0510755
0.0593774
0.0691488
0.0783082
0.0848354
0.0878269
0.0872906
0.0836201
0.0772193
0.0689396
0.0599608
0.0515809
0.0449823
0.0408097
0.038874
0.0382883
0.0379808
0.0372311
0.035864
0.0340728
0.032141
0.0302795
0.0286008
0.0271568
0.0259809
0.0251119
0.024601
0.0245065
0.0248829
0.025763
0.0271361
0.0289312
0.0310234
0.033254
0.0354876
0.0545455
0.11582
0.13847
0.1463
0.142517
0.130839
0.114584
0.0962801
0.0777608
0.0605195
0.045822
0.0345796
0.0272143
0.0235879
0.0231302
0.0242811
0.0260158
0.0281073
0.0306297
0.0339863
0.0389819
0.0471382
0.0610439
0.0844053
0.120413
0.167272
0.216911
0.260732
0.294425
0.316577
0.327745
0.328411
0.318585
0.297746
0.265363
0.221584
0.168758
0.113493
0.0667378
0.0360086
0.0200998
0.0131222
0.0101918
0.00903017
0.00889313
0.00939987
0.0103468
0.0117983
0.0142335
0.0185217
0.0254305
0.0352291
0.0472336
0.0572201
0.0591168
0.0543377
0.0505891
0.0503577
0.0523024
0.0553047
0.0586402
0.061863
0.0647893
0.0674522
0.0699524
0.0722629
0.0741933
0.0755842
0.0764983
0.0771995
0.0779892
0.0790687
0.0804979
0.0822214
0.0841217
0.0860671
0.0879358
0.089623
0.0910672
0.0922514
0.0932548
0.0939925
0.0943034
0.0939685
0.0927738
0.0905858
0.0873785
0.0835612
0.0793854
0.0751053
0.0709725
0.0672035
0.0640016
0.0615387
0.059933
0.0592474
0.05952
0.0608024
0.0631615
0.0666301
0.0711366
0.076465
0.0822738
0.0881586
0.0937268
0.0986521
0.1027
0.105731
0.107685
0.108567
0.108434
0.107375
0.105505
0.102955
0.0998586
0.0963506
0.0925578
0.0885947
0.0845605
0.0805371
0.0765883
0.0727611
0.0690875
0.0655882
0.0622752
0.0591425
0.0561892
0.0534115
0.0508041
0.0483611
0.0460773
0.0439483
0.041971
0.040144
0.0384669
0.0369395
0.0355565
0.0342973
0.0331194
0.0320172
0.0311997
0.0312842
0.0332618
0.0375129
0.042792
0.0482197
0.0544985
0.061875
0.0691942
0.0748584
0.0778113
0.0777184
0.0747003
0.0690602
0.0616679
0.053777
0.0467562
0.0417054
0.0390253
0.0382598
0.0383733
0.0383273
0.0375666
0.0360903
0.03419
0.0321724
0.0302394
0.0284944
0.0269898
0.0257661
0.0248733
0.0243739
0.0243347