/*--------------------------------*- C++ -*----------------------------------*\
  =========                 |
  \\      /  F ield         | OpenFOAM: The Open Source CFD Toolbox
   \\    /   O peration     | Website:  https://openfoam.org
    \\  /    A nd           | Version:  9
     \\/     M anipulation  |
\*---------------------------------------------------------------------------*/
FoamFile
{
    format      ascii;
    class       volScalarField;
    location    "0.02";
    object      p;
}
// * * * * * * * * * * * * * * * * * * * * * * * * * * * * * * * * * * * * * //

dimensions      [0 2 -2 0 0 0 0];

internalField   nonuniform List<scalar> 
12225
(
118.576
113.848
110.584
108.031
105.79
103.786
101.957
100.313
98.8711
97.5854
96.399
95.2909
94.2738
93.4049
92.6825
92.0673
91.5272
90.9291
117.532
113.82
110.615
108.017
105.764
103.763
101.939
100.296
98.8488
97.5603
96.3776
95.2779
94.2682
93.395
92.6617
92.0307
91.4654
90.8673
116.812
113.742
110.6
107.971
105.726
103.732
101.909
100.268
98.8207
97.5263
96.3361
95.2356
94.2357
93.3619
92.6219
91.9698
91.3616
90.7734
116.985
113.719
110.608
107.935
105.68
103.686
101.864
100.224
98.7743
97.4758
96.2881
95.1985
94.2101
93.3339
92.5729
91.8874
91.2481
90.6503
117.043
113.616
110.522
107.849
105.607
103.621
101.807
100.174
98.7233
97.4204
96.2282
95.1372
94.1493
93.2666
92.4868
91.7823
91.1278
90.5208
117.153
113.519
110.432
107.785
105.532
103.542
101.725
100.093
98.6446
97.3428
96.1549
95.0692
94.0852
93.199
92.4037
91.6789
91.0043
90.3767
116.774
113.308
110.307
107.649
105.406
103.429
101.628
100.007
98.5602
97.2555
96.0632
94.9757
93.9909
93.1007
92.2933
91.5522
90.8606
90.2133
116.422
112.791
110.1
107.503
105.276
103.303
101.499
99.8806
98.4399
97.1397
95.9522
94.8687
93.886
92.9939
92.178
91.4247
90.7199
90.0546
116.441
113.086
109.872
107.311
105.098
103.138
101.351
99.7421
98.3063
97.0075
95.8182
94.733
93.7492
92.8537
92.0302
91.2664
90.551
89.8736
116.608
111.918
109.478
107.066
104.893
102.939
101.155
99.5544
98.1284
96.8389
95.6565
94.5764
93.5974
92.7044
91.8777
91.105
90.3764
89.6839
113.924
111.815
109.173
106.791
104.645
102.714
100.948
99.3508
97.9293
96.6446
95.4638
94.3847
93.4072
92.515
91.6874
90.9115
90.1791
89.4856
112.848
111.011
108.752
106.49
104.376
102.45
100.684
99.0964
97.6897
96.4193
95.2493
94.1802
93.2138
92.331
91.5075
90.731
89.9968
89.3003
115.031
110.497
108.31
106.164
104.093
102.18
100.416
98.8284
97.4311
96.1742
95.0171
93.9574
92.9929
92.1073
91.2833
90.511
89.7831
89.0906
109.89
109.02
107.764
105.814
103.714
101.784
100.02
98.4406
97.0624
95.8257
94.6875
93.6477
92.7021
91.8304
91.0134
90.2446
89.5178
88.8278
105.516
109.713
108.244
105.512
103.198
101.223
99.47
97.9247
96.5802
95.374
94.2676
93.2582
92.3361
91.4798
90.6752
89.9176
89.2013
88.5167
112.456
111.383
107.815
104.861
102.48
100.488
98.7219
97.2081
95.908
94.7406
93.6728
92.7028
91.8168
90.9865
90.2032
89.4643
88.7663
88.0996
126.465
113.751
107.625
103.959
101.297
99.2198
97.5454
96.1547
94.9522
93.8741
92.893
91.9955
91.16
90.3735
89.6275
88.9194
88.2464
87.6042
125.367
112.975
105.558
101.689
99.109
97.2599
95.8509
94.6743
93.6367
92.6934
91.8299
91.027
90.265
89.5388
88.8503
88.1972
87.5725
86.9705
92.431
95.7829
96.2305
95.7929
95.0903
94.2146
93.338
92.5855
91.8665
91.1513
90.4693
89.8257
89.1988
88.5815
87.9832
87.4076
86.8493
86.304
92.6681
90.6176
90.8791
91.2269
91.3193
91.1632
90.8769
90.5045
90.0909
89.6307
89.1402
88.6411
88.138
87.6301
87.1237
86.6249
86.1342
85.6486
75.9903
85.1004
87.257
88.2643
88.8157
89.1009
89.1353
89.0198
88.8215
88.5452
88.2062
87.832
87.4329
87.0085
86.5664
86.119
85.6726
85.2267
79.6398
80.6792
83.8821
85.6065
86.7753
87.4658
87.788
87.8875
87.8499
87.7048
87.4669
87.1726
86.8417
86.4804
86.0955
85.6975
85.2927
84.8837
74.8342
79.4679
82.3362
84.3283
85.5936
86.3768
86.823
87.0455
87.116
87.0654
86.9212
86.7033
86.4336
86.123
85.7796
85.4139
85.0344
84.646
73.7765
78.4481
81.2277
83.2515
84.6218
85.5627
86.1582
86.4819
86.6161
86.6199
86.5256
86.3486
86.1178
85.8393
85.5264
85.1883
84.8337
84.4674
78.08
79.1588
81.1606
82.8429
84.1075
85.0176
85.6396
86.0323
86.2364
86.2985
86.2536
86.1233
85.9163
85.6585
85.3615
85.0352
84.6908
84.3344
76.5228
78.4093
80.5856
82.3867
83.737
84.7153
85.3627
85.7692
85.9972
86.0885
86.0685
85.9596
85.7745
85.531
85.2444
84.9272
84.5926
84.25
73.2534
78.1568
80.6209
82.2206
83.4822
84.4521
85.1248
85.5592
85.819
85.9424
85.9521
85.8654
85.6957
85.4594
85.1707
84.8475
84.508
84.1666
75.0962
78.1526
80.4249
82.0891
83.3717
84.3491
85.0196
85.4501
85.7189
85.8589
85.8839
85.8088
85.6496
85.4173
85.1285
84.8063
84.4715
84.1347
76.1897
78.2968
80.4108
82.0173
83.2894
84.271
84.9358
85.3629
85.6442
85.8064
85.8531
85.7935
85.6416
85.4079
85.1081
84.7692
84.4197
84.0781
77.8014
78.4267
80.4032
82.0307
83.2895
84.253
84.9047
85.3253
85.6087
85.779
85.8364
85.7872
85.6409
85.406
85.1008
84.7576
84.4072
84.0694
73.5622
73.5528
73.3893
73.0777
72.6192
72.0182
71.2826
70.4253
69.4677
68.4451
67.4095
66.4302
65.591
64.9792
64.6766
64.73
65.1622
65.9494
67.0131
68.2292
69.4415
70.5014
71.3167
71.7287
72.0117
72.3168
72.1678
71.9595
72.2021
73.5999
73.7366
72.7604
70.7556
67.9183
64.5001
60.716
56.7599
52.781
48.9019
45.2169
41.8046
38.7291
36.0458
33.7997
32.0268
30.7523
29.9919
29.75
30.016
30.7672
31.9559
33.5254
35.4117
37.5497
39.8749
42.3275
44.8543
47.4101
49.9586
52.4728
54.9348
57.335
59.6717
61.9493
64.1772
66.3675
68.5327
70.6831
72.8245
74.9574
77.0762
79.1689
81.218
83.2015
85.0946
86.8717
88.5086
89.9849
91.2855
92.4
93.3242
94.0598
94.6131
94.9886
95.2107
95.2925
95.2524
95.1073
94.873
94.5643
94.1943
93.7745
93.3152
92.8252
92.3121
91.7823
91.2415
90.6942
90.1442
89.5944
89.0471
88.5039
87.966
87.4341
86.9087
86.39
85.878
85.3725
84.8734
84.3802
83.8927
83.4103
82.9327
82.4592
81.9894
81.5233
81.0597
80.5979
80.1377
79.679
79.2215
78.765
78.3093
77.8541
77.3996
76.9453
76.4913
76.0373
75.5831
75.1285
74.6733
74.2174
73.7605
73.3024
72.843
72.382
71.9192
71.4546
70.9879
70.519
70.0476
69.5737
69.0971
68.6178
68.1356
67.6503
67.162
66.6706
66.176
65.6782
65.1771
64.6727
64.165
63.6538
63.1392
62.621
62.0993
61.5739
61.045
60.5126
59.9765
59.4371
58.8942
58.3481
57.7989
57.247
56.6926
56.1363
55.5785
55.0205
54.4629
53.9081
53.357
52.8149
52.2833
51.7733
51.2886
50.8548
50.4816
50.2104
73.3812
73.3095
73.0932
72.7387
72.246
71.6118
70.8348
69.9204
68.8845
67.7594
66.5963
65.4664
64.4568
63.6671
63.191
63.118
63.4959
64.3111
65.4929
66.9239
68.4434
69.8648
71.0277
71.924
72.4737
73.2231
73.7861
72.2729
71.3108
71.4106
70.9581
69.6095
67.4101
64.5339
61.1942
57.5766
53.8368
50.0945
46.4469
42.9734
39.7445
36.8245
34.2724
32.1412
30.4765
29.3143
28.678
28.5682
28.9619
29.8256
31.1209
32.7936
34.7811
37.015
39.4283
41.9584
44.5508
47.1596
49.7486
52.2913
54.7706
57.1778
59.5121
61.779
63.9896
66.1581
68.2999
70.428
72.5506
74.6694
76.7798
78.8701
80.9227
82.9148
84.8207
86.6138
88.2689
89.7643
91.084
92.2175
93.1603
93.9138
94.4841
94.8706
95.1064
95.2006
95.1711
95.0351
94.8088
94.5071
94.1432
93.7287
93.2741
92.788
92.2783
91.7515
91.2133
90.6683
90.1204
89.5725
89.0269
88.4854
87.949
87.4185
86.8944
86.3769
85.866
85.3615
84.8633
84.371
83.8843
83.4026
82.9255
82.4525
81.9831
81.5167
81.0529
80.5913
80.1315
79.6732
79.2162
78.7603
78.3051
77.8505
77.3964
76.9426
76.489
76.0353
75.5814
75.1271
74.6722
74.2165
73.7597
73.3018
72.8425
72.3816
71.9189
71.4544
70.9877
70.5188
70.0475
69.5736
69.097
68.6177
68.1355
67.6503
67.162
66.6706
66.176
65.6782
65.1771
64.6727
64.165
63.6538
63.1391
62.6209
62.0991
61.5738
61.0448
60.5123
59.9762
59.4367
58.8937
58.3475
57.7982
57.2461
56.6915
56.1349
55.5769
55.0183
54.4602
53.9043
53.3524
52.8078
52.2744
51.7581
51.269
50.8129
50.4122
50.0213
73.106
72.9751
72.7079
72.3055
71.756
71.047
70.1705
69.1257
67.923
66.5926
65.1911
63.8002
62.5262
61.4932
60.8196
60.601
60.936
61.8128
63.1517
64.8265
66.698
68.637
70.4287
72.4523
73.3595
72.9004
72.4396
71.3593
69.8218
68.3037
66.5886
64.5775
62.1929
59.4675
56.4568
53.2454
49.9117
46.5368
43.1953
39.9635
36.9162
34.1298
31.6782
29.63
28.0432
26.9615
26.4119
26.408
26.9476
27.9929
29.4886
31.3679
33.5577
35.9826
38.5693
41.2511
43.9707
46.6814
49.3475
51.9439
54.4549
56.8736
59.2005
61.4435
63.6169
65.7395
67.832
69.9127
71.9942
74.081
76.1703
78.2518
80.3081
82.3153
84.2459
86.0707
87.762
89.2962
90.6555
91.8287
92.8104
93.6011
94.2054
94.6248
94.8876
95.0064
94.9984
94.8812
94.6715
94.3844
94.0334
93.6304
93.1857
92.7082
92.2058
91.6852
91.1524
90.6121
90.0684
89.5244
88.9825
88.4444
87.9111
87.3836
86.8622
86.3471
85.8385
85.3362
84.84
84.3495
83.8644
83.3842
82.9086
82.4369
81.9687
81.5034
81.0409
80.5805
80.1219
79.6647
79.2086
78.7533
78.2988
77.8449
77.3915
76.9384
76.4853
76.0322
75.5788
75.1249
74.6704
74.215
73.7585
73.3008
72.8417
72.3809
71.9184
71.454
70.9874
70.5186
70.0473
69.5734
69.0969
68.6176
68.1353
67.6502
67.1619
66.6705
66.176
65.6782
65.1772
64.6728
64.165
63.6538
63.1391
62.6208
62.099
61.5736
61.0446
60.512
59.9758
59.4361
58.893
58.3467
57.7972
57.2448
56.6898
56.1327
55.5741
55.0146
54.4554
53.8978
53.3439
52.7956
52.2579
51.7324
51.2299
50.7453
50.2967
49.8219
73.0347
72.8785
72.5846
72.1407
71.5263
70.7229
69.7115
68.4796
67.0291
65.3863
63.6141
61.8121
60.119
58.6944
57.6827
57.2571
57.5015
58.3923
59.8482
61.7373
63.9027
66.5307
68.3492
69.4911
69.9721
69.7088
68.8523
67.5478
65.9253
64.0694
61.9866
59.7161
57.246
54.5902
51.756
48.7752
45.6836
42.5331
39.3807
36.2958
33.3549
30.6425
28.2455
26.2481
24.7238
23.7293
23.3039
23.4725
24.2242
25.5161
27.2841
29.45
31.9265
34.6249
37.4608
40.3595
43.2592
46.1118
48.8823
51.5475
54.0941
56.5177
58.8215
61.0167
63.1235
65.1672
67.1752
69.1736
71.1822
73.2109
75.2602
77.3221
79.3793
81.4058
83.3699
85.2383
86.98
88.569
89.9865
91.2197
92.2619
93.1113
93.7709
94.2438
94.5516
94.7097
94.7358
94.6479
94.4634
94.1984
93.867
93.4813
93.052
92.5882
92.0977
91.5875
91.0636
90.531
89.994
89.4559
88.9193
88.3861
87.8574
87.3342
86.8167
86.3053
85.8001
85.3009
84.8075
84.3198
83.8372
83.3593
82.8858
82.4161
81.9497
81.4862
81.0251
80.5661
80.1086
79.6524
79.1973
78.7431
78.2896
77.8367
77.3842
76.9318
76.4796
76.0271
75.5743
75.121
74.6669
74.212
73.7559
73.2985
72.8397
72.3792
71.917
71.4527
70.9863
70.5176
70.0464
69.5726
69.0962
68.6169
68.1348
67.6496
67.1615
66.6701
66.1756
65.6779
65.1769
64.6725
64.1647
63.6535
63.1388
62.6205
62.0986
61.5731
61.0441
60.5114
59.9751
59.4353
58.892
58.3454
57.7956
57.2429
56.6875
56.1297
55.5703
55.0097
54.4492
53.8895
53.3329
52.7805
52.2368
51.7017
51.1834
50.6735
50.1808
49.6486
73.4599
73.3049
73.0062
72.5484
71.9078
71.0605
69.977
68.6315
67.0147
65.1422
63.0685
60.8974
58.7842
56.9553
55.5918
54.8145
54.8354
55.5994
56.9839
58.7871
60.7672
62.6681
64.1845
65.1485
65.4463
65.1097
64.2478
62.9704
61.3962
59.5673
57.5119
55.2609
52.8343
50.2495
47.5128
44.636
41.6362
38.5463
35.415
32.3108
29.3179
26.5346
24.0673
22.0241
20.5032
19.5811
19.3036
19.6778
20.6893
22.2965
24.4247
26.9761
29.8418
32.9124
36.0871
39.2799
42.4231
45.4674
48.38
51.1411
53.741
56.179
58.4629
60.6081
62.6367
64.5787
66.47
68.3478
70.2448
72.1816
74.1639
76.1859
78.231
80.2699
82.2648
84.1761
85.9683
87.6136
89.0926
90.3933
91.5089
92.4352
93.171
93.719
94.0927
94.3076
94.3818
94.3345
94.1845
93.9492
93.6435
93.2806
92.8713
92.4251
91.9503
91.4541
90.9425
90.4209
89.8936
89.3641
88.8351
88.3086
87.7859
87.2681
86.7557
86.249
85.748
85.2529
84.7633
84.279
83.7998
83.325
82.8544
82.3873
81.9234
81.4622
81.0031
80.5459
80.0902
79.6357
79.1821
78.7294
78.2773
77.8256
77.3743
76.923
76.4717
76.0201
75.5681
75.1155
74.6621
74.2077
73.7522
73.2953
72.8369
72.3768
71.9148
71.4508
70.9847
70.5161
70.0451
69.5715
69.0951
68.616
68.1339
67.6489
67.1608
66.6696
66.1751
65.6775
65.1765
64.6721
64.1644
63.6531
63.1384
62.6201
62.0982
61.5726
61.0435
60.5107
59.9743
59.4343
58.8908
58.3439
57.7938
57.2406
56.6846
56.1262
55.5658
55.0039
54.4416
53.8796
53.3198
52.7628
52.2121
51.667
51.1321
50.599
50.068
49.4954
74.487
74.3495
74.0716
73.6425
73.0365
72.2282
71.1836
69.8735
68.2874
66.4351
64.3622
62.1657
60.0007
58.0691
56.569
55.6332
55.3494
55.7043
56.5931
57.8341
59.2004
60.4555
61.3981
61.884
61.8414
61.3086
60.3527
59.0453
57.4624
55.6491
53.6361
51.4386
49.0627
46.5066
43.7658
40.8392
37.737
34.4878
31.1442
27.7851
24.5142
21.4548
18.7429
16.5162
14.8994
13.9881
13.8394
14.4781
15.8657
17.9315
20.575
23.6708
27.0802
30.6653
34.3024
37.8906
41.3559
44.6507
47.7492
50.6415
53.3275
55.814
58.1131
60.2417
62.2226
64.0881
65.8793
67.6438
69.4268
71.2601
73.1571
75.1177
77.1274
79.1551
81.156
83.0829
84.895
86.5634
88.0727
89.4175
90.5939
91.5958
92.416
93.054
93.5126
93.8023
93.9397
93.9448
93.8383
93.6396
93.3658
93.031
92.6466
92.2224
91.7668
91.2873
90.7908
90.2828
89.768
89.2498
88.731
88.2136
87.699
87.1882
86.682
86.1809
85.6851
85.1947
84.7096
84.2296
83.7543
83.2834
82.8163
82.3526
81.8918
81.4333
80.9769
80.522
80.0685
79.616
79.1642
78.7132
78.2626
77.8123
77.3623
76.9123
76.4621
76.0116
75.5606
75.1088
74.6561
74.2024
73.7475
73.2912
72.8332
72.3736
71.912
71.4483
70.9824
70.5141
70.0433
69.5699
69.0937
68.6147
68.1328
67.6478
67.1599
66.6687
66.1744
65.6768
65.1759
64.6715
64.1638
63.6526
63.1378
62.6195
62.0975
61.5719
61.0427
60.5098
59.9732
59.4331
58.8894
58.3422
57.7916
57.2379
56.6813
56.122
55.5604
54.9971
54.4329
53.8683
53.3047
52.7427
52.1845
51.6291
51.0782
50.524
49.9615
49.359
76.0581
75.9473
75.7186
75.3629
74.8606
74.1883
73.3171
72.2232
70.8975
69.3464
67.6039
65.7517
63.928
62.2865
60.9248
59.9449
59.3932
59.2515
59.4396
59.8271
60.2549
60.5657
60.6343
60.388
59.8023
58.8915
57.6831
56.2172
54.5326
52.6573
50.6032
48.364
45.9194
43.2435
40.3166
37.1316
33.7021
30.0663
26.2918
22.4761
18.7455
15.2503
12.158
9.64261
7.86841
6.96356
6.99096
7.94387
9.78409
12.4249
15.7327
19.5384
23.6573
27.9086
32.1351
36.2162
40.0731
43.6647
46.9795
50.0236
52.8119
55.3615
57.6898
59.8167
61.7684
63.5794
65.294
66.9629
68.6383
70.3648
72.1708
74.067
76.0477
78.0833
80.1204
82.0919
83.9328
85.6015
87.0918
88.4212
89.6067
90.6497
91.5412
92.2681
92.821
93.2
93.415
93.4843
93.43
93.2742
93.0365
92.7334
92.3776
91.9793
91.547
91.0882
90.6096
90.1175
89.617
89.1122
88.6059
88.0998
87.5954
87.0937
86.5953
86.101
85.6112
85.1262
84.6461
84.1709
83.7002
83.2336
82.7708
82.311
81.8538
81.3988
80.9454
80.4934
80.0424
79.5922
79.1427
78.6936
78.2448
77.7963
77.3478
76.8992
76.4504
76.0011
75.5512
75.1004
74.6487
74.1958
73.7416
73.286
72.8287
72.3695
71.9084
71.4452
70.9796
70.5116
70.0411
69.5678
69.0919
68.613
68.1313
67.6465
67.1587
66.6677
66.1734
65.6759
65.1751
64.6708
64.1631
63.6519
63.1371
62.6188
62.0968
61.5711
61.0418
60.5088
59.9721
59.4317
58.8877
58.3402
57.7892
57.2349
56.6775
56.1172
55.5545
54.9896
54.4232
53.8557
53.2882
52.7209
52.155
51.5893
51.0235
50.4503
49.8624
49.2365
77.8989
77.8192
77.654
77.3964
77.0319
76.5432
75.9104
75.1185
74.1598
73.0373
71.7764
70.4427
69.0728
67.7182
66.4727
65.408
64.555
63.8985
63.3841
62.9323
62.4539
61.8696
61.1218
60.179
59.0321
57.6869
56.1569
54.4592
52.6029
50.5845
48.3849
45.9724
43.3074
40.3512
37.075
33.4677
29.5443
25.3503
20.9651
16.5033
12.1148
7.98403
4.32413
1.36536
-0.671719
-1.62292
-1.42902
-0.117028
2.28097
5.65411
9.81815
14.5407
19.5713
24.6709
29.6364
34.3207
38.6406
42.5688
46.1167
49.3171
52.2079
54.8213
57.1809
59.3068
61.2233
62.9661
64.5834
66.1325
67.6747
69.2693
70.9675
72.802
74.7822
76.8771
79.0149
81.1041
83.0512
84.78
86.2643
87.5355
88.6568
89.6759
90.5965
91.394
92.0393
92.5143
92.8171
92.9604
92.9662
92.8593
92.6622
92.3935
92.0681
91.6975
91.2909
90.8556
90.3985
89.9257
89.4425
88.9532
88.4609
87.968
87.4758
86.9849
86.4962
86.0102
85.5276
85.0489
84.5745
84.1044
83.6387
83.177
82.7188
82.2634
81.8105
81.3593
80.9095
80.4608
80.0127
79.5652
79.1181
78.6713
78.2246
77.778
77.3313
76.8844
76.437
75.9891
75.5404
75.0909
74.6402
74.1882
73.7349
73.28
72.8233
72.3648
71.9042
71.4414
70.9762
70.5086
70.0383
69.5654
69.0897
68.6111
68.1295
67.6449
67.1572
66.6664
66.1723
65.6749
65.1741
64.6699
64.1622
63.6511
63.1363
62.6179
62.0959
61.5702
61.0408
60.5076
59.9707
59.4301
58.8858
58.3379
57.7864
57.2315
56.6734
56.1121
55.548
54.9813
54.4126
53.8421
53.2705
52.6978
52.1243
51.5486
50.969
50.3791
49.7704
49.1256
79.695
79.6451
79.5406
79.376
79.1418
78.8274
78.4186
77.904
77.2767
76.5322
75.6688
74.6746
73.5821
72.4252
71.2453
70.0808
68.9547
67.8671
66.7966
65.7092
64.5679
63.3409
62.0055
60.5497
58.9711
57.2732
55.4604
53.5308
51.4709
49.2536
46.8374
44.1687
41.1883
37.8443
34.1011
29.9447
25.3864
20.4699
15.2802
9.95127
4.67124
-0.31978
-4.7401
-8.29129
-10.7034
-11.7882
-11.4626
-9.71392
-6.62046
-2.34929
2.85104
8.67774
14.8064
20.9293
26.7857
32.192
37.0581
41.3717
45.1715
48.5266
51.5134
54.1938
56.6063
58.7692
60.6946
62.4037
63.9368
65.3565
66.7387
68.1644
69.7099
71.4324
73.3596
75.4595
77.6751
79.9078
82.0228
83.8932
85.4659
86.754
87.8273
88.7757
89.6607
90.4821
91.1996
91.7686
92.1639
92.3863
92.4559
92.4004
92.2466
92.0156
91.7232
91.3817
91.0015
90.5911
90.1573
89.7061
89.2429
88.7721
88.2967
87.8189
87.3402
86.8617
86.3841
85.908
85.4339
84.9627
84.4948
84.0307
83.5704
83.1138
82.6606
82.2101
81.7617
81.3149
80.8691
80.424
79.9793
79.5348
79.0904
78.6462
78.2018
77.7573
77.3126
76.8675
76.4218
75.9754
75.5282
75.0799
74.6304
74.1795
73.7271
73.273
72.8171
72.3593
71.8993
71.437
70.9723
70.5051
70.0352
69.5626
69.0871
68.6088
68.1274
67.6431
67.1556
66.6649
66.1709
65.6736
65.1729
64.6688
64.1612
63.6501
63.1354
62.617
62.0949
61.5691
61.0396
60.5063
59.9692
59.4284
58.8838
58.3355
57.7835
57.2279
56.6689
56.1065
55.541
54.9725
54.4014
53.8278
53.252
52.6738
52.0929
51.5077
50.9157
50.311
49.6852
49.0248
81.2231
81.1977
81.143
81.0494
80.9108
80.7231
80.4764
80.1583
79.7557
79.2525
78.6276
77.8606
76.9449
75.8906
74.7199
73.4589
72.1303
70.7477
69.3145
67.8259
66.2729
64.6462
62.9397
61.1517
59.2837
57.3378
55.3113
53.1901
50.9442
48.5251
45.869
42.9051
39.5645
35.7869
31.5258
26.7553
21.4767
15.7313
9.61632
3.29947
-2.97631
-8.90206
-14.1255
-18.2845
-21.06
-22.2399
-21.746
-19.5773
-15.8234
-10.6835
-4.45821
2.48158
9.73496
16.9197
23.7118
29.8811
35.3259
40.0472
44.1093
47.6121
50.6767
53.4175
55.9043
58.1515
60.1446
61.8768
63.3736
64.7009
65.9525
67.2292
68.6211
70.2016
72.0334
74.0424
76.1982
78.4327
80.6337
82.6744
84.4288
85.8477
86.996
87.9668
88.8294
89.6276
90.3638
90.9964
91.475
91.7767
91.9116
91.9079
91.7969
91.6036
91.3456
91.0354
90.6834
90.2987
89.8891
89.461
89.0196
88.569
88.1125
87.6523
87.1896
86.7251
86.2598
85.7946
85.3304
84.8678
84.4076
83.9502
83.4961
83.0451
82.5971
82.1517
81.7082
81.266
80.8246
80.3834
79.9424
79.5012
79.0599
78.6184
78.1766
77.7345
77.2919
76.8488
76.405
75.9603
75.5146
75.0677
74.6194
74.1697
73.7183
73.2652
72.8102
72.3531
71.8938
71.4321
70.9679
70.5011
70.0316
69.5593
69.0842
68.6061
68.1251
67.6409
67.1536
66.6631
66.1693
65.6722
65.1716
64.6676
64.1601
63.649
63.1343
62.6159
62.0938
61.568
61.0384
60.5049
59.9677
59.4266
58.8816
58.3329
57.7804
57.2241
56.6642
56.1006
55.5337
54.9633
54.3897
53.8129
53.2329
52.6493
52.0614
51.4673
50.8641
50.2464
49.6065
48.9332
82.4004
82.3854
82.35
82.2982
82.2239
82.1177
81.9702
81.7691
81.4965
81.1299
80.6408
79.9979
79.1758
78.1686
76.9921
75.6722
74.2346
72.6984
71.0759
69.3743
67.5984
65.7514
63.8367
61.858
59.8191
57.7188
55.5467
53.2779
50.8704
48.266
45.3913
42.1624
38.4947
34.3127
29.5581
24.196
18.2231
11.6847
4.6985
-2.52784
-9.69554
-16.4345
-22.3374
-26.9981
-30.0684
-31.3363
-30.7247
-28.2309
-23.9474
-18.0894
-10.9967
-3.10142
5.12521
13.2337
20.8485
27.6943
33.6467
38.7125
42.9933
46.6136
49.7145
52.4581
54.9701
57.2831
59.3731
61.196
62.7409
64.0582
65.2543
66.4555
67.779
69.307
71.0747
73.0415
75.1148
77.1983
79.258
81.2838
83.1871
84.8271
86.1438
87.1993
88.0922
88.8854
89.608
90.2537
90.7793
91.1428
91.3371
91.3846
91.3171
91.1622
90.9393
90.6615
90.3391
89.9816
89.5974
89.1934
88.7749
88.3462
87.9102
87.4688
87.0234
86.5748
86.1235
85.6706
85.217
84.7639
84.3124
83.8628
83.4157
82.971
82.5288
82.0888
81.6504
81.213
80.7762
80.3393
79.9022
79.4647
79.0267
78.5882
78.1492
77.7096
77.2694
76.8284
76.3865
75.9437
75.4996
75.0543
74.6074
74.1589
73.7086
73.2566
72.8025
72.3463
71.8876
71.4266
70.9629
70.4966
70.0276
69.5557
69.081
68.6032
68.1225
67.6386
67.1515
66.6612
66.1676
65.6706
65.1702
64.6663
64.1589
63.6478
63.1331
62.6148
62.0926
61.5667
61.037
60.5034
59.966
59.4246
58.8794
58.3302
57.7771
57.2201
56.6593
56.0946
55.5261
54.9538
54.3778
53.7978
53.2137
52.6249
52.0303
51.4279
50.8147
50.1857
49.5337
48.8496
83.2507
83.2451
83.2274
83.1974
83.149
83.0771
82.973
82.8249
82.6141
82.315
81.8961
81.3238
80.568
79.6092
78.4493
77.11
75.6226
74.0161
72.3109
70.5189
68.6477
66.7037
64.6925
62.619
60.4874
58.2962
56.0326
53.667
51.1496
48.4106
45.3667
41.9283
38.0069
33.5198
28.3974
22.5972
16.1124
8.9955
1.38524
-6.47719
-14.2516
-21.5237
-27.8481
-32.8052
-36.0446
-37.3515
-36.6503
-33.9327
-29.2891
-22.9552
-15.3048
-6.81421
2.00279
10.6573
18.7578
26.0138
32.2769
37.5359
41.9485
45.6643
48.8039
51.5171
53.9926
56.3145
58.4736
60.3967
62.0353
63.4187
64.6397
65.8351
67.1579
68.7226
70.562
72.5919
74.6624
76.6584
78.5507
80.3774
82.1689
83.8604
85.3305
86.5268
87.4856
88.2735
88.9579
89.5754
90.106
90.5023
90.7402
90.832
90.8066
90.6913
90.5057
90.2625
89.9717
89.6429
89.2855
88.9068
88.5125
88.1066
87.6921
87.2708
86.8439
86.4118
85.9755
85.5359
85.0942
84.6516
84.2094
83.7684
83.3292
82.8918
82.4561
82.0219
81.5889
81.1566
80.7244
80.2921
79.8591
79.4254
78.9909
78.5556
78.1196
77.6827
77.245
76.8063
76.3666
75.9257
75.4835
75.0398
74.5944
74.1473
73.6981
73.2473
72.7942
72.3388
71.8809
71.4205
70.9575
70.4917
70.0232
69.5517
69.0774
68.6
68.1196
67.636
67.1492
66.6591
66.1657
65.6689
65.1686
64.6648
64.1575
63.6465
63.1319
62.6135
62.0914
61.5654
61.0356
60.5019
59.9642
59.4226
58.877
58.3274
57.7737
57.216
56.6542
56.0883
55.5183
54.9442
54.3657
53.7826
53.1945
52.6007
51.9998
51.3899
50.7678
50.1288
49.4666
48.7734
83.8777
83.8719
83.8562
83.8317
83.7903
83.7266
83.6316
83.4954
83.3027
83.031
82.6502
82.1252
81.4235
80.5216
79.4112
78.1019
76.6179
74.9903
73.2492
71.418
69.512
67.5394
65.5039
63.4053
61.2419
59.0083
56.6906
54.2597
51.6702
48.8555
45.7292
42.1935
38.1515
33.5155
28.215
22.2112
15.4978
8.13429
0.273308
-7.82743
-15.8099
-23.2515
-29.6749
-34.6628
-37.9015
-39.1932
-38.4112
-35.5732
-30.7938
-24.3172
-16.5343
-7.93019
0.978126
9.69652
17.8337
25.1256
31.4165
36.6622
41.0447
44.7714
47.9501
50.6647
53.0802
55.3566
57.5638
59.628
61.421
62.878
64.0565
65.1213
66.2919
67.7752
69.6889
71.9368
74.2205
76.2702
78.0611
79.7611
81.4621
83.1008
84.5803
85.8397
86.8692
87.6999
88.3841
88.9728
89.4787
89.8748
90.1351
90.2608
90.2732
90.1965
90.0486
89.8413
89.5839
89.2858
88.9568
88.6049
88.2359
87.8538
87.4616
87.0609
86.653
86.2383
85.8176
85.3919
84.9627
84.5314
84.0993
83.6676
83.2368
82.8072
82.3788
81.9511
81.524
81.097
80.6697
80.2419
79.8133
79.3836
78.9528
78.5209
78.088
77.654
77.219
76.7828
76.3453
75.9065
75.4662
75.0242
74.5805
74.1348
73.6872
73.2373
72.7852
72.3307
71.8736
71.414
70.9516
70.4864
70.0184
69.5474
69.0735
68.5965
68.1165
67.6332
67.1467
66.6568
66.1636
65.667
65.1669
64.6633
64.156
63.6451
63.1305
62.6122
62.09
61.564
61.0341
60.5003
59.9624
59.4205
58.8746
58.3245
57.7703
57.2118
56.6491
56.0821
55.5106
54.9345
54.3536
53.7675
53.1756
52.5771
51.9704
51.3536
50.7235
50.0757
49.4048
48.7039
84.4004
84.3803
84.3465
84.3079
84.253
84.1785
84.0754
83.9336
83.7388
83.4727
83.1114
82.6248
81.9798
81.1475
80.1097
78.8644
77.426
75.8197
74.0771
72.2293
70.3026
68.3147
66.2739
64.1798
62.024
59.7908
57.4613
55.0126
52.3981
49.5581
46.4167
42.8837
38.8644
34.2699
29.0278
23.0986
16.4809
9.24249
1.54114
-6.36617
-14.1286
-21.3332
-27.5341
-32.3357
-35.4341
-36.6561
-35.8717
-33.096
-28.4448
-22.185
-14.7002
-6.4597
2.04487
10.3591
18.1113
25.0758
31.1292
36.1938
40.4167
44.0669
47.2515
49.9561
52.2826
54.4383
56.5874
58.7322
60.7343
62.3954
63.5897
64.4084
65.1691
66.2508
67.9431
70.2761
72.918
75.3894
77.4321
79.1519
80.7456
82.2877
83.7456
85.0494
86.1493
87.0449
87.7754
88.3856
88.8918
89.2824
89.5464
89.6909
89.7333
89.6917
89.5798
89.4075
89.1832
88.9161
88.6161
88.2918
87.9491
87.5918
87.2224
86.8427
86.454
86.0569
85.6521
85.2408
84.8244
84.4048
83.9834
83.5613
83.1393
82.7179
82.2972
81.8766
81.4558
81.0345
80.6124
80.1893
79.765
79.3395
78.9125
78.4842
78.0546
77.6236
77.1914
76.7578
76.3228
75.8862
75.4479
75.0077
74.5657
74.1215
73.6752
73.2266
72.7756
72.322
71.8658
71.4069
70.9453
70.4807
70.0133
69.5428
69.0694
68.5928
68.1131
67.6302
67.1439
66.6544
66.1614
65.665
65.1651
64.6616
64.1545
63.6437
63.1291
62.6108
62.0886
61.5626
61.0326
60.4986
59.9606
59.4184
58.8721
58.3216
57.7668
57.2076
56.644
56.0758
55.5028
54.9249
54.3417
53.7527
53.1572
52.5543
51.9423
51.3192
50.6819
50.0266
49.3481
48.6406
84.8421
84.8134
84.7609
84.7073
84.6351
84.5424
84.4201
84.2615
84.0557
83.7877
83.4375
82.9807
82.3882
81.6309
80.6873
79.5358
78.1802
76.634
74.9224
73.0783
71.1351
69.1215
67.0574
64.9512
62.7976
60.5809
58.2764
55.8538
53.2712
50.475
47.3994
43.9662
40.0926
35.7017
30.7314
25.146
18.9504
12.2152
5.08976
-2.19097
-9.31052
-15.9015
-21.5763
-25.9881
-28.8533
-30.0046
-29.3707
-26.8813
-22.6531
-16.9659
-10.1898
-2.74955
4.9134
12.4133
19.4385
25.7827
31.3575
36.0976
40.0786
43.5774
46.7397
49.4494
51.6728
53.6431
55.6359
57.7811
59.9758
61.9303
63.3358
64.144
64.6658
65.3746
66.69
68.8102
71.5139
74.2555
76.5895
78.4906
80.154
81.6586
83.0061
84.2374
85.3579
86.3235
87.1206
87.7749
88.3044
88.706
88.9792
89.1386
89.2046
89.1928
89.1134
88.9735
88.7802
88.5425
88.2706
87.9734
87.6569
87.3245
86.9782
86.6196
86.2501
85.8705
85.4817
85.0848
84.6816
84.2739
83.8634
83.4512
83.0381
82.625
82.2119
81.7986
81.3846
80.9693
80.5526
80.1344
79.7147
79.2933
78.8703
78.4457
78.0195
77.5918
77.1625
76.7316
76.2991
75.8648
75.4286
74.9904
74.5501
74.1075
73.6625
73.2153
72.7654
72.3129
71.8576
71.3995
70.9385
70.4747
70.0078
69.5379
69.065
68.5888
68.1095
67.627
67.1411
66.6518
66.1591
65.6629
65.1631
64.6598
64.1528
63.6421
63.1276
62.6094
62.0872
61.5611
61.031
60.4969
59.9587
59.4163
58.8697
58.3187
57.7633
57.2035
56.639
56.0696
55.4952
54.9155
54.3301
53.7384
53.1395
52.5325
51.9157
51.2869
50.6433
49.9813
49.2962
48.5829
85.1705
85.1498
85.1255
85.0656
84.9772
84.8658
84.7275
84.5551
84.3398
84.0712
83.7339
83.3073
82.7658
82.0826
81.2323
80.1923
78.9493
77.5022
75.8638
74.0588
72.119
70.0792
67.9718
65.82
63.6337
61.4073
59.1228
56.7499
54.245
51.5561
48.6243
45.385
41.7695
37.7136
33.1687
28.1109
22.5549
16.5696
10.2874
3.90688
-2.31057
-8.05997
-13.0224
-16.9034
-19.4574
-20.5237
-20.0251
-17.9321
-14.3524
-9.53617
-3.80726
2.48555
8.98053
15.375
21.4501
27.0262
32.0041
36.3431
40.0641
43.3709
46.4293
49.0977
51.186
52.8759
54.5707
56.6118
59.0281
61.461
63.3722
64.463
64.9961
65.5216
66.5247
68.2995
70.7946
73.5586
76.057
78.0778
79.7508
81.2206
82.5122
83.6517
84.6882
85.6264
86.4406
87.1223
87.6748
88.0971
88.3927
88.578
88.6732
88.6929
88.6456
88.537
88.3734
88.1638
87.919
87.6482
87.3575
87.0499
86.7269
86.3897
86.0397
85.6779
85.3055
84.9235
84.5336
84.138
83.7386
83.3364
82.9325
82.5276
82.1222
81.7163
81.3093
80.9004
80.4894
80.0764
79.6615
79.2445
78.8257
78.405
77.9824
77.558
77.1318
76.7039
76.274
75.8421
75.4082
74.972
74.5336
74.0928
73.6497
73.2034
72.7546
72.3031
71.8487
71.3915
70.9314
70.4682
70.002
69.5327
69.0603
68.5846
68.1058
67.6236
67.138
66.649
66.1566
65.6607
65.1611
64.658
64.1511
63.6405
63.1261
62.6079
62.0857
61.5596
61.0295
60.4952
59.9568
59.4142
58.8672
58.3159
57.76
57.1994
56.634
56.0636
55.4879
54.9065
54.319
53.7247
53.1227
52.5119
51.8906
51.2568
50.6076
49.9397
49.2489
48.5308
85.5177
85.5181
85.5049
85.4362
85.3238
85.1849
85.0228
84.8362
84.6179
84.3573
84.0401
83.6481
83.1586
82.546
81.7839
80.847
79.7155
78.3781
76.8353
75.1001
73.1965
71.1572
69.0188
66.8158
64.575
62.3099
60.0174
57.6765
55.2514
52.6941
49.9477
46.9514
43.6464
39.9807
35.916
31.4377
26.5665
21.3685
15.9604
10.5101
5.23225
0.374711
-3.80594
-7.07447
-9.2415
-10.1852
-9.85692
-8.23743
-5.41708
-1.60543
2.94115
7.97545
13.2397
18.5128
23.6567
28.5144
32.9327
36.8781
40.3825
43.5473
46.4522
48.9201
50.7375
52.0597
53.3307
55.0741
57.5851
60.513
63.1038
64.7628
65.5554
66.0094
66.7179
68.1568
70.4575
73.2361
75.8815
78.0221
79.6783
81.0339
82.2066
83.2524
84.2104
85.0847
85.8575
86.5181
87.0643
87.4932
87.8072
88.0192
88.1459
88.1992
88.1855
88.1088
87.9745
87.7921
87.5734
87.3283
87.0628
86.7794
86.479
86.1623
85.831
85.4865
85.1302
84.763
84.3865
84.0029
83.6141
83.2216
82.8264
82.4295
82.0316
81.6329
81.2327
80.8302
80.4251
80.0173
79.6071
79.1947
78.7801
78.3633
77.9444
77.5234
77.1005
76.6754
76.2482
75.8189
75.3872
74.9531
74.5165
74.0774
73.6356
73.1909
72.7433
72.2929
71.8396
71.3832
70.9239
70.4614
69.9959
69.5272
69.0553
68.5802
68.1018
67.62
67.1348
66.6461
66.154
65.6583
65.159
64.656
64.1493
63.6388
63.1245
62.6063
62.0842
61.558
61.0278
60.4935
59.9549
59.4121
58.8648
58.313
57.7566
57.1954
56.6292
56.0578
55.4808
54.8978
54.3083
53.7116
53.1068
52.4926
51.8673
51.229
50.5749
49.9019
49.2061
48.4836
85.9371
85.931
85.9125
85.8221
85.6674
85.4847
85.2914
85.0911
84.8781
84.6387
84.3554
84.0081
83.5736
83.026
82.338
81.4825
80.4357
79.1809
77.712
76.0358
74.1725
72.1533
70.0158
67.799
65.5368
63.2532
60.9573
58.6405
56.2768
53.825
51.2341
48.4489
45.4163
42.0904
38.4409
34.4608
30.1745
25.6441
20.9739
16.3088
11.8274
7.73043
4.21969
1.47309
-0.375912
-1.24866
-1.11373
0.0533986
2.1716
5.07954
8.60429
12.5922
16.8662
21.2608
25.691
30.011
33.998
37.6129
40.9641
44.067
46.823
48.9958
50.4334
51.3719
52.2979
53.7462
56.1107
59.1977
62.2428
64.4439
65.6653
66.3594
67.0692
68.3452
70.4732
73.1422
75.7657
77.9432
79.6052
80.8958
81.9792
82.9517
83.8544
84.6864
85.4264
86.0599
86.5837
86.9992
87.3112
87.531
87.6726
87.7462
87.7569
87.7073
87.6004
87.4438
87.2496
87.0286
86.7869
86.5264