/*--------------------------------*- C++ -*----------------------------------*\
  =========                 |
  \\      /  F ield         | OpenFOAM: The Open Source CFD Toolbox
   \\    /   O peration     | Website:  https://openfoam.org
    \\  /    A nd           | Version:  9
     \\/     M anipulation  |
\*---------------------------------------------------------------------------*/
FoamFile
{
    format      ascii;
    class       surfaceScalarField;
    location    "0.02";
    object      phi_0;
}
// * * * * * * * * * * * * * * * * * * * * * * * * * * * * * * * * * * * * * //

dimensions      [0 3 -1 0 0 0 0];

internalField   nonuniform List<scalar> 
24170
(
3.12319e-06
1.32835e-07
2.98778e-06
1.35416e-07
2.89477e-06
9.3004e-08
2.81609e-06
7.86832e-08
2.73162e-06
8.4472e-08
2.63708e-06
9.45381e-08
2.53868e-06
9.83986e-08
2.44379e-06
9.48931e-08
2.35269e-06
9.10929e-08
2.25981e-06
9.2881e-08
2.16229e-06
9.75238e-08
2.06275e-06
9.95399e-08
1.97071e-06
9.20426e-08
1.8892e-06
8.15115e-08
1.81282e-06
7.63747e-08
1.74114e-06
7.16852e-08
1.65407e-06
8.7068e-08
1.10283e-07
1.54378e-06
3.47682e-06
1.98676e-07
3.40685e-06
2.0539e-07
3.39671e-06
1.03136e-07
3.41876e-06
5.66378e-08
3.44778e-06
5.54562e-08
3.46702e-06
7.52946e-08
3.46794e-06
9.74794e-08
3.44971e-06
1.13119e-07
3.41756e-06
1.23241e-07
3.37955e-06
1.30899e-07
3.34373e-06
1.33343e-07
3.31385e-06
1.29412e-07
3.28962e-06
1.16273e-07
3.26886e-06
1.02277e-07
3.24402e-06
1.01211e-07
3.20834e-06
1.07364e-07
3.16227e-06
1.3314e-07
1.7363e-07
3.09892e-06
3.71332e-06
1.09786e-07
3.73097e-06
1.87738e-07
3.7088e-06
1.25305e-07
3.67496e-06
9.04766e-08
3.65435e-06
7.60729e-08
3.65345e-06
7.61911e-08
3.66407e-06
8.68629e-08
3.67651e-06
1.00681e-07
3.68573e-06
1.14019e-07
3.6915e-06
1.25123e-07
3.69522e-06
1.29624e-07
3.69797e-06
1.26667e-07
3.69728e-06
1.16957e-07
3.69188e-06
1.07677e-07
3.68197e-06
1.11129e-07
3.665e-06
1.24332e-07
3.6472e-06
1.50934e-07
1.89385e-07
3.63145e-06
3.92932e-06
9.41369e-08
3.93578e-06
1.81271e-07
3.96444e-06
9.66454e-08
3.9885e-06
6.64167e-08
3.98661e-06
7.79676e-08
3.97247e-06
9.03283e-08
3.96536e-06
9.39755e-08
3.96978e-06
9.62647e-08
3.97953e-06
1.04264e-07
3.98768e-06
1.16969e-07
3.99036e-06
1.26948e-07
3.98686e-06
1.30167e-07
3.9768e-06
1.27012e-07
3.9616e-06
1.22878e-07
3.94523e-06
1.27498e-07
3.92851e-06
1.41053e-07
3.91656e-06
1.62888e-07
1.94202e-07
3.91174e-06
4.1894e-06
8.98774e-08
4.18519e-06
1.85482e-07
4.18819e-06
9.36383e-08
4.20565e-06
4.89597e-08
4.22407e-06
5.95481e-08
4.23246e-06
8.19409e-08
4.23027e-06
9.61643e-08
4.22306e-06
1.03472e-07
4.21693e-06
1.10398e-07
4.21576e-06
1.18137e-07
4.22078e-06
1.2193e-07
4.23106e-06
1.19884e-07
4.24355e-06
1.14527e-07
4.25373e-06
1.12692e-07
4.25847e-06
1.22759e-07
4.25467e-06
1.44857e-07
4.24254e-06
1.75019e-07
2.09776e-07
4.22696e-06
4.5259e-06
8.30092e-08
4.56032e-06
1.51059e-07
4.53522e-06
1.18743e-07
4.49904e-06
8.51349e-08
4.4906e-06
6.79871e-08
4.5076e-06
6.49414e-08
4.53236e-06
7.14049e-08
4.55098e-06
8.48557e-08
4.55818e-06
1.03193e-07
4.55591e-06
1.20409e-07
4.54932e-06
1.28522e-07
4.54374e-06
1.25459e-07
4.54244e-06
1.1583e-07
4.54606e-06
1.09075e-07
4.55304e-06
1.15776e-07
4.55956e-06
1.38336e-07
4.56042e-06
1.74159e-07
2.16491e-07
4.5537e-06
4.77365e-06
5.25719e-08
4.80925e-06
1.1546e-07
4.8521e-06
7.58899e-08
4.87927e-06
5.79634e-08
4.88731e-06
5.99479e-08
4.87489e-06
7.73602e-08
4.8485e-06
9.78007e-08
4.82197e-06
1.11381e-07
4.80816e-06
1.17002e-07
4.81032e-06
1.18256e-07
4.82231e-06
1.16525e-07
4.83535e-06
1.1242e-07
4.84301e-06
1.08169e-07
4.8442e-06
1.07887e-07
4.84212e-06
1.17854e-07
4.84038e-06
1.40079e-07
4.84146e-06
1.73075e-07
2.12858e-07
4.8451e-06
5.04753e-06
-1.35983e-08
5.15622e-06
6.77298e-09
5.17861e-06
5.35025e-08
5.19503e-06
4.15389e-08
5.20593e-06
4.90486e-08
5.2071e-06
7.61936e-08
5.20191e-06
1.02993e-07
5.1964e-06
1.16889e-07
5.19504e-06
1.18362e-07
5.19867e-06
1.14622e-07
5.20449e-06
1.10712e-07
5.2085e-06
1.08405e-07
5.20761e-06
1.09061e-07
5.20101e-06
1.14484e-07
5.19064e-06
1.28228e-07
5.18003e-06
1.50688e-07
5.17281e-06
1.80298e-07
2.14468e-07
5.1712e-06
5.57196e-06
1.31202e-07
5.5584e-06
2.03319e-08
5.55806e-06
5.38467e-08
5.55916e-06
4.04367e-08
5.57393e-06
3.42776e-08
5.59316e-06
5.69649e-08
5.60583e-06
9.0328e-08
5.60841e-06
1.14303e-07
5.60313e-06
1.23641e-07
5.59336e-06
1.244e-07
5.58235e-06
1.21716e-07
5.57376e-06
1.17e-07
5.57026e-06
1.12558e-07
5.57215e-06
1.12598e-07
5.57744e-06
1.22937e-07
5.58397e-06
1.44153e-07
5.58942e-06
1.74851e-07
2.10311e-07
5.59358e-06
5.94305e-06
-9.48536e-09
5.96065e-06
2.73631e-09
5.94877e-06
6.57243e-08
5.91426e-06
7.49482e-08
5.88982e-06
5.87188e-08
5.89297e-06
5.38137e-08
5.91223e-06
7.10642e-08
5.92546e-06
1.01074e-07
5.92156e-06
1.27543e-07
5.9052e-06
1.40763e-07
5.88886e-06
1.38059e-07
5.88333e-06
1.2253e-07
5.89225e-06
1.03629e-07
5.9118e-06
9.30559e-08
5.9354e-06
9.93287e-08
5.95667e-06
1.2289e-07
5.97173e-06
1.59791e-07
2.01588e-07
5.98045e-06
6.34116e-06
-9.00548e-08
6.38851e-06
-4.46073e-08
6.40681e-06
4.74195e-08
6.39482e-06
8.69386e-08
6.38122e-06
7.23186e-08
6.38917e-06
4.58622e-08
6.40906e-06
5.11809e-08
6.41905e-06
9.10822e-08
6.41124e-06
1.35353e-07
6.39436e-06
1.5764e-07
6.38133e-06
1.51092e-07
6.3782e-06
1.25662e-07
6.38233e-06
9.9495e-08
6.38687e-06
8.85161e-08
6.3868e-06
9.93995e-08
6.37991e-06
1.2978e-07
6.36867e-06
1.71026e-07
2.15189e-07
6.35507e-06
5.67476e-06
-3.94741e-08
5.74398e-06
-1.13829e-07
5.81242e-06
-2.10224e-08
5.84849e-06
5.08672e-08
5.84897e-06
7.18461e-08
5.82395e-06
7.0881e-08
5.79896e-06
7.6168e-08
5.79535e-06
9.46966e-08
5.81669e-06
1.14013e-07
5.85059e-06
1.23739e-07
5.87765e-06
1.24029e-07
5.88245e-06
1.20861e-07
5.86091e-06
1.21042e-07
5.82099e-06
1.28428e-07
5.77651e-06
1.43878e-07
5.73987e-06
1.66423e-07
5.71823e-06
1.92665e-07
2.19246e-07
5.71418e-06
7.02928e-06
-1.7549e-07
6.97829e-06
-6.28383e-08
6.98134e-06
-2.40699e-08
6.99874e-06
3.34605e-08
6.97157e-06
9.90176e-08
6.91751e-06
1.24942e-07
6.87987e-06
1.13807e-07
6.88673e-06
8.78421e-08
6.93545e-06
6.52867e-08
7.00368e-06
5.55117e-08
7.06711e-06
6.05963e-08
7.10961e-06
7.83673e-08
7.12641e-06
1.04243e-07
7.12192e-06
1.32914e-07
7.10512e-06
1.60676e-07
7.08586e-06
1.85686e-07
7.07073e-06
2.078e-07
2.27339e-07
7.06263e-06
8.62864e-06
-2.25918e-07
8.54152e-06
2.42795e-08
8.50254e-06
1.49108e-08
8.48e-06
5.5998e-08
8.46091e-06
1.18112e-07
8.45708e-06
1.28775e-07
8.4664e-06
1.04489e-07
8.47715e-06
7.70904e-08
8.48319e-06
5.92414e-08
8.48694e-06
5.17645e-08
8.49364e-06
5.38964e-08
8.505e-06
6.70035e-08
8.519e-06
9.02465e-08
8.53143e-06
1.2048e-07
8.5405e-06
1.51608e-07
8.54641e-06
1.79776e-07
8.55171e-06
2.02507e-07
2.1996e-07
8.55908e-06
1.04912e-05
-3.28076e-08
1.05113e-05
4.18105e-09
1.05234e-05
2.76112e-09
1.0507e-05
7.24612e-08
1.04863e-05
1.38798e-07
1.04517e-05
1.63392e-07
1.04096e-05
1.46584e-07
1.03818e-05
1.04826e-07
1.03789e-05
6.21172e-08
1.03991e-05
3.16604e-08
1.04333e-05
1.96291e-08
1.04703e-05
2.99898e-08
1.04994e-05
6.11531e-08
1.05124e-05
1.0751e-07
1.05063e-05
1.57735e-07
1.04838e-05
2.02251e-07
1.0451e-05
2.35299e-07
2.53249e-07
1.04177e-05
1.27371e-05
-1.11768e-07
1.28442e-05
-1.02915e-07
1.28152e-05
3.17697e-08
1.27352e-05
1.52496e-07
1.2648e-05
2.2596e-07
1.26011e-05
2.10315e-07
1.26074e-05
1.40277e-07
1.26456e-05
6.66263e-08
1.26904e-05
1.72886e-08
1.27276e-05
-5.45581e-09
1.27584e-05
-1.12594e-08
1.27903e-05
-1.91327e-09
1.28297e-05
2.17541e-08
1.28756e-05
6.16646e-08
1.29203e-05
1.13064e-07
1.29561e-05
1.66371e-07
1.29778e-05
2.13671e-07
2.45449e-07
1.29856e-05
1.51253e-05
-1.07028e-07
1.5188e-05
-1.65628e-07
1.53561e-05
-1.36239e-07
1.55651e-05
-5.65835e-08
1.57371e-05
5.39729e-08
1.58352e-05
1.12266e-07
1.5864e-05
1.11476e-07
1.58549e-05
7.56943e-08
1.58345e-05
3.76599e-08
1.58141e-05
1.5003e-08
1.57937e-05
9.10382e-09
1.57729e-05
1.89395e-08
1.57517e-05
4.29019e-08
1.57344e-05
7.90102e-08
1.57253e-05
1.2214e-07
1.57267e-05
1.6498e-07
1.57388e-05
2.01529e-07
2.25447e-07
1.57588e-05
1.9017e-05
2.54385e-07
1.88647e-05
-1.33951e-08
1.88785e-05
-1.5001e-07
1.89956e-05
-1.73666e-07
1.91564e-05
-1.06862e-07
1.92792e-05
-1.05686e-08
1.93244e-05
6.63699e-08
1.92921e-05
1.07917e-07
1.92187e-05
1.1113e-07
1.91452e-05
8.84818e-08
1.90944e-05
5.99079e-08
1.90686e-05
4.47043e-08
1.90596e-05
5.1895e-08
1.90592e-05
7.94029e-08
1.90636e-05
1.1773e-07
1.90726e-05
1.55974e-07
1.90875e-05
1.86646e-07
2.05238e-07
1.91077e-05
2.36666e-05
-2.51355e-08
2.35704e-05
8.28233e-08
2.33123e-05
1.08082e-07
2.30773e-05
6.13226e-08
2.29794e-05
-8.89587e-09
2.30043e-05
-3.55444e-08
2.30835e-05
-1.27748e-08
2.31425e-05
4.88698e-08
2.31498e-05
1.03908e-07
2.3107e-05
1.3129e-07
2.30351e-05
1.31808e-07
2.29621e-05
1.17673e-07
2.29134e-05
1.00598e-07
2.29044e-05
8.83673e-08
2.29383e-05
8.3839e-08
2.30078e-05
8.65028e-08
2.31013e-05
9.3121e-08
1.01675e-07
2.32049e-05
1.69941e-05
-9.34335e-09
1.69491e-05
1.27751e-07
1.69289e-05
1.28368e-07
1.68799e-05
1.10273e-07
1.67911e-05
7.9877e-08
1.67273e-05
2.82706e-08
1.67289e-05
-1.43196e-08
1.67968e-05
-1.90802e-08
1.68863e-05
1.44357e-08
1.69514e-05
6.61457e-08
1.69716e-05
1.11674e-07
1.69538e-05
1.35413e-07
1.69204e-05
1.3401e-07
1.68942e-05
1.14574e-07
1.68891e-05
8.89193e-08
1.69087e-05
6.69036e-08
1.69487e-05
5.31439e-08
4.9002e-08
1.70014e-05
1.46044e-05
1.16428e-07
1.47553e-05
-2.31081e-08
1.48974e-05
-1.36943e-08
1.49401e-05
6.75644e-08
1.49019e-05
1.1802e-07
1.48286e-05
1.01638e-07
1.47729e-05
4.1317e-08
1.47671e-05
-1.32592e-08
1.48032e-05
-2.16999e-08
1.48565e-05
1.28824e-08
1.49049e-05
6.32758e-08
1.49378e-05
1.02524e-07
1.49544e-05
1.17392e-07
1.4961e-05
1.08012e-07
1.49658e-05
8.40339e-08
1.49754e-05
5.73413e-08
1.49925e-05
3.60237e-08
2.62046e-08
1.50153e-05
1.27794e-05
-5.58567e-08
1.28638e-05
-1.0755e-07
1.28881e-05
-3.80275e-08
1.29236e-05
3.21032e-08
1.29519e-05
8.97158e-08
1.29449e-05
1.08659e-07
1.29081e-05
7.80677e-08
1.28628e-05
3.20753e-08
1.28374e-05
3.68241e-09
1.28489e-05
1.38411e-09
1.28981e-05
1.40626e-08
1.29705e-05
3.01207e-08
1.3047e-05
4.08831e-08
1.31119e-05
4.309e-08
1.31583e-05
3.76621e-08
1.31869e-05
2.87597e-08
1.32033e-05
1.95992e-08
1.42847e-08
1.32152e-05
1.13478e-05
-7.73858e-08
1.1169e-05
7.12844e-08
1.10772e-05
5.37919e-08
1.10676e-05
4.16176e-08
1.11126e-05
4.47357e-08
1.11797e-05
4.15479e-08
1.12213e-05
3.6479e-08
1.12233e-05
3.00555e-08
1.12033e-05
2.37611e-08
1.11869e-05
1.77593e-08
1.11885e-05
1.24163e-08
1.1208e-05
1.06679e-08
1.12355e-05
1.33401e-08
1.12592e-05
1.93897e-08
1.12719e-05
2.49947e-08
1.12727e-05
2.79114e-08
1.12657e-05
2.66638e-08
2.14771e-08
1.12585e-05
9.57233e-06
-1.4372e-07
9.59472e-06
4.88954e-08
9.55138e-06
9.71361e-08
9.51203e-06
8.09628e-08
9.53386e-06
2.29057e-08
9.60722e-06
-3.18058e-08
9.70424e-06
-6.05431e-08
9.80268e-06
-6.8388e-08
9.88905e-06
-6.26026e-08
9.95295e-06
-4.61464e-08
9.98791e-06
-2.25418e-08
9.99545e-06
3.12716e-09
9.98284e-06
2.59515e-08
9.95986e-06
4.23685e-08
9.93434e-06
5.05182e-08
9.91109e-06
5.11601e-08
9.89153e-06
4.62219e-08
3.77365e-08
9.87527e-06
8.37409e-06
1.16792e-08
8.3481e-06
7.48851e-08
8.35731e-06
8.79333e-08
8.37547e-06
6.27954e-08
8.40866e-06
-1.02815e-08
8.45651e-06
-7.96587e-08
8.5028e-06
-1.06823e-07
8.53152e-06
-9.71085e-08
8.53764e-06
-6.87225e-08
8.52575e-06
-3.42606e-08
8.50605e-06
-2.84525e-09
8.48977e-06
1.94082e-08
8.48734e-06
2.83862e-08
8.50364e-06
2.60641e-08
8.53659e-06
1.75743e-08
8.57975e-06
7.99377e-09
8.62525e-06
7.21628e-10
-3.35477e-09
8.66634e-06
7.16624e-06
6.5315e-08
7.25753e-06
-1.64071e-08
7.3349e-06
1.05633e-08
7.39379e-06
3.90664e-09
7.42622e-06
-4.27157e-08
7.4389e-06
-9.2331e-08
7.44262e-06
-1.10546e-07
7.43562e-06
-9.01146e-08
7.41582e-06
-4.89193e-08
7.3897e-06
-8.14513e-09
7.36894e-06
1.79212e-08
7.36311e-06
2.52326e-08
7.37465e-06
1.68552e-08
7.40008e-06
6.3274e-10
7.4326e-06
-1.49524e-08
7.46619e-06
-2.55928e-08
7.49686e-06
-2.99475e-08
-2.90661e-08
7.52257e-06
6.41902e-06
3.10233e-08
6.36202e-06
4.05922e-08
6.32436e-06
4.82252e-08
6.32479e-06
3.48009e-09
6.33535e-06
-5.32742e-08
6.34889e-06
-1.05872e-07
6.37109e-06
-1.32751e-07
6.40366e-06
-1.22676e-07
6.44085e-06
-8.6112e-08
6.47485e-06
-4.21479e-08
6.50111e-06
-8.34186e-09
6.51943e-06
6.91589e-09
6.53198e-06
4.30556e-09
6.54032e-06
-7.7019e-09
6.54511e-06
-1.97514e-08
6.54623e-06
-2.67056e-08
6.54343e-06
-2.71453e-08
-2.28832e-08
6.53724e-06
5.4954e-06
8.37378e-08
5.51168e-06
2.43052e-08
5.57546e-06
-1.5555e-08
5.63687e-06
-5.79283e-08
5.66303e-06
-7.94297e-08
5.64899e-06
-9.18358e-08
5.61308e-06
-9.68367e-08
5.57969e-06
-8.92878e-08
5.56428e-06
-7.07032e-08
5.56976e-06
-4.76239e-08
5.59064e-06
-2.9224e-08
5.6193e-06
-2.17513e-08
5.64827e-06
-2.46613e-08
5.67211e-06
-3.15426e-08
5.68793e-06
-3.55701e-08
5.69547e-06
-3.42467e-08
5.69668e-06
-2.83566e-08
-2.10435e-08
5.69484e-06
4.80848e-06
3.15654e-08
4.84219e-06
-9.40493e-09
4.87959e-06
-5.29597e-08
4.90972e-06
-8.80589e-08
4.94159e-06
-1.11296e-07
4.96586e-06
-1.16102e-07
4.96535e-06
-9.63308e-08
4.93873e-06
-6.267e-08
4.90104e-06
-3.30139e-08
4.87081e-06
-1.73889e-08
4.85855e-06
-1.6965e-08
4.8641e-06
-2.73057e-08
4.88065e-06
-4.12087e-08
4.90047e-06
-5.1365e-08
4.91828e-06
-5.33792e-08
4.93191e-06
-4.78698e-08
4.94123e-06
-3.76855e-08
-2.72494e-08
4.94744e-06
4.09303e-06
4.08362e-06
4.03066e-06
3.9426e-06
3.83131e-06
3.71521e-06
3.61887e-06
3.5562e-06
3.52319e-06
3.5058e-06
3.48884e-06
3.46153e-06
3.42032e-06
3.36896e-06
3.31558e-06
3.26771e-06
3.23002e-06
3.20277e-06
2.01029e-07
-2.01029e-07
5.38437e-07
-3.37408e-07
9.06926e-07
-3.6849e-07
1.27908e-06
-3.72149e-07
1.64997e-06
-3.70899e-07
2.01896e-06
-3.68989e-07
2.38467e-06
-3.65705e-07
2.74345e-06
-3.58782e-07
3.08898e-06
-3.45527e-07
3.41197e-06
-3.22994e-07
3.70064e-06
-2.8867e-07
3.94102e-06
-2.40374e-07
4.118e-06
-1.76989e-07
4.21682e-06
-9.88149e-08
4.22611e-06
-9.28991e-09
4.12602e-06
1.00093e-07
3.91236e-06
2.13658e-07
3.58886e-06
3.23495e-07
3.16628e-06
4.22586e-07
2.66684e-06
4.99433e-07
2.1223e-06
5.44549e-07
1.56781e-06
5.54483e-07
1.01239e-06
5.55422e-07
5.25116e-07
4.87274e-07
4.63524e-07
6.15923e-08
7.00534e-07
-2.3701e-07
7.83136e-07
-8.26021e-08
6.73651e-07
1.09485e-07
-1.39947e-08
6.87646e-07
-1.18806e-06
1.17406e-06
-2.39434e-06
1.20628e-06
-3.58353e-06
1.18919e-06
-4.69793e-06
1.1144e-06
-5.72902e-06
1.0311e-06
-6.6647e-06
9.35673e-07
-7.5075e-06
8.42803e-07
-8.2594e-06
7.519e-07
-8.92636e-06
6.66962e-07
-9.51345e-06
5.87087e-07
-1.00258e-05
5.12396e-07
-1.04674e-05
4.41582e-07
-1.08412e-05
3.73787e-07
-1.11492e-05
3.08011e-07
-1.13929e-05
2.43644e-07
-1.15732e-05
1.80349e-07
-1.16914e-05
1.18155e-07
-1.17488e-05
5.74396e-08
-1.17472e-05
-1.593e-09
-1.16946e-05
-5.26272e-08
-1.15932e-05
-1.01352e-07
-1.14476e-05
-1.45643e-07
-1.12627e-05
-1.84877e-07
-1.10436e-05
-2.19115e-07
-1.07955e-05
-2.48119e-07
-1.05235e-05
-2.72003e-07
-1.02326e-05
-2.90904e-07
-9.92737e-06
-3.05211e-07
-9.61201e-06
-3.15355e-07
-9.29012e-06
-3.21896e-07
-8.96468e-06
-3.25436e-07
-8.63801e-06
-3.26675e-07
-8.31161e-06
-3.26401e-07
-7.98608e-06
-3.25525e-07
-7.66103e-06
-3.25048e-07
-7.33507e-06
-3.25965e-07
-7.00594e-06
-3.29133e-07
-6.67078e-06
-3.35157e-07
-6.32654e-06
-3.44241e-07
-5.97041e-06
-3.56124e-07
-5.60022e-06
-3.70196e-07
-5.21454e-06
-3.85675e-07
-4.81287e-06
-4.0167e-07
-4.39567e-06
-4.17202e-07
-3.96433e-06
-4.31344e-07
-3.52107e-06
-4.4326e-07
-3.06889e-06
-4.5218e-07
-2.61148e-06
-4.57411e-07
-2.15302e-06
-4.58454e-07
-1.69785e-06
-4.55175e-07
-1.25019e-06
-4.47657e-07
-8.14377e-07
-4.35814e-07
-3.94202e-07
-4.20175e-07
6.93095e-09
-4.01133e-07
3.88788e-07
-3.81857e-07
7.47871e-07
-3.59083e-07
1.08359e-06
-3.35722e-07
1.39581e-06
-3.12218e-07
1.68482e-06
-2.89008e-07
1.95124e-06
-2.66424e-07
2.19592e-06
-2.44673e-07
2.41978e-06
-2.2386e-07
2.62381e-06
-2.0403e-07
2.809e-06
-1.85195e-07
2.97637e-06
-1.67371e-07
3.12696e-06
-1.50582e-07
3.26183e-06
-1.34873e-07
3.38212e-06
-1.20291e-07
3.489e-06
-1.06878e-07
3.58365e-06
-9.46513e-08
3.66725e-06
-8.3598e-08
3.74092e-06
-7.3672e-08
3.80572e-06
-6.47973e-08
3.8626e-06
-5.68806e-08
3.91242e-06
-4.98208e-08
3.95593e-06
-4.35103e-08
3.99378e-06
-3.78537e-08
4.02653e-06
-3.27533e-08
4.05464e-06
-2.811e-08
4.0785e-06
-2.38589e-08
4.0984e-06
-1.98933e-08
4.11454e-06
-1.61414e-08
4.12713e-06
-1.25886e-08
4.13621e-06
-9.08796e-09
4.14187e-06
-5.66027e-09
4.14422e-06
-2.34729e-09
4.14311e-06
1.11117e-09
4.1384e-06
4.70531e-09
4.13027e-06
8.13193e-09
4.11901e-06
1.12619e-08
4.10495e-06
1.40637e-08
4.08849e-06
1.64615e-08
4.07008e-06
1.84024e-08
4.05016e-06
1.99264e-08
4.0291e-06
2.10578e-08
4.00728e-06
2.18199e-08
3.98501e-06
2.22654e-08
3.96257e-06
2.24411e-08
3.94018e-06
2.23917e-08
3.91802e-06
2.21644e-08
3.89622e-06
2.17964e-08
3.8749e-06
2.13221e-08
3.85412e-06
2.07756e-08
3.83394e-06
2.01833e-08
3.81437e-06
1.95669e-08
3.79543e-06
1.89436e-08
3.7771e-06
1.83257e-08
3.75938e-06
1.77238e-08
3.74223e-06
1.71488e-08
3.72562e-06
1.66081e-08
3.70952e-06
1.61033e-08
3.69389e-06
1.56324e-08
3.67869e-06
1.51954e-08
3.66389e-06
1.47983e-08
3.64944e-06
1.44489e-08
3.6353e-06
1.41478e-08
3.62141e-06
1.38821e-08
3.60779e-06
1.36284e-08
3.59442e-06
1.33635e-08
3.58135e-06
1.30759e-08
3.56858e-06
1.277e-08
3.55611e-06
1.24626e-08
3.54394e-06
1.21744e-08
3.53202e-06
1.19217e-08
3.5203e-06
1.17135e-08
3.50875e-06
1.15513e-08
3.49732e-06
1.14332e-08
3.48596e-06
1.13554e-08
3.47465e-06
1.13165e-08
3.46333e-06
1.13159e-08
3.45198e-06
1.13558e-08
3.44053e-06
1.14413e-08
3.42896e-06
1.15757e-08
3.41718e-06
1.17763e-08
3.40515e-06
1.20376e-08
3.39273e-06
1.24133e-08
3.37988e-06
1.28549e-08
3.36635e-06
1.35303e-08
3.35212e-06
1.42286e-08
3.33665e-06
1.54725e-08
3.32014e-06
1.65067e-08
3.30119e-06
1.89505e-08
3.28087e-06
2.03226e-08
3.2553e-06
2.55653e-08
3.22839e-06
2.69095e-08
3.18906e-06
3.93299e-08
3.14995e-06
3.91085e-08
3.07806e-06
7.18928e-08
3.01118e-06
6.68837e-08
2.83828e-06
1.72899e-07
1.75826e-07
2.66245e-06
2.76827e-07
-4.77856e-07
5.88094e-07
-6.48675e-07
8.91711e-07
-6.72106e-07
1.19838e-06
-6.78818e-07
1.51418e-06
-6.86702e-07
1.83951e-06
-6.94312e-07
2.17189e-06
-6.98089e-07
2.50661e-06
-6.93501e-07
2.83627e-06
-6.75185e-07
3.15076e-06
-6.37489e-07
3.43796e-06
-5.75865e-07
3.68329e-06
-4.85712e-07
3.87127e-06
-3.64967e-07
3.98547e-06
-2.13015e-07
4.01015e-06
-3.397e-08
3.9387e-06
1.71548e-07
3.76721e-06
3.85149e-07
3.49822e-06
5.92477e-07
3.13799e-06
7.82822e-07
2.686e-06
9.51423e-07
2.16921e-06
1.06133e-06
1.67857e-06
1.04513e-06
1.29675e-06
9.37237e-07
1.07726e-06
7.06768e-07
6.82753e-07
4.56097e-07
-2.66895e-07
7.12638e-07
-1.78619e-06
1.4367e-06
-3.37443e-06
1.69772e-06
-4.56542e-06
1.87864e-06
-5.43232e-06
2.04096e-06
-6.2459e-06
2.01986e-06
-7.00082e-06
1.94411e-06
-7.69185e-06
1.80543e-06
-8.31693e-06
1.65618e-06
-8.87836e-06
1.4971e-06
-9.38125e-06
1.34569e-06
-9.83101e-06
1.20166e-06
-1.02327e-05
1.06863e-06
-1.05901e-05
9.44472e-07
-1.09056e-05
8.27942e-07
-1.11805e-05
7.16428e-07
-1.14146e-05
6.07903e-07
-1.16072e-05
5.00663e-07
-1.17572e-05
3.93635e-07
-1.18635e-05
2.86665e-07
-1.19258e-05
1.80467e-07
-1.19431e-05
7.46648e-08
-1.19149e-05
-2.97341e-08
-1.18401e-05
-1.27498e-07
-1.17211e-05
-2.20345e-07
-1.15608e-05
-3.05889e-07
-1.13633e-05
-3.82429e-07
-1.11335e-05
-4.48896e-07
-1.08767e-05
-5.04906e-07
-1.05981e-05
-5.50567e-07
-1.03026e-05
-5.86414e-07
-9.99458e-06
-6.13252e-07
-9.67785e-06
-6.32085e-07
-9.35572e-06
-6.44019e-07
-9.03089e-06
-6.50268e-07
-8.7054e-06
-6.52169e-07
-8.38056e-06
-6.51239e-07
-8.05686e-06
-6.49225e-07
-7.73379e-06
-6.48119e-07
-7.40978e-06
-6.49968e-07
-7.08231e-06
-6.56606e-07
-6.74811e-06
-6.69356e-07
-6.4037e-06
-6.88657e-07
-6.04591e-06
-7.13907e-07
-5.67241e-06
-7.437e-07
-5.28174e-06
-7.76341e-07
-4.87337e-06
-8.10037e-07
-4.44787e-06
-8.42707e-07
-4.00676e-06
-8.72457e-07
-3.55241e-06
-8.97602e-07
-3.08801e-06
-9.16579e-07
-2.61749e-06
-9.27931e-07
-2.14529e-06
-9.30661e-07
-1.67606e-06
-9.24403e-07
-1.2144e-06
-9.09313e-07
-7.64734e-07
-8.85482e-07
-3.30821e-07
-8.54089e-07
8.43302e-08
-8.16284e-07
4.77388e-07
-7.74915e-07
8.48039e-07
-7.29734e-07
1.19528e-06
-6.82968e-07
1.51899e-06
-6.35922e-07
1.81954e-06
-5.89554e-07
2.09763e-06
-5.44517e-07
2.35416e-06
-5.01201e-07
2.59011e-06
-4.5981e-07
2.80652e-06
-4.20441e-07
3.00448e-06
-3.83159e-07
3.18514e-06
-3.48034e-07
3.34971e-06
-3.15146e-07
3.49941e-06
-2.84572e-07
3.63548e-06
-2.56368e-07
3.75916e-06
-2.30553e-07
3.87161e-06
-2.07098e-07
3.97393e-06
-1.85927e-07
4.06718e-06
-1.6692e-07
4.15231e-06
-1.49923e-07
4.23019e-06
-1.3476e-07
4.30161e-06
-1.21247e-07
4.3673e-06
-1.09198e-07
4.42789e-06
-9.84395e-08
4.48393e-06
-8.87981e-08
4.53593e-06
-8.01105e-08
4.58429e-06
-7.22203e-08
4.62936e-06
-6.49636e-08
4.67142e-06
-5.81968e-08
4.71062e-06
-5.17885e-08
4.74714e-06
-4.56105e-08
4.78106e-06
-3.95788e-08
4.81238e-06
-3.3669e-08
4.84134e-06
-2.78515e-08
4.86816e-06
-2.21108e-08
4.89281e-06
-1.65154e-08
4.91521e-06
-1.11383e-08
4.93533e-06
-6.05608e-09
4.95312e-06
-1.33015e-09
4.96862e-06
2.90397e-09
4.98183e-06
6.71414e-09
4.99286e-06
1.00255e-08
5.00184e-06
1.28453e-08
5.00889e-06
1.52166e-08
5.01416e-06
1.71659e-08
5.01782e-06
1.8735e-08
5.02001e-06
1.99743e-08
5.02088e-06
2.09238e-08
5.02057e-06
2.1628e-08
5.01922e-06
2.21324e-08
5.01693e-06
2.24725e-08
5.01381e-06
2.2681e-08
5.00997e-06
2.27867e-08
5.00548e-06
2.28122e-08
5.00043e-06
2.27774e-08
4.99488e-06
2.27002e-08
4.98889e-06
2.25956e-08
4.98252e-06
2.24729e-08
4.97582e-06
2.23374e-08
4.96882e-06
2.21945e-08
4.96156e-06
2.20536e-08
4.95409e-06
2.19244e-08
4.94642e-06
2.18107e-08
4.9386e-06
2.17041e-08
4.93064e-06
2.15866e-08
4.92257e-06
2.14404e-08
4.91439e-06
2.12583e-08
4.90611e-06
2.10476e-08
4.89774e-06
2.08259e-08
4.88931e-06
2.06121e-08
4.88081e-06
2.04201e-08
4.87226e-06
2.02574e-08
4.86369e-06
2.0128e-08
4.85508e-06
2.00367e-08
4.84645e-06
1.99924e-08
4.83776e-06
2.00045e-08
4.82899e-06
2.00871e-08
4.8201e-06
2.02453e-08
4.81104e-06
2.04975e-08
4.80178e-06
2.08353e-08
4.79226e-06
2.13001e-08
4.78244e-06
2.18555e-08
4.77224e-06
2.26176e-08
4.76163e-06
2.34632e-08
4.75044e-06
2.47167e-08
4.73869e-06
2.59797e-08
4.72601e-06
2.81498e-08
4.71253e-06
2.99951e-08
4.69744e-06
3.40379e-08
4.68113e-06
3.6627e-08
4.66188e-06
4.48178e-08
4.64063e-06
4.81621e-08
4.6136e-06
6.63592e-08
4.58234e-06
7.03677e-08
4.53874e-06
1.15489e-07
4.4822e-06
1.23424e-07
4.40496e-06
2.50145e-07
2.89057e-07
4.29173e-06
2.5909e-07
-7.36946e-07
4.8571e-07
-8.75295e-07
7.08531e-07
-8.94927e-07
9.45524e-07
-9.15812e-07
1.19898e-06
-9.40153e-07
1.46721e-06
-9.6255e-07
1.74783e-06
-9.78706e-07
2.03641e-06
-9.82084e-07
2.32557e-06
-9.64337e-07
2.60488e-06
-9.16803e-07
2.86115e-06
-8.32138e-07
3.07856e-06
-7.03119e-07
3.23901e-06
-5.25421e-07
3.32591e-06
-2.9991e-07
3.32775e-06
-3.58164e-08
3.22057e-06
2.78736e-07
3.00995e-06
5.95763e-07
2.71181e-06
8.90617e-07
2.3508e-06
1.14384e-06
1.95411e-06
1.3481e-06
1.54522e-06
1.47023e-06
1.1136e-06
1.47675e-06
5.82407e-07
1.46843e-06
-3.138e-07
1.60298e-06
-1.85232e-06
1.99461e-06
-3.4889e-06
2.34922e-06
-4.60851e-06
2.55631e-06
-5.55088e-06
2.64009e-06
-6.33934e-06
2.6671e-06
-6.91244e-06
2.61406e-06
-7.39062e-06
2.49803e-06
-7.80223e-06
2.35572e-06
-8.18608e-06
2.18928e-06
-8.55054e-06
2.02064e-06
-8.90442e-06
1.85098e-06
-9.24859e-06
1.68987e-06
-9.5833e-06
1.53636e-06
-9.9061e-06
1.39143e-06
-1.02137e-05
1.25203e-06
-1.05014e-05
1.11572e-06
-1.07643e-05
9.79283e-07
-1.09966e-05
8.40226e-07
-1.11927e-05
6.96773e-07
-1.13474e-05
5.48366e-07
-1.14565e-05
3.95742e-07
-1.15167e-05
2.40665e-07
-1.15272e-05
8.51276e-08
-1.14887e-05
-6.81978e-08
-1.14001e-05
-2.16122e-07
-1.12663e-05
-3.54177e-07
-1.10927e-05
-4.79453e-07
-1.08853e-05
-5.89808e-07
-1.06503e-05
-6.8391e-07
-1.03939e-05
-7.61348e-07
-1.01218e-05
-8.22587e-07
-9.83941e-06
-8.68846e-07
-9.5508e-06
-9.01868e-07
-9.25924e-06
-9.23644e-07
-8.96701e-06
-9.36245e-07
-8.67554e-06
-9.41738e-07
-8.38551e-06
-9.42199e-07
-8.09695e-06
-9.39802e-07
-7.8093e-06
-9.36878e-07
-7.52133e-06
-9.36088e-07
-7.23081e-06
-9.40491e-07
-6.93462e-06
-9.52788e-07
-6.62912e-06
-9.74857e-07
-6.3105e-06
-1.00728e-06
-5.97542e-06
-1.04899e-06
-5.62144e-06
-1.09767e-06
-5.24717e-06
-1.15062e-06
-4.85207e-06
-1.20514e-06
-4.43656e-06
-1.25822e-06
-4.00218e-06
-1.30683e-06
-3.55144e-06
-1.34834e-06
-3.08761e-06
-1.38041e-06
-2.61475e-06
-1.4008e-06
-2.13771e-06
-1.4077e-06
-1.66161e-06
-1.4005e-06
-1.19208e-06
-1.37885e-06
-7.34507e-07
-1.34305e-06
-2.93597e-07
-1.295e-06
1.27071e-07
-1.23695e-06
5.24307e-07
-1.17215e-06
8.97144e-07
-1.10257e-06
1.24516e-06
-1.03098e-06
1.56872e-06
-9.59486e-07
1.86869e-06
-8.89518e-07
2.14608e-06
-8.2191e-07
2.40189e-06
-7.57012e-07
2.63695e-06
-6.9487e-07
2.85193e-06
-6.3542e-07
3.04744e-06
-5.78667e-07
3.2242e-06
-5.24796e-07
3.38323e-06
-4.74177e-07
3.52592e-06
-4.27262e-07
3.65398e-06
-3.8443e-07
3.76929e-06
-3.45857e-07
3.87366e-06
-3.11472e-07
3.96873e-06
-2.80994e-07
4.05582e-06
-2.54014e-07
4.13599e-06
-2.30092e-07
4.21005e-06
-2.08818e-07
4.27864e-06
-1.89843e-07
4.34233e-06
-1.72882e-07
4.40159e-06
-1.577e-07
4.45688e-06
-1.44088e-07
4.50862e-06
-1.31847e-07
4.55717e-06
-1.20776e-07
4.60287e-06
-1.10666e-07
4.64599e-06
-1.0131e-07
4.6867e-06
-9.25038e-08
4.72516e-06
-8.40731e-08
4.76146e-06
-7.5878e-08
4.79561e-06
-6.78167e-08
4.82761e-06
-5.98531e-08
4.85749e-06
-5.19855e-08
4.88523e-06
-4.42575e-08
4.91085e-06
-3.67548e-08
4.93436e-06
-2.95662e-08
4.95583e-06
-2.27992e-08
4.97529e-06
-1.65581e-08
4.99284e-06
-1.08369e-08
5.00854e-06
-5.67713e-09
5.02248e-06
-1.09319e-09
5.03474e-06
2.95473e-09
5.04543e-06
6.47502e-09
5.05464e-06
9.52245e-09
5.06248e-06
1.21426e-08
5.06903e-06
1.43734e-08
5.07438e-06
1.62707e-08
5.07863e-06
1.78847e-08
5.08185e-06
1.92537e-08
5.08412e-06
2.04163e-08
5.0855e-06
2.14065e-08
5.08606e-06
2.22518e-08
5.08586e-06
2.29758e-08
5.08496e-06
2.35998e-08
5.08341e-06
2.41418e-08
5.08127e-06
2.46158e-08
5.07857e-06
2.50318e-08
5.07537e-06
2.53979e-08
5.0717e-06
2.57237e-08
5.06761e-06
2.60195e-08
5.06312e-06
2.62919e-08
5.05829e-06
2.65385e-08
5.05313e-06
2.67494e-08
5.04765e-06
2.69133e-08
5.04189e-06
2.70264e-08
5.03584e-06
2.70969e-08
5.02952e-06
2.71415e-08
5.02296e-06
2.71781e-08
5.01616e-06
2.72202e-08
5.00914e-06
2.72743e-08
5.00192e-06
2.73456e-08
4.99452e-06
2.74392e-08
4.98694e-06
2.75692e-08
4.9792e-06
2.77477e-08
4.97129e-06
2.79989e-08
4.9632e-06
2.83293e-08
4.95493e-06
2.87718e-08
4.94645e-06
2.93125e-08
4.93774e-06
3.00161e-08
4.92876e-06
3.08275e-08
4.91947e-06
3.19075e-08
4.90984e-06
3.30937e-08
4.89977e-06
3.4793e-08
4.88921e-06
3.65395e-08
4.87799e-06
3.93624e-08
4.86602e-06
4.19658e-08
4.85308e-06
4.69801e-08
4.83879e-06
5.09149e-08
4.82311e-06
6.04991e-08
4.80464e-06
6.66357e-08
4.78448e-06
8.65144e-08
4.75755e-06
9.73049e-08
4.73051e-06
1.42526e-07
4.68634e-06
1.67595e-07
4.65641e-06
2.80074e-07
3.54281e-07
4.59118e-06
1.69126e-07
-9.06072e-07
2.98934e-07
-1.0051e-06
4.37188e-07
-1.03318e-06
5.87381e-07
-1.066e-06
7.4888e-07
-1.10165e-06
9.22595e-07
-1.13627e-06
1.10979e-06
-1.1659e-06
1.30854e-06
-1.18083e-06
1.51203e-06
-1.16783e-06
1.70936e-06
-1.11413e-06
1.88622e-06
-1.009e-06
2.02614e-06
-8.43034e-07
2.11175e-06
-6.1104e-07
2.13111e-06
-3.19269e-07
2.07642e-06
1.888e-08
1.92981e-06
4.25341e-07
1.70173e-06
8.23846e-07
1.39792e-06
1.19442e-06
1.01968e-06
1.52208e-06
5.59617e-07
1.80817e-06
-2.94431e-08
2.05929e-06
-8.63266e-07
2.31057e-06
-1.98705e-06
2.59221e-06
-3.27362e-06
2.88955e-06
-4.39327e-06
3.11426e-06
-5.25814e-06
3.21409e-06
-5.91401e-06
3.21218e-06
-6.4347e-06
3.16078e-06
-6.84433e-06
3.07673e-06
-7.17627e-06
2.94599e-06
-7.46786e-06
2.78963e-06
-7.73117e-06
2.61903e-06
-7.98741e-06
2.44552e-06
-8.24392e-06
2.27715e-06
-8.5089e-06
2.11596e-06
-8.78339e-06
1.96436e-06
-9.06697e-06
1.81994e-06
-9.35562e-06
1.68008e-06
-9.64356e-06
1.53996e-06
-9.92326e-06
1.39542e-06
-1.01862e-05
1.2422e-06
-1.04231e-05
1.07716e-06
-1.06249e-05
8.98598e-07
-1.07832e-05
7.06634e-07
-1.08908e-05
5.03308e-07
-1.09428e-05
2.92734e-07
-1.09394e-05
8.16591e-08
-1.08756e-05
-1.32012e-07
-1.07534e-05
-3.38307e-07
-1.05791e-05
-5.28421e-07
-1.036e-05
-6.98566e-07
-1.01045e-05
-8.4536e-07
-9.8218e-06
-9.6658e-07
-9.52155e-06
-1.0616e-06
-9.21278e-06
-1.13135e-06
-8.90357e-06
-1.17806e-06
-8.60051e-06
-1.20493e-06
-8.30839e-06
-1.21576e-06
-8.03009e-06
-1.21454e-06
-7.76657e-06
-1.20526e-06
-7.51696e-06
-1.19181e-06
-7.27879e-06
-1.17798e-06
-7.04844e-06
-1.16722e-06
-6.82188e-06
-1.16265e-06
-6.59354e-06
-1.16882e-06
-6.35801e-06
-1.18833e-06
-6.11039e-06
-1.22247e-06
-5.84661e-06
-1.27106e-06
-5.56337e-06
-1.33223e-06
-5.25849e-06
-1.40256e-06
-4.93095e-06
-1.47815e-06
-4.58046e-06
-1.55563e-06
-4.20721e-06
-1.63147e-06
-3.81227e-06
-1.70177e-06
-3.39748e-06
-1.76313e-06
-2.96521e-06
-1.81267e-06
-2.51835e-06
-1.84766e-06
-2.06072e-06
-1.86534e-06
-1.59698e-06
-1.86423e-06
-1.13331e-06
-1.84252e-06
-6.76161e-07
-1.80021e-06
-2.32124e-07
-1.73903e-06
1.93173e-07
-1.66225e-06
5.94711e-07
-1.57369e-06
9.70111e-07
-1.47797e-06
1.31864e-06
-1.37951e-06
1.64099e-06
-1.28184e-06
1.9388e-06
-1.18732e-06
2.21405e-06
-1.09716e-06
2.4687e-06
-1.01167e-06
2.70437e-06
-9.30543e-07
2.92213e-06
-8.5318e-07
3.12241e-06
-7.78938e-07
3.30503e-06
-7.07419e-07
3.46956e-06
-6.3871e-07
3.61576e-06
-5.73466e-07
3.74409e-06
-5.12755e-07
3.85593e-06
-4.57698e-07
3.95352e-06
-4.09066e-07
4.03956e-06
-3.67029e-07
4.11669e-06
-3.31144e-07
4.18714e-06
-3.00547e-07
4.25256e-06
-2.74229e-07
4.31397e-06
-2.51258e-07
4.37199e-06
-2.30905e-07
4.42695e-06
-2.12657e-07
4.47904e-06
-1.96174e-07
4.5284e-06
-1.81214e-07
4.5752e-06
-1.67571e-07
4.61957e-06
-1.55037e-07
4.66165e-06
-1.43386e-07
4.70153e-06
-1.3239e-07
4.73929e-06
-1.21832e-07
4.77494e-06
-1.11528e-07
4.80848e-06
-1.01354e-07
4.83988e-06
-9.12564e-08
4.86913e-06
-8.12367e-08
4.89622e-06
-7.13414e-08
4.92113e-06
-6.16721e-08
4.94392e-06
-5.23493e-08
4.9646e-06
-4.34817e-08
4.98322e-06
-3.51814e-08
4.9999e-06
-2.75108e-08
5.01472e-06
-2.05037e-08
5.02781e-06
-1.41773e-08
5.03928e-06
-8.51808e-09
5.04926e-06
-3.50188e-09
5.05784e-06
9.3386e-10
5.06515e-06
4.83788e-09
5.07128e-06
8.2464e-09
5.07631e-06
1.12391e-08
5.08033e-06
1.38648e-08