/*--------------------------------*- C++ -*----------------------------------*\
  =========                 |
  \\      /  F ield         | OpenFOAM: The Open Source CFD Toolbox
   \\    /   O peration     | Website:  https://openfoam.org
    \\  /    A nd           | Version:  9
     \\/     M anipulation  |
\*---------------------------------------------------------------------------*/
FoamFile
{
    format      ascii;
    class       volScalarField;
    location    "0.02";
    object      pMean;
}
// * * * * * * * * * * * * * * * * * * * * * * * * * * * * * * * * * * * * * //

dimensions      [0 2 -2 0 0 0 0];

internalField   nonuniform List<scalar> 
12225
(
-3.89886
-4.48811
-4.79869
-4.92592
-4.99459
-5.05571
-5.11664
-5.17152
-5.21632
-5.24892
-5.26938
-5.27398
-5.26419
-5.23114
-5.18467
-5.10535
-5.02823
-4.938
-4.15044
-4.51841
-4.7999
-4.93507
-5.00516
-5.06451
-5.12435
-5.17908
-5.22424
-5.25728
-5.27837
-5.28423
-5.27614
-5.24709
-5.20429
-5.13725
-5.07552
-5.05393
-4.19254
-4.52264
-4.79315
-4.93795
-5.01279
-5.07161
-5.13038
-5.18514
-5.23095
-5.26516
-5.28738
-5.29576
-5.29051
-5.26909
-5.23443
-5.19075
-5.15563
-5.16597
-4.35664
-4.56996
-4.80058
-4.94791
-5.02734
-5.08501
-5.14152
-5.19545
-5.24179
-5.27713
-5.30109
-5.31241
-5.31181
-5.29852
-5.27615
-5.25141
-5.23691
-5.25315
-4.46929
-4.60956
-4.80538
-4.95197
-5.0376
-5.09676
-5.15176
-5.20499
-5.25204
-5.28926
-5.31557
-5.33064
-5.33527
-5.33054
-5.31993
-5.31007
-5.30946
-5.32885
-4.51597
-4.65068
-4.8191
-4.95857
-5.04947
-5.11156
-5.16576
-5.21798
-5.26558
-5.30477
-5.33403
-5.35344
-5.36423
-5.36836
-5.36904
-5.37168
-5.38233
-5.40779
-4.62433
-4.71593
-4.8492
-4.97404
-5.06492
-5.12931
-5.18308
-5.234
-5.28157
-5.32263
-5.35517
-5.37927
-5.39646
-5.40912
-5.42029
-5.43422
-5.45541
-5.48826
-4.67795
-4.7443
-4.86152
-4.98029
-5.07371
-5.14259
-5.1982
-5.24959
-5.29865
-5.34259
-5.3793
-5.40885
-5.43309
-5.45444
-5.47578
-5.50037
-5.53196
-5.5733
-4.80394
-4.82608
-4.90637
-5.00719
-5.09635
-5.16513
-5.22085
-5.27162
-5.32047
-5.36599
-5.40621
-5.44101
-5.47198
-5.50148
-5.53223
-5.56678
-5.60816
-5.65822
-4.78373
-4.84345
-4.92291
-5.01651
-5.10487
-5.17806
-5.23741
-5.29043
-5.34141
-5.3901
-5.43492
-5.47557
-5.51361
-5.5513
-5.59108
-5.63513
-5.68581
-5.74468
-4.88815
-4.91234
-4.97403
-5.05609
-5.1363
-5.20478
-5.26346
-5.31737
-5.3696
-5.42044
-5.46881
-5.51449
-5.5589
-5.60416
-5.65232
-5.70528
-5.7648
-5.83249
-4.99371
-4.94663
-4.98794
-5.06938
-5.15055
-5.22098
-5.28262
-5.33922
-5.39394
-5.44777
-5.50023
-5.55121
-5.6019
-5.65419
-5.70991
-5.77068
-5.83814
-5.91374
-4.92618
-4.98151
-5.04233
-5.10893
-5.17875
-5.24598
-5.30827
-5.36657
-5.42306
-5.4791
-5.53488
-5.59058
-5.64708
-5.70581
-5.76827
-5.83601
-5.91057
-5.99323
-4.9238
-5.00207
-5.07481
-5.13723
-5.19975
-5.26609
-5.33224
-5.39449
-5.45443
-5.51438
-5.57474
-5.63576
-5.69847
-5.76414
-5.83394
-5.90915
-5.99096
-6.0805
-5.08573
-5.08708
-5.12007
-5.17463
-5.23879
-5.30625
-5.37173
-5.43389
-5.49559
-5.55866
-5.62325
-5.68954
-5.7584
-5.8308
-5.90761
-5.98971
-6.07821
-6.17384
-5.04676
-5.10648
-5.16198
-5.21397
-5.273
-5.33886
-5.40638
-5.4736
-5.54082
-5.60866
-5.67769
-5.74904
-5.8237
-5.90208
-5.9848
-6.07259
-6.16632
-6.26655
-5.13078
-5.16175
-5.21132
-5.26922
-5.32809
-5.38867
-5.45317
-5.52125
-5.59157
-5.66342
-5.73708
-5.81321
-5.89263
-5.97582
-6.06313
-6.1548
-6.25142
-6.35314
-5.31028
-5.28075
-5.27545
-5.30941
-5.36691
-5.43341
-5.50196
-5.5712
-5.64208
-5.71535
-5.79158
-5.87106
-5.95365
-6.03921
-6.12796
-6.22017
-6.31614
-6.41584
-5.12723
-5.19354
-5.2612
-5.32466
-5.39268
-5.46382
-5.53542
-5.60919
-5.68539
-5.76286
-5.84156
-5.92233
-6.00544
-6.09057
-6.1776
-6.26661
-6.35776
-6.45092
-5.21303
-5.25551
-5.30238
-5.35474
-5.41601
-5.48539
-5.55946
-5.63484
-5.71077
-5.78767
-5.86589
-5.94539
-6.0261
-6.1078
-6.19041
-6.27392
-6.35837
-6.44354
-5.23243
-5.24759
-5.29685
-5.36291
-5.43341
-5.50552
-5.57871
-5.65252
-5.72762
-5.80404
-5.88124
-5.95907
-6.03753
-6.11635
-6.19517
-6.27387
-6.35229
-6.43033
-5.25193
-5.24032
-5.27372
-5.33918
-5.41702
-5.49624
-5.57264
-5.64771
-5.72386
-5.80145
-5.87933
-5.95667
-6.03334
-6.10943
-6.18491
-6.25968
-6.33365
-6.40674
-5.12343
-5.20363
-5.28142
-5.35414
-5.42948
-5.50616
-5.58203
-5.65684
-5.73185
-5.80763
-5.88362
-5.95903
-6.03346
-6.1069
-6.17916
-6.24998
-6.31911
-6.38628
-5.05877
-5.12754
-5.21949
-5.31695
-5.40711
-5.48917
-5.56726
-5.64437
-5.72164
-5.799
-5.87565
-5.95083
-6.02429
-6.09603
-6.16609
-6.23441
-6.30083
-6.36524
-5.10668
-5.14111
-5.22848
-5.33002
-5.42057
-5.49836
-5.57178
-5.64683
-5.7237
-5.8005
-5.87596
-5.94968
-6.02155
-6.09156
-6.15958
-6.22543
-6.28881
-6.34956
-4.94224
-5.05194
-5.18442
-5.3057
-5.4021
-5.48189
-5.55791
-5.63595
-5.71524
-5.7933
-5.86901
-5.94233
-6.01349
-6.08258
-6.14942
-6.21367
-6.27519
-6.33387
-4.91292
-5.03896
-5.19435
-5.31925
-5.40921
-5.48396
-5.55838
-5.63634
-5.71532
-5.79261
-5.86736
-5.93986
-6.01036
-6.07873
-6.14457
-6.20748
-6.26727
-6.32379
-4.82952
-4.99257
-5.17283
-5.3069
-5.39668
-5.47178
-5.549
-5.62928
-5.70922
-5.78676
-5.86152
-5.93386
-6.00408
-6.07199
-6.1371
-6.19898
-6.25758
-6.31311
-4.75049
-4.97623
-5.17941
-5.31051
-5.39517
-5.46951
-5.54755
-5.62801
-5.70751
-5.78457
-5.8591
-5.93137
-6.0016
-6.06939
-6.13419
-6.19527
-6.25263
-6.3062
-4.62993
-4.95199
-5.17944
-5.30653
-5.38893
-5.4644
-5.54362
-5.62434
-5.70358
-5.78033
-5.85467
-5.92686
-5.99706
-6.06477
-6.12934
-6.18991
-6.24652
-6.29855
-6.81437
-6.83674
-6.91342
-7.03855
-7.21152
-7.43223
-7.70051
-8.01547
-8.37461
-8.7727
-9.20076
-9.64549
-10.0892
-10.5108
-10.8876
-11.1993
-11.4312
-11.5769
-11.6404
-11.6382
-11.598
-11.5515
-11.5282
-11.5461
-11.6001
-11.7102
-11.8971
-12.14
-12.4693
-13.0228
-13.9461
-15.1874
-16.6697
-18.3161
-20.048
-21.7954
-23.4936
-25.0856
-26.5199
-27.7514
-28.74
-29.452
-29.8605
-29.9472
-29.7027
-29.1255
-28.222
-27.0077
-25.5102
-23.7655
-21.8148
-19.7011
-17.467
-15.153
-12.7965
-10.4306
-8.08414
-5.78125
-3.54191
-1.38179
0.687344
2.65799
4.52661
6.29323
7.96052
9.53247
11.0128
12.4041
13.7069
14.9195
16.0389
17.0615
17.9839
18.8044
19.5226
20.14
20.6597
21.0864
21.4266
21.687
21.8757
22.0007
22.0705
22.093
22.0767
22.0282
21.9537
21.8588
21.7483
21.6263
21.4961
21.3606
21.2222
21.0828
20.9439
20.8069
20.6727
20.542
20.4155
20.2934
20.176
20.0636
19.956
19.8535
19.7558
19.6629
19.5747
19.491
19.4117
19.3366
19.2654
19.1982
19.1345
19.0742
19.0172
18.9632
18.9121
18.8637
18.818
18.7748
18.7339
18.6952
18.6587
18.6242
18.5915
18.5606
18.5314
18.5038
18.4776
18.4527
18.4291
18.4067
18.3853
18.365
18.3456
18.327
18.3092
18.2921
18.2756
18.2598
18.2445
18.2297
18.2153
18.2014
18.1878
18.1746
18.1617
18.1491
18.1368
18.1247
18.1128
18.1011
18.0897
18.0784
18.0674
18.0565
18.0458
18.0354
18.0253
18.0154
18.006
17.997
17.9885
17.9809
17.9741
17.9685
17.9644
17.9624
17.9628
17.9668
17.975
17.9896
18.0115
18.0459
18.0938
18.168
18.2701
18.4346
18.6661
19.0471
-6.83248
-6.86857
-6.95224
-7.08139
-7.25714
-7.4813
-7.75563
-8.08079
-8.45563
-8.87594
-9.33334
-9.81451
-10.3012
-10.7715
-11.2019
-11.5682
-11.8478
-12.0213
-12.0856
-12.0543
-11.9614
-11.8538
-11.7776
-11.7559
-11.8084
-11.966
-12.3873
-13.0051
-13.6127
-14.3663
-15.4084
-16.7092
-18.2134
-19.8491
-21.5487
-23.2485
-24.8915
-26.4256
-27.8032
-28.9803
-29.9168
-30.5776
-30.9334
-30.9625
-30.6522
-30.001
-29.0205
-27.7344
-26.1717
-24.3663
-22.3571
-20.1869
-17.8995
-15.5366
-13.1366
-10.733
-8.35441
-6.02456
-3.76286
-1.58465
0.498565
2.47937
4.35445
6.12433
7.79266
9.36458
10.8453
12.2386
13.5457
14.7652
15.8936
16.9264
17.8599
18.6913
19.4202
20.0476
20.5766
21.0119
21.3596
21.6268
21.8214
21.9517
22.0259
22.0527
22.04
21.9946
21.923
21.8307
21.7226
21.6026
21.4744
21.3406
21.2038
21.0658
20.9283
20.7925
20.6594
20.5298
20.4041
20.2829
20.1663
20.0546
19.9477
19.8458
19.7487
19.6563
19.5686
19.4853
19.4064
19.3316
19.2607
19.1937
19.1302
19.0701
19.0132
18.9595
18.9086
18.8605
18.8151
18.7721
18.7315
18.6931
18.6568
18.6225
18.59
18.5593
18.5302
18.5027
18.4766
18.4519
18.4283
18.406
18.3847
18.3644
18.3451
18.3265
18.3088
18.2917
18.2753
18.2595
18.2442
18.2294
18.2151
18.2012
18.1876
18.1744
18.1615
18.1489
18.1366
18.1245
18.1126
18.101
18.0895
18.0782
18.0672
18.0563
18.0456
18.0352
18.025
18.0151
18.0056
17.9966
17.9881
17.9803
17.9735
17.9678
17.9635
17.9612
17.9614
17.9649
17.9727
17.9863
18.0076
18.0396
18.0863
18.1537
18.2521
18.3891
18.5847
18.7953
-6.80152
-6.84409
-6.93066
-7.06057
-7.23754
-7.4648
-7.74579
-8.08286
-8.47658
-8.9245
-9.4196
-9.94857
-10.4907
-11.0202
-11.5083
-11.9287
-12.2569
-12.478
-12.5928
-12.6149
-12.5719
-12.5105
-12.4837
-12.5559
-12.8434
-13.2641
-13.8174
-14.5612
-15.4569
-16.4974
-17.6971
-19.0473
-20.5275
-22.0996
-23.7211
-25.3441
-26.9203
-28.4003
-29.7357
-30.8798
-31.7881
-32.4204
-32.7419
-32.7261
-32.3576
-31.6358
-30.5742
-29.1925
-27.5195
-25.5946
-23.4635
-21.1749
-18.7765
-16.3132
-13.8247
-11.345
-8.90219
-6.51878
-4.21273
-1.99832
0.11344
2.11513
4.00352
5.77998
7.44982
9.02071
10.5009
11.8966
13.2111
14.4435
15.5897
16.6436
17.5996
18.4538
19.2047
19.853
20.4014
20.8544
21.218
21.4995
21.7066
21.8479
21.9317
21.9671
21.9618
21.9231
21.8575
21.7706
21.6674
21.552
21.4278
21.2978
21.1643
21.0294
20.8947
20.7614
20.6306
20.5031
20.3795
20.2601
20.1453
20.0351
19.9298
19.8292
19.7334
19.6422
19.5555
19.4733
19.3953
19.3213
19.2513
19.185
19.1223
19.0629
19.0067
18.9536
18.9033
18.8557
18.8107
18.7682
18.7279
18.6898
18.6539
18.6198
18.5877
18.5572
18.5284
18.501
18.4751
18.4506
18.4272
18.405
18.3838
18.3637
18.3444
18.3259
18.3082
18.2912
18.2749
18.2591
18.2439
18.2291
18.2148
18.2009
18.1874
18.1742
18.1614
18.1488
18.1365
18.1244
18.1125
18.1008
18.0894
18.0781
18.067
18.0561
18.0454
18.035
18.0247
18.0148
18.0052
17.9961
17.9875
17.9796
17.9726
17.9667
17.9622
17.9595
17.9592
17.962
17.9689
17.9812
18.0009
18.0298
18.0729
18.1321
18.2179
18.326
18.4726
18.5951
-6.70489
-6.74584
-6.8284
-6.95335
-7.12534
-7.34797
-7.62578
-7.96252
-8.36026
-8.81824
-9.33056
-9.88476
-10.4607
-11.0331
-11.5728
-12.0525
-12.4448
-12.7382
-12.9366
-13.058
-13.1389
-13.2387
-13.4213
-13.7234
-14.1759
-14.7924
-15.5651
-16.4904
-17.5615
-18.7743
-20.1171
-21.5738
-23.1232
-24.7369
-26.3815
-28.0182
-29.6048
-31.0954
-32.4414
-33.5922
-34.4979
-35.1126
-35.3994
-35.3316
-34.8933
-34.08
-32.897
-31.3624
-29.515
-27.4046
-25.0866
-22.6175
-20.0517
-17.4384
-14.8194
-12.2292
-9.69419
-7.23466
-4.86566
-2.59931
-0.445851
1.58674
3.49453
5.2793
6.94866
8.51404
9.98824
11.3825
12.7039
13.9529
15.1243
16.2094
17.1996
18.0886
18.8733
19.5536
20.1319
20.6124
21.0012
21.3051
21.5321
21.6907
21.7897
21.8384
21.8448
21.8164
21.7601
21.6816
21.5859
21.4774
21.3594
21.235
21.1067
20.9765
20.8459
20.7165
20.5892
20.465
20.3443
20.2276
20.1153
20.0075
19.9043
19.8058
19.7118
19.6223
19.5373
19.4565
19.3799
19.3072
19.2383
19.1731
19.1113
19.0528
18.9975
18.9451
18.8955
18.8485
18.8041
18.7621
18.7224
18.6849
18.6494
18.6158
18.584
18.5539
18.5254
18.4983
18.4727
18.4484
18.4252
18.4032
18.3822
18.3622
18.3431
18.3247
18.3072
18.2903
18.274
18.2583
18.2432
18.2285
18.2143
18.2004
18.187
18.1738
18.161
18.1484
18.1361
18.1241
18.1122
18.1006
18.0891
18.0778
18.0667
18.0558
18.0451
18.0346
18.0243
18.0143
18.0047
17.9954
17.9867
17.9786
17.9714
17.9652
17.9603
17.9571
17.9562
17.9581
17.9639
17.9744
17.9918
18.0172
18.0549
18.1053
18.1758
18.2589
18.3611
18.4251
-6.55119
-6.58716
-6.66203
-6.77618
-6.93391
-7.13879
-7.39562
-7.7089
-8.08179
-8.51504
-9.0049
-9.54079
-10.105
-10.6736
-11.2232
-11.7281
-12.1756
-12.5625
-12.8964
-13.1975
-13.4981
-13.8411
-14.2699
-14.8189
-15.5109
-16.3544
-17.3465
-18.4812
-19.7534
-21.1562
-22.6751
-24.2902
-25.9768
-27.7075
-29.4518
-31.1751
-32.8386
-34.3984
-35.8055
-37.007
-37.9488
-38.5804
-38.8596
-38.752
-38.2333
-37.2881
-35.9209
-34.1688
-32.0828
-29.7226
-27.1538
-24.4439
-21.6567
-18.8482
-16.0633
-13.3359
-10.6896
-8.13951
-5.69539
-3.36496
-1.15661
0.920304
2.85884
4.65841
6.32709
7.88039
9.33798
10.7196
12.0393
13.3015
14.5005
15.6237
16.6575
17.5918
18.4214
19.1448
19.7635
20.2817
20.705
21.0401
21.2948
21.4777
21.5979
21.6651
21.6875
21.6733
21.6296
21.5623
21.4769
21.3775
21.2679
21.1511
21.0296
20.9056
20.7807
20.6564
20.5339
20.4139
20.2971
20.1841
20.0752
19.9705
19.8701
19.7742
19.6827
19.5956
19.5126
19.4338
19.359
19.288
19.2207
19.1569
19.0964
19.0392
18.9849
18.9336
18.885
18.839
18.7954
18.7542
18.7152
18.6783
18.6434
18.6104
18.5791
18.5495
18.5214
18.4948
18.4695
18.4455
18.4226
18.4009
18.3801
18.3603
18.3414
18.3232
18.3058
18.2891
18.2729
18.2574
18.2423
18.2277
18.2136
18.1998
18.1864
18.1733
18.1605
18.148
18.1357
18.1237
18.1119
18.1002
18.0888
18.0775
18.0664
18.0554
18.0447
18.0341
18.0238
18.0137
18.004
17.9946
17.9857
17.9774
17.9699
17.9633
17.958
17.9542
17.9525
17.9533
17.9576
17.9662
17.9808
18.0021
18.0335
18.0744
18.1293
18.1893
18.2539
18.2766
-6.38472
-6.41496
-6.47979
-6.57924
-6.71688
-6.89601
-7.1211
-7.39641
-7.72498
-8.10788
-8.54332
-9.02488
-9.54012
-10.072
-10.606
-11.1295
-11.6347
-12.1233
-12.6067
-13.1049
-13.6446
-14.2554
-14.9652
-15.7966
-16.764
-17.8732
-19.1251
-20.5145
-22.032
-23.6635
-25.3907
-27.1924
-29.046
-30.928
-32.8124
-34.6695
-36.4643
-38.1548
-39.6919
-41.0192
-42.0744
-42.7931
-43.1101
-42.9706
-42.3408
-41.2181
-39.629
-37.6138
-35.2296
-32.549
-29.6539
-26.6288
-23.5524
-20.4916
-17.497
-14.6025
-11.8278
-9.18103
-6.66223
-4.26847
-2.00029
0.134195
2.12248
3.95618
5.63903
7.18754
8.62704
9.98584
11.2885
12.5484
13.764
14.9211
15.9999
16.9844
17.8654
18.6387
19.3052
19.8685
20.3337
20.7073
20.9967
21.2104
21.358
21.4487
21.4918
21.4956
21.4678
21.4147
21.342
21.2541
21.1549
21.0475
20.9345
20.8182
20.7004
20.5825
20.4658
20.3512
20.2394
20.1309
20.0261
19.9252
19.8284
19.7357
19.6473
19.5629
19.4826
19.4062
19.3336
19.2647
19.1993
19.1372
19.0784
19.0227
18.9698
18.9198
18.8723
18.8274
18.7849
18.7446
18.7065
18.6704
18.6362
18.6038
18.5731
18.5441
18.5165
18.4903
18.4655
18.4418
18.4193
18.3979
18.3775
18.3579
18.3392
18.3213
18.304
18.2875
18.2715
18.2561
18.2411
18.2267
18.2126
18.1989
18.1856
18.1726
18.1599
18.1474
18.1352
18.1232
18.1114
18.0998
18.0883
18.077
18.0659
18.055
18.0442
18.0336
18.0232
18.013
18.0032
17.9936
17.9845
17.976
17.9681
17.9611
17.9552
17.9507
17.9481
17.9477
17.9503
17.9566
17.968
17.9849
18.0094
18.0407
18.0802
18.1197
18.1536
18.1474
-6.24425
-6.26935
-6.32418
-6.40842
-6.525
-6.67663
-6.86708
-7.10012
-7.37895
-7.70538
-8.07918
-8.49699
-8.95273
-9.44209
-9.96023
-10.5026
-11.0691
-11.6655
-12.3033
-12.9989
-13.7722
-14.6433
-15.6305
-16.7485
-18.0067
-19.4083
-20.9497
-22.6197
-24.401
-26.2731
-28.2152
-30.2091
-32.24
-34.2951
-36.3598
-38.4141
-40.429
-42.362
-44.1561
-45.7383
-47.0231
-47.9159
-48.3258
-48.1853
-47.4609
-46.1572
-44.3009
-41.941
-39.1536
-36.0356
-32.695
-29.2407
-25.7726
-22.3732
-19.1018
-15.9927
-13.0597
-10.3021
-7.70869
-5.26133
-2.94494
-0.757561
1.28768
3.17344
4.89392
6.46021
7.89739
9.23948
10.5207
11.7659
12.9835
14.1629
15.2807
16.3132
17.2451
18.0688
18.7839
19.3933
19.902
20.3166
20.6442
20.893
21.0722
21.191
21.2588
21.2844
21.2757
21.2396
21.182
21.1077
21.0207
20.9245
20.8216
20.7145
20.605
20.4948
20.385
20.2767
20.1708
20.0677
19.9678
19.8715
19.7789
19.6901
19.6052
19.5241
19.4468
19.3733
19.3033
19.2369
19.1738
19.1138
19.057
19.003
18.9518
18.9033
18.8573
18.8136
18.7723
18.7331
18.696
18.6608
18.6275
18.5959
18.566
18.5375
18.5106
18.485
18.4606
18.4375
18.4154
18.3944
18.3742
18.355
18.3366
18.3189
18.3019
18.2856
18.2698
18.2545
18.2397
18.2254
18.2115
18.1979
18.1847
18.1718
18.1591
18.1467
18.1346
18.1226
18.1108
18.0992
18.0878
18.0765
18.0654
18.0544
18.0436
18.0329
18.0225
18.0122
18.0022
17.9925
17.9832
17.9744
17.9661
17.9587
17.9521
17.9468
17.9431
17.9414
17.9422
17.946
17.9538
17.9659
17.9835
18.0052
18.0305
18.0519
18.0612
18.0337
-6.16837
-6.1894
-6.23612
-6.30767
-6.40676
-6.5356
-6.69743
-6.89546
-7.13286
-7.41229
-7.73571
-8.10493
-8.52268
-8.99043
-9.50974
-10.0837
-10.7177
-11.4198
-12.2008
-13.074
-14.0548
-15.1593
-16.4025
-17.7954
-19.3426
-21.0395
-22.8716
-24.8167
-26.8493
-28.946
-31.0903
-33.2751
-35.5024
-37.7789
-40.1078
-42.4797
-44.8651
-47.2097
-49.4327
-51.4307
-53.083
-54.2637
-54.8616
-54.7873
-53.988
-52.4572
-50.2339
-47.3977
-44.056
-40.3413
-36.3981
-32.3684
-28.3791
-24.5321
-20.8962
-17.5056
-14.3652
-11.4629
-8.77697
-6.27688
-3.92863
-1.71102
0.373484
2.30489
4.06759
5.66497
7.1189
8.46466
9.74073
10.9792
12.1987
13.3963
14.5475
15.623
16.6017
17.4727
18.2332
18.8849
19.4329
19.885
20.2491
20.5333
20.746
20.8959
20.9918
21.0424
21.0557
21.0391
20.9988
20.94
20.867
20.7834
20.6921
20.5955
20.4956
20.3941
20.2923
20.1914
20.0922
19.9953
19.9011
19.8101
19.7223
19.6379
19.5571
19.4798
19.406
19.3356
19.2687
19.205
19.1445
19.087
19.0324
18.9805
18.9312
18.8844
18.84
18.7978
18.7579
18.7199
18.684
18.6499
18.6175
18.5868
18.5577
18.5301
18.5038
18.4788
18.4551
18.4324
18.4108
18.3902
18.3705
18.3517
18.3336
18.3162
18.2994
18.2833
18.2678
18.2527
18.2381
18.2239
18.2102
18.1967
18.1836
18.1708
18.1582
18.1459
18.1338
18.1219
18.1102
18.0986
18.0872
18.0759
18.0648
18.0538
18.0429
18.0322
18.0217
18.0113
18.0012
17.9913
17.9817
17.9726
17.9639
17.9559
17.9487
17.9426
17.9377
17.9344
17.9332
17.9344
17.9386
17.9458
17.9563
17.9688
17.9812
17.9868
17.9768
17.9325
-6.1642
-6.1829
-6.22493
-6.28866
-6.37687
-6.49145
-6.63545
-6.81205
-7.02492
-7.27801
-7.57602
-7.92417
-8.32834
-8.79549
-9.33317
-9.94938
-10.6527
-11.4528
-12.3606
-13.3895
-14.5549
-15.8728
-17.3572
-19.0146
-20.8409
-22.8188
-24.92
-27.1109
-29.3615
-31.6534
-33.9866
-36.3797
-38.8616
-41.4602
-44.1902
-47.0418
-49.9728
-52.9041
-55.723
-58.2886
-60.442
-62.0201
-62.8669
-62.8563
-61.9236
-60.0795
-57.3872
-53.9488
-49.9089
-45.4448
-40.7475
-36.0011
-31.3659
-26.966
-22.8812
-19.1444
-15.749
-12.6656
-9.85799
-7.28566
-4.9022
-2.66847
-0.569499
1.38193
3.16861
4.79102
6.2701
7.63855
8.93264
10.1862
11.422
12.6421
13.8236
14.9359
15.9563
16.8706
17.6715
18.3605
18.9428
19.4273
19.8236
20.1407
20.3865
20.5686
20.6947
20.7727
20.8104
20.8153
20.7941
20.7524
20.6948
20.6252
20.5466
20.4617
20.3725
20.2808
20.1881
20.0955
20.0039
19.914
19.8263
19.7411
19.6587
19.5794
19.5031
19.43
19.3601
19.2934
19.2298
19.1693
19.1117
19.0568
19.0047
18.9551
18.908
18.8631
18.8205
18.78
18.7416
18.7051
18.6704
18.6375
18.6062
18.5766
18.5484
18.5216
18.4961
18.4718
18.4487
18.4267
18.4057
18.3855
18.3663
18.3478
18.3301
18.313
18.2966
18.2808
18.2655
18.2506
18.2362
18.2223
18.2086
18.1954
18.1824
18.1697
18.1572
18.145
18.133
18.1211
18.1094
18.0979
18.0865
18.0753
18.0641
18.0531
18.0422
18.0314
18.0208
18.0103
18
17.9899
17.9801
17.9706
17.9615
17.9529
17.945
17.9379
17.9318
17.927
17.9237
17.9221
17.9226
17.9248
17.9287
17.9324
17.9333
17.9253
17.8996
17.8421
-6.2194
-6.23824
-6.27995
-6.34167
-6.42678
-6.53694
-6.67527
-6.84517
-7.05098
-7.29775
-7.59176
-7.94066
-8.3535
-8.84037
-9.41193
-10.079
-10.8526
-11.7447
-12.7692
-13.9422
-15.2818
-16.8051
-18.5228
-20.4332
-22.5194
-24.749
-27.0806
-29.4749
-31.9086
-34.384
-36.9294
-39.593
-42.4293
-45.481
-48.7603
-52.24
-55.851
-59.4812
-62.9791
-66.1611
-68.8266
-70.7709
-71.8069
-71.796
-70.6751
-68.4606
-65.2293
-61.1099
-56.2868
-50.9853
-45.4474
-39.9039
-34.5518
-29.5396
-24.9594
-20.8444
-17.1738
-13.8959
-10.9537
-8.29433
-5.86343
-3.60968
-1.5046
0.451595
2.24893
3.89075
5.39857
6.80187
8.13183
9.41727
10.6786
11.9182
13.1206
14.2597
15.3122
16.2614
17.0981
17.8213
18.4359
18.9515
19.3786
19.7266
20.0037
20.2171
20.3736
20.48
20.5434
20.5712
20.5703
20.5468
20.5058
20.4512
20.3865
20.3142
20.2367
20.1557
20.073
19.9895
19.9064
19.8242
19.7437
19.6651
19.5887
19.5149
19.4437
19.3753
19.3097
19.2469
19.187
19.1299
19.0755
19.0236
18.9742
18.9271
18.8823
18.8397
18.799
18.7604
18.7236
18.6887
18.6554
18.6238
18.5938
18.5652
18.5381
18.5122
18.4876
18.4641
18.4417
18.4203
18.3999
18.3803
18.3616
18.3436
18.3262
18.3096
18.2935
18.2779
18.2629
18.2483
18.2342
18.2204
18.2069
18.1938
18.181
18.1684
18.1561
18.1439
18.132
18.1202
18.1086
18.0971
18.0858
18.0745
18.0634
18.0524
18.0414
18.0306
18.0199
18.0093
17.9988
17.9885
17.9784
17.9685
17.959
17.9498
17.9411
17.933
17.9257
17.9192
17.9137
17.9094
17.9061
17.9035
17.9009
17.8965
17.8872
17.8674
17.8292
17.7611
-6.3038
-6.32615
-6.37235
-6.43813
-6.5281
-6.64362
-6.78808
-6.96507
-7.1795
-7.43734
-7.74609
-8.11475
-8.5541
-9.07624
-9.69402
-10.4208
-11.2706
-12.2589
-13.4031
-14.7224
-16.2362
-17.9594
-19.8965
-22.0349
-24.3446
-26.7817
-29.3005
-31.8709
-34.4883
-37.1796
-40.0001
-43.0191
-46.3021
-49.889
-53.7731
-57.8981
-62.1596
-66.4098
-70.4666
-74.1237
-77.1587
-79.3455
-80.4758
-80.3928
-79.0267
-76.4019
-72.6179
-67.8311
-62.2583
-56.1652
-49.8394
-43.5532
-37.5353
-31.9558
-26.9183
-22.4599
-18.5436
-15.096
-12.0389
-9.30229
-6.82399
-4.54374
-2.4268
-0.463576
1.34537
3.01101
4.55457
6.00111
7.37289
8.68932
9.97057
11.2252
12.4424
13.5986
14.671
15.6435
16.5082
17.2637
17.9131
18.463
18.9228
19.3018
19.6087
19.8512
20.0362
20.17
20.2589
20.3098
20.3298
20.3252
20.3015
20.2628
20.2127
20.1539
20.0889
20.0195
19.9475
19.874
19.8001
19.7264
19.6537
19.5822
19.5125
19.4446
19.379
19.3157
19.2548
19.1964
19.1405
19.0871
19.0361
18.9874
18.9409
18.8966
18.8544
18.814
18.7756
18.7389
18.704
18.6707
18.639
18.6089
18.5802
18.5528
18.5268
18.5019
18.4782
18.4556
18.434
18.4134
18.3936
18.3746
18.3564
18.3389
18.322
18.3057
18.29
18.2748
18.2601
18.2458
18.2319
18.2183
18.2051
18.1921
18.1795
18.167
18.1548
18.1428
18.131
18.1193
18.1077
18.0963
18.085
18.0737
18.0626
18.0515
18.0406
18.0297
18.0189
18.0081
17.9975
17.9869
17.9766
17.9663
17.9563
17.9465
17.937
17.928
17.9193
17.9111
17.9035
17.8963
17.8894
17.8821
17.8736
17.8617
17.8433
17.8135
17.7649
17.6883
-6.38192
-6.41173
-6.46853
-6.54593
-6.64932
-6.77956
-6.94082
-7.1371
-7.37395
-7.65794
-7.99723
-8.40166
-8.88321
-9.45591
-10.1353
-10.9379
-11.8805
-12.9803
-14.2555
-15.7247
-17.4051
-19.307
-21.4286
-23.7495
-26.2356
-28.8441
-31.5357
-34.2933
-37.1269
-40.0802
-43.2192
-46.614
-50.3195
-54.3557
-58.6888
-63.2406
-67.8911
-72.4821
-76.8254
-80.7063
-83.8889
-86.128
-87.1988
-86.938
-85.2814
-82.2696
-78.0215
-72.7109
-66.5766
-59.9133
-53.0402
-46.2479
-39.7845
-33.8324
-28.5001
-23.8216
-19.7467
-16.1895
-13.0583
-10.273
-7.76036
-5.45888
-3.32881
-1.3527
0.47817
2.17814
3.76441
5.25155
6.65356
7.99298
9.29499
10.5684
11.8001
12.9671
14.0492
15.0349
15.9201
16.7048
17.3894
17.9759
18.4695
18.8784
19.212
19.4797
19.6896
19.848
19.9608
20.0341
20.0749
20.0895
20.0835
20.0613
20.0265
19.982
19.9302
19.8732
19.8126
19.7497
19.6856
19.6211
19.5567
19.493
19.4304
19.3691
19.3094
19.2516
19.1958
19.1421
19.0905
19.0411
18.9938
18.9485
18.9052
18.8638
18.8243
18.7864
18.7503
18.7158
18.6828
18.6514
18.6214
18.5927
18.5654
18.5394
18.5146
18.4908
18.4681
18.4465
18.4257
18.4058
18.3867
18.3684
18.3508
18.3338
18.3174
18.3016
18.2863
18.2714
18.257
18.243
18.2294
18.2161
18.203
18.1903
18.1778
18.1655
18.1535
18.1416
18.1298
18.1182
18.1067
18.0954
18.0841
18.0729
18.0618
18.0507
18.0397
18.0287
18.0178
18.0069
17.9961
17.9854
17.9747
17.9641
17.9535
17.9431
17.9329
17.9227
17.9128
17.903
17.8932
17.8832
17.8728
17.8611
17.8469
17.8282
17.8019
17.7634
17.7062
17.6227
-6.42466
-6.46596
-6.54063
-6.63733
-6.76199
-6.91604
-7.10447
-7.33171
-7.6038
-7.9279
-8.31314
-8.77086
-9.31497
-9.96142
-10.7272
-11.6293
-12.6841
-13.9073
-15.3145
-16.9214
-18.742
-20.7839
-23.0445
-25.5048
-28.1353
-30.8999
-33.7664
-36.7219
-39.7749
-42.9615
-46.3349
-49.9502
-53.8458
-58.0328
-62.4747
-67.0974
-71.7863
-76.384
-80.6954
-84.4954
-87.5422
-89.5947
-90.4421
-89.9407
-88.0371
-84.7718
-80.265
-74.7083
-68.3507
-61.4906
-54.4493
-47.5196
-40.9472
-34.9134
-29.5223
-24.8011
-20.6966
-17.118
-13.9697
-11.1668
-8.63636
-6.31835
-4.17258
-2.17713
-0.317654
1.41662
3.03272
4.54111
5.96277
7.32725
8.65758
9.95504
11.2021
12.3775
13.4661
14.4623
15.3662
16.1774
16.8924
17.5091
18.0302
18.4635
18.8192
19.1079
19.3385
19.518
19.6521
19.7465
19.8075
19.8413
19.8534
19.8482
19.8293
19.7996
19.7617
19.7177
19.6691
19.6175
19.5638
19.5089
19.4535
19.398
19.3429
19.2885
19.2352
19.1833
19.1329
19.0842
19.0372
18.9921
18.9487
18.9071
18.8672
18.8289
18.7922
18.757
18.7233
18.6911
18.6602
18.6307
18.6025
18.5755
18.5497
18.5251
18.5015
18.4789
18.4573
18.4366
18.4168
18.3977
18.3794
18.3617
18.3447
18.3283
18.3125
18.2971
18.2822
18.2678
18.2537
18.24
18.2267
18.2136
18.2009
18.1883
18.176
18.1639
18.152
18.1402
18.1286
18.1171
18.1057
18.0944
18.0831
18.072
18.0609
18.0498
18.0387
18.0277
18.0167
18.0057
17.9947
17.9837
17.9727
17.9617
17.9507
17.9397
17.9286
17.9175
17.9062
17.8947
17.8828
17.8702
17.8564
17.8405
17.8212
17.7964
17.7631
17.7171
17.6528
17.5637
-6.41487
-6.47052
-6.57195
-6.69594
-6.8506
-7.03807
-7.26387
-7.53333
-7.85424
-8.23563
-8.6885
-9.2253
-9.86026
-10.6086
-11.4856
-12.5056
-13.6816
-15.0261
-16.5512
-18.2691
-20.1926
-22.3304
-24.6829
-27.2376
-29.9698
-32.8459
-35.8306
-38.8998
-42.045
-45.2827
-48.6518
-52.2
-55.9647
-59.9608
-64.1632
-68.5067
-72.8822
-77.1372
-81.0827
-84.5055
-87.1865
-88.9114
-89.494
-88.8082
-86.8038
-83.5183
-79.0587
-73.6044
-67.4055
-60.7547
-53.9521
-47.2714
-40.9396
-35.1236
-29.9172
-25.3382
-21.3371
-17.8296
-14.7243
-11.9396
-9.4097
-7.08367
-4.92563
-2.91264
-1.03148
0.72196
2.35128
3.87099
5.31051
6.7002
8.05506
9.3705
10.6313
11.8208
12.9259
13.9406
14.8638
15.6945
16.429
17.0647
17.604
18.0549
18.4282
18.7349
18.9841
19.1826
19.3359
19.4497
19.53
19.5828
19.6131
19.6252
19.6227
19.6084
19.5849
19.5544
19.5184
19.4785
19.4358
19.3909
19.3448
19.2978
19.2506
19.2035
19.157
19.1112
19.0666
19.0231
18.981
18.9404
18.9012
18.8634
18.827
18.792
18.7583
18.7259
18.6948
18.665
18.6363
18.6088
18.5825
18.5572
18.533
18.5099
18.4876
18.4663
18.4459
18.4262
18.4073
18.3891
18.3716
18.3547
18.3383
18.3225
18.3072
18.2924
18.2779
18.2639
18.2502
18.2369
18.2238
18.2111
18.1985
18.1862
18.1741
18.1622
18.1504
18.1388
18.1273
18.1159
18.1046
18.0933
18.0821
18.071
18.0599
18.0488
18.0378
18.0267
18.0156
18.0045
17.9933
17.9821
17.9708
17.9594
17.9479
17.9363
17.9244
17.9122
17.8997
17.8866
17.8727
17.8575
17.8405
17.8207
17.7967
17.7664
17.7269
17.6745
17.6042
17.5104
-6.37604
-6.43866
-6.56317
-6.7193
-6.91082
-7.14049
-7.41531
-7.74321
-8.13446
-8.59956
-9.14917
-9.79416
-10.546
-11.4167
-12.4177
-13.5587
-14.8475
-16.291
-17.8971
-19.6766
-21.6422
-23.8038
-26.1632
-28.7092
-31.4169
-34.2512
-37.1718
-40.1445
-43.1517
-46.2005
-49.3194
-52.5524
-55.9337
-59.4783
-63.168
-66.9515
-70.7329
-74.3797
-77.7282
-80.5964
-82.7983
-84.1539
-84.5069
-83.746
-81.8223
-78.7587
-74.6461
-69.6427
-63.9784
-57.9197
-51.7308
-45.6482
-39.8681
-34.534
-29.7236
-25.4468
-21.6618
-18.3002
-15.2843
-12.5456
-10.0347
-7.71711
-5.56384
-3.5515
-1.66796
0.0896428
1.72773
3.26416
4.72504
6.13276
7.4983
8.82094
10.0926
11.3004
12.429
13.4667
14.4081
15.2509
15.9931
16.6354
17.1834
17.6469
18.036
18.36
18.627
18.8434
19.0149
19.147
19.2459
19.3171
19.3655
19.3951
19.4091
19.4105
19.4018
19.385
19.362
19.3342
19.3026
19.2682
19.2316
19.1935
19.1545
19.1149
19.0753
19.036
18.9972
18.9593
18.9223
18.8863
18.8514
18.8176
18.7849
18.7533
18.7228
18.6933
18.6649
18.6375
18.6112
18.5858
18.5615
18.538
18.5155
18.4939
18.4731
18.4531
18.4338
18.4152
18.3973
18.3801
18.3634
18.3472
18.3316
18.3164
18.3017
18.2873
18.2734
18.2598
18.2465
18.2335
18.2208
18.2083
18.1961
18.184
18.1721
18.1604
18.1488
18.1373
18.1259
18.1146
18.1034
18.0922
18.0811
18.07
18.0589
18.0479
18.0368
18.0256
18.0145
18.0032
17.9919
17.9805
17.9689
17.9571
17.9451
17.9329
17.9202
17.9071
17.8933
17.8787
17.8628
17.8452
17.8252
17.8018
17.7735
17.7383
17.6935
17.6355
17.5601
17.4625
-6.35105
-6.40584
-6.53307
-6.71937
-6.95657
-7.24291
-7.5876
-8.00176
-8.49572
-9.07658
-9.75023
-10.5232
-11.4024
-12.3931
-13.4993
-14.7246
-16.0728
-17.5474
-19.1526
-20.8938
-22.7771
-24.8075
-26.9854
-29.3079
-31.7601
-34.322
-36.9654
-39.6582
-42.378
-45.1135
-47.8726
-50.6758
-53.5459
-56.4967
-59.5217
-62.5879
-65.6288
-68.5453
-71.2103
-73.4787
-75.198
-76.22
-76.4147
-75.6874
-73.9937
-71.3471
-67.824
-63.5561
-58.7314
-53.5659
-48.2716
-43.0396
-38.0293
-33.3549
-29.0759
-25.2009
-21.7022
-18.5325
-15.6374
-12.9719
-10.508
-8.22578
-6.10025
-4.10734
-2.23437
-0.476177
1.17498
2.73256
4.2131
5.63268
7.00361
8.33091
9.6114
10.8336
11.9801
13.0336
13.9839
14.8282
15.5686
16.2101
16.7616
17.2339
17.6364
17.9766
18.2607
18.4946
18.6839
18.8344
18.952
19.0419
19.1086
19.1559
19.1868
19.2042
19.2106
19.2081
19.1985
19.1831
19.1631
19.1395
19.1128
19.0839
19.0534
19.0217
18.9893
18.9567
18.9241
18.8918
18.8601
18.829
18.7986
18.7691
18.7403
18.7123
18.6851
18.6587
18.6332
18.6084
18.5845
18.5614
18.5391
18.5176
18.4969
18.4769
18.4576
18.439
18.421
18.4036
18.3867
18.3704
18.3546
18.3393
18.3244
18.3099
18.2958
18.282
18.2686
18.2554
18.2426
18.23
18.2176
18.2054
18.1934
18.1816
18.1699
18.1584
18.147
18.1357
18.1244
18.1133
18.1022
18.0911
18.08
18.069
18.0579
18.0469
18.0357
18.0246
18.0133
18.002
17.9905
17.9788
17.967
17.9548
17.9424
17.9295
17.9161
17.9021
17.8871
17.8709
17.8532
17.8334
17.8106
17.7839
17.7518
17.7122
17.6627
17.6
17.5203
17.4195
-6.29015
-6.33339
-6.4739
-6.70209
-7.00567
-7.37593
-7.82105
-8.34867
-8.96284
-9.66377
-10.4495
-11.3172
-12.2654
-13.2933
-14.4023
-15.5933
-16.8667
-18.2202
-19.6552
-21.1739
-22.7869
-24.5035
-26.3368
-28.2947
-30.3782
-32.5775
-34.8722
-37.2343
-39.6343
-42.0472
-44.4597
-46.872
-49.2933
-51.7317
-54.1841
-56.6296
-59.0248
-61.3015
-63.3685
-65.1173
-66.4312
-67.1954
-67.3086
-66.699
-65.3335
-63.2142
-60.3927
-56.9621
-53.062
-48.8542
-44.5006
-40.1503
-35.9273
-31.9179
-28.1688
-24.694
-21.4831
-18.5117
-15.7538
-13.1895
-10.8053
-8.58497
-6.50672
-4.55031
-2.70053
-0.945191
0.723168
2.30727
3.81018
5.24177
6.61646
7.94531
9.23
10.4599
11.6139
12.67
13.6146
14.4472
15.1752
15.8093
16.3606
16.8388
17.2513
17.6041
17.9024
18.1519
18.3579
18.5262
18.662