/*--------------------------------*- C++ -*----------------------------------*\
  =========                 |
  \\      /  F ield         | OpenFOAM: The Open Source CFD Toolbox
   \\    /   O peration     | Website:  https://openfoam.org
    \\  /    A nd           | Version:  9
     \\/     M anipulation  |
\*---------------------------------------------------------------------------*/
FoamFile
{
    format      ascii;
    class       volScalarField;
    location    "0.02";
    object      pPrime2Mean;
}
// * * * * * * * * * * * * * * * * * * * * * * * * * * * * * * * * * * * * * //

dimensions      [0 4 -4 0 0 0 0];

internalField   nonuniform List<scalar> 
12225
(
291165
288533
285336
281844
278196
274482
270758
267060
263407
259809
256267
252776
249323
245888
242436
238913
235203
231046
291205
288565
285360
281862
278210
274494
270769
267070
263417
259819
256278
252789
249339
245909
242467
238963
235304
231323
291326
288637
285412
281902
278242
274521
270792
267091
263438
259841
256303
252818
249375
245957
242536
239070
235500
231771
291539
288755
285498
281969
278296
274565
270831
267127
263473
259878
256344
252866
249435
246035
242645
239237
235783
232297
291762
288927
285625
282067
278374
274631
270888
267180
263525
259932
256403
252936
249521
246147
242799
239462
236134
232862
292074
289158
285799
282201
278482
274721
270967
267253
263596
260006
256485
253031
249637
246295
242997
239741
236539
233448
292488
289465
286026
282379
278625
274840
271071
267349
263691
260104
256592
253154
249785
246482
243241
240068
236986
234045
293029
289849
286319
282607
278807
274992
271204
267472
263810
260228
256727
253308
249969
246708
243528
240439
237465
234648
293719
290328
286681
282888
279034
275182
271370
267625
263959
260380
256892
253495
250188
246974
243856
240848
237971
235258
294468
290905
287124
283234
279312
275413
271572
267810
264139
260565
257091
253717
250445
247278
244223
241290
238499
235872
295319
291588
287650
283647
279645
275692
271815
268033
264355
260784
257324
253975
250740
247620
244624
241760
239044
236490
296248
292330
288224
284096
280005
275991
272076
268272
264586
261018
257572
254246
251043
247966
245020
242214
239557
237060
297397
293177
288868
284598
280408
276328
272370
268542
264845
261279
257845
254542
251371
248334
245435
242680
240076
237627
298929
294312
289718
285253
280931
276764
272750
268889
265178
261614
258193
254915
251778
248783
245933
243231
240678
238276
300903
295743
290791
286083
281598
277320
273235
269333
265603
262037
258630
255377
252275
249324
246523
243870
241367
239011
303565
297587
292140
287116
282420
278006
273836
269884
266130
262562
259167
255940
252873
249964
247208
244603
242144
239829
306448
299682
293684
288303
283379
278816
274552
270545
266765
263191
259808
256604
253570
250699
247985
245422
243005
240726
309575
301823
295254
289524
284381
279681
275333
271279
267479
263904
260534
257353
254350
251515
248838
246312
243928
241681
311711
303206
296318
290436
285199
280443
276067
272003
268205
264644
261297
258145
255173
252371
249727
247233
244880
242659
309761
302492
296135
290508
285424
280769
276461
272446
268691
265166
261852
258731
255789
253014
250396
247926
245593
243391
307667
301295
295500
290221
285352
280832
276614
272667
268961
265475
262192
259098
256180
253426
250826
248371
246052
243862
305739
300122
294816
289845
285175
280788
276664
272782
269124
265674
262421
259350
256451
253713
251127
248685
246376
244194
304075
299111
294191
289472
284973
280703
276660
272836
269219
265801
262572
259521
256637
253913
251338
248904
246603
244427
303151
298386
293701
289165
284798
280618
276639
272859
269276
265883
262673
259636
256765
254050
251483
249056
246760
244589
302359
297815
293322
288927
284655
280544
276613
272868
269310
265936
262739
259714
256851
254143
251582
249159
246868
244700
301607
297380
293048
288753
284552
280489
276591
272870
269330
265969
262782
259764
256908
254205
251647
249228
246939
244774
301089
297073
292859
288635
284481
280450
276575
272870
269341
265989
262809
259797
256944
254244
251690
249273
246985
244821
300755
296877
292741
288561
284435
280425
276564
272869
269348
266001
262826
259816
256966
254268
251715
249299
247013
244850
300538
296764
292675
288520
284411
280411
276558
272869
269352
266008
262834
259826
256978
254281
251729
249314
247028
244865
300410
296717
292648
288504
284401
280406
276555
272868
269353
266010
262838
259831
256982
254286
251734
249320
247034
244871
195524
195508
195476
195427
195361
195278
195177
195059
194922
194767
194594
194403
194193
193966
193721
193458
193178
192881
192568
192237
191889
191523
191139
190736
190315
189877
189420
188945
188456
187947
187411
186848
186259
185645
185012
184360
183694
183016
182330
181637
180939
180239
179537
178833
178127
177417
176701
175977
175241
174492
173727
172943
172139
171315
170470
169604
168719
167814
166890
165950
164995
164025
163041
162045
161037
160018
158989
157951
156904
155850
154789
153722
152649
151572
150491
149407
148318
147227
146131
145032
143930
142823
141712
140596
139476
138351
137221
136085
134945
133800
132650
131494
130334
129168
127998
126823
125643
124459
123270
122076
120879
119677
118471
117261
116047
114829
113608
112383
111155
109923
108688
107451
106210
104966
103720
102471
101220
99966.9
98711.3
97453.6
96194.1
94932.9
93670
92405.6
91139.8
89872.8
88604.7
87335.8
86066
84795.6
83524.7
82253.6
80982.3
79711
78439.9
77169.2
75899
74629.5
73360.9
72093.4
70827.2
69562.4
68299.3
67038
65778.8
64521.8
63267.3
62015.4
60766.4
59520.5
58278
57039
55803.8
54572.6
53345.7
52123.3
50905.8
49693.3
48486.1
47284.6
46088.9
44899.5
43716.6
42540.4
41371.5
40210
39056.3
37910.9
36774.1
35646.2
34527.9
33419.6
32321.8
31235.1
30160.4
29098.6
28050.9
27019.1
26006.7
25020.8
195594
195578
195545
195496
195430
195346
195244
195125
194987
194831
194657
194464
194253
194024
193777
193512
193230
192931
192616
192284
191935
191569
191185
190782
190362
189923
189462
188976
188475
187957
187414
186846
186253
185637
185002
184349
183683
183006
182319
181627
180930
180231
179531
178828
178124
177416
176703
175980
175247
174500
173736
172953
172150
171327
170482
169616
168730
167825
166902
165961
165006
164035
163052
162055
161048
160029
159000
157962
156915
155860
154799
153731
152658
151580
150499
149413
148325
147232
146136
145037
143934
142827
141715
140599
139479
138353
137223
136088
134947
133802
132651
131496
130335
129170
127999
126824
125644
124460
123271
122077
120880
119678
118472
117261
116048
114830
113608
112384
111155
109924
108689
107451
106210
104967
103720
102472
101221
99967.1
98711.4
97453.8
96194.3
94933
93670.1
92405.7
91139.9
89872.9
88604.8
87335.8
86066
84795.6
83524.8
82253.6
80982.3
79711
78439.9
77169.2
75899
74629.5
73360.9
72093.4
70827.2
69562.4
68299.3
67038
65778.8
64521.8
63267.3
62015.4
60766.4
59520.6
58278
57039
55803.8
54572.6
53345.7
52123.3
50905.8
49693.3
48486.1
47284.6
46088.9
44899.5
43716.5
42540.4
41371.4
40209.9
39056.3
37910.8
36774
35646.1
34527.8
33419.4
32321.5
31234.8
30160
29098
28050.1
27018
26004.6
25016.2
195735
195718
195685
195636
195568
195484
195381
195260
195120
194962
194786
194591
194377
194145
193895
193627
193341
193039
192720
192383
192031
191661
191274
190870
190442
189993
189524
189032
188520
187987
187432
186856
186258
185639
185002
184349
183681
183002
182314
181620
180922
180223
179522
178821
178119
177414
176704
175986
175256
174513
173752
172972
172171
171349
170504
169639
168753
167847
166923
165983
165027
164056
163073
162077
161069
160051
159022
157984
156936
155881
154819
153750
152676
151597
150514
149427
148337
147244
146147
145047
143943
142835
141723
140606
139485
138359
137229
136093
134952
133806
132655
131500
130339
129173
128002
126827
125647
124462
123273
122079
120881
119679
118473
117263
116049
114831
113609
112385
111156
109924
108690
107452
106211
104967
103721
102472
101221
99967.4
98711.8
97454.1
96194.5
94933.2
93670.3
92405.9
91140.1
89873
88604.9
87335.9
86066.1
84795.7
83524.8
82253.7
80982.3
79711
78439.9
77169.2
75899
74629.5
73360.9
72093.4
70827.2
69562.4
68299.3
67038.1
65778.8
64521.9
63267.3
62015.5
60766.5
59520.6
58278
57039
55803.8
54572.6
53345.7
52123.3
50905.8
49693.3
48486.1
47284.5
46088.9
44899.4
43716.5
42540.4
41371.4
40209.8
39056.2
37910.7
36773.8
35645.9
34527.4
33419
32321
31234.1
30159.1
29096.8
28048.4
27015.6
26000.5
25007.3
195949
195932
195899
195848
195779
195693
195588
195465
195323
195162
194983
194784
194566
194331
194077
193804
193514
193206
192880
192538
192178
191802
191406
190991
190554
190096
189617
189115
188593
188048
187482
186896
186289
185662
185018
184358
183684
182999
182306
181607
180906
180205
179504
178804
178105
177404
176700
175988
175266
174528
173773
172997
172200
171379
170536
169671
168785
167879
166955
166014
165057
164087
163103
162107
161100
160082
159054
158016
156969
155913
154849
153778
152702
151621
150536
149448
148356
147261
146163
145061
143956
142847
141734
140616
139495
138368
137237
136100
134959
133813
132661
131505
130344
129178
128007
126831
125650
124465
123276
122082
120884
119682
118475
117265
116051
114833
113611
112386
111157
109926
108691
107453
106212
104968
103722
102473
101222
99968
98712.3
97454.6
96195
94933.6
93670.6
92406.2
91140.3
89873.3
88605.1
87336.1
86066.3
84795.8
83524.9
82253.8
80982.4
79711.1
78440
77169.3
75899.1
74629.6
73361
72093.5
70827.2
69562.5
68299.4
67038.1
65778.9
64521.9
63267.3
62015.5
60766.5
59520.6
58278
57039
55803.8
54572.6
53345.7
52123.3
50905.8
49693.2
48486.1
47284.5
46088.9
44899.4
43716.4
42540.3
41371.3
40209.7
39056
37910.4
36773.5
35645.5
34527
33418.3
32320.2
31233.1
30157.7
29094.9
28045.8
27011.7
25994.3
24995.8
196238
196221
196186
196134
196064
195975
195868
195742
195597
195433
195249
195046
194825
194584
194325
194047
193750
193435
193102
192751
192381
191994
191587
191160
190711
190242
189750
189236
188700
188143
187564
186963
186343
185704
185048
184376
183691
182995
182292
181585
180877
180171
179468
178769
178073
177379
176684
175982
175269
174541
173795
173026
172233
171416
170575
169711
168825
167919
166994
166053
165096
164125
163141
162145
161139
160122
159095
158058
157010
155954
154889
153816
152738
151655
150567
149476
148382
147284
146184
145080
143973
142863
141749
140630
139507
138380
137247
136110
134968
133821
132669
131512
130350
129184
128012
126836
125655
124470
123280
122086
120887
119685
118478
117268
116053
114835
113613
112388
111159
109927
108692
107454
106213
104969
103723
102474
101222
99968.7
98713
97455.2
96195.5
94934.1
93671.1
92406.5
91140.7
89873.6
88605.4
87336.3
86066.5
84796
83525.1
82253.9
80982.5
79711.2
78440.1
77169.3
75899.1
74629.6
73361
72093.5
70827.3
69562.5
68299.4
67038.1
65778.9
64521.9
63267.4
62015.5
60766.5
59520.6
58278
57039
55803.8
54572.6
53345.7
52123.3
50905.7
49693.2
48486
47284.5
46088.8
44899.3
43716.3
42540.2
41371.1
40209.5
39055.7
37910.1
36773.1
35645
34526.3
33417.5
32319.1
31231.7
30155.9
29092.5
28042.4
27006.8
25986.7
24983.2
196603
196585
196549
196495
196423
196332
196222
196093
195944
195776
195587
195380
195152
194905
194639
194354
194050
193727
193385
193024
192643
192243
191823
191382
190919
190434
189927
189397
188845
188271
187675
187058
186421
185765
185092
184403
183701
182988
182269
181547
180825
180109
179401
178703
178013
177330
176647
175960
175263
174549
173814
173055
172270
171458
170620
169757
168872
167966
167041
166099
165142
164170
163185
162189
161183
160167
159140
158104
157058
156002
154936
153862
152782
151696
150605
149511
148414
147314
146210
145104
143995
142883
141767
140647
139523
138394
137260
136122
134979
133831
132679
131521
130358
129191
128019
126843
125661
124475
123285
122091
120892
119689
118482
117271
116056
114838
113616
112390
111161
109929
108694
107456
106214
104970
103724
102475
101223
99969.6
98713.8
97455.9
96196.2
94934.7
93671.6
92407
91141.1
89873.9
88605.7
87336.6
86066.7
84796.2
83525.3
82254
80982.7
79711.3
78440.2
77169.4
75899.2
74629.7
73361.1
72093.6
70827.3
69562.6
68299.5
67038.2
65778.9
64522
63267.4
62015.5
60766.5
59520.6
58278.1
57039
55803.8
54572.6
53345.7
52123.3
50905.7
49693.2
48486
47284.4
46088.7
44899.2
43716.2
42540
41370.9
40209.3
39055.4
37909.8
36772.6
35644.4
34525.6
33416.5
32317.8
31230
30153.7
29089.5
28038.3
27001
25978.2
24970.1
197047
197028
196990
196935
196860
196766
196652
196519
196366
196192
195998
195784
195550
195297
195023
194729
194416
194083
193731
193358
192965
192551
192115
191658
191178
190675
190149
189600
189028
188434
187818
187181
186524
185848
185152
184439
183710
182971
182224
181476
180733
180001
179286
178589
177908
177241
176578
175914
175239
174546
173830
173085
172310
171505
170671
169810
168926
168020
167095
166152
165194
164222
163236
162239
161232
160215
159189
158154
157108
156053
154987
153913
152830
151741
150648
149551
148451
147348
146242
145133
144022
142907
141789
140667
139541
138411
137276
136137
134993
133844
132690
131532
130368
129200
128028
126850
125668
124482
123291
122096
120897
119694
118486
117275
116060
114841
113619
112393
111164
109931
108696
107457
106216
104972
103725
102476
101225
99970.7
98714.8
97456.8
96197
94935.4
93672.2
92407.6
91141.6
89874.4
88606.1
87336.9
86067
84796.5
83525.5
82254.2
80982.8
79711.5
78440.3
77169.5
75899.3
74629.8
73361.2
72093.7
70827.4
69562.6
68299.5
67038.2
65779
64522
63267.5
62015.6
60766.6
59520.7
58278.1
57039.1
55803.8
54572.6
53345.7
52123.3
50905.7
49693.2
48486
47284.4
46088.7
44899.1
43716.1
42539.9
41370.7
40209
39055.1
37909.3
36772.1
35643.7
34524.7
33415.4
32316.3
31228.1
30151.1
29086.1
28033.7
26994.6
25969.1
24957
197571
197551
197512
197454
197376
197278
197160
197022
196863
196684
196483
196262
196021
195758
195475
195172
194848
194503
194138
193752
193344
192914
192461
191985
191486
190964
190417
189847
189254
188638
188001
187341
186660
185955
185227
184478
183710
182927
182138
181350
180574
179819
179092
178395
177728
177084
176453
175824
175185
174524
173835
173111
172351
171556
170728
169870
168986
168080
167154
166211
165253
164281
163295
162297
161289
160270
159243
158207
157161
156105
155040
153964
152881
151790
150694
149594
148491
147385
146277
145166
144051
142934
141814
140690
139562
138430
137294
136153
135008
133858
132703
131544
130379
129211
128037
126859
125676
124489
123298
122103
120903
119699
118491
117279
116064
114845
113622
112396
111167
109934
108698
107460
106218
104974
103727
102478
101226
99972
98715.9
97457.8
96197.9
94936.2
93673
92408.2
91142.2
89874.9
88606.6
87337.3
86067.4
84796.8
83525.8
82254.5
80983
79711.6
78440.5
77169.7
75899.4
74629.9
73361.3
72093.7
70827.5
69562.7
68299.6
67038.3
65779.1
64522.1
63267.5
62015.6
60766.6
59520.7
58278.1
57039.1
55803.8
54572.6
53345.7
52123.3
50905.7
49693.2
48485.9
47284.3
46088.6
44899
43716
42539.7
41370.5
40208.7
39054.7
37908.8
36771.4
35642.9
34523.6
33414.1
32314.7
31225.9
30148.3
29082.3
28028.7
26987.7
25959.7
24944
198180
198158
198117
198056
197974
197871
197748
197604
197438
197251
197043
196813
196562
196289
195995
195679
195343
194985
194605
194203
193779
193333
192862
192368
191849
191305
190738
190146
189532
188894
188233
187546
186833
186090
185317
184515
183688
182843
181992
181147
180321
179530
178783
178087
177440
176832
176249
175672
175085
174472
173822
173129
172391
171610
170790
169936
169054
168147
167221
166277
165318
164344
163358
162360
161352
160333
159305
158266
157219
156161
155094
154017
152932
151840
150742
149640
148534
147426
146315
145201
144084
142965
141842
140716
139586
138452
137314
136172
135025
133874
132718
131557
130392
129222
128048
126869
125686
124498
123306
122110
120909
119705
118497
117285
116069
114849
113626
112400
111170
109937
108701
107462
106220
104976
103729
102479
101227
99973.4
98717.2
97459
96198.9
94937.2
93673.8
92409
91142.8
89875.5
88607.1
87337.8
86067.7
84797.1
83526.1
82254.7
80983.3
79711.8
78440.6
77169.8
75899.5
74630
73361.4
72093.9
70827.6
69562.8
68299.7
67038.4
65779.2
64522.2
63267.6
62015.7
60766.7
59520.8
58278.2
57039.1
55803.9
54572.7
53345.7
52123.3
50905.7
49693.1
48485.9
47284.3
46088.5
44898.9
43715.8
42539.5
41370.2
40208.4
39054.3
37908.3
36770.7
35642
34522.5
33412.6
32312.8
31223.5
30145.2
29078.3
28023.4
26980.6
25950.2
24931.4
198876
198853
198809
198744
198657
198549
198419
198267
198092
197896
197678
197437
197174
196889
196582
196253
195902
195529
195134
194717
194276
193812
193324
192811
192272
191709
191121
190510
189874
189213
188525
187807
187054
186262
185430
184558
183652
182723
181786
180861
179967
179127
178355
177662
177043
176484
175964
175459
174942
174392
173794
173140
172430
171667
170857
170008
169128
168222
167295
166350
165390
164415
163427
162427
161418
160399
159370
158331
157281
156221
155151
154072
152985
151891
150791
149687
148580
147469
146356
145239
144120
142998
141873
140744
139612
138477
137337
136193
135044
133892
132734
131572
130406
129235
128060
126880
125696
124507
123315
122118
120917
119712
118503
117290
116074
114854
113631
112404
111174
109940
108704
107465
106223
104978
103731
102481
101229
99974.9
98718.6
97460.3
96200.1
94938.2
93674.7
92409.8
91143.5
89876.1
88607.6
87338.3
86068.2
84797.5
83526.4
82255
80983.5
79712.1
78440.8
77170
75899.7
74630.1
73361.5
72094
70827.7
69562.9
68299.8
67038.5
65779.2
64522.2
63267.7
62015.8
60766.7
59520.8
58278.2
57039.2
55803.9
54572.7
53345.7
52123.3
50905.7
49693.1
48485.8
47284.2
46088.4
44898.8
43715.6
42539.2
41369.9
40208
39053.8
37907.7
36770
35641.1
34521.3
33411.1
32310.9
31221
30141.9
29074.1
28017.9
26973.4
25940.7
24919.3
199666
199641
199593
199523
199431
199315
199177
199015
198830
198622
198391
198138
197861
197562
197240
196896
196530
196141
195731
195298
194842
194362
193858
193328
192772
192190
191584
190952
190296
189612
188896
188144
187348
186501
185600
184644
183644
182613
181573
180550
179576
178678
177878
177187
176599
176096
175648
175222
174783
174303
173763
173152
172472
171728
170930
170086
169208
168302
167374
166429
165468
164492
163502
162500
161488
160466
159436
158396
157345
156283
155211
154130
153040
151943
150842
149736
148627
147514
146399
145280
144158
143033
141906
140775
139641
138503
137361
136215
135065
133911
132752
131589
130421
129249
128073
126892
125707
124518
123324
122126
120925
119719
118510
117296
116080
114859
113635
112408
111178
109944
108708
107468
106226
104981
103733
102483
101231
99976.6
98720.1
97461.6
96201.3
94939.3
93675.7
92410.7
91144.3
89876.8
88608.2
87338.8
86068.6
84797.9
83526.7
82255.3
80983.8
79712.3
78441
77170.2
75899.9
74630.3
73361.7
72094.1
70827.9
69563.1
68299.9
67038.6
65779.3
64522.3
63267.7
62015.8
60766.8
59520.9
58278.3
57039.2
55803.9
54572.7
53345.7
52123.3
50905.7
49693.1
48485.8
47284.1
46088.3
44898.7
43715.5
42539
41369.6
40207.6
39053.3
37907.1
36769.2
35640.1
34520.1
33409.5
32308.8
31218.4
30138.6
29069.8
28012.3
26966.2
25931.5
24907.6
200557
200529
200477
200401
200301
200177
200028
199854
199656
199435
199189
198920
198628
198313
197975
197616
197235
196832
196408
195962
195493
195001
194482
193938
193366
192768
192145
191496
190822
190119
189380
188597
187760
186859
185886
184845
183744
182606
181461
180343
179290
178338
177510
176820
176258
175800
175412
175050
174677
174254
173760
173185
172529
171800
171010
170171
169294
168388
167460
166513
165551
164575
163584
162579
161563
160538
159504
158461
157410
156347
155274
154191
153099
152000
150895
149786
148675
147561
146443
145322
144198
143070
141940
140807
139671
138531
137387
136239
135088
133932
132771
131607
130438
129265
128087
126905
125719
124529
123334
122136
120933
119727
118517
117303
116086
114865
113640
112413
111182
109948
108711
107471
106229
104983
103736
102486
101233
99978.5
98721.8
97463.1
96202.7
94940.5
93676.8
92411.6
91145.1
89877.5
88608.9
87339.4
86069.2
84798.4
83527.1
82255.7
80984.1
79712.6
78441.3
77170.4
75900
74630.5
73361.8
72094.3
70828
69563.2
68300
67038.7
65779.5
64522.4
63267.8
62015.9
60766.9
59520.9
58278.3
57039.2
55804
54572.7
53345.8
52123.3
50905.7
49693
48485.8
47284
46088.2
44898.5
43715.3
42538.8
41369.3
40207.2
39052.8
37906.5
36768.4
35639.1
34518.7
33407.8
32306.7
31215.7
30135.2
29065.4
28006.7
26959.1
25922.5
24896.5
201558
201527
201470
201386
201277
201141
200980
200792
200579
200341
200078
199792
199483
199152
198799
198426
198032
197619
197186
196731
196253
195751
195222
194666
194082
193471
192835
192174
191488
190769
190010
189198
188320
187363
186323
185203
184018
182795
181569
180382
179273
178282
177434
176739
176184
175744
175380
175046
174697
174297
173821
173259
172613
171890
171102
170264
169387
168481
167551
166602
165639
164661
163669
162663
161644
160615
159577
158531
157476
156412
155338
154253
153161
152060
150953
149841
148726
147608
146488
145364
144238
143109
141976
140841
139702
138560
137414
136265
135111
133954
132792
131626
130455
129281
128102
126919
125732
124540
123345
122146
120943
119736
118525
117310
116092
114871
113646
112418
111187
109952
108715
107475
106232
104986
103738
102488
101235
99980.4
98723.6
97464.7
96204.1
94941.8
93677.9
92412.6
91146
89878.3
88609.6
87340
86069.7
84798.8
83527.6
82256
80984.4
79712.8
78441.5
77170.6
75900.3
74630.7
73362
72094.4
70828.2
69563.3
68300.2
67038.9
65779.6
64522.5
63267.9
62016
60767
59521
58278.4
57039.3
55804
54572.7
53345.8
52123.3
50905.6
49693
48485.7
47284
46088.1
44898.4
43715.1
42538.5
41369
40206.8
39052.3
37905.8
36767.6
35638
34517.4
33406.2
32304.6
31213
30131.8
29061.1
28001.2
26952.2
25913.9
24886
202680
202645
202581
202489
202368
202219
202042
201838
201607
201350
201069
200766
200440
200095
199731
199349
198950
198532
198094
197635
197153
196644
196108
195543
194950
194329
193680
193003
192295
191548
190753
189898
188970
187962
186871
185702
184473
183210
181953
180741
179616
178610
177748
177037
176463
176000
175611
175252
174879
174458
173965
173389
172733
172003
171210
170367
169487
168579
167649
166699
165732
164752
163757
162749
161727
160695
159654
158605
157546
156477
155400
154314
153221
152119
151010
149896
148777
147656
146533
145407
144279
143148
142013
140876
139735
138591
137443
136291
135136
133977
132813
131646
130474
129298
128118
126934
125745
124553
123357
122156
120952
119745
118533
117318
116099
114877
113652
112423
111191
109957
108719
107478
106235
104989
103741
102491
101238
99982.5
98725.4
97466.4
96205.6
94943.1
93679.1
92413.7
91147
89879.2
88610.3
87340.7
86070.3
84799.4
83528
82256.4
80984.8
79713.2
78441.8
77170.9
75900.5
74630.9
73362.2
72094.6
70828.3
69563.5
68300.3
67039
65779.7
64522.6
63268
62016.1
60767
59521.1
58278.4
57039.3
55804
54572.8
53345.8
52123.3
50905.6
49693
48485.7
47283.9
46088
44898.2
43714.9
42538.3
41368.7
40206.5
39051.8
37905.2
36766.8
35637
34516.1
33404.5
32302.5
31210.3
30128.4
29056.8
27995.9
26945.5
25905.7
24876.2
203936
203897
203825
203722
203588
203422
203227
203004
202754
202479
202181
201863
201526
201172
200804
200420
200021
199605
199167
198706
198219
197703
197155
196574
195958
195305
194617
193892
193128
192323
191469
190562
189591
188550
187441
186270
185052
183811
182581
181399
180297
179302
178431
177692
177072
176548
176089
175658
175216
174734
174191
173576
172891
172141
171336
170484
169597
168685
167752
166801
165832
164848
163849
162836
161811
160777
159734
158682
157619
156545
155462
154373
153279
152176
151065
149949
148828
147704
146578
145450
144320
143187
142051
140911
139769
138622
137473
136319
135162
134001
132836
131666
130493
129316
128134
126949
125759
124566
123369
122168
120963
119754
118542
117326
116107
114884
113658
112429
111197
109961
108723
107482
106239
104993
103744
102493
101240
99984.7
98727.4
97468.2
96207.2
94944.5
93680.4
92414.8
91148
89880.1
88611.1
87341.4
86070.9
84799.9
83528.5
82256.8
80985.1
79713.5
78442.1
77171.1
75900.8
74631.1
73362.4
72094.8
70828.5
69563.7
68300.5
67039.1
65779.8
64522.8
63268.1
62016.2
60767.1
59521.1
58278.5
57039.4
55804.1
54572.8
53345.8
52123.3
50905.6
49693
48485.6
47283.8
46087.9
44898.1
43714.7
42538.1
41368.4
40206.1
39051.3
37904.5
36765.9
35635.9
34514.8
33402.8
32300.4
31207.7
30125.1
29052.7
27990.7
26939.2
25898
24866.9
205390
205345
205263
205146
204994
204810
204595
204353
204086
203797
203489
203164
202822
202467
202098
201713
201311
200888
200439
199959
199445
198890
198293
197652
196966
196239
195473
194671
193835
192964
192055
191103
190107
189061
187969
186838
185680
184512
183358
182244
181195
180228
179355
178582
177902
177296
176740
176206
175666
175097
174482
173812
173084
172306
171481
170616
169720
168801
167864
166911
165941
164953
163949
162930
161900
160862
159817
158764
157697
156618
155529
154436
153337
152233
151120
150002
148879
147754
146626
145496
144364
143229
142091
140949
139804
138656
137504
136349
135189
134026
132859
131689
130514
129335
128152
126965
125775
124580
123382
122179
120974
119764
118551
117334
116114
114891
113665
112435
111202
109966
108728
107487
106243
104996
103747
102496
101243
99987
98729.5
97470.1
96208.9
94946.1
93681.8
92416
91149.1
89881
88612
87342.1
86071.6
84800.5
83529
82257.3
80985.6
79713.9
78442.5
77171.5
75901.1
74631.5
73362.7
72095.1
70828.8
69563.9
68300.7
67039.4
65780
64522.9
63268.3
62016.4
60767.3
59521.3
58278.6
57039.5
55804.2
54572.9
53345.9
52123.4
50905.7
49693
48485.6
47283.8
46087.9
44898.1
43714.6
42537.9
41368.2
40205.7
39050.9
37903.9
36765.2
35635
34513.6
33401.3
32298.4
31205.2
30121.9
29048.8
27985.9
26933.3
25890.9
24858.5
207002
206949
206855
206721
206549
206346
206115
205861
205588
205297
204988
204659
204309
203937
203542
203122
202675
202194
201678
201119
200517
199871
199182
198455
197692
196894
196063
195204
194318
193404
192462
191492
190496
189472
188423
187356
186278
185198
184131
183094
182102
181167
180296
179492
178751
178063
177410
176774
176136
175480
174793
174065
173294
172485
171639
170759
169851
168923
167981
167024
166051
165060
164051
163027
161992
160949
159900
158843
157773
156690
155597
154499
153397
152289
151174
150053
148929
147803
146673
145542
144407
143270
142130
140987
139840
138689
137535
136378
135217
134052
132883
131711
130534
129354
128170
126982
125790
124594
123395
122191
120985
119774
118560
117343
116122
114898
113671
112441
111208
109971
108732
107491
106246
105000
103750
102499
101245
99989.3
98731.5
97471.9
96210.5
94947.5
93683
92417.2
91150.1
89881.9
88612.8
87342.8
86072.2
84801
83529.5
82257.7
80985.9
79714.2
78442.8
77171.7
75901.3
74631.6
73362.9
72095.3
70828.9
69564
68300.8
67039.4
65780.1
64523
63268.3
62016.4
60767.3
59521.3
58278.6
57039.5
55804.2
54572.9
53345.8
52123.3
50905.6
49692.9
48485.5
47283.7
46087.7
44897.8
43714.4
42537.6
41367.8
40205.3
39050.3
37903.2
36764.3
35633.9
34512.2
33399.6
32296.3
31202.7
30118.8
29044.9
27981.2
26927.6
25884
24850.5
208629
208568
208461
208310
208123
207907
207670
207417
207145
206851
206526
206165
205763
205321
204839
204321
203769
203181
202559
201902
201210
200484
199728
198944
198136
197302
196444
195563
194661
193739
192795
191831
190851
189855
188846
187830
186811
185794
184788
183804
182850
181934
181061
180232
179446
178695
177970
177257
176545
175822
175077
174302
173496
172659
171794
170899
169979
169043
168094
167131
166153
165158
164145
163117
162077
161031
159978
158916
157841
156754
155659
154558
153452
152340
151224
150102
148977
147849
146718
145585
144449
143310
142167
141022
139873
138721
137565
136406
135243
134076
132906
131732
130554
129372
128187
126997
125804
124607
123407
122203
120995
119784
118569
117351
116130
114905
113677
112447
111213
109976
108737
107495
106250
105003
103753
102502
101248
99991.5
98733.5
97473.7
96212.1
94948.9
93684.3
92418.3
91151.1
89882.8
88613.5
87343.5
86072.8
84801.5
83529.9
82258.1
80986.3
79714.5
78443
77172
75901.5
74631.9
73363.1
72095.4
70829.1
69564.2
68300.9
67039.5
65780.1
64523
63268.4
62016.4
60767.3
59521.3
58278.6
57039.5
55804.1
54572.8
53345.8
52123.3
50905.5
49692.8
48485.4
47283.5
46087.5
44897.6
43714.1
42537.3
41367.4
40204.8
39049.8
37902.6
36763.5
35632.9
34511
33398.1
32294.4
31200.3
30115.9
29041.3
27976.8
26922.3
25877.8
24843.2
210265
210194
210074
209910
209713
209492
209252
208987
208688
208343
207942
207482
206968
206409
205812
205184
204528
203848
203145
202420
201672
200903
200113
199303
198477
197632
196768
195887
194990
194073
193139
192189
191225
190251
189269
188283
187297
186316
185343
184386
183451
182543
181664
180816
179997
179203
178426
177659
176894
176120
175331
174520
173685
172826
171943
171034
170104
169159
168204
167235
166251
165250
164231
163198
162155
161106
160050
158983
157904
156813
155714
154610
153501
152387
151269
150147
149021
147892
146760
145625
144487
143346
142202
141055
139904
138750
137593
136432
135267
134099
132927
131752
130572
129389
128203
127012
125818
124620
123419
122214
121005
119793
118578
117359
116137
114912
113683
112452
111218
109981
108741
107499
106254
105006
103756
102504
101250
99993.6
98735.4
97475.4
96213.6
94950.3
93685.5
92419.3
91152
89883.6
88614.3
87344.1
86073.3
84802
83530.4
82258.5
80986.6
79714.8
78443.3
77172.3
75901.8
74632.1
73363.3
72095.6
70829.2
69564.3
68301
67039.6
65780.2
64523.1
63268.4
62016.4
60767.3
59521.3
58278.6
57039.4
55804.1
54572.8
53345.7
52123.2
50905.4
49692.7
48485.3
47283.4
46087.4
44897.4
43713.9
42537
41367.1
40204.4
39049.3
37902
36762.8
35632
34509.8
33396.7
32292.7
31198.1
30113.2
29038
27972.8
26917.5
25872.1
24836.6
211904
211825
211690
211514
211309
211069
210790
210458
210062
209597
209069
208488
207864
207206
206522
205819
205099
204365
203616
202852
202074
201280
200471
199649
198815
197966
197104
196227
195335
194427
193502
192563
191612
190651
189684
188715
187746
186781
185823
184877
183949
183040
182152
181287
180443
179618
178805
177999
177194
176383
175560
174720
173862
172983
172084
171162
170222
169270
168309
167335
166345
165338
164313
163274
162226
161173
160114
159043
157960
156866
155764
154656
153545
152430
151311
150189
149062
147932
146799
145662
144523
143380
142235
141086
139933
138778
137619
136456
135290
134121
132947
131770
130590
129406
128218