/*--------------------------------*- C++ -*----------------------------------*\
  =========                 |
  \\      /  F ield         | OpenFOAM: The Open Source CFD Toolbox
   \\    /   O peration     | Website:  https://openfoam.org
    \\  /    A nd           | Version:  9
     \\/     M anipulation  |
\*---------------------------------------------------------------------------*/
FoamFile
{
    format      ascii;
    class       volVectorField;
    location    "0.02";
    object      U;
}
// * * * * * * * * * * * * * * * * * * * * * * * * * * * * * * * * * * * * * //

dimensions      [0 1 -1 0 0 0 0];

internalField   nonuniform List<vector> 
12225
(
(9.90699 0.0494068 0)
(9.58409 0.0823652 0)
(9.23865 0.0820011 0)
(8.97511 0.063682 0)
(8.72651 0.0522745 0)
(8.44193 0.057843 0)
(8.13361 0.0686586 0)
(7.82956 0.0705138 0)
(7.53925 0.0658965 0)
(7.25525 0.0650803 0)
(6.95475 0.0717146 0)
(6.64495 0.0787732 0)
(6.32942 0.0771168 0)
(6.0738 0.0717535 0)
(5.80635 0.0660907 0)
(5.60147 0.0618084 0)
(5.36504 0.0763547 0)
(5.08475 0.0831239 0)
(10.2529 0.101433 0)
(10.0511 0.108682 0)
(9.94817 0.05329 0)
(9.97578 0.0463965 0)
(10.0592 0.0682686 0)
(10.1352 0.0848931 0)
(10.1721 0.0876922 0)
(10.1524 0.0863981 0)
(10.0757 0.0913395 0)
(9.96658 0.10472 0)
(9.85012 0.117369 0)
(9.7517 0.123659 0)
(9.67025 0.11711 0)
(9.61171 0.103605 0)
(9.54655 0.102541 0)
(9.47123 0.100465 0)
(9.36059 0.12391 0)
(9.22183 0.17412 0)
(10.0698 0.117197 0)
(10.1817 0.154459 0)
(10.1942 0.0864953 0)
(10.1084 0.0339211 0)
(10.0143 0.013364 0)
(9.97775 0.0295945 0)
(9.99705 0.0678205 0)
(10.0359 0.103366 0)
(10.0667 0.123669 0)
(10.0848 0.130897 0)
(10.0961 0.130196 0)
(10.1051 0.126609 0)
(10.1119 0.119921 0)
(10.1069 0.116063 0)
(10.0881 0.125342 0)
(10.0551 0.145304 0)
(10.0126 0.184221 0)
(9.96375 0.238927 0)
(10.0501 0.0264137 0)
(9.98872 0.104129 0)
(10.0549 0.100112 0)
(10.165 0.104668 0)
(10.1927 0.103773 0)
(10.1532 0.0879907 0)
(10.1177 0.0682489 0)
(10.116 0.0604504 0)
(10.137 0.0720083 0)
(10.162 0.0972731 0)
(10.1781 0.121068 0)
(10.179 0.132633 0)
(10.1643 0.130115 0)
(10.134 0.120465 0)
(10.0924 0.120084 0)
(10.0514 0.134547 0)
(10.0143 0.165766 0)
(9.9898 0.217483 0)
(10.0161 0.0454903 0)
(9.94581 0.121803 0)
(9.94579 0.0250408 0)
(9.98899 -0.0194843 0)
(10.0363 0.00622081 0)
(10.0685 0.0520757 0)
(10.0773 0.0878092 0)
(10.065 0.105806 0)
(10.0449 0.111734 0)
(10.0322 0.113451 0)
(10.0349 0.114843 0)
(10.0536 0.118409 0)
(10.0823 0.1251 0)
(10.1141 0.13693 0)
(10.1351 0.158835 0)
(10.1412 0.189534 0)
(10.1252 0.225674 0)
(10.0902 0.268367 0)
(9.95806 0.076206 0)
(10.1179 0.130526 0)
(10.1268 0.118842 0)
(10.0336 0.101264 0)
(9.9677 0.0866095 0)
(9.97782 0.072011 0)
(10.0344 0.0611137 0)
(10.0902 0.0620617 0)
(10.1204 0.0784416 0)
(10.1242 0.102837 0)
(10.112 0.121089 0)
(10.0968 0.125034 0)
(10.0873 0.116895 0)
(10.0901 0.108355 0)
(10.1031 0.114692 0)
(10.1211 0.14217 0)
(10.1349 0.19035 0)
(10.1309 0.251299 0)
(9.85878 0.0083361 0)
(9.9075 0.0722164 0)
(10.0043 0.0384503 0)
(10.0916 0.0124006 0)
(10.1294 0.00892819 0)
(10.1253 0.0279489 0)
(10.0842 0.0571539 0)
(10.0225 0.0836028 0)
(9.97234 0.102211 0)
(9.95724 0.113885 0)
(9.97451 0.119398 0)
(10.0052 0.120154 0)
(10.0303 0.119163 0)
(10.0405 0.121759 0)
(10.0389 0.136707 0)
(10.0338 0.168177 0)
(10.0318 0.21689 0)
(10.0386 0.278915 0)
(9.70013 0.0141006 0)
(9.89447 0.0444324 0)
(9.97726 0.0719446 0)
(10.0304 0.0780352 0)
(10.0585 0.0848383 0)
(10.0694 0.0905855 0)
(10.0662 0.095721 0)
(10.0537 0.0990985 0)
(10.0432 0.10099 0)
(10.0439 0.103212 0)
(10.0548 0.105623 0)
(10.0675 0.107117 0)
(10.073 0.108602 0)
(10.0671 0.11332 0)
(10.0504 0.127549 0)
(10.0291 0.155245 0)
(10.009 0.196048 0)
(9.9994 0.249368 0)
(10.0814 0.0201476 0)
(10.0289 -0.0242836 0)
(10.0276 -0.00191466 0)
(10.0238 -0.0247936 0)
(10.035 -0.0185224 0)
(10.0691 0.0247762 0)
(10.1048 0.0719306 0)
(10.1206 0.100705 0)
(10.1163 0.10881 0)
(10.1012 0.106291 0)
(10.0818 0.103188 0)
(10.0631 0.10434 0)
(10.0507 0.11165 0)
(10.0485 0.126125 0)
(10.0555 0.150919 0)
(10.0669 0.185896 0)
(10.0787 0.230667 0)
(10.0868 0.281512 0)
(9.98251 0.0884981 0)
(10.033 0.0403505 0)
(10.0301 0.0698333 0)
(9.99233 0.0885965 0)
(9.92687 0.071756 0)
(9.90327 0.058003 0)
(9.93171 0.0653837 0)
(9.96895 0.0855804 0)
(9.97898 0.106465 0)
(9.95835 0.123256 0)
(9.92587 0.133153 0)
(9.90332 0.133411 0)
(9.90371 0.126069 0)
(9.92804 0.11862 0)
(9.96575 0.122134 0)
(10.007 0.142359 0)
(10.0386 0.180917 0)
(10.0611 0.234246 0)
(9.91171 -0.050941 0)
(9.99201 -0.0196576 0)
(10.0528 0.0239099 0)
(10.0621 0.0171007 0)
(10.0284 0.0164343 0)
(10.0164 0.0282609 0)
(10.0471 0.0519652 0)
(10.0806 0.0851394 0)
(10.0826 0.116052 0)
(10.0576 0.132473 0)
(10.03 0.128762 0)
(10.016 0.108906 0)
(10.0182 0.0861034 0)
(10.027 0.0769557 0)
(10.0327 0.0926978 0)
(10.0292 0.134241 0)
(10.0136 0.19571 0)
(9.99526 0.265553 0)
(9.89639 -0.0273368 0)
(9.92746 -0.051472 0)
(10.067 0.0344908 0)
(10.181 0.0988527 0)
(10.2205 0.0861494 0)
(10.1899 0.0397737 0)
(10.136 0.0248827 0)
(10.1038 0.0595856 0)
(10.1156 0.114038 0)
(10.1675 0.152608 0)
(10.2309 0.161099 0)
(10.2684 0.146271 0)
(10.2579 0.125826 0)
(10.2021 0.116713 0)
(10.1238 0.127683 0)
(10.0474 0.160168 0)
(9.99201 0.207144 0)
(9.96546 0.262338 0)
(10.0915 -0.0547246 0)
(9.99688 -0.085334 0)
(9.97503 -0.0842148 0)
(10.018 -0.0482349 0)
(10.0177 0.016506 0)
(9.94517 0.0798718 0)
(9.86479 0.111748 0)
(9.83495 0.107948 0)
(9.87257 0.0858849 0)
(9.96094 0.0678024 0)
(10.0637 0.067469 0)
(10.147 0.0867392 0)
(10.1925 0.119192 0)
(10.2018 0.156005 0)
(10.1848 0.191875 0)
(10.1567 0.224949 0)
(10.1293 0.255966 0)
(10.1104 0.28594 0)
(10.1877 -0.160505 0)
(10.0581 -0.0087222 0)
(9.98802 0.0518488 0)
(9.97444 0.105179 0)
(9.9476 0.133292 0)
(9.92325 0.11131 0)
(9.93025 0.0664767 0)
(9.94836 0.0337083 0)
(9.95687 0.0234997 0)
(9.9593 0.0289872 0)
(9.96494 0.0425417 0)
(9.97587 0.062341 0)
(9.99086 0.0884187 0)
(10.0072 0.120401 0)
(10.02 0.1569 0)
(10.0297 0.196133 0)
(10.034 0.236604 0)
(10.0424 0.277933 0)
(10.0754 -0.0390582 0)
(10.0956 0.0442875 0)
(10.128 -0.0375711 0)
(10.1366 -0.0492478 0)
(10.1204 0.0185838 0)
(10.0867 0.0834724 0)
(10.0475 0.113233 0)
(10.0114 0.111576 0)
(9.99132 0.0943193 0)
(9.99724 0.0761194 0)
(10.0255 0.0668963 0)
(10.0627 0.0737145 0)
(10.0966 0.0981034 0)
(10.1196 0.137453 0)
(10.1251 0.181314 0)
(10.1124 0.221879 0)
(10.0852 0.253213 0)
(10.0506 0.273936 0)
(9.94648 -0.0991935 0)
(10.1239 -0.0830666 0)
(10.1655 0.0248117 0)
(10.1238 0.154348 0)
(10.0297 0.210319 0)
(9.96177 0.192344 0)
(9.95086 0.135446 0)
(9.97232 0.0698427 0)
(10.005 0.0143615 0)
(10.0384 -0.022989 0)
(10.0658 -0.0389279 0)
(10.0883 -0.029133 0)
(10.114 0.0086853 0)
(10.1473 0.0721687 0)
(10.1856 0.15228 0)
(10.2186 0.23531 0)
(10.2443 0.311458 0)
(10.2543 0.366812 0)
(9.8836 -0.168696 0)
(9.84366 -0.129272 0)
(9.87394 -0.012393 0)
(10.0076 0.0550746 0)
(10.1483 0.109288 0)
(10.2432 0.125404 0)
(10.2814 0.0949724 0)
(10.2822 0.0517423 0)
(10.2692 0.0274069 0)
(10.2557 0.0245531 0)
(10.2432 0.0291032 0)
(10.23 0.0325577 0)
(10.2153 0.0381245 0)
(10.2018 0.05435 0)
(10.192 0.0864593 0)
(10.1891 0.132106 0)
(10.1919 0.184306 0)
(10.2031 0.232664 0)
(10.0975 0.142627 0)
(10.1101 -0.00585447 0)
(10.0401 -0.150966 0)
(10.0562 -0.146049 0)
(10.1402 -0.0499441 0)
(10.2234 0.0482907 0)
(10.2729 0.0985714 0)
(10.2748 0.091954 0)
(10.2421 0.050594 0)
(10.1994 0.00751473 0)
(10.1635 -0.0130026 0)
(10.1417 -0.000253454 0)
(10.1326 0.0433228 0)
(10.1309 0.107975 0)
(10.1319 0.180457 0)
(10.135 0.247727 0)
(10.1402 0.30238 0)
(10.15 0.337018 0)
(10.1956 0.119517 0)
(10.2758 0.0336786 0)
(10.2569 -0.029033 0)
(10.1236 -0.0754489 0)
(10.0209 -0.0981658 0)
(10.0146 -0.0711192 0)
(10.0503 0.00468597 0)
(10.0812 0.0987842 0)
(10.0968 0.167588 0)
(10.0923 0.184341 0)
(10.0667 0.155048 0)
(10.0306 0.107888 0)
(9.99999 0.071112 0)
(9.98507 0.0591629 0)
(9.98912 0.0714892 0)
(10.0105 0.099864 0)
(10.0455 0.13351 0)
(10.0892 0.166926 0)
(10.1402 -0.0444499 0)
(10.1026 0.0959007 0)
(10.0908 0.165954 0)
(10.0766 0.148501 0)
(10.0319 0.0804734 0)
(9.97489 0.0129894 0)
(9.95084 -0.0168186 0)
(9.97324 -0.00523347 0)
(10.0251 0.0301984 0)
(10.0782 0.070233 0)
(10.1081 0.103129 0)
(10.1086 0.123019 0)
(10.0902 0.12741 0)
(10.0692 0.119711 0)
(10.0576 0.107152 0)
(10.0602 0.0970528 0)
(10.0772 0.0927747 0)
(10.1047 0.0951599 0)
(9.94979 0.103127 0)
(10.0176 0.143827 0)
(10.1259 0.0675007 0)
(10.216 0.0530387 0)
(10.2208 0.0691551 0)
(10.1726 0.0518188 0)
(10.1211 0.00687339 0)
(10.0962 -0.0194037 0)
(10.106 -0.000856761 0)
(10.1396 0.0526475 0)
(10.1786 0.111816 0)
(10.2086 0.150655 0)
(10.2257 0.158206 0)
(10.2327 0.138357 0)
(10.2362 0.104715 0)
(10.2399 0.0712338 0)
(10.2485 0.0469742 0)
(10.2615 0.0375337 0)
(10.0377 0.000355981 0)
(10.0724 -0.150697 0)
(10.0984 -0.066168 0)
(10.1359 0.0387408 0)
(10.1645 0.104162 0)
(10.1745 0.115326 0)
(10.1616 0.0721023 0)
(10.1281 0.00984609 0)
(10.0931 -0.0291154 0)
(10.0819 -0.0268318 0)
(10.1052 0.00730778 0)
(10.1552 0.0509669 0)
(10.2166 0.0844509 0)
(10.2752 0.0968613 0)
(10.321 0.0883766 0)
(10.3517 0.0678797 0)
(10.3688 0.0447725 0)
(10.3794 0.0311568 0)
(10.2495 0.0128282 0)
(10.1151 0.0470572 0)
(10.034 0.025645 0)
(9.98563 0.0274539 0)
(9.99419 0.0501028 0)
(10.0522 0.0650282 0)
(10.1118 0.0633715 0)
(10.1361 0.0512402 0)
(10.1249 0.038589 0)
(10.1026 0.0288757 0)
(10.0927 0.0211453 0)
(10.1026 0.0144945 0)
(10.1259 0.00961134 0)
(10.152 0.00771488 0)
(10.1702 0.00787469 0)
(10.1779 0.00932447 0)
(10.1742 0.0100452 0)
(10.1668 0.00904343 0)
(9.81313 -0.112679 0)
(9.96315 0.031298 0)
(9.92574 0.0431261 0)
(9.86311 0.0308588 0)
(9.85281 0.0197744 0)
(9.90349 0.0125753 0)
(9.99536 0.0107154 0)
(10.1017 0.0121657 0)
(10.2031 0.0126367 0)
(10.2859 0.0100356 0)
(10.3407 0.00684139 0)
(10.3645 0.00836155 0)
(10.3621 0.0168524 0)
(10.3429 0.0305487 0)
(10.3169 0.0441441 0)
(10.2907 0.0529861 0)
(10.2685 0.0538299 0)
(10.2494 0.0459659 0)
(9.99094 -0.0809425 0)
(9.92348 0.0465555 0)
(9.93835 0.114586 0)
(9.95641 0.104163 0)
(9.98065 0.0289895 0)
(10.0334 -0.0507169 0)
(10.0954 -0.100169 0)
(10.1442 -0.118179 0)
(10.1684 -0.112079 0)
(10.1659 -0.0864002 0)
(10.1451 -0.0466948 0)
(10.1199 -0.00268171 0)
(10.105 0.0345267 0)
(10.1103 0.0577209 0)
(10.1389 0.0666799 0)
(10.1846 0.0651386 0)
(10.2395 0.058264 0)
(10.2927 0.0502082 0)
(9.77719 0.103917 0)
(9.85456 0.0308069 0)
(9.95806 -0.00575508 0)
(10.0709 -0.00676274 0)
(10.1371 -0.0252286 0)
(10.1661 -0.0513903 0)
(10.1791 -0.0596378 0)
(10.1803 -0.0434682 0)
(10.1638 -0.0142248 0)
(10.1306 0.0143138 0)
(10.0942 0.0323789 0)
(10.0719 0.0350453 0)
(10.0736 0.0235819 0)
(10.0988 0.00357591 0)
(10.1396 -0.0180924 0)
(10.1866 -0.0355899 0)
(10.2321 -0.0462099 0)
(10.2714 -0.0485369 0)
(10.154 -0.0119786 0)
(10.028 -0.0288147 0)
(9.93277 0.0276752 0)
(9.92595 0.0188103 0)
(9.94234 -0.0349284 0)
(9.95897 -0.0911623 0)
(9.9842 -0.119039 0)
(10.0275 -0.108993 0)
(10.0851 -0.0729694 0)
(10.1443 -0.030091 0)
(10.1938 0.00328474 0)
(10.2298 0.0183247 0)
(10.2542 0.0156845 0)
(10.271 0.00245253 0)
(10.2823 -0.0128769 0)
(10.2883 -0.0244512 0)
(10.2881 -0.029897 0)
(10.2814 -0.0300169 0)
(9.95341 0.0584506 0)
(9.90101 0.0659613 0)
(9.96333 0.0296417 0)
(10.1116 -0.00552487 0)
(10.2135 -0.0286956 0)
(10.2236 -0.0582743 0)
(10.1715 -0.0855705 0)
(10.1013 -0.0936441 0)
(10.0506 -0.0789485 0)
(10.0388 -0.0500788 0)
(10.0633 -0.0213289 0)
(10.1102 -0.00495759 0)
(10.1648 -0.00427462 0)
(10.2152 -0.0142015 0)
(10.2538 -0.0254194 0)
(10.2769 -0.0317259 0)
(10.2855 -0.0307499 0)
(10.2838 -0.0240839 0)
(9.97601 -0.0164497 0)
(9.98226 -0.0230608 0)
(10.0577 -0.0391911 0)
(10.1374 -0.0752556 0)
(10.2052 -0.0892717 0)
(10.2709 -0.0851032 0)
(10.3071 -0.0741446 0)
(10.2829 -0.0610055 0)
(10.2086 -0.0483992 0)
(10.1279 -0.0383214 0)
(10.0779 -0.0329915 0)
(10.07 -0.034387 0)
(10.0943 -0.0415836 0)
(10.1344 -0.0498036 0)
(10.1757 -0.0533311 0)
(10.2105 -0.050476 0)
(10.2352 -0.0426324 0)
(10.2519 -0.0341145 0)
(9.72516 0.0349311 0)
(9.7646 0.00632338 0)
(9.66812 -0.026607 0)
(9.5092 -0.0407682 0)
(9.27574 -0.0684068 0)
(8.98761 -0.0921766 0)
(8.71967 -0.0836876 0)
(8.52676 -0.0497178 0)
(8.41538 -0.015518 0)
(8.36167 0.00205854 0)
(8.3292 -0.000280112 0)
(8.28348 -0.0172726 0)
(8.20434 -0.0392701 0)
(8.09255 -0.0566326 0)
(7.96382 -0.0631491 0)
(7.84059 -0.0589025 0)
(7.73494 -0.0471333 0)
(7.65897 -0.0331966 0)
(0.063037 -0.139164 1.06e-20)
(0.311565 -0.313405 -1.05097e-20)
(0.638367 -0.368388 0)
(0.970439 -0.377984 0)
(1.30107 -0.373711 0)
(1.62995 -0.365458 9.94316e-21)
(1.95634 -0.355157 0)
(2.27831 -0.341748 0)
(2.59166 -0.323364 0)
(2.88995 -0.297726 0)
(3.16389 -0.262623 -8.90774e-21)
(3.4023 -0.216456 0)
(3.59292 -0.157782 0)
(3.72112 -0.0864458 0)
(3.77946 -0.00284383 0)
(3.74896 0.0901451 -8.18717e-21)
(3.61917 0.187207 0)
(3.38779 0.278719 0)
(3.05719 0.360686 0)
(2.64364 0.414029 0)
(2.16348 0.438877 0)
(1.66532 0.410947 0)
(1.16481 0.250897 0)
(0.595133 0.350712 -8.75343e-21)
(0.34426 0.474337 8.75108e-21)
(0.527305 -0.228056 -8.74805e-21)
(0.681375 -1.29862 -8.7083e-21)
(0.671697 -1.51964 0)
(0.514931 -0.207153 0)
(-0.507613 0.918068 8.45831e-21)
(-1.61771 1.04083 8.35832e-21)
(-2.7183 1.05104 0)
(-3.77363 0.985106 0)
(-4.73642 0.90516 7.43559e-21)
(-5.62573 0.812192 0)
(-6.42202 0.722414 0)
(-7.14127 0.635787 -6.0459e-21)
(-7.77958 0.556459 0)
(-8.34737 0.483513 -5.12627e-21)
(-8.84573 0.417104 -9.40672e-21)
(-9.28052 0.355864 0)
(-9.65314 0.299039 0)
(-9.96637 0.245627 0)
(-10.221 0.195035 0)
(-10.4184 0.146892 0)
(-10.559 0.101244 -6.12379e-21)
(-10.644 0.0584801 -5.93927e-21)
(-10.6741 0.0191731 -5.86278e-21)
(-10.652 -0.0163853 0)
(-10.5879 -0.0482512 6.00802e-21)
(-10.4799 -0.0767882 0)
(-10.3353 -0.101753 -6.48817e-21)
(-10.1566 -0.123179 -6.82203e-21)
(-9.94953 -0.140909 0)
(-9.71813 -0.155107 0)
(-9.4674 -0.165907 0)
(-9.20134 -0.173642 -8.46758e-21)
(-8.92409 -0.178635 0)
(-8.63905 -0.18131 0)
(-8.34929 -0.182087 0)
(-8.05719 -0.181443 0)
(-7.76447 -0.179875 0)
(-7.47204 -0.177938 0)
(-7.17991 -0.176212 0)
(-6.88714 -0.175272 0)
(-6.59192 -0.175602 1.18533e-20)
(-6.29175 -0.177522 0)
(-5.98382 -0.1811 0)
(-5.66547 -0.186152 -1.27573e-20)
(-5.33447 -0.19231 -1.30477e-20)
(-4.98925 -0.199113 0)
(-4.62902 -0.206056 1.36091e-20)
(-4.25385 -0.212626 -1.38753e-20)
(-3.86459 -0.21835 0)
(-3.4629 -0.222804 1.43609e-20)
(-3.05121 -0.225606 0)
(-2.63259 -0.226418 0)
(-2.21049 -0.22504 -1.49129e-20)
(-1.78845 -0.221511 0)
(-1.37026 -0.215935 1.51287e-20)
(-0.959848 -0.208236 0)
(-0.560625 -0.198732 -1.52137e-20)
(-0.17593 -0.187807 -1.52092e-20)
(0.188134 -0.177067 -1.51659e-20)
(0.531749 -0.164549 -3.01796e-20)
(0.856902 -0.151905 2.99853e-20)
(1.16104 -0.139329 0)
(1.44403 -0.127026 0)
(1.70613 -0.115148 0)
(1.94792 -0.10379 2.89094e-20)
(2.17012 -0.0929991 2.85921e-20)
(2.37359 -0.0827956 -2.82638e-20)
(2.5592 -0.0731908 0)
(2.72786 -0.0641972 2.75873e-20)
(2.88047 -0.0558315 2.7244e-20)
(3.018 -0.0481117 2.69002e-20)
(3.14145 -0.0410513 0)
(3.25187 -0.0346538 0)
(3.35034 -0.0289094 0)
(3.43797 -0.0237928 2.55466e-20)
(3.51582 -0.0192664 0)
(3.58492 -0.01528 0)
(3.64619 -0.0117773 -2.45762e-20)
(3.7005 -0.00870163 0)
(3.74859 -0.00599083 0)
(3.79111 -0.00359687 -2.3653e-20)
(3.82863 -0.00146776 0)
(3.86162 0.000450941 0)
(3.89047 0.00217708 2.2776e-20)
(3.91551 0.003773 2.24933e-20)
(3.93693 0.00526729 0)
(3.95497 0.00662947 -2.19414e-20)
(3.96972 0.00796764 0)
(3.98115 0.00923899 2.14062e-20)
(3.98957 0.0103607 0)
(3.9947 0.0115591 2.08862e-20)
(3.99635 0.0128758 2.06314e-20)
(3.99473 0.0140959 0)
(3.98997 0.0151023 0)
(3.9823 0.0158742 0)
(3.97212 0.0163947 0)
(3.95984 0.0166077 0)
(3.94588 0.0165342 0)
(3.93065 0.016228 0)
(3.91449 0.0157371 1.87004e-20)
(3.89775 0.01511 -1.84711e-20)
(3.88071 0.0143854 0)
(3.86361 0.0135963 0)
(3.84665 0.0127742 0)
(3.82999 0.0119431 0)
(3.81373 0.0111215 -3.47186e-20)
(3.79799 0.0103247 0)
(3.78281 0.00956436 3.3859e-20)
(3.76822 0.00884842 -3.34351e-20)
(3.75425 0.00818047 0)
(3.7409 0.00756135 0)
(3.72816 0.00699223 0)
(3.71601 0.00647515 3.17759e-20)
(3.70443 0.0060098 3.13697e-20)
(3.69337 0.00559141 0)
(3.6828 0.00521356 3.05668e-20)
(3.6727 0.00487366 3.017e-20)
(3.66303 0.00457477 -2.97761e-20)
(3.65375 0.00432097 0)
(3.6448 0.00410932 0)
(3.63615 0.00392632 -2.86119e-20)
(3.62778 0.00375212 0)
(3.61967 0.00357001 0)
(3.61186 0.00337407 0)
(3.60438 0.00317061 0)
(3.59722 0.00297322 2.6726e-20)
(3.5904 0.00279578 2.63566e-20)
(3.58387 0.00264654 0)
(3.5776 0.00252705 2.56254e-20)
(3.57154 0.00243303 0)
(3.56565 0.00235866 0)
(3.55988 0.0022979 2.45469e-20)
(3.55421 0.00224807 0)
(3.54856 0.00220737 2.38398e-20)
(3.54295 0.00217806 0)
(3.53727 0.00216112 0)
(3.53156 0.00216117 2.27967e-20)
(3.52561 0.00218095 0)
(3.51959 0.00222442 2.21132e-20)
(3.51307 0.00230147 0)
(3.50645 0.00240671 0)
(3.49884 0.00257967 0)
(3.49117 0.00277059 -2.07766e-20)
(3.48162 0.00312428 0)
(3.47214 0.00341999 2.01258e-20)
(3.45923 0.00415674 0)
(3.44638 0.00453054 0)
(3.42778 0.00618901 0)
(3.40775 0.00642059 0)
(3.38018 0.0105668 0)
(3.34192 0.00973547 0)
(3.30253 0.0214162 0)
(3.20974 0.0164361 -3.55128e-20)
(3.16333 0.0555667 0)
(2.88018 0.0453089 0)
(0.122378 -0.636248 -3.17116e-20)
(0.383713 -0.979299 3.14141e-20)
(0.657224 -1.0355 0)
(0.929536 -1.03119 -2.04017e-20)
(1.20657 -1.02056 0)
(1.49107 -1.01046 -9.93866e-21)
(1.78282 -0.997079 1.93561e-20)
(2.07877 -0.973921 1.89329e-20)
(2.37439 -0.933807 0)
(2.66146 -0.869341 1.80025e-20)
(2.93117 -0.774896 8.90768e-21)
(3.17067 -0.645413 0)
(3.36739 -0.47907 0)
(3.50832 -0.275809 0)
(3.57458 -0.0403486 0)
(3.56344 0.219304 8.18961e-21)
(3.46641 0.487462 0)
(3.28021 0.747015 -1.59282e-20)
(3.00537 0.979832 0)
(2.65106 1.17045 0)
(2.20231 1.29201 1.67391e-20)
(1.71892 1.37105 0)
(1.28157 1.52786 -1.73142e-20)
(1.03075 1.18634 8.73797e-21)
(0.819193 -0.271261 -8.7389e-21)
(0.462653 -0.45319 8.74354e-21)
(-0.866596 1.09378 8.68905e-21)
(-2.527 1.8868 0)
(-3.53009 2.26333 0)
(-4.46405 2.55014 -8.35878e-21)
(-5.25266 2.4991 7.4497e-21)
(-5.98855 2.40804 0)
(-6.64346 2.22158 0)
(-7.239 2.02927 -7.37851e-21)
(-7.77226 1.82212 0)
(-8.25159 1.62721 0)
(-8.68169 1.4419 6.01693e-21)
(-9.06776 1.27219 0)
(-9.41379 1.11505 -4.49748e-21)
(-9.72214 0.969556 9.38051e-21)
(-9.99419 0.832591 0)
(-10.23 0.702036 0)
(-10.4289 0.575836 1.37257e-20)
(-10.5899 0.452859 1.27645e-20)
(-10.7118 0.332696 1.20078e-20)
(-10.7935 0.215682 -5.34744e-21)
(-10.8342 0.102714 5.93669e-21)
(-10.8345 -0.00499828 1.69109e-20)
(-10.7954 -0.105937 -1.11593e-20)
(-10.7113 -0.198425 -6.00552e-21)
(-10.5901 -0.281545 0)
(-10.4319 -0.354352 6.48487e-21)
(-10.2431 -0.416493 -6.45813e-21)
(-10.027 -0.467803 0)
(-9.78905 -0.508627 0)
(-9.53326 -0.539555 0)
(-9.2641 -0.561492 8.46223e-21)
(-8.98505 -0.575482 0)
(-8.69946 -0.582713 -1.85212e-20)
(-8.40996 -0.584443 0)
(-8.11876 -0.582043 -2.01566e-20)
(-7.82735 -0.577001 0)
(-7.53655 -0.570965 2.1631e-20)
(-7.24629 -0.565699 0)
(-6.9555 -0.562937 -2.29577e-20)
(-6.66212 -0.564125 1.17334e-20)
(-6.36329 -0.570184 0)
(-6.0558 -0.581281 2.47711e-20)
(-5.73661 -0.596825 1.27486e-20)
(-5.40332 -0.61569 1.30386e-20)
(-5.05425 -0.636523 0)
(-4.68861 -0.65787 1.34414e-20)
(-4.30649 -0.678233 1.38651e-20)
(-3.90886 -0.696167 0)
(-3.49749 -0.710366 -1.43503e-20)
(-3.07488 -0.719656 2.89886e-20)
(-2.64431 -0.723041 0)
(-2.20961 -0.719924 1.49027e-20)
(-1.77469 -0.710254 0)
(-1.3434 -0.694266 -4.52645e-20)
(-0.919838 -0.671971 0)
(-0.507713 -0.644367 4.55429e-20)
(-0.11204 -0.612314 1.52002e-20)
(0.263606 -0.579021 -1.50976e-20)
(0.619656 -0.542242 -3.00577e-20)
(0.955724 -0.504799 2.98765e-20)
(1.27074 -0.467581 0)
(1.56461 -0.431287 0)
(1.83768 -0.396407 0)
(2.09059 -0.363218 -8.66264e-20)
(2.32414 -0.331835 -2.85771e-20)
(2.53921 -0.302263 2.82495e-20)
(2.73675 -0.274465 0)
(2.91778 -0.248401 2.75391e-20)
(3.08335 -0.224061 -2.7231e-20)
(3.23459 -0.201464 -2.68875e-20)
(3.37264 -0.180649 0)
(3.49864 -0.161646 0)
(3.61369 -0.144455 0)
(3.71885 -0.129029 -2.55342e-20)
(3.81513 -0.115276 0)
(3.90345 -0.103065 4.97472e-20)
(3.98466 -0.0922508 7.36751e-20)
(4.05955 -0.0826773 -4.84864e-20)
(4.12882 -0.0741898 0)
(4.19311 -0.0666467 -2.36277e-20)
(4.25296 -0.0599112 0)
(4.30888 -0.053852 -4.60887e-20)
(4.36131 -0.0483621 2.27526e-20)
(4.41055 -0.0433177 2.24704e-20)
(4.45696 -0.0386166 0)
(4.50071 -0.0341975 6.57711e-20)
(4.5419 -0.0299384 -4.33058e-20)
(4.5808 -0.0258085 -2.139e-20)
(4.61721 -0.0218172 0)
(4.65135 -0.0178174 -2.08693e-20)
(4.68353 -0.0137987 -6.18374e-20)
(4.71374 -0.00994512 0)
(4.74194 -0.00637167 -4.02224e-20)
(4.76807 -0.003114 -3.97311e-20)
(4.79209 -0.000228398 -3.92456e-20)
(4.81392 0.00228727 0)
(4.83362 0.00443745 0)
(4.85126 0.00620339 0)
(4.86691 0.00759636 1.86779e-20)
(4.8807 0.00865852 1.84502e-20)
(4.89275 0.00942639 0)
(4.90323 0.00993729 3.59955e-20)
(4.91227 0.0102309 3.55509e-20)
(4.92001 0.0103406 0)
(4.92661 0.0103012 3.46757e-20)
(4.93217 0.0101469 6.84867e-20)
(4.93683 0.0099047 -3.38162e-20)
(4.94068 0.00959729 -3.33918e-20)
(4.94383 0.00924451 0)
(4.94637 0.00886233 0)
(4.94836 0.00846376 0)
(4.94989 0.00806038 -3.17346e-20)
(4.95102 0.00766127 3.13286e-20)
(4.95179 0.00727212 6.18523e-20)
(4.95227 0.00689568 -3.05268e-20)
(4.95249 0.00653448 3.01304e-20)
(4.9525 0.0061926 2.97372e-20)
(4.95231 0.00587481 0)
(4.95199 0.00558276 0)
(4.95154 0.00531179 -2.85746e-20)
(4.951 0.00505142 0)
(4.9504 0.00479005 0)
(4.94974 0.00452039 5.48738e-20)
(4.94903 0.00424261 0)
(4.94829 0.00396328 2.66917e-20)
(4.94753 0.00369242 -2.63229e-20)
(4.94675 0.00343972 0)
(4.94598 0.00321296 2.55929e-20)
(4.94523 0.00301706 0)
(4.94451 0.00285492 0)
(4.94382 0.00272775 -2.45162e-20)
(4.94315 0.00263579 4.83239e-20)
(4.94248 0.00257945 -2.38102e-20)
(4.94177 0.00255772 0)
(4.94097 0.00257432 0)
(4.94005 0.00262618 2.27685e-20)
(4.93894 0.00272871 0)
(4.93762 0.00286849 2.20858e-20)
(4.936 0.00309388 0)
(4.93405 0.00335068 0)
(4.93162 0.00378155 0)
(4.9287 0.00419806 2.07518e-20)
(4.92504 0.00501671 0)
(4.9205 0.00563715 -2.0102e-20)
(4.91492 0.0072635 0)
(4.90747 0.00807584 0)
(4.89889 0.0115345 3.83077e-20)
(4.88564 0.0123105 -3.76968e-20)
(4.8726 0.0202992 0)
(4.84628 0.0202603 0)
(4.82741 0.0406496 0)
(4.76849 0.0388298 1.06331e-19)
(4.74706 0.0987776 0)
(4.60672 0.104459 -6.88859e-20)
(0.128274 -1.21245 4.99166e-23)
(0.332891 -1.50713 -4.17451e-20)
(0.532455 -1.52209 0)
(0.736567 -1.53276 4.07121e-20)
(0.955518 -1.55412 0)
(1.18776 -1.57416 0)
(1.43144 -1.58331 -1.54242e-22)
(1.68332 -1.57155 -1.89395e-20)
(1.93928 -1.52732 -1.82366e-20)
(2.19227 -1.43865 -1.80136e-20)
(2.43198 -1.29638 0)
(2.64447 -1.09124 0)
(2.81746 -0.819958 1.6077e-20)
(2.93273 -0.482773 3.12869e-20)
(2.97844 -0.0891866 -3.06349e-20)
(2.94046 0.342262 0)
(2.81096 0.784996 -3.01574e-20)
(2.5896 1.20956 1.59446e-20)
(2.29371 1.59312 0)
(1.94843 1.93231 -3.15743e-20)
(1.58404 2.14272 -1.67491e-20)
(1.20284 2.0343 3.32998e-20)
(0.749455 1.56197 1.73222e-20)
(0.385208 1.20431 0)
(-0.94692 1.831 -3.45836e-20)
(-2.48439 2.70883 -3.40154e-20)
(-3.65244 3.24666 0)
(-4.66065 3.44744 -3.24397e-20)
(-5.36574 3.58947 0)
(-5.97555 3.60586 -3.03645e-20)
(-6.42848 3.46874 -1.56492e-20)
(-6.84492 3.26651 0)
(-7.19822 3.00383 0)
(-7.54492 2.73626 0)
(-7.86765 2.4668 0)
(-8.18862 2.21538 0)
(-8.49738 1.98025 0)
(-8.80028 1.76414 -1.92319e-20)
(-9.09007 1.56271 2.73056e-20)
(-9.36586 1.3729 0)
(-9.62125 1.19031 0)
(-9.85212 1.01164 0)
(-10.0524 0.834257 -1.25486e-21)
(-10.2175 0.656849 -1.27709e-20)
(-10.3428 0.479364 -2.28483e-20)
(-10.4252 0.302805 2.1811e-20)
(-10.4625 0.128925 1.0069e-20)
(-10.4539 -0.0398384 -1.10583e-20)
(-10.3999 -0.200119 9.4626e-22)
(-10.3031 -0.348504 -1.06133e-20)
(-10.168 -0.482104 0)
(-9.99943 -0.599024 -1.18999e-20)
(-9.80311 -0.698165 5.54825e-22)
(-9.58466 -0.779409 0)
(-9.34955 -0.843327 0)
(-9.10274 -0.891166 1.55534e-20)
(-8.84839 -0.924543 0)
(-8.58985 -0.945338 0)
(-8.32952 -0.955495 -1.82004e-20)
(-8.06905 -0.957036 -3.84443e-20)
(-7.80938 -0.95209 2.01576e-20)
(-7.55084 -0.943023 0)
(-7.29321 -0.9325 -2.16293e-20)
(-7.03558 -0.923512 0)
(-6.77622 -0.91909 -2.26416e-20)
(-6.51252 -0.921765 -2.3573e-20)
(-6.24114 -0.933189 4.79481e-20)
(-5.95847 -0.953707 2.43189e-20)
(-5.66128 -0.982249 0)
(-5.34717 -1.01668 -5.13144e-20)
(-5.01456 -1.0545 0)
(-4.66256 -1.09311 -8.05389e-20)
(-4.29116 -1.12984 -5.45848e-20)
(-3.90132 -1.16211 -5.56138e-20)
(-3.49481 -1.18767 5.65829e-20)
(-3.07416 -1.20456 -8.64391e-20)
(-2.64273 -1.21115 0)
(-2.20468 -1.20646 0)
(-1.76437 -1.19036 5.9496e-20)
(-1.32626 -1.16312 9.00447e-20)
(-0.895152 -1.12514 0)
(-0.475803 -1.07822 -3.0318e-20)
(-0.0746477 -1.02399 0)
(0.305284 -0.965413 9.04982e-20)
(0.66466 -0.903104 1.7572e-22)
(1.00213 -0.839537 -1.54338e-22)
(1.31741 -0.776393 -5.9226e-20)
(1.6109 -0.714879 0)
(1.88336 -0.65578 5.81948e-20)
(2.13565 -0.599544 9.42903e-23)
(2.36853 -0.546388 0)
(2.58267 -0.496411 0)
(2.77857 -0.449672 0)
(2.95677 -0.406222 -5.50956e-20)
(3.11801 -0.366095 0)
(3.26337 -0.32929 0)
(3.39426 -0.295755 0)
(3.5124 -0.265393 0)
(3.61955 -0.238065 0)
(3.71735 -0.213606 -5.10084e-20)
(3.80719 -0.191822 0)
(3.89019 -0.172496 -4.97426e-20)
(3.96722 -0.155393 -4.91078e-20)
(4.03894 -0.140275 4.84832e-20)
(4.10591 -0.126914 0)
(4.1686 -0.115098 4.72651e-20)
(4.22745 -0.104624 0)
(4.28286 -0.0953056 4.60873e-20)
(4.33521 -0.0869564 -4.55129e-20)
(4.38483 -0.0793987 -1.34816e-19)
(4.432 -0.0724757 0)
(4.47694 -0.066021 -1.3151e-19)
(4.51979 -0.0599213 -4.32843e-20)
(4.56066 -0.0540788 0)
(4.59961 -0.048404 -8.4482e-20)
(4.63664 -0.0429153 -8.345e-20)
(4.67173 -0.0376391 1.23654e-19)
(4.70488 -0.0325897 0)
(4.7361 -0.0278112 4.02221e-20)
(4.7654 -0.0233493 3.97308e-20)
(4.79277 -0.0192544 1.17727e-19)
(4.81831 -0.015504 0)
(4.84207 -0.0121239 0)
(4.86409 -0.00916235 0)
(4.88444 -0.00661133 3.73515e-20)
(4.90321 -0.00444515 0)
(4.9205 -0.00263493 0)
(4.93638 -0.00114502 -3.59944e-20)
(4.95095 6.92124e-05 -3.55495e-20)
(4.9643 0.00103891 0)
(4.97652 0.00179906 0)
(4.9877 0.00238586 -6.84824e-20)
(4.9979 0.00282841 0)
(5.0072 0.00315345 6.67792e-20)
(5.01568 0.00338413 6.5938e-20)
(5.02339 0.00353837 0)
(5.03039 0.00363126 0)
(5.03675 0.00367686 -6.34619e-20)
(5.04251 0.00368702 -6.28438e-25)
(5.04772 0.00366979 -5.39909e-25)
(5.05243 0.00362971 0)
(5.05668 0.00357084 -1.20508e-19)
(5.06052 0.00349951 0)
(5.06397 0.00342352 0)
(5.06709 0.00334722 0)
(5.06991 0.00326697 5.71419e-20)
(5.07245 0.00317203 0)
(5.07475 0.00305133 -1.11239e-19)
(5.0768 0.00290126 -5.48664e-20)
(5.07863 0.00272864 0)
(5.08025 0.00254699 -5.3376e-20)
(5.08168 0.00236937 0)
(5.08292 0.00220345 0)
(5.08401 0.00205077 -1.53535e-19)
(5.08494 0.00191135 1.00912e-19)
(5.08575 0.00178653 0)
(5.08644 0.00168368 9.805e-20)
(5.08703 0.00161095 -4.8317e-20)
(5.08752 0.00158202 0)
(5.08789 0.00160114 0)
(5.08816 0.00168323 0)
(5.08828 0.00181929 -1.36591e-19)
(5.08826 0.00203758 0)
(5.08803 0.00230674 -4.41659e-20)
(5.08761 0.00270324 0)
(5.08685 0.00313834 0)
(5.08586 0.0038162 0)
(5.08429 0.00448272 0)
(5.08244 0.00567355 0)
(5.07955 0.00667535 0)
(5.07637 0.0088868 -7.91038e-20)
(5.07121 0.0103562 0)
(5.06592 0.0147382 -3.83018e-20)
(5.05663 0.0168446 1.13053e-19)
(5.04787 0.026201 0)
(5.03091 0.0294673 0)
(5.01651 0.0513913 -7.18523e-20)
(4.9861 0.0593673 -7.08471e-20)
(4.96519 0.116565 6.96899e-20)
(4.92275 0.146782 6.88653e-20)
(0.0885134 -1.62312 6.32348e-20)
(0.208609 -1.83074 6.26134e-20)
(0.330482 -1.86357 4.12838e-20)
(0.458803 -1.90675 2.03896e-20)
(0.599544 -1.95327 0)
(0.749098 -1.99455 -3.92773e-20)
(0.909921 -2.02461 1.91718e-20)
(1.08011 -2.03025 0)
(1.25722 -1.99343 1.82622e-20)
(1.43542 -1.89602 0)
(1.60294 -1.72199 -3.37725e-20)
(1.74462 -1.45628 0)
(1.85041 -1.08795 -1.61153e-20)
(1.89943 -0.620956 -3.13652e-20)
(1.88873 -0.064627 3.07177e-20)
(1.81152 0.528358 0)
(1.65361 1.11284 3.02359e-20)
(1.4236 1.63576 0)
(1.12477 2.05626 0)
(0.746778 2.36135 3.16468e-20)
(0.299663 2.54685 0)
(-0.296721 2.70743 -1.47145e-21)
(-1.19237 3.0649 0)
(-2.30695 3.66795 0)
(-3.49957 4.20749 1.89147e-21)
(-4.39174 4.48379 3.37522e-20)
(-5.04851 4.5563 3.12185e-20)
(-5.57649 4.51988 3.23074e-20)
(-5.97823 4.42866 0)
(-6.31273 4.25196 5.86172e-20)
(-6.58408 4.02142 0)
(-6.8381 3.75555 2.59412e-20)
(-7.0685 3.4719 0)
(-7.30608 3.19074 0)
(-7.54212 2.91795 -2.19173e-20)
(-7.79243 2.66222 0)
(-8.04853 2.42216 1.90012e-20)
(-8.31435 2.19688 1.72613e-21)
(-8.58131 1.98103 -3.37485e-20)
(-8.8459 1.76969 2.9212e-20)
(-9.09873 1.55741 0)
(-9.33248 1.34008 0)
(-9.53795 1.11504 9.31404e-21)
(-9.70734 0.881691 0)
(-9.83347 0.641581 1.08424e-20)
(-9.9113 0.398188 -1.03455e-20)
(-9.93731 0.156381 -1.008e-20)
(-9.9093 -0.0782787 0)
(-9.82764 -0.300528 1.02308e-20)
(-9.69616 -0.505379 1.06236e-20)
(-9.52063 -0.688222 -2.0392e-20)
(-9.30821 -0.845659 1.19115e-20)
(-9.06711 -0.975866 1.27405e-20)
(-8.80597 -1.07872 0)
(-8.53323 -1.15567 0)
(-8.25666 -1.20938 -1.55711e-20)
(-7.98285 -1.24335 0)
(-7.7169 -1.26139 0)
(-7.46225 -1.26728 3.67677e-20)
(-7.22067 -1.26451 3.84882e-20)
(-6.9922 -1.25629 0)
(-6.77531 -1.24566 0)
(-6.56723 -1.23565 0)
(-6.36412 -1.2294 0)
(-6.16125 -1.23025 4.56266e-20)
(-5.95365 -1.2413 -4.64037e-20)
(-5.73632 -1.26475 -4.797e-20)
(-5.50478 -1.30113 -9.76411e-20)
(-5.25562 -1.34892 0)
(-4.98702 -1.40484 6.61782e-22)
(-4.69804 -1.46508 0)
(-4.38794 -1.52601 5.35078e-20)
(-4.05655 -1.58386 7.09823e-22)
(-3.70462 -1.63481 5.55949e-20)
(-3.33334 -1.67567 -5.65587e-20)
(-2.9444 -1.70378 6.35292e-22)
(-2.54011 -1.71679 0)
(-2.12348 -1.71301 -5.83481e-20)
(-1.69814 -1.6922 -5.9458e-20)
(-1.26872 -1.65433 -1.19295e-19)
(-0.840517 -1.60046 0)
(-0.419866 -1.53281 5.99635e-20)
(-0.0152294 -1.45454 0)
(0.368908 -1.36884 -1.20155e-19)
(0.731847 -1.27886 5.99622e-20)
(1.07088 -1.18792 -5.96142e-20)
(1.38582 -1.09855 5.91905e-20)
(1.67763 -1.01237 1.17068e-19)
(1.9479 -0.930208 -5.81648e-20)
(2.19844 -0.852215 5.75848e-20)
(2.43091 -0.778175 0)
(2.64656 -0.707769 -1.12461e-19)
(2.8461 -0.640839 0)
(3.0296 -0.577561 -1.09864e-19)
(3.19666 -0.518445 1.08535e-19)
(3.34678 -0.464156 1.07199e-19)