/*--------------------------------*- C++ -*----------------------------------*\
  =========                 |
  \\      /  F ield         | OpenFOAM: The Open Source CFD Toolbox
   \\    /   O peration     | Website:  https://openfoam.org
    \\  /    A nd           | Version:  9
     \\/     M anipulation  |
\*---------------------------------------------------------------------------*/
FoamFile
{
    format      ascii;
    class       volVectorField;
    location    "0.05";
    object      U;
}
// * * * * * * * * * * * * * * * * * * * * * * * * * * * * * * * * * * * * * //

dimensions      [0 1 -1 0 0 0 0];

internalField   nonuniform List<vector> 
12225
(
(9.76841 -0.0577507 0)
(9.30665 -0.0322214 0)
(8.83511 -0.00389859 0)
(8.3648 0.0168793 0)
(7.9148 0.0306046 0)
(7.49211 0.038591 0)
(7.09559 0.0428219 0)
(6.72279 0.0448862 0)
(6.37158 0.0457781 0)
(6.03928 0.0461776 0)
(5.72214 0.0466434 0)
(5.41537 0.0476884 0)
(5.11323 0.0498319 0)
(4.80881 0.053674 0)
(4.49339 0.0600535 0)
(4.15666 0.0700835 0)
(3.78219 0.0876576 0)
(3.36407 0.111206 0)
(10.0981 0.0961672 0)
(10.2942 0.159391 0)
(10.4198 0.163535 0)
(10.4814 0.159931 0)
(10.4987 0.156618 0)
(10.4818 0.152956 0)
(10.4356 0.14941 0)
(10.3642 0.146584 0)
(10.2719 0.144723 0)
(10.162 0.144026 0)
(10.0364 0.144848 0)
(9.89597 0.147727 0)
(9.73998 0.153418 0)
(9.56638 0.16301 0)
(9.37119 0.178119 0)
(9.14797 0.201588 0)
(8.887 0.237686 0)
(8.57458 0.298517 0)
(10.0085 0.0402558 0)
(10.0543 0.0548857 0)
(10.1046 0.0515907 0)
(10.1503 0.0579105 0)
(10.1951 0.0694745 0)
(10.2396 0.0806499 0)
(10.2806 0.0906915 0)
(10.3153 0.100191 0)
(10.3426 0.109575 0)
(10.3621 0.119282 0)
(10.3732 0.129968 0)
(10.3756 0.14253 0)
(10.3688 0.158154 0)
(10.3523 0.17846 0)
(10.3256 0.205849 0)
(10.2878 0.244003 0)
(10.2403 0.299128 0)
(10.1865 0.380634 0)
(10.0043 0.027931 0)
(10.0268 0.0559598 0)
(10.0496 0.0691562 0)
(10.0636 0.0817389 0)
(10.0736 0.0931495 0)
(10.0838 0.101625 0)
(10.0942 0.108197 0)
(10.1037 0.114326 0)
(10.1118 0.120844 0)
(10.1182 0.128318 0)
(10.1228 0.137411 0)
(10.1253 0.148983 0)
(10.1256 0.164161 0)
(10.1238 0.18449 0)
(10.1208 0.212229 0)
(10.1189 0.25063 0)
(10.1219 0.304336 0)
(10.1442 0.377863 0)
(10.0032 0.023699 0)
(10.0211 0.0552127 0)
(10.0401 0.0691612 0)
(10.0508 0.0780019 0)
(10.0558 0.0861773 0)
(10.0592 0.093373 0)
(10.0613 0.0999086 0)
(10.0613 0.10665 0)
(10.0587 0.114188 0)
(10.0538 0.122944 0)
(10.0465 0.133466 0)
(10.0367 0.146515 0)
(10.0246 0.163104 0)
(10.0107 0.184575 0)
(9.99584 0.212705 0)
(9.9827 0.249796 0)
(9.9747 0.297838 0)
(9.98287 0.358137 0)
(10.0023 0.0205125 0)
(10.0162 0.0502306 0)
(10.0323 0.0644292 0)
(10.0426 0.0735825 0)
(10.0479 0.0829659 0)
(10.0513 0.0921069 0)
(10.0533 0.100572 0)
(10.0529 0.10896 0)
(10.0499 0.117954 0)
(10.0443 0.128089 0)
(10.0361 0.139957 0)
(10.0254 0.154322 0)
(10.0124 0.172132 0)
(9.99753 0.194547 0)
(9.98192 0.2229 0)
(9.96772 0.258608 0)
(9.95789 0.302171 0)
(9.95894 0.353227 0)
(10.0017 0.0177935 0)
(10.0123 0.045424 0)
(10.0258 0.0609834 0)
(10.0355 0.0716182 0)
(10.041 0.0819281 0)
(10.0444 0.0918207 0)
(10.0464 0.100942 0)
(10.0464 0.10994 0)
(10.0441 0.119624 0)
(10.0394 0.130605 0)
(10.0325 0.143465 0)
(10.0236 0.158903 0)
(10.0129 0.177742 0)
(10.0011 0.200906 0)
(9.98917 0.229314 0)
(9.97908 0.263677 0)
(9.97319 0.303751 0)
(9.97556 0.348187 0)
(10.0012 0.0156272 0)
(10.0093 0.0413981 0)
(10.0205 0.0579307 0)
(10.0295 0.0695592 0)
(10.0349 0.0802136 0)
(10.0383 0.0904755 0)
(10.0403 0.100244 0)
(10.0406 0.110075 0)
(10.039 0.120718 0)
(10.0353 0.132757 0)
(10.0298 0.146723 0)
(10.0227 0.163219 0)
(10.0144 0.182923 0)
(10.0056 0.206524 0)
(9.99728 0.234584 0)
(9.99104 0.267319 0)
(9.98862 0.304091 0)
(9.9926 0.343249 0)
(10.0009 0.0139338 0)
(10.0071 0.0379563 0)
(10.0163 0.0548905 0)
(10.0244 0.0672651 0)
(10.0297 0.0783379 0)
(10.0331 0.0891097 0)
(10.0353 0.0996446 0)
(10.036 0.110357 0)
(10.0351 0.121896 0)
(10.0324 0.134829 0)
(10.0284 0.149656 0)
(10.0231 0.166897 0)
(10.0171 0.187091 0)
(10.011 0.21072 0)
(10.0058 0.23807 0)
(10.0026 0.269054 0)
(10.0027 0.302891 0)
(10.0077 0.338128 0)
(10.0007 0.0125938 0)
(10.0055 0.0349889 0)
(10.0131 0.0519494 0)
(10.0203 0.0649313 0)
(10.0255 0.0764781 0)
(10.029 0.087733 0)
(10.0314 0.0989085 0)
(10.0326 0.110348 0)
(10.0324 0.122621 0)
(10.0309 0.136274 0)
(10.0282 0.151767 0)
(10.0248 0.16953 0)
(10.0211 0.189966 0)
(10.0176 0.213379 0)
(10.0151 0.239858 0)
(10.0146 0.26916 0)
(10.0167 0.300534 0)
(10.0225 0.332872 0)
(10.0005 0.0115106 0)
(10.0043 0.0324361 0)
(10.0105 0.0491835 0)
(10.017 0.0625896 0)
(10.022 0.0745497 0)
(10.0257 0.0861971 0)
(10.0284 0.0978829 0)
(10.0302 0.109929 0)
(10.0309 0.122825 0)
(10.0305 0.137063 0)
(10.0294 0.153047 0)
(10.0279 0.171119 0)
(10.0263 0.19156 0)
(10.0252 0.214538 0)
(10.0252 0.240025 0)
(10.027 0.267731 0)
(10.031 0.297013 0)
(10.0377 0.327117 0)
(10.0004 0.0106738 0)
(10.0035 0.0303691 0)
(10.0088 0.0467713 0)
(10.0146 0.0603982 0)
(10.0196 0.0726578 0)
(10.0234 0.0845982 0)
(10.0265 0.0966593 0)
(10.0288 0.109156 0)
(10.0304 0.122505 0)
(10.0312 0.137131 0)
(10.0315 0.153384 0)
(10.0317 0.171533 0)
(10.032 0.191769 0)
(10.033 0.214172 0)
(10.0351 0.238655 0)
(10.0389 0.264937 0)
(10.0444 0.292502 0)
(10.0523 0.32088 0)
(10.0003 0.00997569 0)
(10.0029 0.028562 0)
(10.0075 0.0444928 0)
(10.0128 0.0581615 0)
(10.0177 0.0706193 0)
(10.0218 0.082778 0)
(10.0253 0.0951106 0)
(10.0283 0.10793 0)
(10.0307 0.121589 0)
(10.0327 0.136449 0)
(10.0344 0.152801 0)
(10.0362 0.170852 0)
(10.0384 0.190727 0)
(10.0413 0.212444 0)
(10.0454 0.23589 0)
(10.051 0.26082 0)
(10.0581 0.286823 0)
(10.0672 0.313641 0)
(10.0003 0.00928009 0)
(10.0025 0.0266951 0)
(10.0064 0.0419868 0)
(10.0113 0.0555202 0)
(10.0162 0.0680609 0)
(10.0206 0.080352 0)
(10.0247 0.0928558 0)
(10.0284 0.105877 0)
(10.032 0.11971 0)
(10.0353 0.134642 0)
(10.0387 0.1509 0)
(10.0423 0.168631 0)
(10.0464 0.187899 0)
(10.0515 0.208681 0)
(10.0576 0.230856 0)
(10.0651 0.254226 0)
(10.074 0.278482 0)
(10.0847 0.303531 0)
(10.0002 0.00856602 0)
(10.0021 0.024732 0)
(10.0057 0.0392027 0)
(10.0103 0.0523683 0)
(10.0152 0.0647906 0)
(10.0201 0.0770441 0)
(10.0249 0.0895402 0)
(10.0297 0.102558 0)
(10.0344 0.116336 0)
(10.0393 0.131083 0)
(10.0444 0.146961 0)
(10.05 0.164058 0)
(10.0563 0.182392 0)
(10.0634 0.201916 0)
(10.0717 0.222512 0)
(10.0813 0.24403 0)
(10.0922 0.266236 0)
(10.1046 0.289148 0)
(10.0002 0.00779804 0)
(10.002 0.0225774 0)
(10.0053 0.035995 0)
(10.0099 0.0484907 0)
(10.0151 0.0604956 0)
(10.0206 0.072436 0)
(10.0262 0.0846436 0)
(10.0321 0.097351 0)
(10.0383 0.110735 0)
(10.0448 0.124937 0)
(10.0518 0.14005 0)
(10.0595 0.156113 0)
(10.0679 0.173109 0)
(10.0773 0.190973 0)
(10.0877 0.209597 0)
(10.0994 0.228862 0)
(10.1123 0.248578 0)
(10.1267 0.268814 0)
(10.0002 0.00691064 0)
(10.002 0.0200479 0)
(10.0053 0.0320887 0)
(10.0101 0.0435212 0)
(10.0158 0.0546956 0)
(10.022 0.0659162 0)
(10.0288 0.0774221 0)
(10.036 0.0893816 0)
(10.0437 0.10191 0)
(10.052 0.115083 0)
(10.0609 0.128937 0)
(10.0706 0.143466 0)
(10.0811 0.158626 0)
(10.0925 0.174338 0)
(10.1051 0.190501 0)
(10.1187 0.207008 0)
(10.1335 0.22369 0)
(10.1496 0.240626 0)
(10.0002 0.00579235 0)
(10.0021 0.0168358 0)
(10.0058 0.0270296 0)
(10.0111 0.0368869 0)
(10.0175 0.0466972 0)
(10.0247 0.0566622 0)
(10.0326 0.066927 0)
(10.0413 0.0775874 0)
(10.0506 0.0886964 0)
(10.0606 0.100271 0)
(10.0714 0.112297 0)
(10.0829 0.12473 0)
(10.0953 0.137502 0)
(10.1086 0.150525 0)
(10.1228 0.163695 0)
(10.138 0.176911 0)
(10.1542 0.19002 0)
(10.1715 0.203081 0)
(10.0003 0.00426305 0)
(10.0025 0.0124252 0)
(10.0067 0.0200349 0)
(10.0128 0.0276022 0)
(10.0202 0.0353479 0)
(10.0287 0.0433682 0)
(10.0379 0.0517117 0)
(10.048 0.0604018 0)
(10.0589 0.069435 0)
(10.0705 0.0787794 0)
(10.0829 0.0883793 0)
(10.0959 0.0981612 0)
(10.1098 0.108039 0)
(10.1243 0.117917 0)
(10.1397 0.127693 0)
(10.1558 0.13727 0)
(10.1726 0.146513 0)
(10.1903 0.155452 0)
(10.0003 0.00258537 0)
(10.003 0.00757239 0)
(10.008 0.0123608 0)
(10.0151 0.0174501 0)
(10.0235 0.0229704 0)
(10.0331 0.0289013 0)
(10.0435 0.0352034 0)
(10.0547 0.0418444 0)
(10.0667 0.0487776 0)
(10.0793 0.0559342 0)
(10.0926 0.0632318 0)
(10.1066 0.0705841 0)
(10.1211 0.0779015 0)
(10.1362 0.0850929 0)
(10.1519 0.0920651 0)
(10.168 0.0987324 0)
(10.1847 0.104987 0)
(10.2018 0.110839 0)
(10.0004 0.00101681 0)
(10.0035 0.00304035 0)
(10.0093 0.00528894 0)
(10.0174 0.00826921 0)
(10.0268 0.0119586 0)
(10.0372 0.0161828 0)
(10.0485 0.0208402 0)
(10.0605 0.0258772 0)
(10.0732 0.0312208 0)
(10.0865 0.0367677 0)
(10.1004 0.0424089 0)
(10.1148 0.0480429 0)
(10.1296 0.0535719 0)
(10.1449 0.05891 0)
(10.1606 0.0639726 0)
(10.1767 0.068683 0)
(10.193 0.0729518 0)
(10.2097 0.0767692 0)
(10.0005 -0.000645478 0)
(10.0041 -0.00165475 0)
(10.011 -0.00178907 0)
(10.0202 -0.000614165 0)
(10.0306 0.00155422 0)
(10.0418 0.00433176 0)
(10.0538 0.00756978 0)
(10.0665 0.0112254 0)
(10.0798 0.015218 0)
(10.0936 0.0194342 0)
(10.1078 0.0237661 0)
(10.1224 0.028119 0)
(10.1373 0.0323722 0)
(10.1526 0.0364436 0)
(10.1681 0.0402527 0)
(10.1838 0.0437189 0)
(10.1996 0.0467638 0)
(10.2155 0.0493764 0)
(10.0006 -0.0024612 0)
(10.0051 -0.00660848 0)
(10.0134 -0.00890978 0)
(10.0239 -0.0092149 0)
(10.0352 -0.00828525 0)
(10.047 -0.00666433 0)
(10.0595 -0.00450817 0)
(10.0728 -0.00191026 0)
(10.0866 0.000972361 0)
(10.1008 0.0039918 0)
(10.1153 0.00704647 0)
(10.1302 0.0100583 0)
(10.1452 0.0129961 0)
(10.1605 0.0157629 0)
(10.1759 0.0182728 0)
(10.1914 0.0204694 0)
(10.2069 0.0222896 0)
(10.2225 0.0237027 0)
(10.0008 -0.0044967 0)
(10.0065 -0.0118859 0)
(10.0166 -0.0159149 0)
(10.0285 -0.0173115 0)
(10.0406 -0.0175771 0)
(10.0531 -0.0171488 0)
(10.0661 -0.0159083 0)
(10.0798 -0.0139403 0)
(10.0938 -0.0115203 0)
(10.1081 -0.00888517 0)
(10.1227 -0.00617865 0)
(10.1376 -0.00350085 0)
(10.1526 -0.000908081 0)
(10.1677 0.00149531 0)
(10.1829 0.00362182 0)
(10.1981 0.00541552 0)
(10.2132 0.00681966 0)
(10.2281 0.00782148 0)
(10.0011 -0.00691637 0)
(10.0088 -0.0178727 0)
(10.021 -0.022845 0)
(10.0341 -0.0243219 0)
(10.0468 -0.0252827 0)
(10.0598 -0.0261965 0)
(10.0736 -0.0265775 0)
(10.088 -0.02631 0)
(10.1025 -0.0255727 0)
(10.1172 -0.0245244 0)
(10.132 -0.0232557 0)
(10.147 -0.0218465 0)
(10.1621 -0.0204309 0)
(10.1771 -0.019086 0)
(10.1921 -0.0178856 0)
(10.207 -0.016903 0)
(10.2218 -0.0161935 0)
(10.2365 -0.0158054 0)
(10.0015 -0.00966291 0)
(10.0121 -0.0248091 0)
(10.0273 -0.0310687 0)
(10.0415 -0.0320884 0)
(10.054 -0.0317284 0)
(10.0668 -0.0309193 0)
(10.0807 -0.0296894 0)
(10.0952 -0.0282477 0)
(10.1098 -0.0267974 0)
(10.1246 -0.0253965 0)
(10.1396 -0.0240485 0)
(10.1547 -0.0227807 0)
(10.1699 -0.0216515 0)
(10.185 -0.0207026 0)
(10.2 -0.0199791 0)
(10.2149 -0.0195186 0)
(10.2295 -0.0193625 0)
(10.2439 -0.0194688 0)
(10.002 -0.0125896 0)
(10.0156 -0.0296424 0)
(10.0345 -0.0392296 0)
(10.0509 -0.0465077 0)
(10.0648 -0.0521147 0)
(10.0788 -0.0552579 0)
(10.0939 -0.0563484 0)
(10.1095 -0.0562864 0)
(10.1254 -0.0556208 0)
(10.1416 -0.0545748 0)
(10.1582 -0.053284 0)
(10.1749 -0.0518805 0)
(10.1917 -0.050484 0)
(10.2085 -0.0491866 0)
(10.2253 -0.0480666 0)
(10.2419 -0.0471913 0)
(10.2583 -0.0466219 0)
(10.2745 -0.0462886 0)
(10.0034 -0.0192607 0)
(10.0249 -0.0237913 0)
(10.0524 -0.0160287 0)
(10.079 -0.0144196 0)
(10.1059 -0.0177385 0)
(10.1346 -0.0215592 0)
(10.1644 -0.0247084 0)
(10.194 -0.0274248 0)
(10.2232 -0.0298242 0)
(10.2519 -0.0318602 0)
(10.2798 -0.0335357 0)
(10.3068 -0.0349231 0)
(10.3329 -0.0361143 0)
(10.358 -0.0372001 0)
(10.3821 -0.0382676 0)
(10.4051 -0.0394372 0)
(10.4273 -0.0407884 0)
(10.4483 -0.0425605 0)
(10.0507 -0.0658325 0)
(10.1719 -0.11577 0)
(10.2679 -0.120036 0)
(10.3374 -0.116448 0)
(10.3908 -0.113086 0)
(10.4328 -0.109251 0)
(10.4641 -0.105018 0)
(10.4859 -0.10093 0)
(10.4997 -0.0971637 0)
(10.5071 -0.0936714 0)
(10.5095 -0.0904147 0)
(10.5079 -0.0874007 0)
(10.5029 -0.0846515 0)
(10.4953 -0.0821976 0)
(10.4856 -0.0800699 0)
(10.4741 -0.0783637 0)
(10.4612 -0.0771015 0)
(10.4475 -0.0768038 0)
(9.87654 0.0447021 0)
(9.6331 0.0261932 0)
(9.37992 0.00575888 0)
(9.12359 -0.00909326 0)
(8.87789 -0.019462 0)
(8.64824 -0.0259984 0)
(8.43429 -0.0298073 0)
(8.23493 -0.0319244 0)
(8.04959 -0.0329695 0)
(7.87775 -0.033285 0)
(7.71863 -0.0331027 0)
(7.57126 -0.0326017 0)
(7.43464 -0.0319196 0)
(7.30776 -0.0311646 0)
(7.18958 -0.0304232 0)
(7.07912 -0.0297976 0)
(6.97492 -0.0293593 0)
(6.87708 -0.0294741 0)
(-0.0185093 -0.0164129 -7.16884e-20)
(0.127586 -0.176591 6.47975e-20)
(0.49091 -0.306793 0)
(0.939309 -0.331673 0)
(1.37853 -0.271235 0)
(1.73824 -0.173017 -4.81813e-20)
(1.98823 -0.0734343 0)
(2.12924 0.010292 0)
(2.1764 0.0727526 0)
(2.14676 0.111432 0)
(2.06496 0.124752 5.17349e-20)
(1.95702 0.115764 0)
(1.84231 0.0945464 0)
(1.7337 0.0774239 0)
(1.62674 0.0824917 0)
(1.507 0.116281 5.14218e-20)
(1.3663 0.160424 0)
(1.20779 0.175312 0)
(1.04734 0.133586 0)
(0.920204 0.0550601 0)
(0.922175 -0.0720605 0)
(1.05572 -0.255445 0)
(1.20511 -0.441665 0)
(1.27456 -0.601348 4.95896e-20)
(1.1933 -0.548387 -5.06948e-20)
(0.916101 -0.230672 5.39431e-20)
(0.35913 0.186431 5.67213e-20)
(-0.416226 0.509751 0)
(-1.31367 0.740075 0)
(-2.28294 0.89323 -3.90655e-20)
(-3.28177 0.97555 -3.6389e-20)
(-4.27127 0.996644 0)
(-5.21957 0.968216 0)
(-6.10225 0.902398 -3.5343e-20)
(-6.90202 0.810603 0)
(-7.60766 0.70279 0)
(-8.21293 0.587191 3.75559e-20)
(-8.71533 0.470411 0)
(-9.1151 0.357564 3.87248e-20)
(-9.41503 0.252577 7.80709e-20)
(-9.61946 0.159101 0)
(-9.73248 0.0802751 0)
(-9.76103 0.0170358 0)
(-9.72173 -0.0327559 0)
(-9.62808 -0.0734432 0)
(-9.48536 -0.108227 7.02722e-20)
(-9.29895 -0.138697 6.69636e-20)
(-9.07337 -0.165593 6.31698e-20)
(-8.81252 -0.189357 0)
(-8.51993 -0.210302 -5.42554e-20)
(-8.19883 -0.228696 0)
(-7.85217 -0.244784 4.37632e-20)
(-7.48263 -0.258786 3.79826e-20)
(-7.09267 -0.270885 0)
(-6.68458 -0.28121 0)
(-6.26057 -0.28982 0)
(-5.82288 -0.296702 1.16254e-20)
(-5.37386 -0.301782 0)
(-4.9161 -0.304947 0)
(-4.4524 -0.306073 0)
(-3.98576 -0.305064 0)
(-3.51932 -0.301879 0)
(-3.05622 -0.29655 0)
(-2.5995 -0.289172 0)
(-2.15198 -0.279862 0)
(-1.71611 -0.268721 6.31168e-20)
(-1.29382 -0.255831 0)
(-0.886288 -0.241367 0)
(-0.493755 -0.225759 -9.15908e-20)
(-0.117543 -0.209946 -9.73769e-20)
(0.242848 -0.193071 0)
(0.58831 -0.176295 9.2157e-20)
(0.91687 -0.159377 -8.85279e-20)
(1.22801 -0.141814 0)
(1.52127 -0.123876 8.2011e-20)
(1.7958 -0.104923 0)
(2.05005 -0.0845913 0)
(2.28138 -0.0614136 -7.42286e-20)
(2.48598 -0.0376191 0)
(2.65977 -0.0180381 7.03061e-20)
(2.79834 0.00395384 0)
(2.89478 0.0329509 -6.80725e-20)
(2.94024 0.0613796 -6.74429e-20)
(2.93402 0.0788478 -6.67719e-20)
(2.88837 0.0824788 -1.32642e-19)
(2.81412 0.074914 1.32034e-19)
(2.72174 0.0605344 0)
(2.62042 0.0425598 0)
(2.51885 0.0231332 0)
(2.4245 0.00461047 1.3011e-19)
(2.34465 -0.00923855 1.29402e-19)
(2.28459 -0.0140716 -1.28585e-19)
(2.24782 -0.00864341 0)
(2.23468 0.00114156 1.26624e-19)
(2.25101 0.000833264 1.25307e-19)
(2.31525 -0.022573 1.23695e-19)
(2.45583 -0.0654921 0)
(2.68181 -0.100724 0)
(2.951 -0.0960037 0)
(3.1769 -0.0585113 1.15041e-19)
(3.27471 -0.0342073 0)
(3.21202 -0.031214 0)
(2.92402 0.0265948 -1.09234e-19)
(2.28468 0.213701 0)
(1.22309 0.475081 0)
(-0.149568 0.654906 -6.70157e-20)
(-1.58823 0.69737 0)
(-2.94465 0.655575 0)
(-4.15073 0.571473 -2.72029e-20)
(-5.1733 0.472472 -4.71099e-20)
(-6.00806 0.373759 0)
(-6.6647 0.282339 7.44447e-20)
(-7.15761 0.200732 0)
(-7.50144 0.129675 -8.88971e-20)
(-7.70854 0.0699168 0)
(-7.79243 0.0214002 -9.30732e-20)
(-7.77145 -0.0177897 -9.11599e-20)
(-7.6705 -0.0505931 0)
(-7.49233 -0.0808545 0)
(-7.24084 -0.109642 0)
(-6.91824 -0.137368 0)
(-6.5259 -0.164267 0)
(-6.06469 -0.19045 0)
(-5.53526 -0.21588 0)
(-4.93866 -0.240309 7.98551e-22)
(-4.27734 -0.263235 -2.1965e-20)
(-3.55665 -0.283764 0)
(-2.78582 -0.300439 0)
(-1.977 -0.311704 0)
(-1.14305 -0.316718 0)
(-0.297425 -0.313044 -2.97763e-19)
(0.546596 -0.300698 0)
(1.37262 -0.283821 2.95884e-19)
(2.16354 -0.263788 -2.80421e-19)
(2.90589 -0.240666 0)
(3.58977 -0.214985 0)
(4.20703 -0.187401 0)
(4.75136 -0.158618 2.05185e-19)
(5.21841 -0.128949 1.87536e-19)
(5.60475 -0.0984623 0)
(5.90718 -0.0696642 1.5733e-19)
(6.13032 -0.041385 1.45379e-19)
(6.26822 0.00306896 -1.35978e-19)
(6.25849 0.0645499 0)
(6.10203 0.128504 0)
(5.81881 0.181356 -1.18633e-19)
(5.43292 0.215227 0)
(4.97563 0.226454 0)
(4.48338 0.214777 0)
(3.993 0.183864 0)
(3.53907 0.139688 1.15176e-19)
(3.14587 0.0919872 1.16099e-19)
(2.82931 0.0542657 0)
(2.6003 0.0204914 1.19495e-19)
(2.43358 -0.0103361 0)
(2.3228 -0.0260917 0)
(2.25548 -0.032022 1.27376e-19)
(2.21641 -0.0326587 0)
(2.19515 -0.0305514 1.31884e-19)
(2.18479 -0.0273671 0)
(2.18031 -0.0239787 0)
(2.17838 -0.020732 1.36441e-19)
(2.17703 -0.0177407 0)
(2.17515 -0.0150228 1.38272e-19)
(2.17207 -0.0125547 0)
(2.16734 -0.0102963 0)
(2.16067 -0.00819792 0)
(2.15177 -0.00619885 -1.40164e-19)
(2.1403 -0.00422546 0)
(2.12581 -0.00219147 1.4062e-19)
(2.10766 1.30497e-06 0)
(2.08497 0.00246128 0)
(2.05656 0.00530763 0)
(2.02078 0.00867533 0)
(1.97581 0.0127196 0)
(1.91814 0.0176249 0)
(1.84766 0.0235765 0)
(1.74747 0.0307284 -2.87408e-19)
(1.66042 0.0394574 0)
(1.38727 0.0461594 0)
(-0.0597789 -0.0324488 2.14614e-19)
(0.262544 -0.891246 -1.75939e-19)
(0.78773 -1.41557 0)
(1.34043 -1.4889 9.15674e-20)
(1.84138 -1.2878 0)
(2.25005 -0.97397 4.11288e-20)
(2.55642 -0.641403 -8.89595e-20)
(2.76563 -0.3348 -9.05863e-20)
(2.88676 -0.0742234 0)
(2.93298 0.128252 -9.34886e-20)
(2.91337 0.264473 -4.40346e-20)
(2.83783 0.335006 0)
(2.71753 0.356024 0)
(2.56208 0.353595 0)
(2.385 0.35251 0)
(2.19876 0.370965 -4.42747e-20)
(2.00018 0.411126 0)
(1.7814 0.454672 8.96295e-20)
(1.57268 0.459553 0)
(1.44048 0.298291 0)
(1.31397 -0.100951 -9.58246e-20)
(0.963072 -0.305972 0)
(0.265437 0.148793 1.06948e-19)
(-0.751381 0.806148 -4.62529e-20)
(-1.85586 1.36083 3.69077e-20)
(-2.9998 1.83533 -3.06141e-20)
(-4.13235 2.19436 -2.6277e-20)
(-5.20977 2.41578 0)
(-6.20033 2.50903 0)
(-7.08444 2.49115 2.13105e-20)
(-7.84836 2.38423 -2.99565e-20)
(-8.48738 2.21209 0)
(-9.00477 1.99731 0)
(-9.40978 1.75917 2.60639e-20)
(-9.7154 1.51275 0)
(-9.93632 1.26873 0)
(-10.0872 1.03396 -3.21588e-20)
(-10.1817 0.812287 0)
(-10.2316 0.605564 4.11234e-20)
(-10.2459 0.414551 -7.30978e-20)
(-10.2315 0.239962 0)
(-10.1943 0.0829826 0)
(-10.1343 -0.0558218 -1.56058e-19)
(-10.0415 -0.177742 -1.51876e-19)
(-9.90769 -0.285397 -1.46719e-19)
(-9.73397 -0.38106 7.28878e-20)
(-9.52188 -0.466169 -6.44175e-20)
(-9.27396 -0.541652 -1.86368e-19)
(-8.99326 -0.60826 1.17053e-19)
(-8.68287 -0.666688 5.1881e-20)
(-8.34577 -0.717638 0)
(-7.98473 -0.761807 -4.16626e-20)
(-7.60229 -0.799856 3.95361e-20)
(-7.20073 -0.832349 0)
(-6.78217 -0.859695 0)
(-6.34864 -0.882106 0)
(-5.90223 -0.899585 -1.09218e-20)
(-5.44523 -0.911963 0)
(-4.98019 -0.918965 -3.22351e-21)
(-4.51 -0.920321 0)
(-4.03781 -0.915869 -3.3159e-20)
(-3.56694 -0.905655 0)
(-3.10071 -0.889984 6.43942e-20)
(-2.6423 -0.869408 0)
(-2.19454 -0.844661 -9.65748e-20)
(-1.75982 -0.81654 5.53339e-20)
(-1.3399 -0.785769 0)
(-0.935907 -0.753058 1.46264e-19)
(-0.548463 -0.719265 8.27146e-20)
(-0.177668 -0.684951 8.91302e-20)
(0.177538 -0.650625 0)
(0.518518 -0.617121 8.49401e-20)
(0.845501 -0.584523 8.38092e-20)
(1.15957 -0.552515 0)
(1.46236 -0.520489 -7.81839e-20)
(1.75554 -0.487646 1.49841e-19)
(2.04064 -0.452768 0)
(2.31943 -0.414319 7.04153e-20)
(2.59335 -0.370034 0)
(2.86237 -0.318235 -1.96632e-19)
(3.12607 -0.258515 0)
(3.38457 -0.190272 1.84956e-19)
(3.63773 -0.115078 6.00724e-20)
(3.87741 -0.0385242 -5.77976e-20)
(4.08143 0.0338962 -1.12872e-19)
(4.2275 0.0962929 1.10527e-19)
(4.3021 0.143662 0)
(4.3019 0.174373 0)
(4.2293 0.188751 0)
(4.09445 0.186307 -3.21046e-19)
(3.9157 0.164541 -1.07786e-19)
(3.71973 0.121516 1.08874e-19)
(3.53923 0.0608953 0)
(3.40492 -0.00877023 1.10663e-19)
(3.33904 -0.0861974 -1.10664e-19)
(3.35647 -0.184451 -1.09077e-19)
(3.46742 -0.303792 0)
(3.66264 -0.39785 0)
(3.88784 -0.391698 0)
(4.03505 -0.253038 -1.06507e-19)
(3.93372 0.0100888 0)
(3.3028 0.428841 2.14371e-19)
(1.96907 1.01023 3.37146e-19)
(0.142997 1.58155 -1.86585e-19)
(-1.68504 1.87442 0)
(-3.26929 1.90469 -2.25904e-20)
(-4.5311 1.75573 0)
(-5.48132 1.5153 2.4762e-20)
(-6.16741 1.24997 -4.14605e-20)
(-6.64712 0.996555 -5.73374e-20)
(-6.97379 0.770178 0)
(-7.18974 0.57332 -2.23735e-19)
(-7.32538 0.402819 1.72105e-19)
(-7.40093 0.254143 8.89207e-20)
(-7.42948 0.124021 0)
(-7.41476 0.0101938 9.48808e-20)
(-7.3487 -0.0905645 2.833e-19)
(-7.21157 -0.181549 0)
(-7.00552 -0.26664 1.67886e-19)
(-6.73128 -0.347502 1.50435e-19)
(-6.39013 -0.425055 1.29041e-19)
(-5.98297 -0.499949 0)
(-5.5103 -0.572581 0)
(-4.97228 -0.642905 0)
(-4.36942 -0.710143 -4.89295e-21)
(-3.70361 -0.772722 2.14843e-20)
(-2.97956 -0.82838 0)
(-2.20586 -0.874158 1.30435e-19)
(-1.39466 -0.906614 1.81854e-19)
(-0.559049 -0.921972 0)
(0.287771 -0.915568 2.64184e-19)
(1.13116 -0.888549 5.19353e-19)
(1.95525 -0.847706 -2.58484e-19)
(2.74392 -0.795522 -2.41596e-19)
(3.48499 -0.733595 0)
(4.16894 -0.664014 0)
(4.78835 -0.588865 0)
(5.3377 -0.510079 -1.89595e-19)
(5.81309 -0.429313 1.71013e-19)
(6.2129 -0.347862 3.18167e-19)
(6.53835 -0.267396 -1.48265e-19)
(6.78524 -0.187027 1.34579e-19)
(6.96218 -0.0980774 1.28611e-19)
(7.12968 -0.00157982 0)
(7.28451 0.0980764 0)
(7.40277 0.19117 -1.0207e-19)
(7.46017 0.271138 0)
(7.44097 0.332365 0)
(7.34146 0.369207 1.84287e-19)
(7.17038 0.378271 0)
(6.94649 0.360506 8.91469e-20)
(6.69312 0.32138 -8.93465e-20)
(6.43348 0.267342 0)
(6.17947 0.208045 9.26167e-20)
(5.94916 0.155693 0)
(5.74837 0.113688 0)
(5.57708 0.0810561 -9.94718e-20)
(5.4318 0.0570379 2.04933e-19)
(5.30809 0.0404976 -1.04677e-19)
(5.20167 0.0296462 0)
(5.10868 0.0227481 0)
(5.02595 0.0184798 1.10813e-19)
(4.95106 0.0159177 0)
(4.88221 0.0144546 1.13512e-19)
(4.81808 0.0137153 0)
(4.75766 0.0134808 0)
(4.70016 0.0136349 0)
(4.64494 0.0141345 1.1703e-19)
(4.59141 0.0149927 0)
(4.539 0.0162707 -1.18207e-19)
(4.48712 0.0180745 0)
(4.43508 0.0205545 0)
(4.38205 0.0239128 2.38987e-19)
(4.32697 0.0284056 -2.3973e-19)
(4.26858 0.0343997 0)
(4.2045 0.0422394 0)
(4.13407 0.0528355 0)
(4.04623 0.0655168 7.2915e-19)
(3.96392 0.0855829 0)
(3.77162 0.0978434 -4.90226e-19)
(0.105641 -0.344188 6.14477e-21)
(0.725575 -2.09647 1.98118e-19)
(1.32377 -2.79842 0)
(1.81529 -2.70648 -1.63218e-19)
(2.20096 -2.26648 0)
(2.50185 -1.73075 0)
(2.73544 -1.20372 -9.85749e-21)
(2.90898 -0.723513 8.51847e-20)
(3.02294 -0.306713 9.74238e-20)
(3.07851 0.0361075 9.01172e-20)
(3.07279 0.302091 0)
(2.9999 0.49279 0)
(2.85831 0.623565 -9.4783e-20)
(2.64418 0.716817 -1.87639e-19)
(2.35489 0.796131 1.86836e-19)
(2.01066 0.885842 0)
(1.65611 0.982149 1.88804e-19)
(1.32835 0.985819 -9.41671e-20)
(0.990607 0.778193 0)
(0.46282 0.612631 2.10142e-19)
(-0.502964 1.04252 9.04354e-20)
(-1.71561 1.75064 -1.44555e-19)
(-2.96827 2.45509 -5.7043e-20)
(-4.18244 3.03629 0)
(-5.28495 3.45325 1.00055e-19)
(-6.24972 3.71892 9.72575e-20)
(-7.0537 3.83582 0)
(-7.69776 3.8109 9.95787e-20)
(-8.1976 3.66302 0)
(-8.57764 3.42056 1.0909e-19)
(-8.86636 3.11447 4.66076e-20)
(-9.09204 2.77368 0)
(-9.27895 2.42196 0)
(-9.44474 2.07646 0)
(-9.5995 1.74775 0)
(-9.74623 1.4409 0)
(-9.88243 1.15698 0)
(-10.002 0.894684 1.623e-19)
(-10.0972 0.651546 -2.42456e-19)
(-10.1604 0.424866 0)
(-10.185 0.212011 0)
(-10.1663 0.0108535 0)
(-10.1029 -0.179539 -1.01906e-20)
(-9.99613 -0.358332 1.50113e-19)
(-9.84836 -0.523674 2.98319e-19)
(-9.66212 -0.674394 -2.851e-19)
(-9.43992 -0.810211 -1.38846e-19)
(-9.18444 -0.93139 1.23357e-19)
(-8.89851 -1.03853 6.51772e-21)
(-8.58491 -1.13247 1.1135e-19)
(-8.24632 -1.21425 0)
(-7.88516 -1.285 9.01487e-20)
(-7.50356 -1.34585 5.40553e-21)
(-7.10336 -1.39774 0)
(-6.68617 -1.44136 0)
(-6.25355 -1.477 -4.21635e-20)
(-5.80719 -1.50454 0)
(-5.3491 -1.5235 0)
(-4.88181 -1.53319 6.2271e-21)
(-4.40839 -1.53291 -2.55208e-20)
(-3.9324 -1.5222 3.16548e-20)
(-3.45775 -1.50103 0)
(-2.98839 -1.46991 -6.12962e-20)
(-2.52804 -1.42988 0)
(-2.08002 -1.38242 -8.48655e-20)
(-1.64702 -1.32922 -1.07091e-19)
(-1.231 -1.27207 2.3882e-19)
(-0.83322 -1.21274 1.31947e-19)
(-0.453956 -1.15286 0)
(-0.0937768 -1.09342 -3.22169e-19)
(0.247293 -1.03525 0)
(0.570902 -0.979465 -4.76537e-19)
(0.87727 -0.926709 -3.08587e-19)
(1.16775 -0.877112 -3.00938e-19)
(1.44422 -0.830567 2.93182e-19)
(1.70882 -0.786636 -4.29939e-19)
(1.96405 -0.744469 0)
(2.2128 -0.702836 0)
(2.45837 -0.66036 2.62443e-19)
(2.70403 -0.615609 3.83782e-19)
(2.95288 -0.566541 0)
(3.20769 -0.51087 -1.21315e-19)
(3.4702 -0.44581 0)
(3.74086 -0.366593 3.40967e-19)
(4.01726 -0.269535 1.37286e-21)
(4.2926 -0.153739 -1.24388e-21)
(4.5484 -0.025418 -2.0739e-19)
(4.75652 0.101852 0)
(4.89518 0.213185 1.9522e-19)
(4.9543 0.295919 1.05043e-21)
(4.93508 0.339016 0)
(4.84952 0.334427 0)
(4.71617 0.281722 0)
(4.55584 0.186275 -1.96354e-19)
(4.39835 0.0489667 0)
(4.28212 -0.136607 0)
(4.23063 -0.352823 0)
(4.22414 -0.50199 0)
(4.17241 -0.431912 0)
(3.89064 -0.0324884 -2.16105e-19)
(3.09021 0.731982 0)
(1.60948 1.7289 -2.15507e-19)
(-0.252308 2.61586 -1.84516e-19)
(-1.91468 3.06558 1.38911e-19)
(-3.17774 3.10362 0)
(-4.06156 2.85558 5.94889e-20)
(-4.65977 2.4572 0)
(-5.08442 2.01936 -2.47424e-20)
(-5.42 1.60929 6.56312e-20)
(-5.71114 1.25418 3.46234e-19)
(-5.97127 0.956067 0)
(-6.19647 0.705821 5.08011e-19)
(-6.37653 0.491758 2.0309e-19)
(-6.50089 0.303287 0)
(-6.56187 0.132196 4.27577e-19)
(-6.55554 -0.0269878 4.27121e-19)
(-6.48109 -0.177826 -6.12654e-19)
(-6.33989 -0.321392 0)
(-6.13345 -0.457808 -1.7372e-19)
(-5.86287 -0.588066 -1.54956e-19)
(-5.52925 -0.713188 -4.11451e-19)
(-5.13331 -0.834124 0)
(-4.67518 -0.9516 0)
(-4.15438 -1.06572 0)
(-3.57038 -1.17533 -2.12369e-20)
(-2.92412 -1.27759 0)
(-2.21955 -1.36807 0)
(-1.46485 -1.44152 -1.28704e-19)
(-0.671217 -1.49258 -1.78403e-19)
(0.147826 -1.51394 0)
(0.977312 -1.5018 0)
(1.80155 -1.46085 -4.54329e-19)
(2.60396 -1.39569 0)
(3.36999 -1.31008 4.39609e-19)
(4.08782 -1.2078 4.12921e-19)
(4.74807 -1.09271 0)
(5.34342 -0.968445 0)
(5.86841 -0.838272 -3.43555e-19)
(6.3194 -0.705212 -5.84547e-21)
(6.6945 -0.572108 -5.37598e-21)
(6.99404 -0.440598 0)
(7.22079 -0.311831 -5.17542e-19)
(7.37682 -0.191345 0)
(7.46924 -0.0813293 0)
(7.51679 0.0234199 0)
(7.53944 0.12354 2.05843e-19)
(7.55349 0.217024 0)
(7.56422 0.299036 -3.67811e-19)
(7.56616 0.362304 -1.80344e-19)
(7.54853 0.400045 0)
(7.50108 0.408792 -1.71205e-19)
(7.41883 0.389931 0)
(7.30399 0.350455 0)
(7.16384 0.300231 -5.17311e-19)
(7.00848 0.24786 3.52921e-19)
(6.84815 0.199372 0)
(6.69154 0.15817 3.71543e-19)
(6.54416 0.125599 -1.89795e-19)
(6.40855 0.101266 0)
(6.28533 0.0837142 0)
(6.17385 0.0712723 0)
(6.07272 0.0625138 -6.18959e-19)
(5.98032 0.0563499 0)
(5.8951 0.0519962 -2.11806e-19)
(5.81569 0.0489166 0)
(5.74097 0.046764 0)
(5.67002 0.0453288 0)
(5.60216 0.0445063 0)
(5.53683 0.0442762 0)
(5.4736 0.044689 0)
(5.41209 0.0458576 -4.46022e-19)
(5.35195 0.0479542 0)
(5.29282 0.0512199 -2.24881e-19)
(5.23429 0.0559653 6.76486e-19)
(5.17596 0.062658 0)
(5.11701 0.0717266 0)
(5.05762 0.0844667 -4.5398e-19)
(4.99344 0.0999216 -4.55904e-19)
(4.93429 0.125816 4.54977e-19)
(4.83688 0.142727 4.57146e-19)
(0.372445 -1.61055 -3.57501e-19)
(1.04695 -3.63297 -2.69034e-19)
(1.50864 -3.89822 -1.75324e-19)
(1.78821 -3.41145 -1.00359e-19)
(1.98544 -2.75646 0)
(2.15947 -2.11572 2.02083e-19)
(2.31814 -1.51914 -1.17479e-19)
(2.44852 -0.965978 0)
(2.53262 -0.463087 -1.03428e-19)
(2.56531 -0.0159226 0)
(2.53209 0.367277 2.33963e-19)
(2.40418 0.694874 0)
(2.17393 0.989914 1.02857e-19)
(1.85768 1.26528 2.05375e-19)
(1.47733 1.49261 -2.06984e-19)
(1.04524 1.63228 0)
(0.556354 1.6729 -2.21331e-19)
(-0.0434619 1.72602 0)
(-0.922085 2.06062 0)
(-2.06162 2.68854 -1.25078e-19)
(-3.30325 3.43365 0)
(-4.47798 4.06387 -1.28619e-20)
(-5.50206 4.5104 0)
(-6.3504 4.77928 0)
(-7.02088 4.87931 1.66383e-20)
(-7.52908 4.83487 -8.46053e-20)
(-7.90056 4.67221 -1.07658e-19)
(-8.17009 4.41949 -9.40116e-20)
(-8.37454 4.10664 0)
(-8.54731 3.76135 -2.35667e-19)
(-8.71323 3.40489 0)
(-8.88612 3.05059 -1.43274e-19)
(-9.06937 2.7045 0)
(-9.25842 2.36767 0)
(-9.44416 2.03863 1.63986e-19)
(-9.61598 1.71555 0)
(-9.76401 1.39745 -1.75318e-19)
(-9.8803 1.08467 1.7619e-20)
(-9.95922 0.778762 3.50297e-19)
(-9.99728 0.482094 -3.72568e-19)
(-9.9929 0.197379 0)
(-9.9459 -0.0731081 0)
(-9.85812 -0.327956 -1.93109e-19)
(-9.73113 -0.565859 0)
(-9.56725 -0.785679 -1.54504e-19)
(-9.36926 -0.986532 1.47291e-19)
(-9.14017 -1.16802 1.39257e-19)
(-8.88298 -1.33028 0)
(-8.60051 -1.47399 -1.21029e-19)
(-8.29526 -1.60023 -1.10987e-19)
(-7.96926 -1.71045 2.16033e-19)
(-7.62402 -1.80628 -8.93855e-20)
(-7.26056 -1.88934 -7.79304e-20)
(-6.87947 -1.96107 0)
(-6.48105 -2.02244 0)
(-6.06555 -2.07375 4.13012e-20)
(-5.63354 -2.11458 0)
(-5.18621 -2.14384 0)
(-4.72571 -2.16004 -3.0497e-21)
(-4.25528 -2.16168 2.47473e-20)
(-3.77912 -2.14768 0)
(-3.30208 -2.11774 0)
(-2.82925 -2.07249 0)
(-2.36542 -2.01351 0)
(-1.91474 -1.94313 1.70561e-19)
(-1.48046 -1.86404 -1.92064e-19)
(-1.06487 -1.77909 -2.307e-19)
(-0.669358 -1.69096 -5.13896e-19)
(-0.294205 -1.60211 0)
(0.0605981 -1.5146 7.36947e-21)
(0.395208 -1.42923 0)
(0.710655 -1.34779 2.95477e-19)
(1.0073 -1.2711 5.59878e-21)
(1.28641 -1.19953 2.84776e-19)
(1.54951 -1.13325 -2.78937e-19)
(1.79839 -1.07214 4.52343e-21)
(2.03512 -1.01577 0)
(2.2622 -0.963368 -2.5667e-19)
(2.48255 -0.91385 -2.545e-19)
(2.69947 -0.865796 -4.93081e-19)
(2.91652 -0.817275 0)
(3.13744 -0.765833 2.32783e-19)
(3.36579 -0.708514 0)
(3.60474 -0.641595 -4.44353e-19)
(3.85674 -0.560737 2.17387e-19)
(4.12316 -0.460178 -2.11414e-19)
(4.40313 -0.333619 2.05792e-19)
(4.69054 -0.179287 3.95407e-19)
(4.96543 -0.00784883 -1.9299e-19)
(5.19615 0.157002 1.85454e-19)
(5.35645 0.289138 0)
(5.42962 0.367645 -3.51836e-19)
(5.41006 0.382929 0)
(5.30452 0.334711 -3.60727e-19)
(5.13485 0.218053 3.75255e-19)
(4.93067 0.02264 3.89763e-19)
(4.71116 -0.209866 -4.02597e-19)
(4.44188 -0.31137 -4.2332e-19)
(3.99356 -0.031401 0)
(3.14521 0.802944 -2.15248e-19)
(1.75955 2.06866 0)
(0.0358197 3.32715 0)
(-1.43132 4.02236 -2.25948e-19)