/*--------------------------------*- C++ -*----------------------------------*\
  =========                 |
  \\      /  F ield         | OpenFOAM: The Open Source CFD Toolbox
   \\    /   O peration     | Website:  https://openfoam.org
    \\  /    A nd           | Version:  9
     \\/     M anipulation  |
\*---------------------------------------------------------------------------*/
FoamFile
{
    format      ascii;
    class       volScalarField;
    location    "0.01";
    object      nut;
}
// * * * * * * * * * * * * * * * * * * * * * * * * * * * * * * * * * * * * * //

dimensions      [0 2 -1 0 0 0 0];

internalField   nonuniform List<scalar> 
12225
(
4.04307e-05
3.81999e-05
3.60805e-05
3.42205e-05
3.27389e-05
3.16815e-05
3.10437e-05
3.07888e-05
3.08625e-05
3.12041e-05
3.1754e-05
3.24576e-05
3.32683e-05
3.41475e-05
3.50652e-05
3.5998e-05
3.69401e-05
3.83645e-05
0.00028137
0.000208747
0.000175621
0.000156893
0.000145848
0.000139393
0.000135604
0.000133324
0.00013187
0.000130858
0.000130076
0.000129412
0.00012881
0.000128245
0.00012771
0.000127192
0.000126749
0.000126111
0.000557959
0.00042194
0.00035146
0.000306048
0.000273484
0.000248816
0.000229444
0.000213863
0.000201151
0.000190691
0.000182036
0.00017484
0.00016883
0.000163783
0.000159521
0.000155881
0.000152757
0.000149886
0.000741172
0.000627449
0.000546079
0.000487004
0.000441674
0.000405408
0.000375442
0.000350055
0.000328167
0.000309082
0.000292325
0.000277547
0.000264474
0.000252876
0.000242552
0.000233309
0.00022498
0.000217362
0.000817357
0.000759902
0.000701729
0.000650052
0.000605531
0.000567289
0.000534195
0.000505214
0.000479537
0.000456561
0.000435844
0.000417053
0.000399927
0.000384254
0.000369852
0.000356545
0.000344178
0.000332671
0.000842181
0.000819955
0.000790433
0.000758355
0.00072651
0.000696286
0.000668215
0.000642359
0.00061858
0.000596682
0.000576463
0.000557734
0.000540331
0.000524102
0.000508911
0.000494625
0.000481124
0.000468439
0.000849281
0.000841886
0.000829917
0.000814485
0.000796912
0.000778326
0.000759541
0.000741063
0.000723176
0.000706026
0.000689671
0.000674115
0.000659334
0.000645283
0.000631908
0.000619143
0.000606928
0.000595371
0.000851125
0.000848768
0.000844531
0.000838334
0.000830405
0.000821127
0.000810909
0.000800114
0.000789028
0.000777865
0.000766776
0.000755865
0.000745194
0.000734802
0.000724702
0.000714893
0.000705372
0.000696278
0.000851561
0.00085067
0.000849183
0.000846914
0.000843791
0.000839839
0.000835151
0.000829855
0.000824084
0.000817965
0.000811608
0.000805105
0.000798529
0.000791935
0.000785363
0.000778842
0.000772397
0.00076616
0.000851653
0.000851134
0.000850471
0.000849571
0.000848361
0.000846797
0.000844866
0.000842579
0.000839966
0.000837067
0.000833926
0.000830589
0.000827096
0.000823484
0.000819786
0.000816027
0.000812237
0.00080851
0.000851668
0.000851231
0.000850779
0.00085028
0.000849702
0.000849015
0.000848196
0.000847233
0.00084612
0.000844859
0.000843458
0.000841929
0.000840285
0.000838542
0.000836713
0.000834814
0.000832863
0.000830918
0.00085167
0.000851245
0.000850835
0.00085043
0.000850016
0.000849579
0.000849108
0.000848591
0.00084802
0.00084739
0.000846698
0.000845946
0.000845134
0.000844268
0.000843352
0.000842393
0.000841401
0.000840411
0.000851668
0.000851245
0.000850843
0.00085046
0.00085009
0.000849729
0.000849371
0.00084901
0.000848641
0.000848261
0.000847866
0.000847454
0.000847024
0.000846576
0.000846111
0.000845631
0.000845142
0.000844665
0.000851667
0.000851242
0.00085084
0.000850459
0.000850098
0.000849754
0.000849426
0.00084911
0.000848805
0.000848509
0.000848219
0.000847934
0.000847654
0.000847378
0.000847107
0.00084684
0.000846582
0.000846347
0.000851666
0.000851239
0.000850835
0.000850453
0.000850091
0.000849749
0.000849424
0.000849117
0.000848824
0.000848546
0.000848282
0.000848031
0.000847792
0.000847566
0.000847353
0.000847154
0.000846971
0.000846817
0.000851665
0.000851237
0.000850831
0.000850447
0.000850084
0.00084974
0.000849415
0.000849106
0.000848814
0.000848538
0.000848277
0.000848031
0.000847799
0.000847582
0.00084738
0.000847193
0.000847026
0.000846887
0.000851664
0.000851235
0.000850828
0.000850443
0.000850078
0.000849733
0.000849406
0.000849096
0.000848802
0.000848525
0.000848262
0.000848015
0.000847782
0.000847564
0.000847361
0.000847173
0.000847003
0.000846862
0.000851664
0.000851234
0.000850826
0.00085044
0.000850075
0.000849728
0.000849399
0.000849088
0.000848793
0.000848513
0.000848248
0.000847998
0.000847762
0.00084754
0.000847332
0.000847138
0.000846961
0.000846812
0.000851663
0.000851233
0.000850826
0.000850439
0.000850073
0.000849726
0.000849396
0.000849083
0.000848786
0.000848503
0.000848235
0.000847981
0.00084774
0.000847512
0.000847297
0.000847095
0.000846908
0.000846747
0.000851664
0.000851234
0.000850827
0.000850441
0.000850075
0.000849727
0.000849397
0.000849083
0.000848784
0.000848499
0.000848227
0.000847968
0.000847721
0.000847486
0.000847263
0.00084705
0.000846851
0.000846677
0.000851664
0.000851235
0.000850829
0.000850444
0.000850078
0.00084973
0.000849398
0.00084908
0.000848775
0.000848483
0.0008482
0.000847928
0.000847664
0.000847407
0.000847159
0.000846918
0.000846685
0.000846473
0.000851665
0.000851237
0.00085083
0.000850442
0.000850068
0.000849704
0.000849347
0.000848991
0.000848635
0.000848275
0.000847908
0.000847534
0.00084715
0.000846757
0.000846354
0.000845941
0.000845521
0.000845107
0.000851664
0.000851228
0.000850795
0.000850347
0.000849868
0.00084934
0.000848751
0.000848093
0.00084736
0.00084655
0.000845665
0.000844708
0.000843685
0.000842601
0.000841463
0.000840277
0.000839054
0.000837816
0.000851634
0.000851074
0.000850344
0.000849364
0.000848079
0.000846463
0.000844517
0.000842264
0.000839735
0.00083697
0.00083401
0.000830893
0.000827656
0.00082433
0.000820943
0.00081752
0.000814082
0.000810677
0.000851289
0.000849604
0.00084674
0.000842608
0.000837303
0.000831024
0.000824012
0.000816495
0.000808664
0.000800674
0.000792643
0.00078466
0.000776785
0.000769063
0.000761521
0.000754177
0.000747045
0.00074018
0.000848337
0.000839496
0.000826305
0.00081023
0.000792624
0.000774522
0.000756617
0.000739311
0.000722798
0.000707158
0.000692399
0.000678494
0.000665394
0.000653045
0.000641388
0.000630369
0.000619939
0.000610113
0.000828688
0.000789234
0.000746639
0.000706417
0.000670211
0.00063822
0.000610089
0.00058527
0.000563227
0.000543507
0.000525742
0.000509632
0.000494936
0.00048146
0.000469045
0.000457562
0.000446903
0.000437027
0.000731416
0.000628302
0.000555356
0.000501744
0.000460859
0.000428747
0.000402892
0.00038158
0.000363665
0.000348369
0.000335147
0.000323599
0.000313429
0.000304406
0.000296351
0.000289121
0.000282597
0.000276698
0.000439506
0.000337792
0.000287025
0.000255989
0.000235571
0.000221835
0.000212424
0.000205836
0.000201109
0.000197629
0.000194998
0.000192953
0.000191318
0.000189973
0.000188838
0.000187857
0.000186992
0.000186197
7.16031e-05
6.89508e-05
6.63887e-05
6.39634e-05
6.17643e-05
5.98424e-05
5.82168e-05
5.68845e-05
5.58288e-05
5.50255e-05
5.44474e-05
5.40667e-05
5.38567e-05
5.37929e-05
5.38528e-05
5.40166e-05
5.42671e-05
5.45881e-05
2.78905e-05
0.000185093
0.000206759
0.00021022
4.83254e-05
5.04673e-05
5.2837e-05
5.53005e-05
5.79397e-05
6.08112e-05
6.39318e-05
6.72913e-05
7.0864e-05
7.4615e-05
7.8504e-05
8.24876e-05
8.65215e-05
9.05624e-05
9.45702e-05
9.85089e-05
0.000102348
0.000106064
0.000109637
0.000113055
0.000116308
0.000119393
0.000122307
0.000125052
0.000127631
0.000130048
0.000132309
0.00013442
0.000136389
0.000138222
0.000139928
0.000141517
0.000143001
0.000144498
0.000145963
0.000147243
0.000148336
0.000149237
0.000149936
0.000150422
0.000150681
0.000150702
0.000150473
0.000149984
0.000149226
0.000148194
0.000146886
0.000145301
0.000143445
0.000141325
0.000138951
0.000136337
0.000133497
0.000130445
0.000127194
0.000123753
0.000120114
0.000116319
0.000112375
0.000109149
0.000106551
0.000104039
0.000101553
9.90874e-05
9.66518e-05
9.42573e-05
9.19163e-05
8.96406e-05
8.74416e-05
8.53299e-05
8.33154e-05
8.14069e-05
7.96126e-05
7.79391e-05
7.63921e-05
7.49758e-05
7.36929e-05
7.25442e-05
7.1529e-05
7.06446e-05
6.98869e-05
6.92498e-05
6.87261e-05
6.83072e-05
6.79839e-05
6.77462e-05
6.75842e-05
6.74879e-05
6.74473e-05
6.74535e-05
6.74976e-05
6.75719e-05
6.76693e-05
6.77835e-05
6.79092e-05
6.80417e-05
6.8177e-05
6.83121e-05
6.84441e-05
6.85711e-05
6.86915e-05
6.88039e-05
6.89077e-05
6.90021e-05
6.9087e-05
6.91616e-05
6.92241e-05
6.92748e-05
6.9314e-05
6.93421e-05
6.93593e-05
6.9366e-05
6.93625e-05
6.93494e-05
6.93273e-05
6.92969e-05
6.92589e-05
6.92141e-05
6.91632e-05
6.91071e-05
6.90463e-05
6.89814e-05
6.8913e-05
6.88415e-05
6.87672e-05
6.86905e-05
6.86116e-05
6.85306e-05
6.84478e-05
6.83633e-05
6.82772e-05
6.81896e-05
6.81006e-05
6.80103e-05
6.79187e-05
6.7826e-05
6.7732e-05
6.76369e-05
6.75407e-05
6.74435e-05
6.73452e-05
6.72459e-05
6.71456e-05
6.70443e-05
6.69421e-05
6.68389e-05
6.67347e-05
6.66295e-05
6.65234e-05
6.64163e-05
6.63081e-05
6.6199e-05
6.60887e-05
6.59774e-05
6.58648e-05
6.57509e-05
6.56356e-05
6.55188e-05
6.54001e-05
6.52795e-05
6.51565e-05
6.50308e-05
6.49018e-05
6.47687e-05
6.46307e-05
6.44865e-05
6.43342e-05
6.41716e-05
6.39952e-05
6.38e-05
6.35787e-05
6.33194e-05
6.30042e-05
6.25938e-05
6.20579e-05
6.11372e-05
5.55346e-05
0.000170583
0.000226958
0.000251356
0.00026298
0.000272241
0.000278637
0.000283617
0.00028826
0.000293166
0.000298587
0.000304585
0.000311149
0.000318265
0.000325959
0.0003343
0.000343403
0.000353416
0.000364512
0.000376878
0.000390709
0.000406192
0.000423508
0.00044282
0.00046427
0.000487967
0.000513986
0.000542347
0.000573014
0.000605869
0.000640705
0.000677198
0.00071489
0.000753166
0.000791243
0.000828167
0.000862856
0.0008938
0.000922914
0.000951507
0.000979483
0.00100659
0.00103254
0.00105705
0.00107981
0.00110055
0.00111898
0.00113486
0.00114795
0.00115805
0.00116502
0.00116874
0.00116914
0.0011662
0.00115993
0.00115036
0.00113753
0.00112151
0.00110231
0.00107994
0.00105432
0.00102547
0.00099353
0.00096041
0.000927147
0.000893508
0.000859552
0.000825429
0.000791303
0.000757331
0.000723661
0.000690421
0.000657728
0.000625681
0.000594371
0.000563877
0.000534267
0.000505607
0.000477955
0.000451364
0.000425886
0.000401564
0.000378441
0.000356548
0.000335911
0.000316544
0.00029845
0.000281622
0.000266038
0.000251667
0.000238466
0.000226383
0.00021536
0.000205333
0.000196235
0.000187998
0.000180554
0.000173836
0.000167779
0.000162324
0.000157412
0.00015299
0.00014901
0.000145425
0.000142197
0.000139286
0.00013666
0.000134289
0.000132145
0.00013018
0.00012834
0.000126619
0.000125012
0.000123528
0.000122169
0.000120928
0.000119797
0.000118772
0.000117846
0.000117011
0.000116259
0.000115582
0.000114971
0.000114416
0.000113911
0.000113449
0.000113022
0.000112625
0.000112254
0.000111905
0.000111574
0.000111259
0.000110958
0.000110668
0.000110388
0.000110116
0.000109851
0.000109593
0.000109339
0.00010909
0.000108845
0.000108603
0.000108364
0.000108126
0.000107891
0.000107657
0.000107424
0.000107191
0.000106959
0.000106727
0.000106495
0.000106263
0.000106029
0.000105795
0.000105559
0.000105322
0.000105083
0.000104842
0.000104597
0.00010435
0.000104098
0.000103842
0.00010358
0.000103312
0.000103034
0.000102747
0.000102445
0.000102127
0.000101787
0.000101419
0.000101012
0.000100555
0.000100027
9.93983e-05
9.86233e-05
9.76329e-05
9.62952e-05
9.453e-05
9.17475e-05
8.96766e-05
9.82534e-05
0.000262834
0.0003545
0.000401102
0.000426832
0.000443033
0.000454594
0.000464251
0.000473715
0.000484002
0.000495651
0.000508919
0.00052394
0.000540815
0.000559656
0.000580594
0.000603771
0.000629317
0.000657336
0.000687887
0.00072097
0.000756522
0.000794413
0.000834452
0.000876392
0.000919941
0.000964772
0.00101054
0.00105687
0.00110341
0.00114979
0.00119567
0.00124071
0.00128462
0.0013271
0.00136793
0.00140691
0.0014438
0.00148015
0.00151614
0.00155158
0.00158618
0.00161961
0.00165152
0.00168153
0.00170926
0.00173432
0.00175632
0.00177489
0.00178971
0.00180046
0.00180688
0.00180878
0.00180603
0.00179855
0.00178633
0.00176944
0.00174799
0.00172213
0.00169206
0.001658
0.00162022
0.00157905
0.00153611
0.00149209
0.00144711
0.00140139
0.00135519
0.0013088
0.00126247
0.00121646
0.00117098
0.00112622
0.00108231
0.0010394
0.00099758
0.000956913
0.00091745
0.000879223
0.000842249
0.000806537
0.000772089
0.00073891
0.000707001
0.000676369
0.000647023
0.000618974
0.000592237
0.000566822
0.00054274
0.000519996
0.000498586
0.000478502
0.000459724
0.000442222
0.000425961
0.000410895
0.000396971
0.000384133
0.000372319
0.000361468
0.000351514
0.000342393
0.000334044
0.000326406
0.000319421
0.000313035
0.000307196
0.000301855
0.000296964
0.000292471
0.000288332
0.000284506
0.000280916
0.000277507
0.000274293
0.000271291
0.000268489
0.000265876
0.000263441
0.000261174
0.000259063
0.000257099
0.000255271
0.000253567
0.000251978
0.000250492
0.000249101
0.000247796
0.000246569
0.000245413
0.000244321
0.000243287
0.000242307
0.000241375
0.000240487
0.000239639
0.000238828
0.00023805
0.000237302
0.00023658
0.000235884
0.000235209
0.000234554
0.000233917
0.000233296
0.000232689
0.000232094
0.000231509
0.000230934
0.000230367
0.000229806
0.00022925
0.000228697
0.000228148
0.000227599
0.000227049
0.000226497
0.000225942
0.00022538
0.000224809
0.000224227
0.000223631
0.000223015
0.000222374
0.000221702
0.000220989
0.000220225
0.000219393
0.000218471
0.000217431
0.00021623
0.000214807
0.00021307
0.000210871
0.000207982
0.000203959
0.000198201
0.000188833
0.000175379
0.000127326
0.000331374
0.000454252
0.000522283
0.000561901
0.000587583
0.000606893
0.000623938
0.000641055
0.000659556
0.000680112
0.000703012
0.000728348
0.000756123
0.000786302
0.00081882
0.000853579
0.000890431
0.000929168
0.000969522
0.00101116
0.00105372
0.00109681
0.00114002
0.001183
0.00122543
0.00126705
0.0013077
0.00134727
0.00138576
0.0014232
0.00145968
0.00149531
0.0015302
0.00156442
0.00159797
0.0016308
0.00166304
0.00169562
0.00172862
0.00176189
0.00179519
0.00182824
0.00186072
0.00189225
0.00192244
0.00195086
0.00197706
0.00200057
0.00202093
0.00203765
0.00205031
0.00205851
0.00206191
0.00206027
0.00205341
0.00204126
0.00202381
0.00200115
0.00197345
0.00194094
0.00190386
0.00186274
0.00181913
0.00177354
0.00172626
0.00167764
0.00162806
0.00157792
0.00152757
0.00147739
0.00142768
0.00137874
0.00133081
0.00128411
0.00123878
0.00119495
0.00115269
0.00111205
0.00107303
0.00103562
0.000999762
0.000965416
0.000932513
0.00090099
0.000870784
0.00084184
0.00081411
0.000787558
0.00076216
0.000737899
0.000714767
0.000692759
0.000671873
0.000652107
0.000633455
0.000615907
0.000599444
0.000584045
0.000569678
0.000556309
0.000543896
0.000532394
0.000521754
0.000511927
0.00050286
0.000494503
0.000486806
0.00047972
0.000473197
0.00046719
0.000461656
0.000456551
0.000451829
0.000447445
0.000443334
0.000439433
0.000435776
0.000432345
0.000429125
0.000426099
0.000423253
0.000420576
0.000418054
0.000415678
0.000413435
0.000411318
0.000409316
0.000407422
0.000405627
0.000403926
0.000402311
0.000400776
0.000399315
0.000397925
0.000396598
0.000395331
0.000394119
0.000392958
0.000391843
0.000390772
0.00038974
0.000388743
0.000387779
0.000386844
0.000385935
0.00038505
0.000384186
0.00038334
0.000382511
0.000381696
0.000380893
0.0003801
0.000379315
0.000378536
0.000377761
0.000376988
0.000376214
0.000375437
0.000374655
0.000373864
0.00037306
0.000372239
0.000371395
0.000370522
0.000369612
0.000368654
0.000367633
0.000366531
0.000365323
0.000363974
0.000362434
0.000360633
0.000358467
0.000355769
0.000352281
0.000347527
0.000340753
0.000330089
0.000313651
0.000147187
0.000378102
0.00052711
0.000615197
0.000669332
0.000705768
0.000733825
0.000758797
0.000783644
0.000809937
0.000838389
0.000869211
0.000902335
0.000937552
0.000974588
0.00101312
0.0010528
0.00109323
0.00113399
0.00117465
0.00121475
0.00125388
0.00129168
0.00132786
0.00136222
0.00139468
0.00142526
0.00145409
0.00148138
0.00150742
0.00153251
0.00155697
0.00158107
0.00160505
0.00162906
0.00165316
0.00167733
0.00170182
0.00172748
0.00175447
0.00178273
0.00181212
0.00184245
0.00187349
0.00190494
0.00193645
0.00196762
0.00199799
0.00202702
0.00205414
0.00207873
0.00210015
0.00211779
0.00213106
0.00213945
0.00214255
0.00214003
0.00213171
0.00211751
0.00209745
0.00207164
0.00204028
0.00200427
0.00196472
0.00192207
0.00187674
0.00182914
0.00177974
0.00172902
0.00167746
0.00162552
0.00157365
0.00152226
0.00147173
0.00142238
0.0013745
0.00132831
0.00128398
0.00124162
0.00120129
0.00116301
0.00112675
0.00109244
0.00105998
0.00102926
0.00100015
0.000972543
0.0009463
0.000921312
0.000897484
0.000874734
0.000853001
0.000832239
0.00081242
0.000793524
0.000775543
0.000758472
0.000742308
0.000727047
0.000712679
0.000699193
0.00068657
0.000674786
0.000663812
0.000653613
0.000644153
0.000635393
0.00062729
0.000619804
0.000612892
0.000606513
0.000600626
0.000595193
0.000590176
0.000585535
0.00058123
0.000577211
0.000573413
0.000569853
0.000566511
0.000563366
0.000560404
0.000557607
0.000554963
0.00055246
0.000550086
0.000547834
0.000545693
0.000543656
0.000541717
0.00053987
0.000538108
0.000536427
0.000534823
0.000533289
0.000531822
0.000530419
0.000529073
0.000527783
0.000526543
0.00052535
0.0005242
0.00052309
0.000522016
0.000520975
0.000519964
0.000518979
0.000518019
0.00051708
0.000516159
0.000515256
0.000514366
0.000513488
0.00051262
0.00051176
0.000510905
0.000510053
0.000509201
0.000508348
0.00050749
0.000506624
0.000505745
0.000504851
0.000503935
0.000502991
0.000502011
0.000500984
0.000499897
0.000498732
0.000497465
0.000496063
0.000494482
0.000492657
0.000490493
0.000487846
0.000484493
0.000480051
0.000473893
0.000464709
0.00045104
0.000159864
0.000407084
0.000576765
0.000682401
0.000750208
0.000797174
0.000833655
0.000865813
0.000897155
0.000929504
0.000963621
0.000999633
0.00103732
0.00107627
0.00111602
0.00115605
0.00119585
0.0012349
0.0012727
0.00130878
0.00134273
0.00137423
0.00140303
0.00142903
0.00145223
0.00147277
0.00149088
0.00150691
0.00152125
0.00153436
0.00154667
0.00155862
0.00157058
0.00158285
0.00159565
0.00160914
0.00162336
0.00163866
0.00165596
0.00167549
0.00169732
0.0017214
0.00174766
0.00177599
0.00180622
0.00183813
0.00187139
0.00190559
0.00194022
0.00197462
0.00200807
0.00203975
0.0020688
0.00209435
0.0021156
0.00213181
0.00214239
0.00214687
0.00214495
0.00213641
0.00212122
0.00209963
0.00207265
0.00204092
0.00200486
0.00196487
0.00192142
0.00187501
0.00182617
0.00177547
0.00172345
0.00167069
0.00161771
0.00156503
0.00151313
0.00146242
0.00141329
0.00136604
0.00132091
0.00127809
0.00123769
0.00119974
0.00116422
0.00113108
0.0011002
0.00107143
0.00104459
0.00101952
0.000996024
0.000973929
0.000953075
0.000933322
0.000914556
0.000896687
0.00087965
0.000863401
0.000847913
0.000833172
0.000819173
0.000805915
0.000793394
0.000781607
0.000770546
0.000760198
0.000750544
0.00074156
0.00073322
0.000725491
0.00071834
0.000711734
0.000705635
0.00070001
0.000694821
0.000690036
0.00068562
0.000681541
0.000677761
0.000674232
0.000670919
0.000667817
0.000664905
0.000662166
0.000659582
0.000657141
0.000654829
0.000652635
0.000650549
0.000648564
0.000646672
0.000644866
0.000643141
0.000641492
0.000639915
0.000638405
0.000636959
0.000635573
0.000634244
0.000632967
0.000631741
0.000630561
0.000629424
0.000628327
0.000627268
0.000626242
0.000625247
0.00062428
0.000623338
0.000622419
0.00062152
0.000620639
0.000619774
0.000618922
0.000618082
0.000617251
0.000616427
0.000615608
0.000614792
0.000613977
0.000613161
0.000612341
0.000611513
0.000610675
0.000609822
0.00060895
0.000608054
0.000607125
0.000606155
0.000605132
0.00060404
0.00060286
0.000601564
0.000600113
0.000598455
0.000596513
0.000594173
0.000591263
0.000587503
0.000582447
0.000575268
0.000565157
0.000167182
0.000422634
0.000607727
0.000727761
0.000807347
0.000863591
0.000907407
0.000945546
0.000981951
0.00101868
0.00105655
0.00109563
0.0011356
0.0011759
0.0012159
0.00125498
0.00129252
0.00132795
0.00136075
0.00139049
0.00141683
0.00143952
0.00145847
0.00147368
0.00148533
0.00149368
0.00149914
0.00150217
0.00150332
0.00150316
0.00150227
0.00150118
0.0015004
0.00150036
0.00150139
0.00150376
0.00150763
0.00151345
0.00152206
0.0015337
0.00154846
0.00156637
0.00158748
0.00161183
0.00163945
0.0016703
0.00170427
0.00174109
0.00178035
0.00182144
0.00186357
0.00190577
0.00194697
0.00198602
0.00202178
0.00205317
0.00207925
0.00209919
0.00211249
0.0021186
0.00211715
0.00210889
0.00209438
0.00207393
0.00204787
0.00201654
0.0019804
0.00193995
0.00189573
0.00184834
0.00179841
0.00174656
0.00169343
0.00163966
0.00158585
0.00153257
0.00148035
0.00142967
0.00138093
0.00133447
0.00129054
0.00124932
0.00121091
0.00117532
0.00114251
0.00111237
0.00108474
0.00105941
0.00103617
0.00101477
0.000994982
0.00097659
0.000959394
0.000943224
0.000927943
0.000913448
0.000899664
0.000886542
0.000874056
0.00086219
0.000850943
0.000840313
0.0008303
0.000820901
0.00081211
0.000803914
0.000796297
0.000789236
0.000782707
0.000776681
0.000771128
0.000766017
0.000761317
0.000756996
0.000753023
0.000749369
0.000746004
0.000742892
0.000739991
0.000737286
0.000734758
0.00073239
0.000730166
0.000728072
0.000726095
0.000724224
0.000722449
0.000720761
0.000719154
0.000717622
0.000716158
0.000714758
0.000713418
0.000712134
0.000710903
0.000709722
0.000708588
0.000707499
0.00070645
0.00070544
0.000704467
0.000703526
0.000702617
0.000701736
0.00070088
0.000700049
0.000699238
0.000698446
0.000697672
0.000696912
0.000696166
0.00069543
0.000694704
0.000693986
0.000693273
0.000692565
0.000691859
0.000691154
0.000690447
0.000689736
0.000689019
0.000688293
0.000687555
0.000686801
0.000686026
0.000685224
0.000684388
0.000683508
0.000682572
0.000681564
0.000680461
0.000679235
0.000677844
0.000676231
0.000674311
0.000671963
0.000668995
0.000665115
0.000659829
0.000652754
0.000170583
0.000428247
0.000623968
0.000755137
0.000844214
0.000908079
0.000957929
0.00100089
0.00104122
0.00108116
0.00112157
0.00116249
0.0012035
0.00124393
0.00128306
0.00132016
0.00135455
0.00138565
0.00141294
0.00143601
0.00145455
0.00146841
0.00147755
0.00148209
0.00148227
0.00147849
0.00147126
0.00146121
0.00144903
0.00143547
0.00142129
0.00140722
0.00139395
0.00138206
0.00137207
0.00136434
0.00135916
0.00135696
0.00135813
0.00136268
0.00137059
0.00138191
0.0013968
0.00141553
0.0014384
0.00146573
0.00149774
0.0015345
0.00157584
0.00162132
0.0016702
0.00172147
0.00177387
0.00182598
0.00187635
0.00192347
0.00196608
0.00200283
0.00203318
0.00205541
0.00207038
0.00207822
0.00207898
0.00207273
0.00205965
0.00204001
0.00201419
0.00198264
0.00194589
0.00190455
0.00185925
0.00181066
0.0017595
0.00170647
0.00165228
0.0015976
0.00154312
0.00148944
0.00143714
0.00138671
0.00133859
0.00129311
0.00125055
0.00121105
0.0011747
0.00114148
0.0011113
0.001084
0.00105938
0.00103717
0.0010171
0.000998889
0.000982266
0.000966976
0.000952799
0.000939552
0.000927091
0.000915311
0.000904141
0.000893537
0.000883476
0.00087395
0.000864956
0.000856495
0.000848568
0.000841169
0.00083429
0.000827918
0.000822034
0.000816616
0.000811639
0.000807076
0.000802897
0.000799076
0.000795582
0.000792388
0.000789467
0.000786789
0.000784319
0.000782033
0.000779913
0.000777941
0.000776103
0.000774384
0.000772772
0.000771255
0.000769824
0.00076847
0.000767186
0.000765966
0.000764803
0.000763695
0.000762635
0.000761622
0.000760651
0.00075972
0.000758827
0.000757968
0.000757142
0.000756346
0.000755578
0.000754836
0.000754118
0.000753421
0.000752745
0.000752088
0.000751446
0.000750819
0.000750205
0.000749603
0.00074901
0.000748426
0.000747849
0.000747277
0.00074671
0.000746146
0.000745583
0.00074502
0.000744456
0.000743888
0.000743315
0.000742735
0.000742145
0.000741541
0.000740921
0.00074028
0.000739613
0.000738911
0.000738165
0.000737364
0.000736492
0.000735526
0.000734437
0.000733185
0.000731712
0.000729938
0.000727742
0.000724943
0.000721264
0.000716553
0.000171106
0.000426465
0.000628598
0.00076787
0.000864229
0.000934113
0.000988823
0.00103571
0.0010792
0.00112165
0.00116395
0.00120609
0.00124759
0.00128768
0.00132557
0.00136046
0.00139165
0.0014185
0.0014405
0.00145724
0.00146843
0.00147395
0.00147379
0.00146813
0.00145729
0.00144179
0.0014223
0.00139965
0.00137478
0.00134872
0.00132252
0.00129719
0.00127364
0.00125263
0.00123477
0.00122045
0.00120992
0.00120333
0.00120001
0.00119948
0.00120149
0.00120603
0.00121341
0.0012242
0.00123915
0.0012591
0.00128485
0.001317
0.00135586
0.00140133
0.00145291
0.00150963
0.00157019
0.00163285
0.00169593
0.00175742
0.00181588
0.00186883
0.00191531
0.00195521
0.00198811
0.00201362
0.00203142
0.00204137
0.00204346
0.00203782
0.00202472
0.00200455
0.00197779
0.00194501
0.00190684
0.00186398
0.00181714
0.00176708
0.00171457
0.00166036
0.00160521
0.00154985
0.00149498
0.00144124
0.00138921
0.00133943
0.0012923
0.00124818
0.00120729
0.00116977
0.00113566
0.00110491
0.00107737
0.00105282
0.00103101
0.00101162
0.000994345
0.000978855
0.000964857
0.000952082
0.000940306
0.00092935
0.000919079
0.0009094
0.000900253
0.000891606
0.000883443
0.00087576
0.000868555
0.000861827
0.000855573
0.000849786
0.000844452
0.000839554
0.000835071
0.000830979
0.000827254
0.000823867
0.000820792
0.000818002
0.000815472
0.000813174
0.000811079
0.00080916
0.0008074
0.00080578
0.000804285
0.000802902
0.000801617
0.000800421
0.000799303
0.000798254
0.000797267
0.000796336
0.000795455
0.00079462
0.000793825
0.000793068
0.000792345
0.000791654
0.000790992
0.000790357
0.000789747
0.00078916
0.000788593
0.000788047
0.000787517
0.000787005
0.000786506
0.000786021
0.000785548
0.000785086
0.000784633
0.000784187
0.000783749
0.000783317
0.00078289
0.000782466
0.000782045
0.000781626
0.000781208
0.000780789
0.000780369
0.000779946
0.000779519
0.000779086
0.000778645
0.000778195
0.000777731
0.000777252
0.000776754
0.00077623
0.000775674
0.000775078
0.000774431
0.000773718
0.000772918
0.000772007
0.000770948
0.000769692
0.00076817
0.00076628
0.000763876
0.000760922
0.000169483
0.000419128
0.000624047
0.000768797
0.000870565
0.000945146
0.0010038
0.00105396
0.00110013
0.0011447
0.00118856
0.00123168
0.00127349
0.0013132
0.00134993
0.00138287
0.00141124
0.0014344
0.0014518
0.00146302
0.00146778
0.00146591
0.00145745
0.0014426
0.00142181
0.00139574
0.0013653
0.00133165
0.00129613
0.00126018
0.00122527
0.00119274
0.00116371
0.00113899
0.00111905
0.00110406
0.00109386
0.00108773
0.00108364
0.00108052
0.00107781
0.00107546
0.0010739
0.00107409
0.00107734
0.0010852
0.00109922
0.00112081
0.001151
0.00119029
0.00123856
0.00129509
0.00135872
0.0014273
0.00149919
0.00157164
0.00164158
0.00170842
0.00177096
0.00182805
0.00187869
0.00192202
0.00195738
0.00198435
0.00200268
0.00201234
0.00201345
0.00200629
0.0019913
0.00196898
0.00193994
0.00190487
0.00186448
0.00181954
0.00177083
0.00171915
0.0016653
0.00161008
0.00155425
0.00149858
0.00144376
0.00139045
0.00133923
0.00129061
0.001245
0.0012027
0.00116392
0.00112874
0.00109715
0.00106904
0.00104419
0.00102235
0.00100318
0.000986356
0.000971511
0.000958311
0.000946454
0.000935678
0.000925774
0.000916582
0.00090799
0.000899924
0.000892341
0.000885218
0.000878546
0.000872321
0.000866539
0.000861194
0.000856278
0.000851777
0.000847672
0.000843944
0.000840567
0.000837517
0.000834769
0.000832295
0.00083007
0.00082807
0.000826269
0.000824639
0.000823163
0.000821821
0.000820601
0.000819486
0.000818465
0.000817526
0.00081666
0.000815859
0.000815113
0.000814418
0.000813767
0.000813155
0.000812578
0.000812033
0.000811516
0.000811025
0.000810556
0.000810108
0.00080968
0.000809268
0.000808873
0.000808491
0.000808122
0.000807765
0.000807418
0.000807081
0.000806752
0.00080643
0.000806115
0.000805805
0.0008055
0.000805198
0.0008049
0.000804605
0.000804311
0.000804017
0.000803725
0.000803431
0.000803136
0.000802839
0.000802539
0.000802235
0.000801925
0.000801607
0.000801281
0.000800944
0.000800593
0.000800224
0.000799833
0.000799415
0.000798963
0.000798467
0.000797915
0.000797292
0.000796578
0.000795747
0.000794764
0.00079358
0.000792129
0.000790424
0.000166247
0.000407647
0.000612295
0.000760364
0.000866093
0.000944397
0.00100634
0.00105933
0.00110786
0.00115433
0.0011996
0.00124362
0.0012858
0.00132532
0.00136127
0.00139279
0.00141908
0.00143947
0.00145337
0.00146032
0.00146
0.00145225
0.00143709
0.00141477
0.00138586
0.00135125
0.0013122
0.00127031
0.00122745
0.00118565
0.00114684
0.00111267
0.00108433
0.00106242
0.00104694
0.00103737
0.00103279
0.00103092
0.00102895
0.00102535
0.00101928
0.00101052
0.000999538
0.00098755
0.000976421
0.000968403
0.000965933
0.000971367
0.000986694
0.0010133
0.00105162
0.00110125
0.0011618
0.0012304
0.00130392
0.00138098
0.00145958
0.00153782
0.00161384
0.00168595
0.0017526
0.0018125
0.00186461
0.00190813
0.00194257
0.00196766
0.00198336
0.00198985
0.00198744
0.00197662
0.00195793
0.00193204
0.00189965
0.00186151
0.00181839
0.0017711
0.00172045
0.00166724
0.0016123
0.00155642
0.00150037
0.00144491
0.00139073
0.00133847
0.00128869
0.00124186
0.00119835
0.00115842
0.00112221
0.00108975
0.00106095
0.00103563
0.00101353
0.000994317
0.00097763
0.000963092
0.000950341
0.000939042
0.00092891
0.00091971
0.000911263
0.000903441
0.000896158
0.000889362
0.000883022
0.000877124
0.000871657
0.000866614
0.000861986
0.000857761
0.000853922
0.00085045
0.000847322
0.000844514
0.000842001
0.000839756
0.000837756
0.000835974
0.000834386
0.000832968
0.0008317
0.000830565
0.000829546
0.00082863
0.000827803
0.000827056
0.000826377
0.000825758
0.000825192
0.000824672
0.000824191
0.000823746
0.000823331
0.000822944
0.00082258
0.000822238
0.000821914
0.000821606
0.000821314
0.000821035
0.000820767
0.00082051
0.000820262
0.000820023
0.000819791
0.000819566
0.000819346
0.000819131
0.00081892
0.000818714
0.00081851
0.000818309
0.000818109
0.000817912
0.000817715
0.000817519
0.000817323
0.000817126
0.000816928
0.000816729
0.000816527
0.000816323
0.000816115
0.000815901
0.000815682
0.000815456
0.00081522
0.000814972
0.000814711
0.000814432
0.000814132
0.000813805
0.000813444
0.000813043
0.000812593
0.000812082
0.000811498
0.000810825
0.000810041
0.000809179
0.000161792
0.000393097
0.000594942
0.00074462
0.000853288
0.000934686