/*--------------------------------*- C++ -*----------------------------------*\
  =========                 |
  \\      /  F ield         | OpenFOAM: The Open Source CFD Toolbox
   \\    /   O peration     | Website:  https://openfoam.org
    \\  /    A nd           | Version:  9
     \\/     M anipulation  |
\*---------------------------------------------------------------------------*/
FoamFile
{
    format      ascii;
    class       volScalarField;
    location    "0.081";
    object      k_0;
}
// * * * * * * * * * * * * * * * * * * * * * * * * * * * * * * * * * * * * * //

dimensions      [0 2 -2 0 0 0 0];

internalField   nonuniform List<scalar> 
12225
(
1.96888e-05
2.27435e-05
4.92346e-05
8.7324e-05
9.31435e-05
8.20888e-05
4.97672e-05
3.19381e-05
2.48723e-05
2.27208e-05
2.24617e-05
2.2982e-05
2.59589e-05
3.70146e-05
5.06241e-05
5.98567e-05
6.25155e-05
0.000110346
2.0001e-05
2.03946e-05
2.45314e-05
3.57336e-05
3.91322e-05
3.81996e-05
3.22373e-05
2.58699e-05
2.28774e-05
2.17236e-05
2.14419e-05
2.14707e-05
2.17759e-05
2.3043e-05
2.53806e-05
2.96128e-05
3.63559e-05
4.41782e-05
2.0017e-05
1.59052e-05
1.60829e-05
1.75025e-05
1.8962e-05
1.92857e-05
1.92043e-05
1.89647e-05
1.87745e-05
1.8459e-05
1.77056e-05
1.71422e-05
1.69904e-05
1.7016e-05
1.71575e-05
1.75372e-05
1.85209e-05
2.02175e-05
2.05701e-05
2.06668e-05
2.04226e-05
2.02528e-05
1.98632e-05
1.92173e-05
1.9247e-05
1.92311e-05
1.88615e-05
1.70016e-05
1.43495e-05
1.28038e-05
1.18501e-05
1.15839e-05
1.16418e-05
1.20723e-05
1.34589e-05
1.47954e-05
2.42016e-05
3.1274e-05
2.66745e-05
2.17822e-05
2.08352e-05
2.10078e-05
2.16157e-05
2.18117e-05
2.17941e-05
2.15988e-05
2.09361e-05
2.00182e-05
1.92994e-05
1.88716e-05
1.87021e-05
1.88347e-05
1.97762e-05
2.04695e-05
2.32518e-05
2.38493e-05
2.17061e-05
2.05247e-05
2.04796e-05
2.11297e-05
2.36249e-05
2.57214e-05
2.71379e-05
2.80915e-05
2.84344e-05
2.84788e-05
2.82917e-05
2.67816e-05
2.41573e-05
2.27997e-05
2.22731e-05
2.21395e-05
2.12399e-05
2.10702e-05
2.08758e-05
2.09973e-05
2.1026e-05
2.10568e-05
2.12888e-05
2.19635e-05
2.39786e-05
2.70018e-05
2.88687e-05
2.91951e-05
2.84172e-05
2.54791e-05
2.34313e-05
2.2348e-05
2.18549e-05
2.1688e-05
2.03058e-05
2.03365e-05
2.12264e-05
2.21835e-05
2.17609e-05
2.12234e-05
2.12426e-05
2.18762e-05
2.46809e-05
2.72935e-05
2.79146e-05
2.74862e-05
2.59513e-05
2.48986e-05
2.43945e-05
2.40918e-05
2.3974e-05
2.38006e-05
2.07694e-05
2.272e-05
2.33201e-05
2.3293e-05
2.21819e-05
2.11184e-05
2.08657e-05
2.09488e-05
2.17726e-05
2.31999e-05
2.35412e-05
2.33378e-05
2.31778e-05
2.3205e-05
2.34986e-05
2.46277e-05
2.88725e-05
3.12571e-05
2.03542e-05
2.18468e-05
2.21403e-05
2.17639e-05
2.08012e-05
2.04466e-05
2.04062e-05
2.05084e-05
2.1161e-05
2.23564e-05
2.30156e-05
2.33164e-05
2.35473e-05
2.39417e-05
2.48861e-05
2.62288e-05
2.81242e-05
3.16589e-05
2.05434e-05
2.1356e-05
2.16837e-05
2.1565e-05
2.10202e-05
2.0767e-05
2.07518e-05
2.08598e-05
2.13869e-05
2.35193e-05
2.70226e-05
2.87085e-05
2.89794e-05
2.85463e-05
2.69394e-05
2.61938e-05
2.61409e-05
2.65774e-05
2.04514e-05
2.21892e-05
2.28275e-05
2.25661e-05
2.15042e-05
2.09274e-05
2.077e-05
2.07673e-05
2.08509e-05
2.1184e-05
2.22064e-05
2.40981e-05
2.57086e-05
2.64549e-05
2.64922e-05
2.59576e-05
2.39305e-05
2.28094e-05
2.04379e-05
2.31352e-05
2.34037e-05
2.27415e-05
2.192e-05
2.17548e-05
2.17898e-05
2.18008e-05
2.1738e-05
2.1716e-05
2.17968e-05
2.23742e-05
2.56715e-05
2.87382e-05
2.89782e-05
2.78935e-05
2.53173e-05
2.38601e-05
2.01703e-05
2.22097e-05
2.23014e-05
2.14701e-05
2.09511e-05
2.09532e-05
2.16582e-05
2.40859e-05
2.53023e-05
2.52947e-05
2.40864e-05
2.28512e-05
2.24473e-05
2.22741e-05
2.21768e-05
2.203e-05
2.18529e-05
2.17687e-05
2.13339e-05
2.14169e-05
2.11989e-05
2.11165e-05
2.09624e-05
2.09459e-05
2.12371e-05
2.23834e-05
2.49748e-05
2.64021e-05
2.62865e-05
2.45754e-05
2.3239e-05
2.28676e-05
2.29063e-05
2.34688e-05
2.35914e-05
2.3471e-05
2.00905e-05
2.09764e-05
2.48573e-05
2.66976e-05
2.64442e-05
2.43962e-05
2.37196e-05
2.41536e-05
2.57872e-05
2.65918e-05
2.65121e-05
2.51174e-05
2.43822e-05
2.44737e-05
2.52416e-05
2.52116e-05
2.46059e-05
2.43864e-05
2.01265e-05
2.14761e-05
2.37769e-05
2.48346e-05
2.44625e-05
2.35953e-05
2.39982e-05
2.61429e-05
2.613e-05
2.37176e-05
2.21027e-05
2.18194e-05
2.20658e-05
2.4319e-05
2.85766e-05
3.0056e-05
3.02337e-05
3.02375e-05
2.32224e-05
2.43332e-05
2.29547e-05
2.13349e-05
2.12555e-05
2.20916e-05
2.29489e-05
2.31972e-05
2.31793e-05
2.28519e-05
2.24389e-05
2.23377e-05
2.23815e-05
2.27931e-05
2.4536e-05
2.62954e-05
2.71608e-05
2.74248e-05
2.14817e-05
2.48803e-05
2.51666e-05
2.38442e-05
2.14856e-05
2.09256e-05
2.083e-05
2.08291e-05
2.08661e-05
2.09387e-05
2.10463e-05
2.12659e-05
2.19501e-05
2.34998e-05
2.4293e-05
2.43635e-05
2.39654e-05
2.29887e-05
2.05963e-05
2.22165e-05
2.6426e-05
2.8716e-05
2.54412e-05
2.21227e-05
2.14919e-05
2.13915e-05
2.13892e-05
2.14516e-05
2.1752e-05
2.20891e-05
2.22568e-05
2.23018e-05
2.22737e-05
2.2061e-05
2.16396e-05
2.1368e-05
2.00173e-05
2.01517e-05
2.05123e-05
2.16083e-05
2.35205e-05
2.49127e-05
2.51065e-05
2.3971e-05
2.23018e-05
2.15392e-05
2.12581e-05
2.11567e-05
2.10653e-05
2.09558e-05
2.08462e-05
2.07531e-05
2.06817e-05
2.06431e-05
2.07288e-05
2.06393e-05
2.08609e-05
2.17207e-05
2.49313e-05
2.87287e-05
3.08484e-05
3.11286e-05
2.9965e-05
2.70782e-05
2.50014e-05
2.35212e-05
2.24592e-05
2.17198e-05
2.1229e-05
2.09145e-05
2.07289e-05
2.06256e-05
2.03204e-05
2.04351e-05
2.0507e-05
2.08856e-05
2.24805e-05
2.88722e-05
4.09508e-05
4.54565e-05
4.44727e-05
3.65154e-05
2.8692e-05
2.46718e-05
2.25965e-05
2.15725e-05
2.11295e-05
2.09917e-05
2.09829e-05
2.10524e-05
2.13491e-05
2.15621e-05
2.09008e-05
2.07302e-05
2.09749e-05
2.18011e-05
2.34221e-05
2.68214e-05
3.07988e-05
3.33974e-05
3.38228e-05
3.28252e-05
2.90987e-05
2.62114e-05
2.47783e-05
2.42448e-05
2.41636e-05
2.42904e-05
2.35661e-05
2.54107e-05
2.39428e-05
2.21992e-05
2.2023e-05
2.2435e-05
2.46494e-05
2.8401e-05
3.11304e-05
3.2161e-05
3.19723e-05
2.99761e-05
2.71158e-05
2.54209e-05
2.4487e-05
2.40744e-05
2.39975e-05
2.40588e-05
2.07586e-05
2.0697e-05
2.06859e-05
2.07161e-05
2.07017e-05
2.0691e-05
2.07082e-05
2.07607e-05
2.08013e-05
2.08606e-05
2.09963e-05
2.14711e-05
2.24807e-05
2.30709e-05
2.31484e-05
2.29307e-05
2.26285e-05
2.25422e-05
2.00565e-05
1.99785e-05
1.99207e-05
1.99252e-05
1.99882e-05
2.00069e-05
1.99855e-05
1.98801e-05
1.94974e-05
1.88967e-05
1.8581e-05
1.84578e-05
1.83376e-05
1.81985e-05
1.81243e-05
1.81492e-05
1.84e-05
1.88074e-05
1.99993e-05
1.66984e-05
1.45852e-05
1.25938e-05
1.1066e-05
1.07856e-05
1.09961e-05
1.22025e-05
1.4093e-05
1.50528e-05
1.53185e-05
1.52758e-05
1.47889e-05
1.40141e-05
1.36405e-05
1.35123e-05
1.35066e-05
1.36188e-05
1.99982e-05
1.9985e-05
2.00012e-05
2.00872e-05
2.03707e-05
2.1628e-05
2.73686e-05
3.88433e-05
4.43726e-05
4.5426e-05
4.49189e-05
4.14858e-05
3.38294e-05
2.82018e-05
2.46306e-05
2.26763e-05
2.18348e-05
2.16469e-05
1.96952e-05
1.96238e-05
2.00781e-05
2.2176e-05
2.78844e-05
4.29107e-05
8.45325e-05
0.000116904
0.000127718
0.000127577
0.000116915
8.13632e-05
5.25349e-05
3.59254e-05
2.77307e-05
2.47806e-05
2.44062e-05
2.53351e-05
0.0748223
0.0917974
0.0928887
0.0892445
0.0883833
0.0900039
0.0916023
0.0935285
0.0948074
0.0967316
0.097539
0.098173
0.0955099
0.0830453
0.0685944
0.0638232
0.0661906
0.0661322
0.0658149
0.0672897
0.0702218
0.0730588
0.0753456
0.0771535
0.0789046
0.0812179
0.0852956
0.0964635
0.129022
0.204004
0.260989
0.268264
0.24555
0.168147
0.110079
0.0944507
0.0886034
0.0860343
0.0846279
0.0833537
0.0824588
0.0820696
0.0817586
0.0813473
0.0807867
0.0801986
0.0795697
0.0789588
0.0784783
0.0782522
0.078175
0.0780442
0.0778654
0.077795
0.0777902
0.0775267
0.0773997
0.0773481
0.0770669
0.0766803
0.0764742
0.0762895
0.0758348
0.0754772
0.0752851
0.0752991
0.075383
0.0755697
0.0760543
0.0774081
0.0791334
0.0803864
0.0817174
0.0845
0.0953381
0.192476
0.597338
0.733191
0.77568
0.79423
0.69735
0.340467
0.116036
0.053281
0.0395623
0.0352737
0.03375
0.0333581
0.0334773
0.033768
0.0341906
0.0346359
0.0351029
0.0355871
0.0360346
0.0364726
0.0368844
0.037234
0.0374441
0.0375439
0.0371892
0.0362562
0.0347962
0.0327459
0.0302937
0.0274075
0.0245412
0.021672
0.0193098
0.0171054
0.0155393
0.0143754
0.0137673
0.0134821
0.0132961
0.0132237
0.013148
0.0131259
0.0131338
0.0131888
0.01326
0.0133782
0.0135189
0.0136917
0.0138942
0.0141238
0.0143663
0.0145916
0.014798
0.0149823
0.015122
0.0152317
0.0153288
0.0154467
0.0155959
0.0157603
0.0159196
0.0160444
0.0160921
0.0160271
0.0157966
0.015404
0.0146246
0.0132081
0.0112307
0.00928472
0.00797074
0.00742768
0.00735444
0.00744976
0.00776152
0.00798343
0.00809806
0.008157
0.00813644
0.00804215
0.00800621
0.00801237
0.0080397
0.00805213
0.00799918
0.00786317
0.00767765
0.00746427
0.00729308
0.0071921
0.00716437
0.00719847
0.0072661
0.00724711
0.00720504
0.00719739
0.00699745
0.00695827
0.00727575
0.0076423
0.00806502
0.00839346
0.00824686
0.00707578
0.0703921
0.0681762
0.0797198
0.0868051
0.0922499
0.0956016
0.0961695
0.0964952
0.0964146
0.0956364
0.0953195
0.0960728
0.0983042
0.098341
0.090732
0.0705334
0.0630866
0.0605521
0.0572091
0.0550311
0.055805
0.0591407
0.0631451
0.0653562
0.066361
0.0671515
0.0689669
0.0754433
0.0951581
0.136603
0.156595
0.156038
0.140032
0.112965
0.098728
0.0934459
0.0909005
0.0877151
0.0821072
0.079175
0.0779742
0.0771645
0.0762966
0.0753722
0.0745501
0.0738763
0.0732662
0.0725289
0.071774
0.071507
0.0714505
0.0715499
0.0721264
0.0730112
0.0736738
0.0739842
0.0740996
0.0739498
0.0734945
0.071758
0.0703435
0.0700387
0.070663
0.0711344
0.0718326
0.0721804
0.0723285
0.0725389
0.0725338
0.0724876
0.0724246
0.0725371
0.0729108
0.0738728
0.0780015
0.10645
0.241639
0.318746
0.360622
0.392072
0.328931
0.136985
0.057528
0.0365487
0.0291404
0.0258413
0.0242744
0.0235739
0.0233496
0.0234212
0.023867
0.0243628
0.0249375
0.0254497
0.0257809
0.0259078
0.0258599
0.0253906
0.0245835
0.0234626
0.0220567
0.0203178
0.0183409
0.0161554
0.0139933
0.0119498
0.0103235
0.00899055
0.00813898
0.00745321
0.0071152
0.00693537
0.00687669
0.00689017
0.00710744
0.00719735
0.00729824
0.00738374
0.00744804
0.00749327
0.00751637
0.00754156
0.00756314
0.0076057
0.00766087
0.0077523
0.00790782
0.00816531
0.00851376
0.00896018
0.00947934
0.00993605
0.0102696
0.0104991
0.0106255
0.0106964
0.0107442
0.0108294
0.0110397
0.0113156
0.0115949
0.0119033
0.0124131
0.0132712
0.0144293
0.015548
0.016187
0.0163328
0.0162798
0.0157423
0.0138167
0.0118121
0.0104895
0.00967137
0.00910704
0.00863146
0.00818242
0.00776036
0.00739613
0.00709442
0.00684324
0.00661769
0.00638231
0.00612421
0.0058606
0.00559676
0.00534942
0.00517066
0.00509512
0.00509417
0.00517438
0.00539269
0.00558897
0.00592302
0.00684158
0.0083728
0.00960289
0.0102948
0.0103848
0.0101516
0.08902
0.0990926
0.102188
0.0977548
0.0904551
0.0872267
0.0861335
0.0870185
0.0932693
0.0984976
0.0989991
0.0963933
0.0946586
0.0986922
0.100923
0.0929275
0.0716792
0.0604589
0.0544818
0.0535254
0.0550274
0.058852
0.063607
0.0660237
0.0666276
0.0667113
0.0667093
0.0677948
0.0725156
0.0825748
0.0864023
0.0858663
0.0815706
0.0749573
0.0716652
0.0702721
0.0678589
0.0641749
0.0609325
0.0582218
0.0555828
0.0537485
0.0526991
0.0516276
0.0510308
0.0505515
0.0501741
0.0498976
0.0498164
0.050134
0.0511456
0.0524118
0.0544822
0.057271
0.0602454
0.0619223
0.062782
0.0631916
0.0629752
0.0631468
0.0648878
0.0680152
0.0738467
0.077168
0.0830009
0.0832406
0.0822951
0.0822485
0.0820872
0.0807488
0.0767059
0.0730371
0.0723326
0.0725763
0.0742111
0.0814968
0.111237
0.207146
0.278473
0.224127
0.0980975
0.0412469
0.0249692
0.0199364
0.0178666
0.0168684
0.016354
0.0160002
0.0156991
0.0154371
0.0152262
0.0150151
0.014841
0.0146409
0.0143931
0.0141149
0.0137729
0.0133834
0.0128647
0.011999
0.0106824
0.00904726
0.00741663
0.00602151
0.00504828
0.00443924
0.00409207
0.00384982
0.0037527
0.00372401
0.00381961
0.00408684
0.00464672
0.00601775
0.00807187
0.00958852
0.0105488
0.0110156
0.0111765
0.0111049
0.0107173
0.0101721
0.00960593
0.00898269
0.0083042
0.00769443
0.00717919
0.00683016
0.00665746
0.00664167
0.00679387
0.00724666
0.00796355
0.00877603
0.00937169
0.00967618
0.00979121
0.0097534
0.00950768
0.00913719
0.00867884
0.00805729
0.00724891
0.006452
0.00598378
0.00588325
0.00596833
0.00654747
0.00868849
0.0110417
0.012162
0.0124678
0.0124499
0.0120928
0.0108906
0.00987825
0.00926222
0.00889771
0.00862738
0.00835867
0.00805059
0.00766848
0.00719109
0.00666743
0.00621717
0.00590524
0.00562177
0.00521166
0.00464709
0.00409848
0.00380831
0.00377578
0.00387691
0.00447573
0.00663688
0.00939071
0.0112425
0.0120386
0.0120896
0.0116444
0.101068
0.119173
0.132063
0.132816
0.131855
0.128614
0.124324
0.119297
0.11419
0.111262
0.106164
0.0982418
0.0948449
0.0962377
0.107516
0.10717
0.0819123
0.0587587
0.0540392
0.0545227
0.0581926
0.0652671
0.073708
0.0768527
0.0774577
0.076366
0.0737789
0.073354
0.0748055
0.0781316
0.0791272
0.0784991
0.0747769
0.0700097
0.0662495
0.062718
0.0576029
0.0509282
0.0442716
0.0383286
0.0332988
0.0290372
0.0253882
0.0227168
0.0205081
0.0186371
0.0175937
0.016923
0.0166855
0.0167633
0.0179991
0.0200466
0.0236126
0.028858
0.0360236
0.0441262
0.0498482
0.054501
0.0582537
0.0617179
0.0691806
0.0878155
0.111552
0.113391
0.112898
0.114835
0.119832
0.128489
0.140461
0.139208
0.130488
0.111403
0.0947066
0.0826459
0.0783855
0.0808355
0.0957894
0.188699
0.217995
0.108177
0.0366973
0.0207324
0.0166977
0.0153547
0.0146895
0.0140882
0.0135556
0.0130395
0.0125686
0.0121231
0.0116267
0.0110925
0.0105642
0.0100501
0.00957281
0.00915138
0.00877821
0.0082681
0.00746751
0.00651907
0.00566646
0.00499056
0.00468286
0.00459511
0.00462124
0.00490415
0.00552584
0.00703796
0.00945785
0.0128078
0.0171856
0.0220273
0.0257391
0.0282401
0.0297287
0.0304711
0.0307906
0.0308748
0.0306315
0.0301177
0.0293876
0.0282984
0.0267902
0.024909
0.02246
0.0195092
0.0161783
0.0128443
0.0101152
0.00813136
0.00670737
0.00593885
0.00569205
0.0058643
0.00662569
0.00786344
0.00907376
0.00969333
0.00990767
0.00990691
0.00976732
0.0096053
0.00939661
0.00895612
0.00808735
0.00707238
0.00632644
0.0060066
0.00598084
0.00621672
0.00759058
0.0105926
0.0125937
0.0134698
0.0135996
0.013428
0.0124844
0.0112446
0.0105447
0.0101433
0.00984418
0.00953037
0.00909533
0.00848286
0.00777555
0.00715002
0.00671905
0.00646548
0.00623933
0.00593036
0.00559132
0.00540984
0.00544356
0.00612987
0.00916553
0.0121277
0.0132719
0.0134366
0.013364
0.0129946
0.0864103
0.0815977
0.0798339
0.080677
0.0834774
0.087291
0.0896497
0.0908565
0.0913076
0.0912955
0.0918607
0.0928722
0.0934542
0.0979528
0.108077
0.102045
0.0693755
0.056209
0.0561412
0.0631244
0.0781549
0.0873415
0.0907786
0.0903857
0.0862164
0.0826791
0.0782235
0.0751184
0.0739727
0.0735877
0.0704665
0.0641735
0.0551288
0.0432039
0.0335641
0.0250985
0.0169914
0.0125631
0.00910464
0.00709767
0.00611397
0.00528133
0.00443219
0.00402254
0.00360795
0.00327472
0.0030893
0.0029257
0.00287714
0.00292347
0.00315436
0.00362231
0.00452553
0.00621545
0.00955947
0.0165355
0.0287309
0.0414843
0.0513087
0.059522
0.0721024
0.108675
0.133483
0.121223
0.115262
0.123273
0.149629
0.197634
0.235446
0.25738
0.25133
0.228887
0.177827
0.124653
0.093907
0.0860331
0.0979635
0.184416
0.16844
0.0501942
0.0205824
0.0156431
0.0144365
0.0138994
0.0133282
0.0128264
0.0123641
0.0119129
0.0114766
0.0110444
0.0105348
0.00991177
0.00917284
0.00836604
0.00754347
0.0067794
0.00598987
0.0051778
0.0045886
0.00429855
0.00417883
0.00426745
0.0047221
0.00515753
0.00644072
0.00922201
0.0143584
0.0233901
0.0326901
0.0367889
0.0389164
0.0397682
0.0399987
0.0397462
0.038758
0.0380111
0.037448
0.0369836
0.0365778
0.0363281
0.0362444
0.0361959
0.0362097
0.0362362
0.0361468
0.0359251
0.0351207
0.0332659
0.0296637
0.0242133
0.0177056
0.0118406
0.00815872
0.00593694
0.00504867
0.00497106
0.00551361
0.00702946
0.00856089
0.00934408
0.00959816
0.00960338
0.00950353
0.00939341
0.00922154
0.00882813
0.00771141
0.00629323
0.00536851
0.00504437
0.00506548
0.00552325
0.00765376
0.0107862
0.0125167
0.0130985
0.0131572
0.0130663
0.0125771
0.0116746
0.0109656
0.0103808
0.00980374
0.00914403
0.00838337
0.00760716
0.00694519
0.00646674
0.00618816
0.00607524
0.00606061
0.00611035
0.006466
0.00813597
0.0110218
0.0124936
0.0127641
0.0126739
0.0123449
0.0117997
0.0853604
0.0787413
0.0755494
0.0790646
0.0877325
0.0929646
0.0923575
0.0903071
0.0905914
0.0911349
0.094586
0.101147
0.102373
0.104103
0.100427
0.0763578
0.0623694
0.0599997
0.0742247
0.0897906
0.0955969
0.0964967
0.093876
0.090393
0.0856262
0.081116
0.0753934
0.069789
0.0630021
0.0529477
0.0381645
0.0259803
0.0168077
0.0117808
0.00822676
0.00569838
0.00449384
0.00382418
0.00349475
0.00326262
0.00298193
0.00286072
0.0026877
0.0024035
0.00219404
0.00195358
0.00177686
0.00149178
0.00136199
0.00116616
0.00106222
0.00100756
0.00106803
0.00131002
0.00191467
0.00336866
0.00675617
0.0144689
0.029507
0.0464761
0.0690998
0.11085
0.133598
0.0954905
0.0963849
0.130106
0.183361
0.236899
0.278836
0.30926
0.320966
0.31567
0.293489
0.24133
0.137092
0.0987799
0.113955
0.180882
0.104568
0.0262798
0.0160731
0.0142029
0.0131772
0.012443
0.0116766
0.0109548
0.0104249
0.00994721
0.00953828
0.00918795
0.0087118
0.0082184
0.00766367
0.00690353
0.00604988
0.00506593
0.00411265
0.0037019
0.00358278
0.00360581
0.00408467
0.00459546
0.0058522
0.00844609
0.0142587
0.0257989
0.0370665
0.0417609
0.0435598
0.043873
0.0432153
0.0408626
0.0383457
0.0357491
0.0331215
0.0310644
0.0298085
0.0288711
0.028386
0.0282277
0.0286651
0.0294954
0.0307809
0.0324636
0.0343948
0.0362549
0.0375966
0.0386958
0.0393905
0.0395721
0.0385261
0.0342051
0.0255864
0.0159795
0.00953753
0.00599857
0.00469144
0.00457683
0.00522738
0.00700076
0.00845039
0.00908017
0.00926954
0.00928137
0.00922222
0.00905985
0.00870158
0.0077336
0.00621327
0.00496233
0.00432049
0.0042041
0.00433527
0.00513955
0.00774629
0.0103099
0.0116908
0.0121122
0.0120882
0.0118222
0.0110776
0.0102677
0.00970639
0.00941792
0.00906655
0.00849983
0.00784529
0.00723674
0.00672785
0.00639707
0.00628975
0.00630893
0.00659822
0.00819458
0.0104585
0.0111215
0.0110997
0.0108372
0.0101076
0.00923589
0.0789978
0.0830972
0.0844978
0.104478
0.117879
0.119999
0.116993
0.112529
0.114379
0.111431
0.108906
0.107675
0.103443
0.0978835
0.0814018
0.0717723
0.0685059
0.0843057
0.0962758
0.099099
0.0982944
0.0961425
0.0919971
0.0867106
0.07919
0.0702939
0.057706
0.0435771
0.0291522
0.0182824
0.0123199
0.00819625
0.00620851
0.00519981
0.00462728
0.00437786
0.00429571
0.00427933
0.00437154
0.00449113
0.00453532
0.00442163
0.00426789
0.00394531
0.003357
0.00300261
0.00248173
0.00191301
0.00157762
0.00116614
0.000932918
0.000723733
0.000593867
0.000523861
0.000524217
0.000693354
0.00126822
0.00295162
0.00781863
0.0231694
0.0537947
0.0976344
0.117707
0.0861796
0.0807753
0.13531
0.182106
0.232857
0.278187
0.308138
0.320773
0.318511
0.299705
0.24373
0.162163
0.134998
0.158512
0.148119
0.0464338
0.0172027
0.0134124
0.0117277
0.0101171
0.00883512
0.00777996
0.00710171
0.00680585
0.0066204
0.00639897
0.00624278
0.00612193
0.005887
0.00559638
0.0051187
0.00445772
0.00366137
0.00318229
0.00306576
0.00316421
0.00367037
0.00445071
0.00604961
0.00985122
0.0183953
0.0351368
0.0425047
0.045069
0.0454324
0.0435015
0.0402019
0.035719
0.0298269
0.0264763
0.0249738
0.0236698
0.0227141
0.021814
0.021133
0.0203172
0.0198562
0.0193632
0.0191232
0.0190818
0.0194567
0.0203845
0.022212
0.0254537
0.0296158
0.0344195
0.0389274
0.0415863
0.043161
0.0433024
0.0399078
0.0292472
0.0167695
0.00910305
0.0054515
0.00442082
0.00453093
0.00568904
0.00749432
0.0084808
0.00886987
0.00895815
0.00892867
0.00874743
0.0081766
0.00679265
0.00529446
0.00411167
0.00347064
0.0033141
0.0033778
0.00390848
0.00562094
0.00712139
0.0084292
0.0094052
0.00972781
0.00970008
0.00941079
0.00891274
0.00860748
0.00836952
0.00813379
0.00798405
0.00791543
0.00780743
0.00747938
0.00708492
0.00695717
0.0070396
0.00787128
0.00907368
0.00930086
0.00920384
0.00883544
0.00776396
0.00641378
0.0766658
0.0940497
0.102558
0.123839
0.129711
0.132073
0.130044
0.127897
0.129669
0.125148
0.117108
0.109297
0.101154
0.0904652
0.082755
0.0813828
0.0927287
0.0989677
0.100302
0.0989905
0.0961168
0.0910861
0.0821751
0.0699544
0.0532608
0.0377836
0.0250975
0.0168785
0.0112111
0.00847758
0.00721757
0.00661526
0.00639078
0.00634641
0.00701931
0.00786115
0.00898671
0.0099951
0.0109587
0.0114935
0.011702
0.0115155
0.0109956
0.0101405
0.00877377
0.00759799
0.00612295
0.00471678
0.00351362
0.00246064
0.00163827
0.00106602
0.000680708
0.000473872
0.000369173
0.00032456
0.000353759
0.000612183
0.00165045
0.00555962
0.0193346
0.0546438
0.0922368
0.0864283
0.0734017
0.0902389
0.112244
0.157528
0.214707
0.254575
0.277035
0.285017
0.268568
0.219359
0.169039
0.15691
0.154111
0.0681715
0.0224962
0.013169
0.0109892
0.00865965
0.00660474
0.00527737
0.00438998
0.00401793
0.00392316
0.00393971
0.00384416
0.00382612
0.00388965
0.00383122
0.0037337
0.0035353
0.00316156
0.00279976
0.00266753
0.00277622
0.003192
0.00399667
0.00567861
0.00977921
0.0198143
0.0380005
0.0448838
0.0466321
0.046561
0.0433141
0.0374801
0.0303174
0.0275935
0.0261394
0.0249354
0.0243383
0.0241183
0.023585
0.022948
0.0222608
0.0211111
0.0203124
0.0192954
0.0185394
0.0178953
0.0174474
0.0172074
0.0171152
0.0172466
0.0178567
0.019344
0.0228202
0.0295737
0.0377294
0.0437942
0.0465544
0.0468342
0.0417544
0.0267434
0.0137501
0.00709708
0.00469022
0.00438442
0.00496606
0.00673535
0.00796474
0.00850909
0.00865871
0.00863937
0.00842026
0.00754554
0.00579177
0.00426526
0.00316127
0.00257552
0.00241544
0.00244337
0.00274838
0.00407857
0.00576984
0.00652301
0.00667124
0.00666399
0.00650279
0.00613598
0.00597028
0.00597145
0.00615694
0.00682022
0.00729587
0.00743489
0.00744052
0.00740302
0.00735136
0.00736578
0.00761808
0.00811877
0.00817176
0.00802598
0.00745745
0.00572839
0.00444588
0.0797817
0.0997056
0.111884
0.128497
0.133291
0.13636
0.136947
0.132962
0.128199
0.122913
0.11537
0.107878
0.100247
0.0955865
0.094589
0.0982838
0.0997034
0.0997411
0.0984784
0.0937419
0.0849243
0.0700421
0.0518698
0.0356345
0.0244054
0.0164761
0.0120974
0.00982903
0.0088037
0.00839858
0.00827184
0.00931993
0.0110846
0.0138119
0.0171494
0.0206885
0.023877
0.0262133
0.0279839
0.0289213
0.0292562
0.0285218
0.0270201
0.0246261
0.0215483
0.018177
0.0149113
0.0116919
0.00857911
0.00609911
0.00408123
0.0026273
0.00155533
0.00087971
0.000502658
0.000319963
0.00025013
0.000229655
0.00033837
0.000976455
0.0038351
0.0156553
0.064356
0.0893675
0.0710642
0.066454
0.0741982
0.100161
0.150574
0.194515
0.220639
0.23178
0.220989
0.190349
0.161671
0.14271
0.0898015
0.0294829
0.0147067
0.0118439
0.0100254
0.0077897
0.00576481
0.00433324
0.00334911
0.00276744
0.00255582
0.00250453
0.00241372
0.002427
0.00250773
0.00252781
0.00253609
0.00250167
0.00240115
0.00234611
0.00244225
0.00277137
0.00337022
0.00483871
0.00838936
0.0175168
0.0369614
0.0456248
0.0478837
0.0479782
0.0444671
0.0371512
0.0322193
0.0299882
0.0292633
0.0294339
0.0309086
0.0325432
0.0337045
0.0341949
0.0333185
0.032249
0.0300741
0.0279435
0.025617
0.0232436
0.0211065
0.0193586
0.01809
0.0172906
0.0168815
0.0167257
0.0167859
0.0170551
0.0179011
0.0204673
0.0281413
0.039677
0.0475111
0.0500219
0.0486494
0.0363571
0.0186816
0.00900958
0.00517303
0.00439641
0.00470008
0.00624456
0.00760317
0.00821636
0.00837512
0.00833627
0.00799071
0.00666155
0.00480518
0.00339025
0.0024285
0.00192045
0.00176676
0.00177896
0.002011
0.00298134
0.00401606
0.00447485
0.00456861
0.00452964
0.00424653
0.00365297
0.0034139
0.00345404
0.00392891
0.00515238
0.00570991
0.0058048
0.00590561
0.00621067
0.0068208
0.00743669
0.00768257
0.00761734
0.0071477
0.00547353
0.00331278
0.00207187
0.0806379
0.101619
0.114743
0.127777
0.130726
0.131424
0.131281
0.127629
0.12297
0.117296
0.111582
0.106217
0.102204
0.100574
0.0995799
0.0992815
0.0983078
0.0948292
0.0871122
0.0716119
0.0535784
0.0376379
0.0254458
0.0177119
0.0132405
0.0111509
0.0103599
0.0101187
0.0105787
0.0126507
0.0168846
0.0240744
0.0295303
0.0359586
0.0395805
0.0427934
0.0444102
0.0457455
0.0462903
0.0464408
0.0463673
0.0459198
0.0450382
0.0436509
0.0413859
0.037572
0.0322482
0.0258539
0.0189077
0.0132447
0.00878966
0.00574446
0.00350819
0.00201338
0.00110431
0.000589611
0.000323934
0.000211908
0.000181453
0.000225547
0.000656699
0.00315848
0.0169561
0.078519
0.0768784
0.0636618
0.0585423
0.0609993
0.0780898
0.110606
0.137678
0.150375
0.15397
0.14151
0.117538
0.0743474
0.0343676
0.0170252
0.0129036
0.0118153
0.0102892
0.00870543
0.00656062
0.00474742
0.00345742
0.00263057
0.00214875
0.00190485
0.001785
0.00178481
0.00183727
0.00187721
0.00192905
0.00198707
0.0020411
0.00216484
0.00241335
0.00284023
0.00383376
0.00655652
0.013967
0.0307759
0.0454545
0.049374
0.0498602
0.0474583
0.0410165
0.0363479
0.0345311
0.0344625
0.0376933
0.0440886
0.049241
0.0513841
0.0518893
0.051201
0.0495976
0.048122
0.0460297
0.0432825
0.039874
0.0356403
0.0309399
0.0268116
0.0233032
0.0206768
0.018885
0.0177823
0.0171852
0.0169516
0.0169671
0.0172537
0.0180718
0.0211838
0.0324321
0.0464035
0.0521048
0.0523061
0.0434589
0.0227248
0.01053
0.00557574
0.00442762
0.00459717
0.00598146
0.00736971
0.00797476
0.008099
0.00800116
0.00733448
0.00539318
0.00366806
0.00249355
0.00176606
0.00141094
0.00131481
0.0013274
0.00147537
0.00194414
0.00227638
0.00238667
0.00238958
0.00230916
0.00199478
0.00178105
0.00176001
0.00190155
0.00252347
0.00276924
0.00273124
0.0027221
0.00298155
0.00438827
0.00597172
0.00622722
0.00599948
0.00472135
0.00250966
0.0013383
0.000872124
0.0807073
0.101784
0.112955
0.118993
0.12177
0.123697
0.123791
0.120186
0.115946
0.112586
0.108111
0.104347
0.101381
0.0994225
0.0972349
0.0941215
0.0873233
0.0734069
0.0561373
0.0411895
0.0285971
0.0198146
0.0147909
0.0124134
0.0115164
0.0113041
0.0119063
0.0144943
0.0203312
0.0292273
0.0369881
0.0414691
0.0455508
0.04762
0.0490171
0.0496786
0.0499804
0.0500956
0.0500601
0.0497618
0.0494638
0.0491312
0.0487706
0.0483254
0.0477285
0.0469783
0.0450531
0.0416546
0.0368044
0.0280365
0.0176006
0.0111247
0.00687196
0.00392975
0.00214606
0.0011666
0.000634559
0.000339569
0.000200018
0.000161852
0.000183945
0.000518304
0.00245558
0.0258799
0.0753282
0.0708912
0.055475
0.0476109
0.047944
0.0600106
0.0741057
0.0819186
0.0837555
0.0733341
0.0537387
0.0315585
0.0189846
0.0142522
0.013006
0.0126574
0.0127679
0.0138472
0.00985319
0.0063354
0.004117
0.00277155
0.00213969
0.00175505
0.00157332
0.00153785
0.00156012
0.00160295
0.00167393
0.00177762
0.00191018
0.00212066
0.00243375
0.00306051
0.00487557
0.0100851
0.0221172
0.0417506
0.0496643
0.051222
0.0508951
0.0474509
0.0417126
0.039653
0.0414822
0.0498211
0.0584265
0.0622655
0.0634422
0.0623987
0.0588719
0.056462
0.0546577
0.0534792
0.0524138
0.0514313
0.0500973
0.0481576
0.0450282
0.0397453
0.0334358
0.0282077
0.0241849
0.0214497
0.0197268
0.0186561
0.0179748
0.0175813
0.0175287
0.0178969
0.0193612
0.0263422
0.0440206
0.0535187
0.0546666
0.0474215
0.0250348
0.0112241
0.00570417
0.00440112
0.00452617
0.00584136
0.00715638
0.0076783
0.00774122
0.00752846
0.00631999
0.00412786
0.00263111
0.00174417
0.00124626
0.00100032
0.000924974
0.000927068
0.000982152
0.00107097
0.00110296
0.00110603
0.00108688
0.000966929
0.000812958
0.000785437
0.000847702
0.00104462
0.0010603
0.000974464
0.000949921
0.00114476
0.00238553
0.00369458
0.00379175
0.00333933
0.00184928
0.00088786
0.000538131
0.000520033
0.0805189
0.102026
0.112586
0.115792
0.116445
0.116526
0.114745
0.112619
0.110455
0.107167
0.103459
0.100229
0.0969203
0.09259
0.0858003
0.0738012
0.0584365
0.0449068
0.0328123
0.0233265
0.0169362
0.0137146
0.0123739
0.0120429
0.0121379
0.01388
0.0188277
0.0293992
0.0380377
0.0433994
0.0473231
0.0492369
0.050371
0.0507992
0.0509264
0.0509433
0.0510336
0.0510705
0.0509385
0.0505843
0.0499492
0.0492167
0.0484778
0.0478857
0.0478125
0.0482924
0.0474801
0.0460572
0.0436738
0.0407887
0.0341579
0.0207387
0.0124693
0.00715968
0.00381044
0.00196671
0.0010528
0.00059664
0.000336729
0.00019845
0.000151209
0.000164451
0.000388105
0.00279023
0.0310714
0.0725759
0.0678381
0.0472853
0.0383907
0.0378771
0.0423817
0.0448573
0.0448947
0.0375501
0.0279848
0.0197431
0.0156087
0.0142018
0.0140063
0.0158996
0.0201523
0.0205947
0.0139499
0.00762173
0.00488296
0.00323128
0.00224975
0.00176891
0.00155052
0.00148064
0.00148187
0.00151028
0.00158557
0.00170992
0.00187586
0.00212024
0.00252371
0.003672
0.00663943
0.013786
0.0306923
0.0476537
0.0526642
0.0536235
0.0531657
0.0479429
0.0451891
0.0484986
0.0577504
0.0663881
0.0701645
0.0713494
0.0694628
0.0656729
0.0607425
0.0573739
0.0555013
0.0546851
0.0544667
0.0542377
0.053715
0.0527836
0.0514092
0.0494638
0.0458549
0.0391805
0.0324477
0.0273255
0.0239348
0.0219021
0.0206945
0.0198379
0.0190531
0.0184227
0.018378
0.0192853
0.0240823
0.0423294
0.0548352
0.0564306
0.0488611
0.0251336
0.0109634
0.00552178
0.00429382
0.00444081
0.00573069
0.00685738
0.00722415
0.00720751
0.00672295
0.00485517
0.00294531
0.00178983
0.00116783
0.000867023
0.000716036
0.000632126
0.000595709
0.000588428
0.000589213
0.000590357
0.00058495
0.000543859
0.000443082
0.00040407
0.000408439
0.000424271
0.000411007
0.000380017
0.000401357
0.000651359
0.00156649
0.00194519
0.00185495
0.00125157
0.000574415
0.000327786
0.000322032
0.000412139
0.0789529
0.0985418
0.106928
0.107708
0.10495
0.103989
0.103233
0.100821
0.099851
0.0969314
0.0927152
0.0883092
0.0807983
0.0711676
0.059035
0.0476216
0.0367574
0.027548
0.0205072
0.0156354
0.0132971
0.0124358
0.0123012
0.0127947
0.0153213
0.0226494
0.0340508
0.0414173
0.0467241
0.0496399
0.0513801
0.0522283
0.0526558
0.0528574
0.053199
0.0536295
0.0542713
0.054623
0.0547499
0.0545071
0.0537325
0.0521028
0.0494981
0.0462143
0.0444624
0.0433497
0.0454914
0.0469875
0.0451427
0.043504
0.0414995
0.0350545
0.0207264
0.0118013
0.00628633
0.00314097
0.00155837
0.000839147
0.000505095
0.00031434
0.000189705
0.000143149
0.000145642
0.000339799
0.00291159
0.0290758
0.0701966
0.0686646
0.0466898
0.0322465
0.0291331
0.0284916
0.0281944
0.0243616
0.0200771
0.016932
0.0154003
0.0153181
0.0174243
0.0216992
0.0259974
0.0266254
0.0208723
0.0101527
0.00597945
0.00396583
0.00257535
0.00188635
0.00159198