/*--------------------------------*- C++ -*----------------------------------*\
  =========                 |
  \\      /  F ield         | OpenFOAM: The Open Source CFD Toolbox
   \\    /   O peration     | Website:  https://openfoam.org
    \\  /    A nd           | Version:  9
     \\/     M anipulation  |
\*---------------------------------------------------------------------------*/
FoamFile
{
    format      ascii;
    class       volScalarField;
    location    "0.081";
    object      nut;
}
// * * * * * * * * * * * * * * * * * * * * * * * * * * * * * * * * * * * * * //

dimensions      [0 2 -1 0 0 0 0];

internalField   nonuniform List<scalar> 
12225
(
3.26629e-10
0
0
0
0
0
0
0
0
0
0
0
0
0
0
0
0
0
3.55053e-10
0
0
0
0
0
0
0
0
0
0
0
0
0
0
0
0
0
3.13517e-10
0
0
9.85201e-11
3.09759e-11
0
0
0
0
0
0
0
0
6.94447e-12
0
0
0
0
2.93347e-08
2.7549e-08
1.65809e-08
1.29578e-08
7.6145e-09
3.35262e-09
3.01877e-10
0
0
0
0
0
4.03143e-11
0
0
0
0
0
8.13039e-07
8.29545e-07
3.4011e-07
0
0
0
0
0
0
0
0
0
0
0
0
0
0
0
3.1976e-07
3.89512e-07
2.62682e-07
0
0
0
0
0
1.73206e-07
2.15203e-07
2.49023e-07
2.91622e-07
3.99591e-07
4.19276e-07
1.91574e-07
0
0
0
5.83841e-08
6.72523e-08
3.00972e-07
5.16489e-07
4.22252e-07
0
0
0
0
1.65681e-07
3.84989e-07
4.35392e-07
4.63474e-07
3.05413e-08
0
0
0
0
0
0
0
7.07423e-07
2.62334e-07
0
0
0
0
0
1.6782e-07
3.03953e-07
0
0
0
0
0
0
0
0
0
4.55217e-07
1.94761e-07
0
0
0
0
6.40205e-08
2.1058e-07
0
0
0
0
0
0
0
0
0
0
0
0
0
0
0
0
0
0
0
0
0
0
0
0
0
0
0
0
0
0
0
0
0
0
0
0
0
0
0
0
0
0
0
0
0
0
0
0
0
0
0
0
0
0
0
2.09287e-07
5.4665e-07
7.61302e-07
8.00002e-07
5.85794e-07
3.15952e-07
0
0
0
0
0
0
0
0
0
0
0
0
0
9.62214e-07
1.37912e-06
1.64157e-06
1.32065e-06
7.36166e-07
0
0
0
0
0
0
0
1.6854e-07
9.74187e-08
5.08357e-07
1.00082e-06
3.66663e-07
0
0
0
3.89131e-07
1.21926e-06
1.6268e-06
0
0
0
0
0
0
0
4.49043e-07
2.00176e-08
6.83039e-07
1.38522e-06
5.96422e-07
0
0
0
1.3903e-07
6.47133e-07
1.37974e-07
4.09976e-07
0
0
0
5.90715e-08
2.06527e-07
1.93099e-07
1.11595e-06
2.33805e-06
4.30239e-06
1.80603e-06
1.14798e-07
0
0
2.29814e-07
8.98424e-07
8.40704e-07
0
3.48759e-07
0
0
7.42932e-07
5.47243e-07
0
0
6.83758e-07
2.25785e-06
2.51316e-06
0
0
0
0
1.79859e-07
1.71388e-07
5.53359e-08
0
8.09496e-07
3.34961e-07
2.57544e-07
5.76632e-07
5.21301e-08
0
0
0
0
0
0
0
0
0
1.86839e-07
3.95066e-07
4.96788e-07
5.19024e-07
0
0
2.17891e-06
3.51443e-06
2.52988e-07
0
0
0
0
0
0
0
0
2.81035e-07
7.07822e-07
1.06178e-06
1.21637e-06
6.17324e-07
0
0
0
1.33668e-06
5.96004e-07
0
0
0
0
0
0
0
0
0
0
0
0
0
0
0
0
0
0
0
3.72618e-07
1.20663e-06
0
0
0
0
0
0
0
0
0
0
2.02605e-08
0
0
0
2.9081e-07
9.61249e-07
2.32194e-06
2.44332e-06
1.3988e-06
0
0
0
0
0
0
0
0
0
0
0
0
0
1.19048e-07
2.95704e-07
7.46575e-07
1.0285e-06
8.03418e-07
1.57434e-07
0
0
0
0
0
0
0
0
0
0
0
0
0
0
0
0
0
2.27566e-07
3.82119e-07
1.41619e-07
0
0
0
0
0
0
0
0
0
0
0
0
0
0
0
0
3.36019e-07
2.42611e-07
1.62503e-07
2.15627e-07
2.58713e-07
8.20247e-08
0
0
2.91484e-07
8.29869e-08
0
0
0
0
0
0
0
0
0
0
0
2.06378e-07
9.11204e-07
1.51716e-07
0
0
3.07137e-08
0
0
0
9.88463e-09
6.28068e-09
0
0
0
0
0
4.84363e-09
6.11712e-09
3.66163e-09
4.19624e-10
0
0
0
1.62164e-10
0
0
0
0
0
0
0
0
0
0
2.63431e-10
6.12236e-10
5.16997e-10
1.89064e-10
0
0
0
2.28719e-11
0
0
0
0
0
0
0
0
0
0
0
0
0
0
0
0
0
0
0
0
0
0
0
0
0
0
0
0
0
0
0
0
0
0
0
0
1.15693e-05
2.81727e-05
3.43951e-05
2.92264e-05
1.28982e-05
0
0
0
0
0
0
0
0
6.24417e-08
6.7078e-06
1.45554e-05
1.83485e-05
1.74137e-05
1.3811e-05
1.03343e-05
7.7742e-06
6.01497e-06
4.82019e-06
4.01606e-06
3.4798e-06
3.14762e-06
3.13066e-06
3.8064e-06
5.65723e-06
7.69891e-06
8.7877e-06
8.21945e-06
5.53701e-06
3.11289e-06
1.83409e-06
1.22937e-06
9.6368e-07
7.49369e-07
4.79315e-07
1.82152e-07
0
0
0
0
0
0
0
0
0
0
0
0
0
0
0
0
0
0
0
0
0
0
0
0
0
0
0
0
0
0
0
0
0
0
0
0
0
2.23783e-05
4.37566e-05
6.9983e-05
7.14418e-05
5.23595e-05
3.76473e-05
2.50208e-05
1.22226e-05
4.85693e-06
1.86956e-06
7.7063e-07
3.46573e-07
1.5946e-07
6.12544e-08
2.54042e-09
0
0
0
0
0
2.20501e-08
1.0491e-07
1.99584e-07
2.88642e-07
3.58108e-07
3.99228e-07
4.09761e-07
3.91045e-07
3.51504e-07
2.97846e-07
2.39908e-07
1.8039e-07
1.24895e-07
7.26706e-08
2.36228e-08
0
0
0
0
0
0
0
0
0
0
0
0
0
0
0
0
0
0
0
0
0
0
0
0
0
0
0
0
0
0
0
0
0
0
0
0
0
0
0
0
1.60166e-09
1.31112e-08
1.16546e-08
6.75277e-09
4.60423e-09
7.17361e-09
1.24609e-08
1.69851e-08
2.01999e-08
2.27205e-08
2.14861e-08
1.57153e-08
8.74985e-09
2.85693e-09
0
0
0
0
7.82978e-09
3.89165e-09
0
1.25469e-08
2.17623e-08
1.8875e-08
4.09304e-08
0
0
2.64701e-06
6.21029e-06
3.06127e-06
0
0
0
0
0
0
0
0
0
0
0
0
0
0
0
0
0
3.97594e-07
1.77747e-06
2.67968e-06
2.85716e-06
2.77542e-06
2.72645e-06
2.7554e-06
2.92668e-06
3.58817e-06
5.26345e-06
7.14488e-06
8.41698e-06
8.067e-06
6.03693e-06
3.89934e-06
2.3929e-06
1.64754e-06
1.30464e-06
9.66302e-07
5.547e-07
1.34869e-07
0
0
0
0
0
0
0
0
0
0
0
0
0
0
2.73941e-07
4.59989e-07
0
0
0
0
0
0
0
0
0
0
0
0
0
0
0
0
0
1.22096e-06
2.00343e-06
0
0
1.63222e-05
3.73262e-05
4.91059e-05
3.64644e-05
2.26579e-05
1.54207e-05
1.12061e-05
8.60409e-06
6.73214e-06
5.20408e-06
4.03725e-06
3.22503e-06
2.68419e-06
2.2999e-06
2.00652e-06
1.74902e-06
1.49961e-06
1.25536e-06
1.02872e-06
8.32252e-07
6.83367e-07
5.87187e-07
5.34741e-07
5.06127e-07
4.83064e-07
4.51998e-07
4.09077e-07
3.55205e-07
2.98311e-07
2.41007e-07
1.89002e-07
1.40238e-07
9.70776e-08
5.7011e-08
1.90856e-08
0
0
0
0
0
0
0
0
0
0
0
0
0
0
0
0
0
0
0
0
0
0
0
0
0
0
0
0
0
0
0
0
0
0
0
0
0
0
0
0
0
0
0
0
0
0
0
1.15049e-08
2.25034e-08
3.02827e-08
3.19283e-08
2.77113e-08
2.17811e-08
1.67552e-08
1.37229e-08
8.02688e-09
0
0
1.97482e-09
0
0
0
3.4491e-10
1.66783e-08
7.41768e-08
2.69803e-08
0
1.0555e-05
1.35526e-05
1.08893e-05
4.38035e-06
0
0
0
0
0
0
0
0
0
0
1.84019e-06
1.40774e-06
0
0
0
0
0
0
0
0
0
0
0
0
0
0
2.60187e-06
5.56881e-06
7.63295e-06
8.30157e-06
7.44151e-06
5.62336e-06
4.22117e-06
3.39313e-06
2.4092e-06
1.03157e-06
0
0
0
0
0
0
0
0
0
0
0
0
0
4.12807e-08
1.05259e-06
1.27035e-06
6.57998e-07
0
0
0
0
0
0
0
0
0
0
0
0
0
0
0
1.8486e-06
2.29184e-06
4.38541e-06
2.58447e-06
0
0
0
0
3.87375e-06
5.73095e-06
6.33129e-06
6.62211e-06
7.50335e-06
9.13614e-06
1.05764e-05
1.08744e-05
1.02459e-05
9.39416e-06
8.68432e-06
8.1265e-06
7.64223e-06
7.12844e-06
6.53867e-06
5.87533e-06
5.15547e-06
4.41844e-06
3.69092e-06
2.98793e-06
2.3433e-06
1.79644e-06
1.36876e-06
1.04802e-06
8.15946e-07
6.42634e-07
5.05316e-07
3.8753e-07
2.88757e-07
2.04214e-07
1.34327e-07
7.66353e-08
2.781e-08
0
0
0
0
0
0
0
0
0
0
0
0
0
0
0
0
0
0
0
0
0
0
0
0
0
0
0
0
6.51226e-09
4.05133e-08
3.99116e-08
3.94941e-08
4.08043e-08
5.50482e-09
0
0
0
0
0
0
0
0
0
0
0
0
0
0
2.19455e-08
5.98075e-08
7.66806e-08
7.62573e-08
6.98457e-08
6.64402e-08
7.5257e-08
7.13358e-08
2.30901e-08
0
0
0
0
0
0
6.76734e-08
2.26604e-07
2.60654e-07
0
3.45549e-06
1.1864e-05
1.70837e-05
1.52745e-05
1.07951e-05
3.6473e-06
0
0
0
3.78005e-06
8.21566e-06
9.67005e-06
8.59182e-06
7.55645e-06
5.51341e-06
2.23905e-06
0
0
0
0
0
0
0
0
0
0
0
0
0
0
0
0
0
0
0
0
0
0
0
0
0
0
0
0
0
0
0
5.85117e-08
1.3927e-07
1.66833e-07
1.48122e-07
7.11047e-08
0
0
1.17867e-07
4.14349e-07
5.04506e-07
4.35178e-07
7.45636e-07
1.51764e-06
2.90874e-06
4.06284e-06
3.14961e-06
2.23877e-06
2.77212e-06
3.23541e-06
3.67901e-06
4.0293e-06
3.42745e-06
8.82328e-07
0
0
4.81527e-06
2.809e-06
2.29207e-07
0
0
0
0
0
0
6.25317e-07
2.49271e-06
5.5383e-06
7.46147e-06
5.0961e-06
2.99497e-06
1.97261e-06
1.49587e-06
1.27939e-06
1.19623e-06
1.18066e-06
1.19759e-06
1.22655e-06
1.25649e-06
1.27888e-06
1.2851e-06
1.25717e-06
1.18302e-06
1.07849e-06
9.7325e-07
8.85042e-07
8.35888e-07
8.13164e-07
8.09992e-07
8.45907e-07
9.37312e-07
1.1389e-06
1.47117e-06
1.97963e-06
2.75455e-06
3.73305e-06
1.92881e-06
0
0
0
0
0
0
0
0
0
0
0
0
0
0
0
0
0
0
0
0
0
0
0
0
0
0
0
0
0
0
0
0
0
0
0
0
0
0
0
0
0
0
0
0
0
0
0
0
0
3.24078e-09
1.21499e-07
1.44146e-07
4.86506e-08
0
5.59625e-08
2.11098e-07
1.57861e-07
3.41531e-08
8.53846e-08
0
0
0
3.77103e-07
1.23654e-06
6.89896e-07
3.39042e-07
0
1.17755e-06
4.02342e-06
1.09195e-05
9.31763e-06
3.3773e-06
0
0
0
2.05548e-06
3.1015e-05
1.84133e-05
7.52825e-06
2.4426e-06
1.118e-06
0
0
0
0
0
0
0
0
0
0
0
0
0
0
0
0
0
0
0
0
0
0
0
0
0
0
0
0
0
0
5.71266e-08
1.85585e-07
2.86203e-07
3.57935e-07
4.12206e-07
4.54942e-07
4.94523e-07
5.28315e-07
5.48899e-07
5.16123e-07
3.63216e-07
6.16631e-08
0
9.48188e-07
2.58286e-06
3.83206e-06
5.0792e-06
6.00529e-06
3.2279e-06
1.19681e-06
1.63405e-06
2.00067e-06
2.46991e-06
2.43768e-06
2.32797e-07
0
0
0
1.14666e-05
5.19994e-06
0
0
0
0
0
0
0
0
1.21061e-06
3.49372e-06
1.22864e-06
5.49719e-07
3.97853e-07
3.91473e-07
4.15512e-07
4.38007e-07
4.54204e-07
4.63742e-07
4.65729e-07
4.60696e-07
4.52542e-07
4.46548e-07
4.41799e-07
4.38693e-07
4.46896e-07
4.70658e-07
5.03596e-07
5.48484e-07
6.18745e-07
6.97662e-07
8.57274e-07
1.16337e-06
1.71534e-06
2.69253e-06
4.03825e-06
5.54901e-06
6.66712e-06
4.61058e-06
1.36234e-06
0
0
0
0
0
0
0
0
0
0
0
0
0
0
0
0
0
0
0
0
0
0
0
0
0
0
0
0
0
0
0
0
0
0
0
0
0
0
0
0
0
0
0
0
0
0
0
0
0
0
0
1.48854e-07
1.32891e-07
0
0
0
0
6.98135e-08
2.95463e-07
2.71421e-07
0
2.3315e-08
1.65018e-06
2.01889e-06
8.18114e-07
1.27037e-07
0
6.99755e-07
1.73908e-06
7.07802e-06
9.38999e-07
0
0
0
9.71036e-06
2.6463e-05
1.85003e-05
1.30103e-05
6.69595e-06
1.60339e-06
0
0
0
0
0
0
0
0
0
0
0
0
0
0
0
0
0
0
0
0
0
0
0
0
0
0
1.42736e-09
1.75829e-07
3.43269e-07
4.8262e-07
5.75715e-07
6.41e-07
6.7199e-07
6.8932e-07
6.6637e-07
6.62692e-07
6.31348e-07
6.13771e-07
6.0126e-07
6.06569e-07
6.29696e-07
6.64745e-07
6.89004e-07
6.30087e-07
7.23272e-07
2.05894e-06
3.43251e-06
4.4226e-06
3.65379e-06
0
0
0
0
1.13474e-08
0
0
0
0
0
0
3.4541e-06
0
0
0
0
0
0
0
0
0
0
0
0
1.20112e-07
2.91458e-07
3.9582e-07
4.47903e-07
4.66322e-07
4.7707e-07
4.80492e-07
4.68718e-07
4.47006e-07
4.15597e-07
3.83306e-07
3.78502e-07
3.9448e-07
4.25102e-07
4.92756e-07
5.78975e-07
7.34455e-07
1.00216e-06
1.505e-06
2.41217e-06
3.55074e-06
4.62599e-06
5.20601e-06
4.52281e-06
3.00223e-06
1.62876e-06
6.34855e-07
0
0
0
0
0
0
0
0
0
0
0
0
0
0
0
0
0
0
0
0
0
0
0
0
0
0
0
0
0
0
0
0
0
0
0
0
0
0
0
0
0
0
0
0
0
0
0
0
0
0
0
4.84594e-08
1.30995e-07
0
0
0
0
0
0
0
0
6.87915e-07
2.79361e-06
2.8333e-06
1.11606e-06
9.70058e-08
0
3.97654e-07
9.76029e-07
4.35945e-06
0
0
7.96964e-07
8.80717e-06
2.14333e-05
2.54899e-05
1.88201e-05
1.61767e-05
1.30697e-05
7.24548e-06
4.01817e-06
2.60603e-06
3.80729e-07
0
0
0
0
0
0
0
0
0
0
0
0
0
0
0
0
0
0
0
0
0
0
0
1.00169e-07
3.1703e-07
5.22271e-07
6.99739e-07
8.2632e-07
8.79503e-07
9.18314e-07
8.89615e-07
8.13986e-07
7.55779e-07
6.55979e-07
5.8865e-07
5.17676e-07
4.65107e-07
4.2742e-07
4.0642e-07
4.32731e-07
5.32928e-07
7.54738e-07
1.17219e-06
1.50271e-06
1.99919e-06
5.07285e-07
0
0
1.94497e-07
1.04811e-06
1.12695e-06
0
0
0
0
0
0
0
5.71594e-08
0
0
0
0
0
0
0
1.88178e-07
8.22991e-08
0
0
1.07368e-07
2.5051e-07
3.33165e-07
3.53535e-07
3.36595e-07
3.22346e-07
3.18407e-07
3.12546e-07
3.0328e-07
2.89236e-07
2.87232e-07
3.03447e-07
3.36644e-07
4.07146e-07
5.2099e-07
7.13905e-07
1.05296e-06
1.63586e-06
2.56806e-06
3.2014e-06
3.49467e-06
3.10003e-06
2.0893e-06
9.90366e-07
1.29695e-07
0
2.74125e-07
7.45713e-07
9.71687e-07
8.81064e-07
5.78627e-07
1.65297e-07
0
0
0
0
0
0
0
0
0
0
0
0
0
0
0
0
0
0
0
0
0
0
0
0
0
0
0
0
0
0
0
0
0
0
0
0
0
0
0
0
0
0
1.68456e-07
2.294e-07
1.19932e-07
1.00615e-07
2.96512e-07
4.0538e-07
1.41441e-07
0
0
0
0
0
0
1.28465e-07
2.2042e-06
4.5008e-06
3.89897e-06
1.52338e-06
3.07667e-08
0
0
6.8546e-08
9.44742e-07
0
0
7.84974e-06
1.6037e-05
2.08722e-05
2.44449e-05
2.24228e-05
1.94929e-05
1.70613e-05
1.36594e-05
9.29046e-06
4.57384e-06
1.56972e-06
0
0
0
0
0
0
0
0
0
0
0
0
0
0
0
0
0
0
0
0
0
0
0
0
1.4479e-07
3.83248e-07
6.18556e-07
8.52315e-07
1.05433e-06
1.2257e-06
1.29536e-06
1.26679e-06
1.15904e-06
9.88944e-07
7.97734e-07
6.20028e-07
4.64512e-07
3.53148e-07
2.78871e-07
2.38671e-07
2.38863e-07
3.20772e-07
5.54863e-07
8.92867e-07
0
0
0
0
2.42348e-06
6.84773e-06
7.93322e-06
8.43599e-06
4.34336e-06
0
0
0
0
0
0
0
0
0
0
0
0
3.43302e-07
4.35842e-07
4.07408e-07
3.7269e-07
6.62715e-07
5.60721e-07
2.5804e-07
1.40399e-07
8.29926e-08
3.38603e-08
1.5492e-08
3.82318e-08
8.06387e-08
1.22158e-07
1.56721e-07
1.91088e-07
2.33433e-07
3.01689e-07
4.21695e-07
6.31491e-07
9.93002e-07
1.58454e-06
2.29695e-06
2.39491e-06
1.96928e-06
1.30189e-06
4.60187e-07
0
0
0
0
7.30192e-07
3.21562e-06
3.3828e-06
2.87353e-06
2.31126e-06
1.81011e-06
1.33601e-06
8.52126e-07
3.31314e-07
0
0
0
0
0
0
0
0
0
0
0
0
0
0
0
0
0
0
0
0
0
0
0
0
0
0
0
0
0
0
0
0
0
0
0
0
0
1.60068e-06
3.4555e-06
3.45443e-06
2.7639e-06
1.93262e-06
1.38285e-06
1.13747e-06
8.54942e-07
3.68232e-07
0
0
0
0
0
0
1.42582e-06
5.51481e-06
7.34462e-06
5.82141e-06
2.44317e-06
1.55028e-07
0
0
0
0
4.3781e-06
5.89991e-06
1.06398e-05
1.84381e-05
2.47515e-05
2.79106e-05
2.67817e-05
2.31508e-05
1.84505e-05
1.30348e-05
8.26788e-06
4.81609e-06
2.53461e-06
8.64428e-07
0
0
0
0
0
0
0
0
0
0
0
0
0
0
0
0
0
0
0
0
0
0
0
0
0
0
0
0
0
1.4321e-07
8.72219e-07
1.31693e-06
1.43315e-06
1.29896e-06
1.05929e-06
7.81753e-07
5.38942e-07
3.57033e-07
2.37039e-07
1.68335e-07
1.37485e-07
1.52716e-07
2.05643e-07
0
0
0
0
0
2.80085e-06
6.31459e-06
9.43236e-06
1.32905e-05
1.10053e-05
0
0
0
0
0
0
0
0
0
0
1.03676e-07
1.0451e-07
9.99551e-08
1.43105e-07
2.18259e-07
5.47282e-07
7.16761e-07
3.66766e-07
1.67905e-07
8.59611e-08
2.26686e-08
0
0
1.53112e-08
6.50157e-08
1.10459e-07
1.54949e-07
2.14488e-07
3.12175e-07
4.99339e-07
8.33269e-07
1.38435e-06
2.03068e-06
1.82893e-06
8.41714e-07
0
0
0
0
0
0
0
1.45823e-06
2.20615e-06
1.90026e-06
1.33759e-06
8.13165e-07
4.43442e-07
2.74802e-07
2.24802e-07
1.43805e-07
0
0
0
0
0
0
0
0
0
0
0
0
0
0
0
0
0
0
0
0
0
0
0
0
0
0
0
0
0
0
0
0
0
6.26045e-07
5.13561e-08
0
7.44005e-07
1.41975e-06
2.1654e-06
3.11181e-06
4.23907e-06
4.91763e-06
5.21701e-06
4.31931e-06
1.79964e-06
7.15402e-07
6.04084e-08
0
0
0
0
5.87875e-07
3.80416e-06
8.49414e-06
8.77079e-06
7.74335e-06
3.39931e-06
0
0
0
0
0
3.08636e-06
6.24774e-06
8.49866e-06
1.16027e-05
1.50554e-05
1.85619e-05
2.10465e-05
2.1509e-05
1.96418e-05
1.62892e-05
1.26954e-05
9.39871e-06
6.62839e-06
4.33877e-06
2.51207e-06
1.0338e-06
0
0
0
0
0
0
0
0
0
0
0
0
6.79518e-08
4.94385e-07
6.54406e-07
3.57679e-07
0
0
0
0
0
0
0
0
0
0
0
0
0
0
1.59296e-07
1.12892e-06
1.34026e-06
1.15422e-06
8.49451e-07
5.7168e-07
3.61145e-07
2.14988e-07
1.15279e-07
4.46542e-08
1.60975e-08
0
0
0
0
0
0
1.84987e-07
1.86129e-06
2.69598e-06
2.46278e-06
5.37475e-07
0
0
0
0
0
0
0
0
0
0
0
1.68262e-07
5.15267e-07
8.06372e-07
5.22873e-07
2.72992e-07
2.37373e-07
1.83384e-07
1.59124e-07
1.3134e-07
9.37508e-08
6.47161e-08
6.21984e-08
8.15114e-08
1.12889e-07
1.55678e-07
2.25452e-07
3.58195e-07
6.25433e-07
1.11426e-06
1.75614e-06
1.73911e-06
5.32091e-07
0
0
0
0
0
0
0
3.88013e-07
1.62591e-06
1.6747e-06
1.24409e-06
6.26418e-07
4.30624e-08
0
0
0
0
0
0
0
0
0
0
0
0
0
0
0
0
0
0
0
0
0
0
0
0
0
0
0
0
0
0
0
0
0
1.8549e-07
4.41411e-07
0
2.93368e-06
4.44558e-06
1.0792e-06
0
4.22213e-08
1.1646e-06
1.46168e-06
1.57325e-06
1.97593e-06
2.4687e-06
2.85841e-06
4.10347e-06
5.58804e-06
2.50616e-06
1.51831e-06
5.08733e-07
0
0
9.88082e-07
1.94679e-06
2.78051e-06
1.6775e-06
1.59756e-06
0
0
0
0
0
0
0
0
0
1.95555e-06
4.15829e-06
6.25498e-06
8.29803e-06
1.02851e-05
1.19556e-05
1.31418e-05
1.36123e-05
1.33098e-05
1.22853e-05
1.07543e-05
8.58987e-06
5.3278e-06
1.40016e-06
0
0
0
0
0
0
0
0
0
2.53463e-07
1.2497e-06
2.32709e-06
3.27981e-06
4.01221e-06
4.12939e-06
3.36387e-06
1.73795e-06
0
0
0
0
0
5.45318e-07
1.2692e-06
1.54379e-06
1.20394e-06
3.57889e-08
0
0
0
0
0
5.68553e-07
1.19326e-06
1.06558e-06
7.55702e-07
4.92568e-07
3.10828e-07
1.80829e-07
8.23501e-08
2.93427e-08
0
0
0
0
0
0
0
0
0
0
0
2.29838e-07
8.28336e-07
1.40991e-06
1.58161e-06
1.17289e-06
6.44469e-07
4.09903e-08
0
0
0
3.79816e-08
5.95862e-07
1.42588e-06
1.70501e-06
3.28495e-07
0
0
5.68591e-08
8.86848e-08
1.03828e-07
1.08719e-07
1.05016e-07
9.98975e-08
1.01923e-07
1.1928e-07
1.59607e-07
2.4111e-07
4.19752e-07
7.90786e-07
1.36068e-06
1.77283e-06
9.79755e-07
0
0
0
0
0
0
0
0
1.27507e-06
1.88185e-06
1.7491e-06
1.20588e-06
5.35253e-07
0
0
0
0
0
0
0
0
0
0
0
0
0
0
0
0
0
0
0
0
0
0
0
0
0
0
0
0
0
0
0
0
0
0
0
1.45989e-06
1.6088e-06
2.31348e-06
6.04948e-06
3.76121e-06
7.11512e-08
0
9.05608e-07
1.5794e-06
1.768e-06
1.99667e-06
2.195e-06
2.33655e-06
2.87567e-06
3.88996e-06
3.94251e-06
2.81159e-06
2.14186e-06
2.12066e-06
2.28072e-06
2.76493e-06
4.19268e-07
0
0
0
0
0
0
0
0
0
0
0
0
0
0
3.41995e-07
1.71304e-06
2.86585e-06
3.79657e-06
4.53617e-06
5.01625e-06
5.08154e-06
4.55791e-06
3.40222e-06
1.92004e-06
4.96371e-07
0
0
0
0
0
0
0
0
2.15818e-07
1.46856e-06
2.99866e-06
4.68258e-06
6.66918e-06
8.89627e-06
1.10792e-05
1.21843e-05
1.05397e-05
5.29552e-06
0
0
0
0
0
0
0
1.63996e-06
3.26496e-06
4.08446e-06
3.53281e-06
1.11969e-06
0
0
0
0
3.97892e-07
1.05327e-06
8.8521e-07
5.91931e-07
3.78722e-07
2.41939e-07
1.3624e-07
5.57269e-08
3.23928e-09
0
0
0
0
0
0
0
0
0
0
1.06225e-07
5.00249e-07
7.9431e-07
8.41715e-07
6.08765e-07
1.72372e-07
0
0
0
0
6.7864e-07
1.9149e-06
3.16143e-06
1.94177e-06
1.33582e-07
0
0
0
0
3.70612e-08
6.10517e-08
8.20084e-08
9.81256e-08
1.06373e-07
1.21255e-07
1.57117e-07
2.46906e-07
4.64574e-07
8.70144e-07
1.43858e-06
1.46124e-06
1.28025e-07
0
0
0
0
0
0
0
9.83222e-07
1.79842e-06
2.12275e-06
1.88144e-06
1.24014e-06
5.20287e-07
0
0
0
0
0
0
0
0
0
0
0
0
0
0
0
0
0
0
0
0
0
0
0
0
0
0
0
0
0
0
0
0
0
0
0
5.04044e-07
1.76199e-06
1.45618e-06
1.50197e-06
3.9639e-06
1.90664e-06
4.13753e-08
6.13131e-07
1.4761e-06
1.79721e-06
1.69383e-06
1.44653e-06
1.25999e-06
1.14289e-06
1.06435e-06
1.57242e-06
1.52556e-06
1.29349e-06
1.46875e-06
2.15158e-06
2.31537e-06
0
0
0
0
0
0
0
0
0
0
0
0
0
0
0
0
0
3.57557e-07
1.31568e-06
2.0155e-06
2.36429e-06
2.3422e-06
1.97044e-06
1.37633e-06
6.52895e-07
0
0
0
0
0
0
0
0
3.95998e-07
1.44999e-06
2.67252e-06
4.13505e-06
6.06443e-06
8.87924e-06
1.30463e-05
1.9104e-05
2.67474e-05
2.90109e-05
5.02627e-06
0
0
0
0
0
0
0
0
0
7.92533e-07
3.2481e-06
3.83373e-06
1.92944e-06
0
0
0
0
5.6573e-07
8.69431e-07
6.39417e-07
4.00688e-07
2.50686e-07
1.56551e-07
8.3232e-08
2.27449e-08
0
0
0
0
0
0
0
0
0
0
0
1.96772e-07
3.5013e-07
3.58974e-07
2.35011e-07
0
0
0
0
0
0
0
0
0
0
0
0
0
0
0
2.01413e-08
4.61948e-08
7.07166e-08
9.12134e-08
1.16631e-07
1.51723e-07
2.3123e-07
4.45376e-07
8.61695e-07
1.36564e-06
1.07651e-06
0
0
0
0
0
0
0
6.01815e-07
1.31663e-06
1.79806e-06
1.99831e-06
1.85406e-06
1.36133e-06
7.04755e-07
0
0
0
0
9.18465e-07
1.33143e-06
8.26028e-07
8.00531e-08
0
0
0
0
0
0
0
0
0
0
0
0
0
0
0
0
0
0
0
0
0
0
0
0
0
0
0
0
1.36963e-06
1.52474e-06
1.06572e-06
5.87616e-07
7.27622e-07
2.98893e-07
5.89374e-07
1.14467e-06
1.43001e-06
1.29329e-06
7.43766e-07
3.84831e-07
4.31404e-07
6.14778e-07
7.07619e-07
2.61248e-07
5.66198e-07
8.33526e-07
1.31818e-06
1.8502e-06
0
0
0
0
0
0
0
0
0
0
0
0
0
0
0
0
0
0
6.65531e-07
1.24922e-06
1.47972e-06
1.41986e-06
1.13657e-06
7.21607e-07
2.68394e-07
0
0
0
0
0
0
0
6.25021e-08
4.71973e-07
9.98848e-07
1.64171e-06
2.54515e-06
3.93479e-06
6.11868e-06
9.4528e-06
1.42583e-05
1.96157e-05
1.25018e-05
0
0
0
0
0
0
0
0
0
0
0
0
2.01715e-06
2.90855e-06
1.23013e-06
0
0
0
0
8.19618e-07
6.41609e-07
3.72664e-07
2.15023e-07
1.3477e-07
8.46212e-08
4.10621e-08
0
0
0
0
0
0
0
0
0
0
0
3.09831e-09
2.9066e-07
3.75517e-07
2.99529e-07
1.46852e-07
0
0
0
0
0
0
0
0
0
0
0
0
0
0
5.86545e-09
2.27295e-08
3.99498e-08
6.02964e-08
9.12399e-08
1.37632e-07
2.30053e-07
4.55505e-07
8.69065e-07
1.20882e-06
7.88025e-07
0
0
0
0
0
0
1.8294e-08
5.11724e-07
8.35229e-07
8.68001e-07
9.71258e-07
1.25979e-06
1.40401e-06
1.06824e-06
2.57152e-07
0
0
0
1.00952e-06
1.93622e-06
2.15401e-06
1.55381e-06
5.30923e-07
0
0
0
0
0
0
0
0
0
0
0
0
0
0
0
0
0
0
0
0
0
0
6.75384e-09
0
0
0
0
8.90514e-07
1.5903e-06
1.36529e-06
9.18671e-07
2.75682e-07
0
3.52728e-07
4.58127e-07
5.52601e-07
7.635e-07
6.37615e-07
5.62432e-07
6.27777e-07
6.61608e-07
5.96069e-07
0
2.00981e-07
6.08687e-07
1.00003e-06
1.26869e-06
0
0
0
0
0
0
0
0
0
0
0
0
0
0
0
0
0
0
4.79635e-07
9.29572e-07
1.09531e-06
1.03481e-06
8.19929e-07
5.54319e-07
3.0448e-07
1.19121e-07
1.73265e-08
0
5.76169e-09
4.52679e-08
7.16287e-08
6.74141e-08
4.46626e-08
6.01415e-08
1.64442e-07
3.68681e-07
7.04286e-07
1.21308e-06
1.857e-06
2.3465e-06
1.77443e-06
0
0
0
0
0
0
0
0
0
0
0
0
0
0
2.09323e-07
2.10497e-06
1.87696e-06
0
0
0
0
7.51948e-07
6.04909e-07
3.19551e-07
1.56246e-07
8.61378e-08
5.40319e-08
3.03011e-08
1.24031e-08
0
0
0
0
0
0
0
0
0
0
0
0
2.20005e-07
4.89469e-07
5.0572e-07
2.63497e-07
0
0
0
0
0
0
0
0
0
0
0
1.83199e-08
4.44623e-08
3.07679e-08
2.47837e-08
2.70586e-08
3.86062e-08
6.45761e-08
1.13449e-07
2.21581e-07
4.57762e-07
8.6216e-07
1.11272e-06
7.50215e-07
0
0
0
0
3.31605e-07
4.33899e-07
3.32017e-07
2.10178e-07
0
0
0
0
8.27035e-07
9.23836e-07
1.94655e-07
0
0
0
0
0
4.26803e-07
1.15327e-06
1.21289e-06
4.71044e-07
0
0
0
0
0
9.33051e-08
9.28803e-08
3.71052e-09
0
0
0
2.8363e-07
2.52495e-08
0
0
8.8477e-08
0
0
0
0
1.22614e-07
3.685e-07
4.41928e-07
2.4864e-07
0
0
6.89645e-07
1.66011e-06
1.6049e-06
1.23868e-06
7.80312e-07
1.99993e-07
1.08035e-07
1.75134e-07
1.7371e-07
2.68498e-07
3.7005e-07
4.41079e-07
4.51165e-07
3.55642e-07
1.82314e-08
0
0
4.28249e-07
8.34674e-07
8.42619e-07
0
0
0
2.18785e-08
0
0
0
0
0
0
0
0
0
0
0
0
0
4.5792e-08
6.8057e-07
1.01808e-06
1.10278e-06
1.02104e-06
8.53927e-07
6.78896e-07
5.41685e-07
4.61971e-07
4.30083e-07
4.25251e-07
4.18955e-07
3.79178e-07
2.87633e-07
1.02027e-07
0
0
0
0
0
0
0
0
0
0
0
0
0
0
0
0
0
0
0
0
0
0
0
3.93228e-07
1.82414e-06
1.71982e-06
0
0
0
0
5.60101e-07
4.41105e-07
2.19566e-07
9.72063e-08
4.63516e-08
2.55803e-08
1.6091e-08
1.22239e-08
7.89364e-09
0
0
0
0
0
0
0
0
0
0
0
0
0
5.69722e-07
7.92421e-07
3.60145e-07
0
0
0
0
0
0
0
0
0
1.30117e-08
2.62272e-08
7.41609e-08
7.22172e-08
5.01897e-08
3.46001e-08
3.17271e-08
5.06759e-08
1.06706e-07
2.34687e-07
4.86501e-07
8.65572e-07
1.08583e-06
9.38843e-07
5.10705e-07
0
2.72581e-07
1.25794e-06
2.13449e-06
2.29823e-06
1.88962e-06
1.12526e-06
1.43555e-08
0
0
0
6.79132e-08
2.94829e-07
0
0
0
0
0
0
0
0
5.78795e-07
9.58423e-07
3.70254e-07
0
0
0
0
2.4076e-07
3.78745e-07
4.10112e-07
3.3182e-07
2.376e-07
3.89047e-07
8.26952e-07
9.85974e-07
4.81031e-07
2.9003e-07
5.23373e-07
8.06826e-07
7.03919e-07
2.22975e-07
2.13416e-07
3.36214e-07
5.24773e-07
7.41537e-07
8.48504e-07
8.27289e-07
7.90825e-07
1.09442e-06
1.72623e-06
1.72138e-06
1.3945e-06
1.0012e-06
5.72287e-07
2.10936e-07
1.16295e-07
6.94383e-08
1.16842e-07
2.44319e-07
3.25113e-07
2.92032e-07
1.62824e-07
0
0
0
1.10038e-08
3.51691e-07
1.27989e-07
0
0
0
7.85321e-08
0
0
0
0
1.30205e-05
7.01732e-06
4.93598e-07
0
0
0
0
0
0
3.28732e-07
8.27798e-07
1.06295e-06
1.10777e-06
1.03101e-06
9.22197e-07
8.29322e-07
7.74331e-07
7.4622e-07
7.28639e-07
7.09949e-07
6.68421e-07
5.94129e-07
4.65586e-07
2.05196e-07
0
0
0
0
0
0
0
0
0
0
0
0
0
0
0
0
0
0
0
0
0
0
0
9.15426e-07
1.6395e-06
1.3442e-06
3.31758e-07
0
0
5.63957e-07
5.82343e-07
2.75034e-07
9.51485e-08
2.80947e-08
9.93345e-09
8.05836e-09
1.01653e-08
7.76959e-09
4.29233e-09
1.32139e-10
0
0
0
6.84531e-11
1.0171e-08
5.44872e-08
1.36624e-07
0
0
0
0
0
0
3.42406e-07
8.72608e-07
4.46711e-07
0
0
0
0
0
0
0
0
0
4.50744e-08
5.91696e-08
7.18293e-08
5.83361e-08
3.54461e-08
1.81715e-08
2.5724e-08
7.62729e-08
1.97919e-07
4.14126e-07
6.99949e-07
9.5303e-07
1.15542e-06
1.33873e-06
1.56726e-06
2.36803e-06
3.77638e-06
4.94154e-06
5.26612e-06
4.76748e-06
3.65478e-06
2.0438e-06
5.61729e-07
0
0
1.20391e-07
0
0
0
0
0
0
0
0
0
0
9.22638e-07
1.02738e-06
3.8349e-07
0
0
0
2.22065e-07
4.90063e-07
6.29267e-07
7.06814e-07
6.94932e-07
8.12796e-07
1.25376e-06
1.73513e-06
1.51619e-06
9.26408e-07
9.66022e-07
1.36535e-06
1.70135e-06
1.60261e-06
1.08378e-06
7.92395e-07
7.34422e-07
8.72203e-07
1.07223e-06
1.21848e-06
1.33582e-06
1.53726e-06
1.79532e-06
1.70209e-06
1.40982e-06
1.06617e-06
7.23992e-07
4.27205e-07
2.25884e-07
5.1556e-08
5.90362e-09
1.63697e-07
2.75391e-07
2.31446e-07
1.7623e-07
0
0
0
0
1.23772e-07
0
0
0
1.26038e-07
0
0
0
0
0
1.31966e-05
1.26111e-05
2.45328e-06
6.36533e-07
0
0
0
0
0
6.50942e-07
1.11598e-06
1.27063e-06
1.25865e-06
1.16056e-06
1.06385e-06
9.9894e-07
9.63368e-07
9.362e-07
9.04257e-07
8.72567e-07
8.2635e-07
7.64535e-07
6.80938e-07
5.00117e-07
2.38673e-07
0
0
0
0
0
0
0
0
0
0
0
0
0
0
0
0
1.38959e-06
1.58744e-06
1.16005e-06
7.38911e-07
3.24421e-07
3.98005e-07
1.01137e-06
1.23554e-06
1.0648e-06
1.06191e-06
9.78808e-07
1.43633e-06
1.56339e-06
7.63263e-07
2.49697e-07
5.85225e-08
9.73757e-09
3.80783e-09
6.63608e-09
1.05783e-08
9.90193e-09
5.29795e-09
7.36232e-09
8.8742e-09
2.55961e-09
2.3359e-09
4.34066e-09
1.3952e-08
2.99066e-08
9.5978e-08
2.20988e-07
0
0
0
0
0
0
0
6.01119e-07
5.65359e-07
0
0
0
0
0
0
0
0
0
5.15808e-08
3.00996e-08
1.1115e-08
0
0
0
0
7.07255e-08
1.78787e-07
3.42734e-07
6.44913e-07
1.21238e-06
2.08609e-06
3.32628e-06
5.03112e-06
7.03354e-06
8.47898e-06
8.9569e-06
8.45198e-06
7.29045e-06
5.83722e-06
5.0758e-06
5.14542e-06
4.43918e-06
2.56295e-06
9.13038e-07
0
0
0
0
0
0
0
0
8.3565e-08
1.16751e-06
1.59028e-06
1.08523e-06
3.04259e-07
0
0
2.94066e-07
6.54381e-07
8.43539e-07
9.98942e-07
1.13094e-06
1.24838e-06
1.64576e-06
2.27681e-06
2.52836e-06
1.92778e-06
1.51778e-06
1.86718e-06
2.3502e-06
2.78319e-06
2.47519e-06
1.67793e-06
1.18263e-06
1.06412e-06
1.1806e-06
1.36288e-06
1.53855e-06
1.70696e-06
1.80883e-06
1.66459e-06
1.39119e-06
1.08412e-06
7.95286e-07
5.64061e-07
3.73072e-07
1.39203e-07
8.64599e-10
9.13083e-08
2.52529e-07
2.55104e-07
2.95648e-07
2.9365e-08
0
0
0
4.46487e-08
0
0
1.04287e-07
1.64169e-07
0
0
2.79705e-07
0
0
7.63238e-06
1.689e-05
4.89333e-06
1.46667e-06
7.08019e-07
4.16646e-07
0
0
0
4.48459e-07
1.09184e-06
1.31729e-06
1.31909e-06
1.22568e-06
1.13713e-06
1.08321e-06
1.05473e-06
1.02626e-06
9.86546e-07
9.40727e-07
8.86917e-07
8.35236e-07
8.13854e-07
7.61252e-07
6.4233e-07
4.93669e-07
3.23569e-07
9.47039e-08
0
0
0
0
0
0
0
0
0
0
0
1.09188e-06
4.51144e-06
3.88758e-06
2.62178e-06
1.4529e-06
8.19209e-07
6.82781e-07
8.71549e-07
1.07719e-06
1.11257e-06
1.48939e-06
2.66229e-06
2.68848e-06
2.69967e-06
1.8746e-06
8.13791e-07
2.83032e-07
9.30042e-08
3.56462e-08
2.12393e-08
1.77146e-08
1.67011e-08
1.67733e-08
1.48735e-08
1.25888e-08
1.14118e-08
1.01427e-08
1.19201e-08
9.99033e-09
1.09505e-08
1.37829e-08
2.08008e-08
4.98674e-08
6.61249e-08
0
0
0
0
0
0
0
1.16886e-07
5.69838e-07
0
0
0
0
0
0
0
0
0
0
0
0
0
0
0
0
0
0
8.43738e-08
9.09841e-07
2.39709e-06
4.59682e-06
7.25677e-06
9.85084e-06
1.15974e-05
1.22676e-05
1.19225e-05
1.07893e-05
9.04009e-06
7.68438e-06
6.93886e-06
5.71196e-06
3.59517e-06
1.60434e-06
2.84383e-07
0
0
5.76884e-08
5.55415e-07
5.13918e-07
8.83684e-08
8.73766e-08
9.04582e-07
1.93955e-06
2.39233e-06
1.84627e-06
7.50109e-07
0
0
3.4968e-07
8.97304e-07
1.21122e-06
1.40105e-06
1.61592e-06
1.79787e-06
2.09217e-06
2.74728e-06
3.31808e-06
3.03846e-06
2.32574e-06
2.37516e-06
2.93052e-06
3.55672e-06
3.9308e-06
2.98896e-06
1.96983e-06
1.43384e-06
1.31628e-06
1.41865e-06
1.58625e-06
1.71225e-06
1.70198e-06
1.54411e-06
1.31587e-06
1.06149e-06
8.18363e-07
6.28648e-07
4.73169e-07
2.34628e-07
5.25321e-08
3.74078e-08
1.86218e-07
2.50287e-07
3.32771e-07
3.83629e-08
0
0
1.19001e-07
1.74187e-08
0
0
2.65013e-07
1.02652e-07
0
2.90376e-07
9.24927e-07
0
0
5.27139e-06
1.33912e-05
7.47489e-06
2.52147e-06
1.67124e-06
1.54321e-06
3.36132e-07
0
0
0
9.47027e-07
1.31463e-06
1.34857e-06
1.24055e-06
1.1127e-06
1.0246e-06
9.73371e-07
9.29966e-07
8.83598e-07
8.25587e-07
7.57926e-07
6.98887e-07
6.79172e-07
6.9652e-07
6.84675e-07
6.57734e-07
6.1493e-07
5.31107e-07
3.60754e-07
5.2352e-08
0
0
0
0
0
0
0
0
0
8.44437e-06
5.43185e-06
3.28815e-06
1.92642e-06
9.2635e-07
6.13171e-07
8.89442e-07
1.16736e-06
1.16702e-06
1.39196e-06
2.74586e-06
3.89675e-06
3.30921e-06
3.04674e-06
1.71584e-06
6.58717e-07
2.55816e-07
1.12619e-07
6.02538e-08
3.91794e-08
2.99908e-08
2.61448e-08
2.43368e-08
2.03373e-08
1.5713e-08
1.51209e-08
1.47991e-08
1.39983e-08
1.14119e-08
8.28599e-09
7.06586e-09
4.49024e-09
3.30524e-10
0
0
0
0
0
0
0
0
0
0
3.90861e-07
1.86407e-07
0
0
0
0
0
0
0
0
0
0
0
0
0
0
0
0
0
2.57341e-07
2.17002e-06
5.03758e-06
8.33641e-06
1.12054e-05
1.28806e-05
1.3206e-05
1.25267e-05
1.05532e-05
7.63105e-06
5.36595e-06
4.05901e-06
3.19915e-06
2.20982e-06
9.17962e-07
0
0
0
0
0
0
0
6.36094e-07
1.85258e-06
2.99197e-06
3.4088e-06
2.70985e-06
1.23085e-06
0
0
3.52001e-07
1.12973e-06
1.63797e-06
1.93374e-06
2.21318e-06
2.48102e-06
2.73926e-06
3.25476e-06
3.9941e-06
4.03339e-06
3.30675e-06
3.01829e-06
3.55395e-06
4.20983e-06
5.05793e-06
4.52014e-06
3.07201e-06
2.01802e-06
1.5588e-06
1.49364e-06
1.56969e-06
1.61102e-06
1.55032e-06
1.39678e-06
1.19735e-06
9.94825e-07
7.9473e-07
6.36171e-07
5.29196e-07
3.30784e-07
8.97213e-08
0
1.64373e-08
6.96405e-09
1.83502e-07
0
0
0
3.52967e-07
2.47118e-07
0
3.34434e-07
3.24618e-07
0
0
1.35658e-06
3.08816e-07
0
0
2.1823e-06
5.76501e-06
6.02149e-06
1.12283e-06
6.10358e-07
0
0
0
0
0
0
5.95008e-07
8.88421e-07
9.32578e-07
8.73536e-07
8.01453e-07
7.49169e-07
7.09012e-07
6.68927e-07
6.19155e-07
5.53195e-07
4.81544e-07
4.25578e-07
4.09819e-07
4.14184e-07
4.21616e-07
4.39204e-07
4.52523e-07
4.30843e-07
3.46719e-07
1.73154e-07
0
0
0
0
0
0
0
4.95767e-06
4.28298e-06
1.93034e-06
1.00233e-06
4.231e-07
3.84746e-08
4.25725e-07
1.20836e-06
1.52245e-06
1.52574e-06
2.3467e-06
4.47519e-06
4.13218e-06
3.63734e-06
2.82994e-06
1.26285e-06
5.20812e-07
2.46567e-07
1.35951e-07
8.51249e-08
5.77742e-08
4.22354e-08
3.4409e-08
3.06014e-08
2.72382e-08
2.29313e-08
2.0286e-08
1.92564e-08
1.60093e-08
1.16735e-08
8.03996e-09
3.90685e-09
0
0
0
0
0
0
0
0
0
0
0
0
0
1.78565e-07
2.92799e-07
0
0
0
0
0
0
0
0
0
0
0
0
0
0
0
0
0
1.50899e-06
4.71338e-06
8.40002e-06
1.14127e-05
1.27197e-05
1.24185e-05
1.11765e-05
8.88897e-06
6.25561e-06
4.18621e-06
2.84586e-06
2.07204e-06
1.34414e-06
1.77833e-07
0
0
0
0
0
0
0
7.59436e-07
2.78229e-06
4.06387e-06
4.32037e-06
3.34977e-06
1.55064e-06
0
0
4.40165e-07
1.46396e-06
2.15164e-06
2.58384e-06
2.90587e-06
3.27714e-06
3.58472e-06
4.02953e-06
4.67297e-06
5.02117e-06
4.41381e-06
3.88722e-06
4.25224e-06
4.89055e-06
5.88416e-06
6.02931e-06
4.39028e-06
2.81734e-06
1.91808e-06
1.5989e-06
1.53631e-06
1.4866e-06
1.38231e-06
1.22486e-06
1.05348e-06
9.05116e-07
7.45509e-07
6.09152e-07
5.3773e-07
4.3302e-07
1.65995e-07
0
0
0
0
0
0
9.56775e-08
5.47258e-07
1.01179e-06
6.1955e-07
4.68533e-07
3.15989e-07
0
1.04466e-06
2.48063e-06
0
0
0
0
0
0
0
0
0
0
0
4.75047e-08
0
0
1.45803e-08
4.12302e-07
5.60872e-07
5.47724e-07
4.83659e-07
4.22753e-07
3.73793e-07
3.2804e-07
2.76427e-07
2.15455e-07
1.49966e-07
9.16874e-08
4.97088e-08
2.88763e-08