/*--------------------------------*- C++ -*----------------------------------*\
  =========                 |
  \\      /  F ield         | OpenFOAM: The Open Source CFD Toolbox
   \\    /   O peration     | Website:  https://openfoam.org
    \\  /    A nd           | Version:  9
     \\/     M anipulation  |
\*---------------------------------------------------------------------------*/
FoamFile
{
    format      ascii;
    class       volScalarField;
    location    "0.081";
    object      p;
}
// * * * * * * * * * * * * * * * * * * * * * * * * * * * * * * * * * * * * * //

dimensions      [0 2 -2 0 0 0 0];

internalField   nonuniform List<scalar> 
12225
(
701.171
703.481
704.155
703.604
702.225
700.224
697.781
695.048
692.094
688.947
685.625
682.15
678.535
674.823
670.979
667.018
662.708
657.773
700.183
703.545
704.19
703.628
702.248
700.256
697.819
695.081
692.116
688.96
685.633
682.155
678.539
674.819
670.978
667.001
662.731
657.834
700.331
703.724
704.298
703.718
702.334
700.348
697.909
695.155
692.17
688.992
685.647
682.16
678.547
674.833
671.01
667.04
662.809
658.147
701.601
704.137
704.505
703.885
702.472
700.469
698.022
695.258
692.259
689.069
685.712
682.218
678.607
674.899
671.088
667.142
663.005
658.638
704.126
704.758
704.792
704.119
702.682
700.67
698.21
695.423
692.397
689.18
685.809
682.312
678.707
675.011
671.225
667.335
663.328
659.241
705.172
705.373
705.209
704.462
702.976
700.925
698.441
695.632
692.588
689.355
685.969
682.464
678.862
675.182
671.433
667.618
663.754
659.907
707.04
706.093
705.709
704.883
703.357
701.279
698.765
695.922
692.84
689.577
686.174
682.666
679.075
675.419
671.716
667.983
664.255
660.604
709.073
706.753
706.315
705.454
703.868
701.731
699.17
696.289
693.177
689.889
686.467
682.95
679.365
675.735
672.082
668.434
664.831
661.338
707.444
707.365
707.041
706.152
704.497
702.295
699.679
696.745
693.584
690.259
686.817
683.295
679.721
676.119
672.515
668.943
665.445
662.076
707.273
707.85
707.882
707.041
705.309
703.021
700.334
697.339
694.127
690.76
687.284
683.744
680.172
676.594
673.037
669.534
666.122
662.846
706.38
708.694
709.024
708.118
706.272
703.89
701.109
698.025
694.741
691.323
687.818
684.267
680.7
677.145
673.63
670.187
666.847
663.645
704.975
709.564
710.354
709.369
707.396
704.886
701.996
698.828
695.474
691.997
688.448
684.869
681.292
677.747
674.258
670.854
667.561
664.405
707.909
711.529
712.083
710.858
708.684
706.022
703.008
699.727
696.276
692.725
689.127
685.523
681.941
678.403
674.932
671.555
668.294
665.171
710.759
714.305
714.511
712.942
710.479
707.592
704.391
700.959
697.389
693.745
690.077
686.424
682.812
679.263
675.798
672.438
669.199
666.093
717.385
718.544
717.787
715.721
712.921
709.717
706.247
702.59
698.84
695.061
691.294
687.57
683.913
680.341
676.868
673.51
670.277
667.178
731.802
726.498
723.206
720.112
716.487
712.679
708.777
704.795
700.799
696.835
692.929
689.101
685.37
681.746
678.237
674.852
671.601
668.489
734.605
731.922
728.648
724.786
720.693
716.476
712.103
707.701
703.377
699.155
695.039
691.046
687.193
683.482
679.908
676.471
673.178
670.029
744.846
743.338
738.392
732.788
727.246
721.767
716.501
711.485
706.689
702.093
697.692
693.483
689.465
685.624
681.948
678.431
675.077
671.882
772.384
759.863
749.864
741.574
734.373
727.762
721.644
715.982
710.683
705.67
700.923
696.436
692.191
688.164
684.333
680.691
677.232
673.946
782.463
770.591
759.25
749.336
740.846
733.221
726.226
719.883
714.078
708.689
703.647
698.925
694.494
690.323
686.383
682.654
679.125
675.783
801.782
779.824
765.339
754.03
744.654
736.555
729.249
722.609
716.493
710.871
705.63
700.732
696.157
691.863
687.817
683.999
680.395
676.988
796.736
781.373
767.997
756.805
747.191
738.774
731.231
724.35
718.091
712.338
706.997
702.02
697.369
693.005
688.896
685.022
681.368
677.92
799.087
782.129
769.081
758.177
748.707
740.302
732.7
725.724
719.335
713.455
708.022
702.967
698.247
693.827
689.674
685.763
682.075
678.596
796.106
781.34
769.34
758.845
749.539
741.157
733.524
726.529
720.109
714.21
708.738
703.65
698.893
694.429
690.236
686.297
682.578
679.078
786.192
779.156
769.008
759.103
750.076
741.803
734.197
727.185
720.764
714.777
709.245
704.102
699.302
694.811
690.597
686.635
682.918
679.409
790.085
778.92
768.694
759.187
750.345
742.129
734.549
727.549
721.1
715.119
709.574
704.421
699.609
695.101
690.871
686.899
683.161
679.643
788.101
778.106
768.428
759.215
750.542
742.383
734.828
727.852
721.361
715.353
709.788
704.62
699.793
695.273
691.033
687.052
683.316
679.795
786.214
777.507
768.244
759.183
750.584
742.496
734.959
727.989
721.502
715.484
709.914
704.743
699.914
695.389
691.144
687.158
683.413
679.887
783.628
777.161
768.146
759.203
750.657
742.589
735.056
728.075
721.578
715.556
709.987
704.817
699.986
695.454
691.2
687.208
683.46
679.934
784.78
776.97
768.077
759.172
750.655
742.629
735.118
728.126
721.611
715.573
710
704.836
700.011
695.484
691.232
687.239
683.488
679.961
593.733
593.576
593.321
593.014
592.681
592.352
592.056
591.813
591.642
591.534
591.464
591.398
591.309
591.186
591.041
590.829
590.53
590.169
589.759
589.294
588.764
588.173
587.521
586.806
586.026
585.178
584.259
583.263
582.175
580.963
579.588
578.072
576.51
575.004
573.601
572.309
571.154
570.174
569.402
568.872
568.552
568.421
568.479
568.711
569.097
569.606
570.211
570.891
571.614
572.344
573.057
573.716
574.277
574.694
574.911
574.875
574.553
573.937
573.03
571.864
570.461
568.803
566.882
564.741
562.434
559.998
557.481
554.953
552.54
550.339
548.416
546.833
545.521
544.313
543.11
541.646
539.545
537.766
536.411
534.515
532.204
529.83
527.378
524.704
521.786
518.694
515.501
512.241
508.935
505.58
502.164
498.663
495.053
491.307
487.399
483.299
478.979
474.407
469.547
464.362
458.814
452.87
446.521
439.783
432.715
425.423
418.061
410.821
403.913
397.546
391.907
387.142
383.353
380.592
378.864
378.164
378.407
379.499
381.326
383.759
386.655
389.863
393.226
396.589
399.807
402.751
405.316
407.423
409.014
410.058
410.545
410.485
409.901
408.744
407.2
405.248
402.946
400.347
397.505
394.468
391.281
387.984
384.61
381.184
377.719
374.214
370.662
367.075
363.469
359.861
356.266
352.671
349.063
345.429
341.763
338.061
334.329
330.579
326.825
323.076
319.334
315.592
311.847
308.093
304.318
300.51
296.68
292.846
289.003
285.142
281.27
277.368
273.393
269.348
265.314
261.351
257.498
253.867
250.425
247.116
593.771
593.671
593.424
593.083
592.651
592.211
591.801
591.471
591.272
591.181
591.125
591.108
591.151
591.148
591.063
590.876
590.594
590.257
589.868
589.408
588.871
588.263
587.588
586.84
586.01
585.083
584.047
582.892
581.616
580.206
578.666
577.084
575.592
574.215
572.889
571.599
570.416
569.453
568.769
568.297
568.018
567.933
568.029
568.284
568.681
569.197
569.809
570.489
571.208
571.932
572.63
573.269
573.808
574.203
574.404
574.366
574.057
573.466
572.604
571.514
570.195
568.582
566.655
564.508
562.194
559.717
557.092
554.428
551.839
549.434
547.397
545.809
544.645
543.705
542.816
541.543
539.531
537.873
536.472
534.521
532.259
529.913
527.411
524.638
521.649
518.534
515.345
512.12
508.861
505.556
502.187
498.732
495.161
491.448
487.562
483.474
479.149
474.554
469.649
464.396
458.761
452.715
446.248
439.383
432.186
424.774
417.308
409.986
403.023
396.629
390.992
386.255
382.514
379.814
378.166
377.508
377.787
378.909
380.767
383.231
386.161
389.407
392.81
396.216
399.475
402.459
405.06
407.198
408.818
409.888
410.398
410.356
409.78
408.67
407.13
405.19
402.899
400.31
397.475
394.442
391.257
387.96
384.59
381.167
377.697
374.182
370.621
367.03
363.425
359.84
356.267
352.695
349.089
345.443
341.766
338.06
334.327
330.577
326.823
323.075
319.333
315.59
311.843
308.09
304.316
300.507
296.673
292.839
288.996
285.133
281.259
277.364
273.389
269.341
265.301
261.328
257.466
253.813
250.364
246.889
594.475
594.443
594.151
593.673
593.089
592.494
591.957
591.523
591.237
591.12
591.071
591.094
591.161
591.209
591.181
590.988
590.659
590.272
589.83
589.293
588.681
588.012
587.283
586.476
585.571
584.552
583.414
582.161
580.809
579.387
577.928
576.466
575.018
573.6
572.25
571.012
569.922
569.006
568.278
567.743
567.406
567.247
567.28
567.499
567.882
568.401
569.026
569.715
570.43
571.14
571.807
572.398
572.883
573.229
573.402
573.368
573.095
572.573
571.817
570.851
569.66
568.091
566.149
564.02
561.725
559.219
556.488
553.625
550.73
547.961
545.613
543.88
542.79
542.163
541.75
541.202
540.145
538.835
537.228
535.081
532.483
529.8
526.983
524.051
521.047
517.999
514.922
511.818
508.676
505.478
502.201
498.819
495.307
491.636
487.777
483.696
479.357
474.721
469.749
464.399
458.638
452.44
445.802
438.753
431.368
423.772
416.14
408.68
401.612
395.145
389.467
384.724
381.01
378.365
376.769
376.176
376.516
377.697
379.612
382.137
385.135
388.456
391.942
395.432
398.776
401.838
404.511
406.712
408.387
409.507
410.061
410.061
409.522
408.459
406.948
405.036
402.771
400.204
397.388
394.37
391.196
387.907
384.535
381.106
377.634
374.124
370.582
367.011
363.43
359.846
356.259
352.665
349.055
345.422
341.759
338.059
334.325
330.57
326.813
323.065
319.323
315.582
311.838
308.087
304.314
300.503
296.666
292.825
288.981
285.124
281.253
277.35
273.377
269.328
265.266
261.273
257.412
253.74
250.25
246.683
594.949
594.919
594.608
594.03
593.328
592.625
591.971
591.426
591.053
590.773
590.621
590.566
590.59
590.634
590.679
590.608
590.371
589.993
589.471
588.863
588.207
587.5
586.716
585.829
584.826
583.703
582.465
581.129
579.713
578.241
576.72
575.158
573.582
572.054
570.631
569.348
568.218
567.264
566.504
565.954
565.646
565.586
565.74
566.074
566.561
567.17
567.865
568.607
569.358
570.078
570.732
571.292
571.733
572.034
572.18
572.154
571.933
571.509
570.879
570.013
568.865
567.309
565.368
563.306
561.061
558.54
555.71
552.629
549.392
546.225
543.542
541.569
540.524
540.218
540.35
540.384
539.947
539.011
537.456
535.196
532.22
529.344
526.399
523.445
520.496
517.543
514.578
511.584
508.544
505.436
502.237
498.921
495.462
491.828
487.988
483.907
479.545
474.861
469.811
464.351
458.44
452.053
445.185
437.867
430.187
422.292
414.38
406.679
399.421
392.828
387.094
382.362
378.709
376.155
374.653
374.156
374.589
375.857
377.856
380.471
383.571
387.007
390.618
394.239
397.709
400.891
403.669
405.963
407.72
408.912
409.533
409.593
409.109
408.104
406.642
404.772
402.545
400.014
397.229
394.238
391.085
387.81
384.449
381.028
377.561
374.053
370.511
366.942
363.367
359.796
356.223
352.639
349.035
345.403
341.739
338.04
334.311
330.562
326.809
323.064
319.324
315.582
311.835
308.081
304.308
300.498
296.657
292.809
288.961
285.106
281.235
277.333
273.36
269.298
265.211
261.205
257.346
253.656
250.118
246.486
594.623
594.342
593.74
592.944
592.162
591.446
590.75
590.186
589.833
589.565
589.332
589.306
589.382
589.449
589.457
589.374
589.218
588.959
588.561
588.059
587.464
586.758
585.917
584.926
583.784
582.502
581.094
579.583
577.992
576.347
574.67
572.982
571.316
569.725
568.265
566.974
565.873
564.972
564.295
563.858
563.648
563.669
563.907
564.338
564.93
565.644
566.442
567.28
568.117
568.912
569.626
570.227
570.687
570.984
571.108
571.054
570.825
570.427
569.836
568.995
567.865
566.274
564.388
562.45
560.273
557.72
554.743
551.317
547.531
543.736
540.496
538.434
537.634
537.869
538.578
539.111
539.248
538.626
537.102
534.695
531.718
528.772
525.849
522.961
520.094
517.23
514.351
511.44
508.474
505.432
502.291
499.024
495.604
491.996
488.167
484.078
479.686
474.944
469.803
464.208
458.111
451.474
444.287
436.59
428.491
420.166
411.851
403.818
396.332
389.622
383.864
379.181
375.627
373.191
371.834
371.486
372.053
373.441
375.552
378.282
381.512
385.098
388.876
392.669
396.308
399.644
402.559
404.971
406.831
408.114
408.82
408.957
408.545
407.61
406.21
404.394
402.215
399.727
396.983
394.03
390.91
387.661
384.316
380.902
377.44
373.943
370.42
366.877
363.323
359.763
356.182
352.597
348.994
345.365
341.707
338.019
334.301
330.561
326.814
323.069
319.327
315.584
311.835
308.08
304.306
300.496
296.652
292.794
288.936
285.077
281.211
277.308
273.333
269.261
265.159
261.141
257.283
253.575
249.98
246.273
593.88
593.387
592.639
591.826
591.046
590.313
589.59
589.081
588.786
588.525
588.376
588.389
588.325
588.258
588.306
588.321
588.244
588.03
587.683
587.204
586.568
585.752
584.747
583.557
582.192
580.672
579.023
577.278
575.474
573.645
571.824
570.04
568.327
566.721
565.255
563.963
562.876
562.016
561.398
561.031
560.918
561.049
561.409
561.972
562.708
563.576
564.534
565.535
566.531
567.478
568.333
569.059
569.623
569.999
570.174
570.146
569.922
569.507
568.893
568.051
566.941
565.435
563.714
561.893
559.749
557.182
554.065
550.267
545.846
541.255
537.36
534.974
534.355
535.143
536.485
537.722
538.306
537.811
536.259
533.911
531.109
528.286
525.475
522.681
519.888
517.081
514.249
511.382
508.454
505.447
502.337
499.1
495.706
492.115
488.289
484.184
479.753
474.939
469.683
463.917
457.576
450.61
442.999
434.787
426.114
417.23
408.454
400.103
392.446
385.691
379.981
375.405
371.999
369.731
368.583
368.435
369.169
370.688
372.911
375.757
379.125
382.879
386.85
390.847
394.683
398.197
401.263
403.803
405.771
407.151
407.947
408.171
407.842
406.991
405.665
403.915
401.792
399.354
396.655
393.745
390.665
387.453
384.139
380.751
377.306
373.821
370.308
366.775
363.229
359.67
356.12
352.546
348.948
345.325
341.674
337.995
334.288
330.561
326.822
323.082
319.342
315.598
311.844
308.08
304.3
300.49
296.644
292.777
288.907
285.042
281.173
277.271
273.295
269.223
265.113
261.086
257.23
253.499
249.831
246.058
593.043
592.568
591.961
591.281
590.61
589.982
589.391
588.937
588.613
588.317
588.125
588.081
588.058
588.029
587.979
587.879
587.7
587.397
586.94
586.304
585.467
584.417
583.157
581.701
580.074
578.308
576.438
574.498
572.517
570.525
568.549
566.619
564.766
563.023
561.429
560.023
558.846
557.939
557.328
557.023
557.008
557.278
557.815
558.588
559.556
560.673
561.887
563.144
564.392
565.579
566.659
567.592
568.345
568.894
569.225
569.326
569.193
568.832
568.252
567.46
566.43
565.102
563.57
561.801
559.759
557.268
554.222
550.368
545.742
540.723
536.277
533.48
532.673
533.479
535.099
536.76
537.371
536.825
535.373
533.191
530.65
527.99
525.295
522.569
519.818
517.04
514.229
511.375
508.458
505.459
502.356
499.132
495.753
492.168
488.336
484.206
479.723
474.819
469.419
463.437
456.788
449.394
441.224
432.347
422.993
413.531
404.368
395.832
388.144
381.448
375.858
371.439
368.231
366.177
365.251
365.286
366.155
367.768
370.068
373.008
376.512
380.453
384.652
388.892
392.959
396.673
399.902
402.569
404.639
406.105
406.979
407.28
407.028
406.262
405.017
403.339
401.282
398.902
396.255
393.392
390.358
387.189
383.913
380.556
377.139
373.677
370.184
366.669
363.141
359.601
356.052
352.484
348.895
345.28
341.637
337.966
334.27
330.556
326.83
323.096
319.355
315.607
311.847
308.077
304.293
300.482
296.633
292.755
288.87
284.999
281.129
277.229
273.253
269.185
265.08
261.058
257.191
253.426
249.687
245.855
593.057
592.615
592.06
591.379
590.711
590.128
589.616
589.217
588.949
588.734
588.562
588.435
588.318
588.186
588.013
587.773
587.422
586.915
586.227
585.338
584.231
582.904
581.369
579.649
577.773
575.767
573.658
571.47
569.224
566.941
564.648
562.38
560.184
558.116
556.238
554.611
553.29
552.323
551.738
551.532
551.676
552.167
552.977
554.064
555.375
556.851
558.433
560.061
561.675
563.217
564.63
565.867
566.89
567.678
568.223
568.519
568.564
568.356
567.901
567.212
566.3
565.168
563.813
562.202
560.335
558.092
555.316
551.814
547.529
542.727
538.243
535.119
533.849
534.115
535.361
536.647
536.858
536.213
534.807
532.752
530.365
527.805
525.181
522.503
519.787
517.036
514.244
511.399
508.486
505.485
502.375
499.137
495.773
492.175
488.319
484.148
479.595
474.578
469.003
462.76
455.728
447.8
438.942
429.304
419.276
409.374
400.032
391.498
383.884
377.25
371.692
367.348
364.308
362.446
361.7
361.898
362.878
364.547
366.882
369.886
373.524
377.685
382.17
386.725
391.093
395.062
398.49
401.305
403.487
405.042
405.995
406.363
406.175
405.472
404.293
402.683
400.692
398.375
395.786
392.978
389.996
386.876
383.646
380.329
376.944
373.51
370.041
366.55
363.042
359.518
355.977
352.418
348.836
345.23
341.596
337.936
334.251
330.547
326.828
323.099
319.361
315.613
311.851
308.074
304.279
300.459
296.608
292.726
288.829
284.944
281.078
277.181
273.207
269.149
265.062
261.047
257.164
253.358
249.553
245.668
594.881
594.447
593.826
593.039
592.231
591.486
590.814
590.226
589.788
589.477
589.25
589.063
588.876
588.656
588.367
587.97
587.424
586.696
585.758
584.591
583.193
581.572
579.746
577.734
575.553
573.217
570.738
568.128
565.407
562.609
559.78
556.98
554.283
551.772
549.531
547.642
546.168
545.152
544.627
544.523
544.909
545.735
546.94
548.454
550.204
552.124
554.15
556.229
558.305
560.319
562.201
563.879
565.296
566.421
567.247
567.782
568.039
568.031
567.763
567.25
566.51
565.578
564.426
563.085
561.458
559.572
557.273
554.45
551.008
547.072
543.212
540.183
538.35
537.66
537.735
537.833
537.407
536.373
534.694
532.546
530.156
527.648
525.072
522.446
519.775
517.059
514.292
511.462
508.555
505.551
502.428
499.145
495.835
492.185
488.285
484.054
479.409
474.253
468.47
461.915
454.423
445.863
436.238
425.853
415.304
405.196
395.868
387.393
379.752
372.998
367.296
362.868
359.878
358.258
357.79
358.223
359.332
361.017
363.314
366.308
370.039
374.428
379.254
384.203
388.957
393.252
396.927
399.92
402.235
403.904
404.963
405.433
405.333
404.688
403.551
401.982
400.04
397.778
395.25
392.503
389.58
386.516
383.34
380.072
376.729
373.329
369.887
366.418
362.932
359.426
355.9
352.35
348.777
345.179
341.554
337.903
334.228
330.533
326.821
323.097
319.361
315.611
311.847
308.064
304.26
300.433
296.58
292.698
288.797
284.904
281.026
277.123
273.152
269.111
265.049
261.043
257.14
253.291
249.429
245.504
598.356
598.023
597.439
596.651
595.747
594.847
594.011
593.258
592.597
592.024
591.53
591.09
590.666
590.214
589.685
589.03
588.205
587.171
585.907
584.403
582.663
580.696
578.509
576.105
573.481
570.635
567.573
564.318
560.907
557.397
553.865
550.401
547.108
544.099
541.486
539.35
537.749
536.721
536.271
536.526
537.354
538.671
540.384
542.4
544.627
546.984
549.419
551.897
554.397
556.885
559.296
561.531
563.485
565.085
566.305
567.156
567.675
567.895
567.836
567.534
566.994
566.277
565.331
564.257
562.905
561.37
559.56
557.442
554.947
552.111
549.213
546.67
544.544
542.954
541.719
540.471
538.955
537.083
534.875
532.473
529.99
527.493
524.969
522.404
519.786
517.108
514.37
511.562
508.668
505.672
502.552
499.286
495.866
492.215
488.274
483.968
479.214
473.898
467.874
460.957
452.944
443.696
433.308
422.296
411.441
401.307
392.025
383.481
375.6
368.519
362.557
358.035
355.127
353.884
353.885
354.675
355.932
357.56
359.688
362.534
366.254
370.821
375.987
381.371
386.561
391.22
395.164
398.34
400.795
402.594
403.788
404.4
404.435
403.9
402.828
401.286
399.362
397.131
394.651
391.964
389.107
386.11
382.996
379.785
376.493
373.136
369.727
366.284
362.818
359.331
355.82
352.283
348.718
345.128
341.511
337.869
334.203
330.516
326.811
323.09
319.353
315.602
311.835
308.049
304.239
300.405
296.549
292.673
288.78
284.878
280.975
277.051
273.083
269.067
265.037
261.039
257.112
253.222
249.318
245.364
602.303
602.062
601.606
600.959
600.162
599.281
598.39
597.547
596.752
596.005
595.292
594.588
593.862
593.076
592.186
591.148
589.924
588.487
586.819
584.914
582.766
580.365
577.697
574.744
571.493
567.945
564.122
560.071
555.86
551.572
547.307
543.172
539.282
535.758
532.725
530.306
528.606
527.685
527.562
528.157
529.429
531.3
533.649
536.339
539.226
542.177
545.074
547.863
550.591
553.338
556.132
558.885
561.432
563.614
565.346
566.614
567.46
567.94
568.107
568.005
567.666
567.137
566.415
565.52
564.459
563.208
561.771
560.148
558.317
556.268
554.086
551.871
549.634
547.447
545.262
542.971
540.521
537.912
535.207
532.5
529.871
527.347
524.874
522.374
519.81
517.174
514.469
511.688
508.814
505.831
502.718
499.451
495.995
492.287
488.316
483.922
479.048
473.559
467.273
459.962
451.401
441.473
430.401
418.921
407.918
397.801
388.481
379.713
371.459
364.011
357.85
353.395
350.834
350.111
350.702
351.901
353.267
354.703
356.469
358.971
362.525
367.18
372.639
378.448
384.068
389.079
393.26
396.586
399.145
401.054
402.39
403.177
403.395
403.024
402.072
400.594
398.688
396.462
394.003
391.364
388.573
385.65
382.61
379.467
376.236
372.929
369.562
366.149
362.704
359.235
355.74
352.215
348.661
345.078
341.469
337.835
334.176
330.495
326.795
323.077
319.342
315.589
311.819
308.027
304.214
300.378
296.52
292.642
288.749
284.843
280.92
276.975
273.007
269.019
265.02
261.025
257.074
253.149
249.216
245.242
606.524
606.344
605.98
605.446
604.778
604.017
603.211
602.362
601.494
600.614
599.714
598.774
597.763
596.647
595.389
593.958
592.327
590.479
588.396
586.06
583.446
580.525
577.265
573.645
569.664
565.346
560.742
555.913
550.927
545.858
540.791
535.835
531.126
526.825
523.111
520.157
518.126
517.119
517.169
518.121
519.971
522.603
525.846
529.51
533.408
537.342
541.1
544.501
547.528
550.368
553.249
556.272
559.301
562.066
564.361
566.109
567.335
568.105
568.5
568.586
568.44
568.068
567.532
566.801
565.926
564.893
563.72
562.389
560.903
559.261
557.449
555.34
553.022
550.491
547.758
544.849
541.825
538.74
535.644
532.638
529.832
527.251
524.801
522.355
519.85
517.264
514.597
511.842
508.988
506.02
502.917
499.65
496.18
492.451
488.402
483.925
478.94
473.274
466.723
459.014
449.926
439.383
427.752
415.943
404.854
394.731
385.302
376.267
367.67
359.987
353.804
349.552
347.421
347.312
348.579
350.202
351.638
352.75
353.982
355.97
359.211
363.881
369.572
375.747
381.721
386.992
391.32
394.706
397.297
399.269
400.733
401.708
402.144
401.985
401.208
399.846
397.993
395.778
393.324
390.712
387.978
385.132
382.176
379.115
375.954
372.708
369.389
366.012
362.592
359.14
355.659
352.147
348.604
345.031
341.429
337.8
334.147
330.472
326.777
323.061
319.326
315.572
311.799
308.003
304.187
300.349
296.488
292.604
288.704
284.791
280.86
276.907
272.939
268.965
264.989
260.986
257.014
253.067
249.117
245.132
610.347
610.235
609.985
609.588
609.061
608.413
607.66
606.832
605.943
604.994
603.975
602.868
601.647
600.285
598.752
597.024
595.079
592.895
590.445
587.696
584.609
581.142
577.267
572.976
568.291
563.253
557.911
552.308
546.482
540.481
534.382
528.316
522.473
517.091
512.441
508.78
506.306
505.172
505.263
506.724
509.349
512.905
517.154
521.869
526.854
531.944
536.918
541.418
545.153
548.221
551.074
554.093
557.375
560.619
563.442
565.664
567.258
568.325
568.955
569.226
569.225
569.008
568.585
567.991
567.23
566.337
565.298
564.112
562.754
561.196
559.389
557.363
555.004
552.317
549.352
546.192
542.909
539.56
536.197
532.934
529.933
527.238
524.773
522.369
519.924
517.397
514.772
512.043
509.204
506.247
503.152
499.886
496.406
492.657
488.563
484.023
478.916
473.064
466.278
458.211
448.658
437.615
425.564
413.524
402.353
392.209
382.687
373.489
364.722
356.984
350.917
346.932
345.206
345.664
347.608
349.59
351.033
351.719
352.249
353.564
356.376
360.97
366.935
373.472
379.749
385.163
389.467
392.742
395.243
397.212
398.781
399.952
400.635
400.726
400.166
398.972
397.22
395.048
392.607
390.012
387.324
384.554
381.69
378.72
375.643
372.467
369.205
365.871
362.48
359.047
355.579
352.079
348.547
344.983
341.389
337.767
334.119
330.448
326.755
323.042
319.307
315.552
311.777
307.979
304.159
300.317
296.452
292.563
288.654
284.734
280.802
276.846
272.871
268.891
264.894
260.914
256.934
252.974
249.016
245.027
613.633
613.578
613.412
613.108
612.66
612.098
611.428
610.659
609.795
608.835
607.769
606.582
605.252
603.754
602.064
600.156
598.002
595.571
592.825
589.717
586.2
582.237
577.81
572.927
567.623
561.937
555.893
549.5
542.765
535.725
528.484
521.227
514.228
507.816
502.334
498.09
495.307
494.117
494.533
496.487
499.824
504.263
509.472
515.111
520.911
526.779
532.728
538.41
543.17
546.772
549.62
552.557
555.877
559.432
562.669
565.308
567.253
568.582
569.413
569.854
569.97
569.849
569.52
569.005
568.311
567.478
566.498
565.345
564.016
562.488
560.642
558.528
556.124
553.412
550.409
547.189
543.827
540.37
536.867
533.425
530.236
527.398
524.865
522.451
520.045
517.579
515.001
512.299
509.472
506.52
503.427
500.161
496.676
492.912
488.788
484.197
478.999
473.006
465.987
457.644
447.719
436.324
423.995
411.799
400.556
390.393
380.874
371.708
363.022
355.433
349.592
345.833
344.396
345.232
347.558
349.881
351.289
351.439
351.08
351.466
353.667
358.143
364.421
371.46
378.149
383.689
387.817
390.762
392.965
394.806
396.449
397.841
398.815
399.196
398.889
397.897
396.296
394.215
391.818
389.254
386.609
383.913
381.147
378.281
375.299
372.202
369.004
365.72
362.365
358.953
355.5
352.01
348.488
344.934
341.348
337.732
334.089
330.422
326.732
323.02
319.286
315.53
311.753
307.953
304.129
300.282
296.412
292.52
288.607
284.68
280.739
276.777
272.793
268.805
264.813
260.826
256.84
252.871
248.907
244.916
616.666
616.63
616.494
616.235
615.838
615.317
614.684
613.949
613.114
612.175
611.118
609.927
608.577
607.043
605.296
603.304
601.031
598.434
595.465
592.075
588.217
583.859
578.996
573.648
567.849
561.625
554.977
547.887
540.346
532.399
524.173
515.9
507.907
500.575
494.289
489.392
486.143
484.732
485.243
487.641
491.744
497.163
503.433
510.092
516.713
523.089
529.508
535.97
541.575
545.749
548.795
551.67
554.926
558.59
562.117
565.087
567.325
568.877
569.863
570.408
570.621
570.558
570.271
569.79
569.134
568.29
567.312
566.167
564.791
563.177
561.367
559.257
556.806
554.057
551.077
547.905
544.578
541.132
537.614
534.11
530.789
527.787
525.114
522.643
520.233
517.797
515.264
512.594
509.782
506.835
503.744
500.476
496.989
493.218
489.078
484.456
479.2
473.107
465.924
457.361
447.226
435.625
423.17
410.907
399.621
389.45
380.054
371.15
362.833
355.632
350.1
346.529
345.143
346.012
348.455
350.995
352.378
352.018
350.685
349.952
351.295
355.413
361.849
369.403
376.633
382.405
386.336
388.805
390.507
392.029
393.634
395.242
396.565
397.309
397.306
396.55
395.137
393.201
390.902
388.404
385.821
383.204
380.542
377.793
374.919
371.913
368.786
365.556
362.241
358.857
355.42
351.942
348.43
344.884
341.306
337.697
334.06
330.396
326.708
322.997
319.262
315.505
311.726
307.924
304.097
300.246
296.371
292.476
288.559
284.623
280.67
276.698
272.708
268.717
264.723
260.726
256.729
252.751
248.785
244.793
619.65
619.634
619.513
619.274
618.89
618.384
617.766
617.051
616.242
615.335
614.313
613.156
611.835
610.32
608.574
606.558
604.226
601.528
598.411
594.824
590.728
586.099
580.939
575.271
569.129
562.524
555.441
547.852
539.739
531.144
522.209
513.188
504.442
496.394
489.461
484.024
480.382
478.731
479.322
482.056
486.718
492.827
499.799
507.155
514.44
521.316
527.912
534.538
540.585
545.243
548.475
551.304
554.48
558.187
561.904
565.101
567.524
569.208
570.296
570.911
571.157
571.118
570.843
570.35
569.685
568.855
567.817
566.611
565.245
563.63
561.744
559.597
557.18
554.491
551.547
548.416
545.16
541.802
538.364
534.902
531.533
528.399
525.565
522.964
520.478
518.028
515.531
512.901
510.113
507.177
504.093
500.831
497.347
493.58
489.442
484.815
479.54
473.405
466.145
457.491
447.264
435.606
423.154
410.908
399.618
389.488
380.336
371.92
364.252
357.657
352.545
349.169
347.687
348.288
350.499
353.02
354.406
353.778
351.764
350.09
350.514
353.903
359.917
367.459
374.994
381.005
384.771
386.707
387.785
388.857
390.313
392.061
393.719
394.875
395.258
394.805
393.625
391.891
389.762
387.394
384.919
382.407
379.864
377.247
374.499
371.595
368.547
365.377
362.107
358.754
355.338
351.873
348.371
344.833
341.263
337.661
334.028
330.368
326.682
322.972
319.236
315.478
311.698
307.893
304.063
300.207
296.327
292.427
288.505
284.558
280.594
276.613
272.62
268.623
264.619
260.606
256.598
252.616
248.649
244.657
622.582
622.589
622.457
622.203
621.806
621.292
620.673
619.97
619.185
618.32
617.341
616.229
614.954
613.48
611.765
609.761
607.417
604.679
601.494
597.818
593.614
588.868
583.585
577.789
571.508
564.749
557.497
549.722
541.409
532.604
523.453
514.216
505.27
497.051
489.985
484.455
480.745
479.054
479.578
482.265
486.879
492.989
499.956
507.27
514.602
521.599
528.189
534.66
540.644
545.347
548.607
551.396
554.554
558.304
562.123
565.419
567.901
569.597
570.671
571.284
571.537
571.486
571.185
570.684
569.978
569.091
568.056
566.818
565.358
563.716
561.859
559.721
557.331
554.69
551.822
548.776
545.596
542.326
538.998
535.645
532.323
529.13
526.15
523.396
520.801
518.275
515.758
513.165
510.417
507.503
504.43
501.182
497.714
493.967
489.854
485.256
480.011
473.905
466.675
458.062
447.903
436.357
424.036
411.858
400.588
390.536
381.683
373.85
366.967
361.16
356.631
353.412
351.778
351.958
353.659
355.875
357.261
356.788
354.769
352.754
352.488
354.88
359.739
366.315
373.379
379.29
382.876
384.315
384.739
385.281
386.524
388.377
390.336
391.859
392.62
392.521
391.644
390.18
388.308
386.161
383.866
381.51
379.115
376.648
374.043
371.256
368.294
365.185
361.962
358.644
355.252
351.804
348.312
344.782
341.219
337.622
333.995
330.338
326.655
322.945
319.209
315.449
311.667
307.859
304.025
300.165
296.281
292.374
288.444
284.489
280.514
276.523
272.52
268.513
264.494
260.467
256.451
252.465
248.495
244.5
625.273
625.266
625.113
624.823
624.407
623.893
623.298
622.626
621.873
621.035
620.09
619.014
617.775
616.336
614.651
612.671
610.343
607.61
604.423
600.74
596.533
591.794
586.531
580.768
574.53
567.828
560.655
552.992
544.835
536.232
527.322
518.351
509.673
501.697
494.827
489.436
485.767
483.984
484.299
486.687
490.883
496.533
503.07
509.933
516.81
523.468
529.801
535.932
541.525
545.907
549.019
551.794
555.03
558.86
562.695
565.937
568.333
569.946
570.953
571.508
571.719
571.653
571.337
570.792
570.064
569.151
568.037
566.756
565.3
563.628
561.738
559.637
557.305
554.739
551.958
548.995
545.898
542.713
539.476
536.22
532.983
529.813
526.77
523.891
521.165
518.541
515.961
513.357
510.642
507.762
504.71
501.479
498.035
494.32
490.251
485.71
480.538
474.524
467.412
458.954
449.003
437.705
425.607
413.556
402.335
392.347
383.685
376.249
369.94
364.754
360.721
357.838
356.215
356.053
357.229
359.047