/*--------------------------------*- C++ -*----------------------------------*\
  =========                 |
  \\      /  F ield         | OpenFOAM: The Open Source CFD Toolbox
   \\    /   O peration     | Website:  https://openfoam.org
    \\  /    A nd           | Version:  9
     \\/     M anipulation  |
\*---------------------------------------------------------------------------*/
FoamFile
{
    format      ascii;
    class       surfaceScalarField;
    location    "0.081";
    object      phi;
}
// * * * * * * * * * * * * * * * * * * * * * * * * * * * * * * * * * * * * * //

dimensions      [0 3 -1 0 0 0 0];

internalField   nonuniform List<scalar> 
24170
(
3.06306e-06
6.43812e-08
3.04433e-06
1.87352e-08
2.94922e-06
9.5108e-08
2.80981e-06
1.39414e-07
2.66828e-06
1.41522e-07
2.5541e-06
1.14181e-07
2.47383e-06
8.0273e-08
2.41605e-06
5.77803e-08
2.36593e-06
5.01186e-08
2.31027e-06
5.5662e-08
2.24204e-06
6.8228e-08
2.15868e-06
8.33653e-08
2.06604e-06
9.26369e-08
1.9664e-06
9.96426e-08
1.86388e-06
1.02512e-07
1.75743e-06
1.06459e-07
1.63235e-06
1.25073e-07
1.4367e-07
1.48868e-06
3.4312e-06
5.02992e-08
3.47651e-06
-2.65709e-08
3.51479e-06
5.68267e-08
3.5256e-06
1.28603e-07
3.50934e-06
1.57781e-07
3.48151e-06
1.42013e-07
3.45841e-06
1.0337e-07
3.4442e-06
7.19916e-08
3.43433e-06
5.99946e-08
3.4226e-06
6.73916e-08
3.40613e-06
8.46961e-08
3.38394e-06
1.05552e-07
3.357e-06
1.19574e-07
3.32515e-06
1.31495e-07
3.28682e-06
1.40848e-07
3.23808e-06
1.55198e-07
3.18201e-06
1.81144e-07
2.06995e-07
3.11868e-06
3.71045e-06
3.27674e-08
3.68752e-06
-3.63875e-09
3.67733e-06
6.7013e-08
3.68595e-06
1.19981e-07
3.69674e-06
1.46993e-07
3.69577e-06
1.42986e-07
3.68395e-06
1.15186e-07
3.67226e-06
8.36848e-08
3.66998e-06
6.22749e-08
3.67936e-06
5.80048e-08
3.6947e-06
6.93642e-08
3.70847e-06
9.1783e-08
3.71269e-06
1.15347e-07
3.70696e-06
1.37231e-07
3.69163e-06
1.56172e-07
3.67331e-06
1.73525e-07
3.65959e-06
1.94855e-07
2.13024e-07
3.65356e-06
3.95056e-06
1.30284e-08
3.90997e-06
3.69448e-08
3.90106e-06
7.59237e-08
3.92486e-06
9.6184e-08
3.96503e-06
1.06817e-07
4.00039e-06
1.07627e-07
4.01599e-06
9.95901e-08
4.01058e-06
8.90954e-08
3.99215e-06
8.07054e-08
3.9719e-06
7.82554e-08
3.95824e-06
8.30244e-08
3.95473e-06
9.5291e-08
3.95857e-06
1.11507e-07
3.96599e-06
1.29811e-07
3.97246e-06
1.497e-07
3.9764e-06
1.69586e-07
3.98062e-06
1.90638e-07
2.09059e-07
3.98458e-06
4.32386e-06
1.23587e-07
4.27899e-06
8.18205e-08
4.26649e-06
8.84258e-08
4.26506e-06
9.76109e-08
4.26582e-06
1.06056e-07
4.26515e-06
1.08298e-07
4.26466e-06
1.00075e-07
4.26708e-06
8.66804e-08
4.27146e-06
7.63228e-08
4.27496e-06
7.4754e-08
4.27539e-06
8.25928e-08
4.27307e-06
9.76151e-08
4.26916e-06
1.15415e-07
4.26519e-06
1.33781e-07
4.2619e-06
1.52989e-07
4.25932e-06
1.72167e-07
4.25833e-06
1.91631e-07
2.09076e-07
4.25831e-06
4.59822e-06
7.88307e-08
4.5665e-06
1.13541e-07
4.5476e-06
1.07328e-07
4.55014e-06
9.50729e-08
4.56761e-06
8.85855e-08
4.58603e-06
8.98808e-08
4.59397e-06
9.21345e-08
4.58951e-06
9.11391e-08
4.57808e-06
8.77549e-08
4.56601e-06
8.68249e-08
4.5568e-06
9.17986e-08
4.55136e-06
1.03057e-07
4.54875e-06
1.18024e-07
4.54821e-06
1.34315e-07
4.54923e-06
1.51973e-07
4.55096e-06
1.70437e-07
4.55279e-06
1.89803e-07
2.08568e-07
4.5533e-06
4.87462e-06
1.68974e-07
4.87374e-06
1.14421e-07
4.89088e-06
9.01926e-08
4.89076e-06
9.51934e-08
4.88405e-06
9.52911e-08
4.88522e-06
8.87103e-08
4.89677e-06
8.05836e-08
4.91184e-06
7.60775e-08
4.92081e-06
7.878e-08
4.91737e-06
9.02617e-08
4.90165e-06
1.07523e-07
4.87985e-06
1.24856e-07
4.85987e-06
1.38005e-07
4.84772e-06
1.46465e-07
4.84578e-06
1.53907e-07
4.85263e-06
1.63593e-07
4.86551e-06
1.76923e-07
1.94448e-07
4.87963e-06
5.19482e-06
2.15015e-07
5.18237e-06
1.26865e-07
5.18e-06
9.25665e-08
5.19538e-06
7.98116e-08
5.22385e-06
6.68189e-08
5.25473e-06
5.78312e-08
5.27366e-06
6.1657e-08
5.27344e-06
7.62966e-08
5.25774e-06
9.44843e-08
5.23562e-06
1.12378e-07
5.21463e-06
1.28509e-07
5.19812e-06
1.41368e-07
5.18574e-06
1.50387e-07
5.17657e-06
1.55638e-07
5.17062e-06
1.59856e-07
5.16887e-06
1.65337e-07
5.17212e-06
1.73677e-07
1.86679e-07
5.17989e-06
5.51571e-06
-3.06252e-08
5.59392e-06
4.86567e-08
5.59717e-06
8.9316e-08
5.57893e-06
9.80429e-08
5.56832e-06
7.74328e-08
5.5708e-06
5.53535e-08
5.57476e-06
5.76923e-08
5.5714e-06
7.96645e-08
5.56383e-06
1.02046e-07
5.562e-06
1.1421e-07
5.5736e-06
1.16909e-07
5.5997e-06
1.15265e-07
5.63512e-06
1.14974e-07
5.67171e-06
1.19044e-07
5.70221e-06
1.2936e-07
5.72266e-06
1.44884e-07
5.73226e-06
1.64083e-07
1.85438e-07
5.7335e-06
5.98317e-06
-4.29092e-08
6.00786e-06
2.39701e-08
5.99725e-06
9.99219e-08
5.97413e-06
1.21162e-07
5.96527e-06
8.63003e-08
5.97246e-06
4.81538e-08
5.98233e-06
4.78247e-08
5.98182e-06
8.01781e-08
5.96728e-06
1.16589e-07
5.94507e-06
1.36418e-07
5.92519e-06
1.36787e-07
5.91439e-06
1.26067e-07
5.91443e-06
1.14934e-07
5.92233e-06
1.11139e-07
5.93463e-06
1.17059e-07
5.94731e-06
1.32204e-07
5.95891e-06
1.5249e-07
1.74835e-07
5.96951e-06
6.32557e-06
5.34378e-08
6.30988e-06
3.96583e-08
6.3625e-06
4.72992e-08
6.39818e-06
8.54887e-08
6.39829e-06
8.61884e-08
6.39281e-06
5.36284e-08
6.40757e-06
3.30697e-08
6.4357e-06
5.20427e-08
6.45478e-06
9.75107e-08
6.45173e-06
1.39472e-07
6.43025e-06
1.58268e-07
6.40307e-06
1.53247e-07
6.38184e-06
1.36158e-07
6.37174e-06
1.21247e-07
6.37211e-06
1.16682e-07
6.37943e-06
1.24884e-07
6.38917e-06
1.4275e-07
1.67193e-07
6.39681e-06
5.70029e-06
-3.8182e-08
5.71584e-06
2.41086e-08
5.71747e-06
4.5661e-08
5.72503e-06
7.79362e-08
5.73039e-06
8.08247e-08
5.72646e-06
5.75606e-08
5.7248e-06
3.47249e-08
5.73731e-06
3.95309e-08
5.76336e-06
7.14609e-08
5.79329e-06
1.09543e-07
5.81779e-06
1.33774e-07
5.83195e-06
1.39083e-07
5.83534e-06
1.32771e-07
5.83069e-06
1.25889e-07
5.82201e-06
1.25365e-07
5.81284e-06
1.34053e-07
5.80526e-06
1.50328e-07
1.72537e-07
5.79992e-06
6.82768e-06
-1.8452e-08
6.82995e-06
2.18421e-08
6.83056e-06
4.5049e-08
6.87252e-06
3.59799e-08
6.936e-06
1.73445e-08
6.98573e-06
7.82491e-09
7.01106e-06
9.39366e-09
7.02616e-06
2.44307e-08
7.04501e-06
5.2612e-08
7.06784e-06
8.67203e-08
7.08485e-06
1.16762e-07
7.0872e-06
1.3673e-07
7.07397e-06
1.46001e-07
7.0523e-06
1.47567e-07
7.03176e-06
1.45905e-07
7.01983e-06
1.45979e-07
7.01992e-06
1.50241e-07
1.61946e-07
7.03051e-06
8.41457e-06
1.40819e-08
8.51718e-06
-8.07702e-08
8.62245e-06
-6.0227e-08
8.69328e-06
-3.4841e-08
8.72022e-06
-9.60338e-09
8.70849e-06
1.95588e-08
8.66809e-06
4.97978e-08
8.61406e-06
7.8452e-08
8.5655e-06
1.01179e-07
8.5374e-06
1.14821e-07
8.53413e-06
1.20028e-07
8.55021e-06
1.20649e-07
8.57601e-06
1.20205e-07
8.60212e-06
1.21452e-07
8.62234e-06
1.25687e-07
8.63402e-06
1.34297e-07
8.63764e-06
1.4662e-07
1.63066e-07
8.63652e-06
1.02437e-05
-6.80009e-08
1.0234e-05
-7.10382e-08
1.02661e-05
-9.23005e-08
1.03235e-05
-9.22342e-08
1.03882e-05
-7.43001e-08
1.04545e-05
-4.67565e-08
1.05112e-05
-6.92245e-09
1.0548e-05
4.16722e-08
1.05626e-05
8.65087e-08
1.05623e-05
1.1518e-07
1.05546e-05
1.27667e-07
1.0543e-05
1.32291e-07
1.05267e-05
1.36468e-07
1.05038e-05
1.44426e-07
1.04756e-05
1.53833e-07
1.04456e-05
1.64306e-07
1.04208e-05
1.71395e-07
1.77476e-07
1.04064e-05
1.28888e-05
4.23452e-08
1.29065e-05
-8.86967e-08
1.29601e-05
-1.45937e-07
1.29471e-05
-7.92303e-08
1.28932e-05
-2.03342e-08
1.28525e-05
-6.13101e-09
1.28504e-05
-4.74996e-09
1.28746e-05
1.74095e-08
1.28978e-05
6.33571e-08
1.28975e-05
1.15452e-07
1.28653e-05
1.59861e-07
1.28062e-05
1.9145e-07
1.27326e-05
2.09985e-07
1.2659e-05
2.18079e-07
1.25971e-05
2.15732e-07
1.25555e-05
2.05884e-07
1.2538e-05
1.88914e-07
1.69698e-07
1.25458e-05
1.57212e-05
7.08226e-08
1.57894e-05
-1.56838e-07
1.58491e-05
-2.05714e-07
1.5804e-05
-3.40672e-08
1.57198e-05
6.38698e-08
1.5615e-05
9.86113e-08
1.55041e-05
1.06141e-07
1.5408e-05
1.13574e-07
1.53415e-05
1.29842e-07
1.53133e-05
1.4364e-07
1.53266e-05
1.46533e-07
1.53767e-05
1.41394e-07
1.54515e-05
1.35176e-07
1.55364e-05
1.33126e-07
1.56149e-05
1.37274e-07
1.56758e-05
1.45014e-07
1.57096e-05
1.55041e-07
1.62034e-07
1.57173e-05
1.93203e-05
2.8854e-07
1.90498e-05
1.13682e-07
1.88852e-05
-4.10694e-08
1.88758e-05
-2.46787e-08
1.89433e-05
-3.69661e-09
1.9029e-05
1.30009e-08
1.90834e-05
5.16844e-08
1.91009e-05
9.61276e-08
1.9104e-05
1.2666e-07
1.9119e-05
1.28666e-07
1.91571e-05
1.08483e-07
1.9215e-05
8.34691e-08
1.9281e-05
6.92079e-08
1.93425e-05
7.16056e-08
1.93897e-05
9.00461e-08
1.94169e-05
1.17791e-07
1.94223e-05
1.4966e-07
1.79283e-07
1.94051e-05
2.28627e-05
1.422e-07
2.28075e-05
1.68888e-07
2.27062e-05
6.01903e-08
2.27574e-05
-7.58058e-08
2.28996e-05
-1.45945e-07
2.30529e-05
-1.4023e-07
2.31857e-05
-8.11215e-08
2.32953e-05
-1.35115e-08
2.33834e-05
3.85912e-08
2.34508e-05
6.12228e-08
2.34904e-05
6.8904e-08
2.34967e-05
7.71723e-08
2.34724e-05
9.3515e-08
2.34268e-05
1.17179e-07
2.3375e-05
1.41889e-07
2.33306e-05
1.62173e-07
2.33058e-05
1.74458e-07
1.78559e-07
2.33065e-05
1.72659e-05
-1.4132e-07
1.74202e-05
1.45585e-08
1.73675e-05
1.12857e-07
1.72041e-05
8.76675e-08
1.70139e-05
4.42159e-08
1.68691e-05
4.52082e-09
1.68142e-05
-2.62097e-08
1.68421e-05
-4.1382e-08
1.69184e-05
-3.76925e-08
1.69942e-05
-1.46338e-08
1.70416e-05
2.15244e-08
1.70503e-05
6.84501e-08
1.70307e-05
1.13169e-07
1.70032e-05
1.44624e-07
1.69873e-05
1.57876e-07
1.69938e-05
1.55672e-07
1.70259e-05
1.42354e-07
1.26158e-07
1.70783e-05
1.42347e-05
9.07825e-08
1.43847e-05
-1.35472e-07
1.45704e-05
-7.28584e-08
1.4628e-05
3.01065e-08
1.45776e-05
9.45639e-08
1.44824e-05
9.979e-08
1.44105e-05
4.56195e-08
1.43902e-05
-2.10921e-08
1.44136e-05
-6.10658e-08
1.44583e-05
-5.93022e-08
1.45024e-05
-2.25978e-08
1.45392e-05
3.1707e-08
1.45696e-05
8.27329e-08
1.45968e-05
1.17445e-07
1.46234e-05
1.31206e-07
1.46513e-05
1.27814e-07
1.46803e-05
1.13345e-07
9.47683e-08
1.47117e-05
1.2675e-05
1.0772e-08
1.26352e-05
-9.57125e-08
1.26827e-05
-1.20351e-07
1.27679e-05
-5.50524e-08
1.28361e-05
2.63398e-08
1.28641e-05
7.1826e-08
1.2851e-05
5.87036e-08
1.28191e-05
1.07953e-08
1.28003e-05
-4.22419e-08
1.2805e-05
-6.40261e-08
1.28372e-05
-5.48521e-08
1.28921e-05
-2.3177e-08
1.29577e-05
1.72033e-08
1.30218e-05
5.33381e-08
1.30746e-05
7.83472e-08
1.31117e-05
9.06981e-08
1.31326e-05
9.25186e-08
8.65274e-08
1.31408e-05
1.12058e-05
1.62308e-08
1.11447e-05
-3.46112e-08
1.11177e-05
-9.3343e-08
1.11095e-05
-4.68017e-08
1.10986e-05
3.72252e-08
1.10694e-05
1.01e-07
1.10163e-05
1.11804e-07
1.09535e-05
7.35755e-08
1.09006e-05
1.07249e-08
1.08787e-05
-4.21487e-08
1.08989e-05
-7.50979e-08
1.09583e-05
-8.25294e-08
1.10453e-05
-6.98049e-08
1.11441e-05
-4.54527e-08
1.12399e-05
-1.74691e-08
1.13232e-05
7.42088e-09
1.13881e-05
2.76047e-08
4.0494e-08
1.14341e-05
9.57514e-06
3.71828e-08
9.6516e-06
-1.11077e-07
9.70354e-06
-1.45283e-07
9.74757e-06
-9.0826e-08
9.81036e-06
-2.55669e-08
9.89358e-06
1.77794e-08
9.97741e-06
2.79687e-08
1.00397e-05
1.13137e-08
1.00673e-05
-1.6898e-08
1.00597e-05
-3.45783e-08
1.00279e-05
-4.32564e-08
9.9915e-06
-4.61384e-08
9.96568e-06
-4.39878e-08
9.95627e-06
-3.6039e-08
9.9604e-06
-2.1604e-08
9.97068e-06
-2.85392e-09
9.97992e-06
1.83582e-08
3.6352e-08
9.98406e-06
8.51823e-06
-9.53419e-08
8.58991e-06
-1.82751e-07
8.53584e-06
-9.12134e-08
8.4919e-06
-4.68835e-08
8.47926e-06
-1.29307e-08
8.48369e-06
1.33487e-08
8.48943e-06
2.22325e-08
8.48991e-06
1.0835e-08
8.48553e-06
-1.25186e-08
8.4903e-06
-3.93526e-08
8.50831e-06
-6.12663e-08
8.53542e-06
-7.32459e-08
8.56314e-06
-7.1714e-08
8.58409e-06
-5.69821e-08
8.59553e-06
-3.30446e-08
8.59905e-06
-6.38036e-09
8.60002e-06
1.73927e-08
3.43108e-08
8.60206e-06
7.48123e-06
1.74457e-08
7.43226e-06
-1.33779e-07
7.4499e-06
-1.08858e-07
7.43943e-06
-3.64103e-08
7.42016e-06
6.34157e-09
7.41709e-06
1.64208e-08
7.43009e-06
9.23185e-09
7.45022e-06
-9.29902e-09
7.4703e-06
-3.26e-08
7.4854e-06
-5.44489e-08
7.49422e-06
-7.0086e-08
7.49557e-06
-7.46021e-08
7.48995e-06
-6.60859e-08
7.48026e-06
-4.72983e-08
7.47168e-06
-2.44633e-08
7.46908e-06
-3.77731e-09
7.4756e-06
1.08691e-08
1.75419e-08
7.49237e-06
6.56939e-06
-1.29192e-07
6.51553e-06
-7.99193e-08
6.47693e-06
-7.02544e-08
6.47443e-06
-3.39122e-08
6.48919e-06
-8.41288e-09
6.50626e-06
-6.49388e-10
6.51831e-06
-2.81817e-09
6.51855e-06
-9.54139e-09
6.50701e-06
-2.10584e-08
6.49003e-06
-3.74758e-08
6.4757e-06
-5.57527e-08
6.46959e-06
-6.84935e-08
6.47361e-06
-7.00984e-08
6.48688e-06
-6.05767e-08
6.50713e-06
-4.47068e-08
6.53189e-06
-2.85424e-08
6.55891e-06
-1.6153e-08
-9.82464e-09
6.58628e-06
5.52474e-06
-2.51101e-07
5.57182e-06
-1.26996e-07
5.57198e-06
-7.04148e-08
5.57393e-06
-3.58681e-08
5.56721e-06
-1.68827e-09
5.5665e-06
6.4333e-11
5.58406e-06
-2.03797e-08
5.6143e-06
-3.97815e-08
5.64215e-06
-4.89132e-08
5.65768e-06
-5.3007e-08
5.6605e-06
-5.85727e-08
5.65742e-06
-6.54065e-08
5.65698e-06
-6.96624e-08
5.66497e-06
-6.85673e-08
5.68257e-06
-6.2309e-08
5.70755e-06
-5.35187e-08
5.73621e-06
-4.48154e-08
-3.87239e-08
5.76511e-06
4.87291e-06
-2.17433e-07
4.83529e-06
-8.93705e-08
4.85109e-06
-8.62162e-08
4.86329e-06
-4.80697e-08
4.8796e-06
-1.79943e-08
4.90952e-06
-2.9855e-08
4.94846e-06
-5.93188e-08
4.98413e-06
-7.54589e-08
5.00636e-06
-7.11419e-08
5.01041e-06
-5.70506e-08
4.99728e-06
-4.54502e-08
4.97301e-06
-4.11369e-08
4.94539e-06
-4.20352e-08
4.92083e-06
-4.40085e-08
4.90289e-06
-4.43715e-08
4.89214e-06
-4.27682e-08
4.88756e-06
-4.02302e-08
-3.83265e-08
4.88716e-06
4.1465e-06
4.05713e-06
3.97092e-06
3.92285e-06
3.90485e-06
3.875e-06
3.81568e-06
3.74022e-06
3.66908e-06
3.61203e-06
3.56658e-06
3.52544e-06
3.48341e-06
3.4394e-06
3.39503e-06
3.35226e-06
3.31203e-06
3.2737e-06
-2.52999e-07
2.52999e-07
-5.04266e-07
2.51267e-07
-6.95508e-07
1.91242e-07
-8.36393e-07
1.40885e-07
-9.27944e-07
9.15517e-08
-9.64401e-07
3.64572e-08
-9.46569e-07
-1.78323e-08
-8.79267e-07
-6.7302e-08
-7.60057e-07
-1.19211e-07
-5.94158e-07
-1.65899e-07
-3.92314e-07
-2.01844e-07
-1.7849e-07
-2.13823e-07
-3.3981e-09
-1.75092e-07
5.42803e-08
-5.76784e-08
-4.36739e-08
9.79542e-08
-2.43969e-07
2.00295e-07
-4.5738e-07
2.13411e-07
-6.34725e-07
1.77345e-07
-7.76596e-07
1.41871e-07
-9.12552e-07
1.35957e-07
-1.06675e-06
1.54193e-07
-1.24425e-06
1.775e-07
-1.44387e-06
1.99629e-07
-1.66836e-06
2.24486e-07
-1.92452e-06
2.56158e-07
-2.22119e-06
2.96669e-07
-2.56896e-06
3.47768e-07
-2.98116e-06
4.12207e-07
-3.46829e-06
4.87125e-07
-4.01101e-06
5.42721e-07
-4.53731e-06
5.26298e-07
-4.96469e-06
4.27385e-07
-5.27857e-06
3.13878e-07
-5.54017e-06
2.61598e-07
-5.80314e-06
2.62972e-07
-6.05438e-06
2.51239e-07
-6.23826e-06
1.83876e-07
-6.31656e-06
7.83079e-08
-6.29909e-06
-1.74709e-08
-6.23012e-06
-6.8969e-08
-6.12858e-06
-1.01546e-07
-5.99245e-06
-1.36125e-07
-5.81885e-06
-1.73598e-07
-5.61105e-06
-2.07809e-07
-5.37325e-06
-2.37793e-07
-5.10732e-06
-2.65929e-07
-4.81226e-06
-2.95061e-07
-4.48654e-06
-3.25722e-07
-4.12973e-06
-3.56812e-07
-3.74243e-06
-3.87301e-07
-3.32253e-06
-4.199e-07
-2.86489e-06
-4.57638e-07
-2.37023e-06
-4.94657e-07
-1.83773e-06
-5.32498e-07
-1.27449e-06
-5.63246e-07
-6.9403e-07
-5.80459e-07
-1.15634e-07
-5.78396e-07
4.4612e-07
-5.61754e-07
9.76437e-07
-5.30317e-07
1.47085e-06
-4.94409e-07
1.94094e-06
-4.7009e-07
2.39114e-06
-4.50205e-07
2.81185e-06
-4.20712e-07
3.19932e-06
-3.87463e-07
3.55448e-06
-3.55167e-07
3.87002e-06
-3.15532e-07
4.11559e-06
-2.45569e-07
4.26732e-06
-1.51739e-07
4.30812e-06
-4.07988e-08
4.20428e-06
1.03839e-07
3.96137e-06
2.42916e-07
3.55637e-06
4.04995e-07
3.04542e-06
5.10952e-07
2.52386e-06
5.21564e-07
1.9276e-06
5.9626e-07
1.30615e-06
6.21447e-07
9.28792e-07
3.77358e-07
1.10525e-06
-1.76462e-07
1.59882e-06
-4.93564e-07
1.89635e-06
-2.97535e-07
1.8252e-06
7.11514e-08
1.46661e-06
3.58589e-07
9.82549e-07
4.84063e-07
5.071e-07
4.75449e-07
9.37845e-08
4.13316e-07
-2.47555e-07
3.4134e-07
-5.24535e-07
2.7698e-07
-7.47283e-07
2.22747e-07
-9.29359e-07
1.82077e-07
-1.08513e-06
1.55775e-07
-1.22883e-06
1.43698e-07
-1.37319e-06
1.44359e-07
-1.52999e-06
1.56797e-07
-1.71013e-06
1.8014e-07
-1.92363e-06
2.13501e-07
-2.1798e-06
2.5617e-07
-2.48703e-06
3.07234e-07
-2.85228e-06
3.65245e-07
-3.28022e-06
4.27937e-07
-3.77248e-06
4.92269e-07
-4.32751e-06
5.55026e-07
-4.93756e-06
6.10053e-07
-5.58921e-06
6.51647e-07
-6.26534e-06
6.7613e-07
-6.94593e-06
6.80591e-07
-7.60956e-06
6.63627e-07
-8.23501e-06
6.25457e-07
-8.80287e-06
5.67857e-07
-9.29664e-06
4.93765e-07
-9.70293e-06
4.06295e-07
-1.00117e-05
3.08756e-07
-1.02175e-05
2.05778e-07
-1.03191e-05
1.01623e-07
-1.03176e-05
-1.46523e-09
-1.02196e-05
-9.80082e-08
-1.00321e-05
-1.87484e-07
-9.76061e-06
-2.71518e-07
-9.41114e-06
-3.49472e-07
-8.99024e-06
-4.20902e-07
-8.50463e-06
-4.85606e-07
-7.96163e-06
-5.43003e-07
-7.36898e-06
-5.92654e-07
-6.73489e-06
-6.34088e-07
-6.06796e-06
-6.66924e-07
-5.37705e-06
-6.90913e-07
-4.67108e-06
-7.05969e-07
-3.9588e-06
-7.12277e-07
-3.24838e-06
-7.10421e-07
-2.54748e-06
-7.00903e-07
-1.8638e-06
-6.83681e-07
-1.20292e-06
-6.60882e-07
-5.71625e-07
-6.31293e-07
2.28472e-08
-5.94472e-07
5.81993e-07
-5.59146e-07
1.09831e-06
-5.16314e-07
1.56897e-06
-4.70662e-07
1.99162e-06
-4.22653e-07
2.36462e-06
-3.72993e-07
2.68755e-06
-3.2293e-07
2.96223e-06
-2.7468e-07
3.19342e-06
-2.31194e-07
3.38658e-06
-1.93157e-07
3.53977e-06
-1.53196e-07
3.63584e-06
-9.60682e-08
3.6522e-06
-1.63627e-08
3.587e-06
6.52028e-08
3.4648e-06
1.22206e-07
3.32074e-06
1.44055e-07
3.18308e-06
1.37661e-07
3.06688e-06
1.16202e-07
2.97383e-06
9.30509e-08
2.89773e-06
7.6098e-08
2.83127e-06
6.64547e-08
2.76911e-06
6.21674e-08
2.70858e-06
6.05288e-08
2.64994e-06
5.86335e-08
2.5958e-06
5.41446e-08
2.55035e-06
4.54452e-08
2.51781e-06
3.2545e-08
2.4995e-06
1.83132e-08
2.49324e-06
6.2532e-09
2.49705e-06
-3.80655e-09
2.5103e-06
-1.3247e-08
2.52825e-06
-1.79579e-08
2.54152e-06
-1.32635e-08
2.55055e-06
-9.02832e-09
2.56491e-06
-1.43649e-08
2.5805e-06
-1.55884e-08
2.58628e-06
-5.77647e-09
2.59175e-06
-5.47086e-09
2.59682e-06
-5.07057e-09
2.57678e-06
2.00376e-08
2.51707e-06
5.97069e-08
2.46767e-06
4.94037e-08
2.43604e-06
3.16337e-08
2.41443e-06
2.16066e-08
2.45225e-06
-3.78178e-08
2.61451e-06
-1.62266e-07
2.73418e-06
-1.19667e-07
-8.19243e-08
2.8161e-06
6.50932e-08
1.87905e-07
1.29968e-07
1.86392e-07
1.80656e-07
1.40554e-07
2.0329e-07
1.18251e-07
1.93978e-07
1.00863e-07
1.61626e-07
6.88092e-08
1.1837e-07
2.54235e-08
8.53835e-08
-3.43154e-08
7.05764e-08
-1.04404e-07
6.11604e-08
-1.56483e-07
5.3249e-08
-1.93933e-07
7.46585e-08
-2.35233e-07
1.48406e-07
-2.4884e-07
2.4793e-07
-1.57202e-07
2.93543e-07
5.23415e-08
2.31357e-07
2.62482e-07
6.87536e-08
3.76014e-07
-1.4774e-07
3.93838e-07
-3.98914e-07
3.93045e-07
-6.78249e-07
4.15293e-07
-9.71029e-07
4.46972e-07
-1.26717e-06
4.73638e-07
-1.56937e-06
5.01836e-07
-1.88719e-06
5.42299e-07
-2.22728e-06
5.96256e-07
-2.58863e-06
6.58019e-07
-2.96174e-06
7.20872e-07
-3.32816e-06
7.78633e-07
-3.66213e-06
8.21086e-07
-3.94556e-06
8.26154e-07
-4.18909e-06
7.69833e-07
-4.42002e-06
6.58315e-07
-4.64659e-06
5.40445e-07
-4.84386e-06
4.5887e-07
-4.98487e-06
4.0398e-07
-5.06956e-06
3.35931e-07
-5.1223e-06
2.36611e-07
-5.17009e-06
1.26102e-07
-5.21995e-06
3.23897e-08
-5.23944e-06
-4.94848e-08
-5.21687e-06
-1.24112e-07
-5.15863e-06
-1.94369e-07
-5.06694e-06
-2.6528e-07
-4.93896e-06
-3.35797e-07
-4.77457e-06
-4.02176e-07
-4.57622e-06
-4.6428e-07
-4.34581e-06
-5.25477e-07
-4.08396e-06
-5.87569e-07
-3.79103e-06
-6.49738e-07
-3.46546e-06
-7.12872e-07
-3.10392e-06
-7.81446e-07
-2.70449e-06
-8.5706e-07
-2.26475e-06
-9.34406e-07
-1.78392e-06
-1.01332e-06
-1.26395e-06
-1.08322e-06
-7.12393e-07
-1.13202e-06
-1.42151e-07
-1.14864e-06
4.27444e-07
-1.13135e-06
9.75951e-07
-1.07882e-06
1.49885e-06
-1.0173e-06
2.03128e-06
-1.00253e-06
2.57382e-06
-9.9274e-07
3.0866e-06
-9.33492e-07
3.56545e-06
-8.66315e-07
4.02062e-06
-8.10337e-07
4.45763e-06
-7.52547e-07
4.85628e-06
-6.44211e-07
5.17315e-06
-4.68617e-07
5.41326e-06
-2.80901e-07
5.54231e-06
-2.52193e-08
5.44697e-06
3.38261e-07
5.21396e-06
6.38004e-07
4.80414e-06
9.20772e-07
4.15012e-06
1.17559e-06
3.55028e-06
1.1961e-06
2.96454e-06
1.20718e-06
2.34793e-06
9.93968e-07
2.06634e-06
1.05132e-07
1.89667e-06
-3.23892e-07
1.41922e-06
1.79913e-07
7.35243e-07
7.55129e-07
6.78938e-08
1.02594e-06
-4.82977e-07
1.03493e-06
-9.31333e-07
9.23806e-07
-1.29552e-06
7.77504e-07
-1.58987e-06
6.35692e-07
-1.82855e-06
5.1566e-07
-2.02981e-06
4.24002e-07
-2.20936e-06
3.61627e-07
-2.38023e-06
3.26647e-07
-2.55255e-06
3.16022e-07
-2.73472e-06
3.26525e-07
-2.9358e-06
3.5788e-07
-3.16262e-06
4.06959e-07
-3.42066e-06
4.71534e-07
-3.71425e-06
5.4976e-07
-4.04639e-06
6.39376e-07
-4.41855e-06
7.37405e-07
-4.83046e-06
8.3985e-07
-5.27993e-06
9.41742e-07
-5.76215e-06
1.03724e-06
-6.27124e-06
1.11914e-06
-6.79958e-06
1.17999e-06
-7.33694e-06
1.21349e-06
-7.87103e-06
1.21468e-06
-8.38816e-06
1.18076e-06
-8.87397e-06
1.11127e-06
-9.31414e-06
1.00803e-06
-9.69543e-06
8.75052e-07
-1.00069e-05
7.17815e-07
-1.02407e-05
5.4246e-07
-1.03909e-05
3.56037e-07
-1.04548e-05
1.655e-07
-1.04312e-05
-2.50077e-08
-1.03171e-05
-2.12186e-07
-1.01137e-05
-3.90883e-07
-9.82623e-06
-5.58952e-07
-9.46064e-06
-7.15066e-07
-9.02305e-06
-8.58492e-07
-8.52026e-06
-9.88394e-07
-7.95931e-06
-1.10395e-06
-7.3478e-06
-1.20417e-06
-6.69381e-06
-1.28808e-06
-6.00588e-06
-1.35485e-06
-5.29281e-06
-1.40399e-06
-4.5633e-06
-1.43548e-06
-3.82588e-06
-1.44969e-06
-3.08861e-06
-1.4477e-06
-2.35919e-06
-1.43032e-06
-1.64503e-06
-1.39784e-06
-9.52667e-07
-1.35324e-06
-2.88356e-07
-1.2956e-06
3.44801e-07
-1.22763e-06
9.37889e-07
-1.15223e-06
1.48907e-06
-1.0675e-06
1.99434e-06
-9.75933e-07
2.45064e-06
-8.78951e-07
2.85598e-06
-7.78326e-07
3.20986e-06
-6.7682e-07
3.51323e-06
-5.78044e-07
3.76712e-06
-4.85083e-07
3.97273e-06
-3.98769e-07
4.13675e-06
-3.17219e-07
4.27695e-06
-2.36263e-07
4.41344e-06
-1.52861e-07
4.5492e-06
-7.05528e-08
4.67045e-06
9.51808e-10
4.76389e-06
5.06185e-08
4.8138e-06
8.77553e-08
4.80072e-06
1.29278e-07
4.71131e-06
1.82465e-07
4.55746e-06
2.29944e-07
4.37037e-06
2.53549e-07
4.18409e-06
2.48439e-07
4.01636e-06
2.28265e-07
3.86963e-06
2.05366e-07
3.74288e-06
1.80893e-07
3.63799e-06
1.50338e-07
3.55733e-06
1.132e-07
3.5012e-06
7.44425e-08
3.46742e-06
4.00346e-08
3.45265e-06
1.09589e-08
3.45299e-06
-1.3582e-08
3.46208e-06
-2.70504e-08
3.47414e-06
-2.53189e-08
3.49282e-06
-2.77058e-08
3.52389e-06
-4.54383e-08
3.57197e-06
-6.36677e-08
3.63478e-06
-6.85876e-08
3.68629e-06
-5.69854e-08
3.68781e-06
-6.58973e-09
3.63675e-06
7.10983e-08
3.53809e-06
1.58373e-07
3.38139e-06
2.06097e-07
3.2303e-06
1.82722e-07
3.15607e-06
9.58436e-08
3.17122e-06
-5.29739e-08
3.25838e-06
-2.49418e-07
3.41718e-06
-2.78469e-07
-2.4942e-07
3.58467e-06
2.9573e-07
-1.07825e-07
7.37238e-07
-2.55116e-07
1.1857e-06
-3.07904e-07
1.56012e-06
-2.56169e-07
1.82643e-06
-1.65454e-07
1.99662e-06
-1.0138e-07
2.0753e-06
-5.32485e-08
2.05374e-06
-1.27562e-08
1.95572e-06
-6.38535e-09
1.79236e-06
6.87943e-09
1.57136e-06
2.70594e-08
1.31648e-06
1.96551e-08
1.05771e-06
9.92399e-09
8.78147e-07
2.23627e-08
8.05688e-07
1.24801e-07
7.00863e-07
3.67307e-07
4.74263e-07
6.02614e-07
1.51791e-07
7.1631e-07
-2.1361e-07
7.58446e-07
-5.58113e-07
7.59796e-07
-8.55339e-07
7.44198e-07
-1.13191e-06
7.50206e-07
-1.42559e-06
7.95518e-07
-1.75133e-06
8.68038e-07
-2.10451e-06
9.49434e-07
-2.47177e-06
1.02528e-06
-2.83648e-06
1.08558e-06
-3.18044e-06
1.12259e-06
-3.4862e-06
1.12685e-06
-3.74746e-06
1.08741e-06
-3.97891e-06
1.00128e-06
-4.20787e-06
8.87274e-07
-4.44847e-06
7.81052e-07
-4.69191e-06
7.02307e-07
-4.91704e-06
6.29111e-07
-5.11247e-06
5.31357e-07
-5.28092e-06
4.05065e-07
-5.42391e-06
2.69089e-07
-5.5306e-06
1.39084e-07
-5.5906e-06
1.05099e-08
-5.61024e-06
-1.04469e-07
-5.58173e-06
-2.22885e-07
-5.50619e-06
-3.40814e-07
-5.38641e-06
-4.55583e-07
-5.22325e-06
-5.65333e-07
-5.0182e-06
-6.69324e-07
-4.77601e-06
-7.67672e-07
-4.50236e-06
-8.61217e-07
-4.2011e-06
-9.51001e-07
-3.87585e-06
-1.03812e-06
-3.5317e-06
-1.1256e-06
-3.17332e-06
-1.21543e-06
-2.79952e-06
-1.3082e-06
-2.40883e-06
-1.40401e-06
-1.99289e-06
-1.49916e-06
-1.54467e-06
-1.58024e-06
-1.06744e-06
-1.62587e-06
-5.77948e-07
-1.62084e-06
-9.13451e-08
-1.56543e-06
3.91345e-07
-1.49999e-06
9.29987e-07
-1.54117e-06
1.51535e-06
-1.5781e-06
2.05343e-06
-1.47157e-06
2.55369e-06
-1.36657e-06
3.04622e-06
-1.30287e-06
3.54143e-06
-1.24775e-06
4.03603e-06
-1.13881e-06
4.50426e-06
-9.36846e-07
4.91695e-06
-6.93588e-07
5.20981e-06
-3.1808e-07
5.3139e-06
2.34171e-07
5.25853e-06
6.9337e-07
5.02642e-06
1.15289e-06
4.58959e-06
1.61241e-06
4.0755e-06
1.71019e-06
3.39171e-06
1.89097e-06
2.73656e-06
1.64912e-06
2.20099e-06
6.40705e-07
1.42933e-06
4.47769e-07
5.31285e-07
1.07795e-06
-2.03873e-07
1.49029e-06
-6.99234e-07
1.5213e-06
-1.03861e-06
1.37431e-06
-1.28451e-06
1.16971e-06
-1.47341e-06
9.66405e-07
-1.62926e-06
7.91538e-07
-1.76872e-06
6.55122e-07
-1.90304e-06
5.5832e-07
-2.0401e-06
4.98684e-07
-2.18588e-06
4.72435e-07
-2.34578e-06
4.75923e-07
-2.52498e-06
5.05721e-07
-2.72623e-06
5.59134e-07
-2.95279e-06
6.33519e-07
-3.20766e-06
7.26399e-07
-3.49321e-06
8.35314e-07
-3.81127e-06
9.57439e-07
-4.1633e-06
1.08943e-06
-4.55068e-06
1.22722e-06
-4.97467e-06
1.36574e-06
-5.43593e-06
1.4985e-06
-5.93409e-06
1.6173e-06
-6.46649e-06
1.7124e-06
-7.02633e-06
1.77333e-06
-7.60174e-06
1.79009e-06
-8.17571e-06
1.75473e-06
-8.72732e-06
1.66288e-06
-9.23444e-06
1.51514e-06
-9.67723e-06
1.31784e-06
-1.00403e-05
1.08085e-06
-1.03125e-05
8.14678e-07
-1.04865e-05
5.30014e-07
-1.05594e-05
2.38419e-07
-1.05317e-05
-5.26626e-08
-1.04091e-05
-3.34793e-07
-1.01975e-05
-6.02518e-07
-9.90259e-06
-8.5385e-07
-9.53064e-06
-1.08701e-06
-9.08805e-06
-1.30109e-06
-8.58128e-06
-1.49517e-06
-8.01708e-06
-1.66815e-06
-7.4027e-06
-1.81855e-06
-6.74595e-06
-1.94482e-06
-6.05514e-06
-2.04566e-06
-5.33883e-06
-2.1203e-06
-4.60547e-06
-2.16884e-06
-3.86299e-06
-2.19216e-06
-3.1193e-06
-2.1914e-06
-2.38174e-06
-2.16787e-06
-1.65662e-06
-2.12296e-06
-9.49491e-07
-2.06037e-06
-2.67291e-07
-1.9778e-06
3.87912e-07
-1.88283e-06
1.0073e-06
-1.77162e-06
1.58856e-06
-1.64876e-06
2.12794e-06
-1.51531e-06
2.62095e-06
-1.37196e-06
3.06199e-06
-1.21937e-06
3.44503e-06
-1.05987e-06
3.7659e-06
-8.98905e-07
4.02499e-06
-7.44177e-07
4.22828e-06
-6.0206e-07
4.38582e-06
-4.74755e-07
4.51062e-06
-3.61063e-07
4.61727e-06
-2.59512e-07
4.71824e-06
-1.71521e-07
4.82176e-06
-1.0257e-07
4.92758e-06
-5.52031e-08
5.03255e-06
-1.72143e-08
5.12672e-06
3.5106e-08
5.19603e-06
1.13159e-07
5.21319e-06
2.12783e-07
5.15512e-06
3.11621e-07
5.018e-06
3.8556e-07
4.82687e-06
4.19392e-07
4.62031e-06
4.11925e-07
4.43006e-06
3.71139e-07
4.27178e-06
3.0862e-07
4.14834e-06
2.36641e-07
4.05612e-06
1.66666e-07
3.98992e-06
1.06231e-07
3.94517e-06
5.57065e-08
3.91685e-06
1.47459e-08
3.89724e-06
-7.44706e-09
3.87774e-06
-5.81316e-09
3.85542e-06
-5.39215e-09
3.84148e-06
-3.14984e-08
3.85349e-06
-7.5673e-08
3.88986e-06
-1.04962e-07
3.92525e-06
-9.23777e-08
3.93004e-06
-1.13752e-08
3.87806e-06
1.23075e-07
3.76783e-06
2.68604e-07
3.6204e-06
3.53532e-07
3.49494e-06
3.08178e-07
3.45043e-06
1.40355e-07
3.51151e-06
-1.14052e-07
3.64062e-06
-3.78529e-07
3.81089e-06
-4.48741e-07
-3.93919e-07
3.95539e-06
3.29328e-07
-4.37153e-07
8.90662e-07
-8.1645e-07
1.4426e-06
-8.59842e-07
1.90931e-06
-7.22877e-07
2.27836e-06
-5.3451e-07
2.5698e-06
-3.92813e-07
2.7668e-06
-2.50257e-07
2.84671e-06
-9.26661e-08
2.84287e-06
-2.54233e-09
2.75788e-06
9.18749e-08
2.58327e-06
2.01664e-07
2.40308e-06
1.9985e-07
2.22297e-06
1.90032e-07
1.93296e-06
3.12371e-07
1.52245e-06
5.35315e-07
1.04227e-06
8.47484e-07
5.40295e-07
1.10459e-06
8.48906e-08
1.17171e-06
-2.63047e-07
1.10638e-06
-5.27751e-07
1.0245e-06
-7.8239e-07
9.98837e-07
-1.08482e-06
1.05264e-06
-1.44279e-06
1.15348e-06
-1.84034e-06
1.26559e-06
-2.25801e-06
1.3671e-06
-2.67988e-06
1.44716e-06
-3.09361e-06
1.49932e-06
-3.48938e-06
1.51836e-06
-3.86222e-06
1.49969e-06
-4.21675e-06
1.44194e-06
-4.56604e-06
1.35058e-06
-4.9156e-06
1.23683e-06
-5.24646e-06
1.11191e-06
-5.52361e-06
9.79461e-07
-5.73009e-06
8.35593e-07
-5.87651e-06
6.77778e-07
-5.9799e-06
5.08448e-07
-6.04412e-06
3.33308e-07
-6.06203e-06
1.56997e-07
-6.03718e-06
-1.43383e-08
-5.95193e-06
-1.89716e-07
-5.81871e-06
-3.56113e-07
-5.64398e-06
-5.15535e-07
-5.43186e-06
-6.67708e-07
-5.18572e-06
-8.11468e-07
-4.90984e-06
-9.45211e-07
-4.60912e-06
-1.06839e-06
-4.28902e-06
-1.18132e-06
-3.95622e-06
-1.2838e-06
-3.61821e-06
-1.37613e-06
-3.28385e-06
-1.45996e-06
-2.96231e-06
-1.53698e-06
-2.65815e-06
-1.61236e-06
-2.36929e-06
-1.69287e-06
-2.08627e-06
-1.78219e-06
-1.79134e-06
-1.87517e-06
-1.46132e-06
-1.95588e-06
-1.08233e-06
-1.99983e-06
-6.55189e-07
-1.99257e-06
-1.80548e-07
-1.97464e-06
3.53291e-07
-2.07501e-06
9.19674e-07
-2.14449e-06
1.39831e-06
-1.95021e-06
1.83274e-06
-1.80101e-06
2.28799e-06
-1.75812e-06
2.77352e-06
-1.73328e-06
3.29607e-06
-1.66136e-06
3.84316e-06
-1.48394e-06
4.33809e-06
-1.18851e-06
4.70669e-06
-6.86684e-07
4.92274e-06
1.81222e-08
4.89782e-06
7.18288e-07
4.61792e-06
1.43279e-06
4.26279e-06
1.96753e-06
3.79332e-06
2.17967e-06
3.09963e-06
2.58466e-06
2.53328e-06
2.21547e-06
1.8569e-06
1.31709e-06
8.82052e-07
1.42261e-06
2.7605e-08
1.9324e-06
-4.83535e-07
2.00143e-06
-7.65814e-07
1.80358e-06
-9.23529e-07
1.53202e-06
-1.02113e-06
1.26731e-06
-1.09659e-06
1.04187e-06
-1.17064e-06
8.65585e-07
-1.25371e-06
7.3819e-07
-1.35144e-06
6.56049e-07
-1.46707e-06
6.14316e-07
-1.60275e-06
6.08113e-07
-1.75984e-06
6.33021e-07
-1.93989e-06
6.85769e-07
-2.14469e-06
7.6393e-07
-2.37643e-06
8.65263e-07
-2.63773e-06
9.87697e-07
-2.93162e-06
1.12921e-06
-3.26164e-06
1.28745e-06
-3.63182e-06
1.45962e-06
-4.04668e-06
1.64208e-06
-4.51066e-06
1.82972e-06
-5.02699e-06
2.01483e-06
-5.59597e-06
2.18627e-06
-6.2128e-06
2.32923e-06
-6.86581e-06
2.42634e-06
-7.53566e-06
2.45994e-06
-8.19618e-06
2.41524e-06
-8.81787e-06
2.28457e-06
-9.37275e-06
2.07002e-06
-9.83895e-06
1.78404e-06
-1.02024e-05
1.44435e-06
-1.04568e-05
1.06906e-06
-1.06013e-05
6.74503e-07
-1.06365e-05
2.73647e-07
-1.05709e-05
-1.18299e-07
-1.04158e-05
-4.89941e-07
-1.01764e-05
-8.41862e-07
-9.86034e-06
-1.16992e-06
-9.47426e-06
-1.4731e-06
-9.02425e-06
-1.75109e-06
-8.51585e-06
-2.00357e-06
-7.95467e-06
-2.22932e-06
-7.34686e-06
-2.42636e-06
-6.69929e-06
-2.5924e-06
-6.01947e-06
-2.72548e-06
-5.31534e-06
-2.82443e-06
-4.59474e-06
-2.88944e-06
-3.86534e-06
-2.92157e-06
-3.13407e-06