/*--------------------------------*- C++ -*----------------------------------*\
  =========                 |
  \\      /  F ield         | OpenFOAM: The Open Source CFD Toolbox
   \\    /   O peration     | Website:  https://openfoam.org
    \\  /    A nd           | Version:  9
     \\/     M anipulation  |
\*---------------------------------------------------------------------------*/
FoamFile
{
    format      ascii;
    class       volScalarField;
    location    "0.081";
    object      s_0;
}
// * * * * * * * * * * * * * * * * * * * * * * * * * * * * * * * * * * * * * //

dimensions      [0 0 0 0 0 0 0];

internalField   nonuniform List<scalar> 
12225
(
1
1
1
1
1
1
1
1
1
1
1
1
1
1
1
1
1
0.999976
1
1
1
1
1
1
1
1
1
1
1
1
1
1
1
1
1
0.999999
1
1
1
1
1
1
1
1
1
1
1
1
1
1
1
1
1
1
1
1
1
1
1
1
1
1
1
1
1
1
1
1
1
1
1
1
1
1
1
1
1
1
1
1
1
1
1
1
1
1
1
1
1
1
1
1
1
1
1
1
1
1
1
1
1
1
1
1
1
1
1
1
1
1
1
1
1
1
1
1
1
1
1
1
1
1
1
1
1
1
1
1
1
1
1
1
1
1
1
1
1
1
1
1
1
1
1
1
1
1
1
1
1
1
1
1
1
1
1
1
1
1
1
1
1
1
1
1
1
1
1
1
1
1
1
1
1
1
1
1
1
1
1
1
1
1
1
1
1
1
1
1
1
1
1
1
1
1
1
1
1
1
1
1
1
1
1
1
1
1
1
1
1
1
1
1
1
1
1
1
1
1
1
1
1
1
1
1
1
1
1
1
1
1
1
1
1
1
1
1
1
1
1
1
1
1
1
1
1
1
1
1
1
1
1
1
1
1
1
1
1
1
1
1
1
1
1
1
1
1
1
1
1
1
1
1
1
1
1
1
1
1
1
1
1
1
1
1
1
1
1
1
1
1
1
1
1
1
1
1
1
1
1
1
1
1
1
1
1
1
1
1
1
1
1
1
1
1
1
1
1
1
1
1
1
1
1
1
1
1
1
1
1
1
1
1
1
1
1
1
1
1
1
1
1
1
1
1
1
1
1
1
1
1
1
1
1
1
1
1
1
1
1
1
1
1
1
1
1
1
1
1
1
1
1
1
1
1
1
1
1
1
1
1
1
1
1
1
1
1
1
1
1
1
1
1
1
1
1
1
1
1
1
1
1
1
1
1
1
1
1
1
1
1
1
1
1
1
1
1
1
1
1
1
1
1
1
1
1
1
1
1
1
1
1
1
1
1
1
1
1
1
1
1
1
1
1
1
1
1
1
1
1
1
1
1
1
1
1
1
1
1
1
1
1
1
1
1
1
1
1
1
1
1
1
1
1
1
1
1
1
1
1
1
1
1
1
1
1
1
1
1
1
1
1
1
1
1
1
1
1
1
1
1
1
1
1
1
1
1
1
1
1
1
1
1
1
1
1
1
1
1
1
1
1
1
1
1
1
1
1
1
1
1
1
1
1
1
1
1
1
1
1
1
0.774383
0.763281
0.743592
0.734555
0.729027
0.723986
0.720152
0.715709
0.712064
0.7073
0.70345
0.700681
0.708874
0.748209
0.778264
0.794342
0.801761
0.804064
0.804982
0.805446
0.805551
0.805486
0.805148
0.804486
0.803439
0.801679
0.798284
0.791232
0.777103
0.754168
0.744316
0.743104
0.743534
0.744199
0.744031
0.742627
0.741041
0.740804
0.741049
0.742134
0.743561
0.744968
0.746453
0.747815
0.748883
0.74966
0.750329
0.75116
0.752126
0.752963
0.753774
0.754646
0.755042
0.755167
0.755166
0.754398
0.751322
0.746823
0.744246
0.743113
0.742664
0.742395
0.742369
0.742428
0.742579
0.742946
0.743448
0.743944
0.744572
0.745105
0.745326
0.745301
0.744923
0.744787
0.7457
0.752653
0.76758
0.779403
0.804654
0.846883
0.886921
0.913668
0.923964
0.926254
0.926943
0.927467
0.927835
0.92826
0.928542
0.928747
0.929018
0.929265
0.929506
0.929845
0.930221
0.930655
0.931197
0.931797
0.932522
0.933351
0.934276
0.935279
0.936271
0.937262
0.938311
0.939382
0.940487
0.941546
0.9426
0.943669
0.944663
0.945713
0.946738
0.947695
0.948504
0.949054
0.949302
0.949376
0.949201
0.948847
0.948176
0.947346
0.946298
0.945
0.9435
0.941775
0.939868
0.937746
0.935468
0.932954
0.930347
0.927522
0.924413
0.920973
0.917416
0.913354
0.909015
0.904783
0.900412
0.895334
0.889227
0.881594
0.871591
0.860082
0.851086
0.846913
0.845853
0.846208
0.849352
0.855615
0.860578
0.864585
0.86792
0.87081
0.87339
0.875638
0.877523
0.879122
0.880468
0.881571
0.882523
0.883371
0.884007
0.884419
0.884927
0.886088
0.888725
0.891969
0.895764
0.899622
0.902542
0.904048
0.904388
0.904175
0.90318
0.900552
0.895785
0.891765
0.891116
0.891679
0.775311
0.774131
0.760468
0.744865
0.735848
0.732428
0.733164
0.731572
0.72734
0.720436
0.709039
0.691804
0.668331
0.655841
0.677446
0.750411
0.788427
0.800138
0.806105
0.810589
0.811066
0.809744
0.807639
0.807182
0.80735
0.807639
0.806431
0.801078
0.788221
0.767991
0.760705
0.760583
0.764427
0.76679
0.766877
0.766209
0.766467
0.769011
0.773899
0.779064
0.783418
0.787319
0.79106
0.794538
0.797703
0.800008
0.801469
0.802796
0.803602
0.803909
0.803904
0.802462
0.800049
0.794312
0.785238
0.771819
0.757619
0.744676
0.73534
0.731335
0.730877
0.731043
0.731743
0.733056
0.735362
0.738678
0.743819
0.748169
0.752087
0.756219
0.758917
0.75926
0.758943
0.757248
0.751392
0.751343
0.753954
0.759666
0.782717
0.854089
0.904017
0.923854
0.93148
0.936243
0.940069
0.942783
0.944683
0.945804
0.94634
0.94655
0.946595
0.946505
0.946405
0.946355
0.946381
0.946561
0.946923
0.947512
0.948398
0.949736
0.951419
0.953675
0.956446
0.959868
0.963925
0.968129
0.972172
0.975609
0.978393
0.980707
0.9824
0.983393
0.98387
0.984047
0.984033
0.984002
0.983984
0.983991
0.984025
0.984086
0.984145
0.984195
0.984241
0.984281
0.984183
0.983941
0.98345
0.982709
0.981699
0.980379
0.978784
0.977124
0.975615
0.974158
0.972817
0.971303
0.969538
0.967896
0.966564
0.965038
0.962547
0.959377
0.956678
0.953171
0.945597
0.931534
0.915183
0.899737
0.886647
0.875001
0.863743
0.854454
0.849501
0.848405
0.849223
0.854746
0.863071
0.868868
0.873453
0.877597
0.881594
0.88545
0.889138
0.892619
0.895654
0.898372
0.901324
0.904566
0.907642
0.910037
0.911311
0.911558
0.911347
0.909742
0.901992
0.885592
0.874686
0.870034
0.869784
0.872278
0.765402
0.761348
0.756891
0.757482
0.758886
0.760425
0.761747
0.761507
0.757286
0.746132
0.738375
0.730885
0.714743
0.671197
0.646782
0.656272
0.713026
0.778935
0.805184
0.810609
0.810714
0.807968
0.804782
0.804175
0.805022
0.808166
0.810116
0.809647
0.806145
0.79926
0.796797
0.796894
0.798143
0.799218
0.799659
0.800769
0.804095
0.809988
0.817261
0.824343
0.830642
0.836551
0.842314
0.848017
0.85365
0.858807
0.863265
0.866664
0.868296
0.868872
0.867435
0.861233
0.850742
0.834525
0.812841
0.787405
0.760717
0.739154
0.726191
0.720095
0.719427
0.719593
0.720327
0.72261
0.728646
0.737043
0.747533
0.754151
0.759829
0.761046
0.762676
0.764132
0.764056
0.76305
0.759711
0.753775
0.752561
0.755776
0.798691
0.896864
0.932365
0.943437
0.950038
0.954383
0.957006
0.958509
0.959283
0.959645
0.959776
0.959791
0.959575
0.959307
0.959132
0.959017
0.958988
0.959429
0.960113
0.961306
0.963095
0.965322
0.968474
0.972462
0.977043
0.981361
0.984466
0.986285
0.987094
0.98741
0.987482
0.987178
0.986171
0.984993
0.983728
0.982199
0.980832
0.979698
0.979054
0.978807
0.978932
0.979558
0.980518
0.98162
0.982815
0.984174
0.98547
0.986756
0.9878
0.988548
0.988959
0.989129
0.988962
0.988097
0.986558
0.984535
0.982637
0.981076
0.979571
0.978135
0.976877
0.975892
0.975293
0.975101
0.97517
0.975517
0.975626
0.975326
0.973282
0.968585
0.961504
0.946241
0.921597
0.895507
0.875263
0.861971
0.853324
0.847383
0.844324
0.843524
0.843586
0.844707
0.849701
0.857507
0.864372
0.870567
0.876113
0.880985
0.886013
0.892162
0.899133
0.905163
0.908587
0.90947
0.908923
0.903684
0.885069
0.870105
0.864078
0.862784
0.863198
0.866333
0.663972
0.643955
0.640567
0.641878
0.647289
0.656131
0.666949
0.682771
0.693886
0.703164
0.708502
0.708822
0.706775
0.696773
0.659187
0.647171
0.690914
0.779119
0.805118
0.807791
0.802361
0.791799
0.787801
0.788597
0.79696
0.804574
0.80775
0.80789
0.806388
0.803537
0.802919
0.804183
0.80812
0.813859
0.821326
0.832045
0.846784
0.864814
0.884359
0.902142
0.917031
0.929909
0.940403
0.949004
0.955248
0.959803
0.962888
0.964814
0.965653
0.965825
0.964326
0.960076
0.951983
0.936501
0.912106
0.876245
0.826168
0.780915
0.75269
0.739736
0.736861
0.736461
0.738472
0.748748
0.773593
0.800313
0.822013
0.82984
0.830559
0.825878
0.812417
0.794127
0.781578
0.775071
0.765411
0.755768
0.752803
0.758347
0.832536
0.926439
0.947767
0.954701
0.958507
0.961087
0.962986
0.964289
0.965356
0.966298
0.96687
0.967059
0.967126
0.967356
0.967551
0.967651
0.968333
0.969089
0.970305
0.972237
0.974823
0.978483
0.982654
0.986254
0.987908
0.988526
0.988522
0.987424
0.985719
0.983832
0.979789
0.973658
0.966115
0.957752
0.950967
0.947069
0.944694
0.943213
0.942696
0.942599
0.943289
0.944215
0.945776
0.948082
0.951168
0.955209
0.960174
0.966359
0.972964
0.97927
0.98392
0.987623
0.990136
0.991512
0.992076
0.991969
0.990784
0.98834
0.985405
0.982799
0.980749
0.978931
0.977449
0.976518
0.976194
0.976266
0.97711
0.979543
0.981501
0.98226
0.982232
0.981156
0.97699
0.966319
0.944145
0.914257
0.886266
0.86671
0.854505
0.847887
0.845245
0.844791
0.845031
0.846652
0.852484
0.860589
0.86768
0.873468
0.878202
0.88287
0.888411
0.894547
0.89953
0.901512
0.901109
0.895315
0.877965
0.866919
0.86309
0.862557
0.863051
0.865823
0.608496
0.612253
0.618777
0.618763
0.618345
0.618938
0.618712
0.619431
0.621533
0.626606
0.636396
0.640623
0.640592
0.637404
0.63396
0.648226
0.728097
0.789877
0.800302
0.786633
0.774773
0.772272
0.780945
0.788331
0.797292
0.804724
0.808011
0.808942
0.809746
0.812762
0.820277
0.833535
0.855289
0.886492
0.916845
0.938584
0.960309
0.973904
0.980629
0.986396
0.989196
0.991092
0.992898
0.993887
0.99462
0.995212
0.995525
0.99569
0.995738
0.99548
0.994992
0.994017
0.992295
0.989232
0.983614
0.972376
0.948424
0.898574
0.835522
0.797669
0.78075
0.773246
0.780138
0.826931
0.884292
0.901949
0.906021
0.90039
0.888842
0.876166
0.872337
0.863312
0.843569
0.820281
0.790599
0.764328
0.754869
0.765316
0.86694
0.942023
0.954633
0.96028
0.964227
0.967372
0.969908
0.971787
0.973424
0.974673
0.975341
0.975593
0.975787
0.975893
0.975963
0.976417
0.977145
0.97835
0.979962
0.982325
0.985092
0.987976
0.989527
0.990092
0.989725
0.988116
0.986195
0.980906
0.971102
0.955389
0.93799
0.930248
0.92623
0.924891
0.924705
0.926008
0.928223
0.929378
0.930391
0.931259
0.931753
0.931882
0.931864
0.931708
0.931483
0.931343
0.931451
0.93201
0.934175
0.938967
0.947765
0.959709
0.972608
0.982373
0.988784
0.992412
0.99401
0.994333
0.993774
0.991538
0.988209
0.985079
0.982128
0.979326
0.977227
0.976149
0.975887
0.976028
0.977152
0.98107
0.984576
0.985976
0.986047
0.985211
0.981293
0.969085
0.948754
0.923819
0.897384
0.876413
0.864452
0.859644
0.858957
0.85958
0.862959
0.869995
0.875763
0.880739
0.885066
0.888318
0.890484
0.891948
0.892892
0.893171
0.892636
0.887867
0.874791
0.867957
0.866649
0.86688
0.868088
0.870659
0.621204
0.639938
0.658349
0.657784
0.654447
0.649389
0.636254
0.623155
0.618455
0.617257
0.615623
0.614307
0.616546
0.625458
0.639209
0.698249
0.764649
0.78524
0.77289
0.76235
0.765776
0.773104
0.783009
0.791333
0.800798
0.808589
0.815415
0.822678
0.836334
0.861013
0.900947
0.932393
0.961418
0.974937
0.985448
0.9916
0.994595
0.996011
0.996666
0.996995
0.997331
0.997491
0.99776
0.998087
0.998267
0.998567
0.998782
0.998986
0.999117
0.999204
0.999222
0.999121
0.998874
0.998359
0.997331
0.995082
0.989772
0.97722
0.946238
0.874001
0.8209
0.79766
0.807419
0.888311
0.924752
0.926311
0.918633
0.902223
0.880762
0.851578
0.847182
0.8512
0.84843
0.837051
0.803159
0.767912
0.758204
0.784257
0.909515
0.951831
0.960908
0.967329
0.972759
0.97669
0.979491
0.981276
0.98272
0.983615
0.983938
0.984025
0.984057
0.983878
0.983785
0.984155
0.984766
0.985956
0.987611
0.989566
0.990979
0.991552
0.991543
0.989958
0.988194
0.98305
0.972523
0.950084
0.928173
0.919832
0.917427
0.917459
0.921289
0.927118
0.931826
0.938594
0.94407
0.947015
0.949274
0.950334
0.950676
0.950012
0.948442
0.945947
0.942644
0.93859
0.934167
0.930141
0.927311
0.925155
0.923974
0.924223
0.928631
0.941234
0.960047
0.977052
0.987327
0.992903
0.995028
0.995347
0.994698
0.992687
0.989855
0.986201
0.982225
0.978913
0.976948
0.976251
0.976237
0.976821
0.979816
0.984819
0.987694
0.988505
0.988355
0.986912
0.981479
0.965214
0.945619
0.929419
0.917778
0.909664
0.902087
0.895546
0.891733
0.890059
0.889433
0.889421
0.889624
0.890451
0.89198
0.892685
0.892776
0.892578
0.89111
0.883993
0.875054
0.872728
0.872962
0.874398
0.878517
0.883096
0.650912
0.677934
0.681325
0.676987
0.67182
0.665852
0.654003
0.642347
0.634752
0.620184
0.613081
0.61394
0.620075
0.636124
0.681844
0.741114
0.761531
0.761503
0.756892
0.761181
0.76814
0.778393
0.79017
0.801002
0.814295
0.829555
0.852618
0.889461
0.925562
0.957649
0.973638
0.986133
0.991671
0.994119
0.995296
0.995715
0.995787
0.995579
0.99507
0.99459
0.994388
0.994339
0.994668
0.995226
0.996021
0.99681
0.997701
0.998451
0.99894
0.999325
0.999535
0.999647
0.999691
0.999697
0.99958
0.999214
0.998207
0.995428
0.986845
0.957008
0.868961
0.824618
0.819702
0.897755
0.929792
0.93211
0.919162
0.89768
0.865159
0.829626
0.811623
0.819489
0.833872
0.827796
0.794286
0.765812
0.766841
0.852771
0.942645
0.962019
0.971265
0.978495
0.983488
0.986579
0.988532
0.989646
0.990436
0.990732
0.990682
0.990574
0.990433
0.990115
0.989888
0.990046
0.990525
0.991263
0.992498
0.993197
0.993421
0.99266
0.991135
0.987993
0.981134
0.964189
0.932268
0.918949
0.915105
0.915991
0.922819
0.931383
0.946804
0.957927
0.962622
0.964899
0.966548
0.967287
0.967776
0.968189
0.968455
0.96858
0.968596
0.96827
0.967526
0.966099
0.963514
0.958872
0.951199
0.941703
0.931246
0.922874
0.918359
0.916515
0.918539
0.931227
0.955669
0.976681
0.988585
0.994065
0.995698
0.995845
0.99522
0.992952
0.988666
0.983903
0.979979
0.977697
0.976936
0.976953
0.977806
0.981653
0.986694
0.989706
0.990782
0.9908
0.990016
0.986353
0.975263
0.962945
0.953847
0.94832
0.94559
0.9438
0.940567
0.932033
0.918407
0.906888
0.899974
0.897665
0.89751
0.897594
0.897392
0.896316
0.892622
0.883639
0.879413
0.879312
0.880627
0.884764
0.896001
0.909062
0.661596
0.6874
0.683444
0.676184
0.670798
0.66431
0.659954
0.650962
0.637907
0.624722
0.620265
0.626653
0.644206
0.682922
0.726377
0.746038
0.752203
0.753836
0.757583
0.765634
0.777353
0.792543
0.81008
0.831791
0.865605
0.902631
0.939952
0.962515
0.978728
0.9864
0.98979
0.991293
0.991673
0.991688
0.989612
0.987409
0.984391
0.981609
0.97905
0.977487
0.97688
0.977076
0.978446
0.980675
0.983404
0.986659
0.990115
0.993178
0.995668
0.997469
0.998649
0.999297
0.999635
0.99978
0.99983
0.999831
0.999701
0.999204
0.997416
0.990082
0.956599
0.871364
0.830153
0.878559
0.928892
0.937853
0.93432
0.912776
0.872489
0.827713
0.806573
0.801208
0.801911
0.795837
0.780193
0.773691
0.825123
0.925932
0.961867
0.972886
0.980798
0.986705
0.990695
0.992743
0.993905
0.994618
0.995047
0.995064
0.994903
0.994749
0.994549
0.994235
0.993978
0.993971
0.994179
0.994519
0.994833
0.994813
0.994014
0.992381
0.989263
0.981402
0.961333
0.926593
0.914353
0.91195
0.916825
0.927476
0.949452
0.960667
0.96542
0.967274
0.967854
0.967977
0.968078
0.968195
0.968225
0.968448
0.968856
0.969205
0.969698
0.970092
0.97038
0.970531
0.970478
0.970184
0.96948
0.967693
0.963633
0.954214
0.938613
0.922262
0.913252
0.910291
0.913086
0.932168
0.962415
0.982161
0.991979
0.995712
0.996577
0.996386
0.994505
0.98922
0.983844
0.979877
0.977823
0.977311
0.977514
0.979275
0.984734
0.98941
0.992055
0.993001
0.993043
0.992518
0.989978
0.982716
0.976033
0.972076
0.970266
0.969515
0.968782
0.967215
0.963045
0.947971
0.925049
0.913981
0.911652
0.911802
0.91157
0.908935
0.898486
0.888315
0.886069
0.88684
0.890908
0.902525
0.929485
0.951016
0.66677
0.691026
0.681661
0.672964
0.667872
0.662672
0.660286
0.658394
0.654739
0.651971
0.658062
0.675422
0.699167
0.723895
0.739686
0.747993
0.752584
0.756639
0.765682
0.781489
0.803262
0.833834
0.871047
0.909476
0.941781
0.963894
0.977249
0.983387
0.986031
0.986878
0.987031
0.983517
0.977774
0.968669
0.960705
0.953751
0.948466
0.94429
0.941739
0.940384
0.93987
0.940116
0.94157
0.944757
0.950045
0.957449
0.966583
0.976347
0.984
0.990341
0.994649
0.997175
0.998657
0.999404
0.999746
0.99987
0.999902
0.999871
0.999624
0.998422
0.991686
0.951384
0.86407
0.851176
0.914302
0.939908
0.944136
0.938022
0.916034
0.87221
0.827703
0.809839
0.803633
0.799835
0.80085
0.844967
0.920951
0.959212
0.972958
0.979362
0.984285
0.988263
0.991884
0.994091
0.995378
0.996302
0.996907
0.997087
0.997036
0.996958
0.996805
0.996571
0.996334
0.996224
0.996178
0.996111
0.995912
0.995215
0.993889
0.991217
0.984531
0.966643
0.928172
0.912619
0.909407
0.914279
0.929842
0.95436
0.962892
0.9655
0.966045
0.966
0.964781
0.962746
0.96125
0.960371
0.959974
0.960001
0.960808
0.961916
0.963486
0.965159
0.966796
0.968207
0.969285
0.969963
0.970287
0.970284
0.969866
0.968889
0.966305
0.958557
0.938786
0.916828
0.906764
0.905396
0.914694
0.94756
0.975435
0.989634
0.995375
0.996817
0.996654
0.994463
0.988149
0.982661
0.979238
0.977832
0.977683
0.978331
0.98204
0.988149
0.992165
0.994283
0.995008
0.995041
0.994661
0.992724
0.988916
0.986395
0.985139
0.98469
0.984596
0.984463
0.983783
0.980476
0.966475
0.948376
0.942903
0.942885
0.942665
0.938197
0.918097
0.901959
0.899712
0.90213
0.91368
0.945343
0.969575
0.98211
0.669977
0.692849
0.68234
0.677568
0.676765
0.676942
0.680094
0.684272
0.685922
0.690758
0.700591
0.712736
0.725486
0.737389
0.745482
0.75275
0.759739
0.772039
0.794271
0.83127
0.870696
0.908415
0.938801
0.961255
0.973963
0.980082
0.982326
0.982864
0.981415
0.975145
0.96275
0.952042
0.941834
0.93669
0.932686
0.930618
0.929135
0.928394
0.928004
0.927849
0.92757
0.927164
0.92673
0.926385
0.926076
0.927185
0.930716
0.938972
0.95381
0.971056
0.983046
0.990884
0.995414
0.997886
0.999111
0.999665
0.999878
0.999935
0.999935
0.999804
0.998883
0.992244
0.949161
0.856329
0.871776
0.931285
0.946084
0.947856
0.941189
0.925779
0.899538
0.871161
0.859056
0.861762
0.890005
0.931467
0.9587
0.971544
0.976921
0.980502
0.983543
0.985008
0.988396
0.992794
0.995058
0.996367
0.997246
0.99772
0.997872
0.997899
0.997834
0.997693
0.997499
0.997322
0.997113
0.996787
0.996245
0.995198
0.993318
0.988389
0.974319
0.937963
0.91171
0.90623
0.909088
0.924941
0.952025
0.960827
0.963111
0.963602
0.961648
0.956523
0.950633
0.946293
0.943233
0.941828
0.941249
0.941713
0.942851
0.944972
0.948012
0.95164
0.955466
0.959021
0.962016
0.964374
0.966201
0.967616
0.968579
0.968953
0.968737
0.967629
0.964802
0.954633
0.927298
0.906315
0.901166
0.905738
0.935808
0.97022
0.987868
0.99499
0.996748
0.996492
0.99349
0.9865
0.981544
0.979021
0.978349
0.978549
0.980523
0.986633
0.991698
0.994704
0.996191
0.996675
0.99669
0.996409
0.995224
0.994031
0.993462
0.993312
0.993344
0.993496
0.993458
0.992617
0.987182
0.978823
0.977417
0.978559
0.979072
0.976131
0.95662
0.933571
0.930799
0.935513
0.957447
0.978804
0.989492
0.994632
0.671165
0.701936
0.698562
0.69535
0.694129
0.694192
0.696088
0.698706
0.704913
0.710494
0.720571
0.729525
0.738701
0.748867
0.757716
0.769541
0.789036
0.824979
0.866375
0.901415
0.932837
0.955099
0.969657
0.976691
0.979346
0.979979
0.978849
0.972419
0.956951
0.945462
0.937471
0.933228
0.930886
0.929898
0.929477
0.929386
0.929533
0.929893
0.930285
0.930489
0.930595
0.930379
0.929599
0.927932
0.925228
0.922934
0.921895
0.921601
0.924291
0.933872
0.955308
0.975978
0.987423
0.993976
0.997329
0.998924
0.999613
0.999877
0.999953
0.999962
0.999882
0.999151
0.99317
0.933502
0.86313
0.888144
0.939849
0.950734
0.952053
0.947648
0.939704
0.931545
0.926904
0.931427
0.94555
0.960642
0.96943
0.974134
0.977037
0.978868
0.9744
0.965328
0.973203
0.986526
0.993074
0.995915
0.997166
0.997779
0.998065
0.998185
0.998191
0.998129
0.997973
0.997763
0.997471
0.997011
0.99629
0.994991
0.991855
0.981742
0.957038
0.917093
0.903706
0.902621
0.912352
0.943405
0.956868
0.96019
0.960687
0.956677
0.947464
0.936104
0.927512
0.921877
0.9188
0.917342
0.91721
0.918234
0.919126
0.921063
0.924941
0.930545
0.937413
0.944381
0.950418
0.955063
0.958391
0.960795
0.962632
0.964023
0.965178
0.966099
0.966186
0.96479
0.959474
0.937341
0.907323
0.898227
0.900982
0.929311
0.967739
0.987288
0.994912
0.996625
0.996171
0.992091
0.985247
0.981226
0.97968
0.979562
0.980513
0.985255
0.991114
0.994691
0.996667
0.997603
0.997901
0.997909
0.997758
0.997445
0.99731
0.997293
0.997353
0.997617
0.997713
0.997525
0.995896
0.993943
0.993947
0.994819
0.994867
0.992251
0.977063
0.964515
0.964427
0.971214
0.985766
0.993559
0.997125
0.99854
0.671351
0.713413
0.715952
0.718184
0.721614
0.721503
0.721552
0.72106
0.72378
0.732262
0.740021
0.749682
0.76094
0.775136
0.79373
0.823693
0.860943
0.89391
0.923971
0.946608
0.964075
0.972906
0.976968
0.978053
0.978042
0.973881
0.961207
0.946864
0.938394
0.93412
0.932045
0.931271
0.931086
0.931377
0.931704
0.93218
0.932452
0.932537
0.932449
0.932864
0.933622
0.934586
0.935887
0.936721
0.937279
0.933886
0.927121
0.921276
0.919228
0.919814
0.92577
0.946202
0.971734
0.98582
0.99352
0.997273
0.998942
0.999628
0.999886
0.999964
0.999975
0.999921
0.999284
0.992409
0.92862
0.870767
0.893562
0.944087
0.955029
0.955531
0.95398
0.952104
0.953032
0.956195
0.961941
0.967251
0.970857
0.973925
0.97551
0.97029
0.955371
0.939036
0.952123
0.978083
0.989125
0.994463
0.996774
0.997687
0.998052
0.998209
0.998255
0.998232
0.998113
0.997896
0.997576
0.997057
0.996241
0.994346
0.988268
0.972812
0.937064
0.905122
0.898
0.899266
0.919862
0.948863
0.956295
0.95774
0.95331
0.94118
0.927158
0.918836
0.914777
0.912069
0.909203
0.905874
0.902318
0.898356
0.895901
0.894332
0.895631
0.900592
0.909671
0.92142
0.933129
0.942958
0.950104
0.95468
0.957457
0.959088
0.959857
0.960036
0.960195
0.962007
0.962326
0.958711
0.941587
0.907369
0.895839
0.898454
0.928464
0.968454
0.988022
0.995213
0.996583
0.995814
0.990758
0.984745
0.981871
0.981178
0.981515
0.984308
0.990405
0.994504
0.996833
0.998014
0.998534
0.998717
0.998764
0.998776
0.998799
0.99885
0.998991
0.999198
0.99929
0.999266
0.998945
0.998635
0.998695
0.998822
0.998528
0.995739
0.986998
0.984185
0.985327
0.991091
0.996292
0.998514
0.99927
0.999315
0.660694
0.718539
0.735695
0.747719
0.758027
0.756914
0.754899
0.758435
0.767289
0.774177
0.783474
0.797424
0.813751
0.835707
0.860763
0.888898
0.915194
0.937746
0.955637
0.967914
0.97433
0.976782
0.977286
0.976407
0.971169
0.955288
0.942565
0.936318
0.933324
0.932025
0.931495
0.931286
0.931202
0.931001
0.930237
0.928672
0.927766
0.926945
0.92661
0.926458
0.926984
0.928562
0.931606
0.93597
0.939856
0.941534
0.941681
0.934771
0.923184
0.918407
0.918469
0.924051
0.947051
0.972507
0.987032
0.994388
0.997739
0.999148
0.999703
0.999909
0.999974
0.999984
0.999943
0.999358
0.992499
0.933457
0.875444
0.891102
0.940549
0.956362
0.959434
0.959152
0.960116
0.962453
0.964974
0.967621
0.970444
0.972246
0.970138
0.957151
0.933388
0.920937
0.929211
0.964434
0.98432
0.992111
0.995824
0.997291
0.997891
0.998139
0.998224
0.998218
0.998122
0.997901
0.997579
0.997025
0.996014
0.993432
0.985914
0.96675
0.920789
0.89697
0.892436
0.897368
0.927402
0.94879
0.953755
0.952076
0.943475
0.93085
0.920464
0.916008
0.91432
0.911867
0.908599
0.903955
0.897482
0.889955
0.880903
0.87257
0.866844
0.866071
0.872151
0.885563
0.903093
0.920789
0.935628
0.946277
0.952827
0.956341
0.957758
0.957841
0.956685
0.953695
0.954968
0.957477
0.954994
0.939288
0.904589
0.893557
0.89775
0.933098
0.971957
0.98974
0.99576
0.996642
0.995438
0.989867
0.985221
0.983494
0.983384
0.984565
0.989401
0.99405
0.99674
0.99817
0.998841
0.999125
0.999259
0.999347
0.999412
0.999479
0.999583
0.999703
0.999775
0.999785
0.999749
0.999714
0.999727
0.999725
0.999518
0.997969
0.995596
0.995384
0.996309
0.998371
0.999381
0.99969
0.999681
0.999479
0.645788
0.717601
0.744585
0.760598
0.776908
0.787563
0.798261
0.805837
0.815755
0.826602
0.836801
0.849708
0.868249
0.888893
0.909211
0.92962
0.946782
0.960389
0.969852
0.97478
0.976692
0.97702
0.976015
0.970396
0.953833
0.941868
0.935866
0.93322
0.932095
0.931606
0.931302
0.93083
0.929887
0.928532
0.927241
0.92662
0.926183
0.925999
0.925491
0.924689
0.923952
0.923665
0.923868
0.925644
0.932127
0.940883
0.943787
0.943649
0.938041
0.922886
0.917706
0.91811
0.926985
0.956119
0.978657
0.990522
0.996109
0.998501
0.999452
0.999809
0.99994
0.999984
0.99999
0.99996
0.999507
0.994373
0.948062
0.877949
0.880526
0.928281
0.954189
0.959769
0.961828
0.963252
0.964903
0.966908
0.9687
0.968879
0.967129
0.95766
0.934853
0.910535
0.907594
0.930357
0.971985
0.987265
0.993509
0.996183
0.997239
0.997769
0.998018
0.998068
0.998019
0.99781
0.997451
0.996694
0.994935
0.990554
0.979759
0.952304
0.905924
0.887695
0.884725
0.893344
0.925866
0.947347
0.951476
0.949905
0.943768
0.933343
0.925068
0.922603
0.92105
0.917699
0.912321
0.9052
0.89597
0.885384
0.874546
0.86412
0.85433
0.844907
0.840225
0.845969
0.863086
0.886247
0.909529
0.928192
0.941186
0.949407
0.954055
0.955895
0.95573
0.952282
0.945657
0.946035
0.950126
0.94832
0.931384
0.89925
0.891429
0.899782
0.942607
0.977246
0.991916
0.996376
0.996767
0.995032
0.989779
0.986745
0.985968
0.986266
0.98882
0.99347
0.996463
0.998121
0.998957
0.999343
0.999526
0.999627
0.999693
0.999748
0.999809
0.999871
0.999915
0.999933
0.999934
0.999935
0.999942
0.99994
0.999883
0.999497
0.999152
0.999191
0.999519
0.999818
0.999896
0.999878
0.999666
0.998739
0.631935
0.70524
0.740057
0.761771
0.795132
0.818578
0.829352
0.837929
0.848884
0.86224
0.878366
0.893172
0.908311
0.923912
0.939183
0.952193
0.963036
0.970494
0.974766
0.976562
0.976971
0.976291
0.970881
0.956754
0.943619
0.936828
0.933577
0.932228
0.931739
0.931496
0.93108
0.930304
0.929435
0.928856
0.928972
0.931373
0.932963
0.93372
0.93268
0.930174
0.926488
0.924031
0.923195
0.923393
0.92492
0.932277
0.942489
0.944409
0.942674
0.931675
0.918725
0.916239
0.919804
0.941938
0.971
0.987011
0.994682
0.997968
0.999261
0.999741
0.999912
0.999971
0.999992
0.999995
0.999977
0.999715
0.996625
0.96822
0.892354
0.879599
0.906587
0.946211
0.95879
0.962521
0.964334
0.965784
0.966627
0.966714
0.965973
0.960855
0.94306
0.916149
0.899658
0.900532
0.9305
0.973236
0.988179
0.99331
0.995655
0.99644
0.997186
0.997497
0.997551
0.997277
0.996837
0.995908
0.993816
0.988759
0.976096
0.938892
0.891709
0.875685
0.873499
0.884399
0.918834
0.942819
0.948672
0.948471
0.945793
0.941352
0.937919
0.936776
0.934353
0.92832
0.920852
0.911007
0.898183
0.885342
0.874751
0.865221
0.855158
0.842318
0.829226
0.822471
0.826431
0.845797
0.875985
0.903387
0.923597
0.93703
0.945643
0.95082
0.952881
0.952282
0.945488
0.934799
0.935047
0.940009
0.93824
0.918682
0.892905
0.889978
0.906867
0.955147
0.983074
0.994053
0.996938
0.996936
0.99466
0.990761
0.989118
0.98894
0.98975
0.993075
0.996185
0.997997
0.998961
0.999437
0.999664
0.999776
0.999837
0.999877
0.999911
0.999942
0.999963
0.999975
0.99998
0.999984
0.999987
0.999987
0.999974
0.999908
0.99988
0.999901
0.999957
0.999971
0.999957
0.999831
0.9991
0.99615
0.622936
0.679757
0.727694
0.753463
0.789146
0.819816
0.846141
0.866764
0.882149
0.893385
0.904897
0.917216
0.931814
0.944283
0.954936
0.96364
0.970371
0.974339
0.976274
0.976919
0.976873
0.974646
0.964486
0.949845
0.938985
0.934164
0.932349
0.931906
0.931684
0.931556
0.931214
0.930464
0.930058
0.931298
0.934581
0.937224
0.938161
0.937957
0.937214
0.935782
0.932387
0.92725
0.924064
0.923381
0.924105
0.928765
0.940226
0.944296
0.943427
0.934387
0.919145
0.91432
0.916446
0.935384
0.966872
0.985148
0.993944
0.997704
0.999174
0.999712
0.999901
0.999967
0.999989
0.999997
0.999998
0.99999
0.999867
0.998359
0.983507
0.916707
0.888967
0.894259
0.926313
0.952094
0.960905
0.964162
0.965603
0.965872
0.965615
0.963927
0.957346
0.935241
0.907992
0.895301
0.896858
0.926264
0.971132
0.987005
0.991791
0.994112
0.994759
0.995455
0.996247
0.996127
0.995535
0.993959
0.991088
0.984726
0.968312
0.925393
0.885176
0.869494
0.866349
0.871959
0.901377
0.930189
0.940699
0.943952
0.943918
0.942786
0.941872
0.940076
0.937048
0.93038
0.922945
0.915173
0.905663
0.895113
0.887709
0.883148
0.876276
0.859386
0.833455
0.814556
0.808381
0.811359
0.834789
0.874687
0.904146
0.9231
0.934634
0.942143
0.946975
0.948767
0.947281
0.935105
0.920507
0.921248
0.926691
0.924271
0.90311
0.88725
0.889629
0.92176
0.967135
0.988331
0.99581
0.997424
0.997139
0.994806
0.992526
0.991864
0.991974
0.993376
0.996151
0.997941
0.998947
0.999469
0.999725
0.999848
0.999907
0.999939
0.999959
0.999974
0.999984
0.99999
0.999993
0.999996
0.999997
0.999997
0.999995
0.999986
0.999985
0.99999
0.999993
0.999986
0.999922
0.999535
0.997585
0.990793
0.636136
0.639285
0.697229
0.735122
0.770754
0.810959
0.84231
0.867218
0.88971
0.908712
0.924305
0.934929
0.945575
0.956333
0.963923
0.969087
0.973183
0.975521
0.976554
0.97675
0.975772
0.969941
0.957444
0.945105
0.93742
0.933558
0.931808
0.931555
0.93154
0.931555
0.931495
0.931116
0.931155
0.931729
0.934015
0.936725
0.937864
0.937859
0.937462
0.936397
0.93385
0.928383
0.924628
0.923699
0.92412
0.928159
0.939786
0.944619
0.943592
0.934586
0.916346
0.912279
0.915084
0.933492
0.965485
0.984538
0.993733
0.997642
0.99916
0.999712
0.999902
0.999967
0.999989
0.999996
0.999999
0.999999
0.999996
0.999945
0.999285
0.992726
0.947586
0.900852
0.896037
0.906272
0.938708
0.955814
0.962333
0.964605
0.965053
0.964725
0.962955
0.956364
0.934761
0.906047
0.894905
0.896186
0.920484
0.967286
0.984112
0.98907
0.991667
0.992441
0.993013
0.993522
0.993393
0.992376
0.989457
0.982474
0.96295
0.912576
0.872389
0.858166
0.853306
0.855273
0.866079
0.891314
0.912051
0.921216
0.924619
0.928086
0.926602
0.923993
0.919848
0.914471
0.910776
0.908893
0.905391
0.900471
0.89728
0.894693
0.889997
0.878935
0.846981
0.815125
0.800477
0.79859
0.805277
0.841363
0.883442
0.910314
0.925222
0.933383
0.938793
0.942357
0.943312
0.939853
0.918878
0.903041
0.904733
0.910205
0.906562
0.887948
0.882889
0.894038
0.942512
0.978154
0.992598
0.997128
0.997866
0.997401
0.995595
0.994573
0.994417
0.994719
0.99629
0.997988
0.998965
0.999489
0.999753
0.999879
0.999938
0.999965
0.99998
0.999988
0.999993
0.999996
0.999998
0.999999
0.999999
0.999999
0.999999
0.999998
0.999998
0.999998
0.999996
0.99997
0.999787
0.998792
0.993946
0.985829
0.70147
0.663975
0.657582
0.695074
0.742966
0.788108
0.829072
0.861055
0.886619
0.907999
0.926193
0.940457
0.95124
0.96109
0.968167
0.972589
0.975049
0.976238
0.976687
0.976519
0.974886
0.968306
0.955667
0.944368
0.936595
0.932266
0.931151
0.930955
0.931065
0.93136
0.931465
0.931421
0.931443
0.931664
0.932355
0.934271
0.935096
0.934987
0.934506
0.93346
0.931164
0.926673
0.924093
0.923775
0.9248
0.931635
0.94396
0.946455
0.943251
0.926412
0.914235
0.91228
0.916534
0.938553
0.969308
0.986845
0.994957
0.998206
0.999393
0.999802
0.999936
0.999979
0.999993
0.999998
0.999999
1
1
0.999998
0.999966
0.999518
0.994842
0.963734
0.911899
0.897181
0.900164
0.919891
0.947111
0.95877
0.963101
0.964164
0.963913
0.962402
0.956463
0.937112
0.907174
0.896773
0.897681
0.916552
0.962682
0.980404
0.98577
0.988497
0.990282
0.990473
0.990361
0.989322
0.986244
0.978739
0.958628
0.908748
0.868522
0.849659
0.837288
0.832366
0.830716
0.833012
0.83767
0.838526
0.839595
0.84507
0.857255
0.868632
0.872336
0.872432
0.873164
0.877688