/*--------------------------------*- C++ -*----------------------------------*\
  =========                 |
  \\      /  F ield         | OpenFOAM: The Open Source CFD Toolbox
   \\    /   O peration     | Website:  https://openfoam.org
    \\  /    A nd           | Version:  9
     \\/     M anipulation  |
\*---------------------------------------------------------------------------*/
FoamFile
{
    format      ascii;
    class       volVectorField;
    location    "0.081";
    object      UMean;
}
// * * * * * * * * * * * * * * * * * * * * * * * * * * * * * * * * * * * * * //

dimensions      [0 1 -1 0 0 0 0];

internalField   nonuniform List<vector> 
12225
(
(9.84383 0.0453912 0)
(9.55033 0.0618868 0)
(9.25047 0.0596945 0)
(8.94627 0.0579982 0)
(8.64762 0.0571066 0)
(8.35993 0.0561162 0)
(8.08314 0.0548726 0)
(7.81673 0.0539468 0)
(7.55754 0.0529086 0)
(7.30703 0.0526844 0)
(7.05912 0.0518503 0)
(6.82081 0.0529365 0)
(6.57536 0.052289 0)
(6.34499 0.0566052 0)
(6.08232 0.0564365 0)
(5.85374 0.0685261 0)
(5.53396 0.0697966 0)
(5.29693 0.0990644 0)
(10.033 0.0503964 0)
(10.0931 0.0740307 0)
(10.1315 0.0732759 0)
(10.1445 0.0745292 0)
(10.1404 0.0778881 0)
(10.1262 0.0808625 0)
(10.1038 0.0832836 0)
(10.0746 0.0855729 0)
(10.0374 0.0881098 0)
(9.99461 0.0908352 0)
(9.9433 0.0942088 0)
(9.8879 0.0979261 0)
(9.82154 0.103537 0)
(9.75254 0.109722 0)
(9.66634 0.121111 0)
(9.57879 0.132638 0)
(9.46337 0.157034 0)
(9.34631 0.177731 0)
(10.0056 0.0315842 0)
(10.0377 0.0550275 0)
(10.0672 0.0573347 0)
(10.0855 0.0592123 0)
(10.0965 0.063452 0)
(10.105 0.0678543 0)
(10.1127 0.0715225 0)
(10.1194 0.0752655 0)
(10.1246 0.0789938 0)
(10.1276 0.0836455 0)
(10.1283 0.0882998 0)
(10.1262 0.0947883 0)
(10.1219 0.101631 0)
(10.1142 0.112328 0)
(10.1054 0.124993 0)
(10.0928 0.144278 0)
(10.0836 0.169222 0)
(10.0724 0.198924 0)
(9.99884 0.0275684 0)
(10.0211 0.0564679 0)
(10.0446 0.0621759 0)
(10.0602 0.064139 0)
(10.0685 0.0681649 0)
(10.0738 0.0727255 0)
(10.0783 0.0766671 0)
(10.0823 0.0801998 0)
(10.0854 0.083956 0)
(10.0875 0.0882656 0)
(10.0886 0.0935218 0)
(10.0885 0.0998525 0)
(10.0876 0.108026 0)
(10.0858 0.118445 0)
(10.0843 0.132462 0)
(10.0842 0.150645 0)
(10.0881 0.173324 0)
(10.0992 0.197778 0)
(10.0167 0.0231805 0)
(10.0326 0.0476961 0)
(10.0515 0.0553356 0)
(10.0652 0.0576591 0)
(10.0728 0.0612613 0)
(10.0773 0.0660493 0)
(10.081 0.070647 0)
(10.0842 0.074971 0)
(10.0867 0.0793206 0)
(10.088 0.0842439 0)
(10.0881 0.0899139 0)
(10.0872 0.0968153 0)
(10.0854 0.105334 0)
(10.0835 0.116099 0)
(10.0818 0.129773 0)
(10.0824 0.146572 0)
(10.0856 0.165845 0)
(10.0944 0.185051 0)
(9.98684 0.0180125 0)
(10.0001 0.0431078 0)
(10.0171 0.0535609 0)
(10.0311 0.0576285 0)
(10.0399 0.0616854 0)
(10.0453 0.0667204 0)
(10.0495 0.0717275 0)
(10.0533 0.0763856 0)
(10.0565 0.0810882 0)
(10.0588 0.0863454 0)
(10.0602 0.092464 0)
(10.0608 0.0997806 0)
(10.0609 0.108574 0)
(10.061 0.119352 0)
(10.0616 0.132331 0)
(10.0641 0.147576 0)
(10.0688 0.163986 0)
(10.0771 0.180234 0)
(10.0138 0.0160853 0)
(10.0229 0.0387079 0)
(10.0359 0.049984 0)
(10.0477 0.0548168 0)
(10.0558 0.0586274 0)
(10.0608 0.0633629 0)
(10.0645 0.0685212 0)
(10.0678 0.0735384 0)
(10.0706 0.0785329 0)
(10.0725 0.083975 0)
(10.0737 0.0902528 0)
(10.0744 0.097711 0)
(10.0748 0.10658 0)
(10.0756 0.11719 0)
(10.0771 0.12951 0)
(10.0802 0.143486 0)
(10.0851 0.1581 0)
(10.0926 0.172731 0)
(10.0074 0.0137251 0)
(10.0153 0.0334023 0)
(10.027 0.0457295 0)
(10.0385 0.0522205 0)
(10.0471 0.0569001 0)
(10.0527 0.0619813 0)
(10.0567 0.0675132 0)
(10.0601 0.0730961 0)
(10.0631 0.0786829 0)
(10.0656 0.0846204 0)
(10.0676 0.0912398 0)
(10.0692 0.0988708 0)
(10.0707 0.107684 0)
(10.0725 0.117915 0)
(10.075 0.12944 0)
(10.0789 0.1422 0)
(10.0841 0.155368 0)
(10.0915 0.168633 0)
(10.0061 0.0121601 0)
(10.0125 0.0301626 0)
(10.0215 0.042394 0)
(10.0312 0.0494593 0)
(10.0394 0.05438 0)
(10.0455 0.0594037 0)
(10.05 0.0649405 0)
(10.0539 0.070632 0)
(10.0576 0.0763509 0)
(10.0609 0.0823693 0)
(10.0637 0.0890241 0)
(10.0662 0.0966396 0)
(10.0684 0.10532 0)
(10.0709 0.115204 0)
(10.0738 0.126081 0)
(10.0778 0.137905 0)
(10.0827 0.149967 0)
(10.0895 0.162133 0)
(9.9959 0.00900705 0)
(10.0009 0.0261422 0)
(10.0083 0.0384772 0)
(10.0168 0.0465252 0)
(10.0246 0.0523318 0)
(10.0307 0.0577058 0)
(10.0354 0.063325 0)
(10.0394 0.0691587 0)
(10.0431 0.0751426 0)
(10.0467 0.0814659 0)
(10.0502 0.0883661 0)
(10.0535 0.096106 0)
(10.0569 0.104737 0)
(10.0607 0.114342 0)
(10.0649 0.124664 0)
(10.0703 0.135665 0)
(10.0764 0.146699 0)
(10.084 0.157835 0)
(9.99509 0.00895726 0)
(9.99947 0.0249513 0)
(10.006 0.0357103 0)
(10.0136 0.0433016 0)
(10.0206 0.0493106 0)
(10.0264 0.0548736 0)
(10.0312 0.0605798 0)
(10.0352 0.0665341 0)
(10.0389 0.0726283 0)
(10.0423 0.0789531 0)
(10.0455 0.0857015 0)
(10.0488 0.0931552 0)
(10.0523 0.101355 0)
(10.0563 0.110398 0)
(10.0607 0.119989 0)
(10.0661 0.130147 0)
(10.0721 0.14026 0)
(10.0795 0.150528 0)
(9.99717 0.00641507 0)
(9.99906 0.0214429 0)
(10.0041 0.0325746 0)
(10.0115 0.0409522 0)
(10.0187 0.0474461 0)
(10.025 0.053147 0)
(10.0304 0.0588897 0)
(10.0353 0.0649401 0)
(10.0399 0.0712285 0)
(10.0442 0.0777375 0)
(10.0483 0.084557 0)
(10.0524 0.0919211 0)
(10.0565 0.0998747 0)
(10.0608 0.108519 0)
(10.0658 0.117574 0)
(10.0713 0.127077 0)
(10.0777 0.136445 0)
(10.0846 0.145957 0)
(10.0032 0.00780894 0)
(10.0042 0.0184356 0)
(10.0089 0.0285657 0)
(10.0159 0.0367921 0)
(10.0231 0.0433504 0)
(10.0294 0.0491885 0)
(10.0348 0.0550172 0)
(10.0398 0.0611054 0)
(10.0446 0.0674353 0)
(10.0493 0.0740122 0)
(10.0539 0.0808648 0)
(10.0586 0.0881402 0)
(10.0635 0.0958477 0)
(10.0688 0.104058 0)
(10.0746 0.11254 0)
(10.0811 0.121342 0)
(10.088 0.12998 0)
(10.0957 0.138762 0)
(10.0029 0.00848302 0)
(10.0061 0.0174052 0)
(10.0104 0.0273876 0)
(10.0154 0.0357225 0)
(10.0207 0.042287 0)
(10.0258 0.04804 0)
(10.0308 0.0537415 0)
(10.0356 0.0596853 0)
(10.0404 0.0658442 0)
(10.0455 0.0722045 0)
(10.0507 0.0787609 0)
(10.0562 0.0856333 0)
(10.0617 0.0927909 0)
(10.0676 0.100357 0)
(10.0737 0.108098 0)
(10.0804 0.116176 0)
(10.0874 0.124071 0)
(10.0951 0.132203 0)
(9.9988 0.00271379 0)
(10.0027 0.01329 0)
(10.0071 0.0221795 0)
(10.0122 0.0296685 0)
(10.0176 0.0361944 0)
(10.0233 0.0421511 0)
(10.0289 0.0478513 0)
(10.0341 0.053528 0)
(10.0393 0.0593129 0)
(10.0445 0.0653413 0)
(10.0498 0.0716651 0)
(10.0555 0.0783651 0)
(10.0615 0.0853379 0)
(10.0678 0.0926026 0)
(10.0745 0.0998875 0)
(10.0817 0.107313 0)
(10.0893 0.114411 0)
(10.0974 0.121627 0)
(10.022 0.00287147 0)
(10.0229 0.0134599 0)
(10.0248 0.0209797 0)
(10.0282 0.0272713 0)
(10.0329 0.0332222 0)
(10.0383 0.039158 0)
(10.0439 0.0450831 0)
(10.0494 0.0509309 0)
(10.0549 0.0566719 0)
(10.0605 0.0623786 0)
(10.0662 0.0680903 0)
(10.0724 0.0739032 0)
(10.0788 0.0797693 0)
(10.0858 0.0858019 0)
(10.0931 0.0918192 0)
(10.1009 0.0980489 0)
(10.1089 0.104057 0)
(10.1174 0.110382 0)
(9.99403 0.00202982 0)
(9.99137 0.00926379 0)
(9.99091 0.0160147 0)
(9.99338 0.0219469 0)
(9.99777 0.027175 0)
(10.0032 0.0320046 0)
(10.009 0.0367025 0)
(10.0151 0.0414699 0)
(10.0216 0.0463755 0)
(10.0284 0.0514455 0)
(10.0355 0.0566153 0)
(10.0429 0.0619032 0)
(10.0504 0.067202 0)
(10.0581 0.0725979 0)
(10.0657 0.0778919 0)
(10.0737 0.0832983 0)
(10.0815 0.0884258 0)
(10.09 0.0937688 0)
(9.99147 0.0122689 0)
(9.99129 0.012386 0)
(9.99292 0.0154473 0)
(9.99695 0.0193465 0)
(10.0025 0.0232672 0)
(10.0084 0.0271579 0)
(10.0144 0.0310623 0)
(10.0205 0.0350165 0)
(10.0268 0.0390181 0)
(10.0334 0.043115 0)
(10.0402 0.047303 0)
(10.0472 0.051663 0)
(10.0543 0.0561128 0)
(10.0616 0.060719 0)
(10.069 0.0652516 0)
(10.0765 0.0698606 0)
(10.0841 0.074155 0)
(10.0919 0.0785474 0)
(9.99361 0.00105238 0)
(9.99792 0.00209297 0)
(10.0033 0.00446313 0)
(10.0091 0.00754383 0)
(10.0152 0.0107801 0)
(10.0216 0.0140466 0)
(10.0282 0.0172989 0)
(10.0349 0.0205228 0)
(10.0418 0.0237478 0)
(10.0489 0.0270744 0)
(10.056 0.0305243 0)
(10.0633 0.03412 0)
(10.0708 0.0377359 0)
(10.0784 0.0413687 0)
(10.0863 0.0448258 0)
(10.0943 0.0482388 0)
(10.1025 0.0513326 0)
(10.1108 0.0544786 0)
(10.0022 0.00136878 0)
(10.0038 0.00174816 0)
(10.0064 0.00190253 0)
(10.0101 0.00275748 0)
(10.0153 0.00449752 0)
(10.0218 0.0068643 0)
(10.029 0.00953258 0)
(10.0364 0.0122395 0)
(10.044 0.0148579 0)
(10.0517 0.017417 0)
(10.0594 0.0199435 0)
(10.0672 0.0224734 0)
(10.0752 0.024938 0)
(10.0833 0.027375 0)
(10.0916 0.0296748 0)
(10.0999 0.0319805 0)
(10.1083 0.0340878 0)
(10.1167 0.0363168 0)
(9.99911 -0.00170227 0)
(10.004 -0.00257708 0)
(10.0101 -0.00375886 0)
(10.0167 -0.00445101 0)
(10.0238 -0.00446185 0)
(10.0314 -0.00390084 0)
(10.0393 -0.00286759 0)
(10.0475 -0.0014166 0)
(10.0559 0.00036117 0)
(10.0644 0.00235248 0)
(10.073 0.00440253 0)
(10.0815 0.00641738 0)
(10.0901 0.00830067 0)
(10.0988 0.0100946 0)
(10.1073 0.0117639 0)
(10.1159 0.013456 0)
(10.1245 0.0150372 0)
(10.1329 0.0167464 0)
(9.99846 -0.00666587 0)
(10.0007 -0.00971945 0)
(10.0055 -0.0106793 0)
(10.0123 -0.010864 0)
(10.0198 -0.0106223 0)
(10.0274 -0.0100813 0)
(10.0351 -0.0092646 0)
(10.0428 -0.00814097 0)
(10.0507 -0.00675584 0)
(10.0588 -0.00521145 0)
(10.0672 -0.00364329 0)
(10.0755 -0.00211995 0)
(10.0839 -0.000718858 0)
(10.0921 0.000598281 0)
(10.1003 0.00178689 0)
(10.1084 0.0029697 0)
(10.1164 0.00403161 0)
(10.1245 0.00518419 0)
(9.98558 -0.0021664 0)
(9.99184 -0.0103273 0)
(9.99924 -0.0151465 0)
(10.0073 -0.0173004 0)
(10.0157 -0.0180957 0)
(10.024 -0.0184744 0)
(10.0324 -0.0187133 0)
(10.0409 -0.0187004 0)
(10.0497 -0.0183048 0)
(10.0587 -0.0175191 0)
(10.068 -0.0164784 0)
(10.0771 -0.0153255 0)
(10.0862 -0.0141982 0)
(10.095 -0.0131248 0)
(10.1036 -0.0121696 0)
(10.112 -0.0112629 0)
(10.1202 -0.0104889 0)
(10.1282 -0.00969929 0)
(10.0075 -0.0145567 0)
(10.0136 -0.0171862 0)
(10.022 -0.0210441 0)
(10.0313 -0.0230742 0)
(10.0401 -0.0234908 0)
(10.0482 -0.0234425 0)
(10.0556 -0.0235019 0)
(10.0629 -0.0235499 0)
(10.0702 -0.0233445 0)
(10.0777 -0.0228082 0)
(10.0853 -0.0220334 0)
(10.093 -0.0211207 0)
(10.1009 -0.0201721 0)
(10.1089 -0.0192234 0)
(10.1169 -0.0183602 0)
(10.1249 -0.0175565 0)
(10.1328 -0.0169088 0)
(10.1407 -0.0163061 0)
(9.98824 -0.0112989 0)
(9.98973 -0.0223225 0)
(9.99695 -0.0279621 0)
(10.0071 -0.0301445 0)
(10.017 -0.0309272 0)
(10.0257 -0.0315403 0)
(10.0339 -0.0321761 0)
(10.0422 -0.0325872 0)
(10.0508 -0.0326454 0)
(10.0596 -0.0324491 0)
(10.0684 -0.032151 0)
(10.0771 -0.0318206 0)
(10.0857 -0.0314934 0)
(10.0942 -0.0311513 0)
(10.1026 -0.030834 0)
(10.111 -0.030525 0)
(10.1193 -0.0303035 0)
(10.1276 -0.030108 0)
(10.0059 -0.0101954 0)
(10.0157 -0.0257865 0)
(10.0281 -0.0299039 0)
(10.0398 -0.0304089 0)
(10.0497 -0.030973 0)
(10.0583 -0.0320906 0)
(10.0664 -0.0332277 0)
(10.0748 -0.034007 0)
(10.0834 -0.0343727 0)
(10.0921 -0.03443 0)
(10.1006 -0.0342851 0)
(10.109 -0.0340004 0)
(10.1174 -0.0336515 0)
(10.1258 -0.0332938 0)
(10.1343 -0.033013 0)
(10.1427 -0.0328156 0)
(10.151 -0.0327555 0)
(10.1592 -0.0327546 0)
(10.0016 -0.0211659 0)
(10.0152 -0.0369075 0)
(10.0297 -0.0414736 0)
(10.0418 -0.0416809 0)
(10.0513 -0.0422444 0)
(10.0595 -0.0435677 0)
(10.0676 -0.0446925 0)
(10.076 -0.0452174 0)
(10.0847 -0.0453302 0)
(10.0934 -0.0453028 0)
(10.1022 -0.0452753 0)
(10.1109 -0.0452762 0)
(10.1196 -0.0453029 0)
(10.1283 -0.0453554 0)
(10.1369 -0.0454533 0)
(10.1454 -0.0455861 0)
(10.1538 -0.045774 0)
(10.1619 -0.045966 0)
(10.0139 -0.0200748 0)
(10.0323 -0.031313 0)
(10.0518 -0.0351069 0)
(10.0664 -0.0359855 0)
(10.077 -0.037357 0)
(10.0865 -0.0391664 0)
(10.0964 -0.0406687 0)
(10.1066 -0.0417296 0)
(10.1167 -0.042527 0)
(10.1265 -0.0431821 0)
(10.1361 -0.0436809 0)
(10.1455 -0.0440349 0)
(10.1549 -0.044253 0)
(10.1642 -0.0444334 0)
(10.1733 -0.0445999 0)
(10.1821 -0.0448442 0)
(10.1908 -0.0451372 0)
(10.199 -0.0455414 0)
(10.008 -0.0387155 0)
(10.0438 -0.0545554 0)
(10.075 -0.05287 0)
(10.0961 -0.0520429 0)
(10.11 -0.0533298 0)
(10.1199 -0.0547412 0)
(10.1272 -0.0555427 0)
(10.1324 -0.0558818 0)
(10.1353 -0.0560315 0)
(10.1362 -0.0561821 0)
(10.1355 -0.0563666 0)
(10.1336 -0.0566003 0)
(10.1306 -0.056808 0)
(10.127 -0.0570197 0)
(10.1224 -0.0571632 0)
(10.1176 -0.0573425 0)
(10.1116 -0.0574949 0)
(10.1059 -0.0577839 0)
(9.92005 -0.0305842 0)
(9.7566 -0.0469022 0)
(9.59058 -0.0460083 0)
(9.42217 -0.0451055 0)
(9.25658 -0.0452763 0)
(9.09693 -0.0452538 0)
(8.94428 -0.0448172 0)
(8.79874 -0.0441852 0)
(8.65989 -0.0435179 0)
(8.52738 -0.0428763 0)
(8.40069 -0.0422451 0)
(8.2798 -0.0416209 0)
(8.16408 -0.0409789 0)
(8.05394 -0.0403591 0)
(7.9482 -0.0397421 0)
(7.84808 -0.0391973 0)
(7.75108 -0.0386808 0)
(7.66031 -0.038302 0)
(-0.224329 0.480226 -1.27126e-21)
(-0.551962 0.255169 1.29176e-21)
(-0.715288 0.0540484 0)
(-0.712588 -0.144613 0)
(-0.523506 -0.319851 0)
(-0.203262 -0.444541 -1.25364e-21)
(0.205127 -0.510453 0)
(0.656774 -0.520051 0)
(1.10817 -0.489452 0)
(1.52776 -0.430828 0)
(1.89499 -0.357046 1.30591e-21)
(2.20053 -0.282442 0)
(2.44356 -0.21112 0)
(2.62282 -0.139133 0)
(2.74207 -0.0701641 0)
(2.80597 -0.00560722 1.60888e-21)
(2.81731 0.022216 0)
(2.80918 0.0162756 0)
(2.78372 0.0269935 0)
(2.7415 0.0483443 0)
(2.66975 0.0727994 0)
(2.56001 0.0950163 0)
(2.40508 0.12501 0)
(2.21796 0.173606 1.51872e-21)
(1.98226 0.232999 -1.47863e-21)
(1.71965 0.23648 1.4443e-21)
(1.45078 0.2075 1.41919e-21)
(1.16858 0.14637 0)
(0.918498 0.0839782 0)
(0.675024 0.118368 -1.39174e-21)
(0.421697 0.161904 -1.39469e-21)
(0.160621 0.182322 0)
(-0.101624 0.178828 0)
(-0.342515 0.153456 -1.43123e-21)
(-0.54538 0.115612 0)
(-0.706838 0.0783647 0)
(-0.823788 0.0473785 1.44107e-21)
(-0.910112 0.0310347 0)
(-0.991499 0.0286418 1.45446e-21)
(-1.10035 0.053313 2.94933e-21)
(-1.26351 0.101564 0)
(-1.47617 0.149832 0)
(-1.74088 0.172138 0)
(-1.9975 0.135974 0)
(-2.21562 0.0966728 0)
(-2.38974 0.0276506 3.12392e-21)
(-2.50859 -0.0870771 3.18318e-21)
(-2.62732 -0.107132 3.24805e-21)
(-2.73253 0.0222039 0)
(-2.90609 0.0944857 -3.30396e-21)
(-3.03435 0.0860878 0)
(-3.13701 0.0828661 3.36564e-21)
(-3.21845 0.076288 3.39063e-21)
(-3.28229 0.061473 0)
(-3.32281 0.036678 0)
(-3.35364 -0.0169428 0)
(-3.37164 -0.00606454 3.42351e-21)
(-3.43188 0.0236515 0)
(-3.46766 0.00915643 0)
(-3.48415 -0.00632511 0)
(-3.4544 -0.0274651 0)
(-3.422 -0.0945759 0)
(-3.37697 -0.0815987 0)
(-3.4151 -0.0032959 0)
(-3.47993 0.00781436 0)
(-3.5429 0.0182205 -3.793e-21)
(-3.62401 0.0223895 0)
(-3.70839 0.0292321 0)
(-3.81093 0.0381986 4.06102e-21)
(-3.92673 0.0479211 4.13366e-21)
(-4.05851 0.0558365 0)
(-4.20405 0.0620178 -4.22774e-21)
(-4.35573 0.0667707 4.25822e-21)
(-4.50663 0.0679046 0)
(-4.65185 0.0586848 -4.33746e-21)
(-4.78165 0.0459959 0)
(-4.8981 0.0403415 0)
(-5.01394 0.0471619 4.47837e-21)
(-5.14873 0.0638785 0)
(-5.3121 0.0824283 -4.49261e-21)
(-5.49894 0.09338 0)
(-5.6955 0.086808 4.43131e-21)
(-5.8657 0.0686495 4.37959e-21)
(-6.02414 0.0447139 4.31586e-21)
(-6.12889 0.0046195 8.47644e-21)
(-6.23944 -0.019881 -8.31212e-21)
(-6.34246 -0.0216759 0)
(-6.52213 0.0450935 0)
(-6.79228 0.166943 0)
(-7.10625 0.174137 -7.68881e-21)
(-7.31164 0.122707 -7.70652e-21)
(-7.44146 0.0800229 7.73998e-21)
(-7.5022 0.040853 0)
(-7.50345 0.00888486 -7.67765e-21)
(-7.45371 -0.0183391 -7.5436e-21)
(-7.3586 -0.0409961 -7.3338e-21)
(-7.22372 -0.0604216 0)
(-7.05273 -0.0770444 0)
(-6.84961 -0.0915205 0)
(-6.61691 -0.104179 -5.78307e-21)
(-6.35741 -0.115474 0)
(-6.07305 -0.125334 0)
(-5.76584 -0.133959 4.01963e-21)
(-5.43793 -0.141344 0)
(-5.09177 -0.147556 0)
(-4.72953 -0.152604 1.97866e-21)
(-4.35347 -0.156495 0)
(-3.96616 -0.159189 0)
(-3.5704 -0.160631 6.30057e-23)
(-3.16914 -0.160701 6.98212e-22)
(-2.7654 -0.15935 0)
(-2.36247 -0.156605 -1.85561e-21)
(-1.96379 -0.152559 0)
(-1.57186 -0.147628 2.83309e-21)
(-1.18879 -0.142633 0)
(-0.816113 -0.13705 3.62328e-21)
(-0.454019 -0.131338 3.95152e-21)
(-0.103033 -0.125608 0)
(0.236443 -0.119832 0)
(0.564003 -0.113944 0)
(0.879315 -0.107904 0)
(1.18185 -0.10173 0)
(1.47094 -0.0955356 0)
(1.74578 -0.0894007 0)
(2.00635 -0.0832858 5.13799e-21)
(2.25215 -0.0769447 -5.1283e-21)
(2.48315 -0.0706624 0)
(2.69923 -0.0644797 0)
(2.90036 -0.0584594 0)
(3.08664 -0.0525921 0)
(3.25835 -0.046952 -9.52492e-21)
(3.41578 -0.0415354 0)
(3.55934 -0.0363658 9.05947e-21)
(3.68944 -0.0314285 -8.81284e-21)
(3.80657 -0.0267162 0)
(3.91109 -0.0222147 0)
(4.00336 -0.0179199 0)
(4.08382 -0.0138369 7.83267e-21)
(4.15288 -0.00996721 7.60489e-21)
(4.21096 -0.0062988 0)
(4.25847 -0.00279115 7.18516e-21)
(4.29571 0.00059509 6.99581e-21)
(4.32297 0.00384775 -6.8212e-21)
(4.34054 0.0068341 0)
(4.34888 0.00933427 0)
(4.34886 0.0112578 -6.38878e-21)
(4.34118 0.0128074 0)
(4.32635 0.014344 0)
(4.30438 0.0161728 0)
(4.27487 0.0184163 0)
(4.23722 0.0210052 5.96507e-21)
(4.19063 0.0237538 5.92032e-21)
(4.13432 0.0264732 0)
(4.06745 0.0291269 5.8631e-21)
(3.98898 0.0316759 0)
(3.89787 0.0337913 0)
(3.79363 0.0349304 5.82359e-21)
(3.67659 0.0344865 0)
(3.54922 0.031326 5.78589e-21)
(3.41842 0.0253658 0)
(3.29395 0.018595 0)
(3.18471 0.0151084 5.69436e-21)
(3.09521 0.0162048 0)
(3.01573 0.0243521 5.64364e-21)
(2.93047 0.0304638 0)
(2.83875 0.0301912 0)
(2.74213 0.0265697 0)
(2.64418 0.0193072 -5.50998e-21)
(2.55437 0.0120995 0)
(2.47797 0.00700565 5.43746e-21)
(2.41192 0.00507796 0)
(2.354 0.00700552 0)
(2.2957 0.0120262 0)
(2.22649 0.0167722 0)
(2.14531 0.01977 0)
(2.04684 0.0173133 0)
(1.96303 0.0221219 0)
(1.82323 0.0205125 -1.05519e-20)
(1.76747 0.0447677 0)
(1.47276 0.0176283 0)
(-0.0117409 1.01149 3.90863e-21)
(0.00718557 0.702656 -3.95543e-21)
(0.0821518 0.236621 0)
(0.290755 -0.25261 2.75771e-21)
(0.586991 -0.748072 0)
(0.95825 -1.12119 1.25032e-21)
(1.35031 -1.32672 -2.77157e-21)
(1.72756 -1.38577 -2.79854e-21)
(2.0715 -1.33 0)
(2.3694 -1.19329 -2.95738e-21)
(2.6156 -1.01326 -1.30292e-21)
(2.80731 -0.816633 0)
(2.94759 -0.623208 0)
(3.04089 -0.446034 0)
(3.09563 -0.290798 0)
(3.12098 -0.150408 -1.60625e-21)
(3.12166 -0.0376285 0)
(3.09265 0.0379873 3.5797e-21)
(3.03956 0.0889034 0)
(2.96746 0.139748 0)
(2.85967 0.241773 -3.49318e-21)
(2.72145 0.366752 0)
(2.55482 0.468891 3.36328e-21)
(2.37532 0.555353 -1.5141e-21)
(2.1893 0.615895 1.47361e-21)
(1.97938 0.651689 -1.43902e-21)
(1.73519 0.705339 -1.41372e-21)
(1.44422 0.742789 0)
(1.1133 0.738009 0)
(0.747457 0.705503 1.38735e-21)
(0.398142 0.670048 -1.61443e-21)
(0.0912758 0.637542 0)
(-0.188583 0.602017 0)
(-0.420306 0.533093 1.42835e-21)
(-0.620769 0.433453 0)
(-0.790536 0.324549 0)
(-0.92953 0.216259 -1.43741e-21)
(-1.06058 0.163835 0)
(-1.20996 0.213911 1.75615e-21)
(-1.38313 0.333248 -2.9414e-21)
(-1.56841 0.447807 0)
(-1.75388 0.532987 0)
(-1.93757 0.558986 -6.55344e-21)
(-2.13301 0.498443 -6.55569e-21)
(-2.35049 0.445206 -6.61767e-21)
(-2.53687 0.378868 3.59298e-21)
(-2.75817 0.395805 -3.17808e-21)
(-3.00606 0.396508 -1.02083e-20)
(-3.15739 0.348285 7.07712e-21)
(-3.2923 0.282496 3.29699e-21)
(-3.37204 0.202005 0)
(-3.43418 0.143562 -3.35877e-21)
(-3.45539 0.0871439 3.95059e-21)
(-3.46864 0.0428728 0)
(-3.47089 0.0278584 0)
(-3.51024 0.0541492 0)
(-3.53937 0.0730154 -3.41972e-21)
(-3.56876 0.0605573 0)
(-3.56906 0.0199879 7.34484e-21)
(-3.56929 -0.0403328 0)
(-3.55068 -0.0851849 7.44164e-21)
(-3.62459 -0.014391 0)
(-3.713 0.0543594 -7.64842e-21)
(-3.796 0.0948765 0)
(-3.87832 0.109775 7.94192e-21)
(-3.95962 0.132019 -4.3414e-21)
(-4.04942 0.152473 0)
(-4.1433 0.177793 -8.52934e-21)
(-4.25067 0.203816 -4.05868e-21)
(-4.37032 0.230062 -4.1309e-21)
(-4.50732 0.251098 0)
(-4.65837 0.262686 -4.74931e-21)
(-4.80201 0.254802 -4.25427e-21)
(-4.93901 0.237539 0)
(-5.06448 0.224235 4.33358e-21)
(-5.18132 0.210408 -9.21889e-21)
(-5.30038 0.199917 0)
(-5.42978 0.212102 -4.47398e-21)
(-5.57261 0.246906 0)
(-5.72658 0.281795 1.38339e-20)
(-5.88269 0.298682 0)
(-6.04546 0.289799 -1.36031e-20)
(-6.1977 0.264237 -4.37711e-21)
(-6.35751 0.224322 4.58065e-21)
(-6.52003 0.204701 8.99147e-21)
(-6.75368 0.234696 -8.84352e-21)
(-6.99095 0.298847 0)
(-7.28503 0.397493 0)
(-7.45773 0.38249 0)
(-7.56871 0.292305 2.4052e-20)
(-7.59759 0.18446 7.70318e-21)
(-7.58626 0.0875845 -7.73606e-21)
(-7.52846 0.000692766 0)
(-7.43802 -0.0730297 -8.32374e-21)
(-7.31393 -0.137114 7.54139e-21)
(-7.16185 -0.192464 7.3326e-21)
(-6.98194 -0.241266 0)
(-6.77676 -0.284491 0)
(-6.54643 -0.323283 0)
(-6.29251 -0.358288 5.78438e-21)
(-6.01542 -0.390004 0)
(-5.71662 -0.418525 -9.65623e-21)
(-5.39712 -0.443953 -1.23965e-20)
(-5.05849 -0.46616 7.03117e-21)
(-4.70203 -0.48504 0)
(-4.32982 -0.500422 2.25729e-21)
(-3.94422 -0.512211 0)
(-3.54776 -0.520306 1.44369e-21)
(-3.14324 -0.524562 -1.60122e-22)
(-2.73355 -0.524681 4.93923e-22)
(-2.32172 -0.520479 0)
(-1.9109 -0.512177 5.39814e-21)
(-1.50458 -0.500204 -4.58353e-21)
(-1.10542 -0.485682 -2.83191e-21)
(-0.71514 -0.469898 0)
(-0.334808 -0.453149 -3.62135e-21)
(0.0352121 -0.436033 -1.1739e-20)
(0.394522 -0.418828 0)
(0.742913 -0.401587 -8.86461e-21)
(1.08 -0.38411 -9.27945e-21)
(1.40536 -0.36623 -9.6146e-21)
(1.71856 -0.347927 0)
(2.01885 -0.329754 0)
(2.30537 -0.311121 0)
(2.57829 -0.292324 5.07154e-21)
(2.83712 -0.273415 5.12319e-21)
(3.0817 -0.254624 0)
(3.31197 -0.236147 1.00108e-20)
(3.52795 -0.218146 9.86122e-21)
(3.72978 -0.200662 0)
(3.91774 -0.183839 9.51604e-21)
(4.09219 -0.167688 1.85038e-20)
(4.2535 -0.152252 -9.05103e-21)
(4.40217 -0.137513 -8.73683e-21)
(4.53864 -0.123461 0)
(4.66343 -0.110076 0)
(4.77708 -0.097337 0)
(4.8801 -0.0852289 -7.82523e-21)
(4.97296 -0.0737375 7.54061e-21)
(5.05617 -0.062837 1.47067e-20)
(5.13015 -0.0524917 -7.17807e-21)
(5.19537 -0.0426382 6.93351e-21)
(5.25228 -0.0332299 6.81418e-21)
(5.30124 -0.0242665 0)
(5.34247 -0.0158147 0)
(5.37588 -0.00795064 -6.32536e-21)
(5.40144 -0.000652001 0)
(5.41922 0.00621182 0)
(5.42941 0.0128385 1.21095e-20)
(5.43229 0.0194483 0)
(5.42831 0.0262692 5.89157e-21)
(5.41795 0.033556 -5.91291e-21)
(5.40151 0.0415078 0)
(5.37876 0.0502902 5.77342e-21)
(5.34903 0.0599713 0)
(5.31123 0.0704287 0)
(5.26403 0.081159 -5.81601e-21)
(5.20558 0.0913418 1.14838e-20)
(5.13392 0.0991412 -5.77814e-21)
(5.04724 0.102235 0)
(4.94375 0.0977725 0)
(4.82221 0.0859283 5.58583e-21)
(4.68623 0.0704137 0)
(4.55603 0.0584725 5.544e-21)
(4.45288 0.0565106 0)
(4.37772 0.0609323 0)
(4.32031 0.0672468 0)
(4.26119 0.0703157 5.50163e-21)
(4.1932 0.0667954 0)
(4.12014 0.0591651 -5.429e-21)
(4.04777 0.0519304 0)
(3.97796 0.0457881 0)
(3.92005 0.0462985 1.06232e-20)
(3.86722 0.0499229 -1.05836e-20)
(3.82623 0.0599421 0)
(3.76926 0.0620612 0)
(3.7247 0.0751408 0)
(3.62242 0.0683446 3.14904e-20)
(3.57928 0.101791 0)
(3.38507 0.0854415 -2.08471e-20)
(0.0931785 0.630192 -5.10855e-23)
(0.358491 0.213725 5.25809e-21)
(0.710615 -0.422037 0)
(1.12793 -1.06882 -5.52643e-21)
(1.53433 -1.59624 0)
(1.87682 -1.92528 0)
(2.13819 -2.04016 -3.57189e-22)
(2.32829 -1.98107 2.79324e-21)
(2.45932 -1.79392 3.35417e-21)
(2.54995 -1.52656 2.95441e-21)
(2.60428 -1.23147 0)
(2.63312 -0.943008 0)
(2.63906 -0.673112 -3.78538e-21)
(2.62659 -0.431074 -7.70622e-21)
(2.59732 -0.22731 7.79936e-21)
(2.553 -0.0625526 0)
(2.50122 0.0704477 7.86745e-21)
(2.43185 0.175577 -3.5818e-21)
(2.34935 0.260617 0)
(2.23236 0.387744 7.72551e-21)
(2.09856 0.525242 3.49246e-21)
(1.96388 0.643943 -7.51159e-21)
(1.82284 0.75077 -3.36085e-21)
(1.67904 0.839659 0)
(1.52306 0.92262 7.09339e-21)
(1.33311 1.03019 6.95503e-21)
(1.12417 1.13241 0)
(0.889041 1.22724 6.71432e-21)
(0.63007 1.29164 0)
(0.349421 1.30664 6.56615e-21)
(0.0507886 1.26455 2.99484e-21)
(-0.23357 1.17755 0)
(-0.495933 1.0538 0)
(-0.718955 0.900719 0)
(-0.924095 0.75305 0)
(-1.10714 0.612093 0)
(-1.30226 0.52437 0)
(-1.50662 0.5038 6.85845e-21)
(-1.71612 0.549953 -1.01599e-20)
(-1.92743 0.63905 0)
(-2.11368 0.716841 0)
(-2.29621 0.751943 0)
(-2.43425 0.788553 -5.75676e-22)
(-2.59452 0.772414 6.54363e-21)
(-2.73919 0.721999 1.37687e-20)
(-2.88099 0.666432 -1.39617e-20)
(-3.014 0.611262 -7.38248e-21)
(-3.12557 0.543618 6.95749e-21)
(-3.19129 0.472973 5.89594e-22)
(-3.24693 0.394778 7.77289e-21)
(-3.27935 0.310024 0)
(-3.31279 0.226628 7.9167e-21)
(-3.33607 0.156846 6.07048e-22)
(-3.38076 0.123611 0)
(-3.42374 0.11498 0)
(-3.46106 0.114584 -7.92927e-21)
(-3.47471 0.100443 0)
(-3.49104 0.075042 0)
(-3.50396 0.0322944 8.43848e-21)
(-3.54178 0.00686102 1.58055e-20)
(-3.64487 0.0617257 -7.44214e-21)
(-3.78603 0.137459 0)
(-3.90638 0.179612 7.64734e-21)
(-4.01058 0.20248 0)
(-4.10693 0.217866 9.27394e-21)
(-4.19409 0.234795 8.1287e-21)
(-4.27328 0.253284 -1.81309e-20)
(-4.34956 0.282156 -1.00241e-20)
(-4.43044 0.322632 0)
(-4.52257 0.368902 1.91328e-20)
(-4.63004 0.40501 0)
(-4.74589 0.416372 2.82953e-20)
(-4.85852 0.40072 1.93497e-20)
(-4.96766 0.372166 1.94052e-20)
(-5.06369 0.339144 -1.95009e-20)
(-5.16121 0.321998 2.88477e-20)
(-5.26853 0.331168 0)
(-5.38474 0.365849 0)
(-5.50915 0.408437 -1.97663e-20)
(-5.63994 0.440062 -2.9008e-20)
(-5.7723 0.455011 0)
(-5.92004 0.448196 9.18201e-21)
(-6.07582 0.425125 0)
(-6.25156 0.407683 -2.74544e-20)
(-6.46491 0.439159 7.67156e-22)
(-6.69507 0.484932 -8.37493e-22)
(-6.92663 0.553574 1.78455e-20)
(-7.07202 0.5444 0)
(-7.09961 0.438616 -1.76547e-20)
(-7.0908 0.299578 1.20207e-21)
(-7.04496 0.158068 0)
(-6.98788 0.0300574 0)
(-6.90614 -0.0840805 0)
(-6.80676 -0.18339 1.60098e-20)
(-6.68161 -0.271603 0)
(-6.53361 -0.34992 0)
(-6.35989 -0.420604 0)
(-6.16248 -0.484675 0)
(-5.9409 -0.543472 0)
(-5.69671 -0.597515 1.25654e-20)
(-5.43019 -0.647253 0)
(-5.14268 -0.692655 9.66563e-21)
(-4.83505 -0.733637 8.3834e-21)
(-4.5089 -0.769852 -7.03772e-21)
(-4.16568 -0.800944 0)
(-3.80733 -0.826402 -4.24055e-21)
(-3.43586 -0.845961 0)
(-3.05349 -0.859442 -1.44559e-21)
(-2.6625 -0.866552 9.89964e-23)
(-2.26537 -0.866944 -2.8997e-21)
(-1.86498 -0.860271 0)
(-1.4646 -0.84655 -1.00633e-20)
(-1.06781 -0.826786 -4.06892e-21)
(-0.677706 -0.802901 0)
(-0.296419 -0.776359 -1.23048e-20)
(0.0751403 -0.748386 -1.38414e-20)
(0.436674 -0.720073 2.29842e-20)
(0.787969 -0.69175 0)
(1.12886 -0.663428 8.86188e-21)
(1.45907 -0.634752 9.27646e-21)
(1.77802 -0.605398 2.85495e-20)
(2.08502 -0.575599 0)
(2.37924 -0.545346 0)
(2.6603 -0.514482 0)
(2.92772 -0.483363 9.98347e-21)
(3.18112 -0.452239 0)
(3.4203 -0.421362 0)
(3.64517 -0.391005 -1.00034e-20)
(3.8558 -0.361444 -9.85428e-21)
(4.05235 -0.33279 0)
(4.23511 -0.305254 0)
(4.40446 -0.278841 -1.84927e-20)
(4.56084 -0.253645 0)
(4.70474 -0.229643 1.75321e-20)
(4.83665 -0.206844 1.69257e-20)
(4.95703 -0.185228 0)
(5.06639 -0.164763 0)
(5.16521 -0.145431 -1.54863e-20)
(5.25402 -0.127211 -9.64267e-23)
(5.33339 -0.110059 -9.43456e-23)
(5.40393 -0.0939035 0)
(5.46628 -0.0786636 -2.77425e-20)
(5.52099 -0.0642843 0)
(5.56858 -0.0507321 0)
(5.60946 -0.0379601 0)
(5.64392 -0.0259047 1.27026e-20)
(5.6721 -0.0144517 0)
(5.69401 -0.00341964 -2.43655e-20)
(5.70966 0.00738813 -1.2105e-20)
(5.71906 0.01805 0)
(5.72232 0.0285233 -1.18446e-20)
(5.71967 0.0387914 0)
(5.71157 0.0490706 0)
(5.69877 0.059845 -3.46435e-20)
(5.68207 0.0716026 2.29259e-20)
(5.66198 0.0845133 0)
(5.63842 0.0982553 2.27736e-20)
(5.6106 0.112293 -1.14793e-20)
(5.57691 0.125551 0)
(5.53508 0.136728 0)
(5.48145 0.144418 0)
(5.41258 0.148103 -3.35496e-20)
(5.32373 0.148083 0)
(5.21186 0.140015 -1.11743e-20)
(5.08336 0.121293 0)
(4.95116 0.10116 0)
(4.83725 0.089386 0)
(4.75444 0.0870376 0)
(4.6876 0.0857846 0)
(4.61773 0.0806591 0)
(4.54514 0.075722 -2.12047e-20)
(4.47168 0.0706443 0)
(4.4064 0.0676189 -1.0617e-20)
(4.34708 0.0637913 3.15367e-20)
(4.30927 0.0674752 0)
(4.27288 0.068096 0)
(4.25885 0.0860733 -2.08203e-20)
(4.21182 0.0931249 -2.0943e-20)
(4.19372 0.133415 2.07365e-20)
(4.08778 0.13311 2.08344e-20)
(0.0864136 -0.00579491 -7.8004e-21)
(0.510918 -0.692622 -7.87351e-21)
(1.0166 -1.45807 -5.50638e-21)
(1.45157 -1.99795 -3.06609e-21)
(1.77539 -2.32196 0)
(1.96836 -2.39513 6.58438e-21)
(2.05162 -2.26739 -3.81495e-21)
(2.06813 -2.0336 0)
(2.04364 -1.74512 -3.35637e-21)
(2.01173 -1.43137 0)
(1.97698 -1.12357 8.07406e-21)
(1.94327 -0.829771 0)
(1.90438 -0.556208 3.79017e-21)
(1.85573 -0.311489 7.71604e-21)
(1.7954 -0.0991544 -7.80908e-21)
(1.72581 0.0779194 0)
(1.64605 0.22682 -7.87524e-21)
(1.55638 0.347604 0)
(1.44618 0.4731 0)
(1.31302 0.619303 -7.7277e-21)
(1.17777 0.75554 0)
(1.03562 0.884972 -7.37587e-22)
(0.889809 0.999693 0)
(0.732753 1.1141 0)
(0.555644 1.24468 7.98064e-22)
(0.370297 1.37283 -6.94758e-21)
(0.17956 1.4943 -7.64047e-21)
(-0.0120461 1.59794 -6.70285e-21)
(-0.20457 1.6702 0)
(-0.400103 1.70057 -1.38605e-20)
(-0.608559 1.67193 0)
(-0.822387 1.5766 -7.14928e-21)
(-1.03894 1.43117 0)
(-1.2476 1.26206 0)
(-1.45437 1.09973 7.0914e-21)
(-1.66367 0.965829 0)
(-1.89044 0.888775 -7.18781e-21)
(-2.11297 0.866598 4.48482e-22)
(-2.33222 0.907321 1.43823e-20)
(-2.54089 0.978843 -1.51034e-20)
(-2.72594 1.03662 0)
(-2.88071 1.03492 0)
(-2.99618 1.00508 -8.28026e-21)
(-3.08926 0.937332 0)
(-3.15959 0.866892 -7.15213e-21)
(-3.21875 0.805755 7.25187e-21)
(-3.25424 0.726224 7.37486e-21)
(-3.27226 0.630628 0)
(-3.27699 0.529911 -7.65642e-21)
(-3.28264 0.42526 -7.77073e-21)
(-3.28876 0.325759 1.70315e-20)
(-3.31249 0.246025 -7.91643e-21)
(-3.35224 0.197926 -7.94186e-21)
(-3.41179 0.170373 0)
(-3.46324 0.146383 0)
(-3.50734 0.128777 7.93022e-21)
(-3.5447 0.114575 0)
(-3.59798 0.104475 0)
(-3.66188 0.0936594 -1.5783e-20)
(-3.77511 0.139865 -1.58016e-20)
(-3.94007 0.233927 0)
(-4.10294 0.303076 0)
(-4.2351 0.330725 0)
(-4.35767 0.343626 0)
(-4.46447 0.34474 -1.72003e-20)
(-4.55017 0.341009 1.9174e-20)
(-4.61645 0.345149 1.81215e-20)
(-4.67291 0.371563 3.86393e-20)
(-4.72907 0.420133 0)
(-4.78527 0.477259 1.52793e-21)
(-4.84414 0.515183 0)
(-4.90242 0.517745 -1.93201e-20)
(-4.96021 0.491517 1.38327e-21)
(-5.01684 0.452441 -1.94197e-20)
(-5.0711 0.43316 1.95191e-20)
(-5.12857 0.432377 1.22878e-21)
(-5.18035 0.43463 0)
(-5.24182 0.467455 2.0953e-20)
(-5.31938 0.519443 1.97876e-20)
(-5.4162 0.563498 4.0382e-20)
(-5.52956 0.593795 0)
(-5.6653 0.604113 -2.01383e-20)
(-5.81684 0.604063 0)
(-5.99603 0.619928 3.80682e-20)
(-6.18662 0.6542 -1.82573e-20)
(-6.37007 0.68701 1.8016e-20)
(-6.50091 0.676394 -1.78598e-20)
(-6.52625 0.569591 -3.79415e-20)
(-6.49594 0.412719 1.76684e-20)
(-6.4592 0.253495 -1.7592e-20)
(-6.40377 0.0978421 0)
(-6.34163 -0.0453861 3.70598e-20)