/*--------------------------------*- C++ -*----------------------------------*\
  =========                 |
  \\      /  F ield         | OpenFOAM: The Open Source CFD Toolbox
   \\    /   O peration     | Website:  https://openfoam.org
    \\  /    A nd           | Version:  9
     \\/     M anipulation  |
\*---------------------------------------------------------------------------*/
FoamFile
{
    format      ascii;
    class       volSymmTensorField;
    location    "0.081";
    object      UPrime2Mean;
}
// * * * * * * * * * * * * * * * * * * * * * * * * * * * * * * * * * * * * * //

dimensions      [0 2 -2 0 0 0 0];

internalField   nonuniform List<symmTensor> 
12225
(
(-48.3575 -0.2222 0 0.00119428 0 0)
(-45.5333 -0.296671 0 -0.000931147 0 0)
(-42.7206 -0.276736 0 -0.00109066 0 0)
(-39.9593 -0.258857 0 -0.00112175 0 0)
(-37.3451 -0.245381 0 -0.00115398 0 0)
(-34.9179 -0.232392 0 -0.00114709 0 0)
(-32.6623 -0.219712 0 -0.00110754 0 0)
(-30.5618 -0.209105 0 -0.00107598 0 0)
(-28.5793 -0.199218 0 -0.00102204 0 0)
(-26.7223 -0.192263 0 -0.00100257 0 0)
(-24.9312 -0.18456 0 -0.000889738 0 0)
(-23.2642 -0.182222 0 -0.000894464 0 0)
(-21.5677 -0.178377 0 -0.000541072 0 0)
(-20.0283 -0.186004 0 -0.000679983 0 0)
(-18.2252 -0.196238 0 0.000838004 0 0)
(-16.6898 -0.223894 0 -5.48483e-05 0 0)
(-14.3367 -0.297638 0 0.0090586 0 0)
(-12.3921 -0.368942 0 0.00420849 0 0)
(-50.4084 -0.247489 0 0.00159098 0 0)
(-51.0263 -0.37205 0 -0.00140909 0 0)
(-51.4198 -0.369274 0 -0.00177392 0 0)
(-51.5532 -0.376195 0 -0.00202361 0 0)
(-51.5132 -0.392768 0 -0.002354 0 0)
(-51.3743 -0.406481 0 -0.00261485 0 0)
(-51.1558 -0.416993 0 -0.00281368 0 0)
(-50.8741 -0.427264 0 -0.00296315 0 0)
(-50.514 -0.438345 0 -0.00311863 0 0)
(-50.1016 -0.450806 0 -0.00314866 0 0)
(-49.602 -0.465092 0 -0.00320673 0 0)
(-49.0695 -0.482549 0 -0.00285559 0 0)
(-48.4175 -0.507065 0 -0.00262261 0 0)
(-47.7513 -0.539469 0 -0.00107239 0 0)
(-46.8812 -0.595077 0 0.000328382 0 0)
(-46.0091 -0.667359 0 0.00635373 0 0)
(-44.7706 -0.812447 0 0.0153717 0 0)
(-43.4873 -0.998786 0 0.0472263 0 0)
(-49.9836 -0.153608 0 0.00306645 0 0)
(-50.3158 -0.277317 0 0.000198899 0 0)
(-50.6274 -0.288596 0 -0.000439385 0 0)
(-50.8305 -0.297152 0 -0.000698543 0 0)
(-50.9572 -0.317355 0 -0.00103537 0 0)
(-51.0573 -0.337958 0 -0.00133774 0 0)
(-51.1486 -0.355379 0 -0.001533 0 0)
(-51.2333 -0.37388 0 -0.00167399 0 0)
(-51.3027 -0.393057 0 -0.00171322 0 0)
(-51.3539 -0.4168 0 -0.00170042 0 0)
(-51.3787 -0.440605 0 -0.00135366 0 0)
(-51.3774 -0.472976 0 -0.000845059 0 0)
(-51.3449 -0.507474 0 0.000708024 0 0)
(-51.2796 -0.561822 0 0.00280119 0 0)
(-51.187 -0.62945 0 0.00835815 0 0)
(-51.0545 -0.735916 0 0.0172541 0 0)
(-50.9293 -0.887035 0 0.0395931 0 0)
(-50.7817 -1.09039 0 0.0841355 0 0)
(-49.9248 -0.134436 0 0.00338506 0 0)
(-50.1515 -0.278479 0 0.000394548 0 0)
(-50.4006 -0.30708 0 -0.000597399 0 0)
(-50.5748 -0.317532 0 -0.000921535 0 0)
(-50.6742 -0.33789 0 -0.00123676 0 0)
(-50.7382 -0.36013 0 -0.00151281 0 0)
(-50.7912 -0.378708 0 -0.00167983 0 0)
(-50.8388 -0.395464 0 -0.00170785 0 0)
(-50.88 -0.413427 0 -0.00161755 0 0)
(-50.913 -0.434731 0 -0.00131671 0 0)
(-50.9374 -0.460675 0 -0.00075564 0 0)
(-50.9503 -0.49269 0 0.000385563 0 0)
(-50.9524 -0.534065 0 0.00241694 0 0)
(-50.9413 -0.58851 0 0.00622317 0 0)
(-50.925 -0.663498 0 0.0133033 0 0)
(-50.9136 -0.765664 0 0.0267702 0 0)
(-50.9293 -0.902231 0 0.0527982 0 0)
(-51.0107 -1.06408 0 0.101234 0 0)
(-50.2682 -0.114703 0 0.003857 0 0)
(-50.4289 -0.236059 0 0.00135219 0 0)
(-50.6232 -0.275621 0 0.000244992 0 0)
(-50.769 -0.286878 0 -8.0021e-05 0 0)
(-50.8526 -0.303567 0 -0.000290544 0 0)
(-50.9053 -0.32611 0 -0.000466534 0 0)
(-50.9504 -0.348014 0 -0.000534325 0 0)
(-50.9925 -0.36894 0 -0.000452056 0 0)
(-51.0268 -0.390185 0 -0.000149301 0 0)
(-51.05 -0.414364 0 0.000451302 0 0)
(-51.0603 -0.442169 0 0.00155635 0 0)
(-51.0599 -0.476458 0 0.00343123 0 0)
(-51.0486 -0.519556 0 0.00665661 0 0)
(-51.032 -0.575742 0 0.0122054 0 0)
(-51.0119 -0.649708 0 0.0218241 0 0)
(-51.0068 -0.745369 0 0.0389727 0 0)
(-51.0211 -0.862451 0 0.0683207 0 0)
(-51.0881 -0.991119 0 0.11891 0 0)
(-49.7933 -0.0881826 0 0.00438383 0 0)
(-49.9358 -0.207593 0 0.0017179 0 0)
(-50.1169 -0.260375 0 0.000357712 0 0)
(-50.2717 -0.281195 0 -0.000152949 0 0)
(-50.374 -0.300897 0 -0.000403532 0 0)
(-50.4407 -0.324867 0 -0.000527887 0 0)
(-50.4942 -0.348453 0 -0.000493707 0 0)
(-50.5438 -0.370372 0 -0.000235251 0 0)
(-50.5886 -0.39273 0 0.000310257 0 0)
(-50.6262 -0.418228 0 0.00126808 0 0)
(-50.6549 -0.44836 0 0.00287152 0 0)
(-50.6759 -0.484957 0 0.00552041 0 0)
(-50.6897 -0.529693 0 0.0098945 0 0)
(-50.7008 -0.586054 0 0.0171569 0 0)
(-50.713 -0.656488 0 0.0291315 0 0)
(-50.7373 -0.743255 0 0.0491178 0 0)
(-50.7798 -0.842742 0 0.0811666 0 0)
(-50.8551 -0.949527 0 0.132294 0 0)
(-50.3301 -0.0757796 0 0.00508647 0 0)
(-50.4325 -0.189288 0 0.00272449 0 0)
(-50.5682 -0.24692 0 0.0013759 0 0)
(-50.6913 -0.271023 0 0.000855417 0 0)
(-50.7767 -0.288523 0 0.00071403 0 0)
(-50.8333 -0.310396 0 0.000748778 0 0)
(-50.8778 -0.334738 0 0.000955071 0 0)
(-50.9178 -0.358633 0 0.00144015 0 0)
(-50.9525 -0.38242 0 0.00233503 0 0)
(-50.9796 -0.408414 0 0.00382077 0 0)
(-50.9992 -0.438786 0 0.00616674 0 0)
(-51.0136 -0.47566 0 0.00985753 0 0)
(-51.0259 -0.520725 0 0.0156335 0 0)
(-51.0396 -0.576486 0 0.0247883 0 0)
(-51.0586 -0.643886 0 0.0390996 0 0)
(-51.0886 -0.723835 0 0.061642 0 0)
(-51.1355 -0.812117 0 0.0957729 0 0)
(-51.2052 -0.905487 0 0.146744 0 0)
(-50.0901 -0.0665385 0 0.00434036 0 0)
(-50.1872 -0.159155 0 0.00236853 0 0)
(-50.3185 -0.220021 0 0.0011401 0 0)
(-50.4474 -0.25234 0 0.000604379 0 0)
(-50.5457 -0.274836 0 0.00048272 0 0)
(-50.6134 -0.298984 0 0.00060756 0 0)
(-50.6633 -0.325351 0 0.000968074 0 0)
(-50.7065 -0.352138 0 0.00165835 0 0)
(-50.7463 -0.379025 0 0.00283595 0 0)
(-50.7831 -0.4077 0 0.00473493 0 0)
(-50.8152 -0.439842 0 0.00769947 0 0)
(-50.8444 -0.477407 0 0.0122935 0 0)
(-50.8707 -0.521744 0 0.0193207 0 0)
(-50.9004 -0.574817 0 0.0301069 0 0)
(-50.9333 -0.636811 0 0.0463419 0 0)
(-50.9804 -0.708307 0 0.0707258 0 0)
(-51.0369 -0.785199 0 0.105937 0 0)
(-51.1196 -0.865623 0 0.155911 0 0)
(-50.1367 -0.0557333 0 0.00539825 0 0)
(-50.2221 -0.143341 0 0.00342032 0 0)
(-50.3199 -0.204275 0 0.00207647 0 0)
(-50.4242 -0.238788 0 0.00153459 0 0)
(-50.5138 -0.261783 0 0.00149688 0 0)
(-50.5826 -0.285216 0 0.00176882 0 0)
(-50.6369 -0.31141 0 0.00234305 0 0)
(-50.6853 -0.338238 0 0.00335747 0 0)
(-50.7315 -0.364898 0 0.00500524 0 0)
(-50.7754 -0.392919 0 0.00755101 0 0)
(-50.8147 -0.424212 0 0.0113654 0 0)
(-50.8495 -0.460805 0 0.0170451 0 0)
(-50.8796 -0.50362 0 0.0254069 0 0)
(-50.9096 -0.553943 0 0.0377348 0 0)
(-50.9408 -0.611027 0 0.0555726 0 0)
(-50.9813 -0.675063 0 0.0812292 0 0)
(-51.0299 -0.742021 0 0.116775 0 0)
(-51.0975 -0.81059 0 0.16521 0 0)
(-49.984 -0.028462 0 0.00571042 0 0)
(-50.0494 -0.120398 0 0.00380879 0 0)
(-50.1298 -0.182622 0 0.00233576 0 0)
(-50.2209 -0.221636 0 0.00177669 0 0)
(-50.3056 -0.248973 0 0.00176078 0 0)
(-50.3754 -0.274024 0 0.0021293 0 0)
(-50.4316 -0.300279 0 0.00289756 0 0)
(-50.4805 -0.327368 0 0.00419783 0 0)
(-50.5275 -0.355004 0 0.0062307 0 0)
(-50.5745 -0.384333 0 0.0092943 0 0)
(-50.6208 -0.416815 0 0.0137915 0 0)
(-50.667 -0.454042 0 0.0203415 0 0)
(-50.713 -0.496515 0 0.0297397 0 0)
(-50.7623 -0.54482 0 0.0431876 0 0)
(-50.8152 -0.59774 0 0.0620121 0 0)
(-50.8777 -0.65495 0 0.0881773 0 0)
(-50.9467 -0.712653 0 0.123177 0 0)
(-51.0312 -0.77027 0 0.169346 0 0)
(-50.0679 -0.0337175 0 0.00639436 0 0)
(-50.1256 -0.118065 0 0.00480516 0 0)
(-50.2026 -0.169671 0 0.00372114 0 0)
(-50.2868 -0.204031 0 0.0032335 0 0)
(-50.3626 -0.231125 0 0.00326043 0 0)
(-50.4274 -0.256743 0 0.00379176 0 0)
(-50.4829 -0.283204 0 0.00482451 0 0)
(-50.5315 -0.310615 0 0.00647185 0 0)
(-50.575 -0.338091 0 0.00895771 0 0)
(-50.6159 -0.366159 0 0.0126173 0 0)
(-50.6553 -0.396165 0 0.0178794 0 0)
(-50.6962 -0.430031 0 0.0253588 0 0)
(-50.7389 -0.468334 0 0.0357948 0 0)
(-50.7872 -0.511735 0 0.050251 0 0)
(-50.8394 -0.558629 0 0.0698038 0 0)
(-50.9012 -0.608854 0 0.0960558 0 0)
(-50.9674 -0.658558 0 0.130007 0 0)
(-51.0479 -0.707924 0 0.173458 0 0)
(-49.9042 -0.0136352 0 0.00666847 0 0)
(-49.9324 -0.0943423 0 0.00465138 0 0)
(-49.9915 -0.151174 0 0.0031951 0 0)
(-50.0772 -0.191464 0 0.00267219 0 0)
(-50.1625 -0.220933 0 0.00285937 0 0)
(-50.2378 -0.246162 0 0.00363021 0 0)
(-50.3051 -0.271919 0 0.00496724 0 0)
(-50.3676 -0.299338 0 0.00698547 0 0)
(-50.4268 -0.327607 0 0.00992269 0 0)
(-50.4827 -0.356377 0 0.0141354 0 0)
(-50.5353 -0.386278 0 0.0200483 0 0)
(-50.5857 -0.418845 0 0.0282575 0 0)
(-50.6361 -0.454686 0 0.0394296 0 0)
(-50.6886 -0.494442 0 0.0545172 0 0)
(-50.7463 -0.536559 0 0.0743721 0 0)
(-50.8099 -0.580799 0 0.100293 0 0)
(-50.8811 -0.623452 0 0.132905 0 0)
(-50.9583 -0.66499 0 0.17366 0 0)
(-50.042 -0.0253411 0 0.0075596 0 0)
(-50.0565 -0.0807956 0 0.00608938 0 0)
(-50.113 -0.128398 0 0.00446897 0 0)
(-50.1988 -0.165493 0 0.00408184 0 0)
(-50.2841 -0.195115 0 0.00449108 0 0)
(-50.3578 -0.221832 0 0.00545865 0 0)
(-50.4214 -0.248632 0 0.00697677 0 0)
(-50.4802 -0.276395 0 0.0092223 0 0)
(-50.537 -0.304862 0 0.0124773 0 0)
(-50.5924 -0.333975 0 0.0171133 0 0)
(-50.6462 -0.363985 0 0.0235363 0 0)
(-50.7002 -0.395778 0 0.0322954 0 0)
(-50.7556 -0.429539 0 0.0439663 0 0)
(-50.8163 -0.465565 0 0.0593764 0 0)
(-50.8815 -0.502548 0 0.079164 0 0)
(-50.9552 -0.540282 0 0.104422 0 0)
(-51.0318 -0.575733 0 0.135389 0 0)
(-51.118 -0.60975 0 0.1733 0 0)
(-49.858 -0.0273168 0 0.00797864 0 0)
(-49.8902 -0.0727459 0 0.0068135 0 0)
(-49.9334 -0.122923 0 0.00539149 0 0)
(-49.9863 -0.163045 0 0.00487399 0 0)
(-50.0409 -0.192854 0 0.00516131 0 0)
(-50.0946 -0.218051 0 0.0061882 0 0)
(-50.1468 -0.242876 0 0.00793067 0 0)
(-50.2 -0.268905 0 0.0105088 0 0)
(-50.2563 -0.295682 0 0.0141578 0 0)
(-50.317 -0.322814 0 0.0192033 0 0)
(-50.3803 -0.350081 0 0.0260083 0 0)
(-50.4458 -0.378172 0 0.0350624 0 0)
(-50.5114 -0.407033 0 0.0468458 0 0)
(-50.5792 -0.437395 0 0.0620488 0 0)
(-50.6476 -0.467956 0 0.0811121 0 0)
(-50.7214 -0.499296 0 0.104887 0 0)
(-50.7955 -0.528196 0 0.133363 0 0)
(-50.8788 -0.556092 0 0.167545 0 0)
(-49.9032 -0.00188594 0 0.00920484 0 0)
(-49.9459 -0.0507336 0 0.0087039 0 0)
(-49.9944 -0.0928122 0 0.00721815 0 0)
(-50.0511 -0.128177 0 0.00676761 0 0)
(-50.1114 -0.158145 0 0.0073118 0 0)
(-50.1719 -0.184385 0 0.00863672 0 0)
(-50.2297 -0.208542 0 0.0106743 0 0)
(-50.2839 -0.231818 0 0.0135557 0 0)
(-50.3364 -0.254953 0 0.0175283 0 0)
(-50.3893 -0.278901 0 0.0229197 0 0)
(-50.4444 -0.304212 0 0.0300483 0 0)
(-50.502 -0.331329 0 0.0393238 0 0)
(-50.563 -0.359528 0 0.0510888 0 0)
(-50.6267 -0.388409 0 0.0658913 0 0)
(-50.6951 -0.416179 0 0.0839226 0 0)
(-50.7664 -0.442829 0 0.105881 0 0)
(-50.8434 -0.465682 0 0.131441 0 0)
(-50.921 -0.486303 0 0.161492 0 0)
(-50.2429 0.00291382 0 0.0104235 0 0)
(-50.2516 -0.0515243 0 0.00893174 0 0)
(-50.2651 -0.0873005 0 0.00691211 0 0)
(-50.2952 -0.11574 0 0.006486 0 0)
(-50.3398 -0.142196 0 0.00720939 0 0)
(-50.3941 -0.169236 0 0.00863722 0 0)
(-50.4519 -0.196644 0 0.0106598 0 0)
(-50.5086 -0.222969 0 0.0134903 0 0)
(-50.5637 -0.247284 0 0.0174286 0 0)
(-50.6191 -0.269775 0 0.0227646 0 0)
(-50.6769 -0.29087 0 0.0297239 0 0)
(-50.7384 -0.311155 0 0.0385995 0 0)
(-50.8045 -0.330549 0 0.0495975 0 0)
(-50.8758 -0.349499 0 0.0630971 0 0)
(-50.9517 -0.367198 0 0.0791414 0 0)
(-51.0321 -0.384575 0 0.0982283 0 0)
(-51.1146 -0.399489 0 0.119951 0 0)
(-51.1996 -0.414256 0 0.14502 0 0)
(-49.8945 -0.00459316 0 0.0110554 0 0)
(-49.8491 -0.0380881 0 0.00956845 0 0)
(-49.8237 -0.0697357 0 0.00656582 0 0)
(-49.8346 -0.0956708 0 0.00606091 0 0)
(-49.8713 -0.116513 0 0.00703097 0 0)
(-49.9231 -0.134589 0 0.00880072 0 0)
(-49.9814 -0.151673 0 0.0112636 0 0)
(-50.0437 -0.168952 0 0.0145388 0 0)
(-50.1103 -0.186754 0 0.018806 0 0)
(-50.1824 -0.204962 0 0.0242825 0 0)
(-50.2576 -0.22299 0 0.0311356 0 0)
(-50.335 -0.240634 0 0.039578 0 0)
(-50.4113 -0.257232 0 0.0496979 0 0)
(-50.4883 -0.272985 0 0.061747 0 0)
(-50.5616 -0.28691 0 0.0756377 0 0)
(-50.637 -0.299816 0 0.0917393 0 0)
(-50.7064 -0.309946 0 0.10958 0 0)
(-50.7823 -0.319288 0 0.129795 0 0)
(-49.8283 -0.070133 0 0.011297 0 0)
(-49.8198 -0.0598559 0 0.0108407 0 0)
(-49.8296 -0.0697269 0 0.00873073 0 0)
(-49.8708 -0.0844505 0 0.00820784 0 0)
(-49.9298 -0.0988935 0 0.00867689 0 0)
(-49.9899 -0.11287 0 0.00991547 0 0)
(-50.0462 -0.126304 0 0.0118749 0 0)
(-50.1013 -0.139103 0 0.0145901 0 0)
(-50.1581 -0.151191 0 0.018164 0 0)
(-50.2175 -0.162897 0 0.0227434 0 0)
(-50.2787 -0.174408 0 0.0284312 0 0)
(-50.3408 -0.186272 0 0.0353426 0 0)
(-50.4029 -0.198124 0 0.0434787 0 0)
(-50.4646 -0.210074 0 0.0529697 0 0)
(-50.5257 -0.220814 0 0.063658 0 0)
(-50.586 -0.230637 0 0.0758153 0 0)
(-50.6458 -0.237692 0 0.0890069 0 0)
(-50.7048 -0.243408 0 0.103664 0 0)
(-49.8547 -0.00844028 0 0.0110669 0 0)
(-49.8949 -0.00143164 0 0.0106064 0 0)
(-49.9466 -0.00761739 0 0.00846332 0 0)
(-50.0075 -0.0206138 0 0.00778782 0 0)
(-50.0722 -0.0340874 0 0.00828719 0 0)
(-50.1368 -0.0465538 0 0.00962407 0 0)
(-50.2 -0.0578244 0 0.0115944 0 0)
(-50.2626 -0.0678202 0 0.014136 0 0)
(-50.3252 -0.0768956 0 0.0172831 0 0)
(-50.3875 -0.085905 0 0.021129 0 0)
(-50.4497 -0.0952021 0 0.0257301 0 0)
(-50.5121 -0.104819 0 0.0311411 0 0)
(-50.5758 -0.113929 0 0.0373361 0 0)
(-50.6406 -0.122122 0 0.0443889 0 0)
(-50.7072 -0.128334 0 0.0521597 0 0)
(-50.7738 -0.132934 0 0.0608074 0 0)
(-50.842 -0.134873 0 0.0700033 0 0)
(-50.9081 -0.135659 0 0.0800455 0 0)
(-50.0463 -0.024472 0 0.0132497 0 0)
(-50.0702 -0.0120328 0 0.01225 0 0)
(-50.0954 -0.00336514 0 0.00943438 0 0)
(-50.1234 -0.00179379 0 0.00841801 0 0)
(-50.167 -0.00639847 0 0.00852844 0 0)
(-50.2277 -0.0149368 0 0.00928033 0 0)
(-50.2977 -0.0250459 0 0.0105222 0 0)
(-50.3705 -0.034494 0 0.012232 0 0)
(-50.4434 -0.0421685 0 0.0144088 0 0)
(-50.5147 -0.0482991 0 0.0170685 0 0)
(-50.5846 -0.0533202 0 0.0202195 0 0)
(-50.6535 -0.0574896 0 0.0238854 0 0)
(-50.723 -0.0605013 0 0.0280408 0 0)
(-50.7928 -0.0624305 0 0.0327136 0 0)
(-50.864 -0.0628993 0 0.0377923 0 0)
(-50.9343 -0.0626025 0 0.043396 0 0)
(-51.005 -0.0608994 0 0.0493166 0 0)
(-51.072 -0.0592972 0 0.0557028 0 0)
(-49.988 0.0131255 0 0.0114802 0 0)
(-50.0704 0.0160979 0 0.0111896 0 0)
(-50.1505 0.0249555 0 0.00884255 0 0)
(-50.2211 0.0336841 0 0.00779001 0 0)
(-50.2902 0.0397048 0 0.00771251 0 0)
(-50.3665 0.0431134 0 0.00824277 0 0)
(-50.4488 0.043929 0 0.00918945 0 0)
(-50.5331 0.0419324 0 0.0104664 0 0)
(-50.6177 0.037673 0 0.0120433 0 0)
(-50.702 0.032339 0 0.0139544 0 0)
(-50.7849 0.027342 0 0.0162364 0 0)
(-50.8661 0.0236471 0 0.0189048 0 0)
(-50.9454 0.0218442 0 0.0219153 0 0)
(-51.0232 0.0216512 0 0.025262 0 0)
(-51.0991 0.0228201 0 0.0288533 0 0)
(-51.1733 0.0243775 0 0.0327888 0 0)
(-51.245 0.026565 0 0.0369246 0 0)
(-51.315 0.0282238 0 0.0413406 0 0)
(-49.8989 0.0458815 0 0.0115729 0 0)
(-49.9265 0.0567533 0 0.0101385 0 0)
(-49.9757 0.0616446 0 0.00727667 0 0)
(-50.0428 0.0659651 0 0.00606136 0 0)
(-50.1143 0.0687422 0 0.00574552 0 0)
(-50.1849 0.0702467 0 0.00596069 0 0)
(-50.2534 0.0705539 0 0.00655204 0 0)
(-50.3217 0.0692091 0 0.0074251 0 0)
(-50.3919 0.0664106 0 0.00852654 0 0)
(-50.4644 0.0630492 0 0.00985442 0 0)
(-50.5378 0.0602372 0 0.0114256 0 0)
(-50.6103 0.0586028 0 0.0132517 0 0)
(-50.6801 0.0585765 0 0.0153062 0 0)
(-50.7472 0.0598707 0 0.0175826 0 0)
(-50.8108 0.0624321 0 0.0200182 0 0)
(-50.8724 0.0654425 0 0.0226795 0 0)
(-50.9311 0.0691649 0 0.0254716 0 0)
(-50.9892 0.0725309 0 0.0284435 0 0)
(-49.764 0.0169841 0 0.00927009 0 0)
(-49.8234 0.0544447 0 0.00808492 0 0)
(-49.8931 0.0803629 0 0.00603026 0 0)
(-49.9729 0.0940627 0 0.00513269 0 0)
(-50.0559 0.10166 0 0.00501052 0 0)
(-50.1376 0.108175 0 0.00524265 0 0)
(-50.2183 0.114634 0 0.00562747 0 0)
(-50.3005 0.119836 0 0.00614945 0 0)
(-50.3859 0.122632 0 0.0068465 0 0)
(-50.4746 0.122883 0 0.00773389 0 0)
(-50.5643 0.121596 0 0.00880463 0 0)
(-50.6518 0.119971 0 0.0100577 0 0)
(-50.735 0.119039 0 0.0114762 0 0)
(-50.8125 0.119129 0 0.0130557 0 0)
(-50.8846 0.12047 0 0.0147404 0 0)
(-50.9512 0.122641 0 0.0165733 0 0)
(-51.0139 0.125762 0 0.0184763 0 0)
(-51.0725 0.12913 0 0.0204805 0 0)
(-50.0383 0.0810952 0 0.00835812 0 0)
(-50.0927 0.0934754 0 0.00568559 0 0)
(-50.1684 0.113692 0 0.00366634 0 0)
(-50.2566 0.125796 0 0.0030152 0 0)
(-50.3413 0.130729 0 0.00292195 0 0)
(-50.4145 0.134127 0 0.00303501 0 0)
(-50.4771 0.138797 0 0.00324055 0 0)
(-50.5335 0.143599 0 0.00354261 0 0)
(-50.588 0.146861 0 0.00397624 0 0)
(-50.6433 0.148049 0 0.00455527 0 0)
(-50.7001 0.147718 0 0.00526576 0 0)
(-50.759 0.146566 0 0.00609315 0 0)
(-50.8192 0.145302 0 0.00702363 0 0)
(-50.8803 0.144313 0 0.00805673 0 0)
(-50.9407 0.14416 0 0.00916539 0 0)
(-51.0003 0.144838 0 0.0103789 0 0)
(-51.0579 0.146737 0 0.0116454 0 0)
(-51.1146 0.14936 0 0.0129762 0 0)
(-49.7885 0.0471049 0 0.00736566 0 0)
(-49.7834 0.111238 0 0.00520551 0 0)
(-49.8391 0.14239 0 0.00339921 0 0)
(-49.9333 0.154803 0 0.00267244 0 0)
(-50.0279 0.160606 0 0.00243338 0 0)
(-50.1092 0.166321 0 0.00244931 0 0)
(-50.1821 0.172589 0 0.00259738 0 0)
(-50.2544 0.177716 0 0.00281741 0 0)
(-50.3288 0.180907 0 0.00309834 0 0)
(-50.4045 0.182907 0 0.00345072 0 0)
(-50.4795 0.184716 0 0.00388369 0 0)
(-50.5523 0.18673 0 0.0043986 0 0)
(-50.6225 0.189052 0 0.0049872 0 0)
(-50.6901 0.191523 0 0.00564759 0 0)
(-50.7558 0.194323 0 0.00635152 0 0)
(-50.8195 0.19742 0 0.00712454 0 0)
(-50.8822 0.201188 0 0.00792957 0 0)
(-50.9429 0.205416 0 0.00875577 0 0)
(-49.9614 0.0480077 0 0.00709524 0 0)
(-50.0565 0.133961 0 0.00522023 0 0)
(-50.1724 0.153634 0 0.00354046 0 0)
(-50.2833 0.156208 0 0.00281025 0 0)
(-50.3776 0.161025 0 0.00252222 0 0)
(-50.458 0.169569 0 0.00241514 0 0)
(-50.5331 0.178514 0 0.00236283 0 0)
(-50.6086 0.185745 0 0.00234968 0 0)
(-50.6848 0.190688 0 0.00241076 0 0)
(-50.7596 0.193683 0 0.0025617 0 0)
(-50.8322 0.195227 0 0.00278555 0 0)
(-50.9026 0.195739 0 0.00305797 0 0)
(-50.9719 0.195828 0 0.00336971 0 0)
(-51.0403 0.196092 0 0.00372874 0 0)
(-51.1087 0.197205 0 0.00412307 0 0)
(-51.1758 0.199318 0 0.00457255 0 0)
(-51.2427 0.202638 0 0.00504897 0 0)
(-51.3066 0.206704 0 0.00553083 0 0)
(-50.1029 0.0887284 0 0.0056099 0 0)
(-50.2446 0.182329 0 0.00309299 0 0)
(-50.3845 0.207999 0 0.00174378 0 0)
(-50.4988 0.209529 0 0.00128398 0 0)
(-50.5881 0.214263 0 0.00106533 0 0)
(-50.6636 0.223819 0 0.00092264 0 0)
(-50.7365 0.232225 0 0.00083836 0 0)
(-50.8113 0.236976 0 0.000815683 0 0)
(-50.8876 0.239232 0 0.00084653 0 0)
(-50.9637 0.24076 0 0.00091923 0 0)
(-51.0396 0.242526 0 0.00102686 0 0)
(-51.1151 0.244774 0 0.00116712 0 0)
(-51.1901 0.24748 0 0.00133768 0 0)
(-51.2633 0.250637 0 0.00153575 0 0)
(-51.335 0.254287 0 0.00175043 0 0)
(-51.4033 0.25834 0 0.0019978 0 0)
(-51.4697 0.262785 0 0.00226314 0 0)
(-51.5315 0.267332 0 0.00254177 0 0)
(-50.2775 0.0983795 0 0.00487082 0 0)
(-50.4854 0.152848 0 0.00239109 0 0)
(-50.6902 0.175821 0 0.00124278 0 0)
(-50.8362 0.18167 0 0.00083924 0 0)
(-50.9389 0.189282 0 0.000661156 0 0)
(-51.0307 0.199982 0 0.000543067 0 0)
(-51.1254 0.209835 0 0.000442214 0 0)
(-51.2214 0.21764 0 0.000358926 0 0)
(-51.3137 0.224076 0 0.000300838 0 0)
(-51.4004 0.229621 0 0.00027714 0 0)
(-51.4834 0.234056 0 0.000290527 0 0)
(-51.5642 0.237404 0 0.000330867 0 0)
(-51.6442 0.239811 0 0.000390793 0 0)
(-51.7218 0.242026 0 0.000467963 0 0)
(-51.7974 0.24437 0 0.000563324 0 0)
(-51.8682 0.247459 0 0.000685594 0 0)
(-51.9365 0.251113 0 0.000826463 0 0)
(-51.9981 0.255638 0 0.00096978 0 0)
(-50.0958 0.195863 0 0.00286381 0 0)
(-50.4639 0.27514 0 0.000377648 0 0)
(-50.7829 0.266619 0 -0.000191289 0 0)
(-50.997 0.263219 0 -0.000378813 0 0)
(-51.1356 0.271415 0 -0.000574607 0 0)
(-51.2332 0.280754 0 -0.000749403 0 0)
(-51.3026 0.28648 0 -0.000857756 0 0)
(-51.3454 0.288962 0 -0.00091027 0 0)
(-51.3615 0.290021 0 -0.000934503 0 0)
(-51.3549 0.291233 0 -0.000944688 0 0)
(-51.3295 0.293049 0 -0.000946139 0 0)
(-51.2916 0.295512 0 -0.000942907 0 0)
(-51.242 0.298051 0 -0.000929078 0 0)
(-51.1856 0.300668 0 -0.000903924 0 0)
(-51.1183 0.30291 0 -0.000864652 0 0)
(-51.0472 0.305326 0 -0.000812033 0 0)
(-50.9627 0.3076 0 -0.000747682 0 0)
(-50.8797 0.310632 0 -0.000691051 0 0)
(-49.2657 0.134502 0 0.00210207 0 0)
(-47.6771 0.22464 0 9.26342e-05 0 0)
(-46.0776 0.218311 0 -0.000167459 0 0)
(-44.4772 0.211016 0 -0.000250412 0 0)
(-42.9244 0.209201 0 -0.000345005 0 0)
(-41.4456 0.206485 0 -0.000405057 0 0)
(-40.05 0.201738 0 -0.000427565 0 0)
(-38.7383 0.196119 0 -0.000431781 0 0)
(-37.5048 0.190546 0 -0.000430763 0 0)
(-36.3434 0.185392 0 -0.000428999 0 0)
(-35.2461 0.180551 0 -0.000425 0 0)
(-34.21 0.175929 0 -0.000417746 0 0)
(-33.2276 0.171375 0 -0.000406429 0 0)
(-32.3006 0.167069 0 -0.000394843 0 0)
(-31.418 0.162947 0 -0.000382374 0 0)
(-30.588 0.159336 0 -0.000366425 0 0)
(-29.7897 0.156023 0 -0.00035196 0 0)
(-29.0457 0.153468 0 -0.000348971 0 0)
(-0.0175638 0.0422472 -2.35548e-22 -0.0904448 4.69529e-22 4.08735e-39)
(-0.10154 0.0405669 5.84996e-22 -0.000465033 -2.66948e-22 4.02144e-39)
(-0.0617576 -0.0648686 0 0.0531017 0 0)
(0.201353 -0.186764 0 0.058293 0 0)
(0.617947 -0.225053 0 0.0111652 0 0)
(1.00308 -0.161566 -6.31273e-22 -0.0397192 -3.67726e-22 3.78174e-39)
(1.2107 -0.0299954 0 -0.0669674 0 0)
(1.16664 0.105275 0 -0.0628359 0 0)
(0.911742 0.192541 0 -0.0339841 0 0)
(0.540705 0.208533 0 0.00543484 0 0)
(0.190878 0.156595 -9.78171e-22 0.0391291 4.42658e-22 3.48269e-39)
(-0.0328454 0.0736816 0 0.0562874 0 0)
(-0.0912412 -0.0159559 0 0.0638117 0 0)
(0.0435475 -0.125538 0 0.0713274 0 0)
(0.360308 -0.241227 0 0.0744244 0 0)
(0.841227 -0.352147 -2.0708e-21 0.0730394 1.6696e-22 3.20619e-39)
(1.4712 -0.303111 0 0.0568992 0 0)
(1.95095 -0.0906055 0 0.0488867 0 0)
(2.25276 0.0378841 0 0.0608157 0 0)
(2.39663 0.094057 0 0.0772402 0 0)
(2.51764 0.116688 0 0.0957009 0 0)
(2.73536 0.125132 0 0.116702 0 0)
(3.10604 0.08697 0 0.128626 0 0)
(3.57356 -0.0422522 -2.77304e-21 0.121136 3.60176e-23 2.82048e-39)
(4.26485 -0.214925 2.77829e-21 0.137106 3.36063e-23 2.77587e-39)
(5.05836 -0.244715 -2.75129e-21 0.153506 -8.92782e-23 2.73182e-39)
(5.88841 -0.211979 -2.71628e-21 0.191462 -1.35476e-22 2.68825e-39)
(6.79442 -0.159214 0 0.227492 0 0)
(7.65321 -0.101353 0 0.201382 0 0)
(8.50007 -0.197721 2.69216e-21 0.222298 7.60779e-23 2.5565e-39)
(9.3971 -0.313312 2.78299e-21 0.222605 8.39661e-23 2.5119e-39)
(10.3642 -0.382064 0 0.211816 0 0)
(11.4077 -0.408949 0 0.203872 0 0)
(12.4297 -0.391009 3.3956e-21 0.210076 2.73436e-23 2.38159e-39)
(13.3543 -0.359971 0 0.229592 0 0)
(14.2034 -0.339433 0 0.266129 0 0)
(15.0413 -0.371235 -4.16979e-21 0.326694 -1.58872e-23 2.25683e-39)
(15.9637 -0.452448 0 0.357207 0 0)
(17 -0.536226 -4.75388e-21 0.338217 -4.40007e-23 2.17743e-39)
(17.9983 -0.518568 -1.00514e-20 0.279376 -6.66745e-23 8.55362e-39)
(18.6952 -0.365841 0 0.237879 0 0)
(18.9943 -0.170969 0 0.236751 0 0)
(18.8141 -0.0544552 0 0.271259 0 0)
(18.5607 -0.144977 0 0.297698 0 0)
(18.4932 -0.28857 0 0.368877 0 0)
(18.7839 -0.643534 -1.18184e-20 0.347285 7.16895e-22 7.66403e-39)
(19.5551 -1.07282 -1.22382e-20 0.335497 9.78872e-22 7.51981e-39)
(20.3328 -1.14371 -1.25587e-20 0.402581 9.94321e-22 7.37772e-39)
(21.2003 -0.71149 0 0.25338 0 0)
(21.762 -0.560317 1.35346e-20 0.319878 -5.96317e-22 7.09904e-39)
(22.668 -0.543481 0 0.251754 0 0)
(23.6721 -0.501211 -1.48168e-20 0.240034 4.58302e-22 6.83212e-39)
(24.7479 -0.440785 -1.57513e-20 0.221893 4.15194e-22 6.7034e-39)
(25.7755 -0.435126 0 0.197107 0 0)
(26.8775 -0.445111 0 0.174714 0 0)
(27.8035 -0.607464 0 0.187543 0 0)
(28.751 -0.517114 -2.04721e-20 0.187111 6.4918e-22 6.21395e-39)
(29.4133 -0.506192 0 0.269049 0 0)
(30.5554 -0.61487 0 0.217777 0 0)
(31.8485 -0.736216 0 0.189568 0 0)
(33.7626 -0.818681 0 0.160287 0 0)
(35.3789 -1.19819 0 0.184418 0 0)
(36.9783 -0.981777 0 0.14158 0 0)
(37.4311 -0.541076 0 0.267988 0 0)
(37.8933 -0.542094 0 0.259306 0 0)
(38.4759 -0.522288 2.57579e-20 0.25719 6.67989e-23 5.20034e-39)
(39.0213 -0.506659 0 0.245667 0 0)
(39.4403 -0.43295 0 0.235096 0 0)
(39.5596 -0.312536 -2.38679e-20 0.22326 -3.57712e-23 4.88618e-39)
(39.241 -0.161996 -2.31757e-20 0.213015 -1.73472e-22 4.78554e-39)
(38.4274 -0.0181919 0 0.206629 0 0)
(37.1001 0.0926538 2.16428e-20 0.20622 2.4552e-22 4.59095e-39)
(35.4886 0.156688 -2.07317e-20 0.218352 -2.41074e-22 4.49611e-39)
(33.8252 0.14977 0 0.231453 0 0)
(32.2999 0.0413013 1.82089e-20 0.220433 8.11821e-23 4.30717e-39)
(31.0645 -0.0791717 0 0.198334 0 0)
(30.0113 -0.0918945 0 0.178234 0 0)
(28.7678 0.0568657 -1.37545e-20 0.160572 -1.4305e-23 4.03445e-39)
(26.8624 0.32875 0 0.14682 0 0)
(24.0253 0.629408 1.08715e-20 0.139822 2.53874e-22 3.86352e-39)
(20.3696 0.839968 0 0.137383 0 0)
(16.2333 0.844722 -7.7199e-21 0.132513 -4.54032e-22 3.70184e-39)
(12.4287 0.7152 -6.27617e-21 0.134557 -3.50696e-22 3.62375e-39)
(8.68293 0.485752 -4.95568e-21 0.144057 -1.84088e-22 3.54712e-39)
(5.96155 0.0502935 -8.17376e-21 0.149105 2.72964e-22 1.38864e-38)
(3.07661 -0.241624 6.37241e-21 0.196546 -6.87191e-22 1.35885e-38)
(0.294895 -0.296152 0 0.206818 0 0)
(-4.03672 0.366215 0 0.269063 0 0)
(-9.9444 1.57868 0 0.234305 0 0)
(-16.1172 1.42392 -7.35113e-21 0.271573 1.86378e-21 1.24226e-38)
(-19.4009 0.785208 -1.11878e-20 0.19423 9.52168e-22 1.21404e-38)
(-20.8908 0.338658 1.31684e-20 0.146041 -2.13158e-22 1.1867e-38)
(-21.0392 0.00729552 0 0.107632 0 0)
(-20.2065 -0.222936 -1.16228e-20 0.0822596 -8.09637e-22 1.13489e-38)
(-18.6519 -0.386254 -8.74151e-21 0.0637783 -1.10114e-21 1.11029e-38)
(-16.5655 -0.498703 -4.93536e-21 0.0504143 -1.28652e-21 1.08643e-38)
(-14.0955 -0.573389 0 0.0400117 0 0)
(-11.364 -0.617955 0 0.0317552 0 0)
(-8.47293 -0.638187 0 0.0249403 0 0)
(-5.51158 -0.638509 1.35675e-20 0.0192648 -1.35149e-21 9.96283e-39)
(-2.55635 -0.624058 0 0.0145293 0 0)
(0.326368 -0.595752 0 0.0105663 0 0)
(3.0864 -0.557809 -2.49166e-20 0.00728728 1.02854e-21 9.32122e-39)
(5.67994 -0.512432 0 0.00456112 0 0)
(8.07733 -0.461916 0 0.0022533 0 0)
(10.2528 -0.407367 -3.09545e-20 0.000248033 6.29397e-22 8.70175e-39)
(12.1839 -0.349811 0 -0.00152501 0 0)
(13.8522 -0.289914 0 -0.00309669 0 0)
(15.2412 -0.228396 3.17076e-20 -0.00446734 -2.50798e-22 8.10648e-39)
(16.3394 -0.165858 3.09403e-20 -0.00559676 -1.32653e-22 7.91367e-39)
(17.1409 -0.103472 0 -0.0064296 0 0)
(17.6449 -0.0426391 -2.81433e-20 -0.00691318 -8.23022e-23 7.53679e-39)
(17.8543 0.0154881 0 -0.00699466 0 0)
(17.7808 0.0693708 2.40136e-20 -0.00671479 2.50913e-22 7.1714e-39)
(17.4395 0.117002 0 -0.00622482 0 0)
(16.849 0.159917 1.90328e-20 -0.00537357 3.58371e-22 6.81523e-39)
(16.0374 0.196715 1.63895e-20 -0.004316 3.88234e-22 6.64138e-39)
(15.034 0.226717 0 -0.00313855 0 0)
(13.8722 0.249435 0 -0.00192145 0 0)
(12.5876 0.264682 0 -0.000740429 0 0)
(11.216 0.272611 0 0.000332854 0 0)
(9.79256 0.273919 0 0.00124298 0 0)
(8.35036 0.269747 0 0.00205567 0 0)
(6.91912 0.261001 0 0.00267578 0 0)
(5.52114 0.248668 -9.95206e-22 0.00314946 2.65649e-22 5.3694e-39)
(4.17735 0.232754 2.29717e-21 0.00347539 -2.37785e-22 5.2231e-39)
(2.90204 0.21487 0 0.00367447 0 0)
(1.70641 0.195706 0 0.00376606 0 0)
(0.59858 0.17614 0 0.00377745 0 0)
(-0.416871 0.156413 0 0.0037242 0 0)
(-1.33899 0.137234 1.27487e-20 0.00363393 -2.57113e-22 1.81655e-38)
(-2.16815 0.11874 0 0.00351969 0 0)
(-2.90676 0.10126 -1.44059e-20 0.00339929 1.96198e-22 1.71591e-38)
(-3.55882 0.0848228 1.50106e-20 0.00328097 -1.68387e-22 1.66726e-38)
(-4.12886 0.0695302 0 0.00317538 0 0)
(-4.62161 0.0555082 0 0.00309437 0 0)
(-5.0422 0.0428516 0 0.0030474 0 0)
(-5.39615 0.0316214 -1.63557e-20 0.00304018 7.32232e-23 1.48323e-38)
(-5.68899 0.0218118 -1.64819e-20 0.00307724 5.15975e-23 1.43973e-38)
(-5.92608 0.013317 0 0.00315969 0 0)
(-6.11238 0.00586491 -1.65477e-20 0.0032853 1.57514e-23 1.35554e-38)
(-6.25168 -0.000883337 -1.65008e-20 0.00345059 -2.24441e-24 1.31481e-38)
(-6.34685 -0.00702477 1.64055e-20 0.00365767 1.94348e-23 1.27496e-38)
(-6.40041 -0.0120144 0 0.00391851 0 0)
(-6.41669 -0.0148435 0 0.00423453 0 0)
(-6.4029 -0.0150976 1.59021e-20 0.0045769 5.86845e-23 1.16052e-38)
(-6.3671 -0.0136388 0 0.00494347 0 0)
(-6.31399 -0.0122416 0 0.00539315 0 0)
(-6.24391 -0.0125603 0 0.00597789 0 0)
(-6.15307 -0.0153195 0 0.00669585 0 0)
(-6.03546 -0.0200546 -1.45358e-20 0.00753204 -1.59738e-22 9.85799e-39)
(-5.88397 -0.0255834 -1.41329e-20 0.008514 -1.77006e-22 9.53138e-39)
(-5.69175 -0.0307415 0 0.00972222 0 0)
(-5.45097 -0.0351873 -1.31373e-20 0.0113186 -2.25537e-22 8.90011e-39)
(-5.14971 -0.0385483 0 0.0136138 0 0)
(-4.77482 -0.0386777 0 0.0168991 0 0)
(-4.31727 -0.0329329 -1.07912e-20 0.0212218 -2.54764e-22 8.0078e-39)
(-3.77309 -0.0193257 0 0.0260617 0 0)
(-3.15292 0.00544447 -8.68203e-21 0.030382 -1.52558e-22 7.44869e-39)
(-2.5133 0.0386915 0 0.0325281 0 0)
(-1.93641 0.0643593 0 0.0308017 0 0)
(-1.4963 0.0610506 -6.08022e-21 0.0263635 4.94905e-23 6.65903e-39)
(-1.21841 0.0242531 0 0.0230826 0 0)
(-0.974754 -0.041157 -5.16953e-21 0.0223437 -1.76174e-22 6.16274e-39)
(-0.632882 -0.0754932 0 0.0210773 0 0)
(-0.224665 -0.0716234 0 0.0176268 0 0)
(0.221117 -0.0532463 0 0.0154491 0 0)
(0.679537 -0.0193568 2.71021e-21 0.0150168 5.38163e-23 5.24309e-39)
(1.06175 0.0123218 0 0.0160103 0 0)
(1.32456 0.02969 -1.69462e-21 0.01682 3.13435e-24 4.8184e-39)
(1.48889 0.0319191 0 0.0164019 0 0)
(1.59081 0.0192422 0 0.0153329 0 0)
(1.68818 0.0015576 0 0.0151072 0 0)
(1.84041 -0.0131122 0 0.0156877 0 0)
(2.03976 -0.0102542 0 0.0150396 0 0)
(2.24167 0.00611968 0 0.0141433 0 0)
(2.37894 0.0214052 0 0.0127419 0 0)
(2.48778 0.0205156 -2.6921e-21 0.0103627 -5.89023e-25 1.3354e-38)
(2.45163 0.0312951 0 0.00795933 0 0)
(2.40503 0.0828726 0 0.00991133 0 0)
(0.00670374 -0.00251609 3.83377e-23 -0.312038 -3.31483e-21 3.67788e-38)
(0.0515699 -0.100232 -2.92836e-23 0.111571 2.66926e-21 3.625e-38)
(0.195673 -0.302066 0 0.525988 0 0)
(0.395395 -0.418787 -1.85102e-22 0.578662 -2.86426e-22 1.56091e-38)
(0.549071 -0.282001 0 0.201802 0 0)
(0.575109 0.049385 -5.48526e-22 -0.244923 8.02312e-22 3.76666e-39)
(0.443212 0.420249 1.70413e-21 -0.500758 -2.29714e-21 1.48125e-38)