/*--------------------------------*- C++ -*----------------------------------*\
  =========                 |
  \\      /  F ield         | OpenFOAM: The Open Source CFD Toolbox
   \\    /   O peration     | Website:  https://openfoam.org
    \\  /    A nd           | Version:  9
     \\/     M anipulation  |
\*---------------------------------------------------------------------------*/
FoamFile
{
    format      ascii;
    class       volVectorField;
    location    "0.074";
    object      U;
}
// * * * * * * * * * * * * * * * * * * * * * * * * * * * * * * * * * * * * * //

dimensions      [0 1 -1 0 0 0 0];

internalField   nonuniform List<vector> 
12225
(
(9.77965 -0.00925738 0)
(9.66902 0.00221452 0)
(9.45832 0.0441923 0)
(9.14495 0.0825256 0)
(8.78735 0.0861482 0)
(8.45963 0.072216 0)
(8.20072 0.0559747 0)
(7.9888 0.0438496 0)
(7.81836 0.0368509 0)
(7.63798 0.0382538 0)
(7.48012 0.0376911 0)
(7.29576 0.0398595 0)
(7.19083 0.0272494 0)
(7.06696 0.0269897 0)
(7.09416 -0.00193481 0)
(7.0257 0.00991482 0)
(7.17181 -0.0578411 0)
(7.14932 9.35097e-05 0)
(10.0346 0.0701005 0)
(10.0744 0.0918573 0)
(10.1392 0.0648079 0)
(10.2703 0.0624037 0)
(10.3463 0.0726392 0)
(10.3307 0.0731297 0)
(10.265 0.064554 0)
(10.1837 0.0554595 0)
(10.1239 0.0564262 0)
(10.0974 0.059925 0)
(10.1199 0.0641103 0)
(10.1667 0.0551176 0)
(10.25 0.0423245 0)
(10.3309 0.0150958 0)
(10.4345 0.00234664 0)
(10.5084 -0.0191571 0)
(10.6114 -0.0393804 0)
(10.6645 -0.0843556 0)
(10.076 0.000682776 0)
(10.0862 0.00706478 0)
(10.1241 0.00985344 0)
(10.2068 0.0358556 0)
(10.297 0.0673258 0)
(10.3455 0.0938825 0)
(10.3284 0.103614 0)
(10.2681 0.0933477 0)
(10.2196 0.0692028 0)
(10.2221 0.0427082 0)
(10.2801 0.016743 0)
(10.3712 -0.00434065 0)
(10.4706 -0.0274604 0)
(10.5629 -0.0440854 0)
(10.6405 -0.0616177 0)
(10.7084 -0.0733515 0)
(10.7676 -0.0985876 0)
(10.8182 -0.123593 0)
(9.69312 0.070347 0)
(9.89225 0.0682569 0)
(10.0671 0.0383578 0)
(10.1577 0.0208217 0)
(10.145 0.0348924 0)
(10.121 0.0615849 0)
(10.1407 0.079123 0)
(10.1965 0.0768026 0)
(10.2657 0.0591874 0)
(10.3346 0.0347556 0)
(10.3991 0.0103118 0)
(10.46 -0.013655 0)
(10.5177 -0.0339219 0)
(10.5709 -0.0526367 0)
(10.6172 -0.0679383 0)
(10.6607 -0.0824876 0)
(10.699 -0.103614 0)
(10.7363 -0.13048 0)
(9.74551 -0.046514 0)
(9.97359 -0.104408 0)
(10.2318 -0.0590325 0)
(10.3075 0.0193697 0)
(10.2427 0.0763161 0)
(10.1765 0.0978802 0)
(10.1745 0.0895231 0)
(10.2209 0.0626099 0)
(10.2845 0.0294366 0)
(10.3498 -0.00160967 0)
(10.413 -0.0278318 0)
(10.4717 -0.0492191 0)
(10.5219 -0.067376 0)
(10.5591 -0.0818548 0)
(10.5816 -0.0935135 0)
(10.5962 -0.105088 0)
(10.6095 -0.123713 0)
(10.6354 -0.15123 0)
(10.1163 0.0324078 0)
(9.97962 -0.0815993 0)
(9.85363 -0.0313488 0)
(9.79706 0.0391046 0)
(9.77588 0.0759764 0)
(9.8067 0.0758244 0)
(9.88587 0.0549258 0)
(9.98081 0.0286809 0)
(10.0659 0.00514468 0)
(10.1328 -0.0172818 0)
(10.1826 -0.0401378 0)
(10.2194 -0.0607364 0)
(10.25 -0.0755106 0)
(10.2811 -0.0843922 0)
(10.3212 -0.092532 0)
(10.3754 -0.1061 0)
(10.449 -0.133495 0)
(10.5373 -0.173728 0)
(10.105 0.0193488 0)
(10.1942 -0.0347142 0)
(10.1869 -0.0252429 0)
(10.1467 0.0347354 0)
(10.1058 0.064901 0)
(10.0815 0.0587953 0)
(10.0943 0.0313789 0)
(10.1493 -0.00135062 0)
(10.2324 -0.0275994 0)
(10.3177 -0.0458023 0)
(10.3824 -0.0609962 0)
(10.4192 -0.0761978 0)
(10.438 -0.0926424 0)
(10.4572 -0.111731 0)
(10.4908 -0.135322 0)
(10.5444 -0.165039 0)
(10.6161 -0.203879 0)
(10.6961 -0.250306 0)
(10.1263 -0.0516637 0)
(10.3511 -0.107841 0)
(10.3366 0.00943321 0)
(10.27 0.094177 0)
(10.1791 0.114608 0)
(10.1284 0.0857718 0)
(10.1361 0.0287428 0)
(10.1794 -0.0312319 0)
(10.2314 -0.0719566 0)
(10.2794 -0.0875403 0)
(10.3241 -0.0888351 0)
(10.3724 -0.0895789 0)
(10.4293 -0.098494 0)
(10.4959 -0.117735 0)
(10.566 -0.146897 0)
(10.6348 -0.184083 0)
(10.6943 -0.228266 0)
(10.7452 -0.278658 0)
(10.0902 -0.148333 0)
(10.003 -0.103124 0)
(9.97952 -0.0135197 0)
(10.0258 0.0626874 0)
(10.1117 0.0904594 0)
(10.1942 0.0635993 0)
(10.2403 0.00955133 0)
(10.2368 -0.0378863 0)
(10.2101 -0.0659022 0)
(10.1973 -0.0830731 0)
(10.2173 -0.102107 0)
(10.2678 -0.127151 0)
(10.3358 -0.155231 0)
(10.4065 -0.182185 0)
(10.4717 -0.2073 0)
(10.5275 -0.233581 0)
(10.5773 -0.265759 0)
(10.6241 -0.308532 0)
(10.2429 -0.0554738 0)
(10.2075 -0.0348271 0)
(10.2335 0.0281543 0)
(10.1888 0.0746789 0)
(10.1279 0.0715574 0)
(10.1211 0.0457299 0)
(10.1394 0.0133469 0)
(10.1503 -0.0224056 0)
(10.1549 -0.0604307 0)
(10.1679 -0.0979601 0)
(10.1987 -0.131784 0)
(10.2492 -0.160145 0)
(10.3138 -0.183957 0)
(10.3868 -0.206111 0)
(10.4596 -0.230351 0)
(10.5316 -0.259945 0)
(10.5944 -0.298136 0)
(10.6573 -0.346402 0)
(9.81185 0.0422742 0)
(9.92168 -0.0891338 0)
(10.0626 -0.0302339 0)
(10.1588 0.0657321 0)
(10.1691 0.0867802 0)
(10.1436 0.0481144 0)
(10.1392 -0.00438572 0)
(10.1671 -0.0431331 0)
(10.2063 -0.0695636 0)
(10.231 -0.0991669 0)
(10.231 -0.140302 0)
(10.214 -0.188049 0)
(10.1957 -0.232983 0)
(10.1901 -0.26839 0)
(10.2016 -0.295463 0)
(10.232 -0.319866 0)
(10.2733 -0.35037 0)
(10.3252 -0.392429 0)
(10.1034 -0.118867 0)
(10.1898 -0.128361 0)
(10.0344 -0.0300226 0)
(9.92431 0.0694601 0)
(9.90246 0.105292 0)
(9.95424 0.0712858 0)
(10.028 0.000834377 0)
(10.0907 -0.0643367 0)
(10.1348 -0.10264 0)
(10.1633 -0.119271 0)
(10.1835 -0.130318 0)
(10.2034 -0.148557 0)
(10.2276 -0.179433 0)
(10.2582 -0.221023 0)
(10.2927 -0.270107 0)
(10.3295 -0.322852 0)
(10.365 -0.378192 0)
(10.3971 -0.436927 0)
(10.1562 -0.17153 0)
(10.1218 -0.0796687 0)
(10.0805 0.0482764 0)
(10.0688 0.086158 0)
(10.1214 0.0472719 0)
(10.1811 -0.0198088 0)
(10.2051 -0.0701508 0)
(10.1982 -0.0897592 0)
(10.1887 -0.0964384 0)
(10.1988 -0.113767 0)
(10.2346 -0.152117 0)
(10.2901 -0.205146 0)
(10.3505 -0.259686 0)
(10.4017 -0.303856 0)
(10.433 -0.33523 0)
(10.443 -0.359725 0)
(10.4341 -0.386179 0)
(10.4181 -0.427362 0)
(10.0804 0.00937403 0)
(10.1045 -0.0375754 0)
(10.0367 0.00528411 0)
(9.97933 0.0659742 0)
(9.97261 0.0769117 0)
(9.99233 0.0450101 0)
(10.008 -0.00686181 0)
(10.0199 -0.0643524 0)
(10.0387 -0.119607 0)
(10.0686 -0.168233 0)
(10.1056 -0.207949 0)
(10.1423 -0.238695 0)
(10.1726 -0.261815 0)
(10.1931 -0.280695 0)
(10.2077 -0.300593 0)
(10.2185 -0.327508 0)
(10.2346 -0.366949 0)
(10.254 -0.422766 0)
(10.1208 -0.126861 0)
(10.2201 -0.0436209 0)
(10.1821 0.0964549 0)
(10.1488 0.108608 0)
(10.1663 0.0337059 0)
(10.2118 -0.0512079 0)
(10.2442 -0.0960847 0)
(10.2528 -0.105246 0)
(10.2512 -0.111502 0)
(10.2514 -0.138803 0)
(10.2578 -0.188412 0)
(10.2708 -0.246816 0)
(10.2889 -0.29823 0)
(10.311 -0.335552 0)
(10.3355 -0.361326 0)
(10.3612 -0.38697 0)
(10.3869 -0.421245 0)
(10.4101 -0.473898 0)
(9.87385 -0.0479213 0)
(9.87376 -0.0182191 0)
(9.9394 0.0796951 0)
(10.031 0.0657675 0)
(10.1009 0.0251585 0)
(10.1134 -0.00761457 0)
(10.0959 -0.0421305 0)
(10.087 -0.0867998 0)
(10.1017 -0.143062 0)
(10.131 -0.202674 0)
(10.157 -0.254103 0)
(10.1693 -0.291094 0)
(10.1701 -0.315126 0)
(10.1673 -0.333996 0)
(10.1678 -0.355007 0)
(10.1739 -0.384718 0)
(10.1826 -0.423672 0)
(10.1916 -0.471769 0)
(10.1156 -0.0500982 0)
(10.0231 -0.122802 0)
(10.028 -0.0765504 0)
(10.0519 -0.0475605 0)
(10.1189 -0.0415767 0)
(10.187 -0.0428794 0)
(10.232 -0.0595304 0)
(10.2456 -0.0931454 0)
(10.2258 -0.131997 0)
(10.1796 -0.167118 0)
(10.1235 -0.199427 0)
(10.0743 -0.235009 0)
(10.0435 -0.276523 0)
(10.0313 -0.322827 0)
(10.0327 -0.370281 0)
(10.0409 -0.416342 0)
(10.0511 -0.46022 0)
(10.062 -0.503069 0)
(10.0823 0.0611436 0)
(10.0218 0.222129 0)
(9.96271 0.113213 0)
(9.94594 -0.0297024 0)
(9.99099 -0.123693 0)
(10.0417 -0.161631 0)
(10.0772 -0.147645 0)
(10.0954 -0.103391 0)
(10.0961 -0.068444 0)
(10.0815 -0.0742361 0)
(10.0563 -0.123371 0)
(10.0258 -0.196186 0)
(9.99586 -0.26929 0)
(9.97062 -0.329 0)
(9.95336 -0.375127 0)
(9.94524 -0.413893 0)
(9.94647 -0.453494 0)
(9.95515 -0.499069 0)
(9.92066 0.186033 0)
(9.99747 0.103 0)
(10.0234 -0.0479262 0)
(10.0783 -0.129361 0)
(10.1063 -0.156504 0)
(10.0763 -0.144406 0)
(10.0406 -0.120441 0)
(10.0274 -0.103901 0)
(10.0246 -0.0945796 0)
(10.0151 -0.0871419 0)
(9.99069 -0.0845014 0)
(9.95251 -0.0986364 0)
(9.9095 -0.140568 0)
(9.87311 -0.21208 0)
(9.85177 -0.303747 0)
(9.84721 -0.401021 0)
(9.85701 -0.492533 0)
(9.87485 -0.567766 0)
(10.0217 0.247296 0)
(10.0096 0.145733 0)
(9.97935 -0.0609938 0)
(9.91925 -0.0997257 0)
(9.87483 -0.0869209 0)
(9.86317 -0.0884367 0)
(9.8732 -0.0930338 0)
(9.89905 -0.0829469 0)
(9.93914 -0.0566613 0)
(9.99003 -0.0284614 0)
(10.0429 -0.0197703 0)
(10.0861 -0.0475318 0)
(10.1106 -0.115029 0)
(10.1137 -0.212751 0)
(10.0975 -0.32402 0)
(10.0662 -0.431868 0)
(10.0254 -0.524735 0)
(9.97837 -0.595206 0)
(9.92891 0.0504411 0)
(10.0862 0.13134 0)
(10.1286 0.0523286 0)
(10.1013 -0.0477705 0)
(10.067 -0.10171 0)
(10.0525 -0.119186 0)
(10.0446 -0.135388 0)
(10.0352 -0.16656 0)
(10.0361 -0.198606 0)
(10.0568 -0.210512 0)
(10.0911 -0.197713 0)
(10.1233 -0.174355 0)
(10.1399 -0.160454 0)
(10.1361 -0.170477 0)
(10.1141 -0.206787 0)
(10.0788 -0.261925 0)
(10.0353 -0.323698 0)
(9.98647 -0.380963 0)
(9.81787 -0.0228019 0)
(9.72789 -0.106372 0)
(9.74378 -0.0407379 0)
(9.76901 -0.00138091 0)
(9.78232 -0.0334088 0)
(9.79279 -0.0740587 0)
(9.80773 -0.0964963 0)
(9.82911 -0.110956 0)
(9.85606 -0.126056 0)
(9.88159 -0.138247 0)
(9.89517 -0.143464 0)
(9.892 -0.146239 0)
(9.87609 -0.15736 0)
(9.85694 -0.186659 0)
(9.842 -0.234917 0)
(9.83372 -0.29435 0)
(9.82879 -0.353048 0)
(9.82338 -0.398834 0)
(10.2554 0.149289 0)
(10.0984 0.0866587 0)
(10.0536 -0.0267594 0)
(10.0374 -0.0852191 0)
(10.0002 -0.0997889 0)
(9.97509 -0.108049 0)
(9.98441 -0.139357 0)
(10.0103 -0.188917 0)
(10.0242 -0.226014 0)
(10.013 -0.224099 0)
(9.97991 -0.184083 0)
(9.93558 -0.133415 0)
(9.88877 -0.105558 0)
(9.84199 -0.120071 0)
(9.79171 -0.172606 0)
(9.73515 -0.243268 0)
(9.67092 -0.309963 0)
(9.60455 -0.353454 0)
(10.0638 -0.00582789 0)
(10.0682 0.0256747 0)
(10.0406 0.0403919 0)
(9.99878 0.0215852 0)
(9.97743 -0.022165 0)
(9.98593 -0.0887212 0)
(10.0003 -0.14901 0)
(10.0017 -0.173752 0)
(9.98889 -0.158131 0)
(9.97073 -0.120036 0)
(9.95542 -0.0825946 0)
(9.94493 -0.0610013 0)
(9.93495 -0.0599342 0)
(9.91737 -0.0767534 0)
(9.88616 -0.106347 0)
(9.84077 -0.143161 0)
(9.78554 -0.18285 0)
(9.72778 -0.221786 0)
(10.2014 -0.0128258 0)
(10.0931 0.0589091 0)
(10.1228 0.0394127 0)
(10.1241 -0.0269608 0)
(10.0795 -0.0687443 0)
(10.0279 -0.0967829 0)
(9.98381 -0.131282 0)
(9.94112 -0.168883 0)
(9.89373 -0.188768 0)
(9.84219 -0.177809 0)
(9.79177 -0.141634 0)
(9.74955 -0.0985176 0)
(9.72166 -0.0677888 0)
(9.70994 -0.0620106 0)
(9.71115 -0.0828254 0)
(9.71757 -0.122166 0)
(9.72207 -0.16952 0)
(9.71654 -0.212762 0)
(9.63885 0.0747536 0)
(9.77218 0.0704208 0)
(9.97329 0.041389 0)
(10.0918 0.0259036 0)
(10.1309 -7.52953e-05 0)
(10.1386 -0.0496744 0)
(10.113 -0.0964472 0)
(10.0405 -0.112621 0)
(9.94148 -0.0920285 0)
(9.85518 -0.0527222 0)
(9.8116 -0.0209449 0)
(9.81798 -0.0140071 0)
(9.86074 -0.0342742 0)
(9.91586 -0.0725434 0)
(9.958 -0.115852 0)
(9.9704 -0.153827 0)
(9.94734 -0.181044 0)
(9.89238 -0.198534 0)
(9.71443 -0.128895 0)
(9.83961 -0.14482 0)
(10.0162 -0.105685 0)
(10.1404 -0.0798878 0)
(10.1147 -0.0713983 0)
(9.9892 -0.0680201 0)
(9.86091 -0.0662056 0)
(9.78385 -0.0669568 0)
(9.7646 -0.0735256 0)
(9.78745 -0.0866921 0)
(9.83317 -0.10373 0)
(9.88503 -0.119025 0)
(9.92991 -0.127447 0)
(9.95933 -0.126725 0)
(9.97235 -0.119086 0)
(9.97047 -0.10938 0)
(9.9591 -0.102118 0)
(9.93847 -0.104011 0)
(10.2926 -0.0539645 0)
(10.1222 -0.0562459 0)
(9.957 -0.0776137 0)
(9.8971 -0.0198276 0)
(9.89146 0.0458381 0)
(9.89907 0.0516309 0)
(9.91051 0.0027982 0)
(9.91726 -0.0535139 0)
(9.91347 -0.0843333 0)
(9.8973 -0.0886479 0)
(9.87096 -0.0843895 0)
(9.84051 -0.0868842 0)
(9.81344 -0.0995446 0)
(9.79536 -0.117942 0)
(9.79141 -0.135455 0)
(9.80049 -0.14749 0)
(9.81856 -0.151118 0)
(9.83853 -0.147048 0)
(9.79198 -0.119698 0)
(9.89499 -0.0398874 0)
(9.88478 -0.0417943 0)
(9.86785 -0.0523527 0)
(9.90784 -0.0565699 0)
(9.98414 -0.0592775 0)
(10.0524 -0.0649892 0)
(10.0987 -0.0703806 0)
(10.1318 -0.0723313 0)
(10.152 -0.0730971 0)
(10.1434 -0.0762155 0)
(10.0942 -0.082799 0)
(10.0127 -0.0914959 0)
(9.92223 -0.101039 0)
(9.84352 -0.111501 0)
(9.78515 -0.12245 0)
(9.74295 -0.132613 0)
(9.7085 -0.140739 0)
(9.91513 -0.00530607 0)
(9.71606 -0.0728084 0)
(9.52407 -0.0468033 0)
(9.39055 -0.0212519 0)
(9.28272 -0.00884685 0)
(9.18199 -0.0152868 0)
(9.04854 -0.0438796 0)
(8.85219 -0.0794086 0)
(8.61292 -0.096358 0)
(8.38197 -0.083507 0)
(8.19616 -0.0529525 0)
(8.05626 -0.0274365 0)
(7.93453 -0.0230364 0)
(7.7983 -0.0408648 0)
(7.62515 -0.0684493 0)
(7.417 -0.0909002 0)
(7.18567 -0.0986653 0)
(6.95742 -0.0916729 0)
(-0.320815 0.554495 1.11247e-21)
(-0.791266 0.311759 -1.06477e-21)
(-1.10527 0.178306 0)
(-1.33588 -0.00495872 0)
(-1.32494 -0.197978 0)
(-1.12903 -0.378931 1.08139e-21)
(-0.795891 -0.490562 0)
(-0.386172 -0.531935 0)
(0.0687833 -0.53884 0)
(0.518345 -0.512463 0)
(0.943975 -0.470993 -1.38729e-21)
(1.3386 -0.425079 0)
(1.69788 -0.379222 0)
(2.02082 -0.336295 0)
(2.31081 -0.299026 0)
(2.57279 -0.267932 -1.32019e-21)
(2.81158 -0.242408 0)
(3.03142 -0.221435 0)
(3.23587 -0.204228 0)
(3.42784 -0.189799 0)
(3.60926 -0.176727 0)
(3.78098 -0.164661 0)
(3.9436 -0.153275 0)
(4.0969 -0.140894 -1.37852e-21)
(4.23957 -0.128399 1.40438e-21)
(4.37146 -0.11565 -1.43488e-21)
(4.49084 -0.100109 -1.47059e-21)
(4.59565 -0.085845 0)
(4.68703 -0.0698012 0)
(4.76085 -0.050138 1.61463e-21)
(4.81809 -0.036215 1.67643e-21)
(4.85986 -0.0126486 0)
(4.87836 0.00836978 0)
(4.88494 0.0235023 1.90513e-21)
(4.86257 0.0679737 0)
(4.80838 0.0794587 0)
(4.74571 0.128418 -2.19485e-21)
(4.59919 0.207328 0)
(4.44708 0.204945 -2.41697e-21)
(4.21924 0.41076 -5.07914e-21)
(3.78831 0.48197 0)
(3.46819 0.534833 0)
(2.73829 1.27017 0)
(1.47424 1.23784 0)
(0.584216 0.159413 0)
(0.0430495 -0.528484 -5.09e-21)
(-0.342616 -0.665621 -5.06456e-21)
(-0.585866 -0.537486 -5.05245e-21)
(-0.687246 -0.379476 0)
(-0.643049 -0.28389 5.08321e-21)
(-0.447434 -0.259593 0)
(-0.116771 -0.261883 -5.40694e-21)
(0.316203 -0.250477 -5.65485e-21)
(0.790655 -0.271588 0)
(1.31268 -0.418494 0)
(1.96521 -0.409398 0)
(2.56436 0.00315252 -6.22529e-21)
(2.46068 0.537385 0)
(1.99815 0.451705 0)
(1.43786 -0.0321939 0)
(1.5674 0.0769842 0)
(1.67165 -0.553597 0)
(2.05434 -1.21454 0)
(1.78746 -0.12145 0)
(0.415677 0.907001 0)
(-0.938735 0.930118 5.06925e-21)
(-2.14016 0.800537 0)
(-3.13441 0.686915 0)
(-4.03945 0.58275 -2.68191e-21)
(-4.81255 0.507959 -1.75376e-21)
(-5.53421 0.446967 0)
(-6.18698 0.410023 -1.27608e-22)
(-6.81793 0.384409 1.06787e-21)
(-7.42134 0.373602 0)
(-8.0241 0.368846 -2.94332e-21)
(-8.62337 0.370173 0)
(-9.23152 0.371861 0)
(-9.843 0.372517 5.72534e-21)
(-10.4578 0.368148 0)
(-11.0641 0.356758 -7.48641e-21)
(-11.6509 0.335503 0)
(-12.1991 0.302961 9.02744e-21)
(-12.6885 0.258312 9.65209e-21)
(-13.0953 0.202309 1.0139e-20)
(-13.3988 0.137331 2.09197e-20)
(-13.582 0.0682876 -2.119e-20)
(-13.6339 0.00146956 0)
(-13.554 -0.0577119 0)
(-13.371 -0.109655 0)
(-13.0839 -0.155556 -1.85463e-20)
(-12.7119 -0.193186 -1.71307e-20)
(-12.2678 -0.224034 1.55194e-20)
(-11.7647 -0.247619 0)
(-11.2161 -0.265066 -1.19278e-20)
(-10.6324 -0.276799 -1.00478e-20)
(-10.0252 -0.283301 -8.17142e-21)
(-9.4043 -0.28527 0)
(-8.77892 -0.283214 0)
(-8.15652 -0.278064 0)
(-7.54259 -0.270768 -1.37454e-21)
(-6.94041 -0.262304 0)
(-6.35152 -0.253469 0)
(-5.7761 -0.244902 -2.49721e-21)
(-5.21316 -0.237064 0)
(-4.66097 -0.230176 0)
(-4.11783 -0.224089 -5.27154e-21)
(-3.58278 -0.218344 0)
(-3.05607 -0.21235 0)
(-2.53926 -0.205481 7.08475e-21)
(-2.0351 -0.19723 7.49107e-21)
(-1.54743 -0.187306 0)
(-1.08078 -0.17563 -8.02711e-21)
(-0.639081 -0.162514 0)
(-0.223972 -0.148051 8.23719e-21)
(0.159771 -0.138326 0)
(0.509952 -0.124191 8.18872e-21)
(0.833048 -0.111568 8.09603e-21)
(1.12749 -0.100134 0)
(1.396 -0.0896897 0)
(1.64165 -0.0804487 0)
(1.86839 -0.0727569 0)
(2.08062 -0.0666143 0)
(2.28239 -0.0616079 0)
(2.47666 -0.0570894 0)
(2.66432 -0.0519292 6.86968e-21)
(2.84306 -0.0444613 -6.72682e-21)
(3.00691 -0.0340026 0)
(3.14788 -0.0222957 0)
(3.25818 -0.0107895 0)
(3.32786 0.00191347 0)
(3.34557 0.0155381 -1.21755e-20)
(3.31425 0.0262036 0)
(3.24776 0.0321637 1.17028e-20)
(3.16093 0.0347286 -1.1473e-20)
(3.06635 0.0347335 0)
(2.97239 0.0324705 0)
(2.88414 0.0286163 0)
(2.80474 0.0239799 1.06253e-20)
(2.73622 0.0191202 1.04377e-20)
(2.6801 0.0143842 0)
(2.63748 0.0100342 1.0101e-20)
(2.60914 0.00619685 9.95401e-21)
(2.59542 0.00294633 -9.8215e-21)
(2.59606 0.000154811 0)
(2.61086 -0.00259448 0)
(2.63907 -0.00541688 -9.50048e-21)
(2.67895 -0.00758142 0)
(2.72835 -0.00932388 0)
(2.78591 -0.0106631 0)
(2.85003 -0.0107537 0)
(2.91897 -0.0104897 9.11961e-21)
(2.99241 -0.0110387 9.05653e-21)
(3.06843 -0.0102926 0)
(3.13918 -0.00759909 8.93506e-21)
(3.19444 -0.00678519 0)
(3.22573 -0.00733207 0)
(3.22927 -0.00580352 8.6459e-21)
(3.21856 -0.00869623 0)
(3.22632 -0.0234669 8.40237e-21)
(3.2854 -0.036928 0)
(3.39867 -0.039269 0)
(3.55946 -0.051312 8.30923e-21)
(3.79444 -0.0845501 0)
(4.13507 -0.0942157 8.40168e-21)
(4.52183 -0.0657885 0)
(4.8834 -0.0788741 0)
(5.2644 -0.0860457 0)
(5.52918 0.0270978 -7.83465e-21)
(5.48871 0.0325855 0)
(5.52278 -0.102646 6.94337e-21)
(5.67499 0.0668066 0)
(5.1796 0.186685 0)
(4.80612 -0.139591 0)
(5.25467 0.0290124 0)
(4.24541 0.612797 0)
(2.01588 0.315384 0)
(0.942729 -0.298221 0)
(0.614408 -0.253097 -3.14215e-21)
(0.567299 0.0485811 0)
(0.431632 0.0985517 0)
(-0.0828453 1.58703 -3.10276e-21)
(-0.148742 1.25741 2.99575e-21)
(-0.298853 0.846243 0)
(-0.345588 0.48866 -1.83151e-21)
(-0.213962 -0.182624 0)
(0.0892123 -0.761518 -1.08353e-21)
(0.471724 -1.13129 2.13871e-21)
(0.8716 -1.31866 2.27374e-21)
(1.24498 -1.35979 0)
(1.58414 -1.3091 2.42188e-21)
(1.89129 -1.21051 1.38202e-21)
(2.16556 -1.09442 0)
(2.40902 -0.978847 0)
(2.62653 -0.873094 0)
(2.82338 -0.781308 0)
(3.00456 -0.704369 1.31788e-21)
(3.17428 -0.641211 0)
(3.33584 -0.589773 -2.44465e-21)
(3.49163 -0.54765 0)
(3.64303 -0.51234 0)
(3.79072 -0.481317 2.52968e-21)
(3.9349 -0.452577 0)
(4.07479 -0.424547 -2.6125e-21)
(4.20938 -0.395474 1.37769e-21)
(4.33756 -0.364712 -1.40363e-21)
(4.45702 -0.332015 1.4342e-21)
(4.56669 -0.296175 1.46998e-21)
(4.66469 -0.258701 0)
(4.74867 -0.219641 0)
(4.81976 -0.177602 -1.61424e-21)
(4.87398 -0.137522 1.6084e-21)
(4.91356 -0.0946975 0)
(4.93935 -0.0494833 0)
(4.94554 -0.00934596 -1.90491e-21)
(4.94768 0.047361 0)
(4.93766 0.102903 0)
(4.91793 0.163541 2.19363e-21)
(4.90203 0.271214 0)
(4.86957 0.357077 -2.27714e-21)
(4.83711 0.52173 5.06946e-21)
(4.78709 0.755456 0)
(4.7658 0.920138 0)
(4.6968 1.35041 1.06588e-20)
(4.6323 1.76608 1.05588e-20)
(4.68744 1.8539 1.01504e-20)
(4.36467 1.761 -5.01968e-21)
(3.62665 1.5008 5.02267e-21)
(2.86213 1.06347 1.53077e-20)
(2.22818 0.50959 -1.01678e-20)
(1.71679 -0.0664572 -5.06885e-21)
(1.33671 -0.560788 0)
(1.10758 -0.908609 5.39488e-21)
(1.07138 -1.1193 -5.57935e-21)
(1.22964 -1.23296 0)
(1.52514 -1.35312 0)
(1.7969 -1.31768 0)
(2.22962 -0.637782 6.22491e-21)
(2.46355 0.157962 0)
(2.58015 0.691845 -1.24401e-20)
(2.00467 0.79752 0)
(2.25867 -0.4753 -1.23518e-20)
(1.79696 -0.201791 0)
(-0.0938142 1.39171 1.1622e-20)
(-1.52033 2.1572 0)
(-2.7565 2.31295 -1.00286e-20)
(-3.66086 2.119 3.92851e-21)
(-4.48667 1.85495 0)
(-5.16114 1.61797 6.07788e-21)
(-5.80325 1.40943 2.66974e-21)
(-6.37241 1.26023 1.74677e-21)
(-6.92871 1.14618 0)
(-7.45819 1.07508 -6.75368e-22)
(-7.98601 1.02778 -1.06469e-21)
(-8.50806 1.00416 0)
(-9.03383 0.992189 2.93558e-21)
(-9.56063 0.988908 -8.15674e-21)
(-10.0898 0.985999 0)
(-10.6163 0.978957 -5.71296e-21)
(-11.1354 0.960778 0)
(-11.6378 0.926032 2.29689e-20)
(-12.1126 0.868665 0)
(-12.5456 0.78426 -2.76875e-20)
(-12.9215 0.669773 -9.64301e-21)
(-13.2234 0.524966 1.08319e-20)
(-13.4353 0.353633 2.23179e-20)
(-13.5457 0.165641 -2.25451e-20)
(-13.5509 -0.0244559 0)
(-13.4516 -0.204466 0)
(-13.2339 -0.367194 0)
(-12.9224 -0.507624 5.6628e-20)
(-12.5264 -0.624195 1.71252e-20)
(-12.0617 -0.717743 -1.55134e-20)
(-11.542 -0.78991 0)
(-10.978 -0.842938 -1.26103e-20)
(-10.3819 -0.878682 1.00428e-20)
(-9.76291 -0.898857 8.16737e-21)
(-9.13156 -0.905086 0)
(-8.49655 -0.899255 0)
(-7.86556 -0.883828 0)
(-7.24385 -0.861754 1.37397e-21)
(-6.63436 -0.835975 0)
(-6.03831 -0.808946 2.48029e-21)
(-5.45557 -0.782651 7.32145e-21)
(-4.88481 -0.758609 -6.91535e-21)
(-4.32378 -0.737678 0)
(-3.77022 -0.71952 -5.12624e-21)
(-3.22287 -0.702699 0)
(-2.68188 -0.685353 -1.30322e-20)
(-2.14906 -0.665463 6.96763e-21)
(-1.62771 -0.641339 7.387e-21)
(-1.1222 -0.612025 0)
(-0.637569 -0.577332 2.40028e-20)
(-0.178405 -0.538687 -1.62694e-20)
(0.248425 -0.497926 -8.23316e-21)
(0.642725 -0.459219 0)
(1.00346 -0.418343 -8.18034e-21)
(1.33217 -0.379322 -2.42159e-20)
(1.62957 -0.343261 0)
(1.89805 -0.311274 -1.55981e-20)
(2.14142 -0.284301 -1.52831e-20)
(2.36447 -0.262901 -1.49538e-20)
(2.57262 -0.246997 0)
(2.77148 -0.235664 0)
(2.96591 -0.226962 0)
(3.15879 -0.21797 6.82289e-21)
(3.35036 -0.205287 6.72168e-21)
(3.53932 -0.185825 0)
(3.72251 -0.157027 1.28763e-20)
(3.89171 -0.116602 1.26254e-20)
(4.03677 -0.0643545 0)
(4.15095 -0.00698637 1.21644e-20)
(4.21954 0.0427795 2.38116e-20)
(4.22953 0.075853 -1.16898e-20)
(4.18336 0.0917043 -1.14338e-20)
(4.09618 0.0947299 0)
(3.98759 0.090339 0)
(3.87379 0.0825604 0)
(3.76491 0.0730918 -1.06138e-20)
(3.66675 0.0621465 1.04183e-20)
(3.58289 0.0496366 2.04969e-20)
(3.51576 0.0356928 -1.00916e-20)
(3.46691 0.0206441 9.93836e-21)
(3.43671 0.00499236 9.81322e-21)
(3.42435 -0.0105582 0)
(3.42721 -0.0253979 0)
(3.44289 -0.038232 -9.48876e-21)
(3.46972 -0.0487956 0)
(3.50672 -0.0570496 0)
(3.55317 -0.0635162 1.84967e-20)
(3.60934 -0.0688274 0)
(3.6781 -0.0733122 9.10572e-21)
(3.7616 -0.0765219 -9.04956e-21)
(3.85836 -0.0761 0)
(3.96302 -0.0671267 8.92771e-21)
(4.05605 -0.0452334 0)
(4.10076 -0.0141088 0)
(4.07819 0.0113079 -8.63934e-21)
(4.01546 0.0140908 1.70092e-20)
(3.96526 -0.0112142 -8.39714e-21)
(3.9643 -0.0552026 0)
(4.03567 -0.105309 0)
(4.19468 -0.15509 8.2689e-21)
(4.4363 -0.216294 0)
(4.74801 -0.287778 8.35268e-21)
(5.16877 -0.322033 0)
(5.68263 -0.29522 0)
(6.09306 -0.24575 0)
(6.3824 -0.148714 7.82757e-21)
(6.6701 -0.0100901 0)
(6.64225 0.0130149 -6.93746e-21)
(6.44004 0.0499591 0)
(6.45843 0.229124 0)
(6.17526 0.183372 1.08888e-20)
(5.90482 0.191738 -9.91992e-21)
(5.50416 0.744188 0)
(5.03222 1.12039 0)
(4.72889 0.952246 0)
(3.36446 0.435395 9.24532e-21)
(2.11634 0.0244306 0)
(1.58185 -0.0957841 -5.34783e-21)
(0.0852234 1.24645 2.69527e-23)
(0.176045 1.00673 -3.85177e-21)
(0.115398 0.704426 0)
(0.366759 -0.0346726 3.66765e-21)
(0.771141 -0.935962 0)
(1.15762 -1.60602 0)
(1.47312 -1.96025 -2.00153e-22)
(1.71607 -2.05029 -2.26573e-21)
(1.89952 -1.96943 -2.02517e-21)
(2.04657 -1.80126 -2.4167e-21)
(2.17257 -1.60459 0)
(2.28737 -1.41422 0)
(2.39819 -1.2468 2.08959e-21)
(2.50955 -1.10793 4.21453e-21)
(2.6237 -0.997239 -4.26105e-21)
(2.74157 -0.911342 0)
(2.86316 -0.845701 -4.38968e-21)
(2.98812 -0.795553 2.44603e-21)
(3.11593 -0.756313 0)
(3.24595 -0.723659 -4.65032e-21)
(3.37735 -0.69384 -2.53156e-21)
(3.50914 -0.663757 4.84868e-21)
(3.63985 -0.630887 2.6146e-21)
(3.76773 -0.593199 0)
(3.89098 -0.549613 -5.19208e-21)
(4.00719 -0.499804 -5.33135e-21)
(4.11417 -0.443193 0)
(4.21001 -0.381206 -5.6724e-21)
(4.29215 -0.315236 0)
(4.35946 -0.245028 -6.12017e-21)
(4.41086 -0.175626 -3.28798e-21)
(4.4455 -0.10614 0)
(4.46502 -0.0365537 0)
(4.46987 0.0245373 0)
(4.4635 0.0921497 0)
(4.44539 0.15673 0)
(4.4151 0.217702 0)
(4.39468 0.312364 -8.85104e-21)
(4.38088 0.395012 1.39161e-20)
(4.37782 0.518613 0)
(4.42293 0.716984 0)
(4.50953 0.876973 0)
(4.61971 1.13366 -2.97422e-22)
(4.81887 1.4147 -1.05595e-20)
(5.08554 1.49837 -2.06638e-20)
(5.23923 1.47252 2.05911e-20)
(5.25504 1.43833 1.05885e-20)
(5.20466 1.3715 -1.02259e-20)
(5.10666 1.22689 -3.63223e-22)
(4.92989 0.971728 -1.05157e-20)
(4.58649 0.663564 0)
(4.07757 0.276116 -1.12382e-20)
(3.54199 -0.24795 -5.33739e-22)
(3.01311 -0.729778 0)
(2.61019 -1.11209 0)
(2.21682 -1.21849 1.26713e-20)
(2.09652 -0.744047 0)
(2.06891 0.213601 0)
(1.81161 1.01672 -1.27371e-20)
(1.85823 0.406263 -2.52689e-20)
(1.25898 0.653062 1.23664e-20)
(-0.453255 2.1986 0)
(-2.02434 3.20095 -1.15712e-20)
(-2.92267 3.40185 0)
(-3.59001 3.26252 -7.63725e-21)
(-4.02577 2.94989 -8.94608e-21)
(-4.44796 2.58587 1.25138e-20)
(-4.83545 2.28614 3.62535e-21)
(-5.25399 2.03863 0)
(-5.69421 1.87117 -3.59857e-21)
(-6.16088 1.75121 0)
(-6.65296 1.67925 3.87931e-21)
(-7.16373 1.63448 6.58845e-21)
(-7.69529 1.61377 1.01965e-20)
(-8.2428 1.6054 -1.3887e-20)
(-8.80722 1.60449 2.58034e-20)
(-9.38348 1.60133 0)
(-9.96729 1.58831 0)
(-10.5491 1.55535 -2.90253e-20)
(-11.1178 1.49367 -4.81805e-20)
(-11.6587 1.39441 0)
(-12.1554 1.25087 1.86701e-20)
(-12.5894 1.05891 0)
(-12.939 0.819008 -6.50062e-20)
(-13.18 0.537866 2.12752e-21)
(-13.2922 0.230302 -2.08456e-21)
(-13.2702 -0.0827706 4.54367e-20)
(-13.1231 -0.382442 0)
(-12.8664 -0.651255 -4.2263e-20)
(-12.5201 -0.879473 1.62507e-21)
(-12.102 -1.0666 0)
(-11.625 -1.21474 0)
(-11.1004 -1.32843 0)
(-10.5376 -1.41125 2.45267e-20)
(-9.94516 -1.46649 0)
(-9.33227 -1.49679 0)
(-8.70844 -1.50468 0)
(-8.08329 -1.49328 0)
(-7.46499 -1.46662 0)
(-6.85892 -1.42965 3.43831e-21)
(-6.26743 -1.3874 0)
(-5.69093 -1.34391 -2.47943e-21)
(-5.12867 -1.30227 -4.82331e-21)
(-4.57846 -1.26484 6.91285e-21)
(-4.03677 -1.23306 0)
(-3.49971 -1.20609 1.03926e-20)
(-2.96488 -1.18102 0)
(-2.43171 -1.15423 1.3027e-20)
(-1.90175 -1.122 -1.40461e-20)
(-1.37848 -1.08136 -4.42521e-20)
(-0.86648 -1.03111 0)
(-0.371308 -0.971314 -4.7626e-20)
(0.0990764 -0.905211 -1.60029e-20)
(0.539456 -0.83589 0)
(0.947762 -0.763795 -3.25819e-20)
(1.32037 -0.691311 -3.24046e-20)
(1.6564 -0.62174 4.8175e-20)
(1.95606 -0.557253 0)
(2.22139 -0.49976 1.55868e-20)
(2.45612 -0.451091 1.52727e-20)
(2.66556 -0.412735 4.46877e-20)
(2.85636 -0.385162 0)
(3.03573 -0.367268 0)
(3.21031 -0.355992 0)
(3.3851 -0.346464 1.35422e-20)
(3.56253 -0.333444 0)
(3.74148 -0.313202 0)
(3.91757 -0.283356 -1.28708e-20)
(4.08609 -0.241564 -1.26202e-20)
(4.24527 -0.185733 0)
(4.39614 -0.114882 0)
(4.53604 -0.0321836 -2.3802e-20)
(4.6506 0.0514026 0)
(4.71884 0.12054 2.28789e-20)
(4.72648 0.163927 2.23933e-20)
(4.67512 0.180118 0)
(4.58148 0.1756 0)
(4.46793 0.158675 -2.1182e-20)
(4.35335 0.135288 -1.27248e-23)
(4.24947 0.108581 -9.7425e-24)
(4.1619 0.0803601 0)
(4.09259 0.0522836 -3.97331e-20)
(4.04178 0.0262515 0)
(4.00878 0.0035973 0)
(3.99235 -0.0159036 0)
(3.98983 -0.0326246 1.89709e-20)
(3.9969 -0.0472848 0)
(4.00918 -0.0605865 -3.72695e-20)
(4.02348 -0.0738983 -1.84875e-20)
(4.03964 -0.0880678 0)
(4.06144 -0.103313 -1.82107e-20)
(4.09536 -0.119183 0)
(4.14834 -0.130035 0)
(4.22037 -0.123162 -5.35498e-20)
(4.28839 -0.0862359 3.54369e-20)
(4.3075 -0.0209379 0)
(4.25063 0.0432525 3.45548e-20)
(4.14935 0.0588482 -1.70057e-20)
(4.07971 0.00785077 0)
(4.096 -0.079035 0)
(4.19873 -0.166881 0)
(4.37012 -0.260907 -4.95917e-20)
(4.62128 -0.37565 0)
(4.97988 -0.489452 -1.67383e-20)
(5.43288 -0.555583 0)
(5.94032 -0.541935 0)
(6.42029 -0.443064 0)
(6.72772 -0.269244 0)
(6.87387 -0.0758796 0)
(6.88817 0.0260692 0)
(6.68756 0.133119 -2.59042e-20)
(6.51028 0.313362 0)
(6.39772 0.232259 -1.08842e-20)
(6.0677 0.33773 2.92856e-20)
(5.64525 0.93092 0)
(5.49603 0.96998 0)
(5.46176 0.676208 -7.95921e-21)
(5.32354 0.765055 -6.09871e-21)
(5.05331 0.783948 4.5936e-21)
(4.00937 0.372278 5.33563e-21)
(0.0946226 0.884763 5.8516e-21)
(0.0929518 1.10941 5.74949e-21)
(0.373083 0.28653 3.71964e-21)
(0.890789 -0.91713 1.76117e-21)
(1.34433 -1.82302 0)
(1.65282 -2.28408 -3.4306e-21)
(1.82399 -2.38136 1.46868e-21)
(1.90093 -2.2622 0)
(1.93483 -2.05486 2.02407e-21)
(1.96152 -1.83847 0)
(1.99759 -1.64882 -3.39698e-21)
(2.04632 -1.49519 0)
(2.10534 -1.37447 -2.09089e-21)
(2.17162 -1.2803 -4.21751e-21)
(2.24263 -1.20673 4.26451e-21)
(2.31657 -1.14912 0)
(2.3927 -1.1036 4.39421e-21)
(2.47128 -1.06675 0)
(2.55312 -1.03547 0)
(2.63955 -1.00652 4.65659e-21)
(2.73146 -0.977249 0)
(2.82938 -0.94486 -3.12354e-22)
(2.93309 -0.906964 0)
(3.04122 -0.861773 0)
(3.15223 -0.807567 2.67722e-22)
(3.2635 -0.74352 5.3401e-21)
(3.37217 -0.669812 5.25364e-21)
(3.47623 -0.586733 5.68168e-21)
(3.57224 -0.495685 0)
(3.65797 -0.399299 1.20553e-20)
(3.73248 -0.299892 0)
(3.7929 -0.199234 6.52518e-21)
(3.83924 -0.101162 0)
(3.87387 -0.00850215 0)
(3.8958 0.0816704 -7.61032e-21)
(3.90413 0.163817 0)
(3.90228 0.239431 8.399e-21)
(3.9009 0.32738 7.44356e-23)
(3.89893 0.40873 -1.8399e-20)
(3.89804 0.4957 1.90555e-20)
(3.93083 0.61371 0)
(3.99716 0.72192 0)
(4.07979 0.84828 1.03955e-20)
(4.23511 0.986048 0)
(4.48 1.08132 1.05429e-20)
(4.74522 1.15434 -1.05734e-20)
(5.00159 1.21603 -1.0597e-20)
(5.21791 1.26586 0)
(5.33298 1.22473 1.04539e-20)
(5.3218 1.02756 1.05017e-20)
(5.15263 0.798355 -2.28017e-20)
(4.83759 0.537429 1.12135e-20)
(4.4428 0.223469 1.1681e-20)
(3.93735 -0.0198192 0)
(3.34545 -0.325522 0)
(2.68506 -0.650016 -1.26701e-20)
(2.22151 -0.393058 0)
(1.7534 0.636961 0)
(1.50269 1.08483 2.51964e-20)
(1.22355 1.22069 2.52813e-20)
(-0.107236 2.55694 0)
(-1.62106 3.94286 0)
(-2.47568 4.29699 0)
(-2.92294 4.12403 0)
(-3.24805 3.76678 1.7636e-20)
(-3.5084 3.37517 -1.27726e-20)
(-3.80363 3.01707 -1.25204e-20)
(-4.15667 2.75625 -1.72561e-20)
(-4.55981 2.5583 0)
(-5.02554 2.43189 1.89643e-21)
(-5.52203 2.34552 0)
(-6.05625 2.29761 -3.07706e-21)
(-6.60874 2.27327 1.72582e-21)
(-7.18552 2.26964 -1.01963e-20)
(-7.77749 2.27612 1.38851e-20)
(-8.38493 2.28519 1.83742e-21)
(-8.99823 2.28459 0)
(-9.60969 2.26302 2.73033e-20)
(-10.207 2.20788 2.90148e-20)
(-10.7795 2.10864 6.77069e-20)
(-11.3162 1.95564 0)
(-11.8047 1.74134 -4.19602e-20)
(-12.2257 1.45971 0)
(-12.5512 1.1086 9.09857e-20)
(-12.7481 0.695775 -4.53841e-20)
(-12.7939 0.245968 4.58682e-20)
(-12.6944 -0.204906 -4.54681e-20)
(-12.477 -0.624467 -9.34097e-20)
(-12.1714 -0.987617 4.2286e-20)
(-11.8023 -1.28876 -3.97306e-20)
(-11.3833 -1.53175 0)
(-10.9221 -1.72427 7.01929e-20)
(-10.4227 -1.87288 0)
(-9.88751 -1.9825 5.44016e-20)
(-9.32032 -2.05612 -4.615e-20)
(-8.72717 -2.09564 -3.78986e-20)