/*--------------------------------*- C++ -*----------------------------------*\
  =========                 |
  \\      /  F ield         | OpenFOAM: The Open Source CFD Toolbox
   \\    /   O peration     | Website:  https://openfoam.org
    \\  /    A nd           | Version:  9
     \\/     M anipulation  |
\*---------------------------------------------------------------------------*/
FoamFile
{
    format      ascii;
    class       volVectorField;
    location    "0.074";
    object      UMean;
}
// * * * * * * * * * * * * * * * * * * * * * * * * * * * * * * * * * * * * * //

dimensions      [0 1 -1 0 0 0 0];

internalField   nonuniform List<vector> 
12225
(
(9.83566 0.0465169 0)
(9.54125 0.0625431 0)
(9.2408 0.0605255 0)
(8.93596 0.0589308 0)
(8.63633 0.0580492 0)
(8.3473 0.057054 0)
(8.06901 0.0557723 0)
(7.80102 0.054786 0)
(7.54057 0.0536606 0)
(7.2885 0.0533848 0)
(7.04002 0.0524905 0)
(6.79936 0.0537341 0)
(6.5542 0.0530593 0)
(6.31827 0.0580752 0)
(6.05791 0.0573056 0)
(5.81636 0.071692 0)
(5.50611 0.068957 0)
(5.24271 0.105251 0)
(10.0292 0.0504539 0)
(10.0888 0.0736163 0)
(10.127 0.0729211 0)
(10.1398 0.074201 0)
(10.1354 0.0775921 0)
(10.1206 0.0806628 0)
(10.0976 0.0832227 0)
(10.0678 0.0855495 0)
(10.0303 0.088188 0)
(9.98695 0.0908311 0)
(9.93553 0.0944173 0)
(9.87913 0.0979968 0)
(9.81266 0.104207 0)
(9.74143 0.11024 0)
(9.65552 0.12279 0)
(9.56392 0.133938 0)
(9.45022 0.158759 0)
(9.32662 0.177266 0)
(10.008 0.0322363 0)
(10.0399 0.0551431 0)
(10.0686 0.0576235 0)
(10.0859 0.0598171 0)
(10.096 0.0643169 0)
(10.1037 0.068898 0)
(10.1107 0.0726089 0)
(10.1168 0.0762428 0)
(10.1215 0.0798378 0)
(10.1242 0.084396 0)
(10.1249 0.0890982 0)
(10.1227 0.095797 0)
(10.1186 0.102974 0)
(10.1111 0.114251 0)
(10.1032 0.127301 0)
(10.0916 0.147134 0)
(10.0848 0.171139 0)
(10.0758 0.199236 0)
(9.99514 0.0282091 0)
(10.0186 0.0572246 0)
(10.0418 0.0628112 0)
(10.0563 0.0647218 0)
(10.064 0.0687384 0)
(10.0694 0.0733127 0)
(10.0743 0.0772785 0)
(10.0787 0.0807659 0)
(10.0821 0.0844993 0)
(10.0842 0.0887418 0)
(10.0851 0.0940517 0)
(10.0848 0.100433 0)
(10.0839 0.108824 0)
(10.0824 0.119438 0)
(10.0819 0.133566 0)
(10.0837 0.151595 0)
(10.0904 0.173043 0)
(10.1053 0.195209 0)
(10.0098 0.0221335 0)
(10.0268 0.0475152 0)
(10.0454 0.0554534 0)
(10.0582 0.0580788 0)
(10.0651 0.0619021 0)
(10.0695 0.0667423 0)
(10.0732 0.0712937 0)
(10.0764 0.0755435 0)
(10.0788 0.0798811 0)
(10.08 0.0848544 0)
(10.0799 0.0906672 0)
(10.079 0.0977455 0)
(10.0774 0.10646 0)
(10.0759 0.117322 0)
(10.0752 0.130847 0)
(10.0773 0.147017 0)
(10.0829 0.164714 0)
(10.0946 0.180938 0)
(9.98249 0.018301 0)
(9.9954 0.0443142 0)
(10.0127 0.0548733 0)
(10.0273 0.0587506 0)
(10.0371 0.0626139 0)
(10.0437 0.0675069 0)
(10.0491 0.0724474 0)
(10.0537 0.0770901 0)
(10.0575 0.0818127 0)
(10.0601 0.0870712 0)
(10.0617 0.0931967 0)
(10.0626 0.100508 0)
(10.0631 0.109265 0)
(10.0639 0.119852 0)
(10.0656 0.132341 0)
(10.0696 0.146519 0)
(10.0761 0.160985 0)
(10.0865 0.173917 0)
(10.0002 0.0152444 0)
(10.008 0.0382126 0)
(10.02 0.0496459 0)
(10.0316 0.0545682 0)
(10.0398 0.0584639 0)
(10.0451 0.0632813 0)
(10.0492 0.0685106 0)
(10.0529 0.0736211 0)
(10.0559 0.078753 0)
(10.0581 0.0843511 0)
(10.0593 0.0907765 0)
(10.06 0.0983197 0)
(10.0605 0.107154 0)
(10.0616 0.117496 0)
(10.0635 0.129184 0)
(10.0674 0.141937 0)
(10.073 0.154525 0)
(10.0816 0.165959 0)
(10.0103 0.0148002 0)
(10.0157 0.0348513 0)
(10.0251 0.0474006 0)
(10.0349 0.0535453 0)
(10.0425 0.05777 0)
(10.0478 0.062509 0)
(10.0518 0.0678784 0)
(10.0551 0.073464 0)
(10.058 0.0791708 0)
(10.0603 0.0852508 0)
(10.0619 0.0919768 0)
(10.0631 0.0996205 0)
(10.0641 0.108303 0)
(10.0655 0.118141 0)
(10.0675 0.1289 0)
(10.0709 0.140301 0)
(10.0756 0.151401 0)
(10.0821 0.161576 0)
(9.99927 0.0125666 0)
(10.0053 0.0306121 0)
(10.0144 0.0430508 0)
(10.0244 0.0501385 0)
(10.0327 0.0548588 0)
(10.0384 0.0596406 0)
(10.0424 0.0650614 0)
(10.0459 0.0708261 0)
(10.0491 0.0767632 0)
(10.0521 0.083029 0)
(10.0548 0.0898874 0)
(10.0571 0.0975976 0)
(10.0593 0.10622 0)
(10.0619 0.115761 0)
(10.0649 0.125931 0)
(10.069 0.136474 0)
(10.074 0.146653 0)
(10.0803 0.156067 0)
(9.99867 0.0112867 0)
(10.0024 0.0277071 0)
(10.0088 0.0398042 0)
(10.0165 0.0477147 0)
(10.0237 0.0533116 0)
(10.0295 0.0584817 0)
(10.0338 0.0639919 0)
(10.0375 0.0698421 0)
(10.0409 0.0759349 0)
(10.0441 0.0823918 0)
(10.0471 0.0893894 0)
(10.0498 0.0970972 0)
(10.0524 0.105516 0)
(10.0553 0.114621 0)
(10.0587 0.124132 0)
(10.0629 0.133849 0)
(10.0676 0.143188 0)
(10.0734 0.151978 0)
(9.99626 0.0108551 0)
(10.0004 0.0255158 0)
(10.0064 0.0368068 0)
(10.0133 0.0446905 0)
(10.0198 0.0505424 0)
(10.0253 0.0558016 0)
(10.0298 0.0613084 0)
(10.0336 0.0672506 0)
(10.037 0.0735106 0)
(10.0403 0.0800973 0)
(10.0433 0.087142 0)
(10.0463 0.0948064 0)
(10.0495 0.103072 0)
(10.0531 0.111892 0)
(10.057 0.12096 0)
(10.0617 0.130141 0)
(10.0667 0.138932 0)
(10.0724 0.147351 0)
(9.99183 0.00898299 0)
(9.99383 0.0232813 0)
(9.99858 0.03412 0)
(10.0056 0.0421418 0)
(10.0131 0.0483576 0)
(10.0197 0.0538563 0)
(10.0251 0.0594727 0)
(10.0296 0.0655358 0)
(10.0338 0.0719831 0)
(10.0378 0.0787265 0)
(10.0417 0.0857686 0)
(10.0456 0.0932342 0)
(10.0495 0.101121 0)
(10.0535 0.109448 0)
(10.0578 0.11797 0)
(10.0624 0.12664 0)
(10.0673 0.135012 0)
(10.0724 0.143208 0)
(10.0031 0.00879621 0)
(10.0036 0.0206222 0)
(10.007 0.0306286 0)
(10.0127 0.0384922 0)
(10.0189 0.0448393 0)
(10.0243 0.0506111 0)
(10.0289 0.0564764 0)
(10.0332 0.0626514 0)
(10.0373 0.0690781 0)
(10.0415 0.0757527 0)
(10.0456 0.0827284 0)
(10.0496 0.0901359 0)
(10.0536 0.0979595 0)
(10.0578 0.106177 0)
(10.0621 0.114524 0)
(10.0666 0.122939 0)
(10.0715 0.13104 0)
(10.0765 0.139014 0)
(10.0091 0.0118702 0)
(10.0112 0.0200893 0)
(10.015 0.0294413 0)
(10.0203 0.0373125 0)
(10.0264 0.0434944 0)
(10.0322 0.0489791 0)
(10.0377 0.0545409 0)
(10.0427 0.0604781 0)
(10.0476 0.0668007 0)
(10.0523 0.0734804 0)
(10.057 0.080471 0)
(10.0616 0.0877935 0)
(10.0663 0.0953622 0)
(10.071 0.103179 0)
(10.0759 0.111026 0)
(10.081 0.118973 0)
(10.0861 0.126679 0)
(10.0913 0.134455 0)
(10.0009 0.00524206 0)
(10.0043 0.0160508 0)
(10.0079 0.0246612 0)
(10.0121 0.0315221 0)
(10.0171 0.0375466 0)
(10.0222 0.0434404 0)
(10.0271 0.0494518 0)
(10.0319 0.0555879 0)
(10.0366 0.0618362 0)
(10.0414 0.0682817 0)
(10.0463 0.074988 0)
(10.0513 0.0820367 0)
(10.0564 0.0893513 0)
(10.0616 0.0969221 0)
(10.0669 0.104529 0)
(10.0723 0.112244 0)
(10.0778 0.119766 0)
(10.0831 0.127431 0)
(10.0279 0.00540194 0)
(10.0297 0.0163402 0)
(10.0325 0.02336 0)
(10.0366 0.0290568 0)
(10.0416 0.0346664 0)
(10.0471 0.0402978 0)
(10.0525 0.0459282 0)
(10.058 0.0516586 0)
(10.0633 0.0576103 0)
(10.0687 0.0638801 0)
(10.074 0.0704412 0)
(10.0795 0.0772761 0)
(10.0851 0.084247 0)
(10.0909 0.091377 0)
(10.0967 0.0984893 0)
(10.1026 0.105753 0)
(10.1086 0.112873 0)
(10.1146 0.12027 0)
(9.99475 0.00451027 0)
(9.9934 0.0113809 0)
(9.99438 0.0176572 0)
(9.99819 0.0235282 0)
(10.0034 0.0291313 0)
(10.0088 0.0344454 0)
(10.0141 0.0395978 0)
(10.0194 0.0448305 0)
(10.0248 0.0502754 0)
(10.0305 0.0559806 0)
(10.0364 0.0618875 0)
(10.0428 0.0680198 0)
(10.0493 0.0742989 0)
(10.0561 0.0808098 0)
(10.0628 0.08739 0)
(10.0698 0.0942185 0)
(10.0764 0.10096 0)
(10.0836 0.108039 0)
(9.98652 0.0116541 0)
(9.98749 0.0117176 0)
(9.99006 0.0141755 0)
(9.9945 0.0182344 0)
(9.99987 0.0228618 0)
(10.0056 0.0276258 0)
(10.0116 0.0324215 0)
(10.0176 0.0372116 0)
(10.0238 0.0419802 0)
(10.0302 0.0468457 0)
(10.0367 0.0518965 0)
(10.0435 0.0572573 0)
(10.0505 0.0628578 0)
(10.0576 0.0687512 0)
(10.0649 0.0747268 0)
(10.0722 0.0809583 0)
(10.0796 0.0871056 0)
(10.0869 0.0936223 0)
(10.0005 0.00211823 0)
(10.0055 0.00394305 0)
(10.0111 0.00674622 0)
(10.0168 0.0100855 0)
(10.0224 0.0136881 0)
(10.0283 0.0174363 0)
(10.0347 0.021256 0)
(10.0415 0.0251466 0)
(10.0485 0.0291056 0)
(10.0557 0.0331577 0)
(10.063 0.03728 0)
(10.0706 0.0415341 0)
(10.0784 0.0459127 0)
(10.0864 0.0505636 0)
(10.0945 0.0554069 0)
(10.1026 0.0606332 0)
(10.1108 0.0659472 0)
(10.1189 0.071699 0)
(10.0025 -0.00126381 0)
(10.0047 -0.00038164 0)
(10.0081 0.00099275 0)
(10.0131 0.00285176 0)
(10.0194 0.00512897 0)
(10.0266 0.00780597 0)
(10.0341 0.0107505 0)
(10.0417 0.0138287 0)
(10.0494 0.0169511 0)
(10.0571 0.0201117 0)
(10.0649 0.0233172 0)
(10.0726 0.02668 0)
(10.0804 0.0302385 0)
(10.0882 0.0341383 0)
(10.0962 0.0382923 0)
(10.1042 0.0428392 0)
(10.1124 0.0474854 0)
(10.1207 0.0525117 0)
(10.0147 -0.00230951 0)
(10.0173 -0.00310321 0)
(10.0216 -0.00415441 0)
(10.0275 -0.00426504 0)
(10.0344 -0.0033419 0)
(10.0415 -0.00171787 0)
(10.0488 0.000294912 0)
(10.0563 0.00259196 0)
(10.064 0.00515319 0)
(10.0719 0.00795471 0)
(10.0798 0.0108857 0)
(10.0878 0.0138948 0)
(10.0959 0.0169144 0)
(10.104 0.0200315 0)
(10.1122 0.0232098 0)
(10.1205 0.026618 0)
(10.129 0.030078 0)
(10.1376 0.0338449 0)
(10.0016 -0.00627684 0)
(10.0035 -0.00914905 0)
(10.0082 -0.00995845 0)
(10.0153 -0.0100015 0)
(10.0236 -0.00946081 0)
(10.0323 -0.00833036 0)
(10.0408 -0.0067876 0)
(10.0494 -0.00499448 0)
(10.0579 -0.00301514 0)
(10.0666 -0.000843128 0)
(10.0754 0.00147563 0)
(10.0842 0.00392291 0)
(10.0932 0.00643606 0)
(10.1022 0.00907858 0)
(10.1113 0.0118083 0)
(10.1206 0.0147583 0)
(10.1297 0.0177633 0)
(10.139 0.0210247 0)
(9.98895 -0.00135488 0)
(9.99456 -0.0109773 0)
(10.0016 -0.0159216 0)
(10.0092 -0.0177532 0)
(10.0173 -0.0180228 0)
(10.0256 -0.0176965 0)
(10.0339 -0.0170692 0)
(10.0421 -0.0160785 0)
(10.0504 -0.0146835 0)
(10.0589 -0.0129757 0)
(10.0676 -0.0111547 0)
(10.0765 -0.00933869 0)
(10.0856 -0.00757508 0)
(10.0948 -0.0057369 0)
(10.1042 -0.00378703 0)
(10.1137 -0.00158164 0)
(10.1233 0.000737649 0)
(10.1331 0.00330424 0)
(10.0054 -0.0131974 0)
(10.0116 -0.0156598 0)
(10.0198 -0.0197636 0)
(10.0289 -0.021969 0)
(10.038 -0.022241 0)
(10.0465 -0.0216704 0)
(10.0548 -0.0208493 0)
(10.0631 -0.0198557 0)
(10.0716 -0.0186858 0)
(10.0805 -0.0173972 0)
(10.0895 -0.0160868 0)
(10.0986 -0.0147675 0)
(10.1078 -0.0134356 0)
(10.117 -0.0120176 0)
(10.1263 -0.0105373 0)
(10.1357 -0.00890572 0)
(10.1452 -0.00724134 0)
(10.1548 -0.00539414 0)
(9.98694 -0.0112054 0)
(9.98901 -0.0221758 0)
(9.9964 -0.0285213 0)
(10.0063 -0.0309498 0)
(10.016 -0.0315579 0)
(10.0248 -0.031789 0)
(10.0333 -0.031905 0)
(10.0421 -0.0316834 0)
(10.0514 -0.0310455 0)
(10.061 -0.0301395 0)
(10.0708 -0.0291671 0)
(10.0808 -0.0282255 0)
(10.0909 -0.027341 0)
(10.101 -0.0264361 0)
(10.1112 -0.0254754 0)
(10.1213 -0.0243617 0)
(10.1314 -0.0231617 0)
(10.1414 -0.0217731 0)
(10.0139 -0.00924468 0)
(10.025 -0.0239002 0)
(10.0383 -0.0285194 0)
(10.0503 -0.0291908 0)
(10.0602 -0.0296443 0)
(10.0686 -0.0304805 0)
(10.0767 -0.0311252 0)
(10.0853 -0.0312532 0)
(10.0945 -0.0310112 0)
(10.1042 -0.0306715 0)
(10.1141 -0.0303633 0)
(10.1239 -0.0300498 0)
(10.1337 -0.0296585 0)
(10.1434 -0.0291012 0)
(10.153 -0.0283914 0)
(10.1624 -0.0275149 0)
(10.1719 -0.0265778 0)
(10.1814 -0.0255393 0)
(9.99531 -0.023108 0)
(10.0087 -0.038248 0)
(10.0233 -0.0425775 0)
(10.0353 -0.0425788 0)
(10.0445 -0.0427858 0)
(10.0529 -0.0437044 0)
(10.0618 -0.0444766 0)
(10.0716 -0.0447351 0)
(10.0817 -0.0446279 0)
(10.0919 -0.0443586 0)
(10.1018 -0.044013 0)
(10.1116 -0.0435894 0)
(10.1213 -0.043091 0)
(10.1309 -0.0425309 0)
(10.1405 -0.0419635 0)
(10.15 -0.0413848 0)
(10.1596 -0.0408433 0)
(10.1692 -0.0402683 0)
(10.0013 -0.0173412 0)
(10.0184 -0.030456 0)
(10.0379 -0.03367 0)
(10.0531 -0.0342272 0)
(10.0644 -0.0358544 0)
(10.0746 -0.0380092 0)
(10.0851 -0.0396071 0)
(10.0961 -0.0404602 0)
(10.1071 -0.0408712 0)
(10.1181 -0.0411314 0)
(10.129 -0.041338 0)
(10.1399 -0.0415044 0)
(10.1508 -0.0415715 0)
(10.1616 -0.0415456 0)
(10.1724 -0.0413916 0)
(10.1829 -0.0411745 0)
(10.1935 -0.0408893 0)
(10.2036 -0.0406229 0)
(10.0149 -0.0400429 0)
(10.051 -0.0567369 0)
(10.0823 -0.0546477 0)
(10.1036 -0.0535473 0)
(10.1177 -0.0545951 0)
(10.1279 -0.0556832 0)
(10.1356 -0.0562174 0)
(10.1411 -0.0564132 0)
(10.1446 -0.056479 0)
(10.1461 -0.0565136 0)
(10.1461 -0.0565042 0)
(10.145 -0.0564654 0)
(10.143 -0.0563424 0)
(10.1406 -0.0561816 0)
(10.1374 -0.0559136 0)
(10.1341 -0.0556341 0)
(10.1299 -0.0552795 0)
(10.1262 -0.0550109 0)
(9.91223 -0.0286087 0)
(9.74965 -0.0452868 0)
(9.58369 -0.0443062 0)
(9.41481 -0.0435667 0)
(9.24899 -0.0439645 0)
(9.08958 -0.0441422 0)
(8.93742 -0.0438257 0)
(8.79247 -0.0431686 0)
(8.65445 -0.042338 0)
(8.52321 -0.041496 0)
(8.39823 -0.0407422 0)
(8.27936 -0.0401101 0)
(8.16588 -0.0395204 0)
(8.05821 -0.0389191 0)
(7.95526 -0.0382159 0)
(7.85844 -0.0374709 0)
(7.7653 -0.0366716 0)
(7.67911 -0.035993 0)
(-0.223679 0.48359 -1.16536e-21)
(-0.528053 0.217774 1.18522e-21)
(-0.650891 -0.00536692 0)
(-0.598012 -0.215682 0)
(-0.355414 -0.392498 0)
(0.0140238 -0.509719 -1.12773e-21)
(0.466399 -0.563174 0)
(0.950697 -0.557453 0)
(1.42432 -0.514384 0)
(1.85635 -0.448129 0)
(2.2311 -0.371718 1.2518e-21)
(2.54416 -0.299091 0)
(2.79675 -0.23296 0)
(2.98992 -0.165808 0)
(3.12787 -0.0968521 0)
(3.21189 -0.0256892 1.64093e-21)
(3.23843 0.00824482 0)
(3.24189 0.00486791 0)
(3.22287 0.0215896 0)
(3.18217 0.0502128 0)
(3.10523 0.0816081 0)
(2.98244 0.10941 0)
(2.8054 0.145726 0)
(2.5898 0.203688 1.59937e-21)
(2.3162 0.274115 -1.56124e-21)
(2.01078 0.277273 1.53035e-21)
(1.69849 0.24129 1.51089e-21)
(1.37111 0.166528 0)
(1.08322 0.0900311 0)
(0.804426 0.129174 -1.51273e-21)
(0.515143 0.179624 -1.52899e-21)
(0.217381 0.203413 0)
(-0.0815591 0.199501 0)
(-0.355464 0.170265 -1.61563e-21)
(-0.584836 0.124984 0)
(-0.76453 0.079916 0)
(-0.891952 0.0420819 1.67984e-21)
(-0.981573 0.0202762 0)
(-1.06506 0.0171817 1.73659e-21)
(-1.18147 0.0421232 3.56568e-21)
(-1.35613 0.0972566 0)
(-1.59302 0.146498 0)
(-1.87304 0.164561 0)
(-2.14911 0.0990512 0)
(-2.33427 0.0372674 0)
(-2.4803 0.0382932 4.00188e-21)
(-2.60395 -0.0399605 4.09769e-21)
(-2.73488 -0.0562268 4.20812e-21)
(-2.85969 0.0839005 0)
(-3.07401 0.15007 -4.33009e-21)
(-3.24219 0.125563 0)
(-3.39082 0.116172 4.45116e-21)
(-3.5303 0.110312 4.508e-21)
(-3.66183 0.100389 0)
(-3.77632 0.0837032 0)
(-3.89147 0.0348778 0)
(-4.00447 0.0564428 4.65813e-21)
(-4.16474 0.0897893 0)
(-4.29492 0.0594402 0)
(-4.38707 0.0391953 0)
(-4.4209 0.0100752 0)
(-4.44503 -0.0713422 0)
(-4.45504 -0.0425845 0)
(-4.56273 0.0547218 0)
(-4.68519 0.0525608 0)
(-4.7848 0.0461616 -4.96793e-21)
(-4.88783 0.0348418 0)
(-4.97837 0.0280353 0)
(-5.07151 0.0235848 5.15624e-21)
(-5.15791 0.0202279 5.20617e-21)
(-5.23542 0.0153395 0)
(-5.29791 0.0103343 -5.26784e-21)
(-5.33906 0.00141054 5.27906e-21)
(-5.35773 -0.00693042 0)
(-5.36993 -0.00834708 -5.27202e-21)
(-5.38379 -0.0043304 0)
(-5.40267 0.000717252 0)
(-5.43167 0.00720913 5.15611e-21)
(-5.47798 0.017043 0)
(-5.54955 0.0297352 -4.93483e-21)
(-5.64707 0.0398599 0)
(-5.76612 0.0370833 4.61575e-21)
(-5.87103 0.0258043 4.43768e-21)
(-5.9807 0.00862686 4.25389e-21)
(-6.04274 -0.0292931 8.12834e-21)
(-6.12596 -0.0503663 -7.76138e-21)
(-6.21194 -0.0459684 0)
(-6.39902 0.0390719 0)
(-6.70194 0.188877 0)
(-7.06314 0.200333 -6.5574e-21)
(-7.29868 0.140812 -6.51222e-21)
(-7.44698 0.0911907 6.50154e-21)
(-7.515 0.0453531 0)
(-7.51369 0.00784722 -6.36612e-21)
(-7.45285 -0.0241742 -6.19295e-21)
(-7.33897 -0.0508487 -5.93939e-21)
(-7.17862 -0.0737214 0)
(-6.97612 -0.0932591 0)
(-6.73627 -0.110202 0)
(-6.4622 -0.124893 -4.15714e-21)
(-6.15749 -0.137826 0)
(-5.82474 -0.148861 0)
(-5.46688 -0.158167 2.17292e-21)
(-5.08705 -0.165675 0)
(-4.68892 -0.171426 0)
(-4.27589 -0.175416 -7.68544e-23)
(-3.85147 -0.177679 0)
(-3.41953 -0.178232 0)
(-2.98405 -0.177101 2.2275e-21)
(-2.549 -0.17426 2.86133e-21)
(-2.1182 -0.169777 0)
(-1.69549 -0.163803 -3.94794e-21)
(-1.28462 -0.156558 0)
(-0.887981 -0.148628 4.76572e-21)
(-0.507291 -0.140806 0)
(-0.143382 -0.132799 5.32562e-21)
(0.204207 -0.125003 5.52122e-21)
(0.535777 -0.117543 0)
(0.851772 -0.110408 0)
(1.15265 -0.103496 0)
(1.4388 -0.0967507 0)
(1.71042 -0.0900959 0)
(1.96743 -0.0836756 0)
(2.20945 -0.0775672 0)
(2.43705 -0.0716558 5.64868e-21)
(2.65015 -0.0656686 -5.53693e-21)
(2.84918 -0.0599268 0)
(3.03446 -0.0544964 0)
(3.20646 -0.0493644 0)
(3.3658 -0.0445579 0)
(3.51333 -0.0401387 -9.60992e-21)
(3.64999 -0.0361245 0)
(3.77667 -0.0324504 8.96982e-21)
(3.89407 -0.0290329 -8.65578e-21)
(4.00272 -0.025796 0)
(4.10286 -0.0226594 0)
(4.19463 -0.019566 0)
(4.27809 -0.0164819 7.50445e-21)
(4.35324 -0.0133879 7.25232e-21)
(4.41999 -0.0102722 0)
(4.47824 -0.00712338 6.79924e-21)
(4.5278 -0.0039494 6.59943e-21)
(4.56849 -0.000766006 -6.41777e-21)
(4.60014 0.00241649 0)
(4.62248 0.00560308 0)
(4.63529 0.0088158 -5.9804e-21)
(4.63807 0.0120834 0)
(4.63044 0.0154054 0)
(4.61193 0.0187662 0)
(4.58204 0.0221289 0)
(4.54023 0.0254672 5.58176e-21)
(4.48586 0.0287746 5.54518e-21)
(4.4182 0.0320262 0)
(4.33642 0.0352323 5.50638e-21)
(4.23951 0.0383437 0)
(4.12647 0.040971 0)
(3.99703 0.0424024 5.49354e-21)
(3.85197 0.0418761 0)
(3.69444 0.0381854 5.46663e-21)
(3.53249 0.0313338 0)
(3.37744 0.0235391 0)
(3.23971 0.0196655 5.37625e-21)
(3.1244 0.0216182 0)
(3.01895 0.0323924 5.32009e-21)
(2.90339 0.0404662 0)
(2.77701 0.0408079 0)
(2.64116 0.0377565 0)
(2.49981 0.0296165 -5.15217e-21)
(2.36697 0.020361 0)
(2.25077 0.0153987 5.06576e-21)
(2.14301 0.0138452 0)
(2.04681 0.0127303 0)
(1.9589 0.018814 0)
(1.85191 0.0269294 0)
(1.72871 0.0211229 0)
(1.62948 0.0067881 0)
(1.57133 0.0139677 0)
(1.46674 0.0197097 -9.90187e-21)
(1.44561 0.0440472 0)
(1.183 0.0081915 0)
(0.00201285 0.95241 3.58113e-21)
(0.0645367 0.611577 -3.62287e-21)
(0.184556 0.113276 0)
(0.453112 -0.396357 2.51489e-21)
(0.806926 -0.897977 0)
(1.23616 -1.25934 1.12298e-21)
(1.67089 -1.4348 -2.55673e-21)
(2.07724 -1.45802 -2.61872e-21)
(2.43759 -1.3713 0)
(2.74437 -1.21481 -2.86375e-21)
(2.99341 -1.02699 -1.24893e-21)
(3.18582 -0.833036 0)
(3.32681 -0.649497 0)
(3.42229 -0.485527 0)
(3.48212 -0.340216 0)
(3.51742 -0.198582 -1.63821e-21)
(3.53106 -0.0751733 0)
(3.51315 0.0138814 3.72802e-21)
(3.46816 0.0772879 0)
(3.40108 0.140009 0)
(3.2908 0.262437 -3.67706e-21)
(3.14275 0.411842 0)
(2.95946 0.534125 3.55832e-21)
(2.76006 0.637795 -1.5938e-21)
(2.55261 0.710198 1.55519e-21)
(2.31657 0.752533 -1.524e-21)
(2.03958 0.815828 -1.50435e-21)
(1.70646 0.859393 0)
(1.32504 0.852261 0)
(0.900789 0.811953 1.50753e-21)
(0.494782 0.768561 -1.77691e-21)
(0.137817 0.729637 0)
(-0.188995 0.688045 0)
(-0.460001 0.607395 1.61223e-21)
(-0.695619 0.490093 0)
(-0.896776 0.361412 0)
(-1.06281 0.23348 -1.67539e-21)
(-1.22233 0.170807 0)
(-1.40466 0.230724 2.08787e-21)
(-1.61922 0.370503 -3.55589e-21)
(-1.8478 0.501821 0)
(-2.08257 0.594863 0)
(-2.31279 0.609074 -8.16464e-21)
(-2.56677 0.522315 -8.25011e-21)
(-2.84498 0.42238 -8.39124e-21)
(-3.08817 0.339782 4.55838e-21)
(-3.35084 0.371799 -4.09102e-21)
(-3.62333 0.394745 -1.31977e-20)
(-3.77615 0.366609 9.19097e-21)
(-3.91861 0.329426 4.3223e-21)
(-4.01111 0.277145 0)
(-4.0931 0.249889 -4.44374e-21)
(-4.14404 0.222059 5.17117e-21)
(-4.19521 0.199749 0)
(-4.24482 0.201275 0)
(-4.34622 0.251258 0)
(-4.4426 0.280419 -4.65306e-21)
(-4.53658 0.256125 0)
(-4.60634 0.198335 9.92954e-21)
(-4.6637 0.101631 0)
(-4.69264 0.0319102 1.00351e-20)
(-4.83573 0.112307 0)
(-4.97527 0.175328 -1.02063e-20)
(-5.08637 0.193824 0)
(-5.18047 0.179534 1.0413e-20)
(-5.26141 0.17569 -5.58282e-21)
(-5.34217 0.170615 0)
(-5.41755 0.168852 -1.08124e-20)
(-5.49342 0.161189 -5.15258e-21)
(-5.56246 0.145214 -5.20193e-21)
(-5.62218 0.116983 0)
(-5.66842 0.0793061 -5.79275e-21)
(-5.68674 0.0353436 -5.27389e-21)
(-5.69052 0.00850795 0)
(-5.6846 0.00764218 5.26726e-21)
(-5.67315 0.0157612 -1.0941e-20)
(-5.67258 0.0301081 0)
(-5.6951 0.0578197 -5.15195e-21)
(-5.74135 0.0949592 0)
(-5.81045 0.134979 1.51435e-20)
(-5.89608 0.169639 0)
(-6.00715 0.185123 -1.4138e-20)
(-6.12153 0.183555 -4.43568e-21)
(-6.25847 0.162882 4.5036e-21)
(-6.40981 0.162944 8.62616e-21)
(-6.65566 0.218526 -8.29377e-21)
(-6.91341 0.311284 0)
(-7.24566 0.442039 0)
(-7.43758 0.433798 0)
(-7.55964 0.333172 2.07898e-20)
(-7.58666 0.209586 6.50861e-21)
(-7.56824 0.0977844 -6.49736e-21)
(-7.49643 -0.00303155 0)
(-7.38743 -0.0887458 -7.08679e-21)
(-7.23983 -0.163346 6.19111e-21)
(-7.0603 -0.227729 5.93882e-21)
(-6.84897 -0.284373 0)
(-6.60895 -0.334328 0)
(-6.34045 -0.378863 0)
(-6.04549 -0.418644 4.15973e-21)
(-5.72479 -0.454157 0)
(-5.38036 -0.485388 -6.12152e-21)
(-5.01377 -0.512316 -6.85902e-21)
(-4.62735 -0.534656 3.18344e-21)
(-4.22321 -0.552182 0)
(-3.80447 -0.564646 1.83959e-22)
(-3.37457 -0.571971 0)
(-2.93719 -0.574151 -2.87292e-21)
(-2.49621 -0.571225 2.03459e-21)
(-2.05548 -0.563115 2.68927e-21)
(-1.61882 -0.549912 0)
(-1.18998 -0.532192 1.17069e-20)
(-0.772947 -0.510752 -8.65961e-21)
(-0.370378 -0.48718 -4.76395e-21)
(0.0161814 -0.463036 0)
(0.386272 -0.438845 -5.32306e-21)
(0.7403 -0.415414 -1.64649e-20)
(1.07875 -0.393034 0)
(1.40231 -0.371726 -1.14516e-20)
(1.71151 -0.351212 -1.15789e-20)
(2.00666 -0.331181 -1.16322e-20)
(2.28808 -0.311459 0)
(2.55551 -0.292641 0)
(2.80855 -0.273921 0)
(3.04794 -0.255524 5.58183e-21)
(3.27357 -0.237454 5.53126e-21)
(3.48565 -0.219959 0)
(3.68441 -0.20324 1.04757e-20)
(3.87018 -0.187458 1.01802e-20)
(4.04351 -0.172775 0)
(4.20501 -0.159322 9.60064e-21)
(4.35541 -0.147099 1.84768e-20)
(4.49558 -0.135945 -8.96128e-21)
(4.62647 -0.125623 -8.57199e-21)
(4.74892 -0.115907 0)
(4.86367 -0.106612 0)
(4.97124 -0.0976075 0)
(5.07196 -0.0888176 -7.49728e-21)
(5.16598 -0.0801851 7.18028e-21)
(5.25342 -0.0716547 1.39562e-20)
(5.33425 -0.063178 -6.79255e-21)
(5.40848 -0.0546923 6.52931e-21)
(5.47596 -0.0461585 6.41123e-21)
(5.53651 -0.0375471 0)
(5.58996 -0.0288237 0)
(5.63607 -0.0199425 -5.90823e-21)
(5.6748 -0.0108483 0)
(5.70594 -0.00150272 0)
(5.72929 0.00812553 1.13061e-20)
(5.74453 0.0180763 0)
(5.75131 0.0284069 5.49648e-21)
(5.74905 0.0392108 -5.53803e-21)
(5.73711 0.0505813 0)
(5.71466 0.06265 5.40154e-21)
(5.68082 0.0754624 0)
(5.63473 0.0888145 0)
(5.57575 0.10209 -5.48576e-21)
(5.50253 0.11442 1.08138e-20)
(5.41319 0.123819 -5.45856e-21)
(5.30561 0.127715 0)
(5.17743 0.122829 0)
(5.02663 0.109379 5.24899e-21)
(4.85686 0.0918507 0)
(4.692 0.0792231 5.20432e-21)
(4.55689 0.0792376 0)
(4.45098 0.0870325 0)
(4.36198 0.0968904 0)
(4.26848 0.102528 5.14334e-21)
(4.16142 0.0989763 0)
(4.04681 0.0898296 -5.0568e-21)
(3.93553 0.0816606 0)
(3.82687 0.0729204 0)
(3.72979 0.0706538 9.86386e-21)
(3.64449 0.0752736 -9.83062e-21)
(3.5674 0.0793975 0)
(3.48148 0.0642485 0)
(3.4064 0.0586046 0)
(3.29525 0.0402948 2.95805e-20)
(3.27499 0.0721527 0)
(3.12701 0.0565529 -1.987e-20)
(0.0865732 0.5025 -4.41374e-23)
(0.36975 0.00916757 4.81402e-21)
(0.764582 -0.68724 0)
(1.23884 -1.37686 -5.06544e-21)
(1.698 -1.90328 0)
(2.07979 -2.19159 0)
(2.36229 -2.24095 -4.23152e-22)
(2.56223 -2.1143 2.61451e-21)
(2.69967 -1.87247 3.28797e-21)
(2.79811 -1.56897 2.86218e-21)
(2.86242 -1.25663 0)
(2.90476 -0.966497 0)
(2.92594 -0.705099 -3.85933e-21)
(2.92794 -0.476693 -7.91129e-21)
(2.91096 -0.286241 8.05659e-21)
(2.87874 -0.127401 0)
(2.84085 0.0114018 8.21168e-21)
(2.78377 0.130244 -3.73001e-21)
(2.71103 0.231726 0)
(2.59497 0.387502 8.15597e-21)
(2.45606 0.558451 3.67618e-21)
(2.31443 0.707187 -7.97542e-21)
(2.16524 0.839757 -3.55555e-21)
(2.01381 0.948108 0)
(1.84902 1.04719 7.58774e-21)
(1.64423 1.17471 7.46037e-21)
(1.4165 1.29575 0)
(1.15629 1.40866 7.25249e-21)
(0.865589 1.48627 0)
(0.54623 1.5061 7.16515e-21)
(0.202161 1.45925 3.28935e-21)
(-0.128216 1.36037 0)
(-0.435678 1.21881 0)
(-0.699034 1.04284 0)
(-0.944058 0.873028 0)
(-1.16564 0.710743 0)
(-1.40441 0.612047 0)
(-1.65796 0.592596 8.05547e-21)
(-1.92042 0.652868 -1.20772e-20)
(-2.18897 0.762435 0)
(-2.43148 0.85624 0)
(-2.67308 0.89778 0)
(-2.86883 0.934883 -6.70213e-22)
(-3.09427 0.912111 8.23581e-21)
(-3.31063 0.839584 1.74229e-20)
(-3.52825 0.776054 -1.77781e-20)
(-3.735 0.717701 -9.45458e-21)
(-3.91069 0.643924 8.9848e-21)
(-4.02908 0.565156 7.27751e-22)
(-4.13441 0.483968 1.00909e-20)
(-4.21052 0.403354 0)
(-4.28135 0.331676 1.03544e-20)
(-4.33446 0.281702 7.66455e-22)
(-4.40875 0.277342 0)
(-4.47958 0.301234 0)
(-4.54586 0.331128 -1.05621e-20)
(-4.58326 0.331993 0)
(-4.62632 0.3064 0)
(-4.66122 0.236531 1.12409e-20)
(-4.7201 0.183572 2.12008e-20)
(-4.8601 0.240803 -1.00356e-20)
(-5.03258 0.31154 0)
(-5.15927 0.322775 1.02052e-20)
(-5.2544 0.304985 0)
(-5.33283 0.278978 1.19455e-20)
(-5.39885 0.259216 1.05431e-20)
(-5.45498 0.24271 -2.29743e-20)
(-5.50339 0.23081 -1.24077e-20)
(-5.54422 0.216446 0)
(-5.57823 0.193175 2.34742e-20)
(-5.60661 0.155285 0)
(-5.62687 0.102064 3.45014e-20)
(-5.63274 0.0435262 2.3371e-20)
(-5.62871 0.00172566 2.32865e-20)
(-5.60802 -0.0210676 -2.31807e-20)
(-5.58889 -0.0105235 3.39791e-20)
(-5.58594 0.0376837 0)
(-5.599 0.101642 0)
(-5.63226 0.160819 -2.19532e-20)
(-5.69188 0.216489 -3.15573e-20)
(-5.77241 0.269197 0)
(-5.88667 0.303504 9.53269e-21)
(-6.02205 0.318136 0)
(-6.19099 0.335674 -2.70045e-20)
(-6.41316 0.406616 7.54288e-22)
(-6.66247 0.489234 -8.56019e-22)
(-6.91932 0.594109 1.64677e-20)
(-7.07774 0.601176 0)
(-7.0989 0.488582 -1.5829e-20)
(-7.07956 0.33294 1.33998e-21)
(-7.01831 0.171808 0)
(-6.94563 0.0249594 0)
(-6.8451 -0.106621 0)
(-6.72495 -0.221349 1.34616e-20)
(-6.57533 -0.323342 0)
(-6.39965 -0.413772 0)
(-6.19448 -0.495156 0)
(-5.96227 -0.568569 0)
(-5.70248 -0.635491 0)
(-5.41705 -0.696417 9.35188e-21)
(-5.10641 -0.75173 0)
(-4.77234 -0.801205 6.13191e-21)
(-4.41616 -0.844528 4.69222e-21)
(-4.04025 -0.881057 -3.19081e-21)
(-3.64693 -0.910168 0)
(-3.23934 -0.931135 -1.13426e-22)
(-2.82076 -0.943646 0)
(-2.39479 -0.947654 2.87034e-21)
(-1.96501 -0.943113 -4.25885e-21)
(-1.53508 -0.93004 -1.60779e-20)
(-1.10877 -0.908529 0)
(-0.690101 -0.879137 -2.28195e-20)
(-0.282994 -0.843536 -8.24769e-21)
(0.109414 -0.804316 0)
(0.485394 -0.763614 -1.97352e-20)
(0.844734 -0.723144 -2.07645e-20)
(1.18809 -0.68424 3.25138e-20)
(1.51627 -0.647336 0)
(1.83008 -0.612348 1.14478e-20)
(2.13024 -0.578746 1.15749e-20)
(2.41699 -0.545969 3.46242e-20)
(2.69036 -0.514091 0)
(2.95005 -0.482929 0)
(3.1962 -0.452052 0)
(3.42881 -0.42174 1.1005e-20)
(3.64783 -0.392133 0)
(3.85335 -0.363457 0)
(4.04561 -0.335957 -1.04678e-20)
(4.22494 -0.309853 -1.01729e-20)
(4.39178 -0.285337 0)
(4.54661 -0.262569 0)
(4.68997 -0.241653 -1.84656e-20)
(4.82242 -0.22261 0)
(4.94471 -0.205298 1.72104e-20)
(5.05774 -0.189443 1.64794e-20)
(5.16248 -0.174682 0)
(5.25978 -0.160662 0)
(5.35029 -0.147135 -1.48099e-20)
(5.43441 -0.133937 -1.09529e-22)
(5.5124 -0.120951 -1.07581e-22)
(5.58441 -0.108089 0)
(5.65051 -0.0952809 -2.61301e-20)
(5.71075 -0.0824886 0)
(5.76515 -0.0696946 0)
(5.81373 -0.056873 0)
(5.8565 -0.0439984 1.18785e-20)
(5.8935 -0.0310493 0)
(5.92473 -0.0180009 -2.27091e-20)
(5.95022 -0.00478212 -1.13026e-20)
(5.96995 0.00871483 0)
(5.98387 0.02263 -1.10678e-20)
(5.99188 0.0371563 0)
(5.99376 0.0525022 0)
(5.98926 0.0688345 -3.24188e-20)
(5.97817 0.0861402 2.146e-20)
(5.96066 0.10406 0)
(5.93704 0.121888 2.13626e-20)
(5.90731 0.139182 -1.08098e-20)
(5.87 0.155312 0)
(5.8222 0.169296 0)
(5.75892 0.179597 0)
(5.67562 0.18564 -3.15385e-20)
(5.56627 0.188042 0)
(5.42646 0.181842 -1.05104e-20)
(5.26281 0.163844 0)
(5.09008 0.144663 0)
(4.93395 0.135091 0)
(4.81092 0.135538 0)
(4.70458 0.13533 0)
(4.59372 0.129304 0)
(4.47975 0.123109 -1.96594e-20)
(4.36716 0.115339 0)
(4.26159 0.109038 -9.85754e-21)
(4.16496 0.10521 2.92721e-20)
(4.0932 0.100931 0)
(4.02531 0.0854041 0)
(3.97327 0.0897579 -1.94696e-20)
(3.89439 0.0822083 -1.96833e-20)
(3.84534 0.100905 1.96545e-20)
(3.74271 0.0856432 1.98583e-20)
(0.0701641 -0.0986529 -7.2243e-21)
(0.5125 -0.940832 -7.30704e-21)
(1.05874 -1.81981 -5.17756e-21)
(1.51973 -2.38995 -2.98328e-21)
(1.85302 -2.68174 0)
(2.03776 -2.67892 6.38181e-21)
(2.10825 -2.45894 -3.82141e-21)
(2.11949 -2.14949 0)
(2.10284 -1.81401 -3.29176e-21)
(2.09178 -1.48087 0)
(2.08546 -1.17362 8.18404e-21)
(2.08459 -0.890277 0)
(2.07977 -0.629177 3.86431e-21)
(2.06656 -0.392862 7.92151e-21)
(2.03745 -0.186887 -8.06654e-21)
(1.99137 -0.0124363 0)
(1.93016 0.146038 -8.22033e-21)
(1.85405 0.288125 0)
(1.74982 0.446256 0)
(1.61674 0.631936 -8.15986e-21)
(1.48342 0.802272 0)
(1.34602 0.958642 -8.11118e-22)
(1.2081 1.09325 0)
(1.05859 1.2263 0)
(0.884758 1.37987 8.73519e-22)
(0.698827 1.53289 -7.45425e-21)
(0.502874 1.68066 -8.23353e-21)
(0.301324 1.80978 -7.24162e-21)
(0.0935224 1.90375 0)
(-0.123337 1.94957 -1.51132e-20)
(-0.361132 1.92633 0)
(-0.610652 1.82431 -7.8804e-21)
(-0.86831 1.66279 0)
(-1.12114 1.47296 0)
(-1.37633 1.29089 8.01907e-21)
(-1.63887 1.14239 0)
(-1.92636 1.06127 -8.30218e-21)
(-2.21261 1.04494 4.79463e-22)
(-2.49802 1.10312 1.70347e-20)
(-2.7745 1.19665 -1.80414e-20)
(-3.02647 1.27244 0)
(-3.2452 1.27608 0)
(-3.42225 1.24284 -1.01598e-20)
(-3.57547 1.1648 0)
(-3.70713 1.08128 -9.03361e-21)
(-3.83058 1.0102 9.22823e-21)
(-3.92829 0.920387 9.4459e-21)
(-4.00498 0.813753 0)
(-4.06442 0.704383 -9.90418e-21)
(-4.12248 0.596089 -1.00882e-20)
(-4.17685 0.501514 2.21209e-20)
(-4.24673 0.436027 -1.03531e-20)
(-4.33015 0.410676 -1.04338e-20)
(-4.43093 0.408287 0)
(-4.51637 0.405906 0)
(-4.58555 0.403763 1.05624e-20)
(-4.6405 0.395521 0)
(-4.70782 0.371948 0)
(-4.77924 0.329816 -2.11687e-20)
(-4.91007 0.360906 -2.11967e-20)
(-5.09513 0.44604 0)
(-5.25901 0.480153 0)
(-5.37462 0.452663 0)
(-5.4754 0.412945 0)
(-5.5569 0.369508 -2.23384e-20)
(-5.61936 0.33103 2.44037e-20)
(-5.662 0.298961 2.29624e-20)
(-5.68738 0.272326 4.81229e-20)
(-5.69884 0.245862 0)
(-5.69689 0.213594 1.58012e-21)
(-5.68834 0.163292 0)
(-5.67079 0.0920662 -2.3444e-20)
(-5.64376 0.0159649 1.30937e-21)
(-5.60639 -0.0434799 -2.33032e-20)
(-5.55884 -0.0545155 2.32023e-20)
(-5.51297 -0.0243577 1.15373e-21)
(-5.46292 0.0214282 0)
(-5.42635 0.0949184 2.35417e-20)
(-5.42198 0.185323 2.19782e-20)
(-5.46084 0.278752 4.36765e-20)
(-5.53607 0.367937 0)
(-5.65 0.435865 -2.07183e-20)
(-5.79228 0.488604 0)
(-5.97564 0.555044 3.74168e-20)
(-6.17922 0.637034 -1.75318e-20)
(-6.3796 0.710517 1.69338e-20)
(-6.52112 0.725595 -1.64816e-20)
(-6.53947 0.619743 -3.48768e-20)
(-6.49358 0.449083 1.58418e-20)
(-6.44184 0.271685 -1.55977e-20)
(-6.36913 0.095491 0)
(-6.28949 -0.0681049 3.27623e-20)