/*--------------------------------*- C++ -*----------------------------------*\
  =========                 |
  \\      /  F ield         | OpenFOAM: The Open Source CFD Toolbox
   \\    /   O peration     | Website:  https://openfoam.org
    \\  /    A nd           | Version:  9
     \\/     M anipulation  |
\*---------------------------------------------------------------------------*/
FoamFile
{
    format      ascii;
    class       volSymmTensorField;
    location    "0.074";
    object      UPrime2Mean;
}
// * * * * * * * * * * * * * * * * * * * * * * * * * * * * * * * * * * * * * //

dimensions      [0 2 -2 0 0 0 0];

internalField   nonuniform List<symmTensor> 
12225
(
(-48.1803 -0.232374 0 0.00105281 0 0)
(-45.3469 -0.302037 0 -0.0010457 0 0)
(-42.5311 -0.283393 0 -0.00123709 0 0)
(-39.7667 -0.266123 0 -0.00126315 0 0)
(-37.144 -0.252493 0 -0.00127925 0 0)
(-34.703 -0.239189 0 -0.00126173 0 0)
(-32.4322 -0.225904 0 -0.00121072 0 0)
(-30.3168 -0.214474 0 -0.00116484 0 0)
(-28.3262 -0.203702 0 -0.00109019 0 0)
(-26.4571 -0.196083 0 -0.00105509 0 0)
(-24.6693 -0.187952 0 -0.000918232 0 0)
(-22.9792 -0.186395 0 -0.000928497 0 0)
(-21.2955 -0.182829 0 -0.000512158 0 0)
(-19.6883 -0.19439 0 -0.000722473 0 0)
(-17.9121 -0.203237 0 0.00113208 0 0)
(-16.2071 -0.242994 0 -0.000176461 0 0)
(-13.9192 -0.306222 0 0.0111075 0 0)
(-11.588 -0.412734 0 0.00430793 0 0)
(-50.3441 -0.24765 0 0.00175636 0 0)
(-50.9516 -0.367748 0 -0.00129887 0 0)
(-51.341 -0.365283 0 -0.00165895 0 0)
(-51.4726 -0.37237 0 -0.00191227 0 0)
(-51.4279 -0.389175 0 -0.00224781 0 0)
(-51.28 -0.403673 0 -0.00251952 0 0)
(-51.0526 -0.415349 0 -0.0027373 0 0)
(-50.7614 -0.425725 0 -0.00288107 0 0)
(-50.3987 -0.437592 0 -0.00303922 0 0)
(-49.9805 -0.448966 0 -0.00301475 0 0)
(-49.4844 -0.465147 0 -0.0030674 0 0)
(-48.9376 -0.48097 0 -0.0025736 0 0)
(-48.2902 -0.511181 0 -0.00233712 0 0)
(-47.5861 -0.542074 0 -0.000393876 0 0)
(-46.7268 -0.609317 0 0.00113908 0 0)
(-45.778 -0.679862 0 0.00849915 0 0)
(-44.566 -0.833809 0 0.0194502 0 0)
(-43.1354 -1.01322 0 0.0582721 0 0)
(-50.0266 -0.158598 0 0.00304694 0 0)
(-50.355 -0.278023 0 0.000211038 0 0)
(-50.6537 -0.29062 0 -0.000481337 0 0)
(-50.84 -0.30217 0 -0.000779501 0 0)
(-50.9517 -0.324969 0 -0.001119 0 0)
(-51.0381 -0.347264 0 -0.00141557 0 0)
(-51.1183 -0.364952 0 -0.0015991 0 0)
(-51.1936 -0.382081 0 -0.00170353 0 0)
(-51.2591 -0.399629 0 -0.00167664 0 0)
(-51.3082 -0.422028 0 -0.00158357 0 0)
(-51.3366 -0.445944 0 -0.0011322 0 0)
(-51.338 -0.479936 0 -0.000514098 0 0)
(-51.3158 -0.517343 0 0.00129292 0 0)
(-51.2603 -0.577128 0 0.00371093 0 0)
(-51.1916 -0.648544 0 0.0102702 0 0)
(-51.0841 -0.761418 0 0.0208288 0 0)
(-51.0063 -0.90585 0 0.0479096 0 0)
(-50.9023 -1.10082 0 0.101988 0 0)
(-49.8396 -0.140691 0 0.00320204 0 0)
(-50.0908 -0.286129 0 0.000287823 0 0)
(-50.3347 -0.313165 0 -0.000678008 0 0)
(-50.4904 -0.322745 0 -0.000989795 0 0)
(-50.5794 -0.34272 0 -0.00129171 0 0)
(-50.647 -0.364808 0 -0.00154499 0 0)
(-50.7117 -0.383311 0 -0.00167934 0 0)
(-50.7712 -0.399277 0 -0.0016465 0 0)
(-50.8211 -0.416622 0 -0.00147699 0 0)
(-50.858 -0.436792 0 -0.00104572 0 0)
(-50.8837 -0.462688 0 -0.000320951 0 0)
(-50.8973 -0.494571 0 0.00108966 0 0)
(-50.9046 -0.537428 0 0.0035226 0 0)
(-50.9061 -0.593279 0 0.0080708 0 0)
(-50.915 -0.669086 0 0.016555 0 0)
(-50.9443 -0.770295 0 0.0327689 0 0)
(-51.0195 -0.896587 0 0.0644027 0 0)
(-51.1805 -1.04003 0 0.123335 0 0)
(-50.1452 -0.10334 0 0.00410908 0 0)
(-50.3282 -0.232593 0 0.00153709 0 0)
(-50.5163 -0.275041 0 0.000252988 0 0)
(-50.6443 -0.28908 0 -0.000111575 0 0)
(-50.717 -0.307789 0 -0.0003062 0 0)
(-50.7685 -0.330646 0 -0.000453649 0 0)
(-50.8163 -0.351796 0 -0.00047633 0 0)
(-50.8603 -0.371584 0 -0.000319587 0 0)
(-50.8955 -0.392213 0 8.71054e-05 0 0)
(-50.9195 -0.416296 0 0.000829896 0 0)
(-50.9315 -0.44483 0 0.00214069 0 0)
(-50.9344 -0.480132 0 0.0043476 0 0)
(-50.9301 -0.524413 0 0.00814045 0 0)
(-50.9263 -0.58091 0 0.0147143 0 0)
(-50.9289 -0.653046 0 0.0262045 0 0)
(-50.9582 -0.742807 0 0.046853 0 0)
(-51.0224 -0.845656 0 0.0824207 0 0)
(-51.1499 -0.947434 0 0.143909 0 0)
(-49.6899 -0.0912291 0 0.0044321 0 0)
(-49.827 -0.218627 0 0.00171018 0 0)
(-50.0163 -0.272442 0 0.00023073 0 0)
(-50.1872 -0.291229 0 -0.00024886 0 0)
(-50.3122 -0.308693 0 -0.000429635 0 0)
(-50.4058 -0.330897 0 -0.000486922 0 0)
(-50.4852 -0.353442 0 -0.000381187 0 0)
(-50.5557 -0.374777 0 -2.85988e-05 0 0)
(-50.6155 -0.396829 0 0.000651627 0 0)
(-50.6639 -0.421757 0 0.00182122 0 0)
(-50.7015 -0.451307 0 0.00374832 0 0)
(-50.7324 -0.487166 0 0.00690715 0 0)
(-50.7592 -0.530868 0 0.0121057 0 0)
(-50.7894 -0.584821 0 0.0207756 0 0)
(-50.8272 -0.650119 0 0.0351419 0 0)
(-50.886 -0.72652 0 0.0592634 0 0)
(-50.9689 -0.807459 0 0.0980507 0 0)
(-51.0895 -0.882479 0 0.160044 0 0)
(-50.0886 -0.0651703 0 0.0051751 0 0)
(-50.1637 -0.182167 0 0.00285122 0 0)
(-50.2816 -0.241126 0 0.001401 0 0)
(-50.4005 -0.265844 0 0.000902473 0 0)
(-50.4892 -0.2838 0 0.000828951 0 0)
(-50.553 -0.306011 0 0.000931087 0 0)
(-50.6065 -0.33053 0 0.00121652 0 0)
(-50.6562 -0.354752 0 0.00180899 0 0)
(-50.6994 -0.379191 0 0.00286056 0 0)
(-50.7334 -0.405897 0 0.00459282 0 0)
(-50.7574 -0.436798 0 0.00733213 0 0)
(-50.7761 -0.47353 0 0.0116665 0 0)
(-50.7929 -0.517255 0 0.0184865 0 0)
(-50.8155 -0.569455 0 0.0293661 0 0)
(-50.846 -0.629829 0 0.0464595 0 0)
(-50.8948 -0.697161 0 0.0735165 0 0)
(-50.9601 -0.765066 0 0.114569 0 0)
(-51.054 -0.826494 0 0.175993 0 0)
(-50.1591 -0.0776038 0 0.00430795 0 0)
(-50.207 -0.172765 0 0.00220777 0 0)
(-50.294 -0.235227 0 0.000928227 0 0)
(-50.391 -0.263695 0 0.000512465 0 0)
(-50.4722 -0.281168 0 0.000524623 0 0)
(-50.535 -0.301324 0 0.000779585 0 0)
(-50.5865 -0.325421 0 0.00127915 0 0)
(-50.6323 -0.351513 0 0.00212531 0 0)
(-50.6732 -0.378753 0 0.00349621 0 0)
(-50.7082 -0.407875 0 0.00569207 0 0)
(-50.7365 -0.439988 0 0.0091443 0 0)
(-50.7603 -0.476508 0 0.0145411 0 0)
(-50.7816 -0.518321 0 0.0228432 0 0)
(-50.8056 -0.566219 0 0.0356553 0 0)
(-50.8343 -0.61932 0 0.0550045 0 0)
(-50.8747 -0.675975 0 0.084168 0 0)
(-50.9257 -0.730847 0 0.126327 0 0)
(-50.9938 -0.778698 0 0.186246 0 0)
(-50.0103 -0.058102 0 0.00540769 0 0)
(-50.091 -0.145741 0 0.00330017 0 0)
(-50.1949 -0.208421 0 0.00199858 0 0)
(-50.3051 -0.242798 0 0.00152701 0 0)
(-50.3964 -0.263259 0 0.00158531 0 0)
(-50.4606 -0.28363 0 0.00199412 0 0)
(-50.5066 -0.307936 0 0.0027413 0 0)
(-50.5471 -0.334652 0 0.00395665 0 0)
(-50.5881 -0.362545 0 0.00586261 0 0)
(-50.6291 -0.392015 0 0.00879799 0 0)
(-50.6674 -0.424229 0 0.0132144 0 0)
(-50.7024 -0.460554 0 0.0198237 0 0)
(-50.735 -0.50147 0 0.0295949 0 0)
(-50.7692 -0.546936 0 0.0440858 0 0)
(-50.8068 -0.595407 0 0.0651514 0 0)
(-50.8525 -0.644896 0 0.0956071 0 0)
(-50.9046 -0.690981 0 0.137878 0 0)
(-50.966 -0.729335 0 0.195611 0 0)
(-50.0537 -0.0491322 0 0.00576929 0 0)
(-50.0951 -0.13501 0 0.00374967 0 0)
(-50.157 -0.194474 0 0.00228556 0 0)
(-50.2327 -0.231588 0 0.00182975 0 0)
(-50.3087 -0.256276 0 0.00193859 0 0)
(-50.3728 -0.278608 0 0.0024692 0 0)
(-50.4234 -0.302986 0 0.00344353 0 0)
(-50.4673 -0.329332 0 0.00500678 0 0)
(-50.5101 -0.357014 0 0.00739121 0 0)
(-50.552 -0.386479 0 0.010948 0 0)
(-50.5913 -0.418583 0 0.0161535 0 0)
(-50.6273 -0.453969 0 0.0237569 0 0)
(-50.6614 -0.492652 0 0.0347118 0 0)
(-50.6956 -0.534064 0 0.0504754 0 0)
(-50.7327 -0.576789 0 0.0726214 0 0)
(-50.7743 -0.618697 0 0.103523 0 0)
(-50.8203 -0.65653 0 0.144877 0 0)
(-50.869 -0.686883 0 0.199518 0 0)
(-50.1208 -0.0508597 0 0.00645062 0 0)
(-50.1739 -0.122195 0 0.00474712 0 0)
(-50.2396 -0.178656 0 0.00348812 0 0)
(-50.3114 -0.21515 0 0.00305797 0 0)
(-50.3798 -0.239894 0 0.00321279 0 0)
(-50.4401 -0.261682 0 0.00393606 0 0)
(-50.4917 -0.285222 0 0.00523057 0 0)
(-50.5373 -0.311444 0 0.00719572 0 0)
(-50.5792 -0.339361 0 0.0100835 0 0)
(-50.6187 -0.368666 0 0.0143079 0 0)
(-50.6566 -0.400106 0 0.0203683 0 0)
(-50.6947 -0.43442 0 0.0289838 0 0)
(-50.734 -0.471613 0 0.0410166 0 0)
(-50.7767 -0.510851 0 0.0577711 0 0)
(-50.8213 -0.55038 0 0.0805315 0 0)
(-50.8697 -0.588308 0 0.111251 0 0)
(-50.917 -0.62176 0 0.151037 0 0)
(-50.9659 -0.648696 0 0.202064 0 0)
(-49.7838 -0.0372753 0 0.00627269 0 0)
(-49.8167 -0.110737 0 0.00426368 0 0)
(-49.8704 -0.164437 0 0.00293165 0 0)
(-49.9514 -0.20066 0 0.00262769 0 0)
(-50.042 -0.226643 0 0.00301472 0 0)
(-50.1247 -0.249037 0 0.00401443 0 0)
(-50.1937 -0.272577 0 0.00564988 0 0)
(-50.2529 -0.298984 0 0.00803592 0 0)
(-50.307 -0.32754 0 0.0114266 0 0)
(-50.3592 -0.357208 0 0.0162637 0 0)
(-50.4098 -0.387745 0 0.0230802 0 0)
(-50.4596 -0.419562 0 0.0325921 0 0)
(-50.508 -0.452768 0 0.0455716 0 0)
(-50.5564 -0.487119 0 0.0631431 0 0)
(-50.6034 -0.521334 0 0.0862718 0 0)
(-50.6511 -0.554178 0 0.116501 0 0)
(-50.694 -0.583134 0 0.154458 0 0)
(-50.7359 -0.606916 0 0.201898 0 0)
(-50.054 -0.0315977 0 0.00740522 0 0)
(-50.0569 -0.0997984 0 0.00618513 0 0)
(-50.0882 -0.145727 0 0.00458787 0 0)
(-50.1475 -0.178349 0 0.00427964 0 0)
(-50.2132 -0.204883 0 0.00481394 0 0)
(-50.2709 -0.229894 0 0.00596954 0 0)
(-50.3202 -0.255913 0 0.00773206 0 0)
(-50.3659 -0.283245 0 0.0103133 0 0)
(-50.4113 -0.311231 0 0.0140594 0 0)
(-50.4568 -0.339708 0 0.0194063 0 0)
(-50.5012 -0.369153 0 0.0268034 0 0)
(-50.5434 -0.400216 0 0.0368628 0 0)
(-50.5836 -0.432786 0 0.0502274 0 0)
(-50.6217 -0.466126 0 0.0678759 0 0)
(-50.6591 -0.498592 0 0.0905754 0 0)
(-50.6952 -0.528733 0 0.119654 0 0)
(-50.7306 -0.554544 0 0.15535 0 0)
(-50.7616 -0.575393 0 0.19913 0 0)
(-49.9584 -0.0603428 0 0.00809219 0 0)
(-49.9661 -0.0979832 0 0.00678784 0 0)
(-49.9986 -0.141071 0 0.00548192 0 0)
(-50.0595 -0.175794 0 0.00513666 0 0)
(-50.1309 -0.200861 0 0.00564729 0 0)
(-50.2004 -0.222345 0 0.00697527 0 0)
(-50.2649 -0.24465 0 0.00910419 0 0)
(-50.3256 -0.269389 0 0.0121549 0 0)
(-50.384 -0.296432 0 0.0163713 0 0)
(-50.4403 -0.325181 0 0.0221217 0 0)
(-50.494 -0.354975 0 0.0298339 0 0)
(-50.5454 -0.385474 0 0.040101 0 0)
(-50.594 -0.416052 0 0.0534938 0 0)
(-50.641 -0.446171 0 0.0708436 0 0)
(-50.6852 -0.47464 0 0.0926569 0 0)
(-50.7277 -0.500984 0 0.119936 0 0)
(-50.7646 -0.523718 0 0.152587 0 0)
(-50.7974 -0.542981 0 0.19176 0 0)
(-49.9403 -0.0248886 0 0.00934654 0 0)
(-49.9752 -0.0747714 0 0.00878125 0 0)
(-50.0075 -0.113532 0 0.00737282 0 0)
(-50.0478 -0.14196 0 0.00705079 0 0)
(-50.0966 -0.16589 0 0.00786026 0 0)
(-50.1466 -0.190181 0 0.00951674 0 0)
(-50.1937 -0.21596 0 0.0118808 0 0)
(-50.2388 -0.242216 0 0.0151463 0 0)
(-50.2837 -0.268224 0 0.0196554 0 0)
(-50.3288 -0.29439 0 0.0257915 0 0)
(-50.3745 -0.321354 0 0.0338923 0 0)
(-50.4192 -0.349514 0 0.0443959 0 0)
(-50.4635 -0.378385 0 0.0576749 0 0)
(-50.5047 -0.407186 0 0.074372 0 0)
(-50.5445 -0.434628 0 0.094711 0 0)
(-50.5782 -0.460057 0 0.119519 0 0)
(-50.6105 -0.482532 0 0.148346 0 0)
(-50.6315 -0.502232 0 0.182216 0 0)
(-50.3757 -0.0196264 0 0.0106509 0 0)
(-50.4023 -0.0789833 0 0.00884824 0 0)
(-50.4335 -0.109332 0 0.00661158 0 0)
(-50.4774 -0.130644 0 0.00630058 0 0)
(-50.5293 -0.152456 0 0.00723465 0 0)
(-50.585 -0.175271 0 0.00898499 0 0)
(-50.6413 -0.198522 0 0.0114756 0 0)
(-50.6963 -0.222336 0 0.0148819 0 0)
(-50.7497 -0.24724 0 0.0194582 0 0)
(-50.8012 -0.27362 0 0.025499 0 0)
(-50.8514 -0.30125 0 0.0332671 0 0)
(-50.9004 -0.329558 0 0.0431277 0 0)
(-50.9487 -0.357591 0 0.055349 0 0)
(-50.9954 -0.384808 0 0.070385 0 0)
(-51.0406 -0.410466 0 0.0882711 0 0)
(-51.0816 -0.434725 0 0.109548 0 0)
(-51.1195 -0.456967 0 0.133664 0 0)
(-51.1501 -0.478009 0 0.161427 0 0)
(-49.9146 -0.0295151 0 0.0105644 0 0)
(-49.8912 -0.0577213 0 0.00900792 0 0)
(-49.8914 -0.0832309 0 0.00639726 0 0)
(-49.9284 -0.107275 0 0.00622033 0 0)
(-49.9815 -0.130545 0 0.00745384 0 0)
(-50.0338 -0.15204 0 0.00952462 0 0)
(-50.0812 -0.172115 0 0.0123439 0 0)
(-50.1264 -0.19234 0 0.0160365 0 0)
(-50.1721 -0.213677 0 0.0208031 0 0)
(-50.221 -0.236227 0 0.0268969 0 0)
(-50.2732 -0.259488 0 0.0345161 0 0)
(-50.3293 -0.283293 0 0.043898 0 0)
(-50.3857 -0.30727 0 0.0551185 0 0)
(-50.4429 -0.331532 0 0.0684341 0 0)
(-50.4953 -0.355473 0 0.0837054 0 0)
(-50.5475 -0.379425 0 0.10132 0 0)
(-50.5903 -0.402307 0 0.120693 0 0)
(-50.6349 -0.425193 0 0.142528 0 0)
(-49.7128 -0.0642467 0 0.0109912 0 0)
(-49.7255 -0.0514332 0 0.0104305 0 0)
(-49.7532 -0.05395 0 0.00852072 0 0)
(-49.8024 -0.069129 0 0.00819317 0 0)
(-49.8584 -0.0895601 0 0.00878287 0 0)
(-49.9136 -0.111102 0 0.0101583 0 0)
(-49.9673 -0.132148 0 0.0123589 0 0)
(-50.0204 -0.151863 0 0.0154675 0 0)
(-50.0737 -0.170026 0 0.0195838 0 0)
(-50.1275 -0.187656 0 0.0248238 0 0)
(-50.1827 -0.205877 0 0.0312505 0 0)
(-50.2388 -0.225689 0 0.0389464 0 0)
(-50.2958 -0.246891 0 0.0478797 0 0)
(-50.3521 -0.269447 0 0.058191 0 0)
(-50.4076 -0.292289 0 0.0697119 0 0)
(-50.46 -0.315862 0 0.0827249 0 0)
(-50.5104 -0.338944 0 0.0967118 0 0)
(-50.5549 -0.363177 0 0.112134 0 0)
(-49.9911 -0.0198108 0 0.0110731 0 0)
(-50.0424 -0.0186723 0 0.0106191 0 0)
(-50.0988 -0.028177 0 0.0085867 0 0)
(-50.156 -0.042892 0 0.00801543 0 0)
(-50.2086 -0.0589386 0 0.00855343 0 0)
(-50.2632 -0.0749947 0 0.00994972 0 0)
(-50.3231 -0.0906678 0 0.0120552 0 0)
(-50.386 -0.105997 0 0.0148211 0 0)
(-50.4496 -0.120986 0 0.0182831 0 0)
(-50.5135 -0.13574 0 0.0225309 0 0)
(-50.5786 -0.150187 0 0.0276253 0 0)
(-50.6449 -0.164762 0 0.03363 0 0)
(-50.7128 -0.179839 0 0.0404923 0 0)
(-50.7808 -0.196519 0 0.0482317 0 0)
(-50.8493 -0.21493 0 0.0566091 0 0)
(-50.9148 -0.236014 0 0.0657134 0 0)
(-50.9796 -0.258621 0 0.0751196 0 0)
(-51.0381 -0.28394 0 0.0851388 0 0)
(-50.0588 -0.000903166 0 0.0133125 0 0)
(-50.0978 0.00841195 0 0.0123129 0 0)
(-50.1393 0.00681849 0 0.00950191 0 0)
(-50.1917 -6.4853e-05 0 0.0083917 0 0)
(-50.2567 -0.00884404 0 0.00855017 0 0)
(-50.3301 -0.0194211 0 0.00947421 0 0)
(-50.4065 -0.0312637 0 0.0109394 0 0)
(-50.4822 -0.0433829 0 0.0128753 0 0)
(-50.556 -0.055004 0 0.0152888 0 0)
(-50.6272 -0.0659658 0 0.0182319 0 0)
(-50.6955 -0.0764961 0 0.021738 0 0)
(-50.7609 -0.0876196 0 0.0258343 0 0)
(-50.8242 -0.100138 0 0.0304646 0 0)
(-50.8858 -0.115247 0 0.0355923 0 0)
(-50.947 -0.132865 0 0.0410025 0 0)
(-51.0078 -0.153672 0 0.0467255 0 0)
(-51.0695 -0.176225 0 0.0524841 0 0)
(-51.1308 -0.201614 0 0.0584346 0 0)
(-50.3292 0.0218659 0 0.0111242 0 0)
(-50.3682 0.023024 0 0.0103116 0 0)
(-50.4155 0.03106 0 0.00790277 0 0)
(-50.4733 0.0351181 0 0.00705898 0 0)
(-50.5374 0.0329155 0 0.00716525 0 0)
(-50.6035 0.0265716 0 0.00788824 0 0)
(-50.6701 0.0183648 0 0.00902617 0 0)
(-50.7383 0.00873753 0 0.0104576 0 0)
(-50.8081 -0.0024147 0 0.012149 0 0)
(-50.8782 -0.0148113 0 0.0141495 0 0)
(-50.947 -0.0275214 0 0.0165197 0 0)
(-51.0136 -0.0400414 0 0.0193023 0 0)
(-51.0787 -0.0521148 0 0.0224682 0 0)
(-51.1432 -0.0644905 0 0.0260034 0 0)
(-51.2079 -0.0774488 0 0.0297882 0 0)
(-51.2732 -0.0921648 0 0.0338589 0 0)
(-51.3398 -0.10803 0 0.0380149 0 0)
(-51.4075 -0.126322 0 0.0423234 0 0)
(-49.9519 0.0434847 0 0.0118868 0 0)
(-49.9717 0.0516375 0 0.0103775 0 0)
(-50.0162 0.0555629 0 0.00753172 0 0)
(-50.0894 0.059409 0 0.00632158 0 0)
(-50.1767 0.0600488 0 0.00607468 0 0)
(-50.2663 0.056362 0 0.00641275 0 0)
(-50.3526 0.0500391 0 0.0071142 0 0)
(-50.436 0.0426405 0 0.00807337 0 0)
(-50.5177 0.0345835 0 0.0092648 0 0)
(-50.5986 0.0256648 0 0.0106969 0 0)
(-50.6785 0.0160747 0 0.0123812 0 0)
(-50.7582 0.00590749 0 0.0143293 0 0)
(-50.8379 -0.0045764 0 0.0165191 0 0)
(-50.9183 -0.0159293 0 0.0189339 0 0)
(-50.9984 -0.0282585 0 0.0214749 0 0)
(-51.079 -0.0425064 0 0.0241689 0 0)
(-51.1578 -0.0579552 0 0.026873 0 0)
(-51.2375 -0.0755695 0 0.0296146 0 0)
(-49.8289 0.0100068 0 0.00926814 0 0)
(-49.8743 0.0618712 0 0.00799264 0 0)
(-49.9348 0.0896796 0 0.00582005 0 0)
(-50.0043 0.101027 0 0.0049584 0 0)
(-50.0814 0.10415 0 0.00493268 0 0)
(-50.1611 0.104257 0 0.0053022 0 0)
(-50.2381 0.102619 0 0.00583816 0 0)
(-50.3118 0.0986133 0 0.00645508 0 0)
(-50.3848 0.0920447 0 0.00716081 0 0)
(-50.4592 0.0837764 0 0.00801693 0 0)
(-50.5359 0.075439 0 0.00908754 0 0)
(-50.6146 0.0679516 0 0.0103972 0 0)
(-50.6952 0.0614031 0 0.01191 0 0)
(-50.7774 0.0545259 0 0.0135969 0 0)
(-50.8614 0.0464764 0 0.0153776 0 0)
(-50.9471 0.0360507 0 0.0172543 0 0)
(-51.035 0.0238936 0 0.0191153 0 0)
(-51.1251 0.00944412 0 0.0209848 0 0)
(-49.9853 0.0687366 0 0.00822245 0 0)
(-50.0386 0.0792271 0 0.0057342 0 0)
(-50.108 0.102311 0 0.00366383 0 0)
(-50.1918 0.116646 0 0.00297041 0 0)
(-50.2794 0.120556 0 0.00294851 0 0)
(-50.3621 0.119168 0 0.00319591 0 0)
(-50.4388 0.115546 0 0.00352046 0 0)
(-50.5139 0.110494 0 0.00388426 0 0)
(-50.5914 0.10466 0 0.00434009 0 0)
(-50.6721 0.0988316 0 0.00494218 0 0)
(-50.7546 0.093617 0 0.00569856 0 0)
(-50.8375 0.0888593 0 0.00659744 0 0)
(-50.9203 0.0842148 0 0.00761849 0 0)
(-51.0034 0.0789666 0 0.00874887 0 0)
(-51.087 0.0730296 0 0.00994946 0 0)
(-51.1723 0.0657364 0 0.011234 0 0)
(-51.2589 0.0576597 0 0.0125415 0 0)
(-51.3479 0.0478894 0 0.013873 0 0)
(-49.7467 0.0447712 0 0.00765631 0 0)
(-49.749 0.109804 0 0.00554003 0 0)
(-49.8053 0.14879 0 0.00358784 0 0)
(-49.8937 0.16416 0 0.00273877 0 0)
(-49.9834 0.168662 0 0.00248469 0 0)
(-50.0644 0.171057 0 0.00255172 0 0)
(-50.1413 0.172671 0 0.00276421 0 0)
(-50.2209 0.171997 0 0.00302267 0 0)
(-50.3062 0.168689 0 0.0033085 0 0)
(-50.3963 0.163992 0 0.00365772 0 0)
(-50.4897 0.159433 0 0.00410781 0 0)
(-50.5853 0.155721 0 0.00466715 0 0)
(-50.6825 0.152878 0 0.00531909 0 0)
(-50.7802 0.15013 0 0.00605315 0 0)
(-50.8779 0.14686 0 0.00683713 0 0)
(-50.9741 0.142186 0 0.00769136 0 0)
(-51.0695 0.136324 0 0.00856327 0 0)
(-51.1629 0.128638 0 0.00943073 0 0)
(-50.1077 0.0377298 0 0.0074743 0 0)
(-50.2283 0.115823 0 0.00555497 0 0)
(-50.3619 0.140575 0 0.00373043 0 0)
(-50.4798 0.144682 0 0.00297174 0 0)
(-50.5728 0.148512 0 0.0027212 0 0)
(-50.6493 0.154565 0 0.00266976 0 0)
(-50.7217 0.158962 0 0.00267971 0 0)
(-50.7997 0.160029 0 0.00272438 0 0)
(-50.8867 0.159206 0 0.00283158 0 0)
(-50.9811 0.158545 0 0.00301851 0 0)
(-51.0793 0.158805 0 0.00327553 0 0)
(-51.1773 0.159401 0 0.00358952 0 0)
(-51.2729 0.159425 0 0.0039585 0 0)
(-51.365 0.158002 0 0.00438392 0 0)
(-51.4541 0.155059 0 0.00483719 0 0)
(-51.5409 0.150535 0 0.00533174 0 0)
(-51.6277 0.14514 0 0.00583876 0 0)
(-51.7152 0.138779 0 0.00633748 0 0)
(-49.9865 0.104847 0 0.0056014 0 0)
(-50.1251 0.195746 0 0.003113 0 0)
(-50.2664 0.219694 0 0.00168876 0 0)
(-50.3775 0.219196 0 0.00122768 0 0)
(-50.4599 0.220561 0 0.00103468 0 0)
(-50.5373 0.226419 0 0.00093225 0 0)
(-50.6252 0.231673 0 0.000886509 0 0)
(-50.7241 0.234108 0 0.000891123 0 0)
(-50.8279 0.234489 0 0.000942897 0 0)
(-50.9305 0.233901 0 0.00103834 0 0)
(-51.0293 0.232757 0 0.00117435 0 0)
(-51.1239 0.230991 0 0.00134965 0 0)
(-51.2152 0.228638 0 0.00156126 0 0)
(-51.3044 0.225829 0 0.0018065 0 0)
(-51.3928 0.222957 0 0.00207333 0 0)
(-51.4806 0.220004 0 0.00237795 0 0)
(-51.5688 0.217233 0 0.00270054 0 0)
(-51.6568 0.214156 0 0.00303193 0 0)
(-50.0536 0.0700921 0 0.00482982 0 0)
(-50.2386 0.143816 0 0.00242447 0 0)
(-50.4417 0.16125 0 0.00134345 0 0)
(-50.5976 0.163774 0 0.000968127 0 0)
(-50.7117 0.174009 0 0.000768205 0 0)
(-50.8148 0.188438 0 0.000600421 0 0)
(-50.9213 0.199566 0 0.000490662 0 0)
(-51.0308 0.205567 0 0.000447418 0 0)
(-51.1398 0.208373 0 0.000441592 0 0)
(-51.247 0.210186 0 0.000459654 0 0)
(-51.3535 0.211914 0 0.000501329 0 0)
(-51.4599 0.2136 0 0.000565467 0 0)
(-51.5671 0.214705 0 0.000652743 0 0)
(-51.6739 0.215039 0 0.000760048 0 0)
(-51.7808 0.214311 0 0.00088082 0 0)
(-51.8847 0.212862 0 0.00102201 0 0)
(-51.9878 0.210747 0 0.00117647 0 0)
(-52.0856 0.208528 0 0.00133442 0 0)
(-50.2482 0.21045 0 0.00268072 0 0)
(-50.622 0.299093 0 8.65111e-05 0 0)
(-50.9437 0.286167 0 -0.000406537 0 0)
(-51.1625 0.279958 0 -0.000544698 0 0)
(-51.3067 0.285896 0 -0.000698139 0 0)
(-51.4096 0.292167 0 -0.000816835 0 0)
(-51.4841 0.295366 0 -0.000886838 0 0)
(-51.5332 0.296526 0 -0.000919792 0 0)
(-51.5577 0.296832 0 -0.000928016 0 0)
(-51.5612 0.296975 0 -0.000920601 0 0)
(-51.5473 0.296975 0 -0.000899666 0 0)
(-51.5225 0.29687 0 -0.000866552 0 0)
(-51.4892 0.296277 0 -0.000817245 0 0)
(-51.4531 0.295349 0 -0.000754705 0 0)
(-51.4104 0.293641 0 -0.00067907 0 0)
(-51.368 0.291607 0 -0.000592021 0 0)
(-51.3158 0.288911 0 -0.000496294 0 0)
(-51.269 0.286427 0 -0.000409206 0 0)
(-49.1197 0.11066 0 0.00236121 0 0)
(-47.5547 0.207544 0 0.000323085 0 0)
(-45.9591 0.200977 0 4.55237e-05 0 0)
(-44.3504 0.195644 0 -7.18375e-05 0 0)
(-42.7934 0.196333 0 -0.000200489 0 0)
(-41.319 0.195773 0 -0.000289582 0 0)
(-39.9313 0.192386 0 -0.000329558 0 0)
(-38.6284 0.186826 0 -0.000337834 0 0)
(-37.4072 0.180127 0 -0.000335511 0 0)
(-36.2645 0.173558 0 -0.00032918 0 0)
(-35.1924 0.167994 0 -0.000319152 0 0)
(-34.1855 0.163629 0 -0.00031127 0 0)
(-33.2347 0.159823 0 -0.000303853 0 0)
(-32.3419 0.155969 0 -0.000291456 0 0)
(-31.4973 0.151443 0 -0.000270691 0 0)
(-30.7122 0.146514 0 -0.00024388 0 0)
(-29.9666 0.141236 0 -0.000219077 0 0)
(-29.2857 0.136604 0 -0.000205742 0 0)
(-0.0167627 0.041669 -2.33118e-22 -0.0907395 4.62263e-22 4.13879e-39)
(-0.0725297 0.0132564 5.69776e-22 0.0149358 -2.52087e-22 4.07275e-39)
(0.0344753 -0.102259 0 0.0443444 0 0)
(0.357098 -0.192964 0 0.0131496 0 0)
(0.74203 -0.152884 0 -0.0647864 0 0)
(0.959289 0.000706559 -6.4471e-22 -0.122441 -3.53503e-22 3.83035e-39)
(0.857095 0.202314 0 -0.134395 0 0)
(0.420791 0.35875 0 -0.102427 0 0)
(-0.237317 0.428018 0 -0.0490177 0 0)
(-0.95443 0.404936 0 0.0059984 0 0)
(-1.57314 0.313845 -1.15639e-21 0.0459783 4.74354e-22 3.52014e-39)
(-2.00788 0.211579 0 0.0618984 0 0)
(-2.24324 0.126194 0 0.0650262 0 0)
(-2.28433 0.0235517 0 0.0698946 0 0)
(-2.16462 -0.109246 0 0.074338 0 0)
(-1.87463 -0.277943 -2.87068e-21 0.0779518 2.30275e-22 3.23903e-39)
(-1.35062 -0.255779 0 0.0623954 0 0)
(-0.963685 -0.015964 0 0.0544569 0 0)
(-0.722509 0.0980943 0 0.0704778 0 0)
(-0.604686 0.116169 0 0.090658 0 0)
(-0.424641 0.0974959 0 0.111774 0 0)
(-0.0283809 0.0742728 0 0.135055 0 0)
(0.655763 -0.00403983 0 0.145913 0 0)
(1.50946 -0.201932 -3.86169e-21 0.129446 -1.41933e-23 2.85159e-39)
(2.69956 -0.446254 3.79194e-21 0.136174 1.1676e-22 2.80704e-39)
(4.00521 -0.449849 -3.68011e-21 0.155801 -1.82879e-22 2.76307e-39)
(5.29396 -0.352047 -3.56294e-21 0.208896 -2.26189e-22 2.71956e-39)
(6.6172 -0.217158 0 0.263176 0 0)
(7.77222 -0.0940842 0 0.237555 0 0)
(8.84687 -0.210032 3.32049e-21 0.260471 1.12027e-22 2.58721e-39)
(9.93241 -0.34693 3.34866e-21 0.256921 1.41992e-22 2.54205e-39)
(11.0521 -0.420135 0 0.241963 0 0)
(12.2181 -0.444604 0 0.233384 0 0)
(13.3231 -0.421515 3.73981e-21 0.243844 9.67763e-23 2.40994e-39)
(14.2978 -0.391865 0 0.271173 0 0)
(15.1941 -0.3812 0 0.317039 0 0)
(16.1027 -0.437187 -4.34381e-21 0.389883 -1.08222e-23 2.28324e-39)
(17.1556 -0.559221 0 0.425855 0 0)
(18.3813 -0.680681 -4.91547e-21 0.402396 -7.4781e-24 2.20258e-39)
(19.5837 -0.687912 -1.031e-20 0.331536 8.36713e-24 8.65129e-39)
(20.4655 -0.526725 0 0.279841 0 0)
(20.8564 -0.327075 0 0.276064 0 0)
(20.778 -0.240015 0 0.308781 0 0)
(20.6228 -0.514067 0 0.307806 0 0)
(21.1854 -0.767738 0 0.351342 0 0)
(22.0682 -0.794704 -1.15967e-20 0.393132 7.8669e-22 7.74497e-39)
(23.1382 -1.08649 -1.19583e-20 0.390236 7.45599e-22 7.59832e-39)
(24.134 -1.14239 -1.20502e-20 0.467358 7.09235e-22 7.4533e-39)
(25.1405 -0.609155 0 0.266958 0 0)
(25.5929 -0.448754 1.21962e-20 0.346492 -2.56557e-23 7.1674e-39)
(26.3888 -0.481484 0 0.27808 0 0)
(27.175 -0.437622 -1.2342e-20 0.26638 9.37432e-23 6.89269e-39)
(27.846 -0.335083 -1.2551e-20 0.244616 3.02993e-23 6.76028e-39)
(28.2677 -0.272285 0 0.214837 0 0)
(28.6098 -0.202034 0 0.187031 0 0)
(28.5002 -0.338916 0 0.205515 0 0)
(28.1336 -0.114843 -1.33579e-20 0.194462 -7.56277e-24 6.2603e-39)
(27.1911 -0.0335885 0 0.278763 0 0)
(26.8277 -0.292998 0 0.222606 0 0)
(26.9331 -0.456911 0 0.197489 0 0)
(27.9964 -0.623796 0 0.169215 0 0)
(28.79 -1.26016 0 0.208835 0 0)
(29.5679 -0.810483 0 0.146425 0 0)
(28.4543 0.0203103 0 0.280642 0 0)
(27.4798 -0.0889021 0 0.275879 0 0)
(27.0328 -0.213225 1.2629e-20 0.273654 4.37039e-22 5.24521e-39)
(26.7628 -0.348115 0 0.264163 0 0)
(26.6743 -0.41052 0 0.257575 0 0)
(26.5688 -0.432748 -1.07497e-20 0.249129 1.33344e-22 4.92887e-39)
(26.4579 -0.423927 -1.03142e-20 0.239534 9.22449e-23 4.82743e-39)
(26.3932 -0.417063 0 0.22867 0 0)
(26.4308 -0.402785 9.84117e-21 0.217963 -2.52935e-22 4.63033e-39)
(26.7104 -0.428838 -9.87725e-21 0.212178 3.93287e-22 4.53403e-39)
(27.256 -0.460314 0 0.207799 0 0)
(27.7879 -0.427051 9.99017e-21 0.196809 -5.87256e-22 4.34308e-39)
(28.1114 -0.321182 0 0.177843 0 0)
(28.0935 -0.179952 0 0.156524 0 0)
(27.5487 -0.000287866 -8.45756e-21 0.139947 1.37048e-22 4.07211e-39)
(26.2734 0.221449 0 0.1342 0 0)
(24.0869 0.457852 7.26962e-21 0.139866 7.17527e-24 3.90344e-39)
(21.0577 0.62887 0 0.149353 0 0)
(17.3888 0.622034 -5.85216e-21 0.149649 -2.13238e-22 3.74353e-39)
(13.9445 0.514711 -5.15972e-21 0.154337 -1.45493e-22 3.66605e-39)
(10.3384 0.301733 -4.47457e-21 0.166529 -1.4729e-23 3.58981e-39)
(7.81473 -0.172627 -8.45519e-21 0.17039 6.21844e-22 1.40574e-38)
(4.93162 -0.482615 7.7005e-21 0.227181 -1.01468e-21 1.37587e-38)
(2.06629 -0.512708 0 0.241977 0 0)
(-2.79726 0.329271 0 0.322185 0 0)
(-9.70605 1.86313 0 0.271563 0 0)
(-17.0802 1.71365 -2.86363e-21 0.312816 1.80449e-21 1.25793e-38)
(-20.9294 0.930718 -5.99637e-21 0.225633 7.85464e-22 1.22932e-38)
(-22.5544 0.371581 7.08031e-21 0.170747 2.56205e-23 1.20168e-38)
(-22.4786 -0.0538228 0 0.125912 0 0)
(-21.1385 -0.354152 -3.13364e-21 0.0952796 -1.09924e-21 1.14951e-38)
(-18.8619 -0.568977 1.13449e-21 0.0720375 -1.3765e-21 1.12479e-38)
(-15.8983 -0.715412 6.33718e-21 0.0544251 -1.52732e-21 1.10081e-38)
(-12.4541 -0.808896 0 0.0400855 0 0)
(-8.7049 -0.85814 0 0.0282219 0 0)
(-4.80519 -0.870199 0 0.0181047 0 0)
(-0.893654 -0.850557 2.87761e-20 0.00948536 -1.29015e-21 1.00973e-38)
(2.90664 -0.805971 0 0.00220359 0 0)
(6.48669 -0.738328 0 -0.0038055 0 0)
(9.76006 -0.653967 -3.93172e-20 -0.0085413 6.42102e-22 9.43973e-39)
(12.6539 -0.557358 0 -0.0120393 0 0)
(15.121 -0.453686 0 -0.0143893 0 0)
(17.1298 -0.347116 -4.03391e-20 -0.0157126 -3.30187e-23 8.79729e-39)
(18.6653 -0.241821 0 -0.0161499 0 0)
(19.7302 -0.141329 0 -0.015858 0 0)
(20.3421 -0.0486302 3.31488e-20 -0.0150098 4.88884e-22 8.17803e-39)
(20.5336 0.0342371 2.96131e-20 -0.0137524 5.7557e-22 7.97846e-39)
(20.3488 0.105643 0 -0.0122218 0 0)
(19.8387 0.164746 -2.19127e-20 -0.0105312 -6.5596e-22 7.59158e-39)
(19.0549 0.211853 0 -0.008745 0 0)
(18.049 0.247684 1.43986e-20 -0.00698908 6.38598e-22 7.22141e-39)
(16.8656 0.273392 0 -0.00538928 0 0)
(15.5438 0.291523 7.85259e-21 -0.00377659 5.68104e-22 6.86477e-39)
(14.12 0.302931 5.05572e-21 -0.00224155 5.22418e-22 6.6919e-39)
(12.6261 0.308275 0 -0.000813449 0 0)
(11.0919 0.307977 0 0.000476277 0 0)
(9.54547 0.302322 0 0.00159898 0 0)
(8.01261 0.291817 0 0.00251944 0 0)
(6.51668 0.277133 0 0.00321621 0 0)
(5.07896 0.259871 0 0.00380318 0 0)
(3.71833 0.240997 0 0.00419236 0 0)
(2.44285 0.221034 -6.221e-21 0.00444774 1.87353e-22 5.42896e-39)
(1.26211 0.199506 6.62079e-21 0.00456431 -1.64358e-22 5.28218e-39)
(0.178523 0.178205 0 0.00457192 0 0)
(-0.806997 0.157814 0 0.00449379 0 0)
(-1.69681 0.138648 0 0.00435215 0 0)
(-2.49614 0.121081 0 0.00416825 0 0)
(-3.2132 0.105553 1.49917e-20 0.00395457 -2.06928e-22 1.8383e-38)
(-3.85861 0.0923206 0 0.00372525 0 0)
(-4.44341 0.0812637 -1.53353e-20 0.00350311 1.84775e-22 1.73675e-38)
(-4.97803 0.0720792 1.55001e-20 0.00330889 -1.73393e-22 1.68763e-38)
(-5.47127 0.0644278 0 0.00315805 0 0)
(-5.93028 0.0579491 0 0.00306364 0 0)
(-6.36017 0.0522887 0 0.00303369 0 0)
(-6.76445 0.0471228 -1.60667e-20 0.00306934 1.10328e-22 1.50159e-38)
(-7.14492 0.0421709 -1.61493e-20 0.00316931 8.8756e-23 1.45756e-38)
(-7.50176 0.0372032 0 0.00332969 0 0)
(-7.83387 0.0320095 -1.62118e-20 0.00354552 4.87914e-23 1.37233e-38)
(-8.1385 0.0264377 -1.61877e-20 0.00381172 2.60342e-23 1.33108e-38)
(-8.41199 0.0203656 1.61221e-20 0.00412438 -2.21711e-24 1.29073e-38)
(-8.64962 0.0136938 0 0.00448034 0 0)
(-8.84583 0.00631936 0 0.00487813 0 0)
(-8.99426 -0.00187873 1.56999e-20 0.00531925 6.31801e-23 1.17484e-38)
(-9.08844 -0.0108699 0 0.00581316 0 0)
(-9.1217 -0.0205323 0 0.0063779 0 0)
(-9.08744 -0.0307053 0 0.00703501 0 0)
(-8.97937 -0.0410338 0 0.00780765 0 0)
(-8.79219 -0.0510725 -1.43482e-20 0.00872246 -1.85656e-22 9.97979e-39)
(-8.5206 -0.0604743 -1.39259e-20 0.00982127 -2.06463e-22 9.64934e-39)
(-8.15974 -0.0688456 0 0.0111858 0 0)
(-7.70382 -0.076029 -1.28517e-20 0.0130038 -2.65975e-22 9.01073e-39)
(-7.14304 -0.0814333 0 0.0156498 0 0)
(-6.4673 -0.0820744 0 0.0194851 0 0)
(-5.67428 -0.073984 -1.01807e-20 0.024604 -3.02056e-22 8.10842e-39)
(-4.77004 -0.054353 0 0.030422 0 0)
(-3.77943 -0.0195263 -7.70534e-21 0.0357133 -1.81317e-22 7.54331e-39)
(-2.78348 0.0261534 0 0.0384564 0 0)
(-1.89185 0.0621867 0 0.0365526 0 0)
(-1.19898 0.0608556 -4.59371e-21 0.0312896 5.41014e-23 6.74518e-39)
(-0.732154 0.0161276 0 0.0272225 0 0)
(-0.32177 -0.0654974 -3.45702e-21 0.0258116 -2.21651e-22 6.2434e-39)
(0.202358 -0.106699 0 0.0238238 0 0)
(0.792679 -0.0990556 0 0.019576 0 0)
(1.40449 -0.0729511 0 0.0168356 0 0)
(1.99531 -0.0280047 2.80828e-22 0.0165301 8.26118e-23 5.3139e-39)
(2.45773 0.0111337 0 0.0180285 0 0)
(2.75246 0.0330906 1.05342e-21 0.0191224 -2.17554e-23 4.88463e-39)
(2.90057 0.0386359 0 0.0186926 0 0)
(2.95711 0.0218734 0 0.0170663 0 0)
(3.02003 0.00292902 0 0.0165274 0 0)
(3.11174 -0.00659985 0 0.016719 0 0)
(3.22235 -0.00945012 0 0.0138721 0 0)
(3.34879 0.00303304 0 0.00776503 0 0)
(3.4024 0.0145588 0 0.00694803 0 0)
(3.37422 -0.00352392 -7.77906e-21 0.00211618 2.42211e-23 1.35421e-38)
(3.28692 0.0256128 0 0.000565654 0 0)
(3.01456 0.0870737 0 0.00358883 0 0)
(0.00628572 -0.00992226 3.7877e-23 -0.193558 -3.22437e-21 3.72448e-38)
(0.0322699 -0.116529 -2.53611e-23 0.243648 2.61257e-21 3.67144e-38)
(0.132091 -0.277722 0 0.582864 0 0)
(0.182796 -0.25502 -1.53948e-22 0.476558 -3.22331e-22 1.58033e-38)
(0.0654676 0.11202 0 -0.0998702 0 0)
(-0.337859 0.683924 -4.69186e-22 -0.644301 7.43677e-22 3.8092e-39)
(-0.936549 1.1694 1.70486e-21 -0.835978 -2.29589e-21 1.49739e-38)