/*--------------------------------*- C++ -*----------------------------------*\
  =========                 |
  \\      /  F ield         | OpenFOAM: The Open Source CFD Toolbox
   \\    /   O peration     | Website:  https://openfoam.org
    \\  /    A nd           | Version:  9
     \\/     M anipulation  |
\*---------------------------------------------------------------------------*/
FoamFile
{
    format      ascii;
    class       volScalarField;
    location    "0.13";
    object      nut;
}
// * * * * * * * * * * * * * * * * * * * * * * * * * * * * * * * * * * * * * //

dimensions      [0 2 -1 0 0 0 0];

internalField   nonuniform List<scalar> 
12225
(
8.99099e-06
7.55134e-06
6.46626e-06
5.68136e-06
5.15885e-06
4.86937e-06
4.78767e-06
4.88973e-06
5.1521e-06
5.55278e-06
6.0726e-06
6.69699e-06
7.41787e-06
8.23591e-06
9.16334e-06
1.02269e-05
1.14829e-05
1.34311e-05
6.73431e-05
4.76246e-05
4.02608e-05
3.6801e-05
3.50997e-05
3.42939e-05
3.39291e-05
3.37615e-05
3.36718e-05
3.36086e-05
3.35548e-05
3.35102e-05
3.34844e-05
3.34932e-05
3.35588e-05
3.37053e-05
3.39745e-05
3.44489e-05
0.000145915
0.00011076
9.12752e-05
7.83132e-05
6.85594e-05
6.06673e-05
5.40234e-05
4.83555e-05
4.3542e-05
3.95043e-05
3.61627e-05
3.34323e-05
3.12328e-05
2.94998e-05
2.81911e-05
2.72903e-05
2.6809e-05
2.67976e-05
0.000188733
0.000163055
0.00014285
0.000126966
0.00011392
0.000102737
9.28018e-05
8.37534e-05
7.54105e-05
6.76953e-05
6.0575e-05
5.40282e-05
4.80344e-05
4.25788e-05
3.76642e-05
3.33219e-05
2.96142e-05
2.66402e-05
0.000204905
0.000192097
0.000178654
0.000165984
0.000154351
0.000143663
0.000133724
0.000124335
0.00011534
0.00010663
9.81271e-05
8.97733e-05
8.15163e-05
7.3313e-05
6.51425e-05
5.70346e-05
4.91049e-05
4.16355e-05
0.000210132
0.000204661
0.000197636
0.000189886
0.000181907
0.000173955
0.000166126
0.000158421
0.000150796
0.000143188
0.000135528
0.000127734
0.000119714
0.000111361
0.000102554
9.3179e-05
8.31661e-05
7.26688e-05
0.000211672
0.000209295
0.000205974
0.000201901
0.000197293
0.00019233
0.000187136
0.000181779
0.000176283
0.000170639
0.000164813
0.000158749
0.000152369
0.000145565
0.000138197
0.000130093
0.000121059
0.000111062
0.000212094
0.000210814
0.000209145
0.000207066
0.000204606
0.000201815
0.000198748
0.000195448
0.00019194
0.000188232
0.000184313
0.000180155
0.000175707
0.000170896
0.000165617
0.000159729
0.000153058
0.000145538
0.000212202
0.000211264
0.000210215
0.000209011
0.000207631
0.000206067
0.000204325
0.000202412
0.000200334
0.000198094
0.000195686
0.000193094
0.00019029
0.00018723
0.000183851
0.000180062
0.000175748
0.000170871
0.000212227
0.000211386
0.000210539
0.000209662
0.000208736
0.000207745
0.00020668
0.000205533
0.0002043
0.000202977
0.000201557
0.000200031
0.000198381
0.000196586
0.000194608
0.000192398
0.000189891
0.00018707
0.000212232
0.000211416
0.000210628
0.000209859
0.000209097
0.000208335
0.000207563
0.000206774
0.000205963
0.000205125
0.000204255
0.000203346
0.00020239
0.000201376
0.000200285
0.000199092
0.000197764
0.000196295
0.000212233
0.000211423
0.00021065
0.00020991
0.000209198
0.00020851
0.00020784
0.000207186
0.000206543
0.000205908
0.00020528
0.000204655
0.000204029
0.000203399
0.000202754
0.000202084
0.000201372
0.000200614
0.000212233
0.000211425
0.000210656
0.000209926
0.000209231
0.000208569
0.000207939
0.000207339
0.000206767
0.000206223
0.000205708
0.000205221
0.000204762
0.00020433
0.000203923
0.000203537
0.000203167
0.000202809
0.000212233
0.000211425
0.000210658
0.000209931
0.000209242
0.000208589
0.000207973
0.000207392
0.000206847
0.000206339
0.000205869
0.000205439
0.00020505
0.000204705
0.000204403
0.000204146
0.000203932
0.00020376
0.000212233
0.000211425
0.000210659
0.000209933
0.000209246
0.000208597
0.000207985
0.00020741
0.000206873
0.000206375
0.000205917
0.000205502
0.000205132
0.000204809
0.000204535
0.000204311
0.000204139
0.000204018
0.000212233
0.000211425
0.00021066
0.000209935
0.000209249
0.000208601
0.00020799
0.000207418
0.000206882
0.000206386
0.000205929
0.000205514
0.000205142
0.000204815
0.000204535
0.000204302
0.000204119
0.000203986
0.000212233
0.000211425
0.000210659
0.000209935
0.00020925
0.000208604
0.000207995
0.000207423
0.000206889
0.000206392
0.000205934
0.000205515
0.000205136
0.000204799
0.000204503
0.00020425
0.000204041
0.000203877
0.000212232
0.000211424
0.000210658
0.000209935
0.000209251
0.000208606
0.000207999
0.000207429
0.000206896
0.000206399
0.00020594
0.000205518
0.000205132
0.000204784
0.000204474
0.000204201
0.000203966
0.00020377
0.000212231
0.000211422
0.000210656
0.000209933
0.000209251
0.000208607
0.000208002
0.000207434
0.000206903
0.000206408
0.000205948
0.000205524
0.000205134
0.000204778
0.000204456
0.000204167
0.000203911
0.000203691
0.00021223
0.00021142
0.000210654
0.000209932
0.00020925
0.000208609
0.000208006
0.00020744
0.000206911
0.000206417
0.000205958
0.000205533
0.00020514
0.00020478
0.000204451
0.000204152
0.000203883
0.000203647
0.000212229
0.000211419
0.000210653
0.000209931
0.000209251
0.000208611
0.00020801
0.000207445
0.000206917
0.000206423
0.000205963
0.000205536
0.000205139
0.000204774
0.000204437
0.000204129
0.000203848
0.000203599
0.000212229
0.000211418
0.000210652
0.00020993
0.000209248
0.000208605
0.000207999
0.000207427
0.000206889
0.000206382
0.000205907
0.000205461
0.000205044
0.000204654
0.000204291
0.000203953
0.000203641
0.000203359
0.000212227
0.000211413
0.000210639
0.0002099
0.000209192
0.00020851
0.000207852
0.000207217
0.000206603
0.000206011
0.000205439
0.000204889
0.000204362
0.000203856
0.000203374
0.000202915
0.000202479
0.000202075
0.000212216
0.000211363
0.000210508
0.000209637
0.000208742
0.000207825
0.000206888
0.000205937
0.000204981
0.000204026
0.00020308
0.00020215
0.000201242
0.00020036
0.000199507
0.000198687
0.000197901
0.000197161
0.000212115
0.000210963
0.000209591
0.000208006
0.000206247
0.000204368
0.000202416
0.000200432
0.000198452
0.000196503
0.000194605
0.00019277
0.000191008
0.000189324
0.000187719
0.000186195
0.00018475
0.000183399
0.000211346
0.000208482
0.000204796
0.000200634
0.000196268
0.000191898
0.00018766
0.000183629
0.000179843
0.00017629
0.000172966
0.000169865
0.000166975
0.000164278
0.000161759
0.000159405
0.000157204
0.00015516
0.000206583
0.000196753
0.000186471
0.000176841
0.000168171
0.000160495
0.000153729
0.000147748
0.000142434
0.000137699
0.000133461
0.000129645
0.000126174
0.000122975
0.000120021
0.000117287
0.000114754
0.000112415
0.000183085
0.000157361
0.000139155
0.00012593
0.000115872
0.000107957
0.000101538
9.61915e-05
9.16389e-05
8.76983e-05
8.42445e-05
8.11883e-05
7.84685e-05
7.60441e-05
7.38725e-05
7.19185e-05
7.0152e-05
6.85385e-05
0.000105417
7.88495e-05
6.69708e-05
6.03729e-05
5.63125e-05
5.37294e-05
5.2078e-05
5.10269e-05
5.03628e-05
4.99451e-05
4.96787e-05
4.94989e-05
4.93622e-05
4.92407e-05
4.91173e-05
4.89819e-05
4.88298e-05
4.86549e-05
1.67227e-05
1.50201e-05
1.36118e-05
1.24485e-05
1.14957e-05
1.07256e-05
1.01148e-05
9.64285e-06
9.29117e-06
9.04256e-06
8.88113e-06
8.79236e-06
8.76303e-06
8.78133e-06
8.83683e-06
8.92052e-06
9.0248e-06
9.14282e-06
1.39254e-05
1.63883e-05
1.87379e-05
2.10472e-05
2.2306e-05
2.26089e-05
2.27008e-05
2.2721e-05
2.27239e-05
2.27375e-05
2.27767e-05
2.28502e-05
2.29563e-05
2.30195e-05
2.29959e-05
2.28334e-05
2.24598e-05
2.17656e-05
2.05728e-05
1.85519e-05
1.46902e-05
1.13636e-05
5.06353e-05
1.14918e-05
1.32911e-05
1.5109e-05
1.62604e-05
1.64129e-05
1.61742e-05
1.58921e-05
1.53977e-05
1.51362e-05
1.47643e-05
1.4024e-05
1.36166e-05
1.73347e-05
2.23772e-05
2.58434e-05
2.85626e-05
3.06904e-05
3.234e-05
3.36002e-05
3.45409e-05
3.52179e-05
3.56763e-05
3.59528e-05
3.60778e-05
3.60762e-05
3.59692e-05
3.57745e-05
3.5507e-05
3.51791e-05
3.48007e-05
3.43756e-05
3.39278e-05
3.34755e-05
3.3019e-05
3.25585e-05
3.20944e-05
3.16274e-05
3.11576e-05
3.06853e-05
3.02105e-05
2.97327e-05
2.92513e-05
2.87651e-05
2.82725e-05
2.77713e-05
2.72588e-05
2.67315e-05
2.61853e-05
2.56161e-05
2.50194e-05
2.43915e-05
2.37295e-05
2.30321e-05
2.22999e-05
2.15356e-05
2.07438e-05
1.99311e-05
1.91049e-05
1.82711e-05
1.74312e-05
1.65574e-05
1.60409e-05
1.5827e-05
1.56633e-05
1.55246e-05
1.54061e-05
1.53063e-05
1.5224e-05
1.51584e-05
1.51082e-05
1.50722e-05
1.5049e-05
1.50372e-05
1.50352e-05
1.50416e-05
1.50545e-05
1.50719e-05
1.50921e-05
1.51145e-05
1.51385e-05
1.51476e-05
1.51213e-05
1.50284e-05
1.4841e-05
1.45399e-05
1.41263e-05
1.36351e-05
1.31352e-05
1.27082e-05
1.24133e-05
1.22651e-05
1.22378e-05
1.22906e-05
1.24058e-05
1.25272e-05
1.26342e-05
1.27332e-05
1.2846e-05
1.29924e-05
1.31803e-05
1.33981e-05
1.36166e-05
1.379e-05
1.39409e-05
1.39324e-05
1.35201e-05
1.30025e-05
1.52169e-05
1.84595e-05
2.08405e-05
2.26032e-05
2.38746e-05
2.47653e-05
2.53619e-05
2.57308e-05
2.59277e-05
2.60062e-05
2.60311e-05
2.59767e-05
2.58565e-05
2.56783e-05
2.54456e-05
2.51584e-05
2.48113e-05
2.4392e-05
2.38733e-05
2.31698e-05
2.19095e-05
2.16984e-05
2.19137e-05
2.21008e-05
2.22608e-05
2.24191e-05
2.25978e-05
2.28089e-05
2.30596e-05
2.33777e-05
2.38363e-05
2.42879e-05
2.44071e-05
2.3859e-05
2.22687e-05
1.9644e-05
1.72421e-05
1.62808e-05
1.59239e-05
1.50219e-05
1.34629e-05
1.17344e-05
4.8559e-05
4.65323e-05
4.26948e-05
4.17837e-05
4.23152e-05
4.36284e-05
4.57146e-05
4.71305e-05
1.24905e-05
2.03828e-05
2.83818e-05
3.15559e-05
3.3193e-05
3.45685e-05
3.56502e-05
3.62849e-05
3.64806e-05
3.6339e-05
3.5959e-05
3.54054e-05
3.44067e-05
3.27649e-05
3.08487e-05
2.90651e-05
2.76959e-05
2.6824e-05
2.63182e-05
2.58041e-05
2.47762e-05
2.36842e-05
2.33941e-05
2.4716e-05
2.96858e-05
3.44918e-05
3.66584e-05
3.65606e-05
3.86413e-05
4.06754e-05
4.00259e-05
3.7335e-05
3.5532e-05
3.4144e-05
3.33796e-05
3.32277e-05
3.31936e-05
3.31013e-05
3.31102e-05
3.33341e-05
3.38728e-05
3.48169e-05
3.62522e-05
3.82623e-05
4.09267e-05
4.43125e-05
4.84586e-05
5.33499e-05
5.8885e-05
6.48434e-05
7.08709e-05
7.65136e-05
8.1319e-05
8.48249e-05
8.80305e-05
9.12415e-05
9.44737e-05
9.77385e-05
0.000101048
0.000104415
0.000107849
0.00011136
0.000114952
0.000118623
0.000122363
0.000126153
0.000129962
0.000133743
0.000137438
0.000140973
0.000144265
0.000147222
0.000149754
0.000151779
0.000153231
0.000154065
0.000154264
0.000153836
0.000152807
0.000151209
0.000149064
0.000146353
0.000142956
0.000138568
0.000133747
0.00012902
0.000124355
0.000119772
0.00011529
0.000110921
0.00010667
0.000102543
9.85405e-05
9.46624e-05
9.09072e-05
8.7273e-05
8.37573e-05
8.03575e-05
7.70706e-05
7.38924e-05
7.08144e-05
6.78115e-05
6.47432e-05
6.07731e-05
5.54405e-05
5.01046e-05
4.57452e-05
4.26649e-05
4.09312e-05
4.04734e-05
4.11411e-05
4.27152e-05
4.49047e-05
4.73575e-05
4.96849e-05
5.1461e-05
5.23868e-05
5.24022e-05
5.15375e-05
4.99886e-05
4.81556e-05
4.63252e-05
4.43736e-05
4.19316e-05
3.896e-05
3.62358e-05
3.47706e-05
3.51085e-05
3.6161e-05
3.81488e-05
4.21377e-05
4.83205e-05
5.6497e-05
6.66685e-05
7.85734e-05
9.17349e-05
0.000105479
0.000118917
0.000130986
0.000140533
0.000148856
0.000156971
0.00016489
0.000172556
0.000179843
0.000186539
0.000192329
0.000196759
0.000199199
0.00019866
0.000193696
0.00018615
0.000177129
0.000166923
0.000155945
0.000144589
0.000133182
0.000121931
0.000110922
0.000100184
8.87462e-05
7.11599e-05
5.6714e-05
4.96428e-05
4.86844e-05
5.22512e-05
5.93831e-05
6.71247e-05
6.99271e-05
6.52594e-05
5.66001e-05
4.95047e-05
4.84835e-05
5.1214e-05
5.2196e-05
5.23217e-05
5.26372e-05
5.35407e-05
5.54045e-05
5.842e-05
2.19661e-05
2.7696e-05
2.99601e-05
3.07221e-05
3.24496e-05
3.49038e-05
3.72965e-05
3.91436e-05
4.03356e-05
4.09506e-05
4.11026e-05
4.08743e-05
4.02257e-05
3.8928e-05
3.69069e-05
3.43627e-05
3.17639e-05
2.96121e-05
2.82021e-05
2.75232e-05
2.73656e-05
2.79132e-05
2.98613e-05
3.44258e-05
4.08344e-05
4.70068e-05
5.26831e-05
5.24814e-05
4.80411e-05
4.46405e-05
4.16372e-05
3.88268e-05
3.684e-05
3.56981e-05
3.53591e-05
3.57627e-05
3.6891e-05
3.88605e-05
4.18758e-05
4.61417e-05
5.18309e-05
5.90255e-05
6.76473e-05
7.7402e-05
8.77794e-05
9.81323e-05
0.000107819
0.00011635
0.000123469
0.00012915
0.000133535
0.000136847
0.00013931
0.000141313
0.000143185
0.000144978
0.000146724
0.000148461
0.000150229
0.000152071
0.000154032
0.000156152
0.00015847
0.000161014
0.000163805
0.000166847
0.000170126
0.000173611
0.000177246
0.000180953
0.000184632
0.000188168
0.000191438
0.000194319
0.000196701
0.000198497
0.00019965
0.000200131
0.000199941
0.000199099
0.000197633
0.000195568
0.000192899
0.000189554
0.000185959
0.000182325
0.000178679
0.000175048
0.000171453
0.000167907
0.000164418
0.000160987
0.000157614
0.000154297
0.000151032
0.000147813
0.000144635
0.000141491
0.000138375
0.000135279
0.000132185
0.000129059
0.000125813
0.000122212
0.000117986
0.000112776
0.00010638
9.97809e-05
9.37815e-05
8.88109e-05
8.49838e-05
8.21672e-05
8.00878e-05
7.84383e-05
7.69695e-05
7.55443e-05
7.41532e-05
7.28526e-05
7.1654e-05
7.03984e-05
6.85787e-05
6.58059e-05
6.18259e-05
5.68751e-05
5.25114e-05
5.03212e-05
5.06044e-05
5.20681e-05
5.56983e-05
6.41257e-05
7.90582e-05
0.000100017
0.000124918
0.00015085
0.000175304
0.000196843
0.000214967
0.000229719
0.000241389
0.000250339
0.000257981
0.000264873
0.000271117
0.000276744
0.000281705
0.000285843
0.000288884
0.000290418
0.000289925
0.000286735
0.000280694
0.000272605
0.000262734
0.000251513
0.000239446
0.000226999
0.000214547
0.000202346
0.000190515
0.000178998
0.000167025
0.00015186
0.000128173
0.000101793
8.11484e-05
6.90448e-05
6.55089e-05
6.9384e-05
7.7417e-05
8.41481e-05
8.49261e-05
7.99776e-05
7.38205e-05
6.96008e-05
6.70609e-05
6.53429e-05
6.38753e-05
6.27588e-05
6.27152e-05
6.43829e-05
4.39017e-05
2.47203e-05
2.62576e-05
3.09886e-05
3.74048e-05
4.33542e-05
4.75647e-05
4.99103e-05
5.0833e-05
5.08643e-05
5.04132e-05
4.96956e-05
4.85968e-05
4.65587e-05
4.36463e-05
4.00425e-05
3.61969e-05
3.27736e-05
3.04124e-05
2.95402e-05
3.04333e-05
3.38357e-05
4.12632e-05
5.25255e-05
6.19568e-05
6.34322e-05
5.67961e-05
5.03217e-05
4.5247e-05
4.16752e-05
3.92483e-05
3.79489e-05
3.79037e-05
3.90878e-05
4.15382e-05
4.53835e-05
5.08385e-05
5.81253e-05
6.73467e-05
7.83341e-05
9.05566e-05
0.000103163
0.000115187
0.000125826
0.00013463
0.000141529
0.000146722
0.000150531
0.000153288
0.000155264
0.00015666
0.000157608
0.000158178
0.000158459
0.000158502
0.000158336
0.000157997
0.000157538
0.000157024
0.000156532
0.000156147
0.000155961
0.000156065
0.000156543
0.000157473
0.000158912
0.000160897
0.000163434
0.000166495
0.000170018
0.000173903
0.000178019
0.000182212
0.000186318
0.000190176
0.000193643
0.000196606
0.000198987
0.000200742
0.000201856
0.000202337
0.000202197
0.000201436
0.000200011
0.000198284
0.000196421
0.000194475
0.000192483
0.00019047
0.000188453
0.000186442
0.000184444
0.000182462
0.000180495
0.000178542
0.000176599
0.000174662
0.000172726
0.000170783
0.000168826
0.00016684
0.000164806
0.000162677
0.000160378
0.000157794
0.000154785
0.00015123
0.00014699
0.0001423
0.000137648
0.000133306
0.000129349
0.000125678
0.000122057
0.000118216
0.000113957
0.000109246
0.000104217
9.90298e-05
9.35998e-05
8.73925e-05
7.98267e-05
7.16778e-05
6.52024e-05
6.19738e-05
6.1615e-05
6.26114e-05
6.58767e-05
7.61369e-05
9.64219e-05
0.000126218
0.000161355
0.000196354
0.000227254
0.000252519
0.000272272
0.000287308
0.000298503
0.000306588
0.000312126
0.000316186
0.000319207
0.000321406
0.000322946
0.00032391
0.00032427
0.000323869
0.000322389
0.000319392
0.000314389
0.000307656
0.000299145
0.00028908
0.000277891
0.000266088
0.000254159
0.000242499
0.000231388
0.000220991
0.000211322
0.000202113
0.000192363
0.000179339
0.000158769
0.000133001
0.000107585
8.81384e-05
7.79931e-05
7.74962e-05
8.40095e-05
9.23975e-05
9.72352e-05
9.64823e-05
9.22291e-05
8.72753e-05
8.2764e-05
7.87378e-05
7.51555e-05
7.24156e-05
7.16846e-05
1.2326e-05
1.74916e-05
2.68598e-05
4.00845e-05
5.15446e-05
5.81536e-05
6.03745e-05
5.98829e-05
5.81783e-05
5.62545e-05
5.46221e-05
5.33533e-05
5.20708e-05
5.00338e-05
4.7029e-05
4.30881e-05
3.86796e-05
3.4683e-05
3.21403e-05
3.21094e-05
3.57904e-05
4.42824e-05
5.58707e-05
6.5095e-05
6.50582e-05
5.78908e-05
5.03604e-05
4.50455e-05
4.17489e-05
4.0217e-05
4.02538e-05
4.18843e-05
4.52055e-05
5.03058e-05
5.73301e-05
6.64158e-05
7.75467e-05
9.03679e-05
0.000104112
0.000117722
0.000130159
0.000140709
0.000149112
0.000155502
0.000160223
0.000163675
0.000166209
0.000168084
0.000169473
0.000170474
0.000171138
0.000171481
0.000171395
0.000170825
0.000169754
0.00016819
0.000166163
0.000163732
0.000160981
0.000158021
0.000154986
0.000152024
0.000149299
0.000146973
0.000145205
0.000144138
0.000143889
0.000144535
0.000146107
0.000148581
0.000151879
0.000155868
0.000160375
0.000165193
0.000170105
0.000174901
0.000179395
0.000183444
0.000186948
0.000189849
0.000192124
0.000193762
0.000194718
0.000194993
0.000194957
0.000194718
0.000194336
0.00019385
0.000193288
0.00019267
0.000192011
0.000191323
0.000190613
0.000189885
0.000189143
0.000188389
0.000187621
0.000186838
0.000186038
0.000185214
0.00018436
0.000183459
0.000182487
0.000181406
0.000180163
0.000178685
0.0001769
0.000174749
0.000172233
0.000169357
0.000166259
0.000163033
0.000159657
0.000155965
0.000151682
0.000146494
0.000140116
0.000132355
0.000123137
0.000112439
0.000100405
8.80989e-05
7.7931e-05
7.20241e-05
7.02167e-05
7.03965e-05
7.16326e-05
7.92276e-05
9.9266e-05
0.000132341
0.000173826
0.000216129
0.000253352
0.000283164
0.000305745
0.00032223
0.000333823
0.000341486
0.000345921
0.000347637
0.000347582
0.00034621
0.000343858
0.000340843
0.000337408
0.000333666
0.000329631
0.000325064
0.000319613
0.000313262
0.000305677
0.000296749
0.000286647
0.000275748
0.000264526
0.000253451
0.00024291
0.000233181
0.000224428
0.000216709
0.000209947
0.000203756
0.000196982
0.000186839
0.000170737
0.000148786
0.000123799
0.000101204
8.69276e-05
8.34537e-05
8.86563e-05
9.75207e-05
0.000104604
0.000107003
0.000105226
0.000101066
9.57595e-05
8.98377e-05
8.41266e-05
8.06629e-05
1.43303e-05
1.99748e-05
3.90864e-05
5.83715e-05
6.79261e-05
6.93585e-05
6.65291e-05
6.22279e-05
5.80764e-05
5.49081e-05
5.3052e-05
5.22578e-05
5.16493e-05
5.02766e-05
4.76219e-05
4.36865e-05
3.91144e-05
3.53307e-05
3.43491e-05
3.75058e-05
4.51087e-05
5.50801e-05
6.26622e-05
6.30225e-05
5.6787e-05
4.98263e-05
4.49959e-05
4.25623e-05
4.2212e-05
4.38162e-05
4.73633e-05
5.2964e-05
6.07333e-05
7.07066e-05
8.27699e-05
9.65186e-05
0.000111174
0.000125683
0.000139017
0.000150468
0.000159785
0.000167106
0.000172785
0.000177231
0.000180801
0.00018376
0.000186278
0.000188446
0.000190296
0.00019182
0.000192985
0.000193746
0.000193778
0.000193021
0.000191428
0.000188975
0.000185672
0.000181566
0.000176742
0.000171331
0.000165502
0.000159461
0.000153446
0.00014771
0.000142512
0.000138097
0.000134684
0.000132446
0.000131497
0.000131878
0.000133556
0.000136424
0.000140311
0.000144992
0.000150208
0.000155679
0.00016114
0.000166359
0.00017116
0.000175425
0.000179083
0.00018209
0.00018428
0.000185925
0.00018724
0.000188304
0.000189172
0.00018988
0.000190459
0.000190932
0.000191317
0.000191629
0.000191882
0.000192086
0.000192251
0.000192383
0.00019249
0.000192573
0.000192636
0.000192678
0.000192694
0.000192675
0.000192606
0.00019246
0.000192201
0.000191782
0.000191148
0.00019025
0.000189052
0.000187532
0.000185684
0.000183484
0.000180852
0.000177626
0.000173516
0.000168084
0.000160795
0.000151097
0.00013865
0.000123664
0.000107436
9.26866e-05
8.24573e-05
7.77981e-05
7.68719e-05
7.69866e-05
7.94048e-05
9.27733e-05
0.000123387
0.000166854
0.000214945
0.000259203
0.000295369
0.00032288
0.000342861
0.000356708
0.000365565
0.000370271
0.000371437
0.000369528
0.000365508
0.000359869
0.000353062
0.000345563
0.00033782
0.000330033
0.000322483
0.000314901
0.000307535
0.00029979
0.000291337
0.000282029
0.000271957
0.000261419
0.000250832
0.000240626
0.000231162
0.000222693
0.000215365
0.000209233
0.000204268
0.000200296
0.00019681
0.000192587
0.000185221
0.000172748
0.000154125
0.000130418
0.000107016
9.1397e-05
8.67352e-05
9.08718e-05
9.91089e-05
0.000106665
0.000110655
0.000110556
0.000107181
0.000101608
9.49977e-05
8.92669e-05
1.51515e-05
2.60704e-05
5.6301e-05
7.35217e-05
7.66205e-05
7.26587e-05
6.62132e-05
5.98826e-05
5.48439e-05
5.15077e-05
5.00607e-05
4.97875e-05
4.88587e-05
4.7015e-05
4.41361e-05
4.07002e-05
3.77751e-05
3.68177e-05
3.9113e-05
4.48411e-05
5.24421e-05
5.84216e-05
5.90332e-05
5.45237e-05
4.88949e-05
4.51113e-05
4.38172e-05
4.48534e-05
4.80892e-05
5.3558e-05
6.13424e-05
7.14958e-05
8.39009e-05
9.81595e-05
0.000113552
0.000129104
0.000143808
0.000156897
0.000168016
0.000177205
0.000184755
0.00019105
0.000196452
0.000201242
0.000205609
0.00020966
0.000213433
0.000216914
0.000220048
0.000222752
0.00022492
0.000226433
0.00022689
0.000226279
0.000224526
0.000221577
0.000217407
0.000212028
0.000205496
0.000197916
0.000189448
0.000180316
0.000170806
0.000161264
0.000152073
0.000143628
0.000136292
0.000130366
0.000126063
0.000123496
0.000122676
0.000123531
0.000125914
0.000129616
0.000134366
0.000139843
0.000145703
0.000151614
0.000157312
0.00016259
0.000167308
0.000171249
0.000174479
0.000177265
0.000179698
0.000181836
0.000183725
0.000185398
0.000186881
0.0001882
0.000189373
0.000190422
0.000191362
0.000192212
0.000192988
0.000193704
0.000194373
0.000195007
0.000195613
0.000196198
0.000196763
0.000197304
0.000197811
0.000198266
0.00019864
0.000198896
0.000198989
0.000198872
0.000198498
0.000197823
0.000196798
0.00019535
0.000193352
0.000190586
0.000186695
0.000181131
0.00017315
0.000161973
0.000147184
0.000129424
0.00011106
9.57626e-05
8.63737e-05
8.28043e-05
8.22423e-05
8.24831e-05
8.71353e-05
0.000106173
0.000144417
0.000195381
0.000246789
0.000290867
0.000325513
0.000351173
0.000369376
0.000381457
0.000388365
0.000390761
0.000389163
0.000384107
0.000376565
0.000367109
0.000356271
0.00034465
0.000333027
0.000321516
0.00031084
0.000301026
0.000291762
0.000282687
0.000273468
0.000263889
0.000253939
0.000243816
0.000233863
0.000224459
0.000215928
0.000208496
0.000202277
0.000197298
0.000193525
0.00019085
0.000189025
0.000187504
0.000185109
0.000179852
0.00016983
0.00015322
0.000130571
0.000107851
9.27431e-05
8.77626e-05
9.0504e-05
9.68691e-05
0.00010305
0.000106589
0.000106648
0.000103638
9.8878e-05
9.41025e-05
1.52809e-05
3.56792e-05
6.98249e-05
8.08855e-05
7.91672e-05
7.21922e-05
6.42385e-05
5.75523e-05
5.26958e-05
4.95041e-05
4.74997e-05
4.58527e-05
4.44797e-05
4.27845e-05
4.08898e-05
3.93998e-05
3.91834e-05
4.10216e-05
4.5064e-05
5.02653e-05
5.42974e-05
5.48257e-05
5.18812e-05
4.79108e-05
4.53747e-05
4.53031e-05
4.77302e-05
5.25469e-05
5.97665e-05
6.94516e-05
8.15584e-05
9.58091e-05
0.000111598
0.000128037
0.000144136
0.000159049
0.000172265
0.000183654
0.000193385
0.00020178
0.000209192
0.000215925
0.000222205
0.00022818
0.000233923
0.000239447
0.000244715
0.000249648
0.000254135
0.000258045
0.000261234
0.000263322
0.000264227
0.000263871
0.000262159
0.000259016
0.000254399
0.000248296
0.000240731
0.000231763
0.000221491
0.000210068
0.000197717
0.000184765
0.000171656
0.000158941
0.000147212
0.00013701
0.000128744
0.000122637
0.000118733
0.000116963
0.000117198
0.000119259
0.0001229
0.000127795
0.000133551
0.000139725
0.000145986
0.000151994
0.000157386
0.0001621
0.000166325
0.00017013
0.000173565
0.000176671
0.000179478
0.000182011
0.000184292
0.00018634
0.000188176
0.000189819
0.000191292
0.000192617
0.000193815
0.000194909
0.000195921
0.000196868
0.000197768
0.000198633
0.000199473
0.000200291
0.000201084
0.000201839
0.000202537
0.000203148
0.000203634
0.000203949
0.000204043
0.000203862
0.000203334
0.000202356
0.000200763
0.000198283
0.000194488
0.000188727
0.000180133
0.00016784
0.000151532
0.000132326
0.000113307
9.84422e-05
9.0055e-05
8.72277e-05
8.68371e-05
8.7634e-05
9.4898e-05
0.000118545
0.000161524
0.000215258
0.000267554
0.000311713
0.000346089
0.00037078
0.000388093
0.000399242
0.000404965
0.000405725
0.000401933
0.00039424
0.000383712
0.000371013
0.000356747
0.000341434
0.000326498
0.000312232
0.000299044
0.000287034
0.000276075
0.000265883
0.000256107
0.000246446
0.000236772
0.000227167
0.000217885
0.000209249
0.000201551
0.000194987
0.000189645
0.000185521
0.00018255
0.000180623
0.000179578
0.000179146
0.000178854
0.000177577
0.000173635
0.000164865
0.00014912
0.000127428
0.000106307
9.24421e-05
8.71349e-05
8.79118e-05
9.14616e-05
9.49873e-05
9.67533e-05
9.6239e-05
9.40723e-05
9.17725e-05
1.50238e-05
4.54127e-05
7.66011e-05
8.34259e-05
7.91698e-05
7.11903e-05
6.32837e-05
5.69586e-05
5.22845e-05
4.88506e-05
4.63175e-05
4.44468e-05
4.29955e-05
4.18732e-05
4.1275e-05
4.15699e-05
4.30834e-05
4.57725e-05
4.89122e-05
5.11601e-05
5.13658e-05
4.95952e-05
4.72136e-05
4.59615e-05
4.70043e-05
5.06593e-05
5.68496e-05
6.553e-05
7.6703e-05
9.0249e-05
0.00010577
0.000122548
0.000139649
0.00015615
0.000171359
0.000184929
0.000196843
0.000207306
0.000216627
0.000225124
0.00023307
0.000240668
0.000248051
0.000255281
0.00026236
0.000269237
0.000275816
0.00028197
0.000287541
0.000292364
0.000296265
0.000298812
0.000300037
0.000299842
0.000298121
0.000294791
0.000289803
0.000283153
0.000274874
0.000265036
0.000253726
0.000241037
0.000227081
0.000212025
0.000196167
0.000180012
0.000164274
0.000149789
0.000137324
0.00012738
0.000120096
0.000115392
0.000113123
0.000113136
0.00011523
0.000119098
0.000124355
0.00013041
0.000136964
0.000143218
0.000149122
0.000154639
0.000159762
0.0001645
0.000168871
0.000172892
0.000176577
0.000179936
0.000182982
0.000185726
0.000188185
0.000190378
0.000192328
0.00019406
0.000195599
0.000196976
0.000198217
0.000199349
0.000200397
0.000201381
0.00020232
0.000203225
0.000204099
0.000204941
0.000205736
0.000206465
0.000207094
0.000207584
0.000207884
0.000207933
0.000207644
0.000206895
0.000205487
0.000203109
0.000199276
0.000193258
0.000184138
0.000171069
0.000153918
0.000134195
0.000115335
0.000101216
9.36549e-05
9.12727e-05
9.10535e-05
9.2667e-05
0.000102171
0.000128585
0.000173409
0.000227549
0.000279625
0.000323455
0.000357446
0.000382304
0.000399734
0.000410805
0.000416095
0.000415918
0.000410539
0.000400741
0.000387758
0.000372391
0.000355405
0.000337637
0.00032004
0.000303269
0.000287821
0.000273942
0.000261625
0.000250638
0.000240602
0.000231117
0.000221921
0.000212969
0.000204423
0.000196556
0.000189638
0.000183851
0.000179265
0.000175851
0.000173506
0.000172096
0.00017146
0.000171415
0.000171749
0.000172085
0.000171339
0.000167881
0.000159318
0.000143757
0.000123207
0.00010411
9.14761e-05
8.55714e-05
8.41673e-05
8.48136e-05
8.56962e-05
8.58899e-05
8.54218e-05
8.51212e-05
1.45636e-05
5.06057e-05
8.02675e-05
8.47126e-05
7.89955e-05
7.06213e-05
6.30141e-05
5.71658e-05
5.28608e-05
4.96443e-05
4.72558e-05
4.55058e-05
4.43816e-05
4.39093e-05
4.41505e-05
4.51108e-05
4.65965e-05
4.81314e-05
4.90837e-05
4.90291e-05
4.81053e-05
4.70693e-05
4.70365e-05
4.90407e-05
5.36374e-05
6.08743e-05
7.06395e-05
8.28442e-05
9.73033e-05
0.000113567
0.000130891
0.000148371
0.000165168
0.000180697
0.00019469
0.000207164
0.000218319
0.000228442
0.000237831
0.000246746
0.000255389
0.000263889
0.000272307
0.000280642
0.000288835
0.000296785
0.000304353
0.000311375
0.000317669
0.000323041
0.000327295
0.000330068
0.000331408
0.000331217
0.000329378
0.000325793
0.000320395
0.000313171
0.000304169
0.000293497
0.000281303
0.000267731
0.000252877
0.000236796
0.000219574
0.000201475
0.000183045
0.000165184
0.00014899
0.000135422
0.00012485
0.00011723
0.000112397
0.000110223
0.000110585
0.000113173
0.00011769
0.000123339
0.000129598
0.000136069
0.000142484
0.000148688
0.000154601
0.00016019
0.000165435
0.000170327
0.000174857
0.00017902
0.000182814
0.000186241
0.000189312
0.000192043
0.000194455
0.000196575
0.000198432
0.000200059
0.000201489
0.000202756
0.000203889
0.000204919
0.00020587
0.000206761
0.000207606
0.000208409
0.000209168
0.000209868
0.000210484
0.000210981
0.00021131
0.000211406
0.000211174
0.000210473
0.000209084
0.000206666
0.000202688
0.000196391
0.000186853
0.000173301
0.000155797
0.000136095
0.000117711
0.000104286
9.72713e-05
9.51207e-05
9.51047e-05
9.75181e-05
0.000108434
0.000135668
0.000179968
0.000232855
0.000283978
0.000327411
0.000361489
0.000386828
0.000404722
0.000416069
0.000421342
0.000420782
0.000414585
0.000403543
0.000388931
0.000371669
0.000352637
0.000332768
0.00031301
0.00029419
0.000276948
0.000261668
0.000248446
0.000237086
0.000227161
0.000218153
0.000209649
0.000201475
0.000193716
0.000186611
0.000180426
0.000175352
0.000171455
0.000168686
0.000166914
0.000165964
0.000165647
0.000165785
0.000166228
0.000166903
0.000167338
0.000166563
0.00016282
0.000153754
0.000138247
0.000119177
0.000102168
9.05477e-05
8.40211e-05
8.08366e-05
7.93714e-05
7.86252e-05
7.83132e-05
7.87573e-05
1.40727e-05
5.55156e-05
8.35557e-05
8.59903e-05
7.90812e-05
7.04118e-05
6.30743e-05
5.76853e-05
5.3867e-05
5.11402e-05
4.91066e-05
4.76965e-05
4.68976e-05
4.66528e-05
4.68483e-05
4.72929e-05
4.77369e-05
4.7953e-05
4.78581e-05
4.76128e-05
4.7662e-05
4.87018e-05
5.15325e-05
5.67819e-05
6.4676e-05
7.51155e-05
8.79155e-05
0.000102825
0.000119389
0.000136901
0.000154529
0.000171513
0.000187328
0.000201728
0.000214717
0.000226469
0.000237242
0.000247323
0.000256969
0.000266388
0.000275719
0.00028503
0.000294321
0.000303535
0.000312568
0.000321273
0.000329473
0.000336974
0.000343567
0.00034904
0.000353171
0.000355757
0.000356855
0.000356389
0.000354252
0.000350335
0.000344539
0.000336806
0.00032715
0.000315684
0.000302609
0.000288164
0.000272543
0.000255818
0.00023797
0.000219064
0.000199346
0.000179492
0.000160644
0.000144242
0.000130947
0.000120803
0.000113666
0.000109436
0.000108139
0.000109421
0.000112854
0.00011788
0.000123936
0.000130541
0.000137343
0.000144116
0.000150724
0.000157083
0.000163139
0.000168852
0.000174187
0.00017912
0.000183633
0.000187719
0.000191381
0.000194632
0.00019749
0.000199984
0.000202146
0.00020401
0.000205615
0.000206997
0.000208196
0.000209244
0.000210174
0.000211013
0.000211782
0.000212492
0.00021315
0.000213748
0.00021427
0.000214684
0.000214944
0.000214981
0.000214695
0.000213932
0.000212457
0.000209913
0.000205742
0.000199178
0.000189335
0.000175533
0.000157986
0.000138557
0.00012068
0.000107741
0.000100989
9.89096e-05
9.90814e-05
0.000102068