/*--------------------------------*- C++ -*----------------------------------*\
  =========                 |
  \\      /  F ield         | OpenFOAM: The Open Source CFD Toolbox
   \\    /   O peration     | Website:  https://openfoam.org
    \\  /    A nd           | Version:  9
     \\/     M anipulation  |
\*---------------------------------------------------------------------------*/
FoamFile
{
    format      ascii;
    class       volScalarField;
    location    "0.012";
    object      s;
}
// * * * * * * * * * * * * * * * * * * * * * * * * * * * * * * * * * * * * * //

dimensions      [0 0 0 0 0 0 0];

internalField   nonuniform List<scalar> 
12225
(
1
1
1
1
1
1
1
1
1
1
1
1
1
1
1
1
1
0.999954
1
1
1
1
1
1
1
1
1
1
1
1
1
1
1
1
1
0.999999
1
1
1
1
1
1
1
1
1
1
1
1
1
1
1
1
1
1
1
1
1
1
1
1
1
1
1
1
1
1
1
1
1
1
1
1
1
1
1
1
1
1
1
1
1
1
1
1
1
1
1
1
1
1
1
1
1
1
1
1
1
1
1
1
1
1
1
1
1
1
1
1
1
1
1
1
1
1
1
1
1
1
1
1
1
1
1
1
1
1
1
1
1
1
1
1
1
1
1
1
1
1
1
1
1
1
1
1
1
1
1
1
1
1
1
1
1
1
1
1
1
1
1
1
1
1
1
1
1
1
1
1
1
1
1
1
1
1
1
1
1
1
1
1
1
1
1
1
1
1
1
1
1
1
1
1
1
1
1
1
1
1
1
1
1
1
1
1
1
1
1
1
1
1
1
1
1
1
1
1
1
1
1
1
1
1
1
1
1
1
1
1
1
1
1
1
1
1
1
1
1
1
1
1
1
1
1
1
1
1
1
1
1
1
1
1
1
1
1
1
1
1
1
1
1
1
1
1
1
1
1
1
1
1
1
1
1
1
1
1
1
1
1
1
1
1
1
1
1
1
1
1
1
1
1
1
1
1
1
1
1
1
1
1
1
1
1
1
1
1
1
1
1
1
1
1
1
1
1
1
1
1
1
1
1
1
1
1
1
1
1
1
1
1
1
1
1
1
1
1
1
1
1
1
1
1
1
1
1
1
1
1
1
1
1
1
1
1
1
1
1
1
1
1
1
1
1
1
1
1
1
1
1
1
1
1
1
1
1
1
1
1
1
1
1
1
1
1
1
1
1
1
1
1
1
1
1
1
1
1
1
1
1
1
1
1
1
1
1
1
1
1
1
1
1
1
1
1
1
1
1
1
1
1
1
1
1
1
1
1
1
1
1
1
1
1
1
1
1
1
1
1
1
1
1
1
1
1
1
1
1
1
1
1
1
1
1
1
1
1
1
1
1
1
1
1
1
1
1
1
1
1
1
1
1
1
1
1
1
1
1
1
1
1
1
1
1
1
1
1
1
1
1
1
1
1
1
1
1
1
1
1
1
1
1
1
1
1
1
1
1
1
1
1
1
1
1
1
1
1
1
1
1
1
1
1
1
1
1
1
1
1
1
1
1
1
1
1
1
1
1
1
1
1
2.15383e-16
4.12897e-15
4.68558e-14
3.44227e-13
1.7587e-12
6.36209e-12
1.89607e-11
7.74592e-11
3.0626e-10
1.12874e-09
4.05095e-09
1.45815e-08
5.25454e-08
1.82249e-07
5.90431e-07
1.75072e-06
4.69401e-06
1.13319e-05
2.46931e-05
4.89728e-05
8.95014e-05
0.000152879
0.00024735
0.000382977
0.000570922
0.000821641
0.0011425
0.00153582
0.00199835
0.00252244
0.00309745
0.0037102
0.00434899
0.00501383
0.00571538
0.00645385
0.00722242
0.00805175
0.00899331
0.0100333
0.0111579
0.0125072
0.014171
0.0153407
0.0164489
0.0171923
0.0175228
0.0176237
0.0169617
0.0162153
0.0150769
0.0133263
0.0117809
0.0100454
0.00824304
0.00674258
0.00522891
0.00402763
0.00298775
0.00215998
0.00151082
0.00102455
0.000673002
0.000427473
0.000262234
0.000155083
8.86646e-05
4.87412e-05
2.5824e-05
1.3186e-05
6.48974e-06
3.08004e-06
1.41034e-06
6.2342e-07
2.66206e-07
1.09885e-07
4.38801e-08
1.69637e-08
6.35367e-09
2.30725e-09
8.12907e-10
2.78076e-10
9.24177e-11
2.98604e-11
9.38545e-12
2.87142e-12
8.55607e-13
2.48447e-13
7.03418e-14
1.94289e-14
5.23801e-15
1.37908e-15
3.54764e-16
8.92134e-17
2.19419e-17
5.28057e-18
1.24411e-18
2.87086e-19
6.49145e-20
1.43896e-20
3.12849e-21
6.67407e-22
1.39768e-22
2.87459e-23
5.8086e-24
1.15364e-24
2.25288e-25
4.32747e-26
8.17897e-27
1.52144e-27
2.79008e-28
5.06286e-29
9.08347e-30
1.61018e-30
2.81833e-31
4.86835e-32
8.29615e-33
1.39449e-33
2.31178e-34
3.77938e-35
6.09246e-36
9.68341e-37
1.51739e-37
2.34409e-38
3.56977e-39
5.35897e-40
7.93017e-41
1.15674e-41
1.66316e-42
2.35709e-43
3.29284e-44
4.53452e-45
6.15566e-46
8.238e-47
1.08691e-47
1.41385e-48
1.81332e-49
2.29306e-50
2.85916e-51
3.51522e-52
4.26153e-53
5.09432e-54
6.00512e-55
6.98036e-56
8.00132e-57
9.04444e-58
1.00819e-58
1.1083e-59
1.20152e-60
1.28461e-61
1.35453e-62
1.40861e-63
1.44474e-64
1.46148e-65
1.45817e-66
1.43498e-67
1.39289e-68
1.3336e-69
1.25946e-70
1.17326e-71
1.07811e-72
9.77227e-74
8.73755e-75
7.70626e-76
6.70426e-77
5.75303e-78
4.86925e-79
4.06456e-80
3.3459e-81
2.71572e-82
2.17303e-83
1.71351e-84
1.33123e-85
1.01808e-86
7.66218e-88
5.6624e-89
4.10795e-90
2.90679e-91
2.00468e-92
1.25753e-93
8.18346e-15
1.93787e-13
2.68321e-12
2.54562e-11
1.8176e-10
1.03385e-09
4.87614e-09
1.96429e-08
6.92723e-08
2.1788e-07
6.20244e-07
1.61705e-06
3.89714e-06
8.74883e-06
1.8413e-05
3.65524e-05
6.88611e-05
0.000123892
0.000214269
0.000358552
0.000583995
0.000930293
0.00145312
0.00222706
0.00334584
0.00491823
0.00705964
0.00988175
0.0134851
0.0179547
0.0233507
0.0296919
0.0369681
0.045193
0.0544071
0.0645621
0.0754935
0.087182
0.0998116
0.113153
0.126459
0.139507
0.152673
0.16297
0.171387
0.177337
0.18017
0.181168
0.175956
0.169866
0.160354
0.146799
0.133136
0.117375
0.100504
0.0848922
0.0691004
0.0553171
0.0431223
0.0329057
0.0243235
0.0174252
0.0120908
0.00813154
0.00528302
0.00330951
0.00199885
0.00116206
0.000650075
0.000349969
0.00018134
9.04742e-05
4.34892e-05
2.01535e-05
9.0109e-06
3.89043e-06
1.62336e-06
6.55252e-07
2.56073e-07
9.69768e-08
3.56203e-08
1.27005e-08
4.39943e-09
1.48172e-09
4.85587e-10
1.54958e-10
4.81857e-11
1.46107e-11
4.32269e-12
1.24864e-12
3.52349e-13
9.71873e-14
2.62165e-14
6.91968e-15
1.78793e-15
4.52443e-16
1.12177e-16
2.72613e-17
6.49599e-18
1.51828e-18
3.48181e-19
7.83668e-20
1.73162e-20
3.75731e-21
8.00768e-22
1.67663e-22
3.44951e-23
6.97502e-24
1.38637e-24
2.7091e-25
5.20535e-26
9.83571e-27
1.82789e-27
3.34151e-28
6.00944e-29
1.06333e-29
1.8519e-30
3.17802e-31
5.37352e-32
8.95173e-33
1.46924e-33
2.37583e-34
3.78506e-35
5.94112e-36
9.18767e-37
1.39988e-37
2.10153e-38
3.10849e-39
4.53052e-40
6.50656e-41
9.20824e-42
1.28423e-42
1.7651e-43
2.39097e-44
3.19208e-45
4.20035e-46
5.44783e-47
6.96471e-48
8.77677e-49
1.09026e-49
1.33507e-50
1.61163e-51
1.91789e-52
2.25006e-53
2.60246e-54
2.96763e-55
3.33644e-56
3.69841e-57
4.04223e-58
4.35626e-59
4.62922e-60
4.85083e-61
5.01247e-62
5.10775e-63
5.13289e-64
5.08701e-65
4.97215e-66
4.79312e-67
4.55718e-68
4.27355e-69
3.95279e-70
3.6062e-71
3.24512e-72
2.88038e-73
2.52176e-74
2.17765e-75
1.85477e-76
1.55808e-77
1.29078e-78
1.05448e-79
8.49306e-81
6.7433e-82
5.27552e-83
4.066e-84
3.08385e-85
2.30144e-86
1.6847e-87
1.20984e-88
8.4376e-90
5.72856e-91
2.67951e-13
5.85705e-12
6.93945e-11
5.53405e-10
3.32678e-09
1.60657e-08
6.50347e-08
2.27442e-07
7.03371e-07
1.95931e-06
4.98766e-06
1.1735e-05
2.57505e-05
5.30975e-05
0.000103581
0.000192439
0.000342872
0.000590098
0.000988006
0.00161956
0.00261186
0.00415554
0.00652588
0.0101001
0.0153611
0.0228799
0.0332783
0.0471916
0.0652524
0.0880706
0.116137
0.149725
0.188901
0.233889
0.285831
0.345536
0.401851
0.448874
0.50002
0.545829
0.583957
0.620424
0.651214
0.674479
0.692533
0.703385
0.709087
0.711242
0.702885
0.690844
0.668493
0.638955
0.60269
0.558077
0.506322
0.449936
0.387973
0.325412
0.264656
0.212746
0.168856
0.129211
0.095318
0.0680499
0.0472265
0.0315526
0.0202532
0.0125127
0.00742643
0.00423025
0.00231403
0.00121568
0.00061375
0.000298
0.000139273
6.2712e-05
2.72328e-05
1.14163e-05
4.62475e-06
1.81222e-06
6.8758e-07
2.52835e-07
9.01896e-08
3.12369e-08
1.05135e-08
3.44151e-09
1.09653e-09
3.40324e-10
1.02961e-10
3.0385e-11
8.75264e-12
2.46251e-12
6.77067e-13
1.82029e-13
4.7877e-14
1.23255e-14
3.10724e-15
7.67395e-16
1.85743e-16
4.40771e-17
1.02583e-17
2.34225e-18
5.24829e-19
1.15438e-19
2.49309e-20
5.28793e-21
1.10176e-21
2.25544e-22
4.53731e-23
8.9715e-24
1.74382e-24
3.33254e-25
6.26243e-26
1.15734e-26
2.10369e-27
3.76147e-28
6.6166e-29
1.14511e-29
1.95001e-30
3.26903e-31
5.3994e-32
8.78648e-33
1.40871e-33
2.22518e-34
3.46293e-35
5.30957e-36
8.02076e-37
1.19377e-37
1.75057e-38
2.52933e-39
3.60091e-40
5.05136e-41
6.98246e-42
9.51093e-43
1.27663e-43
1.68867e-44
2.20129e-45
2.82798e-46
3.58059e-47
4.46816e-48
5.49558e-49
6.66233e-50
7.96126e-51
9.37773e-52
1.08891e-52
1.24645e-53
1.40661e-54
1.56494e-55
1.71659e-56
1.8565e-57
1.97971e-58
2.08163e-59
2.15833e-60
2.20677e-61
2.22505e-62
2.21248e-63
2.16966e-64
2.09842e-65
2.00166e-66
1.88322e-67
1.74756e-68
1.59954e-69
1.44409e-70
1.28598e-71
1.12958e-72
9.78665e-74
8.36326e-75
7.04902e-76
5.85939e-77
4.80314e-78
3.88193e-79
3.09311e-80
2.42849e-81
1.87877e-82
1.43033e-83
1.0719e-84
7.8802e-86
5.69071e-87
4.00032e-88
2.75595e-89
1.02725e-12
2.25389e-11
2.66129e-10
2.1049e-09
1.24806e-08
5.91992e-08
2.34896e-07
8.04671e-07
2.43609e-06
6.638e-06
1.65237e-05
3.80928e-05
8.25107e-05
0.000168176
0.000324674
0.00059811
0.00105947
0.00181868
0.00304811
0.00502034
0.00816557
0.0131534
0.0210002
0.0331977
0.0518504
0.0798108
0.120803
0.179538
0.261764
0.373244
0.47465
0.556461
0.651084
0.710939
0.762906
0.808798
0.832401
0.866617
0.885027
0.900866
0.913362
0.91893
0.922808
0.928387
0.930998
0.933625
0.937683
0.940394
0.943351
0.945929
0.947578
0.945708
0.94281
0.935556
0.923309
0.904368
0.877321
0.839954
0.78825
0.716872
0.628781
0.53119
0.427731
0.326341
0.241271
0.175496
0.121203
0.0801725
0.0510778
0.0310795
0.018107
0.0101006
0.00539653
0.00276441
0.00135906
0.000641959
0.000291681
0.000127627
5.38415e-05
2.19244e-05
8.62705e-06
3.28394e-06
1.21055e-06
4.32579e-07
1.49991e-07
5.05105e-08
1.6535e-08
5.26615e-09
1.63305e-09
4.93459e-10
1.45398e-10
4.18039e-11
1.17355e-11
3.21867e-12
8.62946e-13
2.26283e-13
5.80624e-14
1.45852e-14
3.58829e-15
8.6496e-16
2.0436e-16
4.7341e-17
1.07562e-17
2.39765e-18
5.24494e-19
1.12624e-19
2.37445e-20
4.91621e-21
9.99819e-22
1.99766e-22
3.92198e-23
7.56742e-24
1.43521e-24
2.67591e-25
4.90543e-26
8.84282e-27
1.56771e-27
2.73374e-28
4.68933e-29
7.91339e-30
1.31387e-30
2.14872e-31
3.4615e-32
5.49299e-33
8.58651e-34
1.32219e-34
2.00562e-35
2.99703e-36
4.41196e-37
6.39862e-38
9.14257e-39
1.28704e-39
1.78513e-40
2.43959e-41
3.28506e-42
4.35877e-43
5.69889e-44
7.34243e-45
9.32239e-46
1.16646e-46
1.43843e-47
1.74823e-48
2.09422e-49
2.47271e-50
2.8779e-51
3.30175e-52
3.73423e-53
4.16353e-54
4.57665e-55
4.95992e-56
5.29984e-57
5.58379e-58
5.80084e-59
5.94245e-60
6.00303e-61
5.98027e-62
5.87533e-63
5.69273e-64
5.43999e-65
5.12717e-66
4.76618e-67
4.37004e-68
3.95212e-69
3.5254e-70
3.10183e-71
2.69191e-72
2.30418e-73
1.94526e-74
1.61957e-75
1.32973e-76
1.07639e-77
8.5899e-79
6.75451e-80
5.2333e-81
3.99031e-82
2.99464e-83
2.20577e-84
1.59577e-85
1.12678e-86
7.79842e-88
2.07549e-12
4.52315e-11
5.27614e-10
4.15656e-09
2.48084e-08
1.19213e-07
4.79896e-07
1.67009e-06
5.16433e-06
1.44892e-05
3.75688e-05
9.0494e-05
0.000200595
0.000410289
0.000790552
0.00145451
0.00257028
0.00444723
0.00756692
0.0126682
0.0210239
0.034706
0.0571057
0.0937127
0.153348
0.249844
0.403179
0.556564
0.662721
0.745388
0.792716
0.842237
0.87031
0.886417
0.902417
0.911361
0.917554
0.921969
0.923893
0.924441
0.924289
0.922168
0.919565
0.918521
0.919543
0.921905
0.927978
0.935507
0.943931
0.951546
0.962589
0.967853
0.975817
0.981759
0.984702
0.986023
0.986152
0.983239
0.977528
0.967656
0.95169
0.926507
0.887033
0.825656
0.730605
0.604965
0.466833
0.3329
0.229843
0.151723
0.0949737
0.0568504
0.0324168
0.0176533
0.00919034
0.00458059
0.00218883
0.00100418
0.000442922
0.000188083
7.69933e-05
3.04224e-05
1.16172e-05
4.2923e-06
1.53618e-06
5.3311e-07
1.79579e-07
5.87717e-08
1.87047e-08
5.79389e-09
1.74813e-09
5.14153e-10
1.47513e-10
4.13116e-11
1.13003e-11
3.02089e-12
7.89653e-13
2.01935e-13
5.05434e-14
1.23874e-14
2.97393e-15
6.99645e-16
1.61351e-16
3.64878e-17
8.09351e-18
1.7614e-18
3.76201e-19
7.8873e-20
1.6236e-20
3.28217e-21
6.51719e-22
1.27132e-22
2.43679e-23
4.59009e-24
8.49827e-25
1.54671e-25
2.76768e-26
4.86976e-27
8.42631e-28
1.43403e-28
2.40056e-29
3.954e-30
6.41366e-31
1.02456e-31
1.61189e-32
2.4976e-33
3.8116e-34
5.72934e-35
8.48258e-36
1.23707e-36
1.77714e-37
2.51492e-38
3.50607e-39
4.81532e-40
6.51564e-41
8.68624e-42
1.14095e-42
1.47666e-43
1.88318e-44
2.36656e-45
2.93075e-46
3.57681e-47
4.30218e-48
5.10008e-49
5.95911e-50
6.86312e-51
7.79146e-52
8.71951e-53
9.6197e-54
1.04628e-54
1.12193e-55
1.18615e-56
1.23648e-57
1.27094e-58
1.28816e-59
1.28748e-60
1.26897e-61
1.23344e-62
1.18239e-63
1.11785e-64
1.04233e-65
9.58587e-67
8.69503e-68
7.77911e-69
6.86446e-70
5.97447e-71
5.12854e-72
4.3419e-73
3.62507e-74
2.98456e-75
2.42259e-76
1.93855e-77
1.52853e-78
1.18747e-79
9.07992e-81
6.8332e-82
5.05023e-83
3.66633e-84
2.60393e-85
1.81441e-86
2.59103e-12
6.27701e-11
8.15333e-10
7.0049e-09
4.44817e-08
2.24295e-07
9.41845e-07
3.39553e-06
1.07057e-05
2.9806e-05
7.37756e-05
0.000166268
0.000363149
0.000765514
0.00152992
0.00293191
0.00551842
0.00985724
0.016485
0.0280097
0.0482509
0.0825095
0.142184
0.245877
0.42137
0.597837
0.712998
0.784343
0.828413
0.851748
0.863784
0.873652
0.877789
0.879516
0.878177
0.865582
0.849244
0.825309
0.800295
0.770275
0.743666
0.727546
0.716311
0.711705
0.71484
0.725285
0.745276
0.771331
0.805881
0.839811
0.877526
0.904134
0.935313
0.964558
0.980181
0.987598
0.992294
0.994463
0.99557
0.996165
0.995667
0.993823
0.989896
0.982454
0.968851
0.944116
0.899196
0.818122
0.681692
0.513284
0.348731
0.227205
0.139948
0.0818556
0.0455309
0.0241319
0.0122098
0.00590806
0.00273876
0.00121832
0.000520919
0.000214411
8.50795e-05
3.25919e-05
1.20689e-05
4.32553e-06
1.5022e-06
5.06072e-07
1.65553e-07
5.2641e-08
1.62841e-08
4.90487e-09
1.43965e-09
4.12069e-10
1.15098e-10
3.13925e-11
8.36568e-12
2.17938e-12
5.55318e-13
1.38462e-13
3.37982e-14
8.07981e-15
1.89242e-15
4.34406e-16
9.77627e-17
2.15764e-17
4.67129e-18
9.9233e-19
2.06892e-19
4.23444e-20
8.50953e-21
1.67942e-21
3.25563e-22
6.2003e-23
1.16028e-23
2.13379e-24
3.85697e-25
6.85341e-26
1.19727e-26
2.05665e-27
3.47428e-28
5.77217e-29
9.43943e-30
1.51988e-30
2.40963e-31
3.76166e-32
5.7825e-33
8.75336e-34
1.3049e-34
1.91577e-35
2.7701e-36
3.94506e-37
5.534e-38
7.64667e-39
1.04081e-39
1.39559e-40
1.84353e-41
2.39921e-42
3.07633e-43
3.88658e-44
4.83829e-45
5.93511e-46
7.17465e-47
8.54729e-48
1.00354e-48
1.16129e-49
1.32455e-50
1.48915e-51
1.65034e-52
1.80299e-53
1.94185e-54
2.06189e-55
2.15853e-56
2.228e-57
2.26754e-58
2.2756e-59
2.25192e-60
2.19758e-61
2.11488e-62
2.00719e-63
1.87875e-64
1.73434e-65
1.57905e-66
1.41793e-67
1.25579e-68
1.09693e-69
9.44991e-71
8.02885e-72
6.72697e-73
5.55776e-74
4.52704e-75
3.6351e-76
2.87632e-77
2.24233e-78
1.72093e-79
1.29992e-80
9.64954e-82
7.03801e-83
5.03215e-84
3.53374e-85
2.72953e-12
6.46489e-11
8.2333e-10
7.21282e-09
4.76548e-08
2.51177e-07
1.10313e-06
4.17296e-06
1.40777e-05
4.34865e-05
0.00012374
0.000324735
0.000772737
0.00167212
0.003292
0.00595027
0.0101216
0.0179697
0.0332561
0.0588229
0.101159
0.18586
0.340755
0.533969
0.686457
0.77607
0.818185
0.837604
0.845656
0.848389
0.847391
0.830637
0.799673
0.748268
0.675815
0.622692
0.560045
0.522929
0.488894
0.473249
0.466441
0.464517
0.469726
0.474354
0.482686
0.487786
0.49756
0.508258
0.52697
0.559778
0.617896
0.692976
0.782188
0.864511
0.929103
0.960501
0.97986
0.989381
0.994527
0.996924
0.99808
0.998612
0.99887
0.998681
0.997839
0.99579
0.991247
0.981403
0.960229
0.914544
0.816816
0.644522
0.444505
0.281395
0.169393
0.0964202
0.0520977
0.0267838
0.0131315
0.00615283
0.00276078
0.00118855
0.000491827
0.000195951
7.52845e-05
2.79335e-05
1.00231e-05
3.48246e-06
1.17301e-06
3.83466e-07
1.2179e-07
3.76157e-08
1.13082e-08
3.31159e-09
9.45447e-10
2.6333e-10
7.16001e-11
1.90169e-11
4.93653e-12
1.2531e-12
3.11201e-13
7.56447e-14
1.80044e-14
4.19763e-15
9.58983e-16
2.14753e-16
4.71543e-17
1.0155e-17
2.14552e-18
4.44817e-19
9.05169e-20
1.8083e-20
3.54724e-21
6.83399e-22
1.2933e-22
2.40459e-23
4.39306e-24
7.88764e-25
1.39201e-25
2.41498e-26
4.11928e-27
6.90894e-28
1.14003e-28
1.85164e-29
2.96048e-30
4.6597e-31
7.22051e-32
1.10157e-32
1.65469e-33
2.4474e-34
3.5645e-35
5.11238e-36
7.22109e-37
1.00453e-37
1.37633e-38
1.85742e-39
2.46913e-40
3.23334e-41
4.17114e-42
5.30122e-43
6.63803e-44
8.18972e-45
9.95608e-46
1.19267e-46
1.40796e-47
1.63803e-48
1.87817e-49
2.12253e-50
2.36429e-51
2.59596e-52
2.80975e-53
2.99799e-54
3.15359e-55
3.27051e-56
3.34411e-57
3.37145e-58
3.35155e-59
3.28535e-60
3.17572e-61
3.02722e-62
2.84575e-63
2.63825e-64
2.41218e-65
2.17512e-66
1.93437e-67
1.6966e-68
1.46754e-69
1.25189e-70
1.0531e-71
8.73536e-73
7.14376e-74
5.7591e-75
4.5754e-76
3.58141e-77
2.7604e-78
2.09426e-79
1.56242e-80
1.14581e-81
8.25057e-83
5.84092e-84
2.4828e-12
6.31559e-11
9.06657e-10
8.74736e-09
6.28067e-08
3.49844e-07
1.56761e-06
5.81549e-06
1.88024e-05
5.65573e-05
0.000159329
0.000419427
0.00102251
0.00228891
0.00473695
0.00947934
0.0191872
0.0353253
0.0602312
0.109078
0.214995
0.38121
0.56561
0.721359
0.791804
0.82218
0.831812
0.834011
0.828009
0.799513
0.740343
0.629273
0.555288
0.48413
0.451001
0.420765
0.40707
0.401815
0.400928
0.407899
0.415639
0.425552
0.434332
0.444863
0.452622
0.455927
0.456843
0.453215
0.446112
0.435533
0.425161
0.433631
0.482714
0.609743
0.775839
0.878566
0.93605
0.965372
0.982853
0.991681
0.996098
0.998172
0.999055
0.999436
0.999606
0.999639
0.999462
0.998823
0.997093
0.992592
0.981053
0.95165
0.876529
0.703986
0.480794
0.296447
0.172981
0.0953785
0.0498489
0.0247667
0.0117283
0.00530669
0.00229944
0.00095619
0.000382321
0.000147248
5.47168e-05
1.96471e-05
6.82639e-06
2.29803e-06
7.50431e-07
2.37975e-07
7.336e-08
2.20039e-08
6.42726e-09
1.82972e-09
5.08032e-10
1.3767e-10
3.64336e-11
9.42161e-12
2.38199e-12
5.89057e-13
1.42552e-13
3.37733e-14
7.83649e-15
1.78146e-15
3.96898e-16
8.66895e-17
1.8568e-17
3.90113e-18
8.04179e-19
1.62688e-19
3.23066e-20
6.29873e-21
1.20594e-21
2.26772e-22
4.1891e-23
7.60311e-24
1.35603e-24
2.37696e-25
4.09553e-26
6.93726e-27
1.15566e-27
1.89447e-28
3.05631e-29
4.85278e-30
7.58398e-31
1.16667e-31
1.76672e-32
2.63382e-33
3.86573e-34
5.58639e-35
7.949e-36
1.11379e-36
1.53685e-37
2.08843e-38
2.7951e-39
3.68459e-40
4.78433e-41
6.11955e-42
7.71097e-43
9.5723e-44
1.17076e-44
1.41087e-45
1.67532e-46
1.96033e-47
2.26049e-48
2.56887e-49
2.87722e-50
3.17628e-51
3.45621e-52
3.70716e-53
3.9198e-54
4.08592e-55
4.19893e-56
4.25433e-57
4.24998e-58
4.18624e-59
4.06593e-60
3.89413e-61
3.67782e-62
3.42541e-63
3.14621e-64
2.84986e-65
2.54579e-66
2.24279e-67
1.94856e-68
1.66951e-69
1.41054e-70
1.17511e-71
9.65195e-73
7.81511e-74
6.23638e-75
4.9035e-76
3.79722e-77
2.89503e-78
2.17163e-79
1.60217e-80
1.16202e-81
8.2947e-83
2.09276e-12
5.54237e-11
8.22134e-10
8.26504e-09
6.2207e-08
3.78984e-07
1.93245e-06
8.43791e-06
3.13877e-05
9.94741e-05
0.000278813
0.000714913
0.00171099
0.00382959
0.00787481
0.0146949
0.0267146
0.0516007
0.101748
0.201011
0.354503
0.548066
0.713784
0.790318
0.819361
0.82674
0.826966
0.810077
0.757779
0.637631
0.515992
0.456626
0.41549
0.396131
0.388647
0.386509
0.390307
0.396055
0.402864
0.412592
0.417545
0.425632
0.4346
0.448639
0.463323
0.477741
0.485565
0.489608
0.475901
0.448993
0.409478
0.380714
0.366622
0.382323
0.467084
0.671162
0.831214
0.907708
0.952656
0.976492
0.988815
0.994923
0.997803
0.999065
0.999575
0.999776
0.999863
0.999886
0.999829
0.99956
0.998677
0.995923
0.98752
0.962383
0.887718
0.692513
0.450726
0.269524
0.151666
0.0805628
0.0405403
0.0193891
0.00883959
0.00385197
0.0016083
0.000644836
0.00024877
9.25141e-05
3.32199e-05
1.15353e-05
3.87882e-06
1.26462e-06
4.00232e-07
1.23088e-07
3.68212e-08
1.07236e-08
3.04299e-09
8.41983e-10
2.27326e-10
5.99255e-11
1.54329e-11
3.88496e-12
9.5642e-13
2.30373e-13
5.43148e-14
1.25396e-14
2.83584e-15
6.28442e-16
1.36511e-16
2.90751e-17
6.07355e-18
1.24464e-18
2.50283e-19
4.93974e-20
9.57092e-21
1.82082e-21
3.40196e-22
6.24332e-23
1.12565e-23
1.99415e-24
3.47177e-25
5.94075e-26
9.99487e-27
1.65428e-27
2.69387e-28
4.3164e-29
6.80579e-30
1.05604e-30
1.61275e-31
2.42417e-32
3.58678e-33
5.22423e-34
7.49115e-35
1.05758e-35
1.47009e-36
2.01222e-37
2.71226e-38
3.60035e-39
4.70696e-40
6.06107e-41
7.68773e-42
9.60538e-43
1.18229e-43
1.4337e-44
1.71294e-45
2.0165e-46
2.33915e-47
2.67388e-48
3.01217e-49
3.34421e-50
3.65938e-51
3.94682e-52
4.19598e-53
4.39735e-54
4.54297e-55
4.62703e-56
4.64621e-57
4.59991e-58
4.49025e-59
4.32197e-60
4.10202e-61
3.83913e-62
3.54323e-63
3.22482e-64
2.8944e-65
2.56189e-66
2.23619e-67
1.92483e-68
1.63379e-69
1.36738e-70
1.12832e-71
9.17852e-73
7.35905e-74
5.81417e-75
4.52512e-76
3.46825e-77
2.61668e-78
1.9428e-79
1.41938e-80
1.0216e-81
1.66352e-12
4.46307e-11
6.82558e-10
7.19768e-09
5.74248e-08
3.59789e-07
1.85093e-06
8.12166e-06
3.11941e-05
0.000105898
0.000319907
0.000868206
0.00213559
0.00487774
0.0107166
0.0229564
0.0460283
0.087181
0.164519
0.297672
0.482082
0.660006
0.77057
0.812104
0.823653
0.824418
0.809268
0.747478
0.60806
0.478344
0.418191
0.390051
0.377645
0.374143
0.373895
0.375657
0.376605
0.376653
0.370491
0.356334
0.34275
0.337951
0.345605
0.365393
0.398214
0.445936
0.484295
0.503461
0.509546
0.509733
0.486578
0.421217
0.360131
0.341715
0.349368
0.414324
0.612031
0.79318
0.89037
0.944828
0.973391
0.98771
0.994548
0.997692
0.999064
0.999627
0.999846
0.999928
0.999959
0.999961
0.999923
0.999744
0.999052
0.996511
0.987511
0.956728
0.853096
0.60701
0.372852
0.213934
0.115347
0.0587038
0.0283135
0.0129874
0.00568356
0.00237959
0.000955549
0.000368846
0.000137135
4.91984e-05
1.7059e-05
5.72532e-06
1.86237e-06
5.87863e-07
1.80264e-07
5.37529e-08
1.56009e-08
4.41074e-09
1.21569e-09
3.26881e-10
8.58e-11
2.19976e-11
5.51174e-12
1.35035e-12
3.23634e-13
7.59095e-14
1.7432e-14
3.92076e-15
8.64e-16
1.86603e-16
3.95111e-17
8.20414e-18
1.67101e-18
3.33934e-19
6.54912e-20
1.26078e-20
2.38298e-21
4.42293e-22
8.06285e-23
1.44389e-23
2.54047e-24
4.39238e-25
7.46497e-26
1.24776e-26
2.05144e-27
3.31784e-28
5.27911e-29
8.2645e-30
1.2731e-30
1.92989e-31
2.87916e-32
4.22762e-33
6.11026e-34
8.69343e-35
1.21765e-35
1.67914e-36
2.2799e-37
3.04819e-38
4.01324e-39
5.20363e-40
6.64514e-41
8.35833e-42
1.03557e-42
1.26392e-43
1.5197e-44
1.80024e-45
2.10117e-46
2.41646e-47
2.73847e-48
3.05827e-49
3.36596e-50
3.65115e-51
3.90359e-52
4.11373e-53
4.27334e-54
4.37605e-55
4.41775e-56
4.39688e-57
4.31452e-58
4.17431e-59
3.98214e-60
3.74579e-61
3.4744e-62
3.17788e-63
2.86631e-64
2.54942e-65
2.23611e-66
1.93407e-67
1.64954e-68
1.38723e-69
1.15024e-70
9.40247e-72
7.57604e-73
6.01602e-74
4.707e-75
3.62772e-76
2.75347e-77
2.05779e-78
1.51444e-79
1.09899e-80
1.25259e-12
3.09221e-11
5.2293e-10
5.79038e-09
4.81147e-08
3.1342e-07
1.64439e-06
7.29197e-06
2.86949e-05
9.97704e-05
0.000306997
0.000851971
0.00220026
0.00535347
0.0122126
0.0260306
0.0525382
0.104013
0.203329
0.361705
0.553461
0.714983
0.790967
0.817117
0.822706
0.816085
0.771242
0.652191
0.483702
0.40569
0.374512
0.363745
0.360975
0.360537
0.358568
0.348629
0.32435
0.272194
0.228734
0.191481
0.176021
0.171914
0.18138
0.199661
0.228412
0.272929
0.364403
0.460623
0.503324
0.51589
0.513553
0.490322
0.415275
0.346709
0.330194
0.342242
0.40997
0.623265
0.794827
0.89489
0.948916
0.976204
0.989282
0.995332
0.998047
0.999227
0.999709
0.999894
0.99996
0.999983
0.999988
0.999982
0.999939
0.999736
0.998844
0.995148
0.980628
0.926182
0.737092
0.46714
0.272786
0.148904
0.0764474
0.0370942
0.0170818
0.00749216
0.00313973
0.00126066
0.000486167
0.000180469
6.46086e-05
2.23458e-05
7.4781e-06
2.42482e-06
7.62782e-07
2.33048e-07
6.92243e-08
2.00097e-08
5.63326e-09
1.54579e-09
4.1373e-10
1.0808e-10
2.75733e-11
6.87371e-12
1.67522e-12
3.99331e-13
9.31467e-14
2.12692e-14
4.75605e-15
1.04186e-15
2.23656e-16
4.70645e-17
9.71125e-18
1.96536e-18
3.90216e-19
7.60269e-20
1.45387e-20
2.72944e-21
5.0315e-22
9.10917e-23
1.61993e-23
2.83023e-24
4.85959e-25
8.2041e-26
1.36198e-26
2.22367e-27
3.57092e-28
5.64081e-29
8.76598e-30
1.34029e-30
2.0164e-31
2.9852e-32
4.34941e-33
6.2371e-34
8.80376e-35
1.22327e-35
1.67332e-36
2.25359e-37
2.9884e-38
3.90218e-39
5.01778e-40
6.35451e-41
7.92594e-42
9.73751e-43
1.17843e-43
1.40491e-44
1.65009e-45
1.90947e-46
2.17717e-47
2.44609e-48
2.70819e-49
2.95487e-50
3.17744e-51
3.3676e-52
3.51796e-53
3.62255e-54
3.67715e-55
3.67963e-56
3.63007e-57
3.53072e-58
3.38584e-59
3.20142e-60
2.98474e-61
2.74391e-62
2.4874e-63
2.22351e-64
1.95998e-65
1.70367e-66
1.46025e-67
1.23414e-68
1.02842e-69
8.44913e-71
6.84286e-72
5.46244e-73
4.29726e-74
3.331e-75
2.54385e-76
1.91384e-77
1.41883e-78
1.03794e-79
9.75066e-13
2.16089e-11
3.36728e-10
3.86428e-09
3.32294e-08
2.28473e-07
1.29513e-06
6.11088e-06
2.44036e-05
8.64885e-05
0.000273783
0.00078746
0.00210504
0.00535072
0.012896
0.0289968
0.0621626
0.130159
0.255805
0.435291
0.613288
0.739029
0.794823
0.816054
0.819249
0.801256
0.723981
0.565451
0.428669
0.380205
0.362341
0.355425
0.352229
0.347323
0.331215
0.285603
0.217949
0.169046
0.135556
0.119149
0.112619
0.110989
0.121053
0.140478
0.168493
0.19591
0.235876
0.319942
0.44755
0.503677
0.515845
0.505278
0.449273
0.360534
0.327677
0.323324
0.342539
0.4704
0.690839
0.838395
0.922056
0.964605
0.984507
0.993394
0.997259
0.998888
0.999566
0.999837
0.999941
0.99998
0.999993
0.999996
0.999994
0.999981
0.999905
0.999515
0.997677
0.989565
0.956055
0.82266
0.540938
0.319914
0.176074
0.0908551
0.0442055
0.0203761
0.00893357
0.00373847
0.00149775
0.000575983
0.000213113
7.602e-05
2.61907e-05
8.72895e-06
2.81833e-06
8.8265e-07
2.6844e-07
7.93628e-08
2.28297e-08
6.39534e-09
1.74599e-09
4.64882e-10
1.20794e-10
3.06485e-11
7.59756e-12
1.84103e-12
4.36289e-13
1.0116e-13
2.29581e-14
5.10185e-15
1.11055e-15
2.36869e-16
4.95199e-17
1.01503e-17
2.04042e-18
4.02367e-19
7.78554e-20
1.47849e-20
2.75619e-21
5.04482e-22
9.06808e-23
1.601e-23
2.77737e-24
4.73595e-25
7.93916e-26
1.30856e-26
2.1209e-27
3.38066e-28
5.30016e-29
8.17388e-30
1.24013e-30
1.85117e-31
2.71901e-32
3.93008e-33
5.59061e-34
7.82748e-35
1.07876e-35
1.46356e-36
1.95484e-37
2.57075e-38
3.32884e-39
4.24466e-40
5.33021e-41
6.59216e-42
8.0302e-43
9.63539e-44
1.13891e-44
1.32621e-45
1.52149e-46
1.71986e-47
1.9156e-48
2.10249e-49
2.2741e-50
2.42414e-51
2.54683e-52
2.63733e-53
2.69199e-54
2.70864e-55
2.68669e-56
2.62722e-57
2.53284e-58
2.4075e-59
2.25628e-60
2.08498e-61
1.89978e-62
1.7069e-63
1.51225e-64
1.32115e-65
1.13812e-66
9.66773e-68
8.09737e-69
6.68683e-70
5.44407e-71
4.36928e-72
3.45654e-73
2.69507e-74
2.07107e-75
1.56863e-76
1.17139e-77
8.63722e-79
9.86229e-13
1.3286e-11
2.18819e-10
2.32075e-09
1.99476e-08
1.4175e-07
8.51155e-07
4.34397e-06
1.87331e-05
6.8706e-05
0.000224181
0.000672536
0.00187738
0.00490682
0.0119743
0.0272898
0.0592745
0.125828
0.251029
0.432635
0.619519
0.735608
0.791263
0.812899
0.815862
0.799085
0.727393
0.570411
0.426159
0.369422
0.348139
0.340053
0.333232
0.314899
0.269165
0.208895
0.152116
0.119737
0.0978667
0.0871455
0.0819569
0.0837684
0.0921513
0.110093
0.143105
0.17689
0.205562
0.256397
0.369272
0.475966
0.514503
0.511297
0.465217
0.362544
0.311514
0.305357
0.309614
0.357829
0.559127
0.761945
0.885999
0.95067
0.979899
0.99205
0.996885
0.99879
0.999528
0.999821
0.999934
0.999977
0.999992
0.999997
0.999999
0.999998
0.999992
0.999954
0.999736
0.998601
0.993139
0.968785
0.866123
0.58899
0.350186
0.193319
0.0998053
0.0484978
0.0222965
0.00974093
0.00405913
0.00161858
0.000619319
0.000227944
8.08711e-05
2.77089e-05
9.18358e-06
2.9485e-06
9.18205e-07
2.77667e-07
8.16209e-08
2.33437e-08
6.50121e-09
1.76443e-09
4.66988e-10
1.20607e-10
3.04134e-11
7.49235e-12
1.80407e-12
4.24789e-13
9.78525e-14
2.2061e-14
4.86969e-15
1.05282e-15
2.23015e-16
4.62994e-17
9.42342e-18
1.88085e-18
3.68238e-19
7.07354e-20
1.33347e-20
2.46753e-21
4.48298e-22
7.99793e-23
1.40172e-23
2.4141e-24
4.08628e-25
6.79898e-26
1.11215e-26
1.78871e-27
2.82898e-28
4.40036e-29
6.73229e-30
1.01322e-30
1.50023e-31
2.18559e-32
3.13314e-33
4.42012e-34
6.13722e-35
8.38748e-36
1.12837e-36
1.49441e-37
1.9486e-38
2.50176e-39
3.16281e-40
3.93766e-41
4.82809e-42
5.83064e-43
6.93574e-44
8.1271e-45
9.38158e-46
1.06695e-46
1.19554e-47
1.32e-48
1.43612e-49
1.53975e-50
1.62695e-51
1.6943e-52
1.7391e-53
1.75953e-54
1.75483e-55
1.72527e-56
1.6722e-57
1.59789e-58
1.50541e-59
1.39837e-60
1.28077e-61
1.15666e-62
1.03002e-63
9.04463e-65
7.8315e-66
6.6866e-67
5.62943e-68
4.67314e-69
3.82492e-70
3.08659e-71
2.45565e-72
1.92605e-73
1.48941e-74
1.13566e-75
8.5417e-77
6.34708e-78
7.95054e-11
2.45782e-11
1.15187e-10
1.33081e-09
1.15395e-08
7.90958e-08
4.80036e-07
2.52918e-06
1.1499e-05
4.53685e-05
0.000159194
0.000503672
0.00145432
0.00388513
0.00968239
0.0226737
0.0506129
0.109543
0.226368
0.407037
0.602178
0.722022
0.781584
0.805548
0.811166
0.801236
0.744508
0.600955
0.445096
0.375907
0.348781
0.33616
0.326038
0.306468
0.265265
0.209891
0.15448
0.122113
0.100056
0.0827885
0.0756863
0.0772904
0.0843767
0.0998596
0.13268
0.17273
0.201947
0.241743
0.336703
0.461887
0.51579
0.520614
0.488125
0.368349
0.291837
0.268784
0.268739
0.292978
0.423055
0.665137
0.832027
0.926184
0.97124
0.989689
0.996432
0.998764
0.999569
0.999844
0.999942
0.999979
0.999993
0.999998
0.999999
1
0.999999
0.999995
0.999969
0.999813
0.998944
0.994518
0.97373
0.882408
0.609568
0.36189
0.199235
0.102402
0.0494777
0.0225996
0.00980428
0.00405572
0.00160517
0.000609576
0.000222676
7.84146e-05
2.66695e-05
8.7749e-06
2.79707e-06
8.64873e-07
2.59704e-07
7.58088e-08
2.15313e-08
5.95507e-09
1.60507e-09
4.21877e-10
1.08203e-10
2.70958e-11
6.62842e-12
1.58482e-12
3.7052e-13
8.47417e-14
1.89675e-14
4.15643e-15
8.92031e-16
1.87559e-16
3.86482e-17
7.80706e-18
1.54644e-18
3.00457e-19
5.72721e-20
1.07132e-20
1.96703e-21
3.54571e-22
6.2773e-23
1.09177e-23
1.86574e-24
3.13332e-25
5.17197e-26
8.39208e-27
1.33877e-27
2.10002e-28
3.2395e-29
4.91499e-30
7.33513e-31
1.07692e-31
1.55558e-32
2.21099e-33
3.09246e-34
4.25685e-35
5.76743e-36
7.69172e-37
1.00984e-37
1.30528e-38
1.66117e-39
2.08172e-40
2.56898e-41
3.12223e-42
3.73737e-43
4.40654e-44
5.11788e-45
5.85566e-46
6.60062e-47
7.33071e-48
8.0221e-49
8.65047e-50
9.19239e-51
9.62677e-52
9.93626e-53
1.01083e-53
1.01362e-54
1.00193e-55
9.76295e-57
9.37851e-58
8.88207e-59
8.29356e-60
7.63541e-61
6.93111e-62
6.20391e-63
5.4756e-64
4.76551e-65
4.08979e-66
3.46107e-67
2.88824e-68
2.37667e-69
1.92845e-70
1.543e-71
1.21743e-72
9.47338e-74
7.27142e-75
5.50785e-76
4.1237e-77
4.21511e-08
7.48769e-09
9.46968e-10
8.94529e-10
5.0239e-09
4.09646e-08
2.48627e-07
1.28828e-06
5.94595e-06
2.4384e-05
8.92215e-05
0.000292613
0.00087054
0.00238023
0.00604127
0.0144006
0.0330769
0.074452
0.163511
0.344305
0.551811
0.689722
0.761751
0.794754
0.806307
0.802638
0.777481
0.685616
0.50309
0.404218
0.359225
0.339856
0.328556
0.311913
0.277562
0.229498
0.177476
0.142649
0.120045
0.0999387
0.09471
0.097416
0.106851
0.121998
0.14727
0.196613
0.234573
0.262692
0.33214
0.459779
0.529743
0.542003
0.520623
0.417813
0.312288
0.269652
0.265767
0.285165
0.390786
0.63507
0.812772
0.914896
0.965325
0.987186
0.995663
0.998634
0.999586
0.999877
0.999964
0.999989
0.999997
0.999999
1
1
1