/*--------------------------------*- C++ -*----------------------------------*\
  =========                 |
  \\      /  F ield         | OpenFOAM: The Open Source CFD Toolbox
   \\    /   O peration     | Website:  https://openfoam.org
    \\  /    A nd           | Version:  9
     \\/     M anipulation  |
\*---------------------------------------------------------------------------*/
FoamFile
{
    format      ascii;
    class       volSymmTensorField;
    location    "0.012";
    object      UPrime2Mean;
}
// * * * * * * * * * * * * * * * * * * * * * * * * * * * * * * * * * * * * * //

dimensions      [0 2 -2 0 0 0 0];

internalField   nonuniform List<symmTensor> 
12225
(
(-48.962 -0.211137 0 0.00107854 0 0)
(-45.9248 -0.280492 0 -0.000801181 0 0)
(-42.9391 -0.254814 0 -0.000972641 0 0)
(-40.1321 -0.23259 0 -0.00100837 0 0)
(-37.51 -0.222923 0 -0.00107153 0 0)
(-35.039 -0.21464 0 -0.0010858 0 0)
(-32.6523 -0.208668 0 -0.0010899 0 0)
(-30.4029 -0.198014 0 -0.00106255 0 0)
(-28.2022 -0.194601 0 -0.000978431 0 0)
(-26.1994 -0.179745 0 -0.000952506 0 0)
(-24.1407 -0.186948 0 -0.000729784 0 0)
(-22.4109 -0.161372 0 -0.000803718 0 0)
(-20.3615 -0.198621 0 -1.57111e-05 0 0)
(-18.9389 -0.136592 0 -0.000500323 0 0)
(-16.6016 -0.260455 0 0.00298609 0 0)
(-15.5126 -0.0895367 0 0.00105797 0 0)
(-12.2334 -0.510605 0 0.0229446 0 0)
(-11.2211 -0.0979836 0 0.00378419 0 0)
(-50.2631 -0.289756 0 0.000790837 0 0)
(-50.9165 -0.402269 0 -0.00199728 0 0)
(-51.2066 -0.397967 0 -0.00230743 0 0)
(-51.2349 -0.402986 0 -0.00246585 0 0)
(-51.1444 -0.421477 0 -0.00275393 0 0)
(-50.9908 -0.445983 0 -0.00305788 0 0)
(-50.7633 -0.465172 0 -0.00332287 0 0)
(-50.4589 -0.492719 0 -0.00351817 0 0)
(-50.0546 -0.505151 0 -0.00366157 0 0)
(-49.572 -0.534296 0 -0.00345175 0 0)
(-48.9819 -0.53209 0 -0.00343249 0 0)
(-48.3461 -0.571758 0 -0.00245993 0 0)
(-47.5776 -0.555684 0 -0.00252189 0 0)
(-46.8018 -0.626933 0 0.000224108 0 0)
(-45.7924 -0.610257 0 -0.000142369 0 0)
(-44.8061 -0.757256 0 0.00859855 0 0)
(-43.3793 -0.854877 0 0.0128134 0 0)
(-42.0643 -1.27054 0 0.0668718 0 0)
(-50.0686 -0.160738 0 0.00243852 0 0)
(-50.4245 -0.31953 0 -0.00037899 0 0)
(-50.7318 -0.309533 0 -0.000776081 0 0)
(-50.947 -0.305022 0 -0.000958 0 0)
(-51.0782 -0.319527 0 -0.00126248 0 0)
(-51.1705 -0.335884 0 -0.00151539 0 0)
(-51.2508 -0.357652 0 -0.00163954 0 0)
(-51.3367 -0.38094 0 -0.00174475 0 0)
(-51.3997 -0.411738 0 -0.00157384 0 0)
(-51.4297 -0.43524 0 -0.00148458 0 0)
(-51.3912 -0.47196 0 -0.00061759 0 0)
(-51.2966 -0.493384 0 -0.000253207 0 0)
(-51.119 -0.548684 0 0.00220088 0 0)
(-50.8777 -0.576437 0 0.00309794 0 0)
(-50.5406 -0.682329 0 0.0101858 0 0)
(-50.1149 -0.764492 0 0.0156694 0 0)
(-49.6036 -1.02223 0 0.0439062 0 0)
(-49.0258 -1.36462 0 0.108116 0 0)
(-49.9531 -0.0733521 0 0.00323099 0 0)
(-50.0806 -0.271034 0 0.000477671 0 0)
(-50.2372 -0.294728 0 -0.000367731 0 0)
(-50.4044 -0.31971 0 -0.000899504 0 0)
(-50.5396 -0.356047 0 -0.00134454 0 0)
(-50.6325 -0.388836 0 -0.00160203 0 0)
(-50.6927 -0.414065 0 -0.00170657 0 0)
(-50.7324 -0.443512 0 -0.00163123 0 0)
(-50.757 -0.473405 0 -0.00146346 0 0)
(-50.7597 -0.513212 0 -0.000896264 0 0)
(-50.7326 -0.550766 0 -9.54598e-05 0 0)
(-50.6626 -0.59886 0 0.00169812 0 0)
(-50.5425 -0.646277 0 0.00415043 0 0)
(-50.3638 -0.712338 0 0.00888944 0 0)
(-50.1164 -0.802742 0 0.0166494 0 0)
(-49.8099 -0.937323 0 0.0319989 0 0)
(-49.4373 -1.1664 0 0.0665365 0 0)
(-49.0689 -1.47009 0 0.134384 0 0)
(-49.454 -0.21415 0 0.00343928 0 0)
(-49.4705 -0.295522 0 0.00050658 0 0)
(-49.6225 -0.317563 0 -0.000230972 0 0)
(-49.8245 -0.309135 0 -0.000410707 0 0)
(-49.9812 -0.309645 0 -0.000527448 0 0)
(-50.0779 -0.326791 0 -0.000581903 0 0)
(-50.1278 -0.35632 0 -0.000518888 0 0)
(-50.1453 -0.389966 0 -0.000317453 0 0)
(-50.1376 -0.42487 0 0.00026231 0 0)
(-50.1107 -0.459814 0 0.00120797 0 0)
(-50.0649 -0.500958 0 0.00289014 0 0)
(-49.9988 -0.548956 0 0.00539108 0 0)
(-49.9003 -0.61126 0 0.0095818 0 0)
(-49.7642 -0.690706 0 0.0163533 0 0)
(-49.5732 -0.799578 0 0.0280028 0 0)
(-49.341 -0.955348 0 0.0501792 0 0)
(-49.0596 -1.17066 0 0.0900681 0 0)
(-48.7959 -1.47237 0 0.170567 0 0)
(-49.4426 -0.0456271 0 0.00323628 0 0)
(-49.4596 -0.16237 0 0.0014565 0 0)
(-49.5586 -0.232703 0 0.000152292 0 0)
(-49.6782 -0.269233 0 -0.000285941 0 0)
(-49.7345 -0.301939 0 -0.000455875 0 0)
(-49.7358 -0.338832 0 -0.000489734 0 0)
(-49.7236 -0.376856 0 -0.000323261 0 0)
(-49.7171 -0.415858 0 0.000158575 0 0)
(-49.7095 -0.456426 0 0.0010824 0 0)
(-49.6881 -0.500799 0 0.002628 0 0)
(-49.6432 -0.55023 0 0.00509485 0 0)
(-49.5723 -0.606684 0 0.00892671 0 0)
(-49.4729 -0.675095 0 0.0149702 0 0)
(-49.3463 -0.761897 0 0.024605 0 0)
(-49.1893 -0.878725 0 0.0406556 0 0)
(-49.0108 -1.03864 0 0.068286 0 0)
(-48.8184 -1.25271 0 0.115856 0 0)
(-48.6491 -1.53696 0 0.199302 0 0)
(-49.9032 -0.19765 0 0.00337896 0 0)
(-49.9782 -0.261141 0 0.00194471 0 0)
(-50.0846 -0.292637 0 0.000772225 0 0)
(-50.2354 -0.305207 0 0.000477852 0 0)
(-50.3898 -0.31655 0 0.000513066 0 0)
(-50.5114 -0.336759 0 0.000734115 0 0)
(-50.5797 -0.368205 0 0.0012053 0 0)
(-50.5905 -0.406197 0 0.00205885 0 0)
(-50.5505 -0.446558 0 0.00348079 0 0)
(-50.4725 -0.490199 0 0.00572773 0 0)
(-50.3669 -0.540221 0 0.00913532 0 0)
(-50.2409 -0.600877 0 0.0143793 0 0)
(-50.0942 -0.675281 0 0.0223761 0 0)
(-49.9289 -0.770601 0 0.0350513 0 0)
(-49.7451 -0.892034 0 0.0550457 0 0)
(-49.555 -1.0522 0 0.0878147 0 0)
(-49.3742 -1.255 0 0.139992 0 0)
(-49.229 -1.51059 0 0.222815 0 0)
(-50.126 -0.043595 0 0.00631499 0 0)
(-50.2007 -0.13979 0 0.00302611 0 0)
(-50.2821 -0.193393 0 0.00193697 0 0)
(-50.3795 -0.227619 0 0.00186429 0 0)
(-50.4282 -0.25851 0 0.00201305 0 0)
(-50.4193 -0.297912 0 0.00229778 0 0)
(-50.3829 -0.349493 0 0.00276745 0 0)
(-50.3409 -0.408389 0 0.00364456 0 0)
(-50.2953 -0.468527 0 0.00532354 0 0)
(-50.2378 -0.528514 0 0.00822526 0 0)
(-50.1625 -0.589877 0 0.0127769 0 0)
(-50.0703 -0.657591 0 0.0196937 0 0)
(-49.9685 -0.736803 0 0.0300225 0 0)
(-49.8619 -0.835163 0 0.0457776 0 0)
(-49.7575 -0.957366 0 0.0696341 0 0)
(-49.6549 -1.11243 0 0.106483 0 0)
(-49.5712 -1.3013 0 0.161518 0 0)
(-49.5068 -1.53052 0 0.243137 0 0)
(-49.9528 -0.132413 0 0.00658686 0 0)
(-50.0449 -0.219469 0 0.004589 0 0)
(-50.1517 -0.260438 0 0.00281773 0 0)
(-50.2586 -0.291321 0 0.0022016 0 0)
(-50.302 -0.321511 0 0.00225864 0 0)
(-50.2975 -0.354096 0 0.00277843 0 0)
(-50.2908 -0.389856 0 0.00381264 0 0)
(-50.3099 -0.430852 0 0.0055374 0 0)
(-50.352 -0.47848 0 0.00820528 0 0)
(-50.394 -0.532715 0 0.0122078 0 0)
(-50.413 -0.592399 0 0.0180581 0 0)
(-50.401 -0.659339 0 0.0266177 0 0)
(-50.3634 -0.736755 0 0.0390366 0 0)
(-50.313 -0.831425 0 0.0573722 0 0)
(-50.2623 -0.948016 0 0.0842005 0 0)
(-50.2217 -1.09455 0 0.123761 0 0)
(-50.2019 -1.2704 0 0.180091 0 0)
(-50.2115 -1.48121 0 0.259271 0 0)
(-50.381 -0.0544259 0 0.00654944 0 0)
(-50.4874 -0.0823237 0 0.00403956 0 0)
(-50.5244 -0.148754 0 0.00282745 0 0)
(-50.5615 -0.215462 0 0.00241702 0 0)
(-50.5725 -0.265052 0 0.00267716 0 0)
(-50.5551 -0.302864 0 0.00347018 0 0)
(-50.5214 -0.339867 0 0.00480092 0 0)
(-50.4842 -0.384496 0 0.00690037 0 0)
(-50.4525 -0.440086 0 0.0100719 0 0)
(-50.4325 -0.506317 0 0.0147727 0 0)
(-50.4207 -0.580811 0 0.0216588 0 0)
(-50.4135 -0.662374 0 0.0317446 0 0)
(-50.4027 -0.750595 0 0.0462195 0 0)
(-50.3897 -0.85 0 0.0669727 0 0)
(-50.3694 -0.963641 0 0.0961796 0 0)
(-50.3539 -1.09923 0 0.137355 0 0)
(-50.3418 -1.25591 0 0.193426 0 0)
(-50.3596 -1.43892 0 0.268743 0 0)
(-49.6251 -0.0466622 0 0.0077826 0 0)
(-49.6367 -0.139702 0 0.00589801 0 0)
(-49.6602 -0.218251 0 0.00401834 0 0)
(-49.7664 -0.279493 0 0.00345548 0 0)
(-49.8942 -0.323033 0 0.00382327 0 0)
(-49.9868 -0.358969 0 0.00499565 0 0)
(-50.0252 -0.396387 0 0.00700183 0 0)
(-50.0258 -0.438806 0 0.00996419 0 0)
(-50.0174 -0.485809 0 0.0141506 0 0)
(-50.0198 -0.536738 0 0.0200414 0 0)
(-50.0406 -0.591863 0 0.0282669 0 0)
(-50.0774 -0.654962 0 0.0397901 0 0)
(-50.1259 -0.72979 0 0.055841 0 0)
(-50.1793 -0.821995 0 0.0783132 0 0)
(-50.2364 -0.932954 0 0.109162 0 0)
(-50.2974 -1.06663 0 0.151298 0 0)
(-50.3706 -1.21783 0 0.206603 0 0)
(-50.4651 -1.38905 0 0.278237 0 0)
(-49.6742 -0.0252333 0 0.00603427 0 0)
(-49.6306 -0.0418997 0 0.00483554 0 0)
(-49.691 -0.122365 0 0.00354301 0 0)
(-49.8351 -0.194992 0 0.00298917 0 0)
(-49.9654 -0.247271 0 0.00338461 0 0)
(-50.041 -0.29435 0 0.00465361 0 0)
(-50.0736 -0.344191 0 0.00683367 0 0)
(-50.0997 -0.396432 0 0.0101012 0 0)
(-50.1438 -0.450044 0 0.0147628 0 0)
(-50.206 -0.506721 0 0.0213401 0 0)
(-50.2684 -0.568232 0 0.0305091 0 0)
(-50.3207 -0.637624 0 0.0432338 0 0)
(-50.3577 -0.716119 0 0.0606214 0 0)
(-50.3921 -0.807198 0 0.0843021 0 0)
(-50.4304 -0.909994 0 0.115774 0 0)
(-50.4934 -1.02885 0 0.157386 0 0)
(-50.5815 -1.15753 0 0.210218 0 0)
(-50.7159 -1.30239 0 0.276865 0 0)
(-49.4648 -0.101896 0 0.00721789 0 0)
(-49.5066 -0.0986348 0 0.00636808 0 0)
(-49.4998 -0.15882 0 0.00473442 0 0)
(-49.5212 -0.220087 0 0.00428666 0 0)
(-49.5756 -0.274032 0 0.00494483 0 0)
(-49.6501 -0.322991 0 0.00655057 0 0)
(-49.7328 -0.365898 0 0.00915587 0 0)
(-49.8248 -0.404457 0 0.0128961 0 0)
(-49.9265 -0.444502 0 0.0181269 0 0)
(-50.0304 -0.492219 0 0.0254569 0 0)
(-50.1265 -0.549402 0 0.0355749 0 0)
(-50.214 -0.616552 0 0.0493736 0 0)
(-50.2949 -0.692363 0 0.0677873 0 0)
(-50.3772 -0.77793 0 0.0921705 0 0)
(-50.4627 -0.871716 0 0.123651 0 0)
(-50.5586 -0.976714 0 0.164121 0 0)
(-50.6663 -1.08879 0 0.214186 0 0)
(-50.7921 -1.21227 0 0.275925 0 0)
(-50.3897 0.0623052 0 0.0100364 0 0)
(-50.5062 -0.0534993 0 0.00830533 0 0)
(-50.5424 -0.12594 0 0.00555318 0 0)
(-50.6066 -0.179898 0 0.00496435 0 0)
(-50.7029 -0.227557 0 0.00559927 0 0)
(-50.7963 -0.268625 0 0.00735837 0 0)
(-50.8583 -0.304021 0 0.0102429 0 0)
(-50.8893 -0.340654 0 0.0143958 0 0)
(-50.9038 -0.385064 0 0.0201662 0 0)
(-50.9097 -0.439296 0 0.0280874 0 0)
(-50.9111 -0.500816 0 0.0387992 0 0)
(-50.9124 -0.5684 0 0.0531608 0 0)
(-50.9223 -0.640946 0 0.0719956 0 0)
(-50.9448 -0.72135 0 0.0964957 0 0)
(-50.9868 -0.809172 0 0.127489 0 0)
(-51.0484 -0.907856 0 0.16651 0 0)
(-51.1364 -1.01195 0 0.213585 0 0)
(-51.2494 -1.12445 0 0.270296 0 0)
(-50.546 -0.0133647 0 0.0101799 0 0)
(-50.3539 -0.071942 0 0.0079163 0 0)
(-50.1954 -0.107582 0 0.00585309 0 0)
(-50.1553 -0.145083 0 0.00604088 0 0)
(-50.2228 -0.19846 0 0.00740966 0 0)
(-50.3268 -0.260259 0 0.00975654 0 0)
(-50.4091 -0.320269 0 0.013288 0 0)
(-50.4718 -0.375972 0 0.0182438 0 0)
(-50.5374 -0.430443 0 0.0249376 0 0)
(-50.6135 -0.486938 0 0.0338699 0 0)
(-50.6921 -0.545975 0 0.0455916 0 0)
(-50.7679 -0.607493 0 0.0607941 0 0)
(-50.8402 -0.6701 0 0.0800261 0 0)
(-50.9175 -0.735033 0 0.104162 0 0)
(-51.0053 -0.800904 0 0.133569 0 0)
(-51.1165 -0.871417 0 0.169403 0 0)
(-51.2502 -0.941407 0 0.211289 0 0)
(-51.4209 -1.01693 0 0.260706 0 0)
(-50.3665 -0.0774068 0 0.0116475 0 0)
(-50.3017 -0.107994 0 0.00998042 0 0)
(-50.1886 -0.158057 0 0.00770129 0 0)
(-50.1109 -0.185053 0 0.00800947 0 0)
(-50.1047 -0.203593 0 0.0097412 0 0)
(-50.161 -0.223397 0 0.01218 0 0)
(-50.2365 -0.245849 0 0.0153824 0 0)
(-50.3061 -0.272672 0 0.0198262 0 0)
(-50.3705 -0.307013 0 0.0260459 0 0)
(-50.4375 -0.351981 0 0.0345769 0 0)
(-50.5095 -0.40732 0 0.0458736 0 0)
(-50.5909 -0.470151 0 0.0604709 0 0)
(-50.6779 -0.534649 0 0.0787252 0 0)
(-50.7764 -0.598231 0 0.101166 0 0)
(-50.8797 -0.657698 0 0.127779 0 0)
(-51.0041 -0.716666 0 0.159334 0 0)
(-51.1351 -0.771707 0 0.195279 0 0)
(-51.3033 -0.828975 0 0.236773 0 0)
(-49.5184 -0.0273153 0 0.0153005 0 0)
(-49.4933 -0.121592 0 0.0159106 0 0)
(-49.4555 -0.171746 0 0.0107526 0 0)
(-49.4617 -0.180513 0 0.0086945 0 0)
(-49.5254 -0.183629 0 0.00958804 0 0)
(-49.6186 -0.205136 0 0.0125202 0 0)
(-49.712 -0.250245 0 0.0167048 0 0)
(-49.7897 -0.309552 0 0.022079 0 0)
(-49.8508 -0.368378 0 0.0291265 0 0)
(-49.9061 -0.420063 0 0.0382818 0 0)
(-49.9672 -0.465706 0 0.0497724 0 0)
(-50.0411 -0.509845 0 0.0639775 0 0)
(-50.1255 -0.552582 0 0.081065 0 0)
(-50.2199 -0.594544 0 0.101401 0 0)
(-50.322 -0.631391 0 0.124682 0 0)
(-50.4391 -0.66508 0 0.151412 0 0)
(-50.5702 -0.689921 0 0.180591 0 0)
(-50.7272 -0.711834 0 0.213357 0 0)
(-49.5461 -0.0698692 0 0.0141533 0 0)
(-49.4957 -0.153435 0 0.0141052 0 0)
(-49.486 -0.159974 0 0.0114619 0 0)
(-49.5469 -0.142222 0 0.0101966 0 0)
(-49.5971 -0.125082 0 0.0105744 0 0)
(-49.6266 -0.123231 0 0.0123922 0 0)
(-49.6723 -0.141313 0 0.0154268 0 0)
(-49.7496 -0.17272 0 0.0196695 0 0)
(-49.8554 -0.208254 0 0.0253827 0 0)
(-49.9863 -0.244541 0 0.0328811 0 0)
(-50.1385 -0.282637 0 0.0423585 0 0)
(-50.3049 -0.323937 0 0.0540001 0 0)
(-50.481 -0.36564 0 0.0677743 0 0)
(-50.6624 -0.403958 0 0.0837969 0 0)
(-50.85 -0.432704 0 0.101679 0 0)
(-51.0372 -0.450766 0 0.121571 0 0)
(-51.2288 -0.454584 0 0.142528 0 0)
(-51.4122 -0.449388 0 0.16519 0 0)
(-50.2647 -0.102092 0 0.011835 0 0)
(-50.3135 -0.0587775 0 0.0120942 0 0)
(-50.3968 -0.0703409 0 0.0101035 0 0)
(-50.5253 -0.107172 0 0.0102908 0 0)
(-50.6202 -0.135496 0 0.0120007 0 0)
(-50.6795 -0.151764 0 0.0143867 0 0)
(-50.7262 -0.161087 0 0.0174066 0 0)
(-50.7693 -0.166445 0 0.0212834 0 0)
(-50.811 -0.170069 0 0.0261495 0 0)
(-50.8595 -0.173754 0 0.0320978 0 0)
(-50.9241 -0.177915 0 0.0391732 0 0)
(-51.011 -0.182803 0 0.0474988 0 0)
(-51.1178 -0.188189 0 0.0571101 0 0)
(-51.2425 -0.194616 0 0.0681959 0 0)
(-51.3781 -0.201247 0 0.0805843 0 0)
(-51.5238 -0.208441 0 0.0945519 0 0)
(-51.6704 -0.213227 0 0.109478 0 0)
(-51.8217 -0.216886 0 0.125897 0 0)
(-49.3831 0.00255908 0 0.0116725 0 0)
(-49.4082 0.0397986 0 0.0141542 0 0)
(-49.4163 0.00157515 0 0.0108807 0 0)
(-49.4544 -0.0276842 0 0.0089403 0 0)
(-49.5287 -0.0399362 0 0.00921047 0 0)
(-49.6461 -0.0535517 0 0.0107508 0 0)
(-49.7901 -0.076122 0 0.0131195 0 0)
(-49.9363 -0.101832 0 0.0161609 0 0)
(-50.0683 -0.120345 0 0.0198255 0 0)
(-50.1808 -0.126205 0 0.0239826 0 0)
(-50.2753 -0.120859 0 0.0284955 0 0)
(-50.3593 -0.109871 0 0.0334897 0 0)
(-50.4403 -0.098016 0 0.0391619 0 0)
(-50.5257 -0.0874662 0 0.0457025 0 0)
(-50.6173 -0.0767934 0 0.0529311 0 0)
(-50.7175 -0.0639786 0 0.0608758 0 0)
(-50.8228 -0.0458894 0 0.0690563 0 0)
(-50.9345 -0.0222293 0 0.0776282 0 0)
(-49.8859 -0.0198112 0 0.0116948 0 0)
(-49.973 0.0143639 0 0.012573 0 0)
(-50.008 -0.00176942 0 0.00926258 0 0)
(-50.0625 -0.0184663 0 0.00765903 0 0)
(-50.1312 -0.00505922 0 0.00740516 0 0)
(-50.1934 0.0262429 0 0.0073549 0 0)
(-50.2601 0.0480861 0 0.00812176 0 0)
(-50.3428 0.0458394 0 0.010097 0 0)
(-50.4371 0.0241891 0 0.0129003 0 0)
(-50.5344 -0.00269705 0 0.0163055 0 0)
(-50.6302 -0.0226682 0 0.0202434 0 0)
(-50.7236 -0.0301795 0 0.024566 0 0)
(-50.8166 -0.025588 0 0.0290692 0 0)
(-50.9101 -0.0124928 0 0.0337635 0 0)
(-51.0057 0.00512695 0 0.0386813 0 0)
(-51.1022 0.0238739 0 0.0440571 0 0)
(-51.1995 0.0430837 0 0.0497308 0 0)
(-51.2943 0.0612333 0 0.0559383 0 0)
(-50.2308 0.0815212 0 0.0114385 0 0)
(-50.1718 0.0661377 0 0.00857734 0 0)
(-50.1952 0.04042 0 0.00579104 0 0)
(-50.3151 0.0174031 0 0.00502716 0 0)
(-50.4333 0.00975438 0 0.00536207 0 0)
(-50.495 0.0126923 0 0.00617663 0 0)
(-50.5108 0.0158173 0 0.00730569 0 0)
(-50.5169 0.0152047 0 0.00876297 0 0)
(-50.5408 0.0133502 0 0.0105157 0 0)
(-50.5915 0.0146839 0 0.0125068 0 0)
(-50.6641 0.0221649 0 0.0146549 0 0)
(-50.7468 0.0359896 0 0.0169155 0 0)
(-50.831 0.0546274 0 0.0192782 0 0)
(-50.911 0.0756063 0 0.021844 0 0)
(-50.9858 0.0976812 0 0.0246026 0 0)
(-51.0544 0.120035 0 0.0276491 0 0)
(-51.1223 0.143726 0 0.0308018 0 0)
(-51.1881 0.169038 0 0.0341164 0 0)
(-49.98 -0.0139567 0 0.00897862 0 0)
(-50.0437 0.0286639 0 0.00609778 0 0)
(-50.1955 0.0703915 0 0.00379365 0 0)
(-50.4509 0.0841614 0 0.00307303 0 0)
(-50.7298 0.0776379 0 0.00323418 0 0)
(-50.9589 0.0694993 0 0.00398127 0 0)
(-51.1274 0.0674253 0 0.00498254 0 0)
(-51.2547 0.068992 0 0.00605906 0 0)
(-51.3577 0.0703233 0 0.00724082 0 0)
(-51.4458 0.0711156 0 0.00860307 0 0)
(-51.5231 0.0732912 0 0.0101761 0 0)
(-51.592 0.0784106 0 0.0119566 0 0)
(-51.6541 0.0869957 0 0.0138996 0 0)
(-51.7122 0.0988042 0 0.015987 0 0)
(-51.7673 0.113617 0 0.0181381 0 0)
(-51.8206 0.131808 0 0.0203616 0 0)
(-51.8703 0.153791 0 0.0225093 0 0)
(-51.9171 0.18058 0 0.0245624 0 0)
(-49.9736 0.0953404 0 0.0074987 0 0)
(-50.1174 0.122204 0 0.00601442 0 0)
(-50.1523 0.175486 0 0.00384238 0 0)
(-50.1673 0.195674 0 0.00305653 0 0)
(-50.1865 0.18621 0 0.00298454 0 0)
(-50.2062 0.163435 0 0.00324825 0 0)
(-50.225 0.138514 0 0.00369993 0 0)
(-50.2518 0.117631 0 0.00430559 0 0)
(-50.2935 0.103465 0 0.00505737 0 0)
(-50.3513 0.0970769 0 0.00593334 0 0)
(-50.422 0.0988346 0 0.00687592 0 0)
(-50.5004 0.108211 0 0.00782105 0 0)
(-50.582 0.12374 0 0.00873297 0 0)
(-50.6645 0.143243 0 0.0096412 0 0)
(-50.7465 0.164714 0 0.0105619 0 0)
(-50.8272 0.18668 0 0.0115767 0 0)
(-50.9056 0.208919 0 0.0126368 0 0)
(-50.9823 0.231265 0 0.0137449 0 0)
(-50.4801 0.10907 0 0.0068722 0 0)
(-50.4261 0.125754 0 0.00479942 0 0)
(-50.3969 0.124457 0 0.00299373 0 0)
(-50.4313 0.112492 0 0.0025975 0 0)
(-50.4749 0.102372 0 0.00278575 0 0)
(-50.5031 0.100308 0 0.00317739 0 0)
(-50.5405 0.104321 0 0.00358238 0 0)
(-50.6166 0.110942 0 0.00397972 0 0)
(-50.733 0.118883 0 0.00440066 0 0)
(-50.8701 0.128577 0 0.00486131 0 0)
(-51.0059 0.140481 0 0.00535294 0 0)
(-51.1253 0.154246 0 0.00586786 0 0)
(-51.2243 0.169211 0 0.00640478 0 0)
(-51.3042 0.185221 0 0.00696739 0 0)
(-51.3708 0.202937 0 0.00751174 0 0)
(-51.4272 0.223043 0 0.00804667 0 0)
(-51.479 0.246203 0 0.0084907 0 0)
(-51.5251 0.272447 0 0.00883309 0 0)
(-49.8317 0.0604059 0 0.00708547 0 0)
(-49.8165 0.146822 0 0.00445203 0 0)
(-49.8784 0.185659 0 0.00233265 0 0)
(-50.0128 0.183246 0 0.00157006 0 0)
(-50.1824 0.16823 0 0.00136014 0 0)
(-50.3528 0.162405 0 0.00137452 0 0)
(-50.5068 0.168909 0 0.00144065 0 0)
(-50.6434 0.180128 0 0.00146678 0 0)
(-50.7654 0.188599 0 0.00153726 0 0)
(-50.8757 0.19208 0 0.00171318 0 0)
(-50.9783 0.192461 0 0.0019823 0 0)
(-51.0775 0.193113 0 0.00231514 0 0)
(-51.1765 0.196868 0 0.00267341 0 0)
(-51.2762 0.205193 0 0.00301198 0 0)
(-51.3748 0.218258 0 0.00327907 0 0)
(-51.4676 0.235163 0 0.00348654 0 0)
(-51.5513 0.254945 0 0.00361486 0 0)
(-51.6215 0.276552 0 0.00368424 0 0)
(-50.4109 0.0795296 0 0.00501352 0 0)
(-50.4531 0.167911 0 0.00188507 0 0)
(-50.4872 0.187039 0 0.000698693 0 0)
(-50.529 0.184037 0 0.000573561 0 0)
(-50.5939 0.18477 0 0.000628293 0 0)
(-50.685 0.193005 0 0.000667794 0 0)
(-50.7875 0.200538 0 0.000720407 0 0)
(-50.8884 0.202979 0 0.00083579 0 0)
(-50.9821 0.203594 0 0.000991727 0 0)
(-51.0684 0.207565 0 0.00113346 0 0)
(-51.1506 0.217336 0 0.00120269 0 0)
(-51.2311 0.232235 0 0.00117347 0 0)
(-51.3102 0.249906 0 0.00107491 0 0)
(-51.3862 0.268251 0 0.0009611 0 0)
(-51.4566 0.285948 0 0.000866584 0 0)
(-51.5177 0.302897 0 0.00080843 0 0)
(-51.5683 0.319436 0 0.000765883 0 0)
(-51.6068 0.336514 0 0.000711153 0 0)
(-49.3688 0.0914644 0 0.00456469 0 0)
(-49.6045 0.158728 0 0.00229232 0 0)
(-49.8178 0.185816 0 0.00121896 0 0)
(-50.0417 0.194839 0 0.000804815 0 0)
(-50.2648 0.199757 0 0.000616938 0 0)
(-50.4603 0.21047 0 0.000477968 0 0)
(-50.6182 0.223436 0 0.000336283 0 0)
(-50.7491 0.232099 0 0.000233267 0 0)
(-50.8693 0.235148 0 0.000189773 0 0)
(-50.9869 0.235533 0 0.000180531 0 0)
(-51.1 0.236411 0 0.000181474 0 0)
(-51.201 0.23976 0 0.000174374 0 0)
(-51.2863 0.245856 0 0.000150039 0 0)
(-51.3568 0.254465 0 0.00010216 0 0)
(-51.4197 0.264702 0 3.16851e-05 0 0)
(-51.4783 0.276555 0 -4.94942e-05 0 0)
(-51.5381 0.289689 0 -0.000148151 0 0)
(-51.5963 0.304773 0 -0.000283468 0 0)
(-49.6636 0.168293 0 0.00276063 0 0)
(-50.0005 0.239894 0 0.000447934 0 0)
(-50.2366 0.254641 0 -0.000126997 0 0)
(-50.416 0.26146 0 -0.00034268 0 0)
(-50.5611 0.265507 0 -0.000419797 0 0)
(-50.685 0.266005 0 -0.00044975 0 0)
(-50.7861 0.264367 0 -0.000457234 0 0)
(-50.8581 0.26308 0 -0.000443348 0 0)
(-50.9007 0.264201 0 -0.000431483 0 0)
(-50.9243 0.268356 0 -0.00044479 0 0)
(-50.9387 0.274907 0 -0.000486968 0 0)
(-50.9503 0.283654 0 -0.000560595 0 0)
(-50.9545 0.294403 0 -0.000667772 0 0)
(-50.9491 0.307465 0 -0.000820168 0 0)
(-50.9225 0.322111 0 -0.00101865 0 0)
(-50.8757 0.338123 0 -0.00124897 0 0)
(-50.796 0.354392 0 -0.00149872 0 0)
(-50.6965 0.371215 0 -0.00177759 0 0)
(-49.6727 0.202193 0 0.00157601 0 0)
(-48.04 0.241464 0 8.29717e-05 0 0)
(-46.3989 0.242303 0 -0.000323818 0 0)
(-44.7665 0.239569 0 -0.000505019 0 0)
(-43.1745 0.238228 0 -0.00065289 0 0)
(-41.6503 0.237116 0 -0.000775215 0 0)
(-40.2124 0.233233 0 -0.000838273 0 0)
(-38.8687 0.225126 0 -0.000839651 0 0)
(-37.6156 0.214978 0 -0.000816864 0 0)
(-36.4425 0.206428 0 -0.000801509 0 0)
(-35.3314 0.20137 0 -0.000810504 0 0)
(-34.2667 0.199212 0 -0.000846286 0 0)
(-33.2336 0.197909 0 -0.000888398 0 0)
(-32.2329 0.195872 0 -0.000915262 0 0)
(-31.2584 0.19226 0 -0.000919444 0 0)
(-30.3219 0.187811 0 -0.000910847 0 0)
(-29.4069 0.18301 0 -0.000895061 0 0)
(-28.5362 0.179551 0 -0.000890862 0 0)
(0.00118482 -0.00343379 3.23919e-24 0.0089729 -2.84005e-23 5.40789e-39)
(0.00959001 -0.0103733 -9.49156e-24 0.00958199 3.25892e-23 5.33031e-39)
(0.0261261 -0.0167008 0 0.00923936 0 0)
(0.0487985 -0.0220021 0 0.00871555 0 0)
(0.0748671 -0.0256805 0 0.00791475 0 0)
(0.101566 -0.0274052 1.05335e-23 0.00685305 -1.46599e-23 5.01626e-39)
(0.125436 -0.0269229 0 0.00557709 0 0)
(0.142963 -0.0241585 0 0.00415095 0 0)
(0.150458 -0.0190932 0 0.00263255 0 0)
(0.143904 -0.0117043 0 0.00106711 0 0)
(0.119108 -0.00188933 1.01055e-22 -0.000526754 -1.60174e-23 4.63954e-39)
(0.0718813 0.0104527 0 -0.00212837 0 0)
(-0.00200355 0.0254096 0 -0.00371121 0 0)
(-0.106667 0.042848 0 -0.00520665 0 0)
(-0.245707 0.0624001 0 -0.00653527 0 0)
(-0.421681 0.0833407 3.41668e-22 -0.00757633 -4.02647e-23 4.27862e-39)
(-0.636183 0.104831 0 -0.00824888 0 0)
(-0.889362 0.125958 0 -0.00848822 0 0)
(-1.17972 0.145806 0 -0.00825718 0 0)
(-1.5043 0.163513 0 -0.00754124 0 0)
(-1.85828 0.178267 0 -0.00635049 0 0)
(-2.2346 0.189103 0 -0.00467614 0 0)
(-2.62415 0.19507 0 -0.0025611 0 0)
(-3.01585 0.195088 8.31415e-22 -3.89665e-05 -2.04357e-23 3.73849e-39)
(-3.3968 0.188459 -8.57434e-22 0.0027696 8.281e-24 3.67461e-39)
(-3.75236 0.174546 8.60796e-22 0.00576526 6.58934e-24 3.61158e-39)
(-4.06699 0.153081 8.352e-22 0.00881479 2.41624e-23 3.54943e-39)
(-4.32416 0.124157 0 0.0117717 0 0)
(-4.50738 0.0881952 0 0.0144943 0 0)
(-4.6009 0.0459814 -5.16139e-22 0.0168436 -9.0127e-23 3.36847e-39)
(-4.59077 -0.00136447 -3.07949e-22 0.0186931 -1.14699e-22 3.31e-39)
(-4.46482 -0.0523031 0 0.0199204 0 0)
(-4.21418 -0.105332 0 0.0204646 0 0)
(-3.83438 -0.158489 6.75615e-22 0.0202647 -1.83549e-22 3.14023e-39)
(-3.32448 -0.209756 0 0.0193094 0 0)
(-2.68918 -0.257237 0 0.0176411 0 0)
(-1.93767 -0.29907 -2.14324e-21 0.0153329 2.22327e-22 2.97873e-39)
(-1.08407 -0.333656 0 0.0124954 0 0)
(-0.146708 -0.359735 -3.26041e-21 0.00926653 2.19941e-22 2.87537e-39)
(0.85247 -0.376475 -7.62476e-21 0.00579689 4.18603e-22 1.12996e-38)
(1.88909 -0.38349 0 0.00223201 0 0)
(2.9374 -0.380757 0 -0.00129352 0 0)
(3.97187 -0.368632 0 -0.00465916 0 0)
(4.96797 -0.347811 0 -0.00777193 0 0)
(5.90232 -0.319244 0 -0.0105576 0 0)
(6.75395 -0.284012 -1.19136e-20 -0.0129398 8.9638e-23 1.01486e-38)
(7.50504 -0.243594 -1.20224e-20 -0.0148716 1.98973e-23 9.96589e-39)
(8.14145 -0.199579 -1.19382e-20 -0.0163301 -4.77509e-23 9.78563e-39)
(8.65303 -0.153313 0 -0.0172987 0 0)
(9.03416 -0.106576 1.12333e-20 -0.0178079 1.68277e-22 9.43238e-39)
(9.2827 -0.0608457 0 -0.0178917 0 0)
(9.40168 -0.0172415 -9.94556e-21 -0.0175843 -2.59387e-22 9.08833e-39)
(9.39721 0.022906 -9.14506e-21 -0.0169833 -2.91849e-22 8.91964e-39)
(9.27797 0.0589759 0 -0.0161296 0 0)
(9.05479 0.0904664 0 -0.0151122 0 0)
(8.73963 0.117197 0 -0.0139924 0 0)
(8.34489 0.139232 -5.48971e-21 -0.0128202 -3.42315e-22 8.26698e-39)
(7.88306 0.156796 0 -0.0116402 0 0)
(7.36654 0.170263 0 -0.0104921 0 0)
(6.80588 0.179872 0 -0.00938632 0 0)
(6.21149 0.186326 0 -0.00835238 0 0)
(5.59322 0.189767 0 -0.0073913 0 0)
(4.95835 0.190875 0 -0.0065126 0 0)
(4.31486 0.189894 0 -0.00571491 0 0)
(3.6696 0.187377 0 -0.00499737 0 0)
(3.02727 0.183203 -1.30841e-21 -0.00435357 2.30301e-22 6.91413e-39)
(2.39208 0.178064 0 -0.00378086 0 0)
(1.76721 0.171864 0 -0.00327345 0 0)
(1.15536 0.164966 2.68244e-21 -0.00282604 -1.83718e-22 6.49869e-39)
(0.559884 0.157541 3.05281e-21 -0.00243306 -1.69336e-22 6.36506e-39)
(-0.017073 0.149744 0 -0.00208911 0 0)
(-0.573831 0.141712 -3.67913e-21 -0.00178906 1.42723e-22 6.10501e-39)
(-1.10913 0.13356 3.94076e-21 -0.0015281 -1.30544e-22 5.9785e-39)
(-1.62207 0.125386 0 -0.00130181 0 0)
(-2.11205 0.117274 -4.37459e-21 -0.00110614 1.08453e-22 5.73225e-39)
(-2.57873 0.109292 0 -0.000937403 0 0)
(-3.02202 0.101498 0 -0.000792287 0 0)
(-3.44198 0.0939378 4.83889e-21 -0.000667813 -8.07378e-23 5.37917e-39)
(-3.83888 0.0866468 0 -0.000561324 0 0)
(-4.21308 0.0796535 -5.04939e-21 -0.000470456 6.55668e-23 5.15417e-39)
(-4.56508 0.0729787 0 -0.00039312 0 0)
(-4.89546 0.0666369 5.19762e-21 -0.00032747 -5.27407e-23 4.93713e-39)
(-5.20489 0.0606375 5.25221e-21 -0.000271888 -4.71235e-23 4.83151e-39)
(-5.49409 0.0549852 5.29554e-21 -0.000224952 -4.1993e-23 4.72776e-39)
(-5.76382 0.0496808 1.06576e-20 -0.000185426 -7.46342e-23 1.85035e-38)
(-6.01488 0.044722 -1.07062e-20 -0.000152232 6.61305e-23 1.81032e-38)
(-6.2481 0.0401035 0 -0.000124435 0 0)
(-6.46432 0.0358179 0 -0.000101227 0 0)
(-6.66439 0.0318555 0 -8.19123e-05 0 0)
(-6.84917 0.0282052 -1.07571e-20 -6.58914e-05 3.94437e-23 1.65725e-38)
(-7.01948 0.0248545 -1.07417e-20 -5.26508e-05 3.43385e-23 1.62068e-38)
(-7.17618 0.0217898 1.07176e-20 -4.17508e-05 -2.97632e-23 1.58478e-38)
(-7.32008 0.0189969 0 -3.28166e-05 0 0)
(-7.45197 0.0164609 -1.06476e-20 -2.55285e-05 2.2027e-23 1.51489e-38)
(-7.57264 0.0141671 -1.06035e-20 -1.96151e-05 1.87877e-23 1.48089e-38)
(-7.68284 0.0121004 -1.05544e-20 -1.48459e-05 1.59182e-23 1.44751e-38)
(-7.78329 0.0102453 0 -1.1026e-05 0 0)
(-7.8747 0.00858642 0 -7.99081e-06 0 0)
(-7.95771 0.00710819 0 -5.60188e-06 0 0)
(-8.03297 0.00579559 -1.03213e-20 -3.74301e-06 7.47446e-24 1.31995e-38)
(-8.10107 0.00463389 0 -2.31671e-06 0 0)
(-8.16257 0.00360931 0 -1.24222e-06 0 0)
(-8.21799 0.00270786 1.0122e-20 -4.51397e-07 -3.52213e-24 1.23029e-38)
(-8.26783 0.00191728 0 1.10951e-07 0 0)
(-8.31255 0.00122415 0 4.92149e-07 0 0)
(-8.35255 0.00061775 9.91274e-21 7.29112e-07 -9.92588e-25 1.1455e-38)
(-8.38825 8.40288e-05 0 8.54787e-07 0 0)
(-8.41995 -0.00038581 0 8.9284e-07 0 0)
(-8.44805 -0.000808114 -9.69995e-21 8.66304e-07 -7.12487e-25 1.06536e-38)
(-8.47272 -0.00119118 -9.62893e-21 7.90493e-07 -1.1456e-24 1.03964e-38)
(-8.49439 -0.0015566 0 6.81322e-07 0 0)
(-8.51295 -0.0019107 9.48743e-21 5.49401e-07 1.92829e-24 9.8965e-39)
(-8.52862 -0.00225157 0 4.02977e-07 0 0)
(-8.54165 -0.00257365 -9.34665e-21 2.50606e-07 -2.61958e-24 9.41535e-39)
(-8.55225 -0.00287012 0 9.86905e-08 0 0)
(-8.56061 -0.00314034 -9.20717e-21 -4.68597e-08 -3.21401e-24 8.95238e-39)
(-8.56691 -0.003379 -9.13804e-21 -1.82705e-07 -3.45781e-24 8.72753e-39)
(-8.57132 -0.00358548 0 -3.07673e-07 0 0)
(-8.57402 -0.00376786 0 -4.18845e-07 0 0)
(-8.57512 -0.00393065 0 -5.14655e-07 0 0)
(-8.57475 -0.00407335 0 -5.95057e-07 0 0)
(-8.57304 -0.00419516 0 -6.60453e-07 0 0)
(-8.57011 -0.00429642 0 -7.11246e-07 0 0)
(-8.56608 -0.00437827 0 -7.48037e-07 0 0)
(-8.56105 -0.0044411 -8.6042e-21 -7.71643e-07 -4.30344e-24 7.07898e-39)
(-8.55513 -0.00448217 8.54016e-21 -7.83048e-07 4.31309e-24 6.8907e-39)
(-8.54845 -0.00449499 0 -7.83361e-07 0 0)
(-8.54111 -0.00447272 0 -7.74322e-07 0 0)
(-8.53327 -0.00441216 0 -7.5853e-07 0 0)
(-8.52504 -0.00431649 0 -7.39031e-07 0 0)
(-8.51654 -0.00419433 1.64607e-20 -7.18252e-07 7.79781e-24 2.40172e-38)
(-8.50786 -0.00405698 0 -6.97547e-07 0 0)
(-8.49906 -0.00391491 -1.62233e-20 -6.7736e-07 -7.19164e-24 2.26972e-38)
(-8.49015 -0.00377575 1.61069e-20 -6.57799e-07 6.89629e-24 2.20574e-38)
(-8.48115 -0.0036437 0 -6.38907e-07 0 0)
(-8.47206 -0.0035204 0 -6.20774e-07 0 0)
(-8.46287 -0.00340595 0 -6.03466e-07 0 0)
(-8.45357 -0.00329995 -1.56551e-20 -5.87055e-07 -5.89552e-24 1.96275e-38)
(-8.44417 -0.00320192 -1.55453e-20 -5.71567e-07 -5.6897e-24 1.90514e-38)
(-8.43466 -0.00311152 0 -5.57056e-07 0 0)
(-8.42505 -0.00302848 -1.53294e-20 -5.43538e-07 -5.32442e-24 1.79353e-38)
(-8.41533 -0.00295257 -1.52232e-20 -5.31055e-07 -5.16361e-24 1.73949e-38)
(-8.40551 -0.0028835 1.51181e-20 -5.19621e-07 5.01635e-24 1.68661e-38)
(-8.39557 -0.00282096 0 -5.09262e-07 0 0)
(-8.38552 -0.00276464 0 -4.99986e-07 0 0)
(-8.37535 -0.00271424 1.48089e-20 -4.91815e-07 4.64758e-24 1.53473e-38)
(-8.36507 -0.00266946 0 -4.84757e-07 0 0)
(-8.35466 -0.00263007 0 -4.78847e-07 0 0)
(-8.34412 -0.00259586 0 -4.74118e-07 0 0)
(-8.33344 -0.00256676 0 -4.70646e-07 0 0)
(-8.32261 -0.00254265 -1.43132e-20 -4.68501e-07 -4.23849e-24 1.303e-38)
(-8.31162 -0.00252372 -1.42168e-20 -4.6784e-07 -4.18428e-24 1.25971e-38)
(-8.30046 -0.00250992 0 -4.68783e-07 0 0)
(-8.2891 -0.00250195 -1.40266e-20 -4.71665e-07 -4.10368e-24 1.17607e-38)
(-8.27752 -0.00249957 0 -4.76621e-07 0 0)
(-8.26571 -0.00250464 0 -4.8439e-07 0 0)
(-8.2536 -0.00251612 -1.37473e-20 -4.95006e-07 -4.06135e-24 1.05771e-38)
(-8.24119 -0.00253832 0 -5.10119e-07 0 0)
(-8.22837 -0.0025682 -1.35651e-20 -5.29339e-07 -4.10236e-24 9.83356e-39)
(-8.21516 -0.00261474 0 -5.56296e-07 0 0)
(-8.20132 -0.00267126 0 -5.89602e-07 0 0)
(-8.187 -0.00275389 -1.32972e-20 -6.36764e-07 -4.33355e-24 8.78379e-39)
(-8.17162 -0.0028525 0 -6.95159e-07 0 0)
(-8.15571 -0.0029886 -1.3122e-20 -7.78201e-07 -4.65994e-24 8.12606e-39)
(-8.13788 -0.00316087 0 -8.86533e-07 0 0)
(-8.11965 -0.00337154 0 -1.03419e-06 0 0)
(-8.09778 -0.00368865 0 -1.25778e-06 0 0)
(-8.07606 -0.00398487 1.27785e-20 -1.51649e-06 6.11988e-24 6.90718e-39)
(-8.04733 -0.00462101 0 -2.05794e-06 0 0)
(-8.02005 -0.00495169 -1.26091e-20 -2.46278e-06 -7.56581e-24 6.3442e-39)
(-7.97955 -0.00636017 0 -4.06274e-06 0 0)
(-7.94232 -0.00644893 0 -4.3741e-06 0 0)
(-7.88192 -0.00985475 0 -1.01966e-05 0 0)
(-7.82328 -0.00874559 0 -8.28384e-06 0 0)
(-7.73103 -0.017573 0 -3.42886e-05 0 0)
(-7.61587 -0.0124133 0 -1.65066e-05 0 0)
(-7.47845 -0.0372117 0 -0.000166081 0 0)