# vtk DataFile Version 2.0
sampleSurface
ASCII
DATASET POLYDATA
POINTS 502 float
-0.0206 0 -0.0005 -0.0190172 0 -0.0005 -0.0190172 0 0.0005 -0.0206 0
0.0005 -0.0174976 0 -0.0005 -0.0174976 0 0.0005 -0.0160387 0 -0.0005
-0.0160387 0 0.0005 -0.0146381 0 -0.0005 -0.0146381 0 0.0005 -0.0132934
0 -0.0005 -0.0132934 0 0.0005 -0.0120025 0 -0.0005 -0.0120025 0
0.0005 -0.0107632 0 -0.0005 -0.0107632 0 0.0005 -0.00957337 0 -0.0005
-0.00957337 0 0.0005 -0.00843108 0 -0.0005 -0.00843108 0 0.0005 -0.00733443
0 -0.0005 -0.00733443 0 0.0005 -0.0062816 0 -0.0005 -0.0062816 0
0.0005 -0.00527083 0 -0.0005 -0.00527083 0 0.0005 -0.00430044 0 -0.0005
-0.00430044 0 0.0005 -0.00336883 0 -0.0005 -0.00336883 0 0.0005 -0.00247443
0 -0.0005 -0.00247443 0 0.0005 -0.00161577 0 -0.0005 -0.00161577 0
0.0005 -0.000791418 0 -0.0005 -0.000791418 0 0.0005 0 0 -0.0005
0 0 0.0005 0 -0.0254 -0.0005 0 -0.0254 0.0005 0
-0.0242711 0.0005 0 -0.0242711 -0.0005 0 -0.0231422 0.0005 0 -0.0231422
-0.0005 0 -0.0220133 0.0005 0 -0.0220133 -0.0005 0 -0.0208844 0.0005
0 -0.0208844 -0.0005 0 -0.0197556 0.0005 0 -0.0197556 -0.0005 0
-0.0186267 0.0005 0 -0.0186267 -0.0005 0 -0.0174978 0.0005 0 -0.0174978
-0.0005 0 -0.0163689 0.0005 0 -0.0163689 -0.0005 0 -0.01524 0.0005
0 -0.01524 -0.0005 0 -0.0141111 0.0005 0 -0.0141111 -0.0005 0
-0.0129822 0.0005 0 -0.0129822 -0.0005 0 -0.0118533 0.0005 0 -0.0118533
-0.0005 0 -0.0107244 0.0005 0 -0.0107244 -0.0005 0 -0.00959556 0.0005
0 -0.00959556 -0.0005 0 -0.00846667 0.0005 0 -0.00846667 -0.0005 0
-0.00726604 0.0005 0 -0.00726604 -0.0005 0 -0.00618989 0.0005 0 -0.00618989
-0.0005 0 -0.00522531 0.0005 0 -0.00522531 -0.0005 0 -0.00436073 0.0005
0 -0.00436073 -0.0005 0 -0.00358579 0.0005 0 -0.00358579 -0.0005 0
-0.00289118 0.0005 0 -0.00289118 -0.0005 0 -0.0022686 0.0005 0 -0.0022686
-0.0005 0 -0.00171055 0.0005 0 -0.00171055 -0.0005 0 -0.00121037 0.0005
0 -0.00121037 -0.0005 0 -0.000762037 0.0005 0 -0.000762037 -0.0005 0
-0.000360188 0.0005 0 -0.000360188 -0.0005 0.000528387 -0.0254 -0.0005 0.000528387 -0.0254
0.0005 0.00106088 -0.0254 -0.0005 0.00106088 -0.0254 0.0005 0.00159752 -0.0254 -0.0005
0.00159752 -0.0254 0.0005 0.00213833 -0.0254 -0.0005 0.00213833 -0.0254 0.0005 0.00268334
-0.0254 -0.0005 0.00268334 -0.0254 0.0005 0.00323259 -0.0254 -0.0005 0.00323259 -0.0254
0.0005 0.00378611 -0.0254 -0.0005 0.00378611 -0.0254 0.0005 0.00434393 -0.0254 -0.0005
0.00434393 -0.0254 0.0005 0.00490609 -0.0254 -0.0005 0.00490609 -0.0254 0.0005 0.00547262
-0.0254 -0.0005 0.00547262 -0.0254 0.0005 0.00604356 -0.0254 -0.0005 0.00604356 -0.0254
0.0005 0.00661893 -0.0254 -0.0005 0.00661893 -0.0254 0.0005 0.00719878 -0.0254 -0.0005
0.00719878 -0.0254 0.0005 0.00778313 -0.0254 -0.0005 0.00778313 -0.0254 0.0005 0.00837203
-0.0254 -0.0005 0.00837203 -0.0254 0.0005 0.00896551 -0.0254 -0.0005 0.00896551 -0.0254
0.0005 0.0095636 -0.0254 -0.0005 0.0095636 -0.0254 0.0005 0.0101663 -0.0254 -0.0005
0.0101663 -0.0254 0.0005 0.0107738 -0.0254 -0.0005 0.0107738 -0.0254 0.0005 0.0113859
-0.0254 -0.0005 0.0113859 -0.0254 0.0005 0.0120028 -0.0254 -0.0005 0.0120028 -0.0254
0.0005 0.0126245 -0.0254 -0.0005 0.0126245 -0.0254 0.0005 0.0132511 -0.0254 -0.0005
0.0132511 -0.0254 0.0005 0.0138825 -0.0254 -0.0005 0.0138825 -0.0254 0.0005 0.0145188
-0.0254 -0.0005 0.0145188 -0.0254 0.0005 0.0151601 -0.0254 -0.0005 0.0151601 -0.0254
0.0005 0.0158063 -0.0254 -0.0005 0.0158063 -0.0254 0.0005 0.0164576 -0.0254 -0.0005
0.0164576 -0.0254 0.0005 0.0171139 -0.0254 -0.0005 0.0171139 -0.0254 0.0005 0.0177754
-0.0254 -0.0005 0.0177754 -0.0254 0.0005 0.018442 -0.0254 -0.0005 0.018442 -0.0254
0.0005 0.0191137 -0.0254 -0.0005 0.0191137 -0.0254 0.0005 0.0197907 -0.0254 -0.0005
0.0197907 -0.0254 0.0005 0.020473 -0.0254 -0.0005 0.020473 -0.0254 0.0005 0.0211606
-0.0254 -0.0005 0.0211606 -0.0254 0.0005 0.0218535 -0.0254 -0.0005 0.0218535 -0.0254
0.0005 0.0225517 -0.0254 -0.0005 0.0225517 -0.0254 0.0005 0.0232555 -0.0254 -0.0005
0.0232555 -0.0254 0.0005 0.0239647 -0.0254 -0.0005 0.0239647 -0.0254 0.0005 0.0246794
-0.0254 -0.0005 0.0246794 -0.0254 0.0005 0.0253996 -0.0254 -0.0005 0.0253996 -0.0254
0.0005 0.0261255 -0.0254 -0.0005 0.0261255 -0.0254 0.0005 0.026857 -0.0254 -0.0005
0.026857 -0.0254 0.0005 0.0275942 -0.0254 -0.0005 0.0275942 -0.0254 0.0005 0.0283371
-0.0254 -0.0005 0.0283371 -0.0254 0.0005 0.0290858 -0.0254 -0.0005 0.0290858 -0.0254
0.0005 0.0298403 -0.0254 -0.0005 0.0298403 -0.0254 0.0005 0.0306007 -0.0254 -0.0005
0.0306007 -0.0254 0.0005 0.031367 -0.0254 -0.0005 0.031367 -0.0254 0.0005 0.0321393
-0.0254 -0.0005 0.0321393 -0.0254 0.0005 0.0329175 -0.0254 -0.0005 0.0329175 -0.0254
0.0005 0.0337019 -0.0254 -0.0005 0.0337019 -0.0254 0.0005 0.0344923 -0.0254 -0.0005
0.0344923 -0.0254 0.0005 0.0352888 -0.0254 -0.0005 0.0352888 -0.0254 0.0005 0.0360916
-0.0254 -0.0005 0.0360916 -0.0254 0.0005 0.0369006 -0.0254 -0.0005 0.0369006 -0.0254
0.0005 0.0377158 -0.0254 -0.0005 0.0377158 -0.0254 0.0005 0.0385375 -0.0254 -0.0005
0.0385375 -0.0254 0.0005 0.0393655 -0.0254 -0.0005 0.0393655 -0.0254 0.0005 0.0401999
-0.0254 -0.0005 0.0401999 -0.0254 0.0005 0.0410408 -0.0254 -0.0005 0.0410408 -0.0254
0.0005 0.0418883 -0.0254 -0.0005 0.0418883 -0.0254 0.0005 0.0427424 -0.0254 -0.0005
0.0427424 -0.0254 0.0005 0.0436031 -0.0254 -0.0005 0.0436031 -0.0254 0.0005 0.0444704
-0.0254 -0.0005 0.0444704 -0.0254 0.0005 0.0453446 -0.0254 -0.0005 0.0453446 -0.0254
0.0005 0.0462255 -0.0254 -0.0005 0.0462255 -0.0254 0.0005 0.0471133 -0.0254 -0.0005
0.0471133 -0.0254 0.0005 0.048008 -0.0254 -0.0005 0.048008 -0.0254 0.0005 0.0489096
-0.0254 -0.0005 0.0489096 -0.0254 0.0005 0.0498183 -0.0254 -0.0005 0.0498183 -0.0254
0.0005 0.050734 -0.0254 -0.0005 0.050734 -0.0254 0.0005 0.0516568 -0.0254 -0.0005
0.0516568 -0.0254 0.0005 0.0525868 -0.0254 -0.0005 0.0525868 -0.0254 0.0005 0.053524
-0.0254 -0.0005 0.053524 -0.0254 0.0005 0.0544686 -0.0254 -0.0005 0.0544686 -0.0254
0.0005 0.0554204 -0.0254 -0.0005 0.0554204 -0.0254 0.0005 0.0563797 -0.0254 -0.0005
0.0563797 -0.0254 0.0005 0.0573464 -0.0254 -0.0005 0.0573464 -0.0254 0.0005 0.0583206
-0.0254 -0.0005 0.0583206 -0.0254 0.0005 0.0593025 -0.0254 -0.0005 0.0593025 -0.0254
0.0005 0.0602919 -0.0254 -0.0005 0.0602919 -0.0254 0.0005 0.0612891 -0.0254 -0.0005
0.0612891 -0.0254 0.0005 0.0622939 -0.0254 -0.0005 0.0622939 -0.0254 0.0005 0.0633067
-0.0254 -0.0005 0.0633067 -0.0254 0.0005 0.0643272 -0.0254 -0.0005 0.0643272 -0.0254
0.0005 0.0653557 -0.0254 -0.0005 0.0653557 -0.0254 0.0005 0.0663923 -0.0254 -0.0005
0.0663923 -0.0254 0.0005 0.0674368 -0.0254 -0.0005 0.0674368 -0.0254 0.0005 0.0684895
-0.0254 -0.0005 0.0684895 -0.0254 0.0005 0.0695504 -0.0254 -0.0005 0.0695504 -0.0254
0.0005 0.0706195 -0.0254 -0.0005 0.0706195 -0.0254 0.0005 0.0716969 -0.0254 -0.0005
0.0716969 -0.0254 0.0005 0.0727828 -0.0254 -0.0005 0.0727828 -0.0254 0.0005 0.073877
-0.0254 -0.0005 0.073877 -0.0254 0.0005 0.0749798 -0.0254 -0.0005 0.0749798 -0.0254
0.0005 0.0760911 -0.0254 -0.0005 0.0760911 -0.0254 0.0005 0.0772111 -0.0254 -0.0005
0.0772111 -0.0254 0.0005 0.0783398 -0.0254 -0.0005 0.0783398 -0.0254 0.0005 0.0794772
-0.0254 -0.0005 0.0794772 -0.0254 0.0005 0.0806235 -0.0254 -0.0005 0.0806235 -0.0254
0.0005 0.0817787 -0.0254 -0.0005 0.0817787 -0.0254 0.0005 0.0829429 -0.0254 -0.0005
0.0829429 -0.0254 0.0005 0.0841162 -0.0254 -0.0005 0.0841162 -0.0254 0.0005 0.0852985
-0.0254 -0.0005 0.0852985 -0.0254 0.0005 0.0864901 -0.0254 -0.0005 0.0864901 -0.0254
0.0005 0.0876909 -0.0254 -0.0005 0.0876909 -0.0254 0.0005 0.0889011 -0.0254 -0.0005
0.0889011 -0.0254 0.0005 0.0901207 -0.0254 -0.0005 0.0901207 -0.0254 0.0005 0.0913497
-0.0254 -0.0005 0.0913497 -0.0254 0.0005 0.0925883 -0.0254 -0.0005 0.0925883 -0.0254
0.0005 0.0938366 -0.0254 -0.0005 0.0938366 -0.0254 0.0005 0.0950945 -0.0254 -0.0005
0.0950945 -0.0254 0.0005 0.0963622 -0.0254 -0.0005 0.0963622 -0.0254 0.0005 0.0976398
-0.0254 -0.0005 0.0976398 -0.0254 0.0005 0.0989273 -0.0254 -0.0005 0.0989273 -0.0254
0.0005 0.100225 -0.0254 -0.0005 0.100225 -0.0254 0.0005 0.101532 -0.0254 -0.0005
0.101532 -0.0254 0.0005 0.10285 -0.0254 -0.0005 0.10285 -0.0254 0.0005 0.104178
-0.0254 -0.0005 0.104178 -0.0254 0.0005 0.105517 -0.0254 -0.0005 0.105517 -0.0254
0.0005 0.106865 -0.0254 -0.0005 0.106865 -0.0254 0.0005 0.108225 -0.0254 -0.0005
0.108225 -0.0254 0.0005 0.109594 -0.0254 -0.0005 0.109594 -0.0254 0.0005 0.110975
-0.0254 -0.0005 0.110975 -0.0254 0.0005 0.112366 -0.0254 -0.0005 0.112366 -0.0254
0.0005 0.113768 -0.0254 -0.0005 0.113768 -0.0254 0.0005 0.115181 -0.0254 -0.0005
0.115181 -0.0254 0.0005 0.116605 -0.0254 -0.0005 0.116605 -0.0254 0.0005 0.11804
-0.0254 -0.0005 0.11804 -0.0254 0.0005 0.119486 -0.0254 -0.0005 0.119486 -0.0254
0.0005 0.120943 -0.0254 -0.0005 0.120943 -0.0254 0.0005 0.122412 -0.0254 -0.0005
0.122412 -0.0254 0.0005 0.123892 -0.0254 -0.0005 0.123892 -0.0254 0.0005 0.125384
-0.0254 -0.0005 0.125384 -0.0254 0.0005 0.126887 -0.0254 -0.0005 0.126887 -0.0254
0.0005 0.128402 -0.0254 -0.0005 0.128402 -0.0254 0.0005 0.129928 -0.0254 -0.0005
0.129928 -0.0254 0.0005 0.131467 -0.0254 -0.0005 0.131467 -0.0254 0.0005 0.133017
-0.0254 -0.0005 0.133017 -0.0254 0.0005 0.13458 -0.0254 -0.0005 0.13458 -0.0254
0.0005 0.136155 -0.0254 -0.0005 0.136155 -0.0254 0.0005 0.137742 -0.0254 -0.0005
0.137742 -0.0254 0.0005 0.139341 -0.0254 -0.0005 0.139341 -0.0254 0.0005 0.140953
-0.0254 -0.0005 0.140953 -0.0254 0.0005 0.142577 -0.0254 -0.0005 0.142577 -0.0254
0.0005 0.144214 -0.0254 -0.0005 0.144214 -0.0254 0.0005 0.145863 -0.0254 -0.0005
0.145863 -0.0254 0.0005 0.147526 -0.0254 -0.0005 0.147526 -0.0254 0.0005 0.149201
-0.0254 -0.0005 0.149201 -0.0254 0.0005 0.15089 -0.0254 -0.0005 0.15089 -0.0254
0.0005 0.152591 -0.0254 -0.0005 0.152591 -0.0254 0.0005 0.154306 -0.0254 -0.0005
0.154306 -0.0254 0.0005 0.156034 -0.0254 -0.0005 0.156034 -0.0254 0.0005 0.157775
-0.0254 -0.0005 0.157775 -0.0254 0.0005 0.159531 -0.0254 -0.0005 0.159531 -0.0254
0.0005 0.161299 -0.0254 -0.0005 0.161299 -0.0254 0.0005 0.163082 -0.0254 -0.0005
0.163082 -0.0254 0.0005 0.164878 -0.0254 -0.0005 0.164878 -0.0254 0.0005 0.166688
-0.0254 -0.0005 0.166688 -0.0254 0.0005 0.168513 -0.0254 -0.0005 0.168513 -0.0254
0.0005 0.170351 -0.0254 -0.0005 0.170351 -0.0254 0.0005 0.172204 -0.0254 -0.0005
0.172204 -0.0254 0.0005 0.174071 -0.0254 -0.0005 0.174071 -0.0254 0.0005 0.175953
-0.0254 -0.0005 0.175953 -0.0254 0.0005 0.177849 -0.0254 -0.0005 0.177849 -0.0254
0.0005 0.17976 -0.0254 -0.0005 0.17976 -0.0254 0.0005 0.181686 -0.0254 -0.0005
0.181686 -0.0254 0.0005 0.183627 -0.0254 -0.0005 0.183627 -0.0254 0.0005 0.185583
-0.0254 -0.0005 0.185583 -0.0254 0.0005 0.187555 -0.0254 -0.0005 0.187555 -0.0254
0.0005 0.189541 -0.0254 -0.0005 0.189541 -0.0254 0.0005 0.191543 -0.0254 -0.0005
0.191543 -0.0254 0.0005 0.193561 -0.0254 -0.0005 0.193561 -0.0254 0.0005 0.195594
-0.0254 -0.0005 0.195594 -0.0254 0.0005 0.197643 -0.0254 -0.0005 0.197643 -0.0254
0.0005 0.199708 -0.0254 -0.0005 0.199708 -0.0254 0.0005 0.201789 -0.0254 -0.0005
0.201789 -0.0254 0.0005 0.203886 -0.0254 -0.0005 0.203886 -0.0254 0.0005 0.206
-0.0254 -0.0005 0.206 -0.0254 0.0005 0.208047 -0.0251856 -0.0005 0.208047 -0.0251856
0.0005 0.210173 -0.0249628 -0.0005 0.210173 -0.0249628 0.0005 0.212382 -0.0247314 -0.0005
0.212382 -0.0247314 0.0005 0.214677 -0.024491 -0.0005 0.214677 -0.024491 0.0005 0.217061
-0.0242412 -0.0005 0.217061 -0.0242412 0.0005 0.219538 -0.0239817 -0.0005 0.219538 -0.0239817
0.0005 0.222112 -0.0237121 -0.0005 0.222112 -0.0237121 0.0005 0.224785 -0.023432 -0.0005
0.224785 -0.023432 0.0005 0.227563 -0.023141 -0.0005 0.227563 -0.023141 0.0005 0.230449
-0.0228387 -0.0005 0.230449 -0.0228387 0.0005 0.233447 -0.0225246 -0.0005 0.233447 -0.0225246
0.0005 0.236562 -0.0221983 -0.0005 0.236562 -0.0221983 0.0005 0.239797 -0.0218593 -0.0005
0.239797 -0.0218593 0.0005 0.243159 -0.0215071 -0.0005 0.243159 -0.0215071 0.0005 0.246652
-0.0211412 -0.0005 0.246652 -0.0211412 0.0005 0.250281 -0.0207611 -0.0005 0.250281 -0.0207611
0.0005 0.254051 -0.0203661 -0.0005 0.254051 -0.0203661 0.0005 0.257967 -0.0199558 -0.0005
0.257967 -0.0199558 0.0005 0.262036 -0.0195295 -0.0005 0.262036 -0.0195295 0.0005 0.266264
-0.0190867 -0.0005 0.266264 -0.0190867 0.0005 0.270655 -0.0186266 -0.0005 0.270655 -0.0186266
0.0005 0.275218 -0.0181486 -0.0005 0.275218 -0.0181486 0.0005 0.279959 -0.017652 -0.0005
0.279959 -0.017652 0.0005 0.284883 -0.017136 -0.0005 0.284883 -0.017136 0.0005 0.29
-0.0166 -0.0005 0.29 -0.0166 0.0005 
POLYGONS 250 1250
4 0 1 2 3 4 1 4 5 2 4
4 6 7 5 4 6 8 9 7 4
8 10 11 9 4 10 12 13 11 4
12 14 15 13 4 14 16 17 15 4
16 18 19 17 4 18 20 21 19 4
20 22 23 21 4 22 24 25 23 4
24 26 27 25 4 26 28 29 27 4
28 30 31 29 4 30 32 33 31 4
32 34 35 33 4 34 36 37 35 4
38 39 40 41 4 41 40 42 43 4
43 42 44 45 4 45 44 46 47 4
47 46 48 49 4 49 48 50 51 4
51 50 52 53 4 53 52 54 55 4
55 54 56 57 4 57 56 58 59 4
59 58 60 61 4 61 60 62 63 4
63 62 64 65 4 65 64 66 67 4
67 66 68 69 4 69 68 70 71 4
71 70 72 73 4 73 72 74 75 4
75 74 76 77 4 77 76 78 79 4
79 78 80 81 4 81 80 82 83 4
83 82 84 85 4 85 84 86 87 4
87 86 88 89 4 89 88 90 91 4
91 90 37 36 4 38 92 93 39 4
92 94 95 93 4 94 96 97 95 4
96 98 99 97 4 98 100 101 99 4
100 102 103 101 4 102 104 105 103 4
104 106 107 105 4 106 108 109 107 4
108 110 111 109 4 110 112 113 111 4
112 114 115 113 4 114 116 117 115 4
116 118 119 117 4 118 120 121 119 4
120 122 123 121 4 122 124 125 123 4
124 126 127 125 4 126 128 129 127 4
128 130 131 129 4 130 132 133 131 4
132 134 135 133 4 134 136 137 135 4
136 138 139 137 4 138 140 141 139 4
140 142 143 141 4 142 144 145 143 4
144 146 147 145 4 146 148 149 147 4
148 150 151 149 4 150 152 153 151 4
152 154 155 153 4 154 156 157 155 4
156 158 159 157 4 158 160 161 159 4
160 162 163 161 4 162 164 165 163 4
164 166 167 165 4 166 168 169 167 4
168 170 171 169 4 170 172 173 171 4
172 174 175 173 4 174 176 177 175 4
176 178 179 177 4 178 180 181 179 4
180 182 183 181 4 182 184 185 183 4
184 186 187 185 4 186 188 189 187 4
188 190 191 189 4 190 192 193 191 4
192 194 195 193 4 194 196 197 195 4
196 198 199 197 4 198 200 201 199 4
200 202 203 201 4 202 204 205 203 4
204 206 207 205 4 206 208 209 207 4
208 210 211 209 4 210 212 213 211 4
212 214 215 213 4 214 216 217 215 4
216 218 219 217 4 218 220 221 219 4
220 222 223 221 4 222 224 225 223 4
224 226 227 225 4 226 228 229 227 4
228 230 231 229 4 230 232 233 231 4
232 234 235 233 4 234 236 237 235 4
236 238 239 237 4 238 240 241 239 4
240 242 243 241 4 242 244 245 243 4
244 246 247 245 4 246 248 249 247 4
248 250 251 249 4 250 252 253 251 4
252 254 255 253 4 254 256 257 255 4
256 258 259 257 4 258 260 261 259 4
260 262 263 261 4 262 264 265 263 4
264 266 267 265 4 266 268 269 267 4
268 270 271 269 4 270 272 273 271 4
272 274 275 273 4 274 276 277 275 4
276 278 279 277 4 278 280 281 279 4
280 282 283 281 4 282 284 285 283 4
284 286 287 285 4 286 288 289 287 4
288 290 291 289 4 290 292 293 291 4
292 294 295 293 4 294 296 297 295 4
296 298 299 297 4 298 300 301 299 4
300 302 303 301 4 302 304 305 303 4
304 306 307 305 4 306 308 309 307 4
308 310 311 309 4 310 312 313 311 4
312 314 315 313 4 314 316 317 315 4
316 318 319 317 4 318 320 321 319 4
320 322 323 321 4 322 324 325 323 4
324 326 327 325 4 326 328 329 327 4
328 330 331 329 4 330 332 333 331 4
332 334 335 333 4 334 336 337 335 4
336 338 339 337 4 338 340 341 339 4
340 342 343 341 4 342 344 345 343 4
344 346 347 345 4 346 348 349 347 4
348 350 351 349 4 350 352 353 351 4
352 354 355 353 4 354 356 357 355 4
356 358 359 357 4 358 360 361 359 4
360 362 363 361 4 362 364 365 363 4
364 366 367 365 4 366 368 369 367 4
368 370 371 369 4 370 372 373 371 4
372 374 375 373 4 374 376 377 375 4
376 378 379 377 4 378 380 381 379 4
380 382 383 381 4 382 384 385 383 4
384 386 387 385 4 386 388 389 387 4
388 390 391 389 4 390 392 393 391 4
392 394 395 393 4 394 396 397 395 4
396 398 399 397 4 398 400 401 399 4
400 402 403 401 4 402 404 405 403 4
404 406 407 405 4 406 408 409 407 4
408 410 411 409 4 410 412 413 411 4
412 414 415 413 4 414 416 417 415 4
416 418 419 417 4 418 420 421 419 4
420 422 423 421 4 422 424 425 423 4
424 426 427 425 4 426 428 429 427 4
428 430 431 429 4 430 432 433 431 4
432 434 435 433 4 434 436 437 435 4
436 438 439 437 4 438 440 441 439 4
440 442 443 441 4 442 444 445 443 4
444 446 447 445 4 446 448 449 447 4
448 450 451 449 4 450 452 453 451 4
452 454 455 453 4 454 456 457 455 4
456 458 459 457 4 458 460 461 459 4
460 462 463 461 4 462 464 465 463 4
464 466 467 465 4 466 468 469 467 4
468 470 471 469 4 470 472 473 471 4
472 474 475 473 4 474 476 477 475 4
476 478 479 477 4 478 480 481 479 4
480 482 483 481 4 482 484 485 483 4
484 486 487 485 4 486 488 489 487 4
488 490 491 489 4 490 492 493 491 4
492 494 495 493 4 494 496 497 495 4
496 498 499 497 4 498 500 501 499 
POINT_DATA 502
FIELD attributes 1
U 3 502 float
3.33704 0.045534 0.0320534 1.67548 0.022834 0.0157959 1.67548 0.022834 0.0157959 3.33704 0.045534
0.0320534 0.0596653 0.000771385 0 0.0596653 0.000771385 0 0.0569238 0.000673614 0
0.0569238 0.000673614 0 0.0545572 0.000504084 0 0.0545572 0.000504084 0 0.052811
0.000392618 0 0.052811 0.000392618 0 0.0514585 0.000362679 0 0.0514585 0.000362679
0 0.0501964 0.000375441 0 0.0501964 0.000375441 0 0.0488497 0.000389154 0
0.0488497 0.000389154 0 0.0473983 0.00038275 0 0.0473983 0.00038275 0 0.0458412
0.000357242 0 0.0458412 0.000357242 0 0.044258 0.000325631 0 0.044258 0.000325631
0 0.0426427 0.00030476 0 0.0426427 0.00030476 0 0.0410891 0.00029067 0
0.0410891 0.00029067 0 0.0395143 0.000287101 0 0.0395143 0.000287101 0 0.0381143
0.000265554 0 0.0381143 0.000265554 0 0.0365679 0.000290841 0 0.0365679 0.000290841
0 0.0354048 0.000289822 0 0.0354048 0.000289822 0 0.0155238 0.000538259 0
0.0155238 0.000538259 0 6.14404e-05 -0.000234084 5.42114e-23 6.14404e-05 -0.000234084 5.42114e-23 -1.24102e-06
-0.000377985 -1.46721e-22 -1.24102e-06 -0.000377985 -1.46721e-22 -0.000124094 -8.18253e-05 -1.73963e-22 -0.000124094 -8.18253e-05
-1.73963e-22 -0.000197025 0.000902859 3.48052e-22 -0.000197025 0.000902859 3.48052e-22 -0.000198237 0.00198772 1.16083e-22
-0.000198237 0.00198772 1.16083e-22 -0.000165418 0.00300156 -2.32106e-22 -0.000165418 0.00300156 -2.32106e-22 -0.000120383
0.00385258 0 -0.000120383 0.00385258 0 -7.3649e-05 0.00450675 -4.65151e-22 -7.3649e-05 0.00450675
-4.65151e-22 -2.88537e-05 0.0049638 -4.78368e-26 -2.88537e-05 0.0049638 -4.78368e-26 1.48008e-05 0.00522999 4.65103e-22
1.48008e-05 0.00522999 4.65103e-22 6.05201e-05 0.00530752 -4.67652e-22 6.05201e-05 0.00530752 -4.67652e-22 0.000114361
0.00518145 2.35945e-26 0.000114361 0.00518145 2.35945e-26 0.000180988 0.00482183 4.67676e-22 0.000180988 0.00482183
4.67676e-22 0.00026189 0.00418293 4.72908e-22 0.00026189 0.00418293 4.72908e-22 0.00035924 0.0032013 -1.68009e-25
0.00035924 0.0032013 -1.68009e-25 0.000435738 0.00177853 -4.81461e-22 0.000435738 0.00177853 -4.81461e-22 0.000239904
-8.41924e-05 0 0.000239904 -8.41924e-05 0 -0.00013157 -0.00128371 0 -0.00013157 -0.00128371
0 -1.58023e-06 -0.00158773 0 -1.58023e-06 -0.00158773 0 0.000508388 -0.00250264 0
0.000508388 -0.00250264 0 0.000594578 -0.00438594 0 0.000594578 -0.00438594 0 0.000185966
-0.00550225 0 0.000185966 -0.00550225 0 -0.000373145 -0.0051656 0 -0.000373145 -0.0051656
0 -0.00093371 -0.00396375 0 -0.00093371 -0.00396375 0 -0.00144963 -0.00241327 0
-0.00144963 -0.00241327 0 -0.00119846 -0.000205591 0 -0.00119846 -0.000205591 0 -0.000810086
0.000995237 0 -0.000810086 0.000995237 0 0.000114436 -0.000244455 2.34807e-25 0.000114436 -0.000244455
2.34807e-25 0.000220802 -0.00025021 -2.694e-23 0.000220802 -0.00025021 -2.694e-23 0.000318516 -0.000238781 0
0.000318516 -0.000238781 0 0.000397977 -0.000222742 0 0.000397977 -0.000222742 0 0.000457283
-0.000201622 2.60953e-23 0.000457283 -0.000201622 2.60953e-23 0.000493465 -0.000175676 2.61422e-23 0.000493465 -0.000175676
2.61422e-23 0.000504147 -0.000146035 0 0.000504147 -0.000146035 0 0.000488258 -0.00011402 0
0.000488258 -0.00011402 0 0.000444332 -8.04182e-05 0 0.000444332 -8.04182e-05 0 0.000369727
-4.49552e-05 -2.50761e-23 0.000369727 -4.49552e-05 -2.50761e-23 0.000261582 -6.59174e-06 -2.51238e-23 0.000261582 -6.59174e-06
-2.51238e-23 0.000117781 3.6082e-05 0 0.000117781 3.6082e-05 0 -6.37629e-05 8.3595e-05 0
-6.37629e-05 8.3595e-05 0 -0.000286715 0.000135425 0 -0.000286715 0.000135425 0 -0.000553666
0.000190465 -2.39975e-23 -0.000553666 0.000190465 -2.39975e-23 -0.000865647 0.000247008 -2.40459e-23 -0.000865647 0.000247008
-2.40459e-23 -0.00122342 0.000303672 0 -0.00122342 0.000303672 0 -0.00162715 0.000359603 0
-0.00162715 0.000359603 0 -0.0020767 0.000414182 0 -0.0020767 0.000414182 0 -0.00257153
0.000466796 0 -0.00257153 0.000466796 0 -0.00311014 0.000516685 0 -0.00311014 0.000516685
0 -0.00368895 0.000562232 0 -0.00368895 0.000562232 0 -0.00430279 0.000601168 -2.19299e-23
-0.00430279 0.000601168 -2.19299e-23 -0.00494574 0.000631629 -3.48444e-25 -0.00494574 0.000631629 -3.48444e-25 -0.00561123
0.000652513 3.58837e-25 -0.00561123 0.000652513 3.58837e-25 -0.00629242 0.000663569 -4.23666e-23 -0.00629242 0.000663569
-4.23666e-23 -0.00698252 0.000665291 -2.10469e-23 -0.00698252 0.000665291 -2.10469e-23 -0.00767493 0.000658704 0
-0.00767493 0.000658704 0 -0.00836337 0.000645071 1.99912e-23 -0.00836337 0.000645071 1.99912e-23 -0.0090419
0.000625521 3.96851e-23 -0.0090419 0.000625521 3.96851e-23 -0.00970478 0.000600729 1.96936e-23 -0.00970478 0.000600729
1.96936e-23 -0.0103462 0.000570884 0 -0.0103462 0.000570884 0 -0.01096 0.000536039 1.86302e-23
-0.01096 0.000536039 1.86302e-23 -0.0115398 0.000496325 1.8676e-23 -0.0115398 0.000496325 1.8676e-23 -0.0120786
0.000451646 0 -0.0120786 0.000451646 0 -0.012569 0.000401675 -1.77271e-23 -0.012569 0.000401675
-1.77271e-23 -0.0130031 0.000346441 -1.77722e-23 -0.0130031 0.000346441 -1.77722e-23 -0.0133731 0.000286522 -1.72513e-23
-0.0133731 0.000286522 -1.72513e-23 -0.0136714 0.000222459 -5.1425e-23 -0.0136714 0.000222459 -5.1425e-23 -0.0138911
0.00015481 -3.42184e-23 -0.0138911 0.00015481 -3.42184e-23 -0.0140253 8.52849e-05 0 -0.0140253 8.52849e-05
0 -0.0140671 1.6161e-05 0 -0.0140671 1.6161e-05 0 -0.0140177 -5.16608e-05 0
-0.0140177 -5.16608e-05 0 -0.0138785 -0.000117961 0 -0.0138785 -0.000117961 0 -0.0136493
-0.00018161 -3.35384e-23 -0.0136493 -0.00018161 -3.35384e-23 -0.0133336 -0.000241508 -6.73222e-23 -0.0133336 -0.000241508
-6.73222e-23 -0.0129356 -0.000296622 -6.76764e-23 -0.0129356 -0.000296622 -6.76764e-23 -0.0124618 -0.000345672 -3.39875e-23
-0.0124618 -0.000345672 -3.39875e-23 -0.0119204 -0.000387754 3.43887e-23 -0.0119204 -0.000387754 3.43887e-23 -0.0113207
-0.000422251 3.44883e-23 -0.0113207 -0.000422251 3.44883e-23 -0.0106732 -0.000448925 -3.49316e-23 -0.0106732 -0.000448925
-3.49316e-23 -0.00998834 -0.000467985 -7.02278e-23 -0.00998834 -0.000467985 -7.02278e-23 -0.00927616 -0.00048002 -3.5298e-23
-0.00927616 -0.00048002 -3.5298e-23 -0.00854575 -0.000485847 0 -0.00854575 -0.000485847 0 -0.00780505
-0.000486368 0 -0.00780505 -0.000486368 0 -0.0070608 -0.000482467 -3.60084e-23 -0.0070608 -0.000482467
-3.60084e-23 -0.00631858 -0.000474916 -3.61199e-23 -0.00631858 -0.000474916 -3.61199e-23 -0.00558298 -0.000464363 0
-0.00558298 -0.000464363 0 -0.00485802 -0.000451385 0 -0.00485802 -0.000451385 0 -0.00414739
-0.000436422 0 -0.00414739 -0.000436422 0 -0.00345409 -0.000419765 0 -0.00345409 -0.000419765
0 -0.00278042 -0.000401866 0 -0.00278042 -0.000401866 0 -0.00212848 -0.000383082 0
-0.00212848 -0.000383082 0 -0.00150032 -0.000363845 0 -0.00150032 -0.000363845 0 -0.000896859
-0.000344059 3.58859e-23 -0.000896859 -0.000344059 3.58859e-23 -0.000320922 -0.000324354 3.60065e-23 -0.000320922 -0.000324354
3.60065e-23 0.000225542 -0.000305011 0 0.000225542 -0.000305011 0 0.000745893 -0.00028563 -3.52354e-23
0.000745893 -0.00028563 -3.52354e-23 0.00124141 -0.000266702 -7.03272e-23 0.00124141 -0.000266702 -7.03272e-23 0.00171089
-0.00024831 -3.50919e-23 0.00171089 -0.00024831 -3.50919e-23 0.00215465 -0.000230558 3.44033e-23 0.00215465 -0.000230558
3.44033e-23 0.00257324 -0.000213524 4.19363e-25 0.00257324 -0.000213524 4.19363e-25 0.00296735 -0.000197258 -3.42274e-23
0.00296735 -0.000197258 -3.42274e-23 0.00333783 -0.000181791 3.34908e-23 0.00333783 -0.000181791 3.34908e-23 0.00368559
-0.000167138 3.36123e-23 0.00368559 -0.000167138 3.36123e-23 0.00401156 -0.000153299 0 0.00401156 -0.000153299
0 0.00431675 -0.000140267 -3.25398e-23 0.00431675 -0.000140267 -3.25398e-23 0.00460212 -0.000128023 -3.26608e-23
0.00460212 -0.000128023 -3.26608e-23 0.00486865 -0.000116545 3.18986e-23 0.00486865 -0.000116545 3.18986e-23 0.00511729
-0.000105806 3.20191e-23 0.00511729 -0.000105806 3.20191e-23 0.00534898 -9.57758e-05 -3.12583e-23 0.00534898 -9.57758e-05
-3.12583e-23 0.00556461 -8.64249e-05 -6.23181e-23 0.00556461 -8.64249e-05 -6.23181e-23 0.00576504 -7.77223e-05 -6.16822e-23
0.00576504 -7.77223e-05 -6.16822e-23 0.0059511 -6.96379e-05 -9.13572e-23 0.0059511 -6.96379e-05 -9.13572e-23 0.00612359
-6.21424e-05 -8.64464e-25 0.00612359 -6.21424e-05 -8.64464e-25 0.00628328 -5.52079e-05 6.02263e-23 0.00628328 -5.52079e-05
6.02263e-23 0.0064309 -4.88076e-05 0 0.0064309 -4.88076e-05 0 0.00656717 -4.29158e-05 0
0.00656717 -4.29158e-05 0 0.00669276 -3.75078e-05 5.75305e-23 0.00669276 -3.75078e-05 5.75305e-23 0.00680833
-3.25594e-05 1.14694e-22 0.00680833 -3.25594e-05 1.14694e-22 0.00691452 -2.80472e-05 8.30508e-25 0.00691452 -2.80472e-05
8.30508e-25 0.00701195 -2.3948e-05 -5.65653e-23 0.00701195 -2.3948e-05 -5.65653e-23 0.00710119 -2.02389e-05 5.51549e-23
0.00710119 -2.02389e-05 5.51549e-23 0.00718282 -1.68971e-05 1.09961e-22 0.00718282 -1.68971e-05 1.09961e-22 0.00725738
-1.39002e-05 1.08804e-22 0.00725738 -1.39002e-05 1.08804e-22 0.0073254 -1.12256e-05 5.4229e-23 0.0073254 -1.12256e-05
5.4229e-23 0.00738737 -8.85068e-06 0 0.00738737 -8.85068e-06 0 0.00744377 -6.75321e-06 0
0.00744377 -6.75321e-06 0 0.00749505 -4.91069e-06 5.17494e-23 0.00749505 -4.91069e-06 5.17494e-23 0.00754163
-3.30075e-06 5.19759e-23 0.00754163 -3.30075e-06 5.19759e-23 0.00758393 -1.90227e-06 0 0.00758393 -1.90227e-06
0 0.00762231 -6.95517e-07 -5.01142e-23 0.00762231 -6.95517e-07 -5.01142e-23 0.00765715 3.38294e-07 -5.0338e-23
0.00765715 3.38294e-07 -5.0338e-23 0.00768877 1.21701e-06 0 0.00768877 1.21701e-06 0 0.00771747
1.95647e-06 -4.85209e-23 0.00771747 1.95647e-06 -4.85209e-23 0.00774355 2.57261e-06 -4.87419e-23 0.00774355 2.57261e-06
-4.87419e-23 0.00776726 3.08076e-06 0 0.00776726 3.08076e-06 0 0.00778886 3.49662e-06 4.69669e-23
0.00778886 3.49662e-06 4.69669e-23 0.00780855 3.83643e-06 9.3642e-23 0.00780855 3.83643e-06 9.3642e-23 0.00782656
4.11505e-06 4.66741e-23 0.00782656 4.11505e-06 4.66741e-23 0.007843 4.35002e-06 -4.54496e-23 0.007843 4.35002e-06
-4.54496e-23 0.00785799 4.54964e-06 -4.56645e-23 0.00785799 4.54964e-06 -4.56645e-23 0.00787167 4.7109e-06 4.44574e-23
0.00787167 4.7109e-06 4.44574e-23 0.0078842 4.83383e-06 4.46702e-23 0.0078842 4.83383e-06 4.46702e-23 0.00789572
4.92392e-06 4.34799e-23 0.00789572 4.92392e-06 4.34799e-23 0.00790635 4.99122e-06 8.6687e-23 0.00790635 4.99122e-06
8.6687e-23 0.00791618 5.03157e-06 4.32059e-23 0.00791618 5.03157e-06 4.32059e-23 0.00792533 5.0368e-06 0
0.00792533 5.0368e-06 0 0.00793388 5.02022e-06 0 0.00793388 5.02022e-06 0 0.0079419
5.00034e-06 0 0.0079419 5.00034e-06 0 0.00794944 4.98346e-06 0 0.00794944 4.98346e-06
0 0.00795654 4.96461e-06 0 0.00795654 4.96461e-06 0 0.00796325 4.93882e-06 0
0.00796325 4.93882e-06 0 0.00796963 4.91167e-06 3.92482e-23 0.00796963 4.91167e-06 3.92482e-23 0.0079757
4.9022e-06 6.54516e-25 0.0079757 4.9022e-06 6.54516e-25 0.00798146 4.929e-06 -3.89921e-23 0.00798146 4.929e-06
-3.89921e-23 0.00798691 4.9916e-06 0 0.00798691 4.9916e-06 0 0.00799204 5.06531e-06 0
0.00799204 5.06531e-06 0 0.0079969 5.11304e-06 0 0.0079969 5.11304e-06 0 0.00800157
5.10398e-06 -7.31249e-23 0.00800157 5.10398e-06 -7.31249e-23 0.00800616 5.02676e-06 -7.35091e-23 0.00800616 5.02676e-06
-7.35091e-23 0.00801076 4.89047e-06 7.13777e-23 0.00801076 4.89047e-06 7.13777e-23 0.00801546 4.71632e-06 1.24458e-24
0.00801546 4.71632e-06 1.24458e-24 0.00802033 4.52677e-06 -7.08878e-23 0.00802033 4.52677e-06 -7.08878e-23 0.00802536
4.33836e-06 0 0.00802536 4.33836e-06 0 0.00803058 4.15975e-06 0 0.00803058 4.15975e-06
0 0.00803596 3.99359e-06 6.70975e-23 0.00803596 3.99359e-06 6.70975e-23 0.00804149 3.83942e-06 1.33718e-22
0.00804149 3.83942e-06 1.33718e-22 0.00804716 3.69603e-06 6.66176e-23 0.00804716 3.69603e-06 6.66176e-23 0.00805295
3.56255e-06 6.45862e-23 0.00805295 3.56255e-06 6.45862e-23 0.00805888 3.43862e-06 1.287e-22 0.00805888 3.43862e-06
1.287e-22 0.00806492 3.32421e-06 1.17659e-24 0.00806492 3.32421e-06 1.17659e-24 0.00807107 3.21932e-06 -6.32842e-23
0.00807107 3.21932e-06 -6.32842e-23 0.00807733 3.12383e-06 0 0.00807733 3.12383e-06 0 0.0080837
3.03749e-06 -6.04886e-23 0.0080837 3.03749e-06 -6.04886e-23 0.00809017 2.95996e-06 -6.08292e-23 0.00809017 2.95996e-06
-6.08292e-23 0.00809673 2.89087e-06 0 0.00809673 2.89087e-06 0 0.00810339 2.8298e-06 0
0.00810339 2.8298e-06 0 0.00811013 2.77642e-06 0 0.00811013 2.77642e-06 0 0.00811695
2.73045e-06 5.64924e-23 0.00811695 2.73045e-06 5.64924e-23 0.00812384 2.69176e-06 1.12522e-22 0.00812384 2.69176e-06
1.12522e-22 0.00813079 2.66026e-06 5.60262e-23 0.00813079 2.66026e-06 5.60262e-23 0.0081378 2.63615e-06 5.41397e-23
0.0081378 2.63615e-06 5.41397e-23 0.00814486 2.61955e-06 5.44547e-23 0.00814486 2.61955e-06 5.44547e-23 0.00815194
2.61117e-06 0 0.00815194 2.61117e-06 0 0.00815903 2.61141e-06 5.18186e-23 0.00815903 2.61141e-06
5.18186e-23 0.00816612 2.62169e-06 5.21236e-23 0.00816612 2.62169e-06 5.21236e-23 0.00817317 2.64296e-06 5.02879e-23
0.00817317 2.64296e-06 5.02879e-23 0.00818016 2.67758e-06 5.05861e-23 0.00818016 2.67758e-06 5.05861e-23 0.00818703
2.7277e-06 0 0.00818703 2.7277e-06 0 0.00819376 2.79687e-06 4.80161e-23 0.00819376 2.79687e-06
4.80161e-23 0.00820023 2.88999e-06 4.8304e-23 0.00820023 2.88999e-06 4.8304e-23 0.00820643 3.01109e-06 4.65174e-23
0.00820643 3.01109e-06 4.65174e-23 0.00821215 3.1727e-06 4.67982e-23 0.00821215 3.1727e-06 4.67982e-23 0.00821738