/*--------------------------------*- C++ -*----------------------------------*\
  =========                 |
  \\      /  F ield         | OpenFOAM: The Open Source CFD Toolbox
   \\    /   O peration     | Website:  https://openfoam.org
    \\  /    A nd           | Version:  9
     \\/     M anipulation  |
\*---------------------------------------------------------------------------*/
FoamFile
{
    format      ascii;
    class       volScalarField;
    location    "0.039";
    object      k;
}
// * * * * * * * * * * * * * * * * * * * * * * * * * * * * * * * * * * * * * //

dimensions      [0 2 -2 0 0 0 0];

internalField   nonuniform List<scalar> 
12225
(
3.93568e-05
0.000180634
0.00021505
0.00018385
9.06015e-05
4.37093e-05
2.77327e-05
2.43709e-05
2.51175e-05
3.25494e-05
5.78147e-05
7.8753e-05
8.73078e-05
8.8153e-05
7.83265e-05
0.00016634
0.00695128
0.0774522
2.13747e-05
3.60769e-05
3.99861e-05
3.8594e-05
3.13626e-05
2.52523e-05
2.25889e-05
2.1828e-05
2.18511e-05
2.26603e-05
2.57297e-05
3.33066e-05
4.8262e-05
6.46117e-05
6.79436e-05
8.87151e-05
0.00103315
0.0241756
2.01467e-05
1.83819e-05
1.64763e-05
1.56701e-05
1.55181e-05
1.55286e-05
1.57586e-05
1.62014e-05
1.64384e-05
1.67005e-05
1.72316e-05
1.83828e-05
2.17624e-05
2.479e-05
3.07511e-05
3.65766e-05
9.82868e-05
0.00223934
2.00152e-05
2.02084e-05
2.0183e-05
1.99167e-05
1.94201e-05
1.85596e-05
1.79899e-05
1.7902e-05
1.77136e-05
1.6743e-05
1.51252e-05
1.48454e-05
1.50271e-05
1.55903e-05
1.69959e-05
1.85212e-05
2.36769e-05
0.000162047
2.0327e-05
2.76915e-05
3.3843e-05
3.30131e-05
2.64982e-05
2.26512e-05
2.25574e-05
2.46709e-05
2.54264e-05
2.49069e-05
2.30842e-05
2.11923e-05
2.01327e-05
1.97678e-05
1.97977e-05
1.99487e-05
2.05769e-05
2.89989e-05
2.03194e-05
2.1552e-05
2.3102e-05
2.32441e-05
2.25629e-05
2.18863e-05
2.27762e-05
3.05712e-05
4.31949e-05
4.56781e-05
4.426e-05
3.97705e-05
3.80813e-05
3.93626e-05
4.03193e-05
3.93994e-05
3.41681e-05
3.03986e-05
2.04627e-05
2.20821e-05
2.31185e-05
2.29883e-05
2.17546e-05
2.08327e-05
2.07828e-05
2.12569e-05
2.28578e-05
2.53194e-05
2.90239e-05
3.64704e-05
6.06185e-05
8.64713e-05
9.41355e-05
9.31766e-05
8.43554e-05
5.83188e-05
2.1953e-05
2.17998e-05
2.19062e-05
2.28821e-05
2.26249e-05
2.18622e-05
2.16679e-05
2.17614e-05
2.26045e-05
2.51057e-05
2.65394e-05
3.00264e-05
4.34559e-05
7.94327e-05
0.000101947
0.000106556
0.00010381
8.74745e-05
2.29248e-05
2.27543e-05
2.23861e-05
2.3215e-05
2.71625e-05
2.78233e-05
2.68994e-05
2.39351e-05
2.27134e-05
2.27626e-05
2.40869e-05
2.99427e-05
5.24877e-05
8.2981e-05
9.97799e-05
0.000104511
0.00010357
9.33857e-05
2.39715e-05
3.00208e-05
2.68201e-05
2.34348e-05
2.34098e-05
2.38938e-05
2.43046e-05
2.39073e-05
2.27262e-05
2.26186e-05
2.34075e-05
2.72362e-05
4.10537e-05
5.84756e-05
6.9903e-05
7.53148e-05
7.63234e-05
7.44879e-05
2.13333e-05
2.17141e-05
2.25612e-05
2.28612e-05
2.35562e-05
2.3797e-05
2.27159e-05
2.15438e-05
2.13774e-05
2.16588e-05
2.26595e-05
2.48968e-05
2.79088e-05
3.09799e-05
3.67797e-05
4.47879e-05
4.97468e-05
5.10126e-05
2.01154e-05
2.05363e-05
2.30234e-05
2.47831e-05
2.47954e-05
2.34341e-05
2.2113e-05
2.1991e-05
2.25296e-05
2.3859e-05
2.43137e-05
2.42892e-05
2.40154e-05
2.40701e-05
2.44613e-05
2.55085e-05
2.73108e-05
3.16735e-05
2.00099e-05
2.04516e-05
2.23733e-05
2.3352e-05
2.33632e-05
2.32864e-05
2.40911e-05
2.88192e-05
3.15161e-05
3.0923e-05
2.75297e-05
2.47242e-05
2.31515e-05
2.21224e-05
2.18242e-05
2.18549e-05
2.21518e-05
2.33841e-05
2.00571e-05
2.05871e-05
2.138e-05
2.17461e-05
2.184e-05
2.22188e-05
2.37474e-05
2.47276e-05
2.47531e-05
2.39327e-05
2.25042e-05
2.16976e-05
2.13635e-05
2.132e-05
2.14211e-05
2.19609e-05
2.33681e-05
2.49473e-05
2.00307e-05
2.03649e-05
2.08199e-05
2.0946e-05
2.09328e-05
2.08589e-05
2.08396e-05
2.08352e-05
2.08266e-05
2.08e-05
2.07948e-05
2.0861e-05
2.11819e-05
2.23122e-05
2.50507e-05
2.75164e-05
2.93338e-05
3.02475e-05
2.00812e-05
2.03802e-05
2.04887e-05
2.05704e-05
2.06801e-05
2.0716e-05
2.07137e-05
2.06873e-05
2.06774e-05
2.06852e-05
2.07439e-05
2.09778e-05
2.17929e-05
2.39339e-05
2.6004e-05
2.76423e-05
2.8767e-05
2.95733e-05
2.00055e-05
2.01664e-05
2.04929e-05
2.07556e-05
2.09012e-05
2.1062e-05
2.13105e-05
2.13014e-05
2.09729e-05
2.0829e-05
2.08567e-05
2.10501e-05
2.14093e-05
2.17421e-05
2.19605e-05
2.21864e-05
2.26936e-05
2.39362e-05
2.04649e-05
2.05113e-05
2.06367e-05
2.06989e-05
2.07669e-05
2.08506e-05
2.11729e-05
2.12624e-05
2.10516e-05
2.09363e-05
2.09928e-05
2.13867e-05
2.18914e-05
2.20794e-05
2.21404e-05
2.22509e-05
2.24448e-05
2.28777e-05
2.12131e-05
2.42865e-05
2.49213e-05
2.43461e-05
2.37607e-05
2.36427e-05
2.33522e-05
2.20931e-05
2.11197e-05
2.07799e-05
2.07187e-05
2.07438e-05
2.08927e-05
2.11673e-05
2.14045e-05
2.14886e-05
2.14996e-05
2.15262e-05
2.19223e-05
2.23555e-05
2.16268e-05
2.11397e-05
2.12453e-05
2.19989e-05
2.23971e-05
2.23079e-05
2.20577e-05
2.19155e-05
2.18468e-05
2.17391e-05
2.15716e-05
2.14036e-05
2.1267e-05
2.11661e-05
2.11101e-05
2.11121e-05
2.02052e-05
2.03175e-05
2.09225e-05
2.28495e-05
2.42284e-05
2.4355e-05
2.3804e-05
2.22424e-05
2.12772e-05
2.0832e-05
2.06604e-05
2.06084e-05
2.06002e-05
2.06076e-05
2.06587e-05
2.07625e-05
2.0828e-05
2.09314e-05
2.00045e-05
2.00522e-05
2.02229e-05
2.07926e-05
2.29691e-05
2.54699e-05
2.62819e-05
2.62506e-05
2.53335e-05
2.30555e-05
2.16961e-05
2.1108e-05
2.09372e-05
2.0931e-05
2.10264e-05
2.12585e-05
2.1399e-05
2.15052e-05
2.12173e-05
2.11269e-05
2.07857e-05
2.09031e-05
2.15742e-05
2.29926e-05
2.37694e-05
2.39453e-05
2.38654e-05
2.32338e-05
2.20871e-05
2.14226e-05
2.11255e-05
2.10326e-05
2.10238e-05
2.10515e-05
2.1123e-05
2.11625e-05
2.64462e-05
2.8812e-05
2.69452e-05
2.38533e-05
2.18088e-05
2.10238e-05
2.08254e-05
2.08107e-05
2.08754e-05
2.11641e-05
2.14394e-05
2.15697e-05
2.16375e-05
2.1753e-05
2.19528e-05
2.21508e-05
2.23009e-05
2.23525e-05
2.54369e-05
3.36915e-05
3.33369e-05
2.69884e-05
2.21004e-05
2.08495e-05
2.07841e-05
2.11347e-05
2.15708e-05
2.17496e-05
2.1795e-05
2.17988e-05
2.18118e-05
2.19311e-05
2.25555e-05
2.385e-05
2.46976e-05
2.50692e-05
2.04787e-05
2.13923e-05
2.13322e-05
2.07862e-05
2.06135e-05
2.06957e-05
2.12697e-05
2.34677e-05
2.55754e-05
2.63854e-05
2.64687e-05
2.61747e-05
2.47937e-05
2.36432e-05
2.32641e-05
2.32563e-05
2.32723e-05
2.3463e-05
2.00122e-05
2.00744e-05
2.01373e-05
2.01293e-05
1.9997e-05
1.98042e-05
1.98247e-05
1.9971e-05
1.99876e-05
1.99266e-05
1.97121e-05
1.91391e-05
1.85981e-05
1.81461e-05
1.76669e-05
1.71165e-05
1.66213e-05
1.63462e-05
1.99998e-05
1.77849e-05
1.46515e-05
1.32863e-05
1.3183e-05
1.34618e-05
1.42615e-05
1.46064e-05
1.46103e-05
1.4229e-05
1.34023e-05
1.25174e-05
1.16582e-05
1.09638e-05
1.0482e-05
1.02145e-05
1.0128e-05
1.01282e-05
2.00016e-05
2.00819e-05
2.03671e-05
2.11523e-05
2.35012e-05
3.18367e-05
5.06065e-05
6.43085e-05
7.17223e-05
7.36058e-05
7.22906e-05
6.39385e-05
4.94049e-05
3.97381e-05
3.40878e-05
3.11335e-05
2.98867e-05
2.95565e-05
2.00627e-05
2.10686e-05
2.59046e-05
3.73956e-05
6.53215e-05
0.000165689
0.000314156
0.00038196
0.000393341
0.00037977
0.000296006
0.000180396
0.000112898
7.87228e-05
6.38908e-05
5.88263e-05
5.78818e-05
5.81605e-05
0.0791403
0.080362
0.0752165
0.0788647
0.0865806
0.0893444
0.0902857
0.0934582
0.096134
0.095634
0.0938816
0.0908901
0.0889153
0.0871745
0.0857632
0.0845223
0.0834169
0.0831232
0.0830866
0.0831289
0.0832484
0.0835818
0.0839285
0.0840495
0.0839594
0.0829775
0.0819013
0.0804058
0.129917
0.19858
0.215943
0.207581
0.12955
0.0980569
0.0876575
0.0887619
0.0901874
0.0887495
0.09615
0.101811
0.0993224
0.103355
0.137994
0.138547
0.115296
0.0819844
0.0769332
0.113265
0.26599
0.102032
0.0438647
0.0330354
0.0307337
0.0291308
0.0242775
0.0207048
0.0158446
0.0125523
0.00957645
0.00708333
0.00590602
0.00449641
0.00368774
0.00323836
0.00294233
0.00283641
0.00282351
0.00281721
0.00279642
0.0027822
0.00274981
0.00272519
0.00269804
0.00266927
0.00264785
0.00262741
0.0025988
0.00257453
0.00255478
0.00252744
0.00250122
0.00248044
0.00246026
0.00244291
0.00242366
0.00240338
0.00238344
0.00235974
0.00234344
0.00232946
0.00231677
0.00230625
0.00228452
0.00227419
0.00226597
0.00226024
0.00225332
0.00224976
0.00224683
0.00224453
0.00224654
0.00224831
0.00224625
0.00224804
0.00225033
0.00225251
0.002255
0.00225793
0.00226071
0.00226259
0.0022626
0.00226007
0.00225352
0.00224109
0.00222233
0.00219851
0.00217355
0.00214984
0.00212856
0.00210761
0.00208296
0.00205158
0.00200608
0.00194106
0.00186216
0.001787
0.00172191
0.00164713
0.00153515
0.00137976
0.0011924
0.000985134
0.000774357
0.000593999
0.000484652
0.000451119
0.000454422
0.000454168
0.000424911
0.000347343
0.000274706
0.00022227
0.000188734
0.000163096
0.000142254
0.000123522
0.000103235
8.00447e-05
5.71778e-05
3.92523e-05
2.71134e-05
1.93485e-05
1.44193e-05
1.11398e-05
8.7704e-06
6.92744e-06
5.44333e-06
4.25001e-06
3.30865e-06
2.58107e-06
2.02497e-06
1.59934e-06
1.26934e-06
1.00912e-06
8.00371e-07
6.31406e-07
4.93717e-07
3.82121e-07
2.91687e-07
2.19729e-07
1.62456e-07
1.18453e-07
8.43161e-08
5.93959e-08
4.04286e-08
2.72913e-08
1.75722e-08
1.10006e-08
6.31619e-09
4.12128e-07
0.0758417
0.0714242
0.0758089
0.0861805
0.089849
0.0900038
0.0895363
0.0871662
0.0823578
0.076888
0.0715093
0.0664626
0.0627556
0.0597996
0.0581199
0.0569032
0.0562317
0.0562941
0.0566378
0.0574435
0.0589107
0.0605462
0.062941
0.065846
0.069581
0.0724871
0.0772854
0.0770228
0.0838277
0.119392
0.203592
0.216733
0.136105
0.113536
0.116825
0.129804
0.130735
0.101901
0.0891597
0.0809767
0.0755923
0.075714
0.0913675
0.0891432
0.0934105
0.113762
0.114335
0.106398
0.0931782
0.0412055
0.0251677
0.0192579
0.0157244
0.0115057
0.00877765
0.00675861
0.0054753
0.00485755
0.0044807
0.00431922
0.00426076
0.00424246
0.00425756
0.00430503
0.00432405
0.00433397
0.00433222
0.0042914
0.00422309
0.00415285
0.00404416
0.00391665
0.00378879
0.00365944
0.00357159
0.00347281
0.00332968
0.00322199
0.0031283
0.00300129
0.00288737
0.00277991
0.00267143
0.00260283
0.00252609
0.00244462
0.00237613
0.00228255
0.00222968
0.00216365
0.00211
0.00207232
0.00199742
0.00195233
0.00189828
0.0018618
0.00182916
0.00178629
0.0017499
0.00172642
0.00170278
0.00169088
0.00168696
0.00169502
0.00171618
0.0017474
0.00179013
0.00184831
0.00192462
0.00202222
0.00212901
0.00222686
0.00230002
0.00235851
0.00239977
0.00241729
0.00241514
0.00238507
0.00231945
0.00226187
0.00223444
0.00223287
0.00224589
0.00229982
0.00235186
0.00236544
0.00236063
0.00231774
0.00222513
0.00217075
0.00214593
0.00213273
0.0021176
0.00208511
0.00199505
0.00179957
0.00160397
0.00142197
0.00125154
0.00109257
0.000946594
0.000813855
0.00069367
0.000586089
0.000491769
0.000410358
0.000341443
0.000285797
0.000242844
0.000209189
0.000182366
0.000161093
0.000144229
0.000130467
0.0001182
0.000106008
9.32735e-05
8.01572e-05
6.73056e-05
5.546e-05
4.51356e-05
3.65178e-05
2.95089e-05
2.38739e-05
1.93328e-05
1.56523e-05
1.26324e-05
1.01464e-05
8.07423e-06
6.3622e-06
4.92675e-06
3.76156e-06
2.79672e-06
2.06319e-06
1.46578e-06
1.0542e-06
6.92657e-07
4.97653e-07
2.75069e-07
2.02449e-07
0.0687606
0.0771958
0.0912466
0.0900746
0.0812948
0.0641626
0.0504979
0.0419233
0.0371625
0.0345803
0.0328726
0.0317987
0.031275
0.0310693
0.031061
0.0310825
0.0311476
0.0311856
0.0313438
0.0317299
0.0326392
0.033551
0.0354615
0.0372127
0.0405165
0.0443384
0.0504076
0.06014
0.0644357
0.0741858
0.109982
0.19161
0.179864
0.164667
0.161154
0.160692
0.151833
0.109144
0.0740712
0.0728118
0.0754572
0.0847429
0.0930664
0.0901024
0.0916687
0.0914317
0.0617394
0.0424577
0.0226602
0.0143481
0.0105849
0.00831606
0.00661559
0.00576273
0.00537183
0.00521456
0.0051783
0.0052482
0.00555626
0.00601269
0.006452
0.00693613
0.00740743
0.00776584
0.00798901
0.00807161
0.00809783
0.00808354
0.0079573
0.0077668
0.00756461
0.00727705
0.00686046
0.00655589
0.00640395
0.00613082
0.00574317
0.0054923
0.00530498
0.0050532
0.00477778
0.00450649
0.00423327
0.00400279
0.0037544
0.00355941
0.00338483
0.00315262
0.00304124
0.00281656
0.00267422
0.00257987
0.00242256
0.00229936
0.00216994
0.00205858
0.00195971
0.00185449
0.0017508
0.00166896
0.00157142
0.0014833
0.0013953
0.00131181
0.00123343
0.00116165
0.00109968
0.00105111
0.00101714
0.00100046
0.00102058
0.00111378
0.00129006
0.0015284
0.00180365
0.00205335
0.00219771
0.00224466
0.0022309
0.00211008
0.00193651
0.00187829
0.00187105
0.0018557
0.00180459
0.00174407
0.00164493
0.0014165
0.00118257
0.00105633
0.00103064
0.0010399
0.00109544
0.00122149
0.00129924
0.00132149
0.00131974
0.00130022
0.00122137
0.00103737
0.000862919
0.000718606
0.00060666
0.000520595
0.000450245
0.000388323
0.000332005
0.000280704
0.000234964
0.000196763
0.000168199
0.000148902
0.000135673
0.000125443
0.000116788
0.000109137
0.000101846
9.43405e-05
8.62317e-05
7.7398e-05
6.79921e-05
5.84084e-05
4.91617e-05
4.07498e-05
3.3477e-05
2.74539e-05
2.25871e-05
1.87131e-05
1.55922e-05
1.30513e-05
1.091e-05
9.08608e-06
7.4926e-06
6.08469e-06
4.87101e-06
3.77223e-06
2.93954e-06
2.08342e-06
1.66499e-06
9.20747e-07
0.0503549
0.0884909
0.078201
0.0496601
0.034029
0.0284826
0.0272925
0.0273189
0.0275081
0.0280358
0.0283535
0.0289433
0.0295138
0.0301911
0.0307699
0.0311558
0.0314458
0.0313719
0.0313522
0.0314584
0.0318169
0.0322337
0.0329974
0.0335529
0.0341079
0.0352687
0.0371588
0.040915
0.0474859
0.0527757
0.0642308
0.0979542
0.155502
0.163992
0.168944
0.166443
0.152656
0.0910097
0.0702946
0.0768902
0.0867533
0.0870563
0.0870558
0.0718068
0.0539892
0.0338742
0.0210124
0.0144996
0.00954501
0.00755711
0.00648392
0.00592102
0.00569981
0.00565262
0.00569024
0.0061087
0.00694835
0.00819073
0.00990753
0.011686
0.0130757
0.0136155
0.0138172
0.0138577
0.0137058
0.0130815
0.0122367
0.0116611
0.0112719
0.0107758
0.0102691
0.00974732
0.00921289
0.00891663
0.00862469
0.00820411
0.00784779
0.00752812
0.00724173
0.00709061
0.00681663
0.00654217
0.0064223
0.00623391
0.00596961
0.00583303
0.00568085
0.00549421
0.0053982
0.00519615
0.00508672
0.00493146
0.0048229
0.00466926
0.00453638
0.00438886
0.00423052
0.00406441
0.00387389
0.00367357
0.00345705
0.00321729
0.00295911
0.00267976
0.00237634
0.00205447
0.00172936
0.00144346
0.00119759
0.000988427
0.000831204
0.000729717
0.000678973
0.000669252
0.000715175
0.00092159
0.00136327
0.00186238
0.00222966
0.0024039
0.00245107
0.00244533
0.00241535
0.00240521
0.00240531
0.00240684
0.00240894
0.00242186
0.00243405
0.002415
0.00224564
0.00209803
0.00208166
0.00203372
0.00196884
0.00195556
0.00196044
0.0019683
0.00196633
0.00194722
0.00188303
0.00178572
0.00167287
0.00154344
0.00139886
0.00124108
0.00106652
0.000865615
0.000642204
0.000428895
0.000265143
0.000162175
0.000106313
7.82898e-05
6.438e-05
5.73761e-05
5.3857e-05
5.19514e-05
5.06366e-05
4.95424e-05
4.82785e-05
4.58745e-05
4.04808e-05
3.34159e-05
2.64239e-05
2.0335e-05
1.55278e-05
1.20127e-05
9.61145e-06
7.97156e-06
6.81107e-06
5.87982e-06
5.11293e-06
4.38233e-06
3.75494e-06
3.1203e-06
2.58622e-06
2.01593e-06
1.60205e-06
1.17922e-06
0.0493255
0.0535528
0.0366341
0.025286
0.0243248
0.0250024
0.0268154
0.0289619
0.0310055
0.0327488
0.0336677
0.0357622
0.0374425
0.0405172
0.0419118
0.0440675
0.0441662
0.0437229
0.0426102
0.0404638
0.0381147
0.036111
0.0348046
0.0341707
0.0339314
0.0333373
0.033584
0.0345653
0.0369643
0.0417219
0.0467249
0.05788
0.0849489
0.124446
0.148904
0.146642
0.123168
0.0686558
0.0685393
0.0746209
0.0768346
0.0690368
0.0494614
0.0303986
0.0212924
0.0132808
0.00964347
0.00760353
0.00636083
0.00587453
0.00567633
0.00562893
0.00575139
0.00611982
0.00701361
0.0087893
0.0112869
0.0139986
0.0168233
0.0180516
0.0184651
0.0185536
0.0182977
0.016936
0.0146522
0.013385
0.0128419
0.0122655
0.0114341
0.0107884
0.0103621
0.00981869
0.00930514
0.00906007
0.00871269
0.00830399
0.008013
0.00768743
0.00737584
0.00722588
0.00697082
0.00668027
0.00655844
0.00640874
0.00617372
0.00605245
0.00595524
0.00581399
0.00574612
0.00562528
0.00556651
0.00546277
0.00541423
0.00533439
0.00527808
0.00522832
0.00518155
0.00513862
0.00509528
0.00505183
0.00500564
0.00495374
0.00488303
0.00478535
0.00464946
0.00445762
0.00417643
0.00374845
0.00317525
0.00250663
0.00182193
0.00128868
0.000907337
0.00067594
0.000565737
0.000535691
0.00055504
0.000709093
0.00123677
0.00185326
0.00220788
0.00234158
0.00238066
0.00240846
0.0024325
0.00248187
0.00254686
0.00258451
0.00260839
0.00261771
0.00257708
0.00247589
0.0024495
0.00241386
0.00232744
0.00221164
0.00214119
0.00213521
0.0021603
0.00220756
0.0022222
0.00221887
0.00218101
0.00201723
0.00174417
0.0015056
0.00129972
0.00111649
0.000940968
0.00076381
0.000596715
0.000463884
0.000371326
0.000300272
0.000227893
0.000152108
9.14785e-05
6.12738e-05
5.62743e-05
5.79558e-05
6.38181e-05
6.6927e-05
6.71029e-05
6.51904e-05
5.59728e-05
4.07719e-05
2.76917e-05
1.73165e-05
1.00751e-05
5.87616e-06
3.83738e-06
3.05767e-06
2.78874e-06
2.65313e-06
2.42021e-06
2.108e-06
1.78488e-06
1.46621e-06
1.19566e-06
9.38301e-07
0.0248278
0.0262668
0.0214246
0.0217311
0.0245319
0.0304049
0.0333502
0.0347697
0.035962
0.0376567
0.0396732
0.0445001
0.0492143
0.0571816
0.0618746
0.0681601
0.0688196
0.0678515
0.0652542
0.0599022
0.0538524
0.048261
0.0421167
0.0377446
0.0352882
0.0338079
0.0320816
0.0321591
0.0328287
0.0347338
0.0386118
0.0443972
0.056011
0.0745292
0.105341
0.108606
0.0918691
0.0637812
0.0647407
0.062276
0.0478067
0.0334123
0.0230084
0.0142607
0.0104603
0.00767432
0.00648028
0.00584204
0.00557037
0.0055044
0.00552019
0.00572532
0.00621767
0.00749377
0.00971231
0.0127409
0.0165706
0.021622
0.0236812
0.0241031
0.0240433
0.0228926
0.0200022
0.0164527
0.0148307
0.0139879
0.0128694
0.0111919
0.0101014
0.00955678
0.0086849
0.00796595
0.00768007
0.00739141
0.00701252
0.00684675
0.00675443
0.00660574
0.00642944
0.00632518
0.00618099
0.00587626
0.00562954
0.00546385
0.00515982
0.00500574
0.00491232
0.00480143
0.00475584
0.0046735
0.0046163
0.00456428
0.0045205
0.00450548
0.00451887
0.00457026
0.00463745
0.00471618
0.00479871
0.00488331
0.00494987
0.00499767
0.00502931
0.00504533
0.00504522
0.00502901
0.00499667
0.00494563
0.00485392
0.00464921
0.0042176
0.00341102
0.00239484
0.00151092
0.000944201
0.000632122
0.000511248
0.000497004
0.000556071
0.000899557
0.00159367
0.00201931
0.00218722
0.00223697
0.00231309
0.00245699
0.00262477
0.00274533
0.00280621
0.00283486
0.00283638
0.00279919
0.00267787
0.00257868
0.00252072
0.00248247
0.00241403
0.00226593
0.00213187
0.00207272
0.00205489
0.00203258
0.00198081
0.00183811
0.00162835
0.00142739
0.00124479
0.00107896
0.000925933
0.000781285
0.000644901
0.000525323
0.000430423
0.000358638
0.000300337
0.000245476
0.000192181
0.000148142
0.000119626
0.0001066
0.000103164
0.0001027
0.000102625
0.000102189
0.000100051
9.16574e-05
7.2042e-05
5.43546e-05
4.05002e-05
2.99797e-05
2.20189e-05
1.62941e-05
1.24604e-05
9.63622e-06
7.39207e-06
5.58404e-06
4.20816e-06
3.08747e-06
2.31371e-06
1.59206e-06
0.0182833
0.025558
0.0196829
0.0238804
0.0324665
0.0346157
0.0356567
0.0365559
0.0379491
0.0407695
0.0467525
0.0590752
0.073004
0.0921081
0.104718
0.118259
0.119093
0.116261
0.108772
0.0952894
0.0780842
0.0634071
0.0532787
0.0443701
0.0381356
0.0348645
0.0318999
0.0300735
0.0301161
0.0308455
0.033137
0.0370276
0.0443762
0.0546123
0.0776902
0.0889697
0.0749231
0.0607812
0.057072
0.0421562
0.0266586
0.0191496
0.0121518
0.00879546
0.00719161
0.00618956
0.00573432
0.0054996
0.00544043
0.00544936
0.00558536
0.006038
0.00717
0.00953265
0.0132172
0.0184046
0.0255771
0.0301832
0.0315019
0.0318915
0.0318876
0.0306979
0.0265321
0.0204163
0.0174868
0.0161218
0.0144944
0.0122629
0.0111206
0.0103642
0.00886164
0.0073155
0.00664929
0.00618639
0.0055577
0.00508003
0.00481173
0.00455802
0.00432689
0.00416277
0.0040121
0.00393602
0.00387571
0.00372671
0.00351311
0.0032789
0.00315748
0.00298031
0.00282441
0.00266014
0.00249263
0.00235036
0.00221654
0.00213326
0.00208647
0.00210506
0.00221308
0.00241067
0.00267192
0.00301049
0.00336594
0.00370691
0.00400215
0.00425148
0.00446708
0.00464377
0.0047853
0.00489363
0.00496137
0.0049846
0.00495581
0.00484064
0.00451158
0.00363031
0.00235807
0.00136145
0.000794111
0.000545229
0.000491948
0.000528421
0.000808345
0.00148782
0.00189611
0.00204542
0.0021201
0.00228146
0.00255636
0.00278759
0.00291006
0.00294198
0.00293613
0.00286405
0.00269135
0.00259975
0.00256815
0.00255374
0.00252973
0.00246424
0.00232431
0.00223578
0.0022004
0.00217786
0.0021345
0.00203045
0.00176293
0.00143447
0.00114597
0.000927467
0.000770548
0.000650964
0.000546092
0.000448663
0.000366161
0.000307491
0.00027024
0.00024203
0.000211386
0.000175928
0.000142514
0.000118199
0.000105215
0.000101227
0.00010087
0.000100982
0.000100912
0.000100139
9.6979e-05
8.62757e-05
6.91052e-05
5.37497e-05
4.07518e-05
3.02843e-05
2.21771e-05
1.60087e-05
1.14086e-05
8.07351e-06
5.73804e-06
4.09464e-06
2.97252e-06
2.13391e-06
0.0190716
0.0282508
0.0189715
0.0305435
0.0352758
0.0360368
0.0367275
0.0381991
0.0413037
0.0480384
0.0630313
0.0869846
0.115096
0.139501
0.155274
0.166588
0.168952
0.166718
0.159587
0.143173
0.118241
0.0889214
0.066587
0.0526773
0.0420922
0.0350732
0.0312379
0.0283773
0.0277309
0.0281076
0.0297402
0.0330227
0.03936
0.0471936
0.0651361
0.0758718
0.0633535
0.0570291
0.0466447
0.0265054
0.0174084
0.0125563
0.00861058
0.00709142
0.00637945
0.00599568
0.0056867
0.00553381
0.00551001
0.00560581
0.00597545
0.0069495
0.00868196
0.0114133
0.0157536
0.0225113
0.0321383
0.0414192
0.0452129
0.0469727
0.0482229
0.048515
0.0471252
0.0419949
0.0347201
0.0303273
0.0286252
0.027236
0.0238682
0.0211159
0.0190578
0.0139869
0.010186
0.00849528
0.00675077
0.0056231
0.00481235
0.00432112
0.00392029
0.00359006
0.00323375
0.00289647
0.00268775
0.0025752
0.00249917
0.00246105
0.00232113
0.00219255
0.001966
0.00181831
0.00168982
0.00158409
0.00147212
0.00136036
0.00123307
0.00109778
0.000971011
0.000877438
0.000839821
0.000883408
0.00102255
0.00125267
0.00159509
0.0020239
0.00248952
0.00294043
0.00334465
0.00372161
0.00410298
0.00446888
0.0047541
0.00489114
0.00489584
0.00476701
0.00433029
0.00310562
0.00175786
0.000957035
0.000593015
0.000503262
0.000532485
0.000809009
0.00145764
0.00181554
0.00197418
0.00214242
0.00238029
0.00260251
0.00272874
0.0027578
0.00273935
0.00261541
0.00245479
0.00240344
0.00241302
0.00248716
0.0025418
0.00254512
0.00252298
0.00242374
0.00229642
0.00221583
0.00216701
0.00210332
0.00196364
0.00172504
0.00143353
0.00112769
0.000850119
0.000628032
0.000467135
0.00035414
0.000271205
0.000216865
0.000195974
0.000194026
0.000191568
0.000182466
0.000155318
0.000123489
0.000100369
8.85719e-05
8.6066e-05
8.70235e-05
9.08745e-05
9.25742e-05
9.24875e-05
9.12925e-05
8.71019e-05
7.47309e-05
5.92542e-05
4.54766e-05
3.37831e-05
2.43111e-05
1.69634e-05
1.15405e-05
7.73851e-06
5.17913e-06
3.50625e-06
2.40194e-06
0.0206597
0.0293454
0.0186368
0.0338379
0.0366623
0.0370667
0.0376787
0.0391226
0.0432309
0.0537776
0.0755671
0.106738
0.136985
0.159698
0.173783
0.182342
0.186166
0.185371
0.180275
0.16591
0.138527
0.103585
0.0711159
0.0514184
0.0405225
0.0336896
0.0295801
0.0266149
0.0253435
0.0257179
0.027124
0.0297139
0.0354364
0.0415189
0.0565322
0.064112
0.0583178
0.0534627
0.0357874
0.0185892
0.0127391
0.00967311
0.0075081
0.00672221
0.00636017
0.0060557
0.00587967
0.00583348
0.00594461
0.00618861
0.00671317
0.00757765
0.00938625
0.0128089
0.0195073
0.0306493
0.0442511
0.0568802
0.0672079
0.0761982
0.0851217
0.0900431
0.0920621
0.0922068
0.0875146
0.0805339
0.0793532
0.0785055
0.0717224
0.0611374
0.0542429
0.0440982
0.0298889
0.0224897
0.0149821
0.0112501
0.00779238
0.00570031
0.00471142
0.00394615
0.00340873
0.00289152
0.00251588
0.00228654
0.00208538
0.00195206
0.00185009
0.00177423
0.00170078
0.00163373
0.00160404
0.00158224
0.00156542
0.00152341
0.00141486
0.00122003
0.00098228
0.000758355
0.000581802
0.000461351
0.000388076
0.000372646
0.000412751
0.000519016
0.000696204
0.000964732
0.00128873
0.00163893
0.00204495
0.00260967
0.00334643
0.00405661
0.0045475
0.00473651
0.00470955
0.0044434
0.00351116
0.00199934
0.00104951
0.000618344
0.000510505
0.000539999
0.000845062
0.00140261
0.00169654
0.0018977
0.00213089
0.0023555
0.00247462
0.00249046
0.00247098
0.00241782
0.00231202
0.00223388
0.00222067
0.00227411
0.00245781
0.0025531
0.00256075
0.0025124
0.00232535
0.00220919
0.00212481
0.00196407
0.00173697
0.00150346
0.00128637
0.00106321
0.000832547
0.000626328
0.000463685
0.000343202
0.000257258
0.000203229
0.000179955
0.000176593
0.000175207
0.000171377
0.000159567
0.000128265
9.3006e-05
6.86416e-05
5.91398e-05
5.92672e-05
6.59954e-05
7.74069e-05
8.31245e-05
8.462e-05
8.43932e-05
8.2511e-05
7.54025e-05
6.11698e-05
4.74946e-05
3.53332e-05
2.51456e-05
1.71505e-05
1.12719e-05
7.22099e-06
4.58032e-06
2.90822e-06
0.0212932
0.0308568
0.0211797
0.0374062
0.0379841
0.0377324
0.0380597
0.039406
0.0440031
0.0562049
0.080174
0.11366
0.144389
0.165938
0.178951
0.18701
0.190848
0.189255
0.177333
0.157405
0.12866
0.0943339
0.0638469
0.0456918
0.035712
0.0297678
0.0257685
0.0237506
0.0231392
0.0234932
0.0249777
0.0277552
0.0333495
0.0399673
0.0526561
0.0574269
0.0551604
0.0473356
0.0245977
0.0139035
0.01014
0.00825296
0.0071395
0.00672696
0.00656492
0.00651898
0.00670178
0.00696552
0.0073222
0.0077602
0.00842082
0.00927732
0.0109646
0.0146353
0.0217888
0.033664
0.0496554
0.0674434
0.0858744
0.105721
0.127005
0.144989
0.155887
0.162909
0.171999
0.180152
0.184441
0.185523
0.177791
0.162844
0.140324
0.117099
0.0903821
0.0687773
0.0443745
0.0308771
0.020141
0.0122821
0.00840696
0.00602402
0.00475208
0.00378115
0.00296049
0.00252776
0.00223509
0.00203337
0.00191589
0.00188358
0.00193258
0.00210904
0.00240695
0.00281641
0.00321696
0.00344839
0.00348564
0.0031263
0.00245055
0.00167681
0.00102916
0.00059637
0.000363001
0.000250204
0.000196456
0.000179296
0.000196147
0.000265861
0.000389687
0.000528162
0.00064599
0.000798
0.00111328
0.00188986
0.00303199
0.00395621
0.00440776
0.0044787
0.00429706
0.0035177
0.00201567
0.00104266
0.000607061
0.000501282
0.000532404
0.000834469
0.00134149
0.00157069
0.00171246
0.00194266
0.0021995
0.00236899
0.00244145
0.00246011
0.00244811
0.00234227
0.00218329
0.00213905
0.00217557
0.00236964
0.00249762
0.00250474
0.0024285
0.00219508
0.00210365
0.00206583
0.001981
0.00172401
0.00132809
0.000990881
0.000744103
0.000562803
0.00042372
0.000318214
0.000241124
0.000188897
0.000161368
0.000153364
0.000151119
0.000149135
0.000144571
0.000130529
0.00010184
7.64616e-05
6.01316e-05
5.58628e-05
6.02242e-05
7.13858e-05
7.72982e-05
7.9386e-05
7.9759e-05
7.94313e-05
7.76311e-05
7.19026e-05
6.00069e-05
4.72191e-05
3.50918e-05
2.46833e-05
1.65026e-05
1.05556e-05
6.54616e-06
3.91804e-06
0.0221006
0.0316797
0.0248974
0.0389949
0.0388187
0.0383584
0.03822
0.0389256
0.0418448
0.0512367
0.0720805
0.105566
0.137131
0.157656
0.169642
0.175263
0.176774
0.170595
0.155958
0.132307
0.101363
0.0684281
0.0451421
0.0337948
0.0278099
0.0243585
0.0225985
0.0219664
0.021884
0.0229336
0.0248514
0.0278978
0.0335345
0.0406289
0.0512212
0.0540815
0.0522446
0.0391935
0.0174229
0.0108297
0.00852773
0.00745478
0.00693881
0.00674513
0.00672113
0.00691072
0.00731018
0.00773533
0.00814786
0.00863591
0.00941117
0.0106893
0.012827
0.0165508
0.0229964
0.0336204
0.0497486
0.0720702
0.100521
0.13349
0.165588
0.188248
0.20074
0.217992
0.238337
0.25255
0.2592
0.261638
0.261404
0.253168
0.241201
0.2227
0.193674
0.15505
0.1202
0.0798136
0.052781
0.0331346
0.0202871
0.012647
0.00858736
0.00643576
0.00489075
0.00387514
0.00339648
0.00315686
0.00310443
0.00324532
0.00374368
0.0046013
0.00579271
0.00717281
0.00830082
0.00902526
0.00928759
0.00880905
0.00745649
0.00542617
0.0033688
0.00183976
0.000893252
0.000416744
0.000214562
0.000138286
0.000109987
0.000104658
0.000121994
0.000170634
0.000217779
0.000257077
0.000317801
0.000452498
0.000844461
0.00202735
0.00329085
0.00395867
0.00412485
0.00399065
0.00325571
0.00184667
0.000955948
0.000566261
0.000474075
0.000502688
0.000763287
0.00117979
0.00138077
0.00147038
0.00162686
0.00190045
0.0021142
0.00220339
0.00221048
0.00216625
0.00198875
0.00187495
0.0018625
0.00192797
0.00219945
0.00236684
0.00238419
0.00233978
0.00218425
0.0021172
0.00205647
0.0018932
0.0015344
0.00114412
0.000811249
0.000577072
0.000424072
0.000315826
0.000237199
0.000184413
0.000155027
0.000141564
0.000134287
0.000129403
0.000126012
0.000122395
0.000115198
0.000100776
8.40023e-05
7.2629e-05
6.98165e-05
7.23159e-05
7.54883e-05
7.60453e-05
7.56066e-05
7.44172e-05
7.33224e-05
7.14645e-05
6.76127e-05
5.81558e-05
4.55121e-05
3.33806e-05
2.30617e-05
1.50703e-05
9.45098e-06
5.59357e-06
0.0224922
0.0329493
0.0297761
0.0399115
0.0400329
0.0388501
0.038182
0.0379462
0.0384885
0.041336
0.0486507
0.0633243
0.0889907
0.112125
0.124839
0.130469
0.131708
0.122747
0.105559
0.0824153
0.0567341
0.0394796
0.0302702
0.0254565
0.0229631
0.021809
0.0214383
0.0214497
0.0220419
0.023283
0.0253135
0.0286867
0.0345567
0.0423169
0.0506032
0.0520256
0.0473243
0.0267458
0.012651
0.00880364
0.00744082
0.00686526
0.00665846
0.00663146
0.00669151
0.00693063
0.00734926
0.00780229
0.0082236
0.00868349
0.00940513
0.0106435
0.0127136
0.0162604
0.0221258
0.0315763
0.0462877
0.067639
0.096014
0.130063
0.164686
0.194265
0.22073
0.243853
0.262086
0.275823
0.281882
0.283961
0.284297
0.280876
0.273297
0.262379
0.243149
0.215318
0.183869
0.1459
0.108551
0.0755445
0.0488929
0.030314
0.018221
0.0120374
0.00881149
0.00695673
0.00621446
0.00599134
0.00604558
0.00666155
0.00794421
0.00997449
0.0126821
0.0149789
0.0159376
0.0158621
0.0146306
0.0134064
0.0124363
0.0113169
0.00910636
0.0057197
0.00291364
0.00131416
0.000552498
0.000237615
0.000122967
8.68891e-05
7.71917e-05
7.80078e-05
8.90131e-05
0.000100967
0.000114829
0.000142675
0.000214306
0.000447582
0.00133082
0.00269203
0.00346085
0.00367518
0.00356514
0.0028369
0.0015813
0.000833693
0.000513384
0.000435754
0.000453545
0.000630985
0.000927109
0.00107996
0.00114509
0.00123065
0.00141711
0.00158462
0.00165754
0.00166182
0.00161983
0.0014999
0.00145906
0.00147046
0.00158637
0.00190636
0.00209751
0.00213752
0.00211093
0.00197297
0.00186551
0.00173464
0.00149122
0.00118921
0.000891736
0.0006454
0.000462997
0.00033151
0.000240437
0.000183656
0.000152481
0.000135065
0.000124216
0.00011778
0.000114265
0.000111854
0.00010923
0.000106572