/*--------------------------------*- C++ -*----------------------------------*\
  =========                 |
  \\      /  F ield         | OpenFOAM: The Open Source CFD Toolbox
   \\    /   O peration     | Website:  https://openfoam.org
    \\  /    A nd           | Version:  9
     \\/     M anipulation  |
\*---------------------------------------------------------------------------*/
FoamFile
{
    format      ascii;
    class       volScalarField;
    location    "0.039";
    object      nut;
}
// * * * * * * * * * * * * * * * * * * * * * * * * * * * * * * * * * * * * * //

dimensions      [0 2 -1 0 0 0 0];

internalField   nonuniform List<scalar> 
12225
(
7.71166e-11
0
0
0
0
0
0
0
0
0
0
0
0
0
0
2.21231e-09
2.15102e-07
2.18828e-06
1.06574e-10
0
0
0
0
0
0
0
0
0
0
0
0
0
0
3.48283e-09
9.99438e-08
1.03409e-06
1.96521e-10
0
0
0
0
0
0
0
0
0
0
0
0
0
0
3.55401e-09
3.38667e-08
2.82668e-07
0
0
0
0
2.32745e-09
2.55305e-09
1.71286e-09
1.2867e-09
1.6417e-09
1.93465e-09
1.25136e-09
0
0
0
8.76465e-10
2.02216e-09
1.1843e-08
5.68491e-08
3.01414e-07
0
2.09962e-07
2.74486e-07
2.98174e-07
4.84657e-07
7.29575e-07
6.21714e-07
4.95648e-07
3.6045e-07
2.12133e-07
9.34687e-08
4.56074e-08
2.67375e-08
2.12021e-08
2.08736e-09
0
9.24535e-09
5.73663e-07
4.3484e-07
3.32268e-07
4.10533e-07
4.74279e-07
4.02086e-07
4.47631e-07
7.4253e-07
7.19775e-07
4.72951e-07
2.80127e-07
1.52388e-07
1.13886e-07
1.4987e-07
1.89788e-07
1.73422e-07
1.1399e-07
5.94686e-08
5.1092e-07
5.83043e-07
5.14959e-07
6.35882e-07
7.89101e-07
2.55429e-07
9.95713e-08
2.46228e-07
4.73159e-07
4.63962e-07
2.9829e-07
1.67935e-07
1.84283e-07
2.95319e-07
3.41124e-07
2.91118e-07
1.69436e-07
5.02772e-08
5.0525e-07
5.88403e-07
5.87458e-07
9.29095e-07
1.04145e-06
2.9081e-07
5.30917e-08
6.09784e-08
1.62159e-07
3.84759e-07
4.46809e-07
1.70445e-07
1.52196e-07
2.63883e-07
2.93435e-07
2.43056e-07
1.57188e-07
7.3852e-08
5.30941e-07
9.08054e-07
1.41338e-06
1.83493e-06
9.80231e-07
4.28399e-07
3.1908e-07
3.17179e-07
2.92791e-07
2.26826e-07
7.03829e-08
0
8.72087e-08
3.06857e-07
3.54444e-07
3.08045e-07
2.21884e-07
1.37065e-07
4.60874e-07
6.73776e-07
8.74494e-07
5.20728e-07
4.9444e-07
5.9259e-07
5.97291e-07
3.66479e-07
1.27621e-07
0
0
0
0
1.88711e-07
2.86363e-07
2.60638e-07
1.92678e-07
1.37084e-07
4.07252e-07
2.68959e-07
1.34479e-07
0
3.18975e-07
4.54507e-07
2.45514e-07
8.92625e-08
1.49885e-08
0
0
0
0
3.73002e-08
5.54428e-08
4.52763e-08
3.41439e-08
2.93963e-08
1.79328e-07
0
0
0
0
1.09685e-07
1.58534e-07
2.51172e-07
1.96603e-07
1.2008e-07
6.54747e-08
2.61595e-08
2.56495e-08
6.91464e-09
0
0
0
0
0
0
0
1.15207e-06
8.76672e-07
5.50347e-08
7.81257e-07
9.97338e-07
6.03948e-07
3.38281e-07
1.13662e-07
5.59739e-08
9.02988e-08
2.86222e-08
0
0
0
0
0
0
4.2308e-08
5.53908e-07
6.80929e-07
1.44833e-07
1.15498e-06
1.24495e-06
6.11778e-07
1.145e-07
0
0
0
0
0
0
0
0
0
4.66582e-08
7.65929e-08
1.18365e-07
0
0
0
0
0
0
0
0
0
0
0
0
0
0
0
0
4.1293e-07
0
0
0
0
0
0
0
0
0
0
0
0
0
0
0
0
0
0
0
0
0
2.38045e-07
3.30296e-07
1.23661e-07
0
0
0
0
0
0
0
7.26121e-08
1.8048e-07
0
0
0
0
0
0
1.25711e-07
2.30074e-07
7.65727e-08
0
0
0
0
0
0
1.21218e-07
2.40958e-07
3.06993e-07
0
0
0
0
0
0
1.48456e-08
2.61138e-08
0
0
0
0
0
0
1.18164e-07
1.90982e-07
2.02876e-07
2.11677e-07
0
0
1.81388e-08
0
0
0
9.38443e-08
0
0
0
0
0
0
0
7.16263e-09
1.46216e-08
1.68212e-08
3.83212e-08
2.59277e-07
3.24363e-07
3.83707e-06
2.80204e-06
2.62513e-07
4.55148e-07
2.19604e-07
0
0
0
0
0
0
0
0
1.31885e-08
2.04139e-08
4.31209e-08
0
0
0
3.31855e-07
0
0
0
0
0
0
0
0
0
0
0
0
3.14122e-09
3.55383e-08
0
0
2.07659e-08
3.1016e-07
2.10066e-08
2.87748e-08
0
0
0
0
0
0
0
0
0
0
0
0
0
0
7.72436e-08
1.92735e-07
0
0
0
0
0
0
0
0
0
0
0
0
0
0
0
0
0
0
0
0
0
0
0
0
0
0
0
0
0
0
0
0
0
0
0
0
0
0
0
0
0
0
0
0
0
0
0
6.32558e-08
9.1363e-08
0
3.88513e-08
0
0
0
8.35014e-09
8.61588e-09
2.07319e-09
0
0
0
0
0
0
0
0
0
3.39651e-10
5.06996e-10
4.0922e-10
0
0
0
0
0
0
0
0
0
0
0
0
0
0
0
0
0
1.95422e-10
0
0
0
0
0
0
0
0
0
0
0
0
0
0
0
0
0
1.09705e-10
0
0
0
0
0
0
0
0
0
0
0
0
0
0
0
0
0
0
1.52969e-06
0
0
0
0
8.88977e-07
2.33127e-06
2.14094e-06
1.18651e-06
2.04967e-07
0
0
0
0
0
0
0
0
0
0
0
0
0
0
0
1.16659e-06
1.44043e-06
0
1.0975e-06
1.922e-05
2.78942e-05
1.97332e-05
1.03478e-05
2.85013e-07
0
0
0
2.21719e-06
3.09026e-07
0
1.09933e-06
1.3586e-05
3.05999e-06
0
0
0
0
1.9169e-05
7.66113e-06
1.74076e-06
1.72472e-07
3.43482e-09
1.60396e-07
2.82778e-07
3.37454e-07
3.19812e-07
2.804e-07
2.26431e-07
1.71566e-07
1.31883e-07
9.21558e-08
6.24989e-08
3.91137e-08
1.89077e-08
9.65206e-10
0
0
0
0
0
0
0
0
0
0
0
0
0
0
0
0
0
0
0
0
0
0
0
0
0
0
0
0
0
0
0
0
0
0
0
0
0
0
0
0
0
0
0
0
0
0
0
0
0
0
0
0
0
0
0
0
0
0
0
0
0
0
0
0
0
0
0
0
0
0
1.56663e-09
3.58675e-09
4.20093e-09
3.41911e-09
1.94818e-09
3.26971e-10
0
0
0
0
0
0
0
0
0
0
0
0
0
0
0
0
0
0
0
0
0
0
0
0
0
0
0
0
0
0
0
0
0
0
0
0
0
0
0
3.95138e-06
1.00659e-06
4.52774e-07
1.34943e-06
2.92396e-06
4.49896e-06
5.41411e-06
5.20139e-06
3.95711e-06
2.23743e-06
6.98521e-07
0
0
0
0
0
0
0
0
0
0
0
0
0
3.50902e-07
1.44465e-06
0
0
0
1.48245e-06
1.36893e-05
2.57358e-05
2.64663e-05
2.93582e-06
0
0
0
9.48529e-06
7.19761e-06
2.82726e-06
6.05762e-06
3.27342e-06
0
0
0
0
0
0
3.4502e-06
1.67072e-06
2.36371e-07
3.59749e-08
1.53009e-07
2.34472e-07
2.58617e-07
2.47022e-07
2.26021e-07
1.98683e-07
1.70879e-07
1.42413e-07
1.13678e-07
8.53232e-08
5.7512e-08
2.95401e-08
1.9699e-09
0
0
0
0
0
0
0
0
0
0
0
0
0
0
0
0
0
0
0
0
0
0
0
0
0
0
0
0
0
0
0
0
0
0
0
0
0
0
0
0
0
0
0
0
0
0
0
0
0
0
0
0
0
0
0
0
0
0
0
0
0
0
0
0
0
0
0
0
0
0
2.05284e-10
3.92053e-09
5.39806e-09
5.035e-09
3.37938e-09
1.05944e-09
0
0
0
0
0
0
0
0
0
0
0
0
0
0
0
0
0
0
0
0
0
0
0
0
0
0
0
0
0
0
0
0
0
0
0
0
0
0
1.02341e-05
4.14428e-06
3.90681e-06
4.32668e-06
5.03464e-06
5.63447e-06
5.94732e-06
5.75925e-06
5.02051e-06
3.77137e-06
2.08089e-06
1.28874e-07
0
0
0
0
0
0
0
1.36363e-06
2.84621e-06
3.61879e-06
3.59982e-06
2.81329e-06
1.83656e-06
1.05879e-06
8.55456e-07
0
0
0
0
1.88889e-06
1.03593e-05
1.96839e-05
1.4886e-05
0
0
0
2.32874e-06
4.24618e-06
6.41889e-06
5.93109e-06
4.63358e-06
0
0
0
0
0
1.72816e-07
2.22873e-06
1.10558e-06
3.07699e-07
3.73788e-07
5.71058e-07
7.33516e-07
8.21776e-07
8.2016e-07
7.70586e-07
7.04355e-07
6.29481e-07
5.4064e-07
4.45569e-07
3.44149e-07
2.37168e-07
1.26734e-07
1.58829e-08
0
0
0
0
0
0
0
0
0
0
0
0
0
0
0
0
0
0
0
0
0
0
0
0
0
0
0
0
0
0
0
0
0
0
0
0
0
0
0
0
0
0
0
0
0
0
0
0
0
0
0
0
0
0
0
0
0
0
0
0
0
0
9.32795e-11
0
0
0
0
0
0
0
0
0
0
0
0
1.7704e-09
2.87332e-09
2.79469e-09
1.93251e-09
8.23022e-10
0
0
0
0
0
0
0
0
0
0
0
0
0
0
0
0
0
0
0
0
0
0
0
0
0
0
0
0
0
0
0
0
3.79894e-10
0
4.39689e-06
3.58459e-06
2.99454e-06
2.99503e-06
3.34734e-06
3.78822e-06
3.51911e-06
1.81545e-06
0
0
0
0
0
0
0
0
0
0
1.27703e-05
2.2754e-05
2.22949e-05
2.13908e-05
2.1377e-05
2.00017e-05
1.34136e-05
4.72447e-06
2.43123e-08
0
0
0
0
1.76002e-06
7.02906e-06
7.26877e-06
3.28633e-06
0
0
0
0
5.59373e-07
3.60296e-06
2.83884e-06
4.63597e-06
2.07217e-06
0
0
1.46058e-06
0
9.91395e-07
2.05042e-06
1.49439e-06
2.02375e-06
2.71819e-06
2.89082e-06
2.66777e-06
2.37791e-06
2.10642e-06
1.89262e-06
1.75075e-06
1.6531e-06
1.57658e-06
1.49615e-06
1.40783e-06
1.23054e-06
8.40494e-07
1.96582e-07
0
0
0
0
0
0
0
0
0
0
0
0
0
0
0
0
0
0
0
0
0
0
0
0
0
0
0
0
0
0
0
0
0
0
0
0
0
0
0
0
0
0
0
0
0
0
0
0
0
0
0
0
0
0
0
0
0
0
0
0
0
0
0
0
1.85888e-07
1.25907e-07
0
0
0
0
0
0
0
0
0
0
0
0
1.72857e-08
4.8114e-08
5.97672e-08
5.94714e-08
4.87595e-08
3.01784e-08
1.09407e-08
0
0
0
0
0
0
0
0
0
0
0
0
2.80521e-10
5.86727e-10
7.46304e-10
7.46094e-10
6.60436e-10
4.82649e-10
2.88779e-10
8.82896e-11
0
0
0
0
0
4.85944e-10
0
1.36428e-09
0
3.32159e-06
4.55378e-06
3.62456e-06
2.88842e-06
2.65635e-06
0
0
0
0
0
0
0
0
0
0
0
0
2.17254e-06
2.19578e-05
2.32991e-05
1.95765e-05
1.73171e-05
1.74258e-05
2.01039e-05
2.35333e-05
5.95838e-06
0
0
0
0
1.72613e-06
3.96476e-06
3.48132e-06
1.0487e-06
0
0
0
0
0
0
1.98015e-06
1.97903e-06
4.13089e-06
3.14173e-06
3.30869e-07
1.86146e-06
2.51674e-06
2.59899e-06
4.0526e-06
3.93044e-06
3.21946e-06
2.54552e-06
2.07188e-06
1.77255e-06
1.60418e-06
1.49318e-06
1.35451e-06
1.15931e-06
9.68211e-07
8.13494e-07
7.8387e-07
8.87394e-07
1.05677e-06
1.14224e-06
9.97426e-07
5.65914e-07
0
0
0
0
0
0
0
5.24014e-08
1.06613e-07
1.31211e-07
1.34422e-07
1.21968e-07
1.00514e-07
7.46538e-08
4.44151e-08
1.08847e-08
0
0
0
0
0
0
0
0
0
0
0
0
0
0
0
0
0
0
0
0
0
0
0
0
0
0
0
0
0
0
0
0
0
0
0
0
0
0
0
0
0
0
0
0
0
0
2.34711e-06
4.68003e-06
2.91299e-06
1.97433e-06
1.07944e-06
1.62672e-07
0
0
0
8.9954e-09
2.71685e-07
3.39363e-07
3.47053e-07
3.34569e-07
3.01453e-07
2.37588e-07
1.58955e-07
1.00632e-07
7.51158e-08
7.0405e-08
6.33675e-08
3.6599e-08
0
0
6.20264e-08
8.91679e-08
2.67725e-08
0
0
0
0
0
0
0
0
0
0
0
0
0
3.03704e-10
7.62992e-10
1.30636e-09
5.44105e-10
9.86952e-10
0
4.06073e-10
0
4.81273e-10
0
4.46396e-10
0
4.3784e-07
9.57537e-07
2.00863e-06
3.8958e-06
0
0
0
0
0
0
0
0
0
0
0
0
0
1.92981e-05
3.43329e-05
2.89865e-05
2.03623e-05
1.40194e-05
1.01742e-05
8.76985e-06
9.40129e-06
9.76359e-06
0
0
0
0
1.00183e-05
5.49246e-06
1.21955e-06
0
0
0
0
0
0
0
0
0
1.42e-06
2.39267e-06
3.42058e-06
4.29627e-06
2.96509e-06
1.69188e-06
1.07256e-06
9.95146e-07
1.1239e-06
1.25076e-06
1.36969e-06
1.4588e-06
1.46677e-06
1.30081e-06
9.99119e-07
6.73223e-07
4.186e-07
3.92241e-07
6.5555e-07
1.1526e-06
1.66983e-06
2.00493e-06
2.24985e-06
2.22012e-06
9.8702e-07
0
0
0
0
0
0
4.95188e-08
1.40362e-07
1.90534e-07
2.0979e-07
2.04704e-07
1.84807e-07
1.59629e-07
1.34438e-07
1.13649e-07
1.01705e-07
9.91764e-08
1.02286e-07
1.09458e-07
1.13669e-07
1.04519e-07
6.96123e-08
0
0
0
0
0
0
0
0
0
0
0
0
0
0
0
0
0
0
0
0
0
0
0
0
0
0
0
0
0
0
0
0
0
0
0
0
0
2.40591e-07
8.87839e-07
2.26223e-06
4.28463e-06
2.60745e-06
1.47022e-06
1.37476e-06
9.45385e-07
6.87672e-07
6.51466e-07
6.57359e-07
7.68559e-07
2.07253e-06
2.78348e-06
2.49623e-06
2.27085e-06
2.08948e-06
1.80011e-06
1.37519e-06
9.77743e-07
7.34591e-07
6.19366e-07
5.53133e-07
4.77123e-07
3.62863e-07
2.15391e-07
6.40674e-08
0
0
0
0
0
0
6.58015e-08
1.27924e-07
1.43748e-07
1.48231e-07
1.44291e-07
1.33534e-07
1.14954e-07
8.74672e-08
5.5263e-08
1.89659e-08
0
0
0
0
0
0
0
0
0
0
0
4.3142e-08
1.82871e-07
7.52022e-07
2.23917e-06
0
0
0
0
0
0
0
0
0
0
0
0
2.41144e-06
7.15694e-05
7.18595e-05
4.92199e-05
3.01048e-05
1.76279e-05
1.02998e-05
6.27403e-06
4.61384e-06
4.4205e-06
3.74948e-06
0
0
0
3.71823e-06
3.48973e-06
3.28753e-08
0
0
0
0
0
0
0
0
0
0
7.7039e-07
1.75996e-06
1.74419e-06
1.05857e-06
5.40146e-07
2.75346e-07
2.79192e-07
4.07306e-07
6.02347e-07
8.1355e-07
9.67331e-07
9.59686e-07
7.67867e-07
5.37356e-07
4.18309e-07
5.37753e-07
8.98267e-07
1.4415e-06
2.00319e-06
2.30191e-06
2.24411e-06
2.19833e-06
2.2328e-06
1.99838e-06
0
0
0
0
0
4.74367e-08
1.59772e-07
2.06285e-07
2.1872e-07
2.1296e-07
1.90875e-07
1.55471e-07
1.09429e-07
5.58138e-08
1.57414e-09
0
0
0
0
0
0
0
0
0
0
0
0
0
0
0
0
0
0
0
0
0
0
0
0
0
0
0
0
0
0
0
0
0
0
0
0
0
0
0
0
0
0
0
0
2.66098e-07
1.11895e-06
2.04019e-06
2.90499e-06
2.14214e-06
1.25558e-06
1.34864e-06
1.2615e-06
8.15853e-07
7.10234e-07
7.51858e-07
7.95847e-07
7.34534e-07
1.0401e-06
1.78277e-06
2.17215e-06
2.38932e-06
2.59759e-06
2.80924e-06
3.01534e-06
2.90852e-06
2.38186e-06
1.91048e-06
1.58666e-06
1.28697e-06
9.47975e-07
5.38108e-07
3.89053e-09
0
0
9.77963e-09
2.65261e-07
3.58154e-07
3.1304e-07
4.02665e-07
4.23027e-07
2.99402e-07
2.08102e-07
1.52547e-07
1.1579e-07
8.59032e-08
5.0501e-08
8.67116e-09
0
0
0
0
0
0
0
0
0
0
0
0
3.89565e-08
3.69302e-07
2.96204e-06
0
0
0
0
0
0
0
0
0
0
0
9.38546e-06
9.61566e-05
0.000117765
9.59855e-05
6.75693e-05
4.28802e-05
2.40721e-05
1.26e-05
6.74841e-06
4.07023e-06
3.1994e-06
3.2912e-06
3.19623e-06
0
0
3.84983e-06
2.55254e-06
0
0
0
0
0
0
0
0
0
0
0
5.91559e-07
1.28904e-06
1.14552e-06
5.51802e-07
1.43356e-07
0
3.74855e-08
1.23991e-07
2.49644e-07
3.70055e-07
4.34052e-07
4.00246e-07
3.243e-07
3.46139e-07
5.80622e-07
9.88356e-07
1.46345e-06
1.88253e-06
2.14188e-06
2.22763e-06
2.15835e-06
2.02549e-06
2.01158e-06
2.09797e-06
1.7317e-06
4.04414e-08
0
0
3.24803e-07
6.34899e-07
7.48665e-07
7.14805e-07
6.34415e-07
5.37576e-07
4.49294e-07
3.65694e-07
2.80414e-07
1.829e-07
8.06439e-08
0
0
0
0
0
0
0
0
0
0
0
0
0
0
0
0
0
0
0
0
0
0
0
0
0
0
0
0
0
0
0
0
0
0
0
0
0
0
0
0
0
0
0
0
0
0
1.08907e-06
2.27576e-06
2.36642e-06
1.70797e-06
2.12149e-06
2.63937e-06
1.32993e-06
7.71068e-07
7.93902e-07
9.30665e-07
9.78126e-07
6.86324e-07
6.77928e-07
1.09379e-06
1.4151e-06
1.63207e-06
1.74994e-06
1.74928e-06
1.67962e-06
1.68312e-06
1.79864e-06
1.76877e-06
1.47731e-06
1.09346e-06
7.79879e-07
5.63788e-07
0
0
1.78568e-07
4.8521e-07
5.59037e-07
4.82802e-07
3.73569e-07
4.47773e-07
3.77619e-07
2.10682e-07
1.33981e-07
9.10009e-08
5.73541e-08
1.97891e-08
0
0
0
0
0
0
0
0
0
0
0
0
0
2.59212e-08
1.86316e-07
0
0
0
0
0
0
0
0
0
0
2.86037e-05
7.2487e-05
0.000102995
0.000118227
0.000113
9.18936e-05
6.49587e-05
3.94724e-05
2.00344e-05
8.75773e-06
3.99424e-06
2.33547e-06
1.88299e-06
2.0517e-06
3.20888e-06
8.41397e-06
2.30418e-05
1.66932e-05
4.9093e-06
0
0
0
0
0
0
0
0
0
0
1.14303e-07
1.13975e-06
1.33986e-06
7.75237e-07
1.71051e-08
0
0
0
2.68481e-08
6.52813e-08
4.36287e-08
1.98459e-08
1.67468e-08
9.21295e-08
3.24611e-07
7.31839e-07
1.208e-06
1.61863e-06
1.91099e-06
2.11611e-06
2.35808e-06
2.64665e-06
2.81547e-06
2.74049e-06
2.40203e-06
1.45922e-06
0
0
0
0
0
0
4.16519e-07
6.2035e-07
5.98397e-07
5.00583e-07
4.1999e-07
3.64661e-07
3.3384e-07
2.92362e-07
2.34508e-07
1.73141e-07
1.19086e-07
7.57246e-08
2.89203e-08
0
0
0
0
0
0
0
0
0
0
0
0
0
0
0
0
0
0
0
0
0
0
0
0
0
0
0
0
0
0
0
0
0
0
0
0
0
0
1.56992e-07
1.44957e-07
0
0
0
1.3781e-06
2.77018e-06
2.75442e-06
3.14249e-06
2.45127e-06
5.30305e-07
5.1195e-07
8.53196e-07
1.14884e-06
1.1923e-06
9.33694e-07
1.10822e-06
1.61898e-06
2.19682e-06
2.71316e-06
2.94899e-06
2.61241e-06
1.69577e-06
1.00371e-06
7.45337e-07
5.80983e-07
3.71372e-07
1.94413e-07
1.21986e-07
2.45243e-07
0
0
1.29727e-07
3.63905e-07
4.22718e-07
3.62042e-07
2.88082e-07
3.7866e-07
2.11526e-07
1.04518e-07
6.03127e-08
2.42847e-08
0
0
0
0
0
0
0
0
0
0
0
0
0
0
0
5.46408e-08
0
0
7.65422e-07
1.22271e-05
2.04205e-05
2.28586e-05
3.03268e-05
4.38545e-05
5.84625e-05
6.86193e-05
7.59962e-05
8.36871e-05
9.35125e-05
0.000105126
0.000114242
0.000108087
7.77922e-05
3.83792e-05
1.24702e-05
2.63622e-06
3.84294e-07
1.82849e-07
2.79255e-07
5.02283e-07
2.49116e-06
1.58574e-05
2.42408e-05
1.99065e-05
1.16955e-05
1.16786e-06
0
0
0
0
0
0
0
0
1.42249e-07
1.34916e-06
1.33043e-06
5.82469e-07
0
0
0
0
0
4.03721e-08
1.41943e-07
1.91949e-08
0
0
0
1.55983e-07
5.26463e-07
8.58674e-07
1.12344e-06
1.38538e-06
1.75649e-06
2.25405e-06
2.72467e-06
2.94704e-06
2.68335e-06
1.90795e-06
7.43694e-07
0
0
0
0
0
0
0
0
2.11542e-07
2.76175e-07
1.75587e-07
3.33433e-08
0
0
0
0
0
0
0
0
2.37048e-07
9.36872e-07
4.45766e-07
0
0
0
0
0
0
0
0
0
0
0
0
0
0
0
0
0
0
0
0
0
0
0
0
0
0
0
0
0
0
0
0
0
0
2.49289e-08
3.02891e-07
8.64912e-08
0
0
0
0
0
0
0
0
0
0
4.88206e-07
1.0394e-06
1.20355e-06
1.53644e-06
2.49958e-06
3.23813e-06
3.21336e-06
2.7037e-06
2.40779e-06
2.39689e-06
2.15293e-06
1.13345e-06
4.5269e-07
8.88403e-08
0
0
0
0
0
0
0
1.31223e-07
1.87694e-07
1.55103e-07
1.16958e-07
1.60517e-07
7.93146e-08
3.48984e-08
0
0
0
0
0
0
0
0
0
0
0
0
0
0
0
0
0
6.59945e-07
2.5023e-06
5.67867e-06
8.88361e-06
9.87231e-06
1.08841e-05
1.38923e-05
1.97472e-05
2.8235e-05
3.68247e-05
4.42823e-05
5.1478e-05
5.93471e-05
6.91345e-05
8.2059e-05
9.8054e-05
8.54529e-05
1.6712e-05
0
0
0
0
0
0
4.0163e-06
1.94816e-05
1.43963e-05
1.32896e-05
1.43506e-05
2.02906e-06
0
0
0
0
0
0
0
0
0
0
0
0
0
0
0
0
0
0
2.40179e-07
3.61889e-07
1.53553e-07
0
0
0
7.36212e-09
2.03969e-07
2.51184e-07
3.16858e-07
6.51612e-07
1.23553e-06
1.79773e-06
2.01912e-06
1.72646e-06
1.05911e-06
1.9513e-07
0
0
0
0
0
0
0
0
0
0
0
0
0
0
0
0
0
0
0
1.33709e-07
3.6578e-07
5.30071e-07
0
0
0
0
0
0
0
0
0
0
0
0
0
0
0
0
0
0
0
0
0
0
0
0
0
0
0
0
0
0
0
0
0
0
0
3.07224e-08
2.08463e-07
1.52882e-07
0
0
0
0
0
0
0
0
0
0
0
0
0
1.26582e-07
7.55908e-07
2.67215e-06
1.27035e-06
9.25341e-07
1.01877e-06
1.10545e-06
1.1988e-06
1.28948e-06
7.30316e-07
6.7215e-08
0
0
1.03918e-07
0
0
0
0
3.80953e-08
1.03742e-07
8.44063e-08
3.57984e-08
0
0
0
0
0
0
0
0
0
0
0
0
0
0
0
0
0
0
0
0
7.90604e-07
2.45829e-06
3.64599e-06
4.36249e-06
4.29822e-06
4.36187e-06
5.25931e-06
7.28934e-06
1.07749e-05
1.60955e-05
2.19464e-05
2.73352e-05
3.24605e-05
3.77962e-05
4.26822e-05
4.40956e-05
0
0
0
0
0
0
0
2.06576e-07
1.5593e-05
1.61291e-05
1.25178e-05
1.1592e-05
1.04622e-05
0
0
0
0
0
0
0
0
0
0
0
0
0
0
0
0
0
0
0
0
3.69237e-07
6.47971e-07
5.02645e-07
4.15895e-08
0
0
0
0
0
0
0
1.87659e-07
4.17855e-07
3.77078e-07
1.32158e-07
0
0
0
0
0
0
0
0
0
0
0
0
4.24635e-08
0
0
0
0
0
0
9.97253e-08
2.5269e-07
2.71841e-07
2.70399e-08
0
0
0
0
0
0
0
0
0
0
0
0
0
0
0
0
0
0
0
0
0
0
0
0
0
0
0
0
0
8.1174e-08
1.02126e-07
7.70018e-08
4.9263e-08
3.46849e-08
3.57102e-08
7.47956e-08
1.52564e-07
1.53713e-07
4.61719e-08
0
0
0
0
0
0
3.7562e-08
1.59632e-07
4.13593e-09
0
0
0
0
0
0
4.61531e-07
7.39251e-07
9.07336e-07
9.39549e-07
8.65984e-07
6.69788e-07
1.80578e-07
0
0
9.65135e-08
1.8933e-07
0
0
0
0
6.78114e-08
9.98972e-08
5.46451e-08
0
0
0
0
0
0
0
0
0
0
0
0
0
0
0
0
0
0
0
0
0
8.98858e-08
1.85409e-06
2.45909e-06
2.58927e-06
2.19042e-06
1.74837e-06
1.72782e-06
2.28453e-06
3.48591e-06
5.37533e-06
7.91217e-06
1.06924e-05
1.31139e-05
1.46628e-05
1.28672e-05
2.00139e-06
0
0
0
0
0
0
0
8.47937e-06
2.00077e-05
1.43996e-05
9.15594e-06
3.92953e-06
1.17252e-07
7.9638e-07
6.78836e-06
3.99052e-06
1.43524e-06
0
0
6.06152e-07
1.91433e-07
0
0
0
0
0
0
0
0
0
0
0
0
0
4.14807e-07
8.84695e-07
9.40798e-07
4.62514e-07
0
0
0
0
0
0
0
0
0
0
0
0
0
0
0
0
0
0
0
0
0
0
2.48695e-08
3.9127e-07
3.35998e-07
5.52019e-08
0
0
3.5841e-08
1.70522e-07
2.00941e-07
4.84668e-08
0
0
0
0
0
0
0
0
0
0
0
0
0
0
0
0
0
0
0
0
0
0
0
0
0
0
0
0
0
4.40987e-08
1.7402e-07
2.19249e-07
1.83445e-07
1.3807e-07
1.10094e-07
9.77514e-08
9.37927e-08
1.08393e-07
1.19763e-07
8.57612e-08
2.38609e-08
6.86564e-09
9.71803e-08
0
0
7.25575e-09
1.92877e-07
3.18226e-07
3.6872e-07
2.82819e-07
0
0
0
0
0
0
1.27436e-06
1.24653e-06
1.15924e-06
9.8258e-07
7.03707e-07
2.49625e-07
0
1.45215e-08
6.74232e-08
0
0
0
0
0
9.68178e-08
1.26005e-07
5.01557e-08
0
0
0
0
0
0
0
0
0
0
0
0
0
0
0
0
0
0
0
0
0
0
1.05865e-06
1.97394e-06
2.37875e-06
2.17545e-06
1.61378e-06
1.12032e-06
9.45904e-07
1.15411e-06
1.72841e-06
2.61428e-06
3.69916e-06
4.85105e-06
5.63785e-06
5.1304e-06
3.40702e-07
0
0
0
0
0
0
0
4.01093e-06
4.72127e-06
1.97446e-06
2.99746e-07
0
9.79812e-07
1.16055e-05
1.24791e-05
9.38974e-06
7.4483e-06
4.72784e-06
2.03712e-06
1.06276e-06
5.53989e-07
3.1038e-07
1.98634e-07
0
0
0
0
0
0
0
0
0
0
0
0
3.54517e-07
9.0159e-07
1.22885e-06
1.03821e-06
2.02263e-07
0
0
0
0
0
0
0
0
0
0
0
0
0
0
0
0
0
0
0
0
0
2.84723e-07
6.77864e-07
6.78431e-07
3.59271e-07
1.11379e-07
3.39607e-08
2.14282e-08
0
0
0
0
0
0
0
0
0
0
0
0
0
0
0
0
0
0
0
0
0
0
0
0
0
0
0
0
0
0
0
1.33825e-08
2.58463e-07
3.54466e-07
3.23684e-07
2.35448e-07
1.74106e-07
1.42005e-07
1.19043e-07
1.04388e-07
9.81579e-08
9.07601e-08
7.79574e-08
7.5858e-08
1.43002e-07
3.25493e-07
3.93604e-07
4.5894e-07
5.30919e-07
5.28795e-07
5.02351e-07
4.72789e-07
4.0061e-07
1.83445e-07
0
0
0
0
1.56128e-06
1.80614e-06
1.46473e-06
1.13025e-06
7.58976e-07
3.70265e-07
1.34301e-07
9.08356e-08
3.04545e-08
0
0
0
0
0
8.2921e-08
1.30508e-07
5.8128e-08
0
0
0
0
0
3.3684e-08
0
0
0
0
0
0
0
0
0
0
0
0
0
0
0
0
0
1.01726e-06
2.2595e-06
2.89735e-06
2.90983e-06
2.57619e-06
2.24149e-06
2.09498e-06
2.20381e-06
2.59071e-06
3.30134e-06
4.42754e-06
6.00914e-06
7.6468e-06
7.29666e-06
4.06133e-07
0
0
0
0
0
0
0
0
0
0
0
1.79073e-05
2.21228e-05
1.9074e-05
1.55363e-05
6.86762e-06
2.94887e-06
1.63421e-06
1.03201e-06
7.53357e-07
6.823e-07
6.01122e-07
4.65631e-07
3.31632e-07
1.82787e-07
2.46719e-08
0
0
0
0
0
0
0
0
0
3.08355e-07
7.93669e-07
1.25908e-06
1.43662e-06
9.62582e-07
0
0
0
0
0
0
0
0
0
0
0
0
0
0
0
0
0
0
0
0
3.33875e-08
3.18557e-07
6.57333e-07
7.42563e-07
4.80204e-07
1.08549e-07
0
0
0
0
0
0
0
0
0
1.16658e-07
5.99898e-07
5.24604e-07
2.64263e-07
3.84382e-08
0
0
0
0
0
0
0
0
0
0
0
0
0
0
0
0
0
0
0
2.20718e-07
4.45318e-07
4.81264e-07
3.83004e-07
2.70885e-07
2.0478e-07
1.72005e-07
1.46727e-07
1.37168e-07
1.43196e-07
1.68026e-07
2.24935e-07
3.41743e-07
5.1966e-07
6.5709e-07
8.93385e-07
1.08694e-06
1.01175e-06
7.9134e-07
6.21677e-07
5.1133e-07
3.37526e-07
1.06435e-07
1.06712e-07
5.65313e-07
5.72518e-07
5.54103e-07
5.65432e-07
1.01635e-06
9.558e-07
6.09976e-07
3.20723e-07
1.55613e-07
8.25531e-08
0
0
0
0
0
0
2.93773e-08
6.83264e-08
1.97069e-08
0
0
0
0
0
1.44092e-07
2.31642e-07
1.83195e-07
3.91721e-09
0
0
0
0
0
0
0
0
0
0
0
0
0
0
0
8.48027e-07
2.47178e-06
3.77038e-06
4.63475e-06
5.17332e-06
5.63412e-06
6.18281e-06
6.94191e-06
7.9075e-06
8.8395e-06
9.11722e-06
7.74616e-06
4.54839e-06
1.05415e-06
0
0
0
0
0
0
0
0
0
0
0
1.24621e-05
1.27441e-05
9.16569e-06
5.6731e-06
3.29691e-06
2.06263e-06
1.37136e-06
1.00129e-06
8.89469e-07
8.70406e-07
8.12667e-07
7.35099e-07
6.45128e-07
5.26605e-07
3.86776e-07
2.29072e-07
7.66541e-08
0
0
0
0
0
0
6.90931e-10
1.09723e-07
3.3114e-07
6.79057e-07
1.07602e-06
1.37021e-06
1.32356e-06
6.35931e-07
0
0
0
0
0
0
0
0
0
5.00186e-07
7.7444e-07
7.66874e-07
5.71477e-07
3.04434e-07
1.22778e-07
1.23292e-08
0
0
0
0
6.63443e-08
3.60706e-07
6.21863e-07
5.06645e-07
5.28497e-08
0
0
0
0
0
0
0
2.63685e-06
4.43994e-06
3.9725e-06
2.3253e-06
6.89479e-07
0
0
0
0
0
0
0
0
0
0
0
0
0
0
0
0
0
0
0
0
0
4.25971e-07
5.81919e-07
5.63135e-07
4.32684e-07
3.26668e-07
2.71174e-07
2.55217e-07
2.75192e-07
3.46925e-07
4.61305e-07
6.11276e-07
7.33576e-07
7.14338e-07
6.07948e-07
5.64504e-07
6.62607e-07
9.23365e-07
1.15141e-06
9.66428e-07
6.81413e-07
4.3446e-07
2.81081e-07
3.49526e-07
6.84847e-07
7.03485e-07
2.93652e-07
8.25795e-08
2.83216e-07
5.47665e-07
4.29125e-07
2.42264e-07
1.24182e-07
4.17175e-08
0
0
0
0
0
0
0
0
0
0
0
0
0
0
1.97831e-07
9.11483e-08
1.41789e-08
7.06827e-09
1.81611e-09
0
0
0
0
0
0
0
0
0
0
0
0
0
0
0
5.50832e-07
2.12862e-06
3.59459e-06
4.77773e-06
5.58235e-06
6.01387e-06
6.14628e-06
5.98252e-06
5.44978e-06
4.51048e-06
3.25915e-06
1.89971e-06
6.36611e-07
0
0
0
0
0
0
0
0
0
0
0
7.57932e-07
3.74948e-06
3.94347e-06
2.99018e-06
2.08009e-06
1.45651e-06
1.03435e-06
8.40281e-07
8.21893e-07
8.28313e-07
8.1077e-07
7.7444e-07
7.09189e-07
6.15289e-07
5.00439e-07
3.75479e-07
2.55686e-07
1.50316e-07
7.11246e-08
2.90034e-08
2.50406e-08
4.77074e-08
8.04669e-08
1.13841e-07
1.51582e-07
2.11122e-07
3.25263e-07
5.03538e-07
7.44866e-07
9.56835e-07
1.06692e-06
8.48689e-07
2.54313e-07
0
0
0
0
0
0
8.76823e-07
1.43403e-06
1.3873e-06
1.0841e-06
7.168e-07
3.74964e-07
1.41224e-07
0
0
0
0
0
0
0
6.05995e-08
4.85916e-07
7.64756e-07
6.57874e-07
1.79987e-07
0
0
0
0
3.1085e-06
3.81049e-06
4.26622e-06
5.72845e-06
6.31963e-06
0
0
0
0
0
0
0
0
0
0
0
0
0
0
0
0
0
0
0
0
0
0
2.39612e-07
5.78325e-07
6.50271e-07
5.94626e-07
4.83618e-07
4.15328e-07
3.92648e-07
4.53097e-07
6.51547e-07
8.45802e-07
9.15081e-07
8.38702e-07
6.95122e-07
5.78613e-07
5.13825e-07
4.99504e-07
5.33006e-07
6.36081e-07
9.00169e-07
1.03999e-06
7.02108e-07
4.61761e-07
4.15694e-07
4.78165e-07
5.07197e-07
1.73752e-07
1.16552e-08
9.10699e-08
3.02441e-07
2.95821e-07
1.72965e-07
8.96387e-08
3.98591e-09
0
1.73684e-07
2.32662e-07
1.4927e-07
1.41134e-08
0
0
0
0
0
0
0
0
0
2.09228e-07
7.40418e-08
0
0
0
0
0
0
0
0
0
0
0
0
0
0
0
0
0
0
0
0
1.81323e-07
1.2017e-06
2.2004e-06
3.10549e-06
3.86544e-06
4.40421e-06
4.63655e-06
4.47855e-06
3.91452e-06
3.02576e-06
1.93727e-06
7.39001e-07
0
0
0
0
0
0
0
0
0
1.82447e-06
2.8305e-06
2.91417e-06
2.49046e-06
1.89045e-06
1.36255e-06
9.61516e-07
6.99029e-07
6.31455e-07
6.53673e-07
6.63679e-07
6.53922e-07
6.22911e-07
5.71851e-07
5.09114e-07
4.34173e-07
3.53212e-07
2.74569e-07
2.01596e-07
1.38565e-07
9.14639e-08
6.42537e-08
5.72656e-08
6.74151e-08
8.94524e-08
1.18364e-07
1.48513e-07
1.82156e-07
2.28793e-07
3.05244e-07
4.07906e-07
5.45203e-07
6.52054e-07
6.88512e-07
6.1024e-07
2.80517e-07
0
0
0
0
9.45621e-07
8.61237e-07
5.40767e-07
2.49495e-07
3.63068e-08
0
0
0
0
0
0
0
0
0
0
0
2.59757e-07
6.68755e-07
1.01115e-06
1.04553e-06
7.2524e-07
1.23144e-06
3.10314e-06
3.53839e-06
3.53537e-06
3.58982e-06
3.72618e-06
2.25243e-06
0
0
0
0
0
0
0
0
0
0
0
0
0
0
0
0
0
0
2.13967e-08
1.59465e-08
0
0
6.74825e-08
4.78307e-07
6.75665e-07
6.87068e-07
6.15932e-07
5.54831e-07
5.23177e-07
5.07784e-07
5.4636e-07
5.82183e-07
5.26385e-07
4.6774e-07
4.85773e-07
5.09658e-07
4.85317e-07
4.62588e-07
4.87479e-07
5.56641e-07
6.42997e-07
8.13977e-07
8.83603e-07
5.93696e-07
4.48566e-07
4.22707e-07
3.96231e-07
1.68712e-07
0
6.34686e-08
2.12259e-07
2.11403e-07
1.32669e-07
8.38657e-08
1.51935e-08
0
2.13665e-07
3.07948e-07
3.08606e-07
2.85495e-07
1.64578e-07
0
0
0
0
0
0
0
0
0
1.01223e-07
0
0
0
0
0
0
0
0
0
0
0
0
0
0
0
0
0
0
0
0
0
0
0
1.02239e-08
7.02061e-07
1.44054e-06
2.23231e-06
3.04136e-06
3.70074e-06
3.88391e-06
3.20489e-06
1.49744e-06
0
0
0
0
0
0
7.46699e-07
1.68085e-06
2.13152e-06
2.2439e-06
2.14959e-06
1.89175e-06
1.54024e-06
1.18264e-06
8.61971e-07
5.98883e-07
4.71836e-07
4.59084e-07
4.69936e-07
4.66393e-07
4.46172e-07
4.08579e-07
3.63851e-07
3.19748e-07
2.73538e-07
2.29576e-07
1.8988e-07
1.53359e-07
1.19314e-07
8.87897e-08
6.38214e-08
4.57494e-08
3.54423e-08
3.25971e-08
3.72587e-08
4.79899e-08
6.11382e-08
7.55464e-08
9.30341e-08
1.174e-07
1.59783e-07
2.34296e-07
3.31773e-07
4.72084e-07
6.49763e-07
8.85955e-07
1.32399e-06
2.20103e-06
1.64479e-06
0
0
0
0
0
0
0
0
0
0
0
0
0
0
2.80425e-08
1.39883e-07
1.06334e-07
0
0
0
0
5.98543e-07
2.98478e-06
2.53025e-06
1.71506e-06
9.35015e-07
4.34177e-07
7.741e-08
0
0
0
0
0
0
0
0
0
0
0
0
0
0
0
0
0
0
5.71003e-08
1.10862e-07
9.60143e-08
3.74937e-08
4.65597e-08
3.35894e-07
6.41104e-07
7.25505e-07
6.87107e-07
6.24469e-07
6.01678e-07
5.74405e-07
5.46645e-07
5.01463e-07
3.95935e-07
2.73767e-07
2.58907e-07
3.69308e-07
4.36926e-07
4.25822e-07
4.22547e-07
4.99512e-07
6.55984e-07
6.66233e-07
5.99538e-07
5.24558e-07
4.37664e-07
4.01573e-07
3.69994e-07
2.25287e-07
0
0
1.297e-07
1.19206e-07
8.85582e-08
7.60887e-08
4.57674e-08
0
1.39648e-07
2.82429e-07
3.35513e-07
3.65678e-07
2.77673e-07
0
0
0
0
0
0
0
0
0
0
0
0
0
0
0
0
0
0
0
0
0
0
0
0
0
0
0
0
0
0
0
0
0
0
4.89489e-08
5.00299e-07
1.06574e-06
1.81396e-06
2.87223e-06
4.36898e-06
5.73208e-06
3.30879e-06
0
0
0
0
6.94949e-07
1.06605e-06
1.23693e-06
1.28678e-06
1.25841e-06
1.17305e-06
1.04704e-06
9.0084e-07
7.36438e-07
5.47883e-07
3.60639e-07
2.22502e-07
1.65049e-07
1.60797e-07
1.89212e-07
2.20725e-07
2.27383e-07
2.10278e-07
1.82982e-07
1.55232e-07
1.30081e-07
1.08308e-07
9.00318e-08
7.40829e-08
6.07795e-08
4.96141e-08
3.99072e-08
3.08222e-08
2.20203e-08
1.39012e-08
6.84513e-09
2.02543e-09
0
0
3.78777e-09
1.37299e-08
3.4586e-08
7.81503e-08
1.57159e-07
2.94619e-07
5.30722e-07
8.98655e-07
1.53065e-06
2.50727e-06
1.56981e-06
0
0
0
0
0
0
0
0
0
0
0
0
0
0
0
7.73414e-08
2.80742e-07
3.90843e-07
2.28208e-07
0
0
0
0
0
0
0
0
0
0
0
0
0
0
0
0
0
0
0
0
0
0
0
0
0
1.52592e-08
3.56856e-08
8.3732e-08
1.60573e-07
1.88776e-07
1.5073e-07
1.19269e-07
2.60144e-07
5.74505e-07
7.43141e-07
7.33996e-07
6.51861e-07
6.30824e-07
6.28533e-07
6.09183e-07
5.58834e-07
4.59315e-07
3.19149e-07
2.08181e-07
2.32485e-07
3.40304e-07
3.73538e-07
3.54633e-07
3.71958e-07
4.85971e-07
5.2384e-07
3.77594e-07
3.16554e-07
3.45004e-07
3.54173e-07
3.43954e-07
2.61696e-07
1.14106e-08
0
2.6057e-08
4.11113e-08
4.38869e-08
5.24749e-08
4.45107e-08
0
0
1.7603e-07
2.86216e-07
3.3058e-07
1.39105e-07
0
1.28233e-07
1.15171e-07
7.35146e-10
0
0
0
0
0
0
0
2.40389e-07
2.23943e-07
0
0
0
0
0
0
0
0
0
0
0
0
0
0
0
0
0
0
7.41946e-08
2.3486e-07
4.09095e-07
5.83572e-07
7.3133e-07
8.336e-07
9.20942e-07
1.05168e-06
1.24218e-06
1.26373e-06
2.29313e-08
0
0
0
0
0
1.70621e-07
2.55287e-07
3.01901e-07
3.39841e-07
3.54026e-07
3.55736e-07
3.51401e-07
3.28783e-07
2.78928e-07
2.23015e-07
1.82206e-07
1.68617e-07
1.83502e-07
2.02792e-07
1.90688e-07
1.38488e-07
6.0516e-08
0
0
0
0
0
0
8.17922e-09
1.57475e-08
1.77386e-08
1.78175e-08
1.71759e-08
1.57204e-08
1.33796e-08
1.08225e-08
8.95102e-09
8.99873e-09
1.31999e-08
2.5218e-08
4.92683e-08
9.45746e-08
1.73126e-07
2.99964e-07
4.94865e-07
7.77526e-07
1.11227e-06
1.2449e-06
2.0567e-07
0
0
0
0
0
0
0
0
0
0
0
0
5.53906e-08
1.27676e-07
3.92107e-08
0
0
1.75005e-07
5.75889e-07
9.40767e-07
8.94432e-07
0
0
0
0
0
0
0
0
0
0
0
0
0
0
0
0
0
0
0
0
0
0
0
2.98638e-08
7.47262e-08
1.29232e-07
2.05997e-07
2.62101e-07
2.6112e-07
2.38034e-07
2.97701e-07
5.33462e-07
7.54666e-07
7.8371e-07
6.86979e-07
6.48673e-07
6.68353e-07
6.7098e-07
6.35713e-07
5.61491e-07
4.49878e-07
3.12403e-07
2.15107e-07
2.23434e-07
2.67797e-07
2.77676e-07
2.8264e-07
2.9981e-07
2.41961e-07
1.83315e-07
1.65146e-07
2.25875e-07
2.78575e-07
2.93834e-07
2.54013e-07
1.05764e-07
0
0
7.43157e-09
2.55723e-08
3.97037e-08
3.78729e-08
0
0
0
1.70042e-07
2.32965e-07
0
0
4.92387e-07
4.35053e-07
1.87918e-07
0
0
0
0
0
0
0
1.04083e-07
2.72479e-07
1.73599e-07
0
0
0
4.16778e-08
0
0
0
0
0
0
0
0
0
0
5.94077e-08
2.00259e-07
2.58704e-07
2.53044e-07
2.29876e-07
2.3546e-07
2.58384e-07
2.63645e-07
2.39574e-07
1.94866e-07
1.2928e-07
1.44365e-08
0
0
0
0
0
0
0
0
0
0
0
0
0
0
0
0
0
4.37047e-08
1.19017e-07
1.95107e-07
2.17539e-07
1.87153e-07
1.13489e-07
8.65546e-09
0
0
0
0
0
0
0
0
0
6.78959e-09
1.55444e-08
2.18864e-08
2.78319e-08
3.429e-08
4.21033e-08
5.26709e-08
6.76153e-08
9.11236e-08
1.25554e-07
1.77402e-07
2.55237e-07
3.59076e-07
4.92763e-07
6.47101e-07
7.34091e-07
5.59743e-07
0
0
0
0
0
0
0
0
0
0
0
0
0
0
9.04192e-08
1.83918e-07
9.54014e-08
0
0
0
1.5564e-07
1.27388e-06
2.67257e-06
1.54162e-06
0
0
0
0
0
0
0
0
1.8511e-08
0
0
0
0
0
0
0
0
0
0
0
0
3.23104e-08
1.06866e-07
1.84797e-07
2.67377e-07
3.3899e-07
3.72384e-07
3.81213e-07
4.15835e-07
5.59869e-07
7.79126e-07
8.41029e-07
7.38481e-07
6.69689e-07
6.96714e-07
7.2054e-07
7.01704e-07
6.51295e-07
5.80379e-07
4.74004e-07
3.168e-07
1.76588e-07
1.51862e-07
1.83807e-07
2.15735e-07
2.21384e-07
1.092e-07
3.51651e-08
7.44236e-08
1.3366e-07
2.01353e-07
2.35207e-07
2.20244e-07
1.32234e-07
1.61169e-08
0
3.73905e-09
2.31907e-08
3.57012e-08
3.31602e-08
0
0
0
0
5.83409e-08
0
0
8.64924e-07
8.81096e-07
5.1759e-07
1.34222e-07
0
0
0
0
0
7.86942e-10
5.88808e-08
3.00087e-08
1.90742e-09
2.20671e-08
6.6852e-08
2.66089e-09
4.17017e-08
0
0
0
0
0
0
0
0
3.39001e-08
1.57163e-07
1.96589e-07
2.01581e-07
1.97479e-07
1.97284e-07
2.03918e-07
2.23214e-07
2.49826e-07
2.55963e-07
2.20823e-07
1.28776e-07
0
0
0
0
0
3.43558e-08
1.12659e-07
8.4225e-08
7.71671e-08
1.10241e-07
9.51568e-08
0
0
0
0
0
0
0
0
0
0
0
0
0
0
0
0
0
0
0
0
0
0
0
0
0
7.43144e-09
2.51802e-08
3.97787e-08
5.5351e-08