/*--------------------------------*- C++ -*----------------------------------*\
  =========                 |
  \\      /  F ield         | OpenFOAM: The Open Source CFD Toolbox
   \\    /   O peration     | Website:  https://openfoam.org
    \\  /    A nd           | Version:  9
     \\/     M anipulation  |
\*---------------------------------------------------------------------------*/
FoamFile
{
    format      ascii;
    class       volScalarField;
    location    "0.039";
    object      p;
}
// * * * * * * * * * * * * * * * * * * * * * * * * * * * * * * * * * * * * * //

dimensions      [0 2 -2 0 0 0 0];

internalField   nonuniform List<scalar> 
12225
(
128.966
115.341
105.36
98.4384
93.4508
89.7339
86.882
84.7295
83.167
82.0361
81.213
80.6523
80.4034
80.4959
80.957
81.5766
82.0425
80.7527
128.987
115.187
105.25
98.3373
93.3665
89.672
86.8357
84.6842
83.1099
81.9636
81.1268
80.5516
80.2801
80.3306
80.7267
81.2424
81.5721
80.3404
128.979
114.846
104.963
98.1324
93.2096
89.5474
86.7337
84.5901
83.0045
81.8346
80.9748
80.3806
80.0722
80.0373
80.2501
80.4943
80.4727
79.5054
128.601
114.248
104.497
97.7972
92.9513
89.3447
86.5699
84.4434
82.8534
81.6682
80.789
80.1675
79.7995
79.6526
79.6751
79.685
79.4506
78.6847
127.631
113.18
103.781
97.319
92.6016
89.0704
86.3442
84.24
82.648
81.4469
80.5446
79.8887
79.4565
79.2048
79.0663
78.9008
78.5458
77.8663
125.832
111.87
102.849
96.6585
92.1009
88.6802
86.0264
83.9631
82.3848
81.1764
80.2508
79.5556
79.0569
78.7055
78.4298
78.1238
77.6728
77.0034
122.216
109.915
101.613
95.7976
91.4754
88.1986
85.6296
83.6103
82.0441
80.8279
79.8805
79.1487
78.5897
78.1503
77.7634
77.3486
76.8213
76.1358
118.644
107.643
100.096
94.7316
90.6818
87.5734
85.114
83.1609
81.6264
80.4141
79.4474
78.6756
78.0559
77.5378
77.0613
76.5603
75.9693
75.2558
113.941
104.627
98.165
93.4124
89.7224
86.8247
84.4966
82.6214
81.1259
79.9244
78.9434
78.134
77.4548
76.8603
76.2986
75.7156
75.0621
74.3129
106.696
101.163
95.958
91.8715
88.5827
85.9214
83.7508
81.9779
80.5397
79.3602
78.3717
77.5304
76.7999
76.1393
75.5039
74.8503
74.1409
73.3526
100.307
97.3495
93.4545
90.0912
87.2466
84.86
82.8637
81.2051
79.8372
78.6927
77.7113
76.8563
76.0954
75.3896
74.6983
73.9848
73.2219
72.388
94.3034
93.77
91.0003
88.2811
85.8461
83.7479
81.9455
80.4093
79.1139
78.0017
77.0231
76.1528
75.3654
74.6249
73.8933
73.1379
72.3352
71.4671
92.3457
90.4175
88.4069
86.3518
84.335
82.5155
80.9027
79.4977
78.2916
77.235
76.2825
75.4145
74.6123
73.8434
73.0738
72.277
71.435
70.5353
88.9679
86.4843
85.2888
83.9706
82.4551
80.9787
79.6091
78.3726
77.2741
76.2778
75.3512
74.4857
73.669
72.874
72.0728
71.2455
70.3784
69.4616
77.7004
81.2651
81.7308
81.1751
80.2057
79.1027
77.9946
76.9431
75.9704
75.059
74.1912
73.3602
72.552
71.7448
70.9194
70.0667
69.1777
68.2482
71.122
76.0844
77.907
77.9475
77.4692
76.7705
75.9701
75.1507
74.347
73.5517
72.7577
71.9683
71.1817
70.3891
69.5799
68.745
67.8743
66.9649
68.9087
72.5972
74.2073
74.5283
74.4587
74.1727
73.6971
73.1075
72.4665
71.7872
71.0785
70.3533
69.6119
68.8477
68.0583
67.245
66.4055
65.5385
71.4036
70.0799
70.8005
71.2484
71.3241
71.2078
70.94
70.5706
70.1273
69.6187
69.0547
68.4488
67.8074
67.1287
66.4136
65.6667
64.891
64.0916
69.7801
67.8091
67.1495
67.2529
67.6181
67.961
68.0757
67.9628
67.7165
67.3779
66.9512
66.4477
65.8867
65.2844
64.6469
63.9777
63.2811
62.5638
54.63
59.2068
62.1096
63.715
64.7315
65.3161
65.6167
65.7113
65.6404
65.4559
65.1771
64.81
64.3703
63.8736
63.3304
62.7462
62.1282
61.4868
45.8487
54.6033
59.0219
61.3812
62.857
63.7399
64.2347
64.4572
64.4776
64.3492
64.1155
63.7891
63.3892
62.9365
62.441
61.9072
61.3405
60.7501
45.1074
53.7758
58.0776
60.3766
61.7791
62.6217
63.1451
63.4325
63.5251
63.4772
63.3108
63.0439
62.6961
62.2901
61.8374
61.3432
60.8143
60.2619
46.5632
54.2607
58.0803
60.0896
61.383
62.1779
62.6541
62.9036
62.9807
62.9297
62.7704
62.5147
62.185
61.8023
61.3759
60.9104
60.4125
59.8909
61.8721
58.9138
59.3488
60.2888
61.2009
61.823
62.2227
62.4706
62.5667
62.5306
62.391
62.1599
61.8528
61.4873
61.0753
60.6248
60.1434
59.6387
61.9097
59.6669
59.9883
60.4802
61.1718
61.6972
62.0328
62.2414
62.3176
62.2662
62.1253
61.8978
61.5973
61.2411
60.8412
60.4073
59.9454
59.4614
63.4228
61.3743
60.536
60.687
61.1403
61.566
61.8792
62.0793
62.1509
62.1202
61.9806
61.7595
61.4594
61.0985
60.702
60.2776
59.8279
59.3563
64.4945
60.6368
60.5914
60.7652
61.1409
61.5206
61.8066
61.9907
62.0518
61.9832
61.8456
61.6239
61.3281
60.9783
60.5924
60.1805
59.7406
59.281
59.5578
60.4067
60.6227
60.8067
61.136
61.4846
61.7565
61.9362
61.9956
61.9493
61.8029
61.5783
61.2797
60.9263
60.5394
60.1293
59.6974
59.2421
58.5623
60.1102
60.542
60.8354
61.1661
61.4749
61.7308
61.9002
61.9592
61.9101
61.7639
61.5348
61.2306
60.8744
60.4894
60.0864
59.6645
59.2205
58.7529
60.02
60.4997
60.8166
61.1514
61.4629
61.7217
61.8983
61.9635
61.9156
61.7656
61.5274
61.2138
60.8507
60.4645
60.0649
59.6491
59.2128
45.0927
44.9451
44.8413
44.9263
45.2091
45.6186
45.8911
45.8238
45.3324
44.4211
43.1607
41.681
40.1255
38.6256
37.2944
36.2256
35.4934
35.1534
35.2161
35.6752
36.5155
37.6911
39.1134
40.6417
42.1051
43.2626
43.9263
43.7625
43.3478
42.9372
42.3439
41.1176
39.1882
37.2291
36.5202
37.3376
39.5683
42.4258
43.2701
40.7146
37.9178
36.0103
35.6777
36.1763
35.8705
35.9389
36.2652
36.5145
38.4748
41.3664
41.6121
39.4832
35.8946
31.2405
25.9508
20.3674
14.764
9.35042
4.26371
-0.409117
-4.61797
-8.33318
-11.5395
-14.2308
-16.4044
-18.0553
-19.1815
-19.7859
-19.8845
-19.5022
-18.6734
-17.4379
-15.8431
-13.9411
-11.7869
-9.43686
-6.94472
-4.36044
-1.72715
0.920588
3.55834
6.17264
8.76103
11.3317
13.9024
16.4988
19.1523
21.8962
24.7616
27.773
30.9429
34.2678
37.7256
41.2746
44.8567
48.4032
51.8412
55.1019
58.1273
60.8741
63.3147
65.4368
67.2422
68.7431
69.9587
70.912
71.6251
72.1142
72.4126
72.5329
72.4919
72.3052
71.9875
71.5531
71.0163
70.3919
69.6956
68.945
68.1592
67.3581
66.559
65.7738
65.0068
64.2585
63.5311
62.8238
62.1407
61.4945
60.8921
60.3291
59.7946
59.2751
58.7612
58.2513
57.7504
57.2641
56.7954
56.3433
55.9053
55.4796
55.0651
54.6605
54.2638
53.873
53.4862
53.1011
52.715
52.3249
51.928
51.5234
51.1129
50.7007
50.2912
49.887
49.4878
49.0916
48.6958
48.2982
47.8983
47.4965
47.0941
46.6921
46.2913
45.8916
45.4925
45.0935
44.6942
44.2946
43.8948
43.4957
43.0978
42.7028
42.3116
41.927
41.5508
41.1874
40.8409
40.515
40.2236
39.9438
44.368
44.2337
44.2217
44.3617
44.6646
44.9083
44.9006
44.5127
43.7303
42.5962
41.2085
39.687
38.1503
36.7036
35.4355
34.4119
33.6776
33.2515
33.1651
33.4851
34.206
35.2769
36.639
38.1891
39.8028
41.2709
42.4042
42.9975
43.2337
43.3912
41.8273
39.3774
36.5397
33.6301
32.3151
32.7318
34.2269
36.7364
37.9531
36.2433
34.1861
32.9657
33.045
34.5739
35.2126
38.2435
37.8717
34.5428
34.6871
36.6552
36.4575
34.3472
30.8939
26.5052
21.5939
16.461
11.3431
6.41299
1.77399
-2.50987
-6.4021
-9.87042
-12.8881
-15.4283
-17.4723
-19.0093
-20.0443
-20.5818
-20.628
-20.1984
-19.3193
-18.0298
-16.3771
-14.4147
-12.2002
-9.79125
-7.2444
-4.61141
-1.93741
0.741468
3.39972
6.02328
8.60981
11.1681
13.7173
16.2851
18.9055
21.6152
24.4494
27.4365
30.5925
33.9165
37.3871
40.9615
44.5782
48.1636
51.6402
54.9348
57.9864
60.7502
63.1988
65.3212
67.1217
68.6146
69.8214
70.7667
71.471
71.9606
72.2589
72.3826
72.3478
72.1697
71.8625
71.4399
70.9158
70.3041
69.62
68.8798
68.1021
67.3073
66.5138
65.7341
64.9732
64.2303
63.5014
62.7914
62.1138
61.4743
60.8745
60.3099
59.7719
59.2505
58.7384
58.2335
57.7387
57.2585
56.7941
56.3442
55.9069
55.4807
55.0649
54.6585
54.2601
53.8676
53.4791
53.0925
52.7052
52.3147
51.9184
51.5151
51.1064
50.6958
50.2878
49.8849
49.4869
49.0917
48.6966
48.2997
47.9001
47.4986
47.0962
46.6943
46.2933
45.8933
45.4938
45.0942
44.6942
44.2939
43.8934
43.4935
43.0948
42.6986
42.3064
41.9197
41.5415
41.1736
40.8231
40.4861
40.1854
39.8699
44.791
44.8356
44.6727
44.4284
44.0596
43.471
42.6065
41.458
40.0592
38.5002
36.8708
35.2465
33.6918
32.2648
31.0208
30.0132
29.2932
28.9021
28.8612
29.1365
29.7163
30.5839
31.7121
33.0517
34.5423
36.083
37.5563
38.7861
39.5843
39.7245
39.0393
37.4687
34.838
32.2924
31.086
31.7377
33.0625
34.5621
34.0498
31.5951
30.5168
30.0484
32.6431
34.5388
33.3715
34.3182
35.0133
33.8357
32.4239
31.2539
29.5531
27.1635
24.0395
20.3348
16.2315
11.9169
7.54438
3.24078
-0.903968
-4.81477
-8.43579
-11.714
-14.6002
-17.0523
-19.0414
-20.548
-21.5508
-22.0384
-22.0178
-21.5086
-20.5406
-19.1534
-17.3953
-15.3223
-12.995
-10.4757
-7.82501
-5.09927
-2.34743
0.391187
3.08876
5.73008
8.31274
10.8468
13.3536
15.8649
18.4196
21.061
23.832
26.769
29.8958
33.2168
36.7127
40.3385
44.0257
47.691
51.2464
54.6099
57.714
60.5115
62.9752
65.0974
66.8866
68.3621
69.5505
70.4808
71.1642
71.6511
71.9499
72.0796
72.0558
71.8929
71.6046
71.2039
70.7038
70.1169
69.4569
68.7385
67.9781
67.1949
66.4102
65.64
64.8884
64.1524
63.4317
62.7335
62.0652
61.4327
60.8364
60.2743
59.7392
59.2206
58.7105
58.2083
57.7173
57.2412
56.7806
56.3336
55.8976
55.4716
55.0553
54.6485
54.2498
53.8573
53.4684
53.081
52.6927
52.3012
51.9051
51.5042
51.0999
50.6948
50.2913
49.8905
49.4924
49.0959
48.6993
48.3016
47.9023
47.5017
47.1005
46.6994
46.2986
45.898
45.4976
45.0968
44.6956
44.2939
43.8921
43.4906
43.0903
42.6918
42.2968
41.9057
41.5224
41.1455
40.7834
40.4259
40.0917
39.7237
44.2076
44.2561
43.9884
43.1794
41.9269
40.4512
38.8987
37.3221
35.7375
34.1574
32.5989
31.0855
29.6483
28.3251
27.1584
26.1917
25.4672
25.0212
24.8844
25.0313
25.4323
26.0616
26.8967
27.9126
29.0834
30.3769
31.7515
33.1364
34.4068
35.399
35.8722
35.743
35.1068
34.6024
35.0263
36.2949
38.1746
38.947
36.4246
34.2266
32.2907
31.0403
31.9436
32.836
32.6946
32.216
31.3769
30.1105
28.4644
26.4517
24.1092
21.4382
18.4089
15.0405
11.4058
7.60885
3.75215
-0.0820763
-3.831
-7.43625
-10.8325
-13.9492
-16.7259
-19.116
-21.076
-22.5576
-23.5186
-23.9559
-23.8739
-23.2851
-22.2165
-20.7068
-18.8081
-16.5821
-14.0963
-11.4206
-8.62261
-5.7651
-2.9028
-0.0797567
2.67286
5.33796
7.9129
10.4092
12.8515
15.2765
17.7305
20.2665
22.9387
25.7967
28.8763
32.1913
35.7262
39.4325
43.231
47.0224
50.7013
54.1714
57.3558
60.2029
62.6873
64.8058
66.5735
68.0176
69.1706
70.0664
70.7305
71.2016
71.4975
71.6353
71.6285
71.4889
71.2279
70.858
70.3915
69.8404
69.2163
68.532
67.8019
67.0425
66.2717
65.5088
64.7669
64.0455
63.3373
62.6453
61.9852
61.3652
60.7823
60.2283
59.6968
59.1803
58.6713
58.171
57.6828
57.2107
56.7543
56.3116
55.8799
55.4574
55.0434
54.6377
54.2393
53.8465
53.4572
53.0691
52.6803
52.2892
51.8944
51.4958
51.0942
50.6916
50.2896
49.8897
49.4919
49.0955
48.6991
48.302
47.9036
47.5041
47.1037
46.7028
46.3018
45.9007
45.4994
45.0976
44.6952
44.2922
43.889
43.4858
43.0836
42.6826
42.2845
41.8891
41.4998
41.1144
40.7392
40.3632
39.9966
39.591
44.6982
44.081
42.7711
41.0146
39.1524
37.3461
35.6252
33.9754
32.3713
30.7942
29.243
27.7378
26.3139
25.0173
23.8959
22.9907
22.3263
21.9073
21.7234
21.8177
22.188
22.788
23.5547
24.4365
25.4035
26.4659
27.6494
28.9882
30.4886
32.1397
33.8762
35.6476
37.4533
39.4003
41.5899
43.8592
45.9788
46.5638
44.4418
42.0291
39.6053
37.1286
35.218
33.5186
31.9386
30.2542
28.4144
26.5612
24.5737
22.3473
19.8393
17.0688
14.056
10.8305
7.44839
3.96886
0.450011
-3.07141
-6.56442
-9.98687
-13.2739
-16.3488
-19.133
-21.5487
-23.5195
-24.9921
-25.9492
-26.3725
-26.2455
-25.5733
-24.3809
-22.7123
-20.6272
-18.1967
-15.4992
-12.6145
-9.61993
-6.58663
-3.57682
-0.64065
2.18664
4.88597
7.45454
9.90561
12.2676
14.583
16.907
19.3045
21.8452
24.596
27.6104
30.9158
34.5028
38.3184
42.2681
46.229
50.0719
53.6805
56.9662
59.8735
62.3789
64.4862
66.2201
67.6174
68.7142
69.56
70.1862
70.628
70.9106
71.0524
71.0655
70.9574
70.7346
70.4059
69.9824
69.476
68.8978
68.2581
67.5681
66.8419
66.0967
65.3515
64.621
63.9105
63.2161
62.5371
61.8852
61.2768
60.7084
60.1684
59.6457
59.1324
58.6249
58.1248
57.6386
57.1697
56.718
56.2809
55.8552
55.4383
55.0287
54.6255
54.2278
53.8346
53.4443
53.0556
52.6667
52.2759
51.8822
51.4852
51.0859
50.6858
50.2862
49.8882
49.4916
49.0956
48.6995
48.3026
47.9045
47.5054
47.1054
46.7048
46.3039
45.9025
45.5006
45.0979
44.6945
44.2903
43.8856
43.4807
43.0763
42.6727
42.2711
41.8712
41.4754
41.0814
40.6926
40.2996
39.9042
39.4716
43.5768
42.347
40.2177
38.0989
36.1377
34.3231
32.6008
30.9134
29.2217
27.5117
25.7923
24.0943
22.4695
20.9803
19.6905
18.6589
17.9343
17.555
17.5371
17.8498
18.4527
19.29
20.2883
21.3767
22.5072
23.6656
24.8799
26.2456
27.8794
29.9034
32.3965
35.3557
38.6599
42.0805
45.3841
48.2651
50.3565
50.7882
49.3906
46.4654
43.2723
40.0142
36.8564
33.8145
31.0485
28.4903
26.0678
23.7459
21.4222
19.0137
16.4326
13.6609
10.7022
7.59246
4.37939
1.10142
-2.22513
-5.60805
-9.04508
-12.494
-15.8672
-19.0595
-21.9662
-24.4854
-26.5334
-28.066
-29.0552
-29.4569
-29.256
-28.4623
-27.1017
-25.224
-22.8968
-20.2012
-17.2292
-14.0737
-10.8246
-7.56403
-4.36329
-1.28014
1.64518
4.39135
6.95572
9.35391
11.6188
13.7998
15.9624
18.1858
20.5585
23.17
26.0967
29.3854
33.0371
36.9943
41.1411
45.3232
49.3767
53.1595
56.5694
59.5487
62.0764
64.167
65.8621
67.2049
68.2435
69.0278
69.5994
69.9955
70.2464
70.3748
70.395
70.3138
70.1334
69.856
69.4868
69.035
68.511
67.9243
67.2844
66.6021
65.8918
65.1715
64.459
63.7653
63.0884
62.4237
61.7806
61.1792
60.6205
60.0956
59.5854
59.0788
58.5734
58.0742
57.5897
57.1235
56.6757
56.2437
55.8242
55.4141
55.0105
54.6113
54.2154
53.8222
53.4311
53.0415
52.6521
52.2617
51.8694
51.4747
51.078
50.6803
50.2827
49.886
49.49
49.0945
48.6986
48.302
47.9044
47.5058
47.1064
46.7062
46.3053
45.9036
45.5011
45.0976
44.6931
44.2875
43.8812
43.4744
43.0677
42.6613
42.2561
41.8516
41.449
41.0465
40.6448
40.2362
39.8174
39.364
39.4926
38.2192
36.5235
34.811
33.1266
31.4516
29.7552
28.0115
26.2103
24.359
22.4854
20.6386
18.884
17.2935
15.9375
14.8756
14.1546
13.8016
13.8232
14.2182
14.9561
15.9814
17.2164
18.5667
19.9396
21.2874
22.6227
24.0484
25.7249
27.8402
30.5412
33.8751
37.7148
41.7432
45.4949
48.4971
50.3367
50.6318
49.2668
46.5652
43.2638
39.7424
36.228
32.8237
29.657
26.7358
24.0262
21.4557
18.9438
16.4218
13.8115
11.0734
8.18808
5.17573
2.06179
-1.14063
-4.44951
-7.89975
-11.4934
-15.1559
-18.7485
-22.1276
-25.1852
-27.8412
-30.0236
-31.6614
-32.6956
-33.0835
-32.8205
-31.907
-30.3662
-28.2497
-25.6344
-22.6176
-19.3086
-15.8199
-12.2577
-8.71701
-5.27957
-2.01189
1.03937
3.84957
6.41533
8.75415
10.9028
12.9175
14.8743
16.8681
19.0101
21.4188
24.2039
27.4438
31.1603
35.293
39.6966
44.1694
48.499
52.5077
56.076
59.1464
61.7086
63.7948
65.4593
66.7585
67.7488
68.4835
69.0091
69.3646
69.5817
69.6852
69.6934
69.6169
69.4608
69.2264
68.9141
68.5254
68.0649
67.5395
66.9569
66.326
65.6583
64.9707
64.2819
63.6065
62.9485
62.3042
61.6759
61.0773
60.5247
60.0078
59.5084
59.0109
58.5124
58.0182
57.5379
57.0753
56.6308
56.2029
55.7887
55.3846
54.9868
54.592
54.1985
53.806
53.4148
53.0248
52.6355
52.246
51.8554
51.463
51.0687
50.6733
50.2776
49.8821
49.487
49.092
48.6967
48.3007
47.9037
47.5057
47.1066
46.7066
46.3056
45.9037
45.5006
45.0962
44.6907
44.2838
43.876
43.4674
43.0584
42.6492
42.2402
41.831
41.4219
41.011
40.5974
40.1747
39.737
39.2668
35.4699
34.6028
33.4285
32.056
30.5704
29.0044
27.357
25.6132
23.768
21.8357
19.8561
17.8952
16.0348
14.3602
12.9523
11.8765
11.1757
10.8685
10.9679
11.4698
12.3381
13.5097
14.9041
16.4202
17.9489
19.4215
20.8333
22.2598
23.8581
25.827
28.338
31.4719
35.1587
39.0873
42.6872
45.4549
47.0019
47.246
46.0437
43.6468
40.6948
37.4392
34.1178
30.8637
27.7729
24.8642
22.125
19.5149
16.9811
14.4622
11.8892
9.2111
6.3938
3.4358
0.337758
-2.91071
-6.34511
-10.0015
-13.8622
-17.8109
-21.6649
-25.2628
-28.5156
-31.3758
-33.7756
-35.6065
-36.7699
-37.2535
-37.0057
-36.0064
-34.2804
-31.8886
-28.9258
-25.5138
-21.7892
-17.8913
-13.9483
-10.0699
-6.3469
-2.85298
0.3593
3.26118
5.84785
8.13795
10.1706
12.006
13.7279
15.4453
17.2927
19.4244
21.9955
25.1308
28.8864
33.205
37.9031
42.7133
47.3615
51.6288
55.3803
58.5609
61.1803
63.2843
64.94
66.2169
67.179
67.8832
68.3789
68.7096
68.9104
69.0052
69.0074
68.927
68.7754
68.5621
68.2906
67.9596
67.5662
67.1091
66.591
66.0179
65.3993
64.7497
64.0882
63.4334
62.7952
62.1731
61.5664
60.982
60.4311
59.9136
59.4169
58.9261
58.4371
57.9548
57.4839
57.0279
56.5871
56.1619
55.751
55.3513
54.9579
54.5668
54.176
53.7854
53.3955
53.0065
52.6181
52.2298
51.8408
51.4506
51.0589
50.6657
50.2717
49.8775
49.4833
49.0889
48.6942
48.2988
47.9024
47.5049
47.1062
46.7063
46.3053
45.903
45.4995
45.0945
44.6879
44.2799
43.8704
43.4598
43.0484
42.6363
42.2235
41.8096
41.3941
40.9752
40.5509
40.1156
39.6626
39.1785
32.8191
32.1815
31.2822
30.1568
28.8767
27.4605
25.9034
24.1938
22.3338
20.3476
18.2876
16.2366
14.2927
12.5484
11.0856
9.97061
9.25507
8.96956
9.12888
9.71155
10.6688
11.9341
13.4216
15.0185
16.6043
18.0963
19.4849
20.8356
22.2895
24.0329
26.2496
29.0004
32.2493
35.6932
38.8056
41.0981
42.3858
42.5929
41.614
39.6608
37.2319
34.4629
31.5577
28.6314
25.7775
23.0304
20.4007
17.8803
15.437
13.0148
10.544
7.95875
5.20862
2.27166
-0.867906
-4.23447
-7.8668
-11.786
-15.9488
-20.2136
-24.3789
-28.2828
-31.8576
-35.0741
-37.8505
-40.0398
-41.4993
-42.1434
-41.9426
-40.8718
-38.9485
-36.2404
-32.8629
-28.9689
-24.7318
-20.3279
-15.9171
-11.6289
-7.56258
-3.79424
-0.378829
2.65025
5.2852
7.54435
9.46786
11.1166
12.5774
13.9698
15.4472
17.2005
19.446
22.3794
26.119
30.6281
35.6776
40.9023
45.9353
50.5024
54.4527
57.7483
60.4244
62.5535
64.2195
65.5018
66.4687
67.1758
67.6704
67.9959
68.193
68.293
68.3108
68.2474
68.104
67.8961
67.6441
67.355
67.0219
66.6344
66.1861
65.6771
65.1134
64.5075
63.8781
63.2458
62.6257
62.0229
61.4373
60.8716
60.3313
59.8154
59.3171
58.8283
58.3475
57.8781
57.4216
56.9774
56.544
56.1223
55.7133
55.3159
54.9254
54.537
54.1483
53.7597
53.372
52.9853
52.599
52.2126
51.8254
51.4372
51.0476
50.6566
50.2645
49.8716
49.4784
49.0847
48.6906
48.2958
47.9001
47.5033
47.1051
46.7055
46.3044
45.9019
45.4978
45.0921
44.6846
44.2753
43.8642
43.4517
43.0379
42.6228
42.2063
41.7877
41.3662
40.9397
40.5058
40.0593
39.5937
39.0984
31.6804
31.206
30.4895
29.533
28.3946
27.0947
25.6318
23.9963
22.1897
20.2326
18.1746
16.1028
14.1282
12.3339
10.8341
9.68424
8.9394
8.63822
8.78451
9.3544
10.2871
11.5101
12.9324
14.4456
15.9355
17.3225
18.6012
19.8326
21.1408
22.6965
24.6431
27.0126
29.7603
32.576
35.0854
36.8966
37.9262
38.1348
37.3939
35.9188
34.0136
31.7431
29.2734
26.6901
24.0871
21.5166
19.018
16.6128
14.2889
11.9978
9.66422
7.20459
4.54347
1.63053
-1.56429
-5.0628
-8.89479
-13.0724
-17.5415
-22.1463
-26.6789
-30.9815
-34.9897
-38.666
-41.9103
-44.5431
-46.3699
-47.2632
-47.1848
-46.1044
-44.032
-41.0389
-37.2511
-32.8483
-28.0431
-23.0578
-18.0966
-13.3223
-8.8507
-4.76021
-1.10263
2.08872
4.80174
7.04929
8.86767
10.3125
11.4622
12.4278
13.3701
14.5232
16.1933
18.7017
22.2889
26.9859
32.5142
38.3446
43.9617
48.9918
53.246
56.7094
59.4604
61.6164
63.2926
64.586
65.5721
66.307
66.8332
67.1876
67.4062
67.5235
67.5628
67.5291
67.4183
67.2345
66.9975
66.7311
66.4419
66.1165
65.7378
65.2968
64.7941
64.2383
63.6466
63.041
62.4406
61.8551
61.2868
60.7376
60.2105
59.7033
59.2096
58.7258
58.2533
57.7957
57.3531
56.9224
56.4995
56.0837
55.677
55.2805
54.8913
54.5047
54.1179
53.7314
53.3461
52.9622
52.5787
52.1946
51.8095
51.4231
51.0355
50.6465
50.2562
49.8649
49.4728
49.0799
48.6864
48.2922
47.8973
47.5012
47.1035
46.7041
46.3031
45.9003
45.4957
45.0893
44.6808
44.2703
43.8578
43.4433
43.0271
42.609
42.1889
41.7658
41.3385
40.9051
40.4625
40.0063
39.5302
39.0254
32.0508
31.6651
31.0357
30.1725
29.1423
27.9546
26.6051
25.0807
23.3777
21.5112
19.5244
17.4951
15.5261
13.7229
12.1814
10.9741
10.1578
9.77731
9.83817
10.3106
11.1222
12.1877
13.4179
14.714
15.9817
17.1628
18.2635
19.3461
20.5217
21.923
23.6451
25.7032
28.0086
30.2854
32.232
33.6258
34.4501
34.6985
34.1988
33.138
31.659
29.8016
27.6949
25.3999
23.0065
20.5761
18.1717
15.8395
13.5922
11.3983
9.18624
6.86049
4.31986
1.47871
-1.7238
-5.31884
-9.31388
-13.6912
-18.3957
-23.2975
-28.2027
-32.9335
-37.3884
-41.4997
-45.1534
-48.166
-50.335
-51.5062
-51.6201
-50.6363
-48.5517
-45.4228
-41.3712
-36.5852
-31.3023
-25.7821
-20.2737
-14.9843
-10.061
-5.59992
-1.66309
1.71962
4.53888
6.7998
8.52279
9.74301
10.5092
10.8967
11.0511
11.2404
11.8999
13.5811
16.7607
21.6258
27.8587
34.6166
41.1591
46.9204
51.6601
55.4022
58.2941
60.5159
62.2251
63.5415
64.551
65.3136
65.8721
66.2615
66.5168
66.6725
66.7504
66.7547
66.681
66.5332
66.3297
66.0937
65.8395
65.5636
65.2469
64.8716
64.4312
63.9307
63.3837
62.8108
62.2337
61.6669
61.1158
60.5828
60.0696
59.5741
59.0915
58.6185
58.157
57.7106
57.2799
56.8614
56.4503
56.0428
55.6401
55.2446
54.8561
54.4713
54.087
53.7027
53.3196
52.9382
52.5574
52.1758
51.7928
51.4082
51.0224
50.6352
50.2468
49.8571
49.4662
49.0743
48.6815
48.2882
47.894
47.4986
47.1014
46.7023
46.3013
45.8983
45.4933
45.0861
44.6768
44.2652
43.8511
43.4347
43.0161
42.5951
42.1714
41.744
41.3114
40.8714
40.4212
39.9564
39.4714
38.9589
33.7549
33.4187
32.8459
32.0517
31.0904
29.9805
28.7232
27.3077
25.7271
23.9908
22.1317
20.2127
18.3223
16.5594
15.0179
13.7766
12.8916
12.3889
12.2652
12.4995
13.0396
13.8089
14.721
15.6889
16.6426
17.5522
18.4386
19.3638
20.43
21.7361
23.3286
25.1822
27.1459
28.9702
30.4623
31.5647
32.3241
32.6538
32.3788
31.6176
30.4364
28.8789
27.0385
24.9608
22.725
20.3913
18.0341
15.7145
13.4673
11.2877
9.12259
6.88396
4.45983
1.73517
-1.38706
-4.96617
-9.01751
-13.5093
-18.3691
-23.4684
-28.6358
-33.6944
-38.5097
-42.9758
-46.9562
-50.2655
-52.7085
-54.1271
-54.4318
-53.5936
-51.5925
-48.4659
-44.3256
-39.358
-33.8102
-27.9597
-22.0791
-16.4014
-11.0981
-6.28754
-2.05546
1.54555
4.49606
6.79606
8.44503
9.43739
9.76305
9.43884
8.57979
7.47668
6.72952
7.22463
9.77036
14.7799
22.0321
29.968
37.6659
44.3166
49.6588
53.7658
56.8675
59.2134
61.0058
62.3867
63.4511
64.262
64.8639
65.2918
65.5779
65.7552
65.856
65.8977
65.8743
65.7771
65.6175
65.4207
65.2068
64.9776
64.7166
64.4021
64.0214
63.5758
63.0775
62.5448
61.9982
61.4543
60.9217
60.4064
59.9097
59.4298
58.9623
58.5043
58.0568
57.6228
57.2029
56.7946
56.3935
55.9953
55.5989
55.2059
54.8184
54.4355
54.0541
53.6729
53.2923
52.9131
52.5347
52.1557
51.7751
51.3926
51.0086
50.6232
50.2366
49.8486
49.459
49.0679
48.676
48.2836
47.8903
47.4956
47.099
46.7002
46.2992
45.896
45.4905
45.0827
44.6726
44.2598
43.8444
43.4262
43.0053
42.5815
42.1543
41.7227
41.2851
40.8392
40.382
39.9097
39.4172
38.8982
36.6567
36.3278
35.7553
34.964
34.0115
32.9295
31.7271
30.3955
28.9235
27.3107
25.5762
23.7657
21.9492
20.2123
18.6438
17.3249
16.3148
15.6244
15.2616
15.2061
15.412
15.821
16.3689
16.9956
17.6589
18.3499
19.0969
19.964
21.0274
22.3329
23.866
25.5294
27.1587
28.5941
29.7809
30.7844
31.6216
32.0583
31.9422
31.3557
30.3557
28.9934
27.3325
25.412
23.2946
21.0312
18.6949
16.3489
14.039
11.7865
9.56541
7.31364
4.93504
2.31005
-0.680798
-4.131
-8.0848
-12.5289
-17.3917
-22.5492
-27.8379
-33.0804
-38.1131
-42.7998
-46.9893
-50.4768
-53.1119
-54.7321
-55.2308
-54.5644
-52.7092
-49.6976
-45.6295
-40.6865
-35.113
-29.1888
-23.1953
-17.3782
-11.9166
-6.92588
-2.49164
1.30922
4.41126
6.77774
8.38369
9.18465
9.10831
8.11049
6.23451
3.80524
1.61905
0.932286
2.86085
7.91961
16.7534
25.5695
34.1634
41.506
47.3324
51.7713
55.1097
57.6321
59.5661
61.0675
62.2355
63.1352
63.8119
64.3
64.6315
64.8404
64.9593
65.0116
65.0087
64.9539
64.8495
64.7056
64.5374
64.3535
64.1447
63.8884
63.566
63.1739
62.7236
62.2339
61.7246
61.212
60.7029
60.2086
59.7315
59.2703
58.8211
58.3809
57.9499
57.5297
57.1213
56.7227
56.3301
55.9397
55.5498
55.1614
54.7766
54.3961
54.0181
53.6405
53.2631
52.8864
52.5105
52.1343
51.7563
51.3763
50.9944
50.611
50.2261
49.8396
49.4512
49.061
48.6698
48.2783
47.8861
47.4922
47.0961
46.6976
46.2967
45.8934
45.4875
45.0791
44.6681
44.2544
43.8377
43.4178
42.9947
42.5682
42.1377
41.7021
41.2598
40.8084
40.3451
39.8662
39.3673
38.8428
40.6774
40.3182
39.6893
38.8196
37.7749
36.6076
35.3459
33.9942
32.5459
30.9955
29.3479
27.6258
25.8722
24.1498
22.5349
21.1018
19.9087
18.9841
18.3391
17.9665
17.8422
17.9301
18.1876
18.5778
19.0793
19.6949
20.449
21.3709
22.4746
23.7423
25.1117
26.4939
27.8069
29.0188
30.1659
31.2905
32.2405
32.7224
32.6485
32.1305
31.2231
29.9753
28.4293
26.6201
24.595
22.3902
20.0726
17.6994
15.3139
12.9469
10.597
8.23248
5.79079
3.17634
0.279298
-3.00443
-6.74793
-10.9703
-15.6286
-20.6305
-25.8328
-31.0631
-36.1435
-40.9039
-45.1739
-48.771
-51.5287
-53.2968
-53.9707
-53.4959
-51.8475
-49.0543
-45.2098
-40.4861
-35.1209
-29.3836
-23.5489
-17.8626
-12.4985
-7.5574
-3.11214
0.748501
3.9366
6.37857
8.00181
8.71911
8.43659
7.06132
4.6238
1.50929
-1.34067
-2.50675
-0.64728
4.83463
13.4288
22.8084
31.5841
39.0204
44.945
49.5303
53.0543
55.7715
57.8878
59.5527
60.8644
61.8874
62.6682
63.2444
63.6495
63.9154
64.0738
64.1528
64.1709
64.1372
64.0616
63.9572
63.8334
63.6936
63.5318
63.3296
63.065
62.7279
62.3264
61.8802
61.4108
60.9376
60.4565
59.9896
59.5369
59.0979
58.6694
58.2486
57.8353
57.4305
57.0341
56.6447
56.2597
55.8765
55.4935
55.1109
54.7305
54.3538
53.9797
53.606
53.232
52.8581
52.4849
52.1115
51.7366
51.3594
50.9799
50.5985
50.2153
49.8302
49.443
49.0537
48.6633
48.2725
47.8812
47.4882
47.0926
46.6944
46.2936
45.8903
45.4842
45.0753
44.6636
44.2489
43.8311
43.4097
42.9846
42.5555
42.1218
41.6824
41.2357
40.7793
40.3105
39.8259
39.3214
38.7924
45.7486
45.3439
44.6197
43.6085
42.3821
41.0078
39.5385
38.006
36.4201
34.7796
33.0827
31.3359
29.5628
27.8108
26.1416
24.6058
23.2375
22.0788
21.1642
20.5097
20.1128
19.957
20.0186
20.2754
20.7116
21.3211
22.1018
23.0442
24.1216
25.292
26.5154
27.7667
29.0451
30.3622
31.7152
32.9927
33.9188
34.3
34.1637
33.639
32.7624
31.5751
30.1006
28.3663
26.4114
24.2594
21.964
19.5721
17.1255
14.6531
12.1649
9.64984
7.07249
4.37321
1.47687
-1.69743
-5.22097
-9.13486
-13.4331
-18.0642
-22.9306
-27.891
-32.7757
-37.404
-41.5946
-45.1709
-47.9706
-49.8513
-50.7282
-50.4408
-49.0561
-46.5863
-43.1208
-38.8162
-33.8891
-28.5851
-23.1519
-17.825
-12.7828
-8.11804
-3.86924
-0.108413
3.04467
5.48746
7.15079
7.95448
7.79354
6.59322
4.40758
1.65638
-0.738288
-1.45665
0.662732
6.06747
13.9022
22.3457
30.1909
36.9772
42.616
47.1882
50.8467
53.7574
56.0712
57.9127
59.3764
60.5305
61.4244
62.0977
62.5866
62.9269
63.1524
63.2902
63.3556
63.3571
63.3065
63.2221
63.1211
63.0109
62.8864
62.7306
62.52
62.2391
61.8902
61.4905
61.0613
60.6173
60.1833
59.7508
59.3273
58.914
58.5087
58.1089
57.7143
57.3252
56.9412
56.561
56.1832
55.8066
55.4308
55.0554
54.6813
54.3096
53.9398
53.5702
53.1996
52.8286
52.4581
52.0876
51.7159
51.3418
50.9649
50.5855
50.204
49.8203
49.4344
49.0463
48.6568
48.2666
47.8758
47.4835
47.0884
46.6905
46.29
45.8869
45.4807
45.0714
44.659
44.2435
43.8246
43.4018
42.9749
42.5434
42.1067
41.6638
41.2129
40.752
40.2783
39.7886
39.2794
38.7465
51.8039
51.3739
50.5874
49.4694
48.0737
46.4654
44.7138
42.8698
40.9661
39.0207
37.0442
35.0473
33.0479
31.0769
29.1726
27.3912
25.7949
24.4202
23.2913
22.4248
21.8286
21.502
21.4376
21.6228
22.0431
22.6824
23.5228
24.5424
25.7154
27.013
28.4076
29.8796
31.4169
32.9868
34.4651
35.6323
36.3021
36.447
36.1871
35.6113
34.7379
33.5916
32.1785
30.5128
28.6159
26.5111
24.2315
21.8185
19.3126
16.7444
14.1311
11.4737
8.75535
5.94189
2.98822
-0.154897
-3.53368
-7.18169
-11.1077
-15.2869
-19.6576
-24.1217
-28.5498
-32.7893
-36.6751
-40.0419
-42.7337
-44.6097
-45.5649
-45.5718
-44.5399
-42.5042
-39.559
-35.8465
-31.5582
-26.912
-22.1121
-17.3423
-12.7625
-8.48813
-4.58442
-1.08985
1.91787
4.31406
6.01113
6.97525
7.17562
6.58259
5.29364
3.68994
2.51326
2.75889
5.22959
10.1315
16.5899
23.316
29.6011
35.2996
40.4001
44.8491
48.6083
51.707
54.2215
56.2408
57.8493
59.1198
60.1108
60.8694
61.4354
61.846
62.1368
62.3394
62.4735
62.5407
62.5392
62.4849
62.404
62.3128
62.2127
62.0924
61.9298
61.7039
61.4107
61.0639
60.6831
60.2859
59.8888
59.4928
59.102
58.7172
58.3369
57.9596
57.5852
57.2133
56.8425
56.472
56.1015
55.7315
55.3626
54.9951
54.6285
54.263
53.8983
53.533
53.1661
52.7981
52.4303
52.0627
51.6941
51.3229
50.9486
50.5714
50.1917
49.8097
49.4254
49.0389
48.6504
48.2608
47.8703
47.4783
47.0836
46.6861
46.2859
45.883
45.4769
45.0673
44.6543
44.238
43.8182
43.3942
42.9656
42.5319
42.0925
41.6463
41.1917
40.7266
40.2485
39.7544
39.2411
38.7049
58.0083
57.5967
56.8288
55.7258
54.3194
52.6447
50.7467
48.6765
46.4823
44.2013
41.8617
39.4898
37.1146
34.7633
32.4909
30.3432
28.3675
26.6207
25.1513
23.9961
23.1804
22.7185
22.613
22.8547
23.4241
24.2935
25.4281
26.7863
28.3225
29.9906
31.7446
33.5232
35.2329
36.7402
37.8931
38.5869
38.8133
38.669
38.2623
37.6306
36.7759
35.6943
34.3656
32.7887
30.9612
28.8974
26.6279
24.1915
21.6282
18.9732
16.2511
13.4729
10.6355
7.72244
4.70809
1.56386
-1.73637
-5.20983
-8.85876
-12.665
-16.5853
-20.5485
-24.457
-28.1937
-31.6284
-34.626
-37.0582
-38.8128
-39.8118
-40.0104
-39.3153
-37.7419
-35.3682
-32.3122
-28.7264
-24.7855
-20.659
-16.5057
-12.4676
-8.6387
-5.08099
-1.87388
0.896417
3.16532
4.88147
6.019
6.59984
6.68874
6.41379
6.05261
6.08383
7.13435
9.68729
13.793
18.8417
24.1049
29.2391
34.1716
38.8229
43.0589
46.7717
49.9258
52.5437
54.679
56.3975
57.7631
58.8324
59.6561
60.2803
60.746
61.0877
61.3358
61.5159
61.6409
61.7082
61.7157
61.6793
61.6185
61.5413
61.4465
61.3227
61.1476
60.9091
60.6163
60.2883
59.9408
59.5852
59.227
58.8701
58.5145
58.1587
57.803
57.4489
57.0954
56.7396
56.3802
56.018
55.6549
55.2929
54.9326
54.5736
54.215
53.8558
53.4951
53.1322
52.7676
52.4026
52.0376
51.6717
51.3033
50.9316
50.5566
50.1787
49.7985
49.416
49.0312
48.6441
48.2551
47.8646
47.4726
47.0782
46.6811
46.2814
45.8789
45.473
45.0633
44.6498
44.2327
43.8118
43.3866
42.9565
42.5209
42.0791
41.63
41.172
40.7032
40.2211
39.7232
39.2064
38.6673
63.2875
62.8834
62.1404
61.0978
59.7756
58.1839
56.3365
54.2591
51.9812
49.5319
46.9441
44.2547
41.5385
38.8134
36.1078
33.4897
31.0348
28.8243
26.9377
25.4467
24.4077
23.8566
23.8079
24.2532
25.1607
26.474
28.1154
29.994
32.0112
34.0632
36.0393
37.8194
39.2792
40.3146
40.8803
41.0124
40.8206
40.4317
39.9117
39.2662
38.4778
37.5087
36.3086
34.8469
33.1083
31.0981
28.8453
26.3912
23.7803
21.0538
18.2436
15.3701
12.4407
9.45171