/*--------------------------------*- C++ -*----------------------------------*\
  =========                 |
  \\      /  F ield         | OpenFOAM: The Open Source CFD Toolbox
   \\    /   O peration     | Website:  https://openfoam.org
    \\  /    A nd           | Version:  9
     \\/     M anipulation  |
\*---------------------------------------------------------------------------*/
FoamFile
{
    format      ascii;
    class       volScalarField;
    location    "0.039";
    object      s;
}
// * * * * * * * * * * * * * * * * * * * * * * * * * * * * * * * * * * * * * //

dimensions      [0 0 0 0 0 0 0];

internalField   nonuniform List<scalar> 
12225
(
1
1
1
1
1
1
1
1
1
1
1
1
1
1
1
1
1
0.999731
1
1
1
1
1
1
1
1
1
1
1
1
1
1
1
1
1
0.99997
1
1
1
1
1
1
1
1
1
1
1
1
1
1
1
1
1
0.999998
1
1
1
1
1
1
1
1
1
1
1
1
1
1
1
1
1
1
1
1
1
1
1
1
1
1
1
1
1
1
1
1
1
1
1
1
1
1
1
1
1
1
1
1
1
1
1
1
1
1
1
1
1
1
1
1
1
1
1
1
1
1
1
1
1
1
1
1
1
1
1
1
1
1
1
1
1
1
1
1
1
1
1
1
1
1
1
1
1
1
1
1
1
1
1
1
1
1
1
1
1
1
1
1
1
1
1
1
1
1
1
1
1
1
1
1
1
1
1
1
1
1
1
1
1
1
1
1
1
1
1
1
1
1
1
1
1
1
1
1
1
1
1
1
1
1
1
1
1
1
1
1
1
1
1
1
1
1
1
1
1
1
1
1
1
1
1
1
1
1
1
1
1
1
1
1
1
1
1
1
1
1
1
1
1
1
1
1
1
1
1
1
1
1
1
1
1
1
1
1
1
1
1
1
1
1
1
1
1
1
1
1
1
1
1
1
1
1
1
1
1
1
1
1
1
1
1
1
1
1
1
1
1
1
1
1
1
1
1
1
1
1
1
1
1
1
1
1
1
1
1
1
1
1
1
1
1
1
1
1
1
1
1
1
1
1
1
1
1
1
1
1
1
1
1
1
1
1
1
1
1
1
1
1
1
1
1
1
1
1
1
1
1
1
1
1
1
1
1
1
1
1
1
1
1
1
1
1
1
1
1
1
1
1
1
1
1
1
1
1
1
1
1
1
1
1
1
1
1
1
1
1
1
1
1
1
1
1
1
1
1
1
1
1
1
1
1
1
1
1
1
1
1
1
1
1
1
1
1
1
1
1
1
1
1
1
1
1
1
1
1
1
1
1
1
1
1
1
1
1
1
1
1
1
1
1
1
1
1
1
1
1
1
1
1
1
1
1
1
1
1
1
1
1
1
1
1
1
1
1
1
1
1
1
1
1
1
1
1
1
1
1
1
1
1
1
1
1
1
1
1
1
1
1
1
1
1
1
1
1
1
1
1
1
1
1
1
1
1
1
1
1
1
1
1
1
1
1
1
1
1
1
1
1
1
1
1
1
1
1
1
1
1
1
1
1
1
1
1
1
1
1
1
1
1
1
0.336741
0.39564
0.399138
0.395471
0.409527
0.439476
0.473787
0.495513
0.513057
0.524956
0.535373
0.542251
0.548383
0.552783
0.555137
0.556591
0.558093
0.559637
0.562126
0.56524
0.569482
0.574895
0.580334
0.58511
0.590194
0.595932
0.599335
0.587482
0.420995
0.386792
0.394286
0.397425
0.403086
0.407122
0.41036
0.413125
0.429056
0.448615
0.491411
0.503274
0.497541
0.485469
0.481462
0.472572
0.435986
0.380049
0.357166
0.378461
0.68717
0.866887
0.872144
0.874097
0.876332
0.878019
0.879662
0.881025
0.881944
0.882525
0.883428
0.884133
0.88475
0.886158
0.886889
0.887205
0.887653
0.888499
0.889422
0.890025
0.890646
0.89191
0.893396
0.894091
0.89461
0.89571
0.897375
0.898758
0.899507
0.90029
0.901391
0.902448
0.903262
0.903848
0.904741
0.905514
0.905872
0.906237
0.906689
0.907241
0.907702
0.908195
0.908685
0.909097
0.909439
0.909758
0.909999
0.910154
0.910187
0.910169
0.910025
0.909735
0.909339
0.908698
0.907893
0.906977
0.905865
0.904601
0.903194
0.901678
0.900128
0.898635
0.897146
0.895574
0.893929
0.892205
0.890376
0.888414
0.88626
0.883725
0.880534
0.876807
0.872831
0.869061
0.865935
0.863388
0.861323
0.859754
0.858512
0.85744
0.8565
0.855742
0.85521
0.854902
0.854739
0.854552
0.854122
0.852826
0.851146
0.848478
0.842567
0.831654
0.817924
0.80223
0.78272
0.754667
0.712342
0.651672
0.572488
0.479576
0.381882
0.289614
0.210623
0.148381
0.102312
0.0695583
0.046779
0.0311307
0.0204923
0.013336
0.00856719
0.00542241
0.0033776
0.00206963
0.00124715
0.000738794
0.000429994
0.00024574
0.000137807
7.57892e-05
4.08448e-05
2.15579e-05
1.11291e-05
5.61577e-06
2.76371e-06
1.32585e-06
6.17473e-07
2.79199e-07
1.21587e-07
5.07886e-08
2.08569e-08
4.91634e-09
0.29895
0.339859
0.32318
0.366134
0.462412
0.5468
0.591867
0.620094
0.634172
0.637237
0.635682
0.63162
0.628126
0.62269
0.618032
0.614069
0.610674
0.608311
0.605804
0.602953
0.600156
0.597696
0.595721
0.594968
0.595067
0.595755
0.598184
0.597801
0.577776
0.495685
0.398545
0.368063
0.352555
0.335643
0.328209
0.332037
0.368062
0.423488
0.531293
0.578819
0.553181
0.509267
0.490325
0.453539
0.477048
0.708197
0.770491
0.797622
0.851286
0.871197
0.872941
0.874629
0.876533
0.877844
0.878431
0.878638
0.878636
0.878116
0.876889
0.874887
0.872337
0.87008
0.868054
0.865837
0.863567
0.862166
0.861613
0.861512
0.862563
0.865623
0.868862
0.87237
0.876781
0.881299
0.886432
0.891777
0.895607
0.899943
0.904663
0.909458
0.913516
0.917193
0.921868
0.926188
0.929271
0.931769
0.934393
0.937127
0.939567
0.941922
0.944358
0.946255
0.947608
0.94941
0.951121
0.952789
0.954389
0.955411
0.957345
0.958388
0.959727
0.960841
0.961833
0.96254
0.9629
0.962861
0.962236
0.9609
0.958719
0.955495
0.951284
0.946491
0.941257
0.93601
0.931336
0.927103
0.923584
0.921094
0.9197
0.918831
0.917545
0.914483
0.905963
0.89507
0.886105
0.880446
0.877733
0.876807
0.876545
0.876214
0.87526
0.871589
0.865699
0.862138
0.860862
0.860852
0.861973
0.867888
0.87857
0.888487
0.899968
0.911514
0.919191
0.921663
0.921561
0.919765
0.914221
0.900202
0.863615
0.820602
0.78858
0.768238
0.747422
0.707847
0.637747
0.54057
0.432594
0.331745
0.24688
0.178049
0.124446
0.0844027
0.0556191
0.0356505
0.0222453
0.0135253
0.00801832
0.00463938
0.00262021
0.00144559
0.000778166
0.000409053
0.000209262
0.00010442
5.04253e-05
2.37215e-05
1.06822e-05
4.66406e-06
1.94883e-06
6.49456e-07
0.230519
0.264608
0.4231
0.600338
0.664611
0.688312
0.687709
0.683818
0.675021
0.665051
0.651759
0.640205
0.631467
0.620696
0.612916
0.607069
0.602421
0.599543
0.597249
0.595582
0.594875
0.593552
0.592128
0.591768
0.591941
0.592576
0.594331
0.597126
0.595821
0.584295
0.531332
0.415367
0.364006
0.337398
0.319695
0.313072
0.352396
0.428018
0.596382
0.640032
0.570308
0.526187
0.57781
0.727256
0.790245
0.830489
0.846
0.860365
0.867155
0.869629
0.870386
0.87155
0.872486
0.872662
0.871988
0.869448
0.864132
0.855294
0.842866
0.827438
0.809373
0.788798
0.767783
0.75083
0.738485
0.728962
0.723292
0.720457
0.719095
0.718731
0.720676
0.727988
0.737709
0.745869
0.754364
0.764894
0.775885
0.78683
0.799429
0.812995
0.825563
0.837632
0.850548
0.86388
0.875447
0.884857
0.893885
0.902122
0.907895
0.913339
0.918819
0.923429
0.926589
0.930461
0.934011
0.937937
0.941982
0.944946
0.949492
0.953063
0.956985
0.960813
0.964586
0.968258
0.971736
0.975
0.977931
0.980414
0.982344
0.983691
0.984413
0.984053
0.981921
0.977182
0.969317
0.958774
0.946959
0.937461
0.932157
0.93004
0.929647
0.929621
0.929484
0.928386
0.922607
0.905165
0.891626
0.885378
0.883647
0.883684
0.885004
0.886056
0.886003
0.884704
0.878176
0.867956
0.86249
0.860808
0.860735
0.861292
0.863852
0.872455
0.884556
0.896366
0.909093
0.923862
0.939406
0.952299
0.959933
0.962721
0.963056
0.962803
0.961482
0.956507
0.944122
0.933203
0.920897
0.896623
0.835899
0.683036
0.514581
0.372383
0.261847
0.179914
0.120849
0.0792898
0.0507812
0.0317501
0.0193672
0.01153
0.00668755
0.00378172
0.00207692
0.00111049
0.000573483
0.000288002
0.000138364
6.44559e-05
2.84977e-05
1.12849e-05
0.222368
0.577204
0.686261
0.713465
0.712094
0.706134
0.692405
0.669467
0.636925
0.606503
0.580728
0.559774
0.540943
0.526564
0.515533
0.50637
0.499836
0.496883
0.49763
0.500242
0.505305
0.51471
0.526457
0.53705
0.550749
0.56515
0.575475
0.586165
0.592927
0.592133
0.583992
0.548801
0.468608
0.390853
0.354431
0.362697
0.407242
0.537615
0.730385
0.711596
0.71155
0.754109
0.790555
0.831712
0.845873
0.854215
0.858451
0.861722
0.86289
0.861694
0.861478
0.861495
0.861504
0.860101
0.855625
0.846018
0.829607
0.804101
0.765358
0.71107
0.669783
0.654991
0.647908
0.644537
0.643198
0.642945
0.644334
0.647804
0.651081
0.653702
0.655229
0.65758
0.661781
0.665361
0.667495
0.669557
0.672559
0.676412
0.680277
0.684574
0.690476
0.697101
0.703603
0.712062
0.72182
0.730789
0.74079
0.751115
0.760146
0.769157
0.777533
0.785574
0.793004
0.799833
0.806597
0.813883
0.822176
0.830854
0.840637
0.851627
0.863431
0.876447
0.890497
0.905371
0.920591
0.934823
0.948018
0.960615
0.971624
0.980148
0.986031
0.989808
0.991981
0.993035
0.993292
0.992376
0.988079
0.975375
0.95733
0.943221
0.936741
0.935035
0.934993
0.935001
0.93463
0.932199
0.920561
0.900967
0.889667
0.885341
0.884781
0.886079
0.890713
0.892745
0.892688
0.890688
0.881667
0.869742
0.86185
0.857419
0.855939
0.855923
0.857063
0.86278
0.878488
0.895073
0.911234
0.927062
0.941665
0.954664
0.966396
0.976266
0.983085
0.986493
0.987421
0.987407
0.98684
0.984759
0.978852
0.964044
0.92808
0.823687
0.640711
0.473199
0.336862
0.232835
0.156943
0.103402
0.0665282
0.0417779
0.0255482
0.0152057
0.00877504
0.00491329
0.00265345
0.00138694
0.000694626
0.00033523
0.000154792
6.45429e-05
0.669887
0.716261
0.728679
0.725154
0.713011
0.682059
0.63163
0.584031
0.554761
0.532516
0.515222
0.496734
0.483298
0.469208
0.460459
0.454024
0.450141
0.450414
0.451902
0.455262
0.459557
0.464752
0.470117
0.476931
0.484549
0.497884
0.516221
0.539619
0.570919
0.586029
0.586798
0.581435
0.560753
0.518495
0.454059
0.456103
0.490349
0.647908
0.78108
0.797102
0.808642
0.831457
0.841038
0.84883
0.851599
0.853947
0.855212
0.855306
0.853241
0.852889
0.853445
0.852948
0.850773
0.844954
0.83255
0.808751
0.767132
0.701279
0.642177
0.620743
0.611333
0.608251
0.607699
0.609718
0.619354
0.633447
0.64079
0.6446
0.649972
0.654568
0.65685
0.660541
0.66413
0.666013
0.667216
0.667844
0.668638
0.669569
0.670188
0.670718
0.672243
0.67427
0.675827
0.678408
0.681974
0.684932
0.688614
0.69304
0.697072
0.701471
0.705793
0.709888
0.714025
0.717891
0.721329
0.72414
0.726439
0.728397
0.730137
0.732473
0.735854
0.740863
0.748061
0.758316
0.772941
0.79389
0.821678
0.854671
0.891099
0.926074
0.952412
0.971659
0.98391
0.990862
0.994323
0.99582
0.996209
0.995772
0.992459
0.978729
0.957927
0.945536
0.940264
0.938524
0.937901
0.937006
0.934282
0.923121
0.904224
0.893135
0.889003
0.888521
0.889822
0.895087
0.898246
0.898661
0.89784
0.892757
0.877678
0.865861
0.85947
0.856798
0.856257
0.856595
0.859175
0.870457
0.891992
0.910353
0.926223
0.940784
0.954001
0.965489
0.975117
0.982853
0.988682
0.992421
0.994114
0.994438
0.994255
0.993125
0.989202
0.977859
0.947839
0.859193
0.67741
0.505818
0.36349
0.252972
0.171185
0.1129
0.0724869
0.0452194
0.027302
0.0159373
0.00895518
0.00484763
0.00251419
0.00124993
0.000597043
0.00025845
0.736301
0.738005
0.7339
0.718404
0.671789
0.614944
0.57418
0.546592
0.526522
0.507526
0.488492
0.465883
0.445952
0.42606
0.413177
0.400543
0.400578
0.403032
0.409121
0.419882
0.432117
0.442625
0.449313
0.453132
0.45628
0.461861
0.470973
0.484205
0.512034
0.557847
0.579811
0.584383
0.580879
0.568096
0.535454
0.510386
0.529837
0.693923
0.810976
0.831961
0.841341
0.845995
0.847569
0.848116
0.847201
0.844035
0.842113
0.841652
0.84412
0.846944
0.847291
0.846161
0.84173
0.830895
0.807908
0.761531
0.681111
0.607226
0.583679
0.576096
0.574503
0.575329
0.583201
0.600815
0.619925
0.632006
0.641324
0.660119
0.683763
0.697607
0.706955
0.714913
0.717766
0.718582
0.718634
0.717536
0.715687
0.711606
0.708025
0.704517
0.701443
0.699545
0.698747
0.698532
0.698615
0.699637
0.701639
0.70448
0.707985
0.711981
0.716433
0.720984
0.725707
0.730155
0.733511
0.734829
0.734422
0.732212
0.729179
0.725854
0.722796
0.720501
0.719308
0.719453
0.721276
0.725157
0.731391
0.742126
0.760789
0.792915
0.843138
0.898929
0.941934
0.968701
0.9843
0.992414
0.996039
0.997218
0.997279
0.996068
0.9891
0.969235
0.953919
0.946127
0.942869
0.941144
0.938504
0.931687
0.915795
0.903306
0.897101
0.895437
0.895601
0.897985
0.901964
0.90345
0.903515
0.902625
0.897923
0.883566
0.870426
0.862876
0.859824
0.859294
0.859719
0.86255
0.874704
0.899329
0.920083
0.936519
0.949571
0.960288
0.969499
0.97759
0.984444
0.989812
0.993591
0.99582
0.996717
0.996834
0.996628
0.995512
0.991681
0.980295
0.948549
0.851083
0.668885
0.50142
0.362362
0.253126
0.170972
0.111647
0.0703366
0.0427066
0.0249124
0.0139499
0.00747755
0.00382916
0.0018869
0.000846249
0.74072
0.741414
0.732835
0.69758
0.639489
0.589376
0.553616
0.530222
0.508862
0.478113
0.438137
0.397898
0.362119
0.332323
0.313093
0.298671
0.29879
0.304086
0.317519
0.344732
0.380381
0.410868
0.430228
0.439858
0.443119
0.445975
0.451016
0.458971
0.474235
0.509419
0.553858
0.57942
0.585083
0.582012
0.564789
0.549077
0.552104
0.735149
0.829116
0.843732
0.847527
0.848078
0.84638
0.841803
0.829975
0.817881
0.81511
0.815529
0.82234
0.835055
0.837276
0.836578
0.830499
0.811276
0.76739
0.693687
0.598624
0.55914
0.548733
0.546383
0.546212
0.548071
0.557609
0.576026
0.596488
0.614175
0.638088
0.6704
0.69809
0.720428
0.745135
0.771953
0.795874
0.811259
0.81909
0.822967
0.822976
0.813508
0.803824
0.793227
0.784115
0.776757
0.772818
0.771148
0.77082
0.771253
0.774898
0.780308
0.787711
0.797117
0.809495
0.82379
0.837844
0.850727
0.859927
0.863622
0.860873
0.852227
0.839401
0.823168
0.804768
0.785904
0.768285
0.753901
0.742248
0.734256
0.730749
0.730995
0.735061
0.743806
0.758717
0.788187
0.841671
0.903876
0.94926
0.975208
0.988916
0.995229
0.997436
0.997717
0.9969
0.991288
0.973492
0.959395
0.952573
0.949258
0.944569
0.933455
0.919402
0.908773
0.903292
0.901767
0.901872
0.903623
0.906312
0.907268
0.907319
0.906863
0.904248
0.89396
0.880767
0.872315
0.868062
0.866668
0.866597
0.867557
0.872723
0.891817
0.917517
0.93705
0.951545
0.962513
0.971069
0.977948
0.983644
0.988441
0.992335
0.995202
0.997028
0.997927
0.998173
0.998144
0.99779
0.996337
0.991631
0.977579
0.936762
0.811701
0.629293
0.468629
0.335775
0.231337
0.152972
0.0969226
0.0587324
0.0340155
0.0188246
0.00993607
0.00504969
0.00234704
0.743555
0.746648
0.732914
0.687427
0.627556
0.5759
0.540795
0.516293
0.479854
0.426561
0.376338
0.336712
0.305483
0.282875
0.268259
0.256697
0.253738
0.255774
0.263167
0.280419
0.318567
0.367684
0.401709
0.420224
0.429941
0.433563
0.436015
0.442488
0.460346
0.503211
0.550339
0.579575
0.588281
0.5889
0.583122
0.565984
0.582188
0.77892
0.838183
0.847183
0.848398
0.84686
0.838001
0.813919
0.795323
0.791826
0.791236
0.791257
0.793611
0.803037
0.810892
0.811572
0.80677
0.787949
0.740306
0.644894
0.555377
0.526394
0.51337
0.505143
0.501758
0.501243
0.503498
0.517917
0.546133
0.574886
0.595395
0.618476
0.657956
0.698582
0.723932
0.756273
0.800855
0.829335
0.847812
0.866531
0.881468
0.892313
0.897337
0.898437
0.892565
0.881643
0.870121
0.86347
0.861528
0.861544
0.867566
0.879072
0.894761
0.913374
0.929933
0.943427
0.953675
0.961893
0.968462
0.971862
0.973501
0.972775
0.969814
0.964405
0.955963
0.943817
0.926782
0.902763
0.873684
0.843203
0.815934
0.793905
0.776838
0.765386
0.761152
0.766346
0.788409
0.825635
0.87969
0.933127
0.967758
0.985954
0.994385
0.997373
0.99777
0.996826
0.990094
0.973657
0.964212
0.959799
0.953084
0.939199
0.924388
0.913627
0.908304
0.906936
0.907118
0.908937
0.910811
0.911221
0.911108
0.910262
0.906564
0.895677
0.885856
0.880105
0.87762
0.877006
0.877033
0.877595
0.880517
0.892946
0.919691
0.942292
0.958869
0.970172
0.977666
0.982825
0.986761
0.990072
0.99292
0.995251
0.996995
0.998149
0.998767
0.998979
0.998987
0.998858
0.99823
0.996052
0.989255
0.968895
0.906968
0.743088
0.564187
0.410064
0.284813
0.188836
0.119401
0.0719487
0.0413193
0.0225446
0.0118128
0.00567655
0.747021
0.751636
0.733473
0.683789
0.623525
0.570416
0.53517
0.504947
0.455129
0.397195
0.350153
0.312953
0.284937
0.266403
0.253313
0.24418
0.239458
0.240078
0.245269
0.260521
0.297081
0.349573
0.392669
0.412814
0.419635
0.423762
0.431019
0.442197
0.46505
0.510835
0.555968
0.58331
0.595609
0.597474
0.587628
0.572818
0.627645
0.805102
0.842218
0.847845
0.848203
0.844426
0.829103
0.797093
0.766028
0.755946
0.755228
0.75637
0.759085
0.765679
0.774453
0.776003
0.770856
0.747599
0.696714
0.617736
0.528919
0.491233
0.47519
0.461709
0.443619
0.43664
0.435579
0.439249
0.455412
0.472666
0.478342
0.486779
0.515
0.54518
0.572086
0.62226
0.686368
0.741924
0.794861
0.840421
0.874538
0.899127
0.91776
0.92844
0.937156
0.941516
0.94316
0.942248
0.942157
0.942562
0.944795
0.950573
0.957709
0.964479
0.969797
0.973807
0.976937
0.980252
0.98396
0.987027
0.98969
0.991766
0.993274
0.993828
0.993477
0.992044
0.989642
0.985953
0.979771
0.969736
0.956086
0.940396
0.920979
0.892627
0.856306
0.821967
0.808068
0.813767
0.845128
0.886886
0.930879
0.965617
0.985194
0.994254
0.997375
0.99771
0.996365
0.987595
0.973797
0.967257
0.963238
0.95485
0.938843
0.925184
0.917473
0.914867
0.914709
0.915687
0.917192
0.917438
0.917117
0.915285
0.908028
0.896517
0.888971
0.885383
0.884299
0.884233
0.88457
0.885979
0.890304
0.904049
0.927122
0.947892
0.964553
0.976631
0.984546
0.989267
0.991944
0.993604
0.994939
0.996215
0.99739
0.998329
0.99897
0.999324
0.999455
0.999465
0.999406
0.999094
0.99796
0.994309
0.982967
0.94816
0.835768
0.642543
0.468217
0.32435
0.213567
0.133651
0.0796048
0.0450325
0.0244765
0.0122545
0.748377
0.753694
0.738335
0.688626
0.625901
0.569498
0.53326
0.500046
0.444934
0.385849
0.340593
0.304976
0.279375
0.262981
0.250288
0.241024
0.236096
0.237209
0.250024
0.272379
0.311519
0.360975
0.397758
0.412763
0.41805
0.423804
0.433548
0.449719
0.483524
0.531118
0.573898
0.594942
0.601614
0.598394
0.58718
0.584487
0.680858
0.821647
0.844053
0.84753
0.847473
0.842061
0.824657
0.796864
0.765557
0.743721
0.731758
0.725975
0.724215
0.725093
0.729056
0.732959
0.733434
0.722656
0.680999
0.604151
0.5174
0.464618
0.44366
0.425966
0.387785
0.371338
0.36332
0.35186
0.337367
0.325851
0.31507
0.311442
0.312495
0.328277
0.350272
0.385647
0.435668
0.493688
0.57486
0.664931
0.75514
0.832718
0.887458
0.920131
0.939277
0.949754
0.956931
0.961975
0.965488
0.967852
0.969719
0.971249
0.972572
0.973781
0.974448
0.974378
0.973869
0.973819
0.975758
0.979709
0.984984
0.990111
0.993926
0.996243
0.997477
0.998109
0.998276
0.998096
0.997455
0.996075
0.993487
0.989971
0.986561
0.982408
0.974259
0.954853
0.915232
0.878519
0.866585
0.877518
0.911615
0.943299
0.970063
0.987009
0.994987
0.997606
0.997765
0.995939
0.985993
0.974387
0.96929
0.965862
0.958328
0.944442
0.933407
0.927893
0.926494
0.926596
0.927369
0.927561
0.927111
0.924394
0.913982
0.901198
0.893168
0.889256
0.888037
0.887973
0.888515
0.891188
0.900623
0.91868
0.937201
0.954318
0.968676
0.979657
0.987312
0.992135
0.994856
0.99627
0.997054
0.997639
0.998198
0.998731
0.999174
0.999484
0.999657
0.999719
0.999723
0.999689
0.999506
0.998832
0.996586
0.989329
0.965906
0.888686
0.695892
0.503412
0.344912
0.223928
0.138087
0.080772
0.0453498
0.0235681
0.749528
0.756177
0.745706
0.707153
0.644617
0.580619
0.539291
0.501035
0.443706
0.384927
0.341207
0.3101
0.289664
0.277288
0.264558
0.25736
0.254741
0.258635
0.275825
0.305186
0.346705
0.385786
0.406006
0.414799
0.420021
0.428618
0.44465
0.470498
0.514326
0.569831
0.593689
0.601445
0.602152
0.595116
0.589386
0.609562
0.758459
0.830801
0.84376
0.846208
0.845097
0.836882
0.821078
0.8
0.771843
0.746051
0.730056
0.719806
0.71237
0.706788
0.701822
0.697442
0.692223
0.683599
0.660064
0.607293
0.528973
0.46439
0.42377
0.389107
0.353408
0.3243
0.304761
0.287792
0.269057
0.24757
0.239052
0.235972
0.235953
0.244702
0.258218
0.278003
0.309345
0.34799
0.393517
0.449064
0.514689
0.615876
0.731121
0.841536
0.902612
0.936442
0.952874
0.96154
0.966557
0.969624
0.971186
0.971376
0.969841
0.965027
0.955885
0.943723
0.931007
0.923624
0.923184
0.932634
0.947036
0.964616
0.980273
0.990671
0.995934
0.998131
0.998985
0.999342
0.999483
0.999467
0.999251
0.998631
0.997775
0.996988
0.996007
0.99404
0.989409
0.975959
0.947539
0.925725
0.92236
0.936333
0.959806
0.977955
0.990274
0.996208
0.998045
0.998049
0.996036
0.986721
0.977266
0.973028
0.970596
0.965778
0.956311
0.948308
0.944015
0.94264
0.942446
0.942299
0.941727
0.939402
0.930177
0.91408
0.903148
0.897458
0.895403
0.895128
0.895507
0.897816
0.907036
0.925641
0.943248
0.958745
0.971521
0.981343
0.988372
0.993023
0.995831
0.997364
0.998145
0.998579
0.998895
0.999179
0.999432
0.999633
0.999768
0.999839
0.999861
0.99986
0.999834
0.999706
0.999229
0.997576
0.991946
0.97269
0.906499
0.717513
0.510632
0.343776
0.219308
0.132493
0.0767314
0.0412647
0.752037
0.760914
0.752245
0.722435
0.663323
0.599559
0.554382
0.520273
0.470434
0.416281
0.375563
0.346452
0.324017
0.313047
0.306595
0.304045
0.304258
0.315998
0.33358
0.359686
0.383849
0.40259
0.413377
0.419742
0.427362
0.4427
0.468758
0.511979
0.566056
0.591178
0.599787
0.601586
0.598853
0.595588
0.600083
0.664942
0.800303
0.835
0.841288
0.841583
0.837745
0.828757
0.819652
0.806987
0.78872
0.763941
0.740213
0.724599
0.714364
0.7067
0.698922
0.690082
0.678943
0.665069
0.645912
0.613742
0.556082
0.481982
0.430349
0.390855
0.354806
0.319831
0.287731
0.25872
0.240158
0.223355
0.215035
0.212138
0.211573
0.214948
0.223523
0.23575
0.257878
0.290933
0.330327
0.377827
0.42416
0.470988
0.530533
0.620496
0.755117
0.866759
0.919485
0.94419
0.954533
0.957738
0.957841
0.952902
0.940744
0.919299
0.890983
0.865675
0.848785
0.836912
0.829088
0.83105
0.849936
0.88388
0.927978
0.9632
0.984253
0.993935
0.997778
0.999151
0.99961
0.999775
0.999832
0.999823
0.999714
0.999537
0.999376
0.999124
0.998591
0.997322
0.993894
0.984141
0.969558
0.960758
0.961676
0.973323
0.98549
0.993517
0.997438
0.998592
0.998529
0.996829
0.989527
0.982149
0.97837
0.976684
0.974781
0.970551
0.965807
0.96266
0.961279
0.960645
0.959661
0.957425
0.950902
0.937022
0.924841
0.916962
0.91331
0.912367
0.912396
0.913204
0.916999
0.929816
0.947228
0.961951
0.97377
0.982748
0.989182
0.993507
0.996215
0.99778
0.998621
0.999064
0.999324
0.999509
0.999658
0.999775
0.999858
0.999908
0.99993
0.999935
0.999932
0.999906
0.999796
0.999378
0.997863
0.9924
0.972701
0.90209
0.701504
0.489244
0.322835
0.201329
0.120151
0.0667409
0.755295
0.767059
0.76125
0.738637
0.692915
0.631938
0.576189
0.535508
0.493666
0.443575
0.4023
0.375435
0.356111
0.347115
0.34319
0.342385
0.347855
0.359389
0.370765
0.388188
0.399687
0.412353
0.423187
0.431707
0.447674
0.477588
0.525259
0.565622
0.586368
0.595365
0.598658
0.599207
0.598813
0.601973
0.634319
0.759048
0.819569
0.834584
0.83775
0.836938
0.830581
0.825117
0.819278
0.811565
0.802419
0.790125
0.77469
0.755794
0.737978
0.722869
0.709713
0.697012
0.682879
0.666665
0.647395
0.621533
0.585034
0.533773
0.463402
0.408532
0.367901
0.33077
0.297464
0.265728
0.244635
0.229104
0.217605
0.208758
0.205715
0.208146
0.21412
0.222935
0.238557
0.266647
0.302106
0.348162
0.395192
0.435477
0.475025
0.519855
0.574086
0.670274
0.805168
0.886475
0.91753
0.925812
0.924967
0.91151
0.886852
0.86167
0.844841
0.833812
0.824527
0.813041
0.799466
0.787424
0.782953
0.788395
0.815847
0.884448
0.946753
0.978407
0.991977
0.997205
0.99906
0.999673
0.999864
0.999925
0.999943
0.999938
0.999916
0.999881
0.999809
0.99964
0.999226
0.998217
0.995624
0.989711
0.983168
0.981017
0.983763
0.991155
0.996037
0.998418
0.999123
0.999092
0.998138
0.993648
0.988273
0.985149
0.983666
0.982928
0.981552
0.979832
0.978795
0.978141
0.976949
0.973912
0.965968
0.957494
0.951005
0.946475
0.943352
0.941328
0.940397
0.940262
0.940505
0.942694
0.951608
0.965462
0.976544
0.984774
0.990541
0.994356
0.996734
0.998132
0.998909
0.99933
0.999566
0.99971
0.999808
0.999877
0.999924
0.999953
0.999967
0.999971
0.999971
0.999966
0.999937
0.999818
0.999358
0.997612
0.991004
0.966251
0.875062
0.65097
0.444617
0.286165
0.175863
0.100765
0.758753
0.772949
0.769443
0.755156
0.728079
0.677967
0.620252
0.575365
0.538232
0.500382
0.458067
0.425882
0.404892
0.392553
0.387058
0.38525
0.385782
0.393778
0.401595
0.411549
0.423157
0.433636
0.451049
0.471945
0.504741
0.538603
0.563497
0.58103
0.589492
0.595173
0.597603
0.600268
0.606238
0.632184
0.726797
0.801498
0.82559
0.831981
0.832702
0.829275
0.824836
0.821542
0.817809
0.812916
0.808321
0.803169
0.796997
0.789378
0.780392
0.770136
0.756704
0.73977
0.718148
0.691342
0.664153
0.637317
0.607353
0.570486
0.53033
0.477289
0.41054
0.363638
0.326789
0.292178
0.264884
0.247608
0.234214
0.222686
0.218422
0.216854
0.218567
0.223927
0.23681
0.262487
0.295104
0.339439
0.387501
0.427196
0.462764
0.499551
0.537213
0.572155
0.623983
0.730268
0.833257
0.875926
0.883424
0.872189
0.856226
0.844379
0.835601
0.828237
0.820518
0.808625
0.792875
0.777165
0.766283
0.763889
0.766203
0.783833
0.861404
0.94008
0.976335
0.991309
0.99699
0.999005
0.999681
0.999894
0.999957
0.999977
0.999984
0.999983
0.999976
0.999951
0.999877
0.999714
0.999393
0.998658
0.996501
0.99294
0.991091
0.99151
0.994808
0.997729
0.999091
0.999524
0.999536
0.999199
0.9974
0.993816
0.991483
0.990287
0.989509
0.988938
0.98864
0.988417
0.987967
0.986767
0.982673
0.975672
0.970864
0.968606
0.96753
0.966385
0.965064
0.964153
0.963922
0.964094
0.965626
0.972209
0.981589
0.988425
0.993028
0.995938
0.997683
0.998685
0.999244
0.999553
0.999728
0.999832
0.999897
0.999938
0.999964
0.999978
0.999986
0.999988
0.999988
0.999987
0.999978
0.99994
0.999782
0.999153
0.996667
0.98697
0.949949
0.813351
0.57777
0.383625
0.242612
0.143231
0.762928
0.78056
0.776497
0.765484
0.74998
0.72404
0.67953
0.625584
0.583492
0.549101
0.509722
0.477901
0.455379
0.437753
0.429665
0.425899
0.424917
0.42838
0.436451
0.44548
0.461271
0.476975
0.497617
0.518839
0.540324
0.560196
0.574025
0.585701
0.591401
0.597578
0.603242
0.615256
0.644466
0.724407
0.788936
0.815021
0.822937
0.824126
0.818777
0.814424
0.812349
0.811824
0.811615
0.810869
0.808411
0.805665
0.80317
0.800625
0.797692
0.794188
0.789627
0.783267
0.773904
0.759078
0.733904
0.698616
0.660944
0.616211
0.575441
0.534154
0.506564
0.458098
0.411408
0.358436
0.318411
0.292017
0.274436
0.260461
0.251214
0.250313
0.25379
0.26267
0.280646
0.306231
0.33229
0.367945
0.413539
0.447931
0.469021
0.497672
0.533784
0.564585
0.588718
0.615966
0.670216
0.754841
0.814118
0.83517
0.837972
0.83493
0.828985
0.822032
0.811912
0.795411
0.776532
0.764932
0.757374
0.754637
0.755743
0.761452
0.788065
0.87599
0.9464
0.978917
0.992244
0.997298
0.999101
0.999713
0.999911
0.999971
0.999989
0.999994
0.999995
0.999994
0.999983
0.99995
0.999897
0.99979
0.999518
0.998556
0.996671
0.995717
0.995793
0.997207
0.998785
0.999513
0.999756
0.999775
0.999666
0.999077
0.997334
0.9958
0.99481
0.994234
0.993957
0.993832
0.993676
0.993316
0.992208
0.988846
0.985727
0.984279
0.983814
0.983348
0.982226
0.980944
0.980243
0.98014
0.980446
0.982332
0.98777
0.992529
0.995658
0.997559
0.998645
0.999242
0.999567
0.999746
0.999849
0.999911
0.999949
0.999971
0.999984
0.999991
0.999994
0.999996
0.999996
0.999995
0.999992
0.999978
0.999916
0.99966
0.998612
0.994381
0.977686
0.913781
0.71463
0.488222
0.317486
0.192887
0.768563
0.79099
0.785876
0.77057
0.762373
0.752884
0.734866
0.710186
0.677187
0.64623
0.613784
0.587515
0.561251
0.53799
0.523177
0.511457
0.505458
0.502501
0.501669
0.504728
0.512973
0.524818
0.53864
0.554051
0.567926
0.580754
0.590279
0.599343
0.606985
0.621604
0.644338
0.690989
0.747807
0.787606
0.806891
0.813751
0.814934
0.810505
0.803434
0.800487
0.798855
0.797934
0.797544
0.7985
0.800063
0.800848
0.800734
0.800017
0.798898
0.797684
0.796268
0.794456
0.791955
0.787878
0.780653
0.768279
0.747934
0.720643
0.679049
0.628796
0.580089
0.544811
0.511954
0.489229
0.46091
0.422378
0.396236
0.371027
0.360803
0.347664
0.348803
0.354757
0.367116
0.39138
0.421741
0.452459
0.488246
0.516709
0.528981
0.535714
0.558428
0.591976
0.607316
0.61451
0.62782
0.648733
0.68046
0.724161
0.758806
0.779463
0.783705
0.779587
0.766416
0.746038
0.739835
0.743567
0.748597
0.750838
0.752931
0.75775
0.774563
0.836939
0.91263
0.960512
0.984248
0.99414
0.997937
0.999306
0.999776
0.999931
0.999979
0.999993
0.999997
0.999998
0.999998
0.999995
0.999988
0.999971
0.99993
0.999786
0.999175
0.998226
0.997855
0.99792
0.998629
0.999406
0.999759
0.999876
0.999886
0.999834
0.999536
0.998677
0.997953
0.997526
0.997324
0.997245
0.997185
0.997058
0.996691
0.995397
0.993928
0.993284
0.99311
0.992948
0.99249
0.991358
0.990495
0.990197
0.990231
0.990754
0.992996
0.99582
0.997645
0.998715
0.999304
0.999616
0.999782
0.999873
0.999926
0.999957
0.999976
0.999988
0.999994
0.999997
0.999998
0.999998
0.999999
0.999998
0.999997
0.999991
0.999963
0.999845
0.99935
0.9973
0.989007
0.956481
0.833444
0.593962
0.397096
0.247997
0.773904
0.802082
0.794487
0.779129
0.77197
0.765646
0.757748
0.747767
0.735017
0.717728
0.700556
0.684916
0.672857
0.66137
0.650451
0.641259
0.634442
0.63107
0.629067
0.627678
0.626089
0.62542
0.624854
0.627163
0.63054
0.63636
0.645939
0.659607
0.679259
0.70764
0.741418
0.769538
0.793852
0.805408
0.810607
0.812112
0.811507
0.806406
0.798996
0.795403
0.793594
0.792355
0.791467
0.790925
0.790815
0.790896
0.791238
0.791809
0.792409
0.792741
0.792788
0.792559
0.791853
0.790519
0.788305
0.785373
0.779091
0.77025
0.75561
0.731991
0.694819
0.65388
0.61371
0.576467
0.550879
0.53383
0.516674
0.501996
0.493
0.490476
0.491243
0.49404
0.500106
0.509862
0.520581
0.533381
0.540397
0.546579
0.561504
0.576634
0.598168
0.635994
0.659924
0.664652
0.660715
0.65383
0.654126
0.662309
0.675267
0.688407
0.700684
0.707799
0.713308
0.720962
0.730607
0.741307
0.748408
0.751193
0.753372
0.758097
0.773149
0.828573
0.900203
0.948059
0.975833
0.990012
0.996229
0.998658
0.999545
0.999852
0.999954
0.999986
0.999996
0.999999
0.999999
0.999999
0.999999
0.999997
0.999991
0.999965
0.999838
0.999373
0.998984
0.99889
0.998972
0.999394
0.999741
0.999891
0.999935
0.999934
0.999887
0.999638
0.999217
0.998969
0.998868
0.998843
0.998832
0.998805
0.998705
0.998277
0.997649
0.997376
0.997316
0.99727
0.997122
0.996577
0.995951
0.995679
0.995657
0.995822
0.996711
0.998081
0.998954
0.999444
0.999702
0.999834
0.999904
0.999943
0.999967
0.999981
0.99999
0.999995
0.999997
0.999999
0.999999
0.999999
1
0.999999
0.999999
0.999996
0.999981
0.99992
0.999658
0.998554
0.994007
0.975822
0.905773
0.696034
0.475996
0.30511
0.777003
0.818954
0.816756
0.797859
0.784343
0.777873
0.77301
0.768439
0.764239
0.759715
0.756601
0.753924
0.751546
0.748208
0.744256
0.739936
0.737565
0.73658
0.73606
0.735176
0.733622
0.732055
0.730868
0.729952
0.731048
0.735447
0.742543
0.751124
0.761417
0.774212
0.788185
0.799015
0.806292
0.80997
0.811866
0.812324
0.811547
0.807008
0.800134
0.796208
0.794188
0.792784
0.791718
0.790936
0.790403
0.789986
0.789659
0.789439
0.789117
0.788808
0.788647
0.788309
0.787754
0.787304
0.786561
0.785378
0.783269
0.780226
0.775041
0.766551
0.755622
0.733474
0.707569
0.678171
0.644311
0.620155
0.599118
0.582062
0.568003
0.557816
0.553241
0.553102
0.554274
0.557639
0.561552
0.565497
0.576061
0.589152
0.600496
0.625071
0.652113
0.66734
0.679921
0.689299
0.692457
0.692941
0.689049
0.680914
0.678863
0.680741
0.68877
0.698635
0.708732