/*--------------------------------*- C++ -*----------------------------------*\
  =========                 |
  \\      /  F ield         | OpenFOAM: The Open Source CFD Toolbox
   \\    /   O peration     | Website:  https://openfoam.org
    \\  /    A nd           | Version:  9
     \\/     M anipulation  |
\*---------------------------------------------------------------------------*/
FoamFile
{
    format      ascii;
    class       volVectorField;
    location    "0.039";
    object      U_0;
}
// * * * * * * * * * * * * * * * * * * * * * * * * * * * * * * * * * * * * * //

dimensions      [0 1 -1 0 0 0 0];

internalField   nonuniform List<vector> 
12225
(
(9.86527 0.069664 0)
(9.49639 0.0448079 0)
(9.20524 0.0387631 0)
(8.9563 0.0548951 0)
(8.62872 0.0798781 0)
(8.23309 0.0938223 0)
(7.85348 0.0897626 0)
(7.52007 0.0811907 0)
(7.20396 0.0828725 0)
(6.84578 0.0960695 0)
(6.41842 0.107931 0)
(5.92764 0.109913 0)
(5.43112 0.103554 0)
(4.90446 0.107938 0)
(4.38376 0.130714 0)
(3.66519 0.205204 0)
(2.82168 0.336076 0)
(1.14949 0.481989 0)
(10.1856 0.0181485 0)
(10.1142 0.113737 0)
(10.0558 0.0830501 0)
(10.1019 0.0719989 0)
(10.1283 0.0852999 0)
(10.078 0.0956097 0)
(9.9759 0.0937979 0)
(9.85494 0.0896926 0)
(9.7421 0.0983757 0)
(9.63403 0.125032 0)
(9.51921 0.162638 0)
(9.35141 0.197709 0)
(9.15622 0.227581 0)
(8.85588 0.259215 0)
(8.567 0.317479 0)
(8.03953 0.42156 0)
(7.62784 0.601554 0)
(6.62389 0.85215 0)
(9.8069 0.0276201 0)
(10.005 0.0571573 0)
(10.104 0.0425133 0)
(10.1036 0.0471227 0)
(10.0821 0.0887349 0)
(10.0619 0.13351 0)
(10.0328 0.153416 0)
(9.97815 0.151043 0)
(9.90642 0.149228 0)
(9.83586 0.165003 0)
(9.78333 0.199843 0)
(9.72458 0.239406 0)
(9.6616 0.283532 0)
(9.54003 0.333383 0)
(9.41635 0.42529 0)
(9.19201 0.566417 0)
(9.02813 0.792689 0)
(8.74563 1.05948 0)
(9.95356 -0.000392318 0)
(10.1628 0.0480121 0)
(10.1926 0.0666204 0)
(10.0896 0.0746381 0)
(9.98857 0.0889504 0)
(9.97307 0.106409 0)
(10.0144 0.119675 0)
(10.0331 0.130805 0)
(9.98717 0.147972 0)
(9.88933 0.174352 0)
(9.77858 0.209393 0)
(9.67377 0.247636 0)
(9.58428 0.297957 0)
(9.49102 0.366835 0)
(9.40514 0.477931 0)
(9.31415 0.636973 0)
(9.25652 0.848223 0)
(9.22226 1.08795 0)
(9.84156 -0.0708253 0)
(10.054 -0.023688 0)
(10.121 0.0661452 0)
(10.034 0.119448 0)
(9.92557 0.132136 0)
(9.88365 0.129988 0)
(9.88806 0.136263 0)
(9.87924 0.157804 0)
(9.83497 0.192254 0)
(9.7723 0.232762 0)
(9.71468 0.274819 0)
(9.66909 0.315674 0)
(9.62839 0.363279 0)
(9.57944 0.42572 0)
(9.51569 0.521089 0)
(9.44728 0.658172 0)
(9.38919 0.836025 0)
(9.36899 1.04182 0)
(10.0436 -0.0419676 0)
(9.95446 0.00538498 0)
(9.86079 0.0745507 0)
(9.8948 0.119966 0)
(9.9589 0.117873 0)
(9.98727 0.108033 0)
(9.97782 0.120879 0)
(9.94314 0.154557 0)
(9.89924 0.193433 0)
(9.85746 0.226122 0)
(9.81665 0.254061 0)
(9.7667 0.287091 0)
(9.6973 0.339812 0)
(9.6066 0.422419 0)
(9.50185 0.541082 0)
(9.40534 0.694208 0)
(9.33002 0.871128 0)
(9.30483 1.06359 0)
(9.98497 -0.0373665 0)
(10.0265 0.027575 0)
(10.0337 0.0808967 0)
(10.0426 0.101481 0)
(10.0285 0.113963 0)
(10.0091 0.132134 0)
(10.0047 0.155323 0)
(10.0115 0.182881 0)
(10.0161 0.216902 0)
(10.0019 0.2595 0)
(9.95175 0.311752 0)
(9.85841 0.37323 0)
(9.73086 0.445021 0)
(9.59007 0.529862 0)
(9.4586 0.630864 0)
(9.35776 0.752938 0)
(9.29474 0.891422 0)
(9.28072 1.0497 0)
(9.92387 0.0441167 0)
(9.8916 0.00468406 0)
(9.89586 0.0773877 0)
(9.95071 0.123175 0)
(9.99018 0.116742 0)
(9.9981 0.104204 0)
(9.98271 0.115684 0)
(9.95139 0.151766 0)
(9.91576 0.202005 0)
(9.8855 0.259279 0)
(9.85956 0.322875 0)
(9.82864 0.394302 0)
(9.78394 0.474545 0)
(9.7232 0.565399 0)
(9.64834 0.666957 0)
(9.57214 0.783159 0)
(9.50424 0.910308 0)
(9.46164 1.05009 0)
(10.2006 0.0144123 0)
(10.2266 0.0140594 0)
(10.2054 0.0478516 0)
(10.1892 0.072886 0)
(10.1157 0.10293 0)
(9.99147 0.142778 0)
(9.87321 0.181037 0)
(9.79359 0.213046 0)
(9.75616 0.244023 0)
(9.75339 0.282873 0)
(9.77214 0.336904 0)
(9.79717 0.408906 0)
(9.81183 0.496381 0)
(9.80515 0.597381 0)
(9.77109 0.706903 0)
(9.71917 0.825081 0)
(9.65971 0.946647 0)
(9.61386 1.07119 0)
(10.1538 0.00201269 0)
(10.0239 0.0283494 0)
(9.9718 0.105902 0)
(9.95566 0.169153 0)
(9.9283 0.199414 0)
(9.87594 0.208006 0)
(9.82984 0.206813 0)
(9.80307 0.209515 0)
(9.78439 0.224236 0)
(9.76158 0.254169 0)
(9.72975 0.303342 0)
(9.69317 0.376828 0)
(9.65656 0.47534 0)
(9.62434 0.596053 0)
(9.5969 0.727554 0)
(9.57725 0.862219 0)
(9.56861 0.98834 0)
(9.57673 1.10512 0)
(10.0606 0.110624 0)
(9.91994 0.104779 0)
(9.8846 0.0629376 0)
(9.92055 0.0727568 0)
(9.95934 0.12629 0)
(9.97719 0.177359 0)
(9.98344 0.207271 0)
(9.98409 0.229355 0)
(9.97579 0.262924 0)
(9.95334 0.315835 0)
(9.91134 0.384586 0)
(9.85345 0.464256 0)
(9.79002 0.551245 0)
(9.73822 0.645832 0)
(9.71001 0.744898 0)
(9.70809 0.847076 0)
(9.73349 0.946768 0)
(9.77104 1.04479 0)
(9.8181 0.128231 0)
(9.96388 0.12772 0)
(10.1015 0.119822 0)
(10.1236 0.13632 0)
(10.0708 0.177939 0)
(10.0274 0.208149 0)
(10.0124 0.217497 0)
(9.99401 0.22233 0)
(9.9516 0.24152 0)
(9.89521 0.285303 0)
(9.84495 0.353069 0)
(9.81365 0.439184 0)
(9.80384 0.535799 0)
(9.81172 0.636994 0)
(9.83441 0.738536 0)
(9.86654 0.837876 0)
(9.90903 0.934853 0)
(9.95459 1.03249 0)
(9.95402 0.103032 0)
(9.96154 -0.0254414 0)
(9.94308 -0.0123931 0)
(9.93032 0.0852113 0)
(9.95544 0.159168 0)
(10.0143 0.187423 0)
(10.0648 0.208733 0)
(10.0537 0.253237 0)
(9.97261 0.318774 0)
(9.86549 0.388254 0)
(9.78654 0.450697 0)
(9.76211 0.508021 0)
(9.79167 0.567472 0)
(9.8546 0.635224 0)
(9.93012 0.711055 0)
(9.99972 0.793518 0)
(10.0581 0.877818 0)
(10.1039 0.966577 0)
(10.2057 0.210669 0)
(10.1631 0.176551 0)
(10.0109 0.146381 0)
(9.92447 0.141984 0)
(9.9113 0.142065 0)
(9.91511 0.160611 0)
(9.90605 0.212874 0)
(9.87579 0.287005 0)
(9.8338 0.351772 0)
(9.80044 0.385985 0)
(9.79158 0.395538 0)
(9.8125 0.405942 0)
(9.86132 0.441262 0)
(9.9319 0.512456 0)
(10.0134 0.613601 0)
(10.0952 0.731634 0)
(10.1685 0.851125 0)
(10.232 0.962323 0)
(10.1431 0.0984042 0)
(10.0488 0.112779 0)
(9.96824 0.112773 0)
(9.93195 0.148917 0)
(9.92127 0.175472 0)
(9.92206 0.195147 0)
(9.93743 0.232766 0)
(9.9672 0.296937 0)
(10.0013 0.370792 0)
(10.0252 0.430427 0)
(10.0269 0.464078 0)
(10.008 0.478156 0)
(9.98184 0.488385 0)
(9.96886 0.512551 0)
(9.97828 0.559618 0)
(10.0154 0.631432 0)
(10.0699 0.719101 0)
(10.1417 0.816949 0)
(9.92366 0.223001 0)
(9.91952 0.309036 0)
(9.92183 0.216195 0)
(9.92531 0.147592 0)
(9.91738 0.123118 0)
(9.9066 0.126742 0)
(9.90312 0.161134 0)
(9.91669 0.218963 0)
(9.95345 0.283644 0)
(10.0109 0.343139 0)
(10.0759 0.392631 0)
(10.1338 0.435047 0)
(10.1741 0.475146 0)
(10.1962 0.520898 0)
(10.2029 0.576997 0)
(10.2037 0.645922 0)
(10.204 0.724359 0)
(10.2137 0.807336 0)
(9.7088 0.0284834 0)
(9.80321 -0.0172708 0)
(9.92602 0.0877677 0)
(10.0188 0.175179 0)
(10.0302 0.227755 0)
(10.0008 0.254572 0)
(9.97866 0.266497 0)
(9.97834 0.274588 0)
(9.99788 0.285639 0)
(10.0305 0.301669 0)
(10.0658 0.323257 0)
(10.0956 0.354212 0)
(10.1187 0.398143 0)
(10.1384 0.457536 0)
(10.1597 0.528748 0)
(10.1862 0.606352 0)
(10.2217 0.681501 0)
(10.2685 0.749379 0)
(10.1081 0.0558408 0)
(10.0444 0.043747 0)
(10.044 0.0166902 0)
(10.0431 0.0557874 0)
(10.0538 0.10882 0)
(10.0794 0.133883 0)
(10.117 0.137882 0)
(10.1616 0.147457 0)
(10.2094 0.179116 0)
(10.2542 0.232635 0)
(10.287 0.298063 0)
(10.3028 0.364532 0)
(10.3042 0.423901 0)
(10.2993 0.473041 0)
(10.2965 0.512797 0)
(10.3035 0.548028 0)
(10.3231 0.579964 0)
(10.3587 0.613954 0)
(10.1513 0.107209 0)
(10.1759 0.0612222 0)
(10.2029 0.0919497 0)
(10.2679 0.153875 0)
(10.2888 0.192487 0)
(10.2667 0.199956 0)
(10.235 0.186101 0)
(10.2119 0.168514 0)
(10.2011 0.166209 0)
(10.2029 0.191201 0)
(10.2145 0.243723 0)
(10.2307 0.314668 0)
(10.247 0.389911 0)
(10.2639 0.45693 0)
(10.284 0.506146 0)
(10.3106 0.536088 0)
(10.3439 0.547078 0)
(10.384 0.545106 0)
(10.1382 -0.134444 0)
(10.0413 -0.126248 0)
(10.0131 -0.0686736 0)
(9.98006 0.0110012 0)
(9.99065 0.102561 0)
(10.0397 0.179773 0)
(10.0995 0.207553 0)
(10.1556 0.191503 0)
(10.1978 0.172603 0)
(10.2228 0.18541 0)
(10.2387 0.234849 0)
(10.2583 0.302122 0)
(10.289 0.363419 0)
(10.3309 0.403367 0)
(10.3798 0.41977 0)
(10.43 0.420022 0)
(10.4775 0.41348 0)
(10.5178 0.411212 0)
(9.96679 0.0488486 0)
(9.95526 0.159727 0)
(10.0174 0.130715 0)
(10.0216 0.113466 0)
(9.97778 0.105412 0)
(9.93289 0.0883614 0)
(9.91873 0.0705347 0)
(9.93741 0.0729592 0)
(9.97424 0.102106 0)
(10.0175 0.146839 0)
(10.0662 0.191835 0)
(10.1215 0.228808 0)
(10.1816 0.256776 0)
(10.243 0.278846 0)
(10.3029 0.298583 0)
(10.3593 0.318389 0)
(10.4112 0.338406 0)
(10.4585 0.357959 0)
(9.98592 0.0220368 0)
(9.95365 -0.148901 0)
(9.97109 -0.0880231 0)
(9.97098 0.0634163 0)
(10.0038 0.176777 0)
(10.0519 0.201919 0)
(10.072 0.155006 0)
(10.0663 0.088549 0)
(10.0593 0.0492762 0)
(10.0698 0.0542341 0)
(10.1038 0.0931682 0)
(10.1564 0.14432 0)
(10.2167 0.189709 0)
(10.276 0.220547 0)
(10.3329 0.237172 0)
(10.3886 0.245405 0)
(10.4455 0.250283 0)
(10.5035 0.258356 0)
(10.2284 0.116696 0)
(10.0252 0.0928102 0)
(9.93509 0.0797375 0)
(9.91604 0.0827014 0)
(9.96391 0.0772815 0)
(10.0305 0.0779873 0)
(10.0717 0.0940281 0)
(10.078 0.107565 0)
(10.0613 0.103517 0)
(10.0425 0.0874115 0)
(10.0417 0.0753997 0)
(10.0679 0.0770692 0)
(10.1179 0.0914874 0)
(10.1828 0.11116 0)
(10.2525 0.129062 0)
(10.3207 0.143121 0)
(10.3827 0.153271 0)
(10.4389 0.165604 0)
(10.3245 0.0569108 0)
(10.1139 0.131414 0)
(10.08 0.0332956 0)
(10.062 0.0244282 0)
(10.0487 0.0517456 0)
(10.0564 0.0739431 0)
(10.081 0.0859106 0)
(10.1245 0.0873173 0)
(10.1778 0.0818593 0)
(10.2241 0.0750038 0)
(10.2568 0.0697027 0)
(10.2831 0.0660898 0)
(10.3127 0.0641201 0)
(10.3511 0.0649638 0)
(10.3956 0.0702042 0)
(10.4409 0.0801546 0)
(10.4802 0.0932965 0)
(10.5094 0.107227 0)
(9.93931 0.0477864 0)
(10.0753 0.152198 0)
(10.1037 0.112973 0)
(10.0546 0.0844134 0)
(10.0098 0.0840732 0)
(10.0014 0.0783237 0)
(9.99927 0.0607087 0)
(10.0034 0.0388115 0)
(10.0322 0.0222475 0)
(10.0914 0.0168715 0)
(10.1698 0.0179741 0)
(10.2494 0.0188808 0)
(10.3129 0.0173344 0)
(10.3523 0.0171532 0)
(10.3699 0.0243384 0)
(10.3744 0.0410808 0)
(10.374 0.0675032 0)
(10.3779 0.0991212 0)
(9.55999 -0.177385 0)
(9.5767 0.037508 0)
(9.71369 0.105374 0)
(9.82653 0.0801842 0)
(9.92269 0.0650893 0)
(10.0294 0.0700991 0)
(10.1285 0.0735574 0)
(10.1966 0.0550913 0)
(10.2279 0.0152084 0)
(10.2313 -0.0262955 0)
(10.2253 -0.0487916 0)
(10.2282 -0.0447207 0)
(10.2468 -0.0192471 0)
(10.277 0.0167573 0)
(10.3121 0.0510619 0)
(10.3485 0.0763715 0)
(10.3872 0.0907577 0)
(10.4291 0.0955345 0)
(9.78261 -0.0683895 0)
(9.80325 -0.0288207 0)
(9.90566 -0.0168284 0)
(9.98073 -0.0111713 0)
(10.011 -0.0111614 0)
(10.0397 -0.0212917 0)
(10.0782 -0.0257284 0)
(10.1144 -0.0155572 0)
(10.1336 0.000423271 0)
(10.1326 0.00815181 0)
(10.1236 0.00243938 0)
(10.1236 -0.0123387 0)
(10.143 -0.0267658 0)
(10.1808 -0.0343246 0)
(10.2304 -0.0314803 0)
(10.2852 -0.0193252 0)
(10.3397 -0.000472375 0)
(10.391 0.0212081 0)
(9.72678 -0.16127 0)
(9.7971 -0.0380647 0)
(9.95571 0.0274043 0)
(10.063 0.0323736 0)
(10.1058 0.0261075 0)
(10.1104 0.0232452 0)
(10.096 0.0215737 0)
(10.0912 0.0173589 0)
(10.1174 0.00644091 0)
(10.1707 -0.0107746 0)
(10.2322 -0.0299917 0)
(10.285 -0.0437693 0)
(10.3205 -0.0470504 0)
(10.3375 -0.0396629 0)
(10.3413 -0.0251769 0)
(10.3425 -0.00905604 0)
(10.3493 0.00473615 0)
(10.3698 0.0131837 0)
(9.9493 -0.0476909 0)
(9.97671 -0.14914 0)
(9.96618 -0.107165 0)
(9.98559 -0.0528242 0)
(10.0596 -0.0214205 0)
(10.1541 -0.0104984 0)
(10.2298 -0.0132524 0)
(10.2809 -0.0232449 0)
(10.3179 -0.0377687 0)
(10.3429 -0.0540208 0)
(10.3522 -0.0666083 0)
(10.3471 -0.0708172 0)
(10.3345 -0.0651129 0)
(10.322 -0.052419 0)
(10.3152 -0.0378415 0)
(10.3184 -0.0255651 0)
(10.3321 -0.0181305 0)
(10.3571 -0.0164782 0)
(10.0058 -0.121133 0)
(9.64112 -0.0328479 0)
(9.42834 0.000962468 0)
(9.3058 -0.0196323 0)
(9.19969 -0.0407228 0)
(9.11104 -0.0403681 0)
(9.03875 -0.0281682 0)
(8.97731 -0.0180015 0)
(8.91252 -0.0162125 0)
(8.82585 -0.0215826 0)
(8.71115 -0.0293511 0)
(8.58235 -0.034621 0)
(8.46037 -0.034517 0)
(8.3602 -0.0300125 0)
(8.2852 -0.0241653 0)
(8.23263 -0.0198654 0)
(8.19293 -0.0190372 0)
(8.1584 -0.0217129 0)
(-0.221413 0.556186 -7.96864e-21)
(-0.520785 0.219993 7.92625e-21)
(-0.675526 0.00952274 0)
(-0.625686 -0.193346 0)
(-0.397639 -0.341757 0)
(0.00334921 -0.491277 -7.60027e-21)
(0.549369 -0.578201 0)
(1.15884 -0.615496 0)
(1.77629 -0.609515 0)
(2.37537 -0.570709 0)
(2.93653 -0.510815 7.65694e-21)
(3.44171 -0.439056 0)
(3.88037 -0.361823 0)
(4.24538 -0.282958 0)
(4.53512 -0.204775 0)
(4.74488 -0.127381 8.19312e-21)
(4.87532 -0.0506162 0)
(4.92085 0.0275311 0)
(4.88111 0.1126 0)
(4.74823 0.203735 0)
(4.52808 0.298539 0)
(4.19758 0.401177 0)
(3.77822 0.507729 0)
(3.23148 0.618216 7.18423e-21)
(2.61151 0.721305 -6.94503e-21)
(1.8359 0.810016 6.7361e-21)
(1.05042 0.85762 6.57918e-21)
(0.00820967 0.607727 0)
(-0.527314 -0.501997 0)
(-0.812363 0.00181117 -6.39822e-21)
(-1.30965 0.925597 -6.44672e-21)
(-2.04043 0.715515 0)
(-2.92235 0.607655 0)
(-3.61347 0.404069 -6.98087e-21)
(-3.82246 -0.0170094 0)
(-3.56761 -0.449745 0)
(-2.9059 -0.941816 6.6289e-21)
(-1.68347 -1.46592 0)
(-0.0850619 -1.68899 6.10992e-21)
(1.28057 -1.06436 1.25455e-20)
(1.98606 -0.486697 0)
(2.36111 -0.0234749 0)
(2.05403 -0.171805 0)
(1.52984 0.451551 0)
(1.39853 1.27802 0)
(1.35105 -0.205634 1.20629e-20)
(1.03883 -1.83921 1.19516e-20)
(1.04364 -1.71083 1.21414e-20)
(0.528079 0.305591 0)
(-1.39211 1.54636 -1.11514e-20)
(-3.07613 1.32868 0)
(-4.51599 1.17576 1.1263e-20)
(-5.85488 1.09932 1.18008e-20)
(-7.08246 0.98268 0)
(-8.16394 0.866385 0)
(-9.1234 0.745592 0)
(-9.94384 0.627085 1.50519e-20)
(-10.6437 0.519705 0)
(-11.2264 0.422731 0)
(-11.7074 0.339411 0)
(-12.0962 0.267531 0)
(-12.4043 0.206052 0)
(-12.6395 0.152813 0)
(-12.81 0.106501 0)
(-12.9214 0.066435 0)
(-12.9788 0.0320836 -1.92612e-20)
(-12.9863 0.00251471 0)
(-12.9517 -0.0235597 0)
(-12.879 -0.0469176 1.90265e-20)
(-12.7694 -0.0677569 1.87807e-20)
(-12.6276 -0.0865936 0)
(-12.4548 -0.103063 -1.8076e-20)
(-12.2555 -0.117336 1.76343e-20)
(-12.0321 -0.129264 0)
(-11.7887 -0.138759 -1.66212e-20)
(-11.5287 -0.146056 0)
(-11.2558 -0.150986 0)
(-10.9737 -0.153882 1.49254e-20)
(-10.6858 -0.154875 0)
(-10.3952 -0.154229 -1.37751e-20)
(-10.1046 -0.152373 0)
(-9.81582 -0.149658 1.2657e-20)
(-9.53006 -0.146581 1.21141e-20)
(-9.24759 -0.143623 1.15804e-20)
(-8.96778 -0.141254 2.21064e-20)
(-8.68903 -0.139944 -2.10562e-20)
(-8.40887 -0.140082 0)
(-8.12409 -0.141964 0)
(-7.83094 -0.145757 0)
(-7.52548 -0.151454 -1.6703e-20)
(-7.20391 -0.158852 -1.55379e-20)
(-6.863 -0.167554 1.43387e-20)
(-6.50043 -0.177004 0)
(-6.11515 -0.186506 -1.18728e-20)
(-5.70755 -0.195332 -1.06369e-20)
(-5.27931 -0.202859 -9.42552e-21)
(-4.83329 -0.208625 0)
(-4.37323 -0.212352 0)
(-3.9031 -0.214048 0)
(-3.4266 -0.213942 -5.21065e-21)
(-2.94714 -0.212322 0)
(-2.46788 -0.209476 0)
(-1.9913 -0.205692 3.01349e-21)
(-1.51883 -0.201348 0)
(-1.05123 -0.19672 0)
(-0.588729 -0.191349 1.62698e-21)
(-0.133508 -0.185632 0)
(0.312812 -0.179978 0)
(0.750849 -0.173475 -8.60599e-22)
(1.17876 -0.166324 -7.10639e-22)
(1.59452 -0.158465 0)
(1.99612 -0.149804 5.37033e-22)
(2.38133 -0.140198 0)
(2.74764 -0.129453 -5.00389e-22)
(3.09206 -0.117378 0)
(3.41093 -0.103927 -5.65911e-22)
(3.69994 -0.0893288 -6.26182e-22)
(3.955 -0.0742169 0)
(4.17386 -0.059668 0)
(4.3575 -0.0468935 0)
(4.50988 -0.0359948 0)
(4.63359 -0.025552 0)
(4.72743 -0.0145274 0)
(4.7886 -0.00242362 0)
(4.81301 0.0101846 -1.19536e-21)
(4.80351 0.0189377 1.24334e-21)
(4.77577 0.0200297 0)
(4.74673 0.0157267 0)
(4.7259 0.0131554 0)
(4.71059 0.017469 0)
(4.68963 0.0272409 2.69473e-21)
(4.65183 0.0372244 0)
(4.59324 0.0429708 -2.67962e-21)
(4.51881 0.0428455 2.66516e-21)
(4.43853 0.0376476 0)
(4.36207 0.029801 0)
(4.29541 0.0218607 0)
(4.24055 0.0153648 -2.53181e-21)
(4.19703 0.0109409 -2.47844e-21)
(4.16319 0.00892041 0)
(4.13649 0.00950299 -2.35314e-21)
(4.11359 0.012406 -2.28234e-21)
(4.09082 0.0167875 2.20713e-21)
(4.0649 0.0217486 0)
(4.03315 0.0268341 0)
(3.99296 0.0323589 1.9645e-21)
(3.94146 0.0388146 0)
(3.87604 0.0458022 0)
(3.79593 0.0515926 0)
(3.70365 0.0540006 0)
(3.60488 0.0519404 -1.56221e-21)
(3.50652 0.0460658 -1.48479e-21)
(3.41422 0.0382619 0)
(3.33077 0.0306514 -1.32284e-21)
(3.25613 0.0247467 0)
(3.1886 0.0210444 0)
(3.12606 0.0190435 -1.062e-21)
(3.06696 0.0178273 0)
(3.01078 0.0166006 -8.85562e-22)
(2.958 0.0149546 0)
(2.9095 0.0129304 0)
(2.86624 0.0107976 -6.18989e-22)
(2.82839 0.00887381 0)
(2.79587 0.00737678 -4.36103e-22)
(2.76757 0.00638167 0)
(2.74293 0.00581517 0)
(2.7202 0.00559235 0)
(2.69933 0.00554958 6.04707e-23)
(2.67812 0.0057226 0)
(2.65745 0.00591984 1.31074e-22)
(2.63431 0.00653554 0)
(2.61007 0.00710325 0)
(2.58145 0.00876515 0)
(2.54734 0.00982545 0)
(2.50974 0.0139174 0)
(2.45067 0.0151808 0)
(2.40416 0.0255839 0)
(2.27592 0.0253084 -1.96359e-21)
(2.24359 0.0553228 0)
(1.89754 0.044233 0)
(0.0492818 0.874849 2.39564e-20)
(0.0160248 0.668248 -2.38241e-20)
(0.0593505 0.223096 0)
(0.413106 -0.373436 1.56686e-20)
(0.984636 -0.984912 0)
(1.66425 -1.45031 7.55359e-21)
(2.3593 -1.73237 -1.53739e-20)
(3.02303 -1.84742 -1.54316e-20)
(3.63621 -1.83169 0)
(4.19287 -1.72512 -1.57937e-20)
(4.68911 -1.56123 -7.60678e-21)
(5.12326 -1.36408 0)
(5.49618 -1.14951 0)
(5.80823 -0.926587 0)
(6.06107 -0.700187 0)
(6.25416 -0.471742 -8.15532e-21)
(6.3917 -0.242209 0)
(6.46963 -0.0101589 1.71127e-20)
(6.49741 0.223563 0)
(6.45516 0.462606 0)
(6.35292 0.706426 -1.64631e-20)
(6.16926 0.961046 0)
(5.92438 1.22087 1.56548e-20)
(5.56773 1.49188 -7.13114e-21)
(5.14965 1.75311 6.88874e-21)
(4.56658 2.00493 -6.67684e-21)
(3.9376 2.19189 -6.5177e-21)
(3.03706 2.28609 0)
(2.07738 2.10662 0)
(0.654372 1.50114 6.38904e-21)
(-0.452235 1.16864 -6.84264e-21)
(-0.923098 1.6574 0)
(-1.65178 1.70846 0)
(-2.00959 1.04031 6.99811e-21)
(-2.11718 0.0840696 0)
(-1.97807 -1.04163 0)
(-1.61443 -2.16785 -6.63835e-21)
(-0.653713 -3.47525 0)
(0.318892 -3.63391 7.09735e-21)
(0.852792 -2.32985 -1.25292e-20)
(1.36572 -1.27692 0)
(1.32778 0.20588 0)
(1.5002 1.3461 -2.67044e-20)
(0.775658 0.0620866 -2.57656e-20)
(0.346029 -0.736179 -2.56474e-20)
(-0.242764 0.81281 1.2399e-20)
(-2.68863 2.13259 -1.18923e-20)
(-4.60536 2.65476 -3.66293e-20)
(-5.71077 3.0266 2.44884e-20)
(-6.82896 3.09215 1.09968e-20)
(-7.70368 2.83052 0)
(-8.5451 2.61669 -1.11446e-20)
(-9.25543 2.35027 1.39924e-20)
(-9.90383 2.07912 0)
(-10.4421 1.81134 0)
(-10.9165 1.55291 0)
(-11.3086 1.31427 -1.49945e-20)
(-11.6443 1.09717 0)
(-11.9206 0.904301 3.40698e-20)
(-12.1531 0.73397 0)
(-12.3428 0.584283 3.62895e-20)
(-12.4966 0.4516 0)
(-12.6147 0.333134 -3.7892e-20)
(-12.6993 0.226327 0)
(-12.7505 0.129797 3.87997e-20)
(-12.7695 0.0421159 -1.97129e-20)
(-12.7567 -0.0380108 0)
(-12.7087 -0.111503 -3.87932e-20)
(-12.6253 -0.178508 -1.90326e-20)
(-12.5097 -0.23921 -1.87858e-20)
(-12.3619 -0.293695 0)
(-12.1863 -0.341778 -1.83722e-20)
(-11.9839 -0.38338 -1.76367e-20)
(-11.7591 -0.418292 0)
(-11.5147 -0.446369 1.66224e-20)
(-11.2544 -0.467704 -3.23146e-20)
(-10.9818 -0.482374 0)
(-10.7004 -0.490813 -1.49257e-20)
(-10.4139 -0.493594 0)
(-10.1251 -0.491539 4.14119e-20)
(-9.83664 -0.485729 0)
(-9.55055 -0.477396 -3.80428e-20)
(-9.26789 -0.467938 -1.21141e-20)
(-8.98896 -0.45882 1.16579e-20)
(-8.71306 -0.451504 2.228e-20)
(-8.43855 -0.447386 -2.12549e-20)
(-8.16285 -0.447681 0)
(-7.8826 -0.45332 0)
(-7.59386 -0.464842 0)
(-7.29238 -0.482281 5.04092e-20)
(-6.97411 -0.505052 1.55362e-20)
(-6.63556 -0.531963 -1.43367e-20)
(-6.27423 -0.561316 0)
(-5.88902 -0.590987 -1.21456e-20)
(-5.48049 -0.618703 1.06343e-20)
(-5.05062 -0.642494 9.42301e-21)
(-4.60259 -0.660891 0)
(-4.14056 -0.673019 0)
(-3.66892 -0.678907 0)
(-3.19168 -0.679286 5.20908e-21)
(-2.71244 -0.675065 0)
(-2.23422 -0.667275 -7.39077e-21)
(-1.75908 -0.657073 -9.13797e-21)
(-1.28815 -0.645479 5.04485e-21)
(-0.822089 -0.632438 0)
(-0.360526 -0.618012 1.74577e-21)
(0.0935618 -0.603481 0)
(0.539428 -0.587458 2.24341e-21)
(0.978226 -0.569723 -9.84606e-22)
(1.40736 -0.550255 -8.31296e-22)
(1.82526 -0.528855 0)
(2.23039 -0.505346 -1.7184e-21)
(2.62087 -0.479541 1.1069e-21)
(2.99439 -0.451086 5.00023e-22)
(3.34841 -0.419281 0)
(3.68051 -0.383209 5.65522e-22)
(3.98761 -0.342448 1.93785e-21)
(4.26528 -0.298122 0)
(4.50972 -0.253299 1.601e-21)
(4.72222 -0.211666 1.75941e-21)
(4.91027 -0.174503 1.91369e-21)
(5.08258 -0.138947 0)
(5.23807 -0.101166 0)
(5.35975 -0.0607938 0)
(5.4308 -0.0220483 -1.21883e-21)
(5.45008 0.00775244 -1.24244e-21)
(5.43029 0.0220231 0)
(5.39382 0.0207225 -2.64549e-21)
(5.36401 0.0118869 -2.68301e-21)
(5.35762 0.00628987 0)
(5.37756 0.0112683 -2.6927e-21)
(5.41217 0.0268936 -5.40034e-21)
(5.44186 0.0466764 2.6771e-21)
(5.44877 0.0624359 2.68197e-21)
(5.42428 0.069258 0)
(5.37057 0.0673554 0)
(5.29698 0.0599905 0)
(5.21511 0.050369 2.52908e-21)
(5.13523 0.0403222 -2.47934e-21)
(5.06501 0.0307726 -4.83633e-21)
(5.00942 0.0225224 2.35099e-21)
(4.97097 0.0164175 -2.28558e-21)
(4.94954 0.0131427 -2.20521e-21)
(4.94257 0.0130696 0)
(4.94579 0.0161141 0)
(4.9547 0.0219306 1.97117e-21)
(4.96564 0.0300125 0)
(4.97618 0.0395084 0)
(4.9849 0.0490311 -3.44142e-21)
(4.99105 0.0568459 0)
(4.99431 0.0614166 -1.56538e-21)
(4.99435 0.0622509 1.48264e-21)
(4.99073 0.0601998 0)
(4.98276 0.0567244 -1.31934e-21)
(4.96952 0.0530506 0)
(4.95016 0.0497925 0)
(4.92459 0.0469502 1.06021e-21)
(4.89384 0.044259 -1.94277e-21)
(4.85976 0.0414058 8.84054e-22)
(4.82445 0.0381081 0)
(4.78968 0.0343071 0)
(4.75681 0.0301577 -6.15155e-22)
(4.72664 0.0259828 0)
(4.69972 0.022097 -4.32925e-22)
(4.67613 0.0188018 0)
(4.65597 0.0161748 0)
(4.63885 0.0143971 0)
(4.62456 0.0132464 -6.03723e-23)
(4.6124 0.0130496 0)
(4.6017 0.0131542 -1.30862e-22)
(4.59188 0.0146124 0)
(4.58081 0.015657 0)
(4.56987 0.0194569 8.48255e-22)
(4.55198 0.0212977 -1.05148e-21)
(4.53696 0.0299191 0)
(4.50029 0.0320836 0)
(4.4819 0.0519508 0)
(4.39854 0.0533348 5.82165e-21)
(4.39034 0.10239 0)
(4.18604 0.102509 -4.8059e-21)
(0.0482903 0.573845 3.63921e-23)
(0.129689 0.374788 3.17676e-20)
(0.734203 -0.709219 0)
(1.56505 -1.90359 -3.13436e-20)
(2.38657 -2.76659 0)
(3.10595 -3.24265 0)
(3.70323 -3.40075 -8.27577e-22)
(4.19152 -3.33433 1.5353e-20)
(4.59335 -3.12694 1.65932e-20)
(4.92808 -2.84197 1.57409e-20)
(5.21165 -2.52046 0)
(5.45607 -2.18617 0)
(5.66843 -1.85101 -1.76755e-20)
(5.85182 -1.51987 -3.57759e-20)
(6.00674 -1.19375 3.61067e-20)
(6.13102 -0.871246 0)
(6.22323 -0.551378 3.63981e-20)
(6.27906 -0.231257 -1.71198e-20)
(6.30207 0.088147 0)
(6.29335 0.412463 3.56392e-20)
(6.2605 0.745954 1.64596e-20)
(6.19405 1.09589 -3.44139e-20)
(6.10749 1.46377 -1.56349e-20)
(5.97438 1.85633 0)
(5.81597 2.26393 3.18568e-20)
(5.57191 2.68126 3.09079e-20)
(5.27513 3.07339 0)
(4.82753 3.39845 2.91096e-20)
(4.26475 3.61643 0)
(3.46463 3.61735 2.79305e-20)
(2.3644 3.23931 1.32028e-20)
(1.40608 2.72657 0)
(0.619546 2.24728 0)
(0.343818 1.38479 0)
(-0.0545643 0.173565 0)
(-0.0341193 -1.29255 0)
(-0.032096 -2.75089 0)
(0.63172 -4.53721 2.63566e-20)
(0.748771 -4.32026 -3.98307e-20)
(0.462316 -2.7944 0)
(0.206008 -1.20821 0)
(-1.05853 -0.186446 0)
(-0.733123 1.22908 -2.32673e-22)
(-2.55768 1.96895 2.56243e-20)
(-4.02188 2.90945 5.12671e-20)
(-5.24221 3.62076 -4.95427e-20)
(-6.50384 3.88969 -2.50954e-20)
(-7.32339 3.96841 2.43837e-20)
(-7.99106 4.05965 1.2506e-21)
(-8.43113 3.92978 2.59284e-20)
(-8.79102 3.66939 0)
(-9.1193 3.35068 2.71586e-20)
(-9.417 3.00138 2.4199e-21)
(-9.72399 2.65021 0)
(-10.0146 2.31178 0)
(-10.3055 1.98935 -3.15686e-20)
(-10.5769 1.69388 0)
(-10.8338 1.42496 0)
(-11.0674 1.18597 3.6204e-20)
(-11.2793 0.972908 7.24204e-20)
(-11.4653 0.782716 -3.63384e-20)
(-11.6239 0.610624 0)
(-11.7517 0.453757 3.79463e-20)
(-11.8466 0.308953 0)
(-11.9079 0.173445 4.01515e-20)
(-11.9351 0.045249 3.90423e-20)
(-11.928 -0.0758178 -7.92988e-20)
(-11.8859 -0.188773 -4.00321e-20)
(-11.8101 -0.293691 0)
(-11.7021 -0.390158 7.69987e-20)
(-11.5638 -0.477745 0)
(-11.3978 -0.555991 1.10384e-19)
(-11.2066 -0.624143 7.19691e-20)
(-10.9933 -0.681654 6.98516e-20)
(-10.7614 -0.728155 -6.75881e-20)
(-10.5146 -0.763388 9.75654e-20)
(-10.2568 -0.78764 0)
(-9.99164 -0.801413 0)
(-9.72285 -0.805653 -5.7952e-20)
(-9.45359 -0.801769 -8.32318e-20)
(-9.18649 -0.791488 0)
(-8.92337 -0.776924 2.54e-20)
(-8.66526 -0.760414 0)
(-8.41216 -0.744427 -6.99914e-20)
(-8.16311 -0.731452 2.74043e-22)
(-7.91614 -0.723857 -3.1637e-22)
(-7.66826 -0.723772 4.06075e-20)
(-7.41567 -0.732878 0)
(-7.15387 -0.752198 -3.64165e-20)
(-6.87794 -0.781875 4.96877e-22)
(-6.58312 -0.820938 0)
(-6.26537 -0.867266 0)
(-5.92178 -0.917802 0)
(-5.55119 -0.968749 2.40136e-20)
(-5.15459 -1.016 0)
(-4.73482 -1.05601 0)
(-4.296 -1.08629 0)
(-3.84331 -1.10546 0)
(-3.382 -1.11374 0)
(-2.91663 -1.11266 1.0675e-20)
(-2.45119 -1.10404 0)
(-1.98852 -1.08968 7.38837e-21)
(-1.53014 -1.07166 6.12327e-21)
(-1.07646 -1.05183 -5.04306e-21)
(-0.627153 -1.02991 0)
(-0.182216 -1.00671 -3.37079e-21)
(0.257412 -0.98355 0)
(0.691706 -0.957102 -2.24159e-21)
(1.12 -0.928155 1.84304e-21)
(1.53932 -0.896441 5.01999e-21)
(1.94685 -0.861805 0)
(2.34069 -0.823823 3.90121e-21)
(2.72011 -0.781718 1.43758e-21)
(3.08417 -0.734937 0)
(3.42993 -0.683457 2.51786e-21)
(3.75325 -0.626859 2.63818e-21)
(4.05053 -0.563771 -4.13919e-21)
(4.31733 -0.4945 0)
(4.54605 -0.424985 -1.60051e-21)
(4.73171 -0.365159 -1.75901e-21)
(4.88436 -0.320149 -5.86029e-21)
(5.03229 -0.281831 0)
(5.20398 -0.230441 0)
(5.39683 -0.152099 0)
(5.56549 -0.0581418 -2.4967e-21)
(5.6559 0.0208365 0)
(5.65336 0.0615298 0)
(5.59105 0.0623754 2.64471e-21)
(5.51955 0.0375838 2.68239e-21)
(5.47666 0.00709717 0)
(5.47637 -0.0107928 0)
(5.51091 -0.00606608 5.39984e-21)
(5.56005 0.0192429 0)
(5.60161 0.0551371 -5.34343e-21)
(5.618 0.0893194 -5.32222e-21)
(5.59926 0.112888 0)
(5.54488 0.122383 0)
(5.46357 0.118867 5.07511e-21)
(5.36963 0.1058 -1.19387e-23)
(5.27747 0.0872233 -1.02772e-23)
(5.19762 0.0669078 0)
(5.13541 0.0480368 9.13877e-21)
(5.09164 0.0329386 0)
(5.06424 0.0229449 0)
(5.04984 0.0185459 0)
(5.04498 0.0195025 -3.93342e-21)
(5.04682 0.0248844 0)
(5.05341 0.0330135 7.22769e-21)
(5.06361 0.0415769 3.44114e-21)
(5.07667 0.0481433 0)
(5.09198 0.0509612 3.12516e-21)
(5.10918 0.0500119 0)
(5.12789 0.0470456 0)
(5.14709 0.0444451 7.91514e-21)
(5.16459 0.0438874 -4.93341e-21)
(5.17735 0.0456092 0)
(5.18253 0.0486162 -4.23503e-21)
(5.17854 0.0513562 1.9422e-21)
(5.1657 0.0524706 0)
(5.14587 0.051308 0)
(5.12173 0.0480181 0)
(5.09584 0.0432649 3.69143e-21)
(5.07024 0.0378893 0)
(5.04613 0.0325288 8.68004e-22)
(5.02428 0.0276753 0)
(5.00486 0.0234169 0)
(4.98827 0.0200018 0)
(4.97423 0.017157 0)
(4.96339 0.0154346 0)
(4.95472 0.0141245 0)
(4.94947 0.0147394 -8.98632e-22)
(4.94467 0.0152767 0)
(4.94337 0.0195821 -8.47977e-22)
(4.93829 0.022322 3.13283e-21)
(4.93787 0.0330671 0)
(4.92535 0.0381397 0)
(4.92353 0.0616824 -3.34487e-21)
(4.89325 0.0702418 -3.85973e-21)
(4.8922 0.122863 4.23021e-21)
(4.83242 0.143532 4.8033e-21)
(-0.213031 0.360491 -4.81421e-20)
(0.551042 -1.00037 -4.7811e-20)
(1.62929 -2.84232 -3.19983e-20)
(2.54156 -3.9738 -1.66653e-20)
(3.20184 -4.42801 0)
(3.62914 -4.42066 3.34831e-20)
(3.88865 -4.15107 -1.80159e-20)
(4.05152 -3.76192 0)
(4.17335 -3.34056 -1.66051e-20)
(4.28731 -2.92917 0)
(4.40809 -2.5408 3.64196e-20)
(4.53776 -2.17366 0)
(4.67072 -1.82061 1.77177e-20)
(4.79869 -1.47493 3.58685e-20)
(4.91165 -1.1321 -3.62064e-20)
(5.00232 -0.790566 0)
(5.06324 -0.449409 -3.65101e-20)
(5.09027 -0.108604 0)
(5.08215 0.23437 0)
(5.04809 0.580245 -3.57301e-20)
(4.99964 0.928983 0)
(4.9472 1.28526 -1.92048e-21)
(4.90484 1.65634 0)
(4.88006 2.05627 0)
(4.88014 2.49364 2.19703e-21)
(4.89497 2.97079 -3.0945e-20)
(4.90294 3.47208 -3.23279e-20)
(4.87707 3.96011 -2.90846e-20)
(4.74794 4.37484 0)
(4.5359 4.66318 -5.73878e-20)
(4.07484 4.67692 0)
(3.47162 4.27823 -2.8236e-20)
(2.75917 3.53041 0)
(2.22656 2.40967 0)
(1.65789 0.914871 2.65122e-20)
(1.23021 -0.880936 0)
(0.783679 -2.75686 -2.43226e-20)
(0.588436 -4.32559 -2.61956e-21)
(-0.598909 -3.20832 5.11494e-20)
(-1.75595 -0.767505 -5.04163e-20)
(-2.99606 1.09265 0)
(-4.04004 2.03195 0)
(-4.64591 3.21383 -2.55729e-20)
(-5.82837 3.90174 0)
(-6.53407 4.42866 -2.56721e-20)
(-7.25341 4.72263 2.52534e-20)
(-7.67023 4.72131 2.49949e-20)
(-7.95263 4.6351 0)
(-8.181 4.48714 -2.55545e-20)
(-8.32205 4.25848 -2.59202e-20)
(-8.49861 3.98183 5.67294e-20)
(-8.65746 3.67179 -2.71685e-20)
(-8.85181 3.34695 -2.80864e-20)
(-9.06016 3.0126 0)
(-9.28457 2.67649 0)
(-9.50917 2.34229 3.16014e-20)
(-9.72784 2.02206 0)
(-9.93663 1.7228 0)
(-10.1379 1.45182 -7.04106e-20)
(-10.3314 1.20786 -7.25245e-20)
(-10.5146 0.987095 0)
(-10.6803 0.783492 0)
(-10.8224 0.592149 0)
(-10.9362 0.409207 0)
(-11.0183 0.233397 -7.91329e-20)
(-11.0645 0.0654021 8.10621e-20)
(-11.0723 -0.0939427 7.94199e-20)
(-11.0422 -0.245222 1.59506e-19)
(-10.9758 -0.388114 0)
(-10.8739 -0.521443 1.41009e-21)
(-10.7387 -0.643913 0)
(-10.5725 -0.753804 -7.39777e-20)
(-10.3788 -0.849647 1.09925e-21)
(-10.1614 -0.930237 -6.9924e-20)
(-9.92478 -0.994813 6.76561e-20)
(-9.67383 -1.04313 7.14703e-22)
(-9.41337 -1.07547 0)
(-9.14822 -1.0927 6.09198e-20)
(-8.88292 -1.0963 5.80065e-20)
(-8.62142 -1.08836 1.11596e-19)
(-8.36683 -1.0716 0)
(-8.1212 -1.04916 -5.13414e-20)
(-7.88548 -1.0245 0)
(-7.65933 -1.00129 9.38608e-20)
(-7.44115 -0.983099 -4.47146e-20)
(-7.22806 -0.973277 4.26748e-20)
(-7.01602 -0.974826 -4.06339e-20)
(-6.79998 -0.990159 -7.821e-20)
(-6.57416 -1.02077 3.64347e-20)
(-6.33228 -1.06686 -3.42243e-20)
(-6.0682 -1.12691 0)
(-5.77689 -1.19762 6.03919e-20)
(-5.45495 -1.27413 0)
(-5.10131 -1.35043 5.01185e-20)
(-4.71795 -1.42006 -4.48319e-20)
(-4.30954 -1.47754 -3.96098e-20)
(-3.88224 -1.51941 3.45853e-20)
(-3.44327 -1.54412 2.98751e-20)
(-2.99946 -1.55251 0)
(-2.5561 -1.54736 1.10383e-20)
(-2.11769 -1.53172 0)
(-1.68675 -1.50872 0)
(-1.26366 -1.48216 1.29278e-20)
(-0.847537 -1.45426 0)
(-0.436442 -1.42475 0)
(-0.0291104 -1.39574 7.63166e-21)
(0.376881 -1.36566 0)
(0.78421 -1.3322 0)
(1.1936 -1.29411 0)
(1.6032 -1.25036 -7.50382e-21)
(2.00801 -1.20143 0)