/*--------------------------------*- C++ -*----------------------------------*\
  =========                 |
  \\      /  F ield         | OpenFOAM: The Open Source CFD Toolbox
   \\    /   O peration     | Website:  https://openfoam.org
    \\  /    A nd           | Version:  9
     \\/     M anipulation  |
\*---------------------------------------------------------------------------*/
FoamFile
{
    format      ascii;
    class       volSymmTensorField;
    location    "0.039";
    object      UPrime2Mean;
}
// * * * * * * * * * * * * * * * * * * * * * * * * * * * * * * * * * * * * * //

dimensions      [0 2 -2 0 0 0 0];

internalField   nonuniform List<symmTensor> 
12225
(
(-48.403 -0.21868 0 0.00106644 0 0)
(-45.4809 -0.294194 0 -0.000935889 0 0)
(-42.5894 -0.279173 0 -0.0011493 0 0)
(-39.7285 -0.267926 0 -0.00126385 0 0)
(-36.9689 -0.258932 0 -0.00134559 0 0)
(-34.3633 -0.247473 0 -0.0013672 0 0)
(-31.8975 -0.236621 0 -0.0013763 0 0)
(-29.5611 -0.227025 0 -0.00139094 0 0)
(-27.2997 -0.221467 0 -0.00143155 0 0)
(-25.1293 -0.215474 0 -0.00149346 0 0)
(-22.9744 -0.215818 0 -0.00159384 0 0)
(-20.8936 -0.213986 0 -0.00176624 0 0)
(-18.7291 -0.229859 0 -0.00199563 0 0)
(-16.5849 -0.239185 0 -0.00244373 0 0)
(-14.1689 -0.291525 0 -0.00283399 0 0)
(-11.6386 -0.319003 0 -0.00371923 0 0)
(-8.57522 -0.451224 0 -0.00382398 0 0)
(-4.97895 -0.52117 0 -0.00716073 0 0)
(-50.4243 -0.264729 0 0.00125943 0 0)
(-50.9206 -0.382663 0 -0.00156498 0 0)
(-51.2301 -0.381834 0 -0.00199287 0 0)
(-51.2883 -0.395355 0 -0.00236102 0 0)
(-51.143 -0.419148 0 -0.00283475 0 0)
(-50.8597 -0.442855 0 -0.00329729 0 0)
(-50.4577 -0.464616 0 -0.00373752 0 0)
(-49.953 -0.490797 0 -0.00423866 0 0)
(-49.325 -0.518971 0 -0.0048105 0 0)
(-48.5865 -0.555781 0 -0.00549736 0 0)
(-47.6927 -0.59433 0 -0.00631884 0 0)
(-46.6715 -0.650073 0 -0.00737037 0 0)
(-45.4377 -0.715837 0 -0.00887144 0 0)
(-44.03 -0.821966 0 -0.0108227 0 0)
(-42.2922 -0.962844 0 -0.0140366 0 0)
(-40.2394 -1.18467 0 -0.0176627 0 0)
(-37.6684 -1.50178 0 -0.0252269 0 0)
(-34.4303 -1.97244 0 -0.0326011 0 0)
(-49.9127 -0.193013 0 0.0026188 0 0)
(-50.1796 -0.2901 0 0.000109844 0 0)
(-50.3935 -0.316003 0 -0.000755811 0 0)
(-50.4922 -0.340358 0 -0.00123559 0 0)
(-50.5057 -0.374392 0 -0.00177144 0 0)
(-50.4736 -0.408368 0 -0.00233372 0 0)
(-50.4034 -0.441243 0 -0.00290349 0 0)
(-50.2935 -0.477 0 -0.00353611 0 0)
(-50.1341 -0.521093 0 -0.00425686 0 0)
(-49.9195 -0.573993 0 -0.00517777 0 0)
(-49.6336 -0.64139 0 -0.00626526 0 0)
(-49.2631 -0.72385 0 -0.00780213 0 0)
(-48.7957 -0.838939 0 -0.0096843 0 0)
(-48.2095 -0.991067 0 -0.012637 0 0)
(-47.5176 -1.21803 0 -0.016287 0 0)
(-46.6722 -1.52971 0 -0.0221278 0 0)
(-45.7738 -1.99042 0 -0.0300748 0 0)
(-44.7287 -2.61816 0 -0.0419305 0 0)
(-50.1626 -0.160136 0 0.00259448 0 0)
(-50.3483 -0.285532 0 0.000187683 0 0)
(-50.4772 -0.330819 0 -0.000878641 0 0)
(-50.5195 -0.356121 0 -0.00140316 0 0)
(-50.4971 -0.390793 0 -0.00198814 0 0)
(-50.4342 -0.431617 0 -0.00265544 0 0)
(-50.3326 -0.473096 0 -0.00334407 0 0)
(-50.1875 -0.518405 0 -0.00408579 0 0)
(-49.9989 -0.570206 0 -0.00495265 0 0)
(-49.7669 -0.633758 0 -0.00601468 0 0)
(-49.4886 -0.711374 0 -0.00737295 0 0)
(-49.1548 -0.811942 0 -0.00912862 0 0)
(-48.7586 -0.943667 0 -0.0115052 0 0)
(-48.2937 -1.12326 0 -0.0146805 0 0)
(-47.7692 -1.36893 0 -0.0190527 0 0)
(-47.2091 -1.70906 0 -0.0250441 0 0)
(-46.6661 -2.16725 0 -0.0331284 0 0)
(-46.2378 -2.76778 0 -0.0441659 0 0)
(-49.9952 -0.149719 0 0.00381509 0 0)
(-50.1774 -0.287883 0 0.000782686 0 0)
(-50.2993 -0.341175 0 -0.000715274 0 0)
(-50.3509 -0.368166 0 -0.00130865 0 0)
(-50.3433 -0.402205 0 -0.00185306 0 0)
(-50.2933 -0.445637 0 -0.00251361 0 0)
(-50.2055 -0.493783 0 -0.00324776 0 0)
(-50.079 -0.546324 0 -0.00406077 0 0)
(-49.9111 -0.606458 0 -0.00498862 0 0)
(-49.7004 -0.678244 0 -0.00613782 0 0)
(-49.4403 -0.766901 0 -0.00757882 0 0)
(-49.1275 -0.879896 0 -0.00948008 0 0)
(-48.7554 -1.02705 0 -0.0119452 0 0)
(-48.3327 -1.22318 0 -0.0152395 0 0)
(-47.8658 -1.48301 0 -0.0195525 0 0)
(-47.3997 -1.83063 0 -0.0251322 0 0)
(-46.9654 -2.27096 0 -0.032119 0 0)
(-46.6622 -2.82158 0 -0.0395337 0 0)
(-49.9849 -0.0898807 0 0.0047781 0 0)
(-50.0807 -0.241773 0 0.00154979 0 0)
(-50.2041 -0.308238 0 -0.000106333 0 0)
(-50.2831 -0.345904 0 -0.000876433 0 0)
(-50.2845 -0.38695 0 -0.00156976 0 0)
(-50.2256 -0.438565 0 -0.00235495 0 0)
(-50.127 -0.496669 0 -0.00322713 0 0)
(-49.997 -0.559753 0 -0.0041825 0 0)
(-49.8329 -0.630266 0 -0.00526663 0 0)
(-49.6308 -0.713782 0 -0.006578 0 0)
(-49.384 -0.815966 0 -0.00820232 0 0)
(-49.0944 -0.944997 0 -0.0102718 0 0)
(-48.76 -1.10874 0 -0.0128852 0 0)
(-48.3973 -1.32027 0 -0.0162493 0 0)
(-48.0142 -1.58919 0 -0.0204295 0 0)
(-47.6556 -1.93296 0 -0.0256166 0 0)
(-47.3404 -2.34993 0 -0.0313951 0 0)
(-47.1529 -2.85125 0 -0.0369657 0 0)
(-49.5885 -0.13095 0 0.00438025 0 0)
(-49.6472 -0.249011 0 0.00194797 0 0)
(-49.7235 -0.320588 0 0.00023487 0 0)
(-49.7727 -0.367969 0 -0.000695793 0 0)
(-49.7653 -0.41515 0 -0.00142814 0 0)
(-49.7085 -0.470415 0 -0.00222379 0 0)
(-49.6142 -0.532607 0 -0.00311701 0 0)
(-49.4873 -0.601671 0 -0.00410572 0 0)
(-49.3247 -0.680016 0 -0.00522572 0 0)
(-49.1248 -0.772666 0 -0.00656251 0 0)
(-48.8856 -0.884363 0 -0.0082067 0 0)
(-48.6149 -1.02285 0 -0.0102861 0 0)
(-48.3169 -1.19474 0 -0.0128961 0 0)
(-48.0109 -1.41218 0 -0.0161813 0 0)
(-47.7059 -1.68142 0 -0.0201423 0 0)
(-47.4413 -2.01593 0 -0.0247677 0 0)
(-47.231 -2.41002 0 -0.0294687 0 0)
(-47.1432 -2.87131 0 -0.033581 0 0)
(-50.0547 -0.0739468 0 0.00530392 0 0)
(-50.1228 -0.203734 0 0.00265484 0 0)
(-50.1991 -0.291152 0 0.000765767 0 0)
(-50.246 -0.349562 0 -0.000274073 0 0)
(-50.2395 -0.403026 0 -0.00106574 0 0)
(-50.183 -0.465098 0 -0.00186895 0 0)
(-50.0888 -0.537126 0 -0.00280052 0 0)
(-49.9661 -0.617709 0 -0.00388598 0 0)
(-49.8162 -0.707709 0 -0.00513288 0 0)
(-49.637 -0.811755 0 -0.00659427 0 0)
(-49.425 -0.934781 0 -0.0083419 0 0)
(-49.1833 -1.08404 0 -0.010486 0 0)
(-48.9172 -1.26502 0 -0.0130969 0 0)
(-48.6434 -1.48739 0 -0.0162703 0 0)
(-48.3772 -1.7547 0 -0.0199392 0 0)
(-48.1515 -2.07653 0 -0.0239872 0 0)
(-47.9872 -2.44555 0 -0.02785 0 0)
(-47.9316 -2.86675 0 -0.0309074 0 0)
(-49.6639 -0.100095 0 0.00505446 0 0)
(-49.6507 -0.213711 0 0.00248741 0 0)
(-49.6573 -0.300683 0 0.000811662 0 0)
(-49.6677 -0.367934 0 -0.000235246 0 0)
(-49.6518 -0.43018 0 -0.00108537 0 0)
(-49.6097 -0.496976 0 -0.00195261 0 0)
(-49.5482 -0.571695 0 -0.00292318 0 0)
(-49.47 -0.655888 0 -0.00402247 0 0)
(-49.3719 -0.751741 0 -0.0052631 0 0)
(-49.2494 -0.86366 0 -0.00669616 0 0)
(-49.098 -0.995609 0 -0.00838668 0 0)
(-48.9213 -1.15335 0 -0.0104286 0 0)
(-48.7245 -1.34068 0 -0.0128701 0 0)
(-48.5259 -1.56489 0 -0.0157607 0 0)
(-48.3393 -1.82725 0 -0.0189973 0 0)
(-48.1974 -2.13447 0 -0.0224183 0 0)
(-48.1132 -2.47799 0 -0.0254976 0 0)
(-48.132 -2.86156 0 -0.0277049 0 0)
(-49.7143 -0.0903658 0 0.00554322 0 0)
(-49.7316 -0.189627 0 0.00347926 0 0)
(-49.7661 -0.286642 0 0.00165087 0 0)
(-49.7957 -0.35933 0 0.000529576 0 0)
(-49.7995 -0.421605 0 -0.000341552 0 0)
(-49.7731 -0.488897 0 -0.00124442 0 0)
(-49.7205 -0.567166 0 -0.00226311 0 0)
(-49.646 -0.65803 0 -0.0034072 0 0)
(-49.5522 -0.762453 0 -0.00468048 0 0)
(-49.441 -0.883691 0 -0.00612478 0 0)
(-49.3138 -1.02488 0 -0.0077854 0 0)
(-49.1766 -1.19063 0 -0.00971901 0 0)
(-49.0353 -1.38299 0 -0.0119345 0 0)
(-48.9046 -1.6068 0 -0.0144717 0 0)
(-48.7946 -1.86098 0 -0.0172317 0 0)
(-48.7297 -2.15031 0 -0.020087 0 0)
(-48.719 -2.4655 0 -0.0225744 0 0)
(-48.7949 -2.8107 0 -0.0243136 0 0)
(-49.5608 -0.0975612 0 0.00523967 0 0)
(-49.6061 -0.189227 0 0.00329928 0 0)
(-49.6412 -0.283004 0 0.00149518 0 0)
(-49.6657 -0.366506 0 0.000190185 0 0)
(-49.6703 -0.441762 0 -0.000774833 0 0)
(-49.6458 -0.518018 0 -0.00159874 0 0)
(-49.5904 -0.60198 0 -0.00248966 0 0)
(-49.5101 -0.6974 0 -0.00354069 0 0)
(-49.4114 -0.806143 0 -0.00475776 0 0)
(-49.3001 -0.93078 0 -0.00614063 0 0)
(-49.1793 -1.07344 0 -0.00769969 0 0)
(-49.0576 -1.23817 0 -0.00948607 0 0)
(-48.9414 -1.42669 0 -0.0114999 0 0)
(-48.8466 -1.64328 0 -0.0137398 0 0)
(-48.7792 -1.88574 0 -0.0160649 0 0)
(-48.7617 -2.15737 0 -0.0183158 0 0)
(-48.7943 -2.44825 0 -0.0200668 0 0)
(-48.908 -2.76166 0 -0.0210409 0 0)
(-50.1662 -0.0795282 0 0.00590034 0 0)
(-50.2403 -0.193857 0 0.00365329 0 0)
(-50.2596 -0.274408 0 0.00160463 0 0)
(-50.2528 -0.352443 0 0.000398016 0 0)
(-50.2388 -0.431961 0 -0.000522973 0 0)
(-50.2123 -0.513971 0 -0.0013793 0 0)
(-50.1643 -0.603056 0 -0.00230695 0 0)
(-50.0958 -0.704018 0 -0.00336301 0 0)
(-50.0153 -0.819313 0 -0.00454694 0 0)
(-49.9294 -0.950888 0 -0.00584407 0 0)
(-49.8414 -1.09949 0 -0.00724035 0 0)
(-49.7535 -1.2677 0 -0.00876517 0 0)
(-49.6715 -1.45571 0 -0.0104196 0 0)
(-49.602 -1.66667 0 -0.0122052 0 0)
(-49.5583 -1.89764 0 -0.0140004 0 0)
(-49.5477 -2.15133 0 -0.0156799 0 0)
(-49.5898 -2.41816 0 -0.0168509 0 0)
(-49.6826 -2.70149 0 -0.0173968 0 0)
(-50.2546 -0.0457809 0 0.00757295 0 0)
(-50.2303 -0.178801 0 0.00534937 0 0)
(-50.2303 -0.279658 0 0.00233096 0 0)
(-50.2586 -0.368818 0 0.000806297 0 0)
(-50.2827 -0.454023 0 -8.40599e-05 0 0)
(-50.2819 -0.540911 0 -0.000848755 0 0)
(-50.2516 -0.634922 0 -0.00170833 0 0)
(-50.2012 -0.739287 0 -0.00272155 0 0)
(-50.146 -0.855058 0 -0.00386199 0 0)
(-50.0967 -0.984171 0 -0.00511014 0 0)
(-50.0569 -1.1287 0 -0.00645302 0 0)
(-50.0254 -1.29197 0 -0.00788383 0 0)
(-50.0032 -1.47451 0 -0.00935026 0 0)
(-49.9933 -1.67799 0 -0.0108111 0 0)
(-50.0047 -1.89881 0 -0.0121293 0 0)
(-50.0451 -2.13773 0 -0.0131859 0 0)
(-50.1278 -2.38573 0 -0.0136779 0 0)
(-50.2573 -2.64524 0 -0.0135233 0 0)
(-50.395 -0.116969 0 0.0088699 0 0)
(-50.3447 -0.174612 0 0.00644548 0 0)
(-50.3315 -0.260083 0 0.00395938 0 0)
(-50.3616 -0.347756 0 0.00250539 0 0)
(-50.3984 -0.434658 0 0.00151727 0 0)
(-50.4218 -0.525783 0 0.000681268 0 0)
(-50.4299 -0.624222 0 -0.000229165 0 0)
(-50.4285 -0.731172 0 -0.00127908 0 0)
(-50.425 -0.847842 0 -0.00243796 0 0)
(-50.4243 -0.977594 0 -0.00364604 0 0)
(-50.4289 -1.12347 0 -0.00482783 0 0)
(-50.4408 -1.28818 0 -0.00595367 0 0)
(-50.463 -1.47058 0 -0.00698359 0 0)
(-50.5005 -1.67011 0 -0.00787716 0 0)
(-50.5589 -1.88136 0 -0.00853941 0 0)
(-50.6458 -2.10426 0 -0.00889903 0 0)
(-50.7658 -2.32985 0 -0.00873906 0 0)
(-50.9276 -2.56189 0 -0.0080866 0 0)
(-50.0346 -0.0750465 0 0.00848904 0 0)
(-50.0703 -0.167359 0 0.00663606 0 0)
(-50.1005 -0.261785 0 0.00418504 0 0)
(-50.1339 -0.351646 0 0.00285491 0 0)
(-50.1695 -0.439671 0 0.00198844 0 0)
(-50.2018 -0.532396 0 0.00121926 0 0)
(-50.2264 -0.632863 0 0.000411271 0 0)
(-50.2431 -0.741496 0 -0.000467009 0 0)
(-50.2548 -0.858382 0 -0.00141694 0 0)
(-50.2679 -0.98542 0 -0.00242958 0 0)
(-50.2873 -1.12462 0 -0.00345414 0 0)
(-50.3225 -1.27881 0 -0.00442547 0 0)
(-50.3772 -1.4476 0 -0.00526399 0 0)
(-50.461 -1.63159 0 -0.00591462 0 0)
(-50.5704 -1.8256 0 -0.00626768 0 0)
(-50.7171 -2.02969 0 -0.00622874 0 0)
(-50.8874 -2.234 0 -0.00559195 0 0)
(-51.1047 -2.44286 0 -0.00438326 0 0)
(-49.8754 -0.0742712 0 0.00965124 0 0)
(-49.8678 -0.160685 0 0.00812674 0 0)
(-49.8779 -0.23647 0 0.00568237 0 0)
(-49.9134 -0.317705 0 0.00425173 0 0)
(-49.9622 -0.406043 0 0.0033611 0 0)
(-50.0137 -0.502114 0 0.00262606 0 0)
(-50.0628 -0.605773 0 0.00185547 0 0)
(-50.1105 -0.716754 0 0.00104853 0 0)
(-50.1589 -0.835121 0 0.000271024 0 0)
(-50.2102 -0.962053 0 -0.000421281 0 0)
(-50.2653 -1.09799 0 -0.000990783 0 0)
(-50.3298 -1.2443 0 -0.00142898 0 0)
(-50.4069 -1.39961 0 -0.0016953 0 0)
(-50.5064 -1.56466 0 -0.00175792 0 0)
(-50.628 -1.73476 0 -0.00154762 0 0)
(-50.7837 -1.91131 0 -0.000968888 0 0)
(-50.9631 -2.08532 0 0.000128252 0 0)
(-51.1837 -2.26246 0 0.00166148 0 0)
(-49.7904 -0.0866014 0 0.0104614 0 0)
(-49.8319 -0.151453 0 0.00871282 0 0)
(-49.8692 -0.232067 0 0.00560054 0 0)
(-49.9079 -0.316742 0 0.00417477 0 0)
(-49.9518 -0.401814 0 0.00360251 0 0)
(-50.0048 -0.488913 0 0.00323443 0 0)
(-50.0652 -0.58176 0 0.00275613 0 0)
(-50.1321 -0.683229 0 0.00216148 0 0)
(-50.2058 -0.793912 0 0.0015884 0 0)
(-50.2881 -0.913854 0 0.00115717 0 0)
(-50.3795 -1.04194 0 0.000924943 0 0)
(-50.4842 -1.17808 0 0.000887027 0 0)
(-50.6035 -1.31984 0 0.0010504 0 0)
(-50.7427 -1.46713 0 0.00143274 0 0)
(-50.9005 -1.61537 0 0.0020771 0 0)
(-51.0826 -1.76617 0 0.00304034 0 0)
(-51.2822 -1.91215 0 0.00445892 0 0)
(-51.5084 -2.0597 0 0.00622591 0 0)
(-49.8972 -0.0473935 0 0.0126576 0 0)
(-49.9516 -0.100658 0 0.0112216 0 0)
(-50.0136 -0.176353 0 0.00775061 0 0)
(-50.0768 -0.261223 0 0.00619665 0 0)
(-50.1392 -0.346604 0 0.00567803 0 0)
(-50.2053 -0.433457 0 0.00542066 0 0)
(-50.2772 -0.525693 0 0.00512574 0 0)
(-50.3552 -0.625351 0 0.00481009 0 0)
(-50.4397 -0.731529 0 0.00459416 0 0)
(-50.5328 -0.842877 0 0.00457125 0 0)
(-50.637 -0.957552 0 0.00476622 0 0)
(-50.756 -1.07525 0 0.00515184 0 0)
(-50.892 -1.19445 0 0.00571646 0 0)
(-51.0478 -1.31596 0 0.0064805 0 0)
(-51.2222 -1.4372 0 0.00746915 0 0)
(-51.4173 -1.56011 0 0.00877703 0 0)
(-51.6277 -1.67918 0 0.0104752 0 0)
(-51.8574 -1.79947 0 0.012495 0 0)
(-49.9189 -0.0199763 0 0.0105994 0 0)
(-49.9807 -0.103064 0 0.0107979 0 0)
(-50.0495 -0.178764 0 0.00858089 0 0)
(-50.106 -0.247988 0 0.00707741 0 0)
(-50.16 -0.316659 0 0.00623692 0 0)
(-50.2287 -0.389159 0 0.00578618 0 0)
(-50.3164 -0.467152 0 0.00561391 0 0)
(-50.4206 -0.551366 0 0.00563286 0 0)
(-50.5397 -0.641146 0 0.00576672 0 0)
(-50.6738 -0.735291 0 0.00598973 0 0)
(-50.8223 -0.831557 0 0.00631863 0 0)
(-50.985 -0.928779 0 0.00677129 0 0)
(-51.1615 -1.02493 0 0.00735491 0 0)
(-51.3525 -1.12063 0 0.00808201 0 0)
(-51.5563 -1.21387 0 0.00896986 0 0)
(-51.7738 -1.30743 0 0.0101087 0 0)
(-52.0006 -1.39715 0 0.0115475 0 0)
(-52.2395 -1.4889 0 0.0132698 0 0)
(-49.9005 0.0453032 0 0.0115206 0 0)
(-49.9117 -0.040966 0 0.0116 0 0)
(-49.9564 -0.11445 0 0.00810888 0 0)
(-50.0418 -0.180575 0 0.00601542 0 0)
(-50.1535 -0.244887 0 0.00519332 0 0)
(-50.2748 -0.307711 0 0.0050961 0 0)
(-50.4 -0.370449 0 0.00533287 0 0)
(-50.531 -0.436535 0 0.00568698 0 0)
(-50.6705 -0.507555 0 0.00606326 0 0)
(-50.8217 -0.582517 0 0.00645971 0 0)
(-50.9863 -0.658686 0 0.0069237 0 0)
(-51.1645 -0.734546 0 0.0074859 0 0)
(-51.3546 -0.808645 0 0.00815485 0 0)
(-51.5552 -0.882031 0 0.00894264 0 0)
(-51.7646 -0.953844 0 0.00987056 0 0)
(-51.9822 -1.02631 0 0.01101 0 0)
(-52.2065 -1.09641 0 0.0123806 0 0)
(-52.4382 -1.16785 0 0.013921 0 0)
(-50.0548 -0.0232378 0 0.0103901 0 0)
(-50.1108 -0.0526464 0 0.00935789 0 0)
(-50.186 -0.0890668 0 0.0069019 0 0)
(-50.2895 -0.132345 0 0.00575543 0 0)
(-50.4172 -0.179687 0 0.00535103 0 0)
(-50.5635 -0.231137 0 0.00532792 0 0)
(-50.7257 -0.287615 0 0.00549275 0 0)
(-50.9009 -0.34809 0 0.00574973 0 0)
(-51.0866 -0.41029 0 0.00608012 0 0)
(-51.2815 -0.472873 0 0.00650313 0 0)
(-51.4849 -0.534983 0 0.00702664 0 0)
(-51.6954 -0.596905 0 0.00764472 0 0)
(-51.9121 -0.658134 0 0.00835709 0 0)
(-52.1337 -0.719284 0 0.00917423 0 0)
(-52.3604 -0.779017 0 0.0100843 0 0)
(-52.5911 -0.838525 0 0.0111337 0 0)
(-52.8263 -0.894991 0 0.0123151 0 0)
(-53.0639 -0.951488 0 0.0135927 0 0)
(-50.0123 0.0661951 0 0.0113672 0 0)
(-50.071 0.0272603 0 0.0101857 0 0)
(-50.156 -0.0232947 0 0.00722246 0 0)
(-50.2741 -0.0668751 0 0.00591024 0 0)
(-50.4124 -0.102549 0 0.0054628 0 0)
(-50.559 -0.136737 0 0.00529391 0 0)
(-50.7133 -0.175255 0 0.00534106 0 0)
(-50.8801 -0.220561 0 0.00557972 0 0)
(-51.0629 -0.27149 0 0.00590879 0 0)
(-51.2616 -0.325479 0 0.00628107 0 0)
(-51.4722 -0.379628 0 0.00671523 0 0)
(-51.691 -0.432564 0 0.00722672 0 0)
(-51.9149 -0.483438 0 0.00781401 0 0)
(-52.1438 -0.533128 0 0.00848222 0 0)
(-52.3766 -0.581281 0 0.00921781 0 0)
(-52.6139 -0.629324 0 0.0100681 0 0)
(-52.8532 -0.675347 0 0.0110241 0 0)
(-53.0959 -0.721836 0 0.012032 0 0)
(-49.9502 0.00789649 0 0.0100131 0 0)
(-50.0092 0.0123872 0 0.00792331 0 0)
(-50.1061 -0.00282513 0 0.00556376 0 0)
(-50.2392 -0.0251411 0 0.00453999 0 0)
(-50.3932 -0.0526313 0 0.00427264 0 0)
(-50.5537 -0.0845211 0 0.00441663 0 0)
(-50.7182 -0.11794 0 0.00465087 0 0)
(-50.8924 -0.151899 0 0.00483783 0 0)
(-51.0818 -0.187571 0 0.00500276 0 0)
(-51.2885 -0.226205 0 0.00521812 0 0)
(-51.5106 -0.267601 0 0.00552576 0 0)
(-51.7434 -0.310822 0 0.00594167 0 0)
(-51.9827 -0.35425 0 0.00645995 0 0)
(-52.2256 -0.397344 0 0.00707128 0 0)
(-52.4707 -0.438997 0 0.00774114 0 0)
(-52.717 -0.480002 0 0.00848881 0 0)
(-52.9645 -0.518831 0 0.00929201 0 0)
(-53.2126 -0.55752 0 0.0101212 0 0)
(-50.4372 0.0797863 0 0.00840523 0 0)
(-50.5115 0.0683422 0 0.00550916 0 0)
(-50.6138 0.0623014 0 0.00351887 0 0)
(-50.7366 0.0451779 0 0.0029829 0 0)
(-50.8813 0.0209352 0 0.00297268 0 0)
(-51.0393 -0.00534434 0 0.0031001 0 0)
(-51.2058 -0.0314485 0 0.00323736 0 0)
(-51.3817 -0.0579412 0 0.00337224 0 0)
(-51.5673 -0.0861799 0 0.00353453 0 0)
(-51.7625 -0.116605 0 0.00375468 0 0)
(-51.9669 -0.148593 0 0.00404036 0 0)
(-52.1803 -0.181767 0 0.00439014 0 0)
(-52.4014 -0.215539 0 0.00479834 0 0)
(-52.6292 -0.249813 0 0.00525886 0 0)
(-52.8614 -0.28355 0 0.00575353 0 0)
(-53.0983 -0.317105 0 0.00630061 0 0)
(-53.3365 -0.34884 0 0.00688397 0 0)
(-53.579 -0.380254 0 0.00748302 0 0)
(-49.7196 0.0714073 0 0.00780546 0 0)
(-49.7355 0.0690992 0 0.00579971 0 0)
(-49.8106 0.0748491 0 0.00410611 0 0)
(-49.9407 0.0684511 0 0.00337635 0 0)
(-50.0994 0.0548241 0 0.00314196 0 0)
(-50.2675 0.0397499 0 0.00314033 0 0)
(-50.4443 0.0235445 0 0.00322821 0 0)
(-50.6357 0.00458535 0 0.00333834 0 0)
(-50.8419 -0.0176213 0 0.00346236 0 0)
(-51.0578 -0.0422756 0 0.00361953 0 0)
(-51.2787 -0.0681233 0 0.00383179 0 0)
(-51.5028 -0.0947762 0 0.00410625 0 0)
(-51.7294 -0.12183 0 0.00443389 0 0)
(-51.9607 -0.149402 0 0.00480592 0 0)
(-52.1972 -0.176552 0 0.00519335 0 0)
(-52.441 -0.203224 0 0.00561937 0 0)
(-52.6893 -0.228047 0 0.00606435 0 0)
(-52.9443 -0.251825 0 0.00650061 0 0)
(-49.8584 0.0631703 0 0.00667061 0 0)
(-49.9929 0.11294 0 0.00493324 0 0)
(-50.1611 0.123587 0 0.0032526 0 0)
(-50.345 0.114842 0 0.0025452 0 0)
(-50.5256 0.103735 0 0.00232336 0 0)
(-50.6971 0.0953974 0 0.00226283 0 0)
(-50.8653 0.0873315 0 0.00225161 0 0)
(-51.039 0.0764389 0 0.0022777 0 0)
(-51.2239 0.0614252 0 0.00235709 0 0)
(-51.4222 0.0424729 0 0.0024833 0 0)
(-51.6343 0.0208851 0 0.00263955 0 0)
(-51.8585 -0.0018226 0 0.00281874 0 0)
(-52.0919 -0.0240375 0 0.00302404 0 0)
(-52.3321 -0.0451493 0 0.0032581 0 0)
(-52.5769 -0.0644547 0 0.00349733 0 0)
(-52.8254 -0.0826624 0 0.00375486 0 0)
(-53.0762 -0.0993462 0 0.00402343 0 0)
(-53.3286 -0.116037 0 0.00428992 0 0)
(-49.4953 0.111229 0 0.00541767 0 0)
(-49.668 0.15844 0 0.00349421 0 0)
(-49.8529 0.16907 0 0.0022396 0 0)
(-50.0252 0.160149 0 0.00175906 0 0)
(-50.1888 0.150905 0 0.00159837 0 0)
(-50.3565 0.144223 0 0.00154859 0 0)
(-50.5357 0.136267 0 0.00153895 0 0)
(-50.7278 0.125876 0 0.00155064 0 0)
(-50.9319 0.114262 0 0.0015829 0 0)
(-51.1478 0.102295 0 0.00163987 0 0)
(-51.3759 0.0898752 0 0.0017299 0 0)
(-51.6151 0.0763676 0 0.00185982 0 0)
(-51.8629 0.0616936 0 0.00202678 0 0)
(-52.1158 0.0461062 0 0.00222141 0 0)
(-52.3717 0.0304636 0 0.00242811 0 0)
(-52.6289 0.015093 0 0.00265957 0 0)
(-52.8866 0.000873162 0 0.00289928 0 0)
(-53.1438 -0.0125858 0 0.00312899 0 0)
(-50.1338 0.140786 0 0.00388128 0 0)
(-50.2899 0.171898 0 0.00138444 0 0)
(-50.4813 0.177734 0 0.000692187 0 0)
(-50.6568 0.176974 0 0.000451683 0 0)
(-50.8145 0.178063 0 0.000331096 0 0)
(-50.9767 0.179625 0 0.000261586 0 0)
(-51.1582 0.179315 0 0.000214403 0 0)
(-51.36 0.176746 0 0.000187495 0 0)
(-51.576 0.172229 0 0.000188142 0 0)
(-51.7994 0.165969 0 0.000220818 0 0)
(-52.0273 0.157939 0 0.000283474 0 0)
(-52.2587 0.148411 0 0.000368725 0 0)
(-52.4948 0.137873 0 0.000470614 0 0)
(-52.7354 0.127122 0 0.000586801 0 0)
(-52.9827 0.11668 0 0.000713718 0 0)
(-53.2344 0.106946 0 0.000852151 0 0)
(-53.4925 0.0980434 0 0.000997533 0 0)
(-53.7511 0.0897464 0 0.00114527 0 0)
(-50.068 0.161513 0 0.00315077 0 0)
(-50.4181 0.249723 0 0.00026505 0 0)
(-50.733 0.233194 0 -8.58643e-05 0 0)
(-50.9877 0.223518 0 -0.000134357 0 0)
(-51.1952 0.226798 0 -0.000218958 0 0)
(-51.3719 0.230964 0 -0.000293681 0 0)
(-51.5291 0.232412 0 -0.000331139 0 0)
(-51.674 0.231643 0 -0.000332085 0 0)
(-51.8092 0.229067 0 -0.00030095 0 0)
(-51.9378 0.22477 0 -0.000242676 0 0)
(-52.0623 0.218799 0 -0.000162845 0 0)
(-52.1877 0.211815 0 -7.0425e-05 0 0)
(-52.3139 0.204312 0 3.14755e-05 0 0)
(-52.4453 0.197178 0 0.00013716 0 0)
(-52.5773 0.190439 0 0.000239578 0 0)
(-52.7163 0.184575 0 0.000340947 0 0)
(-52.8514 0.179136 0 0.000441498 0 0)
(-52.996 0.174491 0 0.000524986 0 0)
(-49.1845 0.208324 0 0.00164627 0 0)
(-47.5413 0.258172 0 -2.89593e-05 0 0)
(-45.9466 0.242085 0 -0.000223637 0 0)
(-44.3965 0.230646 0 -0.000281858 0 0)
(-42.9284 0.224094 0 -0.000340188 0 0)
(-41.557 0.2168 0 -0.000366966 0 0)
(-40.2802 0.208889 0 -0.000375684 0 0)
(-39.0918 0.201295 0 -0.000384776 0 0)
(-37.9854 0.193989 0 -0.000394713 0 0)
(-36.9592 0.186652 0 -0.000398182 0 0)
(-36.0108 0.179105 0 -0.000391502 0 0)
(-35.1407 0.171539 0 -0.000377253 0 0)
(-34.3405 0.164142 0 -0.000358796 0 0)
(-33.6093 0.157299 0 -0.000341163 0 0)
(-32.9318 0.150972 0 -0.000324157 0 0)
(-32.3144 0.145355 0 -0.000306202 0 0)
(-31.7326 0.14008 0 -0.000289177 0 0)
(-31.2106 0.135437 0 -0.00027685 0 0)
(-0.00224662 0.000859666 -2.00537e-22 0.00960194 4.19307e-22 4.22506e-39)
(0.0551908 -0.0712477 4.53421e-22 0.0659361 -2.0276e-22 4.15801e-39)
(0.257061 -0.148242 0 0.055928 0 0)
(0.563732 -0.17509 0 0.0133393 0 0)
(0.836182 -0.113112 0 -0.0441667 0 0)
(0.960327 0.0183312 -1.72167e-22 -0.0936731 -4.4478e-22 3.91014e-39)
(0.817 0.190338 0 -0.122831 0 0)
(0.366058 0.349631 0 -0.12628 0 0)
(-0.36468 0.474898 0 -0.112207 0 0)
(-1.27031 0.542753 0 -0.0865331 0 0)
(-2.25901 0.547082 -2.34765e-21 -0.0559112 5.7141e-22 3.59097e-39)
(-3.22513 0.491209 0 -0.0258233 0 0)
(-4.05872 0.384427 0 0.000155922 0 0)
(-4.66221 0.239067 0 0.0196783 0 0)
(-4.96111 0.0682033 0 0.0317147 0 0)
(-4.91467 -0.112771 -4.77462e-21 0.0356942 6.56193e-23 3.3011e-39)
(-4.50371 -0.290368 0 0.0316735 0 0)
(-3.75282 -0.446813 0 0.0197954 0 0)
(-2.69455 -0.569489 0 0.000589512 0 0)
(-1.44211 -0.635606 0 -0.0241849 0 0)
(-0.0539665 -0.636307 0 -0.0520745 0 0)
(1.23577 -0.548164 0 -0.072482 0 0)
(2.41364 -0.39389 0 -0.0812925 0 0)
(3.14637 -0.152672 -2.25116e-21 -0.0321374 -4.55682e-22 2.92292e-39)
(3.60905 0.0100792 1.8598e-21 0.0133813 4.59629e-22 2.88003e-39)
(3.59233 0.137665 -1.50157e-21 0.167317 -3.42474e-22 2.83663e-39)
(3.49788 0.0774922 -1.20043e-21 0.37802 -1.83502e-22 2.79284e-39)
(3.43416 -0.243937 0 0.479511 0 0)
(3.75422 -0.664312 0 0.352002 0 0)
(4.32394 -0.863623 4.4301e-22 0.451121 -1.88665e-22 2.65163e-39)
(4.9837 -0.908758 3.03747e-22 0.586231 1.98864e-23 2.60148e-39)
(5.72667 -0.97666 0 0.603589 0 0)
(6.57371 -1.04927 0 0.567201 0 0)
(7.63526 -1.12991 1.73437e-22 0.540342 -1.95547e-23 2.45593e-39)
(9.08315 -1.26284 0 0.529712 0 0)
(10.9925 -1.37705 0 0.521822 0 0)
(13.3139 -1.45889 -1.5697e-21 0.537545 2.14831e-22 2.31971e-39)
(16.0686 -1.58569 0 0.567921 0 0)
(19.1819 -1.67908 -3.71393e-21 0.577552 5.10784e-22 2.23594e-39)
(22.0039 -1.36386 -9.37083e-21 0.446793 7.96789e-22 8.77829e-39)
(23.4136 -0.803886 0 0.337531 0 0)
(23.1376 -0.338106 0 0.291387 0 0)
(20.9302 0.0927676 0 0.292395 0 0)
(18.9282 0.0541636 0 0.38 0 0)
(16.9658 -0.652029 0 0.508619 0 0)
(13.4734 -1.50946 -5.05811e-21 0.630203 9.23107e-22 7.82554e-39)
(8.48572 -0.500153 -1.7179e-21 0.556983 -2.51567e-22 7.67216e-39)
(2.0563 1.9032 2.3631e-21 0.252415 -2.26581e-21 7.52034e-39)
(-6.59523 3.37156 0 0.113296 0 0)
(-14.9423 3.26716 -1.23945e-20 0.128631 2.96813e-21 7.22016e-39)
(-22.0082 2.80698 0 0.128036 0 0)
(-27.9447 2.30514 2.22915e-20 0.118146 -2.05425e-21 6.9281e-39)
(-32.756 1.86351 2.64406e-20 0.10891 -1.59146e-21 6.78791e-39)
(-36.6126 1.4692 0 0.0995342 0 0)
(-39.5746 1.12471 0 0.0906672 0 0)
(-41.7572 0.825505 0 0.0824784 0 0)
(-43.2345 0.56591 3.53503e-20 0.0748601 -1.98856e-22 6.26693e-39)
(-44.0884 0.340753 0 0.0678058 0 0)
(-44.3841 0.145099 0 0.0611975 0 0)
(-44.1828 -0.0250169 0 0.0549406 0 0)
(-43.5375 -0.172986 0 0.0489604 0 0)
(-42.4972 -0.301381 0 0.0431877 0 0)
(-41.105 -0.41242 0 0.0376014 0 0)
(-39.4009 -0.507808 0 0.0321956 0 0)
(-37.4211 -0.589019 0 0.026996 0 0)
(-35.1994 -0.656935 -2.07195e-20 0.0220309 -9.55085e-22 5.2754e-39)
(-32.7679 -0.712651 0 0.0173567 0 0)
(-30.1593 -0.756294 0 0.013002 0 0)
(-27.4071 -0.788626 1.099e-20 0.00901567 9.55493e-22 4.98351e-39)
(-24.5458 -0.809727 7.71355e-21 0.00541681 9.25447e-22 4.88924e-39)
(-21.6095 -0.82003 0 0.00221297 0 0)
(-18.6342 -0.819784 -1.45192e-21 -0.000603407 -8.2893e-22 4.70442e-39)
(-15.6534 -0.809717 -1.43308e-21 -0.00304534 7.65946e-22 4.61378e-39)
(-12.7005 -0.790339 0 -0.00511578 0 0)
(-9.80714 -0.762692 6.51044e-21 -0.00682356 -6.20705e-22 4.43584e-39)
(-7.00252 -0.727724 0 -0.00819198 0 0)
(-4.31234 -0.68682 0 -0.0092616 0 0)
(-1.75817 -0.641291 -1.20594e-20 -0.0100861 3.8745e-22 4.17668e-39)
(0.643854 -0.592423 0 -0.0107263 0 0)
(2.88236 -0.541674 1.43335e-20 -0.0112389 -2.41955e-22 4.00915e-39)
(4.94867 -0.489848 0 -0.0116745 0 0)
(6.8378 -0.437678 -1.55689e-20 -0.0120688 1.12878e-22 3.84599e-39)
(8.54595 -0.385735 -1.58375e-20 -0.0124436 5.48111e-23 3.76609e-39)
(10.0696 -0.334224 -1.5894e-20 -0.0128062 7.64067e-25 3.68732e-39)
(11.4066 -0.282986 -3.15074e-20 -0.0131478 -9.9518e-23 1.44389e-38)
(12.5547 -0.232339 3.08601e-20 -0.0134573 1.93437e-22 1.41331e-38)
(13.5107 -0.181982 0 -0.0137075 0 0)
(14.2722 -0.131974 0 -0.0138733 0 0)
(14.8371 -0.0825548 0 -0.013933 0 0)
(15.204 -0.0337695 2.51325e-20 -0.0138533 5.01157e-22 1.29579e-38)
(15.3729 0.0138112 2.30666e-20 -0.0136232 5.5879e-22 1.26763e-38)
(15.3452 0.0596962 -2.08185e-20 -0.0132274 -6.07221e-22 1.23996e-38)
(15.1252 0.103338 0 -0.012659 0 0)
(14.7199 0.143971 1.5946e-20 -0.0119398 6.73992e-22 1.18607e-38)
(14.139 0.180974 1.34122e-20 -0.0110901 6.91557e-22 1.15982e-38)
(13.3951 0.213711 1.08743e-20 -0.0101445 6.98659e-22 1.13404e-38)
(12.5025 0.241651 0 -0.00913616 0 0)
(11.4781 0.264395 0 -0.00809379 0 0)
(10.3416 0.281597 0 -0.00703955 0 0)
(9.11449 0.293145 1.47628e-21 -0.0059877 6.33755e-22 1.03516e-38)
(7.82154 0.300399 0 -0.00497173 0 0)
(6.4886 0.301388 0 -0.00398374 0 0)
(5.13732 0.297551 3.94973e-21 -0.00305416 -5.1869e-22 9.64299e-39)
(3.79129 0.288472 0 -0.00220067 0 0)
(2.4703 0.275244 0 -0.00144218 0 0)
(1.19332 0.258351 7.61519e-21 -0.00079493 -3.76721e-22 8.96745e-39)
(-0.0231209 0.238891 0 -0.000265331 0 0)
(-1.16607 0.217528 0 0.000143833 0 0)
(-2.22657 0.1951 -9.69967e-21 0.000439041 2.45795e-22 8.3294e-39)
(-3.19825 0.172312 -1.0118e-20 0.000631678 2.08788e-22 8.12565e-39)
(-4.07794 0.149753 0 0.000736505 0 0)
(-4.86507 0.127884 1.06472e-20 0.000769781 -1.4584e-22 7.73101e-39)
(-5.5611 0.107059 0 0.000747923 0 0)
(-6.16912 0.0875405 -1.08687e-20 0.000686819 9.59353e-23 7.35264e-39)
(-6.69348 0.0695185 0 0.000601414 0 0)
(-7.13946 0.0531234 -1.08792e-20 0.000505157 5.71869e-23 6.98966e-39)
(-7.51305 0.0384177 -1.08285e-20 0.000408936 4.11928e-23 6.81369e-39)
(-7.82076 0.0253868 0 0.000320446 0 0)
(-8.06918 0.013937 0 0.000243248 0 0)
(-8.26472 0.00390659 0 0.000177155 0 0)
(-8.41321 -0.0049188 0 0.000120006 0 0)
(-8.51934 -0.0126958 0 7.09312e-05 0 0)
(-8.58778 -0.0194719 0 3.06484e-05 0 0)
(-8.62301 -0.0252932 0 -1.01243e-06 0 0)
(-8.6297 -0.0301441 -9.7336e-21 -2.4759e-05 -3.32397e-23 5.52714e-39)
(-8.61298 -0.0340316 9.56178e-21 -4.26309e-05 3.67138e-23 5.3804e-39)
(-8.57713 -0.037277 0 -5.76549e-05 0 0)
(-8.52423 -0.0403487 0 -7.17182e-05 0 0)
(-8.45489 -0.0434012 0 -8.57645e-05 0 0)
(-8.36927 -0.0461437 0 -9.73489e-05 0 0)
(-8.2684 -0.0481475 1.74301e-20 -0.000102892 9.97252e-23 1.87585e-38)
(-8.15463 -0.0492217 0 -0.000103593 0 0)
(-8.03126 -0.0494824 -1.67575e-20 -0.000103008 -1.0285e-22 1.773e-38)
(-7.90145 -0.0492594 1.64268e-20 -0.000102222 1.02074e-22 1.72314e-38)
(-7.76746 -0.0489416 0 -9.98586e-05 0 0)
(-7.63025 -0.0488405 0 -9.53191e-05 0 0)
(-7.48966 -0.0491069 0 -9.01728e-05 0 0)
(-7.34481 -0.0497533 -1.51731e-20 -8.66348e-05 -1.01251e-22 1.53371e-38)
(-7.19459 -0.0507044 -1.48721e-20 -8.58762e-05 -1.03235e-22 1.48879e-38)
(-7.03791 -0.0518274 0 -8.74466e-05 0 0)
(-6.87391 -0.0529402 -1.42716e-20 -8.92865e-05 -1.07958e-22 1.40175e-38)
(-6.70215 -0.0538406 -1.39696e-20 -8.85363e-05 -1.09555e-22 1.3596e-38)
(-6.52276 -0.0543628 1.3666e-20 -8.30545e-05 1.10118e-22 1.31836e-38)
(-6.33641 -0.0544121 0 -7.22807e-05 0 0)
(-6.14421 -0.0539495 0 -5.69002e-05 0 0)
(-5.94771 -0.0529365 1.2752e-20 -3.81797e-05 1.05768e-22 1.19987e-38)
(-5.7489 -0.0512866 0 -1.81155e-05 0 0)
(-5.55034 -0.0488886 0 -3.00021e-07 0 0)
(-5.35505 -0.0457068 0 1.05493e-05 0 0)
(-5.16617 -0.0418803 0 1.18375e-05 0 0)
(-4.98641 -0.0377256 -1.13148e-20 5.96694e-06 -7.5504e-23 1.01902e-38)
(-4.8175 -0.033626 -1.10631e-20 -1.48452e-06 -6.70734e-23 9.85221e-39)
(-4.66007 -0.029891 0 -6.24135e-06 0 0)
(-4.51387 -0.0266639 -1.06067e-20 -7.5046e-06 -5.24803e-23 9.19883e-39)
(-4.3782 -0.0239114 0 -6.68184e-06 0 0)
(-4.25244 -0.0214878 0 -5.351e-06 0 0)
(-4.13612 -0.0192313 -1.0027e-20 -4.37819e-06 -3.71058e-23 8.27375e-39)
(-4.02921 -0.0170468 0 -4.0591e-06 0 0)
(-3.9316 -0.014928 -9.70172e-21 -4.32079e-06 -2.87045e-23 7.69242e-39)
(-3.84336 -0.012939 0 -4.87368e-06 0 0)
(-3.76384 -0.0111671 0 -5.3655e-06 0 0)
(-3.69263 -0.00967964 -9.29726e-21 -5.62284e-06 -1.8734e-23 6.87137e-39)
(-3.62802 -0.00851052 0 -5.65682e-06 0 0)
(-3.56948 -0.00764419 -9.07233e-21 -5.59573e-06 -1.49396e-23 6.35681e-39)
(-3.51438 -0.00706426 0 -5.59484e-06 0 0)
(-3.46301 -0.00670579 0 -5.70267e-06 0 0)
(-3.4115 -0.00659957 0 -6.1177e-06 0 0)
(-3.36199 -0.00664338 8.67925e-21 -6.69039e-06 1.33541e-23 5.40307e-39)
(-3.30825 -0.00703542 0 -8.069e-06 0 0)
(-3.25503 -0.0075049 -8.49005e-21 -9.49853e-06 -1.52547e-23 4.9625e-39)
(-3.19255 -0.00867076 0 -1.34809e-05 0 0)
(-3.12755 -0.00966077 0 -1.64964e-05 0 0)
(-3.0484 -0.0122693 0 -2.90905e-05 0 0)
(-2.95543 -0.0138276 0 -3.41482e-05 0 0)
(-2.85175 -0.0195495 0 -8.14261e-05 0 0)
(-2.69077 -0.0213718 0 -8.1622e-05 0 0)
(-2.56647 -0.0347933 0 -0.000303087 0 0)