/*--------------------------------*- C++ -*----------------------------------*\
  =========                 |
  \\      /  F ield         | OpenFOAM: The Open Source CFD Toolbox
   \\    /   O peration     | Website:  https://openfoam.org
    \\  /    A nd           | Version:  9
     \\/     M anipulation  |
\*---------------------------------------------------------------------------*/
FoamFile
{
    format      ascii;
    class       volScalarField;
    location    "0.12";
    object      nut;
}
// * * * * * * * * * * * * * * * * * * * * * * * * * * * * * * * * * * * * * //

dimensions      [0 2 -1 0 0 0 0];

internalField   nonuniform List<scalar> 
12225
(
4.04768e-05
3.83178e-05
3.62504e-05
3.44199e-05
3.29521e-05
3.18979e-05
3.12566e-05
3.09944e-05
3.10593e-05
3.1392e-05
3.19339e-05
3.26313e-05
3.34378e-05
3.43151e-05
3.52343e-05
3.61709e-05
3.7132e-05
3.85265e-05
0.000281048
0.000209265
0.000176265
0.000157438
0.000146269
0.000139685
0.000135791
0.000133428
0.000131913
0.000130857
0.000130042
0.000129356
0.000128739
0.000128161
0.000127623
0.00012708
0.000126694
0.000125705
0.000556046
0.000419905
0.000349811
0.00030473
0.000272441
0.000247974
0.000228755
0.000213288
0.000200657
0.000190252
0.000181634
0.000174462
0.000168468
0.000163429
0.000159172
0.000155505
0.000152346
0.00014923
0.000740307
0.000625819
0.000544112
0.000484992
0.000439761
0.000403637
0.000373824
0.000348583
0.000326826
0.000307857
0.000291201
0.000276511
0.000263516
0.000251985
0.000241721
0.000232501
0.000224166
0.000216413
0.000817069
0.00075914
0.000700542
0.000648571
0.000603887
0.00056557
0.000532454
0.000503488
0.000477845
0.000454918
0.000434259
0.000415533
0.000398481
0.00038289
0.000368578
0.000355355
0.00034307
0.000331618
0.0008421
0.000819687
0.000789922
0.000757601
0.000725546
0.000695152
0.000666949
0.000640994
0.000617144
0.000595198
0.000574952
0.000556217
0.000538829
0.000522639
0.000507514
0.000493321
0.000479952
0.000467452
0.000849261
0.000841807
0.000829741
0.000814185
0.000796476
0.000777753
0.000758837
0.000740238
0.000722244
0.000705002
0.000688569
0.000672955
0.000658137
0.000644075
0.000630721
0.000618018
0.000605923
0.000594563
0.00085112
0.000848747
0.00084448
0.000838235
0.000830243
0.00082089
0.000810591
0.00079971
0.000788537
0.00077729
0.000766122
0.000755141
0.000744416
0.000733987
0.000723876
0.000714093
0.000704649
0.000695697
0.00085156
0.000850665
0.00084917
0.000846886
0.00084374
0.000839756
0.000835029
0.000829687
0.000823865
0.000817691
0.000811279
0.000804722
0.000798097
0.000791465
0.000784871
0.000778351
0.000771941
0.000765779
0.000851652
0.000851133
0.000850468
0.000849564
0.000848346
0.000846771
0.000844823
0.000842516
0.000839877
0.00083695
0.000833777
0.000830407
0.000826882
0.000823241
0.00081952
0.00081575
0.000811964
0.000808261
0.000851668
0.00085123
0.000850778
0.000850278
0.000849697
0.000849006
0.000848181
0.000847209
0.000846084
0.000844809
0.000843392
0.000841844
0.00084018
0.000838416
0.000836568
0.000834652
0.000832688
0.000830733
0.000851669
0.000851245
0.000850835
0.000850429
0.000850013
0.000849575
0.0008491
0.000848578
0.000848
0.000847362
0.00084666
0.000845895
0.00084507
0.000844188
0.000843254
0.000842275
0.000841261
0.000840245
0.000851668
0.000851244
0.000850843
0.000850459
0.000850088
0.000849725
0.000849364
0.000849
0.000848627
0.000848241
0.000847838
0.000847416
0.000846975
0.000846512
0.00084603
0.000845528
0.000845012
0.000844499
0.000851667
0.000851242
0.000850839
0.000850458
0.000850096
0.000849751
0.00084942
0.000849101
0.000848792
0.00084849
0.000848193
0.000847899
0.000847608
0.000847318
0.000847027
0.000846737
0.000846449
0.000846174
0.000851666
0.000851239
0.000850835
0.000850452
0.00085009
0.000849746
0.000849419
0.000849108
0.000848811
0.000848527
0.000848255
0.000847995
0.000847744
0.000847503
0.00084727
0.000847045
0.00084683
0.000846635
0.000851665
0.000851236
0.000850831
0.000850447
0.000850083
0.000849737
0.000849409
0.000849097
0.000848801
0.000848519
0.00084825
0.000847994
0.000847749
0.000847516
0.000847294
0.000847081
0.000846881
0.000846702
0.000851664
0.000851235
0.000850828
0.000850442
0.000850077
0.00084973
0.000849401
0.000849088
0.00084879
0.000848507
0.000848237
0.00084798
0.000847735
0.000847502
0.000847279
0.000847067
0.000846867
0.000846689
0.000851663
0.000851234
0.000850826
0.00085044
0.000850073
0.000849725
0.000849395
0.000849081
0.000848782
0.000848498
0.000848227
0.000847969
0.000847723
0.000847489
0.000847265
0.000847051
0.00084685
0.000846671
0.000851663
0.000851233
0.000850825
0.000850439
0.000850072
0.000849724
0.000849393
0.000849079
0.000848779
0.000848495
0.000848223
0.000847964
0.000847718
0.000847482
0.000847257
0.000847043
0.00084684
0.000846661
0.000851664
0.000851234
0.000850826
0.00085044
0.000850074
0.000849726
0.000849396
0.000849082
0.000848783
0.000848498
0.000848226
0.000847967
0.000847719
0.000847482
0.000847256
0.000847039
0.000846834
0.000846652
0.000851664
0.000851235
0.000850829
0.000850443
0.000850078
0.00084973
0.000849399
0.000849083
0.00084878
0.00084849
0.000848211
0.000847941
0.000847681
0.000847429
0.000847185
0.000846947
0.000846719
0.000846509
0.000851665
0.000851237
0.00085083
0.000850442
0.000850069
0.000849706
0.000849351
0.000849
0.000848648
0.000848294
0.000847936
0.000847572
0.000847201
0.000846822
0.000846436
0.000846043
0.000845646
0.000845257
0.000851664
0.000851228
0.000850794
0.000850348
0.00084987
0.000849345
0.000848762
0.000848112
0.00084739
0.000846595
0.00084573
0.0008448
0.00084381
0.000842766
0.000841678
0.000840551
0.000839396
0.000838236
0.000851634
0.000851073
0.000850343
0.000849364
0.00084808
0.000846469
0.000844532
0.000842294
0.000839789
0.000837057
0.000834141
0.000831082
0.000827919
0.000824684
0.000821407
0.000818114
0.000814828
0.000811596
0.000851287
0.000849596
0.000846721
0.000842578
0.000837264
0.000830982
0.000823975
0.000816476
0.000808681
0.000800747
0.000792795
0.000784916
0.000777175
0.000769616
0.00076227
0.000755155
0.000748288
0.00074172
0.000848318
0.000839426
0.000826162
0.000810019
0.00079236
0.000774229
0.000756325
0.000739049
0.0007226
0.000707059
0.000692436
0.000678704
0.000665817
0.00065372
0.000642357
0.000631673
0.00062162
0.000612209
0.000828548
0.000788843
0.000746035
0.000705704
0.000669465
0.000637502
0.000609447
0.000584741
0.000562847
0.000543309
0.000525758
0.000509895
0.000495479
0.000482315
0.000470244
0.000459136
0.000448885
0.000439442
0.000730726
0.000627346
0.000554508
0.00050106
0.000460319
0.000428348
0.000402634
0.00038147
0.000363711
0.000348582
0.000335537
0.000324179
0.00031421
0.000305399
0.000297568
0.000290572
0.000284291
0.000278642
0.000439249
0.000338471
0.000287936
0.000256869
0.000236362
0.000222511
0.000212994
0.000206313
0.000201507
0.00019796
0.000195272
0.000193178
0.0001915
0.000190117
0.000188948
0.000187933
0.000187037
0.00018621
7.16431e-05
6.90587e-05
6.65522e-05
6.41645e-05
6.19883e-05
6.00783e-05
5.84563e-05
5.7121e-05
5.60567e-05
5.52396e-05
5.46426e-05
5.42381e-05
5.39991e-05
5.39008e-05
5.39206e-05
5.40385e-05
5.4237e-05
5.44999e-05
8.09945e-07
1.58533e-05
2.42931e-05
3.15023e-05
3.82872e-05
4.5532e-05
5.35964e-05
6.26722e-05
7.29736e-05
8.46541e-05
9.68241e-05
0.000109051
0.00012104
0.000132535
0.000143335
0.000153294
0.000162317
0.000170345
0.000177356
0.000183355
0.00018836
0.000192373
0.000195335
0.000197169
0.000198089
0.000198998
0.000199978
0.000199175
4.54161e-05
0.000200067
0.000197816
0.000199728
0.000203316
0.000201318
0.000202621
0.000202885
4.71175e-05
4.80121e-05
4.89827e-05
4.99645e-05
5.09496e-05
5.19363e-05
5.29232e-05
5.39097e-05
5.48957e-05
5.58812e-05
5.68663e-05
5.78511e-05
5.88357e-05
5.98203e-05
6.08047e-05
6.17892e-05
6.27735e-05
6.37576e-05
6.47413e-05
6.57244e-05
6.67068e-05
6.7688e-05
6.86678e-05
6.96458e-05
7.06217e-05
7.15951e-05
7.25655e-05
7.35325e-05
7.44956e-05
7.54543e-05
7.64082e-05
7.73568e-05
7.82996e-05
7.92361e-05
8.01657e-05
8.1088e-05
8.20025e-05
8.29086e-05
8.38059e-05
8.46939e-05
8.5572e-05
8.64399e-05
8.7297e-05
8.81429e-05
8.89771e-05
8.97992e-05
9.06088e-05
9.14053e-05
9.21884e-05
9.29576e-05
9.37125e-05
9.44527e-05
9.51777e-05
9.58872e-05
9.65806e-05
9.72576e-05
9.79179e-05
9.85611e-05
9.91874e-05
9.97969e-05
0.000100391
0.000100972
0.000101541
0.000102088
0.000102615
0.00010312
0.000103605
0.000104069
0.00010451
0.00010493
0.000105327
0.000105702
0.000106053
0.000106381
0.000106685
0.000106965
0.00010722
0.000107451
0.000107657
0.000107838
0.000107994
0.000108124
0.000108228
0.000108308
0.000108361
0.000108389
0.000108391
0.000108367
0.000108317
0.000108242
0.000108141
0.000108015
0.000107864
0.000107687
0.000107485
0.000107259
0.000107008
0.000106733
0.000106435
0.000106112
0.000105767
0.000105398
0.000105008
0.000104595
0.000104161
0.000103706
0.000103231
0.000102735
0.00010222
0.000101687
0.000101135
0.000100566
9.99795e-05
9.93769e-05
9.87586e-05
9.81254e-05
9.74779e-05
9.68167e-05
9.61428e-05
9.54564e-05
9.4759e-05
9.40506e-05
9.33324e-05
9.26059e-05
9.18686e-05
9.11288e-05
9.03916e-05
8.97669e-05
8.93322e-05
8.89093e-05
8.84838e-05
8.80547e-05
8.76224e-05
8.7187e-05
8.67487e-05
8.63074e-05
8.58626e-05
8.54129e-05
8.49551e-05
8.44827e-05
8.39801e-05
8.34073e-05
8.26585e-05
8.13394e-05
2.0844e-06
3.5748e-05
7.46664e-05
0.000104511
0.000127173
0.000144326
0.000158073
0.00017019
0.000181924
0.00019387
0.000206145
0.000218592
0.000230935
0.000242877
0.000254147
0.000264519
0.000273806
0.000281859
0.000288556
0.000293784
0.000297393
0.000299117
0.000298548
0.000295394
0.000290305
0.000285631
0.000283143
0.0002759
0.000258786
0.0002691
0.000261719
0.000263021
0.000266926
0.000265356
0.000268236
0.000270707
0.00026887
0.000274889
0.000280869
0.000287169
0.000293692
0.000300379
0.000307183
0.000314077
0.000321047
0.000328086
0.000335192
0.000342365
0.000349607
0.00035692
0.000364309
0.000371776
0.000379324
0.000386956
0.000394676
0.000402483
0.000410381
0.000418371
0.000426451
0.000434624
0.000442888
0.000451242
0.000459685
0.000468215
0.00047683
0.000485526
0.000494301
0.000503151
0.000512072
0.000521061
0.000530112
0.000539221
0.000548383
0.000557593
0.000566846
0.000576136
0.000585459
0.000594807
0.000604177
0.000613563
0.000622958
0.000632359
0.00064176
0.000651155
0.00066054
0.00066991
0.000679261
0.000688588
0.000697886
0.00070715
0.000716376
0.000725556
0.000734681
0.000743737
0.000752704
0.000761545
0.000770205
0.000778601
0.000786343
0.000793916
0.000801375
0.000808721
0.00081595
0.000823055
0.000830032
0.000836874
0.000843576
0.000850132
0.000856536
0.000862783
0.000868867
0.000874783
0.000880527
0.000886093
0.000891477
0.000896674
0.000901679
0.000906489
0.000911101
0.000915509
0.000919712
0.000923706
0.000927488
0.000931055
0.000934405
0.000937536
0.000940446
0.000943133
0.000945596
0.000947834
0.000949846
0.000951632
0.000953191
0.000954524
0.000955631
0.000956512
0.00095717
0.000957604
0.000957817
0.000957811
0.000957587
0.000957149
0.000956499
0.000955641
0.000954577
0.000953312
0.000951848
0.000950191
0.000948346
0.000946316
0.000944105
0.000941722
0.00093917
0.000936454
0.000933584
0.000930559
0.000927395
0.000924092
0.000920654
0.000917107
0.000913438
0.00090959
0.000905393
0.000899859
0.000892655
0.000884989
0.000877145
0.000869199
0.000861181
0.000853103
0.000844977
0.000836808
0.0008286
0.000820352
0.000812056
0.000803689
0.00079518
0.000786425
0.000776373
0.000755852
3.78256e-06
5.36615e-05
0.000112116
0.000157734
0.000191833
0.000217312
0.000236943
0.000252949
0.000266983
0.000280126
0.000292955
0.000305664
0.0003182
0.000330393
0.000342033
0.000352921
0.000362895
0.000371845
0.000379713
0.000386492
0.000392208
0.000396894
0.000400612
0.000403566
0.000406309
0.000409705
0.00041415
0.000418723
0.000423703
0.00043091
0.000437857
0.000446556
0.000456226
0.000466149
0.000477283
0.000489061
0.000501321
0.000514787
0.000528485
0.000542351
0.000556373
0.000570539
0.00058484
0.00059927
0.000613827
0.000628514
0.000643333
0.000658292
0.000673397
0.000688654
0.00070407
0.000719651
0.000735402
0.000751328
0.000767431
0.000783716
0.000800182
0.000816831
0.000833661
0.000850671
0.000867858
0.000885219
0.000902748
0.000920441
0.000938292
0.000956292
0.000974434
0.00099271
0.00101111
0.00102963
0.00104825
0.00106696
0.00108575
0.00110462
0.00112355
0.00114252
0.00116153
0.00118057
0.00119961
0.00121866
0.00123769
0.0012567
0.00127568
0.0012946
0.00131347
0.00133226
0.00135097
0.00136959
0.00138809
0.00140648
0.00142472
0.0014428
0.0014607
0.00147839
0.00149584
0.001513
0.00152984
0.00154603
0.00156177
0.00157724
0.00159246
0.00160743
0.00162216
0.00163662
0.00165081
0.00166471
0.00167832
0.00169161
0.00170458
0.00171722
0.00172951
0.00174145
0.00175302
0.00176422
0.00177503
0.00178545
0.00179547
0.00180508
0.00181427
0.00182303
0.00183136
0.00183925
0.00184669
0.00185369
0.00186023
0.00186632
0.00187193
0.00187709
0.00188177
0.00188599
0.00188973
0.001893
0.0018958
0.00189812
0.00189997
0.00190136
0.00190227
0.00190272
0.00190271
0.00190224
0.00190132
0.00189996
0.00189815
0.00189591
0.00189324
0.00189015
0.00188665
0.00188274
0.00187845
0.00187377
0.00186871
0.0018633
0.00185753
0.00185143
0.001845
0.00183826
0.00183123
0.00182392
0.00181634
0.00180851
0.00180044
0.00179197
0.00178289
0.00177245
0.00176041
0.00174757
0.00173433
0.00172082
0.00170711
0.00169324
0.00167924
0.00166512
0.00165088
0.00163654
0.00162206
0.00160737
0.00159228
0.00157631
0.00155751
0.00152707
5.86328e-06
6.96945e-05
0.000141598
0.000197996
0.000240655
0.000272962
0.000297855
0.000317742
0.0003345
0.000349478
0.00036354
0.000377151
0.000390486
0.000403547
0.000416247
0.000428484
0.000440175
0.000451283
0.000461826
0.000471878
0.000481559
0.000491018
0.000500432
0.000510027
0.0005201
0.000530959
0.000542748
0.000555374
0.00056888
0.000583319
0.000598514
0.000614589
0.000631431
0.00064895
0.000667183
0.000686011
0.00070534
0.000725086
0.00074504
0.000765134
0.000785358
0.000805716
0.000826216
0.000846867
0.00086768
0.000888665
0.000909833
0.000931193
0.000952758
0.000974534
0.000996533
0.00101876
0.00104122
0.00106392
0.00108687
0.00111006
0.00113349
0.00115717
0.0011811
0.00120526
0.00122965
0.00125427
0.00127912
0.00130417
0.00132942
0.00135486
0.00138048
0.00140626
0.0014322
0.00145827
0.00148446
0.00151075
0.00153714
0.00156359
0.0015901
0.00161665
0.00164322
0.00166979
0.00169635
0.00172287
0.00174935
0.00177575
0.00180207
0.00182829
0.00185439
0.00188036
0.00190617
0.0019318
0.00195724
0.00198247
0.00200747
0.0020322
0.00205665
0.00208078
0.00210456
0.00212796
0.00215091
0.00217325
0.00219515
0.00221668
0.00223787
0.00225872
0.00227921
0.00229933
0.00231907
0.0023384
0.00235732
0.0023758
0.00239384
0.00241141
0.0024285
0.0024451
0.0024612
0.00247678
0.00249182
0.00250632
0.00252026
0.00253364
0.00254643
0.00255864
0.00257025
0.00258126
0.00259165
0.00260142
0.00261056
0.00261907
0.00262694
0.00263417
0.00264075
0.00264668
0.00265195
0.00265658
0.00266055
0.00266386
0.00266652
0.00266853
0.0026699
0.00267062
0.00267069
0.00267014
0.00266895
0.00266714
0.00266472
0.00266169
0.00265806
0.00265385
0.00264906
0.0026437
0.00263779
0.00263134
0.00262437
0.00261689
0.00260891
0.00260045
0.00259154
0.00258218
0.00257241
0.00256224
0.00255168
0.00254072
0.00252938
0.00251754
0.00250501
0.00249137
0.00247647
0.00246072
0.00244441
0.0024277
0.00241068
0.00239341
0.00237592
0.00235823
0.00234037
0.00232233
0.0023041
0.00228559
0.00226653
0.00224628
0.00222276
0.00218958
8.02242e-06
8.20822e-05
0.000164826
0.000230442
0.000280653
0.000318999
0.000348648
0.000372213
0.000391757
0.000408828
0.000424499
0.000439447
0.000454044
0.000468455
0.000482729
0.000496862
0.000510849
0.000524709
0.000538499
0.000552317
0.000566289
0.00058056
0.000595285
0.000610614
0.000626696
0.000643645
0.000661505
0.000680254
0.000699856
0.00072026
0.000741398
0.000763229
0.000785692
0.000808727
0.000832278
0.000856269
0.000880616
0.000905232
0.000930038
0.000954993
0.000980089
0.00100533
0.00103073
0.00105631
0.00108208
0.00110804
0.00113423
0.00116064
0.0011873
0.0012142
0.00124137
0.00126881
0.00129653
0.00132453
0.0013528
0.00138137
0.00141021
0.00143934
0.00146874
0.00149841
0.00152835
0.00155854
0.00158897
0.00161964
0.00165052
0.00168161
0.00171289
0.00174434
0.00177594
0.00180769
0.00183955
0.0018715
0.00190354
0.00193563
0.00196776
0.00199991
0.00203204
0.00206415
0.00209621
0.00212819
0.00216008
0.00219186
0.0022235
0.00225499
0.0022863
0.00231741
0.00234831
0.00237896
0.00240936
0.00243947
0.00246927
0.00249875
0.00252787
0.00255661
0.00258495
0.00261287
0.00264018
0.00266696
0.00269329
0.00271921
0.00274471
0.00276981
0.00279447
0.0028187
0.00284247
0.00286576
0.00288856
0.00291085
0.0029326
0.00295381
0.00297446
0.00299452
0.00301399
0.00303285
0.00305108
0.00306867
0.0030856
0.00310186
0.00311745
0.00313234
0.00314652
0.00316
0.00317275
0.00318477
0.00319605
0.00320658
0.00321635
0.00322537
0.00323362
0.00324111
0.00324782
0.00325376
0.00325892
0.00326331
0.00326692
0.00326976
0.00327183
0.00327314
0.00327368
0.00327346
0.00327249
0.00327078
0.00326833
0.00326515
0.00326125
0.00325665
0.00325136
0.00324538
0.00323873
0.00323143
0.00322349
0.00321493
0.00320576
0.00319602
0.0031857
0.00317485
0.00316347
0.00315159
0.00313921
0.00312634
0.00311298
0.00309906
0.00308445
0.00306892
0.00305238
0.00303504
0.00301707
0.00299861
0.00297976
0.00296057
0.00294109
0.00292136
0.0029014
0.00288123
0.00286085
0.00284016
0.00281893
0.00279654
0.00277119
0.00273878
1.0058e-05
9.21864e-05
0.000183747
0.000257415
0.000314387
0.000358275
0.000392416
0.000419584
0.000441996
0.000461355
0.000478903
0.000495489
0.000511649
0.000527696
0.000543798
0.00056004
0.000576479
0.000593167
0.000610174
0.000627584
0.000645497
0.000664017
0.000683239
0.000703246
0.000724099
0.000745829
0.000768428
0.00079186
0.000816069
0.000840991
0.000866558
0.000892709
0.000919381
0.000946513
0.000974047
0.00100192
0.00103007
0.00105845
0.00108701
0.00111573
0.00114461
0.00117366
0.00120288
0.00123229
0.0012619
0.00129174
0.00132182
0.00135215
0.00138274
0.0014136
0.00144475
0.00147619
0.00150793
0.00153996
0.0015723
0.00160494
0.00163788
0.00167111
0.00170464
0.00173845
0.00177253
0.00180687
0.00184147
0.0018763
0.00191135
0.0019466
0.00198204
0.00201765
0.0020534
0.00208929
0.00212527
0.00216134
0.00219747
0.00223363
0.00226981
0.00230597
0.0023421
0.00237817
0.00241415
0.00245003
0.00248577
0.00252135
0.00255676
0.00259197
0.00262695
0.00266169
0.00269616
0.00273034
0.00276421
0.00279775
0.00283093
0.00286374
0.00289616
0.00292815
0.0029597
0.00299078
0.00302125
0.00305121
0.0030807
0.00310974
0.00313834
0.00316649
0.00319417
0.00322138
0.00324808
0.00327426
0.0032999
0.00332498
0.00334949
0.0033734
0.0033967
0.00341937
0.00344138
0.00346274
0.0034834
0.00350337
0.00352263
0.00354116
0.00355894
0.00357597
0.00359223
0.0036077
0.00362239
0.00363628
0.00364937
0.00366163
0.00367306
0.00368367
0.00369343
0.00370235
0.00371042
0.00371764
0.00372401
0.00372953
0.00373419
0.003738
0.00374095
0.00374306
0.00374433
0.00374476
0.00374434
0.00374311
0.00374105
0.00373819
0.00373452
0.00373006
0.00372483
0.00371883
0.00371207
0.00370459
0.00369638
0.00368747
0.00367787
0.0036676
0.0036567
0.00364516
0.00363303
0.0036203
0.00360701
0.00359315
0.00357872
0.00356368
0.00354797
0.00353146
0.0035141
0.00349598
0.00347721
0.00345791
0.00343815
0.00341799
0.00339748
0.00337668
0.00335562
0.00333433
0.00331282
0.00329105
0.00326883
0.00324565
0.00322013
0.00318972
1.18464e-05
0.000100334
0.000199304
0.000279902
0.000342904
0.000391917
0.000430365
0.000461117
0.000486497
0.00050832
0.000527957
0.000546395
0.000564307
0.000582129
0.000600129
0.000618472
0.000637259
0.000656567
0.000676461
0.000697007
0.000718266
0.000740297
0.000763146
0.000786841
0.000811392
0.000836786
0.000862989
0.00088995
0.000917607
0.000945893
0.000974741
0.00100409
0.00103387
0.00106404
0.00109454
0.00112532
0.00115634
0.00118757
0.00121898
0.00125056
0.00128231
0.00131423
0.00134634
0.00137865
0.00141118
0.00144394
0.00147694
0.0015102
0.00154374
0.00157755
0.00161166
0.00164606
0.00168077
0.00171578
0.00175109
0.00178672
0.00182264
0.00185886
0.00189538
0.00193217
0.00196924
0.00200657
0.00204414
0.00208194
0.00211996
0.00215818
0.00219657
0.00223512
0.00227381
0.00231261
0.0023515
0.00239045
0.00242946
0.00246847
0.00250748
0.00254646
0.00258538
0.00262422
0.00266294
0.00270153
0.00273995
0.00277819
0.00281622
0.00285402
0.00289156
0.00292883
0.00296579
0.00300243
0.00303873
0.00307467
0.00311023
0.00314539
0.00318012
0.00321442
0.00324826
0.00328156
0.0033143
0.00334655
0.00337834
0.00340966
0.00344053
0.00347093
0.00350085
0.00353026
0.00355916
0.00358752
0.00361531
0.00364253
0.00366915
0.00369515
0.00372051
0.00374521
0.00376924
0.00379257
0.00381519
0.00383708
0.00385822
0.0038786
0.0038982
0.00391701
0.00393501
0.00395219
0.00396854
0.00398406
0.00399872
0.00401252
0.00402546
0.00403751
0.00404867
0.00405894
0.00406833
0.00407681
0.00408439
0.00409107
0.00409684
0.0041017
0.00410566
0.00410872
0.00411089
0.00411215
0.00411253
0.00411202
0.00411064
0.0041084
0.00410529
0.00410133
0.00409654
0.00409094
0.0040845
0.00407727
0.00406927
0.0040605
0.00405099
0.00404075
0.0040298
0.00401817
0.00400588
0.00399293
0.00397936
0.00396515
0.00395033
0.00393487
0.00391873
0.00390186
0.00388422
0.00386587
0.00384687
0.0038273
0.00380722
0.0037867
0.0037658
0.00374456
0.00372304
0.00370129
0.00367934
0.00365719
0.00363472
0.00361155
0.00358667
0.00355848
1.32781e-05
0.000106929
0.000211907
0.000298361
0.000366691
0.000420423
0.000462987
0.000497291
0.000525708
0.000550128
0.000572011
0.000592445
0.000612212
0.000631847
0.000651705
0.000672012
0.000692911
0.000714495
0.000736827
0.000759952
0.000783903
0.0008087
0.000834353
0.000860854
0.000888181
0.000916298
0.000945156
0.000974697
0.00100486
0.00103557
0.00106678
0.00109842
0.00113043
0.00116278
0.00119541
0.00122828
0.00126137
0.00129466
0.00132812
0.00136175
0.00139556
0.00142955
0.00146373
0.00149811
0.00153271
0.00156754
0.00160261
0.00163794
0.00167353
0.00170941
0.00174557
0.00178203
0.00181879
0.00185584
0.0018932
0.00193086
0.00196882
0.00200706
0.00204559
0.0020844
0.00212348
0.0021628
0.00220237
0.00224216
0.00228216
0.00232235
0.00236271
0.00240322
0.00244387
0.00248461
0.00252545
0.00256634
0.00260726
0.0026482
0.00268912
0.00272999
0.0027708
0.00281151
0.0028521
0.00289254
0.00293281
0.00297287
0.00301271
0.00305229
0.00309161
0.00313063
0.00316933
0.00320769
0.0032457
0.00328334
0.00332058
0.00335741
0.00339381
0.00342976
0.00346525
0.00350019
0.00353462
0.00356859
0.00360211
0.00363518
0.00366779
0.00369993
0.0037316
0.00376275
0.00379339
0.00382348
0.00385301
0.00388195
0.00391029
0.003938
0.00396506
0.00399146
0.00401717
0.00404217
0.00406644
0.00408997
0.00411274
0.00413472
0.00415591
0.00417628
0.00419582
0.00421453
0.00423238
0.00424937
0.00426549
0.00428072
0.00429505
0.00430847
0.00432097
0.00433256
0.00434322
0.00435295
0.00436176
0.00436962
0.00437655
0.00438252
0.00438757
0.00439168
0.00439486
0.00439711
0.00439842
0.00439881
0.00439829
0.00439688
0.00439455
0.00439133
0.00438724
0.00438228
0.00437646
0.00436981
0.00436234
0.00435406
0.00434499
0.00433515
0.00432457
0.00431325
0.00430122
0.00428849
0.00427508
0.004261
0.00424625
0.00423084
0.00421475
0.00419795
0.00418042
0.00416221
0.00414334
0.00412389
0.0041039
0.00408343
0.00406254
0.00404129
0.00401974
0.00399797
0.00397602
0.00395395
0.00393167
0.00390895
0.00388504
0.00385889
1.44091e-05
0.000111965
0.000221684
0.000313032
0.000386031
0.000444071
0.000490528
0.000528297
0.000559761
0.000586845
0.00061106
0.000633565
0.00065522
0.000676638
0.000698241
0.00072031
0.000743024
0.000766491
0.000790776
0.000815914
0.000841916
0.000868781
0.00089649
0.000925016
0.000954319
0.000984349
0.00101505
0.00104636
0.00107822
0.00111057
0.00114335
0.00117651
0.00120999
0.00124376
0.00127778
0.00131201
0.00134644
0.00138106
0.00141584
0.00145079
0.00148591
0.00152121
0.00155669
0.00159236
0.00162825
0.00166436
0.00170071
0.0017373
0.00177416
0.00181128
0.00184868
0.00188636
0.00192434
0.0019626
0.00200116
0.00204001
0.00207915
0.00211858
0.00215828
0.00219826
0.00223849
0.00227898
0.00231971
0.00236066
0.00240182
0.00244317
0.00248469
0.00252637
0.00256818
0.00261011
0.00265212
0.0026942
0.00273632
0.00277846
0.00282059
0.00286268
0.00290471
0.00294665
0.00298848
0.00303015
0.00307166
0.00311296
0.00315404
0.00319487
0.00323542
0.00327567
0.00331561
0.00335521
0.00339444
0.00343331
0.00347178
0.00350984
0.00354748
0.00358467
0.00362139
0.00365762
0.0036934
0.00372876
0.00376368
0.00379817
0.00383223
0.00386583
0.00389896
0.00393159
0.00396371
0.00399529
0.00402631
0.00405676
0.00408659
0.00411581
0.00414437
0.00417227
0.00419948
0.00422598
0.00425175
0.00427677
0.00430102
0.00432448
0.00434712
0.00436895
0.00438993
0.00441006
0.00442933
0.00444772
0.00446522
0.00448183
0.00449751
0.00451227
0.00452609
0.00453897
0.00455091
0.0045619
0.00457195
0.00458103
0.00458915
0.00459629
0.00460248
0.00460771
0.00461201
0.00461533
0.00461769
0.00461909
0.00461956
0.0046191
0.00461771
0.00461541
0.00461219
0.00460809
0.0046031
0.00459725
0.00459055
0.00458301
0.00457465
0.00456549
0.00455555
0.00454483
0.00453337
0.00452117
0.00450825
0.00449462
0.0044803
0.00446528
0.00444957
0.00443315
0.00441603
0.00439822
0.00437976
0.00436069
0.00434106
0.00432093
0.00430035
0.00427938
0.00425811
0.00423661
0.00421497
0.00419325
0.00417143
0.00414936
0.0041265
0.0041021
1.52502e-05
0.00011556
0.000228841
0.000324172
0.000401191
0.000463099
0.000513172
0.000554251
0.000588696
0.000618429
0.000644984
0.000669562
0.000693072
0.000716185
0.000739375
0.000762967
0.000787171
0.000812118
0.000837877
0.000864481
0.000891933
0.000920218
0.000949304
0.000979153
0.00100971
0.00104093
0.00107275
0.00110511
0.00113795
0.00117121
0.00120485
0.00123881
0.00127305
0.00130754
0.00134224
0.00137713
0.0014122
0.00144743
0.00148282
0.00151836
0.00155406
0.00158992
0.00162596
0.00166218
0.0016986
0.00173523
0.00177208
0.00180917
0.00184651
0.0018841
0.00192196
0.00196009
0.00199851
0.0020372
0.00207619
0.00211546
0.00215502
0.00219486
0.00223499
0.00227539
0.00231605
0.00235698
0.00239815
0.00243956
0.00248119
0.00252303
0.00256507
0.00260727
0.00264964
0.00269213
0.00273475
0.00277745
0.00282022
0.00286303
0.00290586
0.00294868
0.00299147
0.00303418
0.00307681
0.0031193
0.00316165
0.00320381
0.00324576
0.00328747
0.00332892
0.00337008
0.00341094
0.00345146
0.00349163
0.00353144
0.00357086
0.00360988
0.0036485
0.00368668
0.00372445
0.0037618
0.00379876
0.00383533
0.0038715
0.00390727
0.00394263
0.00397755
0.00401201
0.00404599
0.00407948
0.00411244
0.00414485
0.00417668
0.00420793
0.00423855
0.00426853
0.00429785
0.00432648
0.0043544
0.0043816
0.00440805
0.00443372
0.00445859
0.00448265
0.00450588
0.00452826
0.00454978
0.00457043
0.00459019
0.00460906
0.00462703
0.00464406
0.00466015
0.00467528
0.00468947
0.0047027
0.00471497
0.00472629
0.00473664
0.00474599
0.00475435
0.00476174
0.00476815
0.0047736
0.00477806
0.00478156
0.00478408
0.00478565
0.00478628
0.00478595
0.0047847
0.00478252
0.00477943
0.00477544
0.00477056
0.00476482
0.00475821
0.00475076
0.00474248
0.00473339
0.0047235
0.00471283
0.0047014
0.00468922
0.0046763
0.00466266
0.0046483
0.00463322
0.00461743
0.00460093
0.00458375
0.00456591
0.00454743
0.00452838
0.0045088
0.00448874
0.00446829
0.00444751
0.0044265
0.00440535
0.00438417
0.00436296
0.00434165
0.00431981
0.00429686
1.58208e-05
0.00011787
0.000233636
0.000332077
0.000412462
0.000477761
0.000531113
0.000575271
0.000612542
0.000644821
0.00067364
0.000700212
0.000725476
0.000750138
0.000774712
0.000799558
0.000824916
0.000850934
0.000877697
0.000905241
0.00093357
0.000962663
0.000992488
0.001023
0.00105414
0.00108586
0.00111811
0.00115082
0.00118394
0.00121741
0.0012512
0.00128526
0.00131955
0.00135405
0.00138872
0.00142355
0.00145853
0.00149365
0.0015289
0.00156428
0.00159981
0.00163548
0.00167131
0.00170731
0.0017435
0.00177988
0.00181647
0.00185329
0.00189034
0.00192764
0.0019652
0.00200303
0.00204114
0.00207954
0.00211823
0.00215721
0.00219649
0.00223607
0.00227595
0.00231612
0.00235658
0.00239732
0.00243835
0.00247964
0.00252119
0.00256299
0.00260502
0.00264727
0.00268972
0.00273235
0.00277513
0.00281806
0.0028611
0.00290424
0.00294743
0.00299066
0.0030339
0.00307711
0.00312027
0.00316334
0.00320629
0.0032491
0.00329171
0.00333412
0.00337629
0.00341818
0.00345979
0.00350107
0.00354203
0.00358263
0.00362286
0.0036627
0.00370216
0.00374128
0.00378006
0.00381849
0.00385658
0.00389432
0.00393171
0.00396872
0.00400534
0.00404155
0.00407732
0.00411263
0.00414745
0.00418176
0.00421553
0.00424875
0.00428137
0.00431338
0.00434476
0.00437548
0.00440552
0.00443485
0.00446346
0.00449132
0.00451841
0.00454469
0.00457015
0.00459478
0.00461855
0.00464146
0.00466349
0.00468464
0.00470488
0.00472423
0.00474263
0.00476006
0.00477654
0.00479205
0.0048066
0.00482018
0.00483278
0.00484441
0.00485504
0.00486468
0.00487333
0.00488099
0.00488767
0.00489337
0.00489809
0.00490183
0.00490461
0.00490642
0.00490728
0.0049072
0.00490618
0.00490424
0.00490139
0.00489764
0.00489299
0.00488748
0.0048811
0.00487387
0.00486582
0.00485694
0.00484727
0.0048368
0.00482556
0.00481355
0.0048008
0.0047873
0.00477307
0.00475811
0.00474244
0.00472606
0.00470901
0.00469132
0.00467302
0.00465417
0.00463481
0.00461504
0.00459492
0.00457456
0.00455407
0.00453355
0.00451306
0.00449254
0.00447165
0.00444993
1.61486e-05
0.000119068
0.000236349
0.000337072
0.000420161
0.000488332
0.000544558
0.000591479
0.000631327
0.000665951
0.000696857
0.000725253
0.000752087
0.000778085
0.000803785
0.000829574
0.000855716
0.000882381
0.000909666
0.000937619
0.00096625
0.000995543
0.00102547
0.00105597
0.00108702
0.00111855
0.00115051
0.00118285
0.00121552
0.00124847
0.00128166
0.00131507
0.00134865
0.00138238
0.00141625
0.00145023
0.00148433
0.00151854
0.00155285
0.00158727
0.00162182
0.00165649
0.00169131
0.00172628
0.00176143
0.00179676
0.00183231
0.00186807
0.00190407
0.00194033
0.00197685
0.00201366
0.00205076
0.00208817
0.0021259
0.00216396
0.00220234
0.00224106