/*--------------------------------*- C++ -*----------------------------------*\
  =========                 |
  \\      /  F ield         | OpenFOAM: The Open Source CFD Toolbox
   \\    /   O peration     | Website:  https://openfoam.org
    \\  /    A nd           | Version:  9
     \\/     M anipulation  |
\*---------------------------------------------------------------------------*/
FoamFile
{
    format      ascii;
    class       volScalarField;
    location    "0.12";
    object      p;
}
// * * * * * * * * * * * * * * * * * * * * * * * * * * * * * * * * * * * * * //

dimensions      [0 2 -2 0 0 0 0];

internalField   nonuniform List<scalar> 
12225
(
-1.18171
-3.46462
-4.6269
-4.9348
-5.1027
-5.26194
-5.38593
-5.47362
-5.54233
-5.60224
-5.65509
-5.70062
-5.739
-5.7693
-5.7901
-5.79005
-5.77886
-5.65461
-4.64922
-5.35125
-5.44129
-5.30594
-5.26551
-5.33234
-5.41251
-5.47765
-5.53378
-5.5861
-5.63434
-5.67726
-5.71446
-5.74484
-5.76778
-5.77544
-5.7817
-5.75576
-4.85398
-4.75094
-4.90754
-5.02939
-5.1364
-5.25825
-5.36598
-5.44795
-5.51431
-5.57312
-5.62601
-5.67267
-5.71317
-5.74706
-5.77468
-5.79249
-5.81593
-5.84328
-4.7167
-4.63849
-4.91437
-5.09283
-5.18693
-5.28363
-5.3782
-5.45508
-5.51887
-5.57609
-5.62819
-5.67475
-5.71582
-5.75146
-5.78268
-5.80945
-5.84456
-5.89494
-4.72369
-4.74087
-4.98077
-5.13041
-5.2061
-5.29039
-5.37947
-5.45491
-5.5181
-5.57491
-5.62696
-5.67402
-5.71632
-5.75436
-5.78969
-5.82413
-5.86718
-5.92645
-4.78541
-4.8278
-5.00541
-5.13589
-5.21355
-5.29567
-5.38148
-5.45573
-5.51863
-5.57526
-5.62742
-5.67513
-5.71874
-5.75914
-5.79811
-5.83818
-5.88613
-5.94806
-4.8452
-4.88465
-5.02088
-5.14285
-5.22492
-5.30425
-5.38546
-5.45775
-5.52016
-5.57657
-5.62881
-5.67712
-5.722
-5.7645
-5.80646
-5.85038
-5.90099
-5.9623
-4.89841
-4.93324
-5.04338
-5.15577
-5.23803
-5.31356
-5.39008
-5.46024
-5.52204
-5.5782
-5.63049
-5.67936
-5.72539
-5.76968
-5.81391
-5.86025
-5.91183
-5.97084
-4.94828
-4.97995
-5.07058
-5.17117
-5.25096
-5.32309
-5.39544
-5.46333
-5.52431
-5.58012
-5.63239
-5.68171
-5.72869
-5.77434
-5.82011
-5.8677
-5.91905
-5.97512
-4.99573
-5.0243
-5.09933
-5.18803
-5.26415
-5.33323
-5.4018
-5.4672
-5.52709
-5.58241
-5.63453
-5.68412
-5.73175
-5.77831
-5.82494
-5.87286
-5.92322
-5.97623
-5.04062
-5.06585
-5.12852
-5.20639
-5.27804
-5.34405
-5.40907
-5.47187
-5.53044
-5.58511
-5.63693
-5.68657
-5.73453
-5.78153
-5.82843
-5.87604
-5.92497
-5.97503
-5.07926
-5.10154
-5.15526
-5.22436
-5.29141
-5.35445
-5.41644
-5.47683
-5.53402
-5.58793
-5.63933
-5.68878
-5.73676
-5.78379
-5.83051
-5.87742
-5.92485
-5.97244
-5.1151
-5.13485
-5.18127
-5.24265
-5.30504
-5.36505
-5.4242
-5.48225
-5.53795
-5.59098
-5.64182
-5.69093
-5.73868
-5.78547
-5.83171
-5.8777
-5.92357
-5.96893
-5.15282
-5.17008
-5.20979
-5.26365
-5.32085
-5.37736
-5.43345
-5.48892
-5.54283
-5.59471
-5.64473
-5.69323
-5.74046
-5.78667
-5.83208
-5.87684
-5.92093
-5.964
-5.19119
-5.20606
-5.23984
-5.28676
-5.33855
-5.3912
-5.44406
-5.49679
-5.54863
-5.59904
-5.64797
-5.69554
-5.7419
-5.78715
-5.83139
-5.87463
-5.9168
-5.95763
-5.22829
-5.24102
-5.26984
-5.3107
-5.3573
-5.40597
-5.45555
-5.50548
-5.55507
-5.60374
-5.65126
-5.69758
-5.74273
-5.78669
-5.82946
-5.87098
-5.91119
-5.94986
-5.26125
-5.27225
-5.29722
-5.33322
-5.37531
-5.4203
-5.4668
-5.51407
-5.5614
-5.60819
-5.65409
-5.69892
-5.74259
-5.78502
-5.82614
-5.86587
-5.90415
-5.94082
-5.28572
-5.29553
-5.31794
-5.35066
-5.38956
-5.43177
-5.47585
-5.52095
-5.56633
-5.61139
-5.65569
-5.69899
-5.74112
-5.78196
-5.82142
-5.85942
-5.89591
-5.93081
-5.29475
-5.30413
-5.32565
-5.35728
-5.39509
-5.43624
-5.47925
-5.52326
-5.56755
-5.6115
-5.65466
-5.69674
-5.73758
-5.77706
-5.8151
-5.85164
-5.88665
-5.92011
-5.28031
-5.29041
-5.31347
-5.34724
-5.3872
-5.43001
-5.47412
-5.51888
-5.56364
-5.60778
-5.65085
-5.69263
-5.73299
-5.77186
-5.80917
-5.8449
-5.87905
-5.91164
-5.25448
-5.26572
-5.2916
-5.32948
-5.37344
-5.41924
-5.46557
-5.51211
-5.55822
-5.60322
-5.64676
-5.68874
-5.72911
-5.76782
-5.80485
-5.84022
-5.87395
-5.9061
-5.21981
-5.23224
-5.26238
-5.30702
-5.35674
-5.40613
-5.45518
-5.50423
-5.55235
-5.59864
-5.64293
-5.68535
-5.72594
-5.7647
-5.80163
-5.83682
-5.8703
-5.90218
-5.17939
-5.19204
-5.22753
-5.2823
-5.33965
-5.39293
-5.44483
-5.4966
-5.54679
-5.59443
-5.63961
-5.68263
-5.72357
-5.76247
-5.79942
-5.83452
-5.86788
-5.8996
-5.1357
-5.14731
-5.18982
-5.25662
-5.32155
-5.37948
-5.43572
-5.49079
-5.54272
-5.59126
-5.63711
-5.68063
-5.72186
-5.76086
-5.79779
-5.83282
-5.86606
-5.89764
-5.08894
-5.09675
-5.15791
-5.23789
-5.30327
-5.36322
-5.42546
-5.48542
-5.53961
-5.58913
-5.63566
-5.67968
-5.72113
-5.76017
-5.79703
-5.83195
-5.86509
-5.8966
-5.04105
-5.01746
-5.12838
-5.2375
-5.29831
-5.3527
-5.41646
-5.4792
-5.5349
-5.58536
-5.63272
-5.67733
-5.71912
-5.7583
-5.79522
-5.83013
-5.86323
-5.89468
-5.03178
-4.88751
-5.04667
-5.21305
-5.29778
-5.35908
-5.4242
-5.48572
-5.53987
-5.58945
-5.63633
-5.6805
-5.72183
-5.76057
-5.79707
-5.83159
-5.86438
-5.89562
-5.1772
-4.89345
-4.92831
-5.05895
-5.17875
-5.28604
-5.38041
-5.45653
-5.51916
-5.57482
-5.62602
-5.67308
-5.71637
-5.75649
-5.79395
-5.82913
-5.86256
-5.89485
-5.11401
-5.61376
-5.624
-5.46492
-5.38418
-5.40864
-5.46309
-5.51284
-5.55833
-5.6033
-5.64738
-5.68928
-5.72863
-5.76563
-5.80046
-5.83323
-5.8642
-5.89521
-1.77535
-3.64596
-4.71735
-5.01058
-5.14563
-5.28264
-5.39486
-5.4752
-5.53853
-5.59495
-5.64669
-5.69382
-5.7369
-5.77667
-5.81355
-5.84754
-5.8783
-5.90405
-6.81906
-6.81863
-6.81874
-6.81943
-6.82047
-6.82171
-6.82316
-6.82483
-6.8268
-6.82911
-6.83186
-6.83508
-6.83886
-6.84327
-6.84837
-6.85425
-6.86095
-6.86855
-6.8771
-6.88667
-6.8973
-6.90912
-6.92223
-6.93634
-6.95118
-6.96773
-6.98643
-7.00763
-7.03251
-7.05773
-7.07136
-7.08321
-7.11554
-7.14374
-7.16074
-7.18179
-7.20414
-7.23006
-7.257
-7.2841
-7.3119
-7.34023
-7.36904
-7.39822
-7.42771
-7.45744
-7.48733
-7.51733
-7.54738
-7.5774
-7.60734
-7.63713
-7.66669
-7.69594
-7.7248
-7.75319
-7.781
-7.80813
-7.83447
-7.85992
-7.88434
-7.90761
-7.9296
-7.95016
-7.96915
-7.98642
-8.00181
-8.01517
-8.02631
-8.03509
-8.04131
-8.04482
-8.04542
-8.04294
-8.0372
-8.02801
-8.0152
-7.99857
-7.97795
-7.95316
-7.92402
-7.89035
-7.85198
-7.80874
-7.76046
-7.70697
-7.64812
-7.58376
-7.51373
-7.4379
-7.35613
-7.2683
-7.17429
-7.074
-6.96738
-6.85444
-6.73514
-6.60922
-6.47661
-6.33689
-6.19024
-6.03672
-5.87634
-5.70912
-5.53507
-5.35423
-5.16664
-4.97235
-4.77146
-4.56404
-4.3502
-4.13008
-3.90382
-3.67156
-3.43348
-3.18977
-2.94063
-2.68627
-2.42692
-2.16283
-1.89425
-1.62143
-1.34467
-1.06424
-0.780442
-0.493571
-0.20394
0.0881375
0.382341
0.678346
0.975827
1.27446
1.5739
1.87385
2.17395
2.4739
2.77338
3.07206
3.36965
3.66584
3.96034
4.25286
4.54314
4.8309
5.1159
5.39789
5.67664
5.95195
6.2236
6.49142
6.75521
7.01482
7.2701
7.52092
7.76714
8.00867
8.2454
8.47726
8.70417
8.92607
9.14295
9.35477
9.56152
9.76313
9.95946
10.1504
10.336
10.5164
10.6914
10.8613
11.0259
11.1853
11.3397
11.489
11.6335
11.7736
11.9105
12.0457
12.1897
12.3432
-6.81821
-6.81807
-6.81821
-6.81877
-6.81938
-6.81982
-6.8201
-6.82042
-6.821
-6.82202
-6.82357
-6.82571
-6.82848
-6.83191
-6.83603
-6.84088
-6.84652
-6.853
-6.86036
-6.86867
-6.87799
-6.88831
-6.89948
-6.91144
-6.92484
-6.93973
-6.95546
-6.97163
-6.98685
-6.99919
-7.02017
-7.0521
-7.06987
-7.08655
-7.11395
-7.14235
-7.17462
-7.20549
-7.23372
-7.26197
-7.29044
-7.31914
-7.34808
-7.37724
-7.40662
-7.43617
-7.46586
-7.49564
-7.52547
-7.55527
-7.58501
-7.61461
-7.644
-7.6731
-7.70184
-7.73013
-7.75787
-7.78497
-7.8113
-7.83677
-7.86125
-7.88462
-7.90673
-7.92745
-7.94664
-7.96415
-7.97981
-7.99348
-8.00498
-8.01414
-8.0208
-8.02478
-8.0259
-8.02398
-8.01883
-8.01029
-7.99816
-7.98227
-7.96243
-7.93846
-7.91019
-7.87744
-7.84003
-7.79779
-7.75057
-7.69819
-7.64051
-7.57737
-7.50861
-7.43412
-7.35374
-7.26736
-7.17485
-7.0761
-6.97098
-6.85939
-6.74127
-6.61622
-6.48423
-6.34579
-6.20067
-6.04876
-5.89005
-5.72452
-5.55218
-5.37305
-5.18718
-4.99462
-4.79544
-4.58974
-4.37761
-4.15919
-3.9346
-3.704
-3.46756
-3.22546
-2.9779
-2.72509
-2.46726
-2.20464
-1.93749
-1.66606
-1.39064
-1.11149
-0.828924
-0.543229
-0.254715
0.0363062
0.329515
0.62459
0.921207
1.21904
1.51776
1.81704
2.11655
2.41598
2.715
3.0133
3.31057
3.60651
3.90083
4.19323
4.48346
4.77123
5.0563
5.33843
5.61738
5.89293
6.16488
6.43304
6.69723
6.95728
7.21305
7.46438
7.71116
7.95328
8.19063
8.42313
8.65072
8.87333
9.09093
9.30349
9.511
9.71334
9.9104
10.1021
10.2885
10.4696
10.6455
10.8161
10.9815
11.1418
11.2969
11.4472
11.5928
11.7342
11.8729
12.0102
12.1569
12.3036
-6.81473
-6.81553
-6.81654
-6.81761
-6.81837
-6.81875
-6.8189
-6.81904
-6.81939
-6.82011
-6.82133
-6.82313
-6.82558
-6.8287
-6.83256
-6.83719
-6.84265
-6.84897
-6.85621
-6.86442
-6.87365
-6.88396
-6.89529
-6.9076
-6.92116
-6.93612
-6.95216
-6.969
-6.98636
-7.00413
-7.02429
-7.04755
-7.06995
-7.09196
-7.1162
-7.14125
-7.16766
-7.19458
-7.22149
-7.24884
-7.27659
-7.30467
-7.33302
-7.36162
-7.39044
-7.41944
-7.44858
-7.47783
-7.50713
-7.53644
-7.5657
-7.59484
-7.6238
-7.6525
-7.68086
-7.7088
-7.73622
-7.76302
-7.78911
-7.81436
-7.83865
-7.86186
-7.88387
-7.90452
-7.92368
-7.9412
-7.95693
-7.97069
-7.98235
-7.99171
-7.99862
-8.0029
-8.00437
-8.00286
-7.99818
-7.99016
-7.97861
-7.96335
-7.94421
-7.92099
-7.89353
-7.86164
-7.82517
-7.78392
-7.73775
-7.68648
-7.62996
-7.56804
-7.50057
-7.42741
-7.34843
-7.26348
-7.17245
-7.07523
-6.9717
-6.86169
-6.74499
-6.62193
-6.49201
-6.35545
-6.21219
-6.06218
-5.90539
-5.7418
-5.57143
-5.39428
-5.21041
-5.01985
-4.82269
-4.61899
-4.40888
-4.19245
-3.96985
-3.74122
-3.50673
-3.26656
-3.0209
-2.76995
-2.51395
-2.25311
-1.9877
-1.71797
-1.44419
-1.16663
-0.885592
-0.601364
-0.314253
-0.0245672
0.267376
0.561258
0.856755
1.15354
1.4513
1.74969
2.0484
2.3471
2.64548
2.94321
3.24
3.53555
3.82954
4.12171
4.41178
4.69947
4.98453
5.26672
5.54581
5.82157
6.09379
6.36229
6.62687
6.88738
7.14365
7.39554
7.64292
7.88569
8.12373
8.35695
8.58529
8.80866
9.02703
9.24035
9.44857
9.65165
9.84955
10.0422
10.2296
10.4116
10.5885
10.7601
10.9264
11.0877
11.2439
11.3953
11.5422
11.6851
11.8257
11.9645
12.1132
12.248
-6.80833
-6.81049
-6.81287
-6.8149
-6.81627
-6.81708
-6.81757
-6.81795
-6.81844
-6.81922
-6.82042
-6.82215
-6.82451
-6.82755
-6.83133
-6.8359
-6.84131
-6.8476
-6.85482
-6.86302
-6.87224
-6.88251
-6.89385
-6.90626
-6.9198
-6.93453
-6.95038
-6.96722
-6.98499
-7.00374
-7.02376
-7.04506
-7.06719
-7.09001
-7.11383
-7.13852
-7.16389
-7.18976
-7.21603
-7.24275
-7.26985
-7.29729
-7.32503
-7.35305
-7.38132
-7.40979
-7.43843
-7.4672
-7.49606
-7.52494
-7.55381
-7.58258
-7.6112
-7.63959
-7.66768
-7.69537
-7.72258
-7.7492
-7.77513
-7.80026
-7.82447
-7.84763
-7.86961
-7.89028
-7.90949
-7.9271
-7.94294
-7.95687
-7.96871
-7.97831
-7.98549
-7.99008
-7.99191
-7.99079
-7.98654
-7.97899
-7.96796
-7.95326
-7.93471
-7.91214
-7.88536
-7.85421
-7.8185
-7.77807
-7.73275
-7.68239
-7.62681
-7.56587
-7.49942
-7.42731
-7.34941
-7.26559
-7.1757
-7.07965
-6.9773
-6.86852
-6.75321
-6.63137
-6.50291
-6.36781
-6.22602
-6.0775
-5.92221
-5.76014
-5.5913
-5.4157
-5.23337
-5.04438
-4.84877
-4.64664
-4.43807
-4.2232
-4.00214
-3.77504
-3.54206
-3.30339
-3.0592
-2.8097
-2.55511
-2.29567
-2.03161
-1.7632
-1.4907
-1.21438
-0.934533
-0.651452
-0.365438
-0.0767988
0.214152
0.507096
0.801712
1.09768
1.39467
1.69236
1.99043
2.28855
2.58641
2.8837
3.1801
3.47532
3.76905
4.06102
4.35095
4.63856
4.92361
5.20584
5.48502
5.76093
6.03336
6.30211
6.567
6.82785
7.08451
7.33684
7.5847
7.82797
8.06654
8.30032
8.52925
8.75325
8.97226
9.18622
9.39505
9.59871
9.79719
9.99047
10.1785
10.3613
10.5388
10.7111
10.8782
11.0402
11.1972
11.3494
11.4972
11.641
11.7824
11.921
12.0681
12.1896
-6.80014
-6.80376
-6.80789
-6.8113
-6.81364
-6.8152
-6.8163
-6.81719
-6.81809
-6.81921
-6.82069
-6.82268
-6.82526
-6.82852
-6.83253
-6.83734
-6.843
-6.84957
-6.85709
-6.86559
-6.87512
-6.8857
-6.89735
-6.91008
-6.92389
-6.93881
-6.95479
-6.97176
-6.9897
-7.00859
-7.02848
-7.04934
-7.07102
-7.09348
-7.11675
-7.14081
-7.16555
-7.19083
-7.21656
-7.2427
-7.26924
-7.29613
-7.32335
-7.35087
-7.37866
-7.40669
-7.43492
-7.4633
-7.49179
-7.52035
-7.54891
-7.57741
-7.60578
-7.63396
-7.66186
-7.68939
-7.71647
-7.74298
-7.76884
-7.79391
-7.8181
-7.84126
-7.86327
-7.88399
-7.90329
-7.921
-7.93698
-7.95106
-7.96309
-7.97291
-7.98033
-7.98518
-7.9873
-7.9865
-7.9826
-7.97543
-7.9648
-7.95053
-7.93244
-7.91035
-7.88409
-7.85347
-7.81834
-7.77851
-7.73382
-7.68411
-7.62921
-7.56898
-7.50327
-7.43192
-7.35481
-7.27179
-7.18274
-7.08753
-6.98606
-6.87823
-6.7639
-6.64305
-6.51561
-6.38153
-6.24077
-6.09329
-5.93904
-5.77802
-5.61024
-5.4357
-5.25444
-5.06651
-4.87196
-4.67089
-4.46339
-4.24957
-4.02956
-3.8035
-3.57155
-3.33388
-3.09069
-2.84218
-2.58855
-2.33005
-2.06691
-1.7994
-1.52776
-1.25228
-0.973248
-0.690947
-0.405679
-0.117752
0.172523
0.464827
0.758842
1.05424
1.35071
1.64792
1.94555
2.24328
2.54078
2.83776
3.13389
3.42888
3.72243
4.01426
4.30409
4.59165
4.87668
5.15893
5.43818
5.71419
5.98676
6.25569
6.52078
6.78188
7.03882
7.29144
7.53963
7.78325
8.02221
8.25641
8.48577
8.7102
8.92965
9.14403
9.35328
9.55732
9.75617
9.94984
10.1383
10.3215
10.4995
10.6722
10.8398
11.0022
11.1597
11.3123
11.4605
11.6046
11.7458
11.8831
12.0268
12.1361
-6.79191
-6.79689
-6.80275
-6.80761
-6.81106
-6.81353
-6.81542
-6.81701
-6.81855
-6.82025
-6.82227
-6.82476
-6.82783
-6.83157
-6.83607
-6.84137
-6.84754
-6.85462
-6.86264
-6.87166
-6.88168
-6.89273
-6.90481
-6.91794
-6.93209
-6.94726
-6.96342
-6.98051
-6.99852
-7.01741
-7.03717
-7.05775
-7.0791
-7.10117
-7.12395
-7.14741
-7.17149
-7.19612
-7.22125
-7.24683
-7.27283
-7.29923
-7.32599
-7.35308
-7.38048
-7.40814
-7.43603
-7.46411
-7.49232
-7.52063
-7.54897
-7.57728
-7.6055
-7.63354
-7.66133
-7.68878
-7.7158
-7.74228
-7.76812
-7.79321
-7.81743
-7.84064
-7.86273
-7.88355
-7.90295
-7.9208
-7.93692
-7.95118
-7.9634
-7.97341
-7.98105
-7.98615
-7.98852
-7.98799
-7.98437
-7.9775
-7.96719
-7.95326
-7.93552
-7.9138
-7.88793
-7.85772
-7.823
-7.78361
-7.73937
-7.69013
-7.63573
-7.576
-7.51081
-7.44001
-7.36346
-7.28102
-7.19256
-7.09797
-6.99714
-6.88996
-6.77633
-6.6562
-6.52947
-6.3961
-6.25605
-6.10927
-5.95573
-5.79542
-5.62834
-5.45451
-5.27396
-5.08673
-4.8929
-4.69254
-4.48574
-4.27261
-4.0533
-3.82792
-3.59666
-3.35966
-3.11713
-2.86927
-2.61629
-2.35841
-2.09589
-1.82897
-1.55792
-1.28301
-1.00452
-0.722747
-0.437985
-0.150542
0.13927
0.431135
0.724735
1.01975
1.31585
1.61273
1.91004
2.20749
2.50474
2.80149
3.09742
3.39224
3.68566
3.97737
4.26712
4.55462
4.83963
5.12189
5.40116
5.67723
5.94988
6.21892
6.48415
6.7454
7.00251
7.25534
7.50375
7.74762
7.98684
8.22132
8.45095
8.67567
8.8954
9.11006
9.31958
9.52389
9.723
9.91692
10.1056
10.2891
10.4674
10.6404
10.8082
10.971
11.1287
11.2815
11.4298
11.5737
11.7143
11.8497
11.9899
12.0882
-6.78521
-6.7913
-6.79859
-6.80474
-6.80926
-6.81267
-6.8154
-6.81778
-6.82005
-6.82244
-6.82513
-6.82826
-6.83196
-6.83633
-6.84145
-6.84737
-6.85414
-6.86182
-6.87043
-6.87999
-6.89053
-6.90205
-6.91455
-6.92802
-6.94245
-6.95782
-6.97409
-6.99124
-7.00922
-7.02802
-7.04761
-7.06794
-7.08899
-7.11073
-7.13312
-7.15613
-7.17973
-7.20387
-7.22852
-7.25365
-7.27923
-7.30523
-7.33163
-7.35838
-7.38547
-7.41286
-7.44051
-7.46837
-7.4964
-7.52455
-7.55276
-7.58097
-7.60911
-7.6371
-7.66486
-7.69231
-7.71934
-7.74585
-7.77175
-7.79691
-7.82122
-7.84454
-7.86674
-7.88769
-7.90724
-7.92524
-7.94153
-7.95596
-7.96837
-7.97858
-7.98642
-7.99172
-7.99431
-7.99401
-7.99063
-7.984
-7.97393
-7.96025
-7.94278
-7.92133
-7.89573
-7.86581
-7.83138
-7.79229
-7.74837
-7.69945
-7.64538
-7.586
-7.52116
-7.45073
-7.37455
-7.2925
-7.20445
-7.11028
-7.00987
-6.90314
-6.78997
-6.6703
-6.54403
-6.41112
-6.27152
-6.12519
-5.97209
-5.81223
-5.64559
-5.4722
-5.29209
-5.10531
-4.91192
-4.71199
-4.50563
-4.29295
-4.07407
-3.84913
-3.61829
-3.38173
-3.13962
-2.89218
-2.63961
-2.38215
-2.12002
-1.8535
-1.58283
-1.3083
-1.03018
-0.74876
-0.464343
-0.177233
0.112258
0.403817
0.697123
0.991857
1.2877
1.58432
1.88141
2.17864
2.4757
2.77226
3.06804
3.36272
3.65601
3.94762
4.23728
4.52472
4.80968
5.09191
5.37118
5.64726
5.91993
6.18901
6.45431
6.71565
6.97286
7.22581
7.47436
7.71838
7.95776
8.1924
8.42221
8.64711
8.86702
9.08186
9.29155
9.49604
9.69534
9.88944
10.0783
10.262
10.4404
10.6137
10.7817
10.9446
11.1024
11.2553
11.4034
11.5469
11.6865
11.8197
11.9566
12.0455
-6.7811
-6.78796
-6.79629
-6.80343
-6.80886
-6.8131
-6.81663
-6.81978
-6.82279
-6.8259
-6.82929
-6.8331
-6.83747
-6.8425
-6.84825
-6.8548
-6.86218
-6.87044
-6.8796
-6.88968
-6.90068
-6.91261
-6.92546
-6.93921
-6.95385
-6.96936
-6.98571
-7.00286
-7.02079
-7.03948
-7.0589
-7.07901
-7.09981
-7.12125
-7.14332
-7.16599
-7.18923
-7.21302
-7.23733
-7.26213
-7.2874
-7.31311
-7.33925
-7.36578
-7.39267
-7.41988
-7.44738
-7.47513
-7.50307
-7.53116
-7.55933
-7.58752
-7.61567
-7.64369
-7.6715
-7.69901
-7.72612
-7.75274
-7.77874
-7.80403
-7.82847
-7.85193
-7.87429
-7.8954
-7.91511
-7.93328
-7.94975
-7.96436
-7.97694
-7.98733
-7.99535
-8.00083
-8.0036
-8.00348
-8.00028
-7.99382
-7.98394
-7.97043
-7.95314
-7.93187
-7.90644
-7.8767
-7.84246
-7.80355
-7.75981
-7.71109
-7.65721
-7.59803
-7.53341
-7.46318
-7.38723
-7.30541
-7.2176
-7.12367
-7.02353
-6.91705
-6.80415
-6.68473
-6.55872
-6.42607
-6.28671
-6.14061
-5.98776
-5.82813
-5.66172
-5.48857
-5.30869
-5.12214
-4.92898
-4.7293
-4.52317
-4.31073
-4.09209
-3.8674
-3.6368
-3.40048
-3.15862
-2.91143
-2.6591
-2.40189
-2.14001
-1.87373
-1.60331
-1.32902
-1.05113
-0.769951
-0.485766
-0.198883
0.0903862
0.381728
0.674823
0.969353
1.265
1.56143
1.85834
2.1554
2.45229
2.74871
3.04434
3.33889
3.63206
3.92357
4.21313
4.50048
4.78537
5.06754
5.34676
5.62281
5.89547
6.16455
6.42985
6.69121
6.94847
7.20147
7.45007
7.69417
7.93363
8.16836
8.39827
8.62327
8.84327
9.05821
9.26802
9.47263
9.67205
9.86628
10.0553
10.2391
10.4176
10.591
10.7591
10.922
11.0798
11.2326
11.3804
11.5233
11.6616
11.7926
11.9266
12.0073
-6.78006
-6.78736
-6.7963
-6.8041
-6.8102
-6.81512
-6.81933
-6.82315
-6.82684
-6.83061
-6.83464
-6.83909
-6.84408
-6.84971
-6.85605
-6.86315
-6.87107
-6.87983
-6.88945
-6.89995
-6.91132
-6.92357
-6.93668
-6.95064
-6.96542
-6.98101
-6.99739
-7.01452
-7.03239
-7.05097
-7.07024
-7.09018
-7.11076
-7.13198
-7.15381
-7.17623
-7.19922
-7.22277
-7.24684
-7.27143
-7.29651
-7.32205
-7.34804
-7.37445
-7.40124
-7.42838
-7.45584
-7.48357
-7.51151
-7.53963
-7.56785
-7.59611
-7.62434
-7.65246
-7.68038
-7.70802
-7.73528
-7.76204
-7.78821
-7.81366
-7.83827
-7.8619
-7.88443
-7.90571
-7.9256
-7.94394
-7.96057
-7.97534
-7.98808
-7.99862
-8.00679
-8.01241
-8.01531
-8.01531
-8.01223
-8.00589
-7.99611
-7.9827
-7.9655
-7.94431
-7.91898
-7.88931
-7.85515
-7.81631
-7.77265
-7.724
-7.6702
-7.6111
-7.54656
-7.47642
-7.40056
-7.31884
-7.23112
-7.1373
-7.03726
-6.93089
-6.81809
-6.69876
-6.57284
-6.44026
-6.30098
-6.15496
-6.00217
-5.84261
-5.67628
-5.50319
-5.32339
-5.13692
-4.94384
-4.74423
-4.5382
-4.32585
-4.1073
-3.88271
-3.65223
-3.41602
-3.17428
-2.92721
-2.67502
-2.41793
-2.15619
-1.89006
-1.61978
-1.34564
-1.06791
-0.786882
-0.502853
-0.216129
0.0729804
0.364162
0.657097
0.951466
1.24695
1.54323
1.83998
2.13689
2.43364
2.72991
3.0254
3.31981
3.61285
3.90423
4.19368
4.48093
4.76571
5.0478
5.32694
5.60291
5.87551
6.14454
6.40981
6.67113
6.92837
7.18136
7.42996
7.67406
7.91354
8.1483
8.37824
8.60327
8.82332
9.03831
9.24817
9.45285
9.65234
9.84664
10.0357
10.2196
10.3982
10.5716
10.7397
10.9026
11.0603
11.2128
11.3602
11.5023
11.6393
11.768
11.8993
11.973
-6.78221
-6.7896
-6.79875
-6.80686
-6.81337
-6.81877
-6.82349
-6.82785
-6.83208
-6.83639
-6.84097
-6.84595
-6.85145
-6.85756
-6.86436
-6.87191
-6.88024
-6.88938
-6.89934
-6.91014
-6.92177
-6.93423
-6.9475
-6.96158
-6.97644
-6.99207
-7.00844
-7.02553
-7.04333
-7.06182
-7.08097
-7.10077
-7.12122
-7.14228
-7.16395
-7.18622
-7.20906
-7.23247
-7.25642
-7.2809
-7.3059
-7.33138
-7.35733
-7.38372
-7.41052
-7.4377
-7.4652
-7.493
-7.52104
-7.54926
-7.57761
-7.606
-7.63438
-7.66267
-7.69076
-7.71858
-7.74601
-7.77296
-7.79932
-7.82495
-7.84974
-7.87356
-7.89626
-7.91771
-7.93776
-7.95625
-7.97302
-7.98792
-8.00078
-8.01142
-8.01969
-8.02539
-8.02836
-8.02842
-8.02538
-8.01907
-8.00931
-7.99592
-7.97872
-7.95754
-7.93219
-7.90251
-7.86832
-7.82946
-7.78577
-7.73709
-7.68326
-7.62414
-7.55956
-7.4894
-7.41352
-7.33178
-7.24405
-7.15022
-7.05016
-6.94375
-6.83091
-6.71154
-6.58557
-6.45293
-6.3136
-6.16752
-6.01467
-5.85505
-5.68866
-5.51553
-5.33568
-5.14916
-4.95605
-4.75642
-4.55037
-4.33801
-4.11946
-3.89488
-3.66441
-3.42824
-3.18653
-2.9395
-2.68736
-2.43034
-2.16868
-1.90262
-1.63243
-1.35839
-1.08076
-0.79985
-0.515941
-0.229343
0.0596347
0.35068
0.643475
0.937701
1.23304
1.52916
1.82576
2.12251
2.41909
2.71521
3.01055
3.30481
3.59769
3.88893
4.17823
4.46534
4.74999
5.03194
5.31096
5.58682
5.85932
6.12824
6.39342
6.65466
6.91182
7.16475
7.4133
7.65735
7.89679
8.13152
8.36143
8.58645
8.80649
9.02147
9.23134
9.43605
9.63557
9.82989
10.019
10.2029
10.3815
10.5549
10.7229
10.8858
11.0433
11.1955
11.3423
11.4835
11.6191
11.7456
11.8745
11.9421
-6.78728
-6.79449
-6.80347
-6.81158
-6.81824
-6.82389
-6.82893
-6.83365
-6.83826
-6.84297
-6.84793
-6.85329
-6.85916
-6.86562
-6.87274
-6.88058
-6.88918
-6.89855
-6.90872
-6.91969
-6.93146
-6.94402
-6.95738
-6.9715
-6.98638
-7.00199
-7.01833
-7.03538
-7.05311
-7.07152
-7.09059
-7.11031
-7.13067
-7.15165
-7.17325
-7.19545
-7.21824
-7.24161
-7.26555
-7.29003
-7.31505
-7.34057
-7.36659
-7.39306
-7.41996
-7.44725
-7.47489
-7.50284
-7.53104
-7.55944
-7.58796
-7.61655
-7.64513
-7.67361
-7.70191
-7.72992
-7.75756
-7.7847
-7.81124
-7.83706
-7.86202
-7.88599
-7.90885
-7.93043
-7.9506
-7.96919
-7.98606
-8.00103
-8.01394
-8.02463
-8.03291
-8.03862
-8.04158
-8.04161
-8.03854
-8.03218
-8.02235
-8.00888
-7.99159
-7.97031
-7.94486
-7.91507
-7.88076
-7.84179
-7.79798
-7.74917
-7.69522
-7.63597
-7.57128
-7.501
-7.425
-7.34315
-7.25531
-7.16136
-7.06116
-6.95461
-6.84161
-6.72209
-6.59596
-6.46317
-6.32368
-6.17744
-6.02444
-5.86468
-5.69815
-5.52488
-5.3449
-5.15827
-4.96505
-4.76533
-4.55919
-4.34676
-4.12816
-3.90353
-3.67303
-3.43683
-3.19512
-2.9481
-2.69598
-2.43899
-2.17737
-1.91137
-1.64125
-1.36729
-1.08976
-0.80895
-0.525161
-0.238692
0.0501485
0.341048
0.63369
0.927757
1.22293
1.51888
1.8153
2.11187
2.40827
2.7042
2.99935
3.29342
3.58612
3.87716
4.16628
4.4532
4.73767
5.01945
5.2983
5.57399
5.84633
6.1151
6.38013
6.64124
6.89828
7.15108
7.39953
7.64348
7.88284
8.11748
8.34732
8.57228
8.79226
9.0072
9.21704
9.42173
9.62124
9.81555
10.0046
10.1885
10.3671
10.5404
10.7084
10.8711
11.0284
11.1802
11.3264
11.4665
11.6008
11.7252
11.8517
11.9143
-6.79478
-6.80159
-6.81012
-6.81794
-6.82451
-6.8302
-6.83536
-6.84024
-6.84506
-6.84998
-6.85516
-6.86073
-6.8668
-6.87344
-6.88072
-6.8887
-6.89741
-6.90688
-6.91712
-6.92813
-6.93993
-6.95251
-6.96585
-6.97995
-6.9948
-7.01037
-7.02666
-7.04365
-7.06134
-7.0797
-7.09872
-7.11841
-7.13874
-7.15971
-7.18132
-7.20354
-7.22637
-7.24979
-7.27381
-7.29839
-7.32352
-7.34917
-7.37533
-7.40197
-7.42905
-7.45653
-7.48437
-7.51252
-7.54093
-7.56954
-7.59829
-7.62709
-7.65588
-7.68457
-7.71307
-7.74127
-7.76909
-7.7964
-7.8231
-7.84905
-7.87413
-7.89821
-7.92115
-7.9428
-7.96302
-7.98164
-7.99851
-8.01347
-8.02635
-8.03698
-8.04519
-8.05081
-8.05367
-8.05357
-8.05036
-8.04385
-8.03386
-8.02022
-8.00274
-7.98127
-7.95562
-7.92563
-7.89112
-7.85195
-7.80793
-7.75892
-7.70477
-7.64532
-7.58043
-7.50997
-7.43379
-7.35175
-7.26372
-7.16954
-7.06911
-6.96233
-6.8491
-6.72934
-6.60297
-6.46996
-6.33024
-6.18378
-6.03058
-5.87061
-5.70389
-5.53044
-5.35029
-5.16351
-4.97015
-4.7703
-4.56405
-4.35153
-4.13285
-3.90816
-3.67761
-3.44139
-3.19967
-2.95266
-2.70056
-2.44362
-2.18206
-1.91613
-1.6461
-1.37224
-1.09482
-0.814147
-0.530503
-0.244191
0.0444811
0.335202
0.627656
0.921525
1.21649
1.51223
1.80842
2.10476
2.40093
2.69662
2.99153
3.28536
3.57781
3.86862
4.15749
4.44417
4.72841
5.00995
5.28857
5.56404
5.83616
6.10473
6.36956
6.63048
6.88733
7.13997
7.38825
7.63206
7.87127
8.10579
8.33552
8.56036
8.78025
8.99511
9.20489
9.40952
9.60899
9.80327
9.99232
10.1761
10.3547
10.5279
10.6958
10.8582
11.0152
11.1665
11.3121
11.4512
11.584
11.7064
11.8308
11.8893
-6.80414
-6.81038
-6.81824
-6.82556
-6.83183
-6.83735
-6.84242
-6.84727
-6.85209
-6.85704
-6.86226
-6.86786
-6.87395
-6.8806
-6.88788
-6.89584
-6.90452
-6.91395
-6.92413
-6.93508
-6.94681
-6.95931
-6.97258
-6.9866
-7.00137
-7.01687
-7.0331
-7.05005
-7.0677
-7.08604
-7.10507
-7.12477
-7.14514
-7.16617
-7.18785
-7.21017
-7.23312
-7.25668
-7.28085
-7.3056
-7.33091
-7.35677
-7.38314
-7.41
-7.4373
-7.465
-7.49307
-7.52145
-7.55009
-7.57891
-7.60786
-7.63687
-7.66584
-7.6947
-7.72335
-7.75169
-7.77962
-7.80703
-7.8338
-7.8598
-7.88492
-7.90901
-7.93193
-7.95354
-7.97369
-7.99223
-8.00899
-8.02382
-8.03655
-8.04701
-8.05504
-8.06045
-8.06308
-8.06275
-8.05929
-8.05252
-8.04227
-8.02836
-8.01061
-7.98886
-7.96293
-7.93266
-7.89788
-7.85843
-7.81415
-7.76488
-7.71047
-7.65077
-7.58565
-7.51495
-7.43854
-7.35624
-7.26792
-7.17345
-7.07273
-6.96565
-6.85213
-6.73209
-6.60545
-6.47217
-6.33219
-6.1855
-6.03206
-5.87188
-5.70496
-5.53132
-5.35101
-5.16408
-4.97059
-4.77063
-4.56429
-4.35169
-4.13295
-3.90822
-3.67766
-3.44144
-3.19975
-2.95278
-2.70075
-2.44389
-2.18243
-1.91662
-1.64673
-1.37302
-1.09577
-0.81528
-0.531837
-0.245741
0.0427019
0.333181
0.625381
0.918985
1.21367
1.50913
1.80503
2.10108
2.39694
2.69233
2.98693
3.28044
3.57258
3.86307
4.15164
4.43801
4.72194
5.00318
5.28151
5.55669
5.82853
6.09683
6.3614
6.62208
6.87869
7.1311
7.37917
7.62278
7.86181
8.09615
8.32572
8.55042
8.77018
8.98493
9.1946
9.39916
9.59856
9.79277
9.98176
10.1655
10.344
10.5171
10.6848
10.847
11.0036
11.1545
11.2993
11.4374
11.5688
11.6893
11.8116
11.8667
-6.81475
-6.82035
-6.82741
-6.83407
-6.83986
-6.84501
-6.84979
-6.85441
-6.85903
-6.8638
-6.86885
-6.87429
-6.88022
-6.88671
-6.89383
-6.90163
-6.91014
-6.91939
-6.92941
-6.9402
-6.95177
-6.96412
-6.97725
-6.99115
-7.00582
-7.02124
-7.03741
-7.05432
-7.07195
-7.09031
-7.10938
-7.12914
-7.14961
-7.17075
-7.19257
-7.21505
-7.23817
-7.26193
-7.2863
-7.31127
-7.33682
-7.3629
-7.3895
-7.41659
-7.44411
-7.47204
-7.50031
-7.52888
-7.55769
-7.58667
-7.61576
-7.64488
-7.67395
-7.70288
-7.73157
-7.75993
-7.78786
-7.81523
-7.84194
-7.86786
-7.89286
-7.91681
-7.93957
-7.961
-7.98094
-7.99924
-8.01575
-8.03031
-8.04275
-8.05291
-8.06061
-8.0657
-8.06799
-8.06731
-8.0635
-8.05638
-8.04577
-8.0315
-8.01341
-7.99131
-7.96505
-7.93445
-7.89935
-7.85959
-7.81501
-7.76545
-7.71077
-7.65081
-7.58543
-7.51447
-7.43776
-7.35514
-7.26649
-7.1717
-7.07066
-6.96327
-6.84945
-6.72912
-6.60221
-6.46867
-6.32845
-6.18153
-6.02788
-5.86751
-5.70042
-5.52663
-5.34619
-5.15915
-4.96557
-4.76554
-4.55916
-4.34654
-4.1278
-3.9031
-3.67259
-3.43644
-3.19484
-2.94799
-2.6961
-2.4394
-2.17812
-1.91251
-1.64284
-1.36936
-1.09237
-0.812153
-0.528998
-0.243206
0.0449185
0.335066
0.626922
0.920171
1.2145
1.50958
1.8051
2.10076
2.39624
2.69122
2.98543
3.27854
3.57029
3.86038
4.14855
4.43454
4.71808
4.99895
5.27691
5.55174
5.82323
6.09119
6.35544
6.6158
6.87212
7.12425
7.37206
7.61541
7.85421
8.08834
8.3177
8.54222
8.76182
8.97643
9.18598
9.39043
9.58973
9.78386
9.97277
10.1564
10.3348
10.5078
10.6753
10.8373
10.9935
11.1438
11.2878
11.4249
11.5549
11.6736
11.794
11.8464
-6.82616
-6.83109
-6.83729
-6.84318
-6.84832
-6.85292
-6.8572
-6.86135
-6.86555
-6.86991
-6.87458
-6.87967
-6.88525
-6.89141
-6.89821
-6.90569
-6.9139
-6.92287
-6.93262
-6.94316
-6.9545
-6.96664
-6.97959
-6.99333
-7.00787
-7.0232
-7.03931
-7.05619
-7.07383
-7.09223
-7.11137
-7.13124
-7.15182
-7.17312
-7.19511
-7.21777
-7.2411
-7.26506
-7.28965
-7.31483
-7.34058
-7.36686
-7.39365
-7.4209
-7.44857
-7.47662
-7.50499
-7.53364
-7.56249
-7.5915
-7.62057
-7.64965
-7.67864
-7.70746
-7.73602
-7.76422
-7.79195
-7.81911
-7.84557
-7.87122
-7.89593
-7.91956
-7.94199
-7.96305
-7.98262
-8.00053
-8.01664
-8.03079
-8.0428
-8.05253
-8.0598
-8.06444
-8.0663
-8.06519
-8.06094
-8.05339
-8.04237
-8.0277
-8.00921
-7.98674
-7.96012
-7.92917
-7.89375
-7.85368
-7.80881
-7.75898
-7.70405
-7.64384
-7.5782
-7.50693
-7.42987
-7.34691
-7.25793
-7.16283
-7.06149
-6.95382
-6.83973
-6.71915
-6.592
-6.45825
-6.31784
-6.17075
-6.01696
-5.85647
-5.68928
-5.51542
-5.33493
-5.14786
-4.95429
-4.75428
-4.54795
-4.3354
-4.11677
-3.89219
-3.66183
-3.42586
-3.18446
-2.93784
-2.6862
-2.42976
-2.16878
-1.90348
-1.63414
-1.36102
-1.0844
-0.804572
-0.521821
-0.236448
0.0512436
0.340945
0.632343
0.925124
1.21897
1.51357
1.80861
2.10377
2.39875
2.69324
2.98694
3.27956
3.57081
3.86041
4.14809
4.4336
4.71668
4.99709
5.2746
5.54899
5.82006
6.08761
6.35147
6.61146
6.86742
7.11921
7.3667
7.60976
7.84827
8.08214
8.31127
8.53558
8.75499
8.96942
9.17883
9.38315
9.58235
9.77638
9.9652
10.1488
10.327
10.4998
10.6672
10.8289
10.9847
11.1345
11.2778
11.4138
11.5425
11.6595
11.7779
11.8282
-6.83849
-6.84278
-6.84813
-6.85316
-6.85748
-6.86127
-6.86478
-6.86819
-6.87167
-6.87536
-6.87939
-6.88386
-6.88888
-6.8945
-6.90079
-6.90781
-6.91557
-6.92413
-6.93349
-6.94367
-6.95469
-6.96655
-6.97924
-6.99278
-7.00716
-7.02236
-7.03839
-7.05523
-7.07286
-7.09129
-7.11049
-7.13045
-7.15115
-7.17258
-7.1947
-7.21752
-7.24099
-7.26509
-7.28981
-7.3151
-7.34093
-7.36728
-7.39409
-7.42135
-7.44898
-7.47696
-7.50523
-7.53374
-7.56241
-7.5912
-7.62002
-7.64881
-7.67749
-7.70597
-7.73415
-7.76195
-7.78925
-7.81596
-7.84195
-7.86712
-7.89132
-7.91444
-7.93633
-7.95687
-7.97589
-7.99326
-8.00882
-8.02242
-8.03389
-8.04308
-8.04982
-8.05394
-8.05529
-8.05368
-8.04896
-8.04096
-8.02949
-8.01441
-7.99553
-7.9727
-7.94574
-7.91448
-7.87877
-7.83845
-7.79335
-7.74333
-7.68818
-7.62772
-7.56177
-7.49017
-7.4128
-7.32955
-7.2403
-7.14495
-7.04338
-6.9355
-6.82122
-6.70048
-6.5732
-6.43933
-6.29884
-6.15169
-5.99787
-5.83737
-5.6702
-5.49639
-5.31598
-5.12902
-4.93558
-4.73574
-4.5296
-4.31727
-4.09888
-3.87458
-3.64452
-3.40887
-3.16783
-2.92158
-2.67034
-2.41433
-2.15379
-1.88897
-1.62011
-1.3475
-1.07141
-0.792124
-0.509931
-0.22513
0.0619762
0.351081
0.641872
0.934039
1.22727
1.52124
1.81565
2.11018
2.40452