# vtk DataFile Version 2.0
sampleSurface
ASCII
DATASET POLYDATA
POINTS 502 float
-0.0206 0 -0.0005 -0.0190172 0 -0.0005 -0.0190172 0 0.0005 -0.0206 0
0.0005 -0.0174976 0 -0.0005 -0.0174976 0 0.0005 -0.0160387 0 -0.0005
-0.0160387 0 0.0005 -0.0146381 0 -0.0005 -0.0146381 0 0.0005 -0.0132934
0 -0.0005 -0.0132934 0 0.0005 -0.0120025 0 -0.0005 -0.0120025 0
0.0005 -0.0107632 0 -0.0005 -0.0107632 0 0.0005 -0.00957337 0 -0.0005
-0.00957337 0 0.0005 -0.00843108 0 -0.0005 -0.00843108 0 0.0005 -0.00733443
0 -0.0005 -0.00733443 0 0.0005 -0.0062816 0 -0.0005 -0.0062816 0
0.0005 -0.00527083 0 -0.0005 -0.00527083 0 0.0005 -0.00430044 0 -0.0005
-0.00430044 0 0.0005 -0.00336883 0 -0.0005 -0.00336883 0 0.0005 -0.00247443
0 -0.0005 -0.00247443 0 0.0005 -0.00161577 0 -0.0005 -0.00161577 0
0.0005 -0.000791418 0 -0.0005 -0.000791418 0 0.0005 0 0 -0.0005
0 0 0.0005 0 -0.0254 -0.0005 0 -0.0254 0.0005 0
-0.0242711 0.0005 0 -0.0242711 -0.0005 0 -0.0231422 0.0005 0 -0.0231422
-0.0005 0 -0.0220133 0.0005 0 -0.0220133 -0.0005 0 -0.0208844 0.0005
0 -0.0208844 -0.0005 0 -0.0197556 0.0005 0 -0.0197556 -0.0005 0
-0.0186267 0.0005 0 -0.0186267 -0.0005 0 -0.0174978 0.0005 0 -0.0174978
-0.0005 0 -0.0163689 0.0005 0 -0.0163689 -0.0005 0 -0.01524 0.0005
0 -0.01524 -0.0005 0 -0.0141111 0.0005 0 -0.0141111 -0.0005 0
-0.0129822 0.0005 0 -0.0129822 -0.0005 0 -0.0118533 0.0005 0 -0.0118533
-0.0005 0 -0.0107244 0.0005 0 -0.0107244 -0.0005 0 -0.00959556 0.0005
0 -0.00959556 -0.0005 0 -0.00846667 0.0005 0 -0.00846667 -0.0005 0
-0.00726604 0.0005 0 -0.00726604 -0.0005 0 -0.00618989 0.0005 0 -0.00618989
-0.0005 0 -0.00522531 0.0005 0 -0.00522531 -0.0005 0 -0.00436073 0.0005
0 -0.00436073 -0.0005 0 -0.00358579 0.0005 0 -0.00358579 -0.0005 0
-0.00289118 0.0005 0 -0.00289118 -0.0005 0 -0.0022686 0.0005 0 -0.0022686
-0.0005 0 -0.00171055 0.0005 0 -0.00171055 -0.0005 0 -0.00121037 0.0005
0 -0.00121037 -0.0005 0 -0.000762037 0.0005 0 -0.000762037 -0.0005 0
-0.000360188 0.0005 0 -0.000360188 -0.0005 0.000528387 -0.0254 -0.0005 0.000528387 -0.0254
0.0005 0.00106088 -0.0254 -0.0005 0.00106088 -0.0254 0.0005 0.00159752 -0.0254 -0.0005
0.00159752 -0.0254 0.0005 0.00213833 -0.0254 -0.0005 0.00213833 -0.0254 0.0005 0.00268334
-0.0254 -0.0005 0.00268334 -0.0254 0.0005 0.00323259 -0.0254 -0.0005 0.00323259 -0.0254
0.0005 0.00378611 -0.0254 -0.0005 0.00378611 -0.0254 0.0005 0.00434393 -0.0254 -0.0005
0.00434393 -0.0254 0.0005 0.00490609 -0.0254 -0.0005 0.00490609 -0.0254 0.0005 0.00547262
-0.0254 -0.0005 0.00547262 -0.0254 0.0005 0.00604356 -0.0254 -0.0005 0.00604356 -0.0254
0.0005 0.00661893 -0.0254 -0.0005 0.00661893 -0.0254 0.0005 0.00719878 -0.0254 -0.0005
0.00719878 -0.0254 0.0005 0.00778313 -0.0254 -0.0005 0.00778313 -0.0254 0.0005 0.00837203
-0.0254 -0.0005 0.00837203 -0.0254 0.0005 0.00896551 -0.0254 -0.0005 0.00896551 -0.0254
0.0005 0.0095636 -0.0254 -0.0005 0.0095636 -0.0254 0.0005 0.0101663 -0.0254 -0.0005
0.0101663 -0.0254 0.0005 0.0107738 -0.0254 -0.0005 0.0107738 -0.0254 0.0005 0.0113859
-0.0254 -0.0005 0.0113859 -0.0254 0.0005 0.0120028 -0.0254 -0.0005 0.0120028 -0.0254
0.0005 0.0126245 -0.0254 -0.0005 0.0126245 -0.0254 0.0005 0.0132511 -0.0254 -0.0005
0.0132511 -0.0254 0.0005 0.0138825 -0.0254 -0.0005 0.0138825 -0.0254 0.0005 0.0145188
-0.0254 -0.0005 0.0145188 -0.0254 0.0005 0.0151601 -0.0254 -0.0005 0.0151601 -0.0254
0.0005 0.0158063 -0.0254 -0.0005 0.0158063 -0.0254 0.0005 0.0164576 -0.0254 -0.0005
0.0164576 -0.0254 0.0005 0.0171139 -0.0254 -0.0005 0.0171139 -0.0254 0.0005 0.0177754
-0.0254 -0.0005 0.0177754 -0.0254 0.0005 0.018442 -0.0254 -0.0005 0.018442 -0.0254
0.0005 0.0191137 -0.0254 -0.0005 0.0191137 -0.0254 0.0005 0.0197907 -0.0254 -0.0005
0.0197907 -0.0254 0.0005 0.020473 -0.0254 -0.0005 0.020473 -0.0254 0.0005 0.0211606
-0.0254 -0.0005 0.0211606 -0.0254 0.0005 0.0218535 -0.0254 -0.0005 0.0218535 -0.0254
0.0005 0.0225517 -0.0254 -0.0005 0.0225517 -0.0254 0.0005 0.0232555 -0.0254 -0.0005
0.0232555 -0.0254 0.0005 0.0239647 -0.0254 -0.0005 0.0239647 -0.0254 0.0005 0.0246794
-0.0254 -0.0005 0.0246794 -0.0254 0.0005 0.0253996 -0.0254 -0.0005 0.0253996 -0.0254
0.0005 0.0261255 -0.0254 -0.0005 0.0261255 -0.0254 0.0005 0.026857 -0.0254 -0.0005
0.026857 -0.0254 0.0005 0.0275942 -0.0254 -0.0005 0.0275942 -0.0254 0.0005 0.0283371
-0.0254 -0.0005 0.0283371 -0.0254 0.0005 0.0290858 -0.0254 -0.0005 0.0290858 -0.0254
0.0005 0.0298403 -0.0254 -0.0005 0.0298403 -0.0254 0.0005 0.0306007 -0.0254 -0.0005
0.0306007 -0.0254 0.0005 0.031367 -0.0254 -0.0005 0.031367 -0.0254 0.0005 0.0321393
-0.0254 -0.0005 0.0321393 -0.0254 0.0005 0.0329175 -0.0254 -0.0005 0.0329175 -0.0254
0.0005 0.0337019 -0.0254 -0.0005 0.0337019 -0.0254 0.0005 0.0344923 -0.0254 -0.0005
0.0344923 -0.0254 0.0005 0.0352888 -0.0254 -0.0005 0.0352888 -0.0254 0.0005 0.0360916
-0.0254 -0.0005 0.0360916 -0.0254 0.0005 0.0369006 -0.0254 -0.0005 0.0369006 -0.0254
0.0005 0.0377158 -0.0254 -0.0005 0.0377158 -0.0254 0.0005 0.0385375 -0.0254 -0.0005
0.0385375 -0.0254 0.0005 0.0393655 -0.0254 -0.0005 0.0393655 -0.0254 0.0005 0.0401999
-0.0254 -0.0005 0.0401999 -0.0254 0.0005 0.0410408 -0.0254 -0.0005 0.0410408 -0.0254
0.0005 0.0418883 -0.0254 -0.0005 0.0418883 -0.0254 0.0005 0.0427424 -0.0254 -0.0005
0.0427424 -0.0254 0.0005 0.0436031 -0.0254 -0.0005 0.0436031 -0.0254 0.0005 0.0444704
-0.0254 -0.0005 0.0444704 -0.0254 0.0005 0.0453446 -0.0254 -0.0005 0.0453446 -0.0254
0.0005 0.0462255 -0.0254 -0.0005 0.0462255 -0.0254 0.0005 0.0471133 -0.0254 -0.0005
0.0471133 -0.0254 0.0005 0.048008 -0.0254 -0.0005 0.048008 -0.0254 0.0005 0.0489096
-0.0254 -0.0005 0.0489096 -0.0254 0.0005 0.0498183 -0.0254 -0.0005 0.0498183 -0.0254
0.0005 0.050734 -0.0254 -0.0005 0.050734 -0.0254 0.0005 0.0516568 -0.0254 -0.0005
0.0516568 -0.0254 0.0005 0.0525868 -0.0254 -0.0005 0.0525868 -0.0254 0.0005 0.053524
-0.0254 -0.0005 0.053524 -0.0254 0.0005 0.0544686 -0.0254 -0.0005 0.0544686 -0.0254
0.0005 0.0554204 -0.0254 -0.0005 0.0554204 -0.0254 0.0005 0.0563797 -0.0254 -0.0005
0.0563797 -0.0254 0.0005 0.0573464 -0.0254 -0.0005 0.0573464 -0.0254 0.0005 0.0583206
-0.0254 -0.0005 0.0583206 -0.0254 0.0005 0.0593025 -0.0254 -0.0005 0.0593025 -0.0254
0.0005 0.0602919 -0.0254 -0.0005 0.0602919 -0.0254 0.0005 0.0612891 -0.0254 -0.0005
0.0612891 -0.0254 0.0005 0.0622939 -0.0254 -0.0005 0.0622939 -0.0254 0.0005 0.0633067
-0.0254 -0.0005 0.0633067 -0.0254 0.0005 0.0643272 -0.0254 -0.0005 0.0643272 -0.0254
0.0005 0.0653557 -0.0254 -0.0005 0.0653557 -0.0254 0.0005 0.0663923 -0.0254 -0.0005
0.0663923 -0.0254 0.0005 0.0674368 -0.0254 -0.0005 0.0674368 -0.0254 0.0005 0.0684895
-0.0254 -0.0005 0.0684895 -0.0254 0.0005 0.0695504 -0.0254 -0.0005 0.0695504 -0.0254
0.0005 0.0706195 -0.0254 -0.0005 0.0706195 -0.0254 0.0005 0.0716969 -0.0254 -0.0005
0.0716969 -0.0254 0.0005 0.0727828 -0.0254 -0.0005 0.0727828 -0.0254 0.0005 0.073877
-0.0254 -0.0005 0.073877 -0.0254 0.0005 0.0749798 -0.0254 -0.0005 0.0749798 -0.0254
0.0005 0.0760911 -0.0254 -0.0005 0.0760911 -0.0254 0.0005 0.0772111 -0.0254 -0.0005
0.0772111 -0.0254 0.0005 0.0783398 -0.0254 -0.0005 0.0783398 -0.0254 0.0005 0.0794772
-0.0254 -0.0005 0.0794772 -0.0254 0.0005 0.0806235 -0.0254 -0.0005 0.0806235 -0.0254
0.0005 0.0817787 -0.0254 -0.0005 0.0817787 -0.0254 0.0005 0.0829429 -0.0254 -0.0005
0.0829429 -0.0254 0.0005 0.0841162 -0.0254 -0.0005 0.0841162 -0.0254 0.0005 0.0852985
-0.0254 -0.0005 0.0852985 -0.0254 0.0005 0.0864901 -0.0254 -0.0005 0.0864901 -0.0254
0.0005 0.0876909 -0.0254 -0.0005 0.0876909 -0.0254 0.0005 0.0889011 -0.0254 -0.0005
0.0889011 -0.0254 0.0005 0.0901207 -0.0254 -0.0005 0.0901207 -0.0254 0.0005 0.0913497
-0.0254 -0.0005 0.0913497 -0.0254 0.0005 0.0925883 -0.0254 -0.0005 0.0925883 -0.0254
0.0005 0.0938366 -0.0254 -0.0005 0.0938366 -0.0254 0.0005 0.0950945 -0.0254 -0.0005
0.0950945 -0.0254 0.0005 0.0963622 -0.0254 -0.0005 0.0963622 -0.0254 0.0005 0.0976398
-0.0254 -0.0005 0.0976398 -0.0254 0.0005 0.0989273 -0.0254 -0.0005 0.0989273 -0.0254
0.0005 0.100225 -0.0254 -0.0005 0.100225 -0.0254 0.0005 0.101532 -0.0254 -0.0005
0.101532 -0.0254 0.0005 0.10285 -0.0254 -0.0005 0.10285 -0.0254 0.0005 0.104178
-0.0254 -0.0005 0.104178 -0.0254 0.0005 0.105517 -0.0254 -0.0005 0.105517 -0.0254
0.0005 0.106865 -0.0254 -0.0005 0.106865 -0.0254 0.0005 0.108225 -0.0254 -0.0005
0.108225 -0.0254 0.0005 0.109594 -0.0254 -0.0005 0.109594 -0.0254 0.0005 0.110975
-0.0254 -0.0005 0.110975 -0.0254 0.0005 0.112366 -0.0254 -0.0005 0.112366 -0.0254
0.0005 0.113768 -0.0254 -0.0005 0.113768 -0.0254 0.0005 0.115181 -0.0254 -0.0005
0.115181 -0.0254 0.0005 0.116605 -0.0254 -0.0005 0.116605 -0.0254 0.0005 0.11804
-0.0254 -0.0005 0.11804 -0.0254 0.0005 0.119486 -0.0254 -0.0005 0.119486 -0.0254
0.0005 0.120943 -0.0254 -0.0005 0.120943 -0.0254 0.0005 0.122412 -0.0254 -0.0005
0.122412 -0.0254 0.0005 0.123892 -0.0254 -0.0005 0.123892 -0.0254 0.0005 0.125384
-0.0254 -0.0005 0.125384 -0.0254 0.0005 0.126887 -0.0254 -0.0005 0.126887 -0.0254
0.0005 0.128402 -0.0254 -0.0005 0.128402 -0.0254 0.0005 0.129928 -0.0254 -0.0005
0.129928 -0.0254 0.0005 0.131467 -0.0254 -0.0005 0.131467 -0.0254 0.0005 0.133017
-0.0254 -0.0005 0.133017 -0.0254 0.0005 0.13458 -0.0254 -0.0005 0.13458 -0.0254
0.0005 0.136155 -0.0254 -0.0005 0.136155 -0.0254 0.0005 0.137742 -0.0254 -0.0005
0.137742 -0.0254 0.0005 0.139341 -0.0254 -0.0005 0.139341 -0.0254 0.0005 0.140953
-0.0254 -0.0005 0.140953 -0.0254 0.0005 0.142577 -0.0254 -0.0005 0.142577 -0.0254
0.0005 0.144214 -0.0254 -0.0005 0.144214 -0.0254 0.0005 0.145863 -0.0254 -0.0005
0.145863 -0.0254 0.0005 0.147526 -0.0254 -0.0005 0.147526 -0.0254 0.0005 0.149201
-0.0254 -0.0005 0.149201 -0.0254 0.0005 0.15089 -0.0254 -0.0005 0.15089 -0.0254
0.0005 0.152591 -0.0254 -0.0005 0.152591 -0.0254 0.0005 0.154306 -0.0254 -0.0005
0.154306 -0.0254 0.0005 0.156034 -0.0254 -0.0005 0.156034 -0.0254 0.0005 0.157775
-0.0254 -0.0005 0.157775 -0.0254 0.0005 0.159531 -0.0254 -0.0005 0.159531 -0.0254
0.0005 0.161299 -0.0254 -0.0005 0.161299 -0.0254 0.0005 0.163082 -0.0254 -0.0005
0.163082 -0.0254 0.0005 0.164878 -0.0254 -0.0005 0.164878 -0.0254 0.0005 0.166688
-0.0254 -0.0005 0.166688 -0.0254 0.0005 0.168513 -0.0254 -0.0005 0.168513 -0.0254
0.0005 0.170351 -0.0254 -0.0005 0.170351 -0.0254 0.0005 0.172204 -0.0254 -0.0005
0.172204 -0.0254 0.0005 0.174071 -0.0254 -0.0005 0.174071 -0.0254 0.0005 0.175953
-0.0254 -0.0005 0.175953 -0.0254 0.0005 0.177849 -0.0254 -0.0005 0.177849 -0.0254
0.0005 0.17976 -0.0254 -0.0005 0.17976 -0.0254 0.0005 0.181686 -0.0254 -0.0005
0.181686 -0.0254 0.0005 0.183627 -0.0254 -0.0005 0.183627 -0.0254 0.0005 0.185583
-0.0254 -0.0005 0.185583 -0.0254 0.0005 0.187555 -0.0254 -0.0005 0.187555 -0.0254
0.0005 0.189541 -0.0254 -0.0005 0.189541 -0.0254 0.0005 0.191543 -0.0254 -0.0005
0.191543 -0.0254 0.0005 0.193561 -0.0254 -0.0005 0.193561 -0.0254 0.0005 0.195594
-0.0254 -0.0005 0.195594 -0.0254 0.0005 0.197643 -0.0254 -0.0005 0.197643 -0.0254
0.0005 0.199708 -0.0254 -0.0005 0.199708 -0.0254 0.0005 0.201789 -0.0254 -0.0005
0.201789 -0.0254 0.0005 0.203886 -0.0254 -0.0005 0.203886 -0.0254 0.0005 0.206
-0.0254 -0.0005 0.206 -0.0254 0.0005 0.208047 -0.0251856 -0.0005 0.208047 -0.0251856
0.0005 0.210173 -0.0249628 -0.0005 0.210173 -0.0249628 0.0005 0.212382 -0.0247314 -0.0005
0.212382 -0.0247314 0.0005 0.214677 -0.024491 -0.0005 0.214677 -0.024491 0.0005 0.217061
-0.0242412 -0.0005 0.217061 -0.0242412 0.0005 0.219538 -0.0239817 -0.0005 0.219538 -0.0239817
0.0005 0.222112 -0.0237121 -0.0005 0.222112 -0.0237121 0.0005 0.224785 -0.023432 -0.0005
0.224785 -0.023432 0.0005 0.227563 -0.023141 -0.0005 0.227563 -0.023141 0.0005 0.230449
-0.0228387 -0.0005 0.230449 -0.0228387 0.0005 0.233447 -0.0225246 -0.0005 0.233447 -0.0225246
0.0005 0.236562 -0.0221983 -0.0005 0.236562 -0.0221983 0.0005 0.239797 -0.0218593 -0.0005
0.239797 -0.0218593 0.0005 0.243159 -0.0215071 -0.0005 0.243159 -0.0215071 0.0005 0.246652
-0.0211412 -0.0005 0.246652 -0.0211412 0.0005 0.250281 -0.0207611 -0.0005 0.250281 -0.0207611
0.0005 0.254051 -0.0203661 -0.0005 0.254051 -0.0203661 0.0005 0.257967 -0.0199558 -0.0005
0.257967 -0.0199558 0.0005 0.262036 -0.0195295 -0.0005 0.262036 -0.0195295 0.0005 0.266264
-0.0190867 -0.0005 0.266264 -0.0190867 0.0005 0.270655 -0.0186266 -0.0005 0.270655 -0.0186266
0.0005 0.275218 -0.0181486 -0.0005 0.275218 -0.0181486 0.0005 0.279959 -0.017652 -0.0005
0.279959 -0.017652 0.0005 0.284883 -0.017136 -0.0005 0.284883 -0.017136 0.0005 0.29
-0.0166 -0.0005 0.29 -0.0166 0.0005 
POLYGONS 250 1250
4 0 1 2 3 4 1 4 5 2 4
4 6 7 5 4 6 8 9 7 4
8 10 11 9 4 10 12 13 11 4
12 14 15 13 4 14 16 17 15 4
16 18 19 17 4 18 20 21 19 4
20 22 23 21 4 22 24 25 23 4
24 26 27 25 4 26 28 29 27 4
28 30 31 29 4 30 32 33 31 4
32 34 35 33 4 34 36 37 35 4
38 39 40 41 4 41 40 42 43 4
43 42 44 45 4 45 44 46 47 4
47 46 48 49 4 49 48 50 51 4
51 50 52 53 4 53 52 54 55 4
55 54 56 57 4 57 56 58 59 4
59 58 60 61 4 61 60 62 63 4
63 62 64 65 4 65 64 66 67 4
67 66 68 69 4 69 68 70 71 4
71 70 72 73 4 73 72 74 75 4
75 74 76 77 4 77 76 78 79 4
79 78 80 81 4 81 80 82 83 4
83 82 84 85 4 85 84 86 87 4
87 86 88 89 4 89 88 90 91 4
91 90 37 36 4 38 92 93 39 4
92 94 95 93 4 94 96 97 95 4
96 98 99 97 4 98 100 101 99 4
100 102 103 101 4 102 104 105 103 4
104 106 107 105 4 106 108 109 107 4
108 110 111 109 4 110 112 113 111 4
112 114 115 113 4 114 116 117 115 4
116 118 119 117 4 118 120 121 119 4
120 122 123 121 4 122 124 125 123 4
124 126 127 125 4 126 128 129 127 4
128 130 131 129 4 130 132 133 131 4
132 134 135 133 4 134 136 137 135 4
136 138 139 137 4 138 140 141 139 4
140 142 143 141 4 142 144 145 143 4
144 146 147 145 4 146 148 149 147 4
148 150 151 149 4 150 152 153 151 4
152 154 155 153 4 154 156 157 155 4
156 158 159 157 4 158 160 161 159 4
160 162 163 161 4 162 164 165 163 4
164 166 167 165 4 166 168 169 167 4
168 170 171 169 4 170 172 173 171 4
172 174 175 173 4 174 176 177 175 4
176 178 179 177 4 178 180 181 179 4
180 182 183 181 4 182 184 185 183 4
184 186 187 185 4 186 188 189 187 4
188 190 191 189 4 190 192 193 191 4
192 194 195 193 4 194 196 197 195 4
196 198 199 197 4 198 200 201 199 4
200 202 203 201 4 202 204 205 203 4
204 206 207 205 4 206 208 209 207 4
208 210 211 209 4 210 212 213 211 4
212 214 215 213 4 214 216 217 215 4
216 218 219 217 4 218 220 221 219 4
220 222 223 221 4 222 224 225 223 4
224 226 227 225 4 226 228 229 227 4
228 230 231 229 4 230 232 233 231 4
232 234 235 233 4 234 236 237 235 4
236 238 239 237 4 238 240 241 239 4
240 242 243 241 4 242 244 245 243 4
244 246 247 245 4 246 248 249 247 4
248 250 251 249 4 250 252 253 251 4
252 254 255 253 4 254 256 257 255 4
256 258 259 257 4 258 260 261 259 4
260 262 263 261 4 262 264 265 263 4
264 266 267 265 4 266 268 269 267 4
268 270 271 269 4 270 272 273 271 4
272 274 275 273 4 274 276 277 275 4
276 278 279 277 4 278 280 281 279 4
280 282 283 281 4 282 284 285 283 4
284 286 287 285 4 286 288 289 287 4
288 290 291 289 4 290 292 293 291 4
292 294 295 293 4 294 296 297 295 4
296 298 299 297 4 298 300 301 299 4
300 302 303 301 4 302 304 305 303 4
304 306 307 305 4 306 308 309 307 4
308 310 311 309 4 310 312 313 311 4
312 314 315 313 4 314 316 317 315 4
316 318 319 317 4 318 320 321 319 4
320 322 323 321 4 322 324 325 323 4
324 326 327 325 4 326 328 329 327 4
328 330 331 329 4 330 332 333 331 4
332 334 335 333 4 334 336 337 335 4
336 338 339 337 4 338 340 341 339 4
340 342 343 341 4 342 344 345 343 4
344 346 347 345 4 346 348 349 347 4
348 350 351 349 4 350 352 353 351 4
352 354 355 353 4 354 356 357 355 4
356 358 359 357 4 358 360 361 359 4
360 362 363 361 4 362 364 365 363 4
364 366 367 365 4 366 368 369 367 4
368 370 371 369 4 370 372 373 371 4
372 374 375 373 4 374 376 377 375 4
376 378 379 377 4 378 380 381 379 4
380 382 383 381 4 382 384 385 383 4
384 386 387 385 4 386 388 389 387 4
388 390 391 389 4 390 392 393 391 4
392 394 395 393 4 394 396 397 395 4
396 398 399 397 4 398 400 401 399 4
400 402 403 401 4 402 404 405 403 4
404 406 407 405 4 406 408 409 407 4
408 410 411 409 4 410 412 413 411 4
412 414 415 413 4 414 416 417 415 4
416 418 419 417 4 418 420 421 419 4
420 422 423 421 4 422 424 425 423 4
424 426 427 425 4 426 428 429 427 4
428 430 431 429 4 430 432 433 431 4
432 434 435 433 4 434 436 437 435 4
436 438 439 437 4 438 440 441 439 4
440 442 443 441 4 442 444 445 443 4
444 446 447 445 4 446 448 449 447 4
448 450 451 449 4 450 452 453 451 4
452 454 455 453 4 454 456 457 455 4
456 458 459 457 4 458 460 461 459 4
460 462 463 461 4 462 464 465 463 4
464 466 467 465 4 466 468 469 467 4
468 470 471 469 4 470 472 473 471 4
472 474 475 473 4 474 476 477 475 4
476 478 479 477 4 478 480 481 479 4
480 482 483 481 4 482 484 485 483 4
484 486 487 485 4 486 488 489 487 4
488 490 491 489 4 490 492 493 491 4
492 494 495 493 4 494 496 497 495 4
496 498 499 497 4 498 500 501 499 
POINT_DATA 502
FIELD attributes 1
U 3 502 float
3.23445 0.0699746 0.0327422 1.62478 0.0348925 0.0161354 1.62478 0.0348925 0.0161354 3.23445 0.0699746
0.0327422 0.0595755 0.000731824 0 0.0595755 0.000731824 0 0.0573244 0.000515993 0
0.0573244 0.000515993 0 0.0555637 0.000290576 0 0.0555637 0.000290576 0 0.0542645
0.000193115 0 0.0542645 0.000193115 0 0.0530561 0.00021756 0 0.0530561 0.00021756
0 0.0516409 0.000303415 0 0.0516409 0.000303415 0 0.0500637 0.000363806 0
0.0500637 0.000363806 0 0.0485461 0.000364979 0 0.0485461 0.000364979 0 0.0473229
0.00031718 0 0.0473229 0.00031718 0 0.0463901 0.00026907 0 0.0463901 0.00026907
0 0.0457161 0.000207239 0 0.0457161 0.000207239 0 0.0452003 0.000174476 0
0.0452003 0.000174476 0 0.0448171 9.98006e-05 0 0.0448171 9.98006e-05 0 0.0446075
8.6093e-05 0 0.0446075 8.6093e-05 0 0.0445027 -6.05106e-05 0 0.0445027 -6.05106e-05
0 0.044755 -0.000101821 0 0.044755 -0.000101821 0 0.019912 0.000524838 0
0.019912 0.000524838 0 -8.16884e-05 0.000159468 1.20047e-22 -8.16884e-05 0.000159468 1.20047e-22 -0.000131186
0.000595035 -3.24505e-22 -0.000131186 0.000595035 -3.24505e-22 -0.000182679 0.00139011 -3.84444e-22 -0.000182679 0.00139011
-3.84444e-22 -0.000189095 0.00212953 7.68136e-22 -0.000189095 0.00212953 7.68136e-22 -0.000199753 0.00292167 2.56271e-22
-0.000199753 0.00292167 2.56271e-22 -0.000213739 0.00378872 -5.1178e-22 -0.000213739 0.00378872 -5.1178e-22 -0.000230735
0.00474981 0 -0.000230735 0.00474981 0 -0.000250162 0.00582708 -1.01823e-21 -0.000250162 0.00582708
-1.01823e-21 -0.000271584 0.00703235 -5.35334e-25 -0.000271584 0.00703235 -5.35334e-25 -0.000292281 0.00838481 1.0177e-21
-0.000292281 0.00838481 1.0177e-21 -0.000309303 0.00986213 -1.01084e-21 -0.000309303 0.00986213 -1.01084e-21 -0.000319635
0.0114484 -6.63709e-25 -0.000319635 0.0114484 -6.63709e-25 -0.000307692 0.0130845 1.01017e-21 -0.000307692 0.0130845
1.01017e-21 -0.000262063 0.0146574 1.00489e-21 -0.000262063 0.0146574 1.00489e-21 -0.000176281 0.0160105 6.84363e-25
-0.000176281 0.0160105 6.84363e-25 -3.83907e-05 0.0169382 -1.02201e-21 -3.83907e-05 0.0169382 -1.02201e-21 0.000185464
0.0171814 0 0.000185464 0.0171814 0 0.000488678 0.0164567 0 0.000488678 0.0164567
0 0.000829934 0.0146588 0 0.000829934 0.0146588 0 0.00118238 0.0119672 0
0.00118238 0.0119672 0 0.00154986 0.00850829 0 0.00154986 0.00850829 0 0.00188488
0.00461962 0 0.00188488 0.00461962 0 0.00137836 0.000274572 0 0.00137836 0.000274572
0 -0.000814869 -0.00249654 0 -0.000814869 -0.00249654 0 -0.00362069 -0.00287065 0
-0.00362069 -0.00287065 0 -0.00472103 -0.000554674 0 -0.00472103 -0.000554674 0 -0.00277342
0.001298 0 -0.00277342 0.001298 0 -0.0001511 0.000152162 5.13442e-25 -0.0001511 0.000152162
5.13442e-25 -0.0002856 0.00014382 -5.9663e-23 -0.0002856 0.00014382 -5.9663e-23 -0.00041912 0.000141852 0
-0.00041912 0.000141852 0 -0.000553517 0.000138893 0 -0.000553517 0.000138893 0 -0.000684087
0.000134185 5.78967e-23 -0.000684087 0.000134185 5.78967e-23 -0.000810727 0.000128124 5.80007e-23 -0.000810727 0.000128124
5.80007e-23 -0.000931697 0.000120853 0 -0.000931697 0.000120853 0 -0.00104564 0.000112403 0
-0.00104564 0.000112403 0 -0.0011511 0.000102645 0 -0.0011511 0.000102645 0 -0.0012469
9.16198e-05 -5.59242e-23 -0.0012469 9.16198e-05 -5.59242e-23 -0.0013313 7.94079e-05 -5.60308e-23 -0.0013313 7.94079e-05
-5.60308e-23 -0.00140285 6.60433e-05 0 -0.00140285 6.60433e-05 0 -0.00146059 5.15141e-05 0
-0.00146059 5.15141e-05 0 -0.00150318 3.61782e-05 0 -0.00150318 3.61782e-05 0 -0.00152907
2.01187e-05 -5.41007e-23 -0.00152907 2.01187e-05 -5.41007e-23 -0.00153737 3.36559e-06 -5.421e-23 -0.00153737 3.36559e-06
-5.421e-23 -0.00152749 -1.36564e-05 0 -0.00152749 -1.36564e-05 0 -0.00149848 -3.08458e-05 0
-0.00149848 -3.08458e-05 0 -0.00144993 -4.80711e-05 0 -0.00144993 -4.80711e-05 0 -0.00138203
-6.49091e-05 0 -0.00138203 -6.49091e-05 0 -0.00129465 -8.12837e-05 0 -0.00129465 -8.12837e-05
0 -0.00118804 -9.70351e-05 0 -0.00118804 -9.70351e-05 0 -0.00106284 -0.000112122 -5.14892e-23
-0.00106284 -0.000112122 -5.14892e-23 -0.0009198 -0.000126367 -4.20486e-25 -0.0009198 -0.000126367 -4.20486e-25 -0.000759769
-0.000139282 4.1887e-25 -0.000759769 -0.000139282 4.1887e-25 -0.000584021 -0.000150973 -1.01568e-22 -0.000584021 -0.000150973
-1.01568e-22 -0.000393964 -0.000161358 -5.06904e-23 -0.000393964 -0.000161358 -5.06904e-23 -0.000190164 -0.000170293 0
-0.000190164 -0.000170293 0 2.59257e-05 -0.00017787 4.96471e-23 2.59257e-05 -0.00017787 4.96471e-23 0.000251829
-0.000184097 9.90758e-23 0.000251829 -0.000184097 9.90758e-23 0.000485983 -0.000188921 4.94292e-23 0.000485983 -0.000188921
4.94292e-23 0.00072722 -0.000192388 0 0.00072722 -0.000192388 0 0.000974069 -0.000194566 4.82923e-23
0.000974069 -0.000194566 4.82923e-23 0.00122507 -0.000195534 4.84112e-23 0.00122507 -0.000195534 4.84112e-23 0.00147883
-0.000195382 0 0.00147883 -0.000195382 0 0.00173401 -0.00019421 -4.72517e-23 0.00173401 -0.00019421
-4.72517e-23 0.00198938 -0.00019212 -4.73718e-23 0.00198938 -0.00019212 -4.73718e-23 0.00224381 -0.000189218 -4.65461e-23
0.00224381 -0.000189218 -4.65461e-23 0.00249628 -0.000185607 -1.39047e-22 0.00249628 -0.000185607 -1.39047e-22 0.00274586
-0.00018139 -9.26225e-23 0.00274586 -0.00018139 -9.26225e-23 0.00299175 -0.000176665 0 0.00299175 -0.000176665
0 0.00323325 -0.000171523 0 0.00323325 -0.000171523 0 0.00346975 -0.00016605 0
0.00346975 -0.00016605 0 0.00370076 -0.000160325 0 0.00370076 -0.000160325 0 0.00392586
-0.000154419 -8.8045e-23 0.00392586 -0.000154419 -8.8045e-23 0.00414472 -0.000148396 -1.75606e-22 0.00414472 -0.000148396
-1.75606e-22 0.00435709 -0.000142313 -1.74148e-22 0.00435709 -0.000142313 -1.74148e-22 0.00456277 -0.000136219 -8.68327e-23
0.00456277 -0.000136219 -8.68327e-23 0.00476164 -0.000130156 8.51277e-23 0.00476164 -0.000130156 8.51277e-23 0.00495364
-0.000124163 8.53744e-23 0.00495364 -0.000124163 8.53744e-23 0.00513874 -0.000118268 -8.36716e-23 0.00513874 -0.000118268
-8.36716e-23 0.00531696 -0.000112498 -1.66864e-22 0.00531696 -0.000112498 -1.66864e-22 0.00548836 -0.000106873 -8.31929e-23
0.00548836 -0.000106873 -8.31929e-23 0.00565302 -0.000101411 0 0.00565302 -0.000101411 0 0.00581106
-9.61232e-05 0 0.00581106 -9.61232e-05 0 0.0059626 -9.10195e-05 -8.00612e-23 0.0059626 -9.10195e-05
-8.00612e-23 0.00610781 -8.61066e-05 -8.03092e-23 0.00610781 -8.61066e-05 -8.03092e-23 0.00624684 -8.13884e-05 0
0.00624684 -8.13884e-05 0 0.00637988 -7.68667e-05 0 0.00637988 -7.68667e-05 0 0.0065071
-7.25418e-05 0 0.0065071 -7.25418e-05 0 0.00662869 -6.84121e-05 0 0.00662869 -6.84121e-05
0 0.00674486 -6.44751e-05 0 0.00674486 -6.44751e-05 0 0.00685578 -6.07269e-05 0
0.00685578 -6.07269e-05 0 0.00696167 -5.71631e-05 0 0.00696167 -5.71631e-05 0 0.00706272
-5.37785e-05 7.37477e-23 0.00706272 -5.37785e-05 7.37477e-23 0.00715911 -5.05675e-05 7.39955e-23 0.00715911 -5.05675e-05
7.39955e-23 0.00725105 -4.7524e-05 0 0.00725105 -4.7524e-05 0 0.00733871 -4.46418e-05 -7.171e-23
0.00733871 -4.46418e-05 -7.171e-23 0.00742229 -4.19144e-05 -1.42996e-22 0.00742229 -4.19144e-05 -1.42996e-22 0.00750195
-3.93355e-05 -7.1286e-23 0.00750195 -3.93355e-05 -7.1286e-23 0.00757788 -3.68984e-05 6.97087e-23 0.00757788 -3.68984e-05
6.97087e-23 0.00765025 -3.45968e-05 9.05552e-25 0.00765025 -3.45968e-05 9.05552e-25 0.00771921 -3.24243e-05 -6.92962e-23
0.00771921 -3.24243e-05 -6.92962e-23 0.00778492 -3.03747e-05 6.77445e-23 0.00778492 -3.03747e-05 6.77445e-23 0.00784755
-2.84419e-05 6.79903e-23 0.00784755 -2.84419e-05 6.79903e-23 0.00790723 -2.662e-05 0 0.00790723 -2.662e-05
0 0.00796411 -2.49034e-05 -6.58174e-23 0.00796411 -2.49034e-05 -6.58174e-23 0.00801832 -2.32866e-05 -6.60621e-23
0.00801832 -2.32866e-05 -6.60621e-23 0.00806999 -2.17642e-05 6.45532e-23 0.00806999 -2.17642e-05 6.45532e-23 0.00811926
-2.03313e-05 6.47971e-23 0.00811926 -2.03313e-05 6.47971e-23 0.00816624 -1.89829e-05 -6.33054e-23 0.00816624 -1.89829e-05
-6.33054e-23 0.00821104 -1.77146e-05 -1.26236e-22 0.00821104 -1.77146e-05 -1.26236e-22 0.00825378 -1.65217e-05 -1.25004e-22
0.00825378 -1.65217e-05 -1.25004e-22 0.00829457 -1.54003e-05 -1.85244e-22 0.00829457 -1.54003e-05 -1.85244e-22 0.00833349
-1.43462e-05 -1.6946e-24 0.00833349 -1.43462e-05 -1.6946e-24 0.00837066 -1.33556e-05 1.22198e-22 0.00837066 -1.33556e-05
1.22198e-22 0.00840617 -1.2425e-05 0 0.00840617 -1.2425e-05 0 0.00844009 -1.15512e-05 0
0.00844009 -1.15512e-05 0 0.00847252 -1.07302e-05 1.16948e-22 0.00847252 -1.07302e-05 1.16948e-22 0.00850355
-9.9594e-06 2.33201e-22 0.00850355 -9.9594e-06 2.33201e-22 0.00853323 -9.23681e-06 1.64079e-24 0.00853323 -9.23681e-06
1.64079e-24 0.00856165 -8.55764e-06 -1.15085e-22 0.00856165 -8.55764e-06 -1.15085e-22 0.00858889 -7.91931e-06 1.12303e-22
0.00858889 -7.91931e-06 1.12303e-22 0.00861499 -7.32386e-06 2.23935e-22 0.00861499 -7.32386e-06 2.23935e-22 0.00864004
-6.76486e-06 2.21656e-22 0.00864004 -6.76486e-06 2.21656e-22 0.00866409 -6.23272e-06 1.10494e-22 0.00866409 -6.23272e-06
1.10494e-22 0.00868719 -5.7385e-06 0 0.00868719 -5.7385e-06 0 0.00870941 -5.28852e-06 0
0.00870941 -5.28852e-06 0 0.0087308 -4.84816e-06 1.05557e-22 0.0087308 -4.84816e-06 1.05557e-22 0.0087514
-4.40796e-06 1.06019e-22 0.0087514 -4.40796e-06 1.06019e-22 0.00877122 -4.029e-06 0 0.00877122 -4.029e-06
0 0.00879039 -3.69762e-06 -1.0228e-22 0.00879039 -3.69762e-06 -1.0228e-22 0.00880891 -3.27629e-06 -1.02737e-22
0.00880891 -3.27629e-06 -1.02737e-22 0.00882666 -2.72325e-06 0 0.00882666 -2.72325e-06 0 0.00884359
-2.14978e-06 -9.90649e-23 0.00884359 -2.14978e-06 -9.90649e-23 0.00885973 -1.64746e-06 -9.95161e-23 0.00885973 -1.64746e-06
-9.95161e-23 0.00887519 -1.24398e-06 0 0.00887519 -1.24398e-06 0 0.00889007 -9.43508e-07 9.59093e-23
0.00889007 -9.43508e-07 9.59093e-23 0.00890448 -7.2975e-07 1.91225e-22 0.00890448 -7.2975e-07 1.91225e-22 0.00891851
-5.76647e-07 9.53135e-23 0.00891851 -5.76647e-07 9.53135e-23 0.00893221 -4.60341e-07 -9.28117e-23 0.00893221 -4.60341e-07
-9.28117e-23 0.00894563 -3.64356e-07 -9.32506e-23 0.00894563 -3.64356e-07 -9.32506e-23 0.00895879 -2.79412e-07 9.0778e-23
0.00895879 -2.79412e-07 9.0778e-23 0.00897172 -2.01129e-07 9.12125e-23 0.00897172 -2.01129e-07 9.12125e-23 0.00898444
-1.27755e-07 8.87688e-23 0.00898444 -1.27755e-07 8.87688e-23 0.00899697 -5.8677e-08 1.76972e-22 0.00899697 -5.8677e-08
1.76972e-22 0.00900932 6.32814e-09 8.82007e-23 0.00900932 6.32814e-09 8.82007e-23 0.00902152 6.73973e-08 0
0.00902152 6.73973e-08 0 0.00903357 1.2466e-07 0 0.00903357 1.2466e-07 0 0.0090455
1.78277e-07 0 0.0090455 1.78277e-07 0 0.00905732 2.28393e-07 0 0.00905732 2.28393e-07
0 0.00906904 2.75194e-07 0 0.00906904 2.75194e-07 0 0.00908068 3.18884e-07 0
0.00908068 3.18884e-07 0 0.00909225 3.59664e-07 8.00164e-23 0.00909225 3.59664e-07 8.00164e-23 0.00910376
3.97728e-07 1.35208e-24 0.00910376 3.97728e-07 1.35208e-24 0.00911522 4.33227e-07 -7.94766e-23 0.00911522 4.33227e-07
-7.94766e-23 0.00912664 4.66305e-07 0 0.00912664 4.66305e-07 0 0.00913804 4.97105e-07 0
0.00913804 4.97105e-07 0 0.00914942 5.25774e-07 0 0.00914942 5.25774e-07 0 0.00916079
5.52463e-07 -1.48855e-22 0.00916079 5.52463e-07 -1.48855e-22 0.00917216 5.77313e-07 -1.49637e-22 0.00917216 5.77313e-07
-1.49637e-22 0.00918354 6.00466e-07 1.4521e-22 0.00918354 6.00466e-07 1.4521e-22 0.00919493 6.22059e-07 2.57794e-24
0.00919493 6.22059e-07 2.57794e-24 0.00920635 6.42224e-07 -1.44167e-22 0.00920635 6.42224e-07 -1.44167e-22 0.0092178
6.61078e-07 0 0.0092178 6.61078e-07 0 0.00922928 6.78724e-07 0 0.00922928 6.78724e-07
0 0.00924081 6.9526e-07 1.36268e-22 0.00924081 6.9526e-07 1.36268e-22 0.00925238 7.10783e-07 2.71515e-22
0.00925238 7.10783e-07 2.71515e-22 0.00926401 7.25388e-07 1.35241e-22 0.00926401 7.25388e-07 1.35241e-22 0.00927569
7.39173e-07 1.31012e-22 0.00927569 7.39173e-07 1.31012e-22 0.00928744 7.52217e-07 2.61012e-22 0.00928744 7.52217e-07
2.61012e-22 0.00929926 7.64641e-07 2.44091e-24 0.00929926 7.64641e-07 2.44091e-24 0.00931114 7.76561e-07 -1.28262e-22
0.00931114 7.76561e-07 -1.28262e-22 0.00932311 7.88105e-07 0 0.00932311 7.88105e-07 0 0.00933515
7.99394e-07 -1.22427e-22 0.00933515 7.99394e-07 -1.22427e-22 0.00934727 8.10552e-07 -1.23116e-22 0.00934727 8.10552e-07
-1.23116e-22 0.00935947 8.21719e-07 0 0.00935947 8.21719e-07 0 0.00937177 8.33061e-07 0
0.00937177 8.33061e-07 0 0.00938415 8.44768e-07 0 0.00938415 8.44768e-07 0 0.00939661
8.57065e-07 1.14043e-22 0.00939661 8.57065e-07 1.14043e-22 0.00940917 8.70216e-07 2.27087e-22 0.00940917 8.70216e-07
2.27087e-22 0.0094218 8.84547e-07 1.13038e-22 0.0094218 8.84547e-07 1.13038e-22 0.00943453 9.00456e-07 1.09102e-22
0.00943453 9.00456e-07 1.09102e-22 0.00944733 9.18432e-07 1.09737e-22 0.00944733 9.18432e-07 1.09737e-22 0.0094602
9.39082e-07 0 0.0094602 9.39082e-07 0 0.00947314 9.6317e-07 1.04225e-22 0.00947314 9.6317e-07
1.04225e-22 0.00948613 9.91666e-07 1.04838e-22 0.00948613 9.91666e-07 1.04838e-22 0.00949916 1.0258e-06 1.01006e-22
0.00949916 1.0258e-06 1.01006e-22 0.0095122 1.06714e-06 1.01605e-22 0.0095122 1.06714e-06 1.01605e-22 0.00952522
1.1177e-06 0 0.00952522 1.1177e-06 0 0.0095382 1.18012e-06 9.62268e-23 0.0095382 1.18012e-06
9.62268e-23 0.00955108 1.25765e-06 9.68037e-23 0.00955108 1.25765e-06 9.68037e-23 0.00956379 1.35496e-06 9.30713e-23
0.00956379 1.35496e-06 9.30713e-23 0.00957626 1.47713e-06 9.36331e-23 0.00957626 1.47713e-06 9.36331e-23 0.00958837