/*--------------------------------*- C++ -*----------------------------------*\
  =========                 |
  \\      /  F ield         | OpenFOAM: The Open Source CFD Toolbox
   \\    /   O peration     | Website:  https://openfoam.org
    \\  /    A nd           | Version:  9
     \\/     M anipulation  |
\*---------------------------------------------------------------------------*/
FoamFile
{
    format      ascii;
    class       volScalarField;
    location    "0.04";
    object      p;
}
// * * * * * * * * * * * * * * * * * * * * * * * * * * * * * * * * * * * * * //

dimensions      [0 2 -2 0 0 0 0];

internalField   nonuniform List<scalar> 
12225
(
-3.35507
-4.56766
-5.18127
-5.38152
-5.56634
-5.79023
-6.01457
-6.22826
-6.4396
-6.65628
-6.8817
-7.11813
-7.36864
-7.63771
-7.93142
-8.25925
-8.63539
-9.10391
-4.49051
-5.13484
-5.41075
-5.50713
-5.63998
-5.82854
-6.03113
-6.23132
-6.43356
-6.64391
-6.86487
-7.09796
-7.34566
-7.61158
-7.90056
-8.21946
-8.57902
-8.96061
-4.59433
-4.85545
-5.16612
-5.37176
-5.55331
-5.76008
-5.97524
-6.18527
-6.39422
-6.60894
-6.83276
-7.06739
-7.3151
-7.57884
-7.86177
-8.16564
-8.48638
-8.78484
-4.67175
-4.88514
-5.22889
-5.45097
-5.61472
-5.79886
-5.99931
-6.19982
-6.40103
-6.60892
-6.82663
-7.05543
-7.29687
-7.55284
-7.82469
-8.10872
-8.39315
-8.63765
-4.76416
-4.9498
-5.2473
-5.45131
-5.60553
-5.7814
-5.97726
-6.1756
-6.37487
-6.58043
-6.79549
-7.02117
-7.25843
-7.5081
-7.76987
-8.0392
-8.30015
-8.52116
-4.85205
-5.00113
-5.24811
-5.44571
-5.60478
-5.77809
-5.96893
-6.16341
-6.35921
-6.56093
-6.77173
-6.99266
-7.22424
-7.46668
-7.71808
-7.9738
-8.22032
-8.43619
-4.92937
-5.04679
-5.25546
-5.44716
-5.60787
-5.77477
-5.95698
-6.14516
-6.33602
-6.53276
-6.73821
-6.95329
-7.17819
-7.41262
-7.65463
-7.89988
-8.13938
-8.36095
-4.99681
-5.09062
-5.26824
-5.44888
-5.60681
-5.76681
-5.94069
-6.12252
-6.30826
-6.49967
-6.69922
-6.90781
-7.12547
-7.35173
-7.58504
-7.82232
-8.05895
-8.29016
-5.05532
-5.1315
-5.28258
-5.44911
-5.60214
-5.75591
-5.92174
-6.09641
-6.27588
-6.46086
-6.65337
-6.85433
-7.06374
-7.28121
-7.50582
-7.73605
-7.97071
-8.20992
-5.10527
-5.16791
-5.29653
-5.44808
-5.59454
-5.74183
-5.89925
-6.0657
-6.23772
-6.41522
-6.5997
-6.79202
-6.99226
-7.20023
-7.4157
-7.63847
-7.86967
-8.11187
-5.14674
-5.19882
-5.30867
-5.44532
-5.58356
-5.7236
-5.87223
-6.02966
-6.1932
-6.36218
-6.53755
-6.72009
-6.90999
-7.10731
-7.31237
-7.52588
-7.7501
-7.98834
-5.17695
-5.22146
-5.31694
-5.44035
-5.56983
-5.70243
-5.84265
-5.99117
-6.14594
-6.30602
-6.47194
-6.64432
-6.82347
-7.00961
-7.20334
-7.40576
-7.61937
-7.84714
-5.20008
-5.2385
-5.32169
-5.43257
-5.55268
-5.67725
-5.80873
-5.94785
-6.0931
-6.24342
-6.39896
-6.56019
-6.72745
-6.90106
-7.0817
-7.27052
-7.46981
-7.68172
-5.21739
-5.25009
-5.32135
-5.41893
-5.52783
-5.64239
-5.76328
-5.89096
-6.02428
-6.16218
-6.3045
-6.45148
-6.6034
-6.76055
-6.92351
-7.09319
-7.27118
-7.45853
-5.22477
-5.25213
-5.31202
-5.39585
-5.49177
-5.5941
-5.70217
-5.81594
-5.93446
-6.05671
-6.18223
-6.31102
-6.44316
-6.57878
-6.71815
-6.86165
-7.00999
-7.16307
-5.21683
-5.23921
-5.28834
-5.35815
-5.43956
-5.52737
-5.62006
-5.71709
-5.81749
-5.92025
-6.02471
-6.13054
-6.23757
-6.3456
-6.45449
-6.56403
-6.67408
-6.78373
-5.18668
-5.20437
-5.24331
-5.29913
-5.36486
-5.43599
-5.51063
-5.58779
-5.66642
-5.74547
-5.8241
-5.9017
-5.9778
-6.05189
-6.12343
-6.19177
-6.25627
-6.31568
-5.1259
-5.13919
-5.16864
-5.21091
-5.26047
-5.3134
-5.36771
-5.42219
-5.47571
-5.52717
-5.57562
-5.62029
-5.66051
-5.69559
-5.72483
-5.74747
-5.76273
-5.76957
-5.02499
-5.03422
-5.05523
-5.08513
-5.11901
-5.15325
-5.18595
-5.21592
-5.24205
-5.26327
-5.27864
-5.28742
-5.28901
-5.28282
-5.26829
-5.2449
-5.21212
-5.1695
-4.90671
-4.91442
-4.93189
-4.9556
-4.98006
-5.00158
-5.0186
-5.03036
-5.03594
-5.03432
-5.02472
-5.0066
-4.97956
-4.94326
-4.8974
-4.84177
-4.77618
-4.70059
-4.80224
-4.81058
-4.82891
-4.85201
-4.87288
-4.88767
-4.89558
-4.89633
-4.88908
-4.87292
-4.84734
-4.81207
-4.76697
-4.71188
-4.64673
-4.57157
-4.48647
-4.39176
-4.70232
-4.71332
-4.73667
-4.76365
-4.78426
-4.79527
-4.79772
-4.79188
-4.77649
-4.7505
-4.71371
-4.66628
-4.60833
-4.53991
-4.46119
-4.37242
-4.27387
-4.16604
-4.6064
-4.62238
-4.6555
-4.69089
-4.71361
-4.72215
-4.72096
-4.7111
-4.69074
-4.65867
-4.61493
-4.55992
-4.49384
-4.41691
-4.32946
-4.23197
-4.12495
-4.00925
-4.51308
-4.53733
-4.58499
-4.63178
-4.65849
-4.66722
-4.6649
-4.65221
-4.62716
-4.58936
-4.53957
-4.47834
-4.40585
-4.32238
-4.22839
-4.12449
-4.01122
-3.88927
-4.42008
-4.45882
-4.5284
-4.58368
-4.60983
-4.62081
-4.62364
-4.61411
-4.58892
-4.5491
-4.49649
-4.43185
-4.35542
-4.26763
-4.16916
-4.06079
-3.94332
-3.81797
-4.32414
-4.38274
-4.49473
-4.55948
-4.5721
-4.57372
-4.57494
-4.56534
-4.53926
-4.49824
-4.44442
-4.37838
-4.30024
-4.21049
-4.10992
-3.99944
-3.87982
-3.75192
-4.22854
-4.28902
-4.4623
-4.56796
-4.59105
-4.59373
-4.59327
-4.57977
-4.54905
-4.50367
-4.44579
-4.37578
-4.2937
-4.20007
-4.0957
-3.98159
-3.85878
-3.72921
-4.16052
-4.19404
-4.32734
-4.42288
-4.46752
-4.49778
-4.51585
-4.51324
-4.49036
-4.45141
-4.39856
-4.33229
-4.25295
-4.1613
-4.05827
-3.94491
-3.82249
-3.69353
-4.10858
-4.51383
-4.63136
-4.59814
-4.57505
-4.58022
-4.58118
-4.56313
-4.52816
-4.4801
-4.41984
-4.34711
-4.262
-4.1651
-4.05713
-3.93879
-3.81114
-3.67573
-2.99467
-3.89894
-4.36856
-4.44174
-4.46514
-4.50548
-4.52955
-4.52584
-4.50104
-4.46092
-4.40691
-4.33908
-4.25787
-4.1641
-4.05857
-3.94192
-3.81489
-3.67688
0.92182
0.884168
0.840191
0.795381
0.788598
0.89539
1.15075
1.51477
1.87507
2.15221
2.29007
2.27662
2.14683
1.95331
1.74058
1.53733
1.35883
1.21055
1.09095
0.994032
0.912224
0.839189
0.772251
0.715283
0.681918
0.693116
0.790145
1.03703
1.35361
1.71496
2.09849
2.45708
2.7143
2.77967
2.57515
2.06331
1.31971
0.570723
0.01377
-0.300526
-0.453827
-0.601785
-0.926705
-1.59446
-2.63125
-3.9475
-5.3411
-6.40526
-6.79485
-6.42811
-5.23019
-3.31079
-1.11912
0.751258
1.72552
1.67903
1.13756
0.636563
0.231304
-0.120447
-0.332955
-0.347315
-0.266782
-0.35631
-0.649097
-1.14207
-1.82165
-2.8574
-4.50362
-6.96298
-10.2358
-14.1208
-18.3369
-22.6016
-26.6787
-30.3977
-33.6523
-36.3887
-38.5915
-40.2727
-41.4609
-42.1885
-42.4832
-42.3689
-41.8542
-41.0034
-39.8603
-38.4597
-36.8294
-34.9923
-32.9661
-30.7637
-28.3932
-25.8581
-23.1584
-20.2907
-17.2509
-14.0359
-10.6469
-7.09369
-3.39883
0.398073
4.23811
8.04331
11.7203
15.168
18.2892
21.003
23.2554
25.0262
26.3309
27.2073
27.6835
27.8177
27.6784
27.3299
26.8307
26.2314
25.5738
24.8908
24.2079
23.5436
22.911
22.3186
21.7719
21.2735
20.8249
20.4311
20.0786
19.7579
19.4667
19.2033
18.9668
18.7554
18.5667
18.399
18.2508
18.1205
18.0066
17.9073
17.8211
17.7462
17.6812
17.6245
17.5751
17.532
17.4944
17.4618
17.4336
17.4096
17.3893
17.3723
17.3579
17.3458
17.3353
17.3259
17.3171
17.3081
17.2983
17.2775
17.2735
17.2946
17.3063
17.3112
17.3145
17.3169
17.3204
17.3255
17.3328
17.343
17.3569
17.3757
17.4006
17.4333
17.4761
17.5315
17.6042
17.6943
17.8212
17.9312
0.786285
0.734688
0.659786
0.590644
0.578186
0.65972
0.8123
0.989143
1.12677
1.18034
1.1394
1.02412
0.871761
0.719093
0.591162
0.499385
0.444513
0.420237
0.41607
0.419701
0.419061
0.404043
0.368044
0.308431
0.225993
0.128042
0.0148155
-0.128901
-0.180625
-0.0703285
0.210919
0.615777
1.06297
1.42153
1.53914
1.29646
0.722525
0.156944
0.00282321
0.15505
0.183852
-0.110126
-0.714756
-1.65097
-3.05771
-4.86683
-6.79801
-8.11228
-8.63876
-8.29835
-7.11977
-5.14624
-2.88346
-0.846502
0.339562
0.526747
0.120955
-0.3126
-0.44119
-0.338909
-0.202665
-0.137677
-0.175203
-0.243865
-0.491939
-1.04569
-1.95902
-3.3304
-5.45234
-8.48805
-12.3046
-16.6024
-21.0468
-25.3544
-29.326
-32.8417
-35.8421
-38.3068
-40.2398
-41.6598
-42.5941
-43.0789
-43.158
-42.8715
-42.2732
-41.3728
-40.1965
-38.7725
-37.1266
-35.2808
-33.2526
-31.0548
-28.6953
-26.1777
-23.5012
-20.6622
-17.6551
-14.4751
-11.1214
-7.60078
-3.93281
-0.154126
3.67858
7.48837
11.1817
14.6569
17.8149
20.5721
22.8711
24.6892
26.0243
26.9293
27.4287
27.5869
27.4712
27.1454
26.6677
26.0885
25.4491
24.7826
24.1142
23.4627
22.8411
22.2581
21.7191
21.2265
20.7805
20.3742
20.01
19.6861
19.4025
19.1496
18.9241
18.7231
18.5438
18.384
18.2422
18.1168
18.0064
17.9096
17.825
17.7511
17.6868
17.6306
17.5814
17.5385
17.5009
17.4683
17.44
17.4157
17.395
17.3775
17.3626
17.3499
17.3389
17.3291
17.3202
17.3121
17.3058
17.3137
17.3197
17.3104
17.3067
17.3073
17.309
17.3112
17.3144
17.3194
17.3265
17.3364
17.35
17.3681
17.392
17.4232
17.4639
17.5163
17.5847
17.6685
17.7856
17.8795
0.810978
0.821666
0.798863
0.73532
0.63757
0.512269
0.357021
0.177509
-0.0148953
-0.206156
-0.379063
-0.516432
-0.605434
-0.640152
-0.621907
-0.558053
-0.460203
-0.342573
-0.220574
-0.109553
-0.0235901
0.0256533
0.0300368
-0.0143529
-0.10658
-0.240187
-0.403074
-0.577989
-0.744421
-0.905944
-1.04629
-1.12734
-1.13205
-1.07442
-0.977273
-0.870597
-0.763878
-0.604748
-0.370373
-0.230737
-0.322435
-0.575276
-1.09161
-2.18534
-3.90199
-5.90071
-7.72688
-8.97483
-9.49121
-9.26672
-8.31386
-6.66309
-4.54514
-2.49918
-1.19678
-0.845586
-1.05164
-1.27253
-1.19547
-0.819265
-0.357792
-0.0497705
-0.0737838
-0.50719
-1.32142
-2.6674
-4.72493
-7.42809
-10.674
-14.3113
-18.1541
-22.0252
-25.7814
-29.3172
-32.5567
-35.4453
-37.9434
-40.0256
-41.6781
-42.8974
-43.6879
-44.062
-44.0531
-43.6864
-43.002
-42.0284
-40.7931
-39.3231
-37.6433
-35.7752
-33.736
-31.5386
-29.1907
-26.6955
-24.0517
-21.2543
-18.2957
-15.1683
-11.8671
-8.39401
-4.76328
-1.00661
2.82277
6.64903
10.3772
13.9016
17.1179
19.9363
22.2944
24.1678
25.5605
26.5054
27.0439
27.2388
27.1568
26.8624
26.414
25.8617
25.2471
24.6032
23.9552
23.3218
22.7164
22.1476
21.6208
21.1384
20.7005
20.3058
19.955
19.6437
19.3632
19.114
18.892
18.6939
18.5176
18.3611
18.2228
18.1008
17.9938
17.9001
17.8183
17.7468
17.6844
17.6299
17.5822
17.5405
17.504
17.4721
17.4444
17.4205
17.3999
17.3822
17.3671
17.354
17.3427
17.3327
17.3239
17.3165
17.3117
17.3119
17.3076
17.2999
17.2988
17.3016
17.3051
17.3084
17.312
17.3169
17.3237
17.3329
17.3452
17.3617
17.3832
17.4112
17.4473
17.4933
17.552
17.6222
17.7136
17.7822
0.793507
0.803747
0.734308
0.52356
0.18956
-0.192288
-0.561236
-0.888327
-1.16234
-1.37845
-1.53297
-1.62206
-1.64405
-1.60118
-1.50009
-1.35133
-1.16851
-0.967296
-0.764425
-0.576695
-0.420013
-0.308094
-0.25148
-0.2571
-0.32765
-0.46068
-0.647319
-0.875663
-1.13058
-1.39285
-1.64151
-1.86534
-2.06357
-2.22341
-2.33293
-2.37336
-2.32664
-2.19471
-2.01179
-1.85188
-1.79799
-1.93934
-2.42138
-3.35306
-4.70286
-6.26805
-7.72499
-8.76373
-9.20478
-9.01623
-8.21384
-6.82805
-5.01609
-3.26578
-2.20319
-1.98149
-2.17327
-2.2693
-2.01153
-1.46987
-0.953735
-0.8438
-1.38872
-2.67923
-4.69114
-7.28222
-10.2925
-13.5342
-16.875
-20.2375
-23.5744
-26.8459
-30.0061
-32.9995
-35.7657
-38.2475
-40.3964
-42.1775
-43.5691
-44.5627
-45.1612
-45.3794
-45.2312
-44.7491
-43.9619
-42.8987
-41.5882
-40.0577
-38.3321
-36.4329
-34.3775
-32.1786
-29.8441
-27.3766
-24.7742
-22.0304
-19.1351
-16.0769
-12.8453
-9.43578
-5.85491
-2.12734
1.69886
5.54971
9.32791
12.9219
16.2172
19.1157
21.5513
23.4983
24.9579
25.9561
26.5429
26.7819
26.7407
26.4847
26.0724
25.554
24.9711
24.3564
23.7352
23.1261
22.5425
21.9932
21.4836
21.0165
20.5924
20.2103
19.8681
19.5625
19.2895
19.0479
18.8336
18.6432
18.4746
18.3255
18.1938
18.0778
17.9759
17.8865
17.8082
17.7397
17.6798
17.6272
17.5812
17.5408
17.5053
17.4743
17.4473
17.4237
17.4034
17.3857
17.3705
17.3573
17.3459
17.3358
17.3271
17.3198
17.3145
17.3115
17.3079
17.3041
17.3037
17.3055
17.3074
17.3091
17.3113
17.3148
17.3202
17.3278
17.3383
17.3524
17.3709
17.3949
17.4255
17.4638
17.5111
17.5656
17.6295
17.6721
0.662926
0.607727
0.34653
-0.0728206
-0.517566
-0.930628
-1.30665
-1.64212
-1.92755
-2.15727
-2.32444
-2.42359
-2.45429
-2.41898
-2.32294
-2.17429
-1.98397
-1.76543
-1.53407
-1.3064
-1.099
-0.927034
-0.803339
-0.737193
-0.733174
-0.793628
-0.918641
-1.10257
-1.33455
-1.60012
-1.8841
-2.16876
-2.43867
-2.68343
-2.90073
-3.08841
-3.23955
-3.3376
-3.36621
-3.32979
-3.28558
-3.34699
-3.62528
-4.17047
-4.96479
-5.90537
-6.79163
-7.38804
-7.53541
-7.21247
-6.44572
-5.29202
-3.90686
-2.73206
-2.25626
-2.45725
-2.82495
-2.93418
-2.69323
-2.36633
-2.40501
-3.14787
-4.69873
-6.96442
-9.73606
-12.767
-15.8852
-18.9979
-22.0774
-25.1214
-28.1227
-31.0564
-33.8802
-36.5407
-38.9822
-41.1533
-43.0113
-44.5245
-45.6726
-46.4466
-46.8482
-46.8911
-46.5925
-45.977
-45.072
-43.9062
-42.5087
-40.9071
-39.1268
-37.1895
-35.1128
-32.9095
-30.5875
-28.1495
-25.5927
-22.9095
-20.0878
-17.1122
-13.9666
-10.6386
-7.12581
-3.44355
0.367518
4.23682
8.06457
11.7321
15.1132
18.1026
20.6309
22.6629
24.1945
25.2562
25.9007
26.1935
26.2033
25.9958
25.6298
25.1553
24.6134
24.0366
23.4501
22.8725
22.3172
21.7932
21.3062
20.859
20.4525
20.0857
19.7571
19.4642
19.204
18.9731
18.7684
18.5872
18.4268
18.2851
18.16
18.0499
17.9531
17.8682
17.7937
17.7284
17.6711
17.6209
17.5768
17.538
17.5039
17.474
17.4479
17.425
17.4051
17.3877
17.3727
17.3595
17.3481
17.3381
17.3294
17.3221
17.3164
17.3124
17.3089
17.3057
17.304
17.3038
17.3042
17.3052
17.3068
17.3097
17.3142
17.3207
17.3296
17.3415
17.3571
17.3771
17.4022
17.4328
17.4691
17.5084
17.5484
17.5658
0.412092
0.204196
-0.160582
-0.574967
-0.994532
-1.40808
-1.80273
-2.17131
-2.51189
-2.81936
-3.08516
-3.29955
-3.45299
-3.53815
-3.55181
-3.49495
-3.37268
-3.19411
-2.97183
-2.72113
-2.45899
-2.20293
-1.97001
-1.77576
-1.63326
-1.55053
-1.53219
-1.579
-1.68674
-1.84547
-2.04637
-2.28135
-2.53648
-2.79932
-3.05647
-3.29967
-3.52535
-3.73034
-3.9021
-4.02355
-4.09186
-4.12783
-4.17414
-4.28328
-4.48136
-4.72555
-4.9048
-4.89035
-4.59052
-3.98671
-3.17931
-2.24987
-1.38413
-0.940665
-1.19144
-1.91128
-2.61006
-2.98371
-3.22196
-3.72352
-4.80543
-6.58315
-8.96929
-11.7573
-14.7391
-17.7666
-20.7692
-23.7257
-26.6371
-29.5021
-32.3053
-35.0165
-37.595
-39.9949
-42.17
-44.0781
-45.6832
-46.958
-47.8839
-48.4524
-48.665
-48.5362
-48.082
-47.3255
-46.2942
-45.0174
-43.5245
-41.8439
-40.0013
-38.0189
-35.9145
-33.7009
-31.386
-28.9724
-26.4574
-23.8327
-21.0848
-18.1952
-15.1428
-11.9077
-8.47767
-4.85732
-1.07797
2.79478
6.6582
10.3909
13.8518
16.9332
19.5526
21.6668
23.2733
24.4039
25.1134
25.4686
25.5392
25.3907
25.0815
24.6611
24.1699
23.6402
23.0968
22.5583
22.0382
21.5457
21.0868
20.6646
20.2802
19.9333
19.6225
19.3454
19.0991
18.8808
18.6877
18.5171
18.3665
18.2337
18.1167
18.0137
17.9232
17.8437
17.7739
17.7127
17.6588
17.6115
17.5698
17.533
17.5007
17.4721
17.447
17.425
17.4057
17.3888
17.374
17.3611
17.3497
17.3398
17.3311
17.3238
17.3178
17.3132
17.3094
17.306
17.3036
17.3026
17.3024
17.3028
17.3039
17.3059
17.3093
17.3143
17.3213
17.3307
17.3431
17.3588
17.3781
17.401
17.4266
17.4517
17.4714
17.4666
0.263678
-0.0294057
-0.347957
-0.734544
-1.16705
-1.64392
-2.16449
-2.6972
-3.25029
-3.80271
-4.3326
-4.82042
-5.24816
-5.5986
-5.85344
-6.0037
-6.04515
-5.97746
-5.80674
-5.5451
-5.20965
-4.82136
-4.40354
-3.98026
-3.57484
-3.20815
-2.89776
-2.65688
-2.49375
-2.41121
-2.40348
-2.46502
-2.58373
-2.74911
-2.95241
-3.18199
-3.42492
-3.67057
-3.91023
-4.12957
-4.29939
-4.38132
-4.33855
-4.1515
-3.82114
-3.3552
-2.75555
-2.0225
-1.17036
-0.249013
0.640913
1.37958
1.7535
1.54007
0.691262
-0.485065
-1.61306
-2.63898
-3.84827
-5.4877
-7.63948
-10.2405
-13.1295
-16.1416
-19.1675
-22.1539
-25.0858
-27.9622
-30.781
-33.5319
-36.194
-38.7375
-41.1265
-43.3217
-45.284
-46.977
-48.3695
-49.4373
-50.1639
-50.5423
-50.577
-50.2804
-49.6699
-48.7695
-47.6075
-46.2142
-44.6202
-42.8547
-40.9439
-38.9102
-36.7712
-34.5397
-32.2234
-29.8247
-27.3411
-24.7644
-22.0804
-19.2693
-16.3061
-13.1642
-9.82228
-6.27442
-2.54261
1.31306
5.18627
8.97419
12.495
15.6495
18.3444
20.5319
22.2089
23.4084
24.1866
24.611
24.7509
24.6712
24.429
24.0727
23.6418
23.1681
22.676
22.184
21.7059
21.2511
20.8259
20.4337
20.0761
19.7531
19.4635
19.2053
18.9761
18.7733
18.5943
18.4363
18.2971
18.1745
18.0666
17.9717
17.8883
17.8149
17.7504
17.6936
17.6436
17.5995
17.5605
17.5261
17.4956
17.4687
17.4448
17.4238
17.4053
17.3889
17.3746
17.3619
17.3508
17.3409
17.3324
17.325
17.3188
17.3138
17.3096
17.306
17.3032
17.3015
17.3005
17.3002
17.3004
17.3013
17.3034
17.3068
17.3119
17.3188
17.3278
17.3392
17.3529
17.3682
17.3838
17.3959
17.3985
17.3758
0.470225
0.211408
-0.155966
-0.644917
-1.25673
-1.98303
-2.79895
-3.71536
-4.68722
-5.69214
-6.69902
-7.67073
-8.56996
-9.36131
-10.0151
-10.5011
-10.7987
-10.8961
-10.7936
-10.5011
-10.038
-9.43168
-8.71551
-7.92662
-7.10335
-6.28293
-5.49962
-4.78325
-4.15805
-3.64179
-3.24466
-2.97006
-2.8142
-2.7649
-2.80843
-2.93008
-3.1165
-3.3503
-3.60954
-3.87272
-4.11212
-4.27415
-4.27565
-4.02205
-3.43842
-2.50933
-1.29581
0.0828493
1.48536
2.76751
3.78491
4.39112
4.44516
3.83585
2.64637
1.10832
-0.583928
-2.54481
-4.87135
-7.56159
-10.5334
-13.6604
-16.8239
-19.9495
-23.0066
-25.9905
-28.9052
-31.7519
-34.5238
-37.2058
-39.7751
-42.203
-44.4566
-46.5003
-48.2991
-49.8204
-51.0364
-51.9257
-52.4746
-52.6784
-52.5449
-52.0873
-51.324
-50.2811
-48.9886
-47.4783
-45.7822
-43.9303
-41.9494
-39.8618
-37.6847
-35.4301
-33.1047
-30.7109
-28.2461
-25.7025
-23.0663
-20.317
-17.4275
-14.3667
-11.1061
-7.63125
-3.9566
-0.134085
3.73609
7.53003
11.092
14.2947
17.0421
19.2854
21.0219
22.2856
23.1331
23.6311
23.8473
23.8447
23.6784
23.3951
23.0332
22.6235
22.1902
21.7518
21.322
20.9106
20.5243
20.167
19.8406
19.5455
19.2808
19.0449
18.8357
18.6509
18.4879
18.3444
18.2181
18.1071
18.0094
17.9235
17.848
17.7814
17.7228
17.6711
17.6254
17.585
17.5491
17.5172
17.4889
17.4638
17.4414
17.4215
17.4039
17.3883
17.3745
17.3622
17.3513
17.3417
17.3332
17.3258
17.3195
17.3142
17.3097
17.3058
17.3026
17.3002
17.2985
17.2973
17.2966
17.2966
17.2973
17.2992
17.3022
17.3065
17.3122
17.3193
17.3273
17.3355
17.3417
17.3422
17.3305
17.2935
0.541709
0.236872
-0.276145
-1.00387
-1.94002
-3.08188
-4.41407
-5.90904
-7.52538
-9.21585
-10.9254
-12.5928
-14.155
-15.5524
-16.7326
-17.6491
-18.2643
-18.5515
-18.5016
-18.124
-17.443
-16.4956
-15.3302
-14.0024
-12.5721
-11.0992
-9.64036
-8.24648
-6.96107
-5.81889
-4.84502
-4.05461
-3.45334
-3.03783
-2.79666
-2.71021
-2.75412
-2.89882
-3.1201
-3.38224
-3.64339
-3.85375
-3.93229
-3.74701
-3.16851
-2.12115
-0.648154
1.0812
2.83491
4.37217
5.47739
6.0117
5.93058
5.20882
3.84908
1.98116
-0.406103
-3.26406
-6.46416
-9.85889
-13.3088
-16.7135
-20.0221
-23.223
-26.3247
-29.3397
-32.2748
-35.128
-37.8889
-40.5397
-43.0569
-45.412
-47.5729
-49.506
-51.1787
-52.5611
-53.6286
-54.3629
-54.7532
-54.7979
-54.5089
-53.8995
-52.9911
-51.8121
-50.3945
-48.772
-46.9782
-45.0441
-42.9967
-40.8581
-38.6446
-36.3666
-34.0296
-31.6346
-29.1788
-26.6548
-24.0491
-21.3416
-18.5047
-15.5049
-12.3104
-8.90167
-5.28468
-1.5062
2.34015
6.12276
9.68993
12.9072
15.6781
17.9545
19.7356
21.0557
21.9705
22.5443
22.8419
22.9228
22.8396
22.6367
22.3509
22.012
21.6439
21.2649
20.889
20.5264
20.1839
19.866
19.5749
19.3115
19.0752
18.8647
18.6783
18.5139
18.3692
18.2419
18.1302
18.032
17.9457
17.8698
17.8029
17.7439
17.6918
17.6456
17.6047
17.5682
17.5357
17.5068
17.4808
17.4576
17.4369
17.4184
17.4018
17.387
17.3738
17.362
17.3514
17.3421
17.3337
17.3264
17.32
17.3144
17.3096
17.3054
17.3018
17.2988
17.2964
17.2944
17.2928
17.2917
17.2911
17.2913
17.2922
17.2939
17.2962
17.2991
17.3017
17.303
17.3007
17.2908
17.2672
17.2187
-0.452406
-0.860385
-1.56443
-2.60594
-3.98274
-5.68548
-7.68837
-9.94626
-12.3961
-14.9602
-17.5491
-20.0678
-22.4214
-24.5213
-26.2898
-27.6629
-28.594
-29.0487
-29.0048
-28.472
-27.4787
-26.071
-24.3113
-22.2755
-20.0486
-17.7191
-15.3736
-13.092
-10.9449
-8.98962
-7.26778
-5.80453
-4.61086
-3.68724
-3.02557
-2.60845
-2.40831
-2.38576
-2.49892
-2.70005
-2.93554
-3.14212
-3.23979
-3.12266
-2.64033
-1.68721
-0.269282
1.46178
3.2494
4.79287
5.84093
6.29288
6.16314
5.39825
3.89656
1.6327
-1.33504
-4.77842
-8.46366
-12.1979
-15.8567
-19.3842
-22.7725
-26.0363
-29.1947
-32.2606
-35.2371
-38.1185
-40.8919
-43.5377
-46.0309
-48.3421
-50.4393
-52.2898
-53.8624
-55.1303
-56.0719
-56.6718
-56.9224
-56.8259
-56.3966
-55.6493
-54.6086
-53.3053
-51.7734
-50.0489
-48.1666
-46.1588
-44.0529
-41.8704
-39.6262
-37.3291
-34.9823
-32.5849
-30.1329
-27.6189
-25.0298
-22.3462
-19.5415
-16.5823
-13.4349
-10.0758
-6.50758
-2.7741
1.03218
4.77894
8.31731
11.5146
14.2781
16.5639
18.3734
19.7409
20.7195
21.3696
21.7514
21.9203
21.9251
21.8077
21.6031
21.3403
21.0423
20.7277
20.4105
20.101
19.8067
19.5323
19.2805
19.0523
18.8477
18.6657
18.5048
18.3632
18.2387
18.1296
18.0338
17.9498
17.8759
17.8109
17.7535
17.7027
17.6576
17.6174
17.5816
17.5495
17.5207
17.4948
17.4715
17.4504
17.4315
17.4144
17.3989
17.3851
17.3726
17.3613
17.3512
17.3421
17.3339
17.3266
17.3202
17.3145
17.3094
17.3049
17.3008
17.2973
17.2942
17.2914
17.2889
17.2867
17.2848
17.2832
17.282
17.2811
17.2802
17.2789
17.2763
17.2712
17.2611
17.2421
17.2084
17.1506
-3.20541
-3.75973
-4.68047
-6.06915
-7.93406
-10.2654
-13.0207
-16.129
-19.4923
-22.9916
-26.4957
-29.8712
-32.992
-35.7447
-38.032
-39.7762
-40.9295
-41.4668
-41.3616
-40.6231
-39.2795
-37.3789
-34.9883
-32.1928
-29.0922
-25.796
-22.4193
-19.0788
-15.8873
-12.9435
-10.3194
-8.05302
-6.15406
-4.61676
-3.42876
-2.57168
-2.01805
-1.72898
-1.65286
-1.72681
-1.87728
-2.02839
-2.09436
-1.9828
-1.57917
-0.784104
0.415418
1.90078
3.4249
4.68967
5.49407
5.80575
5.60888
4.71413
2.98787
0.360204
-2.95739
-6.67929
-10.5486
-14.3885
-18.1089
-21.684
-25.1221
-28.4419
-31.6589
-34.7805
-37.8055
-40.725
-43.5234
-46.179
-48.6645
-50.9493
-53.0006
-54.7866
-56.2781
-57.4509
-58.2866
-58.7724
-58.9032
-58.6861
-58.1357
-57.2693
-56.1142
-54.7034
-53.0733
-51.2613
-49.3043
-47.2353
-45.0819
-42.8652
-40.5987
-38.2888
-35.9364
-33.5384
-31.0889
-28.5796
-25.9979
-23.325
-20.5349
-17.5953
-14.4732
-11.1455
-7.61548
-3.9279
-0.175583
3.51095
6.98883
10.1336
12.8612
15.1344
16.9576
18.3637
19.402
20.1272
20.5939
20.8525
20.9478
20.9189
20.7988
20.6153
20.3912
20.1446
19.8898
19.6375
19.3951
19.168
18.9589
18.7694
18.5997
18.449
18.3162
18.1996
18.0974
18.008
17.9298
17.8611
17.8007
17.7474
17.7002
17.6582
17.6206
17.5869
17.5566
17.5291
17.5042
17.4816
17.461
17.4423
17.4252
17.4096
17.3955
17.3826
17.3709
17.3602
17.3506
17.3418
17.3339
17.3267
17.3202
17.3144
17.3091
17.3043
17.2998
17.2957
17.292
17.2884
17.285
17.2816
17.2784
17.2751
17.2719
17.2683
17.2642
17.2589
17.2515
17.2404
17.2232
17.1962
17.1541
17.0887
-7.82655
-8.49319
-9.64248
-11.3705
-13.7108
-16.6526
-20.1316
-24.0407
-28.236
-32.5504
-36.8099
-40.8499
-44.5262
-47.7164
-50.3178
-52.2491
-53.4658
-53.9596
-53.7163
-52.7411
-51.0614
-48.7265
-45.8052
-42.3829
-38.5555
-34.4228
-30.0902
-25.6844
-21.3635
-17.3003
-13.6404
-10.4637
-7.7821
-5.56871
-3.78881
-2.41287
-1.413
-0.753348
-0.381478
-0.22809
-0.228653
-0.265943
-0.26174
-0.128777
0.214689
0.843164
1.75916
2.85212
3.90542
4.70253
5.15104
5.24369
4.85681
3.72123
1.68466
-1.22002
-4.72835
-8.55015
-12.453
-16.297
-20.0217
-23.616
-27.0902
-30.4576
-33.7273
-36.9009
-39.9732
-42.9321
-45.7592
-48.4297
-50.9144
-53.1809
-55.1965
-56.9303
-58.3552
-59.4495
-60.1976
-60.5892
-60.6215
-60.3059
-59.6567
-58.6933
-57.4458
-55.9491
-54.2415
-52.3616
-50.3481
-48.2345
-46.0484
-43.8101
-41.5316
-39.2172
-36.8653
-34.47
-32.0234
-29.5159
-26.9344
-24.2611
-21.4707
-18.5329
-15.4174
-12.1054
-8.60515
-4.96615
-1.28248
2.31978
5.70836
8.77242
11.4403
13.6833
15.5079
16.9451
18.0383
18.8359
19.3861
19.7338
19.9197
19.98
19.9457
19.8435
19.6955
19.5198
19.3305
19.1385
18.9515
18.7749
18.6119
18.4643
18.3324
18.2158
18.1135
18.0241
17.9461
17.8782
17.8188
17.7667
17.7207
17.68
17.6436
17.6109
17.5813
17.5545
17.5299
17.5073
17.4866
17.4674
17.4497
17.4334
17.4183
17.4043
17.3915
17.3797
17.3688
17.3588
17.3497
17.3413
17.3336
17.3265
17.3201
17.3141
17.3087
17.3036
17.2987
17.2942
17.2898
17.2854
17.2811
17.2766
17.272
17.2671
17.2618
17.2557
17.2485
17.2394
17.2274
17.2108
17.1873
17.1532
17.1039
17.0323
-13.6788
-14.3903
-15.7151
-17.7361
-20.4892
-23.9496
-28.0244
-32.5646
-37.3788
-42.2573
-46.998
-51.4266
-55.4036
-58.8181
-61.5772
-63.5969
-64.8182
-65.2578
-64.8618
-63.6314
-61.5973
-58.821
-55.3926
-51.4256
-47.0415
-42.3378
-37.3627
-32.1541
-26.8338
-21.6434
-16.8646
-12.6915
-9.1769
-6.27256
-3.89839
-1.98736
-0.493796
0.618236
1.38946
1.8747
2.14689
2.29756
2.41037
2.56944
2.83921
3.27333
3.84816
4.45497
4.94641
5.22977
5.29357
5.08313
4.36946
2.88633
0.503384
-2.6391
-6.27002
-10.1261
-14.0183
-17.8436
-21.5625
-25.1701
-28.6737
-32.0809
-35.3947
-38.6127
-41.7259
-44.7192
-47.5712
-50.2545
-52.738
-54.9884
-56.9733
-58.6632
-60.0328
-61.0626
-61.7391
-62.0551
-62.0106
-61.6198
-60.8951
-59.8596
-58.5451
-56.9886
-55.2299
-53.3062
-51.2612
-49.1246
-46.9242
-44.6792
-42.4003
-40.0897
-37.7434
-35.3533
-32.9097
-30.4014
-27.8149
-25.1322
-22.3296
-19.3793
-16.2565
-12.9502
-9.47764
-5.89521
-2.29765
1.19695
4.47152
7.43281
10.0237
12.2236
14.0406
15.502
16.6449
17.5107
18.1408
18.5749
18.8496
18.998
19.0495
19.0293
18.9591
18.8563
18.7351
18.6063
18.4777
18.3549
18.2412
18.1384
18.0472
17.9674
17.8979
17.8379
17.786
17.741
17.7018
17.6673
17.6367
17.6092
17.5843
17.5614
17.5402
17.5204
17.5019
17.4844
17.468
17.4524
17.4377
17.4238
17.4108
17.3985
17.3871
17.3764
17.3664
17.3571
17.3485
17.3405
17.3331
17.3262
17.3198
17.3138
17.3082
17.3028
17.2976
17.2926
17.2876
17.2825
17.2773
17.2718
17.2658
17.2593
17.252
17.2435
17.2333
17.2206
17.2043
17.1827
17.1534
17.1132
17.0577
16.9809
-19.4344
-20.187
-21.6504
-23.9054
-26.9808
-30.8335
-35.3411
-40.3172
-45.5347
-50.761
-55.7904
-60.463
-64.6612
-68.2923
-71.2687
-73.4891
-74.8567
-75.37
-74.906
-73.4442
-71.0107
-67.6819
-63.587
-58.9081
-53.8606
-48.6249
-43.2426
-37.6028
-31.6297
-25.5084
-19.6584
-14.4699
-10.1085
-6.5339
-3.61893
-1.23946
0.69406
2.23909
3.43661
4.32551
4.95208
5.37346
5.65581
5.87047
6.0616
6.27138
6.46215
6.56622
6.53449
6.36897
6.06144
5.47801
4.35118
2.44527
-0.292925
-3.65727
-7.39364
-11.2795
-15.1678
-18.9858
-22.7081
-26.3323
-29.8628
-33.3031
-36.6522
-39.9044
-43.0483
-46.0661
-48.9338
-51.6224
-54.0995
-56.332
-58.2879
-59.9393
-61.2635
-62.2425
-62.8648
-63.1256
-63.028
-62.5868
-61.8131
-60.7336
-59.3812
-57.7934
-56.0105
-54.0722
-52.0173
-49.8785
-47.682
-45.4455
-43.1779
-40.8794
-38.5437
-36.161
-33.7198
-31.2079
-28.6113
-25.912
-23.0882
-20.1166
-16.9803
-13.6791
-10.2416
-6.73094
-3.23982
0.12578
3.26756
6.1115
8.6148
10.7637
12.5665
14.0458
15.2323
16.1603
16.8651
17.3813
17.7416
17.9762
18.1126
18.1749
18.1835
18.1557
18.1051
18.0424
17.9754
17.9096
17.8483
17.7934
17.7457
17.7051
17.6708
17.6421
17.618
17.5974
17.5796
17.5638
17.5494
17.5358
17.5228
17.5101
17.4976
17.4852
17.4729
17.4607
17.4486
17.4368
17.4251
17.4138
17.4029
17.3924
17.3823
17.3728
17.3637
17.3552
17.3471
17.3396
17.3324
17.3257
17.3194
17.3134
17.3076
17.3021
17.2966
17.2911
17.2855
17.2797
17.2736
17.267
17.2598
17.2517
17.2425
17.2316
17.2186
17.2026
17.1823
17.1561
17.1218
17.0761
17.0154
16.9342
-23.5577
-24.422
-26.0331
-28.4932
-31.8263
-35.9734
-40.7917
-46.0713
-51.5676
-57.0441
-62.307
-67.2179
-71.6781
-75.5976
-78.8696
-81.3598
-82.9359
-83.5253
-83.0469
-81.4346
-78.6884
-74.8668
-70.1006
-64.622
-58.7659
-52.8704
-47.0746
-41.206
-34.954
-28.2805
-21.6157
-15.5465
-10.4149
-6.23971
-2.86839
-0.126986
2.12092
3.96702
5.47121
6.67514
7.60998
8.30734
8.80228
9.12426
9.29051
9.29794
9.15664
8.87096
8.46836
7.97449
7.33121
6.34745
4.77518
2.44996
-0.622578
-4.18989
-8.03273
-11.967
-15.8766
-19.7103
-23.4513
-27.0991
-30.6565
-34.1246
-37.5005
-40.7767
-43.9397
-46.9703
-49.8431
-52.5283
-54.9936
-57.2062
-59.1352
-60.7537
-62.0406
-62.9803
-63.5633
-63.7865
-63.6553
-63.1831
-62.3837
-61.2855
-59.9219
-58.3306
-56.5516
-54.6244
-52.5862
-50.4686
-48.296
-46.0841
-43.8396
-41.5608
-39.2397
-36.8652
-34.4249
-31.9058
-29.2936
-26.5712
-23.7202
-20.7243
-17.5771
-14.2915
-10.9069
-7.49026
-4.12786
-0.909666
2.08641
4.80482
7.21494
9.30781
11.0906
12.5813
13.8041
14.7873
15.5603
16.1532
16.5951
16.9137
17.1342
17.2792
17.3682
17.4175
17.4405
17.4472
17.4452
17.4398
17.4342
17.4305
17.4292
17.4303
17.4335
17.4381
17.4434
17.4487
17.4534
17.4572
17.4596
17.4605
17.4599
17.4578
17.4542
17.4493
17.4434
17.4365
17.4289
17.4207
17.4122
17.4035
17.3947
17.3859
17.3773
17.3689
17.3608
17.353
17.3456
17.3385
17.3317
17.3252
17.319
17.3129
17.3071
17.3013
17.2955
17.2896
17.2835
17.277
17.2701
17.2625
17.2541
17.2445
17.2334
17.2203
17.2047
17.1855
17.1616
17.1313
17.0924
17.042
16.9767
16.8918
-24.8607
-26.055
-27.8875
-30.5542
-34.1134
-38.4854
-43.5242
-49.0139
-54.7062
-60.3656
-65.8039
-70.8872
-75.5142
-79.5823
-82.966
-85.5183
-87.104
-87.6976
-87.2138
-85.5784
-82.7607
-78.7781
-73.7175
-67.781
-61.3354
-54.8696
-48.6645
-42.6189
-36.3113
-29.4563
-22.3564
-15.6848
-9.95841
-5.32424
-1.61038
1.38005
3.8204
5.8377
7.49911
8.8567
9.94512
10.795
11.4189
11.8103
11.9652
11.8862
11.5891
11.1226
10.539
9.83712
8.90928
7.54915
5.55617
2.84682
-0.496182
-4.25497
-8.21267
-12.2129
-16.1664
-20.0339
-23.805
-27.4807
-31.0634
-34.553
-37.946
-41.2336
-44.4018
-47.4307
-50.2947
-52.9645
-55.4085
-57.5951
-59.4952
-61.0837
-62.3407
-63.2522
-63.8104
-64.0136
-63.8685
-63.3872
-62.5873
-61.4978
-60.1516
-58.586
-56.84
-54.9518
-52.9564
-50.8831
-48.7541
-46.5824
-44.3723
-42.1202
-39.817
-37.4508
-35.0088
-32.4777
-29.8434
-27.0911
-24.2077
-21.1874
-18.0377
-14.7857
-11.4799
-8.18649
-4.97973
-1.92986
0.906255
3.48979
5.79973
7.82998
9.58568
11.08
12.3316
13.3629
14.1985
14.8642
15.3857
15.7878
16.0935
16.3238
16.4968
16.6278
16.7291
16.8104
16.8785
16.9384
16.9934
17.0449
17.0938
17.1402
17.1838
17.2242
17.261
17.2938
17.3225
17.3468
17.367
17.3831
17.3954
17.4042
17.4098
17.4127
17.4133
17.4118
17.4088
17.4044
17.399
17.3929
17.3862
17.3792
17.3721
17.3649
17.3578
17.3508
17.3439
17.3373
17.3308
17.3245
17.3184
17.3124
17.3065
17.3006
17.2945
17.2882
17.2816
17.2745
17.2668
17.2583
17.2486
17.2376
17.2248
17.2097
17.1916
17.1695
17.1423
17.1082
17.0653
17.0107
16.9415
16.8535
-22.7088
-24.3315
-26.564
-29.4983
-33.2568
-37.7973
-42.9836
-48.6129
-54.4447
-60.2427
-65.8112