/*--------------------------------*- C++ -*----------------------------------*\
  =========                 |
  \\      /  F ield         | OpenFOAM: The Open Source CFD Toolbox
   \\    /   O peration     | Website:  https://openfoam.org
    \\  /    A nd           | Version:  9
     \\/     M anipulation  |
\*---------------------------------------------------------------------------*/
FoamFile
{
    format      ascii;
    class       surfaceScalarField;
    location    "0.04";
    object      phi;
}
// * * * * * * * * * * * * * * * * * * * * * * * * * * * * * * * * * * * * * //

dimensions      [0 3 -1 0 0 0 0];

internalField   nonuniform List<scalar> 
24170
(
3.07424e-06
1.14167e-07
2.93741e-06
1.36834e-07
2.81407e-06
1.23333e-07
2.70266e-06
1.11412e-07
2.60137e-06
1.01291e-07
2.51192e-06
8.94508e-08
2.43465e-06
7.72721e-08
2.3688e-06
6.58494e-08
2.31337e-06
5.54303e-08
2.26735e-06
4.60134e-08
2.2298e-06
3.75498e-08
2.19987e-06
2.99358e-08
2.17688e-06
2.29896e-08
2.16044e-06
1.64382e-08
2.15059e-06
9.85325e-09
2.14746e-06
3.12671e-09
2.1545e-06
-7.04186e-09
-2.41781e-08
2.17868e-06
3.47903e-06
5.23904e-08
3.51324e-06
1.02617e-07
3.5343e-06
1.02274e-07
3.54283e-06
1.02887e-07
3.54183e-06
1.02282e-07
3.53403e-06
9.72573e-08
3.5216e-06
8.96957e-08
3.50628e-06
8.11716e-08
3.48944e-06
7.22754e-08
3.47216e-06
6.32902e-08
3.45529e-06
5.44191e-08
3.43947e-06
4.57599e-08
3.42518e-06
3.72788e-08
3.41283e-06
2.87853e-08
3.4028e-06
1.98878e-08
3.39629e-06
9.63408e-09
3.39388e-06
-4.62894e-09
-2.74455e-08
3.39714e-06
3.67515e-06
3.97568e-08
3.69302e-06
8.47442e-08
3.7097e-06
8.55964e-08
3.72646e-06
8.61323e-08
3.74222e-06
8.65139e-08
3.75611e-06
8.3373e-08
3.76808e-06
7.77277e-08
3.77832e-06
7.09232e-08
3.7871e-06
6.35026e-08
3.79469e-06
5.56957e-08
3.80144e-06
4.76739e-08
3.80766e-06
3.95344e-08
3.81369e-06
3.12562e-08
3.8198e-06
2.26703e-08
3.82628e-06
1.34058e-08
3.83341e-06
2.50543e-09
3.84043e-06
-1.16432e-08
-3.18303e-08
3.84481e-06
3.93211e-06
3.3032e-08
3.94453e-06
7.23231e-08
3.95362e-06
7.65078e-08
3.96327e-06
7.64822e-08
3.97357e-06
7.62191e-08
3.98388e-06
7.30573e-08
3.99419e-06
6.74236e-08
4.00453e-06
6.05854e-08
4.01488e-06
5.31478e-08
4.02526e-06
4.53162e-08
4.03572e-06
3.72145e-08
4.04634e-06
2.89144e-08
4.05721e-06
2.0384e-08
4.06843e-06
1.1453e-08
4.07992e-06
1.91449e-09
4.09155e-06
-9.12786e-09
4.10212e-06
-2.22145e-08
-3.81251e-08
4.10842e-06
4.21306e-06
2.70991e-08
4.22368e-06
6.16993e-08
4.23143e-06
6.87664e-08
4.23929e-06
6.86203e-08
4.24783e-06
6.76723e-08
4.25661e-06
6.42836e-08
4.26557e-06
5.84595e-08
4.27482e-06
5.13352e-08
4.28439e-06
4.35756e-08
4.29431e-06
3.53961e-08
4.30463e-06
2.68999e-08
4.31539e-06
1.81521e-08
4.32664e-06
9.1375e-09
4.33838e-06
-2.87313e-10
4.35052e-06
-1.02257e-08
4.36255e-06
-2.11634e-08
4.37341e-06
-3.30686e-08
-4.53805e-08
4.38066e-06
4.51415e-06
2.20403e-08
4.52356e-06
5.22817e-08
4.53152e-06
6.0809e-08
4.53938e-06
6.07609e-08
4.54783e-06
5.92194e-08
4.55654e-06
5.55777e-08
4.56541e-06
4.95917e-08
4.57455e-06
4.21969e-08
4.58404e-06
3.40828e-08
4.59394e-06
2.54953e-08
4.6043e-06
1.65366e-08
4.61518e-06
7.2764e-09
4.62659e-06
-2.27341e-09
4.63848e-06
-1.21764e-08
4.65072e-06
-2.24655e-08
4.66279e-06
-3.32376e-08
4.67388e-06
-4.41615e-08
-5.40987e-08
4.6826e-06
4.83691e-06
1.78493e-08
4.84545e-06
4.37431e-08
4.85366e-06
5.25999e-08
4.8617e-06
5.27171e-08
4.87028e-06
5.06439e-08
4.8792e-06
4.66551e-08
4.88833e-06
4.04615e-08
4.89774e-06
3.27834e-08
4.90753e-06
2.42957e-08
4.91775e-06
1.52785e-08
4.92844e-06
5.84318e-09
4.93965e-06
-3.93286e-09
4.95138e-06
-1.40055e-08
4.96357e-06
-2.43653e-08
4.97607e-06
-3.49608e-08
4.98849e-06
-4.56564e-08
5.00031e-06
-5.5984e-08
-6.47308e-08
5.01094e-06
5.18309e-06
1.43396e-08
5.19087e-06
3.59616e-08
5.1991e-06
4.43673e-08
5.20728e-06
4.45416e-08
5.21598e-06
4.19408e-08
5.22515e-06
3.74857e-08
5.23462e-06
3.09977e-08
5.2444e-06
2.30034e-08
5.25457e-06
1.41222e-08
5.26519e-06
4.65967e-09
5.27629e-06
-5.25842e-09
5.2879e-06
-1.55449e-08
5.30002e-06
-2.6127e-08
5.3126e-06
-3.69383e-08
5.3255e-06
-4.78607e-08
5.3385e-06
-5.86548e-08
5.35136e-06
-6.88536e-08
-7.74522e-08
5.36409e-06
5.55433e-06
1.13464e-08
5.5614e-06
2.88876e-08
5.5695e-06
3.62694e-08
5.57778e-06
3.62681e-08
5.5866e-06
3.31199e-08
5.59597e-06
2.81109e-08
5.60573e-06
2.1244e-08
5.61583e-06
1.28955e-08
5.62635e-06
3.60095e-09
5.63734e-06
-6.32226e-09
5.64881e-06
-1.6731e-08
5.66079e-06
-2.75275e-08
5.67328e-06
-3.86178e-08
5.68624e-06
-4.98988e-08
5.6996e-06
-6.12198e-08
5.71327e-06
-7.23269e-08
5.72726e-06
-8.28418e-08
-9.205e-08
5.74186e-06
5.95237e-06
8.75528e-09
5.9588e-06
2.24589e-08
5.96667e-06
2.83961e-08
5.97499e-06
2.79456e-08
5.9839e-06
2.42156e-08
5.99341e-06
1.85978e-08
6.00338e-06
1.12757e-08
6.01374e-06
2.52973e-09
6.02454e-06
-7.19765e-09
6.03581e-06
-1.75932e-08
6.04758e-06
-2.84982e-08
6.05986e-06
-3.98051e-08
6.07265e-06
-5.14085e-08
6.08594e-06
-6.31906e-08
6.09972e-06
-7.50002e-08
6.11401e-06
-8.66209e-08
6.12897e-06
-9.77972e-08
-1.08092e-07
6.14501e-06
6.37908e-06
6.48239e-09
6.38494e-06
1.66036e-08
6.39253e-06
2.08083e-08
6.40083e-06
1.96442e-08
6.40977e-06
1.52778e-08
6.41935e-06
9.01427e-09
6.42945e-06
1.17328e-09
6.44e-06
-8.01246e-09
6.45098e-06
-1.81864e-08
6.46245e-06
-2.90567e-08
6.4744e-06
-4.04542e-08
6.48686e-06
-5.22659e-08
6.49984e-06
-6.43846e-08
6.51335e-06
-7.66954e-08
6.52741e-06
-8.90681e-08
6.54214e-06
-1.01346e-07
6.55773e-06
-1.13388e-07
-1.24967e-07
6.5746e-06
5.74257e-06
4.74948e-09
5.74712e-06
1.20535e-08
5.75327e-06
1.46542e-08
5.76021e-06
1.27047e-08
5.76774e-06
7.74567e-09
5.77584e-06
9.17957e-10
5.78441e-06
-7.39601e-09
5.79338e-06
-1.69788e-08
5.80272e-06
-2.75344e-08
5.81246e-06
-3.87978e-08
5.82261e-06
-5.05993e-08
5.83317e-06
-6.28241e-08
5.84415e-06
-7.53696e-08
5.85559e-06
-8.81314e-08
5.86752e-06
-1.01005e-07
5.88006e-06
-1.13882e-07
5.89337e-06
-1.26697e-07
-1.3935e-07
5.90775e-06
6.99996e-06
2.94495e-09
7.00478e-06
7.23311e-09
7.01151e-06
7.92929e-09
7.01929e-06
4.92335e-09
7.02782e-06
-7.88115e-10
7.03702e-06
-8.28371e-09
7.04679e-06
-1.71613e-08
7.05702e-06
-2.72138e-08
7.06769e-06
-3.82018e-08
7.07879e-06
-4.98955e-08
7.09032e-06
-6.21324e-08
7.1023e-06
-7.48002e-08
7.11473e-06
-8.7805e-08
7.12766e-06
-1.0106e-07
7.14114e-06
-1.14487e-07
7.15529e-06
-1.28028e-07
7.17026e-06
-1.4167e-07
-1.55403e-07
7.18632e-06
8.5327e-06
1.08996e-09
8.53772e-06
2.21556e-09
8.54492e-06
7.31879e-10
8.55345e-06
-3.61409e-09
8.56292e-06
-1.02582e-08
8.57317e-06
-1.85273e-08
8.58406e-06
-2.805e-08
8.59548e-06
-3.86326e-08
8.60736e-06
-5.00862e-08
8.61969e-06
-6.22219e-08
8.63245e-06
-7.48931e-08
8.64564e-06
-8.79949e-08
8.65928e-06
-1.01445e-07
8.6734e-06
-1.15175e-07
8.68804e-06
-1.29131e-07
8.7033e-06
-1.43286e-07
8.71928e-06
-1.57648e-07
-1.72252e-07
8.73613e-06
1.04011e-05
-7.88964e-10
1.04062e-05
-2.9059e-09
1.04137e-05
-6.78578e-09
1.04228e-05
-1.27251e-08
1.04331e-05
-2.04754e-08
1.04441e-05
-2.96056e-08
1.04559e-05
-3.98216e-08
1.04682e-05
-5.09557e-08
1.0481e-05
-6.2863e-08
1.04942e-05
-7.53974e-08
1.05077e-05
-8.84353e-08
1.05216e-05
-1.01884e-07
1.05358e-05
-1.15671e-07
1.05504e-05
-1.2974e-07
1.05653e-05
-1.44049e-07
1.05806e-05
-1.58579e-07
1.05963e-05
-1.73323e-07
-1.88326e-07
1.06124e-05
1.26787e-05
-2.65469e-09
1.26838e-05
-8.00537e-09
1.26914e-05
-1.43914e-08
1.27007e-05
-2.20927e-08
1.27113e-05
-3.1066e-08
1.27228e-05
-4.10903e-08
1.2735e-05
-5.1976e-08
1.27476e-05
-6.35998e-08
1.27606e-05
-7.58579e-08
1.27738e-05
-8.86448e-08
1.27873e-05
-1.01863e-07
1.28008e-05
-1.15433e-07
1.28144e-05
-1.29288e-07
1.28281e-05
-1.43374e-07
1.28417e-05
-1.57644e-07
1.28552e-05
-1.72065e-07
1.28684e-05
-1.86596e-07
-2.01272e-07
1.28814e-05
1.5455e-05
-4.44682e-09
1.54599e-05
-1.29141e-08
1.54673e-05
-2.17706e-08
1.54764e-05
-3.12482e-08
1.54868e-05
-4.14257e-08
1.54979e-05
-5.22496e-08
1.55096e-05
-6.36437e-08
1.55215e-05
-7.55449e-08
1.55336e-05
-8.78913e-08
1.55455e-05
-1.00614e-07
1.55573e-05
-1.1364e-07
1.55688e-05
-1.26902e-07
1.55798e-05
-1.40335e-07
1.55903e-05
-1.53879e-07
1.56002e-05
-1.67473e-07
1.56092e-05
-1.81063e-07
1.56172e-05
-1.9457e-07
-2.08019e-07
1.56239e-05
1.88393e-05
-6.08302e-09
1.88438e-05
-1.74298e-08
1.88506e-05
-2.85416e-08
1.88589e-05
-3.9583e-08
1.88682e-05
-5.07108e-08
1.88779e-05
-6.20111e-08
1.88878e-05
-7.35223e-08
1.88975e-05
-8.52511e-08
1.89068e-05
-9.71803e-08
1.89155e-05
-1.09276e-07
1.89233e-05
-1.21491e-07
1.89302e-05
-1.3377e-07
1.89359e-05
-1.46053e-07
1.89403e-05
-1.58272e-07
1.89432e-05
-1.70359e-07
1.89444e-05
-1.82246e-07
1.89436e-05
-1.93835e-07
-2.05151e-07
1.89408e-05
2.29647e-05
-7.45059e-09
2.29686e-05
-2.13678e-08
2.29744e-05
-3.4327e-08
2.29813e-05
-4.64253e-08
2.29885e-05
-5.79064e-08
2.29955e-05
-6.90157e-08
2.30019e-05
-7.99197e-08
2.30073e-05
-9.06993e-08
2.30115e-05
-1.01388e-07
2.30142e-05
-1.11996e-07
2.30153e-05
-1.22513e-07
2.30144e-05
-1.32907e-07
2.30115e-05
-1.43129e-07
2.30063e-05
-1.53122e-07
2.29988e-05
-1.62822e-07
2.29887e-05
-1.72168e-07
2.2976e-05
-1.81071e-07
-1.89562e-07
2.29604e-05
1.68116e-05
-8.29585e-09
1.6814e-05
-2.37878e-08
1.68173e-05
-3.7677e-08
1.68209e-05
-5.00134e-08
1.68242e-05
-6.11831e-08
1.68268e-05
-7.16195e-08
1.68285e-05
-8.15919e-08
1.6829e-05
-9.12197e-08
1.68282e-05
-1.0057e-07
1.68259e-05
-1.0969e-07
1.68219e-05
-1.18602e-07
1.68163e-05
-1.27294e-07
1.68089e-05
-1.35732e-07
1.67997e-05
-1.43875e-07
1.67885e-05
-1.51669e-07
1.67754e-05
-1.59064e-07
1.67603e-05
-1.65983e-07
-1.72458e-07
1.67432e-05
1.46354e-05
-9.11485e-09
1.46376e-05
-2.60286e-08
1.46405e-05
-4.05458e-08
1.46432e-05
-5.27085e-08
1.46452e-05
-6.31906e-08
1.46463e-05
-7.2677e-08
1.46462e-05
-8.15099e-08
1.46448e-05
-8.98258e-08
1.46419e-05
-9.7733e-08
1.46376e-05
-1.05325e-07
1.46316e-05
-1.12646e-07
1.4624e-05
-1.197e-07
1.46148e-05
-1.26467e-07
1.46038e-05
-1.32919e-07
1.45912e-05
-1.39017e-07
1.45768e-05
-1.44723e-07
1.45608e-05
-1.49979e-07
-1.54818e-07
1.45432e-05
1.27411e-05
-1.0078e-08
1.27436e-05
-2.85591e-08
1.27466e-05
-4.35093e-08
1.2749e-05
-5.51041e-08
1.27504e-05
-6.46276e-08
1.27508e-05
-7.30496e-08
1.275e-05
-8.06689e-08
1.27477e-05
-8.76074e-08
1.2744e-05
-9.40432e-08
1.27388e-05
-1.00128e-07
1.27321e-05
-1.05927e-07
1.27239e-05
-1.11452e-07
1.27141e-05
-1.16697e-07
1.27028e-05
-1.21643e-07
1.26901e-05
-1.26265e-07
1.26759e-05
-1.30533e-07
1.26603e-05
-1.34394e-07
-1.3787e-07
1.26434e-05
1.10922e-05
-1.13149e-08
1.10953e-05
-3.17321e-08
1.10988e-05
-4.69483e-08
1.11012e-05
-5.75112e-08
1.11024e-05
-6.58366e-08
1.11025e-05
-7.31534e-08
1.11014e-05
-7.95623e-08
1.10989e-05
-8.5153e-08
1.10951e-05
-9.01875e-08
1.10898e-05
-9.48623e-08
1.10831e-05
-9.92522e-08
1.10751e-05
-1.03379e-07
1.10656e-05
-1.07249e-07
1.10548e-05
-1.10862e-07
1.10428e-05
-1.142e-07
1.10295e-05
-1.17243e-07
1.1015e-05
-1.19959e-07
-1.22382e-07
1.09996e-05
9.65689e-06
-1.29939e-08
9.6609e-06
-3.57411e-08
9.6649e-06
-5.09503e-08
9.66751e-06
-6.01175e-08
9.66882e-06
-6.71468e-08
9.66896e-06
-7.32908e-08
9.6678e-06
-7.84085e-08
9.6653e-06
-8.26513e-08
9.66149e-06
-8.6373e-08
9.6564e-06
-8.97695e-08
9.65004e-06
-9.28973e-08
9.64244e-06
-9.57822e-08
9.63364e-06
-9.84464e-08
9.62368e-06
-1.00899e-07
9.61261e-06
-1.03133e-07
9.6005e-06
-1.05132e-07
9.5874e-06
-1.06861e-07
-1.08312e-07
9.57333e-06
8.40778e-06
-1.54226e-08
8.41294e-06
-4.08972e-08
8.41705e-06
-5.50629e-08
8.41962e-06
-6.26895e-08
8.42121e-06
-6.87381e-08
8.42173e-06
-7.38052e-08
8.4209e-06
-7.75844e-08
8.41872e-06
-8.04726e-08
8.41528e-06
-8.2928e-08
8.41063e-06
-8.51202e-08
8.40482e-06
-8.70847e-08
8.39789e-06
-8.88502e-08
8.38989e-06
-9.04464e-08
8.38087e-06
-9.18871e-08
8.37091e-06
-9.31716e-08
8.36007e-06
-9.42896e-08
8.34844e-06
-9.52324e-08
-9.60279e-08
8.33616e-06
7.32043e-06
-1.85691e-08
7.32783e-06
-4.82975e-08
7.33174e-06
-5.89688e-08
7.33372e-06
-6.46689e-08
7.3351e-06
-7.01222e-08
7.33563e-06
-7.43357e-08
7.33503e-06
-7.69858e-08
7.33333e-06
-7.87688e-08
7.33057e-06
-8.01737e-08
7.32679e-06
-8.13329e-08
7.32199e-06
-8.22867e-08
7.31622e-06
-8.30816e-08
7.30953e-06
-8.37558e-08
7.30197e-06
-8.43288e-08
7.29361e-06
-8.48068e-08
7.2845e-06
-8.51856e-08
7.27471e-06
-8.54407e-08
-8.55003e-08
7.26418e-06
6.37253e-06
-2.10338e-08
6.38303e-06
-5.88004e-08
6.38827e-06
-6.4205e-08
6.39136e-06
-6.77584e-08
6.3939e-06
-7.26607e-08
6.39549e-06
-7.59313e-08
6.3961e-06
-7.759e-08
6.39588e-06
-7.85532e-08
6.39489e-06
-7.91854e-08
6.3931e-06
-7.95431e-08
6.39049e-06
-7.96772e-08
6.38707e-06
-7.96569e-08
6.38285e-06
-7.95326e-08
6.37785e-06
-7.93349e-08
6.37213e-06
-7.90828e-08
6.36574e-06
-7.87967e-08
6.35877e-06
-7.84731e-08
-7.81181e-08
6.35139e-06
5.54895e-06
-2.45243e-08
5.56162e-06
-7.1469e-08
5.57248e-06
-7.50599e-08
5.58291e-06
-7.81921e-08
5.59298e-06
-8.27285e-08
5.60163e-06
-8.45838e-08
5.60862e-06
-8.45823e-08
5.61404e-06
-8.39709e-08
5.61793e-06
-8.30683e-08
5.62029e-06
-8.19047e-08
5.62116e-06
-8.05498e-08
5.62059e-06
-7.9091e-08
5.61865e-06
-7.759e-08
5.6154e-06
-7.60881e-08
5.61093e-06
-7.46131e-08
5.60536e-06
-7.32228e-08
5.59881e-06
-7.19176e-08
-7.09202e-08
5.59161e-06
4.87839e-06
-7.53088e-08
4.90958e-06
-1.02657e-07
4.93465e-06
-1.00126e-07
4.95152e-06
-9.5068e-08
4.96142e-06
-9.26231e-08
4.96523e-06
-8.83978e-08
4.96377e-06
-8.31267e-08
4.95778e-06
-7.79744e-08
4.94791e-06
-7.32026e-08
4.93479e-06
-6.87796e-08
4.91893e-06
-6.46928e-08
4.90079e-06
-6.09466e-08
4.88073e-06
-5.75327e-08
4.85908e-06
-5.44356e-08
4.8361e-06
-5.16385e-08
4.81205e-06
-4.91668e-08
4.78715e-06
-4.7022e-08
-4.55926e-08
4.76182e-06
4.12737e-06
4.02471e-06
3.92458e-06
3.82952e-06
3.73689e-06
3.6485e-06
3.56537e-06
3.48739e-06
3.41419e-06
3.34541e-06
3.28072e-06
3.21977e-06
3.16224e-06
3.1078e-06
3.05617e-06
3.007e-06
2.95998e-06
2.91438e-06
-1.84639e-07
1.84639e-07
-3.70427e-07
1.85788e-07
-5.1166e-07
1.41233e-07
-5.88231e-07
7.65714e-08
-5.59455e-07
-2.87761e-08
-4.07725e-07
-1.51731e-07
-1.23337e-07
-2.84388e-07
2.63755e-07
-3.87092e-07
7.16453e-07
-4.52697e-07
1.19694e-06
-4.80489e-07
1.6749e-06
-4.77954e-07
2.13121e-06
-4.5631e-07
2.55612e-06
-4.24917e-07
2.94652e-06
-3.90396e-07
3.3035e-06
-3.56981e-07
3.63057e-06
-3.27074e-07
3.93229e-06
-3.0172e-07
4.21329e-06
-2.80999e-07
4.47764e-06
-2.64348e-07
4.72843e-06
-2.50793e-07
4.9675e-06
-2.39071e-07
5.19519e-06
-2.27687e-07
5.41013e-06
-2.14943e-07
5.60878e-06
-1.98648e-07
5.78486e-06
-1.76081e-07
5.92954e-06
-1.44677e-07
6.02923e-06
-9.96858e-08
6.06526e-06
-3.60311e-08
5.9997e-06
6.55565e-08
5.82099e-06
1.78711e-07
5.51826e-06
3.02735e-07
5.08542e-06
4.32837e-07
4.52612e-06
5.59299e-07
3.85795e-06
6.68174e-07
3.11443e-06
7.43513e-07
2.34884e-06
7.65593e-07
1.65038e-06
6.98457e-07
1.12553e-06
5.24853e-07
8.12012e-07
3.13518e-07
6.61756e-07
1.50255e-07
6.02962e-07
5.87949e-08
5.47251e-07
5.57109e-08
3.5081e-07
1.96441e-07
-4.75829e-08
3.98393e-07
-5.82566e-07
5.34983e-07
-1.14941e-06
5.66839e-07
-1.63953e-06
4.90123e-07
-1.94276e-06
3.03231e-07
-1.99501e-06
5.22456e-08
-1.84665e-06
-1.48356e-07
-1.47227e-06
-3.74381e-07
-8.38626e-07
-6.33642e-07
4.08531e-08
-8.79479e-07
1.06605e-06
-1.02519e-06
2.05185e-06
-9.85807e-07
2.814e-06
-7.62148e-07
3.21751e-06
-4.03511e-07
3.23241e-06
-1.48998e-08
2.98636e-06
2.46056e-07
2.68051e-06
3.05841e-07
2.47696e-06
2.03554e-07
2.44441e-06
3.25487e-08
2.52194e-06
-7.75296e-08
2.53984e-06
-1.78974e-08
2.36592e-06
1.73923e-07
1.89069e-06
4.7523e-07
1.08563e-06
8.05056e-07
6.15018e-09
1.07948e-06
-1.23659e-06
1.24274e-06
-2.53207e-06
1.29548e-06
-3.79628e-06
1.2642e-06
-4.97161e-06
1.17534e-06
-6.02407e-06
1.05246e-06
-6.93836e-06
9.1429e-07
-7.71235e-06
7.73992e-07
-8.35214e-06
6.39795e-07
-8.86824e-06
5.16092e-07
-9.27283e-06
4.04597e-07
-9.57827e-06
3.0544e-07
-9.79622e-06
2.1795e-07
-9.93751e-06
1.41282e-07
-1.00127e-05
7.51775e-08
-1.00315e-05
1.88249e-08
-1.00084e-05
-2.31572e-08
-9.95138e-06
-5.69689e-08
-9.86608e-06
-8.53017e-08
-9.75607e-06
-1.10012e-07
-9.62399e-06
-1.32079e-07
-9.47181e-06
-1.52182e-07
-9.30088e-06
-1.70929e-07
-9.11195e-06
-1.88925e-07
-8.90514e-06
-2.0681e-07
-8.67989e-06
-2.25252e-07
-8.43494e-06
-2.44949e-07
-8.16834e-06
-2.66602e-07
-7.87746e-06
-2.90879e-07
-7.5591e-06
-3.18362e-07
-7.20963e-06
-3.49468e-07
-6.82529e-06
-3.84346e-07
-6.40252e-06
-4.2277e-07
-5.93849e-06
-4.64028e-07
-5.43164e-06
-5.06846e-07
-4.88226e-06
-5.49385e-07
-4.29291e-06
-5.89343e-07
-3.66875e-06
-6.24168e-07
-3.01737e-06
-6.51374e-07
-2.34854e-06
-6.6883e-07
-1.67364e-06
-6.74901e-07
-1.00509e-06
-6.68547e-07
-3.5387e-07
-6.51224e-07
2.70266e-07
-6.24135e-07
8.58894e-07
-5.88629e-07
1.40572e-06
-5.4683e-07
1.90723e-06
-5.01507e-07
2.36148e-06
-4.54248e-07
2.76808e-06
-4.06606e-07
3.12791e-06
-3.59828e-07
3.44272e-06
-3.14803e-07
3.71485e-06
-2.72139e-07
3.94706e-06
-2.32209e-07
4.14226e-06
-1.95198e-07
4.30341e-06
-1.61148e-07
4.43341e-06
-1.30004e-07
4.53507e-06
-1.01656e-07
4.61085e-06
-7.57778e-08
4.66296e-06
-5.21135e-08
4.69284e-06
-2.9879e-08
4.69913e-06
-6.29076e-09
4.67608e-06
2.30528e-08
4.62669e-06
4.93843e-08
4.55574e-06
7.09543e-08
4.46773e-06
8.80061e-08
4.36732e-06
1.00416e-07
4.25882e-06
1.08498e-07
4.14606e-06
1.12762e-07
4.03226e-06
1.13798e-07
3.92e-06
1.12261e-07
3.81118e-06
1.08817e-07
3.70711e-06
1.04068e-07
3.60858e-06
9.85322e-08
3.51596e-06
9.26194e-08
3.42935e-06
8.66162e-08
3.34865e-06
8.06923e-08
3.27373e-06
7.49196e-08
3.20443e-06
6.93015e-08
3.14062e-06
6.38072e-08
3.08222e-06
5.84051e-08
3.02913e-06
5.30877e-08
2.98125e-06
4.78855e-08
2.93838e-06
4.28668e-08
2.90026e-06
3.81243e-08
2.8665e-06
3.37557e-08
2.83666e-06
2.98409e-08
2.81023e-06
2.6425e-08
2.78673e-06
2.35065e-08
2.7657e-06
2.10296e-08
2.74685e-06
1.88501e-08
2.73034e-06
1.6503e-08
2.71841e-06
1.19357e-08
2.70926e-06
9.14582e-09
2.70211e-06
7.15368e-09
2.6982e-06
3.9126e-09
2.69453e-06
3.6657e-09
2.69006e-06
4.47273e-09
2.6839e-06
6.15744e-09
2.67611e-06
7.78682e-09
2.66647e-06
9.64516e-09
2.65472e-06
1.17541e-08
2.64058e-06
1.41367e-08
2.62364e-06
1.69369e-08
2.60327e-06
2.03666e-08
2.57858e-06
2.46985e-08
2.54829e-06
3.02834e-08
2.51069e-06
3.76059e-08
2.46329e-06
4.73961e-08
2.40267e-06
6.0622e-08
2.32352e-06
7.9152e-08
2.21958e-06
1.03941e-07
2.07491e-06
1.44667e-07
1.87656e-07
1.88725e-06
3.41406e-08
1.50498e-07
6.25231e-08
1.57406e-07
1.44788e-07
5.89682e-08
3.45946e-07
-1.24587e-07
6.63155e-07
-3.45984e-07
1.06313e-06
-5.51706e-07
1.48919e-06
-7.1045e-07
1.9072e-06
-8.05103e-07
2.29251e-06
-8.38003e-07
2.63494e-06
-8.22918e-07
2.93369e-06
-7.76704e-07
3.19247e-06
-7.15091e-07
3.41767e-06
-6.50124e-07
3.61684e-06
-5.89563e-07
3.79745e-06
-5.37586e-07
3.96623e-06
-4.95858e-07
4.12893e-06
-4.6442e-07
4.29023e-06
-4.42293e-07
4.45375e-06
-4.27868e-07
4.6221e-06
-4.19147e-07
4.79691e-06
-4.13885e-07
4.97887e-06
-4.09646e-07
5.16778e-06
-4.03846e-07
5.36295e-06
-3.93823e-07
5.56363e-06
-3.76761e-07
5.76873e-06
-3.49778e-07
5.97999e-06
-3.10941e-07
6.20084e-06
-2.56889e-07
6.44271e-06
-1.76311e-07
6.68186e-06
-6.04428e-08
6.88945e-06
9.51473e-08
7.03422e-06
2.88065e-07
7.08313e-06
5.10393e-07
7.00477e-06
7.46532e-07
6.77645e-06
9.71837e-07
6.3878e-06
1.15424e-06
5.82886e-06
1.2574e-06
5.08651e-06
1.26721e-06
4.19621e-06
1.20381e-06
3.27222e-06
1.07425e-06
2.45569e-06
8.75328e-07
1.81843e-06
6.9297e-07
1.34326e-06
6.7161e-07
9.29498e-07
8.12155e-07
5.07126e-07
9.57355e-07
1.13979e-07
9.59985e-07
-1.7742e-07
7.81523e-07
-3.57629e-07
4.8344e-07
-4.27725e-07
1.22342e-07
-3.28299e-07
-2.47782e-07
-5.27672e-08
-6.49913e-07
4.12489e-07
-1.0989e-06
1.06718e-06
-1.53417e-06
1.82988e-06
-1.78789e-06
2.56536e-06
-1.72129e-06
3.14489e-06
-1.34168e-06
3.52191e-06
-7.80535e-07
3.69589e-06
-1.88872e-07
3.67088e-06
2.71061e-07
3.52392e-06
4.52798e-07
3.34881e-06
3.78674e-07
3.07711e-06
3.04244e-07
2.48989e-06
5.09689e-07
1.45569e-06
1.0163e-06
7.49035e-09
1.62213e-06
-1.63614e-06
2.11886e-06
-3.26795e-06
2.43687e-06
-4.76302e-06
2.57454e-06
-6.0629e-06
2.54262e-06
-7.14576e-06
2.37835e-06
-8.0113e-06
2.12975e-06
-8.67739e-06
1.84142e-06
-9.173e-06
1.54806e-06
-9.531e-06
1.27229e-06
-9.78279e-06
1.02578e-06
-9.95516e-06
8.12169e-07
-1.00692e-05
6.30172e-07
-1.01406e-05
4.75993e-07
-1.01804e-05
3.45185e-07
-1.0196e-05
2.33581e-07
-1.01924e-05
1.37654e-07
-1.01716e-05
5.43675e-08
-1.01342e-05
-1.85254e-08
-1.0074e-05
-8.33872e-08
-9.98882e-06
-1.42142e-07
-9.87962e-06
-1.94508e-07
-9.74834e-06
-2.4129e-07
-9.59694e-06
-2.83477e-07
-9.42703e-06
-3.22093e-07
-9.23976e-06
-3.58202e-07
-9.03575e-06
-3.92937e-07
-8.81505e-06
-4.27512e-07
-8.57707e-06
-4.63225e-07
-8.32059e-06
-5.01435e-07
-8.04366e-06
-5.43526e-07
-7.74371e-06
-5.90837e-07
-7.41751e-06
-6.44557e-07
-7.06142e-06
-7.05561e-07
-6.67155e-06
-7.74216e-07
-6.24418e-06
-8.50138e-07
-5.77625e-06
-9.31958e-07
-5.26595e-06
-1.01715e-06
-4.71333e-06
-1.102e-06
-4.12082e-06
-1.18186e-06
-3.4935e-06
-1.25148e-06
-2.83913e-06
-1.30575e-06
-2.16772e-06
-1.34024e-06
-1.49063e-06
-1.35199e-06
-8.19007e-07
-1.34017e-06
-1.648e-07
-1.30543e-06
4.62703e-07
-1.25164e-06
1.0533e-06
-1.17922e-06
1.60251e-06
-1.09604e-06
2.10703e-06
-1.00603e-06
2.56536e-06
-9.12578e-07
2.9775e-06
-8.18741e-07
3.3446e-06
-7.26927e-07
3.66867e-06
-6.38871e-07
3.95226e-06
-5.55732e-07
4.19826e-06
-4.78207e-07
4.40969e-06
-4.06626e-07
4.58958e-06
-3.41046e-07
4.74091e-06
-2.81331e-07
4.86646e-06
-2.27202e-07
4.96894e-06
-1.7826e-07
5.05081e-06
-1.33986e-07
5.11498e-06
-9.40511e-08
5.16758e-06
-5.88893e-08
5.21664e-06
-2.60016e-08
5.26136e-06
4.65656e-09
5.30029e-06
3.20327e-08
5.33102e-06
5.72762e-08
5.35222e-06
7.92075e-08
5.36304e-06
9.76833e-08
5.36325e-06
1.12555e-07
5.35322e-06
1.23821e-07
5.3338e-06
1.31688e-07
5.30609e-06
1.3652e-07
5.2714e-06
1.38765e-07
5.23102e-06
1.38905e-07
5.18624e-06
1.374e-07
5.13821e-06
1.34649e-07
5.08794e-06
1.30964e-07
5.03629e-06
1.26572e-07
4.98397e-06
1.21623e-07
4.93156e-06
1.16218e-07
4.87953e-06
1.10435e-07
4.82826e-06
1.04354e-07
4.77807e-06
9.80707e-08
4.72924e-06
9.1705e-08
4.68197e-06
8.53898e-08
4.63647e-06
7.92569e-08
4.59289e-06
7.34181e-08
4.55137e-06
6.795e-08
4.51199e-06
6.28804e-08
4.47485e-06
5.81771e-08
4.43998e-06
5.37137e-08
4.40725e-06
4.9237e-08
4.37478e-06
4.44065e-08
4.34112e-06
4.28046e-08
4.30755e-06
4.07257e-08
4.27533e-06
3.61278e-08
4.24541e-06
3.35862e-08
4.21762e-06
3.22633e-08
4.19208e-06
3.17011e-08
4.16835e-06
3.15176e-08
4.14615e-06
3.18402e-08
4.12515e-06
3.27575e-08
4.10493e-06
3.43574e-08
4.085e-06
3.68589e-08
4.06481e-06
4.05641e-08
4.04365e-06
4.58546e-08
4.02069e-06
5.32446e-08
3.99485e-06
6.34493e-08
3.96462e-06
7.76174e-08
3.92808e-06
9.71656e-08
3.88173e-06
1.25501e-07
3.82227e-06
1.63399e-07
3.7375e-06
2.29441e-07
2.95511e-07
3.62965e-06
7.22242e-08
7.82741e-08
2.51122e-07
-2.14921e-08
5.97025e-07
-2.86935e-07
1.0508e-06
-5.78358e-07
1.5156e-06
-8.10789e-07
1.91719e-06
-9.53291e-07
2.21603e-06
-1.00929e-06
2.40863e-06
-9.97701e-07
2.51239e-06
-9.41772e-07
2.55258e-06
-8.63106e-07
2.55437e-06
-7.78487e-07
2.53851e-06
-6.99235e-07
2.52026e-06
-6.31876e-07
2.51002e-06
-5.79318e-07
2.51455e-06
-5.42117e-07
2.53815e-06
-5.19464e-07
2.58353e-06
-5.09796e-07
2.65235e-06
-5.11115e-07
2.74561e-06
-5.21126e-07
2.86376e-06
-5.37292e-07
3.00674e-06
-5.56873e-07
3.17398e-06
-5.76886e-07
3.36434e-06
-5.94207e-07
3.57611e-06
-6.05593e-07
3.807e-06
-6.07651e-07
4.05398e-06
-5.96751e-07
4.31281e-06
-5.6977e-07
4.58044e-06
-5.24519e-07
4.86291e-06
-4.58789e-07
5.17114e-06
-3.68671e-07
5.5137e-06
-2.47409e-07
5.88912e-06
-8.7359e-08
6.28509e-06
1.14423e-07
6.67255e-06
3.59071e-07
7.0065e-06
6.37894e-07
7.22774e-06
9.32998e-07
7.26881e-06
1.21633e-06
7.07781e-06
1.45821e-06
6.64608e-06
1.63554e-06
5.99382e-06
1.72651e-06
5.15491e-06
1.71423e-06
4.23792e-06
1.60996e-06
3.43682e-06
1.47271e-06
2.86513e-06
1.38384e-06
2.47878e-06
1.34371e-06
2.18257e-06
1.2562e-06
1.92756e-06
1.03652e-06
1.72606e-06
6.8494e-07
1.59387e-06
2.54531e-07
1.56352e-06
-2.17427e-07
1.65295e-06
-7.39346e-07
1.87775e-06
-1.3237e-06
2.23816e-06
-1.89458e-06
2.68509e-06
-2.23483e-06
3.10153e-06
-2.13772e-06
3.36789e-06
-1.60804e-06
3.43995e-06
-8.52589e-07
3.37416e-06
-1.23082e-07
3.24364e-06
4.01581e-07
3.01138e-06
6.85054e-07
2.46362e-06
9.26431e-07
1.3624e-06
1.40547e-06
-2.39758e-07
2.11184e-06
-2.01825e-06
2.79479e-06
-3.68423e-06
3.28811e-06
-5.10841e-06
3.54304e-06
-6.24135e-06
3.5698e-06
-7.08131e-06
3.41451e-06
-7.67128e-06
3.1326e-06
-8.07418e-06
2.78124e-06
-8.35358e-06
2.40914e-06
-8.56201e-06
2.04985e-06
-8.73529e-06
1.72135e-06
-8.89266e-06
1.42966e-06
-9.0406e-06
1.17372e-06
-9.1778e-06
9.49377e-07
-9.29947e-06
7.5184e-07
-9.40024e-06
5.76763e-07
-9.4757e-06
4.20639e-07
-9.5229e-06
2.80789e-07
-9.54055e-06
1.55298e-07
-9.52808e-06
4.18963e-08
-9.48762e-06
-5.89826e-08
-9.42062e-06
-1.5039e-07
-9.33018e-06
-2.32576e-07
-9.21834e-06
-3.06353e-07
-9.08694e-06
-3.72688e-07
-8.93769e-06
-4.3273e-07
-8.77199e-06
-4.87785e-07
-8.59088e-06
-5.39311e-07
-8.3949e-06
-5.88917e-07
-8.18406e-06
-6.38359e-07
-7.95775e-06
-6.89534e-07
-7.71473e-06
-7.44454e-07
-7.45306e-06
-8.05192e-07
-7.17011e-06
-8.73791e-07
-6.86255e-06
-9.52112e-07
-6.52652e-06
-1.0416e-06
-6.15777e-06
-1.14296e-06
-5.7521e-06
-1.2558e-06
-5.30586e-06
-1.3782e-06
-4.81662e-06
-1.50639e-06
-4.2839e-06
-1.63473e-06
-3.70983e-06
-1.75592e-06
-3.09959e-06
-1.86172e-06
-2.46127e-06
-1.94407e-06
-1.80533e-06
-1.99618e-06
-1.14359e-06
-2.01373e-06
-4.88189e-07
-1.99557e-06
1.48995e-07
-1.94262e-06
7.55904e-07
-1.85855e-06
1.32672e-06
-1.75004e-06
1.8559e-06
-1.62522e-06
2.34027e-06
-1.4904e-06
2.77873e-06
-1.35104e-06
3.1717e-06
-1.21171e-06
3.52067e-06
-1.0759e-06
3.82792e-06
-9.46121e-07
4.09619e-06
-8.24004e-07
4.32847e-06
-7.10493e-07
4.52785e-06
-6.06006e-07
4.69739e-06
-5.10579e-07
4.84004e-06
-4.23979e-07
4.95862e-06
-3.45784e-07
5.05583e-06
-2.75474e-07
5.13429e-06
-2.12443e-07
5.19626e-06
-1.56026e-07
5.24316e-06
-1.05784e-07
5.27802e-06
-6.08588e-08
5.3038e-06
-2.11287e-08
5.32205e-06
1.37788e-08
5.3349e-06
4.44288e-08
5.34325e-06
7.08558e-08
5.34772e-06
9.3213e-08
5.34861e-06
1.11674e-07
5.34596e-06
1.26463e-07
5.33978e-06
1.37867e-07
5.33008e-06
1.46226e-07
5.31693e-06
1.51915e-07
5.30051e-06
1.55323e-07
5.28109e-06
1.56822e-07
5.25899e-06
1.56748e-07
5.23457e-06
1.55382e-07
5.20819e-06
1.5295e-07
5.18019e-06
1.49624e-07
5.15087e-06
1.45537e-07
5.12051e-06
1.40801e-07
5.08934e-06
1.35523e-07
5.05759e-06
1.29816e-07
5.02549e-06
1.23805e-07
4.99326e-06
1.17621e-07
4.96113e-06
1.11392e-07
4.92932e-06
1.05228e-07
4.89805e-06
9.92131e-08
4.86754e-06
9.33896e-08
4.83797e-06
8.77538e-08
4.80943e-06
8.22497e-08
4.78185e-06
7.68183e-08
4.75477e-06
7.14845e-08
4.73005e-06
6.75235e-08
4.70718e-06
6.36025e-08
4.68441e-06
5.88891e-08
4.66278e-06
5.52163e-08
4.64253e-06
5.25137e-08
4.62381e-06
5.04298e-08
4.60647e-06
4.88536e-08
4.59046e-06
4.78547e-08
4.57566e-06
4.75562e-08
4.5619e-06
4.81179e-08
4.54894e-06
4.98177e-08
4.53648e-06
5.30236e-08
4.52414e-06
5.8192e-08
4.51145e-06
6.59389e-08
4.49778e-06
7.71137e-08
4.48236e-06
9.30412e-08
4.46416e-06
1.15359e-07
4.44194e-06
1.47727e-07
4.4137e-06
1.91638e-07
4.37953e-06
2.63614e-07
3.44518e-07
4.33052e-06
1.26519e-07
-4.82446e-08
5.51837e-07
-4.4681e-07
1.05936e-06
-7.94457e-07
1.47164e-06
-9.90635e-07
1.71481e-06
-1.05397e-06
1.78845e-06
-1.02693e-06
1.72869e-06
-9.49533e-07
1.58338e-06
-8.5239e-07
1.39695e-06
-7.55344e-07
1.20289e-06
-6.69039e-07
1.02227e-06
-5.97877e-07
8.66332e-07
-5.43293e-07
7.39982e-07
-5.05526e-07
6.44905e-07
-4.84241e-07
5.8162e-07
-4.78832e-07
5.50522e-07
-4.88366e-07
5.52247e-07
-5.11521e-07
5.87644e-07
-5.46513e-07
6.57599e-07
-5.9108e-07
7.62823e-07
-6.42516e-07
9.03579e-07
-6.97628e-07
1.07947e-06
-7.52778e-07
1.28951e-06
-8.04248e-07
1.53199e-06
-8.48069e-07
1.80449e-06
-8.80157e-07
2.1041e-06
-8.96357e-07
2.42771e-06
-8.93379e-07
2.77122e-06
-8.68032e-07
3.12968e-06
-8.17245e-07
3.49958e-06
-7.38574e-07
3.88234e-06
-6.30164e-07
4.28575e-06
-4.90775e-07
4.71844e-06
-3.18264e-07
5.18745e-06
-1.09942e-07
5.68774e-06
1.3761e-07
6.1943e-06
4.26432e-07
6.65883e-06
7.51806e-07
7.01785e-06
1.09918e-06
7.20799e-06
1.44541e-06
7.17484e-06
1.75965e-06
6.8866e-06
2.00247e-06
6.36508e-06
2.13149e-06
5.7087e-06
2.1291e-06
5.06638e-06
2.02616e-06
4.54292e-06
1.86716e-06
4.14486e-06
1.65427e-06
3.82643e-06
1.35495e-06
3.55673e-06
9.54631e-07
3.34136e-06
4.699e-07
3.20053e-06
-7.65946e-08
3.14227e-06
-6.81086e-07
3.17222e-06
-1.35364e-06
3.28675e-06
-2.0091e-06
3.43252e-06
-2.3806e-06
3.50975e-06
-2.21496e-06
3.43896e-06
-1.53725e-06
3.21407e-06
-6.27701e-07
2.86819e-06
2.22797e-07
2.36038e-06
9.09392e-07
1.49481e-06
1.55063e-06
1.21755e-07
2.29948e-06
-1.58701e-06
3.11424e-06
-3.26801e-06
3.79284e-06
-4.68837e-06
4.21515e-06
-5.76507e-06
4.3648e-06
-6.50639e-06
4.28436e-06
-6.97328e-06
4.0367e-06
-7.24801e-06
3.68923e-06
-7.4143e-06
3.29889e-06
-7.53928e-06
2.90621e-06
-7.6641e-06
2.53397e-06
-7.80511e-06
2.19086e-06
-7.96127e-06
1.8775e-06
-8.12287e-06
1.59126e-06
-8.2782e-06
1.32905e-06
-8.41713e-06
1.0883e-06
-8.53242e-06
8.67135e-07
-8.61976e-06
6.64103e-07
-8.67718e-06
4.7806e-07
-8.70441e-06
3.08013e-07
-8.70216e-06
1.53051e-07
-8.67253e-06
1.22728e-08
-8.61651e-06
-1.15004e-07
-8.53696e-06
-2.29938e-07
-8.43622e-06
-3.33322e-07
-8.31648e-06
-4.2609e-07
-8.17979e-06
-5.09379e-07
-8.02796e-06
-5.84564e-07
-7.86248e-06
-6.53262e-07
-7.68446e-06
-7.1733e-07
-7.49452e-06
-7.78855e-07
-7.29274e-06
-8.40142e-07
-7.07858e-06
-9.03692e-07
-6.85086e-06
-9.7218e-07
-6.60765e-06
-1.0484e-06
-6.34629e-06
-1.13516e-06
-6.06331e-06
-1.23509e-06
-5.75453e-06
-1.35037e-06
-5.41522e-06
-1.48227e-06
-5.04043e-06
-1.63059e-06
-4.62558e-06
-1.79305e-06
-4.16725e-06
-1.96472e-06
-3.66409e-06
-2.13788e-06
-3.11768e-06
-2.30233e-06
-2.5331e-06
-2.4463e-06
-1.91875e-06
-2.55843e-06
-1.28601e-06
-2.62892e-06
-6.47814e-07
-2.65193e-06
-1.74985e-08
-2.62588e-06
5.91841e-07
-2.55196e-06
1.17047e-06
-2.43717e-06
1.71189e-06
-2.29146e-06
2.2111e-06
-2.12443e-06
2.66555e-06
-1.94485e-06
3.0747e-06
-1.76019e-06
3.43946e-06
-1.57647e-06
3.76174e-06
-1.39818e-06
4.04407e-06
-1.22845e-06
4.28935e-06
-1.06929e-06
4.50063e-06
-9.21776e-07
4.68099e-06
-7.86364e-07
4.83343e-06
-6.63014e-07
4.96082e-06
-5.51372e-07
5.06591e-06