/*--------------------------------*- C++ -*----------------------------------*\
  =========                 |
  \\      /  F ield         | OpenFOAM: The Open Source CFD Toolbox
   \\    /   O peration     | Website:  https://openfoam.org
    \\  /    A nd           | Version:  9
     \\/     M anipulation  |
\*---------------------------------------------------------------------------*/
FoamFile
{
    format      ascii;
    class       volScalarField;
    location    "0.036";
    object      nut;
}
// * * * * * * * * * * * * * * * * * * * * * * * * * * * * * * * * * * * * * //

dimensions      [0 2 -1 0 0 0 0];

internalField   nonuniform List<scalar> 
12225
(
0
0
0
0
0
0
0
0
0
0
0
0
0
0
0
0
0
0
0
0
0
0
0
0
0
0
0
0
0
0
0
0
0
0
0
0
0
0
0
0
0
0
0
0
0
0
0
0
0
0
0
0
3.96107e-11
7.05337e-11
0
0
0
0
0
0
0
0
0
0
0
0
0
0
1.6209e-10
6.21204e-10
1.37813e-09
0
0
0
0
2.44324e-07
1.15104e-07
1.37244e-07
2.89384e-07
3.93768e-07
3.49964e-07
2.40564e-07
1.76391e-07
2.03064e-07
2.36015e-07
2.14721e-07
1.14965e-07
4.60296e-08
2.86438e-09
0
0
0
0
0
0
0
2.59068e-07
4.19789e-07
3.44318e-07
3.42347e-07
5.28938e-07
8.48688e-07
1.01149e-06
8.58277e-07
6.0705e-07
4.21613e-07
2.5217e-07
8.50615e-08
3.2361e-07
4.2732e-07
1.30529e-07
0
0
0
1.60146e-07
1.62982e-07
8.67153e-08
4.3449e-08
7.57426e-08
3.23743e-07
7.59046e-07
7.00059e-07
5.18494e-07
3.82015e-07
2.26271e-07
9.47671e-08
5.32752e-07
4.72367e-07
2.39585e-07
0
0
1.43591e-08
3.20188e-07
2.43443e-07
1.40803e-07
8.13269e-08
9.2453e-08
2.13153e-07
3.83139e-07
3.36063e-07
2.29855e-07
1.47453e-07
6.98678e-08
6.8498e-09
3.7705e-07
1.51601e-07
0
0
0
0
0
0
9.20696e-08
2.91041e-07
5.07098e-07
6.23781e-07
4.55078e-07
1.83625e-07
7.39548e-08
5.08483e-08
1.40584e-08
0
1.87784e-07
0
0
0
0
0
0
0
6.69694e-08
9.60142e-07
1.99368e-06
2.58618e-06
2.33489e-06
9.82445e-07
1.46464e-07
0
0
0
0
0
0
0
0
0
0
0
6.68147e-07
3.50318e-06
3.87339e-06
3.66091e-06
2.09691e-06
3.34999e-07
0
0
0
0
5.75644e-08
1.23894e-08
0
0
0
0
0
0
1.58099e-06
2.98699e-06
2.66817e-06
1.24124e-06
1.94198e-07
0
0
0
0
0
8.20529e-08
0
0
0
0
8.26355e-08
2.19042e-06
2.89123e-06
7.75159e-07
1.23645e-07
2.35285e-07
0
0
0
0
0
0
0
0
4.30904e-09
0
0
0
8.19558e-07
3.23358e-06
3.49555e-06
1.76375e-06
0
0
0
0
0
0
0
0
0
0
8.04915e-08
5.67573e-07
8.73018e-07
7.83043e-07
1.14904e-06
2.21048e-06
1.8708e-06
7.88999e-08
0
0
0
0
0
0
0
0
0
0
0
0
1.75112e-07
3.29774e-07
2.12986e-07
0
0
0
0
0
0
0
0
0
0
0
0
6.35827e-07
7.54866e-07
0
0
1.06542e-07
1.81274e-07
0
0
0
0
0
0
0
0
0
0
0
0
6.42028e-08
1.58848e-07
0
0
1.50496e-06
1.01876e-06
0
0
0
0
0
0
0
1.31898e-06
1.39671e-06
0
0
0
0
4.16126e-07
3.08386e-07
3.65012e-07
2.10721e-06
2.15002e-06
1.22981e-06
1.30321e-06
1.02472e-06
3.87307e-07
0
0
0
9.03233e-08
0
0
0
0
8.33789e-08
2.05842e-07
1.10923e-07
0
0
0
1.2258e-07
1.23602e-06
1.00902e-06
4.32225e-07
1.17495e-07
8.86832e-08
1.28679e-08
0
0
0
0
0
4.72042e-07
3.84015e-07
8.16355e-07
5.25153e-07
0
0
1.00998e-07
0
0
0
0
0
0
0
0
0
5.77089e-08
6.18898e-07
0
7.47559e-07
3.01781e-06
3.22496e-06
0
0
3.09461e-07
1.77624e-07
0
0
0
0
0
0
0
0
0
0
1.61232e-07
4.42331e-07
2.50424e-06
1.77842e-06
0
0
0
0
0
0
0
0
0
0
0
0
0
0
5.87903e-07
5.6653e-07
2.03724e-06
6.74273e-07
0
0
0
0
0
3.76452e-08
4.08156e-07
5.15909e-07
3.44494e-07
0
0
0
0
0
9.16599e-08
1.42426e-07
9.02449e-07
0
0
0
0
0
0
0
2.15791e-07
4.01329e-07
3.41729e-07
4.10858e-08
0
0
0
0
0
3.48894e-07
3.28252e-07
0
0
0
0
0
0
0
0
0
0
0
0
0
0
0
0
0
0
0
0
1.05886e-09
0
0
1.14112e-09
5.75232e-10
0
0
0
0
0
0
0
0
0
0
0
0
0
0
0
0
0
8.0805e-11
0
0
0
0
0
0
0
0
0
0
0
0
0
0
0
0
0
7.90452e-11
4.80194e-11
0
0
0
0
0
0
0
0
0
0
0
0
0
0
0
0
1.35378e-10
1.16774e-10
0
0
0
0
0
0
0
0
7.87643e-06
2.33194e-05
8.8384e-06
0
0
0
0
9.22576e-07
2.79452e-06
2.39409e-06
1.08668e-06
0
0
0
0
0
0
0
0
1.55885e-07
2.71801e-07
2.46792e-07
9.49452e-08
0
6.41426e-08
8.31652e-07
8.6203e-07
1.26126e-06
9.18128e-06
2.42492e-05
3.67503e-05
3.42405e-05
1.4286e-05
0
0
0
0
4.00897e-06
5.40931e-06
3.28195e-06
0
0
0
1.02439e-05
3.27535e-05
1.65828e-05
4.1031e-06
8.52382e-07
1.25671e-07
1.40812e-07
2.88469e-07
3.90491e-07
4.24707e-07
4.21108e-07
3.86543e-07
3.54167e-07
3.13446e-07
2.793e-07
2.43873e-07
2.17578e-07
1.86742e-07
1.65454e-07
1.38363e-07
1.1515e-07
9.31906e-08
6.94256e-08
4.95794e-08
2.939e-08
1.03158e-08
0
0
0
0
0
0
0
0
0
0
0
0
0
0
0
0
0
0
0
0
0
0
0
0
0
0
0
0
0
0
0
0
0
0
0
0
0
0
0
0
0
0
0
0
0
0
0
0
0
0
0
0
0
0
0
0
0
0
3.03651e-10
2.15644e-10
0
0
0
0
0
0
0
0
0
0
0
0
0
0
0
0
0
0
0
0
0
0
0
0
0
0
0
0
0
0
0
0
0
0
0
0
0
0
0
0
0
0
0
0
0
0
0
0
0
0
0
0
0
0
0
0
0
0
2.71056e-06
4.41794e-06
4.33355e-06
2.94114e-06
1.25246e-06
4.39588e-08
0
0
0
0
0
8.01737e-08
2.85568e-07
4.18469e-07
4.01236e-07
2.40961e-07
0
1.64277e-07
1.03977e-06
0
0
1.21321e-06
5.55181e-06
1.11717e-05
1.97285e-05
2.13934e-05
9.5578e-07
0
0
2.63533e-06
1.15772e-05
6.31196e-06
0
0
0
0
0
0
3.15565e-06
2.675e-06
9.44111e-07
2.29689e-07
2.05238e-07
3.07382e-07
3.52392e-07
3.55966e-07
3.366e-07
3.04941e-07
2.78434e-07
2.50004e-07
2.27923e-07
2.06328e-07
1.89112e-07
1.72115e-07
1.56985e-07
1.4095e-07
1.24974e-07
1.07658e-07
8.8431e-08
6.69687e-08
4.30932e-08
1.6224e-08
0
0
0
0
0
0
0
0
0
0
0
0
0
0
0
0
0
0
0
0
0
0
0
0
0
0
0
0
0
0
0
0
0
0
0
0
0
0
0
0
0
0
0
0
0
0
0
0
0
0
0
0
0
0
0
0
0
0
2.73851e-10
4.25832e-10
0
0
0
0
0
0
0
0
0
0
0
0
0
0
0
0
0
0
0
0
0
0
0
0
0
0
0
0
0
0
0
0
0
0
0
0
0
0
0
0
0
0
0
0
0
0
0
0
0
0
5.38627e-06
5.80187e-06
3.13518e-06
2.26888e-06
8.08289e-07
2.71205e-08
5.5965e-07
2.24976e-06
3.98985e-06
4.98074e-06
5.06846e-06
4.2268e-06
2.42741e-06
0
0
0
0
0
2.28973e-07
1.81922e-06
3.1293e-06
4.05196e-06
4.14985e-06
3.40873e-06
1.93934e-06
1.00415e-06
1.85738e-06
0
0
1.09545e-06
2.4072e-06
3.64154e-06
9.65323e-06
1.94916e-05
2.70235e-05
3.80624e-06
0
1.74029e-06
1.97568e-06
0
0
0
0
0
0
0
1.34257e-06
1.50962e-06
6.72109e-07
5.12871e-07
7.54332e-07
1.04217e-06
1.19668e-06
1.21996e-06
1.15761e-06
1.06147e-06
9.62077e-07
8.65046e-07
7.81939e-07
7.05721e-07
6.3966e-07
5.7897e-07
5.22361e-07
4.66057e-07
4.09156e-07
3.50548e-07
2.87813e-07
2.19613e-07
1.43937e-07
5.84846e-08
0
0
0
0
0
0
0
0
0
0
0
0
0
0
0
0
0
0
0
0
0
0
0
0
0
0
0
0
0
0
0
0
0
0
0
0
0
0
0
0
0
0
0
0
0
0
4.81847e-09
6.73573e-09
1.81074e-09
0
0
0
0
0
0
0
0
0
0
0
3.52987e-10
2.09479e-09
2.88156e-09
2.8956e-09
2.36572e-09
1.48081e-09
5.14822e-10
0
0
0
0
0
0
0
0
0
0
0
0
0
0
0
0
0
0
0
0
0
0
0
0
0
0
0
0
0
0
0
0
0
0
0
0
0
0
0
0
0
5.30502e-11
0
6.09625e-06
4.67412e-06
6.0035e-06
5.40907e-06
4.30091e-06
2.98509e-06
2.34729e-06
3.68226e-06
7.95242e-06
1.30599e-05
1.64393e-05
1.59245e-05
6.34088e-06
0
0
0
0
0
0
0
1.05074e-06
1.80747e-06
2.37591e-06
2.46163e-06
1.80439e-06
0
6.83116e-07
1.20872e-06
1.38426e-06
4.98645e-06
6.10328e-06
7.36566e-06
9.66472e-06
8.71164e-06
3.32372e-06
0
0
0
0
0
0
0
0
0
8.55014e-08
0
7.96313e-07
1.0471e-06
1.39353e-06
2.26462e-06
2.58435e-06
2.12903e-06
1.47512e-06
9.53439e-07
6.07449e-07
3.86751e-07
2.50904e-07
1.65847e-07
1.13798e-07
8.39427e-08
7.24605e-08
8.02147e-08
1.11945e-07
1.74762e-07
2.73558e-07
4.01505e-07
5.21422e-07
5.49695e-07
3.85656e-07
3.19091e-08
0
0
0
0
0
0
0
0
0
0
0
0
0
0
0
0
1.29042e-08
2.71168e-08
2.19566e-08
0
0
0
0
0
0
0
0
0
0
0
0
0
0
0
0
0
0
0
0
0
0
0
0
0
0
0
0
0
0
5.10064e-07
0
0
0
0
0
0
0
0
0
0
0
0
0
1.44658e-09
6.77305e-08
1.04127e-07
1.15836e-07
1.1038e-07
9.55732e-08
7.86702e-08
6.3038e-08
4.74359e-08
3.03418e-08
1.35486e-08
4.29251e-10
0
0
0
0
0
0
0
0
0
0
0
0
0
0
0
0
0
0
0
0
0
0
0
0
0
0
0
0
0
7.93523e-12
0
2.11545e-10
0
4.25573e-10
0
1.88621e-06
4.06584e-06
3.90715e-06
3.12579e-06
2.45786e-06
1.28637e-06
1.88751e-06
1.85699e-05
2.43533e-05
2.82064e-05
3.38364e-05
2.42882e-05
0
0
0
0
0
0
0
3.1221e-07
5.47124e-06
9.48616e-06
1.22834e-05
1.26209e-05
8.5661e-06
2.19701e-06
0
0
1.85896e-06
4.69421e-06
5.99651e-06
4.13101e-06
1.43097e-06
0
0
0
0
0
0
0
3.59634e-08
1.13203e-07
0
0
0
2.28617e-07
2.89209e-06
4.41598e-06
4.00294e-06
2.73808e-06
1.6854e-06
9.47758e-07
4.97341e-07
2.23396e-07
7.61865e-08
4.46447e-09
0
0
0
0
0
7.81244e-09
7.17179e-08
1.7454e-07
3.14755e-07
4.72443e-07
5.96028e-07
5.90489e-07
3.57901e-07
0
0
0
0
0
0
0
0
0
0
0
0
0
0
0
0
0
0
2.04922e-08
7.76789e-08
1.1159e-07
1.13964e-07
8.17016e-08
1.45389e-08
0
0
0
0
0
0
0
0
0
0
0
0
0
0
0
0
0
0
0
0
0
0
0
0
0
0
3.67632e-06
1.56489e-06
0
0
0
0
0
0
0
0
4.73488e-08
1.96505e-07
2.35488e-07
1.9507e-07
1.10351e-07
2.34348e-08
0
0
0
0
0
4.8545e-09
0
0
0
0
0
0
0
0
0
0
0
0
0
0
0
0
0
0
0
2.55424e-10
2.51755e-09
3.36481e-09
3.80686e-09
3.95068e-09
3.65916e-09
3.10262e-09
2.29374e-09
1.67472e-09
8.83317e-10
5.98079e-10
0
7.88239e-11
0
3.71539e-11
0
3.56816e-10
0
3.82165e-10
0
1.96737e-06
2.97282e-06
2.68581e-06
2.0236e-06
0
0
2.29798e-05
2.85968e-05
1.95423e-05
4.66681e-07
0
0
0
0
0
0
0
0
0
0
2.90167e-06
5.73668e-06
6.92505e-06
6.92486e-06
6.63113e-06
6.44863e-06
6.01782e-06
4.84723e-06
3.58369e-06
2.7599e-06
1.85178e-06
3.57946e-07
0
0
0
0
0
0
0
0
2.93028e-07
2.87991e-07
1.14798e-07
9.96174e-07
3.36907e-06
6.28368e-06
6.46163e-06
4.80036e-06
3.27563e-06
2.18297e-06
1.43731e-06
9.48775e-07
6.1956e-07
4.09983e-07
2.80487e-07
1.93794e-07
1.27269e-07
7.28277e-08
3.16708e-08
1.13547e-08
2.1614e-08
7.34286e-08
1.76744e-07
3.37753e-07
5.55347e-07
8.16626e-07
1.07884e-06
1.21948e-06
9.77031e-07
6.68078e-08
0
0
0
0
0
0
0
0
0
0
0
0
0
0
0
0
0
0
0
0
0
0
2.83416e-08
2.66016e-08
0
0
0
0
0
0
0
0
0
0
0
0
0
0
0
0
0
0
0
0
0
0
0
0
4.74203e-07
6.32832e-06
5.01237e-06
2.78652e-06
6.65917e-07
1.658e-07
6.07034e-08
2.52813e-08
7.15134e-09
0
0
1.45072e-06
2.22546e-06
2.28705e-06
2.04593e-06
1.54158e-06
9.11264e-07
4.55007e-07
2.66511e-07
2.46858e-07
2.93601e-07
3.26968e-07
3.07065e-07
2.27157e-07
1.07814e-07
0
0
0
0
0
0
0
0
0
9.11998e-08
1.13226e-07
9.98188e-08
8.20277e-08
6.3636e-08
4.24266e-08
1.54023e-08
0
0
0
0
0
0
0
0
0
0
0
0
0
0
0
6.00313e-09
0
5.08539e-09
0
0
0
1.94115e-07
4.38049e-07
1.14025e-06
9.53697e-07
0
0
0
0
0
0
0
0
0
0
0
0
0
0
0
0
1.08081e-05
1.6093e-05
1.34965e-05
9.0179e-06
5.29482e-06
2.97752e-06
2.0781e-06
2.16983e-06
2.26039e-06
1.60124e-06
3.86988e-07
0
0
0
0
0
0
0
0
0
0
1.19416e-06
4.81422e-06
6.59987e-06
5.2239e-06
4.76398e-06
4.16867e-06
3.21822e-06
2.35234e-06
1.69901e-06
1.24289e-06
9.19948e-07
6.80994e-07
5.0552e-07
3.65928e-07
2.44992e-07
1.39027e-07
5.54153e-08
3.86893e-09
0
3.19486e-08
1.22536e-07
2.70903e-07
4.86485e-07
7.83911e-07
1.18142e-06
1.69041e-06
2.29221e-06
2.83434e-06
2.24796e-06
0
0
0
0
4.73627e-07
6.75364e-07
6.86461e-07
5.81927e-07
4.17373e-07
2.35174e-07
5.75041e-08
0
0
0
0
0
0
0
0
0
0
0
0
0
0
0
0
0
0
0
0
0
0
0
0
0
0
0
0
0
0
0
0
0
0
0
0
0
1.44449e-07
2.18658e-06
3.59422e-06
2.45062e-06
1.48179e-06
4.16559e-07
1.83966e-07
1.51537e-07
1.91722e-07
2.84394e-07
3.44268e-07
2.82834e-07
1.22226e-06
1.88766e-06
2.10725e-06
2.13838e-06
2.14754e-06
2.20471e-06
2.23687e-06
1.98224e-06
1.62266e-06
1.33509e-06
1.08936e-06
8.19822e-07
4.82847e-07
8.8417e-08
0
0
0
0
0
7.25008e-08
2.09081e-07
2.16631e-07
2.95843e-07
2.91498e-07
1.64974e-07
8.91386e-08
4.58402e-08
1.71241e-08
0
0
0
0
0
0
0
0
0
0
0
0
0
0
0
0
0
0
0
0
0
0
0
3.42582e-08
2.8992e-07
0
0
0
0
0
0
0
0
0
0
0
0
0
0
0
0
2.33323e-05
6.45526e-05
4.55322e-05
2.76315e-05
1.56747e-05
8.29221e-06
4.12877e-06
2.10276e-06
1.29052e-06
9.93201e-07
6.30677e-07
0
0
0
0
0
0
0
0
0
0
5.86292e-08
2.67829e-06
0
0
1.54746e-07
1.56963e-06
2.10997e-06
1.99522e-06
1.64599e-06
1.29931e-06
1.02518e-06
8.15814e-07
6.35378e-07
4.77283e-07
3.30038e-07
1.94336e-07
7.97401e-08
0
0
0
4.50297e-09
6.41673e-08
1.34051e-07
2.12782e-07
3.17363e-07
4.90744e-07
8.23581e-07
1.53465e-06
3.14299e-06
5.86382e-06
0
0
0
0
3.27535e-07
8.64735e-07
1.14218e-06
1.22436e-06
1.16257e-06
1.00525e-06
7.90248e-07
5.25912e-07
2.02676e-07
0
0
0
0
0
0
0
0
0
0
0
0
0
0
0
0
0
0
0
0
0
0
0
0
0
0
0
0
0
0
0
0
0
0
0
0
0
1.04637e-06
1.42896e-06
1.97491e-06
2.6346e-07
0
0
3.44316e-08
1.76917e-07
3.5384e-07
5.34055e-07
9.02846e-07
1.61771e-06
2.07621e-06
2.17366e-06
1.92745e-06
1.63313e-06
1.53518e-06
1.59889e-06
1.65094e-06
1.70098e-06
1.71737e-06
1.49757e-06
1.07423e-06
5.77603e-07
0
0
0
0
0
1.93168e-07
4.57008e-07
5.18171e-07
4.62995e-07
4.28403e-07
1.77493e-07
5.47071e-08
1.31816e-08
0
0
0
0
0
0
0
0
3.88852e-10
0
0
0
0
0
0
0
0
0
0
0
0
0
0
0
0
1.38287e-07
0
0
0
0
0
0
0
0
0
0
0
0
0
0
0
0
1.98622e-05
3.95522e-05
4.09304e-05
3.29811e-05
2.20509e-05
1.26976e-05
6.84111e-06
3.81823e-06
2.34792e-06
1.48412e-06
5.21118e-07
0
0
0
0
0
0
0
0
0
0
0
0
0
0
0
6.92861e-08
8.28721e-07
1.07449e-06
1.04893e-06
9.28501e-07
7.92869e-07
6.62304e-07
5.25748e-07
3.83661e-07
2.42035e-07
1.11151e-07
4.83561e-09
0
0
0
0
0
0
0
1.82421e-07
9.95013e-07
2.64655e-06
5.56614e-06
8.80936e-06
0
0
0
0
0
0
0
4.83882e-07
9.84014e-07
1.24835e-06
1.35837e-06
1.36921e-06
1.28611e-06
1.08515e-06
7.39086e-07
2.71361e-07
0
0
0
0
0
0
0
0
0
0
0
0
0
0
0
0
0
0
0
0
0
0
0
0
0
0
0
0
0
0
0
0
0
0
0
0
0
0
0
0
0
0
0
0
1.43707e-07
4.90252e-07
1.79973e-06
4.02287e-06
5.04777e-06
4.58549e-06
3.28873e-06
2.78706e-06
2.77599e-06
2.28822e-06
1.25123e-06
6.30193e-07
3.09161e-07
4.6213e-08
0
0
1.71693e-07
1.58911e-07
0
0
0
2.71703e-07
4.95877e-07
4.9123e-07
3.67886e-07
2.05826e-07
1.15168e-08
0
0
0
0
0
0
0
0
0
0
0
0
0
0
0
0
0
0
0
0
0
0
0
0
0
0
0
1.3258e-07
7.98953e-07
1.66961e-06
3.07639e-06
1.29405e-06
0
0
0
0
4.27604e-07
1.90227e-06
3.28364e-06
4.17458e-06
4.97866e-06
6.69714e-06
9.53214e-06
1.19802e-05
1.39162e-05
1.53856e-05
1.47365e-05
1.15801e-05
7.79416e-06
5.29203e-06
4.10557e-06
3.1501e-06
1.85416e-06
5.2525e-07
9.08053e-09
0
0
0
0
0
0
0
0
0
0
0
0
0
0
0
8.73964e-09
3.77142e-07
5.26325e-07
5.53472e-07
5.20711e-07
4.52096e-07
3.55131e-07
2.45849e-07
1.35214e-07
3.14694e-08
0
0
0
0
0
0
0
4.23236e-07
1.47412e-06
3.34495e-06
5.84902e-06
6.60863e-06
6.82083e-07
0
0
0
0
0
0
0
0
1.78447e-07
5.28875e-07
7.08878e-07
7.70168e-07
7.37994e-07
6.57903e-07
5.3545e-07
3.82064e-07
1.93891e-07
0
0
0
0
0
0
0
0
0
0
0
0
0
0
0
0
0
0
0
0
0
0
0
0
0
0
0
0
0
0
0
0
0
0
0
0
0
0
0
0
0
0
0
0
0
0
9.70574e-08
2.52423e-07
0
3.51991e-07
7.06372e-07
8.74888e-07
9.79334e-07
1.21473e-06
1.10926e-06
0
0
0
0
2.2489e-07
4.9723e-07
1.04416e-07
0
0
0
1.70748e-07
2.02891e-07
1.11998e-07
0
0
0
0
0
0
0
0
0
0
0
0
0
0
0
0
0
0
0
0
0
0
0
0
0
0
0
0
0
1.45319e-06
3.87943e-06
6.53586e-06
1.04127e-05
1.16501e-05
9.29357e-06
8.11526e-06
8.59325e-06
1.0432e-05
1.35427e-05
1.77569e-05
2.24246e-05
2.64198e-05
2.82905e-05
2.78009e-05
2.37494e-05
1.33316e-05
0
0
0
0
0
0
3.73943e-07
1.38745e-06
1.2132e-06
1.58221e-06
3.6026e-06
1.68683e-06
1.49207e-07
0
0
0
0
0
0
0
0
0
0
0
0
0
0
0
1.23587e-07
2.18664e-07
2.45544e-07
2.27855e-07
1.81292e-07
1.21146e-07
5.59484e-08
0
0
0
0
0
0
5.78699e-08
5.0168e-07
1.34126e-06
2.65459e-06
3.96815e-06
3.65214e-06
0
0
0
0
0
0
0
0
0
0
0
1.54693e-08
2.69311e-07
3.61682e-07
3.27492e-07
2.27205e-07
1.12987e-07
2.24046e-08
0
0
0
0
0
0
0
0
0
0
0
0
0
0
0
0
0
0
0
0
0
0
0
0
0
0
0
0
0
0
0
0
0
0
0
0
0
0
0
0
0
0
0
0
0
0
0
0
0
0
0
3.11259e-07
5.28282e-07
5.47719e-07
4.92426e-07
4.49039e-07
1.99252e-07
0
0
7.29178e-08
4.93402e-07
5.88952e-07
0
0
0
0
8.0813e-08
1.11646e-07
3.86146e-08
0
0
0
0
0
0
0
0
0
0
0
0
0
0
0
0
0
0
0
0
0
0
0
0
0
0
0
0
0
0
2.05871e-06
3.33836e-06
4.4054e-06
4.72677e-06
4.57062e-06
4.79949e-06
5.8011e-06
7.69823e-06
1.06163e-05
1.47737e-05
2.02582e-05
2.67596e-05
3.34055e-05
3.77322e-05
3.17754e-05
0
0
0
0
0
0
0
0
0
0
0
5.26479e-06
3.50724e-06
2.20989e-06
1.51833e-06
1.49324e-06
2.86142e-06
2.25299e-07
0
0
0
0
0
0
0
0
0
0
0
0
0
2.4155e-08
4.78167e-08
4.95907e-08
3.42184e-08
5.46321e-09
0
0
0
0
0
6.96251e-08
3.78746e-07
8.77481e-07
1.54476e-06
2.00976e-06
1.36705e-06
0
0
0
0
0
0
0
0
0
0
0
0
0
6.1951e-08
2.67027e-07
3.21828e-07
2.77385e-07
1.96292e-07
1.52617e-07
1.07345e-07
0
0
0
0
0
0
0
0
0
0
0
0
0
0
0
0
0
0
0
0
0
0
0
0
0
0
0
0
0
0
0
0
0
0
0
0
0
0
0
0
0
0
0
0
0
0
0
0
0
0
2.72493e-07
5.94178e-07
5.9619e-07
4.93164e-07
3.59335e-07
1.86322e-07
0
0
1.22877e-07
8.13421e-07
0
0
0
0
0
7.93352e-08
1.02205e-07
1.16413e-08
0
0
0
0
0
0
0
0
0
0
0
0
0
0
0
0
0
0
0
0
0
0
0
0
0
0
0
0
0
0
0
7.22705e-07
1.15186e-06
1.27743e-06
1.29901e-06
1.47052e-06
1.9977e-06
3.05532e-06
4.80373e-06
7.40369e-06
1.1136e-05
1.63944e-05
2.35582e-05
3.05179e-05
1.37847e-05
0
0
0
0
0
0
0
0
0
0
7.46512e-08
4.98189e-06
5.146e-06
4.85053e-06
5.66787e-06
6.35712e-06
1.71933e-06
1.68677e-07
0
0
0
0
0
0
0
0
0
0
0
0
0
0
0
0
0
0
0
0
0
0
8.75251e-09
1.93174e-07
3.91923e-07
5.50204e-07
4.72271e-07
0
0
0
0
0
0
0
0
0
0
0
0
0
0
0
0
7.3462e-08
1.61582e-07
1.46271e-07
8.76025e-08
3.55471e-08
4.12778e-08
6.70989e-08
0
0
0
0
0
0
0
0
0
0
0
0
0
0
0
0
0
0
0
0
0
0
0
0
0
0
0
0
0
0
0
0
0
0
0
0
0
0
0
0
0
0
0
0
0
0
0
0
0
3.77797e-08
7.49408e-07
7.84092e-07
6.41364e-07
4.46709e-07
2.21495e-07
0
0
0
0
0
0
0
0
0
6.48862e-08
1.15846e-07
1.59476e-08
0
0
0
0
0
0
0
0
0
0
0
0
0
0
0
2.80327e-09
0
0
0
0
0
0
0
0
0
0
0
0
0
0
0
0
0
0
0
0
0
1.87468e-07
1.10739e-06
2.58018e-06
4.80524e-06
8.10985e-06
1.28551e-05
1.56216e-05
0
0
0
0
0
0
0
1.63741e-07
0
0
0
2.37681e-06
4.93345e-06
6.65246e-06
8.57316e-06
6.57706e-06
2.58873e-06
9.62345e-07
3.11556e-07
0
0
0
0
0
0
0
0
0
0
0
0
0
0
0
0
0
0
0
0
0
0
3.19476e-08
1.18478e-07
3.64688e-08
0
0
0
0
0
0
0
0
0
0
0
0
0
0
0
0
0
0
0
4.56461e-08
1.96954e-08
0
0
0
0
0
0
0
0
0
0
0
0
6.97373e-09
0
0
0
0
0
0
0
0
0
0
0
0
0
0
0
0
0
0
0
0
0
4.55523e-09
0
0
0
0
6.44937e-08
1.43787e-07
9.76432e-08
7.12719e-08
5.5467e-08
3.24972e-08
2.57177e-08
3.63446e-08
1.41346e-09
0
0
0
0
3.53777e-07
4.94382e-07
8.16779e-07
9.39676e-07
7.39024e-07
4.55392e-07
2.18902e-07
8.92693e-08
2.71506e-08
0
0
0
0
0
0
0
2.35049e-08
7.63932e-08
2.58804e-08
0
0
0
0
0
8.62545e-08
3.10914e-07
4.65466e-08
0
0
0
0
0
0
4.87995e-09
3.17964e-08
2.4938e-08
0
0
0
0
0
0
0
0
0
0
0
0
0
0
0
0
0
0
0
0
0
0
0
8.00303e-07
2.09614e-06
2.87734e-06
1.35033e-07
0
0
0
0
3.30606e-07
9.78086e-07
1.04721e-06
5.65087e-07
0
0
6.85562e-07
2.96265e-06
5.29591e-06
7.00363e-06
5.34074e-06
2.92588e-06
1.50795e-06
7.98814e-07
3.95159e-07
1.26424e-07
0
0
0
0
0
0
0
0
0
0
0
0
0
0
0
2.9716e-08
4.67738e-08
1.49093e-08
0
0
0
0
6.15886e-09
0
0
0
0
0
0
0
0
0
0
0
0
0
0
0
0
0
0
0
0
2.214e-08
0
0
0
6.59337e-09
0
0
0
0
1.13045e-07
7.88737e-08
0
0
0
0
0
0
0
0
0
0
0
0
0
0
0
0
0
7.06935e-09
0
0
0
0
0
0
0
1.42676e-08
5.51838e-08
4.62488e-08
5.10537e-08
9.91309e-08
1.96742e-07
3.84923e-07
5.20337e-07
3.08482e-07
1.24877e-07
3.77298e-08
3.40578e-08
7.63567e-08
9.81586e-08
0
0
0
4.65908e-07
1.34031e-06
2.68087e-06
3.04902e-07
5.17762e-07
5.65161e-07
3.17613e-07
1.50209e-07
9.14888e-08
7.72091e-08
0
0
0
0
0
0
0
0
0
0
0
0
0
0
0
1.74387e-07
2.105e-07
1.57403e-07
1.43766e-07
9.22612e-08
0
0
0
0
2.38119e-08
6.47463e-08
6.62509e-08
3.17667e-08
0
0
0
0
0
0
0
0
0
0
0
0
0
0
0
0
0
0
0
0
0
0
0
0
0
0
0
0
0
0
0
0
0
0
0
9.20248e-07
2.36761e-06
3.90456e-06
4.87278e-06
4.23274e-06
2.89466e-06
1.87478e-06
1.17935e-06
7.51086e-07
4.70976e-07
2.7072e-07
1.41369e-07
7.61787e-08
3.94718e-08
2.45584e-08
1.62352e-08
1.93116e-09
0
0
0
0
0
0
0
0
0
1.3529e-08
1.22687e-07
1.5821e-07
1.0097e-07
0
0
0
0
0
0
0
0
0
0
0
0
0
0
0
0
0
0
0
0
0
0
0
0
0
9.446e-09
0
0
0
7.79214e-08
5.56512e-08
0
0
0
1.57116e-07
1.32054e-07
0
0
0
0
0
4.4012e-08
0
0
0
0
0
7.39233e-08
4.26334e-08
0
0
1.79249e-09
1.95573e-08
2.92782e-08
1.79741e-08
0
0
0
0
0
5.65842e-09
1.26725e-07
1.9382e-07
2.36404e-07
2.73838e-07
2.68585e-07
2.72806e-07
4.44097e-07
9.19841e-07
4.48042e-07
0
0
0
6.66435e-09
0
0
9.95568e-08
4.1178e-07
1.49809e-06
3.26739e-06
1.83062e-06
1.75677e-07
3.24655e-07
2.22839e-07
1.15244e-07
6.96274e-08
3.83708e-08
0
0
9.096e-08
6.80195e-08
0
0
0
0
0
0
0
0
0
0
0
2.3529e-07
1.31713e-07
1.93303e-08
0
0
1.73737e-08
0
0
0
6.16078e-08
1.11167e-07
1.19644e-07
7.81458e-08
2.1614e-09
0
0
0
0
0
0
0
0
0
0
0
0
0
0
0
0
0
0
0
0
0
0
0
0
0
0
0
0
3.82533e-07
8.65733e-07
1.29909e-06
1.68051e-06
2.02339e-06
2.39627e-06
2.83332e-06
3.239e-06
3.41901e-06
3.1104e-06
2.42888e-06
1.8166e-06
1.31078e-06
9.36419e-07
6.76323e-07
4.94637e-07
3.55568e-07
2.69367e-07
2.28517e-07
2.01721e-07
1.82572e-07
1.64121e-07
1.4173e-07
1.14847e-07
8.16003e-08
3.94635e-08
0
0
0
0
0
0
0
1.05983e-07
2.52869e-07
2.95229e-07
1.99424e-07
1.1201e-08
0
0
0
0
0
0
0
0
0
0
0
0
0
0
0
0
0
0
0
0
0
0
0
9.05437e-09
1.3446e-08
0
0
0
9.23211e-08
7.68144e-08
0
0
0
1.31749e-07
7.82071e-08
0
0
0
0
0
9.23647e-08
1.57548e-09
0
0
2.65547e-08
2.23249e-07
2.45361e-07
1.65827e-07
8.43641e-08
4.09836e-08
3.10048e-08
3.67327e-08
4.52563e-08
4.19972e-08
1.077e-08
0
0
0
1.83136e-08
2.67775e-07
3.83416e-07
3.57862e-07
2.90569e-07
2.19802e-07
2.26713e-07
3.4554e-07
6.12375e-07
1.28966e-06
0
0
0
0
0
1.00759e-07
2.26592e-07
1.92176e-07
0
4.18684e-08
2.77854e-06
1.04537e-06
4.70522e-07
2.52251e-07
1.22645e-07
6.71483e-08
7.3274e-09
0
0
1.69607e-07
2.03763e-07
2.15991e-07
1.97143e-07
2.50053e-08
0
0
0
0
0
0
0
0
3.89103e-08
1.54169e-07
9.10229e-09
0
0
0
0
0
2.1889e-08
1.3145e-07
1.82008e-07
1.88924e-07
1.41798e-07
3.09039e-08
0
0
0
0
0
0
0
0
0
0
0
0
0
0
0
0
0
0
0
0
0
0
0
0
0
0
0
4.82284e-07
1.37691e-06
2.07926e-06
2.61182e-06
2.96343e-06
3.09543e-06
3.07079e-06
2.94344e-06
2.69281e-06
2.39034e-06
1.98907e-06
1.56271e-06
1.24048e-06
9.65934e-07
7.55588e-07
5.71648e-07
4.37895e-07
3.40555e-07
2.81509e-07
2.56936e-07
2.3927e-07
2.20634e-07
2.00295e-07
1.77705e-07
1.54614e-07
1.30461e-07
1.02298e-07
6.47635e-08
1.15238e-08
0
0
0
0
0
0
2.09216e-07
3.87596e-07
4.4925e-07
3.58628e-07
1.49667e-07
0
0
0
0
0
0
0
0
0
0
0
0
6.80344e-07
4.01895e-06
1.87966e-06
0
0
0
0
0
4.26981e-08
3.30566e-08
0
0
0
0
0
1.10995e-08
7.99447e-08
4.80711e-08
0
0
0
8.85758e-08
2.94453e-08
0
0
0
0
5.55079e-08
1.3293e-07
1.40555e-07
1.79044e-07
2.89293e-07
3.96339e-07
3.92463e-07
3.21617e-07
2.2961e-07
1.39623e-07
7.98871e-08
5.8209e-08
5.99395e-08
7.611e-08
9.61211e-08
9.36572e-08
2.83236e-08
0
0
3.62825e-07
4.75831e-07
3.26948e-07
1.51736e-07
7.69872e-08
1.63394e-07
3.10148e-07
4.36521e-07
5.54225e-07
0
0
0
0
0
2.36428e-07
3.09052e-07
2.56561e-07
0
0
0
1.59647e-06
6.60743e-07
3.06762e-07
1.69462e-07
1.21008e-07
6.83895e-08
0
0
1.4773e-07
2.1478e-07
2.71532e-07
3.13449e-07
2.03275e-07
0
0
0
0
0
0
0
0
0
6.49956e-08
7.2689e-08
0
0
0
0
0
1.11543e-07
2.55415e-07
2.93067e-07
2.91637e-07
2.36987e-07
7.1583e-08
0
0
0
0
0
0
0
0
0
0
0
0
0
0
0
0
0
0
2.3503e-07
1.11921e-06
2.16818e-06
3.39405e-06
2.89298e-06
0
0
0
0
0
0
1.02224e-06
2.02389e-06
2.50475e-06
2.52296e-06
2.28531e-06
2.01613e-06
1.75343e-06
1.48956e-06
1.23732e-06
1.02183e-06
8.54665e-07
7.09916e-07
5.57455e-07
4.02666e-07
3.15679e-07
2.63991e-07
2.26246e-07
2.11915e-07
2.01772e-07
1.87787e-07
1.70489e-07
1.50159e-07
1.29897e-07
1.12307e-07
9.71658e-08
8.00212e-08
5.39832e-08
1.21681e-08
0
0
0
0
0
2.44899e-08
2.41966e-07
4.42869e-07
5.37745e-07
5.01141e-07
3.48776e-07
1.45263e-07
0
0
0
0
0
0
0
0
3.31972e-07
1.33772e-06
1.80419e-06
2.01768e-06
2.1487e-06
1.01834e-06
0
0
0
0
9.45798e-09
1.42945e-08
0
0
0
2.12158e-08
4.31258e-08
3.1706e-08
4.41384e-08
7.12069e-08
4.96002e-08
0
0
1.12531e-09
7.28677e-08
3.12658e-08
0
0
3.05481e-08
1.53416e-07
1.70324e-07
2.0814e-07
3.7029e-07
5.40418e-07
6.23896e-07
5.74519e-07
4.68984e-07
3.67019e-07
2.68415e-07
1.73542e-07
1.15984e-07
9.74999e-08
1.04673e-07
1.49715e-07
2.27476e-07
2.76766e-07
2.40264e-07
1.46392e-07
2.09637e-07
3.36468e-07
2.63096e-07
1.1383e-07
0
6.12855e-08
3.16183e-07
3.73885e-07
2.94174e-07
0
0
0
3.1067e-07
7.04056e-07
4.08548e-07
3.83248e-07
3.20493e-07
1.38883e-07
0
0
1.26545e-06
5.12822e-07
1.51154e-07
1.02681e-07
1.15004e-07
1.17227e-07
0
0
7.53037e-08
1.63942e-07
2.34916e-07
2.49736e-07
2.41914e-09
0
3.83686e-08
0
0
0
0
0
0
0
0
0
0
0
0
0
0
0
3.3395e-07
3.93999e-07
4.14167e-07
3.84339e-07
1.59282e-07
0
0
0
0
0
0
0
0
0
0
0
0
0
0
0
0
1.5736e-07
5.01963e-07
8.93106e-07
1.2595e-06
1.55207e-06
1.39695e-06
0
0
0
0
0
0
0
0
2.14595e-07
1.24753e-06
1.61913e-06
1.44117e-06
1.18732e-06
1.03153e-06
9.11019e-07
7.94219e-07
6.72396e-07
5.55109e-07
4.66088e-07
3.47943e-07
2.22276e-07
1.81027e-07
1.68667e-07
1.48644e-07
1.41534e-07
1.38824e-07
1.32637e-07
1.2158e-07
1.05348e-07
8.69504e-08
7.0953e-08
6.01329e-08
5.34782e-08
4.69771e-08
3.38396e-08
8.54499e-09
0
0
0
0
0
1.09584e-08
1.99008e-07
3.87918e-07
5.4334e-07
6.0623e-07
6.60645e-07
6.89074e-07
8.05574e-07
1.06423e-06
1.42899e-06
1.53678e-06
7.42127e-07
2.00818e-08
7.36091e-08
3.92685e-07
5.65777e-07
5.72924e-07
5.18868e-07
5.17324e-07
5.98269e-07
1.77991e-07
0
0
0
0
0
0
0
0
1.85027e-08
8.81396e-08
8.83541e-08
6.32815e-08
6.98256e-08
9.66325e-08
8.69353e-08
4.01008e-08
6.89686e-09
2.16758e-08
6.41214e-08
6.53125e-08
8.00367e-08
1.84299e-07
2.52527e-07
2.32582e-07
2.76531e-07
4.82034e-07
6.86065e-07
7.49363e-07
7.09087e-07
6.05628e-07
4.92983e-07
3.94144e-07
2.90491e-07
2.0538e-07
1.64005e-07
1.55425e-07
1.79822e-07
2.7132e-07
3.80024e-07
4.31487e-07
4.04858e-07
3.08603e-07
2.54483e-07
2.58523e-07
2.20633e-07
1.23317e-07
5.77837e-08
3.40916e-07
4.08284e-07
2.57625e-07
1.19808e-07
0
0
4.66598e-07
1.83378e-06
5.37434e-07
4.12131e-07
3.56587e-07
2.33069e-07
0
0
5.0888e-07
2.76563e-07
5.64829e-08
4.27066e-08
6.77098e-08
9.11069e-08
0
0
0
7.66349e-08
1.56344e-07
1.29298e-07
0
0
4.37537e-07
1.82242e-07
6.89643e-09
0
0
0
0
0
0
0
0
1.37656e-07
1.77796e-07
0
0
0
2.13167e-08
2.46721e-07
3.64155e-07
4.15489e-07
2.87905e-07
0
0
0
0
0
0
0
0
0
0
0
0
0
0
0
5.84946e-08
1.28685e-07
1.83451e-07
2.22938e-07
1.99534e-07
4.02877e-08
0
0
0
0
0
1.94169e-08
0
0
0
0
0
5.59956e-07
6.74256e-07
6.40128e-07
6.141e-07
5.69174e-07
4.78723e-07
3.64494e-07
2.74937e-07
2.40175e-07
1.66847e-07
7.58845e-08
6.37382e-08
7.66108e-08
7.33899e-08
7.4021e-08
7.82179e-08
7.95599e-08
7.55191e-08
6.49743e-08
4.96199e-08
3.38833e-08
2.2158e-08
1.64103e-08
1.62771e-08
1.90492e-08
2.00061e-08
1.25122e-08
0
0
0
0
0
0
1.35511e-07
3.20321e-07
5.22139e-07
7.78771e-07
1.1326e-06
1.69895e-06
2.42142e-06
2.9803e-06
2.02815e-06
4.05301e-07
0
0
2.25904e-07
2.69417e-07
1.89676e-07
1.18654e-07
9.05765e-08
1.09608e-07
5.14188e-08
0
0
0
0
0
0
0
0
1.92057e-08
1.03969e-07
1.47084e-07
1.37827e-07
1.20008e-07
1.33699e-07
1.60188e-07
1.34659e-07
6.46085e-08
1.07696e-08
1.74615e-08
8.61729e-08
1.44495e-07
1.7834e-07
1.77074e-07
1.87056e-07
3.47696e-07
6.09786e-07
7.60232e-07
7.71427e-07
7.39295e-07
6.68465e-07
5.79827e-07
4.94431e-07
4.02773e-07
3.10862e-07
2.54214e-07
2.33505e-07
2.29712e-07
2.73898e-07
3.8658e-07
4.83566e-07
5.24197e-07
4.68125e-07
3.31415e-07
2.95144e-07
3.26588e-07
3.37541e-07
3.20619e-07
3.86459e-07
5.42673e-07
3.37035e-07
2.95661e-07
1.57051e-07
0
0
1.97686e-06
4.61744e-07
3.37713e-07
3.42252e-07
2.63033e-07
6.59781e-08
0
1.28287e-08
1.07985e-07
3.69682e-08
3.96376e-08
5.64668e-08
6.87745e-08
0
0
0
0
4.63316e-08
0
0
0
9.31209e-07
5.21039e-07
1.89907e-07
0
0
0
0
0
0
0
0
0
0
0
1.90733e-07
6.74662e-08
0
4.97002e-08
1.62405e-07
1.76321e-07
5.29191e-09
0
0
0
0
0
0
0
0
0
0
0
0
0
0
0
0
0
0
0
0
0
0
0
0
0
1.2583e-08
4.81156e-07
3.9789e-07
0
0
0
0
6.21926e-08
2.92298e-07
2.68029e-07
2.43965e-07
2.27134e-07
1.74394e-07
1.15114e-07
6.67279e-08
7.42184e-08
4.05617e-08
0
0
0
9.15911e-09
1.84074e-08
2.87965e-08
3.57951e-08
3.73033e-08
3.21999e-08
2.08181e-08
6.36019e-09
0
0
0
0
4.29194e-09
1.87702e-08
2.89193e-08
2.97681e-08
2.00136e-08
3.46497e-09
0
5.38958e-09
6.32056e-08
1.83471e-07
3.76841e-07
6.94026e-07
1.23063e-06
2.04213e-06
3.09875e-06
3.28418e-06
1.08302e-06
0
0
1.31123e-07
3.05488e-07
2.41818e-07
1.31563e-07
3.67937e-08
0
0
0
0
0
0
0
0
0
0
0
3.99132e-08
1.88706e-07
3.39353e-07
3.72625e-07
3.02263e-07
2.54907e-07
2.91772e-07
3.36936e-07
2.50487e-07
6.88998e-08
0
0
4.26962e-08
0
0
0
2.91945e-07
5.79679e-07
6.72419e-07
6.83313e-07
6.72469e-07
6.46607e-07
6.07354e-07
5.56725e-07
4.88243e-07
4.04623e-07
3.45159e-07
3.21898e-07
3.06426e-07
2.92705e-07
3.59773e-07
4.74784e-07
5.51136e-07
5.432e-07
4.16873e-07
3.35215e-07
3.62112e-07
3.92174e-07
3.81638e-07
3.78827e-07
4.88962e-07
4.49124e-07
3.90362e-07
3.1575e-07
4.68169e-08
0
0
2.66714e-07
2.08693e-07
2.66029e-07
2.34093e-07
1.13266e-07
0
0
5.46767e-08
3.14313e-08
4.15356e-08
5.65047e-08
6.00022e-08
0
0
0
0
0
0
0
0
1.32796e-06
1.02261e-06
5.25983e-07
1.11684e-07
0
0
0
0
0
0
0
0
0
0
2.3363e-07
2.16268e-07
1.90418e-08
1.02912e-08
5.88795e-08
2.7421e-08
0
0
0
0
0
0
0
0
0
0
0
0
0
0
0
0
0
0
0
0
0
0
0
0
0
0
0
5.29042e-08
6.17109e-07
3.33666e-07
0
0
0
7.70948e-10
2.01953e-07
1.70205e-07
7.91608e-08
1.75602e-08
0
0
0
0
0
0
0
0
0
0
0
4.11782e-09
8.36284e-09
6.6174e-09
0
0
0
0
0
0
0
6.55168e-09
3.44402e-08
6.24823e-08
8.57544e-08
1.01175e-07
1.14064e-07
1.31907e-07
1.77076e-07
2.71061e-07
4.45231e-07
7.82433e-07
1.39103e-06
2.44799e-06
4.11667e-06
3.72713e-06
0
0
0
3.93764e-07
4.62357e-07
3.32935e-07
1.6665e-07
5.71272e-09
0
0
0
0
0
0
0
0
0
0
0
1.75042e-07
6.5446e-07
6.98732e-07
5.53382e-07
4.16011e-07
2.63772e-07
1.73455e-07
1.75268e-07
1.67329e-07
9.42344e-08
1.70796e-08
0
0
0
0
0
1.40147e-07
3.58568e-07
4.29084e-07
4.93779e-07
5.50445e-07
5.76035e-07
5.85437e-07
5.90124e-07
5.56329e-07
4.84942e-07
4.25576e-07
4.04051e-07
3.90569e-07
3.44634e-07
3.39074e-07
4.35102e-07
5.29602e-07
5.5033e-07
4.52526e-07
3.56634e-07
3.51836e-07
3.35514e-07
2.41509e-07
1.21843e-07
8.51425e-08
1.9672e-07
3.10778e-07
3.12572e-07
1.76606e-07
0
0
6.27568e-08
1.2481e-07
1.62247e-07
1.62897e-07
1.11639e-07
1.71085e-08
0
3.49352e-08
2.21094e-08
2.92505e-08
4.65489e-08
4.93685e-08
0
0
0
0
0
0
9.53866e-08
7.98066e-07
1.33732e-06
1.70395e-06
1.142e-06
2.96172e-07
6.37198e-08
1.15564e-07
1.5332e-07
8.038e-08
0
0
0
0
0
4.98018e-08
3.13845e-07
3.03685e-07
1.45989e-07
5.27743e-08
3.0874e-08
0
0
0
0
0
0
0
0
0
0
0
0
0
0
0
0
0
0
0
0
0
0
0
0
0
0
0
0
0
5.45834e-07
6.14907e-07
0
0
0
2.15622e-07
2.61112e-07
1.58375e-07
4.04985e-08
0
0
0
0
0
0
0
0
0
0
0
0
0
0
0
0
0
0
0
0
0
0
0
2.9598e-08
7.25088e-08
1.20142e-07
1.67713e-07
2.16664e-07
2.65423e-07
3.33489e-07
4.48588e-07
6.56367e-07
1.0323e-06
1.71121e-06
3.0739e-06
5.81073e-06
4.27699e-06
0
0
2.39473e-07
7.31995e-07
6.79488e-07
4.22609e-07
1.36259e-07
0
0
0
0
0
0
0
0
0
0
0
0
4.85396e-07
5.92618e-07
4.68828e-07
3.51211e-07
2.20918e-07
9.93069e-08
3.28478e-08
2.48885e-08
3.83337e-08
4.20002e-08
3.08448e-08
1.26962e-08
0
0
0
0
1.43819e-07
2.26659e-07
2.6547e-07
3.43213e-07
4.37651e-07
5.05774e-07
5.49508e-07
5.8513e-07
6.04617e-07
5.61375e-07
4.99825e-07
4.79199e-07
4.75613e-07
4.19879e-07
3.52952e-07
3.91499e-07
4.87033e-07
5.21385e-07
4.5984e-07
3.71464e-07
3.43743e-07
2.73768e-07
1.35992e-07
2.03133e-08
0
4.64022e-08
1.72713e-07
2.48765e-07
2.12696e-07
0
0
0
9.08377e-08
8.73536e-08