/*--------------------------------*- C++ -*----------------------------------*\
  =========                 |
  \\      /  F ield         | OpenFOAM: The Open Source CFD Toolbox
   \\    /   O peration     | Website:  https://openfoam.org
    \\  /    A nd           | Version:  9
     \\/     M anipulation  |
\*---------------------------------------------------------------------------*/
FoamFile
{
    format      ascii;
    class       volVectorField;
    location    "0.036";
    object      UMean;
}
// * * * * * * * * * * * * * * * * * * * * * * * * * * * * * * * * * * * * * //

dimensions      [0 1 -1 0 0 0 0];

internalField   nonuniform List<vector> 
12225
(
(9.86043 0.0435641 0)
(9.56281 0.0603076 0)
(9.25798 0.058748 0)
(8.94816 0.057704 0)
(8.6434 0.0573253 0)
(8.34901 0.0567357 0)
(8.0639 0.0559753 0)
(7.78779 0.0554392 0)
(7.51621 0.0550015 0)
(7.25211 0.0550059 0)
(6.98664 0.0551386 0)
(6.72981 0.0561924 0)
(6.45905 0.0578956 0)
(6.20183 0.0611073 0)
(5.9026 0.0668703 0)
(5.63237 0.0736045 0)
(5.26011 0.0924165 0)
(4.95 0.108228 0)
(10.0252 0.0536451 0)
(10.0847 0.0767133 0)
(10.1208 0.075872 0)
(10.1306 0.0770263 0)
(10.1226 0.0803238 0)
(10.1039 0.0835816 0)
(10.0758 0.0864895 0)
(10.0401 0.0896445 0)
(9.99491 0.0930236 0)
(9.94301 0.0971734 0)
(9.87994 0.101736 0)
(9.8113 0.107807 0)
(9.72722 0.115036 0)
(9.63922 0.125218 0)
(9.52653 0.138994 0)
(9.41202 0.158153 0)
(9.25638 0.190091 0)
(9.10079 0.233609 0)
(10.0059 0.0316814 0)
(10.0373 0.0556791 0)
(10.0646 0.0589753 0)
(10.0792 0.0618934 0)
(10.0851 0.0670613 0)
(10.0877 0.0723111 0)
(10.0887 0.0769169 0)
(10.0884 0.0816738 0)
(10.0857 0.0867402 0)
(10.0804 0.0928843 0)
(10.0713 0.0998392 0)
(10.0582 0.108795 0)
(10.0403 0.119633 0)
(10.017 0.134222 0)
(9.98823 0.153599 0)
(9.9532 0.180509 0)
(9.91554 0.220575 0)
(9.87558 0.275537 0)
(9.99516 0.0285301 0)
(10.0147 0.0577078 0)
(10.0342 0.0639353 0)
(10.0462 0.0667971 0)
(10.0517 0.0718538 0)
(10.0544 0.0775362 0)
(10.0556 0.0827125 0)
(10.0552 0.0877993 0)
(10.0525 0.0933427 0)
(10.0474 0.0999618 0)
(10.0396 0.10795 0)
(10.0292 0.117954 0)
(10.0159 0.130548 0)
(9.99974 0.146848 0)
(9.98073 0.168428 0)
(9.96048 0.197569 0)
(9.94069 0.237071 0)
(9.92784 0.28846 0)
(10.0024 0.0261702 0)
(10.0179 0.0524663 0)
(10.0344 0.0605733 0)
(10.0453 0.0634071 0)
(10.0496 0.0677311 0)
(10.0502 0.0734966 0)
(10.049 0.0794595 0)
(10.0465 0.0855796 0)
(10.042 0.0921888 0)
(10.0354 0.0998531 0)
(10.0263 0.108919 0)
(10.0152 0.120082 0)
(10.0017 0.133975 0)
(9.98655 0.151756 0)
(9.96955 0.174619 0)
(9.95303 0.204402 0)
(9.93765 0.241916 0)
(9.92897 0.287868 0)
(9.98894 0.016844 0)
(9.99917 0.0443192 0)
(10.0135 0.056495 0)
(10.0243 0.0619962 0)
(10.0285 0.0675285 0)
(10.0281 0.0742685 0)
(10.0258 0.0813216 0)
(10.0225 0.0884281 0)
(10.0179 0.0959363 0)
(10.0117 0.104488 0)
(10.0034 0.114571 0)
(9.99308 0.126857 0)
(9.98082 0.141917 0)
(9.9675 0.160807 0)
(9.95332 0.184278 0)
(9.94056 0.213728 0)
(9.92961 0.248924 0)
(9.92491 0.290393 0)
(9.96749 0.0240043 0)
(9.97517 0.0440549 0)
(9.98642 0.0559855 0)
(9.99649 0.0623297 0)
(10.0021 0.067973 0)
(10.0036 0.0746199 0)
(10.0028 0.0818296 0)
(10.001 0.0893196 0)
(9.99788 0.0974034 0)
(9.99323 0.106715 0)
(9.98666 0.117731 0)
(9.97829 0.13103 0)
(9.9683 0.147023 0)
(9.95749 0.166587 0)
(9.94636 0.190113 0)
(9.93658 0.218655 0)
(9.92895 0.251566 0)
(9.92618 0.289332 0)
(10.0008 0.0125475 0)
(10.0069 0.0365329 0)
(10.0161 0.0502433 0)
(10.0251 0.0586055 0)
(10.0308 0.0655979 0)
(10.0329 0.0731371 0)
(10.0328 0.0813383 0)
(10.0314 0.0899437 0)
(10.0289 0.0991108 0)
(10.025 0.109418 0)
(10.0193 0.121393 0)
(10.012 0.135604 0)
(10.0035 0.152402 0)
(9.99434 0.172442 0)
(9.98523 0.195938 0)
(9.97725 0.22353 0)
(9.97132 0.254563 0)
(9.96903 0.289157 0)
(9.98049 0.0171964 0)
(9.98431 0.0367455 0)
(9.99191 0.0496733 0)
(9.99996 0.058716 0)
(10.005 0.0661371 0)
(10.0068 0.0736731 0)
(10.0069 0.0818238 0)
(10.0062 0.0906497 0)
(10.0049 0.100371 0)
(10.0025 0.111467 0)
(9.99885 0.124324 0)
(9.99393 0.139348 0)
(9.98797 0.156768 0)
(9.98185 0.177072 0)
(9.97596 0.200344 0)
(9.97179 0.227005 0)
(9.96938 0.256336 0)
(9.97098 0.288356 0)
(9.99614 0.0153473 0)
(9.99991 0.0295719 0)
(10.0059 0.0439752 0)
(10.0124 0.0549903 0)
(10.0173 0.0638488 0)
(10.0196 0.0723134 0)
(10.0194 0.0811231 0)
(10.0175 0.0905694 0)
(10.0142 0.100954 0)
(10.0102 0.11274 0)
(10.0055 0.126272 0)
(10.0005 0.141881 0)
(9.9952 0.159656 0)
(9.99042 0.179918 0)
(9.98632 0.202557 0)
(9.98409 0.227908 0)
(9.98364 0.255184 0)
(9.98675 0.284587 0)
(9.96108 0.0125132 0)
(9.96756 0.0295201 0)
(9.97337 0.0436273 0)
(9.97958 0.0546222 0)
(9.98555 0.0639516 0)
(9.99002 0.0729655 0)
(9.99238 0.0824474 0)
(9.99293 0.0927047 0)
(9.99228 0.103862 0)
(9.99099 0.116188 0)
(9.98932 0.129955 0)
(9.98745 0.145552 0)
(9.98554 0.163112 0)
(9.98395 0.182919 0)
(9.98296 0.204772 0)
(9.98318 0.228846 0)
(9.98495 0.254366 0)
(9.98894 0.28147 0)
(10.0194 0.010691 0)
(10.0219 0.0261305 0)
(10.0252 0.039427 0)
(10.0288 0.0506076 0)
(10.0316 0.0605547 0)
(10.033 0.0702971 0)
(10.0329 0.0803939 0)
(10.0318 0.0911047 0)
(10.0302 0.10261 0)
(10.0284 0.11521 0)
(10.0266 0.129196 0)
(10.0248 0.14493 0)
(10.0233 0.162504 0)
(10.0223 0.182098 0)
(10.0225 0.203434 0)
(10.0239 0.226613 0)
(10.0272 0.250841 0)
(10.0322 0.276357 0)
(9.99697 0.00999297 0)
(9.99667 0.0245815 0)
(10.0001 0.0386966 0)
(10.0053 0.050913 0)
(10.0105 0.0615713 0)
(10.0148 0.071688 0)
(10.0181 0.0820003 0)
(10.0205 0.092919 0)
(10.0222 0.10466 0)
(10.0232 0.117468 0)
(10.0237 0.131534 0)
(10.0238 0.147113 0)
(10.0239 0.164239 0)
(10.0245 0.183053 0)
(10.026 0.203272 0)
(10.0289 0.225012 0)
(10.0333 0.247549 0)
(10.0396 0.271197 0)
(10.0331 0.0138173 0)
(10.0341 0.0238674 0)
(10.0361 0.0361209 0)
(10.0385 0.0474828 0)
(10.0407 0.0576932 0)
(10.0425 0.0676412 0)
(10.0439 0.0780037 0)
(10.0451 0.0891478 0)
(10.0465 0.10129 0)
(10.0482 0.114619 0)
(10.0503 0.129183 0)
(10.0526 0.145057 0)
(10.0553 0.16214 0)
(10.0585 0.180513 0)
(10.0624 0.199881 0)
(10.0673 0.220404 0)
(10.0735 0.241397 0)
(10.081 0.263303 0)
(10.0081 0.00796194 0)
(10.0126 0.0216212 0)
(10.0164 0.034539 0)
(10.0199 0.04652 0)
(10.0239 0.0578323 0)
(10.028 0.0687998 0)
(10.0316 0.0795708 0)
(10.0349 0.0904153 0)
(10.038 0.101753 0)
(10.0415 0.11404 0)
(10.0454 0.127539 0)
(10.0498 0.142438 0)
(10.0547 0.158611 0)
(10.0604 0.176049 0)
(10.0665 0.19431 0)
(10.0737 0.213497 0)
(10.0816 0.232863 0)
(10.0911 0.252954 0)
(10.0075 0.00624341 0)
(10.008 0.0222092 0)
(10.0096 0.0327802 0)
(10.0129 0.0422375 0)
(10.0178 0.0521133 0)
(10.0235 0.0623793 0)
(10.0292 0.0729036 0)
(10.0348 0.0838277 0)
(10.0401 0.0953783 0)
(10.0454 0.107812 0)
(10.0507 0.12121 0)
(10.0563 0.135687 0)
(10.0623 0.151077 0)
(10.069 0.167427 0)
(10.0763 0.184303 0)
(10.0846 0.20187 0)
(10.0936 0.219388 0)
(10.1039 0.237452 0)
(9.99709 0.00621365 0)
(9.99722 0.0169968 0)
(9.99909 0.02694 0)
(10.0036 0.0369801 0)
(10.0094 0.0470151 0)
(10.0154 0.0571411 0)
(10.0212 0.0674773 0)
(10.0273 0.0781348 0)
(10.0338 0.0892597 0)
(10.0408 0.101094 0)
(10.0481 0.113701 0)
(10.056 0.127175 0)
(10.0644 0.141312 0)
(10.0736 0.156171 0)
(10.0833 0.171325 0)
(10.0941 0.186984 0)
(10.1053 0.202404 0)
(10.1178 0.218272 0)
(9.99337 0.0116602 0)
(9.99503 0.0165792 0)
(9.99776 0.0236282 0)
(10.001 0.0320142 0)
(10.0053 0.0409197 0)
(10.011 0.049829 0)
(10.0176 0.0585734 0)
(10.0246 0.0674391 0)
(10.0318 0.0768571 0)
(10.0392 0.0871692 0)
(10.0469 0.0983373 0)
(10.0551 0.110248 0)
(10.064 0.12256 0)
(10.0737 0.135254 0)
(10.0842 0.148015 0)
(10.0957 0.161128 0)
(10.1078 0.174035 0)
(10.1209 0.187388 0)
(9.9873 -0.000213336 0)
(9.9941 0.0104206 0)
(10.0015 0.0184805 0)
(10.0085 0.0253864 0)
(10.0157 0.0320883 0)
(10.0239 0.0391115 0)
(10.0329 0.0468962 0)
(10.0424 0.0556912 0)
(10.0522 0.065341 0)
(10.0621 0.0755 0)
(10.0724 0.0857504 0)
(10.0832 0.095922 0)
(10.0945 0.105859 0)
(10.1064 0.115762 0)
(10.1188 0.12554 0)
(10.1317 0.135578 0)
(10.1451 0.14544 0)
(10.159 0.155758 0)
(9.99628 -0.00678153 0)
(9.99372 0.000201556 0)
(9.99501 0.00580932 0)
(10.0001 0.0109167 0)
(10.0072 0.0161749 0)
(10.0152 0.0217046 0)
(10.0238 0.0276313 0)
(10.0331 0.0341516 0)
(10.0433 0.0413175 0)
(10.0543 0.0490473 0)
(10.0659 0.0570984 0)
(10.0778 0.065302 0)
(10.09 0.0734395 0)
(10.1024 0.081588 0)
(10.115 0.0896159 0)
(10.1281 0.0978192 0)
(10.1415 0.105832 0)
(10.1555 0.114165 0)
(10.0086 0.00698273 0)
(10.0125 0.00485903 0)
(10.0179 0.00631186 0)
(10.0257 0.00963138 0)
(10.0345 0.0137869 0)
(10.0435 0.0180306 0)
(10.0527 0.022323 0)
(10.0626 0.0270551 0)
(10.0735 0.0325574 0)
(10.0851 0.03893 0)
(10.0975 0.0459347 0)
(10.1104 0.0532696 0)
(10.1236 0.0605312 0)
(10.1371 0.0675577 0)
(10.1508 0.0741105 0)
(10.1646 0.080396 0)
(10.1786 0.0861919 0)
(10.1928 0.0920089 0)
(10.0107 -0.00971267 0)
(10.0156 -0.00956059 0)
(10.0216 -0.00734073 0)
(10.0294 -0.00424084 0)
(10.0387 -0.000982421 0)
(10.0488 0.00216625 0)
(10.0592 0.00523531 0)
(10.0696 0.00854234 0)
(10.0803 0.0123835 0)
(10.0916 0.0168897 0)
(10.1037 0.0219734 0)
(10.1167 0.0274979 0)
(10.1305 0.033201 0)
(10.1449 0.0389678 0)
(10.1596 0.0445621 0)
(10.1747 0.0500876 0)
(10.1898 0.0552911 0)
(10.205 0.0605469 0)
(9.99824 -0.00191154 0)
(10.0045 -0.00527078 0)
(10.0134 -0.00720436 0)
(10.024 -0.00745734 0)
(10.0353 -0.00604954 0)
(10.0463 -0.00339502 0)
(10.0573 -0.000147505 0)
(10.0683 0.00326616 0)
(10.0796 0.00676529 0)
(10.0915 0.0104496 0)
(10.1039 0.0143593 0)
(10.1168 0.0184618 0)
(10.1301 0.0226193 0)
(10.1436 0.0267928 0)
(10.1574 0.0308461 0)
(10.1713 0.034877 0)
(10.1854 0.0387039 0)
(10.1996 0.0425664 0)
(10.0205 -0.012242 0)
(10.0272 -0.0162256 0)
(10.0365 -0.0192048 0)
(10.0469 -0.0190668 0)
(10.0572 -0.0171764 0)
(10.0672 -0.0148762 0)
(10.0772 -0.0127359 0)
(10.0876 -0.0107754 0)
(10.0986 -0.00870529 0)
(10.1102 -0.00622734 0)
(10.1224 -0.00327176 0)
(10.1353 0.000109682 0)
(10.1486 0.00374525 0)
(10.1624 0.00751101 0)
(10.1764 0.011184 0)
(10.1906 0.014769 0)
(10.2049 0.0180608 0)
(10.2192 0.0212617 0)
(9.99867 -0.014823 0)
(10.0031 -0.0200474 0)
(10.0126 -0.0224482 0)
(10.0247 -0.0227971 0)
(10.0368 -0.0218786 0)
(10.0482 -0.020198 0)
(10.0593 -0.0181976 0)
(10.0707 -0.0161869 0)
(10.0823 -0.0142631 0)
(10.0943 -0.0123725 0)
(10.1066 -0.010436 0)
(10.1196 -0.00834496 0)
(10.1331 -0.00608562 0)
(10.1473 -0.00365437 0)
(10.162 -0.00116692 0)
(10.1769 0.00135941 0)
(10.192 0.00377148 0)
(10.2072 0.00618151 0)
(10.0083 -0.0110349 0)
(10.0183 -0.0257566 0)
(10.0312 -0.0296165 0)
(10.0444 -0.0292008 0)
(10.0568 -0.0283087 0)
(10.0688 -0.0276972 0)
(10.0811 -0.0269611 0)
(10.0941 -0.0259072 0)
(10.1079 -0.0246781 0)
(10.1221 -0.0234071 0)
(10.1366 -0.0221094 0)
(10.1514 -0.0207069 0)
(10.1664 -0.0191558 0)
(10.1815 -0.0174134 0)
(10.1965 -0.0155595 0)
(10.2116 -0.0136181 0)
(10.2266 -0.0117389 0)
(10.2416 -0.00986409 0)
(9.97665 -0.0233214 0)
(9.99266 -0.0325999 0)
(10.0096 -0.0361752 0)
(10.0244 -0.0363695 0)
(10.0366 -0.0361332 0)
(10.0478 -0.0358884 0)
(10.0598 -0.0352258 0)
(10.073 -0.0342374 0)
(10.0871 -0.0332904 0)
(10.1016 -0.0325268 0)
(10.116 -0.0318142 0)
(10.1303 -0.0309432 0)
(10.1447 -0.0298066 0)
(10.159 -0.0284099 0)
(10.1735 -0.0268906 0)
(10.1882 -0.0253443 0)
(10.203 -0.023926 0)
(10.2179 -0.0226122 0)
(9.99921 -0.0267602 0)
(10.014 -0.0358414 0)
(10.0334 -0.038289 0)
(10.0496 -0.0382567 0)
(10.0623 -0.0385252 0)
(10.0741 -0.0391719 0)
(10.0869 -0.0396545 0)
(10.1009 -0.0397982 0)
(10.1158 -0.0396486 0)
(10.131 -0.0392856 0)
(10.1464 -0.0387394 0)
(10.1619 -0.0380608 0)
(10.1774 -0.0372677 0)
(10.1931 -0.0364276 0)
(10.2089 -0.0355558 0)
(10.2247 -0.0347253 0)
(10.2407 -0.0339516 0)
(10.2563 -0.0332816 0)
(10.0061 -0.0313077 0)
(10.0433 -0.0484132 0)
(10.0747 -0.047682 0)
(10.0967 -0.0467996 0)
(10.1124 -0.0475686 0)
(10.1245 -0.0482594 0)
(10.1344 -0.0484399 0)
(10.1425 -0.0484879 0)
(10.1492 -0.0486329 0)
(10.1549 -0.0488292 0)
(10.1597 -0.0488975 0)
(10.1641 -0.0487724 0)
(10.168 -0.0484058 0)
(10.1718 -0.0479038 0)
(10.175 -0.047271 0)
(10.1783 -0.046655 0)
(10.1807 -0.0460171 0)
(10.1838 -0.045509 0)
(9.90765 -0.0444165 0)
(9.73889 -0.0534758 0)
(9.57204 -0.0511733 0)
(9.40546 -0.0493752 0)
(9.24357 -0.0485373 0)
(9.08978 -0.0475883 0)
(8.94482 -0.0464455 0)
(8.80794 -0.0453709 0)
(8.6779 -0.0444811 0)
(8.55395 -0.0437313 0)
(8.43559 -0.0430022 0)
(8.32312 -0.0422222 0)
(8.21628 -0.0413372 0)
(8.11571 -0.040393 0)
(8.02031 -0.0393958 0)
(7.93135 -0.0384442 0)
(7.84618 -0.0375148 0)
(7.76798 -0.0367334 0)
(-0.157332 0.306905 -1.69268e-21)
(-0.33141 0.120667 1.70013e-21)
(-0.371688 -0.0493317 0)
(-0.298072 -0.186034 0)
(-0.0888943 -0.315161 0)
(0.210751 -0.407337 -1.63975e-21)
(0.589439 -0.463041 0)
(1.00638 -0.47164 0)
(1.42909 -0.45267 0)
(1.82577 -0.409308 0)
(2.1841 -0.34879 1.75452e-21)
(2.48919 -0.277795 0)
(2.73013 -0.200887 0)
(2.8994 -0.121614 0)
(2.99285 -0.0419096 0)
(3.01005 0.0365859 2.09058e-21)
(2.95044 0.113119 0)
(2.81728 0.185926 0)
(2.61114 0.254077 0)
(2.34218 0.313242 0)
(2.00975 0.361544 0)
(1.64167 0.38904 0)
(1.22827 0.398427 0)
(0.829728 0.35537 1.72567e-21)
(0.412202 0.324732 -1.69889e-21)
(0.0683295 0.188877 1.69154e-21)
(-0.215617 -0.00251361 1.6998e-21)
(-0.439129 -0.142311 0)
(-0.647461 -0.136801 0)
(-0.881426 -0.0713527 -1.76421e-21)
(-1.14783 0.00680467 -1.78998e-21)
(-1.45859 0.0983111 0)
(-1.80219 0.169216 0)
(-2.15497 0.214269 -1.90305e-21)
(-2.50529 0.236687 0)
(-2.85048 0.261086 0)
(-3.20362 0.296903 2.19756e-21)
(-3.57779 0.327813 0)
(-3.97502 0.345091 2.50148e-21)
(-4.39583 0.35482 5.32109e-21)
(-4.83986 0.356038 0)
(-5.26463 0.287943 0)
(-5.6467 0.195652 0)
(-6.02748 0.185453 0)
(-6.41873 0.24938 0)
(-6.82212 0.315547 6.91486e-21)
(-7.21842 0.324295 7.10733e-21)
(-7.56495 0.285241 7.29224e-21)
(-7.85455 0.239117 0)
(-8.09056 0.195202 -7.6067e-21)
(-8.27653 0.154613 0)
(-8.41689 0.118225 7.78819e-21)
(-8.51614 0.0861212 7.81925e-21)
(-8.57867 0.0581426 0)
(-8.60883 0.0339054 0)
(-8.61018 0.0129631 0)
(-8.58614 -0.00512318 7.57531e-21)
(-8.53953 -0.0207711 0)
(-8.47294 -0.0343547 0)
(-8.38848 -0.0461931 0)
(-8.288 -0.0565809 0)
(-8.17299 -0.0657619 0)
(-8.04468 -0.0739763 0)
(-7.90398 -0.0814273 0)
(-7.75151 -0.0882979 0)
(-7.58768 -0.0947046 -5.61643e-21)
(-7.41275 -0.10076 0)
(-7.22692 -0.106459 0)
(-7.03053 -0.111813 4.68583e-21)
(-6.8243 -0.116746 4.35275e-21)
(-6.60844 -0.121213 0)
(-6.3838 -0.125102 -3.66197e-21)
(-6.15121 -0.128378 3.30854e-21)
(-5.91165 -0.130983 0)
(-5.66618 -0.132913 -2.59726e-21)
(-5.41595 -0.134175 0)
(-5.16205 -0.134856 0)
(-4.90541 -0.135077 1.55234e-21)
(-4.6466 -0.135012 0)
(-4.38585 -0.134892 -8.876e-22)
(-4.12303 -0.13491 0)
(-3.85761 -0.135263 2.51789e-22)
(-3.58871 -0.136125 -5.62487e-23)
(-3.31528 -0.13759 -3.58416e-22)
(-3.03608 -0.139642 -1.3101e-21)
(-2.7499 -0.142267 1.89201e-21)
(-2.45582 -0.145257 0)
(-2.15324 -0.148393 0)
(-1.84204 -0.151427 0)
(-1.52261 -0.154028 4.0516e-21)
(-1.19594 -0.15597 4.52566e-21)
(-0.86357 -0.156998 -4.96165e-21)
(-0.527393 -0.15689 0)
(-0.189669 -0.155555 5.6979e-21)
(0.147014 -0.152879 5.98998e-21)
(0.479987 -0.148834 6.22828e-21)
(0.806612 -0.143425 0)
(1.12427 -0.136729 0)
(1.4302 -0.128856 0)
(1.72182 -0.120001 6.66039e-21)
(1.99641 -0.111052 0)
(2.25189 -0.101145 0)
(2.48773 -0.0909967 -6.53973e-21)
(2.70315 -0.0807804 0)
(2.898 -0.0708078 0)
(3.07251 -0.0612787 -6.21965e-21)
(3.22743 -0.0523512 0)
(3.36385 -0.0441317 0)
(3.48312 -0.036676 5.84497e-21)
(3.58675 -0.0299928 5.72306e-21)
(3.67627 -0.0240505 0)
(3.75316 -0.0187993 -5.49288e-21)
(3.81884 -0.0141939 0)
(3.87461 -0.0101974 5.28436e-21)
(3.9217 -0.00676191 0)
(3.96125 -0.0038066 5.09805e-21)
(3.99419 -0.00122563 5.01274e-21)
(4.02122 0.00108422 0)
(4.04282 0.00319555 0)
(4.0593 0.00512516 0)
(4.07103 0.00685926 0)
(4.07839 0.00840034 0)
(4.08186 0.00972645 0)
(4.08204 0.0107997 0)
(4.07952 0.0116357 4.47546e-21)
(4.07474 0.0122976 -4.42252e-21)
(4.068 0.0128558 0)
(4.05949 0.0133734 0)
(4.04927 0.0138906 0)
(4.03736 0.0144256 0)
(4.02371 0.0149815 -8.38301e-21)
(4.00825 0.0155407 0)
(3.99093 0.0160824 8.22343e-21)
(3.97171 0.0165951 -8.14788e-21)
(3.9506 0.0170461 0)
(3.92769 0.0173926 0)
(3.90313 0.0176117 0)
(3.87713 0.0176995 7.86871e-21)
(3.84993 0.0176533 7.80383e-21)
(3.82178 0.0174569 0)
(3.79299 0.01708 7.67904e-21)
(3.76391 0.016497 7.61891e-21)
(3.73493 0.0157108 -7.56019e-21)
(3.70642 0.0147653 0)
(3.6787 0.0137365 0)
(3.65201 0.0127081 -7.39203e-21)
(3.62646 0.0117444 0)
(3.6021 0.0108754 0)
(3.5789 0.0100962 0)
(3.55684 0.00937879 0)
(3.53591 0.00868829 7.13515e-21)
(3.51612 0.00799776 7.08668e-21)
(3.49751 0.00729627 0)
(3.48013 0.00659104 6.99231e-21)
(3.46399 0.0059021 0)
(3.44911 0.0052545 0)
(3.4354 0.00466944 6.85707e-21)
(3.4228 0.00416116 0)
(3.41114 0.00373378 6.77087e-21)
(3.40031 0.00338618 0)
(3.39009 0.00311176 0)
(3.38041 0.00290537 6.64699e-21)
(3.37098 0.00276165 0)
(3.36185 0.00267714 6.56795e-21)
(3.35255 0.00265675 0)
(3.34339 0.00269142 0)
(3.33347 0.00281696 0)
(3.32361 0.00298507 -6.42005e-21)
(3.31204 0.00333337 0)
(3.30049 0.00365411 6.35326e-21)
(3.28569 0.00442063 0)
(3.27062 0.00487772 0)
(3.25019 0.00659536 0)
(3.22732 0.00701284 0)
(3.19801 0.0112092 0)
(3.15543 0.0107834 0)
(3.1151 0.0222632 0)
(3.01506 0.0182344 -1.24661e-20)
(2.97229 0.0552098 0)
(2.67714 0.0448699 0)
(0.00270201 0.618563 5.15888e-21)
(0.0656735 0.27156 -5.17125e-21)
(0.125856 -0.0621074 0)
(0.322471 -0.39295 3.50002e-21)
(0.626112 -0.762648 0)
(1.00856 -1.04693 1.63572e-21)
(1.41377 -1.21475 -3.50156e-21)
(1.80683 -1.26875 -3.56215e-21)
(2.16911 -1.23093 0)
(2.49059 -1.12314 -3.83628e-21)
(2.76274 -0.966561 -1.74911e-21)
(2.97976 -0.779122 0)
(3.13712 -0.574513 0)
(3.23487 -0.362176 0)
(3.2739 -0.149302 0)
(3.25599 0.0591565 -2.08647e-21)
(3.18262 0.258244 0)
(3.05796 0.444795 4.54396e-21)
(2.88333 0.613955 0)
(2.66372 0.765296 0)
(2.40196 0.889196 -4.12508e-21)
(2.10385 0.985469 0)
(1.78331 1.02958 3.80278e-21)
(1.44151 1.0457 -1.71818e-21)
(1.113 0.97237 1.69082e-21)
(0.757377 0.840629 -1.683e-21)
(0.311029 0.842973 -1.69083e-21)
(-0.216228 0.850883 0)
(-0.818899 0.846206 0)
(-1.43886 0.876395 1.75664e-21)
(-2.02068 0.890614 -2.02695e-21)
(-2.54133 0.895042 0)
(-3.01182 0.879331 0)
(-3.42773 0.836965 1.89505e-21)
(-3.81689 0.788507 0)
(-4.18359 0.763143 0)
(-4.54002 0.780015 -2.18867e-21)
(-4.90618 0.834362 0)
(-5.29249 0.901196 3.00772e-21)
(-5.69728 0.951615 -5.30377e-21)
(-6.11473 0.948005 0)
(-6.53562 0.906478 0)
(-6.98176 0.920559 -1.32386e-20)
(-7.437 0.943804 -1.37679e-20)
(-7.81224 0.899506 -1.4275e-20)
(-8.1082 0.818772 7.81849e-21)
(-8.35102 0.716307 -7.09214e-21)
(-8.54318 0.600687 -2.27104e-20)
(-8.69243 0.48735 1.57136e-20)
(-8.80143 0.380309 7.59365e-21)
(-8.87472 0.282636 0)
(-8.91541 0.195243 -7.77675e-21)
(-8.92733 0.118113 8.332e-21)
(-8.91362 0.0506643 0)
(-8.87706 -0.00802902 0)
(-8.82033 -0.0589802 0)
(-8.74559 -0.103229 -7.56913e-21)
(-8.65486 -0.141725 0)
(-8.54982 -0.175329 1.48037e-20)
(-8.43194 -0.204782 0)
(-8.30245 -0.230773 1.3988e-20)
(-8.16241 -0.253909 0)
(-8.01253 -0.274789 -1.30404e-20)
(-7.85332 -0.293964 0)
(-7.68502 -0.31191 1.19756e-20)
(-7.50767 -0.328994 -5.78427e-21)
(-7.3212 -0.345454 0)
(-7.1255 -0.361324 -1.01729e-20)
(-6.9204 -0.376516 -4.68725e-21)
(-6.70557 -0.390807 -4.35423e-21)
(-6.48167 -0.403884 0)
(-6.24904 -0.415446 -3.78591e-21)
(-6.00851 -0.425234 -3.30998e-21)
(-5.76104 -0.433052 0)
(-5.50776 -0.438829 2.59863e-21)
(-5.24984 -0.442614 -4.58086e-21)
(-4.98846 -0.444625 0)
(-4.72458 -0.445256 -1.55357e-21)
(-4.45887 -0.44502 0)
(-4.19153 -0.444584 2.74152e-21)
(-3.9224 -0.444554 0)
(-3.65091 -0.445539 -8.35436e-22)
(-3.37612 -0.448033 5.52779e-23)
(-3.09687 -0.452348 -2.75725e-22)
(-2.81182 -0.458506 -1.14017e-21)
(-2.51969 -0.466345 1.71882e-21)
(-2.21944 -0.475356 0)
(-1.91049 -0.484828 0)
(-1.59271 -0.493939 0)
(-1.26656 -0.50181 -1.19852e-20)
(-0.933112 -0.507666 -4.52356e-21)
(-0.593948 -0.510759 4.95941e-21)
(-0.251063 -0.510537 0)
(0.0932184 -0.506655 5.56054e-21)
(0.436321 -0.498894 -5.98732e-21)
(0.775597 -0.487148 -6.22553e-21)
(1.10849 -0.47141 0)
(1.43251 -0.451802 0)
(1.74497 -0.428712 0)
(2.04312 -0.402949 -6.65656e-21)
(2.3246 -0.375169 0)
(2.58769 -0.345619 1.3136e-20)
(2.83161 -0.315207 1.95347e-20)
(3.05573 -0.28467 -1.28208e-20)
(3.25985 -0.254824 0)
(3.44432 -0.226292 -6.1644e-21)
(3.60988 -0.199561 0)
(3.75758 -0.174966 -1.18915e-20)
(3.88872 -0.152686 5.80569e-21)
(4.00477 -0.132755 5.6882e-21)
(4.1073 -0.115084 0)
(4.19779 -0.0995079 1.64444e-20)
(4.27767 -0.0858407 -1.07439e-20)
(4.34834 -0.0739121 -5.28105e-21)
(4.41117 -0.0635669 0)
(4.4674 -0.0546173 -5.09479e-21)
(4.518 -0.0468011 -1.50159e-20)
(4.56363 -0.0398124 0)
(4.60465 -0.0334049 -9.69593e-21)
(4.64127 -0.0274774 -9.55294e-21)
(4.67364 -0.0220716 -9.41728e-21)
(4.70212 -0.0172765 0)
(4.7272 -0.0131672 0)
(4.74941 -0.0097499 0)
(4.76926 -0.00693102 4.46692e-21)
(4.78727 -0.00456415 4.41895e-21)
(4.80385 -0.00250945 0)
(4.81934 -0.000651645 8.63676e-21)
(4.83393 0.00109962 8.5449e-21)
(4.84774 0.00281368 0)
(4.86077 0.00454171 8.37528e-21)
(4.87296 0.00630767 1.65825e-20)
(4.88419 0.00810813 -8.21543e-21)
(4.89435 0.00992094 -8.1353e-21)
(4.90335 0.0116965 0)
(4.91112 0.013372 0)
(4.91759 0.0148958 0)
(4.92277 0.016229 -7.85999e-21)
(4.92668 0.0173482 7.79235e-21)
(4.92939 0.0182354 1.54611e-20)
(4.93094 0.0188723 -7.66997e-21)
(4.9314 0.0192412 7.60816e-21)
(4.93078 0.0193316 7.55096e-21)
(4.92912 0.01915 0)
(4.9265 0.0187263 0)
(4.92302 0.0181103 -7.38233e-21)
(4.91887 0.0173605 0)
(4.91424 0.0165304 0)
(4.90936 0.0156599 1.44511e-20)
(4.90442 0.0147718 0)
(4.89958 0.0138746 7.12618e-21)
(4.89495 0.0129681 -7.07744e-21)
(4.8906 0.0120499 0)
(4.88657 0.0111228 6.9837e-21)
(4.88287 0.0101998 0)
(4.87948 0.00930376 0)
(4.87639 0.008462 -6.84812e-21)
(4.87358 0.00770048 1.36099e-20)
(4.871 0.0070391 -6.76207e-21)
(4.8686 0.00648733 0)
(4.86629 0.00605071 0)
(4.86402 0.00572163 6.63844e-21)
(4.86167 0.00550673 0)
(4.85919 0.00538335 6.55928e-21)
(4.85643 0.00538932 0)
(4.85335 0.00546499 0)
(4.84977 0.00574338 0)
(4.84565 0.00604069 6.41195e-21)
(4.84074 0.00675901 0)
(4.83487 0.0073262 -6.3453e-21)
(4.82794 0.00890738 0)
(4.81892 0.00976753 0)
(4.80893 0.0132346 1.25171e-20)
(4.7936 0.0142256 -1.24722e-20)
(4.77929 0.0222197 0)
(4.74975 0.0226839 0)
(4.73052 0.042726 0)
(4.66571 0.0417262 3.72798e-20)
(4.64691 0.098863 0)
(4.49377 0.103837 -2.4959e-20)
(0.0662788 0.270424 -2.07887e-23)
(0.195561 -0.0200273 6.89864e-21)
(0.462123 -0.513293 0)
(0.877387 -1.11643 -7.01877e-21)
(1.32445 -1.61542 0)
(1.73322 -1.92686 0)
(2.08215 -2.05179 -4.36932e-22)
(2.3697 -2.02128 3.54997e-21)
(2.6018 -1.87455 4.30784e-21)
(2.78279 -1.64797 3.82759e-21)
(2.91489 -1.37102 0)
(3 -1.06546 0)
(3.04016 -0.747039 -5.07324e-21)
(3.03667 -0.426723 -1.03633e-20)
(2.99001 -0.112633 1.04739e-20)
(2.90109 0.189523 0)
(2.77262 0.474266 1.03637e-20)
(2.60867 0.737308 -4.54436e-21)
(2.41413 0.974467 0)
(2.19455 1.18263 9.51894e-21)
(1.9556 1.35659 4.12313e-21)
(1.69444 1.48263 -8.73578e-21)
(1.41802 1.56582 -3.79848e-21)
(1.13374 1.54826 0)
(0.81656 1.50835 7.73406e-21)
(0.368534 1.61603 7.55078e-21)
(-0.132393 1.73001 0)
(-0.691655 1.86997 7.4566e-21)
(-1.28834 1.96718 0)
(-1.87445 1.98965 7.74654e-21)
(-2.43005 1.93354 3.79294e-21)
(-2.94204 1.8232 0)
(-3.41746 1.69187 0)
(-3.85038 1.57243 0)
(-4.25812 1.48906 0)
(-4.64957 1.44317 0)
(-5.04242 1.44601 0)
(-5.45008 1.50698 1.16389e-20)
(-5.87166 1.57929 -1.77521e-20)
(-6.29299 1.62968 0)
(-6.70095 1.64249 0)
(-7.10363 1.61253 0)
(-7.45739 1.53746 -1.28425e-21)
(-7.7437 1.42034 1.37604e-20)
(-7.96772 1.27501 2.97892e-20)
(-8.14007 1.11684 -3.06604e-20)
(-8.27026 0.948652 -1.62983e-20)
(-8.36552 0.778737 1.54359e-20)
(-8.43286 0.615548 1.06276e-21)
(-8.4755 0.463722 1.69088e-20)
(-8.49664 0.325981 0)
(-8.49791 0.20305 1.69407e-20)
(-8.48096 0.0945221 7.0082e-22)
(-8.44702 -0.000598951 0)
(-8.39727 -0.0836551 0)
(-8.3328 -0.156057 -1.62339e-20)
(-8.25462 -0.219235 0)
(-8.16365 -0.274478 0)
(-8.06074 -0.322933 1.5573e-20)
(-7.94672 -0.365598 2.95532e-20)
(-7.82234 -0.403389 -1.40027e-20)
(-7.6883 -0.437167 0)
(-7.54513 -0.467828 1.30549e-20)
(-7.39311 -0.49625 0)
(-7.23228 -0.523222 1.2518e-20)
(-7.06241 -0.54937 1.1415e-20)
(-6.8831 -0.575046 -2.21215e-20)
(-6.69395 -0.600339 -1.0664e-20)
(-6.49467 -0.624964 0)
(-6.28516 -0.648438 1.81577e-20)
(-6.06573 -0.670084 0)
(-5.83703 -0.689298 2.27695e-20)
(-5.59999 -0.705522 1.38508e-20)
(-5.35578 -0.718357 1.2382e-20)
(-5.10578 -0.727636 -1.09157e-20)
(-4.85143 -0.733417 1.40509e-20)
(-4.59419 -0.736095 0)
(-4.33528 -0.736338 0)
(-4.07555 -0.735112 -5.27455e-21)
(-3.81528 -0.73355 -5.80841e-21)
(-3.55423 -0.73278 0)
(-3.29174 -0.73387 5.86015e-22)
(-3.02664 -0.73765 0)
(-2.75748 -0.744648 1.63646e-21)
(-2.4826 -0.754952 2.6382e-22)
(-2.20046 -0.768193 -2.69695e-22)
(-1.90981 -0.783513 -4.47034e-21)
(-1.60993 -0.79964 0)
(-1.30077 -0.815106 6.64974e-21)
(-0.982941 -0.828402 2.59696e-22)
(-0.657708 -0.838157 0)
(-0.326881 -0.843178 0)
(0.00727373 -0.842599 0)
(0.342258 -0.835923 -1.1254e-20)
(0.675393 -0.822959 0)
(1.00406 -0.803597 0)
(1.32586 -0.777757 0)
(1.63849 -0.745529 0)
(1.93916 -0.707875 0)
(2.22537 -0.665416 -1.3065e-20)
(2.49516 -0.619199 0)
(2.74683 -0.570161 -1.31276e-20)
(2.97952 -0.519728 -1.29923e-20)
(3.19275 -0.469309 1.28138e-20)
(3.38657 -0.420112 0)
(3.56155 -0.3731 1.23742e-20)
(3.71866 -0.328995 0)
(3.85901 -0.288334 1.18873e-20)
(3.98371 -0.251467 -1.16432e-20)
(4.09404 -0.2185 -3.41064e-20)
(4.19139 -0.189298 0)
(4.2771 -0.163608 -3.27758e-20)
(4.35227 -0.141235 -1.06707e-20)
(4.41793 -0.122051 0)
(4.47546 -0.105814 -2.06511e-20)
(4.52664 -0.0920426 -2.03003e-20)
(4.57307 -0.0800995 2.99738e-20)
(4.61574 -0.0693668 0)
(4.65491 -0.0594014 9.69491e-21)
(4.69042 -0.0500382 9.55204e-21)
(4.72203 -0.0413744 2.82243e-20)
(4.74971 -0.0336501 0)
(4.77374 -0.0270686 0)
(4.79459 -0.0216896 0)
(4.81283 -0.0174242 8.92266e-21)
(4.82902 -0.0140876 0)
(4.84375 -0.0114431 0)
(4.85754 -0.00924821 -8.63634e-21)
(4.87079 -0.00729232 -8.54451e-21)
(4.88374 -0.00540967 0)
(4.89649 -0.00348834 0)
(4.90899 -0.00146857 -1.65818e-20)
(4.92114 0.0006605 0)
(4.93282 0.00286326 1.62743e-20)
(4.94393 0.00507427 1.61227e-20)
(4.9544 0.00721813 0)
(4.96419 0.00922898 0)
(4.97329 0.0110545 -1.5712e-20)
(4.98171 0.0126505 -3.6194e-24)
(4.98949 0.0139864 -3.15934e-24)
(4.99663 0.0150502 0)
(5.00314 0.0158406 -3.04311e-20)
(5.00898 0.0163633 0)
(5.01408 0.0166321 0)
(5.01837 0.0166683 0)
(5.02179 0.0164959 1.47634e-20)
(5.02439 0.0161358 0)
(5.02625 0.0156046 -2.9103e-20)
(5.02754 0.0149191 -1.44492e-20)
(5.02847 0.0140983 0)
(5.02925 0.0131652 -1.42501e-20)
(5.03003 0.0121452 0)
(5.03092 0.0110663 0)
(5.03195 0.009959 -4.18954e-20)
(5.03313 0.00885885 2.77473e-20)
(5.03445 0.0078033 0)
(5.03588 0.00682995 2.73902e-20)
(5.03739 0.00596833 -1.36077e-20)
(5.03898 0.00524413 0)
(5.0406 0.00466732 0)
(5.04222 0.00425278 0)
(5.04379 0.00398898 -3.98236e-20)
(5.04526 0.00389704 0)
(5.04653 0.00393769 -1.31165e-20)
(5.04757 0.00417449 0)
(5.04819 0.00450887 0)
(5.04846 0.00513002 0)
(5.04802 0.00577973 0)
(5.04717 0.00697935 0)
(5.04512 0.00802803 0)
(5.0427 0.010305 -2.52406e-20)
(5.03806 0.0119031 0)
(5.03341 0.0164154 -1.25146e-20)
(5.02433 0.0187783 3.739e-20)
(5.01635 0.028312 0)
(4.99913 0.0319972 0)
(4.98631 0.0538771 -2.47492e-20)
(4.95454 0.0620633 -2.48232e-20)
(4.93713 0.11743 2.47486e-20)
(4.88888 0.145868 2.49502e-20)
(-0.018069 0.0179108 -1.0356e-20)
(0.29517 -0.624876 -1.03594e-20)
(0.816847 -1.53586 -7.1076e-21)
(1.30759 -2.19974 -3.92259e-21)
(1.70455 -2.56585 0)
(1.99518 -2.67896 8.3986e-21)
(2.19297 -2.60145 -5.00895e-21)
(2.3182 -2.3895 0)
(2.38946 -2.09052 -4.30677e-21)
(2.42233 -1.74186 0)
(2.42793 -1.36837 1.08441e-20)
(2.41181 -0.984607 0)
(2.3745 -0.598853 5.08062e-21)
(2.31234 -0.217769 1.03791e-20)
(2.22131 0.152211 -1.049e-20)
(2.09887 0.504455 0)
(1.94735 0.83228 -1.03778e-20)
(1.76936 1.13019 0)
(1.57004 1.3951 0)
(1.35336 1.62409 -9.52855e-21)
(1.12714 1.81656 0)
(0.885864 1.96618 -8.38478e-22)
(0.647976 2.03382 0)
(0.355559 2.11361 0)
(-0.0359967 2.29248 7.78647e-22)
(-0.479293 2.48018 -7.54157e-21)
(-0.960014 2.6618 -8.18306e-21)
(-1.45121 2.79731 -7.44082e-21)
(-1.93407 2.85161 0)
(-2.40451 2.82308 -1.61312e-20)
(-2.86325 2.71943 0)
(-3.30907 2.56857 -9.0153e-21)
(-3.74807 2.40883 0)
(-4.17588 2.26732 0)
(-4.59694 2.16583 1.06411e-20)
(-5.00794 2.11387 0)
(-5.42615 2.13313 -1.20704e-20)
(-5.84988 2.21331 1.17144e-21)
(-6.25266 2.28176 2.57601e-20)
(-6.61216 2.2737 -2.83611e-20)
(-6.92446 2.20006 0)
(-7.19133 2.07266 0)
(-7.40476 1.90383 -1.74516e-20)
(-7.57191 1.70771 0)
(-7.70158 1.4975 -1.55247e-20)
(-7.80018 1.28261 1.5953e-20)
(-7.87229 1.06883 1.63094e-20)
(-7.92262 0.862783 0)
(-7.95346 0.668808 -1.67953e-20)
(-7.96669 0.489703 -1.69234e-20)
(-7.96341 0.326833 3.59468e-20)
(-7.9446 0.180504 -1.69569e-20)
(-7.91117 0.0501549 -1.68694e-20)
(-7.8641 -0.0652242 0)
(-7.80432 -0.16702 0)
(-7.73278 -0.256719 1.62516e-20)
(-7.65026 -0.335818 0)
(-7.55745 -0.405726 0)
(-7.45494 -0.467683 -3.04267e-20)
(-7.34333 -0.522778 -2.95883e-20)
(-7.22319 -0.571999 0)
(-7.09512 -0.616333 0)
(-6.95957 -0.656862 0)
(-6.81666 -0.694751 0)
(-6.6661 -0.731138 -2.45389e-20)
(-6.50722 -0.766947 2.40356e-20)
(-6.33913 -0.802746 2.21508e-20)
(-6.16082 -0.838622 4.23829e-20)
(-5.97144 -0.874056 0)
(-5.77052 -0.908128 5.82037e-22)
(-5.55817 -0.939673 0)
(-5.3351 -0.967562 -1.53322e-20)
(-5.10246 -0.990918 4.83789e-22)
(-4.8618 -1.00915 -1.24009e-20)
(-4.61488 -1.02194 1.09331e-20)
(-4.36359 -1.02931 3.77201e-22)
(-4.10985 -1.03179 0)
(-3.85529 -1.03038 6.97531e-21)
(-3.60114 -1.02658 5.2864e-21)
(-3.34791 -1.0222 8.22651e-21)
(-3.09547 -1.01912 0)
(-2.84309 -1.01903 -1.72839e-21)
(-2.58941 -1.02323 0)
(-2.33256 -1.03253 -1.67237e-21)
(-2.07041 -1.04707 2.17641e-21)
(-1.80087 -1.06619 -3.33276e-21)
(-1.52226 -1.08855 4.46762e-21)
(-1.23363 -1.1121 1.04461e-20)
(-0.934926 -1.13455 -6.64802e-21)
(-0.626946 -1.15362 7.67276e-21)
(-0.311328 -1.16735 0)
(0.0097535 -1.17411 -1.84236e-20)
(0.333605 -1.17272 0)