/*--------------------------------*- C++ -*----------------------------------*\
  =========                 |
  \\      /  F ield         | OpenFOAM: The Open Source CFD Toolbox
   \\    /   O peration     | Website:  https://openfoam.org
    \\  /    A nd           | Version:  9
     \\/     M anipulation  |
\*---------------------------------------------------------------------------*/
FoamFile
{
    format      ascii;
    class       volSymmTensorField;
    location    "0.036";
    object      UPrime2Mean;
}
// * * * * * * * * * * * * * * * * * * * * * * * * * * * * * * * * * * * * * //

dimensions      [0 2 -2 0 0 0 0];

internalField   nonuniform List<symmTensor> 
12225
(
(-48.543 -0.205795 0 0.00130329 0 0)
(-45.6299 -0.282461 0 -0.00076082 0 0)
(-42.7135 -0.268811 0 -0.00101665 0 0)
(-39.8382 -0.257178 0 -0.00113255 0 0)
(-37.1001 -0.248504 0 -0.00121846 0 0)
(-34.537 -0.238892 0 -0.00125582 0 0)
(-32.1184 -0.230574 0 -0.00128672 0 0)
(-29.8325 -0.222636 0 -0.00131993 0 0)
(-27.6284 -0.217735 0 -0.00136692 0 0)
(-25.5316 -0.21126 0 -0.00142029 0 0)
(-23.4602 -0.211075 0 -0.00149042 0 0)
(-21.491 -0.206393 0 -0.00160747 0 0)
(-19.4519 -0.21836 0 -0.00173625 0 0)
(-17.5139 -0.215612 0 -0.00204813 0 0)
(-15.3407 -0.255322 0 -0.00219458 0 0)
(-13.2767 -0.248352 0 -0.00300952 0 0)
(-10.7126 -0.365424 0 -0.00239219 0 0)
(-8.19281 -0.357101 0 -0.0063457 0 0)
(-50.426 -0.278571 0 0.0012624 0 0)
(-51.0108 -0.399225 0 -0.00169797 0 0)
(-51.3414 -0.397432 0 -0.00213756 0 0)
(-51.3927 -0.404756 0 -0.00244281 0 0)
(-51.255 -0.421519 0 -0.00284412 0 0)
(-50.9982 -0.439654 0 -0.00323842 0 0)
(-50.6369 -0.456865 0 -0.00360655 0 0)
(-50.1852 -0.478404 0 -0.00401874 0 0)
(-49.625 -0.500309 0 -0.00447201 0 0)
(-48.9746 -0.530243 0 -0.00501462 0 0)
(-48.1908 -0.559788 0 -0.00565803 0 0)
(-47.3126 -0.604931 0 -0.00644569 0 0)
(-46.2493 -0.651642 0 -0.00756328 0 0)
(-45.0855 -0.728906 0 -0.00888683 0 0)
(-43.6362 -0.817898 0 -0.011299 0 0)
(-42.0642 -0.964531 0 -0.0138584 0 0)
(-40.0301 -1.17593 0 -0.0200684 0 0)
(-37.8152 -1.51617 0 -0.0246816 0 0)
(-49.9243 -0.155316 0 0.00289101 0 0)
(-50.2345 -0.281126 0 0.000201965 0 0)
(-50.5009 -0.308084 0 -0.000718673 0 0)
(-50.6276 -0.329621 0 -0.00118576 0 0)
(-50.6486 -0.360639 0 -0.00168329 0 0)
(-50.62 -0.391721 0 -0.00219078 0 0)
(-50.5639 -0.422002 0 -0.00268294 0 0)
(-50.4856 -0.453894 0 -0.00321184 0 0)
(-50.3754 -0.491607 0 -0.00379245 0 0)
(-50.2272 -0.534999 0 -0.00452325 0 0)
(-50.0244 -0.59003 0 -0.00534806 0 0)
(-49.7594 -0.654926 0 -0.00652461 0 0)
(-49.4163 -0.743187 0 -0.00786535 0 0)
(-48.9876 -0.851036 0 -0.0100883 0 0)
(-48.4657 -1.00798 0 -0.0127184 0 0)
(-47.8387 -1.21362 0 -0.0174429 0 0)
(-47.1472 -1.53353 0 -0.0235816 0 0)
(-46.4051 -1.99017 0 -0.0314815 0 0)
(-49.9041 -0.15452 0 0.00289937 0 0)
(-50.0847 -0.292688 0 0.000346487 0 0)
(-50.2465 -0.330757 0 -0.000696778 0 0)
(-50.3365 -0.35183 0 -0.00119524 0 0)
(-50.3657 -0.383466 0 -0.00174935 0 0)
(-50.3605 -0.419104 0 -0.00234267 0 0)
(-50.3277 -0.453261 0 -0.00291221 0 0)
(-50.2611 -0.489509 0 -0.00349264 0 0)
(-50.1559 -0.530187 0 -0.00415724 0 0)
(-50.0099 -0.580622 0 -0.00496453 0 0)
(-49.8224 -0.641952 0 -0.00600403 0 0)
(-49.5901 -0.720746 0 -0.00732695 0 0)
(-49.3087 -0.819695 0 -0.00911301 0 0)
(-48.9752 -0.949665 0 -0.0114554 0 0)
(-48.5887 -1.12075 0 -0.0147333 0 0)
(-48.1676 -1.35508 0 -0.0192849 0 0)
(-47.7393 -1.67713 0 -0.0251613 0 0)
(-47.3976 -2.1124 0 -0.0320758 0 0)
(-50.1245 -0.130743 0 0.00392413 0 0)
(-50.2953 -0.280701 0 0.000957995 0 0)
(-50.4368 -0.329982 0 -0.00051056 0 0)
(-50.514 -0.350472 0 -0.00107057 0 0)
(-50.5195 -0.378608 0 -0.00157107 0 0)
(-50.4779 -0.415156 0 -0.00213984 0 0)
(-50.4066 -0.455673 0 -0.00273591 0 0)
(-50.3072 -0.499989 0 -0.00338431 0 0)
(-50.1738 -0.550289 0 -0.00410973 0 0)
(-50.0049 -0.608979 0 -0.00497995 0 0)
(-49.798 -0.679755 0 -0.00602762 0 0)
(-49.5557 -0.767306 0 -0.00738362 0 0)
(-49.2743 -0.877651 0 -0.00912168 0 0)
(-48.9607 -1.01996 0 -0.0114586 0 0)
(-48.6127 -1.20364 0 -0.0145596 0 0)
(-48.2609 -1.44731 0 -0.0185324 0 0)
(-47.92 -1.75808 0 -0.0232832 0 0)
(-47.6742 -2.15385 0 -0.0269305 0 0)
(-50.0049 -0.0758742 0 0.00465928 0 0)
(-50.0868 -0.23077 0 0.00166316 0 0)
(-50.2092 -0.298343 0 0.000103199 0 0)
(-50.2907 -0.334536 0 -0.000634953 0 0)
(-50.2915 -0.372533 0 -0.00129638 0 0)
(-50.2295 -0.417549 0 -0.00198262 0 0)
(-50.1338 -0.466096 0 -0.00267856 0 0)
(-50.0192 -0.517924 0 -0.00340891 0 0)
(-49.8837 -0.575229 0 -0.00422245 0 0)
(-49.7222 -0.641858 0 -0.00518353 0 0)
(-49.5267 -0.72143 0 -0.00634311 0 0)
(-49.2987 -0.819233 0 -0.00779388 0 0)
(-49.036 -0.940217 0 -0.00960477 0 0)
(-48.7534 -1.09318 0 -0.0119297 0 0)
(-48.4526 -1.28489 0 -0.0147902 0 0)
(-48.1702 -1.52886 0 -0.0182147 0 0)
(-47.9124 -1.82571 0 -0.0215866 0 0)
(-47.7554 -2.18519 0 -0.0236092 0 0)
(-49.4003 -0.138945 0 0.00453903 0 0)
(-49.4613 -0.243273 0 0.00222068 0 0)
(-49.5525 -0.311817 0 0.000428639 0 0)
(-49.6337 -0.355147 0 -0.000521867 0 0)
(-49.6613 -0.396166 0 -0.00119657 0 0)
(-49.6337 -0.442548 0 -0.00186787 0 0)
(-49.5711 -0.493188 0 -0.00258309 0 0)
(-49.4874 -0.548303 0 -0.00333805 0 0)
(-49.3825 -0.61042 0 -0.00415704 0 0)
(-49.2521 -0.683738 0 -0.00509667 0 0)
(-49.0898 -0.771532 0 -0.00621073 0 0)
(-48.8972 -0.878537 0 -0.00756638 0 0)
(-48.6752 -1.00809 0 -0.00920782 0 0)
(-48.4373 -1.16791 0 -0.0112028 0 0)
(-48.1899 -1.36171 0 -0.0135297 0 0)
(-47.9619 -1.59993 0 -0.0160708 0 0)
(-47.7654 -1.87916 0 -0.0181958 0 0)
(-47.6517 -2.20574 0 -0.0190384 0 0)
(-50.014 -0.0557485 0 0.00547896 0 0)
(-50.0494 -0.190474 0 0.00289263 0 0)
(-50.1125 -0.270256 0 0.00109921 0 0)
(-50.1786 -0.325739 0 0.000119288 0 0)
(-50.2078 -0.375744 0 -0.000624101 0 0)
(-50.1898 -0.429967 0 -0.00130899 0 0)
(-50.1382 -0.489789 0 -0.00203234 0 0)
(-50.065 -0.554676 0 -0.00284416 0 0)
(-49.9708 -0.626223 0 -0.0037654 0 0)
(-49.8517 -0.708594 0 -0.00482502 0 0)
(-49.7035 -0.805589 0 -0.00605325 0 0)
(-49.5282 -0.921684 0 -0.00748748 0 0)
(-49.3298 -1.05979 0 -0.00913164 0 0)
(-49.1188 -1.2257 0 -0.0109906 0 0)
(-48.905 -1.42182 0 -0.0129603 0 0)
(-48.706 -1.65449 0 -0.0148295 0 0)
(-48.5398 -1.91966 0 -0.0160338 0 0)
(-48.4321 -2.21903 0 -0.0158749 0 0)
(-49.6437 -0.110518 0 0.00508957 0 0)
(-49.6823 -0.213582 0 0.00239343 0 0)
(-49.7439 -0.287517 0 0.000776138 0 0)
(-49.8035 -0.347714 0 -0.000173265 0 0)
(-49.8189 -0.401234 0 -0.00090309 0 0)
(-49.7913 -0.455758 0 -0.00159657 0 0)
(-49.7399 -0.514973 0 -0.00232414 0 0)
(-49.677 -0.581017 0 -0.00310256 0 0)
(-49.6024 -0.656827 0 -0.0039439 0 0)
(-49.5107 -0.746143 0 -0.00489737 0 0)
(-49.3957 -0.851305 0 -0.00600074 0 0)
(-49.2585 -0.975156 0 -0.0072647 0 0)
(-49.1026 -1.11951 0 -0.00865501 0 0)
(-48.941 -1.2888 0 -0.0101302 0 0)
(-48.7822 -1.4844 0 -0.011545 0 0)
(-48.6488 -1.7104 0 -0.0126737 0 0)
(-48.5468 -1.96172 0 -0.0129981 0 0)
(-48.5096 -2.23849 0 -0.0119956 0 0)
(-49.9979 -0.0740343 0 0.00565024 0 0)
(-50.0283 -0.153639 0 0.00349692 0 0)
(-50.0675 -0.245295 0 0.00182352 0 0)
(-50.1077 -0.320205 0 0.000802455 0 0)
(-50.125 -0.384244 0 -3.38896e-05 0 0)
(-50.1064 -0.447294 0 -0.00080683 0 0)
(-50.0501 -0.513612 0 -0.00157687 0 0)
(-49.9624 -0.58602 0 -0.00238324 0 0)
(-49.8516 -0.667813 0 -0.00324215 0 0)
(-49.7258 -0.763011 0 -0.00419722 0 0)
(-49.5895 -0.874171 0 -0.00527777 0 0)
(-49.4474 -1.00361 0 -0.00647033 0 0)
(-49.3026 -1.15201 0 -0.00769538 0 0)
(-49.1638 -1.32197 0 -0.00887993 0 0)
(-49.0374 -1.51319 0 -0.00985513 0 0)
(-48.9389 -1.72853 0 -0.0104195 0 0)
(-48.8748 -1.96237 0 -0.0101021 0 0)
(-48.8656 -2.21568 0 -0.00858339 0 0)
(-49.5275 -0.0847241 0 0.00554954 0 0)
(-49.612 -0.177712 0 0.00348392 0 0)
(-49.654 -0.267635 0 0.00162458 0 0)
(-49.6963 -0.341287 0 0.000414484 0 0)
(-49.74 -0.407259 0 -0.000430523 0 0)
(-49.7653 -0.47444 0 -0.00109905 0 0)
(-49.7569 -0.547018 0 -0.00176566 0 0)
(-49.7158 -0.626939 0 -0.00251064 0 0)
(-49.6523 -0.715688 0 -0.00332325 0 0)
(-49.5774 -0.815664 0 -0.00417229 0 0)
(-49.4967 -0.929041 0 -0.00502469 0 0)
(-49.4137 -1.05864 0 -0.00586616 0 0)
(-49.3297 -1.20566 0 -0.00664036 0 0)
(-49.2503 -1.3723 0 -0.00727945 0 0)
(-49.1793 -1.55742 0 -0.00760864 0 0)
(-49.1274 -1.76216 0 -0.00741971 0 0)
(-49.1002 -1.98088 0 -0.0063136 0 0)
(-49.1113 -2.2134 0 -0.00402285 0 0)
(-50.158 -0.0462114 0 0.00610918 0 0)
(-50.2094 -0.146915 0 0.00392298 0 0)
(-50.2292 -0.232843 0 0.00197718 0 0)
(-50.2355 -0.308118 0 0.000855285 0 0)
(-50.2274 -0.380573 0 5.34442e-05 0 0)
(-50.1986 -0.455421 0 -0.000646766 0 0)
(-50.1479 -0.534522 0 -0.00136791 0 0)
(-50.0801 -0.619274 0 -0.00213068 0 0)
(-50.0035 -0.711671 0 -0.00291206 0 0)
(-49.9238 -0.814618 0 -0.00368486 0 0)
(-49.8437 -0.930669 0 -0.00442172 0 0)
(-49.7642 -1.06253 0 -0.00511029 0 0)
(-49.6901 -1.21098 0 -0.00569102 0 0)
(-49.625 -1.37731 0 -0.0060836 0 0)
(-49.5781 -1.55966 0 -0.00611456 0 0)
(-49.5516 -1.75833 0 -0.0055854 0 0)
(-49.5569 -1.96746 0 -0.00413958 0 0)
(-49.5905 -2.18736 0 -0.00159465 0 0)
(-50.1258 -0.0445992 0 0.00711364 0 0)
(-50.0816 -0.157637 0 0.0048947 0 0)
(-50.0893 -0.249705 0 0.00246246 0 0)
(-50.1284 -0.330961 0 0.00123232 0 0)
(-50.1685 -0.408563 0 0.000461127 0 0)
(-50.195 -0.487063 0 -0.000201933 0 0)
(-50.2054 -0.568821 0 -0.00086858 0 0)
(-50.2006 -0.656104 0 -0.00155446 0 0)
(-50.1818 -0.751083 0 -0.00223081 0 0)
(-50.1496 -0.856183 0 -0.00285733 0 0)
(-50.1059 -0.973233 0 -0.00339184 0 0)
(-50.0541 -1.10416 0 -0.00379549 0 0)
(-50.0012 -1.24931 0 -0.00399162 0 0)
(-49.9547 -1.40948 0 -0.00389406 0 0)
(-49.9236 -1.58278 0 -0.00334878 0 0)
(-49.9136 -1.76953 0 -0.00217984 0 0)
(-49.9314 -1.96448 0 -0.000120766 0 0)
(-49.9783 -2.16863 0 0.00295713 0 0)
(-50.4506 -0.0964539 0 0.00832497 0 0)
(-50.4194 -0.144957 0 0.00595021 0 0)
(-50.402 -0.22535 0 0.0041342 0 0)
(-50.3981 -0.306236 0 0.00300169 0 0)
(-50.3936 -0.381975 0 0.00215106 0 0)
(-50.3787 -0.458451 0 0.00149899 0 0)
(-50.3554 -0.540301 0 0.000900136 0 0)
(-50.3305 -0.63024 0 0.000286341 0 0)
(-50.3093 -0.730212 0 -0.000324752 0 0)
(-50.294 -0.841793 0 -0.000887286 0 0)
(-50.2843 -0.965327 0 -0.00133446 0 0)
(-50.2788 -1.10102 0 -0.00159534 0 0)
(-50.2784 -1.24805 0 -0.00158254 0 0)
(-50.2851 -1.40654 0 -0.00119859 0 0)
(-50.3033 -1.57451 0 -0.000338038 0 0)
(-50.3369 -1.75252 0 0.00115878 0 0)
(-50.39 -1.93587 0 0.00350271 0 0)
(-50.4652 -2.12649 0 0.00677235 0 0)
(-50.0791 -0.0623181 0 0.00819571 0 0)
(-50.1529 -0.146086 0 0.0063565 0 0)
(-50.1873 -0.235697 0 0.00443606 0 0)
(-50.2068 -0.32351 0 0.00326071 0 0)
(-50.2313 -0.409461 0 0.00236658 0 0)
(-50.2554 -0.495342 0 0.00165242 0 0)
(-50.2704 -0.581531 0 0.00108557 0 0)
(-50.2774 -0.669399 0 0.000618513 0 0)
(-50.2829 -0.762275 0 0.000244131 0 0)
(-50.2937 -0.864325 0 1.59588e-05 0 0)
(-50.3119 -0.978261 0 -1.29998e-05 0 0)
(-50.3391 -1.10568 0 0.000180869 0 0)
(-50.3735 -1.24552 0 0.000636433 0 0)
(-50.4185 -1.39721 0 0.00143085 0 0)
(-50.4713 -1.55707 0 0.00270018 0 0)
(-50.5405 -1.72523 0 0.00458291 0 0)
(-50.6191 -1.89606 0 0.00728225 0 0)
(-50.7232 -2.0728 0 0.0108346 0 0)
(-49.9496 -0.0211365 0 0.00991279 0 0)
(-49.9222 -0.148549 0 0.00848829 0 0)
(-49.9068 -0.223242 0 0.00619221 0 0)
(-49.9246 -0.289434 0 0.00478375 0 0)
(-49.9723 -0.363533 0 0.00398201 0 0)
(-50.0317 -0.445006 0 0.00343147 0 0)
(-50.0885 -0.531279 0 0.00296097 0 0)
(-50.1393 -0.622293 0 0.00256829 0 0)
(-50.1854 -0.719572 0 0.00231648 0 0)
(-50.2296 -0.825377 0 0.0022689 0 0)
(-50.2734 -0.940734 0 0.00246291 0 0)
(-50.3208 -1.0666 0 0.00290819 0 0)
(-50.3738 -1.20168 0 0.00364545 0 0)
(-50.4375 -1.34591 0 0.00473498 0 0)
(-50.5109 -1.49585 0 0.00627189 0 0)
(-50.6004 -1.65205 0 0.00840129 0 0)
(-50.7001 -1.80908 0 0.0112656 0 0)
(-50.8206 -1.97037 0 0.0148585 0 0)
(-49.9159 -0.0872394 0 0.0111117 0 0)
(-49.8968 -0.142617 0 0.00949203 0 0)
(-49.8929 -0.205991 0 0.00607532 0 0)
(-49.9358 -0.279618 0 0.00451035 0 0)
(-49.9994 -0.357641 0 0.00401222 0 0)
(-50.0612 -0.438849 0 0.00388752 0 0)
(-50.1174 -0.523606 0 0.00378529 0 0)
(-50.1748 -0.612642 0 0.00366229 0 0)
(-50.2388 -0.707258 0 0.00362786 0 0)
(-50.3111 -0.809501 0 0.0038002 0 0)
(-50.3897 -0.9199 0 0.00423999 0 0)
(-50.4758 -1.03903 0 0.00494957 0 0)
(-50.5695 -1.1652 0 0.00593677 0 0)
(-50.6751 -1.29853 0 0.00724795 0 0)
(-50.7913 -1.43565 0 0.00894161 0 0)
(-50.9226 -1.57765 0 0.011144 0 0)
(-51.0631 -1.71891 0 0.0139776 0 0)
(-51.2205 -1.86397 0 0.017417 0 0)
(-49.7707 -0.082333 0 0.0131881 0 0)
(-49.8165 -0.115938 0 0.0118833 0 0)
(-49.8605 -0.170448 0 0.00857849 0 0)
(-49.894 -0.238825 0 0.00724542 0 0)
(-49.9316 -0.313232 0 0.00689078 0 0)
(-49.9865 -0.388416 0 0.00681813 0 0)
(-50.0536 -0.462544 0 0.00675337 0 0)
(-50.1265 -0.538345 0 0.00668349 0 0)
(-50.2027 -0.620103 0 0.00678047 0 0)
(-50.2819 -0.711077 0 0.00718271 0 0)
(-50.3647 -0.810983 0 0.00788955 0 0)
(-50.4551 -0.918513 0 0.00886652 0 0)
(-50.5562 -1.03065 0 0.0101277 0 0)
(-50.6723 -1.14687 0 0.0117255 0 0)
(-50.8029 -1.26485 0 0.0136486 0 0)
(-50.9501 -1.38658 0 0.0159953 0 0)
(-51.1093 -1.50808 0 0.018765 0 0)
(-51.2842 -1.63393 0 0.0219064 0 0)
(-49.7536 0.00387947 0 0.011165 0 0)
(-49.8447 -0.0974096 0 0.010904 0 0)
(-49.9385 -0.171395 0 0.00848521 0 0)
(-50.0255 -0.232368 0 0.00703795 0 0)
(-50.1166 -0.290101 0 0.00635596 0 0)
(-50.2214 -0.350655 0 0.00609962 0 0)
(-50.3389 -0.419197 0 0.00614398 0 0)
(-50.4632 -0.498443 0 0.00632324 0 0)
(-50.5903 -0.586796 0 0.0065014 0 0)
(-50.7206 -0.68061 0 0.00674095 0 0)
(-50.8567 -0.775778 0 0.0072029 0 0)
(-51.001 -0.870526 0 0.00798405 0 0)
(-51.1549 -0.963649 0 0.00908892 0 0)
(-51.3186 -1.05697 0 0.0105112 0 0)
(-51.4921 -1.15022 0 0.0122331 0 0)
(-51.6749 -1.24671 0 0.0143084 0 0)
(-51.8664 -1.34325 0 0.0167056 0 0)
(-52.0653 -1.4447 0 0.0193863 0 0)
(-50.0217 0.0419971 0 0.0111933 0 0)
(-49.9697 -0.0176114 0 0.0113431 0 0)
(-49.971 -0.0686862 0 0.00791935 0 0)
(-50.032 -0.11497 0 0.00589646 0 0)
(-50.1199 -0.161664 0 0.00517819 0 0)
(-50.2183 -0.210283 0 0.00512082 0 0)
(-50.3246 -0.262832 0 0.00539302 0 0)
(-50.4438 -0.321701 0 0.00582431 0 0)
(-50.5793 -0.387584 0 0.00631077 0 0)
(-50.7303 -0.45963 0 0.00684353 0 0)
(-50.8923 -0.535515 0 0.00748432 0 0)
(-51.0609 -0.613496 0 0.00831234 0 0)
(-51.2332 -0.691654 0 0.00936874 0 0)
(-51.4095 -0.770647 0 0.0106611 0 0)
(-51.5905 -0.849631 0 0.0121509 0 0)
(-51.7792 -0.931165 0 0.0138658 0 0)
(-51.9758 -1.01243 0 0.0157535 0 0)
(-52.1837 -1.09757 0 0.0177656 0 0)
(-50.2197 -0.0639139 0 0.010505 0 0)
(-50.2866 -0.0603938 0 0.00967827 0 0)
(-50.3582 -0.0871212 0 0.00724989 0 0)
(-50.462 -0.1265 0 0.00613927 0 0)
(-50.579 -0.170304 0 0.00570147 0 0)
(-50.6953 -0.212842 0 0.00564177 0 0)
(-50.8156 -0.254864 0 0.00578557 0 0)
(-50.9483 -0.300921 0 0.00607076 0 0)
(-51.0977 -0.354586 0 0.00646997 0 0)
(-51.2637 -0.41697 0 0.00690404 0 0)
(-51.444 -0.485956 0 0.00732834 0 0)
(-51.6346 -0.558633 0 0.00781104 0 0)
(-51.8323 -0.631183 0 0.00847219 0 0)
(-52.0349 -0.701935 0 0.00938993 0 0)
(-52.2419 -0.768838 0 0.0105398 0 0)
(-52.4529 -0.833757 0 0.0119154 0 0)
(-52.669 -0.895068 0 0.0134642 0 0)
(-52.8894 -0.957296 0 0.0151628 0 0)
(-49.9695 0.0677382 0 0.0114524 0 0)
(-50.0518 0.0426858 0 0.00987559 0 0)
(-50.1239 0.0112479 0 0.00678064 0 0)
(-50.2157 -0.0224333 0 0.00551734 0 0)
(-50.3336 -0.0560037 0 0.0052302 0 0)
(-50.4668 -0.0877544 0 0.0052541 0 0)
(-50.6045 -0.118094 0 0.00532404 0 0)
(-50.7431 -0.150331 0 0.00545804 0 0)
(-50.8863 -0.18762 0 0.00574478 0 0)
(-51.0414 -0.231476 0 0.00618861 0 0)
(-51.2135 -0.281273 0 0.00674063 0 0)
(-51.4044 -0.335891 0 0.00736832 0 0)
(-51.6112 -0.392994 0 0.00807594 0 0)
(-51.8314 -0.451484 0 0.00889484 0 0)
(-52.0601 -0.509228 0 0.00981504 0 0)
(-52.2961 -0.567146 0 0.0108853 0 0)
(-52.5343 -0.62308 0 0.0120674 0 0)
(-52.7774 -0.680377 0 0.0133157 0 0)
(-49.9563 0.015744 0 0.00993721 0 0)
(-50.0185 0.000331286 0 0.00786386 0 0)
(-50.1194 -0.00780393 0 0.00556854 0 0)
(-50.2588 -0.0182912 0 0.00456897 0 0)
(-50.413 -0.0385795 0 0.00435768 0 0)
(-50.5647 -0.0691477 0 0.00455848 0 0)
(-50.7123 -0.104984 0 0.0048183 0 0)
(-50.8618 -0.141817 0 0.00503998 0 0)
(-51.0177 -0.178734 0 0.00526566 0 0)
(-51.1842 -0.216962 0 0.00555091 0 0)
(-51.3633 -0.257318 0 0.00593027 0 0)
(-51.554 -0.299824 0 0.00642136 0 0)
(-51.7535 -0.343376 0 0.00702185 0 0)
(-51.9598 -0.387629 0 0.00773207 0 0)
(-52.1716 -0.431406 0 0.00851709 0 0)
(-52.3888 -0.475597 0 0.00940235 0 0)
(-52.6108 -0.518689 0 0.0103562 0 0)
(-52.8382 -0.562812 0 0.0113471 0 0)
(-50.4364 0.0662659 0 0.00894381 0 0)
(-50.5007 0.0820922 0 0.00597056 0 0)
(-50.5933 0.0877951 0 0.00375657 0 0)
(-50.7104 0.0735824 0 0.00305727 0 0)
(-50.8367 0.0502301 0 0.00299681 0 0)
(-50.9647 0.0251753 0 0.00314127 0 0)
(-51.0956 0.00154175 0 0.00332348 0 0)
(-51.2332 -0.020348 0 0.00349028 0 0)
(-51.3812 -0.0427834 0 0.0036631 0 0)
(-51.5427 -0.0686806 0 0.00390871 0 0)
(-51.7187 -0.0991646 0 0.00424689 0 0)
(-51.909 -0.134136 0 0.00465337 0 0)
(-52.1112 -0.17218 0 0.00510051 0 0)
(-52.3233 -0.212105 0 0.00559004 0 0)
(-52.5422 -0.251798 0 0.00612391 0 0)
(-52.7674 -0.291209 0 0.00673417 0 0)
(-52.9955 -0.328499 0 0.0074029 0 0)
(-53.2281 -0.365486 0 0.00811099 0 0)
(-49.7639 0.0760273 0 0.00781166 0 0)
(-49.8049 0.0817212 0 0.00553612 0 0)
(-49.9002 0.0798964 0 0.00387833 0 0)
(-50.0391 0.0720475 0 0.00320295 0 0)
(-50.1912 0.0577658 0 0.00299904 0 0)
(-50.3423 0.0366404 0 0.00303131 0 0)
(-50.4913 0.0120562 0 0.00313804 0 0)
(-50.6422 -0.0119814 0 0.00328351 0 0)
(-50.7983 -0.0340791 0 0.00345479 0 0)
(-50.962 -0.0551266 0 0.00364409 0 0)
(-51.1363 -0.0764437 0 0.00387623 0 0)
(-51.325 -0.0994309 0 0.0041753 0 0)
(-51.529 -0.124405 0 0.00453862 0 0)
(-51.7476 -0.15146 0 0.00495577 0 0)
(-51.978 -0.179529 0 0.00539686 0 0)
(-52.2175 -0.208488 0 0.0058842 0 0)
(-52.4627 -0.236944 0 0.0064013 0 0)
(-52.7125 -0.265981 0 0.00693123 0 0)
(-50.0022 0.0591789 0 0.00655201 0 0)
(-50.0921 0.133444 0 0.00446332 0 0)
(-50.2144 0.145203 0 0.0029702 0 0)
(-50.3629 0.133901 0 0.00242176 0 0)
(-50.5213 0.12049 0 0.00227043 0 0)
(-50.6864 0.108445 0 0.00228161 0 0)
(-50.8618 0.0951519 0 0.00235739 0 0)
(-51.0506 0.0801832 0 0.00245608 0 0)
(-51.2529 0.0650091 0 0.00255986 0 0)
(-51.4662 0.0502324 0 0.00266434 0 0)
(-51.6895 0.0353789 0 0.00278656 0 0)
(-51.9215 0.0193586 0 0.00294581 0 0)
(-52.1604 0.00158665 0 0.0031518 0 0)
(-52.4036 -0.0184356 0 0.003408 0 0)
(-52.6493 -0.0400091 0 0.00369135 0 0)
(-52.8969 -0.0629143 0 0.00401626 0 0)
(-53.1464 -0.0857554 0 0.00437017 0 0)
(-53.3985 -0.109054 0 0.00472971 0 0)
(-49.5861 0.102834 0 0.00581246 0 0)
(-49.7736 0.141087 0 0.00366881 0 0)
(-49.9572 0.156681 0 0.00236079 0 0)
(-50.1281 0.155591 0 0.0017832 0 0)
(-50.2821 0.150154 0 0.00155449 0 0)
(-50.4331 0.142109 0 0.0014794 0 0)
(-50.5991 0.130363 0 0.00145269 0 0)
(-50.7877 0.11717 0 0.00147181 0 0)
(-50.9947 0.105689 0 0.00153028 0 0)
(-51.2108 0.0965022 0 0.00159641 0 0)
(-51.4296 0.0878059 0 0.00167728 0 0)
(-51.6491 0.0773222 0 0.00180453 0 0)
(-51.8705 0.0639539 0 0.00198484 0 0)
(-52.0955 0.0477053 0 0.00219966 0 0)
(-52.3256 0.0298793 0 0.00242698 0 0)
(-52.5622 0.0113863 0 0.00268174 0 0)
(-52.8051 -0.00627836 0 0.002955 0 0)
(-53.0542 -0.0233086 0 0.00323717 0 0)
(-50.1242 0.158368 0 0.003872 0 0)
(-50.2669 0.187161 0 0.00136677 0 0)
(-50.4712 0.197696 0 0.000565485 0 0)
(-50.6556 0.193795 0 0.000351121 0 0)
(-50.8082 0.18932 0 0.000277948 0 0)
(-50.9585 0.187385 0 0.000241576 0 0)
(-51.1262 0.185904 0 0.000211538 0 0)
(-51.3157 0.183199 0 0.00019154 0 0)
(-51.5234 0.178649 0 0.00019644 0 0)
(-51.7428 0.172287 0 0.000229386 0 0)
(-51.9693 0.164276 0 0.000286395 0 0)
(-52.2008 0.154978 0 0.000363435 0 0)
(-52.438 0.144624 0 0.000459681 0 0)
(-52.6807 0.133632 0 0.000575817 0 0)
(-52.931 0.12226 0 0.000710329 0 0)
(-53.1861 0.110883 0 0.000865604 0 0)
(-53.448 0.0998554 0 0.00103714 0 0)
(-53.7103 0.0892172 0 0.0012191 0 0)
(-50.1307 0.141477 0 0.00336183 0 0)
(-50.5054 0.230846 0 0.000481845 0 0)
(-50.8212 0.225588 0 4.75574e-05 0 0)
(-51.06 0.218917 0 -2.3874e-05 0 0)
(-51.2465 0.220358 0 -9.6334e-05 0 0)
(-51.4044 0.220793 0 -0.000139744 0 0)
(-51.5423 0.21859 0 -0.000139116 0 0)
(-51.6654 0.216502 0 -0.000116621 0 0)
(-51.78 0.215872 0 -0.000100133 0 0)
(-51.8933 0.215877 0 -9.03087e-05 0 0)
(-52.0088 0.214833 0 -6.32641e-05 0 0)
(-52.1303 0.211939 0 -6.23939e-06 0 0)
(-52.2558 0.206855 0 8.09269e-05 0 0)
(-52.388 0.200292 0 0.000187538 0 0)
(-52.521 0.192566 0 0.000302673 0 0)
(-52.6614 0.184632 0 0.000427603 0 0)
(-52.7981 0.176472 0 0.000559958 0 0)
(-52.9456 0.168779 0 0.000678591 0 0)
(-49.022 0.234178 0 0.00127834 0 0)
(-47.3523 0.272098 0 -0.000145994 0 0)
(-45.7455 0.252587 0 -0.00028803 0 0)
(-44.1895 0.238011 0 -0.000300573 0 0)
(-42.7196 0.228628 0 -0.00032751 0 0)
(-41.3633 0.218804 0 -0.000331166 0 0)
(-40.1208 0.208704 0 -0.000318587 0 0)
(-38.9764 0.199973 0 -0.000313995 0 0)
(-37.9105 0.193112 0 -0.000331431 0 0)
(-36.9107 0.187519 0 -0.000365777 0 0)
(-35.9703 0.182183 0 -0.000399093 0 0)
(-35.0924 0.176481 0 -0.000417281 0 0)
(-34.2755 0.170064 0 -0.000415807 0 0)
(-33.5256 0.163194 0 -0.000401214 0 0)
(-32.8322 0.156027 0 -0.000376901 0 0)
(-32.2051 0.149136 0 -0.000345812 0 0)
(-31.6203 0.142478 0 -0.000314007 0 0)
(-31.1027 0.136647 0 -0.000288178 0 0)
(0.00334146 -0.0122559 -1.76781e-22 0.0388041 3.52975e-22 4.15568e-39)
(0.094403 -0.0949342 3.74753e-22 0.0806305 -1.5186e-22 4.09034e-39)
(0.338373 -0.165724 0 0.0586438 0 0)
(0.663486 -0.173093 0 0.012371 0 0)
(0.901469 -0.0842644 0 -0.0461968 0 0)
(0.956597 0.059583 4.73756e-23 -0.0870465 -4.4297e-22 3.84457e-39)
(0.725618 0.224525 0 -0.105294 0 0)
(0.22294 0.351368 0 -0.0996105 0 0)
(-0.48836 0.435819 0 -0.0819167 0 0)
(-1.29416 0.46245 0 -0.0576201 0 0)
(-2.11646 0.433555 -2.41436e-21 -0.0320702 4.85215e-22 3.53229e-39)
(-2.85778 0.357133 0 -0.00901668 0 0)
(-3.429 0.243918 0 0.00929854 0 0)
(-3.75971 0.105785 0 0.0214129 0 0)
(-3.80206 -0.0457038 0 0.0266857 0 0)
(-3.53973 -0.196853 -4.24625e-21 0.0246695 -1.88735e-23 3.25174e-39)
(-2.97482 -0.33545 0 0.0155091 0 0)
(-2.15257 -0.445233 0 -0.000420378 0 0)
(-1.12031 -0.515391 0 -0.0218226 0 0)
(-0.00185565 -0.528044 0 -0.0457195 0 0)
(1.14632 -0.481851 0 -0.0679941 0 0)
(2.1143 -0.365918 0 -0.0775736 0 0)
(2.91124 -0.213517 0 -0.0713681 0 0)
(3.29887 -0.0268744 -1.57384e-21 -0.00461487 -4.00683e-22 2.88099e-39)
(3.4584 0.0523953 1.20209e-21 0.0484343 3.62927e-22 2.83796e-39)
(3.37391 0.0290818 -9.025e-22 0.185063 -1.76193e-22 2.79395e-39)
(3.36431 -0.215453 -6.93753e-22 0.317118 1.11773e-22 2.74914e-39)
(3.68597 -0.569375 0 0.341644 0 0)
(4.26783 -0.8121 0 0.401728 0 0)
(5.04117 -1.01329 4.83158e-22 0.527799 -2.19079e-22 2.60607e-39)
(5.97208 -1.17883 4.74498e-22 0.642571 -1.57745e-22 2.55791e-39)
(7.04825 -1.28831 0 0.681776 0 0)
(8.32055 -1.36058 0 0.670025 0 0)
(9.87065 -1.4304 8.24639e-22 0.643719 -1.01043e-22 2.41616e-39)
(11.7306 -1.49503 0 0.60506 0 0)
(13.8102 -1.43332 0 0.526794 0 0)
(15.8111 -1.17106 -1.94634e-21 0.422785 -1.07105e-22 2.27894e-39)
(17.2966 -0.752896 0 0.300172 0 0)
(17.8562 -0.26158 -2.33572e-21 0.219514 -2.37874e-22 2.19223e-39)
(17.1515 0.271349 -4.46724e-21 0.182064 -6.64469e-22 8.60211e-39)
(14.9174 0.782457 0 0.171686 0 0)
(11.9957 0.472172 0 0.232397 0 0)
(9.02866 -0.253162 0 0.310687 0 0)
(5.14376 -0.0847143 0 0.380215 0 0)
(0.0273229 1.09965 0 0.232736 0 0)
(-6.41369 2.4221 9.2439e-21 0.0711021 -2.32983e-21 7.6558e-39)
(-13.5964 2.91107 1.37855e-20 0.0789809 -2.64292e-21 7.50394e-39)
(-20.1396 2.64719 1.84574e-20 0.0961864 -2.39644e-21 7.35357e-39)
(-25.7383 2.24799 0 0.0972881 0 0)
(-30.4003 1.85115 -2.69724e-20 0.0937618 1.62133e-21 7.06302e-39)
(-34.1652 1.47662 0 0.087801 0 0)
(-37.0935 1.13761 3.29686e-20 0.0811741 -8.56571e-22 6.7885e-39)
(-39.2583 0.836513 3.48014e-20 0.07458 -5.22306e-22 6.65725e-39)
(-40.7316 0.572469 0 0.0682626 0 0)
(-41.5861 0.342407 0 0.0622826 0 0)
(-41.8856 0.142797 0 0.0566074 0 0)
(-41.6921 -0.0296909 3.48877e-20 0.0511915 4.34694e-22 6.168e-39)
(-41.0611 -0.178068 0 0.0459998 0 0)
(-40.0454 -0.304937 0 0.0410124 0 0)
(-38.6928 -0.412347 0 0.036211 0 0)
(-37.0487 -0.502287 0 0.0316085 0 0)
(-35.1554 -0.576316 0 0.0272139 0 0)
(-33.0515 -0.63619 0 0.0230549 0 0)
(-30.7725 -0.683475 0 0.0191522 0 0)
(-28.3498 -0.719832 0 0.0155289 0 0)
(-25.8109 -0.746487 -1.11444e-20 0.0121914 -9.71792e-22 5.21496e-39)
(-23.1806 -0.764986 0 0.00915223 0 0)
(-20.4823 -0.775776 0 0.00639168 0 0)
(-17.7377 -0.779803 1.79293e-21 0.00390523 8.78083e-22 4.92695e-39)
(-14.9689 -0.777152 -1.10304e-21 0.00167168 8.31559e-22 4.83337e-39)
(-12.198 -0.767994 0 -0.000325662 0 0)
(-9.44748 -0.75217 6.36182e-21 -0.00209117 -7.19675e-22 4.64948e-39)
(-6.74014 -0.730081 -8.66917e-21 -0.00362774 6.55928e-22 4.55911e-39)
(-4.0986 -0.701831 0 -0.00494087 0 0)
(-1.54487 -0.668049 1.25332e-20 -0.00603385 -5.17823e-22 4.3815e-39)
(0.900221 -0.629201 0 -0.00692569 0 0)
(3.21779 -0.586165 0 -0.00764451 0 0)
(5.39144 -0.539725 -1.63043e-20 -0.0082295 3.0344e-22 4.12264e-39)
(7.40833 -0.490647 0 -0.0087224 0 0)
(9.25868 -0.439906 1.74895e-20 -0.00915936 -1.6827e-22 3.95535e-39)
(10.9337 -0.387897 0 -0.00957019 0 0)
(12.427 -0.335021 -1.77138e-20 -0.00997084 4.48454e-23 3.79252e-39)
(13.7323 -0.28162 -1.74998e-20 -0.010366 -1.21661e-23 3.7128e-39)
(14.8428 -0.227785 -1.70853e-20 -0.0107492 -6.60787e-23 3.63426e-39)
(15.7528 -0.173388 -3.29679e-20 -0.0111029 -2.34077e-22 1.42276e-38)
(16.4569 -0.118877 3.14186e-20 -0.0114099 3.29257e-22 1.3923e-38)
(16.9494 -0.0642663 0 -0.0116405 0 0)
(17.2268 -0.0100113 0 -0.0117684 0 0)
(17.2878 0.0432025 0 -0.0117721 0 0)
(17.1333 0.094818 2.24196e-20 -0.0116185 6.27772e-22 1.27546e-38)
(16.7677 0.143858 1.96847e-20 -0.0112991 6.76367e-22 1.24753e-38)
(16.1985 0.18943 -1.68585e-20 -0.0108017 -7.12657e-22 1.22012e-38)
(15.4374 0.230663 0 -0.0101237 0 0)
(14.5 0.266619 1.1156e-20 -0.00929376 7.47018e-22 1.16683e-38)
(13.406 0.296489 8.38916e-21 -0.00833864 7.45329e-22 1.14091e-38)
(12.1781 0.319545 5.74521e-21 -0.0073015 7.31932e-22 1.11545e-38)
(10.8411 0.335235 0 -0.00622667 0 0)
(9.42254 0.343314 0 -0.00515769 0 0)
(7.95319 0.343737 0 -0.00413469 0 0)
(6.46444 0.336974 -2.9016e-21 -0.00318793 5.86543e-22 1.01789e-38)
(4.99015 0.326241 0 -0.00233799 0 0)
(3.5612 0.308478 0 -0.00161146 0 0)
(2.19614 0.286509 6.90623e-21 -0.00101927 -4.34249e-22 9.47703e-39)
(0.913525 0.261216 0 -0.000565558 0 0)
(-0.273586 0.234279 0 -0.000233417 0 0)
(-1.35641 0.206887 9.057e-21 -4.95668e-06 -2.83735e-22 8.81144e-39)
(-2.33183 0.18005 0 0.000141476 0 0)
(-3.20103 0.15453 0 0.000227212 0 0)
(-3.96852 0.130832 -9.96807e-21 0.000270634 1.65256e-22 8.18831e-39)
(-4.64107 0.109214 -1.00961e-20 0.000285613 1.34718e-22 7.98924e-39)
(-5.22662 0.089738 0 0.000281737 0 0)
(-5.73346 0.0723523 1.01869e-20 0.000265783 -8.59e-23 7.60317e-39)
(-6.16972 0.0569941 0 0.00024339 0 0)
(-6.54332 0.0436066 -1.01312e-20 0.00021908 5.02365e-23 7.23245e-39)
(-6.86191 0.032068 0 0.000195013 0 0)
(-7.1326 0.0221177 -9.98816e-21 0.000171197 2.44953e-23 6.87629e-39)
(-7.36134 0.0133899 -9.89587e-21 0.000146942 1.43043e-23 6.70347e-39)
(-7.55247 0.00552852 0 0.000121794 0 0)
(-7.70862 -0.00171277 0 9.5261e-05 0 0)
(-7.83157 -0.00837216 0 6.80369e-05 0 0)
(-7.92345 -0.0143781 0 4.21347e-05 0 0)
(-7.98661 -0.0197298 0 1.88229e-05 0 0)
(-8.0243 -0.0243368 0 -5.7331e-07 0 0)
(-8.04073 -0.0280521 0 -1.53967e-05 0 0)
(-8.0399 -0.0309316 -8.87694e-21 -2.69441e-05 -3.41474e-23 5.43809e-39)
(-8.02487 -0.0332083 8.73553e-21 -3.6449e-05 3.59167e-23 5.29367e-39)
(-7.99774 -0.0351447 0 -4.43271e-05 0 0)
(-7.95963 -0.0369789 0 -5.09688e-05 0 0)
(-7.91085 -0.0388652 0 -5.71845e-05 0 0)
(-7.8512 -0.0408723 0 -6.39964e-05 0 0)
(-7.78011 -0.0430054 1.61287e-20 -7.21687e-05 8.66188e-23 1.84549e-38)
(-7.69686 -0.0451883 0 -8.15065e-05 0 0)
(-7.60089 -0.0473323 -1.56013e-20 -9.12807e-05 -9.42934e-23 1.74424e-38)
(-7.49174 -0.0493843 1.53328e-20 -0.00010089 9.80326e-23 1.69516e-38)
(-7.36937 -0.0512165 0 -0.000108597 0 0)
(-7.23437 -0.0526709 0 -0.000112278 0 0)
(-7.08785 -0.0536691 0 -0.000111097 0 0)
(-6.93124 -0.0542064 -1.42092e-20 -0.000105299 -1.09353e-22 1.50877e-38)
(-6.76618 -0.0542829 -1.39169e-20 -9.5395e-05 -1.10473e-22 1.46457e-38)
(-6.59443 -0.053849 0 -8.19627e-05 0 0)
(-6.41801 -0.0528034 -1.33262e-20 -6.62081e-05 -1.09011e-22 1.37895e-38)
(-6.23927 -0.0510588 -1.30319e-20 -5.06346e-05 -1.05768e-22 1.33749e-38)
(-6.06079 -0.0486208 1.27419e-20 -3.83858e-05 1.00712e-22 1.29691e-38)
(-5.8851 -0.0456321 0 -3.11996e-05 0 0)
(-5.71438 -0.0423475 0 -2.80786e-05 0 0)
(-5.55017 -0.0390531 1.19261e-20 -2.6351e-05 7.92802e-23 1.18032e-38)
(-5.3933 -0.0359752 0 -2.38784e-05 0 0)
(-5.24401 -0.0332231 0 -2.01384e-05 0 0)
(-5.10217 -0.0307824 0 -1.57198e-05 0 0)
(-4.96759 -0.0285522 0 -1.13951e-05 0 0)
(-4.84019 -0.0264028 -1.08055e-20 -7.69088e-06 -5.19174e-23 1.00231e-38)
(-4.72009 -0.02423 -1.06143e-20 -4.93075e-06 -4.76122e-23 9.69048e-39)
(-4.60763 -0.0219864 0 -3.29829e-06 0 0)
(-4.50322 -0.0196908 -1.02639e-20 -2.76989e-06 -3.86566e-23 9.04753e-39)
(-4.40716 -0.0174123 0 -3.0542e-06 0 0)
(-4.31956 -0.0152406 0 -3.71816e-06 0 0)
(-4.24015 -0.013256 -9.81994e-21 -4.36812e-06 -2.58976e-23 8.13733e-39)
(-4.16843 -0.0115123 0 -4.7954e-06 0 0)
(-4.10347 -0.0100297 -9.57425e-21 -4.95636e-06 -1.95281e-23 7.5654e-39)
(-4.0445 -0.00880316 0 -4.92171e-06 0 0)
(-3.99026 -0.00781194 0 -4.77379e-06 0 0)
(-3.94016 -0.00703039 -9.26102e-21 -4.59771e-06 -1.36733e-23 6.75775e-39)
(-3.89269 -0.00643943 0 -4.44673e-06 0 0)
(-3.84787 -0.00601618 -9.0763e-21 -4.36326e-06 -1.17253e-23 6.25164e-39)
(-3.8036 -0.00576701 0 -4.40133e-06 0 0)
(-3.76095 -0.00566079 0 -4.56298e-06 0 0)
(-3.7164 -0.00576208 0 -5.00734e-06 0 0)
(-3.67279 -0.00598041 8.73432e-21 -5.61186e-06 1.17202e-23 5.31364e-39)
(-3.62382 -0.00653879 0 -6.96897e-06 0 0)
(-3.57517 -0.00712353 -8.56471e-21 -8.37004e-06 -1.39757e-23 4.88036e-39)
(-3.51622 -0.00841261 0 -1.21779e-05 0 0)
(-3.45543 -0.0094058 0 -1.4914e-05 0 0)
(-3.37889 -0.0121438 0 -2.69145e-05 0 0)
(-3.29035 -0.0135376 0 -3.09514e-05 0 0)
(-3.18796 -0.0195964 0 -7.66137e-05 0 0)