/*--------------------------------*- C++ -*----------------------------------*\
  =========                 |
  \\      /  F ield         | OpenFOAM: The Open Source CFD Toolbox
   \\    /   O peration     | Website:  https://openfoam.org
    \\  /    A nd           | Version:  9
     \\/     M anipulation  |
\*---------------------------------------------------------------------------*/
FoamFile
{
    format      ascii;
    class       volScalarField;
    location    "0.1";
    object      k;
}
// * * * * * * * * * * * * * * * * * * * * * * * * * * * * * * * * * * * * * //

dimensions      [0 2 -2 0 0 0 0];

internalField   nonuniform List<scalar> 
12225
(
0.314467
0.26414
0.226222
0.198766
0.180375
0.169924
0.166405
0.168832
0.17622
0.187614
0.202125
0.218973
0.237522
0.257305
0.278051
0.299713
0.322602
0.35356
0.36205
0.350315
0.347582
0.357455
0.380365
0.415366
0.460668
0.513912
0.57254
0.634145
0.696725
0.758825
0.819582
0.878734
0.936619
0.994197
1.05338
1.11756
0.3685
0.36271
0.35726
0.353317
0.352059
0.35398
0.35913
0.367306
0.378143
0.391195
0.406031
0.422307
0.439827
0.458595
0.478884
0.501364
0.527363
0.559483
0.369754
0.364176
0.358783
0.353831
0.34967
0.346505
0.344365
0.343172
0.342793
0.343078
0.343885
0.34511
0.346702
0.348675
0.351137
0.35433
0.358721
0.3651
0.37029
0.365262
0.360296
0.355499
0.350995
0.346882
0.343201
0.339944
0.337073
0.334529
0.332249
0.330176
0.328267
0.326498
0.324868
0.32341
0.322214
0.321453
0.370515
0.365865
0.361298
0.356841
0.35254
0.348445
0.344583
0.340962
0.337575
0.334403
0.33142
0.328599
0.325914
0.323344
0.320873
0.318494
0.316215
0.314078
0.3706
0.366146
0.361836
0.35766
0.353624
0.349741
0.346022
0.342474
0.339094
0.335877
0.332814
0.329892
0.327098
0.324419
0.321842
0.319357
0.316959
0.31467
0.370628
0.366259
0.362088
0.35809
0.354251
0.350565
0.34703
0.343641
0.340397
0.337294
0.334325
0.331485
0.328766
0.326159
0.323657
0.32125
0.318932
0.316723
0.370635
0.366298
0.362189
0.358284
0.354563
0.35101
0.347615
0.344368
0.341263
0.338292
0.335449
0.33273
0.330129
0.327637
0.32525
0.322959
0.320758
0.318668
0.370636
0.366308
0.362223
0.358359
0.354696
0.351217
0.347908
0.344756
0.341751
0.338884
0.336148
0.333536
0.331042
0.328659
0.326381
0.3242
0.32211
0.32013
0.370634
0.366308
0.362231
0.358382
0.354744
0.351299
0.348034
0.344935
0.34199
0.339189
0.336525
0.333989
0.331573
0.329272
0.327078
0.324983
0.322983
0.321092
0.370633
0.366306
0.362231
0.358386
0.354756
0.351325
0.348077
0.345001
0.342084
0.339316
0.336689
0.334194
0.331824
0.329571
0.327428
0.325387
0.323443
0.321613
0.370632
0.366305
0.362229
0.358386
0.354759
0.351332
0.348093
0.345027
0.342125
0.339375
0.336768
0.334297
0.331953
0.32973
0.327619
0.325613
0.323708
0.321919
0.370631
0.366303
0.362226
0.358383
0.354757
0.351333
0.348097
0.345037
0.342142
0.339401
0.336806
0.334348
0.332019
0.329813
0.327722
0.325739
0.32386
0.3221
0.37063
0.366301
0.362224
0.358381
0.354755
0.351332
0.348099
0.345041
0.34215
0.339414
0.336825
0.334375
0.332055
0.329858
0.327779
0.325809
0.323947
0.322207
0.370629
0.366299
0.362222
0.358379
0.354754
0.351332
0.3481
0.345045
0.342157
0.339426
0.336842
0.334397
0.332083
0.329894
0.327823
0.325864
0.324014
0.32229
0.370629
0.366298
0.36222
0.358377
0.354752
0.351332
0.348102
0.345051
0.342167
0.33944
0.336861
0.334422
0.332116
0.329935
0.327873
0.325925
0.324088
0.322378
0.370628
0.366297
0.362218
0.358375
0.354752
0.351333
0.348106
0.345059
0.34218
0.339459
0.336887
0.334457
0.332159
0.329989
0.327939
0.326003
0.32418
0.322485
0.370627
0.366295
0.362217
0.358374
0.354752
0.351337
0.348114
0.345071
0.342198
0.339485
0.336922
0.334502
0.332216
0.330057
0.32802
0.3261
0.324292
0.322611
0.370627
0.366295
0.362216
0.358375
0.354756
0.351343
0.348124
0.345087
0.342221
0.339515
0.336961
0.334549
0.332273
0.330126
0.328101
0.326192
0.324396
0.322727
0.370627
0.366295
0.362218
0.358378
0.354761
0.351352
0.348137
0.345105
0.342244
0.339544
0.336996
0.334591
0.332322
0.330182
0.328163
0.326261
0.324472
0.32281
0.370627
0.366296
0.36222
0.358383
0.354769
0.351362
0.348149
0.345119
0.34226
0.339561
0.337014
0.334611
0.332342
0.330202
0.328183
0.32628
0.324489
0.322824
0.370628
0.366297
0.362223
0.358385
0.354768
0.351356
0.348136
0.345095
0.342221
0.339505
0.336937
0.33451
0.332216
0.330048
0.328001
0.326069
0.324248
0.322553
0.370628
0.366295
0.362211
0.358355
0.354709
0.351257
0.347988
0.34489
0.341952
0.339167
0.336527
0.334026
0.331656
0.329414
0.327292
0.325287
0.323395
0.321631
0.370621
0.366261
0.362124
0.358184
0.354422
0.350829
0.3474
0.344133
0.341023
0.33807
0.335269
0.332617
0.33011
0.327742
0.325507
0.3234
0.321417
0.31957
0.370574
0.366089
0.361759
0.357571
0.353523
0.349628
0.345903
0.342362
0.339016
0.335867
0.332915
0.330153
0.327574
0.325169
0.322927
0.320835
0.318885
0.317081
0.370373
0.365523
0.360696
0.355919
0.351298
0.346941
0.342912
0.339236
0.335918
0.332948
0.330304
0.327959
0.32588
0.324036
0.322395
0.320927
0.319607
0.318421
0.369693
0.364215
0.358374
0.352588
0.347425
0.343156
0.339842
0.337465
0.33597
0.335273
0.335275
0.335866
0.336932
0.338365
0.340063
0.341936
0.343906
0.345904
0.365831
0.354755
0.34548
0.340056
0.338883
0.34173
0.348182
0.357711
0.369731
0.383646
0.398887
0.414931
0.431316
0.447644
0.463592
0.478905
0.493425
0.50693
0.336637
0.302355
0.273987
0.250547
0.231357
0.215868
0.203629
0.19424
0.187339
0.182587
0.179666
0.178281
0.178161
0.179057
0.180747
0.183036
0.185755
0.188752
0.159953
0.226274
0.276091
0.316881
0.351412
0.384451
0.409113
0.420403
0.427571
0.432496
0.437263
0.442525
0.448769
0.456408
0.465802
0.477274
0.491094
0.507642
0.525829
0.541978
0.554523
0.561435
0.559929
0.546163
0.514802
0.458565
0.370401
0.257718
0.164964
0.142259
0.141951
0.156384
0.179948
0.207009
0.239871
0.278634
0.311272
0.314948
0.298418
0.271431
0.244667
0.227071
0.219024
0.219776
0.225121
0.233518
0.256427
0.327159
0.503792
0.698281
0.859847
0.996368
1.10797
1.19634
1.26386
1.31308
1.34652
1.36652
1.37518
1.37441
1.36584
1.35093
1.33092
1.30686
1.27965
1.25001
1.21973
1.18916
1.15837
1.12741
1.09635
1.0652
1.03399
1.0027
0.97129
0.939708
0.907862
0.875636
0.842891
0.809476
0.775233
0.740025
0.703753
0.666384
0.627979
0.588703
0.548831
0.508737
0.468872
0.429738
0.391892
0.356053
0.323439
0.296744
0.282549
0.275138
0.269159
0.264134
0.259968
0.256624
0.254068
0.252258
0.251148
0.25068
0.250795
0.251422
0.252489
0.253918
0.255625
0.257516
0.259489
0.261435
0.26321
0.264351
0.263965
0.261415
0.256233
0.24822
0.237585
0.225019
0.211633
0.198724
0.187455
0.178579
0.172334
0.168446
0.1634
0.16186
0.161983
0.163674
0.167835
0.170684
0.173979
0.178474
0.184605
0.192503
0.201788
0.211974
0.223299
0.237805
0.269702
0.362414
0.502862
0.617044
0.706065
0.772292
0.819552
0.851845
0.873218
0.888113
0.896602
0.897855
0.892652
0.881268
0.86362
0.839359
0.807978
0.769259
0.724927
0.694036
0.702177
0.710808
0.717263
0.722496
0.727491
0.733058
0.739372
0.743581
0.736619
0.708161
0.647707
0.558684
0.464666
0.396748
0.362296
0.336294
0.296952
0.247596
0.215226
0.201504
0.120468
0.17148
0.210088
0.264422
0.429962
0.529546
0.560836
0.561675
0.551029
0.534043
0.512742
0.489058
0.464838
0.441511
0.419968
0.400733
0.384074
0.370288
0.360761
0.356767
0.358422
0.365851
0.378842
0.396736
0.418236
0.44104
0.462621
0.481574
0.485715
0.450203
0.374304
0.295877
0.25293
0.257229
0.311675
0.393432
0.465224
0.49259
0.469591
0.422518
0.392016
0.42403
0.537931
0.718687
0.87559
0.905803
0.886881
0.873956
0.873462
0.871549
0.863873
0.852662
0.839898
0.827257
0.81596
0.806809
0.800272
0.796567
0.795741
0.79773
0.802421
0.809688
0.819427
0.831562
0.846018
0.862651
0.880075
0.897853
0.915907
0.934165
0.952554
0.970986
0.989347
1.00748
1.02517
1.04212
1.05795
1.07216
1.08412
1.09312
1.09834
1.09891
1.09402
1.08298
1.06531
1.04089
1.0099
0.972956
0.930932
0.884936
0.836166
0.785813
0.734887
0.684104
0.638471
0.598514
0.561433
0.526997
0.495122
0.465702
0.438607
0.41369
0.390794
0.369759
0.350428
0.332649
0.316279
0.301182
0.287234
0.274319
0.262331
0.25117
0.240748
0.230906
0.221557
0.21274
0.204833
0.197984
0.192436
0.188514
0.186585
0.186969
0.189818
0.194996
0.202018
0.210096
0.218055
0.22504
0.229634
0.231106
0.228039
0.221122
0.21196
0.203403
0.199254
0.203848
0.222822
0.269607
0.36336
0.499479
0.622449
0.700013
0.783756
0.877458
0.9762
1.07322
1.16351
1.24494
1.31758
1.38288
1.44195
1.49673
1.54729
1.59272
1.6311
1.65942
1.67365
1.66915
1.64092
1.59108
1.5281
1.45179
1.36693
1.27827
1.18967
1.10342
1.0211
0.945043
0.87497
0.809908
0.772217
0.785412
0.869854
1.02316
1.19088
1.26605
1.1693
0.936766
0.680414
0.481732
0.0903152
0.13167
0.212608
0.453054
0.623122
0.627191
0.570277
0.509698
0.460535
0.422621
0.393017
0.369273
0.349771
0.333469
0.31966
0.307838
0.29762
0.28872
0.281036
0.276051
0.274117
0.275664
0.281253
0.291378
0.306314
0.326139
0.351133
0.381809
0.413829
0.432337
0.421184
0.38172
0.335936
0.312363
0.347572
0.443106
0.549932
0.619902
0.635981
0.669378
0.784571
0.935903
1.00619
0.977639
0.915934
0.850209
0.797543
0.76186
0.739131
0.724115
0.714966
0.711247
0.712456
0.717836
0.72641
0.737159
0.749227
0.762043
0.775345
0.789099
0.803378
0.818263
0.833778
0.849875
0.866434
0.883407
0.900788
0.918558
0.936731
0.955354
0.974497
0.994233
1.01462
1.03568
1.05734
1.07946
1.10174
1.1237
1.14467
1.16378
1.17994
1.19191
1.19843
1.19828
1.19047
1.1744
1.14993
1.11747
1.07786
1.03232
0.982241
0.929048
0.87398
0.818026
0.767483
0.721347
0.678068
0.637565
0.59982
0.564769
0.532307
0.502301
0.474598
0.449039
0.425465
0.403719
0.383651
0.365119
0.347992
0.332148
0.317472
0.303851
0.291183
0.279333
0.268124
0.257348
0.246717
0.236465
0.226786
0.217846
0.209841
0.202954
0.197311
0.192948
0.189806
0.187743
0.186577
0.186058
0.185904
0.185802
0.185482
0.184916
0.184802
0.187459
0.197926
0.225078
0.284038
0.394457
0.55749
0.710326
0.802348
0.894269
1.02933
1.17949
1.31645
1.42863
1.51863
1.5934
1.65821
1.71509
1.7657
1.8118
1.85368
1.89079
1.92131
1.94196
1.94799
1.93354
1.89326
1.8328
1.75411
1.66103
1.5593
1.45442
1.3509
1.25201
1.16034
1.07792
1.00254
0.929675
0.859616
0.8074
0.792069
0.829408
0.922664
1.05314
1.16681
1.18649
1.07839
0.872702
0.0902326
0.225999
0.598598
0.74344
0.682487
0.578994
0.492503
0.431292
0.389298
0.359761
0.33807
0.321415
0.308103
0.297105
0.287785
0.279731
0.272672
0.266417
0.260841
0.256127
0.252407
0.249994
0.249466
0.251632
0.257312
0.267101
0.281632
0.302062
0.328404
0.355675
0.374097
0.377854
0.377204
0.399789
0.476048
0.623153
0.796696
0.940629
1.06169
1.07099
1.0268
0.975087
0.901469
0.82169
0.755165
0.707677
0.678821
0.665075
0.662135
0.66657
0.676237
0.689441
0.704577
0.720211
0.735282
0.749261
0.762131
0.774193
0.785844
0.797397
0.809016
0.820715
0.832416
0.843999
0.855362
0.866267
0.876694
0.886739
0.896582
0.906491
0.916809
0.927934
0.940287
0.954269
0.970214
0.988334
1.00866
1.031
1.05486
1.0794
1.10348
1.1256
1.14406
1.15707
1.163
1.16054
1.14894
1.12811
1.09859
1.06147
1.01811
0.97001
0.918567
0.865813
0.817815
0.772373
0.729174
0.688354
0.649997
0.614108
0.580639
0.549501
0.520582
0.493756
0.468891
0.445857
0.424523
0.404766
0.38647
0.369524
0.353824
0.339275
0.325779
0.313237
0.301534
0.290525
0.280041
0.269858
0.260054
0.250721
0.241948
0.233828
0.226428
0.219769
0.213819
0.208499
0.203701
0.199319
0.195309
0.191754
0.188973
0.187702
0.189581
0.198263
0.221118
0.270932
0.365612
0.515873
0.687345
0.812992
0.910081
1.05118
1.22947
1.39939
1.53766
1.64401
1.72663
1.79217
1.8438
1.88281
1.91325
1.93754
1.95688
1.97171
1.98105
1.98229
1.97073
1.94022
1.89051
1.82243
1.73812
1.64199
1.53956
1.43613
1.33599
1.24234
1.15749
1.08281
1.01825
0.960748
0.9041
0.846852
0.798213
0.770473
0.778086
0.834258
0.93736
1.05417
1.12777
1.09578
0.194028
0.633007
0.771403
0.667347
0.549252
0.465342
0.411276
0.375628
0.350434
0.331331
0.316006
0.303203
0.292239
0.282742
0.274476
0.267267
0.260986
0.255554
0.250917
0.246899
0.243333
0.240267
0.237889
0.236629
0.237237
0.240636
0.247684
0.259534
0.277937
0.303771
0.335327
0.372743
0.43124
0.542059
0.714419
0.952549
1.25228
1.33071
1.14079
0.997145
0.889714
0.803411
0.732521
0.679732
0.646631
0.630938
0.628869
0.636453
0.650295
0.66782
0.68707
0.70647
0.724896
0.741798
0.757157
0.771274
0.78452
0.797169
0.809334
0.820991
0.832025
0.84227
0.851545
0.859677
0.866446
0.871208
0.87387
0.874488
0.873293
0.87071
0.867356
0.864023
0.861629
0.86115
0.863545
0.869656
0.880116
0.895256
0.915013
0.938864
0.965771
0.994176
1.02206
1.04711
1.06691
1.0793
1.08267
1.07618
1.05981
1.03435
1.00106
0.96144
0.91692
0.872071
0.829263
0.787588
0.747362
0.708888
0.672348
0.637831
0.605355
0.574891
0.546379
0.519742
0.494889
0.471726
0.450159
0.430093
0.411437
0.394103
0.378006
0.363065
0.349197
0.336319
0.324341
0.313163
0.30267
0.292726
0.283166
0.274022
0.265313
0.257069
0.249323
0.242091
0.235361
0.229083
0.223187
0.217606
0.212342
0.207573
0.203844
0.202389
0.205776
0.219131
0.251995
0.319697
0.438172
0.600303
0.752305
0.86173
0.989026
1.17
1.36826
1.54
1.67247
1.77142
1.84475
1.89694
1.93021
1.94642
1.95131
1.94807
1.93899
1.92565
1.90797
1.88478
1.85125
1.80591
1.74644
1.673
1.58782
1.49497
1.39928
1.30528
1.21655
1.13566
1.06426
1.00323
0.952555
0.910624
0.873364
0.834944
0.793515
0.755464
0.73087
0.733028
0.776
0.863727
0.977902
1.06558
0.36845
0.768708
0.654303
0.529141
0.453691
0.409685
0.379986
0.356543
0.336516
0.319031
0.30373
0.290389
0.278855
0.268969
0.260521
0.253296
0.247136
0.241969
0.237781
0.23451
0.232037
0.230184
0.228761
0.227661
0.22702
0.22748
0.230272
0.237131
0.250931
0.276434
0.320285
0.395814
0.533546
0.765089
1.08087
1.42787
1.43195
1.16717
0.956256
0.819405
0.728504
0.667361
0.628395
0.608127
0.603279
0.610035
0.624757
0.644372
0.666467
0.689243
0.71148
0.732521
0.752204
0.770686
0.788242
0.805117
0.821461
0.837323
0.85267
0.86739
0.881295
0.894116
0.905502
0.915049
0.921775
0.92483
0.923757
0.91831
0.908506
0.894682
0.877536
0.858129
0.837855
0.818354
0.801394
0.788709
0.781828
0.78191
0.789607
0.804954
0.827302
0.85528
0.886809
0.919216
0.949467
0.974511
0.991711
0.999248
0.99632
0.983168
0.96079
0.930638
0.8949
0.858703
0.821966
0.785265
0.749202
0.714201
0.680535
0.648369
0.617787
0.588817
0.561456
0.535673
0.511425
0.48866
0.467319
0.447343
0.428671
0.41124
0.394988
0.379854
0.365772
0.352674
0.340488
0.329132
0.318516
0.30854
0.299096
0.290079
0.281507
0.273365
0.265649
0.258356
0.251469
0.244958
0.23878
0.232907
0.227377
0.222418
0.218686
0.217749
0.222897
0.240452
0.281537
0.362091
0.492221
0.64948
0.78135
0.88926
1.04029
1.2479
1.45331
1.62047
1.74536
1.83531
1.89679
1.93293
1.94587
1.93847
1.91772
1.88728
1.85029
1.80984
1.76574
1.71933
1.66808
1.60942
1.54173
1.46524
1.38203
1.29555
1.20967
1.1279
1.05291
0.986449
0.929488
0.882369
0.844872
0.815895
0.793002
0.772894
0.749785
0.72397
0.699684
0.684948
0.691542
0.732183
0.812744
0.916513
0.600852
0.677201
0.53663
0.464372
0.427672
0.399959
0.373422
0.348164
0.325602
0.30615
0.289597
0.275684
0.264133
0.254549
0.246503
0.239663
0.233832
0.228923
0.224959
0.222181
0.220708
0.220263
0.220474
0.220897
0.221048
0.220813
0.221319
0.225322
0.237627
0.267381
0.331537
0.461205
0.690832
0.998575
1.34684
1.43277
1.18094
0.935478
0.775517
0.679632
0.623672
0.593887
0.582736
0.585481
0.598277
0.617788
0.641269
0.666609
0.692329
0.717559
0.741929
0.765414
0.78816
0.810361
0.832189
0.853774
0.875211
0.896543
0.917744
0.938678
0.959067
0.978473
0.99631
1.01188
1.02311
1.02902
1.02876
1.02169
1.00742
0.985976
0.957824
0.923991
0.886079
0.84623
0.807015
0.771212
0.741517
0.72023
0.708987
0.708594
0.718969
0.739126
0.767191
0.800455
0.835545
0.868733
0.896397
0.915654
0.924677
0.922962
0.911003
0.890148
0.864431
0.835917
0.805537
0.774282
0.742885
0.711864
0.681568
0.652226
0.623982
0.596919
0.571081
0.546489
0.523141
0.501028
0.48013
0.460421
0.441873
0.424451
0.408118
0.392835
0.378556
0.365231
0.352803
0.341209
0.330378
0.320233
0.310694
0.301668
0.293115
0.285016
0.277346
0.270088
0.263219
0.256716
0.25056
0.244754
0.239374
0.234684
0.231422
0.2314
0.238456
0.259764
0.307238
0.395652
0.528376
0.674866
0.793773
0.906849
1.07203
1.28362
1.48658
1.65007
1.76941
1.84998
1.89904
1.91951
1.91363
1.88537
1.84264
1.78924
1.7281
1.66527
1.60147
1.53746
1.47201
1.40338
1.3306
1.25403
1.17541
1.09729
1.02243
0.953269
0.891541
0.838271
0.793845
0.758188
0.730888
0.711121
0.697426
0.687892
0.679492
0.668881
0.656482
0.644978
0.640646
0.653854
0.695434
0.768711
0.752629
0.589964
0.495576
0.461982
0.433746
0.400014
0.365834
0.336099
0.311724
0.291861
0.275755
0.262888
0.252613
0.244208
0.237119
0.231029
0.225764
0.221215
0.217428
0.214937
0.213947
0.21423
0.2154
0.216854
0.217767
0.217627
0.217623
0.221641
0.237154
0.279621
0.37962
0.577555
0.859443
1.17656
1.32987
1.16764
0.926567
0.752182
0.649354
0.594392
0.569383
0.563893
0.57172
0.588719
0.611742
0.638331
0.666681
0.695615
0.724515
0.753172
0.78162
0.809985
0.838394
0.866945
0.89572
0.924799
0.954248
0.984075
1.01417
1.04424
1.07379
1.10208
1.12818
1.15099
1.16797
1.17832
1.18093
1.17481
1.15918
1.13355
1.09792
1.05288
0.999732
0.940684
0.878799
0.817863
0.761987
0.715016
0.679944
0.658547
0.65134
0.657702
0.676024
0.703782
0.737621
0.773531
0.807151
0.834615
0.853003
0.860875
0.858049
0.846692
0.829604
0.808363
0.784357
0.758679
0.732143
0.705333
0.678659
0.652401
0.626753
0.601845
0.577768
0.554581
0.532329
0.511039
0.490729
0.471407
0.453076
0.435731
0.419359
0.403945
0.389464
0.375885
0.363171
0.351275
0.340146
0.329725
0.31995
0.310756
0.302083
0.293909
0.286203
0.278937
0.272089
0.26564
0.259588
0.253963
0.248872
0.24462
0.242027
0.243092
0.252018
0.276459
0.328366
0.420405
0.550412
0.685813
0.797106
0.913908
1.08209
1.28777
1.48257
1.63869
1.75114
1.82444
1.86344
1.87112
1.85004
1.80576
1.74623
1.67598
1.5992
1.5204
1.44207
1.36549
1.29045
1.21618
1.14227
1.06908
0.99763
0.929398
0.865976
0.808772
0.758787
0.716518
0.681984
0.654859
0.634599
0.620499
0.611633
0.606959
0.605756
0.60476
0.602875
0.600108
0.597954
0.601736
0.620196
0.661513
0.923788
0.582068
0.511361
0.481634
0.44028
0.394287
0.354429
0.323396
0.299541
0.280945
0.266606
0.255724
0.247221
0.240125
0.233885
0.228321
0.223462
0.219284
0.215781
0.21342
0.212343
0.212452
0.213486
0.215026
0.2166
0.218145
0.221299
0.230704
0.257802
0.330195
0.479865
0.715657
0.981657
1.16215
1.1055
0.913101
0.739988
0.631109
0.57406
0.550479
0.547892
0.558866
0.578799
0.604569
0.63392
0.665278
0.697684
0.730684
0.764165
0.798176
0.832776
0.867972
0.903727
0.940023
0.976899
1.01444
1.0527
1.09161
1.13093
1.17012
1.20842
1.2448
1.27803
1.30639
1.32811
1.34245
1.34827
1.34442
1.32991
1.3039
1.26581
1.2155
1.1534
1.08086
1.00047
0.91635
0.833928
0.759176
0.697285
0.651594
0.623379
0.612206
0.616513
0.633912
0.661263
0.694736
0.729618
0.761249
0.785812
0.800833
0.80577
0.802543
0.792936
0.778506
0.760632
0.740426
0.718741
0.696199
0.673247
0.650204
0.627301
0.604706
0.582547
0.560924
0.539917
0.519591
0.499996
0.481175
0.463159
0.44597
0.429624
0.414124
0.399469
0.385648
0.37264
0.360418
0.348949
0.338191
0.3281
0.318628
0.309726
0.301371
0.293531
0.286178
0.279292
0.272861
0.266897
0.26145
0.256655
0.252857
0.250951
0.253072
0.263613
0.290361
0.344784
0.437268
0.561967
0.687568
0.793368
0.909558
1.07203
1.26554
1.4488
1.59636
1.70212
1.76863
1.79953
1.79792
1.76685
1.71264
1.64259
1.56164
1.47437
1.38521
1.29751
1.21333
1.1335
1.05816
0.987259
0.92074
0.85864
0.801218
0.748979
0.702546
0.662451
0.628942
0.601916
0.580957
0.565462
0.554733
0.54803
0.544708
0.545036
0.547422
0.550604
0.553825
0.556622
0.560094
0.568805
0.590027
0.987511
0.582607
0.53857
0.498618
0.441965
0.387816
0.345605
0.314945
0.292439
0.275669
0.263494
0.254716
0.24775
0.24139
0.235174
0.22926
0.224222
0.220408
0.217583
0.21551
0.214239
0.214071
0.215329
0.21827
0.22311
0.230227
0.241395
0.263668
0.314649
0.420657
0.594301
0.809144
0.981032
1.00021
0.879233
0.729555
0.620237
0.559895
0.535188
0.533231
0.545639
0.567333
0.59509
0.626741
0.660845
0.696562
0.73352
0.77163
0.810883
0.851204
0.892424
0.934355
0.976896
1.02009
1.06409
1.10903
1.15493
1.20157
1.24843
1.29467
1.33925
1.3809
1.4183
1.44898
1.47278
1.48879
1.49597
1.49333
1.4799
1.45488
1.41757
1.36745
1.30413
1.22762
1.13879
1.04029
0.937352
0.837607
0.749254
0.678389
0.627897
0.597674
0.585943
0.59023
0.607508
0.634462
0.666549
0.698407
0.726014
0.745171
0.756174
0.759518
0.756358
0.748031
0.735812
0.720774
0.703757
0.685388
0.66613
0.646319
0.62621
0.606
0.585848
0.565886
0.546226
0.526967
0.508191
0.489971
0.472366
0.455424
0.439184
0.423672
0.408905
0.394892
0.381629
0.369108
0.35731
0.346211
0.335783
0.325992
0.316804
0.3082
0.300154
0.292644
0.285654
0.279182
0.273252
0.267932
0.26338
0.259978
0.258675
0.261672
0.273398
0.301497
0.356678
0.447348
0.565661
0.682799
0.783411
0.894757
1.04559
1.22293
1.39242
1.53058
1.62979
1.69067
1.71595
1.70872
1.67216
1.61262
1.53676
1.44973
1.35637
1.26144
1.16896
1.08185
1.00191
0.929939
0.865795
0.808593
0.757156
0.710576
0.668514
0.631153
0.598893
0.572028
0.550545
0.534084
0.522029
0.513622
0.508083
0.504785
0.503834
0.505607
0.509166
0.513914
0.519106
0.524169
0.53005
0.541121
0.976149
0.596988
0.569953
0.51528
0.446597
0.386623
0.342695
0.312217
0.29082
0.275755
0.265532
0.258448
0.252465
0.246223
0.239415
0.232617
0.226896
0.223116
0.221438
0.220865
0.221069
0.222725
0.226538
0.232963
0.242201
0.255178
0.276486
0.317357
0.393914
0.517478
0.677413
0.823075
0.877076
0.820878
0.711323
0.612302
0.550433
0.523183
0.519986
0.532219
0.554402
0.583156
0.616313
0.652485
0.690876
0.73113
0.77312
0.816726
0.861699
0.907687
0.954368
1.0016
1.04946
1.09821
1.1481
1.19921
1.25133
1.30391
1.35604
1.40657
1.45413
1.49733
1.53479
1.5646
1.58703
1.60149
1.60718
1.60325
1.58891
1.5635
1.52653
1.47771
1.41665
1.34277
1.25527
1.15424
1.04243
0.926903
0.818141
0.725358
0.654223
0.60575
0.578045
0.568566
0.574128
0.591994
0.618487
0.647149
0.674004
0.695809
0.710986
0.719288
0.721359
0.718241
0.711032
0.700702
0.688033
0.673621
0.657915
0.641251
0.623894
0.606058
0.587925
0.569655
0.551389
0.533254
0.515363
0.497814
0.480695
0.464077
0.448021
0.432574
0.417771
0.403637
0.390187
0.377426
0.365351
0.353951
0.343212
0.333115
0.323637
0.314766
0.306485
0.298779
0.291642
0.285081
0.279133
0.273879
0.269498
0.266398
0.265556
0.269164
0.281548
0.310016
0.364432
0.451713
0.563326
0.673117
0.768304
0.871675
1.00714
1.16574
1.31973
1.44758
1.5403
1.59668
1.6185
1.60853
1.5697
1.50803
1.4297
1.34003
1.24421
1.14743
1.05438
0.968832
0.893301
0.828747
0.774396
0.728161
0.68761
0.650902
0.617248
0.586793
0.56016
0.537944
0.520389
0.507274
0.497981
0.491641
0.487294
0.484119
0.481852
0.481311
0.482561
0.485525
0.489801
0.494697
0.499624
0.506006
0.920197
0.626202
0.604492
0.536346
0.458007
0.392905
0.346546
0.315161
0.294038
0.280028
0.271058
0.265063
0.25992
0.25423
0.24775
0.24117
0.235643
0.23223
0.2315
0.232471
0.234873
0.239064
0.245577
0.255073
0.268928
0.290518
0.326373
0.38536
0.474272
0.588601
0.699776
0.760747
0.74705
0.68016
0.602082
0.544001
0.514663
0.509088
0.519783
0.541178
0.569765
0.603346
0.640552
0.680604
0.723138
0.767971
0.814863
0.86339
0.913011
0.963262
1.01394
1.06517
1.11729
1.17067
1.22551
1.28165
1.33851
1.39509
1.45007
1.50191
1.54903
1.58988
1.6232
1.64817
1.66553
1.67509
1.67643
1.6689
1.65177
1.62437
1.58631
1.53758
1.47837
1.40856
1.32686
1.23136
1.12159
1.0017
0.883029
0.776253
0.689798
0.626543
0.584843
0.562727
0.556767
0.564485
0.582528
0.606379
0.631386
0.653774
0.671245
0.68293
0.688987
0.690115
0.687183
0.68101
0.672275
0.661512
0.649127
0.635442
0.620716
0.605171
0.589005
0.572397
0.555515
0.538512
0.521526
0.504682
0.488092
0.471849
0.456036
0.440717
0.425946
0.411763
0.398198
0.385267
0.372983
0.361346
0.350352
0.339995
0.330262
0.321147
0.312641
0.304739
0.297442
0.290769
0.284765
0.279527
0.275249
0.272352
0.271807
0.275732
0.288234
0.316162
0.368543
0.451338
0.556285
0.659684
0.749312
0.842913
0.961056
1.09934
1.23635
1.35278
1.43863
1.49104
1.5107
1.49978
1.46075
1.3992
1.32092
1.23142
1.13631
1.04133
0.951835
0.872255
0.805372
0.751642
0.709105
0.674294
0.643701
0.614969
0.587336
0.561338
0.538129
0.5188
0.503928
0.493429
0.486633
0.482485
0.479775
0.477405
0.474728
0.472133
0.470402
0.470014
0.471159
0.47362
0.476756
0.480419
0.84425
0.668308
0.644352
0.56487
0.477783
0.406967
0.356777
0.323036
0.30088
0.286763
0.278184
0.272988
0.26916
0.265232
0.260661
0.255789
0.251508
0.248849
0.248685
0.250453
0.254371
0.260775
0.270428
0.284723
0.306035
0.338006
0.385124
0.450539
0.530941
0.610439
0.663343
0.671454
0.638414
0.585845
0.538082
0.509416
0.501543
0.509879
0.529452
0.556769
0.589629
0.626688
0.667197
0.710804
0.757308
0.806392
0.857484
0.909845
0.962811
1.01603
1.06958
1.12384
1.17931
1.23635
1.29496
1.35469
1.41454
1.47306
1.52844
1.57875
1.62211
1.657
1.68239
1.69904
1.70807
1.70985
1.70442
1.69145
1.67028
1.6401
1.60029
1.55083
1.49221
1.42542
1.34974
1.26251
1.16094
1.04491
0.926855
0.8162
0.72247
0.650206
0.598762
0.565633
0.548842
0.546807
0.556965
0.575333
0.597312
0.618844
0.637163
0.650915
0.659837
0.664294
0.664905
0.662305
0.657044
0.649563
0.640212
0.629276
0.617
0.603605
0.589297
0.574273
0.558719
0.542811
0.526712
0.51057
0.494519
0.478674
0.463136
0.447988
0.433299
0.419123
0.405504
0.39247
0.380043
0.368236
0.357053
0.346497
0.336565
0.327252
0.318559
0.310487
0.303047
0.296265
0.290195
0.284943
0.280713
0.27793
0.277525
0.281487
0.29362
0.320228
0.369561
0.447075
0.545489
0.643337
0.72768
0.811057
0.911412
1.02866
1.14742
1.25106
1.32915
1.37741
1.39534
1.38428
1.34627
1.28642
1.21023
1.12343
1.03211
0.942601
0.860827
0.791474
0.736904
0.696376
0.666377
0.642137
0.619486
0.5961
0.571754
0.547761
0.526042
0.508261
0.495293
0.487077
0.482765
0.481027
0.480377
0.479468
0.47736
0.473836
0.469765
0.465949
0.463132
0.461733
0.461676
0.462571
0.770088
0.715825
0.690644
0.600868
0.505643
0.428811
0.373811
0.336384
0.311714
0.296071
0.286736
0.281584
0.278831
0.277063
0.275423
0.273692
0.272197
0.271611
0.272656
0.275709
0.281487
0.290648
0.304214
0.323701
0.3511
0.388454
0.436537
0.492385
0.547195
0.588019
0.604078
0.593246
0.563836
0.530496
0.506461
0.497823
0.503821
0.521015
0.546272
0.577469
0.613316
0.653116
0.696574
0.743537
0.793699
0.846422
0.900784
0.955853
1.011
1.06607
1.12138
1.17747
1.23488
1.29389
1.35429
1.41535
1.47572
1.53355
1.58668
1.6328
1.66984
1.69631
1.71146
1.71786
1.71692
1.70944
1.69593
1.67645
1.65053
1.6173
1.57587
1.52587
1.46743
1.40251
1.33155
1.25186
1.16041
1.05675
0.946147
0.838325
0.743471
0.667186
0.609679
0.569073
0.544234
0.534487
0.538034
0.551383
0.570118
0.590112
0.608369
0.623229
0.634115
0.641109
0.644588
0.644998
0.64274
0.638151
0.631508
0.623052
0.613004
0.601576
0.588979
0.575421
0.561103
0.546223
0.530962
0.515491
0.499962
0.484512
0.469259
0.454302
0.439724
0.425595
0.411967
0.398882
0.386369
0.374451
0.36314
0.352446
0.342373
0.332918
0.324087
0.315889
0.30834
0.301472
0.295346
0.290073
0.28586
0.28312
0.282724
0.286488
0.297858
0.322534
0.368039
0.439659
0.531613
0.624638
0.704459
0.778366
0.86176
0.958157
1.05778
1.14715
1.21612
1.25936
1.27523
1.26419
1.22779
1.17081
1.09853
1.01695
0.932652
0.852447
0.782502
0.727133
0.687506
0.661133
0.642878
0.62705
0.609424
0.588317
0.564522
0.54042
0.518795
0.501815
0.490469
0.484502
0.482715
0.483432
0.484927
0.485728
0.484786
0.481567
0.476329
0.470016
0.463636
0.458119
0.454069
0.451568
0.696326
0.765825
0.739956
0.642659
0.541452
0.459541
0.399591
0.357573
0.329022
0.310336
0.298784
0.292295
0.289275
0.28849
0.289042
0.290382
0.292327
0.295031
0.298905
0.304619
0.313067
0.325108
0.341722
0.363923
0.392412
0.426872
0.465074
0.502413
0.532688
0.550129
0.551871
0.539882
0.521123
0.504763
0.497749
0.502334
0.517209
0.540067
0.569037
0.602926
0.641114
0.683379
0.729672
0.779807
0.833211
0.888887
0.945641
1.00243
1.05866
1.11438
1.17003
1.22622
1.28348
1.34196
1.40135
1.46072
1.51854
1.5728
1.62111
1.66094
1.69
1.70652
1.71131
1.70759
1.69672
1.68002
1.65837
1.63214
1.60116
1.56474
1.52191
1.47214
1.41586
1.35429
1.28781
1.21474
1.13216
1.03864
0.937487
0.837071
0.746755
0.671833
0.612699
0.568256
0.538468
0.523615
0.522523
0.532069
0.548052
0.566436
0.584201
0.599564
0.61176
0.620658
0.626427
0.629329
0.62962
0.627527
0.623249
0.616979
0.608908
0.599238
0.588177
0.575941
0.562746
0.548801
0.534308
0.519456
0.504416
0.48934
0.474363
0.4596
0.445148
0.431086
0.41748
0.40438
0.391824
0.379842
0.368454
0.357674
0.347513
0.337968
0.32905
0.320774
0.313159
0.306241
0.300083
0.294798
0.290589
0.287846
0.287365
0.290759
0.301077
0.323385
0.364498
0.429711
0.515099
0.603832
0.680267
0.746456
0.814873
0.891598
0.971845
1.04566
1.10393
1.14084
1.15378
1.14239
1.10786
1.05478
0.988298
0.914642
0.840774
0.773692
0.719233
0.680555
0.656937
0.64391
0.635023
0.624316
0.60823
0.586307
0.560723
0.535057
0.512866
0.49657
0.486959
0.483312
0.48393
0.486783
0.490015
0.492209
0.492433
0.490122
0.484995
0.477657
0.469056
0.460307
0.452489
0.446362
0.622072
0.812429
0.787158
0.686992
0.583986
0.499744
0.436217
0.389856
0.356849
0.334058
0.319011
0.3098
0.304981
0.303477
0.304485
0.307412
0.311852
0.317594
0.324556
0.333203
0.344151
0.358019
0.375297
0.396153
0.420153
0.446026
0.471598
0.494032
0.510381
0.518464
0.518013
0.511584
0.504212
0.501329
0.506307
0.519705
0.540404
0.567044
0.598653
0.634727
0.67515
0.719968
0.769103
0.82222
0.878436
0.936471
0.995026
1.05304
1.10921
1.16411
1.21829
1.27234
1.32671
1.38147
1.43622
1.49002
1.54137
1.58836
1.62866
1.65983
1.67964
1.6867
1.68316
1.67138
1.65273
1.62861
1.6002
1.56823
1.53294
1.49392
1.45028
1.4013
1.3471
1.28853
1.22602
1.15829
1.08275
0.997917
0.906517
0.815777
0.733503
0.66359
0.606101
0.560839
0.529028
0.511775
0.508259
0.515548
0.529643
0.546719
0.563902
0.579445
0.592514
0.602837
0.610416
0.615354
0.61777
0.617787
0.615532
0.611146
0.604794
0.596662
0.586954
0.57589
0.563694
0.550588
0.536789
0.522499
0.507906
0.493177
0.478462
0.463888
0.449566
0.435586
0.422022
0.408933
0.396367
0.384358
0.372934
0.362112
0.351907
0.342317
0.333358
0.325047
0.317406
0.310475
0.304316