/*--------------------------------*- C++ -*----------------------------------*\
  =========                 |
  \\      /  F ield         | OpenFOAM: The Open Source CFD Toolbox
   \\    /   O peration     | Website:  https://openfoam.org
    \\  /    A nd           | Version:  9
     \\/     M anipulation  |
\*---------------------------------------------------------------------------*/
FoamFile
{
    format      ascii;
    class       volScalarField;
    location    "0.1";
    object      kU;
}
// * * * * * * * * * * * * * * * * * * * * * * * * * * * * * * * * * * * * * //

dimensions      [0 2 -2 0 0 0 0];

internalField   nonuniform List<scalar> 
12225
(
0.157233
0.13207
0.113111
0.0993828
0.0901877
0.084962
0.0832024
0.0844158
0.0881101
0.0938069
0.101062
0.109486
0.118761
0.128653
0.139026
0.149857
0.161301
0.17678
0.181025
0.175158
0.173791
0.178727
0.190183
0.207683
0.230334
0.256956
0.28627
0.317072
0.348363
0.379412
0.409791
0.439367
0.468309
0.497099
0.526692
0.558778
0.18425
0.181355
0.17863
0.176658
0.17603
0.17699
0.179565
0.183653
0.189072
0.195598
0.203015
0.211153
0.219913
0.229298
0.239442
0.250682
0.263681
0.279742
0.184877
0.182088
0.179391
0.176916
0.174835
0.173253
0.172183
0.171586
0.171397
0.171539
0.171942
0.172555
0.173351
0.174338
0.175569
0.177165
0.17936
0.18255
0.185145
0.182631
0.180148
0.17775
0.175498
0.173441
0.1716
0.169972
0.168537
0.167265
0.166124
0.165088
0.164134
0.163249
0.162434
0.161705
0.161107
0.160726
0.185257
0.182933
0.180649
0.17842
0.17627
0.174222
0.172291
0.170481
0.168788
0.167201
0.16571
0.164299
0.162957
0.161672
0.160437
0.159247
0.158108
0.157039
0.1853
0.183073
0.180918
0.17883
0.176812
0.17487
0.173011
0.171237
0.169547
0.167939
0.166407
0.164946
0.163549
0.16221
0.160921
0.159679
0.15848
0.157335
0.185314
0.183129
0.181044
0.179045
0.177126
0.175283
0.173515
0.171821
0.170199
0.168647
0.167163
0.165742
0.164383
0.16308
0.161828
0.160625
0.159466
0.158362
0.185318
0.183149
0.181095
0.179142
0.177281
0.175505
0.173808
0.172184
0.170631
0.169146
0.167725
0.166365
0.165064
0.163819
0.162625
0.16148
0.160379
0.159334
0.185318
0.183154
0.181111
0.17918
0.177348
0.175609
0.173954
0.172378
0.170875
0.169442
0.168074
0.166768
0.165521
0.16433
0.16319
0.1621
0.161055
0.160065
0.185317
0.183154
0.181115
0.179191
0.177372
0.17565
0.174017
0.172467
0.170995
0.169595
0.168262
0.166994
0.165787
0.164636
0.163539
0.162492
0.161491
0.160546
0.185317
0.183153
0.181115
0.179193
0.177378
0.175662
0.174039
0.1725
0.171042
0.169658
0.168345
0.167097
0.165912
0.164785
0.163714
0.162693
0.161722
0.160806
0.185316
0.183152
0.181114
0.179193
0.177379
0.175666
0.174046
0.172514
0.171062
0.169687
0.168384
0.167148
0.165977
0.164865
0.163809
0.162807
0.161854
0.16096
0.185316
0.183151
0.181113
0.179192
0.177379
0.175667
0.174049
0.172519
0.171071
0.169701
0.168403
0.167174
0.16601
0.164907
0.163861
0.162869
0.16193
0.16105
0.185315
0.18315
0.181112
0.17919
0.177378
0.175666
0.174049
0.172521
0.171075
0.169707
0.168413
0.167187
0.166027
0.164929
0.163889
0.162905
0.161973
0.161104
0.185315
0.18315
0.181111
0.179189
0.177377
0.175666
0.17405
0.172523
0.171079
0.169713
0.168421
0.167198
0.166042
0.164947
0.163911
0.162932
0.162007
0.161145
0.185314
0.183149
0.18111
0.179188
0.177376
0.175666
0.174051
0.172525
0.171083
0.16972
0.168431
0.167211
0.166058
0.164968
0.163937
0.162963
0.162044
0.161189
0.185314
0.183148
0.181109
0.179188
0.177376
0.175667
0.174053
0.172529
0.17109
0.169729
0.168444
0.167228
0.16608
0.164994
0.163969
0.163002
0.16209
0.161242
0.185314
0.183148
0.181108
0.179187
0.177376
0.175668
0.174057
0.172536
0.171099
0.169742
0.168461
0.167251
0.166108
0.165029
0.16401
0.16305
0.162146
0.161306
0.185314
0.183147
0.181108
0.179188
0.177378
0.175672
0.174062
0.172544
0.17111
0.169757
0.16848
0.167275
0.166137
0.165063
0.16405
0.163096
0.162198
0.161363
0.185313
0.183147
0.181109
0.179189
0.177381
0.175676
0.174069
0.172552
0.171122
0.169772
0.168498
0.167295
0.166161
0.165091
0.164082
0.163131
0.162236
0.161405
0.185314
0.183148
0.18111
0.179192
0.177384
0.175681
0.174075
0.172559
0.17113
0.169781
0.168507
0.167305
0.166171
0.165101
0.164092
0.16314
0.162245
0.161412
0.185314
0.183149
0.181111
0.179193
0.177384
0.175678
0.174068
0.172547
0.17111
0.169752
0.168468
0.167255
0.166108
0.165024
0.164001
0.163034
0.162124
0.161276
0.185314
0.183147
0.181106
0.179178
0.177354
0.175629
0.173994
0.172445
0.170976
0.169583
0.168264
0.167013
0.165828
0.164707
0.163646
0.162643
0.161697
0.160815
0.18531
0.18313
0.181062
0.179092
0.177211
0.175414
0.1737
0.172066
0.170512
0.169035
0.167634
0.166309
0.165055
0.163871
0.162754
0.1617
0.160708
0.159785
0.185287
0.183045
0.18088
0.178786
0.176762
0.174814
0.172951
0.171181
0.169508
0.167934
0.166457
0.165077
0.163787
0.162585
0.161463
0.160418
0.159442
0.15854
0.185187
0.182761
0.180348
0.17796
0.175649
0.173471
0.171456
0.169618
0.167959
0.166474
0.165152
0.16398
0.16294
0.162018
0.161197
0.160463
0.159803
0.159211
0.184847
0.182107
0.179187
0.176294
0.173713
0.171578
0.169921
0.168733
0.167985
0.167637
0.167638
0.167933
0.168466
0.169182
0.170032
0.170968
0.171953
0.172952
0.182915
0.177378
0.17274
0.170028
0.169441
0.170865
0.174091
0.178856
0.184866
0.191823
0.199443
0.207465
0.215658
0.223822
0.231796
0.239453
0.246712
0.253465
0.168319
0.151178
0.136993
0.125273
0.115678
0.107934
0.101814
0.09712
0.0936696
0.0912933
0.0898328
0.0891405
0.0890803
0.0895284
0.0903735
0.0915178
0.0928774
0.0943761
0.0799765
0.113137
0.138045
0.158441
0.175706
0.192225
0.204557
0.210202
0.213786
0.216248
0.218632
0.221263
0.224384
0.228204
0.232901
0.238637
0.245547
0.253821
0.262914
0.270989
0.277262
0.280717
0.279964
0.273082
0.257401
0.229283
0.185201
0.128859
0.0824821
0.0711297
0.0709753
0.0781921
0.089974
0.103504
0.119935
0.139317
0.155636
0.157474
0.149209
0.135716
0.122334
0.113536
0.109512
0.109888
0.11256
0.116759
0.128213
0.163579
0.251896
0.349141
0.429924
0.498184
0.553985
0.598171
0.631929
0.656541
0.673261
0.683259
0.687592
0.687203
0.682921
0.675467
0.665461
0.65343
0.639823
0.625007
0.609864
0.59458
0.579183
0.563706
0.548173
0.5326
0.516993
0.501348
0.485645
0.469854
0.453931
0.437818
0.421446
0.404738
0.387617
0.370012
0.351876
0.333192
0.31399
0.294351
0.274415
0.254369
0.234436
0.214869
0.195946
0.178026
0.161719
0.148372
0.141275
0.137569
0.13458
0.132067
0.129984
0.128312
0.127034
0.126129
0.125574
0.12534
0.125397
0.125711
0.126245
0.126959
0.127812
0.128758
0.129744
0.130718
0.131605
0.132175
0.131982
0.130708
0.128116
0.12411
0.118792
0.11251
0.105817
0.099362
0.0937273
0.0892897
0.0861668
0.0842232
0.0817002
0.0809301
0.0809914
0.0818369
0.0839174
0.0853421
0.0869894
0.089237
0.0923025
0.0962513
0.100894
0.105987
0.111649
0.118902
0.134851
0.181207
0.251431
0.308522
0.353032
0.386146
0.409776
0.425922
0.436609
0.444056
0.448301
0.448928
0.446326
0.440634
0.43181
0.41968
0.403989
0.38463
0.362464
0.347018
0.351088
0.355404
0.358632
0.361248
0.363745
0.366529
0.369686
0.371791
0.36831
0.354081
0.323853
0.279342
0.232333
0.198374
0.181148
0.168147
0.148476
0.123798
0.107613
0.100752
0.0602338
0.0857402
0.105044
0.132211
0.214981
0.264773
0.280418
0.280837
0.275515
0.267022
0.256371
0.244529
0.232419
0.220756
0.209984
0.200366
0.192037
0.185144
0.18038
0.178383
0.179211
0.182926
0.189421
0.198368
0.209118
0.22052
0.231311
0.240787
0.242858
0.225102
0.187152
0.147938
0.126465
0.128614
0.155837
0.196716
0.232612
0.246295
0.234795
0.211259
0.196008
0.212015
0.268966
0.359344
0.437795
0.452902
0.44344
0.436978
0.436731
0.435774
0.431936
0.426331
0.419949
0.413629
0.40798
0.403404
0.400136
0.398284
0.39787
0.398865
0.401211
0.404844
0.409713
0.415781
0.423009
0.431326
0.440037
0.448927
0.457953
0.467082
0.476277
0.485493
0.494674
0.50374
0.512585
0.521061
0.528976
0.536079
0.542062
0.546562
0.549169
0.549456
0.547011
0.541489
0.532657
0.520443
0.504952
0.486478
0.465466
0.442468
0.418083
0.392907
0.367443
0.342052
0.319235
0.299257
0.280716
0.263498
0.247561
0.232851
0.219304
0.206845
0.195397
0.18488
0.175214
0.166325
0.15814
0.150591
0.143617
0.13716
0.131165
0.125585
0.120374
0.115453
0.110778
0.10637
0.102416
0.0989922
0.096218
0.0942571
0.0932925
0.0934844
0.0949089
0.0974979
0.101009
0.105048
0.109028
0.11252
0.114817
0.115553
0.114019
0.110561
0.10598
0.101702
0.0996268
0.101924
0.111411
0.134803
0.18168
0.249739
0.311225
0.350006
0.391878
0.438729
0.4881
0.536608
0.581757
0.622471
0.658791
0.691439
0.720976
0.748367
0.773646
0.796362
0.815549
0.829709
0.836827
0.834576
0.820458
0.795539
0.764051
0.725897
0.683463
0.639137
0.594834
0.551709
0.510552
0.472522
0.437485
0.404954
0.386109
0.392706
0.434927
0.511581
0.595442
0.633027
0.584648
0.468383
0.340207
0.240866
0.0451576
0.0658351
0.106304
0.226527
0.311561
0.313595
0.285139
0.254849
0.230267
0.211311
0.196508
0.184637
0.174886
0.166734
0.15983
0.153919
0.14881
0.14436
0.140518
0.138026
0.137058
0.137832
0.140626
0.145689
0.153157
0.163069
0.175567
0.190905
0.206915
0.216168
0.210592
0.19086
0.167968
0.156182
0.173786
0.221553
0.274966
0.309951
0.31799
0.334689
0.392285
0.467951
0.503094
0.488819
0.457967
0.425105
0.398772
0.38093
0.369565
0.362058
0.357483
0.355624
0.356228
0.358918
0.363205
0.36858
0.374613
0.381021
0.387672
0.394549
0.401689
0.409131
0.416889
0.424938
0.433217
0.441704
0.450394
0.459279
0.468365
0.477677
0.487248
0.497117
0.507311
0.517838
0.528672
0.539732
0.55087
0.56185
0.572337
0.58189
0.589968
0.595957
0.599217
0.59914
0.595236
0.5872
0.574966
0.558733
0.538929
0.516161
0.491121
0.464524
0.43699
0.409013
0.383741
0.360674
0.339034
0.318782
0.29991
0.282384
0.266154
0.25115
0.237299
0.22452
0.212733
0.20186
0.191826
0.18256
0.173996
0.166074
0.158736
0.151926
0.145592
0.139666
0.134062
0.128674
0.123358
0.118232
0.113393
0.108923
0.10492
0.101477
0.0986556
0.0964742
0.0949028
0.0938717
0.0932884
0.0930288
0.092952
0.0929008
0.092741
0.0924581
0.0924012
0.0937297
0.0989631
0.112539
0.142019
0.197228
0.278745
0.355163
0.401174
0.447134
0.514667
0.589744
0.658227
0.714317
0.759314
0.7967
0.829105
0.857547
0.882851
0.905901
0.926838
0.945393
0.960653
0.97098
0.973993
0.966769
0.946632
0.916401
0.877053
0.830517
0.77965
0.72721
0.675449
0.626005
0.580169
0.538962
0.50127
0.464838
0.429808
0.4037
0.396035
0.414704
0.461332
0.526571
0.583404
0.593247
0.539195
0.436351
0.0451163
0.113
0.299299
0.37172
0.341243
0.289497
0.246251
0.215646
0.194649
0.17988
0.169035
0.160707
0.154051
0.148553
0.143892
0.139866
0.136336
0.133209
0.130421
0.128063
0.126204
0.124997
0.124733
0.125816
0.128656
0.13355
0.140816
0.151031
0.164202
0.177838
0.187049
0.188927
0.188602
0.199895
0.238024
0.311576
0.398348
0.470314
0.530844
0.535496
0.513399
0.487544
0.450734
0.410845
0.377582
0.353839
0.33941
0.332538
0.331068
0.333285
0.338119
0.34472
0.352289
0.360106
0.367641
0.374631
0.381065
0.387097
0.392922
0.398699
0.404508
0.410358
0.416208
0.421999
0.427681
0.433133
0.438347
0.44337
0.448291
0.453246
0.458404
0.463967
0.470144
0.477135
0.485107
0.494167
0.504332
0.515501
0.527428
0.539701
0.551738
0.562798
0.572028
0.578537
0.581501
0.580271
0.574471
0.564053
0.549296
0.530733
0.509054
0.485005
0.459284
0.432906
0.408908
0.386186
0.364587
0.344177
0.324998
0.307054
0.290319
0.274751
0.260291
0.246878
0.234446
0.222928
0.212261
0.202383
0.193235
0.184762
0.176912
0.169637
0.16289
0.156619
0.150767
0.145263
0.14002
0.134929
0.130027
0.125361
0.120974
0.116914
0.113214
0.109884
0.10691
0.10425
0.10185
0.0996596
0.0976543
0.095877
0.0944864
0.0938508
0.0947904
0.0991317
0.110559
0.135466
0.182806
0.257937
0.343673
0.406496
0.455041
0.525589
0.614735
0.699695
0.768828
0.822004
0.863313
0.896083
0.921899
0.941405
0.956625
0.968769
0.97844
0.985855
0.990526
0.991143
0.985366
0.970108
0.945255
0.911213
0.86906
0.820994
0.769782
0.718065
0.667994
0.621172
0.578744
0.541407
0.509123
0.480374
0.45205
0.423426
0.399106
0.385237
0.389043
0.417129
0.46868
0.527086
0.563883
0.547888
0.0970139
0.316503
0.385702
0.333674
0.274626
0.232671
0.205638
0.187814
0.175217
0.165665
0.158003
0.151602
0.14612
0.141371
0.137238
0.133633
0.130493
0.127777
0.125459
0.12345
0.121667
0.120134
0.118945
0.118315
0.118619
0.120318
0.123842
0.129767
0.138969
0.151886
0.167663
0.186371
0.21562
0.27103
0.35721
0.476275
0.626138
0.665356
0.570393
0.498572
0.444857
0.401706
0.36626
0.339866
0.323316
0.315469
0.314435
0.318226
0.325148
0.33391
0.343535
0.353235
0.362448
0.370899
0.378578
0.385637
0.39226
0.398584
0.404667
0.410496
0.416012
0.421135
0.425772
0.429838
0.433223
0.435604
0.436935
0.437244
0.436647
0.435355
0.433678
0.432012
0.430814
0.430575
0.431773
0.434828
0.440058
0.447628
0.457506
0.469432
0.482885
0.497088
0.511032
0.523553
0.533454
0.539652
0.541337
0.538088
0.529907
0.517177
0.500532
0.48072
0.45846
0.436036
0.414632
0.393794
0.373681
0.354444
0.336174
0.318915
0.302677
0.287445
0.27319
0.259871
0.247444
0.235863
0.22508
0.215047
0.205719
0.197051
0.189003
0.181533
0.174599
0.168159
0.162171
0.156581
0.151335
0.146363
0.141583
0.137011
0.132657
0.128535
0.124661
0.121046
0.11768
0.114542
0.111593
0.108803
0.106171
0.103787
0.101922
0.101194
0.102888
0.109565
0.125997
0.159848
0.219086
0.300151
0.376153
0.430865
0.494513
0.584999
0.68413
0.770002
0.836233
0.88571
0.922377
0.948472
0.965105
0.973212
0.975656
0.974037
0.969494
0.962823
0.953986
0.942389
0.925624
0.902957
0.873221
0.836499
0.793909
0.747484
0.699641
0.652638
0.608274
0.567829
0.532131
0.501614
0.476278
0.455312
0.436682
0.417472
0.396758
0.377732
0.365435
0.366514
0.388
0.431864
0.488951
0.532791
0.184225
0.384354
0.327151
0.264571
0.226845
0.204843
0.189993
0.178271
0.168258
0.159516
0.151865
0.145194
0.139428
0.134484
0.13026
0.126648
0.123568
0.120985
0.118891
0.117255
0.116019
0.115092
0.114381
0.113831
0.11351
0.11374
0.115136
0.118565
0.125465
0.138217
0.160142
0.197907
0.266773
0.382545
0.540436
0.713934
0.715976
0.583585
0.478128
0.409703
0.364252
0.33368
0.314198
0.304064
0.301639
0.305017
0.312378
0.322186
0.333234
0.344622
0.35574
0.366261
0.376102
0.385343
0.394121
0.402558
0.41073
0.418662
0.426335
0.433695
0.440647
0.447058
0.452751
0.457525
0.460888
0.462415
0.461878
0.459155
0.454253
0.447341
0.438768
0.429065
0.418927
0.409177
0.400697
0.394354
0.390914
0.390955
0.394803
0.402477
0.413651
0.42764
0.443404
0.459608
0.474733
0.487256
0.495855
0.499624
0.49816
0.491584
0.480395
0.465319
0.44745
0.429351
0.410983
0.392633
0.374601
0.3571
0.340268
0.324185
0.308893
0.294409
0.280728
0.267837
0.255713
0.24433
0.23366
0.223672
0.214335
0.20562
0.197494
0.189927
0.182886
0.176337
0.170244
0.164566
0.159258
0.15427
0.149548
0.145039
0.140754
0.136683
0.132825
0.129178
0.125735
0.122479
0.11939
0.116453
0.113689
0.111209
0.109343
0.108874
0.111449
0.120226
0.140768
0.181046
0.24611
0.32474
0.390675
0.44463
0.520144
0.623951
0.726656
0.810237
0.87268
0.917657
0.948395
0.966465
0.972934
0.969233
0.958858
0.943638
0.925143
0.904918
0.882869
0.859665
0.834042
0.804711
0.770867
0.73262
0.691016
0.647776
0.604837
0.563951
0.526455
0.493224
0.464744
0.441185
0.422436
0.407948
0.396501
0.386447
0.374893
0.361985
0.349842
0.342474
0.345771
0.366091
0.406372
0.458256
0.300426
0.338601
0.268315
0.232186
0.213836
0.199979
0.186711
0.174082
0.162801
0.153075
0.144798
0.137842
0.132067
0.127274
0.123251
0.119832
0.116916
0.114462
0.11248
0.111091
0.110354
0.110131
0.110237
0.110448
0.110524
0.110407
0.110659
0.112661
0.118813
0.13369
0.165768
0.230603
0.345416
0.499287
0.673422
0.716383
0.59047
0.467739
0.387759
0.339816
0.311836
0.296944
0.291368
0.29274
0.299139
0.308894
0.320635
0.333304
0.346165
0.358779
0.370965
0.382707
0.39408
0.405181
0.416094
0.426887
0.437605
0.448272
0.458872
0.469339
0.479533
0.489237
0.498155
0.505942
0.511557
0.514509
0.51438
0.510843
0.503711
0.492988
0.478912
0.461996
0.443039
0.423115
0.403507
0.385606
0.370759
0.360115
0.354493
0.354297
0.359484
0.369563
0.383595
0.400228
0.417773
0.434367
0.448199
0.457827
0.462339
0.461481
0.455501
0.445074
0.432216
0.417959
0.402769
0.387141
0.371443
0.355932
0.340784
0.326113
0.311991
0.298459
0.285541
0.273244
0.261571
0.250514
0.240065
0.230211
0.220936
0.212225
0.204059
0.196418
0.189278
0.182615
0.176402
0.170604
0.165189
0.160117
0.155347
0.150834
0.146557
0.142508
0.138673
0.135044
0.131609
0.128358
0.12528
0.122377
0.119687
0.117342
0.115711
0.1157
0.119228
0.129882
0.153619
0.197826
0.264188
0.337433
0.396886
0.453425
0.536014
0.641811
0.743291
0.825034
0.884706
0.924992
0.949522
0.959757
0.956817
0.942685
0.921321
0.894619
0.864049
0.832633
0.800733
0.768728
0.736003
0.701692
0.665299
0.627017
0.587704
0.548643
0.511217
0.476634
0.445771
0.419135
0.396923
0.379094
0.365444
0.35556
0.348713
0.343946
0.339746
0.334441
0.328241
0.322489
0.320323
0.326927
0.347717
0.384356
0.376315
0.294982
0.247788
0.230991
0.216873
0.200007
0.182917
0.16805
0.155862
0.14593
0.137878
0.131444
0.126307
0.122104
0.11856
0.115514
0.112882
0.110607
0.108714
0.107468
0.106974
0.107115
0.1077
0.108427
0.108883
0.108813
0.108812
0.110821
0.118577
0.13981
0.18981
0.288777
0.429721
0.588279
0.664936
0.583821
0.463283
0.376091
0.324677
0.297196
0.284692
0.281947
0.28586
0.29436
0.305871
0.319166
0.33334
0.347808
0.362257
0.376586
0.39081
0.404993
0.419197
0.433472
0.44786
0.4624
0.477124
0.492038
0.507084
0.52212
0.536893
0.55104
0.564091
0.575496
0.583987
0.589158
0.590465
0.587406
0.579588
0.566776
0.548962
0.526438
0.499866
0.470342
0.4394
0.408932
0.380993
0.357508
0.339972
0.329274
0.32567
0.328851
0.338012
0.351891
0.36881
0.386766
0.403575
0.417308
0.426501
0.430438
0.429024
0.423346
0.414802
0.404181
0.392178
0.379339
0.366072
0.352667
0.339329
0.326201
0.313377
0.300923
0.288884
0.277291
0.266165
0.25552
0.245364
0.235704
0.226538
0.217865
0.20968
0.201973
0.194732
0.187943
0.181585
0.175638
0.170073
0.164862
0.159975
0.155378
0.151041
0.146955
0.143101
0.139469
0.136044
0.13282
0.129794
0.126981
0.124436
0.12231
0.121013
0.121546
0.126009
0.13823
0.164183
0.210202
0.275206
0.342906
0.398553
0.456954
0.541046
0.643883
0.741283
0.819346
0.875572
0.91222
0.931718
0.935561
0.925022
0.902878
0.873116
0.837992
0.799601
0.760199
0.721037
0.682744
0.645223
0.608088
0.571136
0.53454
0.498815
0.464699
0.432988
0.404386
0.379394
0.358259
0.340992
0.327429
0.317299
0.31025
0.305816
0.30348
0.302878
0.30238
0.301437
0.300054
0.298977
0.300868
0.310098
0.330756
0.461894
0.291034
0.255681
0.240817
0.22014
0.197143
0.177214
0.161698
0.149771
0.140472
0.133303
0.127862
0.123611
0.120063
0.116943
0.11416
0.111731
0.109642
0.10789
0.10671
0.106171
0.106226
0.106743
0.107513
0.1083
0.109072
0.11065
0.115352
0.128901
0.165098
0.239932
0.357828
0.490828
0.581073
0.552751
0.45655
0.369994
0.315555
0.28703
0.275239
0.273946
0.279433
0.2894
0.302285
0.31696
0.332639
0.348842
0.365342
0.382082
0.399088
0.416388
0.433986
0.451863
0.470011
0.48845
0.507219
0.526348
0.545806
0.565463
0.585061
0.604212
0.622401
0.639013
0.653194
0.664055
0.671226
0.674133
0.672212
0.664956
0.651948
0.632906
0.60775
0.576701
0.54043
0.500237
0.458175
0.416964
0.379588
0.348642
0.325797
0.31169
0.306103
0.308257
0.316956
0.330631
0.347368
0.364809
0.380624
0.392906
0.400417
0.402885
0.401272
0.396468
0.389253
0.380316
0.370213
0.359371
0.348099
0.336623
0.325102
0.31365
0.302353
0.291274
0.280462
0.269959
0.259795
0.249998
0.240587
0.231579
0.222985
0.214812
0.207062
0.199735
0.192824
0.18632
0.180209
0.174474
0.169095
0.16405
0.159314
0.154863
0.150686
0.146766
0.143089
0.139646
0.13643
0.133448
0.130725
0.128327
0.126428
0.125475
0.126536
0.131807
0.145181
0.172392
0.218634
0.280983
0.343784
0.396684
0.454779
0.536017
0.632769
0.724399
0.798182
0.85106
0.884315
0.899764
0.898958
0.883424
0.856319
0.821294
0.780822
0.737185
0.692606
0.648757
0.606666
0.566749
0.529079
0.49363
0.46037
0.42932
0.400609
0.374489
0.351273
0.331225
0.314471
0.300958
0.290479
0.282731
0.277366
0.274015
0.272354
0.272518
0.273711
0.275302
0.276913
0.278311
0.280047
0.284403
0.295013
0.493756
0.291304
0.269285
0.249309
0.220982
0.193908
0.172802
0.157472
0.146219
0.137834
0.131747
0.127358
0.123875
0.120695
0.117587
0.11463
0.112111
0.110204
0.108792
0.107755
0.107119
0.107036
0.107664
0.109135
0.111555
0.115113
0.120698
0.131834
0.157325
0.210329
0.297151
0.404572
0.490516
0.500105
0.439617
0.364778
0.310118
0.279947
0.267594
0.266616
0.272819
0.283666
0.297545
0.31337
0.330423
0.348281
0.36676
0.385815
0.405442
0.425602
0.446212
0.467178
0.488448
0.510045
0.532043
0.554515
0.577467
0.600787
0.624213
0.647336
0.669623
0.690451
0.709152
0.72449
0.736388
0.744393
0.747987
0.746663
0.739951
0.727439
0.708787
0.683724
0.652067
0.613811
0.569395
0.520146
0.468676
0.418803
0.374627
0.339194
0.313948
0.298837
0.292971
0.295115
0.303754
0.317231
0.333275
0.349204
0.363007
0.372586
0.378087
0.379759
0.378179
0.374015
0.367906
0.360387
0.351878
0.342694
0.333065
0.323159
0.313105
0.303
0.292924
0.282943
0.273113
0.263483
0.254096
0.244985
0.236183
0.227712
0.219592
0.211836
0.204453
0.197446
0.190815
0.184554
0.178655
0.173106
0.167891
0.162996
0.158402
0.1541
0.150077
0.146322
0.142827
0.139591
0.136626
0.133966
0.13169
0.129989
0.129337
0.130836
0.136699
0.150748
0.178339
0.223674
0.282831
0.341399
0.391705
0.447379
0.522793
0.611467
0.696212
0.765288
0.814895
0.845334
0.857975
0.854362
0.836082
0.806312
0.768379
0.724863
0.678186
0.630721
0.584481
0.540927
0.500957
0.46497
0.432898
0.404296
0.378578
0.355288
0.334257
0.315576
0.299446
0.286014
0.275272
0.267042
0.261014
0.256811
0.254042
0.252392
0.251917
0.252804
0.254583
0.256957
0.259553
0.262085
0.265025
0.27056
0.488075
0.298494
0.284977
0.25764
0.223299
0.193311
0.171347
0.156108
0.14541
0.137878
0.132766
0.129224
0.126233
0.123112
0.119708
0.116309
0.113448
0.111558
0.110719
0.110433
0.110535
0.111362
0.113269
0.116482
0.1211
0.127589
0.138243
0.158678
0.196957
0.258739
0.338706
0.411537
0.438538
0.410439
0.355662
0.306151
0.275216
0.261591
0.259993
0.26611
0.277201
0.291578
0.308156
0.326242
0.345438
0.365565
0.38656
0.408363
0.43085
0.453844
0.477184
0.500799
0.524732
0.549107
0.57405
0.599605
0.625667
0.651956
0.678022
0.703283
0.727067
0.748665
0.767396
0.782299
0.793517
0.800745
0.803588
0.801625
0.794456
0.781748
0.763267
0.738853
0.708327
0.671386
0.627636
0.577118
0.521213
0.463452
0.40907
0.362679
0.327111
0.302875
0.289022
0.284283
0.287064
0.295997
0.309243
0.323574
0.337002
0.347904
0.355493
0.359644
0.360679
0.359121
0.355516
0.350351
0.344017
0.336811
0.328957
0.320625
0.311947
0.303029
0.293963
0.284828
0.275695
0.266627
0.257681
0.248907
0.240348
0.232039
0.22401
0.216287
0.208885
0.201819
0.195094
0.188713
0.182676
0.176976
0.171606
0.166557
0.161818
0.157383
0.153243
0.14939
0.145821
0.142541
0.139566
0.136939
0.134749
0.133199
0.132778
0.134582
0.140774
0.155008
0.182216
0.225856
0.281663
0.336558
0.384152
0.435838
0.503569
0.582872
0.659866
0.723791
0.770151
0.798338
0.809248
0.804266
0.78485
0.754013
0.714849
0.670013
0.622103
0.573713
0.527191
0.484416
0.446651
0.414374
0.387198
0.364081
0.343805
0.325451
0.308624
0.293397
0.28008
0.268972
0.260194
0.253637
0.248991
0.24582
0.243647
0.242059
0.240926
0.240655
0.24128
0.242763
0.2449
0.247349
0.249812
0.253003
0.460098
0.313101
0.302246
0.268173
0.229004
0.196453
0.173273
0.157581
0.147019
0.140014
0.135529
0.132531
0.12996
0.127115
0.123875
0.120585
0.117821
0.116115
0.11575
0.116235
0.117436
0.119532
0.122788
0.127536
0.134464
0.145259
0.163187
0.19268
0.237136
0.294301
0.349888
0.380373
0.373525
0.34008
0.301041
0.272001
0.257332
0.254544
0.259891
0.270589
0.284882
0.301673
0.320276
0.340302
0.361569
0.383986
0.407432
0.431695
0.456506
0.481631
0.506971
0.532585
0.558645
0.585337
0.612756
0.640825
0.669256
0.697547
0.725035
0.750957
0.774514
0.794939
0.811598
0.824087
0.832764
0.837545
0.838213
0.834451
0.825887
0.812186
0.793154
0.76879
0.739185
0.704279
0.66343
0.615682
0.560793
0.500852
0.441515
0.388126
0.344899
0.313271
0.292422
0.281363
0.278383
0.282242
0.291264
0.30319
0.315693
0.326887
0.335623
0.341465
0.344493
0.345058
0.343592
0.340505
0.336138
0.330756
0.324564
0.317721
0.310358
0.302585
0.294502
0.286199
0.277758
0.269256
0.260763
0.252341
0.244046
0.235925
0.228018
0.220358
0.212973
0.205882
0.199099
0.192634
0.186491
0.180673
0.175176
0.169997
0.165131
0.160574
0.156321
0.15237
0.148721
0.145385
0.142383
0.139764
0.137624
0.136176
0.135903
0.137866
0.144117
0.158081
0.184271
0.225669
0.278142
0.329842
0.374656
0.421457
0.480528
0.549671
0.618174
0.676389
0.719317
0.745522
0.755352
0.749888
0.730374
0.699598
0.660462
0.615711
0.568156
0.520663
0.475917
0.436127
0.402686
0.375821
0.354552
0.337147
0.32185
0.307485
0.293668
0.280669
0.269065
0.2594
0.251964
0.246714
0.243317
0.241243
0.239887
0.238702
0.237364
0.236066
0.235201
0.235007
0.23558
0.23681
0.238378
0.24021
0.422125
0.334154
0.322176
0.282435
0.238891
0.203484
0.178389
0.161518
0.15044
0.143382
0.139092
0.136494
0.13458
0.132616
0.130331
0.127894
0.125754
0.124425
0.124343
0.125226
0.127186
0.130388
0.135214
0.142361
0.153018
0.169003
0.192562
0.225269
0.26547
0.30522
0.331671
0.335727
0.319207
0.292923
0.269041
0.254708
0.250772
0.25494
0.264726
0.278384
0.294815
0.313344
0.333598
0.355402
0.378654
0.403196
0.428742
0.454923
0.481406
0.508017
0.534791
0.561921
0.589656
0.618174
0.647481
0.677344
0.70727
0.73653
0.764222
0.789377
0.811057
0.828502
0.841196
0.849521
0.854033
0.854923
0.852209
0.845726
0.835141
0.820049
0.800146
0.775413
0.746107
0.712711
0.674871
0.631253
0.580468
0.522456
0.463428
0.4081
0.361235
0.325103
0.299381
0.282817
0.274421
0.273403
0.278482
0.287666
0.298656
0.309422
0.318581
0.325458
0.329918
0.332147
0.332452
0.331152
0.328522
0.324781
0.320106
0.314638
0.3085
0.301802
0.294648
0.287136
0.279359
0.271405
0.263356
0.255285
0.247259
0.239337
0.231568
0.223994
0.216649
0.209562
0.202752
0.196235
0.190022
0.184118
0.178527
0.173248
0.168282
0.163626
0.159279
0.155244
0.151523
0.148132
0.145097
0.142471
0.140357
0.138965
0.138763
0.140743
0.14681
0.160114
0.18478
0.223537
0.272745
0.321668
0.36384
0.405528
0.455706
0.514331
0.573711
0.625532
0.664577
0.688706
0.697669
0.692141
0.673133
0.643209
0.605116
0.561713
0.516055
0.4713
0.430414
0.395737
0.368452
0.348188
0.333189
0.321068
0.309743
0.29805
0.285877
0.273881
0.263021
0.25413
0.247646
0.243539
0.241383
0.240514
0.240189
0.239734
0.23868
0.236918
0.234883
0.232975
0.231566
0.230867
0.230838
0.231285
0.385044
0.357913
0.345322
0.300434
0.252821
0.214405
0.186906
0.168192
0.155857
0.148036
0.143368
0.140792
0.139415
0.138531
0.137711
0.136846
0.136099
0.135805
0.136328
0.137855
0.140743
0.145324
0.152107
0.161851
0.17555
0.194227
0.218269
0.246192
0.273598
0.294009
0.302039
0.296623
0.281918
0.265248
0.253231
0.248912
0.25191
0.260508
0.273136
0.288735
0.306658
0.326558
0.348287
0.371768
0.39685
0.423211
0.450392
0.477927
0.505499
0.533035
0.560688
0.588734
0.617441
0.646944
0.677146
0.707673
0.737858
0.766777
0.793338
0.816398
0.834922
0.848154
0.855732
0.858931
0.858459
0.854722
0.847966
0.838226
0.825264
0.808649
0.787936
0.762937
0.733715
0.701254
0.665777
0.62593
0.580206
0.528377
0.473074
0.419162
0.371736
0.333593
0.304839
0.284537
0.272117
0.267243
0.269017
0.275692
0.285059
0.295056
0.304185
0.311615
0.317058
0.320554
0.322294
0.322499
0.32137
0.319076
0.315754
0.311526
0.306502
0.300788
0.29449
0.28771
0.280552
0.273111
0.265481
0.257745
0.249981
0.242256
0.234629
0.227151
0.219862
0.212798
0.205984
0.199441
0.193185
0.187225
0.18157
0.176223
0.171186
0.166459
0.162043
0.157944
0.15417
0.150736
0.147673
0.145036
0.14293
0.14156
0.141362
0.143244
0.148929
0.161267
0.18402
0.21983
0.265806
0.312319
0.352229
0.389183
0.43088
0.479078
0.52889
0.573576
0.60806
0.629682
0.637617
0.632096
0.613894
0.585403
0.549267
0.508475
0.466326
0.426223
0.391251
0.363567
0.343753
0.330567
0.321439
0.313525
0.304712
0.294159
0.282261
0.27021
0.259398
0.250907
0.245234
0.242251
0.241358
0.241716
0.242463
0.242864
0.242393
0.240784
0.238165
0.235008
0.231818
0.22906
0.227034
0.225784
0.348163
0.382912
0.369978
0.32133
0.270726
0.229771
0.199795
0.178786
0.164511
0.155168
0.149392
0.146148
0.144638
0.144245
0.144521
0.145191
0.146164
0.147516
0.149453
0.152309
0.156533
0.162554
0.170861
0.181961
0.196206
0.213436
0.232537
0.251207
0.266344
0.275065
0.275935
0.269941
0.260561
0.252381
0.248875
0.251167
0.258604
0.270034
0.284518
0.301463
0.320557
0.34169
0.364836
0.389904
0.416606
0.444444
0.47282
0.501215
0.529332
0.55719
0.585013
0.613111
0.641739
0.670982
0.700675
0.730358
0.759271
0.786401
0.810556
0.83047
0.845
0.853262
0.855654
0.853794
0.848358
0.840008
0.829183
0.816068
0.80058
0.782368
0.760956
0.736071
0.707929
0.677145
0.643903
0.607371
0.566082
0.51932
0.468743
0.418536
0.373378
0.335916
0.30635
0.284128
0.269234
0.261808
0.261262
0.266034
0.274026
0.283218
0.2921
0.299782
0.30588
0.310329
0.313213
0.314664
0.31481
0.313763
0.311625
0.308489
0.304454
0.299619
0.294089
0.287971
0.281373
0.2744
0.267154
0.259728
0.252208
0.24467
0.237181
0.2298
0.222574
0.215543
0.20874
0.20219
0.195912
0.189921
0.184227
0.178837
0.173756
0.168984
0.164525
0.160387
0.156579
0.15312
0.150041
0.147399
0.145294
0.143923
0.143682
0.145379
0.150539
0.161693
0.182249
0.214856
0.257549
0.301916
0.340134
0.373228
0.407436
0.445799
0.485922
0.52283
0.551966
0.570421
0.576891
0.571195
0.553932
0.527388
0.494149
0.457321
0.420387
0.386846
0.359616
0.340278
0.328469
0.321955
0.317512
0.312158
0.304115
0.293153
0.280361
0.267529
0.256433
0.248285
0.24348
0.241656
0.241965
0.243392
0.245007
0.246104
0.246216
0.245061
0.242498
0.238829
0.234528
0.230153
0.226244
0.223181
0.311036
0.406215
0.393579
0.343496
0.291993
0.249872
0.218109
0.194928
0.178425
0.167029
0.159506
0.1549
0.15249
0.151739
0.152243
0.153706
0.155926
0.158797
0.162278
0.166601
0.172076
0.179009
0.187649
0.198076
0.210076
0.223013
0.235799
0.247016
0.25519
0.259232
0.259006
0.255792
0.252106
0.250664
0.253154
0.259852
0.270202
0.283522
0.299326
0.317364
0.337575
0.359984
0.384551
0.41111
0.439218
0.468235
0.497513
0.526521
0.554605
0.582055
0.609144