/*--------------------------------*- C++ -*----------------------------------*\
  =========                 |
  \\      /  F ield         | OpenFOAM: The Open Source CFD Toolbox
   \\    /   O peration     | Website:  https://openfoam.org
    \\  /    A nd           | Version:  9
     \\/     M anipulation  |
\*---------------------------------------------------------------------------*/
FoamFile
{
    format      ascii;
    class       volVectorField;
    location    "0.1";
    object      U;
}
// * * * * * * * * * * * * * * * * * * * * * * * * * * * * * * * * * * * * * //

dimensions      [0 1 -1 0 0 0 0];

internalField   nonuniform List<vector> 
12225
(
(9.79497 -0.230058 0)
(9.40154 -0.198303 0)
(9.001 -0.12605 0)
(8.60447 -0.0716119 0)
(8.23253 -0.0350888 0)
(7.89237 -0.0117605 0)
(7.58202 0.00307122 0)
(7.29794 0.0127507 0)
(7.03695 0.0193022 0)
(6.79556 0.0239857 0)
(6.56965 0.0276703 0)
(6.35468 0.0309987 0)
(6.14579 0.0345132 0)
(5.93766 0.0387488 0)
(5.72399 0.0443731 0)
(5.49691 0.0523278 0)
(5.24553 0.0646883 0)
(4.95425 0.0869552 0)
(10.0823 0.136821 0)
(10.2415 0.22415 0)
(10.3301 0.213472 0)
(10.3617 0.189267 0)
(10.359 0.168934 0)
(10.3312 0.152023 0)
(10.2822 0.138192 0)
(10.2155 0.127338 0)
(10.1351 0.119075 0)
(10.0439 0.113071 0)
(9.94385 0.109206 0)
(9.83586 0.107555 0)
(9.72003 0.108382 0)
(9.59565 0.112206 0)
(9.4609 0.119915 0)
(9.31282 0.133263 0)
(9.14584 0.155198 0)
(8.95656 0.194763 0)
(10.008 0.0390238 0)
(10.0522 0.0381839 0)
(10.1009 0.0268761 0)
(10.1423 0.0327296 0)
(10.1782 0.0455615 0)
(10.2097 0.0570023 0)
(10.2347 0.0660721 0)
(10.2522 0.0737003 0)
(10.2624 0.0805581 0)
(10.2656 0.08716 0)
(10.2624 0.094071 0)
(10.253 0.10193 0)
(10.2375 0.11148 0)
(10.216 0.123685 0)
(10.1886 0.139943 0)
(10.155 0.162557 0)
(10.1164 0.195383 0)
(10.0761 0.246245 0)
(10.0032 0.0224843 0)
(10.0252 0.0466836 0)
(10.0515 0.0607151 0)
(10.0703 0.0732141 0)
(10.0845 0.0826383 0)
(10.098 0.088187 0)
(10.1105 0.0916022 0)
(10.1207 0.0945255 0)
(10.1285 0.097713 0)
(10.1339 0.101548 0)
(10.137 0.106425 0)
(10.1379 0.112836 0)
(10.1367 0.121408 0)
(10.1337 0.133004 0)
(10.1296 0.148907 0)
(10.1258 0.171124 0)
(10.1248 0.202573 0)
(10.1351 0.247607 0)
(10.0027 0.0194971 0)
(10.0199 0.0487553 0)
(10.0401 0.0612313 0)
(10.053 0.0674496 0)
(10.0609 0.0726849 0)
(10.0678 0.0771106 0)
(10.0737 0.080968 0)
(10.0777 0.0849171 0)
(10.0795 0.0893675 0)
(10.0794 0.0945621 0)
(10.0774 0.100808 0)
(10.0737 0.108539 0)
(10.0685 0.118316 0)
(10.0622 0.130887 0)
(10.0556 0.147271 0)
(10.0504 0.168893 0)
(10.0492 0.197138 0)
(10.0588 0.233461 0)
(10.0021 0.0172404 0)
(10.0157 0.0436875 0)
(10.0325 0.0552475 0)
(10.0442 0.0616654 0)
(10.0514 0.0683885 0)
(10.057 0.0748214 0)
(10.0614 0.0803901 0)
(10.0637 0.0856151 0)
(10.0639 0.0910853 0)
(10.0621 0.0971779 0)
(10.0586 0.104244 0)
(10.0534 0.112712 0)
(10.047 0.123094 0)
(10.0397 0.136013 0)
(10.0325 0.152196 0)
(10.0269 0.172477 0)
(10.0252 0.197171 0)
(10.0321 0.226129 0)
(10.0016 0.0148361 0)
(10.0122 0.0384382 0)
(10.0264 0.0510764 0)
(10.0373 0.0590956 0)
(10.0444 0.0667769 0)
(10.0497 0.0738476 0)
(10.0535 0.0799298 0)
(10.0556 0.0856341 0)
(10.0556 0.0916363 0)
(10.0538 0.0983406 0)
(10.0503 0.106065 0)
(10.0455 0.115174 0)
(10.0396 0.126085 0)
(10.0332 0.139255 0)
(10.0271 0.155117 0)
(10.0228 0.173991 0)
(10.0222 0.195543 0)
(10.0284 0.218688 0)
(10.0012 0.01277 0)
(10.0095 0.034183 0)
(10.0214 0.0476423 0)
(10.0315 0.0566015 0)
(10.0383 0.0645636 0)
(10.0433 0.0719424 0)
(10.047 0.0786037 0)
(10.049 0.0850329 0)
(10.0493 0.0918141 0)
(10.0478 0.0993177 0)
(10.0449 0.10782 0)
(10.0408 0.117617 0)
(10.0359 0.129028 0)
(10.0307 0.142342 0)
(10.026 0.157737 0)
(10.023 0.175143 0)
(10.0232 0.193858 0)
(10.0285 0.212365 0)
(10.0009 0.0111034 0)
(10.0074 0.0305757 0)
(10.0174 0.0442492 0)
(10.0265 0.0538208 0)
(10.033 0.0621268 0)
(10.0377 0.0699691 0)
(10.0413 0.0773312 0)
(10.0434 0.0845373 0)
(10.044 0.0920766 0)
(10.043 0.100308 0)
(10.0407 0.109486 0)
(10.0374 0.119849 0)
(10.0335 0.131615 0)
(10.0294 0.144926 0)
(10.0259 0.159757 0)
(10.0239 0.17579 0)
(10.0242 0.192163 0)
(10.0281 0.207335 0)
(10.0007 0.00974521 0)
(10.0059 0.0274237 0)
(10.0141 0.0409542 0)
(10.0222 0.0510177 0)
(10.0284 0.0597486 0)
(10.033 0.0680569 0)
(10.0365 0.0760357 0)
(10.0387 0.0839258 0)
(10.0395 0.0921438 0)
(10.039 0.10103 0)
(10.0374 0.110813 0)
(10.035 0.121668 0)
(10.032 0.133717 0)
(10.0289 0.146983 0)
(10.0263 0.161302 0)
(10.0247 0.176231 0)
(10.0248 0.190913 0)
(10.027 0.203986 0)
(10.0005 0.00861756 0)
(10.0047 0.0246702 0)
(10.0115 0.0378609 0)
(10.0187 0.0482656 0)
(10.0245 0.0573816 0)
(10.029 0.0660903 0)
(10.0324 0.0745947 0)
(10.0347 0.0831015 0)
(10.0359 0.0919529 0)
(10.0359 0.101449 0)
(10.035 0.111782 0)
(10.0333 0.12307 0)
(10.0312 0.13536 0)
(10.0289 0.148592 0)
(10.027 0.16253 0)
(10.0256 0.176707 0)
(10.0252 0.190377 0)
(10.0256 0.202442 0)
(10.0004 0.00771634 0)
(10.0038 0.0224296 0)
(10.0097 0.0352066 0)
(10.016 0.0457885 0)
(10.0215 0.0552 0)
(10.0259 0.0642358 0)
(10.0293 0.0731702 0)
(10.0318 0.0821939 0)
(10.0333 0.0915828 0)
(10.0338 0.101591 0)
(10.0334 0.11238 0)
(10.0324 0.124027 0)
(10.031 0.13653 0)
(10.0294 0.149783 0)
(10.0279 0.163536 0)
(10.0267 0.177361 0)
(10.0257 0.190659 0)
(10.0249 0.202588 0)
(10.0004 0.00696632 0)
(10.0032 0.0204526 0)
(10.0082 0.0327169 0)
(10.0139 0.0433304 0)
(10.019 0.0529657 0)
(10.0233 0.0622861 0)
(10.0268 0.0715913 0)
(10.0295 0.0810644 0)
(10.0313 0.0909285 0)
(10.0323 0.101393 0)
(10.0326 0.11259 0)
(10.0323 0.124566 0)
(10.0316 0.137293 0)
(10.0306 0.150649 0)
(10.0295 0.164398 0)
(10.0283 0.178186 0)
(10.0269 0.191566 0)
(10.0251 0.203949 0)
(10.0003 0.00622382 0)
(10.0026 0.0184383 0)
(10.0069 0.0300583 0)
(10.0119 0.0405697 0)
(10.0168 0.0503606 0)
(10.021 0.0599365 0)
(10.0246 0.0695883 0)
(10.0276 0.0794919 0)
(10.0299 0.0898248 0)
(10.0314 0.10075 0)
(10.0324 0.112369 0)
(10.0329 0.124708 0)
(10.0329 0.137728 0)
(10.0326 0.151312 0)
(10.032 0.165274 0)
(10.031 0.179356 0)
(10.0295 0.193275 0)
(10.0272 0.206683 0)
(10.0002 0.00548417 0)
(10.0022 0.016383 0)
(10.0058 0.0272281 0)
(10.0103 0.0374702 0)
(10.0149 0.0472902 0)
(10.0191 0.0570399 0)
(10.0229 0.0669704 0)
(10.0263 0.0772423 0)
(10.0291 0.0879943 0)
(10.0314 0.0993472 0)
(10.0332 0.111376 0)
(10.0346 0.124098 0)
(10.0355 0.137478 0)
(10.036 0.151432 0)
(10.0361 0.16584 0)
(10.0356 0.180555 0)
(10.0345 0.195443 0)
(10.0323 0.210364 0)
(10.0002 0.00473603 0)
(10.0019 0.0142591 0)
(10.005 0.0241803 0)
(10.0091 0.0339469 0)
(10.0135 0.0436076 0)
(10.0179 0.053383 0)
(10.022 0.0634648 0)
(10.0259 0.0739869 0)
(10.0294 0.0850555 0)
(10.0326 0.0967579 0)
(10.0354 0.10915 0)
(10.0378 0.12225 0)
(10.0399 0.136043 0)
(10.0415 0.150488 0)
(10.0427 0.165534 0)
(10.0433 0.181133 0)
(10.0432 0.197257 0)
(10.0422 0.213919 0)
(10.0002 0.00394986 0)
(10.0017 0.0119845 0)
(10.0045 0.0207847 0)
(10.0084 0.0298141 0)
(10.0129 0.0390469 0)
(10.0175 0.0486042 0)
(10.0222 0.0586124 0)
(10.0268 0.0691701 0)
(10.0312 0.0803554 0)
(10.0355 0.0922311 0)
(10.0396 0.104841 0)
(10.0434 0.118209 0)
(10.0469 0.132342 0)
(10.0502 0.147239 0)
(10.0531 0.1629 0)
(10.0555 0.179337 0)
(10.0575 0.19657 0)
(10.0589 0.214699 0)
(10.0002 0.00306182 0)
(10.0016 0.00938315 0)
(10.0044 0.0167665 0)
(10.0084 0.0247096 0)
(10.0132 0.0331486 0)
(10.0184 0.0421316 0)
(10.0238 0.0517238 0)
(10.0294 0.0619845 0)
(10.0351 0.0729646 0)
(10.0408 0.0847056 0)
(10.0465 0.0972399 0)
(10.0522 0.110592 0)
(10.0577 0.124779 0)
(10.0632 0.139822 0)
(10.0685 0.155739 0)
(10.0737 0.172563 0)
(10.0787 0.190312 0)
(10.0835 0.209115 0)
(10.0002 0.00194707 0)
(10.0018 0.00609732 0)
(10.0049 0.0115474 0)
(10.0094 0.0178616 0)
(10.0148 0.0249525 0)
(10.0209 0.0328008 0)
(10.0275 0.0414083 0)
(10.0345 0.0507921 0)
(10.0418 0.0609732 0)
(10.0494 0.0719685 0)
(10.0572 0.08379 0)
(10.0652 0.0964475 0)
(10.0733 0.10995 0)
(10.0817 0.124307 0)
(10.0902 0.139526 0)
(10.0989 0.155626 0)
(10.1077 0.172592 0)
(10.1168 0.190541 0)
(10.0002 0.000749442 0)
(10.0021 0.00257309 0)
(10.0058 0.00587401 0)
(10.0112 0.0103215 0)
(10.0176 0.0157966 0)
(10.0248 0.0221997 0)
(10.0326 0.0294685 0)
(10.041 0.037579 0)
(10.0499 0.0465185 0)
(10.0593 0.0562736 0)
(10.069 0.066834 0)
(10.0791 0.0781917 0)
(10.0896 0.0903397 0)
(10.1004 0.103271 0)
(10.1116 0.116976 0)
(10.1232 0.131452 0)
(10.1351 0.146657 0)
(10.1475 0.162689 0)
(10.0003 -0.000409169 0)
(10.0026 -0.000794856 0)
(10.007 0.000509116 0)
(10.0132 0.00327939 0)
(10.0207 0.00730594 0)
(10.0288 0.0123703 0)
(10.0377 0.0183621 0)
(10.0473 0.0252441 0)
(10.0574 0.0329729 0)
(10.068 0.0414948 0)
(10.0792 0.0507641 0)
(10.0908 0.0607513 0)
(10.1029 0.0714344 0)
(10.1155 0.0827934 0)
(10.1286 0.0948094 0)
(10.1422 0.10747 0)
(10.1563 0.120726 0)
(10.171 0.134651 0)
(10.0003 -0.00166214 0)
(10.0032 -0.00437375 0)
(10.0086 -0.00502939 0)
(10.0159 -0.00375827 0)
(10.0243 -0.000988394 0)
(10.0334 0.00285901 0)
(10.0433 0.00762391 0)
(10.0538 0.0132857 0)
(10.065 0.0197962 0)
(10.0767 0.0270966 0)
(10.089 0.0351352 0)
(10.1017 0.043847 0)
(10.1151 0.0531859 0)
(10.129 0.0631194 0)
(10.1434 0.0736121 0)
(10.1584 0.0846368 0)
(10.174 0.0961412 0)
(10.1901 0.108182 0)
(10.0004 -0.00305142 0)
(10.004 -0.00823756 0)
(10.0107 -0.0107708 0)
(10.0193 -0.0108162 0)
(10.0287 -0.00912425 0)
(10.0386 -0.00627868 0)
(10.0493 -0.00249215 0)
(10.0607 0.00213106 0)
(10.0727 0.00748279 0)
(10.0854 0.013456 0)
(10.0986 0.0200611 0)
(10.1124 0.0272651 0)
(10.1267 0.0350005 0)
(10.1416 0.0432299 0)
(10.1571 0.051957 0)
(10.1732 0.0611457 0)
(10.1899 0.0707311 0)
(10.2072 0.0807561 0)
(10.0006 -0.00466107 0)
(10.0052 -0.012504 0)
(10.0135 -0.0165021 0)
(10.0236 -0.0175548 0)
(10.034 -0.0170664 0)
(10.0447 -0.0154078 0)
(10.056 -0.0124818 0)
(10.068 -0.00843278 0)
(10.0806 -0.00353314 0)
(10.0938 0.00200001 0)
(10.1076 0.00798125 0)
(10.122 0.0144263 0)
(10.137 0.0212978 0)
(10.1526 0.0284759 0)
(10.1688 0.0359689 0)
(10.1857 0.0438188 0)
(10.2031 0.0519488 0)
(10.2211 0.060369 0)
(10.0008 -0.00653898 0)
(10.0071 -0.0177331 0)
(10.0174 -0.0224138 0)
(10.0286 -0.0231435 0)
(10.0397 -0.0232854 0)
(10.0512 -0.0232411 0)
(10.0636 -0.0222681 0)
(10.0766 -0.0201483 0)
(10.0899 -0.0170972 0)
(10.1037 -0.0133019 0)
(10.118 -0.00895581 0)
(10.1329 -0.0041389 0)
(10.1483 0.00119338 0)
(10.1643 0.00706473 0)
(10.181 0.013259 0)
(10.1984 0.0197267 0)
(10.2163 0.0264876 0)
(10.2349 0.0335297 0)
(10.001 -0.00821314 0)
(10.0097 -0.024168 0)
(10.0231 -0.0308559 0)
(10.0355 -0.0304107 0)
(10.0463 -0.0280253 0)
(10.0577 -0.0254934 0)
(10.0705 -0.0227772 0)
(10.0841 -0.0198146 0)
(10.0982 -0.0166641 0)
(10.1127 -0.0133085 0)
(10.1277 -0.00963098 0)
(10.1434 -0.00566093 0)
(10.1598 -0.00139171 0)
(10.1767 0.00324382 0)
(10.1941 0.00813501 0)
(10.2121 0.0130939 0)
(10.2307 0.0181168 0)
(10.2497 0.0233481 0)
(10.0008 -0.00921597 0)
(10.0113 -0.0262809 0)
(10.0295 -0.0398615 0)
(10.0458 -0.0495629 0)
(10.059 -0.0548859 0)
(10.0722 -0.0561129 0)
(10.0866 -0.0546602 0)
(10.1019 -0.0518752 0)
(10.1175 -0.0484138 0)
(10.1336 -0.0444909 0)
(10.1502 -0.0401774 0)
(10.1674 -0.0355601 0)
(10.185 -0.0307745 0)
(10.2029 -0.0259451 0)
(10.2212 -0.021017 0)
(10.2398 -0.0160546 0)
(10.259 -0.0111284 0)
(10.2786 -0.00609936 0)
(10.0013 -0.018132 0)
(10.0178 -0.0097129 0)
(10.0436 0.006465 0)
(10.0704 0.00831775 0)
(10.0962 0.00207482 0)
(10.1216 -0.0043226 0)
(10.1462 -0.00900344 0)
(10.1693 -0.0123785 0)
(10.191 -0.0147095 0)
(10.2114 -0.0160411 0)
(10.2308 -0.0164636 0)
(10.2493 -0.0161375 0)
(10.267 -0.0152294 0)
(10.2842 -0.0138801 0)
(10.3008 -0.0121613 0)
(10.3171 -0.010124 0)
(10.3334 -0.00786154 0)
(10.3496 -0.00554214 0)
(10.0421 -0.0988225 0)
(10.1405 -0.174799 0)
(10.209 -0.171389 0)
(10.2506 -0.153672 0)
(10.2793 -0.138308 0)
(10.2993 -0.124504 0)
(10.3108 -0.111818 0)
(10.3147 -0.100582 0)
(10.3127 -0.0906902 0)
(10.3066 -0.0818085 0)
(10.2978 -0.0736898 0)
(10.2872 -0.0661993 0)
(10.2757 -0.0592597 0)
(10.2639 -0.0528083 0)
(10.2524 -0.0467766 0)
(10.2414 -0.041161 0)
(10.2313 -0.0359837 0)
(10.2229 -0.0317129 0)
(9.89361 0.175017 0)
(9.69445 0.156237 0)
(9.48132 0.105747 0)
(9.26289 0.0676658 0)
(9.05644 0.041313 0)
(8.86896 0.0239986 0)
(8.70035 0.0128935 0)
(8.54948 0.00571746 0)
(8.41564 0.0011048 0)
(8.29809 -0.00172016 0)
(8.19575 -0.00326542 0)
(8.10741 -0.00390132 0)
(8.03184 -0.00389996 0)
(7.96787 -0.00344986 0)
(7.91436 -0.00267924 0)
(7.87029 -0.00172164 0)
(7.83421 -0.000687909 0)
(7.8059 -1.33002e-05 0)
(-0.317086 0.558754 -5.16359e-20)
(-0.868318 0.454129 4.49455e-20)
(-1.41629 0.22925 0)
(-1.89625 -0.0534625 0)
(-2.12527 -0.368126 0)
(-1.88298 -0.679581 -3.82465e-20)
(-1.31763 -1.03636 0)
(-0.506384 -1.32594 0)
(0.467234 -1.47 0)
(1.55031 -1.47692 0)
(2.64935 -1.38634 1.75584e-20)
(3.69243 -1.24165 0)
(4.62475 -1.07111 0)
(5.41879 -0.890063 0)
(6.06766 -0.706522 0)
(6.57245 -0.52284 2.61509e-20)
(6.92775 -0.3381 0)
(7.14125 -0.144979 0)
(7.19068 0.0678748 0)
(7.04452 0.300873 0)
(6.71083 0.539863 0)
(6.1955 0.762369 0)
(5.50549 0.942494 0)
(4.66178 1.05035 3.37628e-20)
(3.70411 1.05442 -3.67844e-20)
(2.68729 0.922368 4.2076e-20)
(1.71619 0.6092 5.031e-20)
(0.945966 0.19965 0)
(0.402349 0.0273304 0)
(-0.0293263 0.104413 -7.69689e-20)
(-0.425248 0.131957 -7.37863e-20)
(-0.752201 0.0519884 0)
(-0.957638 -0.11396 0)
(-0.968166 -0.323812 -6.99585e-20)
(-0.769414 -0.560875 0)
(-0.33338 -0.786075 0)
(0.315995 -0.896263 5.83509e-20)
(1.05632 -0.793789 0)
(1.71387 -0.538094 4.51112e-20)
(2.12643 -0.225647 8.93053e-20)
(2.21457 0.0583158 0)
(2.11108 0.237661 0)
(2.00873 0.224464 0)
(1.97318 -0.0136618 0)
(1.95453 -0.328979 0)
(1.85096 -0.456744 9.33971e-20)
(1.53775 -0.255044 1.00636e-19)
(0.908454 0.14553 1.14959e-19)
(-0.00997109 0.516211 0)
(-1.09114 0.7586 -9.55234e-20)
(-2.24466 0.902872 0)
(-3.41797 0.966285 8.12601e-20)
(-4.56252 0.966282 8.01981e-20)
(-5.64225 0.92032 0)
(-6.63303 0.844067 0)
(-7.52095 0.75036 0)
(-8.29997 0.648903 8.80112e-20)
(-8.9696 0.546517 0)
(-9.53299 0.447661 0)
(-9.99529 0.355132 0)
(-10.3626 0.270623 0)
(-10.6415 0.195107 0)
(-10.8386 0.129456 0)
(-10.9599 0.0744895 0)
(-11.0128 0.0300896 0)
(-11.0051 -0.00481486 -9.67434e-20)
(-10.9549 -0.032904 0)
(-10.8639 -0.0575047 0)
(-10.7359 -0.0799008 9.11485e-20)
(-10.5733 -0.100686 8.83854e-20)
(-10.3779 -0.1202 0)
(-10.1511 -0.138681 -8.15893e-20)
(-9.89416 -0.156321 7.75734e-20)
(-9.60779 -0.173288 0)
(-9.29266 -0.189717 -6.83174e-20)
(-8.94921 -0.2057 0)
(-8.5778 -0.22127 0)
(-8.1788 -0.236384 5.12882e-20)
(-7.75275 -0.25091 0)
(-7.30056 -0.264618 -3.77306e-20)
(-6.82368 -0.277189 0)
(-6.32427 -0.288238 2.2379e-20)
(-5.80533 -0.297349 1.40619e-20)
(-5.27068 -0.304124 5.35592e-21)
(-4.72495 -0.308238 -7.39355e-21)
(-4.17334 -0.309485 2.60926e-20)
(-3.62141 -0.307795 0)
(-3.07481 -0.303231 0)
(-2.53898 -0.295954 0)
(-2.01891 -0.286143 1.04631e-19)
(-1.51897 -0.273923 1.24681e-19)
(-1.04246 -0.259443 -1.44719e-19)
(-0.591324 -0.242892 0)
(-0.166903 -0.223571 1.78745e-19)
(0.230594 -0.204095 1.78748e-19)
(0.602314 -0.185042 1.71601e-19)
(0.946536 -0.167128 0)
(1.26317 -0.150369 0)
(1.55343 -0.134745 0)
(1.81853 -0.120239 1.45943e-19)
(2.05978 -0.106811 0)
(2.27849 -0.094412 0)
(2.47602 -0.0829824 -1.30582e-19)
(2.65364 -0.072458 0)
(2.81261 -0.0627698 0)
(2.95408 -0.0538454 -1.18447e-19)
(3.07914 -0.0456234 0)
(3.18878 -0.0380625 0)
(3.28391 -0.0310358 1.0914e-19)
(3.36519 -0.0242319 1.06602e-19)
(3.43277 -0.0177734 0)
(3.48691 -0.0122183 -1.0232e-19)
(3.52912 -0.004349 0)
(3.55043 0.0120383 9.92572e-20)
(3.53649 0.0362284 0)
(3.48561 0.0638236 9.72709e-20)
(3.39909 0.0894388 9.6878e-20)
(3.28116 0.108734 0)
(3.13954 0.11773 0)
(2.98534 0.114293 0)
(2.83123 0.0993197 0)
(2.68882 0.0764151 0)
(2.56659 0.0503075 0)
(2.46896 0.0250819 0)
(2.39666 0.00307549 9.83492e-20)
(2.34577 -0.0096908 -9.8203e-20)
(2.31614 -0.0217669 0)
(2.29655 -0.0357025 0)
(2.2876 -0.0475171 0)
(2.28265 -0.0532645 0)
(2.28728 -0.0514341 -1.95411e-19)
(2.30037 -0.0509788 0)
(2.32609 -0.0487895 1.94143e-19)
(2.36958 -0.0448725 -1.93329e-19)
(2.4365 -0.039377 0)
(2.52728 -0.0315363 0)
(2.6237 -0.0221291 0)
(2.6795 -0.0155333 1.90998e-19)
(2.60859 0.00860667 1.8876e-19)
(2.25556 0.110362 0)
(1.40974 0.298972 1.70375e-19)
(0.0711055 0.464713 1.25907e-19)
(-1.37543 0.488842 -6.13851e-20)
(-2.67163 0.421536 0)
(-3.72949 0.32472 0)
(-4.53095 0.228952 6.40594e-20)
(-5.09427 0.14493 0)
(-5.44563 0.0749589 0)
(-5.61055 0.0179971 0)
(-5.61215 -0.0295425 0)
(-5.49558 -0.0679349 -8.63947e-20)
(-5.26468 -0.10398 -6.97854e-20)
(-4.9237 -0.139086 0)
(-4.4749 -0.173419 -1.81119e-20)
(-3.92145 -0.206521 0)
(-3.26957 -0.237342 0)
(-2.53054 -0.264088 1.01432e-19)
(-1.72122 -0.28414 0)
(-0.861557 -0.293961 2.01353e-19)
(0.0291292 -0.28984 0)
(0.929001 -0.274847 0)
(1.81084 -0.25502 2.30472e-19)
(2.6494 -0.231658 0)
(3.42636 -0.204983 2.03496e-19)
(4.12753 -0.175199 0)
(4.74057 -0.147298 0)
(5.26506 -0.128485 0)
(5.71705 -0.0891596 -1.45434e-19)
(5.98396 0.0273702 0)
(5.84449 0.191591 1.30708e-19)
(5.28308 0.32042 0)
(4.41162 0.33383 0)
(3.44901 0.230673 0)
(2.62881 0.0817542 0)
(2.07716 -0.0414015 0)
(1.78724 -0.0997259 0)
(1.67982 -0.0875966 0)
(1.63448 -0.0312931 -2.1663e-19)
(1.58274 0.0175974 0)
(1.41351 0.0468274 0)
(-0.0925247 1.49237 1.56783e-19)
(-0.221971 1.34747 -1.55493e-19)
(-0.380819 1.12665 0)
(-0.468089 0.833671 1.24878e-19)
(0.0957425 0.267641 0)
(0.731651 -0.943314 4.24445e-20)
(1.57065 -2.10312 -6.55703e-20)
(2.48698 -2.8983 -4.99601e-20)
(3.41339 -3.27308 0)
(4.29712 -3.30931 -3.86112e-20)
(5.09881 -3.11816 -1.14e-20)
(5.80548 -2.79826 0)
(6.41517 -2.41787 0)
(6.92948 -2.01626 0)
(7.35275 -1.61343 0)
(7.68911 -1.21711 -2.27053e-20)
(7.94766 -0.827183 0)
(8.12506 -0.437766 6.412e-20)
(8.24469 -0.0376373 0)
(8.32456 0.380325 0)
(8.34267 0.814842 -6.34184e-20)
(8.27253 1.25785 0)
(8.08396 1.69203 5.86707e-20)
(7.7439 2.08545 -2.27845e-20)
(7.22477 2.38977 2.27603e-20)
(6.50953 2.54444 -2.38383e-20)
(5.61157 2.48061 -2.63891e-20)
(4.58046 2.1822 0)
(3.4617 1.7354 0)
(2.38587 1.26246 4.38328e-20)
(1.55541 0.882958 -5.54647e-20)
(1.03088 0.615465 0)
(0.748269 0.333491 0)
(0.626518 -0.125926 7.09385e-20)
(0.736587 -0.76589 0)
(1.06141 -1.43914 0)
(1.4957 -1.82216 -4.17608e-20)
(1.91573 -1.68853 0)
(2.21515 -1.16871 4.42705e-20)
(2.33038 -0.531062 -8.45554e-20)
(2.32826 -0.0680647 0)
(2.22111 0.0530497 0)
(1.93985 -0.0204972 -1.83898e-19)
(1.30178 0.1476 -2.04474e-19)
(0.182188 0.711633 -1.98056e-19)
(-1.20005 1.32794 8.13355e-20)
(-2.64279 1.8479 -6.24422e-20)
(-4.07212 2.23267 -1.68491e-19)
(-5.41403 2.45467 1.07005e-19)
(-6.62271 2.5235 4.50676e-20)
(-7.67863 2.4689 0)
(-8.57194 2.32417 -4.73037e-20)
(-9.30436 2.12123 6.70213e-20)
(-9.88753 1.88746 0)
(-10.3394 1.64399 0)
(-10.6809 1.40545 0)
(-10.9327 1.18073 -7.17348e-20)
(-11.1138 0.974212 0)
(-11.24 0.787168 1.72002e-19)
(-11.3242 0.618959 0)
(-11.3762 0.468032 1.84523e-19)
(-11.4028 0.332602 0)
(-11.4089 0.211278 -1.9171e-19)
(-11.3977 0.103438 0)
(-11.3685 0.00849921 1.92568e-19)
(-11.3186 -0.074799 -9.69493e-20)
(-11.2338 -0.148598 0)
(-11.1159 -0.215619 -1.82721e-19)
(-10.9649 -0.277362 -8.73801e-20)
(-10.7818 -0.334774 -8.45635e-20)
(-10.568 -0.388541 0)
(-10.3243 -0.439231 -8.04882e-20)
(-10.0519 -0.487351 -7.37012e-20)
(-9.7513 -0.533356 0)
(-9.42303 -0.577629 6.45358e-20)
(-9.06735 -0.620437 -1.21683e-19)
(-8.68442 -0.661877 0)
(-8.27439 -0.701823 -4.79385e-20)
(-7.83759 -0.739881 0)
(-7.37469 -0.775374 1.08114e-19)
(-6.88699 -0.807353 0)
(-6.37653 -0.834673 -6.48562e-20)
(-5.84626 -0.856105 -1.28539e-20)
(-5.30009 -0.87049 7.90858e-21)
(-4.74276 -0.876908 -8.83516e-22)
(-4.17969 -0.874818 1.80127e-20)
(-3.61665 -0.864147 0)
(-3.05944 -0.845307 0)
(-2.51354 -0.81913 0)
(-1.98383 -0.786711 -2.74578e-19)
(-1.47442 -0.749168 -1.10489e-19)
(-0.988366 -0.707635 1.2802e-19)
(-0.526982 -0.663456 0)
(-0.0924644 -0.617338 1.53329e-19)
(0.313737 -0.569867 -1.5649e-19)
(0.693761 -0.523403 -1.52154e-19)
(1.04627 -0.478943 0)
(1.37181 -0.436674 0)
(1.67167 -0.396765 0)
(1.94715 -0.359318 -1.3398e-19)
(2.19959 -0.324353 0)
(2.43037 -0.291825 2.50011e-19)
(2.64085 -0.261648 3.64056e-19)
(2.83236 -0.2337 -2.35157e-19)
(3.00614 -0.207842 0)
(3.16338 -0.183916 -1.10692e-19)
(3.30518 -0.161759 0)
(3.43253 -0.141199 -2.10815e-19)
(3.54629 -0.122024 1.02664e-19)
(3.64725 -0.103908 1.00409e-19)
(3.73644 -0.0865663 0)
(3.81443 -0.069677 2.90292e-19)
(3.88039 -0.0510417 -1.9003e-19)
(3.94258 -0.0275892 -9.36572e-20)
(4.01364 -0.000605076 0)
(4.09138 0.0283035 -9.01567e-20)
(4.1699 0.0582553 -2.64241e-19)
(4.24235 0.0866985 0)
(4.30086 0.110269 -1.69367e-19)
(4.34 0.12608 -1.66752e-19)
(4.35765 0.132313 -1.64675e-19)
(4.35469 0.129023 0)
(4.3341 0.118175 0)
(4.29969 0.102906 0)
(4.25466 0.0865099 8.07956e-20)
(4.20187 0.0713496 8.06791e-20)
(4.13881 0.0602971 0)
(4.07059 0.0546321 1.62254e-19)
(3.99334 0.0516168 1.63144e-19)
(3.90943 0.0472278 0)
(3.81414 0.0379592 1.66287e-19)
(3.7126 0.0232609 3.36026e-19)
(3.6136 0.00129414 -1.69873e-19)
(3.53329 -0.0290794 -1.71651e-19)
(3.49291 -0.0643544 0)
(3.50333 -0.0889589 0)
(3.53343 -0.0700879 0)
(3.46334 0.0413908 -1.74833e-19)
(2.99441 0.325736 1.75055e-19)
(1.78472 0.81167 3.45034e-19)
(-0.0534906 1.25969 -1.45292e-19)
(-1.75701 1.37569 7.24842e-20)
(-3.02929 1.23729 4.80961e-20)
(-3.89396 0.992685 0)
(-4.45108 0.741614 0)
(-4.79872 0.521881 7.48041e-20)
(-5.00646 0.338335 0)
(-5.11662 0.185119 0)
(-5.15 0.0551191 -2.08253e-19)
(-5.11095 -0.0590853 0)
(-4.96614 -0.160402 -9.22248e-20)
(-4.71624 -0.255796 6.79387e-20)
(-4.36107 -0.347514 0)
(-3.90168 -0.435863 -2.55986e-20)
(-3.34048 -0.519878 0)
(-2.6829 -0.597361 0)
(-1.93945 -0.664843 -9.40073e-20)
(-1.12598 -0.717919 2.65357e-19)
(-0.261863 -0.750159 -1.75606e-19)
(0.632662 -0.754529 0)
(1.53323 -0.734492 0)
(2.41446 -0.697298 1.88703e-19)
(3.25359 -0.646693 0)
(4.03325 -0.586091 1.72925e-19)
(4.74218 -0.518417 0)
(5.37548 -0.446139 0)
(5.91998 -0.371074 0)
(6.34746 -0.27905 1.33085e-19)
(6.74098 -0.133676 0)
(7.21277 0.0774531 -1.15404e-19)
(7.58943 0.325756 0)
(7.67545 0.532348 0)
(7.40803 0.625319 1.68407e-19)
(6.85385 0.590416 -1.57301e-19)
(6.09718 0.464172 0)
(5.18592 0.303873 0)
(4.22996 0.16976 0)
(3.40031 0.104374 5.47142e-19)
(2.7932 0.0939863 0)
(2.29962 0.136812 -3.55061e-19)
(0.118749 1.43955 -1.59858e-22)
(0.303171 1.59124 2.02663e-19)
(0.420512 1.24196 0)
(0.821238 0.296266 -1.86826e-19)
(1.71707 -1.38169 0)
(2.77738 -3.0462 0)
(3.74342 -4.21265 -5.84922e-21)
(4.53006 -4.77756 3.53222e-20)
(5.1485 -4.85117 4.4822e-20)
(5.63785 -4.60317 3.17222e-20)
(6.0358 -4.17681 0)
(6.37067 -3.66848 0)
(6.6596 -3.13434 -5.84792e-20)
(6.91049 -2.60278 -1.26462e-19)
(7.12616 -2.08564 1.35818e-19)
(7.30719 -1.58595 0)
(7.4535 -1.10156 1.52766e-19)
(7.56472 -0.628941 -6.69198e-20)
(7.6382 -0.164416 0)
(7.68137 0.302376 1.63661e-19)
(7.70407 0.786576 6.67288e-20)
(7.71803 1.30245 -1.5282e-19)
(7.72568 1.85417 -5.92019e-20)
(7.71152 2.42741 0)
(7.63873 2.98186 1.28999e-19)
(7.45237 3.44932 1.21963e-19)
(7.09144 3.74226 0)
(6.51369 3.78131 1.1575e-19)
(5.7237 3.53264 0)
(4.81016 3.03821 1.27329e-19)
(3.91955 2.39635 7.00842e-20)
(3.17087 1.68822 0)
(2.62852 0.920662 0)
(2.29767 0.0862582 0)
(2.19448 -0.829078 0)
(2.27678 -1.77108 0)
(2.37754 -2.25802 0)
(2.34634 -1.97236 1.56653e-19)
(2.14873 -1.1975 -2.71137e-19)
(1.82657 -0.388151 0)
(1.25908 0.315064 0)
(0.327136 0.968233 0)
(-0.98285 1.70034 -6.38074e-21)
(-2.46842 2.45058 1.17702e-19)
(-3.97734 3.10569 2.05544e-19)
(-5.37156 3.57328 -1.8622e-19)
(-6.57836 3.84586 -9.61524e-20)
(-7.56722 3.94049 8.04073e-20)
(-8.33513 3.87392 1.90913e-20)
(-8.90721 3.67302 1.06156e-19)
(-9.32216 3.37646 0)
(-9.62277 3.02438 1.22374e-19)
(-9.84923 2.65179 2.04928e-20)
(-10.0341 2.28509 0)
(-10.1999 1.94128 0)
(-10.359 1.629 -1.60563e-19)
(-10.5153 1.35062 0)
(-10.6672 1.10456 0)
(-10.8097 0.887166 1.92919e-19)
(-10.9366 0.693986 3.76706e-19)
(-11.042 0.520605 -1.8479e-19)
(-11.1206 0.363085 0)
(-11.1683 0.218031 1.9164e-19)
(-11.1823 0.0826828 0)
(-11.1619 -0.0447011 2.03399e-19)
(-11.1072 -0.165092 1.88797e-19)
(-11.0196 -0.27842 -3.80841e-19)
(-10.9004 -0.384319 -1.9058e-19)
(-10.7505 -0.483257 0)
(-10.5707 -0.575915 3.47912e-19)
(-10.3621 -0.66303 0)
(-10.1255 -0.745365 4.73986e-19)
(-9.8615 -0.823692 3.02234e-19)
(-9.57065 -0.89875 2.84366e-19)
(-9.25309 -0.971191 -2.65199e-19)
(-8.90871 -1.04149 3.62766e-19)
(-8.53725 -1.10984 0)
(-8.13836 -1.17605 0)
(-7.71184 -1.23945 -1.75153e-19)
(-7.25786 -1.29887 -2.19141e-19)
(-6.77725 -1.35261 0)
(-6.27177 -1.39863 4.20481e-20)
(-5.74427 -1.43469 0)
(-5.19883 -1.45868 -4.45549e-20)
(-4.64057 -1.46889 7.93853e-21)
(-4.07546 -1.4643 -7.39437e-21)
(-3.50993 -1.44475 -6.41926e-20)
(-2.95038 -1.41093 0)
(-2.4028 -1.36433 1.30049e-19)
(-1.87232 -1.307 5.38813e-21)
(-1.36317 -1.24133 0)
(-0.878605 -1.16978 0)
(-0.420309 -1.09489 0)
(0.0109091 -1.01917 -2.81952e-19)
(0.41381 -0.942491 0)
(0.789339 -0.867705 0)
(1.13716 -0.795788 0)
(1.4582 -0.7272 0)
(1.75377 -0.662323 0)
(2.02526 -0.601382 -2.47573e-19)
(2.27409 -0.54444 0)
(2.50171 -0.491451 -2.36203e-19)
(2.70952 -0.442285 -2.29847e-19)
(2.89885 -0.396758 2.23763e-19)
(3.07099 -0.354645 0)
(3.22711 -0.315704 2.12533e-19)
(3.36832 -0.279672 0)
(3.49563 -0.246265 2.02665e-19)
(3.60997 -0.215176 -1.98256e-19)
(3.71222 -0.186098 -5.81238e-19)
(3.80326 -0.158595 0)
(3.88395 -0.13196 -5.60141e-19)
(3.9548 -0.106309 -1.82946e-19)
(4.01606 -0.0826423 0)
(4.06943 -0.0600458 -3.56898e-19)
(4.11899 -0.0365564 -3.52292e-19)
(4.16898 -0.0104808 5.20953e-19)
(4.22174 0.016677 0)
(4.27815 0.0429049 1.67769e-19)
(4.33615 0.0655307 1.64825e-19)
(4.39097 0.0817706 4.85992e-19)
(4.43722 0.0901606 0)
(4.47082 0.0911606 0)
(4.48984 0.0868174 0)
(4.49456 0.0800281 1.56007e-19)
(4.48717 0.074111 0)
(4.47035 0.0708875 0)
(4.44569 0.0712433 -1.55137e-19)
(4.41282 0.0754561 -1.55296e-19)
(4.36901 0.0825692 0)
(4.30931 0.0897172 0)
(4.22931 0.0909234 -3.16546e-19)
(4.13104 0.0778957 0)
(4.02839 0.0420408 3.26555e-19)
(3.9411 -0.0135246 3.31413e-19)
(3.8654 -0.0488624 0)
(3.72054 0.0348464 0)
(3.29654 0.376055 -3.37506e-19)
(2.2869 1.04425 -5.38195e-21)
(0.623668 1.84689 -1.75421e-20)
(-1.00286 2.24091 0)
(-2.08663 2.13234 -2.63358e-19)
(-2.76758 1.76269 0)
(-3.23533 1.3434 0)
(-3.60682 0.97475 0)
(-3.91597 0.675432 -1.35961e-19)
(-4.15582 0.43202 0)
(-4.3109 0.226538 4.27604e-19)
(-4.37025 0.0449786 2.11345e-19)
(-4.32849 -0.122171 0)
(-4.18494 -0.281465 1.76525e-19)
(-3.94069 -0.434007 0)
(-3.59554 -0.581078 0)
(-3.14971 -0.722397 1.46763e-19)
(-2.60493 -0.855917 2.13742e-20)
(-1.96583 -0.977738 0)
(-1.24225 -1.08212 3.14727e-19)
(-0.449485 -1.16229 -2.45202e-19)
(0.393426 -1.20954 0)
(1.26342 -1.21876 0)
(2.13567 -1.19269 0)
(2.98584 -1.13681 -9.94847e-19)
(3.79277 -1.05728 0)
(4.54048 -0.960587 -3.15967e-19)
(5.21812 -0.852817 0)
(5.81924 -0.737486 0)
(6.34155 -0.613242 0)
(6.78176 -0.478551 0)
(7.13257 -0.329834 0)
(7.42943 -0.141583 0)
(7.77548 0.106536 -3.84851e-19)
(8.1737 0.382287 0)
(8.488 0.608411 -1.54045e-19)
(8.56369 0.731597 4.08196e-19)
(8.30622 0.760984 0)
(7.68726 0.736777 0)
(6.76468 0.678666 -2.75594e-19)
(5.66947 0.588045 -2.97108e-19)
(4.58676 0.478903 3.05582e-19)
(3.57793 0.420427 3.08668e-19)
(0.0585464 0.899527 -3.39257e-19)
(0.1732 1.14134 -3.16907e-19)
(0.702897 -0.0258118 -1.70275e-19)
(1.83107 -2.12728 -6.04705e-20)
(3.07775 -4.06105 0)
(4.0918 -5.30554 9.4724e-20)
(4.77228 -5.83049 -5.54313e-20)
(5.1837 -5.82702 0)
(5.43512 -5.51244 -4.22813e-20)
(5.61125 -5.04441 0)
(5.75906 -4.51175 1.28994e-19)
(5.89833 -3.95703 0)
(6.03415 -3.39961 6.09544e-20)
(6.16515 -2.8485 1.33506e-19)
(6.28781 -2.30762 -1.44919e-19)
(6.39822 -1.77769 0)
(6.4928 -1.25742 -1.65798e-19)
(6.56903 -0.744379 0)
(6.62464 -0.235392 0)
(6.66233 0.272555 -1.80714e-19)
(6.68268 0.781675 0)
(6.69198 1.29818 -2.45102e-20)
(6.70301 1.8328 0)
(6.729 2.39772 0)
(6.77265 2.9958 2.30245e-20)
(6.81321 3.60164 -1.25887e-19)
(6.79842 4.147 -1.35773e-19)
(6.65547 4.52482 -1.089e-19)
(6.3248 4.61974 0)
(5.7979 4.35939 -2.21495e-19)
(5.13194 3.75469 0)
(4.43542 2.88757 -1.17712e-19)
(3.81671 1.86703 0)
(3.32757 0.766527 0)
(3.0023 -0.468893 1.3275e-19)
(2.80643 -1.60993 0)
(2.44479 -1.93441 -1.39577e-19)
(1.80949 -1.27236 -1.29639e-20)
(0.92255 -0.0324623 4.38744e-19)
(-0.26034 1.23168 -3.73007e-19)
(-1.61903 2.32234 0)
(-3.06639 3.2854 0)
(-4.48624 4.07684 -1.11987e-19)
(-5.75292 4.64017 0)
(-6.79952 4.9652 -7.98232e-20)
(-7.60537 5.06737 7.98569e-20)
(-8.18617 4.98388 8.30292e-20)
(-8.5794 4.75922 0)
(-8.8341 4.43512 -9.54478e-20)
(-9.00316 4.05179 -1.03825e-19)
(-9.13359 3.64537 2.66254e-19)
(-9.25953 3.24284 -1.23066e-19)
(-9.39969 2.86049 -1.33122e-19)
(-9.55927 2.50534 0)
(-9.73412 2.17812 0)
(-9.91545 1.8764 1.61548e-19)
(-10.0933 1.59674 0)
(-10.2586 1.33599 0)
(-10.4043 1.09164 -3.69014e-19)
(-10.5253 0.861997 -3.81096e-19)
(-10.6185 0.645882 0)
(-10.6818 0.442498 0)
(-10.7145 0.251259 0)
(-10.7164 0.0714095 0)
(-10.6876 -0.097952 -4.03275e-19)
(-10.6291 -0.257428 4.10715e-19)
(-10.5416 -0.407578 3.87641e-19)
(-10.4261 -0.548728 7.6743e-19)
(-10.2835 -0.681354 0)
(-10.1147 -0.806117 1.15539e-20)
(-9.92049 -0.923845 0)
(-9.70149 -1.0355 -3.21215e-19)
(-9.4581 -1.14216 1.07947e-20)
(-9.19039 -1.24488 -2.84993e-19)
(-8.89801 -1.34468 2.64977e-19)
(-8.58025 -1.44233 1.11918e-20)
(-8.23603 -1.53821 0)
(-7.86411 -1.63213 2.09247e-19)
(-7.46325 -1.72315 1.72491e-19)
(-7.03258 -1.8095 3.04865e-19)
(-6.57203 -1.88861 0)
(-6.08267 -1.95725 -1.02715e-19)
(-5.56703 -2.01187 0)
(-5.02929 -2.04908 7.39086e-20)
(-4.47513 -2.06612 -7.92274e-22)
(-3.9114 -2.06133 -3.02726e-20)
(-3.34558 -2.03444 6.15968e-20)
(-2.78515 -1.98656 1.70015e-19)
(-2.23701 -1.92 -1.24425e-19)
(-1.70699 -1.83792 1.55698e-19)
(-1.19968 -1.74405 0)
(-0.718538 -1.64216 -4.23432e-19)
(-0.265114 -1.53577 0)
(0.159794 -1.42737 -5.04e-19)
(0.555929 -1.31913 5.03334e-19)
(0.923796 -1.21379 4.99345e-19)
(1.26371 -1.11263 -4.9297e-19)
(1.5769 -1.01644 -4.84932e-19)
(1.86484 -0.925748 0)
(2.12904 -0.840795 -2.30614e-19)
(2.37104 -0.761619 0)
(2.59234 -0.688105 0)
(2.79439 -0.620029 -4.35333e-19)