# vtk DataFile Version 2.0
sampleSurface
ASCII
DATASET POLYDATA
POINTS 502 float
-0.0206 0 -0.0005 -0.0190172 0 -0.0005 -0.0190172 0 0.0005 -0.0206 0
0.0005 -0.0174976 0 -0.0005 -0.0174976 0 0.0005 -0.0160387 0 -0.0005
-0.0160387 0 0.0005 -0.0146381 0 -0.0005 -0.0146381 0 0.0005 -0.0132934
0 -0.0005 -0.0132934 0 0.0005 -0.0120025 0 -0.0005 -0.0120025 0
0.0005 -0.0107632 0 -0.0005 -0.0107632 0 0.0005 -0.00957337 0 -0.0005
-0.00957337 0 0.0005 -0.00843108 0 -0.0005 -0.00843108 0 0.0005 -0.00733443
0 -0.0005 -0.00733443 0 0.0005 -0.0062816 0 -0.0005 -0.0062816 0
0.0005 -0.00527083 0 -0.0005 -0.00527083 0 0.0005 -0.00430044 0 -0.0005
-0.00430044 0 0.0005 -0.00336883 0 -0.0005 -0.00336883 0 0.0005 -0.00247443
0 -0.0005 -0.00247443 0 0.0005 -0.00161577 0 -0.0005 -0.00161577 0
0.0005 -0.000791418 0 -0.0005 -0.000791418 0 0.0005 0 0 -0.0005
0 0 0.0005 0 -0.0254 -0.0005 0 -0.0254 0.0005 0
-0.0242711 0.0005 0 -0.0242711 -0.0005 0 -0.0231422 0.0005 0 -0.0231422
-0.0005 0 -0.0220133 0.0005 0 -0.0220133 -0.0005 0 -0.0208844 0.0005
0 -0.0208844 -0.0005 0 -0.0197556 0.0005 0 -0.0197556 -0.0005 0
-0.0186267 0.0005 0 -0.0186267 -0.0005 0 -0.0174978 0.0005 0 -0.0174978
-0.0005 0 -0.0163689 0.0005 0 -0.0163689 -0.0005 0 -0.01524 0.0005
0 -0.01524 -0.0005 0 -0.0141111 0.0005 0 -0.0141111 -0.0005 0
-0.0129822 0.0005 0 -0.0129822 -0.0005 0 -0.0118533 0.0005 0 -0.0118533
-0.0005 0 -0.0107244 0.0005 0 -0.0107244 -0.0005 0 -0.00959556 0.0005
0 -0.00959556 -0.0005 0 -0.00846667 0.0005 0 -0.00846667 -0.0005 0
-0.00726604 0.0005 0 -0.00726604 -0.0005 0 -0.00618989 0.0005 0 -0.00618989
-0.0005 0 -0.00522531 0.0005 0 -0.00522531 -0.0005 0 -0.00436073 0.0005
0 -0.00436073 -0.0005 0 -0.00358579 0.0005 0 -0.00358579 -0.0005 0
-0.00289118 0.0005 0 -0.00289118 -0.0005 0 -0.0022686 0.0005 0 -0.0022686
-0.0005 0 -0.00171055 0.0005 0 -0.00171055 -0.0005 0 -0.00121037 0.0005
0 -0.00121037 -0.0005 0 -0.000762037 0.0005 0 -0.000762037 -0.0005 0
-0.000360188 0.0005 0 -0.000360188 -0.0005 0.000528387 -0.0254 -0.0005 0.000528387 -0.0254
0.0005 0.00106088 -0.0254 -0.0005 0.00106088 -0.0254 0.0005 0.00159752 -0.0254 -0.0005
0.00159752 -0.0254 0.0005 0.00213833 -0.0254 -0.0005 0.00213833 -0.0254 0.0005 0.00268334
-0.0254 -0.0005 0.00268334 -0.0254 0.0005 0.00323259 -0.0254 -0.0005 0.00323259 -0.0254
0.0005 0.00378611 -0.0254 -0.0005 0.00378611 -0.0254 0.0005 0.00434393 -0.0254 -0.0005
0.00434393 -0.0254 0.0005 0.00490609 -0.0254 -0.0005 0.00490609 -0.0254 0.0005 0.00547262
-0.0254 -0.0005 0.00547262 -0.0254 0.0005 0.00604356 -0.0254 -0.0005 0.00604356 -0.0254
0.0005 0.00661893 -0.0254 -0.0005 0.00661893 -0.0254 0.0005 0.00719878 -0.0254 -0.0005
0.00719878 -0.0254 0.0005 0.00778313 -0.0254 -0.0005 0.00778313 -0.0254 0.0005 0.00837203
-0.0254 -0.0005 0.00837203 -0.0254 0.0005 0.00896551 -0.0254 -0.0005 0.00896551 -0.0254
0.0005 0.0095636 -0.0254 -0.0005 0.0095636 -0.0254 0.0005 0.0101663 -0.0254 -0.0005
0.0101663 -0.0254 0.0005 0.0107738 -0.0254 -0.0005 0.0107738 -0.0254 0.0005 0.0113859
-0.0254 -0.0005 0.0113859 -0.0254 0.0005 0.0120028 -0.0254 -0.0005 0.0120028 -0.0254
0.0005 0.0126245 -0.0254 -0.0005 0.0126245 -0.0254 0.0005 0.0132511 -0.0254 -0.0005
0.0132511 -0.0254 0.0005 0.0138825 -0.0254 -0.0005 0.0138825 -0.0254 0.0005 0.0145188
-0.0254 -0.0005 0.0145188 -0.0254 0.0005 0.0151601 -0.0254 -0.0005 0.0151601 -0.0254
0.0005 0.0158063 -0.0254 -0.0005 0.0158063 -0.0254 0.0005 0.0164576 -0.0254 -0.0005
0.0164576 -0.0254 0.0005 0.0171139 -0.0254 -0.0005 0.0171139 -0.0254 0.0005 0.0177754
-0.0254 -0.0005 0.0177754 -0.0254 0.0005 0.018442 -0.0254 -0.0005 0.018442 -0.0254
0.0005 0.0191137 -0.0254 -0.0005 0.0191137 -0.0254 0.0005 0.0197907 -0.0254 -0.0005
0.0197907 -0.0254 0.0005 0.020473 -0.0254 -0.0005 0.020473 -0.0254 0.0005 0.0211606
-0.0254 -0.0005 0.0211606 -0.0254 0.0005 0.0218535 -0.0254 -0.0005 0.0218535 -0.0254
0.0005 0.0225517 -0.0254 -0.0005 0.0225517 -0.0254 0.0005 0.0232555 -0.0254 -0.0005
0.0232555 -0.0254 0.0005 0.0239647 -0.0254 -0.0005 0.0239647 -0.0254 0.0005 0.0246794
-0.0254 -0.0005 0.0246794 -0.0254 0.0005 0.0253996 -0.0254 -0.0005 0.0253996 -0.0254
0.0005 0.0261255 -0.0254 -0.0005 0.0261255 -0.0254 0.0005 0.026857 -0.0254 -0.0005
0.026857 -0.0254 0.0005 0.0275942 -0.0254 -0.0005 0.0275942 -0.0254 0.0005 0.0283371
-0.0254 -0.0005 0.0283371 -0.0254 0.0005 0.0290858 -0.0254 -0.0005 0.0290858 -0.0254
0.0005 0.0298403 -0.0254 -0.0005 0.0298403 -0.0254 0.0005 0.0306007 -0.0254 -0.0005
0.0306007 -0.0254 0.0005 0.031367 -0.0254 -0.0005 0.031367 -0.0254 0.0005 0.0321393
-0.0254 -0.0005 0.0321393 -0.0254 0.0005 0.0329175 -0.0254 -0.0005 0.0329175 -0.0254
0.0005 0.0337019 -0.0254 -0.0005 0.0337019 -0.0254 0.0005 0.0344923 -0.0254 -0.0005
0.0344923 -0.0254 0.0005 0.0352888 -0.0254 -0.0005 0.0352888 -0.0254 0.0005 0.0360916
-0.0254 -0.0005 0.0360916 -0.0254 0.0005 0.0369006 -0.0254 -0.0005 0.0369006 -0.0254
0.0005 0.0377158 -0.0254 -0.0005 0.0377158 -0.0254 0.0005 0.0385375 -0.0254 -0.0005
0.0385375 -0.0254 0.0005 0.0393655 -0.0254 -0.0005 0.0393655 -0.0254 0.0005 0.0401999
-0.0254 -0.0005 0.0401999 -0.0254 0.0005 0.0410408 -0.0254 -0.0005 0.0410408 -0.0254
0.0005 0.0418883 -0.0254 -0.0005 0.0418883 -0.0254 0.0005 0.0427424 -0.0254 -0.0005
0.0427424 -0.0254 0.0005 0.0436031 -0.0254 -0.0005 0.0436031 -0.0254 0.0005 0.0444704
-0.0254 -0.0005 0.0444704 -0.0254 0.0005 0.0453446 -0.0254 -0.0005 0.0453446 -0.0254
0.0005 0.0462255 -0.0254 -0.0005 0.0462255 -0.0254 0.0005 0.0471133 -0.0254 -0.0005
0.0471133 -0.0254 0.0005 0.048008 -0.0254 -0.0005 0.048008 -0.0254 0.0005 0.0489096
-0.0254 -0.0005 0.0489096 -0.0254 0.0005 0.0498183 -0.0254 -0.0005 0.0498183 -0.0254
0.0005 0.050734 -0.0254 -0.0005 0.050734 -0.0254 0.0005 0.0516568 -0.0254 -0.0005
0.0516568 -0.0254 0.0005 0.0525868 -0.0254 -0.0005 0.0525868 -0.0254 0.0005 0.053524
-0.0254 -0.0005 0.053524 -0.0254 0.0005 0.0544686 -0.0254 -0.0005 0.0544686 -0.0254
0.0005 0.0554204 -0.0254 -0.0005 0.0554204 -0.0254 0.0005 0.0563797 -0.0254 -0.0005
0.0563797 -0.0254 0.0005 0.0573464 -0.0254 -0.0005 0.0573464 -0.0254 0.0005 0.0583206
-0.0254 -0.0005 0.0583206 -0.0254 0.0005 0.0593025 -0.0254 -0.0005 0.0593025 -0.0254
0.0005 0.0602919 -0.0254 -0.0005 0.0602919 -0.0254 0.0005 0.0612891 -0.0254 -0.0005
0.0612891 -0.0254 0.0005 0.0622939 -0.0254 -0.0005 0.0622939 -0.0254 0.0005 0.0633067
-0.0254 -0.0005 0.0633067 -0.0254 0.0005 0.0643272 -0.0254 -0.0005 0.0643272 -0.0254
0.0005 0.0653557 -0.0254 -0.0005 0.0653557 -0.0254 0.0005 0.0663923 -0.0254 -0.0005
0.0663923 -0.0254 0.0005 0.0674368 -0.0254 -0.0005 0.0674368 -0.0254 0.0005 0.0684895
-0.0254 -0.0005 0.0684895 -0.0254 0.0005 0.0695504 -0.0254 -0.0005 0.0695504 -0.0254
0.0005 0.0706195 -0.0254 -0.0005 0.0706195 -0.0254 0.0005 0.0716969 -0.0254 -0.0005
0.0716969 -0.0254 0.0005 0.0727828 -0.0254 -0.0005 0.0727828 -0.0254 0.0005 0.073877
-0.0254 -0.0005 0.073877 -0.0254 0.0005 0.0749798 -0.0254 -0.0005 0.0749798 -0.0254
0.0005 0.0760911 -0.0254 -0.0005 0.0760911 -0.0254 0.0005 0.0772111 -0.0254 -0.0005
0.0772111 -0.0254 0.0005 0.0783398 -0.0254 -0.0005 0.0783398 -0.0254 0.0005 0.0794772
-0.0254 -0.0005 0.0794772 -0.0254 0.0005 0.0806235 -0.0254 -0.0005 0.0806235 -0.0254
0.0005 0.0817787 -0.0254 -0.0005 0.0817787 -0.0254 0.0005 0.0829429 -0.0254 -0.0005
0.0829429 -0.0254 0.0005 0.0841162 -0.0254 -0.0005 0.0841162 -0.0254 0.0005 0.0852985
-0.0254 -0.0005 0.0852985 -0.0254 0.0005 0.0864901 -0.0254 -0.0005 0.0864901 -0.0254
0.0005 0.0876909 -0.0254 -0.0005 0.0876909 -0.0254 0.0005 0.0889011 -0.0254 -0.0005
0.0889011 -0.0254 0.0005 0.0901207 -0.0254 -0.0005 0.0901207 -0.0254 0.0005 0.0913497
-0.0254 -0.0005 0.0913497 -0.0254 0.0005 0.0925883 -0.0254 -0.0005 0.0925883 -0.0254
0.0005 0.0938366 -0.0254 -0.0005 0.0938366 -0.0254 0.0005 0.0950945 -0.0254 -0.0005
0.0950945 -0.0254 0.0005 0.0963622 -0.0254 -0.0005 0.0963622 -0.0254 0.0005 0.0976398
-0.0254 -0.0005 0.0976398 -0.0254 0.0005 0.0989273 -0.0254 -0.0005 0.0989273 -0.0254
0.0005 0.100225 -0.0254 -0.0005 0.100225 -0.0254 0.0005 0.101532 -0.0254 -0.0005
0.101532 -0.0254 0.0005 0.10285 -0.0254 -0.0005 0.10285 -0.0254 0.0005 0.104178
-0.0254 -0.0005 0.104178 -0.0254 0.0005 0.105517 -0.0254 -0.0005 0.105517 -0.0254
0.0005 0.106865 -0.0254 -0.0005 0.106865 -0.0254 0.0005 0.108225 -0.0254 -0.0005
0.108225 -0.0254 0.0005 0.109594 -0.0254 -0.0005 0.109594 -0.0254 0.0005 0.110975
-0.0254 -0.0005 0.110975 -0.0254 0.0005 0.112366 -0.0254 -0.0005 0.112366 -0.0254
0.0005 0.113768 -0.0254 -0.0005 0.113768 -0.0254 0.0005 0.115181 -0.0254 -0.0005
0.115181 -0.0254 0.0005 0.116605 -0.0254 -0.0005 0.116605 -0.0254 0.0005 0.11804
-0.0254 -0.0005 0.11804 -0.0254 0.0005 0.119486 -0.0254 -0.0005 0.119486 -0.0254
0.0005 0.120943 -0.0254 -0.0005 0.120943 -0.0254 0.0005 0.122412 -0.0254 -0.0005
0.122412 -0.0254 0.0005 0.123892 -0.0254 -0.0005 0.123892 -0.0254 0.0005 0.125384
-0.0254 -0.0005 0.125384 -0.0254 0.0005 0.126887 -0.0254 -0.0005 0.126887 -0.0254
0.0005 0.128402 -0.0254 -0.0005 0.128402 -0.0254 0.0005 0.129928 -0.0254 -0.0005
0.129928 -0.0254 0.0005 0.131467 -0.0254 -0.0005 0.131467 -0.0254 0.0005 0.133017
-0.0254 -0.0005 0.133017 -0.0254 0.0005 0.13458 -0.0254 -0.0005 0.13458 -0.0254
0.0005 0.136155 -0.0254 -0.0005 0.136155 -0.0254 0.0005 0.137742 -0.0254 -0.0005
0.137742 -0.0254 0.0005 0.139341 -0.0254 -0.0005 0.139341 -0.0254 0.0005 0.140953
-0.0254 -0.0005 0.140953 -0.0254 0.0005 0.142577 -0.0254 -0.0005 0.142577 -0.0254
0.0005 0.144214 -0.0254 -0.0005 0.144214 -0.0254 0.0005 0.145863 -0.0254 -0.0005
0.145863 -0.0254 0.0005 0.147526 -0.0254 -0.0005 0.147526 -0.0254 0.0005 0.149201
-0.0254 -0.0005 0.149201 -0.0254 0.0005 0.15089 -0.0254 -0.0005 0.15089 -0.0254
0.0005 0.152591 -0.0254 -0.0005 0.152591 -0.0254 0.0005 0.154306 -0.0254 -0.0005
0.154306 -0.0254 0.0005 0.156034 -0.0254 -0.0005 0.156034 -0.0254 0.0005 0.157775
-0.0254 -0.0005 0.157775 -0.0254 0.0005 0.159531 -0.0254 -0.0005 0.159531 -0.0254
0.0005 0.161299 -0.0254 -0.0005 0.161299 -0.0254 0.0005 0.163082 -0.0254 -0.0005
0.163082 -0.0254 0.0005 0.164878 -0.0254 -0.0005 0.164878 -0.0254 0.0005 0.166688
-0.0254 -0.0005 0.166688 -0.0254 0.0005 0.168513 -0.0254 -0.0005 0.168513 -0.0254
0.0005 0.170351 -0.0254 -0.0005 0.170351 -0.0254 0.0005 0.172204 -0.0254 -0.0005
0.172204 -0.0254 0.0005 0.174071 -0.0254 -0.0005 0.174071 -0.0254 0.0005 0.175953
-0.0254 -0.0005 0.175953 -0.0254 0.0005 0.177849 -0.0254 -0.0005 0.177849 -0.0254
0.0005 0.17976 -0.0254 -0.0005 0.17976 -0.0254 0.0005 0.181686 -0.0254 -0.0005
0.181686 -0.0254 0.0005 0.183627 -0.0254 -0.0005 0.183627 -0.0254 0.0005 0.185583
-0.0254 -0.0005 0.185583 -0.0254 0.0005 0.187555 -0.0254 -0.0005 0.187555 -0.0254
0.0005 0.189541 -0.0254 -0.0005 0.189541 -0.0254 0.0005 0.191543 -0.0254 -0.0005
0.191543 -0.0254 0.0005 0.193561 -0.0254 -0.0005 0.193561 -0.0254 0.0005 0.195594
-0.0254 -0.0005 0.195594 -0.0254 0.0005 0.197643 -0.0254 -0.0005 0.197643 -0.0254
0.0005 0.199708 -0.0254 -0.0005 0.199708 -0.0254 0.0005 0.201789 -0.0254 -0.0005
0.201789 -0.0254 0.0005 0.203886 -0.0254 -0.0005 0.203886 -0.0254 0.0005 0.206
-0.0254 -0.0005 0.206 -0.0254 0.0005 0.208047 -0.0251856 -0.0005 0.208047 -0.0251856
0.0005 0.210173 -0.0249628 -0.0005 0.210173 -0.0249628 0.0005 0.212382 -0.0247314 -0.0005
0.212382 -0.0247314 0.0005 0.214677 -0.024491 -0.0005 0.214677 -0.024491 0.0005 0.217061
-0.0242412 -0.0005 0.217061 -0.0242412 0.0005 0.219538 -0.0239817 -0.0005 0.219538 -0.0239817
0.0005 0.222112 -0.0237121 -0.0005 0.222112 -0.0237121 0.0005 0.224785 -0.023432 -0.0005
0.224785 -0.023432 0.0005 0.227563 -0.023141 -0.0005 0.227563 -0.023141 0.0005 0.230449
-0.0228387 -0.0005 0.230449 -0.0228387 0.0005 0.233447 -0.0225246 -0.0005 0.233447 -0.0225246
0.0005 0.236562 -0.0221983 -0.0005 0.236562 -0.0221983 0.0005 0.239797 -0.0218593 -0.0005
0.239797 -0.0218593 0.0005 0.243159 -0.0215071 -0.0005 0.243159 -0.0215071 0.0005 0.246652
-0.0211412 -0.0005 0.246652 -0.0211412 0.0005 0.250281 -0.0207611 -0.0005 0.250281 -0.0207611
0.0005 0.254051 -0.0203661 -0.0005 0.254051 -0.0203661 0.0005 0.257967 -0.0199558 -0.0005
0.257967 -0.0199558 0.0005 0.262036 -0.0195295 -0.0005 0.262036 -0.0195295 0.0005 0.266264
-0.0190867 -0.0005 0.266264 -0.0190867 0.0005 0.270655 -0.0186266 -0.0005 0.270655 -0.0186266
0.0005 0.275218 -0.0181486 -0.0005 0.275218 -0.0181486 0.0005 0.279959 -0.017652 -0.0005
0.279959 -0.017652 0.0005 0.284883 -0.017136 -0.0005 0.284883 -0.017136 0.0005 0.29
-0.0166 -0.0005 0.29 -0.0166 0.0005 
POLYGONS 250 1250
4 0 1 2 3 4 1 4 5 2 4
4 6 7 5 4 6 8 9 7 4
8 10 11 9 4 10 12 13 11 4
12 14 15 13 4 14 16 17 15 4
16 18 19 17 4 18 20 21 19 4
20 22 23 21 4 22 24 25 23 4
24 26 27 25 4 26 28 29 27 4
28 30 31 29 4 30 32 33 31 4
32 34 35 33 4 34 36 37 35 4
38 39 40 41 4 41 40 42 43 4
43 42 44 45 4 45 44 46 47 4
47 46 48 49 4 49 48 50 51 4
51 50 52 53 4 53 52 54 55 4
55 54 56 57 4 57 56 58 59 4
59 58 60 61 4 61 60 62 63 4
63 62 64 65 4 65 64 66 67 4
67 66 68 69 4 69 68 70 71 4
71 70 72 73 4 73 72 74 75 4
75 74 76 77 4 77 76 78 79 4
79 78 80 81 4 81 80 82 83 4
83 82 84 85 4 85 84 86 87 4
87 86 88 89 4 89 88 90 91 4
91 90 37 36 4 38 92 93 39 4
92 94 95 93 4 94 96 97 95 4
96 98 99 97 4 98 100 101 99 4
100 102 103 101 4 102 104 105 103 4
104 106 107 105 4 106 108 109 107 4
108 110 111 109 4 110 112 113 111 4
112 114 115 113 4 114 116 117 115 4
116 118 119 117 4 118 120 121 119 4
120 122 123 121 4 122 124 125 123 4
124 126 127 125 4 126 128 129 127 4
128 130 131 129 4 130 132 133 131 4
132 134 135 133 4 134 136 137 135 4
136 138 139 137 4 138 140 141 139 4
140 142 143 141 4 142 144 145 143 4
144 146 147 145 4 146 148 149 147 4
148 150 151 149 4 150 152 153 151 4
152 154 155 153 4 154 156 157 155 4
156 158 159 157 4 158 160 161 159 4
160 162 163 161 4 162 164 165 163 4
164 166 167 165 4 166 168 169 167 4
168 170 171 169 4 170 172 173 171 4
172 174 175 173 4 174 176 177 175 4
176 178 179 177 4 178 180 181 179 4
180 182 183 181 4 182 184 185 183 4
184 186 187 185 4 186 188 189 187 4
188 190 191 189 4 190 192 193 191 4
192 194 195 193 4 194 196 197 195 4
196 198 199 197 4 198 200 201 199 4
200 202 203 201 4 202 204 205 203 4
204 206 207 205 4 206 208 209 207 4
208 210 211 209 4 210 212 213 211 4
212 214 215 213 4 214 216 217 215 4
216 218 219 217 4 218 220 221 219 4
220 222 223 221 4 222 224 225 223 4
224 226 227 225 4 226 228 229 227 4
228 230 231 229 4 230 232 233 231 4
232 234 235 233 4 234 236 237 235 4
236 238 239 237 4 238 240 241 239 4
240 242 243 241 4 242 244 245 243 4
244 246 247 245 4 246 248 249 247 4
248 250 251 249 4 250 252 253 251 4
252 254 255 253 4 254 256 257 255 4
256 258 259 257 4 258 260 261 259 4
260 262 263 261 4 262 264 265 263 4
264 266 267 265 4 266 268 269 267 4
268 270 271 269 4 270 272 273 271 4
272 274 275 273 4 274 276 277 275 4
276 278 279 277 4 278 280 281 279 4
280 282 283 281 4 282 284 285 283 4
284 286 287 285 4 286 288 289 287 4
288 290 291 289 4 290 292 293 291 4
292 294 295 293 4 294 296 297 295 4
296 298 299 297 4 298 300 301 299 4
300 302 303 301 4 302 304 305 303 4
304 306 307 305 4 306 308 309 307 4
308 310 311 309 4 310 312 313 311 4
312 314 315 313 4 314 316 317 315 4
316 318 319 317 4 318 320 321 319 4
320 322 323 321 4 322 324 325 323 4
324 326 327 325 4 326 328 329 327 4
328 330 331 329 4 330 332 333 331 4
332 334 335 333 4 334 336 337 335 4
336 338 339 337 4 338 340 341 339 4
340 342 343 341 4 342 344 345 343 4
344 346 347 345 4 346 348 349 347 4
348 350 351 349 4 350 352 353 351 4
352 354 355 353 4 354 356 357 355 4
356 358 359 357 4 358 360 361 359 4
360 362 363 361 4 362 364 365 363 4
364 366 367 365 4 366 368 369 367 4
368 370 371 369 4 370 372 373 371 4
372 374 375 373 4 374 376 377 375 4
376 378 379 377 4 378 380 381 379 4
380 382 383 381 4 382 384 385 383 4
384 386 387 385 4 386 388 389 387 4
388 390 391 389 4 390 392 393 391 4
392 394 395 393 4 394 396 397 395 4
396 398 399 397 4 398 400 401 399 4
400 402 403 401 4 402 404 405 403 4
404 406 407 405 4 406 408 409 407 4
408 410 411 409 4 410 412 413 411 4
412 414 415 413 4 414 416 417 415 4
416 418 419 417 4 418 420 421 419 4
420 422 423 421 4 422 424 425 423 4
424 426 427 425 4 426 428 429 427 4
428 430 431 429 4 430 432 433 431 4
432 434 435 433 4 434 436 437 435 4
436 438 439 437 4 438 440 441 439 4
440 442 443 441 4 442 444 445 443 4
444 446 447 445 4 446 448 449 447 4
448 450 451 449 4 450 452 453 451 4
452 454 455 453 4 454 456 457 455 4
456 458 459 457 4 458 460 461 459 4
460 462 463 461 4 462 464 465 463 4
464 466 467 465 4 466 468 469 467 4
468 470 471 469 4 470 472 473 471 4
472 474 475 473 4 474 476 477 475 4
476 478 479 477 4 478 480 481 479 4
480 482 483 481 4 482 484 485 483 4
484 486 487 485 4 486 488 489 487 4
488 490 491 489 4 490 492 493 491 4
492 494 495 493 4 494 496 497 495 4
496 498 499 497 4 498 500 501 499 
POINT_DATA 502
FIELD attributes 1
U 3 502 float
3.25086 -0.00431662 0.00781425 1.63286 -0.00178994 0.00385087 1.63286 -0.00178994 0.00385087 3.25086 -0.00431662
0.00781425 0.0595782 0.000696369 0 0.0595782 0.000696369 0 0.0576794 0.000616064 0
0.0576794 0.000616064 0 0.0564095 0.000379371 0 0.0564095 0.000379371 0 0.0552707
0.000150502 0 0.0552707 0.000150502 0 0.0545242 -4.99714e-05 0 0.0545242 -4.99714e-05
0 0.0546655 -9.7941e-05 0 0.0546655 -9.7941e-05 0 0.0554426 -0.00017946 0
0.0554426 -0.00017946 0 0.0561906 -0.0001319 0 0.0561906 -0.0001319 0 0.0569883
-0.000143894 0 0.0569883 -0.000143894 0 0.0582825 -0.00021548 0 0.0582825 -0.00021548
0 0.0590601 -0.000151567 0 0.0590601 -0.000151567 0 0.0604516 -0.000424056 0
0.0604516 -0.000424056 0 0.0642369 -0.000553517 0 0.0642369 -0.000553517 0 0.0645842
0.000340406 0 0.0645842 0.000340406 0 0.066474 -0.00134781 0 0.066474 -0.00134781
0 0.0732441 -0.0020569 0 0.0732441 -0.0020569 0 0.0410955 -0.00054317 0
0.0410955 -0.00054317 0 6.12325e-05 -0.000137793 -6.00628e-23 6.12325e-05 -0.000137793 -6.00628e-23 9.44745e-05
-0.000515232 1.62532e-22 9.44745e-05 -0.000515232 1.62532e-22 0.000127122 -0.00119091 1.92801e-22 0.000127122 -0.00119091
1.92801e-22 0.000125254 -0.00178586 -3.8624e-22 0.000125254 -0.00178586 -3.8624e-22 0.000122116 -0.0023759 -1.28659e-22
0.000122116 -0.0023759 -1.28659e-22 0.000117673 -0.00295728 2.57818e-22 0.000117673 -0.00295728 2.57818e-22 0.000111583
-0.00352529 0 0.000111583 -0.00352529 0 0.000103291 -0.00407305 5.25333e-22 0.000103291 -0.00407305
5.25333e-22 9.19271e-05 -0.00459038 9.90706e-26 9.19271e-05 -0.00459038 9.90706e-26 7.61877e-05 -0.00506215 -5.25234e-22
7.61877e-05 -0.00506215 -5.25234e-22 5.41432e-05 -0.00546569 5.39086e-22 5.41432e-05 -0.00546569 5.39086e-22 2.28098e-05
-0.00576632 3.56435e-26 2.28098e-05 -0.00576632 3.56435e-26 -2.2919e-05 -0.00591153 -5.39051e-22 -2.2919e-05 -0.00591153
-5.39051e-22 -8.80561e-05 -0.00581607 -5.62414e-22 -8.80561e-05 -0.00581607 -5.62414e-22 -0.000187888 -0.00532487 1.43272e-25
-0.000187888 -0.00532487 1.43272e-25 -0.000365864 -0.00410037 5.72528e-22 -0.000365864 -0.00410037 5.72528e-22 -0.000730469
-0.00154359 0 -0.000730469 -0.00154359 0 -0.00136738 0.00313667 0 -0.00136738 0.00313667
0 -0.0022685 0.0106358 0 -0.0022685 0.0106358 0 -0.00306111 0.0207142 0
-0.00306111 0.0207142 0 -0.00344023 0.0309057 0 -0.00344023 0.0309057 0 -0.00255621
0.039639 0 -0.00255621 0.039639 0 0.000583003 0.0431722 0 0.000583003 0.0431722
0 0.00500776 0.0406682 0 0.00500776 0.0406682 0 0.00895159 0.0297711 0
0.00895159 0.0297711 0 0.00763027 0.0167619 0 0.00763027 0.0167619 0 0.00830824
0.00591334 0 0.00830824 0.00591334 0 0.000133233 -0.000148644 -2.61826e-25 0.000133233 -0.000148644
-2.61826e-25 0.000282076 -0.000158502 2.98461e-23 0.000282076 -0.000158502 2.98461e-23 0.000435304 -0.000157204 0
0.000435304 -0.000157204 0 0.000588609 -0.000156961 0 0.000588609 -0.000156961 0 0.000743076
-0.000157082 -2.89132e-23 0.000743076 -0.000157082 -2.89132e-23 0.000899041 -0.000157227 -2.89651e-23 0.000899041 -0.000157227
-2.89651e-23 0.0010565 -0.000157352 0 0.0010565 -0.000157352 0 0.00121544 -0.000157442 0
0.00121544 -0.000157442 0 0.00137583 -0.000157482 0 0.00137583 -0.000157482 0 0.00153761
-0.000157454 2.77908e-23 0.00153761 -0.000157454 2.77908e-23 0.00170073 -0.000157338 2.78438e-23 0.00170073 -0.000157338
2.78438e-23 0.00186508 -0.000157114 0 0.00186508 -0.000157114 0 0.00203057 -0.000156764 0
0.00203057 -0.000156764 0 0.00219705 -0.000156271 0 0.00219705 -0.000156271 0 0.00236437
-0.000155618 2.6661e-23 0.00236437 -0.000155618 2.6661e-23 0.00253236 -0.000154792 2.67149e-23 0.00253236 -0.000154792
2.67149e-23 0.00270081 -0.000153782 0 0.00270081 -0.000153782 0 0.00286953 -0.000152578 0
0.00286953 -0.000152578 0 0.00303828 -0.000151177 0 0.00303828 -0.000151177 0 0.00320684
-0.000149574 0 0.00320684 -0.000149574 0 0.00337497 -0.00014777 0 0.00337497 -0.00014777
0 0.00354242 -0.000145769 0 0.00354242 -0.000145769 0 0.00370895 -0.000143576 2.48864e-23
0.00370895 -0.000143576 2.48864e-23 0.00387432 -0.000141199 2.71255e-25 0.00387432 -0.000141199 2.71255e-25 0.00403829
-0.000138649 -2.6986e-25 0.00403829 -0.000138649 -2.6986e-25 0.00420063 -0.000135937 4.8753e-23 0.00420063 -0.000135937
4.8753e-23 0.00436112 -0.000133076 2.42977e-23 0.00436112 -0.000133076 2.42977e-23 0.00451955 -0.000130082 0
0.00451955 -0.000130082 0 0.00467573 -0.000126969 -2.36126e-23 0.00467573 -0.000126969 -2.36126e-23 0.00482947
-0.000123754 -4.70743e-23 0.00482947 -0.000123754 -4.70743e-23 0.00498061 -0.000120452 -2.34619e-23 0.00498061 -0.000120452
-2.34619e-23 0.00512899 -0.000117078 0 0.00512899 -0.000117078 0 0.00527449 -0.00011365 -2.27962e-23
0.00527449 -0.00011365 -2.27962e-23 0.00541698 -0.000110181 -2.28524e-23 0.00541698 -0.000110181 -2.28524e-23 0.00555636
-0.000106687 0 0.00555636 -0.000106687 0 0.00569254 -0.000103181 2.2201e-23 0.00569254 -0.000103181
2.2201e-23 0.00582546 -9.96761e-05 2.22574e-23 0.00582546 -9.96761e-05 2.22574e-23 0.00595506 -9.61843e-05 2.18119e-23
0.00595506 -9.61843e-05 2.18119e-23 0.00608129 -9.27167e-05 6.51076e-23 0.00608129 -9.27167e-05 6.51076e-23 0.00620414
-8.92833e-05 4.33525e-23 0.00620414 -8.92833e-05 4.33525e-23 0.00632358 -8.58933e-05 0 0.00632358 -8.58933e-05
0 0.00643961 -8.25545e-05 0 0.00643961 -8.25545e-05 0 0.00655224 -7.92743e-05 0
0.00655224 -7.92743e-05 0 0.00666148 -7.60587e-05 0 0.00666148 -7.60587e-05 0 0.00676736
-7.29131e-05 4.09893e-23 0.00676736 -7.29131e-05 4.09893e-23 0.00686992 -6.9842e-05 8.17268e-23 0.00686992 -6.9842e-05
8.17268e-23 0.0069692 -6.6849e-05 8.09975e-23 0.0069692 -6.6849e-05 8.09975e-23 0.00706524 -6.39372e-05 4.03743e-23
0.00706524 -6.39372e-05 4.03743e-23 0.00715809 -6.11088e-05 -3.95399e-23 0.00715809 -6.11088e-05 -3.95399e-23 0.00724782
-5.83655e-05 -3.96545e-23 0.00724782 -5.83655e-05 -3.96545e-23 0.00733449 -5.57086e-05 3.8829e-23 0.00733449 -5.57086e-05
3.8829e-23 0.00741816 -5.31387e-05 7.74206e-23 0.00741816 -5.31387e-05 7.74206e-23 0.0074989 -5.06559e-05 3.85916e-23
0.0074989 -5.06559e-05 3.85916e-23 0.00757679 -4.82601e-05 0 0.00757679 -4.82601e-05 0 0.00765189
-4.59507e-05 0 0.00765189 -4.59507e-05 0 0.00772429 -4.3727e-05 3.70894e-23 0.00772429 -4.3727e-05
3.70894e-23 0.00779405 -4.15878e-05 3.72042e-23 0.00779405 -4.15878e-05 3.72042e-23 0.00786126 -3.95318e-05 0
0.00786126 -3.95318e-05 0 0.00792599 -3.75575e-05 0 0.00792599 -3.75575e-05 0 0.00798831
-3.56632e-05 0 0.00798831 -3.56632e-05 0 0.00804831 -3.3847e-05 0 0.00804831 -3.3847e-05
0 0.00810606 -3.21071e-05 0 0.00810606 -3.21071e-05 0 0.00816163 -3.04415e-05 0
0.00816163 -3.04415e-05 0 0.00821511 -2.8848e-05 0 0.00821511 -2.8848e-05 0 0.00826656
-2.73245e-05 -3.40833e-23 0.00826656 -2.73245e-05 -3.40833e-23 0.00831606 -2.58689e-05 -3.41978e-23 0.00831606 -2.58689e-05
-3.41978e-23 0.00836368 -2.4479e-05 0 0.00836368 -2.4479e-05 0 0.00840949 -2.31526e-05 3.31151e-23
0.00840949 -2.31526e-05 3.31151e-23 0.00845356 -2.18875e-05 6.60253e-23 0.00845356 -2.18875e-05 6.60253e-23 0.00849595
-2.06816e-05 3.29101e-23 0.00849595 -2.06816e-05 3.29101e-23 0.00853674 -1.95327e-05 -3.21633e-23 0.00853674 -1.95327e-05
-3.21633e-23 0.00857598 -1.84387e-05 -4.27481e-25 0.00857598 -1.84387e-05 -4.27481e-25 0.00861374 -1.73976e-05 3.19632e-23
0.00861374 -1.73976e-05 3.19632e-23 0.00865008 -1.64072e-05 -3.12276e-23 0.00865008 -1.64072e-05 -3.12276e-23 0.00868506
-1.54655e-05 -3.13409e-23 0.00868506 -1.54655e-05 -3.13409e-23 0.00871874 -1.45706e-05 0 0.00871874 -1.45706e-05
0 0.00875118 -1.37206e-05 3.03079e-23 0.00875118 -1.37206e-05 3.03079e-23 0.00878242 -1.29137e-05 3.04206e-23
0.00878242 -1.29137e-05 3.04206e-23 0.00881252 -1.21479e-05 -2.97035e-23 0.00881252 -1.21479e-05 -2.97035e-23 0.00884154
-1.14215e-05 -2.98158e-23 0.00884154 -1.14215e-05 -2.98158e-23 0.00886952 -1.07328e-05 2.91061e-23 0.00886952 -1.07328e-05
2.91061e-23 0.00889651 -1.00802e-05 5.80279e-23 0.00889651 -1.00802e-05 5.80279e-23 0.00892256 -9.46202e-06 5.74371e-23
0.00892256 -9.46202e-06 5.74371e-23 0.00894771 -8.87669e-06 8.50727e-23 0.00894771 -8.87669e-06 8.50727e-23 0.00897201
-8.32268e-06 8.03706e-25 0.00897201 -8.32268e-06 8.03706e-25 0.0089955 -7.79852e-06 -5.60852e-23 0.0089955 -7.79852e-06
-5.60852e-23 0.00901821 -7.30274e-06 0 0.00901821 -7.30274e-06 0 0.0090402 -6.83401e-06 0
0.0090402 -6.83401e-06 0 0.00906149 -6.39043e-06 -5.357e-23 0.00906149 -6.39043e-06 -5.357e-23 0.00908213
-5.97144e-06 -1.06793e-22 0.00908213 -5.97144e-06 -1.06793e-22 0.00910214 -5.57487e-06 -7.79601e-25 0.00910214 -5.57487e-06
-7.79601e-25 0.00912157 -5.19505e-06 5.26602e-23 0.00912157 -5.19505e-06 5.26602e-23 0.00914043 -4.83873e-06 -5.13295e-23
0.00914043 -4.83873e-06 -5.13295e-23 0.00915878 -4.4936e-06 -1.02323e-22 0.00915878 -4.4936e-06 -1.02323e-22 0.00917661
-4.11749e-06 -1.01221e-22 0.00917661 -4.11749e-06 -1.01221e-22 0.00919389 -3.73694e-06 -5.04427e-23 0.00919389 -3.73694e-06
-5.04427e-23 0.00921066 -3.40919e-06 0 0.00921066 -3.40919e-06 0 0.00922697 -3.13648e-06 0
0.00922697 -3.13648e-06 0 0.00924289 -2.90251e-06 -4.8066e-23 0.00924289 -2.90251e-06 -4.8066e-23 0.00925845
-2.69331e-06 -4.82765e-23 0.00925845 -2.69331e-06 -4.82765e-23 0.00927369 -2.50053e-06 0 0.00927369 -2.50053e-06
0 0.00928863 -2.32011e-06 4.6477e-23 0.00928863 -2.32011e-06 4.6477e-23 0.0093033 -2.15033e-06 4.66846e-23
0.0093033 -2.15033e-06 4.66846e-23 0.00931771 -1.99039e-06 0 0.00931771 -1.99039e-06 0 0.0093319
-1.8398e-06 4.49155e-23 0.0093319 -1.8398e-06 4.49155e-23 0.00934587 -1.69816e-06 4.51201e-23 0.00934587 -1.69816e-06
4.51201e-23 0.00935964 -1.56512e-06 0 0.00935964 -1.56512e-06 0 0.00937323 -1.4403e-06 -4.33809e-23
0.00937323 -1.4403e-06 -4.33809e-23 0.00938666 -1.32334e-06 -8.64575e-23 0.00938666 -1.32334e-06 -8.64575e-23 0.00939994
-1.21384e-06 -4.30755e-23 0.00939994 -1.21384e-06 -4.30755e-23 0.00941309 -1.11141e-06 4.18725e-23 0.00941309 -1.11141e-06
4.18725e-23 0.00942612 -1.01567e-06 4.20705e-23 0.00942612 -1.01567e-06 4.20705e-23 0.00943905 -9.26248e-07 -4.08812e-23
0.00943905 -9.26248e-07 -4.08812e-23 0.00945188 -8.42794e-07 -4.10769e-23 0.00945188 -8.42794e-07 -4.10769e-23 0.00946464
-7.64945e-07 -3.99011e-23 0.00946464 -7.64945e-07 -3.99011e-23 0.00947733 -6.92383e-07 -7.95094e-23 0.00947733 -6.92383e-07
-7.95094e-23 0.00948997 -6.24762e-07 -3.96071e-23 0.00948997 -6.24762e-07 -3.96071e-23 0.00950256 -5.61818e-07 0
0.00950256 -5.61818e-07 0 0.00951511 -5.03315e-07 0 0.00951511 -5.03315e-07 0 0.00952764
-4.48981e-07 0 0.00952764 -4.48981e-07 0 0.00954016 -3.98555e-07 0 0.00954016 -3.98555e-07
0 0.00955267 -3.51668e-07 0 0.00955267 -3.51668e-07 0 0.00956519 -3.08047e-07 0
0.00956519 -3.08047e-07 0 0.00957771 -2.67501e-07 -3.56229e-23 0.00957771 -2.67501e-07 -3.56229e-23 0.00959026
-2.29898e-07 -6.43955e-25 0.00959026 -2.29898e-07 -6.43955e-25 0.00960284 -1.95108e-07 3.53404e-23 0.00960284 -1.95108e-07
3.53404e-23 0.00961544 -1.62936e-07 0 0.00961544 -1.62936e-07 0 0.00962809 -1.33184e-07 0
0.00962809 -1.33184e-07 0 0.00964079 -1.05682e-07 0 0.00964079 -1.05682e-07 0 0.00965353
-8.02711e-08 6.57674e-23 0.00965353 -8.02711e-08 6.57674e-23 0.00966634 -5.68055e-08 6.61129e-23 0.00966634 -5.68055e-08
6.61129e-23 0.00967922 -3.51399e-08 -6.39788e-23 0.00967922 -3.51399e-08 -6.39788e-23 0.00969217 -1.51403e-08 -1.227e-24
0.00969217 -1.51403e-08 -1.227e-24 0.00970519 3.32182e-09 6.34276e-23 0.00970519 3.32182e-09 6.34276e-23 0.00971829
2.03759e-08 0 0.00971829 2.03759e-08 0 0.00973149 3.61411e-08 0 0.00973149 3.61411e-08
0 0.00974477 5.07556e-08 -5.95846e-23 0.00974477 5.07556e-08 -5.95846e-23 0.00975815 6.42681e-08 -1.18627e-22
0.00975815 6.42681e-08 -1.18627e-22 0.00977162 7.67583e-08 -5.90392e-23 0.00977162 7.67583e-08 -5.90392e-23 0.00978521
8.82693e-08 -5.6999e-23 0.00978521 8.82693e-08 -5.6999e-23 0.00979889 9.89262e-08 -1.13458e-22 0.00979889 9.89262e-08
-1.13458e-22 0.00981269 1.08915e-07 -1.16057e-24 0.00981269 1.08915e-07 -1.16057e-24 0.00982661 1.18382e-07 5.56027e-23
0.00982661 1.18382e-07 5.56027e-23 0.00984064 1.27426e-07 0 0.00984064 1.27426e-07 0 0.0098548
1.36114e-07 5.27687e-23 0.0098548 1.36114e-07 5.27687e-23 0.00986908 1.44536e-07 5.30659e-23 0.00986908 1.44536e-07
5.30659e-23 0.00988348 1.52805e-07 0 0.00988348 1.52805e-07 0 0.00989802 1.61062e-07 0
0.00989802 1.61062e-07 0 0.00991268 1.69465e-07 0 0.00991268 1.69465e-07 0 0.00992747
1.78199e-07 -4.863e-23 0.00992747 1.78199e-07 -4.863e-23 0.00994239 1.87471e-07 -9.6722e-23 0.00994239 1.87471e-07
-9.6722e-23 0.00995744 1.97547e-07 -4.80884e-23 0.00995744 1.97547e-07 -4.80884e-23 0.00997262 2.08757e-07 -4.61868e-23
0.00997262 2.08757e-07 -4.61868e-23 0.00998792 2.21501e-07 -4.64556e-23 0.00998792 2.21501e-07 -4.64556e-23 0.0100033
2.36274e-07 0 0.0100033 2.36274e-07 0 0.0100189 2.53703e-07 -4.37714e-23 0.0100189 2.53703e-07
-4.37714e-23 0.0100345 2.74583e-07 -4.4029e-23 0.0100345 2.74583e-07 -4.4029e-23 0.0100502 2.99921e-07 -4.21753e-23
0.0100502 2.99921e-07 -4.21753e-23 0.010066 3.30991e-07 -4.24254e-23 0.010066 3.30991e-07 -4.24254e-23 0.0100819
3.69431e-07 0 0.0100819 3.69431e-07 0 0.0100977 4.1735e-07 -3.9801e-23 0.0100977 4.1735e-07
-3.9801e-23 0.0101136 4.7749e-07 -4.00396e-23 0.0101136 4.7749e-07 -4.00396e-23 0.0101293 5.53424e-07 -3.82301e-23