/*--------------------------------*- C++ -*----------------------------------*\
  =========                 |
  \\      /  F ield         | OpenFOAM: The Open Source CFD Toolbox
   \\    /   O peration     | Website:  https://openfoam.org
    \\  /    A nd           | Version:  9
     \\/     M anipulation  |
\*---------------------------------------------------------------------------*/
FoamFile
{
    format      ascii;
    class       volScalarField;
    location    "0.13";
    object      k;
}
// * * * * * * * * * * * * * * * * * * * * * * * * * * * * * * * * * * * * * //

dimensions      [0 2 -2 0 0 0 0];

internalField   nonuniform List<scalar> 
12225
(
0.353921
0.335043
0.316966
0.300961
0.288126
0.278908
0.273301
0.271008
0.271574
0.274481
0.279217
0.285313
0.292362
0.300029
0.308059
0.316241
0.324629
0.336791
0.436864
0.44898
0.438086
0.433064
0.438794
0.453598
0.474819
0.500009
0.52718
0.554847
0.581982
0.607921
0.632289
0.654911
0.675905
0.695169
0.714887
0.730285
0.395187
0.410873
0.410631
0.405747
0.402011
0.400926
0.402619
0.406815
0.413093
0.420996
0.43009
0.439996
0.450404
0.461074
0.471869
0.482683
0.493827
0.504651
0.379641
0.38484
0.386546
0.38573
0.383905
0.382027
0.380568
0.379741
0.379609
0.380153
0.381309
0.382997
0.385135
0.387648
0.390487
0.393618
0.397069
0.400737
0.374976
0.3759
0.376239
0.375721
0.37457
0.373083
0.371496
0.369967
0.368593
0.367427
0.366486
0.365771
0.365273
0.364976
0.364869
0.364945
0.365199
0.365602
0.373488
0.372554
0.371759
0.370807
0.369631
0.368275
0.366809
0.3653
0.363803
0.362357
0.360989
0.359713
0.358537
0.357462
0.356491
0.355623
0.354856
0.354187
0.373012
0.371296
0.369813
0.368416
0.367025
0.36561
0.364168
0.36271
0.361256
0.359822
0.358424
0.357071
0.355771
0.354531
0.353352
0.352239
0.351192
0.350219
0.372865
0.370838
0.369004
0.36731
0.365711
0.364174
0.362678
0.361215
0.359781
0.358379
0.357013
0.355685
0.354399
0.353158
0.351963
0.350818
0.349725
0.348693
0.37282
0.37068
0.368691
0.366836
0.365095
0.363448
0.361879
0.360375
0.358927
0.357529
0.35618
0.354877
0.353619
0.352405
0.351237
0.350113
0.349037
0.348018
0.372806
0.370628
0.368578
0.366648
0.364828
0.36311
0.361481
0.359933
0.358456
0.357044
0.355691
0.354394
0.353149
0.351954
0.350808
0.349708
0.348654
0.347658
0.372801
0.370609
0.368537
0.366576
0.36472
0.362963
0.361298
0.359718
0.358215
0.356783
0.355418
0.354116
0.352871
0.351681
0.350543
0.349455
0.348416
0.347435
0.372799
0.370602
0.368522
0.366549
0.36468
0.362907
0.361224
0.359626
0.358107
0.356663
0.355287
0.353976
0.352726
0.351534
0.350397
0.349311
0.348275
0.3473
0.372797
0.370599
0.368514
0.366537
0.36466
0.362879
0.361188
0.359581
0.358052
0.356599
0.355215
0.353897
0.352642
0.351446
0.350305
0.349218
0.348182
0.347207
0.372796
0.370596
0.368509
0.366528
0.364649
0.362863
0.361167
0.359555
0.358021
0.356562
0.355173
0.35385
0.35259
0.35139
0.350246
0.349155
0.348116
0.347139
0.372795
0.370593
0.368505
0.366523
0.364641
0.362853
0.361154
0.359539
0.358002
0.35654
0.355148
0.353822
0.352559
0.351355
0.350208
0.349115
0.348073
0.347093
0.372794
0.370592
0.368502
0.366518
0.364634
0.362845
0.361144
0.359527
0.357989
0.356525
0.355131
0.353803
0.352538
0.351332
0.350183
0.349087
0.348043
0.347061
0.372794
0.37059
0.368499
0.366515
0.36463
0.362839
0.361137
0.359519
0.357979
0.356513
0.355118
0.353789
0.352523
0.351316
0.350165
0.349067
0.348022
0.347037
0.372794
0.37059
0.368498
0.366512
0.364627
0.362835
0.361132
0.359513
0.357972
0.356506
0.355109
0.353779
0.352512
0.351304
0.350152
0.349053
0.348006
0.34702
0.372793
0.370589
0.368497
0.366512
0.364626
0.362834
0.361131
0.359511
0.35797
0.356503
0.355106
0.353775
0.352507
0.351298
0.350145
0.349046
0.347998
0.347012
0.372794
0.37059
0.368498
0.366513
0.364628
0.362836
0.361133
0.359514
0.357973
0.356507
0.35511
0.35378
0.352512
0.351303
0.35015
0.349051
0.348003
0.347017
0.372794
0.370591
0.3685
0.366516
0.364632
0.362842
0.36114
0.359522
0.357983
0.356518
0.355123
0.353794
0.352527
0.35132
0.350169
0.349071
0.348025
0.34704
0.372795
0.370593
0.368504
0.366522
0.364642
0.362855
0.361159
0.359546
0.358012
0.356553
0.355164
0.35384
0.352579
0.351377
0.35023
0.349136
0.348093
0.347111
0.372796
0.370598
0.368518
0.366547
0.364681
0.362913
0.361235
0.359642
0.358127
0.356686
0.355312
0.354002
0.352752
0.351558
0.350417
0.349326
0.348284
0.3473
0.372804
0.370631
0.368592
0.366676
0.364872
0.363167
0.361548
0.360006
0.358533
0.357121
0.355768
0.354468
0.35322
0.352021
0.350869
0.349763
0.348703
0.347699
0.372856
0.370818
0.368973
0.367264
0.365645
0.364085
0.362567
0.361083
0.359632
0.358214
0.356833
0.355494
0.354198
0.352947
0.351745
0.350591
0.349488
0.348447
0.373166
0.37177
0.370579
0.369371
0.368049
0.366605
0.365072
0.363493
0.361906
0.360343
0.358826
0.357372
0.355991
0.354689
0.353468
0.35233
0.351272
0.350303
0.374797
0.375829
0.376175
0.375401
0.373834
0.371876
0.369792
0.36774
0.365814
0.364066
0.362524
0.361194
0.360074
0.359155
0.358422
0.35786
0.357453
0.357185
0.382729
0.39167
0.392375
0.388805
0.384384
0.380403
0.377247
0.374996
0.373619
0.373035
0.373148
0.37386
0.375075
0.376706
0.378673
0.380906
0.383346
0.385924
0.407499
0.414513
0.405423
0.395991
0.390553
0.389288
0.391449
0.396206
0.402822
0.410708
0.419409
0.428589
0.437991
0.447428
0.456764
0.465905
0.474805
0.483379
0.360554
0.347547
0.334933
0.322917
0.311965
0.302352
0.294189
0.28747
0.282113
0.278002
0.274998
0.272962
0.27176
0.271266
0.271366
0.27196
0.27296
0.274284
0.00207456
0.00938404
0.0146754
0.0193468
0.0240408
0.0292967
0.0351875
0.0418598
0.049434
0.0574141
0.0654817
0.0734902
0.0813034
0.0888126
0.0959389
0.102629
0.108848
0.114576
0.119799
0.124509
0.128697
0.132353
0.135464
0.138012
0.139951
0.141146
0.141287
0.140156
0.139525
0.142765
0.140829
0.140611
0.140936
0.142029
0.143742
0.144214
0.145037
0.144581
0.145075
0.150973
0.157301
0.163855
0.170594
0.177506
0.184583
0.191819
0.199213
0.206764
0.214472
0.222336
0.230357
0.238534
0.246868
0.255357
0.264002
0.272799
0.281749
0.290848
0.300095
0.309486
0.319017
0.328686
0.338487
0.348416
0.358469
0.368639
0.378922
0.38931
0.399798
0.410378
0.421044
0.431789
0.442603
0.453481
0.464414
0.475392
0.486409
0.497455
0.508522
0.5196
0.530681
0.541756
0.552815
0.563848
0.574847
0.585802
0.596703
0.60754
0.618303
0.628982
0.639567
0.650046
0.660411
0.670651
0.68076
0.690734
0.700577
0.710307
0.719966
0.729473
0.73876
0.747829
0.756675
0.765289
0.773659
0.781775
0.789626
0.7972
0.804486
0.811475
0.818157
0.824521
0.830559
0.836263
0.841623
0.846633
0.851285
0.855573
0.85949
0.863032
0.866194
0.868971
0.871361
0.873359
0.874965
0.876177
0.876993
0.877414
0.87744
0.877073
0.876314
0.875166
0.873633
0.871719
0.869428
0.866765
0.863738
0.860352
0.856615
0.852535
0.84812
0.84338
0.838324
0.832962
0.827304
0.821363
0.815149
0.808674
0.80195
0.79499
0.787807
0.780413
0.772821
0.765045
0.757099
0.748996
0.740746
0.732372
0.723871
0.715283
0.7066
0.697847
0.689114
0.680735
0.675677
0.671893
0.668147
0.664376
0.66058
0.656762
0.652923
0.649061
0.645169
0.641225
0.637182
0.632939
0.628263
0.622552
0.614249
0.597471
0.00595389
0.0203348
0.0296145
0.0370332
0.0439463
0.0507299
0.0576834
0.0650329
0.0728286
0.0809655
0.0892812
0.0976186
0.105843
0.113851
0.121569
0.128951
0.135971
0.142619
0.148897
0.154814
0.160386
0.165631
0.170576
0.175257
0.179713
0.183996
0.188262
0.192898
0.197669
0.203026
0.209031
0.214663
0.221269
0.22852
0.236957
0.245655
0.255022
0.26477
0.27666
0.287686
0.298419
0.309464
0.32085
0.332557
0.344568
0.356873
0.369468
0.382352
0.395526
0.408991
0.422748
0.436801
0.45115
0.465798
0.480744
0.49599
0.511536
0.52738
0.543522
0.55996
0.576692
0.593713
0.611021
0.628611
0.646477
0.664613
0.683013
0.701669
0.720574
0.739718
0.759092
0.778686
0.79849
0.818493
0.838682
0.859046
0.879572
0.900247
0.921058
0.94199
0.963029
0.984162
1.00537
1.02665
1.04797
1.06932
1.09069
1.11206
1.13341
1.15473
1.176
1.1972
1.21832
1.23934
1.26023
1.28098
1.30157
1.32197
1.34202
1.36169
1.38108
1.40017
1.41897
1.43744
1.45556
1.47331
1.49068
1.50763
1.52415
1.54021
1.5558
1.57089
1.58546
1.5995
1.61298
1.62589
1.63821
1.64993
1.66102
1.67148
1.6813
1.69045
1.69894
1.70674
1.71385
1.72027
1.72598
1.73098
1.73526
1.73883
1.74168
1.74381
1.74522
1.74591
1.74589
1.74517
1.74374
1.74161
1.7388
1.73531
1.73116
1.72636
1.72091
1.71484
1.70815
1.70088
1.69303
1.68461
1.67567
1.6662
1.65624
1.6458
1.6349
1.62358
1.61184
1.59973
1.58724
1.57444
1.56129
1.5479
1.53422
1.52029
1.5063
1.49231
1.47882
1.46551
1.45214
1.4387
1.42521
1.41167
1.39811
1.38454
1.37096
1.35738
1.34377
1.3301
1.31623
1.30207
1.28638
1.2662
0.0110196
0.0317252
0.0437537
0.0529467
0.0609819
0.0686575
0.076362
0.0842995
0.0925402
0.101051
0.109738
0.118486
0.127186
0.13575
0.144116
0.152249
0.160136
0.167783
0.175208
0.182443
0.18953
0.196521
0.203476
0.210472
0.217593
0.224935
0.232616
0.240739
0.249256
0.258301
0.267883
0.277902
0.288512
0.299683
0.311468
0.323819
0.336719
0.350116
0.363985
0.37803
0.392274
0.406836
0.42176
0.437052
0.45271
0.468734
0.485122
0.501875
0.518994
0.536481
0.554336
0.572563
0.591161
0.610132
0.629476
0.649193
0.669282
0.689742
0.71057
0.731763
0.753317
0.775228
0.79749
0.820097
0.843041
0.866315
0.88991
0.913816
0.938023
0.962519
0.987293
1.01233
1.03762
1.06315
1.0889
1.11485
1.141
1.16732
1.1938
1.22042
1.24715
1.274
1.30092
1.32792
1.35496
1.38202
1.4091
1.43616
1.46319
1.49016
1.51706
1.54387
1.57056
1.59712
1.62352
1.64975
1.67578
1.70158
1.72701
1.7521
1.77684
1.80121
1.82521
1.84878
1.87192
1.89458
1.91674
1.93837
1.95944
1.97993
1.99981
2.01905
2.03762
2.05551
2.07269
2.08913
2.10481
2.11971
2.13382
2.14711
2.15957
2.17119
2.18194
2.19181
2.2008
2.20889
2.21608
2.22236
2.22771
2.23215
2.23567
2.23826
2.23993
2.24067
2.24051
2.23944
2.23746
2.2346
2.23085
2.22624
2.22077
2.21447
2.20735
2.19942
2.19072
2.18125
2.17105
2.16013
2.14852
2.13625
2.12334
2.10982
2.09572
2.08106
2.06589
2.05023
2.03407
2.01753
2.00053
1.98323
1.96566
1.94782
1.92981
1.91173
1.89379
1.8759
1.85794
1.8399
1.82179
1.80365
1.7855
1.76735
1.74924
1.73119
1.71321
1.69534
1.67757
1.66003
1.64221
1.62386
0.0170406
0.0427752
0.0570313
0.0674094
0.07635
0.0847312
0.0929845
0.101341
0.109904
0.118688
0.127646
0.136702
0.145777
0.154802
0.163728
0.17253
0.181203
0.189764
0.198241
0.206678
0.215128
0.223653
0.232321
0.241206
0.250385
0.259932
0.269917
0.280393
0.291378
0.302893
0.314947
0.327536
0.340668
0.354341
0.368554
0.383294
0.398529
0.414221
0.430324
0.446774
0.463558
0.480701
0.498227
0.516147
0.53447
0.553199
0.57234
0.591896
0.611869
0.632263
0.653081
0.674324
0.695996
0.718097
0.740628
0.763591
0.786983
0.810804
0.835052
0.859724
0.884816
0.910323
0.93624
0.962559
0.989274
1.01638
1.04385
1.0717
1.0999
1.12844
1.15731
1.18649
1.21597
1.24574
1.27576
1.30604
1.33654
1.36725
1.39815
1.42922
1.46043
1.49177
1.52321
1.55474
1.58631
1.61793
1.64955
1.68116
1.71274
1.74426
1.77569
1.80702
1.83822
1.86927
1.90014
1.93082
1.96128
1.99139
2.02113
2.05049
2.07945
2.10799
2.13606
2.16365
2.19071
2.2172
2.24311
2.26838
2.29299
2.31691
2.3401
2.36253
2.38418
2.40501
2.42499
2.4441
2.46232
2.47961
2.49596
2.51134
2.52573
2.53913
2.5515
2.56283
2.57312
2.58235
2.59051
2.59759
2.60359
2.60851
2.61233
2.61507
2.61672
2.61729
2.61678
2.61521
2.61257
2.60889
2.60417
2.59844
2.59171
2.58399
2.57532
2.5657
2.55517
2.54375
2.53147
2.51835
2.50443
2.48973
2.47429
2.45813
2.44131
2.42383
2.40575
2.38711
2.36786
2.34822
2.32814
2.30768
2.28688
2.26579
2.24446
2.223
2.20153
2.18003
2.15845
2.13678
2.11506
2.09331
2.07156
2.04986
2.02824
2.00676
1.98547
1.96447
1.94387
1.92393
1.90454
1.88599
0.022996
0.0530009
0.0689627
0.0804748
0.0902306
0.0992122
0.107904
0.116573
0.125358
0.134314
0.143436
0.152686
0.162013
0.171371
0.180726
0.190061
0.19938
0.208704
0.218066
0.227514
0.237102
0.246891
0.256945
0.267328
0.2781
0.289318
0.301027
0.31326
0.326032
0.339351
0.353219
0.36763
0.382579
0.398056
0.414053
0.430554
0.447542
0.464993
0.482885
0.501193
0.519908
0.539036
0.558587
0.578572
0.598998
0.619875
0.641207
0.663001
0.685262
0.707995
0.731205
0.754896
0.77907
0.803732
0.828883
0.854525
0.880658
0.907283
0.934397
0.961999
0.990087
1.01865
1.0477
1.07721
1.10718
1.1376
1.16847
1.19977
1.23148
1.2636
1.29611
1.32899
1.36223
1.39581
1.4297
1.46389
1.49835
1.53307
1.56801
1.60317
1.6385
1.67398
1.7096
1.74532
1.78112
1.81696
1.85283
1.88869
1.92452
1.9603
1.99598
2.03155
2.06698
2.10223
2.13729
2.17212
2.20669
2.24085
2.27459
2.30791
2.34078
2.37315
2.40499
2.43626
2.46693
2.49695
2.52629
2.5549
2.58275
2.6098
2.63601
2.66135
2.68579
2.70928
2.7318
2.75332
2.77381
2.79323
2.81157
2.8288
2.8449
2.85985
2.87363
2.88622
2.89761
2.90779
2.91675
2.92447
2.93096
2.9362
2.94021
2.94297
2.9445
2.94479
2.94386
2.94171
2.93836
2.93382
2.92811
2.92124
2.91324
2.90412
2.89392
2.88265
2.87036
2.85705
2.84278
2.82755
2.81142
2.79443
2.77659
2.75794
2.73856
2.71841
2.69761
2.67622
2.65423
2.63174
2.60877
2.58537
2.56158
2.53746
2.51307
2.48848
2.46379
2.43901
2.41414
2.38918
2.36417
2.33915
2.31416
2.28926
2.26449
2.23994
2.21571
2.19194
2.16883
2.1467
2.1256
2.1058
0.0285146
0.0617404
0.0793559
0.091942
0.102455
0.111977
0.121047
0.129967
0.138911
0.147971
0.157178
0.166529
0.176004
0.185578
0.195234
0.204966
0.214784
0.224711
0.234783
0.245045
0.255547
0.266344
0.277491
0.289041
0.301041
0.31353
0.326541
0.340095
0.354201
0.368863
0.38408
0.399845
0.41615
0.432986
0.450344
0.468212
0.486579
0.505434
0.524765
0.544562
0.564821
0.585544
0.606737
0.628409
0.650569
0.673224
0.696384
0.720056
0.744248
0.768966
0.794218
0.82001
0.846347
0.873233
0.900673
0.92867
0.957226
0.986343
1.01602
1.04626
1.07705
1.10841
1.14031
1.17275
1.20573
1.23924
1.27327
1.3078
1.34282
1.37832
1.41428
1.45069
1.48751
1.52474
1.56235
1.60032
1.63862
1.67722
1.7161
1.75523
1.79459
1.83413
1.87384
1.91368
1.95362
1.99363
2.03368
2.07373
2.11376
2.15373
2.19361
2.23337
2.27297
2.31238
2.35157
2.39051
2.42908
2.46722
2.50489
2.54208
2.57876
2.61488
2.65039
2.68526
2.71945
2.7529
2.78557
2.81741
2.8484
2.87847
2.9076
2.93574
2.96285
2.9889
3.01385
3.03766
3.06031
3.08176
3.10198
3.12094
3.13864
3.15503
3.1701
3.18384
3.19623
3.20726
3.21691
3.22518
3.23206
3.23755
3.24164
3.24435
3.24567
3.24561
3.24419
3.24141
3.23728
3.23183
3.22507
3.21703
3.20773
3.19719
3.18545
3.17252
3.15844
3.14326
3.127
3.10968
3.09138
3.07212
3.05191
3.03081
3.00894
2.98627
2.96289
2.93884
2.91415
2.8889
2.86312
2.83687
2.81019
2.78314
2.75577
2.72817
2.7004
2.6725
2.64449
2.6164
2.58826
2.56012
2.53205
2.5041
2.47635
2.4489
2.42188
2.39549
2.36994
2.3456
2.32253
2.30088
0.0331102
0.0690929
0.0881447
0.101686
0.112879
0.122888
0.132293
0.141427
0.150496
0.159619
0.168863
0.178256
0.187804
0.197506
0.207361
0.217374
0.22756
0.237945
0.248563
0.259454
0.270664
0.28224
0.294225
0.306661
0.319586
0.333028
0.347009
0.361545
0.376642
0.392302
0.408524
0.425301
0.442629
0.4605
0.478907
0.497844
0.517305
0.537284
0.557776
0.578779
0.600293
0.62232
0.644867
0.667943
0.691557
0.715717
0.740436
0.765722
0.791585
0.818035
0.84508
0.87273
0.900991
0.929872
0.959378
0.989514
1.02029
1.0517
1.08375
1.11644
1.14977
1.18374
1.21834
1.25357
1.28943
1.3259
1.36297
1.40063
1.43886
1.47766
1.517
1.55686
1.59722
1.63805
1.67934
1.72105
1.76316
1.80563
1.84843
1.89154
1.93492
1.97853
2.02234
2.06631
2.11041
2.15461
2.19885
2.24312
2.28737
2.33156
2.37566
2.41962
2.46341
2.507
2.55033
2.59337
2.63595
2.67805
2.71965
2.7607
2.80117
2.84102
2.88018
2.91862
2.95628
2.99312
3.02908
3.06412
3.09819
3.13124
3.16322
3.1941
3.22382
3.25236
3.27966
3.30569
3.33042
3.35381
3.37583
3.39645
3.41565
3.4334
3.44969
3.46449
3.47779
3.48958
3.49984
3.50857
3.51575
3.5214
3.52551
3.52808
3.52913
3.52865
3.52666
3.52318
3.51823
3.51181
3.50395
3.49469
3.48404
3.47204
3.45872
3.44409
3.42822
3.41115
3.3929
3.37346
3.35297
3.33147
3.30896
3.28551
3.26119
3.23602
3.21008
3.18341
3.15605
3.12808
3.09954
3.07048
3.04096
3.01103
2.98075
2.9502
2.91943
2.88851
2.85745
2.82631
2.79514
2.76399
2.73292
2.70202
2.67139
2.64113
2.6114
2.58242
2.55445
2.5278
2.50252
2.47868
0.0368748
0.0750873
0.0953207
0.109666
0.121444
0.131876
0.141575
0.150897
0.16007
0.169239
0.178496
0.187896
0.19747
0.207238
0.217214
0.227413
0.237856
0.248569
0.259586
0.27094
0.282672
0.294819
0.307417
0.3205
0.334094
0.348224
0.362905
0.378149
0.393961
0.410345
0.427299
0.444822
0.46291
0.481558
0.500765
0.520527
0.540842
0.561711
0.583132
0.605107
0.627641
0.650739
0.674408
0.698659
0.723502
0.748949
0.775012
0.801703
0.829035
0.857019
0.885668
0.914991
0.945001
0.975706
1.00712
1.03924
1.07208
1.10564
1.13994
1.17496
1.21072
1.2472
1.28442
1.32236
1.36101
1.40037
1.44043
1.48118
1.52259
1.56465
1.60734
1.65065
1.69453
1.73897
1.78395
1.82941
1.87535
1.92171
1.96847
2.01559
2.06302
2.11073
2.15868
2.20683
2.25513
2.30354
2.35203
2.40055
2.44905
2.4975
2.54584
2.59405
2.64206
2.68984
2.73734
2.78446
2.83106
2.87713
2.92264
2.96754
3.0118
3.05534
3.09813
3.1401
3.18121
3.22139
3.26059
3.29877
3.33585
3.37181
3.40658
3.44012
3.47238
3.50332
3.53289
3.56106
3.58778
3.61303
3.63675
3.65893
3.67954
3.69856
3.71596
3.73172
3.74584
3.75829
3.76907
3.77816
3.78557
3.79129
3.79533
3.79768
3.79837
3.79739
3.79477
3.79052
3.78467
3.77723
3.76822
3.75768
3.74564
3.73215
3.71721
3.70086
3.68315
3.66417
3.64393
3.62246
3.59983
3.5761
3.55131
3.52551
3.49877
3.47113
3.44265
3.41339
3.3834
3.35275
3.32149
3.28967
3.25735
3.2246
3.19146
3.15802
3.12433
3.09045
3.05644
3.02234
2.98821
2.95412
2.92015
2.88638
2.85293
2.81992
2.78754
2.756
2.72556
2.69652
2.66886
2.64262
0.0398331
0.0797713
0.100929
0.115918
0.128171
0.138956
0.148903
0.158387
0.16765
0.176855
0.186114
0.195504
0.205077
0.214867
0.224903
0.235211
0.245814
0.256742
0.268024
0.279692
0.291777
0.304312
0.317326
0.330846
0.344894
0.359487
0.374641
0.390365
0.406665
0.423547
0.44101
0.459056
0.477686
0.496898
0.516693
0.537074
0.558041
0.579597
0.601748
0.624499
0.647857
0.67183
0.696429
0.721667
0.747556
0.77411
0.801344
0.829273
0.857912
0.887277
0.91738
0.948238
0.979864
1.01227
1.04547
1.07946
1.11428
1.1499
1.18636
1.22364
1.26176
1.3007
1.34048
1.38108
1.4225
1.46473
1.50777
1.55158
1.59616
1.6415
1.68755
1.73431
1.78174
1.82982
1.8785
1.92776
1.97756
2.02785
2.0786
2.12976
2.18129
2.23314
2.28526
2.33762
2.39015
2.44282
2.49557
2.54835
2.60113
2.65385
2.70645
2.7589
2.81113
2.86311
2.91477
2.9659
3.01649
3.0665
3.11588
3.16458
3.21256
3.25975
3.30609
3.35152
3.39598
3.43942
3.48177
3.52298
3.56298
3.60173
3.63918
3.67526
3.70994
3.74316
3.77488
3.80506
3.83365
3.86062
3.88592
3.90953
3.93143
3.95158
3.96996
3.98657
4.00138
4.01438
4.02556
4.03491
4.04243
4.04811
4.05198
4.05402
4.05426
4.0527
4.04937
4.04428
4.03747
4.02894
4.01873
4.00685
3.99339
3.97836
3.9618
3.94375
3.92426
3.90338
3.88117
3.85765
3.83291
3.80698
3.77994
3.75182
3.72269
3.69262
3.66165
3.62985
3.59729
3.56401
3.53009
3.49557
3.46053
3.42502
3.3891
3.35285
3.31632
3.27959
3.24271
3.20574
3.16875
3.13181
3.09502
3.05846
3.02227
2.98658
2.95159
2.91751
2.88459
2.85309
2.82294
2.79419
0.0420136
0.0832261
0.105065
0.120536
0.133155
0.144215
0.154362
0.163977
0.173313
0.182545
0.1918
0.201169
0.210719
0.220499
0.230547
0.240897
0.251578
0.262619
0.274048
0.285894
0.298185
0.310947
0.324205
0.337982
0.352296
0.367164
0.382599
0.398611
0.415207
0.432395
0.450179
0.468562
0.487549
0.507143
0.527349
0.548171
0.569617
0.591691
0.614404
0.637764
0.661783
0.686471
0.711844
0.737917
0.764704
0.792224
0.820495
0.849534
0.879359
0.90999
0.941443
0.973737
1.00689
1.04091
1.07582
1.11164
1.14836
1.186
1.22458
1.26409
1.30454
1.34593
1.38825
1.43152
1.47571
1.52082
1.56684
1.61375
1.66152
1.71015
1.75961
1.80985
1.86087
1.91261
1.96504
2.01813
2.07182
2.12607
2.18084
2.23608
2.29172
2.34773
2.40404
2.4606
2.51736
2.57427
2.63127
2.68831
2.74533
2.80228
2.85911
2.91575
2.97216
3.02828
3.08394
3.13903
3.19351
3.24734
3.30048
3.35287
3.40445
3.45515
3.5049
3.55365
3.60132
3.64785
3.69318
3.73724
3.77999
3.82136
3.8613
3.89974
3.93665
3.97197
4.00565
4.03766
4.06794
4.09645
4.12315
4.14802
4.17102
4.19214
4.21134
4.22863
4.24398
4.25738
4.26882
4.27829
4.28578
4.29131
4.29489
4.29651
4.2962
4.29397
4.28984
4.28384
4.27599
4.26633
4.25488
4.24167
4.22677
4.21021
4.19203
4.17228
4.151
4.12826
4.1041
4.07858
4.05175
4.02369
3.99443
3.96405
3.93261
3.90017
3.86679
3.83253
3.79747
3.76166
3.72516
3.68805
3.65038
3.61222
3.57362
3.53466
3.49541
3.45594
3.41631
3.37659
3.33685
3.29719
3.25768
3.21844
3.1796
3.14132
3.10378
3.0672
3.03181
2.99783
2.96516
2.93387
0.0434696
0.0855627
0.107862
0.123666
0.136541
0.147797
0.158088
0.167798
0.177185
0.186431
0.195672
0.205009
0.214518
0.224258
0.234277
0.244612
0.255297
0.266362
0.277834
0.289741
0.302107
0.314957
0.328311
0.342191
0.356613
0.371595
0.387148
0.403285
0.420016
0.43735
0.455296
0.47386
0.49305
0.512875
0.533342
0.554461
0.576242
0.598697
0.621836
0.645674
0.670227
0.695509
0.721538
0.748334
0.775915
0.804304
0.83352
0.863586
0.894524
0.926356
0.959102
0.992785
1.02742
1.06304
1.09964
1.13725
1.17588
1.21555
1.25625
1.29801
1.34081
1.38467
1.42959
1.47555
1.52256
1.57059
1.61964
1.66969
1.72071
1.77269
1.82558
1.87936
1.93399
1.98944
2.04565
2.10259
2.1602
2.21843
2.27723
2.33653
2.39628
2.45642
2.51688
2.57761
2.63855
2.69964
2.76081
2.82201
2.88318
2.94427
3.0052
3.06592
3.12638
3.18644
3.24591
3.30477
3.36295
3.42042
3.47712
3.53298
3.58793
3.64192
3.69485
3.74667
3.79729
3.84666
3.89471
3.94138
3.98661
4.03033
4.07249
4.11303
4.1519
4.18906
4.22444
4.25802
4.28975
4.31956
4.34741
4.37329
4.39717
4.41903
4.43885
4.45661
4.47229
4.48591
4.49744
4.50685
4.51417
4.51939
4.52254
4.52363
4.52266
4.51967
4.51467
4.50769
4.49877
4.48793
4.47522
4.46067
4.44432
4.42624
4.40645
4.38502
4.36199
4.33742
4.31137
4.2839
4.25506
4.22492
4.19355
4.161
4.12734
4.09263
4.05695
4.02036
3.98292
3.9447
3.90577
3.86619
3.82603
3.78535
3.74422
3.70271
3.66089
3.61883
3.5766
3.53428
3.49195
3.4497
3.40762
3.36583
3.32448
3.28371
3.24371
3.2047
3.16689
3.13047
3.09529
3.06149
0.0442748
0.0869126
0.109479
0.125479
0.138507
0.149881
0.160256
0.170019
0.179428
0.188668
0.197879
0.207167
0.216615
0.226289
0.236239
0.246509
0.257134
0.268145
0.279571
0.291438
0.303769
0.316587
0.329913
0.343766
0.358165
0.373125
0.388663
0.404792
0.421525
0.438876
0.456854
0.475474
0.494746
0.514683
0.535298
0.556604
0.578617
0.601351
0.624823
0.649052
0.674057
0.699859
0.726478
0.753939
0.782265
0.811481
0.841612
0.872684
0.904723
0.937754
0.971803
1.00689
1.04305
1.08029
1.11863
1.1581
1.1987
1.24046
1.28337
1.32744
1.37269
1.41911
1.4667
1.51545
1.56536
1.6164
1.66857
1.72184
1.77618
1.83156
1.88795
1.94531
2.00361
2.06278
2.12279
2.18358
2.2451
2.30728
2.37007
2.43339
2.49718
2.56136
2.62588
2.69066
2.75563
2.82075
2.88593
2.95112
3.01625
3.08126
3.14608
3.21066
3.27489
3.33854
3.40155
3.46387
3.52546
3.58624
3.64616
3.70515
3.76314
3.82008
3.87584
3.93035
3.98356
4.0354
4.0858
4.1347
4.18203
4.22773
4.27175
4.31402
4.3545
4.39313
4.42987
4.46469
4.49755
4.52833
4.55703
4.58362
4.60809
4.63041
4.65056
4.66854
4.68433
4.69792
4.70931
4.71848
4.72545
4.73022
4.73281
4.73324
4.73152
4.72767
4.72172
4.71371
4.70367
4.69163
4.67763
4.66172
4.64395
4.62436
4.603
4.57993
4.55521
4.52889
4.50103
4.4717
4.44095
4.40886
4.37548
4.34089
4.30515
4.26833
4.2305
4.19173
4.15208
4.11162
4.07043
4.02857
3.9861
3.94309
3.89962
3.85574
3.81154
3.76709
3.72246
3.67774
3.63301
3.58835
3.54388
3.49972
3.45601
3.4129
3.37058
3.32926
3.28912
3.25033
3.21274
3.1765
0.0445171
0.0874183
0.110083
0.12616
0.139246
0.150663
0.161062
0.170831
0.180226
0.189432
0.198591
0.207809
0.217174
0.226752
0.236598
0.246757
0.257268
0.268161
0.279466
0.291208
0.303413
0.316103
0.3293
0.343023
0.357293
0.372129
0.387547
0.403566
0.420202
0.437472
0.455393
0.473981
0.493254
0.513228
0.533922
0.555354
0.577545
0.600514
0.624284
0.648877
0.674318
0.700633
0.727848
0.755991
0.78509
0.815174
0.846273
0.878417
0.911634
0.945955
0.981406
1.01801
1.05581
1.09481
1.13504
1.17651
1.21924
1.26325
1.30853
1.35509
1.40294
1.45208
1.5025
1.55419
1.60713
1.66132
1.71672
1.77331
1.83106
1.88993
1.94988
2.01086
2.07283
2.13573
2.19951
2.26411
2.32946
2.39551
2.46218
2.5294
2.59706
2.66511
2.73347
2.80206
2.87083
2.9397
3.0086
3.07746
3.14623
3.21483
3.2832
3.35125
3.4187
3.48552
3.55163
3.61697
3.68149
3.74511
3.80776
3.86939
3.92992
3.98933
4.04741
4.10413
4.15941
4.21321
4.26545
4.31607
4.36502
4.41221
4.4576
4.50113
4.54275
4.58241
4.62006
4.65566
4.68916
4.72051
4.74967
4.77663
4.80135
4.82381
4.84401
4.86192
4.87755
4.89088
4.90191
4.91063
4.91707
4.92122
4.9231
4.92273
4.92014
4.91534
4.90838
4.89927
4.88807
4.8748
4.85952
4.84226
4.82309
4.80204
4.77917
4.75454
4.72821
4.70024
4.6707
4.63963
4.60712
4.57323
4.53802
4.50156
4.46393
4.42519
4.38541
4.34467
4.30303
4.26056
4.21733
4.17341
4.12887
4.08377
4.03819
3.9922
3.94587
3.89927
3.85249
3.8056
3.7587
3.71187
3.66524
3.61892
3.57305
3.52779
3.48333
3.43985
3.39753
3.35652
3.31665
3.27811
0.0442941
0.087226
0.109848
0.125897
0.138956
0.150343
0.160707
0.170431
0.179772
0.188912
0.19799
0.207114
0.21637
0.225825
0.235535
0.245546
0.255897
0.26662
0.277745
0.289301
0.301312
0.313803
0.326798
0.340319
0.354389
0.36903
0.384263
0.400111
0.416594
0.433735
0.451557
0.47008
0.489329
0.509326
0.530097
0.551666
0.574059
0.597301
0.62142
0.646443
0.672403
0.699328
0.727252
0.756207
0.786226
0.817343
0.84959
0.883001
0.917608
0.953442
0.990534
1.02891
1.0686
1.10963
1.15202
1.19579
1.24094
1.28748
1.3354
1.38472
1.43544
1.48754
1.54102
1.59586
1.65204
1.70954
1.76832
1.82836
1.88961
1.95202
2.01556
2.08016
2.14577
2.21233
2.27977
2.34804
2.41705
2.48674
2.55706
2.62794
2.69918
2.77075
2.84258
2.9146
2.98673
3.0589
3.13105
3.20311
3.27501
3.34669
3.41802
3.48876
3.55884
3.6282
3.69678
3.76449
3.83128
3.89707
3.96178
4.02536
4.08773
4.14881
4.20851
4.26674
4.32344
4.37855
4.43199
4.48371
4.53365
4.58173
4.62791
4.67212
4.71433
4.75447
4.7925
4.82839
4.86208
4.89354
4.92272
4.94962
4.97419
4.99643
5.01632
5.03385
5.04901
5.0618
5.07222
5.08027
5.08596
5.0893
5.09032
5.08902
5.08545
5.07961
5.07156
5.06132
5.04893
5.03444
5.01789
4.99932
4.9788
4.95637
4.93208
4.90601
4.87821
4.84874
4.81766
4.78504
4.75096
4.71546
4.67864
4.64054
4.60126
4.56085
4.51938
4.47693
4.43357
4.38936
4.34438
4.2987
4.25238
4.20549
4.1581
4.11029
4.06212
4.01367
3.96503
3.91627
3.86749
3.81878
3.77025
3.72203
3.67426
3.62709
3.58071
3.53529
3.49099
3.44794
3.40599
3.36533
0.0437099
0.0864787
0.108938
0.124868
0.137824
0.149115
0.159386
0.169018
0.178262
0.187301
0.196269
0.205273
0.214395
0.223702
0.23325
0.243084
0.253243
0.263762
0.274672
0.286003
0.297783
0.310038
0.322796
0.336084
0.349929
0.364358
0.379396
0.395073
0.411414
0.428448
0.446205
0.464714
0.484007
0.504113
0.525066
0.546899
0.569645
0.593335
0.617997
0.64367
0.670389
0.698191
0.727115
0.757197
0.788475
0.820985
0.854763
0.889842
0.926257
0.964039
1.00322
1.04382
1.08586
1.12938
1.1744
1.22094
1.26898
1.31849
1.36948
1.42195
1.47589
1.53129
1.58813
1.64639
1.70603
1.76702
1.82932
1.89289
1.95767
2.02362
2.09068
2.15878
2.22787
2.29786
2.3687
2.44031
2.5126
2.58552
2.65897
2.73287
2.80711
2.88162
2.9563
3.03109
3.10592
3.18071
3.2554
3.32991
3.40422
3.47809
3.55136
3.62396
3.69582
3.76687
3.83703
3.90623
3.9744
4.04147
4.10737
4.17202
4.23535
4.29729
4.35775
4.41666
4.47395
4.52956
4.58341
4.63546
4.68563
4.73387
4.78012
4.82434
4.86646
4.90645
4.94426
4.97985
5.01319
5.04422
5.07293
5.09929
5.12328
5.14488
5.16407
5.18086
5.19522
5.20718
5.21672
5.22385
5.22858
5.23093
5.23092
5.22858
5.22392
5.21697
5.20779
5.19639
5.18282
5.16713
5.14936
5.12956
5.10779
5.08409
5.05854
5.03118
5.00208
4.97131
4.93892
4.90498
4.86956
4.83274
4.79457
4.75513
4.71448
4.67271
4.62987
4.58604
4.5413
4.49569
4.44931
4.40221
4.35447
4.30614
4.25731
4.20803
4.15839
4.10845
4.0583
4.00802
3.9577
3.90744
3.85735
3.80755
3.75818
3.7094
3.66137
3.61426
3.56824
3.52341
3.47961
3.43707
0.0428337
0.0852713
0.10746
0.123188
0.135969
0.1471
0.157221
0.16671
0.175816
0.184716
0.193543
0.202398
0.211362
0.2205
0.229866
0.239504
0.249456
0.259758
0.270443
0.281545
0.293094
0.305124
0.317665
0.330752
0.344419
0.3587
0.373628
0.389236
0.405559
0.422637
0.440506
0.459208
0.478783
0.499273
0.52072
0.543172
0.566681
0.59127
0.616961
0.643806
0.671849
0.701136
0.731706
0.763601
0.796858
0.831513
0.867601
0.905153
0.944197
0.984758
1.02686
1.07051
1.11574
1.16256
1.21096
1.26095
1.31252
1.36563
1.42029
1.47646
1.53413
1.59327
1.65384
1.71581
1.77914
1.84377
1.90966
1.97675
2.04499
2.11432
2.18466
2.25595
2.32812
2.4011
2.47481
2.54917
2.6241
2.69953
2.77537
2.85153
2.92792
3.00447
3.08109
3.1577
3.23425
3.31065
3.38689
3.46279
3.53815
3.6129
3.68696
3.76026
3.83272
3.90427
3.97484
4.04435
4.11274
4.17993
4.24586
4.31045
4.37363
4.43534
4.4955
4.55403
4.61088
4.66598
4.71927
4.77069
4.82018
4.86769
4.91316
4.95655
4.9978
5.03688
5.07374
5.10834
5.14066
5.17065
5.1983
5.22357
5.24645
5.26692
5.28497
5.3006
5.3138
5.32458
5.33293
5.33887
5.34241
5.34357
5.34237
5.33882
5.33297
5.32484
5.31447
5.3019
5.28716
5.27031
5.25139
5.23046
5.20755
5.18274
5.15608
5.12762
5.09744
5.06559
5.03213
4.99714
4.96068
4.92281
4.88362
4.84315
4.80149
4.7587
4.71485
4.67001
4.62425
4.57764
4.53023
4.48211
4.43333
4.38397
4.33408
4.28374
4.23302
4.18198
4.13072
4.0793
4.02783
3.97639
3.92509
3.87406
3.82343
3.77335
3.72399
3.6755
3.62802
3.58169
3.53633
3.49219
0.0419194
0.0838902
0.105717
0.121168
0.13371
0.144626
0.15455
0.163857
0.172793
0.181531
0.190199
0.198897
0.207703
0.216679
0.22588
0.235352
0.245138
0.255278
0.26581
0.276772
0.288205
0.300143
0.312627
0.3257
0.33941
0.353811
0.368943
0.384828
0.401522
0.419079
0.437552
0.456995
0.477461
0.499002
0.521673
0.545526
0.570614
0.596979
0.624663
0.653711
0.684169
0.716079
0.749477
0.784398
0.820873
0.858927
0.898581
0.939853
0.982753
1.02729
1.07346
1.12128
1.17072
1.22177
1.27443
1.32867
1.38445
1.44175
1.50053
1.56075
1.62236
1.68533
1.74961
1.81515
1.8819
1.94979
2.01877
2.08879
2.15977
2.23166
2.30438
2.37787
2.45206
2.52687
2.60223
2.67807
2.7543
2.83086