# vtk DataFile Version 2.0
sampleSurface
ASCII
DATASET POLYDATA
POINTS 502 float
-0.0206 0 -0.0005 -0.0190172 0 -0.0005 -0.0190172 0 0.0005 -0.0206 0
0.0005 -0.0174976 0 -0.0005 -0.0174976 0 0.0005 -0.0160387 0 -0.0005
-0.0160387 0 0.0005 -0.0146381 0 -0.0005 -0.0146381 0 0.0005 -0.0132934
0 -0.0005 -0.0132934 0 0.0005 -0.0120025 0 -0.0005 -0.0120025 0
0.0005 -0.0107632 0 -0.0005 -0.0107632 0 0.0005 -0.00957337 0 -0.0005
-0.00957337 0 0.0005 -0.00843108 0 -0.0005 -0.00843108 0 0.0005 -0.00733443
0 -0.0005 -0.00733443 0 0.0005 -0.0062816 0 -0.0005 -0.0062816 0
0.0005 -0.00527083 0 -0.0005 -0.00527083 0 0.0005 -0.00430044 0 -0.0005
-0.00430044 0 0.0005 -0.00336883 0 -0.0005 -0.00336883 0 0.0005 -0.00247443
0 -0.0005 -0.00247443 0 0.0005 -0.00161577 0 -0.0005 -0.00161577 0
0.0005 -0.000791418 0 -0.0005 -0.000791418 0 0.0005 0 0 -0.0005
0 0 0.0005 0 -0.0254 -0.0005 0 -0.0254 0.0005 0
-0.0242711 0.0005 0 -0.0242711 -0.0005 0 -0.0231422 0.0005 0 -0.0231422
-0.0005 0 -0.0220133 0.0005 0 -0.0220133 -0.0005 0 -0.0208844 0.0005
0 -0.0208844 -0.0005 0 -0.0197556 0.0005 0 -0.0197556 -0.0005 0
-0.0186267 0.0005 0 -0.0186267 -0.0005 0 -0.0174978 0.0005 0 -0.0174978
-0.0005 0 -0.0163689 0.0005 0 -0.0163689 -0.0005 0 -0.01524 0.0005
0 -0.01524 -0.0005 0 -0.0141111 0.0005 0 -0.0141111 -0.0005 0
-0.0129822 0.0005 0 -0.0129822 -0.0005 0 -0.0118533 0.0005 0 -0.0118533
-0.0005 0 -0.0107244 0.0005 0 -0.0107244 -0.0005 0 -0.00959556 0.0005
0 -0.00959556 -0.0005 0 -0.00846667 0.0005 0 -0.00846667 -0.0005 0
-0.00726604 0.0005 0 -0.00726604 -0.0005 0 -0.00618989 0.0005 0 -0.00618989
-0.0005 0 -0.00522531 0.0005 0 -0.00522531 -0.0005 0 -0.00436073 0.0005
0 -0.00436073 -0.0005 0 -0.00358579 0.0005 0 -0.00358579 -0.0005 0
-0.00289118 0.0005 0 -0.00289118 -0.0005 0 -0.0022686 0.0005 0 -0.0022686
-0.0005 0 -0.00171055 0.0005 0 -0.00171055 -0.0005 0 -0.00121037 0.0005
0 -0.00121037 -0.0005 0 -0.000762037 0.0005 0 -0.000762037 -0.0005 0
-0.000360188 0.0005 0 -0.000360188 -0.0005 0.000528387 -0.0254 -0.0005 0.000528387 -0.0254
0.0005 0.00106088 -0.0254 -0.0005 0.00106088 -0.0254 0.0005 0.00159752 -0.0254 -0.0005
0.00159752 -0.0254 0.0005 0.00213833 -0.0254 -0.0005 0.00213833 -0.0254 0.0005 0.00268334
-0.0254 -0.0005 0.00268334 -0.0254 0.0005 0.00323259 -0.0254 -0.0005 0.00323259 -0.0254
0.0005 0.00378611 -0.0254 -0.0005 0.00378611 -0.0254 0.0005 0.00434393 -0.0254 -0.0005
0.00434393 -0.0254 0.0005 0.00490609 -0.0254 -0.0005 0.00490609 -0.0254 0.0005 0.00547262
-0.0254 -0.0005 0.00547262 -0.0254 0.0005 0.00604356 -0.0254 -0.0005 0.00604356 -0.0254
0.0005 0.00661893 -0.0254 -0.0005 0.00661893 -0.0254 0.0005 0.00719878 -0.0254 -0.0005
0.00719878 -0.0254 0.0005 0.00778313 -0.0254 -0.0005 0.00778313 -0.0254 0.0005 0.00837203
-0.0254 -0.0005 0.00837203 -0.0254 0.0005 0.00896551 -0.0254 -0.0005 0.00896551 -0.0254
0.0005 0.0095636 -0.0254 -0.0005 0.0095636 -0.0254 0.0005 0.0101663 -0.0254 -0.0005
0.0101663 -0.0254 0.0005 0.0107738 -0.0254 -0.0005 0.0107738 -0.0254 0.0005 0.0113859
-0.0254 -0.0005 0.0113859 -0.0254 0.0005 0.0120028 -0.0254 -0.0005 0.0120028 -0.0254
0.0005 0.0126245 -0.0254 -0.0005 0.0126245 -0.0254 0.0005 0.0132511 -0.0254 -0.0005
0.0132511 -0.0254 0.0005 0.0138825 -0.0254 -0.0005 0.0138825 -0.0254 0.0005 0.0145188
-0.0254 -0.0005 0.0145188 -0.0254 0.0005 0.0151601 -0.0254 -0.0005 0.0151601 -0.0254
0.0005 0.0158063 -0.0254 -0.0005 0.0158063 -0.0254 0.0005 0.0164576 -0.0254 -0.0005
0.0164576 -0.0254 0.0005 0.0171139 -0.0254 -0.0005 0.0171139 -0.0254 0.0005 0.0177754
-0.0254 -0.0005 0.0177754 -0.0254 0.0005 0.018442 -0.0254 -0.0005 0.018442 -0.0254
0.0005 0.0191137 -0.0254 -0.0005 0.0191137 -0.0254 0.0005 0.0197907 -0.0254 -0.0005
0.0197907 -0.0254 0.0005 0.020473 -0.0254 -0.0005 0.020473 -0.0254 0.0005 0.0211606
-0.0254 -0.0005 0.0211606 -0.0254 0.0005 0.0218535 -0.0254 -0.0005 0.0218535 -0.0254
0.0005 0.0225517 -0.0254 -0.0005 0.0225517 -0.0254 0.0005 0.0232555 -0.0254 -0.0005
0.0232555 -0.0254 0.0005 0.0239647 -0.0254 -0.0005 0.0239647 -0.0254 0.0005 0.0246794
-0.0254 -0.0005 0.0246794 -0.0254 0.0005 0.0253996 -0.0254 -0.0005 0.0253996 -0.0254
0.0005 0.0261255 -0.0254 -0.0005 0.0261255 -0.0254 0.0005 0.026857 -0.0254 -0.0005
0.026857 -0.0254 0.0005 0.0275942 -0.0254 -0.0005 0.0275942 -0.0254 0.0005 0.0283371
-0.0254 -0.0005 0.0283371 -0.0254 0.0005 0.0290858 -0.0254 -0.0005 0.0290858 -0.0254
0.0005 0.0298403 -0.0254 -0.0005 0.0298403 -0.0254 0.0005 0.0306007 -0.0254 -0.0005
0.0306007 -0.0254 0.0005 0.031367 -0.0254 -0.0005 0.031367 -0.0254 0.0005 0.0321393
-0.0254 -0.0005 0.0321393 -0.0254 0.0005 0.0329175 -0.0254 -0.0005 0.0329175 -0.0254
0.0005 0.0337019 -0.0254 -0.0005 0.0337019 -0.0254 0.0005 0.0344923 -0.0254 -0.0005
0.0344923 -0.0254 0.0005 0.0352888 -0.0254 -0.0005 0.0352888 -0.0254 0.0005 0.0360916
-0.0254 -0.0005 0.0360916 -0.0254 0.0005 0.0369006 -0.0254 -0.0005 0.0369006 -0.0254
0.0005 0.0377158 -0.0254 -0.0005 0.0377158 -0.0254 0.0005 0.0385375 -0.0254 -0.0005
0.0385375 -0.0254 0.0005 0.0393655 -0.0254 -0.0005 0.0393655 -0.0254 0.0005 0.0401999
-0.0254 -0.0005 0.0401999 -0.0254 0.0005 0.0410408 -0.0254 -0.0005 0.0410408 -0.0254
0.0005 0.0418883 -0.0254 -0.0005 0.0418883 -0.0254 0.0005 0.0427424 -0.0254 -0.0005
0.0427424 -0.0254 0.0005 0.0436031 -0.0254 -0.0005 0.0436031 -0.0254 0.0005 0.0444704
-0.0254 -0.0005 0.0444704 -0.0254 0.0005 0.0453446 -0.0254 -0.0005 0.0453446 -0.0254
0.0005 0.0462255 -0.0254 -0.0005 0.0462255 -0.0254 0.0005 0.0471133 -0.0254 -0.0005
0.0471133 -0.0254 0.0005 0.048008 -0.0254 -0.0005 0.048008 -0.0254 0.0005 0.0489096
-0.0254 -0.0005 0.0489096 -0.0254 0.0005 0.0498183 -0.0254 -0.0005 0.0498183 -0.0254
0.0005 0.050734 -0.0254 -0.0005 0.050734 -0.0254 0.0005 0.0516568 -0.0254 -0.0005
0.0516568 -0.0254 0.0005 0.0525868 -0.0254 -0.0005 0.0525868 -0.0254 0.0005 0.053524
-0.0254 -0.0005 0.053524 -0.0254 0.0005 0.0544686 -0.0254 -0.0005 0.0544686 -0.0254
0.0005 0.0554204 -0.0254 -0.0005 0.0554204 -0.0254 0.0005 0.0563797 -0.0254 -0.0005
0.0563797 -0.0254 0.0005 0.0573464 -0.0254 -0.0005 0.0573464 -0.0254 0.0005 0.0583206
-0.0254 -0.0005 0.0583206 -0.0254 0.0005 0.0593025 -0.0254 -0.0005 0.0593025 -0.0254
0.0005 0.0602919 -0.0254 -0.0005 0.0602919 -0.0254 0.0005 0.0612891 -0.0254 -0.0005
0.0612891 -0.0254 0.0005 0.0622939 -0.0254 -0.0005 0.0622939 -0.0254 0.0005 0.0633067
-0.0254 -0.0005 0.0633067 -0.0254 0.0005 0.0643272 -0.0254 -0.0005 0.0643272 -0.0254
0.0005 0.0653557 -0.0254 -0.0005 0.0653557 -0.0254 0.0005 0.0663923 -0.0254 -0.0005
0.0663923 -0.0254 0.0005 0.0674368 -0.0254 -0.0005 0.0674368 -0.0254 0.0005 0.0684895
-0.0254 -0.0005 0.0684895 -0.0254 0.0005 0.0695504 -0.0254 -0.0005 0.0695504 -0.0254
0.0005 0.0706195 -0.0254 -0.0005 0.0706195 -0.0254 0.0005 0.0716969 -0.0254 -0.0005
0.0716969 -0.0254 0.0005 0.0727828 -0.0254 -0.0005 0.0727828 -0.0254 0.0005 0.073877
-0.0254 -0.0005 0.073877 -0.0254 0.0005 0.0749798 -0.0254 -0.0005 0.0749798 -0.0254
0.0005 0.0760911 -0.0254 -0.0005 0.0760911 -0.0254 0.0005 0.0772111 -0.0254 -0.0005
0.0772111 -0.0254 0.0005 0.0783398 -0.0254 -0.0005 0.0783398 -0.0254 0.0005 0.0794772
-0.0254 -0.0005 0.0794772 -0.0254 0.0005 0.0806235 -0.0254 -0.0005 0.0806235 -0.0254
0.0005 0.0817787 -0.0254 -0.0005 0.0817787 -0.0254 0.0005 0.0829429 -0.0254 -0.0005
0.0829429 -0.0254 0.0005 0.0841162 -0.0254 -0.0005 0.0841162 -0.0254 0.0005 0.0852985
-0.0254 -0.0005 0.0852985 -0.0254 0.0005 0.0864901 -0.0254 -0.0005 0.0864901 -0.0254
0.0005 0.0876909 -0.0254 -0.0005 0.0876909 -0.0254 0.0005 0.0889011 -0.0254 -0.0005
0.0889011 -0.0254 0.0005 0.0901207 -0.0254 -0.0005 0.0901207 -0.0254 0.0005 0.0913497
-0.0254 -0.0005 0.0913497 -0.0254 0.0005 0.0925883 -0.0254 -0.0005 0.0925883 -0.0254
0.0005 0.0938366 -0.0254 -0.0005 0.0938366 -0.0254 0.0005 0.0950945 -0.0254 -0.0005
0.0950945 -0.0254 0.0005 0.0963622 -0.0254 -0.0005 0.0963622 -0.0254 0.0005 0.0976398
-0.0254 -0.0005 0.0976398 -0.0254 0.0005 0.0989273 -0.0254 -0.0005 0.0989273 -0.0254
0.0005 0.100225 -0.0254 -0.0005 0.100225 -0.0254 0.0005 0.101532 -0.0254 -0.0005
0.101532 -0.0254 0.0005 0.10285 -0.0254 -0.0005 0.10285 -0.0254 0.0005 0.104178
-0.0254 -0.0005 0.104178 -0.0254 0.0005 0.105517 -0.0254 -0.0005 0.105517 -0.0254
0.0005 0.106865 -0.0254 -0.0005 0.106865 -0.0254 0.0005 0.108225 -0.0254 -0.0005
0.108225 -0.0254 0.0005 0.109594 -0.0254 -0.0005 0.109594 -0.0254 0.0005 0.110975
-0.0254 -0.0005 0.110975 -0.0254 0.0005 0.112366 -0.0254 -0.0005 0.112366 -0.0254
0.0005 0.113768 -0.0254 -0.0005 0.113768 -0.0254 0.0005 0.115181 -0.0254 -0.0005
0.115181 -0.0254 0.0005 0.116605 -0.0254 -0.0005 0.116605 -0.0254 0.0005 0.11804
-0.0254 -0.0005 0.11804 -0.0254 0.0005 0.119486 -0.0254 -0.0005 0.119486 -0.0254
0.0005 0.120943 -0.0254 -0.0005 0.120943 -0.0254 0.0005 0.122412 -0.0254 -0.0005
0.122412 -0.0254 0.0005 0.123892 -0.0254 -0.0005 0.123892 -0.0254 0.0005 0.125384
-0.0254 -0.0005 0.125384 -0.0254 0.0005 0.126887 -0.0254 -0.0005 0.126887 -0.0254
0.0005 0.128402 -0.0254 -0.0005 0.128402 -0.0254 0.0005 0.129928 -0.0254 -0.0005
0.129928 -0.0254 0.0005 0.131467 -0.0254 -0.0005 0.131467 -0.0254 0.0005 0.133017
-0.0254 -0.0005 0.133017 -0.0254 0.0005 0.13458 -0.0254 -0.0005 0.13458 -0.0254
0.0005 0.136155 -0.0254 -0.0005 0.136155 -0.0254 0.0005 0.137742 -0.0254 -0.0005
0.137742 -0.0254 0.0005 0.139341 -0.0254 -0.0005 0.139341 -0.0254 0.0005 0.140953
-0.0254 -0.0005 0.140953 -0.0254 0.0005 0.142577 -0.0254 -0.0005 0.142577 -0.0254
0.0005 0.144214 -0.0254 -0.0005 0.144214 -0.0254 0.0005 0.145863 -0.0254 -0.0005
0.145863 -0.0254 0.0005 0.147526 -0.0254 -0.0005 0.147526 -0.0254 0.0005 0.149201
-0.0254 -0.0005 0.149201 -0.0254 0.0005 0.15089 -0.0254 -0.0005 0.15089 -0.0254
0.0005 0.152591 -0.0254 -0.0005 0.152591 -0.0254 0.0005 0.154306 -0.0254 -0.0005
0.154306 -0.0254 0.0005 0.156034 -0.0254 -0.0005 0.156034 -0.0254 0.0005 0.157775
-0.0254 -0.0005 0.157775 -0.0254 0.0005 0.159531 -0.0254 -0.0005 0.159531 -0.0254
0.0005 0.161299 -0.0254 -0.0005 0.161299 -0.0254 0.0005 0.163082 -0.0254 -0.0005
0.163082 -0.0254 0.0005 0.164878 -0.0254 -0.0005 0.164878 -0.0254 0.0005 0.166688
-0.0254 -0.0005 0.166688 -0.0254 0.0005 0.168513 -0.0254 -0.0005 0.168513 -0.0254
0.0005 0.170351 -0.0254 -0.0005 0.170351 -0.0254 0.0005 0.172204 -0.0254 -0.0005
0.172204 -0.0254 0.0005 0.174071 -0.0254 -0.0005 0.174071 -0.0254 0.0005 0.175953
-0.0254 -0.0005 0.175953 -0.0254 0.0005 0.177849 -0.0254 -0.0005 0.177849 -0.0254
0.0005 0.17976 -0.0254 -0.0005 0.17976 -0.0254 0.0005 0.181686 -0.0254 -0.0005
0.181686 -0.0254 0.0005 0.183627 -0.0254 -0.0005 0.183627 -0.0254 0.0005 0.185583
-0.0254 -0.0005 0.185583 -0.0254 0.0005 0.187555 -0.0254 -0.0005 0.187555 -0.0254
0.0005 0.189541 -0.0254 -0.0005 0.189541 -0.0254 0.0005 0.191543 -0.0254 -0.0005
0.191543 -0.0254 0.0005 0.193561 -0.0254 -0.0005 0.193561 -0.0254 0.0005 0.195594
-0.0254 -0.0005 0.195594 -0.0254 0.0005 0.197643 -0.0254 -0.0005 0.197643 -0.0254
0.0005 0.199708 -0.0254 -0.0005 0.199708 -0.0254 0.0005 0.201789 -0.0254 -0.0005
0.201789 -0.0254 0.0005 0.203886 -0.0254 -0.0005 0.203886 -0.0254 0.0005 0.206
-0.0254 -0.0005 0.206 -0.0254 0.0005 0.208047 -0.0251856 -0.0005 0.208047 -0.0251856
0.0005 0.210173 -0.0249628 -0.0005 0.210173 -0.0249628 0.0005 0.212382 -0.0247314 -0.0005
0.212382 -0.0247314 0.0005 0.214677 -0.024491 -0.0005 0.214677 -0.024491 0.0005 0.217061
-0.0242412 -0.0005 0.217061 -0.0242412 0.0005 0.219538 -0.0239817 -0.0005 0.219538 -0.0239817
0.0005 0.222112 -0.0237121 -0.0005 0.222112 -0.0237121 0.0005 0.224785 -0.023432 -0.0005
0.224785 -0.023432 0.0005 0.227563 -0.023141 -0.0005 0.227563 -0.023141 0.0005 0.230449
-0.0228387 -0.0005 0.230449 -0.0228387 0.0005 0.233447 -0.0225246 -0.0005 0.233447 -0.0225246
0.0005 0.236562 -0.0221983 -0.0005 0.236562 -0.0221983 0.0005 0.239797 -0.0218593 -0.0005
0.239797 -0.0218593 0.0005 0.243159 -0.0215071 -0.0005 0.243159 -0.0215071 0.0005 0.246652
-0.0211412 -0.0005 0.246652 -0.0211412 0.0005 0.250281 -0.0207611 -0.0005 0.250281 -0.0207611
0.0005 0.254051 -0.0203661 -0.0005 0.254051 -0.0203661 0.0005 0.257967 -0.0199558 -0.0005
0.257967 -0.0199558 0.0005 0.262036 -0.0195295 -0.0005 0.262036 -0.0195295 0.0005 0.266264
-0.0190867 -0.0005 0.266264 -0.0190867 0.0005 0.270655 -0.0186266 -0.0005 0.270655 -0.0186266
0.0005 0.275218 -0.0181486 -0.0005 0.275218 -0.0181486 0.0005 0.279959 -0.017652 -0.0005
0.279959 -0.017652 0.0005 0.284883 -0.017136 -0.0005 0.284883 -0.017136 0.0005 0.29
-0.0166 -0.0005 0.29 -0.0166 0.0005 
POLYGONS 250 1250
4 0 1 2 3 4 1 4 5 2 4
4 6 7 5 4 6 8 9 7 4
8 10 11 9 4 10 12 13 11 4
12 14 15 13 4 14 16 17 15 4
16 18 19 17 4 18 20 21 19 4
20 22 23 21 4 22 24 25 23 4
24 26 27 25 4 26 28 29 27 4
28 30 31 29 4 30 32 33 31 4
32 34 35 33 4 34 36 37 35 4
38 39 40 41 4 41 40 42 43 4
43 42 44 45 4 45 44 46 47 4
47 46 48 49 4 49 48 50 51 4
51 50 52 53 4 53 52 54 55 4
55 54 56 57 4 57 56 58 59 4
59 58 60 61 4 61 60 62 63 4
63 62 64 65 4 65 64 66 67 4
67 66 68 69 4 69 68 70 71 4
71 70 72 73 4 73 72 74 75 4
75 74 76 77 4 77 76 78 79 4
79 78 80 81 4 81 80 82 83 4
83 82 84 85 4 85 84 86 87 4
87 86 88 89 4 89 88 90 91 4
91 90 37 36 4 38 92 93 39 4
92 94 95 93 4 94 96 97 95 4
96 98 99 97 4 98 100 101 99 4
100 102 103 101 4 102 104 105 103 4
104 106 107 105 4 106 108 109 107 4
108 110 111 109 4 110 112 113 111 4
112 114 115 113 4 114 116 117 115 4
116 118 119 117 4 118 120 121 119 4
120 122 123 121 4 122 124 125 123 4
124 126 127 125 4 126 128 129 127 4
128 130 131 129 4 130 132 133 131 4
132 134 135 133 4 134 136 137 135 4
136 138 139 137 4 138 140 141 139 4
140 142 143 141 4 142 144 145 143 4
144 146 147 145 4 146 148 149 147 4
148 150 151 149 4 150 152 153 151 4
152 154 155 153 4 154 156 157 155 4
156 158 159 157 4 158 160 161 159 4
160 162 163 161 4 162 164 165 163 4
164 166 167 165 4 166 168 169 167 4
168 170 171 169 4 170 172 173 171 4
172 174 175 173 4 174 176 177 175 4
176 178 179 177 4 178 180 181 179 4
180 182 183 181 4 182 184 185 183 4
184 186 187 185 4 186 188 189 187 4
188 190 191 189 4 190 192 193 191 4
192 194 195 193 4 194 196 197 195 4
196 198 199 197 4 198 200 201 199 4
200 202 203 201 4 202 204 205 203 4
204 206 207 205 4 206 208 209 207 4
208 210 211 209 4 210 212 213 211 4
212 214 215 213 4 214 216 217 215 4
216 218 219 217 4 218 220 221 219 4
220 222 223 221 4 222 224 225 223 4
224 226 227 225 4 226 228 229 227 4
228 230 231 229 4 230 232 233 231 4
232 234 235 233 4 234 236 237 235 4
236 238 239 237 4 238 240 241 239 4
240 242 243 241 4 242 244 245 243 4
244 246 247 245 4 246 248 249 247 4
248 250 251 249 4 250 252 253 251 4
252 254 255 253 4 254 256 257 255 4
256 258 259 257 4 258 260 261 259 4
260 262 263 261 4 262 264 265 263 4
264 266 267 265 4 266 268 269 267 4
268 270 271 269 4 270 272 273 271 4
272 274 275 273 4 274 276 277 275 4
276 278 279 277 4 278 280 281 279 4
280 282 283 281 4 282 284 285 283 4
284 286 287 285 4 286 288 289 287 4
288 290 291 289 4 290 292 293 291 4
292 294 295 293 4 294 296 297 295 4
296 298 299 297 4 298 300 301 299 4
300 302 303 301 4 302 304 305 303 4
304 306 307 305 4 306 308 309 307 4
308 310 311 309 4 310 312 313 311 4
312 314 315 313 4 314 316 317 315 4
316 318 319 317 4 318 320 321 319 4
320 322 323 321 4 322 324 325 323 4
324 326 327 325 4 326 328 329 327 4
328 330 331 329 4 330 332 333 331 4
332 334 335 333 4 334 336 337 335 4
336 338 339 337 4 338 340 341 339 4
340 342 343 341 4 342 344 345 343 4
344 346 347 345 4 346 348 349 347 4
348 350 351 349 4 350 352 353 351 4
352 354 355 353 4 354 356 357 355 4
356 358 359 357 4 358 360 361 359 4
360 362 363 361 4 362 364 365 363 4
364 366 367 365 4 366 368 369 367 4
368 370 371 369 4 370 372 373 371 4
372 374 375 373 4 374 376 377 375 4
376 378 379 377 4 378 380 381 379 4
380 382 383 381 4 382 384 385 383 4
384 386 387 385 4 386 388 389 387 4
388 390 391 389 4 390 392 393 391 4
392 394 395 393 4 394 396 397 395 4
396 398 399 397 4 398 400 401 399 4
400 402 403 401 4 402 404 405 403 4
404 406 407 405 4 406 408 409 407 4
408 410 411 409 4 410 412 413 411 4
412 414 415 413 4 414 416 417 415 4
416 418 419 417 4 418 420 421 419 4
420 422 423 421 4 422 424 425 423 4
424 426 427 425 4 426 428 429 427 4
428 430 431 429 4 430 432 433 431 4
432 434 435 433 4 434 436 437 435 4
436 438 439 437 4 438 440 441 439 4
440 442 443 441 4 442 444 445 443 4
444 446 447 445 4 446 448 449 447 4
448 450 451 449 4 450 452 453 451 4
452 454 455 453 4 454 456 457 455 4
456 458 459 457 4 458 460 461 459 4
460 462 463 461 4 462 464 465 463 4
464 466 467 465 4 466 468 469 467 4
468 470 471 469 4 470 472 473 471 4
472 474 475 473 4 474 476 477 475 4
476 478 479 477 4 478 480 481 479 4
480 482 483 481 4 482 484 485 483 4
484 486 487 485 4 486 488 489 487 4
488 490 491 489 4 490 492 493 491 4
492 494 495 493 4 494 496 497 495 4
496 498 499 497 4 498 500 501 499 
POINT_DATA 502
FIELD attributes 1
U 3 502 float
3.21424 0.01924 -0.0668243 1.61361 0.00971772 -0.0329311 1.61361 0.00971772 -0.0329311 3.21424 0.01924
-0.0668243 0.0576128 0.000500136 0 0.0576128 0.000500136 0 0.0561215 0.000590527 0
0.0561215 0.000590527 0 0.0545624 0.000634458 0 0.0545624 0.000634458 0 0.0527155
0.000560392 0 0.0527155 0.000560392 0 0.0507013 0.000434456 0 0.0507013 0.000434456
0 0.0487788 0.00032915 0 0.0487788 0.00032915 0 0.047065 0.000264341 0
0.047065 0.000264341 0 0.0456534 0.000234033 0 0.0456534 0.000234033 0 0.0443595
0.00023117 0 0.0443595 0.00023117 0 0.0431958 0.00023647 0 0.0431958 0.00023647
0 0.0419167 0.000250688 0 0.0419167 0.000250688 0 0.0407771 0.000248113 0
0.0407771 0.000248113 0 0.0393686 0.000245782 0 0.0393686 0.000245782 0 0.0385028
0.000226806 0 0.0385028 0.000226806 0 0.0368104 0.000351849 0 0.0368104 0.000351849
0 0.036023 0.00038172 0 0.036023 0.00038172 0 0.015726 0.00142262 0
0.015726 0.00142262 0 -0.000562931 0.00104799 2.41989e-22 -0.000562931 0.00104799 2.41989e-22 -0.000450666
0.00347523 -6.53777e-22 -0.000450666 0.00347523 -6.53777e-22 6.08899e-05 0.00594764 -7.7513e-22 6.08899e-05 0.00594764
-7.7513e-22 0.00050879 0.00454565 1.55142e-21 0.00050879 0.00454565 1.55142e-21 0.000252653 0.0025799 5.163e-22
0.000252653 0.0025799 5.163e-22 -2.12588e-05 0.00216611 -1.03548e-21 -2.12588e-05 0.00216611 -1.03548e-21 -2.27778e-05
0.00165479 0 -2.27778e-05 0.00165479 0 -0.000471056 0.00264629 -2.07511e-21 -0.000471056 0.00264629
-2.07511e-21 -0.000967759 0.00605776 -3.18889e-24 -0.000967759 0.00605776 -3.18889e-24 -0.00101451 0.00980496 2.07192e-21
-0.00101451 0.00980496 2.07192e-21 -0.000915695 0.0136984 -2.05959e-21 -0.000915695 0.0136984 -2.05959e-21 -0.000772927
0.0173787 -2.61545e-24 -0.000772927 0.0173787 -2.61545e-24 -0.000594241 0.0206141 2.05697e-21 -0.000594241 0.0206141
2.05697e-21 -0.000370695 0.0231487 2.05076e-21 -0.000370695 0.0231487 2.05076e-21 -8.62818e-05 0.0247932 1.17724e-24
-8.62818e-05 0.0247932 1.17724e-24 0.000284068 0.0251799 -2.08591e-21 0.000284068 0.0251799 -2.08591e-21 0.000840038
0.0238301 0 0.000840038 0.0238301 0 0.00146315 0.0203785 0 0.00146315 0.0203785
0 0.00242896 0.0151773 0 0.00242896 0.0151773 0 0.00276783 0.00715232 0
0.00276783 0.00715232 0 0.000466301 -0.000488107 0 0.000466301 -0.000488107 0 -0.00056484
-0.00302101 0 -0.00056484 -0.00302101 0 0.000629494 -0.00415504 0 0.000629494 -0.00415504
0 -0.00023652 -0.00493594 0 -0.00023652 -0.00493594 0 -0.0021525 -0.00372634 0
-0.0021525 -0.00372634 0 -0.00208298 -0.000470412 0 -0.00208298 -0.000470412 0 -0.00167014
0.00212876 0 -0.00167014 0.00212876 0 -0.000984162 0.000880785 1.23806e-24 -0.000984162 0.000880785
1.23806e-24 -0.00173243 0.000549435 -1.20065e-22 -0.00173243 0.000549435 -1.20065e-22 -0.00226581 0.000227134 0
-0.00226581 0.000227134 0 -0.00247913 -0.000116556 0 -0.00247913 -0.000116556 0 -0.00231071
-0.000460849 1.16416e-22 -0.00231071 -0.000460849 1.16416e-22 -0.00186557 -0.000717792 1.16625e-22 -0.00186557 -0.000717792
1.16625e-22 -0.00124117 -0.000839381 0 -0.00124117 -0.000839381 0 -0.000547691 -0.000826117 0
-0.000547691 -0.000826117 0 0.000114525 -0.00073695 0 0.000114525 -0.00073695 0 0.000698866
-0.000610185 -1.12632e-22 0.000698866 -0.000610185 -1.12632e-22 0.00117695 -0.000469783 -1.12847e-22 0.00117695 -0.000469783
-1.12847e-22 0.00156496 -0.000353597 0 0.00156496 -0.000353597 0 0.00187358 -0.000272171 0
0.00187358 -0.000272171 0 0.00212712 -0.000226677 0 0.00212712 -0.000226677 0 0.00234771
-0.000211055 -1.08394e-22 0.00234771 -0.000211055 -1.08394e-22 0.00255343 -0.000217276 -1.08613e-22 0.00255343 -0.000217276
-1.08613e-22 0.00276156 -0.000237741 0 0.00276156 -0.000237741 0 0.00298787 -0.000266268 0
0.00298787 -0.000266268 0 0.00324375 -0.000300014 0 0.00324375 -0.000300014 0 0.0035374
-0.000336257 0 0.0035374 -0.000336257 0 0.00387303 -0.000372194 0 0.00387303 -0.000372194
0 0.0042531 -0.000407707 0 0.0042531 -0.000407707 0 0.004679 -0.000438509 -1.01764e-22
0.004679 -0.000438509 -1.01764e-22 0.00514529 -0.000464332 -1.10307e-24 0.00514529 -0.000464332 -1.10307e-24 0.00564862
-0.000485246 1.11697e-24 0.00564862 -0.000485246 1.11697e-24 0.00617924 -0.000492062 -1.99313e-22 0.00617924 -0.000492062
-1.99313e-22 0.00672009 -0.000491621 -9.93188e-23 0.00672009 -0.000491621 -9.93188e-23 0.00726447 -0.000473717 0
0.00726447 -0.000473717 0 0.00778503 -0.000432792 9.63683e-23 0.00778503 -0.000432792 9.63683e-23 0.00826895
-0.000384733 1.92074e-22 0.00826895 -0.000384733 1.92074e-22 0.00869537 -0.000294909 9.57063e-23 0.00869537 -0.000294909
9.57063e-23 0.00902649 -0.000199131 0 0.00902649 -0.000199131 0 0.00926782 -6.40572e-05 9.30038e-23
0.00926782 -6.40572e-05 9.30038e-23 0.00934669 0.000125777 9.32329e-23 0.00934669 0.000125777 9.32329e-23 0.00926899
0.00030648 0 0.00926899 0.00030648 0 0.00893921 0.000648737 -9.09453e-23 0.00893921 0.000648737
-9.09453e-23 0.00827965 0.000916381 -9.11765e-23 0.00827965 0.000916381 -9.11765e-23 0.00739979 0.0013292 -8.98814e-23
0.00739979 0.0013292 -8.98814e-23 0.00588351 0.00207412 -2.68906e-22 0.00588351 0.00207412 -2.68906e-22 0.00376281
0.00183767 -1.7926e-22 0.00376281 0.00183767 -1.7926e-22 0.00183022 0.000851171 0 0.00183022 0.000851171
0 0.000396977 0.000472467 0 0.000396977 0.000472467 0 -0.000711318 0.000555148 0
-0.000711318 0.000555148 0 -0.00181395 0.000690258 0 -0.00181395 0.000690258 0 -0.00302852
0.000777979 -1.68307e-22 -0.00302852 0.000777979 -1.68307e-22 -0.00413549 0.000673221 -3.35165e-22 -0.00413549 0.000673221
-3.35165e-22 -0.00483863 0.000342534 -3.31755e-22 -0.00483863 0.000342534 -3.31755e-22 -0.00496361 -0.000138694 -1.65367e-22
-0.00496361 -0.000138694 -1.65367e-22 -0.00448224 -0.000709925 1.62703e-22 -0.00448224 -0.000709925 1.62703e-22 -0.00335277
-0.00132416 1.63174e-22 -0.00335277 -0.00132416 1.63174e-22 -0.00155663 -0.00194111 -1.61517e-22 -0.00155663 -0.00194111
-1.61517e-22 0.000859227 -0.0022917 -3.22329e-22 0.000859227 -0.0022917 -3.22329e-22 0.00337786 -0.0020268 -1.60813e-22
0.00337786 -0.0020268 -1.60813e-22 0.0054342 -0.00126206 0 0.0054342 -0.00126206 0 0.00675506
-0.000236675 0 0.00675506 -0.000236675 0 0.00635608 0.000955401 -1.54213e-22 0.00635608 0.000955401
-1.54213e-22 0.00470938 0.00119985 -1.5469e-22 0.00470938 0.00119985 -1.5469e-22 0.0037807 7.02593e-05 0
0.0037807 7.02593e-05 0 0.00352893 -0.000514139 0 0.00352893 -0.000514139 0 0.00269405
0.000272303 0 0.00269405 0.000272303 0 0.00117403 0.00100911 0 0.00117403 0.00100911
0 -0.000361734 0.00103343 0 -0.000361734 0.00103343 0 -0.00167218 0.000865183 0
-0.00167218 0.000865183 0 -0.00282389 0.000746023 0 -0.00282389 0.000746023 0 -0.0038661
0.000669331 1.40766e-22 -0.0038661 0.000669331 1.40766e-22 -0.00484122 0.000622585 1.41239e-22 -0.00484122 0.000622585
1.41239e-22 -0.00578113 0.000598672 0 -0.00578113 0.000598672 0 -0.00670443 0.00059168 -1.34968e-22
-0.00670443 0.00059168 -1.34968e-22 -0.00762489 0.000594856 -2.6848e-22 -0.00762489 0.000594856 -2.6848e-22 -0.00854788
0.000601631 -1.33509e-22 -0.00854788 0.000601631 -1.33509e-22 -0.00947329 0.000606028 1.29222e-22 -0.00947329 0.000606028
1.29222e-22 -0.0103942 0.000603246 2.35826e-24 -0.0103942 0.000603246 2.35826e-24 -0.0113008 0.000590383 -1.27775e-22
-0.0113008 0.000590383 -1.27775e-22 -0.0121815 0.000567457 1.23555e-22 -0.0121815 0.000567457 1.23555e-22 -0.0130257
0.000536314 1.24004e-22 -0.0130257 0.000536314 1.24004e-22 -0.0138246 0.00049946 0 -0.0138246 0.00049946
0 -0.0145718 0.000458987 -1.1807e-22 -0.0145718 0.000458987 -1.1807e-22 -0.0152623 0.000416415 -1.18509e-22
-0.0152623 0.000416415 -1.18509e-22 -0.0158927 0.000372891 1.14597e-22 -0.0158927 0.000372891 1.14597e-22 -0.0164607
0.000329472 1.1503e-22 -0.0164607 0.000329472 1.1503e-22 -0.0169649 0.000286797 -1.11343e-22 -0.0169649 0.000286797
-1.11343e-22 -0.017404 0.000244719 -2.21588e-22 -0.017404 0.000244719 -2.21588e-22 -0.0177763 0.000202635 -2.1861e-22
-0.0177763 0.000202635 -2.1861e-22 -0.0180795 0.000160578 -3.22788e-22 -0.0180795 0.000160578 -3.22788e-22 -0.0183115
0.000119037 -3.40591e-24 -0.0183115 0.000119037 -3.40591e-24 -0.0184704 7.77424e-05 2.1227e-22 -0.0184704 7.77424e-05
2.1227e-22 -0.0185536 3.69784e-05 0 -0.0185536 3.69784e-05 0 -0.0185619 -2.58e-06 0
-0.0185619 -2.58e-06 0 -0.0184974 -4.1199e-05 2.02945e-22 -0.0184974 -4.1199e-05 2.02945e-22 -0.0183599
-7.8867e-05 4.05037e-22 -0.0183599 -7.8867e-05 4.05037e-22 -0.0181498 -0.000115106 2.34365e-24 -0.0181498 -0.000115106
2.34365e-24 -0.0178685 -0.000149598 -2.00574e-22 -0.0178685 -0.000149598 -2.00574e-22 -0.0175183 -0.000182054 1.97158e-22
-0.0175183 -0.000182054 1.97158e-22 -0.0171022 -0.000212078 3.94038e-22 -0.0171022 -0.000212078 3.94038e-22 -0.0166239
-0.000239413 3.91934e-22 -0.0166239 -0.000239413 3.91934e-22 -0.0160879 -0.00026386 1.95882e-22 -0.0160879 -0.00026386
1.95882e-22 -0.0154992 -0.000285292 0 -0.0154992 -0.000285292 0 -0.0148627 -0.000303707 0
-0.0148627 -0.000303707 0 -0.014184 -0.000319174 1.91696e-22 -0.014184 -0.000319174 1.91696e-22 -0.0134681
-0.000331828 1.92535e-22 -0.0134681 -0.000331828 1.92535e-22 -0.0127202 -0.000341868 0 -0.0127202 -0.000341868
0 -0.0119451 -0.000349522 -1.89377e-22 -0.0119451 -0.000349522 -1.89377e-22 -0.0111471 -0.000355009 -1.90223e-22
-0.0111471 -0.000355009 -1.90223e-22 -0.0103304 -0.000358561 0 -0.0103304 -0.000358561 0 -0.00949871
-0.00036039 -1.86831e-22 -0.00949871 -0.00036039 -1.86831e-22 -0.00865566 -0.000360599 -1.87682e-22 -0.00865566 -0.000360599
-1.87682e-22 -0.00780488 -0.000359193 0 -0.00780488 -0.000359193 0 -0.00695005 -0.000356112 1.83828e-22
-0.00695005 -0.000356112 1.83828e-22 -0.00609515 -0.000351191 3.67378e-22 -0.00609515 -0.000351191 3.67378e-22 -0.00524461
-0.0003442 1.8355e-22 -0.00524461 -0.0003442 1.8355e-22 -0.0044034 -0.00033499 -1.8021e-22 -0.0044034 -0.00033499
-1.8021e-22 -0.00357699 -0.000323517 -1.81062e-22 -0.00357699 -0.000323517 -1.81062e-22 -0.00277119 -0.000309672 1.77407e-22
-0.00277119 -0.000309672 1.77407e-22 -0.00199192 -0.000293256 1.78256e-22 -0.00199192 -0.000293256 1.78256e-22 -0.00124463
-0.000275285 1.74287e-22 -0.00124463 -0.000275285 1.74287e-22 -0.000535574 -0.000256767 3.47732e-22 -0.000535574 -0.000256767
3.47732e-22 0.000129663 -0.000237349 1.73442e-22 0.000129663 -0.000237349 1.73442e-22 0.000748925 -0.000216847 0
0.000748925 -0.000216847 0 0.00132109 -0.000195805 0 0.00132109 -0.000195805 0 0.00184466
-0.000174938 0 0.00184466 -0.000174938 0 0.00231896 -0.000154725 0 0.00231896 -0.000154725
0 0.00274495 -0.000135646 0 0.00274495 -0.000135646 0 0.00312482 -0.000118121 0
0.00312482 -0.000118121 0 0.00346203 -0.000102517 1.56766e-22 0.00346203 -0.000102517 1.56766e-22 0.00376123
-8.91531e-05 2.83678e-24 0.00376123 -8.91531e-05 2.83678e-24 0.00402831 -7.83295e-05 -1.5552e-22 0.00402831 -7.83295e-05
-1.5552e-22 0.0042703 -7.03507e-05 0 0.0042703 -7.03507e-05 0 0.00449528 -6.54664e-05 0
0.00449528 -6.54664e-05 0 0.00471217 -6.37849e-05 0 0.00471217 -6.37849e-05 0 0.00493034
-6.52338e-05 -2.89465e-22 0.00493034 -6.52338e-05 -2.89465e-22 0.00515914 -6.95289e-05 -2.90985e-22 0.00515914 -6.95289e-05
-2.90985e-22 0.00540718 -7.61248e-05 2.81785e-22 0.00540718 -7.61248e-05 2.81785e-22 0.00568134 -8.4145e-05 5.25015e-24
0.00568134 -8.4145e-05 5.25015e-24 0.00598569 -9.23381e-05 -2.79512e-22 0.00598569 -9.23381e-05 -2.79512e-22 0.0063203
-9.92057e-05 0 0.0063203 -9.92057e-05 0 0.0066805 -0.00010341 0 0.0066805 -0.00010341
0 0.00705715 -0.00010421 2.63518e-22 0.00705715 -0.00010421 2.63518e-22 0.00743794 -0.000101059 5.24935e-22
0.00743794 -0.000101059 5.24935e-22 0.00780855 -9.25727e-05 2.61404e-22 0.00780855 -9.25727e-05 2.61404e-22 0.00815349
-7.75383e-05 2.52997e-22 0.00815349 -7.75383e-05 2.52997e-22 0.00845919 -5.77919e-05 5.0393e-22 0.00845919 -5.77919e-05
5.0393e-22 0.0087179 -3.80881e-05 4.81224e-24 0.0087179 -3.80881e-05 4.81224e-24 0.00892854 -2.24658e-05 -2.47476e-22
0.00892854 -2.24658e-05 -2.47476e-22 0.00909474 -1.07842e-05 0 0.00909474 -1.07842e-05 0 0.00921877
2.35967e-06 -2.3599e-22 0.00921877 2.35967e-06 -2.3599e-22 0.00929516 2.11972e-05 -2.3732e-22 0.00929516 2.11972e-05
-2.3732e-22 0.00932188 3.90577e-05 0 0.00932188 3.90577e-05 0 0.00931129 4.92598e-05 0
0.00931129 4.92598e-05 0 0.00926699 6.64163e-05 0 0.00926699 6.64163e-05 0 0.00915656
0.000113866 2.19685e-22 0.00915656 0.000113866 2.19685e-22 0.00892904 0.000186381 4.37446e-22 0.00892904 0.000186381
4.37446e-22 0.00856816 0.000245226 2.17748e-22 0.00856816 0.000245226 2.17748e-22 0.00811848 0.000257343 2.10161e-22
0.00811848 0.000257343 2.10161e-22 0.00765268 0.000222905 2.11383e-22 0.00765268 0.000222905 2.11383e-22 0.00722646
0.000162099 0 0.00722646 0.000162099 0 0.0068674 9.5296e-05 2.00729e-22 0.0068674 9.5296e-05
2.00729e-22 0.00658749 3.82504e-05 2.01911e-22 0.00658749 3.82504e-05 2.01911e-22 0.00639173 -1.66108e-07 1.94501e-22
0.00639173 -1.66108e-07 1.94501e-22 0.00627617 -2.04927e-05 1.95654e-22 0.00627617 -2.04927e-05 1.95654e-22 0.00622425
-2.99239e-05 0 0.00622425 -2.99239e-05 0 0.00620796 -3.41686e-05 1.85256e-22 0.00620796 -3.41686e-05
1.85256e-22 0.00619374 -2.91086e-05 1.86366e-22 0.00619374 -2.91086e-05 1.86366e-22 0.00614856 -4.92034e-06 1.79121e-22
0.00614856 -4.92034e-06 1.79121e-22 0.00604416 3.91104e-05 1.80203e-22 0.00604416 3.91104e-05 1.80203e-22 0.0058667