/*--------------------------------*- C++ -*----------------------------------*\
  =========                 |
  \\      /  F ield         | OpenFOAM: The Open Source CFD Toolbox
   \\    /   O peration     | Website:  https://openfoam.org
    \\  /    A nd           | Version:  9
     \\/     M anipulation  |
\*---------------------------------------------------------------------------*/
FoamFile
{
    format      ascii;
    class       volScalarField;
    location    "0.013";
    object      k_0;
}
// * * * * * * * * * * * * * * * * * * * * * * * * * * * * * * * * * * * * * //

dimensions      [0 2 -2 0 0 0 0];

internalField   nonuniform List<scalar> 
12225
(
2.03616e-05
3.92638e-05
0.000152021
0.00029195
0.000328088
0.000317891
0.000238682
0.00013551
7.68267e-05
4.6358e-05
3.28605e-05
2.88188e-05
2.87641e-05
3.20591e-05
4.52826e-05
5.92806e-05
6.30125e-05
7.17429e-05
2.00392e-05
2.23674e-05
3.617e-05
6.05935e-05
7.32312e-05
7.65734e-05
7.46047e-05
6.4153e-05
4.95223e-05
3.88809e-05
3.16104e-05
2.72819e-05
2.53887e-05
2.51405e-05
2.55089e-05
2.67256e-05
3.02219e-05
3.46845e-05
2.00205e-05
1.64082e-05
1.77642e-05
1.94257e-05
1.96071e-05
1.90266e-05
1.83305e-05
1.78401e-05
1.76575e-05
1.78762e-05
1.81623e-05
1.81495e-05
1.80637e-05
1.77995e-05
1.76918e-05
1.77135e-05
1.78713e-05
1.84339e-05
2.00069e-05
1.9954e-05
1.99587e-05
1.99641e-05
1.99229e-05
1.97477e-05
1.92265e-05
1.75466e-05
1.60724e-05
1.6014e-05
1.63304e-05
1.63536e-05
1.58697e-05
1.33576e-05
9.55426e-06
7.24119e-06
6.23096e-06
6.01674e-06
2.03288e-05
2.03375e-05
2.0277e-05
2.04112e-05
2.15184e-05
2.5347e-05
2.71743e-05
2.7005e-05
2.53948e-05
2.33936e-05
2.25274e-05
2.2083e-05
2.14751e-05
2.05422e-05
1.93012e-05
1.77443e-05
1.66425e-05
1.63977e-05
2.47609e-05
2.68128e-05
2.39085e-05
2.13029e-05
2.09688e-05
2.15246e-05
2.3145e-05
2.38843e-05
2.40617e-05
2.41715e-05
2.4278e-05
2.42967e-05
2.42374e-05
2.40188e-05
2.34761e-05
2.29953e-05
2.2778e-05
2.26336e-05
2.12893e-05
3.18381e-05
3.2568e-05
2.66656e-05
2.27112e-05
2.2091e-05
2.22531e-05
2.25659e-05
2.27263e-05
2.31495e-05
2.39087e-05
2.44667e-05
2.5206e-05
2.61095e-05
2.69682e-05
2.74536e-05
2.7389e-05
2.619e-05
2.2741e-05
3.60846e-05
3.52761e-05
2.7927e-05
2.34822e-05
2.19e-05
2.12005e-05
2.09794e-05
2.09532e-05
2.10563e-05
2.17061e-05
2.46512e-05
3.3894e-05
4.03801e-05
4.20757e-05
4.16044e-05
3.78073e-05
3.23331e-05
2.04976e-05
2.30675e-05
2.29858e-05
2.24329e-05
2.23368e-05
2.20384e-05
2.09954e-05
2.04783e-05
2.03534e-05
2.03671e-05
2.0544e-05
2.12745e-05
2.34944e-05
3.11188e-05
4.52162e-05
5.35667e-05
5.51204e-05
5.25208e-05
2.12499e-05
2.0546e-05
2.13435e-05
2.51847e-05
2.65546e-05
2.56566e-05
2.28968e-05
2.1614e-05
2.13579e-05
2.14481e-05
2.21318e-05
2.40219e-05
2.58679e-05
2.75674e-05
2.93548e-05
3.15376e-05
3.42536e-05
3.59337e-05
2.00891e-05
2.00457e-05
2.04062e-05
2.26817e-05
2.44757e-05
2.41783e-05
2.27476e-05
2.17877e-05
2.14076e-05
2.13178e-05
2.13196e-05
2.13755e-05
2.15269e-05
2.17084e-05
2.2053e-05
2.30163e-05
2.44847e-05
2.53699e-05
2.12331e-05
2.03214e-05
2.10786e-05
2.1682e-05
2.17087e-05
2.17091e-05
2.16275e-05
2.15354e-05
2.14697e-05
2.13243e-05
2.11673e-05
2.11035e-05
2.11037e-05
2.11784e-05
2.15583e-05
2.30857e-05
2.46933e-05
2.53907e-05
2.09926e-05
2.08524e-05
2.44646e-05
2.77679e-05
2.77728e-05
2.68275e-05
2.39895e-05
2.26177e-05
2.22676e-05
2.22277e-05
2.22475e-05
2.23143e-05
2.24796e-05
2.32647e-05
2.531e-05
2.61141e-05
2.61219e-05
2.59382e-05
2.34539e-05
2.26026e-05
2.23432e-05
2.21702e-05
2.18311e-05
2.0998e-05
2.06303e-05
2.05827e-05
2.07086e-05
2.11702e-05
2.15183e-05
2.16937e-05
2.17832e-05
2.19133e-05
2.21658e-05
2.28475e-05
2.35911e-05
2.41778e-05
2.07648e-05
2.10299e-05
2.10739e-05
2.09779e-05
2.04968e-05
2.03855e-05
2.03843e-05
2.0474e-05
2.09444e-05
2.29767e-05
2.51867e-05
2.55457e-05
2.54093e-05
2.50159e-05
2.45824e-05
2.4336e-05
2.41688e-05
2.41218e-05
2.13184e-05
2.06726e-05
2.02915e-05
2.01792e-05
2.02024e-05
2.03497e-05
2.09411e-05
2.11413e-05
2.14312e-05
2.32132e-05
2.88094e-05
3.13147e-05
3.12376e-05
2.98442e-05
2.81611e-05
2.70202e-05
2.60607e-05
2.48503e-05
2.16725e-05
2.15051e-05
2.09187e-05
2.05665e-05
2.04767e-05
2.04576e-05
2.04625e-05
2.05324e-05
2.0961e-05
2.30256e-05
2.51292e-05
2.58283e-05
2.61543e-05
2.69786e-05
2.93703e-05
3.08374e-05
3.10363e-05
3.04129e-05
2.22666e-05
2.52681e-05
2.48219e-05
2.23113e-05
2.13225e-05
2.08193e-05
2.06474e-05
2.06801e-05
2.11034e-05
2.33857e-05
2.66581e-05
2.77015e-05
2.76495e-05
2.76008e-05
2.81334e-05
3.10462e-05
3.50808e-05
3.72134e-05
2.04998e-05
2.11819e-05
2.12119e-05
2.12185e-05
2.13545e-05
2.11408e-05
2.09844e-05
2.10722e-05
2.18026e-05
2.53178e-05
2.94686e-05
3.04978e-05
3.01151e-05
2.88074e-05
2.80864e-05
2.77545e-05
2.76356e-05
2.76452e-05
2.13241e-05
2.23417e-05
2.23909e-05
2.25201e-05
2.23646e-05
2.13507e-05
2.07935e-05
2.06957e-05
2.07357e-05
2.0983e-05
2.16926e-05
2.37041e-05
2.57765e-05
2.6907e-05
2.69559e-05
2.63023e-05
2.45571e-05
2.3434e-05
2.08005e-05
2.10975e-05
2.11672e-05
2.10653e-05
2.07569e-05
2.07346e-05
2.09418e-05
2.11594e-05
2.1165e-05
2.11816e-05
2.12728e-05
2.1635e-05
2.20296e-05
2.22407e-05
2.23116e-05
2.23199e-05
2.23092e-05
2.22354e-05
2.11584e-05
2.22299e-05
2.20605e-05
2.11317e-05
2.08356e-05
2.09545e-05
2.19505e-05
2.54219e-05
2.81295e-05
2.89512e-05
2.86743e-05
2.70334e-05
2.50661e-05
2.39989e-05
2.35093e-05
2.33321e-05
2.32898e-05
2.32901e-05
2.17569e-05
2.17714e-05
2.15229e-05
2.12112e-05
2.1632e-05
2.46706e-05
4.16534e-05
6.55168e-05
7.0597e-05
6.79951e-05
5.10951e-05
3.56699e-05
2.80685e-05
2.43888e-05
2.26233e-05
2.17668e-05
2.13224e-05
2.10815e-05
2.23161e-05
2.18171e-05
2.13662e-05
2.15075e-05
2.29367e-05
2.75821e-05
3.69217e-05
4.4549e-05
4.61681e-05
4.22935e-05
3.39464e-05
3.00336e-05
2.8481e-05
2.7779e-05
2.71569e-05
2.59305e-05
2.44366e-05
2.32153e-05
2.02905e-05
2.02294e-05
2.0293e-05
2.06133e-05
2.21936e-05
2.71632e-05
3.05852e-05
3.11993e-05
2.99233e-05
2.83086e-05
2.84939e-05
3.15766e-05
4.60897e-05
6.00513e-05
6.31182e-05
6.11782e-05
5.03873e-05
3.92113e-05
2.00359e-05
2.08463e-05
2.20486e-05
2.23862e-05
2.23433e-05
2.19835e-05
2.17152e-05
2.16518e-05
2.17276e-05
2.23455e-05
2.50687e-05
2.73645e-05
2.78228e-05
2.76667e-05
2.66448e-05
2.42618e-05
2.24065e-05
2.14353e-05
2.00287e-05
2.00186e-05
1.99587e-05
1.97779e-05
1.9208e-05
1.90551e-05
1.92398e-05
1.96734e-05
2.03557e-05
2.09054e-05
2.11571e-05
2.12015e-05
2.11761e-05
2.10259e-05
2.05271e-05
1.90414e-05
1.48153e-05
1.09777e-05
2.00013e-05
1.62764e-05
1.23287e-05
1.19513e-05
1.20714e-05
1.23891e-05
1.30608e-05
1.42119e-05
1.52404e-05
1.58346e-05
1.60216e-05
1.59998e-05
1.56345e-05
1.44186e-05
1.33463e-05
1.2582e-05
1.21105e-05
1.18501e-05
2.00305e-05
2.07822e-05
2.32207e-05
2.40487e-05
2.38682e-05
2.30108e-05
2.26761e-05
2.27258e-05
2.31924e-05
2.3657e-05
2.39606e-05
2.45169e-05
2.53534e-05
2.59789e-05
2.61943e-05
2.61983e-05
2.61432e-05
2.59813e-05
2.69544e-05
3.1675e-05
5.76057e-05
6.43456e-05
6.00909e-05
4.73421e-05
4.28982e-05
4.27192e-05
4.3929e-05
4.44625e-05
4.41822e-05
4.25434e-05
4.06982e-05
3.8864e-05
3.65949e-05
3.41951e-05
3.20648e-05
3.05712e-05
4.80185e-06
2.68465e-05
7.85574e-05
0.000188513
0.00033437
0.000496592
0.000667811
0.000859008
0.0010869
0.00137723
0.00178178
0.00231069
0.00292999
0.00356248
0.00411814
0.00453268
0.00480736
0.00498445
0.00511214
0.00523786
0.00537313
0.00557269
0.00582036
0.00613245
0.00651463
0.00697917
0.00725184
0.00734823
0.00716384
0.00670271
0.00602667
0.00511829
0.00419719
0.00334102
0.00243408
0.00167793
0.00125848
0.000726239
0.000501798
0.000342858
0.000263514
0.000232717
0.000229387
0.000234473
0.00023479
0.000230615
0.000222134
0.000215743
0.000207126
0.000199386
0.000191109
0.00018183
0.000173328
0.000159664
0.000151934
0.000145085
0.000138761
0.000125713
0.000115923
0.000110848
0.000101553
9.01233e-05
8.40619e-05
7.37205e-05
6.51847e-05
5.63516e-05
4.79237e-05
3.98061e-05
3.20114e-05
2.54196e-05
2.06693e-05
1.73716e-05
1.47915e-05
1.26585e-05
1.08218e-05
9.20922e-06
7.78616e-06
6.53352e-06
5.43992e-06
4.4953e-06
3.68822e-06
3.00476e-06
2.43036e-06
1.95106e-06
1.55435e-06
1.22882e-06
9.63778e-07
7.49748e-07
5.78438e-07
4.42565e-07
3.3575e-07
2.52477e-07
1.88086e-07
1.38733e-07
1.0128e-07
7.31587e-08
5.22764e-08
3.69447e-08
2.5818e-08
1.78382e-08
1.2184e-08
8.22658e-09
5.49113e-09
3.62386e-09
2.36498e-09
1.52662e-09
9.74963e-10
6.16182e-10
3.85526e-10
2.38802e-10
1.46669e-10
8.95086e-11
5.42907e-11
3.27361e-11
1.96278e-11
1.17049e-11
6.9433e-12
4.09792e-12
2.4069e-12
1.40717e-12
8.19107e-13
4.7485e-13
2.74232e-13
1.57812e-13
9.05176e-14
5.17609e-14
2.95188e-14
1.67998e-14
9.55418e-15
5.44393e-15
3.12325e-15
1.81984e-15
1.09202e-15
6.88273e-16
4.66059e-16
3.4507e-16
2.80329e-16
2.46793e-16
2.30574e-16
2.23914e-16
2.22119e-16
2.22045e-16
2.22045e-16
2.22045e-16
2.22045e-16
2.22045e-16
2.22045e-16
2.22045e-16
2.22045e-16
2.22045e-16
2.22045e-16
2.22045e-16
2.22045e-16
2.22045e-16
2.22045e-16
2.22045e-16
2.22045e-16
2.22045e-16
2.22045e-16
2.22045e-16
2.22045e-16
2.22045e-16
2.22045e-16
2.22045e-16
2.22045e-16
2.22045e-16
2.22045e-16
2.22045e-16
2.22045e-16
2.22045e-16
2.22045e-16
2.22045e-16
2.22045e-16
2.22045e-16
2.22045e-16
2.49542e-16
1.12359e-15
2.514e-13
2.49286e-10
2.54184e-07
2.58094e-05
0.00013028
0.000347201
0.000701348
0.00119216
0.00171152
0.00221139
0.00270756
0.00318933
0.0036237
0.00400125
0.0043289
0.00460834
0.00484297
0.0049806
0.00502076
0.00501778
0.00495084
0.00483688
0.00462402
0.00436988
0.00406824
0.00381912
0.00359788
0.00338749
0.00315118
0.00286134
0.00254466
0.00218593
0.00185521
0.00154332
0.0012464
0.00105586
0.000923696
0.000842791
0.000811914
0.000806255
0.000828591
0.000878892
0.000939395
0.000989749
0.00103144
0.00104774
0.00105267
0.00104263
0.000992829
0.00094065
0.000898547
0.000837512
0.000786954
0.000745794
0.000698219
0.000653748
0.000594753
0.000564227
0.000530267
0.000505253
0.000461569
0.000436389
0.000416877
0.000383058
0.000358319
0.000335348
0.000308454
0.000284682
0.000258603
0.000231753
0.000206065
0.000177316
0.000135251
9.95369e-05
8.15807e-05
6.93726e-05
6.03006e-05
5.29612e-05
4.66372e-05
4.10597e-05
3.59459e-05
3.11191e-05
2.66618e-05
2.2639e-05
1.90682e-05
1.59454e-05
1.32424e-05
1.09174e-05
8.93465e-06
7.25038e-06
5.83342e-06
4.659e-06
3.69806e-06
2.92041e-06
2.29648e-06
1.79821e-06
1.39944e-06
1.08083e-06
8.27864e-07
6.28589e-07
4.72943e-07
3.52464e-07
2.60085e-07
1.89956e-07
1.37272e-07
9.81255e-08
6.93698e-08
4.84953e-08
3.3523e-08
2.29131e-08
1.5485e-08
1.03474e-08
6.83746e-09
4.46871e-09
2.88945e-09
1.84918e-09
1.17188e-09
7.35715e-10
4.57844e-10
2.82417e-10
1.72903e-10
1.05116e-10
6.34773e-11
3.80873e-11
2.27138e-11
1.34672e-11
7.94067e-12
4.65716e-12
2.71714e-12
1.577e-12
9.1044e-13
5.22799e-13
2.98599e-13
1.69669e-13
9.59639e-14
5.40792e-14
3.04128e-14
1.71088e-14
9.66107e-15
5.50325e-15
3.18445e-15
1.88998e-15
1.16521e-15
7.57836e-16
5.27977e-16
3.97695e-16
3.23505e-16
2.81057e-16
2.56656e-16
2.42555e-16
2.34353e-16
2.29543e-16
2.26692e-16
2.24981e-16
2.23936e-16
2.23286e-16
2.22873e-16
2.22605e-16
2.22429e-16
2.22311e-16
2.2223e-16
2.22174e-16
2.22133e-16
2.22103e-16
2.22082e-16
2.22068e-16
2.22058e-16
2.22052e-16
2.22048e-16
2.22046e-16
2.22045e-16
2.22045e-16
2.22045e-16
2.22045e-16
2.22045e-16
2.22045e-16
2.22045e-16
2.22066e-16
2.22858e-16
2.64962e-16
1.96113e-14
2.0988e-11
1.95102e-08
3.95838e-05
0.000184905
0.000427851
0.000703915
0.00100605
0.00133588
0.00173555
0.00211688
0.00243228
0.00269879
0.00292625
0.00310841
0.00324939
0.00332051
0.00334177
0.00327398
0.00312061
0.0028811
0.00256125
0.00224389
0.00199622
0.00181161
0.00165142
0.00151094
0.00140152
0.00130697
0.00122087
0.00115937
0.00111298
0.00109015
0.00108165
0.00108668
0.0011311
0.0012195
0.00136992
0.00158558
0.00185059
0.00209241
0.00230651
0.00245943
0.00259659
0.00267707
0.00271217
0.00272229
0.00268247
0.00251472
0.00233378
0.0021931
0.00199983
0.00182807
0.0016985
0.00154502
0.00142984
0.00127651
0.00111938
0.000992392
0.000908077
0.000831597
0.000780158
0.000707689
0.000642877
0.000612119
0.000562606
0.000521413
0.000473619
0.000426882
0.00038166
0.000338011
0.000294366
0.000250282
0.000208091
0.000167031
0.000133053
0.000110074
9.49485e-05
8.26289e-05
7.20908e-05
6.30694e-05
5.5193e-05
4.81467e-05
4.19646e-05
3.64678e-05
3.14793e-05
2.69864e-05
2.29962e-05
1.94373e-05
1.62913e-05
1.35497e-05
1.11978e-05
9.20488e-06
7.52665e-06
6.11962e-06
4.94595e-06
3.9744e-06
3.17509e-06
2.52063e-06
1.98742e-06
1.5554e-06
1.20754e-06
9.29442e-07
7.08873e-07
5.35456e-07
4.00395e-07
2.96282e-07
2.1691e-07
1.5709e-07
1.12514e-07
7.96731e-08
5.57713e-08
3.8601e-08
2.64314e-08
1.79205e-08
1.2043e-08
8.03004e-09
5.31705e-09
3.4982e-09
2.28753e-09
1.48642e-09
9.59584e-10
6.1496e-10
3.91195e-10
2.47033e-10
1.54823e-10
9.62811e-11
5.94001e-11
3.63489e-11
2.20588e-11
1.32748e-11
7.92233e-12
4.69002e-12
2.7556e-12
1.60812e-12
9.3314e-13
5.39091e-13
3.10526e-13
1.7861e-13
1.02733e-13
5.91645e-14
3.41552e-14
1.97873e-14
1.15211e-14
6.75768e-15
4.00906e-15
2.42143e-15
1.50373e-15
9.72826e-16
6.65164e-16
4.86285e-16
3.81715e-16
3.20097e-16
2.83387e-16
2.61191e-16
2.47517e-16
2.3892e-16
2.33409e-16
2.29817e-16
2.27435e-16
2.25817e-16
2.24685e-16
2.23878e-16
2.23296e-16
2.22881e-16
2.22593e-16
2.22401e-16
2.22276e-16
2.22197e-16
2.22148e-16
2.22118e-16
2.221e-16
2.22087e-16
2.22084e-16
2.22087e-16
2.22118e-16
2.22277e-16
2.23471e-16
2.31392e-16
3.76104e-16
1.60813e-15
8.74631e-13
7.23695e-10
3.87318e-05
0.00017192
0.000358181
0.000504176
0.000633001
0.000792894
0.000953058
0.00111289
0.00123807
0.0013395
0.0014276
0.00149526
0.0015413
0.00156122
0.00156404
0.00151732
0.00144248
0.00134688
0.00125249
0.00118025
0.00114235
0.00112305
0.00111674
0.001131
0.001149
0.00117304
0.00120134
0.00123633
0.00131974
0.0014641
0.00167606
0.00193051
0.00223702
0.00256461
0.00286875
0.00317347
0.00342173
0.00362193
0.00376877
0.00383357
0.00386341
0.00387081
0.00385353
0.0037585
0.00359776
0.00341595
0.00318118
0.00289031
0.00266808
0.00251281
0.00232254
0.00217275
0.00210577
0.0019979
0.00183646
0.00170398
0.0015338
0.00139099
0.00127406
0.00111061
0.000959674
0.000853651
0.000736899
0.000643556
0.000561608
0.000491368
0.000431975
0.000379978
0.000333846
0.000292582
0.000254769
0.000219198
0.000185025
0.000154026
0.000127687
0.000105712
8.79765e-05
7.38014e-05
6.25715e-05
5.36596e-05
4.64315e-05
4.04669e-05
3.53092e-05
3.0549e-05
2.62702e-05
2.23919e-05
1.89913e-05
1.60985e-05
1.36018e-05
1.14303e-05
9.54849e-06
7.93015e-06
6.54938e-06
5.37959e-06
4.39481e-06
3.57065e-06
2.88479e-06
2.31722e-06
1.85017e-06
1.46804e-06
1.15727e-06
9.06052e-07
7.04242e-07
5.43197e-07
4.15657e-07
3.15481e-07
2.37394e-07
1.76957e-07
1.3063e-07
9.55444e-08
6.92515e-08
4.97589e-08
3.54634e-08
2.50857e-08
1.7621e-08
1.22948e-08
8.52159e-09
5.86623e-09
4.00936e-09
2.71973e-09
1.83007e-09
1.22088e-09
8.07263e-10
5.28909e-10
3.43333e-10
2.20813e-10
1.40721e-10
8.88809e-11
5.56538e-11
3.45611e-11
2.12983e-11
1.30344e-11
7.92819e-12
4.79689e-12
2.88925e-12
1.73351e-12
1.0365e-12
6.17746e-13
3.66994e-13
2.17322e-13
1.28285e-13
7.55176e-14
4.43722e-14
2.60672e-14
1.53533e-14
9.10354e-15
5.46345e-15
3.34078e-15
2.09882e-15
1.3683e-15
9.34783e-16
6.74125e-16
5.14579e-16
4.1497e-16
3.5153e-16
3.10445e-16
2.83419e-16
2.65179e-16
2.52493e-16
2.43469e-16
2.36942e-16
2.32292e-16
2.29059e-16
2.26904e-16
2.25454e-16
2.2452e-16
2.23925e-16
2.23497e-16
2.23445e-16
2.23591e-16
2.24364e-16
2.27005e-16
2.385e-16
2.94298e-16
7.6752e-16
3.60049e-15
7.26583e-14
1.38575e-13
4.82299e-13
3.16007e-11
3.04063e-05
0.000127558
0.000245247
0.000329336
0.000401601
0.00048555
0.000567661
0.000652213
0.00072057
0.000775311
0.000825088
0.000867061
0.000906161
0.000935833
0.000945087
0.000943635
0.000933036
0.000927433
0.000934559
0.000967716
0.00101793
0.00107153
0.00113022
0.00121106
0.00131847
0.00146061
0.00164705
0.00180168
0.00200521
0.00215624
0.00234008
0.00254866
0.00278912
0.00304275
0.00332031
0.00363206
0.00390527
0.00407586
0.00419612
0.00426416
0.00429036
0.00429501
0.00428028
0.00412423
0.00389172
0.00372857
0.00337785
0.00292516
0.00263245
0.00248024
0.00225602
0.00212239
0.00207364
0.00203151
0.00198341
0.00193934
0.00182119
0.0016596
0.00151429
0.00132473
0.00114156
0.000978956
0.000833789
0.000711533
0.000611341
0.000528389
0.000459853
0.000400861
0.000350404
0.000308028
0.000273121
0.000243722
0.000216659
0.000188483
0.000158195
0.000127377
0.000100007
7.93138e-05
6.35559e-05
5.17015e-05
4.26363e-05
3.56124e-05
3.02204e-05
2.63521e-05
2.34202e-05
2.09448e-05
1.85085e-05
1.60746e-05
1.37919e-05
1.1718e-05
9.8626e-06
8.23939e-06
6.83911e-06
5.64261e-06
4.62861e-06
3.77539e-06
3.06214e-06
2.46957e-06
1.98025e-06
1.57855e-06
1.25073e-06
9.84844e-07
7.70508e-07
5.98804e-07
4.62132e-07
3.54079e-07
2.69257e-07
2.03164e-07
1.52063e-07
1.12873e-07
8.30709e-08
6.06063e-08
4.38234e-08
3.13995e-08
2.2288e-08
1.56692e-08
1.09077e-08
7.51624e-09
5.12526e-09
3.45719e-09
2.30603e-09
1.52044e-09
9.90416e-10
6.37165e-10
4.04564e-10
2.53461e-10
1.56589e-10
9.52645e-11
5.72277e-11
3.39539e-11
1.98979e-11
1.15236e-11
6.6031e-12
3.75073e-12
2.1176e-12
1.19227e-12
6.71996e-13
3.80749e-13
2.17793e-13
1.26272e-13
7.44541e-14
4.4774e-14
2.75233e-14
1.73032e-14
1.1106e-14
7.27374e-15
4.86982e-15
3.34432e-15
2.36084e-15
1.71319e-15
1.27831e-15
9.80611e-16
7.72959e-16
6.26433e-16
5.21036e-16
4.44495e-16
3.88726e-16
3.4666e-16
3.15409e-16
2.92295e-16
2.73994e-16
2.61433e-16
2.52292e-16
2.44713e-16
2.41931e-16
2.42255e-16
2.45888e-16
2.57553e-16
2.94502e-16
3.82593e-16
6.55409e-16
1.44869e-15
5.55145e-15
2.46659e-14
2.21692e-13
1.19943e-12
2.06702e-11
2.51828e-11
1.32285e-10
1.31008e-10
2.06501e-05
8.66581e-05
0.000165742
0.00021845
0.000260089
0.000311822
0.00036505
0.000423304
0.00047781
0.000526943
0.000575638
0.000622564
0.000668766
0.000710158
0.000744338
0.000773231
0.000801684
0.000839231
0.000896358
0.000970955
0.0010617
0.00119086
0.00138565
0.00168697
0.00192479
0.00206614
0.00214342
0.0022285
0.00232598
0.00243058
0.00262268
0.0028679
0.00320801
0.00363533
0.00410576
0.00461193
0.00516845
0.00577768
0.00647606
0.00717412
0.00768152
0.00792778
0.00801272
0.00782667
0.00720407
0.00688983
0.00610099
0.0050981
0.00410687
0.00363668
0.00304538
0.00246497
0.00223381
0.00211739
0.00206933
0.00206206
0.00208202
0.00207838
0.00193906
0.00174586
0.00151381
0.00125172
0.00101261
0.00083159
0.000689839
0.000582471
0.000500749
0.000429454
0.000366009
0.000315068
0.000276192
0.000246079
0.000223318
0.000205117
0.000187938
0.000170509
0.000148077
0.000118798
8.90047e-05
6.56982e-05
4.90241e-05
3.72872e-05
2.91058e-05
2.32455e-05
1.89437e-05
1.58166e-05
1.37795e-05
1.24502e-05
1.1343e-05
1.01617e-05
8.90531e-06
7.66643e-06
6.51056e-06
5.46334e-06
4.53646e-06
3.73158e-06
3.04361e-06
2.46329e-06
1.97922e-06
1.57931e-06
1.25175e-06
9.85519e-07
7.70723e-07
5.98655e-07
4.61784e-07
3.53678e-07
2.68898e-07
2.02898e-07
1.51904e-07
1.12812e-07
8.30842e-08
6.06661e-08
4.39061e-08
3.14878e-08
2.23707e-08
1.57406e-08
1.09659e-08
7.56154e-09
5.15921e-09
3.48184e-09
2.32339e-09
1.5323e-09
9.98337e-10
6.42253e-10
4.07748e-10
2.55315e-10
1.57571e-10
9.57799e-11
5.72992e-11
3.3709e-11
1.94845e-11
1.10565e-11
6.15436e-12
3.35798e-12
1.79497e-12
9.39669e-13
4.81763e-13
2.42027e-13
1.19301e-13
5.78615e-14
2.7758e-14
1.32839e-14
6.42482e-15
3.21775e-15
1.74393e-15
1.06571e-15
7.38683e-16
5.64132e-16
4.60534e-16
3.94071e-16
3.49484e-16
3.17621e-16
2.94714e-16
2.77798e-16
2.64507e-16
2.55631e-16
2.47159e-16
2.42258e-16
2.37953e-16
2.32876e-16
2.35969e-16
2.52877e-16
2.99575e-16
4.08901e-16
6.57105e-16
1.23987e-15
2.66627e-15
6.30435e-15
1.58688e-14
4.14177e-14
1.10886e-13
2.97582e-13
8.05151e-13
2.09e-12
5.43302e-12
1.19855e-11
4.56735e-11
5.00425e-11
7.69751e-11
9.20168e-11
1.39167e-05
5.78884e-05
0.000110554
0.000146542
0.000172938
0.000210651
0.000254148
0.000304357
0.00035694
0.000410137
0.000467544
0.000526605
0.00058575
0.000639661
0.000686139
0.000729382
0.000778258
0.000840071
0.000922764
0.0010576
0.00128252
0.00164981
0.0020533
0.00224566
0.00233281
0.0023754
0.00239898
0.00243402
0.00252016
0.00268967
0.00298907
0.00344107
0.00404873
0.00483343
0.0059084
0.00731774
0.0091942
0.011441
0.0138568
0.0161073
0.0176066
0.0183384
0.018593
0.0182179
0.016737
0.0157209
0.0140238
0.0121055
0.00984669
0.00821106
0.00680783
0.00498096
0.00393481
0.00325992
0.00274193
0.00248917
0.00236721
0.0023216
0.00229808
0.00217174
0.00195803
0.0016606
0.00128673
0.00099869
0.000784177
0.000632696
0.000527253
0.000450479
0.000390066
0.000335444
0.000285307
0.000244165
0.000214541
0.000193948
0.000182433
0.00017437
0.000164519
0.00015294
0.000136066
0.000109757
7.96665e-05
5.56061e-05
3.87784e-05
2.74014e-05
1.99298e-05
1.50398e-05
1.17211e-05
9.39858e-06
7.84434e-06
6.94079e-06
6.40392e-06
5.88974e-06
5.28881e-06
4.63846e-06
3.99028e-06
3.37542e-06
2.81366e-06
2.31525e-06
1.8834e-06
1.51641e-06
1.20956e-06
9.5648e-07
7.50188e-07
5.83777e-07
4.50795e-07
3.45453e-07
2.627e-07
1.98221e-07
1.48385e-07
1.1018e-07
8.11329e-08
5.92347e-08
4.28684e-08
3.0745e-08
2.18462e-08
1.53754e-08
1.07151e-08
7.39196e-09
5.04629e-09
3.40786e-09
2.27574e-09
1.50215e-09
9.79611e-10
6.30861e-10
4.00975e-10
2.51388e-10
1.55355e-10
9.45686e-11
5.66575e-11
3.33802e-11
1.93226e-11
1.09795e-11
6.11835e-12
3.34054e-12
1.78544e-12
9.33403e-13
4.76952e-13
2.38081e-13
1.16064e-13
5.52691e-14
2.57391e-14
1.17609e-14
5.31411e-15
2.41747e-15
1.14959e-15
6.08641e-16
3.83128e-16
2.9077e-16
2.53258e-16
2.37824e-16
2.31228e-16
2.28095e-16
2.26421e-16
2.2539e-16
2.24618e-16
2.24138e-16
2.23645e-16
2.23361e-16
2.23115e-16
2.22793e-16
2.26603e-16
2.41017e-16
2.77509e-16
3.598e-16
5.45606e-16
9.77104e-16
2.03852e-15
4.73208e-15
1.18863e-14
3.08203e-14
8.25027e-14
2.17563e-13
5.80175e-13
1.44748e-12
4.00903e-12
7.80687e-12
2.52336e-11
2.73749e-11
2.92192e-11
3.59168e-11
9.48013e-06
3.81284e-05
7.27436e-05
9.95361e-05
0.000118514
0.000148482
0.000186456
0.000233418
0.000287775
0.00034707
0.000412128
0.000482164
0.000553388
0.000619262
0.000676034
0.000727635
0.000788235
0.0008794
0.00103585
0.00133516
0.00183324
0.00227342
0.00246803
0.00252221
0.00252906
0.00251725
0.00251527
0.00256934
0.00271435
0.00300718
0.00352569
0.00431561
0.00551492
0.00735217
0.0102125
0.0145594
0.0206413
0.0251385
0.0283026
0.0320961
0.0346015
0.0360819
0.0366177
0.0358833
0.033127
0.0300815
0.0264086
0.021936
0.0198921
0.0160468
0.0133336
0.0107846
0.00864758
0.00672534
0.00528831
0.00419518
0.00345127
0.00305789
0.00275677
0.00249639
0.00226043
0.00195062
0.00161593
0.0012369
0.000922344
0.000692212
0.000541082
0.000448491
0.00039154
0.000346015
0.000304352
0.000263142
0.000221726
0.000188383
0.00016589
0.000153234
0.000151493
0.000151612
0.000147152
0.00013784
0.000123384
9.7982e-05
6.85506e-05
4.58086e-05
3.01598e-05
1.99529e-05
1.35529e-05
9.6089e-06
7.1352e-06
5.50479e-06
4.42506e-06
3.79844e-06
3.48883e-06
3.27624e-06
3.02223e-06
2.70382e-06
2.35802e-06
2.01195e-06
1.68428e-06
1.38672e-06
1.12516e-06
9.01215e-07
7.13555e-07
5.59086e-07
4.33843e-07
3.33608e-07
2.54303e-07
1.92206e-07
1.4405e-07
1.0705e-07
7.88772e-08
5.76159e-08
4.17144e-08
2.9929e-08
2.12747e-08
1.49793e-08
1.04439e-08
7.20855e-09
4.92393e-09
3.32741e-09
2.22366e-09
1.469e-09
9.58896e-10
6.1817e-10
3.93367e-10
2.46937e-10
1.52824e-10
9.31766e-11
5.59232e-11
3.30129e-11
1.91514e-11
1.09078e-11
6.09381e-12
3.33614e-12
1.78817e-12
9.37592e-13
4.80541e-13
2.40598e-13
1.17634e-13
5.61652e-14
2.62115e-14
1.19901e-14
5.41448e-15
2.45456e-15
1.15748e-15
6.04023e-16
3.74118e-16
2.81148e-16
2.44535e-16
2.30479e-16
2.25212e-16
2.23274e-16
2.22567e-16
2.22306e-16
2.222e-16
2.22156e-16
2.22126e-16
2.22113e-16
2.22097e-16
2.22087e-16
2.24113e-16
2.34844e-16
2.64168e-16
3.30959e-16
4.80472e-16
8.19383e-16
1.63469e-15
3.64637e-15
8.87519e-15
2.2298e-14
5.79394e-14
1.47071e-13
3.75022e-13
8.82123e-13
2.50714e-12
4.20143e-12
9.79167e-12
1.08252e-11
1.15912e-11
1.42656e-11
6.74602e-06
2.51034e-05
4.72437e-05
6.82683e-05
8.35685e-05
0.000108931
0.000144338
0.000189039
0.000242743
0.000303714
0.000374205
0.000453064
0.000536418
0.000615306
0.000680697
0.000744111
0.000828846
0.000992213
0.00132864
0.00174742
0.00216103
0.00251383
0.00262806
0.00264399
0.00264685
0.00265523
0.00273905
0.00290833
0.00317595
0.00375084
0.00470772
0.00622236
0.00886702
0.0134807
0.020528
0.0282972
0.0340462
0.0416306
0.0499681
0.0580125
0.0659109
0.0707234
0.0729653
0.0733105
0.0639109
0.0567066
0.0440892
0.0332798
0.0271588
0.0205048
0.0168443
0.013977
0.0113532
0.00928663
0.00780419
0.00668074
0.00574042
0.00482301
0.00402729
0.00319061
0.00252908
0.00207193
0.00174647
0.0013808
0.00103147
0.000760452
0.000563335
0.000435373
0.000356796
0.000320016
0.000298411
0.000270504
0.000239033
0.000204926
0.000170546
0.000145722
0.000130531
0.000126552
0.000130896
0.000133785
0.000132377
0.000125036
0.00010913
8.2568e-05
5.49418e-05
3.51213e-05
2.19654e-05
1.37514e-05
8.82888e-06
5.93436e-06
4.21261e-06
3.13489e-06
2.43657e-06
2.02531e-06
1.82693e-06
1.73024e-06
1.63081e-06
1.49087e-06
1.32102e-06
1.13944e-06
9.59849e-07
7.92024e-07
6.41836e-07
5.11951e-07
4.02675e-07
3.12788e-07
2.40226e-07
1.82571e-07
1.37389e-07
1.02411e-07
7.56329e-08
5.53462e-08
4.01304e-08
2.8829e-08
2.05161e-08
1.44607e-08
1.00928e-08
6.97355e-09
4.76855e-09
3.22604e-09
2.15847e-09
1.42774e-09
9.33221e-10
6.02492e-10
3.83992e-10
2.41461e-10
1.49711e-10
9.14611e-11
5.50135e-11
3.25532e-11
1.89336e-11
1.08142e-11
6.05998e-12
3.32862e-12
1.79053e-12
9.4245e-13
4.85024e-13
2.43907e-13
1.19803e-13
5.74771e-14
2.69566e-14
1.23913e-14
5.62012e-15
2.55467e-15
1.20374e-15
6.2443e-16
3.82688e-16
2.84514e-16
2.45716e-16
2.30792e-16
2.25199e-16
2.23156e-16
2.22429e-16
2.22176e-16
2.2209e-16
2.22062e-16
2.22052e-16
2.22049e-16
2.22047e-16
2.22046e-16
2.22066e-16
2.28155e-16
2.49079e-16
2.9938e-16
4.12403e-16
6.63632e-16
1.25179e-15
2.65752e-15
6.19751e-15
1.49726e-14
3.73461e-14
9.05629e-14
2.17455e-13
4.90147e-13
9.90474e-13
2.18206e-12
2.49626e-12
2.9294e-12
3.24416e-12
4.32769e-12
5.17755e-06
1.68895e-05
3.07538e-05
4.6991e-05
6.0144e-05
8.2675e-05
0.000115088
0.000158405
0.000212271
0.000276983
0.000352408
0.000438959
0.000531775
0.000621486
0.000707265
0.000801736
0.000934692
0.00117397
0.00151161
0.00191222
0.00229897
0.00257525
0.00275655
0.00286636
0.00293366
0.00295968
0.00297898
0.00310926
0.00349692
0.00424489
0.00558515
0.0079244
0.0121488
0.0191611
0.0291075
0.0407729
0.0542543
0.0724347
0.0953846
0.121842
0.152164
0.171394
0.179533
0.180506
0.158464
0.136925
0.104749
0.075379
0.0512246
0.033892
0.0224447
0.0160265
0.0123065
0.0100954
0.00836498
0.00718416
0.00656807
0.00600917
0.00533214
0.00441044
0.0034154
0.00262125
0.00198473
0.00149641
0.00109167
0.000789402
0.000584716
0.000440486
0.000345586
0.000283755
0.000250033
0.000241339
0.000233489
0.000212784
0.000186284
0.000156025
0.000130151
0.000114006
0.000108224
0.000110832
0.000117871
0.000120785
0.000119611
0.000112376
9.28298e-05
6.39707e-05
4.04066e-05
2.45607e-05
1.46336e-05
8.74978e-06
5.38362e-06
3.48266e-06
2.38943e-06
1.72917e-06
1.31093e-06
1.06193e-06
9.37373e-07
8.83429e-07
8.43853e-07
7.87052e-07
7.08707e-07
6.18288e-07
5.24461e-07
4.34013e-07
3.51489e-07
2.79333e-07
2.18342e-07
1.68182e-07
1.2785e-07
9.6029e-08
7.13271e-08
5.24223e-08
3.81376e-08
2.74701e-08
1.95917e-08
1.38349e-08
9.67234e-09
6.69359e-09
4.58415e-09
3.10606e-09
2.08148e-09
1.37905e-09
9.02947e-10
5.84003e-10
3.72926e-10
2.34986e-10
1.46019e-10
8.94192e-11
5.39242e-11
3.1998e-11
1.86672e-11
1.06971e-11
6.01567e-12
3.31698e-12
1.79164e-12
9.47199e-13
4.89767e-13
2.47527e-13
1.22224e-13
5.89624e-14
2.78105e-14
1.28565e-14
5.86201e-15
2.67548e-15
1.26189e-15
6.51384e-16
3.94728e-16
2.89701e-16
2.47864e-16
2.3164e-16
2.25517e-16
2.2327e-16
2.22466e-16
2.22186e-16
2.22091e-16
2.2206e-16
2.22049e-16
2.22046e-16
2.22045e-16
2.22045e-16
2.22047e-16
2.24016e-16
2.36041e-16
2.68842e-16
3.44754e-16
5.11715e-16
8.91586e-16
1.76771e-15
3.88478e-15
8.90599e-15
2.09997e-14
4.78596e-14
1.19418e-13
2.18408e-13
5.16865e-13
5.87341e-13
6.38511e-13
7.51153e-13
8.38437e-13
1.15807e-12
4.33994e-06
1.2059e-05
2.07617e-05
3.29296e-05
4.3684e-05
6.19745e-05
9.14271e-05
0.000131639
0.000185989
0.000252083
0.000334537
0.000432556
0.000550089
0.000671213
0.00078913
0.000886594
0.00101718
0.00127738
0.00162316
0.00199118
0.00233787
0.00265434
0.00291132
0.00305643
0.00312597
0.00318773
0.0033711
0.00365952
0.00432942
0.00557164
0.0078557
0.0127026
0.0221506
0.0349387
0.0503769
0.0680791
0.0958418
0.144106
0.202478
0.263104
0.302908
0.323096
0.331118
0.326628
0.298961
0.258349
0.208315
0.151941
0.103817
0.0678529
0.0427535
0.0265006
0.01689
0.0113111
0.00832969
0.00708303
0.00648261
0.00615266
0.00560245
0.00472634
0.00373241
0.0029637
0.00240168
0.00187941
0.00131304
0.000862635
0.000601646
0.000451205
0.000351295
0.000282258
0.00023471
0.000202825
0.000191424
0.000192253
0.000186153
0.000164169
0.000138592
0.000115075
9.96937e-05
9.40598e-05
9.50497e-05
0.000102865
0.000109912
0.000111571
0.000109199
9.84949e-05
7.11958e-05
4.48621e-05
2.68058e-05
1.54722e-05
8.81196e-06
5.07706e-06
3.0353e-06
1.92005e-06
1.29389e-06
9.1979e-07
6.84095e-07
5.42083e-07
4.66317e-07
4.31671e-07
4.14077e-07
3.93005e-07
3.60571e-07
3.18923e-07
2.73009e-07
2.2703e-07
1.84062e-07
1.45955e-07
1.13512e-07
8.67831e-08
6.53439e-08
4.85278e-08
3.5586e-08
2.57887e-08
1.84795e-08
1.30985e-08
9.18554e-09
6.37334e-09
4.37502e-09
2.97082e-09
1.99504e-09
1.32457e-09
8.69132e-10
5.63385e-10
3.60603e-10
2.27788e-10
1.41924e-10
8.71621e-11
5.27276e-11
3.13945e-11
1.8383e-11
1.05767e-11
5.9741e-12
3.30975e-12
1.79699e-12
9.55374e-13
4.96998e-13
2.52827e-13
1.2572e-13
6.1105e-14
2.90494e-14
1.35384e-14
6.22116e-15
2.85713e-15
1.35033e-15
6.92906e-16
4.13549e-16
2.97947e-16
2.51362e-16
2.3308e-16
2.26093e-16
2.23492e-16
2.22549e-16
2.22216e-16
2.22101e-16
2.22063e-16
2.2205e-16
2.22046e-16
2.22045e-16
2.22045e-16
2.22045e-16
2.2206e-16
2.25163e-16
2.40055e-16
2.80158e-16
3.70803e-16
5.72788e-16
1.01914e-15
2.03778e-15
4.29587e-15
9.26525e-15
2.11243e-14
3.79096e-14
7.74737e-14