/*--------------------------------*- C++ -*----------------------------------*\
  =========                 |
  \\      /  F ield         | OpenFOAM: The Open Source CFD Toolbox
   \\    /   O peration     | Website:  https://openfoam.org
    \\  /    A nd           | Version:  9
     \\/     M anipulation  |
\*---------------------------------------------------------------------------*/
FoamFile
{
    format      ascii;
    class       surfaceScalarField;
    location    "0.013";
    object      phi_0;
}
// * * * * * * * * * * * * * * * * * * * * * * * * * * * * * * * * * * * * * //

dimensions      [0 3 -1 0 0 0 0];

internalField   nonuniform List<scalar> 
24170
(
3.15867e-06
5.45089e-08
3.01503e-06
1.43639e-07
2.90541e-06
1.09623e-07
2.8271e-06
7.83079e-08
2.75765e-06
6.94433e-08
2.67315e-06
8.45014e-08
2.56741e-06
1.05744e-07
2.45399e-06
1.13417e-07
2.35194e-06
1.02053e-07
2.26923e-06
8.27081e-08
2.2035e-06
6.57347e-08
2.145e-06
5.84962e-08
2.08691e-06
5.809e-08
2.02364e-06
6.3267e-08
1.95334e-06
7.03051e-08
1.87758e-06
7.57611e-08
1.78739e-06
9.01826e-08
1.03927e-07
1.68347e-06
3.42679e-06
5.63285e-08
3.44879e-06
1.2164e-07
3.46524e-06
9.31742e-08
3.46357e-06
7.99795e-08
3.45258e-06
8.04274e-08
3.44409e-06
9.29961e-08
3.44265e-06
1.07178e-07
3.44541e-06
1.10661e-07
3.44582e-06
1.01638e-07
3.43693e-06
9.16037e-08
3.41574e-06
8.69275e-08
3.38482e-06
8.94121e-08
3.35012e-06
9.27862e-08
3.31647e-06
9.69242e-08
3.28577e-06
1.01001e-07
3.25598e-06
1.05549e-07
3.22634e-06
1.19829e-07
1.3397e-07
3.19629e-06
3.59445e-06
1.0013e-07
3.65859e-06
5.75001e-08
3.72416e-06
2.76021e-08
3.76559e-06
3.855e-08
3.77551e-06
7.05065e-08
3.76213e-06
1.06382e-07
3.73884e-06
1.30463e-07
3.71758e-06
1.3192e-07
3.70378e-06
1.15439e-07
3.69684e-06
9.85429e-08
3.69192e-06
9.18532e-08
3.68572e-06
9.56098e-08
3.67551e-06
1.02996e-07
3.66306e-06
1.09378e-07
3.64991e-06
1.14149e-07
3.63815e-06
1.17303e-07
3.63348e-06
1.24506e-07
1.33544e-07
3.6339e-06
3.88984e-06
4.72577e-08
3.87723e-06
7.0113e-08
3.86817e-06
3.66617e-08
3.88094e-06
2.57776e-08
3.89867e-06
5.27703e-08
3.91245e-06
9.26116e-08
3.92267e-06
1.20237e-07
3.92903e-06
1.25563e-07
3.92932e-06
1.15147e-07
3.92387e-06
1.03989e-07
3.91558e-06
1.00148e-07
3.90841e-06
1.02774e-07
3.90417e-06
1.07244e-07
3.90278e-06
1.10763e-07
3.90323e-06
1.13697e-07
3.90423e-06
1.16305e-07
3.90713e-06
1.2161e-07
1.30066e-07
3.9106e-06
4.08979e-06
9.35263e-09
4.14883e-06
1.10784e-08
4.18832e-06
-2.83681e-09
4.21923e-06
-5.13209e-09
4.23661e-06
3.53924e-08
4.2403e-06
8.89227e-08
4.23352e-06
1.27017e-07
4.21848e-06
1.40601e-07
4.19766e-06
1.35968e-07
4.17597e-06
1.25682e-07
4.15895e-06
1.17166e-07
4.15043e-06
1.11298e-07
4.15094e-06
1.06728e-07
4.15841e-06
1.03298e-07
4.16995e-06
1.02151e-07
4.18206e-06
1.04202e-07
4.1929e-06
1.10767e-07
1.20845e-07
4.20212e-06
4.4271e-06
5.13471e-08
4.45731e-06
-1.91328e-08
4.48165e-06
-2.71675e-08
4.49503e-06
-1.8514e-08
4.50802e-06
2.23964e-08
4.51765e-06
7.92945e-08
4.51716e-06
1.27505e-07
4.50886e-06
1.48901e-07
4.50093e-06
1.43906e-07
4.49885e-06
1.27753e-07
4.50195e-06
1.14067e-07
4.50629e-06
1.06962e-07
4.5083e-06
1.04717e-07
4.50688e-06
1.0472e-07
4.50319e-06
1.05843e-07
4.49884e-06
1.08551e-07
4.49614e-06
1.1347e-07
1.21458e-07
4.49552e-06
4.98907e-06
-9.12134e-08
4.94998e-06
1.99616e-08
4.89811e-06
2.46953e-08
4.87842e-06
1.18183e-09
4.87607e-06
2.47464e-08
4.86922e-06
8.61402e-08
4.85356e-06
1.43162e-07
4.83439e-06
1.68072e-07
4.81414e-06
1.6416e-07
4.79266e-06
1.49236e-07
4.77188e-06
1.34844e-07
4.75669e-06
1.22152e-07
4.75172e-06
1.0969e-07
4.75888e-06
9.75535e-08
4.77636e-06
8.83684e-08
4.80051e-06
8.44015e-08
4.82694e-06
8.70364e-08
9.63256e-08
4.85207e-06
5.22352e-06
-9.90132e-08
5.22448e-06
1.89998e-08
5.21456e-06
3.4614e-08
5.18936e-06
2.63849e-08
5.16752e-06
4.65888e-08
5.15518e-06
9.84818e-08
5.14991e-06
1.48433e-07
5.15077e-06
1.6721e-07
5.15833e-06
1.56594e-07
5.17202e-06
1.35551e-07
5.18936e-06
1.17501e-07
5.20672e-06
1.04796e-07
5.22079e-06
9.56182e-08
5.23003e-06
8.83154e-08
5.23545e-06
8.29468e-08
5.23913e-06
8.07246e-08
5.24435e-06
8.18121e-08
8.85484e-08
5.25213e-06
5.48327e-06
2.17596e-08
5.46457e-06
3.76961e-08
5.47486e-06
2.43275e-08
5.4732e-06
2.80377e-08
5.45896e-06
6.08281e-08
5.44384e-06
1.13603e-07
5.43799e-06
1.54286e-07
5.44972e-06
1.55481e-07
5.48171e-06
1.24607e-07
5.52809e-06
8.91661e-08
5.57667e-06
6.89261e-08
5.61422e-06
6.72456e-08
5.63203e-06
7.78025e-08
5.62841e-06
9.19372e-08
5.60907e-06
1.0229e-07
5.58317e-06
1.0662e-07
5.56001e-06
1.04972e-07
1.01903e-07
5.54666e-06
5.91501e-06
2.28758e-08
5.91225e-06
4.04563e-08
5.92889e-06
7.68966e-09
5.91083e-06
4.60985e-08
5.85926e-06
1.124e-07
5.81758e-06
1.55284e-07
5.81601e-06
1.55851e-07
5.85312e-06
1.18373e-07
5.9093e-06
6.84246e-08
5.96516e-06
3.33097e-08
6.01003e-06
2.40615e-08
6.04009e-06
3.71783e-08
6.05629e-06
6.16098e-08
6.06207e-06
8.61527e-08
6.06102e-06
1.03343e-07
6.05647e-06
1.11166e-07
6.04889e-06
1.12549e-07
1.1094e-07
6.03986e-06
6.18835e-06
3.65759e-08
6.26152e-06
-3.27187e-08
6.34353e-06
-7.43232e-08
6.36273e-06
2.69033e-08
6.33428e-06
1.40853e-07
6.30244e-06
1.87122e-07
6.29226e-06
1.66027e-07
6.29698e-06
1.13653e-07
6.3016e-06
6.38092e-08
6.30224e-06
3.26614e-08
6.30386e-06
2.24459e-08
6.31283e-06
2.82067e-08
6.33162e-06
4.28187e-08
6.35773e-06
6.00466e-08
6.38592e-06
7.51492e-08
6.41028e-06
8.68094e-08
6.42621e-06
9.66142e-08
1.05543e-07
6.43161e-06
5.71089e-06
1.10968e-07
5.76697e-06
-8.87969e-08
5.79798e-06
-1.05334e-07
5.8188e-06
6.08761e-09
5.82564e-06
1.3401e-07
5.80692e-06
2.0584e-07
5.76609e-06
2.06865e-07
5.71919e-06
1.60546e-07
5.68275e-06
1.00256e-07
5.66609e-06
4.93125e-08
5.6708e-06
1.77406e-08
5.69096e-06
8.0508e-09
5.71735e-06
1.64289e-08
5.74012e-06
3.72683e-08
5.75404e-06
6.12324e-08
5.75728e-06
8.35703e-08
5.75316e-06
1.00735e-07
1.1315e-07
5.74555e-06
7.09185e-06
-9.29801e-08
7.09048e-06
-8.74273e-08
7.01257e-06
-2.74243e-08
6.95102e-06
6.76441e-08
6.93944e-06
1.45586e-07
6.96259e-06
1.82693e-07
6.99127e-06
1.78187e-07
7.01179e-06
1.40027e-07
7.0229e-06
8.91374e-08
7.02735e-06
4.48653e-08
7.0254e-06
1.96921e-08
7.01555e-06
1.79015e-08
6.99773e-06
3.42498e-08
6.97496e-06
6.00408e-08
6.95107e-06
8.51174e-08
6.93038e-06
1.04257e-07
6.91637e-06
1.14748e-07
1.1892e-07
6.9106e-06
8.64067e-06
-1.7486e-09
8.56946e-06
-1.62146e-08
8.56056e-06
-1.85278e-08
8.53404e-06
9.41626e-08
8.50321e-06
1.76416e-07
8.4865e-06
1.9941e-07
8.48872e-06
1.75966e-07
8.4978e-06
1.30939e-07
8.50161e-06
8.53288e-08
8.49805e-06
4.84253e-08
8.49267e-06
2.50729e-08
8.49273e-06
1.78436e-08
8.50038e-06
2.65972e-08
8.51553e-06
4.48965e-08
8.53697e-06
6.36779e-08
8.56311e-06
7.81123e-08
8.59236e-06
8.55023e-08
8.88848e-08
8.62239e-06
1.01749e-05
1.11023e-07
1.02406e-05
-8.18936e-08
1.02091e-05
1.29281e-08
1.01649e-05
1.38348e-07
1.01792e-05
1.62122e-07
1.02693e-05
1.09297e-07
1.0397e-05
4.8292e-08
1.05027e-05
2.5207e-08
1.05514e-05
3.66229e-08
1.05439e-05
5.59449e-08
1.05055e-05
6.34483e-08
1.04632e-05
6.01861e-08
1.04336e-05
5.61503e-08
1.04202e-05
5.83471e-08
1.04183e-05
6.56172e-08
1.04215e-05
7.48261e-08
1.0426e-05
8.10272e-08
8.23811e-08
1.04325e-05
1.279e-05
2.3345e-07
1.26118e-05
9.63652e-08
1.25402e-05
8.45417e-08
1.25413e-05
1.3726e-07
1.25813e-05
1.22041e-07
1.26676e-05
2.30323e-08
1.27875e-05
-7.1612e-08
1.29077e-05
-9.49585e-08
1.29886e-05
-4.4322e-08
1.30066e-05
3.79317e-08
1.29666e-05
1.03478e-07
1.2893e-05
1.33797e-07
1.28169e-05
1.32205e-07
1.27611e-05
1.14144e-07
1.27333e-05
9.34408e-08
1.27299e-05
7.82455e-08
1.27418e-05
6.91214e-08
6.43068e-08
1.27599e-05
1.53465e-05
3.52139e-07
1.52757e-05
1.67225e-07
1.5292e-05
6.8242e-08
1.53513e-05
7.7899e-08
1.54348e-05
3.85421e-08
1.55133e-05
-5.54381e-08
1.55714e-05
-1.29683e-07
1.55944e-05
-1.17995e-07
1.55811e-05
-3.10249e-08
1.55459e-05
7.312e-08
1.54957e-05
1.53715e-07
1.54465e-05
1.82971e-07
1.54146e-05
1.64147e-07
1.54092e-05
1.1953e-07
1.54299e-05
7.27844e-08
1.54695e-05
3.86211e-08
1.5517e-05
2.15644e-08
1.80198e-08
1.55633e-05
1.87816e-05
5.12658e-08
1.89437e-05
5.0729e-09
1.9031e-05
-1.90503e-08
1.91348e-05
-2.5826e-08
1.9193e-05
-1.97063e-08
1.91494e-05
-1.18557e-08
1.90236e-05
-3.82037e-09
1.88949e-05
1.06358e-08
1.88253e-05
3.86061e-08
1.88262e-05
7.22035e-08
1.88799e-05
1.00056e-07
1.89493e-05
1.13544e-07
1.90019e-05
1.11537e-07
1.90215e-05
9.99238e-08
1.9008e-05
8.62984e-08
1.89717e-05
7.49643e-08
1.89253e-05
6.78819e-08
6.25692e-08
1.88808e-05
2.29386e-05
7.91309e-08
2.29312e-05
1.24898e-08
2.2946e-05
-3.38315e-08
2.29412e-05
-2.10468e-08
2.28508e-05
7.0683e-08
2.27054e-05
1.33547e-07
2.2581e-05
1.2059e-07
2.25409e-05
5.07274e-08
2.26011e-05
-2.16263e-08
2.27267e-05
-5.34184e-08
2.28766e-05
-4.98445e-08
2.30224e-05
-3.22203e-08
2.31502e-05
-1.62427e-08
2.32571e-05
-7.0258e-09
2.3345e-05
-1.52339e-09
2.34157e-05
4.25893e-09
2.34711e-05
1.24405e-08
2.4605e-08
2.35091e-05
1.66735e-05
-3.42118e-09
1.6789e-05
-1.03001e-07
1.68267e-05
-7.15416e-08
1.67887e-05
1.69459e-08
1.6742e-05
1.17394e-07
1.67084e-05
1.67155e-07
1.67149e-05
1.14111e-07
1.67579e-05
7.64991e-09
1.68037e-05
-6.74046e-08
1.68327e-05
-8.23828e-08
1.68281e-05
-4.53053e-08
1.6789e-05
6.86689e-09
1.673e-05
4.27819e-08
1.66728e-05
5.01603e-08
1.66379e-05
3.34455e-08
1.66356e-05
6.49358e-09
1.66673e-05
-1.92209e-08
-3.32403e-08
1.67251e-05
1.4645e-05
-1.86384e-07
1.46227e-05
-8.06987e-08
1.45486e-05
2.57642e-09
1.44952e-05
7.02892e-08
1.44973e-05
1.15272e-07
1.45477e-05
1.16801e-07
1.4606e-05
5.57524e-08
1.46521e-05
-3.84144e-08
1.46866e-05
-1.01942e-07
1.47137e-05
-1.09416e-07
1.47355e-05
-6.71023e-08
1.47495e-05
-7.10795e-09
1.47522e-05
4.00087e-08
1.47449e-05
5.74466e-08
1.47314e-05
4.70116e-08
1.4717e-05
2.0843e-08
1.47068e-05
-9.04634e-09
-3.09984e-08
1.47046e-05
1.26846e-05
-2.29999e-07
1.26138e-05
-9.88055e-09
1.25408e-05
7.55485e-08
1.25508e-05
6.03586e-08
1.26405e-05
2.55421e-08
1.27569e-05
3.79077e-10
1.28281e-05
-1.54642e-08
1.28233e-05
-3.36122e-08
1.27757e-05
-5.42736e-08
1.27335e-05
-6.72722e-08
1.27339e-05
-6.75265e-08
1.27833e-05
-5.64852e-08
1.28647e-05
-4.13764e-08
1.29517e-05
-2.95385e-08
1.30224e-05
-2.36828e-08
1.30656e-05
-2.23353e-08
1.30796e-05
-2.30557e-08
-2.27566e-08
1.30713e-05
1.08651e-05
-1.11269e-07
1.0887e-05
-3.17627e-08
1.09891e-05
-2.65483e-08
1.11187e-05
-6.92312e-08
1.12533e-05
-1.09078e-07
1.13307e-05
-7.69682e-08
1.13132e-05
2.01873e-09
1.12131e-05
6.64922e-08
1.10794e-05
7.94465e-08
1.09661e-05
4.60054e-08
1.09017e-05
-3.16366e-09
1.08906e-05
-4.54053e-08
1.09209e-05
-7.16014e-08
1.0975e-05
-8.36263e-08
1.10378e-05
-8.65014e-08
1.10993e-05
-8.39077e-08
1.11544e-05
-7.80625e-08
-6.96922e-08
1.12013e-05
9.64186e-06
-1.08522e-07
9.63753e-06
-2.74297e-08
9.66988e-06
-5.89003e-08
9.67233e-06
-7.16793e-08
9.62068e-06
-5.7427e-08
9.56845e-06
-2.47364e-08
9.55956e-06
1.09055e-08
9.60694e-06
1.91183e-08
9.68666e-06
-2.73845e-10
9.76856e-06
-3.59026e-08
9.83244e-06
-6.70392e-08
9.87134e-06
-8.43047e-08
9.88834e-06
-8.86059e-08
9.88985e-06
-8.51331e-08
9.88164e-06
-7.82904e-08
9.86783e-06
-7.01023e-08
9.85087e-06
-6.11025e-08
-5.15476e-08
9.83273e-06
8.46931e-06
-3.28452e-08
8.46959e-06
-2.77119e-08
8.46653e-06
-5.58434e-08
8.45943e-06
-6.45722e-08
8.45984e-06
-5.7841e-08
8.47511e-06
-4.00094e-08
8.50252e-06
-1.64981e-08
8.52951e-06
-7.87451e-09
8.55406e-06
-2.48225e-08
8.57711e-06
-5.8949e-08
8.59949e-06
-8.94257e-08
8.61664e-06
-1.01451e-07
8.62106e-06
-9.3028e-08
8.60756e-06
-7.16292e-08
8.57715e-06
-4.78822e-08
8.5363e-06
-2.92575e-08
8.49405e-06
-1.88506e-08
-1.62454e-08
8.45875e-06
7.45568e-06
3.39964e-08
7.4363e-06
-8.33373e-09
7.41818e-06
-3.7718e-08
7.39322e-06
-3.96179e-08
7.38245e-06
-4.70727e-08
7.39021e-06
-4.77601e-08
7.40397e-06
-3.02644e-08
7.40917e-06
-1.30696e-08
7.40001e-06
-1.56697e-08
7.37767e-06
-3.66038e-08
7.34855e-06
-6.03062e-08
7.32145e-06
-7.43476e-08
7.30355e-06
-7.51353e-08
7.29807e-06
-6.6142e-08
7.30383e-06
-5.36491e-08
7.31745e-06
-4.28755e-08
7.33504e-06
-3.64366e-08
-3.40367e-08
7.35283e-06
6.25828e-06
-1.5799e-07
6.32066e-06
-7.07216e-08
6.35956e-06
-7.66099e-08
6.397e-06
-7.70646e-08
6.4215e-06
-7.15702e-08
6.43468e-06
-6.09376e-08
6.4498e-06
-4.53886e-08
6.47102e-06
-3.42922e-08
6.4904e-06
-3.50448e-08
6.49792e-06
-4.41273e-08
6.49041e-06
-5.27948e-08
6.47246e-06
-5.6393e-08
6.45235e-06
-5.50248e-08
6.43712e-06
-5.09188e-08
6.42974e-06
-4.62625e-08
6.42947e-06
-4.26109e-08
6.43369e-06
-4.06503e-08
-3.97376e-08
6.43939e-06
5.57368e-06
-6.51712e-08
5.5757e-06
-7.27395e-08
5.56719e-06
-6.81024e-08
5.56653e-06
-7.63996e-08
5.56858e-06
-7.36267e-08
5.56552e-06
-5.78718e-08
5.5545e-06
-3.43727e-08
5.53665e-06
-1.64463e-08
5.51595e-06
-1.43378e-08
5.49825e-06
-2.64308e-08
5.48969e-06
-4.42315e-08
5.49365e-06
-6.03576e-08
5.50907e-06
-7.04434e-08
5.53097e-06
-7.28138e-08
5.55315e-06
-6.84501e-08
5.57085e-06
-6.03121e-08
5.58175e-06
-5.15475e-08
-4.52738e-08
5.58729e-06
4.77435e-06
-6.9383e-08
4.79778e-06
-9.61715e-08
4.81606e-06
-8.63773e-08
4.82378e-06
-8.41227e-08
4.82564e-06
-7.54891e-08
4.83008e-06
-6.2311e-08
4.84406e-06
-4.83564e-08
4.86597e-06
-3.83489e-08
4.88761e-06
-3.59773e-08
4.90138e-06
-4.0205e-08
4.90462e-06
-4.74685e-08
4.89921e-06
-5.4954e-08
4.88931e-06
-6.05357e-08
4.87902e-06
-6.25268e-08
4.87056e-06
-5.99882e-08
4.864e-06
-5.37499e-08
4.85769e-06
-4.52372e-08
-3.73303e-08
4.84974e-06
4.13476e-06
4.03859e-06
3.95221e-06
3.86809e-06
3.7926e-06
3.73029e-06
3.68193e-06
3.64358e-06
3.60761e-06
3.5674e-06
3.51993e-06
3.46498e-06
3.40444e-06
3.34192e-06
3.28193e-06
3.22818e-06
3.18294e-06
3.14561e-06
1.00781e-07
-1.00781e-07
2.05958e-07
-1.05177e-07
3.03963e-07
-9.80049e-08
3.92312e-07
-8.83486e-08
4.70096e-07
-7.77843e-08
5.36358e-07
-6.62624e-08
5.89944e-07
-5.35857e-08
6.29273e-07
-3.93287e-08
6.52701e-07
-2.3428e-08
6.58737e-07
-6.03608e-09
6.44643e-07
1.40937e-08
6.08787e-07
3.58561e-08
5.48455e-07
6.03315e-08
4.60015e-07
8.84407e-08
3.39606e-07
1.20408e-07
1.836e-07
1.56006e-07
-1.14051e-08
1.95005e-07
-2.48066e-07
2.36661e-07
-5.27653e-07
2.79587e-07
-8.50039e-07
3.22386e-07
-1.21264e-06
3.62602e-07
-1.60995e-06
3.97312e-07
-2.03552e-06
4.25565e-07
-2.48305e-06
4.47529e-07
-2.94725e-06
4.64208e-07
-3.42414e-06
4.76884e-07
-3.91057e-06
4.86432e-07
-4.40368e-06
4.93107e-07
-4.90034e-06
4.96662e-07
-5.39684e-06
4.96498e-07
-5.88863e-06
4.91793e-07
-6.37034e-06
4.81708e-07
-6.83592e-06
4.65579e-07
-7.27884e-06
4.42924e-07
-7.6923e-06
4.13462e-07
-8.06942e-06
3.77116e-07
-8.40348e-06
3.34063e-07
-8.68835e-06
2.84864e-07
-8.91887e-06
2.30522e-07
-9.09121e-06
1.72341e-07
-9.20311e-06
1.11899e-07
-9.25416e-06
5.10511e-08
-9.24624e-06
-7.92297e-09
-9.18265e-06
-6.3586e-08
-9.06698e-06
-1.1567e-07
-8.90367e-06
-1.63315e-07
-8.6974e-06
-2.06265e-07
-8.45289e-06
-2.4451e-07
-8.17479e-06
-2.781e-07
-7.86744e-06
-3.07352e-07
-7.53468e-06
-3.32756e-07
-7.1797e-06
-3.54986e-07
-6.80507e-06
-3.74627e-07
-6.4129e-06
-3.92171e-07
-6.00504e-06
-4.07863e-07
-5.58333e-06
-4.21702e-07
-5.14984e-06
-4.33491e-07
-4.70693e-06
-4.42909e-07
-4.25738e-06
-4.4955e-07
-3.80437e-06
-4.53013e-07
-3.3513e-06
-4.53075e-07
-2.9016e-06
-4.49699e-07
-2.45863e-06
-4.42968e-07
-2.02551e-06
-4.33121e-07
-1.60496e-06
-4.20543e-07
-1.19936e-06
-4.05606e-07
-8.10244e-07
-3.89114e-07
-4.3931e-07
-3.70934e-07
-8.73829e-08
-3.51927e-07
2.46619e-07
-3.34002e-07
5.61185e-07
-3.14566e-07
8.56702e-07
-2.95517e-07
1.13363e-06
-2.76929e-07
1.39258e-06
-2.58945e-07
1.63425e-06
-2.41678e-07
1.85946e-06
-2.25201e-07
2.06901e-06
-2.09554e-07
2.26376e-06
-1.9475e-07
2.44455e-06
-1.80785e-07
2.61218e-06
-1.67635e-07
2.76745e-06
-1.55269e-07
2.91109e-06
-1.43645e-07
3.04382e-06
-1.32722e-07
3.16627e-06
-1.22455e-07
3.27907e-06
-1.12799e-07
3.38278e-06
-1.03714e-07
3.47795e-06
-9.51637e-08
3.56506e-06
-8.71139e-08
3.6446e-06
-7.95362e-08
3.717e-06
-7.24059e-08
3.78271e-06
-6.57018e-08
3.84211e-06
-5.94062e-08
3.89562e-06
-5.35034e-08
3.9436e-06
-4.798e-08
3.98642e-06
-4.2823e-08
4.02444e-06
-3.80203e-08
4.058e-06
-3.35601e-08
4.08743e-06
-2.94302e-08
4.11305e-06
-2.56179e-08
4.13516e-06
-2.21102e-08
4.15405e-06
-1.88933e-08
4.17e-06
-1.59529e-08
4.18328e-06
-1.32739e-08
4.19412e-06
-1.08421e-08
4.20276e-06
-8.64272e-09
4.20942e-06
-6.65967e-09
4.2143e-06
-4.87741e-09
4.21758e-06
-3.27779e-09
4.21943e-06
-1.84758e-09
4.21999e-06
-5.69138e-10
4.21939e-06
6.00872e-10
4.21772e-06
1.67154e-09
4.2151e-06
2.61861e-09
4.21165e-06
3.45176e-09
4.20747e-06
4.18111e-09
4.20265e-06
4.8174e-09
4.19728e-06
5.3683e-09
4.19145e-06
5.83939e-09
4.18519e-06
6.25303e-09
4.17857e-06
6.61824e-09
4.17164e-06
6.93672e-09
4.16442e-06
7.21601e-09
4.15696e-06
7.46477e-09
4.14926e-06
7.69193e-09
4.14137e-06
7.89822e-09
4.13328e-06
8.08184e-09
4.12504e-06
8.24885e-09
4.11662e-06
8.41178e-09
4.10804e-06
8.5817e-09
4.09928e-06
8.7586e-09
4.09036e-06
8.92838e-09
4.08129e-06
9.06923e-09
4.07212e-06
9.16247e-09
4.06292e-06
9.20176e-09
4.05373e-06
9.19441e-09
4.04457e-06
9.15657e-09
4.03546e-06
9.10607e-09
4.02641e-06
9.05717e-09
4.01739e-06
9.0178e-09
4.0084e-06
8.99072e-09
3.99942e-06
8.97541e-09
3.99045e-06
8.96989e-09
3.98148e-06
8.97229e-09
3.9725e-06
8.98113e-09
3.9635e-06
8.99563e-09
3.95449e-06
9.01537e-09
3.94545e-06
9.04024e-09
3.93638e-06
9.07031e-09
3.92727e-06
9.10569e-09
3.91813e-06
9.14659e-09
3.90893e-06
9.19312e-09
3.89969e-06
9.24595e-09
3.89038e-06
9.30538e-09
3.88101e-06
9.37248e-09
3.87156e-06
9.44778e-09
3.86203e-06
9.53339e-09
3.8524e-06
9.63014e-09
3.84266e-06
9.7415e-09
3.83279e-06
9.86906e-09
3.82277e-06
1.0018e-08
3.81258e-06
1.01927e-08
3.80218e-06
1.03988e-08
3.79153e-06
1.06496e-08
3.78059e-06
1.09434e-08
3.76926e-06
1.13248e-08
3.75751e-06
1.17519e-08
3.74513e-06
1.23739e-08
3.73214e-06
1.2992e-08
3.71804e-06
1.40988e-08
3.70309e-06
1.4949e-08
3.68596e-06
1.71303e-08
3.66784e-06
1.81228e-08
3.64492e-06
2.29196e-08
3.62146e-06
2.34576e-08
3.58622e-06
3.52472e-08
3.553e-06
3.32167e-08
3.48706e-06
6.59357e-08
3.42974e-06
5.7323e-08
3.25862e-06
1.7112e-07
1.77588e-07
3.08103e-06
-2.16738e-08
-7.91072e-08
-6.06392e-08
-6.62116e-08
-1.06329e-07
-5.23147e-08
-1.61451e-07
-3.32274e-08
-2.26722e-07
-1.2513e-08
-3.02475e-07
9.49092e-09
-3.8876e-07
3.26987e-08
-4.8733e-07
5.92416e-08
-6.0006e-07
8.93025e-08
-7.29351e-07
1.23255e-07
-8.76538e-07
1.61281e-07
-1.04396e-06
2.03274e-07
-1.23281e-06
2.49186e-07
-1.44358e-06
2.99214e-07
-1.67657e-06
3.53395e-07
-1.93191e-06
4.1135e-07
-2.20903e-06
4.72121e-07
-2.5063e-06
5.33929e-07
-2.82111e-06
5.94395e-07
-3.14957e-06
6.50844e-07
-3.48837e-06
7.01407e-07
-3.83577e-06
7.44707e-07
-4.1905e-06
7.80302e-07
-4.55171e-06
8.0874e-07
-4.91848e-06
8.30978e-07
-5.28957e-06
8.47968e-07
-5.66338e-06
8.60241e-07
-6.03806e-06
8.67793e-07
-6.41148e-06
8.70074e-07
-6.78111e-06
8.66134e-07
-7.1441e-06
8.54786e-07
-7.49738e-06
8.34987e-07
-7.83767e-06
8.05865e-07
-8.16087e-06
7.66121e-07
-8.46218e-06
7.14772e-07
-8.7363e-06
6.51245e-07
-8.9778e-06
5.75562e-07
-9.1815e-06
4.88561e-07
-9.34287e-06
3.91888e-07
-9.45837e-06
2.87842e-07
-9.52578e-06
1.79315e-07
-9.54435e-06
6.96166e-08
-9.51164e-06
-4.06327e-08
-9.42573e-06
-1.49498e-07
-9.28947e-06
-2.51928e-07
-9.10623e-06
-3.46556e-07
-8.88044e-06
-4.32057e-07
-8.61719e-06
-5.07754e-07
-8.32152e-06
-5.73775e-07
-7.99804e-06
-6.30833e-07
-7.65067e-06
-6.80129e-07
-7.28256e-06
-7.23095e-07
-6.89605e-06
-7.6113e-07
-6.49291e-06
-7.95312e-07
-6.07456e-06
-8.26215e-07
-5.64244e-06
-8.53826e-07
-5.19828e-06
-8.77645e-07
-4.74429e-06
-8.96901e-07
-4.28323e-06
-9.10616e-07
-3.8184e-06
-9.17835e-07
-3.35342e-06
-9.18063e-07
-2.89187e-06
-9.11244e-07
-2.4373e-06
-8.97535e-07
-1.9929e-06
-8.77525e-07
-1.56151e-06
-8.51929e-07
-1.14531e-06
-8.21813e-07
-7.46259e-07
-7.88163e-07
-3.65013e-07
-7.5218e-07
-2.53554e-09
-7.14405e-07
3.40583e-07
-6.7712e-07
6.64927e-07
-6.3891e-07
9.7059e-07
-6.0118e-07
1.25805e-06
-5.64388e-07
1.52796e-06
-5.28857e-07
1.78109e-06
-4.94808e-07
2.01827e-06
-4.6238e-07
2.24036e-06
-4.31643e-07
2.44823e-06
-4.02618e-07
2.64272e-06
-3.75283e-07
2.82467e-06
-3.49585e-07
2.99486e-06
-3.25453e-07
3.15401e-06
-3.02799e-07
3.30282e-06
-2.81531e-07
3.44192e-06
-2.61555e-07
3.5719e-06
-2.4278e-07
3.69331e-06
-2.25119e-07
3.80663e-06
-2.08492e-07
3.91235e-06
-1.9283e-07
4.01088e-06
-1.7807e-07
4.10264e-06
-1.6416e-07
4.18799e-06
-1.51052e-07
4.26729e-06
-1.38708e-07
4.34088e-06
-1.27094e-07
4.40908e-06
-1.16178e-07
4.47219e-06
-1.05933e-07
4.5305e-06
-9.63338e-08
4.5843e-06
-8.7355e-08
4.63384e-06
-7.89724e-08
4.67938e-06
-7.11617e-08
4.72117e-06
-6.38985e-08
4.75944e-06
-5.71579e-08
4.7944e-06
-5.09148e-08
4.82627e-06
-4.51437e-08
4.85525e-06
-3.98193e-08
4.88152e-06
-3.49162e-08
4.90527e-06
-3.04086e-08
4.92666e-06
-2.62709e-08
4.94586e-06
-2.24782e-08
4.96302e-06
-1.9007e-08
4.97829e-06
-1.58371e-08
4.99184e-06
-1.29473e-08
5.00383e-06
-1.03164e-08
5.01436e-06
-7.91108e-09
5.02353e-06
-5.71741e-09
5.03143e-06
-3.72269e-09
5.03815e-06
-1.90554e-09
5.04376e-06
-2.38133e-10
5.04836e-06
1.23397e-09
5.05202e-06
2.59946e-09
5.05479e-06
3.84416e-09
5.05675e-06
4.97483e-09
5.05797e-06
6.00365e-09
5.05849e-06
6.94092e-09
5.05838e-06
7.80109e-09
5.05769e-06
8.59024e-09
5.05646e-06
9.3125e-09
5.05473e-06
9.97613e-09
5.05255e-06
1.05913e-08
5.04997e-06
1.11665e-08
5.04702e-06
1.17048e-08
5.04375e-06
1.22012e-08
5.04017e-06
1.26436e-08
5.03632e-06
1.30189e-08
5.0322e-06
1.33209e-08
5.02784e-06
1.35544e-08
5.02326e-06
1.37345e-08
5.01848e-06
1.38831e-08
5.01352e-06
1.4021e-08
5.00837e-06
1.41648e-08
5.00304e-06
1.43233e-08
4.99752e-06
1.4499e-08
4.9918e-06
1.46892e-08
4.98588e-06
1.48897e-08
4.97976e-06
1.50958e-08
4.97346e-06
1.53039e-08
4.96696e-06
1.55116e-08
4.96028e-06
1.57176e-08
4.95343e-06
1.59217e-08
4.94641e-06
1.61243e-08
4.93923e-06
1.6326e-08
4.9319e-06
1.65278e-08
4.92441e-06
1.67313e-08
4.91678e-06
1.69377e-08
4.909e-06
1.71493e-08
4.90108e-06
1.73684e-08
4.89302e-06
1.75974e-08
4.88481e-06
1.78409e-08
4.87645e-06
1.81015e-08
4.86793e-06
1.8388e-08
4.85925e-06
1.87015e-08
4.85038e-06
1.90615e-08
4.84132e-06
1.94611e-08
4.83202e-06
1.99469e-08
4.82248e-06
2.04843e-08
4.81261e-06
2.11914e-08
4.80242e-06
2.19432e-08
4.79174e-06
2.30568e-08
4.7806e-06
2.41304e-08
4.76866e-06
2.60362e-08
4.75606e-06
2.75543e-08
4.74206e-06
3.11246e-08
4.72703e-06
3.31536e-08
4.70945e-06
4.04966e-08
4.69004e-06
4.28695e-08
4.66575e-06
5.95346e-08
4.63704e-06
6.1928e-08
4.59803e-06
1.04945e-07
4.54415e-06
1.11203e-07
4.47477e-06
2.40509e-07
2.79351e-07
4.373e-06
-1.21341e-07
4.2234e-08
-2.5985e-07
7.22975e-08
-3.98923e-07
8.67584e-08
-5.40824e-07
1.08673e-07
-6.85928e-07
1.32591e-07
-8.36508e-07
1.60071e-07
-9.94583e-07
1.90775e-07
-1.16072e-06
2.25375e-07
-1.3355e-06
2.64081e-07
-1.51938e-06
3.07143e-07
-1.71271e-06
3.54609e-07
-1.91551e-06
4.06072e-07
-2.12741e-06
4.6109e-07
-2.34761e-06
5.19408e-07
-2.57491e-06
5.80699e-07
-2.80791e-06
6.44349e-07
-3.0451e-06
7.0931e-07
-3.28523e-06
7.74063e-07
-3.52771e-06
8.36873e-07
-3.77289e-06
8.96027e-07
-4.02171e-06
9.50219e-07
-4.27585e-06
9.98848e-07
-4.53758e-06
1.04204e-06
-4.80921e-06
1.08037e-06
-5.09268e-06
1.11445e-06
-5.3892e-06
1.14448e-06
-5.69914e-06
1.17019e-06
-6.02227e-06
1.19092e-06
-6.35795e-06
1.20575e-06
-6.70511e-06
1.21329e-06
-7.06197e-06
1.21165e-06
-7.42536e-06
1.19837e-06
-7.79003e-06
1.17054e-06
-8.14886e-06
1.12495e-06
-8.49299e-06
1.05891e-06
-8.81274e-06
9.7099e-07
-9.09855e-06
8.61368e-07
-9.34182e-06
7.31832e-07
-9.53543e-06
5.85505e-07
-9.67391e-06
4.26313e-07
-9.75332e-06
2.58732e-07
-9.77231e-06
8.86041e-08
-9.73093e-06
-8.20112e-08
-9.63124e-06
-2.49188e-07
-9.47722e-06
-4.05952e-07
-9.27381e-06
-5.49962e-07
-9.02661e-06
-6.7926e-07
-8.74153e-06
-7.92837e-07
-8.42456e-06
-8.90743e-07
-8.08126e-06
-9.7413e-07
-7.71635e-06
-1.04504e-06
-7.33334e-06
-1.1061e-06
-6.93449e-06
-1.15998e-06
-6.521e-06
-1.2088e-06
-6.09346e-06
-1.25376e-06
-5.65246e-06
-1.29482e-06
-5.1992e-06
-1.3309e-06
-4.73571e-06
-1.36039e-06
-4.2649e-06
-1.38142e-06
-3.79048e-06
-1.39226e-06
-3.31655e-06
-1.39199e-06
-2.84736e-06
-1.38044e-06
-2.38687e-06
-1.35802e-06
-1.93864e-06
-1.32575e-06
-1.50539e-06
-1.28518e-06
-1.0892e-06
-1.23801e-06
-6.91706e-07
-1.18565e-06
-3.13504e-07
-1.13038e-06
4.55482e-08
-1.07346e-06
3.84492e-07
-1.01606e-06
7.04146e-07
-9.58564e-07
1.00489e-06
-9.01923e-07
1.28732e-06
-8.46815e-07
1.55217e-06
-7.93706e-07
1.80027e-06
-7.42915e-07
2.03253e-06
-6.94641e-07
2.24987e-06
-6.4898e-07
2.4532e-06
-6.05945e-07
2.64341e-06
-5.6549e-07
2.82134e-06
-5.27524e-07
2.98782e-06
-4.91925e-07
3.14357e-06
-4.58554e-07
3.2893e-06
-4.27263e-07
3.42565e-06
-3.97905e-07
3.55321e-06
-3.70336e-07
3.67251e-06
-3.44423e-07
3.78407e-06
-3.20045e-07
3.88833e-06
-2.97092e-07
3.98573e-06
-2.7547e-07
4.07667e-06
-2.55097e-07
4.16151e-06
-2.359e-07
4.24062e-06
-2.17818e-07
4.31433e-06
-2.00798e-07
4.38294e-06
-1.84791e-07
4.44676e-06
-1.69753e-07
4.50607e-06
-1.55642e-07
4.56113e-06
-1.42418e-07
4.6122e-06
-1.30043e-07
4.65952e-06
-1.1848e-07
4.70331e-06
-1.07688e-07
4.74378e-06
-9.76319e-08
4.78114e-06
-8.82727e-08
4.81557e-06
-7.95734e-08
4.84725e-06
-7.14974e-08
4.87634e-06
-6.40085e-08
4.903e-06
-5.70714e-08
4.92739e-06
-5.06516e-08
4.94962e-06
-4.4716e-08
4.96985e-06
-3.92333e-08
4.98819e-06
-3.41735e-08
5.00475e-06
-2.95077e-08
5.01964e-06
-2.52075e-08
5.03297e-06
-2.12427e-08
5.04484e-06
-1.7588e-08
5.05534e-06
-1.42199e-08
5.06455e-06
-1.1121e-08
5.07259e-06
-8.27802e-09
5.0795e-06
-5.67545e-09
5.08538e-06
-3.27844e-09
5.0903e-06
-1.07354e-09
5.0943e-06
9.68137e-10
5.09747e-06
2.8418e-09
5.09984e-06
4.56473e-09
5.10149e-06
6.15804e-09
5.10245e-06
7.62874e-09
5.10277e-06
8.9862e-09
5.10251e-06
1.0241e-08
5.1017e-06
1.14031e-08
5.10038e-06
1.24812e-08
5.0986e-06
1.34821e-08
5.0964e-06
1.44068e-08
5.09379e-06
1.52514e-08
5.0908e-06
1.60091e-08
5.08745e-06
1.66764e-08
5.08374e-06
1.72574e-08
5.07971e-06
1.77651e-08
5.07538e-06
1.82187e-08
5.07076e-06
1.86392e-08
5.06588e-06
1.9044e-08
5.06076e-06
1.94448e-08
5.05541e-06
1.98467e-08
5.04985e-06
2.02501e-08
5.04409e-06
2.06524e-08
5.03813e-06
2.10503e-08
5.03199e-06
2.14412e-08
5.02568e-06
2.18233e-08
5.0192e-06
2.21959e-08
5.01257e-06
2.25597e-08
5.00577e-06
2.29154e-08
4.99884e-06
2.32645e-08
4.99176e-06
2.36088e-08
4.98454e-06
2.39505e-08
4.97718e-06
2.42923e-08
4.96969e-06
2.46368e-08
4.96207e-06
2.49881e-08
4.95432e-06
2.53492e-08
4.94644e-06
2.57276e-08
4.93841e-06
2.61253e-08
4.93024e-06
2.65571e-08
4.92192e-06
2.70214e-08
4.91344e-06
2.7549e-08
4.90477e-06
2.81261e-08
4.8959e-06
2.8821e-08
4.8868e-06
2.95826e-08
4.87742e-06
3.05718e-08
4.86773e-06
3.16291e-08
4.85764e-06
3.3149e-08
4.8471e-06
3.46735e-08
4.83594e-06
3.71905e-08
4.82405e-06
3.94423e-08
4.81124e-06
4.39392e-08
4.79708e-06
4.73171e-08
4.78156e-06
5.60096e-08
4.76316e-06
6.12714e-08
4.74306e-06
7.9638e-08
4.71574e-06
8.92417e-08
4.68825e-06
1.32435e-07
4.64248e-06
1.56972e-07
4.61352e-06
2.69475e-07
3.47733e-07
4.54514e-06
-1.5426e-07
1.96493e-07
-3.25974e-07
2.44012e-07
-4.96503e-07
2.57287e-07
-6.68177e-07
2.80348e-07
-8.40891e-07
3.05305e-07
-1.0152e-06
3.34383e-07
-1.19156e-06
3.67135e-07
-1.37031e-06
4.04121e-07
-1.55173e-06
4.45501e-07
-1.73585e-06
4.91264e-07
-1.92233e-06
5.41086e-07
-2.11082e-06
5.94564e-07
-2.30107e-06
6.51338e-07
-2.4928e-06
7.11141e-07
-2.68578e-06
7.73674e-07
-2.87988e-06
8.38457e-07
-3.07533e-06
9.04752e-07
-3.27288e-06
9.71615e-07
-3.47399e-06
1.03798e-06
-3.6807e-06
1.10274e-06
-3.89555e-06
1.16506e-06
-4.12142e-06
1.22473e-06
-4.36144e-06
1.28205e-06
-4.61848e-06
1.3374e-06
-4.89482e-06
1.39079e-06
-5.19221e-06
1.44187e-06
-5.51207e-06
1.49005e-06
-5.85555e-06
1.5344e-06
-6.22323e-06
1.57344e-06
-6.61453e-06
1.60459e-06
-7.02644e-06
1.62356e-06
-7.45235e-06
1.62429e-06
-7.88171e-06
1.5999e-06
-8.30123e-06
1.54446e-06
-8.69696e-06
1.45463e-06
-9.05623e-06
1.33027e-06
-9.36875e-06
1.17389e-06
-9.62704e-06
9.90124e-07
-9.82648e-06
7.84945e-07
-9.96455e-06
5.64387e-07
-1.00396e-05
3.3377e-07
-1.00484e-05
9.7426e-08
-9.99607e-06
-1.34352e-07
-9.88731e-06
-3.57947e-07
-9.72269e-06
-5.70575e-07
-9.50563e-06
-7.67025e-07
-9.24126e-06
-9.43626e-07
-8.93613e-06
-1.09797e-06
-8.59728e-06
-1.22959e-06
-8.23164e-06
-1.33978e-06
-7.84516e-06
-1.43152e-06
-7.44225e-06
-1.50901e-06
-7.02538e-06
-1.57685e-06
-6.59513e-06
-1.63905e-06
-6.15081e-06
-1.69808e-06
-5.69167e-06
-1.75396e-06
-5.21804e-06
-1.80453e-06
-4.732e-06
-1.84643e-06
-4.23723e-06
-1.8762e-06
-3.73865e-06
-1.89084e-06
-3.24176e-06
-1.88887e-06
-2.75231e-06
-1.8699e-06
-2.27547e-06
-1.83486e-06
-1.81542e-06
-1.7858e-06
-1.37515e-06
-1.72545e-06
-9.56579e-07
-1.65658e-06
-5.60184e-07
-1.58205e-06
-1.86459e-07
-1.50411e-06
1.66391e-07
-1.42631e-06
4.98421e-07
-1.34809e-06
8.10744e-07
-1.27089e-06
1.10429e-06
-1.19547e-06
1.37993e-06
-1.12245e-06
1.63848e-06
-1.05226e-06
1.8808e-06
-9.85229e-07
2.10772e-06
-9.21565e-07
2.32012e-06
-8.61382e-07
2.51888e-06
-8.04697e-07
2.70484e-06
-7.51452e-07
2.87884e-06
-7.01523e-07
3.04166e-06
-6.54745e-07
3.19403e-06
-6.10924e-07
3.33662e-06
-5.69857e-07
3.47005e-06
-5.31337e-07
3.59489e-06
-4.95171e-07
3.71164e-06
-4.61177e-07
3.82079e-06
-4.29192e-07
3.92277e-06
-3.99072e-07
4.01799e-06
-3.70692e-07
4.10684e-06
-3.43945e-07
4.18967e-06
-3.18737e-07
4.26684e-06
-2.94988e-07
4.33867e-06
-2.72628e-07
4.40548e-06
-2.51594e-07
4.46755e-06
-2.31826e-07
4.52518e-06
-2.13269e-07
4.57863e-06
-1.9587e-07
4.62816e-06
-1.79577e-07
4.67402e-06
-1.64336e-07
4.71643e-06
-1.50097e-07
4.7556e-06
-1.36808e-07
4.79175e-06
-1.24419e-07
4.82506e-06
-1.12879e-07
4.8557e-06
-1.02141e-07
4.88385e-06
-9.21553e-08
4.90965e-06
-8.2877e-08
4.93326e-06
-7.42614e-08
4.95481e-06
-6.62664e-08
4.97443e-06
-5.88513e-08
4.99224e-06
-5.19778e-08
5.00834e-06
-4.56092e-08
5.02284e-06
-3.97105e-08
5.03585e-06
-3.42482e-08
5.04745e-06
-2.91908e-08
5.05774e-06
-2.45093e-08
5.0668e-06
-2.01819e-08
5.0747e-06
-1.61836e-08
5.08152e-06
-1.24882e-08
5.08731e-06
-9.07452e-09
5.09216e-06
-5.91626e-09
5.09611e-06
-2.98782e-09
5.09924e-06
-2.83756e-10
5.10159e-06
2.21489e-09
5.10321e-06
4.533e-09
5.10416e-06
6.67889e-09
5.10448e-06
8.66633e-09
5.10421e-06
1.05089e-08
5.1034e-06
1.22182e-08
5.10208e-06
1.38049e-08
5.10028e-06
1.52771e-08
5.09805e-06