/*--------------------------------*- C++ -*----------------------------------*\
  =========                 |
  \\      /  F ield         | OpenFOAM: The Open Source CFD Toolbox
   \\    /   O peration     | Website:  https://openfoam.org
    \\  /    A nd           | Version:  9
     \\/     M anipulation  |
\*---------------------------------------------------------------------------*/
FoamFile
{
    format      ascii;
    class       volVectorField;
    location    "0.013";
    object      U_0;
}
// * * * * * * * * * * * * * * * * * * * * * * * * * * * * * * * * * * * * * //

dimensions      [0 1 -1 0 0 0 0];

internalField   nonuniform List<vector> 
12225
(
(10.0546 0.0326699 0)
(9.67857 0.0699134 0)
(9.27624 0.0607455 0)
(8.98093 0.0414188 0)
(8.77028 0.0368694 0)
(8.53703 0.0561616 0)
(8.22905 0.0847616 0)
(7.87407 0.0994942 0)
(7.5253 0.092542 0)
(7.23738 0.0738809 0)
(7.00265 0.0571933 0)
(6.8251 0.0497242 0)
(6.6304 0.0518999 0)
(6.46707 0.0563872 0)
(6.22072 0.0671639 0)
(6.04487 0.0682511 0)
(5.72136 0.0829899 0)
(5.53165 0.0801801 0)
(9.95628 0.0619917 0)
(10.0473 0.12618 0)
(10.1355 0.0994256 0)
(10.1574 0.0723597 0)
(10.1286 0.0639437 0)
(10.0854 0.0703982 0)
(10.0651 0.0810989 0)
(10.075 0.0862342 0)
(10.0883 0.0810832 0)
(10.0822 0.0724834 0)
(10.0354 0.0647191 0)
(9.95858 0.0639894 0)
(9.85264 0.0668569 0)
(9.75682 0.0774098 0)
(9.65284 0.0888833 0)
(9.57922 0.103472 0)
(9.48655 0.12998 0)
(9.41511 0.161706 0)
(9.77634 0.00712521 0)
(9.86588 0.0223141 0)
(10.0807 0.0203944 0)
(10.253 0.0382969 0)
(10.3234 0.0574004 0)
(10.3017 0.0775125 0)
(10.2371 0.0962313 0)
(10.1734 0.105433 0)
(10.1275 0.104235 0)
(10.1012 0.102586 0)
(10.0873 0.10643 0)
(10.0742 0.115018 0)
(10.0521 0.123148 0)
(10.0198 0.127862 0)
(9.98333 0.132229 0)
(9.94936 0.137994 0)
(9.92452 0.152709 0)
(9.91685 0.177805 0)
(9.97521 0.0787056 0)
(9.88854 0.0593728 0)
(9.82958 0.0211118 0)
(9.86537 0.0157738 0)
(9.92095 0.0432628 0)
(9.95187 0.0817543 0)
(9.97634 0.108589 0)
(10.0024 0.110263 0)
(10.0153 0.0910597 0)
(10.0072 0.0699398 0)
(9.98619 0.0621764 0)
(9.96454 0.0710508 0)
(9.9493 0.0893912 0)
(9.94292 0.109342 0)
(9.9425 0.126503 0)
(9.94528 0.138428 0)
(9.94918 0.151298 0)
(9.95743 0.166833 0)
(9.73595 -0.0168901 0)
(9.7866 0.0217489 0)
(9.88567 0.0279885 0)
(9.9989 0.0223405 0)
(10.068 0.038569 0)
(10.0822 0.0671359 0)
(10.0718 0.091625 0)
(10.0482 0.107106 0)
(10.0062 0.117072 0)
(9.95178 0.126118 0)
(9.90166 0.133305 0)
(9.87012 0.135381 0)
(9.86083 0.131802 0)
(9.87216 0.126138 0)
(9.89649 0.123532 0)
(9.92655 0.127506 0)
(9.95499 0.140829 0)
(9.97904 0.160092 0)
(9.82521 0.0406941 0)
(9.84292 -0.00196603 0)
(9.90642 -0.0337073 0)
(9.95234 -0.0310585 0)
(9.98961 0.010519 0)
(10.0142 0.0650194 0)
(10.0216 0.107238 0)
(10.0099 0.123543 0)
(9.98908 0.115808 0)
(9.97623 0.0984993 0)
(9.97873 0.0856352 0)
(9.98958 0.0826547 0)
(9.99836 0.0877691 0)
(9.99857 0.0969698 0)
(9.99242 0.10751 0)
(9.98208 0.118868 0)
(9.97391 0.131861 0)
(9.9698 0.148355 0)
(10.2977 -0.0204548 0)
(10.3267 -0.0285953 0)
(10.1732 -0.00562763 0)
(10.0927 0.00566746 0)
(10.0957 0.0255174 0)
(10.0904 0.0619457 0)
(10.0607 0.103848 0)
(10.0233 0.132397 0)
(9.98405 0.141381 0)
(9.94061 0.138881 0)
(9.89479 0.134241 0)
(9.8545 0.130697 0)
(9.83186 0.128142 0)
(9.83332 0.1265 0)
(9.86119 0.126884 0)
(9.90524 0.131082 0)
(9.96146 0.140516 0)
(10.0144 0.15593 0)
(10.0495 -0.070439 0)
(10.097 0.0586091 0)
(10.0883 0.0415083 0)
(10.0398 -0.0041943 0)
(9.99638 0.0099536 0)
(9.96231 0.0691036 0)
(9.94386 0.123901 0)
(9.94013 0.146198 0)
(9.94831 0.141527 0)
(9.96936 0.128627 0)
(10.0009 0.11803 0)
(10.0366 0.108496 0)
(10.0681 0.0965895 0)
(10.091 0.0822624 0)
(10.104 0.0703675 0)
(10.1124 0.06536 0)
(10.1182 0.070346 0)
(10.1328 0.0871104 0)
(9.88593 -0.0302207 0)
(9.84252 -0.0311218 0)
(9.85475 0.00828333 0)
(9.86549 0.042773 0)
(9.85142 0.0577614 0)
(9.81847 0.0813136 0)
(9.79448 0.115303 0)
(9.79722 0.136814 0)
(9.83642 0.136566 0)
(9.91096 0.123402 0)
(10.0032 0.109535 0)
(10.0868 0.101962 0)
(10.1393 0.102422 0)
(10.1517 0.108366 0)
(10.127 0.115384 0)
(10.0828 0.122195 0)
(10.0335 0.126934 0)
(9.99978 0.13473 0)
(9.96519 0.0081679 0)
(9.91593 0.0773679 0)
(9.95559 0.0211157 0)
(9.97291 -0.00381247 0)
(9.89971 0.0378332 0)
(9.79777 0.103824 0)
(9.75663 0.140584 0)
(9.79394 0.125372 0)
(9.88053 0.0775142 0)
(9.98094 0.0324573 0)
(10.0689 0.0138842 0)
(10.133 0.024822 0)
(10.1704 0.0540622 0)
(10.1877 0.0879732 0)
(10.1902 0.114682 0)
(10.1848 0.129059 0)
(10.1747 0.131561 0)
(10.1595 0.12663 0)
(9.69331 0.0258202 0)
(9.73936 -0.01645 0)
(9.88201 -0.00879637 0)
(9.99165 0.0695419 0)
(9.97082 0.123427 0)
(9.89899 0.127502 0)
(9.86551 0.100937 0)
(9.87027 0.0661072 0)
(9.88066 0.0392318 0)
(9.88321 0.0287307 0)
(9.88256 0.0344813 0)
(9.88913 0.0519197 0)
(9.91037 0.0746284 0)
(9.9474 0.0966045 0)
(9.9923 0.114228 0)
(10.0362 0.126362 0)
(10.0686 0.137457 0)
(10.0871 0.149806 0)
(9.88816 0.0948769 0)
(10.0184 -0.0293573 0)
(10.0642 -0.0962982 0)
(10.1187 -0.0213844 0)
(10.1546 0.096754 0)
(10.1426 0.170592 0)
(10.0868 0.172816 0)
(10.0037 0.128071 0)
(9.92382 0.0730357 0)
(9.87457 0.0306337 0)
(9.8656 0.00789141 0)
(9.89064 0.00430564 0)
(9.93519 0.0156556 0)
(9.98208 0.0357832 0)
(10.0153 0.0583947 0)
(10.0313 0.0812957 0)
(10.0265 0.102836 0)
(10.0176 0.123513 0)
(10.0971 -0.0391937 0)
(10.1626 -0.0977686 0)
(10.0943 -0.0468865 0)
(9.9647 0.033244 0)
(9.90459 0.0944146 0)
(9.92414 0.133395 0)
(9.9719 0.14712 0)
(10.0092 0.134282 0)
(10.03 0.10158 0)
(10.0407 0.0613845 0)
(10.0434 0.0279676 0)
(10.0351 0.012796 0)
(10.015 0.0196069 0)
(9.98452 0.0448437 0)
(9.95053 0.0786479 0)
(9.91622 0.11295 0)
(9.89139 0.140904 0)
(9.8758 0.160615 0)
(10.1498 -0.0155302 0)
(10.0513 0.0155055 0)
(10.0514 0.0137668 0)
(10.0313 0.0728222 0)
(9.98367 0.133049 0)
(9.94963 0.163642 0)
(9.94515 0.152174 0)
(9.95634 0.10666 0)
(9.96606 0.0537423 0)
(9.96585 0.0172016 0)
(9.95849 0.00708345 0)
(9.95295 0.0219482 0)
(9.95735 0.0534355 0)
(9.97104 0.0893314 0)
(9.99356 0.118423 0)
(10.0209 0.136548 0)
(10.0546 0.142687 0)
(10.0887 0.143868 0)
(9.75567 0.0533899 0)
(9.84129 -0.0561502 0)
(9.84282 -0.0375947 0)
(9.78617 0.0587358 0)
(9.75695 0.119552 0)
(9.81624 0.129441 0)
(9.93634 0.116513 0)
(10.0586 0.104833 0)
(10.1373 0.0950345 0)
(10.155 0.0754642 0)
(10.1257 0.0442148 0)
(10.0802 0.0134471 0)
(10.0429 -0.00395901 0)
(10.0236 -0.00334927 0)
(10.0175 0.0104963 0)
(10.0199 0.0311891 0)
(10.0231 0.0515298 0)
(10.0291 0.068919 0)
(10.0597 0.0411903 0)
(9.99675 -0.0252253 0)
(9.93166 0.0630361 0)
(9.88372 0.142868 0)
(9.89458 0.127401 0)
(9.95233 0.0375422 0)
(10.0373 -0.0508936 0)
(10.1361 -0.077255 0)
(10.2234 -0.040041 0)
(10.2672 0.0229344 0)
(10.2555 0.0787704 0)
(10.2037 0.114633 0)
(10.1386 0.133443 0)
(10.0837 0.144616 0)
(10.0506 0.15274 0)
(10.0393 0.158772 0)
(10.0447 0.159022 0)
(10.0578 0.150843 0)
(9.96908 0.238395 0)
(9.88729 0.156317 0)
(9.88439 0.0527099 0)
(9.90935 0.0569559 0)
(9.95983 0.0531288 0)
(10.0173 -0.00802469 0)
(10.062 -0.0781667 0)
(10.0888 -0.0952327 0)
(10.0926 -0.0438094 0)
(10.0756 0.0433745 0)
(10.0452 0.119008 0)
(10.0104 0.15198 0)
(9.98166 0.137648 0)
(9.9689 0.0932694 0)
(9.97416 0.0430079 0)
(9.99551 0.00601525 0)
(10.0251 -0.0102587 0)
(10.0575 -0.00580725 0)
(10.055 0.112971 0)
(10.0406 0.0212053 0)
(10.0527 0.0265265 0)
(10.1263 0.0367246 0)
(10.1881 -0.0093345 0)
(10.1914 -0.0877387 0)
(10.1361 -0.127921 0)
(10.06 -0.0942665 0)
(10.0031 -0.00399066 0)
(9.98426 0.101578 0)
(10.0024 0.181831 0)
(10.0412 0.21663 0)
(10.0777 0.207442 0)
(10.0974 0.171346 0)
(10.0978 0.128718 0)
(10.083 0.0933876 0)
(10.0599 0.0713951 0)
(10.0341 0.0585387 0)
(10.0473 -0.0159064 0)
(9.97149 0.00531792 0)
(9.98563 -0.0432603 0)
(10.0035 -0.0700128 0)
(9.98038 -0.00891667 0)
(9.91873 0.0936378 0)
(9.8541 0.150892 0)
(9.81694 0.133399 0)
(9.82046 0.074192 0)
(9.86264 0.0172346 0)
(9.92719 -0.012923 0)
(9.99533 -0.014875 0)
(10.0561 0.00262754 0)
(10.1062 0.0289581 0)
(10.1483 0.0562173 0)
(10.1827 0.0783878 0)
(10.2109 0.094112 0)
(10.2314 0.102653 0)
(9.93692 0.052686 0)
(9.96372 -0.00604491 0)
(10.0042 -0.0214488 0)
(10.012 0.0172738 0)
(9.97335 0.0829643 0)
(9.94011 0.108623 0)
(9.93326 0.0622631 0)
(9.95239 -0.0215275 0)
(9.98346 -0.082803 0)
(10.0087 -0.0939828 0)
(10.0173 -0.071173 0)
(10.0035 -0.0440724 0)
(9.97149 -0.0313962 0)
(9.93344 -0.03495 0)
(9.90327 -0.0445735 0)
(9.89149 -0.0488336 0)
(9.90004 -0.0417637 0)
(9.9292 -0.0192929 0)
(10.026 -0.0592769 0)
(9.98957 -0.134723 0)
(9.98565 -0.0681946 0)
(9.91714 0.0131621 0)
(9.89194 0.0932768 0)
(9.92051 0.136145 0)
(9.96308 0.109062 0)
(9.99772 0.0304323 0)
(10.0246 -0.0437089 0)
(10.0457 -0.0620524 0)
(10.0622 -0.019282 0)
(10.075 0.0519772 0)
(10.0814 0.111246 0)
(10.0796 0.132163 0)
(10.0715 0.109303 0)
(10.0608 0.0566208 0)
(10.052 -0.00815933 0)
(10.047 -0.0630685 0)
(10.0399 -0.149993 0)
(9.92899 0.0190964 0)
(9.86186 0.0565759 0)
(9.82714 0.0756148 0)
(9.8689 0.0895961 0)
(9.96825 0.0652103 0)
(10.0568 -0.00292582 0)
(10.0821 -0.0796788 0)
(10.0507 -0.127127 0)
(10.0054 -0.132411 0)
(9.98462 -0.102695 0)
(10.0054 -0.0590161 0)
(10.0614 -0.021585 0)
(10.1326 -0.00101207 0)
(10.1981 0.00264826 0)
(10.244 -0.0038081 0)
(10.2665 -0.0125232 0)
(10.2663 -0.0168289 0)
(9.85312 -0.087864 0)
(9.7909 0.00358085 0)
(9.8466 0.0509062 0)
(9.94895 0.00836341 0)
(10.0888 -0.0500509 0)
(10.2039 -0.0598114 0)
(10.2332 -0.0250223 0)
(10.1695 0.0132735 0)
(10.0507 0.0238465 0)
(9.92988 0.00372501 0)
(9.84627 -0.0278494 0)
(9.81333 -0.0511457 0)
(9.8254 -0.0595203 0)
(9.86716 -0.057278 0)
(9.92259 -0.0509929 0)
(9.98026 -0.0450196 0)
(10.0337 -0.0416179 0)
(10.0797 -0.0398185 0)
(10.0201 -0.0671112 0)
(9.9616 -0.0569688 0)
(9.99717 -0.0758318 0)
(10.0327 -0.0864957 0)
(9.99999 -0.0885027 0)
(9.93135 -0.045108 0)
(9.89074 0.0314987 0)
(9.91223 0.0932783 0)
(9.98599 0.106134 0)
(10.0775 0.0732375 0)
(10.1563 0.0165578 0)
(10.2096 -0.0407315 0)
(10.2373 -0.0859783 0)
(10.2455 -0.117085 0)
(10.2406 -0.135241 0)
(10.2286 -0.142054 0)
(10.212 -0.139101 0)
(10.1936 -0.127868 0)
(9.98456 -0.0468638 0)
(10.0852 0.0268352 0)
(10.0978 -0.0136505 0)
(10.0658 -0.033579 0)
(10.0556 -0.0147586 0)
(10.0724 -0.0016386 0)
(10.0994 -0.0167371 0)
(10.1308 -0.0523164 0)
(10.1622 -0.0919832 0)
(10.1907 -0.120779 0)
(10.2179 -0.129901 0)
(10.2432 -0.119625 0)
(10.2587 -0.0970634 0)
(10.2546 -0.0709192 0)
(10.2272 -0.0479097 0)
(10.1826 -0.0307761 0)
(10.1299 -0.019302 0)
(10.0823 -0.0124645 0)
(10.1728 -0.021595 0)
(10.1702 -0.0697874 0)
(10.159 -0.0520743 0)
(10.1174 -0.0425124 0)
(10.0893 -0.0550139 0)
(10.0925 -0.0482078 0)
(10.1112 -0.00691689 0)
(10.1256 0.0331818 0)
(10.1242 0.0364717 0)
(10.1023 0.000853801 0)
(10.0641 -0.0483077 0)
(10.0221 -0.0840982 0)
(9.98941 -0.0939864 0)
(9.97302 -0.0809031 0)
(9.97421 -0.0574209 0)
(9.98858 -0.0361372 0)
(10.0115 -0.0250568 0)
(10.0366 -0.026289 0)
(9.77015 0.0416264 0)
(9.88947 0.0474454 0)
(9.94631 -0.0118022 0)
(10.015 -0.0259045 0)
(10.0691 -0.0275066 0)
(10.0945 -0.0343255 0)
(10.1109 -0.0423477 0)
(10.1392 -0.0489322 0)
(10.1759 -0.0556161 0)
(10.201 -0.0616097 0)
(10.2008 -0.0644108 0)
(10.1776 -0.0641629 0)
(10.1442 -0.0627263 0)
(10.1142 -0.0617366 0)
(10.0962 -0.0613559 0)
(10.091 -0.0612313 0)
(10.0955 -0.0607485 0)
(10.1042 -0.0581237 0)
(10.083 -0.163964 0)
(10.0474 -0.112573 0)
(10.0383 -0.0739128 0)
(10.0393 -0.0679888 0)
(10.0426 -0.066116 0)
(10.0435 -0.0533515 0)
(10.0309 -0.0310064 0)
(10.003 -0.0122594 0)
(9.96565 -0.00918457 0)
(9.92828 -0.0209739 0)
(9.9022 -0.0370206 0)
(9.89697 -0.0482772 0)
(9.91538 -0.0519094 0)
(9.95171 -0.0496864 0)
(9.99431 -0.0450362 0)
(10.0324 -0.0411818 0)
(10.0589 -0.0404241 0)
(10.0722 -0.0437382 0)
(9.90897 0.0147966 0)
(9.90201 -0.00296256 0)
(9.95117 -0.0326766 0)
(9.9928 -0.051576 0)
(9.99863 -0.0514201 0)
(9.99656 -0.0392964 0)
(10.0138 -0.0243451 0)
(10.0542 -0.014998 0)
(10.1037 -0.016477 0)
(10.1436 -0.0291783 0)
(10.1618 -0.0493379 0)
(10.1577 -0.0716589 0)
(10.1389 -0.0906952 0)
(10.1161 -0.101478 0)
(10.0962 -0.101635 0)
(10.0815 -0.0932719 0)
(10.0696 -0.0801754 0)
(10.056 -0.0679206 0)
(9.96483 -0.0776537 0)
(9.71421 -0.113275 0)
(9.50427 -0.0779199 0)
(9.30695 -0.0617722 0)
(9.11245 -0.0578797 0)
(8.94294 -0.0569332 0)
(8.81184 -0.0527679 0)
(8.71304 -0.0466206 0)
(8.62864 -0.0422267 0)
(8.54094 -0.0393784 0)
(8.43795 -0.0367139 0)
(8.31557 -0.0350138 0)
(8.17589 -0.0357441 0)
(8.02689 -0.0381152 0)
(7.87846 -0.0396687 0)
(7.74221 -0.0391758 0)
(7.62297 -0.0357764 0)
(7.52746 -0.0311035 0)
(0.0465059 -0.155671 -1.27909e-19)
(0.135081 -0.178066 1.26969e-19)
(0.227139 -0.173638 0)
(0.309955 -0.167281 0)
(0.384007 -0.159773 0)
(0.448527 -0.150691 -1.23189e-19)
(0.502627 -0.139712 0)
(0.544762 -0.126788 0)
(0.573064 -0.112627 0)
(0.586843 -0.0982952 0)
(0.584077 -0.0837417 1.18618e-19)
(0.562772 -0.0676 0)
(0.521062 -0.0479873 0)
(0.455908 -0.02371 0)
(0.364066 0.00593875 0)
(0.24181 0.0405504 1.14355e-19)
(0.0861843 0.0800622 0)
(-0.104562 0.124195 0)
(-0.333495 0.172384 0)
(-0.602119 0.223178 0)
(-0.909337 0.273583 0)
(-1.25189 0.319207 0)
(-1.62352 0.355571 0)
(-2.01832 0.381715 1.07092e-19)
(-2.43051 0.399323 -1.06202e-19)
(-2.85574 0.411101 1.05332e-19)
(-3.29093 0.419156 1.04482e-19)
(-3.73367 0.424321 0)
(-4.18147 0.426538 0)
(-4.63145 0.425314 -1.02059e-19)
(-5.07994 0.419896 -1.01292e-19)
(-5.52249 0.40951 0)
(-5.95389 0.393655 0)
(-6.36836 0.372107 -9.90867e-20)
(-6.75972 0.344887 0)
(-7.12158 0.312267 0)
(-7.44759 0.27476 9.69503e-20)
(-7.73169 0.233223 0)
(-7.96866 0.188948 9.54922e-20)
(-8.15473 0.143354 1.89471e-19)
(-8.2873 0.0977939 0)
(-8.36456 0.053697 0)
(-8.3859 0.012289 0)
(-8.35384 -0.0258137 0)
(-8.27594 -0.0605062 0)
(-8.15188 -0.0918812 1.79103e-19)
(-7.98777 -0.119726 1.77161e-19)
(-7.78649 -0.144111 1.75177e-19)
(-7.55308 -0.165157 0)
(-7.29105 -0.18309 -1.71119e-19)
(-7.00431 -0.198261 0)
(-6.69571 -0.21114 1.67004e-19)
(-6.36779 -0.222079 1.64945e-19)
(-6.02253 -0.231423 0)
(-5.66168 -0.239363 0)
(-5.28692 -0.245943 0)
(-4.90001 -0.251106 1.56859e-19)
(-4.50298 -0.254724 0)
(-4.09819 -0.256621 0)
(-3.68838 -0.256615 0)
(-3.27642 -0.254615 0)
(-2.8653 -0.250647 0)
(-2.45813 -0.244812 0)
(-2.05789 -0.237275 0)
(-1.66717 -0.228221 0)
(-1.2881 -0.217875 -1.4082e-19)
(-0.922586 -0.207053 0)
(-0.572362 -0.195102 0)
(-0.238023 -0.183086 1.36269e-19)
(0.0768823 -0.171836 1.3476e-19)
(0.373693 -0.159832 0)
(0.655478 -0.148213 -1.31684e-19)
(0.920534 -0.137003 1.30195e-19)
(1.16921 -0.12627 0)
(1.402 -0.116068 -1.27307e-19)
(1.61954 -0.10643 0)
(1.82252 -0.0973671 0)
(2.01168 -0.0888798 1.23161e-19)
(2.18777 -0.0809554 0)
(2.35153 -0.0735735 -1.20495e-19)
(2.50368 -0.0667085 0)
(2.64492 -0.060332 1.17893e-19)
(2.77588 -0.0544139 1.16612e-19)
(2.89719 -0.0489246 1.15344e-19)
(3.00941 -0.0438354 2.28176e-19)
(3.11309 -0.0391198 -2.25687e-19)
(3.20872 -0.0347533 0)
(3.29677 -0.0307141 0)
(3.37768 -0.026983 0)
(3.45185 -0.0235426 -2.1593e-19)
(3.5197 -0.0203778 -2.13537e-19)
(3.58158 -0.0174749 2.11162e-19)
(3.63787 -0.0148212 0)
(3.68892 -0.0124051 -2.06462e-19)
(3.73505 -0.0102151 -2.04137e-19)
(3.77661 -0.00824012 -2.01827e-19)
(3.81391 -0.0064689 0)
(3.84725 -0.00489028 0)
(3.87693 -0.00349275 0)
(3.90324 -0.00226478 -1.9274e-19)
(3.92645 -0.00119452 0)
(3.94681 -0.00026996 0)
(3.96459 0.000521528 1.86078e-19)
(3.98001 0.00119225 0)
(3.99329 0.00175512 0)
(4.00464 0.00222161 1.79542e-19)
(4.01426 0.002602 0)
(4.02232 0.00290814 0)
(4.02899 0.00314829 -1.73129e-19)
(4.03442 0.00333845 -1.71019e-19)
(4.03874 0.00349253 0)
(4.042 0.00361055 1.66837e-19)
(4.04434 0.00369246 0)
(4.04588 0.00374128 -1.62707e-19)
(4.04671 0.0037631 0)
(4.04692 0.00375808 -1.5863e-19)
(4.04659 0.00373479 -1.5661e-19)
(4.04581 0.00368992 0)
(4.04464 0.00362744 0)
(4.04313 0.00355379 0)
(4.04132 0.00347279 0)
(4.03926 0.00338886 0)
(4.03698 0.00330772 0)
(4.03449 0.00323343 0)
(4.03183 0.00316315 -1.40908e-19)
(4.02902 0.00309259 1.39001e-19)
(4.02606 0.00302503 0)
(4.02298 0.00297107 0)
(4.01977 0.00294011 0)
(4.01642 0.00293093 0)
(4.01292 0.00292965 2.59285e-19)
(4.0093 0.00291626 0)
(4.0056 0.00287507 -2.51963e-19)
(4.00186 0.00280131 2.48336e-19)
(3.99814 0.00270113 0)
(3.99447 0.00258636 0)
(3.99089 0.00246869 0)
(3.98739 0.0023559 -2.34053e-19)
(3.98397 0.00225138 -2.30538e-19)
(3.98061 0.00215538 0)
(3.97731 0.00206686 -2.23572e-19)
(3.97406 0.00198471 -2.20121e-19)
(3.97084 0.00190825 2.16692e-19)
(3.96765 0.00183729 0)
(3.96448 0.00177179 0)
(3.96133 0.00171183 2.06527e-19)
(3.9582 0.00165735 0)
(3.95507 0.00160829 0)
(3.95195 0.00156442 0)
(3.94883 0.00152562 0)
(3.9457 0.00149161 -1.89991e-19)
(3.94256 0.00146237 -1.86743e-19)
(3.9394 0.00143761 0)
(3.93621 0.00141766 -1.80303e-19)
(3.93299 0.00140216 0)
(3.92973 0.00139195 0)
(3.92642 0.00138653 -1.70783e-19)
(3.92304 0.0013876 0)
(3.91957 0.00139441 -1.64527e-19)
(3.91601 0.00140984 0)
(3.9123 0.00143309 0)
(3.90848 0.00146829 -1.55275e-19)
(3.90439 0.00151612 0)
(3.90018 0.00157984 -1.49192e-19)
(3.89548 0.00166811 0)
(3.89066 0.00177297 0)
(3.88495 0.00193526 0)
(3.8792 0.00209434 1.37224e-19)
(3.87177 0.00240949 0)
(3.86449 0.00262011 -1.31335e-19)
(3.85411 0.00328729 0)
(3.84409 0.00347629 0)
(3.82869 0.00503659 0)
(3.81284 0.00486325 0)
(3.78927 0.008931 0)
(3.75826 0.00716538 0)
(3.72287 0.019042 0)
(3.64428 0.0120817 2.16706e-19)
(3.59589 0.0541007 0)
(3.34205 0.0434555 0)
(-0.000624765 -0.233236 3.83779e-19)
(-0.0371727 -0.225108 -3.81044e-19)
(-0.072333 -0.199622 0)
(-0.117823 -0.167061 2.50296e-19)
(-0.171137 -0.133018 0)
(-0.233651 -0.097723 1.23273e-19)
(-0.30527 -0.0603761 -2.44694e-19)
(-0.38688 -0.0197481 -2.42827e-19)
(-0.480294 0.0251091 0)
(-0.58751 0.0750568 -2.39092e-19)
(-0.709913 0.130226 -1.18606e-19)
(-0.849949 0.190828 0)
(-1.00869 0.257228 0)
(-1.18681 0.329781 0)
(-1.38467 0.408469 0)
(-1.60282 0.492504 -1.1389e-19)
(-1.84117 0.580189 0)
(-2.09905 0.668333 2.24024e-19)
(-2.37409 0.753034 0)
(-2.6629 0.830467 0)
(-2.9628 0.897501 -2.18447e-19)
(-3.27219 0.952288 0)
(-3.58921 0.99451 2.14856e-19)
(-3.91299 1.02549 -1.06475e-19)
(-4.2425 1.0471 1.05615e-19)
(-4.57668 1.06121 -1.04777e-19)
(-4.91427 1.06891 -1.03961e-19)
(-5.25385 1.07047 0)
(-5.59371 1.0655 0)
(-5.93175 1.05305 1.01643e-19)
(-6.26558 1.03182 -1.01174e-19)
(-6.59263 1.00042 0)
(-6.91003 0.957675 0)
(-7.21437 0.902787 9.88118e-20)
(-7.5015 0.835409 0)
(-7.76665 0.755615 0)
(-8.00473 0.663991 -9.67714e-20)
(-8.21075 0.561825 0)
(-8.38021 0.451062 9.57359e-20)
(-8.50938 0.334182 -1.89272e-19)
(-8.59563 0.214274 0)
(-8.63748 0.0948431 0)
(-8.6344 -0.0208452 -3.69695e-19)
(-8.58525 -0.130284 -3.66101e-19)
(-8.48661 -0.231776 -3.6238e-19)
(-8.34514 -0.324128 1.79566e-19)
(-8.16241 -0.406547 -1.77028e-19)
(-7.94415 -0.478802 -5.25623e-19)
(-7.69408 -0.541144 3.465e-19)
(-7.41702 -0.594286 1.70979e-19)
(-7.11641 -0.639297 0)
(-6.79543 -0.67748 -1.66864e-19)
(-6.45633 -0.710061 1.65123e-19)
(-6.10081 -0.738052 0)
(-5.73023 -0.762063 0)
(-5.34589 -0.782254 0)
(-4.94927 -0.798426 -1.56725e-19)
(-4.5422 -0.81014 0)
(-4.12696 -0.816753 3.05897e-19)
(-3.70635 -0.817606 0)
(-3.28345 -0.812365 2.98452e-19)
(-2.86147 -0.801071 0)
(-2.4436 -0.783967 -2.91392e-19)
(-2.03285 -0.761554 0)
(-1.63193 -0.734596 2.84731e-19)
(-1.24318 -0.704096 -1.40804e-19)
(-0.868088 -0.671062 0)
(-0.508275 -0.636089 -2.7542e-19)
(-0.165998 -0.600112 -1.36205e-19)
(0.15791 -0.565565 -1.34682e-19)
(0.464859 -0.53007 0)
(0.755955 -0.495503 -1.3164e-19)
(1.03068 -0.462147 -1.30115e-19)
(1.28939 -0.430227 0)
(1.53264 -0.399898 1.27233e-19)
(1.76112 -0.371239 -2.51692e-19)
(1.97557 -0.344278 0)
(2.17673 -0.319002 -1.23093e-19)
(2.3654 -0.295367 0)
(2.54232 -0.273305 3.61311e-19)
(2.70821 -0.252731 0)
(2.86376 -0.233555 -3.53504e-19)
(3.00962 -0.215683 -1.16548e-19)
(3.14639 -0.199019 1.15297e-19)
(3.27461 -0.183475 2.28078e-19)
(3.39481 -0.168966 -2.25585e-19)
(3.50745 -0.155416 0)
(3.61297 -0.142757 0)
(3.71177 -0.130929 0)
(3.80423 -0.119878 6.47405e-19)
(3.89069 -0.10956 2.13401e-19)
(3.9715 -0.099933 -2.11024e-19)
(4.04695 -0.090962 0)
(4.11735 -0.0826149 -2.06336e-19)
(4.18297 -0.0748622 2.03993e-19)
(4.24409 -0.0676764 2.01682e-19)
(4.30097 -0.061031 0)
(4.35384 -0.0549003 0)
(4.40296 -0.049259 0)
(4.44853 -0.0440819 1.92588e-19)
(4.49078 -0.0393438 0)
(4.52992 -0.0350198 -3.76267e-19)
(4.56613 -0.0310844 -5.57774e-19)
(4.59962 -0.0275125 3.67464e-19)
(4.63055 -0.0242785 0)
(4.65909 -0.0213577 1.7939e-19)
(4.68541 -0.0187267 0)
(4.70965 -0.016361 3.50194e-19)
(4.73197 -0.0142383 -1.72975e-19)
(4.75248 -0.0123334 -1.70864e-19)
(4.77135 -0.0106226 0)
(4.78874 -0.00909099 -5.00039e-19)
(4.80477 -0.00773089 3.29219e-19)
(4.81952 -0.00653117 1.6255e-19)
(4.83309 -0.00547974 0)
(4.84555 -0.00455841 1.58475e-19)
(4.85699 -0.0037564 4.69371e-19)
(4.86746 -0.00305195 0)
(4.87705 -0.00242647 3.04917e-19)
(4.88584 -0.00187882 3.00956e-19)
(4.89388 -0.00140249 2.97021e-19)
(4.90122 -0.00098582 0)
(4.90792 -0.000621076 0)
(4.91405 -0.000299536 0)
(4.91965 -1.6728e-05 -1.40765e-19)
(4.92477 0.000229946 -1.38859e-19)
(4.92944 0.000446489 0)
(4.9337 0.000641148 -2.70168e-19)
(4.93761 0.000820678 -2.66429e-19)
(4.9412 0.000986424 0)
(4.94451 0.00113285 -2.5902e-19)
(4.94758 0.00124967 -5.10704e-19)
(4.95042 0.00132764 2.51706e-19)
(4.95305 0.00136351 2.48084e-19)
(4.95549 0.00136213 0)
(4.95776 0.00133435 0)
(4.95988 0.00129328 0)
(4.96188 0.00125025 2.33817e-19)
(4.96375 0.00121278 -2.30306e-19)
(4.9655 0.00118415 -4.53632e-19)
(4.96712 0.00116453 2.23348e-19)
(4.9686 0.00115234 -2.19902e-19)
(4.96995 0.00114549 -2.16476e-19)
(4.97116 0.0011422 0)
(4.97224 0.00114116 0)
(4.97318 0.00114167 2.06324e-19)
(4.974 0.00114337 0)
(4.9747 0.00114622 0)
(4.97529 0.00115034 -3.92711e-19)
(4.97578 0.00115601 0)
(4.97617 0.00116354 -1.89808e-19)
(4.97646 0.00117346 1.86564e-19)
(4.97667 0.00118622 0)
(4.97679 0.00120267 -1.80132e-19)
(4.97682 0.00122349 0)
(4.97677 0.00125 0)
(4.97664 0.00128336 1.70623e-19)
(4.97642 0.00132539 -3.3498e-19)
(4.97611 0.00137848 1.64375e-19)
(4.97569 0.00144461 0)
(4.97516 0.00152938 0)
(4.9745 0.00163294 -1.55134e-19)
(4.97369 0.00177021 0)
(4.97268 0.00193148 -1.49058e-19)
(4.97147 0.00215966 0)
(4.96994 0.00240756 0)
(4.96813 0.00280279 0)
(4.96577 0.00317255 -1.37103e-19)
(4.96301 0.00389865 0)
(4.95923 0.00441352 1.3122e-19)
(4.95495 0.00585334 0)
(4.94859 0.00645705 0)
(4.94184 0.00957991 -2.45016e-19)
(4.93036 0.00994204 2.39267e-19)
(4.91954 0.0173841 0)
(4.8969 0.0164855 0)
(4.87933 0.0363538 0)
(4.83012 0.0330361 -6.49573e-19)
(4.80406 0.0964214 0)
(4.69729 0.104389 4.108e-19)
(-0.0419862 -0.0549679 6.09749e-23)
(-0.171994 -0.0129163 5.07955e-19)
(-0.292162 0.0145551 0)
(-0.417452 0.0526304 -5.00183e-19)
(-0.543963 0.0931457 0)
(-0.675075 0.138821 0)
(-0.812055 0.189878 -4.24256e-23)
(-0.956141 0.247225 2.42369e-19)
(-1.10789 0.310947 2.40488e-19)
(-1.26765 0.381353 2.38542e-19)
(-1.43575 0.458533 0)
(-1.61257 0.541504 0)
(-1.79804 0.629519 -2.32862e-19)
(-1.99156 0.722316 -4.61943e-19)
(-2.19214 0.819325 4.5818e-19)
(-2.39857 0.919261 0)
(-2.60955 1.01996 4.50727e-19)
(-2.82399 1.11843 -2.23446e-19)
(-3.04101 1.21151 0)
(-3.26035 1.29626 4.39824e-19)
(-3.48262 1.37012 2.17999e-19)
(-3.70917 1.43157 -4.32814e-19)
(-3.94178 1.48068 -2.14505e-19)
(-4.18263 1.51884 0)
(-4.43368 1.54774 4.22779e-19)
(-4.69646 1.56874 4.19571e-19)
(-4.97163 1.58248 0)
(-5.25916 1.58888 4.13376e-19)
(-5.55867 1.58698 0)
(-5.86956 1.57512 4.0748e-19)
(-6.19068 1.5514 2.01961e-19)
(-6.51985 1.5137 0)
(-6.85336 1.45973 0)
(-7.1856 1.38721 0)
(-7.50908 1.29425 0)
(-7.81505 1.17969 0)
(-8.09459 1.0434 0)
(-8.33942 0.886824 3.85872e-19)
(-8.54217 0.713117 -5.74068e-19)
(-8.69676 0.526849 0)
(-8.79883 0.333625 0)
(-8.84614 0.139375 0)
(-8.83853 -0.0506927 -1.18183e-21)
(-8.77717 -0.232503 3.65878e-19)
(-8.66497 -0.402464 7.25357e-19)
(-8.50589 -0.557539 -7.17582e-19)
(-8.30469 -0.695644 -3.55279e-19)
(-8.06653 -0.815815 3.50302e-19)
(-7.79693 -0.918339 7.88919e-22)
(-7.50111 -1.00459 3.42806e-19)
(-7.18372 -1.07675 0)
(-6.84828 -1.1374 3.34381e-19)
(-6.49712 -1.18906 5.34522e-22)
(-6.13155 -1.23372 0)
(-5.75217 -1.27258 0)
(-5.35949 -1.30592 -3.17823e-19)
(-4.95444 -1.33324 0)
(-4.5386 -1.35349 0)
(-4.11428 -1.3653 3.06273e-19)
(-3.68461 -1.36729 6.04322e-19)
(-3.25315 -1.35879 -2.98217e-19)
(-2.82357 -1.33976 0)
(-2.39948 -1.31057 2.91179e-19)
(-1.98424 -1.27223 0)
(-1.58077 -1.22625 2.84796e-19)
(-1.1912 -1.17426 2.81365e-19)
(-0.816858 -1.11757 -5.56745e-19)
(-0.458875 -1.05864 -2.75441e-19)
(-0.120078 -0.998391 0)
(0.199912 -0.938845 5.38611e-19)
(0.5033 -0.879573 0)
(0.79001 -0.821864 7.89405e-19)
(1.06015 -0.766309 5.20383e-19)
(1.3142 -0.713298 5.14575e-19)
(1.55279 -0.663067 -5.08879e-19)
(1.77666 -0.615737 7.54871e-19)
(1.98661 -0.571334 0)
(2.18345 -0.529816 0)
(2.368 -0.491089 -4.86994e-19)
(2.54105 -0.455027 -7.22521e-19)
(2.70334 -0.421478 0)
(2.85557 -0.39028 2.35621e-19)
(2.9984 -0.361267 0)
(3.13243 -0.334274 -6.91657e-19)
(3.25823 -0.309146 5.30476e-23)
(3.37629 -0.285736 -4.8784e-23)
(3.48711 -0.263914 4.46185e-19)
(3.59109 -0.24356 0)
(3.68866 -0.224568 -4.36427e-19)
(3.78019 -0.206847 3.47527e-23)
(3.86601 -0.190313 0)
(3.94647 -0.174896 0)
(4.02186 -0.16053 0)
(4.09249 -0.147157 4.12632e-19)
(4.15862 -0.134724 0)
(4.22052 -0.123181 0)
(4.27845 -0.11248 0)
(4.33263 -0.102575 0)
(4.38328 -0.0934229 0)
(4.43063 -0.0849797 3.85188e-19)
(4.47486 -0.0772038 0)
(4.51617 -0.0700541 3.76256e-19)
(4.55473 -0.063491 3.71841e-19)
(4.59071 -0.0574761 -3.67454e-19)
(4.62426 -0.0519726 0)
(4.65553 -0.0469447 -3.58764e-19)
(4.68467 -0.0423571 0)
(4.71179 -0.038177 -3.50184e-19)
(4.73702 -0.0343728 3.45935e-19)
(4.76048 -0.0309157 1.02515e-18)
(4.78229 -0.0277795 0)
(4.80253 -0.024938 1.00006e-18)
(4.82131 -0.0223691 3.29217e-19)
(4.83872 -0.02005 0)
(4.85485 -0.0179611 6.42015e-19)
(4.86979 -0.0160777 6.33888e-19)
(4.88361 -0.0143818 -9.38716e-19)
(4.8964 -0.0128419 0)
(4.90823 -0.0114409 -3.04905e-19)
(4.91916 -0.0101728 -3.00945e-19)
(4.92926 -0.00903178 -8.91031e-19)
(4.93858 -0.00800982 0)
(4.94717 -0.00709126 0)
(4.9551 -0.0062608 0)
(4.9624 -0.00551095 -2.81518e-19)
(4.96913 -0.00483589 0)
(4.97533 -0.00422839 0)
(4.98104 -0.00368067 2.70152e-19)
(4.98629 -0.00318543 2.66413e-19)
(4.99114 -0.0027376 0)
(4.99561 -0.00233679 0)
(4.99974 -0.00198788 5.10672e-19)
(5.00355 -0.00169785 0)
(5.00705 -0.00147067 -4.96134e-19)
(5.01027 -0.00130301 -4.88935e-19)
(5.01321 -0.00118341 0)
(5.01589 -0.00109495 0)
(5.01835 -0.00101997 4.67603e-19)
(5.0206 -0.000944383 -6.2195e-25)
(5.02266 -0.000860027 -5.64815e-25)
(5.02455 -0.000764597 0)
(5.02628 -0.000660014 8.79547e-19)
(5.02786 -0.000550254 0)
(5.02931 -0.000439509 0)
(5.03064 -0.000331164 0)
(5.03185 -0.00022739 -4.12621e-19)
(5.03294 -0.000129253 0)
(5.03394 -3.69693e-05 7.9858e-19)
(5.03484 4.98287e-05 3.92684e-19)
(5.03565 0.000131825 0)
(5.03638 0.000210012 3.79591e-19)
(5.03704 0.000285412 0)
(5.03761 0.000359466 0)
(5.03812 0.000433379 1.08072e-18)
(5.03855 0.000509314 -7.07729e-19)
(5.03891 0.000588514 0)
(5.03921 0.000674642 -6.82448e-19)
(5.03943 0.000768455 3.34958e-19)
(5.03957 0.000876977 0)
(5.03962 0.000998897 0)
(5.03959 0.00114894 0)
(5.03943 0.00131919 9.30738e-19)
(5.03916 0.00154268 0)
(5.0387 0.0017917 2.98095e-19)
(5.0381 0.00214512 0)
(5.03719 0.00251813 0)
(5.03607 0.00310707 0)
(5.03444 0.0036692 0)
(5.03253 0.00470395 0)
(5.02967 0.00554208 0)
(5.02645 0.00747315 5.13171e-19)
(5.02144 0.00868865 0)
(5.01603 0.0125568 2.44998e-19)
(5.00709 0.0142795 -7.17751e-19)
(4.99776 0.0226842 0)
(4.98148 0.0254584 0)
(4.96506 0.0458313 4.44326e-19)
(4.93637 0.0539267 4.33013e-19)
(4.91016 0.110362 -4.2184e-19)
(4.87464 0.144859 -4.10719e-19)
(-0.0552701 0.221778 -7.67825e-19)
(-0.216605 0.293946 -7.61983e-19)
(-0.364713 0.319369 -5.04107e-19)
(-0.517745 0.360767 -2.50198e-19)
(-0.669881 0.405091 0)
(-0.824013 0.455495 4.92322e-19)
(-0.979726 0.511099 -2.44325e-19)
(-1.13773 0.573056 0)
(-1.29811 0.641656 -2.40253e-19)
(-1.46121 0.716992 0)
(-1.62675 0.798686 4.73054e-19)
(-1.79436 0.885729 0)
(-1.96381 0.977018 2.32648e-19)
(-2.13488 1.07183 4.61546e-19)
(-2.30733 1.16947 -4.5782e-19)
(-2.48095 1.26888 0)
(-2.65574 1.36851 -4.50455e-19)
(-2.83215 1.46643 0)
(-3.0112 1.56059 0)
(-3.19452 1.64902 -4.39677e-19)
(-3.38413 1.73024 0)
(-3.58247 1.80364 -3.95931e-22)
(-3.79233 1.86954 0)
(-4.01658 1.92871 0)
(-4.25764 1.98183 5.2862e-22)
(-4.51726 2.02891 -4.19476e-19)
(-4.79679 2.06915 -4.16952e-19)
(-5.09745 2.10132 -4.13229e-19)
(-5.4202 2.12392 0)
(-5.76534 2.13487 -8.15335e-19)
(-6.13162 2.13076 0)
(-6.51495 2.10663 -4.02561e-19)
(-6.90741 2.05618 0)
(-7.29763 1.97279 0)
(-7.67272 1.85131 3.94766e-19)
(-8.02035 1.68984 0)
(-8.33005 1.49036 -3.89699e-19)
(-8.59368 1.25823 1.6689e-21)
(-8.80553 1.0011 7.67174e-19)
(-8.96157 0.72765 -7.63346e-19)
(-9.05936 0.446245 0)
(-9.09906 0.164079 0)
(-9.08307 -0.112497 -3.73971e-19)
(-9.01361 -0.377101 0)
(-8.89249 -0.623784 -3.62926e-19)
(-8.72219 -0.847474 3.58981e-19)
(-8.50684 -1.04439 3.5494e-19)
(-8.2518 -1.21288 0)
(-7.96322 -1.35336 -3.46656e-19)
(-7.64746 -1.4683 -3.42459e-19)
(-7.31041 -1.56169 6.78337e-19)
(-6.95661 -1.63837 -3.34049e-19)
(-6.58879 -1.70301 -3.29866e-19)
(-6.20788 -1.75936 0)
(-5.81345 -1.8097 0)
(-5.4047 -1.8545 3.17524e-19)
(-4.98163 -1.89236 0)
(-4.5456 -1.921 0)
(-4.09947 -1.93775 -6.11389e-19)
(-3.64743 -1.94018 -6.03826e-19)
(-3.19413 -1.92706 0)
(-2.74457 -1.89819 0)
(-2.30359 -1.85429 0)
(-1.87548 -1.79717 0)
(-1.46345 -1.72931 -5.69025e-19)
(-1.06944 -1.65316 5.62981e-19)
(-0.694622 -1.57137 5.56487e-19)
(-0.339737 -1.48647 1.10118e-18)
(-0.00612035 -1.40151 0)
(0.307907 -1.31669 2.12091e-22)
(0.604951 -1.23326 0)
(0.885066 -1.15229 -5.25961e-19)
(1.14883 -1.07452 1.75352e-22)
(1.39691 -1.00044 -5.14276e-19)
(1.62998 -0.930371 5.08604e-19)
(1.84876 -0.86445 1.45882e-22)
(2.05401 -0.802703 0)
(2.2465 -0.745052 4.92262e-19)
(2.427 -0.691346 4.86798e-19)
(2.59628 -0.641388 9.63164e-19)
(2.75508 -0.594949 0)
(2.90408 -0.55179 -4.71253e-19)
(3.04391 -0.511666 0)
(3.17516 -0.474343 9.22072e-19)