# vtk DataFile Version 2.0
sampleSurface
ASCII
DATASET POLYDATA
POINTS 502 float
-0.0206 0 -0.0005 -0.0190172 0 -0.0005 -0.0190172 0 0.0005 -0.0206 0
0.0005 -0.0174976 0 -0.0005 -0.0174976 0 0.0005 -0.0160387 0 -0.0005
-0.0160387 0 0.0005 -0.0146381 0 -0.0005 -0.0146381 0 0.0005 -0.0132934
0 -0.0005 -0.0132934 0 0.0005 -0.0120025 0 -0.0005 -0.0120025 0
0.0005 -0.0107632 0 -0.0005 -0.0107632 0 0.0005 -0.00957337 0 -0.0005
-0.00957337 0 0.0005 -0.00843108 0 -0.0005 -0.00843108 0 0.0005 -0.00733443
0 -0.0005 -0.00733443 0 0.0005 -0.0062816 0 -0.0005 -0.0062816 0
0.0005 -0.00527083 0 -0.0005 -0.00527083 0 0.0005 -0.00430044 0 -0.0005
-0.00430044 0 0.0005 -0.00336883 0 -0.0005 -0.00336883 0 0.0005 -0.00247443
0 -0.0005 -0.00247443 0 0.0005 -0.00161577 0 -0.0005 -0.00161577 0
0.0005 -0.000791418 0 -0.0005 -0.000791418 0 0.0005 0 0 -0.0005
0 0 0.0005 0 -0.0254 -0.0005 0 -0.0254 0.0005 0
-0.0242711 0.0005 0 -0.0242711 -0.0005 0 -0.0231422 0.0005 0 -0.0231422
-0.0005 0 -0.0220133 0.0005 0 -0.0220133 -0.0005 0 -0.0208844 0.0005
0 -0.0208844 -0.0005 0 -0.0197556 0.0005 0 -0.0197556 -0.0005 0
-0.0186267 0.0005 0 -0.0186267 -0.0005 0 -0.0174978 0.0005 0 -0.0174978
-0.0005 0 -0.0163689 0.0005 0 -0.0163689 -0.0005 0 -0.01524 0.0005
0 -0.01524 -0.0005 0 -0.0141111 0.0005 0 -0.0141111 -0.0005 0
-0.0129822 0.0005 0 -0.0129822 -0.0005 0 -0.0118533 0.0005 0 -0.0118533
-0.0005 0 -0.0107244 0.0005 0 -0.0107244 -0.0005 0 -0.00959556 0.0005
0 -0.00959556 -0.0005 0 -0.00846667 0.0005 0 -0.00846667 -0.0005 0
-0.00726604 0.0005 0 -0.00726604 -0.0005 0 -0.00618989 0.0005 0 -0.00618989
-0.0005 0 -0.00522531 0.0005 0 -0.00522531 -0.0005 0 -0.00436073 0.0005
0 -0.00436073 -0.0005 0 -0.00358579 0.0005 0 -0.00358579 -0.0005 0
-0.00289118 0.0005 0 -0.00289118 -0.0005 0 -0.0022686 0.0005 0 -0.0022686
-0.0005 0 -0.00171055 0.0005 0 -0.00171055 -0.0005 0 -0.00121037 0.0005
0 -0.00121037 -0.0005 0 -0.000762037 0.0005 0 -0.000762037 -0.0005 0
-0.000360188 0.0005 0 -0.000360188 -0.0005 0.000528387 -0.0254 -0.0005 0.000528387 -0.0254
0.0005 0.00106088 -0.0254 -0.0005 0.00106088 -0.0254 0.0005 0.00159752 -0.0254 -0.0005
0.00159752 -0.0254 0.0005 0.00213833 -0.0254 -0.0005 0.00213833 -0.0254 0.0005 0.00268334
-0.0254 -0.0005 0.00268334 -0.0254 0.0005 0.00323259 -0.0254 -0.0005 0.00323259 -0.0254
0.0005 0.00378611 -0.0254 -0.0005 0.00378611 -0.0254 0.0005 0.00434393 -0.0254 -0.0005
0.00434393 -0.0254 0.0005 0.00490609 -0.0254 -0.0005 0.00490609 -0.0254 0.0005 0.00547262
-0.0254 -0.0005 0.00547262 -0.0254 0.0005 0.00604356 -0.0254 -0.0005 0.00604356 -0.0254
0.0005 0.00661893 -0.0254 -0.0005 0.00661893 -0.0254 0.0005 0.00719878 -0.0254 -0.0005
0.00719878 -0.0254 0.0005 0.00778313 -0.0254 -0.0005 0.00778313 -0.0254 0.0005 0.00837203
-0.0254 -0.0005 0.00837203 -0.0254 0.0005 0.00896551 -0.0254 -0.0005 0.00896551 -0.0254
0.0005 0.0095636 -0.0254 -0.0005 0.0095636 -0.0254 0.0005 0.0101663 -0.0254 -0.0005
0.0101663 -0.0254 0.0005 0.0107738 -0.0254 -0.0005 0.0107738 -0.0254 0.0005 0.0113859
-0.0254 -0.0005 0.0113859 -0.0254 0.0005 0.0120028 -0.0254 -0.0005 0.0120028 -0.0254
0.0005 0.0126245 -0.0254 -0.0005 0.0126245 -0.0254 0.0005 0.0132511 -0.0254 -0.0005
0.0132511 -0.0254 0.0005 0.0138825 -0.0254 -0.0005 0.0138825 -0.0254 0.0005 0.0145188
-0.0254 -0.0005 0.0145188 -0.0254 0.0005 0.0151601 -0.0254 -0.0005 0.0151601 -0.0254
0.0005 0.0158063 -0.0254 -0.0005 0.0158063 -0.0254 0.0005 0.0164576 -0.0254 -0.0005
0.0164576 -0.0254 0.0005 0.0171139 -0.0254 -0.0005 0.0171139 -0.0254 0.0005 0.0177754
-0.0254 -0.0005 0.0177754 -0.0254 0.0005 0.018442 -0.0254 -0.0005 0.018442 -0.0254
0.0005 0.0191137 -0.0254 -0.0005 0.0191137 -0.0254 0.0005 0.0197907 -0.0254 -0.0005
0.0197907 -0.0254 0.0005 0.020473 -0.0254 -0.0005 0.020473 -0.0254 0.0005 0.0211606
-0.0254 -0.0005 0.0211606 -0.0254 0.0005 0.0218535 -0.0254 -0.0005 0.0218535 -0.0254
0.0005 0.0225517 -0.0254 -0.0005 0.0225517 -0.0254 0.0005 0.0232555 -0.0254 -0.0005
0.0232555 -0.0254 0.0005 0.0239647 -0.0254 -0.0005 0.0239647 -0.0254 0.0005 0.0246794
-0.0254 -0.0005 0.0246794 -0.0254 0.0005 0.0253996 -0.0254 -0.0005 0.0253996 -0.0254
0.0005 0.0261255 -0.0254 -0.0005 0.0261255 -0.0254 0.0005 0.026857 -0.0254 -0.0005
0.026857 -0.0254 0.0005 0.0275942 -0.0254 -0.0005 0.0275942 -0.0254 0.0005 0.0283371
-0.0254 -0.0005 0.0283371 -0.0254 0.0005 0.0290858 -0.0254 -0.0005 0.0290858 -0.0254
0.0005 0.0298403 -0.0254 -0.0005 0.0298403 -0.0254 0.0005 0.0306007 -0.0254 -0.0005
0.0306007 -0.0254 0.0005 0.031367 -0.0254 -0.0005 0.031367 -0.0254 0.0005 0.0321393
-0.0254 -0.0005 0.0321393 -0.0254 0.0005 0.0329175 -0.0254 -0.0005 0.0329175 -0.0254
0.0005 0.0337019 -0.0254 -0.0005 0.0337019 -0.0254 0.0005 0.0344923 -0.0254 -0.0005
0.0344923 -0.0254 0.0005 0.0352888 -0.0254 -0.0005 0.0352888 -0.0254 0.0005 0.0360916
-0.0254 -0.0005 0.0360916 -0.0254 0.0005 0.0369006 -0.0254 -0.0005 0.0369006 -0.0254
0.0005 0.0377158 -0.0254 -0.0005 0.0377158 -0.0254 0.0005 0.0385375 -0.0254 -0.0005
0.0385375 -0.0254 0.0005 0.0393655 -0.0254 -0.0005 0.0393655 -0.0254 0.0005 0.0401999
-0.0254 -0.0005 0.0401999 -0.0254 0.0005 0.0410408 -0.0254 -0.0005 0.0410408 -0.0254
0.0005 0.0418883 -0.0254 -0.0005 0.0418883 -0.0254 0.0005 0.0427424 -0.0254 -0.0005
0.0427424 -0.0254 0.0005 0.0436031 -0.0254 -0.0005 0.0436031 -0.0254 0.0005 0.0444704
-0.0254 -0.0005 0.0444704 -0.0254 0.0005 0.0453446 -0.0254 -0.0005 0.0453446 -0.0254
0.0005 0.0462255 -0.0254 -0.0005 0.0462255 -0.0254 0.0005 0.0471133 -0.0254 -0.0005
0.0471133 -0.0254 0.0005 0.048008 -0.0254 -0.0005 0.048008 -0.0254 0.0005 0.0489096
-0.0254 -0.0005 0.0489096 -0.0254 0.0005 0.0498183 -0.0254 -0.0005 0.0498183 -0.0254
0.0005 0.050734 -0.0254 -0.0005 0.050734 -0.0254 0.0005 0.0516568 -0.0254 -0.0005
0.0516568 -0.0254 0.0005 0.0525868 -0.0254 -0.0005 0.0525868 -0.0254 0.0005 0.053524
-0.0254 -0.0005 0.053524 -0.0254 0.0005 0.0544686 -0.0254 -0.0005 0.0544686 -0.0254
0.0005 0.0554204 -0.0254 -0.0005 0.0554204 -0.0254 0.0005 0.0563797 -0.0254 -0.0005
0.0563797 -0.0254 0.0005 0.0573464 -0.0254 -0.0005 0.0573464 -0.0254 0.0005 0.0583206
-0.0254 -0.0005 0.0583206 -0.0254 0.0005 0.0593025 -0.0254 -0.0005 0.0593025 -0.0254
0.0005 0.0602919 -0.0254 -0.0005 0.0602919 -0.0254 0.0005 0.0612891 -0.0254 -0.0005
0.0612891 -0.0254 0.0005 0.0622939 -0.0254 -0.0005 0.0622939 -0.0254 0.0005 0.0633067
-0.0254 -0.0005 0.0633067 -0.0254 0.0005 0.0643272 -0.0254 -0.0005 0.0643272 -0.0254
0.0005 0.0653557 -0.0254 -0.0005 0.0653557 -0.0254 0.0005 0.0663923 -0.0254 -0.0005
0.0663923 -0.0254 0.0005 0.0674368 -0.0254 -0.0005 0.0674368 -0.0254 0.0005 0.0684895
-0.0254 -0.0005 0.0684895 -0.0254 0.0005 0.0695504 -0.0254 -0.0005 0.0695504 -0.0254
0.0005 0.0706195 -0.0254 -0.0005 0.0706195 -0.0254 0.0005 0.0716969 -0.0254 -0.0005
0.0716969 -0.0254 0.0005 0.0727828 -0.0254 -0.0005 0.0727828 -0.0254 0.0005 0.073877
-0.0254 -0.0005 0.073877 -0.0254 0.0005 0.0749798 -0.0254 -0.0005 0.0749798 -0.0254
0.0005 0.0760911 -0.0254 -0.0005 0.0760911 -0.0254 0.0005 0.0772111 -0.0254 -0.0005
0.0772111 -0.0254 0.0005 0.0783398 -0.0254 -0.0005 0.0783398 -0.0254 0.0005 0.0794772
-0.0254 -0.0005 0.0794772 -0.0254 0.0005 0.0806235 -0.0254 -0.0005 0.0806235 -0.0254
0.0005 0.0817787 -0.0254 -0.0005 0.0817787 -0.0254 0.0005 0.0829429 -0.0254 -0.0005
0.0829429 -0.0254 0.0005 0.0841162 -0.0254 -0.0005 0.0841162 -0.0254 0.0005 0.0852985
-0.0254 -0.0005 0.0852985 -0.0254 0.0005 0.0864901 -0.0254 -0.0005 0.0864901 -0.0254
0.0005 0.0876909 -0.0254 -0.0005 0.0876909 -0.0254 0.0005 0.0889011 -0.0254 -0.0005
0.0889011 -0.0254 0.0005 0.0901207 -0.0254 -0.0005 0.0901207 -0.0254 0.0005 0.0913497
-0.0254 -0.0005 0.0913497 -0.0254 0.0005 0.0925883 -0.0254 -0.0005 0.0925883 -0.0254
0.0005 0.0938366 -0.0254 -0.0005 0.0938366 -0.0254 0.0005 0.0950945 -0.0254 -0.0005
0.0950945 -0.0254 0.0005 0.0963622 -0.0254 -0.0005 0.0963622 -0.0254 0.0005 0.0976398
-0.0254 -0.0005 0.0976398 -0.0254 0.0005 0.0989273 -0.0254 -0.0005 0.0989273 -0.0254
0.0005 0.100225 -0.0254 -0.0005 0.100225 -0.0254 0.0005 0.101532 -0.0254 -0.0005
0.101532 -0.0254 0.0005 0.10285 -0.0254 -0.0005 0.10285 -0.0254 0.0005 0.104178
-0.0254 -0.0005 0.104178 -0.0254 0.0005 0.105517 -0.0254 -0.0005 0.105517 -0.0254
0.0005 0.106865 -0.0254 -0.0005 0.106865 -0.0254 0.0005 0.108225 -0.0254 -0.0005
0.108225 -0.0254 0.0005 0.109594 -0.0254 -0.0005 0.109594 -0.0254 0.0005 0.110975
-0.0254 -0.0005 0.110975 -0.0254 0.0005 0.112366 -0.0254 -0.0005 0.112366 -0.0254
0.0005 0.113768 -0.0254 -0.0005 0.113768 -0.0254 0.0005 0.115181 -0.0254 -0.0005
0.115181 -0.0254 0.0005 0.116605 -0.0254 -0.0005 0.116605 -0.0254 0.0005 0.11804
-0.0254 -0.0005 0.11804 -0.0254 0.0005 0.119486 -0.0254 -0.0005 0.119486 -0.0254
0.0005 0.120943 -0.0254 -0.0005 0.120943 -0.0254 0.0005 0.122412 -0.0254 -0.0005
0.122412 -0.0254 0.0005 0.123892 -0.0254 -0.0005 0.123892 -0.0254 0.0005 0.125384
-0.0254 -0.0005 0.125384 -0.0254 0.0005 0.126887 -0.0254 -0.0005 0.126887 -0.0254
0.0005 0.128402 -0.0254 -0.0005 0.128402 -0.0254 0.0005 0.129928 -0.0254 -0.0005
0.129928 -0.0254 0.0005 0.131467 -0.0254 -0.0005 0.131467 -0.0254 0.0005 0.133017
-0.0254 -0.0005 0.133017 -0.0254 0.0005 0.13458 -0.0254 -0.0005 0.13458 -0.0254
0.0005 0.136155 -0.0254 -0.0005 0.136155 -0.0254 0.0005 0.137742 -0.0254 -0.0005
0.137742 -0.0254 0.0005 0.139341 -0.0254 -0.0005 0.139341 -0.0254 0.0005 0.140953
-0.0254 -0.0005 0.140953 -0.0254 0.0005 0.142577 -0.0254 -0.0005 0.142577 -0.0254
0.0005 0.144214 -0.0254 -0.0005 0.144214 -0.0254 0.0005 0.145863 -0.0254 -0.0005
0.145863 -0.0254 0.0005 0.147526 -0.0254 -0.0005 0.147526 -0.0254 0.0005 0.149201
-0.0254 -0.0005 0.149201 -0.0254 0.0005 0.15089 -0.0254 -0.0005 0.15089 -0.0254
0.0005 0.152591 -0.0254 -0.0005 0.152591 -0.0254 0.0005 0.154306 -0.0254 -0.0005
0.154306 -0.0254 0.0005 0.156034 -0.0254 -0.0005 0.156034 -0.0254 0.0005 0.157775
-0.0254 -0.0005 0.157775 -0.0254 0.0005 0.159531 -0.0254 -0.0005 0.159531 -0.0254
0.0005 0.161299 -0.0254 -0.0005 0.161299 -0.0254 0.0005 0.163082 -0.0254 -0.0005
0.163082 -0.0254 0.0005 0.164878 -0.0254 -0.0005 0.164878 -0.0254 0.0005 0.166688
-0.0254 -0.0005 0.166688 -0.0254 0.0005 0.168513 -0.0254 -0.0005 0.168513 -0.0254
0.0005 0.170351 -0.0254 -0.0005 0.170351 -0.0254 0.0005 0.172204 -0.0254 -0.0005
0.172204 -0.0254 0.0005 0.174071 -0.0254 -0.0005 0.174071 -0.0254 0.0005 0.175953
-0.0254 -0.0005 0.175953 -0.0254 0.0005 0.177849 -0.0254 -0.0005 0.177849 -0.0254
0.0005 0.17976 -0.0254 -0.0005 0.17976 -0.0254 0.0005 0.181686 -0.0254 -0.0005
0.181686 -0.0254 0.0005 0.183627 -0.0254 -0.0005 0.183627 -0.0254 0.0005 0.185583
-0.0254 -0.0005 0.185583 -0.0254 0.0005 0.187555 -0.0254 -0.0005 0.187555 -0.0254
0.0005 0.189541 -0.0254 -0.0005 0.189541 -0.0254 0.0005 0.191543 -0.0254 -0.0005
0.191543 -0.0254 0.0005 0.193561 -0.0254 -0.0005 0.193561 -0.0254 0.0005 0.195594
-0.0254 -0.0005 0.195594 -0.0254 0.0005 0.197643 -0.0254 -0.0005 0.197643 -0.0254
0.0005 0.199708 -0.0254 -0.0005 0.199708 -0.0254 0.0005 0.201789 -0.0254 -0.0005
0.201789 -0.0254 0.0005 0.203886 -0.0254 -0.0005 0.203886 -0.0254 0.0005 0.206
-0.0254 -0.0005 0.206 -0.0254 0.0005 0.208047 -0.0251856 -0.0005 0.208047 -0.0251856
0.0005 0.210173 -0.0249628 -0.0005 0.210173 -0.0249628 0.0005 0.212382 -0.0247314 -0.0005
0.212382 -0.0247314 0.0005 0.214677 -0.024491 -0.0005 0.214677 -0.024491 0.0005 0.217061
-0.0242412 -0.0005 0.217061 -0.0242412 0.0005 0.219538 -0.0239817 -0.0005 0.219538 -0.0239817
0.0005 0.222112 -0.0237121 -0.0005 0.222112 -0.0237121 0.0005 0.224785 -0.023432 -0.0005
0.224785 -0.023432 0.0005 0.227563 -0.023141 -0.0005 0.227563 -0.023141 0.0005 0.230449
-0.0228387 -0.0005 0.230449 -0.0228387 0.0005 0.233447 -0.0225246 -0.0005 0.233447 -0.0225246
0.0005 0.236562 -0.0221983 -0.0005 0.236562 -0.0221983 0.0005 0.239797 -0.0218593 -0.0005
0.239797 -0.0218593 0.0005 0.243159 -0.0215071 -0.0005 0.243159 -0.0215071 0.0005 0.246652
-0.0211412 -0.0005 0.246652 -0.0211412 0.0005 0.250281 -0.0207611 -0.0005 0.250281 -0.0207611
0.0005 0.254051 -0.0203661 -0.0005 0.254051 -0.0203661 0.0005 0.257967 -0.0199558 -0.0005
0.257967 -0.0199558 0.0005 0.262036 -0.0195295 -0.0005 0.262036 -0.0195295 0.0005 0.266264
-0.0190867 -0.0005 0.266264 -0.0190867 0.0005 0.270655 -0.0186266 -0.0005 0.270655 -0.0186266
0.0005 0.275218 -0.0181486 -0.0005 0.275218 -0.0181486 0.0005 0.279959 -0.017652 -0.0005
0.279959 -0.017652 0.0005 0.284883 -0.017136 -0.0005 0.284883 -0.017136 0.0005 0.29
-0.0166 -0.0005 0.29 -0.0166 0.0005 
POLYGONS 250 1250
4 0 1 2 3 4 1 4 5 2 4
4 6 7 5 4 6 8 9 7 4
8 10 11 9 4 10 12 13 11 4
12 14 15 13 4 14 16 17 15 4
16 18 19 17 4 18 20 21 19 4
20 22 23 21 4 22 24 25 23 4
24 26 27 25 4 26 28 29 27 4
28 30 31 29 4 30 32 33 31 4
32 34 35 33 4 34 36 37 35 4
38 39 40 41 4 41 40 42 43 4
43 42 44 45 4 45 44 46 47 4
47 46 48 49 4 49 48 50 51 4
51 50 52 53 4 53 52 54 55 4
55 54 56 57 4 57 56 58 59 4
59 58 60 61 4 61 60 62 63 4
63 62 64 65 4 65 64 66 67 4
67 66 68 69 4 69 68 70 71 4
71 70 72 73 4 73 72 74 75 4
75 74 76 77 4 77 76 78 79 4
79 78 80 81 4 81 80 82 83 4
83 82 84 85 4 85 84 86 87 4
87 86 88 89 4 89 88 90 91 4
91 90 37 36 4 38 92 93 39 4
92 94 95 93 4 94 96 97 95 4
96 98 99 97 4 98 100 101 99 4
100 102 103 101 4 102 104 105 103 4
104 106 107 105 4 106 108 109 107 4
108 110 111 109 4 110 112 113 111 4
112 114 115 113 4 114 116 117 115 4
116 118 119 117 4 118 120 121 119 4
120 122 123 121 4 122 124 125 123 4
124 126 127 125 4 126 128 129 127 4
128 130 131 129 4 130 132 133 131 4
132 134 135 133 4 134 136 137 135 4
136 138 139 137 4 138 140 141 139 4
140 142 143 141 4 142 144 145 143 4
144 146 147 145 4 146 148 149 147 4
148 150 151 149 4 150 152 153 151 4
152 154 155 153 4 154 156 157 155 4
156 158 159 157 4 158 160 161 159 4
160 162 163 161 4 162 164 165 163 4
164 166 167 165 4 166 168 169 167 4
168 170 171 169 4 170 172 173 171 4
172 174 175 173 4 174 176 177 175 4
176 178 179 177 4 178 180 181 179 4
180 182 183 181 4 182 184 185 183 4
184 186 187 185 4 186 188 189 187 4
188 190 191 189 4 190 192 193 191 4
192 194 195 193 4 194 196 197 195 4
196 198 199 197 4 198 200 201 199 4
200 202 203 201 4 202 204 205 203 4
204 206 207 205 4 206 208 209 207 4
208 210 211 209 4 210 212 213 211 4
212 214 215 213 4 214 216 217 215 4
216 218 219 217 4 218 220 221 219 4
220 222 223 221 4 222 224 225 223 4
224 226 227 225 4 226 228 229 227 4
228 230 231 229 4 230 232 233 231 4
232 234 235 233 4 234 236 237 235 4
236 238 239 237 4 238 240 241 239 4
240 242 243 241 4 242 244 245 243 4
244 246 247 245 4 246 248 249 247 4
248 250 251 249 4 250 252 253 251 4
252 254 255 253 4 254 256 257 255 4
256 258 259 257 4 258 260 261 259 4
260 262 263 261 4 262 264 265 263 4
264 266 267 265 4 266 268 269 267 4
268 270 271 269 4 270 272 273 271 4
272 274 275 273 4 274 276 277 275 4
276 278 279 277 4 278 280 281 279 4
280 282 283 281 4 282 284 285 283 4
284 286 287 285 4 286 288 289 287 4
288 290 291 289 4 290 292 293 291 4
292 294 295 293 4 294 296 297 295 4
296 298 299 297 4 298 300 301 299 4
300 302 303 301 4 302 304 305 303 4
304 306 307 305 4 306 308 309 307 4
308 310 311 309 4 310 312 313 311 4
312 314 315 313 4 314 316 317 315 4
316 318 319 317 4 318 320 321 319 4
320 322 323 321 4 322 324 325 323 4
324 326 327 325 4 326 328 329 327 4
328 330 331 329 4 330 332 333 331 4
332 334 335 333 4 334 336 337 335 4
336 338 339 337 4 338 340 341 339 4
340 342 343 341 4 342 344 345 343 4
344 346 347 345 4 346 348 349 347 4
348 350 351 349 4 350 352 353 351 4
352 354 355 353 4 354 356 357 355 4
356 358 359 357 4 358 360 361 359 4
360 362 363 361 4 362 364 365 363 4
364 366 367 365 4 366 368 369 367 4
368 370 371 369 4 370 372 373 371 4
372 374 375 373 4 374 376 377 375 4
376 378 379 377 4 378 380 381 379 4
380 382 383 381 4 382 384 385 383 4
384 386 387 385 4 386 388 389 387 4
388 390 391 389 4 390 392 393 391 4
392 394 395 393 4 394 396 397 395 4
396 398 399 397 4 398 400 401 399 4
400 402 403 401 4 402 404 405 403 4
404 406 407 405 4 406 408 409 407 4
408 410 411 409 4 410 412 413 411 4
412 414 415 413 4 414 416 417 415 4
416 418 419 417 4 418 420 421 419 4
420 422 423 421 4 422 424 425 423 4
424 426 427 425 4 426 428 429 427 4
428 430 431 429 4 430 432 433 431 4
432 434 435 433 4 434 436 437 435 4
436 438 439 437 4 438 440 441 439 4
440 442 443 441 4 442 444 445 443 4
444 446 447 445 4 446 448 449 447 4
448 450 451 449 4 450 452 453 451 4
452 454 455 453 4 454 456 457 455 4
456 458 459 457 4 458 460 461 459 4
460 462 463 461 4 462 464 465 463 4
464 466 467 465 4 466 468 469 467 4
468 470 471 469 4 470 472 473 471 4
472 474 475 473 4 474 476 477 475 4
476 478 479 477 4 478 480 481 479 4
480 482 483 481 4 482 484 485 483 4
484 486 487 485 4 486 488 489 487 4
488 490 491 489 4 490 492 493 491 4
492 494 495 493 4 494 496 497 495 4
496 498 499 497 4 498 500 501 499 
POINT_DATA 502
FIELD attributes 1
U 3 502 float
3.34184 -0.0323657 0.0481275 1.67736 -0.0156878 0.0237173 1.67736 -0.0156878 0.0237173 3.34184 -0.0323657
0.0481275 0.0590197 0.000515496 0 0.0590197 0.000515496 0 0.0571136 0.000456129 0
0.0571136 0.000456129 0 0.0555083 0.000363205 0 0.0555083 0.000363205 0 0.0538349
0.000345594 0 0.0538349 0.000345594 0 0.0519748 0.000397181 0 0.0519748 0.000397181
0 0.0500547 0.000436566 0 0.0500547 0.000436566 0 0.0481915 0.000427662 0
0.0481915 0.000427662 0 0.0463908 0.000410762 0 0.0463908 0.000410762 0 0.0445574
0.000429266 0 0.0445574 0.000429266 0 0.0426434 0.000472217 0 0.0426434 0.000472217
0 0.0406824 0.000488875 0 0.0406824 0.000488875 0 0.0388932 0.000466748 0
0.0388932 0.000466748 0 0.0372527 0.000432165 0 0.0372527 0.000432165 0 0.0357734
0.000401019 0 0.0357734 0.000401019 0 0.0343887 0.000433715 0 0.0343887 0.000433715
0 0.0327673 0.000500354 0 0.0327673 0.000500354 0 0.0143669 0.000233886 0
0.0143669 0.000233886 0 0.000111704 -0.000246603 1.87836e-23 0.000111704 -0.000246603 1.87836e-23 0.000287474
-0.00132752 -5.06283e-23 0.000287474 -0.00132752 -5.06283e-23 0.000474405 -0.003499 -5.99256e-23 0.000474405 -0.003499
-5.99256e-23 0.000410311 -0.00536685 1.19778e-22 0.000410311 -0.00536685 1.19778e-22 0.000237684 -0.00652526 3.98424e-23
0.000237684 -0.00652526 3.98424e-23 4.47516e-05 -0.00686469 -7.98413e-23 4.47516e-05 -0.00686469 -7.98413e-23 -0.000128285
-0.00642847 0 -0.000128285 -0.00642847 0 -0.00025731 -0.00535303 -1.71882e-22 -0.00025731 -0.00535303
-1.71882e-22 -0.0003303 -0.0038443 1.02883e-25 -0.0003303 -0.0038443 1.02883e-25 -0.00034296 -0.00213881 1.71985e-22
-0.00034296 -0.00213881 1.71985e-22 -0.000305296 -0.000458566 -1.80945e-22 -0.000305296 -0.000458566 -1.80945e-22 -0.000226607
0.00100151 -4.82264e-26 -0.000226607 0.00100151 -4.82264e-26 -0.000106253 0.00209142 1.80897e-22 -0.000106253 0.00209142
1.80897e-22 8.91806e-05 0.00270159 1.84778e-22 8.91806e-05 0.00270159 1.84778e-22 0.000331656 0.0025113 -1.04524e-26
0.000331656 0.0025113 -1.04524e-26 0.000270294 0.00129023 -1.88063e-22 0.000270294 0.00129023 -1.88063e-22 -0.000154394
0.000189097 0 -0.000154394 0.000189097 0 -0.000355133 9.00014e-05 0 -0.000355133 9.00014e-05
0 -0.000224896 0.000495179 0 -0.000224896 0.000495179 0 0.000109216 0.000534415 0
0.000109216 0.000534415 0 0.000520389 -0.000606114 0 0.000520389 -0.000606114 0 0.000643773
-0.00229588 0 0.000643773 -0.00229588 0 0.000361975 -0.00334173 0 0.000361975 -0.00334173
0 -0.000128999 -0.00331779 0 -0.000128999 -0.00331779 0 -0.00064584 -0.00276952 0
-0.00064584 -0.00276952 0 -0.00077129 -0.00110557 0 -0.00077129 -0.00110557 0 -0.000445968
0.000122472 0 -0.000445968 0.000122472 0 0.000331835 -0.000400971 9.19387e-26 0.000331835 -0.000400971
9.19387e-26 0.000842012 -0.000604438 -9.3238e-24 0.000842012 -0.000604438 -9.3238e-24 0.00142678 -0.000662007 0
0.00142678 -0.000662007 0 0.00201546 -0.000667029 0 0.00201546 -0.000667029 0 0.00260183
-0.000656206 8.82117e-24 0.00260183 -0.000656206 8.82117e-24 0.00318497 -0.000640021 8.83702e-24 0.00318497 -0.000640021
8.83702e-24 0.0037625 -0.000619243 0 0.0037625 -0.000619243 0 0.00432898 -0.000591263 0
0.00432898 -0.000591263 0 0.00487493 -0.000552387 0 0.00487493 -0.000552387 0 0.00538634
-0.000498602 -7.92015e-24 0.00538634 -0.000498602 -7.92015e-24 0.00584494 -0.000426497 -7.93524e-24 0.00584494 -0.000426497
-7.93524e-24 0.0062298 -0.000333334 0 0.0062298 -0.000333334 0 0.00651685 -0.000217659 0
0.00651685 -0.000217659 0 0.00668629 -7.96525e-05 0 0.00668629 -7.96525e-05 0 0.00671438
7.7798e-05 -7.29632e-24 0.00671438 7.7798e-05 -7.29632e-24 0.00657467 0.000247414 -7.31105e-24 0.00657467 0.000247414
-7.31105e-24 0.00625552 0.000415885 0 0.00625552 0.000415885 0 0.00575672 0.000571042 0
0.00575672 0.000571042 0 0.00509466 0.00069226 0 0.00509466 0.00069226 0 0.00429822
0.000762534 0 0.00429822 0.000762534 0 0.00342529 0.0007602 0 0.00342529 0.0007602
0 0.00253325 0.000592448 0 0.00253325 0.000592448 0 0.00157633 0.000538622 -7.83147e-24
0.00157633 0.000538622 -7.83147e-24 0.000841784 0.000739059 -1.54352e-26 0.000841784 0.000739059 -1.54352e-26 0.000781092
0.000221298 1.6218e-26 0.000781092 0.000221298 1.6218e-26 0.00108386 -0.00136833 -1.56554e-23 0.00108386 -0.00136833
-1.56554e-23 0.00121412 -0.00252866 -7.82086e-24 0.00121412 -0.00252866 -7.82086e-24 0.00106546 -0.00155134 0
0.00106546 -0.00155134 0 7.40188e-06 0.000637678 7.59095e-24 7.40188e-06 0.000637678 7.59095e-24 -0.00190923
0.00176047 1.51141e-23 -0.00190923 0.00176047 1.51141e-23 -0.00389822 0.0018811 7.52312e-24 -0.00389822 0.0018811
7.52312e-24 -0.00584017 0.00183206 0 -0.00584017 0.00183206 0 -0.00766029 0.00170177 6.68751e-24
-0.00766029 0.00170177 6.68751e-24 -0.00933292 0.00154698 6.70398e-24 -0.00933292 0.00154698 6.70398e-24 -0.0108574
0.00138315 0 -0.0108574 0.00138315 0 -0.0122304 0.00122486 -5.4467e-24 -0.0122304 0.00122486
-5.4467e-24 -0.0134624 0.00107582 -5.46054e-24 -0.0134624 0.00107582 -5.46054e-24 -0.0145591 0.000938967 -4.62345e-24
-0.0145591 0.000938967 -4.62345e-24 -0.0155308 0.000813626 -1.31244e-23 -0.0155308 0.000813626 -1.31244e-23 -0.0163835
0.000698724 -8.51117e-24 -0.0163835 0.000698724 -8.51117e-24 -0.0171235 0.000592356 0 -0.0171235 0.000592356
0 -0.0177545 0.000492949 0 -0.0177545 0.000492949 0 -0.0182795 0.000399069 0
-0.0182795 0.000399069 0 -0.0187002 0.000309851 0 -0.0187002 0.000309851 0 -0.0190182
0.000225007 -5.54594e-24 -0.0190182 0.000225007 -5.54594e-24 -0.0192348 0.00014494 -1.09435e-23 -0.0192348 0.00014494
-1.09435e-23 -0.0193513 7.05283e-05 -1.07133e-23 -0.0193513 7.05283e-05 -1.07133e-23 -0.0193709 2.56803e-06 -5.33116e-24
-0.0193709 2.56803e-06 -5.33116e-24 -0.0193049 -5.87152e-05 5.45453e-24 -0.0193049 -5.87152e-05 5.45453e-24 -0.0191608
-0.000113691 5.47033e-24 -0.0191608 -0.000113691 5.47033e-24 -0.0189433 -0.000162458 -5.8979e-24 -0.0189433 -0.000162458
-5.8979e-24 -0.0186613 -0.000204813 -1.21207e-23 -0.0186613 -0.000204813 -1.21207e-23 -0.018322 -0.000240633 -6.22387e-24
-0.018322 -0.000240633 -6.22387e-24 -0.0179344 -0.000269911 0 -0.0179344 -0.000269911 0 -0.0175065
-0.000292905 0 -0.0175065 -0.000292905 0 -0.0170465 -0.000310029 -7.72236e-24 -0.0170465 -0.000310029
-7.72236e-24 -0.0165617 -0.000321872 -7.74627e-24 -0.0165617 -0.000321872 -7.74627e-24 -0.0160589 -0.000329107 0
-0.0160589 -0.000329107 0 -0.0155441 -0.000332496 0 -0.0155441 -0.000332496 0 -0.0150222
-0.000332852 0 -0.0150222 -0.000332852 0 -0.014497 -0.00033106 0 -0.014497 -0.00033106
0 -0.0139707 -0.000328082 0 -0.0139707 -0.000328082 0 -0.0134444 -0.000324955 0
-0.0134444 -0.000324955 0 -0.012917 -0.000322741 0 -0.012917 -0.000322741 0 -0.0123861
-0.000322414 1.08776e-23 -0.0123861 -0.000322414 1.08776e-23 -0.0118477 -0.000324718 1.09142e-23 -0.0118477 -0.000324718
1.09142e-23 -0.0112969 -0.000330015 0 -0.0112969 -0.000330015 0 -0.0107286 -0.000338207 -1.17328e-23
-0.0107286 -0.000338207 -1.17328e-23 -0.0101382 -0.000348792 -2.37821e-23 -0.0101382 -0.000348792 -2.37821e-23 -0.00952225
-0.00036101 -1.20506e-23 -0.00952225 -0.00036101 -1.20506e-23 -0.00887842 -0.000373975 1.25443e-23 -0.00887842 -0.000373975
1.25443e-23 -0.00820598 -0.000386747 -2.10725e-25 -0.00820598 -0.000386747 -2.10725e-25 -0.00750571 -0.000398415 -1.28451e-23
-0.00750571 -0.000398415 -1.28451e-23 -0.00677985 -0.000408146 1.32679e-23 -0.00677985 -0.000408146 1.32679e-23 -0.00603212
-0.00041519 1.3316e-23 -0.00603212 -0.00041519 1.3316e-23 -0.00526753 -0.000418873 0 -0.00526753 -0.000418873
0 -0.0044921 -0.000418689 -1.38105e-23 -0.0044921 -0.000418689 -1.38105e-23 -0.00371225 -0.000414478 -1.38618e-23
-0.00371225 -0.000414478 -1.38618e-23 -0.00293478 -0.000406363 1.40328e-23 -0.00293478 -0.000406363 1.40328e-23 -0.00216685
-0.00039436 1.40859e-23 -0.00216685 -0.00039436 1.40859e-23 -0.00141531 -0.000378686 -1.41348e-23 -0.00141531 -0.000378686
-1.41348e-23 -0.000686458 -0.000359981 -2.83314e-23 -0.000686458 -0.000359981 -2.83314e-23 1.0861e-05 -0.000340094 -2.8311e-23
1.0861e-05 -0.000340094 -2.8311e-23 0.000671048 -0.000318692 -4.22789e-23 0.000671048 -0.000318692 -4.22789e-23 0.00129604
-0.000295475 -2.67671e-25 0.00129604 -0.000295475 -2.67671e-25 0.00188525 -0.000272166 2.80634e-23 0.00188525 -0.000272166
2.80634e-23 0.00243607 -0.000249135 0 0.00243607 -0.000249135 0 0.00294852 -0.000226719 0
0.00294852 -0.000226719 0 0.0034233 -0.00020515 2.70438e-23 0.0034233 -0.00020515 2.70438e-23 0.00386153
-0.000184564 5.39249e-23 0.00386153 -0.000184564 5.39249e-23 0.00426463 -0.000165024 3.93536e-25 0.00426463 -0.000165024
3.93536e-25 0.00463411 -0.000146565 -2.65969e-23 0.00463411 -0.000146565 -2.65969e-23 0.00497157 -0.00012921 2.59003e-23
0.00497157 -0.00012921 2.59003e-23 0.00527863 -0.00011299 5.16107e-23 0.00527863 -0.00011299 5.16107e-23 0.00555698
-9.7941e-05 5.1012e-23 0.00555698 -9.7941e-05 5.1012e-23 0.00580839 -8.40949e-05 2.54098e-23 0.00580839 -8.40949e-05
2.54098e-23 0.00603473 -7.14711e-05 0 0.00603473 -7.14711e-05 0 0.00623795 -6.00668e-05 0
0.00623795 -6.00668e-05 0 0.00642006 -4.98524e-05 2.41205e-23 0.00642006 -4.98524e-05 2.41205e-23 0.00658305
-4.07715e-05 2.42261e-23 0.00658305 -4.07715e-05 2.42261e-23 0.00672885 -3.2744e-05 0 0.00672885 -3.2744e-05
0 0.00685926 -2.5672e-05 -2.32727e-23 0.00685926 -2.5672e-05 -2.32727e-23 0.00697595 -1.94508e-05 -2.33766e-23
0.00697595 -1.94508e-05 -2.33766e-23 0.00708039 -1.39699e-05 0 0.00708039 -1.39699e-05 0 0.00717389
-9.1266e-06 -2.24662e-23 0.00717389 -9.1266e-06 -2.24662e-23 0.00725757 -4.82752e-06 -2.25686e-23 0.00725757 -4.82752e-06
-2.25686e-23 0.00733239 -9.72747e-07 0 0.00733239 -9.72747e-07 0 0.00739916 2.50547e-06 2.17006e-23
0.00739916 2.50547e-06 2.17006e-23 0.00745853 5.68255e-06 4.32551e-23 0.00745853 5.68255e-06 4.32551e-23 0.00751099
8.64467e-06 2.15541e-23 0.00751099 8.64467e-06 2.15541e-23 0.00755692 1.13895e-05 -2.09722e-23 0.00755692 1.13895e-05
-2.09722e-23 0.00759661 1.39905e-05 -2.10714e-23 0.00759661 1.39905e-05 -2.10714e-23 0.00763012 1.65103e-05 2.05052e-23
0.00763012 1.65103e-05 2.05052e-23 0.00765768 1.8828e-05 2.06034e-23 0.00765768 1.8828e-05 2.06034e-23 0.00767932
2.10805e-05 2.00515e-23 0.00767932 2.10805e-05 2.00515e-23 0.00769455 2.35259e-05 3.99776e-23 0.00769455 2.35259e-05
3.99776e-23 0.00770338 2.59984e-05 1.99256e-23 0.00770338 2.59984e-05 1.99256e-23 0.0077061 2.81776e-05 0
0.0077061 2.81776e-05 0 0.00770306 2.9929e-05 0 0.00770306 2.9929e-05 0 0.00769484
3.12148e-05 0 0.00769484 3.12148e-05 0 0.00768219 3.19627e-05 0 0.00768219 3.19627e-05
0 0.00766593 3.21367e-05 0 0.00766593 3.21367e-05 0 0.00764683 3.18072e-05 0
0.00764683 3.18072e-05 0 0.00762562 3.10715e-05 1.81421e-23 0.00762562 3.10715e-05 1.81421e-23 0.00760297
3.00219e-05 2.93016e-25 0.00760297 3.00219e-05 2.93016e-25 0.00757946 2.87421e-05 -1.80333e-23 0.00757946 2.87421e-05
-1.80333e-23 0.00755562 2.73013e-05 0 0.00755562 2.73013e-05 0 0.00753188 2.57619e-05 0
0.00753188 2.57619e-05 0 0.00750857 2.41777e-05 0 0.00750857 2.41777e-05 0 0.00748597
2.25901e-05 -3.3935e-23 0.00748597 2.25901e-05 -3.3935e-23 0.00746429 2.10322e-05 -3.41132e-23 0.00746429 2.10322e-05
-3.41132e-23 0.00744367 1.95307e-05 3.31805e-23 0.00744367 1.95307e-05 3.31805e-23 0.00742422 1.81049e-05 5.48464e-25
0.00742422 1.81049e-05 5.48464e-25 0.00740599 1.67665e-05 -3.2983e-23 0.00740599 1.67665e-05 -3.2983e-23 0.00738901
1.552e-05 0 0.00738901 1.552e-05 0 0.00737326 1.4368e-05 0 0.00737326 1.4368e-05
0 0.00735874 1.33138e-05 3.13478e-23 0.00735874 1.33138e-05 3.13478e-23 0.0073454 1.23596e-05 6.25077e-23
0.0073454 1.23596e-05 6.25077e-23 0.00733318 1.15007e-05 3.11587e-23 0.00733318 1.15007e-05 3.11587e-23 0.00732202
1.07264e-05 3.02806e-23 0.00732202 1.07264e-05 3.02806e-23 0.00731187 1.0028e-05 6.03771e-23 0.00731187 1.0028e-05
6.03771e-23 0.00730265 9.40641e-06 5.14212e-25 0.00730265 9.40641e-06 5.14212e-25 0.00729431 8.86892e-06 -2.97456e-23
0.00729431 8.86892e-06 -2.97456e-23 0.00728675 8.41707e-06 0 0.00728675 8.41707e-06 0 0.00727988
8.03481e-06 -2.85486e-23 0.00727988 8.03481e-06 -2.85486e-23 0.00727365 7.68905e-06 -2.87094e-23 0.00727365 7.68905e-06
-2.87094e-23 0.00726802 7.34328e-06 0 0.00726802 7.34328e-06 0 0.00726304 6.97473e-06 0
0.00726304 6.97473e-06 0 0.00725875 6.58364e-06 0 0.00725875 6.58364e-06 0 0.00725519
6.18995e-06 2.68686e-23 0.00725519 6.18995e-06 2.68686e-23 0.00725237 5.82133e-06 5.35614e-23 0.00725237 5.82133e-06
5.35614e-23 0.00725026 5.50027e-06 2.66916e-23 0.00725026 5.50027e-06 2.66916e-23 0.0072488 5.23692e-06 2.58834e-23
0.0072488 5.23692e-06 2.58834e-23 0.0072479 5.02879e-06 2.6034e-23 0.0072479 5.02879e-06 2.6034e-23 0.00724747
4.86588e-06 0 0.00724747 4.86588e-06 0 0.00724743 4.73635e-06 2.49141e-23 0.00724743 4.73635e-06
2.49141e-23 0.0072477 4.63145e-06 2.50607e-23 0.0072477 4.63145e-06 2.50607e-23 0.00724819 4.54674e-06 2.42763e-23
0.00724819 4.54674e-06 2.42763e-23 0.00724884 4.48277e-06 2.44203e-23 0.00724884 4.48277e-06 2.44203e-23 0.00724955
4.44298e-06 0 0.00724955 4.44298e-06 0 0.00725025 4.43322e-06 2.33321e-23 0.00725025 4.43322e-06
2.33321e-23 0.00725078 4.4612e-06 2.34719e-23 0.00725078 4.4612e-06 2.34719e-23 0.0072511 4.53402e-06 2.27109e-23
0.0072511 4.53402e-06 2.27109e-23 0.00725092 4.66618e-06 2.2848e-23 0.00725092 4.66618e-06 2.2848e-23 0.00725021