/*--------------------------------*- C++ -*----------------------------------*\
  =========                 |
  \\      /  F ield         | OpenFOAM: The Open Source CFD Toolbox
   \\    /   O peration     | Website:  https://openfoam.org
    \\  /    A nd           | Version:  9
     \\/     M anipulation  |
\*---------------------------------------------------------------------------*/
FoamFile
{
    format      ascii;
    class       volScalarField;
    location    "0.25";
    object      k;
}
// * * * * * * * * * * * * * * * * * * * * * * * * * * * * * * * * * * * * * //

dimensions      [0 2 -2 0 0 0 0];

internalField   nonuniform List<scalar> 
12225
(
0.31446
0.264116
0.226177
0.198715
0.180365
0.170039
0.166787
0.169687
0.177827
0.190334
0.206407
0.225363
0.246665
0.269957
0.295081
0.322086
0.351401
0.391982
0.36201
0.350229
0.347568
0.357721
0.381246
0.417352
0.464414
0.520231
0.582381
0.648578
0.716925
0.786057
0.855184
0.92407
0.99299
1.06257
1.13422
1.2091
0.368499
0.362672
0.357204
0.353303
0.352171
0.354337
0.359904
0.368743
0.380571
0.395039
0.411822
0.430693
0.451577
0.474582
0.500039
0.528542
0.561059
0.599231
0.369751
0.364162
0.35876
0.353811
0.349673
0.346564
0.344524
0.34349
0.343346
0.343961
0.34522
0.347052
0.349448
0.352471
0.356275
0.361124
0.36744
0.375772
0.370289
0.365255
0.360279
0.355471
0.35096
0.346847
0.343179
0.339953
0.337131
0.334659
0.332479
0.330541
0.328807
0.327263
0.325919
0.324816
0.324035
0.323698
0.370515
0.365861
0.361284
0.356816
0.352504
0.348399
0.344529
0.340906
0.337522
0.334359
0.331393
0.328598
0.325947
0.32342
0.321
0.318677
0.316451
0.314343
0.370601
0.366143
0.361826
0.357641
0.353594
0.3497
0.34597
0.342412
0.339024
0.335804
0.332741
0.329824
0.327039
0.324372
0.321809
0.319333
0.316931
0.31461
0.37063
0.366258
0.362082
0.358076
0.354229
0.350534
0.346988
0.343591
0.34034
0.337232
0.334264
0.33143
0.328721
0.326131
0.323647
0.321258
0.318952
0.316738
0.370637
0.366299
0.362186
0.358276
0.354548
0.350988
0.347586
0.344334
0.341224
0.338254
0.335417
0.33271
0.330126
0.327661
0.325307
0.323054
0.320894
0.318841
0.370638
0.36631
0.362223
0.358355
0.354687
0.351204
0.347891
0.344736
0.341732
0.338871
0.336146
0.333552
0.331085
0.32874
0.326509
0.324386
0.322365
0.320464
0.370637
0.366311
0.362233
0.358382
0.354741
0.351294
0.348027
0.344929
0.341988
0.339197
0.336549
0.334037
0.331656
0.329402
0.327268
0.325249
0.323341
0.321564
0.370636
0.36631
0.362234
0.358389
0.354757
0.351325
0.348078
0.345005
0.342095
0.33934
0.336733
0.334267
0.331936
0.329737
0.327662
0.325709
0.323875
0.322179
0.370635
0.366309
0.362234
0.358391
0.354763
0.351338
0.348101
0.34504
0.342147
0.339412
0.336828
0.334389
0.332089
0.329924
0.327888
0.325979
0.324195
0.322555
0.370634
0.366307
0.362232
0.358391
0.354766
0.351344
0.348112
0.345059
0.342175
0.339451
0.336881
0.334457
0.332176
0.330031
0.32802
0.326139
0.324387
0.322784
0.370633
0.366306
0.362231
0.35839
0.354767
0.351348
0.34812
0.345072
0.342194
0.339477
0.336915
0.334501
0.33223
0.330098
0.3281
0.326234
0.324501
0.322918
0.370632
0.366305
0.36223
0.35839
0.354769
0.351352
0.348128
0.345085
0.342212
0.339502
0.336947
0.334541
0.332278
0.330154
0.328166
0.32631
0.324586
0.323013
0.370631
0.366303
0.362228
0.358389
0.35477
0.351357
0.348137
0.345099
0.342233
0.33953
0.336983
0.334586
0.332332
0.330217
0.328237
0.326389
0.324673
0.323103
0.37063
0.366301
0.362226
0.358388
0.354771
0.351362
0.348147
0.345115
0.342257
0.339563
0.337027
0.33464
0.332397
0.330293
0.328324
0.326485
0.324775
0.32321
0.370629
0.366299
0.362224
0.358387
0.354773
0.351368
0.348159
0.345135
0.342286
0.339603
0.337078
0.334704
0.332474
0.330383
0.328426
0.326597
0.324895
0.323333
0.370628
0.366298
0.362223
0.358388
0.354777
0.351376
0.348173
0.345157
0.342317
0.339644
0.33713
0.334767
0.332548
0.330468
0.32852
0.3267
0.325004
0.323445
0.370627
0.366297
0.362223
0.35839
0.354783
0.351387
0.348189
0.34518
0.342347
0.339682
0.337176
0.334821
0.33261
0.330537
0.328595
0.326779
0.325087
0.323529
0.370627
0.366298
0.362226
0.358396
0.354791
0.351399
0.348205
0.345199
0.34237
0.339708
0.337205
0.334853
0.332644
0.330571
0.328629
0.326812
0.325116
0.323552
0.370628
0.366299
0.362228
0.358399
0.354793
0.351397
0.348197
0.345181
0.342339
0.339661
0.337138
0.334763
0.332529
0.330429
0.328458
0.326611
0.324883
0.323287
0.370628
0.366296
0.362218
0.358371
0.354737
0.351303
0.348057
0.344988
0.342085
0.339342
0.336749
0.334302
0.331995
0.329821
0.327776
0.325854
0.324054
0.322387
0.37062
0.366263
0.362133
0.358202
0.354453
0.350876
0.34747
0.34423
0.341155
0.338243
0.335488
0.332888
0.330438
0.328134
0.325969
0.323938
0.322038
0.320281
0.370574
0.366092
0.36177
0.357594
0.35356
0.349682
0.345976
0.342459
0.339138
0.336019
0.333101
0.330378
0.327841
0.325479
0.323284
0.321242
0.319346
0.3176
0.370374
0.365524
0.360693
0.355911
0.351285
0.346925
0.342891
0.339208
0.335877
0.332887
0.330216
0.327837
0.325718
0.32383
0.322142
0.320628
0.31927
0.318053
0.369697
0.364209
0.358337
0.352516
0.347311
0.342985
0.33959
0.337101
0.335454
0.334565
0.334329
0.334636
0.335375
0.33644
0.337734
0.339174
0.340683
0.342202
0.365806
0.354672
0.345328
0.339799
0.338445
0.341002
0.347025
0.355963
0.367211
0.380167
0.394263
0.408986
0.423889
0.4386
0.452826
0.466342
0.479014
0.490658
0.336635
0.302351
0.273982
0.250541
0.231345
0.215838
0.203557
0.194096
0.187082
0.182166
0.179027
0.177363
0.176903
0.1774
0.178635
0.180419
0.182591
0.185007
0.175862
0.244141
0.296439
0.33868
0.374843
0.407676
0.424326
0.431689
0.435835
0.43957
0.443919
0.449475
0.456719
0.466089
0.478005
0.492892
0.511301
0.530286
0.546711
0.558733
0.563824
0.558379
0.537208
0.492689
0.41495
0.301046
0.185839
0.149937
0.144426
0.160728
0.186912
0.217854
0.257322
0.30542
0.337059
0.333273
0.308456
0.275395
0.247499
0.230037
0.223651
0.225241
0.229533
0.239831
0.280603
0.409508
0.628348
0.807321
0.961437
1.08961
1.19305
1.274
1.33509
1.37897
1.40814
1.42488
1.43121
1.42894
1.4196
1.40453
1.38486
1.36153
1.33536
1.30697
1.27804
1.24892
1.21968
1.19037
1.16106
1.1318
1.10262
1.07354
1.04456
1.01565
0.986733
0.957719
0.928453
0.898739
0.868329
0.836942
0.804278
0.770051
0.734038
0.69612
0.656334
0.614894
0.572196
0.528795
0.48536
0.44263
0.401465
0.363295
0.332204
0.317127
0.307751
0.299855
0.292998
0.287091
0.282093
0.277961
0.274647
0.272095
0.270241
0.269018
0.268353
0.268166
0.268374
0.268881
0.269578
0.270343
0.271019
0.27115
0.269853
0.266402
0.260226
0.251014
0.238866
0.224488
0.209132
0.19378
0.177862
0.161314
0.15229
0.148554
0.148182
0.149576
0.151571
0.153452
0.154908
0.155966
0.156921
0.158247
0.16047
0.164207
0.170573
0.176634
0.184455
0.194668
0.207261
0.222639
0.242
0.274911
0.366495
0.527849
0.661121
0.764472
0.840346
0.893415
0.9286
0.950831
0.965464
0.972096
0.970169
0.960455
0.94305
0.917578
0.883382
0.839801
0.786648
0.726995
0.694053
0.692952
0.691343
0.689213
0.687887
0.68839
0.691208
0.69644
0.703939
0.712379
0.715096
0.699118
0.652447
0.572832
0.475655
0.391478
0.343468
0.323747
0.306646
0.271389
0.132288
0.185335
0.230727
0.333384
0.517123
0.564224
0.564634
0.550997
0.531734
0.508642
0.483187
0.457149
0.432048
0.408887
0.388256
0.370442
0.355849
0.347173
0.345054
0.349877
0.361583
0.37966
0.402956
0.429272
0.455113
0.478061
0.488396
0.458251
0.380003
0.291982
0.243515
0.255821
0.332248
0.435152
0.512363
0.527958
0.488691
0.433301
0.422677
0.496139
0.660503
0.861513
0.959097
0.941738
0.915418
0.904434
0.901538
0.892358
0.879008
0.863286
0.847022
0.831639
0.818122
0.807083
0.798846
0.793526
0.791092
0.791434
0.794405
0.799861
0.80769
0.817818
0.830186
0.844597
0.859702
0.875189
0.891123
0.907588
0.924672
0.942457
0.96101
0.980367
1.00052
1.02138
1.04279
1.06445
1.0859
1.10649
1.12536
1.14143
1.15345
1.16003
1.15985
1.15176
1.13501
1.10935
1.07512
1.03321
0.984944
0.931911
0.875679
0.817497
0.758143
0.70669
0.660679
0.617978
0.578407
0.541862
0.508203
0.477253
0.44882
0.4227
0.398692
0.376601
0.356244
0.33745
0.320062
0.303937
0.288947
0.274974
0.261925
0.249615
0.23788
0.226822
0.216878
0.208206
0.201075
0.195838
0.192899
0.19281
0.196514
0.204388
0.215204
0.226919
0.237829
0.246654
0.252538
0.255019
0.253932
0.249325
0.24146
0.230887
0.218655
0.206414
0.19607
0.19105
0.195099
0.213384
0.258428
0.355616
0.517003
0.679612
0.771173
0.856882
0.956958
1.06484
1.17126
1.26919
1.35564
1.43082
1.49661
1.5552
1.60869
1.65688
1.69806
1.72896
1.74483
1.74002
1.70904
1.64676
1.56623
1.47586
1.37749
1.27694
1.17873
1.08578
0.999671
0.920772
0.848701
0.783464
0.724204
0.671355
0.636717
0.634812
0.684174
0.798147
0.964412
1.12276
1.18335
1.0827
0.102754
0.160943
0.338506
0.623918
0.672811
0.612753
0.540495
0.482433
0.438816
0.405246
0.378273
0.355846
0.336794
0.320392
0.306143
0.29368
0.282754
0.273806
0.26813
0.266246
0.26894
0.277016
0.291005
0.311086
0.337312
0.370101
0.406198
0.430309
0.422393
0.38138
0.333311
0.316676
0.382452
0.515225
0.640948
0.705372
0.710247
0.786101
0.926507
1.056
1.06577
1.00977
0.933401
0.863463
0.813047
0.780453
0.759544
0.746015
0.73905
0.738002
0.742053
0.750091
0.76084
0.773081
0.785864
0.798611
0.811085
0.823284
0.835311
0.84727
0.859222
0.871171
0.883068
0.894691
0.906112
0.917478
0.928985
0.940882
0.953453
0.966995
0.981804
0.998159
1.01629
1.03637
1.05845
1.08244
1.10805
1.13473
1.1616
1.18745
1.21073
1.22962
1.24219
1.24662
1.24144
1.22579
1.19956
1.1634
1.1186
1.06685
1.00994
0.949299
0.886944
0.831898
0.780758
0.732741
0.687874
0.646142
0.607455
0.571668
0.538605
0.508071
0.479869
0.453804
0.429693
0.407362
0.386652
0.36742
0.349534
0.332864
0.317298
0.302693
0.288857
0.275545
0.262442
0.249843
0.237926
0.226886
0.21696
0.208411
0.201579
0.196707
0.193747
0.19244
0.192379
0.193073
0.194015
0.194754
0.194943
0.194356
0.192879
0.190529
0.187573
0.184892
0.184703
0.191618
0.214058
0.267379
0.378374
0.566584
0.773984
0.891726
0.974877
1.11204
1.27723
1.43171
1.5563
1.6521
1.72774
1.79044
1.84339
1.88927
1.93021
1.96639
1.99658
2.01743
2.02342
2.00743
1.96224
1.88502
1.79003
1.68005
1.56166
1.44186
1.32595
1.2173
1.11762
1.02745
0.946749
0.875516
0.811673
0.751872
0.69506
0.648609
0.623731
0.63142
0.675859
0.752618
0.847796
0.928948
0.1348
0.401811
0.765631
0.750177
0.636637
0.535043
0.464135
0.416598
0.383199
0.357944
0.337571
0.320382
0.305482
0.292371
0.280758
0.270467
0.261386
0.253467
0.246837
0.241692
0.238651
0.238696
0.242955
0.252307
0.267436
0.289544
0.319243
0.351819
0.375812
0.383299
0.387992
0.430006
0.552615
0.759714
0.969827
1.13977
1.20389
1.13997
1.08335
1.01333
0.924731
0.841494
0.777411
0.73561
0.713819
0.707246
0.711288
0.722728
0.73937
0.759204
0.780356
0.801238
0.82077
0.838465
0.854325
0.868601
0.881563
0.893367
0.904016
0.913407
0.921386
0.927828
0.93261
0.935508
0.936744
0.93659
0.935412
0.933673
0.931926
0.930785
0.930906
0.932951
0.937561
0.945317
0.956698
0.972026
0.991402
1.01462
1.04111
1.0698
1.09915
1.12715
1.15141
1.16947
1.17906
1.17846
1.16679
1.14409
1.11126
1.06982
1.02144
0.96744
0.913168
0.863066
0.815143
0.769541
0.726486
0.686074
0.648294
0.613068
0.580276
0.549772
0.521404
0.495016
0.470458
0.447589
0.426277
0.406402
0.387853
0.370529
0.354333
0.339164
0.324908
0.311413
0.298493
0.285894
0.273761
0.262182
0.251271
0.24115
0.231941
0.223732
0.216554
0.210387
0.205162
0.200769
0.197058
0.193863
0.191028
0.188446
0.186105
0.184152
0.183063
0.184127
0.190552
0.209284
0.253468
0.345387
0.509856
0.730017
0.9044
0.998892
1.13162
1.32313
1.51587
1.67315
1.78986
1.87524
1.93825
1.98379
2.01427
2.03513
2.04943
2.05866
2.06289
2.0599
2.04477
2.01013
1.94868
1.86543
1.76416
1.64981
1.52942
1.4097
1.29563
1.19022
1.09488
1.00995
0.935192
0.870127
0.81382
0.764418
0.718486
0.673846
0.633753
0.602868
0.585962
0.589096
0.618318
0.672588
0.269912
0.797887
0.755505
0.617935
0.516112
0.453396
0.413523
0.384779
0.361379
0.340865
0.322317
0.30547
0.290275
0.276705
0.264735
0.25436
0.245589
0.238362
0.232202
0.227022
0.22292
0.220286
0.219967
0.223156
0.230962
0.244682
0.266484
0.297837
0.336833
0.383936
0.462848
0.623563
0.875549
1.2197
1.53873
1.40081
1.18281
1.03324
0.922826
0.834433
0.765487
0.719202
0.6951
0.689629
0.698157
0.716225
0.740241
0.767508
0.795894
0.823693
0.849763
0.873604
0.895236
0.914932
0.932963
0.949451
0.964339
0.977432
0.988452
0.997091
1.00305
1.00609
1.00553
1.00128
0.993388
0.982068
0.96771
0.950897
0.932395
0.913132
0.894163
0.876628
0.861699
0.850523
0.844157
0.843495
0.84919
0.861553
0.880461
0.905241
0.934588
0.966532
0.998499
1.02751
1.05053
1.06489
1.06871
1.06116
1.04256
1.01403
0.97714
0.933778
0.890938
0.848726
0.807339
0.767331
0.729069
0.692748
0.658443
0.626146
0.595801
0.567323
0.540612
0.515562
0.492068
0.47003
0.449353
0.429949
0.411736
0.394639
0.378583
0.363494
0.349295
0.335894
0.323184
0.311025
0.299247
0.287934
0.277114
0.266846
0.257196
0.248224
0.239969
0.232438
0.225611
0.219451
0.213903
0.208901
0.204386
0.200341
0.196862
0.194286
0.193466
0.196417
0.207681
0.236542
0.299821
0.4217
0.613633
0.82099
0.958889
1.07203
1.25352
1.47364
1.67086
1.82109
1.92823
2.00212
2.04925
2.07311
2.07666
2.06737
2.0494
2.02557
1.99767
1.96504
1.92393
1.86741
1.79518
1.70682
1.60464
1.49372
1.38036
1.27027
1.16751
1.07436
0.991648
0.919295
0.856732
0.803208
0.757896
0.719621
0.686322
0.655212
0.623488
0.592395
0.564672
0.544215
0.536323
0.546718
0.559331
0.765075
0.61194
0.51226
0.461081
0.429339
0.402942
0.377697
0.353176
0.329871
0.308324
0.288906
0.271727
0.256707
0.243756
0.232855
0.224027
0.21724
0.212266
0.20886
0.206602
0.205156
0.204535
0.205487
0.209547
0.218736
0.236359
0.268202
0.322681
0.419413
0.608802
0.933209
1.36433
1.70843
1.5051
1.20131
0.990499
0.857203
0.771116
0.716716
0.687205
0.67862
0.686589
0.706517
0.734273
0.766502
0.800599
0.834609
0.867211
0.897722
0.926001
0.952228
0.976673
0.999544
1.02092
1.04075
1.05886
1.07499
1.08876
1.09976
1.10748
1.11143
1.10998
1.10299
1.09029
1.0719
1.04808
1.01939
0.986633
0.950905
0.913533
0.876054
0.840153
0.80759
0.780091
0.759242
0.746354
0.742348
0.747638
0.762028
0.784622
0.813762
0.847009
0.881247
0.912946
0.938603
0.955271
0.961141
0.955659
0.939361
0.913524
0.882568
0.849761
0.815765
0.781562
0.747871
0.715156
0.683692
0.653621
0.624999
0.597828
0.572074
0.547688
0.52461
0.502777
0.482129
0.462604
0.444147
0.426704
0.410225
0.394657
0.379951
0.366052
0.352897
0.340415
0.328523
0.317117
0.306124
0.295593
0.285538
0.275985
0.266967
0.25851
0.250624
0.243305
0.23654
0.230305
0.224576
0.219342
0.21464
0.210633
0.207792
0.207283
0.211817
0.227162
0.264522
0.342931
0.484094
0.681096
0.861845
0.980968
1.12221
1.33839
1.56928
1.7617
1.90224
1.99873
2.05915
2.08819
2.089
2.06565
2.02693
1.97784
1.92223
1.86335
1.80263
1.73681
1.66537
1.58445
1.49332
1.39399
1.29077
1.18872
1.09223
1.00426
0.926281
0.858534
0.800529
0.751407
0.710212
0.676034
0.647916
0.624557
0.60432
0.584563
0.563303
0.541264
0.520536
0.504069
0.495955
0.708834
0.633451
0.527105
0.486284
0.461253
0.433603
0.402618
0.371444
0.341936
0.314959
0.291059
0.2703
0.252323
0.236735
0.223354
0.21217
0.203217
0.196529
0.19261
0.191061
0.191149
0.19205
0.193015
0.19399
0.196533
0.203787
0.221091
0.259646
0.342731
0.519621
0.83747
1.24214
1.63286
1.54459
1.22474
0.974077
0.821183
0.734232
0.68875
0.6713
0.674218
0.692117
0.720468
0.755477
0.794092
0.833957
0.873416
0.911489
0.947764
0.982211
1.01499
1.04629
1.07626
1.10499
1.13246
1.15853
1.18297
1.20537
1.22519
1.24178
1.25442
1.2614
1.26132
1.25387
1.23866
1.21553
1.18463
1.14641
1.10166
1.05149
0.997333
0.940952
0.884392
0.829937
0.779992
0.736902
0.702735
0.679073
0.666846
0.666242
0.676701
0.696942
0.724929
0.757832
0.792107
0.8238
0.849002
0.86494
0.86994
0.863843
0.848678
0.828171
0.804028
0.777715
0.750363
0.722769
0.695466
0.668786
0.642928
0.617999
0.594048
0.57109
0.549117
0.528111
0.508049
0.488902
0.470643
0.453244
0.436676
0.420913
0.405923
0.391676
0.378136
0.365262
0.353008
0.341325
0.330152
0.319414
0.309123
0.299283
0.289903
0.281
0.272589
0.264677
0.257263
0.250341
0.243902
0.237942
0.232483
0.227598
0.223499
0.220751
0.220782
0.226878
0.245798
0.290083
0.379283
0.529637
0.719147
0.876896
0.9925
1.15266
1.38011
1.61234
1.80015
1.93127
2.01713
2.06399
2.07552
2.05525
2.00861
1.94508
1.87029
1.7887
1.70372
1.62165
1.54012
1.45737
1.37108
1.28061
1.18741
1.09453
1.00556
0.923522
0.85035
0.786813
0.732771
0.687497
0.649986
0.619191
0.594162
0.574058
0.55797
0.544781
0.533435
0.52112
0.5073
0.492797
0.479074
0.468209
0.93345
0.616636
0.533051
0.507703
0.476388
0.436956
0.397614
0.361635
0.329379
0.301195
0.277232
0.256829
0.239065
0.223363
0.20963
0.198105
0.188967
0.182417
0.179316
0.178976
0.180462
0.182763
0.184966
0.186919
0.190421
0.199564
0.222682
0.281009
0.421391
0.699073
1.07154
1.42254
1.47745
1.23235
0.97381
0.805898
0.714741
0.673191
0.663157
0.674045
0.699262
0.73417
0.775195
0.819539
0.865112
0.910527
0.955027
0.998311
1.04034
1.08121
1.12101
1.15987
1.19787
1.23502
1.27126
1.30631
1.33974
1.37086
1.39883
1.42266
1.44135
1.45179
1.45388
1.44692
1.43036
1.40388
1.36753
1.3217
1.26709
1.20474
1.136
1.06258
0.986577
0.910591
0.837651
0.771021
0.713804
0.668505
0.636662
0.618681
0.613976
0.621372
0.639231
0.665304
0.696504
0.728983
0.758072
0.780276
0.79264
0.79475
0.788594
0.776383
0.759841
0.740446
0.719342
0.69736
0.675069
0.652845
0.630925
0.60946
0.588538
0.568214
0.548521
0.529477
0.511091
0.49337
0.476314
0.459921
0.444186
0.429101
0.414656
0.400837
0.387625
0.374998
0.36293
0.351389
0.340345
0.329757
0.319599
0.309888
0.300627
0.291822
0.28348
0.275609
0.268208
0.261276
0.254815
0.248837
0.243385
0.238561
0.234617
0.232199
0.232936
0.240545
0.262459
0.311899
0.40758
0.559629
0.737096
0.878887
0.9958
1.16427
1.38955
1.61276
1.79102
1.91575
1.99366
2.0297
2.02726
1.99008
1.92538
1.84306
1.74937
1.64982
1.54966
1.453
1.36043
1.27111
1.18374
1.09765
1.01334
0.932385
0.856787
0.788332
0.728144
0.676588
0.633379
0.597785
0.568841
0.545541
0.526975
0.512377
0.501023
0.492101
0.484845
0.478146
0.470351
0.461587
0.452756
0.444844
1.02509
0.606852
0.558543
0.530799
0.485279
0.436338
0.392565
0.354685
0.321926
0.29438
0.271637
0.252164
0.234511
0.218052
0.203078
0.190652
0.181482
0.175795
0.173518
0.173637
0.175526
0.178785
0.183178
0.189222
0.199448
0.219772
0.265503
0.370198
0.575412
0.875478
1.18183
1.31763
1.19263
0.972511
0.801857
0.705627
0.664206
0.65779
0.673619
0.70399
0.743962
0.790027
0.839539
0.890579
0.94191
0.992854
1.04311
1.09256
1.14122
1.18914
1.23644
1.28325
1.32967
1.37568
1.42105
1.46533
1.50779
1.54745
1.58311
1.61339
1.63676
1.65059
1.65483
1.64864
1.63131
1.60245
1.56204
1.51051
1.44863
1.37749
1.29835
1.2126
1.12191
1.02847
0.935327
0.846413
0.766077
0.698339
0.645975
0.609877
0.58906
0.581936
0.586988
0.602656
0.626575
0.655537
0.684372
0.70927
0.725837
0.734056
0.734818
0.729456
0.719445
0.706134
0.690617
0.67371
0.655988
0.637845
0.619544
0.601263
0.583127
0.565224
0.547621
0.530371
0.513516
0.49709
0.481123
0.465635
0.450644
0.436161
0.422193
0.408741
0.395804
0.383372
0.371435
0.35998
0.34899
0.338449
0.328336
0.318665
0.309439
0.300663
0.292343
0.284484
0.277091
0.270168
0.263726
0.257789
0.25242
0.247745
0.244051
0.242055
0.243533
0.252466
0.276638
0.329352
0.427736
0.576732
0.741753
0.872698
0.989768
1.15652
1.37067
1.58039
1.74854
1.86617
1.93664
1.96397
1.95182
1.90419
1.82894
1.7356
1.63076
1.52044
1.41043
1.30516
1.2068
1.11583
1.03163
0.953183
0.879728
0.811198
0.748166
0.691442
0.64167
0.599109
0.563577
0.534524
0.511167
0.492646
0.47815
0.466972
0.458465
0.451937
0.446684
0.442392
0.437779
0.432596
0.427327
0.422731
1.02004
0.611221
0.590843
0.552062
0.494932
0.439588
0.393096
0.354509
0.322333
0.296241
0.275035
0.256284
0.238113
0.220075
0.203071
0.189156
0.180126
0.176832
0.17621
0.177664
0.181652
0.188559
0.198708
0.212881
0.234568
0.274712
0.355034
0.501813
0.72115
0.967872
1.1265
1.10057
0.952125
0.800257
0.702699
0.659134
0.65311
0.67102
0.704294
0.747646
0.797509
0.851271
0.907043
0.963588
1.02018
1.07642
1.13212
1.18721
1.24176
1.29592
1.3499
1.40388
1.45788
1.51174
1.56499
1.61691
1.6665
1.71256
1.75372
1.78854
1.81377
1.8295
1.83487
1.82886
1.81062
1.77962
1.73575
1.67944
1.61166
1.53378
1.44737
1.35388
1.25453
1.15063
1.04429
0.93911
0.839899
0.752107
0.680391
0.627111
0.590959
0.569538
0.561087
0.564792
0.579088
0.601685
0.627272
0.650939
0.669778
0.682208
0.688083
0.68816
0.68358
0.675495
0.664886
0.652508
0.638908
0.62447
0.609466
0.594093
0.578498
0.562799
0.547094
0.531467
0.51599
0.500725
0.485727
0.47104
0.456702
0.442743
0.429185
0.416045
0.403332
0.391054
0.37921
0.3678
0.356821
0.346269
0.336137
0.326438
0.317178
0.308364
0.300005
0.292108
0.284682
0.277739
0.271297
0.265394
0.260108
0.255585
0.252145
0.250555
0.252679
0.2626
0.288153
0.342279
0.440302
0.583525
0.737199
0.86011
0.974312
1.1319
1.32932
1.52307
1.68034
1.79077
1.8551
1.87653
1.8588
1.80605
1.72601
1.6274
1.51705
1.40135
1.28655
1.17783
1.07866
0.990603
0.913301
0.844922
0.783212
0.726563
0.674418
0.627005
0.58485
0.548378
0.517701
0.492578
0.472488
0.456763
0.444712
0.435672
0.428992
0.423976
0.419901
0.416313
0.413051
0.409621
0.406307
0.403725
0.956188
0.632048
0.626514
0.576967
0.510584
0.44969
0.400641
0.361602
0.330403
0.305868
0.286001
0.267909
0.249663
0.231249
0.214197
0.200788
0.192925
0.191086
0.192417
0.196739
0.204395
0.215795
0.23177
0.255153
0.293267
0.359033
0.467246
0.623751
0.807126
0.950494
0.980919
0.904566
0.791457
0.702289
0.657092
0.649119
0.666425
0.700184
0.744879
0.796878
0.853531
0.912876
0.973547
1.03466
1.09569
1.15632
1.21643
1.27611
1.33557
1.39509
1.45492
1.51514
1.57556
1.63571
1.69484
1.7519
1.80566
1.85472
1.89756
1.93267
1.95756
1.97252
1.97678
1.96936
1.94936
1.91609
1.86923
1.80901
1.73634
1.65286
1.56067
1.46181
1.35761
1.24878
1.13626
1.02275
0.91241
0.810912
0.724174
0.656918
0.60791
0.573969
0.552971
0.544921
0.549185
0.563282
0.583371
0.604976
0.624321
0.639082
0.648435
0.652617
0.652402
0.648697
0.642322
0.633928
0.624001
0.612894
0.600868
0.588126
0.574832
0.561126
0.547132
0.532962
0.518716
0.504482
0.49034
0.476356
0.462587
0.44908
0.435874
0.422997
0.410473
0.398318
0.386545
0.375161
0.364173
0.353586
0.343405
0.333643
0.324309
0.315415
0.306972
0.298995
0.291497
0.284496
0.278022
0.272123
0.266889
0.262484
0.259251
0.257987
0.26057
0.271045
0.297045
0.350855
0.446135
0.582131
0.725875
0.84222
0.950723
1.09427
1.27153
1.44752
1.5931
1.6964
1.75597
1.77403
1.75403
1.69992
1.61891
1.51904
1.40724
1.29032
1.17506
1.06749
0.9721
0.891053
0.82363
0.766744
0.716602
0.670362
0.626798
0.586006
0.548731
0.515787
0.487704
0.464609
0.446266
0.432198
0.421809
0.414444
0.409389
0.405851
0.403005
0.400204
0.397426
0.394629
0.392078
0.390251
0.862778
0.666502
0.665485
0.607949
0.533942
0.467635
0.415453
0.375435
0.34477
0.321402
0.302986
0.286671
0.270419
0.254016
0.238869
0.227107
0.220566
0.219165
0.22174
0.2283
0.239172
0.255435
0.279517
0.316015
0.371894
0.454749
0.567595
0.698556
0.811287
0.861596
0.837575
0.769166
0.699774
0.657322
0.646894
0.661585
0.693573
0.737445
0.789621
0.847461
0.908907
0.972414
1.03689
1.10158
1.16605
1.23009
1.29376
1.35732
1.42112
1.48548
1.55053
1.61611
1.68171
1.74647
1.80926
1.8687
1.92331
1.97156
2.0119
2.04282
2.06332
2.07377
2.07365
2.06226
2.03882
2.00258
1.95301
1.88994
1.81391
1.7264
1.62985
1.52717
1.42023
1.30963
1.19527
1.07944
0.965543
0.858295
0.76317
0.68712
0.629127
0.585495
0.55432
0.535728
0.530149
0.536342
0.550969
0.569608
0.588185
0.603902
0.615436
0.622587
0.625785
0.625675
0.622888
0.617946
0.611248
0.603096
0.593729
0.583342
0.572108
0.560186
0.547719
0.534845
0.521689
0.508363
0.494969
0.481595
0.468316
0.455197
0.442289
0.429635
0.41727
0.405218
0.393501
0.382136
0.371135
0.360512
0.350277
0.340443
0.331024
0.322035
0.313493
0.305415
0.297823
0.290741
0.284207
0.278281
0.273063
0.268731
0.265639
0.264586
0.267402
0.277966
0.303516
0.355505
0.446222
0.57423
0.709357
0.820062
0.921021
1.04782
1.2029
1.35969
1.49252
1.58847
1.64408
1.6604
1.64029
1.58722
1.50779
1.40947
1.29936
1.18471
1.07292
0.970796
0.88344
0.812906
0.75743
0.712389
0.672646
0.634621
0.596974
0.560103
0.525255
0.493776
0.46667
0.444432
0.427077
0.414269
0.405447
0.399909
0.396829
0.395271
0.394254
0.392925
0.390913
0.388518
0.386111
0.384162
0.764168
0.704671
0.709558
0.645943
0.564988
0.492946
0.436734
0.394597
0.363376
0.340475
0.323509
0.309927
0.297572
0.285512
0.274276
0.265386
0.260579
0.259278
0.262932
0.271845
0.286827
0.309513
0.342559
0.389518
0.453818
0.535846
0.627786
0.710436
0.76045
0.765953
0.735294
0.691576
0.65832
0.647505
0.658967
0.68763
0.728832
0.779282
0.836493
0.898404
0.963325
1.02994
1.09727
1.16466
1.23175
1.29851
1.36517
1.43215
1.49983
1.56844
1.63789
1.7077
1.77695
1.84434
1.90828
1.96704
2.01892
2.06231
2.09602
2.11827
2.1304
2.1327
2.12502
2.10699
2.0781
2.03777
1.98533
1.92029
1.84264
1.75325
1.65427
1.54968
1.44188
1.33167
1.21786
1.10298
0.990887
0.884764
0.790228
0.71116
0.647335
0.596346
0.556919
0.529972
0.516758
0.516647
0.526628
0.542365
0.559679
0.575549
0.58836
0.597604
0.603424
0.606223
0.606436
0.604441
0.600539
0.594971
0.587942
0.579634
0.570222
0.559875
0.548756
0.537022
0.524819
0.512283
0.499535
0.486684
0.473822
0.461028
0.44837
0.435901
0.423665
0.411699
0.40003
0.38868
0.377671
0.367017
0.356737
0.34684
0.337345
0.328268
0.319631
0.311456
0.303767
0.296599
0.289996
0.284025
0.278795
0.274494
0.271477
0.270516
0.273339
0.283558
0.307873
0.356801
0.441567
0.561123
0.688687
0.794595
0.887421
0.996603
1.12863
1.26496
1.38372
1.47152
1.52321
1.53847
1.51936
1.46869
1.39253
1.29792
1.19216
1.08303
0.978525
0.885972
0.810452
0.753087
0.710504
0.676527
0.645126
0.612625
0.578135
0.542725
0.508321
0.476858
0.449791
0.427918
0.411416
0.399992
0.393043
0.38976
0.389181
0.390221
0.391748
0.392727
0.39245
0.390919
0.388722
0.386334
0.659795
0.741437
0.754952
0.689048
0.60344
0.526381
0.465606
0.420018
0.386611
0.362638
0.345776
0.33388
0.325021
0.317843
0.311877
0.307536
0.305815
0.307001
0.313159
0.325234
0.344349
0.371968
0.409718
0.45864
0.517638
0.581548
0.640656
0.683585
0.702533
0.69767
0.678239
0.65874
0.651344
0.660779
0.685759
0.723226
0.770532
0.825539
0.886345
0.951236
1.01874
1.08765
1.15707
1.22639
1.2954
1.36419
1.43315
1.50273
1.57326
1.64482
1.71705
1.7891
1.85964
1.92692
1.98897
2.04375
2.08936
2.12419
2.14721
2.1583
2.15938
2.15115
2.13383
2.10737
2.07157
2.02615
1.9705
1.90393
1.82603
1.73698
1.63754
1.53337
1.42689
1.31916
1.21045
1.10134
0.993662
0.891347
0.799358
0.720715
0.654884
0.599785
0.555094
0.52279
0.504771
0.500648
0.507488
0.521026
0.537147
0.552833
0.566373
0.577092
0.584921
0.590052
0.592742
0.593227
0.591707
0.588359
0.58335
0.576846
0.569019
0.560044
0.550098
0.539353
0.527975
0.516118
0.503921
0.491511
0.478997
0.466473
0.454018
0.441698
0.429567
0.417668
0.406037
0.394702
0.383687
0.373012
0.362699
0.352756
0.343202
0.334057
0.325345
0.317089
0.309321
0.302078
0.295411
0.289394
0.28414
0.27984
0.276842
0.27587
0.278505
0.288021
0.310476
0.355391
0.43315
0.543837
0.664541
0.766604
0.851948
0.944244
1.0534
1.16835
1.27153
1.34986
1.39688
1.41092
1.39302
1.34541
1.2737
1.18466
1.08583
0.985496
0.892096
0.812948
0.752293
0.709554
0.67947
0.654625
0.628786
0.598884
0.564971
0.529027
0.493707
0.461481
0.434158
0.412707
0.397331
0.387663
0.382982
0.382347
0.384663
0.38872
0.393271
0.397158
0.399469
0.39971
0.398427
0.396021
0.544612
0.770317
0.796289
0.733963
0.648237
0.568706
0.504142
0.45455
0.417617
0.390898
0.372255
0.359837
0.352036
0.347563
0.345593
0.345851
0.348548
0.354026
0.363926
0.379302
0.401074
0.429899
0.465786
0.507513
0.552122
0.594988
0.63073
0.654763
0.665157
0.664333
0.659241
0.658564
0.66846
0.690747
0.724483
0.768044
0.819853
0.878343
0.941934
1.00912
1.07855
1.14907
1.21982
1.29026
1.36026
1.43002
1.49996
1.57051
1.6419
1.71404
1.78632
1.85754
1.92609
1.98994
2.0469
2.09474
2.13142
2.15537
2.16568
2.16433
2.15343
2.13392
2.10631
2.07075
2.02723
1.97624
1.91706
1.849
1.77153
1.68478
1.59004
1.48998
1.38712
1.28321
1.17895
1.07494
0.972968
0.876687
0.790112
0.714953
0.649889
0.593313
0.54624
0.511708
0.491887
0.486218
0.491631
0.503939
0.519238
0.534698
0.548686
0.56047
0.569843
0.576833
0.581539
0.58407
0.584537
0.583056
0.579756
0.574786
0.568313
0.560513
0.551572
0.541675
0.531002
0.519721
0.50799
0.495949
0.483722
0.471417
0.459124
0.446921
0.434869
0.423021
0.411417
0.400093
0.389075
0.378388
0.368054
0.358081
0.348489
0.3393
0.330537
0.322228
0.314406
0.307112
0.3004
0.294349
0.289073
0.28476
0.281743
0.280682
0.282984
0.291535
0.311689
0.351923
0.421886
0.523194
0.637279
0.736487
0.816043
0.893594
0.981227
1.07452
1.16066
1.22783
1.26885
1.28082
1.26376
1.21942
1.15315
1.07153
0.982357
0.894209
0.815541
0.75293
0.708911
0.680689
0.661232
0.642547
0.619033
0.588891
0.553442
0.515622
0.478724
0.445609
0.418263
0.397651
0.383853
0.37634
0.374241
0.376491
0.381885
0.38911
0.396826
0.403806
0.409061
0.41187
0.41232
0.4108
0.53613
0.786639
0.826216
0.774966
0.696026
0.619029
0.553704
0.501397
0.460934
0.430653
0.408957
0.394422
0.385788
0.381973
0.382108
0.385605
0.391448
0.400336
0.412907
0.429722
0.451099
0.47694
0.506555
0.53856
0.570893
0.601012
0.6263
0.644822
0.656436
0.663684
0.671377
0.684536
0.706277
0.737451
0.77766
0.826075
0.881623
0.943024
1.0089
1.07789
1.1487
1.2201
1.29127
1.36173
1.43138
1.50043
1.56926
1.63823
1.70747
1.77678
1.84554
1.91191
1.97422
2.03059
2.07883
2.1167
2.14209
2.15358
2.1512
2.13812
2.11604
2.08607
2.04906
2.00559
1.95603
1.90045
1.83849
1.7696
1.69322
1.60927
1.51863
1.42318
1.32509
1.22601
1.12688
1.02871
0.933625
0.845019
0.765661
0.695578
0.632781
0.576706
0.529952
0.49625
0.477474
0.472515
0.478055
0.490053
0.504963
0.520294
0.5346
0.547178
0.557741
0.566189
0.572497
0.576674
0.578754
0.578801
0.576915
0.573225
0.567889
0.561083
0.552998
0.543824
0.533753
0.522964
0.511629
0.499899
0.487912
0.475786
0.463625
0.451514
0.439525
0.427716
0.416135
0.404821
0.393806
0.383116
0.372772
0.362784
0.353172
0.34396
0.335171
0.326835
0.318987
0.311669
0.304938
0.298873
0.293588
0.289263
0.286206
0.285008
0.286882
0.294299
0.311862
0.346964
0.408485
0.499657