/*--------------------------------*- C++ -*----------------------------------*\
  =========                 |
  \\      /  F ield         | OpenFOAM: The Open Source CFD Toolbox
   \\    /   O peration     | Website:  https://openfoam.org
    \\  /    A nd           | Version:  9
     \\/     M anipulation  |
\*---------------------------------------------------------------------------*/
FoamFile
{
    format      ascii;
    class       volScalarField;
    location    "0.023";
    object      nut;
}
// * * * * * * * * * * * * * * * * * * * * * * * * * * * * * * * * * * * * * //

dimensions      [0 2 -1 0 0 0 0];

internalField   nonuniform List<scalar> 
12225
(
1.29067e-09
0
0
0
0
0
0
0
0
0
0
0
0
0
0
0
0
0
8.23264e-10
0
0
0
0
0
0
0
0
0
0
0
0
0
0
0
0
0
8.30992e-10
0
0
0
0
0
0
1.28398e-10
4.78889e-10
3.21261e-10
0
0
0
0
0
0
0
0
0
0
0
2.75426e-09
0
0
0
2.16744e-09
3.53416e-09
2.81192e-09
5.5419e-10
0
0
0
0
0
0
0
0
0
0
0
0
0
0
0
2.37188e-07
3.91148e-07
2.09213e-07
7.74311e-08
5.47825e-08
6.20172e-08
4.9838e-08
3.16425e-08
1.89971e-08
0
0
0
0
0
0
0
0
0
9.43525e-08
2.41516e-06
1.83781e-06
7.16321e-07
1.47377e-07
3.89217e-08
3.00816e-07
3.34919e-07
1.21168e-07
7.7293e-09
0
0
0
0
0
0
0
0
0
5.12001e-07
7.13003e-07
3.19306e-07
1.07513e-08
0
2.79368e-07
1.71576e-07
4.46907e-08
0
7.19329e-08
1.75626e-07
7.30958e-07
1.78837e-06
7.92947e-07
0
0
0
0
1.00169e-07
3.94216e-07
4.16538e-07
3.74586e-07
2.76643e-07
9.28212e-08
0
0
0
2.46432e-07
7.33895e-07
2.58227e-06
4.33911e-06
5.61481e-07
0
0
0
0
1.88455e-07
3.80801e-07
4.28552e-07
3.77231e-07
2.66287e-07
1.20159e-07
0
0
0
4.37548e-07
2.65013e-06
4.44757e-06
2.40881e-06
0
0
0
0
9.07563e-08
1.31998e-07
2.06456e-07
3.12139e-07
3.02858e-07
2.25181e-07
1.44427e-07
6.55936e-08
0
0
0
0
2.24272e-06
1.05286e-06
0
0
1.01978e-08
0
0
0
0
0
0
0
1.81002e-08
1.55317e-07
1.94846e-07
1.08802e-07
0
0
4.9145e-07
7.3365e-07
5.73058e-07
4.59817e-07
1.59586e-07
0
0
0
0
0
0
0
0
2.69825e-07
8.02451e-07
7.3421e-07
0
0
5.40052e-07
2.13693e-06
1.09681e-06
8.1554e-07
7.07121e-07
2.07775e-07
0
0
0
0
0
0
0
0
4.0307e-07
4.47072e-07
0
0
3.38514e-06
2.21201e-06
1.18517e-06
1.1719e-06
6.40988e-07
0
0
0
1.42784e-08
0
0
0
0
0
0
0
0
0
0
0
0
4.75218e-08
0
0
0
0
0
0
0
0
0
0
0
0
0
0
0
0
0
0
0
0
0
0
0
0
0
0
0
0
0
0
2.39969e-07
4.87379e-07
0
0
0
0
0
0
0
0
0
0
0
0
0
0
2.7774e-08
1.68404e-07
0
0
5.12547e-10
0
0
5.8208e-09
4.21049e-07
1.2714e-06
1.26866e-06
1.92777e-07
0
0
0
0
0
1.24352e-07
2.5532e-07
3.1134e-07
7.82266e-07
9.12829e-07
5.21464e-07
3.48473e-07
5.12851e-08
0
0
6.44521e-07
4.16577e-07
0
0
0
0
0
0
1.97912e-08
1.10922e-07
1.58607e-07
1.22962e-08
0
2.40473e-07
0
0
0
0
0
0
0
0
0
0
0
0
4.88523e-08
8.33567e-08
1.32076e-07
0
0
1.76364e-07
2.23161e-07
0
0
0
0
1.32946e-07
5.20459e-07
6.6237e-07
4.09378e-07
0
0
6.35378e-08
1.87876e-07
2.22704e-07
1.73704e-07
1.90316e-07
9.15298e-07
1.63053e-06
2.14884e-06
4.82476e-07
0
0
0
0
0
1.49682e-07
1.37383e-07
0
0
0
9.85645e-08
2.51289e-07
3.42923e-07
7.84507e-07
1.52011e-06
2.45824e-06
2.67631e-06
0
0
0
0
0
0
0
0
0
0
0
0
0
0
7.25173e-07
9.49472e-07
1.96546e-06
0
0
0
0
0
0
0
0
7.46771e-07
5.37208e-07
0
0
0
0
0
5.89337e-07
6.74567e-07
0
0
0
0
0
0
0
0
0
0
0
9.36287e-09
0
0
0
0
2.88304e-07
0
0
0
0
0
0
0
0
0
0
0
0
0
0
0
0
0
0
0
0
6.55416e-09
1.12536e-08
1.28401e-08
1.35593e-08
9.72063e-09
1.20578e-09
0
0
0
0
0
0
0
0
0
0
0
0
0
0
0
1.6315e-10
1.30211e-10
0
0
0
0
0
0
0
0
0
0
0
0
0
0
0
0
0
0
0
0
0
0
0
0
0
0
0
0
0
0
0
0
0
0
0
0
0
0
0
0
0
0
0
0
0
0
5.29396e-07
9.63403e-07
8.68206e-07
4.59333e-07
2.34661e-09
0
0
0
0
0
0
0
0
8.1864e-08
1.9334e-07
3.01931e-07
3.99294e-07
4.9159e-07
5.09956e-07
4.91099e-07
4.74218e-07
6.16325e-07
1.67959e-06
2.45185e-06
0
0
0
0
0
6.39828e-06
1.33723e-05
4.13116e-06
7.57858e-07
3.33933e-08
0
1.27413e-07
2.36333e-07
2.86248e-07
2.76431e-07
2.47882e-07
2.01833e-07
1.55751e-07
1.13698e-07
8.42486e-08
5.53658e-08
3.53763e-08
1.99776e-08
7.23528e-09
0
0
0
0
0
0
0
0
0
0
0
0
0
0
0
0
0
0
0
0
0
0
0
0
0
0
0
0
0
0
0
0
0
0
0
0
0
0
0
0
0
0
0
0
0
0
0
0
0
0
0
0
0
0
0
0
0
0
0
0
0
0
0
0
0
0
0
0
0
0
0
0
0
0
0
0
0
0
0
0
0
0
0
0
0
0
0
0
0
0
0
0
0
0
0
0
0
0
0
0
0
0
0
0
0
0
0
0
0
0
0
0
0
0
0
0
0
0
0
0
0
0
0
0
0
0
0
0
0
0
0
0
3.83721e-07
1.19436e-06
1.51817e-06
1.55587e-06
1.12895e-06
4.98069e-07
0
0
0
0
0
0
0
2.30208e-07
4.97594e-07
7.29544e-07
8.77922e-07
9.30434e-07
9.28719e-07
9.28332e-07
1.17952e-06
1.5812e-06
1.85663e-06
0
0
0
0
0
0
0
0
1.31326e-06
5.43083e-07
0
0
5.9448e-08
1.63284e-07
2.08211e-07
2.16386e-07
2.07464e-07
1.88193e-07
1.6567e-07
1.41315e-07
1.16484e-07
9.14563e-08
6.58038e-08
4.03294e-08
1.51464e-08
0
0
0
0
0
0
0
0
0
0
0
0
0
0
0
0
0
0
0
0
0
0
0
0
0
0
0
0
0
0
0
0
0
0
0
0
0
0
0
0
0
0
0
0
0
0
0
0
0
0
0
0
0
0
0
0
0
0
0
0
0
0
0
0
0
0
0
0
0
0
0
0
0
0
0
0
0
0
0
0
0
0
0
0
0
0
0
0
0
0
0
0
0
0
0
0
0
0
0
0
0
0
0
0
0
0
0
0
0
0
0
0
0
0
0
0
0
0
0
0
0
0
0
0
0
0
0
0
0
0
0
0
1.10057e-07
5.6229e-07
1.26374e-06
1.92573e-06
2.16519e-06
2.47629e-06
2.64693e-06
2.49625e-06
2.13012e-06
1.45063e-06
5.79321e-07
8.64661e-08
2.19141e-07
3.88287e-07
1.35665e-07
0
0
0
0
0
0
0
0
0
0
0
0
0
0
0
0
7.43774e-07
2.03495e-07
0
0
1.47264e-07
3.91104e-07
5.78485e-07
6.78167e-07
7.11502e-07
6.76632e-07
6.1055e-07
5.20048e-07
4.21895e-07
3.22624e-07
2.27051e-07
1.36051e-07
4.96502e-08
0
0
0
0
0
0
0
0
0
0
0
0
0
0
0
0
0
0
0
0
0
0
0
0
0
0
0
0
0
0
0
0
0
0
0
0
0
0
0
0
1.46938e-09
0
0
0
0
0
0
0
0
0
0
0
0
0
0
0
0
0
0
0
0
0
0
0
0
0
0
0
0
0
0
0
0
0
0
0
0
0
0
0
0
0
0
0
0
0
0
0
0
0
0
0
0
0
0
0
0
0
0
0
0
0
0
0
0
0
0
0
0
0
0
0
0
0
0
0
0
0
0
0
0
0
0
0
0
0
0
0
0
0
0
0
2.425e-08
1.88668e-07
9.43922e-07
2.19933e-06
2.94355e-06
3.28372e-06
3.40759e-06
3.11941e-06
2.52935e-06
1.57165e-06
7.93145e-07
1.15986e-06
2.03887e-06
1.8346e-06
6.92134e-07
0
0
0
0
0
0
0
0
0
0
0
0
0
3.30689e-07
0
7.77693e-08
4.53316e-07
1.88292e-07
3.22138e-07
5.00395e-07
6.55548e-07
6.85717e-07
6.99026e-07
7.1886e-07
8.0124e-07
9.57672e-07
1.21104e-06
1.57877e-06
2.0789e-06
2.70526e-06
3.22641e-06
2.64563e-06
0
0
0
0
0
0
0
0
0
0
0
0
0
0
0
0
0
0
0
0
0
0
0
0
0
0
6.49695e-08
1.48271e-07
2.14269e-07
2.47148e-07
2.42761e-07
2.03247e-07
1.37454e-07
5.75882e-08
0
0
0
0
0
0
0
0
0
0
0
0
0
0
0
0
0
0
0
0
0
0
0
0
0
0
0
0
0
0
9.26322e-09
1.68355e-08
1.80516e-08
1.62822e-08
1.37453e-08
1.14233e-08
9.50222e-09
7.93095e-09
6.66389e-09
5.64892e-09
4.82016e-09
4.11892e-09
3.5381e-09
3.03655e-09
2.56219e-09
2.10237e-09
1.6569e-09
1.23179e-09
8.42671e-10
5.06373e-10
2.33337e-10
2.84991e-11
0
0
0
0
0
0
0
0
0
0
0
0
0
0
0
0
0
0
0
0
0
0
0
0
0
0
0
0
0
2.52432e-14
5.13585e-14
4.8276e-14
4.69806e-14
3.10745e-14
2.57758e-14
1.20207e-14
7.94402e-15
1.10695e-15
0
0
0
4.02253e-15
0
2.79631e-14
0
1.2989e-13
0
9.69312e-09
8.51357e-08
6.51338e-07
2.60511e-06
3.12357e-06
3.30632e-06
2.85404e-06
1.67369e-06
0
0
5.55508e-07
4.31461e-06
6.90687e-06
6.33136e-06
3.97931e-06
1.40014e-06
0
0
0
0
0
0
0
0
0
0
0
0
0
0
3.65542e-07
1.15571e-06
1.35102e-06
1.16627e-06
8.39042e-07
5.32325e-07
3.09258e-07
1.78789e-07
1.27136e-07
1.50171e-07
2.48155e-07
4.37298e-07
7.48645e-07
1.23844e-06
1.99483e-06
3.08862e-06
3.58858e-06
0
0
0
0
0
0
0
0
2.24471e-08
4.85371e-08
4.34692e-08
1.7538e-08
0
0
0
0
0
0
0
0
0
0
0
0
0
0
0
1.77352e-08
1.7858e-07
3.01821e-07
3.71224e-07
3.86213e-07
3.50382e-07
2.6891e-07
1.6185e-07
5.52069e-08
0
0
0
0
0
0
0
0
0
0
0
0
0
0
0
0
0
0
0
0
0
0
0
0
0
0
0
0
0
0
0
0
0
0
0
0
0
0
0
0
0
0
0
0
0
0
0
0
0
0
0
0
0
0
0
0
8.67566e-10
1.25727e-09
1.30513e-09
1.19339e-09
1.02015e-09
8.36088e-10
6.65347e-10
5.17539e-10
3.94906e-10
2.96387e-10
2.19522e-10
1.61119e-10
1.17662e-10
8.56957e-11
6.2281e-11
4.50935e-11
3.24588e-11
2.31284e-11
1.62586e-11
1.12165e-11
7.59657e-12
5.05225e-12
3.3228e-12
2.17131e-12
1.39456e-12
8.89238e-13
5.05519e-13
2.85592e-13
6.46841e-14
1.18443e-14
0
0
0
0
0
2.11386e-13
0
4.37595e-12
0
1.52501e-11
0
4.48953e-09
4.37174e-08
3.72562e-07
2.59907e-06
2.72595e-06
2.0419e-06
3.87255e-08
0
0
4.63074e-07
8.32766e-06
1.41662e-05
1.59219e-05
1.36844e-05
9.42776e-06
4.94843e-06
1.26445e-06
0
0
0
0
0
0
0
0
0
0
0
0
1.14805e-06
1.72509e-06
1.53775e-06
1.16494e-06
7.38973e-07
3.95299e-07
1.10393e-07
0
0
0
0
0
0
0
2.08475e-07
6.34092e-07
9.43131e-07
4.95491e-07
0
0
0
0
0
1.70744e-07
3.57923e-07
4.63343e-07
5.0375e-07
4.92642e-07
4.53971e-07
3.84253e-07
2.89897e-07
1.86405e-07
7.43527e-08
0
0
0
0
0
0
0
0
0
0
0
0
0
0
0
0
0
2.80614e-08
1.35562e-07
2.01288e-07
2.02387e-07
1.53556e-07
8.18611e-08
3.94788e-09
0
0
0
0
0
0
0
0
0
0
0
0
0
0
0
0
0
0
0
0
0
0
0
0
0
0
0
0
0
0
0
0
0
0
0
0
0
0
0
0
0
0
0
0
0
0
0
0
0
0
0
0
0
0
0
0
0
0
0
0
0
0
0
0
0
0
0
0
0
0
0
0
0
0
0
0
0
0
0
0
0
1.86367e-12
5.63706e-12
6.73467e-12
1.08403e-11
1.34588e-11
2.45537e-11
3.23916e-11
6.22482e-11
5.24478e-11
1.0865e-10
0
2.24427e-11
0
0
1.09711e-08
1.54781e-07
1.64844e-06
4.31768e-07
0
0
0
7.13442e-06
1.53509e-05
2.04509e-05
2.25072e-05
2.27597e-05
1.9765e-05
1.37882e-05
6.95988e-06
1.91676e-06
0
0
0
0
0
0
0
0
0
0
1.19975e-06
2.62526e-06
2.38954e-06
1.64717e-06
9.62125e-07
4.57576e-07
7.27772e-08
0
0
0
0
0
0
0
0
0
0
2.39874e-07
3.75786e-07
1.16608e-07
0
0
7.69362e-08
4.46213e-07
7.02757e-07
8.22313e-07
8.58335e-07
8.52311e-07
8.32496e-07
7.96308e-07
7.65391e-07
7.39296e-07
6.93954e-07
6.33064e-07
5.31293e-07
4.00721e-07
2.30233e-07
4.6254e-08
0
0
0
0
0
0
0
0
0
0
0
0
0
0
0
0
0
0
1.40031e-07
1.87234e-07
1.612e-07
1.00638e-07
3.32162e-08
0
0
0
0
0
0
0
0
0
0
0
0
0
0
0
0
0
0
0
0
0
0
0
0
0
0
0
0
0
0
0
0
0
0
0
0
0
0
0
0
0
0
0
0
0
0
0
0
0
0
0
0
0
0
0
0
0
0
0
0
0
0
0
0
0
0
0
0
0
0
0
0
0
0
0
0
2.54674e-11
3.77071e-11
3.6392e-11
2.88109e-11
2.32202e-11
1.79415e-11
1.89405e-11
1.89131e-11
2.50547e-11
2.82697e-11
4.40718e-11
3.355e-11
4.72919e-11
0
0
0
0
0
0
0
0
2.07264e-06
1.16943e-05
1.40477e-05
1.60056e-05
1.83918e-05
2.05421e-05
2.15045e-05
2.18225e-05
2.06818e-05
1.6824e-05
1.02468e-05
4.18707e-06
1.34838e-06
0
0
0
0
0
0
0
0
2.83077e-06
4.52806e-06
3.10843e-06
1.80628e-06
9.63962e-07
4.00612e-07
0
0
0
0
0
0
0
0
0
0
6.05758e-07
1.2316e-06
1.50486e-06
8.20155e-07
0
0
0
0
2.09213e-07
7.3048e-07
9.92547e-07
1.01146e-06
9.5149e-07
8.02568e-07
6.76527e-07
5.46983e-07
4.54371e-07
3.84275e-07
3.47289e-07
3.42316e-07
3.68008e-07
4.04239e-07
4.2531e-07
4.01996e-07
3.2049e-07
2.06726e-07
9.24804e-08
0
0
0
0
0
0
0
0
0
0
0
0
0
0
0
1.10024e-07
2.20131e-07
2.02399e-07
1.31155e-07
6.0373e-08
1.51477e-08
0
0
0
0
0
0
0
0
0
0
0
0
0
0
0
0
0
0
0
0
0
0
0
0
0
0
0
0
0
0
0
0
0
0
0
0
0
0
0
0
0
0
0
0
0
0
0
0
0
0
0
0
0
0
0
0
0
0
0
0
0
0
0
0
0
0
0
0
0
0
0
0
0
0
4.44607e-12
2.14303e-11
2.48079e-11
2.10991e-11
1.75104e-11
1.3339e-11
1.34597e-11
1.3033e-11
1.57145e-11
1.6563e-11
2.32871e-11
1.44604e-11
1.07789e-11
0
0
0
0
0
0
0
2.31667e-06
7.66356e-06
1.02265e-05
1.11691e-05
1.21071e-05
1.32177e-05
1.38603e-05
1.4758e-05
1.61333e-05
1.73549e-05
1.73935e-05
1.30521e-05
6.72109e-06
2.55955e-06
7.65847e-07
0
0
0
0
0
0
0
0
1.869e-06
1.4394e-06
8.18943e-07
3.72728e-07
3.62714e-08
0
0
0
0
0
0
0
3.84965e-07
1.52861e-06
3.19524e-06
5.45107e-06
8.00376e-06
8.9351e-06
1.79208e-06
0
0
0
0
0
0
7.67574e-07
1.14328e-06
1.26812e-06
1.08228e-06
8.99161e-07
6.7618e-07
5.13267e-07
3.84918e-07
2.79058e-07
1.83785e-07
1.12822e-07
9.52148e-08
1.45365e-07
2.3368e-07
3.02333e-07
3.1388e-07
2.66879e-07
1.8962e-07
9.7432e-08
2.35211e-11
0
0
0
0
0
0
0
0
0
0
0
0
0
0
1.08197e-07
1.50277e-07
1.1625e-07
5.99238e-08
1.3104e-08
0
0
8.05101e-09
1.5553e-08
6.54323e-09
0
0
0
0
0
0
0
0
0
0
0
0
0
0
0
0
0
0
0
0
0
0
0
0
0
0
0
0
0
0
0
0
0
0
0
0
0
0
0
0
0
0
0
0
0
0
0
0
0
0
0
0
0
0
0
0
0
0
0
0
0
0
0
0
0
0
0
0
0
9.4984e-12
1.55143e-11
1.45074e-11
1.2467e-11
9.37885e-12
8.64406e-12
8.01402e-12
8.5385e-12
7.95658e-12
7.79904e-12
3.09098e-12
0
0
0
0
0
0
0
0
0
2.29159e-06
4.74195e-06
5.85145e-06
6.36158e-06
6.66761e-06
6.76759e-06
6.95307e-06
7.0453e-06
6.445e-06
5.77102e-06
5.55969e-06
4.18135e-06
2.8011e-06
1.81786e-06
1.0886e-06
7.09736e-07
9.38696e-07
0
0
0
0
0
0
2.36365e-07
1.39884e-07
0
0
0
0
0
0
0
3.905e-07
1.53939e-06
3.39906e-06
6.33257e-06
1.10327e-05
1.83536e-05
2.90532e-05
3.42682e-05
0
0
0
0
0
0
0
0
5.66553e-07
1.10397e-06
1.20908e-06
1.06405e-06
8.36505e-07
6.24985e-07
5.07456e-07
4.43259e-07
3.8339e-07
2.83663e-07
1.7209e-07
1.11225e-07
1.46451e-07
2.43461e-07
3.03664e-07
2.62253e-07
1.27832e-07
0
0
0
0
0
0
0
0
0
0
0
0
0
0
0
0
0
0
0
1.7224e-08
2.24624e-08
1.30238e-08
5.66872e-09
7.99732e-09
1.77752e-08
2.38945e-08
1.74353e-08
0
0
0
0
0
0
0
0
0
0
0
0
0
0
0
0
0
0
0
0
0
0
0
0
0
0
0
0
0
0
0
0
0
0
0
0
0
0
0
0
0
0
0
0
0
0
0
0
0
0
0
0
0
0
0
0
0
0
0
0
0
0
0
0
0
0
0
0
0
6.78854e-12
8.13855e-12
7.56252e-12
5.77872e-12
4.71075e-12
3.9906e-12
3.59034e-12
2.45108e-12
1.24784e-12
0
0
0
0
0
0
0
0
0
0
0
1.07399e-06
2.30116e-06
2.70236e-06
2.62395e-06
2.37879e-06
2.16588e-06
1.98754e-06
2.00128e-06
2.68905e-06
3.33019e-06
3.36813e-06
3.23514e-06
3.38222e-06
4.09847e-06
3.19924e-06
9.19732e-07
0
0
0
0
0
0
0
0
0
0
0
0
0
0
5.85664e-07
1.69198e-06
3.57024e-06
6.53799e-06
1.09801e-05
1.67237e-05
2.15468e-05
1.93163e-05
1.45087e-06
0
0
0
0
0
0
0
0
0
5.90355e-07
9.29961e-07
9.10405e-07
7.00403e-07
4.36043e-07
2.43308e-07
2.11563e-07
3.1011e-07
3.8047e-07
3.14863e-07
1.60503e-07
4.09545e-08
5.79583e-08
2.10588e-07
3.54841e-07
3.20829e-07
9.45781e-08
0
0
0
0
0
0
0
0
0
0
0
0
0
0
0
0
0
0
0
0
0
0
1.37004e-08
2.40941e-08
2.90747e-08
2.4016e-08
9.83819e-09
0
0
0
0
0
0
0
0
0
0
0
0
0
0
0
0
0
0
0
0
0
0
0
0
0
0
0
0
0
0
0
0
0
0
0
0
0
0
0
0
0
0
0
0
0
0
0
0
0
0
0
0
0
0
0
0
0
0
0
0
0
0
0
0
0
0
0
0
0
2.331e-12
3.08587e-12
2.5131e-12
1.86369e-12
1.12172e-12
6.12819e-13
0
0
0
0
0
0
0
0
0
0
0
0
0
0
0
5.17198e-07
6.75888e-07
6.51915e-07
6.53635e-07
7.9629e-07
1.16664e-06
1.78436e-06
2.38599e-06
3.05155e-06
3.99829e-06
4.24543e-06
2.67491e-06
1.3661e-06
6.99976e-07
3.06559e-07
6.40897e-08
0
0
0
0
0
0
0
0
0
0
0
1.32299e-07
6.90281e-07
1.65408e-06
3.15351e-06
5.01011e-06
6.73464e-06
7.13646e-06
4.61209e-06
0
0
0
0
0
0
0
0
0
0
0
1.28942e-07
6.54622e-07
7.61425e-07
6.20534e-07
4.06395e-07
1.38248e-07
0
0
9.06594e-08
2.73385e-07
1.93912e-07
0
0
0
0
1.29162e-07
3.55864e-07
1.92001e-07
0
0
0
0
0
0
0
0
0
0
0
0
0
0
0
0
0
0
0
0
0
0
0
6.21874e-09
1.44619e-08
7.76388e-09
0
0
0
0
0
0
0
0
0
0
0
0
0
0
0
0
0
0
0
0
0
0
0
9.7405e-09
1.58057e-08
0
0
0
0
0
0
0
0
0
0
0
0
0
0
0
0
0
0
0
0
0
0
0
0
0
0
0
0
0
0
0
0
0
0
0
0
0
0
0
0
0
0
0
0
0
0
0
0
0
0
0
0
0
0
0
0
0
0
0
0
0
0
0
0
0
0
0
1.68171e-08
3.08511e-07
5.99686e-07
9.92241e-07
1.54233e-06
2.20165e-06
2.91299e-06
2.98208e-06
2.29794e-06
1.55829e-06
1.06743e-06
7.55664e-07
5.59678e-07
4.36604e-07
3.75018e-07
3.57318e-07
3.37358e-07
2.92338e-07
2.22373e-07
1.16076e-07
0
0
0
0
0
0
0
0
0
0
0
0
0
0
0
0
0
0
0
0
0
0
0
0
0
1.47289e-07
4.58068e-07
4.54711e-07
4.01348e-07
3.37719e-07
6.85558e-08
0
0
7.34382e-08
2.78967e-07
9.57364e-08
0
0
0
0
0
0
9.29402e-08
0
0
0
0
0
0
0
0
0
0
0
0
0
0
0
0
0
0
0
0
0
0
0
0
4.87008e-10
0
0
0
0
0
0
0
0
0
0
0
0
0
0
0
0
0
0
0
0
0
0
0
0
1.21777e-08
0
0
0
0
0
0
0
0
0
0
0
0
0
0
0
0
0
0
0
0
0
0
0
0
0
0
0
0
0
0
0
0
0
0
0
0
0
0
0
0
0
0
0
0
0
0
0
0
0
0
0
0
0
0
0
0
0
0
0
0
0
0
0
0
0
0
0
0
2.14056e-07
6.89815e-07
1.18946e-06
1.73119e-06
2.09815e-06
2.26582e-06
1.96495e-06
1.57455e-06
1.19035e-06
9.35625e-07
7.85996e-07
6.99682e-07
6.47025e-07
6.40995e-07
6.55472e-07
6.42887e-07
6.03726e-07
5.65316e-07
5.07577e-07
4.27074e-07
3.36435e-07
2.31172e-07
8.72881e-08
0
0
0
0
0
0
0
0
0
0
0
0
0
0
0
0
0
0
0
0
0
0
8.75499e-08
1.48803e-07
1.24755e-07
2.00744e-07
2.30202e-07
2.62265e-09
0
0
3.07034e-07
3.75551e-07
0
0
0
0
0
0
0
0
0
0
0
0
0
0
0
0
0
0
0
0
0
0
0
0
0
0
0
0
0
3.31792e-09
1.47721e-08
1.18171e-08
3.73197e-09
0
0
0
0
0
7.78314e-09
4.99351e-09
0
0
0
0
0
0
0
0
0
0
0
0
0
0
0
0
0
0
0
0
0
0
0
0
0
0
0
0
0
0
0
0
0
0
0
0
0
0
0
0
0
0
0
0
0
0
0
0
0
0
0
0
0
0
0
0
0
0
0
0
0
0
0
0
0
0
0
0
0
0
0
0
0
0
0
0
0
0
0
0
0
0
0
0
0
1.78536e-07
6.50992e-07
1.06618e-06
1.44376e-06
1.62181e-06
1.57695e-06
1.38089e-06
1.15316e-06
9.3372e-07
8.19646e-07
7.80347e-07
7.67599e-07
7.6939e-07
8.11989e-07
8.66676e-07
8.8251e-07
8.72339e-07
8.91149e-07
9.19503e-07
9.36748e-07
9.39602e-07
9.06142e-07
7.99982e-07
5.39975e-07
0
0
0
0
0
0
0
0
0
0
0
0
0
0
0
0
0
0
0
0
0
0
0
0
0
0
1.12524e-08
0
0
1.35137e-07
4.06652e-07
3.06376e-07
0
0
0
0
0
0
0
0
0
0
0
0
0
0
0
0
0
0
0
0
0
0
0
0
0
0
0
0
0
0
0
0
0
0
0
0
0
3.68726e-09
2.54567e-08
2.86947e-08
0
0
0
0
0
0
0
0
0
0
0
0
0
0
0
0
0
0
0
0
0
0
5.38257e-09
2.04681e-08
2.18764e-08
1.07559e-08
0
0
0
0
0
0
0
0
0
0
0
0
0
0
0
0
0
0
0
0
0
0
0
0
0
0
0
0
0
0
0
0
0
0
0
0
0
0
0
0
0
0
0
0
0
0
0
0
0
0
0
0
0
0
0
0
0
0
1.32846e-07
5.41695e-07
8.484e-07
1.03721e-06
1.11457e-06
1.05166e-06
9.08665e-07
7.76012e-07
6.79353e-07
6.71039e-07
7.22262e-07
7.84232e-07
8.48569e-07
9.43247e-07
1.03381e-06
1.07716e-06
1.08786e-06
1.12621e-06
1.19188e-06
1.26525e-06
1.35724e-06
1.45115e-06
1.49875e-06
1.3913e-06
1.00272e-06
1.20989e-07
0
0
0
0
0
0
0
0
0
0
0
0
2.24626e-06
3.5985e-06
3.16403e-06
2.04793e-06
1.01043e-06
5.11635e-07
2.64064e-07
0
0
0
0
0
0
0
1.60847e-08
8.59192e-08
2.04405e-07
2.90391e-07
1.44845e-07
0
0
0
0
0
0
0
0
0
1.16503e-07
5.88076e-08
0
5.82392e-08
1.7469e-07
0
0
0
0
0
4.89083e-07
4.16696e-07
9.46916e-08
0
0
0
0
0
0
0
0
0
0
0
1.61208e-09
0
0
0
1.04522e-08
3.43211e-08
4.22055e-08
0
0
0
0
0
0
0
0
0
0
0
0
0
0
5.40973e-08
0
0
0
0
0
0
8.80224e-09
5.04057e-08
6.56273e-08
5.97598e-08
3.63409e-08
9.3647e-09
0
0
0
0
0
0
0
0
0
0
0
0
0
0
0
0
0
0
0
0
0
0
0
0
0
0
0
0
0
0
0
0
0
0
0
0
0
0
0
0
0
0
0
0
0
0
0
0
0
0
0
0
0
0
0
0
1.07328e-07
4.15596e-07
6.34029e-07
7.36175e-07
7.3372e-07
6.55648e-07
5.23893e-07
4.14323e-07
3.50248e-07
3.50372e-07
4.07904e-07
4.9716e-07
6.14309e-07
7.75284e-07
9.45972e-07
1.05938e-06
1.12558e-06
1.17853e-06
1.21202e-06
1.26779e-06
1.33891e-06
1.43061e-06
1.56563e-06
1.61384e-06
1.52365e-06
1.09344e-06
1.51183e-07
0
0
0
0
0
0
0
0
0
0
9.93612e-06
1.09837e-05
7.73577e-06
4.61262e-06
2.50936e-06
1.13506e-06
4.83912e-07
2.49934e-07
0
0
0
3.29017e-08
0
0
0
0
7.80911e-08
9.46913e-08
0
0
0
0
0
0
0
0
0
0
0
0
2.93046e-08
1.3163e-07
0
0
1.55102e-08
0
0
0
0
1.43478e-06
6.80889e-07
0
0
0
3.58115e-08
3.05354e-08
1.16852e-08
0
0
0
0
0
0
4.98059e-09
2.44938e-08
1.12474e-08
2.55816e-09
5.85543e-09
2.08273e-08
4.43117e-08
3.51973e-08
0
0
0
0
0
0
0
0
0
0
0
0
0
6.15668e-08
1.05221e-08
0
0
0
0
0
0
7.38521e-08
1.14638e-07
1.19918e-07
9.36729e-08
5.07993e-08
8.82341e-09
0
0
0
0
0
0
0
0
0
0
0
0
0
0
0
0
0
0
0
0
0
0
0
0
0
0
0
0
0
0
0
0
0
0
0
0
0
0
0
0
0
0
0
0
0
0
0
0
0
0
0
0
0
0
0
5.86709e-08
2.66801e-07
4.34705e-07
5.33838e-07
5.37079e-07
4.68528e-07
3.54082e-07
2.44719e-07
1.59949e-07
1.14338e-07
1.15794e-07
1.57439e-07
2.44265e-07
3.94267e-07
5.90011e-07
7.76964e-07
9.26301e-07
1.04342e-06
1.10987e-06
1.1647e-06
1.20717e-06
1.26668e-06
1.31796e-06
1.41683e-06
1.40268e-06
1.33957e-06
9.33175e-07
1.64678e-07
0
0
0
0
0
0
0
0
1.67968e-05
2.04919e-05
1.25207e-05
6.66743e-06
3.34531e-06
1.55697e-06
5.29235e-07
1.12952e-07
4.6707e-08
0
0
0
1.99384e-07
4.75772e-08
0
0
0
0
1.23299e-07
0
0
0
0
0
0
0
0
0
0
0
0
0
0
0
7.45454e-08
0
0
0
0
0
1.34609e-06
8.15059e-07
0
0
4.97112e-08
6.24399e-08
2.80711e-08
0
0
0
0
0
0
0
3.87265e-10
3.23527e-08
2.74364e-08
1.54588e-08
1.41334e-08
2.12243e-08
3.67905e-08
3.66992e-08
0
0
0
0
0
0
0
0
0
0
0
0
0
1.37838e-08
5.50018e-08
0
0
0
0
0
0
6.56618e-08
1.61917e-07
1.89313e-07
1.69215e-07
1.09236e-07
3.82188e-08
0
0
0
0
0
0
0
0
0
0
0
0
0
0
0
0
0
0
0
0
0
0
0
0
0
0
0
0
0
0
0
0
0
0
0
0
0
0
0
0
0
0
0
0
0
0
0
0
0
0
0
0
0
2.52164e-08
5.64058e-08
1.19168e-07
2.01842e-07
2.80867e-07
3.36262e-07
3.50601e-07
3.24148e-07
2.60288e-07
1.83482e-07
1.10341e-07
5.44784e-08
2.28469e-08
1.41565e-08
3.70634e-08
1.09964e-07
2.40553e-07
4.05779e-07
5.68155e-07
7.05819e-07
8.11633e-07
8.84279e-07
9.29137e-07
9.84342e-07
1.00833e-06
1.0634e-06
1.06594e-06
1.08742e-06
9.53237e-07
7.11458e-07
1.65778e-07
0
0
0
0
0
0
4.57448e-07
3.66776e-06
5.26944e-06
4.74702e-06
3.03579e-06
1.47635e-06
4.77433e-07
0
0
0
0
0
0
3.62459e-07
1.8619e-07
0
0
0
0
3.39333e-08
0
0
0
0
0
0
0
0
0
0
0
0
0
0
0
1.26014e-07
1.57793e-07
0
0
0
0
0
0
0
8.29508e-08
2.38283e-07
1.75824e-07
6.62456e-08
0
0
0
0
3.87042e-08
4.58962e-08
3.90841e-08
4.05269e-08
4.90318e-08
3.67672e-08
1.71262e-08
1.18342e-08
1.62062e-08
2.53509e-08
2.14023e-08
0
0
0
0
0
0
0
0
2.20104e-08
1.78591e-08
0
0
0
1.93987e-09
2.11406e-08
0
0
0
0
0
0
0
1.63166e-07
2.47795e-07
2.53186e-07
1.88253e-07
7.73341e-08
0
0
0
0
0
0
0
0
0
0
0
0
0
0
0
0
0
0
0
0
0
0
0
0
0
0
0
0
0
0
0
0
0
0
0
0
0
0
0
0
0
0
0
0
4.93011e-06
7.27109e-07
0
0
0
0
0
0
1.38193e-07
2.51274e-07
3.23596e-07
3.38132e-07
3.32212e-07
3.18791e-07
2.96097e-07
2.63792e-07
2.19014e-07
1.6513e-07
1.05658e-07
5.20331e-08
1.11204e-08
0
0
0
0
4.50614e-08
1.49282e-07
2.65963e-07
3.67634e-07
4.51044e-07
5.16346e-07
5.58445e-07
6.02966e-07
6.3042e-07
6.67905e-07
6.8146e-07
7.05234e-07
6.74699e-07
6.20917e-07
4.59324e-07
1.93435e-07
0
0
0
0
0
3.16375e-07
7.74543e-07
1.17658e-06
1.25505e-06
8.3236e-07
2.35589e-07
0
0
0
1.09884e-07
0
0
3.13696e-07
5.03348e-07
2.55377e-07
0
0
0
0
0
0
0
0
0
0
0
0
0
0
0
0
0
0
0
0
2.5406e-07
2.9948e-07
2.07305e-07
4.84198e-08
0
0
0
0
0
2.67379e-07
2.72084e-07
2.19108e-07
1.26031e-07
2.02507e-08
0
0
1.0798e-09
5.18753e-08
7.61411e-08
7.36324e-08
7.26398e-08
7.82162e-08
6.73152e-08
3.7023e-08
1.63862e-08
1.19131e-08
1.63487e-08
1.55855e-08
0
0
0
0
0
0
0
0
1.0382e-08
3.22409e-08
2.34536e-08
6.58971e-09
0
0
0
0
0
0
0
0
0
0
3.43705e-08
2.30805e-07
3.06692e-07
2.76596e-07
1.37485e-07
0
0
0
0
0
0
0
0
0
0
0
0
0
0
0
0
0
0
0
0
0
0
0
0
0
0
0
0
0
0
0
0
0
0
0
0
0
0
0
0
0
0
0
0
5.5093e-06
5.36167e-06
1.39762e-06
1.23008e-06
1.097e-06
2.18786e-07
0
0
4.10673e-08
1.68558e-07
2.45842e-07
3.21447e-07
3.51662e-07
3.26853e-07
2.7551e-07
2.15536e-07
1.55673e-07
9.61719e-08
3.76796e-08
0
0
0
0
0
0
0
0
5.86498e-08
1.23529e-07
1.68919e-07
2.01399e-07
2.2173e-07
2.45749e-07
2.66194e-07
2.93625e-07
3.15641e-07
3.43597e-07
3.60554e-07
3.77363e-07
3.79055e-07
3.4815e-07
2.75632e-07
1.69618e-07
8.71141e-08
7.37591e-08
1.22259e-07
2.1027e-07
3.23807e-07
4.03019e-07
2.75612e-07
0
0
0
0
2.12798e-07
2.24117e-07
0
0
3.27833e-07
4.79535e-07
2.91628e-07
0
0
0
0
0
0
0
0
0
0
0
0
0
0
0
0
0
0
0
0
3.3212e-07
4.35471e-07
3.34994e-07
2.55558e-07
1.43736e-07
0
0
0
2.19144e-07
3.44079e-07
2.59886e-07
1.94403e-07
1.33151e-07
5.9959e-08
2.58298e-08
2.67393e-08
3.82332e-08
6.54255e-08
8.15176e-08
7.14138e-08
6.82073e-08
8.26888e-08
9.25117e-08
7.4499e-08
4.50678e-08
2.63735e-08
2.25263e-08
2.49879e-08
1.43786e-08
0
0
0
0
0
0
0
0
1.98506e-08
2.79403e-08
1.77064e-08
9.31247e-09
0
0
0
0
0
0
0
0
0
0
6.95344e-08
2.42171e-07
2.7389e-07
2.03832e-07
0
0
0
0
0
0
0
0
0
0
0
0
0
0
0
0
0
0
0
0
0
0
0
0
0
0
0
0
0
0
0
0
0
0
0
0
0
0
0
0
0
0
0
0
3.20876e-06
6.42827e-06
2.63521e-06
1.36817e-06
5.42305e-07
0
0
0
0
0
3.66437e-08
1.13378e-07
1.73177e-07
2.01529e-07
1.71538e-07
1.19838e-07
7.26522e-08
3.28833e-08
0
0
0
0
0
0
0
0
0
0
0
0
0
0
0
0
0
3.71202e-09
3.66806e-08
8.58057e-08
1.61834e-07
2.72376e-07
3.93385e-07
4.42917e-07
3.50837e-07
2.25034e-07
1.62301e-07
1.18636e-07
4.43228e-08
0
0
0
0
0
0
0
2.10635e-07
1.43137e-07
0
0
1.61655e-07
4.01181e-07
3.26372e-07
0
0
0
0
0
0
0
0
0
0
0
0
0
0
0
0
0
0
2.75681e-08
2.04141e-07
4.50819e-07
5.26696e-07
3.98797e-07
2.78335e-07
2.08272e-07
1.54748e-07
1.09886e-07
1.40688e-07
2.61898e-07
2.78525e-07
2.28209e-07
1.72069e-07
1.18215e-07
6.48158e-08
3.94099e-08
4.13373e-08
5.22456e-08
7.92027e-08
9.82948e-08
8.18115e-08
6.38882e-08
7.2472e-08
9.35082e-08
9.56257e-08
7.53925e-08
5.00666e-08
3.57456e-08
3.43023e-08
3.20454e-08
1.03227e-08
0
0
0
0
0
0
0
0
1.28398e-08
1.50601e-08
1.22403e-08
4.30083e-09
0
0
0
4.96438e-08
4.51921e-08
2.84971e-09
0
0
0
0
6.78142e-08
8.48636e-08
0
0
0
0
0
0
0
0
0
0
0
0
0
0
0
0
0
0
0
0
0
0
0
0
0
0
0
0
0
0
0
0
0
0
0
0
0
0
0
0
0
0
0
0
0
0
0
0
0
0
0
0
0
0
0
0
0
0
1.50504e-08
0
0
0
0
0
0
0
0
0
0
0
0
0
0
0
0
0
0
0
0
0
0
0
0
0
8.164e-08
3.77971e-07
6.3839e-07
5.38271e-07
3.05463e-07
1.5455e-07
0
0
0
0
0
0
6.33435e-07
1.61663e-06
6.92949e-07
2.55848e-07
5.13577e-08
0
0
0
2.58906e-07
2.79737e-07
0
0
0
0
0
0
0
0
0
0
0
0
0
0
0
7.30282e-08
6.5894e-07
5.02678e-07
4.28818e-07
5.54904e-07
7.3602e-07
6.75523e-07
4.67438e-07
2.92637e-07
2.00666e-07
1.66307e-07
1.58504e-07
1.74186e-07
1.94307e-07
1.89151e-07
1.67838e-07
1.39118e-07
1.03017e-07
6.73864e-08
4.57228e-08
4.41878e-08
5.16683e-08
7.73626e-08
1.07624e-07
1.0158e-07
7.44447e-08
6.91138e-08
8.60915e-08
9.83682e-08
9.02242e-08
6.78772e-08
4.62287e-08
3.71674e-08
3.83145e-08
2.31668e-08
5.83546e-09
2.0675e-09
0
0
0
0
0
0
0
0
5.16381e-09
6.03973e-09
0
0
4.81187e-08
1.13478e-07
1.19552e-07
8.04856e-08
0
0
0
0
0
0
0
0
0
0
0
0
0
0
0
0
0
0
0
0
0
0
0
0
0
0
0
0
0
0
0
0
0
0
0
0
0
0
0
0
0
0
0
0
0
0
0
0
0
0
0
0
0
1.63869e-06
6.36397e-07
0
0
0
0
0
0
0
0
0
0
0
0
0
0
0
0
0
0
1.09174e-08
0
0
0
0
0
0
0
0
0
0
0
0
0
0
0
0
2.08343e-08
5.12412e-07
1.4089e-06
8.0295e-07
2.08028e-08
0
0
0
0
1.68896e-08
1.69789e-07
6.08159e-07
9.10882e-07
7.4173e-07
7.54317e-07
5.13979e-07
1.08823e-07
0
0
0
2.16267e-08
9.92355e-08
0
0
0
0
0
0
0
0
0
0
9.52548e-08
3.56105e-07
5.84579e-08
7.9618e-08
2.49074e-07
1.16836e-06
2.41286e-06
1.2095e-06
8.35572e-07
8.58012e-07
1.01209e-06
8.67249e-07
5.72096e-07
3.49308e-07
2.32285e-07
1.91696e-07
1.88388e-07
1.94953e-07
1.86097e-07
1.63457e-07
1.36059e-07
1.11373e-07
9.06532e-08
7.55159e-08
6.16791e-08
5.40413e-08
5.51728e-08
7.41729e-08
1.09253e-07
1.16437e-07
8.62279e-08
6.89326e-08
7.86726e-08
9.48405e-08
9.55283e-08
7.73843e-08
5.16923e-08
3.55761e-08
3.66299e-08
2.90279e-08
2.38145e-08
2.97393e-08
2.9862e-08
1.19618e-08
0
0
0
0
0
0
0
4.22194e-11
0
2.12599e-08
1.06405e-07
1.6113e-07
1.69812e-07
1.48679e-07
9.51217e-08
0
0
0
0
0
0
0
0
0
0
0
0
0
0
0
0
0
0
0
0
0
0
0
0
0
0
0
0
0
0
0
0
0
0
0
0
0
0
0
0
0
0
0
0
0
0
0
0
0
0
7.91317e-07
1.93259e-06
1.29342e-06
0
0
0
0
0
0
0
0
0
0
0
0
0
0
0
0
0
4.53551e-08
1.12188e-07
0
0
0
0
0
0
0
0
0
0
0
0
0
0
0
0
0
0
1.80805e-07
5.05146e-07
0
0
0
0
1.27456e-07
3.04392e-07
2.57982e-07
4.70439e-07
5.7632e-07
2.36169e-07
1.03392e-07
1.87118e-07
2.89049e-07
2.11823e-07
0
0
0
0
0
0
0
0
0
0
0
0
0
0
0
0
7.23642e-08
0
0
6.29085e-07
2.34337e-06
2.74481e-06
1.76625e-06
1.21127e-06
1.0955e-06
1.18362e-06
9.79595e-07
6.56236e-07
4.13542e-07
2.80283e-07
2.28524e-07
2.19286e-07
2.15045e-07
1.91012e-07
1.58313e-07
1.28974e-07
1.04192e-07
9.05207e-08
9.10376e-08
8.5574e-08
7.07914e-08
6.30864e-08
7.42241e-08
1.09992e-07
1.30911e-07
1.01287e-07
6.94089e-08
6.86817e-08
8.44107e-08
9.24301e-08
7.96611e-08
5.18901e-08
3.01739e-08
2.94037e-08
3.06712e-08
4.05658e-08
5.39298e-08
6.03338e-08
4.77392e-08
8.05532e-09
0
0
0
0
0
0
0
1.3628e-08
8.81471e-08
1.60538e-07
1.9387e-07
2e-07
1.95537e-07
1.76062e-07
1.13197e-07
0
0
0
0
0
0
0
0
0
0
0
0
0
0
0
0
0
0
0
0
0
0
0
0
0
0
0
0
0
0
0
0
0
0
0
0
0
0
0
0
0
0
0
0
0
0
0
0
0
7.46926e-07
6.65924e-07
5.33105e-07
2.91451e-07
0
0
0
0
0
0
0
0
0
0
0
0
0
0
0
0
0
1.10849e-07
1.05198e-06
4.78309e-07
6.07732e-09
0
0
0
0
0
0
0
0
0
0
0
0
0
0
0
1.62185e-07
0
0
0
0
3.59899e-07
2.62031e-07
0
1.65671e-07
4.80103e-07
3.54473e-07
4.34618e-08
0
2.74552e-08
2.01971e-07
2.85967e-07
1.29695e-07
0
0
0
0
0
0
0
0
0
0
0
0
0
0
0
0
0
0
5.91592e-07
3.71477e-06
3.00771e-06
1.77496e-06
1.26236e-06
1.16337e-06
1.21452e-06
9.84526e-07
6.8042e-07
4.45422e-07
3.05501e-07
2.42632e-07
2.27806e-07
2.19265e-07
1.88772e-07
1.51423e-07
1.22676e-07
1.01949e-07
9.78671e-08
1.11332e-07
1.12384e-07
9.16794e-08
7.34166e-08
7.47852e-08
1.06983e-07
1.41171e-07
1.2038e-07
7.57899e-08
6.07961e-08
7.00487e-08
8.08067e-08
7.24856e-08
4.51248e-08
2.0483e-08
1.76757e-08
3.00933e-08
5.48509e-08
7.19901e-08
8.23442e-08
8.06845e-08
4.5001e-08
0
3.29893e-08
4.10107e-08
0
0
0
0
5.12569e-08
1.56794e-07
1.96532e-07
2.09393e-07
2.13595e-07
2.22204e-07
2.23413e-07
2.0603e-07
1.45995e-07
0
0
0
0
0
0
0
0
0
0
0
0
0
0
0
0
0
0
0
0
0
0
0
0
0
0
0
0
0
0
0
0
0
0
0
0
0
0
0
0
0
0
0
0
0
0
0
0
4.14457e-07
3.80064e-07
3.58585e-07
2.3875e-07
0
0
0
0
0
0
0
0
0
0
0
0
0
0
0
2.91765e-08
2.60305e-07
1.01889e-06
1.36721e-06
8.97291e-07
2.78735e-07
0
0
0
0
0
0
0
0
0
0
0
0
0
0
1.95745e-07
2.84612e-07
0
0
4.40123e-07
8.87649e-07
5.94739e-07
0
0
3.13803e-07
5.25539e-07
3.37626e-07
0
0
0
2.5463e-07
3.85359e-07
2.57416e-07
0
0
0
0
0
0
0
0
0
0
0
0
0
0
0
3.22937e-07
2.18595e-07
0
0
3.82044e-06
3.00465e-06
1.51707e-06
1.04025e-06
1.05441e-06
1.10612e-06
8.98936e-07
6.31877e-07
4.28735e-07
3.01057e-07
2.35927e-07
2.17124e-07
2.09582e-07
1.80537e-07
1.44381e-07
1.17121e-07
1.01164e-07
1.07277e-07
1.29412e-07
1.34583e-07
1.1152e-07
8.44916e-08
7.54484e-08
9.80116e-08
1.385e-07
1.31974e-07
8.29232e-08
5.45555e-08
5.44347e-08
6.23118e-08
5.71627e-08
3.23327e-08
7.93992e-09
4.15169e-09
2.92703e-08
6.42697e-08
8.07858e-08
9.17327e-08
1.00558e-07
8.59577e-08
1.72931e-08
4.67558e-08
7.28385e-08
5.9472e-10
0
0
0
6.39264e-08
1.87553e-07
1.97859e-07
2.01971e-07
2.07894e-07
2.23665e-07
2.35708e-07
2.37697e-07
2.12247e-07
8.34509e-09
0
0
0
0
0
0
0
0
0
0
0
0
0
0
0
0
0
0
0
0
0
0
0
0
0
0
0
0
0
0
0
0
0
0
0
0
0
0
0
0
0
0
0
0
0
0
0
2.03645e-08
4.80455e-08
8.99101e-08
7.34919e-08
0
0
0
0
4.46326e-08
0
0
0
0
0
0
0
0
0
2.32646e-08
2.90296e-07
8.10045e-07
1.27524e-06
1.06365e-06
8.38486e-07
0
0
0
0
0
0
0
0
0
0
0
0
0
0
8.76656e-09
3.14423e-07
9.68403e-08
0
1.11418e-06
1.32451e-06
8.77988e-07
0
0
8.64549e-09
4.49928e-07
6.28902e-07
4.48711e-07
9.83369e-09
0
1.12695e-08
3.21664e-07
4.01446e-07
2.45793e-07
0
0
0
0
0
0
0
0
0
0
0
0
0
0
1.2814e-08
4.0024e-07
4.02491e-07
1.5545e-07
0
9.97631e-07
2.02571e-06
1.19075e-06
8.84705e-07
9.72381e-07
9.73807e-07
7.77136e-07
5.49013e-07
3.87342e-07
2.87497e-07
2.32162e-07
2.11266e-07
1.99846e-07
1.73781e-07
1.41055e-07
1.15992e-07
1.03357e-07
1.15855e-07
1.43284e-07
1.52415e-07
1.30787e-07
9.91165e-08
8.15338e-08
9.25116e-08
1.31067e-07
1.39131e-07
9.29297e-08
5.08363e-08
3.90116e-08
4.11988e-08
3.82365e-08
1.88113e-08
0
0
3.62914e-08
7.56857e-08
8.86741e-08
9.78046e-08
1.12939e-07
1.21544e-07
8.12952e-08
1.29174e-08
5.16386e-08
0
0
0
0
9.1831e-09
1.52564e-07
1.69422e-07
1.83905e-07
1.9811e-07
2.18598e-07
2.39982e-07
2.44179e-07
1.96957e-07
0
0
0
0
0
0
0
0
0
0
0
0
0
0
0
0
0
0
0
0
0
0
0
0
0
0
0
0
0
0
0
0
0
0
0
0
0
0
0
0
0
0
0
0
0
0
0
0
2.87577e-09
0
0
0
0
0
1.21928e-08
2.26944e-07
2.25278e-07
0
0
0
0
0
0
0
0
0
0
5.66656e-07
1.46992e-06
1.25221e-06
1.18348e-06
1.13301e-06
5.40047e-07
5.53507e-07
4.0182e-07
4.80896e-08
0
0
0
0
0
0
0
0
0
0
0
2.80337e-07
3.73362e-07
1.74615e-06
1.77351e-06
1.06953e-06
7.11216e-08
0
0
4.39893e-07