/*--------------------------------*- C++ -*----------------------------------*\
  =========                 |
  \\      /  F ield         | OpenFOAM: The Open Source CFD Toolbox
   \\    /   O peration     | Website:  https://openfoam.org
    \\  /    A nd           | Version:  9
     \\/     M anipulation  |
\*---------------------------------------------------------------------------*/
FoamFile
{
    format      ascii;
    class       volScalarField;
    location    "0.023";
    object      s;
}
// * * * * * * * * * * * * * * * * * * * * * * * * * * * * * * * * * * * * * //

dimensions      [0 0 0 0 0 0 0];

internalField   nonuniform List<scalar> 
12225
(
1
1
1
1
1
1
1
1
1
1
1
1
1
1
1
1
1
0.999933
1
1
1
1
1
1
1
1
1
1
1
1
1
1
1
1
1
0.999997
1
1
1
1
1
1
1
1
1
1
1
1
1
1
1
1
1
1
1
1
1
1
1
1
1
1
1
1
1
1
1
1
1
1
1
1
1
1
1
1
1
1
1
1
1
1
1
1
1
1
1
1
1
1
1
1
1
1
1
1
1
1
1
1
1
1
1
1
1
1
1
1
1
1
1
1
1
1
1
1
1
1
1
1
1
1
1
1
1
1
1
1
1
1
1
1
1
1
1
1
1
1
1
1
1
1
1
1
1
1
1
1
1
1
1
1
1
1
1
1
1
1
1
1
1
1
1
1
1
1
1
1
1
1
1
1
1
1
1
1
1
1
1
1
1
1
1
1
1
1
1
1
1
1
1
1
1
1
1
1
1
1
1
1
1
1
1
1
1
1
1
1
1
1
1
1
1
1
1
1
1
1
1
1
1
1
1
1
1
1
1
1
1
1
1
1
1
1
1
1
1
1
1
1
1
1
1
1
1
1
1
1
1
1
1
1
1
1
1
1
1
1
1
1
1
1
1
1
1
1
1
1
1
1
1
1
1
1
1
1
1
1
1
1
1
1
1
1
1
1
1
1
1
1
1
1
1
1
1
1
1
1
1
1
1
1
1
1
1
1
1
1
1
1
1
1
1
1
1
1
1
1
1
1
1
1
1
1
1
1
1
1
1
1
1
1
1
1
1
1
1
1
1
1
1
1
1
1
1
1
1
1
1
1
1
1
1
1
1
1
1
1
1
1
1
1
1
1
1
1
1
1
1
1
1
1
1
1
1
1
1
1
1
1
1
1
1
1
1
1
1
1
1
1
1
1
1
1
1
1
1
1
1
1
1
1
1
1
1
1
1
1
1
1
1
1
1
1
1
1
1
1
1
1
1
1
1
1
1
1
1
1
1
1
1
1
1
1
1
1
1
1
1
1
1
1
1
1
1
1
1
1
1
1
1
1
1
1
1
1
1
1
1
1
1
1
1
1
1
1
1
1
1
1
1
1
1
1
1
1
1
1
1
1
1
1
1
1
1
1
1
1
1
1
1
1
1
1
1
1
1
1
1
1
1
1
1
1
1
1
1
1
1
1
1
1
1
1
1
1
1
1
1
1
1
1
1
1
1
1
1
1
1
1
1
1
1
1
1
1
1
1
1
1
1.92705e-05
0.000250439
0.000854524
0.00187758
0.00432089
0.00618773
0.00932084
0.0131651
0.0158716
0.018406
0.0194412
0.0190364
0.0177241
0.015814
0.0139693
0.0122049
0.010559
0.00900279
0.00748866
0.00592899
0.0044105
0.00291131
0.00163186
0.000676171
0.000385069
0.00195524
0.0288392
0.0357511
0.0356643
0.0676774
0.464034
0.729936
0.744952
0.749251
0.752088
0.756153
0.759826
0.761726
0.763416
0.766282
0.768871
0.772353
0.775125
0.77626
0.777872
0.780878
0.78368
0.785426
0.78789
0.790523
0.791571
0.792679
0.794539
0.796036
0.796696
0.79748
0.79814
0.798384
0.798698
0.799169
0.799639
0.800208
0.800873
0.801406
0.801625
0.801667
0.801587
0.801245
0.801126
0.800996
0.800333
0.799008
0.797931
0.796989
0.795203
0.792445
0.788659
0.7839
0.778856
0.772299
0.764633
0.755387
0.745172
0.733659
0.720574
0.706422
0.690579
0.673086
0.653802
0.632289
0.608496
0.582352
0.553553
0.52183
0.486995
0.449004
0.407997
0.364344
0.318703
0.272116
0.226114
0.182761
0.144393
0.112562
0.0859127
0.0634682
0.0453137
0.031334
0.0210355
0.0137171
0.00868611
0.00534267
0.0031933
0.0018552
0.00104785
0.000575553
0.000307031
0.000159546
8.11567e-05
4.04098e-05
1.96939e-05
9.39207e-06
4.38122e-06
1.99758e-06
8.89803e-07
3.8714e-07
1.64513e-07
6.82864e-08
2.76931e-08
1.09766e-08
4.25404e-09
1.61276e-09
5.98355e-10
2.1734e-10
7.73148e-11
2.69432e-11
9.20027e-12
3.07889e-12
1.00994e-12
3.2475e-13
1.02376e-13
3.16436e-14
9.59054e-15
2.85041e-15
8.3084e-16
2.37527e-16
6.661e-17
1.8325e-17
4.94625e-18
1.31005e-18
3.40512e-19
8.68695e-20
2.17547e-20
5.34882e-21
1.29138e-21
3.06203e-22
7.1318e-23
1.63186e-23
3.66878e-24
8.10519e-25
1.75976e-25
3.75518e-26
7.87651e-27
1.62403e-27
3.29182e-28
6.55957e-29
1.28503e-29
2.47475e-30
4.68482e-31
8.71624e-32
1.59345e-32
2.86124e-33
5.04385e-34
8.72175e-35
1.47788e-35
2.44926e-36
3.96133e-37
6.2197e-38
9.43074e-39
1.25361e-39
0.00038021
0.00189933
0.00582012
0.01357
0.0312994
0.0497443
0.0715113
0.0995377
0.117714
0.135836
0.142834
0.140534
0.132932
0.117475
0.0976869
0.0765843
0.0568305
0.0398777
0.0268457
0.0168867
0.0105058
0.00598177
0.00362807
0.00190045
0.00170456
0.00358708
0.0619562
0.355469
0.569715
0.648617
0.734386
0.773847
0.783103
0.790119
0.797462
0.804021
0.80792
0.811473
0.814241
0.818132
0.820901
0.824256
0.826458
0.827585
0.828901
0.830577
0.832901
0.83626
0.839087
0.83979
0.840291
0.842075
0.845938
0.849647
0.85161
0.854646
0.856675
0.857626
0.85949
0.862442
0.865086
0.867744
0.870934
0.873901
0.875126
0.875601
0.875892
0.876214
0.877169
0.879034
0.881165
0.883112
0.886283
0.891845
0.89816
0.904414
0.911012
0.918636
0.926738
0.934301
0.941061
0.947181
0.953727
0.959121
0.963815
0.967593
0.970472
0.972657
0.974277
0.975358
0.975632
0.974591
0.972072
0.968106
0.962413
0.954601
0.944082
0.930087
0.911574
0.887036
0.854442
0.811039
0.75368
0.680328
0.593167
0.496558
0.397073
0.303916
0.2255
0.163868
0.115817
0.0794794
0.0530131
0.034391
0.0217055
0.0133311
0.00796977
0.00463835
0.00262774
0.00144903
0.000777608
0.000405963
0.000206114
0.000101668
4.88099e-05
2.28298e-05
1.04064e-05
4.62398e-06
2.00348e-06
8.46744e-07
3.49186e-07
1.40547e-07
5.52277e-08
2.11917e-08
7.94234e-09
2.90803e-09
1.04043e-09
3.6382e-10
1.24372e-10
4.1574e-11
1.35922e-11
4.34737e-12
1.36064e-12
4.16818e-13
1.25009e-13
3.67139e-14
1.05615e-14
2.97662e-15
8.22108e-16
2.22556e-16
5.90682e-17
1.53733e-17
3.92447e-18
9.82849e-19
2.41534e-19
5.82566e-20
1.37932e-20
3.20641e-21
7.31939e-22
1.64097e-22
3.61377e-23
7.81834e-24
1.66196e-24
3.47158e-25
7.12652e-26
1.43782e-26
2.85117e-27
5.55702e-28
1.06444e-28
2.00381e-29
3.70594e-30
6.73366e-31
1.20095e-31
2.10287e-32
3.60678e-33
6.06531e-34
9.93953e-35
1.59186e-35
2.44832e-36
3.61245e-37
0.00272568
0.00840514
0.0242789
0.0586174
0.130821
0.208496
0.283715
0.357351
0.396424
0.42889
0.43005
0.42413
0.409062
0.37892
0.336166
0.279754
0.212515
0.145804
0.0904894
0.0508972
0.0336694
0.0202878
0.00697759
0.00674365
0.097318
0.40651
0.592441
0.696512
0.74654
0.771023
0.782395
0.785439
0.78572
0.784919
0.781362
0.771856
0.75599
0.735922
0.722721
0.710666
0.704034
0.698881
0.696796
0.696194
0.696913
0.700733
0.703065
0.710004
0.719297
0.725407
0.731172
0.734717
0.738459
0.743978
0.746185
0.747151
0.747324
0.747262
0.74699
0.746173
0.744341
0.741304
0.738727
0.737911
0.737652
0.737512
0.737419
0.737272
0.737486
0.739157
0.741482
0.743333
0.745552
0.749104
0.753394
0.758552
0.765158
0.773608
0.78414
0.797719
0.814414
0.832953
0.854151
0.876319
0.899012
0.920496
0.93865
0.952652
0.964692
0.974307
0.981534
0.986842
0.990596
0.993095
0.994635
0.995521
0.995995
0.996135
0.995883
0.994845
0.99302
0.990269
0.986179
0.979897
0.969256
0.949477
0.912518
0.848853
0.752868
0.630101
0.496538
0.370168
0.265664
0.185311
0.125299
0.0821337
0.0522295
0.0322399
0.0193273
0.0112563
0.00636977
0.0035022
0.00187049
0.000970225
0.000488516
0.000238702
0.000113194
5.2092e-05
2.3285e-05
1.01343e-05
4.29736e-06
1.7765e-06
7.16342e-07
2.81891e-07
1.08303e-07
4.06416e-08
1.49013e-08
5.34006e-09
1.87095e-09
6.41052e-10
2.14857e-10
7.04587e-11
2.26126e-11
7.10382e-12
2.185e-12
6.58139e-13
1.94169e-13
5.61205e-14
1.58938e-14
4.41142e-15
1.2002e-15
3.20139e-16
8.37354e-17
2.14806e-17
5.4054e-18
1.33452e-18
3.23301e-19
7.68666e-20
1.79382e-20
4.10949e-21
9.24324e-22
2.04147e-22
4.42783e-23
9.43237e-24
1.97364e-24
4.05667e-25
8.19102e-26
1.62482e-26
3.16612e-27
6.06094e-28
1.13945e-28
2.10405e-29
3.81267e-30
6.78286e-31
1.18196e-31
2.02019e-32
3.36682e-33
5.49163e-34
8.63652e-35
1.31809e-35
0.00909053
0.0261511
0.0773363
0.194447
0.371523
0.500195
0.54744
0.566563
0.564322
0.552944
0.539619
0.523562
0.511556
0.492524
0.462438
0.421051
0.36362
0.284472
0.191951
0.107369
0.0483549
0.0189713
0.0336248
0.226517
0.560018
0.68726
0.74315
0.768106
0.776745
0.778693
0.777229
0.766611
0.746129
0.711604
0.687278
0.662966
0.65131
0.646222
0.644507
0.644517
0.648364
0.653973
0.660278
0.669047
0.675757
0.680424
0.688398
0.695779
0.701726
0.708622
0.715171
0.719776
0.723506
0.727523
0.72964
0.730438
0.730763
0.730842
0.730641
0.729288
0.726151
0.720921
0.713961
0.7109
0.710225
0.710155
0.710556
0.711985
0.714577
0.717426
0.718877
0.719908
0.720923
0.72192
0.722359
0.722445
0.72384
0.72555
0.728214
0.730623
0.73307
0.736685
0.741757
0.749462
0.761207
0.778184
0.80184
0.831684
0.863778
0.895755
0.924673
0.947973
0.96533
0.978306
0.987117
0.992511
0.995573
0.997213
0.998101
0.998586
0.998858
0.999002
0.999037
0.999002
0.998802
0.998248
0.997064
0.994631
0.989446
0.977732
0.948851
0.872416
0.743156
0.592306
0.442232
0.314278
0.21546
0.142622
0.0912638
0.0565095
0.0338791
0.0196737
0.0110671
0.00603055
0.0031828
0.0016269
0.000805424
0.000386276
0.000179522
8.08767e-05
3.53383e-05
1.49992e-05
6.19566e-06
2.49251e-06
9.77251e-07
3.73648e-07
1.39396e-07
5.07675e-08
1.8058e-08
6.27596e-09
2.13196e-09
7.08139e-10
2.30055e-10
7.31219e-11
2.27449e-11
6.92553e-12
2.06472e-12
6.02854e-13
1.72425e-13
4.83194e-14
1.32698e-14
3.57205e-15
9.42685e-16
2.43947e-16
6.19135e-17
1.54139e-17
3.76483e-18
9.02303e-19
2.12225e-19
4.89936e-20
1.11029e-20
2.47029e-21
5.3966e-22
1.15772e-22
2.4391e-23
5.04706e-24
1.02574e-24
2.04765e-25
4.0147e-26
7.73147e-27
1.46199e-27
2.71489e-28
4.94695e-29
8.84761e-30
1.5502e-30
2.66298e-31
4.46504e-32
7.32208e-33
1.16285e-33
1.79387e-34
0.0190837
0.0630462
0.201539
0.468097
0.58133
0.613479
0.610188
0.599884
0.581584
0.544809
0.51408
0.495746
0.484049
0.473214
0.454183
0.421004
0.367368
0.284656
0.187177
0.0951974
0.0406735
0.061246
0.282603
0.616157
0.722841
0.760403
0.77297
0.775715
0.773269
0.762846
0.736064
0.688443
0.662217
0.645852
0.638374
0.635301
0.634932
0.638105
0.64265
0.646648
0.653179
0.658752
0.664993
0.671846
0.674681
0.676403
0.678709
0.680853
0.682618
0.683919
0.685129
0.686782
0.68901
0.693412
0.696215
0.699993
0.702759
0.707773
0.710677
0.712078
0.712485
0.711116
0.705028
0.702011
0.701573
0.702048
0.703804
0.707707
0.714209
0.722078
0.725245
0.725839
0.724975
0.723938
0.721992
0.720059
0.719241
0.719537
0.722131
0.724679
0.72655
0.727338
0.727569
0.728005
0.729261
0.732611
0.739264
0.750649
0.767882
0.791556
0.820862
0.854556
0.890095
0.923693
0.952376
0.972413
0.984578
0.991707
0.995583
0.997596
0.998607
0.999111
0.999381
0.999539
0.999631
0.999668
0.99967
0.999643
0.999521
0.999148
0.998114
0.995339
0.987905
0.967033
0.903761
0.751153
0.578548
0.418818
0.289548
0.192391
0.12309
0.0759256
0.0451864
0.0259568
0.0143951
0.00770853
0.00398683
0.00199224
0.000962382
0.000449724
0.000203477
8.92036e-05
3.79192e-05
1.56581e-05
6.29022e-06
2.46032e-06
9.37625e-07
3.48388e-07
1.26285e-07
4.46808e-08
1.54376e-08
5.21089e-09
1.71905e-09
5.54452e-10
1.74897e-10
5.39728e-11
1.62993e-11
4.81819e-12
1.39454e-12
3.9529e-13
1.0976e-13
2.98618e-14
7.96206e-15
2.08097e-15
5.33244e-16
1.33995e-16
3.30243e-17
7.98427e-18
1.89392e-18
4.40842e-19
1.00707e-19
2.25815e-20
4.97069e-21
1.07424e-21
2.27954e-22
4.75e-23
9.71966e-24
1.95321e-24
3.85442e-25
7.46962e-26
1.4212e-26
2.65487e-27
4.86612e-28
8.75183e-29
1.54228e-29
2.66343e-30
4.49359e-31
7.41009e-32
1.18743e-32
1.84931e-33
0.0302792
0.127327
0.437583
0.599483
0.637718
0.631735
0.612205
0.562007
0.48747
0.390255
0.320345
0.293857
0.306395
0.337423
0.380158
0.383308
0.349664
0.261681
0.138219
0.0672822
0.0779225
0.2746
0.624923
0.735693
0.767182
0.774768
0.775072
0.767755
0.747051
0.701039
0.66118
0.642547
0.633626
0.630176
0.629424
0.629729
0.631849
0.635137
0.637539
0.63852
0.638651
0.634356
0.628054
0.620146
0.612642
0.606746
0.604186
0.603466
0.605705
0.611458
0.613938
0.61602
0.621413
0.626402
0.628333
0.630669
0.633473
0.636314
0.639826
0.643272
0.646985
0.652756
0.657072
0.664118
0.668062
0.674108
0.681085
0.690994
0.705171
0.723204
0.732898
0.736892
0.738268
0.737093
0.729408
0.721059
0.717555
0.716135
0.716242
0.720382
0.725329
0.728836
0.730376
0.730295
0.729038
0.728755
0.731064
0.736479
0.746094
0.761897
0.784062
0.810205
0.837832
0.865572
0.894655
0.925711
0.954282
0.974866
0.98682
0.993301
0.996647
0.998295
0.999082
0.999457
0.999645
0.999751
0.999818
0.999855
0.999867
0.999866
0.999846
0.999758
0.999455
0.998478
0.995393
0.985724
0.954799
0.851641
0.660803
0.480234
0.331659
0.219266
0.13904
0.0846774
0.0495714
0.0279133
0.0151275
0.00789585
0.00397241
0.00192817
0.000903922
0.000409742
0.000179806
7.6455e-05
3.15453e-05
1.26504e-05
4.93536e-06
1.87472e-06
6.93862e-07
2.50388e-07
8.81472e-08
3.02891e-08
1.01637e-08
3.33187e-09
1.0675e-09
3.34383e-10
1.02439e-10
3.07021e-11
9.00496e-12
2.5854e-12
7.26811e-13
2.00113e-13
5.39757e-14
1.42656e-14
3.69528e-15
9.3835e-16
2.3363e-16
5.70455e-17
1.36622e-17
3.20994e-18
7.39988e-19
1.67404e-19
3.71691e-20
8.10078e-21
1.73318e-21
3.64062e-22
7.50831e-23
1.52044e-23
3.02302e-24
5.90151e-25
1.13097e-25
2.12761e-26
3.92706e-27
7.11089e-28
1.26185e-28
2.19379e-29
3.72908e-30
6.19522e-31
1.00269e-31
1.57917e-32
0.0413389
0.220133
0.559579
0.646003
0.647492
0.624272
0.550668
0.398392
0.22556
0.142738
0.108744
0.104476
0.127145
0.188431
0.290127
0.329739
0.292145
0.157927
0.0947346
0.0943732
0.245947
0.612556
0.736737
0.770114
0.776637
0.775653
0.766452
0.739135
0.684133
0.651478
0.635858
0.628852
0.625915
0.624757
0.62394
0.622845
0.621574
0.617312
0.605819
0.586089
0.570748
0.559793
0.555385
0.5544
0.554958
0.559567
0.563233
0.569913
0.578654
0.587262
0.594459
0.598354
0.605874
0.61349
0.617454
0.619541
0.62105
0.621599
0.621681
0.621629
0.621402
0.621325
0.621839
0.623287
0.627351
0.634195
0.64412
0.656741
0.673142
0.696176
0.724084
0.738191
0.744051
0.745946
0.744646
0.736764
0.727438
0.719501
0.714756
0.712502
0.714588
0.720758
0.728827
0.735061
0.738102
0.738978
0.736843
0.737348
0.742881
0.754633
0.772672
0.797512
0.826461
0.85465
0.879289
0.90146
0.92358
0.946435
0.967519
0.982579
0.991332
0.995818
0.998025
0.999055
0.999517
0.999723
0.999823
0.99988
0.999915
0.999935
0.999942
0.999942
0.999933
0.999892
0.999731
0.999144
0.99708
0.98994
0.965498
0.880303
0.681737
0.489497
0.333511
0.216777
0.134679
0.0800908
0.0456429
0.0249558
0.0131071
0.00662129
0.00322171
0.00151203
0.000685467
0.000300595
0.000127656
5.25798e-05
2.10351e-05
8.18182e-06
3.09684e-06
1.14153e-06
4.10071e-07
1.43647e-07
4.90956e-08
1.638e-08
5.33709e-09
1.69902e-09
5.28644e-10
1.60825e-10
4.78538e-11
1.39313e-11
3.96922e-12
1.1071e-12
3.02378e-13
8.08934e-14
2.12022e-14
5.4457e-15
1.37097e-15
3.38375e-16
8.18927e-17
1.9438e-17
4.52578e-18
1.03381e-18
2.31719e-19
5.09699e-20
1.10039e-20
2.33187e-21
4.85086e-22
9.90637e-23
1.98604e-23
3.90876e-24
7.5511e-25
1.43174e-25
2.66343e-26
4.86006e-27
8.69237e-28
1.52309e-28
2.61107e-29
4.37631e-30
7.1591e-31
1.14144e-31
0.0522617
0.315195
0.611307
0.660863
0.647451
0.575602
0.426503
0.221186
0.105829
0.0683822
0.0593647
0.0662906
0.104572
0.170562
0.206882
0.210278
0.147181
0.114316
0.117924
0.241786
0.593189
0.731259
0.770351
0.777963
0.777434
0.768387
0.739441
0.677824
0.646465
0.632309
0.626002
0.62302
0.620633
0.617297
0.61143
0.601345
0.581587
0.556916
0.540964
0.533723
0.530404
0.529322
0.529323
0.530339
0.532378
0.536985
0.541418
0.546122
0.556156
0.56589
0.574233
0.584651
0.593629
0.605452
0.615356
0.620694
0.624892
0.627234
0.627999
0.626744
0.623646
0.621043
0.620148
0.61985
0.621338
0.624819
0.633088
0.646597
0.662587
0.682822
0.707146
0.732357
0.751889
0.766139
0.77602
0.780457
0.778759
0.770588
0.755685
0.735956
0.718761
0.714028
0.716891
0.725266
0.73705
0.747187
0.756711
0.760305
0.758558
0.759839
0.770714
0.791692
0.820001
0.852127
0.880948
0.901746
0.919143
0.93702
0.954092
0.969521
0.981995
0.990531
0.995427
0.99792
0.999075
0.999583
0.999795
0.999883
0.999926
0.99995
0.999965
0.999972
0.999974
0.999973
0.999965
0.999928
0.999778
0.999199
0.997036
0.989138
0.960855
0.859018
0.64493
0.451248
0.299296
0.18885
0.113595
0.0652569
0.0358661
0.0188936
0.00955663
0.00464988
0.00218017
0.000986693
0.000431712
0.000182856
7.50964e-05
2.99409e-05
1.16009e-05
4.37223e-06
1.60414e-06
5.73346e-07
1.99759e-07
6.78828e-08
2.25113e-08
7.28844e-09
2.3049e-09
7.12248e-10
2.15146e-10
6.35502e-11
1.83622e-11
5.19155e-12
1.43669e-12
3.89267e-13
1.03293e-13
2.68497e-14
6.83855e-15
1.70703e-15
4.17701e-16
1.00213e-16
2.35777e-17
5.44096e-18
1.23173e-18
2.73584e-19
5.96286e-20
1.27543e-20
2.67753e-21
5.51716e-22
1.11586e-22
2.21521e-23
4.31612e-24
8.25282e-25
1.54819e-25
2.8487e-26
5.13842e-27
9.08136e-28
1.57118e-28
2.65908e-29
4.39847e-30
7.10282e-31
0.0607129
0.358736
0.633185
0.666473
0.641448
0.546577
0.361085
0.153553
0.0765438
0.0585354
0.0574401
0.0669924
0.0932686
0.122094
0.130725
0.129662
0.122855
0.140935
0.253399
0.578638
0.723446
0.768558
0.778606
0.779035
0.772053
0.747113
0.689263
0.650771
0.6343
0.626619
0.622145
0.618138
0.612312
0.601464
0.579905
0.549445
0.528632
0.518909
0.514259
0.509551
0.502849
0.498234
0.490697
0.484353
0.47791
0.473365
0.471571
0.473324
0.481362
0.493498
0.504252
0.521687
0.53865
0.558305
0.57762
0.602546
0.616219
0.62744
0.632164
0.633637
0.633586
0.629095
0.623859
0.621375
0.62072
0.621473
0.62704
0.639783
0.657189
0.678156
0.700908
0.72742
0.754246
0.775019
0.786643
0.792152
0.793616
0.794102
0.795301
0.792794
0.781021
0.755909
0.733293
0.723627
0.729228
0.74294
0.759781
0.778995
0.797359
0.805223
0.803267
0.802782
0.818085
0.848431
0.882635
0.912839
0.93034
0.940599
0.95316
0.966299
0.977698
0.986351
0.992319
0.996037
0.99813
0.999178
0.999654
0.999851
0.999928
0.99996
0.999975
0.999983
0.999987
0.999988
0.999988
0.999986
0.999974
0.999921
0.999705
0.998847
0.995552
0.983204
0.937831
0.781316
0.557519
0.375107
0.239106
0.144768
0.0834658
0.0459363
0.0241904
0.012217
0.00593
0.00277204
0.00125027
0.000544976
0.000229924
9.40296e-05
3.73198e-05
1.439e-05
5.39546e-06
1.96876e-06
6.99627e-07
2.42287e-07
8.18162e-08
2.69541e-08
8.66757e-09
2.7218e-09
8.34998e-10
2.50355e-10
7.33887e-11
2.10406e-11
5.90181e-12
1.62013e-12
4.35389e-13
1.14576e-13
2.95332e-14
7.45826e-15
1.84577e-15
4.47742e-16
1.06482e-16
2.48319e-17
5.67946e-18
1.2742e-18
2.80455e-19
6.05679e-20
1.28356e-20
2.66946e-21
5.4485e-22
1.0914e-22
2.14546e-23
4.13857e-24
7.83226e-25
1.45386e-25
2.64597e-26
4.71924e-27
8.24389e-28
1.40958e-28
2.35825e-29
3.85755e-30
0.0640477
0.375043
0.641523
0.673806
0.644412
0.535466
0.335299
0.141462
0.0792972
0.0642616
0.0625125
0.0695076
0.0892988
0.107141
0.117722
0.132227
0.161709
0.280097
0.578353
0.717316
0.765688
0.77834
0.779768
0.775143
0.754298
0.703032
0.655565
0.635579
0.626277
0.62006
0.613172
0.605445
0.592646
0.570774
0.539553
0.514808
0.504291
0.49809
0.485214
0.470852
0.451326
0.427562
0.399972
0.379378
0.363096
0.355829
0.353684
0.3598
0.371783
0.390175
0.409983
0.439253
0.461934
0.484884
0.504413
0.526116
0.555984
0.587664
0.61534
0.629982
0.634693
0.634863
0.625987
0.621814
0.620229
0.620215
0.622515
0.629044
0.638837
0.656109
0.679504
0.706286
0.736681
0.76216
0.773544
0.774532
0.7658
0.759619
0.770738
0.787788
0.796471
0.79649
0.786857
0.771445
0.756684
0.753188
0.760014
0.780479
0.806349
0.83567
0.861613
0.872544
0.86752
0.864452
0.880824
0.91312
0.940792
0.957429
0.963767
0.969878
0.978016
0.985709
0.99147
0.995231
0.997483
0.998754
0.999425
0.999753
0.999899
0.999957
0.99998
0.999989
0.999993
0.999995
0.999995
0.999995
0.999994
0.999989
0.999964
0.999858
0.999422
0.99768
0.990901
0.965148
0.868502
0.640717
0.435116
0.278595
0.168908
0.0972979
0.0534162
0.0280292
0.0140953
0.00680957
0.00316738
0.00142122
0.000616225
0.000258594
0.00010517
4.15021e-05
1.59075e-05
5.92768e-06
2.14914e-06
7.58676e-07
2.60941e-07
8.7494e-08
2.86156e-08
9.13341e-09
2.84625e-09
8.66383e-10
2.57706e-10
7.49343e-11
2.13078e-11
5.92716e-12
1.61341e-12
4.29899e-13
1.1216e-13
2.86598e-14
7.17441e-15
1.75988e-15
4.23116e-16
9.9726e-17
2.30471e-17
5.22347e-18
1.1612e-18
2.53236e-19
5.41828e-20
1.13752e-20
2.34338e-21
4.73727e-22
9.39738e-23
1.82915e-23
3.493e-24
6.54281e-25
1.20179e-25
2.16382e-26
3.81758e-27
6.59663e-28
1.11633e-28
1.84956e-29
0.0566711
0.362374
0.643567
0.679414
0.66192
0.587327
0.434221
0.218704
0.118899
0.0877703
0.0810345
0.0820069
0.0986774
0.121125
0.146477
0.204364
0.343394
0.596563
0.716138
0.762749
0.776963
0.77936
0.777543
0.763885
0.725722
0.668796
0.6424
0.62968
0.621724
0.615239
0.60764
0.593574
0.569066
0.534379
0.503544
0.486441
0.474098
0.451214
0.421493
0.391235
0.357452
0.317625
0.289083
0.26933
0.258227
0.254236
0.254459
0.271607
0.288184
0.320559
0.357191
0.396337
0.430429
0.458947
0.481818
0.498886
0.516219
0.535612
0.56011
0.598376
0.629353
0.638764
0.637041
0.626402
0.622352
0.622024
0.626019
0.632543
0.637261
0.643269
0.652575
0.665032
0.681424
0.70335
0.714128
0.710609
0.697913
0.682523
0.6725
0.68425
0.715327
0.750326
0.776122
0.784865
0.788171
0.793378
0.80192
0.806872
0.81501
0.839948
0.872143
0.903839
0.927176
0.934192
0.928406
0.926797
0.941811
0.964611
0.9777
0.982276
0.984747
0.988323
0.992229
0.995334
0.997411
0.998652
0.999338
0.999692
0.999864
0.999943
0.999977
0.99999
0.999996
0.999998
0.999998
0.999999
0.999998
0.999998
0.999995
0.99998
0.999915
0.999637
0.998492
0.993889
0.975856
0.90675
0.697695
0.473219
0.302504
0.182732
0.104722
0.0571466
0.0297917
0.0148808
0.00714023
0.00329867
0.00147012
0.000633126
0.000263886
0.000106587
4.17685e-05
1.58961e-05
5.8805e-06
2.11624e-06
7.41405e-07
2.53028e-07
8.4171e-08
2.73073e-08
8.64449e-09
2.67148e-09
8.06325e-10
2.37792e-10
6.85462e-11
1.93211e-11
5.32716e-12
1.4372e-12
3.79517e-13
9.81224e-14
2.48455e-14
6.16284e-15
1.49788e-15
3.56809e-16
8.33197e-17
1.90765e-17
4.28319e-18
9.4324e-19
2.03762e-19
4.31834e-20
8.97932e-21
1.83199e-21
3.66746e-22
7.20366e-23
1.3882e-23
2.62422e-24
4.86537e-25
8.84459e-26
1.57616e-26
2.75263e-27
4.71157e-28
7.90501e-29
0.041949
0.295655
0.626459
0.686191
0.685706
0.647187
0.553424
0.407838
0.252345
0.179941
0.153032
0.146401
0.162562
0.216129
0.300942
0.454409
0.632749
0.720917
0.760485
0.774463
0.777555
0.777546
0.767654
0.737059
0.68546
0.651904
0.636632
0.628081
0.620016
0.610883
0.597495
0.575655
0.545227
0.512009
0.483753
0.46332
0.43898
0.406946
0.367803
0.324916
0.287481
0.252356
0.223247
0.203982
0.190734
0.184465
0.182574
0.189882
0.205216
0.229886
0.267209
0.320843
0.384066
0.439906
0.472233
0.492848
0.50947
0.527431
0.545629
0.565669
0.597238
0.638011
0.65533
0.654414
0.641673
0.636931
0.645567
0.668863
0.68542
0.688893
0.683566
0.676062
0.674547
0.683451
0.689301
0.687856
0.683061
0.671467
0.650164
0.633675
0.628666
0.63288
0.651569
0.686728
0.731078
0.778206
0.814604
0.845789
0.868748
0.875601
0.882132
0.907169
0.936654
0.959466
0.971045
0.973155
0.970689
0.971837
0.982126
0.990205
0.993586
0.995038
0.995995
0.997028
0.998032
0.998839
0.999376
0.99969
0.999857
0.999938
0.999974
0.99999
0.999996
0.999998
0.999999
1
1
1
0.999999
0.999997
0.999986
0.999936
0.99972
0.9988
0.994994
0.979675
0.919669
0.721355
0.486558
0.308775
0.184977
0.105068
0.0568146
0.029351
0.0145309
0.00691217
0.00316642
0.00139953
0.000597808
0.000247137
9.90089e-05
3.84818e-05
1.45245e-05
5.32829e-06
1.90131e-06
6.60402e-07
2.23427e-07
7.3671e-08
2.36883e-08
7.43143e-09
2.27575e-09
6.80592e-10
1.98859e-10
5.67907e-11
1.58579e-11
4.33118e-12
1.15746e-12
3.02747e-13
7.75283e-14
1.94433e-14
4.77665e-15
1.14982e-15
2.71259e-16
6.27314e-17
1.42238e-17
3.16267e-18
6.89708e-19
1.4754e-19
3.09624e-20
6.37487e-21
1.28778e-21
2.5524e-22
4.9634e-23
9.46877e-24
1.77196e-24
3.25219e-25
5.85379e-26
1.03314e-26
1.78831e-27
3.03731e-28
0.0199098
0.192275
0.576778
0.689376
0.697999
0.685675
0.644852
0.567316
0.472807
0.411181
0.376986
0.365451
0.38901
0.479542
0.558521
0.662454
0.729684
0.758992
0.771357
0.775249
0.776138
0.771045
0.749408
0.700414
0.659779
0.640495
0.630628
0.6238
0.616403
0.60563
0.590003
0.564326
0.527837
0.488865
0.455324
0.428202
0.392068
0.349736
0.308745
0.266798
0.229538
0.2008
0.17704
0.161664
0.154676
0.152271
0.154409
0.157232
0.170886
0.192435
0.221026
0.263834
0.325874
0.399918
0.461255
0.490653
0.506195
0.525368
0.552225
0.568839
0.586096
0.617275
0.655053
0.674317
0.679942
0.677178
0.678275
0.690053
0.714645
0.742617
0.761524
0.769298
0.766286
0.755315
0.741968
0.72607
0.711926
0.704205
0.690494
0.663791
0.640522
0.624902
0.61442
0.61015
0.613869
0.639495
0.712294
0.809238
0.876178
0.913768
0.933315
0.936352
0.942315
0.963937
0.980606
0.988628
0.991492
0.991958
0.991963
0.99396
0.996946
0.998251
0.998838
0.999133
0.999317
0.999473
0.999637
0.999781
0.999883
0.999944
0.999975
0.99999
0.999996
0.999998
0.999999
1
1
1
1
0.999999
0.999997
0.999988
0.999942
0.999737
0.998843
0.995051
0.979452
0.917293
0.712283
0.474985
0.297824
0.176244
0.0989071
0.0528631
0.0270063
0.0132282
0.00622837
0.00282511
0.00123675
0.000523339
0.000214346
8.50724e-05
3.27542e-05
1.22456e-05
4.4497e-06
1.57271e-06
5.41047e-07
1.81287e-07
5.91974e-08
1.8849e-08
5.85534e-09
1.77544e-09
5.25715e-10
1.52081e-10
4.29987e-11
1.18867e-11
3.214e-12
8.50278e-13
2.20164e-13
5.58124e-14
1.38561e-14
3.3697e-15
8.02956e-16
1.87518e-16
4.29277e-17
9.6352e-18
2.12075e-18
4.57816e-19
9.69447e-20
2.01387e-20
4.10442e-21
8.2073e-22
1.61023e-22
3.09958e-23
5.8538e-24
1.08456e-24
1.97138e-25
3.5153e-26
6.15144e-27
1.05716e-27
0.00731311
0.0928485
0.434047
0.673219
0.704107
0.705097
0.69466
0.668095
0.620022
0.582693
0.567939
0.564469
0.591513
0.648483
0.687715
0.73626
0.75772
0.767374
0.771509
0.773157
0.769964
0.75588
0.721707
0.683215
0.653227
0.6375
0.628689
0.621937
0.615189
0.605929
0.591014
0.56629
0.529937
0.489777
0.453846
0.423405
0.388052
0.343194
0.299475
0.259853
0.22445
0.195845
0.174945
0.158903
0.149603
0.144074
0.143892
0.148359
0.160059
0.18221
0.209548
0.247592
0.306195
0.382858
0.451864
0.49273
0.505342
0.519823
0.550232
0.591459
0.607606
0.615259
0.642587
0.669065
0.685498
0.692527
0.694595
0.696809
0.708323
0.738402
0.766483
0.787849
0.806784
0.824494
0.840121
0.847614
0.843852
0.834574
0.831428
0.825662
0.809401
0.77859
0.72816
0.663782
0.617682
0.600945
0.606823
0.650389
0.783167
0.894255
0.943427
0.966039
0.974425
0.976765
0.985136
0.993234
0.996622
0.997741
0.998205
0.998679
0.999121
0.999441
0.999638
0.999751
0.999816
0.999858
0.999892
0.999921
0.999947
0.999968
0.999983
0.999992
0.999997
0.999999
0.999999
1
1
1
1
1
0.999999
0.999997
0.999986
0.999935
0.9997
0.998654
0.994139
0.975309
0.89957
0.67233
0.441212
0.272262
0.158652
0.0877498
0.0462646
0.0233344
0.0112919
0.00525559
0.00235749
0.00102095
0.000427481
0.000173278
6.80711e-05
2.59415e-05
9.59878e-06
3.45139e-06
1.20691e-06
4.10767e-07
1.36167e-07
4.3992e-08
1.38589e-08
4.25956e-09
1.27787e-09
3.74366e-10
1.07147e-10
2.99724e-11
8.19753e-12
2.19293e-12
5.73981e-13
1.47042e-13
3.68798e-14
9.05868e-15
2.17965e-15
5.13884e-16
1.18741e-16
2.68959e-17
5.97322e-18
1.3009e-18
2.77885e-19
5.8227e-20
1.19695e-20
2.41407e-21
4.77731e-22
9.27651e-23
1.76758e-23
3.30497e-24
6.06464e-25
1.09223e-25
1.9314e-26
3.35676e-27
0.00170474
0.0257883
0.180838
0.567853
0.699968
0.71363
0.713342
0.706859
0.697607
0.683676
0.674169
0.671951
0.686693
0.71647
0.735347
0.755069
0.762486
0.765923
0.767201
0.761741
0.745398
0.714458
0.678832
0.655054
0.641138
0.63345
0.626927
0.62127
0.615618
0.608161
0.596226
0.574551
0.540576
0.499821
0.461095
0.429458
0.396134
0.353198
0.309502
0.270138
0.235214
0.206126
0.184758
0.169161
0.15865
0.154606
0.156249
0.161884
0.173233
0.197553
0.229938
0.262801
0.312729
0.385803
0.454331
0.497073
0.516152
0.523214
0.541028
0.587569
0.629734
0.645028
0.646642
0.659776
0.672978
0.683352
0.691009
0.696176
0.697672
0.701064
0.712158
0.731234
0.763374
0.803134
0.839709
0.870069
0.893369
0.91324
0.931279
0.944942
0.952542
0.953694
0.946578
0.915794
0.816919
0.687415
0.621265
0.61802
0.659884
0.797249
0.913832
0.963892
0.98294
0.990832
0.994822
0.997352
0.998713
0.999308
0.999561
0.999696
0.999788
0.999855
0.9999
0.99993
0.999949
0.999961
0.999971
0.999979
0.999985
0.99999
0.999994
0.999997
0.999998
0.999999
1
1
1
1
1
1
1
0.999999
0.999996
0.999982
0.999911
0.999586
0.998122
0.991757
0.965147
0.857954
0.605512
0.39031
0.236259
0.135246
0.073591
0.0382176
0.0190058
0.00907571
0.0041709
0.00184822
0.000790943
0.000327343
0.000131174
5.09502e-05
1.92004e-05
7.02608e-06
2.49861e-06
8.64122e-07
2.90823e-07
9.53113e-08
3.04373e-08
9.47737e-09
2.87909e-09
8.53798e-10
2.47276e-10
6.99701e-11
1.93517e-11
5.23313e-12
1.38421e-12
3.58247e-13
9.07502e-14
2.25076e-14
5.46703e-15
1.30087e-15
3.03308e-16
6.93116e-17
1.55273e-17
3.41066e-18
7.34709e-19
1.55237e-19
3.21771e-20
6.54361e-21
1.30575e-21
2.5569e-22
4.91392e-23
9.26906e-24
1.71644e-24
3.1208e-25
5.57376e-26
9.79082e-27
0.00404291
0.00385411
0.0458214
0.240336
0.595448
0.702274
0.718923
0.722064
0.721833
0.720678
0.721589
0.724624
0.731523
0.744783
0.752113
0.759202
0.761269
0.761384
0.757211
0.746019
0.72512
0.694904
0.662244
0.637976
0.624699
0.618934
0.617398
0.616624
0.614298
0.609605
0.603542
0.593556
0.572328
0.535617
0.488362
0.450275
0.418196
0.380428
0.339967
0.300945
0.266369
0.237727
0.214225
0.200258
0.188159
0.187838
0.190958
0.199597
0.215468
0.247383
0.287058
0.327841
0.388223
0.455245
0.500019
0.522791
0.534353
0.540173
0.548974
0.579925
0.626172
0.66258
0.677744
0.677833
0.677024
0.675994
0.676623
0.681928
0.688756
0.689433
0.686993
0.674904
0.655335
0.657948
0.710412
0.787047
0.852738
0.900231
0.933598
0.956511
0.971392
0.979296
0.981627
0.980375
0.970268
0.917872
0.759658
0.670981
0.666686
0.731786
0.86343
0.943982
0.979451
0.992395
0.997109
0.99889
0.999552
0.999797
0.99989
0.999929
0.999951
0.999965
0.999976
0.999982
0.999987
0.99999
0.999993
0.999995
0.999996
0.999998
0.999998
0.999999
0.999999
1
1
1
1
1
1
1
1
1
0.999999
0.999994
0.99997
0.999857
0.999329
0.996954
0.986666
0.943998
0.779881
0.525401
0.330255
0.195669
0.10988
0.0587522
0.0300239
0.0147084
0.00692461
0.00313942
0.00137301
0.000580117
0.000237099
9.38451e-05
3.60087e-05
1.34066e-05
4.84749e-06
1.70349e-06
5.82244e-07
1.93687e-07
6.27481e-08
1.98085e-08
6.09657e-09
1.83031e-09
5.36287e-10
1.53437e-10
4.28879e-11
1.17171e-11
3.13034e-12
8.18127e-13
2.09239e-13
5.23829e-14
1.28405e-14
3.0828e-15
7.25091e-16
1.67121e-16
3.77544e-17
8.36171e-18
1.81596e-18
3.86796e-19
8.08167e-20
1.65665e-20
3.3323e-21
6.57805e-22
1.27458e-22
2.42448e-23
4.52863e-24
8.3082e-25
1.4978e-25
2.6573e-26
0.020636
0.00183948
0.00784822
0.0595767
0.247578
0.573912
0.694674
0.719351
0.725505
0.728667
0.732136
0.73715
0.743741
0.752143
0.757253
0.760348
0.761206
0.761053
0.756994
0.746215
0.72619
0.697307