/*--------------------------------*- C++ -*----------------------------------*\
  =========                 |
  \\      /  F ield         | OpenFOAM: The Open Source CFD Toolbox
   \\    /   O peration     | Website:  https://openfoam.org
    \\  /    A nd           | Version:  9
     \\/     M anipulation  |
\*---------------------------------------------------------------------------*/
FoamFile
{
    format      ascii;
    class       volVectorField;
    location    "0.023";
    object      UMean;
}
// * * * * * * * * * * * * * * * * * * * * * * * * * * * * * * * * * * * * * //

dimensions      [0 1 -1 0 0 0 0];

internalField   nonuniform List<vector> 
12225
(
(9.85975 0.0484331 0)
(9.56507 0.0648476 0)
(9.2661 0.0624233 0)
(8.96307 0.0605747 0)
(8.66462 0.059719 0)
(8.37673 0.0587021 0)
(8.09952 0.0571454 0)
(7.8339 0.0556602 0)
(7.57525 0.0539806 0)
(7.32812 0.0529491 0)
(7.08249 0.051622 0)
(6.85268 0.0516214 0)
(6.61157 0.051142 0)
(6.3983 0.0527344 0)
(6.14253 0.0541855 0)
(5.94855 0.0574351 0)
(5.63994 0.0673701 0)
(5.47041 0.0742659 0)
(9.98468 0.0488429 0)
(10.0463 0.0706448 0)
(10.0863 0.0701592 0)
(10.1013 0.0719331 0)
(10.0989 0.0756058 0)
(10.0865 0.0787032 0)
(10.0656 0.0810903 0)
(10.0384 0.0835841 0)
(10.0026 0.0861523 0)
(9.96174 0.0890702 0)
(9.91159 0.0917577 0)
(9.85925 0.0951892 0)
(9.7951 0.098686 0)
(9.73295 0.104066 0)
(9.65141 0.110731 0)
(9.57827 0.120529 0)
(9.47197 0.138476 0)
(9.38428 0.161014 0)
(10.0195 0.0340753 0)
(10.052 0.0559221 0)
(10.0807 0.0581406 0)
(10.0984 0.0601354 0)
(10.1082 0.0645387 0)
(10.1146 0.0689582 0)
(10.1194 0.0723161 0)
(10.1232 0.0755429 0)
(10.1256 0.0785924 0)
(10.1268 0.0823475 0)
(10.1259 0.0860227 0)
(10.123 0.0910767 0)
(10.1171 0.0965051 0)
(10.108 0.104481 0)
(10.0956 0.114363 0)
(10.0794 0.128536 0)
(10.0626 0.1504 0)
(10.0455 0.177866 0)
(10.0101 0.0252399 0)
(10.0292 0.054239 0)
(10.0495 0.0599497 0)
(10.0631 0.0628298 0)
(10.0704 0.0677696 0)
(10.0751 0.0728748 0)
(10.0792 0.0769937 0)
(10.0827 0.0806256 0)
(10.0853 0.0842646 0)
(10.0864 0.0882732 0)
(10.0859 0.0927458 0)
(10.0837 0.0981173 0)
(10.0797 0.104754 0)
(10.074 0.113308 0)
(10.0669 0.124721 0)
(10.0597 0.139816 0)
(10.0533 0.160438 0)
(10.0517 0.184879 0)
(9.99798 0.026597 0)
(10.0149 0.0493654 0)
(10.0347 0.0560197 0)
(10.05 0.0581854 0)
(10.0592 0.0617434 0)
(10.0646 0.066389 0)
(10.0684 0.0706708 0)
(10.0716 0.0745643 0)
(10.0741 0.0784169 0)
(10.0757 0.0827857 0)
(10.0759 0.0878108 0)
(10.0749 0.0939173 0)
(10.0722 0.101358 0)
(10.0682 0.110704 0)
(10.063 0.122625 0)
(10.0579 0.137672 0)
(10.0531 0.156349 0)
(10.0516 0.177557 0)
(9.99179 0.0170429 0)
(10.0046 0.0408572 0)
(10.0202 0.0519782 0)
(10.0318 0.0571715 0)
(10.038 0.0621711 0)
(10.0413 0.0678876 0)
(10.0438 0.0732847 0)
(10.0458 0.0780154 0)
(10.0472 0.0824382 0)
(10.0477 0.0871916 0)
(10.0472 0.0926846 0)
(10.0459 0.0993392 0)
(10.0436 0.10746 0)
(10.0407 0.117535 0)
(10.0372 0.129912 0)
(10.0341 0.144976 0)
(10.0316 0.162484 0)
(10.0313 0.182068 0)
(10.0023 0.0182534 0)
(10.0137 0.0387382 0)
(10.0282 0.0499861 0)
(10.042 0.055349 0)
(10.0526 0.0592544 0)
(10.0605 0.0637656 0)
(10.0663 0.0687109 0)
(10.0705 0.0735257 0)
(10.073 0.0782012 0)
(10.0742 0.0831635 0)
(10.0743 0.0888665 0)
(10.0737 0.095737 0)
(10.0725 0.104085 0)
(10.0708 0.114292 0)
(10.0688 0.126508 0)
(10.0668 0.141023 0)
(10.0657 0.157438 0)
(10.0657 0.175779 0)
(9.98673 0.011857 0)
(9.99711 0.0306183 0)
(10.0104 0.0439244 0)
(10.0225 0.0511442 0)
(10.0317 0.0562707 0)
(10.0389 0.0619774 0)
(10.045 0.06839 0)
(10.0504 0.0747298 0)
(10.0548 0.0806655 0)
(10.058 0.0865121 0)
(10.06 0.0928176 0)
(10.0613 0.100171 0)
(10.0619 0.108971 0)
(10.0622 0.119572 0)
(10.0622 0.132022 0)
(10.0626 0.146411 0)
(10.0629 0.162361 0)
(10.0648 0.179787 0)
(9.99848 0.0104522 0)
(9.99959 0.0283726 0)
(10.005 0.0419762 0)
(10.012 0.049798 0)
(10.0183 0.054403 0)
(10.0233 0.0587391 0)
(10.0273 0.0638481 0)
(10.0308 0.0695088 0)
(10.0339 0.0752967 0)
(10.0367 0.0812409 0)
(10.0389 0.0876656 0)
(10.0408 0.0950847 0)
(10.0423 0.103854 0)
(10.0439 0.114365 0)
(10.0453 0.126604 0)
(10.0474 0.140712 0)
(10.0495 0.156186 0)
(10.0532 0.173109 0)
(9.98204 0.0152258 0)
(9.98689 0.0281082 0)
(9.99584 0.0391715 0)
(10.0073 0.0465317 0)
(10.0177 0.0519821 0)
(10.025 0.057643 0)
(10.0296 0.0640172 0)
(10.0325 0.0706904 0)
(10.0347 0.0772302 0)
(10.0364 0.0837159 0)
(10.0376 0.0905363 0)
(10.0384 0.0982595 0)
(10.0388 0.107227 0)
(10.0396 0.117792 0)
(10.0406 0.129863 0)
(10.0429 0.143546 0)
(10.0455 0.158319 0)
(10.05 0.174327 0)
(9.97303 0.00572104 0)
(9.97781 0.0224999 0)
(9.98395 0.0324236 0)
(9.99059 0.0406382 0)
(9.99622 0.0478507 0)
(10.0004 0.0543027 0)
(10.004 0.060605 0)
(10.0076 0.0670408 0)
(10.0114 0.073533 0)
(10.0149 0.0801307 0)
(10.0178 0.0870282 0)
(10.0199 0.0946611 0)
(10.0216 0.103281 0)
(10.0231 0.113248 0)
(10.0249 0.124498 0)
(10.0275 0.137269 0)
(10.0311 0.151062 0)
(10.0358 0.166229 0)
(10.032 0.00977847 0)
(10.026 0.0236111 0)
(10.0263 0.033861 0)
(10.0305 0.0417239 0)
(10.0357 0.0479651 0)
(10.0404 0.0537238 0)
(10.0445 0.0597372 0)
(10.0486 0.0661624 0)
(10.0531 0.0728922 0)
(10.058 0.0799398 0)
(10.0625 0.0874674 0)
(10.0665 0.0958104 0)
(10.0695 0.105087 0)
(10.072 0.115454 0)
(10.0742 0.126694 0)
(10.0768 0.138948 0)
(10.0802 0.15177 0)
(10.085 0.165557 0)
(9.95447 0.0149919 0)
(9.95711 0.0174631 0)
(9.96194 0.0283887 0)
(9.96852 0.0380109 0)
(9.97522 0.0449797 0)
(9.98117 0.0509307 0)
(9.98679 0.0567429 0)
(9.99281 0.0625428 0)
(9.99933 0.0684399 0)
(10.006 0.0747996 0)
(10.0123 0.0819462 0)
(10.0181 0.0901721 0)
(10.0234 0.0994146 0)
(10.0286 0.109696 0)
(10.0339 0.120632 0)
(10.04 0.13239 0)
(10.0467 0.144393 0)
(10.0549 0.157265 0)
(10.0073 0.00764259 0)
(10.0128 0.0197467 0)
(10.0175 0.0290192 0)
(10.0215 0.0360003 0)
(10.0266 0.0418346 0)
(10.033 0.0472102 0)
(10.0401 0.0526205 0)
(10.0469 0.0584256 0)
(10.0532 0.0648721 0)
(10.0587 0.0721578 0)
(10.0636 0.0802724 0)
(10.0681 0.0891786 0)
(10.0725 0.0986385 0)
(10.0769 0.108638 0)
(10.0817 0.118857 0)
(10.087 0.129511 0)
(10.0932 0.140137 0)
(10.1003 0.151345 0)
(9.98958 0.00352189 0)
(9.99242 0.0160046 0)
(9.99692 0.0245439 0)
(10.0023 0.0313222 0)
(10.0077 0.0370334 0)
(10.0128 0.042108 0)
(10.0176 0.0472114 0)
(10.0221 0.0528433 0)
(10.0264 0.0590897 0)
(10.0308 0.065945 0)
(10.0355 0.0733835 0)
(10.0408 0.0815479 0)
(10.0469 0.090356 0)
(10.0537 0.0998543 0)
(10.0611 0.109609 0)
(10.0693 0.119749 0)
(10.0781 0.129609 0)
(10.0879 0.139828 0)
(10.0267 0.00925054 0)
(10.0315 0.0142189 0)
(10.0375 0.0211279 0)
(10.0432 0.0288341 0)
(10.0482 0.0354568 0)
(10.0529 0.0408585 0)
(10.0577 0.0459429 0)
(10.0626 0.0514767 0)
(10.0676 0.0576563 0)
(10.0725 0.0643622 0)
(10.0775 0.0713579 0)
(10.0828 0.0786136 0)
(10.0886 0.0860246 0)
(10.0952 0.0937231 0)
(10.1025 0.10145 0)
(10.1107 0.109409 0)
(10.1197 0.11704 0)
(10.1295 0.124903 0)
(9.99759 -0.00639532 0)
(10.001 0.00535103 0)
(10.0057 0.0134847 0)
(10.0109 0.0202576 0)
(10.0161 0.0258953 0)
(10.0215 0.0309706 0)
(10.0275 0.0360619 0)
(10.034 0.0414659 0)
(10.041 0.0472061 0)
(10.0483 0.0532436 0)
(10.056 0.0594679 0)
(10.064 0.0659121 0)
(10.0724 0.072479 0)
(10.0813 0.07927 0)
(10.0906 0.0860378 0)
(10.1007 0.0929495 0)
(10.111 0.0994489 0)
(10.1222 0.106053 0)
(10.0082 0.00306939 0)
(10.005 0.0101349 0)
(10.0036 0.015818 0)
(10.005 0.019842 0)
(10.0091 0.023518 0)
(10.0151 0.027365 0)
(10.0219 0.0312225 0)
(10.0289 0.0350958 0)
(10.0362 0.0392255 0)
(10.0438 0.0438519 0)
(10.0518 0.0489106 0)
(10.0603 0.0542246 0)
(10.069 0.0594545 0)
(10.0782 0.0645113 0)
(10.0877 0.0691336 0)
(10.0979 0.0735831 0)
(10.1083 0.0774824 0)
(10.1195 0.0814577 0)
(9.98867 0.00335536 0)
(9.99375 0.00425942 0)
(9.99968 0.00638905 0)
(10.0055 0.00860148 0)
(10.011 0.010868 0)
(10.0165 0.0129972 0)
(10.0224 0.0152072 0)
(10.0287 0.0179254 0)
(10.0353 0.0212434 0)
(10.0424 0.024955 0)
(10.0501 0.02878 0)
(10.0584 0.0326095 0)
(10.0673 0.0363175 0)
(10.0767 0.0399371 0)
(10.0862 0.0432432 0)
(10.0961 0.0463398 0)
(10.106 0.0488334 0)
(10.1164 0.05109 0)
(9.98938 -0.00858399 0)
(9.99342 -0.00326803 0)
(9.99836 0.00026569 0)
(10.0037 0.0031265 0)
(10.009 0.00582914 0)
(10.014 0.00828506 0)
(10.0193 0.0104957 0)
(10.0254 0.0125457 0)
(10.032 0.0144284 0)
(10.0389 0.0161492 0)
(10.046 0.0177886 0)
(10.0534 0.0195403 0)
(10.061 0.021429 0)
(10.069 0.0234393 0)
(10.0771 0.0252456 0)
(10.0857 0.026764 0)
(10.0945 0.0276052 0)
(10.1038 0.0279876 0)
(10.0007 -0.00558753 0)
(9.99958 -0.0046604 0)
(10.001 -0.00333376 0)
(10.0067 -0.00249801 0)
(10.0145 -0.00168581 0)
(10.0219 -0.000650817 0)
(10.0287 0.000334261 0)
(10.0355 0.00114424 0)
(10.0426 0.00197756 0)
(10.0499 0.00309404 0)
(10.0573 0.00452374 0)
(10.0647 0.00611829 0)
(10.0724 0.00759316 0)
(10.0801 0.00875506 0)
(10.0882 0.00940779 0)
(10.0963 0.00957879 0)
(10.1047 0.00916322 0)
(10.1128 0.00838762 0)
(10.0283 -0.00555191 0)
(10.0279 -0.00876767 0)
(10.0306 -0.00995755 0)
(10.0365 -0.00968332 0)
(10.044 -0.00853991 0)
(10.0516 -0.00714425 0)
(10.0592 -0.00591788 0)
(10.067 -0.00503495 0)
(10.075 -0.00438971 0)
(10.0829 -0.00375706 0)
(10.0909 -0.00302054 0)
(10.0988 -0.00222536 0)
(10.1069 -0.00153933 0)
(10.1152 -0.00109255 0)
(10.1235 -0.000969573 0)
(10.1318 -0.00111229 0)
(10.1399 -0.00155885 0)
(10.1479 -0.00213815 0)
(9.96785 -0.00110602 0)
(9.97591 -0.0100477 0)
(9.98449 -0.0142637 0)
(9.99339 -0.0150302 0)
(10.0025 -0.0148467 0)
(10.0116 -0.0151377 0)
(10.0207 -0.0158111 0)
(10.0297 -0.0162785 0)
(10.0386 -0.0162229 0)
(10.0473 -0.0157434 0)
(10.056 -0.0151618 0)
(10.0649 -0.0147301 0)
(10.0738 -0.0145756 0)
(10.0827 -0.0146657 0)
(10.0913 -0.0150151 0)
(10.0996 -0.0155568 0)
(10.1075 -0.0163953 0)
(10.1151 -0.0174498 0)
(9.98943 -0.0104569 0)
(9.9971 -0.01527 0)
(10.0069 -0.0200598 0)
(10.017 -0.0218835 0)
(10.0271 -0.0218816 0)
(10.0366 -0.0213822 0)
(10.0453 -0.0209774 0)
(10.0532 -0.0207483 0)
(10.0609 -0.020636 0)
(10.0685 -0.0206107 0)
(10.0763 -0.0206751 0)
(10.0844 -0.0207833 0)
(10.0927 -0.0209018 0)
(10.1011 -0.0209921 0)
(10.1095 -0.0211077 0)
(10.1175 -0.0213284 0)
(10.1254 -0.0217966 0)
(10.1327 -0.0226164 0)
(10.018 -0.0161908 0)
(10.0244 -0.0237539 0)
(10.0344 -0.028399 0)
(10.0454 -0.0302788 0)
(10.0549 -0.030773 0)
(10.0628 -0.0308989 0)
(10.0702 -0.030892 0)
(10.078 -0.0307736 0)
(10.0862 -0.0306856 0)
(10.0946 -0.0308072 0)
(10.103 -0.0312294 0)
(10.1117 -0.0319009 0)
(10.1205 -0.0326834 0)
(10.1296 -0.0334253 0)
(10.1389 -0.0340451 0)
(10.148 -0.0345821 0)
(10.157 -0.0351366 0)
(10.1654 -0.0358342 0)
(10.0024 -0.0111472 0)
(10.0126 -0.0248198 0)
(10.0277 -0.0297724 0)
(10.0425 -0.0304417 0)
(10.0549 -0.0300373 0)
(10.0653 -0.0299992 0)
(10.0751 -0.0304127 0)
(10.0849 -0.0309347 0)
(10.0946 -0.031447 0)
(10.1039 -0.0320642 0)
(10.1124 -0.032917 0)
(10.1203 -0.0340192 0)
(10.1277 -0.0352402 0)
(10.1348 -0.0364022 0)
(10.1417 -0.0373629 0)
(10.1486 -0.0380863 0)
(10.1554 -0.0386488 0)
(10.1622 -0.0391458 0)
(9.99296 -0.0263534 0)
(10.0046 -0.0392706 0)
(10.0179 -0.0435057 0)
(10.0284 -0.0436936 0)
(10.0362 -0.0435009 0)
(10.0433 -0.0438227 0)
(10.0512 -0.0441345 0)
(10.0604 -0.0440736 0)
(10.0703 -0.0438021 0)
(10.0804 -0.0436458 0)
(10.09 -0.0437908 0)
(10.0991 -0.0442481 0)
(10.1074 -0.044925 0)
(10.1151 -0.0457166 0)
(10.122 -0.0465498 0)
(10.1286 -0.0473929 0)
(10.1348 -0.0482639 0)
(10.141 -0.0491691 0)
(9.97271 -0.0210302 0)
(9.98611 -0.0326022 0)
(10.0025 -0.0349818 0)
(10.0162 -0.0353822 0)
(10.0263 -0.0363745 0)
(10.0352 -0.0378875 0)
(10.0449 -0.039357 0)
(10.056 -0.0405766 0)
(10.0681 -0.0415822 0)
(10.0804 -0.0424523 0)
(10.0925 -0.0432306 0)
(10.1039 -0.0439753 0)
(10.1146 -0.044681 0)
(10.1242 -0.0453814 0)
(10.1329 -0.0460468 0)
(10.1405 -0.0467714 0)
(10.1475 -0.0475448 0)
(10.1535 -0.0484953 0)
(10.0032 -0.0353834 0)
(10.0415 -0.0515068 0)
(10.0746 -0.052539 0)
(10.0969 -0.0518784 0)
(10.1114 -0.0523138 0)
(10.1212 -0.0533313 0)
(10.1282 -0.0544317 0)
(10.1328 -0.0554091 0)
(10.135 -0.0561708 0)
(10.1352 -0.0567142 0)
(10.1336 -0.057042 0)
(10.1305 -0.0572243 0)
(10.1261 -0.0572688 0)
(10.1209 -0.0572867 0)
(10.1147 -0.0572644 0)
(10.1082 -0.057371 0)
(10.1007 -0.0575646 0)
(10.0934 -0.0580734 0)
(9.90131 -0.0413847 0)
(9.73294 -0.0504839 0)
(9.56192 -0.0489917 0)
(9.39133 -0.047018 0)
(9.22709 -0.0458009 0)
(9.07072 -0.0448308 0)
(8.92158 -0.0439547 0)
(8.77888 -0.0431863 0)
(8.64196 -0.042514 0)
(8.51066 -0.0419171 0)
(8.38476 -0.0413705 0)
(8.26448 -0.0408852 0)
(8.14933 -0.0404481 0)
(8.03962 -0.0400886 0)
(7.93415 -0.0397587 0)
(7.83402 -0.0395063 0)
(7.7367 -0.0392632 0)
(7.64516 -0.0391493 0)
(0.0231069 -0.0812896 -1.27405e-21)
(0.143055 -0.181334 1.26632e-21)
(0.308605 -0.213931 0)
(0.475118 -0.218235 0)
(0.638282 -0.211731 0)
(0.795628 -0.201151 -1.32951e-21)
(0.945317 -0.188507 0)
(1.08567 -0.173959 0)
(1.21465 -0.157029 0)
(1.32925 -0.137067 0)
(1.42557 -0.113403 1.57061e-21)
(1.49891 -0.085508 0)
(1.54447 -0.0530532 0)
(1.55716 -0.0160174 0)
(1.53172 0.0249786 0)
(1.46392 0.0692394 1.72322e-21)
(1.35036 0.114466 0)
(1.18887 0.159722 0)
(0.981457 0.198739 0)
(0.7316 0.233004 0)
(0.450091 0.249005 0)
(0.148233 0.248249 0)
(-0.161516 0.230213 0)
(-0.420974 0.154439 1.47453e-21)
(-0.724323 0.179709 -1.46941e-21)
(-0.886484 0.0298686 1.46977e-21)
(-1.05366 -0.107672 1.48103e-21)
(-1.32866 -0.180987 0)
(-1.71421 0.0106103 0)
(-2.22533 0.357114 -1.61391e-21)
(-2.88408 0.625024 -1.66156e-21)
(-3.58794 0.654043 0)
(-4.22964 0.602538 0)
(-4.82422 0.550337 -2.08165e-21)
(-5.3649 0.49263 0)
(-5.85217 0.436638 0)
(-6.28633 0.381851 2.72574e-21)
(-6.66836 0.329955 0)
(-6.99941 0.28056 3.12397e-21)
(-7.28048 0.233828 6.58232e-21)
(-7.51245 0.189363 0)
(-7.69601 0.147042 0)
(-7.83182 0.106688 0)
(-7.92085 0.0683462 0)
(-7.96429 0.0321752 0)
(-7.96326 -0.00147628 7.20054e-21)
(-7.91955 -0.0322706 7.0446e-21)
(-7.83608 -0.0600072 6.81923e-21)
(-7.71585 -0.0847062 0)
(-7.56337 -0.106489 -6.18745e-21)
(-7.38158 -0.125441 0)
(-7.17419 -0.14156 5.37174e-21)
(-6.94457 -0.154944 4.91851e-21)
(-6.69637 -0.165653 0)
(-6.43284 -0.173892 0)
(-6.15714 -0.179876 0)
(-5.87209 -0.183854 3.00719e-21)
(-5.58029 -0.186085 0)
(-5.28401 -0.186838 0)
(-4.98523 -0.186333 0)
(-4.68558 -0.184851 0)
(-4.38642 -0.18262 0)
(-4.08859 -0.179937 0)
(-3.79257 -0.177061 0)
(-3.49838 -0.174265 0)
(-3.20563 -0.171707 5.39086e-22)
(-2.91375 -0.16958 0)
(-2.62216 -0.167817 0)
(-2.33022 -0.16642 -1.37744e-21)
(-2.0376 -0.165188 -1.62536e-21)
(-1.74428 -0.163961 0)
(-1.45052 -0.162492 2.07498e-21)
(-1.15686 -0.160661 -2.27599e-21)
(-0.864113 -0.158278 0)
(-0.573387 -0.155258 2.62792e-21)
(-0.286043 -0.151464 0)
(-0.00361568 -0.146881 0)
(0.272275 -0.1415 -3.02253e-21)
(0.540187 -0.135379 0)
(0.79889 -0.128708 3.19582e-21)
(1.04724 -0.121588 0)
(1.28451 -0.114192 -3.30404e-21)
(1.51014 -0.106726 -3.33693e-21)
(1.72372 -0.0993306 -3.35758e-21)
(1.9253 -0.0920377 -6.73514e-21)
(2.11507 -0.0850643 6.73673e-21)
(2.29323 -0.0783659 0)
(2.46022 -0.0719622 0)
(2.61648 -0.0658818 0)
(2.76241 -0.0600781 6.60488e-21)
(2.89835 -0.0545451 6.54722e-21)
(3.0246 -0.0492643 -6.48287e-21)
(3.14144 -0.0442246 0)
(3.24917 -0.0394235 6.33899e-21)
(3.34811 -0.0348658 6.26173e-21)
(3.43859 -0.0305605 6.1823e-21)
(3.52097 -0.0265173 0)
(3.59565 -0.022744 0)
(3.66304 -0.0192443 0)
(3.72359 -0.0160179 5.85942e-21)
(3.77774 -0.0130612 0)
(3.82592 -0.0103679 0)
(3.86858 -0.00792988 -5.62793e-21)
(3.90614 -0.00573762 0)
(3.93902 -0.00377961 0)
(3.96762 -0.00204273 -5.41451e-21)
(3.99232 -0.000511287 0)
(4.01349 0.000831902 0)
(4.03145 0.00200584 5.22115e-21)
(4.04651 0.00303041 5.16104e-21)
(4.05894 0.0039277 0)
(4.06895 0.00471676 -5.04689e-21)
(4.07675 0.00541429 0)
(4.08251 0.0060307 4.94023e-21)
(4.0864 0.00657656 0)
(4.08854 0.00706188 4.84034e-21)
(4.08909 0.00749299 4.7927e-21)
(4.08812 0.00788025 0)
(4.08575 0.00821729 0)
(4.08211 0.00849129 0)
(4.07732 0.00869489 0)
(4.07149 0.0088255 0)
(4.06475 0.0088813 0)
(4.05723 0.00885923 0)
(4.04907 0.00875787 4.45651e-21)
(4.04039 0.00858128 -4.4191e-21)
(4.03133 0.00833718 0)
(4.02202 0.00803594 0)
(4.01257 0.00768978 0)
(4.00308 0.00731189 0)
(3.99366 0.00691507 -8.48791e-21)
(3.98437 0.00651091 0)
(3.97527 0.00610928 8.35752e-21)
(3.9664 0.00571818 -8.29415e-21)
(3.95781 0.00534348 0)
(3.94949 0.00498909 0)
(3.94147 0.00465746 0)
(3.93375 0.00434988 8.05146e-21)
(3.92632 0.00406659 7.99324e-21)
(3.91918 0.00380705 0)
(3.91232 0.00357027 7.87938e-21)
(3.90571 0.00335492 7.82368e-21)
(3.89935 0.00315949 -7.76874e-21)
(3.89322 0.00298225 0)
(3.88731 0.00282138 0)
(3.8816 0.00267523 -7.60819e-21)
(3.87608 0.00254233 0)
(3.87074 0.00242139 0)
(3.86555 0.002311 0)
(3.86052 0.00220963 0)
(3.85562 0.00211586 7.35332e-21)
(3.85085 0.00202898 7.30408e-21)
(3.84619 0.00194906 0)
(3.84165 0.00187729 7.20723e-21)
(3.83719 0.00181482 0)
(3.8328 0.00176327 0)
(3.82845 0.00172282 7.06592e-21)
(3.82414 0.00169445 0)
(3.8198 0.00167696 6.97435e-21)
(3.81545 0.00167192 0)
(3.811 0.00167795 0)
(3.80648 0.00169863 6.84113e-21)
(3.80173 0.00173395 0)
(3.79688 0.00178868 6.75539e-21)
(3.79157 0.00186916 0)
(3.78613 0.00197283 0)
(3.77981 0.00213333 0)
(3.77341 0.00230479 -6.59364e-21)
(3.76533 0.00262446 0)
(3.75731 0.00287188 6.51991e-21)
(3.74617 0.0035474 0)
(3.73519 0.00381488 0)
(3.71884 0.00538388 0)
(3.70156 0.00536909 0)
(3.67681 0.00942226 0)
(3.64336 0.00799019 0)
(3.60683 0.0197306 0)
(3.52367 0.0134302 -1.27722e-20)
(3.47613 0.0543735 0)
(3.21318 0.0440335 0)
(0.0381915 -0.264118 3.84717e-21)
(0.126931 -0.453124 -3.83056e-21)
(0.22564 -0.494947 0)
(0.319666 -0.487757 2.60453e-21)
(0.412186 -0.467372 0)
(0.503312 -0.443162 1.32898e-21)
(0.592635 -0.416053 -2.79913e-21)
(0.678157 -0.38395 -2.89706e-21)
(0.757004 -0.344136 0)
(0.825185 -0.293941 -3.12646e-21)
(0.877927 -0.231368 -1.57065e-21)
(0.909816 -0.155111 0)
(0.915343 -0.0650323 0)
(0.889423 0.0381232 0)
(0.829031 0.152116 0)
(0.730668 0.273602 -1.72331e-21)
(0.592816 0.397236 0)
(0.414033 0.515946 3.53633e-21)
(0.195793 0.624722 0)
(-0.0642569 0.716944 0)
(-0.354304 0.785316 -3.24247e-21)
(-0.683762 0.832551 0)
(-1.01554 0.795056 3.05784e-21)
(-1.38175 0.812135 -1.47113e-21)
(-1.67591 0.668382 1.46532e-21)
(-2.10052 0.486976 -1.46516e-21)
(-2.71023 0.87918 -1.47552e-21)
(-3.4165 1.30584 0)
(-4.10755 1.47918 0)
(-4.65451 1.55503 1.60357e-21)
(-5.13458 1.55108 -2.14963e-21)
(-5.578 1.47101 0)
(-5.9787 1.36239 0)
(-6.34857 1.24043 2.0715e-21)
(-6.68205 1.11467 0)
(-6.98259 0.989933 0)
(-7.2492 0.868638 -2.71626e-21)
(-7.48339 0.751402 0)
(-7.68495 0.638164 3.54276e-21)
(-7.85401 0.528373 -6.56755e-21)
(-7.98995 0.42154 0)
(-8.09221 0.317313 0)
(-8.16008 0.215699 -1.51062e-20)
(-8.19288 0.117035 -1.52143e-20)
(-8.19019 0.0220416 -1.51685e-20)
(-8.1524 -0.0683537 7.77239e-21)
(-8.08017 -0.153219 -7.04062e-21)
(-7.97416 -0.231846 -2.09411e-20)
(-7.83616 -0.303406 1.3505e-20)
(-7.66723 -0.36721 6.18392e-21)
(-7.47062 -0.422786 0)
(-7.24937 -0.469963 -5.3683e-21)
(-7.00715 -0.508857 5.19434e-21)
(-6.7473 -0.539839 0)
(-6.47329 -0.563462 0)
(-6.18807 -0.58044 0)
(-5.89444 -0.591566 -3.00509e-21)
(-5.5948 -0.597626 0)
(-5.29135 -0.599389 4.29077e-21)
(-4.98592 -0.597556 0)
(-4.68013 -0.592881 2.56198e-21)
(-4.37528 -0.586071 0)
(-4.07221 -0.577959 -1.01058e-21)
(-3.77135 -0.56937 0)
(-3.47259 -0.561064 -3.62737e-22)
(-3.17542 -0.553653 4.49644e-22)
(-2.87903 -0.547546 0)
(-2.58258 -0.542745 2.13401e-21)
(-2.28533 -0.539022 1.3766e-21)
(-1.98677 -0.535907 1.62439e-21)
(-1.68685 -0.532716 0)
(-1.38588 -0.528871 1.98426e-21)
(-1.08448 -0.523804 2.2746e-21)
(-0.783512 -0.517039 0)
(-0.484131 -0.508239 -2.62632e-21)
(-0.187735 -0.497125 5.48215e-21)
(0.104042 -0.483558 0)
(0.389527 -0.467592 3.02073e-21)
(0.667154 -0.449394 0)
(0.935678 -0.429447 -9.53442e-21)
(1.19402 -0.408141 0)
(1.44138 -0.386028 9.8672e-21)
(1.67724 -0.363649 3.33504e-21)
(1.90133 -0.341484 -3.32297e-21)
(2.11366 -0.319775 -6.67176e-21)
(2.31445 -0.29888 6.67884e-21)
(2.50404 -0.278863 0)
(2.68282 -0.259751 0)
(2.85126 -0.241535 0)
(3.00979 -0.224147 -1.97681e-20)
(3.15872 -0.207536 -6.54356e-21)
(3.29833 -0.191645 6.47924e-21)
(3.4289 -0.17644 0)
(3.55071 -0.161914 6.3126e-21)
(3.66405 -0.148082 -6.25818e-21)
(3.76925 -0.13497 -6.17876e-21)
(3.86665 -0.12261 0)
(3.95665 -0.111022 0)
(4.03965 -0.100216 0)
(4.1161 -0.0901871 -5.85591e-21)
(4.18642 -0.0809203 0)
(4.25103 -0.0723927 1.13885e-20)
(4.31038 -0.0645763 1.6863e-20)
(4.36487 -0.0574398 -1.10928e-20)
(4.4149 -0.0509488 0)
(4.46088 -0.0450662 -5.40309e-21)
(4.50316 -0.0397513 0)
(4.54208 -0.03496 -1.05529e-20)
(4.57795 -0.0306454 5.21142e-21)
(4.61106 -0.0267582 5.15177e-21)
(4.64164 -0.0232486 0)
(4.66994 -0.0200703 1.51245e-20)
(4.69618 -0.0171827 -9.97333e-21)
(4.72052 -0.0145533 -4.93632e-21)
(4.74311 -0.012153 0)
(4.76411 -0.00995582 -4.83635e-21)
(4.78362 -0.00794083 -1.4363e-20)
(4.80178 -0.0060867 0)
(4.81867 -0.00438437 -9.39248e-21)
(4.83436 -0.00283286 -9.30541e-21)
(4.8489 -0.00142862 -9.2207e-21)
(4.86233 -0.000164969 0)
(4.87469 0.000961399 0)
(4.88602 0.001951 0)
(4.89633 0.00280564 4.45082e-21)
(4.90566 0.00352597 4.41474e-21)
(4.91406 0.00411418 0)
(4.92156 0.004576 8.68384e-21)
(4.92822 0.00491909 8.61395e-21)
(4.93408 0.00515399 0)
(4.93921 0.0052933 8.47905e-21)
(4.94367 0.00535012 1.68255e-20)
(4.94753 0.0053376 -8.34868e-21)
(4.95083 0.00526911 -8.2846e-21)
(4.95366 0.00515719 0)
(4.95605 0.00501265 0)
(4.95806 0.00484487 0)
(4.95974 0.00466175 -8.04281e-21)
(4.96113 0.00446974 7.98433e-21)
(4.96226 0.00427389 1.58544e-20)
(4.96318 0.00407813 -7.87091e-21)
(4.9639 0.00388542 7.81509e-21)
(4.96446 0.00369792 7.76041e-21)
(4.96487 0.00351711 0)
(4.96516 0.00334389 0)
(4.96534 0.00317881 -7.59998e-21)
(4.96544 0.00302218 0)
(4.96545 0.00287421 0)
(4.96539 0.00273494 1.48912e-20)
(4.96527 0.00260428 0)
(4.9651 0.00248206 7.34555e-21)
(4.96488 0.00236841 -7.29647e-21)
(4.96462 0.00226392 0)
(4.96431 0.00217 7.19969e-21)
(4.96396 0.0020885 0)
(4.96357 0.00202172 0)
(4.96314 0.00197173 -7.05872e-21)
(4.96265 0.00194055 1.40254e-20)
(4.96209 0.0019304 -6.96732e-21)
(4.96146 0.00194285 0)
(4.96074 0.00198275 0)
(4.95991 0.00205015 6.83401e-21)
(4.95893 0.00215889 0)
(4.95777 0.00230016 6.74827e-21)
(4.95638 0.00251486 0)
(4.95469 0.00275894 0)
(4.95265 0.00315551 0)
(4.95009 0.00354073 6.58727e-21)
(4.94702 0.00428543 0)
(4.94297 0.00484565 -6.51366e-21)
(4.93823 0.00632773 0)
(4.93147 0.0070306 0)
(4.92408 0.0102247 1.28343e-20)
(4.91192 0.0107872 -1.27837e-20)
(4.90035 0.0183284 0)
(4.87632 0.0178126 0)
(4.8583 0.0376962 0)
(4.80575 0.0349662 3.82031e-20)
(4.78103 0.0969973 0)
(4.66438 0.104346 -2.5616e-20)
(0.036127 -0.418331 3.14069e-23)
(0.0731825 -0.592916 5.16507e-21)
(0.11041 -0.614595 0)
(0.143241 -0.60365 -5.25785e-21)
(0.179571 -0.589043 0)
(0.21851 -0.570492 0)
(0.258918 -0.544681 -7.55379e-23)
(0.297491 -0.5069 2.89649e-21)
(0.330375 -0.452695 3.11004e-21)
(0.352772 -0.377975 3.12636e-21)
(0.359325 -0.279575 0)
(0.34386 -0.156038 0)
(0.300613 -0.008632 -3.63638e-21)
(0.223832 0.159313 -7.45676e-21)
(0.11016 0.343484 7.57209e-21)
(-0.0437058 0.538627 0)
(-0.236072 0.737189 7.56216e-21)
(-0.46587 0.928814 -3.53685e-21)
(-0.728208 1.10367 0)
(-1.01877 1.25926 7.04767e-21)
(-1.3311 1.3706 3.23991e-21)
(-1.67046 1.44049 -6.60892e-21)
(-2.03064 1.46886 -3.05272e-21)
(-2.40305 1.33429 0)
(-2.82972 1.41435 6.42352e-21)
(-3.52467 1.85101 6.60871e-21)
(-4.11544 2.0873 0)
(-4.61118 2.20395 7.25815e-21)
(-5.04666 2.23412 0)
(-5.40579 2.21836 8.23027e-21)
(-5.72556 2.14458 3.79196e-21)
(-6.00999 2.02312 0)
(-6.27773 1.87554 0)
(-6.5332 1.71365 0)
(-6.77839 1.54834 0)
(-7.01251 1.38333 0)
(-7.23277 1.22119 0)
(-7.43603 1.06171 1.38048e-20)
(-7.61852 0.90458 -2.11245e-20)
(-7.77658 0.748876 0)
(-7.90666 0.594182 0)
(-8.00547 0.440361 0)
(-8.07024 0.287882 -1.01863e-21)
(-8.09879 0.137577 1.52154e-20)
(-8.08988 -0.00931043 3.12875e-20)
(-8.04334 -0.151304 -3.08454e-20)
(-7.96006 -0.286657 -1.54728e-20)
(-7.84137 -0.413374 1.41297e-20)
(-7.68922 -0.529305 7.2631e-22)
(-7.50664 -0.63278 1.34324e-20)
(-7.29731 -0.722678 0)
(-7.0652 -0.798564 1.15725e-20)
(-6.81425 -0.860566 4.49292e-22)
(-6.54823 -0.909396 0)
(-6.27052 -0.946079 0)
(-5.98412 -0.971895 -7.4413e-21)
(-5.69155 -0.98825 0)
(-5.39494 -0.996497 0)
(-5.0961 -0.99788 4.6872e-21)
(-4.79661 -0.993543 7.16747e-21)
(-4.49791 -0.984601 -2.56333e-21)
(-4.20122 -0.972212 0)
(-3.90741 -0.957743 1.01191e-21)
(-3.61681 -0.942654 0)
(-3.32914 -0.928332 -7.65135e-23)
(-3.04355 -0.915917 -9.87017e-22)
(-2.75879 -0.906039 2.85303e-21)
(-2.47347 -0.898837 1.82511e-21)
(-2.18645 -0.893695 0)
(-1.89689 -0.889663 -5.99439e-21)
(-1.60469 -0.885459 0)
(-1.31031 -0.879987 -1.18685e-20)
(-1.01449 -0.872265 -8.63555e-21)
(-0.718337 -0.861527 -9.39786e-21)
(-0.423222 -0.847228 1.00955e-20)
(-0.130697 -0.828906 -1.62048e-20)
(0.15741 -0.806396 0)
(0.439234 -0.779708 0)
(0.713036 -0.74925 1.21775e-20)
(0.977495 -0.715732 1.88535e-20)
(1.2316 -0.679976 0)
(1.47457 -0.642958 -6.56246e-21)
(1.70601 -0.605552 0)
(1.92583 -0.568539 1.99182e-20)
(2.1342 -0.532472 1.00716e-22)
(2.33138 -0.49776 -9.15902e-23)
(2.51778 -0.464592 -1.33009e-20)
(2.6938 -0.433014 0)
(2.85987 -0.402957 1.31909e-20)
(3.01635 -0.374312 6.01123e-23)
(3.1635 -0.34696 0)
(3.30154 -0.320794 0)
(3.43069 -0.295753 0)
(3.5512 -0.271828 -1.26457e-20)
(3.66333 -0.249051 0)
(3.76739 -0.22748 0)
(3.86374 -0.207169 0)
(3.95279 -0.188161 0)
(4.03495 -0.170469 0)
(4.11066 -0.154086 -1.16755e-20)
(4.18035 -0.138988 0)
(4.24445 -0.125137 -1.13876e-20)
(4.30336 -0.112489 -1.12379e-20)
(4.35751 -0.100993 1.10921e-20)
(4.40731 -0.090591 0)
(4.45318 -0.0812142 1.08135e-20)
(4.49551 -0.072785 0)
(4.53468 -0.0652183 1.05525e-20)
(4.57105 -0.0584269 -1.04285e-20)
(4.60493 -0.0523247 -3.09084e-20)
(4.63656 -0.0468326 0)
(4.66616 -0.0418784 -3.02288e-20)
(4.69391 -0.0373985 -9.95957e-21)
(4.71995 -0.0333372 0)
(4.74441 -0.0296473 -1.95234e-20)
(4.7674 -0.0262877 -1.93282e-20)
(4.78901 -0.0232226 2.87132e-20)
(4.80933 -0.020423 0)
(4.82844 -0.0178586 9.3923e-21)
(4.84642 -0.0155042 9.30523e-21)
(4.86332 -0.0133411 2.76553e-20)
(4.8792 -0.0113555 0)
(4.8941 -0.00953811 0)
(4.90804 -0.00788227 0)
(4.92108 -0.00638309 8.89866e-21)
(4.93324 -0.0050397 0)
(4.94453 -0.00385043 0)
(4.955 -0.00281098 -8.68352e-21)
(4.96466 -0.00191432 -8.6136e-21)
(4.97357 -0.00115263 0)
(4.98175 -0.000515709 0)
(4.98925 9.15088e-06 -1.68246e-20)
(4.9961 0.000434094 0)
(5.00236 0.000771877 1.65689e-20)
(5.00806 0.00103529 1.64435e-20)
(5.01326 0.00123601 0)
(5.01799 0.00138478 0)
(5.02228 0.00149109 -1.60834e-20)
(5.02619 0.00156306 -6.02775e-25)
(5.02973 0.00160751 -5.21463e-25)
(5.03294 0.00163013 0)
(5.03586 0.00163556 -3.12578e-20)
(5.0385 0.00162752 0)
(5.04088 0.00160897 0)
(5.04304 0.00158224 0)
(5.04499 0.00154923 1.51987e-20)
(5.04675 0.0015116 0)
(5.04833 0.00147077 -2.99827e-20)
(5.04976 0.00142799 -1.48898e-20)
(5.05103 0.00138427 0)
(5.05218 0.00134068 -1.46898e-20)
(5.05319 0.00129841 0)
(5.05409 0.00125946 0)
(5.05488 0.0012262 -4.3194e-20)
(5.05556 0.00120218 2.86057e-20)
(5.05614 0.00119033 0)
(5.05663 0.00119508 2.82315e-20)
(5.05702 0.00121812 -1.4024e-20)
(5.05732 0.00126553 0)
(5.05751 0.00133662 0)
(5.05759 0.00144411 0)
(5.05754 0.001582 -4.10001e-20)
(5.05737 0.00178089 0)
(5.057 0.00201706 -1.34957e-20)
(5.05647 0.00236541 0)
(5.05563 0.00274759 0)
(5.05456 0.00335317 0)
(5.05297 0.00394905 0)
(5.05108 0.0050275 0)
(5.04823 0.00593028 0)
(5.04503 0.00794652 -2.5904e-20)
(5.03997 0.00927254 0)
(5.03459 0.0132932 -1.28329e-20)
(5.02552 0.0151953 3.83302e-20)
(5.01638 0.0238686 0)
(4.9998 0.0268855 0)
(4.98406 0.047655 -2.53598e-20)
(4.95453 0.0557578 -2.54398e-20)
(4.93009 0.112091 2.53738e-20)
(4.89106 0.144931 2.561e-20)
(0.02073 -0.495722 -7.85962e-21)
(0.0140081 -0.623227 -7.86041e-21)
(0.00896034 -0.634103 -5.3038e-21)
(0.000567911 -0.628028 -2.73233e-21)
(-0.00353745 -0.621156 0)
(-0.00626182 -0.606637 5.6761e-21)
(-0.00893078 -0.579069 -3.01355e-21)
(-0.0153382 -0.531862 0)
(-0.0294183 -0.45896 -3.10993e-21)
(-0.0561373 -0.355119 0)
(-0.101166 -0.21597 7.05486e-21)
(-0.169951 -0.0395078 0)
(-0.26708 0.172332 3.63769e-21)
(-0.397201 0.41242 7.459e-21)
(-0.562101 0.670823 -7.57356e-21)
(-0.763044 0.935647 0)
(-0.994528 1.19352 -7.56051e-21)
(-1.25375 1.43429 0)
(-1.53686 1.64782 0)
(-1.83725 1.82353 -7.03908e-21)
(-2.15811 1.97631 0)
(-2.49503 2.07245 -4.51984e-22)
(-2.81773 2.07351 0)
(-3.27913 2.23501 0)
(-3.82782 2.55146 7.75563e-22)
(-4.30638 2.74205 -6.58791e-21)
(-4.68929 2.8088 -7.85052e-21)
(-5.02425 2.82151 -7.24418e-21)
(-5.31477 2.77565 0)
(-5.57686 2.69381 -1.76853e-20)
(-5.82217 2.57421 0)
(-6.05505 2.4299 -1.08001e-20)
(-6.28217 2.267 0)
(-6.50261 2.09309 0)
(-6.71752 1.91255 1.30235e-20)
(-6.92423 1.72788 0)
(-7.1204 1.54031 -1.45243e-20)
(-7.30228 1.34986 1.43005e-21)
(-7.46616 1.15632 3.03515e-20)
(-7.60779 0.959253 -3.29158e-20)
(-7.7231 0.758673 0)
(-7.8081 0.555051 0)
(-7.85953 0.349537 -1.88342e-20)
(-7.8748 0.143897 0)
(-7.85224 -0.0593716 -1.6125e-20)
(-7.79098 -0.257174 1.58838e-20)
(-7.69116 -0.445717 1.54841e-20)
(-7.55382 -0.621204 0)
(-7.3815 -0.780758 -1.4245e-20)
(-7.17818 -0.92213 -1.34419e-20)
(-6.94839 -1.04386 2.66552e-20)
(-6.69705 -1.1453 -1.15811e-20)
(-6.42916 -1.22682 -1.05691e-20)
(-6.14933 -1.28957 0)
(-5.86153 -1.33535 0)
(-5.56902 -1.36629 7.44837e-21)
(-5.27432 -1.38455 0)
(-4.97926 -1.39225 0)
(-4.6853 -1.39116 -8.99081e-21)
(-4.39369 -1.38277 -7.17802e-21)
(-4.10563 -1.36843 0)
(-3.82231 -1.34956 0)
(-3.54464 -1.32789 0)
(-3.27282 -1.30552 0)
(-3.00615 -1.28464 4.31712e-22)
(-2.74307 -1.26708 -1.29965e-21)
(-2.48142 -1.25398 -2.84812e-21)
(-2.21875 -1.24555 -7.49948e-21)
(-1.95284 -1.24077 0)
(-1.6822 -1.23783 4.21086e-22)
(-1.40638 -1.23453 0)
(-1.12598 -1.22892 7.80817e-21)
(-0.842097 -1.21968 3.92515e-22)
(-0.556242 -1.20593 9.39351e-21)
(-0.27008 -1.18692 -1.00909e-20)
(0.014543 -1.16201 3.22836e-22)
(0.29544 -1.13088 0)
(0.570367 -1.0936 -1.14937e-20)
(0.837089 -1.05074 -1.21724e-20)
(1.09396 -1.00349 -2.48007e-20)
(1.33987 -0.953254 0)
(1.57412 -0.901471 1.2805e-20)
(1.79663 -0.849427 0)